/*--------------------------------*- C++ -*----------------------------------*\
  =========                 |
  \\      /  F ield         | OpenFOAM: The Open Source CFD Toolbox
   \\    /   O peration     | Website:  https://openfoam.org
    \\  /    A nd           | Version:  7
     \\/     M anipulation  |
\*---------------------------------------------------------------------------*/
FoamFile
{
    version     2.0;
    format      ascii;
    class       volScalarField;
    location    "45";
    object      p;
}
// * * * * * * * * * * * * * * * * * * * * * * * * * * * * * * * * * * * * * //

dimensions      [0 2 -2 0 0 0 0];

internalField   nonuniform List<scalar> 
1989
(
-0.177493
-0.173806
-0.170011
-0.166115
-0.162123
-0.158043
-0.153884
-0.149655
-0.145365
-0.141024
-0.136645
-0.132237
-0.127813
-0.123385
-0.118965
-0.114564
-0.110194
-0.105868
-0.101595
-0.0973873
-0.0932538
-0.0892041
-0.0852466
-0.0813891
-0.0776382
-0.074
-0.0704794
-0.0670806
-0.0638068
-0.225064
-0.224992
-0.22478
-0.224429
-0.223938
-0.223307
-0.222536
-0.221627
-0.22058
-0.219399
-0.218087
-0.216654
-0.215097
-0.213411
-0.211591
-0.209638
-0.207554
-0.205337
-0.202989
-0.200508
-0.197896
-0.195153
-0.192281
-0.189282
-0.186156
-0.182907
-0.179538
-0.176052
-0.172454
-0.168748
-0.164941
-0.16104
-0.15705
-0.152982
-0.148842
-0.144642
-0.14039
-0.136098
-0.131776
-0.127436
-0.12309
-0.118749
-0.114424
-0.110127
-0.10587
-0.101663
-0.0975164
-0.0934402
-0.0894433
-0.0855343
-0.0817207
-0.0780093
-0.0744059
-0.0709158
-0.0675431
-0.0642911
-0.221002
-0.221038
-0.220932
-0.220685
-0.220297
-0.219769
-0.2191
-0.218292
-0.217347
-0.216265
-0.215053
-0.213713
-0.212248
-0.210652
-0.208922
-0.207059
-0.205063
-0.202935
-0.200675
-0.198283
-0.19576
-0.193106
-0.190323
-0.187413
-0.184378
-0.181219
-0.177941
-0.174547
-0.171041
-0.167429
-0.163715
-0.159907
-0.156011
-0.152036
-0.14799
-0.143883
-0.139723
-0.135521
-0.131288
-0.127035
-0.122773
-0.118513
-0.114267
-0.110045
-0.10586
-0.10172
-0.0976374
-0.0936204
-0.0896783
-0.0858195
-0.0820515
-0.0783811
-0.0748141
-0.0713559
-0.0680105
-0.0647816
-0.216861
-0.217004
-0.217002
-0.216858
-0.216572
-0.216145
-0.215578
-0.21487
-0.214025
-0.213043
-0.211929
-0.210684
-0.209311
-0.207806
-0.206167
-0.204395
-0.202491
-0.200453
-0.198284
-0.195983
-0.19355
-0.190988
-0.188297
-0.185479
-0.182536
-0.179471
-0.176287
-0.172988
-0.169577
-0.166061
-0.162443
-0.158732
-0.154933
-0.151054
-0.147104
-0.143091
-0.139025
-0.134916
-0.130774
-0.12661
-0.122435
-0.118259
-0.114093
-0.109949
-0.105837
-0.101767
-0.0977496
-0.0937936
-0.089908
-0.0861011
-0.0823802
-0.0787523
-0.0752231
-0.071798
-0.0684813
-0.0652766
-0.212659
-0.212906
-0.213007
-0.212965
-0.21278
-0.212453
-0.211985
-0.211378
-0.210631
-0.209749
-0.208732
-0.207582
-0.206302
-0.204889
-0.203343
-0.201664
-0.199851
-0.197906
-0.195829
-0.19362
-0.19128
-0.188811
-0.186214
-0.18349
-0.180642
-0.177673
-0.174585
-0.171383
-0.16807
-0.164651
-0.161132
-0.157519
-0.153818
-0.150038
-0.146186
-0.14227
-0.138301
-0.134286
-0.130237
-0.126164
-0.122077
-0.117986
-0.113903
-0.109838
-0.105801
-0.101803
-0.0978521
-0.0939586
-0.0901311
-0.0863774
-0.0827052
-0.0791211
-0.075631
-0.0722403
-0.0689535
-0.0657741
-0.208407
-0.208756
-0.208959
-0.209017
-0.208932
-0.208705
-0.208336
-0.207827
-0.207179
-0.206394
-0.205474
-0.20442
-0.203233
-0.201914
-0.200461
-0.198875
-0.197156
-0.195304
-0.19332
-0.191205
-0.18896
-0.186585
-0.184083
-0.181455
-0.178704
-0.175832
-0.172842
-0.169738
-0.166524
-0.163205
-0.159786
-0.156273
-0.152673
-0.148993
-0.14524
-0.141423
-0.137551
-0.133633
-0.129678
-0.125697
-0.1217
-0.117696
-0.113697
-0.109712
-0.105752
-0.101826
-0.0979438
-0.0941143
-0.0903461
-0.0866471
-0.0830248
-0.0794858
-0.0760362
-0.0726811
-0.0694252
-0.0662724
-0.204116
-0.204565
-0.204868
-0.205026
-0.205039
-0.20491
-0.204639
-0.204228
-0.203678
-0.20299
-0.202167
-0.201208
-0.200116
-0.19889
-0.197532
-0.196039
-0.194414
-0.192656
-0.190767
-0.188746
-0.186596
-0.184318
-0.181912
-0.179382
-0.176728
-0.173954
-0.171064
-0.16806
-0.164946
-0.161728
-0.15841
-0.154999
-0.1515
-0.147921
-0.144268
-0.140552
-0.136778
-0.132957
-0.129098
-0.125211
-0.121304
-0.117389
-0.113475
-0.109571
-0.105689
-0.101837
-0.0980239
-0.0942595
-0.0905519
-0.0869088
-0.0833376
-0.0798449
-0.0764368
-0.0731185
-0.0698948
-0.0667694
-0.199795
-0.200343
-0.200744
-0.200999
-0.20111
-0.201078
-0.200904
-0.20059
-0.200136
-0.199545
-0.198817
-0.197954
-0.196957
-0.195826
-0.194561
-0.193163
-0.191632
-0.189969
-0.188175
-0.186251
-0.184197
-0.182015
-0.179707
-0.177274
-0.17472
-0.172046
-0.169255
-0.166352
-0.16334
-0.160223
-0.157007
-0.153698
-0.150302
-0.146825
-0.143274
-0.139658
-0.135984
-0.132261
-0.128499
-0.124705
-0.12089
-0.117064
-0.113236
-0.109415
-0.105611
-0.101834
-0.0980915
-0.0943933
-0.0907473
-0.0871612
-0.0836422
-0.0801969
-0.0768314
-0.073551
-0.0703604
-0.0672637
-0.195455
-0.196099
-0.196595
-0.196945
-0.197152
-0.197215
-0.197137
-0.196919
-0.196561
-0.196066
-0.195434
-0.194666
-0.193763
-0.192726
-0.191556
-0.190253
-0.188817
-0.18725
-0.185552
-0.183723
-0.181766
-0.179682
-0.177472
-0.175138
-0.172683
-0.170109
-0.16742
-0.164618
-0.161708
-0.158694
-0.155581
-0.152375
-0.149081
-0.145707
-0.142258
-0.138743
-0.135169
-0.131545
-0.12788
-0.124181
-0.120459
-0.116722
-0.11298
-0.109243
-0.105519
-0.101817
-0.0981459
-0.0945148
-0.0909313
-0.0874031
-0.0839374
-0.0805405
-0.0772187
-0.0739772
-0.0708208
-0.0677536
-0.191105
-0.191842
-0.19243
-0.192874
-0.193174
-0.193331
-0.193347
-0.193223
-0.19296
-0.192559
-0.192022
-0.191348
-0.19054
-0.189598
-0.188523
-0.187315
-0.185974
-0.184503
-0.182901
-0.181169
-0.179309
-0.177323
-0.175212
-0.172978
-0.170622
-0.168149
-0.165561
-0.162861
-0.160054
-0.157143
-0.154134
-0.151031
-0.14784
-0.144569
-0.141223
-0.137809
-0.134336
-0.130811
-0.127243
-0.123639
-0.12001
-0.116364
-0.112709
-0.109055
-0.105411
-0.101785
-0.0981865
-0.0946232
-0.0911031
-0.0876337
-0.084222
-0.0808746
-0.0775973
-0.0743956
-0.0712744
-0.0682377
-0.186756
-0.187581
-0.188259
-0.188793
-0.189183
-0.189432
-0.18954
-0.189509
-0.189339
-0.189032
-0.188588
-0.188009
-0.187295
-0.186447
-0.185466
-0.184353
-0.183108
-0.181732
-0.180227
-0.178592
-0.17683
-0.174942
-0.17293
-0.170795
-0.168541
-0.166169
-0.163683
-0.161085
-0.158381
-0.155573
-0.152667
-0.149668
-0.146581
-0.143413
-0.140169
-0.136857
-0.133485
-0.130059
-0.126588
-0.123081
-0.119544
-0.115988
-0.112421
-0.108851
-0.105288
-0.101739
-0.0982127
-0.0947179
-0.0912619
-0.087852
-0.0844952
-0.0811979
-0.0779661
-0.0748052
-0.07172
-0.0687148
-0.182416
-0.183326
-0.18409
-0.184711
-0.18519
-0.185528
-0.185726
-0.185785
-0.185706
-0.185491
-0.18514
-0.184653
-0.184033
-0.183278
-0.182392
-0.181373
-0.180224
-0.178944
-0.177534
-0.175997
-0.174333
-0.172543
-0.17063
-0.168596
-0.166442
-0.164171
-0.161787
-0.159292
-0.15669
-0.153986
-0.151184
-0.148288
-0.145305
-0.142239
-0.139099
-0.135889
-0.132617
-0.12929
-0.125917
-0.122505
-0.119062
-0.115596
-0.112117
-0.108631
-0.105149
-0.101677
-0.0982242
-0.0947984
-0.091407
-0.0880573
-0.0847561
-0.0815097
-0.0783242
-0.0752048
-0.0721566
-0.0691837
-0.178097
-0.179087
-0.179933
-0.180637
-0.181201
-0.181625
-0.18191
-0.182058
-0.182069
-0.181943
-0.181683
-0.181288
-0.18076
-0.180099
-0.179305
-0.178381
-0.177326
-0.176141
-0.174828
-0.173388
-0.171821
-0.17013
-0.168316
-0.166382
-0.164328
-0.162159
-0.159876
-0.157484
-0.154985
-0.152384
-0.149685
-0.146893
-0.144014
-0.141051
-0.138013
-0.134905
-0.131733
-0.128506
-0.12523
-0.121913
-0.118563
-0.115188
-0.111797
-0.108396
-0.104994
-0.1016
-0.0982206
-0.0948642
-0.0915379
-0.0882489
-0.0850039
-0.0818091
-0.0786705
-0.0755935
-0.0725829
-0.0696432
-0.173809
-0.174874
-0.175798
-0.176581
-0.177226
-0.177733
-0.178103
-0.178336
-0.178434
-0.178397
-0.178225
-0.177921
-0.177483
-0.176914
-0.176213
-0.175382
-0.174421
-0.173331
-0.172114
-0.17077
-0.1693
-0.167707
-0.165992
-0.164157
-0.162204
-0.160136
-0.157955
-0.155665
-0.153269
-0.150771
-0.148175
-0.145486
-0.142709
-0.13985
-0.136914
-0.133907
-0.130835
-0.127707
-0.124528
-0.121307
-0.11805
-0.114765
-0.111461
-0.108145
-0.104824
-0.101507
-0.0982017
-0.094915
-0.0916542
-0.0884263
-0.0852379
-0.0820953
-0.0790043
-0.0759702
-0.072998
-0.0700922
-0.169562
-0.170697
-0.171694
-0.172553
-0.173275
-0.173861
-0.174312
-0.174629
-0.174811
-0.174859
-0.174775
-0.174558
-0.17421
-0.17373
-0.173121
-0.172382
-0.171514
-0.170518
-0.169396
-0.168148
-0.166775
-0.165279
-0.163663
-0.161927
-0.160074
-0.158106
-0.156026
-0.153838
-0.151544
-0.149148
-0.146655
-0.144069
-0.141395
-0.138637
-0.135803
-0.132896
-0.129925
-0.126895
-0.123813
-0.120686
-0.117521
-0.114327
-0.11111
-0.107878
-0.104639
-0.101399
-0.0981675
-0.0949505
-0.0917554
-0.0885889
-0.0854576
-0.0823676
-0.0793246
-0.0763341
-0.073401
-0.0705298
-0.165368
-0.166568
-0.167632
-0.168562
-0.169358
-0.170019
-0.170548
-0.170944
-0.171207
-0.171339
-0.171339
-0.171208
-0.170947
-0.170556
-0.170036
-0.169388
-0.168612
-0.167709
-0.166681
-0.165527
-0.16425
-0.162851
-0.161332
-0.159695
-0.157941
-0.156073
-0.154094
-0.152006
-0.149814
-0.14752
-0.145129
-0.142645
-0.140072
-0.137416
-0.134682
-0.131876
-0.129003
-0.126071
-0.123085
-0.120052
-0.11698
-0.113875
-0.110745
-0.107597
-0.104438
-0.101276
-0.0981179
-0.0949707
-0.0918413
-0.0887364
-0.0856624
-0.0826253
-0.0796309
-0.0766845
-0.073791
-0.0709549
-0.161238
-0.162497
-0.163625
-0.16462
-0.165484
-0.166218
-0.16682
-0.167292
-0.167634
-0.167845
-0.167927
-0.16788
-0.167704
-0.167399
-0.166967
-0.166408
-0.165722
-0.164911
-0.163974
-0.162914
-0.161732
-0.160429
-0.159006
-0.157466
-0.15581
-0.154041
-0.152161
-0.150174
-0.148082
-0.145889
-0.143599
-0.141216
-0.138744
-0.136188
-0.133554
-0.130847
-0.128073
-0.125237
-0.122346
-0.119407
-0.116426
-0.11341
-0.110366
-0.107301
-0.104223
-0.101138
-0.0980531
-0.0949756
-0.0919119
-0.0888686
-0.085852
-0.082868
-0.0799224
-0.0770204
-0.0741669
-0.0713666
-0.157184
-0.158497
-0.159682
-0.160738
-0.161667
-0.162467
-0.163139
-0.163683
-0.1641
-0.164388
-0.164549
-0.164582
-0.164488
-0.164268
-0.163921
-0.163449
-0.162851
-0.16213
-0.161284
-0.160316
-0.159227
-0.158018
-0.15669
-0.155246
-0.153687
-0.152016
-0.150234
-0.148346
-0.146353
-0.14426
-0.142069
-0.139786
-0.137414
-0.134958
-0.132422
-0.129813
-0.127135
-0.124395
-0.121599
-0.118752
-0.115861
-0.112933
-0.109975
-0.106993
-0.103994
-0.100985
-0.0979736
-0.0949653
-0.091967
-0.0889852
-0.086026
-0.0830953
-0.0801986
-0.0773412
-0.0745282
-0.0717639
-0.153218
-0.154579
-0.155816
-0.156928
-0.157916
-0.158778
-0.159516
-0.160129
-0.160616
-0.160978
-0.161214
-0.161325
-0.161311
-0.161172
-0.160908
-0.16052
-0.160009
-0.159374
-0.158618
-0.15774
-0.156742
-0.155626
-0.154391
-0.153041
-0.151578
-0.150002
-0.148318
-0.146527
-0.144632
-0.142637
-0.140545
-0.138359
-0.136085
-0.133727
-0.131289
-0.128776
-0.126194
-0.123548
-0.120844
-0.118089
-0.115287
-0.112446
-0.109572
-0.106672
-0.103752
-0.100819
-0.0978796
-0.0949401
-0.0920069
-0.0890863
-0.0861842
-0.0833066
-0.0804589
-0.0776464
-0.0748739
-0.072146
-0.149352
-0.150755
-0.152038
-0.153201
-0.154243
-0.155164
-0.155963
-0.15664
-0.157194
-0.157625
-0.157933
-0.158118
-0.158181
-0.15812
-0.157936
-0.157631
-0.157203
-0.156654
-0.155984
-0.155194
-0.154285
-0.153259
-0.152116
-0.150859
-0.149488
-0.148007
-0.146418
-0.144722
-0.142923
-0.141024
-0.139029
-0.13694
-0.134763
-0.1325
-0.130158
-0.12774
-0.125252
-0.122699
-0.120086
-0.11742
-0.114706
-0.111951
-0.10916
-0.106341
-0.103498
-0.10064
-0.0977721
-0.0949005
-0.0920318
-0.0891718
-0.0863266
-0.0835019
-0.080703
-0.0779352
-0.0752034
-0.072512
-0.145598
-0.147038
-0.148362
-0.149571
-0.150662
-0.151636
-0.152491
-0.153228
-0.153844
-0.154341
-0.154718
-0.154974
-0.155109
-0.155123
-0.155017
-0.15479
-0.154443
-0.153976
-0.15339
-0.152686
-0.151864
-0.150926
-0.149872
-0.148705
-0.147426
-0.146037
-0.14454
-0.142938
-0.141233
-0.139428
-0.137527
-0.135533
-0.13345
-0.131282
-0.129033
-0.126708
-0.124312
-0.121849
-0.119326
-0.116748
-0.11412
-0.111449
-0.10874
-0.106
-0.103234
-0.100449
-0.0976517
-0.0948473
-0.0920421
-0.0892421
-0.0864532
-0.0836808
-0.0809305
-0.0782072
-0.0755159
-0.0728612
-0.141968
-0.143439
-0.1448
-0.146048
-0.147184
-0.148206
-0.149113
-0.149905
-0.15058
-0.151139
-0.151579
-0.151902
-0.152107
-0.152193
-0.15216
-0.152009
-0.15174
-0.151353
-0.150848
-0.150226
-0.149488
-0.148635
-0.147668
-0.146589
-0.145398
-0.144099
-0.142692
-0.141181
-0.139568
-0.137855
-0.136046
-0.134144
-0.132153
-0.130077
-0.127919
-0.125685
-0.123378
-0.121004
-0.118569
-0.116076
-0.113533
-0.110943
-0.108315
-0.105652
-0.102961
-0.100248
-0.0975197
-0.0947811
-0.0920385
-0.0892976
-0.0865641
-0.0838435
-0.0811411
-0.0784621
-0.0758111
-0.0731928
-0.138475
-0.139972
-0.141363
-0.142647
-0.143822
-0.144888
-0.145842
-0.146685
-0.147414
-0.14803
-0.148531
-0.148916
-0.149186
-0.14934
-0.149378
-0.149299
-0.149104
-0.148793
-0.148366
-0.147824
-0.147167
-0.146396
-0.145513
-0.144518
-0.143414
-0.142201
-0.140882
-0.139459
-0.137934
-0.13631
-0.134591
-0.132778
-0.130877
-0.128889
-0.12682
-0.124674
-0.122455
-0.120167
-0.117817
-0.115408
-0.112946
-0.110437
-0.107886
-0.105298
-0.102681
-0.100038
-0.0973773
-0.0947032
-0.0920218
-0.0893388
-0.0866598
-0.08399
-0.0813349
-0.0786994
-0.0760883
-0.0735061
-0.13513
-0.136648
-0.138065
-0.13938
-0.14059
-0.141694
-0.142691
-0.14358
-0.144359
-0.145027
-0.145584
-0.146029
-0.14636
-0.146578
-0.146682
-0.146672
-0.146548
-0.146309
-0.145956
-0.14549
-0.144911
-0.144219
-0.143416
-0.142503
-0.141481
-0.140351
-0.139117
-0.137779
-0.13634
-0.134802
-0.133169
-0.131443
-0.129627
-0.127726
-0.125743
-0.123682
-0.121547
-0.119343
-0.117074
-0.114746
-0.112364
-0.109932
-0.107456
-0.104942
-0.102396
-0.0998216
-0.0972262
-0.0946147
-0.091993
-0.0893665
-0.0867406
-0.0841207
-0.0815118
-0.078919
-0.0763471
-0.0738005
-0.131946
-0.13348
-0.134919
-0.136259
-0.137499
-0.138638
-0.139673
-0.140604
-0.141428
-0.142145
-0.142753
-0.143252
-0.143641
-0.143919
-0.144085
-0.14414
-0.144082
-0.143912
-0.14363
-0.143236
-0.14273
-0.142114
-0.141388
-0.140552
-0.139609
-0.13856
-0.137406
-0.13615
-0.134793
-0.133337
-0.131787
-0.130144
-0.128411
-0.126593
-0.124692
-0.122713
-0.120659
-0.118535
-0.116346
-0.114096
-0.111789
-0.109432
-0.10703
-0.104586
-0.102108
-0.0996001
-0.0970681
-0.0945173
-0.0919534
-0.0893816
-0.0868073
-0.0842357
-0.081672
-0.0791209
-0.0765872
-0.0740755
-0.128934
-0.130481
-0.131937
-0.133299
-0.134565
-0.135733
-0.136802
-0.13777
-0.138636
-0.139397
-0.140052
-0.140602
-0.141044
-0.141377
-0.141601
-0.141716
-0.141721
-0.141615
-0.1414
-0.141074
-0.140638
-0.140093
-0.139439
-0.138678
-0.13781
-0.136837
-0.13576
-0.134581
-0.133302
-0.131925
-0.130454
-0.12889
-0.127237
-0.125497
-0.123675
-0.121774
-0.119798
-0.11775
-0.115637
-0.113461
-0.111228
-0.108942
-0.106609
-0.104234
-0.101821
-0.0993763
-0.0969051
-0.0944127
-0.0919043
-0.0893852
-0.0868607
-0.0843359
-0.0818156
-0.0793049
-0.0768084
-0.0743306
-0.126108
-0.127664
-0.129134
-0.130513
-0.131801
-0.132995
-0.134094
-0.135095
-0.135997
-0.136798
-0.137496
-0.138091
-0.138582
-0.138966
-0.139244
-0.139415
-0.139478
-0.139433
-0.139279
-0.139017
-0.138647
-0.138169
-0.137583
-0.136891
-0.136094
-0.135192
-0.134188
-0.133082
-0.131877
-0.130575
-0.129178
-0.127689
-0.126111
-0.124446
-0.122698
-0.120871
-0.118969
-0.116994
-0.114952
-0.112847
-0.110683
-0.108465
-0.106199
-0.103887
-0.101537
-0.0991529
-0.0967398
-0.0943029
-0.0918475
-0.0893788
-0.0869019
-0.0844217
-0.0819432
-0.0794713
-0.0770105
-0.0745653
-0.123481
-0.125043
-0.126522
-0.127916
-0.129222
-0.130438
-0.131562
-0.132592
-0.133526
-0.134363
-0.1351
-0.135737
-0.136271
-0.136702
-0.13703
-0.137252
-0.137368
-0.137378
-0.137282
-0.137079
-0.13677
-0.136354
-0.135832
-0.135205
-0.134474
-0.133639
-0.132702
-0.131665
-0.130529
-0.129297
-0.12797
-0.126551
-0.125043
-0.123448
-0.12177
-0.120013
-0.118179
-0.116273
-0.114298
-0.11226
-0.110161
-0.108007
-0.105802
-0.103552
-0.101261
-0.0989331
-0.0965746
-0.0941902
-0.091785
-0.0893639
-0.0869319
-0.0844941
-0.0820553
-0.0796202
-0.0771933
-0.0747793
-0.121067
-0.122632
-0.124118
-0.125523
-0.126844
-0.128078
-0.129224
-0.130279
-0.131242
-0.13211
-0.132881
-0.133555
-0.134129
-0.134602
-0.134974
-0.135242
-0.135407
-0.135468
-0.135424
-0.135276
-0.135022
-0.134663
-0.1342
-0.133633
-0.132962
-0.132189
-0.131315
-0.130341
-0.129269
-0.128101
-0.126839
-0.125485
-0.124042
-0.122513
-0.1209
-0.119207
-0.117437
-0.115594
-0.113682
-0.111705
-0.109667
-0.107572
-0.105425
-0.103231
-0.100995
-0.0987201
-0.0964127
-0.0940772
-0.0917187
-0.0893421
-0.0869523
-0.0845541
-0.0821524
-0.0797518
-0.0773569
-0.0749722
-0.11888
-0.120446
-0.121937
-0.12335
-0.124683
-0.125932
-0.127097
-0.128173
-0.12916
-0.130055
-0.130857
-0.131563
-0.132172
-0.132682
-0.133094
-0.133404
-0.133613
-0.133719
-0.133723
-0.133623
-0.133419
-0.133112
-0.132702
-0.132189
-0.131574
-0.130857
-0.13004
-0.129124
-0.12811
-0.127001
-0.125798
-0.124503
-0.123119
-0.121649
-0.120095
-0.118461
-0.11675
-0.114965
-0.11311
-0.111189
-0.109207
-0.107166
-0.105073
-0.10293
-0.100744
-0.0985178
-0.0962572
-0.0939667
-0.0916511
-0.0893154
-0.0869644
-0.0846027
-0.0822353
-0.0798666
-0.0775013
-0.0751436
-0.116936
-0.118502
-0.119996
-0.121415
-0.122757
-0.124019
-0.125198
-0.126293
-0.1273
-0.128219
-0.129046
-0.12978
-0.13042
-0.130963
-0.131409
-0.131756
-0.132003
-0.132149
-0.132195
-0.132138
-0.131979
-0.131718
-0.131355
-0.13089
-0.130324
-0.129657
-0.128891
-0.128026
-0.127065
-0.126008
-0.124858
-0.123616
-0.122285
-0.120868
-0.119368
-0.117786
-0.116127
-0.114394
-0.112591
-0.11072
-0.108787
-0.106796
-0.10475
-0.102654
-0.100513
-0.0983303
-0.0961117
-0.0938616
-0.0915848
-0.0892859
-0.0869698
-0.0846412
-0.0823047
-0.0799649
-0.0776263
-0.0752932
-0.115254
-0.116818
-0.118314
-0.119737
-0.121086
-0.122358
-0.123549
-0.124658
-0.125683
-0.126621
-0.12747
-0.128228
-0.128893
-0.129464
-0.129939
-0.130318
-0.130598
-0.130779
-0.13086
-0.130841
-0.13072
-0.130499
-0.130177
-0.129754
-0.12923
-0.128607
-0.127885
-0.127065
-0.126148
-0.125137
-0.124033
-0.122837
-0.121553
-0.120182
-0.118727
-0.117192
-0.115579
-0.113891
-0.112132
-0.110306
-0.108417
-0.106468
-0.104463
-0.102408
-0.100306
-0.0981617
-0.09598
-0.0937653
-0.0915224
-0.0892559
-0.0869704
-0.0846707
-0.0823614
-0.080047
-0.0777319
-0.0754206
-0.113854
-0.115416
-0.116912
-0.118338
-0.119692
-0.120971
-0.122172
-0.123293
-0.124331
-0.125285
-0.126151
-0.126928
-0.127615
-0.128208
-0.128708
-0.129112
-0.129419
-0.129629
-0.12974
-0.129751
-0.129663
-0.129475
-0.129187
-0.128798
-0.12831
-0.127723
-0.127038
-0.126255
-0.125377
-0.124404
-0.123338
-0.122181
-0.120935
-0.119603
-0.118187
-0.11669
-0.115115
-0.113465
-0.111744
-0.109955
-0.108102
-0.106189
-0.104219
-0.102198
-0.100129
-0.0980169
-0.0958661
-0.0936812
-0.0914668
-0.0892275
-0.0869678
-0.0846926
-0.0824062
-0.0801132
-0.077818
-0.075525
-0.112758
-0.114318
-0.115814
-0.117242
-0.118599
-0.119884
-0.121092
-0.122221
-0.12327
-0.124235
-0.125115
-0.125907
-0.12661
-0.127221
-0.127739
-0.128163
-0.128492
-0.128724
-0.128858
-0.128893
-0.12883
-0.128668
-0.128406
-0.128045
-0.127585
-0.127026
-0.12637
-0.125616
-0.124767
-0.123824
-0.122788
-0.121662
-0.120447
-0.119145
-0.11776
-0.116293
-0.114748
-0.113128
-0.111436
-0.109676
-0.107852
-0.105967
-0.104025
-0.10203
-0.0999874
-0.0979006
-0.0957743
-0.0936128
-0.0914209
-0.0892031
-0.0869638
-0.0847078
-0.0824396
-0.0801635
-0.0778841
-0.0756056
-0.111995
-0.113554
-0.115049
-0.116478
-0.117837
-0.119125
-0.120338
-0.121473
-0.122529
-0.123502
-0.124391
-0.125193
-0.125907
-0.12653
-0.127062
-0.127499
-0.127843
-0.12809
-0.12824
-0.128292
-0.128246
-0.128102
-0.127858
-0.127516
-0.127076
-0.126537
-0.125901
-0.125168
-0.12434
-0.123417
-0.122403
-0.121297
-0.120103
-0.118823
-0.117459
-0.116013
-0.11449
-0.11289
-0.111219
-0.10948
-0.107675
-0.10581
-0.103887
-0.101912
-0.0998871
-0.097818
-0.0957087
-0.0935638
-0.0913877
-0.0891849
-0.08696
-0.0847175
-0.082462
-0.0801979
-0.0779295
-0.0756613
-0.111593
-0.113151
-0.114646
-0.116076
-0.117436
-0.118726
-0.119941
-0.121079
-0.122139
-0.123116
-0.12401
-0.124817
-0.125537
-0.126167
-0.126705
-0.12715
-0.127501
-0.127756
-0.127915
-0.127976
-0.127939
-0.127804
-0.12757
-0.127238
-0.126807
-0.126279
-0.125653
-0.124931
-0.124114
-0.123203
-0.122199
-0.121105
-0.119922
-0.118653
-0.1173
-0.115866
-0.114353
-0.112765
-0.111105
-0.109376
-0.107582
-0.105727
-0.103815
-0.101849
-0.0998338
-0.0977741
-0.0956739
-0.0935376
-0.0913698
-0.0891749
-0.0869576
-0.0847223
-0.0824735
-0.0802156
-0.0779531
-0.0756903
)
;

boundaryField
{
    inlet
    {
        type            zeroGradient;
    }
    outlet
    {
        type            fixedValue;
        value           nonuniform 0();
    }
    cylinder
    {
        type            zeroGradient;
    }
    top
    {
        type            symmetryPlane;
    }
    bottom
    {
        type            symmetryPlane;
    }
    defaultFaces
    {
        type            empty;
    }
    procBoundary14to10
    {
        type            processor;
        value           nonuniform List<scalar> 
57
(
-0.178863
-0.175092
-0.171212
-0.16723
-0.163152
-0.158986
-0.15474
-0.150425
-0.146049
-0.141624
-0.13716
-0.13267
-0.128166
-0.123659
-0.119162
-0.114688
-0.110248
-0.105855
-0.101519
-0.0972522
-0.0930636
-0.0889631
-0.0849591
-0.0810594
-0.0772708
-0.0735992
-0.0700496
-0.0666259
-0.0633314
-0.229025
-0.228842
-0.228522
-0.228064
-0.227469
-0.226735
-0.225862
-0.22485
-0.2237
-0.222418
-0.22101
-0.219486
-0.21784
-0.216064
-0.214156
-0.212116
-0.209945
-0.207642
-0.205208
-0.202641
-0.199944
-0.197116
-0.194158
-0.191072
-0.18786
-0.184525
-0.181068
-0.181068
)
;
    }
    procBoundary14to11
    {
        type            processor;
        value           uniform -0.0606604;
    }
    procBoundary14to13
    {
        type            processor;
        value           nonuniform List<scalar> 
35
(
-0.224995
-0.220822
-0.216573
-0.212265
-0.207909
-0.203516
-0.199097
-0.194661
-0.190219
-0.185782
-0.18136
-0.176963
-0.172602
-0.168287
-0.164032
-0.159846
-0.155743
-0.151733
-0.14783
-0.144045
-0.140389
-0.136875
-0.133514
-0.130318
-0.127298
-0.124468
-0.121839
-0.119426
-0.117241
-0.115301
-0.113623
-0.112227
-0.111135
-0.110375
-0.109975
)
;
    }
    procBoundary14to15
    {
        type            processor;
        value           nonuniform List<scalar> 
35
(
-0.0611625
-0.0616719
-0.0621868
-0.0627053
-0.0632256
-0.0637458
-0.0642641
-0.0647791
-0.0652893
-0.0657933
-0.06629
-0.0667782
-0.0672567
-0.0677244
-0.0681803
-0.0686234
-0.0690526
-0.069467
-0.0698655
-0.0702473
-0.0706114
-0.0709571
-0.0712836
-0.07159
-0.0718757
-0.0721399
-0.0723822
-0.0726017
-0.0727979
-0.07297
-0.0731171
-0.0732383
-0.0733322
-0.0733973
-0.0734312
)
;
    }
}


// ************************************************************************* //
