/*--------------------------------*- C++ -*----------------------------------*\
  =========                 |
  \\      /  F ield         | OpenFOAM: The Open Source CFD Toolbox
   \\    /   O peration     | Website:  https://openfoam.org
    \\  /    A nd           | Version:  7
     \\/     M anipulation  |
\*---------------------------------------------------------------------------*/
FoamFile
{
    version     2.0;
    format      ascii;
    class       volScalarField;
    location    "90";
    object      p;
}
// * * * * * * * * * * * * * * * * * * * * * * * * * * * * * * * * * * * * * //

dimensions      [0 2 -2 0 0 0 0];

internalField   nonuniform List<scalar> 
1987
(
-0.280462
-0.280593
-0.280778
-0.280935
-0.296809
-0.298834
-0.299478
-0.298464
-0.295555
-0.290547
-0.283295
-0.273732
-0.26188
-0.247844
-0.231814
-0.214049
-0.194857
-0.174578
-0.153564
-0.13216
-0.110693
-0.089465
-0.0687514
-0.048803
-0.0298511
-0.0121155
0.00419416
0.0188668
0.0317143
0.0427707
0.0507646
0.0563399
0.0590634
0.058633
0.0547584
0.0471937
0.0357704
0.0204234
0.00123239
-0.021509
-0.0471627
-0.0746414
-0.102515
-0.129243
-0.153203
-0.172506
-0.185207
-0.189232
-0.185157
-0.17401
-0.15775
-0.138566
-0.118378
-0.0986081
-0.0801424
-0.0634286
-0.0486039
-0.035621
-0.0243457
-0.014605
-0.287356
-0.288878
-0.289082
-0.287724
-0.284592
-0.279507
-0.272347
-0.263056
-0.251657
-0.238246
-0.222995
-0.206132
-0.187935
-0.168707
-0.148764
-0.128422
-0.107981
-0.0877236
-0.067909
-0.0487757
-0.0305456
-0.0134296
0.00236566
0.0166295
0.0291885
0.0395958
0.0479658
0.0537045
0.0566181
0.0564269
0.0528404
0.0456107
0.0345652
0.0196442
0.000945085
-0.0212113
-0.0461553
-0.072777
-0.0996326
-0.125165
-0.147756
-0.165589
-0.176698
-0.18005
-0.175668
-0.164781
-0.149255
-0.131101
-0.112054
-0.0933814
-0.0758747
-0.0599405
-0.0457121
-0.0331623
-0.0221826
-0.012622
-0.277541
-0.278551
-0.278328
-0.276655
-0.27334
-0.268228
-0.261213
-0.252247
-0.241349
-0.228604
-0.21416
-0.198219
-0.181025
-0.162849
-0.143978
-0.124698
-0.105289
-0.0860127
-0.0671161
-0.048828
-0.0313632
-0.0149265
0.00027874
0.0140475
0.0261952
0.036361
0.0444916
0.0501166
0.0529874
0.0528236
0.0493399
0.0422968
0.031539
0.0170371
-0.00107017
-0.0224152
-0.0462938
-0.0716004
-0.0969332
-0.120776
-0.141575
-0.157713
-0.167496
-0.170023
-0.165502
-0.155107
-0.140517
-0.123529
-0.105692
-0.088142
-0.0715976
-0.0564404
-0.0428092
-0.0306983
-0.0200254
-0.010663
-0.267692
-0.26828
-0.267711
-0.265792
-0.262356
-0.257267
-0.250433
-0.241813
-0.231422
-0.219335
-0.205679
-0.190634
-0.174414
-0.157263
-0.139437
-0.121199
-0.102805
-0.0845023
-0.0665225
-0.0490854
-0.0323986
-0.0166618
-0.00207422
0.0111672
0.0228668
0.0327126
0.0405473
0.0460071
0.0488111
0.0486753
0.0453192
0.0385128
0.0281197
0.0141406
-0.00324539
-0.0236285
-0.0462814
-0.0701177
-0.0937915
-0.115859
-0.134878
-0.14937
-0.157862
-0.159699
-0.155158
-0.145321
-0.131704
-0.115903
-0.0992881
-0.0828686
-0.0672943
-0.0529227
-0.0398988
-0.0282375
-0.0178824
-0.00873102
-0.0680661
-0.0900115
-0.110285
-0.127539
-0.140415
-0.147756
-0.149051
-0.144606
-0.135418
-0.122839
-0.108262
-0.0928852
-0.0776011
-0.062998
-0.0494149
-0.0370047
-0.0258023
-0.0157762
-0.00684921
-0.28636
-0.287523
-0.288742
-0.289912
-0.29089
-0.291499
-0.291535
-0.29079
-0.289107
-0.286245
-0.282043
-0.276504
-0.26962
-0.261511
-0.25244
-0.242788
-0.233038
-0.223742
-0.215496
-0.208897
-0.204475
-0.202619
-0.203447
-0.206817
-0.21227
-0.219026
-0.225913
-0.231815
-0.235551
-0.236007
-0.232624
-0.225126
-0.213857
-0.199648
-0.183716
-0.167408
-0.151954
-0.138294
-0.127035
-0.11851
-0.112919
-0.110504
-0.11167
-0.116856
-0.126083
-0.138459
-0.152076
-0.164411
-0.172981
-0.175936
-0.172526
-0.163275
-0.149798
-0.134256
-0.118688
-0.104575
-0.09274
-0.0835213
-0.0769887
-0.0730483
-0.292132
-0.294301
-0.296532
-0.298692
-0.30061
-0.302072
-0.302848
-0.302689
-0.301374
-0.298644
-0.294285
-0.288358
-0.280801
-0.271728
-0.261416
-0.250267
-0.23879
-0.227573
-0.217247
-0.208442
-0.201737
-0.197605
-0.196214
-0.197535
-0.201186
-0.206642
-0.212514
-0.217874
-0.221565
-0.222407
-0.21984
-0.213513
-0.203709
-0.191158
-0.176963
-0.16237
-0.148531
-0.136345
-0.126414
-0.119089
-0.114618
-0.113319
-0.115671
-0.12213
-0.132636
-0.146145
-0.160601
-0.173386
-0.181976
-0.184504
-0.180273
-0.169884
-0.155113
-0.138269
-0.121492
-0.106308
-0.0935438
-0.0835059
-0.0762257
-0.0715828
-0.297699
-0.300841
-0.304049
-0.307166
-0.309992
-0.312275
-0.313757
-0.314149
-0.313183
-0.310567
-0.306
-0.299683
-0.291444
-0.281404
-0.269856
-0.257228
-0.244054
-0.230956
-0.218595
-0.207625
-0.198668
-0.192289
-0.188669
-0.18791
-0.189762
-0.193664
-0.198597
-0.203335
-0.206926
-0.208129
-0.206376
-0.201227
-0.192905
-0.18203
-0.169595
-0.156742
-0.144544
-0.13386
-0.125277
-0.119171
-0.115845
-0.115694
-0.11927
-0.127032
-0.138826
-0.15346
-0.168738
-0.181962
-0.190573
-0.192683
-0.187648
-0.176146
-0.160113
-0.142005
-0.124057
-0.10784
-0.09418
-0.0833536
-0.0753536
-0.0700315
-0.307055
-0.311194
-0.315228
-0.318921
-0.321982
-0.324133
-0.325035
-0.324394
-0.32188
-0.31703
-0.310341
-0.30142
-0.290414
-0.277647
-0.263569
-0.248746
-0.233828
-0.219498
-0.206429
-0.195271
-0.186713
-0.180879
-0.178032
-0.178042
-0.180326
-0.184192
-0.188332
-0.191731
-0.193247
-0.192289
-0.188309
-0.181466
-0.172269
-0.1616
-0.150497
-0.139954
-0.130784
-0.123564
-0.118693
-0.116534
-0.117568
-0.122408
-0.1315
-0.14459
-0.160334
-0.176416
-0.190071
-0.19871
-0.200452
-0.194608
-0.18203
-0.16478
-0.145455
-0.126385
-0.109178
-0.0946594
-0.083078
-0.0743882
-0.0684123
-0.312864
-0.317875
-0.322779
-0.32729
-0.33108
-0.333859
-0.335226
-0.334883
-0.332504
-0.327196
-0.320203
-0.310607
-0.29865
-0.284691
-0.269206
-0.252795
-0.236136
-0.219923
-0.204849
-0.19156
-0.180939
-0.172914
-0.167997
-0.166142
-0.166788
-0.169384
-0.172986
-0.17609
-0.177845
-0.177642
-0.1748
-0.169417
-0.161882
-0.152969
-0.14361
-0.134722
-0.127069
-0.121218
-0.117597
-0.116633
-0.118889
-0.125031
-0.13548
-0.149866
-0.166705
-0.183571
-0.197651
-0.206327
-0.207701
-0.201113
-0.187509
-0.169097
-0.148613
-0.128476
-0.110329
-0.0949934
-0.0826926
-0.0733447
-0.0667425
-0.318202
-0.324011
-0.329725
-0.334998
-0.339463
-0.342831
-0.344608
-0.34453
-0.342402
-0.336273
-0.32916
-0.3189
-0.306026
-0.290927
-0.274103
-0.256179
-0.23786
-0.219845
-0.202882
-0.187531
-0.17506
-0.164862
-0.157917
-0.154188
-0.153149
-0.154511
-0.157251
-0.160129
-0.162022
-0.162591
-0.160747
-0.156784
-0.150878
-0.143693
-0.13606
-0.128813
-0.122671
-0.118193
-0.115836
-0.116096
-0.119615
-0.1271
-0.138925
-0.154602
-0.172512
-0.190144
-0.204642
-0.213369
-0.214408
-0.207127
-0.192557
-0.17305
-0.151474
-0.130334
-0.111301
-0.0951936
-0.0822112
-0.0722382
-0.0650385
-0.323019
-0.329523
-0.335968
-0.34193
-0.347012
-0.350918
-0.353037
-0.35313
-0.350797
-0.345073
-0.337209
-0.326277
-0.312522
-0.296333
-0.278235
-0.258882
-0.239001
-0.219311
-0.200544
-0.183139
-0.169163
-0.156798
-0.147927
-0.142322
-0.139541
-0.139669
-0.141314
-0.143991
-0.145879
-0.147035
-0.146198
-0.143604
-0.139273
-0.133774
-0.127831
-0.122201
-0.117557
-0.114451
-0.113376
-0.114893
-0.119719
-0.128582
-0.141797
-0.158752
-0.177707
-0.19608
-0.210993
-0.219788
-0.220534
-0.212619
-0.197154
-0.176627
-0.154036
-0.131962
-0.112103
-0.0952717
-0.0816473
-0.0710832
-0.063316
-0.327178
-0.334402
-0.341503
-0.348071
-0.353725
-0.358149
-0.360525
-0.360747
-0.358335
-0.352689
-0.344274
-0.332693
-0.318104
-0.300892
-0.281603
-0.260916
-0.239574
-0.218326
-0.19792
-0.179004
-0.162842
-0.148675
-0.138086
-0.130719
-0.126126
-0.124994
-0.125397
-0.127774
-0.129553
-0.131163
-0.131229
-0.129922
-0.127093
-0.123218
-0.118919
-0.114872
-0.111707
-0.109972
-0.110198
-0.113011
-0.119185
-0.129457
-0.144067
-0.162279
-0.182246
-0.201336
-0.216659
-0.225544
-0.226043
-0.21756
-0.201281
-0.179821
-0.156297
-0.133365
-0.112743
-0.0952396
-0.0810141
-0.0698936
-0.0615893
-0.330755
-0.338592
-0.346253
-0.35335
-0.3595
-0.364336
-0.366972
-0.367315
-0.364866
-0.359157
-0.350303
-0.338123
-0.322764
-0.30461
-0.284228
-0.262314
-0.239629
-0.216956
-0.195059
-0.174651
-0.15663
-0.140944
-0.128264
-0.119432
-0.113027
-0.110665
-0.109757
-0.111602
-0.113188
-0.115103
-0.115929
-0.115805
-0.11438
-0.112051
-0.109333
-0.106827
-0.105118
-0.104753
-0.106301
-0.110448
-0.118012
-0.129717
-0.145717
-0.165155
-0.186095
-0.205875
-0.221605
-0.230601
-0.230906
-0.22193
-0.204925
-0.182625
-0.158259
-0.134548
-0.113232
-0.0951088
-0.0803244
-0.0686825
-0.0598719
-0.333699
-0.342051
-0.350191
-0.357738
-0.364286
-0.369317
-0.372318
-0.372791
-0.37032
-0.364501
-0.355279
-0.342565
-0.326514
-0.307516
-0.28615
-0.263128
-0.239237
-0.215281
-0.192036
-0.170231
-0.150604
-0.133405
-0.119121
-0.108469
-0.100257
-0.0968222
-0.0945254
-0.0957324
-0.0969312
-0.0989968
-0.100411
-0.101341
-0.101199
-0.100317
-0.0991052
-0.0980882
-0.0978085
-0.0988131
-0.101705
-0.107223
-0.116213
-0.129365
-0.146738
-0.167363
-0.189232
-0.209671
-0.225801
-0.234937
-0.235104
-0.225713
-0.208075
-0.185036
-0.159924
-0.135519
-0.113577
-0.0948906
-0.0795904
-0.0674623
-0.0581763
-0.335987
-0.344764
-0.353307
-0.361227
-0.368091
-0.373336
-0.376581
-0.377165
-0.374676
-0.368737
-0.359206
-0.346032
-0.32938
-0.309646
-0.28742
-0.263428
-0.238477
-0.213387
-0.188943
-0.165872
-0.144836
-0.126221
-0.110462
-0.0981095
-0.0886324
-0.0833258
-0.0800251
-0.0800508
-0.0809464
-0.08301
-0.085205
-0.0866482
-0.0876385
-0.0880852
-0.0882907
-0.0887021
-0.0898206
-0.0921915
-0.0964484
-0.103369
-0.113811
-0.128412
-0.147129
-0.168892
-0.191641
-0.212706
-0.229233
-0.238535
-0.23862
-0.228895
-0.210726
-0.187052
-0.161295
-0.136285
-0.113789
-0.0945959
-0.0788235
-0.0662444
-0.0565135
-0.337627
-0.346739
-0.355606
-0.363823
-0.370926
-0.376379
-0.379782
-0.380445
-0.377937
-0.371885
-0.362103
-0.348549
-0.331397
-0.311048
-0.288097
-0.263286
-0.237433
-0.211368
-0.185879
-0.161687
-0.139419
-0.119516
-0.102395
-0.0885143
-0.0777118
-0.0707137
-0.0662785
-0.0650891
-0.0654354
-0.067287
-0.0696776
-0.0718334
-0.0738178
-0.0754558
-0.0769742
-0.078743
-0.0812221
-0.0849513
-0.0905882
-0.0989362
-0.110843
-0.126881
-0.146901
-0.169745
-0.193319
-0.214975
-0.23189
-0.241387
-0.241447
-0.231473
-0.212873
-0.188675
-0.162378
-0.136853
-0.113878
-0.0942351
-0.0780346
-0.0650396
-0.0548937
-0.338632
-0.347991
-0.357098
-0.365548
-0.372852
-0.378459
-0.381943
-0.382649
-0.380119
-0.373974
-0.363998
-0.350151
-0.332608
-0.311774
-0.288249
-0.262779
-0.236189
-0.209313
-0.18294
-0.157783
-0.134445
-0.113394
-0.0950332
-0.0797703
-0.067642
-0.0591006
-0.0534392
-0.0510159
-0.0506059
-0.0520439
-0.0544372
-0.057083
-0.0598853
-0.0625582
-0.0652696
-0.0683134
-0.0721057
-0.0771773
-0.0841998
-0.0939855
-0.107355
-0.124801
-0.146072
-0.169932
-0.194272
-0.21648
-0.233774
-0.243491
-0.243582
-0.233443
-0.214518
-0.189909
-0.163179
-0.137233
-0.113853
-0.0938179
-0.0772335
-0.0638573
-0.053326
-0.348544
-0.357805
-0.366423
-0.374019
-0.379598
-0.383089
-0.383803
-0.381253
-0.375039
-0.364928
-0.350877
-0.333061
-0.311881
-0.287937
-0.261976
-0.23482
-0.207304
-0.180214
-0.154249
-0.130002
-0.107944
-0.0884719
-0.0719609
-0.0585526
-0.0485771
-0.0416497
-0.0379691
-0.0366523
-0.0374929
-0.0396973
-0.0425954
-0.0460157
-0.0495498
-0.053319
-0.0575413
-0.0625871
-0.0689732
-0.0773726
-0.0885899
-0.103401
-0.12221
-0.144667
-0.16947
-0.194515
-0.217232
-0.234894
-0.244856
-0.245031
-0.234811
-0.215667
-0.19076
-0.163707
-0.137432
-0.113723
-0.0933535
-0.0764293
-0.0627062
-0.0518181
-0.348427
-0.357754
-0.366434
-0.374226
-0.379763
-0.38324
-0.383942
-0.381375
-0.375123
-0.36494
-0.350778
-0.332808
-0.311425
-0.287222
-0.260939
-0.233395
-0.205414
-0.177774
-0.151164
-0.126163
-0.103241
-0.0827869
-0.0651555
-0.050543
-0.0392284
-0.0310285
-0.0260781
-0.0237458
-0.0238305
-0.0256578
-0.0285777
-0.0324021
-0.0366103
-0.0412875
-0.0465761
-0.052801
-0.0604575
-0.0702071
-0.0828295
-0.0990404
-0.119152
-0.142717
-0.168386
-0.194069
-0.217254
-0.235269
-0.245496
-0.245804
-0.235584
-0.216325
-0.191237
-0.16397
-0.137461
-0.113496
-0.0928504
-0.0756299
-0.0615939
-0.0503771
-0.347669
-0.356981
-0.365621
-0.373101
-0.378943
-0.382424
-0.38311
-0.380534
-0.374277
-0.364086
-0.349906
-0.331902
-0.310458
-0.286157
-0.259725
-0.231967
-0.203696
-0.175676
-0.148582
-0.122982
-0.0993392
-0.078033
-0.0594057
-0.0436818
-0.0311211
-0.0216713
-0.0154536
-0.0120301
-0.0112299
-0.012507
-0.0152426
-0.0192442
-0.0239324
-0.0293552
-0.0355826
-0.0428951
-0.0517587
-0.0628102
-0.076789
-0.0943382
-0.115673
-0.14026
-0.166712
-0.192965
-0.21657
-0.234921
-0.245434
-0.245916
-0.235774
-0.216504
-0.191349
-0.163978
-0.137328
-0.113183
-0.0923164
-0.0748426
-0.0605269
-0.0490086
-0.3463
-0.355535
-0.364076
-0.371423
-0.377243
-0.380698
-0.381358
-0.378783
-0.372556
-0.36242
-0.348316
-0.330396
-0.309033
-0.284791
-0.258379
-0.23058
-0.202191
-0.173958
-0.14654
-0.120492
-0.0962686
-0.0742415
-0.0547414
-0.0380089
-0.0242976
-0.0136442
-0.00617923
-0.0016188
0.000164805
-0.000410657
-0.00288865
-0.00673519
-0.0117112
-0.0177078
-0.0247325
-0.0330229
-0.0430091
-0.0552912
-0.0705542
-0.0893593
-0.111824
-0.137337
-0.164485
-0.191237
-0.215216
-0.233881
-0.244695
-0.245389
-0.235399
-0.216217
-0.191108
-0.163742
-0.137044
-0.11279
-0.0917585
-0.0740735
-0.0595107
-0.0477174
-0.344342
-0.353442
-0.362011
-0.369108
-0.374748
-0.378117
-0.378742
-0.376181
-0.37002
-0.360003
-0.346064
-0.328345
-0.307198
-0.283168
-0.256936
-0.229264
-0.200923
-0.172638
-0.145051
-0.118703
-0.0940369
-0.0714184
-0.0511682
-0.033536
-0.018774
-0.0069814
0.00169259
0.00740818
0.0102439
0.0105098
0.00855485
0.00495884
-0.000132841
-0.00652646
-0.0141951
-0.0233363
-0.0343395
-0.0477574
-0.0642096
-0.084169
-0.107657
-0.133993
-0.161747
-0.188927
-0.21323
-0.232183
-0.243273
-0.244243
-0.234476
-0.215481
-0.190529
-0.163274
-0.136618
-0.112326
-0.0911833
-0.0733281
-0.0585501
-0.0465074
-0.350677
-0.359218
-0.366063
-0.371489
-0.374735
-0.375323
-0.37279
-0.366733
-0.356899
-0.343213
-0.325803
-0.305002
-0.281326
-0.255428
-0.228039
-0.199902
-0.171718
-0.144109
-0.117601
-0.0926277
-0.069545
-0.0486667
-0.030247
-0.014539
-0.00168589
0.008142
0.0150054
0.0189334
0.0201479
0.0189443
0.0156744
0.0106362
0.00402203
-0.00412884
-0.0139788
-0.0258734
-0.0403103
-0.0578356
-0.0788304
-0.103225
-0.130274
-0.15854
-0.186076
-0.210655
-0.229869
-0.241135
-0.242504
-0.233027
-0.214314
-0.189626
-0.162585
-0.136059
-0.111798
-0.0905963
-0.0726106
-0.0576485
-0.0453814
-0.347313
-0.355259
-0.362245
-0.367491
-0.370611
-0.371163
-0.368678
-0.362765
-0.353175
-0.339825
-0.322827
-0.30249
-0.2793
-0.253876
-0.226914
-0.199125
-0.171184
-0.143692
-0.117157
-0.092003
-0.0685797
-0.0471932
-0.0281002
-0.0115542
0.00226949
0.0131811
0.0211617
0.0261931
0.0284245
0.0280865
0.0252788
0.0204575
0.0137938
0.00532615
-0.00507886
-0.0177224
-0.0330424
-0.0515062
-0.0734032
-0.0985763
-0.126226
-0.154911
-0.182731
-0.207537
-0.226987
-0.238537
-0.24021
-0.231079
-0.212735
-0.188416
-0.161689
-0.135376
-0.111212
-0.0900023
-0.0719246
-0.0568084
-0.0443412
-0.3434
-0.351007
-0.357758
-0.362821
-0.365814
-0.366335
-0.363919
-0.35819
-0.348902
-0.335964
-0.319471
-0.299707
-0.277121
-0.252297
-0.225891
-0.198581
-0.171012
-0.14376
-0.117321
-0.092107
-0.068461
-0.046683
-0.0270305
-0.00975717
0.0049392
0.0168519
0.025899
0.0320176
0.0352991
0.0359266
0.0336843
0.0292248
0.0226733
0.0140537
0.00325445
-0.00998303
-0.0260346
-0.0452881
-0.0679427
-0.0937609
-0.121895
-0.150904
-0.178938
-0.203922
-0.223579
-0.235408
-0.237393
-0.228658
-0.210768
-0.186917
-0.160598
-0.134578
-0.110575
-0.0894053
-0.0712727
-0.0560316
-0.0433878
-0.0330176
-0.338962
-0.346274
-0.352699
-0.357548
-0.360413
-0.360913
-0.358591
-0.353086
-0.344154
-0.331698
-0.315794
-0.296696
-0.274818
-0.250703
-0.224968
-0.19825
-0.171165
-0.144267
-0.118034
-0.0928698
-0.0691115
-0.0470537
-0.0269537
-0.00906407
0.00640157
0.0192231
0.0292689
0.036434
0.0407679
0.0424794
0.0408403
0.0368667
0.0305765
0.0219651
0.0109347
-0.00273371
-0.0193551
-0.0392387
-0.0624989
-0.0888243
-0.117326
-0.146566
-0.174743
-0.199854
-0.219688
-0.231779
-0.234086
-0.225791
-0.208435
-0.185145
-0.159325
-0.133675
-0.109893
-0.0888097
-0.0706577
-0.0553196
-0.0425222
-0.0319578
-0.341052
-0.34713
-0.351737
-0.35449
-0.354983
-0.352781
-0.347537
-0.339011
-0.327097
-0.311852
-0.2935
-0.272419
-0.249105
-0.224135
-0.198107
-0.171604
-0.145157
-0.119228
-0.0942128
-0.0704434
-0.0482107
-0.0277709
-0.00937467
0.00675413
0.0203856
0.0313496
0.039499
0.0448538
0.0478513
0.0467249
0.0433444
0.0374513
0.0289996
0.0178991
0.00396564
-0.013058
-0.0334067
-0.057116
-0.083809
-0.112561
-0.14194
-0.170192
-0.19538
-0.215357
-0.227685
-0.230321
-0.222508
-0.205761
-0.183122
-0.157886
-0.132678
-0.109174
-0.0882211
-0.0700836
-0.0546752
-0.0417457
-0.0310052
-0.335373
-0.341115
-0.345479
-0.34813
-0.348633
-0.346576
-0.341629
-0.333552
-0.322231
-0.307704
-0.290165
-0.26995
-0.247514
-0.223388
-0.19813
-0.172291
-0.146377
-0.120837
-0.0960575
-0.0723677
-0.0500559
-0.0293771
-0.0105798
0.00610663
0.0204462
0.0322396
0.0412948
0.0475881
0.0521283
0.0513189
0.0486486
0.043275
0.035124
0.0241083
0.0100739
-0.00718381
-0.027831
-0.0518323
-0.0787537
-0.107641
-0.137069
-0.165328
-0.190543
-0.210623
-0.223161
-0.226127
-0.218835
-0.202769
-0.180866
-0.156294
-0.131594
-0.108422
-0.0876416
-0.0695509
-0.0540974
-0.0410569
-0.0301577
-0.329288
-0.334717
-0.338862
-0.341423
-0.341954
-0.340069
-0.335448
-0.327855
-0.317169
-0.303406
-0.286729
-0.267437
-0.245938
-0.222717
-0.198294
-0.173184
-0.147872
-0.122793
-0.0983249
-0.0747956
-0.0524911
-0.0316661
-0.0125665
0.00457493
0.0195201
0.0320504
0.0419269
0.0489845
0.0524791
0.0545814
0.0527973
0.048052
0.0403294
0.0295443
0.0155672
-0.00175964
-0.0225411
-0.0466798
-0.0736931
-0.102602
-0.131992
-0.160192
-0.185381
-0.205521
-0.21824
-0.221534
-0.214799
-0.19948
-0.178389
-0.15455
-0.130418
-0.107625
-0.0870566
-0.0690442
-0.0535715
-0.0404419
-0.0294028
-0.328008
-0.331978
-0.334462
-0.335038
-0.333344
-0.329073
-0.321989
-0.311964
-0.298996
-0.283215
-0.26488
-0.244356
-0.222082
-0.198538
-0.174208
-0.149553
-0.124994
-0.100903
-0.0776069
-0.05539
-0.0345071
-0.0152014
0.00229416
0.0177416
0.0309105
0.0415286
0.0493839
0.0540498
0.056773
0.0558485
0.0518132
0.0446282
0.0342068
0.0204364
0.00319836
-0.0175589
-0.0416853
-0.0686584
-0.0974811
-0.126748
-0.154825
-0.179936
-0.200084
-0.212962
-0.216583
-0.210438
-0.195923
-0.175704
-0.152653
-0.129137
-0.106767
-0.0864479
-0.0685459
-0.0530812
-0.0398859
-0.0287272
-0.321119
-0.324944
-0.327365
-0.328003
-0.326516
-0.322608
-0.316047
-0.306696
-0.294534
-0.279661
-0.262297
-0.242763
-0.221456
-0.198816
-0.175295
-0.151334
-0.127339
-0.103679
-0.080676
-0.0586153
-0.0377527
-0.018329
-0.000576138
0.0152712
0.0289787
0.0402557
0.0488535
0.0545669
0.0579508
0.057881
0.0546094
0.0480528
0.038113
0.0246859
0.00768382
-0.0129005
-0.0368731
-0.063681
-0.0923142
-0.121378
-0.149272
-0.174257
-0.194354
-0.20736
-0.211324
-0.20581
-0.192157
-0.172873
-0.150671
-0.127825
-0.105924
-0.0858889
-0.068124
-0.0526867
-0.0394408
-0.0281749
-0.314162
-0.317869
-0.320253
-0.32098
-0.319726
-0.316207
-0.310194
-0.301543
-0.290213
-0.276276
-0.25991
-0.241396
-0.221084
-0.199377
-0.176695
-0.153457
-0.130058
-0.106858
-0.0841793
-0.0623084
-0.0415043
-0.0220074
-0.0040497
0.0121379
0.0263214
0.0382108
0.0475626
0.0541521
0.0581642
0.0589253
0.0564717
0.0506333
0.0412913
0.028341
0.0117164
-0.00855343
-0.0322388
-0.0587624
-0.0871051
-0.115882
-0.143521
-0.168311
-0.188308
-0.201336
-0.205674
-0.20088
-0.188216
-0.170002
-0.148768
-0.12668
-0.105303
-0.0855822
-0.0679646
-0.0525531
-0.03925
-0.0278696
-0.306957
-0.310551
-0.312924
-0.313777
-0.312798
-0.309717
-0.30431
-0.296423
-0.285996
-0.273068
-0.257779
-0.24036
-0.221119
-0.200415
-0.178637
-0.156179
-0.133424
-0.110727
-0.088413
-0.0667692
-0.0460587
-0.0265244
-0.00839871
0.00809273
0.022718
0.0352162
0.0457202
0.0527549
0.0574013
0.0589779
0.0573757
0.0523403
0.0437162
0.0313887
0.0153029
-0.00448701
-0.0277247
-0.0538143
-0.0817291
-0.110092
-0.137356
-0.161823
-0.181658
-0.194665
-0.199355
-0.195424
-0.183922
-0.166928
-0.146772
-0.12552
-0.104717
-0.0853424
-0.0678931
-0.0525212
-0.0391708
-0.0276852
-0.30298
-0.305263
-0.306145
-0.305322
-0.302539
-0.297579
-0.290285
-0.280583
-0.268489
-0.254113
-0.237651
-0.219376
-0.199613
-0.178722
-0.157076
-0.135042
-0.112966
-0.0911667
-0.0699331
-0.0495273
-0.0301908
-0.0121535
0.00436562
0.0191313
0.0318787
0.0426015
0.0508212
0.0562972
0.0586015
0.0576722
0.0533126
0.0453253
0.0335849
0.0180469
-0.00121408
-0.023925
-0.0494858
-0.0768781
-0.104745
-0.131574
-0.1557
-0.175283
-0.188185
-0.193199
-0.189776
-0.17903
-0.162873
-0.143513
-0.122951
-0.102704
-0.0837482
-0.0665924
-0.0514049
-0.0381508
-0.026693
)
;

boundaryField
{
    inlet
    {
        type            zeroGradient;
    }
    outlet
    {
        type            fixedValue;
        value           nonuniform 0();
    }
    cylinder
    {
        type            zeroGradient;
    }
    top
    {
        type            symmetryPlane;
    }
    bottom
    {
        type            symmetryPlane;
    }
    defaultFaces
    {
        type            empty;
    }
    procBoundary6to2
    {
        type            processor;
        value           nonuniform List<scalar> 
57
(
-0.257888
-0.258118
-0.257259
-0.255147
-0.251634
-0.246603
-0.239974
-0.231711
-0.221827
-0.210387
-0.197503
-0.183331
-0.168061
-0.151911
-0.135111
-0.117899
-0.100512
-0.0831797
-0.0661211
-0.049546
-0.0336547
-0.0186409
-0.00469981
0.00797429
0.01918
0.0286555
0.0361845
0.0414605
0.0441982
0.0441153
0.0409409
0.0344585
0.0245492
0.0112383
-0.0052659
-0.0245267
-0.0458112
-0.0458112
-0.0654796
-0.0856238
-0.104074
-0.119585
-0.130967
-0.137302
-0.138199
-0.133978
-0.125531
-0.114035
-0.100693
-0.086546
-0.072383
-0.0587395
-0.0459391
-0.0341432
-0.0234056
-0.0137178
-0.00502696
)
;
    }
    procBoundary6to3
    {
        type            processor;
        value           uniform 0.00106911;
    }
    procBoundary6to5
    {
        type            processor;
        value           nonuniform List<scalar> 
40
(
-0.29378
-0.284764
-0.275497
-0.266129
-0.28533
-0.290121
-0.294741
-0.302985
-0.302985
-0.30792
-0.312442
-0.316502
-0.32001
-0.322998
-0.325431
-0.327297
-0.3286
-0.329357
-0.339025
-0.339025
-0.338833
-0.338082
-0.336797
-0.334997
-0.341812
-0.341812
-0.338734
-0.335133
-0.331024
-0.334042
-0.334042
-0.328672
-0.322906
-0.322875
-0.322875
-0.316255
-0.309544
-0.302707
-0.299596
-0.299596
)
;
    }
    procBoundary6to7
    {
        type            processor;
        value           nonuniform List<scalar> 
36
(
-0.00621991
-0.0168464
-0.00432864
-0.00248262
-0.000674756
-0.0715443
-0.069398
-0.0671854
-0.0649267
-0.062641
-0.0603463
-0.0580593
-0.0557955
-0.0535689
-0.0513921
-0.0492764
-0.0472315
-0.0452659
-0.0433867
-0.0415999
-0.0399103
-0.0383216
-0.0368366
-0.0354571
-0.034184
-0.034184
-0.0245982
-0.0233174
-0.0221599
-0.0211228
-0.0201942
-0.0193618
-0.0186625
-0.0182022
-0.0178694
-0.0168464
)
;
    }
    procBoundary6to9
    {
        type            processor;
        value           uniform -0.280436;
    }
    procBoundary6to10
    {
        type            processor;
        value           nonuniform List<scalar> 
61
(
-0.274515
-0.273602
-0.27274
-0.280952
-0.271872
-0.280952
-0.280685
-0.279958
-0.278596
-0.276529
-0.273517
-0.269435
-0.26427
-0.258045
-0.250889
-0.243052
-0.234901
-0.226893
-0.219536
-0.213392
-0.209014
-0.20688
-0.207295
-0.210303
-0.215665
-0.222801
-0.230856
-0.238682
-0.245049
-0.248798
-0.24886
-0.244673
-0.236027
-0.223323
-0.207493
-0.189862
-0.171882
-0.154856
-0.139759
-0.127204
-0.117505
-0.110818
-0.107317
-0.107332
-0.111275
-0.119238
-0.130475
-0.143237
-0.155107
-0.163651
-0.167032
-0.164449
-0.156351
-0.144189
-0.129976
-0.115648
-0.102635
-0.0917584
-0.0833866
-0.0776268
-0.0744094
)
;
    }
}


// ************************************************************************* //
