/*--------------------------------*- C++ -*----------------------------------*\
  =========                 |
  \\      /  F ield         | OpenFOAM: The Open Source CFD Toolbox
   \\    /   O peration     | Website:  https://openfoam.org
    \\  /    A nd           | Version:  7
     \\/     M anipulation  |
\*---------------------------------------------------------------------------*/
FoamFile
{
    version     2.0;
    format      ascii;
    class       volVectorField;
    location    "55";
    object      U;
}
// * * * * * * * * * * * * * * * * * * * * * * * * * * * * * * * * * * * * * //

dimensions      [0 1 -1 0 0 0 0];

internalField   nonuniform List<vector> 
1987
(
(-0.20528 -0.00035603 -9.83983e-22)
(-0.206876 -0.000442437 -2.82804e-21)
(-0.208267 -0.00051596 1.73947e-22)
(-0.209449 -0.000573755 9.02914e-22)
(-0.21042 -0.000611592 -1.9773e-21)
(-0.21118 -0.000625733 2.8358e-21)
(-0.211732 -0.000610816 -6.96676e-22)
(-0.21208 -0.000570227 -5.20518e-22)
(-0.212222 -0.000507268 -1.29584e-21)
(-0.212156 -0.000423032 -8.16742e-22)
(-0.211881 -0.000317682 3.91005e-21)
(-0.211396 -0.000193453 6.95319e-22)
(-0.210695 -4.28322e-05 -2.17525e-21)
(-0.209773 0.000130771 9.80326e-22)
(-0.208616 0.000323746 -1.07698e-21)
(-0.207225 0.000518137 -7.49259e-22)
(-0.205593 0.000726948 2.5319e-22)
(-0.203708 0.000942613 2.59865e-21)
(-0.201564 0.00115845 1.8174e-22)
(-0.19915 0.00136761 -2.04314e-21)
(-0.196458 0.00156291 -1.29226e-21)
(-0.193477 0.00173675 -5.57736e-22)
(-0.190198 0.00188144 1.54614e-21)
(-0.186611 0.00198821 -5.65084e-22)
(-0.182705 0.00204916 -7.09549e-22)
(-0.17847 0.00205616 1.89042e-21)
(-0.173895 0.00200199 1.00321e-21)
(-0.16897 0.00188106 -2.25088e-21)
(-0.163683 0.00168807 5.26819e-22)
(-0.158028 0.00142409 1.83206e-21)
(-0.151994 0.00107879 -8.70063e-22)
(-0.145574 0.000643815 3.88238e-22)
(-0.138768 0.000140069 -9.28497e-22)
(-0.131563 -0.000430285 3.75605e-22)
(-0.12396 -0.00105657 -6.99272e-22)
(-0.115958 -0.00173112 6.84519e-22)
(-0.107556 -0.00243878 -1.40162e-22)
(-0.0987579 -0.00316386 8.81867e-23)
(-0.0895678 -0.00388657 -4.63388e-22)
(-0.0799908 -0.00458662 1.79634e-22)
(-0.070037 -0.00524723 -2.76808e-22)
(-0.0597225 -0.00584293 -1.53626e-22)
(-0.0490569 -0.00635298 4.73497e-22)
(-0.0380554 -0.00675773 -4.99239e-22)
(-0.0267359 -0.00704007 1.22135e-22)
(-0.0151169 -0.00718518 -9.58446e-24)
(-0.00321981 -0.00718181 1.44683e-22)
(0.0089339 -0.00702329 -4.68178e-23)
(0.0213206 -0.00670763 2.07775e-22)
(0.0339161 -0.00623815 9.13133e-23)
(0.0466984 -0.00562122 -2.57102e-22)
(0.0596386 -0.00487795 -2.03517e-22)
(0.0727081 -0.00402145 1.18214e-22)
(0.0858836 -0.00307692 -6.54193e-23)
(0.099138 -0.00207236 1.61319e-22)
(0.112445 -0.00103824 -2.44664e-22)
(-0.193244 0.00141879 -6.93632e-21)
(-0.195649 0.00116023 2.84157e-21)
(-0.197834 0.000917061 3.87875e-21)
(-0.199804 0.000690219 2.02968e-21)
(-0.201567 0.000480327 -1.00238e-20)
(-0.203124 0.000282209 3.17593e-21)
(-0.204472 0.000101987 8.09472e-22)
(-0.205611 -5.77611e-05 -1.0759e-22)
(-0.206539 -0.000202701 2.3789e-21)
(-0.207254 -0.000334044 -2.21845e-22)
(-0.207761 -0.000421931 -9.41038e-22)
(-0.208068 -0.000480881 -4.96489e-21)
(-0.20817 -0.000516454 4.36268e-21)
(-0.208064 -0.000529026 3.12141e-21)
(-0.207748 -0.000518185 -4.71023e-21)
(-0.20722 -0.000486813 2.52758e-21)
(-0.206475 -0.000430779 -2.12806e-21)
(-0.205506 -0.000352125 4.86348e-21)
(-0.20431 -0.000253575 -4.11833e-21)
(-0.202875 -0.000152046 1.51115e-21)
(-0.201192 -3.68387e-05 3.94944e-22)
(-0.199256 8.42677e-05 -5.64331e-22)
(-0.197059 0.000204539 2.57196e-21)
(-0.194591 0.00031679 1.57666e-22)
(-0.191842 0.000413253 -3.89965e-21)
(-0.188802 0.000485379 3.37247e-21)
(-0.185462 0.000525025 -3.47613e-22)
(-0.18181 0.000522814 -1.85184e-21)
(-0.177838 0.000471646 -3.47097e-22)
(-0.173533 0.000364385 2.99811e-21)
(-0.168886 0.000194693 -3.84701e-21)
(-0.163888 -4.23148e-05 2.19253e-21)
(-0.158525 -0.000352109 -4.64981e-22)
(-0.152794 -0.000731537 7.18282e-22)
(-0.14669 -0.00119026 -2.5048e-21)
(-0.140199 -0.0017367 4.17762e-21)
(-0.133317 -0.00235099 -8.22739e-22)
(-0.126042 -0.00303051 -8.40916e-22)
(-0.118373 -0.00376265 7.72689e-22)
(-0.110312 -0.00454017 -1.74731e-22)
(-0.101858 -0.00534698 3.81248e-22)
(-0.0930173 -0.00616679 2.24713e-22)
(-0.0837954 -0.00697859 -1.74985e-21)
(-0.0742003 -0.0077623 -1.27964e-21)
(-0.0642425 -0.00850304 -4.3139e-23)
(-0.0539378 -0.00917109 2.43724e-21)
(-0.0432986 -0.00974681 -2.00103e-21)
(-0.0323404 -0.0102096 2.50753e-21)
(-0.0210813 -0.0105424 -5.63456e-22)
(-0.00953947 -0.01073 -1.50525e-23)
(0.00226456 -0.0107613 -5.71838e-22)
(0.0143107 -0.0106293 7.69924e-22)
(0.0265773 -0.0103322 -8.2368e-22)
(0.0390428 -0.00987303 7.61999e-22)
(0.0516868 -0.00925963 -4.53797e-22)
(0.064485 -0.00851316 -5.09774e-24)
(0.0774132 -0.00764552 2.78105e-22)
(0.0904507 -0.00668249 -3.66443e-22)
(0.103574 -0.00565235 2.08912e-23)
(0.116761 -0.00458611 1.13706e-22)
(-0.186168 0.00271679 -3.46723e-21)
(-0.188475 0.00232493 -6.14972e-21)
(-0.190566 0.0019544 7.01461e-21)
(-0.192444 0.00160458 -1.3588e-20)
(-0.194116 0.00127469 8.00287e-21)
(-0.195583 0.000968209 -7.95424e-21)
(-0.196843 0.000683064 8.93214e-21)
(-0.197899 0.000419894 -4.01593e-21)
(-0.19875 0.000175921 5.58198e-21)
(-0.199378 -4.92581e-05 -1.15326e-20)
(-0.199793 -0.000250025 8.76895e-22)
(-0.200016 -0.000412694 1.33075e-20)
(-0.200035 -0.000548407 -3.52116e-21)
(-0.199846 -0.000659493 6.77449e-21)
(-0.199446 -0.000746748 -6.65576e-22)
(-0.198833 -0.000811569 -2.29095e-21)
(-0.198001 -0.00085342 -1.16078e-20)
(-0.196944 -0.000874779 8.69573e-21)
(-0.195657 -0.000879611 -1.83698e-21)
(-0.19413 -0.000864212 -7.31781e-22)
(-0.192355 -0.000842394 -3.15621e-22)
(-0.190325 -0.000817832 -9.33818e-22)
(-0.188031 -0.000796313 8.01356e-21)
(-0.185465 -0.000784774 -1.21421e-20)
(-0.182616 -0.000790805 4.113e-21)
(-0.179474 -0.00082288 2.45659e-21)
(-0.176029 -0.000888642 3.3172e-21)
(-0.172271 -0.00099794 -1.76966e-21)
(-0.168189 -0.00115782 2.71011e-21)
(-0.163774 -0.00137549 -1.09449e-20)
(-0.159013 -0.00165736 9.54501e-21)
(-0.1539 -0.00200819 -2.9026e-21)
(-0.148422 -0.00243473 2.6883e-21)
(-0.142576 -0.00293242 -1.58287e-21)
(-0.136358 -0.0035088 -5.6145e-21)
(-0.129755 -0.00415377 -2.02053e-21)
(-0.122767 -0.00487189 3.10779e-21)
(-0.115389 -0.00565592 1.4044e-21)
(-0.107625 -0.00648966 -1.97446e-21)
(-0.0994764 -0.00736629 2.21046e-21)
(-0.0909461 -0.00826855 1.80321e-21)
(-0.0820399 -0.00917961 -8.39078e-22)
(-0.0727665 -0.0100773 -4.75002e-21)
(-0.0631364 -0.0109423 2.5669e-21)
(-0.0531605 -0.0117557 -2.76442e-21)
(-0.0428559 -0.0124901 3.3772e-21)
(-0.0322367 -0.0131261 -1.29758e-21)
(-0.0213192 -0.0136419 -1.95793e-21)
(-0.0101217 -0.0140206 4.08632e-21)
(0.00133783 -0.0142466 5.446e-22)
(0.0130395 -0.0143089 6.19996e-22)
(0.0249644 -0.0142007 -2.99005e-21)
(0.037093 -0.0139202 1.73403e-21)
(0.0494061 -0.0134708 -2.39382e-22)
(0.0618855 -0.0128611 -2.08172e-21)
(0.0745109 -0.0121091 1.90342e-21)
(0.0872622 -0.0112306 1.36772e-21)
(0.100122 -0.0102508 -1.9729e-21)
(0.113071 -0.00919781 -6.51033e-22)
(0.12609 -0.00810306 -7.13549e-22)
(-0.177717 0.00343125 2.6124e-21)
(-0.179668 0.00293628 3.70044e-21)
(-0.181412 0.0024673 -1.91018e-20)
(-0.182951 0.00202271 2.19731e-21)
(-0.184288 0.00160311 -2.35844e-21)
(-0.18542 0.00120625 2.94322e-20)
(-0.186348 0.000831776 -3.75056e-20)
(-0.18707 0.00048546 1.67759e-21)
(-0.187579 0.000171742 5.91247e-21)
(-0.187874 -0.000127319 3.55873e-21)
(-0.187969 -0.000392485 -2.01454e-21)
(-0.187866 -0.000628636 -5.06895e-21)
(-0.187554 -0.000838617 -3.03112e-21)
(-0.187031 -0.00102361 1.43576e-20)
(-0.186292 -0.00118503 -1.25184e-20)
(-0.185334 -0.00132365 1.63266e-20)
(-0.184149 -0.0014422 -8.6417e-21)
(-0.182731 -0.00154441 -5.67299e-21)
(-0.181073 -0.00163101 2.13867e-21)
(-0.179165 -0.0017108 2.021e-20)
(-0.177 -0.00178898 -1.02928e-20)
(-0.17457 -0.00187167 1.13829e-21)
(-0.171864 -0.00196575 -1.11791e-20)
(-0.168874 -0.0020783 3.10727e-21)
(-0.165588 -0.0022171 -2.20055e-21)
(-0.161997 -0.00238846 -4.03321e-21)
(-0.158092 -0.00260251 6.71105e-21)
(-0.153861 -0.00286663 2.08249e-21)
(-0.149295 -0.00318877 -1.59041e-21)
(-0.144383 -0.00357589 2.30867e-21)
(-0.139119 -0.00403265 5.93411e-21)
(-0.13349 -0.00456659 -7.56057e-21)
(-0.127494 -0.00517021 7.93522e-21)
(-0.121128 -0.00585281 -1.12109e-20)
(-0.114382 -0.00660497 6.15491e-21)
(-0.107257 -0.00742726 2.48193e-23)
(-0.0997484 -0.00831371 8.48393e-22)
(-0.0918613 -0.00924554 -1.47794e-21)
(-0.0836013 -0.0102172 -4.12105e-21)
(-0.074972 -0.0112103 9.09724e-21)
(-0.065981 -0.0122076 -5.73684e-21)
(-0.0566392 -0.0131856 1.54729e-21)
(-0.0469596 -0.0141255 -2.36462e-21)
(-0.0369543 -0.0150067 -2.53038e-21)
(-0.0266417 -0.0158019 4.3006e-21)
(-0.0160376 -0.0164925 -3.4911e-21)
(-0.00515896 -0.0170556 1.06825e-21)
(0.00597514 -0.0174742 2.81836e-21)
(0.017347 -0.0177334 -2.55688e-21)
(0.0289371 -0.0178218 3.84543e-21)
(0.0407279 -0.0177331 -2.97341e-22)
(0.0527015 -0.0174656 -1.40677e-21)
(0.0648411 -0.0170229 9.04687e-23)
(0.0771309 -0.0164141 -2.49502e-21)
(0.0895542 -0.0156564 1.18651e-21)
(0.102095 -0.0147671 6.977e-22)
(0.114739 -0.0137712 -1.29524e-21)
(0.127471 -0.0126971 1.75395e-21)
(0.140275 -0.0115761 -1.92722e-21)
(-0.16339 0.00445758 7.37939e-21)
(-0.165162 0.00384126 1.68346e-20)
(-0.166731 0.00325581 3.32399e-21)
(-0.1681 0.00269879 7.68713e-21)
(-0.16927 0.00216895 -3.74386e-20)
(-0.170239 0.00166434 1.85649e-20)
(-0.171005 0.00118421 -6.22976e-21)
(-0.171565 0.000730263 1.47168e-21)
(-0.171913 0.000309829 2.7398e-22)
(-0.17205 -7.27274e-05 1.79978e-20)
(-0.17199 -0.000438749 -4.20388e-20)
(-0.171729 -0.000774758 3.19643e-20)
(-0.17126 -0.00108326 3.91715e-21)
(-0.170579 -0.00136562 -2.68205e-20)
(-0.169681 -0.00162358 1.50336e-20)
(-0.168561 -0.00185875 1.53517e-20)
(-0.167213 -0.002074 -1.27234e-20)
(-0.165631 -0.00227294 1.65843e-21)
(-0.163806 -0.00245842 -2.79126e-21)
(-0.16173 -0.00263722 -1.68555e-20)
(-0.159395 -0.0028151 -5.81408e-21)
(-0.156792 -0.00299846 1.52292e-20)
(-0.153912 -0.0031943 6.19029e-21)
(-0.150745 -0.00340977 1.09161e-20)
(-0.14728 -0.00365287 -1.51136e-20)
(-0.143509 -0.00392915 -2.60097e-21)
(-0.139421 -0.00424933 -6.35769e-21)
(-0.135007 -0.00462035 -5.65837e-21)
(-0.130257 -0.00504981 1.98162e-20)
(-0.125161 -0.00554444 -1.7472e-20)
(-0.119715 -0.00610842 1.24149e-20)
(-0.113904 -0.00675029 2.04491e-21)
(-0.107728 -0.00745844 1.70109e-21)
(-0.101187 -0.00824549 -1.07598e-20)
(-0.0942709 -0.00910206 4.54754e-21)
(-0.0869839 -0.0100255 3.39528e-21)
(-0.0793209 -0.0110113 4.16794e-21)
(-0.0712897 -0.012037 -1.46068e-20)
(-0.0628987 -0.0130989 1.02421e-20)
(-0.0541531 -0.0141777 -9.18218e-21)
(-0.0450622 -0.015256 8.9764e-21)
(-0.0356389 -0.016308 -1.15392e-20)
(-0.0258997 -0.0173162 1.30311e-20)
(-0.015857 -0.0182593 -6.14679e-21)
(-0.00553101 -0.0191091 4.59958e-21)
(0.00506036 -0.0198465 -5.52875e-21)
(0.0158998 -0.0204506 -1.62628e-21)
(0.0269671 -0.0209026 -3.02936e-21)
(0.0382446 -0.0211888 1.06696e-20)
(0.0497135 -0.0212975 -3.36242e-21)
(0.0613571 -0.0212228 -2.00498e-21)
(0.0731591 -0.0209635 1.63108e-21)
(0.0851049 -0.0205234 -1.44488e-21)
(0.0971813 -0.0199124 1.32878e-21)
(0.109375 -0.0191471 -8.4926e-22)
(0.121673 -0.0182458 -4.31713e-23)
(0.134065 -0.0172335 3.11487e-23)
(0.14654 -0.0161388 -5.87108e-22)
(0.159086 -0.0149931 3.31023e-22)
(-0.145504 0.0053856 8.14478e-21)
(-0.147063 0.00465178 -2.17525e-20)
(-0.148426 0.00395316 2.11996e-20)
(-0.149595 0.00328643 -3.90372e-21)
(-0.150568 0.00264933 -1.57568e-20)
(-0.151343 0.00203937 2.03991e-20)
(-0.151919 0.00145533 -3.32977e-20)
(-0.152288 0.000898498 4.48317e-20)
(-0.152444 0.000378649 -1.49011e-20)
(-0.152397 -9.90702e-05 -2.58151e-20)
(-0.152156 -0.000565729 2.1207e-20)
(-0.151709 -0.00100048 -1.26844e-20)
(-0.151054 -0.00140664 4.68325e-21)
(-0.150187 -0.0017858 -9.14597e-21)
(-0.149101 -0.00214 1.11017e-20)
(-0.147791 -0.00247143 1.50606e-20)
(-0.146252 -0.00278315 -7.20805e-21)
(-0.144477 -0.00307879 6.7905e-21)
(-0.142457 -0.00336211 -4.98904e-21)
(-0.140185 -0.00363929 -3.82534e-23)
(-0.137651 -0.00391631 7.34645e-21)
(-0.134847 -0.00419972 -1.11515e-20)
(-0.131764 -0.00449666 1.49782e-20)
(-0.128392 -0.00481428 -1.49769e-20)
(-0.124721 -0.00516085 3.05681e-21)
(-0.120741 -0.00554087 3.74251e-21)
(-0.116444 -0.00596585 -1.18074e-20)
(-0.111819 -0.00644238 4.32977e-21)
(-0.106859 -0.00697771 -1.56276e-21)
(-0.101553 -0.0075783 -1.04877e-21)
(-0.0959005 -0.00824774 -7.8018e-21)
(-0.0898837 -0.00899637 1.11916e-20)
(-0.0835056 -0.00980689 4.46377e-21)
(-0.0767681 -0.0106957 4.1435e-21)
(-0.0696621 -0.0116523 -1.10479e-20)
(-0.0621948 -0.0126725 1.15961e-20)
(-0.0543609 -0.0137544 -2.77809e-21)
(-0.04617 -0.0148686 -1.10463e-20)
(-0.0376349 -0.0160153 6.35888e-21)
(-0.0287617 -0.017174 7.29432e-21)
(-0.0195613 -0.0183272 -2.70194e-21)
(-0.010049 -0.0194471 -1.50715e-21)
(-0.000244685 -0.020517 -9.1406e-21)
(0.00983839 -0.0215128 3.17553e-21)
(0.0201791 -0.0224109 4.23178e-21)
(0.0307565 -0.0231879 -2.6019e-21)
(0.0415529 -0.0238254 2.25695e-21)
(0.0525475 -0.0243038 -2.53911e-21)
(0.0637222 -0.0246098 -5.84597e-23)
(0.0750587 -0.0247322 6.10951e-22)
(0.0865411 -0.0246654 1.85977e-22)
(0.0981546 -0.0244086 5.33978e-22)
(0.109887 -0.0239665 3.24972e-22)
(0.121726 -0.0233492 2.23343e-21)
(0.133663 -0.0225732 -5.64865e-21)
(0.145688 -0.0216577 3.68323e-21)
(0.157795 -0.0206278 -3.54915e-21)
(0.169975 -0.0195121 1.94969e-21)
(0.182221 -0.0183422 -5.99586e-22)
(-0.124064 0.00620144 -4.55639e-21)
(-0.125386 0.00535483 6.39203e-21)
(-0.126519 0.00454715 2.65922e-20)
(-0.127463 0.00377423 8.44644e-22)
(-0.128217 0.003033 -3.48868e-20)
(-0.128778 0.00232032 7.29511e-21)
(-0.129142 0.00163433 2.2241e-22)
(-0.129299 0.000975809 2.22646e-20)
(-0.129242 0.000358087 -5.32135e-22)
(-0.128991 -0.000219545 -2.2337e-22)
(-0.12855 -0.000783217 -3.73831e-20)
(-0.127898 -0.00131538 3.49263e-21)
(-0.127038 -0.0018182 8.34327e-21)
(-0.125963 -0.0022934 1.24637e-20)
(-0.124669 -0.00274331 1.7689e-20)
(-0.12315 -0.00317052 -9.07769e-21)
(-0.1214 -0.00357828 -6.54505e-21)
(-0.119411 -0.00397039 1.1497e-20)
(-0.117176 -0.0043511 -2.68885e-20)
(-0.114686 -0.00472628 1.04764e-20)
(-0.111933 -0.00510206 -6.32034e-21)
(-0.108908 -0.00548506 1.3126e-20)
(-0.105601 -0.00588251 -1.18712e-20)
(-0.102005 -0.00630156 -1.30174e-21)
(-0.0981064 -0.00675088 -3.57937e-21)
(-0.0938981 -0.00723343 -2.2091e-21)
(-0.0893724 -0.00776169 5.07046e-21)
(-0.0845189 -0.00834192 -6.23573e-21)
(-0.0793305 -0.00898102 1.19248e-20)
(-0.0737979 -0.00968494 1.1199e-20)
(-0.0679222 -0.0104565 -6.77642e-21)
(-0.0616847 -0.0113109 -5.19759e-21)
(-0.0550893 -0.01222 6.91161e-21)
(-0.0481424 -0.0132068 -5.87371e-23)
(-0.0408342 -0.0142591 -1.14025e-20)
(-0.0331766 -0.0153715 1.40236e-21)
(-0.0251631 -0.0165447 7.88401e-21)
(-0.0168043 -0.0177423 -8.17223e-21)
(-0.00811895 -0.0189684 2.9256e-21)
(0.000886049 -0.0202012 -2.97642e-21)
(0.0101982 -0.0214194 1.50654e-20)
(0.0198007 -0.0226014 -8.44849e-21)
(0.0296701 -0.0237259 6.8763e-21)
(0.0397911 -0.0247669 1.65503e-21)
(0.0501418 -0.0257051 -3.95391e-21)
(0.0606996 -0.0265146 7.42208e-21)
(0.0714453 -0.0271774 -1.02127e-20)
(0.0823575 -0.0276744 1.05788e-20)
(0.0934179 -0.0279925 -7.49774e-21)
(0.104608 -0.0281213 -1.43511e-21)
(0.115914 -0.0280556 1.71081e-21)
(0.127321 -0.0277954 -2.34981e-21)
(0.138819 -0.0273456 2.676e-21)
(0.150398 -0.0267173 2.86809e-21)
(0.162053 -0.0259268 -2.07237e-22)
(0.173776 -0.0249942 2.94979e-22)
(0.185565 -0.0239446 -6.78909e-21)
(0.197414 -0.0228069 3.98412e-21)
(0.209322 -0.0216123 6.69652e-22)
(-0.0990569 0.00689639 3.37854e-20)
(-0.100127 0.00594241 -8.64015e-20)
(-0.101017 0.00503042 4.46012e-20)
(-0.101725 0.00415534 1.88212e-21)
(-0.102249 0.00331357 -5.27824e-20)
(-0.102584 0.00250126 5.62931e-20)
(-0.102724 0.00171566 -3.57179e-20)
(-0.102658 0.000958667 2.3862e-20)
(-0.102378 0.000262008 3.13265e-21)
(-0.101913 -0.00043468 -5.39148e-20)
(-0.101259 -0.00109576 6.27148e-20)
(-0.100393 -0.00172432 1.08108e-20)
(-0.0993156 -0.00232281 -2.17752e-20)
(-0.0980233 -0.00289326 1.7506e-20)
(-0.0965104 -0.00343826 -2.36111e-20)
(-0.094771 -0.00396069 6.45823e-21)
(-0.0927984 -0.00446399 -1.18996e-20)
(-0.0905852 -0.00495212 -1.08771e-20)
(-0.0881235 -0.00542962 5.00057e-20)
(-0.085405 -0.00590222 -1.65982e-20)
(-0.0824212 -0.00637608 2.55633e-21)
(-0.0791634 -0.0068579 -1.09439e-20)
(-0.0756223 -0.00735487 -4.03982e-20)
(-0.0717904 -0.00787408 6.2567e-20)
(-0.0676545 -0.00842559 -2.29248e-20)
(-0.0632074 -0.00900931 -1.32508e-21)
(-0.0584431 -0.00963914 -2.34496e-20)
(-0.0533511 -0.0103212 1.8773e-20)
(-0.0479255 -0.0110619 -7.5645e-21)
(-0.0421569 -0.0118663 1.2563e-20)
(-0.0360519 -0.012737 -1.27467e-21)
(-0.0295882 -0.0136945 2.82338e-21)
(-0.0227688 -0.0146987 -2.02091e-20)
(-0.0156084 -0.0157796 1.64395e-20)
(-0.00809464 -0.0169239 -8.18702e-21)
(-0.000244832 -0.0181276 -1.69971e-21)
(0.00794806 -0.0193758 -4.24322e-21)
(0.0164745 -0.0206555 1.56501e-20)
(0.0253078 -0.0219554 -1.16033e-20)
(0.0344422 -0.0232556 1.12999e-20)
(0.043861 -0.0245318 -1.30064e-21)
(0.0535464 -0.0257685 -8.10724e-21)
(0.0634735 -0.0269393 2.86077e-21)
(0.0736237 -0.0280195 -1.29863e-21)
(0.0839741 -0.0289887 -5.95464e-21)
(0.0945007 -0.0298225 8.47193e-21)
(0.105183 -0.0305021 9.58123e-22)
(0.115999 -0.0310096 -3.57121e-21)
(0.126929 -0.0313319 9.55088e-22)
(0.137957 -0.0314594 -4.75442e-21)
(0.149068 -0.0313878 -1.29568e-22)
(0.160248 -0.0311174 6.44735e-22)
(0.17149 -0.0306541 1.1315e-21)
(0.182786 -0.0300094 2.99891e-21)
(0.194132 -0.0292 -1.85428e-21)
(0.205526 -0.0282467 -6.477e-22)
(0.216966 -0.0271748 -9.04164e-24)
(0.228452 -0.0260131 -1.50226e-21)
(0.239983 -0.0247929 9.44478e-22)
(-0.0704491 0.0074682 1.61356e-20)
(-0.0712664 0.00641252 1.36065e-21)
(-0.0719126 0.00540148 3.1535e-22)
(-0.072385 0.00442867 -7.76831e-21)
(-0.0726786 0.00349022 3.45637e-21)
(-0.0727879 0.00258154 -4.14545e-20)
(-0.0727062 0.00169893 6.86906e-20)
(-0.0724086 0.000846554 -4.99201e-20)
(-0.0719142 6.66782e-05 -5.76398e-21)
(-0.0712453 -0.000745996 7.29838e-21)
(-0.0703709 -0.00150331 1.17324e-20)
(-0.0692881 -0.00222717 2.78985e-20)
(-0.0679943 -0.00292041 -8.93967e-21)
(-0.0664841 -0.00358533 -1.29024e-20)
(-0.0647519 -0.00422479 4.09887e-20)
(-0.0627913 -0.00484188 -1.58343e-20)
(-0.0605955 -0.00544022 -2.97358e-20)
(-0.058157 -0.00602389 3.70802e-20)
(-0.0554679 -0.0065976 4.11152e-21)
(-0.0525197 -0.00716699 -2.3736e-20)
(-0.0493041 -0.00773825 1.40008e-20)
(-0.0458124 -0.00831805 -4.45858e-20)
(-0.0420354 -0.00891339 4.62209e-20)
(-0.0379671 -0.0095315 -2.46461e-20)
(-0.0335936 -0.0101843 -2.31533e-20)
(-0.028907 -0.0108677 2.31626e-20)
(-0.0239038 -0.0115972 -1.81586e-20)
(-0.0185739 -0.0123792 2.50116e-21)
(-0.0129118 -0.0132194 3.77006e-20)
(-0.00690836 -0.0141225 -2.1595e-20)
(-0.000576344 -0.0150968 4.34491e-21)
(0.0061087 -0.0161355 -2.19361e-20)
(0.0131489 -0.0172381 2.29649e-20)
(0.0205175 -0.0184099 1.85497e-20)
(0.0282294 -0.0196418 -2.82124e-20)
(0.0362678 -0.0209311 1.27297e-20)
(0.0446315 -0.0222487 5.85637e-21)
(0.0533122 -0.0236045 -3.21302e-20)
(0.0622839 -0.0249711 1.92182e-20)
(0.0715357 -0.0263314 1.10099e-20)
(0.0810484 -0.0276615 -6.97146e-21)
(0.0908023 -0.0289437 -6.41563e-21)
(0.100772 -0.0301527 9.69049e-21)
(0.110935 -0.0312638 -1.78968e-22)
(0.121268 -0.0322559 -6.45748e-21)
(0.131746 -0.0331053 5.1366e-21)
(0.142346 -0.0337935 -8.59638e-22)
(0.153046 -0.0343031 2.14368e-21)
(0.163827 -0.0346216 -3.01832e-21)
(0.174671 -0.0347402 -3.75418e-21)
(0.185565 -0.0346551 7.02257e-21)
(0.196497 -0.0343678 -4.17981e-22)
(0.207459 -0.0338847 -3.9506e-21)
(0.218447 -0.033218 -1.25268e-21)
(0.229459 -0.032385 2.83706e-21)
(0.240495 -0.0314069 1.54599e-21)
(0.251556 -0.0303094 -8.81133e-22)
(0.262647 -0.0291213 -1.89403e-21)
(0.273768 -0.027874 2.20474e-21)
(-0.0381792 0.00792204 -4.03947e-20)
(-0.0387592 0.00677069 6.22879e-20)
(-0.0391769 0.00566604 -6.99431e-20)
(-0.0394286 0.00459999 1.59982e-20)
(-0.039507 0.00356875 5.92828e-20)
(-0.0394054 0.00256708 -4.77951e-20)
(-0.0391159 0.00159011 -4.58267e-20)
(-0.038601 0.000640153 -4.5232e-21)
(-0.0379063 -0.000248346 6.98196e-20)
(-0.0370442 -0.00115209 5.9088e-21)
(-0.0359623 -0.0020011 -2.93276e-21)
(-0.0346751 -0.00281858 1.89707e-20)
(-0.033176 -0.00360558 -7.34647e-20)
(-0.0314591 -0.00436427 4.51457e-20)
(-0.0295185 -0.00509766 1.17923e-20)
(-0.0273475 -0.00580897 -4.07688e-20)
(-0.024939 -0.00650193 2.39167e-20)
(-0.0222855 -0.00718073 -5.79066e-21)
(-0.0193788 -0.00785017 -9.45303e-21)
(-0.0162108 -0.00851584 1.03132e-20)
(-0.0127729 -0.00918392 -1.80881e-20)
(-0.00905692 -0.00986109 1.31517e-20)
(-0.00505333 -0.0105544 2.47441e-20)
(-0.000758464 -0.0112725 -3.52305e-20)
(0.0038423 -0.0120195 -5.24814e-21)
(0.00875876 -0.0128018 2.25393e-20)
(0.0139905 -0.01363 1.50136e-20)
(0.0195476 -0.0145097 -2.08097e-20)
(0.0254347 -0.015447 -1.99864e-21)
(0.031659 -0.0164462 3.03582e-20)
(0.0382119 -0.0175197 -3.37604e-20)
(0.0451053 -0.0186361 3.24413e-20)
(0.0523461 -0.0198336 -4.44834e-20)
(0.05991 -0.0210911 3.40647e-20)
(0.0678044 -0.0224046 -2.18414e-20)
(0.0760139 -0.0237699 1.69908e-20)
(0.0845314 -0.025162 -7.58926e-22)
(0.0933476 -0.0265832 4.37997e-21)
(0.102437 -0.0280092 -2.84109e-20)
(0.111786 -0.0294222 8.88827e-21)
(0.12137 -0.0307986 9.52557e-21)
(0.13117 -0.0321187 -8.13183e-22)
(0.141159 -0.0333578 4.88947e-21)
(0.151312 -0.0344915 -1.67144e-20)
(0.161603 -0.0354982 -3.29075e-21)
(0.172007 -0.036355 2.46498e-21)
(0.182499 -0.0370435 1.0103e-20)
(0.193059 -0.0375471 -1.08487e-20)
(0.203665 -0.0378538 7.90339e-21)
(0.2143 -0.0379558 7.9951e-21)
(0.224952 -0.03785 -1.96865e-20)
(0.235609 -0.0375388 9.74574e-21)
(0.246266 -0.0370297 -1.48576e-21)
(0.25692 -0.0363353 -2.81455e-21)
(0.26757 -0.0354736 2.10556e-21)
(0.27822 -0.0344665 1.7604e-21)
(0.288874 -0.0333398 1.26003e-22)
(0.299538 -0.0321226 -2.92465e-21)
(0.310218 -0.030846 2.48587e-21)
(-0.0021542 0.00827101 8.50201e-20)
(-0.00253212 0.00703354 -2.92751e-20)
(-0.0027549 0.00583911 -1.1466e-20)
(-0.00281871 0.00468344 -6.62904e-21)
(-0.00271384 0.00356272 5.99589e-20)
(-0.00243215 0.00247117 -4.71184e-20)
(-0.00196652 0.0014002 4.15105e-20)
(-0.00126688 0.000351223 -5.2163e-20)
(-0.000397249 -0.000649704 -1.54119e-20)
(0.000637251 -0.00163245 -2.00157e-20)
(0.00189896 -0.00257411 1.54246e-20)
(0.00336452 -0.0034856 4.60065e-21)
(0.00504428 -0.00436638 -1.21e-20)
(0.0069439 -0.00521873 7.87742e-21)
(0.00906954 -0.00604587 1.90502e-20)
(0.011428 -0.00685122 3.69187e-20)
(0.0140267 -0.00763864 -4.30366e-20)
(0.0168733 -0.00841235 4.77517e-20)
(0.0199758 -0.00917719 -3.94389e-20)
(0.0233424 -0.00993873 -2.08069e-20)
(0.0269814 -0.0107031 1.72898e-20)
(0.0309009 -0.011477 -1.4516e-20)
(0.0351097 -0.0122674 1.12263e-20)
(0.0396129 -0.013084 6.37739e-21)
(0.0444208 -0.0139237 -4.28117e-21)
(0.0495442 -0.0148036 1.26406e-20)
(0.0549836 -0.0157282 -3.13113e-20)
(0.0607469 -0.0167033 1.54629e-20)
(0.0668375 -0.0177346 -2.30838e-20)
(0.0732607 -0.0188256 2.1458e-20)
(0.0800105 -0.0199872 8.24004e-21)
(0.0870906 -0.0211954 2.49951e-20)
(0.094508 -0.0224762 -2.81977e-20)
(0.102242 -0.0238139 2.37001e-20)
(0.110293 -0.0252035 5.31822e-22)
(0.118647 -0.0266392 -8.91053e-21)
(0.127291 -0.0280993 -1.22056e-20)
(0.136215 -0.0295796 2.76716e-21)
(0.145393 -0.0310583 -6.05648e-21)
(0.154808 -0.032517 -1.0405e-20)
(0.164434 -0.0339319 1.29636e-20)
(0.174249 -0.0352823 -9.21522e-21)
(0.184225 -0.0365438 1.3384e-20)
(0.194335 -0.0376921 -4.84883e-21)
(0.204553 -0.0387053 -7.44737e-21)
(0.214851 -0.0395614 1.88105e-20)
(0.225205 -0.0402422 -1.1635e-20)
(0.235592 -0.0407318 3.36013e-23)
(0.245992 -0.0410191 1.14062e-20)
(0.256388 -0.041097 -1.19333e-20)
(0.266767 -0.0409636 5.32324e-21)
(0.277121 -0.0406219 2.09533e-21)
(0.287444 -0.0400805 -3.75702e-21)
(0.297735 -0.0393529 -8.0886e-21)
(0.307995 -0.0384576 3.54967e-21)
(0.318231 -0.0374171 1.08291e-20)
(0.328449 -0.0362575 -8.20909e-21)
(0.338657 -0.0350081 6.55566e-21)
(0.348864 -0.0337 -1.74933e-21)
(0.0377527 0.0085421 3.05754e-20)
(0.0375175 0.00722347 -6.96492e-20)
(0.0374322 0.00594295 3.50664e-20)
(0.0375031 0.004701 1.02288e-20)
(0.0377401 0.00349359 -5.4095e-21)
(0.0381517 0.00231464 4.72167e-21)
(0.0387438 0.00115718 -7.50762e-21)
(0.0395796 5.34086e-05 -2.83582e-20)
(0.0405863 -0.00109134 -1.84717e-21)
(0.0417547 -0.00216745 6.66633e-20)
(0.0431497 -0.00320591 -1.03635e-20)
(0.044755 -0.00421157 -5.45586e-20)
(0.0465773 -0.00518615 5.12908e-20)
(0.0486225 -0.00613223 -2.30573e-20)
(0.0508967 -0.00705324 -2.44181e-20)
(0.053407 -0.00795275 9.7053e-21)
(0.056161 -0.00883471 1.21516e-20)
(0.0591664 -0.00970338 2.59758e-20)
(0.0624311 -0.0105636 -2.73198e-21)
(0.0659632 -0.0114208 -1.96713e-20)
(0.0697708 -0.012281 -8.03455e-22)
(0.0738616 -0.0131508 4.15544e-21)
(0.0782439 -0.014037 -2.00881e-21)
(0.0829232 -0.0149486 1.02128e-20)
(0.0879074 -0.0158854 -1.38075e-20)
(0.0932064 -0.0168603 1.06819e-21)
(0.0988219 -0.0178788 -4.85868e-21)
(0.104759 -0.0189466 -1.00866e-20)
(0.111021 -0.0200691 3.21591e-20)
(0.117611 -0.0212489 -9.37224e-21)
(0.124524 -0.0224952 -3.3969e-21)
(0.131758 -0.0237907 3.02422e-20)
(0.139319 -0.0251505 -3.51658e-20)
(0.147188 -0.0265639 -1.27152e-20)
(0.155361 -0.0280244 1.08405e-20)
(0.163822 -0.0295252 9.1693e-21)
(0.172556 -0.0310462 -4.88223e-21)
(0.18155 -0.0325795 -1.46402e-20)
(0.190779 -0.0341043 3.14731e-20)
(0.200221 -0.0356016 -1.77611e-20)
(0.20985 -0.0370477 -7.08069e-21)
(0.219641 -0.038421 7.19761e-21)
(0.229564 -0.0396973 2.198e-20)
(0.239592 -0.0408523 -3.21319e-20)
(0.249696 -0.0418645 2.17705e-20)
(0.259849 -0.0427121 -4.46033e-21)
(0.270026 -0.0433775 2.52675e-21)
(0.280203 -0.0438458 -3.55236e-21)
(0.29036 -0.0441064 -5.32988e-21)
(0.300481 -0.0441533 1.2823e-20)
(0.310554 -0.0439856 -2.37959e-21)
(0.320571 -0.0436073 -1.22657e-20)
(0.330527 -0.0430279 3.88784e-21)
(0.340424 -0.0422618 8.9022e-21)
(0.350265 -0.0413282 -4.06971e-21)
(0.360057 -0.0402501 5.79168e-21)
(0.369809 -0.0390542 -1.06299e-20)
(0.379533 -0.0377696 6.1835e-21)
(0.389238 -0.0364275 2.63173e-21)
(0.0816911 0.00877415 6.15283e-20)
(0.0815132 0.00737427 -6.64915e-20)
(0.0814845 0.00601114 2.06376e-20)
(0.0816132 0.0046849 2.98456e-20)
(0.0819091 0.00339211 -1.01185e-20)
(0.0823831 0.00212693 -1.93528e-20)
(0.083053 0.00088452 -1.1717e-20)
(0.0839372 -0.000314728 1.45528e-20)
(0.0849957 -0.00156884 2.00972e-20)
(0.0862588 -0.00274091 -1.48102e-20)
(0.0877358 -0.00387347 9.49435e-22)
(0.0894263 -0.00497313 -3.19511e-20)
(0.0913383 -0.00604196 8.24714e-21)
(0.0934774 -0.00708233 1.67513e-20)
(0.0958501 -0.00809783 5.91523e-21)
(0.0984635 -0.00909214 -2.20842e-20)
(0.101325 -0.0100693 3.75886e-20)
(0.104443 -0.0110334 -3.06149e-20)
(0.107824 -0.0119893 -9.44923e-22)
(0.111477 -0.0129424 3.59879e-20)
(0.115409 -0.0138986 -3.13918e-20)
(0.119627 -0.0148642 2.18544e-20)
(0.12414 -0.0158457 -7.65353e-21)
(0.128953 -0.0168518 4.50364e-21)
(0.134071 -0.0178842 -3.9461e-20)
(0.139504 -0.0189527 2.6948e-20)
(0.145253 -0.0200634 -3.46551e-20)
(0.151323 -0.0212218 3.2001e-20)
(0.157715 -0.022433 3.93477e-21)
(0.164429 -0.0236988 1.44742e-21)
(0.171461 -0.0250269 -3.00558e-20)
(0.178807 -0.0264039 -3.11249e-21)
(0.186468 -0.0278391 4.25837e-20)
(0.194428 -0.0293235 -9.36389e-21)
(0.202677 -0.0308499 -1.7068e-20)
(0.2112 -0.0324102 3.41349e-20)
(0.219978 -0.0339858 -2.56939e-20)
(0.228997 -0.035566 8.61841e-21)
(0.238229 -0.0371304 4.99116e-21)
(0.247651 -0.0386595 -1.33538e-20)
(0.257234 -0.0401297 -4.72326e-21)
(0.266953 -0.0415186 1.57415e-20)
(0.276776 -0.0428024 -1.05307e-20)
(0.286674 -0.0439569 1.13754e-20)
(0.296618 -0.0449607 -1.21513e-20)
(0.30658 -0.0457926 -2.13376e-21)
(0.316534 -0.0464357 6.62535e-21)
(0.326457 -0.0468758 4.00446e-22)
(0.336329 -0.0471032 -2.1214e-21)
(0.346135 -0.0471129 -8.6795e-21)
(0.355862 -0.0469049 -2.60194e-21)
(0.365505 -0.0464845 8.10539e-21)
(0.37506 -0.0458619 8.73e-21)
(0.384529 -0.0450526 -6.47082e-21)
(0.393918 -0.0440764 -5.95466e-21)
(0.403236 -0.042957 1.16565e-20)
(0.412494 -0.0417214 -5.84411e-21)
(0.421704 -0.0403989 -6.07255e-21)
(0.43088 -0.0390205 7.14744e-21)
(0.12959 0.0075376 3.06963e-20)
(0.129509 0.00609093 2.29072e-20)
(0.129593 0.00467906 -5.99982e-21)
(0.12985 0.00329943 -2.7198e-20)
(0.130292 0.00194577 9.94722e-21)
(0.130934 0.000607154 3.38096e-20)
(0.131798 -0.000730598 -8.35023e-20)
(0.132849 -0.00204921 7.21183e-20)
(0.134115 -0.00331319 -9.1309e-21)
(0.1356 -0.00454224 -9.90068e-21)
(0.137305 -0.0057383 -7.65844e-22)
(0.139238 -0.00690346 3.477e-20)
(0.141406 -0.00803996 -4.64704e-20)
(0.143813 -0.00915163 -1.91425e-20)
(0.146468 -0.0102423 2.90099e-20)
(0.149377 -0.011316 2.52094e-20)
(0.152547 -0.0123768 -6.12577e-20)
(0.155987 -0.0134295 1.84532e-20)
(0.159704 -0.0144794 1.72661e-20)
(0.163706 -0.015532 3.39398e-20)
(0.167998 -0.0165938 -1.49839e-20)
(0.172587 -0.0176708 -1.64091e-20)
(0.17748 -0.0187712 -3.10886e-20)
(0.182681 -0.0198977 4.45216e-20)
(0.188196 -0.0210589 5.75555e-22)
(0.194027 -0.0222604 -7.48492e-21)
(0.200178 -0.0235075 -1.30596e-20)
(0.206647 -0.0248049 -4.18016e-21)
(0.213434 -0.026154 3.65691e-20)
(0.220533 -0.027561 -1.21684e-20)
(0.227939 -0.0290151 -3.15797e-20)
(0.235648 -0.0305216 -6.50599e-22)
(0.243644 -0.0320725 4.76227e-21)
(0.251917 -0.0336597 -1.72826e-21)
(0.260447 -0.0352743 -1.16079e-20)
(0.269216 -0.0368984 2.39894e-20)
(0.278204 -0.0385194 9.53712e-21)
(0.287384 -0.0401172 -1.80031e-20)
(0.29673 -0.0416715 1.33543e-21)
(0.306213 -0.0431589 5.08048e-21)
(0.315804 -0.0445568 7.37346e-21)
(0.325471 -0.0458412 -6.74171e-21)
(0.335185 -0.0469884 9.78375e-21)
(0.344915 -0.0479771 -8.11272e-21)
(0.354633 -0.0487869 1.26573e-20)
(0.364314 -0.0494014 -8.45009e-21)
(0.373933 -0.0498071 5.28215e-21)
(0.383473 -0.0499955 3.5006e-21)
(0.392917 -0.0499626 -1.03356e-20)
(0.402256 -0.0497093 -6.38434e-23)
(0.411484 -0.0492419 2.0478e-21)
(0.420599 -0.0485719 9.01102e-21)
(0.429605 -0.0477154 -4.18246e-22)
(0.438509 -0.0466931 -5.80786e-21)
(0.447321 -0.0455292 -6.04518e-21)
(0.456055 -0.0442511 -2.02048e-21)
(0.464725 -0.0428883 5.34787e-21)