/*--------------------------------*- C++ -*----------------------------------*\
  =========                 |
  \\      /  F ield         | OpenFOAM: The Open Source CFD Toolbox
   \\    /   O peration     | Website:  https://openfoam.org
    \\  /    A nd           | Version:  7
     \\/     M anipulation  |
\*---------------------------------------------------------------------------*/
FoamFile
{
    version     2.0;
    format      ascii;
    class       volScalarField;
    location    "175";
    object      p;
}
// * * * * * * * * * * * * * * * * * * * * * * * * * * * * * * * * * * * * * //

dimensions      [0 2 -2 0 0 0 0];

internalField   nonuniform List<scalar> 
1987
(
-0.10856
-0.097264
-0.0868027
-0.0767411
-0.115761
-0.104129
-0.0933566
-0.0830971
-0.122752
-0.110802
-0.0997299
-0.0892337
-0.12953
-0.11728
-0.105913
-0.0951397
-0.149569
-0.136095
-0.123557
-0.111904
-0.100853
-0.156181
-0.142444
-0.129631
-0.117705
-0.106394
-0.162567
-0.14858
-0.135504
-0.123315
-0.111763
-0.168729
-0.154504
-0.141176
-0.128733
-0.116953
-0.160217
-0.146647
-0.133956
-0.121958
-0.165722
-0.151917
-0.138984
-0.126777
-0.17102
-0.156989
-0.143815
-0.131406
-0.176115
-0.161863
-0.148452
-0.135844
-0.181009
-0.16654
-0.152893
-0.14009
-0.185707
-0.171023
-0.157139
-0.144141
-0.190212
-0.175313
-0.16119
-0.147997
-0.194528
-0.179412
-0.165047
-0.151655
-0.198659
-0.183321
-0.168709
-0.155113
-0.187042
-0.172175
-0.158368
-0.190576
-0.175446
-0.161418
-0.193924
-0.178519
-0.164259
-0.197087
-0.181393
-0.166886
-0.200065
-0.184064
-0.169294
-0.186529
-0.171476
-0.188782
-0.173424
-0.190818
-0.175129
-0.176579
-0.177761
-0.178657
-0.0983494
-0.0926465
-0.0870954
-0.0816845
-0.0764401
-0.0713606
-0.0664381
-0.0616802
-0.0570859
-0.0526504
-0.0483731
-0.0442527
-0.0402874
-0.0364763
-0.0328162
-0.0293061
-0.025936
-0.0227171
-0.0196432
-0.0167099
-0.0139155
-0.0112581
-0.00873557
-0.00634596
-0.00408744
-0.00195842
4.25117e-05
0.00191626
0.00366386
0.00528602
0.00678318
0.0081519
0.00939153
0.0105005
0.0114749
0.0123094
0.0129994
0.0135312
0.0139067
0.0140872
-0.0931404
-0.0877417
-0.0824953
-0.0773731
-0.0724012
-0.0675742
-0.0628836
-0.0583506
-0.0539724
-0.04974
-0.0456531
-0.0417107
-0.0379121
-0.0342576
-0.0307421
-0.0273673
-0.0241221
-0.0210205
-0.0180557
-0.0152238
-0.0125233
-0.00995298
-0.00751103
-0.00519592
-0.00300618
-0.000940538
0.00100209
0.00282237
0.00452138
0.00609728
0.00755373
0.00888611
0.010093
0.0111727
0.0121216
0.0129341
0.0136056
0.0141225
0.0144873
0.0146594
-0.0877723
-0.0826859
-0.0777511
-0.0729301
-0.068243
-0.0636759
-0.0592275
-0.0549288
-0.0507755
-0.0467542
-0.042864
-0.0391052
-0.0354778
-0.0319824
-0.0286097
-0.0253972
-0.0222766
-0.0192935
-0.0164392
-0.0137107
-0.0111063
-0.0086249
-0.00626534
-0.00402638
-0.00190691
9.40441e-05
0.00197727
0.00374328
0.00539347
0.00691989
0.00833541
0.00963112
0.0108049
0.0118552
0.0127781
0.0135683
0.0142211
0.0147229
0.015077
0.0152404
-0.0822242
-0.0774713
-0.0728564
-0.0683446
-0.0639493
-0.0596689
-0.0554895
-0.0514335
-0.0475083
-0.0437015
-0.040012
-0.0364406
-0.0329876
-0.0296512
-0.0264086
-0.0234132
-0.0204018
-0.0175368
-0.0147948
-0.0121715
-0.00966505
-0.00727461
-0.00499924
-0.00283809
-0.000790401
0.00114445
0.00296693
0.00467731
0.00627597
0.00775734
0.00912983
0.0103876
0.0115276
0.0125477
0.0134443
0.0142119
0.0148457
0.0153323
0.0156753
0.0158303
-0.0764761
-0.0721126
-0.0678266
-0.0636218
-0.0595153
-0.0555809
-0.0516914
-0.0478785
-0.0441809
-0.0405905
-0.0371054
-0.0337264
-0.0304539
-0.0272862
-0.0242227
-0.0213278
-0.0184784
-0.0157412
-0.013117
-0.0106028
-0.00819749
-0.00590063
-0.00371173
-0.00163037
0.000343798
0.00221103
0.00397144
0.00562496
0.00717124
0.00860665
0.00993582
0.0111548
0.0122604
0.01325
0.0141198
0.0148645
0.0154791
0.0159504
0.016282
0.0164288
-0.0407649
-0.0374018
-0.0341301
-0.0309508
-0.0278652
-0.0248736
-0.0219816
-0.019212
-0.0165137
-0.0139102
-0.0114076
-0.00900582
-0.0067045
-0.00450369
-0.00240342
-0.000403756
0.00149523
0.00329337
0.00499041
0.00658592
0.00807906
0.00946734
0.0107527
0.0119323
0.0130029
0.0139615
0.0148043
0.0155258
0.0161209
0.0165768
0.0168969
0.0170356
-0.103402
-0.0974033
-0.0915555
-0.0858681
-0.0803638
-0.0750392
-0.0698884
-0.0649127
-0.0601118
-0.0554821
-0.0510221
-0.0467302
-0.0426043
-0.0386422
-0.0348416
-0.0312017
-0.0277119
-0.0243796
-0.0211993
-0.0181673
-0.0152814
-0.0125392
-0.00993812
-0.0074758
-0.00515009
-0.00295905
-0.000901003
0.00102534
0.00282102
0.00448698
0.00602406
0.0074288
0.00870087
0.00983863
0.0108383
0.0116945
0.0124027
0.0129492
0.0133354
0.0135242
-0.108291
-0.102008
-0.0958737
-0.0899216
-0.084169
-0.0786092
-0.0732365
-0.0680508
-0.0630516
-0.0582354
-0.0536001
-0.0491435
-0.0448631
-0.0407562
-0.0368201
-0.0330533
-0.0294475
-0.0260054
-0.0227225
-0.019595
-0.0166204
-0.0137957
-0.0111182
-0.008585
-0.00619374
-0.00394214
-0.00182823
0.000149599
0.00199249
0.00370124
0.00527726
0.00671746
0.00802151
0.00918767
0.0102122
0.0110898
0.0118161
0.012377
0.0127738
0.0129705
-0.113013
-0.106456
-0.100046
-0.0938418
-0.0878524
-0.0820679
-0.0764826
-0.0710956
-0.0659062
-0.0609111
-0.0561075
-0.0514927
-0.0470639
-0.0428178
-0.0387513
-0.0348618
-0.031143
-0.0275946
-0.0242125
-0.0209926
-0.017932
-0.0150274
-0.0122755
-0.00967336
-0.0072182
-0.00490748
-0.002739
-0.000710848
0.00117826
0.00292915
0.00454337
0.00601839
0.00735386
0.00854791
0.0095969
0.0104956
0.0112396
0.0118147
0.0122218
0.0124264
-0.117563
-0.110744
-0.104071
-0.0976261
-0.0914115
-0.085413
-0.079625
-0.0740461
-0.0686751
-0.0635088
-0.0585439
-0.0537774
-0.0492061
-0.0448263
-0.0406344
-0.036627
-0.0327987
-0.0291475
-0.0256696
-0.0223604
-0.0192164
-0.0162341
-0.01341
-0.0107407
-0.00822329
-0.00585489
-0.00363309
-0.00155577
0.000378571
0.00217089
0.00382266
0.00533188
0.00669818
0.00791963
0.0089927
0.00991215
0.0106735
0.0112626
0.0116798
0.0118923
-0.121938
-0.114868
-0.107944
-0.101272
-0.0948446
-0.088643
-0.0826623
-0.0769008
-0.071357
-0.0660273
-0.0609085
-0.0559969
-0.0512891
-0.046781
-0.0424688
-0.0383483
-0.0344145
-0.0306643
-0.0270937
-0.0236981
-0.0204733
-0.0174157
-0.0145215
-0.0117869
-0.00920884
-0.00678418
-0.00451031
-0.0023849
-0.000406304
0.00142662
0.00311532
0.00465813
0.00605469
0.00730305
0.0083998
0.00933962
0.0101181
0.010721
0.011148
0.0113682
-0.126134
-0.118825
-0.111664
-0.104778
-0.0981495
-0.0917562
-0.0855929
-0.0796584
-0.0739505
-0.0684658
-0.0632004
-0.0581506
-0.0533125
-0.0486818
-0.0442542
-0.0400253
-0.0359902
-0.0321447
-0.0284848
-0.0250056
-0.0217028
-0.0185722
-0.0156098
-0.0128118
-0.0101747
-0.00769516
-0.00537044
-0.00319804
-0.00117612
0.00069658
0.00242152
0.00399731
0.00542358
0.0066984
0.00781842
0.00877828
0.00957352
0.01019
0.0106266
0.0108543
-0.130149
-0.122611
-0.115227
-0.108141
-0.101324
-0.0947507
-0.0884153
-0.0823175
-0.0764547
-0.0708232
-0.0654189
-0.0602378
-0.0552758
-0.0505281
-0.0459904
-0.0416579
-0.0375255
-0.0335885
-0.0298427
-0.0262829
-0.0229045
-0.0197033
-0.0166749
-0.0138153
-0.0111206
-0.00858768
-0.00621334
-0.003995
-0.0019307
-1.90353e-05
0.00174144
0.0033496
0.00480506
0.00610588
0.00724877
0.00822831
0.00904004
0.0096698
0.0101157
0.0103508
-0.13398
-0.126224
-0.11863
-0.111358
-0.104367
-0.0976247
-0.091128
-0.0848769
-0.0788685
-0.0730987
-0.0675633
-0.062258
-0.0571784
-0.0523197
-0.0476772
-0.0432457
-0.0390201
-0.0349955
-0.0311671
-0.0275297
-0.0240785
-0.020809
-0.0177166
-0.0147971
-0.0120467
-0.00946161
-0.00703887
-0.00477565
-0.00266988
-0.000720051
0.00107527
0.00271519
0.00419931
0.00552567
0.00669104
0.00768992
0.00851783
0.00916062
0.00961561
0.00985778
-0.137622
-0.129658
-0.121869
-0.114426
-0.107274
-0.100376
-0.0937294
-0.0873352
-0.0811907
-0.0752914
-0.0696329
-0.0642106
-0.05902
-0.0540562
-0.0493141
-0.0447885
-0.0404741
-0.0363655
-0.032458
-0.028746
-0.0252247
-0.0218892
-0.0187349
-0.0157574
-0.0129526
-0.0103169
-0.00784692
-0.00553987
-0.00339353
-0.00140633
0.000423161
0.00209426
0.00360651
0.00495796
0.00614541
0.00716328
0.00800705
0.00866261
0.00912641
0.00937545
-0.141072
-0.13291
-0.124941
-0.117344
-0.110045
-0.103003
-0.0962175
-0.0896909
-0.0834201
-0.0774003
-0.0716268
-0.066095
-0.0608001
-0.0557372
-0.0509011
-0.0462862
-0.0418872
-0.0376986
-0.0337153
-0.0299319
-0.026343
-0.0229439
-0.0197297
-0.016696
-0.0138385
-0.0111534
-0.00863742
-0.00628755
-0.00410155
-0.00207775
-0.000214752
0.00148694
0.00302681
0.0044029
0.00561204
0.00664855
0.00750786
0.00817593
0.00864828
0.00890392
-0.144325
-0.135975
-0.127842
-0.120107
-0.112676
-0.105503
-0.0985905
-0.0919423
-0.0855553
-0.0794243
-0.0735442
-0.0679104
-0.0625182
-0.0573624
-0.0524377
-0.0477385
-0.0432594
-0.0389947
-0.0349391
-0.0310872
-0.0274335
-0.0239731
-0.0207011
-0.0176129
-0.0147042
-0.0119711
-0.0094103
-0.00701865
-0.00479385
-0.00273421
-0.000838359
0.000893342
0.00246033
0.00386063
0.00509106
0.00614587
0.0070204
0.00770072
0.00818135
0.00844332
-0.147378
-0.138847
-0.130568
-0.122712
-0.115164
-0.107874
-0.100846
-0.0940877
-0.087595
-0.0813623
-0.0753843
-0.0696564
-0.0641738
-0.0589315
-0.0539238
-0.0491454
-0.0445906
-0.0402537
-0.0361293
-0.0322119
-0.0284961
-0.0249768
-0.021649
-0.0185081
-0.0155498
-0.0127701
-0.0101655
-0.0077331
-0.00547038
-0.00337564
-0.00144757
0.000313577
0.00190719
0.00333125
0.0045826
0.00565537
0.00654482
0.0072371
0.00772576
0.00799375
-0.150224
-0.14152
-0.133112
-0.125155
-0.117507
-0.110112
-0.102982
-0.0961252
-0.0895377
-0.0832132
-0.0771461
-0.071332
-0.0657664
-0.0604439
-0.0553592
-0.0505066
-0.0458807
-0.0414756
-0.037286
-0.0333062
-0.029531
-0.0259551
-0.0225735
-0.0193817
-0.0163753
-0.0135503
-0.0109032
-0.00843088
-0.00613109
-0.00400198
-0.00204233
-0.00025228
0.00136748
0.00281489
0.00408677
0.00517717
0.00608122
0.0067852
0.00728162
0.00755534
-0.152857
-0.143987
-0.135471
-0.127433
-0.119701
-0.112216
-0.104996
-0.0980527
-0.0913818
-0.0849757
-0.0788286
-0.0729366
-0.0672953
-0.0618995
-0.0567436
-0.0518221
-0.0471296
-0.0426605
-0.0384091
-0.0343701
-0.0305381
-0.026908
-0.0234748
-0.0202338
-0.0171808
-0.0143117
-0.0116231
-0.00911201
-0.00677596
-0.00461321
-0.00262258
-0.000804169
0.000841263
0.00231161
0.00360366
0.00471136
0.0056297
0.00634512
0.00684904
0.00712816
-0.15527
-0.146241
-0.137638
-0.129542
-0.121744
-0.114182
-0.106885
-0.0998681
-0.0931256
-0.0866484
-0.0804308
-0.0744694
-0.0687601
-0.0632977
-0.0580766
-0.0530916
-0.0483374
-0.0438082
-0.0394988
-0.0354037
-0.0315177
-0.0278357
-0.0243528
-0.0210644
-0.0179663
-0.0150545
-0.0123255
-0.00977651
-0.00740502
-0.00520931
-0.00318829
-0.00134205
0.000328602
0.00182148
0.00313335
0.00425803
0.00519035
0.00591694
0.00642812
0.00671232
-0.157455
-0.148273
-0.139608
-0.131477
-0.12363
-0.116007
-0.108646
-0.101569
-0.0947673
-0.0882299
-0.0819513
-0.0759293
-0.0701601
-0.0646382
-0.0593581
-0.0543151
-0.0495039
-0.044919
-0.0405551
-0.0364071
-0.0324698
-0.0287383
-0.0252077
-0.0218737
-0.0187319
-0.0157786
-0.0130105
-0.0104244
-0.00801827
-0.00579029
-0.00373947
-0.00186589
-0.000170468
0.00134455
0.00267588
0.00381723
0.00476325
0.00550074
0.00601894
0.00630789
-0.159402
-0.150075
-0.141372
-0.133235
-0.125358
-0.117686
-0.110275
-0.103152
-0.096305
-0.0897186
-0.0833889
-0.0773156
-0.0714947
-0.0659204
-0.0605878
-0.0554924
-0.0506291
-0.0459927
-0.0415782
-0.0373805
-0.0333947
-0.029616
-0.0260398
-0.0226618
-0.0194779
-0.0164843
-0.0136779
-0.0110558
-0.00861579
-0.00635619
-0.00427612
-0.0023757
-0.000655928
0.000880861
0.00223132
0.00338904
0.00434846
0.0050966
0.00562157
0.00591493
-0.1611
-0.151633
-0.142926
-0.13481
-0.12692
-0.119214
-0.111769
-0.104616
-0.0977367
-0.0911124
-0.0847421
-0.0786272
-0.0727632
-0.0671439
-0.0617653
-0.0566233
-0.051713
-0.0470295
-0.042568
-0.0383239
-0.0342923
-0.0304689
-0.0268491
-0.0234288
-0.0202042
-0.0171717
-0.0143281
-0.0116708
-0.00919762
-0.00690705
-0.00479828
-0.00287149
-0.00112777
0.000430421
0.00179967
0.00297347
0.00394603
0.00470455
0.00523608
0.00553352
-0.162536
-0.152938
-0.144261
-0.136197
-0.128313
-0.120586
-0.113124
-0.105958
-0.09906
-0.0924093
-0.0860092
-0.0798631
-0.0739647
-0.068308
-0.0628903
-0.0577077
-0.0527555
-0.0480294
-0.0435248
-0.0392375
-0.0351631
-0.0312972
-0.0276359
-0.0241751
-0.0209112
-0.0178409
-0.0149612
-0.0122695
-0.00976388
-0.00744294
-0.00530599
-0.00335328
-0.00158602
-6.76629e-06
0.00138097
0.00257057
0.00355599
0.00432465
0.00486252
0.0051637
-0.163696
-0.153976
-0.14537
-0.137391
-0.129531
-0.121797
-0.114335
-0.107175
-0.100273
-0.0936068
-0.0871888
-0.0810222
-0.0750983
-0.0694121
-0.0639624
-0.0587454
-0.0537566
-0.0489924
-0.0444487
-0.0401216
-0.036007
-0.0321012
-0.0284003
-0.0249007
-0.021599
-0.0184921
-0.0155772
-0.012852
-0.0103147
-0.00796395
-0.00579932
-0.00382113
-0.0020307
-0.000430715
0.000975212
0.00218034
0.00317837
0.00395693
0.00450093
0.00480552
-0.164561
-0.154734
-0.146244
-0.138386
-0.130564
-0.122837
-0.115397
-0.108264
-0.10137
-0.0947016
-0.0882789
-0.0821031
-0.0761627
-0.0704554
-0.0649812
-0.0597361
-0.0547162
-0.0499186
-0.0453398
-0.0409762
-0.0368245
-0.0328811
-0.0291427
-0.0256059
-0.0222678
-0.0191254
-0.0161764
-0.0134185
-0.0108501
-0.00847019
-0.00627836
-0.0042751
-0.00246185
-0.000841456
0.000582375
0.00180278
0.00281317
0.0036014
0.00415135
0.00445902
-0.165113
-0.155196
-0.146877
-0.139177
-0.131405
-0.1237
-0.116309
-0.109223
-0.10235
-0.0956918
-0.0892788
-0.0831047
-0.0771569
-0.0714375
-0.0659464
-0.0606796
-0.0556342
-0.050808
-0.0461982
-0.0418017
-0.0376156
-0.0336371
-0.0298632
-0.026291
-0.0229178
-0.0197412
-0.0167589
-0.0139691
-0.0113703
-0.00896177
-0.0067432
-0.00471526
-0.00287955
-0.00123903
0.000202436
0.00143787
0.00246041
0.00325808
0.00381381
0.00412423
-0.165327
-0.155343
-0.14726
-0.139756
-0.132039
-0.124373
-0.117064
-0.110045
-0.103205
-0.0965733
-0.0901857
-0.0840241
-0.0780791
-0.0723572
-0.0668572
-0.0615754
-0.0565104
-0.0516607
-0.047024
-0.0425981
-0.0383807
-0.0343696
-0.0305622
-0.0269562
-0.0235494
-0.0203396
-0.017325
-0.0145041
-0.0118756
-0.00943885
-0.00719397
-0.00514172
-0.00328385
-0.0016235
-0.00016465
0.0010856
0.00212005
0.00292696
0.00348832
0.00380117
-0.165176
-0.15516
-0.147396
-0.140118
-0.132455
-0.124857
-0.117667
-0.110729
-0.103932
-0.0973469
-0.0909994
-0.0848603
-0.078929
-0.0732145
-0.0677134
-0.0624234
-0.0573449
-0.0524768
-0.0478175
-0.0433657
-0.03912
-0.0350787
-0.0312398
-0.0276018
-0.0241627
-0.0209209
-0.0178749
-0.0150235
-0.0123659
-0.00990155
-0.00763077
-0.00555458
-0.00367485
-0.00199492
-0.000518927
0.000745919
0.0017921
0.00260802
0.00317489
0.00348986
-0.154628
-0.147278
-0.140239
-0.132619
-0.125136
-0.118105
-0.111255
-0.10452
-0.0980061
-0.0917126
-0.085608
-0.0797038
-0.0740071
-0.0685133
-0.0632229
-0.0581374
-0.0532561
-0.0485787
-0.0441049
-0.0398339
-0.0357649
-0.0318967
-0.0282282
-0.0247582
-0.0214855
-0.018409
-0.0155279
-0.0128417
-0.0103501
-0.00805385
-0.005954
-0.0040527
-0.00235342
-0.000860492
0.000418765
0.00147649
0.00230125
0.00287352
0.0031903
-0.153751
-0.146939
-0.140121
-0.132541
-0.125243
-0.118394
-0.111631
-0.104982
-0.0985598
-0.0923294
-0.0862716
-0.0804069
-0.0747371
-0.0692587
-0.0639753
-0.0588888
-0.0539995
-0.0493083
-0.044816
-0.0405228
-0.0364285
-0.032533
-0.0288357
-0.0253361
-0.0220335
-0.0189273
-0.0160172
-0.0133029
-0.0107846
-0.0084632
-0.00634003
-0.00441741
-0.00269902
-0.00118937
0.000104114
0.00117322
0.00200662
0.00258421
0.00290249
-0.146345
-0.139656
-0.132158
-0.125138
-0.118478
-0.111817
-0.105295
-0.0989863
-0.0928333
-0.0868413
-0.0810312
-0.0753995
-0.0699469
-0.0646793
-0.0595988
-0.0547074
-0.0500074
-0.0455006
-0.0411882
-0.0370713
-0.0331504
-0.0294259
-0.0258979
-0.0225663
-0.0194312
-0.0164926
-0.0137506
-0.011206
-0.00885963
-0.0067133
-0.00476951
-0.00303213
-0.00150586
-0.000198263
0.000882133
0.00172404
0.00230692
0.00262642
-0.145629
-0.138944
-0.131635
-0.124943
-0.118434
-0.111896
-0.105527
-0.0993323
-0.0932644
-0.08735
-0.0816013
-0.0760143
-0.0705946
-0.0653482
-0.0602782
-0.0553883
-0.0506824
-0.0461634
-0.0418339
-0.0376958
-0.0337508
-0.0300001
-0.0264444
-0.0230845
-0.0199209
-0.0169541
-0.0141848
-0.011614
-0.00924293
-0.00707364
-0.00510884
-0.00335262
-0.00180989
-0.000488311
0.000603257
0.00145349
0.00204165
0.0023621
-0.137762
-0.130858
-0.124512
-0.11816
-0.111814
-0.105631
-0.0995678
-0.0936123
-0.0877958
-0.0821219
-0.0765918
-0.0712146
-0.0659966
-0.0609428
-0.056059
-0.0513506
-0.0468218
-0.0424766
-0.0383183
-0.0343494
-0.0305722
-0.0269885
-0.0235995
-0.0204066
-0.0174108
-0.0146133
-0.0120154
-0.00961871
-0.00742562
-0.00543907
-0.00366334
-0.00210358
-0.000767528
0.000335616
0.00119441
0.00178814
0.00210938
-0.137105
-0.130625
-0.124458
-0.118233
-0.112063
-0.106014
-0.100046
-0.0941779
-0.088431
-0.0828088
-0.0773175
-0.071966
-0.0667607
-0.0617085
-0.0568172
-0.0520934
-0.0475433
-0.043172
-0.038984
-0.034983
-0.0311721
-0.0275539
-0.0241304
-0.0209034
-0.0178744
-0.0150451
-0.012417
-0.00999226
-0.00777323
-0.00576314
-0.00396641
-0.0023884
-0.00103691
7.86019e-05
0.000946452
0.00154627
0.00186827
-0.134667
-0.123326
-0.108659
-0.128925
-0.118998
-0.105745
-0.0928192
-0.0810242
-0.0700203
-0.0597825
-0.0506282
-0.0428859
-0.0367895
-0.0324966
-0.0301131
-0.0296861
-0.123173
-0.114526
-0.102644
-0.090944
-0.0802922
-0.070401
-0.0611712
-0.052845
-0.0457232
-0.0400244
-0.0358895
-0.0334084
-0.0326181
-0.117384
-0.109942
-0.0993631
-0.0888256
-0.0792359
-0.0703616
-0.0620603
-0.0545083
-0.0479725
-0.0426562
-0.0386871
-0.0361407
-0.035046
-0.111621
-0.105271
-0.0959081
-0.0864635
-0.0778597
-0.0699167
-0.0624688
-0.0556375
-0.0496543
-0.0447064
-0.0409093
-0.0383275
-0.0369839
-0.105896
-0.100527
-0.0922885
-0.0838647
-0.076174
-0.0690845
-0.0624199
-0.0562575
-0.0507942
-0.0462002
-0.0425806
-0.0399917
-0.0384517
-0.10021
-0.0957238
-0.0885192
-0.0810426
-0.0741952
-0.0678869
-0.0619402
-0.0563969
-0.0514218
-0.0471678
-0.043731
-0.0411611
-0.0394738
-0.0945815
-0.0908806
-0.0846192
-0.0780163
-0.0719444
-0.0663503
-0.0610605
-0.0560888
-0.051571
-0.0476434
-0.0443938
-0.0418669
-0.0400764
-0.0890246
-0.0860156
-0.0806096
-0.0748082
-0.069447
-0.0645042
-0.0598142
-0.0553691
-0.051279
-0.0476643
-0.0446051
-0.0421421
-0.0402878
-0.0835521
-0.0811488
-0.0765136
-0.0714434
-0.0667311
-0.0623806
-0.058237
-0.0542758
-0.0505848
-0.0472694
-0.0444024
-0.0420213
-0.040138
-0.078178
-0.0763007
-0.0723553
-0.0679486
-0.0638261
-0.0600129
-0.0563658
-0.0528483
-0.0495288
-0.0464988
-0.0438245
-0.0415404
-0.0396579
-0.0729149
-0.0714907
-0.0681586
-0.0643507
-0.0607622
-0.0574349
-0.0542379
-0.0511262
-0.0481515
-0.045393
-0.0429103
-0.0407352
-0.0388791
-0.0677735
-0.0667369
-0.0639471
-0.0606766
-0.0575698
-0.0546805
-0.0518904
-0.0491487
-0.0464935
-0.0439922
-0.0416985
-0.0396418
-0.0378333
-0.0627641
-0.0620561
-0.0597433
-0.0569531
-0.0542789
-0.0517833
-0.0493599
-0.0469548
-0.0445943
-0.0423358
-0.0402272
-0.0382956
-0.0365523
-0.0578964
-0.0574643
-0.0555687
-0.0532057
-0.0509188
-0.0487758
-0.0466819
-0.0445819
-0.0424927
-0.0404626
-0.0385338
-0.0367316
-0.0350674
-0.0531794
-0.0529763
-0.0514439
-0.0494594
-0.0475176
-0.0456894
-0.0438907
-0.0420666
-0.0402262
-0.0384097
-0.0366547
-0.0349839
-0.0334077
-0.0486215
-0.0486059
-0.0473879
-0.0457374
-0.0441022
-0.0425539
-0.0410189
-0.0394433
-0.0378304
-0.0362132
-0.0346247
-0.0330862
-0.0316062
-0.0442303
-0.0443658
-0.0434186
-0.0420615
-0.0406976
-0.0393976
-0.0380972
-0.0367448
-0.035339
-0.0339068
-0.0324767
-0.031068
-0.0296899
-0.0400124
-0.0402675
-0.039552
-0.0384518
-0.0373271
-0.0362464
-0.0351542
-0.0340017
-0.032784
-0.0315227
-0.0302428
-0.028961
-0.0276863
-0.0359737
-0.0363212
-0.035803
-0.0349266
-0.034012
-0.0331246
-0.0322164
-0.0312422
-0.0301946
-0.0290908
-0.0279521
-0.0267932
-0.0256222
-0.0321191
-0.0325359
-0.0321846
-0.0315024
-0.0307718
-0.030054
-0.029308
-0.0284924
-0.027598
-0.0266384
-0.0256317
-0.0245906
-0.0235222
-0.0284529
-0.0289196
-0.0287085
-0.0281943
-0.0276241
-0.0270546
-0.0264511
-0.025776
-0.0250192
-0.0241911
-0.0233068
-0.0223775
-0.0214095
-0.0249785
-0.0254791
-0.0253851
-0.0250154
-0.0245846
-0.0241445
-0.0236657
-0.0231147
-0.0224809
-0.0217721
-0.0210008
-0.0201768
-0.0193055
-0.0216991
-0.0222205
-0.0222236
-0.0219777
-0.0216676
-0.0213398
-0.0209698
-0.0205279
-0.0200037
-0.0194028
-0.0187353
-0.0180096
-0.0172305
-0.0186175
-0.0191489
-0.019232
-0.0190918
-0.0188858
-0.0186552
-0.0183797
-0.0180334
-0.0176064
-0.0171023
-0.0165296
-0.0158951
-0.015203
-0.0157361
-0.0162693
-0.0164177
-0.0163673
-0.0162507
-0.0161038
-0.0159101
-0.0156472
-0.0153059
-0.0148886
-0.0144018
-0.0138512
-0.0132405
-0.0130576
-0.0135862
-0.0137873
-0.0138128
-0.0137726
-0.0136976
-0.0135744
-0.0133839
-0.0131179
-0.0127777
-0.0123683
-0.0118945
-0.011359
-0.0105845
-0.0111038
-0.0113472
-0.0114365
-0.0114614
-0.0114477
-0.0113849
-0.0112571
-0.0110568
-0.0107847
-0.0104445
-0.0100401
-0.00957359
-0.00831997
-0.00882677
-0.00910367
-0.0092463
-0.00932625
-0.00936466
-0.00935335
-0.00927933
-0.00913609
-0.00892369
-0.00864496
-0.00830271
-0.00789877
-0.00626783
-0.00676019
-0.00706327
-0.0072501
-0.00737628
-0.00745863
-0.00749088
-0.00746268
-0.00736852
-0.00720807
-0.00698333
-0.0066963
-0.00634838
-0.00443289
-0.00490992
-0.00523317
-0.00545629
-0.00562095
-0.00573999
-0.00580876
-0.00581922
-0.00576685
-0.00565114
-0.00547318
-0.00523445
-0.00493594
-0.00282105
-0.00328288
-0.00362136
-0.00387392
-0.0040702
-0.00421953
-0.00431853
-0.0043612
-0.0043439
-0.00426576
-0.00412774
-0.0039307
-0.0036752
-0.00144037
-0.00188786
-0.00223759
-0.00251357
-0.00273538
-0.00290924
-0.00303278
-0.00310169
-0.00311317
-0.00306643
-0.00296177
-0.00279966
-0.00258039
-0.000300792
-0.000735585
-0.00109338
-0.0013875
-0.00162932
-0.00182247
-0.00196536
-0.00205511
-0.00208961
-0.00206797
-0.00199011
-0.00185636
-0.00166674
0.0005853
0.000160655
-0.000202718
-0.000510224
-0.00076699
-0.000974578
-0.00113191
-0.00123712
-0.00128866
-0.00128565
-0.00122892
-0.00111719
-0.000950403
0.00119844
0.000781644
0.000414772
9.82219e-05
-0.000168697
-0.000386109
-0.000553351
-0.000669408
-0.000733158
-0.000743713
-0.000699774
-0.000602377
-0.000451081
0.00152451
0.00111011
0.000740854
0.0004194
0.000147031
-7.56493e-05
-0.000248112
-0.000369657
-0.000439443
-0.000456693
-0.000420763
-0.000331407
-0.000188305
)
;

boundaryField
{
    inlet
    {
        type            zeroGradient;
    }
    outlet
    {
        type            fixedValue;
        value           nonuniform 0();
    }
    cylinder
    {
        type            zeroGradient;
    }
    top
    {
        type            symmetryPlane;
    }
    bottom
    {
        type            symmetryPlane;
    }
    defaultFaces
    {
        type            empty;
    }
    procBoundary1to0
    {
        type            processor;
        value           nonuniform List<scalar> 
46
(
-0.101151
-0.0902048
-0.0800345
-0.0703047
-0.0705878
-0.0705878
-0.0666534
-0.0627153
-0.0588324
-0.0550447
-0.0513694
-0.0477637
-0.0442198
-0.0442198
-0.0372675
-0.0341398
-0.0310884
-0.0281153
-0.0252225
-0.022412
-0.0196896
-0.0170624
-0.0145119
-0.0120452
-0.00966784
-0.00738146
-0.00518677
-0.00308437
-0.00107484
0.00084127
0.00266342
0.00439103
0.00602343
0.00755983
0.00899903
0.010339
0.0115801
0.0127197
0.0137548
0.014682
0.0154973
0.0161954
0.0167708
0.0172112
0.0175196
0.0176504
)
;
    }
    procBoundary1to2
    {
        type            processor;
        value           nonuniform List<scalar> 
36
(
-0.0311776
-0.0334842
-0.0353721
-0.0368517
-0.0379386
-0.0386507
-0.0390077
-0.0390311
-0.0387443
-0.0381718
-0.0373391
-0.0362721
-0.0349969
-0.0335412
-0.0319294
-0.0301888
-0.0283445
-0.026421
-0.024442
-0.0224299
-0.0204058
-0.0183899
-0.0164006
-0.0144557
-0.0125715
-0.0107636
-0.00904648
-0.00743421
-0.00594037
-0.00457829
-0.00336156
-0.00230417
-0.00142121
-0.000728581
-0.00024551
8.72065e-06
)
;
    }
    procBoundary1to5
    {
        type            processor;
        value           nonuniform List<scalar> 
59
(
-0.120833
-0.12836
-0.135659
-0.142728
-0.142728
-0.164037
-0.170901
-0.177524
-0.183909
-0.174669
-0.174669
-0.180392
-0.185902
-0.191203
-0.1963
-0.2012
-0.205909
-0.210432
-0.214776
-0.202609
-0.202609
-0.206382
-0.209982
-0.213413
-0.216678
-0.202856
-0.202856
-0.205459
-0.207872
-0.192628
-0.192628
-0.194203
-0.19553
-0.179249
-0.179249
-0.17951
-0.164623
-0.164623
-0.163627
-0.152526
-0.152526
-0.151138
-0.144501
-0.144501
-0.14379
-0.140518
-0.127565
-0.111407
-0.0944606
-0.0944606
-0.0814411
-0.0692155
-0.0578884
-0.0478545
-0.0394554
-0.0329401
-0.028491
-0.0262345
-0.026229
)
;
    }
}


// ************************************************************************* //
