/*--------------------------------*- C++ -*----------------------------------*\
  =========                 |
  \\      /  F ield         | OpenFOAM: The Open Source CFD Toolbox
   \\    /   O peration     | Website:  https://openfoam.org
    \\  /    A nd           | Version:  7
     \\/     M anipulation  |
\*---------------------------------------------------------------------------*/
FoamFile
{
    version     2.0;
    format      ascii;
    class       volScalarField;
    location    "180";
    object      p;
}
// * * * * * * * * * * * * * * * * * * * * * * * * * * * * * * * * * * * * * //

dimensions      [0 2 -2 0 0 0 0];

internalField   nonuniform List<scalar> 
1987
(
-0.0315878
-0.0194867
-0.00969469
-0.00180182
0.00454709
0.00957123
0.0133622
0.0160227
0.017778
0.0188904
0.0195204
0.0196285
0.0190359
0.017612
0.014939
0.0104806
0.0034795
-0.00697316
-0.0217502
-0.0410609
-0.0638368
-0.0871378
-0.106664
-0.11782
-0.118338
-0.10685
-0.0880996
-0.0661754
-0.0448092
-0.0263824
-0.0112806
0.000298556
0.00925294
0.0155271
0.0203005
0.0233051
0.0251396
0.0250828
0.0225846
0.0165644
0.00584197
-0.00937148
-0.0304203
-0.0526013
-0.0757397
-0.0892682
-0.0940879
-0.0846081
-0.0670273
-0.0476279
-0.0257419
-0.0123228
0.00272149
0.00785562
0.0107267
0.00898528
-0.0278765
-0.0163054
-0.00688632
0.000763165
0.00697561
0.0119463
0.0157387
0.0184196
0.0201816
0.0212721
0.0218267
0.0218904
0.0213596
0.0199675
0.0173714
0.0130535
0.0062643
-0.00390871
-0.0183606
-0.0373479
-0.0598699
-0.0830428
-0.102563
-0.113769
-0.113961
-0.103245
-0.0848954
-0.0633833
-0.0423942
-0.0242718
-0.009396
0.00203603
0.0108986
0.0171191
0.0218493
0.0248118
0.026566
0.026617
0.024188
0.0182546
0.00758181
-0.00761014
-0.0287557
-0.0511153
-0.0744848
-0.0882631
-0.0931393
-0.0837942
-0.0661551
-0.0468048
-0.0250307
-0.0116987
0.00306202
0.00815556
0.0106959
0.00902317
-0.0240935
-0.0130694
-0.00404537
0.00333143
0.00936747
0.0142367
0.0179836
0.0206456
0.0223791
0.0234125
0.0239154
0.023929
0.0233415
0.021935
0.0193689
0.015135
0.00850378
-0.00141031
-0.0154799
-0.0339618
-0.0559012
-0.0785061
-0.0975905
-0.108666
-0.109064
-0.0988695
-0.0811325
-0.0602314
-0.0397587
-0.0220317
-0.00744601
0.00378682
0.0125122
0.0186385
0.0232838
0.0261663
0.0279273
0.0279321
0.0255321
0.0196832
0.00909527
-0.00599705
-0.0271067
-0.0494573
-0.0728609
-0.0867551
-0.0916883
-0.0825388
-0.0649553
-0.0457621
-0.0242031
-0.0110135
0.00339273
0.00842769
0.010611
0.00901047
-0.0202205
-0.00978096
-0.00118087
0.00589625
0.0117284
0.0164726
0.0201606
0.0228054
0.0245271
0.0255337
0.0260014
0.0259452
0.0253009
0.0238749
0.0213323
0.017181
0.010715
0.00108333
-0.0125515
-0.030434
-0.0516558
-0.0735517
-0.0921323
-0.103094
-0.10373
-0.094031
-0.076975
-0.0567754
-0.0369156
-0.0196672
-0.00543589
0.00555118
0.0141071
0.02012
0.0246702
0.0274796
0.0292326
0.0291828
0.0268165
0.0210685
0.0106003
-0.00433063
-0.0253095
-0.0475445
-0.0708746
-0.0848375
-0.0898176
-0.0808948
-0.0634609
-0.0445084
-0.023267
-0.0102714
0.00371277
0.00867589
0.0104779
0.0089539
0.00369417
-0.00943033
-0.026631
-0.0470591
-0.0681937
-0.086234
-0.0969975
-0.0978227
-0.0886586
-0.0723776
-0.0529987
-0.033865
-0.0171862
-0.00337679
0.00731605
0.0156679
0.0215454
0.0259851
0.0287138
0.0304251
0.0303548
0.0280396
0.0224299
0.0121361
-0.00255897
-0.0233111
-0.0453416
-0.0685039
-0.0824827
-0.0874739
-0.0788259
-0.0616466
-0.0430311
-0.0222204
-0.00947478
0.00401916
0.00889518
0.0102972
0.00885087
-0.0723284
-0.0647898
-0.0601719
-0.0583663
-0.0595076
-0.063822
-0.0711675
-0.080613
-0.0903583
-0.0980871
-0.101654
-0.099906
-0.0932594
-0.0834523
-0.0728006
-0.0632518
-0.0558853
-0.0510944
-0.0490574
-0.0499615
-0.0538059
-0.0600418
-0.067351
-0.0737678
-0.0772616
-0.076523
-0.0717103
-0.0641821
-0.0558891
-0.0484855
-0.0429365
-0.0397981
-0.0392595
-0.0411862
-0.0447905
-0.048668
-0.0512344
-0.0511709
-0.0483136
-0.0434766
-0.0379883
-0.0333464
-0.0301726
-0.0294341
-0.0306418
-0.0333322
-0.0360083
-0.0370669
-0.0357343
-0.0318772
-0.0260414
-0.020529
-0.0738572
-0.0655591
-0.0602516
-0.0577747
-0.0582067
-0.0617345
-0.0682146
-0.0767623
-0.0856745
-0.0927679
-0.096026
-0.0943665
-0.0881875
-0.0791258
-0.0693586
-0.0607101
-0.0541951
-0.0502075
-0.0489637
-0.0506902
-0.0554037
-0.0625341
-0.0706967
-0.077813
-0.0817289
-0.081038
-0.0758956
-0.0677304
-0.0586295
-0.0503632
-0.0439542
-0.0399673
-0.0385751
-0.0396597
-0.0424571
-0.0456636
-0.0477675
-0.0475756
-0.0449116
-0.040574
-0.0357609
-0.0319062
-0.0295897
-0.0297158
-0.0318342
-0.0352955
-0.0386989
-0.0400996
-0.0389309
-0.0347731
-0.0284944
-0.0223208
-0.01553
-0.0118914
-0.00796475
-0.00674992
-0.00331551
-0.00225669
-0.0752306
-0.0661745
-0.0601799
-0.0570367
-0.0567663
-0.0595165
-0.0651429
-0.0728093
-0.0809094
-0.0873903
-0.0903601
-0.0888007
-0.0830909
-0.0747632
-0.0658594
-0.0580872
-0.0524029
-0.0492043
-0.0487461
-0.051293
-0.0568791
-0.064913
-0.0739441
-0.0817792
-0.0861372
-0.0855084
-0.0800427
-0.0712351
-0.0613138
-0.052173
-0.044899
-0.0400672
-0.0378334
-0.0380941
-0.0401072
-0.0426651
-0.0443229
-0.0440073
-0.0415268
-0.037669
-0.0335085
-0.0304244
-0.0289564
-0.0299478
-0.0329851
-0.0372317
-0.0413776
-0.0431305
-0.0421238
-0.0376578
-0.0309219
-0.0240826
-0.0165131
-0.0122358
-0.00755347
-0.00602915
-0.00240056
-0.00159641
-0.07645
-0.0666416
-0.0599663
-0.0561655
-0.0552039
-0.05719
-0.0619794
-0.068785
-0.0760968
-0.0819884
-0.0846885
-0.0832367
-0.0779915
-0.0703803
-0.0623138
-0.0553893
-0.0505109
-0.048083
-0.0483987
-0.0517595
-0.0582166
-0.0671588
-0.0770698
-0.0856411
-0.0904617
-0.0899122
-0.0841347
-0.0746843
-0.0639351
-0.0539123
-0.0457714
-0.0401016
-0.0370408
-0.0364985
-0.0377513
-0.0396839
-0.0409119
-0.0404764
-0.0381679
-0.0347685
-0.0312361
-0.0289035
-0.0282724
-0.030127
-0.034089
-0.0391336
-0.0440361
-0.0461514
-0.0453051
-0.0405247
-0.0333183
-0.0258107
-0.0174637
-0.0125589
-0.00713576
-0.00531507
-0.00150461
-0.000949391
-0.0775177
-0.066967
-0.0596209
-0.0551746
-0.0535371
-0.0547769
-0.0587501
-0.0647191
-0.0712686
-0.0765944
-0.0790405
-0.0777002
-0.0729102
-0.0659925
-0.0587323
-0.052623
-0.048522
-0.046843
-0.0479163
-0.0520796
-0.0594013
-0.0692517
-0.0800502
-0.0893728
-0.0946768
-0.0942269
-0.0881538
-0.0780659
-0.0664868
-0.0555785
-0.0465725
-0.0400744
-0.0362036
-0.0348812
-0.0353994
-0.0367305
-0.0375448
-0.0369923
-0.0348433
-0.0318791
-0.0289486
-0.027346
-0.0275376
-0.0302506
-0.0351404
-0.0409937
-0.0466658
-0.0491536
-0.0484665
-0.0433669
-0.0356779
-0.0275014
-0.0183801
-0.0128607
-0.0067131
-0.00460929
-0.000629624
-0.000316713
-0.0784367
-0.0671577
-0.0591543
-0.0540779
-0.051783
-0.0522981
-0.0554796
-0.0606392
-0.0664541
-0.071238
-0.0734432
-0.0722152
-0.0678664
-0.0616145
-0.0551255
-0.0497954
-0.0464399
-0.0454841
-0.0472948
-0.0522443
-0.0604189
-0.0711723
-0.0828616
-0.0929483
-0.0987568
-0.0984293
-0.0920819
-0.0813676
-0.0689619
-0.0571693
-0.0473031
-0.0399892
-0.0353282
-0.0332502
-0.0330606
-0.0338146
-0.0342311
-0.033563
-0.0315603
-0.0290072
-0.0266506
-0.0257545
-0.0267521
-0.0303155
-0.0361339
-0.0428045
-0.0492577
-0.0521282
-0.0515995
-0.0461774
-0.0379951
-0.0291509
-0.0192605
-0.013141
-0.00628694
-0.00391334
0.000222493
0.000300574
-0.0792109
-0.0672216
-0.0585773
-0.052889
-0.0499582
-0.0497736
-0.0521911
-0.0565709
-0.0616803
-0.0659459
-0.0679224
-0.0668037
-0.0628782
-0.0572604
-0.0515041
-0.046914
-0.0442693
-0.0440075
-0.0465307
-0.0522453
-0.061256
-0.0729019
-0.0854808
-0.0963415
-0.102675
-0.102496
-0.0959005
-0.0845767
-0.0713536
-0.0586823
-0.0479645
-0.03985
-0.0344202
-0.0316129
-0.0307433
-0.0309449
-0.0309794
-0.0301963
-0.0283261
-0.0261586
-0.0243469
-0.0241317
-0.0259159
-0.0303192
-0.0370638
-0.0445581
-0.0518026
-0.0550657
-0.0546954
-0.0489491
-0.0402641
-0.0307557
-0.0201033
-0.0133998
-0.00585864
-0.00322868
0.00104992
0.000901476
-0.0798444
-0.0671668
-0.057901
-0.0516213
-0.0480787
-0.0472222
-0.0489059
-0.0525374
-0.0569715
-0.0607419
-0.062501
-0.0614864
-0.0579623
-0.0529435
-0.0478785
-0.0439869
-0.0420154
-0.042415
-0.0456221
-0.0520758
-0.0619002
-0.0744226
-0.0878853
-0.0995268
-0.106407
-0.106404
-0.0995909
-0.0876806
-0.0736551
-0.0601154
-0.0485579
-0.0396603
-0.0334852
-0.0299762
-0.028455
-0.0281292
-0.0277975
-0.0268999
-0.0251473
-0.0233394
-0.0220423
-0.0224802
-0.0250294
-0.0302587
-0.0379246
-0.0462466
-0.054291
-0.0579564
-0.057745
-0.0516747
-0.0424793
-0.032312
-0.0209068
-0.0136369
-0.00542953
-0.00255665
0.0018509
0.00148504
-0.0803422
-0.0670017
-0.0571364
-0.050288
-0.0461597
-0.044661
-0.0456435
-0.0485599
-0.0523492
-0.0556472
-0.0571988
-0.0562816
-0.0531338
-0.0486764
-0.0442593
-0.0410225
-0.0396843
-0.0407096
-0.0445678
-0.05173
-0.0623404
-0.0757179
-0.0900536
-0.10248
-0.109925
-0.110132
-0.103134
-0.0906663
-0.0758595
-0.0614666
-0.0490844
-0.0394237
-0.0325285
-0.0283464
-0.0262028
-0.0253744
-0.0246919
-0.0236804
-0.0220301
-0.0205548
-0.0197413
-0.0208029
-0.024093
-0.0301318
-0.038711
-0.047862
-0.056713
-0.0607904
-0.060739
-0.0543467
-0.0446349
-0.0338161
-0.0216693
-0.013852
-0.00500086
-0.00189854
0.0026238
0.00205038
-0.0807093
-0.0667348
-0.0562944
-0.0489017
-0.0442154
-0.0421061
-0.0424214
-0.0446569
-0.0478323
-0.0506801
-0.0520327
-0.0512056
-0.0484062
-0.0444707
-0.0406568
-0.0380297
-0.0372828
-0.0388953
-0.0433683
-0.0512036
-0.0625672
-0.0767728
-0.0919656
-0.105176
-0.113206
-0.113658
-0.106512
-0.0935211
-0.0779602
-0.0627337
-0.0495453
-0.0391437
-0.0315548
-0.0267292
-0.0239926
-0.0226867
-0.0216684
-0.0205439
-0.0189804
-0.0178103
-0.0174485
-0.0191027
-0.0231073
-0.029936
-0.0394175
-0.0493962
-0.0590588
-0.0635573
-0.0636678
-0.0569577
-0.0467253
-0.0352644
-0.0223892
-0.014045
-0.00457383
-0.00125552
0.00336703
0.00259667
-0.080951
-0.0663746
-0.0553856
-0.0474745
-0.042259
-0.0395717
-0.039255
-0.0408445
-0.0434372
-0.0458564
-0.0470173
-0.0462738
-0.0437915
-0.0403374
-0.0370811
-0.0350176
-0.0348184
-0.0369772
-0.042025
-0.0504939
-0.0625728
-0.0775741
-0.0936031
-0.107594
-0.116226
-0.116974
-0.109705
-0.096232
-0.0799503
-0.063915
-0.049942
-0.0388236
-0.0305689
-0.0251299
-0.02183
-0.0200713
-0.0187322
-0.0174953
-0.0160029
-0.0151106
-0.0151683
-0.0173826
-0.0220731
-0.0296693
-0.0400391
-0.0508414
-0.0613182
-0.0662467
-0.0665218
-0.0594998
-0.048745
-0.0366533
-0.023065
-0.0142155
-0.00414957
-0.00062867
0.00407915
0.00312312
-0.081073
-0.0659295
-0.0544205
-0.0460178
-0.0403025
-0.0370707
-0.0361578
-0.0371367
-0.0391775
-0.0411892
-0.0421643
-0.0415011
-0.0392999
-0.0362865
-0.0335421
-0.0319954
-0.0322992
-0.0349613
-0.0405411
-0.0495999
-0.0623512
-0.0781107
-0.0949496
-0.109714
-0.118963
-0.120256
-0.112695
-0.0987864
-0.0818232
-0.0650085
-0.0502758
-0.0384664
-0.0295747
-0.023553
-0.0197195
-0.0175328
-0.0158878
-0.0145382
-0.0131021
-0.0124606
-0.0129053
-0.0156456
-0.0209914
-0.0293299
-0.0405709
-0.0521897
-0.063481
-0.068848
-0.0692912
-0.0619656
-0.0506884
-0.0379795
-0.0236953
-0.0143632
-0.00372914
-1.89688e-05
0.00475879
0.00362904
-0.0810807
-0.0654075
-0.0534087
-0.0445423
-0.0383571
-0.0346143
-0.0331414
-0.033545
-0.0350642
-0.0366889
-0.0374832
-0.0368976
-0.0349391
-0.0323272
-0.0300493
-0.0289726
-0.0297339
-0.0328546
-0.0389209
-0.0485224
-0.0618989
-0.0783735
-0.0959912
-0.111516
-0.121392
-0.123015
-0.115454
-0.101172
-0.0835723
-0.0660123
-0.0505478
-0.0380753
-0.0285762
-0.0220028
-0.0176653
-0.0150747
-0.0131386
-0.011676
-0.0102821
-0.00986464
-0.0106636
-0.0138949
-0.0198635
-0.0289163
-0.0410082
-0.0534334
-0.0655372
-0.0713505
-0.0719664
-0.064347
-0.05255
-0.0392394
-0.0242785
-0.0144878
-0.00331356
0.000572702
0.0054047
0.00411378
-0.0809796
-0.0648167
-0.0523596
-0.0430578
-0.0364327
-0.0322125
-0.0302153
-0.0300788
-0.0311062
-0.0323642
-0.0329828
-0.0324885
-0.0307118
-0.0284677
-0.026612
-0.0259588
-0.0271317
-0.030665
-0.03717
-0.0472639
-0.061214
-0.0783562
-0.0967164
-0.112985
-0.123493
-0.125457
-0.117971
-0.103377
-0.0851912
-0.0669247
-0.0507594
-0.0376529
-0.0275767
-0.0204826
-0.0156706
-0.0127003
-0.0104876
-0.00891197
-0.00754659
-0.00732678
-0.00844764
-0.0121337
-0.0186909
-0.0284275
-0.0413467
-0.0545652
-0.0674768
-0.0737434
-0.0745382
-0.0666365
-0.0543246
-0.0404299
-0.0248134
-0.014589
-0.00290374
0.00114557
0.00601577
0.0045768
-0.0807751
-0.0641643
-0.0512818
-0.0415737
-0.0345383
-0.0298737
-0.0273876
-0.0267454
-0.0273102
-0.0282207
-0.0286673
-0.0281872
-0.0266214
-0.0247157
-0.0232388
-0.0229633
-0.0245021
-0.0284013
-0.0352955
-0.0458286
-0.0602973
-0.0780549
-0.0971165
-0.114109
-0.12525
-0.127601
-0.120235
-0.105391
-0.0866737
-0.0677439
-0.0509116
-0.037202
-0.0265795
-0.0189957
-0.0137383
-0.0104118
-0.00793694
-0.00624874
-0.00489868
-0.0048509
-0.00626141
-0.0103654
-0.0174753
-0.0278625
-0.0415827
-0.055578
-0.0692899
-0.0760159
-0.0769981
-0.068826
-0.0560069
-0.0415479
-0.0252988
-0.0146663
-0.00250057
0.00169895
0.00659099
0.00501761
-0.0804725
-0.0634574
-0.0501834
-0.040098
-0.0326816
-0.0276048
-0.0246645
-0.0235503
-0.023681
-0.0242626
-0.0245367
-0.0240446
-0.0226818
-0.021079
-0.0199377
-0.0199955
-0.0218549
-0.0260729
-0.0333058
-0.0442227
-0.0591515
-0.0774682
-0.0971858
-0.114876
-0.12665
-0.129432
-0.122234
-0.107204
-0.0880138
-0.068468
-0.0510057
-0.036725
-0.0255873
-0.0175445
-0.0118704
-0.00821095
-0.00548826
-0.00368829
-0.00234116
-0.00244053
-0.00410896
-0.00859345
-0.0162188
-0.0272212
-0.0417126
-0.0564653
-0.070967
-0.0781577
-0.0793458
-0.0709078
-0.0575919
-0.0425903
-0.0257335
-0.0147194
-0.00210481
0.00223228
0.00712949
0.00543578
-0.0800765
-0.0627025
-0.0490718
-0.0386383
-0.0308697
-0.0254119
-0.0220507
-0.0204973
-0.0202215
-0.0204916
-0.0205945
-0.0200895
-0.0189006
-0.0175629
-0.0167163
-0.0170644
-0.0192001
-0.0236901
-0.03121
-0.0424539
-0.0577819
-0.0765978
-0.0969213
-0.11528
-0.127687
-0.130932
-0.123953
-0.108805
-0.0892057
-0.0690955
-0.0510427
-0.0362242
-0.0246026
-0.0161312
-0.0100686
-0.00609888
-0.00314264
-0.00123206
0.000123769
-9.892e-05
-0.00199417
-0.00682121
-0.0149236
-0.0265035
-0.0417336
-0.057221
-0.0724989
-0.0801584
-0.0816677
-0.0728738
-0.0590747
-0.0435543
-0.0261167
-0.014748
-0.00171722
0.00274511
0.00763054
0.005831
-0.0795921
-0.0619055
-0.0479533
-0.0372012
-0.0291084
-0.0232997
-0.0195496
-0.0175886
-0.0169331
-0.0169086
-0.0168462
-0.0163244
-0.0152776
-0.014172
-0.0135813
-0.0141786
-0.0165477
-0.0212633
-0.0290188
-0.0405316
-0.0561957
-0.0754479
-0.0963234
-0.115317
-0.128355
-0.13209
-0.125383
-0.110187
-0.0902443
-0.0696246
-0.0510235
-0.0357017
-0.0236276
-0.0147576
-0.00833391
-0.00407618
-0.000900631
0.00111908
0.00249435
0.00217099
7.92059e-05
-0.00505229
-0.0135923
-0.02571
-0.0416432
-0.0578396
-0.0738769
-0.0820053
-0.083775
-0.0747146
-0.0604506
-0.0444375
-0.0264475
-0.0147519
-0.00133842
0.00323708
0.00809355
0.00620302
-0.0790234
-0.0610718
-0.0468339
-0.0357924
-0.0274027
-0.0212718
-0.0171634
-0.0148249
-0.0138154
-0.0135133
-0.0132909
-0.0127458
-0.0118161
-0.0109108
-0.0105389
-0.0113466
-0.0139076
-0.0188036
-0.0267433
-0.0384666
-0.0544024
-0.0740253
-0.0953955
-0.114987
-0.128648
-0.1329
-0.126519
-0.111341
-0.0911246
-0.0700537
-0.050949
-0.0351595
-0.0226643
-0.0134249
-0.00666698
-0.00214294
0.00123777
0.00336456
0.0047692
0.00436653
0.00210759
-0.00329026
-0.0122275
-0.0248417
-0.0414397
-0.0583164
-0.0750929
-0.0836882
-0.0856773
-0.076422
-0.0617152
-0.0452374
-0.0267252
-0.0147306
-0.000969022
0.00370793
0.0085181
0.00655167
-0.0783743
-0.0602061
-0.0457185
-0.0344167
-0.0257566
-0.019331
-0.0148931
-0.0122057
-0.010867
-0.0103038
-0.00992627
-0.00935505
-0.00851832
-0.00778194
-0.00759443
-0.0085759
-0.0112896
-0.0163221
-0.0243957
-0.0362712
-0.0524133
-0.0723395
-0.094144
-0.114293
-0.128563
-0.133363
-0.127354
-0.112262
-0.0918421
-0.0703812
-0.0508199
-0.0345993
-0.0217142
-0.0121341
-0.00506795
-0.000298729
0.00327299
0.00550438
0.00694736
0.00648534
0.00408755
-0.00153875
-0.0108325
-0.0239001
-0.0411219
-0.0586472
-0.0761398
-0.0851984
-0.0874072
-0.0779886
-0.0628643
-0.0459518
-0.0269494
-0.0146841
-0.000609529
0.00415752
0.0089039
0.00687686
-0.0593124
-0.0446113
-0.033078
-0.0241734
-0.0174792
-0.012739
-0.00972932
-0.00808508
-0.00727709
-0.00675064
-0.0061495
-0.00538277
-0.0047874
-0.00475239
-0.00587374
-0.00870301
-0.01383
-0.0219886
-0.0339586
-0.0502416
-0.0704025
-0.0925782
-0.113239
-0.128105
-0.133477
-0.127883
-0.112944
-0.092393
-0.0706057
-0.0506369
-0.0340227
-0.0207788
-0.0108858
-0.00353661
0.00145729
0.00520583
0.00753905
0.0090284
0.00852533
0.00601585
0.000198602
-0.00941036
-0.0228871
-0.0406892
-0.0588291
-0.077011
-0.0865276
-0.0889639
-0.0794084
-0.0638942
-0.0465788
-0.0271197
-0.0146122
-0.000260398
0.0045858
0.00925083
0.00717861
-0.0583954
-0.0435166
-0.0317802
-0.0226561
-0.0157181
-0.0107007
-0.00739362
-0.00546612
-0.00442939
-0.00376069
-0.00312246
-0.00240764
-0.00192831
-0.00201658
-0.00324659
-0.0061568
-0.0113386
-0.0195349
-0.0315432
-0.047902
-0.0682282
-0.0907102
-0.111836
-0.127278
-0.133236
-0.128101
-0.113383
-0.092774
-0.070726
-0.050401
-0.0334315
-0.0198596
-0.0096806
-0.00207249
0.00312626
0.00703741
0.00946924
0.0110124
0.0104847
0.00788947
0.00191817
-0.00796465
-0.0218052
-0.040142
-0.0588595
-0.077701
-0.0876689
-0.0903421
-0.080675
-0.0648014
-0.0471168
-0.0272359
-0.0145149
7.79658e-05
0.0049928
0.00955892
0.00745699
-0.0574602
-0.0424393
-0.0305274
-0.0212077
-0.0140493
-0.00877812
-0.00519607
-0.00300593
-0.00175619
-0.00095235
-0.000270157
0.000408248
0.000794889
0.000609977
-0.000700201
-0.0036594
-0.00885869
-0.0170477
-0.0290399
-0.0454107
-0.0658328
-0.0885548
-0.110094
-0.126091
-0.132641
-0.128009
-0.113577
-0.0929826
-0.0707413
-0.0501129
-0.0328272
-0.018958
-0.00851891
-0.000674909
0.00470957
0.00876915
0.0112957
0.0128995
0.0123619
0.00970556
0.00361635
-0.00649905
-0.0206573
-0.039481
-0.0587371
-0.0782054
-0.0886157
-0.091532
-0.0817828
-0.0655828
-0.0475645
-0.0272983
-0.0143922
0.000405207
0.00537863
0.00982836
0.00771216
-0.0565077
-0.0413802
-0.0293199
-0.0198282
-0.0124716
-0.00696863
-0.0031321
-0.000698244
0.000748963
0.00167978
0.00240975
0.00306522
0.00338216
0.00312486
0.00176031
-0.00121866
-0.00640089
-0.0145404
-0.0264643
-0.0427848
-0.0632342
-0.086129
-0.108029
-0.124553
-0.1317
-0.127606
-0.113522
-0.0930161
-0.0706498
-0.0497721
-0.0322101
-0.0180739
-0.0074
0.000657824
0.00620947
0.0104032
0.0130192
0.0146905
0.0141554
0.0114615
0.00528955
-0.00501743
-0.0194468
-0.0387079
-0.0584615
-0.0785206
-0.0893636
-0.0925247
-0.0827257
-0.0662356
-0.0479206
-0.0273069
-0.0142441
0.000721125
0.00574353
0.0100595
0.00794436
-0.0555263
-0.0403281
-0.0281478
-0.0185086
-0.0109772
-0.00526429
-0.0011927
0.0014676
0.00309718
0.00414544
0.0049226
0.00556642
0.00583458
0.00552643
0.00413054
0.00115823
-0.00397531
-0.0120259
-0.0238322
-0.0400425
-0.0604517
-0.0834519
-0.105657
-0.122679
-0.13042
-0.126896
-0.113219
-0.0928721
-0.070448
-0.0493752
-0.0315771
-0.0172047
-0.00632088
0.00192935
0.0076301
0.0119434
0.0146414
0.0163867
0.0158642
0.0131548
0.00693424
-0.00352384
-0.0181774
-0.0378249
-0.0580332
-0.0786444
-0.0899087
-0.0933187
-0.0834993
-0.0667574
-0.0481838
-0.0272617
-0.0140704
0.00102578
0.00608799
0.0102531
0.00815393
-0.0545073
-0.0392749
-0.0270039
-0.0172426
-0.00956006
-0.00365959
0.000628286
0.00349985
0.00529912
0.00645629
0.00727783
0.00790271
0.008157
0.00781519
0.00640787
0.00346531
-0.00159129
-0.00951693
-0.0211594
-0.0372024
-0.0575059
-0.0805446
-0.102998
-0.120484
-0.128814
-0.125887
-0.112672
-0.0925515
-0.0701353
-0.0489216
-0.0309282
-0.0163502
-0.00528058
0.00314183
0.00897487
0.013394
0.0161658
0.0179912
0.0174881
0.0147839
0.00854714
-0.00202242
-0.0168535
-0.0368352
-0.0574539
-0.078576
-0.0902474
-0.0939089
-0.084102
-0.0671468
-0.0483536
-0.0271634
-0.0138716
0.0013191
0.00641239
0.0104099
0.00834129
-0.0535184
-0.0382835
-0.0259422
-0.0160751
-0.00825688
-0.00218421
0.00230648
0.00537846
0.00733873
0.00860071
0.00947074
0.00994643
0.0103506
0.00999015
0.00859027
0.00569832
0.000743693
-0.00702479
-0.0184613
-0.0342834
-0.0544181
-0.0774296
-0.100073
-0.117986
-0.126899
-0.124596
-0.111888
-0.0920631
-0.0697283
-0.0484337
-0.0302864
-0.0155302
-0.0042949
0.00428341
0.010235
0.0147487
0.0175889
0.0195055
0.0190254
0.0163471
0.0101254
-0.000517082
-0.0154795
-0.0357423
-0.056726
-0.0783149
-0.0903781
-0.0942947
-0.08453
-0.0674039
-0.0484333
-0.0270153
-0.0136511
0.00159937
0.00671592
0.0105302
0.00850684
-0.052708
-0.0374925
-0.0250817
-0.0151046
-0.00714784
-0.000901857
0.00379136
0.00705973
0.00917093
0.0105279
0.0114555
0.0120297
0.0123862
0.0120257
0.0106591
0.00784318
0.00301773
-0.00456125
-0.0157514
-0.0313018
-0.0512074
-0.0741257
-0.0968955
-0.115181
-0.124646
-0.122996
-0.110846
-0.0914126
-0.0692567
-0.0479535
-0.0296955
-0.014783
-0.0033948
0.00532942
0.0113885
0.0159856
0.0188881
0.0209183
0.0204617
0.0178351
0.011663
0.000987645
-0.0140594
-0.0345487
-0.0558498
-0.0778564
-0.0902907
-0.0944653
-0.0847747
-0.0675288
-0.0484286
-0.0268237
-0.0134154
0.00186328
0.00699643
0.0106131
0.00865069
-0.0518852
-0.0367248
-0.0242647
-0.014194
-0.00611406
0.000294134
0.00518559
0.00864647
0.0108911
0.0123082
0.0132526
0.0138862
0.0142199
0.0138857
0.0125758
0.00986054
0.00519288
-0.00216085
-0.0130584
-0.0282801
-0.0478897
-0.0706388
-0.0934518
-0.112032
-0.122001
-0.120962
-0.109495
-0.0905583
-0.0686667
-0.0474165
-0.0290903
-0.0140502
-0.00252893
0.00632547
0.0124755
0.0171347
0.0200733
0.0221796
0.0217842
0.0192311
0.0131441
0.00247966
-0.0126009
-0.0332572
-0.0548232
-0.0771928
-0.089974
-0.0943977
-0.0848299
-0.0675155
-0.0483296
-0.0265822
-0.0131558
0.00211507
0.00725835
0.0106606
0.00877363
-0.0499344
-0.0349398
-0.0225787
-0.012562
-0.0044943
0.00196128
0.00697365
0.0106003
0.0129851
0.0144615
0.015376
0.015906
0.0161654
0.0158096
0.0145042
0.0118487
0.00730957
0.000162632
-0.0104467
-0.0253213
-0.0445927
-0.0671241
-0.0899571
-0.10886
-0.119366
-0.118802
-0.107985
-0.0894178
-0.0676838
-0.0464548
-0.0280916
-0.0129932
-0.00140773
0.00752201
0.0137325
0.0184288
0.0213681
0.0229918
0.0231189
0.0206175
0.0146008
0.00395467
-0.0111343
-0.0319157
-0.0537152
-0.0764166
-0.0895457
-0.0941915
-0.084736
-0.0673498
-0.0480816
-0.0262459
-0.0128191
0.00238271
0.00752658
0.0106899
0.00888017
)
;

boundaryField
{
    inlet
    {
        type            zeroGradient;
    }
    outlet
    {
        type            fixedValue;
        value           uniform 0;
    }
    cylinder
    {
        type            zeroGradient;
    }
    top
    {
        type            symmetryPlane;
    }
    bottom
    {
        type            symmetryPlane;
    }
    defaultFaces
    {
        type            empty;
    }
    procBoundary7to3
    {
        type            processor;
        value           nonuniform List<scalar> 
57
(
-0.016291
-0.00646886
0.00168031
0.008433
0.0140369
0.0186332
0.022244
0.0248615
0.0265712
0.0275536
0.0279709
0.0278667
0.0271914
0.0257647
0.0232695
0.0192347
0.0129813
0.0129813
0.00634891
-0.00618878
-0.0226211
-0.0421671
-0.0624491
-0.0798363
-0.0903038
-0.0913126
-0.0827482
-0.0673534
-0.0489183
-0.0306215
-0.0146003
-0.00127911
0.00907179
0.0171849
0.0229041
0.0272154
0.0298504
0.0315019
0.0314196
0.0291669
0.0237311
0.0136709
-0.000707171
-0.0211254
-0.0428473
-0.0657249
-0.0796488
-0.0846237
-0.0763061
-0.0594977
-0.0413249
-0.0210644
-0.00862793
0.00430915
0.00908142
0.0100713
0.00869969
)
;
    }
    procBoundary7to6
    {
        type            processor;
        value           nonuniform List<scalar> 
36
(
-0.046347
-0.046347
-0.0419208
-0.0374099
-0.03276
-0.0829238
-0.0853147
-0.0875483
-0.0896207
-0.0915288
-0.0932702
-0.0948436
-0.0962482
-0.0974838
-0.0985509
-0.0994504
-0.100183
-0.100752
-0.101157
-0.101402
-0.101489
-0.101419
-0.101196
-0.100821
-0.100298
-0.0776482
-0.0776482
-0.0768492
-0.0759817
-0.0750465
-0.0740324
-0.0729323
-0.07181
-0.0707995
-0.0697063
-0.0674854
)
;
    }
    procBoundary7to11
    {
        type            processor;
        value           nonuniform List<scalar> 
59
(
-0.070644
-0.0638618
-0.0599324
-0.0587988
-0.0606517
-0.0657562
-0.0739737
-0.0843288
-0.0949252
-0.103311
-0.10721
-0.105389
-0.0982829
-0.0877257
-0.076175
-0.0657067
-0.0574718
-0.0518673
-0.0490337
-0.0491179
-0.0521011
-0.0574559
-0.0639301
-0.0696682
-0.0727592
-0.0719842
-0.0675034
-0.0606014
-0.0530995
-0.046543
-0.0418453
-0.039556
-0.0398798
-0.0426645
-0.0470963
-0.0516661
-0.0547114
-0.0547822
-0.0517235
-0.0463697
-0.0401859
-0.0347425
-0.0307053
-0.0291057
-0.029413
-0.0313487
-0.0333136
-0.0340403
-0.0325417
-0.0289766
-0.0235685
-0.0187109
-0.0145161
-0.0145161
-0.0115257
-0.00836806
-0.00747567
-0.0042474
-0.00292907
)
;
    }
}


// ************************************************************************* //
