/*--------------------------------*- C++ -*----------------------------------*\
  =========                 |
  \\      /  F ield         | OpenFOAM: The Open Source CFD Toolbox
   \\    /   O peration     | Website:  https://openfoam.org
    \\  /    A nd           | Version:  7
     \\/     M anipulation  |
\*---------------------------------------------------------------------------*/
FoamFile
{
    version     2.0;
    format      ascii;
    class       surfaceScalarField;
    location    "100";
    object      phi;
}
// * * * * * * * * * * * * * * * * * * * * * * * * * * * * * * * * * * * * * //

dimensions      [0 3 -1 0 0 0 0];

internalField   nonuniform List<scalar> 
3877
(
-0.000197535
0.00328056
-4.77579e-05
0.00304403
0.000115847
0.00269211
0.000289089
0.00222767
0.000467661
0.00166003
0.000647427
0.00100177
0.000826303
0.000268563
0.00100292
-0.000521467
0.00117665
-0.0013457
0.00134664
-0.00217313
0.00151029
-0.0029656
0.00166316
-0.00368101
0.00179953
-0.00428211
0.00191365
-0.00474577
0.0020011
-0.00506821
0.00205936
-0.005264
0.00208734
-0.00536058
0.00208383
-0.00539314
0.00204676
-0.00540242
0.00197559
-0.00542972
0.001877
-0.00549913
0.00176929
-0.00559001
0.00168005
-0.0056219
0.00163564
-0.00547504
0.00164953
-0.0050443
0.00171916
-0.00428913
0.00183274
-0.00323972
0.00197713
-0.00196793
0.00214105
-0.0005622
0.00231452
0.000879873
0.00248738
0.00225298
0.00264873
0.00345674
0.00278848
0.0044194
0.00289971
0.00511524
0.00297985
0.00556467
0.00302996
0.00581944
0.00305352
0.00594148
0.00305536
0.00598315
0.00303922
0.00598218
0.00300439
0.00597854
0.00294585
0.00602826
0.00286053
0.00617564
0.00275503
0.0063905
0.00264703
0.0065324
0.00255809
0.00639259
0.00250432
0.00579354
0.00249273
0.00467068
0.00252319
0.00308829
0.00259094
0.00120846
0.00268694
-0.000751972
0.00279838
-0.00257255
0.00291074
-0.00408149
0.00301103
-0.00519528
0.00308996
-0.0059241
0.00314314
-0.00634499
-0.00655391
-0.000512783
0.00310441
-0.000417047
0.00324507
-0.000304795
0.00330623
-0.000175773
0.00327361
-3.01598e-05
0.00313495
0.000127881
0.00288599
0.000296265
0.00252373
0.000470417
0.00205352
0.000646165
0.00148429
0.000820201
0.000827735
0.000990865
9.78989e-05
0.00115738
-0.000687984
0.00131961
-0.00150793
0.00147695
-0.00233047
0.00162709
-0.00311573
0.0017658
-0.00381973
0.00188768
-0.00440398
0.00198742
-0.00484551
0.00206116
-0.00514195
0.00210699
-0.00530983
0.00212448
-0.00537807
0.00211306
-0.00538172
0.00207062
-0.00535998
0.00199504
-0.00535413
0.00188981
-0.0053939
0.00177009
-0.00547029
0.00166267
-0.00551448
0.00159681
-0.00540918
0.00159096
-0.00503844
0.00164636
-0.00434454
0.00175238
-0.00334573
0.00189532
-0.00211086
0.00206281
-0.000729694
0.00224367
0.000699009
0.00242651
0.00207014
0.00259943
0.00328383
0.00275145
0.00426738
0.00287485
0.00499184
0.00296632
0.00547319
0.00302648
0.00575928
0.00305876
0.0059092
0.00306813
0.00597378
0.00305829
0.00599202
0.00302844
0.00600839
0.00297399
0.0060827
0.00289305
0.00625658
0.00279321
0.00649034
0.00269183
0.00663378
0.00260876
0.00647566
0.00255819
0.00584411
0.0025461
0.00468277
0.00257247
0.00306193
0.00263336
0.00114757
0.00272081
-0.000839422
0.00282307
-0.00267481
0.00292636
-0.00418478
0.00301821
-0.00528714
0.00308974
-0.00599562
0.00313656
-0.0063918
-0.00657682
-0.000377949
-0.000267728
0.00313485
-0.000141638
0.00318014
-1.62836e-07
0.00313213
0.000153216
0.00298157
0.000317416
0.00272178
0.000487934
0.00235321
0.000660626
0.00188083
0.000831774
0.00131314
0.000998718
0.000660791
0.00116006
-6.34448e-05
0.00131569
-0.000843609
0.00146571
-0.00165795
0.00160978
-0.00247453
0.00174579
-0.00325174
0.00186974
-0.00394368
0.00197656
-0.0045108
0.00206145
-0.0049304
0.00212115
-0.00520166
0.00215439
-0.00534306
0.00216133
-0.00538501
0.00214206
-0.00536246
0.00209473
-0.00531265
0.00201607
-0.00527548
0.00190659
-0.00528441
0.00177775
-0.00534145
0.00165444
-0.00539118
0.00156783
-0.00532257
0.00154133
-0.00501194
0.00158085
-0.00438406
0.0016776
-0.00344248
0.00181751
-0.00225077
0.00198718
-0.000899363
0.00217422
0.000511969
0.00236605
0.00187832
0.00254978
0.00310009
0.00271357
0.00410359
0.00284886
0.00485654
0.00295161
0.00537044
0.00302194
0.00568895
0.00306319
0.00586794
0.00308042
0.00595655
0.00307721
0.00599523
0.00305272
0.00603288
0.00300299
0.00613244
0.00292723
0.00633234
0.00283379
0.00658378
0.00273944
0.00672813
0.00266224
0.00655286
0.00261458
0.00589177
0.00260156
0.00469579
0.00262331
0.00304018
0.00267677
0.0010941
0.00275515
-0.000917796
0.00284779
-0.00276746
0.00294169
-0.00427868
0.00302492
-0.00537037
0.00308897
-0.00605967
0.00312948
-0.00643231
-0.00659428
-9.69107e-05
0.00301224
4.00105e-05
0.00304321
0.00018959
0.00298255
0.000349883
0.00282127
0.000517131
0.00255454
0.000687398
0.00218295
0.000856758
0.00171147
0.00102191
0.00114798
0.00118067
0.000502035
0.00133203
-0.000214808
0.00147618
-0.000987753
0.00161356
-0.00179533
0.00174397
-0.00260494
0.00186545
-0.00337322
0.00197421
-0.00405245
0.00206555
-0.00460213
0.00213524
-0.0050001
0.00218072
-0.00524713
0.00220131
-0.00536365
0.00219775
-0.00538145
0.00217072
-0.00533543
0.00211882
-0.00526076
0.00203816
-0.00519482
0.00192659
-0.00517285
0.00179159
-0.00520645
0.00165513
-0.00525472
0.00154906
-0.00521649
0.00150137
-0.00496425
0.00152336
-0.00440605
0.00160902
-0.00352814
0.00174427
-0.00238603
0.00191453
-0.00106962
0.00210647
0.000320024
0.00230618
0.0016786
0.00249989
0.00290638
0.00267487
0.00392861
0.00282173
0.00470969
0.00293563
0.00525654
0.00301621
0.00560837
0.00306669
0.00581747
0.00309205
0.00593119
0.00309578
0.0059915
0.00307708
0.00605158
0.00303266
0.00617686
0.00296284
0.00640216
0.00287649
0.00667014
0.00278953
0.00681509
0.00271821
0.00662418
0.00267321
0.00593677
0.00265887
0.00471012
0.00267553
0.00302352
0.00272109
0.00104855
0.0027899
-0.000986611
0.00287254
-0.0028501
0.00295678
-0.00436291
0.00303121
-0.0054448
0.00308771
-0.00611617
0.00312197
-0.00646657
-0.00660643
9.00924e-05
0.00287944
0.000235499
0.00289781
0.000391548
0.0028265
0.000555421
0.0026574
0.000723373
0.00238658
0.000891456
0.00201486
0.001056
0.00154693
0.00121408
0.000989901
0.00136389
0.00035223
0.00150481
-0.000355728
0.0016372
-0.00112014
0.00176176
-0.0019199
0.00187837
-0.00272155
0.00198512
-0.00347998
0.00207843
-0.00414575
0.002154
-0.0046777
0.00220828
-0.00505438
0.00223943
-0.00527828
0.00224744
-0.00537166
0.00223354
-0.00536754
0.0021989
-0.0053008
0.00214268
-0.00520453
0.0020608
-0.00511293
0.00194901
-0.00506106
0.00181078
-0.00506822
0.00166425
-0.00510819
0.00154062
-0.00509286
0.00147168
-0.00489531
0.00147461
-0.00440898
0.00154722
-0.00360075
0.00167599
-0.0025148
0.0018453
-0.00123893
0.00204071
0.000124611
0.00224711
0.0014722
0.00244986
0.00270363
0.00263537
0.0037431
0.00279338
0.00455168
0.00291828
0.00513163
0.00300918
0.00551748
0.00306907
0.00575757
0.00310286
0.0058974
0.00311383
0.00598053
0.00310132
0.00606409
0.00306281
0.00621537
0.00299964
0.00646532
0.00292096
0.00674881
0.0028417
0.00689435
0.00277626
0.00668962
0.00273373
0.0059793
0.00271778
0.00472608
0.00272896
0.00301235
0.00276617
0.00101134
0.00282501
-0.00104545
0.0028973
-0.00292239
0.00297163
-0.00443724
0.00303711
-0.00551028
0.00308599
-0.00616505
0.00311406
-0.00649464
-0.00661344
0.000289082
0.00273886
0.000440635
0.00274625
0.000600663
0.00266647
0.000765944
0.00249212
0.000932688
0.00221984
0.00109706
0.00185049
0.00125564
0.00138834
0.00140586
0.000839681
0.00154623
0.000211863
0.00167653
-0.000486023
0.00179717
-0.00124078
0.001909
-0.00203173
0.00201186
-0.00282442
0.00210387
-0.00357199
0.00218159
-0.00422348
0.00224125
-0.00473735
0.00228001
-0.00509315
0.00229686
-0.00529512
0.00229245
-0.00536725
0.00226846
-0.00534355
0.00222646
-0.0052588
0.00216612
-0.00514419
0.00208355
-0.00503036
0.00197306
-0.00495056
0.00183433
-0.0049295
0.00168105
-0.00495491
0.00154237
-0.00495418
0.00145272
-0.00480567
0.00143526
-0.00439152
0.00149277
-0.00365825
0.00161313
-0.00263516
0.00177974
-0.00140554
0.00197719
-7.28366e-05
0.00218899
0.0012604
0.00239977
0.00249285
0.00259506
0.00354781
0.00276376
0.00438298
0.00289945
0.00499594
0.00300069
0.00541625
0.00307018
0.00568807
0.00311262
0.00585497
0.00313111
0.00596205
0.00312519
0.00607001
0.00309317
0.0062474
0.0030373
0.00652119
0.00296683
0.00681928
0.00289553
0.00696565
0.00283598
0.00674917
0.00279577
0.00601951
0.00277797
0.00474388
0.00278342
0.00300689
0.00281183
0.000982927
0.00286039
-0.00109401
0.00292203
-0.00298403
0.00298624
-0.00450145
0.00304264
-0.00556668
0.00308386
-0.00620628
0.00310579
-0.00651657
-0.00661548
0.000495278
0.00259238
0.000650941
0.00259059
0.000812931
0.00250448
0.00097782
0.00232723
0.00114184
0.00205582
0.00130132
0.00169101
0.00145311
0.00123655
0.00159493
0.000697864
0.00172576
8.10385e-05
0.00184549
-0.000605752
0.00195463
-0.00134993
0.00205404
-0.00213114
0.00214342
-0.00291379
0.00222078
-0.00364935
0.00228291
-0.00428562
0.00232661
-0.00478105
0.00234988
-0.00511642
0.00235256
-0.0052978
0.00233599
-0.00535068
0.00230226
-0.00530983
0.00225321
-0.00520975
0.00218896
-0.00507994
0.00210605
-0.00494746
0.00199797
-0.00484248
0.00186118
-0.00479271
0.00170454
-0.00479827
0.00155387
-0.0048035
0.00144475
-0.00469655
0.00140596
-0.00435273
0.00144626
-0.00369855
0.00155606
-0.00274496
0.00171826
-0.00156774
0.00191601
-0.000270582
0.00213194
0.00104447
0.00234967
0.00227512
0.00255393
0.00334355
0.00273279
0.00420413
0.00287901
0.00484971
0.00299057
0.00530469
0.00306981
0.00560883
0.00312111
0.00580367
0.00314738
0.00593577
0.00314844
0.00606895
0.00312344
0.0062724
0.00307546
0.00656917
0.00301365
0.00688109
0.00295054
0.00702877
0.0028969
0.00680281
0.00285893
0.00605748
0.00283913
0.00476368
0.00283853
0.0030075
0.00285801
0.000963442
0.00289593
-0.00113193
0.00294668
-0.00303478
0.0030006
-0.00455537
0.00304782
-0.0056139
0.00308134
-0.00623979
0.00309718
-0.00653241
-0.0066127
0.000704363
0.00244174
0.000862362
0.00243259
0.00102465
0.0023422
0.0011877
0.00216418
0.00134784
0.00189569
0.00150159
0.00153726
0.00164605
0.00109209
0.00177906
0.000564861
0.00190085
-4.07588e-05
0.00201018
-0.000715082
0.00210832
-0.00144806
0.00219581
-0.00221862
0.00227206
-0.00299004
0.00233499
-0.00371227
0.00238163
-0.00433226
0.00240943
-0.00480886
0.00241734
-0.00512433
0.00240607
-0.00528653
0.00237769
-0.0053223
0.00233466
-0.0052668
0.00227896
-0.00515405
0.00221103
-0.005012
0.00212797
-0.0048644
0.00202306
-0.00473757
0.00189023
-0.00465988
0.00173354
-0.00464158
0.00157434
-0.0046443
0.00144774
-0.00456995
0.00138725
-0.00429224
0.0014083
-0.0037196
0.00150521
-0.00284187
0.00166116
-0.00172368
0.00185725
-0.000466674
0.00207608
0.000825644
0.00229959
0.00205161
0.00251195
0.00313119
0.00270037
0.00401571
0.00285683
0.00469325
0.00297866
0.00518287
0.00306775
0.00551974
0.00312809
0.00574333
0.00316238
0.00590148
0.00317078
0.00606054
0.0031533
0.00628988
0.00311372
0.00660875
0.00306097
0.00693384
0.00300622
0.00708351
0.00295854
0.0068505
0.00292277
0.00609324
0.00290086
0.00478559
0.00289418
0.00301417
0.00290436
0.00095327
0.00293153
-0.0011591
0.00297119
-0.00307444
0.00301468
-0.00459887
0.00305265
-0.00565187
0.00307843
-0.00626557
0.00308823
-0.0065422
-0.00660526
0.000912354
0.0022885
0.00107121
0.00227373
0.00123246
0.00218095
0.00139258
0.00200406
0.00154801
0.00174026
0.0016955
0.00138976
0.00183245
0.000955137
0.00195689
0.000440426
0.00206964
-0.000153516
0.00216936
-0.000814799
0.00225718
-0.00153588
0.00233336
-0.0022948
0.00239694
-0.00305362
0.00244569
-0.00376103
0.00247699
-0.00436356
0.00248906
-0.00482093
0.00248183
-0.00511709
0.00245697
-0.00526167
0.00241722
-0.00528255
0.00236538
-0.00521495
0.0023035
-0.00509217
0.00223216
-0.00494067
0.00214906
-0.0047813
0.00204774
-0.00463625
0.00192041
-0.00453255
0.00176669
-0.00448786
0.00160272
-0.00448033
0.00146139
-0.00442863
0.00137954
-0.00421039
0.00137955
-0.00371961
0.00146106
-0.00292338
0.00160836
-0.00187098
0.00180137
-0.000659688
0.00202147
0.000605541
0.00224957
0.00182351
0.00246909
0.00291167
0.00266643
0.00381836
0.00283277
0.00452691
0.00296476
0.00505088
0.00306377
0.00542074
0.00313328
0.00567381
0.00317582
0.00585894
0.00319191
0.00604446
0.00318238
0.00629941
0.00315165
0.00663949
0.00310826
0.00697723
0.00306205
0.00712972
0.00302038
0.00689218
0.00298682
0.0061268
0.0029628
0.00480962
0.00294989
0.00302707
0.00295082
0.000952347
0.00296703
-0.00117531
0.00299547
-0.00310288
0.00302845
-0.00463184
0.00305711
-0.00568054
0.00307515
-0.00628361
0.00307895
-0.00654601
-0.0065933
0.00111572
0.00213398
0.00127423
0.00211523
0.00143343
0.00202174
0.00158984
0.00184765
0.00174005
0.00159005
0.00188108
0.00124873
0.00201067
0.000825553
0.00212686
0.000324229
0.0022312
-0.000257857
0.0023221
-0.000905696
0.0024004
-0.00161418
0.00246593
-0.00236033
0.00251729
-0.00310498
0.00255215
-0.00379589
0.0025683
-0.00437971
0.00256486
-0.00481748
0.00254282
-0.00509505
0.00250483
-0.00522368
0.00245425
-0.00523197
0.00239416
-0.00515486
0.0023266
-0.00502461
0.0022522
-0.00486626
0.00216911
-0.00469821
0.0020715
-0.00453864
0.00195072
-0.00441177
0.0018026
-0.00433973
0.00163765
-0.00431539
0.001485
-0.00427598
0.00138302
-0.00410841
0.00136065
-0.00369725
0.00142416
-0.00298689
0.00156034
-0.00200716
0.00174831
-0.00084766
0.0019682
0.000385657
0.00219961
0.0015921
0.0024253
0.00268598
0.00263087
0.00361279
0.00280669
0.00435109
0.00294871
0.00490886
0.00305763
0.00531181
0.00313643
0.00559502
0.00318741
0.00580796
0.00321148
0.00602039
0.0032103
0.00630059
0.00318878
0.00666101
0.00315503
0.00701098
0.00311748
0.00716726
0.00308189
0.00692777
0.00305061
0.00615807
0.00302451
0.00483573
0.00300542
0.00304616
0.00299705
0.00096071
0.00300227
-0.00118054
0.00301944
-0.00312005
0.00304183
-0.00465424
0.00306118
-0.00569989
0.00307147
-0.00629389
0.00306932
-0.00654385
-0.00657696
0.0013115
0.00197926
0.00146871
0.00195802
0.00162512
0.00186533
0.00177733
0.00169543
0.00192213
0.00144525
0.00205677
0.00111409
0.00217941
0.000702914
0.00228798
0.000215662
0.00238476
-0.000354638
0.00246772
-0.000988659
0.00253733
-0.00168379
0.00259284
-0.00241584
0.00263238
-0.00314452
0.0026536
-0.0038171
0.00265484
-0.00438096
0.00263621
-0.00479885
0.00259983
-0.00505867
0.00254927
-0.00517311
0.00248847
-0.00517118
0.00242073
-0.00508712
0.00234804
-0.00495193
0.00227095
-0.00478917
0.00218795
-0.00461521
0.00209399
-0.00444468
0.0019803
-0.00429808
0.00183983
-0.00419927
0.00167757
-0.00415312
0.00151752
-0.00411593
0.00139759
-0.00398848
0.00135222
-0.00365187
0.00139519
-0.00302986
0.00151751
-0.00212949
0.00169824
-0.00102839
0.0019163
0.000167597
0.00214969
0.00135871
0.00238053
0.00245514
0.00259359
0.00339974
0.00277845
0.00416623
0.00293029
0.00475702
0.00304911
0.00519299
0.00313725
0.00550687
0.00319682
0.0057484
0.00322915
0.00598806
0.00323665
0.00629308
0.00322465
0.00667301
0.00320072
0.00703491
0.00317196
0.00719602
0.00314254
0.0069572
0.00311364
0.00618697
0.00308557
0.0048638
0.0030604
0.00307133
0.00304283
0.000978283
0.00303709
-0.0011748
0.00304297
-0.00312592
0.00305478
-0.00466605
0.00306482
-0.00570993
0.00306738
-0.00629646
0.00305933
-0.00653579
-0.00655639
0.00149751
0.00182528
0.00165267
0.00180287
0.00180578
0.00171222
0.00195358
0.00154764
0.00209301
0.00130581
0.00222157
0.000985536
0.00233788
0.000586607
0.0024398
0.000113735
0.00252993
-0.000444761
0.00260583
-0.00106456
0.00266748
-0.00174544
0.00271347
-0.00246184
0.00274151
-0.00317256
0.00274932
-0.00382491
0.00273594
-0.00436758
0.00270255
-0.00476546
0.00265239
-0.00500851
0.00258992
-0.00511065
0.0025196
-0.00510086
0.00244486
-0.00501238
0.00236761
-0.00487468
0.00228823
-0.00470979
0.00220541
-0.00453239
0.0021149
-0.00435417
0.00200842
-0.00419161
0.00187707
-0.00406791
0.00172076
-0.00399682
0.00155753
-0.00395269
0.00142276
-0.00385371
0.00135469
-0.00358381
0.00137494
-0.0030501
0.00148041
-0.00223496
0.00165143
-0.00119941
0.00186587
-4.68397e-05
0.00209982
0.00112476
0.00233474
0.00222021
0.0025545
0.00317998
0.0027479
0.00397283
0.00290932
0.00459561
0.00303794
0.00506437
0.00313546
0.00540935
0.00320376
0.0056801
0.00324456
0.00594726
0.00326102
0.00627662
0.00325877
0.00667526
0.00324482
0.00704886
0.00322492
0.00721591
0.00320177
0.00698035
0.0031754
0.00621334
0.00314555
0.00489365
0.00311446
0.00310242
0.00308787
0.00100488
0.00307129
-0.00115823
0.00306596
-0.00312059
0.00306721
-0.0046673
0.00306798
-0.0057107
0.00306286
-0.00629134
0.00304894
-0.00652187
-0.00653169
0.00167251
0.00182504
0.00165034
0.00197455
0.00156271
0.00211791
0.00140428
0.00225226
0.00117147
0.00237522
0.000862575
0.00248561
0.000476213
0.00258273
1.66164e-05
0.00266677
-0.000528802
0.00273634
-0.00113413
0.00279057
-0.00179967
0.00282738
-0.00249864
0.00284409
-0.00318928
0.00283868
-0.0038195
0.00281101
-0.0043399
0.00276336
-0.00471782
0.0027001
-0.00494526
0.00262649
-0.00503704
0.0025474
-0.00502177
0.00246635
-0.00493132
0.00238511
-0.00479343
0.00230385
-0.00462853
0.00222133
-0.00444987
0.00213402
-0.00426686
0.00203454
-0.00409213
0.00191312
-0.0039465
0.00176548
-0.00384917
0.00160329
-0.0037905
0.00145759
-0.00370801
0.00136827
-0.00349448
0.00136422
-0.00304605
0.00144983
-0.00232058
0.00160875
-0.00135833
0.00181652
-0.000254608
0.00204999
0.00089129
0.00228789
0.00198232
0.00251353
0.00295433
0.00271493
0.00377142
0.00288561
0.00442493
0.0030239
0.00492608
0.00313078
0.00530248
0.00320789
0.00560299
0.00325737
0.00589778
0.003283
0.006251
0.00329066
0.0066676
0.00328677
0.00705275
0.00327581
0.00722687
0.00325905
0.00699711
0.0032354
0.00623699
0.00320402
0.00492503
0.00316736
0.00313908
0.00313179
0.00104044
0.00310469
-0.00113112
0.00308827
-0.00310418
0.00307905
-0.00465808
0.00307061
-0.00570225
0.00305787
-0.0062786
0.00303814
-0.00650215
-0.00650298
0.00198589
0.00150098
0.00213157
0.00141702
0.0022706
0.00126525
0.00240024
0.00104182
0.00251825
0.000744565
0.00262266
0.000371804
0.00271769
-7.84069e-05
0.00279561
-0.000606722
0.00285933
-0.00119786
0.00290643
-0.00184677
0.00293414
-0.00252635
0.00293956
-0.0031947
0.00292108
-0.00380102
0.00287947
-0.00429829
0.00281818
-0.00465653
0.0027426
-0.00486967
0.0026587
-0.00495314
0.00257166
-0.00493473
0.00248501
-0.00484467
0.00240034
-0.00470877
0.00231762
-0.00454581
0.00223557
-0.00436782
0.00215121
-0.0041825
0.00205826
-0.00399918
0.00194701
-0.00383525
0.00181004
-0.00371221
0.00165287
-0.00363332
0.00150071
-0.00355585
0.00139274
-0.00338651
0.00136378
-0.0030171
0.00142665
-0.00238344
0.00156996
-0.00150164
0.00176928
-0.000453926
0.00200028
0.000660289
0.00223994
0.00174266
0.00247059
0.00272367
0.0026794
0.00356262
0.00285898
0.00424534
0.00300674
0.00477832
0.00312292
0.0051863
0.00320891
0.00551699
0.0032672
0.00583949
0.00330216
0.00621604
0.00331984
0.00664992
0.00332606
0.00704653
0.00332408
0.00722884
0.00331383
0.00700737
0.00329313
0.00625769
0.00326052
0.00495763
0.0032185
0.00318111
0.00317452
0.00108443
0.00313705
-0.00109365
0.00310978
-0.00307691
0.0030902
-0.00463849
0.00307263
-0.00568469
0.00305235
-0.00625832
0.00302688
-0.00647668
-0.00647036
0.00213654
0.00135545
0.00227814
0.00127543
0.0024129
0.00113049
0.00253823
0.000916491
0.00265208
0.000630713
0.00275255
0.000271335
0.002843
-0.000168863
0.00291672
-0.000680434
0.00297493
-0.00125607
0.00301489
-0.00188674
0.00303333
-0.00254478
0.00302736
-0.00318873
0.00299594
-0.0037696
0.00294084
-0.00424319
0.00286661
-0.0045823
0.00277959
-0.00478265
0.00268633
-0.00485987
0.00259221
-0.00484061
0.00250068
-0.00475314
0.00241315
-0.00462124
0.00232937
-0.00446203
0.00224794
-0.0042864
0.00216632
-0.00410088
0.00207932
-0.00391217
0.00197796
-0.00373388
0.00185293
-0.00358718
0.00170421
-0.0034846
0.00155033
-0.00340198
0.00142742
-0.0032636
0.00137417
-0.00296385
0.00141191
-0.00242118
0.00153614
-0.00162587
0.00172429
-0.000642077
0.00195081
0.000433763
0.00219089
0.00150258
0.00242563
0.00248894
0.0026412
0.00334705
0.00282926
0.00405728
0.00298624
0.00462134
0.00311161
0.00506093
0.00320651
0.00542208
0.00327373
0.00577227
0.00331811
0.00617166
0.00334586
0.00662217
0.00336219
0.0070302
0.00336922
0.00722181
0.00336559
0.007011
0.00334808
0.0062752
0.00331459
0.00499112
0.00326771
0.00322799
0.00321554
0.00113659
0.0031682
-0.00104631
0.00313033
-0.00303904
0.00310056
-0.00460872
0.00307399
-0.00565812
0.00304627
-0.00623059
0.00301512
-0.00644553
-0.00643392
0.00227962
0.00121465
0.00241663
0.00113842
0.002547
0.00100013
0.00266814
0.000795346
0.0027783
0.000520558
0.00287501
0.000174621
0.00296128
-0.000255134
0.00303074
-0.000749896
0.00308329
-0.00130861
0.00311571
-0.00191916
0.00312448
-0.00255354
0.00310692
-0.00317117
0.00306271
-0.0037254
0.00299465
-0.00417512
0.00290831
-0.00449597
0.00281084
-0.00468518
0.00270921
-0.00475825
0.00260891
-0.00474031
0.00251325
-0.00465747
0.00242339
-0.00453138
0.0023389
-0.00437753
0.00225829
-0.00420578
0.00217924
-0.00402183
0.00209757
-0.0038305
0.00200546
-0.00364177
0.00189286
-0.00347459
0.0017553
-0.00334704
0.00160435
-0.00325103
0.00147108
-0.00313032
0.00139551
-0.00288828
0.00140666
-0.00243234
0.0015084
-0.00172761
0.00168211
-0.000815787
0.00190184
0.000214039
0.0021408
0.00126362
0.00237859
0.00225114
0.0026002
0.00312544
0.00279626
0.00386123
0.00296216
0.00445544
0.00309659
0.00492649
0.0032004
0.00531827
0.0032766
0.00569608
0.00333047
0.00611778
0.00336829
0.00658436
0.0033947
0.00700379
0.00341074
0.00720577
0.00341386
0.00700788
0.0033998
0.00628926
0.00336583
0.00502509
0.00331449
0.00327933
0.00325477
0.00119631
0.00319791
-0.000989449
0.0031498
-0.00299093
0.00311004
-0.00456897
0.0030746
-0.00562268
0.00303955
-0.00619554
0.00300281
-0.0064088
-0.00639374
0.00241871
0.00107987
0.00255027
0.00100686
0.00267571
0.000874684
0.00279234
0.000678718
0.00289868
0.000414215
0.00299173
8.15779e-05
0.00307356
-0.000336969
0.00313818
-0.000814514
0.00318437
-0.0013548
0.00320852
-0.00194332
0.00320704
-0.00255206
0.00317768
-0.00314181
0.00312092
-0.00366864
0.00304053
-0.00409473
0.00294302
-0.00439846
0.00283617
-0.00457832
0.00272724
-0.00464932
0.00262168
-0.00463475
0.00252259
-0.00455839
0.00243094
-0.00443973
0.00234607
-0.00429267
0.00226642
-0.00412613
0.00218982
-0.00394524
0.00211289
-0.00375357
0.00202917
-0.00355805
0.00192884
-0.00337426
0.00180428
-0.00322248
0.00166047
-0.00310721
0.00152196
-0.00299181
0.00142744
-0.00279377
0.0014118
-0.0024167
0.00148803
-0.00180384
0.00164371
-0.000971463
0.00185381
3.93562e-06
0.0020898
0.00102763
0.00232946
0.00201148
0.00255632
0.00289859
0.00275982
0.00365773
0.00293429
0.00428097
0.00307761
0.00478318
0.00319029
0.0052056
0.0032755
0.00561086
0.00333889
0.0060544
0.00338673
0.00653652
0.00342315
0.00696737
0.00344819
0.00718072
0.00345819
0.00699788
0.00344786
0.00629959
0.00341381
0.00505914
0.00335853
0.0033346
0.00329182
0.00126303
0.00322598
-0.000923614
0.00316802
-0.00293297
0.00311854
-0.00451949
0.00307438
-0.00557852
0.00303214
-0.0061533
0.00298991
-0.00636657
-0.0063499
0.00255769
0.00268248
0.000882071
0.00280199
0.00075518
0.00291324
0.000567467
0.00301413
0.000313319
0.00310472
-9.0088e-06
0.00318053
-0.000412784
0.00323914
-0.000873119
0.00327784
-0.0013935
0.00329276
-0.00195824
0.0032804
-0.0025397
0.00323907
-0.00310048
0.00317011
-0.00359967
0.00307819
-0.00400281
0.00297057
-0.00429085
0.00285549
-0.00446324
0.00274034
-0.00453417
0.00263044
-0.00452485
0.00252865
-0.00445659
0.00243567
-0.00434675
0.00235073
-0.00420773
0.00227218
-0.00404757
0.00219794
-0.003871
0.00212524
-0.00368087
0.00204894
-0.00348174
0.00196018
-0.0032855
0.00184956
-0.00311187
0.00171637
-0.00297402
0.00157788
-0.00285332
0.00146895
-0.00268484
0.00142785
-0.0023756
0.00147642
-0.00185241
0.00161038
-0.00110542
0.0018074
-0.000193085
0.00203817
0.000796858
0.00227827
0.00177138
0.00250945
0.0026674
0.00271978
0.00344741
0.00290243
0.00409832
0.00305442
0.00463118
0.0031759
0.00508412
0.00327014
0.00551662
0.00334302
0.00598152
0.00340081
0.00647872
0.00344714
0.00692104
0.00348116
0.00714671
0.00349815
0.0069809
0.00349185
0.00630588
0.00345817
0.00509283
0.00339953
0.00339324
0.00332641
0.00133615
0.00325222
-0.000849421
0.00318486
-0.00286561
0.00312593
-0.00446056
0.00307324
-0.00552583
0.00302396
-0.00610402
0.00297636
-0.00631896
-0.00630247
0.00281607
0.000765764
0.00292812
0.000643133
0.00303277
0.00046281
0.00312709
0.000219008
0.00321331
-9.52357e-05
0.00328204
-0.000481511
0.00333313
-0.00092421
0.00336302
-0.00142339
0.00336767
-0.00196288
0.00334386
-0.0025159
0.00329056
-0.00304719
0.00320992
-0.00351903
0.00310741
-0.0039003
0.00299086
-0.0041743
0.00286878
-0.00434116
0.00274852
-0.00441391
0.00263519
-0.00441152
0.00253135
-0.00435276
0.00243751
-0.00425291
0.00235275
-0.00412297
0.0022754
-0.00397022
0.00220345
-0.00379906
0.00213455
-0.00361198
0.00206472
-0.00341191
0.00198647
-0.00320725
0.00188989
-0.00301529
0.00176987
-0.002854
0.00163635
-0.0027198
0.00151838
-0.00256687
0.00145475
-0.00231197
0.0014748
-0.00187246
0.00158375
-0.00121436
0.00176346
-0.000372786
0.00198641
0.000573907
0.00222515
0.00153264
0.00245955
0.002433
0.00267599
0.00323097
0.00286636
0.00390794
0.00302679
0.00447076
0.00315699
0.00495392
0.00326024
0.00541337
0.00334257
0.00589919
0.00341022
0.00641108
0.00346634
0.00686491
0.00350929
0.00710376
0.00353339
0.0069568
0.00353143
0.00630784
0.00349858
0.00512568
0.00343717
0.00345466
0.00335829
0.00141503
0.0032764
-0.000767532
0.00320016
-0.00278937
0.00313211
-0.00439251
0.0030711
-0.00546481
0.00301495
-0.00604788
0.00296209
-0.0062661
-0.00625152
0.00295235
0.000659857
0.0030551
0.000540377
0.00315167
0.000366247
0.00323817
0.000132509
0.00331654
-0.000173613
0.00337717
-0.000542141
0.00341923
-0.000966268
0.00343894
-0.00144311
0.00343236
-0.0019563
0.00339673
-0.00248026
0.00333169
-0.00298214
0.00324011
-0.00342746
0.00312811
-0.00378829
0.0030039
-0.00405009
0.00287607
-0.00421333
0.00275181
-0.00428965
0.00263591
-0.00429562
0.00253067
-0.00424751
0.00243637
-0.00415861
0.00235201
-0.00403862
0.00227593
-0.00389414
0.00220621
-0.00372933
0.00214076
-0.00354653
0.00207653
-0.00334768
0.00200755
-0.00313827
0.0019244
-0.00293214
0.00181905
-0.00274865
0.00169478
-0.00259553
0.00157352
-0.00244561
0.00149175
-0.0022302
0.00148401
-0.00186471
0.00156498
-0.00129533
0.0017238
-0.000531606
0.00193531
0.000362395
0.00217043
0.00129752
0.00240665
0.00219678
0.00262834
0.00300928
0.00282593
0.00371036
0.00299451
0.00430217
0.00313333
0.0048151
0.00324555
0.00530114
0.00333728
0.00580746
0.00341466
0.0063337
0.00348045
0.00679913
0.00353227
0.00705194
0.00356358
0.00692549
0.00356627
0.00630515
0.00353473
0.00515722
0.00347115
0.00351823
0.00338725
0.00149893
0.00329837
-0.000678649
0.0032138
-0.00270481
0.00313699
-0.00431569
0.00306786
-0.00539569
0.00300502
-0.00598504
0.00294706
-0.00620814
-0.00619714
0.00309046
0.000566136
0.00318202
0.000448821
0.00326866
0.000279604
0.00334559
5.55731e-05
0.00341389
-0.000241913
0.00346461
-0.000592856
0.00349606
-0.00099772
0.00350439
-0.00145143
0.00348591
-0.00193782
0.00343839
-0.00243274
0.00336209
-0.00290585
0.00326054
-0.0033259
0.00314028
-0.00366804
0.00300976
-0.00391957
0.00287746
-0.00408103
0.00275029
-0.00416248
0.00263267
-0.004178
0.00252659
-0.00414144
0.0024322
-0.00406421
0.00234843
-0.00395485
0.00227367
-0.00381938
0.00220608
-0.00366174
0.00214379
-0.00348425
0.00208443
-0.00328832
0.00202344
-0.00307728
0.00195258
-0.00286128
0.00186241
-0.00265848
0.00175069
-0.00248381
0.00163176
-0.00232668
0.00153733
-0.00213578
0.00150426
-0.00183164
0.00155572
-0.00134679
0.00168996
-0.000665852
0.00188608
0.000166275
0.00211468
0.00106892
0.00235091
0.00196055
0.00257679
0.0027834
0.00278096
0.00350619
0.0029574
0.00412573
0.0031047
0.0046678
0.00322585
0.00517999
0.0033269
0.0057064
0.00341389
0.00624671
0.0034892
0.00672382
0.00354984
0.0069913
0.00358847
0.00688685
0.00359611
0.00629751
0.00356635
0.00518698
0.00350126
0.00358332
0.00341312
0.00158707
0.00331798
-0.000583509
0.00322566
-0.00261249
0.00314045
-0.00423048
0.00306345
-0.00531868
0.00299411
-0.0059157
0.00293121
-0.00614524
0.00287347
-0.0061394
-0.00600269
0.00322723
0.00330602
0.000370029
0.00338002
0.000205607
0.00344775
-1.21594e-05
0.00350339
-0.000297559
0.00354241
-0.000631876
0.00356193
-0.00101723
0.00355805
-0.00144755
0.00352742
-0.0019072
0.0034683
-0.00237362
0.00338156
-0.0028191
0.00327119
-0.00321553
0.00314405
-0.0035409
0.00300862
-0.00378413
0.00287313
-0.00394554
0.00274407
-0.00403342
0.0026255
-0.00405943
0.00251912
-0.00403506
0.00242494
-0.00397003
0.00234192
-0.00387183
0.00226849
-0.00374595
0.00220294
-0.00359619
0.00214357
-0.00342487
0.00208846
-0.00323321
0.00203427
-0.00302308
0.00197426
-0.00280128
0.00189887
-0.00258309
0.00180187
-0.00238681
0.00169027
-0.00221508
0.00158928
-0.00203478
0.00153502
-0.00177739
0.00155721
-0.00136897
0.00166374
-0.000772384
0.0018403
-1.02893e-05
0.00205885
0.000850378
0.00229275
0.00172665
0.00252141
0.00255474
0.0027314
0.0032962
0.00291529
0.00394184
0.00307093
0.00451217
0.00320094
0.00504998
0.00331126
0.00559609
0.00340772
0.00615024
0.0034924
0.00663914
0.00356178
0.00692192
0.00360784
0.00684079
0.00362074
0.00628462
0.00359324
0.00521447
0.00352725
0.00364931
0.00343571
0.00167861
0.00333511
-0.000482916
0.00323563
-0.002513
0.0031424
-0.00413725
0.00305776
-0.00523404
0.00298212
-0.00584006
0.00291445
-0.00607758
0.00285346
-0.00607841
-0.0059457
0.00342287
0.000304707
0.00348358
0.000144897
0.00353961
-6.81906e-05
0.00358197
-0.000339915
0.00360818
-0.000658091
0.00361506
-0.00102412
0.00359871
-0.0014312
0.00355616
-0.00186464
0.00348616
-0.00230362
0.00339004
-0.00272299
0.0032722
-0.00309769
0.00313964
-0.00340835
0.00300071
-0.0036452
0.00286325
-0.00380809
0.00273329
-0.00390346
0.00261445
-0.00394059
0.00250823
-0.00392884
0.00241454
-0.00387634
0.00233238
-0.00378967
0.00226029
-0.00367386
0.00219669
-0.00353258
0.00214
-0.00336818
0.00208865
-0.00318186
0.0020402
-0.00297463
0.00198951
-0.00275059
0.00192781
-0.00252139
0.00184653
-0.00230553