/*--------------------------------*- C++ -*----------------------------------*\
  =========                 |
  \\      /  F ield         | OpenFOAM: The Open Source CFD Toolbox
   \\    /   O peration     | Website:  https://openfoam.org
    \\  /    A nd           | Version:  7
     \\/     M anipulation  |
\*---------------------------------------------------------------------------*/
FoamFile
{
    version     2.0;
    format      ascii;
    class       volVectorField;
    location    "100";
    object      U;
}
// * * * * * * * * * * * * * * * * * * * * * * * * * * * * * * * * * * * * * //

dimensions      [0 1 -1 0 0 0 0];

internalField   nonuniform List<vector> 
1987
(
(-0.0739781 0.433767 -1.12325e-21)
(-0.0372981 0.399662 -3.50219e-21)
(0.00369958 0.351405 1.55202e-22)
(0.0479813 0.289818 1.14804e-21)
(0.0943264 0.216463 -2.75481e-21)
(0.141597 0.133415 3.92096e-21)
(0.188968 0.0430101 -9.79648e-22)
(0.235974 -0.0523126 -7.25318e-22)
(0.28237 -0.149578 -1.73398e-21)
(0.32799 -0.245082 -9.30952e-22)
(0.372357 -0.334524 4.9389e-21)
(0.414468 -0.413355 6.4406e-22)
(0.45289 -0.477747 -2.37388e-21)
(0.48605 -0.525562 8.90451e-22)
(0.512612 -0.55684 -9.3845e-22)
(0.53173 -0.573606 -5.22483e-22)
(0.543062 -0.57923 2.19648e-22)
(0.54647 -0.577852 1.61576e-21)
(0.541558 -0.574086 5.75175e-23)
(0.527707 -0.572296 -1.20027e-21)
(0.505253 -0.574571 -7.69004e-22)
(0.477192 -0.578056 -3.90857e-22)
(0.44979 -0.574033 9.61727e-22)
(0.430844 -0.550737 -4.39747e-22)
(0.426122 -0.499016 -6.80635e-22)
(0.436856 -0.416681 1.67523e-21)
(0.460629 -0.308205 1.1066e-21)
(0.493927 -0.181465 -2.41752e-21)
(0.53363 -0.0453986 5.82004e-22)
(0.577136 0.0905759 2.09714e-21)
(0.621954 0.216658 -1.02632e-21)
(0.665362 0.323918 3.57992e-22)
(0.704547 0.406481 -9.27342e-22)
(0.737225 0.462971 3.34124e-22)
(0.762179 0.496224 -5.41349e-22)
(0.779261 0.51168 4.93066e-22)
(0.789041 0.515394 -1.02077e-22)
(0.792595 0.512292 5.226e-23)
(0.791213 0.505743 -2.82786e-22)
(0.785459 0.499019 1.11254e-22)
(0.774309 0.4966 -1.80313e-22)
(0.756017 0.502066 -1.24273e-22)
(0.730586 0.513104 3.75533e-22)
(0.701521 0.518697 -4.7139e-22)
(0.674896 0.502617 9.06382e-23)
(0.656391 0.451462 -4.972e-23)
(0.649114 0.361068 1.95146e-22)
(0.653675 0.237436 -1.01727e-22)
(0.669163 0.0938225 3.98987e-22)
(0.693523 -0.0529821 1.90868e-22)
(0.723586 -0.186625 -5.24116e-22)
(0.75545 -0.294982 -3.80922e-22)
(0.785312 -0.372754 2.36923e-22)
(0.810259 -0.421519 -9.91308e-23)
(0.828519 -0.447509 2.44285e-22)
(0.839699 -0.457997 -3.60921e-22)
(-0.158617 0.426293 -7.89604e-21)
(-0.136629 0.441488 3.24426e-21)
(-0.110101 0.445811 4.56191e-21)
(-0.0787838 0.437685 2.59224e-21)
(-0.042686 0.415898 -1.2263e-20)
(-0.00212345 0.380095 3.94138e-21)
(0.042086 0.330526 1.05938e-21)
(0.0887746 0.268154 -1.37291e-22)
(0.136778 0.194596 3.42331e-21)
(0.185042 0.111741 -2.74449e-22)
(0.232842 0.0217374 -1.37006e-21)
(0.279802 -0.0731048 -7.2707e-21)
(0.32575 -0.169842 6.38884e-21)
(0.370516 -0.264731 4.23665e-21)
(0.413577 -0.353262 -6.14631e-21)
(0.453874 -0.430668 3.15124e-21)
(0.489948 -0.492992 -2.18395e-21)
(0.520284 -0.538128 4.70363e-21)
(0.543697 -0.566295 -3.62732e-21)
(0.559563 -0.57976 1.23959e-21)
(0.567789 -0.582066 2.83267e-22)
(0.568521 -0.577347 -3.36738e-22)
(0.561603 -0.570084 1.51112e-21)
(0.546366 -0.564724 6.79071e-23)
(0.522551 -0.564034 -2.22004e-21)
(0.492158 -0.56635 1.96415e-21)
(0.460621 -0.563966 -1.61032e-22)
(0.435731 -0.545094 -1.26557e-21)
(0.424247 -0.499302 -3.46485e-22)
(0.428672 -0.422719 2.64799e-21)
(0.447299 -0.318809 -3.62658e-21)
(0.476762 -0.195278 2.17412e-21)
(0.513905 -0.0612447 -5.13756e-22)
(0.556037 0.0737252 7.78484e-22)
(0.600543 0.199849 -2.63022e-21)
(0.644592 0.308226 4.20997e-21)
(0.68524 0.392871 -8.8267e-22)
(0.720007 0.452081 -7.52536e-22)
(0.747406 0.488272 5.55457e-22)
(0.767006 0.50654 -1.76606e-22)
(0.779184 0.512705 1.96683e-22)
(0.78496 0.51158 1.07244e-22)
(0.785589 0.506647 -1.06451e-21)
(0.781501 0.501566 -8.21179e-22)
(0.771567 0.501154 -1.08823e-22)
(0.754219 0.508792 1.74875e-21)
(0.729903 0.521378 -1.67669e-21)
(0.702515 0.527074 2.43684e-21)
(0.678139 0.50944 -4.3921e-22)
(0.662107 0.455553 1.65703e-22)
(0.657128 0.361955 -8.07162e-22)
(0.663554 0.235167 1.55185e-21)
(0.680344 0.0887853 -1.57984e-21)
(0.705388 -0.0600897 1.63539e-21)
(0.735506 -0.194826 -9.81604e-22)
(0.766821 -0.303188 -2.06423e-23)
(0.795617 -0.380017 4.85935e-22)
(0.819173 -0.427193 -6.81536e-22)
(0.835924 -0.451311 2.2624e-23)
(0.845563 -0.460031 1.66497e-22)
(-0.136457 0.414531 -3.82751e-21)
(-0.110802 0.427826 -7.01134e-21)
(-0.0804139 0.430196 8.20805e-21)
(-0.045285 0.420164 -1.65416e-20)
(-0.0055972 0.396739 9.77385e-21)
(0.0380838 0.359672 -1.07423e-20)
(0.0847324 0.309255 1.2005e-20)
(0.133194 0.246592 -5.80212e-21)
(0.182327 0.173208 8.23657e-21)
(0.231173 0.0908507 -1.76066e-20)
(0.279082 0.00149958 1.31037e-21)
(0.325749 -0.0926498 2.03904e-20)
(0.371054 -0.188717 -5.44095e-21)
(0.414793 -0.282883 9.37071e-21)
(0.456373 -0.370425 -1.68646e-21)
(0.494658 -0.446354 -3.65437e-21)
(0.528158 -0.506594 -1.30168e-20)
(0.555428 -0.549085 8.91152e-21)
(0.575466 -0.574239 -1.73919e-21)
(0.587886 -0.584565 -5.71194e-22)
(0.592849 -0.583783 -1.98328e-22)
(0.590763 -0.576019 -5.44679e-22)
(0.581732 -0.565565 4.55761e-21)
(0.56515 -0.556793 -6.77994e-21)
(0.540307 -0.552967 2.24685e-21)
(0.508225 -0.553589 1.38678e-21)
(0.473326 -0.552195 2.09092e-21)
(0.443081 -0.537353 -8.8291e-22)
(0.425027 -0.497602 2.30708e-21)
(0.423021 -0.427294 -8.6972e-21)
(0.436273 -0.328597 8.35818e-21)
(0.461655 -0.208863 -2.56868e-21)
(0.495971 -0.0773198 2.81311e-21)
(0.536459 0.056277 -1.61515e-21)
(0.580393 0.182199 -5.66414e-21)
(0.624835 0.291543 -1.76611e-21)
(0.666722 0.378198 2.88151e-21)
(0.703383 0.440132 1.0936e-21)
(0.733074 0.47933 -1.47939e-21)
(0.755087 0.500518 1.47396e-21)
(0.769618 0.509249 1.06155e-21)
(0.777617 0.510205 -5.51815e-22)
(0.780271 0.506996 -2.88738e-21)
(0.777858 0.503673 1.5599e-21)
(0.769179 0.505338 -1.95048e-21)
(0.752874 0.515119 2.40509e-21)
(0.729829 0.529155 -1.14251e-21)
(0.704272 0.534897 -2.3387e-21)
(0.682244 0.51579 4.65738e-21)
(0.668721 0.459398 1.08991e-21)
(0.666039 0.36289 1.53372e-21)
(0.674303 0.233224 -5.68491e-21)
(0.692346 0.0842804 3.66199e-21)
(0.718004 -0.0665435 -5.2135e-22)
(0.748094 -0.202334 -4.54501e-21)
(0.778772 -0.310717 4.06367e-21)
(0.806412 -0.386659 2.47089e-21)
(0.82849 -0.432327 -3.6798e-21)
(0.843668 -0.454652 -1.00136e-21)
(0.851739 -0.461665 -9.40113e-22)
(-0.0783233 0.412424 3.40366e-21)
(-0.0446201 0.412999 5.06571e-21)
(-0.00627247 0.401347 -2.28911e-20)
(0.0363075 0.376682 2.76302e-21)
(0.0823622 0.338703 -3.2808e-21)
(0.130815 0.287896 4.22876e-20)
(0.180502 0.225346 -5.49589e-20)
(0.230322 0.152474 2.01682e-21)
(0.279401 0.0708945 9.0856e-21)
(0.327168 -0.0175884 5.65533e-21)
(0.37336 -0.110863 -3.17935e-21)
(0.417875 -0.206131 -7.61484e-21)
(0.460466 -0.299471 -3.82082e-21)
(0.500439 -0.385944 2.02354e-20)
(0.536553 -0.460343 -1.57215e-20)
(0.567285 -0.518483 1.88553e-20)
(0.591283 -0.558375 -9.26029e-21)
(0.607752 -0.580633 -4.69496e-21)
(0.616571 -0.588002 2.19971e-21)
(0.618158 -0.584373 1.3591e-20)
(0.613153 -0.57387 -7.13719e-21)
(0.601915 -0.560567 3.70293e-22)
(0.583985 -0.548626 -6.06136e-21)
(0.558361 -0.541605 1.64535e-21)
(0.525172 -0.540076 -1.16417e-21)
(0.487705 -0.538977 -2.37e-21)
(0.452809 -0.527616 3.8142e-21)
(0.428508 -0.493846 1.47332e-21)
(0.420007 -0.430245 -1.09917e-21)
(0.427662 -0.337401 1.93564e-21)
(0.448723 -0.222068 5.50827e-21)
(0.479948 -0.0935096 -6.98302e-21)
(0.518512 0.0383458 7.58701e-21)
(0.561604 0.163806 -1.05563e-20)
(0.606174 0.273943 5.64685e-21)
(0.649055 0.362515 -4.65141e-23)
(0.687399 0.427152 5.71013e-22)
(0.719212 0.469407 -1.10852e-21)
(0.743524 0.493606 -2.59546e-21)
(0.760351 0.505005 5.58722e-21)
(0.770564 0.508141 -3.44288e-21)
(0.775246 0.506766 9.32839e-22)
(0.774516 0.505306 -1.48833e-21)
(0.767129 0.509097 -1.88154e-21)
(0.751968 0.52098 3.1026e-21)
(0.730339 0.536375 -3.16657e-21)
(0.706752 0.54213 7.86762e-22)
(0.687154 0.521665 3.55217e-21)
(0.676171 0.463016 -3.8646e-21)
(0.675787 0.363905 6.90871e-21)
(0.685865 0.231647 -8.88584e-23)
(0.705119 0.0803611 -2.86845e-21)
(0.73133 -0.0723018 2.35519e-22)
(0.761318 -0.209116 -5.64201e-21)
(0.791279 -0.317546 2.72097e-21)
(0.817682 -0.392663 1.41918e-21)
(0.838203 -0.436912 -2.2496e-21)
(0.851747 -0.457537 3.04127e-21)
(0.858226 -0.462907 -2.83221e-21)
(-0.0402269 0.395546 8.01272e-21)
(-0.00373555 0.394556 2.00582e-20)
(0.0372138 0.38161 5.09063e-21)
(0.0820275 0.355976 1.15152e-20)
(0.129837 0.317494 -5.08113e-20)
(0.17954 0.266693 2.67048e-20)
(0.229984 0.2046 -9.13368e-21)
(0.280119 0.13254 2.38563e-21)
(0.329148 0.0519789 4.93343e-22)
(0.376573 -0.0354304 2.95133e-20)
(0.42216 -0.12769 -6.84157e-20)
(0.4658 -0.222041 5.12137e-20)
(0.507178 -0.314456 4.98246e-21)
(0.545461 -0.399776 -3.83256e-20)
(0.579281 -0.472581 2.02223e-20)
(0.607085 -0.528608 1.64081e-20)
(0.627636 -0.565956 -1.50011e-20)
(0.640378 -0.585448 5.31059e-22)
(0.64548 -0.590061 -2.98231e-21)
(0.643617 -0.583839 -1.14639e-20)
(0.635639 -0.570907 -2.6153e-21)
(0.622127 -0.555113 9.02759e-21)
(0.602818 -0.540315 3.22851e-21)
(0.576578 -0.530158 5.36822e-21)
(0.542779 -0.526117 -7.47108e-21)
(0.503528 -0.524611 -1.3637e-21)
(0.464777 -0.516044 -3.74059e-21)
(0.434691 -0.488004 -4.13027e-21)
(0.419718 -0.431416 1.30555e-20)
(0.421562 -0.34504 -1.32304e-20)
(0.43805 -0.234728 9.85833e-21)
(0.465926 -0.109672 1.86107e-21)
(0.502295 0.02006 1.50753e-21)
(0.544263 0.144775 -9.42395e-21)
(0.588681 0.255507 3.95067e-21)
(0.632297 0.345878 2.63651e-21)
(0.672096 0.413177 2.80389e-21)
(0.705846 0.458516 -9.78533e-21)
(0.732329 0.485801 6.52463e-21)
(0.751389 0.499955 -5.42591e-21)
(0.763794 0.505366 5.25757e-21)
(0.770498 0.50593 -6.91018e-21)
(0.771453 0.50643 8.0759e-21)
(0.765397 0.512382 -4.06787e-21)
(0.751478 0.526314 3.67525e-21)
(0.731402 0.542983 -4.81663e-21)
(0.709903 0.548745 -2.26781e-21)
(0.692804 0.52706 -5.03135e-21)
(0.684386 0.466421 1.63234e-20)
(0.686301 0.365024 -5.35779e-21)
(0.698177 0.230467 -4.25427e-21)
(0.718602 0.0770781 3.60439e-21)
(0.745314 -0.0773257 -3.42011e-21)
(0.77514 -0.215142 3.20423e-21)
(0.804317 -0.323652 -1.80365e-21)
(0.829411 -0.398014 7.24987e-23)
(0.848302 -0.440943 1.03072e-22)
(0.860154 -0.459966 -9.84548e-22)
(0.865018 -0.463767 5.62094e-22)
(0.00243024 0.377476 9.35652e-21)
(0.0412051 0.37516 -2.56043e-20)
(0.084172 0.361193 2.6148e-20)
(0.130638 0.33493 -4.58465e-21)
(0.179664 0.296308 -2.21485e-20)
(0.230142 0.245846 2.995e-20)
(0.280949 0.184508 -5.18828e-20)
(0.33109 0.113511 7.19176e-20)
(0.379844 0.0341571 -2.40892e-20)
(0.426784 -0.0519996 -4.32032e-20)
(0.471695 -0.143112 3.54783e-20)
(0.514436 -0.236438 -2.04798e-20)
(0.554585 -0.327825 7.88836e-21)
(0.591133 -0.411895 -1.21635e-20)
(0.622565 -0.483036 1.60983e-20)
(0.647306 -0.536931 1.76141e-20)
(0.664267 -0.571796 -8.31289e-21)
(0.673161 -0.588671 5.68247e-21)
(0.674466 -0.590746 -4.49776e-21)
(0.66912 -0.582197 -2.94777e-22)
(0.65816 -0.567144 4.0046e-21)
(0.642343 -0.549221 -6.37645e-21)
(0.621614 -0.531923 7.33222e-21)
(0.594847 -0.518796 -7.28167e-21)
(0.560837 -0.512003 1.42646e-21)
(0.520542 -0.509423 1.8764e-21)
(0.478793 -0.502861 -5.99833e-21)
(0.443529 -0.480098 2.09662e-21)
(0.422216 -0.430667 -1.13958e-21)
(0.418056 -0.351322 -1.00085e-21)
(0.429707 -0.246667 -6.34762e-21)
(0.453976 -0.125645 8.61003e-21)
(0.487877 0.00159765 3.66059e-21)
(0.528439 0.125221 3.25871e-21)
(0.572418 0.236325 -8.79011e-21)
(0.616496 0.328351 8.40993e-21)
(0.657508 0.398246 -2.28955e-21)
(0.692999 0.446675 -7.02571e-21)
(0.721516 0.4771 3.85793e-21)
(0.742734 0.494084 4.13615e-21)
(0.757301 0.501857 -1.49584e-21)
(0.76601 0.504463 -7.61856e-22)
(0.768646 0.50701 -5.70634e-21)
(0.76396 0.515142 1.89939e-21)
(0.751376 0.531061 3.23265e-21)
(0.732975 0.548931 -2.3252e-21)
(0.713665 0.554715 2.46149e-21)
(0.69912 0.531972 -3.31798e-21)
(0.693289 0.469625 -3.44622e-22)
(0.697503 0.366267 1.04546e-21)
(0.711168 0.229716 3.97698e-22)
(0.732732 0.0744181 1.27531e-21)
(0.759898 -0.0815928 8.13177e-22)
(0.789517 -0.220384 5.24011e-21)
(0.817853 -0.329015 -1.31308e-20)
(0.841578 -0.402701 7.88482e-21)
(0.858776 -0.44441 -6.6531e-21)
(0.868883 -0.461941 3.71875e-21)
(0.872108 -0.464255 -7.58692e-22)
(0.0486425 0.358486 -5.34356e-21)
(0.0891923 0.35507 7.15511e-21)
(0.133655 0.340361 3.39173e-20)
(0.181264 0.313795 3.14125e-21)
(0.231043 0.275347 -4.8512e-20)
(0.281894 0.225512 1.02805e-20)
(0.332739 0.165183 1.04931e-22)
(0.38263 0.0954501 3.67387e-20)
(0.430951 0.0174228 -2.41222e-22)
(0.477331 -0.0672902 -2.18408e-22)
(0.521552 -0.157142 -6.32188e-20)
(0.563422 -0.249341 6.8796e-21)
(0.602367 -0.33959 1.45345e-20)
(0.637162 -0.422298 1.89038e-20)
(0.666131 -0.491689 2.2275e-20)
(0.687698 -0.54343 -1.33924e-20)
(0.700954 -0.575879 -8.34164e-21)
(0.705914 -0.590299 8.95307e-21)
(0.703382 -0.590069 -2.1984e-20)
(0.694557 -0.57947 7.59793e-21)
(0.680646 -0.562602 -3.65797e-21)
(0.662531 -0.542905 6.96343e-21)
(0.640349 -0.523491 -5.85213e-21)
(0.613085 -0.507652 -4.67063e-22)
(0.579158 -0.497997 -1.53318e-21)
(0.538479 -0.493758 -1.09551e-21)
(0.494619 -0.488347 2.01082e-21)
(0.454916 -0.470216 -3.6906e-21)
(0.427535 -0.427885 6.06861e-21)
(0.417222 -0.356045 6.96394e-21)
(0.423752 -0.257694 -4.3777e-21)
(0.444159 -0.141272 -3.84463e-21)
(0.475313 -0.0168819 5.13748e-21)
(0.514172 0.105267 -7.48962e-23)
(0.557433 0.216494 -8.16944e-21)
(0.601694 0.310006 1.35042e-21)
(0.643666 0.382406 5.2451e-21)
(0.68069 0.433907 -4.72864e-21)
(0.711094 0.467503 1.82815e-21)
(0.734386 0.487379 -1.60615e-21)
(0.751073 0.497598 8.28978e-21)
(0.761759 0.502343 -4.79608e-21)
(0.766069 0.507012 4.21039e-21)
(0.762789 0.51733 1.43038e-21)
(0.751627 0.53517 -2.83419e-21)
(0.735007 0.554176 7.33606e-21)
(0.717969 0.560018 -1.10074e-20)
(0.706021 0.536398 1.44822e-20)
(0.702793 0.472634 -1.14628e-20)
(0.709309 0.367648 -3.29355e-21)
(0.724745 0.229408 3.48255e-21)
(0.747429 0.0724369 -5.8139e-21)
(0.775031 -0.0850672 6.66e-21)
(0.804404 -0.224819 6.97418e-21)
(0.831852 -0.333619 -1.0166e-21)
(0.854157 -0.40671 -2.80948e-23)
(0.869608 -0.44731 -1.32483e-20)
(0.877921 -0.463464 7.25279e-21)
(0.879489 -0.464379 9.46635e-22)
(0.0974047 0.338802 3.90166e-20)
(0.139276 0.334521 -1.00093e-19)
(0.184775 0.319348 5.4136e-20)
(0.233089 0.292767 3.19914e-21)
(0.283227 0.254768 -7.61582e-20)
(0.334121 0.20581 8.33182e-20)
(0.384742 0.146704 -5.66324e-20)
(0.434174 0.0784036 3.88586e-20)
(0.481992 0.00191266 5.56682e-21)
(0.527821 -0.0813064 -9.28273e-20)
(0.571376 -0.169821 1.07662e-19)
(0.612447 -0.260791 1.67463e-20)
(0.650237 -0.34978 -3.64208e-20)
(0.68327 -0.430995 2.44304e-20)
(0.709711 -0.498533 -3.37336e-20)
(0.728009 -0.548093 7.42408e-21)
(0.737474 -0.578202 -1.27848e-20)
(0.738452 -0.59034 -8.67294e-21)
(0.732081 -0.588055 3.87717e-20)
(0.719819 -0.575694 -1.38443e-20)
(0.703022 -0.557315 1.79077e-22)
(0.682657 -0.53618 -6.50879e-21)
(0.659009 -0.515037 -1.83558e-20)
(0.631235 -0.496816 2.71887e-20)
(0.597579 -0.484324 -9.66984e-21)
(0.557074 -0.477954 -5.7031e-22)
(0.511974 -0.472832 -1.00285e-20)
(0.468685 -0.45852 7.98667e-21)
(0.43567 -0.423004 -3.99275e-21)
(0.41913 -0.359009 6.81411e-21)
(0.420243 -0.267596 -4.68416e-22)
(0.436515 -0.156364 2.06388e-21)
(0.464635 -0.0353822 -1.37501e-20)
(0.501491 0.0850198 1.12399e-20)
(0.543762 0.196117 -5.44411e-21)
(0.587924 0.29092 -8.93948e-22)
(0.630594 0.365709 -2.1947e-21)
(0.668933 0.420237 8.9311e-21)
(0.70107 0.457016 -6.1663e-21)
(0.726344 0.479829 5.95865e-21)
(0.745094 0.492571 -6.22848e-22)
(0.757721 0.499549 -4.45927e-21)
(0.763692 0.506405 1.71394e-21)
(0.76185 0.518901 -8.07668e-22)
(0.752189 0.538592 -4.95306e-21)
(0.73744 0.55868 7.68047e-21)
(0.722742 0.564633 2.05466e-21)
(0.713423 0.540331 -3.97881e-21)
(0.712808 0.475451 2.10767e-21)
(0.721623 0.369176 -9.41051e-21)
(0.738831 0.229561 -1.04369e-21)
(0.762617 0.0711369 1.13362e-21)
(0.790633 -0.0877334 2.83157e-21)
(0.819745 -0.228426 7.70222e-21)
(0.846275 -0.337447 -4.41954e-21)
(0.867121 -0.410033 -1.08911e-21)
(0.880781 -0.449636 3.31905e-22)
(0.887258 -0.464536 -2.34722e-21)
(0.887149 -0.46415 1.67754e-21)
(0.147785 0.318625 1.74183e-20)
(0.190579 0.313719 2.08461e-21)
(0.236717 0.298339 8.83483e-22)
(0.285365 0.272001 -1.01147e-20)
(0.33554 0.234692 4.87082e-21)
(0.386216 0.186822 -6.42131e-20)
(0.436424 0.129112 1.08494e-19)
(0.48531 0.0623887 -8.26045e-20)
(0.532571 -0.0124068 -1.08462e-20)
(0.577866 -0.0941168 1.23469e-20)
(0.620876 -0.181217 2.05856e-20)
(0.661252 -0.270853 4.68476e-20)
(0.697943 -0.358437 -1.56427e-20)
(0.729202 -0.438003 -1.98024e-20)
(0.753047 -0.503573 5.38137e-20)
(0.767994 -0.550922 -2.35481e-20)
(0.773609 -0.578774 -3.23836e-20)
(0.770593 -0.588816 3.32807e-20)
(0.76042 -0.584739 -2.9567e-22)
(0.744799 -0.57091 -1.8267e-20)
(0.725213 -0.55132 6.84525e-21)
(0.702682 -0.529067 -2.29138e-20)
(0.677581 -0.50657 2.08601e-20)
(0.649264 -0.486339 -1.05185e-20)
(0.615969 -0.471159 -8.69323e-21)
(0.576074 -0.46233 8.64194e-21)
(0.530549 -0.456681 -7.01517e-21)
(0.484606 -0.445246 4.46835e-22)
(0.44656 -0.416022 1.66047e-20)
(0.423842 -0.360027 -9.96006e-21)
(0.419243 -0.276142 2.4613e-21)
(0.431031 -0.170736 -1.30817e-20)
(0.455851 -0.0537113 1.37445e-20)
(0.490452 0.0646177 1.13604e-20)
(0.531436 0.175301 -1.72129e-20)
(0.575208 0.271177 7.4309e-21)
(0.618311 0.34821 2.97769e-21)
(0.657743 0.405696 -1.67469e-20)
(0.691449 0.445646 9.84674e-21)
(0.7186 0.47143 5.49914e-21)
(0.739347 0.486763 -3.44408e-21)
(0.753868 0.496059 -3.56315e-21)
(0.761482 0.505158 5.61985e-21)
(0.761107 0.519814 1.10055e-22)
(0.753014 0.541286 -5.08222e-21)
(0.740213 0.562414 4.62459e-21)
(0.727904 0.568545 -7.13989e-22)
(0.721234 0.543765 3.46312e-21)
(0.723235 0.478074 -4.61411e-21)
(0.734349 0.370856 -8.20709e-21)
(0.753315 0.230182 1.58213e-20)
(0.778204 0.0705051 -6.77469e-22)
(0.806646 -0.0895781 -1.02819e-20)
(0.835487 -0.231192 -3.00147e-21)
(0.86108 -0.340489 7.24231e-21)
(0.880439 -0.412663 3.14842e-21)
(0.892275 -0.451384 -2.19511e-21)
(0.896878 -0.465157 -3.20827e-21)
(0.895077 -0.463575 3.77353e-21)
(0.198948 0.298143 -4.33262e-20)
(0.242318 0.292835 7.21351e-20)
(0.288759 0.27748 -8.52702e-20)
(0.337437 0.251612 1.95112e-20)
(0.387396 0.215201 8.56994e-20)
(0.437667 0.168594 -6.96913e-20)
(0.487346 0.112411 -7.44047e-20)
(0.535654 0.0473532 -1.02362e-20)
(0.582392 -0.0257324 1.18838e-19)
(0.627249 -0.105818 1.05476e-20)
(0.669848 -0.191419 -5.6546e-21)
(0.709636 -0.279597 3.00531e-20)
(0.745267 -0.365607 -1.19268e-19)
(0.774719 -0.443346 6.89945e-20)
(0.795892 -0.506817 1.31569e-20)
(0.807413 -0.551928 -5.08897e-20)
(0.809145 -0.577615 2.60057e-20)
(0.80216 -0.585765 -6.09316e-21)
(0.788264 -0.580166 -7.12791e-21)
(0.769396 -0.565169 7.2235e-21)
(0.747149 -0.544665 -9.78731e-21)
(0.722562 -0.521593 7.35395e-21)
(0.696053 -0.49809 1.04309e-20)
(0.667155 -0.476243 -1.38163e-20)
(0.634232 -0.458628 -1.44599e-21)
(0.59525 -0.447168 7.76257e-21)
(0.55002 -0.440273 5.196e-21)
(0.502387 -0.430701 -7.20485e-21)
(0.460082 -0.407015 -7.96881e-22)
(0.431397 -0.358944 1.35754e-20)
(0.420824 -0.283086 -1.53482e-20)
(0.427763 -0.184162 1.68891e-20)
(0.448971 -0.0715842 -2.39637e-20)
(0.481041 0.0442072 1.87402e-20)
(0.520461 0.154161 -1.19956e-20)
(0.56356 0.250863 8.82944e-21)
(0.606829 0.329971 -6.95195e-22)
(0.647127 0.390318 1.84844e-21)
(0.682235 0.433405 -1.33667e-20)
(0.711149 0.462178 4.10034e-21)
(0.733814 0.480166 4.63815e-21)
(0.750172 0.491858 -1.79001e-22)
(0.759406 0.503244 3.37582e-21)
(0.760519 0.520036 -1.07843e-20)
(0.754051 0.543219 -3.54795e-21)
(0.743257 0.56535 7.90233e-22)
(0.733371 0.571738 1.09472e-20)
(0.72936 0.546693 -1.57602e-20)
(0.733976 0.4805 1.21715e-20)
(0.747383 0.372685 1.78383e-20)
(0.768099 0.231268 -4.57155e-20)
(0.7941 0.0706094 2.39963e-20)
(0.822986 -0.0905833 -3.94536e-21)
(0.851568 -0.233105 -7.27136e-21)
(0.876221 -0.342736 5.47661e-21)
(0.894078 -0.414593 4.00461e-21)
(0.904065 -0.452551 1.59002e-22)
(0.906768 -0.465329 -5.12542e-21)
(0.903258 -0.462664 3.89832e-21)
(0.250181 0.277512 8.91088e-20)
(0.293831 0.272007 -3.14687e-20)
(0.340299 0.256883 -1.40503e-20)
(0.388771 0.231682 -9.66271e-21)
(0.438333 0.196341 8.60289e-20)
(0.488082 0.151134 -6.83995e-20)
(0.537187 0.0965658 6.74723e-20)
(0.584959 0.0332004 -8.53278e-20)
(0.63128 -0.0381134 -2.69937e-20)
(0.675844 -0.116508 -3.50814e-20)
(0.718167 -0.200525 2.73743e-20)
(0.757452 -0.287098 9.1815e-21)
(0.792024 -0.371337 -1.69638e-20)
(0.819597 -0.447047 1.54056e-20)
(0.838004 -0.508283 2.82064e-20)
(0.846031 -0.551133 4.28489e-20)
(0.843875 -0.574763 -4.77783e-20)
(0.832984 -0.581234 4.20174e-20)
(0.815484 -0.574392 -3.33248e-20)
(0.793516 -0.558529 -1.26215e-20)
(0.76876 -0.537401 1.1037e-20)
(0.742253 -0.51379 -6.33154e-21)
(0.71441 -0.489597 5.24274e-21)
(0.684903 -0.466519 2.34414e-21)
(0.652306 -0.446802 -1.47697e-21)
(0.614407 -0.432698 3.89602e-21)
(0.570066 -0.423979 -9.50227e-21)
(0.521691 -0.415252 4.61382e-21)
(0.476036 -0.396153 -8.13202e-21)
(0.441791 -0.355664 7.11628e-21)
(0.425074 -0.288184 3.14412e-21)
(0.426759 -0.196395 1.14677e-20)
(0.443997 -0.0888751 -1.31795e-20)
(0.473252 0.0239337 1.15912e-20)
(0.510839 0.132815 1.7002e-22)
(0.552986 0.23007 -4.44827e-21)
(0.596156 0.311057 -5.6831e-21)
(0.637092 0.374142 1.26535e-21)
(0.673427 0.42031 -2.61679e-21)
(0.703981 0.452076 -4.6908e-21)
(0.728472 0.472772 5.73179e-21)
(0.746601 0.486931 -4.88744e-21)
(0.757426 0.500639 7.18711e-21)
(0.760043 0.519534 -3.12124e-21)
(0.755246 0.54436 -6.48108e-21)
(0.746502 0.56747 1.71277e-20)
(0.73906 0.574202 -1.23682e-20)
(0.737706 0.549107 -6.0862e-22)
(0.744928 0.482719 2.05359e-20)
(0.760618 0.374655 -2.33894e-20)
(0.78308 0.232825 1.24647e-20)
(0.810207 0.0714429 6.07999e-21)
(0.839568 -0.0907498 -9.97739e-21)
(0.867926 -0.234159 -2.13161e-20)
(0.891651 -0.344181 1.01249e-20)
(0.908 -0.41582 2.46744e-20)
(0.916128 -0.453135 -1.75708e-20)
(0.916909 -0.465053 1.13093e-20)
(0.911678 -0.461423 -3.57773e-21)
(0.300946 0.256867 3.27116e-20)
(0.344621 0.251348 -7.84567e-20)
(0.390897 0.236632 4.00495e-20)
(0.438992 0.21226 1.31094e-20)
(0.488043 0.178123 -7.48859e-21)
(0.537221 0.13442 7.00038e-21)
(0.585766 0.08151 -1.19468e-20)
(0.633125 0.0197628 -4.78856e-20)
(0.679194 -0.0496438 -4.4522e-21)
(0.723615 -0.126295 1.14762e-19)
(0.765776 -0.208625 -1.82824e-20)
(0.804591 -0.293421 -9.12188e-20)
(0.838045 -0.375662 8.3176e-20)
(0.863623 -0.449127 -3.51882e-20)
(0.879148 -0.507991 -3.05806e-20)
(0.883624 -0.548571 1.59533e-20)
(0.877603 -0.570267 1.53058e-20)
(0.86291 -0.575285 2.32645e-20)
(0.841966 -0.567484 -3.98249e-21)
(0.817078 -0.551051 -1.31793e-20)
(0.789987 -0.529582 3.79662e-22)
(0.76171 -0.505694 2.49765e-21)
(0.732631 -0.481094 -4.28159e-22)
(0.702509 -0.457148 3.75977e-21)
(0.670159 -0.435706 -4.17813e-21)
(0.633396 -0.41909 5.4044e-22)
(0.590385 -0.408138 -1.17726e-21)
(0.542146 -0.399302 -2.96103e-21)
(0.494148 -0.383697 8.91806e-21)
(0.454963 -0.350171 -2.94627e-21)
(0.432075 -0.291209 -1.37528e-21)
(0.428099 -0.207169 1.18764e-20)
(0.440953 -0.105357 -1.418e-20)
(0.467076 0.00416404 -5.4956e-21)
(0.502557 0.111389 4.60847e-21)
(0.543481 0.208893 3.90481e-21)
(0.586294 0.291537 -2.00055e-21)
(0.627642 0.357212 -5.74171e-21)
(0.665024 0.406382 1.24988e-20)
(0.697083 0.441131 -7.14576e-21)
(0.723297 0.464578 -3.35149e-21)
(0.743124 0.481267 2.8767e-21)
(0.755503 0.497322 1.22144e-20)
(0.759633 0.518285 -2.00398e-20)
(0.75654 0.544688 1.5701e-20)
(0.749875 0.568758 -3.15342e-21)
(0.744883 0.575927 3.44461e-21)
(0.746175 0.550997 -4.70983e-21)
(0.755987 0.484721 -1.05921e-20)
(0.773948 0.376755 2.57106e-20)
(0.798154 0.234839 -4.60999e-21)
(0.826426 0.0730146 -3.25588e-20)
(0.856307 -0.0900759 1.0146e-20)
(0.884493 -0.234354 2.41027e-20)
(0.90732 -0.344822 -1.04878e-20)
(0.922167 -0.416344 1.31955e-20)
(0.928433 -0.453137 -2.14577e-20)
(0.927282 -0.464329 1.21875e-20)
(0.92032 -0.45986 4.13259e-21)
(0.350952 0.236327 6.33138e-20)
(0.394423 0.230947 -7.31492e-20)
(0.440328 0.216784 2.26813e-20)
(0.487926 0.193363 3.87582e-20)
(0.536414 0.16053 -1.27545e-20)
(0.58503 0.118402 -2.87455e-20)
(0.633043 0.0671593 -1.98385e-20)
(0.680199 0.00685886 2.26619e-20)
(0.72624 -0.0603807 3.38354e-20)
(0.770616 -0.135268 -2.5206e-20)
(0.812668 -0.215796 1.64665e-21)
(0.850967 -0.298611 -5.23281e-20)
(0.883167 -0.378608 1.56436e-20)
(0.906583 -0.449605 2.66165e-20)
(0.919095 -0.505971 8.19221e-21)
(0.919974 -0.544289 -2.54666e-20)
(0.910146 -0.564191 3.98133e-20)
(0.891797 -0.567992 -2.82263e-20)
(0.867604 -0.559516 7.93676e-22)
(0.840008 -0.542805 2.27388e-20)
(0.810777 -0.521266 -1.83132e-20)
(0.780894 -0.497345 9.93535e-21)
(0.750693 -0.472589 -3.82027e-21)
(0.719975 -0.448099 9.46214e-22)
(0.687781 -0.425327 -1.14626e-20)
(0.65211 -0.406451 7.26266e-21)
(0.61071 -0.393046 -8.2267e-21)
(0.563367 -0.383266 7.44266e-21)
(0.514072 -0.369992 1.03076e-21)
(0.470771 -0.342551 6.25039e-22)
(0.441892 -0.291977 -8.91894e-21)
(0.431899 -0.216199 -1.73054e-21)
(0.439961 -0.120775 1.48462e-20)
(0.462511 -0.0152519 -3.33073e-21)
(0.495528 0.0899769 -6.40674e-21)
(0.535032 0.18743 1.25355e-20)
(0.577242 0.271485 -9.35237e-21)
(0.618777 0.339573 3.07966e-21)
(0.657024 0.391647 1.85561e-21)
(0.690443 0.429353 -4.96315e-21)
(0.718265 0.455587 -2.16391e-21)
(0.739705 0.474856 7.0749e-21)
(0.753599 0.493277 -5.07722e-21)
(0.759242 0.516267 7.37702e-21)
(0.757876 0.544186 -8.43763e-21)
(0.753305 0.569205 -2.71741e-21)
(0.750755 0.576907 7.10006e-21)
(0.754673 0.552354 1.68014e-21)
(0.767051 0.486493 -2.18229e-21)
(0.787266 0.378968 -1.80138e-20)
(0.813225 0.237295 -8.33731e-21)
(0.842662 0.0752288 2.01173e-20)
(0.873113 -0.0885889 2.39901e-20)
(0.901203 -0.233696 -1.78275e-20)
(0.923175 -0.344662 -1.47962e-20)
(0.93654 -0.416165 2.70624e-20)
(0.940952 -0.452556 -1.31029e-20)
(0.937866 -0.46316 -1.04881e-20)
(0.929168 -0.45798 1.12978e-20)
(0.443267 0.210881 3.25002e-20)
(0.488643 0.197373 2.83596e-20)
(0.535657 0.174988 -5.22584e-21)
(0.583569 0.143521 -3.60925e-20)
(0.631669 0.103008 1.46042e-20)
(0.679156 0.0534565 5.36435e-20)
(0.726387 -0.00476084 -1.33828e-19)
(0.772644 -0.0703347 1.19157e-19)
(0.816942 -0.143505 -1.5018e-20)
(0.858855 -0.222085 -1.69313e-20)
(0.896495 -0.30269 -1.61259e-21)
(0.927225 -0.38018 5.28589e-20)
(0.948263 -0.448494 -7.04232e-20)
(0.95762 -0.502255 -2.33872e-20)
(0.954878 -0.538344 3.68523e-20)
(0.941338 -0.556611 2.42478e-20)
(0.919518 -0.559441 -5.51914e-20)
(0.892311 -0.550571 1.73488e-20)
(0.862245 -0.533862 1.22144e-20)
(0.831085 -0.51251 1.69709e-20)
(0.799768 -0.488782 -8.89332e-21)
(0.76857 -0.464091 -6.7823e-21)
(0.737295 -0.439339 -9.08995e-21)
(0.705177 -0.41562 1.28845e-20)
(0.670486 -0.394823 -1.29192e-22)
(0.630823 -0.378931 -1.68701e-21)
(0.584978 -0.367546 -2.64671e-21)
(0.535404 -0.355449 -9.08794e-22)
(0.488981 -0.333001 7.94782e-21)
(0.454539 -0.290384 -2.49278e-21)
(0.438284 -0.223204 -8.5933e-21)
(0.441001 -0.134892 -6.70348e-22)
(0.459575 -0.0342153 1.18395e-21)
(0.48985 0.0687412 -6.04183e-22)
(0.527631 0.165788 -3.67182e-21)
(0.568992 0.250976 7.61602e-21)
(0.610494 0.321279 2.97736e-21)
(0.649419 0.376136 -5.76374e-21)
(0.684044 0.416759 2.36363e-22)
(0.713349 0.445801 1.66794e-21)
(0.736311 0.467694 3.10137e-21)
(0.751671 0.48849 -3.51548e-21)
(0.758822 0.513467 5.5561e-21)
(0.759195 0.542844 -5.58986e-21)
(0.75672 0.568806 1.16937e-20)
(0.756594 0.577137 -7.77101e-21)
(0.763106 0.55317 8.65749e-21)
(0.778021 0.488017 8.82269e-21)
(0.800468 0.381274 -1.95154e-20)
(0.828169 0.240159 -4.87914e-22)
(0.858812 0.0780931 5.20618e-21)
(0.88992 -0.086292 2.48781e-20)
(0.917991 -0.232194 -1.88564e-21)
(0.939165 -0.343703 -1.61729e-20)
(0.951076 -0.415286 -1.43081e-20)
(0.953653 -0.451397 -3.23401e-21)
(0.948639 -0.461546 1.01387e-20)
(0.938205 -0.45579 4.99075e-21)
(0.491538 0.191228 -3.02397e-20)
(0.536212 0.178434 1.58144e-20)
(0.582553 0.157125 3.85215e-20)
(0.629881 0.127047 8.27985e-20)
(0.677534 0.0881553 -2.14591e-19)
(0.724814 0.0403829 1.26434e-19)
(0.772006 -0.0155747 -1.74987e-20)
(0.818308 -0.0797691 4.98201e-20)
(0.862699 -0.151067 -4.58017e-20)
(0.904344 -0.227508 -1.11082e-19)
(0.941069 -0.305647 4.11718e-20)
(0.970031 -0.380368 3.74413e-20)
(0.988438 -0.445802 1.21398e-20)
(0.994504 -0.496885 1.47922e-20)
(0.988146 -0.530807 1.1562e-20)
(0.971032 -0.547619 -5.43762e-20)
(0.94597 -0.549728 4.17593e-20)
(0.916015 -0.54074 -7.19729e-21)
(0.88374 -0.524298 1.55061e-20)
(0.850875 -0.503371 -3.34948e-20)
(0.8183 -0.480047 1.82853e-20)
(0.786232 -0.455615 4.60686e-21)
(0.75446 -0.430841 -2.02222e-21)
(0.722356 -0.406524 -7.07184e-21)
(0.688497 -0.384196 5.73288e-22)
(0.650561 -0.365948 -1.93417e-21)
(0.606638 -0.352503 4.69729e-22)
(0.557712 -0.340518 4.87331e-22)
(0.509266 -0.321828 -1.30558e-21)
(0.469951 -0.286427 2.07898e-21)
(0.447386 -0.227934 -3.18797e-21)
(0.444247 -0.147375 8.26832e-22)
(0.458329 -0.0521482 -1.10232e-21)
(0.485486 0.0478576 2.19912e-21)
(0.521262 0.14408 -1.70737e-21)
(0.561532 0.230093 -3.46742e-21)
(0.602786 0.302386 2.41101e-23)
(0.642199 0.359886 8.2116e-21)
(0.677867 0.40337 1.40129e-21)
(0.708519 0.435231 3.55249e-22)
(0.732905 0.459779 -6.54823e-21)
(0.74968 0.482954 2.62014e-21)
(0.758324 0.509876 -2.97015e-21)
(0.760438 0.540658 7.00271e-22)
(0.760049 0.56756 8.13034e-21)
(0.762318 0.576614 -3.75752e-21)
(0.771386 0.553434 -9.44567e-21)
(0.788802 0.489275 1.92376e-20)
(0.813452 0.383645 6.59914e-22)
(0.842898 0.243414 -4.52188e-21)
(0.874785 0.0816069 -2.73532e-20)
(0.906628 -0.0832124 2.58024e-20)
(0.934784 -0.229865 -5.50958e-21)
(0.955235 -0.341955 2.98475e-21)
(0.965734 -0.413711 -1.17231e-20)
(0.966501 -0.449662 6.06522e-21)
(0.959578 -0.45949 -1.27484e-20)
(0.947411 -0.453294 1.1661e-20)
(0.539982 0.172092 -5.85413e-20)
(0.583728 0.160014 -7.87553e-20)
(0.629261 0.139776 1.15431e-19)
(0.675953 0.111072 5.71509e-20)
(0.723161 0.0737609 -2.82252e-19)
(0.770276 0.027664 1.29351e-19)
(0.817429 -0.0264633 1.34779e-19)
(0.863712 -0.0887283 -1.56068e-19)