/*--------------------------------*- C++ -*----------------------------------*\
  =========                 |
  \\      /  F ield         | OpenFOAM: The Open Source CFD Toolbox
   \\    /   O peration     | Website:  https://openfoam.org
    \\  /    A nd           | Version:  7
     \\/     M anipulation  |
\*---------------------------------------------------------------------------*/
FoamFile
{
    version     2.0;
    format      ascii;
    class       volScalarField;
    location    "14";
    object      p;
}
// * * * * * * * * * * * * * * * * * * * * * * * * * * * * * * * * * * * * * //

dimensions      [1 -1 -2 0 0 0 0];

internalField   nonuniform List<scalar> 
4032
(
1
1
1
1
1
1
1
1
1
1
1
1.10731
6.88661
10.5748
10.7284
10.9331
11.1237
11.3056
11.4732
11.623
11.756
11.8627
11.9443
12.0038
1
1
1
1
1
1
1
1
1
1
1
1.06144
6.73444
10.5378
10.7047
10.9069
11.0967
11.2756
11.4398
11.5848
11.7114
11.8102
11.8814
11.9351
1
1
1
1
1
1
1
1
1
1
1
1.00389
6.38988
10.4795
10.653
10.8489
11.0359
11.2097
11.3689
11.5097
11.6341
11.7334
11.8028
11.8612
1
1
1
1
1
1
1
1
1
1
1
1.00004
5.86713
10.3677
10.5766
10.7641
10.9479
11.1149
11.2687
11.4051
11.5244
11.6143
11.6675
11.708
1
1
1
1
1
1
1
1
1
1
1
1
5.18305
10.1904
10.4863
10.6632
10.8397
10.9933
11.1306
11.2466
11.3425
11.4163
11.4584
11.5158
1
1
1
1
1
1
1
1
1
1
1
1
4.36124
9.90499
10.3763
10.5411
10.7018
10.835
10.9512
11.0503
11.1319
11.1939
11.2075
11.1665
1
1
1
1
1
1
1
1
1
1
1
1
3.4494
9.46204
10.2876
10.4374
10.5762
10.6783
10.7518
10.8051
10.8222
10.7813
10.705
10.6533
1
1
1
1
1
1
1
1
1
1
1
1
2.45893
8.77179
10.2196
10.3329
10.4394
10.508
10.5361
10.5333
10.4764
10.3855
10.2391
10.2073
1
1
1
1
1
1
1
1
1
1
1
1
1.49909
7.84003
10.2021
10.1959
10.2776
10.3091
10.2892
10.2234
10.0719
9.7931
9.02027
6.981
1
1
1
1
1
1
1
1
1
1
1
1
1.03361
6.53666
9.98774
9.90731
9.99538
10.0324
9.99284
9.87041
9.6301
9.1479
8.35071
6.27017
1
1
1
1
1
1
1
1
1
1
1
1
1.00002
4.76121
9.44006
9.76793
9.83898
9.80561
9.71371
9.52615
9.22147
8.65834
7.84688
5.92253
1
1
1
1
1
1
1
1
1
1
1
1
0.999999
2.89523
8.65626
9.62425
9.62083
9.58613
9.46347
9.22309
8.85224
8.28187
7.4111
5.84774
1
1
1
1
1
1
1
1
1
1
1
1
1
1.39351
7.56239
9.72
9.48151
9.35131
9.19315
8.91799
8.52075
7.97235
7.06761
5.89028
1
1
1
1
1
1
1
1
1
1
1
1
1
1.01708
5.75652
9.05813
9.12107
9.08299
8.92414
8.65169
8.25257
7.68495
6.85933
5.92706
1
1
1
1
1
1
1
1
1
1
1
1
1
0.999869
3.24001
8.29444
9.01654
8.94102
8.74497
8.4367
8.04887
7.47747
6.75854
5.98206
1
1
1
1
1
1
1
1
1
1
1
1
1
0.999966
1.36576
7.10534
9.07858
8.79229
8.54039
8.209
7.82938
7.3054
6.69452
6.03189
1
1
1
1
1
1
1
1
1
1
1
1
1
0.999994
1.0123
4.91928
8.48985
8.49662
8.30191
8.01452
7.65029
7.18404
6.65588
6.07023
1
1
1
1
1
1
1
1
1
1
1
1
1
1
0.99993
2.19671
7.62692
8.45436
8.185
7.88786
7.53016
7.09658
6.61574
6.09473
1
1
1
1
1
1
1
1
1
1
1
1
1
1
0.999982
1.11313
5.62708
8.23167
7.97934
7.73931
7.40656
7.00733
6.57081
6.11795
1
1
1
1
1
1
1
1
1
1
1
1
1
1
0.999997
1.00084
2.61482
7.31603
7.93156
7.67113
7.33132
6.94769
6.56247
6.22012
1
1
1
1
1
1
1
1
1
1
1
1
1
1
1
0.999999
1.19026
5.44878
7.86482
7.57445
7.25802
6.89955
6.65613
6.59096
1
1
1
1
1
1
1
1
1
1
1
1
1
1
1
1
1.00292
2.40524
6.86906
7.48283
7.17008
6.96608
7.03358
7.32502
1
1
1
1
1
1
1
1
1
1
1
1
1
1
1
1
1.00001
1.1443
4.79757
7.3987
7.24738
7.41471
7.87915
8.20611
1
1
1
1
1
1
1
1
1
1
1
1
1
1
1
1
1
1.002
2.00532
6.08172
7.50709
8.30479
8.80747
8.7665
1
1
1
1
1
1
1
1
1
1
1
1
1
1
1
1
1
1.00001
1.07499
3.56721
8.03771
9.54332
9.50192
9.121
1
1
1
1
1
1
1
1
1
1
1
1
1
1
1
1
1
1
1.00089
1.4965
8.22651
10.4794
9.77021
9.3023
1
1
1
1
1
1
1
1
1
1
1
1
1
1
1
1
1
1
1
1.14867
7.71938
10.582
9.93774
9.58313
1
1
1
1
1
1
1
1
1
1
1
1
1
1
1
1
1
1
1
1.00537
6.71406
10.5265
9.99234
9.70659
1
1
1
1
1
1
1
1
1
1
1
1
1
1
1
1
1
1
1
1.00004
5.87519
10.3641
10.0241
9.83268
1
1
1
1
1
1
1
1
1
1
1
1
1
1
1
1
1
1
1
1
5.07966
10.048
10.0903
9.90047
1
1
1
1
1
1
1
1
1
1
1
1
1
1
1
1
1
1
1
1
4.32987
9.8071
10.1411
9.9474
1
1
1
1
1
1
1
1
1
1
1
1
1
1
1
1
1
1
1
1
3.63069
9.59962
10.2324
10.0192
1
1
1
1
1
1
1
1
1
1
1
1
1
1
1
1
1
1
1
1
3.03975
9.39039
10.3334
10.0742
1
1
1
1
1
1
1
1
1
1
1
1
1
1
1
1
1
1
1
1
2.58131
9.15392
10.4107
10.1251
1
1
1
1
1
1
1
1
1
1
1
1
1
1
1
1
1
1
1
1
2.26647
8.91829
10.4586
10.1591
1
1
1
1
1
1
1
1
1
1
1
1
1
1
1
1
1
1
1
1
2.05414
8.68915
10.4813
10.1842
1
1
1
1
1
1
1
1
1
1
1
1
1
1
1
1
1
1
1
1
1.87695
8.50748
10.4908
10.2045
1
1
1
1
1
1
1
1
1
1
1
1
1
1
1
1
1
1
1
1
1.74359
8.37763
10.494
10.2262
1
1
1
1
1
1
1
1
1
1
1
1
1
1
1
1
1
1
1
1
1.67259
8.27828
10.4833
10.2327
1
1
1
1
1
1
1
1
1
1
1
1
1
1
1
1
1
1
1
1
1.64635
8.2206
10.4672
10.2293
1.89612
2.07154
2.6538
3.17245
3.4182
3.46323
3.44393
3.42921
3.39525
3.36072
3.35254
3.36374
3.39104
3.43708
3.48003
3.50431
3.50991
3.50797
3.51212
3.51839
3.53471
3.56288
3.60264
3.64373
3.67372
3.69088
3.70096
3.71002
3.72468
3.74886
3.78171
3.82169
3.86539
3.91041
3.95822
4.01131
4.07419
4.15223
4.25071
4.37317
4.51805
4.67583
4.83254
4.97356
5.09186
5.18002
5.23108
5.25015
5.25735
5.26398
5.2714
5.2758
5.27004
5.24624
5.20183
5.14696
5.09033
5.03562
4.9835
4.93356
4.88012
4.81597
4.74057
4.66507
4.60148
4.55441
4.52019
4.48124
4.40817
4.31519
4.23077
4.16294
4.11935
4.09337
4.04735
3.99323
3.93578
3.87564
3.82076
3.77466
3.73563
3.70176
3.67043
3.63836
3.60282
3.56753
3.54203
3.5299
3.5308
3.54316
3.56264
3.58424
3.59736
3.59771
3.59661
3.6461
3.2333
3.22214
3.22704
3.32357
3.40105
3.37326
3.36843
3.38739
3.39612
3.403
3.4226
3.44233
3.46738
3.50539
3.54341
3.5659
3.56739
3.55703
3.5495
3.55235
3.56613
3.58937
3.61732
3.64367
3.66618
3.68408
3.69949
3.71408
3.72837
3.74612
3.76915
3.79948
3.83926
3.88562
3.93442
3.98526
4.04244
4.11507
4.2119
4.3361
4.48127
4.62942
4.76331
4.87865
4.98217
5.08012
5.16746
5.22687
5.24326
5.22748
5.20666
5.19333
5.18699
5.17986
5.15915
5.11485
5.05331
4.99046
4.9361
4.88912
4.84766
4.80877
4.7557
4.68176
4.60153
4.52885
4.46939
4.4289
4.3907
4.3264
4.25096
4.18069
4.12473
4.07295
4.0207
3.96974
3.92217
3.87894
3.83719
3.79282
3.74648
3.70117
3.66178
3.62905
3.60069
3.57675
3.55635
3.53877
3.52725
3.52832
3.54618
3.57141
3.59478
3.61874
3.6356
3.66001
3.93898
3.7827
3.3763
3.23945
3.31073
3.34061
3.39236
3.44941
3.50079
3.52767
3.53642
3.52888
3.49986
3.48264
3.48295
3.50059
3.51867
3.52114
3.51904
3.52251
3.54029
3.5729
3.61005
3.63838
3.6562
3.66808
3.681
3.70444
3.73746
3.77178
3.80245
3.82607
3.85262
3.89486
3.95019
4.01201
4.0741
4.13563
4.21006
4.31408
4.45311
4.6147
4.7708
4.8933
4.98281
5.05708
5.13268
5.21518
5.27814
5.2889
5.25797
5.21762
5.18456
5.16895
5.16263
5.15003
5.11476
5.05265
4.9799
4.90544
4.83705
4.78706
4.75004
4.70651
4.64174
4.56176
4.48056
4.41159
4.35476
4.30087
4.25166
4.20607
4.15475
4.09336
4.02479
3.95149
3.88506
3.84176
3.81379
3.78814
3.75954
3.7182
3.66279
3.60861
3.57595
3.5624
3.5599
3.56199
3.55751
3.54194
3.52109
3.51352
3.54396
3.60267
3.66413
3.71812
4.35499
4.20795
3.71389
3.43907
3.51512
3.53754
3.51449
3.53749
3.56207
3.55112
3.50679
3.49433
3.4831
3.45829
3.423
3.41541
3.44216
3.48818
3.5286
3.54585
3.54438
3.54524
3.56643
3.60944
3.65803
3.68824
3.69424
3.69582
3.71126
3.74589
3.79339
3.83479
3.85803
3.88134
3.92241
3.98438
4.06171
4.14043
4.20996
4.28359
4.37721
4.49618
4.63993
4.78204
4.88623
4.96342
5.02749
5.08754
5.1516
5.20253
5.1962
5.15182
5.09817
5.05757
5.05014
5.05925
5.05992
5.02399
4.96671
4.89874
4.83291
4.77755
4.72523
4.66701
4.60434
4.53963
4.48053
4.42493
4.36335
4.29394
4.22434
4.1676
4.12175
4.07855
4.03382
3.98078
3.9154
3.84235
3.78453
3.75709
3.73695
3.71189
3.67858
3.63655
3.59022
3.55068
3.53305
3.53999
3.55383
3.5635
3.56243
3.55464
3.55239
3.58068
3.6344
3.71232
4.74882
4.53439
4.13683
3.71497
3.66559
3.58647
3.43344
3.43528
3.52133
3.60132
3.56138
3.49836
3.52553
3.55936
3.54753
3.51173
3.49174
3.51364
3.56867
3.62755
3.65112
3.63762
3.61977
3.6228
3.65518
3.70431
3.73565
3.73795
3.73194
3.74017
3.7768
3.84006
3.89866
3.93121
3.95457
3.99339
4.05866
4.1455
4.23655
4.30797
4.36675
4.42671
4.50799
4.62812
4.74949
4.8409
4.91289
4.96911
5.03281
5.11761
5.1511
5.14282
5.11041
5.08855
5.07836
5.06359
5.03672
4.98313
4.91696
4.86345
4.82357
4.77683
4.72321
4.66062
4.58891
4.52107
4.46894
4.42307
4.37424
4.31593
4.24017
4.1556
4.09147
4.04826
4.01194
3.97587
3.9327
3.87415
3.80075
3.73422
3.69748
3.67636
3.65854
3.6401
3.61691
3.58318
3.54226
3.51291
3.51127
3.52792
3.55442
3.58655
3.6187
3.64555
3.65323
3.68903
5.06102
4.73444
4.40355
3.98072
3.83859
3.74761
3.57155
3.50088
3.63642
3.88112
3.91381
3.72951
3.62103
3.63998
3.66892
3.6347
3.5883
3.54953
3.55087
3.60785
3.67682
3.69453
3.66898
3.64218
3.64381
3.68859
3.7453
3.76199
3.74662
3.73181
3.74298
3.79495
3.86851
3.91944
3.94438
3.97839
4.03439
4.11093
4.19209
4.25331
4.30213
4.35387
4.41494
4.50373
4.58357
4.62561
4.66656
4.72273
4.79876
4.89965
4.97039
4.99631
5.01097
5.02746
5.03821
5.0442
5.02405
4.98179
4.92704
4.87187
4.82456
4.77785
4.71465
4.63642
4.54762
4.47997
4.44181
4.40497
4.36482
4.31625
4.24905
4.15706
4.06979
4.01786
3.98223
3.95021
3.91767
3.87813
3.82054
3.74097
3.67349
3.64447
3.62898
3.61732
3.60617
3.59144
3.56258
3.52365
3.50532
3.51638
3.54815
3.59757
3.64804
3.68767
3.70473
3.70066
5.27831
4.91331
4.56413
4.19573
3.91677
3.89117
3.84031
3.8655
4.10945
4.48304
4.4396
4.19109
3.88678
3.77179
3.77429
3.75475
3.69397
3.63318
3.60629
3.63251
3.69749
3.72072
3.69048
3.65961
3.65023
3.67564
3.73434
3.76726
3.75641
3.74134
3.74299
3.76846
3.81782
3.88344
3.93962
3.98972
4.0449
4.10373
4.16203
4.22093
4.28411
4.36042
4.44205
4.48943
4.50977
4.52191
4.53
4.56353
4.61936
4.69154
4.74987
4.78692
4.81527
4.8455
4.86798
4.89255
4.91491
4.91543
4.8929
4.87037
4.84408
4.79454
4.73502
4.6525
4.53971
4.45339
4.41119
4.37623
4.34251
4.304
4.25368
4.17717
4.07462
3.99511
3.95143
3.91936
3.89025
3.85961
3.82073
3.76126
3.68055
3.62582
3.60616
3.59606
3.59014
3.5829
3.5707
3.5457
3.52289
3.53071
3.56137
3.61246
3.67438
3.71257
3.72633
3.72018
5.43037
5.05355
4.70733
4.34837
4.06108
4.0919
4.2089
4.43433
4.75978
5.15834
5.01545
4.71183
4.34174
4.04555
3.9371
3.88911
3.81709
3.74571
3.71706
3.72322
3.76872
3.79948
3.77787
3.7394
3.72121
3.72563
3.7629
3.80391
3.80308
3.78841
3.78005
3.78382
3.80732
3.86037
3.92558
3.97251
4.01029
4.04536
4.08442
4.13285
4.19073
4.27413
4.36612
4.39874
4.4275
4.44875
4.45414
4.47072
4.50553
4.54399
4.58187
4.61392
4.64091
4.6656
4.69061
4.72867
4.77656
4.79341
4.77984
4.76882
4.76287
4.75707
4.71864
4.65947
4.56389
4.45237
4.37851
4.3372
4.30193
4.27009
4.23394
4.18311
4.10193
3.99918
3.92353
3.88375
3.85254
3.82361
3.7965
3.76399
3.70446
3.62465
3.58564
3.57092
3.56557
3.56506
3.5652
3.56422
3.55559
3.56052
3.58799
3.63101
3.68508
3.72445
3.74069
3.75496
5.53498
5.16931
4.8612
4.5558
4.41364
4.55171
4.82709
5.08273
5.30036
5.59619
5.51846
5.24582
4.8747
4.49052
4.23794
4.13129
4.03749
3.93915
3.86875
3.84899
3.86712
3.90433
3.90415
3.87267
3.8332
3.81086
3.81102
3.83883
3.85327
3.8384
3.81481
3.80435
3.80683
3.82855
3.8777
3.91407
3.93553
3.95777
3.98464
4.02849
4.08384
4.17081
4.26564
4.29387
4.33705
4.38416
4.40265
4.41038
4.43213
4.45923
4.48452
4.49766
4.49805
4.49127
4.49984
4.5416
4.61325
4.64737
4.63879
4.63299
4.64426
4.65371
4.66194
4.63334
4.58239
4.49284
4.37881
4.30109
4.25597
4.2215
4.19341
4.15994
4.11133
4.03526
3.93763
3.86262
3.82336
3.80077
3.78257
3.75375
3.70808
3.64255
3.58079
3.55276
3.54463
3.5469
3.56343
3.58474
3.6003
3.60808
3.62352
3.64725
3.67463
3.71296
3.75448
3.79229
5.60269
5.31185
5.11606
5.03706
5.03898
5.18388
5.40595
5.49661
5.571
5.79706
5.80144
5.61582
5.29926
4.92989
4.60136
4.42135
4.30241
4.18576
4.0823
4.00628
3.98249
4.00287
4.01738
3.98741
3.93257
3.88521
3.86574
3.87261
3.89234
3.87633
3.84335
3.81499
3.80025
3.79248
3.81107
3.82745
3.82931
3.84136
3.85632
3.8973
3.95654
4.02809
4.13415
4.19224
4.23089
4.30401
4.34622
4.35733
4.37899
4.40102
4.41792
4.42001
4.40312
4.3874
4.39466
4.40911
4.44649
4.47365
4.47621
4.46388
4.4818
4.50972
4.54086
4.56817
4.55294
4.50476
4.41805
4.31158
4.22617
4.16827
4.12871
4.09921
4.07247
4.03338
3.97
3.89063
3.81417
3.75473
3.71441
3.68746
3.66733
3.64546
3.61174
3.56771
3.54261
3.53984
3.5552
3.60007
3.64402
3.66399
3.67312
3.6768
3.691
3.71875
3.76281
3.82531
5.71314
5.61836
5.67694
5.78925
5.74496
5.72193
5.79975
5.78934
5.77547
5.95605
6.02268
5.89412
5.60201
5.2682
4.9485
4.72324
4.55179
4.40284
4.29456
4.20081
4.12234
4.09635
4.10174
4.08014
4.03045
3.97524
3.94028
3.92656
3.93499
3.91848
3.88249
3.84036
3.80772
3.78902
3.78486
3.78927
3.7798
3.76897
3.77055
3.78279
3.82455
3.89001
3.97893
4.07829
4.12021
4.19836
4.2663
4.28704
4.31901
4.35384
4.36944
4.36607
4.33313
4.29981
4.29849
4.31138
4.33407
4.34203
4.33378
4.3008
4.28534
4.32467
4.38007
4.43113
4.46096
4.44993
4.40939
4.33898
4.23977
4.1463
4.07956
4.03609
4.00538
3.979
3.95079
3.90385
3.82293
3.73049
3.67293
3.64634
3.63172
3.62631
3.61765
3.59905
3.56693
3.55625
3.57029
3.60915
3.67232
3.71644
3.7294
3.7287
3.73554
3.75394
3.78541
3.84812
6.08294
6.2681
6.39979
6.4338
6.21154
6.05724
6.08419
6.07292
6.03129
6.15581
6.23385
6.12511
5.85972
5.53975
5.23224
5.01979
4.83766
4.62555
4.46566
4.39057
4.30364
4.21505
4.18164
4.16878
4.12685
4.07469
4.0317
4.00449
3.99429
3.97418
3.93319
3.88177
3.83588
3.80457
3.78233
3.76484
3.74294
3.71692
3.69286
3.67501
3.6818
3.73202
3.80726
3.91275
3.97852
4.04286
4.13828
4.19232
4.24196
4.29964
4.32078
4.32185
4.28994
4.23916
4.22634
4.23061
4.23514
4.23303
4.22493
4.20967
4.17071
4.15208
4.19171
4.25034
4.30014
4.32817
4.33495
4.30767
4.25
4.16514
4.06363
3.98449
3.94487
3.91914
3.896
3.86728
3.82012
3.73805
3.65233
3.61903
3.60649
3.60465
3.61313
3.61827
3.61375
3.60458
3.61695
3.64499
3.69135
3.75055
3.78175
3.79175
3.79725
3.80816
3.82296
3.8594
6.80274
6.99152
7.01384
6.85921
6.53237
6.32618
6.34966
6.3628
6.31548
6.37509
6.44367
6.34717
6.11305
5.8184
5.5108
5.27736
5.11579
4.91357
4.67542
4.54595
4.48604
4.39199
4.31658
4.2727
4.22516
4.1701
4.12621
4.09867
4.08311
4.04975
4.00089
3.9381
3.87886
3.83776
3.80333
3.76465
3.72522
3.68831
3.64473
3.61165
3.59584
3.59689
3.64203
3.7152
3.79386
3.85014
3.94717
4.04041
4.12405
4.21722
4.26286
4.27188
4.25528
4.19449
4.15433
4.14959
4.15033
4.14692
4.14065
4.1291
4.10287
4.05309
4.03291
4.05771
4.09613
4.14811
4.19035
4.21183
4.19931
4.1536
4.07345
3.97509
3.89711
3.8597
3.83515
3.81074
3.7814
3.73723
3.66848
3.6085
3.59367
3.59104
3.60502
3.64057
3.66241
3.67238
3.69053
3.70856
3.7286
3.76389
3.81497
3.84881
3.85953
3.86505
3.86348
3.86677
7.53917
7.5031
7.40746
7.14628
6.80173
6.60695
6.63929
6.64851
6.57725
6.59185
6.65855
6.59041
6.38662
6.10551
5.81002
5.56201
5.37663
5.19883
4.97113
4.75361
4.65616
4.58168
4.50206
4.43384
4.36175
4.28248
4.22667
4.1944
4.17598
4.13865
4.082
4.00555
3.92652
3.87478
3.827
3.77483
3.72264
3.67171
3.61646
3.55745
3.52348
3.49932
3.49552
3.52249
3.58191
3.63304
3.70656
3.82655
3.94596
4.07669
4.18898
4.2103
4.20726
4.16693
4.09429
4.05706
4.05317
4.07323
4.07852
4.06371
4.03957
3.99919
3.93741
3.90535
3.91367
3.94445
3.99927
4.05965
4.08355
4.07737
4.04794
3.97812
3.88662
3.81351
3.78235
3.75818
3.73407
3.70993
3.67905
3.63106
3.60072
3.59846
3.6143
3.66373
3.72199
3.75536
3.77281
3.77747
3.78123
3.79821
3.8341
3.88389
3.90639
3.90928
3.89791
3.86543
8.09167
7.85335
7.67491
7.38895
7.05918
6.88484
6.91527
6.90849
6.81111
6.79733
6.86251
6.8223
6.64528
6.37572
6.0898
5.85689
5.66163
5.47517
5.26419
5.02126
4.86731
4.78412
4.6993
4.60998
4.5151
4.4108
4.33908
4.2935
4.25886
4.21494
4.15325
4.06944
3.97584
3.91115
3.85025
3.78884
3.72671
3.6637
3.59866
3.53201
3.47472
3.4414
3.41503
3.39717
3.41117
3.4476
3.48518
3.57561
3.70431
3.85467
4.021
4.12265
4.14287
4.12663
4.06895
4.00086
3.97616
3.97241
3.99397
4.00574
3.98752
3.94836
3.87776
3.82803
3.80742
3.80164
3.81521
3.8599
3.90978
3.94679
3.95748
3.94042
3.88837
3.79685
3.73787
3.71442
3.69855
3.68663
3.67513
3.66248
3.63898
3.63326
3.6561
3.70593
3.77938
3.84123
3.85854
3.857
3.85007
3.85439
3.87138
3.90965
3.92788
3.92206
3.89536
3.85176
8.41348
8.13296
7.93729
7.67491
7.35337
7.1752
7.18968
7.17246
7.04861
6.99106
7.03689
7.0113
6.85714
6.60681
6.3368
6.12768
5.9484
5.75195
5.53899
5.29276
5.09916
4.99246
4.90363
4.79213
4.66466
4.53088
4.45097
4.39136
4.33942
4.28661
4.21828
4.12742
4.01933
3.94161
3.87561
3.80839
3.74153
3.6739
3.60333
3.53006
3.45701
3.40243
3.36475
3.34196
3.32359
3.3218
3.33408
3.35575
3.43997
3.57038
3.74296
3.9255
4.02662
4.05404
4.03529
3.97507
3.92648
3.91755
3.91994
3.90301
3.87559
3.84469
3.81168
3.77706
3.75414
3.72902
3.70246
3.69551
3.71996
3.76353
3.81943
3.84964
3.8375
3.79069
3.71444
3.68381
3.67585
3.67767
3.68122
3.69072
3.69087
3.6961
3.73092
3.77476
3.83238
3.9011
3.93453
3.93804
3.92614
3.91265
3.90951
3.91439
3.9185
3.90574
3.88036
3.84868
8.66039
8.37528
8.19084
7.96497
7.65207
7.45967
7.45701
7.44197
7.30234
7.18945
7.19945
7.17725
7.04328
6.8118
6.5557
6.35657
6.19317
5.99314
5.7707
5.5339
5.31562
5.17844
5.08424
4.96591
4.81205
4.64593
4.55979
4.49009
4.41842
4.35157
4.27598
4.18126
4.06633
3.97461
3.90645
3.83954
3.77114
3.70199
3.62953
3.54892
3.46245
3.38357
3.32832
3.29809
3.27572
3.25402
3.23647
3.21927
3.21863
3.2806
3.42104
3.61476
3.78826
3.92478
3.96517
3.94623
3.90739
3.89618
3.87259
3.83772
3.79389
3.74919
3.72183
3.70848
3.69732
3.67448
3.63077
3.57307
3.56383
3.58683
3.63979
3.71551
3.74666
3.7397
3.69673
3.66982
3.66025
3.6666
3.70275
3.74762
3.77276
3.80352
3.84095
3.87204
3.90581
3.95063
3.99418
4.00159
3.99077
3.96257
3.92656
3.91215
3.90688
3.89754
3.88219
3.86737
8.92638
8.67381
8.50573
8.29353
7.9757
7.7444
7.7083
7.6891
7.54744
7.38688
7.35611
7.33249
7.22506
7.02295
6.78099
6.57681
6.40908
6.20765
5.96597
5.73935
5.52376
5.34627
5.23231
5.12299
4.96757
4.7769
4.658
4.58465
4.50255
4.42053
4.33634
4.2399
4.12352
4.01779
3.94612
3.88121
3.81437
3.74555
3.67226
3.587
3.48618
3.39282
3.33279
3.28461
3.24398
3.20599
3.1634
3.1134
3.07676
3.07133
3.12615
3.28504
3.47982
3.66394
3.83015
3.88801
3.8946
3.87039
3.82666
3.77304
3.72249
3.68948
3.6702
3.65215
3.62696
3.59839
3.56117
3.49527
3.44629
3.44876
3.47695
3.5439
3.61915
3.64758
3.64653
3.6356
3.64802
3.67644
3.7323
3.81614
3.89448
3.94738
3.97056
3.97882
3.9835
3.99663
4.02339
4.03368
4.02082
3.99173
3.9496
3.92369
3.91265
3.90772
3.91488
3.90475
9.19272
8.90678
8.75699
8.55985
8.26407
8.04483
7.99192
7.9576
7.80357
7.59531
7.49969
7.47026
7.39432
7.22431
6.99408
6.77199
6.5925
6.40379
6.16015
5.92145
5.72968
5.53281
5.37523
5.26422
5.12796
4.94542
4.77006
4.67553
4.59545
4.5067
4.40994
4.30676
4.19166
4.07302
3.98639
3.92285
3.85963
3.79271
3.71934
3.63417
3.53384
3.4232
3.32921
3.25931
3.20084
3.15109
3.10248
3.05567
2.99708
2.95116
2.9444
2.98819
3.14024
3.33563
3.54874
3.73978
3.81459
3.81889
3.78004
3.71352
3.67154
3.64414
3.62573
3.60714
3.58051
3.54911
3.51077
3.45211
3.38061
3.35382
3.3594
3.391
3.46134
3.52602
3.56649
3.59851
3.64656
3.7105
3.79696
3.89597
3.9983
4.07419
4.08628
4.0785
4.0482
4.03631
4.04507
4.05739
4.04419
4.01784
3.9808
3.95109
3.94081
3.9379
3.9474
3.92968
9.40005
9.17988
9.05415
8.84426
8.54199
8.31966
8.22986
8.1782
8.01624
7.79251
7.66736
7.63908
7.58579
7.43104
7.20142
6.95555
6.75714
6.57761
6.3611
6.1059
5.90671
5.73537
5.54413
5.39544
5.27494
5.11826
4.93106
4.78252
4.70005
4.61592
4.51432
4.39447
4.26583
4.16594
4.09224
4.02446
3.95568
3.88197
3.80104
3.70821
3.59842
3.47543
3.36181
3.27182
3.19368
3.12324
3.06141
3.00459
2.94564
2.88965
2.86234
2.85277
2.89069
3.00671
3.20312
3.45449
3.65705
3.71299
3.70054
3.65524
3.62749
3.60047
3.57369
3.54843
3.52272
3.49388
3.46037
3.41736
3.35719
3.29869
3.2812
3.28809
3.3242
3.39565
3.47398
3.56536
3.67644
3.79071
3.89176
3.98
4.08432
4.15679
4.16603
4.15207
4.11159
4.07239
4.05565
4.05582
4.06208
4.04569
4.01801
3.98046
3.95496
3.94491
3.94874
3.93907
9.63099
9.43626
9.24588
9.02578
8.7942
8.59781
8.47682
8.40433
8.22166
7.98334
7.83196
7.77974
7.73815
7.60407
7.38651
7.14407
6.95511
6.78894
6.59687
6.3548
6.12749
5.97355
5.77506
5.56195
5.4124
5.29652
5.1378
4.94738
4.78167
4.6879
4.61176
4.51364
4.38346
4.24335
4.11515
4.01155
3.92818
3.852
3.77234
3.68291
3.58031
3.4705
3.36769
3.2733
3.18615
3.10557
3.03044
2.96045
2.9029
2.86014
2.82194
2.78535
2.76975
2.78854
2.87718
3.08509
3.3637
3.54591
3.60854
3.60663
3.59658
3.56401
3.51592
3.47016
3.44631
3.42755
3.40603
3.37981
3.34421
3.28908
3.23683
3.22694
3.24099
3.29934
3.40236
3.5431
3.71101
3.86624
3.97955
4.05194
4.11959
4.19196
4.22777
4.21705
4.17868
4.12008
4.07265
4.05174
4.04754
4.05016
4.034
4.01129
3.97871
3.95085
3.93834
3.91938
9.74226
9.57131
9.38699
9.18557
8.9808
8.79441
8.66071
8.54162
8.35445
8.14488
8.00082
7.92632
7.89074
7.75427
7.53194
7.27997
7.07886
6.91125
6.72557
6.51953
6.28452
6.08899
5.96382
5.79452
5.60441
5.41341
5.26561
5.12437
4.96581
4.81321
4.6822
4.5793
4.48335
4.35716
4.21012
4.06954
3.95645
3.86591
3.78112
3.69081
3.59223
3.48946
3.38721
3.28891
3.1963
3.11064
3.03217
2.96252
2.90228
2.84694
2.78792
2.73122
2.68582
2.67677
2.69004
2.7676
2.98224
3.24586
3.47036
3.56213
3.56149
3.53195
3.46764
3.38825
3.35474
3.34206
3.33707
3.33827
3.32011
3.28693
3.23551
3.20603
3.21967
3.27321
3.3856
3.56215
3.75809
3.91651
4.02544
4.08485
4.12292
4.16316
4.21876
4.23613
4.21757
4.17319
4.11444
4.0778
4.05671
4.04937
4.03894
4.01956
3.99445
3.95769
3.93075
3.90144
9.82097
9.66631
9.49269
9.30315
9.11215
8.95383
8.82707
8.67851
8.48274
8.28737
8.1355
8.03755
7.96136
7.81264
7.60341
7.38681
7.20293
7.05134
6.88458
6.6818
6.44653
6.23729
6.07255
5.91078
5.74142
5.54922
5.35408
5.18449
5.04281
4.90544
4.76817
4.63911
4.51253
4.38644
4.25503
4.12132
3.99993
3.89177
3.7909
3.69302
3.59589
3.50035
3.40661
3.31532
3.227
3.14023
3.05458
2.97262
2.90035
2.83271
2.76884
2.70997
2.65605
2.6165
2.60305
2.60362
2.67829
2.8874
3.16795
3.42456
3.49261
3.48274
3.42783
3.3342
3.27622
3.26452
3.26909
3.29414
3.29388
3.27678
3.25406
3.22698
3.24309
3.31253
3.44498
3.6295
3.81284
3.93926
4.01558
4.07313
4.11241
4.14527
4.18391
4.22222
4.21853
4.18999
4.14474
4.10981
4.08573
4.06806
4.05174
4.02817
3.99912
3.95366
3.91343
3.881
9.90093
9.74465
9.58088
9.41253
9.24311
9.08621
8.92859
8.74998
8.55424
8.36765
8.22546
8.13481
8.03598
7.88818
7.70399
7.50891
7.33314
7.18678
7.0105
6.79791
6.55795
6.3527
6.188
6.02116
5.84722
5.66318
5.46658
5.28155
5.12314
4.97859
4.83784
4.70074
4.56514
4.42749
4.28951
4.1576
4.03389
3.91586
3.80258
3.6974
3.60134
3.50995
3.42028
3.33321
3.25068
3.16859
3.08263
2.99117
2.90006
2.81961
2.75358
2.69977
2.64956
2.60104
2.56148
2.52818
2.5172
2.59223
2.80386
3.10105
3.33826
3.39096
3.37573
3.31086
3.23372
3.20818
3.21142
3.23793
3.25675
3.2582
3.26262
3.26073
3.29666
3.41399
3.57028
3.70854
3.84344
3.93344
3.97639
4.02043
4.06595
4.10437
4.14078
4.1832
4.20206
4.1875
4.15689
4.13039
4.10877
4.0906
4.07174
4.04552
4.011
3.95703
3.90452
3.87169
9.93885
9.78134
9.62499
9.46419
9.31358
9.16082
8.99462
8.81232
8.63173
8.46786
8.3401
8.22608
8.09143
7.92632
7.74646
7.56537
7.40824
7.2745
7.09985
6.88395
6.65332
6.45931
6.29304
6.11922
5.9365
5.74845
5.55455
5.37018
5.20273
5.04528
4.89357
4.74689
4.60217
4.45782
4.31798
4.18884
4.06915
3.95304
3.8362
3.72081
3.61342
3.51728
3.42854
3.34635
3.27009
3.19417
3.11146
3.01542
2.9082
2.8113
2.74332
2.69212
2.64754
2.59936
2.54926
2.49991
2.44237
2.42529
2.4951
2.72206
3.00367
3.22164
3.29909
3.28954
3.23578
3.18174
3.17325
3.17964
3.19766
3.22917
3.26549
3.31657
3.46249
3.63199
3.72187
3.78709
3.85821
3.91804
3.94101
3.96145
3.99349
4.03841
4.08371
4.13171
4.17575
4.18118
4.1656
4.14511
4.12459
4.10333
4.08159
4.05287
4.01527
3.96676
3.9176
3.88708
9.98641
9.83297
9.68114
9.52789
9.37721
9.20749
9.02748
8.8525
8.6931
8.55742
8.43511
8.29952
8.13551
7.95054
7.76956
7.62472
7.51492
7.37519
7.17398
6.94154
6.7241
6.54909
6.38759
6.21183
6.01816
5.81125
5.61691
5.44124
5.27756
5.11889
4.96017
4.79933
4.63855
4.48645
4.34933
4.22571
4.11041
3.99737
3.88044
3.75561
3.62884
3.51877
3.43027
3.35465
3.28389
3.21206
3.13219
3.03524
2.92175
2.81488
2.73796
2.68442
2.64178
2.59693
2.54678
2.49091
2.42642
2.35129
2.33772
2.41316
2.64466
2.92218
3.15758
3.23075
3.22437
3.17597
3.13159
3.12593
3.13944
3.19909
3.2953
3.47052
3.70685
3.82151
3.84704
3.86261
3.87988
3.90959
3.92311
3.92734
3.93546
3.96274
4.00918
4.06113
4.11897
4.1573
4.15897
4.14641
4.12684
4.10359
4.07955
4.05233
4.01861
3.98503
3.94702
3.91887
10.0236
9.87285
9.72443
9.57107
9.41127
9.24364
9.07687
8.91634
8.76935
8.63326
8.48018
8.30632
8.12865
7.97085
7.8462
7.74533
7.61922
7.42985
7.20315
6.97776
6.80282
6.65217
6.48373
6.29384
6.0732
5.84761
5.66651
5.50377
5.34591
5.18894
5.02534
4.84758
4.66698
4.50851
4.37553
4.25776
4.14786
4.03991
3.92346
3.78967
3.64748
3.52326
3.4299
3.35585
3.28842
3.21973
3.14347
3.05108
2.94029
2.83122
2.74341
2.67714
2.62967
2.58977
2.54734
2.49707
2.42754
2.34344
2.29451
2.29413
2.38541
2.61242
2.90059
3.12433
3.17094
3.157
3.10102
3.07945
3.11152
3.20712
3.40634
3.68495
3.90157
3.95029
3.9348
3.90909
3.90185
3.91221
3.92206
3.91611
3.90821
3.90943
3.93272
3.9793
4.03771
4.10055
4.13175
4.13073
4.11107
4.08563
4.06422
4.04198
4.02113
3.9993
3.97696
3.95818
10.0565
9.90942
9.76282
9.61073
9.44975
9.28626
9.12463
8.96765
8.8184
8.66591
8.49743
8.32669
8.17212
8.03957
7.92939
7.81574
7.64562
7.43402
7.21621
7.03806
6.88403
6.73576
6.55261
6.34314
6.10362
5.88681
5.71823
5.56161
5.40478
5.24758
5.07974
4.88652
4.69334
4.53513
4.40596
4.28958
4.17622
4.06493
3.95041
3.81792
3.67129
3.54244
3.44081
3.35738
3.28399
3.21226
3.13602
3.05124
2.95356
2.85189
2.76357
2.68955
2.62522
2.57329
2.525
2.46578
2.40318
2.3461
2.29966
2.26808
2.26888
2.36047
2.57897
2.85494
3.06451
3.10914
3.07875
3.07065
3.13202
3.31663
3.59594
3.87422
3.99617
4.00664
3.97856
3.93568
3.91919
3.92022
3.92931
3.92071
3.90543
3.8848
3.87973
3.89846
3.9468
4.00875
4.0644
4.09047
4.0824
4.05636
4.03674
4.02294
4.02087
4.02919
4.03098
4.04934
10.0793
9.93297
9.78818
9.63796
9.48255
9.32515
9.16786
9.01142
8.85455
8.68803
8.51765
8.35814
8.21751
8.09492
7.98623
7.84394
7.64756
7.43729
7.25267
7.09238
6.9563
6.789
6.59435
6.36983
6.13429
5.93543
5.76887
5.61533
5.46052
5.29546
5.10893
4.90981
4.72431
4.5667
4.43185
4.31641
4.21
4.09579
3.96488
3.82606
3.69268
3.57198
3.46113
3.36039
3.27514
3.20165
3.1276
3.04662
2.95815
2.87131
2.79154
2.71016
2.63077
2.56201
2.51101
2.45931
2.39695
2.34086
2.29861
2.26862
2.23333
2.22936
2.30997
2.51439
2.79585
3.00121
3.02998
3.08745
3.25365
3.53473
3.81036
3.9789
4.03093
4.02065
3.98294
3.95922
3.94474
3.93711
3.93653
3.92278
3.90041
3.87294
3.85486
3.85508
3.87245
3.91545
3.9626
4.005
4.03252
4.02295
4.01166
4.01494
4.02727
4.06195
4.09471
4.14135
10.1033
9.95756
9.81402
9.66422
9.51155
9.35613
9.19921
9.04011
8.87621
8.70698
8.54237
8.3905
8.25472
8.13607
8.00661
7.83606
7.65145
7.46565
7.29404
7.14704
6.99594
6.81046
6.60256
6.38089
6.1746
5.99318
5.8174
5.645
5.47307
5.29107
5.10054
4.92144
4.76304
4.61805
4.47632
4.33452
4.20115
4.07186
3.9376
3.81289
3.70867
3.60869
3.50404
3.39456
3.28423
3.18385
3.09696
3.01889
2.95347
2.89358
2.82609
2.74857
2.66315
2.57082
2.48864
2.44284
2.40889
2.3714
2.32715
2.28162
2.23036
2.17867
2.17655
2.26263
2.47752
2.76555
2.94919
3.16151
3.49447
3.79155
3.95779
4.00289
4.01614
4.0237
4.01546
3.99908
3.97696
3.95443
3.93402
3.9135
3.8947
3.87797
3.86305
3.84439
3.83232
3.83898
3.86208
3.90016
3.94725
3.98417
4.00619
4.03051
4.06102
4.1116
4.15587
4.21313
10.1148
9.97362
9.83221
9.68373
9.53155
9.375
9.21497
9.05147
8.88491
8.71999
8.56227
8.41459
8.27644
8.14184
7.98386
7.80886
7.6431
7.49447
7.35098
7.19108
7.00139
6.79002
6.57694
6.39118
6.21458
6.03885
5.85959
5.66922
5.46632
5.26874
5.08923
4.93124
4.79165
4.65797
4.51943
4.36856
4.20237
4.04349
3.91133
3.80085
3.70418
3.61627
3.52834
3.42964
3.31223
3.18493
3.07927
3.00116
2.93535
2.87347
2.81532
2.75505
2.68238
2.58828
2.49399
2.42918
2.38325
2.34574
2.30912
2.27423
2.23476
2.17588
2.13223
2.15462
2.26448
2.5073
2.85492
3.28082
3.75038
3.96604
3.98389
3.97165
3.97722
4.01021
4.03733
4.02642
4.00166
3.95976
3.92161
3.90041
3.88884
3.88208
3.86798
3.84815
3.8164
3.79497
3.79569
3.81736
3.8706
3.93842
4.00634
4.07058
4.13019
4.18103
4.21504
4.25256
10.1145
9.97536
9.83602
9.69042
9.54088
9.38606
9.22661
9.06398
8.90126
8.74247
8.59044
8.44478
8.29719
8.13354
7.96364
7.80581
7.66999
7.55341
7.4101
7.21331
6.99237
6.76968
6.57491
6.40041
6.24443
6.06878
5.8848
5.67632
5.44674
5.24233
5.08206
4.94501
4.81616
4.68813
4.54817
4.37726
4.181
4.00525
3.88054
3.78783
3.7081
3.63304
3.55409
3.45513
3.31778
3.16506
3.04777
2.97108
2.91494
2.86861
2.82529
2.77539
2.69953
2.58814
2.47721
2.41127
2.37129
2.33953
2.30925
2.27751
2.23022
2.15623
2.1047
2.10646
2.15259
2.32724
2.75396
3.39047
3.92945
4.06869
4.02927
3.99451
3.99155
4.02703
4.06335
4.04925
4.01774
3.96168
3.91818
3.89752
3.88895
3.89175
3.87537
3.85151
3.81008
3.77618
3.7688
3.77805
3.82585
3.90924
4.00928
4.10489
4.18401
4.23169
4.25928
4.29068
)
;

boundaryField
{
    inlet
    {
        type            fixedValue;
        value           uniform 1;
    }
    outlet
    {
        type            zeroGradient;
    }
    bottom
    {
        type            symmetryPlane;
    }
    top
    {
        type            symmetryPlane;
    }
    obstacle
    {
        type            zeroGradient;
    }
    defaultFaces
    {
        type            empty;
    }
}


// ************************************************************************* //
