/*--------------------------------*- C++ -*----------------------------------*\
  =========                 |
  \\      /  F ield         | OpenFOAM: The Open Source CFD Toolbox
   \\    /   O peration     | Website:  https://openfoam.org
    \\  /    A nd           | Version:  7
     \\/     M anipulation  |
\*---------------------------------------------------------------------------*/
FoamFile
{
    version     2.0;
    format      ascii;
    class       volScalarField;
    location    "14";
    object      rho;
}
// * * * * * * * * * * * * * * * * * * * * * * * * * * * * * * * * * * * * * //

dimensions      [1 -3 0 0 0 0 0];

internalField   nonuniform List<scalar> 
4032
(
1.40001
1.40001
1.40001
1.40001
1.40001
1.40001
1.40001
1.40001
1.40001
1.40001
1.40001
1.46148
4.1352
5.45758
5.51281
5.58602
5.65262
5.71561
5.77484
5.83013
5.88066
5.92067
5.94991
5.97078
1.40001
1.40001
1.40001
1.40001
1.40001
1.40001
1.40001
1.40001
1.40001
1.40001
1.40001
1.43573
4.07608
5.44377
5.50408
5.57641
5.64278
5.70477
5.76283
5.81649
5.86482
5.90201
5.92755
5.94641
1.40001
1.40001
1.40001
1.40001
1.40001
1.40001
1.40001
1.40001
1.40001
1.40001
1.40001
1.40281
3.94205
5.4229
5.48494
5.55491
5.62046
5.6808
5.73728
5.78955
5.83716
5.87451
5.89925
5.91971
1.40001
1.40001
1.40001
1.40001
1.40001
1.40001
1.40001
1.40001
1.40001
1.40001
1.40001
1.40004
3.72789
5.38262
5.4562
5.5229
5.58767
5.64603
5.70083
5.75165
5.79755
5.83167
5.85065
5.86484
1.40001
1.40001
1.40001
1.40001
1.40001
1.40001
1.40001
1.40001
1.40001
1.40001
1.40001
1.40001
3.44038
5.32056
5.42268
5.48516
5.54758
5.60142
5.6504
5.69383
5.73147
5.76047
5.77676
5.79823
1.40001
1.40001
1.40001
1.40001
1.40001
1.40001
1.40001
1.40001
1.40001
1.40001
1.40001
1.40001
3.08513
5.22662
5.38907
5.44435
5.49928
5.54461
5.58516
5.62192
5.65424
5.68041
5.69102
5.68264
1.40001
1.40001
1.40001
1.40001
1.40001
1.40001
1.40001
1.40001
1.40001
1.40001
1.40001
1.40001
2.67638
5.09279
5.38077
5.42037
5.46132
5.49155
5.51393
5.53304
5.54156
5.52968
5.5101
5.50135
1.40001
1.40001
1.40001
1.40001
1.40001
1.40001
1.40001
1.40001
1.40001
1.40001
1.40001
1.40001
2.20999
4.90013
5.40266
5.40821
5.42818
5.43998
5.44104
5.43689
5.41567
5.38275
5.31971
5.27888
1.40001
1.40001
1.40001
1.40001
1.40001
1.40001
1.40001
1.40001
1.40001
1.40001
1.40001
1.40001
1.7223
4.62385
5.44159
5.39602
5.40023
5.3891
5.36515
5.33192
5.26908
5.16174
4.84454
3.88638
1.40001
1.40001
1.40001
1.40001
1.40001
1.40001
1.40001
1.40001
1.40001
1.40001
1.40001
1.40001
1.42729
4.05718
5.34947
5.31112
5.32925
5.31676
5.27913
5.2175
5.11255
4.91816
4.58687
3.66015
1.40001
1.40001
1.40001
1.40001
1.40001
1.40001
1.40001
1.40001
1.40001
1.40001
1.40001
1.40001
1.40001
3.27855
5.11831
5.26468
5.28387
5.25632
5.20141
5.10969
4.97323
4.73721
4.39757
3.56875
1.40001
1.40001
1.40001
1.40001
1.40001
1.40001
1.40001
1.40001
1.40001
1.40001
1.40001
1.40001
1.4
2.45038
4.87569
5.22427
5.21166
5.18847
5.12772
5.01645
4.85169
4.60629
4.23695
3.56757
1.40001
1.40001
1.40001
1.40001
1.40001
1.40001
1.40001
1.40001
1.40001
1.40001
1.40001
1.40001
1.4
1.68044
4.55598
5.28378
5.1767
5.11204
5.03842
4.9165
4.74259
4.50422
4.11495
3.59829
1.40001
1.40001
1.40001
1.40001
1.40001
1.40001
1.40001
1.40001
1.40001
1.40001
1.40001
1.40001
1.4
1.41408
3.75963
5.03895
5.04361
5.02133
4.94786
4.82775
4.6544
4.40859
4.0494
3.63276
1.40001
1.40001
1.40001
1.40001
1.40001
1.40001
1.40001
1.40001
1.40001
1.40001
1.40001
1.40001
1.40001
1.39986
2.6504
4.81353
5.02944
4.98907
4.89648
4.75883
4.58901
4.34148
4.02693
3.67776
1.40001
1.40001
1.40001
1.40001
1.40001
1.40001
1.40001
1.40001
1.40001
1.40001
1.40001
1.40001
1.40001
1.39997
1.67272
4.43963
5.09417
4.96107
4.83864
4.68609
4.51612
4.28598
4.01625
3.71806
1.40001
1.40001
1.40001
1.40001
1.40001
1.40001
1.40001
1.40001
1.40001
1.40001
1.40001
1.40001
1.40001
1.4
1.41032
3.45479
4.90024
4.86767
4.76894
4.63101
4.46273
4.25276
4.01617
3.75098
1.40001
1.40001
1.40001
1.40001
1.40001
1.40001
1.40001
1.40001
1.40001
1.40001
1.40001
1.40001
1.40001
1.4
1.39993
2.16458
4.69374
4.88952
4.76092
4.61363
4.4415
4.23924
4.01805
3.77859
1.40001
1.40001
1.40001
1.40001
1.40001
1.40001
1.40001
1.40001
1.40001
1.40001
1.40001
1.40001
1.40001
1.40001
1.39999
1.4925
3.81742
4.83828
4.7159
4.5899
4.42344
4.23023
4.02327
3.80952
1.40001
1.40001
1.40001
1.40001
1.40001
1.40001
1.40001
1.40001
1.40001
1.40001
1.40001
1.40001
1.40001
1.40001
1.4
1.4007
2.40544
4.59067
4.72883
4.60162
4.43113
4.24079
4.05115
3.88117
1.40001
1.40001
1.40001
1.40001
1.40001
1.40001
1.40001
1.40001
1.40001
1.40001
1.40001
1.40001
1.40001
1.40001
1.4
1.4
1.55214
3.78178
4.74386
4.6009
4.44049
4.26105
4.12678
4.07653
1.40001
1.40001
1.40001
1.40001
1.40001
1.40001
1.40001
1.40001
1.40001
1.40001
1.40001
1.40001
1.40001
1.40001
1.40001
1.4
1.40254
2.31104
4.46528
4.59866
4.4504
4.32251
4.33374
4.43522
1.40001
1.40001
1.40001
1.40001
1.40001
1.40001
1.40001
1.40001
1.40001
1.40001
1.40001
1.40001
1.40001
1.40001
1.40001
1.4
1.40001
1.51768
3.52657
4.60688
4.51761
4.5679
4.74383
4.85004
1.40001
1.40001
1.40001
1.40001
1.40001
1.40001
1.40001
1.40001
1.40001
1.40001
1.40001
1.40001
1.40001
1.40001
1.40001
1.40001
1.40001
1.40178
2.09271
4.13372
4.70622
5.01387
5.18975
5.15764
1.40001
1.40001
1.40001
1.40001
1.40001
1.40001
1.40001
1.40001
1.40001
1.40001
1.40001
1.40001
1.40001
1.40001
1.40001
1.40001
1.40001
1.40001
1.46299
2.9503
5.03314
5.60262
5.55962
5.37706
1.40001
1.40001
1.40001
1.40001
1.40001
1.40001
1.40001
1.40001
1.40001
1.40001
1.40001
1.40001
1.40001
1.40001
1.40001
1.40001
1.40001
1.40001
1.40083
1.77128
5.05125
5.96924
5.67784
5.47654
1.40001
1.40001
1.40001
1.40001
1.40001
1.40001
1.40001
1.40001
1.40001
1.40001
1.40001
1.40001
1.40001
1.40001
1.40001
1.40001
1.40001
1.40001
1.40001
1.48776
4.59935
5.83475
5.62139
5.52525
1.40001
1.40001
1.40001
1.40001
1.40001
1.40001
1.40001
1.40001
1.40001
1.40001
1.40001
1.40001
1.40001
1.40001
1.40001
1.40001
1.40001
1.40001
1.40001
1.4032
4.08885
5.60625
5.44723
5.40891
1.40001
1.40001
1.40001
1.40001
1.40001
1.40001
1.40001
1.40001
1.40001
1.40001
1.40001
1.40001
1.40001
1.40001
1.40001
1.40001
1.40001
1.40001
1.40001
1.40004
3.72194
5.41996
5.31735
5.29591
1.40001
1.40001
1.40001
1.40001
1.40001
1.40001
1.40001
1.40001
1.40001
1.40001
1.40001
1.40001
1.40001
1.40001
1.40001
1.40001
1.40001
1.40001
1.40001
1.40001
3.38868
5.26674
5.29919
5.24486
1.40001
1.40001
1.40001
1.40001
1.40001
1.40001
1.40001
1.40001
1.40001
1.40001
1.40001
1.40001
1.40001
1.40001
1.40001
1.40001
1.40001
1.40001
1.40001
1.40001
3.07475
5.18937
5.3185
5.2498
1.40001
1.40001
1.40001
1.40001
1.40001
1.40001
1.40001
1.40001
1.40001
1.40001
1.40001
1.40001
1.40001
1.40001
1.40001
1.40001
1.40001
1.40001
1.40001
1.40001
2.7672
5.14862
5.36738
5.28745
1.40001
1.40001
1.40001
1.40001
1.40001
1.40001
1.40001
1.40001
1.40001
1.40001
1.40001
1.40001
1.40001
1.40001
1.40001
1.40001
1.40001
1.40001
1.40001
1.40001
2.48663
5.09287
5.42273
5.32433
1.40001
1.40001
1.40001
1.40001
1.40001
1.40001
1.40001
1.40001
1.40001
1.40001
1.40001
1.40001
1.40001
1.40001
1.40001
1.40001
1.40001
1.40001
1.40001
1.40001
2.25567
5.00442
5.45945
5.35331
1.40001
1.40001
1.40001
1.40001
1.40001
1.40001
1.40001
1.40001
1.40001
1.40001
1.40001
1.40001
1.40001
1.40001
1.40001
1.40001
1.40001
1.40001
1.40001
1.40001
2.0893
4.9041
5.46997
5.36181
1.40001
1.40001
1.40001
1.40001
1.40001
1.40001
1.40001
1.40001
1.40001
1.40001
1.40001
1.40001
1.40001
1.40001
1.40001
1.40001
1.40001
1.40001
1.40001
1.40001
1.97425
4.80882
5.46284
5.35684
1.40001
1.40001
1.40001
1.40001
1.40001
1.40001
1.40001
1.40001
1.40001
1.40001
1.40001
1.40001
1.40001
1.40001
1.40001
1.40001
1.40001
1.40001
1.40001
1.40001
1.8812
4.74288
5.45525
5.35202
1.40001
1.40001
1.40001
1.40001
1.40001
1.40001
1.40001
1.40001
1.40001
1.40001
1.40001
1.40001
1.40001
1.40001
1.40001
1.40001
1.40001
1.40001
1.40001
1.40001
1.81139
4.70133
5.45308
5.35518
1.40001
1.40001
1.40001
1.40001
1.40001
1.40001
1.40001
1.40001
1.40001
1.40001
1.40001
1.40001
1.40001
1.40001
1.40001
1.40001
1.40001
1.40001
1.40001
1.40001
1.77289
4.66649
5.44859
5.35676
1.40001
1.40001
1.40001
1.40001
1.40001
1.40001
1.40001
1.40001
1.40001
1.40001
1.40001
1.40001
1.40001
1.40001
1.40001
1.40001
1.40001
1.40001
1.40001
1.40001
1.75752
4.64294
5.4422
5.3553
1.45815
1.45395
1.62316
1.79533
1.85345
1.8366
1.80579
1.78862
1.77363
1.76458
1.76778
1.77765
1.79336
1.81546
1.83383
1.84351
1.84574
1.8453
1.84734
1.85025
1.85706
1.86876
1.88515
1.90191
1.91447
1.9224
1.92805
1.93376
1.94188
1.95386
1.96944
1.98856
2.01001
2.03277
2.05735
2.0846
2.11604
2.15375
2.19981
2.25517
2.31873
2.38694
2.45514
2.51857
2.5751
2.62123
2.65316
2.6735
2.69006
2.70645
2.72292
2.73844
2.75024
2.75487
2.75148
2.74348
2.73369
2.72336
2.7126
2.70171
2.68904
2.67175
2.64916
2.62543
2.6056
2.59156
2.58153
2.56835
2.54012
2.50244
2.46734
2.43851
2.4193
2.40716
2.38626
2.36186
2.33597
2.30877
2.28363
2.26215
2.24359
2.22697
2.21106
2.19456
2.17635
2.15791
2.14348
2.13566
2.13401
2.13656
2.14237
2.14961
2.15364
2.15243
2.15016
2.16842
2.1855
2.05493
1.92235
1.88979
1.87456
1.82446
1.79154
1.78196
1.78008
1.78427
1.79617
1.80917
1.82463
1.8435
1.85976
1.86886
1.86966
1.86615
1.86378
1.8654
1.87121
1.88067
1.8921
1.9031
1.91294
1.9213
1.92895
1.93667
1.94478
1.95471
1.96725
1.98329
2.00364
2.02721
2.05258
2.07953
2.10952
2.14616
2.1925
2.24963
2.315
2.3819
2.44403
2.49971
2.5516
2.60213
2.64832
2.68378
2.70392
2.71283
2.7199
2.7294
2.74128
2.75257
2.75813
2.75452
2.74329
2.72994
2.71852
2.70897
2.70088
2.69314
2.67903
2.65554
2.62845
2.60356
2.58319
2.5695
2.55557
2.52945
2.49742
2.46665
2.44128
2.41738
2.39316
2.36941
2.34692
2.32621
2.30621
2.28506
2.26293
2.24097
2.22115
2.20385
2.18822
2.17425
2.16161
2.15043
2.14237
2.14041
2.14544
2.15376
2.16118
2.1694
2.17471
2.18172
2.62505
2.46502
2.15644
1.98439
1.93533
1.88252
1.85343
1.8427
1.84306
1.84564
1.84889
1.84929
1.84362
1.84118
1.84344
1.8516
1.85995
1.86191
1.86226
1.86497
1.87358
1.88762
1.9033
1.91615
1.92564
1.93348
1.94217
1.95522
1.97261
1.99142
2.01007
2.02683
2.04525
2.07023
2.101
2.13502
2.17006
2.20562
2.24654
2.30016
2.36805
2.4449
2.51982
2.58203
2.6313
2.67473
2.71875
2.76518
2.80336
2.82151
2.82467
2.82415
2.82527
2.83268
2.8428
2.84952
2.84738
2.83417
2.81489
2.79331
2.7727
2.75873
2.7496
2.73733
2.71532
2.68592
2.65525
2.62898
2.6066
2.58399
2.56188
2.54005
2.51486
2.48471
2.45113
2.41529
2.38252
2.3602
2.34495
2.3309
2.31548
2.29419
2.26616
2.23784
2.21869
2.20859
2.2025
2.19796
2.19097
2.17946
2.16594
2.15959
2.16882
2.19044
2.21427
2.2322
2.88101
2.76209
2.47418
2.25375
2.20057
2.1169
2.02817
1.97518
1.93824
1.90533
1.87551
1.86646
1.86195
1.85498
1.84477
1.84491
1.85872
1.88058
1.90025
1.91123
1.91631
1.92324
1.93868
1.96326
1.99036
2.01057
2.02215
2.03265
2.0492
2.07445
2.10597
2.13565
2.15846
2.1819
2.2127
2.25221
2.29824
2.34494
2.388
2.43327
2.48708
2.55241
2.62737
2.70051
2.75799
2.80379
2.84432
2.88199
2.92051
2.95226
2.95906
2.9524
2.94083
2.93414
2.93885
2.95054
2.95924
2.9533
2.93701
2.91403
2.89047
2.8709
2.85264
2.83173
2.80819
2.78273
2.75893
2.7361
2.71006
2.67961
2.64762
2.61993
2.59592
2.57195
2.54637
2.5166
2.4815
2.44362
2.41317
2.39693
2.38446
2.36956
2.35025
2.32606
2.29918
2.27481
2.26108
2.25751
2.25623
2.25329
2.24602
2.23641
2.23026
2.23708
2.25603
2.28351
3.09263
2.96758
2.75192
2.5052
2.43382
2.32729
2.17961
2.10363
2.07113
2.04793
1.99692
1.95327
1.95693
1.96873
1.96603
1.95704
1.95557
1.97192
2.00326
2.03677
2.057
2.06503
2.07246
2.08857
2.11725
2.1531
2.1811
2.1973
2.21049
2.22979
2.26175
2.30566
2.34743
2.3782
2.40484
2.43702
2.48002
2.5323
2.58567
2.62987
2.66895
2.70826
2.75675
2.82162
2.88544
2.93502
2.976
3.00934
3.04468
3.08754
3.10778
3.10858
3.10024
3.09593
3.09614
3.09466
3.08825
3.06955
3.04367
3.02225
3.00678
2.98824
2.9665
2.94056
2.90995
2.8803
2.85728
2.83694
2.8151
2.78851
2.75324
2.71279
2.68019
2.65599
2.63401
2.61149
2.58534
2.5521
2.51266
2.47742
2.45665
2.44355
2.43158
2.41861
2.4022
2.37978
2.35321
2.33248
2.32444
2.32392
2.32756
2.33466
2.34223
2.3475
2.34526
2.35275
3.24321
3.08489
2.91896
2.70599
2.60727
2.53006
2.40019
2.3079
2.31516
2.35311
2.31502
2.21098
2.14787
2.15043
2.16165
2.14942
2.1371
2.13123
2.14105
2.17793
2.22196
2.2441
2.25019
2.25532
2.27221
2.30911
2.35107
2.37371
2.38264
2.39088
2.40998
2.4478
2.49632
2.53381
2.55886
2.58567
2.62213
2.66796
2.71437
2.75139
2.78198
2.81318
2.84825
2.89631
2.93989
2.96411
2.98726
3.01829
3.05858
3.10869
3.1435
3.15749
3.16616
3.1756
3.18304
3.18853
3.18094
3.16285
3.13847
3.11427
3.0943
3.0743
3.04635
3.01091
2.97012
2.93883
2.92122
2.90417
2.88546
2.86258
2.83066
2.78644
2.74345
2.71629
2.69616
2.67685
2.65661
2.63271
2.60028
2.55806
2.52255
2.50609
2.49639
2.48798
2.479
2.46697
2.44679
2.4211
2.40686
2.40568
2.41185
2.4275
2.44476
2.45682
2.45882
2.44787
3.35338
3.18061
3.01254
2.83536
2.68882
2.66228
2.61421
2.59582
2.67352
2.78683
2.73281
2.59958
2.44494
2.3856
2.38417
2.37387
2.34912
2.33121
2.32758
2.34654
2.38815
2.4081
2.40747
2.40713
2.4138
2.43718
2.47761
2.50374
2.51018
2.51443
2.52424
2.54418
2.57688
2.61803
2.65325
2.68404
2.71608
2.74887
2.7812
2.81409
2.84837
2.88738
2.92885
2.95726
2.97085
2.97975
2.98602
3.00525
3.0361
3.07379
3.10301
3.12188
3.13658
3.15213
3.16419
3.17709
3.18809
3.18823
3.17732
3.16689
3.15486
3.13222
3.10545
3.06735
3.01426
2.97342
2.95331
2.93659
2.92039
2.90203
2.87803
2.84101
2.7908
2.75117
2.72828
2.71047
2.69352
2.67549
2.65334
2.62124
2.57912
2.55037
2.5394
2.53327
2.52876
2.52267
2.51268
2.49536
2.48021
2.48052
2.48855
2.50701
2.5323
2.54533
2.54691
2.5359
3.43904
3.25853
3.09168
2.9192
2.77315
2.78375
2.83222
2.92796
3.06433
3.20428
3.12732
2.97401
2.79041
2.64462
2.59147
2.56763
2.53367
2.50526
2.49909
2.50516
2.53312
2.55313
2.54899
2.53976
2.53879
2.54616
2.57088
2.5974
2.60267
2.60363
2.60545
2.61035
2.62574
2.6571
2.6935
2.7202
2.74178
2.76181
2.78391
2.81069
2.84162
2.88389
2.93016
2.94924
2.96539
2.97746
2.98171
2.99176
3.01129
3.03205
3.05156
3.06838
3.08281
3.09608
3.10925
3.12885
3.15354
3.16268
3.15625
3.15087
3.14747
3.14456
3.12632
3.09884
3.05393
3.00078
2.96527
2.94474
2.92709
2.91161
2.89436
2.87015
2.83062
2.77947
2.74126
2.72036
2.70339
2.68751
2.67255
2.6549
2.62362
2.58218
2.5617
2.55372
2.55065
2.5495
2.54766
2.54419
2.53751
2.53853
2.54857
2.56549
2.58869
2.60428
2.60804
2.6083
3.50332
3.32765
3.17709
3.02841
2.95388
3.01832
3.14599
3.26038
3.35506
3.46914
3.42727
3.29545
3.11831
2.93251
2.81093
2.75948
2.7147
2.66823
2.63717
2.63173
2.6434
2.66522
2.66738
2.65671
2.64224
2.63552
2.63772
2.65473
2.66464
2.66128
2.65365
2.65099
2.65347
2.66671
2.69369
2.71428
2.72729
2.74059
2.75638
2.78075
2.81076
2.85616
2.90426
2.91962
2.94247
2.96662
2.9769
2.98188
2.99407
3.00894
3.02232
3.02989
3.03121
3.03005
3.03492
3.05631
3.09212
3.11051
3.10708
3.10499
3.11129
3.11629
3.11945
3.10542
3.08124
3.0391
2.98405
2.94584
2.92318
2.9056
2.89175
2.8757
2.85216
2.81467
2.7655
2.72714
2.70682
2.69469
2.68474
2.66928
2.64525
2.61108
2.57885
2.5642
2.55963
2.5606
2.56822
2.57735
2.58377
2.58697
2.59364
2.60324
2.61396
2.6301
2.6481
2.66211
3.54929
3.40778
3.31126
3.26487
3.26053
3.32299
3.422
3.46143
3.49341
3.58948
3.58594
3.50169
3.35662
3.18631
3.03133
2.94491
2.8875
2.83075
2.78054
2.74462
2.73434
2.74607
2.75497
2.74213
2.71739
2.69618
2.68883
2.6938
2.70533
2.69899
2.68499
2.67313
2.66752
2.66488
2.676
2.68654
2.68962
2.69742
2.70694
2.72962
2.76151
2.79988
2.85477
2.88512
2.90593
2.94376
2.96611
2.97239
2.98413
2.99722
3.00702
3.00839
3.0013
2.99605
3.00045
3.00876
3.0282
3.04301
3.04493
3.03898
3.04843
3.06334
3.07947
3.09186
3.08399
3.06064
3.01914
2.96752
2.92526
2.89591
2.87534
2.86018
2.84688
2.82787
2.79618
2.75602
2.71707
2.68623
2.66454
2.64966
2.63848
2.62673
2.60885
2.58567
2.57202
2.57035
2.57785
2.59986
2.62124
2.63071
2.63467
2.63527
2.64054
2.65259
2.67343
2.70163
3.61835
3.56016
3.58274
3.62172
3.59659
3.58105
3.61057
3.60406
3.59621
3.67597
3.70239
3.64522
3.51427
3.36333
3.21694
3.11195
3.03049
2.9594
2.90809
2.86278
2.8241
2.81243
2.81629
2.80713
2.78391
2.75782
2.74182
2.73609
2.74129
2.73453
2.7187
2.69962
2.68488
2.67702
2.67659
2.68078
2.67852
2.67571
2.67924
2.68734
2.71036
2.74596
2.79378
2.84601
2.86878
2.90979
2.94573
2.95699
2.97352
2.99377
3.0036
3.00232
2.98723
2.97269
2.97295
2.98051
2.99305
2.99849
2.99623
2.97994
2.97149
2.99137
3.01988
3.04604
3.05963
3.05336
3.03315
2.99894
2.95015
2.90298
2.86837
2.84527
2.82913
2.81546
2.80153
2.77817
2.73667
2.68855
2.65775
2.64272
2.634
2.63032
2.62521
2.61444
2.59659
2.59077
2.59782
2.61707
2.6488
2.67097
2.67651
2.67506
2.67731
2.68551
2.70083
2.73034
3.80259
3.8754
3.92088
3.92415
3.82459
3.74684
3.75382
3.74548
3.72262
3.77767
3.80825
3.75948
3.64121
3.49765
3.35831
3.26079
3.176
3.0764
3.00151
2.96689
2.9259
2.88351
2.86864
2.86376
2.84443
2.81973
2.79953
2.78741
2.78424
2.77655
2.75842
2.7347
2.71346
2.69956
2.69037
2.68397
2.6757
2.66563
2.65675
2.65206
2.6572
2.68531
2.72698
2.78427
2.82013
2.85489
2.9055
2.93453
2.9602
2.99129
3.00482
3.00591
2.99111
2.96713
2.96172
2.9644
2.96743
2.96775
2.96587
2.9596
2.93946
2.92909
2.94918
2.97949
3.00507
3.0186
3.02016
3.00613
2.97686
2.93405
2.88205
2.84013
2.81816
2.80396
2.7917
2.77689
2.75251
2.70931
2.66386
2.64515
2.63679
2.63485
2.63793
2.63879
2.63498
2.62967
2.63597
2.64982
2.67292
2.7031
2.7187
2.72285
2.72458
2.72902
2.73577
2.75253
4.15158
4.21805
4.20603
4.13454
3.98752
3.88637
3.89205
3.892
3.86504
3.89016
3.91531
3.87136
3.76683
3.63531
3.49673
3.39029
3.31597
3.2222
3.11103
3.05135
3.02402
2.97982
2.94506
2.92565
2.90412
2.87872
2.85943
2.84875
2.84396
2.83034
2.8084
2.77902
2.75163
2.7337
2.71925
2.70269
2.68582
2.6704
2.65198
2.63898
2.63546
2.63778
2.66443
2.70667
2.75135
2.78303
2.8356
2.88594
2.93023
2.9791
3.00438
3.00996
3.00235
2.97314
2.95362
2.95135
2.95175
2.95032
2.94849
2.94419
2.9321
2.90635
2.89544
2.90806
2.92809
2.95495
2.97632
2.985
2.9777
2.95376
2.91196
2.86014
2.81774
2.79639
2.78248
2.76912
2.75321
2.72918
2.69196
2.65928
2.64893
2.64676
2.65279
2.66888
2.6785
2.6831
2.69218
2.70088
2.71029
2.72778
2.75399
2.77084
2.77546
2.77742
2.7759
2.77592
4.50542
4.46617
4.41354
4.29258
4.13473
4.03668
4.04533
4.04274
4.00336
4.00838
4.03289
4.00105
3.90942
3.78394
3.65114
3.53851
3.45365
3.37164
3.26608
3.16545
3.12099
3.08654
3.05018
3.02002
2.98776
2.95207
2.92787
2.91516
2.90905
2.89357
2.8681
2.83266
2.79636
2.77402
2.75349
2.73054
2.70747
2.68494
2.66012
2.63323
2.6197
2.61068
2.6127
2.63012
2.66596
2.69623
2.73763
2.80314
2.86756
2.93694
2.99592
3.00786
3.0067
2.98723
2.95152
2.93248
2.9301
2.93971
2.94224
2.93498
2.92373
2.90417
2.87265
2.85575
2.86002
2.87605
2.90439
2.93553
2.94583
2.94146
2.92502
2.88725
2.83797
2.79758
2.77913
2.76509
2.75144
2.73771
2.72032
2.69328
2.67466
2.67294
2.68019
2.7036
2.73174
2.74795
2.75655
2.75825
2.75916
2.76685
2.78484
2.81046
2.82165
2.82278
2.81635
2.79789
4.78616
4.66402
4.57387
4.43921
4.28588
4.19461
4.20136
4.19143
4.13855
4.1307
4.15443
4.13458
4.05425
3.93342
3.80504
3.69927
3.60997
3.52445
3.42742
3.31555
3.24532
3.20768
3.16915
3.1292
3.08697
3.03936
3.00732
2.98799
2.9741
2.95569
2.92838
2.88997
2.8467
2.81802
2.79091
2.76323
2.73487
2.70585
2.67536
2.6438
2.6172
2.6036
2.59304
2.58721
2.59676
2.61963
2.64243
2.69338
2.76387
2.84513
2.93345
2.98633
2.99718
2.98929
2.96071
2.92675
2.91388
2.91154
2.9219
2.9278
2.91798
2.89725
2.86027
2.83489
2.82431
2.82138
2.82852
2.85194
2.87751
2.89616
2.8999
2.88997
2.86119
2.81125
2.77803
2.76369
2.75411
2.74724
2.74039
2.73148
2.71641
2.71267
2.72369
2.74793
2.78447
2.81542
2.82306
2.82154
2.81704
2.81846
2.82654
2.84622
2.85551
2.85217
2.83751
2.814
4.98607
4.84265
4.74067
4.61273
4.46144
4.36723
4.36595
4.3506
4.28495
4.25502
4.27012
4.25627
4.18493
4.07174
3.95098
3.85713
3.77563
3.68595
3.58872
3.47552
3.38692
3.33919
3.29917
3.24796
3.18915
3.12708
3.09124
3.06511
3.04296
3.0205
2.99015
2.94798
2.8965
2.8604
2.83015
2.79904
2.76767
2.73538
2.70111
2.66513
2.62898
2.60314
2.5854
2.57469
2.56605
2.5673
2.57566
2.58875
2.6355
2.70713
2.80084
2.89747
2.95063
2.96501
2.95565
2.92537
2.90009
2.89522
2.89659
2.88736
2.87187
2.85415
2.83504
2.8159
2.80396
2.79119
2.77778
2.77448
2.78775
2.81099
2.8401
2.85543
2.84831
2.82269
2.7813
2.76312
2.75817
2.75858
2.75905
2.76174
2.75989
2.76204
2.77979
2.80171
2.83095
2.8663
2.88192
2.88288
2.87573
2.86777
2.86595
2.86822
2.87014
2.86302
2.84843
2.83107
5.15488
5.00885
4.91058
4.79596
4.64584
4.54451
4.53459
4.51932
4.4468
4.38931
4.38965
4.37708
4.31263
4.20579
4.091
4.00231
3.92816
3.83657
3.73492
3.62649
3.52573
3.46295
3.42023
3.36563
3.29316
3.21506
3.17653
3.14541
3.11297
3.08277
3.04809
3.00335
2.94735
2.90266
2.87002
2.83791
2.80464
2.77024
2.73355
2.69209
2.64704
2.60554
2.57626
2.56035
2.54892
2.53772
2.52834
2.5182
2.51703
2.55094
2.62875
2.73463
2.82753
2.89866
2.92057
2.91033
2.8893
2.88274
2.86963
2.85082
2.82707
2.80257
2.78707
2.77892
2.77225
2.75964
2.73591
2.70605
2.70235
2.71532
2.74446
2.78537
2.80253
2.79901
2.77625
2.76197
2.75627
2.75878
2.77643
2.79957
2.81275
2.82912
2.8488
2.86456
2.88165
2.90433
2.92579
2.92897
2.92231
2.90611
2.8863
2.87829
2.87538
2.87027
2.86157
2.85271
5.30558
5.18219
5.09534
4.99009
4.83891
4.72333
4.69807
4.68112
4.60812
4.52906
4.5112
4.49772
4.4445
4.34923
4.23922
4.14692
4.06982
3.97645
3.86478
3.76111
3.66155
3.57778
3.52522
3.47552
3.40287
3.31086
3.25486
3.22177
3.1834
3.14413
3.10341
3.05663
2.99935
2.94643
2.91023
2.87708
2.84286
2.80747
2.76916
2.72376
2.66893
2.61658
2.58266
2.55623
2.53347
2.51125
2.48546
2.45489
2.43165
2.42709
2.4574
2.54589
2.65253
2.75061
2.83847
2.86826
2.87069
2.85713
2.83304
2.80412
2.77709
2.75959
2.74954
2.73985
2.72572
2.70948
2.68849
2.65281
2.62743
2.62943
2.64589
2.68358
2.72507
2.74186
2.74195
2.73712
2.7442
2.75983
2.79005
2.83553
2.87818
2.90659
2.91867
2.92278
2.9249
2.93085
2.94373
2.94896
2.94207
2.92614
2.90263
2.88818
2.88201
2.8791
2.88251
2.87612
5.391
5.28029
5.21826
5.13256
4.99992
4.89588
4.86458
4.84296
4.7662
4.66777
4.61972
4.60288
4.5645
4.48419
4.37842
4.27638
4.19291
4.10537
3.99266
3.88193
3.79338
3.70068
3.62565
3.57447
3.51142
3.42313
3.33621
3.29077
3.25337
3.21016
3.16097
3.10823
3.05048
2.99075
2.94519
2.9109
2.87668
2.8401
2.79939
2.75178
2.69553
2.63303
2.57937
2.53908
2.50419
2.47338
2.44288
2.41309
2.378
2.34608
2.33895
2.36178
2.44602
2.55289
2.66657
2.76652
2.80628
2.80787
2.78706
2.75171
2.73005
2.71613
2.70657
2.69652
2.6821
2.66542
2.64537
2.61421
2.57519
2.56167
2.56526
2.58358
2.62348
2.65985
2.68244
2.7009
2.72819
2.7642
2.81204
2.86587
2.92036
2.96149
2.96842
2.9645
2.94879
2.94247
2.94692
2.95342
2.94681
2.93338
2.91389
2.89792
2.89211
2.89027
2.89466
2.88444
5.34763
5.30283
5.28251
5.21825
5.10176
5.01124
4.9737
4.95126
4.87926
4.77862
4.71837
4.70261
4.67617
4.60445
4.49943
4.38728
4.29664
4.21465
4.11523
3.99596
3.90303
3.82329
3.73045
3.65755
3.60026
3.52558
3.43186
3.35512
3.31299
3.27121
3.21986
3.15664
3.08708
3.03237
2.99157
2.95467
2.91701
2.87576
2.82989
2.7772
2.71531
2.64643
2.58209
2.52937
2.48242
2.43937
2.40104
2.3657
2.32911
2.29543
2.27369
2.26405
2.28275
2.34593
2.45247
2.58555
2.69161
2.72312
2.7164
2.69286
2.67912
2.66562
2.65183
2.63863
2.62545
2.61116
2.59479
2.57323
2.54205
2.51085
2.50278
2.50702
2.52793
2.56835
2.61228
2.66247
2.72291
2.78513
2.8406
2.88777
2.94071
2.98085
2.98729
2.98115
2.9616
2.94234
2.93433
2.93457
2.93808
2.92997
2.9161
2.897
2.88443
2.87989
2.88234
2.87785
5.27488
5.25402
5.22626
5.17613
5.11012
5.05127
5.01719
4.99945
4.93225
4.83512
4.77218
4.75011
4.73169
4.67225
4.57556
4.46786
4.3835
4.30829
4.22034
4.10862
4.0016
3.9288
3.83569
3.73248
3.65701
3.59925
3.52155
3.42597
3.33958
3.28904
3.24809
3.19528
3.12447
3.04767
2.9782
2.92181
2.87529
2.83211
2.7867
2.73569
2.67739
2.61525
2.55666
2.50177
2.45031
2.40223
2.35714
2.31502
2.27957
2.25276
2.22831
2.2042
2.18979
2.19806
2.2459
2.35853
2.50613
2.60268
2.63768
2.63677
2.63235
2.61629
2.59191
2.56867
2.55698
2.54809
2.53803
2.52583
2.50888
2.48069
2.45441
2.45122
2.45921
2.49224
2.55023
2.62778
2.71806
2.79999
2.8599
2.89775
2.93207
2.97111
2.99134
2.9867
2.96885
2.94092
2.9179
2.90769
2.90577
2.9075
2.90007
2.88948
2.87369
2.86049
2.8556
2.84823
5.21244
5.1808
5.14547
5.1015
5.0527
5.00573
4.97647
4.94984
4.89089
4.81612
4.76628
4.74339
4.73481
4.68207
4.58891
4.48045
4.39277
4.3187
4.23516
4.14167
4.03259
3.94039
3.88251
3.80243
3.70936
3.61509
3.54293
3.47315
3.39212
3.31246
3.24364
3.18904
3.13753
3.07029
2.99251
2.91696
2.85483
2.80431
2.75673
2.70598
2.6505
2.59258
2.53478
2.4788
2.42554
2.37577
2.32993
2.28898
2.25295
2.2194
2.1839
2.15008
2.12274
2.1134
2.11879
2.16076
2.27792
2.41854
2.53533
2.58732
2.58737
2.572
2.53911
2.49921
2.4832
2.47733
2.4754
2.47707
2.46953
2.45413
2.429
2.41522
2.42331
2.45392
2.51653
2.61231
2.71585
2.7979
2.85424
2.88556
2.90616
2.92818
2.95688
2.96597
2.95755
2.93718
2.90929
2.89152
2.88107
2.878
2.87386
2.86524
2.85329
2.83561
2.8235
2.81158
5.21058
5.16273
5.11038
5.05427
4.99992
4.95914
4.92977
4.8904
4.82951
4.7656
4.71716
4.68943
4.6698
4.61797
4.53653
4.44908
4.37365
4.31032
4.23895
4.15008
4.04514
3.94986
3.8731
3.79751
3.71816
3.62669
3.53266
3.44943
3.37878
3.30976
3.23997
3.17379
3.10846
3.04311
2.9747
2.90423
2.83939
2.78105
2.72643
2.67328
2.62017
2.56745
2.51537
2.46437
2.41473
2.36574
2.31723
2.27059
2.22912
2.18998
2.15283
2.11867
2.08764
2.0644
2.05285
2.05237
2.09359
2.20836
2.35707
2.49194
2.52985
2.52491
2.49649
2.44919
2.421
2.41602
2.41909
2.43329
2.43387
2.42676
2.4173
2.40501
2.4143
2.45282
2.52438
2.6209
2.71504
2.78036
2.82013
2.84993
2.87064
2.88843
2.90863
2.92824
2.92695
2.91411
2.89316
2.87682
2.86543
2.85732
2.85027
2.83964
2.82594
2.80383
2.78471
2.77152
5.24284
5.18523
5.1264
5.06764
5.01032
4.95924
4.90773
4.84797
4.78047
4.71596
4.66919
4.64276
4.61248
4.56141
4.49309
4.41807
4.34943
4.29148
4.21979
4.13068
4.0276
3.938
3.86465
3.78962
3.71013
3.62495
3.53329
3.44573
3.36959
3.29906
3.22932
3.161
3.09334
3.02433
2.95461
2.88733
2.82363
2.76226
2.70279
2.6471
2.59597
2.54693
2.49843
2.45104
2.40591
2.36088
2.31351
2.26284
2.21204
2.16691
2.12956
2.09886
2.07017
2.04269
2.01956
1.99883
1.99177
2.03375
2.15016
2.30766
2.43162
2.46183
2.45434
2.42142
2.38293
2.37113
2.37364
2.38871
2.39923
2.40074
2.40508
2.40615
2.42534
2.48698
2.56818
2.63882
2.707
2.75319
2.77555
2.79815
2.82136
2.84161
2.86096
2.88284
2.89256
2.8859
2.87185
2.85975
2.84982
2.84167
2.83342
2.82163
2.80547
2.77927
2.75368
2.73993
5.27241
5.21261
5.15387
5.09392
5.03773
4.98058
4.91865
4.84992
4.78179
4.72083
4.67525
4.63524
4.58652
4.52523
4.45676
4.38585
4.32367
4.27154
4.20169
4.11265
4.01553
3.93271
3.86098
3.78494
3.70379
3.61919
3.53083
3.44582
3.36765
3.29326
3.22085
3.15025
3.07991
3.00926
2.94028
2.87596
2.81594
2.75736
2.69792
2.63858
2.58266
2.53225
2.48543
2.44181
2.40112
2.36046
2.31599
2.26405
2.20549
2.15198
2.1141
2.0853
2.06013
2.03294
2.00488
1.9768
1.94292
1.93267
1.97192
2.09747
2.24845
2.36262
2.40501
2.40057
2.37329
2.3458
2.34215
2.34625
2.3568
2.37417
2.39465
2.42199
2.49752
2.58428
2.62989
2.66266
2.69854
2.72877
2.74055
2.75106
2.76741
2.79025
2.81357
2.83832
2.86123
2.86404
2.85673
2.84731
2.83774
2.82785
2.8179
2.80474
2.78729
2.76442
2.74052
2.72698
5.30288
5.24581
5.18846
5.1303
5.07303
5.00756
4.93706
4.86779
4.80538
4.75285
4.70565
4.65321
4.58909
4.51556
4.44336
4.38555
4.34193
4.28637
4.20438
4.10695
4.01456
3.94002
3.87108
3.79513
3.71036
3.61847
3.53095
3.45116
3.37631
3.30316
3.22936
3.15381
3.07732
3.00409
2.93741
2.87678
2.8199
2.76395
2.7058
2.64315
2.5786
2.52174
2.47565
2.43613
2.39892
2.36098
2.31881
2.2673
2.20627
2.14806
2.10558
2.07573
2.05204
2.0268
1.99841
1.96716
1.93066
1.88707
1.87888
1.92181
2.0513
2.20135
2.32526
2.36442
2.361
2.33555
2.31266
2.31038
2.31788
2.35083
2.402
2.49215
2.61174
2.66949
2.6823
2.69033
2.69942
2.71437
2.7211
2.72348
2.72783
2.74162
2.76468
2.79061
2.82029
2.84007
2.84136
2.83572
2.82662
2.8155
2.8038
2.79071
2.77495
2.7599
2.74186
2.72894
5.31672
5.26437
5.21151
5.15576
5.09592
5.03148
4.96614
4.903
4.84485
4.79071
4.72918
4.65855
4.58626
4.52152
4.47044
4.42981
4.37914
4.30106
4.20584
4.11022
4.03577
3.97177
3.89961
3.81731
3.72065
3.62068
3.53978
3.4666
3.39501
3.32326
3.24791
3.16518
3.08014
3.00459
2.94065
2.88373
2.83024
2.77724
2.71964
2.65298
2.58149
2.51821
2.4701
2.43169
2.39671
2.36085
2.32068
2.27167
2.2125
2.15366
2.10574
2.06923
2.04282
2.02057
1.99679
1.96845
1.92924
1.88116
1.8527
1.85234
1.90455
2.0318
2.18786
2.30555
2.33016
2.32286
2.29344
2.28231
2.2997
2.35106
2.45437
2.59543
2.70319
2.72769
2.72014
2.70777
2.70454
2.70986
2.7148
2.7121
2.70878
2.70951
2.7209
2.74364
2.77247
2.80376
2.82006
2.81991
2.81097
2.79899
2.78874
2.7778
2.76769
2.75767
2.74742
2.73854
5.31769
5.27041
5.2219
5.16927
5.11133
5.05079
4.98953
4.92888
4.87005
4.8091
4.74107
4.67154
4.60825
4.5538
4.50827
4.46097
4.39012
4.30127
4.20895
4.1336
4.06848
4.00504
3.92586
3.83459
3.72953
3.63373
3.55872
3.48839
3.41739
3.34572
3.26864
3.17904
3.08841
3.01348
2.95182
2.89584
2.84093
2.78653
2.73004
2.66413
2.59058
2.52547
2.47358
2.43053
2.39253
2.35523
2.31508
2.27004
2.21787
2.16315
2.11525
2.07477
2.03907
2.01025
1.98343
1.94998
1.91426
1.88176
1.85515
1.83658
1.83689
1.88927
2.01191
2.16204
2.2736
2.29716
2.2811
2.27683
2.30957
2.40587
2.54864
2.6876
2.74803
2.75339
2.73967
2.71864
2.7106
2.71127
2.71596
2.71197
2.70486
2.69498
2.69254
2.70172
2.72542
2.75549
2.78265
2.79572
2.792
2.77961
2.77067
2.76428
2.76332
2.76731
2.76851
2.77694
5.31284
5.2654
5.21779
5.16703
5.11322
5.05735
5.00008
4.94167
4.88167
4.81657
4.749
4.68492
4.62738
4.57655
4.53128
4.47236
4.39076
4.30242
4.22452
4.15666
4.09833
4.02641
3.94248
3.84511
3.74208
3.65439
3.58027
3.51139
3.44154
3.36657
3.28109
3.18888
3.10215
3.02779
2.96355
2.90806
2.85656
2.80093
2.73661
2.66767
2.60077
2.53978
2.48334
2.43155
2.38724
2.34878
2.3099
2.26709
2.21985
2.1731
2.12984
2.08536
2.04162
2.00334
1.97472
1.94559
1.9102
1.87816
1.85388
1.83654
1.81589
1.81346
1.85974
1.97522
2.12994