/*--------------------------------*- C++ -*----------------------------------*\
  =========                 |
  \\      /  F ield         | OpenFOAM: The Open Source CFD Toolbox
   \\    /   O peration     | Website:  https://openfoam.org
    \\  /    A nd           | Version:  7
     \\/     M anipulation  |
\*---------------------------------------------------------------------------*/
FoamFile
{
    version     2.0;
    format      ascii;
    class       volScalarField;
    location    "14";
    object      T;
}
// * * * * * * * * * * * * * * * * * * * * * * * * * * * * * * * * * * * * * //

dimensions      [0 0 0 1 0 0 0];

internalField   nonuniform List<scalar> 
4032
(
1
1
1
1
1
1
1
1
1
1
1
1.06073
2.33152
2.7127
2.72452
2.74012
2.75505
2.76924
2.78147
2.79107
2.79876
2.80506
2.81047
2.81459
1
1
1
1
1
1
1
1
1
1
1
1.03502
2.31307
2.71006
2.72283
2.73826
2.75315
2.76715
2.77915
2.78841
2.79567
2.80147
2.80621
2.80997
1
1
1
1
1
1
1
1
1
1
1
1.00188
2.26934
2.70543
2.71913
2.73426
2.74895
2.76257
2.77424
2.78323
2.79036
2.79628
2.80103
2.80517
1
1
1
1
1
1
1
1
1
1
1
1.00001
2.2034
2.69662
2.71385
2.7286
2.74302
2.75607
2.76736
2.77611
2.78293
2.78824
2.79193
2.79484
1
1
1
1
1
1
1
1
1
1
1
1
2.10915
2.68141
2.70731
2.72162
2.73554
2.74764
2.75784
2.76532
2.7706
2.77458
2.77695
2.78052
1
1
1
1
1
1
1
1
1
1
1
1
1.9791
2.65316
2.69562
2.71062
2.72447
2.73583
2.74508
2.75182
2.7563
2.75887
2.75708
2.75103
1
1
1
1
1
1
1
1
1
1
1
1
1.80437
2.60111
2.6767
2.69584
2.7112
2.72231
2.72993
2.73399
2.73408
2.72962
2.71993
2.7111
1
1
1
1
1
1
1
1
1
1
1
1
1.55771
2.50617
2.64824
2.67485
2.69247
2.70429
2.71099
2.71235
2.70825
2.70117
2.69467
2.70706
1
1
1
1
1
1
1
1
1
1
1
1
1.21856
2.37379
2.62479
2.64534
2.66445
2.67814
2.6849
2.68435
2.67612
2.65616
2.60673
2.51479
1
1
1
1
1
1
1
1
1
1
1
1
1.01385
2.2556
2.61388
2.61156
2.62581
2.64174
2.65006
2.64852
2.63708
2.60404
2.54881
2.39833
1
1
1
1
1
1
1
1
1
1
1
1
1.00002
2.03313
2.58213
2.59753
2.60692
2.61169
2.61453
2.61007
2.59592
2.55883
2.49813
2.32338
1
1
1
1
1
1
1
1
1
1
1
1
1
1.65417
2.48556
2.57911
2.58444
2.58662
2.58378
2.57401
2.55441
2.51714
2.44883
2.2948
1
1
1
1
1
1
1
1
1
1
1
1
1
1.16096
2.32384
2.57544
2.56421
2.56099
2.55446
2.53946
2.51531
2.47797
2.40457
2.29176
1
1
1
1
1
1
1
1
1
1
1
1
1
1.00696
2.14361
2.51668
2.53183
2.53244
2.5251
2.50891
2.48231
2.44046
2.37149
2.28419
1
1
1
1
1
1
1
1
1
1
1
1
1
0.999974
1.71145
2.41242
2.50986
2.50898
2.50037
2.482
2.45553
2.41127
2.34968
2.27718
1
1
1
1
1
1
1
1
1
1
1
1
1
0.999992
1.14309
2.24062
2.49502
2.48117
2.47107
2.4525
2.42712
2.38629
2.33361
2.27126
1
1
1
1
1
1
1
1
1
1
1
1
1
0.999998
1.00489
1.99347
2.42556
2.44374
2.43717
2.42288
2.39998
2.36498
2.32018
2.26564
1
1
1
1
1
1
1
1
1
1
1
1
1
1
0.999986
1.42079
2.27489
2.42072
2.40689
2.39357
2.37358
2.34364
2.30512
2.25816
1
1
1
1
1
1
1
1
1
1
1
1
1
1
0.999996
1.04414
2.06368
2.38192
2.36882
2.36064
2.34416
2.31909
2.28649
2.24836
1
1
1
1
1
1
1
1
1
1
1
1
1
1
0.999999
1.00034
1.52187
2.23115
2.3482
2.33388
2.31631
2.29363
2.26787
2.2437
1
1
1
1
1
1
1
1
1
1
1
1
1
1
1
1
1.07359
2.01712
2.32106
2.30483
2.28832
2.26691
2.25809
2.26354
1
1
1
1
1
1
1
1
1
1
1
1
1
1
1
1
1.00111
1.45707
2.15367
2.27805
2.25556
2.25622
2.27218
2.31219
1
1
1
1
1
1
1
1
1
1
1
1
1
1
1
1
1
1.05558
1.90458
2.24842
2.24596
2.27252
2.3253
2.36876
1
1
1
1
1
1
1
1
1
1
1
1
1
1
1
1
1
1.00072
1.34155
2.05975
2.23321
2.31892
2.37593
2.3796
1
1
1
1
1
1
1
1
1
1
1
1
1
1
1
1
1
1
1.02871
1.69275
2.23575
2.38472
2.39274
2.3748
1
1
1
1
1
1
1
1
1
1
1
1
1
1
1
1
1
1
1.0003
1.18282
2.28006
2.45779
2.40908
2.37801
1
1
1
1
1
1
1
1
1
1
1
1
1
1
1
1
1
1
1
1.08091
2.34972
2.53908
2.47499
2.4282
1
1
1
1
1
1
1
1
1
1
1
1
1
1
1
1
1
1
1
1.00308
2.29887
2.6287
2.56815
2.51238
1
1
1
1
1
1
1
1
1
1
1
1
1
1
1
1
1
1
1
1.00001
2.20995
2.67711
2.63926
2.59933
1
1
1
1
1
1
1
1
1
1
1
1
1
1
1
1
1
1
1
1
2.09862
2.67096
2.66577
2.64272
1
1
1
1
1
1
1
1
1
1
1
1
1
1
1
1
1
1
1
1
1.97149
2.64579
2.66946
2.65275
1
1
1
1
1
1
1
1
1
1
1
1
1
1
1
1
1
1
1
1
1.83687
2.61032
2.66897
2.65288
1
1
1
1
1
1
1
1
1
1
1
1
1
1
1
1
1
1
1
1
1.71142
2.58137
2.66781
2.64896
1
1
1
1
1
1
1
1
1
1
1
1
1
1
1
1
1
1
1
1
1.60212
2.56084
2.6697
2.64793
1
1
1
1
1
1
1
1
1
1
1
1
1
1
1
1
1
1
1
1
1.51872
2.54596
2.67682
2.6526
1
1
1
1
1
1
1
1
1
1
1
1
1
1
1
1
1
1
1
1
1.45666
2.52969
2.68614
2.66165
1
1
1
1
1
1
1
1
1
1
1
1
1
1
1
1
1
1
1
1
1.39684
2.51124
2.69231
2.66935
1
1
1
1
1
1
1
1
1
1
1
1
1
1
1
1
1
1
1
1
1.3476
2.49477
2.69419
2.67344
1
1
1
1
1
1
1
1
1
1
1
1
1
1
1
1
1
1
1
1
1.3208
2.48359
2.69366
2.67436
1
1
1
1
1
1
1
1
1
1
1
1
1
1
1
1
1
1
1
1
1.31145
2.47879
2.6927
2.67418
1.82051
1.99469
2.28896
2.47389
2.58195
2.63996
2.67003
2.68414
2.68001
2.66636
2.65506
2.64914
2.64726
2.65053
2.65677
2.66125
2.66228
2.66146
2.66165
2.66222
2.66475
2.66918
2.6755
2.68217
2.6865
2.68792
2.68736
2.68598
2.68532
2.68618
2.68828
2.69059
2.69231
2.69317
2.69353
2.69397
2.69556
2.69908
2.70525
2.71485
2.72791
2.7425
2.75568
2.76467
2.76829
2.76666
2.76031
2.74929
2.73612
2.72297
2.71032
2.69721
2.68271
2.6661
2.64678
2.62651
2.60691
2.58867
2.57204
2.55653
2.54076
2.52358
2.50526
2.48764
2.4724
2.46038
2.45137
2.44273
2.42959
2.41416
2.4006
2.39004
2.38379
2.38071
2.37456
2.36701
2.35882
2.35014
2.34236
2.33607
2.33104
2.32715
2.32405
2.32107
2.31762
2.31453
2.31346
2.31398
2.31636
2.32169
2.32813
2.33436
2.33852
2.34006
2.34182
2.35405
2.07121
2.19522
2.35018
2.46219
2.54006
2.58848
2.63227
2.66132
2.67099
2.67013
2.66771
2.6638
2.66046
2.66209
2.66744
2.6713
2.67126
2.66852
2.66625
2.66609
2.66812
2.67199
2.67653
2.68045
2.68313
2.68451
2.68504
2.68488
2.68397
2.68306
2.68234
2.68205
2.68261
2.68344
2.68355
2.68301
2.6828
2.68438
2.68948
2.69847
2.71006
2.72103
2.72854
2.73237
2.7336
2.73322
2.73172
2.72662
2.71479
2.69774
2.68001
2.66384
2.64906
2.63457
2.61875
2.59966
2.5789
2.55927
2.54203
2.52671
2.51279
2.49979
2.48522
2.46823
2.45094
2.43528
2.42226
2.4131
2.40533
2.39459
2.383
2.37285
2.36542
2.35881
2.35212
2.34559
2.33968
2.3345
2.32941
2.32378
2.31783
2.31224
2.30804
2.30537
2.3037
2.30308
2.30334
2.30386
2.305
2.30781
2.31405
2.32151
2.32869
2.33533
2.34048
2.34863
2.10076
2.14838
2.19197
2.28546
2.39496
2.48438
2.56245
2.62072
2.65923
2.6759
2.67782
2.67154
2.65772
2.64815
2.64513
2.64682
2.64854
2.64761
2.64554
2.6443
2.64543
2.64993
2.65544
2.65832
2.65818
2.65601
2.65343
2.6525
2.65256
2.65163
2.6484
2.64281
2.63718
2.63392
2.63222
2.63081
2.62839
2.62507
2.62364
2.62579
2.6327
2.64248
2.65065
2.6532
2.65114
2.64697
2.64305
2.64043
2.63591
2.6243
2.60603
2.58651
2.5691
2.55467
2.54246
2.53028
2.51484
2.49588
2.47679
2.45861
2.44234
2.42935
2.41857
2.40715
2.39326
2.37777
2.36242
2.34929
2.33894
2.33021
2.32343
2.31827
2.31292
2.30639
2.29883
2.29045
2.28292
2.27883
2.27694
2.27526
2.27312
2.269
2.26283
2.25756
2.25645
2.25817
2.26283
2.26884
2.2732
2.27521
2.27594
2.27772
2.28767
2.30262
2.3167
2.33196
2.11628
2.13286
2.10149
2.13631
2.23632
2.33954
2.42598
2.50737
2.57291
2.60931
2.61769
2.62104
2.61896
2.61007
2.59773
2.59178
2.59267
2.59678
2.59969
2.59739
2.58943
2.58072
2.57548
2.5739
2.57303
2.5682
2.55765
2.54553
2.53552
2.52803
2.52177
2.51387
2.50236
2.49045
2.48176
2.47675
2.47425
2.47197
2.46816
2.46461
2.46398
2.46616
2.4724
2.47912
2.48033
2.47837
2.47459
2.47142
2.46952
2.46711
2.45845
2.44295
2.42703
2.41319
2.40578
2.40057
2.39383
2.38161
2.36751
2.35353
2.34083
2.32979
2.31902
2.30737
2.29547
2.28391
2.27362
2.26415
2.25409
2.24344
2.23374
2.22703
2.2229
2.2201
2.21781
2.21454
2.20898
2.20137
2.1956
2.19445
2.1941
2.19309
2.19127
2.18876
2.18614
2.18523
2.18758
2.19534
2.20518
2.21406
2.22056
2.22523
2.22995
2.24085
2.25537
2.276
2.14975
2.13917
2.10456
2.07608
2.10856
2.15748
2.20536
2.28624
2.38029
2.46193
2.49683
2.50745
2.52219
2.53114
2.52618
2.51218
2.49976
2.49458
2.49401
2.49345
2.48497
2.46615
2.44526
2.42843
2.41694
2.40864
2.39784
2.38163
2.36361
2.34832
2.33781
2.3317
2.32516
2.31424
2.3022
2.2941
2.29117
2.29188
2.29387
2.29334
2.29059
2.28834
2.28936
2.29634
2.30443
2.30911
2.31118
2.31173
2.31419
2.32051
2.32049
2.31616
2.30776
2.30109
2.29633
2.29074
2.28331
2.27278
2.26167
2.25291
2.24593
2.23797
2.22906
2.21893
2.20777
2.19752
2.18968
2.18274
2.17539
2.16686
2.1561
2.1446
2.13719
2.13388
2.13239
2.13144
2.12963
2.12525
2.1177
2.11023
2.10713
2.10634
2.10644
2.10706
2.10794
2.10796
2.10741
2.10853
2.11483
2.12534
2.13795
2.15072
2.16299
2.17414
2.1808
2.19516
2.1847
2.14862
2.11205
2.05952
2.06118
2.07373
2.08324
2.12368
2.19899
2.30911
2.36687
2.36155
2.36023
2.36976
2.3762
2.36743
2.35068
2.33168
2.32187
2.31918
2.31668
2.30488
2.28274
2.2609
2.2451
2.23638
2.23024
2.2188
2.20146
2.1852
2.17437
2.1705
2.16957
2.1656
2.15806
2.15409
2.15403
2.1572
2.16217
2.16423
2.16501
2.16674
2.17008
2.17699
2.18274
2.18476
2.18702
2.19059
2.19654
2.20657
2.21364
2.21532
2.21574
2.21642
2.21597
2.21479
2.2112
2.20515
2.19785
2.19013
2.18286
2.17579
2.1667
2.15583
2.14358
2.13417
2.12875
2.12349
2.11778
2.11095
2.10152
2.08866
2.07684
2.07085
2.06781
2.06598
2.06457
2.06228
2.057
2.04741
2.03877
2.03595
2.03518
2.03549
2.03657
2.03814
2.03843
2.03755
2.03895
2.04638
2.05959
2.07482
2.08907
2.1014
2.1094
2.11651
2.20365
2.16269
2.12107
2.07171
2.03937
2.04624
2.05662
2.08478
2.15194
2.25213
2.27438
2.25712
2.22562
2.2135
2.2163
2.21439
2.20149
2.1819
2.16913
2.16725
2.16758
2.16313
2.14611
2.12846
2.11713
2.11142
2.11014
2.10653
2.09506
2.08313
2.07595
2.0737
2.0742
2.07669
2.07877
2.08105
2.08495
2.09004
2.09509
2.09991
2.10569
2.11424
2.12332
2.12535
2.12522
2.12458
2.12391
2.12594
2.13007
2.13683
2.14303
2.14669
2.14929
2.15211
2.15385
2.15593
2.15832
2.15845
2.15593
2.15308
2.14962
2.14301
2.13465
2.1235
2.10851
2.09684
2.09111
2.08635
2.08176
2.07635
2.06918
2.05844
2.04403
2.03302
2.02766
2.02442
2.02202
2.01962
2.01597
2.00889
1.99789
1.99036
1.98812
1.98735
1.98762
1.9884
1.9895
1.98929
1.98857
1.99274
2.00355
2.01733
2.03141
2.04202
2.04832
2.05382
2.21066
2.17122
2.13162
2.08542
2.05021
2.0579
2.08051
2.12028
2.17461
2.25377
2.24526
2.21808
2.17834
2.14163
2.12696
2.12055
2.10917
2.0932
2.08232
2.08071
2.0829
2.08343
2.07495
2.06129
2.05205
2.04853
2.04914
2.05032
2.04572
2.03707
2.03116
2.02937
2.03
2.034
2.0404
2.04453
2.04773
2.05066
2.05402
2.05858
2.06468
2.07491
2.08609
2.08808
2.09029
2.09181
2.09135
2.09209
2.09471
2.09813
2.10208
2.10519
2.10759
2.10972
2.11205
2.11584
2.12054
2.12187
2.12017
2.1189
2.11854
2.11792
2.11307
2.10507
2.09221
2.07724
2.06724
2.06202
2.05758
2.05321
2.04796
2.04044
2.02879
2.01436
2.0038
1.99873
1.99512
1.99183
1.98878
1.98486
1.97676
1.96521
1.9596
1.95765
1.95708
1.95768
1.95917
1.9613
1.9617
1.96363
1.97099
1.98146
1.99295
2.00219
2.00802
2.01548
2.2119
2.17483
2.14212
2.1061
2.09186
2.11125
2.14811
2.18252
2.21174
2.2584
2.25423
2.22858
2.18856
2.14381
2.11074
2.09599
2.08218
2.06685
2.05382
2.04755
2.04811
2.0509
2.04914
2.04078
2.03104
2.02435
2.02275
2.02446
2.02451
2.01925
2.01261
2.0091
2.00853
2.00996
2.01537
2.01885
2.02023
2.02178
2.02386
2.02819
2.03411
2.04441
2.05626
2.05898
2.06354
2.06897
2.07052
2.07069
2.07243
2.0748
2.07733
2.07821
2.07749
2.07515
2.07577
2.08037
2.08872
2.09172
2.09017
2.08897
2.08981
2.0907
2.09228
2.08883
2.08207
2.06969
2.05437
2.04408
2.03832
2.03404
2.03019
2.02522
2.01808
2.00712
1.99338
1.98292
1.9775
1.97466
1.97249
1.9688
1.96251
1.95305
1.94394
1.93974
1.93876
1.93926
1.94253
1.94721
1.95081
1.9526
1.95592
1.96147
1.96809
1.97642
1.98493
1.99436
2.20996
2.18225
2.16308
2.15994
2.16363
2.18401
2.21168
2.22315
2.23261
2.26103
2.26497
2.24525
2.21025
2.1661
2.12511
2.10191
2.08602
2.07015
2.05544
2.04357
2.03907
2.04075
2.04153
2.03579
2.02607
2.01741
2.01279
2.01265
2.01428
2.01071
2.004
1.99803
1.99451
1.9924
1.99384
1.99455
1.99324
1.99373
1.99445
1.9989
2.00585
2.01414
2.02743
2.03429
2.03834
2.04692
2.05142
2.05232
2.0544
2.05572
2.05689
2.05693
2.05391
2.05016
2.05054
2.0516
2.05571
2.05821
2.05808
2.05643
2.05829
2.06103
2.06439
2.06848
2.06685
2.06058
2.0487
2.0341
2.0226
2.01512
2.01027
2.00649
2.00271
1.99682
1.98772
1.97637
1.9653
1.95688
1.95163
1.94835
1.94592
1.94297
1.93819
1.93172
1.92832
1.92806
1.93079
1.93861
1.94627
1.9499
1.95181
1.95333
1.95696
1.96271
1.97049
1.98231
2.21052
2.20937
2.21834
2.23788
2.23628
2.23698
2.24886
2.24888
2.24839
2.26838
2.27739
2.26373
2.23172
2.19292
2.15357
2.1249
2.10281
2.08285
2.06748
2.05436
2.04359
2.03913
2.03901
2.0349
2.02688
2.01803
2.01195
2.00914
2.00964
2.00615
1.9993
1.99158
1.9855
1.98155
1.97969
1.97891
1.97562
1.97203
1.97026
1.9707
1.97553
1.98329
1.9939
2.00618
2.01072
2.01998
2.02763
2.02972
2.0335
2.03603
2.03664
2.03593
2.03078
2.02502
2.02422
2.02514
2.02727
2.02731
2.02499
2.02056
2.01902
2.02401
2.03058
2.03661
2.04121
2.04035
2.03523
2.02558
2.012
1.99961
1.99117
1.98594
1.98208
1.97859
1.97432
1.96727
1.9557
1.94257
1.93477
1.93168
1.9303
1.93013
1.92927
1.92725
1.92318
1.92173
1.92408
1.93072
1.94098
1.948
1.95074
1.95144
1.95337
1.957
1.96221
1.97315
2.23956
2.26438
2.28513
2.29536
2.27376
2.26329
2.26913
2.26997
2.26825
2.28135
2.29172
2.28095
2.253
2.2174
2.18121
2.15522
2.13248
2.10499
2.08293
2.0718
2.05923
2.0465
2.0408
2.03799
2.0312
2.0231
2.0162
2.0113
2.00846
2.00388
1.99625
1.98724
1.97912
1.97307
1.96823
1.96381
1.95842
1.95215
1.946
1.94001
1.93984
1.94572
1.95461
1.96744
1.97507
1.98257
1.99402
2.00007
2.0062
2.01234
2.01313
2.01291
2.00793
2.0002
1.99779
1.998
1.9981
1.99689
1.99433
1.99133
1.98642
1.98455
1.98984
1.99715
2.00336
2.00738
2.00948
2.00615
1.99876
1.98743
1.97397
1.9641
1.95973
1.95681
1.9538
1.94974
1.94302
1.93159
1.91949
1.91545
1.91487
1.9153
1.91756
1.91967
1.92004
1.91904
1.92102
1.92579
1.93343
1.94251
1.94743
1.94961
1.95119
1.95361
1.95636
1.96299
2.29404
2.32054
2.3346
2.32261
2.29349
2.27891
2.28403
2.28879
2.28761
2.29429
2.30407
2.29534
2.27202
2.24074
2.20639
2.17926
2.15989
2.13488
2.104
2.08575
2.07686
2.06348
2.05199
2.04461
2.03685
2.02804
2.02024
2.01427
2.01
2.00317
1.99447
1.98392
1.97352
1.96542
1.95814
1.95011
1.9418
1.93366
1.92409
1.91601
1.91018
1.90906
1.91368
1.92166
1.93048
1.93682
1.94881
1.96005
1.97039
1.98185
1.98644
1.98695
1.98425
1.97512
1.96914
1.9684
1.96849
1.96783
1.96607
1.96344
1.95902
1.95239
1.94999
1.95347
1.95847
1.96531
1.97106
1.97541
1.97436
1.9687
1.95842
1.94576
1.93629
1.93235
1.92965
1.92662
1.92284
1.91711
1.90786
1.89973
1.89932
1.89948
1.90254
1.90972
1.91428
1.91619
1.91917
1.92233
1.92602
1.93178
1.93936
1.94466
1.94683
1.94825
1.94852
1.95016
2.3427
2.35199
2.3497
2.33073
2.30304
2.29143
2.29772
2.30239
2.30011
2.30233
2.31149
2.30605
2.28712
2.25896
2.22781
2.2006
2.17952
2.15871
2.13088
2.10241
2.08865
2.07818
2.0664
2.05542
2.04383
2.03095
2.02105
2.01436
2.00972
2.00241
1.99254
1.97969
1.96582
1.95554
1.94583
1.93543
1.92494
1.91454
1.90332
1.89138
1.883
1.87655
1.87306
1.87501
1.88101
1.88644
1.89551
1.91114
1.9265
1.94331
1.95753
1.95968
1.95902
1.95289
1.94206
1.9369
1.93661
1.93983
1.94068
1.93842
1.93432
1.92788
1.91892
1.91456
1.91578
1.92008
1.92778
1.93612
1.9407
1.94065
1.93747
1.92896
1.91732
1.90841
1.90539
1.90282
1.9
1.89718
1.89341
1.88748
1.88474
1.88477
1.88794
1.89719
1.90751
1.91325
1.91614
1.91733
1.91861
1.92187
1.92749
1.93473
1.93822
1.93887
1.93765
1.93418
2.36691
2.35735
2.3492
2.33027
2.30592
2.29791
2.30436
2.30755
2.30409
2.3038
2.3126
2.31009
2.29474
2.26928
2.24065
2.21656
2.19567
2.17488
2.15027
2.12025
2.09972
2.08805
2.07596
2.06251
2.04769
2.03172
2.01998
2.01169
2.00478
1.99647
1.98559
1.97138
1.95532
1.94308
1.9314
1.91964
1.90773
1.8956
1.88316
1.87035
1.85871
1.85051
1.8438
1.8383
1.83908
1.84249
1.8465
1.85859
1.87637
1.89677
1.91905
1.93272
1.93517
1.93267
1.92405
1.9138
1.91039
1.91012
1.91368
1.91545
1.91315
1.90792
1.89803
1.89047
1.88733
1.88642
1.88837
1.8948
1.90224
1.90788
1.91058
1.90888
1.90262
1.89083
1.88373
1.88162
1.88009
1.87872
1.87754
1.87718
1.87549
1.87512
1.87927
1.88808
1.90024
1.9101
1.91352
1.91378
1.9134
1.91458
1.91752
1.92309
1.92577
1.92517
1.92194
1.9163
2.36236
2.35123
2.34403
2.3294
2.30749
2.30016
2.30547
2.30807
2.30296
2.30023
2.30712
2.30621
2.29395
2.27165
2.24541
2.22414
2.20567
2.18471
2.16083
2.13202
2.10777
2.09316
2.08086
2.0656
2.04774
2.02849
2.01582
2.00578
1.99648
1.98685
1.97502
1.96012
1.94272
1.92919
1.91717
1.90485
1.89263
1.88035
1.86763
1.85435
1.84095
1.82987
1.82203
1.81721
1.81331
1.81145
1.81225
1.8148
1.82735
1.84643
1.87093
1.89673
1.91054
1.91422
1.9114
1.90236
1.89549
1.89436
1.89462
1.89247
1.88931
1.88588
1.88229
1.87788
1.87442
1.8704
1.86605
1.86476
1.86816
1.87442
1.88276
1.88746
1.88621
1.88012
1.86972
1.8665
1.86581
1.86645
1.86794
1.87093
1.87226
1.87346
1.87903
1.88624
1.89525
1.90544
1.91135
1.91242
1.91138
1.9101
1.90978
1.91065
1.91138
1.90989
1.9072
1.90322
2.35206
2.34094
2.3352
2.32508
2.30592
2.29806
2.30227
2.30539
2.29903
2.29313
2.29614
2.29564
2.28645
2.26749
2.24346
2.22352
2.20726
2.18696
2.1631
2.13636
2.11074
2.09354
2.08113
2.06568
2.04572
2.02308
2.00965
1.99852
1.98711
1.97621
1.96398
1.94909
1.93152
1.91703
1.90558
1.89413
1.88246
1.87089
1.85889
1.84559
1.83127
1.81806
1.8087
1.80341
1.7992
1.79518
1.79212
1.78977
1.79025
1.80046
1.82196
1.85059
1.87569
1.8956
1.90075
1.89832
1.89332
1.89218
1.88932
1.88466
1.87879
1.87288
1.86956
1.86832
1.86717
1.86412
1.85791
1.84857
1.84631
1.84935
1.85673
1.86752
1.87165
1.87052
1.86418
1.86018
1.85917
1.86069
1.8671
1.8741
1.87783
1.88219
1.88759
1.8924
1.89758
1.90436
1.91123
1.9127
1.91188
1.90895
1.90458
1.90287
1.90224
1.90107
1.89934
1.89796
2.35544
2.34329
2.33705
2.32681
2.30755
2.29546
2.29704
2.29962
2.29301
2.2834
2.2829
2.28239
2.27587
2.26067
2.23943
2.22034
2.2047
2.18555
2.16115
2.13637
2.11202
2.09203
2.07796
2.06364
2.04375
2.01992
2.00353
1.99224
1.98015
1.96836
1.9562
1.94197
1.92473
1.90906
1.89833
1.88862
1.87844
1.8678
1.85659
1.84371
1.8287
1.81533
1.80664
1.79892
1.79263
1.78731
1.78187
1.77555
1.77142
1.77162
1.781
1.80647
1.83665
1.86487
1.88913
1.89775
1.89936
1.89651
1.89102
1.88375
1.87661
1.87176
1.86878
1.86617
1.86291
1.85931
1.85445
1.84461
1.83632
1.83625
1.83974
1.84883
1.85934
1.86247
1.86187
1.85957
1.86111
1.86499
1.87281
1.88416
1.89435
1.90132
1.90456
1.90585
1.9067
1.9091
1.91348
1.91497
1.91334
1.90983
1.90498
1.90195
1.90066
1.90019
1.90142
1.90071
2.38729
2.36152
2.34941
2.33487
2.31398
2.30047
2.30004
2.30039
2.29219
2.27806
2.27278
2.27214
2.26796
2.25549
2.23637
2.21702
2.20123
2.18381
2.16002
2.13555
2.11463
2.09312
2.07558
2.06183
2.04452
2.0226
2.00171
1.98913
1.97754
1.96545
1.95318
1.93985
1.92374
1.90663
1.89494
1.88671
1.87838
1.86959
1.86008
1.84893
1.83541
1.82015
1.80699
1.79713
1.78948
1.78361
1.77802
1.77281
1.76447
1.76108
1.7624
1.77132
1.79735
1.82926
1.86316
1.89252
1.90303
1.9041
1.8988
1.88935
1.88281
1.87834
1.87545
1.87279
1.86896
1.86416
1.858
1.84873
1.83787
1.83293
1.83341
1.83753
1.84713
1.85591
1.8614
1.86528
1.87128
1.87928
1.89036
1.90322
1.91676
1.92602
1.92723
1.9261
1.92198
1.92045
1.92171
1.92332
1.92136
1.91758
1.91261
1.9088
1.90766
1.90746
1.90916
1.90733
2.46093
2.42359
2.39959
2.37283
2.34406
2.32429
2.31656
2.31245
2.3001
2.28299
2.27501
2.27422
2.27112
2.25944
2.24073
2.21955
2.20173
2.18492
2.16406
2.13923
2.11872
2.10017
2.08066
2.06522
2.05122
2.03246
2.01159
1.99562
1.98615
1.97551
1.96284
1.949
1.93458
1.92336
1.9151
1.9069
1.89851
1.88985
1.88045
1.86933
1.85533
1.83856
1.82277
1.81095
1.80114
1.79249
1.78505
1.7781
1.77059
1.76242
1.76246
1.76405
1.77285
1.79434
1.82852
1.87051
1.90216
1.90892
1.90722
1.90034
1.89559
1.891
1.88669
1.88272
1.87847
1.87329
1.86702
1.85926
1.84893
1.83929
1.83544
1.83618
1.84099
1.85096
1.86182
1.87477
1.89027
1.90548
1.91808
1.92952
1.94445
1.95231
1.95243
1.94989
1.94362
1.9377
1.935
1.93492
1.9356
1.93312
1.92903
1.9236
1.91961
1.91774
1.91798
1.91627
2.55616
2.51442
2.47678
2.44123
2.40932
2.38296
2.36539
2.35348
2.3337
2.31157
2.29765
2.29293
2.28955
2.2785
2.26009
2.2386
2.22133
2.20611
2.18836
2.16539
2.14377
2.12864
2.10787
2.08621
2.07202
2.0602
2.04255
2.02172
2.00455
1.99544
1.98778
1.97764
1.96413
1.94926
1.93447
1.92216
1.91267
1.90417
1.89518
1.88475
1.87214
1.85784
1.84412
1.83176
1.82043
1.80991
1.79991
1.79032
1.78282
1.77747
1.77297
1.76913
1.7708
1.7761
1.79352
1.83129
1.87907
1.90738
1.91531
1.91495
1.91282
1.90714
1.8991
1.89134
1.88693
1.88321
1.8788
1.87334
1.86614
1.85623
1.8463
1.84306
1.84506
1.85339
1.8678
1.88766
1.91145
1.93313
1.9481
1.95763
1.96702
1.97528
1.97868
1.97672
1.97052
1.96134
1.95405
1.95084
1.95011
1.95022
1.94741
1.94354
1.93835
1.93366
1.93084
1.92651
2.61666
2.58645
2.55406
2.5208
2.48841
2.45963
2.43647
2.4159
2.39144
2.36765
2.35009
2.33944
2.33316
2.31863
2.29788
2.27477
2.25608
2.24044
2.22325
2.20379
2.18181
2.16339
2.15051
2.13347
2.11525
2.09643
2.08073
2.0656
2.0495
2.03429
2.02091
2.01033
2.00053
1.9868
1.96965
1.95319
1.94024
1.92999
1.92024
1.90953
1.89743
1.88432
1.87082
1.85755
1.84488
1.83305
1.82197
1.81196
1.80351
1.79586
1.78721
1.77841
1.77137
1.77321
1.77746
1.79319
1.83288
1.87891
1.91632
1.92747
1.92709
1.92253
1.91197
1.89803
1.89138
1.88868
1.88734
1.88674
1.88221
1.87509
1.86485
1.8584
1.86008
1.86743
1.88349
1.90904
1.93727
1.95973
1.97448
1.98187
1.98616
1.99047
1.99747
1.99955
1.99646
1.98915
1.97995
1.97437
1.97129
1.96982
1.96757
1.96402
1.95993
1.95401
1.94902
1.9427
2.63875
2.62127
2.60055
2.57692
2.55145
2.52774
2.5068
2.48445
2.45902
2.4346
2.41453
2.39957
2.38682
2.36852
2.34646
2.32443
2.30565
2.2903
2.27378
2.25406
2.23111
2.21077
2.19504
2.17909
2.16182
2.14216
2.12184
2.10421
2.0895
2.07497
2.06035
2.04638
2.03238
2.01802
2.00257
1.98671
1.97223
1.95916
1.9466
1.93405
1.92135
1.90871
1.89605
1.88343
1.87094
1.85834
1.84549
1.83286
1.82157
1.81089
1.8006
1.79073
1.78119
1.77442
1.77523
1.77604
1.791
1.83049
1.88163
1.92396
1.93279
1.9311
1.92229
1.90589
1.89456
1.89168
1.89193
1.8953
1.8947
1.89039
1.88462
1.87849
1.8806
1.8907
1.91057
1.93877
1.96609
1.98355
1.99347
2.00089
2.00561
2.00918
2.01383
2.01866
2.01779
2.01297
2.00564
2.00004
1.99623
1.99323
1.99015
1.98597
1.98121
1.97413
1.96747
1.96044
2.64387
2.63104
2.61651
2.60034
2.58275
2.56506
2.54702
2.52683
2.50519
2.48406
2.46631
2.45302
2.43912
2.42107
2.40049
2.37944
2.36041
2.34454
2.32588
2.30401
2.27956
2.25846
2.24166
2.22441
2.20643
2.1872
2.16604
2.1459
2.12857
2.11274
2.09734
2.08196
2.06612
2.04955
2.03254
2.01593
2.00007
1.98469
1.96968
1.95549
1.9422
1.92936
1.91657
1.90389
1.89157
1.87898
1.86544
1.85062
1.83546
1.8217
1.81024
1.80083
1.79183
1.78269
1.77568
1.77077
1.76932
1.78445
1.82564
1.88134
1.92201
1.92839
1.92558
1.91425
1.89985
1.89423
1.89414
1.89773
1.90039
1.90004
1.89918
1.89724
1.90297
1.92185
1.94628
1.96753
1.98775
2.00016
2.00572
2.01155
2.01759
2.02214
2.02628
2.03151
2.03381
2.03143
2.02646
2.02206
2.01848
2.01532
2.01186
2.00726
2.0016
1.99328
1.98511
1.9783
2.6391
2.62708
2.61455
2.60112
2.58828
2.57504
2.56016
2.54381
2.52718
2.51122
2.49745
2.48456
2.46986
2.45222
2.4334
2.41494
2.39879
2.38423
2.36567
2.3434
2.31966
2.29945
2.28188
2.26343
2.24395
2.22366
2.20243
2.18186
2.16288
2.14481
2.12708
2.10957
2.09196
2.07392
2.056
2.03911
2.02307
2.00709
1.99068
1.97422
1.95876
1.9446
1.93124
1.91862
1.90667
1.89449
1.88087
1.86463
1.84607
1.82893
1.81669
1.80741
1.79919
1.79008
1.78014
1.77049
1.75989
1.75686
1.77145
1.8169
1.87024
1.90903
1.92047
1.91845
1.90879
1.89891
1.89679
1.89729
1.8995
1.90418
1.90913
1.9171
1.94093
1.96759
1.98131
1.99122
2.00165
2.01016
2.01326
2.01596
2.02026
2.02627
2.03201
2.03797
2.0432
2.04385
2.04145
2.03813
2.03487
2.03146
2.02784
2.02302
2.0168
2.00891
2.00132
1.99559
2.63649
2.62423
2.61227
2.60006
2.58783
2.57421
2.55993
2.54603
2.53266
2.52068
2.50958
2.49706
2.48192
2.46499
2.44801
2.43405
2.4231
2.40887
2.38885
2.36628
2.34491
2.32708
2.31012
2.29152
2.27079
2.2484
2.22708
2.2073
2.18837
2.16958
2.15035
2.13047
2.11028
2.09083
2.07295
2.05647
2.0407
2.02476
2.00777
1.98925
1.97022
1.95353
1.93985
1.92786
1.91647
1.90467
1.89109
1.87419
1.85402
1.83461
1.82048
1.81054
1.80235
1.79382
1.78417
1.77275
1.7595
1.74441
1.7419
1.75794
1.80497
1.85843
1.90114
1.91297
1.91196
1.90377
1.89576
1.8942
1.89623
1.90517
1.92066
1.94962
1.98703
2.00418
2.00793
2.01004
2.01223
2.01647
2.01843
2.01885
2.01979
2.02357
2.03021
2.0374
2.04468
2.04933
2.04922
2.04709
2.04399
2.04051
2.03701
2.03292
2.02745
2.02147
2.01537
2.01047
2.63942
2.62558
2.61234
2.59895
2.58557
2.57203
2.55886
2.54597
2.53406
2.52293
2.51044
2.49625
2.48136
2.46802
2.45719
2.44785
2.43585
2.41843
2.39772
2.37673
2.35989
2.34481
2.32774
2.30827
2.28522
2.26109
2.24114
2.22272
2.2045
2.18597
2.16616
2.14415
2.12126
2.10076
2.08313
2.06707
2.05178
2.03652
2.0197
1.99985
1.97812
1.95877
1.944
1.93207
1.92089
1.90933
1.89637
1.88035
1.86053
1.84046
1.82396
1.8113
1.80219
1.79439
1.78602
1.77597
1.76161
1.74404
1.73386
1.73392
1.75348
1.80007
1.85608
1.8972
1.90516
1.90275
1.89298
1.88898
1.89422
1.90977
1.94302
1.98771
2.02066
2.02751
2.02517
2.02113
2.01979
2.02118
2.02258
2.02152
2.01992
2.02
2.02353
2.03053
2.03891
2.04754
2.05119
2.05079
2.04752
2.04356
2.04032
2.03715
2.03404
2.03035
2.02654
2.02351
2.64761
2.63229
2.61744
2.60289
2.58831
2.57401
2.56027
2.54718
2.53505
2.52278
2.50923
2.49541
2.48272
2.47166
2.46241
2.45285
2.43818
2.41968
2.4003
2.38372
2.36886
2.35455
2.33673
2.31587
2.2912
2.26807
2.24956
2.23205
2.21418
2.19583
2.17572
2.15196
2.12753
2.10694
2.08969
2.07382
2.05803
2.04229
2.02582
2.00632
1.98404
1.96377
1.94744
1.93388
1.92165
1.90944
1.89646
1.88179
1.8644
1.84577
1.8291
1.81485
1.80245
1.79212
1.78227
1.77033
1.75758
1.74547
1.73546
1.72893
1.72925
1.74917
1.7946
1.84868
1.88702
1.89487
1.88956
1.88812
1.89855
1.92999
1.9753
2.01813
2.03588
2.03724
2.03309
2.02674
2.02423
2.02426
2.02545
2.024
2.0214
2.0181
2.01729
2.02014
2.02741
2.03676
2.04488
2.04837
2.04705
2.04306
2.03974
2.03747
2.03713
2.0384
2.03842
2.04149
2.65602
2.64105
2.6263
2.6114
2.59633
2.58144
2.56697
2.55299
2.53938
2.5253
2.511
2.49768
2.48619
2.4763
2.46746
2.45543
2.43844
2.42009
2.40354
2.38878
2.3763
2.36057
2.3417
2.31926
2.29499
2.27388
2.25582
2.23885
2.22132
2.20214
2.17993
2.15554
2.13209
2.11158
2.09364
2.07802
2.06333
2.04722
2.02837
2.00794
1.98778
1.96898
1.95124
1.9348
1.92072
1.90836
1.89561
1.8814
1.86563
1.84982
1.83496
1.81947
1.804
1.79043
1.78021
1.76967
1.75675
1.7449
1.73585
1.72938
1.72184
1.72109
1.73893
1.78217
1.83771
1.87556
1.88085
1.89099
1.91959
1.96585
2.00868
2.0336
2.041
2.03948
2.03393
2.03036
2.02812
2.0269
2.02673
2.02465
2.02128
2.01699
2.01403
2.01402
2.01661
2.02307
2.03023
2.03658
2.04071
2.03934
2.0376
2.03779
2.0393
2.04437
2.04912
2.05637
2.6619
2.64838
2.63479
2.62053
2.60598
2.59129
2.57658
2.56185
2.54694
2.53184
2.51742
2.50439
2.49289
2.48278
2.47153
2.45648
2.44007
2.42368
2.40827
2.39491
2.38097
2.3634
2.34316
2.32086
2.29961
2.2805
2.26152
2.24243
2.22289
2.20171
2.17895
2.15697
2.13699
2.11826
2.09953
2.08035
2.06193
2.04365
2.02422
2.00576
1.99001
1.97458
1.95805
1.94035
1.92215
1.90524
1.8902
1.87643
1.86473
1.85389
1.84143
1.82683
1.81041
1.7923
1.7758
1.76638
1.75938
1.75161
1.74224
1.73241
1.72123
1.70986
1.70942
1.72869
1.7745
1.8317
1.86595
1.90339
1.9588
2.00532
2.03025
2.0369
2.03879
2.03974
2.03848
2.03596
2.03256
2.02915
2.02613
2.02313
2.02035
2.01772
2.0153
2.01239
2.01048
2.01146
2.01492
2.02064
2.02769
2.03321
2.03654
2.04004
2.0444
2.0516
2.05788
2.06624
2.664
2.65175
2.63927
2.62609
2.61247
2.59831
2.58372
2.5688
2.55366
2.53874
2.52462
2.51145
2.49906
2.48686
2.47262
2.45695
2.44198
2.4284
2.41522
2.40043
2.38252
2.36218
2.34124
2.32258
2.3044
2.28588
2.26652
2.24541
2.2223
2.19918
2.1776
2.15814
2.14055
2.12336
2.10517
2.08489
2.06195
2.03939
2.02013
2.00368
1.989
1.97542
1.96161
1.94581
1.92656
1.90508
1.8868
1.87303
1.86123
1.84994
1.83914
1.82781
1.81396
1.79561
1.77665
1.76337
1.75384
1.74598
1.7382
1.73072
1.72217
1.70915
1.69922
1.7043
1.7288
1.78024
1.84807
1.92343
1.9988
2.03117
2.03408
2.03229
2.033
2.03759
2.0414
2.03975
2.036
2.02977
2.02411
2.02096
2.01919
2.01809
2.01588
2.01282
2.00798
2.00467
2.00476
2.00801
2.01596
2.02601
2.03596
2.04534
2.05387
2.06108
2.06576
2.07075
2.66408
2.65216
2.64019
2.62768
2.6147
2.60107
2.58686
2.57227
2.55762
2.54329
2.52952
2.51625
2.5028
2.48802
2.47272
2.45836
2.44595
2.435
2.4216
2.40327
2.38238
2.36082
2.34153
2.32393
2.30786
2.28934
2.26948
2.24637
2.22016
2.19609
2.17675
2.15986
2.14367
2.12726
2.10895
2.08603
2.05888
2.03377
2.01546
2.00159
1.98948
1.97791
1.96556
1.94978
1.92732
1.90153
1.88112
1.86749
1.85736
1.8489
1.84089
1.83154
1.81713
1.79542
1.77307
1.75949
1.75117
1.74451
1.73812
1.73135
1.72108
1.70459
1.69279
1.69319
1.70376
1.74241
1.82894
1.94192
2.02591
2.04621
2.04065
2.03562
2.03506
2.03996
2.04509
2.04299
2.03829
2.02999
2.02352
2.02041
2.01909
2.01944
2.01691
2.01324
2.00697
2.00179
2.00062
2.00201
2.00918
2.02156
2.03617
2.04996
2.06116
2.06794
2.07166
2.0754
)
;

boundaryField
{
    inlet
    {
        type            fixedValue;
        value           uniform 1;
    }
    outlet
    {
        type            inletOutlet;
        inletValue      uniform 1;
        value           nonuniform List<scalar> 
32
(
2.35504
2.34878
2.33262
2.27745
2.19564
2.11562
2.05296
2.01516
1.99455
1.98326
1.97452
1.96394
1.95023
1.9334
1.91551
1.90288
1.89816
1.9011
1.90743
1.91639
1.92666
1.94274
1.96048
1.9783
1.99549
2.01017
2.02267
2.04073
2.056
2.06646
2.07096
2.07563
)
;
    }
    bottom
    {
        type            symmetryPlane;
    }
    top
    {
        type            symmetryPlane;
    }
    obstacle
    {
        type            zeroGradient;
    }
    defaultFaces
    {
        type            empty;
    }
}


// ************************************************************************* //
