/*--------------------------------*- C++ -*----------------------------------*\
  =========                 |
  \\      /  F ield         | OpenFOAM: The Open Source CFD Toolbox
   \\    /   O peration     | Website:  https://openfoam.org
    \\  /    A nd           | Version:  7
     \\/     M anipulation  |
\*---------------------------------------------------------------------------*/
FoamFile
{
    version     2.0;
    format      ascii;
    class       volVectorField;
    location    "14";
    object      U;
}
// * * * * * * * * * * * * * * * * * * * * * * * * * * * * * * * * * * * * * //

dimensions      [0 1 -1 0 0 0 0];

internalField   nonuniform List<vector> 
4032
(
(3 -8.79599e-17 0)
(3 -2.21741e-16 0)
(3 -7.20909e-17 0)
(3 -2.00576e-16 0)
(3 -2.79847e-16 0)
(3 3.04713e-17 0)
(3 -1.25105e-16 0)
(3 -2.20534e-16 0)
(3 -2.03788e-16 0)
(3 -4.0751e-16 0)
(3 -6.28442e-16 0)
(2.97556 0.00301358 0)
(1.04703 0.0183249 0)
(0.712795 0.0174686 0)
(0.661681 0.0217756 0)
(0.60375 0.0239067 0)
(0.544561 0.0258449 0)
(0.482623 0.0278104 0)
(0.417966 0.0298119 0)
(0.350377 0.031754 0)
(0.280412 0.0332976 0)
(0.207457 0.0357708 0)
(0.129769 0.0380965 0)
(0.0488201 0.0439346 0)
(3 -4.99883e-17 0)
(3 8.28235e-17 0)
(3 1.75465e-16 0)
(3 1.35956e-16 0)
(3 1.32093e-16 0)
(3 7.10802e-16 0)
(3 5.17202e-16 0)
(3 -3.65348e-16 0)
(3 -8.16652e-16 0)
(3 -2.89085e-16 0)
(3 2.71326e-17 0)
(2.98718 0.00608828 0)
(1.06344 0.0779319 0)
(0.712731 0.0641328 0)
(0.658581 0.0703667 0)
(0.599428 0.0762805 0)
(0.538888 0.0817035 0)
(0.475917 0.0875426 0)
(0.410397 0.0935606 0)
(0.342138 0.0995514 0)
(0.271673 0.104134 0)
(0.199005 0.111411 0)
(0.122336 0.117888 0)
(0.0455464 0.132992 0)
(3 9.86968e-17 0)
(3 4.21226e-17 0)
(3 2.1179e-16 0)
(3 5.03142e-16 0)
(3 6.65031e-16 0)
(3 6.55037e-16 0)
(3 2.24128e-16 0)
(3 -1.25957e-16 0)
(3 -9.38217e-17 0)
(3 6.91074e-16 0)
(3 1.20127e-15 0)
(3.00091 0.00157925 0)
(1.12779 0.126059 0)
(0.728699 0.10626 0)
(0.673475 0.117779 0)
(0.614761 0.127823 0)
(0.554112 0.136986 0)
(0.491102 0.146921 0)
(0.425239 0.157114 0)
(0.35608 0.167401 0)
(0.283342 0.175174 0)
(0.207573 0.187177 0)
(0.126294 0.19673 0)
(0.0472879 0.218357 0)
(3 2.20451e-17 0)
(3 -9.47553e-16 0)
(3 -5.40371e-16 0)
(3 -4.77635e-16 0)
(3 -3.86483e-16 0)
(3 -3.2397e-16 0)
(3 -2.3169e-17 0)
(3 5.44389e-16 0)
(3 9.66339e-16 0)
(3 8.15459e-16 0)
(3 3.89016e-16 0)
(3.00006 5.18679e-06 0)
(1.22367 0.175527 0)
(0.738664 0.151347 0)
(0.678991 0.165718 0)
(0.622583 0.179367 0)
(0.564258 0.19183 0)
(0.50416 0.205965 0)
(0.440321 0.221144 0)
(0.37146 0.237708 0)
(0.296306 0.251017 0)
(0.217311 0.269498 0)
(0.131433 0.283039 0)
(0.0479672 0.309278 0)
(3 -6.42122e-17 0)
(3 -1.81515e-16 0)
(3 -5.35395e-16 0)
(3 -1.02798e-15 0)
(3 -9.65086e-16 0)
(3 -1.37405e-15 0)
(3 -9.95653e-16 0)
(3 -1.09021e-15 0)
(3 -6.20801e-16 0)
(3 -5.26974e-16 0)
(3 -5.44835e-16 0)
(3 -8.48695e-09 0)
(1.37402 0.226678 0)
(0.754511 0.201003 0)
(0.684191 0.213043 0)
(0.630813 0.228503 0)
(0.576049 0.24349 0)
(0.520619 0.261993 0)
(0.461339 0.283222 0)
(0.397033 0.307835 0)
(0.324181 0.328234 0)
(0.245363 0.354528 0)
(0.152561 0.375712 0)
(0.058524 0.409796 0)
(3 -7.10966e-17 0)
(3 6.03172e-17 0)
(3 1.09884e-16 0)
(3 2.85272e-17 0)
(3 6.66074e-16 0)
(3 2.64325e-16 0)
(3 -4.10881e-16 0)
(3 -5.66058e-16 0)
(3 -2.56325e-16 0)
(3 8.16331e-17 0)
(3 1.54637e-16 0)
(3 -5.46736e-09 0)
(1.5971 0.276432 0)
(0.779838 0.259927 0)
(0.688097 0.261003 0)
(0.635282 0.27522 0)
(0.58388 0.291298 0)
(0.534875 0.313556 0)
(0.482896 0.340822 0)
(0.425413 0.375305 0)
(0.353318 0.408824 0)
(0.269391 0.45095 0)
(0.168036 0.489999 0)
(0.0574643 0.53309 0)
(3 5.76395e-17 0)
(3 3.17131e-16 0)
(3 4.26038e-16 0)
(3 1.1816e-15 0)
(3 1.25706e-15 0)
(3 1.48564e-15 0)
(3 1.33903e-15 0)
(3 1.11399e-15 0)
(3 8.37442e-16 0)
(3 1.12792e-15 0)
(3 8.53442e-16 0)
(3 -1.23918e-09 0)
(1.915 0.327336 0)
(0.819464 0.334845 0)
(0.695303 0.319458 0)
(0.640918 0.325797 0)
(0.590798 0.339209 0)
(0.54629 0.362454 0)
(0.500912 0.394661 0)
(0.455084 0.440063 0)
(0.395838 0.490842 0)
(0.327583 0.548748 0)
(0.235465 0.60627 0)
(0.103317 0.677484 0)
(3 7.83072e-17 0)
(3 -5.59117e-17 0)
(3 -2.30749e-16 0)
(3 -4.9735e-17 0)
(3 -6.36847e-17 0)
(3 2.66734e-16 0)
(3 8.54952e-17 0)
(3 -4.75632e-17 0)
(3 2.375e-16 0)
(3 1.52979e-16 0)
(3 1.30854e-16 0)
(3 -1.56511e-10 0)
(2.38119 0.335802 0)
(0.90711 0.423749 0)
(0.746944 0.376562 0)
(0.69111 0.380051 0)
(0.634488 0.388964 0)
(0.5856 0.410184 0)
(0.540776 0.444435 0)
(0.500853 0.495317 0)
(0.45719 0.558479 0)
(0.398003 0.645302 0)
(0.281946 0.770279 0)
(0.159402 0.947228 0)
(3 -7.32805e-17 0)
(3 -4.76893e-17 0)
(3 -2.50161e-16 0)
(3 -4.1207e-16 0)
(3 -3.54596e-16 0)
(3 -4.14762e-16 0)
(3 -2.316e-16 0)
(3 3.63412e-16 0)
(3 5.89522e-16 0)
(3 2.39075e-16 0)
(3 2.09096e-16 0)
(3 -8.43064e-12 0)
(2.94579 0.155589 0)
(1.09255 0.467448 0)
(0.844179 0.408656 0)
(0.786282 0.424272 0)
(0.717031 0.440122 0)
(0.656361 0.459178 0)
(0.606472 0.491445 0)
(0.565867 0.543339 0)
(0.53284 0.622207 0)
(0.501631 0.750184 0)
(0.479105 0.931231 0)
(0.597229 1.24293 0)
(3 -4.43356e-17 0)
(3 3.89906e-17 0)
(3 4.46466e-16 0)
(3 3.70669e-16 0)
(3 2.85045e-16 0)
(3 4.17504e-16 0)
(3 1.79968e-15 0)
(3 2.19614e-15 0)
(3 1.45953e-15 0)
(3 9.61454e-16 0)
(3 9.35176e-16 0)
(3 -2.57625e-13 0)
(3.03938 0.00821686 0)
(1.29654 0.44216 0)
(0.880642 0.469584 0)
(0.841237 0.498125 0)
(0.782141 0.509665 0)
(0.725865 0.523101 0)
(0.679045 0.549218 0)
(0.640015 0.596125 0)
(0.625814 0.677912 0)
(0.628903 0.812262 0)
(0.701365 0.967713 0)
(0.984009 1.15905 0)
(3 2.53871e-17 0)
(3 -1.05461e-16 0)
(3 2.60995e-16 0)
(3 3.09708e-16 0)
(3 3.7893e-16 0)
(3 7.68837e-16 0)
(3 7.59731e-16 0)
(3 4.6319e-16 0)
(3 5.91369e-16 0)
(3 6.27755e-16 0)
(3 3.38187e-16 0)
(3 -5.67402e-15 0)
(3.00114 -1.5075e-05 0)
(1.60098 0.464336 0)
(0.874045 0.514675 0)
(0.839234 0.542003 0)
(0.811263 0.565806 0)
(0.7814 0.581034 0)
(0.751746 0.604442 0)
(0.724469 0.640965 0)
(0.72648 0.710823 0)
(0.754934 0.824952 0)
(0.881347 0.952077 0)
(1.17173 1.06519 0)
(3 5.25525e-17 0)
(3 -6.7154e-20 0)
(3 -3.57427e-16 0)
(3 -2.86425e-16 0)
(3 -9.61549e-17 0)
(3 2.62139e-16 0)
(3 3.71403e-16 0)
(3 2.75101e-16 0)
(3 6.10076e-16 0)
(3 6.62317e-16 0)
(3 6.22634e-16 0)
(3 9.65305e-16 0)
(3 -1.01946e-07 0)
(2.25337 0.469746 0)
(0.963484 0.586922 0)
(0.867188 0.553269 0)
(0.862558 0.581906 0)
(0.845178 0.613409 0)
(0.828857 0.646488 0)
(0.815135 0.680515 0)
(0.825426 0.738811 0)
(0.873005 0.824139 0)
(1.01276 0.922918 0)
(1.26294 0.989677 0)
(3 -1.74119e-17 0)
(3 2.61084e-17 0)
(3 -1.15028e-16 0)
(3 -3.96877e-16 0)
(3 -9.63178e-16 0)
(3 -6.13143e-16 0)
(3 -8.25988e-17 0)
(3 2.72355e-16 0)
(3 1.73712e-16 0)
(3 5.56918e-16 0)
(3 1.32733e-15 0)
(3 2.818e-15 0)
(3 -1.35849e-07 0)
(3.03789 0.145455 0)
(1.2152 0.601987 0)
(0.944858 0.561746 0)
(0.936586 0.611884 0)
(0.917484 0.643444 0)
(0.90646 0.679117 0)
(0.905026 0.712048 0)
(0.918933 0.760087 0)
(0.977356 0.823575 0)
(1.10993 0.895973 0)
(1.32442 0.937782 0)
(3 2.19667e-16 0)
(3 1.36797e-16 0)
(3 3.0944e-16 0)
(3 1.27849e-16 0)
(3 -1.6197e-16 0)
(3 -4.22138e-16 0)
(3 -4.44628e-16 0)
(3 -7.19466e-17 0)
(3 -2.56256e-17 0)
(3 -1.70847e-16 0)
(3 -3.40046e-16 0)
(3 4.2124e-16 0)
(3 -2.96996e-08 0)
(3.03436 0.00278508 0)
(1.48268 0.586895 0)
(0.971669 0.643246 0)
(0.94929 0.657831 0)
(0.93887 0.680514 0)
(0.950727 0.712497 0)
(0.970661 0.748545 0)
(1.00123 0.782284 0)
(1.06626 0.825741 0)
(1.18146 0.870493 0)
(1.35325 0.895009 0)
(3 -2.0716e-17 0)
(3 -2.07439e-16 0)
(3 3.60726e-16 0)
(3 3.84993e-16 0)
(3 1.18148e-15 0)
(3 1.23555e-15 0)
(3 6.76412e-16 0)
(3 -5.10474e-17 0)
(3 -1.82443e-16 0)
(3 -8.69443e-16 0)
(3 -1.00785e-15 0)
(3 -8.07457e-16 0)
(3 -2.61222e-09 0)
(3.00061 -9.67199e-06 0)
(2.17686 0.566072 0)
(1.05681 0.715233 0)
(0.989185 0.677005 0)
(0.980779 0.690616 0)
(0.997813 0.717048 0)
(1.02494 0.754132 0)
(1.06931 0.791325 0)
(1.13945 0.828358 0)
(1.23914 0.858204 0)
(1.37725 0.871487 0)
(3 -9.94432e-17 0)
(3 -1.1241e-17 0)
(3 2.24451e-16 0)
(3 6.69351e-16 0)
(3 1.03536e-15 0)
(3 8.12424e-16 0)
(3 6.87568e-16 0)
(3 1.62237e-16 0)
(3 6.26885e-16 0)
(3 5.92696e-16 0)
(3 6.12864e-16 0)
(3 9.42862e-16 0)
(3 -1.53017e-11 0)
(3.00004 -1.79642e-05 0)
(3.04938 0.140198 0)
(1.35636 0.693499 0)
(1.07248 0.699088 0)
(1.06552 0.704471 0)
(1.06649 0.731465 0)
(1.08435 0.76466 0)
(1.12626 0.794911 0)
(1.19364 0.825881 0)
(1.28226 0.84687 0)
(1.395 0.855188 0)
(3 -6.14746e-17 0)
(3 -8.46803e-17 0)
(3 -2.20701e-16 0)
(3 -6.1072e-17 0)
(3 1.86293e-16 0)
(3 1.64859e-16 0)
(3 2.05977e-16 0)
(3 9.24471e-16 0)
(3 1.144e-15 0)
(3 2.4689e-15 0)
(3 2.55857e-15 0)
(3 2.04348e-15 0)
(3 -2.3924e-14 0)
(3 -3.95345e-06 0)
(3.02511 0.00169757 0)
(1.7205 0.661178 0)
(1.10052 0.759763 0)
(1.09277 0.759175 0)
(1.1067 0.769684 0)
(1.13114 0.786816 0)
(1.17317 0.80718 0)
(1.23569 0.827344 0)
(1.31613 0.841704 0)
(1.41053 0.846829 0)
(3 -2.0033e-17 0)
(3 7.59891e-17 0)
(3 -4.50555e-16 0)
(3 -5.65509e-16 0)
(3 -2.20406e-16 0)
(3 6.45787e-17 0)
(3 1.95679e-16 0)
(3 4.05262e-16 0)
(3 2.29447e-17 0)
(3 8.50107e-17 0)
(3 4.33369e-16 0)
(3 4.29222e-16 0)
(3 -1.27689e-16 0)
(3 -3.23817e-07 0)
(3.0003 9.3393e-06 0)
(2.67253 0.403613 0)
(1.25798 0.784775 0)
(1.13406 0.77054 0)
(1.15521 0.772501 0)
(1.17693 0.790673 0)
(1.21475 0.808123 0)
(1.27099 0.824434 0)
(1.34405 0.836231 0)
(1.42574 0.84093 0)
(3 -2.50767e-17 0)
(3 -5.34278e-17 0)
(3 -1.19519e-16 0)
(3 -2.93527e-16 0)
(3 -2.01844e-16 0)
(3 3.40918e-16 0)
(3 1.61134e-16 0)
(3 -5.52973e-16 0)
(3 -7.91914e-16 0)
(3 -1.95759e-15 0)
(3 -1.54081e-15 0)
(3 -8.06001e-16 0)
(3 -2.92914e-16 0)
(3 -1.81436e-09 0)
(3.00002 -9.63111e-06 0)
(3.06454 0.0290999 0)
(1.64308 0.749427 0)
(1.18032 0.803757 0)
(1.20177 0.802367 0)
(1.21532 0.811381 0)
(1.25096 0.820514 0)
(1.30199 0.830194 0)
(1.36627 0.838847 0)
(1.43835 0.838207 0)
(3 -1.16886e-16 0)
(3 -1.00779e-16 0)
(3 7.2791e-17 0)
(3 2.85095e-16 0)
(3 -1.73913e-16 0)
(3 -3.8148e-16 0)
(3 -4.07312e-16 0)
(3 -2.92749e-16 0)
(3 -6.15983e-16 0)
(3 -7.79766e-16 0)
(3 -5.55882e-16 0)
(3 -9.35145e-16 0)
(3 -4.71635e-17 0)
(3 -2.79621e-12 0)
(3 -2.11924e-06 0)
(3.00306 0.000548721 0)
(2.53274 0.534684 0)
(1.30428 0.860701 0)
(1.23747 0.834525 0)
(1.258 0.829262 0)
(1.28957 0.830469 0)
(1.33335 0.836351 0)
(1.38742 0.837685 0)
(1.43794 0.827911 0)
(3 4.87807e-17 0)
(3 2.67965e-16 0)
(3 7.77991e-17 0)
(3 -1.76809e-16 0)
(3 -3.73834e-16 0)
(3 -6.7032e-16 0)
(3 -2.14364e-16 0)
(3 2.11661e-16 0)
(3 3.71798e-16 0)
(3 5.6825e-16 0)
(3 1.44805e-16 0)
(3 -1.88856e-16 0)
(3 -2.14005e-16 0)
(3 -9.14465e-16 0)
(3 -1.77675e-07 0)
(3.00001 1.31955e-06 0)
(3.06188 0.0571226 0)
(1.73486 0.803592 0)
(1.28532 0.848135 0)
(1.3134 0.844248 0)
(1.33384 0.848168 0)
(1.37045 0.845168 0)
(1.396 0.83323 0)
(1.41444 0.783049 0)
(3 1.80414e-16 0)
(3 2.98704e-16 0)
(3 5.7654e-16 0)
(3 4.47271e-16 0)
(3 3.75011e-16 0)
(3 1.30796e-16 0)
(3 2.5301e-16 0)
(3 3.7216e-16 0)
(3 3.82701e-16 0)
(3 4.89504e-16 0)
(3 2.03795e-16 0)
(3 9.92802e-17 0)
(3 1.13726e-16 0)
(3 1.45716e-15 0)
(3 -1.21811e-09 0)
(3 -1.43242e-07 0)
(3.00452 0.00181918 0)
(2.64436 0.501342 0)
(1.43852 0.901308 0)
(1.34952 0.882883 0)
(1.37803 0.871835 0)
(1.39152 0.861739 0)
(1.37981 0.799815 0)
(1.36632 0.705971 0)
(3 9.90263e-18 0)
(3 1.12368e-16 0)
(3 9.86298e-17 0)
(3 6.09053e-16 0)
(3 4.66158e-16 0)
(3 2.02261e-16 0)
(3 -2.98863e-16 0)
(3 -3.89366e-16 0)
(3 -3.49606e-16 0)
(3 -4.5554e-16 0)
(3 -1.57397e-16 0)
(3 3.64995e-16 0)
(3 6.33566e-16 0)
(3 1.61493e-15 0)
(3 -2.27577e-12 0)
(3 -3.15041e-08 0)
(3.00001 1.10894e-05 0)
(3.04685 0.0421434 0)
(1.90616 0.795518 0)
(1.40265 0.899788 0)
(1.41373 0.889616 0)
(1.38563 0.832265 0)
(1.33576 0.728196 0)
(1.32951 0.641621 0)
(3 -8.01565e-17 0)
(3 -4.99438e-16 0)
(3 -6.92625e-16 0)
(3 -8.9007e-16 0)
(3 -9.06773e-16 0)
(3 -6.16326e-16 0)
(3 -8.19956e-16 0)
(3 -9.26146e-16 0)
(3 -2.387e-16 0)
(3 4.19081e-16 0)
(3 7.87593e-16 0)
(3 7.82116e-16 0)
(3 3.31962e-16 0)
(3 6.40911e-16 0)
(3 -3.75664e-17 0)
(3 -2.99642e-09 0)
(3 9.16371e-10 0)
(3.00205 0.00162337 0)
(2.80101 0.370473 0)
(1.62081 0.943041 0)
(1.38678 0.868827 0)
(1.30844 0.752947 0)
(1.28719 0.643891 0)
(1.31022 0.586217 0)
(3 1.81218e-16 0)
(3 -2.09274e-16 0)
(3 -2.73524e-16 0)
(3 7.60561e-17 0)
(3 5.99762e-16 0)
(3 7.5472e-16 0)
(3 6.43157e-16 0)
(3 3.29772e-16 0)
(3 2.07289e-16 0)
(3 1.55312e-15 0)
(3 2.08786e-15 0)
(3 1.69475e-15 0)
(3 1.1678e-15 0)
(3 5.28862e-16 0)
(3 5.05069e-16 0)
(3 -1.02138e-10 0)
(3 -1.11777e-10 0)
(3 7.6089e-06 0)
(3.02314 0.0243446 0)
(2.28023 0.753238 0)
(1.34138 0.84477 0)
(1.22195 0.663968 0)
(1.26715 0.606358 0)
(1.31794 0.565975 0)
(3 2.358e-17 0)
(3 6.31123e-17 0)
(3 1.96491e-16 0)
(3 8.01555e-16 0)
(3 1.26392e-15 0)
(3 8.86228e-16 0)
(3 8.71859e-16 0)
(3 9.8906e-16 0)
(3 5.07636e-16 0)
(3 3.22431e-16 0)
(3 9.96459e-16 0)
(3 1.61809e-15 0)
(3 1.31473e-15 0)
(3 6.33788e-16 0)
(3 2.18874e-16 0)
(3 -7.09788e-13 0)
(3 -3.55573e-11 0)
(3 2.74586e-09 0)
(3.00037 0.000942704 0)
(2.98482 0.163864 0)
(1.3968 0.611338 0)
(1.17574 0.559494 0)
(1.26593 0.558419 0)
(1.31715 0.541544 0)
(3 2.1986e-16 0)
(3 2.45633e-16 0)
(3 3.13519e-16 0)
(3 6.21573e-17 0)
(3 -2.26824e-16 0)
(3 -5.3789e-16 0)
(3 -1.96247e-16 0)
(3 4.47626e-16 0)
(3 4.01813e-16 0)
(3 -2.60223e-16 0)
(3 -4.10527e-16 0)
(3 -6.54835e-16 0)
(3 -4.08211e-16 0)
(3 -2.58346e-16 0)
(3 8.16524e-18 0)
(3 -1.9784e-15 0)
(3 -4.69707e-12 0)
(3 -4.46688e-12 0)
(3 4.0312e-06 0)
(2.95929 0.00608286 0)
(1.20204 0.376393 0)
(1.05627 0.502401 0)
(1.2071 0.509385 0)
(1.28443 0.495237 0)
(3 -6.71724e-18 0)
(3 -4.85612e-17 0)
(3 -2.96475e-16 0)
(3 -4.40824e-16 0)
(3 -7.53139e-16 0)
(3 -8.25004e-16 0)
(3 -8.90904e-16 0)
(3 -5.12756e-16 0)
(3 -4.57933e-16 0)
(3 -1.05785e-15 0)
(3 -1.61217e-15 0)
(3 -1.80715e-15 0)
(3 -1.70194e-15 0)
(3 -1.17031e-15 0)
(3 -1.17527e-15 0)
(3 -6.38889e-16 0)
(3 -1.38075e-13 0)
(3 -1.55621e-12 0)
(3 1.79369e-09 0)
(2.99911 0.00278444 0)
(1.16403 0.239889 0)
(0.883699 0.392365 0)
(1.04745 0.427461 0)
(1.1617 0.448432 0)
(3 -3.06887e-16 0)
(3 -3.36818e-16 0)
(3 -3.72011e-16 0)
(3 -3.60518e-16 0)
(3 -4.65526e-16 0)
(3 -4.11867e-16 0)
(3 -6.277e-16 0)
(3 -6.93823e-16 0)
(3 -6.20058e-16 0)
(3 -9.85074e-16 0)
(3 -1.67697e-15 0)
(3 -1.3868e-15 0)
(3 -8.7887e-16 0)
(3 -4.6294e-16 0)
(3 -5.27134e-16 0)
(3 -4.5181e-16 0)
(3 -1.44761e-15 0)
(3 -2.37492e-13 0)
(3 6.60992e-13 0)
(3.00002 7.27737e-06 0)
(1.29294 0.223247 0)
(0.819578 0.308944 0)
(0.903554 0.319554 0)
(0.996879 0.350078 0)
(3 -2.3335e-17 0)
(3 -1.72813e-17 0)
(3 1.68019e-16 0)
(3 2.75442e-16 0)
(3 4.37831e-16 0)
(3 9.15899e-16 0)
(3 1.09051e-15 0)
(3 5.94586e-16 0)
(3 7.10339e-16 0)
(3 6.36361e-16 0)
(3 4.73529e-16 0)
(3 4.33607e-16 0)
(3 7.51456e-16 0)
(3 4.03615e-16 0)
(3 -3.00835e-16 0)
(3 -1.15269e-15 0)
(3 -1.47593e-15 0)
(3 -1.87643e-14 0)
(3 -1.85961e-14 0)
(3 7.20613e-10 0)
(1.43911 0.25363 0)
(0.818108 0.262059 0)
(0.83076 0.269127 0)
(0.887991 0.279695 0)
(3 6.05248e-17 0)
(3 1.33461e-16 0)
(3 9.61891e-17 0)
(3 7.2401e-17 0)
(3 2.40843e-16 0)
(3 4.10112e-16 0)
(3 6.27673e-16 0)
(3 1.00637e-15 0)
(3 1.24632e-15 0)
(3 1.40791e-15 0)
(3 1.86484e-15 0)
(3 1.74957e-15 0)
(3 1.24201e-15 0)
(3 5.00225e-16 0)
(3 9.10055e-17 0)
(3 -1.5112e-16 0)
(3 -8.1253e-16 0)
(3 -3.90657e-16 0)
(3 -5.88864e-15 0)
(3 -9.52412e-13 0)
(1.64005 0.263899 0)
(0.830319 0.243622 0)
(0.817684 0.236014 0)
(0.855094 0.237561 0)
(3 1.746e-16 0)
(3 2.43251e-16 0)
(3 3.0269e-16 0)
(3 2.32769e-16 0)
(3 -5.77857e-16 0)
(3 -6.68363e-16 0)
(3 -4.26496e-16 0)
(3 -4.89912e-17 0)
(3 3.58087e-16 0)
(3 1.03763e-15 0)
(3 7.86603e-16 0)
(3 1.66764e-16 0)
(3 -8.6796e-20 0)
(3 -1.24915e-17 0)
(3 -3.67008e-17 0)
(3 5.96334e-17 0)
(3 8.03616e-16 0)
(3 2.56782e-15 0)
(3 2.15367e-15 0)
(3 -6.62725e-13 0)
(1.88607 0.24985 0)
(0.850825 0.231983 0)
(0.821547 0.213635 0)
(0.859154 0.208688 0)
(3 -9.46666e-17 0)
(3 -1.3604e-18 0)
(3 1.65827e-16 0)
(3 -7.66937e-17 0)
(3 -1.01423e-16 0)
(3 -2.67317e-16 0)
(3 -2.21754e-16 0)
(3 -2.00621e-16 0)
(3 -3.06346e-16 0)
(3 -1.60712e-16 0)
(3 -1.00628e-15 0)
(3 -1.05389e-15 0)
(3 -1.09007e-15 0)
(3 -3.74441e-16 0)
(3 -1.8043e-17 0)
(3 1.37398e-16 0)
(3 6.87003e-16 0)
(3 1.19335e-15 0)
(3 1.4611e-15 0)
(3 -1.1064e-13 0)
(2.12914 0.211578 0)
(0.874018 0.210355 0)
(0.825373 0.190183 0)
(0.866997 0.186028 0)
(3 -1.45384e-16 0)
(3 -2.4326e-16 0)
(3 -1.97531e-16 0)
(3 -3.11411e-16 0)
(3 -2.7646e-16 0)
(3 -5.52344e-16 0)
(3 -3.81147e-16 0)
(3 -4.76739e-16 0)
(3 -3.72165e-16 0)
(3 -8.40335e-16 0)
(3 -8.82967e-16 0)
(3 -6.20721e-16 0)
(3 -3.04015e-16 0)
(3 7.27608e-17 0)
(3 2.71843e-16 0)
(3 6.94085e-16 0)
(3 3.20594e-16 0)
(3 -2.45212e-16 0)
(3 -3.74485e-16 0)
(3 -9.92599e-15 0)
(2.33801 0.160846 0)
(0.900252 0.18002 0)
(0.830744 0.164543 0)
(0.876468 0.163204 0)
(3 -1.58785e-17 0)
(3 -5.39664e-18 0)
(3 -1.09653e-16 0)
(3 2.15974e-16 0)
(3 2.55936e-16 0)
(3 1.51998e-16 0)
(3 -1.40674e-16 0)
(3 -3.54856e-16 0)
(3 -2.63566e-16 0)
(3 7.47381e-17 0)
(3 2.52714e-16 0)
(3 4.23145e-16 0)
(3 5.79952e-16 0)
(3 5.55029e-16 0)
(3 2.68017e-16 0)
(3 4.06558e-17 0)
(3 -4.88918e-16 0)
(3 -1.05425e-15 0)
(3 -1.53149e-15 0)
(3 -1.68448e-15 0)
(2.48348 0.110199 0)
(0.918877 0.140729 0)
(0.828926 0.132364 0)
(0.877794 0.133217 0)
(3 5.44375e-18 0)
(3 9.97738e-17 0)
(3 -2.30282e-16 0)
(3 -1.69315e-16 0)
(3 1.9191e-18 0)
(3 6.29229e-17 0)
(3 3.06918e-16 0)
(3 3.83723e-16 0)
(3 2.93937e-16 0)
(3 5.30394e-16 0)
(3 6.62948e-16 0)
(3 5.01415e-16 0)
(3 2.82822e-16 0)
(3 3.94801e-16 0)
(3 5.43441e-16 0)
(3 3.49816e-16 0)
(3 -1.20569e-15 0)
(3 -2.44696e-15 0)
(3 -1.91506e-15 0)
(3 -1.50941e-15 0)
(2.57656 0.0746363 0)
(0.922838 0.0987312 0)
(0.815758 0.103541 0)
(0.862986 0.103931 0)
(3 5.57818e-17 0)
(3 4.6659e-17 0)
(3 5.17697e-17 0)
(3 -9.75893e-17 0)
(3 -9.20649e-16 0)
(3 -9.11253e-16 0)
(3 -5.33399e-16 0)
(3 6.30001e-17 0)
(3 3.26002e-16 0)
(3 6.66392e-17 0)
(3 2.36389e-16 0)
(3 -3.31876e-16 0)
(3 -3.94787e-16 0)
(3 -4.63226e-16 0)
(3 -3.87881e-16 0)
(3 -9.21845e-16 0)
(3 -1.76727e-15 0)
(3 -1.9011e-15 0)
(3 -1.4597e-15 0)
(3 -1.58857e-15 0)
(2.6578 0.0517294 0)
(0.93223 0.065244 0)
(0.796727 0.0793112 0)
(0.839543 0.0793867 0)
(3 2.02717e-16 0)
(3 2.98081e-16 0)
(3 1.37163e-16 0)
(3 -2.01875e-17 0)
(3 -1.59608e-16 0)
(3 -2.79772e-16 0)
(3 -9.78154e-16 0)
(3 -1.15691e-15 0)
(3 -1.17713e-15 0)
(3 -1.27923e-15 0)
(3 -1.10786e-15 0)
(3 -1.1732e-15 0)
(3 -1.17888e-15 0)
(3 -1.47762e-15 0)
(3 -1.27523e-15 0)
(3 -1.28648e-15 0)
(3 -3.91318e-16 0)
(3 -1.82177e-16 0)
(3 -3.44903e-16 0)
(3 -8.11676e-16 0)
(2.72191 0.0318299 0)
(0.949419 0.0448656 0)
(0.787951 0.0548431 0)
(0.826505 0.0545915 0)
(3 -9.69074e-17 0)
(3 -2.01802e-16 0)
(3 -3.61582e-16 0)
(3 -4.15353e-16 0)
(3 1.90905e-16 0)
(3 1.18777e-16 0)
(3 -1.50795e-16 0)
(3 -8.66623e-16 0)
(3 -1.48281e-15 0)
(3 -2.0304e-15 0)
(3 -2.45341e-15 0)
(3 -1.49073e-15 0)
(3 -8.44996e-16 0)
(3 -6.50878e-16 0)
(3 -8.90329e-16 0)
(3 -4.31899e-16 0)
(3 1.55113e-15 0)
(3 2.29795e-15 0)
(3 2.03599e-15 0)
(3 8.13144e-16 0)
(2.75412 0.0142102 0)
(0.958915 0.0250841 0)
(0.787476 0.0323726 0)
(0.823687 0.0321787 0)
(3 -2.92305e-16 0)
(3 -3.95282e-16 0)
(3 -2.03553e-16 0)
(3 -1.53018e-16 0)
(3 -3.64877e-17 0)
(3 -1.03244e-16 0)
(3 6.57201e-17 0)
(3 -1.42586e-16 0)
(3 -3.87171e-16 0)
(3 -7.48329e-16 0)
(3 -8.09417e-16 0)
(3 -4.88868e-16 0)
(3 -7.32325e-17 0)
(3 1.2495e-16 0)
(3 -1.24457e-16 0)
(3 -3.17116e-17 0)
(3 5.92518e-16 0)
(3 1.01404e-15 0)
(3 1.19629e-15 0)
(3 3.84203e-16 0)
(2.76172 0.0024496 0)
(0.958797 0.00538035 0)
(0.782433 0.0102672 0)
(0.817528 0.0107816 0)
(1.25522 1.41742 0)
(0.346265 0.686765 0)
(-0.0300591 0.129572 0)
(-0.0592286 -0.00356764 0)
(-0.0561916 0.00356841 0)
(-0.0682817 0.0250671 0)
(-0.0839529 0.0319588 0)
(-0.0930383 0.0244951 0)
(-0.0991055 0.0167547 0)
(-0.110441 0.0134793 0)
(-0.125798 0.0122263 0)
(-0.144983 0.0121727 0)
(-0.157792 0.0101343 0)
(-0.162565 0.00304584 0)
(-0.163406 -0.0036698 0)
(-0.167015 -0.00730064 0)
(-0.172401 -0.00897344 0)
(-0.176104 -0.00944134 0)
(-0.176415 -0.00924471 0)
(-0.17251 -0.00932651 0)
(-0.165154 -0.00919999 0)
(-0.152876 -0.0097782 0)
(-0.136378 -0.0117113 0)
(-0.118269 -0.0148296 0)
(-0.101175 -0.0179952 0)
(-0.085442 -0.0208244 0)
(-0.0694779 -0.0232117 0)
(-0.0520008 -0.0252616 0)
(-0.0311313 -0.0276293 0)
(-0.00590901 -0.0300784 0)
(0.0238171 -0.0327622 0)
(0.0571077 -0.0362015 0)
(0.0928942 -0.0400081 0)
(0.129984 -0.0435049 0)
(0.167421 -0.0467268 0)
(0.204652 -0.0494612 0)
(0.240816 -0.051916 0)
(0.274314 -0.0538578 0)
(0.303433 -0.0552467 0)
(0.327523 -0.0556438 0)
(0.347319 -0.0544796 0)
(0.365951 -0.0523014 0)
(0.388193 -0.0507792 0)
(0.417221 -0.0502392 0)
(0.452222 -0.0510028 0)
(0.490578 -0.0521049 0)
(0.531104 -0.051559 0)
(0.572532 -0.0486943 0)
(0.61508 -0.0457728 0)
(0.660232 -0.0439929 0)
(0.709502 -0.0429203 0)
(0.761557 -0.0414871 0)
(0.813672 -0.0406727 0)
(0.863595 -0.0392515 0)
(0.911818 -0.0364003 0)
(0.958766 -0.0334417 0)
(1.00594 -0.0313201 0)
(1.05392 -0.0292127 0)
(1.10128 -0.0266513 0)
(1.14589 -0.0246897 0)
(1.18653 -0.0237054 0)
(1.22352 -0.022246 0)
(1.25748 -0.0194585 0)
(1.2894 -0.0167295 0)
(1.32093 -0.0151996 0)
(1.35409 -0.0146733 0)
(1.38937 -0.01502 0)
(1.42457 -0.0145178 0)
(1.45206 -0.0117161 0)
(1.4735 -0.00876999 0)
(1.49408 -0.00499551 0)
(1.5149 -0.00249791 0)
(1.53871 -0.00116977 0)
(1.56509 -0.000860731 0)
(1.58456 -0.000642778 0)
(1.60014 -0.000257727 0)
(1.61323 0.000936729 0)
(1.62348 0.00272033 0)
(1.6328 0.00461909 0)
(1.64193 0.00611851 0)
(1.65061 0.00693406 0)
(1.65881 0.00716389 0)
(1.66633 0.00731096 0)
(1.67207 0.00766887 0)
(1.67472 0.00832797 0)
(1.67454 0.00924661 0)
(1.67366 0.00989591 0)
(1.67283 0.00995616 0)
(1.67145 0.00961523 0)
(1.66959 0.00940953 0)
(1.66594 0.00911615 0)
(1.65946 0.00877968 0)
(1.64813 0.00847199 0)
(1.62835 0.00874526 0)
(1.6086 0.00958692 0)
(1.59025 0.00853645 0)
(1.72197 1.24294 0)
(1.32002 0.792955 0)
(0.880544 0.248594 0)
(0.494284 0.033969 0)
(0.23924 0.0531173 0)
(0.105495 0.1046 0)
(0.0241318 0.107121 0)
(-0.0208063 0.0812693 0)
(-0.0552375 0.0570677 0)
(-0.0807768 0.0336729 0)
(-0.100001 0.0115946 0)
(-0.119851 0.00425632 0)
(-0.133552 -0.00395059 0)
(-0.135911 -0.014126 0)
(-0.130767 -0.0245632 0)
(-0.125723 -0.0323992 0)
(-0.123885 -0.0347278 0)
(-0.121773 -0.0337135 0)
(-0.116653 -0.0313738 0)
(-0.106144 -0.0302767 0)
(-0.0904473 -0.0287093 0)
(-0.0698205 -0.0272418 0)
(-0.0461545 -0.0264322 0)
(-0.0213771 -0.0290848 0)
(0.00397365 -0.0359611 0)
(0.0305137 -0.0415031 0)
(0.0583468 -0.0459418 0)
(0.0881854 -0.0479135 0)
(0.119799 -0.0466168 0)
(0.153474 -0.0465569 0)
(0.18998 -0.047943 0)
(0.229498 -0.0510412 0)
(0.27182 -0.0560895 0)
(0.315853 -0.0610636 0)
(0.358897 -0.0657025 0)
(0.399025 -0.0697071 0)
(0.43648 -0.0727349 0)
(0.471177 -0.075065 0)
(0.502945 -0.0764306 0)
(0.530834 -0.0754616 0)
(0.553644 -0.0720405 0)
(0.57114 -0.0655769 0)
(0.586183 -0.0584174 0)
(0.604603 -0.0532079 0)
(0.630584 -0.0517308 0)
(0.664111 -0.0545833 0)
(0.703604 -0.0592551 0)
(0.744595 -0.0593171 0)
(0.782166 -0.0517878 0)
(0.81721 -0.0425976 0)
(0.854032 -0.0374672 0)
(0.894961 -0.0339485 0)
(0.939003 -0.0326351 0)
(0.983769 -0.0332952 0)
(1.02711 -0.0326349 0)
(1.06843 -0.0279393 0)
(1.10692 -0.0218127 0)
(1.14355 -0.0185173 0)
(1.17988 -0.0195803 0)
(1.21693 -0.0226343 0)
(1.25426 -0.0266827 0)
(1.2906 -0.0300697 0)
(1.32448 -0.0277163 0)
(1.35417 -0.0201516 0)
(1.38112 -0.0116226 0)
(1.40675 -0.00627061 0)
(1.43269 -0.00625127 0)
(1.46129 -0.0118472 0)
(1.49044 -0.0164202 0)
(1.51303 -0.0150117 0)
(1.53257 -0.00968308 0)
(1.55238 -0.000670541 0)
(1.57317 0.00705136 0)
(1.59171 0.00945505 0)
(1.6073 0.00799037 0)
(1.62102 0.00531666 0)
(1.63352 0.00258205 0)
(1.64572 0.0017772 0)
(1.65741 0.00360172 0)
(1.66753 0.00769352 0)
(1.67554 0.0124583 0)
(1.68125 0.0158183 0)
(1.68572 0.0159676 0)
(1.68982 0.013896 0)
(1.69346 0.0124234 0)
(1.6965 0.013769 0)
(1.69832 0.0179539 0)
(1.69756 0.0233358 0)
(1.6935 0.0269143 0)
(1.68752 0.0261285 0)
(1.68152 0.0217511 0)
(1.67304 0.0152778 0)
(1.66204 0.00923166 0)
(1.64808 0.00749764 0)
(1.63526 0.014655 0)
(1.61221 0.0234678 0)
(1.67975 1.09032 0)
(1.63164 0.993936 0)
(1.54367 0.790365 0)
(1.22336 0.594577 0)
(0.817907 0.446771 0)
(0.54187 0.341361 0)
(0.373013 0.240403 0)
(0.246275 0.159475 0)
(0.143456 0.0886473 0)
(0.0670565 0.0331408 0)
(0.0221845 0.0077522 0)
(-0.00196096 0.00263875 0)
(-0.0111807 0.00136807 0)
(-0.0103561 0.00150003 0)
(0.00198392 -0.0056338 0)
(0.0216434 -0.0177794 0)
(0.0428146 -0.0297354 0)
(0.0623947 -0.0327516 0)
(0.0821134 -0.0343712 0)
(0.105581 -0.0382662 0)
(0.136539 -0.0436426 0)
(0.176571 -0.0512085 0)
(0.223321 -0.0604005 0)
(0.271998 -0.0666879 0)
(0.319369 -0.0697409 0)
(0.364971 -0.0759517 0)
(0.41127 -0.0852614 0)
(0.460905 -0.0973265 0)
(0.513982 -0.108928 0)
(0.568357 -0.117454 0)
(0.621035 -0.122427 0)
(0.6711 -0.124924 0)
(0.71943 -0.130186 0)
(0.768642 -0.138139 0)
(0.818468 -0.145498 0)
(0.864228 -0.152217 0)
(0.903145 -0.156643 0)
(0.934735 -0.157885 0)
(0.960846 -0.158758 0)
(0.983216 -0.161272 0)
(1.00419 -0.161145 0)
(1.02292 -0.154979 0)
(1.03678 -0.143217 0)
(1.04554 -0.129752 0)
(1.05445 -0.119111 0)
(1.06853 -0.115375 0)
(1.08957 -0.118808 0)
(1.1169 -0.124926 0)
(1.14661 -0.128173 0)
(1.17058 -0.122914 0)
(1.18903 -0.112519 0)
(1.20815 -0.100944 0)
(1.23119 -0.0908819 0)
(1.25693 -0.0860028 0)
(1.28464 -0.0857341 0)
(1.3131 -0.0855346 0)
(1.33864 -0.0803071 0)
(1.35986 -0.0717055 0)
(1.38053 -0.0630198 0)
(1.40298 -0.0560797 0)
(1.42647 -0.0527716 0)
(1.44999 -0.0532469 0)
(1.47427 -0.0540706 0)
(1.49804 -0.0522656 0)
(1.51862 -0.047213 0)
(1.53663 -0.0396721 0)
(1.5539 -0.0296196 0)
(1.57171 -0.0203418 0)
(1.58954 -0.016308 0)
(1.60605 -0.0165521 0)
(1.62248 -0.0163839 0)
(1.63973 -0.0138467 0)
(1.6567 -0.00891158 0)
(1.67176 -0.00207278 0)
(1.68342 0.0062274 0)
(1.6911 0.0139572 0)
(1.69702 0.018458 0)
(1.7059 0.0181618 0)
(1.71666 0.0156948 0)
(1.72703 0.0137619 0)
(1.73651 0.0149216 0)
(1.74245 0.0199294 0)
(1.74324 0.0261951 0)
(1.74146 0.0294913 0)
(1.74205 0.0284787 0)
(1.74456 0.0257983 0)
(1.7476 0.0243062 0)
(1.74998 0.0257431 0)
(1.74836 0.0325043 0)
(1.74018 0.042203 0)
(1.72531 0.0481351 0)
(1.70837 0.0443569 0)
(1.69763 0.0350009 0)
(1.68844 0.0221285 0)
(1.67902 0.0156056 0)
(1.66219 0.0179375 0)
(1.58924 1.01106 0)
(1.65581 0.965776 0)
(1.7689 0.873258 0)
(1.76529 0.767482 0)
(1.53062 0.634921 0)
(1.2866 0.457442 0)
(1.06342 0.320634 0)
(0.831795 0.249242 0)
(0.622572 0.178746 0)
(0.451963 0.124204 0)
(0.338647 0.0853847 0)
(0.29452 0.0523239 0)
(0.290485 0.0374207 0)
(0.29813 0.0313675 0)
(0.314085 0.0237497 0)
(0.342578 0.010521 0)
(0.380757 -0.00667154 0)
(0.427386 -0.0309702 0)
(0.477151 -0.0481598 0)
(0.524238 -0.0560594 0)
(0.5701 -0.0613516 0)
(0.620897 -0.0710019 0)
(0.680686 -0.0856802 0)
(0.748255 -0.103852 0)
(0.81833 -0.120711 0)
(0.884304 -0.129409 0)
(0.943467 -0.131399 0)
(0.999941 -0.133532 0)
(1.0584 -0.138714 0)
(1.11992 -0.147328 0)
(1.18122 -0.157355 0)
(1.23686 -0.161727 0)
(1.28308 -0.160593 0)
(1.32175 -0.161965 0)
(1.3588 -0.164707 0)
(1.39556 -0.169033 0)
(1.42889 -0.175954 0)
(1.45541 -0.178553 0)
(1.47345 -0.175121 0)
(1.48397 -0.170523 0)
(1.49107 -0.168751 0)
(1.4979 -0.1669 0)
(1.5065 -0.164971 0)
(1.51311 -0.15769 0)
(1.51086 -0.14333 0)
(1.5058 -0.127103 0)
(1.50367 -0.112344 0)
(1.50842 -0.102516 0)
(1.52163 -0.0983207 0)
(1.53695 -0.0940402 0)
(1.54369 -0.0866662 0)
(1.54625 -0.0783206 0)
(1.5514 -0.0680232 0)
(1.56036 -0.0630603 0)
(1.57135 -0.0594228 0)
(1.58446 -0.0532591 0)
(1.59713 -0.0471397 0)
(1.60397 -0.0403928 0)
(1.61021 -0.0342056 0)
(1.61873 -0.0299732 0)
(1.62889 -0.0236629 0)
(1.64048 -0.0162353 0)
(1.65247 -0.0139129 0)
(1.66481 -0.0152802 0)
(1.67734 -0.018633 0)
(1.68903 -0.0206896 0)
(1.70085 -0.0196828 0)
(1.71287 -0.0138759 0)
(1.72365 -0.00416714 0)
(1.73192 0.00526778 0)
(1.73906 0.0116766 0)
(1.74889 0.0128891 0)
(1.76131 0.0110883 0)
(1.77394 0.00977774 0)
(1.78536 0.0107758 0)
(1.79397 0.0159301 0)
(1.79866 0.0257312 0)
(1.79957 0.0357385 0)
(1.80187 0.0392144 0)
(1.80974 0.0366758 0)
(1.8177 0.0316492 0)
(1.82382 0.0273512 0)
(1.82756 0.0268846 0)
(1.82816 0.0322911 0)
(1.82535 0.0412184 0)
(1.82111 0.0476953 0)
(1.81932 0.0479805 0)
(1.82014 0.0441327 0)
(1.81908 0.0381364 0)
(1.81428 0.0340456 0)
(1.80503 0.0347285 0)
(1.7909 0.0420247 0)
(1.77275 0.0510328 0)
(1.75708 0.0537894 0)
(1.74471 0.0474929 0)
(1.72809 0.0298739 0)
(1.52839 0.925015 0)
(1.62237 0.90568 0)
(1.72795 0.87214 0)
(1.86616 0.804763 0)
(1.8248 0.752569 0)
(1.73582 0.684295 0)
(1.63292 0.587591 0)
(1.44232 0.525672 0)
(1.19734 0.456066 0)
(0.998069 0.329383 0)
(0.864954 0.216404 0)
(0.796096 0.121621 0)
(0.797193 0.0447903 0)
(0.817245 -0.00482882 0)
(0.840797 -0.0266112 0)
(0.864225 -0.0400297 0)
(0.895752 -0.0605491 0)
(0.940247 -0.0863668 0)
(0.998854 -0.11647 0)
(1.06255 -0.141296 0)
(1.11991 -0.152828 0)
(1.16839 -0.155258 0)
(1.2145 -0.160334 0)
(1.26575 -0.172317 0)
(1.32538 -0.190342 0)
(1.38783 -0.207735 0)
(1.44338 -0.215165 0)
(1.48887 -0.21558 0)
(1.52895 -0.214958 0)
(1.56993 -0.216408 0)
(1.61439 -0.223009 0)
(1.65908 -0.230302 0)
(1.69664 -0.23084 0)
(1.72126 -0.227247 0)
(1.73654 -0.225213 0)
(1.74994 -0.224355 0)
(1.76485 -0.226232 0)
(1.77841 -0.230019 0)
(1.78756 -0.229067 0)
(1.79148 -0.226546 0)
(1.78937 -0.224576 0)
(1.78574 -0.221959 0)
(1.78553 -0.218503 0)
(1.78871 -0.207958 0)
(1.78566 -0.185741 0)
(1.77516 -0.161475 0)
(1.76275 -0.14024 0)
(1.75431 -0.121906 0)
(1.75434 -0.108397 0)
(1.76295 -0.0959488 0)
(1.76269 -0.0859104 0)
(1.7577 -0.0772323 0)
(1.75222 -0.0640308 0)
(1.75343 -0.052162 0)
(1.75826 -0.0506204 0)
(1.76284 -0.052456 0)
(1.76524 -0.0526048 0)
(1.76784 -0.0526602 0)
(1.7677 -0.0505874 0)
(1.76933 -0.0456939 0)
(1.77379 -0.0404467 0)
(1.7804 -0.0337501 0)
(1.78667 -0.0241765 0)
(1.79131 -0.0159617 0)
(1.79554 -0.0119475 0)
(1.80154 -0.0108483 0)
(1.81078 -0.00972376 0)
(1.82128 -0.00831503 0)
(1.83179 -0.00536286 0)
(1.84048 0.00146059 0)
(1.84482 0.0110462 0)
(1.84629 0.0192001 0)
(1.85182 0.0231726 0)
(1.86175 0.0244075 0)
(1.8725 0.0248221 0)
(1.88229 0.0254097 0)
(1.88993 0.02795 0)