/*--------------------------------*- C++ -*----------------------------------*\
  =========                 |
  \\      /  F ield         | OpenFOAM: The Open Source CFD Toolbox
   \\    /   O peration     | Website:  https://openfoam.org
    \\  /    A nd           | Version:  7
     \\/     M anipulation  |
\*---------------------------------------------------------------------------*/
FoamFile
{
    version     2.0;
    format      ascii;
    class       surfaceScalarField;
    location    "20";
    object      phi;
}
// * * * * * * * * * * * * * * * * * * * * * * * * * * * * * * * * * * * * * //

dimensions      [0 3 -1 0 0 0 0];

internalField   nonuniform List<scalar> 
3886
(
0.00616316
-0.00147222
0.00611917
-0.0015356
0.00607327
-0.0015918
0.00602592
-0.00163996
0.00597761
-0.0016794
0.00592886
-0.00170959
0.00588021
-0.00173022
0.00583221
-0.00174118
0.00578534
-0.00174257
0.00574008
-0.00173469
0.00569682
-0.00171802
0.00565591
-0.0016932
0.00561759
-0.00166099
0.00558205
-0.00162224
0.00554941
-0.00157786
0.00551971
-0.00152877
0.00549292
-0.0014759
0.00546898
-0.00142015
0.00544777
-0.00136235
0.00542914
-0.00130329
0.00541291
-0.00124366
0.00539889
-0.0011841
0.00538689
-0.00112513
0.0053767
-0.00106721
0.00536813
-0.00101072
0.00536097
-0.000955969
0.00535506
-0.000903187
0.00535022
-0.00085255
-0.000804178
0.00685903
0.000319205
0.0068569
0.000277253
0.00685415
0.000234149
0.00685082
0.00018975
0.00684697
0.000143949
0.00684259
9.65764e-05
0.00683773
4.75153e-05
0.00683238
-3.39051e-06
0.00682651
-5.64569e-05
0.00682004
-0.00011175
0.00681287
-0.000169483
0.00680489
-0.000229802
0.00679594
-0.000292821
0.00678586
-0.000358617
0.00677444
-0.000427215
0.00676147
-0.000498576
0.00674671
-0.000572581
0.00672994
-0.000649025
0.00671091
-0.000727598
0.00668939
-0.000807887
0.0066652
-0.000889366
0.00663816
-0.000971398
0.00660815
-0.00105324
0.00657512
-0.00113405
0.00653907
-0.00121291
0.00650008
-0.00128885
0.00645833
-0.00136086
0.00641404
-0.00142793
0.00636754
-0.0014891
0.00631922
-0.00154348
0.00626953
-0.00159027
0.00621897
-0.00162884
0.00616806
-0.00165868
0.00611732
-0.00167948
0.00606728
-0.00169114
0.00601844
-0.00169373
0.00597124
-0.00168749
0.00592609
-0.00167287
0.0058833
-0.00165042
0.00584314
-0.00162084
0.0058058
-0.0015849
0.00577138
-0.00154344
0.00573994
-0.00149733
0.00571146
-0.00144742
0.00568587
-0.00139456
0.00566306
-0.00133954
0.00564289
-0.00128312
0.0056252
-0.00122597
0.00560979
-0.00116869
0.00559646
-0.0011118
0.00558502
-0.00105577
0.00557528
-0.00100098
0.00556703
-0.000947721
0.0055601
-0.000896255
0.00555431
-0.000846764
-0.000799377
0.00711061
0.000318213
0.00711088
0.000276991
0.00711044
0.00023459
0.0071093
0.000190882
0.00710749
0.000145758
0.007105
9.90702e-05
0.00710183
5.06858e-05
0.00709793
5.0979e-07
0.00709327
-5.18011e-05
0.00708776
-0.000106236
0.00708128
-0.000163008
0.00707372
-0.000222239
0.00706492
-0.000284019
0.00705471
-0.000348404
0.00704289
-0.0004154
0.00702927
-0.000484952
0.00701362
-0.000556934
0.00699573
-0.000631136
0.00697539
-0.000707255
0.0069524
-0.000784894
0.00692658
-0.000863553
0.00689782
-0.000942631
0.00686601
-0.00102143
0.00683113
-0.00109917
0.00679322
-0.001175
0.00675238
-0.00124801
0.00670879
-0.00131727
0.00666272
-0.00138186
0.0066145
-0.00144087
0.00656451
-0.00149349
0.00651321
-0.00153897
0.00646108
-0.00157671
0.00640864
-0.00160624
0.0063564
-0.00162725
0.00630489
-0.00163963
0.00625458
-0.00164342
0.00620592
-0.00163883
0.00615929
-0.00162623
0.00611501
-0.00160615
0.00607336
-0.00157918
0.00603451
-0.00154605
0.00599858
-0.00150751
0.00596563
-0.00146438
0.00593565
-0.00141744
0.00590858
-0.00136749
0.00588433
-0.00131529
0.00586276
-0.00126155
0.0058437
-0.00120691
0.00582698
-0.00115197
0.0058124
-0.00109723
0.00579978
-0.00104315
0.00578891
-0.000990107
0.00577961
-0.000938418
0.00577169
-0.000888335
0.00576498
-0.000840054
-0.000793718
0.00735903
0.000315557
0.00736094
0.000275086
0.0073621
0.000233428
0.00736251
0.000190472
0.00736216
0.000146106
0.00736103
0.000100202
0.00735908
5.26339e-05
0.00735629
3.3002e-06
0.00735255
-4.80577e-05
0.00734778
-0.000101468
0.00734187
-0.000157096
0.00733467
-0.000215047
0.00732605
-0.000275393
0.00731582
-0.000338172
0.00730379
-0.000403375
0.00728978
-0.000470936
0.00727356
-0.000540723
0.00725496
-0.000612527
0.00723376
-0.000686057
0.00720979
-0.000760932
0.00718292
-0.000836679
0.00715303
-0.000912736
0.00712005
-0.000988453
0.00708398
-0.0010631
0.00704487
-0.00113589
0.00700286
-0.00120599
0.00695812
-0.00127254
0.00691094
-0.00133467
0.00686164
-0.00139157
0.00681061
-0.00144246
0.0067583
-0.00148666
0.00670518
-0.00152359
0.00665176
-0.00155282
0.00659855
-0.00157404
0.00654603
-0.00158712
0.00649469
-0.00159208
0.00644496
-0.00158909
0.00639721
-0.00157849
0.00635178
-0.00156071
0.00630892
-0.00153632
0.00626882
-0.00150595
0.00623161
-0.0014703
0.00619736
-0.00143012
0.00616605
-0.00138614
0.00613766
-0.0013391
0.00611209
-0.00128972
0.00608921
-0.00123867
0.00606888
-0.00118658
0.00605093
-0.00113401
0.00603516
-0.00108146
0.00602139
-0.00102938
0.00600943
-0.00097815
0.0059991
-0.000928084
0.00599021
-0.000879444
0.00598259
-0.000832433
-0.000787207
0.00760846
0.000311811
0.00761143
0.000272108
0.00761364
0.000231224
0.00761505
0.000189059
0.00761565
0.000145507
0.0076154
0.000100455
0.00761425
5.37854e-05
0.00761215
5.39528e-06
0.007609
-4.49037e-05
0.0076047
-9.71704e-05
0.00759914
-0.000151532
0.00759216
-0.000208075
0.00758363
-0.000266857
0.00757335
-0.0003279
0.00756116
-0.000391184
0.00754686
-0.000456635
0.00753026
-0.000524119
0.00751116
-0.000593432
0.0074894
-0.000664292
0.00746481
-0.00073634
0.00743726
-0.000809131
0.00740666
-0.000882139
0.00737297
-0.000954762
0.0073362
-0.00102633
0.0072964
-0.0010961
0.00725373
-0.00116332
0.00720837
-0.00122718
0.00716059
-0.0012869
0.00711072
-0.00134171
0.00705916
-0.00139089
0.00700632
-0.00143382
0.00695267
-0.00146995
0.0068987
-0.00149885
0.00684491
-0.00152024
0.00679178
-0.00153398
0.00673976
-0.00154006
0.00668928
-0.00153862
0.00664072
-0.00152993
0.0065944
-0.00151439
0.00655058
-0.0014925
0.00650945
-0.00146482
0.00647115
-0.00143201
0.00643575
-0.00139472
0.00640327
-0.00135366
0.00637367
-0.0013095
0.00634689
-0.00126293
0.00632279
-0.00121458
0.00630126
-0.00116504
0.00628212
-0.00111487
0.0062652
-0.00106454
0.00625032
-0.0010145
0.00623729
-0.000965125
0.00622594
-0.000916732
0.00621608
-0.000869586
0.00620755
-0.0008239
-0.000779839
0.00786156
0.000307316
0.00786526
0.000268415
0.00786814
0.000228345
0.00787018
0.000187015
0.00787136
0.000144328
0.00787163
0.000100185
0.00787094
5.4479e-05
0.00786922
7.11176e-06
0.00786637
-4.20539e-05
0.00786229
-9.30934e-05
0.00785686
-0.000146102
0.00784994
-0.000201151
0.00784136
-0.000258283
0.00783097
-0.000317509
0.00781859
-0.000378798
0.00780402
-0.000442072
0.0077871
-0.000507194
0.00776763
-0.000573968
0.00774547
-0.000642125
0.00772045
-0.000711325
0.00769248
-0.000781153
0.00766146
-0.000851121
0.00762737
-0.00092067
0.00759022
-0.000989179
0.00755009
-0.00105597
0.00750712
-0.00112035
0.00746151
-0.00118157
0.00741351
-0.0012389
0.00736346
-0.00129165
0.00731171
-0.00133915
0.0072587
-0.00138081
0.00720487
-0.00141612
0.00715069
-0.00144467
0.00709664
-0.00146619
0.00704317
-0.00148052
0.00699075
-0.00148764
0.00693979
-0.00148765
0.00689065
-0.00148079
0.00684365
-0.00146739
0.00679906
-0.0014479
0.00675707
-0.00142284
0.00671783
-0.00139277
0.00668143
-0.00135831
0.00664789
-0.00132011
0.00661718
-0.0012788
0.00658926
-0.00123501
0.00656402
-0.00118934
0.00654133
-0.00114235
0.00652104
-0.00109458
0.006503
-0.0010465
0.00648702
-0.000998526
0.00647294
-0.000951041
0.00646057
-0.000904362
0.00644974
-0.000858757
0.00644028
-0.000814446
-0.000771601
0.00811992
0.000302247
0.00812414
0.000264198
0.00812749
0.000224992
0.00812995
0.00018455
0.0081315
0.000142786
0.00813207
9.961e-05
0.00813162
5.49299e-05
0.00813008
8.65702e-06
0.00812734
-3.93144e-05
0.0081233
-8.90582e-05
0.00811785
-0.000140649
0.00811084
-0.000194141
0.00810212
-0.000249566
0.00809154
-0.000306923
0.00807891
-0.000366173
0.00806407
-0.000427233
0.00804685
-0.00048997
0.00802707
-0.000554191
0.00800459
-0.000619644
0.00797927
-0.000686008
0.00795102
-0.000752898
0.00791976
-0.00081986
0.00788546
-0.000886377
0.00784816
-0.000951879
0.00780794
-0.00101575
0.00776492
-0.00107733
0.00771931
-0.00113595
0.00767135
-0.00119095
0.00762137
-0.00124167
0.00756971
-0.0012875
0.00751678
-0.00132788
0.00746302
-0.00136235
0.00740886
-0.00139051
0.00735476
-0.0014121
0.00730119
-0.00142695
0.00724857
-0.00143502
0.00719731
-0.00143639
0.00714776
-0.00143124
0.00710026
-0.00141989
0.00705504
-0.00140269
0.00701234
-0.00138013
0.00697228
-0.00135272
0.00693498
-0.00132101
0.00690046
-0.0012856
0.00686873
-0.00124707
0.00683974
-0.00120601
0.00681339
-0.00116299
0.00678959
-0.00111855
0.00676818
-0.00107318
0.00674903
-0.00102735
0.00673197
-0.000981463
0.00671683
-0.000935898
0.00670343
-0.000890969
0.00669162
-0.000846946
0.00668123
-0.000804054
-0.000762472
0.00838447
0.000296677
0.00838913
0.000259538
0.00839286
0.000221257
0.00839565
0.000181764
0.00839745
0.000140984
0.00839822
9.88399e-05
0.0083979
5.525e-05
0.00839642
1.01377e-05
0.00839368
-3.6579e-05
0.00838959
-8.49671e-05
0.00838403
-0.000135084
0.00837686
-0.00018697
0.00836793
-0.000240644
0.00835711
-0.000296096
0.00834421
-0.000353281
0.00832909
-0.000412112
0.00831158
-0.000472459
0.00829153
-0.000534137
0.00826879
-0.000596906
0.00824325
-0.000660466
0.00821481
-0.00072446
0.00818342
-0.000788467
0.00814905
-0.000852012
0.00811174
-0.000914571
0.00807157
-0.000975574
0.00802867
-0.00103443
0.00798323
-0.00109051
0.00793549
-0.00114321
0.00788575
-0.00119193
0.00783435
-0.0012361
0.00778168
-0.00127521
0.00772814
-0.00130881
0.00767417
-0.00133654
0.00762021
-0.00135813
0.00756668
-0.00137342
0.00751402
-0.00138235
0.0074626
-0.00138497
0.00741278
-0.00138143
0.00736489
-0.00137199
0.00731917
-0.00135698
0.00727585
-0.00133681
0.00723507
-0.00131194
0.00719695
-0.00128289
0.00716153
-0.00125018
0.00712883
-0.00121437
0.00709881
-0.00117599
0.00707141
-0.00113558
0.00704651
-0.00109365
0.00702401
-0.00105068
0.00700376
-0.0010071
0.00698561
-0.000963313
0.0069694
-0.000919689
0.00695497
-0.000876538
0.00694216
-0.000834133
0.0069308
-0.0007927
-0.000752425
0.00865592
0.000290637
0.00866099
0.00025447
0.00866507
0.000217177
0.00866814
0.000178698
0.00867015
0.000138967
0.00867108
9.79185e-05
0.00867084
5.54835e-05
0.00866938
1.15965e-05
0.00866661
-3.38067e-05
0.00866243
-8.07825e-05
0.00865672
-0.000129374
0.00864936
-0.00017961
0.00864021
-0.000231498
0.00862913
-0.000285019
0.00861598
-0.000340123
0.00860058
-0.000396721
0.00858281
-0.000454685
0.00856251
-0.000513839
0.00853956
-0.000573956
0.00851385
-0.000634757
0.0084853
-0.000695908
0.00845386
-0.000757022
0.00841951
-0.000817663
0.00838229
-0.000877349
0.00834227
-0.000935559
0.00829959
-0.000991747
0.00825443
-0.00104535
0.00820702
-0.0010958
0.00815765
-0.00114255
0.00810663
-0.00118508
0.00805433
-0.00122291
0.00800114
-0.00125562
0.00794748
-0.00128287
0.00789375
-0.00130441
0.00784038
-0.00132005
0.00778777
-0.00132974
0.0077363
-0.0013335
0.00768632
-0.00133145
0.00763813
-0.0013238
0.007592
-0.00131085
0.00754814
-0.00129295
0.00750671
-0.00127052
0.00746784
-0.00124401
0.00743158
-0.00121392
0.00739796
-0.00118075
0.00736695
-0.00114499
0.00733851
-0.00110714
0.00731255
-0.00106769
0.00728896
-0.00102709
0.00726761
-0.00098575
0.00724837
-0.000944072
0.00723108
-0.000902403
0.0072156
-0.000861054
0.00720176
-0.000820296
0.00718942
-0.000780358
-0.00074143
0.00893498
0.000284152
0.00894043
0.000249016
0.00894484
0.000212772
0.00894817
0.000175369
0.00895038
0.00013675
0.00895144
9.6861e-05
0.00895128
5.56433e-05
0.00894983
1.30425e-05
0.00894702
-3.09902e-05
0.00894274
-7.6501e-05
0.00893688
-0.000123521
0.00892934
-0.000172067
0.00891998
-0.000222138
0.00890867
-0.000273707
0.00889527
-0.00032672
0.00887963
-0.000381087
0.00886163
-0.000436683
0.00884113
-0.000493339
0.00881801
-0.000550843
0.00879219
-0.000608932
0.00876358
-0.0006673
0.00873215
-0.000725588
0.00869788
-0.000783396
0.00866081
-0.000840283
0.00862103
-0.000895772
0.00857865
-0.000949365
0.00853384
-0.00100055
0.00848684
-0.0010488
0.0084379
-0.00109362
0.00838734
-0.00113452
0.00833549
-0.00117106
0.00828273
-0.00120286
0.00822945
-0.00122959
0.00817605
-0.001251
0.00812291
-0.00126692
0.00807044
-0.00127727
0.008019
-0.00128205
0.00796892
-0.00128137
0.00792051
-0.00127539
0.00787403
-0.00126437
0.0078297
-0.00124861
0.00778768
-0.0012285
0.00774811
-0.00120444
0.00771105
-0.00117686
0.00767654
-0.00114624
0.00764458
-0.00111303
0.00761513
-0.00107769
0.00758811
-0.00104067
0.00756344
-0.00100241
0.00754099
-0.000963307
0.00752065
-0.000923731
0.00750227
-0.000884025
0.00748572
-0.000844496
0.00747083
-0.000805411
0.00745747
-0.000767
-0.000729455
0.00922234
0.000277251
0.00922816
0.0002432
0.00923287
0.000208062
0.00923645
0.000171793
0.00923885
0.000134346
0.00924004
9.56746e-05
0.00923995
5.57325e-05
0.00923852
1.44743e-05
0.00923566
-2.81352e-05
0.00923129
-7.21328e-05
0.00922531
-0.000117539
0.0092176
-0.00016436
0.00920805
-0.000212588
0.00919653
-0.000262188
0.00918292
-0.000313104
0.00916708
-0.000365246
0.00914889
-0.000418491
0.00912823
-0.000472679
0.00910499
-0.00052761
0.0090791
-0.000583041
0.00905049
-0.000638685
0.00901911
-0.000694215
0.00898498
-0.000749263
0.00894813
-0.000803426
0.00890862
-0.000856268
0.00886659
-0.000907334
0.0088222
-0.000956153
0.00877565
-0.00100225
0.00872721
-0.00104517
0.00867715
-0.00108446
0.00862581
-0.00111972
0.00857353
-0.00115059
0.00852069
-0.00117675
0.00846766
-0.00119797
0.00841482
-0.00121408
0.00836254
-0.00122499
0.00831118
-0.00123069
0.00826106
-0.00123125
0.00821249
-0.00122682
0.00816572
-0.00121759
0.00812096
-0.00120386
0.0080784
-0.00118594
0.00803817
-0.0011642
0.00800035
-0.00113904
0.00796499
-0.00111088
0.0079321
-0.00108013
0.00790165
-0.00104724
0.00787359
-0.00101262
0.00784784
-0.000976662
0.0078243
-0.000939764
0.00780285
-0.000902281
0.00778336
-0.000864542
0.00776571
-0.000826844
0.00774975
-0.000789452
0.00773535
-0.000752595
-0.000716468
0.00951867
0.000269961
0.00952483
0.000237046
0.00952982
0.000203066
0.00953363
0.000167985
0.00953621
0.000131763
0.00953752
9.43648e-05
0.0095375
5.57514e-05
0.00953609
1.58877e-05
0.00953321
-2.5251e-05
0.00952877
-6.76918e-05
0.00952267
-0.000111446
0.00951483
-0.000156513
0.00950511
-0.000202874
0.00949342
-0.000250494
0.00947963
-0.00029931
0.00946361
-0.000349236
0.00944527
-0.00040015
0.0094245
-0.000451902
0.00940119
-0.000504303
0.00937527
-0.000557126
0.0093467
-0.000610109
0.00931543
-0.000662948
0.00928148
-0.000715308
0.00924487
-0.000766819
0.00920569
-0.000817086
0.00916404
-0.000865691
0.0091201
-0.000912207
0.00907405
-0.000956203
0.00902613
-0.000997253
0.00897662
-0.00103495
0.00892582
-0.00106892
0.00887406
-0.00109883
0.00882169
-0.00112438
0.00876907
-0.00114535
0.00871657
-0.00116157
0.00866452
-0.00117295
0.00861329
-0.00117946
0.00856318
-0.00118114
0.00851448
-0.00117812
0.00846746
-0.00117057
0.00842233
-0.00115873
0.00837927
-0.00114288
0.00833841
-0.00112335
0.00829986
-0.00110049
0.00826368
-0.00107469
0.00822988
-0.00104633
0.00819845
-0.00101581
0.00816936
-0.000983522
0.00814254
-0.000949837
0.00811789
-0.00091512
0.00809532
-0.000879715
0.00807472
-0.000843938
0.00805595
-0.000808078
0.0080389
-0.000772395
0.00802342
-0.000737117
-0.000702437
0.00982449
0.000262303
0.00983096
0.000230571
0.00983623
0.000197797
0.00984026
0.000163953
0.00984302
0.000129008
0.00984445
9.29324e-05
0.00984451
5.56967e-05
0.00984312
1.72741e-05
0.00984022
-2.23504e-05
0.00983572
-6.31954e-05
0.00982954
-0.000105265
0.00982158
-0.00014855
0.00981173
-0.000193028
0.00979989
-0.000238657
0.00978596
-0.000285375
0.00976982
-0.000333094
0.00975137
-0.0003817
0.00973051
-0.000431047
0.00970717
-0.00048096
0.00968127
-0.000531229
0.00965277
-0.000581609
0.00962165
-0.000631824
0.00958791
-0.000681565
0.00955158
-0.000730496
0.00951275
-0.000778256
0.00947153
-0.000824466
0.00942806
-0.000868736
0.00938253
-0.000910672
0.00933516
-0.000949886
0.00928621
-0.000986007
0.00923598
-0.00101869
0.00918476
-0.00104761
0.00913289
-0.00107251
0.00908071
-0.00109317
0.00902857
-0.00110943
0.0089768
-0.00112118
0.00892572
-0.00112838
0.00887565
-0.00113108
0.00882688
-0.00112934
0.00877964
-0.00112334
0.00873417
-0.00111326
0.00869064
-0.00109935
0.0086492
-0.00108191
0.00860995
-0.00106125
0.00857297
-0.00103771
0.00853828
-0.00101165
0.00850589
-0.000983427
0.00847577
-0.000953407
0.00844788
-0.000921941
0.00842213
-0.000889372
0.00839844
-0.000856023
0.0083767
-0.000822199
0.0083568
-0.00078818
0.00833862
-0.000754217
0.00832204
-0.000720536
-0.000687329
0.0101402
0.000254287
0.010147
0.000223781
0.0101525
0.000192259
0.0101568
0.000159699
0.0101597
0.000126077
0.0101613
9.13701e-05
0.0101614
5.55574e-05
0.01016
1.86187e-05
0.0101571
-1.94519e-05
0.0101526
-5.8666e-05
0.0101464
-9.90206e-05
0.0101383
-0.000140501
0.0101284
-0.00018308
0.0101164
-0.000226712
0.0101024
-0.000271334
0.0100862
-0.00031686
0.0100676
-0.000363179
0.0100467
-0.000410155
0.0100234
-0.000457623
0.00999757
-0.000505387
0.00996918
-0.000553223
0.00993823
-0.000600876
0.00990473
-0.000648066
0.00986872
-0.000694485
0.00983027
-0.000739805
0.00978949
-0.000783681
0.00974651
-0.000825758
0.00970151
-0.000865677
0.00965471
-0.000903086
0.00960635
-0.000937643
0.00955669
-0.000969029
0.00950604
-0.000996954
0.00945469
-0.00102117
0.00940297
-0.00104146
0.00935121
-0.00105767
0.00929973
-0.0010697
0.00924884
-0.0010775
0.00919885
-0.00108108
0.00915002
-0.00108052
0.00910261
-0.00107592
0.00905682
-0.00106747
0.00901286
-0.00105539
0.00897086
-0.00103991
0.00893095
-0.00102133
0.00889319
-0.00099995
0.00885764
-0.000976094
0.0088243
-0.000950093
0.00879317
-0.000922279
0.00876421
-0.000892981
0.00873736
-0.000862519
0.00871254
-0.000831201
0.00868966
-0.000799316
0.00866861
-0.000767133
0.00864929
-0.000734897
0.00863158
-0.000702827
-0.000671115
0.010466
0.000245914
0.0104731
0.000216674
0.010479
0.000186447
0.0104834
0.000155214
0.0104866
0.000122958
0.0104883
8.9663e-05
0.0104885
5.53148e-05
0.0104872
1.98997e-05
0.0104844
-1.65811e-05
0.0104798
-5.41323e-05
0.0104736
-9.27457e-05
0.0104655
-0.000132402
0.0104554
-0.000173068
0.0104434
-0.000214699
0.0104293
-0.000257229
0.010413
-0.000300574
0.0103945
-0.00034463
0.0103736
-0.000389267
0.0103503
-0.00043433
0.0103246
-0.000479638
0.0102963
-0.000524985
0.0102656
-0.000570139
0.0102324
-0.000614841
0.0101967
-0.000658813
0.0101586
-0.000701755
0.0101183
-0.000743355
0.0100758
-0.00078329
0.0100314
-0.000821235
0.00998518
-0.000856867
0.00993741
-0.000889874
0.00988834
-0.000919963
0.00983826
-0.000946867
0.00978744
-0.00097035
0.0097362
-0.000990215
0.00968484
-0.00100631
0.00963368
-0.00101853
0.009583
-0.00102682
0.00953311
-0.00103118
0.00948425
-0.00103166
0.00943669
-0.00102836
0.00939063
-0.00102142
0.00934627
-0.00101102
0.00930375
-0.000997387
0.00926319
-0.000980771
0.00922468
-0.000961445
0.00918829
-0.000939698
0.00915403
-0.000915832
0.0091219
-0.000890153
0.00909188
-0.000862964
0.00906393
-0.000834565
0.00903797
-0.000805245
0.00901394
-0.000775279
0.00899173
-0.000744923
0.00897124
-0.000714415
0.00895238
-0.000683967
-0.000653769
0.0108024
0.000237184
0.0108098
0.000209248
0.0108159
0.000180352
0.0108206
0.000150485
0.0108239
0.000119635
0.0108258
8.77914e-05
0.0108262
5.49455e-05
0.010825
2.10901e-05
0.0108222
-1.37688e-05
0.0108177
-4.96281e-05
0.0108114
-8.64767e-05
0.0108033
-0.00012429
0.0107933
-0.000163034
0.0107812
-0.00020266
0.0107671
-0.000243103
0.0107508
-0.000284282
0.0107323
-0.000326097
0.0107114
-0.000368425
0.0106882
-0.000411123
0.0106626
-0.000454023
0.0106346
-0.000496935
0.0106041
-0.000539645
0.0105711
-0.00058192
0.0105358
-0.000623505
0.0104982
-0.000664129
0.0104584
-0.000703508
0.0104164
-0.00074135
0.0103725
-0.000777358
0.0103269
-0.000811238
0.0102797
-0.000842708
0.0102313
-0.000871498
0.0101818
-0.000897361
0.0101315
-0.000920078
0.0100808
-0.000939464
0.0100298
-0.000955372
0.00997898
-0.000967698
0.00992854
-0.000976382
0.00987877
-0.000981411
0.00982992
-0.000982817
0.00978224
-0.000980678
0.00973593
-0.000975114
0.0096912
-0.00096628
0.00964818
-0.000954369
0.00960701
-0.000939601
0.00956778
-0.000922219
0.00953057
-0.000902482
0.0094954
-0.000880664
0.00946229
-0.000857044
0.00943123
-0.000831902
0.00940218
-0.000805516
0.00937509
-0.000778156
0.00934989
-0.000750083
0.00932651
-0.00072154
0.00930485
-0.000692756
0.00928482
-0.000663937
-0.000635266
0.0111495
0.000228101
0.0111572
0.000201498
0.0111636
0.000173968
0.0111686
0.000145502
0.0111721
0.000116093
0.0111742
8.57349e-05
0.0111747
5.44251e-05
0.0111736
2.2161e-05
0.0111709
-1.10472e-05
0.0111665
-4.51894e-05
0.0111603
-8.02526e-05
0.0111522
-0.000116209
0.0111422
-0.000153022
0.0111301
-0.000190641
0.011116
-0.000229003
0.0110998
-0.000268031
0.0110813
-0.000307627
0.0110606
-0.000347677
0.0110375
-0.000388047
0.0110121
-0.000428582
0.0109842
-0.000469108
0.010954
-0.00050943
0.0109214
-0.000549335
0.0108865
-0.00058859
0.0108493
-0.000626951
0.01081
-0.00066416
0.0107686
-0.000699952
0.0107253
-0.000734058
0.0106803
-0.000766213
0.0106337
-0.000796156
0.0105859
-0.000823643
0.0105369
-0.000848445
0.0104872
-0.000870361
0.010437
-0.000889215
0.0103865
-0.000904867
0.010336
-0.000917215
0.0102858
-0.000926195
0.0102362
-0.000931784
0.0101874
-0.000934001
0.0101396
-0.000932905
0.0100931
-0.000928594
0.010048
-0.0009212
0.0100045
-0.000910888
0.00996275
-0.00089785
0.00992283
-0.0008823
0.00988482
-0.000864472
0.00984877
-0.000844611
0.00981469
-0.00082297
0.0097826
-0.000799806
0.00975246
-0.000775378
0.00972424
-0.000749936
0.00969788
-0.000723725
0.00967332
-0.000696976
0.00965047
-0.000669908
0.00962925
-0.000642717
-0.000615585
0.0115078
0.00021867
0.0115159
0.000193428
0.0115225
0.00016729
0.0115278
0.000140254
0.0115316
0.000112317
0.0115338
8.34751e-05
0.0115345
5.37305e-05
0.0115336
2.3085e-05
0.011531
-8.44813e-06
0.0115266
-4.08511e-05
0.0115205
-7.41118e-05
0.0115125
-0.000108199
0.0115026
-0.000143074
0.0114906
-0.000178687
0.0114766
-0.000214977
0.0114604
-0.000251867
0.011442
-0.000289266
0.0114214
-0.000327067
0.0113985
-0.000365145
0.0113733
-0.000403358
0.0113457
-0.000441545
0.0113158
-0.000479529
0.0112836
-0.000517115
0.0112491
-0.000554094
0.0112124
-0.000590243
0.0111736
-0.000625329
0.0111328
-0.000659112
0.01109
-0.000691349
0.0110456
-0.000721799
0.0109997
-0.000750226
0.0109525
-0.000776404
0.0109041
-0.000800127
0.010855
-0.000821205
0.0108052
-0.000839477
0.0107552
-0.000854808
0.0107051
-0.000867097
0.0106552
-0.000876279
0.0106057
-0.000882324
0.0105569
-0.000885238
0.0105091
-0.000885066
0.0104624
-0.000881885
0.010417
-0.000875807
0.0103731
-0.000866971
0.0103308
-0.000855545
0.0102902
-0.000841717
0.0102514
-0.000825693
0.0102145
-0.000807694
0.0101795
-0.000787949
0.0101464
-0.000766693
0.0101151
-0.000744162
0.0100858
-0.00072059
0.0100583
-0.000696206
0.0100325
-0.000671227
0.0100085
-0.00064586
0.00998606
-0.000620296
-0.000594706
0.0118778
0.0002089
0.0118861
0.00018504
0.0118931
0.000160319
0.0118986
0.000134738
0.0119027
0.000108297
0.0119051
8.09964e-05
0.011906
5.28415e-05
0.0119053
2.38375e-05
0.0119028
-6.00087e-06
0.0118986
-3.66464e-05
0.0118926
-6.80907e-05
0.0118847
-0.0001003
0.0118749
-0.000133233
0.011863
-0.000166843
0.0118491
-0.000201068
0.0118331
-0.000235835
0.0118149
-0.000271059
0.0117944
-0.000306639
0.0117718
-0.000342459
0.0117468
-0.000378389
0.0117195
-0.000414282
0.01169
-0.000449975
0.0116581
-0.000485292
0.0116241
-0.000520043
0.0115879
-0.000554027
0.0115496
-0.000587033
0.0115093
-0.000618845
0.0114672
-0.000649242
0.0114234
-0.000678006
0.0113781
-0.000704923
0.0113315
-0.000729789
0.0112838
-0.000752412
0.0112352
-0.000772618
0.011186
-0.000790258
0.0111364
-0.000805203
0.0110866
-0.000817356
0.011037
-0.00082665
0.0109877
-0.000833049
0.010939
-0.00083655
0.0108912
-0.000837185
0.0108443
-0.000835013
0.0107986
-0.000830128
0.0107543
-0.000822647
0.0107114
-0.000812715
0.0106702
-0.000800495
0.0106307
-0.000786171
0.0105929
-0.000769937
0.010557
-0.000752002
0.0105229
-0.000732577
0.0104906
-0.00071188
0.0104601
-0.000690127
0.0104315
-0.000667528
0.0104045
-0.00064429
0.0103793
-0.000620606
0.0103556
-0.000596659
-0.000572613
0.0122599
0.000198806
0.0122686
0.000176343
0.0122759
0.000153057
0.0122817
0.00012895
0.012286
0.000104025
0.0122887
7.82861e-05
0.0122898
5.17407e-05
0.0122892
2.43968e-05
0.0122869
-3.73225e-06
0.0122829
-3.26048e-05
0.012277
-6.22224e-05
0.0122693
-9.25469e-05
0.0122596
-0.000123538
0.0122479
-0.000155148
0.0122341
-0.000187317
0.0122183
-0.000219978
0.0122003
-0.000253048
0.0121801
-0.000286434
0.0121576
-0.000320029
0.012133
-0.000353713
0.012106
-0.000387352
0.0120768
-0.000420798
0.0120454
-0.000453891
0.0120119
-0.00048646
0.0119762
-0.000518322
0.0119384
-0.000549287
0.0118987
-0.00057916
0.0118572
-0.000607743
0.0118141
-0.000634838
0.0117694
-0.000660252
0.0117234
-0.000683797
0.0116763
-0.000705301
0.0116283
-0.000724602
0.0115796
-0.000741561
0.0115304
-0.000756058
0.0114811
-0.000767999
0.0114317
-0.000777317
0.0113827
-0.000783972
0.0113341
-0.000787954
0.0112862
-0.000789281
0.0112392
-0.000788001
0.0111932
-0.000784188
0.0111485
-0.000777942
0.0111052
-0.000769386
0.0110633
-0.000758662
0.0110231
-0.000745929
0.0109845
-0.000731363
0.0109477
-0.000715148
0.0109126
-0.000697477
0.0108792
-0.000678546
0.0108477
-0.000658553
0.0108178
-0.000637696
0.0107897
-0.000616164
0.0107632
-0.000594141
0.0107384
-0.000571798
-0.000549293
0.0126549
0.000188401
0.0126639
0.000167346
0.0126715
0.000145507
0.0126775
0.000122889
0.012682
9.94957e-05
0.012685
7.53345e-05
0.0126863
5.04139e-05
0.012686
2.47442e-05
0.0126839
-1.66712e-06
0.0126801
-2.87526e-05
0.0126744
-5.65366e-05
0.0126668
-8.49737e-05
0.0126573
-0.000114024
0.0126458
-0.000143639
0.0126322
-0.000173764
0.0126166
-0.000204333
0.0125988
-0.00023527
0.0125789
-0.000266488
0.0125567
-0.000297889
0.0125324
-0.000329362
0.0125058
-0.000360786
0.012477
-0.000392025
0.0124461
-0.000422935
0.012413
-0.000453362
0.0123778
-0.000483141
0.0123406
-0.000512101
0.0123015
-0.000540066
0.0122606
-0.000566857
0.0122181
-0.000592297
0.012174
-0.00061621
0.0121287
-0.000638428
0.0120822
-0.000658791
0.0120347
-0.000677153
0.0119865
-0.000693385
0.0119379
-0.000707373
0.0118889
-0.00071903
0.0118399
-0.000728287
0.011791
-0.000735103
0.0117425
-0.00073946
0.0116946
-0.00074137
0.0116474
-0.000740866
0.0116013
-0.000738007
0.0115562
-0.000732878
0.0115124
-0.00072558
0.01147
-0.000716239
0.011429
-0.000704992
0.0113897
-0.000691993
0.0113519
-0.000677407
0.0113158
-0.000661407
0.0112815
-0.000644171
0.0112488
-0.00062588
0.0112178
-0.000606714
0.0111885
-0.000586851
0.0111608
-0.000566462
0.0111347
-0.000545706
-0.000524734
0.0130633
0.0001777
0.0130726
0.00015806
0.0130805
0.000137677
0.0130868
0.000116557
0.0130916
9.47061e-05
0.0130948
7.21337e-05
0.0130963
4.88498e-05
0.0130962
2.48667e-05
0.0130944
1.6729e-07
0.0130907
-2.51094e-05
0.0130853
-5.10591e-05
0.0130779
-7.76089e-05
0.0130686
-0.000104721
0.0130573
-0.000132349
0.013044
-0.00016044
0.0130286
-0.000188934
0.0130111
-0.000217758
0.0129914
-0.000246833
0.0129696
-0.000276069
0.0129456
-0.000305363
0.0129194
-0.000334606
0.0128911
-0.000363676
0.0128606
-0.000392441
0.012828
-0.000420763
0.0127933
-0.000448494
0.0127567
-0.000475479
0.0127182
-0.000501562
0.0126779
-0.000526582
0.012636
-0.000550378
0.0125926
-0.000572792
0.0125478
-0.000593672
0.0125019
-0.000612874
0.012455
-0.000630264
0.0124074
-0.000645721
0.0123591
-0.000659143
0.0123106
-0.000670444
0.0122618
-0.000679558
0.0122132
-0.000686443
0.0121648
-0.000691076
0.0121169
-0.00069346
0.0120696
-0.000693619
0.0120232
-0.000691599
0.0119778
-0.00068747
0.0119335
-0.000681317
0.0118905
-0.000673245
0.0118489
-0.000663377
0.0118088
-0.000651845
0.0117702
-0.000638795
0.0117331
-0.000624383
0.0116977
-0.000608768
0.011664
-0.000592115
0.0116319
-0.000574589
0.0116014
-0.000556353
0.0115725
-0.000537565
0.0115451
-0.000518376
-0.000498925
0.0134859
0.000166718
0.0134955
0.000148494
0.0135036
0.000129571
0.0135102
0.000109955
0.0135153
8.96536e-05
0.0135187
6.86766e-05
0.0135205
4.70357e-05
0.0135207
2.47429e-05
0.013519
1.78071e-06
0.0135156
-2.17049e-05
0.0135104
-4.58157e-05
0.0135033
-7.04782e-05
0.0134942
-9.56555e-05
0.0134832
-0.000121304
0.0134701
-0.000147375
0.013455
-0.000173808
0.0134377
-0.00020054
0.0134184
-0.000227495
0.0133969
-0.000254592
0.0133733
-0.000281738
0.0133475
-0.000308832
0.0133196
-0.000335765
0.0132896
-0.000362419
0.0132575
-0.000388669
0.0132234
-0.000414382
0.0131873
-0.000439421
0.0131494
-0.000463644
0.0131097
-0.000486908
0.0130684
-0.000509068
0.0130256
-0.000529983
0.0129815
-0.000549515
0.0129361
-0.000567534
0.0128898
-0.000583918
0.0128426
-0.000598557
0.0127948
-0.000611354
0.0127466
-0.000622231
0.0126982
-0.000631123
0.0126497
-0.000637987
0.0126014
-0.000642798
0.0125535
-0.000645553
0.0125062
-0.000646265
0.0124596
-0.000644973
0.0124138
-0.000641729
0.0123691
-0.000636607
0.0123256
-0.000629695
0.0122833
-0.000621098
0.0122424
-0.000610933
0.0122029
-0.000599327
0.0121649
-0.000586417
0.0121285
-0.000572348
0.0120937
-0.000557267
0.0120604
-0.000541325
0.0120287
-0.000524671
0.0119986
-0.00050745
0.01197
-0.000489803
-0.000471859
0.0139235
0.000155467
0.0139333
0.000138659
0.0139417
0.000121197
0.0139485
0.000103087
0.0139539
8.43375e-05
0.0139576
6.49592e-05
0.0139597
4.49641e-05
0.01396
2.43639e-05
0.0139587
3.1526e-06
0.0139555
-1.85517e-05
0.0139505
-4.08233e-05
0.0139436
-6.36019e-05
0.0139348
-8.68506e-05
0.0139241
-0.000110529
0.0139113
-0.000134589
0.0138964
-0.000158979
0.0138795
-0.000183636
0.0138605
-0.000208493
0.0138394
-0.000233476
0.0138162
-0.0002585
0.0137908
-0.000283474
0.0137634
-0.000308301
0.0137338
-0.000332873
0.0137022
-0.00035708