/*--------------------------------*- C++ -*----------------------------------*\
  =========                 |
  \\      /  F ield         | OpenFOAM: The Open Source CFD Toolbox
   \\    /   O peration     | Website:  https://openfoam.org
    \\  /    A nd           | Version:  7
     \\/     M anipulation  |
\*---------------------------------------------------------------------------*/
FoamFile
{
    version     2.0;
    format      ascii;
    class       volScalarField;
    location    "180";
    object      p;
}
// * * * * * * * * * * * * * * * * * * * * * * * * * * * * * * * * * * * * * //

dimensions      [0 2 -2 0 0 0 0];

internalField   nonuniform List<scalar> 
1989
(
-0.0586158
-0.0692022
-0.0738604
-0.0730768
-0.0682062
-0.0607763
-0.0520329
-0.0428609
-0.0338205
-0.0252305
-0.0172533
-0.00995715
-0.00335506
0.00257529
0.00787033
0.0125626
0.0166834
0.0202715
0.0233494
0.0258792
0.0277691
0.0289558
0.0294895
0.0294953
0.029072
0.0282625
0.0269539
0.0250044
0.022275
-0.0649332
-0.0499313
-0.035236
-0.0209948
-0.00733783
0.00562104
0.0177824
0.0290585
0.0393717
0.0486528
0.0568254
0.0638283
0.0695611
0.0738803
0.0766389
0.0777148
0.0770219
0.0745037
0.0701003
0.0637083
0.0551751
0.0443603
0.0312349
0.0159862
-0.000857594
-0.0182714
-0.0346802
-0.0482262
-0.0573536
-0.0614795
-0.061048
-0.0571572
-0.0510204
-0.0436391
-0.0357428
-0.0278174
-0.0201614
-0.0129447
-0.00625481
-0.000127536
0.00543688
0.0104561
0.014948
0.0189297
0.0224263
0.0254549
0.0279838
0.0299256
0.0311991
0.0318104
0.0318507
0.0314314
0.0305957
0.0292703
0.0273353
0.0246631
-0.0612249
-0.0471738
-0.0333661
-0.0199402
-0.00702024
0.00528325
0.0168722
0.027659
0.0375655
0.0465207
0.0544484
0.0612774
0.0669112
0.0712267
0.0740929
0.0753897
0.0750192
0.0729043
0.0689675
0.0631038
0.0551864
0.0451278
0.0329728
0.0189885
0.00376111
-0.0117138
-0.0260645
-0.0378045
-0.0457736
-0.0495792
-0.0496003
-0.0466834
-0.0417652
-0.0356444
-0.0289263
-0.0220367
-0.0152569
-0.00876212
-0.00265544
0.00300854
0.00821004
0.0129501
0.0172336
0.0210651
0.0244562
0.0274171
0.0299215
0.0318905
0.0332337
0.0339224
0.0340134
0.0336074
0.0327578
0.0314275
0.0295204
0.026922
-0.0577164
-0.0445846
-0.0316416
-0.0190168
-0.00682784
0.00481875
0.015827
0.0261101
0.0355897
0.0441921
0.0518413
0.0584625
0.063964
0.0682367
0.0711635
0.0726306
0.0725367
0.0707949
0.067321
0.0620203
0.0547994
0.0456232
0.0345945
0.0220277
0.00851283
-0.00505001
-0.0175178
-0.0277173
-0.034781
-0.0384216
-0.0389238
-0.0369116
-0.0330953
-0.0281089
-0.0224568
-0.0165144
-0.0105463
-0.00472994
0.000820636
0.00603609
0.0108805
0.0153402
0.019409
0.0230807
0.0263546
0.0292326
0.0316924
0.0336656
0.0350606
0.0358232
0.0359747
0.0355943
0.0347486
0.0334259
0.0315573
0.0290442
-0.0543933
-0.0421485
-0.0300455
-0.0182049
-0.0067378
0.00425395
0.0146771
0.0244462
0.0334827
0.0417122
0.0490594
0.0554485
0.0607927
0.064994
0.0679477
0.0695492
0.0697008
0.0683149
0.0653104
0.0606088
0.0541505
0.0459437
0.0361276
0.0250289
0.0131987
0.0014147
-0.00938969
-0.0182964
-0.0246501
-0.0282061
-0.0291508
-0.0279282
-0.0250695
-0.0210764
-0.0163698
-0.0112805
-0.00605533
-0.000870038
0.00415481
0.00893936
0.013435
0.0176155
0.0214652
0.0249692
0.0281162
0.0308992
0.0332974
0.0352535
0.0366809
0.0375088
0.0377275
0.0373916
0.0365657
0.0352642
0.0334443
0.031027
-0.051241
-0.0398497
-0.0285604
-0.017485
-0.00672751
0.0036149
0.0134523
0.0227013
0.0312842
0.0391266
0.0461546
0.0522933
0.0574611
0.0615691
0.0645241
0.0662321
0.0666035
0.0655574
0.0630218
0.0589368
0.0532718
0.0460649
0.0374711
0.0278036
0.0175526
0.00737158
-0.0019861
-0.00979776
-0.0155677
-0.0190505
-0.0203518
-0.0197772
-0.0177194
-0.0145736
-0.01069
-0.0063583
-0.00180543
0.00279847
0.00733049
0.0117042
0.0158616
0.0197665
0.0233948
0.0267248
0.0297367
0.032415
0.0347384
0.0366586
0.0380982
0.0389795
0.039268
0.038992
0.0382051
0.0369402
0.0351803
0.0328684
-0.0482446
-0.0376729
-0.0271695
-0.0168376
-0.00677492
0.00292697
0.0121819
0.020909
0.0290322
0.0364785
0.0431754
0.0490504
0.0540271
0.058025
0.0609609
0.0627519
0.0633189
0.0625912
0.0605094
0.0570316
0.0521496
0.0459194
0.038497
0.0301674
0.0213521
0.0125904
0.00449061
-0.00235987
-0.00761268
-0.0109896
-0.0125392
-0.0124644
-0.0110525
-0.00861222
-0.00543279
-0.00176478
0.0021863
0.00625952
0.0103334
0.0143183
0.0181501
0.0217848
0.0251915
0.0283431
0.0312134
0.0337798
0.0360178
0.0378867
0.0393196
0.0402395
0.0405956
0.0403913
0.0396626
0.0384526
0.0367658
0.0345686
-0.0453896
-0.0356029
-0.0258561
-0.0162446
-0.00685894
0.00221448
0.0108937
0.0191011
0.0267629
0.0338084
0.0401672
0.0457696
0.0505445
0.0544193
0.0573197
0.0591733
0.0599121
0.0594769
0.0578214
0.0549192
0.0507786
0.0454644
0.0391251
0.0320111
0.0244768
0.0169646
0.00996834
0.00399354
-0.000778446
-0.00399462
-0.00568134
-0.00596688
-0.00505758
-0.00319162
-0.000604763
0.00248908
0.00590712
0.00950031
0.0131516
0.0167713
0.0202919
0.023664
0.0268509
0.0298215
0.0325453
0.034994
0.0371395
0.0389452
0.0403546
0.0412971
0.0417138
0.0415854
0.0409354
0.0398005
0.0382022
0.0361297
-0.0426623
-0.0336254
-0.024605
-0.0156884
-0.00695976
0.00150017
0.00961399
0.0173077
0.0245105
0.0311542
0.0371715
0.0424962
0.0470625
0.0508044
0.0536562
0.0555549
0.0564431
0.0562724
0.0550086
0.0526382
0.04918
0.0447024
0.0393415
0.0333129
0.0269121
0.0205012
0.014471
0.00917957
0.00499281
0.00200466
0.000280919
-0.000243083
0.000289623
0.00169865
0.00379466
0.00639792
0.00934859
0.0125114
0.0157761
0.0190553
0.0222805
0.0253989
0.0283699
0.031159
0.033733
0.0360596
0.0381075
0.0398417
0.0412144
0.0421638
0.0426302
0.0425805
0.0420224
0.0409825
0.0394904
0.0375541
-0.0400495
-0.0317269
-0.0234015
-0.015153
-0.00705915
0.000804935
0.00836664
0.015556
0.0223056
0.0285503
0.0342264
0.0392718
0.0436256
0.0472279
0.0500207
0.0519494
0.0529661
0.0530323
0.0521237
0.0502363
0.0473961
0.0436705
0.039182
0.0341148
0.0287144
0.023276
0.0181155
0.0135209
0.00983087
0.00710415
0.00542177
0.00475948
0.00502224
0.00607631
0.00777226
0.00996142
0.0125064
0.0152866
0.0182004
0.0211644
0.0241111
0.0269865
0.029747
0.0323559
0.0347785
0.0369802
0.0389273
0.0405847
0.0419109
0.0428532
0.043357
0.0433832
0.0429241
0.0419962
0.0406287
0.0388421
-0.0375391
-0.0298951
-0.0222324
-0.0146238
-0.00714059
0.000147673
0.00717329
0.0138706
0.0201759
0.0260277
0.0313662
0.0361334
0.0402733
0.0437317
0.0464573
0.0484033
0.0495296
0.0498061
0.0492166
0.0477641
0.0454778
0.0424227
0.0387071
0.034488
0.0299694
0.0253913
0.0210149
0.0170825
0.0138493
0.0114035
0.00981996
0.0090983
0.00917872
0.00996452
0.0113399
0.0131838
0.0153801
0.0178231
0.0204208
0.0230951
0.0257812
0.0284252
0.0309823
0.0334143
0.0356855
0.0377607
0.0396048
0.0411826
0.0424561
0.0433807
0.0439091
0.0440026
0.0436441
0.0428393
0.0416124
0.0399891
-0.03512
-0.0281188
-0.021086
-0.0140878
-0.00718941
-0.000454913
0.00605297
0.012273
0.0181458
0.0236136
0.0286208
0.0331133
0.0370399
0.040352
0.0430043
0.0449563
0.046175
0.0466371
0.0463323
0.0452684
0.0434759
0.0410155
0.037982
0.0345094
0.0307673
0.0269516
0.0232759
0.0199429
0.0171512
0.0149977
0.0135531
0.0128321
0.0128004
0.0133902
0.0145134
0.0160732
0.0179728
0.0201211
0.0224362
0.0248463
0.0272902
0.0297155
0.0320775
0.0343373
0.0364589
0.0384073
0.0401474
0.041644
0.0428614
0.0437612
0.0443035
0.0444533
0.0441902
0.0435121
0.0424356
0.0409856
-0.0327823
-0.0263878
-0.0199516
-0.0135335
-0.00719289
-0.000988418
0.00502206
0.0107819
0.0162362
0.0213311
0.0260153
0.0302387
0.0339547
0.0371197
0.0396937
0.041642
0.0429373
0.0435616
0.0435092
0.0427906
0.0414361
0.0395009
0.0370683
0.034251
0.0311908
0.0280492
0.0249989
0.0222074
0.0198346
0.0179748
0.0166949
0.0160187
0.0159299
0.0163828
0.017312
0.0186412
0.0202909
0.0221838
0.024248
0.0264187
0.0286391
0.0308592
0.0330355
0.0351292
0.0371047
0.0389275
0.0405636
0.0419786
0.0431383
0.0440085
0.0445566
0.0447521
0.0445749
0.044019
0.0430941
0.0418205
-0.0305173
-0.0246938
-0.0188206
-0.0129515
-0.00714049
-0.00144094
0.00409423
0.00941305
0.0144646
0.0191994
0.0235707
0.0275321
0.0310415
0.0340597
0.0365517
0.0384877
0.0398449
0.0406095
0.040779
0.0403653
0.0393973
0.0379243
0.0360188
0.0337761
0.0313133
0.0287652
0.026273
0.0239695
0.0219871
0.0204144
0.0193138
0.0187135
0.0186098
0.0189735
0.0197572
0.0209019
0.0223435
0.0240169
0.0258601
0.0278155
0.0298311
0.0318601
0.0338608
0.0357956
0.0376296
0.0393296
0.0408627
0.0421963
0.043298
0.0441366
0.0446841
0.0449156
0.0448133
0.0443695
0.043589
0.0424864
-0.0283179
-0.0230297
-0.0176857
-0.0123343
-0.00702389
-0.00180309
0.00328008
0.00817812
0.0128445
0.0172337
0.0213037
0.0250114
0.0283191
0.0311919
0.033599
0.0355147
0.0369199
0.0378042
0.038167
0.0380205
0.0373915
0.0363235
0.0348789
0.0331383
0.0311979
0.0291703
0.0271741
0.0253076
0.0236854
0.0223879
0.0214727
0.0209692
0.0208819
0.0211941
0.0218724
0.022872
0.0241419
0.0256284
0.0272784
0.0290415
0.0308706
0.0327229
0.034559
0.036343
0.0380414
0.0396222
0.0410545
0.0423076
0.0433514
0.0441575
0.0447008
0.0449604
0.0449217
0.0445772
0.0439285
0.0429848
-0.026178
-0.02139
-0.0165417
-0.0116762
-0.00683714
-0.00206818
0.00258713
0.00708568
0.0113856
0.0154457
0.0192264
0.0226895
0.0258013
0.0285308
0.0308506
0.0327387
0.0341791
0.0351634
0.0356926
0.0357782
0.0354445
0.0347297
0.0336865
0.0323822
0.0308978
0.0293251
0.0277618
0.026287
0.0249961
0.0239595
0.0232291
0.0228348
0.0227866
0.0230764
0.0236819
0.0245697
0.0256997
0.0270283
0.0285107
0.0301031
0.0317638
0.0334538
0.0351367
0.0367788
0.0383482
0.0398148
0.0411495
0.0423239
0.0433099
0.0440826
0.0446195
0.0449013
0.0449162
0.0446578
0.0441258
0.0433257
-0.0240936
-0.0197712
-0.0153853
-0.0109741
-0.00657673
-0.00223234
0.00202
0.00614149
0.0100942
0.0138407
0.0173455
0.0205744
0.023497
0.0260858
0.0283167
0.0301705
0.0316338
0.0326998
0.03337
0.0336552
0.0335768
0.0331674
0.032472
0.0315467
0.0304581
0.0292802
0.0280871
0.0269676
0.0259793
0.0251861
0.0246353
0.0243565
0.0243626
0.0246521
0.0252107
0.0260143
0.0270319
0.0282283
0.0295663
0.0310084
0.032518
0.0340601
0.0356015
0.037111
0.0385588
0.0399169
0.041158
0.0422561
0.0431861
0.0439247
0.0444519
0.0447507
0.044811
0.044627
0.0441973
0.043525
-0.0220617
-0.0181711
-0.0142148
-0.0102267
-0.00624157
-0.00229427
0.00158023
0.00534732
0.00897266
0.0124227
0.0156651
0.0186704
0.0214108
0.0238619
0.0260026
0.027816
0.0292907
0.0304211
0.0312089
0.0316635
0.0318035
0.0316566
0.0312605
0.0306622
0.0299159
0.0290838
0.0282238
0.0274079
0.0266887
0.0261187
0.0257388
0.0255765
0.0256468
0.025952
0.0264841
0.0272261
0.0281545
0.0292412
0.0304558
0.0317664
0.0331414
0.0345497
0.0359615
0.0373481
0.0386823
0.0399381
0.0410903
0.0421154
0.0429909
0.0436953
0.0442104
0.0445217
0.0446201
0.0444999
0.0441594
0.0436004
-0.0200811
-0.0165894
-0.0130307
-0.00943496
-0.00583285
-0.00225536
0.00126634
0.00470126
0.00801929
0.0111911
0.0141856
0.0169778
0.019543
0.0218598
0.0239094
0.025677
0.0271525
0.0283313
0.0292148
0.0298111
0.0301359
0.0302126
0.0300721
0.0297531
0.0293021
0.028773
0.0281992
0.0276501
0.0271702
0.0268026
0.0265822
0.0265341
0.0266735
0.0270058
0.0275269
0.0282256
0.0290843
0.030081
0.0311909
0.0323874
0.0336433
0.0349315
0.0362253
0.0374991
0.0387279
0.0398881
0.0409569
0.0419127
0.042735
0.0434056
0.0439082
0.0442276
0.0443569
0.0442912
0.0440284
0.0435693
-0.0181521
-0.0150272
-0.011835
-0.0086016
-0.00535394
-0.00211943
0.00107436
0.00419988
0.00723037
0.0101405
0.0129018
0.0154922
0.0178901
0.0200764
0.0220345
0.0237515
0.0252183
0.0264307
0.0273899
0.0281026
0.0285817
0.0288468
0.0289231
0.0288417
0.02864
0.0283552
0.0280429
0.0277307
0.0274632
0.0272776
0.027204
0.0272649
0.0274752
0.0278417
0.0283636
0.0290335
0.0298387
0.0307623
0.0317841
0.0328822
0.0340336
0.0352147
0.0364021
0.037573
0.038705
0.0397767
0.0407675
0.0416579
0.04243
0.0430678
0.0435564
0.0438798
0.0440343
0.0440151
0.0438196
0.0434485
-0.016276
-0.0134874
-0.0106315
-0.00773124
-0.00481016
-0.00189233
0.000997984
0.00383666
0.00659951
0.00926335
0.0118058
0.0142065
0.0164455
0.0185055
0.0203724
0.0220345
0.0234839
0.0247168
0.0257335
0.0265397
0.0271457
0.0275674
0.0278257
0.0279464
0.0279589
0.0278946
0.027793
0.0276845
0.027603
0.0275792
0.0276387
0.0278016
0.0280818
0.0284867
0.0290176
0.0296701
0.0304352
0.0312999
0.0322482
0.0332622
0.0343224
0.0354088
0.036501
0.0375789
0.0386227
0.0396131
0.0405318
0.0413614
0.0420861
0.0426919
0.0431667
0.0434902
0.0436649
0.0436852
0.0435481
0.043254
-0.0144556
-0.0119738
-0.00942532
-0.00683004
-0.00420855
-0.00158189
0.00102877
0.00360215
0.00611706
0.00855271
0.0108905
0.0131122
0.0151999
0.0171382
0.0189144
0.0205183
0.0219428
0.0231842
0.0242425
0.0251217
0.0258301
0.0263805
0.0267895
0.0270784
0.0272712
0.0273935
0.0274736
0.0275398
0.0276197
0.0277383
0.0279172
0.028174
0.0285211
0.0289661
0.0295116
0.0301553
0.030891
0.0317089
0.0325965
0.033539
0.0345204
0.0355238
0.0365315
0.037526
0.03849
0.0394064
0.040259
0.0410325
0.0417125
0.0422872
0.0427505
0.0430694
0.0432608
0.0433147
0.0432281
0.0430011
-0.0126949
-0.0104917
-0.00822293
-0.00590566
-0.00355777
-0.00119753
0.00115657
0.00348597
0.00577205
0.00799705
0.0101442
0.0121981
0.0141424
0.0159634
0.01765
0.0191931
0.0205863
0.0218258
0.0229112
0.0238454
0.0246347
0.025289
0.0258217
0.0262501
0.0265924
0.0268699
0.0271048
0.0273206
0.0275396
0.0277824
0.0280671
0.0284087
0.0288185
0.0293035
0.029867
0.0305083
0.0312232
0.0320044
0.0328421
0.0337245
0.0346383
0.0355694
0.0365027
0.0374232
0.0383157
0.0391654
0.0399581
0.0406799
0.0413182
0.0418602
0.0422906
0.0426251
0.0428331
0.0429161
0.0428731
0.0427044
-0.0109987
-0.00904751
-0.00703203
-0.00496695
-0.00286766
-0.000750022
0.00136992
0.00347596
0.00555189
0.00758249
0.00955326
0.0114506
0.0132594
0.014968
0.0165667
0.0180474
0.0194039
0.0206327
0.0217328
0.0227061
0.0235574
0.024294
0.0249265
0.0254679
0.0259337
0.02634
0.0267052
0.0270476
0.0273854
0.0277354
0.0281128
0.0285302
0.0289973
0.0295209
0.0301042
0.0307476
0.0314483
0.032201
0.0329982
0.0338304
0.0346868
0.0355554
0.0364239
0.0372792
0.0381084
0.0388985
0.0396373
0.0403126
0.0409132
0.0414285
0.0418489
0.0421756
0.0423939
0.042501
0.0424955
0.0423774
-0.00937308
-0.00764854
-0.00586122
-0.00402371
-0.00214925
-0.000251474
0.00165574
0.00355848
0.00544271
0.00729518
0.00910437
0.0108546
0.0125361
0.0141378
0.015651
0.0170682
0.0183838
0.0195945
0.020699
0.021698
0.0225948
0.0233949
0.0241064
0.0247391
0.025305
0.0258174
0.0262904
0.0267387
0.0271769
0.0276185
0.0280761
0.0285601
0.0290789
0.0296385
0.0302421
0.0308906
0.0315823
0.0323133
0.0330779
0.0338685
0.0346764
0.0354917
0.0363041
0.0371026
0.0378761
0.0386137
0.0393045
0.0399383
0.0405054
0.040997
0.0414052
0.0417264
0.0419525
0.0420798
0.0421066
0.0420324
-0.00782462
-0.00630286
-0.00472005
-0.00308684
-0.00141454
0.000285169
0.00200032
0.00371888
0.0054288
0.00711835
0.0087767
0.0103924
0.0119561
0.0134573
0.0148881
0.0162419
0.0175136
0.0187
0.0198002
0.0208135
0.0217422
0.0225901
0.0233625
0.0240673
0.0247137
0.025312
0.0258734
0.0264093
0.0269312
0.0274502
0.0279763
0.0285181
0.0290826
0.029675
0.0302984
0.0309538
0.0316403
0.032355
0.0330936
0.0338501
0.0346175
0.0353877
0.036152
0.0369015
0.0376267
0.0383182
0.0389671
0.0395643
0.0401016
0.0405717
0.0409677
0.0412848
0.0415172
0.0416617
0.0417163
0.0416803
-0.00636095
-0.00501946
-0.00361869
-0.00216766
-0.000675997
0.000846331
0.00238905
0.00394181
0.00549428
0.00703595
0.00855693
0.0100494
0.0115031
0.0129103
0.0142626
0.0155539
0.0167796
0.0179363
0.0190265
0.0200438
0.020995
0.0218768
0.0226951
0.0234556
0.0241653
0.0248322
0.0254648
0.0260721
0.0266632
0.0272466
0.0278304
0.0284216
0.0290259
0.0296477
0.0302896
0.0309528
0.0316368
0.0323396
0.0330577
0.0337865
0.0345203
0.0352526
0.0359763
0.0366839
0.0373675
0.0380194
0.0386317
0.039197
0.0397083
0.0401593
0.0405439
0.0408574
0.0410953
0.0412546
0.0413332
0.0413305
-0.00499036
-0.00380794
-0.00256803
-0.00127827
5.31908e-05
0.00141784
0.00280693
0.00421161
0.00562295
0.00703203
0.00843004
0.00980868
0.011161
0.0124803
0.0137592
0.0149907
0.0161686
0.0172833
0.0183699
0.0193918
0.0203499
0.021253
0.0221036
0.0229055
0.0236638
0.0243843
0.0250735
0.0257382
0.0263854
0.0270218
0.0276536
0.0282863
0.0289246
0.0295721
0.0302309
0.0309022
0.0315856
0.0322797
0.0329818
0.0336883
0.0343946
0.0350955
0.0357851
0.0364574
0.0371057
0.0377236
0.0383047
0.0388426
0.0393314
0.0397657
0.0401401
0.0404506
0.0406934
0.0408655
0.0409651
0.0409913
-0.00372193
-0.00267862
-0.00157957
-0.000431237
0.000759459
0.00198528
0.0032388
0.00451245
0.00579849
0.00708927
0.00837742
0.00965575
0.0109175
0.012156
0.013366
0.0145437
0.0156863
0.0167966
0.0178359
0.0188387
0.019798
0.0207132
0.0215855
0.0224172
0.0232118
0.0239734
0.0247067
0.0254168
0.0261089
0.0267881
0.0274591
0.0281263
0.0287932
0.0294626
0.0301363
0.0308153
0.0314993
0.0321873
0.0328771
0.0335658
0.0342499
0.034925
0.0355865
0.0362292
0.036848
0.0374374
0.037992
0.0385066
0.0389763
0.0393962
0.0397621
0.0400702
0.0403172
0.0405004
0.0406182
0.0406697
-0.00256545
-0.0016424
-0.000665296
0.00036041
0.00142886
0.0025339
0.00366917
0.00482818
0.0060043
0.00719099
0.0083818
0.00957039
0.0107506
0.011917
0.0130645
0.0141888
0.0152857
0.0163516
0.0173798
0.0183729
0.0193301
0.0202515
0.0211376
0.0219901
0.0228111
0.0236035
0.0243705
0.0251157
0.0258431
0.0265562
0.0272588
0.0279539
0.0286443
0.0293322
0.0300188
0.0307048
0.0313902
0.0320739
0.0327543
0.0334291
0.0340953
0.0347496
0.0353881
0.0360066
0.0366009
0.0371666
0.0376992
0.0381944
0.038648
0.0390561
0.0394148
0.0397211
0.0399719
0.0401649
0.0402984
0.0403716
-0.00153155
-0.000710831
0.000162317
0.00108331
0.00204721
0.00304879
0.00408257
0.00514294
0.0062242
0.00732065
0.00842661
0.00953649
0.0106449
0.0117469
0.0128378
0.0139132
0.0149692
0.0160024
0.0170095
0.0179893
0.0189408
0.0198634
0.0207575
0.0216236
0.022463
0.0232777
0.0240697
0.0248417
0.0255961
0.0263357
0.027063
0.0277804
0.0284898
0.0291927
0.0298901
0.0305824
0.0312693
0.0319502
0.0326235
0.0332875
0.0339397
0.0345774
0.0351973
0.0357963
0.0363708
0.0369172
0.0374318
0.0379111
0.0383516
0.03875
0.039103
0.0394079
0.0396622
0.0398636
0.0400106
0.0401023
-0.000632001
0.000103486
0.000890004
0.00172364
0.00260015
0.00351506
0.00446366
0.00544108
0.00644233
0.00746241
0.00849629
0.00953904
0.0105858
0.0116321
0.0126734
0.0137059
0.0147258
0.01573
0.0167158
0.0176811
0.0186244
0.019545
0.0204424
0.0213167
0.0221685
0.0229988
0.0238089
0.0246004
0.0253751
0.0261348
0.0268812
0.0276159
0.0283401
0.029055
0.0297611
0.0304586
0.0311472
0.0318262
0.0324943
0.0331501
0.0337914
0.0344161
0.0350216
0.0356051
0.0361638
0.0366948
0.0371951
0.0376618
0.0380918
0.0384825
0.0388311
0.0391352
0.0393924
0.039601
0.0397593
0.0398666
0.000120266
0.000787129
0.00150384
0.00226701
0.00307296
0.00391776
0.00479731
0.00570734
0.00664345
0.00760118
0.00857604
0.00956355
0.0105594
0.0115593
0.0125592
0.0135556
0.0145448
0.0155239
0.0164901
0.0174414
0.0183759
0.0192925
0.0201903
0.0210689
0.0219284
0.0227691
0.0235918
0.0243973
0.0251867
0.0259611
0.0267216
0.0274692
0.0282047
0.0289288
0.0296417
0.0303434
0.0310335
0.0317113
0.0323757
0.0330253
0.0336585
0.0342734
0.0348678
0.0354395
0.0359861
0.0365053
0.0369945
0.0374513
0.0378734
0.0382582
0.0386035
0.0389071
0.039167
0.0393814
0.039549
0.0396688
0.000710959
0.00132568
0.00198927
0.00269873
0.00345081
0.00424205
0.00506879
0.00592717
0.00681324
0.00772296
0.00865225
0.00959699
0.0105532
0.0115169
0.0124844
0.0134522
0.0144169
0.0153756
0.0163257
0.0172648
0.0181911
0.0191031
0.0199997
0.0208802
0.0217441
0.0225914
0.0234224
0.0242373
0.0250368
0.0258214
0.0265919
0.0273487
0.0280923
0.0288231
0.0295409
0.0302458
0.0309371
0.0316141
0.0322759
0.0329212
0.0335486
0.0341564
0.0347428
0.0353059
0.0358437
0.0363542
0.0368353
0.037285
0.0377012
0.0380817
0.0384247
0.0387281
0.0389901
0.0392092
0.0393838
0.0395133
0.00112366
0.00170283
0.00233013
0.00300288
0.00371813
0.00447271
0.00526324
0.00608617
0.00693786
0.00781455
0.00871239
0.00962756
0.0105563
0.0114948
0.0124397
0.0133874
0.0143348
0.0152789
0.0162172
0.0171473
0.0180673
0.0189754
0.0198704
0.0207513
0.0216175
0.0224686
0.0233045
0.0241252
0.024931
0.0257222
0.026499
0.0272617
0.0280106
0.0287457
0.0294669
0.0301738
0.030866
0.0315426
0.0322028
0.0328453
0.0334689
0.034072
0.0346532
0.0352106
0.0357426
0.0362474
0.0367232
0.0371682
0.0375804
0.0379582
0.0382997
0.0386031
0.0388667
0.0390889
0.0392685
0.0394045
0.00134072
0.00190148
0.00250999
0.00316372
0.00385987
0.00459543
0.00536717
0.00617168
0.00700549
0.00786498
0.00874645
0.00964618
0.0105605
0.0114859
0.0124188
0.013356
0.0142942
0.0152306
0.0161625
0.0170877
0.0180041
0.0189099
0.0198038
0.0206847
0.0215518
0.0224046
0.0232428
0.0240663
0.0248752
0.0256695
0.0264495
0.0272152
0.0279667
0.028704
0.0294268
0.0301348
0.0308274
0.0315039
0.0321632
0.0328044
0.0334261
0.0340269
0.0346054
0.0351599
0.035689
0.0361909
0.036664
0.0371066
0.0375169
0.0378933
0.0382341
0.0385375
0.0388019
0.0390258
0.039208
0.0393475
)
;

boundaryField
{
    inlet
    {
        type            zeroGradient;
    }
    outlet
    {
        type            fixedValue;
        value           nonuniform 0();
    }
    cylinder
    {
        type            zeroGradient;
    }
    top
    {
        type            symmetryPlane;
    }
    bottom
    {
        type            symmetryPlane;
    }
    defaultFaces
    {
        type            empty;
    }
    procBoundary14to10
    {
        type            processor;
        value           nonuniform List<scalar> 
57
(
-0.0686595
-0.0809875
-0.0864262
-0.0854413
-0.079655
-0.0709181
-0.0607495
-0.0502266
-0.0400052
-0.030432
-0.0216619
-0.0137411
-0.00665616
-0.00035975
0.00520536
0.0100883
0.0143358
0.0179991
0.0211045
0.0236094
0.0254228
0.026507
0.0269586
0.0269443
0.0265358
0.0257693
0.0244922
0.0225482
0.0197875
-0.0688554
-0.0528722
-0.0372684
-0.0222005
-0.00780395
0.0058046
0.018525
0.0302702
0.0409642
0.0505413
0.0589189
0.0660419
0.0718266
0.076094
0.0786781
0.0794619
0.0783804
0.075408
0.0705147
0.0636135
0.0545428
0.0431148
0.0292157
0.0129264
-0.00532153
-0.02454
-0.0430385
-0.0430385
)
;
    }
    procBoundary14to11
    {
        type            processor;
        value           uniform 0.0186176;
    }
    procBoundary14to13
    {
        type            processor;
        value           nonuniform List<scalar> 
35
(
-0.0800755
-0.0753656
-0.0708951
-0.0666498
-0.0626149
-0.0587756
-0.0551172
-0.0516258
-0.0482879
-0.0450911
-0.042024
-0.0390762
-0.0362387
-0.0335036
-0.0308643
-0.0283159
-0.0258546
-0.023478
-0.0211851
-0.0189762
-0.0168525
-0.0148167
-0.0128722
-0.0110234
-0.00927554
-0.00763489
-0.00610829
-0.00470362
-0.00342953
-0.00229567
-0.00131289
-0.000493704
0.00014779
0.000595023
0.000830004
)
;
    }
    procBoundary14to15
    {
        type            processor;
        value           nonuniform List<scalar> 
35
(
0.0211158
0.0235048
0.0257718
0.0279119
0.0299213
0.0317979
0.0335416
0.0351543
0.0366364
0.037983
0.0391827
0.0402193
0.0410795
0.0417595
0.0422669
0.0426171
0.0428283
0.0429188
0.0429059
0.0428065
0.0426368
0.0424126
0.0421488
0.0418589
0.0415549
0.0412472
0.0409447
0.040655
0.0403844
0.0401387
0.0399226
0.0397406
0.0395972
0.0394967
0.0394439
)
;
    }
}


// ************************************************************************* //
