/*--------------------------------*- C++ -*----------------------------------*\
  =========                 |
  \\      /  F ield         | OpenFOAM: The Open Source CFD Toolbox
   \\    /   O peration     | Website:  https://openfoam.org
    \\  /    A nd           | Version:  7
     \\/     M anipulation  |
\*---------------------------------------------------------------------------*/
FoamFile
{
    version     2.0;
    format      ascii;
    class       volScalarField;
    location    "65";
    object      p;
}
// * * * * * * * * * * * * * * * * * * * * * * * * * * * * * * * * * * * * * //

dimensions      [0 2 -2 0 0 0 0];

internalField   nonuniform List<scalar> 
1987
(
-0.249489
-0.248385
-0.247201
-0.245936
-0.23097
-0.230168
-0.229255
-0.228237
-0.227119
-0.225908
-0.224609
-0.223231
-0.221779
-0.220265
-0.218702
-0.217038
-0.215271
-0.213562
-0.211811
-0.209994
-0.208114
-0.206162
-0.204127
-0.201994
-0.199745
-0.197363
-0.194827
-0.192115
-0.189207
-0.186081
-0.182718
-0.179103
-0.175223
-0.171071
-0.166646
-0.161953
-0.157004
-0.151818
-0.146423
-0.140852
-0.135146
-0.129348
-0.12351
-0.117683
-0.11192
-0.106273
-0.100794
-0.0955304
-0.0905232
-0.0858087
-0.0814152
-0.0773627
-0.073662
-0.0703141
-0.0673103
-0.0646319
-0.0622507
-0.0601304
-0.0582272
-0.0564921
-0.22793
-0.227255
-0.226463
-0.22556
-0.224552
-0.223444
-0.222241
-0.22095
-0.219573
-0.218112
-0.216544
-0.214915
-0.213375
-0.211761
-0.210071
-0.20831
-0.206478
-0.204568
-0.202568
-0.200465
-0.198243
-0.195886
-0.193373
-0.190686
-0.187804
-0.184709
-0.181382
-0.17781
-0.173981
-0.16989
-0.165536
-0.160923
-0.156065
-0.15098
-0.145695
-0.140241
-0.134657
-0.128987
-0.123277
-0.117577
-0.111938
-0.10641
-0.101041
-0.0958766
-0.0909572
-0.0863171
-0.0819835
-0.0779758
-0.0743045
-0.070971
-0.067967
-0.0652751
-0.0628688
-0.0607133
-0.0587673
-0.0569841
-0.224516
-0.223974
-0.22331
-0.222531
-0.221642
-0.220649
-0.219556
-0.218369
-0.217091
-0.215724
-0.214269
-0.21278
-0.211289
-0.20972
-0.208077
-0.206364
-0.204576
-0.202704
-0.200738
-0.198666
-0.196472
-0.19414
-0.191653
-0.188993
-0.186141
-0.18308
-0.179795
-0.176271
-0.1725
-0.168477
-0.164201
-0.159678
-0.154921
-0.149947
-0.144782
-0.139457
-0.134008
-0.128477
-0.122907
-0.117347
-0.111843
-0.106445
-0.101198
-0.0961441
-0.0913228
-0.0867665
-0.0825013
-0.0785458
-0.0749103
-0.0715961
-0.0685959
-0.0658931
-0.063463
-0.0612727
-0.0592833
-0.0574507
-0.22094
-0.220529
-0.219994
-0.219339
-0.218571
-0.217694
-0.216714
-0.215636
-0.214463
-0.213203
-0.211865
-0.210472
-0.209031
-0.207521
-0.205935
-0.204275
-0.202535
-0.200707
-0.19878
-0.196742
-0.194581
-0.192281
-0.189826
-0.187199
-0.184384
-0.181365
-0.178128
-0.174661
-0.170955
-0.167007
-0.162817
-0.158391
-0.153742
-0.148886
-0.143848
-0.138657
-0.133348
-0.127959
-0.122534
-0.117116
-0.111752
-0.106485
-0.101361
-0.0964195
-0.0916971
-0.0872251
-0.0830285
-0.0791251
-0.075525
-0.0722298
-0.0692326
-0.0665183
-0.0640636
-0.0618379
-0.0598045
-0.0579221
-0.127435
-0.122158
-0.116886
-0.111663
-0.106532
-0.101532
-0.0967041
-0.0920815
-0.0876945
-0.0835667
-0.0797155
-0.0761504
-0.0728736
-0.0698789
-0.0671524
-0.0646725
-0.0624108
-0.0603329
-0.0584004
-0.249392
-0.248269
-0.247064
-0.245778
-0.244409
-0.242948
-0.241429
-0.239819
-0.238128
-0.236343
-0.234477
-0.232526
-0.230488
-0.228363
-0.226148
-0.223842
-0.221445
-0.218953
-0.216367
-0.213683
-0.210902
-0.20802
-0.205038
-0.201954
-0.198765
-0.195471
-0.192068
-0.188556
-0.184934
-0.181203
-0.177359
-0.173401
-0.169339
-0.165167
-0.160888
-0.156504
-0.152024
-0.147458
-0.142815
-0.138103
-0.133338
-0.128537
-0.123715
-0.11889
-0.114073
-0.109293
-0.104563
-0.0998965
-0.0953062
-0.0908005
-0.0863867
-0.0820685
-0.0778532
-0.0737557
-0.0697255
-0.0659523
-0.0622568
-0.058691
-0.0552886
-0.052047
-0.249325
-0.248182
-0.246956
-0.24565
-0.24426
-0.242762
-0.241244
-0.239629
-0.237918
-0.236124
-0.234253
-0.2323
-0.230266
-0.22815
-0.225952
-0.22367
-0.221303
-0.218849
-0.216307
-0.213675
-0.210952
-0.208134
-0.205221
-0.202208
-0.199094
-0.195875
-0.192546
-0.189103
-0.185545
-0.181866
-0.178062
-0.174147
-0.170112
-0.165945
-0.161653
-0.15724
-0.15271
-0.148076
-0.143345
-0.13853
-0.133646
-0.128714
-0.123753
-0.118782
-0.113821
-0.108899
-0.104034
-0.0992454
-0.094549
-0.0899569
-0.0854843
-0.0811328
-0.0769153
-0.0728425
-0.0688176
-0.065165
-0.061567
-0.0581159
-0.0548521
-0.0517605
-0.249317
-0.248147
-0.246898
-0.24557
-0.244167
-0.242713
-0.241121
-0.239474
-0.237749
-0.235946
-0.234068
-0.232114
-0.230084
-0.227978
-0.225796
-0.223538
-0.221201
-0.218785
-0.216287
-0.213707
-0.211042
-0.208287
-0.205442
-0.202501
-0.199461
-0.196317
-0.19306
-0.189686
-0.186187
-0.182555
-0.178806
-0.174935
-0.17092
-0.166758
-0.162453
-0.15801
-0.153431
-0.148728
-0.143911
-0.138993
-0.133992
-0.128931
-0.123831
-0.118717
-0.113613
-0.10855
-0.103552
-0.0986406
-0.0938386
-0.0891597
-0.0846308
-0.0802422
-0.0760204
-0.0719783
-0.0682201
-0.0644204
-0.0609134
-0.0575727
-0.0544461
-0.0515025
-0.248136
-0.246869
-0.245524
-0.244101
-0.24261
-0.241019
-0.239357
-0.237619
-0.235807
-0.233924
-0.231969
-0.229943
-0.227847
-0.225681
-0.223446
-0.22114
-0.218761
-0.216307
-0.213778
-0.211169
-0.208478
-0.205699
-0.202829
-0.199861
-0.196792
-0.193606
-0.190294
-0.186847
-0.183277
-0.179598
-0.175751
-0.171754
-0.167596
-0.16328
-0.158806
-0.154177
-0.149408
-0.144505
-0.139487
-0.134371
-0.129183
-0.123948
-0.118693
-0.113449
-0.108248
-0.103118
-0.0980879
-0.0931818
-0.0884235
-0.0838286
-0.0794074
-0.0751793
-0.0711592
-0.0674027
-0.0637243
-0.060301
-0.0570688
-0.0540783
-0.0512793
-0.248165
-0.246879
-0.245514
-0.244071
-0.242555
-0.240953
-0.239277
-0.237527
-0.235707
-0.233819
-0.231864
-0.229842
-0.227755
-0.225605
-0.223393
-0.221117
-0.218775
-0.216364
-0.213884
-0.211332
-0.208701
-0.205987
-0.203187
-0.20029
-0.197295
-0.194171
-0.190914
-0.187534
-0.184059
-0.180402
-0.176586
-0.172606
-0.168452
-0.164122
-0.159619
-0.154942
-0.150107
-0.145122
-0.140006
-0.134778
-0.129466
-0.1241
-0.11871
-0.113329
-0.107994
-0.102737
-0.0975935
-0.0925869
-0.0877462
-0.0830915
-0.0786372
-0.0744016
-0.0703994
-0.0666594
-0.063076
-0.0597367
-0.056605
-0.0537551
-0.0510973
-0.248224
-0.246919
-0.245536
-0.244075
-0.242539
-0.240922
-0.239233
-0.237472
-0.235645
-0.233752
-0.231796
-0.229779
-0.227702
-0.225568
-0.223379
-0.221132
-0.218825
-0.216456
-0.214024
-0.211525
-0.208954
-0.206303
-0.20357
-0.200739
-0.197812
-0.19474
-0.191558
-0.188289
-0.18483
-0.181215
-0.177429
-0.173467
-0.169315
-0.164973
-0.160441
-0.155716
-0.150819
-0.145755
-0.140544
-0.135208
-0.129778
-0.124286
-0.118765
-0.113254
-0.107791
-0.102414
-0.0971578
-0.0920562
-0.0871377
-0.0824264
-0.0779394
-0.0736959
-0.0697096
-0.0659957
-0.0624868
-0.0592466
-0.0561844
-0.0534783
-0.0509608
-0.248309
-0.246987
-0.245586
-0.244108
-0.242554
-0.240924
-0.239222
-0.237452
-0.235617
-0.233721
-0.231766
-0.229753
-0.227685
-0.225565
-0.223399
-0.22118
-0.218908
-0.216579
-0.214194
-0.211748
-0.209234
-0.206642
-0.20397
-0.201191
-0.198317
-0.195341
-0.192263
-0.189011
-0.185603
-0.18203
-0.178273
-0.174328
-0.170179
-0.165824
-0.161266
-0.156493
-0.151537
-0.146396
-0.141096
-0.135656
-0.130114
-0.124502
-0.118858
-0.113223
-0.107639
-0.102147
-0.0967872
-0.0915953
-0.0866037
-0.0818389
-0.077321
-0.0730696
-0.069098
-0.0654142
-0.0619732
-0.0588144
-0.0559892
-0.0532528
-0.0508658
-0.248415
-0.247077
-0.24566
-0.244167
-0.242598
-0.240955
-0.239243
-0.237463
-0.235623
-0.233723
-0.23177
-0.229761
-0.227702
-0.225597
-0.223455
-0.221263
-0.219023
-0.216732
-0.214389
-0.211993
-0.209533
-0.206988
-0.204367
-0.201645
-0.198885
-0.195976
-0.192929
-0.189734
-0.186374
-0.18284
-0.179109
-0.17518
-0.171034
-0.166669
-0.162089
-0.15726
-0.152252
-0.14704
-0.141655
-0.13612
-0.130472
-0.124748
-0.118988
-0.113236
-0.107539
-0.101941
-0.096484
-0.0912079
-0.0861484
-0.081334
-0.0767875
-0.0725289
-0.068571
-0.0649185
-0.061541
-0.05846
-0.0557017
-0.0531561
-0.0508082
-0.248535
-0.247184
-0.245754
-0.244247
-0.242665
-0.241011
-0.239289
-0.237502
-0.235658
-0.233757
-0.231805
-0.229801
-0.22775
-0.225658
-0.223541
-0.221375
-0.219166
-0.216906
-0.214598
-0.212238
-0.209814
-0.207333
-0.204819
-0.202214
-0.199433
-0.196583
-0.193594
-0.190451
-0.187137
-0.183644
-0.179922
-0.176015
-0.171872
-0.167495
-0.162886
-0.15803
-0.152963
-0.147684
-0.142219
-0.136595
-0.130849
-0.12502
-0.119153
-0.113294
-0.107492
-0.101796
-0.09625
-0.0908968
-0.0857751
-0.0809155
-0.0763431
-0.0720782
-0.0681335
-0.0645118
-0.0611923
-0.0581851
-0.0554953
-0.0530505
-0.0508418
-0.248664
-0.247302
-0.245861
-0.244342
-0.24275
-0.241088
-0.239358
-0.237565
-0.235719
-0.233819
-0.231865
-0.22985
-0.227789
-0.225689
-0.223586
-0.221445
-0.219285
-0.217078
-0.214832
-0.212545
-0.21021
-0.207797
-0.205278
-0.202682
-0.199985
-0.197185
-0.194247
-0.19115
-0.187876
-0.184412
-0.180731
-0.176831
-0.17269
-0.168303
-0.163668
-0.158781
-0.153663
-0.148322
-0.142783
-0.137077
-0.131241
-0.125317
-0.119352
-0.113395
-0.107499
-0.101713
-0.0960867
-0.090664
-0.0854862
-0.0805861
-0.0759907
-0.0717207
-0.0677886
-0.0641964
-0.060929
-0.0579887
-0.055369
-0.05301
-0.0508891
-0.248792
-0.247423
-0.245974
-0.244448
-0.242848
-0.241178
-0.239443
-0.237647
-0.235803
-0.233857
-0.231971
-0.230016
-0.228017
-0.225979
-0.223873
-0.221738
-0.219559
-0.217363
-0.215129
-0.212851
-0.210525
-0.208154
-0.205704
-0.203171
-0.200531
-0.197777
-0.194884
-0.191831
-0.188596
-0.185162
-0.181506
-0.177618
-0.17348
-0.169084
-0.164429
-0.159509
-0.154346
-0.14895
-0.143345
-0.137565
-0.131648
-0.125638
-0.119585
-0.113541
-0.107559
-0.101693
-0.0959952
-0.0905106
-0.0852832
-0.0803475
-0.075732
-0.071458
-0.0675378
-0.0639732
-0.0607523
-0.0578716
-0.0553173
-0.0530377
-0.0510039
-0.248913
-0.24754
-0.246086
-0.244555
-0.242951
-0.241277
-0.239539
-0.237734
-0.235877
-0.234068
-0.232084
-0.230098
-0.228084
-0.226038
-0.223947
-0.221838
-0.219706
-0.217552
-0.215366
-0.213139
-0.210864
-0.208535
-0.206134
-0.203648
-0.201057
-0.198348
-0.195499
-0.192486
-0.189286
-0.185881
-0.182246
-0.178372
-0.174236
-0.169834
-0.16516
-0.160213
-0.15501
-0.149565
-0.143902
-0.138056
-0.132067
-0.125982
-0.119851
-0.113729
-0.107673
-0.101737
-0.095976
-0.0904374
-0.0851667
-0.0802003
-0.0755676
-0.0712905
-0.0673814
-0.0638419
-0.0606619
-0.0578335
-0.055338
-0.0531292
-0.0511752
-0.249018
-0.247644
-0.24619
-0.244658
-0.243052
-0.241377
-0.239639
-0.237847
-0.236053
-0.234113
-0.232165
-0.230196
-0.228197
-0.226167
-0.224102
-0.222018
-0.219911
-0.217783
-0.215627
-0.213435
-0.2112
-0.20891
-0.206551
-0.204107
-0.201561
-0.198894
-0.196085
-0.193108
-0.189942
-0.186563
-0.182949
-0.179087
-0.174956
-0.170548
-0.165859
-0.160889
-0.155652
-0.150164
-0.144452
-0.138549
-0.132499
-0.126348
-0.12015
-0.113961
-0.107841
-0.101845
-0.0960292
-0.0904444
-0.0851367
-0.080144
-0.0754969
-0.0712175
-0.0673183
-0.0638011
-0.0606564
-0.057873
-0.0554289
-0.053281
-0.0513942
-0.247726
-0.246275
-0.244746
-0.243144
-0.241471
-0.239732
-0.237919
-0.236089
-0.234204
-0.232274
-0.230313
-0.228324
-0.226307
-0.224263
-0.222199
-0.220115
-0.218012
-0.215885
-0.213725
-0.211524
-0.209271
-0.20695
-0.204545
-0.202039
-0.19941
-0.196637
-0.193694
-0.190558
-0.187204
-0.18361
-0.17976
-0.175634
-0.171224
-0.166524
-0.161535
-0.15627
-0.150747
-0.144993
-0.139043
-0.132941
-0.126735
-0.120481
-0.114237
-0.108062
-0.102015
-0.0961544
-0.0905309
-0.0851923
-0.0801777
-0.0755185
-0.0712373
-0.0673467
-0.0638484
-0.0607333
-0.0579877
-0.0555871
-0.05349
-0.0516583
-0.247777
-0.246334
-0.244812
-0.243216
-0.24155
-0.239823
-0.238065
-0.236188
-0.234299
-0.232378
-0.230427
-0.228448
-0.226446
-0.22442
-0.222376
-0.220314
-0.218235
-0.216134
-0.214003
-0.211833
-0.209613
-0.207326
-0.204957
-0.202486
-0.199892
-0.197151
-0.194239
-0.19113
-0.1878
-0.184224
-0.180387
-0.176268
-0.171857
-0.16715
-0.162148
-0.156862
-0.151312
-0.145525
-0.139538
-0.133393
-0.127144
-0.120844
-0.114555
-0.108336
-0.102249
-0.0963509
-0.0906958
-0.085332
-0.0802995
-0.0756304
-0.0713476
-0.0674637
-0.0639806
-0.0608893
-0.0581742
-0.0558089
-0.0537526
-0.0519647
-0.247784
-0.246353
-0.244844
-0.24326
-0.241603
-0.239878
-0.238088
-0.236249
-0.234377
-0.23247
-0.23053
-0.228565
-0.226577
-0.224569
-0.222544
-0.220504
-0.218446
-0.216369
-0.214264
-0.212122
-0.20993
-0.207675
-0.205336
-0.202897
-0.200333
-0.197622
-0.194738
-0.191654
-0.188346
-0.184789
-0.180965
-0.176854
-0.172447
-0.167737
-0.162726
-0.157427
-0.151858
-0.146047
-0.140031
-0.133856
-0.127573
-0.121239
-0.114915
-0.108663
-0.102544
-0.0966174
-0.0909377
-0.085554
-0.0805071
-0.0758297
-0.071545
-0.0676658
-0.064194
-0.0611206
-0.0584286
-0.0560902
-0.054065
-0.0523103
-0.247735
-0.246323
-0.244831
-0.243264
-0.241623
-0.239907
-0.238065
-0.236275
-0.23443
-0.23254
-0.230617
-0.228666
-0.226694
-0.224704
-0.222697
-0.220676
-0.218639
-0.216583
-0.214501
-0.212383
-0.210218
-0.207989
-0.205678
-0.203267
-0.200731
-0.198047
-0.195188
-0.192127
-0.18884
-0.185301
-0.181491
-0.177392
-0.17299
-0.168283
-0.16327
-0.157964
-0.152383
-0.146558
-0.140525
-0.134329
-0.128024
-0.121666
-0.115318
-0.109042
-0.1029
-0.0969525
-0.0912545
-0.0858556
-0.0807975
-0.0761131
-0.071826
-0.0679491
-0.0644843
-0.0614228
-0.0587466
-0.0564269
-0.0544233
-0.0526914
-0.247616
-0.246228
-0.24476
-0.243215
-0.241596
-0.239911
-0.238169
-0.236294
-0.234452
-0.232581
-0.230675
-0.228741
-0.226787
-0.224814
-0.222826
-0.220823
-0.218805
-0.216769
-0.214708
-0.212612
-0.210469
-0.208264
-0.205978
-0.203591
-0.20108
-0.19842
-0.195584
-0.192545
-0.189279
-0.185759
-0.181964
-0.177878
-0.173487
-0.168786
-0.163777
-0.158471
-0.152889
-0.147058
-0.141017
-0.134811
-0.128494
-0.122123
-0.115761
-0.109471
-0.103315
-0.0973539
-0.0916437
-0.0862341
-0.0811673
-0.0764768
-0.0721863
-0.0683091
-0.0648471
-0.0617915
-0.0591238
-0.0568146
-0.0548234
-0.0531045
-0.246055
-0.244616
-0.243099
-0.241507
-0.239841
-0.238086
-0.236219
-0.234416
-0.232578
-0.230695
-0.228781
-0.226846
-0.224892
-0.222923
-0.220938
-0.218938
-0.21692
-0.214878
-0.212802
-0.21068
-0.208495
-0.206231
-0.203865
-0.201376
-0.198738
-0.195923
-0.192906
-0.18966
-0.186159
-0.182382
-0.178311
-0.173935
-0.169246
-0.164248
-0.15895
-0.153374
-0.147547
-0.141508
-0.135303
-0.128984
-0.122611
-0.116245
-0.109949
-0.103787
-0.0978194
-0.0921023
-0.0866859
-0.0816128
-0.0769167
-0.0726217
-0.0687412
-0.0652775
-0.062222
-0.0595557
-0.0572489
-0.0552613
-0.0535463
-0.245787
-0.244384
-0.242901
-0.241342
-0.239709
-0.238005
-0.2362
-0.234335
-0.232517
-0.230664
-0.228774
-0.226862
-0.224929
-0.222979
-0.221013
-0.21903
-0.21703
-0.215005
-0.212947
-0.210842
-0.208677
-0.206431
-0.204085
-0.201616
-0.198998
-0.196204
-0.193207
-0.189981
-0.1865
-0.182743
-0.178692
-0.174334
-0.169663
-0.164681
-0.1594
-0.153838
-0.148025
-0.141998
-0.135803
-0.129494
-0.123127
-0.116766
-0.110474
-0.104314
-0.0983459
-0.0926269
-0.0872073
-0.0821296
-0.0774282
-0.0731272
-0.0692405
-0.0657707
-0.0627094
-0.0600376
-0.0577257
-0.0557333
-0.0540135
-0.245408
-0.244049
-0.242608
-0.241089
-0.239494
-0.237826
-0.23606
-0.234152
-0.232387
-0.230569
-0.22871
-0.226824
-0.224915
-0.222986
-0.221039
-0.219074
-0.217091
-0.215083
-0.213041
-0.210953
-0.208804
-0.206575
-0.204247
-0.201796
-0.199196
-0.196422
-0.193445
-0.19024
-0.186781
-0.183047
-0.179018
-0.174683
-0.170036
-0.165078
-0.15982
-0.154282
-0.148491
-0.142486
-0.136312
-0.130021
-0.123671
-0.117324
-0.111044
-0.104892
-0.09893
-0.0932138
-0.0877939
-0.0827133
-0.0780065
-0.073698
-0.0698021
-0.0663218
-0.0632491
-0.0605653
-0.0582408
-0.0562359
-0.0545034
-0.0529885
-0.244902
-0.243594
-0.242203
-0.240732
-0.239182
-0.23756
-0.235864
-0.23411
-0.23215
-0.230382
-0.22857
-0.22672
-0.224839
-0.222935
-0.221009
-0.219062
-0.217096
-0.215104
-0.213078
-0.211005
-0.208872
-0.206659
-0.204347
-0.201913
-0.199332
-0.196577
-0.193621
-0.190438
-0.187002
-0.183293
-0.179291
-0.174984
-0.170366
-0.165439
-0.160212
-0.154705
-0.148946
-0.142972
-0.136828
-0.130565
-0.124241
-0.117917
-0.111655
-0.105519
-0.099568
-0.0938586
-0.0884412
-0.0833589
-0.0786465
-0.0743289
-0.0704208
-0.0669258
-0.0638364
-0.0611344
-0.0587907
-0.0567659
-0.0550132
-0.053478
-0.243006
-0.241673
-0.240257
-0.238761
-0.23719
-0.235541
-0.233815
-0.23202
-0.230114
-0.228339
-0.226537
-0.224692
-0.222817
-0.220915
-0.218987
-0.217039
-0.215064
-0.213053
-0.210995
-0.208877
-0.206679
-0.204383
-0.201966
-0.199403
-0.196667
-0.193733
-0.190573
-0.187164
-0.183482
-0.179511
-0.175237
-0.170654
-0.165764
-0.160576
-0.155109
-0.14939
-0.143456
-0.13735
-0.131124
-0.124834
-0.118541
-0.112305
-0.10619
-0.100255
-0.0945566
-0.0891441
-0.0840613
-0.079343
-0.0750147
-0.0710916
-0.0675779
-0.0644669
-0.061741
-0.0593717
-0.0573204
-0.0555408
-0.0539787
-0.242272
-0.241007
-0.239655
-0.238219
-0.236706
-0.235113
-0.233443
-0.231687
-0.229839
-0.228027
-0.226265
-0.224464
-0.222624
-0.22075
-0.218843
-0.216914
-0.214957
-0.212962
-0.21092
-0.208816
-0.206634
-0.204354
-0.201953
-0.199408
-0.196693
-0.193781
-0.190647
-0.187266
-0.183616
-0.179679
-0.175444
-0.170902
-0.166055
-0.160913
-0.155494
-0.149823
-0.143937
-0.137878
-0.131697
-0.125449
-0.119193
-0.112991
-0.106903
-0.100988
-0.0953034
-0.089898
-0.0848154
-0.0800909
-0.0757504
-0.0718097
-0.0682737
-0.0651365
-0.0623814
-0.0599807
-0.057897
-0.0560844
-0.0544897
-0.241382
-0.240194
-0.238915
-0.237549
-0.2361
-0.23457
-0.232965
-0.231282
-0.229527
-0.227592
-0.225886
-0.22414
-0.222348
-0.220508
-0.218625
-0.216717
-0.21478
-0.212802
-0.210776
-0.208688
-0.206522
-0.204258
-0.201875
-0.199349
-0.196655
-0.193768
-0.190661
-0.187311
-0.183696
-0.179799
-0.175606
-0.171111
-0.166314
-0.161225
-0.15586
-0.150245
-0.144415
-0.138411
-0.132283
-0.126084
-0.119872
-0.113708
-0.107652
-0.101762
-0.0960937
-0.0906972
-0.0856157
-0.0808847
-0.0765306
-0.0725698
-0.0690082
-0.0658409
-0.0630519
-0.0606149
-0.0584933
-0.0566424
-0.0550098
-0.239226
-0.238029
-0.23674
-0.235365
-0.233906
-0.232368
-0.230753
-0.229072
-0.227353
-0.225389
-0.223703
-0.221977
-0.220182
-0.218329
-0.216445
-0.214529
-0.212571
-0.210562
-0.208491
-0.206341
-0.204094
-0.20173
-0.199225
-0.196554
-0.193693
-0.190616
-0.1873
-0.183724
-0.179869
-0.175724
-0.171281
-0.16654
-0.16151
-0.156206
-0.150654
-0.144887
-0.138945
-0.132875
-0.126731
-0.120569
-0.114449
-0.108429
-0.102567
-0.0969189
-0.0915332
-0.0864537
-0.0817162
-0.0773476
-0.0733649
-0.0697752
-0.0665743
-0.0637477
-0.06127
-0.0591061
-0.0572123
-0.0555376
-0.238105
-0.236997
-0.235793
-0.234497
-0.233114
-0.231648
-0.230103
-0.228485
-0.226789
-0.225026
-0.223198
-0.221508
-0.219766
-0.217949
-0.216095
-0.214203
-0.212266
-0.210277
-0.208225
-0.206094
-0.203866
-0.201522
-0.199039
-0.196393
-0.19356
-0.190516
-0.187237
-0.183703
-0.179895
-0.175801
-0.171414
-0.166734
-0.161768
-0.156532
-0.151048
-0.14535
-0.139475
-0.13347
-0.127387
-0.12128
-0.115208
-0.109228
-0.103398
-0.0977719
-0.0923988
-0.0873224
-0.0825786
-0.0781948
-0.0741891
-0.0705692
-0.0673322
-0.0644648
-0.0619431
-0.0597332
-0.0577928
-0.0560722
-0.23686
-0.235848
-0.234735
-0.233524
-0.232221
-0.230831
-0.229358
-0.227806
-0.22618
-0.22445
-0.222552
-0.22093
-0.219258
-0.217491
-0.215675
-0.213814
-0.211902
-0.209936
-0.207905
-0.205795
-0.203589
-0.201267
-0.198809
-0.196191
-0.19339
-0.190381
-0.187143
-0.183655
-0.179899
-0.175862
-0.171538
-0.166925
-0.16203
-0.156867
-0.151458
-0.145835
-0.140033
-0.134099
-0.128081
-0.122034
-0.116013
-0.110077
-0.10428
-0.098677
-0.0933167
-0.0882425
-0.0834909
-0.0790897
-0.0750578
-0.0714041
-0.0681269
-0.0652142
-0.0626437
-0.060383
-0.0583914
-0.0566206
-0.235442
-0.23454
-0.233531
-0.232419
-0.23121
-0.229909
-0.228521
-0.227052
-0.225511
-0.223903
-0.222245
-0.220329
-0.218683
-0.216967
-0.215193
-0.213367
-0.211483
-0.209542
-0.207535
-0.205449
-0.203266
-0.20097
-0.19854
-0.195954
-0.193189
-0.190221
-0.18703
-0.183594
-0.179896
-0.175924
-0.17167
-0.167133
-0.162317
-0.157236
-0.15191
-0.14637
-0.140649
-0.134792
-0.128845
-0.122862
-0.116896
-0.111005
-0.105243
-0.0996631
-0.0943143
-0.0892402
-0.0844775
-0.0800548
-0.0759919
-0.0722989
-0.0689757
-0.0660116
-0.063386
-0.0610684
-0.0590196
-0.0571932
-0.232799
-0.231905
-0.230903
-0.229799
-0.228599
-0.227307
-0.225931
-0.224478
-0.222948
-0.221314
-0.219592
-0.217872
-0.216193
-0.214478
-0.212699
-0.210855
-0.208947
-0.206971
-0.204913
-0.202759
-0.200491
-0.19809
-0.195535
-0.192805
-0.189876
-0.186727
-0.183339
-0.179696
-0.175783
-0.171593
-0.167125
-0.162384
-0.15738
-0.152135
-0.146675
-0.141036
-0.135257
-0.129385
-0.123472
-0.117569
-0.111733
-0.106017
-0.100473
-0.0951502
-0.090091
-0.0853324
-0.0809034
-0.0768245
-0.0731066
-0.0697507
-0.0667476
-0.0640779
-0.0617128
-0.0596147
-0.0577388
)
;

boundaryField
{
    inlet
    {
        type            zeroGradient;
    }
    outlet
    {
        type            fixedValue;
        value           nonuniform 0();
    }
    cylinder
    {
        type            zeroGradient;
    }
    top
    {
        type            symmetryPlane;
    }
    bottom
    {
        type            symmetryPlane;
    }
    defaultFaces
    {
        type            empty;
    }
    procBoundary6to2
    {
        type            processor;
        value           nonuniform List<scalar> 
57
(
-0.21722
-0.216937
-0.216528
-0.215996
-0.215347
-0.214586
-0.213719
-0.21275
-0.211684
-0.210528
-0.209291
-0.207981
-0.206609
-0.205168
-0.203647
-0.202045
-0.200358
-0.198577
-0.196694
-0.194697
-0.192573
-0.190311
-0.187894
-0.185307
-0.182536
-0.179566
-0.176384
-0.17298
-0.169348
-0.165482
-0.161386
-0.157064
-0.152529
-0.147797
-0.142892
-0.13784
-0.132676
-0.132676
-0.126894
-0.121768
-0.116646
-0.111567
-0.106572
-0.101699
-0.0969858
-0.0924645
-0.0881634
-0.0841054
-0.0803068
-0.0767774
-0.0735193
-0.0705273
-0.0677888
-0.0652839
-0.0629863
-0.0608643
-0.058882
)
;
    }
    procBoundary6to3
    {
        type            processor;
        value           uniform -0.0565718;
    }
    procBoundary6to5
    {
        type            processor;
        value           nonuniform List<scalar> 
40
(
-0.231656
-0.228485
-0.224933
-0.221222
-0.250439
-0.250395
-0.2504
-0.249326
-0.249326
-0.249372
-0.249449
-0.249551
-0.249671
-0.249805
-0.249943
-0.250079
-0.250204
-0.250309
-0.249096
-0.249096
-0.249138
-0.249132
-0.249065
-0.248922
-0.247413
-0.247413
-0.247108
-0.246684
-0.246125
-0.244253
-0.244253
-0.243448
-0.242478
-0.240328
-0.240328
-0.239113
-0.237767
-0.236234
-0.233582
-0.233582
)
;
    }
    procBoundary6to7
    {
        type            processor;
        value           nonuniform List<scalar> 
36
(
-0.0548726
-0.0560345
-0.0553139
-0.0557278
-0.0561464
-0.0489699
-0.0488383
-0.0487324
-0.0486568
-0.0486153
-0.0486112
-0.0486449
-0.0487151
-0.0488349
-0.0490113
-0.0492113
-0.0494531
-0.0497346
-0.0500513
-0.0503998
-0.050777
-0.0511798
-0.0516051
-0.05205
-0.0525118
-0.0525118
-0.051632
-0.0521011
-0.0525755
-0.0530547
-0.0535383
-0.0540257
-0.0545165
-0.0550172
-0.0555372
-0.0560345
)
;
    }
    procBoundary6to9
    {
        type            processor;
        value           uniform -0.250517;
    }
    procBoundary6to10
    {
        type            processor;
        value           nonuniform List<scalar> 
61
(
-0.249619
-0.248533
-0.247369
-0.244588
-0.246125
-0.244588
-0.243155
-0.241649
-0.240055
-0.238373
-0.236596
-0.234738
-0.232788
-0.230747
-0.228612
-0.226381
-0.224053
-0.221625
-0.219097
-0.216465
-0.213731
-0.210891
-0.207946
-0.204896
-0.201739
-0.198476
-0.195106
-0.19163
-0.188048
-0.184362
-0.180575
-0.176686
-0.172695
-0.168607
-0.164427
-0.160161
-0.155809
-0.151378
-0.146881
-0.142326
-0.137717
-0.133071
-0.1284
-0.123719
-0.119039
-0.114365
-0.109727
-0.105132
-0.100587
-0.0961028
-0.0916814
-0.0873245
-0.0830327
-0.0788213
-0.0747032
-0.0706457
-0.0667688
-0.0629728
-0.0592889
-0.0557476
-0.0523555
)
;
    }
}


// ************************************************************************* //
