/*--------------------------------*- C++ -*----------------------------------*\
  =========                 |
  \\      /  F ield         | OpenFOAM: The Open Source CFD Toolbox
   \\    /   O peration     | Website:  https://openfoam.org
    \\  /    A nd           | Version:  7
     \\/     M anipulation  |
\*---------------------------------------------------------------------------*/
FoamFile
{
    version     2.0;
    format      ascii;
    class       volVectorField;
    location    "65";
    object      U;
}
// * * * * * * * * * * * * * * * * * * * * * * * * * * * * * * * * * * * * * //

dimensions      [0 1 -1 0 0 0 0];

internalField   nonuniform List<vector> 
1987
(
(-0.196495 0.00313693 -3.58272e-21)
(-0.19893 0.00299009 2.89697e-21)
(-0.201143 0.00277977 -2.75559e-22)
(-0.20314 0.00250148 -2.00289e-21)
(1.15537 -0.0436243 0)
(1.14869 -0.0387862 0)
(1.14217 -0.0341247 0)
(1.13584 -0.0296339 0)
(1.12971 -0.0253091 0)
(1.12382 -0.0211417 0)
(1.11818 -0.0171259 0)
(1.1128 -0.0132476 0)
(1.10771 -0.00950707 0)
(1.1029 -0.00587066 0)
(1.09838 -0.00244681 0)
(1.09413 0.000967403 0)
(1.09027 0.0043372 0)
(1.08679 0.00766577 0)
(1.08362 0.0109661 0)
(1.08075 0.0142482 0)
(1.07818 0.0175261 0)
(1.07589 0.0208143 0)
(1.07388 0.0241253 0)
(1.07211 0.0274688 0)
(1.07057 0.0308513 0)
(1.06922 0.0342747 0)
(1.06802 0.037736 0)
(1.06695 0.0412262 0)
(1.06596 0.0447302 0)
(1.06501 0.0482265 0)
(1.06405 0.0516872 0)
(1.06305 0.0550783 0)
(1.06196 0.0583602 0)
(1.06075 0.0614888 0)
(1.0594 0.0644166 0)
(1.05787 0.0670945 0)
(1.05615 0.0694733 0)
(1.05425 0.0715059 0)
(1.05215 0.0731494 0)
(1.04988 0.0743674 0)
(1.04746 0.0751313 0)
(1.04492 0.0754228 0)
(1.04231 0.0752345 0)
(1.03966 0.0745716 0)
(1.03702 0.073452 0)
(1.03445 0.0719066 0)
(1.032 0.0699788 0)
(1.02972 0.0677234 0)
(1.02766 0.0652059 0)
(1.02586 0.0625005 0)
(1.02435 0.059688 0)
(1.02317 0.0568537 0)
(1.02233 0.0540844 0)
(1.02184 0.0514659 0)
(1.0217 0.0490794 0)
(1.02189 0.0469983 0)
(1.02239 0.0452854 0)
(1.02316 0.0439887 0)
(1.02414 0.0431394 0)
(1.02529 0.0427493 0)
(1.19224 -0.0471361 0)
(1.18661 -0.042212 0)
(1.18102 -0.037447 0)
(1.1755 -0.032837 0)
(1.17008 -0.0283785 0)
(1.16478 -0.0240644 0)
(1.15962 -0.0198895 0)
(1.15464 -0.015841 0)
(1.14983 -0.0119158 0)
(1.14522 -0.00808448 0)
(1.1408 -0.00435006 0)
(1.13665 -0.000718382 0)
(1.13279 0.00271767 0)
(1.12917 0.00612789 0)
(1.12579 0.00953757 0)
(1.12265 0.0129393 0)
(1.11975 0.0163381 0)
(1.11707 0.0197439 0)
(1.1146 0.0231654 0)
(1.11233 0.0266092 0)
(1.11022 0.0300792 0)
(1.10826 0.0335756 0)
(1.10642 0.0370938 0)
(1.10466 0.0406238 0)
(1.10294 0.0441499 0)
(1.10123 0.0476506 0)
(1.0995 0.0510985 0)
(1.09772 0.0544609 0)
(1.09583 0.0576997 0)
(1.09383 0.0607734 0)
(1.09169 0.0636371 0)
(1.08939 0.066245 0)
(1.08692 0.0685516 0)
(1.08429 0.0705135 0)
(1.0815 0.0720917 0)
(1.07857 0.0732531 0)
(1.07552 0.0739727 0)
(1.07239 0.0742348 0)
(1.06923 0.0740345 0)
(1.06606 0.0733784 0)
(1.06295 0.0722854 0)
(1.05995 0.0707863 0)
(1.0571 0.0689239 0)
(1.05445 0.0667516 0)
(1.05204 0.0643328 0)
(1.04992 0.061739 0)
(1.04811 0.0590479 0)
(1.04663 0.0563412 0)
(1.04551 0.0537019 0)
(1.04473 0.0512115 0)
(1.04429 0.0489474 0)
(1.04417 0.0469787 0)
(1.04434 0.0453642 0)
(1.04475 0.0441485 0)
(1.04535 0.0433596 0)
(1.04607 0.0430069 0)
(1.21968 -0.0499372 0)
(1.21526 -0.0450032 0)
(1.21077 -0.0402097 0)
(1.20626 -0.0355546 0)
(1.20175 -0.0310359 0)
(1.19726 -0.0266488 0)
(1.19282 -0.0223897 0)
(1.18845 -0.0182498 0)
(1.18418 -0.014225 0)
(1.18001 -0.0103036 0)
(1.17597 -0.00648763 0)
(1.1721 -0.00281919 0)
(1.16842 0.000812534 0)
(1.1649 0.004403 0)
(1.16155 0.00796279 0)
(1.15836 0.0114986 0)
(1.15534 0.0150206 0)
(1.15248 0.0185396 0)
(1.14976 0.0220639 0)
(1.14718 0.0255992 0)
(1.14471 0.0291482 0)
(1.14233 0.0327099 0)
(1.14001 0.0362788 0)
(1.13774 0.0398443 0)
(1.13547 0.0433905 0)
(1.13318 0.046896 0)
(1.13085 0.0503341 0)
(1.12843 0.0536733 0)
(1.12591 0.0568774 0)
(1.12326 0.0599069 0)
(1.12047 0.0627198 0)
(1.11753 0.0652731 0)
(1.11444 0.0675245 0)
(1.1112 0.0694342 0)
(1.10782 0.0709663 0)
(1.10433 0.072091 0)
(1.10075 0.0727859 0)
(1.09712 0.0730376 0)
(1.09348 0.072843 0)
(1.08988 0.0722097 0)
(1.08636 0.071157 0)
(1.08297 0.0697154 0)
(1.07976 0.0679266 0)
(1.07678 0.0658426 0)
(1.07407 0.0635245 0)
(1.07165 0.0610412 0)
(1.06956 0.0584673 0)
(1.06781 0.0558811 0)
(1.06641 0.0533622 0)
(1.06536 0.0509884 0)
(1.06464 0.0488332 0)
(1.06423 0.0469623 0)
(1.06408 0.045431 0)
(1.06416 0.044281 0)
(1.0644 0.0435379 0)
(1.06474 0.043209 0)
(1.23838 -0.0522057 0)
(1.23518 -0.0473193 0)
(1.23185 -0.0425543 0)
(1.22842 -0.0379102 0)
(1.22491 -0.0333862 0)
(1.22134 -0.0289794 0)
(1.21775 -0.0246872 0)
(1.21415 -0.020504 0)
(1.21056 -0.0164263 0)
(1.207 -0.0124504 0)
(1.2035 -0.00857481 0)
(1.20007 -0.00480765 0)
(1.19675 -0.00107173 0)
(1.19352 0.00261979 0)
(1.19038 0.00627286 0)
(1.18733 0.00989783 0)
(1.18439 0.013505 0)
(1.18153 0.0171031 0)
(1.17875 0.020699 0)
(1.17605 0.0242967 0)
(1.17339 0.0278978 0)
(1.17078 0.0315 0)
(1.16818 0.035097 0)
(1.16557 0.0386778 0)
(1.16293 0.0422265 0)
(1.16024 0.0457222 0)
(1.15746 0.049139 0)
(1.15459 0.0524468 0)
(1.15159 0.0556114 0)
(1.14846 0.0585954 0)
(1.14518 0.0613596 0)
(1.14175 0.0638641 0)
(1.13817 0.0660695 0)
(1.13446 0.0679393 0)
(1.13062 0.0694404 0)
(1.12669 0.070546 0)
(1.1227 0.0712358 0)
(1.11868 0.0714985 0)
(1.11467 0.0713321 0)
(1.11072 0.0707448 0)
(1.10687 0.0697558 0)
(1.10318 0.0683949 0)
(1.09969 0.0667022 0)
(1.09644 0.0647277 0)
(1.09347 0.0625301 0)
(1.09081 0.060175 0)
(1.08848 0.0577337 0)
(1.0865 0.0552809 0)
(1.08486 0.0528922 0)
(1.08357 0.0506417 0)
(1.0826 0.0485991 0)
(1.08192 0.0468267 0)
(1.0815 0.0453766 0)
(1.08127 0.0442879 0)
(1.08119 0.043584 0)
(1.08119 0.0432711 0)
(1.13685 0.0697347 0)
(1.13258 0.0696077 0)
(1.12838 0.0690782 0)
(1.12431 0.0681648 0)
(1.12041 0.0668963 0)
(1.11671 0.0653112 0)
(1.11327 0.0634573 0)
(1.11011 0.0613903 0)
(1.10726 0.0591727 0)
(1.10475 0.0568721 0)
(1.10258 0.0545594 0)
(1.10076 0.0523063 0)
(1.09927 0.0501829 0)
(1.09808 0.048255 0)
(1.09718 0.0465815 0)
(1.09651 0.0452114 0)
(1.09603 0.0441811 0)
(1.09567 0.0435126 0)
(1.09536 0.043211 0)
(-0.196651 0.00179836 3.58129e-21)
(-0.199091 0.00178764 -2.89569e-21)
(-0.201308 0.00170559 2.75512e-22)
(-0.203309 0.00155078 2.00146e-21)
(-0.205097 0.00131741 -3.399e-21)
(-0.206671 0.00100154 2.78803e-21)
(-0.208038 0.000592999 -1.71592e-22)
(-0.209198 0.000104093 -8.90057e-22)
(-0.210145 -0.00046852 1.94847e-21)
(-0.210882 -0.00111177 -2.79464e-21)
(-0.211417 -0.00182305 6.86464e-22)
(-0.211749 -0.00260087 5.12762e-22)
(-0.211874 -0.00343488 1.27643e-21)
(-0.211791 -0.0043123 8.04401e-22)
(-0.211494 -0.00521722 -3.85142e-21)
(-0.210981 -0.00613089 -6.84735e-22)
(-0.210246 -0.00703173 2.14236e-21)
(-0.209284 -0.00789561 -9.65473e-22)
(-0.20809 -0.00869631 1.06063e-21)
(-0.206658 -0.00940528 7.37811e-22)
(-0.204979 -0.00999312 -2.49332e-22)
(-0.203045 -0.01043 -2.55892e-21)
(-0.200849 -0.0106865 -1.79044e-22)
(-0.198382 -0.0107339 2.01192e-21)
(-0.195634 -0.0105455 1.27259e-21)
(-0.192596 -0.0100997 5.49509e-22)
(-0.18926 -0.00937562 -1.52276e-21)
(-0.185616 -0.00835955 5.56746e-22)
(-0.181654 -0.00704317 6.98732e-22)
(-0.177366 -0.00542711 -1.86199e-21)
(-0.17274 -0.00352796 -9.87952e-22)
(-0.167769 -0.00136808 2.21706e-21)
(-0.162454 0.00106438 -5.19125e-22)
(-0.156787 0.00369559 -1.80395e-21)
(-0.150755 0.00648824 8.56551e-22)
(-0.14436 0.00938136 -3.81917e-22)
(-0.137598 0.0123068 9.13201e-22)
(-0.130469 0.0151846 -3.69125e-22)
(-0.122975 0.017933 6.8696e-22)
(-0.115117 0.0204665 -6.71939e-22)
(-0.106896 0.0226912 1.37577e-22)
(-0.0983136 0.0245231 -8.62811e-23)
(-0.0893724 0.0258768 4.53704e-22)
(-0.0800734 0.0266776 -1.7585e-22)
(-0.0704136 0.0268585 2.70527e-22)
(-0.0604009 0.0263802 1.49882e-22)
(-0.0500307 0.025204 -4.62266e-22)
(-0.0393125 0.0233258 4.87179e-22)
(-0.0282557 0.020761 -1.19325e-22)
(-0.0168622 0.0175441 9.54221e-24)
(-0.0051598 0.0137391 -1.41005e-22)
(0.00683137 0.00944406 4.57191e-23)
(0.0190799 0.00476878 -2.02631e-22)
(0.03155 -0.000174174 -8.88578e-23)
(0.0442139 -0.00521296 2.5032e-22)
(0.0570244 -0.0102281 1.98277e-22)
(0.0699373 -0.0150333 -1.15428e-22)
(0.0829204 -0.0194748 6.34269e-23)
(0.0959389 -0.0233981 -1.57223e-22)
(0.108972 -0.0266585 2.37905e-22)
(-0.193263 0.000453019 7.0178e-21)
(-0.195657 0.000569592 -2.74123e-21)
(-0.197829 0.000620816 -3.43707e-21)
(-0.199787 0.000591416 -2.08653e-21)
(-0.201531 0.000476105 9.87665e-21)
(-0.203059 0.000272894 -3.12888e-21)
(-0.20438 -6.67192e-06 -7.97299e-22)
(-0.205497 -0.000378336 1.06124e-22)
(-0.206399 -0.000836819 -2.34243e-21)
(-0.207089 -0.00137273 2.18678e-22)
(-0.207574 -0.00198163 9.26638e-22)
(-0.207853 -0.00265824 4.88693e-21)
(-0.207921 -0.00339233 -4.29425e-21)
(-0.207777 -0.0041708 -3.0722e-21)
(-0.207416 -0.00497757 4.63619e-21)
(-0.206833 -0.00579369 -2.48778e-21)
(-0.206023 -0.00659735 2.09496e-21)
(-0.20498 -0.00736417 -4.78803e-21)
(-0.203699 -0.00806774 4.05482e-21)
(-0.202172 -0.00867914 -1.48799e-21)
(-0.200391 -0.00916876 -3.89027e-22)
(-0.198348 -0.00950665 5.56153e-22)
(-0.196034 -0.00966351 -2.53547e-21)
(-0.193442 -0.0096102 -1.56203e-22)
(-0.19056 -0.00932019 3.84693e-21)
(-0.187382 -0.00877259 -3.32752e-21)
(-0.1839 -0.00794607 3.42908e-22)
(-0.180106 -0.00682663 1.82905e-21)
(-0.175992 -0.00540701 3.43354e-22)
(-0.171547 -0.0036963 -2.96213e-21)
(-0.166765 -0.00171476 3.80165e-21)
(-0.161657 0.000571272 -2.16756e-21)
(-0.156213 0.00311505 4.5926e-22)
(-0.150421 0.0058558 -7.10042e-22)
(-0.144286 0.00875127 2.47364e-21)
(-0.137811 0.0117437 -4.12596e-21)
(-0.130997 0.0147669 8.127e-22)
(-0.123849 0.0177384 8.29616e-22)
(-0.116374 0.0205775 -7.59692e-22)
(-0.108578 0.0231977 1.73478e-22)
(-0.100465 0.0255069 -3.71964e-22)
(-0.0920386 0.0274195 -2.16933e-22)
(-0.083304 0.0288512 1.71304e-21)
(-0.0742618 0.0297276 1.24743e-21)
(-0.0649087 0.0299827 3.87617e-23)
(-0.0552481 0.0295749 -2.36984e-21)
(-0.0452697 0.0284685 1.94164e-21)
(-0.0349766 0.0266544 -2.4291e-21)
(-0.0243671 0.024153 5.4602e-22)
(-0.0134309 0.0209923 1.52279e-23)
(-0.00218519 0.0172368 5.52936e-22)
(0.00936492 0.012986 -7.43244e-22)
(0.021208 0.00833875 7.95108e-22)
(0.0333174 0.00341416 -7.34112e-22)
(0.0456861 -0.00163873 4.37583e-22)
(0.0582831 -0.00661867 5.51956e-24)
(0.0710698 -0.0114312 -2.69475e-22)
(0.0840281 -0.0158916 3.53316e-22)
(0.0971293 -0.0198409 -2.04688e-23)
(0.110356 -0.0231315 -1.10259e-22)
(-0.186327 -0.000843493 3.41872e-21)
(-0.188634 -0.000591759 6.06029e-21)
(-0.190719 -0.00041208 -6.91063e-21)
(-0.192585 -0.000318207 1.33826e-20)
(-0.194239 -0.000313396 -7.88164e-21)
(-0.195686 -0.000398351 7.83005e-21)
(-0.196924 -0.000560435 -8.79309e-21)
(-0.197947 -0.000818924 3.95182e-21)
(-0.198759 -0.00116844 -5.49193e-21)
(-0.19936 -0.00159819 1.13442e-20)
(-0.199753 -0.00210344 -8.63098e-22)
(-0.199936 -0.00267763 -1.3088e-20)
(-0.199906 -0.00331042 3.46278e-21)
(-0.19966 -0.00398852 -6.66254e-21)
(-0.199192 -0.00469569 6.53763e-22)
(-0.198497 -0.00541284 2.25225e-21)
(-0.19757 -0.00611797 1.14212e-20)
(-0.196404 -0.00678647 -8.55753e-21)
(-0.194993 -0.00739179 1.80815e-21)
(-0.19333 -0.00790466 7.20748e-22)
(-0.191405 -0.00829526 3.11104e-22)
(-0.189209 -0.00853354 9.2115e-22)
(-0.186736 -0.0085906 -7.90813e-21)
(-0.183976 -0.00843687 1.19861e-20)
(-0.180919 -0.00804594 -4.06198e-21)
(-0.177559 -0.00739781 -2.4292e-21)
(-0.173889 -0.00647062 -3.28426e-21)
(-0.169904 -0.00525082 1.7494e-21)
(-0.165593 -0.00374001 -2.68628e-21)
(-0.160946 -0.00195088 1.08482e-20)
(-0.155985 0.00015203 -9.46461e-21)
(-0.150702 0.00256867 2.87811e-21)
(-0.145079 0.00519899 -2.6673e-21)
(-0.139128 0.00803662 1.57189e-21)
(-0.132853 0.0110263 5.56708e-21)
(-0.126262 0.0141098 1.99974e-21)
(-0.119361 0.0172215 -3.0784e-21)
(-0.11216 0.0202759 -1.38653e-21)
(-0.104673 0.0231939 1.94931e-21)
(-0.0969071 0.025889 -2.17531e-21)
(-0.088872 0.0282701 -1.76458e-21)
(-0.0805748 0.030251 8.29923e-22)
(-0.0720219 0.0317485 4.63876e-21)
(-0.0632147 0.0326891 -2.50357e-21)
(-0.0541491 0.0330076 2.67756e-21)
(-0.0448253 0.0326618 -3.27146e-21)
(-0.0352266 0.0316185 1.25215e-21)
(-0.0253513 0.0298636 1.87826e-21)
(-0.0151866 0.0274236 -3.92325e-21)
(-0.00470965 0.0243177 -5.20686e-22)
(0.00607168 0.0206263 -5.88492e-22)
(0.0171687 0.0164254 2.85358e-21)
(0.0285888 0.0118215 -1.65257e-21)
(0.0403231 0.00693735 2.26323e-22)
(0.052359 0.00190094 1.98974e-21)
(0.0646984 -0.0030531 -1.81771e-21)
(0.077329 -0.00783698 -1.3124e-21)
(0.0902188 -0.0122915 1.89014e-21)
(0.103353 -0.0162417 6.2832e-22)
(0.116718 -0.0195377 6.95086e-22)
(-0.178036 -0.00166834 -2.56878e-21)
(-0.179987 -0.00136481 -3.63867e-21)
(-0.181723 -0.00114897 1.88056e-20)
(-0.183248 -0.00102286 -2.16237e-21)
(-0.184568 -0.000987376 2.3199e-21)
(-0.185678 -0.0010503 -2.89433e-20)
(-0.186575 -0.00120194 3.68781e-20)
(-0.18726 -0.00144264 -1.65158e-21)
(-0.187733 -0.00176616 -5.81171e-21)
(-0.187996 -0.00216735 -3.49707e-21)
(-0.188045 -0.00263864 1.97941e-21)
(-0.187879 -0.0031694 4.9809e-21)
(-0.187492 -0.00374619 2.97961e-21)
(-0.18688 -0.00435271 -1.41107e-20)
(-0.186035 -0.00496983 1.23073e-20)
(-0.184953 -0.00557538 -1.60558e-20)
(-0.183626 -0.00614458 8.50075e-21)
(-0.182047 -0.00665077 5.58655e-21)
(-0.180208 -0.0070644 -2.10312e-21)
(-0.178101 -0.00735544 -1.99278e-20)
(-0.175715 -0.00749379 1.01455e-20)
(-0.173043 -0.0074513 -1.13019e-21)
(-0.170077 -0.00719777 1.10495e-20)
(-0.166806 -0.00670648 -3.07198e-21)
(-0.163226 -0.00595889 2.18234e-21)
(-0.159332 -0.00493302 4.00306e-21)
(-0.155114 -0.00362446 -6.65878e-21)
(-0.150565 -0.0020382 -2.06839e-21)
(-0.145698 -0.000135427 1.57891e-21)
(-0.140525 0.00210473 -2.29821e-21)
(-0.135018 0.00460637 -5.90863e-21)
(-0.129184 0.00732714 7.52637e-21)
(-0.12304 0.0102537 -7.89867e-21)
(-0.116591 0.0133288 1.11559e-20)
(-0.109853 0.0164936 -6.12035e-21)
(-0.102832 0.0196833 -2.33946e-23)
(-0.0955462 0.0228089 -8.367e-22)
(-0.0880145 0.0257937 1.46361e-21)
(-0.0802495 0.0285509 4.05825e-21)
(-0.0722637 0.0309908 -8.941e-21)
(-0.0640677 0.0330268 5.62511e-21)
(-0.0556703 0.0345769 -1.50951e-21)
(-0.0470738 0.0355694 2.2974e-21)
(-0.0382738 0.0359394 2.43636e-21)
(-0.0292675 0.0356458 -4.14938e-21)
(-0.0200325 0.0346567 3.34498e-21)
(-0.0105624 0.0329564 -1.02641e-21)
(-0.000834438 0.0305727 -2.68017e-21)
(0.00918384 0.0275282 2.42506e-21)
(0.0194983 0.0239028 -3.63692e-21)
(0.0301367 0.0197579 2.82827e-22)
(0.0411184 0.0152106 1.329e-21)
(0.0524519 0.0103828 -8.79082e-23)
(0.0641368 0.00541537 2.35927e-21)
(0.076187 0.000454249 -1.1207e-21)
(0.0886126 -0.00427503 -6.61098e-22)
(0.10139 -0.00868815 1.23804e-21)
(0.114502 -0.0126154 -1.67582e-21)
(0.127944 -0.0158936 1.86304e-21)
(-0.163878 -0.00268487 -7.26789e-21)
(-0.165655 -0.00225346 -1.65664e-20)
(-0.167224 -0.00191491 -3.26444e-21)
(-0.168585 -0.00167056 -7.55216e-21)
(-0.169741 -0.00152109 3.68089e-20)
(-0.17069 -0.00146967 -1.82454e-20)
(-0.171427 -0.00151098 6.12179e-21)
(-0.171952 -0.00164277 -1.44506e-21)
(-0.172264 -0.00185995 -2.68706e-22)
(-0.172363 -0.00215681 -1.767e-20)
(-0.172246 -0.0025249 4.12729e-20)
(-0.171911 -0.00295309 -3.13824e-20)
(-0.171351 -0.00342785 -3.84868e-21)
(-0.170561 -0.00393287 2.63417e-20)
(-0.169534 -0.00444906 -1.47688e-20)
(-0.168263 -0.00495417 -1.50969e-20)
(-0.166741 -0.00542331 1.25057e-20)
(-0.164961 -0.00582976 -1.63864e-21)
(-0.162914 -0.00614373 2.74325e-21)
(-0.160591 -0.00633504 1.6625e-20)
(-0.157981 -0.00637346 5.75664e-21)
(-0.155077 -0.0062318 -1.50407e-20)
(-0.151874 -0.00587905 -6.12655e-21)
(-0.148357 -0.00528746 -1.08301e-20)
(-0.144524 -0.00444108 1.49902e-20)
(-0.14037 -0.00332946 2.58724e-21)
(-0.135884 -0.00195068 6.33079e-21)
(-0.13108 -0.000254501 5.64936e-21)
(-0.12597 0.00179091 -1.97564e-20)
(-0.120542 0.00411851 1.74388e-20)
(-0.11478 0.00670572 -1.23983e-20)
(-0.108707 0.00951109 -2.04431e-21)
(-0.102342 0.0125187 -1.69884e-21)
(-0.0956903 0.0156701 1.07427e-20)
(-0.0887759 0.0189057 -4.53999e-21)
(-0.0816083 0.0221635 -3.37969e-21)
(-0.074209 0.0253482 -4.1287e-21)
(-0.0666054 0.0283871 1.44685e-20)
(-0.0588134 0.0311933 -1.01227e-20)
(-0.0508495 0.0336785 9.02254e-21)
(-0.0427279 0.0357559 -8.79695e-21)
(-0.03446 0.0373449 1.12313e-20)
(-0.0260493 0.0383759 -1.26419e-20)
(-0.0174914 0.0387851 5.93537e-21)
(-0.00878126 0.0385324 -4.40477e-21)
(0.000108478 0.0375852 5.27731e-21)
(0.00918986 0.0359403 1.52804e-21)
(0.0184907 0.033607 2.84214e-21)
(0.0280574 0.0306264 -1.00338e-20)
(0.037908 0.0270602 3.16093e-21)
(0.048083 0.0229809 1.87406e-21)
(0.0586149 0.0185007 -1.52481e-21)
(0.0695293 0.0137413 1.35133e-21)
(0.080844 0.00884284 -1.23891e-21)
(0.0925709 0.00393294 7.97481e-22)
(0.104742 -0.000789082 4.39425e-23)
(0.117359 -0.0051059 -2.89039e-23)
(0.130394 -0.00897861 5.59931e-22)
(0.143847 -0.0122166 -3.14277e-22)
(-0.146168 -0.00360599 -8.01368e-21)
(-0.147741 -0.00304997 2.13981e-20)
(-0.149112 -0.00259087 -2.08466e-20)
(-0.150281 -0.00222963 3.8398e-21)
(-0.151246 -0.00196653 1.54793e-20)
(-0.152006 -0.00180218 -2.00333e-20)
(-0.152556 -0.00173314 3.26862e-20)
(-0.152894 -0.00175625 -4.39981e-20)
(-0.153017 -0.00186717 1.46236e-20)
(-0.152926 -0.00205963 2.53249e-20)
(-0.152617 -0.00232442 -2.08037e-20)
(-0.152086 -0.00264969 1.24435e-20)
(-0.151327 -0.00302181 -4.59376e-21)
(-0.150333 -0.00342462 8.98043e-21)
(-0.149097 -0.00383916 -1.08961e-20)
(-0.147612 -0.00424317 -1.47995e-20)
(-0.145869 -0.00461171 7.08348e-21)
(-0.143861 -0.00491791 -6.68712e-21)
(-0.141579 -0.00513202 4.91002e-21)
(-0.139014 -0.00522369 3.40004e-23)
(-0.136154 -0.0051622 -7.26591e-21)
(-0.132993 -0.00492103 1.10238e-20)
(-0.129526 -0.00446896 -1.48504e-20)
(-0.125739 -0.003781 1.48518e-20)
(-0.121624 -0.00284657 -3.03958e-21)
(-0.117177 -0.00167723 -3.72949e-21)
(-0.112414 -0.000177951 1.17755e-20)
(-0.107346 0.00166325 -4.31804e-21)
(-0.101953 0.00380266 1.56803e-21)
(-0.0962412 0.0062046 1.05409e-21)
(-0.0902061 0.00887732 7.81937e-21)
(-0.0838712 0.0117591 -1.12153e-20)
(-0.0772617 0.0148396 -4.47188e-21)
(-0.0703855 0.0180582 -4.14386e-21)
(-0.0632731 0.0213537 1.10517e-20)
(-0.0559358 0.0246709 -1.1569e-20)
(-0.0484 0.0279023 2.7866e-21)
(-0.0407014 0.0309825 1.09651e-20)
(-0.032859 0.0338244 -6.29676e-21)
(-0.0248934 0.0363412 -7.15903e-21)
(-0.016822 0.038446 2.67901e-21)
(-0.00865954 0.0400601 1.49342e-21)
(-0.000411021 0.0411156 8.83816e-21)
(0.00792801 0.041552 -3.07523e-21)
(0.0163645 0.0413288 -4.0435e-21)
(0.0249267 0.0404141 2.46995e-21)
(0.0336366 0.0388169 -2.12926e-21)
(0.0425262 0.0365303 2.37914e-21)
(0.0516508 0.0336062 5.05942e-23)
(0.0610421 0.0301015 -5.64432e-22)
(0.0707519 0.0260929 -1.70396e-22)
(0.0808261 0.0216873 -4.94924e-22)
(0.0913053 0.0170064 -3.00533e-22)
(0.102224 0.0121891 -2.07077e-21)
(0.113611 0.00737314 5.24214e-21)
(0.12548 0.00269746 -3.43668e-21)
(0.137868 -0.00159726 3.34042e-21)
(0.150775 -0.00535778 -1.82981e-21)
(0.164173 -0.00852546 5.88197e-22)
(-0.124907 -0.00441745 4.47989e-21)
(-0.126254 -0.00374098 -6.28761e-21)
(-0.127406 -0.00316455 -2.61299e-20)
(-0.128361 -0.00268877 -8.17585e-22)
(-0.129117 -0.00231355 3.42567e-20)
(-0.129669 -0.00203814 -7.16229e-21)
(-0.130014 -0.00185951 -2.19506e-22)
(-0.130146 -0.0017744 -2.18316e-20)
(-0.130062 -0.00177944 5.25527e-22)
(-0.129762 -0.00186779 2.20698e-22)
(-0.129243 -0.00202956 3.6644e-20)
(-0.1285 -0.00225183 -3.42149e-21)
(-0.127524 -0.00252104 -8.17621e-21)
(-0.126308 -0.00282118 -1.22234e-20)
(-0.124845 -0.00313361 -1.73672e-20)
(-0.123127 -0.00343617 8.90184e-21)
(-0.121144 -0.00370367 6.42451e-21)
(-0.11889 -0.00390869 -1.1328e-20)
(-0.116356 -0.00402207 2.64871e-20)
(-0.113531 -0.00401306 -1.03315e-20)
(-0.110403 -0.00385 6.24966e-21)
(-0.106966 -0.00351215 -1.29973e-20)
(-0.103217 -0.00296812 1.17708e-20)
(-0.0991384 -0.00220127 1.30326e-21)
(-0.094715 -0.00122767 3.57708e-21)
(-0.0899799 0.000102351 2.22503e-21)
(-0.0849424 0.0017489 -5.04883e-21)
(-0.0795715 0.00368536 6.25992e-21)
(-0.0738715 0.00589179 -1.19429e-20)
(-0.0678663 0.00837154 -1.12448e-20)
(-0.0615438 0.0111272 6.80571e-21)
(-0.0549314 0.0140772 5.22435e-21)
(-0.0480634 0.0172223 -6.9471e-21)
(-0.040947 0.0204989 6.04029e-23)
(-0.0336226 0.0238445 1.14277e-20)
(-0.0261003 0.0272106 -1.42564e-21)
(-0.0184107 0.0304769 -7.88013e-21)
(-0.0106002 0.0335863 8.10894e-21)
(-0.00268959 0.0364516 -2.92401e-21)
(0.00529634 0.038985 2.90022e-21)
(0.0133371 0.041103 -1.47494e-20)
(0.0214147 0.0427295 8.22231e-21)
(0.0295216 0.043796 -6.6389e-21)
(0.0376624 0.0442467 -1.55868e-21)
(0.0458461 0.0440417 3.77778e-21)
(0.0541006 0.0431518 -6.97868e-21)
(0.062456 0.0415865 9.57516e-21)
(0.0709499 0.0393427 -9.83709e-21)
(0.0796435 0.0364708 6.94521e-21)
(0.088582 0.033028 1.3158e-21)
(0.0978274 0.0290919 -1.57313e-21)
(0.107438 0.0247666 2.14863e-21)
(0.117469 0.0201724 -2.4495e-21)
(0.127967 0.0154458 -2.63356e-21)
(0.138977 0.0107301 1.76708e-22)
(0.150527 0.00617879 -2.97779e-22)
(0.162632 0.00191709 6.34791e-21)
(0.175325 -0.00179436 -3.74705e-21)
(0.188607 -0.00485642 -6.48919e-22)
(-0.100079 -0.00511304 -3.321e-20)
(-0.101189 -0.00432093 8.493e-20)
(-0.102112 -0.00363088 -4.38235e-20)
(-0.102844 -0.0030434 -1.84294e-21)
(-0.103381 -0.00255803 5.17861e-20)
(-0.103719 -0.00217329 -5.5219e-20)
(-0.10385 -0.00188614 3.50151e-20)
(-0.103767 -0.00169345 -2.33869e-20)
(-0.103468 -0.00159339 -3.06746e-21)
(-0.102951 -0.00157855 5.28112e-20)
(-0.102214 -0.0016381 -6.14303e-20)
(-0.101249 -0.00175708 -1.05937e-20)
(-0.100049 -0.0019225 2.13311e-20)
(-0.0986032 -0.0021187 -1.71679e-20)
(-0.0969044 -0.00232763 2.31517e-20)
(-0.0949445 -0.00252749 -6.34316e-21)
(-0.092714 -0.00269376 1.16933e-20)
(-0.0902055 -0.00279785 1.07159e-20)
(-0.0874093 -0.00281139 -4.9287e-20)
(-0.0843158 -0.00270206 1.63405e-20)
(-0.0809098 -0.00243919 -2.55815e-21)
(-0.0771855 -0.00202102 1.08173e-20)
(-0.0731402 -0.00141717 4.01296e-20)
(-0.0687476 -0.00054942 -6.22323e-20)
(-0.0640494 0.000581433 2.28176e-20)
(-0.0590403 0.00205663 1.31326e-21)
(-0.0536782 0.00378454 2.34995e-20)
(-0.0479924 0.00578607 -1.88194e-20)
(-0.0419837 0.00806906 7.61024e-21)
(-0.0356813 0.0106224 -1.26426e-20)
(-0.0290669 0.0134561 1.28169e-21)
(-0.0221686 0.0164677 -2.84736e-21)
(-0.0150359 0.0196698 2.03632e-20)
(-0.00767267 0.0229973 -1.6559e-20)
(-0.000129487 0.0263909 8.22912e-21)
(0.00758442 0.029775 1.68747e-21)
(0.015437 0.0330711 4.20996e-21)
(0.0233691 0.0362005 -1.55992e-20)
(0.0313592 0.0390776 1.14836e-20)
(0.0393781 0.041615 -1.11389e-20)
(0.0474012 0.0437332 1.30632e-21)
(0.0554086 0.0453587 7.88237e-21)
(0.0633905 0.0464235 -2.75896e-21)
(0.0713503 0.0468747 1.24762e-21)
(0.0792986 0.0466755 5.62124e-21)
(0.0872634 0.0457998 -7.96141e-21)
(0.0952805 0.044256 -8.59914e-22)
(0.103393 0.0420478 3.32374e-21)
(0.111668 0.0392231 -8.68119e-22)
(0.120161 0.0358399 4.33922e-21)
(0.128944 0.0319764 1.05813e-22)
(0.138087 0.0277347 -5.8634e-22)
(0.147657 0.0232334 -1.02203e-21)
(0.157715 0.0186062 -2.72151e-21)
(0.168315 0.0139959 1.6953e-21)
(0.1795 0.0095581 6.0825e-22)
(0.191294 0.00543309 2.36257e-23)
(0.203714 0.00176011 1.43123e-21)
(0.216786 -0.00128078 -8.86409e-22)
(-0.0716463 -0.00569211 -1.58643e-20)
(-0.0725213 -0.00478976 -1.33266e-21)
(-0.0732176 -0.00399033 -3.05759e-22)
(-0.07373 -0.00329442 7.62503e-21)
(-0.0740529 -0.00270137 -3.39016e-21)
(-0.0741792 -0.00220925 4.06242e-20)
(-0.0741008 -0.00181488 -6.73032e-20)
(-0.0738078 -0.00151532 4.88895e-20)
(-0.0732959 -0.00131174 5.63686e-21)
(-0.0725652 -0.00119466 -7.14631e-21)
(-0.0716131 -0.00115427 -1.1484e-20)
(-0.0704317 -0.00116856 -2.73116e-20)
(-0.0690098 -0.00122735 8.74914e-21)
(-0.0673375 -0.00131631 1.26392e-20)
(-0.0654056 -0.00141802 -4.01999e-20)
(-0.0632055 -0.00151249 1.55109e-20)
(-0.0607282 -0.00158152 2.921e-20)
(-0.0579664 -0.00159306 -3.64905e-20)
(-0.0549097 -0.00152084 -4.09929e-21)
(-0.0515491 -0.00133571 2.33924e-20)
(-0.0478599 -0.00101249 -1.38802e-20)
(-0.0438377 -0.000472299 4.41899e-20)
(-0.0395127 0.000280772 -4.59317e-20)
(-0.034862 0.00130022 2.45233e-20)
(-0.0298662 0.00258804 2.31485e-20)
(-0.0245363 0.00410292 -2.31538e-20)
(-0.0188675 0.00589938 1.8243e-20)
(-0.0128746 0.00797988 -2.47986e-21)
(-0.00655986 0.0103393 -3.79831e-20)
(3.60127e-05 0.0129721 2.17748e-20)
(0.00693626 0.015844 -4.38663e-21)
(0.0141192 0.0189225 2.21641e-20)
(0.0215134 0.0221766 -2.32068e-20)
(0.0291191 0.0255481 -1.87096e-20)
(0.0368859 0.0289802 2.84413e-20)
(0.0447907 0.0323732 -1.27977e-20)
(0.0527993 0.0356894 -5.82978e-21)
(0.0608554 0.0388274 3.20142e-20)
(0.0689285 0.0417039 -1.91169e-20)
(0.0769851 0.0442346 -1.08217e-20)
(0.0849971 0.0463408 6.85741e-21)
(0.0929428 0.0479513 6.20503e-21)
(0.10081 0.0490014 -9.33492e-21)
(0.108601 0.0494404 1.94098e-22)
(0.116327 0.0492347 6.08982e-21)
(0.124016 0.0483617 -4.80849e-21)
(0.131708 0.0468302 8.04539e-22)
(0.139452 0.0446489 -1.95469e-21)
(0.147318 0.0418652 2.75957e-21)
(0.155373 0.0385376 3.3913e-21)
(0.163697 0.0347452 -6.33394e-21)
(0.172369 0.0305882 3.78558e-22)
(0.181469 0.0261835 3.55492e-21)
(0.191067 0.0216622 1.14116e-21)
(0.20123 0.0171648 -2.56274e-21)
(0.212009 0.0128429 -1.42818e-21)
(0.223441 0.00884232 7.92982e-22)
(0.235553 0.00529881 1.78911e-21)
(0.248336 0.0023204 -2.07441e-21)
(-0.0395412 -0.00616164 3.97035e-20)
(-0.0401992 -0.00515486 -6.11766e-20)
(-0.0406877 -0.00425057 6.86627e-20)
(-0.0409995 -0.00344972 -1.57048e-20)
(-0.0411267 -0.00275167 -5.81036e-20)
(-0.0410608 -0.00215425 4.68404e-20)
(-0.0407913 -0.00165405 4.48649e-20)
(-0.0403048 -0.0012484 4.41011e-21)
(-0.0395963 -0.000942449 -6.83193e-20)
(-0.0386672 -0.00071855 -5.77767e-21)
(-0.0375172 -0.000591256 2.86918e-21)
(-0.0361371 -0.000525287 -1.85629e-20)
(-0.0345103 -0.000506058 7.18832e-20)
(-0.0326267 -0.000516631 -4.41906e-20)
(-0.0304757 -0.000534798 -1.15716e-20)
(-0.0280462 -0.000533598 3.99757e-20)
(-0.0253311 -0.000481209 -2.34833e-20)
(-0.0223254 -0.00036232 5.68686e-21)
(-0.0190149 -0.00015785 9.32012e-21)
(-0.0153904 0.000157517 -1.01781e-20)
(-0.0114568 0.000611957 1.79205e-20)
(-0.00719521 0.0012833 -1.30207e-20)
(-0.00259737 0.00218268 -2.46279e-20)
(0.00234647 0.00328915 3.51261e-20)
(0.00764173 0.00462399 5.29353e-21)
(0.0132646 0.00622286 -2.25779e-20)
(0.0192263 0.00810057 -1.5121e-20)
(0.0255127 0.0102581 2.09395e-20)
(0.0321179 0.0126902 2.02013e-21)
(0.0390063 0.0153962 -3.07116e-20)
(0.0461791 0.018301 3.41615e-20)
(0.053622 0.021441 -3.28584e-20)
(0.0612685 0.0247391 4.50412e-20)
(0.0691051 0.028145 -3.44582e-20)
(0.0770831 0.0315999 2.20732e-20)
(0.0851693 0.0350128 -1.70884e-20)
(0.0933253 0.0383331 8.17638e-22)
(0.101497 0.0414668 -4.29602e-21)
(0.109647 0.0443309 2.82055e-20)
(0.117737 0.0468428 -8.81591e-21)
(0.125736 0.048925 -9.30564e-21)
(0.133621 0.0505082 8.36833e-22)
(0.141376 0.0515312 -4.61769e-21)
(0.149003 0.051946 1.59101e-20)
(0.156514 0.0517221 3.01838e-21)
(0.163937 0.0508406 -2.37404e-21)
(0.171314 0.0493116 -9.33231e-21)
(0.178699 0.0471483 9.88886e-21)
(0.186166 0.0443983 -7.18621e-21)
(0.193789 0.0411213 -7.16278e-21)
(0.201655 0.0373968 1.76172e-20)
(0.209855 0.0333238 -8.70653e-21)
(0.218474 0.0290172 1.32861e-21)
(0.227596 0.0246055 2.5266e-21)
(0.237295 0.0202266 -1.89033e-21)
(0.247633 0.0160273 -1.59982e-21)
(0.258653 0.0121516 -1.2154e-22)
(0.270387 0.0087377 2.74246e-21)
(0.282834 0.00592452 -2.37141e-21)
(-0.00366449 -0.0065382 -8.35538e-20)
(-0.00414345 -0.00543246 2.87626e-20)
(-0.00446135 -0.00442762 1.12509e-20)
(-0.00460884 -0.00352515 6.49337e-21)
(-0.00457634 -0.00272466 -5.87431e-20)
(-0.00435333 -0.00202393 4.61569e-20)
(-0.00392744 -0.0014193 -4.0617e-20)
(-0.00327992 -0.000906657 5.10365e-20)
(-0.00240845 -0.000498629 1.50651e-20)
(-0.00130583 -0.000232098 1.95667e-20)
(2.50116e-05 1.98486e-05 -1.50735e-20)
(0.00158008 0.000214405 -4.49041e-21)
(0.00338371 0.00035563 1.1856e-20)
(0.00544763 0.000461729 -7.69338e-21)
(0.00778126 0.000557945 -1.86563e-20)
(0.0103934 0.000673031 -3.62334e-20)
(0.0133008 0.000837727 4.22564e-20)
(0.0165163 0.00106979 -4.70006e-20)
(0.0200488 0.00139391 3.88356e-20)
(0.0239055 0.00183997 2.05759e-20)
(0.0280865 0.00243796 -1.70843e-20)
(0.0326038 0.00318907 1.44337e-20)
(0.03746 0.00414934 -1.11489e-20)
(0.0426616 0.00531608 -6.36711e-21)
(0.0482193 0.00673895 4.28162e-21)
(0.0541121 0.00842271 -1.26977e-20)
(0.0603448 0.0103783 3.15274e-20)
(0.0669021 0.0126084 -1.55753e-20)
(0.0737743 0.0151065 2.3374e-20)
(0.0809301 0.0178702 -2.17088e-20)
(0.0883554 0.0208362 -8.3529e-21)
(0.096036 0.0240194 -2.53678e-20)
(0.103912 0.0273525 2.86131e-20)
(0.111957 0.0307844 -2.40081e-20)
(0.120124 0.0342538 -4.93371e-22)
(0.128371 0.0376772 9.03387e-21)
(0.136657 0.0409923 1.2272e-20)
(0.144926 0.0441119 -2.77386e-21)
(0.153136 0.0469534 5.99452e-21)
(0.161247 0.0494357 1.01727e-20)
(0.169222 0.0514828 -1.27396e-20)
(0.177038 0.0530276 8.86783e-21)
(0.184676 0.0540121 -1.28709e-20)
(0.192137 0.0543915 4.60103e-21)
(0.199433 0.0541384 6.92041e-21)
(0.206592 0.0532378 -1.74542e-20)
(0.21366 0.0517015 1.07046e-20)
(0.220691 0.0495473 -4.95698e-23)
(0.227764 0.0468233 -1.02473e-20)
(0.234959 0.0435909 1.06781e-20)
(0.24237 0.0399299 -4.73467e-21)
(0.250093 0.0359383 -1.85405e-21)
(0.258224 0.0317293 3.32707e-21)
(0.266855 0.0274287 7.20297e-21)
(0.276066 0.0231711 -3.13281e-21)
(0.285929 0.0190988 -9.8041e-21)
(0.296493 0.0153518 7.48501e-21)
(0.307795 0.0120654 -6.14939e-21)
(0.319839 0.009373 1.58539e-21)
(0.0361145 -0.00684797 -3.00312e-20)
(0.035754 -0.00564836 6.83752e-20)
(0.035548 -0.0045467 -3.44194e-20)
(0.0355081 -0.00354529 -1.00288e-20)
(0.0356453 -0.00264432 5.29914e-21)
(0.0359718 -0.0018417 -4.62258e-21)
(0.0365009 -0.00113321 7.3439e-21)
(0.0372597 -0.000518106 2.77222e-20)
(0.0382759 -5.98116e-05 1.79967e-21)
(0.039487 0.000370978 -6.51605e-20)
(0.0409017 0.000775053 1.01305e-20)
(0.0425839 0.00110986 5.33338e-20)
(0.0445255 0.00138989 -5.01524e-20)
(0.046734 0.00163322 2.25573e-20)
(0.0492198 0.00185982 2.39306e-20)
(0.0519949 0.00209063 -9.48192e-21)
(0.0550727 0.00234481 -1.19056e-20)
(0.0584639 0.00265845 -2.55542e-20)
(0.0621797 0.00306197 2.66183e-21)