/*--------------------------------*- C++ -*----------------------------------*\
  =========                 |
  \\      /  F ield         | OpenFOAM: The Open Source CFD Toolbox
   \\    /   O peration     | Website:  https://openfoam.org
    \\  /    A nd           | Version:  7
     \\/     M anipulation  |
\*---------------------------------------------------------------------------*/
FoamFile
{
    version     2.0;
    format      ascii;
    class       volScalarField;
    location    "11.5";
    object      p;
}
// * * * * * * * * * * * * * * * * * * * * * * * * * * * * * * * * * * * * * //

dimensions      [1 -1 -2 0 0 0 0];

internalField   nonuniform List<scalar> 
4032
(
1
1
1
1
1
1
1
1
1
1
1
1.32928
7.59034
10.6083
10.7403
10.9486
11.1339
11.311
11.474
11.6206
11.751
11.8564
11.9369
11.9963
1
1
1
1
1
1
1
1
1
1
1
1.29021
7.42619
10.5745
10.7276
10.9299
11.1115
11.284
11.4418
11.5816
11.7041
11.8014
11.873
11.9292
1
1
1
1
1
1
1
1
1
1
1
1.18662
7.12508
10.5457
10.6863
10.8871
11.0688
11.2396
11.3944
11.529
11.6438
11.7322
11.7898
11.8373
1
1
1
1
1
1
1
1
1
1
1
1.01645
6.62445
10.4942
10.6333
10.8203
10.9918
11.1505
11.296
11.4243
11.5353
11.6196
11.6678
11.7047
1
1
1
1
1
1
1
1
1
1
1
1.00019
5.95079
10.3172
10.5003
10.6844
10.8594
11.0164
11.1557
11.2704
11.3596
11.4251
11.4588
11.5071
1
1
1
1
1
1
1
1
1
1
1
0.999999
5.10585
10.0858
10.389
10.5577
10.7245
10.8636
10.9823
11.0798
11.1574
11.2166
11.2285
11.1884
1
1
1
1
1
1
1
1
1
1
1
1
4.13696
9.73062
10.2724
10.429
10.5731
10.682
10.7649
10.8237
10.8436
10.807
10.7389
10.6948
1
1
1
1
1
1
1
1
1
1
1
1
3.09033
9.18022
10.1852
10.3224
10.4364
10.5093
10.5426
10.5455
10.4983
10.42
10.2915
10.278
1
1
1
1
1
1
1
1
1
1
1
1
2.00688
8.31775
10.1431
10.1972
10.2878
10.328
10.3127
10.2515
10.1056
9.83875
9.06111
7.1778
1
1
1
1
1
1
1
1
1
1
1
1
1.12692
7.18044
10.1928
10.0912
10.0874
10.0752
10.0181
9.89255
9.65261
9.18037
8.37701
6.32078
1
1
1
1
1
1
1
1
1
1
1
1
1.00155
5.56927
9.58977
9.72495
9.7879
9.76405
9.68894
9.51484
9.21724
8.65392
7.82687
5.88837
1
1
1
1
1
1
1
1
1
1
1
1
0.999977
3.69834
9.00874
9.59131
9.6193
9.55445
9.43446
9.20565
8.84708
8.2735
7.37623
5.80751
1
1
1
1
1
1
1
1
1
1
1
1
0.999994
1.96536
8.04965
9.53174
9.44239
9.33187
9.17292
8.90888
8.51437
7.95548
7.05736
5.84396
1
1
1
1
1
1
1
1
1
1
1
1
0.999999
1.09667
6.28825
9.20214
9.18956
9.0906
8.9223
8.65068
8.26182
7.70015
6.87708
5.92941
1
1
1
1
1
1
1
1
1
1
1
1
1
1.0005
3.83805
8.60989
9.04118
8.93684
8.75011
8.44119
8.05609
7.48707
6.77016
5.99338
1
1
1
1
1
1
1
1
1
1
1
1
1
0.999994
1.62234
7.63743
9.07573
8.79656
8.55778
8.24642
7.83531
7.33104
6.72092
6.05215
1
1
1
1
1
1
1
1
1
1
1
1
1
0.999999
1.0339
5.60584
8.64656
8.45873
8.29382
8.02512
7.65928
7.21064
6.67725
6.08898
1
1
1
1
1
1
1
1
1
1
1
1
1
1
0.99997
2.80214
7.90725
8.34982
8.2023
7.93727
7.581
7.14612
6.6457
6.11348
1
1
1
1
1
1
1
1
1
1
1
1
1
1
0.999988
1.22783
6.07944
8.30125
8.11778
7.8347
7.48203
7.07284
6.60853
6.12586
1
1
1
1
1
1
1
1
1
1
1
1
1
1
0.999998
1.004
3.23409
7.60585
7.99395
7.71118
7.38823
7.00443
6.57267
6.14786
1
1
1
1
1
1
1
1
1
1
1
1
1
1
1
1
1.34026
5.98682
7.96242
7.64957
7.3394
6.95302
6.55852
6.26115
1
1
1
1
1
1
1
1
1
1
1
1
1
1
1
1
1.00928
3.11685
7.23877
7.56468
7.23814
6.86672
6.62567
6.64417
1
1
1
1
1
1
1
1
1
1
1
1
1
1
1
1
1.00003
1.31023
5.47882
7.58457
7.16787
6.94248
7.16281
7.54321
1
1
1
1
1
1
1
1
1
1
1
1
1
1
1
1
1
1.00805
2.52352
6.64041
7.02082
7.46205
8.14824
8.46618
1
1
1
1
1
1
1
1
1
1
1
1
1
1
1
1
1
1.00004
1.166
4.43566
7.11605
8.835
9.26412
9.03482
1
1
1
1
1
1
1
1
1
1
1
1
1
1
1
1
1
1
1.00294
1.81279
7.02107
10.1567
9.76372
9.3296
1
1
1
1
1
1
1
1
1
1
1
1
1
1
1
1
1
1
1.00001
1.04974
6.78992
10.8443
10.0339
9.52163
1
1
1
1
1
1
1
1
1
1
1
1
1
1
1
1
1
1
1
1.00036
5.87157
10.5755
9.88433
9.52419
1
1
1
1
1
1
1
1
1
1
1
1
1
1
1
1
1
1
1
1
5.11906
10.2888
9.94614
9.72438
1
1
1
1
1
1
1
1
1
1
1
1
1
1
1
1
1
1
1
1
4.34245
9.8255
9.99052
9.78168
1
1
1
1
1
1
1
1
1
1
1
1
1
1
1
1
1
1
1
1
3.61565
9.44352
10.0193
9.7964
1
1
1
1
1
1
1
1
1
1
1
1
1
1
1
1
1
1
1
1
2.90951
9.10298
10.1248
9.8667
1
1
1
1
1
1
1
1
1
1
1
1
1
1
1
1
1
1
1
1
2.29649
8.7396
10.2525
9.92557
1
1
1
1
1
1
1
1
1
1
1
1
1
1
1
1
1
1
1
1
1.8038
8.36369
10.3694
9.99008
1
1
1
1
1
1
1
1
1
1
1
1
1
1
1
1
1
1
1
1
1.48224
8.00254
10.4245
10.0323
1
1
1
1
1
1
1
1
1
1
1
1
1
1
1
1
1
1
1
1
1.34943
7.68688
10.4172
10.0503
1
1
1
1
1
1
1
1
1
1
1
1
1
1
1
1
1
1
1
1
1.27274
7.43653
10.3792
10.0612
1
1
1
1
1
1
1
1
1
1
1
1
1
1
1
1
1
1
1
1
1.21175
7.24805
10.3458
10.0675
1
1
1
1
1
1
1
1
1
1
1
1
1
1
1
1
1
1
1
1
1.15802
7.13305
10.3112
10.0606
1
1
1
1
1
1
1
1
1
1
1
1
1
1
1
1
1
1
1
1
1.14826
7.08458
10.2843
10.0514
1.58592
0.436794
0.151941
0.148775
0.207718
0.289473
0.365163
0.464794
0.585734
0.682617
1.73328
4.11034
4.46013
4.3392
4.41385
4.60969
4.73773
4.70512
4.67627
4.74859
4.85486
4.91664
4.93856
4.94997
4.96817
4.9824
4.97624
4.9557
4.93917
4.93516
4.9375
4.935
4.92338
4.90623
4.88646
4.86529
4.84211
4.81784
4.79459
4.77198
4.74513
4.71026
4.66718
4.62109
4.57819
4.54119
4.50738
4.47138
4.42942
4.38091
4.32693
4.2694
4.21235
4.15936
4.11038
4.06353
4.01522
3.96179
3.90389
3.8461
3.79302
3.74611
3.70043
3.64421
3.58031
3.51823
3.46033
3.40822
3.36077
3.30679
3.24779
3.18756
3.13015
3.08109
3.0441
3.0138
3.03071
3.23659
4.12486
4.41119
4.40203
4.37266
4.36277
4.35376
4.34008
4.31829
4.29422
4.27197
4.25746
4.25179
4.26096
4.27861
4.2863
4.27154
4.25216
4.23899
2.77234
1.45781
0.86093
0.614927
0.580547
0.567539
0.53841
0.494225
0.50054
0.522368
1.06611
3.49551
4.4036
4.38336
4.47967
4.66544
4.78608
4.78401
4.77659
4.82842
4.8851
4.90597
4.90251
4.90003
4.91054
4.92286
4.92009
4.90672
4.89426
4.88927
4.88985
4.88965
4.88608
4.8779
4.86266
4.83828
4.8094
4.78144
4.75801
4.73924
4.71919
4.69
4.65066
4.60642
4.5627
4.52192
4.48288
4.44248
4.39946
4.35522
4.31046
4.26274
4.20757
4.14726
4.08993
4.04061
3.99886
3.95544
3.89822
3.83303
3.77075
3.7167
3.67518
3.63579
3.58255
3.52235
3.46282
3.40727
3.3556
3.30481
3.24991
3.19171
3.13223
3.07631
3.03438
3.01527
3.0435
3.23937
4.09851
4.41963
4.41322
4.36951
4.34021
4.31883
4.31069
4.30931
4.30806
4.29942
4.28068
4.25886
4.24195
4.23306
4.24017
4.25145
4.25258
4.24109
3.60452
2.42459
1.7179
1.17273
0.92719
0.841037
0.771303
0.693353
0.596553
0.553473
0.622488
2.45233
4.30196
4.54842
4.63089
4.75299
4.82493
4.8164
4.82091
4.82761
4.82571
4.81057
4.80182
4.80891
4.83347
4.86246
4.89043
4.9149
4.93017
4.93338
4.92751
4.91826
4.91256
4.91388
4.91385
4.89658
4.86032
4.81875
4.78244
4.75509
4.73429
4.70933
4.67334
4.63033
4.58682
4.54555
4.5056
4.46276
4.41305
4.35963
4.30968
4.26636
4.22457
4.17126
4.10789
4.04652
3.99473
3.95457
3.91591
3.86066
3.79482
3.72677
3.66901
3.61964
3.57442
3.52556
3.4733
3.41727
3.35773
3.29889
3.24382
3.1932
3.14668
3.10312
3.06799
3.05575
3.08132
3.236
3.97921
4.40313
4.43833
4.40751
4.37192
4.33205
4.2945
4.27676
4.27909
4.29923
4.31628
4.30966
4.28235
4.24027
4.2149
4.21136
4.22962
4.24854
4.22265
3.13604
2.46026
1.90979
1.44262
1.17011
1.08142
1.0233
0.925879
0.788761
0.711985
1.2021
3.68324
4.65972
4.81896
4.84644
4.80189
4.79286
4.83029
4.85439
4.8523
4.8501
4.85858
4.87806
4.89749
4.912
4.92549
4.9462
4.96911
4.97423
4.95343
4.91931
4.88918
4.87596
4.88128
4.88565
4.86036
4.81288
4.76492
4.72648
4.70098
4.6841
4.65936
4.61903
4.57087
4.52276
4.47921
4.44024
4.39845
4.34671
4.29145
4.24096
4.19893
4.15747
4.10136
4.03728
3.97534
3.9251
3.88216
3.83544
3.78511
3.7321
3.67186
3.61022
3.55334
3.50266
3.45647
3.40996
3.35768
3.2965
3.22903
3.16644
3.12403
3.09875
3.08813
3.11795
3.18249
3.33067
3.80868
4.34257
4.4236
4.38665
4.36777
4.35011
4.32237
4.28657
4.26902
4.26754
4.28167
4.29394
4.28662
4.26877
4.24185
4.22095
4.21721
4.23082
4.66519
3.70663
3.00707
2.47852
2.0409
1.68055
1.3755
1.25431
1.18353
1.08095
0.893336
0.91586
2.33867
4.62516
5.08917
4.97334
4.8715
4.89413
4.94452
4.95092
4.93841
4.9359
4.94984
4.96564
4.95658
4.92743
4.90228
4.8965
4.91704
4.94118
4.93767
4.90631
4.86823
4.83758
4.82863
4.84189
4.84609
4.8118
4.7637
4.71973
4.68544
4.66433
4.65013
4.62109
4.57521
4.52404
4.47418
4.42937
4.38921
4.34197
4.28535
4.23195
4.18804
4.14754
4.09635
4.03925
3.98107
3.92346
3.86891
3.81734
3.76996
3.72266
3.67169
3.61403
3.55257
3.49283
3.44132
3.39501
3.34808
3.29687
3.23812
3.17672
3.12573
3.10894
3.12222
3.19213
3.32165
3.4543
3.67157
4.14852
4.40849
4.39468
4.34303
4.32649
4.32
4.31915
4.30113
4.27928
4.27106
4.26646
4.26268
4.25525
4.24629
4.23294
4.21935
4.21512
5.00339
4.16768
3.50417
2.9305
2.45743
2.1348
1.83824
1.53603
1.3892
1.32755
1.2134
1.19099
1.51341
3.68303
5.38644
5.27422
5.02388
5.01723
5.08248
5.06314
4.99721
4.96114
4.97637
5.02003
5.02591
4.98624
4.94422
4.91588
4.91969
4.94908
4.9599
4.92885
4.88538
4.84636
4.81809
4.81646
4.83102
4.80414
4.75121
4.70285
4.6643
4.63627
4.62059
4.59719
4.55243
4.50025
4.44917
4.40295
4.36267
4.31405
4.25672
4.20334
4.16268
4.11698
4.06634
4.0163
3.96448
3.90865
3.85072
3.7956
3.74618
3.70018
3.65348
3.60323
3.5456
3.48364
3.42318
3.3691
3.32014
3.27286
3.22732
3.18518
3.1518
3.15666
3.20755
3.3162
3.47731
3.58121
3.63901
3.86405
4.18366
4.34515
4.35655
4.33796
4.31305
4.3144
4.31329
4.2909
4.26691
4.25454
4.25079
4.25193
4.25027
4.24467
4.23188
4.21043
5.22623
4.48775
3.8725
3.35645
2.84216
2.42742
2.18613
1.93226
1.71324
1.63793
1.60547
1.60421
1.69916
2.41672
4.521
5.53802
5.37757
5.22502
5.17616
5.12741
5.05566
5.01935
5.02337
5.07453
5.08647
5.04748
4.99668
4.96433
4.95215
4.97708
4.99351
4.96146
4.91773
4.8773
4.84453
4.82824
4.83505
4.80815
4.76065
4.70951
4.67289
4.64662
4.63185
4.60124
4.55436
4.49639
4.43782
4.39364
4.3552
4.30688
4.25505
4.20452
4.151
4.09559
4.04755
4.00372
3.95542
3.9018
3.84187
3.78046
3.72655
3.68064
3.63693
3.58996
3.53632
3.47425
3.4064
3.34652
3.29759
3.2555
3.22443
3.20751
3.20782
3.24845
3.36206
3.48282
3.6054
3.68832
3.66736
3.70039
3.87297
4.12697
4.28678
4.37596
4.36442
4.33697
4.30701
4.28502
4.2599
4.24727
4.24556
4.24759
4.25377
4.24999
4.24197
4.21515
5.39633
4.748
4.14405
3.64998
3.2179
2.78972
2.45844
2.27318
2.18197
2.17389
2.14084
2.19215
2.19076
2.25305
3.03779
4.77826
5.48363
5.5307
5.41387
5.26202
5.13241
5.08859
5.08722
5.12365
5.12103
5.07042
5.00494
4.97193
4.95683
4.9734
4.98559
4.9552
4.9122
4.8657
4.83413
4.81395
4.81315
4.78836
4.74726
4.69762
4.65899
4.63257
4.61227
4.57782
4.53177
4.47067
4.41324
4.3733
4.32837
4.27994
4.2351
4.18633
4.12682
4.06765
4.02174
3.97893
3.93507
3.88739
3.8316
3.76671
3.70501
3.65557
3.61322
3.56947
3.52029
3.46153
3.39262
3.32474
3.27679
3.2467
3.24058
3.26306
3.30578
3.4113
3.5594
3.63662
3.69015
3.71844
3.70062
3.65834
3.70094
3.85287
4.07231
4.24753
4.37525
4.36411
4.33042
4.29052
4.26039
4.24248
4.23985
4.2438
4.25266
4.25136
4.24383
4.21872
5.50457
4.92877
4.37268
3.88791
3.50596
3.16617
2.87642
2.77927
2.82528
2.80975
2.71296
2.66798
2.67214
2.5523
2.59955
3.39804
4.87262
5.51676
5.65868
5.55664
5.34668
5.18534
5.14323
5.15664
5.15858
5.11011
5.04128
4.99192
4.96879
4.96595
4.96192
4.92952
4.88681
4.83423
4.79995
4.77807
4.77059
4.74557
4.7082
4.66062
4.61455
4.58413
4.5588
4.5255
4.47993
4.42379
4.37312
4.32579
4.27816
4.23764
4.19892
4.15106
4.09318
4.03393
3.98447
3.94286
3.90354
3.86052
3.80943
3.74717
3.6809
3.62617
3.58054
3.53796
3.49143
3.43804
3.37498
3.31034
3.26817
3.26294
3.2901
3.36604
3.46995
3.63829
3.74879
3.75775
3.73629
3.71669
3.70615
3.66806
3.64869
3.69268
3.82787
4.02463
4.22404
4.31253
4.34892
4.32854
4.29535
4.26011
4.2422
4.24029
4.24439
4.24617
4.23938
4.21656
5.58313
5.06466
4.56457
4.14952
3.88509
3.69036
3.52083
3.51518
3.55478
3.39836
3.22209
3.08466
3.03437
2.96154
2.82036
2.89912
3.66176
4.94481
5.59221
5.7622
5.64612
5.40605
5.23854
5.20169
5.2108
5.17842
5.11945
5.04885
5.0062
4.97916
4.95666
4.92213
4.88075
4.82603
4.78422
4.75773
4.74132
4.71464
4.67875
4.6318
4.57821
4.54184
4.513
4.47822
4.43499
4.39102
4.34184
4.28299
4.23351
4.19802
4.16027
4.11596
4.06616
4.00882
3.95055
3.90411
3.86506
3.82558
3.78082
3.72594
3.66139
3.59692
3.54382
3.49804
3.4556
3.40969
3.36186
3.31272
3.29436
3.31325
3.39831
3.52482
3.66064
3.81614
3.85527
3.84238
3.78378
3.72556
3.70041
3.67755
3.65038
3.64929
3.68945
3.79432
3.98568
4.17028
4.26581
4.33748
4.33088
4.30517
4.26905
4.23656
4.22956
4.22829
4.22488
4.20717
5.64997
5.21318
4.82734
4.57288
4.53238
4.43694
4.21564
4.14344
4.09336
3.86718
3.62559
3.48779
3.39064
3.33286
3.20694
3.0697
3.14738
3.83437
5.00459
5.69159
5.77372
5.64153
5.40723
5.29249
5.27242
5.24772
5.19623
5.1198
5.04625
5.00137
4.96643
4.92984
4.89047
4.83961
4.78658
4.75268
4.72728
4.69808
4.66306
4.61797
4.5613
4.51929
4.48664
4.44727
4.40829
4.37069
4.32088
4.25535
4.20352
4.16869
4.13139
4.09117
4.04701
3.99184
3.92771
3.87236
3.82846
3.78885
3.74736
3.69958
3.64175
3.57559
3.51238
3.46132
3.41812
3.38388
3.35809
3.35179
3.37373
3.45178
3.59942
3.70924
3.8135
3.88852
3.89452
3.87316
3.82478
3.75863
3.7088
3.68546
3.66416
3.64831
3.65123
3.68347
3.76196
3.942
4.11507
4.23505
4.32575
4.33081
4.30516
4.25999
4.22053
4.20939
4.20704
4.19488
5.75844
5.49769
5.349
5.30128
5.32858
5.12085
4.78688
4.60984
4.49174
4.29002
4.01815
3.85971
3.79708
3.68345
3.5767
3.39468
3.26856
3.352
3.98144
5.06503
5.69148
5.72843
5.58947
5.43644
5.36548
5.31442
5.25027
5.171
5.07911
5.01992
4.97824
4.94049
4.89883
4.85015
4.78959
4.74371
4.71223
4.68111
4.64628
4.60304
4.54708
4.50062
4.46143
4.42012
4.38272
4.34362
4.2928
4.22704
4.17517
4.13706
4.09921
4.06177
4.02027
3.96912
3.90762
3.84614
3.79332
3.74859
3.70592
3.66169
3.61198
3.55418
3.49292
3.4335
3.38729
3.37041
3.38508
3.43417
3.52879
3.69828
3.82365
3.85769
3.88966
3.89843
3.90042
3.87863
3.84697
3.80287
3.74383
3.70335
3.68217
3.66349
3.64833
3.6477
3.67719
3.74227
3.89693
4.0663
4.21317
4.30722
4.30888
4.28541
4.23998
4.20327
4.19316
4.18133
6.12409
6.17236
6.12906
6.04285
5.89542
5.58104
5.21998
4.98998
4.86008
4.69707
4.42419
4.21152
4.14768
4.05305
3.89956
3.74851
3.54435
3.46103
3.54349
4.07903
5.0618
5.60232
5.65339
5.57397
5.49291
5.39903
5.29707
5.20078
5.09878
5.03491
4.98933
4.94756
4.89869
4.84489
4.78022
4.72486
4.68985
4.65634
4.61925
4.575
4.52203
4.46982
4.42206
4.37966
4.34152
4.30117
4.25028
4.1919
4.14286
4.09791
4.0574
4.01979
3.97885
3.93163
3.87788
3.82019
3.76344
3.70997
3.66065
3.61415
3.56895
3.5228
3.47232
3.4224
3.39493
3.40931
3.48011
3.59711
3.74985
3.92904
3.97334
3.9607
3.92461
3.89683
3.88637
3.87399
3.85455
3.8298
3.7915
3.74144
3.7073
3.68663
3.66632
3.64625
3.64247
3.66667
3.72042
3.84746
4.02465
4.1837
4.25718
4.28174
4.26896
4.22923
4.19074
4.17038
6.8648
6.97327
6.7986
6.57612
6.27537
5.94557
5.61848
5.36661
5.22239
5.07519
4.81109
4.55121
4.44974
4.38234
4.23629
4.04751
3.88106
3.71202
3.63484
3.69744
4.13662
4.97402
5.47671
5.6038
5.59235
5.5178
5.37825
5.24118
5.11886
5.05014
5.00282
4.95527
4.89622
4.834
4.76173
4.70145
4.66347
4.62637
4.58453
4.53635
4.48362
4.42552
4.36986
4.32662
4.2882
4.24545
4.19338
4.14437
4.09946
4.05279
4.01109
3.97043
3.92476
3.87698
3.82984
3.78089
3.72898
3.67223
3.61479
3.56229
3.51806
3.48184
3.45231
3.44212
3.45787
3.52894
3.66423
3.78783
3.93173
4.03423
4.03873
4.02015
3.96134
3.90472
3.87983
3.86349
3.85698
3.84365
3.82065
3.78468
3.74013
3.71225
3.69301
3.66859
3.6437
3.63782
3.65464
3.69647
3.8018
3.97749
4.11763
4.20374
4.26517
4.25536
4.21482
4.17311
7.75261
7.53502
7.2405
6.93823
6.58735
6.27184
6.01639
5.76193
5.56987
5.41643
5.16948
4.89195
4.74649
4.67936
4.55024
4.34946
4.16031
4.02782
3.87742
3.78376
3.81656
4.14265
4.83074
5.34435
5.55777
5.59047
5.49111
5.32426
5.16457
5.07407
5.01672
4.96105
4.89724
4.82944
4.74803
4.67982
4.63582
4.59346
4.54812
4.49714
4.43985
4.37462
4.31314
4.27153
4.23442
4.18825
4.13531
4.09029
4.04644
4.00282
3.96372
3.91992
3.86715
3.81667
3.7731
3.73062
3.68307
3.62644
3.56564
3.51106
3.47765
3.46445
3.47833
3.5183
3.60331
3.76134
3.88054
3.94913
4.02029
4.05868
4.0588
4.0371
3.99235
3.93074
3.88763
3.8688
3.85994
3.85462
3.83814
3.81304
3.77368
3.73609
3.71641
3.6971
3.66882
3.64241
3.63113
3.6334
3.65713
3.75148
3.91053
4.05099
4.17377
4.22944
4.22587
4.19291
8.28739
7.87396
7.55519
7.25057
6.90108
6.58549
6.38383
6.15448
5.89869
5.71201
5.49902
5.22505
5.05452
4.95851
4.8338
4.63624
4.42917
4.30082
4.17297
4.0144
3.89307
3.89049
4.11067
4.67433
5.21266
5.48749
5.51165
5.41322
5.25438
5.13
5.03989
4.96648
4.90227
4.83409
4.74714
4.66968
4.61592
4.56568
4.51538
4.46076
4.39888
4.32729
4.26451
4.22297
4.18213
4.13381
4.08541
4.04095
3.99556
3.95332
3.91189
3.86459
3.8106
3.76129
3.72076
3.67956
3.63116
3.5762
3.51967
3.47042
3.46509
3.48608
3.56394
3.68018
3.85312
4.01378
4.04374
4.04593
4.04831
4.05136
4.0543
4.03473
4.00617
3.96425
3.91164
3.88541
3.87262
3.86623
3.85391
3.83382
3.80581
3.76648
3.73696
3.71811
3.69602
3.66663
3.63847
3.61661
3.60826
3.62317
3.70519
3.84348
4.00868
4.13063
4.17993
4.18304
8.56314
8.10824
7.83698
7.5697
7.23321
6.91812
6.73223
6.53109
6.23873
5.98813
5.80504
5.55882
5.35892
5.24383
5.09501
4.91226
4.69008
4.54936
4.43473
4.29146
4.12003
3.95503
3.94195
4.08127
4.52716
5.05533
5.34565
5.3657
5.31577
5.22116
5.11057
5.00367
4.9204
4.83936
4.7473
4.6619
4.5968
4.54397
4.49003
4.43163
4.36223
4.28248
4.22034
4.178
4.13218
4.09003
4.06358
4.01586
3.95982
3.90901
3.85996
3.80935
3.77141
3.73454
3.69035
3.64134
3.5847
3.54234
3.50483
3.48178
3.49877
3.57958
3.73136
3.89107
4.07273
4.13726
4.13539
4.10334
4.06612
4.0511
4.04564
4.03615
4.01755
3.9908
3.94467
3.90256
3.88433
3.87476
3.86915
3.85496
3.83415
3.80191
3.76003
3.73328
3.71458
3.69167
3.66147
3.62954
3.60116
3.58565
3.595
3.66191
3.78935
3.9528
4.07565
4.13403
8.8176
8.36961
8.13971
7.89123
7.549
7.23139
7.04935
6.85509
6.56727
6.26614
6.08844
5.89319
5.66207
5.51229
5.34595
5.15273
4.96004
4.77958
4.66423
4.53224
4.36565
4.17217
3.98134
3.99341
4.07926
4.39634
4.88238
5.14264
5.22456
5.23835
5.1766
5.07626
4.96598
4.85045
4.7451
4.65476
4.5847
4.53985
4.48877
4.42285
4.34156
4.24876
4.18865
4.14982
4.11374
4.07329
4.01409
3.94298
3.89126
3.86585
3.83668
3.79036
3.72114
3.64435
3.58454
3.55113
3.54202
3.53665
3.53339
3.55693
3.64277
3.80717
3.94146
4.05743
4.15917
4.18275
4.17544
4.1421
4.09148
4.06752
4.05489
4.04557
4.03324
4.00952
3.97498
3.9333
3.90802
3.89854
3.89277
3.87967
3.85721
3.82986
3.79287
3.75117
3.72243
3.70015
3.67678
3.64821
3.61844
3.59257
3.57597
3.5774
3.62223
3.73413
3.88047
4.04009
8.97915
8.63009
8.43173
8.19157
7.86475
7.55256
7.35882
7.1544
6.8669
6.5464
6.35142
6.19706
5.96599
5.76174
5.58351
5.37741
5.20276
5.03374
4.87226
4.74025
4.57837
4.3984
4.18995
4.03154
4.02222
4.0657
4.28137
4.63283
4.93921
5.14992
5.1399
5.07475
4.98312
4.8714
4.7666
4.68574
4.61234
4.5258
4.42821
4.33969
4.26685
4.20763
4.15789
4.10635
4.05131
3.99074
3.92064
3.87059
3.84126
3.81023
3.77284
3.72485
3.65776
3.57346
3.51826
3.50136
3.5151
3.5527
3.62338
3.74146
3.92511
4.05354
4.09958
4.14322
4.18321
4.20063
4.18936
4.15773
4.10901
4.055
4.02831
4.01936
4.01892
4.02102
4.00725
3.98164
3.94502
3.90417
3.88222
3.87519
3.87055
3.85339
3.82584
3.78549
3.74205
3.71765
3.70686
3.68811
3.66248
3.62907
3.59539
3.56942
3.56795
3.59569
3.67304
3.86594
9.20782
8.94462
8.7352
8.48247
8.13755
7.84355
7.65598
7.45285
7.16595
6.85555
6.6313
6.46841
6.24797
5.99198
5.79183
5.58661
5.40703
5.2548
5.09037
4.92003
4.75409
4.56955
4.38766
4.20063
4.07351
4.04259
4.03593
4.13779
4.40875
4.80423
5.03222
5.02235
4.96035
4.86254
4.76185
4.66801
4.58231
4.48972
4.37564
4.26418
4.20545
4.1717
4.14198
4.09602
4.02913
3.93775
3.84728
3.79857
3.77291
3.75062
3.71365
3.66395
3.60006
3.51908
3.48861
3.49098
3.52299
3.63639
3.79947
3.98227
4.15003
4.19249
4.18982
4.18532
4.17995
4.18049
4.16728
4.14737
4.11951
4.07729
4.03761
4.02022
4.01433
4.01665
4.01588
4.00325
3.97706
3.93563
3.89719
3.87626
3.86223
3.84978
3.83657
3.81734
3.78636
3.74807
3.71289
3.68791
3.66488
3.6414
3.62016
3.59406
3.5663
3.55158
3.56302
3.67722
9.46585
9.19971
8.97143
8.73584
8.40875
8.11283
7.90362
7.70199
7.41122
7.09181
6.89976
6.74532
6.53008
6.26241
6.02733
5.84822
5.66979
5.51268
5.34764
5.16305
4.97583
4.80537
4.63754
4.47383
4.31009
4.17309
4.0427
3.97791
4.03637
4.26883
4.63868
4.83268
4.86376
4.84476
4.77273
4.67228
4.56934
4.45913
4.34022
4.23445
4.16197
4.11479
4.07673
4.03603
3.9794
3.89555
3.81067
3.74918
3.70991
3.67214
3.6268
3.58456
3.54215
3.50432
3.50866
3.5433
3.65052
3.83534
3.99139
4.13908
4.24177
4.25578
4.24218
4.19309
4.14462
4.12843
4.11975
4.12325
4.12226
4.10928
4.07715
4.0399
4.02119
4.01315
4.01115
4.00315
3.98745
3.96416
3.92855
3.89114
3.86831
3.85272
3.8379
3.82112
3.80088
3.77311
3.7391
3.70883
3.68398
3.65756
3.62879
3.59744
3.56796
3.54027
3.52329
3.56112
9.5686
9.35417
9.1343
8.8741
8.57761
8.31905
8.12188
7.94062
7.64627
7.32711
7.10599
6.9348
6.71756
6.44727
6.18979
6.00266
5.82226
5.64295
5.46571
5.27089
5.06888
4.89207
4.74761
4.60078
4.43209
4.24753
4.08371
3.97279
3.91328
3.95405
4.13881
4.41694
4.59835
4.74659
4.74561
4.65973
4.55018
4.43357
4.31992
4.22649
4.15142
4.0868
4.02704
3.96754
3.90429
3.84069
3.78237
3.72666
3.66226
3.58885
3.52944
3.50221
3.50379
3.53579
3.60075
3.7278
3.92188
4.05684
4.13923
4.23022
4.27979
4.2783
4.25124
4.19714
4.13625
4.11141
4.10469
4.10809
4.12068
4.11917
4.10613
4.07413
4.03983
4.02242
4.01218
4.00407
3.99311
3.97726
3.9518
3.91572
3.88526
3.86519
3.84792
3.83068
3.8112
3.78681
3.75559
3.72423
3.69769
3.67175
3.64373
3.61158
3.57945
3.54282
3.51104
3.50355
9.65189
9.46511
9.25279
9.00151
8.74673
8.52418
8.3294
8.09807
7.78703
7.49814
7.28479
7.12289
6.91542
6.63951
6.36897
6.18209
6.00081
5.80941
5.61684
5.40829
5.20318
5.02808
4.88003
4.7352
4.57864
4.39651
4.2136
4.04878
3.93513
3.85887
3.8695
3.98896
4.1917
4.44267
4.62885
4.59394
4.51943
4.42492
4.32107
4.2281
4.14735
4.06242
3.9691
3.88821
3.83394
3.79161
3.74955
3.69916
3.62587
3.53256
3.47978
3.47763
3.51533
3.61842
3.79609
4.00903
4.17057
4.2098
4.2143
4.22291
4.22875
4.23459
4.22401
4.20637
4.16649
4.1271
4.11393
4.10876
4.11303
4.11703
4.11101
4.095
4.06497
4.04205
4.02954
4.01749
4.00392
3.987
3.96426
3.93388
3.90255
3.87945
3.86144
3.84343
3.82246
3.79601
3.76192
3.72706
3.69851
3.67596
3.65312
3.62728
3.59573
3.55793
3.51784
3.47439
9.71618
9.51491
9.29857
9.07994
8.86932
8.6668
8.45532
8.19746
7.91145
7.65277
7.45827
7.29254
7.05166
6.75899
6.50555
6.32154
6.14301
5.94433
5.73597
5.51525
5.31035
5.14071
4.98814
4.83941
4.68675
4.51466
4.32461
4.14697
4.00542
3.8881
3.80504
3.77855
3.83672
4.00981
4.29358
4.44239
4.44304
4.40276
4.33118
4.24136
4.14754
4.0428
3.91761
3.81932
3.77133
3.73531
3.69946
3.65317
3.59267
3.52305
3.48848
3.51208
3.59342
3.80554
4.03781
4.2303
4.29266
4.27643
4.22647
4.1948
4.18979
4.20175
4.208
4.2016
4.18237
4.14592
4.12259
4.11559
4.11411
4.11809
4.11473
4.10334
4.08149
4.05797
4.04192
4.02777
4.01245
3.99478
3.97339
3.94731
3.9187
3.89297
3.87156
3.85182
3.83057
3.8051
3.77287
3.73761
3.70629
3.68161
3.65886
3.63556
3.60645
3.57328
3.53144
3.47517
9.76277
9.56804
9.37322
9.17362
8.96528
8.74612
8.50523
8.245
7.99538
7.78877
7.62324
7.41784
7.14499
6.86138
6.63526
6.4613
6.27857
6.06812
5.83554
5.60553
5.40867
5.2409
5.08527
4.93166
4.77169
4.59624
4.41337
4.24122
4.08834
3.9553
3.83291
3.74173
3.66834
3.68998
3.85312
4.12045
4.25825
4.31647
4.31034
4.24
4.14187
4.03027
3.90318
3.79048
3.71651
3.6702
3.62997
3.58855
3.5564
3.53509
3.53624
3.61129
3.83804
4.05209
4.20916
4.2948
4.30121
4.27717
4.23045
4.19634
4.18877
4.18892
4.18897
4.18371
4.17326
4.15689
4.14085
4.13274
4.12812
4.12436
4.11872
4.1075
4.09202
4.07428
4.05706
4.04205
4.02738
4.01029
3.98984
3.96613
3.94023
3.91394
3.88869
3.86477
3.83983
3.81155
3.77855
3.74345
3.71069
3.68405
3.66195
3.64134
3.61665
3.58653
3.54925
3.4871
9.81013
9.61139
9.42204
9.2277
9.02551
8.81079
8.58092
8.34824
8.13502
7.94858
7.74978
7.49019
7.20645
6.95636
6.7644
6.59311
6.38801
6.15084
5.89808
5.687
5.50537
5.33645
5.17392
5.0075
4.82976
4.6472
4.47783
4.32236
4.17536
4.0299
3.89013
3.75719
3.64008
3.56318
3.58347
3.72254
3.94776
4.10859
4.20613
4.18305
4.10937
4.0116
3.90594
3.7961
3.6947
3.61349
3.56157
3.53483
3.54131
3.56882
3.69706
3.93795
4.14842
4.21701
4.25454
4.26953
4.26368
4.2518
4.24247
4.22192
4.19085
4.16888
4.15984
4.15765
4.1613
4.16393
4.16053
4.15056
4.13461
4.11901
4.10932
4.1031
4.09562
4.08606
4.07247
4.05419
4.03347
4.01209
3.99015
3.96778
3.94547
3.92265
3.89705
3.86768
3.83541
3.80442
3.77701
3.75312
3.73016
3.70682
3.68172
3.65382
3.62045
3.58284
3.54721
3.49194
9.84692
9.65374
9.46398
9.26764
9.06452
8.85215
8.63414
8.42102
8.22054
8.0233
7.78805
7.52025
7.26594
7.05484
6.87982
6.68232
6.4495
6.18705
5.96098
5.77878
5.60375
5.43135
5.25288
5.0576
4.86019
4.68456
4.53235
4.39234
4.25362
4.10762
3.95063
3.78909
3.64408
3.53667
3.49277
3.49655
3.59033
3.77608
3.96611
4.03975
4.02739
3.97241
3.88954
3.7925
3.69069
3.58444
3.52856
3.53085
3.57868
3.74635
3.98989
4.22886
4.29628
4.27126
4.24274
4.22441
4.22005
4.22885
4.22902
4.21732
4.18527
4.15049
4.14166
4.14142
4.15193
4.16071
4.15842
4.14579
4.12074
4.10458
4.09797
4.09518
4.09345
4.08548
4.07278
4.04982
4.02211
4.00179
3.98507
3.96813
3.95017
3.9298
3.90284
3.86874
3.83819
3.81504
3.79545
3.77774
3.75965
3.73476
3.69395
3.64525
3.60274
3.5681
3.54435
3.5034
9.87889
9.69311
9.50487
9.30948
9.10719
8.89838
8.68853
8.48304
8.27971
8.05937
7.809
7.5575
7.33586
7.15378
6.9669
6.73537
6.47423
6.22307
6.03412
5.86564
5.69099
5.50769
5.30369
5.08373
4.88428
4.72147
4.58177
4.45107
4.32068
4.17466
3.99979
3.81687
3.66516
3.55
3.46779
3.42756
3.39869
3.44368
3.60494
3.79333
3.87175
3.89098
3.845
3.76672
3.67703
3.59248
3.561
3.6071
3.78114
4.00684
4.23562
4.33594
4.33904
4.29515
4.23347
4.2044
4.19603
4.2013
4.20134
4.19486
4.17382
4.15012
4.14499
4.14478
4.15118
4.15555
4.15232
4.13965
4.12046
4.11111
4.10599
4.10321
4.09926
4.08986
4.07411
4.04828
4.02441
4.00886
3.99562
3.98157
3.9651
3.94499
3.91502
3.87788
3.85272
3.83566
3.82003
3.80228
3.77782
3.74037
3.68694
3.63438
3.59786
3.57111
3.55377
3.51778
9.89892
9.7151
9.53017
9.33883
9.14131
8.93777
8.73311
8.52758
8.31319
8.07964
7.83701
7.60665
7.40728
7.23576
7.01648
6.76354
6.49588
6.27891
6.09782
5.92745
5.74516
5.54852
5.33114
5.11303
4.9247
4.76733
4.62828
4.4967
4.35947
4.20119
4.02533
3.85163
3.70112
3.57652
3.47792
3.40262
3.34215
3.27812
3.29403
3.43982
3.60431
3.71957
3.76724
3.73418
3.68935
3.64069
3.68939
3.85622
4.06011
4.23092
4.33687
4.34895
4.32699
4.27824
4.2271
4.19819
4.19014
4.18716
4.1843
4.1801
4.16994
4.15832
4.15432
4.15537
4.15892
4.15799
4.15247
4.14134
4.12946
4.12188
4.11762
4.11448
4.10683
4.09429
4.07486
4.05219
4.03448
4.02076
4.00822
3.99455
3.9764
3.9515
3.92102
3.89244
3.87077
3.85141
3.8306
3.80601
3.77488
3.73426
3.68738
3.6406
3.60434
3.57952
3.56515
3.53369
9.9145
9.73534
9.554
9.36411
9.16829
8.96824
8.76473
8.55463
8.33318
8.102
7.87232
7.65777
7.4708
7.27799
7.03744
6.77664
6.54069
6.33773
6.15239
5.96492
5.76957
5.5604
5.34692
5.14938
4.97673
4.81818
4.66754
4.51881
4.36109
4.19595
4.03781
3.89259
3.75837
3.62917
3.50647
3.39684
3.29176
3.20044
3.13625
3.16975
3.28767
3.43898
3.61321
3.66825
3.70402
3.80126
3.97169
4.19805
4.30961
4.35747
4.3531
4.32662
4.28719
4.25407
4.23387
4.21337
4.19057
4.17285
4.16735
4.16722
4.16806
4.17085
4.1726
4.1695
4.16281
4.15647
4.15142
4.1471
4.14288
4.13791
4.12954
4.11909
4.10678
4.09081
4.07465
4.0606
4.04699
4.03041
4.01201
3.99304
3.97162
3.94724
3.92263
3.89917
3.8746
3.8497
3.82466
3.79596
3.76148
3.72498
3.68996
3.65737
3.62802
3.5962
3.5692
3.52901
9.91672
9.74499
9.56931
9.38399
9.19152
8.9929
8.78747
8.57441
8.35509
8.13414
7.91648
7.70648
7.50186
7.26247
7.0108
6.78544
6.58674
6.39508
6.19294
5.98411
5.76779
5.55716
5.36125
5.18676
5.02501
4.86377
4.69464
4.51549
4.34135
4.18427
4.04848
3.92925
3.81311
3.68799
3.54624
3.39375
3.25529
3.14726
3.07525
3.04095
3.07924
3.17935
3.36482
3.58389
3.80118
4.06113
4.28161
4.42467
4.43628
4.39704
4.33283
4.28914
4.25854
4.24583
4.23814
4.22156
4.19
4.1625
4.15814
4.16134
4.17465
4.18668
4.1888
4.18243
4.16569
4.15645
4.15397
4.15438
4.15563
4.15068
4.14009
4.12021
4.09962
4.08722
4.0776
4.06784
4.05559
4.0385
4.01411
3.98567
3.96053
3.93914
3.91899
3.89786
3.87391
3.84414
3.81033
3.77799
3.74702
3.71774
3.69403
3.67339
3.64984
3.61873
3.58398
3.52096
9.91456
9.74686
9.57381
9.39043
9.19924
9.00053
8.79446
8.58263
8.36908
8.15729
7.9471
7.73009
7.49288
7.24538
7.0143
6.81422
6.6381
6.43648
6.21785
5.98921
5.75466
5.55132
5.37862
5.21807
5.06049
4.89469
4.70664
4.50045
4.31249
4.17097
4.06267
3.963
3.85747
3.72837
3.55899
3.36963
3.21546
3.11375
3.04226
2.99102
2.96775
3.00946
3.14232
3.46317
3.88916
4.22846
4.51059
4.62854
4.58875
4.4602
4.32836
4.26969
4.24577
4.23709
4.22603
4.21037
4.18218
4.15571
4.15278
4.15813
4.17746
4.19032
4.1913
4.18307
4.16451
4.15774
4.15579
4.16006
4.1601
4.15245
4.13872
4.11258
4.09284
4.08427
4.07534
4.0644
4.05115
4.03395
4.00717
3.97539
3.95179
3.93322
3.9149
3.89508
3.87084
3.83736
3.79546
3.75927
3.73495
3.71591
3.7014
3.68426
3.66209
3.6308
3.58573
3.50691
)
;

boundaryField
{
    inlet
    {
        type            fixedValue;
        value           uniform 1;
    }
    outlet
    {
        type            zeroGradient;
    }
    bottom
    {
        type            symmetryPlane;
    }
    top
    {
        type            symmetryPlane;
    }
    obstacle
    {
        type            zeroGradient;
    }
    defaultFaces
    {
        type            empty;
    }
}


// ************************************************************************* //
