/*--------------------------------*- C++ -*----------------------------------*\
  =========                 |
  \\      /  F ield         | OpenFOAM: The Open Source CFD Toolbox
   \\    /   O peration     | Website:  https://openfoam.org
    \\  /    A nd           | Version:  7
     \\/     M anipulation  |
\*---------------------------------------------------------------------------*/
FoamFile
{
    version     2.0;
    format      ascii;
    class       volScalarField;
    location    "11.5";
    object      rho;
}
// * * * * * * * * * * * * * * * * * * * * * * * * * * * * * * * * * * * * * //

dimensions      [1 -3 0 0 0 0 0];

internalField   nonuniform List<scalar> 
4032
(
1.40001
1.40001
1.40001
1.40001
1.40001
1.40001
1.40001
1.40001
1.40001
1.40001
1.40001
1.586
4.40229
5.46729
5.51459
5.59023
5.65716
5.72068
5.77884
5.83113
5.8777
5.91525
5.94397
5.96516
1.40001
1.40001
1.40001
1.40001
1.40001
1.40001
1.40001
1.40001
1.40001
1.40001
1.40001
1.56279
4.33233
5.4522
5.50933
5.58346
5.64906
5.71082
5.76712
5.81705
5.8609
5.89574
5.92134
5.94145
1.40001
1.40001
1.40001
1.40001
1.40001
1.40001
1.40001
1.40001
1.40001
1.40001
1.40001
1.50712
4.22319
5.44307
5.4944
5.56761
5.63315
5.69429
5.74959
5.79777
5.83905
5.87086
5.89158
5.90866
1.40001
1.40001
1.40001
1.40001
1.40001
1.40001
1.40001
1.40001
1.40001
1.40001
1.40001
1.41254
4.04295
5.43222
5.47687
5.54282
5.60428
5.66122
5.71334
5.75944
5.79963
5.83025
5.84781
5.86126
1.40001
1.40001
1.40001
1.40001
1.40001
1.40001
1.40001
1.40001
1.40001
1.40001
1.40001
1.40019
3.76662
5.37204
5.42957
5.49329
5.55568
5.61198
5.66196
5.70319
5.73571
5.76032
5.77386
5.79242
1.40001
1.40001
1.40001
1.40001
1.40001
1.40001
1.40001
1.40001
1.40001
1.40001
1.40001
1.4
3.40818
5.28835
5.39028
5.44893
5.50792
5.55704
5.59887
5.63339
5.66155
5.68517
5.69465
5.68588
1.40001
1.40001
1.40001
1.40001
1.40001
1.40001
1.40001
1.40001
1.40001
1.40001
1.40001
1.4
2.98693
5.17062
5.36117
5.41126
5.45854
5.49401
5.52092
5.54048
5.54752
5.53601
5.51789
5.51004
1.40001
1.40001
1.40001
1.40001
1.40001
1.40001
1.40001
1.40001
1.40001
1.40001
1.40001
1.40001
2.51244
5.01122
5.369
5.39388
5.42144
5.43846
5.44375
5.44109
5.42246
5.3926
5.33684
5.30827
1.40001
1.40001
1.40001
1.40001
1.40001
1.40001
1.40001
1.40001
1.40001
1.40001
1.40001
1.40001
1.99219
4.77112
5.40034
5.37721
5.3879
5.38575
5.36932
5.33951
5.27963
5.17631
4.86182
4.00517
1.40001
1.40001
1.40001
1.40001
1.40001
1.40001
1.40001
1.40001
1.40001
1.40001
1.40001
1.40001
1.50054
4.35535
5.4259
5.36797
5.34475
5.31637
5.27693
5.21705
5.11568
4.9273
4.59815
3.70492
1.40001
1.40001
1.40001
1.40001
1.40001
1.40001
1.40001
1.40001
1.40001
1.40001
1.40001
1.40001
1.40132
3.64366
5.18588
5.24222
5.25384
5.22604
5.17702
5.09274
4.96211
4.72924
4.38718
3.56288
1.40001
1.40001
1.40001
1.40001
1.40001
1.40001
1.40001
1.40001
1.40001
1.40001
1.40001
1.40001
1.39998
2.82523
4.99691
5.2013
5.19981
5.16663
5.10462
4.99666
4.83749
4.59318
4.21634
3.54962
1.40001
1.40001
1.40001
1.40001
1.40001
1.40001
1.40001
1.40001
1.40001
1.40001
1.40001
1.40001
1.4
2.00267
4.73545
5.20613
5.15714
5.09985
5.02323
4.9028
4.72829
4.48575
4.10137
3.57391
1.40001
1.40001
1.40001
1.40001
1.40001
1.40001
1.40001
1.40001
1.40001
1.40001
1.40001
1.40001
1.4
1.4785
4.01135
5.10726
5.07899
5.02605
4.94433
4.82095
4.64896
4.40397
4.04638
3.62696
1.40001
1.40001
1.40001
1.40001
1.40001
1.40001
1.40001
1.40001
1.40001
1.40001
1.40001
1.40001
1.4
1.40039
2.9395
4.94153
5.04097
4.98875
4.89882
4.75834
4.58661
4.33741
4.02193
3.67344
1.40001
1.40001
1.40001
1.40001
1.40001
1.40001
1.40001
1.40001
1.40001
1.40001
1.40001
1.40001
1.40001
1.4
1.83107
4.68981
5.10044
4.96997
4.85047
4.70294
4.51637
4.29165
4.02091
3.71882
1.40001
1.40001
1.40001
1.40001
1.40001
1.40001
1.40001
1.40001
1.40001
1.40001
1.40001
1.40001
1.40001
1.4
1.42832
3.76764
4.95896
4.86962
4.77713
4.64087
4.46724
4.2615
4.02093
3.75321
1.40001
1.40001
1.40001
1.40001
1.40001
1.40001
1.40001
1.40001
1.40001
1.40001
1.40001
1.40001
1.40001
1.4
1.39995
2.47478
4.76266
4.84571
4.77283
4.64203
4.46979
4.2644
4.03102
3.78393
1.40001
1.40001
1.40001
1.40001
1.40001
1.40001
1.40001
1.40001
1.40001
1.40001
1.40001
1.40001
1.40001
1.40001
1.39999
1.57832
4.02266
4.86135
4.76966
4.63134
4.46126
4.26511
4.04377
3.81424
1.40001
1.40001
1.40001
1.40001
1.40001
1.40001
1.40001
1.40001
1.40001
1.40001
1.40001
1.40001
1.40001
1.40001
1.4
1.40341
2.71793
4.67597
4.74106
4.60928
4.45309
4.2675
4.05932
3.85342
1.40001
1.40001
1.40001
1.40001
1.40001
1.40001
1.40001
1.40001
1.40001
1.40001
1.40001
1.40001
1.40001
1.40001
1.4
1.4
1.66014
4.03505
4.77377
4.6224
4.46608
4.27817
4.08521
3.93642
1.40001
1.40001
1.40001
1.40001
1.40001
1.40001
1.40001
1.40001
1.40001
1.40001
1.40001
1.40001
1.40001
1.40001
1.40001
1.4
1.40798
2.68523
4.58726
4.61453
4.45668
4.27867
4.14146
4.13876
1.40001
1.40001
1.40001
1.40001
1.40001
1.40001
1.40001
1.40001
1.40001
1.40001
1.40001
1.40001
1.40001
1.40001
1.40001
1.40001
1.40003
1.64041
3.84817
4.67425
4.47761
4.33599
4.41595
4.56308
1.40001
1.40001
1.40001
1.40001
1.40001
1.40001
1.40001
1.40001
1.40001
1.40001
1.40001
1.40001
1.40001
1.40001
1.40001
1.40001
1.40001
1.40704
2.39391
4.3782
4.47952
4.62299
4.88455
4.98399
1.40001
1.40001
1.40001
1.40001
1.40001
1.40001
1.40001
1.40001
1.40001
1.40001
1.40001
1.40001
1.40001
1.40001
1.40001
1.40001
1.40001
1.40004
1.5353
3.36473
4.58277
5.3051
5.41505
5.30263
1.40001
1.40001
1.40001
1.40001
1.40001
1.40001
1.40001
1.40001
1.40001
1.40001
1.40001
1.40001
1.40001
1.40001
1.40001
1.40001
1.40001
1.40001
1.40267
1.97624
4.61126
5.88142
5.69524
5.48728
1.40001
1.40001
1.40001
1.40001
1.40001
1.40001
1.40001
1.40001
1.40001
1.40001
1.40001
1.40001
1.40001
1.40001
1.40001
1.40001
1.40001
1.40001
1.40002
1.44262
4.34589
6.01648
5.72549
5.54098
1.40001
1.40001
1.40001
1.40001
1.40001
1.40001
1.40001
1.40001
1.40001
1.40001
1.40001
1.40001
1.40001
1.40001
1.40001
1.40001
1.40001
1.40001
1.40001
1.40033
3.81341
5.70965
5.48974
5.41142
1.40001
1.40001
1.40001
1.40001
1.40001
1.40001
1.40001
1.40001
1.40001
1.40001
1.40001
1.40001
1.40001
1.40001
1.40001
1.40001
1.40001
1.40001
1.40001
1.40001
3.41839
5.43701
5.34477
5.32085
1.40001
1.40001
1.40001
1.40001
1.40001
1.40001
1.40001
1.40001
1.40001
1.40001
1.40001
1.40001
1.40001
1.40001
1.40001
1.40001
1.40001
1.40001
1.40001
1.40001
3.06286
5.19331
5.2919
5.23525
1.40001
1.40001
1.40001
1.40001
1.40001
1.40001
1.40001
1.40001
1.40001
1.40001
1.40001
1.40001
1.40001
1.40001
1.40001
1.40001
1.40001
1.40001
1.40001
1.40001
2.74983
5.05437
5.28428
5.20479
1.40001
1.40001
1.40001
1.40001
1.40001
1.40001
1.40001
1.40001
1.40001
1.40001
1.40001
1.40001
1.40001
1.40001
1.40001
1.40001
1.40001
1.40001
1.40001
1.40001
2.42564
4.97894
5.33137
5.23427
1.40001
1.40001
1.40001
1.40001
1.40001
1.40001
1.40001
1.40001
1.40001
1.40001
1.40001
1.40001
1.40001
1.40001
1.40001
1.40001
1.40001
1.40001
1.40001
1.40001
2.12239
4.89259
5.408
5.2806
1.40001
1.40001
1.40001
1.40001
1.40001
1.40001
1.40001
1.40001
1.40001
1.40001
1.40001
1.40001
1.40001
1.40001
1.40001
1.40001
1.40001
1.40001
1.40001
1.40001
1.86598
4.78069
5.47579
5.32753
1.40001
1.40001
1.40001
1.40001
1.40001
1.40001
1.40001
1.40001
1.40001
1.40001
1.40001
1.40001
1.40001
1.40001
1.40001
1.40001
1.40001
1.40001
1.40001
1.40001
1.68457
4.63369
5.49372
5.34358
1.40001
1.40001
1.40001
1.40001
1.40001
1.40001
1.40001
1.40001
1.40001
1.40001
1.40001
1.40001
1.40001
1.40001
1.40001
1.40001
1.40001
1.40001
1.40001
1.40001
1.60055
4.48186
5.46894
5.33297
1.40001
1.40001
1.40001
1.40001
1.40001
1.40001
1.40001
1.40001
1.40001
1.40001
1.40001
1.40001
1.40001
1.40001
1.40001
1.40001
1.40001
1.40001
1.40001
1.40001
1.5566
4.37539
5.43711
5.31951
1.40001
1.40001
1.40001
1.40001
1.40001
1.40001
1.40001
1.40001
1.40001
1.40001
1.40001
1.40001
1.40001
1.40001
1.40001
1.40001
1.40001
1.40001
1.40001
1.40001
1.5233
4.30675
5.41856
5.31389
1.40001
1.40001
1.40001
1.40001
1.40001
1.40001
1.40001
1.40001
1.40001
1.40001
1.40001
1.40001
1.40001
1.40001
1.40001
1.40001
1.40001
1.40001
1.40001
1.40001
1.49074
4.26032
5.40202
5.30792
1.40001
1.40001
1.40001
1.40001
1.40001
1.40001
1.40001
1.40001
1.40001
1.40001
1.40001
1.40001
1.40001
1.40001
1.40001
1.40001
1.40001
1.40001
1.40001
1.40001
1.4835
4.23656
5.38992
5.30305
1.31227
0.517011
0.228607
0.208248
0.245247
0.307179
0.373561
0.462479
0.565965
0.639781
1.15656
2.0618
2.2001
2.16315
2.19536
2.26943
2.31838
2.31116
2.3074
2.34104
2.38886
2.41966
2.43555
2.44687
2.45886
2.46801
2.46982
2.46711
2.46541
2.46836
2.47451
2.4797
2.48206
2.48237
2.48148
2.47978
2.477
2.47359
2.47032
2.46696
2.4616
2.45307
2.44139
2.42848
2.41655
2.40654
2.39737
2.387
2.37401
2.35827
2.34031
2.32085
2.3014
2.28333
2.26656
2.25041
2.23359
2.21469
2.19384
2.17278
2.15331
2.13605
2.11918
2.0981
2.07386
2.05026
2.02832
2.00876
1.99114
1.9707
1.94797
1.92446
1.90187
1.88271
1.86819
1.85724
1.86539
1.95539
2.32589
2.44086
2.43725
2.42555
2.42183
2.41891
2.41515
2.40904
2.40231
2.3956
2.39136
2.39043
2.39556
2.40419
2.40852
2.40388
2.39659
2.39187
2.00312
1.24203
0.845946
0.650771
0.610229
0.598757
0.582124
0.550282
0.552203
0.5698
0.867245
1.86804
2.19064
2.18825
2.22592
2.29463
2.34083
2.34473
2.34868
2.37515
2.40445
2.42067
2.42837
2.43533
2.44563
2.45542
2.45885
2.45869
2.45886
2.46201
2.46783
2.47391
2.47912
2.48262
2.48333
2.48062
2.47587
2.47122
2.46806
2.46639
2.46403
2.45808
2.44816
2.43626
2.42439
2.41338
2.40272
2.3912
2.3783
2.36457
2.35026
2.33445
2.31539
2.29399
2.27355
2.25613
2.24156
2.22616
2.20497
2.18023
2.15642
2.13586
2.1204
2.10577
2.08537
2.06199
2.03883
2.01734
1.99754
1.97813
1.95689
1.93408
1.91045
1.88808
1.87115
1.86565
1.8789
1.96529
2.32559
2.45576
2.45316
2.4354
2.42363
2.41574
2.41407
2.41545
2.41713
2.41583
2.40991
2.40245
2.39727
2.39534
2.39944
2.40498
2.40571
2.40148
2.48459
1.84668
1.42822
1.07699
0.908272
0.848486
0.798228
0.73684
0.660473
0.634213
0.680472
1.52896
2.19806
2.28509
2.31078
2.35184
2.37813
2.37904
2.38723
2.39712
2.40447
2.40884
2.41551
2.42703
2.44428
2.46259
2.4797
2.49526
2.50747
2.51549
2.52051
2.52444
2.52966
2.5373
2.54409
2.54427
2.53744
2.52807
2.52059
2.51648
2.51482
2.51147
2.50369
2.49303
2.48215
2.47206
2.46232
2.45111
2.43665
2.41993
2.40369
2.38928
2.37484
2.3553
2.33133
2.3079
2.28806
2.27261
2.25749
2.23528
2.20848
2.18068
2.1571
2.13684
2.11821
2.09802
2.07641
2.05328
2.02875
2.00465
1.98229
1.96193
1.94338
1.92586
1.91197
1.91002
1.92248
1.99284
2.31227
2.48885
2.50264
2.48975
2.47474
2.45845
2.44347
2.43698
2.43864
2.44817
2.45622
2.45453
2.44513
2.42972
2.42054
2.41971
2.42794
2.43556
2.8182
2.26418
1.88969
1.56702
1.27877
1.10236
1.04119
0.999937
0.931814
0.835
0.77722
1.04854
2.10217
2.43223
2.46108
2.46096
2.43878
2.43386
2.45117
2.46617
2.47366
2.48332
2.49732
2.51549
2.5337
2.54972
2.56512
2.58279
2.60091
2.612
2.61338
2.61017
2.60784
2.61123
2.62133
2.63033
2.62758
2.61589
2.60365
2.59541
2.59239
2.59256
2.5897
2.58039
2.56791
2.55561
2.54511
2.53608
2.52517
2.50911
2.49034
2.47241
2.45706
2.44127
2.41862
2.39188
2.36555
2.34386
2.32506
2.30445
2.28201
2.25808
2.23077
2.20273
2.17672
2.15346
2.13229
2.11109
2.08745
2.06003
2.02999
2.00249
1.98447
1.97427
1.97245
1.98787
2.02001
2.09072
2.30634
2.534
2.57105
2.55504
2.54642
2.53778
2.52459
2.5082
2.49996
2.49907
2.50483
2.51068
2.50849
2.50212
2.49184
2.4841
2.48301
2.48847
3.03858
2.57249
2.20808
1.91764
1.66507
1.44573
1.25223
1.17234
1.12454
1.05395
0.919729
0.934387
1.66411
2.60294
2.71978
2.65991
2.6024
2.60253
2.61809
2.62302
2.62426
2.63162
2.64728
2.66509
2.67413
2.67579
2.67806
2.68677
2.7055
2.72522
2.73357
2.73163
2.72648
2.72363
2.72845
2.74181
2.75014
2.74281
2.72908
2.71707
2.70949
2.7074
2.70793
2.70257
2.68977
2.67477
2.66037
2.6478
2.63658
2.62147
2.60112
2.58093
2.56381
2.54735
2.52525
2.49956
2.47277
2.44593
2.42018
2.39544
2.37221
2.34871
2.32331
2.29473
2.26437
2.23484
2.20916
2.18597
2.16258
2.13736
2.10881
2.07954
2.05537
2.04926
2.05685
2.09233
2.15665
2.22384
2.32909
2.54522
2.65818
2.65362
2.63179
2.62333
2.61824
2.61478
2.60444
2.59324
2.58868
2.58608
2.58413
2.5811
2.57773
2.57227
2.56639
2.5639
3.20503
2.8079
2.47651
2.17642
1.91666
1.73032
1.55282
1.36505
1.27058
1.22989
1.15271
1.13433
1.33051
2.38311
3.04623
2.97197
2.84541
2.83324
2.84974
2.83963
2.81339
2.80325
2.81514
2.84168
2.85333
2.84957
2.84378
2.8419
2.85209
2.87325
2.88553
2.88164
2.87229
2.86407
2.85994
2.86576
2.87806
2.87228
2.8545
2.83807
2.82638
2.8195
2.81781
2.81282
2.79807
2.7799
2.76227
2.74661
2.73319
2.71547
2.69288
2.67111
2.65432
2.63451
2.61146
2.58774
2.56259
2.53517
2.50642
2.47869
2.45341
2.42951
2.40502
2.37864
2.34862
2.31658
2.28533
2.25717
2.23146
2.20656
2.18266
2.16075
2.14427
2.14729
2.17307
2.22795
2.30763
2.36408
2.3969
2.5087
2.6559
2.72929
2.73298
2.72475
2.71169
2.7092
2.70581
2.69338
2.68091
2.67371
2.67077
2.67067
2.66963
2.66645
2.66018
2.64954
3.32113
2.97177
2.66994
2.40737
2.13534
1.90617
1.76766
1.61672
1.4824
1.43531
1.41271
1.41129
1.46846
1.86959
2.85948
3.24378
3.16536
3.09009
3.06117
3.03465
3.0016
2.98668
2.99013
3.01652
3.02622
3.0179
3.00418
2.99675
2.99692
3.01332
3.02524
3.01777
3.00505
2.99294
2.98387
2.98142
2.98869
2.98155
2.9642
2.94429
2.93131
2.92318
2.92002
2.90972
2.89165
2.86843
2.84493
2.82785
2.81303
2.79321
2.77114
2.74916
2.72536
2.70006
2.67739
2.65599
2.63195
2.60493
2.57455
2.54329
2.51554
2.49151
2.4683
2.44321
2.41469
2.38202
2.34656
2.31497
2.28876
2.2659
2.2489
2.23921
2.23976
2.25949
2.31574
2.37701
2.43746
2.48594
2.47977
2.49869
2.58576
2.70688
2.7829
2.82001
2.81366
2.79955
2.78431
2.77197
2.75826
2.75098
2.74871
2.74809
2.75013
2.74769
2.74293
2.72909
3.41543
3.10848
2.81461
2.56616
2.34198
2.11241
1.92906
1.82252
1.7696
1.7622
1.7396
1.76908
1.76985
1.80599
2.22311
3.02671
3.3344
3.33305
3.28064
3.20905
3.14958
3.13251
3.13241
3.15004
3.15072
3.13252
3.10794
3.09684
3.09289
3.10304
3.11126
3.10168
3.08606
3.06818
3.05692
3.05071
3.05317
3.04534
3.02926
3.00863
2.99332
2.98361
2.9765
2.96278
2.9435
2.91719
2.89247
2.87572
2.85636
2.83496
2.81481
2.7925
2.76483
2.73684
2.71466
2.69353
2.67144
2.64707
2.61847
2.58534
2.55374
2.52811
2.5058
2.48253
2.45628
2.42512
2.38884
2.35306
2.32756
2.31091
2.30703
2.31783
2.3381
2.38985
2.46389
2.5038
2.53152
2.55162
2.54458
2.52651
2.5501
2.62754
2.73646
2.81878
2.87645
2.87053
2.85413
2.83389
2.81797
2.8083
2.80616
2.80661
2.80964
2.80853
2.80403
2.79048
3.483
3.20994
2.93963
2.69738
2.50087
2.32187
2.16613
2.10874
2.13259
2.12356
2.06943
2.04615
2.04931
1.98253
2.00856
2.42174
3.11854
3.4067
3.45145
3.40596
3.31215
3.24132
3.22577
3.23262
3.23433
3.21448
3.18563
3.16527
3.15651
3.1567
3.15664
3.1442
3.12649
3.10395
3.08985
3.08169
3.08038
3.07114
3.05558
3.03514
3.01554
3.00313
2.99286
2.97872
2.95868
2.93355
2.9109
2.88969
2.8682
2.8498
2.8319
2.80935
2.78167
2.75294
2.72864
2.70793
2.68806
2.66604
2.63978
2.60785
2.57387
2.54559
2.52178
2.49935
2.47471
2.44629
2.41276
2.37898
2.35699
2.35303
2.36578
2.40371
2.45535
2.53976
2.5958
2.60162
2.59245
2.58583
2.58236
2.56476
2.55809
2.58195
2.65104
2.75008
2.8457
2.88836
2.90253
2.89221
2.87578
2.85847
2.84893
2.8475
2.84858
2.84892
2.84512
2.83273
3.53599
3.28947
3.04654
2.83965
2.70357
2.60186
2.50978
2.50415
2.52307
2.44256
2.35064
2.27939
2.254
2.21581
2.13934
2.18208
2.57267
3.1839
3.46779
3.53551
3.48704
3.38095
3.30644
3.29283
3.29807
3.2846
3.25919
3.22827
3.21
3.19885
3.18982
3.17508
3.15692
3.13253
3.11433
3.10345
3.09738
3.08654
3.07122
3.05068
3.02701
3.01133
2.99899
2.98368
2.96415
2.94405
2.92138
2.89404
2.87115
2.8548
2.83713
2.81603
2.79184
2.76357
2.73464
2.7114
2.69164
2.67149
2.64855
2.62034
2.58705
2.55368
2.52602
2.50192
2.47947
2.45502
2.4295
2.40419
2.39296
2.40226
2.44492
2.50914
2.5786
2.65766
2.67824
2.67216
2.64395
2.61674
2.60562
2.59538
2.58232
2.58478
2.60639
2.66031
2.7563
2.848
2.89307
2.92603
2.92267
2.91023
2.8927
2.87666
2.87275
2.87182
2.86987
2.8604
3.58674
3.37571
3.18669
3.0589
3.03268
2.98116
2.86864
2.83133
2.80588
2.6929
2.57103
2.50133
2.45199
2.42292
2.35794
2.28628
2.32779
2.67658
3.2326
3.53574
3.57127
3.51583
3.4115
3.36102
3.35389
3.34401
3.32166
3.28785
3.25522
3.23561
3.22042
3.20431
3.18682
3.16397
3.14019
3.12552
3.11492
3.10257
3.08745
3.06751
3.04193
3.02318
3.00874
2.99094
2.97306
2.95563
2.93224
2.90117
2.87669
2.86037
2.84276
2.82356
2.80207
2.77471
2.74263
2.71478
2.69245
2.6721
2.65077
2.6262
2.59639
2.56198
2.52889
2.50206
2.47925
2.46088
2.44775
2.44191
2.45255
2.49234
2.56807
2.62411
2.67727
2.71694
2.72071
2.71057
2.68716
2.65509
2.63129
2.62066
2.61085
2.60333
2.60731
2.62508
2.66564
2.75643
2.84354
2.90201
2.94522
2.94766
2.93566
2.91375
2.89436
2.88876
2.88744
2.88117
3.65975
3.52942
3.44664
3.41584
3.423
3.32219
3.16006
3.07367
3.01562
2.9165
2.78231
2.70401
2.67284
2.61599
2.56289
2.47081
2.40634
2.45005
2.76821
3.28288
3.56313
3.57839
3.51862
3.4511
3.42011
3.39818
3.37011
3.33503
3.29396
3.26772
3.24941
3.23285
3.21445
3.19273
3.1654
3.14508
3.13155
3.11813
3.10287
3.08353
3.05794
3.03673
3.01888
2.99984
2.98244
2.96413
2.9401
2.90858
2.88364
2.86533
2.84708
2.82891
2.80858
2.7833
2.75244
2.72118
2.69408
2.6709
2.64868
2.62565
2.59984
2.56967
2.53728
2.50629
2.4818
2.47237
2.47921
2.50312
2.55117
2.63717
2.70174
2.71994
2.73668
2.7432
2.74476
2.73452
2.71942
2.69827
2.66948
2.64999
2.64028
2.63176
2.62476
2.62693
2.64332
2.67746
2.75644
2.84237
2.91535
2.96152
2.96239
2.95147
2.92914
2.91097
2.90608
2.9004
3.85023
3.8617
3.82613
3.77805
3.70459
3.55592
3.38518
3.27473
3.21084
3.1313
2.99898
2.89561
2.86426
2.81755
2.74194
2.66766
2.56519
2.52313
2.56579
2.83646
3.3064
3.55113
3.57202
3.53727
3.50231
3.4612
3.41591
3.37315
3.32752
3.29934
3.27957
3.26157
3.2402
3.21637
3.18725
3.16251
3.14731
3.13266
3.11615
3.09607
3.07166
3.04748
3.02532
3.00552
2.9875
2.96834
2.94396
2.91572
2.89187
2.86986
2.84983
2.83102
2.81053
2.78686
2.75961
2.72994
2.70049
2.67255
2.64653
2.62184
2.59783
2.57345
2.54675
2.52059
2.50492
2.5116
2.54732
2.60765
2.6855
2.77699
2.80145
2.79517
2.77723
2.76457
2.76026
2.75478
2.74577
2.73435
2.71609
2.69158
2.67524
2.66585
2.65667
2.64724
2.64772
2.66155
2.69073
2.75689
2.84777
2.92834
2.9655
2.97674
2.97069
2.95123
2.93199
2.92222
4.21625
4.23772
4.15273
4.04523
3.90318
3.74802
3.59413
3.4741
3.40352
3.33194
3.20551
3.08069
3.03148
2.99854
2.92734
2.83549
2.75401
2.66985
2.632
2.6655
2.88929
3.29363
3.52523
3.5802
3.57571
3.54425
3.48202
3.42035
3.36538
3.33536
3.31525
3.29498
3.26916
3.24157
3.2088
3.18161
3.16497
3.14863
3.12988
3.10785
3.08335
3.05605
3.02977
3.00924
2.99076
2.96995
2.94439
2.92029
2.89817
2.87485
2.85367
2.83287
2.80951
2.78487
2.7603
2.73455
2.70701
2.67674
2.64602
2.61788
2.59406
2.57448
2.55934
2.55194
2.55925
2.59536
2.66553
2.72974
2.80304
2.85762
2.86042
2.85104
2.8215
2.7939
2.78238
2.77491
2.77254
2.76685
2.75638
2.7392
2.71748
2.70434
2.69561
2.68418
2.6719
2.67134
2.68164
2.70561
2.76158
2.85282
2.92537
2.9685
2.99837
2.99321
2.97274
2.95184
4.6249
4.51947
4.38024
4.23816
4.07411
3.92549
3.80395
3.68297
3.59075
3.51672
3.39941
3.26733
3.19751
3.16528
3.10311
3.00631
2.91519
2.85103
2.77746
2.73276
2.75192
2.92132
3.25884
3.5012
3.59885
3.61286
3.56922
3.4944
3.42171
3.38157
3.35679
3.33258
3.30443
3.27414
3.23678
3.20546
3.18569
3.16667
3.14627
3.12295
3.09599
3.06448
3.03448
3.01427
2.99609
2.97307
2.94626
2.9233
2.90115
2.87895
2.85858
2.83573
2.80818
2.78151
2.75804
2.73488
2.70887
2.67801
2.64513
2.61598
2.59743
2.59009
2.59649
2.61584
2.65895
2.741
2.80401
2.84012
2.8769
2.89805
2.89854
2.88795
2.86573
2.83519
2.81425
2.80555
2.80198
2.80025
2.79285
2.781
2.76177
2.7434
2.73411
2.72489
2.71085
2.69769
2.69316
2.69731
2.71137
2.76196
2.84557
2.91912
2.98183
3.00842
3.00531
2.98827
4.89724
4.70845
4.55888
4.41437
4.24978
4.10085
4.00314
3.89339
3.77271
3.68414
3.58322
3.45339
3.37231
3.327
3.26806
3.17361
3.07477
3.01419
2.95305
2.87622
2.81663
2.82259
2.9385
3.22058
3.483
3.61197
3.6229
3.57705
3.50481
3.4478
3.40632
3.37299
3.34433
3.31363
3.27327
3.23691
3.21162
3.18773
3.16401
3.13837
3.10868
3.07302
3.04115
3.02012
2.9997
2.97532
2.95026
2.92674
2.90283
2.88092
2.85939
2.83453
2.80548
2.77849
2.75609
2.73335
2.70699
2.67709
2.64632
2.61946
2.61535
2.62519
2.66502
2.72574
2.81579
2.89968
2.91702
2.91833
2.92029
2.923
2.92483
2.91529
2.90126
2.88015
2.85357
2.84094
2.83518
2.83255
2.82672
2.81662
2.80234
2.78242
2.76778
2.75842
2.74723
2.73194
2.7172
2.70615
2.70455
2.7131
2.75714
2.83086
2.91835
2.98101
3.00494
3.00528
5.0816
4.86724
4.73345
4.60199
4.44141
4.29253
4.20196
4.10465
3.96694
3.84945
3.76262
3.6459
3.5513
3.49767
3.42814
3.34169
3.2355
3.16934
3.11573
3.04744
2.964
2.88281
2.88226
2.95723
3.18631
3.45148
3.59344
3.59878
3.5744
3.52962
3.47805
3.42774
3.38858
3.35077
3.30701
3.26548
3.23321
3.20639
3.17902
3.14977
3.11511
3.07485
3.04257
3.02028
2.99655
2.97516
2.96236
2.93802
2.9078
2.8798
2.85371
2.82748
2.80766
2.78745
2.76315
2.73631
2.70521
2.68203
2.6603
2.64449
2.65322
2.69542
2.77613
2.86109
2.95625
2.99094
2.98986
2.9729
2.95389
2.94628
2.94355
2.93893
2.92969
2.91564
2.89099
2.869
2.86005
2.85554
2.85283
2.84539
2.83395
2.81653
2.79453
2.78101
2.77163
2.75963
2.7432
2.72567
2.71023
2.70325
2.70865
2.74514
2.81399
2.90106
2.96572
2.99452
5.24941
5.03759
4.91963
4.79576
4.6336
4.48391
4.39453
4.29971
4.16309
4.02174
3.93758
3.84501
3.73542
3.66522
3.58737
3.49596
3.40408
3.31781
3.26336
3.20073
3.12018
3.02468
2.92889
2.93704
2.98528
3.15193
3.39975
3.53067
3.56617
3.5702
3.54113
3.49176
3.43623
3.37887
3.32674
3.28081
3.24435
3.22179
3.19626
3.16226
3.11965
3.0711
3.03999
3.0201
3.00155
2.9806
2.94963
2.91221
2.88462
2.87092
2.85545
2.83103
2.79436
2.75295
2.72063
2.70227
2.6959
2.69198
2.68735
2.69846
2.74434
2.83303
2.90452
2.96618
3.01912
3.03006
3.02596
3.00755
2.98016
2.96799
2.96173
2.95653
2.94943
2.93675
2.91844
2.89558
2.88133
2.8762
2.87327
2.86641
2.85458
2.83978
2.81963
2.79712
2.782
2.77072
2.75852
2.74311
2.72642
2.712
2.70225
2.70254
2.72678
2.78801
2.86657
2.94984
5.3222
5.17157
5.08057
4.96947
4.81878
4.6729
4.57909
4.48079
4.3457
4.19647
4.10401
4.03011
3.9202
3.82281
3.73839
3.64018
3.55667
3.47578
3.39745
3.33294
3.25372
3.16471
3.05949
2.97731
2.97127
2.9937
3.10558
3.289
3.44343
3.54434
3.53774
3.5024
3.45347
3.39544
3.34187
3.29981
3.26138
3.2168
3.16634
3.12027
3.0821
3.05079
3.02498
2.99832
2.96914
2.93632
2.89823
2.87138
2.85653
2.84133
2.82186
2.79561
2.75872
2.71308
2.68313
2.67357
2.68128
2.70142
2.73929
2.80339
2.90198
2.96961
2.99373
3.01549
3.03412
3.0421
3.03599
3.01859
2.99185
2.96371
2.94977
2.94434
2.94358
2.94448
2.93708
2.92316
2.90305
2.88068
2.8686
2.86464
2.86207
2.85273
2.8377
2.81594
2.79243
2.77906
2.77321
2.76308
2.74891
2.73015
2.71184
2.69649
2.69507
2.70887
2.75023
2.85267
5.33047
5.25317
5.18427
5.08857
4.94355
4.8142
4.73022
4.63873
4.50844
4.36598
4.26136
4.18435
4.08087
3.95978
3.8645
3.76644
3.67965
3.60596
3.52547
3.44028
3.35677
3.2634
3.16998
3.07234
3.00351
2.98263
2.97413
3.0204
3.15756
3.35636
3.46759
3.46109
3.42771
3.37735
3.32568
3.27782
3.23382
3.18497
3.12497
3.06725
3.03688
3.0194
3.00366
2.97903
2.94309
2.89436
2.84662
2.82139
2.80833
2.79672
2.7769
2.75027
2.71604
2.67338
2.6566
2.65824
2.67663
2.73909
2.82731
2.9249
3.01264
3.03379
3.03106
3.02715
3.02273
3.02262
3.01582
3.00525
2.99006
2.96736
2.94651
2.93739
2.93415
2.93485
2.93399
2.92699
2.91301
2.89068
2.86991
2.85817
2.84985
2.84251
2.83501
2.82444
2.80728
2.78596
2.76659
2.75266
2.73967
2.72667
2.7153
2.70104
2.68544
2.67453
2.68012
2.7394
5.28014
5.22353
5.17002
5.1045
4.99111
4.87971
4.79948
4.71923
4.59596
4.45493
4.36938
4.30005
4.20233
4.07886
3.96735
3.88115
3.79453
3.71679
3.63472
3.54237
3.44712
3.35876
3.27028
3.18326
3.09614
3.02115
2.95193
2.90603
2.93207
3.04629
3.22992
3.32416
3.34176
3.33106
3.2948
3.24516
3.19361
3.13758
3.07763
3.02428
2.98713
2.9627
2.94293
2.92185
2.89285
2.84995
2.80586
2.77373
2.75329
2.73344
2.70977
2.68835
2.66651
2.64843
2.65152
2.67108
2.72913
2.8279
2.91035
2.98574
3.03633
3.04217
3.03515
3.00959
2.98386
2.9752
2.97073
2.97253
2.97189
2.96489
2.94831
2.92912
2.91918
2.91465
2.91335
2.90875
2.90009
2.88755
2.86842
2.84799
2.83512
2.82615
2.81757
2.80771
2.79612
2.78085
2.76227
2.74552
2.73164
2.71684
2.70046
2.68285
2.66624
2.6512
2.64
2.65844
5.18822
5.14322
5.09546
5.02809
4.93789
4.85585
4.79341
4.73321
4.61997
4.48978
4.39777
4.32556
4.23085
4.10956
3.99076
3.90272
3.8171
3.72973
3.642
3.54562
3.44425
3.35292
3.27668
3.19889
3.10996
3.0124
2.92503
2.86738
2.82713
2.84463
2.93426
3.06976
3.15834
3.23269
3.23252
3.19069
3.13702
3.08004
3.02441
2.97855
2.9415
2.90932
2.87953
2.85008
2.8188
2.78705
2.7577
2.72965
2.69693
2.65906
2.62923
2.61602
2.61911
2.63878
2.67495
2.74287
2.84491
2.91483
2.95504
2.99915
3.02239
3.02154
3.00814
2.98072
2.94946
2.93646
2.93278
2.93435
2.94077
2.94007
2.93325
2.91669
2.89905
2.89003
2.88458
2.88016
2.87425
2.86567
2.85174
2.8323
2.81578
2.80458
2.79476
2.78494
2.77401
2.7605
2.74336
2.72619
2.71152
2.6969
2.68095
2.66281
2.64473
2.62447
2.60697
2.60167
5.16177
5.10662
5.0457
4.97071
4.89268
4.82534
4.76703
4.69094
4.57644
4.46602
4.38414
4.32128
4.2363
4.11784
3.99876
3.91531
3.83303
3.74405
3.6527
3.55276
3.45281
3.36559
3.29067
3.21667
3.13623
3.04233
2.94704
2.86109
2.80033
2.75866
2.76182
2.81715
2.91375
3.03687
3.12888
3.11343
3.07837
3.03308
2.98285
2.93771
2.89857
2.85698
2.81099
2.77124
2.74462
2.72392
2.70351
2.67922
2.64304
2.59554
2.57065
2.57126
2.59324
2.64968
2.7434
2.8537
2.93506
2.95357
2.95423
2.95759
2.96009
2.96291
2.95744
2.94859
2.92873
2.90866
2.90168
2.89893
2.90108
2.90311
2.89995
2.89159
2.87634
2.86469
2.85815
2.85172
2.84444
2.8354
2.82337
2.8074
2.7908
2.77825
2.76823
2.75816
2.74654
2.73213
2.71386
2.69522
2.67977
2.66731
2.65455
2.64008
2.62255
2.60175
2.58
2.55659
5.17985
5.10843
5.03132
4.95393
4.88128
4.81311
4.74119
4.64954
4.54401
4.44659
4.37384
4.31176
4.21608
4.09473
3.987
3.90786
3.83009
3.74188
3.64751
3.54564
3.44922
3.3683
3.29452
3.22169
3.14626
3.06075
2.96549
2.87491
2.80226
2.74181
2.69989
2.68236
2.70988
2.7934
2.93095
3.00397
3.00823
2.99007
2.95527
2.91192
2.86656
2.81535
2.75352
2.70505
2.68171
2.66436
2.64728
2.62504
2.59515
2.56096
2.54714
2.56041
2.6037
2.71321
2.83141
2.92611
2.956
2.94773
2.92346
2.90733
2.90454
2.9101
2.91304
2.90996
2.90062
2.88245
2.87072
2.8673
2.86662
2.86862
2.86693
2.86121
2.85027
2.83836
2.83002
2.82254
2.81444
2.80524
2.79425
2.7809
2.76612
2.7526
2.74107
2.73028
2.71874
2.70523
2.68842
2.67
2.65346
2.6403
2.62809
2.61549
2.59975
2.58184
2.55959
2.5299
5.21483
5.13814
5.06136
4.98368
4.90423
4.82125
4.72913
4.62912
4.53301
4.45361
4.39102
4.3117
4.20208
4.08514
3.99088
3.91826
3.84098
3.75007
3.64722
3.54346
3.45371
3.37647
3.30373
3.23109
3.15482
3.07039
2.98144
2.89653
2.82003
2.75278
2.69094
2.64514
2.60654
2.61658
2.69643
2.82606
2.89365
2.92468
2.92282
2.89022
2.84243
2.78739
2.72484
2.66919
2.63301
2.61057
2.59094
2.57012
2.55456
2.54737
2.54904
2.58768
2.70191
2.80906
2.88563
2.92531
2.92895
2.91746
2.89498
2.87873
2.8746
2.87442
2.87437
2.8719
2.86694
2.85888
2.85101
2.84715
2.84503
2.84332
2.84064
2.83517
2.82757
2.81872
2.80995
2.80218
2.79463
2.78599
2.77569
2.76375
2.75068
2.7373
2.72429
2.71182
2.69877
2.68411
2.66726
2.64943
2.63258
2.61863
2.60695
2.59603
2.58311
2.56741
2.54792
2.51538
5.25178
5.16924
5.09206
5.01446
4.93372
4.84718
4.7551
4.66231
4.57747
4.50424
4.42573
4.32092
4.20431
4.10039
4.02087
3.94968
3.86277
3.76032
3.64901
3.55513
3.47401
3.39771
3.32329
3.24623
3.16302
3.07659
2.99565
2.92057
2.84867
2.77672
2.70676
2.64011
2.58142
2.5415
2.55162
2.62067
2.73078
2.80783
2.85776
2.84765
2.81289
2.76538
2.713
2.65866
2.60878
2.56795
2.54168
2.5285
2.53401
2.54952
2.61406
2.73317
2.83659
2.86987
2.88688
2.89434
2.89121
2.8853
2.88107
2.87141
2.85617
2.84525
2.84084
2.83983
2.84171
2.84313
2.84164
2.83696
2.82918
2.82154
2.81682
2.81385
2.81029
2.80571
2.79907
2.78997
2.7796
2.76895
2.75806
2.74698
2.73592
2.72457
2.71178
2.69708
2.68088
2.66518
2.6511
2.6388
2.62707
2.61509
2.60228
2.58807
2.57097
2.55165
2.53333
2.5048
5.26891
5.19131
5.11543
5.03733
4.95622
4.87133
4.78408
4.69834
4.61734
4.53715
4.44071
4.32997
4.22429
4.13665
4.06351
3.97975
3.87965
3.76547
3.66637
3.58625
3.50841
3.43079
3.3497
3.26
3.16813
3.08553
3.01339
2.94646
2.87947
2.80828
2.73091
2.65014
2.57703
2.52259
2.50004
2.50163
2.54851
2.64026
2.73292
2.76887
2.76405
2.73867
2.69779
2.64959
2.59889
2.54509
2.51751
2.51925
2.54427
2.62834
2.74838
2.86441
2.89661
2.88402
2.87063
2.86205
2.85986
2.86423
2.86449
2.85878
2.84306
2.82621
2.82183
2.8216
2.82652
2.83099
2.83014
2.82435
2.81222
2.80417
2.80082
2.79938
2.7985
2.79471
2.78872
2.77765
2.76407
2.75392
2.74546
2.73696
2.72808
2.71815
2.70506
2.68833
2.67306
2.66135
2.65131
2.64216
2.63294
2.62061
2.60017
2.57564
2.55406
2.53629
2.524
2.50303
5.26962
5.19968
5.12754
5.05166
4.97252
4.89037
4.80703
4.72453
4.64221
4.55237
4.44965
4.34571
4.25366
4.17747
4.09853
3.99967
3.88715
3.77806
3.69565
3.62147
3.54374
3.46136
3.36885
3.26809
3.17566
3.09946
3.03349
2.97127
2.90864
2.83796
2.75243
2.66166
2.58519
2.52697
2.48486
2.4642
2.44922
2.47187
2.55282
2.64627
2.6838
2.69422
2.67193
2.63325
2.58805
2.5457
2.53094
2.5538
2.64013
2.75117
2.8621
2.91034
2.91194
2.89072
2.86099
2.84715
2.84338
2.84609
2.84622
2.8431
2.8329
2.82144
2.81873
2.81843
2.82125
2.82342
2.82206
2.81625
2.80701
2.80237
2.79975
2.79829
2.79622
2.79159
2.78408
2.77169
2.76008
2.75235
2.74561
2.73846
2.73026
2.72045
2.70596
2.68777
2.67522
2.66656
2.65874
2.65
2.63789
2.61921
2.59239
2.56585
2.54731
2.53356
2.52449
2.50608
5.26109
5.19338
5.12416
5.05149
4.97581
4.89699
4.81685
4.73563
4.65018
4.55623
4.45754
4.36284
4.28008
4.20795
4.11593
4.00895
3.89421
3.80032
3.72125
3.64625
3.5654
3.47754
3.37933
3.2797
3.19282
3.11948
3.05402
2.99155
2.92601
2.84962
2.76376
2.67794
2.6027
2.53961
2.48942
2.4507
2.41949
2.38619
2.39422
2.46877
2.55121
2.60839
2.63201
2.61545
2.59299
2.56832
2.59286
2.67565
2.77547
2.85788
2.90906
2.91494
2.90455
2.88119
2.85648
2.84247
2.83848
2.83696