/*--------------------------------*- C++ -*----------------------------------*\
  =========                 |
  \\      /  F ield         | OpenFOAM: The Open Source CFD Toolbox
   \\    /   O peration     | Website:  https://openfoam.org
    \\  /    A nd           | Version:  7
     \\/     M anipulation  |
\*---------------------------------------------------------------------------*/
FoamFile
{
    version     2.0;
    format      ascii;
    class       volScalarField;
    location    "11.5";
    object      T;
}
// * * * * * * * * * * * * * * * * * * * * * * * * * * * * * * * * * * * * * //

dimensions      [0 0 0 1 0 0 0];

internalField   nonuniform List<scalar> 
4032
(
1
1
1
1
1
1
1
1
1
1
1
1.17339
2.41386
2.71645
2.72667
2.74193
2.75535
2.76811
2.77973
2.79
2.79897
2.80613
2.81155
2.81549
1
1
1
1
1
1
1
1
1
1
1
1.15582
2.39979
2.71531
2.72604
2.74059
2.75377
2.76626
2.77756
2.78737
2.79577
2.80237
2.80719
2.81092
1
1
1
1
1
1
1
1
1
1
1
1.10228
2.36199
2.71246
2.72294
2.73763
2.75092
2.76337
2.77451
2.78395
2.79178
2.79773
2.80158
2.80474
1
1
1
1
1
1
1
1
1
1
1
1.00743
2.29393
2.7046
2.71809
2.733
2.74586
2.7575
2.76799
2.77701
2.78457
2.79018
2.79334
2.79574
1
1
1
1
1
1
1
1
1
1
1
1.00006
2.21184
2.68877
2.70748
2.72299
2.73651
2.74822
2.75842
2.76663
2.77272
2.7768
2.77844
2.78121
1
1
1
1
1
1
1
1
1
1
1
1
2.09737
2.67006
2.69832
2.71262
2.72596
2.73692
2.74613
2.75354
2.75903
2.76216
2.76048
2.75485
1
1
1
1
1
1
1
1
1
1
1
1
1.93904
2.63467
2.68251
2.69819
2.71179
2.72203
2.72978
2.735
2.73656
2.73299
2.72469
2.71737
1
1
1
1
1
1
1
1
1
1
1
1
1.72202
2.56471
2.65587
2.67922
2.69503
2.70538
2.7113
2.71337
2.71051
2.7052
2.69974
2.71072
1
1
1
1
1
1
1
1
1
1
1
1
1.41032
2.44071
2.62952
2.65492
2.6732
2.68473
2.68895
2.68792
2.6797
2.66102
2.60923
2.509
1
1
1
1
1
1
1
1
1
1
1
1
1.05142
2.30811
2.62996
2.63187
2.6423
2.65319
2.65788
2.65469
2.64162
2.60844
2.55056
2.38848
1
1
1
1
1
1
1
1
1
1
1
1
1.00061
2.13988
2.5889
2.59718
2.60821
2.61569
2.62015
2.61565
2.60055
2.56183
2.49765
2.31379
1
1
1
1
1
1
1
1
1
1
1
1
0.999994
1.83266
2.52402
2.58164
2.58992
2.58897
2.58752
2.57932
2.56041
2.52177
2.44923
2.29054
1
1
1
1
1
1
1
1
1
1
1
1
0.999998
1.37392
2.37983
2.56322
2.56332
2.56177
2.55655
2.54395
2.52103
2.48291
2.40903
2.28925
1
1
1
1
1
1
1
1
1
1
1
1
1
1.03845
2.19467
2.5225
2.53307
2.53218
2.52638
2.51216
2.488
2.44785
2.3794
2.28875
1
1
1
1
1
1
1
1
1
1
1
1
1
1.00023
1.82796
2.4393
2.51096
2.50797
2.50064
2.48358
2.45902
2.41663
2.35664
2.28417
1
1
1
1
1
1
1
1
1
1
1
1
1
0.999998
1.24041
2.27993
2.49117
2.47793
2.47005
2.45485
2.42882
2.3915
2.34009
2.27842
1
1
1
1
1
1
1
1
1
1
1
1
1
1
1.0134
2.08306
2.44108
2.43187
2.43062
2.42093
2.40037
2.36887
2.32488
2.27128
1
1
1
1
1
1
1
1
1
1
1
1
1
1
1.00001
1.58519
2.32437
2.4124
2.40597
2.39383
2.37448
2.34608
2.30811
2.26191
1
1
1
1
1
1
1
1
1
1
1
1
1
1
0.999998
1.08911
2.11583
2.39065
2.38276
2.36835
2.34796
2.32163
2.28796
2.24848
1
1
1
1
1
1
1
1
1
1
1
1
1
1
0.999999
1.00157
1.66588
2.27722
2.36056
2.34216
2.32278
2.29789
2.26682
2.23361
1
1
1
1
1
1
1
1
1
1
1
1
1
1
1
1
1.13025
2.07719
2.33514
2.31686
2.30072
2.27533
2.24761
2.2268
1
1
1
1
1
1
1
1
1
1
1
1
1
1
1
1
1.00356
1.62504
2.20923
2.29505
2.27376
2.24683
2.23978
2.2475
1
1
1
1
1
1
1
1
1
1
1
1
1
1
1
1
1.00001
1.11821
1.99325
2.27169
2.24116
2.24159
2.27085
2.31434
1
1
1
1
1
1
1
1
1
1
1
1
1
1
1
1
1
1.00301
1.4758
2.12339
2.19425
2.25977
2.33544
2.37815
1
1
1
1
1
1
1
1
1
1
1
1
1
1
1
1
1
1.00001
1.06324
1.8456
2.17391
2.33154
2.39514
2.38538
1
1
1
1
1
1
1
1
1
1
1
1
1
1
1
1
1
1
1.00103
1.28422
2.13164
2.4177
2.40012
2.38032
1
1
1
1
1
1
1
1
1
1
1
1
1
1
1
1
1
1
1
1.01873
2.18734
2.52342
2.45349
2.40577
1
1
1
1
1
1
1
1
1
1
1
1
1
1
1
1
1
1
1
1.00012
2.15561
2.5931
2.52072
2.46403
1
1
1
1
1
1
1
1
1
1
1
1
1
1
1
1
1
1
1
1
2.09652
2.64931
2.60529
2.55865
1
1
1
1
1
1
1
1
1
1
1
1
1
1
1
1
1
1
1
1
1.98489
2.64874
2.64305
2.61581
1
1
1
1
1
1
1
1
1
1
1
1
1
1
1
1
1
1
1
1
1.84082
2.61575
2.6545
2.63507
1
1
1
1
1
1
1
1
1
1
1
1
1
1
1
1
1
1
1
1
1.67928
2.55962
2.65875
2.63903
1
1
1
1
1
1
1
1
1
1
1
1
1
1
1
1
1
1
1
1
1.51485
2.50082
2.65413
2.63149
1
1
1
1
1
1
1
1
1
1
1
1
1
1
1
1
1
1
1
1
1.35336
2.44927
2.65116
2.62526
1
1
1
1
1
1
1
1
1
1
1
1
1
1
1
1
1
1
1
1
1.23185
2.41785
2.65656
2.62843
1
1
1
1
1
1
1
1
1
1
1
1
1
1
1
1
1
1
1
1
1.18034
2.40116
2.66673
2.6384
1
1
1
1
1
1
1
1
1
1
1
1
1
1
1
1
1
1
1
1
1.1447
2.37949
2.67256
2.64795
1
1
1
1
1
1
1
1
1
1
1
1
1
1
1
1
1
1
1
1
1.11367
2.35614
2.67307
2.65239
1
1
1
1
1
1
1
1
1
1
1
1
1
1
1
1
1
1
1
1
1.08754
2.34403
2.67228
2.65356
1
1
1
1
1
1
1
1
1
1
1
1
1
1
1
1
1
1
1
1
1.08364
2.34116
2.67129
2.65356
1.69195
1.18279
0.930499
1.00018
1.18577
1.31931
1.36853
1.40702
1.44891
1.49374
2.09812
2.79101
2.83815
2.80835
2.81476
2.84371
2.86098
2.85016
2.8373
2.83979
2.84522
2.84475
2.83879
2.83219
2.82874
2.82633
2.82076
2.8122
2.80475
2.79912
2.7935
2.78624
2.77703
2.76701
2.75685
2.74679
2.73677
2.7268
2.71723
2.70811
2.69874
2.68822
2.67637
2.66403
2.65233
2.64184
2.63219
2.62252
2.61213
2.60075
2.58843
2.57543
2.56249
2.55029
2.53889
2.52796
2.51672
2.50443
2.49128
2.47819
2.46608
2.45527
2.44463
2.43168
2.41697
2.40239
2.38842
2.37536
2.36302
2.34917
2.33418
2.31888
2.30417
2.29114
2.28122
2.27183
2.2746
2.31731
2.48284
2.53013
2.52862
2.52386
2.52202
2.51985
2.51584
2.50955
2.50256
2.49656
2.49251
2.49015
2.49017
2.49151
2.4915
2.48772
2.48396
2.48116
1.93762
1.64323
1.4248
1.32289
1.33191
1.32701
1.29487
1.25739
1.26902
1.28346
1.72103
2.61971
2.81428
2.80439
2.81752
2.84649
2.86246
2.85647
2.84724
2.84606
2.84437
2.8374
2.8264
2.81689
2.81105
2.80687
2.80138
2.79395
2.78665
2.78025
2.77402
2.76709
2.75926
2.75076
2.74138
2.73061
2.71953
2.7088
2.69897
2.69015
2.68133
2.6712
2.65953
2.64709
2.63481
2.62317
2.61206
2.60099
2.58977
2.57862
2.56766
2.55643
2.54412
2.53105
2.51849
2.50734
2.49756
2.48753
2.4751
2.46133
2.44807
2.4362
2.42655
2.41722
2.40513
2.39153
2.37782
2.36459
2.35182
2.33895
2.32506
2.31035
2.29534
2.28107
2.27034
2.26269
2.26778
2.30761
2.4673
2.51959
2.5186
2.51184
2.50712
2.50291
2.49992
2.4977
2.49523
2.49157
2.4868
2.48182
2.4773
2.4741
2.47402
2.47489
2.47479
2.47245
2.03105
1.83813
1.68397
1.52446
1.42917
1.38771
1.35278
1.31738
1.26451
1.22177
1.28071
2.24549
2.74004
2.78668
2.80566
2.82936
2.84043
2.83433
2.82725
2.8195
2.80977
2.79587
2.78308
2.77397
2.76845
2.76436
2.76107
2.75758
2.75268
2.74569
2.73697
2.72756
2.71879
2.71134
2.70407
2.69439
2.68163
2.66854
2.6563
2.64542
2.63558
2.62519
2.61322
2.60024
2.5871
2.57428
2.56176
2.549
2.53557
2.52219
2.51013
2.49988
2.49044
2.47942
2.46686
2.45468
2.44427
2.43614
2.42849
2.41802
2.40563
2.3926
2.38127
2.37149
2.36247
2.3526
2.34184
2.33003
2.31711
2.30387
2.29096
2.27862
2.26686
2.25581
2.24647
2.2398
2.24391
2.27335
2.40929
2.47681
2.48286
2.47838
2.47327
2.46696
2.46056
2.45693
2.45659
2.45854
2.46022
2.45813
2.45194
2.44324
2.43783
2.43663
2.43889
2.44214
2.0977
1.9391
1.82272
1.70624
1.57939
1.48604
1.45411
1.43271
1.39109
1.32248
1.2825
1.60503
2.45297
2.68215
2.7413
2.75707
2.75657
2.75695
2.75886
2.75576
2.74623
2.7343
2.72374
2.7149
2.70613
2.69709
2.68826
2.68109
2.67474
2.66614
2.65358
2.63855
2.62473
2.61424
2.60701
2.60041
2.58966
2.57582
2.56214
2.54954
2.53874
2.52946
2.51888
2.50608
2.49201
2.47765
2.46391
2.45117
2.43859
2.42533
2.41254
2.40145
2.3925
2.3842
2.37405
2.36308
2.35273
2.34449
2.33759
2.33011
2.32216
2.3139
2.30441
2.29458
2.28541
2.27714
2.26943
2.26137
2.25191
2.24032
2.22693
2.21376
2.20394
2.1974
2.19189
2.19589
2.20569
2.23031
2.31196
2.39922
2.40877
2.40362
2.40137
2.3998
2.39696
2.39264
2.3907
2.39072
2.39312
2.39439
2.39239
2.3885
2.38322
2.37887
2.3778
2.38024
2.14946
2.01723
1.90659
1.80948
1.71601
1.6274
1.53782
1.49789
1.47344
1.43587
1.35983
1.37225
1.96751
2.48767
2.61964
2.61764
2.6207
2.63275
2.64405
2.64249
2.63457
2.62587
2.61771
2.60851
2.59496
2.57809
2.56276
2.55143
2.54441
2.53839
2.52885
2.51456
2.49976
2.48662
2.47764
2.47233
2.46698
2.45607
2.44376
2.4319
2.42099
2.41194
2.40413
2.39386
2.38137
2.36794
2.35451
2.342
2.33064
2.31884
2.30651
2.29559
2.28694
2.27946
2.27103
2.26239
2.25396
2.24572
2.23805
2.23102
2.22491
2.21898
2.21252
2.2049
2.19647
2.18807
2.18086
2.17434
2.16747
2.15951
2.14974
2.13866
2.12908
2.12395
2.12516
2.13589
2.15627
2.17463
2.20697
2.28191
2.32186
2.31856
2.31031
2.30893
2.30996
2.31255
2.31205
2.31025
2.30986
2.3097
2.30939
2.30808
2.30622
2.30386
2.30172
2.30165
2.18555
2.07799
1.98095
1.88507
1.79501
1.72727
1.65734
1.57536
1.5307
1.51117
1.47371
1.46994
1.59245
2.16367
2.47553
2.48453
2.47186
2.4792
2.49689
2.49625
2.48672
2.4777
2.47482
2.47321
2.46599
2.44976
2.43406
2.42171
2.41493
2.41147
2.40645
2.39461
2.38122
2.36898
2.35856
2.35297
2.35
2.34163
2.33026
2.31989
2.31039
2.30211
2.2957
2.28813
2.27779
2.2664
2.25498
2.24428
2.23466
2.22418
2.21303
2.20309
2.19557
2.1878
2.17997
2.17287
2.16589
2.15848
2.15089
2.14382
2.13771
2.13223
2.12675
2.12077
2.11352
2.10531
2.09706
2.08968
2.08304
2.07654
2.07007
2.06375
2.05783
2.0581
2.06647
2.08384
2.10964
2.12078
2.12551
2.15637
2.20533
2.22887
2.2317
2.22889
2.22676
2.22951
2.23172
2.23039
2.22824
2.22776
2.22824
2.22892
2.22893
2.22864
2.22716
2.22478
2.20309
2.11418
2.03058
1.95194
1.86342
1.78284
1.73144
1.67325
1.61801
1.59764
1.59103
1.59138
1.61995
1.80971
2.21349
2.39019
2.37844
2.36726
2.36728
2.36548
2.35806
2.35282
2.35199
2.35516
2.35312
2.34152
2.32855
2.31921
2.31338
2.31238
2.31087
2.30172
2.29109
2.28145
2.27301
2.26722
2.2649
2.2577
2.24848
2.23936
2.23179
2.22542
2.22075
2.21388
2.20501
2.19457
2.18387
2.1752
2.16752
2.15868
2.14969
2.14115
2.13235
2.1236
2.11646
2.11041
2.10399
2.097
2.08916
2.08103
2.07398
2.06819
2.06285
2.05711
2.05031
2.04195
2.03233
2.02385
2.0171
2.01144
2.0073
2.00541
2.00511
2.01277
2.03257
2.05131
2.07083
2.07715
2.07049
2.07331
2.09694
2.13448
2.15657
2.17246
2.17163
2.16884
2.16565
2.16418
2.16219
2.16148
2.1624
2.16392
2.16546
2.16546
2.16513
2.16235
2.21199
2.13842
2.06128
1.9913
1.92362
1.8489
1.7842
1.74619
1.72626
1.72708
1.72292
1.73481
1.73296
1.74656
1.91305
2.21019
2.3024
2.3231
2.31035
2.29565
2.28139
2.27423
2.27369
2.27716
2.2755
2.2661
2.25453
2.24769
2.24372
2.24386
2.24342
2.23662
2.22844
2.22021
2.21393
2.20917
2.20703
2.20131
2.194
2.18594
2.17905
2.17375
2.16939
2.16316
2.15542
2.14554
2.13608
2.12908
2.12149
2.11359
2.10642
2.09879
2.08966
2.08077
2.07409
2.06811
2.06223
2.056
2.04862
2.03974
2.03115
2.02437
2.01873
2.01297
2.00645
1.99832
1.98828
1.97813
1.97096
1.96693
1.96652
1.97094
1.97943
1.99838
2.02249
2.03342
2.04076
2.04021
2.03605
2.02718
2.03182
2.05289
2.08344
2.10962
2.12949
2.12844
2.12415
2.11961
2.11662
2.11498
2.11528
2.11691
2.11904
2.11923
2.11887
2.11656
2.21259
2.14967
2.0825
2.01792
1.96266
1.90909
1.85907
1.84517
1.85474
1.85239
1.83536
1.82547
1.8255
1.80236
1.81194
1.9644
2.18746
2.26714
2.29532
2.28403
2.25997
2.23968
2.2322
2.23327
2.23293
2.22561
2.21551
2.20794
2.20381
2.20241
2.20067
2.19494
2.18826
2.18043
2.17485
2.17066
2.16819
2.16331
2.1572
2.14979
2.14236
2.13703
2.13252
2.12699
2.11984
2.11121
2.10326
2.09577
2.08822
2.0818
2.07582
2.06863
2.06008
2.05145
2.04434
2.03847
2.03305
2.02726
2.02033
2.01164
2.00215
1.99429
1.98779
1.98178
1.97519
1.96758
1.95834
1.9481
1.94123
1.94139
1.94699
1.9605
1.97852
2.00555
2.02185
2.02215
2.01772
2.01227
2.00926
2.00226
1.99688
2.00228
2.02149
2.04885
2.07811
2.09031
2.09766
2.09528
2.09109
2.08649
2.08468
2.08479
2.08601
2.08663
2.08608
2.08393
2.21053
2.15553
2.0976
2.0458
2.01184
1.98571
1.96399
1.96524
1.97248
1.94785
1.91903
1.8946
1.88471
1.87117
1.84567
1.86005
1.99267
2.1743
2.25767
2.28174
2.26685
2.23857
2.21809
2.21159
2.21194
2.20721
2.19909
2.18953
2.1834
2.17918
2.17547
2.17034
2.16448
2.15687
2.15068
2.14627
2.14306
2.13849
2.13279
2.1256
2.11744
2.11156
2.10679
2.10127
2.0947
2.08809
2.08073
2.07192
2.06431
2.05873
2.05292
2.04627
2.03903
2.03084
2.0225
2.01585
2.01034
2.00481
1.99852
1.99071
1.9814
1.97194
1.9641
1.9574
1.95116
1.94441
1.93728
1.92906
1.92737
1.93092
1.94593
1.96672
1.98748
2.01027
2.01528
2.01311
2.00356
1.99325
1.98824
1.98375
1.97906
1.97659
1.98176
1.99679
2.02445
2.05001
2.06429
2.07533
2.07456
2.07106
2.06613
2.06184
2.06124
2.06128
2.06102
2.05917
2.20534
2.16206
2.12079
2.09293
2.09233
2.08366
2.05739
2.0488
2.0424
2.01049
1.97424
1.95213
1.93594
1.92578
1.90409
1.87973
1.89293
2.00559
2.16743
2.25363
2.2634
2.24646
2.21901
2.20455
2.20085
2.19701
2.19009
2.18007
2.17029
2.16403
2.15904
2.15391
2.14843
2.14145
2.13402
2.12885
2.12468
2.11996
2.11446
2.10763
2.09927
2.09283
2.08769
2.08169
2.07585
2.07028
2.06302
2.05349
2.04574
2.04037
2.03464
2.02852
2.02202
2.01412
2.00494
1.99697
1.9907
1.98511
1.97917
1.97222
1.96368
1.9539
1.94447
1.93675
1.93018
1.9251
1.92068
1.92166
1.92585
1.93894
1.96226
1.97894
1.99417
2.00371
2.00402
2.00048
1.9927
1.98189
1.9733
1.96884
1.96482
1.96197
1.96054
1.96446
1.9758
2.00217
2.02604
2.0431
2.05624
2.05694
2.05311
2.04685
2.04148
2.04003
2.03983
2.03836
2.20284
2.18075
2.17274
2.17277
2.17938
2.15798
2.12073
2.09971
2.0853
2.05934
2.02186
1.99837
1.98887
1.97128
1.95381
1.92349
1.90165
1.91539
2.01359
2.16002
2.23627
2.24118
2.22397
2.20539
2.19633
2.18947
2.18106
2.17072
2.15873
2.15071
2.14487
2.13951
2.13361
2.12678
2.11836
2.11163
2.10667
2.10177
2.09639
2.08991
2.08177
2.07489
2.06899
2.06284
2.05731
2.05156
2.04413
2.03463
2.02704
2.02137
2.01572
2.01014
2.004
1.99647
1.98758
1.97878
1.97124
1.96489
1.95883
1.95243
1.94504
1.93639
1.9273
1.91794
1.9108
1.90853
1.91155
1.92074
1.93649
1.96332
1.98136
1.98563
1.98984
1.98958
1.98946
1.98576
1.98048
1.97313
1.96344
1.9565
1.95247
1.94885
1.94596
1.94402
1.94758
1.95677
1.97926
2.00285
2.02324
2.03616
2.03635
2.03275
2.02653
2.02152
2.02006
2.0183
2.22682
2.2377
2.24266
2.23925
2.22794
2.19732
2.15882
2.1333
2.11911
2.10006
2.06533
2.03624
2.02732
2.01391
1.99108
1.96724
1.9344
1.92041
1.93348
2.0133
2.14328
2.20867
2.21577
2.20611
2.19572
2.18383
2.17099
2.15855
2.14524
2.13646
2.12988
2.1237
2.11659
2.10886
2.09972
2.09164
2.08616
2.08095
2.07531
2.06876
2.06106
2.05343
2.04636
2.0401
2.03452
2.02863
2.02123
2.01277
2.00563
1.99908
1.99323
1.98788
1.98198
1.97509
1.96733
1.95912
1.95107
1.94345
1.93647
1.92988
1.92335
1.91647
1.90881
1.90089
1.89743
1.9004
1.91267
1.93123
1.95487
1.98081
1.98565
1.98377
1.9784
1.97339
1.97117
1.9688
1.96534
1.96088
1.95432
1.94608
1.9401
1.93608
1.93207
1.92834
1.92599
1.92871
1.93576
1.95382
1.97858
2.00018
2.0098
2.01376
2.01185
2.00627
2.00105
1.99799
2.27946
2.30374
2.292
2.27592
2.25087
2.22086
2.18854
2.16266
2.14818
2.13248
2.10124
2.06827
2.05499
2.0461
2.02601
1.99843
1.97294
1.94649
1.93343
1.94201
2.0044
2.11427
2.17502
2.19131
2.18958
2.17958
2.16242
2.1453
2.12945
2.11978
2.11265
2.10545
2.09678
2.08776
2.07755
2.06878
2.06285
2.05707
2.05067
2.04351
2.0358
2.02737
2.01924
2.0129
2.00735
2.00126
1.99388
1.98684
1.98031
1.97364
1.96783
1.96219
1.95575
1.94903
1.94247
1.9357
1.92855
1.92067
1.91258
1.90506
1.89868
1.89342
1.88848
1.88836
1.89158
1.9036
1.92455
1.94267
1.96375
1.97645
1.97671
1.9741
1.96558
1.95663
1.95221
1.94922
1.9476
1.94486
1.94057
1.93435
1.92686
1.92179
1.91802
1.91345
1.9092
1.90652
1.90798
1.91272
1.92736
1.95193
1.97059
1.98257
1.9915
1.99035
1.98496
1.97923
2.34679
2.33414
2.31419
2.29193
2.26364
2.23682
2.21427
2.19028
2.17165
2.15628
2.12899
2.09614
2.07821
2.06968
2.05289
2.0255
1.99797
1.97787
1.95445
1.93844
1.94163
1.98531
2.07529
2.13701
2.16205
2.16634
2.15385
2.13312
2.1131
2.10072
2.0923
2.08412
2.07484
2.06504
2.05367
2.04394
2.03729
2.0308
2.02379
2.01605
2.0077
1.99854
1.98994
1.98395
1.97865
1.97223
1.96502
1.95889
1.95268
1.94653
1.94125
1.93527
1.92795
1.92103
1.91525
1.90973
1.9035
1.89583
1.88721
1.87903
1.87444
1.87262
1.87548
1.88301
1.89723
1.92116
1.9375
1.94668
1.95642
1.96069
1.96041
1.95708
1.9504
1.94098
1.93398
1.93058
1.92861
1.92714
1.92399
1.91955
1.91297
1.90659
1.903
1.89951
1.89475
1.89028
1.8876
1.88588
1.88834
1.90158
1.92396
1.94285
1.95964
1.96822
1.9686
1.96438
2.36917
2.34123
2.32015
2.2995
2.27342
2.24825
2.2326
2.21306
2.18893
2.17061
2.14853
2.11824
2.09837
2.08654
2.07075
2.04523
2.01669
1.99761
1.97835
1.95401
1.93505
1.92968
1.95846
2.03196
2.09525
2.12696
2.12988
2.11865
2.09887
2.08308
2.07141
2.0614
2.05219
2.0424
2.03039
2.01969
2.01217
2.00518
1.99795
1.98991
1.98105
1.97143
1.96319
1.9576
1.95186
1.94512
1.93867
1.93299
1.92701
1.92115
1.91533
1.90876
1.90158
1.89521
1.89003
1.88465
1.87797
1.8702
1.86204
1.85481
1.85487
1.85912
1.87223
1.89023
1.91576
1.9379
1.94076
1.94095
1.94079
1.94044
1.94064
1.93759
1.93318
1.92697
1.91911
1.91472
1.91229
1.91091
1.90875
1.90561
1.90132
1.89514
1.89024
1.88708
1.88352
1.87899
1.87468
1.87102
1.86781
1.86962
1.88141
1.9008
1.92306
1.93992
1.94743
1.94866
2.35919
2.33224
2.31793
2.30283
2.28003
2.25634
2.24304
2.22761
2.20176
2.17782
2.15995
2.13456
2.11261
2.09894
2.08073
2.058
2.0294
2.0096
1.99268
1.97151
1.94604
1.92072
1.91473
1.93214
1.98915
2.05057
2.08266
2.08738
2.08206
2.07094
2.05714
2.04367
2.03288
2.02196
2.00975
1.99869
1.99045
1.98403
1.97736
1.96977
1.96049
1.94985
1.94194
1.93665
1.93057
1.92462
1.92044
1.91361
1.90652
1.90035
1.89367
1.88617
1.88057
1.87568
1.86979
1.86305
1.85516
1.84908
1.84444
1.84327
1.84617
1.85924
1.88173
1.904
1.92874
1.93658
1.9364
1.93235
1.92715
1.92499
1.92418
1.92268
1.91986
1.91627
1.91026
1.90435
1.90139
1.8997
1.89875
1.89674
1.89412
1.88981
1.8837
1.8794
1.87631
1.87285
1.86865
1.86427
1.86023
1.857
1.85813
1.86756
1.88526
1.90756
1.92396
1.93275
2.35163
2.32601
2.31636
2.30365
2.28087
2.25785
2.24578
2.23205
2.2085
2.1813
2.16474
2.14577
2.1221
2.10553
2.08631
2.06348
2.03993
2.01683
2.00099
1.98241
1.95884
1.93114
1.90307
1.90355
1.91305
1.95274
2.01055
2.0392
2.05106
2.05415
2.0466
2.0353
2.02326
2.00974
1.9969
1.9863
1.97839
1.97276
1.96614
1.9581
1.94836
1.93686
1.92899
1.9237
1.91876
1.91325
1.90523
1.89553
1.88856
1.88518
1.88109
1.87441
1.86433
1.85332
1.84456
1.83978
1.8394
1.83929
1.84076
1.84539
1.85833
1.8814
1.89982
1.91507
1.92866
1.9326
1.93183
1.92813
1.92207
1.91866
1.91674
1.9157
1.91446
1.91142
1.90684
1.90174
1.89887
1.89763
1.89676
1.8949
1.89174
1.88811
1.88324
1.87753
1.87326
1.86963
1.86604
1.86194
1.85805
1.85458
1.85267
1.85322
1.85975
1.8751
1.89518
1.91744
2.36196
2.33627
2.32345
2.30774
2.28495
2.26275
2.24987
2.23536
2.21223
2.18398
2.16666
2.15278
2.13061
2.11009
2.09099
2.06814
2.04795
2.02753
2.00774
1.99115
1.96997
1.94577
1.9173
1.89573
1.8952
1.90132
1.93006
1.97202
2.00815
2.03421
2.03403
2.02852
2.02011
2.00857
1.99687
1.98801
1.97993
1.9697
1.95795
1.94714
1.93816
1.93088
1.92434
1.91738
1.91027
1.90274
1.89389
1.88719
1.88262
1.87741
1.87181
1.86535
1.85626
1.84398
1.83576
1.83347
1.83538
1.84118
1.85185
1.86848
1.8936
1.91102
1.91715
1.92358
1.93022
1.93317
1.93186
1.92833
1.92277
1.91551
1.9119
1.91117
1.91145
1.91187
1.91011
1.90695
1.9025
1.89742
1.8947
1.89388
1.89331
1.89109
1.88751
1.88204
1.87611
1.87284
1.87134
1.8687
1.86528
1.86096
1.85615
1.85323
1.85344
1.85834
1.86976
1.89729
2.41836
2.3838
2.35893
2.33376
2.30454
2.28096
2.26594
2.24933
2.22524
2.19832
2.17862
2.16421
2.14346
2.1185
2.09822
2.07657
2.05723
2.04016
2.02145
2.00219
1.98279
1.96034
1.93778
1.91414
1.89875
1.89754
1.89982
1.91793
1.95476
2.00394
2.03171
2.03153
2.02599
2.01566
2.00459
1.99378
1.9838
1.97353
1.96031
1.94633
1.93871
1.9343
1.93058
1.92494
1.91663
1.9047
1.89214
1.8849
1.88086
1.87752
1.87228
1.86511
1.85568
1.84289
1.83847
1.83858
1.84269
1.85864
1.88139
1.90612
1.92856
1.93471
1.93522
1.93564
1.93598
1.9363
1.93454
1.93207
1.92884
1.92367
1.91843
1.9161
1.9154
1.91605
1.91625
1.91479
1.9114
1.90609
1.90114
1.89869
1.89734
1.89611
1.8946
1.89216
1.88827
1.88349
1.87887
1.87568
1.8728
1.86967
1.86655
1.86287
1.85923
1.8591
1.86121
1.87929
2.50983
2.4657
2.4294
2.39597
2.35865
2.3276
2.30548
2.28487
2.25758
2.22867
2.21077
2.19614
2.17549
2.14947
2.12693
2.10957
2.09189
2.07646
2.05978
2.04053
2.02087
2.00298
1.98533
1.9676
1.94893
1.93382
1.91732
1.91639
1.92729
1.96186
2.01063
2.03534
2.03764
2.0362
2.028
2.01569
2.0031
1.98969
1.97435
1.96022
1.95063
1.94442
1.93937
1.93387
1.92584
1.91364
1.90136
1.89235
1.88643
1.88078
1.87379
1.86672
1.85975
1.85244
1.85258
1.85716
1.87267
1.89876
1.92004
1.9408
1.95581
1.95851
1.95676
1.95055
1.94462
1.94267
1.9415
1.94197
1.94193
1.94038
1.93604
1.93092
1.92852
1.92765
1.92755
1.92675
1.92492
1.92199
1.91743
1.91279
1.9102
1.90854
1.90699
1.90532
1.90308
1.89955
1.89509
1.89122
1.88809
1.88476
1.88128
1.87727
1.87349
1.86949
1.86842
1.87538
2.58202
2.54624
2.5097
2.47088
2.43195
2.39849
2.37215
2.3487
2.31707
2.28475
2.26215
2.24451
2.22287
2.19639
2.17145
2.15331
2.13544
2.11815
2.10105
2.08124
2.06038
2.04267
2.02848
2.01355
1.99519
1.97403
1.95459
1.93972
1.93787
1.94602
1.97472
2.01441
2.03832
2.05564
2.05533
2.04459
2.03068
2.01524
1.9997
1.98657
1.97587
1.96663
1.95792
1.94892
1.93913
1.92928
1.9202
1.91136
1.90112
1.88955
1.87934
1.87426
1.8729
1.87592
1.88455
1.90273
1.92999
1.94852
1.96104
1.97467
1.98244
1.98232
1.97855
1.97134
1.96333
1.96018
1.95943
1.96
1.96172
1.96147
1.9598
1.95557
1.95091
1.94857
1.94728
1.94632
1.94499
1.94307
1.94005
1.93554
1.93175
1.92945
1.92757
1.9257
1.92347
1.9205
1.91657
1.91253
1.90918
1.90606
1.90277
1.89883
1.89481
1.88989
1.88551
1.88532
2.61784
2.59491
2.56733
2.53528
2.50281
2.47317
2.44622
2.41686
2.38218
2.35051
2.32628
2.30767
2.28539
2.25734
2.22984
2.21054
2.19178
2.1723
2.15282
2.1312
2.10972
2.09156
2.0762
2.06093
2.04389
2.02317
2.00169
1.98118
1.96734
1.95835
1.9615
1.98234
2.01404
2.04808
2.07116
2.06574
2.05538
2.04245
2.0281
2.01495
2.00316
1.99071
1.9768
1.96429
1.95566
1.94876
1.94169
1.93297
1.9206
1.90542
1.89513
1.89351
1.89781
1.91185
1.93721
1.9668
1.98933
1.99546
1.99715
1.99895
2.00003
2.00089
1.99958
1.99721
1.99169
1.98647
1.98489
1.98428
1.98487
1.98541
1.98467
1.98265
1.97855
1.97539
1.97379
1.97232
1.97069
1.96862
1.96573
1.96176
1.95771
1.95492
1.95289
1.95088
1.94844
1.94516
1.94067
1.93598
1.93222
1.92942
1.92665
1.9235
1.91952
1.91453
1.90891
1.9026
2.62608
2.60763
2.5874
2.56604
2.54382
2.52094
2.49673
2.46831
2.43751
2.40947
2.38729
2.36785
2.3416
2.31093
2.28437
2.26471
2.24544
2.22404
2.20161
2.17771
2.15542
2.13669
2.11971
2.10299
2.08548
2.06503
2.04165
2.01946
2.0011
1.98531
1.97308
1.97214
1.98217
2.00965
2.05088
2.07038
2.06775
2.06145
2.05181
2.03918
2.02562
2.01039
1.99188
1.9767
1.96885
1.96275
1.95645
1.94833
1.93814
1.92595
1.9174
1.92037
1.93217
1.96365
1.99651
2.024
2.03307
2.03106
2.024
2.01998
2.0195
2.02139
2.02236
2.02142
2.01865
2.01367
2.01052
2.0095
2.00926
2.0098
2.00934
2.00778
2.00476
2.00157
1.99953
1.99781
1.99593
1.99367
1.99079
1.98722
1.98335
1.98001
1.9774
1.9751
1.97253
1.96921
1.96474
1.95981
1.9555
1.95216
1.94911
1.94602
1.94213
1.93761
1.93157
1.9231
2.62097
2.60703
2.59269
2.57703
2.55931
2.53972
2.51788
2.49357
2.46934
2.44842
2.43054
2.40856
2.38049
2.35144
2.32765
2.30864
2.28849
2.2654
2.24
2.21472
2.19247
2.17306
2.15496
2.13685
2.11752
2.09575
2.0724
2.04994
2.02966
2.01158
1.99414
1.9804
1.97031
1.97433
2.00056
2.04124
2.06023
2.06623
2.06461
2.05383
2.04003
2.02426
2.00543
1.98812
1.97612
1.96827
1.96144
1.95477
1.94905
1.94285
1.9422
1.95381
1.98869
2.01952
2.04213
2.05542
2.05593
2.05249
2.04583
2.04079
2.04004
2.04024
2.0403
2.03949
2.03791
2.03564
2.03339
2.03216
2.0314
2.03077
2.02991
2.02828
2.02607
2.02362
2.02135
2.01946
2.01756
2.01524
2.0124
2.00908
2.00545
2.0018
1.99839
1.99523
1.99193
1.98807
1.9833
1.97811
1.97334
1.96961
1.96657
1.96373
1.96017
1.95573
1.9502
1.94084
2.61515
2.60309
2.59048
2.57632
2.5611
2.54481
2.52641
2.50682
2.48807
2.47057
2.45151
2.42687
2.39969
2.37513
2.35526
2.337
2.31524
2.29002
2.2629
2.23953
2.21863
2.19885
2.17962
2.15959
2.13774
2.11471
2.0927
2.07197
2.05202
2.03185
2.01208
1.99237
1.97416
1.96281
1.96615
1.98865
2.02392
2.04857
2.06056
2.05654
2.04528
2.03091
2.0156
1.99896
1.98277
1.97002
1.96178
1.9572
1.95652
1.95972
1.98003
2.01713
2.04746
2.05718
2.06326
2.06519
2.06459
2.06306
2.06155
2.05847
2.05423
2.0513
2.05003
2.04967
2.05011
2.05039
2.04979
2.04825
2.04599
2.04379
2.04239
2.04146
2.04032
2.03888
2.03692
2.03439
2.03154
2.02855
2.02542
2.02219
2.01895
2.01563
2.01192
2.00764
2.00292
1.99844
1.99458
1.9912
1.98786
1.98447
1.98073
1.97651
1.97149
1.96578
1.96031
1.95175
2.61643
2.60344
2.59013
2.57572
2.56049
2.54408
2.52668
2.50929
2.49252
2.47571
2.4553
2.43151
2.40806
2.38764
2.37031
2.35072
2.32736
2.30035
2.2762
2.25593
2.23614
2.21637
2.19544
2.17198
2.14773
2.12554
2.1057
2.08701
2.06812
2.04776
2.0253
2.00168
1.97969
1.96281
1.95592
1.9568
1.97232
2.00228
2.03174
2.04259
2.03989
2.03069
2.01846
2.0039
1.98815
1.97173
1.96225
1.96217
1.9692
1.99552
2.03242
2.06689
2.0765
2.07342
2.06918
2.06642
2.06587
2.06702
2.06691
2.06532
2.06094
2.05601
2.05482
2.05486
2.05649
2.05759
2.05708
2.05503
2.05142
2.04925
2.04839
2.04805
2.04783
2.04661
2.04464
2.04121
2.0372
2.03439
2.03212
2.02977
2.02716
2.02408
2.01991
2.01473
2.01024
2.0069
2.00416
2.00172
1.9991
1.99522
1.98893
1.9814
1.97484
1.96955
1.96597
1.95954
2.62457
2.60985
2.59517
2.58001
2.56412
2.54741
2.53046
2.51375
2.49701
2.47852
2.45697
2.43471
2.41445
2.39746
2.37981
2.35758
2.33178
2.30603
2.28588
2.26757
2.24831
2.22768
2.20407
2.1778
2.15325
2.13265
2.11456
2.09726
2.07966
2.05942
2.03447
2.00763
1.98486
1.96679
1.9538
1.94732
1.94273
1.95041
1.977
2.00685
2.0197
2.02188
2.01466
2.00263
1.98909
1.97568
1.96979
1.97743
2.00506
2.03899
2.07187
2.08579
2.08613
2.08019
2.07162
2.06739
2.06601
2.06664
2.06657
2.06564
2.06268
2.0593
2.05873
2.05885
2.05996
2.06055
2.05994
2.05789
2.05509
2.05383
2.05319
2.05287
2.05241
2.05109
2.04871
2.04482
2.04132
2.03914
2.03739
2.03553
2.0332
2.03018
2.02554
2.01991
2.01622
2.0138
2.0115
2.00875
2.005
1.99928
1.99111
1.98303
1.97739
1.97334
1.97081
1.96519
2.63416
2.61895
2.6038
2.58823
2.57202
2.55523
2.53826
2.52103
2.50281
2.48265
2.46141
2.44092
2.42291
2.40737
2.38661
2.36196
2.33533
2.3131
2.29411
2.27589
2.25592
2.23375
2.20861
2.1826
2.15941
2.13955
2.12167
2.1044
2.08587
2.06403
2.03906
2.0136
1.99085
1.97162
1.95592
1.94381
1.93389
1.92331
1.92616
1.95067
1.9779
1.99641
2.00385
1.99884
1.99195
1.98456
1.99208
2.01772
2.048
2.07263
2.08715
2.08874
2.08563
2.07885
2.07177
2.06774
2.06667
2.06631
2.06586
2.06512
2.06359
2.06213
2.06167
2.06184
2.06234
2.06224
2.06151
2.05993
2.05824
2.05713
2.05648
2.056
2.0549
2.05323
2.05052
2.04721
2.04459
2.04254
2.04069
2.03871
2.03613
2.03255
2.02817
2.02391
2.02052
2.01749
2.01439
2.01081
2.00624
2.00025
1.99311
1.98589
1.98026
1.97635
1.97404
1.96903
2.64044
2.62616
2.61148
2.59598
2.5799
2.56334
2.54629
2.52842
2.50925
2.48897
2.4686
2.44934
2.4323
2.4142
2.39116
2.36548
2.34184
2.32102
2.30159
2.28146
2.25989
2.23624
2.21143
2.18784
2.16665
2.14673
2.12738
2.10782
2.08655
2.06373
2.04125
2.02001
1.99986
1.98001
1.96067
1.94301
1.9257
1.91026
1.89928
1.90518
1.92559
1.95122
1.9792
1.9881
1.99389
2.00923
2.03496
2.06753
2.08306
2.08983
2.08919
2.08549
2.08014
2.07561
2.07276
2.06991
2.06683
2.06438
2.06356
2.06352
2.06369
2.06425
2.06453
2.06407
2.06312
2.06233
2.06178
2.06128
2.06068
2.05993
2.05869
2.05718
2.05545
2.05323
2.05102
2.04902
2.047
2.04452
2.04178
2.03903
2.03596
2.03246
2.02893
2.02546
2.02174
2.01795
2.01427
2.01017
2.00519
1.99975
1.99447
1.98945
1.98479
1.97967
1.9753
1.96899
2.64254
2.62915
2.61524
2.6004
2.58481
2.56851
2.55141
2.5334
2.51454
2.49516
2.47575
2.4567
2.43774
2.41493
2.3907
2.36854
2.34838
2.32853
2.30718
2.28462
2.26066
2.23677
2.21391
2.19303
2.17323
2.15303
2.13132
2.10772
2.08421
2.06238
2.04299
2.0256
2.00831
1.98926
1.96711
1.94259
1.91963
1.90119
1.88864
1.88269
1.88954
1.90714
1.93849
1.97407
2.00794
2.04693
2.07842
2.09795
2.09961
2.09441
2.08583
2.07982
2.0756
2.07393
2.07292
2.07065
2.06626
2.0624
2.06182
2.06233
2.06436
2.06614
2.0665
2.06569
2.06342
2.06226
2.06205
2.06218
2.0624
2.06178
2.06038
2.05759
2.05469
2.05289
2.05153
2.05017
2.04845
2.046
2.04247
2.03836
2.0347
2.03159
2.0286
2.02552
2.02205
2.01772
2.01272
2.00788
2.00322
1.99879
1.99519
1.99202
1.98839
1.98358
1.97818
1.96839
2.64288
2.62975
2.6161
2.60149
2.58609
2.56988
2.55283
2.53502
2.51673
2.49824
2.47953
2.45979
2.43779
2.41451
2.39217
2.37233
2.35434
2.33344
2.31036
2.28569
2.25974
2.23653
2.21629
2.19708
2.17785
2.15715
2.13309
2.10594
2.08039
2.0606
2.04512
2.03064
2.01503
1.99552
1.96919
1.93866
1.91287
1.89538
1.88285
1.87374
1.8697
1.8773
1.90098
1.95505
2.02114
2.07031
2.109
2.125
2.11988
2.10284
2.08496
2.07682
2.07352
2.07237
2.07094
2.0688
2.06486
2.06121
2.06085
2.06169
2.06454
2.06645
2.06665
2.06562
2.06311
2.06232
2.06216
2.06287
2.06293
2.06199
2.06018
2.0565
2.05366
2.05246
2.05122
2.04971
2.04786
2.04541
2.04154
2.03687
2.03342
2.03073
2.0281
2.02527
2.02178
2.01685
2.01054
2.00502
2.00132
1.99845
1.99627
1.9937
1.99036
1.98558
1.97864
1.96619
)
;

boundaryField
{
    inlet
    {
        type            fixedValue;
        value           uniform 1;
    }
    outlet
    {
        type            inletOutlet;
        inletValue      uniform 1;
        value           nonuniform List<scalar> 
32
(
2.481
2.47225
2.44245
2.38086
2.30184
2.22462
2.16194
2.11623
2.08379
2.0592
2.0385
2.0185
1.99817
1.97939
1.96435
1.94846
1.93257
1.9174
1.89729
1.87916
1.87527
1.88523
1.90246
1.92297
1.94066
1.95175
1.95983
1.96558
1.96946
1.96931
1.96809
1.96554
)
;
    }
    bottom
    {
        type            symmetryPlane;
    }
    top
    {
        type            symmetryPlane;
    }
    obstacle
    {
        type            zeroGradient;
    }
    defaultFaces
    {
        type            empty;
    }
}


// ************************************************************************* //
