/*--------------------------------*- C++ -*----------------------------------*\
  =========                 |
  \\      /  F ield         | OpenFOAM: The Open Source CFD Toolbox
   \\    /   O peration     | Website:  https://openfoam.org
    \\  /    A nd           | Version:  7
     \\/     M anipulation  |
\*---------------------------------------------------------------------------*/
FoamFile
{
    version     2.0;
    format      ascii;
    class       volVectorField;
    location    "11.5";
    object      U;
}
// * * * * * * * * * * * * * * * * * * * * * * * * * * * * * * * * * * * * * //

dimensions      [0 1 -1 0 0 0 0];

internalField   nonuniform List<vector> 
4032
(
(3 6.61713e-18 0)
(3 4.9944e-17 0)
(3 -1.01022e-17 0)
(3 -2.80663e-17 0)
(3 1.20204e-16 0)
(3 1.60521e-16 0)
(3 -3.73827e-17 0)
(3 -1.88478e-16 0)
(3 8.51814e-17 0)
(3 3.4357e-16 0)
(3 3.5105e-16 0)
(2.89985 0.00321452 0)
(0.988013 0.0160839 0)
(0.709496 0.0193454 0)
(0.657786 0.0241258 0)
(0.598022 0.0255774 0)
(0.539132 0.0267832 0)
(0.478399 0.0281124 0)
(0.415886 0.0296168 0)
(0.350943 0.0314196 0)
(0.283056 0.0334178 0)
(0.210652 0.036454 0)
(0.132 0.0390961 0)
(0.049433 0.0445577 0)
(3 1.36275e-16 0)
(3 4.37957e-16 0)
(3 2.29945e-16 0)
(3 -9.17372e-17 0)
(3 -9.72565e-17 0)
(3 -1.59774e-16 0)
(3 -7.22472e-16 0)
(3 -7.96525e-16 0)
(3 -6.40025e-16 0)
(3 -5.93294e-16 0)
(3 -5.05438e-16 0)
(2.90993 0.020318 0)
(0.99407 0.0743809 0)
(0.695475 0.066656 0)
(0.64145 0.0707827 0)
(0.582784 0.0752983 0)
(0.524116 0.0796942 0)
(0.463118 0.0843392 0)
(0.400067 0.0891142 0)
(0.334846 0.0946568 0)
(0.267502 0.100607 0)
(0.197434 0.110238 0)
(0.122226 0.118865 0)
(0.0459761 0.134588 0)
(3 1.47925e-16 0)
(3 4.75252e-16 0)
(3 1.89095e-16 0)
(3 -6.18447e-16 0)
(3 -1.03092e-15 0)
(3 -1.06484e-15 0)
(3 -5.56273e-16 0)
(3 -8.95572e-16 0)
(3 -1.18636e-15 0)
(3 -1.33968e-15 0)
(3 -1.79716e-15 0)
(2.95405 0.0405275 0)
(1.03169 0.137833 0)
(0.710906 0.115768 0)
(0.656494 0.122304 0)
(0.595791 0.129753 0)
(0.534973 0.137322 0)
(0.47181 0.145378 0)
(0.406171 0.153357 0)
(0.337851 0.162066 0)
(0.266928 0.170167 0)
(0.194384 0.183597 0)
(0.117681 0.195129 0)
(0.0438073 0.217481 0)
(3 -1.61607e-16 0)
(3 -6.60984e-16 0)
(3 -1.09513e-15 0)
(3 -6.84987e-16 0)
(3 2.31254e-17 0)
(3 -2.57481e-16 0)
(3 -6.1866e-17 0)
(3 -7.44648e-17 0)
(3 -5.96967e-16 0)
(3 -6.25111e-16 0)
(3 -1.49856e-15 0)
(3.00843 0.00639602 0)
(1.10711 0.182285 0)
(0.743686 0.152608 0)
(0.692211 0.166536 0)
(0.632772 0.178525 0)
(0.571767 0.19008 0)
(0.507997 0.202848 0)
(0.44041 0.216142 0)
(0.368209 0.231188 0)
(0.29078 0.244402 0)
(0.211127 0.262872 0)
(0.126816 0.277041 0)
(0.0459039 0.302496 0)
(3 3.50654e-16 0)
(3 -7.08898e-16 0)
(3 -6.39371e-16 0)
(3 -2.26977e-16 0)
(3 -5.20932e-17 0)
(3 1.76662e-17 0)
(3 3.16378e-16 0)
(3 2.15822e-16 0)
(3 2.63241e-17 0)
(3 -1.09643e-16 0)
(3 -4.32397e-16 0)
(3.0006 3.11344e-05 0)
(1.21566 0.224484 0)
(0.750214 0.19703 0)
(0.695745 0.217734 0)
(0.639728 0.234245 0)
(0.581395 0.249248 0)
(0.52111 0.266776 0)
(0.457238 0.285655 0)
(0.389344 0.307369 0)
(0.3147 0.325454 0)
(0.235688 0.348598 0)
(0.145608 0.367801 0)
(0.0550044 0.399443 0)
(3 1.20909e-16 0)
(3 7.25506e-16 0)
(3 1.61866e-15 0)
(3 1.09255e-15 0)
(3 -8.48012e-16 0)
(3 -9.80711e-16 0)
(3 -1.26152e-15 0)
(3 -1.56063e-15 0)
(3 -1.29861e-15 0)
(3 -5.598e-16 0)
(3 3.21798e-17 0)
(3 -1.22777e-07 0)
(1.39536 0.274662 0)
(0.765612 0.245328 0)
(0.697038 0.261907 0)
(0.648098 0.281132 0)
(0.59795 0.29884 0)
(0.54753 0.320299 0)
(0.492178 0.344606 0)
(0.430439 0.375105 0)
(0.355215 0.405443 0)
(0.26834 0.443189 0)
(0.166217 0.47836 0)
(0.0561661 0.517285 0)
(3 -1.36768e-16 0)
(3 1.64855e-16 0)
(3 7.05181e-16 0)
(3 8.27088e-16 0)
(3 7.55211e-16 0)
(3 2.36226e-16 0)
(3 -7.28318e-16 0)
(3 -7.86574e-16 0)
(3 -5.60242e-16 0)
(3 -1.92624e-16 0)
(3 4.52109e-16 0)
(3 -1.20214e-07 0)
(1.66936 0.325874 0)
(0.795998 0.309243 0)
(0.696727 0.30864 0)
(0.645989 0.325246 0)
(0.598001 0.343565 0)
(0.554667 0.369829 0)
(0.508374 0.40232 0)
(0.459148 0.444971 0)
(0.39787 0.492074 0)
(0.326615 0.54373 0)
(0.233407 0.59464 0)
(0.10144 0.660308 0)
(3 -5.36599e-17 0)
(3 -8.29483e-17 0)
(3 -1.05162e-16 0)
(3 5.1919e-17 0)
(3 3.83788e-16 0)
(3 3.1995e-16 0)
(3 1.5172e-16 0)
(3 2.44404e-16 0)
(3 5.32467e-16 0)
(3 8.19272e-16 0)
(3 4.17573e-16 0)
(3 -2.49549e-08 0)
(2.07237 0.367405 0)
(0.852283 0.394395 0)
(0.716927 0.370054 0)
(0.66724 0.37907 0)
(0.620275 0.39232 0)
(0.57957 0.416682 0)
(0.540544 0.452257 0)
(0.502084 0.501247 0)
(0.457788 0.560604 0)
(0.395663 0.641577 0)
(0.275399 0.757575 0)
(0.151506 0.924491 0)
(3 5.88402e-17 0)
(3 -5.08741e-17 0)
(3 -6.80559e-16 0)
(3 -1.14234e-15 0)
(3 -8.14564e-16 0)
(3 -6.50222e-16 0)
(3 -1.92874e-16 0)
(3 -1.6719e-16 0)
(3 2.02574e-16 0)
(3 7.89132e-17 0)
(3 -5.3947e-16 0)
(3 -2.56675e-09 0)
(2.65625 0.302892 0)
(0.984462 0.477839 0)
(0.803467 0.406352 0)
(0.75169 0.414973 0)
(0.694033 0.433399 0)
(0.642622 0.459492 0)
(0.599904 0.496737 0)
(0.563705 0.550087 0)
(0.529918 0.626926 0)
(0.497 0.751098 0)
(0.465491 0.923266 0)
(0.578023 1.20245 0)
(3 9.51232e-17 0)
(3 -6.80806e-16 0)
(3 -8.02191e-16 0)
(3 -5.43453e-16 0)
(3 -3.02924e-16 0)
(3 1.6483e-16 0)
(3 8.06136e-16 0)
(3 1.21946e-15 0)
(3 1.28343e-15 0)
(3 5.16204e-16 0)
(3 -3.85485e-16 0)
(3 -1.023e-10 0)
(3.07668 0.0426655 0)
(1.21912 0.469487 0)
(0.882242 0.447496 0)
(0.838742 0.474161 0)
(0.785183 0.489888 0)
(0.730847 0.511212 0)
(0.682619 0.544821 0)
(0.643827 0.597063 0)
(0.624485 0.681698 0)
(0.623496 0.816659 0)
(0.686538 0.965893 0)
(0.969287 1.13875 0)
(3 1.02174e-16 0)
(3 -1.97408e-16 0)
(3 -2.50835e-16 0)
(3 1.30795e-17 0)
(3 1.06762e-16 0)
(3 4.26769e-16 0)
(3 8.70834e-16 0)
(3 9.96711e-16 0)
(3 3.82332e-16 0)
(3 2.75179e-16 0)
(3 9.16116e-16 0)
(3 -2.11828e-12 0)
(3.00862 8.16598e-05 0)
(1.43614 0.462116 0)
(0.884204 0.512133 0)
(0.836677 0.531623 0)
(0.801018 0.551056 0)
(0.772541 0.575524 0)
(0.745066 0.607623 0)
(0.720512 0.651671 0)
(0.723371 0.725592 0)
(0.751226 0.840149 0)
(0.873019 0.963486 0)
(1.17991 1.06982 0)
(3 2.12708e-16 0)
(3 -1.26061e-16 0)
(3 -1.21437e-16 0)
(3 -6.01257e-17 0)
(3 1.7572e-17 0)
(3 4.21614e-16 0)
(3 5.02464e-16 0)
(3 1.20391e-16 0)
(3 1.99794e-16 0)
(3 4.92132e-16 0)
(3 1.59715e-15 0)
(3 -1.57187e-14 0)
(3.00006 -2.50009e-06 0)
(1.94307 0.494158 0)
(0.929092 0.576578 0)
(0.853481 0.560387 0)
(0.834106 0.582157 0)
(0.819693 0.607643 0)
(0.809608 0.642235 0)
(0.801905 0.68267 0)
(0.817644 0.746089 0)
(0.867143 0.837511 0)
(1.0104 0.939649 0)
(1.27539 1.00615 0)
(3 2.05794e-17 0)
(3 2.10466e-17 0)
(3 -7.72281e-18 0)
(3 -1.6276e-17 0)
(3 -7.54053e-17 0)
(3 -1.32386e-16 0)
(3 -3.01764e-16 0)
(3 3.63896e-16 0)
(3 9.35922e-16 0)
(3 1.10874e-15 0)
(3 9.29079e-16 0)
(3 9.47285e-16 0)
(3.00001 -3.17437e-06 0)
(2.74729 0.319319 0)
(1.09639 0.634964 0)
(0.920582 0.580807 0)
(0.891513 0.601862 0)
(0.873902 0.630745 0)
(0.87012 0.668918 0)
(0.87648 0.710916 0)
(0.901499 0.765463 0)
(0.966413 0.834612 0)
(1.10533 0.906749 0)
(1.31984 0.946803 0)
(3 1.91727e-16 0)
(3 1.47216e-16 0)
(3 2.22701e-16 0)
(3 3.30493e-16 0)
(3 -3.42473e-17 0)
(3 -5.49729e-16 0)
(3 -3.00537e-16 0)
(3 3.10626e-17 0)
(3 5.5796e-16 0)
(3 7.6427e-16 0)
(3 6.15919e-16 0)
(3 8.87447e-16 0)
(3 -6.69996e-07 0)
(3.07452 0.026044 0)
(1.43591 0.631728 0)
(1.00203 0.652408 0)
(0.950599 0.652269 0)
(0.92496 0.666785 0)
(0.923193 0.694185 0)
(0.939422 0.730314 0)
(0.974429 0.773636 0)
(1.04776 0.827543 0)
(1.1745 0.879242 0)
(1.34899 0.905681 0)
(3 6.6134e-17 0)
(3 -1.32963e-17 0)
(3 8.47994e-16 0)
(3 7.99142e-16 0)
(3 8.40593e-16 0)
(3 8.59001e-16 0)
(3 3.46674e-16 0)
(3 -6.23502e-16 0)
(3 -6.49506e-16 0)
(3 -3.40727e-16 0)
(3 -1.91069e-16 0)
(3 3.23132e-16 0)
(3 -6.80314e-08 0)
(3.00413 7.32381e-05 0)
(1.9897 0.599912 0)
(1.06364 0.724377 0)
(1.011 0.701977 0)
(0.994945 0.699069 0)
(0.991304 0.715256 0)
(1.00608 0.741865 0)
(1.04426 0.77771 0)
(1.11505 0.816356 0)
(1.22216 0.849487 0)
(1.36106 0.865759 0)
(3 -1.41688e-16 0)
(3 5.05243e-18 0)
(3 -4.03852e-16 0)
(3 -3.7595e-17 0)
(3 3.53526e-16 0)
(3 1.75768e-16 0)
(3 -9.88264e-16 0)
(3 -1.27676e-15 0)
(3 -9.61765e-16 0)
(3 -4.88434e-16 0)
(3 -5.09761e-17 0)
(3 -1.51525e-16 0)
(3 -2.15487e-09 0)
(3.00001 -3.27367e-07 0)
(2.93314 0.221651 0)
(1.28186 0.698075 0)
(1.08256 0.719141 0)
(1.08723 0.720512 0)
(1.08169 0.740661 0)
(1.08682 0.762136 0)
(1.11469 0.78824 0)
(1.17554 0.817337 0)
(1.26432 0.839171 0)
(1.37765 0.848522 0)
(3 -1.39712e-16 0)
(3 -1.4509e-16 0)
(3 -2.65408e-16 0)
(3 -1.80392e-16 0)
(3 -1.45253e-16 0)
(3 -9.11479e-16 0)
(3 -8.25479e-16 0)
(3 -3.39431e-16 0)
(3 -2.18233e-16 0)
(3 -1.71546e-16 0)
(3 1.30044e-16 0)
(3 3.11951e-16 0)
(3 -4.7718e-12 0)
(3 -7.82057e-07 0)
(3.04119 0.00643167 0)
(1.57267 0.659847 0)
(1.10017 0.756521 0)
(1.11134 0.765375 0)
(1.11719 0.783259 0)
(1.13973 0.79525 0)
(1.17367 0.806089 0)
(1.22784 0.817594 0)
(1.30276 0.828177 0)
(1.39743 0.831616 0)
(3 -1.33224e-17 0)
(3 2.79466e-16 0)
(3 2.9761e-17 0)
(3 -3.65848e-16 0)
(3 -1.15882e-15 0)
(3 -9.19564e-16 0)
(3 1.72144e-16 0)
(3 1.84209e-16 0)
(3 4.60206e-17 0)
(3 -4.62666e-16 0)
(3 -2.65004e-16 0)
(3 -2.54016e-16 0)
(3 -5.52108e-15 0)
(3 -1.49684e-07 0)
(3.0008 3.57998e-05 0)
(2.38946 0.510778 0)
(1.20583 0.78907 0)
(1.13548 0.791868 0)
(1.14886 0.795547 0)
(1.17694 0.805403 0)
(1.21685 0.816963 0)
(1.26956 0.827491 0)
(1.33837 0.834474 0)
(1.41883 0.834429 0)
(3 2.68084e-16 0)
(3 7.4363e-16 0)
(3 3.05776e-16 0)
(3 6.41152e-16 0)
(3 4.24475e-16 0)
(3 4.80281e-16 0)
(3 3.96112e-16 0)
(3 3.28594e-16 0)
(3 4.15974e-17 0)
(3 -1.54792e-16 0)
(3 -2.08704e-16 0)
(3 -4.03579e-16 0)
(3 -5.87197e-17 0)
(3 -4.68902e-09 0)
(3.00002 -5.56353e-06 0)
(3.05774 0.0723845 0)
(1.56679 0.776564 0)
(1.18505 0.786181 0)
(1.19844 0.794043 0)
(1.22129 0.806225 0)
(1.25888 0.817481 0)
(1.30872 0.826835 0)
(1.37243 0.832575 0)
(1.44313 0.832584 0)
(3 -2.29391e-16 0)
(3 1.49031e-16 0)
(3 1.20328e-15 0)
(3 1.51842e-15 0)
(3 1.45887e-15 0)
(3 1.11165e-15 0)
(3 -2.32005e-16 0)
(3 -5.23062e-16 0)
(3 -5.43083e-16 0)
(3 -4.62278e-16 0)
(3 -5.17672e-16 0)
(3 -1.51042e-16 0)
(3 2.19004e-16 0)
(3 -1.69593e-11 0)
(3 -1.39912e-06 0)
(3.00816 0.001379 0)
(2.29468 0.631016 0)
(1.26375 0.848484 0)
(1.22279 0.833618 0)
(1.25562 0.83315 0)
(1.28969 0.837748 0)
(1.33788 0.842512 0)
(1.39708 0.846971 0)
(1.45895 0.842663 0)
(3 1.86337e-17 0)
(3 -5.53078e-16 0)
(3 -1.82879e-16 0)
(3 -1.89027e-16 0)
(3 -8.31252e-17 0)
(3 -1.20832e-16 0)
(3 -3.23363e-16 0)
(3 -4.70298e-16 0)
(3 -3.80548e-16 0)
(3 -1.7564e-18 0)
(3 3.32251e-16 0)
(3 6.45359e-16 0)
(3 9.65975e-16 0)
(3 -6.09901e-15 0)
(3 -1.19102e-07 0)
(3.00003 9.48246e-06 0)
(3.0393 0.117595 0)
(1.62713 0.827398 0)
(1.26859 0.830927 0)
(1.30304 0.832823 0)
(1.33048 0.837613 0)
(1.37354 0.843374 0)
(1.42701 0.843744 0)
(1.46339 0.831084 0)
(3 2.77952e-16 0)
(3 -1.8349e-16 0)
(3 -6.3737e-16 0)
(3 -8.47575e-16 0)
(3 -9.97739e-16 0)
(3 -9.63128e-16 0)
(3 -5.81936e-16 0)
(3 2.52937e-16 0)
(3 1.46232e-16 0)
(3 1.66845e-16 0)
(3 -9.60139e-17 0)
(3 3.71805e-16 0)
(3 1.06859e-15 0)
(3 1.16117e-15 0)
(3 -1.44346e-09 0)
(3 -1.0702e-07 0)
(3.01059 0.00344331 0)
(2.37181 0.637131 0)
(1.35492 0.885775 0)
(1.32314 0.873727 0)
(1.36073 0.866895 0)
(1.39866 0.866305 0)
(1.42814 0.857695 0)
(1.43453 0.794713 0)
(3 3.64093e-16 0)
(3 -4.27741e-16 0)
(3 -4.70793e-16 0)
(3 -4.79767e-16 0)
(3 -3.50314e-16 0)
(3 6.30307e-17 0)
(3 4.71607e-16 0)
(3 5.27291e-16 0)
(3 7.97884e-16 0)
(3 5.89369e-16 0)
(3 2.06837e-16 0)
(3 -1.70291e-16 0)
(3 -3.47458e-16 0)
(3 2.93043e-16 0)
(3 -3.24871e-12 0)
(3 -2.64699e-08 0)
(3.00005 4.20151e-05 0)
(3.03296 0.105055 0)
(1.75789 0.836038 0)
(1.35933 0.878062 0)
(1.40633 0.878238 0)
(1.42246 0.870501 0)
(1.39705 0.802159 0)
(1.37078 0.69613 0)
(3 2.17613e-17 0)
(3 4.17332e-16 0)
(3 2.69746e-16 0)
(3 3.40589e-16 0)
(3 7.55156e-16 0)
(3 1.61466e-15 0)
(3 1.55589e-15 0)
(3 7.26552e-16 0)
(3 9.94068e-16 0)
(3 9.7315e-16 0)
(3 1.02536e-15 0)
(3 8.77474e-16 0)
(3 -3.462e-16 0)
(3 -7.21412e-17 0)
(3 -2.20351e-15 0)
(3 -2.47591e-09 0)
(3 2.44696e-08 0)
(3.00624 0.00423819 0)
(2.59651 0.525474 0)
(1.52213 0.922319 0)
(1.42818 0.915857 0)
(1.38556 0.84301 0)
(1.31919 0.707105 0)
(1.32247 0.615601 0)
(3 1.04041e-16 0)
(3 5.93307e-16 0)
(3 5.95772e-16 0)
(3 3.87292e-16 0)
(3 5.11528e-16 0)
(3 8.71302e-16 0)
(3 1.18611e-15 0)
(3 4.57125e-16 0)
(3 3.60455e-16 0)
(3 -1.49928e-17 0)
(3 1.6378e-16 0)
(3 3.59082e-16 0)
(3 1.8982e-16 0)
(3 -9.62365e-17 0)
(3 7.42913e-17 0)
(3 -9.79553e-11 0)
(3 -9.58018e-11 0)
(3.00002 4.5017e-05 0)
(3.02857 0.0531379 0)
(2.03169 0.793592 0)
(1.46001 0.939161 0)
(1.27897 0.731364 0)
(1.27189 0.626795 0)
(1.3212 0.565953 0)
(3 -4.13276e-17 0)
(3 -3.7688e-16 0)
(3 -3.77109e-16 0)
(3 -7.6821e-16 0)
(3 -5.783e-16 0)
(3 -1.46691e-16 0)
(3 1.9184e-16 0)
(3 4.4234e-17 0)
(3 -8.13346e-17 0)
(3 2.01146e-16 0)
(3 2.59096e-16 0)
(3 -1.95489e-17 0)
(3 5.03904e-16 0)
(3 7.62047e-16 0)
(3 7.18813e-16 0)
(3 -8.56029e-13 0)
(3 -3.02348e-11 0)
(3 3.3848e-08 0)
(3.0015 0.00233109 0)
(2.85584 0.309712 0)
(1.54717 0.801185 0)
(1.20825 0.603062 0)
(1.26504 0.577192 0)
(1.32887 0.548843 0)
(3 -1.76579e-16 0)
(3 -2.58215e-16 0)
(3 -7.82424e-16 0)
(3 -6.4746e-16 0)
(3 -6.96971e-16 0)
(3 -1.11806e-15 0)
(3 -1.66591e-15 0)
(3 -8.96392e-16 0)
(3 -9.44492e-16 0)
(3 -6.03118e-16 0)
(3 -5.79206e-16 0)
(3 -8.01957e-16 0)
(3 2.76141e-17 0)
(3 7.24388e-16 0)
(3 7.42201e-16 0)
(3 -6.8569e-16 0)
(3 -3.96802e-12 0)
(3 2.03463e-12 0)
(3 1.45051e-05 0)
(3.01902 0.014422 0)
(1.4476 0.43897 0)
(1.11081 0.501476 0)
(1.2358 0.507674 0)
(1.31807 0.508874 0)
(3 -1.41708e-16 0)
(3 -2.52159e-16 0)
(3 6.1198e-17 0)
(3 7.73562e-17 0)
(3 2.10348e-16 0)
(3 -1.63606e-17 0)
(3 2.72454e-17 0)
(3 3.49225e-16 0)
(3 5.85857e-16 0)
(3 3.94672e-16 0)
(3 1.97448e-17 0)
(3 -9.10217e-18 0)
(3 -1.40537e-16 0)
(3 -4.68601e-16 0)
(3 -8.67306e-16 0)
(3 -1.62331e-15 0)
(3 -2.5439e-13 0)
(3 -2.55311e-13 0)
(3 1.90702e-08 0)
(3.00053 9.95618e-05 0)
(1.35999 0.244973 0)
(0.924946 0.428448 0)
(1.09744 0.470199 0)
(1.222 0.494562 0)
(3 2.73327e-16 0)
(3 -4.5543e-16 0)
(3 6.84984e-16 0)
(3 1.04968e-15 0)
(3 1.12903e-15 0)
(3 1.50676e-15 0)
(3 1.90646e-15 0)
(3 1.26876e-15 0)
(3 1.20962e-15 0)
(3 1.2133e-15 0)
(3 1.07913e-15 0)
(3 1.10628e-15 0)
(3 4.32423e-16 0)
(3 -7.14694e-16 0)
(3 -1.56173e-15 0)
(3 -1.71249e-15 0)
(3 -5.45676e-15 0)
(3 -8.75413e-14 0)
(3 9.28622e-12 0)
(3 8.03186e-09 0)
(1.45309 0.219714 0)
(0.839961 0.334797 0)
(0.936388 0.354664 0)
(1.05206 0.385293 0)
(3 -2.14162e-17 0)
(3 -3.3298e-16 0)
(3 3.52578e-16 0)
(3 1.6204e-15 0)
(3 1.69591e-15 0)
(3 1.39788e-15 0)
(3 1.1056e-15 0)
(3 3.28222e-16 0)
(3 4.32777e-16 0)
(3 5.09218e-16 0)
(3 4.32999e-16 0)
(3 -2.39131e-16 0)
(3 -4.75597e-16 0)
(3 -4.32735e-16 0)
(3 -2.13699e-16 0)
(3 -6.02478e-17 0)
(3 8.41554e-16 0)
(3 -1.17128e-14 0)
(3 -1.00951e-14 0)
(3 -4.91596e-12 0)
(1.63047 0.261867 0)
(0.840087 0.280209 0)
(0.848171 0.283743 0)
(0.917975 0.302823 0)
(3 -2.16531e-18 0)
(3 8.94479e-16 0)
(3 3.17956e-16 0)
(3 -5.84191e-17 0)
(3 -1.58811e-16 0)
(3 -1.78317e-16 0)
(3 -2.54079e-16 0)
(3 -1.2415e-16 0)
(3 2.60107e-16 0)
(3 1.81024e-16 0)
(3 1.84968e-16 0)
(3 1.79576e-16 0)
(3 1.16704e-16 0)
(3 6.01873e-16 0)
(3 1.63545e-15 0)
(3 1.53242e-15 0)
(3 1.84457e-15 0)
(3 1.26015e-15 0)
(3 -2.56269e-16 0)
(3 -5.60758e-12 0)
(1.87351 0.273569 0)
(0.857694 0.268952 0)
(0.825555 0.254841 0)
(0.867368 0.25577 0)
(3 7.5979e-17 0)
(3 1.47919e-16 0)
(3 -3.64504e-16 0)
(3 -8.989e-16 0)
(3 -1.03937e-15 0)
(3 -4.75015e-16 0)
(3 -3.13468e-17 0)
(3 7.46916e-16 0)
(3 8.32798e-16 0)
(3 9.10103e-16 0)
(3 2.03864e-15 0)
(3 1.95498e-15 0)
(3 2.07249e-15 0)
(3 1.36259e-15 0)
(3 1.12242e-15 0)
(3 7.45809e-16 0)
(3 6.2923e-16 0)
(3 2.55523e-16 0)
(3 7.90985e-16 0)
(3 -1.14801e-12 0)
(2.16678 0.259056 0)
(0.884708 0.262852 0)
(0.827686 0.230036 0)
(0.870927 0.221518 0)
(3 -3.09521e-16 0)
(3 1.39273e-16 0)
(3 5.04921e-17 0)
(3 9.88989e-17 0)
(3 5.67237e-16 0)
(3 4.37161e-16 0)
(3 5.90372e-16 0)
(3 5.94848e-16 0)
(3 3.27882e-16 0)
(3 -2.28758e-16 0)
(3 -4.57269e-16 0)
(3 1.52299e-16 0)
(3 -2.68541e-16 0)
(3 -1.84644e-16 0)
(3 -8.01437e-16 0)
(3 -1.10185e-15 0)
(3 -7.76366e-16 0)
(3 -1.13222e-15 0)
(3 -5.62133e-16 0)
(3 -1.15923e-13 0)
(2.46832 0.221378 0)
(0.928845 0.247293 0)
(0.839842 0.205882 0)
(0.890366 0.198392 0)
(3 -1.48331e-16 0)
(3 3.30336e-16 0)
(3 2.98916e-16 0)
(3 2.10608e-16 0)
(3 -5.57889e-17 0)
(3 -4.11669e-16 0)
(3 -7.27379e-16 0)
(3 -1.41351e-15 0)
(3 -2.0442e-15 0)
(3 -2.24169e-15 0)
(3 -1.96513e-15 0)
(3 -1.92998e-15 0)
(3 -1.86129e-15 0)
(3 -1.44819e-15 0)
(3 -1.70443e-15 0)
(3 -1.72196e-15 0)
(3 -1.57039e-15 0)
(3 -1.6458e-15 0)
(3 -2.01141e-15 0)
(3 -8.0202e-15 0)
(2.73903 0.156213 0)
(0.994245 0.211971 0)
(0.861507 0.181477 0)
(0.912502 0.177578 0)
(3 5.42994e-17 0)
(3 -2.7472e-16 0)
(3 -2.43056e-16 0)
(3 -7.42873e-16 0)
(3 -1.10709e-15 0)
(3 -1.15628e-15 0)
(3 -1.37939e-15 0)
(3 -9.83134e-16 0)
(3 -6.40707e-16 0)
(3 -8.88094e-16 0)
(3 -1.04424e-15 0)
(3 -1.3128e-15 0)
(3 -1.30597e-15 0)
(3 -1.21326e-15 0)
(3 -1.56008e-15 0)
(3 -1.7665e-15 0)
(3 -1.71624e-15 0)
(3 -1.72791e-15 0)
(3 -1.93611e-15 0)
(3 -1.19334e-15 0)
(2.88897 0.0484602 0)
(1.04473 0.150301 0)
(0.856581 0.146058 0)
(0.910964 0.14605 0)
(3 -1.26056e-16 0)
(3 -4.28168e-16 0)
(3 -4.64546e-16 0)
(3 -5.94374e-16 0)
(3 -5.9839e-16 0)
(3 -6.04109e-16 0)
(3 -5.96386e-16 0)
(3 1.64387e-16 0)
(3 3.57285e-16 0)
(3 -6.66576e-17 0)
(3 -7.81756e-16 0)
(3 -1.24177e-15 0)
(3 -9.63079e-16 0)
(3 -7.92077e-16 0)
(3 -4.65019e-16 0)
(3 -2.82672e-16 0)
(3 -2.47396e-16 0)
(3 1.92095e-16 0)
(3 -2.79712e-17 0)
(3 2.15883e-16 0)
(2.90813 0.00988466 0)
(1.04407 0.102555 0)
(0.82849 0.117848 0)
(0.883161 0.119305 0)
(3 -1.83117e-16 0)
(3 -6.2588e-16 0)
(3 -6.91336e-16 0)
(3 -3.6732e-16 0)
(3 -9.80917e-16 0)
(3 -8.07e-16 0)
(3 -1.1102e-15 0)
(3 -1.27899e-15 0)
(3 -1.36168e-15 0)
(3 -8.99199e-16 0)
(3 1.36742e-16 0)
(3 -2.24123e-16 0)
(3 3.71667e-17 0)
(3 9.45362e-17 0)
(3 9.56653e-16 0)
(3 1.26497e-15 0)
(3 1.12873e-15 0)
(3 1.44447e-15 0)
(3 1.53971e-15 0)
(3 1.974e-15 0)
(2.92838 0.00278245 0)
(1.04803 0.0774555 0)
(0.807258 0.0875949 0)
(0.856013 0.0892153 0)
(3 -3.93246e-17 0)
(3 -2.41019e-16 0)
(3 -5.46474e-16 0)
(3 -5.02298e-16 0)
(3 -3.37159e-16 0)
(3 -3.22135e-16 0)
(3 -5.94989e-16 0)
(3 -5.75278e-16 0)
(3 -5.19699e-16 0)
(3 -1.995e-16 0)
(3 -5.44897e-17 0)
(3 6.98172e-18 0)
(3 -6.91621e-17 0)
(3 -1.15718e-16 0)
(3 -6.63415e-18 0)
(3 1.92019e-16 0)
(3 9.64431e-16 0)
(3 9.19108e-16 0)
(3 1.21259e-15 0)
(3 1.58361e-15 0)
(2.9443 -0.0082147 0)
(1.05599 0.0601124 0)
(0.805591 0.0590418 0)
(0.847076 0.0602028 0)
(3 2.49065e-16 0)
(3 4.29683e-16 0)
(3 -9.62487e-17 0)
(3 -2.31686e-16 0)
(3 -1.07207e-16 0)
(3 6.54746e-17 0)
(3 9.70288e-17 0)
(3 1.03926e-16 0)
(3 8.41643e-17 0)
(3 -8.4903e-16 0)
(3 -1.70867e-15 0)
(3 -1.40179e-15 0)
(3 -1.55434e-15 0)
(3 -1.64452e-15 0)
(3 -1.79541e-15 0)
(3 -1.12936e-15 0)
(3 -7.31271e-16 0)
(3 -1.16363e-15 0)
(3 -1.37361e-15 0)
(3 -1.69752e-15 0)
(2.93068 -0.0227512 0)
(1.07037 0.0354051 0)
(0.811573 0.0346645 0)
(0.849314 0.0354151 0)
(3 4.43335e-17 0)
(3 1.79675e-16 0)
(3 8.48156e-17 0)
(3 -1.31415e-17 0)
(3 -1.45561e-16 0)
(3 -5.4142e-17 0)
(3 1.98871e-18 0)
(3 3.30194e-16 0)
(3 -5.84624e-16 0)
(3 -1.02786e-15 0)
(3 -1.13188e-15 0)
(3 -1.12827e-15 0)
(3 -7.6776e-16 0)
(3 -6.9571e-16 0)
(3 -7.10837e-16 0)
(3 -4.17068e-16 0)
(3 -9.55784e-16 0)
(3 -1.31022e-15 0)
(3 -1.54773e-15 0)
(3 -1.67576e-15 0)
(2.91283 -0.011987 0)
(1.06802 0.00898689 0)
(0.8058 0.0104003 0)
(0.841841 0.011541 0)
(1.50916 1.26483 0)
(1.9441 1.3498 0)
(2.1694 1.40392 0)
(2.3931 0.761206 0)
(2.60519 0.341219 0)
(2.64778 -0.0958249 0)
(2.64127 -0.213851 0)
(2.46934 -0.355004 0)
(2.3136 -0.284321 0)
(2.3868 -0.390853 0)
(1.78982 -0.154477 0)
(0.906235 0.00339029 0)
(0.713327 0.0285307 0)
(0.571774 0.0313047 0)
(0.495986 0.0292003 0)
(0.489351 0.0258123 0)
(0.474294 0.0206787 0)
(0.43733 0.0150832 0)
(0.408748 0.00689862 0)
(0.402543 -0.000160494 0)
(0.407357 -0.00771332 0)
(0.409223 -0.0127609 0)
(0.412064 -0.0148569 0)
(0.420096 -0.0162166 0)
(0.436823 -0.0170193 0)
(0.45782 -0.0170108 0)
(0.476274 -0.0172188 0)
(0.494286 -0.0173488 0)
(0.514788 -0.0173238 0)
(0.539001 -0.0174901 0)
(0.566115 -0.0182553 0)
(0.593265 -0.0194377 0)
(0.61936 -0.0203767 0)
(0.645222 -0.0207208 0)
(0.671742 -0.0205895 0)
(0.69835 -0.0204504 0)
(0.724526 -0.0206154 0)
(0.750657 -0.0212121 0)
(0.777573 -0.0219753 0)
(0.805355 -0.0224852 0)
(0.833247 -0.0224049 0)
(0.860013 -0.0220628 0)
(0.88546 -0.0215913 0)
(0.910629 -0.0211258 0)
(0.937053 -0.0208092 0)
(0.965555 -0.0207575 0)
(0.995721 -0.0209858 0)
(1.02661 -0.021367 0)
(1.05734 -0.0216622 0)
(1.08779 -0.0215956 0)
(1.11781 -0.0209763 0)
(1.14701 -0.019741 0)
(1.17543 -0.0182602 0)
(1.20358 -0.0170762 0)
(1.23212 -0.0162488 0)
(1.26103 -0.0153786 0)
(1.28915 -0.0141209 0)
(1.31511 -0.0124165 0)
(1.33835 -0.0108458 0)
(1.36045 -0.00986767 0)
(1.38321 -0.00936636 0)
(1.40762 -0.00899889 0)
(1.43221 -0.00820982 0)
(1.45312 -0.00668473 0)
(1.47082 -0.00511943 0)
(1.48814 -0.00366231 0)
(1.50585 -0.00244587 0)
(1.5251 -0.00146399 0)
(1.54591 -0.000475492 0)
(1.56471 0.000107212 0)
(1.58258 0.000579628 0)
(1.6009 0.00163228 0)
(1.62 0.0023856 0)
(1.63978 0.00231995 0)
(1.66009 0.00133243 0)
(1.67428 -0.000815268 0)
(1.67094 -0.00369736 0)
(1.60817 -0.00702873 0)
(1.32979 -0.00670798 0)
(1.26601 -0.00425914 0)
(1.27077 -0.00356464 0)
(1.28457 -0.00344335 0)
(1.29737 -0.00390294 0)
(1.30995 -0.00431358 0)
(1.31893 -0.0044381 0)
(1.3242 -0.00413708 0)
(1.32754 -0.00329377 0)
(1.32962 -0.00133207 0)
(1.33183 -8.22578e-05 0)
(1.33562 0.000161635 0)
(1.34354 -0.000591299 0)
(1.35399 -0.00250761 0)
(1.36189 -0.00483577 0)
(1.36612 -0.00531294 0)
(1.36852 -0.00448588 0)
(1.37005 -0.00304446 0)
(1.76691 1.09087 0)
(2.28386 0.817105 0)
(2.5166 0.503583 0)
(2.61024 0.101131 0)
(2.6898 -0.239472 0)
(2.7565 -0.492423 0)
(2.75553 -0.640062 0)
(2.74696 -0.668216 0)
(2.68184 -0.586654 0)
(2.61648 -0.517482 0)
(2.23315 -0.0648908 0)
(0.919151 0.19454 0)
(0.68899 0.130441 0)
(0.577296 0.0932704 0)
(0.517188 0.0807611 0)
(0.512828 0.0674725 0)
(0.500319 0.0425062 0)
(0.463709 0.0125485 0)
(0.436323 -0.00991988 0)
(0.43643 -0.0208767 0)
(0.446249 -0.0295984 0)
(0.454626 -0.0338606 0)
(0.461983 -0.0328465 0)
(0.4731 -0.0308385 0)
(0.490064 -0.0286611 0)
(0.510671 -0.0287443 0)
(0.52988 -0.0262333 0)
(0.548669 -0.0238189 0)
(0.569226 -0.0218723 0)
(0.592721 -0.0209282 0)
(0.61894 -0.0210532 0)
(0.646175 -0.0221801 0)
(0.673679 -0.0238815 0)
(0.701467 -0.0248874 0)
(0.728465 -0.0246087 0)
(0.75443 -0.0230705 0)
(0.779388 -0.0220859 0)
(0.804611 -0.022052 0)
(0.831159 -0.0227446 0)
(0.859095 -0.0242058 0)
(0.887184 -0.0260865 0)
(0.913823 -0.0270089 0)
(0.938694 -0.0266705 0)
(0.963106 -0.0253398 0)
(0.988642 -0.0235361 0)
(1.01611 -0.0219269 0)
(1.04522 -0.0211871 0)
(1.07483 -0.0217336 0)
(1.10437 -0.0235965 0)
(1.13377 -0.0260287 0)
(1.16313 -0.0274164 0)
(1.19191 -0.0260927 0)
(1.21883 -0.0218554 0)
(1.24386 -0.0172972 0)
(1.26839 -0.0150716 0)
(1.29397 -0.0151979 0)
(1.32128 -0.0157201 0)
(1.34826 -0.0139994 0)
(1.37157 -0.00935166 0)
(1.39165 -0.00434203 0)
(1.41073 -0.00144165 0)
(1.43018 -0.00193003 0)
(1.45211 -0.0052335 0)
(1.47494 -0.007393 0)
(1.49374 -0.00651333 0)
(1.5105 -0.00414609 0)
(1.52731 -0.000716953 0)
(1.54488 0.00186257 0)
(1.56319 0.00250926 0)
(1.58233 0.00222494 0)
(1.6011 0.00288695 0)
(1.62023 0.00491539 0)
(1.63925 0.00898626 0)
(1.6566 0.0119742 0)
(1.6718 0.0108497 0)
(1.67988 0.00168253 0)
(1.67464 -0.01643 0)
(1.62977 -0.02774 0)
(1.36553 -0.0145345 0)
(1.29049 -0.00811671 0)
(1.29496 -0.00417919 0)
(1.30877 0.00138584 0)
(1.31751 0.00408712 0)
(1.32463 0.00236902 0)
(1.33197 -0.00311077 0)
(1.33922 -0.0088169 0)
(1.34596 -0.010575 0)
(1.35131 -0.00822887 0)
(1.35503 -0.00236343 0)
(1.35806 0.00498264 0)
(1.36101 0.00844037 0)
(1.36456 0.00623881 0)
(1.37173 -0.00112141 0)
(1.38036 -0.00732626 0)
(1.38615 -0.00847431 0)
(1.38832 -0.00439974 0)
(1.66925 1.04423 0)
(2.08648 0.827503 0)
(2.3236 0.65169 0)
(2.45519 0.483393 0)
(2.61499 0.16114 0)
(2.68376 -0.0946751 0)
(2.71307 -0.212509 0)
(2.76841 -0.237221 0)
(2.80599 -0.279835 0)
(2.74079 -0.409729 0)
(2.78108 -0.411171 0)
(1.45076 0.263626 0)
(0.851182 0.229698 0)
(0.715507 0.136045 0)
(0.63884 0.117637 0)
(0.606131 0.0880467 0)
(0.58242 0.047057 0)
(0.559789 0.00968632 0)
(0.552257 -0.00414456 0)
(0.559312 -0.00500429 0)
(0.570354 -0.00789364 0)
(0.581126 -0.0107237 0)
(0.592499 -0.0135936 0)
(0.607811 -0.0153799 0)
(0.627096 -0.0184686 0)
(0.648486 -0.0234541 0)
(0.670153 -0.0351558 0)
(0.693624 -0.0453517 0)
(0.718452 -0.0507226 0)
(0.743295 -0.0524287 0)
(0.767524 -0.054507 0)
(0.792047 -0.058789 0)
(0.818471 -0.064231 0)
(0.847526 -0.0690773 0)
(0.877285 -0.0715193 0)
(0.904339 -0.0702072 0)
(0.928177 -0.0669286 0)
(0.950642 -0.0647065 0)
(0.974057 -0.0643428 0)
(0.999372 -0.0653885 0)
(1.02566 -0.0667902 0)
(1.05111 -0.0675358 0)
(1.07431 -0.0671802 0)
(1.0964 -0.0664916 0)
(1.1194 -0.0660705 0)
(1.14449 -0.0659144 0)
(1.17158 -0.0654896 0)
(1.19926 -0.0639741 0)
(1.22562 -0.0611914 0)
(1.25022 -0.0584546 0)
(1.2743 -0.0571217 0)
(1.29915 -0.0569278 0)
(1.32454 -0.0556718 0)
(1.34765 -0.0511957 0)
(1.36792 -0.0451734 0)
(1.38787 -0.04033 0)
(1.4087 -0.0383509 0)
(1.43137 -0.0387325 0)
(1.45405 -0.037731 0)
(1.47288 -0.0341594 0)
(1.4896 -0.0283389 0)
(1.50545 -0.0206289 0)
(1.52226 -0.0153996 0)
(1.53948 -0.0145761 0)
(1.55702 -0.0156135 0)
(1.57375 -0.0154284 0)
(1.59035 -0.0132174 0)
(1.60677 -0.00872237 0)
(1.62257 -0.00423152 0)
(1.63822 -0.00202953 0)
(1.65458 -0.00198391 0)
(1.67196 -0.00267163 0)
(1.68985 -0.00306154 0)
(1.70566 -0.00311185 0)
(1.71662 -0.00450634 0)
(1.71764 -0.0102016 0)
(1.70665 -0.0244268 0)
(1.67877 -0.0452149 0)
(1.45535 -0.00916744 0)
(1.35487 -0.0113189 0)
(1.35608 -0.0181312 0)
(1.37191 -0.0172662 0)
(1.3814 -0.0117226 0)
(1.3863 -0.00528761 0)
(1.38912 -0.00153808 0)
(1.39203 -0.00218764 0)
(1.39717 -0.00780943 0)
(1.40506 -0.0141532 0)
(1.41236 -0.0164225 0)
(1.41688 -0.0142582 0)
(1.41902 -0.00800907 0)
(1.41843 -0.000339475 0)
(1.42068 0.00206843 0)
(1.4243 -0.00123852 0)
(1.43126 -0.00877875 0)
(1.4382 -0.0101284 0)
(1.59969 0.99267 0)
(1.90147 0.87523 0)
(2.16019 0.678592 0)
(2.33109 0.529985 0)
(2.42331 0.412665 0)
(2.5296 0.196754 0)
(2.63533 -0.0211622 0)
(2.68924 -0.177339 0)
(2.74252 -0.256272 0)
(2.7708 -0.333259 0)
(2.75386 -0.451171 0)
(2.48586 -0.118137 0)
(1.17268 0.366024 0)
(0.934002 0.264624 0)
(0.875655 0.167502 0)
(0.822803 0.128557 0)
(0.782416 0.083619 0)
(0.770992 0.0405912 0)
(0.77729 0.0206892 0)
(0.788078 0.00666806 0)
(0.79927 -0.0089909 0)
(0.810666 -0.0267682 0)
(0.825804 -0.0432764 0)
(0.844099 -0.0581271 0)
(0.863954 -0.070602 0)
(0.883765 -0.0813185 0)
(0.904959 -0.0895286 0)
(0.929878 -0.0967145 0)
(0.958105 -0.101139 0)
(0.985236 -0.100465 0)
(1.00771 -0.0951724 0)
(1.02777 -0.0889089 0)
(1.04858 -0.084959 0)
(1.07264 -0.0846073 0)
(1.10111 -0.0862679 0)
(1.12993 -0.0858103 0)
(1.15366 -0.0809694 0)
(1.17249 -0.0743322 0)
(1.19057 -0.0684449 0)
(1.21 -0.06444 0)
(1.23169 -0.0628647 0)
(1.25503 -0.0625142 0)
(1.27729 -0.0608823 0)
(1.29684 -0.057969 0)
(1.31544 -0.0556944 0)
(1.33486 -0.0548653 0)
(1.35595 -0.0552669 0)
(1.37858 -0.0557487 0)
(1.40079 -0.0542968 0)
(1.42036 -0.0502755 0)
(1.43858 -0.045743 0)
(1.45742 -0.0422797 0)
(1.47782 -0.0400862 0)
(1.49783 -0.0370814 0)
(1.51429 -0.0332456 0)
(1.52904 -0.0277314 0)
(1.54385 -0.021329 0)
(1.56032 -0.0167367 0)
(1.57796 -0.015934 0)
(1.59401 -0.0171737 0)
(1.60909 -0.017307 0)
(1.62345 -0.0134379 0)
(1.63606 -0.00622664 0)
(1.64787 0.000466301 0)
(1.66039 0.00366035 0)
(1.67419 0.00440866 0)
(1.68937 0.00461297 0)
(1.70526 0.00557256 0)
(1.72081 0.0086447 0)
(1.73453 0.0140974 0)
(1.74647 0.0199772 0)
(1.75802 0.021318 0)
(1.77233 0.0186744 0)
(1.7843 0.0106212 0)
(1.78867 -0.00222184 0)
(1.78425 -0.018875 0)
(1.76746 -0.0422448 0)
(1.74525 -0.0810188 0)
(1.60793 -0.0478773 0)
(1.47926 0.00635754 0)
(1.46022 -0.0012413 0)
(1.47443 -0.0169532 0)
(1.48592 -0.0218837 0)
(1.49148 -0.0205911 0)
(1.49543 -0.0132343 0)
(1.4958 -0.00295958 0)
(1.49772 0.00366385 0)
(1.5003 0.00425179 0)
(1.50521 -0.00147576 0)
(1.51043 -0.00997382 0)
(1.5125 -0.0149708 0)
(1.51407 -0.0155508 0)
(1.51413 -0.0113488 0)
(1.51495 -0.00537692 0)
(1.51713 -0.00330142 0)
(1.52201 -0.00495321 0)
(1.56244 0.929155 0)
(1.78757 0.862868 0)
(2.00623 0.736762 0)
(2.19347 0.583498 0)
(2.31893 0.443068 0)
(2.39069 0.344836 0)
(2.45632 0.227448 0)
(2.58412 0.0554611 0)
(2.63812 -0.0849471 0)
(2.67853 -0.1155 0)
(2.70092 -0.202526 0)
(2.69095 -0.239429 0)
(1.96665 0.226352 0)
(1.19387 0.370464 0)
(1.12617 0.237808 0)
(1.126 0.119618 0)
(1.08791 0.0722425 0)
(1.0792 0.0471021 0)
(1.0839 0.0281798 0)
(1.08635 0.00513201 0)
(1.08917 -0.0224652 0)
(1.09786 -0.0474628 0)
(1.11519 -0.0664037 0)
(1.13659 -0.0789443 0)
(1.15434 -0.0863298 0)
(1.16832 -0.0912187 0)
(1.18293 -0.0953969 0)
(1.20187 -0.100981 0)
(1.22659 -0.107058 0)
(1.25235 -0.109722 0)
(1.27218 -0.108281 0)
(1.28635 -0.105187 0)
(1.29936 -0.102228 0)
(1.31441 -0.100047 0)
(1.33401 -0.100007 0)
(1.35883 -0.101453 0)
(1.38231 -0.0997587 0)
(1.39807 -0.0946159 0)
(1.41103 -0.0903301 0)
(1.42455 -0.0872943 0)
(1.43963 -0.0854448 0)
(1.4573 -0.0852348 0)
(1.47673 -0.0854509 0)
(1.49381 -0.0839539 0)
(1.50837 -0.081687 0)
(1.52286 -0.0797638 0)
(1.53816 -0.0780546 0)
(1.55472 -0.0761646 0)
(1.57198 -0.0730348 0)
(1.58713 -0.068406 0)
(1.60029 -0.0639715 0)
(1.61429 -0.0603099 0)
(1.62995 -0.0558038 0)
(1.64576 -0.0506918 0)
(1.6594 -0.0479867 0)
(1.67196 -0.0442705 0)
(1.68417 -0.0376606 0)
(1.69653 -0.0318853 0)
(1.70932 -0.0272804 0)
(1.72176 -0.0242646 0)
(1.73407 -0.0210361 0)
(1.7461 -0.018602 0)
(1.75778 -0.0155475 0)
(1.76863 -0.0117993 0)
(1.77854 -0.00611758 0)
(1.78869 -0.00129912 0)
(1.8007 0.00206694 0)
(1.8143 0.00356221 0)
(1.82859 0.00464259 0)
(1.84252 0.00664782 0)
(1.85551 0.010756 0)
(1.86423 0.0168062 0)
(1.87049 0.0161827 0)
(1.87333 0.00930795 0)
(1.87125 -0.00485627 0)
(1.85474 -0.0324404 0)