/*--------------------------------*- C++ -*----------------------------------*\
  =========                 |
  \\      /  F ield         | OpenFOAM: The Open Source CFD Toolbox
   \\    /   O peration     | Website:  https://openfoam.org
    \\  /    A nd           | Version:  7
     \\/     M anipulation  |
\*---------------------------------------------------------------------------*/
FoamFile
{
    version     2.0;
    format      ascii;
    class       volScalarField;
    location    "10.5";
    object      p;
}
// * * * * * * * * * * * * * * * * * * * * * * * * * * * * * * * * * * * * * //

dimensions      [1 -1 -2 0 0 0 0];

internalField   nonuniform List<scalar> 
4032
(
1
1
1
1
1
1
1
1
1
1
1
1.32752
7.58601
10.6088
10.742
10.9509
11.1362
11.3129
11.4751
11.6209
11.7506
11.8555
11.9359
11.995
1
1
1
1
1
1
1
1
1
1
1
1.28864
7.42227
10.5751
10.7292
10.9321
11.1136
11.2856
11.4427
11.5818
11.7039
11.801
11.8725
11.9285
1
1
1
1
1
1
1
1
1
1
1
1.18537
7.12173
10.5461
10.6877
10.8889
11.0705
11.2408
11.3952
11.5295
11.644
11.7323
11.7898
11.8373
1
1
1
1
1
1
1
1
1
1
1
1.01629
6.62167
10.494
10.6342
10.8217
10.9931
11.1515
11.2968
11.425
11.5361
11.6202
11.6683
11.7052
1
1
1
1
1
1
1
1
1
1
1
1.00019
5.94874
10.3171
10.501
10.6852
10.8601
11.0169
11.1564
11.2713
11.3607
11.4261
11.4595
11.5076
1
1
1
1
1
1
1
1
1
1
1
0.999999
5.10465
10.0857
10.3895
10.5582
10.7248
10.864
10.9829
11.0809
11.1586
11.2175
11.2288
11.1882
1
1
1
1
1
1
1
1
1
1
1
1
4.13651
9.73042
10.2725
10.429
10.573
10.6821
10.7656
10.8248
10.8448
10.8076
10.7386
10.6937
1
1
1
1
1
1
1
1
1
1
1
1
3.09037
9.18018
10.1851
10.3221
10.4361
10.5093
10.5431
10.5467
10.4994
10.4202
10.2906
10.2752
1
1
1
1
1
1
1
1
1
1
1
1
2.00691
8.31772
10.1429
10.1969
10.2873
10.3278
10.3133
10.2528
10.1067
9.83877
9.05961
7.16965
1
1
1
1
1
1
1
1
1
1
1
1
1.12693
7.18062
10.1928
10.0913
10.087
10.0749
10.0186
9.89382
9.65369
9.17997
8.37521
6.32217
1
1
1
1
1
1
1
1
1
1
1
1
1.00155
5.56947
9.58981
9.72506
9.7875
9.76352
9.68917
9.51592
9.21835
8.65415
7.82423
5.88615
1
1
1
1
1
1
1
1
1
1
1
1
0.999977
3.69857
9.00912
9.59167
9.61887
9.55388
9.43452
9.20662
8.84825
8.27364
7.37587
5.79222
1
1
1
1
1
1
1
1
1
1
1
1
0.999994
1.96543
8.05038
9.5322
9.44194
9.33113
9.1725
8.90961
8.51537
7.95544
7.05928
5.84272
1
1
1
1
1
1
1
1
1
1
1
1
0.999999
1.09665
6.28952
9.2025
9.18906
9.08965
8.92141
8.65086
8.26264
7.7003
6.87805
5.93037
1
1
1
1
1
1
1
1
1
1
1
1
1
1.0005
3.8388
8.61019
9.04137
8.93609
8.74903
8.44125
8.05677
7.48761
6.77024
5.99344
1
1
1
1
1
1
1
1
1
1
1
1
1
0.999994
1.62269
7.63828
9.07609
8.79637
8.55687
8.24622
7.83577
7.33185
6.71998
6.0556
1
1
1
1
1
1
1
1
1
1
1
1
1
0.999999
1.03392
5.60628
8.64745
8.45906
8.29348
8.02465
7.65931
7.21143
6.67674
6.09213
1
1
1
1
1
1
1
1
1
1
1
1
1
1
0.999971
2.80209
7.90917
8.35109
8.20291
7.93747
7.58109
7.14691
6.64651
6.11844
1
1
1
1
1
1
1
1
1
1
1
1
1
1
0.999988
1.22768
6.07983
8.30244
8.11946
7.83626
7.48259
7.07343
6.61135
6.12645
1
1
1
1
1
1
1
1
1
1
1
1
1
1
0.999998
1.004
3.23293
7.60717
7.99661
7.71416
7.38899
7.00536
6.57343
6.13194
1
1
1
1
1
1
1
1
1
1
1
1
1
1
1
1
1.33979
5.98837
7.9649
7.65542
7.33991
6.95265
6.5387
6.17633
1
1
1
1
1
1
1
1
1
1
1
1
1
1
1
1
1.00925
3.1174
7.24315
7.57145
7.23937
6.85694
6.53103
6.39128
1
1
1
1
1
1
1
1
1
1
1
1
1
1
1
1
1.00003
1.31029
5.48499
7.60334
7.15281
6.84494
6.84281
7.18453
1
1
1
1
1
1
1
1
1
1
1
1
1
1
1
1
1
1.00804
2.52661
6.68514
6.93742
7.13526
7.71177
8.22462
1
1
1
1
1
1
1
1
1
1
1
1
1
1
1
1
1
1.00004
1.16648
4.48011
6.79267
8.31858
8.99787
8.98872
1
1
1
1
1
1
1
1
1
1
1
1
1
1
1
1
1
1
1.00301
1.8244
6.29083
9.75771
9.70901
9.35219
1
1
1
1
1
1
1
1
1
1
1
1
1
1
1
1
1
1
1.00001
1.05047
5.73793
10.705
10.1156
9.54286
1
1
1
1
1
1
1
1
1
1
1
1
1
1
1
1
1
1
1
1.00046
4.81285
10.525
10.0678
9.61799
1
1
1
1
1
1
1
1
1
1
1
1
1
1
1
1
1
1
1
1
4.20055
10.0964
10.0722
9.76386
1
1
1
1
1
1
1
1
1
1
1
1
1
1
1
1
1
1
1
1
3.53275
9.55927
10.1007
9.85093
1
1
1
1
1
1
1
1
1
1
1
1
1
1
1
1
1
1
1
1
2.87212
9.11128
10.1179
9.84583
1
1
1
1
1
1
1
1
1
1
1
1
1
1
1
1
1
1
1
1
2.22189
8.67793
10.2662
9.94766
1
1
1
1
1
1
1
1
1
1
1
1
1
1
1
1
1
1
1
1
1.68092
8.24416
10.3671
9.98921
1
1
1
1
1
1
1
1
1
1
1
1
1
1
1
1
1
1
1
1
1.37025
7.8207
10.4121
10.0281
1
1
1
1
1
1
1
1
1
1
1
1
1
1
1
1
1
1
1
1
1.24133
7.42714
10.385
10.0416
1
1
1
1
1
1
1
1
1
1
1
1
1
1
1
1
1
1
1
1
1.13634
7.08743
10.3361
10.0545
1
1
1
1
1
1
1
1
1
1
1
1
1
1
1
1
1
1
1
1
1.0368
6.84963
10.3231
10.082
1
1
1
1
1
1
1
1
1
1
1
1
1
1
1
1
1
1
1
1
1.0012
6.61733
10.3028
10.0876
1
1
1
1
1
1
1
1
1
1
1
1
1
1
1
1
1
1
1
1
1.00001
6.42903
10.294
10.0945
1
1
1
1
1
1
1
1
1
1
1
1
1
1
1
1
1
1
1
1
1
6.33903
10.2794
10.0971
1.56639
0.432726
0.209115
0.174335
0.190267
0.22553
0.306296
0.436443
0.635772
0.875186
1.01254
1.02935
1.15016
3.4014
4.52312
4.86593
5.0604
4.9609
4.94051
5.0379
5.14295
5.17265
5.17041
5.17065
5.18394
5.18509
5.16693
5.14917
5.14888
5.15897
5.15561
5.13027
5.09946
5.08099
5.07779
5.07585
5.04856
4.99131
4.92973
4.88481
4.85872
4.83943
4.8069
4.75445
4.69289
4.63749
4.59467
4.56036
4.52198
4.46872
4.4042
4.33912
4.27991
4.22682
4.17406
4.11383
4.04706
3.98184
3.92408
3.87592
3.83183
3.78083
3.72008
3.65808
3.6001
3.55065
3.50643
3.45269
3.39534
3.33868
3.28633
3.23836
3.19406
3.14379
3.09003
3.0316
2.96884
2.90747
2.8585
2.82622
2.85258
3.12321
4.30351
4.63198
4.54482
4.45732
4.40785
4.38298
4.38305
4.39026
4.3818
4.35937
4.32871
4.29722
4.28249
4.29991
2.77512
1.39225
0.901911
0.712383
0.604982
0.521375
0.462057
0.463557
0.495349
0.584809
0.670148
0.741921
0.818929
2.95701
4.53626
4.89351
5.03882
4.97007
4.98633
5.06859
5.13619
5.15269
5.15348
5.16438
5.18555
5.18988
5.16677
5.13812
5.12484
5.13084
5.13704
5.12368
5.09108
5.05637
5.03696
5.03547
5.03319
5.00179
4.9402
4.87536
4.82626
4.79814
4.78012
4.75209
4.70218
4.6371
4.57475
4.52619
4.49168
4.45554
4.39987
4.33158
4.26522
4.20835
4.16153
4.11464
4.05461
3.98377
3.9156
3.85579
3.80721
3.76493
3.7124
3.65108
3.59247
3.53992
3.49479
3.44965
3.39726
3.34278
3.28694
3.23171
3.17937
3.12899
3.07749
3.0246
2.97203
2.9195
2.87263
2.85548
2.89416
3.13776
4.22893
4.5845
4.52258
4.47183
4.43539
4.39352
4.36282
4.34776
4.34713
4.35493
4.35247
4.33131
4.30046
4.28215
3.65824
2.38976
1.61041
1.22022
1.04428
0.889703
0.723943
0.582747
0.549133
0.573901
0.612732
0.670781
0.73265
2.09952
4.4771
4.92871
4.96162
4.9833
5.05348
5.13413
5.16359
5.15943
5.15447
5.16573
5.18812
5.20052
5.1904
5.16345
5.13586
5.12206
5.12222
5.12601
5.1236
5.1014
5.06195
5.02641
5.00886
5.00123
4.97881
4.92728
4.86233
4.80298
4.76021
4.73378
4.71123
4.67326
4.61189
4.54594
4.49077
4.44911
4.40888
4.35147
4.28124
4.21253
4.15229
4.1029
4.05833
4.00651
3.94291
3.8763
3.8148
3.76195
3.71296
3.65755
3.59908
3.54029
3.48834
3.44042
3.39255
3.34601
3.29826
3.24613
3.18769
3.12446
3.05988
3.00472
2.9625
2.93184
2.91471
2.93481
2.99722
3.20094
4.07451
4.50393
4.47797
4.45278
4.46916
4.45224
4.41286
4.34684
4.3058
4.30205
4.32308
4.35038
4.35431
4.32064
4.24128
3.19124
2.40712
1.78269
1.46577
1.31543
1.16441
0.964247
0.79243
0.763091
0.744682
0.713126
0.721133
1.02323
3.78517
5.05025
5.00969
5.03164
5.14093
5.21773
5.23084
5.21188
5.19123
5.17788
5.17478
5.17915
5.18609
5.18617
5.16977
5.13946
5.10648
5.0836
5.08166
5.09466
5.08817
5.04316
4.99354
4.95639
4.93497
4.91456
4.87359
4.81473
4.75419
4.70141
4.662
4.636
4.60071
4.54211
4.47882
4.42203
4.37555
4.33403
4.28008
4.21577
4.14818
4.08412
4.02556
3.97143
3.91929
3.86559
3.81103
3.75693
3.70119
3.64322
3.58368
3.52676
3.47546
3.42654
3.37857
3.33078
3.28273
3.23347
3.18101
3.12397
3.06365
3.00212
2.95225
2.93214
2.94343
3.01558
3.15074
3.34651
3.88313
4.42063
4.464
4.40931
4.40789
4.42997
4.42231
4.39471
4.34019
4.296
4.28725
4.30098
4.3314
4.33392
4.64921
3.72787
3.05
2.43986
1.93084
1.66739
1.51063
1.34829
1.16483
0.966329
0.888507
0.844624
0.836649
0.897327
2.20636
4.85626
5.29496
5.22252
5.19928
5.2022
5.21347
5.22962
5.24147
5.22763
5.20249
5.1816
5.17724
5.19359
5.20813
5.18898
5.14337
5.09795
5.06603
5.0622
5.08005
5.06739
5.01605
4.96318
4.92214
4.8924
4.86507
4.82518
4.77103
4.71202
4.65898
4.61969
4.58827
4.54174
4.48532
4.42348
4.36688
4.31768
4.26745
4.21258
4.15567
4.09614
4.03359
3.96908
3.90493
3.84796
3.8001
3.75326
3.70308
3.6481
3.58612
3.52302
3.46521
3.41616
3.37012
3.32487
3.27516
3.22219
3.16413
3.10793
3.05479
3.01025
2.97568
2.97603
3.01547
3.13548
3.32275
3.45895
3.6874
4.17628
4.45195
4.42814
4.3764
4.36867
4.38927
4.39811
4.38504
4.34914
4.30469
4.28334
4.27697
4.28769
4.99825
4.15808
3.5125
2.95539
2.453
2.09952
1.80404
1.60602
1.46703
1.2977
1.14938
1.11506
1.18032
1.2613
1.46278
3.25992
5.22343
5.5644
5.45025
5.25404
5.22171
5.28578
5.33674
5.31481
5.25637
5.20624
5.17632
5.17925
5.20786
5.20426
5.1604
5.11461
5.07309
5.0446
5.04681
5.05085
5.0111
4.95905
4.91138
4.87317
4.84167
4.80702
4.75548
4.6959
4.6395
4.59377
4.55743
4.51439
4.46635
4.4139
4.35699
4.29752
4.23726
4.18075
4.12914
4.07738
4.02239
3.96162
3.89465
3.83009
3.77524
3.7268
3.68103
3.63345
3.58096
3.52033
3.45943
3.40264
3.35348
3.30569
3.25882
3.20669
3.15095
3.09305
3.04498
3.01923
3.01656
3.05312
3.16213
3.32326
3.50229
3.55019
3.60779
3.84988
4.23612
4.3993
4.40355
4.36162
4.3422
4.36115
4.3767
4.36944
4.34027
4.29323
4.26721
4.26345
5.22533
4.48893
3.8797
3.34884
2.84234
2.47758
2.1859
1.89539
1.69771
1.58351
1.50806
1.55564
1.68734
1.74535
1.74828
2.04977
3.71059
5.29847
5.67626
5.5113
5.3211
5.32315
5.39034
5.38333
5.31865
5.23591
5.19644
5.18822
5.21927
5.22398
5.18685
5.13524
5.08665
5.05195
5.03432
5.03529
5.00524
4.96073
4.90944
4.86749
4.83115
4.79505
4.74458
4.68696
4.62791
4.57912
4.53497
4.49045
4.44682
4.40165
4.34917
4.28554
4.2173
4.15832
4.10644
4.05541
4.00336
3.94779
3.88665
3.82312
3.76263
3.70876
3.65883
3.61127
3.56136
3.50921
3.45321
3.39901
3.34419
3.29162
3.23768
3.18317
3.12891
3.0826
3.05498
3.06119
3.10213
3.19936
3.39256
3.52885
3.61967
3.62066
3.60605
3.6601
3.87023
4.17264
4.34426
4.39526
4.36941
4.35123
4.35231
4.35399
4.34795
4.31654
4.27262
4.25533
5.39524
4.74253
4.15643
3.68201
3.19841
2.7461
2.47298
2.25354
2.08785
2.01723
2.01327
2.17874
2.22734
2.21368
2.13494
2.14046
2.45931
3.84111
5.29463
5.67017
5.55921
5.4555
5.44652
5.4255
5.36719
5.28557
5.24123
5.21792
5.23632
5.23563
5.19717
5.13784
5.07681
5.04055
5.01644
5.01284
4.99004
4.95099
4.89918
4.84726
4.80678
4.76859
4.72295
4.67246
4.61884
4.56225
4.50798
4.46216
4.42167
4.37915
4.32797
4.26545
4.19724
4.13487
4.07907
4.02672
3.97541
3.92305
3.86814
3.81022
3.75118
3.69304
3.63783
3.58484
3.53537
3.48684
3.43938
3.3891
3.33692
3.27937
3.21947
3.15941
3.10955
3.08389
3.0916
3.14383
3.24703
3.42335
3.64199
3.69775
3.68788
3.65494
3.61536
3.59616
3.66455
3.85135
4.11558
4.3101
4.38129
4.38008
4.35529
4.3353
4.3266
4.31618
4.2885
4.25504
5.50807
4.92941
4.36887
3.90174
3.48917
3.09063
2.79035
2.68971
2.69834
2.63874
2.6519
2.7434
2.68811
2.56676
2.49358
2.42502
2.46738
2.73
3.89715
5.2853
5.63902
5.61325
5.56236
5.49883
5.41593
5.34262
5.29568
5.261
5.25495
5.23802
5.1958
5.13398
5.06952
5.03154
5.00486
4.99573
4.97138
4.93342
4.88161
4.82182
4.77799
4.74004
4.70042
4.65449
4.60192
4.54068
4.47925
4.43273
4.39286
4.34905
4.29772
4.23946
4.17612
4.1133
4.05498
4.00005
3.94629
3.8936
3.84198
3.79034
3.73691
3.68124
3.62369
3.56587
3.51054
3.46054
3.41423
3.36916
3.32069
3.26668
3.20622
3.14821
3.11507
3.1206
3.17327
3.30604
3.46344
3.66555
3.7898
3.78735
3.74817
3.68473
3.63629
3.59553
3.59488
3.65584
3.82554
4.07059
4.27041
4.34656
4.37227
4.34782
4.32623
4.30709
4.29012
4.26331
5.58482
5.05808
4.54884
4.12322
3.79307
3.5077
3.35768
3.42149
3.42692
3.26074
3.196
3.19318
3.09718
2.9518
2.80778
2.77464
2.71122
2.74244
2.95045
3.95805
5.22964
5.57609
5.65602
5.62751
5.52457
5.42738
5.34814
5.29796
5.26424
5.23611
5.19099
5.13463
5.07269
5.03126
5.00062
4.98232
4.95277
4.91372
4.86048
4.79551
4.74857
4.71081
4.67306
4.62808
4.57566
4.51269
4.45116
4.40535
4.36221
4.31377
4.25996
4.20165
4.14122
4.08431
4.03106
3.97733
3.92087
3.86333
3.8085
3.75842
3.71096
3.66314
3.61161
3.55446
3.4924
3.43195
3.37999
3.3352
3.29514
3.24828
3.20384
3.16573
3.16335
3.20846
3.35158
3.53309
3.67722
3.8045
3.83939
3.82602
3.78762
3.73029
3.66904
3.61731
3.5838
3.59685
3.65689
3.80222
4.01931
4.20937
4.31218
4.34937
4.33299
4.31275
4.2924
4.2677
5.64293
5.17182
4.74411
4.44709
4.31669
4.18437
4.12624
4.16067
4.02455
3.74652
3.59791
3.5424
3.4681
3.34467
3.16925
3.08448
3.05382
2.94721
2.96738
3.11802
3.96836
5.08967
5.52515
5.70593
5.6591
5.53792
5.41327
5.32269
5.27145
5.23839
5.19473
5.14607
5.08701
5.03683
5.00002
4.97078
4.93595
4.89487
4.83969
4.77092
4.72134
4.68307
4.64395
4.59878
4.54588
4.48247
4.42731
4.38335
4.33643
4.28372
4.2246
4.15799
4.09418
4.04521
4.00179
3.95597
3.90411
3.84427
3.77948
3.72058
3.67296
3.63156
3.58891
3.54072
3.48213
3.41371
3.34713
3.29708
3.26076
3.23016
3.21552
3.23128
3.28841
3.42949
3.65143
3.75669
3.81625
3.8428
3.84725
3.83508
3.80411
3.76621
3.71725
3.66035
3.61246
3.58828
3.60262
3.65252
3.76173
3.95411
4.15497
4.26934
4.30603
4.31619
4.31312
4.28092
5.71443
5.35391
5.11959
5.10948
5.1212
4.93635
4.82182
4.72359
4.48093
4.16713
3.96271
3.89306
3.83175
3.71284
3.52441
3.38609
3.35968
3.28042
3.15561
3.13347
3.23905
3.92281
4.93367
5.50786
5.71262
5.63968
5.49737
5.35285
5.28604
5.24844
5.2079
5.16055
5.10193
5.0382
4.99368
4.9561
4.91756
4.87371
4.81587
4.74366
4.69236
4.65367
4.61401
4.56951
4.51518
4.44971
4.39759
4.3545
4.30793
4.25629
4.19531
4.11829
4.04041
3.99293
3.95832
3.92324
3.88414
3.83475
3.76823
3.68945
3.62405
3.58095
3.54608
3.50878
3.46362
3.40685
3.33623
3.26491
3.22451
3.22189
3.2553
3.35842
3.5125
3.73993
3.90002
3.91804
3.89344
3.85684
3.83714
3.82672
3.80941
3.78647
3.75591
3.7133
3.66014
3.61538
3.59274
3.60111
3.64097
3.72128
3.8883
4.08474
4.20592
4.27469
4.31912
4.29707
5.93568
5.87123
5.88045
5.96992
5.80137
5.46718
5.27348
5.11723
4.88251
4.57371
4.33468
4.25
4.18783
4.05603
3.85918
3.67321
3.62197
3.58288
3.46435
3.31254
3.25525
3.32791
3.86683
4.8083
5.47033
5.64335
5.56183
5.41734
5.31708
5.27116
5.22523
5.17454
5.11167
5.03247
4.97817
4.93641
4.89624
4.85028
4.79056
4.71354
4.65829
4.62101
4.58354
4.54129
4.48859
4.42074
4.35896
4.31204
4.26782
4.22144
4.16687
4.09511
4.00728
3.94024
3.9046
3.87699
3.84822
3.81201
3.76155
3.68457
3.59576
3.53128
3.49036
3.4574
3.42495
3.38681
3.33544
3.2657
3.24258
3.27018
3.38601
3.57391
3.75726
3.95811
4.00863
3.99895
3.95039
3.87926
3.8408
3.81862
3.80758
3.80111
3.78031
3.75098
3.7096
3.65818
3.61606
3.59373
3.59217
3.62089
3.68034
3.82322
4.0074
4.1482
4.26436
4.28448
6.54502
6.6884
6.71402
6.61468
6.2763
5.88089
5.62648
5.45982
5.26488
4.96888
4.70354
4.58811
4.51345
4.37941
4.1796
3.97192
3.87781
3.83933
3.7544
3.60426
3.42457
3.36536
3.41674
3.82852
4.66321
5.35144
5.50433
5.46507
5.37226
5.31193
5.255
5.18992
5.11702
5.01926
4.95614
4.91178
4.87111
4.82457
4.76607
4.68606
4.61889
4.58119
4.54694
4.50816
4.46054
4.3968
4.31953
4.25431
4.20792
4.16622
4.12102
4.06718
3.99834
3.91922
3.85769
3.82153
3.79137
3.7611
3.72507
3.6714
3.59602
3.51075
3.44105
3.39716
3.36931
3.34831
3.33196
3.32269
3.35297
3.4599
3.66208
3.81296
3.93666
4.02692
4.03875
4.02142
3.98055
3.92443
3.86662
3.83358
3.81512
3.80826
3.79671
3.77252
3.7421
3.69882
3.65077
3.61121
3.58445
3.5786
3.5995
3.65365
3.76829
3.9351
4.10623
4.21625
7.50033
7.42402
7.27943
6.98746
6.59219
6.24302
5.98594
5.80839
5.63599
5.35464
5.06355
4.91343
4.82358
4.68721
4.48883
4.26788
4.14672
4.07948
4.0078
3.87669
3.6949
3.53586
3.47044
3.49988
3.7703
4.45874
5.11557
5.32343
5.37021
5.35751
5.31278
5.22388
5.12496
5.00456
4.92839
4.88167
4.84231
4.79797
4.74413
4.6673
4.58106
4.53427
4.50032
4.46431
4.42203
4.36981
4.29448
4.20405
4.14096
4.0994
4.06166
4.02184
3.97536
3.91744
3.84907
3.78154
3.72972
3.69184
3.65892
3.62437
3.57658
3.50571
3.42429
3.35589
3.32923
3.32711
3.35802
3.43502
3.57449
3.80441
3.97376
4.00687
4.03222
4.02971
4.03328
4.02065
3.99319
3.96138
3.91497
3.86428
3.83687
3.82046
3.80913
3.78893
3.76238
3.72924
3.68321
3.63885
3.60216
3.57407
3.56385
3.57949
3.61804
3.7092
3.85813
4.0737
8.18998
7.89636
7.63012
7.26641
6.87521
6.5965
6.36191
6.13973
5.95721
5.70789
5.40964
5.22965
5.1244
4.97683
4.78118
4.55672
4.40647
4.3223
4.24006
4.12359
3.94392
3.78103
3.64223
3.56051
3.56681
3.71184
4.2106
4.81824
5.14246
5.29135
5.344
5.27907
5.15836
5.00963
4.90474
4.84844
4.80831
4.77053
4.72401
4.6584
4.56079
4.48591
4.44333
4.40578
4.36811
4.32629
4.26647
4.17481
4.08696
4.03572
3.99953
3.96615
3.92797
3.88345
3.8304
3.76399
3.69565
3.65182
3.61797
3.58011
3.53108
3.47386
3.41272
3.34827
3.33582
3.36118
3.46796
3.64611
3.85947
4.08885
4.14358
4.1316
4.08255
4.04121
4.0242
4.01493
4.00051
3.97915
3.95004
3.90327
3.86036
3.83779
3.82118
3.80404
3.78126
3.75461
3.71812
3.66841
3.62938
3.59517
3.56576
3.55327
3.56336
3.5837
3.64003
3.85578
8.54227
8.18706
7.91392
7.56953
7.19562
6.95755
6.75185
6.47865
6.24861
6.03155
5.74758
5.54252
5.4273
5.26273
5.06084
4.84672
4.66708
4.55676
4.46476
4.34876
4.19046
3.99539
3.86623
3.73373
3.62647
3.63321
3.68454
3.99181
4.53971
4.98402
5.20572
5.23439
5.17377
5.04452
4.91806
4.82632
4.77555
4.73623
4.69513
4.6402
4.55228
4.45853
4.40009
4.35952
4.32268
4.28013
4.228
4.15296
4.071
3.99258
3.93044
3.89575
3.87317
3.84638
3.80742
3.75109
3.67917
3.60255
3.53058
3.4767
3.43518
3.41746
3.4041
3.39148
3.41684
3.52264
3.73255
3.90782
4.07969
4.18913
4.19625
4.18156
4.12485
4.06136
4.03436
4.01757
4.01218
3.99884
3.97393
3.93502
3.88462
3.84993
3.82968
3.81492
3.79851
3.77464
3.74191
3.69582
3.64735
3.6158
3.58558
3.56063
3.54607
3.53885
3.54146
3.64831
8.81956
8.46509
8.2166
7.86978
7.49753
7.27602
7.09193
6.80804
6.52381
6.32476
6.08008
5.84861
5.71332
5.54676
5.32175
5.11929
4.93093
4.78477
4.66825
4.54675
4.4046
4.22273
4.05624
3.93648
3.78855
3.68015
3.63982
3.65257
3.84333
4.29157
4.80344
5.05693
5.07807
5.04707
4.95502
4.84637
4.77285
4.72211
4.66898
4.60924
4.53462
4.45473
4.37764
4.29467
4.22172
4.17001
4.13236
4.10315
4.05664
3.98801
3.92472
3.86492
3.8127
3.76915
3.73126
3.69179
3.63897
3.55616
3.475
3.42535
3.41063
3.41361
3.43235
3.49258
3.63212
3.87161
4.03637
4.11139
4.18328
4.21802
4.21304
4.19012
4.14726
4.08973
4.05298
4.03751
4.02674
4.01281
3.98818
3.95766
3.91807
3.87617
3.85243
3.83585
3.81667
3.78956
3.75741
3.72093
3.6772
3.63853
3.61512
3.59039
3.56096
3.53498
3.51502
3.53283
9.00687
8.73295
8.50796
8.15661
7.81624
7.60037
7.41185
7.12253
6.79642
6.5871
6.39758
6.15041
5.96862
5.81055
5.57929
5.3663
5.19176
5.02048
4.8686
4.7273
4.59054
4.43928
4.26414
4.11583
3.98444
3.8323
3.71162
3.64541
3.63642
3.72909
4.06664
4.52333
4.80634
4.94052
4.95388
4.88987
4.7642
4.65414
4.58019
4.52782
4.48755
4.44308
4.37013
4.26671
4.1602
4.0905
4.04722
4.01498
3.98681
3.95071
3.88984
3.81271
3.75251
3.71014
3.67005
3.62072
3.55648
3.48053
3.41556
3.39341
3.39716
3.42966
3.54755
3.73317
3.97533
4.18332
4.21605
4.22024
4.22569
4.22748
4.23165
4.20833
4.17364
4.13229
4.07973
4.03662
4.01543
4.00884
4.00192
3.98188
3.95489
3.92147
3.87484
3.82556
3.80171
3.79202
3.77816
3.75179
3.71778
3.68319
3.64112
3.59521
3.56629
3.5415
3.51974
3.49952
9.25765
9.04129
8.80466
8.4432
8.10131
7.89576
7.70942
7.41623
7.09021
6.87305
6.69321
6.44895
6.22678
6.05361
5.82246
5.59045
5.41407
5.25001
5.0738
4.89745
4.74321
4.60753
4.45683
4.30596
4.1599
4.01561
3.86824
3.72324
3.64635
3.59819
3.6336
3.8595
4.22889
4.58763
4.85641
4.87011
4.78649
4.65233
4.54765
4.47051
4.41027
4.35541
4.29413
4.2101
4.11075
4.04714
4.00846
3.97219
3.93027
3.88047
3.81658
3.74407
3.68714
3.64701
3.6076
3.56338
3.50782
3.45349
3.40665
3.40078
3.43652
3.58051
3.81687
4.02221
4.22552
4.30019
4.3016
4.27996
4.23518
4.21298
4.20248
4.19627
4.1874
4.16595
4.12681
4.07185
4.03259
4.01374
4.00492
3.9999
3.98199
3.95356
3.90809
3.85057
3.80971
3.78572
3.7695
3.75941
3.74551
3.71798
3.67566
3.62419
3.57846
3.53861
3.51008
3.48419
9.49346
9.25543
9.02356
8.71259
8.38894
8.15789
7.95707
7.67305
7.34006
7.11547
6.97421
6.7593
6.46273
6.22763
6.07262
5.84783
5.65107
5.50133
5.33332
5.11271
4.88146
4.73238
4.64276
4.52618
4.3674
4.18275
4.01081
3.86656
3.74092
3.64387
3.56138
3.55664
3.68626
3.99387
4.43106
4.69931
4.69798
4.63649
4.54594
4.45496
4.37375
4.30136
4.22883
4.15041
4.07446
4.01589
3.96844
3.92248
3.87306
3.81906
3.75929
3.69964
3.64138
3.58662
3.5333
3.48505
3.44757
3.43156
3.43852
3.49543
3.65257
3.91251
4.09584
4.20926
4.31932
4.35451
4.34777
4.31352
4.24423
4.19442
4.18072
4.17623
4.18436
4.1792
4.16036
4.12596
4.07147
4.02935
4.00917
3.99239
3.97538
3.95413
3.92818
3.8921
3.84257
3.80376
3.78106
3.76163
3.73944
3.7133
3.682
3.64622
3.6046
3.56469
3.53168
3.48726
9.64876
9.42442
9.16807
8.86344
8.57771
8.35676
8.17407
7.91111
7.58456
7.34469
7.1794
6.96892
6.68742
6.41798
6.23031
6.05424
5.85839
5.65092
5.45438
5.28871
5.10104
4.91376
4.73857
4.59907
4.49199
4.35991
4.19964
4.02448
3.85351
3.71305
3.60461
3.53272
3.48898
3.55012
3.79896
4.20916
4.41513
4.5302
4.52824
4.45258
4.35183
4.25769
4.16729
4.08903
4.02832
3.97292
3.91544
3.8552
3.79965
3.75166
3.70725
3.66013
3.60329
3.52937
3.45199
3.41312
3.41527
3.45135
3.5611
3.76794
4.04496
4.22254
4.26578
4.31722
4.34754
4.36363
4.34837
4.31621
4.26842
4.21116
4.18637
4.1776
4.177
4.18114
4.16879
4.14778
4.10959
4.05895
4.02458
4.00102
3.97976
3.95867
3.93639
3.90921
3.87092
3.82823
3.79646
3.77064
3.74551
3.72016
3.69346
3.6634
3.62661
3.58767
3.55473
3.50397
9.70815
9.51869
9.28279
9.01993
8.77657
8.56937
8.34462
8.05205
7.75694
7.53058
7.36746
7.15843
6.87765
6.60449
6.41352
6.23305
6.03632
5.8257
5.59996
5.39235
5.21762
5.05381
4.88535
4.7213
4.55922
4.40802
4.26565
4.12726
3.98103
3.83256
3.69287
3.56354
3.46353
3.3959
3.42673
3.63038
3.93882
4.20666
4.42364
4.40767
4.32181
4.21683
4.11859
4.04687
3.99433
3.93996
3.87373
3.79064
3.72199
3.68469
3.65059
3.61141
3.55667
3.48122
3.4154
3.406
3.44326
3.57054
3.83371
4.11295
4.33042
4.38753
4.35932
4.33066
4.31006
4.31023
4.31635
4.30941
4.29245
4.24983
4.20801
4.19125
4.18223
4.17885
4.16841
4.15203
4.12611
4.08432
4.04344
4.0163
3.99433
3.97242
3.94895
3.9216
3.88594
3.84271
3.80498
3.77821
3.75555
3.73273
3.70692
3.67637
3.63848
3.59775
3.56614
3.5163
9.77773
9.56034
9.33342
9.11639
8.91173
8.70274
8.45559
8.17841
7.91996
7.7184
7.54342
7.29313
6.99684
6.74669
6.56409
6.38338
6.1742
5.95004
5.72009
5.51674
5.34272
5.17653
5.01068
4.83886
4.66312
4.49459
4.34225
4.20328
4.06897
3.93464
3.79379
3.65392
3.51169
3.39912
3.31634
3.32819
3.4571
3.71198
4.07647
4.27615
4.24863
4.17058
4.09189
4.0254
3.97018
3.91595
3.84155
3.73801
3.64609
3.59883
3.56732
3.53608
3.49735
3.46633
3.44807
3.46094
3.57862
3.87933
4.14198
4.35847
4.44985
4.44094
4.38631
4.32264
4.30217
4.29733
4.3022
4.30349
4.29198
4.26723
4.23303
4.2073
4.19405
4.184
4.17221
4.15651
4.13423
4.10121
4.06174
4.02813
4.00318
3.98084
3.9581
3.93313
3.90271
3.86468
3.82403
3.79068
3.76531
3.74209
3.71681
3.68699
3.65105
3.61014
3.57648
3.52596
9.80658
9.60891
9.42172
9.22841
9.024
8.79875
8.54686
8.29374
8.06566
7.87099
7.65171
7.37828
7.10522
6.88543
6.71347
6.52043
6.28895
6.04139
5.81855
5.62694
5.45267
5.2834
5.11176
4.93151
4.74628
4.5706
4.41409
4.27335
4.14213
4.01122
3.87408
3.724
3.57359
3.44205
3.33233
3.25955
3.24046
3.30794
3.5389
3.90502
4.05882
4.08286
4.06135
4.01148
3.9468
3.8795
3.79779
3.69848
3.6002
3.5271
3.49034
3.469
3.45763
3.48516
3.51014
3.65986
3.99051
4.23159
4.34113
4.4211
4.43972
4.42055
4.38922
4.35292
4.31946
4.30455
4.29668
4.29015
4.28072
4.26624
4.24764
4.22606
4.20603
4.1908
4.17561
4.15603
4.13126
4.10226
4.0705
4.03921
4.01336
3.99189
3.96962
3.94341
3.91169
3.87515
3.83698
3.80169
3.77222
3.74676
3.72046
3.68871
3.65077
3.60991
3.57962
3.53394
9.84389
9.65072
9.46417
9.2702
9.06263
8.84054
8.60743
8.38268
8.17759
7.97339
7.72526
7.45429
7.21223
7.02117
6.83892
6.61558
6.35844
6.11452
5.91635
5.73261
5.55695
5.38009
5.19194
4.99512
4.80772
4.63963
4.48852
4.34772
4.21181
4.07253
3.92566
3.77602
3.63138
3.50007
3.38091
3.27621
3.20042
3.14198
3.17452
3.3722
3.68878
3.8838
3.99175
3.96847
3.89881
3.82152
3.74072
3.65926
3.58112
3.50622
3.45646
3.44118
3.45891
3.50582
3.70871
4.058
4.35446
4.41857
4.41745
4.4107
4.40026
4.39391
4.3834
4.3689
4.34521
4.31426
4.29238
4.28134
4.27507
4.273
4.26389
4.24975
4.22768
4.19785
4.16924
4.14357
4.12194
4.10386
4.08507
4.06222
4.03338
4.00244
3.97175
3.94001
3.90859
3.87996
3.85408
3.82674
3.79405
3.75733
3.71998
3.68241
3.64662
3.61663
3.59492
3.55036
9.87794
9.69433
9.50634
9.30854
9.10013
8.88382
8.66716
8.45955
8.25602
8.02959
7.77282
7.52308
7.30882
7.12778
6.91569
6.66608
6.40393
6.1983
6.01988
5.83728
5.64947
5.4472
5.23545
5.03886
4.86577
4.709
4.56222
4.4176
4.26683
4.10793
3.95372
3.81375
3.68491
3.56398
3.4448
3.32369
3.20813
3.10616
3.03967
3.06894
3.23501
3.5077
3.79758
3.87335
3.81004
3.74243
3.67181
3.60922
3.5516
3.49768
3.44637
3.4323
3.49352
3.73639
4.06817
4.38165
4.47879
4.48081
4.45015
4.40125
4.37911
4.3705
4.37606
4.3696
4.35388
4.32264
4.29023
4.27997
4.27539
4.27935
4.27576
4.26129
4.23606
4.19353
4.15835
4.14153
4.12867
4.11772
4.10184
4.08047
4.04591
4.00248
3.9678
3.94135
3.91885
3.89815
3.87636
3.84856
3.80717
3.7577
3.7163
3.68506
3.65979
3.63567
3.61262
3.55889
9.89947
9.71967
9.53546
9.34132
9.13842
8.93104
8.72481
8.51978
8.30356
8.06514
7.8183
7.58938
7.39567
7.20123
6.95958
6.69559
6.46602
6.28335
6.10718
5.91475
5.70663
5.48298
5.27035
5.08602
4.92518
4.77584
4.62936
4.47371
4.30185
4.12833
3.97505
3.84654
3.73204
3.6206
3.50525
3.37527
3.23412
3.10142
3.00651
2.96975
2.98902
3.1034
3.36713
3.65286
3.68415
3.65131
3.60876
3.55613
3.50359
3.48237
3.47159
3.54147
3.78231
4.09447
4.34387
4.50033
4.52089
4.50192
4.44683
4.38406
4.36449
4.35924
4.3693
4.36804
4.35646
4.33162
4.30058
4.28771
4.28103
4.27997
4.27292
4.25768
4.23229
4.19473
4.16356
4.1466
4.13346
4.12121
4.10457
4.08134
4.04487
4.00315
3.97297
3.95143
3.93134
3.91053
3.88661
3.85334
3.80723
3.75965
3.72344
3.69603
3.67144
3.64547
3.61879
3.55661
9.93081
9.75441
9.57205
9.38037
9.18123
8.97846
8.7733
8.5611
8.33494
8.09819
7.8647
7.65093
7.4653
7.24654
6.98518
6.73371
6.5286
6.34627
6.15882
5.95639
5.73783
5.51501
5.314
5.14078
4.98301
4.83061
4.67332
4.50246
4.32267
4.1512
4.00281
3.8776
3.7683
3.66364
3.55218
3.41836
3.26693
3.12402
3.00927
2.93066
2.89566
2.90486
2.97654
3.19727
3.42891
3.49978
3.54614
3.52173
3.50325
3.51835
3.62074
3.879
4.16939
4.3671
4.47131
4.51463
4.50521
4.47341
4.41894
4.38016
4.36701
4.36401
4.36917
4.36761
4.35785
4.33755
4.31435
4.29951
4.28928
4.28059
4.26992
4.2539
4.22997
4.20195
4.17658
4.15436
4.137
4.12078
4.10155
4.07639
4.04473
4.01114
3.98294
3.96088
3.94008
3.91617
3.88664
3.85049
3.80926
3.76776
3.73271
3.70382
3.67751
3.64916
3.61865
3.55488
9.93399
9.76218
9.58395
9.39718
9.20318
9.00379
8.79683
8.5795
8.35295
8.12462
7.9058
7.70342
7.50014
7.26473
7.01535
6.78922
6.58465
6.39006
6.18515
5.97299
5.75579
5.54841
5.36342
5.19233
5.02697
4.8613
4.68897
4.51068
4.33887
4.1827
4.0433
3.91469
3.7943
3.67667
3.55122
3.42054
3.2914
3.16914
3.05523
2.9529
2.8656
2.80568
2.77377
2.82747
3.01934
3.22726
3.40325
3.47524
3.539
3.70592
3.96099
4.27045
4.4578
4.53457
4.5204
4.48341
4.45036
4.41808
4.39682
4.38704
4.38278
4.37816
4.37258
4.36485
4.35144
4.33784
4.32718
4.31526
4.29907
4.28263
4.26699
4.24779
4.22714
4.20827
4.18909
4.16701
4.14331
4.11995
4.09656
4.07158
4.04599
4.02123
3.99539
3.96762
3.94042
3.91177
3.87931
3.84505
3.81147
3.77884
3.74567
3.71212
3.68036
3.64679
3.61245
3.55428
9.93694
9.76859
9.59401
9.41092
9.21934
9.01997
8.8122
8.59747
8.37907
8.16138
7.94734
7.73572
7.49976
7.24852
7.02531
6.82878
6.63125
6.414
6.19575
5.97757
5.76968
5.58081
5.4048
5.23169
5.05415
4.86827
4.68337
4.50982
4.35462
4.21689
4.08726
3.95596
3.8167
3.67004
3.53264
3.41202
3.30508
3.20717
3.10622
2.99768
2.87854
2.76364
2.67638
2.65048
2.71256
2.90012
3.16016
3.42006
3.71689
4.03564
4.2731
4.47468
4.55938
4.55394
4.51252
4.44304
4.40109
4.38868
4.39198
4.40534
4.40497
4.39411
4.37097
4.3506
4.34357
4.3409
4.33989
4.33168
4.31552
4.28771
4.25678
4.23868
4.22658
4.21407
4.19925
4.17941
4.15154
4.12022
4.09219
4.06825
4.04781
4.02831
4.0051
3.97396
3.93725
3.90345
3.87269
3.84283
3.81464
3.78734
3.75718
3.72115
3.68018
3.63962
3.60656
3.55603
9.94099
9.77497
9.60132
9.41853
9.22663
9.02638
8.8196
8.60953
8.39854
8.18673
7.96885
7.73565
7.49692
7.27158
7.06187
6.86686
6.653
6.42799
6.19847
5.97725
5.78625
5.60792
5.43389
5.25719
5.06715
4.8626
4.66678
4.50554
4.37327
4.25126
4.12723
3.98695
3.82026
3.64452
3.50007
3.39952
3.31948
3.24194
3.15296
3.03451
2.87991
2.72279
2.62248
2.57833
2.58336
2.66393
2.91775
3.39044
3.91007
4.27544
4.57497
4.69994
4.68643
4.60543
4.51647
4.42521
4.38489
4.37642
4.38802
4.40702
4.40433
4.39142
4.36
4.34266
4.3397
4.34704
4.35516
4.34493
4.32402
4.28506
4.2493
4.23368
4.22298
4.21704
4.2049
4.18719
4.15745
4.11849
4.08914
4.06914
4.05107
4.03189
4.00815
3.97356
3.92991
3.89309
3.86571
3.84258
3.8205
3.79695
3.7687
3.72819
3.6738
3.6257
3.6012
3.562
)
;

boundaryField
{
    inlet
    {
        type            fixedValue;
        value           uniform 1;
    }
    outlet
    {
        type            zeroGradient;
    }
    bottom
    {
        type            symmetryPlane;
    }
    top
    {
        type            symmetryPlane;
    }
    obstacle
    {
        type            zeroGradient;
    }
    defaultFaces
    {
        type            empty;
    }
}


// ************************************************************************* //
