/*--------------------------------*- C++ -*----------------------------------*\
  =========                 |
  \\      /  F ield         | OpenFOAM: The Open Source CFD Toolbox
   \\    /   O peration     | Website:  https://openfoam.org
    \\  /    A nd           | Version:  7
     \\/     M anipulation  |
\*---------------------------------------------------------------------------*/
FoamFile
{
    version     2.0;
    format      ascii;
    class       volScalarField;
    location    "10.5";
    object      rho;
}
// * * * * * * * * * * * * * * * * * * * * * * * * * * * * * * * * * * * * * //

dimensions      [1 -3 0 0 0 0 0];

internalField   nonuniform List<scalar> 
4032
(
1.40001
1.40001
1.40001
1.40001
1.40001
1.40001
1.40001
1.40001
1.40001
1.40001
1.40001
1.58506
4.40105
5.46759
5.51502
5.5908
5.65787
5.7214
5.7794
5.83139
5.87764
5.91495
5.94356
5.9647
1.40001
1.40001
1.40001
1.40001
1.40001
1.40001
1.40001
1.40001
1.40001
1.40001
1.40001
1.56197
4.33121
5.4525
5.50974
5.58398
5.64968
5.71144
5.7676
5.81729
5.8609
5.89557
5.92111
5.94119
1.40001
1.40001
1.40001
1.40001
1.40001
1.40001
1.40001
1.40001
1.40001
1.40001
1.40001
1.50645
4.22219
5.44331
5.49469
5.568
5.63363
5.69478
5.75001
5.79808
5.83922
5.87091
5.89158
5.90865
1.40001
1.40001
1.40001
1.40001
1.40001
1.40001
1.40001
1.40001
1.40001
1.40001
1.40001
1.41241
4.04194
5.43224
5.47704
5.54307
5.60461
5.66158
5.71374
5.75985
5.79999
5.83051
5.848
5.86143
1.40001
1.40001
1.40001
1.40001
1.40001
1.40001
1.40001
1.40001
1.40001
1.40001
1.40001
1.40018
3.76586
5.37214
5.4297
5.4934
5.55579
5.61216
5.6623
5.70366
5.73617
5.76069
5.77411
5.79261
1.40001
1.40001
1.40001
1.40001
1.40001
1.40001
1.40001
1.40001
1.40001
1.40001
1.40001
1.4
3.40775
5.28847
5.39031
5.4489
5.50785
5.55711
5.5992
5.63393
5.66208
5.68551
5.69474
5.68582
1.40001
1.40001
1.40001
1.40001
1.40001
1.40001
1.40001
1.40001
1.40001
1.40001
1.40001
1.4
2.98678
5.17069
5.36109
5.41109
5.45836
5.49402
5.52126
5.54102
5.54804
5.53627
5.51772
5.50959
1.40001
1.40001
1.40001
1.40001
1.40001
1.40001
1.40001
1.40001
1.40001
1.40001
1.40001
1.40001
2.51245
5.01126
5.3689
5.39362
5.42118
5.43841
5.44402
5.44164
5.42299
5.39275
5.33649
5.30692
1.40001
1.40001
1.40001
1.40001
1.40001
1.40001
1.40001
1.40001
1.40001
1.40001
1.40001
1.40001
1.9922
4.7711
5.40027
5.37699
5.3876
5.38559
5.36956
5.34009
5.28017
5.17642
4.86122
4.00025
1.40001
1.40001
1.40001
1.40001
1.40001
1.40001
1.40001
1.40001
1.40001
1.40001
1.40001
1.40001
1.50054
4.3554
5.42599
5.36794
5.34444
5.3161
5.27708
5.2176
5.1162
4.92724
4.59745
3.70538
1.40001
1.40001
1.40001
1.40001
1.40001
1.40001
1.40001
1.40001
1.40001
1.40001
1.40001
1.40001
1.40132
3.6437
5.18598
5.24228
5.25354
5.22568
5.17703
5.09319
4.96262
4.72941
4.38615
3.56208
1.40001
1.40001
1.40001
1.40001
1.40001
1.40001
1.40001
1.40001
1.40001
1.40001
1.40001
1.40001
1.39998
2.82526
4.99707
5.20151
5.19964
5.16629
5.10452
4.99699
4.838
4.59332
4.21622
3.54263
1.40001
1.40001
1.40001
1.40001
1.40001
1.40001
1.40001
1.40001
1.40001
1.40001
1.40001
1.40001
1.4
2.00264
4.73562
5.2064
5.15707
5.09951
5.02292
4.90297
4.72866
4.48578
4.10225
3.57346
1.40001
1.40001
1.40001
1.40001
1.40001
1.40001
1.40001
1.40001
1.40001
1.40001
1.40001
1.40001
1.4
1.47848
4.01168
5.10749
5.07894
5.02567
4.94383
4.82083
4.64917
4.40402
4.04685
3.6277
1.40001
1.40001
1.40001
1.40001
1.40001
1.40001
1.40001
1.40001
1.40001
1.40001
1.40001
1.40001
1.4
1.40039
2.93966
4.94168
5.04113
4.98846
4.89828
4.75818
4.58672
4.33757
4.02201
3.67344
1.40001
1.40001
1.40001
1.40001
1.40001
1.40001
1.40001
1.40001
1.40001
1.40001
1.40001
1.40001
1.40001
1.4
1.83121
4.69009
5.10063
4.96991
4.85003
4.70272
4.51642
4.29189
4.02047
3.72035
1.40001
1.40001
1.40001
1.40001
1.40001
1.40001
1.40001
1.40001
1.40001
1.40001
1.40001
1.40001
1.40001
1.4
1.42834
3.76781
4.95936
4.86979
4.77697
4.64063
4.46719
4.26177
4.02069
3.75467
1.40001
1.40001
1.40001
1.40001
1.40001
1.40001
1.40001
1.40001
1.40001
1.40001
1.40001
1.40001
1.40001
1.4
1.39995
2.47471
4.76347
4.84631
4.77314
4.64214
4.46981
4.26469
4.03135
3.78621
1.40001
1.40001
1.40001
1.40001
1.40001
1.40001
1.40001
1.40001
1.40001
1.40001
1.40001
1.40001
1.40001
1.40001
1.39999
1.5782
4.02279
4.86191
4.77044
4.63204
4.46148
4.26534
4.04498
3.81426
1.40001
1.40001
1.40001
1.40001
1.40001
1.40001
1.40001
1.40001
1.40001
1.40001
1.40001
1.40001
1.40001
1.40001
1.4
1.4034
2.71734
4.67661
4.74232
4.61068
4.45348
4.26793
4.05902
3.8455
1.40001
1.40001
1.40001
1.40001
1.40001
1.40001
1.40001
1.40001
1.40001
1.40001
1.40001
1.40001
1.40001
1.40001
1.4
1.4
1.6598
4.03561
4.7748
4.62496
4.46651
4.27674
4.07565
3.8964
1.40001
1.40001
1.40001
1.40001
1.40001
1.40001
1.40001
1.40001
1.40001
1.40001
1.40001
1.40001
1.40001
1.40001
1.40001
1.4
1.40796
2.68542
4.5886
4.6179
4.45735
4.26905
4.11116
4.01798
1.40001
1.40001
1.40001
1.40001
1.40001
1.40001
1.40001
1.40001
1.40001
1.40001
1.40001
1.40001
1.40001
1.40001
1.40001
1.40001
1.40003
1.64046
3.84984
4.68299
4.46357
4.29932
4.27871
4.40598
1.40001
1.40001
1.40001
1.40001
1.40001
1.40001
1.40001
1.40001
1.40001
1.40001
1.40001
1.40001
1.40001
1.40001
1.40001
1.40001
1.40001
1.40703
2.39407
4.41139
4.42542
4.46865
4.6889
4.88881
1.40001
1.40001
1.40001
1.40001
1.40001
1.40001
1.40001
1.40001
1.40001
1.40001
1.40001
1.40001
1.40001
1.40001
1.40001
1.40001
1.40001
1.40004
1.53553
3.39176
4.43887
5.06978
5.30216
5.28037
1.40001
1.40001
1.40001
1.40001
1.40001
1.40001
1.40001
1.40001
1.40001
1.40001
1.40001
1.40001
1.40001
1.40001
1.40001
1.40001
1.40001
1.40001
1.40274
1.98219
4.3201
5.75186
5.68913
5.51254
1.40001
1.40001
1.40001
1.40001
1.40001
1.40001
1.40001
1.40001
1.40001
1.40001
1.40001
1.40001
1.40001
1.40001
1.40001
1.40001
1.40001
1.40001
1.40002
1.44308
3.91849
6.00828
5.79795
5.57985
1.40001
1.40001
1.40001
1.40001
1.40001
1.40001
1.40001
1.40001
1.40001
1.40001
1.40001
1.40001
1.40001
1.40001
1.40001
1.40001
1.40001
1.40001
1.40001
1.40043
3.36475
5.7096
5.58805
5.47695
1.40001
1.40001
1.40001
1.40001
1.40001
1.40001
1.40001
1.40001
1.40001
1.40001
1.40001
1.40001
1.40001
1.40001
1.40001
1.40001
1.40001
1.40001
1.40001
1.40001
3.01129
5.36104
5.408
5.35349
1.40001
1.40001
1.40001
1.40001
1.40001
1.40001
1.40001
1.40001
1.40001
1.40001
1.40001
1.40001
1.40001
1.40001
1.40001
1.40001
1.40001
1.40001
1.40001
1.40001
2.68823
5.07744
5.3506
5.27331
1.40001
1.40001
1.40001
1.40001
1.40001
1.40001
1.40001
1.40001
1.40001
1.40001
1.40001
1.40001
1.40001
1.40001
1.40001
1.40001
1.40001
1.40001
1.40001
1.40001
2.38994
4.92461
5.33067
5.23455
1.40001
1.40001
1.40001
1.40001
1.40001
1.40001
1.40001
1.40001
1.40001
1.40001
1.40001
1.40001
1.40001
1.40001
1.40001
1.40001
1.40001
1.40001
1.40001
1.40001
2.08135
4.84363
5.4006
5.28038
1.40001
1.40001
1.40001
1.40001
1.40001
1.40001
1.40001
1.40001
1.40001
1.40001
1.40001
1.40001
1.40001
1.40001
1.40001
1.40001
1.40001
1.40001
1.40001
1.40001
1.80528
4.74547
5.46632
5.31661
1.40001
1.40001
1.40001
1.40001
1.40001
1.40001
1.40001
1.40001
1.40001
1.40001
1.40001
1.40001
1.40001
1.40001
1.40001
1.40001
1.40001
1.40001
1.40001
1.40001
1.62074
4.5678
5.48245
5.33387
1.40001
1.40001
1.40001
1.40001
1.40001
1.40001
1.40001
1.40001
1.40001
1.40001
1.40001
1.40001
1.40001
1.40001
1.40001
1.40001
1.40001
1.40001
1.40001
1.40001
1.53789
4.37761
5.44839
5.32144
1.40001
1.40001
1.40001
1.40001
1.40001
1.40001
1.40001
1.40001
1.40001
1.40001
1.40001
1.40001
1.40001
1.40001
1.40001
1.40001
1.40001
1.40001
1.40001
1.40001
1.47756
4.23332
5.41147
5.3086
1.40001
1.40001
1.40001
1.40001
1.40001
1.40001
1.40001
1.40001
1.40001
1.40001
1.40001
1.40001
1.40001
1.40001
1.40001
1.40001
1.40001
1.40001
1.40001
1.40001
1.42137
4.15022
5.4055
5.31565
1.40001
1.40001
1.40001
1.40001
1.40001
1.40001
1.40001
1.40001
1.40001
1.40001
1.40001
1.40001
1.40001
1.40001
1.40001
1.40001
1.40001
1.40001
1.40001
1.40001
1.4009
4.06675
5.4027
5.32182
1.40001
1.40001
1.40001
1.40001
1.40001
1.40001
1.40001
1.40001
1.40001
1.40001
1.40001
1.40001
1.40001
1.40001
1.40001
1.40001
1.40001
1.40001
1.40001
1.40001
1.40002
3.99354
5.40402
5.32865
1.40001
1.40001
1.40001
1.40001
1.40001
1.40001
1.40001
1.40001
1.40001
1.40001
1.40001
1.40001
1.40001
1.40001
1.40001
1.40001
1.40001
1.40001
1.40001
1.40001
1.40001
3.95587
5.39967
5.33096
1.29542
0.516653
0.283696
0.218733
0.226702
0.258923
0.333766
0.447156
0.601953
0.769124
0.855189
0.861023
0.911715
1.88111
2.31997
2.4365
2.50182
2.46687
2.46337
2.50496
2.55019
2.56824
2.5757
2.58306
2.59412
2.60017
2.59903
2.5973
2.60111
2.60819
2.60982
2.60365
2.59511
2.59107
2.59255
2.59521
2.58966
2.57357
2.55619
2.54531
2.54127
2.5396
2.53278
2.51788
2.49896
2.48187
2.46904
2.45892
2.4469
2.42906
2.40677
2.3841
2.36352
2.34514
2.32673
2.30517
2.28065
2.2564
2.23479
2.21665
2.19975
2.17985
2.15583
2.13112
2.1079
2.08816
2.07065
2.04924
2.02639
2.00384
1.98311
1.96422
1.94676
1.92654
1.90468
1.88059
1.85427
1.82826
1.80727
1.79408
1.8064
1.92642
2.41953
2.55091
2.51707
2.48282
2.46304
2.4524
2.45207
2.45487
2.45244
2.44565
2.43644
2.42768
2.42562
2.43603
2.00304
1.20616
0.866232
0.711733
0.627993
0.565973
0.523302
0.524951
0.552386
0.620769
0.680397
0.726269
0.773338
1.7457
2.33759
2.45388
2.50224
2.47777
2.48708
2.5234
2.55501
2.56828
2.57701
2.58837
2.60257
2.60997
2.60752
2.60258
2.60255
2.60907
2.61526
2.61401
2.60535
2.59559
2.59166
2.59451
2.59763
2.59078
2.57284
2.55385
2.5411
2.53639
2.53522
2.52994
2.51564
2.49472
2.47425
2.45873
2.44832
2.43701
2.41781
2.39339
2.36965
2.34962
2.33348
2.31715
2.29528
2.26861
2.24257
2.2196
2.20095
2.18463
2.1638
2.13901
2.11512
2.09369
2.07542
2.05719
2.03593
2.0138
1.99108
1.9686
1.94735
1.92694
1.90592
1.88404
1.86207
1.83991
1.81963
1.81361
1.83158
1.9405
2.39979
2.5432
2.51912
2.49947
2.48471
2.46676
2.45341
2.44747
2.44787
2.45238
2.45368
2.44906
2.44018
2.43695
2.5109
1.82779
1.36288
1.10985
0.988426
0.877963
0.755908
0.652735
0.633239
0.654318
0.68482
0.725885
0.773134
1.43003
2.35187
2.50311
2.50795
2.5141
2.54403
2.57982
2.5963
2.60225
2.60884
2.62085
2.63629
2.64745
2.65049
2.64776
2.64464
2.64649
2.6533
2.66069
2.66478
2.66108
2.65037
2.6407
2.63761
2.63828
2.63386
2.61873
2.59922
2.58243
2.57219
2.56789
2.56446
2.55438
2.53435
2.51193
2.49323
2.4792
2.46519
2.44405
2.41768
2.39198
2.36974
2.35186
2.33582
2.31658
2.29218
2.26622
2.24207
2.22105
2.20108
2.17795
2.15315
2.128
2.10563
2.08484
2.06402
2.04383
2.02323
2.00087
1.97593
1.94898
1.9213
1.89771
1.87987
1.86704
1.86035
1.87067
1.90081
1.99422
2.3702
2.54674
2.53693
2.52719
2.53309
2.52472
2.50671
2.47858
2.46143
2.46018
2.47015
2.48388
2.4876
2.4773
2.82693
2.29176
1.86012
1.49462
1.2956
1.1947
1.09252
0.956132
0.837397
0.818317
0.804383
0.779747
0.785752
0.971935
2.20613
2.64743
2.61026
2.61366
2.65714
2.69137
2.70035
2.69969
2.69922
2.7017
2.70799
2.71687
2.72698
2.73504
2.73756
2.73588
2.73317
2.73341
2.74054
2.75233
2.75491
2.74187
2.72545
2.71364
2.70832
2.70385
2.69196
2.6737
2.65538
2.64029
2.63024
2.62501
2.61537
2.5951
2.57179
2.55037
2.53263
2.5166
2.49518
2.46932
2.44217
2.41665
2.3936
2.37255
2.35231
2.33107
2.30893
2.28636
2.26251
2.23713
2.21055
2.18464
2.16077
2.1376
2.11466
2.09179
2.06896
2.04591
2.02167
1.99549
1.9679
1.93989
1.91741
1.90904
1.91517
1.95082
2.01605
2.10879
2.35051
2.57888
2.59933
2.5749
2.57312
2.58035
2.57484
2.55983
2.53456
2.51513
2.51134
2.51713
2.5307
2.53289
3.0313
2.58283
2.23105
1.89656
1.6001
1.43779
1.33819
1.23286
1.1101
0.973151
0.918508
0.888226
0.879172
0.922542
1.63248
2.75663
2.86484
2.83001
2.81648
2.82001
2.82689
2.83722
2.84588
2.84575
2.84247
2.84066
2.84521
2.85897
2.873
2.87509
2.86817
2.86032
2.85668
2.86236
2.8759
2.87548
2.85841
2.83927
2.82488
2.81522
2.8069
2.79416
2.77631
2.75688
2.73986
2.72807
2.71879
2.70217
2.68026
2.65527
2.63193
2.61124
2.5897
2.56589
2.54119
2.51553
2.48884
2.46147
2.43422
2.40994
2.38941
2.36898
2.3466
2.32147
2.29251
2.26237
2.23409
2.20939
2.18574
2.16227
2.13668
2.10969
2.08044
2.05228
2.02587
2.00371
1.98718
1.98843
2.00863
2.06834
2.15924
2.22893
2.33982
2.56101
2.68057
2.67031
2.64599
2.64094
2.64671
2.64653
2.63784
2.61905
2.5977
2.58704
2.58353
2.58791
3.20274
2.80322
2.48085
2.18955
1.91353
1.70941
1.53273
1.40989
1.32051
1.20925
1.10844
1.08604
1.13078
1.18418
1.30744
2.21276
3.04134
3.12505
3.07807
2.9971
2.98501
3.01247
3.0357
3.02913
3.00936
2.99322
2.98539
2.99088
3.00888
3.01405
3.00526
2.99463
2.98465
2.97921
2.98526
2.99164
2.97915
2.95953
2.94117
2.92682
2.91543
2.90306
2.88392
2.86159
2.84057
2.82382
2.81064
2.79389
2.77419
2.75191
2.72711
2.70067
2.67341
2.64747
2.62355
2.59957
2.57421
2.54629
2.51557
2.48597
2.4608
2.43845
2.41705
2.39439
2.3689
2.33903
2.3085
2.27945
2.2536
2.22807
2.2027
2.17464
2.14475
2.11395
2.08814
2.07364
2.0726
2.09137
2.1456
2.22614
2.31215
2.34563
2.37848
2.49613
2.67263
2.74792
2.7458
2.72653
2.71415
2.72023
2.72345
2.71753
2.70108
2.67744
2.66394
2.6616
3.32068
2.97232
2.67348
2.40356
2.13572
1.93406
1.76691
1.59465
1.47353
1.40235
1.35155
1.38098
1.46303
1.49892
1.4994
1.66838
2.49232
3.18467
3.31095
3.23998
3.15827
3.16022
3.19068
3.18887
3.16323
3.13005
3.11595
3.1148
3.13183
3.1375
3.12758
3.11085
3.09447
3.08354
3.07958
3.08347
3.07412
3.05702
3.03619
3.01941
3.00502
2.99075
2.9702
2.94645
2.92195
2.90188
2.88359
2.86471
2.84578
2.82576
2.80204
2.77279
2.74096
2.71303
2.68814
2.66349
2.63827
2.61134
2.58178
2.55112
2.52194
2.49585
2.4715
2.44808
2.42326
2.39702
2.3685
2.34041
2.31166
2.28367
2.25462
2.22496
2.19518
2.16953
2.15296
2.1556
2.17512
2.22227
2.31786
2.38745
2.43377
2.4424
2.44106
2.46932
2.57288
2.71714
2.7966
2.81545
2.80252
2.7916
2.79034
2.78869
2.78329
2.76605
2.74407
2.73466
3.41529
3.10632
2.82061
2.58205
2.3318
2.08926
1.93734
1.81137
1.71403
1.66885
1.66525
1.76102
1.79142
1.78391
1.73876
1.74239
1.91804
2.61268
3.26225
3.40229
3.35235
3.30794
3.3055
3.29804
3.27301
3.23792
3.22022
3.21195
3.222
3.22404
3.2108
3.18784
3.16348
3.14972
3.14128
3.14217
3.13474
3.11912
3.09725
3.07528
3.05835
3.04232
3.0228
3.00091
2.97743
2.95244
2.92834
2.90792
2.88972
2.87037
2.84675
2.81743
2.78494
2.75484
2.72768
2.702
2.67666
2.65072
2.62347
2.59464
2.56516
2.53608
2.50839
2.48171
2.45664
2.43188
2.40739
2.38115
2.35361
2.32313
2.29122
2.25903
2.23183
2.21647
2.21943
2.24401
2.29446
2.38088
2.4899
2.52057
2.51851
2.50727
2.49176
2.48533
2.52108
2.61447
2.74363
2.83428
2.86597
2.86191
2.84995
2.83932
2.83331
2.8267
2.81236
2.79529
3.48449
3.21016
2.93789
2.70435
2.49243
2.2823
2.11896
2.06155
2.06435
2.02828
2.03472
2.08538
2.05627
1.99048
1.95138
1.91547
1.93976
2.08252
2.67057
3.30048
3.4479
3.43131
3.41069
3.38497
3.34846
3.31635
3.29719
3.2835
3.28273
3.27748
3.26082
3.23507
3.20789
3.19239
3.18207
3.17986
3.17066
3.15459
3.132
3.10579
3.08681
3.07039
3.05303
3.03253
3.00875
2.98081
2.95268
2.93144
2.91322
2.89302
2.86905
2.84148
2.811
2.78036
2.75169
2.7245
2.69775
2.67143
2.64557
2.61959
2.59251
2.56411
2.53468
2.50506
2.47659
2.45069
2.42651
2.4028
2.37713
2.3483
2.31631
2.28583
2.2672
2.26887
2.29451
2.36069
2.43907
2.54118
2.60421
2.60394
2.5865
2.55785
2.53659
2.51782
2.52077
2.55268
2.63805
2.75958
2.85472
2.89011
2.89951
2.88734
2.87605
2.86614
2.85756
2.84377
3.53675
3.28639
3.03911
2.82686
2.65777
2.50987
2.42598
2.45613
2.45773
2.36892
2.33535
2.33474
2.28516
2.20846
2.13267
2.11699
2.0847
2.10237
2.21479
2.7206
3.30809
3.45626
3.48773
3.47669
3.43238
3.38953
3.35561
3.33521
3.32221
3.31155
3.29277
3.26864
3.24199
3.22468
3.21225
3.20534
3.19299
3.17587
3.15212
3.12297
3.10217
3.08554
3.06877
3.04838
3.02425
2.99503
2.96645
2.94529
2.92536
2.90285
2.8775
2.84953
2.82023
2.79251
2.7662
2.73932
2.71098
2.68206
2.65439
2.62895
2.60473
2.58024
2.55363
2.52389
2.49152
2.45982
2.43223
2.40819
2.38683
2.36175
2.33837
2.31763
2.31542
2.33781
2.41049
2.50309
2.57633
2.64085
2.65951
2.65326
2.63505
2.60799
2.57939
2.5552
2.53969
2.54758
2.57994
2.65409
2.76191
2.85547
2.9038
2.91979
2.91149
2.90154
2.8916
2.87908
3.58369
3.35671
3.14748
2.99849
2.92905
2.85758
2.82393
2.83942
2.77149
2.63079
2.55595
2.52832
2.49079
2.42742
2.33668
2.29456
2.28015
2.22379
2.23683
2.31961
2.74548
3.27252
3.46321
3.5402
3.52068
3.46828
3.41375
3.3748
3.35357
3.3402
3.32164
3.30063
3.27492
3.25335
3.23782
3.22556
3.21043
3.19214
3.16715
3.13581
3.11352
3.0965
3.07899
3.05836
3.03375
3.00398
2.97819
2.95778
2.93589
2.91113
2.88308
2.85092
2.8196
2.79548
2.77393
2.75092
2.72465
2.69426
2.66133
2.6312
2.6065
2.58503
2.56279
2.53756
2.50665
2.47028
2.43472
2.40772
2.38828
2.37182
2.36293
2.37029
2.39916
2.47168
2.58399
2.63811
2.6699
2.68384
2.68754
2.68193
2.6672
2.64924
2.62604
2.59886
2.57578
2.5647
2.57332
2.60092
2.65707
2.75364
2.85383
2.90924
2.92638
2.93035
2.92906
2.91333
3.64158
3.46204
3.3415
3.32872
3.32705
3.23227
3.17438
3.1263
3.00886
2.85491
2.75416
2.71968
2.68917
2.62968
2.53454
2.46562
2.45375
2.41387
2.34831
2.34168
2.39861
2.74401
3.22598
3.48581
3.57334
3.54135
3.47976
3.4157
3.38671
3.37089
3.35353
3.33295
3.30724
3.27918
3.25992
3.24367
3.22676
3.20711
3.18069
3.1474
3.12411
3.10681
3.08895
3.06852
3.04304
3.012
2.98748
2.96741
2.94552
2.92092
2.89156
2.85414
2.81579
2.79171
2.77403
2.75627
2.73641
2.71109
2.67677
2.63616
2.60216
2.57908
2.56037
2.5405
2.51633
2.48566
2.44764
2.41001
2.38844
2.38579
2.40164
2.45432
2.53366
2.6491
2.73111
2.74238
2.73018
2.71291
2.70443
2.70027
2.69231
2.68156
2.66729
2.64706
2.62133
2.59975
2.58901
2.59539
2.61837
2.66019
2.74526
2.8445
2.90492
2.93805
2.95874
2.94832
3.77029
3.72231
3.71554
3.74225
3.6619
3.50248
3.40828
3.33255
3.21984
3.07095
2.95477
2.91307
2.88245
2.81768
2.72037
2.62817
2.60389
2.58535
2.52567
2.4476
2.42264
2.46221
2.73793
3.19473
3.50003
3.57467
3.5371
3.47357
3.42896
3.40935
3.38961
3.3675
3.33983
3.30451
3.28065
3.26243
3.24476
3.2241
3.19665
3.16081
3.13547
3.11875
3.10183
3.08234
3.05747
3.02496
2.99533
2.97295
2.95189
2.92963
2.90297
2.8674
2.82353
2.7895
2.77082
2.75605
2.74098
2.72216
2.69592
2.65563
2.60898
2.57457
2.55212
2.53377
2.51584
2.49481
2.46673
2.42946
2.41524
2.42931
2.4891
2.5857
2.67938
2.78087
2.811
2.80636
2.78205
2.74711
2.72939
2.7194
2.71475
2.71241
2.70302
2.68951
2.66986
2.64493
2.62467
2.61379
2.61634
2.63324
2.66544
2.73992
2.83437
2.90554
2.96301
2.97111
4.07478
4.11978
4.10927
4.05929
3.90244
3.71739
3.59554
3.51468
3.42122
3.28028
3.15289
3.0966
3.06011
2.99503
2.89771
2.79603
2.75054
2.73272
2.69148
2.61679
2.52563
2.50006
2.52849
2.74253
3.15482
3.48094
3.54639
3.52802
3.48643
3.46109
3.43647
3.40776
3.37539
3.33129
3.30322
3.28369
3.26573
3.24474
3.21769
3.18003
3.14866
3.13159
3.11609
3.09819
3.07563
3.0447
3.00668
2.97446
2.95158
2.93109
2.90865
2.88142
2.84604
2.80521
2.77296
2.7534
2.73674
2.72031
2.70122
2.67269
2.63234
2.58645
2.54836
2.52402
2.50826
2.49599
2.4869
2.47852
2.49347
2.54916
2.65403
2.73193
2.79462
2.84335
2.85103
2.84291
2.82308
2.7958
2.76821
2.75294
2.7447
2.74237
2.7378
2.72689
2.71289
2.6922
2.66897
2.64995
2.63668
2.63751
2.65012
2.68034
2.74151
2.82837
2.91673
2.97007
4.52163
4.46725
4.39066
4.25593
4.07443
3.9096
3.78664
3.70096
3.61813
3.48518
3.34716
3.27497
3.23153
3.16601
3.07054
2.96378
2.9057
2.87406
2.84043
2.77702
2.68727
2.60902
2.57803
2.59526
2.7419
3.09095
3.40924
3.50398
3.52607
3.52101
3.50251
3.46273
3.41755
3.36224
3.32756
3.30648
3.28896
3.26903
3.24417
3.20757
3.16615
3.14406
3.12813
3.11114
3.09095
3.06555
3.02804
2.98238
2.94996
2.92813
2.90837
2.88761
2.86325
2.83255
2.79632
2.7603
2.73188
2.71062
2.69196
2.67274
2.64668
2.60799
2.56335
2.52606
2.5106
2.50855
2.52315
2.56162
2.63387
2.75252
2.84107
2.85922
2.87187
2.8737
2.87712
2.87134
2.85838
2.84372
2.82188
2.79754
2.78481
2.7776
2.77305
2.76398
2.75161
2.73588
2.71347
2.69199
2.67407
2.66059
2.65734
2.66691
2.68938
2.7391
2.81786
2.9287
4.85081
4.70778
4.5831
4.41747
4.23505
4.10073
3.98843
3.88303
3.79554
3.67786
3.5376
3.45205
3.40176
3.33171
3.23867
3.13148
3.06018
3.02108
2.983
2.92796
2.84064
2.76142
2.69385
2.6514
2.66274
2.74586
3.00417
3.30677
3.4652
3.53603
3.56048
3.53014
3.47452
3.40448
3.35494
3.32843
3.30994
3.29301
3.27186
3.24068
3.19261
3.15539
3.13392
3.11481
3.09596
3.07526
3.04554
2.9992
2.95353
2.92586
2.90569
2.88719
2.86638
2.84254
2.81415
2.77828
2.74095
2.71622
2.69681
2.67523
2.64753
2.61617
2.58249
2.54646
2.53733
2.55008
2.60523
2.69886
2.80934
2.92767
2.95934
2.95329
2.92846
2.90948
2.90243
2.89879
2.89249
2.88273
2.86899
2.846
2.82508
2.81461
2.80698
2.79888
2.7877
2.77445
2.75617
2.73121
2.71193
2.69489
2.68011
2.6739
2.68046
2.69238
2.72313
2.83726
5.07058
4.89587
4.76194
4.59925
4.42185
4.30535
4.20556
4.07666
3.96782
3.8648
3.73113
3.63405
3.57945
3.50219
3.40716
3.30582
3.22072
3.1694
3.12717
3.07299
2.9969
2.90102
2.83872
2.77392
2.71866
2.73076
2.76267
2.92568
3.20717
3.43167
3.53765
3.54965
3.51963
3.45685
3.39614
3.35164
3.32645
3.30719
3.28767
3.2612
3.21747
3.17017
3.14058
3.11977
3.10037
3.07773
3.05017
3.01099
2.96862
2.92764
2.89422
2.87513
2.86237
2.84725
2.82539
2.79412
2.75472
2.71303
2.67366
2.64366
2.61956
2.60911
2.60124
2.59029
2.60269
2.65854
2.7707
2.86294
2.95152
3.01045
3.01477
3.00729
2.97834
2.9466
2.93384
2.9261
2.92401
2.91759
2.90482
2.88455
2.85862
2.84135
2.83157
2.82424
2.81594
2.80343
2.78589
2.76129
2.73579
2.71964
2.70435
2.69132
2.68307
2.6792
2.68156
2.73909
5.25719
5.07946
4.95313
4.78601
4.61008
4.50167
4.4103
4.27473
4.14065
4.04571
3.92986
3.82003
3.75627
3.67836
3.57201
3.47625
3.387
3.31774
3.26302
3.20605
3.13832
3.04886
2.96567
2.90689
2.83308
2.77801
2.75925
2.76747
2.87054
3.10711
3.36802
3.49728
3.49968
3.48343
3.43737
3.3836
3.34654
3.32039
3.29279
3.26163
3.22254
3.18134
3.14268
3.10106
3.06325
3.03533
3.01431
2.99784
2.97284
2.93692
2.9043
2.87302
2.84511
2.8212
2.80011
2.77829
2.74943
2.70403
2.65907
2.63155
2.62244
2.62273
2.6315
2.66201
2.73648
2.86471
2.95223
2.99162
3.02857
3.04645
3.04387
3.03172
3.00852
2.97792
2.95897
2.95129
2.94576
2.93839
2.92528
2.90912
2.88823
2.86588
2.85317
2.84461
2.83462
2.8204
2.80339
2.78353
2.75949
2.73819
2.7253
2.71196
2.69638
2.68276
2.67184
2.68071
5.35242
5.22632
5.12126
4.95908
4.80046
4.69574
4.60313
4.46586
4.31357
4.21458
4.12378
4.00622
3.92088
3.84627
3.73549
3.63344
3.55055
3.46859
3.3948
3.32636
3.26069
3.18687
3.09839
3.02161
2.95414
2.87616
2.81207
2.77608
2.76851
2.81596
2.99425
3.23119
3.3739
3.43734
3.44197
3.409
3.34507
3.28836
3.24884
3.22017
3.19826
3.17492
3.13729
3.08359
3.02783
2.99122
2.96841
2.95121
2.93586
2.91669
2.8848
2.8439
2.81187
2.78956
2.76867
2.74278
2.7082
2.6663
2.6296
2.61728
2.61938
2.63669
2.70078
2.80146
2.93094
3.0403
3.0577
3.0591
3.05973
3.05894
3.0608
3.0483
3.02945
3.00714
2.97867
2.95504
2.94351
2.93988
2.93618
2.92582
2.91143
2.89312
2.8676
2.84089
2.82784
2.82257
2.81524
2.80097
2.78237
2.76315
2.73964
2.7143
2.69873
2.6851
2.67346
2.66106
5.37811
5.31722
5.23542
5.08828
4.93892
4.84638
4.76226
4.62955
4.48046
4.37871
4.2936
4.17902
4.07324
3.99109
3.88235
3.77049
3.68499
3.60624
3.5197
3.42992
3.35152
3.28451
3.20961
3.13012
3.04982
2.97125
2.89276
2.81376
2.76974
2.73796
2.75186
2.86564
3.05781
3.23947
3.37218
3.37842
3.33478
3.26665
3.2136
3.17441
3.14406
3.11573
3.08309
3.03847
2.98667
2.95396
2.93413
2.91548
2.89402
2.86814
2.83424
2.79573
2.7658
2.74499
2.72444
2.701
2.67124
2.64206
2.61722
2.61491
2.63492
2.71479
2.84326
2.9532
3.05891
3.09637
3.09639
3.0843
3.05947
3.04685
3.04109
3.03759
3.0326
3.02052
2.99895
2.96931
2.94819
2.93801
2.933
2.92984
2.91963
2.90407
2.87964
2.84872
2.82641
2.81291
2.80343
2.79743
2.78949
2.77425
2.75103
2.72273
2.69718
2.67464
2.65894
2.64422
5.31271
5.27057
5.21733
5.11932
5.00291
4.9177
4.84116
4.72404
4.57885
4.4787
4.41575
4.31933
4.18217
4.0711
3.99823
3.8917
3.79543
3.72073
3.63807
3.52899
3.41114
3.33213
3.28391
3.22203
3.13747
3.03737
2.94287
2.86216
2.79136
2.73793
2.68528
2.67795
2.73929
2.89624
3.11607
3.24835
3.2493
3.2194
3.17486
3.13071
3.09078
3.05403
3.01681
2.97734
2.93992
2.91106
2.88746
2.8645
2.83966
2.81244
2.78236
2.7521
2.72216
2.69385
2.66606
2.64133
2.62217
2.61559
2.62151
2.65348
2.73855
2.87764
2.97458
3.0328
3.08607
3.10245
3.09913
3.08177
3.04613
3.02018
3.0128
3.01015
3.01348
3.00987
2.99915
2.9809
2.95232
2.92978
2.91829
2.90849
2.8988
2.88725
2.87344
2.85413
2.82731
2.80584
2.79283
2.78166
2.76893
2.75407
2.73645
2.71642
2.69311
2.67064
2.65195
2.62674
5.23256
5.18749
5.12925
5.04531
4.96012
4.89472
4.83884
4.74371
4.6142
4.51678
4.44925
4.36038
4.23727
4.11401
4.02603
3.94451
3.85131
3.74949
3.65313
3.57237
3.47834
3.38105
3.28852
3.21517
3.15797
3.08649
2.99907
2.90369
2.81029
2.7322
2.67041
2.63003
2.59785
2.62553
2.75089
2.95565
3.05824
3.11786
3.11745
3.08144
3.03282
2.98684
2.94262
2.90484
2.87606
2.84969
2.82189
2.79248
2.76566
2.74305
2.7223
2.69982
2.67198
2.63442
2.59468
2.57683
2.58029
2.60257
2.66395
2.77508
2.92022
3.0116
3.03122
3.05537
3.06841
3.07609
3.06864
3.05265
3.02832
2.99902
2.98589
2.98073
2.97983
2.98132
2.97431
2.96245
2.9421
2.91534
2.89676
2.88383
2.87234
2.86114
2.84927
2.83446
2.81368
2.7905
2.77299
2.75851
2.7443
2.72988
2.71464
2.69754
2.67688
2.65514
2.63661
2.60796
5.19559
5.14049
5.07212
4.99462
4.92334
4.86391
4.79488
4.69301
4.58419
4.50025
4.4402
4.35761
4.2398
4.12167
4.03777
3.95725
3.86783
3.76959
3.66202
3.56135
3.47562
3.39436
3.30926
3.22564
3.14185
3.06228
2.98675
2.91324
2.83474
2.75368
2.67696
2.60589
2.55338
2.51085
2.52333
2.62584
2.77902
2.91224
3.02148
3.01547
2.97477
2.92427
2.87679
2.84219
2.81738
2.79194
2.76055
2.72033
2.68739
2.67043
2.65507
2.63734
2.61157
2.57381
2.54288
2.54257
2.56429
2.63396
2.77323
2.91767
3.02599
3.05283
3.03783
3.02244
3.01162
3.01163
3.01441
3.01064
3.00193
2.98037
2.95877
2.94957
2.94444
2.94219
2.93599
2.92655
2.91238
2.89052
2.86927
2.85498
2.84335
2.83172
2.81921
2.80459
2.78558
2.7626
2.74237
2.72773
2.71512
2.70228
2.68773
2.67065
2.6498
2.6275
2.61012
2.58264
5.21741
5.13797
5.05617
4.97999
4.91027
4.83995
4.75471
4.65592
4.56264
4.49058
4.42711
4.32998
4.20989
4.10596
4.02907
3.95187
3.86036
3.75978
3.65459
3.55983
3.47754
3.39793
3.31747
3.23327
3.1463
3.0616
2.98388
2.91207
2.84203
2.77124
2.69658
2.62232
2.54688
2.48728
2.44038
2.44459
2.50903
2.63584
2.8156
2.91577
2.90432
2.86913
2.83088
2.79853
2.7723
2.74682
2.71132
2.66091
2.61613
2.59395
2.57962
2.56556
2.54741
2.53347
2.53097
2.53954
2.60192
2.75681
2.89056
2.99642
3.03942
3.03505
3.00905
2.97787
2.96716
2.96446
2.96654
2.96703
2.96133
2.94894
2.93148
2.91813
2.91104
2.90541
2.89868
2.88991
2.87805
2.86111
2.84102
2.82387
2.81105
2.79945
2.78751
2.77433
2.75833
2.73846
2.7172
2.69965
2.68617
2.67367
2.65993
2.64375
2.6244
2.6025
2.5845
2.55755
5.24069
5.16127
5.08688
5.01158
4.93379
4.84902
4.75385
4.65778
4.57152
4.49852
4.41433
4.30584
4.19542
4.10578
4.03535
3.95473
3.85551
3.74703
3.64764
3.56124
3.48164
3.40322
3.32272
3.23728
3.14837
3.06286
2.98569
2.91549
2.84945
2.78296
2.71283
2.63561
2.55712
2.48809
2.43105
2.39269
2.37904
2.4134
2.52975
2.71068
2.78713
2.80276
2.79325
2.77024
2.73968
2.70702
2.66676
2.61786
2.56984
2.53444
2.51702
2.50714
2.50215
2.52026
2.53642
2.61336
2.7782
2.89809
2.95148
2.98816
2.99771
2.98853
2.97382
2.95687
2.94039
2.93255
2.9285
2.92542
2.92102
2.91395
2.90458
2.89368
2.88348
2.87553
2.86758
2.85746
2.8449
2.8304
2.8146
2.79901
2.78604
2.77515
2.76375
2.75024
2.73387
2.71515
2.6957
2.67766
2.66248
2.64927
2.6356
2.61905
2.59923
2.57796
2.56213
2.53823
5.25872
5.18144
5.10742
5.0305
4.94816
4.86001
4.76743
4.67849
4.59747
4.5165
4.41727
4.3072
4.2078
4.12954
4.05478
3.96129
3.85127
3.74521
3.65821
3.57711
3.4986
3.41842
3.33201
3.24041
3.15217
3.0722
2.9996
2.93134
2.86483
2.79596
2.72263
2.64723
2.57354
2.50572
2.44385
2.38988
2.34968
2.31798
2.3345
2.43542
2.59443
2.6894
2.74546
2.73515
2.70219
2.66481
2.62487
2.58448
2.54602
2.50892
2.48401
2.47713
2.48755
2.51388
2.61707
2.78827
2.93126
2.96308
2.9612
2.95884
2.95397
2.95073
2.94586
2.93936
2.92815
2.91295
2.90228
2.89709
2.89418
2.89323
2.88883
2.88195
2.87108
2.85629
2.84212
2.82948
2.81889
2.81009
2.80096
2.78981
2.77562
2.76028
2.74496
2.72907
2.7133
2.69885
2.68576
2.67195
2.65547
2.6369
2.61803
2.59912
2.58101
2.56565
2.55441
2.53129
5.2608
5.19138
5.11932
5.04225
4.96005
4.87416
4.7878
4.70474
4.62292
4.53133
4.42665
4.32424
4.23611
4.16136
4.0727
3.96691
3.85437
3.76558
3.68831
3.60828
3.52493
3.43401
3.33754
3.24694
3.16654
3.09312
3.02373
2.95473
2.88208
2.8046
2.72854
2.65885
2.59417
2.53286
2.4718
2.40908
2.34933
2.29549
2.26002
2.27538
2.36168
2.49941
2.64288
2.6807
2.64962
2.61707
2.58282
2.55195
2.52316
2.49571
2.47026
2.46413
2.49593
2.61795
2.78031
2.92998
2.97643
2.9775
2.96343
2.94086
2.9304
2.92628
2.92909
2.92625
2.91902
2.90431
2.88879
2.8837
2.88136
2.88325
2.8816
2.87472
2.86256
2.84201
2.82485
2.81659
2.8104
2.80522
2.79764
2.78733
2.77048
2.74919
2.73213
2.71907
2.7079
2.69755
2.68658
2.67273
2.65213
2.6275
2.60679
2.59116
2.57856
2.56642
2.55475
2.5271
5.25368
5.18776
5.11896
5.04556
4.96774
4.88717
4.80618
4.7249
4.63845
4.5423
4.44193
4.34828
4.2685
4.18778
4.08636
3.97421
3.87609
3.79774
3.72134
3.63689
3.54464
3.44447
3.34818
3.26397
3.18986
3.1204
3.05162
2.97786
2.89557
2.8115
2.73648
2.67301
2.61595
2.55994
2.50149
2.43478
2.36146
2.29188
2.24161
2.22221
2.23238
2.29211
2.42726
2.57156
2.58579
2.5692
2.54789
2.52166
2.49538
2.48437
2.47995
2.5155
2.63529
2.78744
2.90616
2.98104
2.99135
2.98243
2.95678
2.92737
2.91826
2.91581
2.92082
2.9204
2.91498
2.90313
2.88833
2.88205
2.87874
2.87819
2.87484
2.86752
2.85523
2.8372
2.82224
2.81405
2.80766
2.80181
2.79389
2.78263
2.76483
2.74443
2.72964
2.719
2.70901
2.69873
2.68695
2.67044
2.64751
2.62386
2.60584
2.59209
2.5798
2.56689
2.55361
2.52191
5.26007
5.19475
5.12653
5.05433
4.97864
4.90075
4.8211
4.73785
4.6482
4.55339
4.45907
4.372
4.29574
4.20516
4.09586
3.98962
3.90238
3.8241
3.74274
3.65402
3.55737
3.45793
3.36741
3.28865
3.2162
3.14561
3.07205
2.99122
2.90529
2.8225
2.75023
2.68868
2.63443
2.58198
2.52559
2.45739
2.3791
2.30429
2.24357
2.20161
2.18291
2.18776
2.2256
2.34117
2.45984
2.4944
2.51686
2.50446
2.49486
2.50227
2.55362
2.6818
2.82302
2.91708
2.96687
2.9878
2.98347
2.96865
2.94291