/*--------------------------------*- C++ -*----------------------------------*\
  =========                 |
  \\      /  F ield         | OpenFOAM: The Open Source CFD Toolbox
   \\    /   O peration     | Website:  https://openfoam.org
    \\  /    A nd           | Version:  7
     \\/     M anipulation  |
\*---------------------------------------------------------------------------*/
FoamFile
{
    version     2.0;
    format      ascii;
    class       volScalarField;
    location    "10.5";
    object      T;
}
// * * * * * * * * * * * * * * * * * * * * * * * * * * * * * * * * * * * * * //

dimensions      [0 0 0 1 0 0 0];

internalField   nonuniform List<scalar> 
4032
(
1
1
1
1
1
1
1
1
1
1
1
1.17253
2.41316
2.71643
2.7269
2.74223
2.75558
2.76822
2.77974
2.78995
2.7989
2.80607
2.81149
2.81542
1
1
1
1
1
1
1
1
1
1
1
1.15502
2.39915
2.7153
2.72626
2.74087
2.75398
2.76636
2.77755
2.78731
2.79572
2.80234
2.80716
2.81088
1
1
1
1
1
1
1
1
1
1
1
1.10161
2.36144
2.71243
2.72313
2.73788
2.75111
2.76344
2.77449
2.78391
2.79176
2.79773
2.80159
2.80475
1
1
1
1
1
1
1
1
1
1
1
1.00736
2.29355
2.70453
2.71824
2.73321
2.74602
2.75756
2.76798
2.77699
2.78459
2.79022
2.79339
2.79578
1
1
1
1
1
1
1
1
1
1
1
1.00006
2.21152
2.68868
2.7076
2.72315
2.73664
2.74827
2.75841
2.76662
2.77276
2.77686
2.7785
2.78125
1
1
1
1
1
1
1
1
1
1
1
1
2.09714
2.66996
2.69841
2.71275
2.72606
2.73696
2.74613
2.75355
2.75907
2.76222
2.76051
2.75485
1
1
1
1
1
1
1
1
1
1
1
1
1.93892
2.63459
2.68257
2.69829
2.71186
2.72206
2.72979
2.73502
2.7366
2.73301
2.72468
2.71732
1
1
1
1
1
1
1
1
1
1
1
1
1.72203
2.56468
2.6559
2.67928
2.69508
2.70539
2.71131
2.71343
2.71054
2.70517
2.6997
2.71068
1
1
1
1
1
1
1
1
1
1
1
1
1.41035
2.4407
2.62952
2.65495
2.67323
2.68475
2.68898
2.68797
2.67972
2.66098
2.60912
2.50923
1
1
1
1
1
1
1
1
1
1
1
1
1.05143
2.30815
2.62994
2.63189
2.64235
2.65323
2.65793
2.65475
2.64165
2.60836
2.5504
2.38871
1
1
1
1
1
1
1
1
1
1
1
1
1.00061
2.13994
2.58886
2.59718
2.60825
2.61573
2.62021
2.61571
2.60059
2.56181
2.4974
2.31343
1
1
1
1
1
1
1
1
1
1
1
1
0.999994
1.83276
2.52404
2.58163
2.58988
2.58899
2.58758
2.57941
2.56048
2.52174
2.44917
2.28901
1
1
1
1
1
1
1
1
1
1
1
1
0.999998
1.374
2.37996
2.56322
2.56323
2.56174
2.55659
2.54407
2.52113
2.48288
2.40917
2.28905
1
1
1
1
1
1
1
1
1
1
1
1
1
1.03844
2.19493
2.52248
2.53295
2.53211
2.52638
2.51227
2.48813
2.44787
2.37946
2.28865
1
1
1
1
1
1
1
1
1
1
1
1
1
1.00023
1.82822
2.43931
2.51094
2.5079
2.50061
2.48368
2.45917
2.41672
2.35663
2.28419
1
1
1
1
1
1
1
1
1
1
1
1
1
0.999998
1.24059
2.28005
2.49118
2.4779
2.47002
2.45491
2.42894
2.39163
2.34002
2.27878
1
1
1
1
1
1
1
1
1
1
1
1
1
1
1.01341
2.08312
2.44114
2.43188
2.4306
2.42091
2.40041
2.36898
2.32484
2.27158
1
1
1
1
1
1
1
1
1
1
1
1
1
1
1.00001
1.58522
2.32454
2.41247
2.40599
2.39383
2.3745
2.34617
2.3082
2.26238
1
1
1
1
1
1
1
1
1
1
1
1
1
1
0.999998
1.08907
2.11589
2.39072
2.38286
2.36846
2.34802
2.3217
2.28825
2.24869
1
1
1
1
1
1
1
1
1
1
1
1
1
1
0.999999
1.00157
1.66564
2.2773
2.36072
2.34236
2.32282
2.29796
2.26726
2.23241
1
1
1
1
1
1
1
1
1
1
1
1
1
1
1
1
1.13008
2.07744
2.33537
2.31735
2.30065
2.27597
2.24607
2.2192
1
1
1
1
1
1
1
1
1
1
1
1
1
1
1
1
1.00355
1.62521
2.20992
2.29543
2.27381
2.24869
2.22406
2.22695
1
1
1
1
1
1
1
1
1
1
1
1
1
1
1
1
1.00001
1.11823
1.99463
2.27306
2.24349
2.22895
2.23899
2.28289
1
1
1
1
1
1
1
1
1
1
1
1
1
1
1
1
1
1.00301
1.47751
2.12161
2.19469
2.23544
2.30257
2.35528
1
1
1
1
1
1
1
1
1
1
1
1
1
1
1
1
1
1.00001
1.06353
1.84924
2.14239
2.29715
2.37584
2.38322
1
1
1
1
1
1
1
1
1
1
1
1
1
1
1
1
1
1
1.00106
1.28856
2.03866
2.37503
2.38923
2.37515
1
1
1
1
1
1
1
1
1
1
1
1
1
1
1
1
1
1
1
1.01911
2.05006
2.49439
2.44257
2.39434
1
1
1
1
1
1
1
1
1
1
1
1
1
1
1
1
1
1
1
1.00015
2.00253
2.58076
2.52233
2.45853
1
1
1
1
1
1
1
1
1
1
1
1
1
1
1
1
1
1
1
1
1.95291
2.63662
2.60746
2.55337
1
1
1
1
1
1
1
1
1
1
1
1
1
1
1
1
1
1
1
1
1.83982
2.63578
2.64288
2.61531
1
1
1
1
1
1
1
1
1
1
1
1
1
1
1
1
1
1
1
1
1.68246
2.59022
2.65728
2.63331
1
1
1
1
1
1
1
1
1
1
1
1
1
1
1
1
1
1
1
1
1.49454
2.50827
2.66133
2.63745
1
1
1
1
1
1
1
1
1
1
1
1
1
1
1
1
1
1
1
1
1.30357
2.43219
2.65517
2.63042
1
1
1
1
1
1
1
1
1
1
1
1
1
1
1
1
1
1
1
1
1.18363
2.397
2.65885
2.63212
1
1
1
1
1
1
1
1
1
1
1
1
1
1
1
1
1
1
1
1
1.13003
2.37528
2.66851
2.64182
1
1
1
1
1
1
1
1
1
1
1
1
1
1
1
1
1
1
1
1
1.07669
2.34389
2.67405
2.65162
1
1
1
1
1
1
1
1
1
1
1
1
1
1
1
1
1
1
1
1
1.02122
2.31061
2.67364
2.65535
1
1
1
1
1
1
1
1
1
1
1
1
1
1
1
1
1
1
1
1
1.00056
2.27806
2.66978
2.65374
1
1
1
1
1
1
1
1
1
1
1
1
1
1
1
1
1
1
1
1
1
2.25381
2.66683
2.65216
1
1
1
1
1
1
1
1
1
1
1
1
1
1
1
1
1
1
1
1
1
2.24342
2.66521
2.65167
1.69285
1.17258
1.03195
1.11583
1.175
1.21945
1.28478
1.36646
1.47866
1.59306
1.6576
1.67369
1.76616
2.53148
2.72952
2.79595
2.83177
2.81542
2.80784
2.81565
2.82338
2.81973
2.81034
2.80247
2.79769
2.7918
2.78324
2.77552
2.7713
2.7692
2.76566
2.75859
2.75105
2.74536
2.74206
2.7382
2.72932
2.71524
2.69997
2.68681
2.67671
2.66783
2.65703
2.64359
2.62912
2.61597
2.60528
2.59648
2.58727
2.57558
2.5619
2.54805
2.53516
2.52333
2.51155
2.49847
2.48433
2.47057
2.45827
2.44797
2.43872
2.42824
2.41583
2.40311
2.39108
2.38052
2.37077
2.35882
2.34579
2.33261
2.32003
2.30815
2.297
2.28458
2.27128
2.25687
2.24153
2.22642
2.21435
2.20543
2.21082
2.26976
2.49012
2.54215
2.52784
2.51337
2.50545
2.50211
2.50249
2.50375
2.5014
2.4955
2.48733
2.47814
2.47174
2.47119
1.93964
1.616
1.45767
1.40129
1.34871
1.28969
1.23615
1.23627
1.25545
1.31891
1.37892
1.43018
1.48254
2.37144
2.71681
2.79188
2.81922
2.80822
2.80686
2.81209
2.81435
2.80881
2.79971
2.79333
2.78947
2.78389
2.77409
2.76394
2.75683
2.75317
2.74997
2.74413
2.73573
2.72729
2.72095
2.71716
2.71266
2.70287
2.68819
2.67265
2.659
2.64841
2.63969
2.62968
2.61685
2.60228
2.58853
2.57722
2.56845
2.5596
2.54769
2.53374
2.51992
2.50752
2.49677
2.48604
2.47311
2.45847
2.44445
2.43203
2.42174
2.41273
2.40197
2.38968
2.37787
2.36707
2.35747
2.34763
2.33612
2.32392
2.31117
2.29829
2.28574
2.27334
2.26059
2.24754
2.23454
2.22147
2.21017
2.20428
2.21221
2.26379
2.4671
2.52372
2.51343
2.50477
2.49911
2.49353
2.48959
2.48701
2.48624
2.48613
2.4834
2.47599
2.4673
2.46005
2.03972
1.83045
1.65428
1.53924
1.47912
1.41873
1.3408
1.24989
1.21406
1.22794
1.25263
1.29373
1.32669
2.05544
2.6651
2.75666
2.7697
2.775
2.78097
2.78616
2.78437
2.77577
2.76609
2.75943
2.75516
2.7501
2.7416
2.73018
2.7188
2.70959
2.70273
2.69721
2.69181
2.68386
2.67387
2.66482
2.65862
2.65391
2.64645
2.63418
2.61897
2.60382
2.59091
2.58085
2.57199
2.56132
2.54767
2.53364
2.52167
2.51242
2.50384
2.49262
2.47914
2.46556
2.45311
2.44236
2.43241
2.4213
2.40823
2.39467
2.38205
2.37129
2.36164
2.35111
2.34016
2.32915
2.31935
2.3103
2.30114
2.29199
2.28228
2.27132
2.25858
2.24439
2.22967
2.21668
2.20627
2.19845
2.19347
2.19641
2.20754
2.24716
2.40669
2.47592
2.47116
2.46674
2.47005
2.46885
2.4646
2.45527
2.44904
2.44815
2.45019
2.45203
2.45058
2.44175
2.10045
1.94949
1.8117
1.66984
1.58388
1.54148
1.49213
1.41189
1.32483
1.30552
1.2961
1.28039
1.28487
1.47389
2.40206
2.67065
2.68693
2.6952
2.70867
2.71417
2.71194
2.70278
2.69253
2.68314
2.67531
2.66882
2.66249
2.65468
2.64385
2.62996
2.61568
2.60373
2.59597
2.59146
2.58573
2.57505
2.56508
2.55707
2.55103
2.54467
2.5346
2.5211
2.50656
2.4929
2.48145
2.47253
2.46275
2.45038
2.43813
2.42744
2.41875
2.41105
2.40149
2.39017
2.378
2.366
2.35453
2.34348
2.33261
2.32161
2.3108
2.30048
2.29024
2.27994
2.26965
2.2601
2.25182
2.24418
2.23677
2.22925
2.22132
2.21265
2.20285
2.19173
2.17954
2.16661
2.1556
2.1503
2.15167
2.16414
2.18796
2.22172
2.31286
2.39985
2.40433
2.3974
2.39828
2.40354
2.40452
2.40352
2.39737
2.3913
2.39003
2.39217
2.39617
2.39549
2.14723
2.02066
1.9139
1.80106
1.68939
1.62356
1.58042
1.53109
1.46903
1.39019
1.35428
1.33128
1.33229
1.36174
1.89216
2.46634
2.58757
2.58358
2.58444
2.58265
2.58195
2.58052
2.57849
2.5718
2.56238
2.55373
2.5475
2.54324
2.53791
2.52673
2.51057
2.49523
2.48276
2.47597
2.473
2.4672
2.45678
2.44728
2.43941
2.43299
2.42657
2.41765
2.40588
2.39287
2.38063
2.37075
2.36267
2.35309
2.34285
2.3323
2.32288
2.3149
2.30701
2.29847
2.28947
2.27968
2.26895
2.25749
2.24586
2.23539
2.22655
2.21808
2.2093
2.20005
2.18999
2.18012
2.17149
2.16469
2.15862
2.15276
2.14596
2.13827
2.12926
2.12014
2.11106
2.10328
2.09642
2.09535
2.10177
2.12233
2.1544
2.17259
2.20632
2.28301
2.32516
2.32161
2.31557
2.3159
2.32175
2.32659
2.32731
2.32482
2.31997
2.31797
2.31767
2.31955
2.18487
2.07666
1.9822
1.88969
1.7947
1.7195
1.64781
1.59477
1.55534
1.50241
1.45171
1.43741
1.46134
1.49118
1.56634
2.06253
2.40447
2.49282
2.47895
2.45427
2.44904
2.45649
2.4612
2.45641
2.44535
2.43509
2.42745
2.42436
2.42318
2.41734
2.40399
2.39111
2.37963
2.37058
2.36682
2.36366
2.35489
2.34588
2.33783
2.33102
2.32499
2.31819
2.30856
2.29743
2.28663
2.27752
2.27009
2.26214
2.25396
2.24553
2.23673
2.2278
2.21896
2.21082
2.20343
2.19588
2.18761
2.17818
2.16751
2.15696
2.14782
2.13969
2.13213
2.12449
2.11633
2.10706
2.09799
2.08985
2.08328
2.07712
2.07125
2.06443
2.05681
2.04844
2.04153
2.03842
2.03764
2.04382
2.0633
2.08998
2.12063
2.11895
2.12359
2.15928
2.219
2.24134
2.24525
2.23958
2.23978
2.24453
2.24987
2.25102
2.24962
2.24489
2.24259
2.24258
2.20301
2.11435
2.03166
1.95061
1.86321
1.79344
1.73198
1.66404
1.61301
1.58086
1.56213
1.57706
1.61466
1.63018
1.63239
1.72005
2.08434
2.32925
2.40016
2.38145
2.35875
2.3582
2.36517
2.36344
2.35397
2.34191
2.33478
2.33195
2.33314
2.33103
2.3218
2.31106
2.30131
2.29371
2.28865
2.2862
2.27946
2.27183
2.26378
2.2569
2.25078
2.24462
2.23636
2.22701
2.21738
2.20919
2.20176
2.19452
2.18765
2.18077
2.17301
2.1638
2.15408
2.14582
2.13867
2.13164
2.1244
2.11651
2.10759
2.09805
2.08875
2.08036
2.07258
2.06521
2.05753
2.04959
2.04117
2.03324
2.02533
2.01793
2.01043
2.00294
1.9955
1.98921
1.98657
1.98816
1.99667
2.01556
2.04914
2.06932
2.08218
2.0754
2.06816
2.07513
2.10594
2.14995
2.17478
2.18558
2.18275
2.18217
2.1837
2.18583
2.18704
2.18477
2.17986
2.17851
2.21163
2.13744
2.06304
1.99641
1.92031
1.84015
1.78709
1.74176
1.70533
1.69227
1.69259
1.73208
1.74068
1.73729
1.719
1.71985
1.79509
2.05826
2.27221
2.33321
2.32163
2.30891
2.30681
2.3031
2.29578
2.28537
2.27865
2.27436
2.27526
2.27352
2.26612
2.25639
2.24676
2.24045
2.23573
2.23349
2.2286
2.22223
2.21451
2.20669
2.20037
2.19439
2.18742
2.17983
2.17181
2.16335
2.15521
2.14829
2.1422
2.1359
2.12846
2.11953
2.10998
2.10133
2.09362
2.08639
2.0793
2.07199
2.06422
2.0559
2.0473
2.03869
2.03038
2.02232
2.01476
2.00733
2.00015
1.99263
1.98491
1.97627
1.9672
1.95801
1.95059
1.9479
1.95016
1.96139
1.98123
2.013
2.0478
2.05384
2.05004
2.04084
2.03131
2.02575
2.035
2.06233
2.10008
2.12899
2.14022
2.14267
2.13949
2.13763
2.13787
2.13772
2.13483
2.13111
2.21304
2.1498
2.08192
2.01988
1.95988
1.89585
1.8436
1.82659
1.82996
1.82137
1.82466
1.84176
1.83019
1.80533
1.78901
1.77244
1.78081
1.83529
2.04302
2.24193
2.2897
2.29025
2.28321
2.27429
2.26442
2.2554
2.24858
2.24317
2.24111
2.23747
2.23077
2.22178
2.21247
2.20655
2.20197
2.19948
2.19511
2.18945
2.18208
2.17355
2.16703
2.16132
2.15543
2.1488
2.14132
2.13263
2.12382
2.11699
2.11107
2.10462
2.09715
2.08879
2.0799
2.07118
2.06309
2.05545
2.04793
2.0405
2.03313
2.02569
2.01801
2.00996
2.00151
1.99286
1.98449
1.9769
1.96988
1.96306
1.95571
1.94753
1.93788
1.92819
1.92357
1.92556
1.93618
1.96065
1.98798
2.01945
2.03737
2.03626
2.02878
2.01679
2.00696
1.99926
1.99655
2.00503
2.0302
2.06511
2.09428
2.10553
2.11111
2.10816
2.10593
2.10386
2.10186
2.09886
2.21073
2.15475
2.09548
2.04203
1.99803
1.95659
1.93768
1.95027
1.95208
1.92706
1.91595
1.91476
1.89749
1.87123
1.84318
1.83492
1.82076
1.82624
1.86502
2.03679
2.21322
2.25867
2.27038
2.2661
2.25337
2.24171
2.23131
2.2239
2.21839
2.21364
2.20708
2.19923
2.19057
2.18434
2.17944
2.17614
2.1716
2.16609
2.15877
2.14979
2.14302
2.13744
2.1319
2.1255
2.11819
2.10942
2.10071
2.09403
2.08764
2.08048
2.07262
2.06431
2.05577
2.04764
2.04016
2.03272
2.02482
2.01662
2.00872
2.00149
1.99459
1.98757
1.98003
1.97166
1.96241
1.95329
1.94554
1.93892
1.93278
1.92552
1.91817
1.91232
1.9127
1.9214
1.94659
1.97609
1.99824
2.0169
2.02112
2.01882
2.01237
2.00248
1.99143
1.98194
1.97558
1.97663
1.98441
2.00564
2.03738
2.06381
2.07902
2.08548
2.08355
2.08092
2.07822
2.07525
2.20447
2.15704
2.11019
2.07636
2.06326
2.05003
2.04565
2.05146
2.03298
1.99375
1.97073
1.96153
1.94933
1.92903
1.89884
1.88197
1.87504
1.85544
1.85725
1.88189
2.02359
2.17739
2.23354
2.25646
2.25035
2.23543
2.22002
2.20807
2.20066
2.19561
2.18948
2.18277
2.17466
2.16748
2.16197
2.15749
2.15247
2.14679
2.13933
2.13001
2.12297
2.11733
2.11159
2.10516
2.09782
2.08906
2.08122
2.07477
2.06787
2.0601
2.05144
2.04187
2.03287
2.02588
2.01971
2.01328
2.00605
1.99758
1.98821
1.97965
1.97282
1.96678
1.96055
1.95346
1.94482
1.93468
1.92465
1.91714
1.91145
1.90665
1.90516
1.90855
1.91892
1.94253
1.97834
1.99362
2.00111
2.00456
2.00413
2.00197
1.99677
1.99027
1.98176
1.97183
1.96347
1.95875
1.95999
1.96606
1.98205
2.01035
2.03831
2.05452
2.06004
2.0621
2.06155
2.05721
2.19691
2.16506
2.14498
2.14896
2.15498
2.1381
2.12658
2.11529
2.08495
2.0435
2.01434
2.00403
1.99484
1.97667
1.94678
1.92265
1.91689
1.90259
1.88129
1.87339
1.89055
2.00143
2.14111
2.21212
2.23816
2.22954
2.21175
2.19399
2.18515
2.17979
2.17416
2.16769
2.15972
2.151
2.14459
2.13911
2.1336
2.12753
2.11975
2.11004
2.10278
2.09706
2.09121
2.08483
2.07729
2.06826
2.06082
2.05442
2.04756
2.04005
2.03124
2.02009
2.00888
2.0024
1.99769
1.99275
1.98721
1.98026
1.97086
1.95938
1.9498
1.94385
1.93899
1.9336
1.92705
1.91885
1.90826
1.89663
1.89008
1.89063
1.89764
1.91572
1.94088
1.97649
1.9992
2.00019
1.99651
1.99034
1.98637
1.98404
1.9809
1.97686
1.9714
1.96393
1.95481
1.94694
1.94277
1.94251
1.94678
1.95843
1.98292
2.01043
2.02702
2.03693
2.0437
2.04045
2.20407
2.20824
2.21574
2.2334
2.21796
2.18533
2.16616
2.14975
2.12294
2.0851
2.05382
2.04253
2.03403
2.0153
1.98608
1.95669
1.94738
1.94018
1.92032
1.89474
1.88115
1.89224
1.97725
2.10711
2.18812
2.21019
2.2014
2.18343
2.17091
2.16453
2.15817
2.15126
2.14273
2.13208
2.12442
2.11836
2.11257
2.10615
2.09807
2.08775
2.07995
2.07437
2.06877
2.06266
2.05531
2.046
2.03736
2.0306
2.02412
2.01733
2.00954
1.99943
1.98695
1.97754
1.97287
1.96941
1.96555
1.96052
1.95339
1.94244
1.92952
1.92025
1.91469
1.91034
1.9059
1.90057
1.89305
1.8819
1.87958
1.8846
1.90448
1.93506
1.96321
1.99268
1.99648
1.99495
1.98795
1.97698
1.97009
1.96591
1.96358
1.96194
1.95798
1.95255
1.94522
1.93634
1.92881
1.92488
1.92217
1.9251
1.93308
1.95354
1.97941
1.99876
2.01488
2.01887
2.24873
2.27289
2.28743
2.28133
2.25163
2.2148
2.1908
2.17482
2.15445
2.12069
2.08855
2.07433
2.06491
2.04712
2.01934
1.98879
1.97378
1.96694
1.9529
1.92831
1.89831
1.88456
1.89182
1.95438
2.06938
2.15231
2.17294
2.16867
2.15728
2.14866
2.14087
2.13216
2.12238
2.10939
2.10056
2.09414
2.08823
2.08165
2.0737
2.06303
2.05372
2.04806
2.04286
2.03714
2.03041
2.02173
2.01131
2.0024
1.99592
1.98995
1.98355
1.97613
1.96684
1.95598
1.94766
1.94311
1.93951
1.93564
1.93065
1.92315
1.91254
1.90032
1.89043
1.88431
1.88061
1.87807
1.87573
1.87684
1.88259
1.90019
1.93176
1.95399
1.97213
1.98277
1.98324
1.98037
1.97401
1.96517
1.95552
1.94956
1.946
1.94415
1.94149
1.93684
1.93113
1.92347
1.91501
1.90785
1.90325
1.89954
1.90154
1.90838
1.92435
1.94782
1.97096
1.98742
2.32228
2.32664
2.32112
2.29856
2.26513
2.23559
2.21314
2.19721
2.1808
2.15097
2.11792
2.10042
2.08973
2.07268
2.04667
2.01603
1.99794
1.98718
1.97538
1.95439
1.92496
1.89735
1.88463
1.888
1.92511
2.01953
2.10071
2.12696
2.13221
2.13022
2.1236
2.11205
2.09945
2.08385
2.07352
2.06696
2.06122
2.05479
2.04731
2.03713
2.02565
2.01904
2.01413
2.00893
2.0029
1.99565
1.98554
1.97349
1.96524
1.96001
1.95517
1.94991
1.94378
1.93622
1.92707
1.91797
1.91137
1.90679
1.90289
1.89848
1.89189
1.88192
1.87022
1.85992
1.8565
1.85684
1.86324
1.87734
1.89999
1.93502
1.95816
1.96194
1.96566
1.96319
1.96259
1.96038
1.95582
1.95025
1.94232
1.93385
1.92891
1.92564
1.92308
1.91916
1.91428
1.90833
1.90034
1.89243
1.8859
1.88067
1.87759
1.87907
1.88344
1.89584
1.91685
1.94735
2.36373
2.34823
2.33078
2.3029
2.27278
2.25207
2.23314
2.21365
2.19735
2.17275
2.14086
2.12093
2.10897
2.0913
2.0668
2.03719
2.01592
2.00301
1.98998
1.9717
1.94376
1.91693
1.89288
1.88004
1.87535
1.89252
1.96223
2.03993
2.07765
2.09498
2.10129
2.09361
2.07848
2.06008
2.04673
2.03935
2.03377
2.02816
2.02137
2.01248
1.99997
1.99034
1.98496
1.98025
1.97528
1.96954
1.96125
1.94877
1.93727
1.93107
1.92703
1.9232
1.91851
1.91267
1.90558
1.89671
1.88764
1.88223
1.87821
1.87355
1.86722
1.85898
1.85009
1.84083
1.84058
1.8453
1.86362
1.89139
1.92333
1.95528
1.96024
1.95858
1.95174
1.94458
1.9411
1.93906
1.9363
1.93249
1.92753
1.9201
1.91306
1.90895
1.90584
1.90279
1.89898
1.8946
1.88863
1.88041
1.87363
1.8677
1.86264
1.86043
1.86114
1.86348
1.8714
1.90258
2.35855
2.34114
2.32669
2.30415
2.27821
2.26244
2.24765
2.22489
2.20476
2.1849
2.15662
2.13524
2.12274
2.10378
2.0795
2.05257
2.02872
2.01284
1.99883
1.98122
1.95758
1.92814
1.90675
1.88442
1.86749
1.86267
1.86717
1.91017
1.98169
2.03331
2.06014
2.06448
2.05797
2.043
2.02739
2.01599
2.00989
2.00495
1.99935
1.992
1.98082
1.96897
1.96147
1.95635
1.95195
1.94696
1.94062
1.93098
1.91989
1.90926
1.90125
1.89698
1.89439
1.89128
1.88661
1.8795
1.86983
1.85902
1.84871
1.84115
1.8359
1.83375
1.83211
1.83303
1.83794
1.85505
1.88602
1.91096
1.93513
1.94815
1.94866
1.94667
1.93894
1.92966
1.92517
1.92222
1.92102
1.91884
1.91528
1.90984
1.90249
1.89696
1.8935
1.89109
1.88851
1.88501
1.88044
1.87382
1.86648
1.86133
1.85621
1.85221
1.85031
1.84922
1.84895
1.86473
2.34867
2.33315
2.32243
2.30207
2.27687
2.26282
2.25126
2.22968
2.20578
2.18866
2.16602
2.14346
2.12942
2.11113
2.08579
2.06171
2.03818
2.01906
2.00292
1.98545
1.96489
1.93903
1.91483
1.89587
1.87216
1.85465
1.84679
1.84776
1.87444
1.9337
1.99667
2.02435
2.03142
2.02844
2.01813
2.00524
1.99669
1.99102
1.98512
1.97844
1.97003
1.96038
1.95016
1.93887
1.92947
1.92337
1.91928
1.91619
1.9104
1.90105
1.89189
1.88335
1.87613
1.87042
1.86556
1.86033
1.85296
1.84119
1.82959
1.82231
1.82078
1.82218
1.82607
1.83682
1.85822
1.89208
1.91413
1.92403
1.93379
1.9384
1.93776
1.93494
1.92991
1.9227
1.91762
1.91527
1.91375
1.91191
1.90869
1.90462
1.8992
1.89354
1.89032
1.88785
1.88504
1.88108
1.87644
1.87148
1.8656
1.86034
1.85712
1.85348
1.84891
1.84474
1.84182
1.84502
2.35588
2.33935
2.32583
2.30271
2.27953
2.266
2.25426
2.23285
2.20583
2.18811
2.17195
2.14931
2.13118
2.11498
2.09103
2.0677
2.04715
2.02638
2.0078
1.98963
1.97099
1.9502
1.92675
1.90699
1.88828
1.86542
1.84785
1.83842
1.8389
1.85398
1.90142
1.95986
1.9944
2.01224
2.01496
2.00817
1.99395
1.98148
1.97371
1.96852
1.96438
1.95921
1.95015
1.93716
1.92359
1.91451
1.90881
1.90464
1.90116
1.89633
1.88776
1.87694
1.86834
1.86201
1.8558
1.84814
1.83853
1.82754
1.81845
1.81516
1.81571
1.82104
1.83895
1.86562
1.89887
1.92635
1.93037
1.9314
1.9335
1.93482
1.93555
1.93278
1.92877
1.92383
1.91751
1.91242
1.90984
1.90906
1.90816
1.90533
1.90177
1.89763
1.89175
1.88526
1.88215
1.88085
1.87886
1.87525
1.87067
1.86616
1.86068
1.85437
1.85007
1.84653
1.84317
1.84113
2.40991
2.38054
2.35446
2.32309
2.29643
2.2809
2.26641
2.24271
2.21547
2.19752
2.18244
2.16045
2.1402
2.1235
2.09963
2.07577
2.05692
2.03815
2.01817
1.99901
1.98135
1.96394
1.94403
1.92592
1.90958
1.89209
1.87211
1.85252
1.8431
1.83987
1.84859
1.88555
1.93618
1.98264
2.0162
2.01815
2.00946
1.99387
1.98118
1.97162
1.96383
1.95704
1.94993
1.93984
1.92692
1.91811
1.91262
1.90744
1.9013
1.89415
1.88524
1.8749
1.86637
1.86006
1.85383
1.847
1.83846
1.82997
1.82229
1.82075
1.82592
1.84645
1.87941
1.90678
1.93394
1.9443
1.94493
1.94273
1.93801
1.93583
1.93467
1.93403
1.93312
1.93091
1.92652
1.91984
1.91495
1.91261
1.91166
1.91133
1.90942
1.90594
1.90001
1.89237
1.88706
1.88418
1.88245
1.88144
1.87982
1.87625
1.87055
1.86353
1.85744
1.85224
1.84816
1.84473
2.50172
2.45849
2.42136
2.38267
2.34755
2.32244
2.30109
2.27397
2.24426
2.22424
2.21116
2.19086
2.16344
2.14161
2.12637
2.1037
2.08449
2.06999
2.05237
2.02829
2.00345
1.98833
1.97931
1.96667
1.94883
1.92794
1.90805
1.8913
1.87626
1.86325
1.85678
1.85937
1.88399
1.93059
1.99081
2.02535
2.02419
2.01625
2.0046
1.99219
1.98114
1.9718
1.96247
1.9516
1.94028
1.93135
1.92412
1.91709
1.90949
1.90109
1.89157
1.88202
1.87276
1.86398
1.85541
1.84721
1.8407
1.83676
1.83632
1.84423
1.86727
1.90348
1.92773
1.94308
1.95947
1.96501
1.96407
1.95957
1.95066
1.94432
1.94272
1.94234
1.94398
1.9439
1.94205
1.93779
1.93071
1.92544
1.92334
1.92174
1.91995
1.91732
1.9139
1.90915
1.90273
1.89793
1.89539
1.89322
1.89071
1.88762
1.88376
1.87921
1.87384
1.86869
1.86443
1.85864
2.58159
2.54347
2.50238
2.45948
2.42108
2.39023
2.36498
2.3348
2.30125
2.27653
2.25908
2.23754
2.20954
2.18405
2.16651
2.1488
2.12961
2.10997
2.0903
2.07264
2.05313
2.03466
2.01733
2.00261
1.99141
1.97762
1.96044
1.94039
1.9197
1.9026
1.88977
1.88052
1.88024
1.89303
1.9334
1.99376
2.02116
2.03419
2.03357
2.02296
2.00888
1.99568
1.98266
1.97073
1.9609
1.95183
1.94254
1.9328
1.92342
1.91478
1.90654
1.89798
1.88797
1.87561
1.86258
1.85437
1.85305
1.85659
1.8715
1.9009
1.93922
1.96294
1.97021
1.9782
1.98363
1.986
1.98386
1.97949
1.97331
1.96586
1.96288
1.96216
1.96247
1.96343
1.96225
1.96017
1.95556
1.94919
1.94508
1.94237
1.93977
1.93705
1.93417
1.93085
1.92606
1.92064
1.91673
1.91368
1.91077
1.90787
1.90481
1.90128
1.89671
1.89171
1.88752
1.881
2.61596
2.5924
2.56224
2.52831
2.49571
2.46656
2.43646
2.40206
2.36896
2.34273
2.32298
2.29985
2.27104
2.24335
2.22374
2.20514
2.18491
2.16363
2.14089
2.11979
2.10169
2.08445
2.06678
2.04916
2.03159
2.01524
1.99947
1.98342
1.96612
1.94852
1.93131
1.9145
1.89904
1.8935
1.90124
1.93559
1.98428
2.02228
2.0497
2.04637
2.03396
2.01883
2.00433
1.9934
1.98485
1.97568
1.96455
1.95083
1.93899
1.93175
1.92493
1.91708
1.90666
1.89358
1.88038
1.87543
1.87989
1.89782
1.93536
1.97355
2.00351
2.01209
2.00903
2.00597
2.00361
2.00368
2.00468
2.00396
2.00186
1.99632
1.99111
1.98937
1.98854
1.98846
1.98767
1.98625
1.98346
1.97822
1.97291
1.96948
1.96673
1.96397
1.96103
1.9576
1.95303
1.94738
1.94248
1.93916
1.93648
1.93387
1.93089
1.92722
1.92237
1.91698
1.91279
1.90612
2.62369
2.60502
2.58434
2.56285
2.54089
2.51736
2.48971
2.4592
2.43017
2.40633
2.38549
2.35808
2.32681
2.30041
2.28086
2.2614
2.23914
2.21558
2.19126
2.16961
2.1509
2.13282
2.11456
2.09523
2.07494
2.05528
2.03734
2.02077
2.0044
1.98774
1.96965
1.95076
1.93036
1.91325
1.90253
1.90604
1.92902
1.97159
2.02695
2.05319
2.04802
2.03505
2.02363
2.01376
2.00493
1.99589
1.9836
1.96671
1.95118
1.94236
1.93604
1.92961
1.92207
1.91551
1.9073
1.90796
1.92553
1.97006
2.00611
2.03639
2.04967
2.04851
2.04079
2.03223
2.02991
2.02947
2.03034
2.03062
2.02908
2.02586
2.02159
2.0185
2.01704
2.01611
2.0151
2.0136
2.01106
2.00682
2.00155
1.99705
1.99373
1.99082
1.98793
1.98477
1.98084
1.97577
1.97028
1.9658
1.96244
1.95946
1.95627
1.95246
1.94767
1.94206
1.93735
1.93011
2.61975
2.60644
2.59304
2.57799
2.56064
2.54037
2.51704
2.49288
2.47007
2.44957
2.42674
2.39898
2.371
2.34782
2.32914
2.30829
2.28363
2.25725
2.23323
2.21208
2.19257
2.17347
2.1538
2.1327
2.11056
2.08918
2.06979
2.05204
2.03513
2.0179
1.99929
1.97815
1.95652
1.93678
1.91904
1.90722
1.90693
1.91892
1.95849
2.01686
2.03879
2.03943
2.03559
2.0273
2.01686
2.00638
1.99377
1.97791
1.96133
1.94834
1.94138
1.93711
1.93461
1.93601
1.93746
1.96063
2.01092
2.04419
2.05917
2.07136
2.07346
2.07085
2.06634
2.061
2.05662
2.055
2.05408
2.05312
2.05169
2.04972
2.04736
2.04463
2.04213
2.04037
2.03861
2.03623
2.03303
2.02911
2.0247
2.02033
2.01674
2.01382
2.01085
2.00739
2.00316
1.99814
1.99273
1.9877
1.98354
1.97997
1.97627
1.97179
1.96639
1.96042
1.95599
1.9492
2.62069
2.60759
2.59424
2.57993
2.56413
2.54666
2.52766
2.50846
2.49021
2.47156
2.44844
2.42293
2.39963
2.38033
2.36129
2.33809
2.31141
2.28568
2.2642
2.24363
2.22368
2.2034
2.18149
2.15812
2.1353
2.11429
2.09493
2.07647
2.05825
2.03921
2.01861
1.99697
1.97546
1.95557
1.93682
1.91922
1.90689
1.89769
1.90377
1.93851
1.99054
2.02177
2.03553
2.03129
2.01997
2.0077
1.99516
1.98221
1.96918
1.95651
1.94808
1.94486
1.94669
1.95243
1.98398
2.03755
2.07974
2.0877
2.0885
2.08697
2.08546
2.08473
2.08319
2.08089
2.07752
2.07349
2.07056
2.06894
2.06798
2.06766
2.06639
2.06446
2.06151
2.05757
2.05374
2.05021
2.04717
2.04457
2.04184
2.03853
2.03441
2.03003
2.0257
2.02121
2.01675
2.0127
2.00902
2.00507
2.00028
1.99487
1.98928
1.98351
1.97802
1.9735
1.97028
1.96364
2.62872
2.61436
2.59975
2.58456
2.56857
2.5517
2.53437
2.51733
2.50025
2.48084
2.45829
2.43565
2.41551
2.398
2.3773
2.3526
2.32607
2.30446
2.28502
2.26485
2.24381
2.22075
2.19612
2.17264
2.15128
2.13139
2.11234
2.09314
2.07267
2.0506
2.02864
2.00811
1.98865
1.96994
1.95111
1.93152
1.91178
1.89443
1.88297
1.88827
1.91771
1.96479
2.01168
2.02287
2.01315
2.00201
1.99029
1.98003
1.97064
1.96208
1.95321
1.95007
1.95956
1.99812
2.04849
2.09364
2.10667
2.10685
2.10237
2.09523
2.09213
2.09096
2.09161
2.09054
2.08818
2.0837
2.07919
2.07788
2.07734
2.0779
2.07734
2.07527
2.07175
2.06578
2.06089
2.05857
2.05671
2.05504
2.05266
2.04952
2.04452
2.03823
2.03319
2.02933
2.02607
2.02311
2.02001
2.01592
2.00973
2.00221
1.99588
1.99104
1.98705
1.98329
1.97972
1.97162
2.63802
2.62302
2.60789
2.59196
2.57538
2.55844
2.54147
2.52444
2.50623
2.4858
2.46416
2.44353
2.42567
2.40742
2.38438
2.35867
2.33546
2.3163
2.29758
2.27685
2.25391
2.22856
2.20374
2.18153
2.16162
2.14274
2.12383
2.10326
2.07994
2.05573
2.03367
2.01464
1.99731
1.98007
1.96177
1.94079
1.91737
1.89451
1.87772
1.87096
1.87452
1.89553
1.9421
1.98868
1.99469
1.98967
1.98293
1.97434
1.96565
1.96241
1.95981
1.97101
2.00936
2.05647
2.0926
2.11352
2.11586
2.11328
2.10553
2.09666
2.09382
2.09306
2.09429
2.09398
2.09232
2.08888
2.08454
2.08283
2.08198
2.08186
2.08085
2.07872
2.07522
2.06987
2.06538
2.06296
2.0611
2.05928
2.05678
2.05342
2.04817
2.04211
2.0377
2.03458
2.0317
2.02864
2.02508
2.02015
2.01327
2.00602
2.00044
1.99625
1.99242
1.98827
1.98399
1.9744
2.64315
2.62885
2.61404
2.59828
2.58178
2.56489
2.54769
2.52975
2.51043
2.4899
2.46926
2.44999
2.43298
2.41256
2.3876
2.36294
2.34218
2.32337
2.30376
2.28214
2.25813
2.23285
2.2093
2.18847
2.1691
2.14994
2.12974
2.10732
2.08302
2.05906
2.03763
2.01908
2.00257
1.98651
1.96907
1.94748
1.92246
1.89804
1.87781
1.86361
1.85713
1.85889
1.87237
1.91195
1.95154
1.96429
1.97254
1.96867
1.96587
1.96849
1.98505
2.02499
2.0677
2.09592
2.10992
2.11544
2.11409
2.10965
2.10218
2.09687
2.09502
2.09456
2.09513
2.09483
2.09349
2.09087
2.08777
2.08566
2.08415
2.08296
2.08157
2.07943
2.0761
2.07219
2.06853
2.06526
2.06271
2.06038
2.05762
2.05406
2.04955
2.04469
2.04055
2.0373
2.03423
2.03074
2.02645
2.02117
2.01505
2.00877
2.00334
1.99878
1.99462
1.99016
1.98542
1.97553
2.64202
2.6286
2.61454
2.59965
2.584
2.56768
2.5505
2.53219
2.5128
2.4929
2.47349
2.45522
2.43656
2.41454
2.39067
2.36843
2.34786
2.32791
2.30648
2.28372
2.25978
2.23623
2.21466
2.19425
2.17408
2.15342
2.13135
2.10788
2.08463
2.06285
2.04287
2.02401
2.00596
1.98798
1.96832
1.9472
1.92581
1.90503
1.8852
1.86694
1.85098
1.83977
1.8338
1.84412
1.87973
1.91692
1.94745
1.95943
1.96999
1.99671
2.03585
2.0806
2.10638
2.11686
2.11484
2.11004
2.1057
2.10116
2.09812
2.097
2.09658
2.09601
2.09521
2.09409
2.09224
2.09047
2.0891
2.08749
2.08527
2.08308
2.08105
2.07843
2.07552
2.07293
2.07028
2.06713
2.06367
2.06031
2.05701
2.05346
2.04986
2.0463
2.04251
2.03842
2.03446
2.03033
2.02564
2.0206
2.01562
2.01066
2.00552
2.00029
1.99535
1.99017
1.9849
1.97579
2.64047
2.62775
2.61429
2.59994
2.58473
2.56866
2.55163
2.53371
2.51512
2.49622
2.47731
2.45826
2.4366
2.41304
2.3916
2.37232
2.35255
2.33032
2.30742
2.28394
2.26098
2.23958
2.21918
2.19864
2.17706
2.15391
2.13021
2.10727
2.08623
2.06711
2.0487
2.02964
2.00892
1.98647
1.96478
1.9453
1.92757
1.91099
1.89354
1.87437
1.85278
1.83131
1.81454
1.80967
1.82188
1.85756
1.90466
1.94866
1.99592
2.04422
2.07851
2.10623
2.1178
2.11721
2.11219
2.10296
2.09733
2.09576
2.09637
2.09837
2.09841
2.09706
2.09397
2.09121
2.09033
2.09006
2.09
2.089
2.08693
2.0832
2.07895
2.07648
2.07488
2.07322
2.07122
2.06844
2.06448
2.06002
2.05605
2.05266
2.04977
2.04701
2.04371
2.03922
2.03389
2.02894
2.02441
2.02
2.01579
2.01168
2.0071
2.00161
1.99534
1.98912
1.98396
1.97589
2.64003
2.62753
2.61427
2.60007
2.58493
2.56886
2.55198
2.53451
2.51662
2.49833
2.47917
2.45825
2.43635
2.41522
2.39514
2.37607
2.35472
2.33173
2.30763
2.2838
2.26272
2.24259
2.22249
2.20159
2.17853
2.15299
2.1278
2.1065
2.0886
2.07174
2.05424
2.03398
2.00922
1.98223
1.95936
1.94304
1.92979
1.91673
1.90146
1.8807
1.85274
1.82325
1.80382
1.79511
1.79621
1.81243
1.86101
1.94366
2.0249
2.07761
2.11849
2.13559
2.13392
2.12343
2.11193
2.09957
2.09435
2.09345
2.0953
2.09811
2.09782
2.09614
2.09192
2.08968
2.08934
2.09044
2.09167
2.09041
2.08772
2.08242
2.07748
2.07541
2.07406
2.07335
2.07172
2.06925
2.06506
2.05954
2.05541
2.0526
2.05004
2.04735
2.044
2.03903
2.03264
2.02721
2.02318
2.01977
2.0165
2.013
2.00877
2.00264
1.99431
1.98685
1.983
1.97669
)
;

boundaryField
{
    inlet
    {
        type            fixedValue;
        value           uniform 1;
    }
    outlet
    {
        type            inletOutlet;
        inletValue      uniform 1;
        value           nonuniform List<scalar> 
32
(
2.47185
2.45988
2.44056
2.39542
2.32018
2.24282
2.17862
2.13097
2.09861
2.07521
2.05731
2.04064
2.01893
1.98749
1.94733
1.90236
1.86434
1.84465
1.84089
1.84506
1.85884
1.88114
1.90629
1.93024
1.94944
1.96382
1.97146
1.974
1.97516
1.97567
1.97605
1.97714
)
;
    }
    bottom
    {
        type            symmetryPlane;
    }
    top
    {
        type            symmetryPlane;
    }
    obstacle
    {
        type            zeroGradient;
    }
    defaultFaces
    {
        type            empty;
    }
}


// ************************************************************************* //
