/*--------------------------------*- C++ -*----------------------------------*\
  =========                 |
  \\      /  F ield         | OpenFOAM: The Open Source CFD Toolbox
   \\    /   O peration     | Website:  https://openfoam.org
    \\  /    A nd           | Version:  7
     \\/     M anipulation  |
\*---------------------------------------------------------------------------*/
FoamFile
{
    version     2.0;
    format      ascii;
    class       volVectorField;
    location    "10.5";
    object      U;
}
// * * * * * * * * * * * * * * * * * * * * * * * * * * * * * * * * * * * * * //

dimensions      [0 1 -1 0 0 0 0];

internalField   nonuniform List<vector> 
4032
(
(3 -3.95041e-18 0)
(3 -2.50335e-17 0)
(3 -5.25232e-17 0)
(3 1.72559e-16 0)
(3 1.6218e-16 0)
(3 -6.93552e-18 0)
(3 1.40777e-17 0)
(3 3.39085e-16 0)
(3 1.46508e-16 0)
(3 1.16747e-16 0)
(3 3.08036e-16 0)
(2.90064 0.00319492 0)
(0.988463 0.0160632 0)
(0.709542 0.019353 0)
(0.657718 0.0241395 0)
(0.597888 0.0255811 0)
(0.538984 0.0267727 0)
(0.478291 0.0281002 0)
(0.415839 0.0296142 0)
(0.350949 0.0314274 0)
(0.283093 0.0334292 0)
(0.210693 0.0364638 0)
(0.132031 0.0391028 0)
(0.049436 0.0445605 0)
(3 -4.50583e-17 0)
(3 -1.95922e-16 0)
(3 -2.84761e-16 0)
(3 1.3475e-17 0)
(3 6.0432e-16 0)
(3 7.23378e-16 0)
(3 8.54056e-16 0)
(3 6.96274e-16 0)
(3 1.38738e-16 0)
(3 3.529e-16 0)
(3 3.7873e-16 0)
(2.91069 0.0202429 0)
(0.994539 0.0742947 0)
(0.695512 0.0666935 0)
(0.641372 0.0708113 0)
(0.582659 0.0753093 0)
(0.523998 0.0796877 0)
(0.463047 0.0843416 0)
(0.400055 0.0891432 0)
(0.334878 0.0947002 0)
(0.26755 0.100634 0)
(0.197477 0.110237 0)
(0.122256 0.11884 0)
(0.0459809 0.134546 0)
(3 1.16855e-16 0)
(3 1.12955e-16 0)
(3 -2.18413e-16 0)
(3 -5.63496e-16 0)
(3 -3.36788e-16 0)
(3 1.41326e-16 0)
(3 2.18024e-16 0)
(3 -1.85598e-16 0)
(3 2.97892e-16 0)
(3 7.15368e-16 0)
(3 4.76368e-16 0)
(2.95459 0.0400708 0)
(1.03212 0.137725 0)
(0.710926 0.115844 0)
(0.656429 0.122349 0)
(0.595704 0.129756 0)
(0.534909 0.137304 0)
(0.471793 0.145381 0)
(0.40619 0.153392 0)
(0.337884 0.162105 0)
(0.266961 0.170176 0)
(0.194412 0.183571 0)
(0.117704 0.195077 0)
(0.0438152 0.217415 0)
(3 4.04993e-17 0)
(3 8.15938e-17 0)
(3 -2.8872e-16 0)
(3 -1.17806e-15 0)
(3 -1.09416e-15 0)
(3 -6.08329e-16 0)
(3 -4.6989e-16 0)
(3 -7.81457e-16 0)
(3 -3.0946e-16 0)
(3 -3.5426e-16 0)
(3 -3.64639e-16 0)
(3.00835 0.00632858 0)
(1.10746 0.182207 0)
(0.74364 0.15272 0)
(0.692129 0.166573 0)
(0.632712 0.178496 0)
(0.571753 0.190043 0)
(0.508023 0.202856 0)
(0.440437 0.216184 0)
(0.36821 0.231223 0)
(0.290762 0.244387 0)
(0.211112 0.262818 0)
(0.12681 0.276962 0)
(0.0459069 0.30242 0)
(3 -1.92476e-17 0)
(3 4.19348e-17 0)
(3 -1.72857e-16 0)
(3 -2.70313e-16 0)
(3 -4.20821e-16 0)
(3 -1.15539e-16 0)
(3 -2.14582e-16 0)
(3 -6.97556e-16 0)
(3 -1.76327e-15 0)
(3 -1.89857e-15 0)
(3 -1.98939e-15 0)
(3.0006 3.05223e-05 0)
(1.21603 0.224422 0)
(0.750209 0.197115 0)
(0.695673 0.217735 0)
(0.639657 0.234193 0)
(0.581348 0.249215 0)
(0.521088 0.266802 0)
(0.457215 0.285708 0)
(0.389303 0.30739 0)
(0.314652 0.325408 0)
(0.235658 0.348525 0)
(0.145593 0.367727 0)
(0.0550044 0.399397 0)
(3 6.31439e-17 0)
(3 2.48154e-17 0)
(3 2.19417e-16 0)
(3 4.00638e-16 0)
(3 -4.19109e-16 0)
(3 -8.1852e-16 0)
(3 -1.03332e-15 0)
(3 -1.10802e-15 0)
(3 -1.05696e-15 0)
(3 -1.0024e-15 0)
(3 -1.43708e-15 0)
(3 -1.19815e-07 0)
(1.39565 0.274604 0)
(0.765616 0.245423 0)
(0.696988 0.261915 0)
(0.648034 0.281072 0)
(0.59791 0.298797 0)
(0.547509 0.320306 0)
(0.492142 0.344627 0)
(0.430371 0.375094 0)
(0.355133 0.405377 0)
(0.268298 0.443113 0)
(0.166192 0.478332 0)
(0.0561666 0.517327 0)
(3 -2.76886e-16 0)
(3 -7.41282e-16 0)
(3 -6.20261e-16 0)
(3 -5.07957e-16 0)
(3 -9.4773e-17 0)
(3 -1.66274e-16 0)
(3 -5.52029e-16 0)
(3 -3.66699e-16 0)
(3 -2.53153e-16 0)
(3 -8.81369e-16 0)
(3 -7.20357e-16 0)
(3 -1.19933e-07 0)
(1.66951 0.325823 0)
(0.796001 0.309328 0)
(0.696721 0.308676 0)
(0.64595 0.325192 0)
(0.597972 0.343509 0)
(0.55464 0.369812 0)
(0.50832 0.40233 0)
(0.459044 0.444946 0)
(0.397756 0.492004 0)
(0.326556 0.543669 0)
(0.233431 0.59467 0)
(0.101431 0.660432 0)
(3 1.12219e-17 0)
(3 -2.11454e-17 0)
(3 -3.53879e-18 0)
(3 2.85876e-16 0)
(3 7.60087e-16 0)
(3 1.25763e-15 0)
(3 1.74908e-15 0)
(3 1.73508e-15 0)
(3 6.66502e-16 0)
(3 -3.98921e-16 0)
(3 1.58092e-16 0)
(3 -2.50465e-08 0)
(2.07238 0.36737 0)
(0.852255 0.394471 0)
(0.716925 0.370141 0)
(0.667229 0.379029 0)
(0.620271 0.392251 0)
(0.579551 0.416645 0)
(0.54052 0.452246 0)
(0.501951 0.501212 0)
(0.457661 0.560525 0)
(0.395623 0.64153 0)
(0.27548 0.757652 0)
(0.151622 0.924839 0)
(3 1.59204e-16 0)
(3 4.9683e-16 0)
(3 5.81614e-16 0)
(3 4.41153e-16 0)
(3 2.93477e-16 0)
(3 4.70197e-16 0)
(3 9.1758e-16 0)
(3 8.6414e-16 0)
(3 1.04979e-15 0)
(3 1.18612e-15 0)
(3 2.29712e-15 0)
(3 -2.5927e-09 0)
(2.65624 0.302915 0)
(0.98445 0.477908 0)
(0.803459 0.406424 0)
(0.751699 0.41491 0)
(0.694072 0.433286 0)
(0.642656 0.459427 0)
(0.599872 0.496702 0)
(0.563577 0.550052 0)
(0.52977 0.626866 0)
(0.496963 0.751071 0)
(0.465695 0.923339 0)
(0.579162 1.20397 0)
(3 -2.03408e-16 0)
(3 -2.83772e-17 0)
(3 1.20617e-16 0)
(3 -4.46678e-16 0)
(3 -5.54454e-16 0)
(3 -8.32915e-16 0)
(3 -1.13702e-15 0)
(3 -7.97132e-16 0)
(3 -5.20306e-17 0)
(3 6.71999e-16 0)
(3 1.59199e-15 0)
(3 -1.04057e-10 0)
(3.07668 0.0426702 0)
(1.21913 0.469522 0)
(0.882188 0.447619 0)
(0.838701 0.474091 0)
(0.785225 0.489764 0)
(0.730915 0.511152 0)
(0.682592 0.544783 0)
(0.643712 0.597036 0)
(0.624338 0.681676 0)
(0.623493 0.816598 0)
(0.686857 0.965623 0)
(0.970074 1.13836 0)
(3 -2.73272e-17 0)
(3 -1.72775e-16 0)
(3 -2.63145e-16 0)
(3 -2.46954e-16 0)
(3 -1.78537e-16 0)
(3 -6.50562e-16 0)
(3 -1.4078e-15 0)
(3 -1.50875e-15 0)
(3 -1.76023e-15 0)
(3 -8.53971e-16 0)
(3 3.82731e-16 0)
(3 -2.15473e-12 0)
(3.00862 8.18334e-05 0)
(1.43612 0.462189 0)
(0.884138 0.512296 0)
(0.836597 0.531525 0)
(0.800989 0.550893 0)
(0.772606 0.575444 0)
(0.745059 0.607588 0)
(0.720411 0.651659 0)
(0.723224 0.725579 0)
(0.75121 0.840053 0)
(0.87321 0.963217 0)
(1.17917 1.0703 0)
(3 1.27794e-16 0)
(3 4.46344e-17 0)
(3 -3.99389e-16 0)
(3 -5.76476e-16 0)
(3 -7.94039e-16 0)
(3 -6.09181e-16 0)
(3 -3.47274e-16 0)
(3 -5.57523e-16 0)
(3 -3.47751e-16 0)
(3 -3.14887e-16 0)
(3 -1.90781e-16 0)
(3 -1.87374e-14 0)
(3.00006 -2.50217e-06 0)
(1.94306 0.494247 0)
(0.929023 0.576778 0)
(0.853391 0.560322 0)
(0.834084 0.581984 0)
(0.819749 0.607555 0)
(0.80963 0.64222 0)
(0.801836 0.682675 0)
(0.817497 0.746094 0)
(0.867123 0.837539 0)
(1.01068 0.939458 0)
(1.27308 1.00785 0)
(3 1.49062e-17 0)
(3 -3.98406e-17 0)
(3 -6.5153e-17 0)
(3 -1.54003e-16 0)
(3 -1.84509e-16 0)
(3 3.78451e-16 0)
(3 4.67006e-16 0)
(3 3.60687e-16 0)
(3 3.65033e-16 0)
(3 -2.34404e-16 0)
(3 -1.72984e-16 0)
(3 -1.00457e-15 0)
(3.00001 -3.17225e-06 0)
(2.74732 0.31935 0)
(1.09632 0.635052 0)
(0.920575 0.580836 0)
(0.891514 0.601671 0)
(0.873998 0.630586 0)
(0.870206 0.668824 0)
(0.876466 0.710957 0)
(0.901395 0.765545 0)
(0.96631 0.834651 0)
(1.10565 0.906862 0)
(1.31949 0.947397 0)
(3 -7.55683e-17 0)
(3 -2.62092e-16 0)
(3 1.81582e-16 0)
(3 8.29037e-16 0)
(3 9.00736e-16 0)
(3 5.41634e-16 0)
(3 1.86562e-16 0)
(3 3.746e-16 0)
(3 5.50841e-16 0)
(3 1.47472e-16 0)
(3 1.79303e-16 0)
(3 -4.64391e-16 0)
(3 -6.69273e-07 0)
(3.07451 0.0260529 0)
(1.43572 0.631779 0)
(1.00182 0.65257 0)
(0.950549 0.652126 0)
(0.924981 0.666653 0)
(0.923253 0.694151 0)
(0.939451 0.730377 0)
(0.97437 0.773766 0)
(1.0477 0.827604 0)
(1.17481 0.879336 0)
(1.34889 0.905707 0)
(3 -7.1899e-17 0)
(3 1.33269e-16 0)
(3 1.97225e-16 0)
(3 2.70017e-16 0)
(3 -1.13075e-16 0)
(3 -3.32922e-16 0)
(3 -1.1914e-16 0)
(3 1.43617e-16 0)
(3 1.68492e-16 0)
(3 7.13585e-17 0)
(3 -4.53931e-16 0)
(3 -5.48948e-16 0)
(3 -6.79213e-08 0)
(3.00413 7.35518e-05 0)
(1.98955 0.600123 0)
(1.06337 0.724441 0)
(1.01085 0.701997 0)
(0.99497 0.698902 0)
(0.991389 0.715062 0)
(1.00613 0.741824 0)
(1.04426 0.777807 0)
(1.115 0.816412 0)
(1.22259 0.849708 0)
(1.36088 0.865333 0)
(3 3.87212e-17 0)
(3 2.56948e-16 0)
(3 3.87881e-16 0)
(3 1.42443e-17 0)
(3 -6.71048e-17 0)
(3 1.92114e-16 0)
(3 3.6061e-16 0)
(3 8.37584e-17 0)
(3 -3.67362e-16 0)
(3 -3.15699e-16 0)
(3 -5.33915e-16 0)
(3 -3.26789e-16 0)
(3 -2.14991e-09 0)
(3.00001 -3.26588e-07 0)
(2.93305 0.22179 0)
(1.28171 0.698146 0)
(1.08238 0.719101 0)
(1.08725 0.720428 0)
(1.08182 0.740509 0)
(1.08692 0.762008 0)
(1.11475 0.788237 0)
(1.17555 0.817445 0)
(1.26434 0.839265 0)
(1.378 0.84801 0)
(3 -2.98713e-17 0)
(3 9.00678e-17 0)
(3 2.57464e-16 0)
(3 1.24064e-16 0)
(3 4.96149e-16 0)
(3 6.20196e-16 0)
(3 4.03459e-16 0)
(3 -2.49117e-17 0)
(3 -6.82585e-16 0)
(3 -6.97474e-16 0)
(3 -2.52828e-16 0)
(3 6.29447e-16 0)
(3 -4.75232e-12 0)
(3 -7.77875e-07 0)
(3.04119 0.00644965 0)
(1.57258 0.659938 0)
(1.10003 0.756469 0)
(1.11129 0.765293 0)
(1.11725 0.783071 0)
(1.13971 0.795101 0)
(1.17369 0.80601 0)
(1.22784 0.817588 0)
(1.30248 0.828185 0)
(1.39768 0.831406 0)
(3 9.61597e-17 0)
(3 1.06615e-16 0)
(3 -3.80994e-16 0)
(3 -1.9209e-16 0)
(3 2.1573e-16 0)
(3 2.67343e-16 0)
(3 1.12656e-17 0)
(3 3.69568e-17 0)
(3 -5.59307e-17 0)
(3 -3.9294e-16 0)
(3 -1.34645e-16 0)
(3 1.93178e-16 0)
(3 -5.82606e-15 0)
(3 -1.48732e-07 0)
(3.00079 3.60444e-05 0)
(2.38946 0.510658 0)
(1.20579 0.78891 0)
(1.13533 0.791862 0)
(1.14877 0.795524 0)
(1.17684 0.805311 0)
(1.21682 0.816868 0)
(1.26955 0.827419 0)
(1.33792 0.834151 0)
(1.41887 0.834199 0)
(3 3.79238e-18 0)
(3 7.34549e-18 0)
(3 1.12773e-16 0)
(3 8.87196e-17 0)
(3 -1.19303e-16 0)
(3 -4.49255e-16 0)
(3 2.56418e-16 0)
(3 7.10989e-16 0)
(3 9.29475e-16 0)
(3 3.76515e-16 0)
(3 1.99496e-16 0)
(3 4.62178e-16 0)
(3 1.68384e-15 0)
(3 -4.67394e-09 0)
(3.00002 -5.50625e-06 0)
(3.05768 0.0723434 0)
(1.56662 0.776515 0)
(1.18475 0.786164 0)
(1.19817 0.794048 0)
(1.22118 0.806013 0)
(1.25885 0.817271 0)
(1.30881 0.826605 0)
(1.37153 0.832193 0)
(1.44411 0.832004 0)
(3 -1.07299e-16 0)
(3 -6.65638e-17 0)
(3 8.96974e-17 0)
(3 -1.55384e-17 0)
(3 -5.78459e-16 0)
(3 -6.38742e-16 0)
(3 -1.97776e-17 0)
(3 4.83129e-16 0)
(3 3.11987e-16 0)
(3 6.94072e-16 0)
(3 4.96479e-16 0)
(3 1.15556e-15 0)
(3 2.23636e-15 0)
(3 -1.68725e-11 0)
(3 -1.39539e-06 0)
(3.00814 0.0013795 0)
(2.29508 0.63087 0)
(1.26352 0.848485 0)
(1.22243 0.833515 0)
(1.25543 0.832958 0)
(1.28952 0.837577 0)
(1.33782 0.842648 0)
(1.39674 0.846449 0)
(1.46111 0.845375 0)
(3 1.33088e-17 0)
(3 -1.91234e-16 0)
(3 -7.92632e-17 0)
(3 3.79805e-17 0)
(3 1.99855e-16 0)
(3 8.28997e-16 0)
(3 1.01888e-15 0)
(3 8.55237e-16 0)
(3 2.35249e-16 0)
(3 -1.13572e-16 0)
(3 -3.29675e-16 0)
(3 4.86785e-16 0)
(3 1.10719e-15 0)
(3 -6.41478e-15 0)
(3 -1.19844e-07 0)
(3.00003 9.46469e-06 0)
(3.03943 0.117416 0)
(1.62682 0.827261 0)
(1.26827 0.830892 0)
(1.30273 0.832374 0)
(1.32988 0.837843 0)
(1.37484 0.842688 0)
(1.42794 0.8471 0)
(1.47791 0.839492 0)
(3 1.04673e-16 0)
(3 -5.99716e-17 0)
(3 -1.15539e-16 0)
(3 2.23938e-16 0)
(3 9.55253e-16 0)
(3 7.68453e-16 0)
(3 8.30061e-16 0)
(3 5.13633e-16 0)
(3 3.51614e-16 0)
(3 8.21714e-17 0)
(3 4.88253e-16 0)
(3 4.63681e-16 0)
(3 2.5792e-16 0)
(3 -4.49982e-16 0)
(3 -1.47989e-09 0)
(3 -1.03941e-07 0)
(3.01057 0.0034322 0)
(2.37149 0.63724 0)
(1.3543 0.885656 0)
(1.32204 0.872717 0)
(1.36173 0.866515 0)
(1.40173 0.8695 0)
(1.43679 0.864697 0)
(1.4654 0.831338 0)
(3 1.41252e-17 0)
(3 4.93336e-17 0)
(3 4.04061e-17 0)
(3 4.2037e-17 0)
(3 2.46368e-16 0)
(3 -3.07698e-16 0)
(3 -5.17078e-16 0)
(3 -6.41888e-16 0)
(3 2.24921e-16 0)
(3 7.71882e-16 0)
(3 1.55227e-15 0)
(3 7.43667e-16 0)
(3 -1.03775e-15 0)
(3 -1.42353e-15 0)
(3 -3.36268e-12 0)
(3 -2.61607e-08 0)
(3.00005 4.17477e-05 0)
(3.03328 0.10506 0)
(1.75619 0.836017 0)
(1.35717 0.876881 0)
(1.41324 0.877155 0)
(1.43499 0.880164 0)
(1.42645 0.828875 0)
(1.41117 0.74265 0)
(3 -2.12005e-16 0)
(3 -1.44027e-16 0)
(3 -2.90301e-16 0)
(3 -3.83117e-16 0)
(3 -6.61683e-16 0)
(3 -7.37995e-16 0)
(3 -5.97797e-16 0)
(3 -9.00631e-16 0)
(3 -1.52309e-16 0)
(3 6.83344e-16 0)
(3 6.0905e-16 0)
(3 4.77245e-16 0)
(3 -1.11148e-16 0)
(3 -6.99123e-17 0)
(3 -2.34523e-15 0)
(3 -2.50511e-09 0)
(3 2.41822e-08 0)
(3.0063 0.00420751 0)
(2.59349 0.526373 0)
(1.51363 0.911549 0)
(1.4453 0.923822 0)
(1.42361 0.879447 0)
(1.36855 0.760418 0)
(1.34583 0.644168 0)
(3 -1.28529e-16 0)
(3 -1.37252e-16 0)
(3 -4.16097e-16 0)
(3 -9.7669e-16 0)
(3 -1.26453e-15 0)
(3 -1.0427e-15 0)
(3 -9.06264e-16 0)
(3 -4.82998e-16 0)
(3 -2.67677e-18 0)
(3 7.63216e-16 0)
(3 6.50731e-16 0)
(3 2.51329e-16 0)
(3 4.3076e-16 0)
(3 5.74723e-16 0)
(3 3.22282e-16 0)
(3 -1.02817e-10 0)
(3 -1.01033e-10 0)
(3.00002 4.43241e-05 0)
(3.02619 0.0541046 0)
(2.02031 0.778735 0)
(1.49846 0.968012 0)
(1.32931 0.779995 0)
(1.30626 0.651595 0)
(1.32092 0.579207 0)
(3 5.49196e-17 0)
(3 3.40081e-16 0)
(3 2.62794e-16 0)
(3 -1.53355e-16 0)
(3 -2.22498e-16 0)
(3 2.82466e-16 0)
(3 1.79587e-16 0)
(3 -9.38424e-17 0)
(3 1.62743e-16 0)
(3 1.36426e-16 0)
(3 1.11933e-16 0)
(3 -1.12781e-16 0)
(3 -7.11381e-17 0)
(3 -4.6266e-16 0)
(3 -7.23694e-16 0)
(3 -9.33452e-13 0)
(3 -3.20615e-11 0)
(3 3.27684e-08 0)
(3.00142 0.00236749 0)
(2.84733 0.307435 0)
(1.64439 0.872876 0)
(1.23764 0.631313 0)
(1.27089 0.590043 0)
(1.31717 0.554789 0)
(3 2.84164e-16 0)
(3 1.49939e-16 0)
(3 3.49531e-17 0)
(3 2.24332e-16 0)
(3 6.78448e-16 0)
(3 1.14119e-15 0)
(3 6.95895e-16 0)
(3 4.12177e-16 0)
(3 3.6393e-16 0)
(3 2.92461e-16 0)
(3 8.04485e-17 0)
(3 1.31489e-16 0)
(3 2.12266e-16 0)
(3 -1.05102e-15 0)
(3 -9.34787e-16 0)
(3 -2.60429e-15 0)
(3 -4.20426e-12 0)
(3 1.85571e-12 0)
(3 1.39403e-05 0)
(3.01374 0.0174567 0)
(1.6851 0.497684 0)
(1.13975 0.518635 0)
(1.23212 0.520555 0)
(1.30426 0.515475 0)
(3 3.68932e-17 0)
(3 -1.80714e-17 0)
(3 -2.37686e-16 0)
(3 -5.17193e-16 0)
(3 -5.25517e-17 0)
(3 3.99076e-17 0)
(3 5.65862e-17 0)
(3 2.60619e-16 0)
(3 -2.51933e-18 0)
(3 -1.32268e-16 0)
(3 1.38132e-16 0)
(3 3.08932e-16 0)
(3 5.92152e-16 0)
(3 1.275e-15 0)
(3 1.12898e-15 0)
(3 1.29469e-15 0)
(3 -2.59372e-13 0)
(3 -2.60144e-13 0)
(3 1.49493e-08 0)
(3.00029 0.000230237 0)
(1.6471 0.24888 0)
(0.961308 0.430038 0)
(1.10326 0.472441 0)
(1.22075 0.489621 0)
(3 2.08989e-16 0)
(3 2.93586e-16 0)
(3 1.72426e-18 0)
(3 -2.98251e-17 0)
(3 -4.57588e-17 0)
(3 -1.04048e-16 0)
(3 5.00394e-16 0)
(3 6.39009e-16 0)
(3 2.39182e-16 0)
(3 -1.4668e-16 0)
(3 3.27137e-17 0)
(3 6.40437e-17 0)
(3 1.57229e-16 0)
(3 8.90828e-16 0)
(3 1.02259e-15 0)
(3 1.46444e-15 0)
(3 -2.96732e-15 0)
(3 -8.53876e-14 0)
(3 5.86603e-12 0)
(3 2.07178e-07 0)
(1.70468 0.220198 0)
(0.864986 0.333703 0)
(0.929292 0.361389 0)
(1.05294 0.387523 0)
(3 -6.35258e-17 0)
(3 2.98502e-18 0)
(3 9.05959e-17 0)
(3 -6.46153e-17 0)
(3 4.83718e-16 0)
(3 4.54438e-16 0)
(3 5.59745e-16 0)
(3 7.99927e-16 0)
(3 1.24413e-15 0)
(3 9.72649e-16 0)
(3 3.58264e-16 0)
(3 -1.23688e-17 0)
(3 -4.17887e-16 0)
(3 -4.35765e-16 0)
(3 -2.00093e-16 0)
(3 -1.96211e-16 0)
(3 3.40487e-16 0)
(3 -1.20527e-14 0)
(3 -1.08084e-14 0)
(3 2.81878e-11 0)
(1.9011 0.259344 0)
(0.855703 0.287542 0)
(0.831932 0.291885 0)
(0.909974 0.312121 0)
(3 -2.63499e-16 0)
(3 -1.68349e-16 0)
(3 3.3843e-16 0)
(3 3.71765e-16 0)
(3 6.88253e-16 0)
(3 7.08354e-16 0)
(3 5.64161e-16 0)
(3 5.11291e-16 0)
(3 4.34416e-16 0)
(3 -1.39517e-16 0)
(3 -1.19862e-15 0)
(3 -1.35234e-15 0)
(3 -1.57742e-15 0)
(3 -1.46877e-15 0)
(3 -1.42525e-15 0)
(3 -6.97571e-16 0)
(3 1.38565e-16 0)
(3 3.78824e-16 0)
(3 -4.44724e-15 0)
(3 -2.45048e-15 0)
(2.17432 0.265726 0)
(0.88543 0.280649 0)
(0.82286 0.254633 0)
(0.872146 0.252901 0)
(3 9.44888e-17 0)
(3 1.63657e-17 0)
(3 1.50311e-16 0)
(3 3.22435e-16 0)
(3 7.31015e-16 0)
(3 8.10343e-16 0)
(3 5.36089e-16 0)
(3 3.07089e-16 0)
(3 -9.06597e-16 0)
(3 -8.00249e-16 0)
(3 -8.58424e-16 0)
(3 -7.19794e-16 0)
(3 -1.0534e-15 0)
(3 -1.09956e-15 0)
(3 -5.32753e-16 0)
(3 -2.89493e-16 0)
(3 2.25207e-16 0)
(3 5.1747e-16 0)
(3 -1.32043e-16 0)
(3 -1.90187e-15 0)
(2.50462 0.23891 0)
(0.939035 0.27351 0)
(0.841152 0.227383 0)
(0.890867 0.218113 0)
(3 1.22383e-16 0)
(3 -1.24381e-16 0)
(3 -8.91788e-17 0)
(3 1.96389e-16 0)
(3 -1.41501e-16 0)
(3 -2.63677e-16 0)
(3 -2.18733e-16 0)
(3 -1.95502e-16 0)
(3 -4.12401e-16 0)
(3 -5.12427e-16 0)
(3 8.61778e-18 0)
(3 -4.62509e-16 0)
(3 -9.75041e-16 0)
(3 -1.05575e-15 0)
(3 -7.95682e-16 0)
(3 -4.8853e-16 0)
(3 1.16895e-16 0)
(3 2.31028e-16 0)
(3 1.51373e-16 0)
(3 -1.34893e-15 0)
(2.82106 0.140875 0)
(1.02797 0.236275 0)
(0.866654 0.203589 0)
(0.91528 0.199862 0)
(3 -1.52571e-16 0)
(3 -8.21646e-17 0)
(3 2.51108e-16 0)
(3 6.90306e-16 0)
(3 -2.46354e-16 0)
(3 -3.96848e-16 0)
(3 -3.18497e-17 0)
(3 2.60122e-16 0)
(3 2.68969e-16 0)
(3 -4.11149e-16 0)
(3 -2.27585e-16 0)
(3 -8.77886e-16 0)
(3 -4.87291e-16 0)
(3 -3.98278e-16 0)
(3 -9.16189e-16 0)
(3 -7.34071e-16 0)
(3 -8.60765e-16 0)
(3 -8.32253e-16 0)
(3 -6.67486e-16 0)
(3 -6.43099e-16 0)
(2.92587 0.0126603 0)
(1.0702 0.172653 0)
(0.858343 0.16919 0)
(0.910383 0.17013 0)
(3 -8.78095e-18 0)
(3 -2.33464e-17 0)
(3 3.0801e-16 0)
(3 6.62232e-16 0)
(3 9.60039e-16 0)
(3 8.82139e-16 0)
(3 4.01736e-16 0)
(3 2.00162e-17 0)
(3 -3.02909e-16 0)
(3 -5.19469e-16 0)
(3 -6.6609e-16 0)
(3 -5.53439e-16 0)
(3 -1.9355e-16 0)
(3 -1.65841e-16 0)
(3 -1.78517e-16 0)
(3 -5.7852e-16 0)
(3 -1.01837e-15 0)
(3 -7.89869e-16 0)
(3 -8.79766e-16 0)
(3 -4.98367e-16 0)
(2.9286 -0.00536408 0)
(1.06603 0.129233 0)
(0.822311 0.145758 0)
(0.875415 0.147057 0)
(3 -1.71103e-17 0)
(3 8.95833e-18 0)
(3 -2.00762e-16 0)
(3 -2.99164e-16 0)
(3 -3.05372e-16 0)
(3 -4.43455e-16 0)
(3 -1.10313e-15 0)
(3 -1.39416e-15 0)
(3 -1.33835e-15 0)
(3 -8.36216e-16 0)
(3 -1.03284e-15 0)
(3 -7.74517e-16 0)
(3 -8.2568e-16 0)
(3 -1.26941e-15 0)
(3 -1.16813e-15 0)
(3 -1.36019e-15 0)
(3 -8.9643e-16 0)
(3 -3.2862e-16 0)
(3 -2.96634e-16 0)
(3 -3.48007e-17 0)
(2.95241 0.000714891 0)
(1.07476 0.1134 0)
(0.80153 0.11199 0)
(0.847064 0.113717 0)
(3 1.68627e-16 0)
(3 3.81858e-16 0)
(3 -2.77521e-17 0)
(3 -5.30309e-16 0)
(3 -1.31293e-15 0)
(3 -1.54644e-15 0)
(3 -2.06054e-15 0)
(3 -1.77147e-15 0)
(3 -9.79584e-16 0)
(3 -3.27444e-16 0)
(3 -2.43312e-16 0)
(3 -3.00914e-17 0)
(3 -8.32857e-17 0)
(3 -3.86418e-16 0)
(3 -8.29057e-16 0)
(3 -1.2779e-15 0)
(3 -1.08179e-15 0)
(3 -9.28262e-16 0)
(3 -7.62545e-17 0)
(3 3.51401e-16 0)
(2.98241 0.00326161 0)
(1.10553 0.0955999 0)
(0.808772 0.0848148 0)
(0.846327 0.084348 0)
(3 1.3784e-16 0)
(3 3.43459e-16 0)
(3 4.41055e-16 0)
(3 4.87582e-16 0)
(3 3.37491e-16 0)
(3 2.25802e-16 0)
(3 -4.23733e-17 0)
(3 -2.31453e-16 0)
(3 -1.55176e-16 0)
(3 -3.76538e-16 0)
(3 -3.21607e-16 0)
(3 -5.76973e-17 0)
(3 1.87644e-18 0)
(3 2.30559e-16 0)
(3 -2.6599e-17 0)
(3 -4.00906e-16 0)
(3 -3.38608e-16 0)
(3 1.76183e-16 0)
(3 8.49387e-16 0)
(3 6.07914e-16 0)
(2.99937 0.000735947 0)
(1.14195 0.071952 0)
(0.812424 0.0615267 0)
(0.84636 0.060309 0)
(3 -2.63421e-17 0)
(3 6.01667e-17 0)
(3 -1.87597e-16 0)
(3 1.13602e-16 0)
(3 3.80405e-16 0)
(3 7.68519e-16 0)
(3 9.99177e-16 0)
(3 8.65364e-16 0)
(3 1.18033e-16 0)
(3 -2.45454e-16 0)
(3 -3.16827e-16 0)
(3 -1.86382e-16 0)
(3 -3.17073e-16 0)
(3 -4.41487e-16 0)
(3 -1.35164e-16 0)
(3 -2.34462e-16 0)
(3 2.77231e-16 0)
(3 8.49632e-16 0)
(3 1.17957e-15 0)
(3 9.26484e-17 0)
(3 6.25523e-06 0)
(1.17554 0.0435392 0)
(0.816821 0.0370254 0)
(0.849369 0.0362809 0)
(3 -6.22771e-18 0)
(3 -1.60132e-16 0)
(3 -2.27973e-16 0)
(3 -1.50539e-16 0)
(3 -1.48946e-16 0)
(3 1.17318e-16 0)
(3 5.97551e-16 0)
(3 5.54476e-16 0)
(3 4.95751e-16 0)
(3 -1.35759e-16 0)
(3 -2.05244e-16 0)
(3 1.45633e-17 0)
(3 -4.50158e-17 0)
(3 -4.96312e-17 0)
(3 3.04845e-17 0)
(3 -2.05093e-16 0)
(3 3.60127e-16 0)
(3 1.85185e-16 0)
(3 3.78606e-16 0)
(3 -5.63468e-16 0)
(3 1.78763e-08 0)
(1.18743 0.0105452 0)
(0.814422 0.0109722 0)
(0.845048 0.011694 0)
(1.4902 1.28406 0)
(1.89737 1.2927 0)
(2.31913 1.15287 0)
(2.58537 0.8112 0)
(2.54832 0.316735 0)
(2.55741 0.0407903 0)
(2.448 -0.199089 0)
(2.37859 -0.35139 0)
(2.43221 -0.403368 0)
(2.54733 -0.335276 0)
(2.50832 -0.243508 0)
(2.46298 -0.209631 0)
(2.37946 -0.166145 0)
(1.05056 -0.0195991 0)
(0.769053 0.036996 0)
(0.743523 0.0348238 0)
(0.682502 0.0267698 0)
(0.598768 0.0213386 0)
(0.555495 0.0179524 0)
(0.554528 0.0137068 0)
(0.563932 0.00568804 0)
(0.564824 -0.00127027 0)
(0.565813 -0.00567493 0)
(0.571808 -0.00855295 0)
(0.584263 -0.0107513 0)
(0.59644 -0.0121555 0)
(0.606458 -0.0132914 0)
(0.618868 -0.0146905 0)
(0.637281 -0.0165228 0)
(0.661148 -0.0185187 0)
(0.68454 -0.0201019 0)
(0.706046 -0.0209908 0)
(0.72733 -0.0215209 0)
(0.752962 -0.0220612 0)
(0.783397 -0.0226694 0)
(0.815618 -0.0231119 0)
(0.845211 -0.0226033 0)
(0.868041 -0.0208849 0)
(0.888209 -0.0190107 0)
(0.910887 -0.017912 0)
(0.937879 -0.017809 0)
(0.966925 -0.0184907 0)
(0.99508 -0.018827 0)
(1.01992 -0.0183455 0)
(1.04243 -0.0172669 0)
(1.06542 -0.016498 0)
(1.0909 -0.0164883 0)
(1.11914 -0.0167955 0)
(1.14719 -0.0166544 0)
(1.17236 -0.0157132 0)
(1.19458 -0.0143778 0)
(1.21614 -0.0132742 0)
(1.23906 -0.0125677 0)
(1.26406 -0.012112 0)
(1.28999 -0.0115384 0)
(1.31449 -0.0104754 0)
(1.33676 -0.00911218 0)
(1.35831 -0.00817811 0)
(1.38115 -0.00789077 0)
(1.40656 -0.00790071 0)
(1.4333 -0.00771438 0)
(1.45761 -0.00710273 0)
(1.47816 -0.00616069 0)
(1.49735 -0.00539047 0)
(1.51698 -0.00466362 0)
(1.53837 -0.00380496 0)
(1.56054 -0.00298897 0)
(1.57903 -0.00240654 0)
(1.59597 -0.00152595 0)
(1.61224 9.06531e-06 0)
(1.62895 0.000849674 0)
(1.64669 0.0011855 0)
(1.66603 0.0010479 0)
(1.68427 0.000973323 0)
(1.70259 0.00125253 0)
(1.72031 0.00208336 0)
(1.73729 0.00335054 0)
(1.7532 0.00420042 0)
(1.76979 0.00382049 0)
(1.78405 0.00292308 0)
(1.77823 -0.000929439 0)
(1.70734 -0.00854292 0)
(1.34737 -0.0107746 0)
(1.2816 -0.0110683 0)
(1.30964 -0.0118 0)
(1.33107 -0.0087591 0)
(1.34263 -0.0047873 0)
(1.3529 -0.0024599 0)
(1.3637 -0.00192834 0)
(1.3736 -0.00309347 0)
(1.37982 -0.0042383 0)
(1.38396 -0.00398611 0)
(1.38585 -0.00182365 0)
(1.38538 0.00117377 0)
(1.38599 0.00242122 0)
(1.39122 0.00107651 0)
(1.76456 1.10393 0)
(2.25684 0.861701 0)
(2.53408 0.410977 0)
(2.6647 0.0295478 0)
(2.71877 -0.215944 0)
(2.72693 -0.458728 0)
(2.67787 -0.608441 0)
(2.66611 -0.620458 0)
(2.65412 -0.587271 0)
(2.63448 -0.481151 0)
(2.61415 -0.385947 0)
(2.5462 -0.280661 0)
(2.58375 -0.2496 0)
(1.14477 0.124122 0)
(0.73734 0.132192 0)
(0.721437 0.0945151 0)
(0.680579 0.0649639 0)
(0.625898 0.034482 0)
(0.595945 0.0236987 0)
(0.597304 0.0188289 0)
(0.60128 0.00945081 0)
(0.600149 -0.000947958 0)
(0.602896 -0.00991001 0)
(0.612394 -0.0176381 0)
(0.628521 -0.0232955 0)
(0.6437 -0.0251973 0)
(0.65583 -0.0238856 0)
(0.66856 -0.0222335 0)
(0.686672 -0.0226542 0)
(0.71094 -0.0260025 0)
(0.737249 -0.0297991 0)
(0.761784 -0.0303682 0)
(0.783972 -0.0275822 0)
(0.806449 -0.0252048 0)
(0.833086 -0.0270006 0)
(0.863781 -0.0323687 0)
(0.894339 -0.0362767 0)
(0.920231 -0.0336537 0)
(0.939539 -0.0260928 0)
(0.957882 -0.0191213 0)
(0.979307 -0.0172386 0)
(1.00576 -0.0204865 0)
(1.03508 -0.0258006 0)
(1.06343 -0.0276758 0)
(1.08804 -0.0242743 0)
(1.10955 -0.0181186 0)
(1.13103 -0.0139765 0)
(1.15443 -0.0144329 0)
(1.18105 -0.0179257 0)
(1.20779 -0.0196758 0)
(1.23038 -0.0175701 0)
(1.24991 -0.0143241 0)
(1.26984 -0.0126484 0)
(1.29231 -0.0132615 0)
(1.31781 -0.0150003 0)
(1.34403 -0.0149793 0)
(1.36756 -0.0117985 0)
(1.38835 -0.0067592 0)
(1.40876 -0.00251793 0)
(1.42973 -0.00128553 0)
(1.45275 -0.00315956 0)
(1.47747 -0.00518726 0)
(1.4994 -0.00423547 0)
(1.51806 -0.00201217 0)
(1.53635 6.76954e-05 0)
(1.55489 0.000603563 0)
(1.57482 -0.00100036 0)
(1.59474 -0.00212986 0)
(1.61226 -0.00161355 0)
(1.62943 0.00107125 0)
(1.64612 0.00566913 0)
(1.66226 0.00951041 0)
(1.67864 0.0105404 0)
(1.69545 0.0091388 0)
(1.71269 0.00662814 0)
(1.73072 0.00479488 0)
(1.74995 0.00492879 0)
(1.76809 0.00821301 0)
(1.78207 0.00816137 0)
(1.7879 0.00216625 0)
(1.77489 -0.0157231 0)
(1.71945 -0.0399111 0)
(1.38297 -0.0208801 0)
(1.30758 -0.0159567 0)
(1.33019 -0.0190662 0)
(1.35401 -0.0178367 0)
(1.36706 -0.00996605 0)
(1.37497 0.000928152 0)
(1.37862 0.00689645 0)
(1.38163 0.00516565 0)
(1.38784 -0.00283035 0)
(1.39616 -0.00913508 0)
(1.40229 -0.00943452 0)
(1.4055 -0.00490534 0)
(1.40552 0.00440363 0)
(1.40531 0.0100868 0)
(1.67591 1.03712 0)
(2.06948 0.872275 0)
(2.31047 0.668739 0)
(2.49774 0.378391 0)
(2.61855 0.105091 0)
(2.68717 -0.0482321 0)
(2.73997 -0.108687 0)
(2.72687 -0.209338 0)
(2.70396 -0.336257 0)
(2.72727 -0.398265 0)
(2.74808 -0.467259 0)
(2.73893 -0.460622 0)
(2.76872 -0.484871 0)
(1.78814 0.127175 0)
(0.893872 0.2031 0)
(0.789306 0.14476 0)
(0.742683 0.079989 0)
(0.716945 0.0367256 0)
(0.714626 0.028976 0)
(0.722265 0.0265204 0)
(0.723063 0.0188055 0)
(0.721079 0.00378257 0)
(0.725563 -0.0115026 0)
(0.738244 -0.0240093 0)
(0.756517 -0.0344059 0)
(0.77507 -0.0422091 0)
(0.791208 -0.046382 0)
(0.806404 -0.0475151 0)
(0.823221 -0.0481694 0)
(0.843378 -0.0516457 0)
(0.86665 -0.0587259 0)
(0.892055 -0.0667793 0)
(0.917994 -0.0713715 0)
(0.943026 -0.069383 0)
(0.965206 -0.0629197 0)
(0.986814 -0.0590587 0)
(1.01019 -0.0607604 0)
(1.03509 -0.0647101 0)
(1.05902 -0.0648052 0)
(1.07905 -0.0597933 0)
(1.09736 -0.0528264 0)
(1.11719 -0.0484487 0)
(1.13941 -0.049071 0)
(1.16434 -0.0538924 0)
(1.19051 -0.058444 0)
(1.21504 -0.058221 0)
(1.23542 -0.0530779 0)
(1.25434 -0.0470088 0)
(1.2744 -0.0434605 0)
(1.29638 -0.0432406 0)
(1.31909 -0.0433181 0)
(1.33915 -0.0405604 0)
(1.35719 -0.0360084 0)
(1.3759 -0.0317308 0)
(1.3959 -0.0299683 0)
(1.41765 -0.0313066 0)
(1.44038 -0.0333735 0)
(1.46163 -0.0328967 0)
(1.48045 -0.0300016 0)
(1.49892 -0.0256578 0)
(1.51823 -0.0216848 0)
(1.53824 -0.0198408 0)
(1.55792 -0.0188207 0)
(1.57522 -0.0173936 0)
(1.59181 -0.014136 0)
(1.60819 -0.00953056 0)
(1.62579 -0.00685678 0)
(1.64314 -0.00630607 0)
(1.6596 -0.00656462 0)
(1.67595 -0.00635333 0)
(1.69247 -0.0045893 0)
(1.70867 -0.000811757 0)
(1.72407 0.00462785 0)
(1.73797 0.00971353 0)
(1.75133 0.012322 0)
(1.7664 0.0115795 0)
(1.7833 0.00937214 0)
(1.7989 0.00359565 0)
(1.80913 -0.00395546 0)
(1.80746 -0.0150169 0)
(1.78363 -0.0396347 0)
(1.74483 -0.0828738 0)
(1.47714 -0.0382992 0)
(1.36888 -0.00364061 0)
(1.37763 -0.00817349 0)
(1.40017 -0.0187145 0)
(1.41973 -0.0231463 0)
(1.4303 -0.020585 0)
(1.43452 -0.0114745 0)
(1.43132 0.000658384 0)
(1.43062 0.00530634 0)
(1.43361 0.00163619 0)
(1.44079 -0.00753358 0)
(1.4503 -0.0119694 0)
(1.45613 -0.00946343 0)
(1.45585 -0.000112936 0)
(1.60509 0.987716 0)
(1.91553 0.859336 0)
(2.13818 0.721794 0)
(2.29252 0.578338 0)
(2.46657 0.338316 0)
(2.57771 0.100019 0)
(2.64859 -0.0170835 0)
(2.70237 -0.0880241 0)
(2.70531 -0.234087 0)
(2.72675 -0.382059 0)
(2.72078 -0.430712 0)
(2.78237 -0.456448 0)
(2.79324 -0.483412 0)
(2.71403 -0.343225 0)
(1.26839 0.224022 0)
(0.975978 0.172721 0)
(0.930464 0.0921552 0)
(0.924175 0.0529418 0)
(0.930958 0.0382247 0)
(0.936037 0.0141021 0)
(0.937503 -0.0151924 0)
(0.940548 -0.0355233 0)
(0.947838 -0.0412386 0)
(0.957514 -0.0428717 0)
(0.970708 -0.0467753 0)
(0.986799 -0.053356 0)
(1.00544 -0.0600335 0)
(1.02501 -0.0631772 0)
(1.043 -0.0618177 0)
(1.05937 -0.059102 0)
(1.07533 -0.0591188 0)
(1.09293 -0.0633158 0)
(1.1146 -0.0704764 0)
(1.14008 -0.0760739 0)
(1.16292 -0.0740976 0)
(1.17928 -0.0656503 0)
(1.19447 -0.0577959 0)
(1.21177 -0.0547818 0)
(1.23217 -0.0560511 0)
(1.25367 -0.0570591 0)
(1.27262 -0.0544166 0)
(1.2893 -0.0490055 0)
(1.30637 -0.0431635 0)
(1.3249 -0.0400182 0)
(1.34556 -0.0411239 0)
(1.36832 -0.0441619 0)
(1.38881 -0.0437935 0)
(1.40394 -0.0398788 0)
(1.41811 -0.0347029 0)
(1.43364 -0.0311645 0)
(1.45136 -0.0306537 0)
(1.47077 -0.0308144 0)
(1.48828 -0.0286781 0)
(1.50455 -0.0243609 0)
(1.52078 -0.0182962 0)
(1.53756 -0.0132651 0)
(1.5547 -0.0111186 0)
(1.57187 -0.0116585 0)
(1.58913 -0.0128417 0)
(1.60569 -0.0127502 0)
(1.62198 -0.0105216 0)
(1.63814 -0.0059605 0)
(1.65341 -0.00260662 0)
(1.66761 -0.000881963 0)
(1.68065 0.000869053 0)
(1.69408 0.00283427 0)
(1.70883 0.00528162 0)
(1.72387 0.00745896 0)
(1.73871 0.00983645 0)
(1.7533 0.0114914 0)
(1.76786 0.0125776 0)
(1.78204 0.0122819 0)
(1.79585 0.0127878 0)
(1.80909 0.0146823 0)
(1.82245 0.0201608 0)
(1.8334 0.0264517 0)
(1.84318 0.0264883 0)
(1.85113 0.022246 0)
(1.85173 0.00691835 0)
(1.83896 -0.0228754 0)
(1.79974 -0.0715606 0)
(1.77531 -0.135227 0)
(1.62477 -0.0929329 0)
(1.48266 -0.0262619 0)
(1.46867 -0.00756986 0)
(1.48473 -0.00718124 0)
(1.50012 -0.00994325 0)
(1.51412 -0.0138019 0)
(1.51972 -0.0155891 0)
(1.52199 -0.0115706 0)
(1.51819 -0.000203851 0)
(1.51439 0.00988403 0)
(1.51602 0.0116655 0)
(1.52212 0.0054193 0)
(1.53197 -0.00680733 0)
(1.53582 -0.0113191 0)
(1.56068 0.933322 0)
(1.7991 0.853205 0)
(2.01676 0.712126 0)
(2.16639 0.61258 0)
(2.27011 0.505953 0)
(2.4153 0.319398 0)
(2.5279 0.137782 0)
(2.59413 0.019858 0)
(2.62354 -0.00670693 0)
(2.61113 -0.0605822 0)
(2.65691 -0.202669 0)
(2.6758 -0.252581 0)
(2.68926 -0.325663 0)
(2.68981 -0.44553 0)
(2.11156 -0.088661 0)
(1.25263 0.171633 0)
(1.18797 0.128877 0)
(1.19402 0.0715981 0)
(1.20279 0.0407814 0)
(1.18907 0.0220475 0)
(1.18722 -0.00200595 0)
(1.19526 -0.0238799 0)
(1.20516 -0.0358453 0)
(1.21016 -0.042268 0)
(1.21463 -0.0477961 0)
(1.22288 -0.0554157 0)
(1.23627 -0.0651413 0)
(1.25537 -0.0758949 0)
(1.27549 -0.0836117 0)
(1.28987 -0.0868194 0)
(1.29952 -0.0878743 0)
(1.30896 -0.0880091 0)
(1.32068 -0.0885009 0)
(1.33761 -0.0913252 0)
(1.35931 -0.0941901 0)
(1.37645 -0.0911875 0)
(1.38722 -0.0849666 0)
(1.39881 -0.078049 0)
(1.41255 -0.0736529 0)
(1.42868 -0.0725155 0)
(1.44624 -0.0731062 0)
(1.46259 -0.0724576 0)
(1.47732 -0.0701536 0)
(1.49193 -0.066986 0)
(1.5073 -0.0636655 0)
(1.52418 -0.0612381 0)
(1.54142 -0.0595746 0)
(1.55469 -0.0574362 0)
(1.56648 -0.0538755 0)
(1.57817 -0.0481228 0)
(1.59144 -0.043282 0)
(1.60628 -0.0404457 0)
(1.62126 -0.0390649 0)
(1.6361 -0.0383278 0)
(1.65134 -0.0362092 0)
(1.66644 -0.0319549 0)
(1.68076 -0.0267486 0)
(1.69385 -0.022304 0)
(1.70584 -0.0196587 0)
(1.71829 -0.0184027 0)
(1.7322 -0.0175897 0)
(1.74641 -0.0166318 0)
(1.76048 -0.0149024 0)
(1.77316 -0.011357 0)
(1.78364 -0.00681034 0)
(1.79299 -0.00156371 0)
(1.80365 0.001617 0)
(1.81635 0.00437307 0)
(1.83021 0.0063894 0)
(1.84421 0.00944114 0)
(1.85774 0.0122608 0)
(1.8697 0.0160222 0)
(1.88097 0.0180528 0)
(1.89205 0.0203271 0)
(1.90398 0.0212725 0)
(1.91382 0.0239508 0)
(1.919 0.0212619 0)
(1.91639 0.0143067 0)