/*--------------------------------*- C++ -*----------------------------------*\
  =========                 |
  \\      /  F ield         | OpenFOAM: The Open Source CFD Toolbox
   \\    /   O peration     | Website:  https://openfoam.org
    \\  /    A nd           | Version:  7
     \\/     M anipulation  |
\*---------------------------------------------------------------------------*/
FoamFile
{
    version     2.0;
    format      ascii;
    class       surfaceScalarField;
    location    "115";
    object      phi;
}
// * * * * * * * * * * * * * * * * * * * * * * * * * * * * * * * * * * * * * //

dimensions      [0 3 -1 0 0 0 0];

internalField   nonuniform List<scalar> 
3868
(
-2.61191e-05
-7.34824e-06
-8.81004e-05
-1.94629e-05
-0.000173648
-2.86376e-05
-0.000273312
-3.47256e-05
-0.000380862
-3.82396e-05
-3.99907e-05
-2.6125e-05
1.87767e-05
-8.81156e-05
4.25278e-05
-0.000173672
5.69189e-05
-0.000273342
6.49442e-05
-0.000380895
6.93134e-05
-0.000492876
7.19906e-05
-0.000607753
7.41227e-05
-0.000725072
7.6245e-05
-0.000844866
7.85546e-05
-0.000967339
8.11086e-05
-0.00109275
8.39217e-05
-0.00122135
8.69996e-05
-0.00135343
9.03463e-05
-0.00148925
9.39659e-05
-0.0016291
9.78622e-05
-0.00177328
0.000102038
-0.00192208
0.000106498
-0.0020758
0.000111243
-0.00223477
0.000116277
-0.0023993
0.000121599
-0.00256972
0.000127211
-0.0027464
0.000133117
-0.00292967
0.000139313
-0.00311987
0.000145756
0.000152324
-0.00331721
-2.60763e-05
4.4853e-05
-8.79716e-05
0.000104423
-0.000173418
0.000142365
-0.00027298
0.000164506
-0.000380432
0.000176765
-0.000492317
0.000183876
-0.000607101
0.000188906
-0.000724327
0.000193471
-0.000844027
0.000198255
-0.000966405
0.000203487
-0.00109171
0.000209231
-0.00122022
0.000215505
-0.00135219
0.00022232
-0.00148791
0.000229685
-0.00162766
0.000237611
-0.00177173
0.000246107
-0.00192042
0.000255184
-0.00207402
0.000264853
-0.00223287
0.000275124
-0.00239728
0.000286007
-0.00256758
0.000297515
-0.00274413
0.000309667
-0.00292729
0.000322465
-0.00311737
0.000335838
0.000349801
-0.00331484
-2.59732e-05
7.08261e-05
-8.76686e-05
0.000166119
-0.000172887
0.000227584
-0.000272227
0.000263846
-0.000379473
0.000284011
-0.000491166
0.000295569
-0.000605764
0.000303504
-0.000722806
0.000310514
-0.000842322
0.00031777
-0.000964513
0.000325678
-0.00108963
0.00033435
-0.00121794
0.000343817
-0.00134972
0.000354097
-0.00148524
0.000365204
-0.00162478
0.000377154
-0.00176864
0.000389965
-0.00191711
0.000403655
-0.0020705
0.000418242
-0.00222912
0.000433745
-0.0023933
0.000450183
-0.00256336
0.00046758
-0.00273967
0.000485971
-0.00292257
0.000505365
-0.0031124
0.00052567
0.000546943
-0.00330954
-2.58158e-05
9.66419e-05
-8.72068e-05
0.00022751
-0.000172079
0.000312455
-0.000271083
0.00036285
-0.000378019
0.000390947
-0.000489423
0.000406974
-0.000603743
0.000417825
-0.000720511
0.000427282
-0.000839751
0.00043701
-0.000961664
0.000447591
-0.0010865
0.000459187
-0.00121453
0.000471843
-0.00134601
0.000485582
-0.00148123
0.000500425
-0.00162047
0.000516394
-0.00176402
0.000533513
-0.00191217
0.000551808
-0.00206524
0.000571305
-0.00222352
0.000592031
-0.00238735
0.000614015
-0.00255707
0.000637291
-0.00273301
0.000661911
-0.00291553
0.00068789
-0.00310497
0.000715113
0.00074366
-0.00330169
-2.56043e-05
0.000122246
-8.65869e-05
0.000288492
-0.000170994
0.000396863
-0.000269549
0.000461404
-0.00037607
0.000497469
-0.000487089
0.000517992
-0.00060104
0.000531775
-0.000717442
0.000543685
-0.000836316
0.000555883
-0.000957859
0.000569134
-0.00108232
0.000583649
-0.00120997
0.000599488
-0.00134106
0.00061668
-0.00147589
0.000635252
-0.00161473
0.000655232
-0.00175787
0.00067665
-0.0019056
0.00069954
-0.00205823
0.000723937
-0.00221607
0.000749875
-0.00237945
0.000777392
-0.0025487
0.000806535
-0.00272415
0.000837368
-0.00290618
0.000869916
-0.00309511
0.000904042
0.00093984
-0.00329129
-2.53392e-05
0.000147585
-8.58094e-05
0.000348962
-0.000169634
0.000480687
-0.000267625
0.000559396
-0.000373628
0.000603472
-0.000484165
0.000628529
-0.000597653
0.000645264
-0.000713601
0.000659632
-0.000832018
0.000674301
-0.0009531
0.000690216
-0.0010771
0.000707645
-0.00120427
0.00072666
-0.00133488
0.000747297
-0.00146922
0.000769588
-0.00160756
0.000793569
-0.00175019
0.000819276
-0.00189739
0.00084675
-0.00204949
0.000876033
-0.00220678
0.000907169
-0.0023696
0.000940204
-0.00253826
0.000975196
-0.00271311
0.00101222
-0.00289452
0.00105132
-0.00308281
0.00109233
0.00113535
-0.00327832
-2.50208e-05
0.000172606
-8.48751e-05
0.000408817
-0.000167999
0.000563811
-0.000265313
0.00065671
-0.000370693
0.000708851
-0.000480651
0.000738488
-0.000593586
0.000758198
-0.000708988
0.000775034
-0.000826858
0.000792172
-0.000947389
0.000810747
-0.00107083
0.000831082
-0.00119743
0.000853265
-0.00132747
0.000877338
-0.00146122
0.000903339
-0.00159896
0.000931309
-0.00174098
0.000961292
-0.00188756
0.000993335
-0.00203902
0.00102749
-0.00219566
0.00106381
-0.00235779
0.00110234
-0.00252576
0.00114316
-0.0026999
0.00118636
-0.00288056
0.00123199
-0.00306808
0.00127985
0.00133007
-0.0032628
-2.46496e-05
0.000197256
-8.3785e-05
0.000467952
-0.000166091
0.000646117
-0.000262613
0.000753232
-0.000367265
0.000813503
-0.000476549
0.000847771
-0.000588838
0.000870487
-0.000703604
0.0008898
-0.000820839
0.000909406
-0.000940728
0.000930636
-0.00106352
0.00095387
-0.00118946
0.000979212
-0.00131883
0.00100671
-0.0014519
0.00103641
-0.00158895
0.00106835
-0.00173025
0.0011026
-0.00187611
0.00113919
-0.00202682
0.0011782
-0.0021827
0.00121968
-0.00234405
0.00126369
-0.0025112
0.00131032
-0.00268451
0.00135966
-0.00286431
0.00141179
-0.00305094
0.00146649
0.00152387
-0.00324473
-2.42261e-05
0.000221482
-8.254e-05
0.000526266
-0.00016391
0.000727486
-0.000259527
0.000848849
-0.000363346
0.000917323
-0.000471859
0.000956284
-0.000583411
0.000982039
-0.000697452
0.00100384
-0.000813961
0.00102592
-0.000933119
0.00104979
-0.00105517
0.00107592
-0.00118036
0.00110441
-0.00130897
0.00113532
-0.00144126
0.0011687
-0.00157752
0.00120461
-0.00171801
0.00124309
-0.00186305
0.00128422
-0.00201291
0.00132806
-0.00216791
0.00137468
-0.00232837
0.00142415
-0.0024946
0.00147655
-0.00266695
0.00153202
-0.00284577
0.00159061
-0.00303139
0.00165211
0.00171661
-0.00322413
-2.37511e-05
0.000245233
-8.11416e-05
0.000583656
-0.000161457
0.000807802
-0.000256055
0.000943447
-0.000358937
0.00102021
-0.000466582
0.00106393
-0.000577306
0.00109276
-0.000690533
0.00111707
-0.000806228
0.00114161
-0.000924565
0.00116813
-0.00104578
0.00119714
-0.00117014
0.00122876
-0.00129789
0.00126307
-0.00142931
0.00130012
-0.00156468
0.00133997
-0.00170427
0.00138268
-0.00184837
0.00142833
-0.00199728
0.00147698
-0.00215131
0.00152871
-0.00231076
0.0015836
-0.00247596
0.00164175
-0.00264725
0.0017033
-0.00282496
0.00176832
-0.00300944
0.00183659
0.00190817
-0.003201
-2.32252e-05
0.000268458
-7.9591e-05
0.000640022
-0.000158736
0.000886947
-0.000252199
0.00103691
-0.000354038
0.00112204
-0.000460719
0.00117061
-0.000570524
0.00120257
-0.000682849
0.00122939
-0.000797642
0.0012564
-0.00091507
0.00128556
-0.00103537
0.00131743
-0.00115879
0.00135218
-0.00128559
0.00138988
-0.00141605
0.00143058
-0.00155043
0.00147435
-0.00168902
0.00152127
-0.00183209
0.0015714
-0.00197995
0.00162484
-0.0021329
0.00168165
-0.00229124
0.00174194
-0.0024553
0.00180581
-0.0026254
0.0018734
-0.0028019
0.00194482
-0.00298512
0.0020198
0.00209842
-0.00317537
-2.26493e-05
0.000291108
-7.78899e-05
0.000695263
-0.000155746
0.000964803
-0.00024796
0.00112912
-0.000348652
0.00122274
-0.000454273
0.00127623
-0.000563068
0.00131136
-0.000674402
0.00134073
-0.000788205
0.00137021
-0.000904635
0.00140199
-0.00102392
0.00143672
-0.00114632
0.00147458
-0.00127209
0.00151565
-0.00140149
0.00155998
-0.00153479
0.00160766
-0.00167228
0.00165875
-0.00181423
0.00171335
-0.00196093
0.00177154
-0.00211269
0.00183341
-0.00226982
0.00189907
-0.00243262
0.00196861
-0.00260143
0.00204221
-0.00277659
0.00211997
-0.00295842
0.00220164
0.00228723
-0.00314724
-2.20242e-05
0.000313132
-7.60398e-05
0.000749278
-0.000152491
0.00104125
-0.00024334
0.00121997
-0.000342779
0.00132218
-0.000447243
0.00138069
-0.000554938
0.00141906
-0.000665194
0.00145098
-0.00077792
0.00148293
-0.000893266
0.00151733
-0.00101146
0.00155491
-0.00113274
0.00159587
-0.00125738
0.00164028
-0.00138563
0.00168823
-0.00151776
0.00173979
-0.00165405
0.00179504
-0.00179477
0.00185408
-0.00194023
0.00191699
-0.0020907
0.00198389
-0.0022465
0.00205487
-0.00240794
0.00213005
-0.00257534
0.00220961
-0.00274905
0.00229368
-0.00292938
0.00238198
0.00247448
-0.00311663
-2.1351e-05
0.000334483
-7.40429e-05
0.00080197
-0.000148972
0.00111618
-0.000238342
0.00130934
-0.000336421
0.00142025
-0.000439632
0.00148391
-0.000546136
0.00152556
-0.000655227
0.00156007
-0.000766791
0.0015945
-0.000880965
0.00163151
-0.000997972
0.00167192
-0.00111806
0.00171595
-0.00124147
0.0017637
-0.00136848
0.00181524
-0.00149935
0.00187066
-0.00163435
0.00193004
-0.00177375
0.00199348
-0.00191785
0.00206109
-0.00206693
0.00213297
-0.0022213
0.00220924
-0.00238127
0.00229002
-0.00254716
0.0023755
-0.0027193
0.00246581
-0.00289801
0.00256069
0.00266004
-0.00308358
-2.06307e-05
0.000355113
-7.19011e-05
0.000853241
-0.000145191
0.00118947
-0.000232966
0.00139712
-0.000329579
0.00151687
-0.000431441
0.00158577
-0.000536665
0.00163079
-0.000644504
0.00166791
-0.00075482
0.00170481
-0.000867738
0.00174443
-0.000983474
0.00178766
-0.00110227
0.00183475
-0.00122438
0.00188581
-0.00135006
0.00194092
-0.00147957
0.00200016
-0.00161317
0.00206365
-0.00175116
0.00213147
-0.0018938
0.00220373
-0.0020414
0.00228057
-0.00219424
0.00236208
-0.00235264
0.00244842
-0.0025169
0.00253976
-0.00268735
0.00263627
-0.00286433
0.00273767
0.0028438
-0.00304809
-1.98645e-05
0.000374978
-6.96167e-05
0.000902993
-0.000141151
0.00126101
-0.000227215
0.00148318
-0.000322256
0.00161191
-0.000422671
0.00168618
-0.000526526
0.00173464
-0.000633028
0.00177442
-0.000742011
0.0018138
-0.000853588
0.001856
-0.000967967
0.00190204
-0.00108539
0.00195217
-0.0012061
0.00200652
-0.00133036
0.00206517
-0.00145842
0.00212822
-0.00159055
0.00219578
-0.00172702
0.00226794
-0.00186811
0.00234483
-0.00201412
0.00242657
-0.00216533
0.00251329
-0.00232204
0.00260513
-0.00248457
0.00270229
-0.00265324
0.00280494
-0.00282837
0.0029128
0.00302564
-0.0030102
-1.90536e-05
0.000394031
-6.71923e-05
0.000951132
-0.000136856
0.00133067
-0.000221092
0.00156742
-0.000314454
0.00170527
-0.000413325
0.00178505
-0.000515722
0.00183704
-0.000620801
0.0018795
-0.000728368
0.00192136
-0.000838519
0.00196615
-0.000951458
0.00201497
-0.00106742
0.00206813
-0.00118665
0.00212575
-0.0013094
0.00218792
-0.00143592
0.00225474
-0.00156647
0.00232633
-0.00170134
0.0024028
-0.00184079
0.00248428
-0.0019851
0.00257089
-0.00213458
0.00266277
-0.00228951
0.00276006
-0.0024502
0.00286298
-0.00261697
0.00297171
-0.00279014
0.00308596
0.00320543
-0.00296993
-1.81996e-05
0.000412231
-6.46306e-05
0.000997563
-0.000132307
0.00139835
-0.0002146
0.00164971
-0.000306174
0.00179684
-0.000403405
0.00188228
-0.000504254
0.00193789
-0.000607827
0.00198307
-0.000713895
0.00202743
-0.000822538
0.0020748
-0.000933953
0.00212639
-0.00104837
0.00218255
-0.00116603
0.00224341
-0.00128718
0.00230907
-0.00141207
0.00237964
-0.00154097
0.00245523
-0.00167413
0.00253597
-0.00181184
0.00262198
-0.00195437
0.00271342
-0.00210201
0.00281041
-0.00225505
0.00291311
-0.0024138
0.00302173
-0.00257857
0.00313648
-0.00274968
0.00325707
0.00338308
-0.00292732
-1.73037e-05
0.000429535
-6.19345e-05
0.00104219
-0.000127509
0.00146392
-0.000207741
0.00172994
-0.000297419
0.00188652
-0.000392913
0.00197778
-0.000492126
0.0020371
-0.000594108
0.00208505
-0.000698595
0.00213192
-0.000805649
0.00218185
-0.000915458
0.0022362
-0.00102825
0.00229534
-0.00114425
0.00235941
-0.00126372
0.00242854
-0.0013869
0.00250281
-0.00151404
0.00258237
-0.00164541
0.00266734
-0.00178128
0.00275785
-0.00192193
0.00285406
-0.00206764
0.00295612
-0.0022187
0.00306417
-0.0023754
0.00317843
-0.00253807
0.00329915
-0.00270701
0.003426
0.00355847
-0.0028824
-1.63676e-05
0.000445902
-5.91073e-05
0.00108493
-0.000122465
0.00152728
-0.000200518
0.001808
-0.000288191
0.0019742
-0.00038185
0.00207144
-0.000479338
0.00213459
-0.000579648
0.00218536
-0.000682473
0.00223474
-0.000787858
0.00228724
-0.00089598
0.00234432
-0.00100706
0.00240642
-0.00112133
0.00247368
-0.00123903
0.00254623
-0.0013604
0.00262419
-0.0014857
0.00270768
-0.00161519
0.00279683
-0.00174913
0.0028918
-0.0018878
0.00299273
-0.00203148
0.0030998
-0.00218046
0.00321314
-0.00233502
0.003333
-0.00249549
0.00345961
-0.00266216
0.00359268
0.00373151
-0.0028352
-1.53931e-05
0.000461295
-5.61525e-05
0.00112569
-0.00011718
0.00158831
-0.000192936
0.00188375
-0.000278494
0.00205975
-0.00037022
0.00216316
-0.000465895
0.00223026
-0.000564449
0.00228391
-0.000665534
0.00233583
-0.000769171
0.00239087
-0.000875526
0.00245067
-0.000984814
0.0025157
-0.00109726
0.00258613
-0.00121311
0.00266208
-0.0013326
0.00274368
-0.00145597
0.00283105
-0.00158349
0.00292434
-0.00171541
0.00302372
-0.00185201
0.00312933
-0.00199356
0.00324135
-0.00214035
0.00335993
-0.00229267
0.00348532
-0.00245084
0.00361779
-0.00261517
0.003757
0.00390212
-0.00278578
-1.43819e-05
0.000475677
-5.30739e-05
0.00116438
-0.000111657
0.00164689
-0.000184997
0.00195709
-0.00026833
0.00214309
-0.000358024
0.00225286
-0.000451799
0.00232404
-0.000548516
0.00238063
-0.000647783
0.0024351
-0.000749593
0.00249268
-0.000854103
0.00255519
-0.000961522
0.00262312
-0.00107207
0.00269668
-0.00118599
0.002776
-0.0013035
0.00286119
-0.00142486
0.00295241
-0.00155032
0.0030498
-0.00168012
0.00315353
-0.00181456
0.00326376
-0.00195389
0.00338068
-0.0020984
0.00350444
-0.00224838
0.00363531
-0.00240417
0.00377357
-0.00256606
0.0039189
0.00407022
-0.00273416
-1.33359e-05
0.000489013
-4.98755e-05
0.00120092
-0.000105902
0.00170292
-0.000176708
0.0020279
-0.000257704
0.00222408
-0.000345267
0.00234042
-0.000437053
0.00241583
-0.000531853
0.00247543
-0.000629223
0.00253247
-0.000729131
0.00259259
-0.00083172
0.00265777
-0.000937191
0.00272859
-0.00104576
0.00280526
-0.00115766
0.0028879
-0.00127312
0.00297665
-0.00139238
0.00307167
-0.00151569
0.00317311
-0.0016433
0.00328113
-0.00177547
0.00339593
-0.00191249
0.00351769
-0.00205462
0.00364657
-0.00220216
0.00378285
-0.00235547
0.00392688
-0.00251487
0.0040783
0.00423577
-0.00268042
-1.22572e-05
0.00050127
-4.65619e-05
0.00123523
-9.99196e-05
0.00175628
-0.000168072
0.00209605
-0.000246618
0.00230263
-0.00033195
0.00242575
-0.00042166
0.00250554
-0.000514463
0.00256823
-0.00060986
0.00262786
-0.000707791
0.00269052
-0.000808384
0.00275837
-0.000911831
0.00283204
-0.00101835
0.00291177
-0.00112816
0.0029977
-0.00124148
0.00308998
-0.00135856
0.00318875
-0.00147963
0.00329418
-0.00160495
0.00340645
-0.00173477
0.00352576
-0.00186938
0.00365229
-0.00200903
0.00378623
-0.00215404
0.00392786
-0.00230477
0.00407761
-0.00246162
0.00423515
0.00439875
-0.0026246
-1.1148e-05
0.000512418
-4.31377e-05
0.00126722
-9.37162e-05
0.00180685
-0.000159095
0.00216143
-0.000235077
0.00237861
-0.000318078
0.00250875
-0.000405624
0.00259308
-0.000496349
0.00265896
-0.0005897
0.00272121
-0.000685581
0.0027864
-0.000784104
0.00285689
-0.000885454
0.00293339
-0.000989839
0.00301616
-0.00109748
0.00310534
-0.00120859
0.00320109
-0.0013234
0.00330356
-0.00144216
0.00341293
-0.0015651
0.00352939
-0.00169248
0.00365314
-0.00182458
0.00378439
-0.00196167
0.00392332
-0.00210402
0.00407022
-0.00225207
0.00422565
-0.00240632
0.0043894
0.0045592
-0.00256676
-1.00106e-05
0.000522429
-3.96083e-05
0.00129682
-8.7298e-05
0.00185454
-0.000149782
0.00222391
-0.000223086
0.00245192
-0.000303654
0.00258932
-0.000388947
0.00267838
-0.000477518
0.00274753
-0.000568748
0.00281244
-0.000662507
0.00288016
-0.000758888
0.00295327
-0.000858068
0.00303257
-0.000960248
0.00311834
-0.00106564
0.00321073
-0.00117446
0.00330991
-0.00128693
0.00341603
-0.00140329
0.00352929
-0.00152376
0.00364987
-0.00164862
0.00377799
-0.00177812
0.00391389
-0.00191254
0.00405774
-0.00205214
0.00420982
-0.00219737
0.00437088
-0.00234897
0.004541
0.00471722
-0.002507
-8.84738e-06
0.000531276
-3.59792e-05
0.00132395
-8.06722e-05
0.00189924
-0.000140141
0.00228338
-0.000210651
0.00252243
-0.000288682
0.00266735
-0.000371634
0.00276133
-0.000457971
0.00283387
-0.000547009
0.00290148
-0.000638576
0.00297173
-0.000732746
0.00304744
-0.000829685
0.00312951
-0.000929588
0.00321824
-0.00103266
0.0033138
-0.00113911
0.00341636
-0.00124916
0.00352608
-0.00136304
0.00364316
-0.00148097
0.0037678
-0.0016032
0.00390023
-0.00173001
0.0040407
-0.00186167
0.0041894
-0.00199842
0.00434656
-0.00214063
0.0045131
-0.0022895
0.00468987
0.00487311
-0.00244539
-7.66087e-06
0.000538937
-3.22566e-05
0.00134854
-7.38464e-05
0.00194083
-0.000130179
0.00233971
-0.000197776
0.00259002
-0.000273168
0.00274274
-0.000353689
0.00284185
-0.000437716
0.00291789
-0.00052449
0.00298826
-0.000613797
0.00306104
-0.000705688
0.00313933
-0.000800317
0.00322414
-0.000897873
0.0033158
-0.000998555
0.00341449
-0.00110257
0.00352037
-0.00121012
0.00363364
-0.00132143
0.00375448
-0.00143674
0.0038831
-0.00155626
0.00401976
-0.00168029
0.00416472
-0.0018091
0.00431822
-0.00194292
0.00448038
-0.00208192
0.0046521
-0.00222776
0.00483571
0.00502747
-0.00238212
-6.45376e-06
0.000545391
-2.84472e-05
0.00137054
-6.68292e-05
0.00197921
-0.000119904
0.00239279
-0.000184469
0.00265459
-0.000257115
0.00281539
-0.000335116
0.00291985
-0.000416755
0.00299953
-0.000501196
0.0030727
-0.000588177
0.00314802
-0.000677722
0.00322888
-0.000769976
0.00331639
-0.000865117
0.00341094
-0.000963338
0.00351271
-0.00106484
0.00362187
-0.00116982
0.00373862
-0.0012785
0.00386316
-0.00139109
0.0039957
-0.00150783
0.00413649
-0.00162897
0.00428586
-0.00175482
0.00444407
-0.00188563
0.00461118
-0.00202118
0.00478766
-0.00216293
0.00497746
0.00518178
-0.00231724
-5.22918e-06
0.00055062
-2.45584e-05
0.00138987
-5.96298e-05
0.00201428
-0.000109324
0.00244248
-0.000170737
0.002716
-0.00024053
0.00288518
-0.000315921
0.00299524
-0.000395096
0.00307871
-0.000477135
0.00315474
-0.000561723
0.00323261
-0.00064886
0.00331601
-0.000738673
0.00340621
-0.000831334
0.0035036
-0.000927028
0.0036084
-0.00102595
0.00372079
-0.00112829
0.00384096
-0.00123426
0.00396912
-0.00134407
0.00410551
-0.00145794
0.00425037
-0.00157611
0.00440402
-0.0016989
0.00456687
-0.00182674
0.00473902
-0.00195943
0.00492034
-0.00209574
0.00511378
0.00533762
-0.00225159
-3.99133e-06
0.000554612
-2.05982e-05
0.00140647
-5.22584e-05
0.00204594
-9.84506e-05
0.00248867
-0.000156589
0.00277414
-0.000223419
0.00295201
-0.000296108
0.00306793
-0.000372742
0.00315534
-0.000452312
0.00323431
-0.000534446
0.00331474
-0.000619112
0.00340068
-0.000706422
0.00349352
-0.00079654
0.00359372
-0.000889642
0.0037015
-0.000985914
0.00381706
-0.00108555
0.00394059
-0.00118874
0.00407231
-0.00129569
0.00421246
-0.00140662
0.00436129
-0.00152174
0.00451915
-0.00164134
0.00468646
-0.00176581
0.00486349
-0.00189555
0.00505008
-0.00203075
0.00524898
0.00546932
-0.00216245
-2.74762e-06
0.000557359
-1.65757e-05
0.0014203
-4.47256e-05
0.00207409
-8.72941e-05
0.00253124
-0.000142033
0.00282888
-0.00020579
0.00301577
-0.000275684
0.00313782
-0.000349699
0.00322936
-0.000426734
0.00331134
-0.000506352
0.00339436
-0.000588488
0.00348281
-0.000673236
0.00357827
-0.000760749
0.00368123
-0.000851197
0.00379195
-0.000944758
0.00391062
-0.00104161
0.00403745
-0.00114196
0.00417266
-0.00124598
0.00431649
-0.00135389
0.00446921
-0.0014659
0.00463115
-0.00158222
0.00480278
-0.00170319
0.00498446
-0.00182924
0.00517614
-0.00196015
0.00537988
0.00560377
-0.0020946
-1.51864e-06
0.000558878
-1.25013e-05
0.00143128
-3.70429e-05
0.00209863
-7.58669e-05
0.00257007
-0.000127081
0.00288009
-0.000187651
0.00307634
-0.000254655
0.00320483
-0.000325975
0.00330068
-0.000400409
0.00338578
-0.000477452
0.0034714
-0.000557
0.00356236
-0.000639128
0.00366039
-0.000723978
0.00376608
-0.000811712
0.00387969
-0.000902501
0.00400141
-0.00099652
0.00413147
-0.00109395
0.00427009
-0.00119498
0.00441752
-0.00129981
0.00457404
-0.00140864
0.00473998
-0.00152166
0.00491581
-0.00163919
0.00510199
-0.00176177
0.00529872
-0.00188968
0.00550779
0.00573491
-3.95897e-07
0.000559274
-8.38059e-06
0.00143927
-2.92217e-05
0.00211947
-6.41827e-05
0.00260503
-0.000111744
0.00292765
-0.00016901
0.0031336
-0.000233029
0.00326885
-0.000301576
0.00336922
-0.000373345
0.00345754
-0.000447754
0.00354581
-0.000524659
0.00363927
-0.000604111
0.00373985
-0.000686243
0.00384821
-0.000771206
0.00396465
-0.000859164
0.00408937
-0.000950286
0.00422259
-0.00104474
0.00436455
-0.00114272
0.00451549
-0.00124441
0.00467572
-0.00135
0.00484557
-0.00145972
0.00502553
-0.00157387
0.00521615
-0.001693
0.00541784
-0.00181723
0.00563203
1.00173e-06
0.000558272
-4.18996e-06
0.00144446
-2.12733e-05
0.00213656
-5.22556e-05
0.00263601
-9.60357e-05
0.00297143
-0.00014988
0.00318745
-0.000210814
0.00332978
-0.00027651
0.00343492
-0.000345548
0.00352658
-0.000417269
0.00361753
-0.000491476
0.00371347
-0.000568201
0.00381657
-0.00064756
0.00392757
-0.000729699
0.00404679
-0.000814771
0.00417444
-0.000902938
0.00431076
-0.000994366
0.00445597
-0.00108923
0.00461036
-0.00118772
0.00477421
-0.00129004
0.00494789
-0.00139641
0.0051319
-0.00150715
0.00532689
-0.00162273
0.00553341
0.00575242
2.32202e-06
0.00055595
1.64454e-07
0.00144662
-1.32085e-05
0.00214993
-4.01033e-05
0.00266291
-7.99714e-05
0.0030113
-0.000130272
0.00323775
-0.00018802
0.00338753
-0.000250784
0.00349768
-0.000317029
0.00359283
-0.000386005
0.00368651
-0.000457465
0.00378493
-0.000531412
0.00389052
-0.000607949
0.00400411
-0.00068721
0.00412605
-0.000769343
0.00425658
-0.000854501
0.00439592
-0.000942845
0.00454432
-0.00103454
0.00470206
-0.00112978
0.00486945
-0.00122876
0.00504688
-0.00133173
0.00523487
-0.00143899
0.00543414
-0.0015509
0.00564533
0.0058689
3.54874e-06
0.000552401
4.2099e-06
0.00144596
-5.03842e-06
0.00215918
-2.77476e-05
0.00268561
-6.35703e-05
0.00304713
-0.000110201
0.00328438
-0.000164658
0.00344199
-0.000224408
0.00355743
-0.000287795
0.00365621
-0.000353973
0.00375269
-0.000422637
0.0038536
-0.000493759
0.00396164
-0.000567424
0.00407777
-0.000643759
0.00420238
-0.000722902
0.00433572
-0.000805
0.00447801
-0.000890207
0.00462952
-0.000978685
0.00479053
-0.00107062
0.00496138
-0.00116622
0.00514247
-0.00126572
0.00533437
-0.00136941
0.00553783
-0.00147755
0.00575348
4.76057e-06
0.000547641
8.41565e-06
0.0014423
3.20064e-06
0.00216439
-1.52185e-05
0.00270403
-4.68504e-05
0.00307876
-8.96842e-05
0.00332721
-0.000140741
0.00349304
-0.000197393
0.00361408
-0.000257857
0.00371668
-0.000321185
0.00381601
-0.000387006
0.00391942
-0.000455257
0.00402989
-0.000526006
0.00414852
-0.000599368
0.00427575
-0.000675474
0.00441183
-0.000754462
0.004557
-0.000836481
0.00471154
-0.000921689
0.00487574
-0.00101026
0.00504996
-0.00110242
0.00523463
-0.00119839
0.00543034
-0.00129842
0.00563787
0.00585776
5.95579e-06
0.000541685
1.25842e-05
0.00143567
1.136e-05
0.00216562
-2.392e-06
0.00271779
-2.98316e-05
0.0031062
-6.87402e-05
0.00336612
-0.000116282
0.00354058
-0.000169749
0.00366755
-0.000227225
0.00377415
-0.000287651
0.00387644
-0.000350584
0.00398235
-0.000415921
0.00409523
-0.000483711
0.00421631
-0.000554056
0.00434609
-0.00062708
0.00448485
-0.000702913
0.00463284
-0.000781696
0.00479033
-0.000863583
0.00495763
-0.00094875
0.00513512
-0.0010374
0.00532328
-0.00112977
0.00552271
-0.00122606
0.00573416
7.12811e-06
0.000534557
1.67298e-05
0.00142607
1.96006e-05
0.00216275
1.0289e-05
0.0027271
-1.25684e-05
0.00312905
-4.73903e-05
0.00340094
-9.12997e-05
0.00358449
-0.00014149
0.00371774
-0.000195911
0.00382857
-0.000253384
0.00393391
-0.000313385
0.00404235
-0.000375769
0.00415761
-0.000440559
0.0042811
-0.000507847
0.00441338
-0.000577745
0.00455475
-0.000650378
0.00470547
-0.00072588
0.00486583
-0.000804399
0.00503615
-0.000886105
0.00521683
-0.000971197
0.00540837
-0.00105989
0.0056114
0.00582662
8.27343e-06
0.000526283
2.08357e-05
0.00141351
2.78496e-05
0.00215573
2.31912e-05
0.00273176
4.9777e-06
0.00314727
-2.56615e-05
0.00343158
-6.5812e-05
0.00362464
-0.00011263
0.00376456
-0.000163927
0.00387987
-0.000218396
0.00398838
-0.000275424
0.00409938
-0.000334816
0.004217
-0.000396569
0.00434285
-0.000460761
0.00447757
-0.000527495
0.00462148
-0.000596886
0.00477486
-0.000669063
0.004938
-0.000744167
0.00511125
-0.000822362
0.00529502
-0.000903836
0.00548984
-0.000988782
0.00569634
0.00591517
9.38707e-06
0.000516896
2.48839e-05
0.00139801
3.60784e-05
0.00214454
3.61671e-05
0.00273167
2.26474e-05
0.00316079
-3.55572e-06
0.00345779
-3.98389e-05
0.00366093
-8.31871e-05
0.00380791
-0.000131287
0.00392797
-0.0001827
0.00403979
-0.000236716
0.0041534
-0.00029308
0.00427337
-0.000351762
0.00440154
-0.000412822
0.00453863
-0.000476353
0.00468501
-0.000542465
0.00484097
-0.000611275
0.00500681
-0.000682919
0.0051829
-0.000757553
0.00536966
-0.000835354
0.00556764
-0.000916491
0.00577748
1.04654e-05
0.000506431
2.88561e-05
0.00137962
4.42519e-05
0.00212914
4.91797e-05
0.00272674
4.05342e-05
0.00316943
1.8822e-05
0.0034795
-1.34135e-05
0.00369316
-5.31789e-05
0.00384767
-9.80072e-05
0.0039728
-0.000146312
0.0040881
-0.000197275
0.00420436
-0.000250578
0.00432667
-0.000306156
0.00445711
-0.000364052
0.00459653
-0.000424347
0.00474531
-0.000487142
0.00490377
-0.000552547
0.00507222
-0.000620689
0.00525104
-0.000691716
0.00544068
-0.000765788
0.00564172
0.00585475
1.15005e-05
3.27338e-05
5.2337e-05
0.00210954
6.21883e-05
0.00271689
5.85531e-05
0.00317307
4.1516e-05
0.00349654
1.34461e-05
0.00372123
-2.26279e-05
0.00388375
-6.41043e-05
0.00401428
-0.000109246
0.00413324
-0.000157119
0.00425223
-0.000207329
0.00437688
-0.000259774
0.00450956
-0.000314475
0.00465123
-0.000371502
0.00480234
-0.000430946
0.00496321
-0.00049291
0.00513418
-0.000557511
0.00531564
-0.000624886
0.00550806
-0.00069518
0.00571201
0.00592809
6.02995e-05
7.51468e-05
0.00270204
7.66577e-05
0.00317156
6.44566e-05
0.00350874
4.07039e-05
0.00374499
8.44141e-06
0.00391601
-2.95984e-05
0.00405232
-7.1521e-05
0.00417516
-0.000116264
0.00429698
-0.000163352
0.00442397
-0.000212636
0.00455884
-0.000264115
0.00470271
-0.000317847
0.00485607
-0.000373909
0.00501927
-0.000432398
0.00519267
-0.000493421
0.00537666
-0.000557101
0.00557174
-0.000623571
0.00577848
0.00599745
8.80063e-05
9.47959e-05
8.75957e-05
0.00351594
6.83219e-05
0.00376426
4.00004e-05
0.00394433
5.48392e-06
0.00408683
-3.31554e-05
0.0042138
-7.47293e-05
0.00433855
-0.000118666
0.00446791
-0.000164765
0.00460494
-0.000212998
0.00475094
-0.000263408
0.00490648
-0.000316062
0.00507193
-0.000371044
0.00524765
-0.000428454
0.00543407
-0.000488403
0.00563169
-0.000551005
0.00584108
0.000110881
9.62547e-05
0.00377889
7.20152e-05
0.00396857
4.11307e-05
0.00411772
5.82323e-06
0.00424911
-3.25356e-05
0.00437691
-7.32931e-05
0.00450866
-0.000116184
0.00464783
-0.000161148
0.0047959
-0.000208214
0.00495354
-0.000257435
0.00512115
-0.000308884
0.0052991
-0.00036265
0.00548784
-0.000418832
0.00568787
0.00589978
0.000124452
0.000104445
7.72995e-05
0.00414486
4.54138e-05
0.004281
1.02951e-05
0.00441203
-2.72559e-05
0.00454621
-6.69177e-05
0.00468749
-0.000108592
0.00483758
-0.000152297
0.00499725
-0.000198061
0.00516691
-0.000245952
0.00534699
-0.000296048
0.00553793
-0.000348431
0.00574025
0.00595453
0.000113959
8.55662e-05
5.37517e-05
0.00444384
1.94269e-05
0.00458054
-1.69947e-05
0.00472392
-5.53558e-05
0.00487594
-9.56871e-05
0.00503758
-0.000137975
0.0052092
-0.000182287
0.00539131
-0.000228687
0.00558433
-0.000277245
0.00578881
0.00600532
9.77928e-05
6.67329e-05
3.35701e-05
0.00475708
-1.53022e-06
0.00491104
-3.84178e-05
0.00507447
-7.72095e-05
0.00524799
-0.000117926
0.00543202
-0.000160609
0.00562702
-0.000205318
0.00583352
0.00605211
8.47541e-05
5.30269e-05
1.94961e-05
-1.58071e-05
0.0052833
-5.29076e-05
0.00546912
-9.18572e-05
0.00566597
-0.000132698
0.00587436
0.00609488
4.62156e-05
1.27258e-05
-2.2478e-05
-5.94314e-05
0.00591132
-0.00337206
6.57945e-07
-0.00341957
-8.22476e-06
-0.00346384
-1.29577e-05
-0.00350259
-2.04475e-05
-0.00353775
-2.60908e-05
-0.00356824
-3.33511e-05
-0.00359512
-3.9854e-05
-0.00361789
-4.72814e-05
-0.00363732
-5.42282e-05
-0.00365303
-6.18597e-05
-0.00366563
-6.8977e-05
-0.00367484
-7.63739e-05
-0.00368114
-8.29883e-05
-0.00368428
-8.91292e-05
-0.00368467
-9.37823e-05
-0.00368209
-9.68383e-05
-0.00367689
-9.74138e-05
-0.00366883
-9.52165e-05
-0.00365821
-8.96621e-05
-0.00364477
-8.0612e-05
-0.00362871
-6.84006e-05
-0.00360979
-5.43695e-05
-0.00358811
-4.01626e-05
-0.00356338
-2.93319e-05
-2.54574e-05
-0.00336917
5.49884e-05
-0.00341689
3.94916e-05
-0.00346125
3.14025e-05
-0.00350009
1.83889e-05
-0.00353533
9.15549e-06
-0.00356593
-2.75838e-06
-0.00359286
-1.29192e-05
-0.00361576
-2.43878e-05
-0.00363527
-3.47121e-05
-0.00365109
-4.60455e-05
-0.0036638
-5.62639e-05
-0.00367312
-6.70564e-05
-0.00367952
-7.65814e-05
-0.00368277
-8.58792e-05
-0.00368328
-9.32802e-05
-0.0036808
-9.93087e-05
-0.00367571
-0.00010251
-0.00366776
-0.000103163
-0.00365726
-0.000100167
-0.00364394
-9.39343e-05
-0.00362801
-8.43224e-05
-0.00360924
-7.31419e-05
-0.00358773
-6.16711e-05
-0.00356318
-5.38857e-05
-5.31021e-05
-0.00336409
0.000109539
-0.00341176
8.71627e-05
-0.00345622
7.58615e-05
-0.00349517
5.73373e-05
-0.0035305
4.44819e-05
-0.00356106
2.78069e-05
-0.00358822
1.42368e-05
-0.00361139
-1.21723e-06
-0.00363104
-1.50642e-05
-0.00364705
-3.00352e-05
-0.00365997
-4.33437e-05
-0.00366949
-5.75311e-05
-0.00367611
-6.99605e-05
-0.00367958
-8.241e-05
-0.00368031
-9.25552e-05
-0.00367807
-0.000101549
-0.00367321
-0.000107369
-0.00366551
-0.000110862
-0.00365526
-0.000110414
-0.00364221
-0.000106982
-0.00362659
-9.99497e-05
-0.00360813
-9.15969e-05
-0.00358697
-8.28366e-05
-0.00356278
-7.80695e-05
-8.03512e-05
-0.00335633
0.000164178
-0.00340407
0.000134902
-0.00344863
0.000120417
-0.00348771
9.64221e-05
-0.00352324
8.00102e-05
-0.00355406
5.86311e-05
-0.00358146
4.1631e-05
-0.00360452
2.18459e-05
-0.00362465