/*--------------------------------*- C++ -*----------------------------------*\
  =========                 |
  \\      /  F ield         | OpenFOAM: The Open Source CFD Toolbox
   \\    /   O peration     | Website:  https://openfoam.org
    \\  /    A nd           | Version:  7
     \\/     M anipulation  |
\*---------------------------------------------------------------------------*/
FoamFile
{
    version     2.0;
    format      ascii;
    class       volScalarField;
    location    "3.5";
    object      p;
}
// * * * * * * * * * * * * * * * * * * * * * * * * * * * * * * * * * * * * * //

dimensions      [1 -1 -2 0 0 0 0];

internalField   nonuniform List<scalar> 
4032
(
1
1
1
1
1
1
1
1
1
1
1
1.18521
7.16849
10.5992
10.7474
10.9554
11.1461
11.3277
11.4937
11.641
11.7703
11.8727
11.9497
12.0038
1
1
1
1
1
1
1
1
1
1
1
1.15064
7.01976
10.5761
10.7353
10.9366
11.1239
11.3015
11.4639
11.6068
11.7302
11.8243
11.8913
11.9381
1
1
1
1
1
1
1
1
1
1
1
1.02823
6.6707
10.5321
10.6861
10.8814
11.0655
11.2377
11.3947
11.533
11.6542
11.7497
11.8185
11.8728
1
1
1
1
1
1
1
1
1
1
1
1.00066
6.15305
10.4261
10.6022
10.7923
10.9749
11.1413
11.2935
11.428
11.545
11.6321
11.6868
11.7259
1
1
1
1
1
1
1
1
1
1
1
1
5.46455
10.26
10.511
10.6895
10.8665
11.0208
11.1576
11.2721
11.3668
11.4393
11.4846
11.5423
1
1
1
1
1
1
1
1
1
1
1
1
4.62903
9.99902
10.4024
10.5665
10.7287
10.8634
10.9804
11.0788
11.1605
11.2222
11.2382
11.2025
1
1
1
1
1
1
1
1
1
1
1
1
3.69635
9.59099
10.3015
10.455
10.5971
10.7024
10.7795
10.8336
10.8524
10.8152
10.7502
10.7114
1
1
1
1
1
1
1
1
1
1
1
1
2.68306
8.95696
10.2255
10.3473
10.4573
10.5308
10.5632
10.5629
10.5141
10.4307
10.3061
10.3015
1
1
1
1
1
1
1
1
1
1
1
1
1.68085
8.0536
10.1916
10.2174
10.3051
10.3442
10.325
10.264
10.1163
9.8487
9.07594
7.2092
1
1
1
1
1
1
1
1
1
1
1
1
1.06141
6.76788
10.0975
9.99266
10.0511
10.0822
10.0369
9.91773
9.67691
9.20752
8.41501
6.34013
1
1
1
1
1
1
1
1
1
1
1
1
1.00026
5.03323
9.54219
9.79468
9.85804
9.83292
9.74358
9.56358
9.25979
8.69531
7.85937
5.92577
1
1
1
1
1
1
1
1
1
1
1
1
0.999996
3.1572
8.79593
9.64119
9.6521
9.62387
9.5
9.2615
8.8907
8.31302
7.40325
5.81931
1
1
1
1
1
1
1
1
1
1
1
1
0.999999
1.58881
7.78452
9.67422
9.50797
9.38963
9.22784
8.95372
8.54608
7.98893
7.07298
5.84238
1
1
1
1
1
1
1
1
1
1
1
1
1
1.0381
5.99057
9.13695
9.17166
9.11703
8.957
8.68204
8.28251
7.701
6.8721
5.91338
1
1
1
1
1
1
1
1
1
1
1
1
1
0.999935
3.45899
8.43159
9.07424
8.97965
8.78031
8.46628
8.06432
7.48102
6.76428
5.96877
1
1
1
1
1
1
1
1
1
1
1
1
1
0.999977
1.41967
7.37352
9.14097
8.83819
8.56973
8.22605
7.84017
7.31149
6.70624
6.02621
1
1
1
1
1
1
1
1
1
1
1
1
1
0.999996
1.01645
5.27201
8.5909
8.49592
8.29612
8.00606
7.65141
7.19305
6.66804
6.07175
1
1
1
1
1
1
1
1
1
1
1
1
1
1
0.99991
2.50638
7.81102
8.4171
8.18492
7.89474
7.5429
7.12002
6.64054
6.11459
1
1
1
1
1
1
1
1
1
1
1
1
1
1
0.999977
1.16847
5.87387
8.26543
8.02214
7.77202
7.44034
7.05139
6.61447
6.14672
1
1
1
1
1
1
1
1
1
1
1
1
1
1
0.999996
1.00207
2.9221
7.4443
7.92392
7.6763
7.36223
7.00099
6.60394
6.18389
1
1
1
1
1
1
1
1
1
1
1
1
1
1
1
0.999999
1.25971
5.66911
7.8764
7.62267
7.33854
6.98957
6.60976
6.21456
1
1
1
1
1
1
1
1
1
1
1
1
1
1
1
1
1.00544
2.62406
6.99435
7.57857
7.28338
6.94878
6.592
6.22143
1
1
1
1
1
1
1
1
1
1
1
1
1
1
1
1
1.00002
1.19178
5.09105
7.55614
7.25008
6.92746
6.58944
6.24386
1
1
1
1
1
1
1
1
1
1
1
1
1
1
1
1
1
1.00326
2.19185
6.39724
7.20673
6.8943
6.58467
6.26034
1
1
1
1
1
1
1
1
1
1
1
1
1
1
1
1
1
1.00001
1.10246
3.98387
7.01906
6.90985
6.62344
6.3152
1
1
1
1
1
1
1
1
1
1
1
1
1
1
1
1
1
1
1.00135
1.62339
5.49079
6.92235
6.64416
6.33803
1
1
1
1
1
1
1
1
1
1
1
1
1
1
1
1
1
1
1
1.03092
2.7002
6.14054
6.6551
6.37367
1
1
1
1
1
1
1
1
1
1
1
1
1
1
1
1
1
1
1
1.0003
1.20413
4.02975
6.42388
6.43097
1
1
1
1
1
1
1
1
1
1
1
1
1
1
1
1
1
1
1
1
1.00476
1.68394
4.98298
6.37654
1
1
1
1
1
1
1
1
1
1
1
1
1
1
1
1
1
1
1
1
1.00003
1.03818
2.39616
5.52429
1
1
1
1
1
1
1
1
1
1
1
1
1
1
1
1
1
1
1
1
1
1.00046
1.14623
3.22597
1
1
1
1
1
1
1
1
1
1
1
1
1
1
1
1
1
1
1
1
1
1
1.00322
1.3731
1
1
1
1
1
1
1
1
1
1
1
1
1
1
1
1
1
1
1
1
1
1
1.00002
1.01428
1
1
1
1
1
1
1
1
1
1
1
1
1
1
1
1
1
1
1
1
1
1
1
1.00013
1
1
1
1
1
1
1
1
1
1
1
1
1
1
1
1
1
1
1
1
1
1
1
1
1
1
1
1
1
1
1
1
1
1
1
1
1
1
1
1
1
1
1
1
1
1
1
1
1
1
1
1
1
1
1
1
1
1
1
1
1
1
1
1
1
1
1
1
1
1
1
1
1
1
1
1
1
1
1
1
1
1
1
1
1
1
1
1
1
1
1
1
1
1
1
1
1
1
1
1
1
1
1
1
1
1
1
1
1
1
1
1
1
1
1
1
1
1
1
1
1
1
1
1
1
1
1
1
1
1
1
1
1
1
1
1
1
1
1
1
1
1
1
1
1.60851
0.473687
0.136235
0.11286
0.159067
0.258055
0.371391
0.503107
0.673279
0.848246
0.93424
0.970494
1.03757
1.12614
1.20974
1.28416
1.30459
1.29289
1.28465
1.2759
1.26817
1.25731
1.26802
1.29484
1.3176
1.33225
1.34059
1.34101
1.3325
1.92102
4.88556
5.84125
5.95234
6.02506
6.05365
6.02714
5.94477
5.85495
5.79752
5.77078
5.7532
5.71838
5.63376
5.50711
5.38541
5.29597
5.24423
5.21727
5.17068
5.06699
4.93841
4.82216
4.73143
4.68216
4.66698
4.63085
4.53673
4.42585
4.30563
4.21082
4.13978
4.09592
4.07024
4.03666
3.97593
3.89377
3.7798
3.67053
3.59773
3.54222
3.50277
3.48067
3.44703
3.39459
3.32391
3.2273
3.14356
3.09127
3.05179
3.02386
3.00777
2.97722
2.93288
2.86674
2.77746
2.70856
2.66801
2.6379
2.61677
2.5993
2.57356
2.53667
2.47071
2.37778
2.32096
2.2788
2.69379
1.50024
0.957026
0.587173
0.55305
0.546262
0.508203
0.512287
0.526244
0.580263
0.653363
0.723637
0.810435
0.902703
1.00334
1.10887
1.1899
1.19935
1.20927
1.23275
1.2471
1.25548
1.27734
1.30448
1.31245
1.31363
1.31881
1.3201
1.31697
1.74179
4.70654
6.07156
6.11308
6.0293
6.00368
6.0023
5.98747
5.90216
5.79659
5.70239
5.63369
5.61019
5.60893
5.55092
5.42471
5.29648
5.19506
5.13404
5.1124
5.07607
4.98574
4.86998
4.75447
4.65682
4.57939
4.52902
4.48958
4.43113
4.35411
4.26557
4.17269
4.09272
4.02626
3.96904
3.91745
3.85977
3.79648
3.72477
3.63906
3.55944
3.4999
3.4506
3.40599
3.36916
3.3175
3.25705
3.18805
3.11589
3.05912
3.02016
2.98334
2.94857
2.91263
2.86494
2.80458
2.73962
2.68281
2.64141
2.60978
2.57875
2.54781
2.51382
2.46906
2.40881
2.34998
2.28941
3.62084
2.35077
1.72373
1.28092
1.02197
0.881038
0.710174
0.629228
0.60131
0.576784
0.600117
0.672612
0.73976
0.793472
0.852652
0.935494
1.04397
1.10429
1.15452
1.20926
1.26167
1.27983
1.29784
1.32255
1.33622
1.3358
1.3269
1.29921
1.29531
1.47697
4.51995
6.52683
6.30561
6.00106
5.89784
5.9
5.95837
5.99587
5.93139
5.80453
5.66454
5.56533
5.53282
5.53713
5.49145
5.3867
5.25375
5.13703
5.05619
5.01065
4.97582
4.92104
4.83867
4.72667
4.58374
4.46127
4.38916
4.34961
4.33542
4.30812
4.24624
4.15944
4.03675
3.90666
3.82423
3.77714
3.75858
3.73901
3.69253
3.63041
3.5386
3.42838
3.35138
3.30143
3.26923
3.25168
3.21732
3.17129
3.10578
3.0225
2.95554
2.90902
2.86582
2.83304
2.80612
2.77098
2.72505
2.66424
2.60234
2.55472
2.51389
2.47346
2.43797
2.41368
2.38838
2.32203
4.24241
3.17298
2.40468
1.86785
1.53548
1.29482
1.08581
0.945453
0.879282
0.790348
0.727607
0.726312
0.714123
0.714789
0.728931
0.764874
0.837031
0.940989
1.01929
1.08066
1.14603
1.18915
1.22502
1.26751
1.32316
1.34503
1.33852
1.31759
1.36547
1.69762
3.65706
6.47919
6.66267
6.25913
5.94865
5.84465
5.8449
5.90277
5.91195
5.82596
5.69963
5.56267
5.48058
5.43231
5.40603
5.35568
5.27602
5.17279
5.05416
4.9626
4.89686
4.84836
4.79064
4.71667
4.62818
4.51337
4.40069
4.33396
4.29204
4.26515
4.2189
4.15019
4.05746
3.94355
3.83801
3.77235
3.7341
3.70876
3.67601
3.63104
3.56597
3.46677
3.35458
3.28347
3.24783
3.22524
3.20671
3.17521
3.12954
3.05213
2.95256
2.87797
2.83837
2.81215
2.79451
2.77471
2.74298
2.69754
2.62367
2.53805
2.47633
2.43987
2.42024
2.40601
2.39569
2.34577
4.64731
3.75306
3.01051
2.40823
2.03627
1.72236
1.4299
1.26706
1.14572
1.02944
0.929216
0.879755
0.824524
0.758308
0.743257
0.749302
0.758647
0.790188
0.843138
0.907108
0.986625
1.06849
1.13333
1.18903
1.2564
1.28595
1.28576
1.35057
1.75952
2.45784
3.05198
4.94348
6.26706
6.40748
6.13919
5.91102
5.79225
5.78441
5.84399
5.83131
5.76891
5.64979
5.49327
5.40124
5.34431
5.30946
5.26883
5.1992
5.10085
4.97005
4.85848
4.78743
4.72646
4.67026
4.61293
4.54709
4.46071
4.35607
4.27101
4.2105
4.14822
4.08133
4.01468
3.95269
3.88862
3.81283
3.73842
3.68306
3.63299
3.58018
3.52449
3.46361
3.39428
3.317
3.25519
3.21916
3.18737
3.14957
3.09972
3.03293
2.95618
2.8888
2.84245
2.81207
2.78743
2.76266
2.7329
2.69138
2.62453
2.53789
2.47027
2.43821
2.41969
2.40426
2.38998
2.34477
4.97589
4.18031
3.48553
2.90745
2.47112
2.12873
1.80746
1.59413
1.43751
1.28109
1.16432
1.09432
1.026
0.93838
0.877047
0.844835
0.810033
0.803318
0.80283
0.813708
0.84019
0.88605
0.950354
1.01764
1.10218
1.16285
1.24019
1.63303
2.43485
3.05434
3.12438
3.52776
4.84226
5.84503
6.15134
6.00631
5.8119
5.73433
5.74601
5.77779
5.74121
5.65876
5.50172
5.35147
5.27962
5.24009
5.22373
5.17222
5.09858
4.9921
4.85198
4.74804
4.68708
4.64179
4.60603
4.55378
4.48512
4.38313
4.25472
4.15619
4.09506
4.04757
4.00635
3.96559
3.91612
3.8453
3.74294
3.64503
3.58109
3.53386
3.49406
3.45839
3.41947
3.36505
3.28708
3.20969
3.1552
3.10565
3.05192
2.99971
2.95776
2.92041
2.87568
2.82362
2.77975
2.74426
2.70542
2.65652
2.59833
2.54058
2.49125
2.45064
2.4212
2.39927
2.38063
2.33146
5.20732
4.50272
3.84194
3.31705
2.8725
2.48762
2.15947
1.9203
1.72284
1.54714
1.40482
1.30334
1.20561
1.10694
1.02174
0.962953
0.913068
0.854352
0.822713
0.824838
0.842772
0.848187
0.850345
0.863878
0.903996
0.972676
1.32806
2.18597
2.76171
3.04779
3.10223
3.1187
3.47127
4.49392
5.59837
5.92451
5.79591
5.7187
5.67199
5.68546
5.65383
5.59656
5.49553
5.34436
5.23749
5.18226
5.15895
5.12528
5.06394
4.98901
4.87839
4.7468
4.66193
4.61122
4.5718
4.51731
4.4566
4.37868
4.26697
4.14534
4.07095
4.02568
3.98931
3.95039
3.90221
3.8399
3.7476
3.6318
3.54912
3.50882
3.47725
3.45213
3.42296
3.38389
3.31545
3.20477
3.10891
3.05208
3.0125
2.98342
2.9604
2.93631
2.90162
2.8435
2.7682
2.70846
2.66076
2.61554
2.57687
2.54616
2.51486
2.47563
2.43228
2.39463
2.36388
2.30404
5.37813
4.73693
4.13538
3.65426
3.21381
2.78905
2.48116
2.23184
2.00227
1.79057
1.64509
1.51633
1.39613
1.29465
1.20479
1.12763
1.07252
1.00971
0.934557
0.905386
0.902837
0.883723
0.857885
0.85069
0.870517
1.11845
1.82255
2.39679
2.58885
2.68202
2.76305
2.82908
2.94308
3.28549
4.15071
5.24926
5.67755
5.72354
5.64829
5.59048
5.55248
5.50376
5.44211
5.36397
5.26129
5.16708
5.1033
5.05116
5.00702
4.94739
4.87909
4.78516
4.66198
4.56156
4.4977
4.45437
4.41437
4.35988
4.29342
4.19899
4.08083
3.99497
3.94506
3.90549
3.86364
3.81608
3.75947
3.68079
3.57916
3.51106
3.47823
3.45064
3.41392
3.36745
3.30111
3.20385
3.0975
3.03218
3.00191
2.98535
2.97563
2.94976
2.91168
2.85011
2.76302
2.67757
2.62358
2.59172
2.56855
2.54708
2.52365
2.49346
2.4476
2.38808
2.33518
2.26977
5.50388
4.92138
4.37668
3.92269
3.49155
3.07497
2.77578
2.50231
2.24879
2.0266
1.88135
1.73117
1.58158
1.46653
1.37885
1.28074
1.20613
1.16183
1.10937
1.02741
0.958544
0.918283
0.886473
0.908068
1.10967
1.6742
2.2868
2.32925
2.3195
2.31635
2.35779
2.45952
2.55249
2.63772
2.88223
3.62417
4.73964
5.42926
5.6112
5.56205
5.44162
5.38572
5.36614
5.35797
5.31436
5.21782
5.07531
4.96672
4.90562
4.87054
4.84599
4.78977
4.69914
4.56317
4.45598
4.39816
4.35446
4.32966
4.28509
4.221
4.1212
3.99508
3.9084
3.85731
3.81649
3.78649
3.75146
3.70626
3.63914
3.53715
3.44371
3.38204
3.34133
3.29884
3.25083
3.20028
3.1414
3.07192
3.00871
2.96676
2.9316
2.89624
2.85979
2.81648
2.75439
2.68333
2.6308
2.60132
2.58152
2.56414
2.54317
2.50176
2.42794
2.34669
2.30144
2.25623
5.60636
5.08031
4.57837
4.15334
3.72571
3.32955
3.032
2.76118
2.47847
2.25825
2.09298
1.93231
1.76789
1.64217
1.55798
1.45867
1.3299
1.27898
1.25555
1.19419
1.08888
1.0224
1.03397
1.2229
1.73658
2.32304
2.44998
2.40398
2.34261
2.31746
2.29444
2.2803
2.27856
2.28655
2.32354
2.45849
2.99612
4.00647
5.06035
5.39769
5.33654
5.3079
5.28321
5.3317
5.32016
5.24223
5.08794
4.91531
4.83806
4.79223
4.78242
4.76228
4.70256
4.59981
4.45133
4.35599
4.30566
4.27214
4.24647
4.19744
4.13013
4.02676
3.90341
3.82801
3.78844
3.76798
3.7472
3.70648
3.64889
3.55509
3.43652
3.34469
3.28456
3.24581
3.21691
3.19367
3.15994
3.1106
3.03485
2.95291
2.89291
2.84916
2.80827
2.76361
2.72521
2.69664
2.66855
2.6329
2.59171
2.55135
2.50726
2.45548
2.38539
2.31132
2.28393
2.25548
5.68438
5.21184
4.74854
4.33861
3.93235
3.5606
3.26007
2.98116
2.68537
2.47612
2.29768
2.13405
1.95387
1.8006
1.70869
1.62796
1.52346
1.40468
1.34815
1.29235
1.22012
1.22614
1.42466
1.96438
2.49489
2.63778
2.57221
2.50013
2.46469
2.43308
2.38916
2.31798
2.27459
2.25826
2.24305
2.23931
2.27375
2.48449
3.20422
4.28571
5.0043
5.12396
5.20148
5.28186
5.27933
5.21008
5.0984
4.91123
4.78738
4.73364
4.71701
4.72319
4.67944
4.61072
4.49023
4.34613
4.26668
4.21742
4.17575
4.14427
4.09961
4.04091
3.95452
3.84932
3.76717
3.71607
3.67494
3.6345
3.59131
3.53669
3.45243
3.34627
3.26466
3.22111
3.19083
3.16735
3.14855
3.11066
3.04606
2.95486
2.86793
2.80827
2.76738
2.7416
2.72778
2.71771
2.69569
2.65711
2.59601
2.52679
2.46616
2.41191
2.35304
2.30321
2.28691
2.26038
5.75504
5.31389
4.89733
4.50565
4.11214
3.76058
3.46496
3.17848
2.89824
2.6864
2.48756
2.2978
2.13931
2.00384
1.85698
1.75149
1.6703
1.56799
1.46943
1.38881
1.418
1.6841
2.33768
2.84832
2.89866
2.80786
2.7159
2.67539
2.6425
2.59519
2.53687
2.4574
2.36458
2.29634
2.25983
2.23669
2.22719
2.21975
2.26254
2.59104
3.41871
4.38396
4.88377
5.07944
5.19567
5.16031
5.06761
4.93446
4.77608
4.70687
4.66877
4.66035
4.63359
4.58219
4.50757
4.38242
4.24695
4.17119
4.12541
4.08695
4.05688
4.01808
3.96747
3.88633
3.77223
3.67982
3.62178
3.57561
3.5291
3.48361
3.43787
3.37481
3.28893
3.21265
3.16663
3.13283
3.09635
3.05844
3.01796
2.95462
2.87108
2.80187
2.76331
2.74026
2.71901
2.69325
2.65858
2.61641
2.55964
2.49206
2.43255
2.37975
2.34554
2.32304
2.30223
2.26794
5.80785
5.39363
5.0127
4.63873
4.26087
3.94133
3.65046
3.35197
3.08643
2.88052
2.67976
2.46247
2.29198
2.17526
2.03278
1.88353
1.78921
1.69734
1.59794
1.62732
1.94099
2.63896
3.22044
3.24218
3.13417
2.98597
2.8911
2.85066
2.80448
2.74726
2.68771
2.61507
2.50483
2.40984
2.35054
2.30201
2.26013
2.22474
2.2042
2.1844
2.2615
2.7069
3.59455
4.39524
4.88619
4.99934
4.99991
4.92235
4.80927
4.70789
4.64141
4.60471
4.5677
4.5218
4.47028
4.394
4.27401
4.15273
4.08793
4.04575
4.00936
3.97785
3.9377
3.88222
3.78942
3.66637
3.57675
3.52222
3.4785
3.44166
3.40749
3.36966
3.31196
3.22645
3.14339
3.08923
3.04814
3.00862
2.96687
2.92588
2.88082
2.82658
2.77331
2.73404
2.7027
2.66936
2.62869
2.57569
2.51199
2.45102
2.40426
2.38011
2.36832
2.35229
2.32842
2.26992
5.83954
5.46585
5.11102
4.75193
4.40639
4.10584
3.81357
3.51309
3.26882
3.0527
2.8455
2.62612
2.45985
2.32598
2.18883
2.02748
1.9054
1.82258
1.88588
2.27124
2.95404
3.52907
3.56614
3.47448
3.35661
3.20933
3.08077
3.01125
2.95787
2.90002
2.8397
2.77515
2.69163
2.57598
2.46574
2.39352
2.34021
2.28869
2.23217
2.18734
2.16134
2.141
2.26259
2.78994
3.68039
4.42377
4.71762
4.85734
4.8451
4.73437
4.62092
4.54227
4.49314
4.4508
4.40306
4.35106
4.27981
4.17289
4.06921
4.01269
3.97061
3.92698
3.88115
3.83354
3.77131
3.66936
3.56121
3.49636
3.45176
3.4097
3.37018
3.33412
3.2962
3.23085
3.13726
3.0599
3.01002
2.96961
2.93455
2.90505
2.87556
2.83495
2.77466
2.71596
2.67433
2.63821
2.59755
2.54495
2.47741
2.42567
2.40875
2.40905
2.40253
2.37972
2.34933
2.26294
5.88689
5.54192
5.20349
4.85675
4.53975
4.24848
3.95458
3.66482
3.43349
3.21151
2.99224
2.78736
2.62935
2.46475
2.30839
2.16906
2.06894
2.19081
2.77448
3.44674
3.82987
3.84978
3.72078
3.63451
3.56043
3.45334
3.29683
3.16748
3.10063
3.04194
2.97522
2.90439
2.82694
2.73159
2.61774
2.51924
2.4496
2.39167
2.3348
2.27655
2.21043
2.14877
2.09413
2.0949
2.28085
2.91237
3.7058
4.43294
4.62393
4.66918
4.61666
4.48839
4.41475
4.37561
4.32989
4.28867
4.24181
4.16699
4.06336
3.98666
3.93272
3.88168
3.82994
3.77677
3.71656
3.64145
3.55656
3.49087
3.44074
3.39321
3.34573
3.29707
3.24495
3.18881
3.1196
3.04456
2.9925
2.95784
2.92702
2.89442
2.85631
2.80909
2.74903
2.68602
2.63757
2.60115
2.56486
2.51988
2.47869
2.44962
2.41505
2.38067
2.35978
2.34158
2.31599
2.23957
5.93171
5.60432
5.27402
4.9507
4.65671
4.36804
4.07311
3.80838
3.58227
3.36087
3.12727
2.9371
2.77715
2.59687
2.43714
2.35096
2.54801
3.27026
4.17265
4.327
4.1833
4.00669
3.88999
3.84131
3.77914
3.67698
3.53683
3.36565
3.24474
3.17004
3.10026
3.02605
2.94738
2.85883
2.75261
2.64283
2.55249
2.48143
2.42122
2.3652
2.30528
2.23256
2.14481
2.05529
2.03359
2.06958
2.33622
3.03286
3.79429
4.30044
4.43478
4.42226
4.36525
4.31024
4.26717
4.23229
4.18868
4.12604
4.02804
3.93979
3.88437
3.84044
3.79378
3.73767
3.66987
3.59171
3.51697
3.46111
3.41813
3.37756
3.33272
3.27879
3.21677
3.14826
3.07599
3.01655
2.97754
2.94876
2.92011
2.88744
2.84732
2.79445
2.72319
2.64619
2.59442
2.55914
2.52912
2.50914
2.49611
2.47449
2.42903
2.36816
2.32192
2.29319
2.26603
2.20854
6.00013
5.68151
5.3566
5.05177
4.76416
4.4786
4.19172
3.95104
3.71941
3.49541
3.25861
3.0826
2.89455
2.72929
2.70016
3.01433
3.75698
4.56789
4.78029
4.6465
4.41724
4.2168
4.10065
4.03206
3.95744
3.84972
3.72789
3.58322
3.42952
3.3096
3.21736
3.13431
3.05217
2.96695
2.87265
2.76608
2.66228
2.58083
2.51436
2.45135
2.3888
2.32182
2.24016
2.14909
2.06215
2.01242
2.00362
2.06125
2.40761
3.05543
3.70456
4.13186
4.17582
4.19836
4.23309
4.195
4.15042
4.08149
3.97821
3.87275
3.81848
3.78756
3.75469
3.71432
3.65728
3.57152
3.46769
3.39701
3.36261
3.33465
3.3046
3.26857
3.2188
3.14617
3.05478
2.98052
2.94568
2.92235
2.89646
2.86647
2.82988
2.78103
2.70805
2.61789
2.55777
2.53511
2.52607
2.52716
2.51357
2.48504
2.4358
2.36309
2.29125
2.23938
2.2105
2.16861
6.03533
5.72322
5.4168
5.13537
4.85466
4.5659
4.30551
4.07495
3.84744
3.60853
3.3813
3.20487
3.03104
3.11431
3.65279
4.50846
4.968
5.18135
5.08486
4.90366
4.71942
4.50926
4.30002
4.17579
4.09142
3.99835
3.89097
3.76941
3.62024
3.46493
3.34416
3.24863
3.16004
3.07275
2.98186
2.88352
2.77883
2.68091
2.59988
2.53079
2.46327
2.39484
2.32127
2.23944
2.14886
2.06769
1.99918
1.97562
1.96821
2.04461
2.38211
3.00193
3.587
3.90876
4.04542
4.11618
4.10778
4.04059
3.95404
3.84726
3.75651
3.71919
3.69364
3.66447
3.62175
3.55726
3.45992
3.357
3.30166
3.27266
3.24956
3.22793
3.2008
3.15508
3.07846
2.9818
2.90324
2.85915
2.83003
2.80443
2.77954
2.74931
2.70178
2.63989
2.57807
2.53105
2.50305
2.48048
2.46039
2.44441
2.41788
2.35917
2.27828
2.2106
2.17746
2.15486
6.07411
5.77889
5.49255
5.22031
4.94706
4.66663
4.43006
4.19002
3.9605
3.70046
3.52243
3.38138
3.58678
4.37702
5.42428
5.59498
5.44914
5.32905
5.22047
5.11354
4.96802
4.76941
4.51864
4.3314
4.22919
4.14557
4.04064
3.92108
3.78638
3.63118
3.4794
3.36136
3.26358
3.17122
3.07825
2.98307
2.88373
2.78152
2.68356
2.59786
2.5254
2.45977
2.39623
2.33016
2.2555
2.16596
2.0721
1.99528
1.93579
1.92465
1.9221
2.01496
2.35845
2.93944
3.46595
3.81514
3.9285
3.974
3.94463
3.85366
3.75929
3.6712
3.60724
3.57115
3.54207
3.50666
3.44861
3.3593
3.26881
3.22134
3.19746
3.17599
3.15326
3.12331
3.0747
2.98925
2.87946
2.8108
2.77782
2.75151
2.72381
2.69463
2.67192
2.6502
2.61238
2.54603
2.48201
2.44244
2.41364
2.38383
2.35153
2.31918
2.27357
2.2253
2.18446
2.14281
6.15319
5.8557
5.58159
5.31326
5.03558
4.77705
4.53058
4.29963
4.04374
3.83646
3.79603
4.21544
5.12061
6.05811
6.43047
6.19942
5.77867
5.4609
5.3305
5.27663
5.16736
4.99557
4.77314
4.54265
4.39673
4.28714
4.17486
4.05202
3.92329
3.78354
3.63017
3.48368
3.36159
3.25862
3.16384
3.07222
2.97913
2.88083
2.77765
2.67761
2.58996
2.51592
2.45244
2.39128
2.3266
2.25058
2.16478
2.07609
1.99336
1.92753
1.87737
1.86084
1.86761
1.98198
2.3308
2.89944
3.33733
3.67834
3.79144
3.81154
3.78173
3.67658
3.56111
3.49746
3.47131
3.44133
3.40473
3.35797
3.28413
3.19753
3.15057
3.12123
3.09256
3.06355
3.02755
2.96745
2.88384
2.80216
2.74788
2.71175
2.68203
2.6616
2.64905
2.63436
2.60557
2.5486
2.47171
2.40916
2.36352
2.32763
2.29748
2.27007
2.25072
2.23319
2.19843
2.13756
6.21596
5.92204
5.65798
5.39011
5.11298
4.87403
4.61274
4.39475
4.18568
4.33417
5.06199
6.11193
6.58753
6.71975
6.61632
6.35165
6.03263
5.72302
5.56722
5.48289
5.36852
5.20721
5.00755
4.77218
4.57144
4.42624
4.29977
4.17193
4.04385
3.91247
3.76679
3.60976
3.46605
3.34708
3.24483
3.15058
3.05665
2.95771
2.85343
2.75059
2.65768
2.57581
2.50207
2.43207
2.36336
2.29475
2.22338
2.1471
2.06844
1.99278
1.92329
1.86158
1.82259
1.81023
1.82304
1.9469
2.30687
2.84078
3.27874
3.54528
3.63771
3.6205
3.55277
3.46487
3.42433
3.39566
3.37284
3.34446
3.2845
3.18791
3.12417
3.08345
3.04597
3.00859
2.97076
2.93324
2.87636
2.79198
2.73221
2.70402
2.68314
2.65849
2.6263
2.59198
2.56663
2.53055
2.4647
2.38471
2.32186
2.28231
2.25887
2.2473
2.23917
2.22303
2.20412
2.15193
6.21927
6.00702
5.7347
5.43899
5.20146
4.94105
4.7266
4.63561
5.04758
6.09203
7.20053
7.43467
7.26394
6.9818
6.67204
6.48018
6.28111
6.03695
5.84835
5.70889
5.56037
5.38672
5.18874
4.95774
4.74592
4.58324
4.44151
4.30248
4.16273
4.02092
3.87106
3.71453
3.56992
3.44711
3.33989
3.23968
3.13875
3.03082
2.91658
2.80741
2.71412
2.63477
2.5609
2.48852
2.41502
2.33938
2.26109
2.18507
2.10689
2.03344
1.97189
1.91568
1.86453
1.81436
1.78385
1.74905
1.76653
1.89884
2.29504
2.78302
3.25568
3.40152
3.42264
3.45139
3.42389
3.37641
3.31637
3.23827
3.17869
3.14626
3.10197
3.04837
3.00519
2.97235
2.93887
2.88631
2.80407
2.75063
2.73576
2.71981
2.69217
2.65178
2.60709
2.55766
2.50084
2.44661
2.40049
2.34485
2.29306
2.26484
2.24891
2.24152
2.23218
2.22374
2.20829
2.27465
5.72674
6.07233
5.84245
5.51464
5.27412
5.05984
5.24744
6.04853
7.20125
7.98746
8.1106
7.78835
7.45751
7.18287
6.92266
6.7499
6.56805
6.31926
6.08915
5.91223
5.74086
5.55198
5.34564
5.12242
4.90981
4.73814
4.58936
4.44334
4.29369
4.13697
3.9707
3.80331
3.65473
3.53075
3.42186
3.31921
3.21608
3.10569
2.98399
2.86023
2.75407
2.67202
2.6013
2.53319
2.46534
2.39439
2.3131
2.22441
2.14082
2.06659
1.9966
1.93766
1.887
1.84298
1.80293
1.75594
1.72115
1.6794
1.71056
1.87179
2.28103
2.74705
3.13347
3.33456
3.37642
3.37028
3.31903
3.2194
3.12965
3.06436
3.02012
3.00406
2.9909
2.96393
2.92288
2.85659
2.78669
2.73505
2.68568
2.64952
2.63441
2.62149
2.59126
2.53797
2.46372
2.39381
2.34388
2.31996
2.29658
2.27489
2.25405
2.24854
2.24717
2.29053
2.3902
2.77901
3.95225
5.83151
5.8418
5.59299
5.47307
6.02351
7.43642
8.48224
8.64496
8.6133
8.36126
7.98073
7.6471
7.44433
7.24884
7.03093
6.80986
6.54256
6.28355
6.09437
5.9153
5.72023
5.50514
5.27785
5.0647
4.88044
4.71704
4.56117
4.40454
4.24295
4.07398
3.90179
3.74175
3.60584
3.48984
3.38349
3.27968
3.17255
3.05582
2.92984
2.80435
2.70064
2.62493
2.5617
2.49687
2.43244
2.3682
2.28904
2.19094
2.10346
2.04509
1.99515
1.94518
1.89042
1.82939
1.77752
1.72647
1.67092
1.63016
1.60664
1.65733
1.87923
2.29944
2.73697
3.04841
3.2385
3.2383
3.20767
3.13621
3.05026
3.00065
2.96582
2.92987
2.89141
2.85068
2.82352
2.78914
2.73377
2.66665
2.62388
2.58812
2.546
2.5078
2.46983
2.42594
2.37215
2.32503
2.29294
2.28026
2.27319
2.26626
2.30174
2.42526
2.71118
3.03968
3.46266
1.72232
4.56191
5.54324
5.89456
7.0685
8.70665
9.76936
9.56337
9.05595
8.79856
8.53498
8.22381
7.90648
7.67798
7.50354
7.27309
7.03197
6.77452
6.50447
6.29149
6.10106
5.89991
5.68512
5.45173
5.21542
5.00703
4.82745
4.66067
4.49722
4.33329
4.16474
3.99112
3.82323
3.67616
3.55219
3.44265
3.34067
3.2398
3.13012
3.0082
2.88097
2.76084
2.65548
2.5747
2.51856
2.46276
2.38521
2.30545
2.23227
2.15446
2.06634
1.98892
1.93592
1.89737
1.86615
1.82078
1.75517
1.68805
1.63127
1.59167
1.56176
1.5561
1.62089
1.89292
2.29588
2.75834
2.92851
3.04833
3.05837
3.03963
2.98477
2.92764
2.88643
2.85275
2.81444
2.76651
2.71957
2.68093
2.65081
2.60858
2.5572
2.5054
2.45407
2.4026
2.35339
2.31745
2.29382
2.281
2.2821
2.33162
2.47524
2.76006
3.12492
3.52953
3.65289
3.72777
1.04712
2.18917
4.17766
8.11081
10.2894
10.4693
10.3682
9.89275
9.36771
9.06024
8.83315
8.52856
8.17441
7.8725
7.68259
7.46371
7.22095
6.9768
6.70891
6.46195
6.25207
6.03788
5.81448
5.58044
5.34245
5.12187
4.92853
4.75365
4.58564
4.4179
4.24598
4.07032
3.90019
3.74851
3.6188
3.50248
3.39095
3.27849
3.16229
3.0426
2.92292
2.81275
2.71554
2.6249
2.53992
2.48925
2.44659
2.37819
2.29085
2.19599
2.10246
2.02952
1.97439
1.91811
1.86119
1.81315
1.76823
1.72155
1.66347
1.60713
1.55882
1.52624
1.49119
1.50706
1.60942
1.89008
2.29799
2.677
2.86749
2.88956
2.89367
2.87199
2.8344
2.7907
2.73395
2.67957
2.64629
2.62581
2.59754
2.55373
2.50215
2.45245
2.40653
2.36826
2.34428
2.3166
2.30541
2.35012
2.51337
2.85631
3.26286
3.63332
3.82954
3.84084
3.84463
3.83907
1.00077
1.10719
3.45924
11.2877
11.9702
10.9955
10.4684
10.0429
9.59989
9.28487
9.03899
8.79305
8.47391
8.15434
7.95187
7.74818
7.51128
7.26581
6.99708
6.7225
6.48577
6.26496
6.03196
5.78869
5.54487
5.31801
5.1175
4.93627
4.76258
4.58873
4.4103
4.22806
4.05095
3.89049
3.75024
3.62394
3.50472
3.38826
3.27058
3.14968
3.02684
2.91014
2.80441
2.70783
2.61631
2.52499
2.43047
2.33469
2.24584
2.1931
2.1584
2.10446
2.03458
1.9567
1.88725
1.82642
1.77102
1.72274
1.67473
1.62956
1.58282
1.53979
1.50002
1.46905
1.44312
1.46818
1.6009
1.89673
2.28239
2.60632
2.81987
2.8456
2.83228
2.78282
2.71483
2.65833
2.60664
2.56128
2.52056
2.47683
2.43602
2.40511
2.3866
2.37647
2.35517
2.38761
2.54126
2.90179
3.33354
3.74743
3.95162
4.00013
3.96418
3.90869
3.89997
3.89348
1
1.00285
4.28335
11.6846
11.7401
10.819
10.3364
10.0191
9.72426
9.48137
9.26271
9.05976
8.74027
8.38694
8.13438
7.89659
7.62071
7.34538
7.07801
6.80293
6.54989
6.31279
6.06739
5.81457
5.56791
5.33923
5.13373
4.94653
4.76679
4.58679
4.40315
4.21814
4.03989
3.87626
3.73029
3.59686
3.47217
3.35155
3.2301
3.10652
2.98376
2.86986
2.77006
2.68742
2.61039
2.52228
2.42432
2.34081
2.27767
2.21669
2.14978
2.08344
2.01909
1.95877
1.90209
1.84451
1.79092
1.74764
1.70954
1.67134
1.6287
1.58495
1.53839
1.47797
1.42966
1.40207
1.38907
1.4263
1.60382
1.94542
2.32403
2.57468
2.72803
2.72744
2.71037
2.67975
2.61769
2.53508
2.46956
2.42231
2.40142
2.39169
2.39908
2.44216
2.59131
2.9424
3.37709
3.7294
4.02081
4.16582
4.18089
4.15577
4.06813
3.94912
3.89441
3.84252
1
1.00006
5.19596
11.0745
11.2754
10.8281
10.5419
10.2732
10.0002
9.74602
9.49009
9.18941
8.82843
8.4962
8.21044
7.98131
7.74052
7.448
7.17736
6.92659
6.66503
6.41137
6.15696
5.90054
5.65442
5.42463
5.21134
5.01233
4.82237
4.6369
4.4531
4.27277
4.10131
3.94072
3.79003
3.6448
3.50612
3.37372
3.24399
3.11693
2.99823
2.89866
2.81238
2.72888
2.63687
2.53299
2.43187
2.3477
2.28095
2.2214
2.16764
2.11316
2.05028
1.97676
1.90158
1.83398
1.77765
1.7304
1.68583
1.64742
1.60797
1.56371
1.51559
1.4674
1.41981
1.37539
1.35307
1.34506
1.36174
1.42774
1.6658
2.02612
2.3555
2.47655
2.58145
2.59288
2.55144
2.46916
2.42572
2.41306
2.42378
2.48523
2.69254
3.00879
3.47853
3.84438
4.05729
4.13552
4.21436
4.23564
4.20957
4.1472
4.04878
3.96009
3.89833
3.82551
1
1
5.58618
10.7213
10.9725
10.7721
10.556
10.2961
10.0446
9.79395
9.54653
9.2666
8.96285
8.674
8.40087
8.142
7.88456
7.58261
7.28395
7.03374
6.77657
6.50907
6.24724
5.98137
5.72274
5.47991
5.25524
5.04816
4.85345
4.6659
4.48021
4.29669
4.12154
3.95772
3.80591
3.6602
3.51962
3.38305
3.25186
3.1308
3.0216
2.92348
2.8287
2.73313
2.63421
2.53345
2.44183
2.36436
2.30009
2.23983
2.17911
2.11474
2.04677
1.97753
1.90871
1.84413
1.78616
1.73586
1.69182
1.65372
1.61483
1.56968
1.52022
1.47572
1.43233
1.38849
1.35332
1.32394
1.30515
1.28284
1.3035
1.41012
1.68372
2.04333
2.40269
2.47229
2.41104
2.3885
2.40866
2.49513
2.70556
3.08377
3.57509
3.93347
4.21926
4.3083
4.28805
4.26004
4.20505
4.16309
4.11609
4.06448
4.01405
3.95937
3.8998
3.82467
1
1
5.64143
10.6167
10.8609
10.6914
10.5387
10.3178
10.0867
9.83185
9.56004
9.26766
8.97129
8.68356
8.40891
8.12961
7.84342
7.54901
7.27053
7.02713
6.78396
6.50841
6.24462
5.99228
5.7541
5.53317
5.32454
5.11823
4.90565
4.68749
4.47578
4.28509
4.11873
3.97007
3.83443
3.70184
3.56506
3.41771
3.26762
3.13322
3.01837
2.91725
2.82134
2.72858
2.6375
2.54891
2.46663
2.38611
2.30881
2.23516
2.16592
2.10112
2.04018
1.98043
1.91885
1.86117
1.80502
1.74575
1.68931
1.64477
1.60753
1.56945
1.52761
1.48627
1.44697
1.40757
1.36792
1.32665
1.28472
1.25542
1.23308
1.22684
1.27437
1.45702
1.79459
2.10372
2.32882
2.53756
2.80675
3.15221
3.51275
3.94362
4.15691
4.32746
4.41444
4.35737
4.26956
4.20056
4.14729
4.11397
4.08999
4.0597
4.02467
3.97916
3.92088
3.84514
1
1
5.5976
10.5781
10.8228
10.6572
10.5148
10.3031
10.0755
9.82558
9.56415
9.29928
9.03873
8.7809
8.52125
8.25856
7.97327
7.68075
7.39344
7.12205
6.83843
6.54289
6.28061
6.03826
5.80903
5.5893
5.37286
5.15088
4.91666
4.67736
4.45687
4.2737
4.12178
3.98669
3.85846
3.72558
3.5803
3.42034
3.26002
3.12191
3.00749
2.90884
2.81763
2.73269
2.64978
2.56357
2.47446
2.38461
2.30092
2.22361
2.1528
2.09006
2.03673
1.98981
1.94097
1.88316
1.8122
1.74184
1.68162
1.63428
1.59504
1.55981
1.53173
1.50521
1.46808
1.41389
1.36394
1.31951
1.27567
1.23795
1.21056
1.20208
1.19458
1.21455
1.32106
1.61645
2.16218
2.83983
3.48193
4.05237
4.60997
4.97034
4.90461
4.77269
4.58822
4.3592
4.22648
4.1318
4.08145
4.04869
4.03296
4.03374
4.01489
3.98004
3.93359
3.86338
)
;

boundaryField
{
    inlet
    {
        type            fixedValue;
        value           uniform 1;
    }
    outlet
    {
        type            zeroGradient;
    }
    bottom
    {
        type            symmetryPlane;
    }
    top
    {
        type            symmetryPlane;
    }
    obstacle
    {
        type            zeroGradient;
    }
    defaultFaces
    {
        type            empty;
    }
}


// ************************************************************************* //
