/*--------------------------------*- C++ -*----------------------------------*\
  =========                 |
  \\      /  F ield         | OpenFOAM: The Open Source CFD Toolbox
   \\    /   O peration     | Website:  https://openfoam.org
    \\  /    A nd           | Version:  7
     \\/     M anipulation  |
\*---------------------------------------------------------------------------*/
FoamFile
{
    version     2.0;
    format      ascii;
    class       volScalarField;
    location    "3.5";
    object      rho;
}
// * * * * * * * * * * * * * * * * * * * * * * * * * * * * * * * * * * * * * //

dimensions      [1 -3 0 0 0 0 0];

internalField   nonuniform List<scalar> 
4032
(
1.40001
1.40001
1.40001
1.40001
1.40001
1.40001
1.40001
1.40001
1.40001
1.40001
1.40001
1.50538
4.23919
5.4533
5.51348
5.593
5.66351
5.7281
5.78507
5.83498
5.87934
5.91489
5.94172
5.96072
1.40001
1.40001
1.40001
1.40001
1.40001
1.40001
1.40001
1.40001
1.40001
1.40001
1.40001
1.48507
4.17806
5.44432
5.50922
5.58618
5.65534
5.71852
5.77427
5.82272
5.86508
5.89776
5.921
5.93744
1.40001
1.40001
1.40001
1.40001
1.40001
1.40001
1.40001
1.40001
1.40001
1.40001
1.40001
1.41841
4.05413
5.43311
5.49228
5.56571
5.63358
5.69498
5.74914
5.79622
5.83798
5.87112
5.89489
5.9139
1.40001
1.40001
1.40001
1.40001
1.40001
1.40001
1.40001
1.40001
1.40001
1.40001
1.40001
1.40056
3.84668
5.3989
5.46241
5.53243
5.59947
5.65915
5.7121
5.75823
5.79876
5.82903
5.84779
5.86147
1.40001
1.40001
1.40001
1.40001
1.40001
1.40001
1.40001
1.40001
1.40001
1.40001
1.40001
1.40001
3.55809
5.33967
5.42866
5.49389
5.55884
5.61437
5.66215
5.70142
5.73424
5.75993
5.77634
5.79758
1.40001
1.40001
1.40001
1.40001
1.40001
1.40001
1.40001
1.40001
1.40001
1.40001
1.40001
1.40001
3.19988
5.2503
5.39241
5.45113
5.5096
5.55722
5.59737
5.63045
5.6585
5.68197
5.69161
5.68313
1.40001
1.40001
1.40001
1.40001
1.40001
1.40001
1.40001
1.40001
1.40001
1.40001
1.40001
1.40001
2.78736
5.12406
5.37484
5.42224
5.46839
5.50195
5.52522
5.54113
5.54639
5.53396
5.51555
5.50827
1.40001
1.40001
1.40001
1.40001
1.40001
1.40001
1.40001
1.40001
1.40001
1.40001
1.40001
1.40001
2.31709
4.94698
5.39345
5.40823
5.4331
5.4488
5.45105
5.44506
5.4242
5.39115
5.336
5.31133
1.40001
1.40001
1.40001
1.40001
1.40001
1.40001
1.40001
1.40001
1.40001
1.40001
1.40001
1.40001
1.82155
4.69086
5.42921
5.39635
5.40513
5.39962
5.37733
5.34424
5.28072
5.17481
4.8614
4.01595
1.40001
1.40001
1.40001
1.40001
1.40001
1.40001
1.40001
1.40001
1.40001
1.40001
1.40001
1.40001
1.44957
4.16047
5.38425
5.33475
5.34216
5.33023
5.29264
5.23202
5.12543
4.93404
4.60713
3.70831
1.40001
1.40001
1.40001
1.40001
1.40001
1.40001
1.40001
1.40001
1.40001
1.40001
1.40001
1.40001
1.40022
3.40056
5.15326
5.26397
5.2818
5.25914
5.20761
5.11969
4.98317
4.74535
4.39622
3.57383
1.40001
1.40001
1.40001
1.40001
1.40001
1.40001
1.40001
1.40001
1.40001
1.40001
1.40001
1.40001
1.4
2.5744
4.91947
5.21706
5.21201
5.19409
5.13479
5.02594
4.86179
4.61307
4.22746
3.55058
1.40001
1.40001
1.40001
1.40001
1.40001
1.40001
1.40001
1.40001
1.40001
1.40001
1.40001
1.40001
1.4
1.79407
4.64249
5.25905
5.17894
5.11919
5.04459
4.92428
4.74724
4.50547
4.11172
3.57481
1.40001
1.40001
1.40001
1.40001
1.40001
1.40001
1.40001
1.40001
1.40001
1.40001
1.40001
1.40001
1.4
1.43127
3.86465
5.07113
5.06156
5.02942
4.95424
4.83332
4.66065
4.40978
4.04975
3.62377
1.40001
1.40001
1.40001
1.40001
1.40001
1.40001
1.40001
1.40001
1.40001
1.40001
1.40001
1.40001
1.40001
1.3999
2.75233
4.8612
5.04905
5.00015
4.90544
4.76501
4.58958
4.33755
4.02406
3.66753
1.40001
1.40001
1.40001
1.40001
1.40001
1.40001
1.40001
1.40001
1.40001
1.40001
1.40001
1.40001
1.40001
1.39998
1.70749
4.56015
5.11575
4.9765
4.84677
4.68828
4.51522
4.28309
4.01615
3.7106
1.40001
1.40001
1.40001
1.40001
1.40001
1.40001
1.40001
1.40001
1.40001
1.40001
1.40001
1.40001
1.40001
1.4
1.41382
3.60865
4.92338
4.87044
4.76592
4.62385
4.45807
4.25083
4.016
3.74663
1.40001
1.40001
1.40001
1.40001
1.40001
1.40001
1.40001
1.40001
1.40001
1.40001
1.40001
1.40001
1.40001
1.4
1.3999
2.32326
4.73075
4.86708
4.75669
4.61348
4.44344
4.24518
4.02382
3.78221
1.40001
1.40001
1.40001
1.40001
1.40001
1.40001
1.40001
1.40001
1.40001
1.40001
1.40001
1.40001
1.40001
1.40001
1.39998
1.53469
3.92161
4.84134
4.72467
4.59733
4.43357
4.24607
4.03808
3.81728
1.40001
1.40001
1.40001
1.40001
1.40001
1.40001
1.40001
1.40001
1.40001
1.40001
1.40001
1.40001
1.40001
1.40001
1.4
1.40175
2.56203
4.62148
4.71155
4.59254
4.43702
4.25826
4.06383
3.86005
1.40001
1.40001
1.40001
1.40001
1.40001
1.40001
1.40001
1.40001
1.40001
1.40001
1.40001
1.40001
1.40001
1.40001
1.4
1.4
1.60324
3.88524
4.73947
4.61147
4.4646
4.28888
4.09984
3.90429
1.40001
1.40001
1.40001
1.40001
1.40001
1.40001
1.40001
1.40001
1.40001
1.40001
1.40001
1.40001
1.40001
1.40001
1.40001
1.4
1.40471
2.43244
4.51322
4.63157
4.48447
4.31209
4.12938
3.94131
1.40001
1.40001
1.40001
1.40001
1.40001
1.40001
1.40001
1.40001
1.40001
1.40001
1.40001
1.40001
1.40001
1.40001
1.40001
1.4
1.40002
1.55408
3.6644
4.67172
4.51701
4.34685
4.16921
3.98905
1.40001
1.40001
1.40001
1.40001
1.40001
1.40001
1.40001
1.40001
1.40001
1.40001
1.40001
1.40001
1.40001
1.40001
1.40001
1.40001
1.40001
1.40288
2.20095
4.29052
4.53604
4.37789
4.21169
4.03799
1.40001
1.40001
1.40001
1.40001
1.40001
1.40001
1.40001
1.40001
1.40001
1.40001
1.40001
1.40001
1.40001
1.40001
1.40001
1.40001
1.40001
1.40002
1.48512
3.16365
4.50433
4.43534
4.27637
4.10742
1.40001
1.40001
1.40001
1.40001
1.40001
1.40001
1.40001
1.40001
1.40001
1.40001
1.40001
1.40001
1.40001
1.40001
1.40001
1.40001
1.40001
1.40001
1.40125
1.85813
3.89526
4.47917
4.33329
4.16529
1.40001
1.40001
1.40001
1.40001
1.40001
1.40001
1.40001
1.40001
1.40001
1.40001
1.40001
1.40001
1.40001
1.40001
1.40001
1.40001
1.40001
1.40001
1.40001
1.42688
2.50666
4.21926
4.37042
4.22404
1.40001
1.40001
1.40001
1.40001
1.40001
1.40001
1.40001
1.40001
1.40001
1.40001
1.40001
1.40001
1.40001
1.40001
1.40001
1.40001
1.40001
1.40001
1.40001
1.4003
1.56517
3.22168
4.32128
4.28646
1.40001
1.40001
1.40001
1.40001
1.40001
1.40001
1.40001
1.40001
1.40001
1.40001
1.40001
1.40001
1.40001
1.40001
1.40001
1.40001
1.40001
1.40001
1.40001
1.40001
1.40436
1.90211
3.71983
4.30107
1.40001
1.40001
1.40001
1.40001
1.40001
1.40001
1.40001
1.40001
1.40001
1.40001
1.40001
1.40001
1.40001
1.40001
1.40001
1.40001
1.40001
1.40001
1.40001
1.40001
1.40003
1.43336
2.35514
3.99627
1.40001
1.40001
1.40001
1.40001
1.40001
1.40001
1.40001
1.40001
1.40001
1.40001
1.40001
1.40001
1.40001
1.40001
1.40001
1.40001
1.40001
1.40001
1.40001
1.40001
1.40001
1.40045
1.52209
2.83809
1.40001
1.40001
1.40001
1.40001
1.40001
1.40001
1.40001
1.40001
1.40001
1.40001
1.40001
1.40001
1.40001
1.40001
1.40001
1.40001
1.40001
1.40001
1.40001
1.40001
1.40001
1.40001
1.40302
1.69334
1.40001
1.40001
1.40001
1.40001
1.40001
1.40001
1.40001
1.40001
1.40001
1.40001
1.40001
1.40001
1.40001
1.40001
1.40001
1.40001
1.40001
1.40001
1.40001
1.40001
1.40001
1.40001
1.40002
1.41294
1.40001
1.40001
1.40001
1.40001
1.40001
1.40001
1.40001
1.40001
1.40001
1.40001
1.40001
1.40001
1.40001
1.40001
1.40001
1.40001
1.40001
1.40001
1.40001
1.40001
1.40001
1.40001
1.40001
1.40013
1.40001
1.40001
1.40001
1.40001
1.40001
1.40001
1.40001
1.40001
1.40001
1.40001
1.40001
1.40001
1.40001
1.40001
1.40001
1.40001
1.40001
1.40001
1.40001
1.40001
1.40001
1.40001
1.40001
1.40001
1.40001
1.40001
1.40001
1.40001
1.40001
1.40001
1.40001
1.40001
1.40001
1.40001
1.40001
1.40001
1.40001
1.40001
1.40001
1.40001
1.40001
1.40001
1.40001
1.40001
1.40001
1.40001
1.40001
1.40001
1.40001
1.40001
1.40001
1.40001
1.40001
1.40001
1.40001
1.40001
1.40001
1.40001
1.40001
1.40001
1.40001
1.40001
1.40001
1.40001
1.40001
1.40001
1.40001
1.40001
1.40001
1.40001
1.40001
1.40001
1.40001
1.40001
1.40001
1.40001
1.40001
1.40001
1.40001
1.40001
1.40001
1.40001
1.40001
1.40001
1.40001
1.40001
1.40001
1.40001
1.40001
1.40001
1.40001
1.40001
1.40001
1.40001
1.40001
1.40001
1.40001
1.40001
1.40001
1.40001
1.40001
1.40001
1.40001
1.40001
1.40001
1.40001
1.40001
1.40001
1.40001
1.40001
1.40001
1.40001
1.40001
1.40001
1.40001
1.40001
1.40001
1.40001
1.40001
1.40001
1.40001
1.40001
1.40001
1.40001
1.40001
1.40001
1.40001
1.40001
1.40001
1.40001
1.40001
1.40001
1.40001
1.40001
1.40001
1.40001
1.40001
1.40001
1.40001
1.40001
1.40001
1.40001
1.40001
1.40001
1.3317
0.545101
0.200153
0.166508
0.204525
0.29084
0.382875
0.481465
0.605387
0.740614
0.812673
0.836075
0.861878
0.900144
0.964635
1.03489
1.06325
1.05508
1.04146
1.02887
1.02539
1.02784
1.04295
1.06484
1.08103
1.0908
1.09729
1.09916
1.09739
1.36158
2.53844
2.88309
2.94266
2.98223
3.00564
3.01092
2.9975
2.97972
2.97289
2.97572
2.98054
2.97886
2.95831
2.92086
2.88434
2.85926
2.84734
2.84358
2.83178
2.79657
2.75016
2.70805
2.67592
2.66041
2.65842
2.64898
2.61553
2.57446
2.52877
2.49288
2.46626
2.45019
2.44078
2.4278
2.40322
2.36919
2.32127
2.27514
2.24516
2.22304
2.20785
2.19997
2.18677
2.16422
2.13248
2.088
2.04895
2.02473
2.00685
1.99473
1.98856
1.97626
1.95757
1.92821
1.88684
1.85455
1.83532
1.82036
1.80901
1.79909
1.78499
1.76535
1.73151
1.68466
1.6572
1.64041
1.97017
1.26588
0.879172
0.619567
0.601598
0.594699
0.553743
0.551492
0.563015
0.612105
0.673078
0.720474
0.76956
0.822021
0.890585
0.972598
1.03537
1.03665
1.03325
1.03718
1.04653
1.05704
1.07674
1.09696
1.10142
1.10235
1.10607
1.1078
1.10727
1.3093
2.52796
3.01607
3.04739
3.03078
3.0371
3.05212
3.06121
3.04234
3.01379
2.98945
2.97465
2.97596
2.98496
2.97237
2.93177
2.88875
2.85564
2.838
2.83513
2.8259
2.79411
2.7512
2.70788
2.67163
2.64389
2.6271
2.61413
2.5931
2.56471
2.53121
2.49485
2.46312
2.43676
2.41371
2.3919
2.36713
2.34036
2.31049
2.27432
2.24051
2.21563
2.19522
2.17602
2.15986
2.13654
2.10891
2.07711
2.04351
2.01715
1.99962
1.98334
1.96823
1.95287
1.93197
1.90471
1.87453
1.84725
1.82671
1.81031
1.79348
1.77633
1.75789
1.73465
1.70445
1.67555
1.64832
2.49161
1.80167
1.42343
1.15005
0.977683
0.876158
0.744737
0.683427
0.666666
0.65421
0.674296
0.729558
0.779306
0.817251
0.858522
0.917911
0.996275
1.03554
1.06292
1.09152
1.12055
1.13016
1.14064
1.15488
1.16349
1.16339
1.15808
1.139
1.13515
1.23941
2.60432
3.33586
3.26168
3.15436
3.1329
3.147
3.18041
3.20141
3.18207
3.13877
3.09119
3.05965
3.05328
3.06033
3.04734
3.00908
2.9586
2.91498
2.88558
2.8698
2.85801
2.83785
2.80592
2.76126
2.70307
2.65193
2.62169
2.60589
2.60163
2.59223
2.56784
2.53227
2.48065
2.42442
2.38803
2.36695
2.35862
2.35014
2.32957
2.30154
2.2599
2.20969
2.17427
2.15119
2.1363
2.12835
2.11272
2.09129
2.06027
2.02062
1.9889
1.96686
1.94663
1.93186
1.92025
1.90445
1.88267
1.8526
1.82102
1.79578
1.77319
1.75058
1.731
1.71815
1.70529
1.67287
2.82351
2.27709
1.85543
1.54399
1.33623
1.18021
1.04086
0.944466
0.899045
0.835361
0.788985
0.789999
0.780843
0.780389
0.790338
0.818236
0.873566
0.950803
1.00702
1.05
1.09368
1.11854
1.13792
1.16278
1.1991
1.21297
1.20889
1.1926
1.22081
1.41557
2.39605
3.56263
3.58512
3.43311
3.32017
3.28994
3.29518
3.32262
3.32728
3.29286
3.24179
3.18769
3.15699
3.14004
3.13172
3.11239
3.07923
3.0355
2.98531
2.94678
2.91919
2.8991
2.87511
2.84349
2.80398
2.75192
2.70096
2.67057
2.65116
2.6389
2.61897
2.58965
2.54904
2.49819
2.45108
2.42136
2.40306
2.38979
2.37268
2.34987
2.3176
2.26929
2.2156
2.18162
2.16461
2.15383
2.14492
2.1297
2.10737
2.069
2.01959
1.98246
1.96266
1.94982
1.94152
1.9323
1.91726
1.89475
1.85683
1.81187
1.77806
1.75658
1.7439
1.73431
1.72741
1.70077
3.02851
2.59154
2.20769
1.87771
1.65814
1.46678
1.28455
1.17878
1.09756
1.01743
0.946117
0.910901
0.869657
0.819195
0.808637
0.813474
0.820937
0.84544
0.886819
0.93613
0.995705
1.05366
1.09776
1.13498
1.18056
1.19998
1.1995
1.24061
1.48657
1.87342
2.1826
3.05845
3.59961
3.63732
3.52621
3.43523
3.39052
3.38861
3.41305
3.4058
3.37665
3.32551
3.26094
3.22397
3.20119
3.18705
3.16942
3.13813
3.09399
3.03583
2.98623
2.95436
2.92693
2.90127
2.87452
2.84321
2.80185
2.75197
2.7112
2.68207
2.65295
2.62249
2.59252
2.56475
2.53552
2.50005
2.46411
2.43605
2.40979
2.38168
2.35195
2.31988
2.28398
2.24496
2.21426
2.19649
2.18083
2.16187
2.13652
2.10231
2.06251
2.02714
2.00256
1.98639
1.97352
1.96095
1.946
1.92494
1.89023
1.84391
1.80613
1.78624
1.77329
1.76192
1.7517
1.72404
3.19368
2.8134
2.467
2.1629
1.91987
1.72332
1.53335
1.40032
1.29934
1.19692
1.11856
1.07014
1.02265
0.960291
0.915895
0.891945
0.865448
0.860187
0.859887
0.868464
0.88908
0.923937
0.97188
1.02097
1.08165
1.12489
1.17777
1.42353
1.87389
2.19147
2.22691
2.43053
3.04638
3.4768
3.60092
3.53996
3.45876
3.42529
3.42938
3.4408
3.42307
3.3869
3.32118
3.25796
3.22743
3.21044
3.20351
3.18104
3.14823
3.10015
3.03642
2.98869
2.96012
2.93889
2.92225
2.89801
2.86545
2.81666
2.75542
2.70789
2.67809
2.65559
2.63654
2.61795
2.59521
2.56198
2.51313
2.46498
2.43166
2.40598
2.38354
2.36295
2.34098
2.312
2.27233
2.23364
2.20629
2.18112
2.15347
2.12589
2.10288
2.082
2.05745
2.02944
2.00606
1.98729
1.96694
1.94144
1.91056
1.87882
1.85045
1.82579
1.80645
1.79099
1.77774
1.74569
3.3164
2.98154
2.65697
2.38725
2.14996
1.93809
1.75102
1.60794
1.48714
1.37743
1.28532
1.21736
1.15162
1.08452
1.02486
0.982491
0.945669
0.901825
0.878108
0.879961
0.894109
0.898522
0.900034
0.910444
0.940564
0.990361
1.22842
1.73596
2.04581
2.19171
2.22259
2.23574
2.41718
2.90291
3.39348
3.53924
3.48395
3.4476
3.42587
3.42994
3.41463
3.38972
3.34747
3.28299
3.2369
3.21268
3.20257
3.18804
3.1607
3.12695
3.07679
3.01653
2.97736
2.95336
2.93508
2.91006
2.88203
2.84559
2.79238
2.73399
2.6978
2.67542
2.65782
2.6396
2.61745
2.58862
2.54464
2.48818
2.44631
2.4241
2.40602
2.39091
2.37403
2.35282
2.31774
2.26196
2.21347
2.18404
2.16338
2.14788
2.13485
2.121
2.10166
2.07033
2.03032
1.99859
1.97294
1.94859
1.92755
1.91014
1.89162
1.868
1.84137
1.81717
1.79716
1.75929
3.41147
3.10763
2.81373
2.56996
2.3405
2.11316
1.94184
1.79817
1.66282
1.53505
1.44406
1.36164
1.28402
1.21723
1.1563
1.10276
1.06407
1.01929
0.964949
0.944105
0.942613
0.928465
0.908696
0.90331
0.917614
1.08878
1.52391
1.85182
1.95773
2.00965
2.05828
2.09921
2.1636
2.34221
2.76135
3.25995
3.45177
3.46845
3.43412
3.40612
3.38805
3.36685
3.341
3.30787
3.2632
3.22178
3.19398
3.17095
3.15107
3.12393
3.09292
3.05012
2.9938
2.94786
2.91806
2.89791
2.87947
2.85436
2.82338
2.77862
2.72193
2.68001
2.65518
2.63598
2.61641
2.5945
2.5679
2.53009
2.47986
2.44437
2.42599
2.41026
2.38998
2.36509
2.33074
2.28099
2.22651
2.193
2.17737
2.16857
2.16309
2.14881
2.12783
2.09458
2.04808
2.00239
1.97333
1.95596
1.94335
1.93132
1.91734
1.89888
1.87131
1.83573
1.80375
1.76351
3.48439
3.20908
2.94419
2.71665
2.49541
2.27612
2.11256
1.95934
1.81403
1.68352
1.59509
1.50231
1.40843
1.33482
1.27715
1.21142
1.16069
1.13011
1.09334
1.03538
0.986012
0.956713
0.932915
0.948292
1.08714
1.4366
1.79732
1.823
1.81888
1.82179
1.84956
1.91108
1.96545
2.01527
2.14812
2.51942
3.04115
3.34898
3.43086
3.40752
3.35169
3.32682
3.31972
3.31741
3.29875
3.25596
3.19252
3.144
3.11678
3.10081
3.08945
3.06392
3.02247
2.96032
2.91081
2.88374
2.86363
2.85242
2.83217
2.80266
2.75533
2.69445
2.65195
2.62614
2.60603
2.59207
2.57636
2.55555
2.52283
2.47142
2.42305
2.38994
2.36756
2.34459
2.31907
2.29276
2.26235
2.22714
2.19468
2.17267
2.1541
2.13507
2.11501
2.09119
2.05736
2.01858
1.99042
1.97475
1.96411
1.95448
1.94243
1.9184
1.87582
1.82869
1.80098
1.77287
3.54618
3.29725
3.05427
2.84311
2.62624
2.41999
2.25985
2.111
1.95258
1.82574
1.72777
1.63133
1.53087
1.45195
1.39772
1.33304
1.24813
1.21434
1.19857
1.15638
1.08237
1.03524
1.04312
1.17059
1.48612
1.81686
1.90126
1.87782
1.84593
1.83228
1.82048
1.81777
1.8226
1.83041
1.85488
1.93252
2.21458
2.70887
3.19318
3.34665
3.31749
3.30364
3.29349
3.31602
3.31178
3.27831
3.20969
3.13199
3.09686
3.07607
3.07196
3.06308
3.03629
2.98894
2.92
2.87546
2.8518
2.83653
2.82512
2.80291
2.77177
2.72196
2.66122
2.6234
2.60358
2.59393
2.58472
2.56569
2.53797
2.49122
2.43039
2.3821
2.34952
2.32814
2.31248
2.30022
2.2833
2.25877
2.21996
2.17712
2.14529
2.12171
2.09948
2.07491
2.0535
2.0375
2.022
2.00271
1.98026
1.95811
1.93366
1.90427
1.86388
1.82039
1.80305
1.7854
3.59902
3.37368
3.14919
2.94649
2.74182
2.54982
2.39026
2.23945
2.07659
1.95779
1.85425
1.75781
1.64989
1.55583
1.49812
1.44691
1.37949
1.3019
1.26456
1.22694
1.17755
1.18027
1.30471
1.62734
1.91955
2.00866
1.97559
1.93952
1.92264
1.90716
1.88618
1.85071
1.82804
1.82089
1.81648
1.82003
1.84305
1.96072
2.32901
2.85458
3.18514
3.23777
3.27246
3.30916
3.30817
3.27822
3.22947
3.14524
3.08862
3.06382
3.0561
3.05931
3.03966
3.00839
2.95208
2.88428
2.84668
2.8232
2.80396
2.78995
2.76944
2.74154
2.6987
2.64642
2.60549
2.57993
2.55975
2.54008
2.51887
2.49164
2.44838
2.39301
2.34941
2.32551
2.30894
2.29645
2.28709
2.26832
2.23545
2.18792
2.14195
2.10985
2.08723
2.07234
2.06393
2.05788
2.04566
2.02488
1.99189
1.95406
1.92016
1.88916
1.85478
1.82524
1.81486
1.79863
3.65273
3.44035
3.23629
3.04183
2.84384
2.66302
2.50756
2.35453
2.20193
2.08323
1.97001
1.86036
1.7668
1.68497
1.59499
1.52956
1.47833
1.41277
1.34865
1.29501
1.31311
1.47469
1.84818
2.12265
2.15755
2.11049
2.06372
2.04542
2.03065
2.00777
1.97922
1.93905
1.89036
1.85528
1.837
1.82552
1.82459
1.82677
1.85382
2.03387
2.45814
2.92253
3.15556
3.24591
3.29567
3.27882
3.23676
3.17752
3.10483
3.07183
3.05322
3.049
3.0365
3.01281
2.97817
2.91862
2.85374
2.81725
2.79516
2.77701
2.76312
2.74482
2.72042
2.67989
2.62188
2.57479
2.54519
2.52206
2.49893
2.47588
2.45207
2.41847
2.37263
2.33206
2.3074
2.2896
2.27057
2.25073
2.22987
2.19726
2.15334
2.11609
2.09445
2.08082
2.06791
2.05278
2.03343
2.01065
1.98004
1.94289
1.90973
1.87943
1.85899
1.84541
1.83286
1.81191
3.70341
3.49913
3.31105
3.12406
2.93271
2.76759
2.61518
2.45681
2.31306
2.19878
2.08601
1.96219
1.8628
1.7931
1.70737
1.61643
1.55793
1.49989
1.43562
1.45284
1.63715
2.0207
2.32421
2.34315
2.29277
2.2176
2.16967
2.15155
2.13034
2.10309
2.07454
2.03876
1.98169
1.93247
1.90216
1.87752
1.85688
1.84016
1.8326
1.82665
1.87209
2.11349
2.57033
2.96218
3.19265
3.23851
3.23704
3.20142
3.15004
3.10084
3.06704
3.04799
3.02963
3.00744
2.98274
2.94599
2.88738
2.8282
2.79642
2.77564
2.7579
2.7425
2.72267
2.69464
2.64693
2.58363
2.53755
2.50961
2.48715
2.4677
2.44912
2.42865
2.39787
2.35235
2.30803
2.27895
2.25681
2.23577
2.21401
2.19291
2.16961
2.14053
2.11099
2.08838
2.06989
2.05024
2.02671
1.99686
1.96163
1.92778
1.90177
1.88801
1.88096
1.87129
1.85708
1.82171
3.74853
3.55965
3.38026
3.1987
3.02179
2.86561
2.71247
2.55339
2.42114
2.30215
2.18665
2.06277
1.96673
1.88811
1.80667
1.70967
1.63494
1.58239
1.61855
1.83782
2.20096
2.49149
2.51671
2.47431
2.42043
2.34827
2.28413
2.25125
2.2269
2.2002
2.17215
2.14175
2.10061
2.04056
1.98232
1.94492
1.91797
1.89224
1.86277
1.84087
1.82773
1.82104
1.89226
2.18178
2.6454
3.01005
3.14669
3.20918
3.20304
3.14864
3.09187
3.05048
3.02465
3.00305
2.97888
2.95234
2.9163
2.86263
2.81092
2.78256
2.76129
2.73907
2.71519
2.68986
2.6572
2.60414
2.54801
2.51391
2.49009
2.46733
2.44559
2.42543
2.4046
2.36954
2.31929
2.27717
2.24973
2.22774
2.209
2.19353
2.17833
2.15691
2.12385
2.09058
2.06605
2.04411
2.01955
1.98873
1.95009
1.9206
1.91094
1.91142
1.90816
1.89531
1.87809
1.82704
3.80468
3.62657
3.45162
3.27295
3.1088
2.95638
2.8015
2.64713
2.52125
2.39932
2.27766
2.16233
2.0716
1.97614
1.88431
1.80127
1.73886
1.80595
2.1209
2.46902
2.6558
2.67235
2.61032
2.57165
2.53968
2.48988
2.41334
2.3505
2.32012
2.29364
2.26256
2.22901
2.19162
2.14382
2.08458
2.03284
1.99693
1.96756
1.93837
1.90798
1.87268
1.83845
1.80945
1.81468
1.92485
2.27509
2.68966
3.04789
3.13861
3.15779
3.13093
3.0639
3.02265
3.00088
2.9769
2.95473
2.92937
2.89018
2.83702
2.79748
2.76909
2.74193
2.714
2.68513
2.65252
2.61232
2.56696
2.53156
2.50425
2.47812
2.45191
2.42487
2.39574
2.36432
2.32597
2.2844
2.25523
2.23562
2.21847
2.20084
2.18053
2.15541
2.1227
2.08697
2.05816
2.03558
2.0128
1.98494
1.95969
1.94224
1.92202
1.90222
1.89099
1.88137
1.86744
1.8223
3.86344
3.69056
3.51655
3.34632
3.1913
3.03912
2.8821
2.73893
2.61512
2.49329
2.36399
2.2567
2.16511
2.06095
1.96801
1.91368
2.01986
2.3921
2.84066
2.91836
2.85082
2.76891
2.71575
2.69592
2.66944
2.62275
2.55634
2.47346
2.41581
2.38141
2.3491
2.31411
2.27626
2.23239
2.17792
2.12043
2.073
2.036
2.00498
1.97607
1.94451
1.90446
1.85522
1.80082
1.79522
1.81951
1.97777
2.36473
2.76361
3.02
3.087
3.07568
3.04025
3.00737
2.98305
2.96393
2.93964
2.90544
2.85366
2.80641
2.77533
2.75029
2.72384
2.69257
2.65519
2.61241
2.57142
2.54006
2.51571
2.49266
2.46722
2.43668
2.40148
2.36241
2.32127
2.28702
2.26406
2.2472
2.23083
2.21264
2.1908
2.1622
2.12311
2.07917
2.04767
2.02537
2.00601
1.99186
1.98212
1.96787
1.94087
1.90592
1.87929
1.8629
1.84715
1.81258
3.93646
3.76484
3.5909
3.42742
3.27282
3.11932
2.96482
2.83322
2.70633
2.58249
2.4507
2.3507
2.24253
2.15024
2.12458
2.28799
2.66053
3.0425
3.15629
3.09513
2.98892
2.89658
2.84516
2.81602
2.78298
2.73307
2.67632
2.60806
2.53435
2.47681
2.43291
2.39346
2.35397
2.31196
2.26402
2.20844
2.15365
2.11091
2.07638
2.04354
2.01058
1.97446
1.92891
1.87612
1.82574
1.79647
1.79898
1.83544
2.03953
2.40266
2.75219
2.97362
2.99156
2.99729
3.00691
2.98457
2.95949
2.92209
2.86663
2.80861
2.77579
2.75567
2.73508
2.71112
2.67881
2.63135
2.57389
2.53345
2.51243
2.49546
2.47739
2.4556
2.42585
2.38353
2.33093
2.28753
2.26621
2.25191
2.23657
2.21917
2.19825
2.17067
2.12967
2.0778
2.04097
2.02505
2.0177
2.01608
2.00572
1.98642
1.95669
1.91453
1.87269
1.8418
1.82398
1.79899
3.99741
3.82552
3.65766
3.50312
3.34927
3.19125
3.04843
2.92169
2.79591
2.66292
2.53494
2.43404
2.33086
2.37231
2.63983
3.05531
3.26486
3.37005
3.32864
3.24751
3.16386
3.06761
2.97082
2.91438
2.87687
2.83482
2.78573
2.72922
2.65773
2.58203
2.52343
2.47761
2.43501
2.39221
2.34632
2.29524
2.23982
2.18768
2.14456
2.10791
2.0721
2.03552
1.99496
1.94844
1.89586
1.84806
1.80729
1.7968
1.79802
1.84566
2.04724
2.40118
2.72284
2.89317
2.96067
2.98577
2.97885
2.94055
2.89372
2.83417
2.78017
2.75461
2.73704
2.71876
2.69358
2.65605
2.60025
2.5418
2.50875
2.49019
2.4751
2.46083
2.44311
2.41446
2.36838
2.31211
2.26651
2.23969
2.22138
2.20516
2.18945
2.17093
2.14237
2.10541
2.06835
2.03881
2.01945
2.00334
1.98868
1.9767
1.9593
1.92424
1.87645
1.83541
1.81468
1.80136
4.05994
3.89519
3.73496
3.5825
3.42981
3.27395
3.14133
3.00746
2.87938
2.73359
2.63117
2.5447
2.64562
3.02573
3.51201
3.59238
3.52895
3.47902
3.43132
3.38318
3.31678
3.22506
3.10773
3.02078
2.97503
2.9384
2.89107
2.83584
2.77177
2.69553
2.62016
2.56212
2.51424
2.4688
2.42229
2.37369
2.32178
2.2672
2.2141
2.16748
2.12822
2.09272
2.05841
2.02224
1.97982
1.92717
1.8707
1.82398
1.78696
1.78588
1.78841
1.84655
2.05454
2.39469
2.68933
2.87388
2.92899
2.94485
2.92713
2.87465
2.8187
2.76522
2.72614
2.70336
2.68467
2.66215
2.62641
2.57366
2.52121
2.49204
2.47592
2.461
2.44514
2.42502
2.39429
2.34314
2.27886
2.23727
2.21601
2.19864
2.18027
2.16102
2.14587
2.13164
2.10778
2.0665
2.0258
1.99897
1.97866
1.958
1.9361
1.91452
1.88517
1.85474
1.82972
1.80431
4.13512
3.97145
3.81781
3.66653
3.51011
3.36406
3.22462
3.09378
2.9484
2.83081
2.79501
2.99635
3.42359
3.8367
4.01086
3.90987
3.72266
3.57728
3.5188
3.49676
3.44862
3.36951
3.26535
3.15733
3.09042
3.04096
2.98995
2.93318
2.87265
2.80525
2.72894
2.65479
2.59333
2.54188
2.49433
2.44785
2.39977
2.34793
2.2924
2.23748
2.18861
2.14697
2.11141
2.07726
2.04098
1.99734
1.94655
1.89224
1.8406
1.79943
1.76842
1.76082
1.76769
1.84181
2.0563
2.39408
2.64175
2.82726
2.8789
2.88404
2.86559
2.802
2.73319
2.6946
2.67766
2.65812
2.6342
2.60441
2.55983
2.50847
2.47895
2.45948
2.44005
2.41997
2.39588
2.35836
2.3074
2.25771
2.22383
2.20017
2.17982
2.16484
2.15499
2.14368
2.12405
2.08846
2.04046
1.99973
1.9687
1.94347
1.92167
1.90177
1.88709
1.87414
1.85147
1.81397
4.20799
4.04449
3.89447
3.74217
3.58515
3.44869
3.30018
3.17495
3.04495
3.1124
3.45296
3.92873
4.13066
4.19159
4.14804
4.03101
3.88574
3.74042
3.67016
3.63471
3.58426
3.51055
3.418
3.30743
3.21307
3.1458
3.08754
3.02806
2.96762
2.90445
2.83259
2.75346
2.68033
2.61982
2.56785
2.51966
2.47087
2.41839
2.3618
2.30474
2.25229
2.2052
2.16203
2.12069
2.08038
2.04018
1.99809
1.95251
1.90422
1.85603
1.81116
1.77113
1.74642
1.73965
1.74887
1.82919
2.05313
2.37342
2.62118
2.76903
2.81338
2.80079
2.75688
2.70295
2.67862
2.66105
2.64565
2.62575
2.5874
2.52883
2.48999
2.46469
2.4407
2.41597
2.39067
2.3656
2.32947
2.2774
2.23919
2.21935
2.20407
2.18651
2.16426
2.14066
2.12291
2.09955
2.05815
2.00702
1.9646
1.93569
1.917
1.90616
1.89797
1.88509
1.87156
1.83677
4.24777
4.12943
3.97469
3.80611
3.66822
3.51865
3.39594
3.32357
3.50968
3.98295
4.47486
4.56747
4.49095
4.36522
4.22596
4.13959
4.04812
3.93485
3.84878
3.78634
3.71919
3.63966
3.54845
3.44053
3.34096
3.26501
3.19897
3.13366
3.06699
2.99804
2.92365
2.84434
2.77005
2.70685
2.6516
2.59933
2.54542
2.48623
2.42215
2.36007
2.30676
2.26104
2.21755
2.17356
2.12827
2.08191
2.03408
1.98798
1.94021
1.89397
1.85391
1.81626
1.78168
1.7485
1.72888
1.7043
1.7147
1.79869
2.04714
2.34144
2.61498
2.69813
2.70447
2.71508
2.69877
2.67159
2.63676
2.5894
2.54976
2.52683
2.49892
2.46618
2.43913
2.41753
2.39525
2.36177
2.3108
2.27614
2.26428
2.25211
2.23273
2.20553
2.176
2.14373
2.10706
2.0714
2.0404
2.00361
1.96743
1.94439
1.9302
1.92187
1.91295
1.90423
1.89062
1.9238
4.09618
4.19442
4.06794
3.88437
3.74715
3.60746
3.68896
4.05059
4.55614
4.88592
4.94123
4.80033
4.64717
4.5202
4.40086
4.32067
4.23583
4.12076
4.01486
3.93405
3.85545
3.76805
3.67248
3.56874
3.46918
3.38859
3.31843
3.24875
3.17602
3.09806
3.01334
2.92638
2.84845
2.78322
2.72567
2.6707
2.61405
2.55147
2.48096
2.40815
2.34551
2.29782
2.25678
2.21591
2.17338
2.12892
2.07846
2.02306
1.97041
1.92354
1.87812
1.83807
1.80246
1.77057
1.74134
1.7082
1.68382
1.65155
1.6704
1.77322
2.03173
2.31748
2.54198
2.65307
2.68111
2.67821
2.64972
2.59166
2.53585
2.49517
2.46792
2.45691
2.44776
2.43053
2.40423
2.36233
2.31847
2.28581
2.25449
2.23052
2.21878
2.2084
2.18738
2.15252
2.10464
2.05855
2.02436
2.00606
1.9878
1.97063
1.95375
1.94652
1.94106
1.9627
2.01744
2.22982
3.24409
4.14077
4.1028
3.96443
3.87281
4.12195
4.75963
5.21843
5.26932
5.25292
5.13726
4.96248
4.80665
4.70991
4.61772
4.51476
4.41047
4.28632
4.16669
4.0794
3.996
3.90456
3.80367
3.6967
3.59555
3.50694
3.4272
3.34992
3.27079
3.18762
3.09916
3.00775
2.92187
2.84822
2.78491
2.72666
2.66907
2.60797
2.53926
2.46345
2.38709
2.32394
2.27871
2.24158
2.20207
2.16015
2.11829
2.06829
2.00615
1.94888
1.90891
1.874
1.83846
1.79856
1.75364
1.71517
1.67761
1.63684
1.60702
1.58779
1.62118
1.76634
2.03252
2.29806
2.48431
2.59859
2.59947
2.58142
2.53956
2.49013
2.46179
2.44177
2.42064
2.39751
2.37162
2.35323
2.3318
2.2987
2.25815
2.23109
2.20774
2.17977
2.1533
2.1267
2.09616
2.05988
2.02816
2.00524
1.99359
1.98642
1.97829
1.9966
2.06617
2.22915
2.4137
2.6405
1.93815
3.57554
4.01119
4.15677
4.69074
5.4187
5.86347
5.77644
5.5465
5.41288
5.28699
5.14096
4.98906
4.87962
4.79674
4.68855
4.57634
4.45713
4.3317
4.23247
4.14278
4.0471
3.94427
3.83109
3.71437
3.60964
3.51788
3.43143
3.34588
3.25934
3.16959
3.07614
2.98461
2.90335
2.83391
2.77168
2.71282
2.65363
2.5881
2.5143
2.43652
2.36259
2.29765
2.24799
2.21331
2.1778
2.12692
2.07446
2.02721
1.97592
1.91577
1.86174
1.82257
1.79217
1.76654
1.7311
1.68244
1.63435
1.59454
1.56632
1.54585
1.53897
1.58169
1.76029
2.01566
2.29763
2.40273
2.4748
2.48538
2.47615
2.44561
2.41247
2.3881
2.36835
2.34672
2.32058
2.29475
2.27249
2.25375
2.22685
2.19381
2.1605
2.1273
2.09366
2.06083
2.03587
2.01853
2.00749
2.00643
2.03372
2.1176
2.28391
2.49064
2.7129
2.77946
2.82043
1.44162
2.24629
3.39104
5.27435
6.1965
6.21157
6.16101
5.94868
5.71438
5.56831
5.46081
5.32095
5.15548
5.01441
4.92669
4.82643
4.7153
4.60324
4.47876
4.36173
4.26078
4.15687
4.04727
3.9304
3.80903
3.69437
3.59222
3.49857
3.40773
3.31638
3.22223
3.12542
3.03086
2.94552
2.87122
2.80304
2.73647
2.66861
2.59802
2.52486
2.45114
2.38273
2.32201
2.26547
2.21287
2.18183
2.15433
2.1088
2.05092
1.98785
1.92377
1.872
1.83122
1.789
1.74558
1.70807
1.67372
1.6396
1.59903
1.56034
1.52774
1.50566
1.4822
1.49279
1.56196
1.74569
2.00235
2.23169
2.34951
2.37004
2.37693
2.36619
2.3448
2.32022
2.2888
2.25943
2.24278
2.23293
2.21681
2.189
2.15576
2.12407
2.09471
2.0696
2.05351
2.03551
2.02582
2.05221
2.14979
2.3521
2.58496
2.79107
2.89612
2.90084
2.90107
2.89643
1.40075
1.49036
2.93437
6.39149
6.67147
6.27605
6.07838
5.91956
5.75101
5.62856
5.52548
5.41823
5.27743
5.13405
5.04317
4.95327
4.84831
4.73761
4.61361
4.48389
4.36973
4.26122
4.14454
4.0203
3.89345
3.77341
3.66585
3.56772
3.47303
3.37789
3.28004
3.1799
3.08214
2.99268
2.91329
2.84044
2.77062
2.70173
2.6317
2.55942
2.48539
2.41441
2.34995
2.29162
2.23677
2.18153
2.12305
2.06151
2.00136
1.9631
1.93649
1.89694
1.84696
1.79106
1.73975
1.6948
1.6548
1.62041
1.5868
1.55606
1.52511
1.49754
1.47284
1.45388
1.43772
1.45497
1.54327
1.7346
1.97696
2.17587
2.30517
2.32739
2.32212
2.29694
2.26065
2.23106
2.20491
2.18144
2.15813
2.13132
2.1056
2.08584
2.07439
2.06764
2.05418
2.07384
2.16564
2.37612
2.61953
2.84816
2.96143
2.9884
2.96872
2.93642
2.93057
2.9273
1.40001
1.40272
3.11043
5.99728
6.12844
5.87556
5.75634
5.68748
5.61451
5.54926
5.48136
5.4097
5.28508
5.14146
5.03821
4.9404
4.8241
4.70432
4.58417
4.45744
4.33678
4.21877
4.09297
3.96083
3.82993
3.70714
3.59613
3.49526
3.39916
3.30353
3.20611
3.10763
3.01198
2.92308
2.84267
2.76814
2.69779
2.62934
2.56016
2.48952
2.41887
2.35269
2.29401
2.24528
2.20003
2.1474
2.08732
2.03387
1.99063
1.94779
1.9012
1.85409
1.80767
1.76399
1.72326
1.68309
1.64683
1.61833
1.59357
1.56935
1.54271
1.51567
1.48672
1.44806
1.41624
1.39766
1.38941
1.41532
1.53395
1.75392
1.98845
2.13797
2.23477
2.24028
2.23679
2.22589
2.19572
2.14933
2.11193
2.08552
2.07429
2.0673
2.07145
2.09647
2.18399
2.38644
2.62998
2.81965
2.9707
3.04792
3.05888
3.0484
3.00664
2.94605
2.91887
2.89367
1.40001
1.40006
3.38
5.52625
5.67461
5.57442
5.5405
5.50668
5.45975
5.40785
5.34449
5.25538
5.13308
5.0158
4.91336
4.83043
4.73915
4.62094
4.50629
4.39507
4.27276
4.14748
4.01782
3.88555
3.75758
3.63764
3.52688
3.42502
3.32938
3.23685
3.14516
3.05457
2.96736
2.8843
2.80513
2.72792
2.65378
2.58282
2.51295
2.44416
2.3796
2.32523
2.27742
2.23012
2.17702
2.11576
2.05445
2.00145
1.95747
1.91692
1.87968
1.84156
1.79779