/*--------------------------------*- C++ -*----------------------------------*\
  =========                 |
  \\      /  F ield         | OpenFOAM: The Open Source CFD Toolbox
   \\    /   O peration     | Website:  https://openfoam.org
    \\  /    A nd           | Version:  7
     \\/     M anipulation  |
\*---------------------------------------------------------------------------*/
FoamFile
{
    version     2.0;
    format      ascii;
    class       volScalarField;
    location    "3.5";
    object      T;
}
// * * * * * * * * * * * * * * * * * * * * * * * * * * * * * * * * * * * * * //

dimensions      [0 0 0 1 0 0 0];

internalField   nonuniform List<scalar> 
4032
(
1
1
1
1
1
1
1
1
1
1
1
1.10224
2.36741
2.72108
2.72902
2.7423
2.75529
2.76859
2.78151
2.79307
2.80278
2.81016
2.81563
2.81936
1
1
1
1
1
1
1
1
1
1
1
1.08473
2.35222
2.71965
2.72806
2.74092
2.75376
2.76683
2.77949
2.79073
2.80001
2.80685
2.81166
2.81491
1
1
1
1
1
1
1
1
1
1
1
1.01489
2.30358
2.71392
2.72393
2.73711
2.7499
2.76257
2.77479
2.78565
2.79479
2.80178
2.80682
2.81066
1
1
1
1
1
1
1
1
1
1
1
1.00026
2.23941
2.70362
2.71732
2.73105
2.74398
2.75621
2.76797
2.7785
2.78733
2.79378
2.79792
2.80072
1
1
1
1
1
1
1
1
1
1
1
1
2.15014
2.69006
2.71069
2.724
2.73676
2.74817
2.75879
2.76792
2.7752
2.78042
2.7835
2.78724
1
1
1
1
1
1
1
1
1
1
1
1
2.02529
2.66626
2.70073
2.71377
2.72619
2.73677
2.74639
2.75473
2.76129
2.76509
2.76434
2.75967
1
1
1
1
1
1
1
1
1
1
1
1
1.85656
2.62047
2.68328
2.69946
2.71304
2.7233
2.73136
2.73718
2.73934
2.73607
2.72871
2.72244
1
1
1
1
1
1
1
1
1
1
1
1
1.62112
2.53484
2.65429
2.67856
2.69465
2.70576
2.71298
2.71589
2.71371
2.70871
2.70401
2.71537
1
1
1
1
1
1
1
1
1
1
1
1
1.29186
2.40363
2.62806
2.65075
2.66916
2.68204
2.68814
2.68882
2.682
2.66449
2.61372
2.51321
1
1
1
1
1
1
1
1
1
1
1
1
1.02512
2.2774
2.62555
2.62238
2.63406
2.64812
2.65495
2.65383
2.64324
2.61258
2.55713
2.3936
1
1
1
1
1
1
1
1
1
1
1
1
1.00011
2.07217
2.59236
2.60499
2.61299
2.61756
2.61945
2.61521
2.60151
2.56535
2.50286
2.32135
1
1
1
1
1
1
1
1
1
1
1
1
0.999999
1.71695
2.50319
2.58722
2.59266
2.594
2.59018
2.57985
2.56017
2.52289
2.45173
2.29457
1
1
1
1
1
1
1
1
1
1
1
1
1
1.23983
2.34753
2.57536
2.57026
2.56789
2.56097
2.5456
2.52032
2.48244
2.40829
2.28805
1
1
1
1
1
1
1
1
1
1
1
1
1
1.01542
2.17014
2.52247
2.53684
2.53784
2.53114
2.51481
2.48797
2.44489
2.3757
2.28457
1
1
1
1
1
1
1
1
1
1
1
1
1
1.00001
1.75946
2.42826
2.51611
2.51424
2.50589
2.48747
2.45994
2.41461
2.35335
2.27846
1
1
1
1
1
1
1
1
1
1
1
1
1
0.999996
1.16402
2.26373
2.50157
2.48639
2.47539
2.45645
2.43095
2.38989
2.33775
2.27368
1
1
1
1
1
1
1
1
1
1
1
1
1
0.999999
1.00652
2.04532
2.4429
2.44215
2.43701
2.42407
2.40284
2.36902
2.32453
2.26883
1
1
1
1
1
1
1
1
1
1
1
1
1
1
0.999983
1.51035
2.31157
2.42116
2.40901
2.39574
2.37656
2.34809
2.31044
2.26335
1
1
1
1
1
1
1
1
1
1
1
1
1
1
0.999994
1.06593
2.09696
2.39017
2.37711
2.36678
2.34946
2.32497
2.29324
2.25434
1
1
1
1
1
1
1
1
1
1
1
1
1
1
0.999999
1.00082
1.59676
2.25513
2.35454
2.34007
2.32299
2.30174
2.27508
2.24284
1
1
1
1
1
1
1
1
1
1
1
1
1
1
1
1
1.10002
2.0428
2.32663
2.31418
2.30121
2.28158
2.25709
2.22843
1
1
1
1
1
1
1
1
1
1
1
1
1
1
1
1
1.00207
1.51029
2.16965
2.29081
2.2738
2.25606
2.23492
2.20994
1
1
1
1
1
1
1
1
1
1
1
1
1
1
1
1
1.00001
1.07362
1.94506
2.2644
2.2471
2.23115
2.21271
2.19136
1
1
1
1
1
1
1
1
1
1
1
1
1
1
1
1
1
1.0012
1.39421
2.08743
2.22429
2.20473
2.1888
2.17051
1
1
1
1
1
1
1
1
1
1
1
1
1
1
1
1
1
1
1.03928
1.76297
2.18162
2.18108
2.16839
2.15252
1
1
1
1
1
1
1
1
1
1
1
1
1
1
1
1
1
1
1.00046
1.22314
1.97346
2.16364
2.1466
2.13029
1
1
1
1
1
1
1
1
1
1
1
1
1
1
1
1
1
1
1
1.0115
1.5081
2.03751
2.13187
2.11247
1
1
1
1
1
1
1
1
1
1
1
1
1
1
1
1
1
1
1
1.00009
1.07706
1.75116
2.08121
2.10042
1
1
1
1
1
1
1
1
1
1
1
1
1
1
1
1
1
1
1
1
1.00164
1.23942
1.87541
2.07557
1
1
1
1
1
1
1
1
1
1
1
1
1
1
1
1
1
1
1
1
1.00001
1.01402
1.42439
1.93531
1
1
1
1
1
1
1
1
1
1
1
1
1
1
1
1
1
1
1
1
1
1.00014
1.05429
1.59134
1
1
1
1
1
1
1
1
1
1
1
1
1
1
1
1
1
1
1
1
1
1
1.00107
1.13524
1
1
1
1
1
1
1
1
1
1
1
1
1
1
1
1
1
1
1
1
1
1
1.00001
1.005
1
1
1
1
1
1
1
1
1
1
1
1
1
1
1
1
1
1
1
1
1
1
1
1.00004
1
1
1
1
1
1
1
1
1
1
1
1
1
1
1
1
1
1
1
1
1
1
1
1
1
1
1
1
1
1
1
1
1
1
1
1
1
1
1
1
1
1
1
1
1
1
1
1
1
1
1
1
1
1
1
1
1
1
1
1
1
1
1
1
1
1
1
1
1
1
1
1
1
1
1
1
1
1
1
1
1
1
1
1
1
1
1
1
1
1
1
1
1
1
1
1
1
1
1
1
1
1
1
1
1
1
1
1
1
1
1
1
1
1
1
1
1
1
1
1
1
1
1
1
1
1
1
1
1
1
1
1
1
1
1
1
1
1
1
1
1
1
1
1
1.69101
1.21659
0.95292
0.948928
1.08884
1.24219
1.35801
1.46293
1.55701
1.60346
1.60943
1.62509
1.68539
1.75149
1.75573
1.73722
1.71778
1.71556
1.72692
1.73615
1.73148
1.71257
1.70213
1.7024
1.70639
1.70989
1.71043
1.70805
1.69996
1.97522
2.69449
2.83646
2.8319
2.82846
2.81975
2.80247
2.77656
2.75091
2.73019
2.71501
2.70236
2.68753
2.66615
2.63963
2.61397
2.59311
2.57853
2.56866
2.55634
2.53661
2.51396
2.49295
2.47542
2.46392
2.45777
2.44744
2.42835
2.4068
2.38373
2.3648
2.35
2.34035
2.33464
2.32776
2.31619
2.30091
2.27967
2.25866
2.24342
2.23078
2.22112
2.21501
2.20684
2.19591
2.1822
2.1639
2.14793
2.13747
2.12897
2.1223
2.11756
2.1091
2.09752
2.08144
2.06083
2.0447
2.03519
2.02877
2.02514
2.02271
2.01849
2.01169
1.99768
1.97601
1.96075
1.94483
1.91421
1.6592
1.52398
1.32681
1.28703
1.28598
1.28487
1.30048
1.30857
1.32718
1.359
1.40615
1.47437
1.53742
1.57725
1.59616
1.60896
1.61973
1.6385
1.66398
1.66831
1.66284
1.66084
1.66484
1.66825
1.66833
1.66927
1.66831
1.66513
1.86246
2.60652
2.8183
2.80842
2.78511
2.76751
2.75325
2.73829
2.71602
2.69271
2.67051
2.65147
2.63925
2.6307
2.61452
2.59046
2.56689
2.54693
2.53266
2.52454
2.51478
2.49813
2.47819
2.45812
2.4403
2.4249
2.41355
2.40441
2.39235
2.37679
2.35928
2.34154
2.32625
2.31323
2.30213
2.29293
2.28281
2.27106
2.25697
2.24009
2.22416
2.2115
2.20063
2.19134
2.18386
2.17384
2.16221
2.1488
2.13469
2.12319
2.11452
2.10589
2.09732
2.08805
2.07608
2.06143
2.0461
2.03327
2.02439
2.01828
2.01299
2.00804
2.00204
1.99274
1.97856
1.96353
1.94452
2.0345
1.82669
1.69537
1.55932
1.46342
1.4078
1.33503
1.28898
1.26276
1.23431
1.24599
1.29073
1.32896
1.35927
1.39043
1.42682
1.46703
1.49296
1.52067
1.55102
1.57632
1.58541
1.59295
1.60326
1.60785
1.60747
1.60409
1.59693
1.59754
1.66835
2.42979
2.73921
2.70654
2.66346
2.63557
2.62473
2.62285
2.62204
2.60962
2.58903
2.56548
2.54653
2.53693
2.53306
2.52287
2.50622
2.48607
2.46721
2.45313
2.4444
2.43742
2.42771
2.41424
2.3965
2.37406
2.35519
2.34385
2.33681
2.33301
2.32672
2.31508
2.29961
2.27823
2.25594
2.24199
2.23411
2.23098
2.22738
2.21911
2.20834
2.19216
2.17214
2.15794
2.14859
2.14246
2.13892
2.13198
2.123
2.11046
2.09417
2.08043
2.07063
2.06108
2.05309
2.04587
2.03702
2.02642
2.01336
2.00069
1.99168
1.98482
1.97812
1.97179
1.96675
1.9608
1.94328
2.10355
1.95082
1.81444
1.69366
1.60876
1.53597
1.46047
1.40147
1.36923
1.32457
1.29109
1.28714
1.28038
1.28232
1.29123
1.3087
1.34145
1.38555
1.41706
1.44089
1.46702
1.48839
1.50717
1.5261
1.54485
1.55243
1.55013
1.54672
1.56589
1.67895
2.13681
2.54612
2.60181
2.55244
2.50835
2.48714
2.48329
2.48716
2.48754
2.47698
2.46145
2.44307
2.43043
2.42202
2.41671
2.40907
2.3988
2.38574
2.37022
2.35771
2.34847
2.34133
2.33275
2.32227
2.31081
2.29612
2.28104
2.27201
2.26651
2.26277
2.25527
2.24366
2.22847
2.20999
2.19219
2.18113
2.17546
2.17269
2.16904
2.1633
2.15412
2.13877
2.11971
2.10709
2.1006
2.09642
2.09304
2.08729
2.07908
2.06524
2.04675
2.03241
2.02466
2.01917
2.01508
2.01035
2.00296
1.99317
1.97818
1.96111
1.9498
1.94459
1.94298
1.94223
1.94162
1.93095
2.14834
2.02749
1.90911
1.79556
1.71927
1.64394
1.55842
1.50486
1.46144
1.41654
1.375
1.35214
1.32735
1.29595
1.28681
1.28956
1.29378
1.30851
1.33105
1.3566
1.38724
1.41971
1.44537
1.46667
1.48994
1.5003
1.50069
1.52409
1.65706
1.83674
1.95766
2.26288
2.43746
2.46624
2.43743
2.409
2.39172
2.38983
2.39716
2.39704
2.39187
2.37851
2.3584
2.34548
2.33728
2.33233
2.32736
2.3195
2.30809
2.292
2.27776
2.26865
2.26075
2.25363
2.24668
2.239
2.22889
2.21606
2.20546
2.19783
2.18908
2.17881
2.16799
2.15763
2.14713
2.13515
2.12401
2.11666
2.11064
2.10451
2.09797
2.09023
2.08058
2.06855
2.05815
2.05184
2.04616
2.03963
2.03117
2.01974
2.00662
1.9951
1.98718
1.98195
1.97739
1.97238
1.96612
1.95744
1.94387
1.92692
1.91481
1.91101
1.91033
1.91041
1.91013
1.90407
2.18127
2.08021
1.97801
1.88194
1.80199
1.72936
1.65028
1.59377
1.54888
1.49846
1.45727
1.43164
1.4046
1.36806
1.34062
1.32606
1.31036
1.30745
1.30711
1.31174
1.32302
1.3426
1.369
1.39545
1.42658
1.44724
1.47421
1.60605
1.8191
1.95124
1.96422
2.03202
2.22533
2.35362
2.39158
2.37541
2.35249
2.34377
2.34574
2.35089
2.3481
2.33909
2.31918
2.29963
2.29021
2.28509
2.28288
2.27634
2.26732
2.2544
2.2371
2.22415
2.21678
2.21122
2.20668
2.1999
2.19134
2.17862
2.16179
2.14879
2.14074
2.13385
2.12738
2.12068
2.11258
2.10128
2.0851
2.07022
2.06178
2.05631
2.05228
2.04903
2.04499
2.03767
2.02521
2.01178
2.00213
1.99344
1.98411
1.97546
1.96915
1.96378
1.95678
1.94786
1.93995
1.93327
1.92563
1.91567
1.90399
1.89311
1.88482
1.87913
1.87644
1.8755
1.87479
1.86977
2.19825
2.11429
2.02439
1.94528
1.87051
1.79696
1.72658
1.67197
1.6219
1.5725
1.53016
1.49889
1.46565
1.42896
1.39574
1.37217
1.35174
1.32631
1.31169
1.3123
1.31962
1.32158
1.32271
1.3284
1.34558
1.37501
1.51356
1.76293
1.88992
1.94685
1.95409
1.95291
2.01052
2.16731
2.30965
2.34354
2.32905
2.32225
2.3179
2.32064
2.31808
2.31146
2.29839
2.27906
2.26529
2.2583
2.25524
2.25073
2.24303
2.23369
2.21977
2.20304
2.19212
2.18589
2.1807
2.17324
2.16489
2.15428
2.13931
2.12272
2.1126
2.10657
2.10136
2.09523
2.08719
2.07673
2.06185
2.04348
2.03114
2.02647
2.02333
2.02141
2.01858
2.01352
2.00266
1.98354
1.96637
1.95644
1.94951
1.94462
1.94139
1.93816
1.93289
1.92284
1.90881
1.89727
1.88809
1.87919
1.87162
1.86616
1.86127
1.85541
1.84928
1.8449
1.84148
1.83351
2.20709
2.13401
2.05761
1.99068
1.92239
1.84779
1.78884
1.73764
1.68581
1.63305
1.59489
1.55904
1.52224
1.48905
1.45871
1.43158
1.41113
1.38685
1.35591
1.34259
1.34093
1.33254
1.32172
1.31845
1.32815
1.43816
1.67437
1.81201
1.85133
1.8684
1.87938
1.88677
1.90439
1.96383
2.10441
2.25433
2.30276
2.31025
2.30267
2.29784
2.29438
2.28858
2.28045
2.27021
2.25725
2.24532
2.23691
2.23013
2.2246
2.2172
2.20851
2.19638
2.1801
2.16639
2.15787
2.15194
2.14627
2.13843
2.12895
2.11566
2.09895
2.08692
2.08013
2.07426
2.06739
2.05917
2.04964
2.03674
2.02062
2.01094
2.00724
2.00432
1.99981
1.99334
1.98287
1.96643
1.94767
1.93574
1.93017
1.9273
1.9259
1.92185
1.91574
1.905
1.88872
1.87207
1.86133
1.85506
1.85041
1.84637
1.84272
1.83837
1.83116
1.82125
1.81248
1.80191
2.21142
2.14702
2.08117
2.02153
1.95887
1.89137
1.83952
1.78797
1.73554
1.6853
1.65125
1.61328
1.57212
1.53814
1.51149
1.48011
1.45481
1.4393
1.42054
1.38923
1.361
1.34377
1.33031
1.34062
1.42903
1.63156
1.78129
1.78879
1.78533
1.78006
1.78471
1.80177
1.81816
1.83242
1.87845
2.0139
2.18192
2.26964
2.28972
2.28521
2.27297
2.26644
2.26303
2.26116
2.25544
2.24357
2.22566
2.21165
2.20352
2.19903
2.19599
2.1886
2.17664
2.15803
2.14318
2.13523
2.12886
2.12505
2.11822
2.10851
2.09402
2.0758
2.0633
2.05635
2.05029
2.04513
2.03856
2.03039
2.01949
2.00372
1.98973
1.98117
1.97582
1.96981
1.9625
1.95415
1.94398
1.93104
1.91928
1.91169
1.90532
1.89912
1.893
1.88557
1.87432
1.86105
1.85042
1.84421
1.84009
1.83671
1.83298
1.82572
1.81208
1.79658
1.78903
1.7817
2.21335
2.15709
2.09862
2.04519
1.98611
1.9262
1.87836
1.83119
1.77707
1.73166
1.69593
1.6583
1.61676
1.58341
1.56052
1.53195
1.49173
1.47453
1.46656
1.44578
1.40842
1.38264
1.38772
1.46256
1.63595
1.79005
1.80406
1.79228
1.7767
1.77072
1.76449
1.75624
1.75025
1.74889
1.75373
1.78104
1.89408
2.07063
2.21864
2.25802
2.25206
2.24936
2.2458
2.25102
2.24901
2.2387
2.21926
2.19715
2.18716
2.18108
2.17953
2.17664
2.16831
2.15453
2.1342
2.12084
2.11373
2.10857
2.10437
2.09655
2.08611
2.07112
2.05349
2.04286
2.03713
2.03366
2.02965
2.02249
2.01282
1.99787
1.97958
1.96574
1.95717
1.95184
1.94756
1.9438
1.93752
1.92798
1.91392
1.89888
1.88789
1.88001
1.87265
1.86469
1.85795
1.85291
1.84767
1.84054
1.83229
1.82416
1.8153
1.80525
1.79173
1.77756
1.77338
1.76861
2.2112
2.1628
2.11101
2.06146
2.00791
1.95499
1.90946
1.86369
1.81043
1.77066
1.7348
1.69966
1.65795
1.62027
1.59679
1.57518
1.54611
1.51053
1.49255
1.47464
1.45061
1.45442
1.52871
1.68996
1.81962
1.83849
1.8228
1.80466
1.79471
1.78607
1.77334
1.75348
1.74199
1.73628
1.72877
1.72252
1.72717
1.774
1.92611
2.10189
2.19961
2.21559
2.22527
2.23459
2.23419
2.22503
2.2102
2.18608
2.17001
2.16303
2.16087
2.16143
2.15526
2.14568
2.12946
2.10957
2.09836
2.09139
2.08493
2.07961
2.07243
2.06354
2.05149
2.03636
2.02421
2.01653
2.00993
2.00321
1.99607
1.9872
1.97413
1.9577
1.9454
1.93918
1.93473
1.93094
1.92734
1.91989
1.90767
1.89075
1.87452
1.86345
1.85622
1.85213
1.85031
1.8489
1.84487
1.83713
1.82461
1.81034
1.7981
1.7874
1.7761
1.76662
1.76415
1.75942
2.20577
2.16242
2.11856
2.07373
2.02438
1.97702
1.93453
1.88993
1.84273
1.80536
1.76781
1.7292
1.69518
1.66495
1.62996
1.60314
1.5818
1.55382
1.52538
1.5014
1.51183
1.5988
1.7708
1.87863
1.8809
1.8626
1.84244
1.8312
1.82183
1.80961
1.79446
1.77426
1.75121
1.73284
1.72225
1.71534
1.70892
1.70118
1.70868
1.78353
1.94709
2.10008
2.16675
2.19083
2.20713
2.20337
2.19191
2.1741
2.1536
2.14519
2.14079
2.13989
2.13636
2.12927
2.11896
2.10217
2.0835
2.07283
2.06628
2.0604
2.05552
2.04944
2.04177
2.03026
2.01426
2.00085
1.99219
1.98484
1.97715
1.96984
1.96284
1.95361
1.94068
1.92865
1.92134
1.91561
1.90917
1.90242
1.8948
1.88257
1.86665
1.85371
1.8471
1.84369
1.84081
1.83681
1.83042
1.82179
1.80982
1.79573
1.78327
1.7727
1.76643
1.76236
1.75852
1.75236
2.19555
2.158
2.11951
2.07878
2.03403
1.99375
1.95423
1.91011
1.8681
1.83408
1.7985
1.75695
1.72256
1.69839
1.66684
1.63134
1.60783
1.5843
1.5583
1.56814
1.65983
1.82835
1.93985
1.93717
1.91378
1.88508
1.86552
1.85491
1.84304
1.82882
1.8138
1.79575
1.76959
1.74584
1.73002
1.71653
1.70404
1.6926
1.68389
1.6742
1.69122
1.79309
1.95787
2.07731
2.14264
2.16121
2.16244
2.15258
2.13744
2.12558
2.11865
2.11504
2.11075
2.10496
2.09821
2.08813
2.07234
2.05567
2.04659
2.04064
2.03528
2.03063
2.02478
2.01701
2.00429
1.98672
1.97335
1.96489
1.95804
1.95256
1.94784
1.94245
1.9337
1.92023
1.90671
1.89777
1.8909
1.88395
1.87607
1.86795
1.85893
1.84871
1.83925
1.83284
1.82802
1.82277
1.81584
1.80582
1.7928
1.78
1.76991
1.76492
1.76275
1.75986
1.75534
1.74446
2.18096
2.14971
2.11684
2.07983
2.04149
2.00592
1.96832
1.92621
1.89017
1.85643
1.82184
1.78235
1.75103
1.72468
1.69615
1.66025
1.6316
1.61251
1.63124
1.73018
1.87903
1.98304
1.98378
1.96592
1.9415
1.91336
1.88829
1.87264
1.85955
1.84531
1.83025
1.81404
1.7939
1.76735
1.74142
1.72292
1.70822
1.69332
1.67764
1.6635
1.65554
1.64598
1.674
1.79025
1.94775
2.05754
2.09893
2.11902
2.11773
2.10508
2.09236
2.08466
2.07972
2.07494
2.06934
2.06328
2.05458
2.0408
2.02671
2.01893
2.01314
2.00718
2.00119
1.99526
1.987
1.97267
1.95671
1.94713
1.94068
1.93472
1.9293
1.92452
1.91911
1.9089
1.89376
1.88122
1.87314
1.86623
1.85984
1.85413
1.84811
1.84011
1.82901
1.81881
1.81219
1.80691
1.80069
1.79156
1.77857
1.76817
1.76472
1.76449
1.76273
1.75782
1.75129
1.73402
2.1662
2.13941
2.11057
2.07748
2.04442
2.01189
1.97623
1.93824
1.90656
1.87392
1.83924
1.80468
1.77694
1.74616
1.71508
1.68586
1.66576
1.69835
1.83143
1.9544
2.01891
2.01684
1.99558
1.97863
1.9627
1.94174
1.91253
1.88662
1.87098
1.85676
1.84098
1.8242
1.80584
1.78385
1.75807
1.73499
1.71736
1.70178
1.68633
1.67045
1.65251
1.63632
1.62027
1.61619
1.65894
1.79216
1.92892
2.03621
2.06254
2.07008
2.06435
2.0509
2.04479
2.04136
2.0363
2.03205
2.02725
2.0185
2.00518
1.99513
1.98831
1.98195
1.97566
1.96918
1.96161
1.95154
1.93972
1.93052
1.92355
1.91698
1.91036
1.90357
1.89626
1.88822
1.8777
1.86587
1.85769
1.85228
1.84715
1.84121
1.83389
1.82459
1.8131
1.80187
1.79413
1.78898
1.784
1.77731
1.77079
1.76574
1.75913
1.75214
1.74708
1.74247
1.73628
1.72058
2.14949
2.12598
2.09969
2.07123
2.04287
2.01219
1.97855
1.94666
1.91777
1.88716
1.85203
1.82212
1.79576
1.76405
1.73374
1.71991
1.76608
1.91396
2.05647
2.07576
2.05437
2.02585
2.00534
1.99481
1.982
1.96274
1.93698
1.905
1.88038
1.86364
1.84768
1.83072
1.81278
1.79287
1.76943
1.74492
1.72383
1.70629
1.69065
1.6757
1.65975
1.64119
1.61854
1.59784
1.58589
1.59242
1.65375
1.79556
1.92213
1.99359
2.01125
2.01295
2.01016
2.00652
2.00266
1.99911
1.99486
1.98816
1.97615
1.96541
1.95945
1.95493
1.94993
1.94341
1.93502
1.92481
1.91481
1.90766
1.9022
1.89701
1.89113
1.88384
1.8753
1.86571
1.8552
1.84659
1.84119
1.83707
1.83258
1.82697
1.81955
1.80938
1.79571
1.7818
1.77382
1.76897
1.76508
1.76358
1.76305
1.76043
1.75213
1.73955
1.72975
1.72338
1.71748
1.70584
2.13395
2.11274
2.08841
2.06351
2.03795
2.01008
1.97936
1.95236
1.92408
1.89491
1.86154
1.8359
1.80706
1.77702
1.77929
1.84445
1.97697
2.10191
2.12035
2.10173
2.06903
2.03811
2.01779
2.00457
1.99083
1.97201
1.95009
1.92347
1.89451
1.87073
1.85141
1.83335
1.81525
1.79663
1.77636
1.75351
1.73065
1.71167
1.69531
1.67939
1.66337
1.64631
1.62591
1.6037
1.58129
1.5683
1.55926
1.57225
1.65267
1.78036
1.88446
1.94531
1.95422
1.96101
1.97091
1.9678
1.96339
1.95548
1.94288
1.93044
1.9259
1.92425
1.92191
1.91805
1.91138
1.90022
1.88617
1.87722
1.87376
1.87081
1.86748
1.8635
1.85763
1.84796
1.83477
1.82413
1.81976
1.81681
1.81307
1.80837
1.80228
1.79367
1.78022
1.76391
1.7545
1.75263
1.75275
1.75491
1.75449
1.75143
1.74281
1.72802
1.71292
1.70222
1.69668
1.68765
2.11374
2.09449
2.07333
2.05233
2.02926
2.00306
1.97732
1.95262
1.92654
1.89715
1.86744
1.84337
1.82056
1.83789
1.93722
2.06586
2.13033
2.15246
2.13866
2.11397
2.08834
2.05795
2.02639
2.00596
1.99105
1.97462
1.95546
1.93359
1.90702
1.87872
1.85535
1.83568
1.81687
1.79828
1.77922
1.75883
1.73691
1.71565
1.69724
1.68087
1.6643
1.64714
1.629
1.60909
1.58683
1.56639
1.54866
1.53934
1.53252
1.55092
1.62901
1.75027
1.84433
1.89145
1.91295
1.93004
1.93058
1.92374
1.913
1.90044
1.89166
1.89024
1.8893
1.88699
1.88242
1.87503
1.86286
1.84901
1.84249
1.83992
1.83807
1.83642
1.83419
1.82945
1.81975
1.8055
1.7933
1.78722
1.78361
1.78047
1.77733
1.773
1.76557
1.75541
1.74502
1.73801
1.73526
1.73345
1.73208
1.73126
1.72768
1.71644
1.69981
1.68619
1.67989
1.67475
2.09456
2.07704
2.05881
2.04005
2.01933
1.99555
1.97436
1.9505
1.92566
1.89519
1.87423
1.86031
1.89805
2.02524
2.1623
2.18045
2.16178
2.14448
2.12999
2.11605
2.09699
2.07041
2.03561
2.00743
1.99019
1.97516
1.95669
1.93577
1.91248
1.88596
1.85911
1.83673
1.81726
1.79833
1.77913
1.75941
1.73885
1.7176
1.69685
1.678
1.66128
1.64556
1.62977
1.61318
1.59495
1.57347
1.55073
1.53149
1.51661
1.50879
1.50466
1.52769
1.6071
1.71848
1.80429
1.85854
1.87775
1.88927
1.88666
1.8768
1.86718
1.85869
1.85249
1.84941
1.84712
1.84412
1.83828
1.82738
1.81514
1.80972
1.808
1.80674
1.80545
1.80314
1.79785
1.78605
1.76898
1.7589
1.75494
1.75205
1.74902
1.7457
1.74321
1.74058
1.73517
1.72488
1.71529
1.7106
1.70778
1.70448
1.7004
1.69591
1.68845
1.67971
1.67143
1.66265
2.08325
2.06423
2.04679
2.02878
2.00844
1.98804
1.967
1.94568
1.92011
1.89736
1.90141
1.96961
2.09397
2.21059
2.24457
2.21982
2.17322
2.13718
2.12081
2.11261
2.09775
2.07562
2.04647
2.01427
1.99178
1.97373
1.95483
1.93403
1.91204
1.88823
1.86236
1.83712
1.81475
1.79477
1.77579
1.75711
1.738
1.71776
1.69635
1.6754
1.65674
1.64059
1.62613
1.61164
1.59592
1.57751
1.55696
1.53603
1.5162
1.49967
1.48626
1.47953
1.47914
1.50655
1.58689
1.69553
1.76864
1.82144
1.84377
1.85024
1.84759
1.83699
1.82408
1.81714
1.81496
1.81252
1.80952
1.80509
1.79614
1.78458
1.77931
1.77669
1.77439
1.77233
1.76911
1.76158
1.74975
1.73762
1.72992
1.72553
1.72256
1.72126
1.72098
1.72047
1.71738
1.70846
1.6959
1.68665
1.68078
1.67674
1.6738
1.67114
1.66978
1.66822
1.66236
1.64974
2.06806
2.04992
2.03396
2.01653
1.99662
1.97863
1.95682
1.93788
1.92449
1.94957
2.05239
2.17799
2.23271
2.24442
2.23307
2.20598
2.17352
2.14207
2.12365
2.11188
2.09694
2.07663
2.05108
2.02002
1.99187
1.96985
1.94968
1.92887
1.90773
1.88589
1.86174
1.83539
1.8104
1.78865
1.7691
1.75056
1.73191
1.71222
1.69143
1.67083
1.65199
1.63529
1.6202
1.60557
1.59044
1.5747
1.55786
1.53953
1.52074
1.50315
1.48668
1.4715
1.46107
1.45681
1.45938
1.49009
1.57302
1.67569
1.75122
1.79248
1.81021
1.80975
1.80418
1.79465
1.78976
1.78649
1.78481
1.78321
1.7772
1.76488
1.75657
1.75148
1.7472
1.74342
1.73971
1.73594
1.72869
1.71634
1.70825
1.70574
1.70431
1.70221
1.69889
1.69517
1.69263
1.6874
1.67655
1.66346
1.65459
1.6507
1.64968
1.65056
1.65168
1.65098
1.64877
1.64022
2.04978
2.03657
2.01993
2.00063
1.98518
1.96595
1.94858
1.95268
2.01347
2.14135
2.25276
2.27885
2.26445
2.23919
2.21036
2.19159
2.17226
2.14793
2.12735
2.11087
2.09307
2.07202
2.04717
2.01738
1.98874
1.96525
1.94379
1.92219
1.90018
1.87767
1.85368
1.82832
1.80427
1.78288
1.76341
1.7449
1.72634
1.70667
1.68578
1.66537
1.64724
1.63141
1.61677
1.60287
1.58863
1.57314
1.55625
1.53881
1.52028
1.5031
1.4891
1.47664
1.46511
1.45274
1.44452
1.43676
1.44232
1.47796
1.56955
1.66404
1.74302
1.76498
1.77178
1.77968
1.77617
1.76936
1.76085
1.75083
1.74534
1.7432
1.73786
1.7305
1.72491
1.72131
1.71775
1.71094
1.69885
1.69186
1.69152
1.69074
1.68809
1.68327
1.67736
1.67033
1.66165
1.6536
1.64707
1.63844
1.63172
1.63074
1.63117
1.63286
1.63364
1.63492
1.63524
1.65533
1.9573
2.02681
2.01071
1.98759
1.97051
1.96365
1.99147
2.09055
2.21279
2.28872
2.29799
2.27146
2.24665
2.22469
2.20224
2.18714
2.17084
2.14693
2.12332
2.10398
2.08464
2.06282
2.03784
2.00951
1.98138
1.95758
1.93619
1.9148
1.89268
1.86948
1.8448
1.81954
1.79629
1.77602
1.75759
1.73996
1.72244
1.70411
1.68386
1.66283
1.64387
1.62799
1.61373
1.60046
1.58807
1.57459
1.55806
1.53934
1.52109
1.50412
1.48832
1.47586
1.46567
1.45726
1.44953
1.43913
1.43104
1.42361
1.43367
1.47783
1.57179
1.65951
1.72578
1.75962
1.76307
1.76178
1.75364
1.7391
1.72783
1.71937
1.71326
1.71178
1.71066
1.70725
1.70202
1.69293
1.68274
1.67516
1.66776
1.663
1.66226
1.66188
1.65851
1.6507
1.63887
1.62801
1.62098
1.61908
1.61748
1.61616
1.61519
1.61723
1.62079
1.63384
1.65868
1.74481
1.70562
1.97165
1.99341
1.97512
1.97849
2.04586
2.18736
2.27562
2.29688
2.29561
2.27861
2.25151
2.22733
2.2128
2.19771
2.18026
2.16164
2.13694
2.11127
2.09152
2.07244
2.05103
2.02626
1.99882
1.97205
1.94832
1.9269
1.90621
1.88529
1.86351
1.84037
1.81615
1.79285
1.7724
1.75438
1.73725
1.72029
1.70308
1.6848
1.66506
1.64472
1.62694
1.61272
1.59994
1.58743
1.57648
1.56517
1.54943
1.52896
1.51105
1.49988
1.49051
1.48128
1.4715
1.46048
1.4509
1.44078
1.42916
1.42016
1.41663
1.43123
1.48948
1.58386
1.6674
1.7179
1.74476
1.74406
1.73964
1.72893
1.71492
1.70645
1.70047
1.69452
1.68842
1.6828
1.6798
1.67459
1.66498
1.65327
1.64648
1.64122
1.63523
1.63049
1.62589
1.62026
1.61224
1.60493
1.60087
1.60132
1.60212
1.6038
1.61397
1.64332
1.70274
1.76309
1.83592
1.2441
1.78622
1.93473
1.98529
2.10968
2.2495
2.33261
2.31782
2.28583
2.27569
2.26008
2.23954
2.21868
2.20288
2.19003
2.17175
2.15124
2.12791
2.10225
2.08108
2.06179
2.04094
2.01791
1.99224
1.96577
1.94198
1.92117
1.90153
1.88176
1.8613
1.83956
1.81643
1.79338
1.77266
1.75485
1.73892
1.72402
1.70926
1.6932
1.67502
1.65538
1.636
1.61804
1.60348
1.59308
1.58319
1.57002
1.55589
1.54162
1.52651
1.51004
1.49564
1.48708
1.48218
1.47895
1.47253
1.46052
1.446
1.43225
1.42266
1.41442
1.41559
1.4347
1.50549
1.59464
1.68073
1.70636
1.72446
1.72277
1.7186
1.70865
1.69897
1.69214
1.68635
1.67904
1.66903
1.65918
1.65163
1.64665
1.64
1.63191
1.6235
1.61505
1.60659
1.59876
1.59364
1.59095
1.59075
1.59236
1.60507
1.63646
1.69187
1.75654
1.82143
1.83995
1.85039
1.0169
1.36441
1.72476
2.15291
2.32475
2.35964
2.35604
2.32823
2.29506
2.27796
2.26458
2.24396
2.21981
2.19797
2.18314
2.165
2.14395
2.12189
2.09712
2.07412
2.0543
2.03352
2.0113
1.98775
1.96361
1.94096
1.92081
1.90225
1.88393
1.86501
1.84481
1.82326
1.80156
1.78166
1.76453
1.74935
1.73485
1.71996
1.70408
1.68708
1.66947
1.65267
1.63728
1.62213
1.60692
1.59726
1.58993
1.57885
1.56379
1.54659
1.53004
1.51781
1.50946
1.50104
1.49272
1.48613
1.47905
1.46998
1.45642
1.44199
1.42849
1.41915
1.40849
1.41339
1.44254
1.51581
1.60671
1.67936
1.70865
1.70689
1.70436
1.69927
1.69233
1.68389
1.67229
1.66034
1.65189
1.64634
1.64045
1.63327
1.62496
1.61645
1.60842
1.60204
1.59824
1.59334
1.59322
1.60324
1.63678
1.70012
1.76715
1.82248
1.85123
1.85366
1.85535
1.85563
1.00023
1.04007
1.65042
2.47249
2.51194
2.45278
2.41114
2.3752
2.33696
2.30945
2.29023
2.27202
2.24797
2.22361
2.20747
2.18996
2.16897
2.14711
2.12328
2.09897
2.07796
2.05833
2.03756
2.01582
1.99382
1.97308
1.95439
1.93704
1.91983
1.90185
1.88243
1.86148
1.84007
1.82001
1.80221
1.78618
1.77095
1.75576
1.73988
1.72288
1.705
1.68746
1.67075
1.65428
1.63756
1.62043
1.60273
1.58553
1.57103
1.56403
1.56044
1.55316
1.54223
1.52948
1.51869
1.50873
1.49833
1.48842
1.47759
1.46613
1.45299
1.4395
1.42584
1.41461
1.40526
1.41271
1.45229
1.53086
1.6163
1.67697
1.7126
1.71173
1.70758
1.69615
1.68128
1.66812
1.65508
1.64378
1.63512
1.62697
1.6197
1.6143
1.61071
1.60911
1.60514
1.61182
1.64283
1.70973
1.78161
1.84204
1.86812
1.87398
1.86945
1.86356
1.86311
1.86209
1
1.00091
1.92793
2.72765
2.68196
2.57791
2.51394
2.46626
2.42479
2.39202
2.36581
2.34462
2.31528
2.28374
2.26036
2.23773
2.21161
2.18599
2.16162
2.13668
2.11444
2.09491
2.07536
2.05523
2.03531
2.01636
1.99861
1.9813
1.96329
1.94384
1.92271
1.9003
1.87779
1.85653
1.83716
1.81914
1.80187
1.78455
1.76635
1.74699
1.72696
1.70776
1.69054
1.67569
1.66114
1.64441
1.62604
1.61129
1.60188
1.59328
1.58306
1.57319
1.56375
1.55459
1.54529
1.53428
1.52249
1.51187
1.50189
1.49098
1.47804
1.464
1.44866
1.42892
1.41327
1.40442
1.39966
1.41087
1.46377
1.55287
1.63628
1.68597
1.70902
1.70444
1.69642
1.68547
1.66906
1.65127
1.63708
1.62609
1.62079
1.61969
1.62144
1.63085
1.66111
1.72616
1.79771
1.85171
1.89489
1.91349
1.91353
1.90858
1.89427
1.87668
1.86791
1.85908
1
1.00002
2.15218
2.80559
2.78181
2.71945
2.66378
2.61183
2.56428
2.52309
2.48596
2.44801
2.40788
2.37145
2.33947
2.31323
2.28665
2.25652
2.22985
2.2064
2.18385
2.1642
2.14538
2.12603
2.10674
2.08776
2.06866
2.04883
2.02781
2.00556
1.98221
1.95835
1.93501
1.91278
1.89155
1.87056
1.84966
1.82871
1.80728
1.78536
1.76397
1.74526
1.72886
1.71311
1.69573
1.67608
1.6572
1.64221
1.63136
1.62238
1.61448
1.60649
1.59663
1.58327
1.56765
1.55215
1.53781
1.52412
1.51007
1.49677
1.48275
1.46746
1.45154
1.43634
1.42135
1.40665
1.39828
1.39415
1.39929
1.4211
1.49267
1.58678
1.65778
1.67513
1.68509
1.68303
1.6729
1.65577
1.64228
1.63354
1.63454
1.64741
1.69088
1.75166
1.82937
1.88449
1.91791
1.93214
1.94028
1.94017
1.93442
1.92241
1.90488
1.88815
1.87648
1.86366
1
1
2.19592
2.7878
2.79384
2.77372
2.74402
2.70594
2.66709
2.62923
2.59338
2.55651
2.51916
2.48372
2.45012
2.41873
2.38825
2.3551
2.32421
2.29966
2.27657
2.25448
2.23336
2.21062
2.1867
2.16233
2.13774
2.11301
2.0879
2.06221
2.03576
2.00896
1.98284
1.95794
1.9343
1.91108
1.88802
1.86478
1.84147
1.81897
1.7979
1.77845
1.7596
1.74079
1.72149
1.70203
1.68473
1.67066
1.65961
1.64967
1.63965
1.62848
1.61578
1.60146
1.58589
1.57024
1.55465
1.53925
1.52412
1.50992
1.49543
1.47939
1.46252
1.4479
1.43378
1.41903
1.40662
1.39628
1.39032
1.38348
1.39062
1.4258
1.50631
1.5952
1.6707
1.67596
1.662
1.65308
1.65433
1.66744
1.7073
1.777
1.86067
1.91784
1.95878
1.97557
1.97389
1.96907
1.95706
1.94537
1.93371
1.92233
1.91077
1.89743
1.88471
1.87022
1
1
2.18136
2.75165
2.79029
2.77776
2.76415
2.74191
2.71557
2.68556
2.65365
2.62019
2.58653
2.55351
2.52161
2.48951
2.45717
2.42502
2.39557
2.37069
2.34692
2.32069
2.29522
2.26937
2.24293
2.21631
2.18927
2.16098
2.13068
2.09866
2.0667
2.03701
2.01027
1.98571
1.96278
1.94001
1.91623
1.89024
1.86295
1.83744
1.81476
1.79432
1.77483
1.75604
1.73778
1.72032
1.70449
1.6894
1.6752
1.66185
1.64935
1.63732
1.62522
1.61223
1.59755
1.58251
1.56655
1.54858
1.53028
1.51447
1.5005
1.48634
1.47134
1.45689
1.44324
1.42967
1.41619
1.40269
1.38936
1.37971
1.37204
1.36851
1.38436
1.443
1.53917
1.6111
1.6573
1.69555
1.747
1.8095
1.86695
1.93056
1.96492
1.99307
2.00921
2.00294
1.99044
1.97577
1.96219
1.95093
1.94089
1.93028
1.91914
1.9062
1.89319
1.87849
1
1
2.16428
2.73071
2.78593
2.77554
2.765
2.7468
2.72451
2.69841
2.67027
2.64141
2.61278
2.58433
2.55569
2.52677
2.4962
2.46554
2.43589
2.40846
2.37991
2.34982
2.32222
2.29518
2.2677
2.23944
2.20991
2.17833
2.14412
2.10843
2.0745
2.04507
2.01965
1.99648
1.97423
1.95102
1.92543
1.89691
1.86755
1.84114
1.81835
1.79816
1.77932
1.76183
1.74509
1.72803
1.7107
1.6935
1.6778
1.66345
1.65028
1.63837
1.62777
1.61764
1.60574
1.59013
1.57012
1.5493
1.53023
1.51383
1.49927
1.48586
1.47463
1.46383
1.45023
1.43247
1.41653
1.40249
1.38838
1.37582
1.36622
1.36219
1.35802
1.36446
1.40047
1.49072
1.62826
1.76338
1.87007
1.95428
2.02937
2.08046
2.07634
2.06484
2.04384
2.01363
1.99293
1.97394
1.95962
1.9476
1.93819
1.93082
1.92096
1.90882
1.89744
1.88373
)
;

boundaryField
{
    inlet
    {
        type            fixedValue;
        value           uniform 1;
    }
    outlet
    {
        type            inletOutlet;
        inletValue      uniform 1;
        value           nonuniform List<scalar> 
32
(
1.94507
1.94439
1.94244
1.93077
1.90442
1.86996
1.8333
1.80177
1.78223
1.76951
1.7605
1.75342
1.74406
1.73219
1.71911
1.70547
1.6878
1.67602
1.66317
1.64907
1.63871
1.65354
1.74278
1.83497
1.85073
1.85728
1.8632
1.85958
1.86359
1.86998
1.87841
1.88357
)
;
    }
    bottom
    {
        type            symmetryPlane;
    }
    top
    {
        type            symmetryPlane;
    }
    obstacle
    {
        type            zeroGradient;
    }
    defaultFaces
    {
        type            empty;
    }
}


// ************************************************************************* //
