/*--------------------------------*- C++ -*----------------------------------*\
  =========                 |
  \\      /  F ield         | OpenFOAM: The Open Source CFD Toolbox
   \\    /   O peration     | Website:  https://openfoam.org
    \\  /    A nd           | Version:  7
     \\/     M anipulation  |
\*---------------------------------------------------------------------------*/
FoamFile
{
    version     2.0;
    format      ascii;
    class       volVectorField;
    location    "3.5";
    object      U;
}
// * * * * * * * * * * * * * * * * * * * * * * * * * * * * * * * * * * * * * //

dimensions      [0 1 -1 0 0 0 0];

internalField   nonuniform List<vector> 
4032
(
(3 3.56539e-17 0)
(3 -1.42076e-16 0)
(3 -5.08163e-17 0)
(3 -9.61158e-17 0)
(3 -3.57158e-16 0)
(3 -2.75804e-16 0)
(3 -1.58157e-16 0)
(3 3.27587e-16 0)
(3 5.98449e-16 0)
(3 8.14594e-16 0)
(3 9.30969e-16 0)
(2.95132 0.0025257 0)
(1.02114 0.0179328 0)
(0.706801 0.0195699 0)
(0.652942 0.0231206 0)
(0.593277 0.0243726 0)
(0.534001 0.0256466 0)
(0.47287 0.0271548 0)
(0.409606 0.0290007 0)
(0.343366 0.0311734 0)
(0.274086 0.0331404 0)
(0.20137 0.0355909 0)
(0.124705 0.0373318 0)
(0.0460808 0.0419075 0)
(3 -9.46193e-17 0)
(3 6.11305e-18 0)
(3 3.07907e-16 0)
(3 4.47477e-16 0)
(3 5.04472e-16 0)
(3 6.27481e-16 0)
(3 5.75823e-16 0)
(3 1.09216e-15 0)
(3 1.13238e-15 0)
(3 1.04407e-15 0)
(3 8.51466e-16 0)
(2.95896 0.0240426 0)
(1.03038 0.0800338 0)
(0.700303 0.0684908 0)
(0.647212 0.0717348 0)
(0.589455 0.0763675 0)
(0.530373 0.0810198 0)
(0.468533 0.0861531 0)
(0.404042 0.0918975 0)
(0.336589 0.0983879 0)
(0.266467 0.103978 0)
(0.193834 0.111016 0)
(0.118073 0.115678 0)
(0.0427433 0.126768 0)
(3 5.90965e-17 0)
(3 8.34712e-17 0)
(3 4.4574e-16 0)
(3 7.56655e-16 0)
(3 7.96643e-16 0)
(3 1.13232e-15 0)
(3 1.27692e-15 0)
(3 7.97145e-16 0)
(3 1.32087e-15 0)
(3 1.30734e-15 0)
(3 1.05299e-15 0)
(3.00038 0.00685082 0)
(1.08634 0.135018 0)
(0.727634 0.110232 0)
(0.673058 0.117393 0)
(0.613449 0.126277 0)
(0.552391 0.135103 0)
(0.488968 0.144541 0)
(0.42295 0.154591 0)
(0.353925 0.1656 0)
(0.281471 0.174814 0)
(0.205755 0.186457 0)
(0.125077 0.19364 0)
(0.0456973 0.209357 0)
(3 2.01141e-16 0)
(3 7.5443e-17 0)
(3 5.73569e-18 0)
(3 -1.04642e-16 0)
(3 -1.86429e-16 0)
(3 -1.84361e-16 0)
(3 -1.25167e-16 0)
(3 -6.06881e-16 0)
(3 -3.64565e-16 0)
(3 1.25058e-16 0)
(3 -2.55118e-16 0)
(3.00072 0.000200436 0)
(1.17284 0.176661 0)
(0.738583 0.153497 0)
(0.682189 0.166991 0)
(0.624064 0.17955 0)
(0.564357 0.191417 0)
(0.502928 0.204601 0)
(0.438336 0.219029 0)
(0.369535 0.235671 0)
(0.295281 0.25018 0)
(0.217018 0.268268 0)
(0.132019 0.279706 0)
(0.0474331 0.2998 0)
(3 9.82648e-17 0)
(3 2.4222e-16 0)
(3 -1.73449e-16 0)
(3 -2.49437e-16 0)
(3 -2.53222e-16 0)
(3 -7.81117e-16 0)
(3 -9.71364e-16 0)
(3 -7.4363e-16 0)
(3 -8.55871e-16 0)
(3 -6.05722e-16 0)
(3 -7.31254e-16 0)
(3.00001 7.04148e-08 0)
(1.30907 0.226758 0)
(0.749664 0.19983 0)
(0.685186 0.213739 0)
(0.631628 0.229425 0)
(0.576144 0.244217 0)
(0.519428 0.261693 0)
(0.459075 0.281593 0)
(0.39451 0.305357 0)
(0.3227 0.326206 0)
(0.245006 0.352132 0)
(0.153376 0.371994 0)
(0.0582027 0.400536 0)
(3 5.84121e-17 0)
(3 3.28832e-19 0)
(3 -2.30625e-16 0)
(3 -1.93131e-16 0)
(3 -1.58036e-16 0)
(3 -2.69016e-16 0)
(3 -3.4072e-16 0)
(3 -1.88864e-16 0)
(3 -4.16235e-16 0)
(3 -9.63665e-16 0)
(3 -1.01707e-15 0)
(3 -8.87776e-10 0)
(1.51885 0.276878 0)
(0.771941 0.255235 0)
(0.687673 0.260715 0)
(0.635833 0.276234 0)
(0.584578 0.292872 0)
(0.534787 0.314373 0)
(0.481606 0.339877 0)
(0.423107 0.372672 0)
(0.351204 0.405564 0)
(0.268542 0.447062 0)
(0.168289 0.485224 0)
(0.0575009 0.523715 0)
(3 -1.41549e-16 0)
(3 -9.10966e-16 0)
(3 -1.08648e-15 0)
(3 -1.17323e-15 0)
(3 -1.0914e-15 0)
(3 -9.03204e-16 0)
(3 -6.4765e-16 0)
(3 -4.19886e-16 0)
(3 -5.86906e-16 0)
(3 -1.05924e-15 0)
(3 -1.17619e-15 0)
(3 -1.58322e-09 0)
(1.82195 0.328602 0)
(0.808608 0.326257 0)
(0.693298 0.315254 0)
(0.638961 0.325006 0)
(0.588844 0.340106 0)
(0.544017 0.36363 0)
(0.49777 0.394523 0)
(0.450746 0.438206 0)
(0.391723 0.486833 0)
(0.324207 0.54298 0)
(0.233361 0.600033 0)
(0.101603 0.667274 0)
(3 -1.71684e-16 0)
(3 6.17869e-18 0)
(3 2.06002e-16 0)
(3 2.61139e-16 0)
(3 3.1638e-16 0)
(3 1.38219e-16 0)
(3 -2.00521e-17 0)
(3 -2.10838e-16 0)
(3 -1.35109e-15 0)
(3 -1.36044e-15 0)
(3 -8.08164e-16 0)
(3 -7.49663e-10 0)
(2.26558 0.350233 0)
(0.883433 0.412927 0)
(0.732156 0.375993 0)
(0.677803 0.380587 0)
(0.624265 0.39043 0)
(0.577775 0.411896 0)
(0.533465 0.44477 0)
(0.494639 0.493737 0)
(0.449526 0.554162 0)
(0.389668 0.639469 0)
(0.271813 0.761313 0)
(0.15139 0.928904 0)
(3 1.38879e-17 0)
(3 3.31858e-16 0)
(3 2.76048e-16 0)
(3 4.04212e-16 0)
(3 4.54678e-16 0)
(3 8.30104e-16 0)
(3 9.63984e-16 0)
(3 1.37998e-16 0)
(3 -8.26755e-16 0)
(3 -1.33634e-15 0)
(3 -5.25891e-16 0)
(3 -1.65869e-10 0)
(2.8498 0.213472 0)
(1.0493 0.47441 0)
(0.826453 0.40977 0)
(0.768631 0.422237 0)
(0.70247 0.438992 0)
(0.644346 0.460002 0)
(0.596055 0.491562 0)
(0.557202 0.542266 0)
(0.522345 0.618845 0)
(0.490396 0.745757 0)
(0.459235 0.922483 0)
(0.574091 1.20262 0)
(3 9.02443e-17 0)
(3 -1.02529e-16 0)
(3 -1.43854e-16 0)
(3 -5.84651e-16 0)
(3 -7.45742e-16 0)
(3 -5.40697e-16 0)
(3 -3.91395e-16 0)
(3 -1.49332e-16 0)
(3 3.42775e-16 0)
(3 6.13518e-16 0)
(3 9.36448e-16 0)
(3 -9.42661e-12 0)
(3.05423 0.0169618 0)
(1.27294 0.456615 0)
(0.880533 0.463555 0)
(0.839451 0.492363 0)
(0.780121 0.50394 0)
(0.722026 0.519295 0)
(0.673147 0.545709 0)
(0.6329 0.593198 0)
(0.615022 0.675428 0)
(0.615957 0.810861 0)
(0.679881 0.963179 0)
(0.96823 1.13665 0)
(3 1.39993e-16 0)
(3 1.89478e-16 0)
(3 4.84761e-18 0)
(3 8.9392e-17 0)
(3 1.78862e-16 0)
(3 1.32815e-16 0)
(3 -1.04068e-16 0)
(3 4.79681e-16 0)
(3 1.07464e-15 0)
(3 1.69834e-15 0)
(3 1.75336e-15 0)
(3 -8.76775e-14 0)
(3.00268 -1.69478e-06 0)
(1.5397 0.462805 0)
(0.8762 0.517393 0)
(0.83577 0.541772 0)
(0.806116 0.565035 0)
(0.774837 0.582004 0)
(0.744072 0.605306 0)
(0.716156 0.64233 0)
(0.71634 0.712452 0)
(0.743252 0.827099 0)
(0.866049 0.954795 0)
(1.1813 1.05962 0)
(3 5.13569e-17 0)
(3 -8.99581e-17 0)
(3 -3.8353e-16 0)
(3 -1.43039e-16 0)
(3 -3.38924e-16 0)
(3 -8.04865e-17 0)
(3 -5.8054e-17 0)
(3 6.27248e-16 0)
(3 6.01377e-16 0)
(3 2.62782e-16 0)
(3 5.43123e-16 0)
(3 2.93093e-16 0)
(3.00001 -4.29413e-07 0)
(2.14413 0.483308 0)
(0.946489 0.582394 0)
(0.862021 0.557752 0)
(0.855016 0.585019 0)
(0.836866 0.614751 0)
(0.82115 0.646488 0)
(0.807286 0.680848 0)
(0.816817 0.740994 0)
(0.864214 0.829013 0)
(1.00648 0.931416 0)
(1.27574 1.00021 0)
(3 -1.59542e-16 0)
(3 -4.28907e-16 0)
(3 -2.44568e-16 0)
(3 -5.0627e-17 0)
(3 -1.58341e-16 0)
(3 -6.35042e-16 0)
(3 -1.46944e-15 0)
(3 -1.98483e-15 0)
(3 -2.318e-15 0)
(3 -2.55356e-15 0)
(3 -2.64492e-15 0)
(3 -1.67611e-15 0)
(3 -4.85362e-07 0)
(2.9492 0.208284 0)
(1.16561 0.613748 0)
(0.937093 0.564035 0)
(0.926198 0.608967 0)
(0.908073 0.642203 0)
(0.897999 0.67827 0)
(0.897129 0.713557 0)
(0.912153 0.762021 0)
(0.970983 0.826359 0)
(1.10612 0.898516 0)
(1.31665 0.942867 0)
(3 -3.15153e-16 0)
(3 -4.59882e-17 0)
(3 1.42407e-17 0)
(3 -1.07124e-16 0)
(3 1.65691e-16 0)
(3 2.13966e-16 0)
(3 -1.95578e-16 0)
(3 -1.15978e-15 0)
(3 -2.01687e-15 0)
(3 -2.51759e-15 0)
(3 -2.63434e-15 0)
(3 -2.66584e-15 0)
(3 -1.00083e-07 0)
(3.05029 0.00820285 0)
(1.45463 0.598061 0)
(0.975685 0.644504 0)
(0.940689 0.653478 0)
(0.932253 0.679097 0)
(0.943352 0.711914 0)
(0.962864 0.748271 0)
(0.995346 0.786299 0)
(1.06194 0.831973 0)
(1.1827 0.879562 0)
(1.34717 0.904858 0)
(3 1.18115e-16 0)
(3 8.23367e-17 0)
(3 -2.00828e-16 0)
(3 -8.82419e-16 0)
(3 -4.23547e-16 0)
(3 1.52216e-16 0)
(3 6.62827e-16 0)
(3 2.95483e-16 0)
(3 -1.32974e-16 0)
(3 1.60706e-17 0)
(3 -4.42103e-17 0)
(3 -2.028e-16 0)
(3 -8.69977e-09 0)
(3.00128 -3.23737e-06 0)
(2.09941 0.585335 0)
(1.04796 0.715801 0)
(0.987384 0.679044 0)
(0.979087 0.689687 0)
(0.994199 0.716135 0)
(1.02022 0.753503 0)
(1.06489 0.791542 0)
(1.13506 0.829278 0)
(1.23935 0.860374 0)
(1.37009 0.873553 0)
(3 9.41122e-17 0)
(3 5.69708e-17 0)
(3 -1.16399e-16 0)
(3 -3.69297e-16 0)
(3 -7.00021e-16 0)
(3 -7.18043e-16 0)
(3 -6.57401e-16 0)
(3 -1.87565e-16 0)
(3 -8.76885e-17 0)
(3 1.21988e-15 0)
(3 1.50142e-15 0)
(3 1.8077e-15 0)
(3 -9.01615e-11 0)
(3.00003 -1.08462e-05 0)
(3.03094 0.165235 0)
(1.31643 0.686904 0)
(1.06932 0.698812 0)
(1.06588 0.705311 0)
(1.06828 0.734384 0)
(1.08325 0.766968 0)
(1.12472 0.80151 0)
(1.19224 0.832674 0)
(1.28209 0.853802 0)
(1.39168 0.860143 0)
(3 -2.75759e-16 0)
(3 -1.74866e-16 0)
(3 -2.94093e-16 0)
(3 -2.25221e-16 0)
(3 -9.43668e-16 0)
(3 -1.55545e-15 0)
(3 -1.28543e-15 0)
(3 -9.11617e-16 0)
(3 -5.05401e-17 0)
(3 2.46849e-16 0)
(3 7.27739e-16 0)
(3 1.4336e-15 0)
(3 -1.53441e-13 0)
(3 -2.82695e-06 0)
(3.03057 0.00234492 0)
(1.63189 0.655864 0)
(1.09259 0.753832 0)
(1.09129 0.755666 0)
(1.10363 0.773499 0)
(1.12931 0.79029 0)
(1.17027 0.809612 0)
(1.23367 0.828675 0)
(1.31212 0.842609 0)
(1.40847 0.845883 0)
(3 -9.34904e-17 0)
(3 1.81394e-16 0)
(3 4.15442e-16 0)
(3 2.95378e-16 0)
(3 -1.63932e-16 0)
(3 -3.87138e-16 0)
(3 -2.69395e-16 0)
(3 -1.38773e-16 0)
(3 3.25971e-16 0)
(3 6.92696e-16 0)
(3 5.5806e-16 0)
(3 7.72229e-16 0)
(3 1.39027e-15 0)
(3 -2.31204e-07 0)
(3.00044 8.51366e-06 0)
(2.52038 0.46323 0)
(1.22394 0.7854 0)
(1.12198 0.779491 0)
(1.14333 0.784096 0)
(1.16868 0.798665 0)
(1.20759 0.814544 0)
(1.26631 0.82915 0)
(1.33803 0.839564 0)
(1.42214 0.84126 0)
(3 9.46419e-17 0)
(3 2.71878e-16 0)
(3 6.80481e-16 0)
(3 6.84301e-16 0)
(3 6.537e-16 0)
(3 1.07813e-15 0)
(3 1.06093e-15 0)
(3 8.53295e-16 0)
(3 4.65684e-16 0)
(3 3.30779e-16 0)
(3 9.81299e-17 0)
(3 3.45916e-16 0)
(3 7.08283e-16 0)
(3 -1.47568e-09 0)
(3.00003 -1.23128e-05 0)
(3.06577 0.0494009 0)
(1.60141 0.766978 0)
(1.17813 0.79206 0)
(1.19839 0.796215 0)
(1.21318 0.807656 0)
(1.24702 0.817045 0)
(1.29735 0.826683 0)
(1.36087 0.833252 0)
(1.43446 0.833241 0)
(3 1.26661e-16 0)
(3 2.84187e-16 0)
(3 1.29652e-16 0)
(3 2.25443e-16 0)
(3 1.05827e-16 0)
(3 1.74128e-16 0)
(3 3.34874e-16 0)
(3 3.47641e-16 0)
(3 -4.20214e-16 0)
(3 -4.755e-16 0)
(3 4.92857e-17 0)
(3 3.80024e-16 0)
(3 5.39735e-16 0)
(3 -2.88466e-12 0)
(3 -2.68848e-06 0)
(3.00537 0.000938021 0)
(2.41223 0.589809 0)
(1.286 0.859343 0)
(1.22979 0.840327 0)
(1.25128 0.834378 0)
(1.27945 0.835478 0)
(1.32423 0.837503 0)
(1.37948 0.838245 0)
(1.4456 0.834299 0)
(3 7.80206e-18 0)
(3 2.97538e-16 0)
(3 2.85106e-16 0)
(3 4.43329e-16 0)
(3 8.51173e-16 0)
(3 7.22417e-16 0)
(3 3.4858e-16 0)
(3 4.99581e-16 0)
(3 4.72848e-16 0)
(3 7.95486e-18 0)
(3 -1.37424e-16 0)
(3 2.92059e-16 0)
(3 3.11033e-16 0)
(3 -8.3224e-16 0)
(3 -2.31257e-07 0)
(3.00001 4.01201e-06 0)
(3.05512 0.0846111 0)
(1.6925 0.825039 0)
(1.27975 0.845014 0)
(1.30302 0.840388 0)
(1.32265 0.838945 0)
(1.35977 0.836535 0)
(1.4064 0.833889 0)
(1.46491 0.829178 0)
(3 -5.88167e-17 0)
(3 -4.94408e-17 0)
(3 -1.0527e-16 0)
(3 3.62211e-17 0)
(3 4.50933e-16 0)
(3 6.08191e-16 0)
(3 3.04552e-16 0)
(3 -6.43861e-17 0)
(3 2.3928e-17 0)
(3 -5.94714e-16 0)
(3 -1.27652e-15 0)
(3 -7.32734e-16 0)
(3 -9.1637e-16 0)
(3 6.31056e-16 0)
(3 -2.52559e-09 0)
(3 -1.61545e-07 0)
(3.00687 0.00275224 0)
(2.57148 0.564903 0)
(1.40094 0.903039 0)
(1.33691 0.876117 0)
(1.36393 0.864698 0)
(1.39343 0.859065 0)
(1.43255 0.852594 0)
(1.48054 0.845948 0)
(3 -2.34179e-16 0)
(3 -4.83483e-16 0)
(3 -5.13665e-16 0)
(3 -5.58748e-16 0)
(3 -6.71526e-16 0)
(3 -1.01725e-15 0)
(3 -9.04935e-16 0)
(3 -9.35113e-16 0)
(3 -8.11936e-16 0)
(3 -9.23837e-16 0)
(3 -1.18591e-15 0)
(3 -1.64586e-15 0)
(3 -1.98056e-15 0)
(3 -5.25451e-16 0)
(3 -5.00153e-12 0)
(3 -3.92101e-08 0)
(3.00002 2.40819e-05 0)
(3.05301 0.0593541 0)
(1.84408 0.810679 0)
(1.37987 0.891678 0)
(1.41294 0.882205 0)
(1.43874 0.873633 0)
(1.47168 0.862792 0)
(1.50896 0.853054 0)
(3 -3.24709e-16 0)
(3 -7.12797e-16 0)
(3 -2.97999e-16 0)
(3 1.71372e-16 0)
(3 2.66798e-16 0)
(3 -1.00102e-17 0)
(3 -1.49748e-16 0)
(3 -2.25608e-16 0)
(3 -4.78684e-16 0)
(3 -4.03279e-16 0)
(3 -1.18269e-15 0)
(3 -2.40816e-15 0)
(3 -2.71747e-15 0)
(3 -2.06941e-15 0)
(3 -3.12299e-15 0)
(3 -3.55235e-09 0)
(3 8.98306e-09 0)
(3.00325 0.0022711 0)
(2.71956 0.429083 0)
(1.57278 0.926123 0)
(1.42772 0.907253 0)
(1.46584 0.900614 0)
(1.49589 0.891426 0)
(1.53038 0.87759 0)
(3 1.15216e-16 0)
(3 2.46056e-16 0)
(3 5.04122e-16 0)
(3 1.44806e-16 0)
(3 -4.73361e-17 0)
(3 -1.57595e-16 0)
(3 -1.6404e-16 0)
(3 -3.15279e-16 0)
(3 -3.36859e-16 0)
(3 -4.7113e-16 0)
(3 -8.59472e-16 0)
(3 -6.5454e-16 0)
(3 -8.3737e-16 0)
(3 -8.57886e-16 0)
(3 -1.09441e-15 0)
(3 -1.3258e-10 0)
(3 -1.30517e-10 0)
(3.00001 1.38291e-05 0)
(3.0259 0.0318552 0)
(2.13074 0.765171 0)
(1.49192 0.921955 0)
(1.49584 0.914295 0)
(1.52653 0.901292 0)
(1.55953 0.886359 0)
(3 4.57767e-16 0)
(3 7.17784e-16 0)
(3 7.1785e-16 0)
(3 -1.14692e-16 0)
(3 -2.67525e-16 0)
(3 -7.5048e-16 0)
(3 -3.30448e-16 0)
(3 1.82921e-16 0)
(3 4.38593e-16 0)
(3 -3.49828e-16 0)
(3 -8.96117e-16 0)
(3 -4.47645e-16 0)
(3 2.12363e-16 0)
(3 1.42092e-16 0)
(3 -1.09808e-16 0)
(3 -1.07553e-12 0)
(3 -4.05526e-11 0)
(3 6.48061e-09 0)
(3.00069 0.00124247 0)
(2.91497 0.232052 0)
(1.80285 0.880401 0)
(1.5211 0.931632 0)
(1.55458 0.920123 0)
(1.58892 0.903883 0)
(3 2.40836e-16 0)
(3 3.23047e-16 0)
(3 1.67348e-16 0)
(3 5.59894e-16 0)
(3 1.20816e-15 0)
(3 1.06377e-15 0)
(3 6.72334e-16 0)
(3 8.61674e-16 0)
(3 6.28355e-16 0)
(3 4.47923e-16 0)
(3 3.23783e-16 0)
(3 8.94252e-17 0)
(3 4.34989e-16 0)
(3 3.51084e-16 0)
(3 7.96041e-16 0)
(3 -1.53986e-15 0)
(3 -5.18358e-12 0)
(3 -4.29233e-12 0)
(3 4.33554e-06 0)
(3.007 0.0139558 0)
(2.53144 0.559816 0)
(1.65944 0.953598 0)
(1.56215 0.938441 0)
(1.59969 0.926341 0)
(3 -1.65417e-16 0)
(3 -2.07501e-16 0)
(3 8.68716e-17 0)
(3 5.1387e-16 0)
(3 4.16691e-16 0)
(3 4.10774e-16 0)
(3 2.73305e-16 0)
(3 2.57231e-16 0)
(3 1.73692e-16 0)
(3 1.55134e-15 0)
(3 2.97817e-15 0)
(3 2.51458e-15 0)
(3 8.41229e-16 0)
(3 3.03411e-16 0)
(3 2.19708e-16 0)
(3 1.661e-15 0)
(3 -1.43491e-13 0)
(3 -1.46507e-12 0)
(3 1.96202e-09 0)
(3.00002 0.000293324 0)
(2.99903 0.0732175 0)
(2.15625 0.777296 0)
(1.62501 0.947458 0)
(1.61879 0.943639 0)
(3 -7.92812e-17 0)
(3 -1.29085e-16 0)
(3 -6.04883e-17 0)
(3 -2.22391e-16 0)
(3 -4.38165e-16 0)
(3 -4.28406e-16 0)
(3 -2.83097e-16 0)
(3 -5.90851e-16 0)
(3 2.42347e-16 0)
(3 1.69706e-15 0)
(3 2.20158e-15 0)
(3 1.06061e-15 0)
(3 5.70572e-16 0)
(3 4.7939e-16 0)
(3 5.08889e-16 0)
(3 1.2066e-15 0)
(3 3.35027e-16 0)
(3 -2.2044e-13 0)
(3 2.17033e-13 0)
(3 4.78831e-07 0)
(3.00061 0.00358358 0)
(2.86742 0.260301 0)
(1.93175 0.871512 0)
(1.65814 0.955143 0)
(3 1.30151e-16 0)
(3 1.22863e-16 0)
(3 -1.24716e-16 0)
(3 -3.57201e-16 0)
(3 -4.35167e-16 0)
(3 -4.66701e-16 0)
(3 -6.01123e-16 0)
(3 -1.01247e-15 0)
(3 -5.56395e-16 0)
(3 -2.29137e-16 0)
(3 -6.03414e-16 0)
(3 -8.90102e-16 0)
(3 -8.21422e-16 0)
(3 -5.52481e-16 0)
(3 -2.63354e-16 0)
(3 -1.06225e-16 0)
(3 1.32349e-16 0)
(3 -1.58557e-14 0)
(3 -1.5769e-14 0)
(3 2.6026e-10 0)
(3 2.22748e-05 0)
(3.00094 0.0185694 0)
(2.60308 0.489243 0)
(1.83733 0.928894 0)
(3 -2.08763e-16 0)
(3 -2.93971e-16 0)
(3 -3.59842e-16 0)
(3 -1.4726e-16 0)
(3 -6.38427e-17 0)
(3 -1.2861e-16 0)
(3 7.18003e-17 0)
(3 -8.25676e-17 0)
(3 -1.05073e-16 0)
(3 -5.06316e-16 0)
(3 -1.00759e-15 0)
(3 -1.39432e-15 0)
(3 -1.04093e-15 0)
(3 -1.07929e-15 0)
(3 -8.11274e-16 0)
(3 -2.52031e-16 0)
(3 -1.1212e-16 0)
(3 -1.18384e-15 0)
(3 -5.56384e-15 0)
(3 3.48301e-14 0)
(3 1.94271e-08 0)
(2.99995 0.000397442 0)
(2.98548 0.0583766 0)
(2.36577 0.66582 0)
(3 -1.40666e-16 0)
(3 -4.75626e-16 0)
(3 -2.24983e-16 0)
(3 2.39673e-16 0)
(3 8.35631e-16 0)
(3 1.28688e-15 0)
(3 1.33293e-15 0)
(3 1.62082e-15 0)
(3 1.50724e-15 0)
(3 1.33168e-15 0)
(3 6.40303e-16 0)
(3 -3.51417e-17 0)
(3 -5.52707e-16 0)
(3 -8.45164e-16 0)
(3 -6.35212e-16 0)
(3 -1.50269e-16 0)
(3 -8.67134e-17 0)
(3 1.12264e-16 0)
(3 -4.06617e-16 0)
(3 -8.85321e-16 0)
(3 8.34069e-12 0)
(3 7.62541e-07 0)
(2.99974 0.00252732 0)
(2.92798 0.1486 0)
(3 2.2022e-16 0)
(3 4.41409e-16 0)
(3 2.37942e-16 0)
(3 -1.99511e-16 0)
(3 -4.99601e-17 0)
(3 2.18824e-16 0)
(3 2.51039e-16 0)
(3 9.90969e-16 0)
(3 1.26521e-15 0)
(3 2.27249e-15 0)
(3 2.58017e-15 0)
(3 2.57498e-15 0)
(3 1.20438e-15 0)
(3 6.38172e-16 0)
(3 3.67744e-16 0)
(3 8.76319e-17 0)
(3 4.82513e-17 0)
(3 2.20545e-16 0)
(3 3.3704e-16 0)
(3 -2.58671e-16 0)
(3 1.46784e-16 0)
(3 6.08763e-10 0)
(3 1.20745e-05 0)
(2.99879 0.00864141 0)
(3 3.60124e-17 0)
(3 3.04924e-16 0)
(3 9.1803e-17 0)
(3 -1.95419e-16 0)
(3 -7.14217e-16 0)
(3 -8.40407e-16 0)
(3 -4.9299e-16 0)
(3 -3.16272e-16 0)
(3 -1.07982e-16 0)
(3 9.85986e-16 0)
(3 1.3881e-15 0)
(3 1.54109e-15 0)
(3 1.24483e-15 0)
(3 1.75554e-15 0)
(3 1.72226e-15 0)
(3 1.42431e-15 0)
(3 1.07963e-15 0)
(3 6.47576e-16 0)
(3 8.3135e-16 0)
(3 1.27061e-15 0)
(3 7.33333e-16 0)
(3 8.24544e-14 0)
(3 1.51845e-08 0)
(2.99998 8.1607e-05 0)
(3 -9.19648e-17 0)
(3 -3.38964e-17 0)
(3 2.80704e-16 0)
(3 2.31492e-16 0)
(3 -3.13965e-16 0)
(3 -3.32895e-16 0)
(3 -4.28237e-16 0)
(3 -8.9544e-16 0)
(3 -7.32406e-16 0)
(3 -6.24711e-16 0)
(3 -3.72319e-16 0)
(3 -4.28336e-16 0)
(3 6.45113e-16 0)
(3 8.45421e-16 0)
(3 7.33582e-16 0)
(3 7.75521e-16 0)
(3 1.08124e-15 0)
(3 1.59351e-15 0)
(3 1.20528e-15 0)
(3 1.52179e-15 0)
(3 1.08289e-15 0)
(3 1.43957e-15 0)
(3 4.66116e-12 0)
(3 1.39943e-07 0)
(3 4.0363e-17 0)
(3 4.46772e-17 0)
(3 2.8488e-17 0)
(3 1.66371e-16 0)
(3 2.98811e-16 0)
(3 8.74173e-16 0)
(3 8.42388e-16 0)
(3 5.40671e-16 0)
(3 -9.12657e-17 0)
(3 -8.18408e-16 0)
(3 -1.53788e-15 0)
(3 -1.71871e-15 0)
(3 -1.04293e-15 0)
(3 -9.54918e-17 0)
(3 -1.9102e-16 0)
(3 -7.41822e-16 0)
(3 -2.91327e-16 0)
(3 3.74493e-16 0)
(3 4.50683e-16 0)
(3 7.79378e-16 0)
(3 -1.39913e-16 0)
(3 -1.11635e-15 0)
(3 -1.37311e-16 0)
(3 1.05597e-10 0)
(3 -2.39928e-17 0)
(3 -2.60535e-16 0)
(3 -1.25339e-16 0)
(3 1.96502e-16 0)
(3 1.27029e-15 0)
(3 1.56646e-15 0)
(3 1.31931e-15 0)
(3 7.77616e-16 0)
(3 -1.08076e-15 0)
(3 -1.79778e-15 0)
(3 -1.51455e-15 0)
(3 -8.00159e-16 0)
(3 1.36165e-16 0)
(3 5.39485e-16 0)
(3 6.53168e-16 0)
(3 3.81198e-16 0)
(3 6.38101e-17 0)
(3 -9.89351e-17 0)
(3 3.2157e-16 0)
(3 3.51048e-16 0)
(3 5.60139e-16 0)
(3 1.15965e-16 0)
(3 5.63412e-17 0)
(3 1.21341e-14 0)
(3 1.52398e-17 0)
(3 6.81794e-17 0)
(3 2.91264e-16 0)
(3 5.18067e-16 0)
(3 5.25555e-16 0)
(3 4.30306e-17 0)
(3 -2.54367e-16 0)
(3 -5.53627e-16 0)
(3 -8.19325e-16 0)
(3 -1.61428e-15 0)
(3 3.97597e-17 0)
(3 7.02037e-16 0)
(3 1.49663e-15 0)
(3 7.94407e-16 0)
(3 5.25205e-16 0)
(3 7.76739e-16 0)
(3 4.99719e-16 0)
(3 4.88153e-16 0)
(3 1.16664e-15 0)
(3 7.98774e-16 0)
(3 1.02575e-15 0)
(3 1.30897e-15 0)
(3 1.84405e-15 0)
(3 1.71587e-15 0)
(3 1.07427e-17 0)
(3 1.4811e-16 0)
(3 -4.23589e-17 0)
(3 1.25035e-16 0)
(3 1.43044e-16 0)
(3 -4.5807e-16 0)
(3 -1.07791e-15 0)
(3 -1.08584e-15 0)
(3 8.43052e-17 0)
(3 1.94091e-16 0)
(3 2.65462e-16 0)
(3 4.32102e-16 0)
(3 1.97794e-16 0)
(3 -1.11323e-15 0)
(3 -2.0111e-15 0)
(3 -1.68965e-15 0)
(3 -3.93201e-16 0)
(3 1.1358e-15 0)
(3 1.0173e-15 0)
(3 3.15265e-16 0)
(3 1.01576e-15 0)
(3 8.73133e-16 0)
(3 9.39477e-16 0)
(3 9.15477e-16 0)
(3 -7.01129e-17 0)
(3 -2.26013e-16 0)
(3 -4.65021e-16 0)
(3 -5.02952e-16 0)
(3 -5.69415e-16 0)
(3 -9.35535e-16 0)
(3 -1.12073e-15 0)
(3 -1.30259e-15 0)
(3 -1.44991e-16 0)
(3 3.16064e-16 0)
(3 1.92486e-16 0)
(3 6.90932e-16 0)
(3 -7.28859e-16 0)
(3 -1.49081e-15 0)
(3 -1.78978e-15 0)
(3 -9.58611e-16 0)
(3 -1.46617e-16 0)
(3 4.12341e-16 0)
(3 4.6298e-16 0)
(3 2.48792e-16 0)
(3 1.27438e-15 0)
(3 1.11559e-15 0)
(3 5.6688e-16 0)
(3 7.54092e-16 0)
(1.52061 1.24014 0)
(2.02318 1.35957 0)
(2.15426 1.57244 0)
(2.30833 0.736431 0)
(2.52051 0.36994 0)
(2.60686 0.046132 0)
(2.60373 -0.166707 0)
(2.53259 -0.257498 0)
(2.43194 -0.428591 0)
(2.48025 -0.448682 0)
(2.47112 -0.285089 0)
(2.43441 -0.17152 0)
(2.40993 -0.143475 0)
(2.38885 -0.132445 0)
(2.36026 -0.114776 0)
(2.36844 -0.0837182 0)
(2.39792 -0.0509381 0)
(2.40964 -0.0394165 0)
(2.39846 -0.0236201 0)
(2.38111 -0.0180387 0)
(2.38572 -0.0158465 0)
(2.38749 -0.0112658 0)
(2.38498 -0.00378138 0)
(2.38529 -0.00134461 0)
(2.38947 -0.00552734 0)
(2.39442 -0.00892717 0)
(2.39492 -0.0104698 0)
(2.39188 -0.00995987 0)
(2.38716 -0.00810395 0)
(2.0256 0.0236881 0)
(0.872758 0.046591 0)
(0.695453 0.0172213 0)
(0.701688 -0.00339077 0)
(0.731931 -0.0263716 0)
(0.779226 -0.0407091 0)
(0.826524 -0.0434212 0)
(0.866543 -0.0392255 0)
(0.903014 -0.0345464 0)
(0.943805 -0.032842 0)
(0.991329 -0.0340597 0)
(1.04398 -0.0363488 0)
(1.09531 -0.0377415 0)
(1.14035 -0.0350951 0)
(1.1751 -0.0287605 0)
(1.20508 -0.0226889 0)
(1.23624 -0.018942 0)
(1.27333 -0.0175543 0)
(1.3158 -0.0175303 0)
(1.35522 -0.0176604 0)
(1.38476 -0.0155441 0)
(1.40842 -0.0118006 0)
(1.432 -0.00738292 0)
(1.4575 -0.00398275 0)
(1.48992 -0.00261108 0)
(1.52921 -0.00460767 0)
(1.56148 -0.0105083 0)
(1.58441 -0.011345 0)
(1.60536 -0.00882423 0)
(1.62142 -0.00268544 0)
(1.63855 0.00265709 0)
(1.65815 0.00460734 0)
(1.68333 0.00468884 0)
(1.71322 0.00234531 0)
(1.73997 -0.00334302 0)
(1.76277 -0.00703759 0)
(1.784 -0.00700549 0)
(1.79723 -0.00331364 0)
(1.80779 0.00293442 0)
(1.82385 0.00661231 0)
(1.84233 0.00737261 0)
(1.8639 0.00725628 0)
(1.88872 0.00544584 0)
(1.90883 0.00166166 0)
(1.92766 0.000350814 0)
(1.94295 0.000831547 0)
(1.94927 0.0038722 0)
(1.95708 0.00720206 0)
(1.97267 0.00825412 0)
(1.99077 0.00834462 0)
(2.01123 0.00824325 0)
(2.03441 0.00663623 0)
(2.05221 0.00437636 0)
(2.06891 0.00376722 0)
(2.07934 0.00443274 0)
(2.08047 0.00680503 0)
(2.08733 0.00854721 0)
(2.1032 0.00882167 0)
(2.12097 0.00893504 0)
(2.14115 0.00877122 0)
(2.16149 0.00713629 0)
(2.17895 0.00578003 0)
(2.19495 0.0042012 0)
(2.20029 0.00451713 0)
(2.19495 0.00831422 0)
(2.19655 0.0111458 0)
(2.21519 0.0111527 0)
(1.77106 1.09275 0)
(2.28252 0.725922 0)
(2.52932 0.541054 0)
(2.66833 0.223068 0)
(2.73067 -0.294379 0)
(2.69612 -0.463256 0)
(2.70075 -0.545746 0)
(2.72212 -0.604512 0)
(2.74586 -0.611921 0)
(2.70281 -0.547756 0)
(2.5701 -0.40225 0)
(2.49834 -0.266274 0)
(2.47356 -0.214757 0)
(2.47039 -0.161514 0)
(2.45382 -0.0968698 0)
(2.44273 -0.0631279 0)
(2.44993 -0.0332941 0)
(2.45154 -0.0178104 0)
(2.43143 0.00536333 0)
(2.41983 0.0063223 0)
(2.40887 -0.00405709 0)
(2.40608 -0.0114924 0)
(2.40647 -0.0147904 0)
(2.41445 -0.0112856 0)
(2.42181 -0.00554622 0)
(2.42378 -0.00588891 0)
(2.42477 -0.0103965 0)
(2.41974 -0.010899 0)
(2.41553 -0.00753622 0)
(2.1832 0.0878517 0)
(0.963186 0.133102 0)
(0.772385 0.0192819 0)
(0.80664 -0.0583045 0)
(0.865263 -0.0712675 0)
(0.910639 -0.0808836 0)
(0.955329 -0.0826669 0)
(0.994488 -0.0731377 0)
(1.02502 -0.0508933 0)
(1.05343 -0.030038 0)
(1.08418 -0.0210713 0)
(1.11935 -0.0257875 0)
(1.16329 -0.0400938 0)
(1.21089 -0.0507255 0)
(1.24887 -0.0455842 0)
(1.27327 -0.0305482 0)
(1.29633 -0.0138041 0)
(1.32114 -0.00579805 0)
(1.35126 -0.00975332 0)
(1.38983 -0.0204199 0)
(1.42622 -0.0264318 0)
(1.45234 -0.0239133 0)
(1.47454 -0.0139833 0)
(1.4966 0.0013598 0)
(1.51961 0.0114863 0)
(1.54265 0.00930212 0)
(1.57136 -0.00283883 0)
(1.60112 -0.0168628 0)
(1.62483 -0.0220268 0)
(1.645 -0.0198315 0)
(1.66506 -0.00777395 0)
(1.68373 0.00738799 0)
(1.70283 0.017026 0)
(1.72184 0.0172143 0)
(1.7429 0.00974012 0)
(1.76595 -0.00279766 0)
(1.78716 -0.0150842 0)
(1.80669 -0.0190799 0)
(1.82588 -0.0119446 0)
(1.84218 0.00422075 0)
(1.8569 0.0187992 0)
(1.87249 0.0253091 0)
(1.88966 0.0236396 0)
(1.90918 0.0158497 0)
(1.92807 0.00398828 0)
(1.94421 -0.00543803 0)
(1.9598 -0.00593678 0)
(1.97328 0.00407726 0)
(1.98449 0.0174871 0)
(1.99688 0.0257927 0)
(2.01293 0.0274223 0)
(2.03051 0.0242679 0)
(2.0493 0.0171212 0)
(2.06632 0.00792761 0)
(2.08092 0.00103297 0)
(2.09179 0.00310076 0)
(2.10043 0.0138058 0)
(2.10986 0.0241457 0)
(2.12294 0.0282493 0)
(2.13946 0.0277071 0)
(2.15715 0.0239866 0)
(2.17464 0.0176696 0)
(2.18978 0.00897576 0)
(2.20081 0.00115864 0)
(2.20646 0.00496575 0)
(2.20844 0.0202539 0)
(2.21996 0.0300023 0)
(1.65315 1.05563 0)
(2.01754 0.911147 0)
(2.39946 0.528977 0)
(2.54321 0.360526 0)
(2.60511 0.158608 0)
(2.65479 -0.0141934 0)
(2.66592 -0.0526995 0)
(2.75076 -0.236264 0)
(2.78232 -0.375594 0)
(2.75902 -0.42232 0)
(2.73841 -0.427162 0)
(2.68342 -0.455784 0)
(2.66101 -0.439127 0)
(2.65873 -0.365475 0)
(2.65935 -0.292284 0)
(2.65491 -0.239976 0)
(2.62661 -0.169996 0)
(2.54645 -0.0986334 0)
(2.51475 -0.0619632 0)
(2.49638 -0.0546061 0)
(2.48602 -0.0450643 0)
(2.46803 -0.0121379 0)
(2.46961 0.0223315 0)
(2.48276 0.0207458 0)
(2.49029 -0.000871221 0)
(2.48912 -0.0144923 0)
(2.48395 -0.0192368 0)
(2.47634 -0.0086754 0)
(2.46713 -0.0124807 0)
(2.42305 -0.0548239 0)
(1.29892 0.0946947 0)
(1.00864 0.00231633 0)
(1.06967 -0.0888675 0)
(1.13691 -0.0959429 0)
(1.15827 -0.077811 0)
(1.18057 -0.071176 0)
(1.21167 -0.0804204 0)
(1.24556 -0.0907249 0)
(1.2661 -0.0927764 0)
(1.28226 -0.0880326 0)
(1.29826 -0.0754344 0)
(1.31817 -0.0676933 0)
(1.34516 -0.0678282 0)
(1.37746 -0.0730092 0)
(1.4033 -0.0720243 0)
(1.42204 -0.0637371 0)
(1.43897 -0.0457118 0)
(1.45849 -0.0290071 0)
(1.48134 -0.0236733 0)
(1.50752 -0.0290765 0)
(1.53429 -0.0365761 0)
(1.55715 -0.0373281 0)
(1.57744 -0.0316229 0)
(1.59604 -0.0186812 0)
(1.6098 -0.00188355 0)
(1.62549 0.00813099 0)
(1.64397 0.00702284 0)
(1.66593 -0.00248014 0)
(1.69321 -0.0100707 0)
(1.71784 -0.00996761 0)
(1.73771 -0.00509964 0)
(1.75568 0.00410126 0)
(1.76633 0.0151088 0)
(1.77325 0.0195683 0)
(1.78729 0.0144091 0)
(1.80543 0.0067038 0)
(1.8306 -0.00171933 0)
(1.85573 -0.00354342 0)
(1.87534 0.000803668 0)
(1.89396 0.0121651 0)
(1.9063 0.0269748 0)
(1.91066 0.0364983 0)
(1.92031 0.0330442 0)
(1.93565 0.0243877 0)
(1.95394 0.0155441 0)
(1.97618 0.00845099 0)
(1.99372 0.00781197 0)
(2.01061 0.0145197 0)
(2.02316 0.0283655 0)
(2.02945 0.0395881 0)
(2.03816 0.0401132 0)
(2.05246 0.0338151 0)
(2.06751 0.0260442 0)
(2.0844 0.0198778 0)
(2.10216 0.0155204 0)
(2.1183 0.0171506 0)
(2.13258 0.0266797 0)
(2.14209 0.0387149 0)
(2.14908 0.044339 0)
(2.15951 0.0412252 0)
(2.17241 0.0341278 0)
(2.18475 0.026083 0)
(2.19761 0.0195194 0)
(2.21272 0.0174801 0)
(2.22561 0.0254069 0)
(2.23861 0.0407074 0)
(1.589 0.988732 0)
(1.92279 0.832657 0)
(2.13533 0.696518 0)
(2.26006 0.593351 0)
(2.4469 0.352831 0)
(2.58045 0.0770985 0)
(2.61785 0.0115321 0)
(2.66622 -0.117073 0)
(2.70979 -0.286885 0)
(2.72082 -0.333931 0)
(2.74881 -0.411525 0)
(2.74957 -0.480132 0)
(2.77089 -0.488462 0)
(2.76247 -0.459181 0)
(2.75488 -0.432972 0)
(2.73176 -0.405954 0)
(2.69845 -0.346016 0)
(2.65083 -0.259648 0)
(2.63153 -0.218322 0)
(2.61634 -0.195029 0)
(2.59428 -0.157181 0)
(2.54782 -0.0873038 0)
(2.53991 -0.0290541 0)
(2.54264 -0.0161878 0)
(2.54545 -0.011384 0)
(2.53376 -0.0135833 0)
(2.53149 -0.00788474 0)
(2.52128 0.000323658 0)
(2.50913 -0.0203298 0)
(2.34448 -0.262791 0)
(1.82939 -0.226824 0)
(1.2929 -0.0432635 0)
(1.31271 -0.0477839 0)
(1.37128 -0.0843296 0)
(1.38928 -0.0975461 0)
(1.39717 -0.0906489 0)
(1.40981 -0.0817267 0)
(1.43764 -0.0772926 0)
(1.45766 -0.0788878 0)
(1.47085 -0.0791921 0)
(1.47971 -0.0721855 0)
(1.48396 -0.0570927 0)
(1.49551 -0.0478815 0)
(1.51184 -0.0465973 0)
(1.53397 -0.0495936 0)
(1.55406 -0.0495884 0)
(1.57086 -0.0437483 0)
(1.58519 -0.029746 0)
(1.59679 -0.0142634 0)
(1.61181 -0.00590041 0)
(1.62972 -0.00605879 0)
(1.65071 -0.0116903 0)
(1.6701 -0.0187233 0)
(1.68715 -0.0225938 0)
(1.70297 -0.02116 0)
(1.71375 -0.00990835 0)
(1.72318 0.00601805 0)
(1.73943 0.0149072 0)
(1.75874 0.0157712 0)
(1.7821 0.00887845 0)
(1.80128 -0.000145058 0)
(1.81691 -0.00758016 0)
(1.82874 -0.0120634 0)
(1.8364 -0.0082572 0)
(1.84449 0.00309773 0)
(1.85951 0.0130936 0)
(1.87709 0.0173925 0)
(1.89758 0.0164225 0)
(1.9168 0.0132083 0)
(1.93437 0.0109685 0)
(1.94847 0.0103419 0)
(1.95512 0.0163658 0)
(1.95759 0.026898 0)
(1.9689 0.033364 0)
(1.98494 0.0349919 0)
(2.00273 0.0328845 0)
(2.02224 0.0286614 0)
(2.03842 0.0270267 0)
(2.05331 0.0272893 0)
(2.06064 0.0318029 0)
(2.06188 0.0383096 0)
(2.0692 0.0404961 0)
(2.08485 0.0402455 0)
(2.10098 0.0402283 0)
(2.12011 0.038367 0)
(2.13888 0.0365802 0)
(2.15533 0.0366297 0)
(2.16922 0.0403334 0)
(2.17379 0.0478661 0)
(2.17287 0.051932 0)
(2.17779 0.0488112 0)
(2.19033 0.0448429 0)
(2.2055 0.0448605 0)
(2.22181 0.0456533 0)
(2.23866 0.0483394 0)
(2.26203 0.0512977 0)
(1.55965 0.925355 0)
(1.81087 0.825286 0)
(1.9736 0.75378 0)
(2.14472 0.634115 0)
(2.33338 0.408703 0)
(2.41376 0.312555 0)
(2.45602 0.24331 0)
(2.56375 0.0555463 0)
(2.61315 -0.10298 0)
(2.63889 -0.127665 0)
(2.65828 -0.166291 0)
(2.69506 -0.279889 0)
(2.72015 -0.317909 0)
(2.72279 -0.323988 0)
(2.70283 -0.385812 0)
(2.70644 -0.412969 0)
(2.71312 -0.412228 0)
(2.7139 -0.394206 0)
(2.70502 -0.368815 0)
(2.69355 -0.337477 0)
(2.67407 -0.287134 0)
(2.62541 -0.188066 0)
(2.60494 -0.116382 0)
(2.59603 -0.0878558 0)
(2.59567 -0.0679845 0)
(2.57182 -0.0553774 0)
(2.56968 -0.0369686 0)
(2.53923 -0.0545582 0)
(2.41397 -0.183478 0)
(2.0905 -0.472826 0)
(2.01026 -0.613774 0)
(1.62046 -0.306784 0)
(1.47323 -0.14391 0)
(1.48049 -0.0861703 0)
(1.49888 -0.0683964 0)
(1.50817 -0.0723165 0)
(1.5251 -0.0802491 0)
(1.54268 -0.0849295 0)
(1.56498 -0.085224 0)
(1.57989 -0.0805058 0)
(1.59034 -0.0744829 0)
(1.59557 -0.0632012 0)
(1.59572 -0.0507833 0)
(1.6052 -0.0463568 0)
(1.61988 -0.0464303 0)
(1.64023 -0.0467809 0)
(1.66024 -0.0431281 0)
(1.67635 -0.0374127 0)
(1.6896 -0.0287349 0)
(1.69763 -0.0183812 0)
(1.70828 -0.0126104 0)
(1.72504 -0.0126693 0)
(1.74219 -0.014601 0)
(1.75941 -0.0159831 0)
(1.77543 -0.0148377 0)
(1.79006 -0.00827184 0)
(1.80201 0.00445866 0)
(1.81078 0.0176649 0)
(1.82369 0.0226133 0)
(1.84149 0.0199251 0)
(1.85782 0.0120371 0)
(1.87213 0.00370122 0)
(1.88539 -0.00088832 0)
(1.89889 0.000591239 0)
(1.91146 0.00951588 0)
(1.92109 0.0233629 0)
(1.93073 0.0331089 0)
(1.94488 0.0346485 0)
(1.96052 0.0323159 0)
(1.97563 0.0280125 0)
(1.98919 0.023329 0)
(2.00094 0.022222 0)
(2.01046 0.0288037 0)
(2.01688 0.0412334 0)
(2.02601 0.0501194 0)
(2.04082 0.0521208 0)
(2.05614 0.0506571 0)
(2.07106 0.0459413 0)
(2.08327 0.0392481 0)
(2.09071 0.0334787 0)
(2.09562 0.0343944 0)
(2.10342 0.0425554 0)
(2.11618 0.051133 0)
(2.13208 0.0554355 0)
(2.14849 0.0568293 0)
(2.16497 0.0552627 0)
(2.18056 0.0522225 0)
(2.19324 0.0479149 0)
(2.19766 0.0443856 0)
(2.19522 0.0459747 0)
(2.19868 0.0519274 0)
(2.21205 0.0581989 0)