/*--------------------------------*- C++ -*----------------------------------*\
  =========                 |
  \\      /  F ield         | OpenFOAM: The Open Source CFD Toolbox
   \\    /   O peration     | Website:  https://openfoam.org
    \\  /    A nd           | Version:  7
     \\/     M anipulation  |
\*---------------------------------------------------------------------------*/
FoamFile
{
    version     2.0;
    format      ascii;
    class       surfaceScalarField;
    location    "50";
    object      phi;
}
// * * * * * * * * * * * * * * * * * * * * * * * * * * * * * * * * * * * * * //

dimensions      [0 3 -1 0 0 0 0];

internalField   nonuniform List<scalar> 
3883
(
-0.00748571
0.000172603
0.000162126
-0.0065817
0.000131828
-0.00685858
9.92629e-05
-0.00714848
-0.00745083
6.4383e-05
0.000102993
-0.00628747
7.00026e-05
-0.00654871
3.5002e-05
-0.00682358
-1.83342e-06
-0.00711165
-0.00740977
-4.28945e-05
1.62002e-05
-0.00625205
-2.13964e-05
-0.00651112
-6.11919e-05
-0.00678378
-0.000103699
-0.00706914
-0.00736498
-0.00014849
-6.98209e-05
-0.00621221
-0.000111982
-0.00646896
-0.000156554
-0.00673921
-0.000203809
-0.00702188
-0.00731522
-0.000253573
-0.000155031
-0.00616799
-0.000201742
-0.00642225
-0.000251012
-0.00668994
-0.000303001
-0.0069699
-0.00726044
-0.00035778
-0.000239374
-0.000290598
-0.00637102
-0.000344518
-0.00663602
-0.000401254
-0.00691316
-0.00720071
-0.00046098
-0.000378497
-0.00631532
-0.000437028
-0.00657749
-0.000498494
-0.00685169
-0.0071361
-0.000563103
-0.000465383
-0.00625519
-0.00052849
-0.00651438
-0.000594653
-0.00678553
-0.00706667
-0.000664081
-0.000551204
-0.00619067
-0.000618849
-0.00644674
-0.000689668
-0.00671471
-0.00699249
-0.000763852
-0.000635905
-0.000708049
-0.00637459
-0.00078348
-0.00663928
-0.00691361
-0.000862356
-0.000796031
-0.006298
-0.000876031
-0.00655928
-0.00683011
-0.000959534
-0.00088274
-0.00621699
-0.000967265
-0.00647475
-0.00674205
-0.00105533
-0.000968118
-0.00105712
-0.00638575
-0.00664948
-0.00114969
-0.00114555
-0.00629231
-0.00655248
-0.00124255
-0.00123249
-0.00619447
-0.00645111
-0.00133386
-0.00131788
-0.00634543
-0.00142357
-0.00623547
-0.00151162
-0.00612133
-0.00159794
-0.00168234
0.000155254
-0.00452172
0.000138245
-0.00467916
0.000121996
-0.00484426
0.000106754
-0.00501693
9.15191e-05
-0.00519534
7.71065e-05
-0.0053816
6.33672e-05
-0.00557452
5.02504e-05
-0.00577434
3.77355e-05
-0.0059813
2.58112e-05
-0.00619562
1.44609e-05
-0.00641756
3.58971e-06
-0.00664727
-6.0798e-06
-0.00688552
-1.49675e-05
-0.00713192
-2.33033e-05
-0.00738688
-3.10264e-05
-0.00765085
-3.81053e-05
-0.00792409
-4.45179e-05
-0.00820694
-5.02469e-05
-0.00849972
-0.00880276
4.74243e-05
-0.00450477
3.11996e-05
-0.00466293
1.56149e-05
-0.00482867
2.24002e-07
-0.00500154
-1.23798e-05
-0.00518274
-2.48819e-05
-0.00536909
-3.68171e-05
-0.00556258
-4.81461e-05
-0.00576301
-5.88355e-05
-0.00597061
-6.88569e-05
-0.0061856
-7.81949e-05
-0.00640822
-8.67498e-05
-0.00663871
-9.47486e-05
-0.00687753
-0.000102013
-0.00712465
-0.000108496
-0.00738039
-0.000114218
-0.00764512
-0.000119167
-0.00791915
-0.000123335
-0.00820278
-0.000126709
-0.00849634
-0.000129279
-0.00880019
-0.000131032
-0.00911467
-0.00013196
-0.00944016
-0.000132008
-0.00977706
-0.000131306
-0.0101259
-0.0001297
-0.0104868
-0.000127226
-0.0108605
-0.000123877
-0.0112473
-0.000119645
-0.0116479
-0.000114524
-0.0120627
-0.000108511
-0.0124922
-0.000101603
-0.0129373
-9.37973e-05
-0.0133983
-8.50964e-05
-0.0138762
-7.55039e-05
-0.0143716
-6.50269e-05
-0.0148852
-5.36789e-05
-0.0154181
-4.14735e-05
-0.0159711
-2.84407e-05
-0.0165452
-1.46099e-05
-0.0171414
-0.0177611
-5.8662e-05
-0.004489
-7.33827e-05
-0.00464821
-8.72571e-05
-0.0048148
-9.9956e-05
-0.00498884
-0.000112626
-0.00517007
-0.000124185
-0.00535754
-0.000135017
-0.00555175
-0.000145082
-0.00575295
-0.000154373
-0.00596131
-0.000162887
-0.00617709
-0.000170606
-0.0064005
-0.000177494
-0.00663183
-0.000183653
-0.00687137
-0.000189004
-0.0071193
-0.000193497
-0.0073759
-0.000197135
-0.00764149
-0.000199907
-0.00791637
-0.000201802
-0.00820088
-0.000202809
-0.00849534
-0.000202913
-0.00880009
-0.000202102
-0.00911549
-0.00020036
-0.00944191
-0.000197661
-0.00977976
-0.00019406
-0.0101295
-0.000189474
-0.0104914
-0.000183908
-0.0108661
-0.000177353
-0.0112539
-0.0001698
-0.0116554
-0.00016124
-0.0120712
-0.000151666
-0.0125018
-0.000141071
-0.0129478
-0.00012945
-0.01341
-0.000116801
-0.0138888
-0.000103125
-0.0143852
-8.84239e-05
-0.0148999
-7.2706e-05
-0.0154338
-5.59814e-05
-0.0159878
-3.82744e-05
-0.0165629
-1.9608e-05
-0.01716
-0.0177807
-0.000163138
-0.00447435
-0.000177059
-0.00463429
-0.00018991
-0.00480195
-0.000201762
-0.00497699
-0.000213043
-0.00515879
-0.000223427
-0.00534715
-0.00023295
-0.00554223
-0.000241628
-0.00574427
-0.000249453
-0.00595349
-0.000256415
-0.00617013
-0.000262499
-0.00639442
-0.000267694
-0.00662663
-0.000272027
-0.00686703
-0.000275463
-0.00711587
-0.000277968
-0.0073734
-0.00027953
-0.00763992
-0.000280136
-0.00791577
-0.000279771
-0.00820124
-0.000278423
-0.00849668
-0.000276077
-0.00880243
-0.000272716
-0.00911885
-0.000268324
-0.0094463
-0.000262885
-0.0097852
-0.000256413
-0.010136
-0.000248864
-0.010499
-0.000240223
-0.0108747
-0.000230482
-0.0112636
-0.000219628
-0.0116663
-0.000207649
-0.0120832
-0.000194535
-0.0125149
-0.000180276
-0.0129621
-0.000164864
-0.0134254
-0.000148292
-0.0139054
-0.000130558
-0.014403
-0.000111659
-0.0149188
-9.16003e-05
-0.0154539
-7.03863e-05
-0.016009
-4.80372e-05
-0.0165853
-2.45697e-05
-0.0171835
-0.0178053
-0.000267262
-0.00446066
-0.000280158
-0.0046214
-0.000291976
-0.00479013
-0.000302832
-0.00496614
-0.000312843
-0.00514878
-0.00032197
-0.00533803
-0.000330182
-0.00553402
-0.000337474
-0.00573697
-0.000343835
-0.00594713
-0.000349255
-0.00616471
-0.000353716
-0.00638996
-0.000357212
-0.00662313
-0.000359743
-0.0068645
-0.000361289
-0.00711432
-0.000361822
-0.00737286
-0.000361324
-0.00764042
-0.00035978
-0.00791731
-0.000357175
-0.00820385
-0.000353491
-0.00850037
-0.000348712
-0.00880721
-0.000342822
-0.00912474
-0.0003358
-0.00945332
-0.000327634
-0.00979336
-0.00031832
-0.0101453
-0.000307825
-0.0105095
-0.000296133
-0.0108864
-0.000283227
-0.0112765
-0.000269095
-0.0116804
-0.000253721
-0.0120986
-0.000237091
-0.0125316
-0.000219193
-0.01298
-0.000200015
-0.0134445
-0.000179548
-0.0139259
-0.000157783
-0.0144247
-0.000134717
-0.0149419
-0.000110348
-0.0154783
-8.46787e-05
-0.0160347
-5.77224e-05
-0.0166123
-2.94914e-05
-0.0172117
-0.0178348
-0.000370565
-0.00444788
-0.000382433
-0.00460953
-0.000393202
-0.00477936
-0.000402975
-0.00495636
-0.000411804
-0.00513995
-0.000419689
-0.00533014
-0.000426598
-0.00552711
-0.000432515
-0.00573106
-0.000437426
-0.00594222
-0.000441318
-0.00616082
-0.000444173
-0.0063871
-0.000445983
-0.00662132
-0.000446736
-0.00686375
-0.000446414
-0.00711464
-0.000444994
-0.00737428
-0.000442457
-0.00764296
-0.000438784
-0.00792098
-0.000433958
-0.00820868
-0.000427959
-0.00850637
-0.00042077
-0.0088144
-0.000412371
-0.00913313
-0.000402743
-0.00946295
-0.000391869
-0.00980424
-0.000379737
-0.0101574
-0.000366321
-0.0105229
-0.000351599
-0.0109011
-0.000335554
-0.0112926
-0.000318168
-0.0116978
-0.000299424
-0.0121173
-0.000279305
-0.0125517
-0.000257795
-0.0130015
-0.00023488
-0.0134675
-0.000210547
-0.0139502
-0.000184784
-0.0144505
-0.000157583
-0.0149691
-0.000128939
-0.0155069
-9.88491e-05
-0.0160648
-6.73239e-05
-0.0166438
-3.43698e-05
-0.0172447
-0.0178692
-0.00047287
-0.00443599
-0.000483741
-0.00459866
-0.000493471
-0.00476963
-0.000502159
-0.00494768
-0.000509834
-0.00513227
-0.000516494
-0.00532348
-0.000522114
-0.00552149
-0.000526674
-0.0057265
-0.000530153
-0.00593874
-0.000532536
-0.00615843
-0.000533805
-0.00638583
-0.000533945
-0.00662118
-0.000532942
-0.00686475
-0.000530777
-0.00711681
-0.000527428
-0.00737763
-0.000522874
-0.00764751
-0.000517095
-0.00792676
-0.00051007
-0.0082157
-0.000501779
-0.00851466
-0.000492203
-0.00882398
-0.00048132
-0.00914402
-0.000469108
-0.00947516
-0.00045555
-0.00981779
-0.000440627
-0.0101723
-0.000424314
-0.0105392
-0.000406589
-0.0109188
-0.00038743
-0.0113117
-0.000366817
-0.0117184
-0.00034473
-0.0121394
-0.00032115
-0.0125753
-0.000296059
-0.0130266
-0.000269437
-0.0134941
-0.00024127
-0.0139784
-0.000211542
-0.0144802
-0.000180241
-0.0150004
-0.000147359
-0.0155398
-0.000112888
-0.0160993
-7.68351e-05
-0.0166798
-3.92017e-05
-0.0172823
-0.0179084
-0.000574105
-0.00442498
-0.000583997
-0.00458876
-0.000592699
-0.00476093
-0.000600312
-0.00494006
-0.000606854
-0.00512573
-0.000612313
-0.00531802
-0.000616664
-0.00551714
-0.000619884
-0.00572328
-0.000621952
-0.00593667
-0.000622847
-0.00615754
-0.00062255
-0.00638613
-0.000621043
-0.00662269
-0.000618308
-0.00686749
-0.000614325
-0.00712079
-0.000609071
-0.00738288
-0.000602524
-0.00765406
-0.000594662
-0.00793463
-0.000585463
-0.0082249
-0.000574906
-0.00852521
-0.000562967
-0.00883592
-0.000549624
-0.00915736
-0.000534854
-0.00948993
-0.000518636
-0.00983401
-0.000500949
-0.01019
-0.000481767
-0.0105584
-0.000461065
-0.0109395
-0.00043882
-0.011334
-0.00041501
-0.0117422
-0.00038961
-0.0121648
-0.000362601
-0.0126023
-0.000333959
-0.0130552
-0.000303665
-0.0135244
-0.000271698
-0.0140103
-0.000238041
-0.0145139
-0.000202678
-0.0150358
-0.000165596
-0.0155769
-0.000126787
-0.0161381
-8.62502e-05
-0.0167204
-4.39838e-05
-0.0173246
-0.0179524
-0.000674199
-0.00441487
-0.000683126
-0.00457984
-0.000690817
-0.00475324
-0.000697373
-0.00493351
-0.000702799
-0.0051203
-0.000707078
-0.00531374
-0.000710181
-0.00551403
-0.000712084
-0.00572138
-0.000712762
-0.00593599
-0.000712192
-0.00615811
-0.000710352
-0.00638797
-0.000707222
-0.00662582
-0.000702779
-0.00687193
-0.000697003
-0.00712657
-0.00068987
-0.00739002
-0.000681356
-0.00766257
-0.000671438
-0.00794454
-0.000660091
-0.00823625
-0.000647292
-0.00853801
-0.000633017
-0.00885019
-0.000617241
-0.00917314
-0.00059994
-0.00950723
-0.00058109
-0.00985286
-0.000560667
-0.0102104
-0.000538644
-0.0105804
-0.000514995
-0.0109632
-0.000489695
-0.0113593
-0.000462717
-0.0117692
-0.000434037
-0.0121935
-0.00040363
-0.0126327
-0.000371472
-0.0130874
-0.00033754
-0.0135583
-0.000301811
-0.0140461
-0.000264263
-0.0145514
-0.000224878
-0.0150752
-0.000183641
-0.0156181
-0.000140536
-0.0161812
-9.55629e-05
-0.0167653
-4.87132e-05
-0.0173714
-0.0180011
-0.000773091
-0.00440563
-0.000781065
-0.00457186
-0.000787761
-0.00474654
-0.000793277
-0.00492799
-0.000797608
-0.00511597
-0.000800726
-0.00531062
-0.000802604
-0.00551215
-0.000803213
-0.00572077
-0.000802525
-0.00593668
-0.000800515
-0.00616012
-0.000797157
-0.00639133
-0.000792428
-0.00663055
-0.000786304
-0.00687805
-0.000778761
-0.00713411
-0.000769776
-0.007399
-0.000759321
-0.00767303
-0.000747373
-0.00795649
-0.000733906
-0.00824971
-0.000718894
-0.00855303
-0.00070231
-0.00886677
-0.00068413
-0.00919132
-0.000664326
-0.00952703
-0.000642873
-0.00987432
-0.000619744
-0.0102336
-0.000594911
-0.0106052
-0.000568346
-0.0109898
-0.000540021
-0.0113876
-0.000509909
-0.0117993
-0.000477982
-0.0122254
-0.000444213
-0.0126664
-0.000408575
-0.013123
-0.000371042
-0.0135958
-0.00033159
-0.0140855
-0.000290192
-0.0145928
-0.000246829
-0.0151185
-0.000201479
-0.0156635
-0.000154127
-0.0162285
-0.000104767
-0.0168147
-5.33868e-05
-0.0174228
-0.0180545
-0.000870721
-0.00439726
-0.000877753
-0.00456483
-0.000883471
-0.00474082
-0.000887965
-0.0049235
-0.000891218
-0.00511272
-0.0008932
-0.00530864
-0.000893876
-0.00551148
-0.000893215
-0.00572143
-0.000891186
-0.00593871
-0.000887759
-0.00616355
-0.000882909
-0.00639618
-0.000876607
-0.00663685
-0.000868829
-0.00688583
-0.000859548
-0.00714339
-0.000848737
-0.00740981
-0.000836371
-0.00768539
-0.000822422
-0.00797044
-0.000806863
-0.00826527
-0.000789666
-0.00857022
-0.000770804
-0.00888564
-0.000750249
-0.00921187
-0.000727973
-0.00954931
-0.000703947
-0.00989834
-0.000678143
-0.0102594
-0.000650532
-0.0106328
-0.000621084
-0.0110192
-0.000589769
-0.0114189
-0.000556557
-0.0118325
-0.000521418
-0.0122605
-0.000484324
-0.0127035
-0.000445244
-0.0131621
-0.000404151
-0.0136369
-0.000361016
-0.0141287
-0.000315813
-0.014638
-0.000268515
-0.0151658
-0.000219102
-0.0157129
-0.000167552
-0.0162801
-0.000113858
-0.0168684
-5.80016e-05
-0.0174787
-0.0181125
-0.00096703
-0.00438977
-0.000973129
-0.00455873
-0.000977886
-0.00473606
-0.000981377
-0.00492001
-0.000983574
-0.00511052
-0.00098444
-0.00530778
-0.000983938
-0.00551198
-0.000982031
-0.00572333
-0.000978685
-0.00594205
-0.000973868
-0.00616836
-0.000967551
-0.00640249
-0.000959705
-0.0066447
-0.000950301
-0.00689524
-0.00093931
-0.00715438
-0.000926706
-0.00742242
-0.000912458
-0.00769964
-0.000896538
-0.00798636
-0.000878918
-0.00828289
-0.000859567
-0.00858957
-0.000838458
-0.00890675
-0.000815559
-0.00923477
-0.000790841
-0.00957403
-0.000764275
-0.00992491
-0.00073583
-0.0102878
-0.000705475
-0.0106632
-0.000673178
-0.0110515
-0.000638907
-0.0114532
-0.000602632
-0.0118688
-0.000564319
-0.0122989
-0.000523938
-0.0127439
-0.000481458
-0.0132046
-0.000436846
-0.0136815
-0.000390072
-0.0141754
-0.000341108
-0.014687
-0.000289924
-0.015217
-0.000236497
-0.0157663
-0.000180802
-0.0163358
-0.000122828
-0.0169264
-6.25549e-05
-0.0175389
-0.018175
-0.00106196
-0.00438314
-0.00106714
-0.00455356
-0.00107095
-0.00473225
-0.00107346
-0.0049175
-0.00107462
-0.00510936
-0.00107439
-0.00530801
-0.00107273
-0.00551364
-0.0010696
-0.00572646
-0.00106496
-0.00594669
-0.00105878
-0.00617454
-0.00105103
-0.00641025
-0.00104167
-0.00665406
-0.00103067
-0.00690624
-0.001018
-0.00716705
-0.00100364
-0.00743679
-0.000987538
-0.00771574
-0.000969679
-0.00800422
-0.000950029
-0.00830254
-0.000928557
-0.00861105
-0.000905231
-0.00893007
-0.000880021
-0.00925998
-0.000852896
-0.00960115
-0.000823823
-0.00995398
-0.000792771
-0.0103189
-0.000759706
-0.0106963
-0.000724596
-0.0110866
-0.000687407
-0.0114904
-0.000648106
-0.0119081
-0.000606659
-0.0123403
-0.000563033
-0.0127875
-0.000517193
-0.0132504
-0.000469106
-0.0137296
-0.00041874
-0.0142258
-0.000366062
-0.0147397
-0.000311043
-0.015272
-0.000253654
-0.0158237
-0.000193869
-0.0163956
-0.000131674
-0.0169886
-6.70437e-05
-0.0176036
-0.0182421
-0.00115546
-0.00437736
-0.00115972
-0.00454929
-0.00116261
-0.00472937
-0.00116414
-0.00491596
-0.00116428
-0.00510922
-0.00116298
-0.00530931
-0.00116019
-0.00551643
-0.00115586
-0.00573079
-0.00114997
-0.00595259
-0.00114246
-0.00618205
-0.0011333
-0.0064194
-0.00112246
-0.0066649
-0.0011099
-0.0069188
-0.00109559
-0.00718136
-0.00107949
-0.00745289
-0.00106157
-0.00773366
-0.0010418
-0.00802399
-0.00102016
-0.00832419
-0.000996595
-0.00863461
-0.000971087
-0.00895558
-0.0009436
-0.00928747
-0.0009141
-0.00963065
-0.000882555
-0.00998553
-0.000848931
-0.0103525
-0.000813194
-0.010732
-0.000775308
-0.0111245
-0.00073524
-0.0115305
-0.000692953
-0.0119504
-0.000648413
-0.0123848
-0.000601583
-0.0128344
-0.000552428
-0.0132996
-0.000500912
-0.0137811
-0.000447001
-0.0142797
-0.000390661
-0.014796
-0.000331858
-0.0153308
-0.000270561
-0.015885
-0.000206744
-0.0164594
-0.000140388
-0.0170549
-7.14656e-05
-0.0176725
-0.0183135
-0.00124747
-0.00437244
-0.00125083
-0.00454594
-0.00125279
-0.0047274
-0.00125337
-0.00491539
-0.00125251
-0.00511008
-0.00125016
-0.00531166
-0.00124627
-0.00552032
-0.00124079
-0.00573627
-0.00123367
-0.00595971
-0.00122487
-0.00619085
-0.00121434
-0.00642993
-0.00120204
-0.0066772
-0.00118795
-0.00693289
-0.00117202
-0.00719729
-0.00115422
-0.00747069
-0.00113451
-0.00775336
-0.00111287
-0.00804563
-0.00108926
-0.0083478
-0.00106364
-0.00866022
-0.00103598
-0.00898324
-0.00100625
-0.0093172
-0.000974416
-0.00966249
-0.000940435
-0.0100195
-0.000904276
-0.0103887
-0.000865904
-0.0107704
-0.000825283
-0.0111651
-0.000782375
-0.0115734
-0.000737144
-0.0119956
-0.000689553
-0.0124324
-0.000639565
-0.0128844
-0.000587141
-0.013352
-0.000532245
-0.013836
-0.00047484
-0.0143371
-0.000414888
-0.014856
-0.000352356
-0.0153934
-0.00028721
-0.0159501
-0.00021942
-0.0165272
-0.000148966
-0.0171254
-7.58176e-05
-0.0177456
-0.0183893
-0.00133794
-0.00436836
-0.00134038
-0.0045435
-0.00134144
-0.00472634
-0.00134109
-0.00491574
-0.00133927
-0.0051119
-0.00133592
-0.00531501
-0.00133096
-0.00552527
-0.00132435
-0.00574288
-0.00131603
-0.00596803
-0.00130595
-0.00620093
-0.00129407
-0.00644181
-0.00128035
-0.00669092
-0.00126475
-0.00694849
-0.00124723
-0.00721481
-0.00122776
-0.00749016
-0.0012063
-0.00777482
-0.00118282
-0.00806911
-0.00115728
-0.00837335
-0.00112964
-0.00868786
-0.00109987
-0.009013
-0.00106794
-0.00934913
-0.0010338
-0.00969663
-0.000997422
-0.0100559
-0.000958769
-0.0104273
-0.000917803
-0.0108113
-0.000874488
-0.0112084
-0.000828783
-0.0116191
-0.000780652
-0.0120438
-0.000730056
-0.012483
-0.000676955
-0.0129375
-0.000621312
-0.0134077
-0.000563085
-0.0138943
-0.000502237
-0.014398
-0.00043873
-0.0149195
-0.000372525
-0.0154596
-0.000303589
-0.0160191
-0.00023189
-0.0165989
-0.000157403
-0.0171999
-8.00972e-05
-0.017823
-0.0184694
-0.00142681
-0.00436512
-0.00142836
-0.00454195
-0.00142855
-0.00472616
-0.00142731
-0.00491698
-0.00142455
-0.00511466
-0.00142019
-0.00531937
-0.00141417
-0.00553129
-0.00140643
-0.00575062
-0.00139692
-0.00597754
-0.00138558
-0.00621227
-0.00137238
-0.00645502
-0.00135727
-0.00670603
-0.0013402
-0.00696556
-0.00132114
-0.00723387
-0.00130004
-0.00751125
-0.00127687
-0.00779799
-0.00125159
-0.00809439
-0.00122416
-0.00840078
-0.00119454
-0.00871748
-0.00116271
-0.00904484
-0.00112861
-0.00938323
-0.00109221
-0.00973303
-0.00105348
-0.0100946
-0.00101237
-0.0104684
-0.000968859
-0.0108549
-0.000922892
-0.0112544
-0.000874436
-0.0116675
-0.000823451
-0.0120947
-0.000769896
-0.0125366
-0.000713733
-0.0129936
-0.000654919
-0.0134665
-0.000593414
-0.0139558
-0.000529178
-0.0144622
-0.000462171
-0.0149865
-0.000392353
-0.0155294
-0.000319689
-0.0160917
-0.000244144
-0.0166744
-0.000165693
-0.0172783
-8.43017e-05
-0.0179043
-0.0185537
-0.00151407
-0.00436268
-0.00151475
-0.00454126
-0.00151406
-0.00472684
-0.00151189
-0.00491915
-0.00150815
-0.00511841
-0.00150277
-0.00532475
-0.00149569
-0.00553837
-0.00148685
-0.00575946
-0.00147619
-0.0059882
-0.00146365
-0.0062248
-0.00144918
-0.00646948
-0.00143273
-0.00672248
-0.00141425
-0.00698404
-0.00139369
-0.00725443
-0.00137102
-0.00753393
-0.00134618
-0.00782282
-0.00131915
-0.00812142
-0.00128988
-0.00843005
-0.00125833
-0.00874903
-0.00122446
-0.00907871
-0.00118824
-0.00941945
-0.00114963
-0.00977164
-0.00110859
-0.0101357
-0.00106507
-0.0105119
-0.00101905
-0.0109009
-0.000970476
-0.011303
-0.000919313
-0.0117187
-0.00086552
-0.0121485
-0.000809055
-0.0125931
-0.000749877
-0.0130528
-0.000687944
-0.0135284
-0.000623215
-0.0140205
-0.000555647
-0.0145298
-0.000485198
-0.0150569
-0.000411829
-0.0156028
-0.0003355
-0.0161681
-0.000256177
-0.0167537
-0.000173831
-0.0173607
-8.8429e-05
-0.0179897
-0.0186422
-0.00159959
-0.00436102
-0.00159937
-0.00454149
-0.00159773
-0.00472848
-0.00159459
-0.00492229
-0.00158989
-0.00512311
-0.00158355
-0.00533109
-0.00157551
-0.00554642
-0.00156566
-0.0057693
-0.00155394
-0.00599992
-0.00154028
-0.00623847
-0.00152461
-0.00648516
-0.00150687
-0.00674022
-0.00148702
-0.00700389
-0.00146501
-0.00727644
-0.00144079
-0.00755815
-0.00141432
-0.00784929
-0.00138557
-0.00815018
-0.00135449
-0.00846113
-0.00132104
-0.00878248
-0.00128517
-0.00911457
-0.00124687
-0.00945776
-0.00120607
-0.00981243
-0.00116275
-0.010179
-0.00111686
-0.0105578
-0.00106837
-0.0109494
-0.00101723
-0.0113541
-0.000963401
-0.0117725
-0.000906844
-0.0122051
-0.000847516
-0.0126524
-0.000785373
-0.013115
-0.000720373
-0.0135934
-0.000652473
-0.0140884
-0.000581629
-0.0146006
-0.000507799
-0.0151308
-0.00043094
-0.0156796
-0.000351013
-0.016248
-0.000267981
-0.0168368
-0.000181814
-0.0174468
-9.24766e-05
-0.0180791
-0.0187346
-0.00168318
-0.00436018
-0.00168204
-0.00454263
-0.00167954
-0.00473098
-0.00167561
-0.00492622
-0.00167016
-0.00512856
-0.00166304
-0.0053382
-0.00165415
-0.00555532
-0.00164337
-0.00578008
-0.00163062
-0.00601266
-0.00161584
-0.00625325
-0.00159897
-0.00650203
-0.00157994
-0.00675924
-0.00155872
-0.00702512
-0.00153525
-0.00729991
-0.00150949
-0.00758391
-0.0014814
-0.00787738
-0.00145093
-0.00818065
-0.00141804
-0.00849402
-0.0013827
-0.00881782
-0.00134486
-0.00915241
-0.00130448
-0.00949814
-0.00126153
-0.00985539
-0.00121596
-0.0102246
-0.00116773
-0.010606
-0.0011168
-0.0110003
-0.00106313
-0.0114078
-0.00100668
-0.011829
-0.000947404
-0.0122644
-0.000885259
-0.0127145
-0.000820201
-0.01318
-0.000752187
-0.0136614
-0.000681172
-0.0141594
-0.000607111
-0.0146747
-0.00052996
-0.0152079
-0.000449677
-0.0157599
-0.000366219
-0.0163315
-0.000279549
-0.0169234
-0.000189635
-0.0175367
-9.64421e-05
-0.0181723
-0.0188311
-0.00176496
-0.00436009
-0.00176322
-0.00454436
-0.0017602
-0.004734
-0.00175571
-0.0049307
-0.00174958
-0.0051347
-0.00174164
-0.00534614
-0.0017318
-0.00556516
-0.00171999
-0.0057919
-0.00170613
-0.00602652
-0.00169017
-0.00626921
-0.00167204
-0.00652016
-0.0016517
-0.00677958
-0.00162909
-0.00704773
-0.00160415
-0.00732485
-0.00157686
-0.0076112
-0.00154715
-0.00790709
-0.00151498
-0.00821281
-0.00148032
-0.00852868
-0.00144312
-0.00885502
-0.00140334
-0.00919219
-0.00136093
-0.00954054
-0.00131586
-0.00990046
-0.00126809
-0.0102723
-0.00121757
-0.0106566
-0.00116425
-0.0110536
-0.00110811
-0.0114639
-0.00104908
-0.011888
-0.000987143
-0.0123263
-0.000922237
-0.0127794
-0.000854321
-0.0132479
-0.000783352
-0.0137324
-0.000709283
-0.0142335
-0.000632069
-0.0147519
-0.000551664
-0.0152883
-0.000468024
-0.0158435
-0.000381107
-0.0164184
-0.000290873
-0.0170137
-0.00019729
-0.0176303
-0.000100323
-0.0182692
-0.0189314
-0.00184532
-0.00184315
-0.00454653
-0.00183938
-0.00473777
-0.00183389
-0.0049362
-0.00182663
-0.00514195
-0.00181756
-0.00535521
-0.0018066
-0.00557611
-0.00179369
-0.00580482
-0.00177872
-0.00604148
-0.00176164
-0.00628629
-0.00174236
-0.00653944
-0.0017208
-0.00680114
-0.00169693
-0.00707161
-0.00167066
-0.00735111
-0.00164196
-0.00763991
-0.00161076
-0.00793829
-0.00157703
-0.00824654
-0.00154072
-0.00856499
-0.00150178
-0.00889396
-0.00146017
-0.0092338
-0.00141585
-0.00958487
-0.00136877
-0.00994754
-0.00131889
-0.0103222
-0.00126616
-0.0107093
-0.00121055
-0.0111092
-0.00115201
-0.0115225
-0.0010905
-0.0119495
-0.00102597
-0.0123908
-0.000958375
-0.012847
-0.000887675
-0.0133186
-0.000813823
-0.0138062
-0.000736771
-0.0143105
-0.000656475
-0.0148322
-0.000572888
-0.0153719
-0.000485965
-0.0159305
-0.000395664
-0.0165087
-0.000301945
-0.0171074
-0.000204773
-0.0177275
-0.000104117
-0.0183699
-0.0190355
-0.00191932
-0.00191376
-0.00474333
-0.0019067
-0.00494326
-0.00189819
-0.00515046
-0.00188812
-0.00536528
-0.00187631
-0.00558792
-0.0018626
-0.00581852
-0.00184686
-0.00605722
-0.00182898
-0.00630418
-0.00180884
-0.00655958
-0.00178637
-0.0068236
-0.00176149
-0.00709648
-0.00173415
-0.00737846
-0.00170428
-0.00766978
-0.00167182
-0.00797074
-0.00163673
-0.00828163
-0.00159895
-0.00860276
-0.00155845
-0.00893447
-0.00151517
-0.00927708
-0.00146907
-0.00963096
-0.00142011
-0.0099965
-0.00136824
-0.0103741
-0.00131343
-0.0107641
-0.00125562
-0.011167
-0.00119478
-0.0115833
-0.00113087
-0.0120134
-0.00106383
-0.0124579
-0.000993637
-0.0129172
-0.000920231
-0.013392
-0.000843572
-0.0138829
-0.000763614
-0.0143905
-0.000680311
-0.0149155
-0.000593617
-0.0154586
-0.000503489
-0.0160206
-0.000409882
-0.0166023
-0.000312758
-0.0172045
-0.000212081
-0.0178282
-0.000107822
-0.0184742
-0.0191434
-0.00198459
-0.00474992
-0.00197689
-0.00495096
-0.00196791
-0.00515944
-0.00195741
-0.00537578
-0.00194513
-0.0056002
-0.00193087
-0.00583278
-0.00191448
-0.00607361
-0.00189584
-0.00632282
-0.00187487
-0.00658055
-0.00185146
-0.00684701
-0.00182556
-0.00712239
-0.0017971
-0.00740692
-0.00176601
-0.00770087
-0.00173224
-0.00800451
-0.00169573
-0.00831813
-0.00165645
-0.00864205
-0.00161434
-0.00897658
-0.00156936
-0.00932206
-0.00152146
-0.00967886
-0.0014706
-0.0100474
-0.00141674
-0.0104279
-0.00135983
-0.010821
-0.00129984
-0.011227
-0.00123672
-0.0116464
-0.00117043
-0.0120797
-0.00110092
-0.0125274
-0.00102815
-0.01299
-0.000952085
-0.0134681
-0.000872667
-0.0139623
-0.000789856
-0.0144733
-0.000703605
-0.0150017
-0.000613869
-0.0155483
-0.000520602
-0.0161139
-0.000423763
-0.0166991
-0.000323311
-0.017305
-0.000219211
-0.0179323
-0.000111437
-0.0185819
-0.0192548
-0.00205506
-0.00475501
-0.00204779
-0.00495823
-0.00203852
-0.00516872
-0.00202722
-0.00538708
-0.00201381
-0.00561361
-0.00199821
-0.00584839
-0.00198035
-0.00609148
-0.00196017
-0.006343
-0.0019376
-0.00660312
-0.00191258
-0.00687202
-0.00188505
-0.00714992
-0.00185495
-0.00743703
-0.0018222
-0.00773362
-0.00178677
-0.00803995
-0.00174859
-0.00835631
-0.00170762
-0.00868302
-0.0016638
-0.0090204
-0.00161708
-0.00936878
-0.00156741
-0.00972853
-0.00151474
-0.0101
-0.00145903
-0.0104836
-0.00140023
-0.0108798
-0.00133828
-0.011289
-0.00127314
-0.0117116
-0.00120477
-0.0121481
-0.00113311
-0.012599
-0.00105811
-0.013065
-0.00097974
-0.0135465
-0.000897937
-0.0140441
-0.000812656
-0.0145586
-0.000723851
-0.0150905
-0.000631474
-0.0156407
-0.00053548
-0.0162098
-0.000435827
-0.0167988
-0.000332477
-0.0174083
-0.000225397
-0.0180394
-0.000114565
-0.0186928
-0.0193694
-0.00471453
0.00162494
-0.00469168
0.00152692
-0.00467392
0.00152517
-0.00466469
0.00143153
-0.00466254
0.00139218
-0.00466448
0.00130256
-0.00467154
0.0012434
-0.00468099
0.00115626
-0.00469352
0.00108798
-0.00470726
0.00100361
-0.0047225
0.000932681
-0.004738
0.000852286
-0.00475386
0.000782638
-0.00476927
0.000707302
-0.00478426
0.000641148
-0.00479833
0.000571447
-0.00481149
0.000509765
-0.00482342
0.00044554
-0.00483416
0.000388121
-0.0048435
0.000328346
-0.00485146
0.000273814
-0.00485786
0.000216071
-0.00486269
0.000160975
-0.00486572
9.98451e-05
3.61986e-05
-0.00491803
0.00158474
-0.00489337
0.00150227
-0.00487247
0.00150426
-0.00486067
0.00141973
-0.00485509
0.0013866
-0.00485448
0.00130195
-0.00485893
0.00124785
-0.00486627
0.00116359
-0.00487691
0.00109862
-0.00488908
0.00101578
-0.00490301
0.000946612
-0.00491744
0.000866716
-0.00493245
0.000797645
-0.00494718
0.000722035
-0.00496167
0.000655632
-0.00497534
0.000585116
-0.00498821
0.000522642
-0.00499993
0.000457257
-0.00501053
0.000398723
-0.00501976
0.000337575
-0.00502766
0.000281714
-0.00503401
0.000222425
-0.00503882
0.000165779
-0.00504183
0.000102859
3.72997e-05
-0.00512931
0.00154533
-0.00510216
0.00147512
-0.00507878
0.00148089
-0.00506451
0.00140546
-0.00505572
0.00137781
-0.00505257
0.00129881
-0.00505432
0.0012496
-0.00505946
0.00116873
-0.00506804
0.00110721
-0.00507851
0.00102625
-0.00509097
0.00095907
-0.00510418
0.000879927
-0.00511819
0.000811655
-0.00513211
0.000735958
-0.00514596
0.000669481
-0.00515913
0.000598282
-0.00517163
0.000535142
-0.00518305
0.000468683
-0.00519345
0.000409115
-0.00520252
0.000346647
-0.00521031
0.000289505
-0.00521658
0.0002287
-0.00522134
0.000170536
-0.00522432
0.000105842
3.83903e-05
-0.00534803
0.00150628
-0.00531868
0.00144577
-0.00529317
0.00145538
-0.0052764
0.00138869
-0.00526462
0.00136602
-0.00525892
0.00129311
-0.0052579
0.00124859
-0.00526075
0.00117158
-0.00526714
0.00111359
-0.00527576
0.00103487
-0.00528659
0.000969893
-0.00529844
0.000891777
-0.0053113
0.000824522
-0.00532429
0.000748942
-0.00533738
0.000682575
-0.00534994
0.00061084
-0.00536197
0.00054717
-0.00537302
0.00047974
-0.00538314
0.000419231
-0.005392
0.000355505
-0.00539964
0.000297145
-0.0054058
0.000234862
-0.00541048
0.00017522
-0.00541342
0.000108779
3.94661e-05
-0.00557433
0.001467
-0.00554317
0.00141461
-0.00551578
0.00142799
-0.00549652
0.00136944
-0.00548195
0.00135145
-0.00547366
0.00128482
-0.00546987
0.0012448
-0.00547036
0.00117206
-0.00547441
0.00111764
-0.00548108
0.00104154
-0.00549011
0.000978926
-0.00550046
0.000902132
-0.00551204
0.0008361
-0.00552396
0.000760862
-0.00553618
0.000694791
-0.00554802
0.000622685
-0.00555949
0.000558633
-0.00557009
0.000490344
-0.00557986
0.000429
-0.00558845
0.000364094
-0.00559589
0.000304587
-0.0056019
0.000240875
-0.00560649
0.000179807
-0.00560937
0.000111654
4.05219e-05
-0.00580854
0.00142715
-0.00577583
0.0013819
-0.00574672
0.00139888
-0.00572506
0.00134778
-0.00570787
0.00133426
-0.00569697
0.00127392
-0.00569043
0.00123826
-0.00568847
0.0011701
-0.00569009
0.00111927
-0.00569469
0.00104614
-0.00570179
0.000986028
-0.00571053
0.000910866
-0.00572067
0.000846248
-0.00573141
0.000771595
-0.00574262
0.000706007
-0.00575365
0.000633711
-0.00576445
0.000569431
-0.00577452
0.000500415
-0.00578387
0.000438351
-0.00579213
0.000372352
-0.00579932
0.000311781
-0.00580515
0.000246701
-0.00580961
0.00018427
-0.00581241
0.000114451
4.1552e-05
-0.00605097
0.00138664
-0.00601686
0.00134779
-0.00598612
0.00136814
-0.00596218
0.00132384
-0.00594253
0.00131461
-0.00592902
0.00126041
-0.00591977
0.00122901
-0.0059153
0.00116563
-0.00591444
0.0011184
-0.00591686
0.00104856
-0.00592191
0.000991078
-0.0059289
0.000917858
-0.00593748
0.00085483
-0.00594691
0.000781022
-0.005957
0.000716098
-0.0059671
0.000643813
-0.00597713
0.000579464
-0.00598658
0.000509865
-0.00599544
0.000447205
-0.0060033
0.000380217
-0.0060102
0.000318675
-0.00601579
0.0002523
-0.0060201
0.000188577
-0.0060228
0.00011715
4.25499e-05
-0.00630182
0.00134546
-0.00626647
0.00131244
-0.00623416
0.00133583
-0.00620808
0.00129776
-0.0061861
0.00129263
-0.00617002
0.00124434
-0.00615812
0.0012171
-0.00615109
0.00115861
-0.00614769
0.001115
-0.00614784
0.00104871
-0.00615073
0.000993968
-0.00615587
0.00092299
-0.00616275
0.000861717
-0.00617075
0.000789023
-0.0061796
0.00072494
-0.00618866
0.000652882
-0.00619783
0.000588625
-0.00620657
0.000518607
-0.00621484
0.000455482
-0.00622225
0.000387622
-0.00622879
0.000325211
-0.00623411
0.000257627
-0.00623823
0.000192696
-0.00624081
0.000119731
4.35084e-05
-0.0065613
0.00130365
-0.00652482
0.00127596
-0.00649103
0.00130203
-0.00646296
0.00126969
-0.00643875
0.00126842
-0.00642018
0.00122577
-0.00640568
0.0012026