/*--------------------------------*- C++ -*----------------------------------*\
  =========                 |
  \\      /  F ield         | OpenFOAM: The Open Source CFD Toolbox
   \\    /   O peration     | Website:  https://openfoam.org
    \\  /    A nd           | Version:  7
     \\/     M anipulation  |
\*---------------------------------------------------------------------------*/
FoamFile
{
    version     2.0;
    format      ascii;
    class       volScalarField;
    location    "55";
    object      p;
}
// * * * * * * * * * * * * * * * * * * * * * * * * * * * * * * * * * * * * * //

dimensions      [0 2 -2 0 0 0 0];

internalField   nonuniform List<scalar> 
1989
(
-0.171654
-0.168189
-0.164609
-0.160915
-0.15711
-0.153196
-0.149179
-0.145063
-0.140857
-0.136569
-0.132211
-0.127795
-0.123334
-0.118846
-0.114345
-0.109849
-0.105377
-0.100947
-0.0965765
-0.0922832
-0.0880838
-0.0839934
-0.0800256
-0.0761922
-0.0725026
-0.0689642
-0.0655817
-0.0623576
-0.0592921
-0.217638
-0.217538
-0.217295
-0.216911
-0.216386
-0.215722
-0.214918
-0.213978
-0.212903
-0.2117
-0.210372
-0.20893
-0.207375
-0.205703
-0.203911
-0.202002
-0.199978
-0.197839
-0.195587
-0.193221
-0.190742
-0.18815
-0.185446
-0.182628
-0.179697
-0.176652
-0.173492
-0.170218
-0.166829
-0.163327
-0.159712
-0.155987
-0.152156
-0.148222
-0.144192
-0.140073
-0.135874
-0.131606
-0.127281
-0.122912
-0.118513
-0.114102
-0.109695
-0.105308
-0.100959
-0.0966667
-0.0924464
-0.0883144
-0.0842855
-0.0803728
-0.0765877
-0.0729395
-0.0694354
-0.0660804
-0.0628772
-0.0598262
-0.213598
-0.213609
-0.213477
-0.213201
-0.212784
-0.212227
-0.211531
-0.210697
-0.209729
-0.208631
-0.207407
-0.206064
-0.204605
-0.203027
-0.201326
-0.199508
-0.197574
-0.195522
-0.193356
-0.191074
-0.188679
-0.186169
-0.183546
-0.180809
-0.177957
-0.174991
-0.171911
-0.168717
-0.165409
-0.161988
-0.158456
-0.154815
-0.151069
-0.147223
-0.143282
-0.139254
-0.135148
-0.130973
-0.126742
-0.122467
-0.118162
-0.113843
-0.109525
-0.105226
-0.100962
-0.096749
-0.0926035
-0.0885408
-0.0845751
-0.080719
-0.0769837
-0.0733782
-0.0699099
-0.0665836
-0.0634024
-0.060367
-0.209481
-0.209602
-0.209577
-0.209409
-0.209099
-0.208648
-0.208057
-0.207329
-0.206467
-0.205473
-0.204352
-0.203109
-0.201744
-0.200259
-0.198655
-0.19693
-0.195085
-0.193123
-0.191045
-0.18885
-0.18654
-0.184115
-0.181575
-0.178921
-0.176152
-0.173269
-0.170272
-0.16716
-0.163936
-0.1606
-0.157154
-0.153601
-0.149944
-0.146189
-0.14234
-0.138406
-0.134394
-0.130316
-0.12618
-0.122001
-0.117792
-0.113568
-0.109342
-0.105132
-0.100954
-0.0968223
-0.0927532
-0.0887613
-0.0848602
-0.0810621
-0.0773779
-0.0738166
-0.0703852
-0.0670889
-0.0639309
-0.0609121
-0.205303
-0.205532
-0.205614
-0.205551
-0.205346
-0.205
-0.204514
-0.203891
-0.203132
-0.202242
-0.201223
-0.200078
-0.198811
-0.197421
-0.195912
-0.194279
-0.192526
-0.190655
-0.188666
-0.18656
-0.184338
-0.181999
-0.179546
-0.176977
-0.174293
-0.171495
-0.168583
-0.165557
-0.162419
-0.159171
-0.155814
-0.152351
-0.148786
-0.145123
-0.14137
-0.137531
-0.133617
-0.129636
-0.125599
-0.121518
-0.117406
-0.113277
-0.109145
-0.105026
-0.100934
-0.0968853
-0.0928938
-0.0889739
-0.0851386
-0.0813998
-0.077768
-0.074252
-0.0708588
-0.0675938
-0.0644602
-0.0614594
-0.201077
-0.201411
-0.201598
-0.20164
-0.201539
-0.201296
-0.200914
-0.200393
-0.199738
-0.19895
-0.198032
-0.196987
-0.195816
-0.194523
-0.193107
-0.191569
-0.189909
-0.188129
-0.186231
-0.184215
-0.182082
-0.179832
-0.177466
-0.174984
-0.172388
-0.169677
-0.166852
-0.163915
-0.160866
-0.157707
-0.154441
-0.15107
-0.147599
-0.144031
-0.140374
-0.136633
-0.132817
-0.128936
-0.124998
-0.121016
-0.117003
-0.11297
-0.108933
-0.104906
-0.100902
-0.0969367
-0.0930238
-0.0891769
-0.0854084
-0.08173
-0.0781517
-0.0746821
-0.0713284
-0.0680959
-0.0649879
-0.0620063
-0.196813
-0.197251
-0.197541
-0.197685
-0.197687
-0.197546
-0.197266
-0.196848
-0.196294
-0.195607
-0.194789
-0.193843
-0.19277
-0.191573
-0.190252
-0.188808
-0.187242
-0.185555
-0.183749
-0.181823
-0.17978
-0.17762
-0.175343
-0.172951
-0.170443
-0.167821
-0.165086
-0.162238
-0.15928
-0.156213
-0.153039
-0.149763
-0.146386
-0.142916
-0.139356
-0.135715
-0.131999
-0.128217
-0.12438
-0.120498
-0.116584
-0.112649
-0.108707
-0.104771
-0.100856
-0.0969753
-0.0931417
-0.0893685
-0.0856678
-0.0820506
-0.0785268
-0.0751049
-0.0717918
-0.0685929
-0.0655119
-0.0625508
-0.19252
-0.193059
-0.19345
-0.193696
-0.193798
-0.193758
-0.193579
-0.193262
-0.192808
-0.192221
-0.191503
-0.190655
-0.18968
-0.188579
-0.187354
-0.186004
-0.184532
-0.182939
-0.181225
-0.179392
-0.17744
-0.175371
-0.173184
-0.170882
-0.168465
-0.165934
-0.163289
-0.160533
-0.157667
-0.154693
-0.151614
-0.148432
-0.145153
-0.14178
-0.138319
-0.134777
-0.131162
-0.127481
-0.123745
-0.119964
-0.116149
-0.112312
-0.108465
-0.104623
-0.100797
-0.0970002
-0.0932464
-0.0895475
-0.0859152
-0.08236
-0.0788916
-0.0755183
-0.0722469
-0.0690829
-0.0660301
-0.0630908
-0.188209
-0.188846
-0.189335
-0.18968
-0.189881
-0.18994
-0.18986
-0.189642
-0.189288
-0.1888
-0.188181
-0.187431
-0.186553
-0.185548
-0.184418
-0.183164
-0.181786
-0.180286
-0.178666
-0.176925
-0.175066
-0.173088
-0.170994
-0.168783
-0.166458
-0.164018
-0.161466
-0.158803
-0.15603
-0.15315
-0.150167
-0.147082
-0.1439
-0.140625
-0.137264
-0.133823
-0.130309
-0.12673
-0.123095
-0.119414
-0.115699
-0.11196
-0.108209
-0.104459
-0.100722
-0.0970105
-0.0933368
-0.0897127
-0.0861493
-0.0826568
-0.0792447
-0.0759208
-0.0726922
-0.0695642
-0.0665408
-0.0636247
-0.183888
-0.18462
-0.185205
-0.185646
-0.185943
-0.1861
-0.186117
-0.185997
-0.18574
-0.18535
-0.184828
-0.184175
-0.183394
-0.182485
-0.181451
-0.180292
-0.179009
-0.177603
-0.176076
-0.174429
-0.172663
-0.170778
-0.168776
-0.166658
-0.164425
-0.162079
-0.15962
-0.15705
-0.154372
-0.151588
-0.148701
-0.145713
-0.142629
-0.139455
-0.136194
-0.132853
-0.12944
-0.125963
-0.122429
-0.11885
-0.115234
-0.111593
-0.107937
-0.10428
-0.100632
-0.0970056
-0.0934122
-0.0898631
-0.086369
-0.0829398
-0.0795845
-0.0763111
-0.0731261
-0.0700352
-0.0670425
-0.0641508
-0.179568
-0.180392
-0.181069
-0.181602
-0.181993
-0.182245
-0.182357
-0.182332
-0.182172
-0.181878
-0.181452
-0.180896
-0.18021
-0.179397
-0.178458
-0.177393
-0.176205
-0.174894
-0.173461
-0.171908
-0.170235
-0.168443
-0.166535
-0.16451
-0.162371
-0.160118
-0.157754
-0.155279
-0.152697
-0.150009
-0.147218
-0.144329
-0.141344
-0.138269
-0.135109
-0.131869
-0.128558
-0.125182
-0.12175
-0.118271
-0.114754
-0.11121
-0.107651
-0.104086
-0.100527
-0.096985
-0.0934719
-0.089998
-0.0865735
-0.083208
-0.0799102
-0.0766878
-0.0735475
-0.0704947
-0.0675338
-0.0646677
-0.175259
-0.176169
-0.176935
-0.177558
-0.17804
-0.178383
-0.178588
-0.178656
-0.17859
-0.178391
-0.178059
-0.177598
-0.177007
-0.176289
-0.175444
-0.174474
-0.17338
-0.172163
-0.170824
-0.169365
-0.167786
-0.166089
-0.164274
-0.162344
-0.160298
-0.15814
-0.155871
-0.153492
-0.151005
-0.148414
-0.145721
-0.14293
-0.140045
-0.13707
-0.13401
-0.130872
-0.127662
-0.124388
-0.121057
-0.117678
-0.11426
-0.110814
-0.107349
-0.103876
-0.100405
-0.0969484
-0.0935154
-0.0901167
-0.086762
-0.0834605
-0.0802207
-0.0770501
-0.0739552
-0.0709415
-0.0680134
-0.0651742
-0.17097
-0.171963
-0.172812
-0.173521
-0.174091
-0.174522
-0.174817
-0.174977
-0.175002
-0.174895
-0.174657
-0.174288
-0.173791
-0.173166
-0.172416
-0.171539
-0.170539
-0.169416
-0.168172
-0.166806
-0.165321
-0.163718
-0.161997
-0.160161
-0.158211
-0.156148
-0.153974
-0.15169
-0.149301
-0.146807
-0.144212
-0.14152
-0.138734
-0.135859
-0.1329
-0.129863
-0.126754
-0.123581
-0.12035
-0.117071
-0.113752
-0.110402
-0.107032
-0.10365
-0.100268
-0.0968955
-0.0935424
-0.0902188
-0.0869339
-0.0836967
-0.0805153
-0.0773969
-0.0743482
-0.0713745
-0.0684803
-0.0656691
-0.166712
-0.167782
-0.168711
-0.169502
-0.170155
-0.170672
-0.171053
-0.171301
-0.171415
-0.171398
-0.171251
-0.170974
-0.170569
-0.170037
-0.169378
-0.168595
-0.167688
-0.166659
-0.165507
-0.164236
-0.162844
-0.161335
-0.159709
-0.157967
-0.156112
-0.154144
-0.152066
-0.149879
-0.147586
-0.14519
-0.142693
-0.140099
-0.137413
-0.134638
-0.13178
-0.128843
-0.125836
-0.122763
-0.119632
-0.116452
-0.113231
-0.109977
-0.1067
-0.103409
-0.100115
-0.0968262
-0.0935527
-0.090304
-0.0870889
-0.083916
-0.0807932
-0.0777277
-0.0747257
-0.0717928
-0.0689335
-0.0661513
-0.162495
-0.163637
-0.164642
-0.165509
-0.166242
-0.16684
-0.167305
-0.167638
-0.167838
-0.167909
-0.16785
-0.167662
-0.167347
-0.166906
-0.166339
-0.165648
-0.164833
-0.163896
-0.162837
-0.161659
-0.160361
-0.158945
-0.157413
-0.155766
-0.154005
-0.152133
-0.15015
-0.14806
-0.145864
-0.143565
-0.141166
-0.138671
-0.136084
-0.133409
-0.130651
-0.127815
-0.124907
-0.121934
-0.118903
-0.115821
-0.112697
-0.109538
-0.106354
-0.103154
-0.099946
-0.0967405
-0.0935462
-0.090372
-0.0872265
-0.084118
-0.081054
-0.0780416
-0.075087
-0.0721956
-0.069372
-0.0666199
-0.158331
-0.15954
-0.160614
-0.161554
-0.162362
-0.163038
-0.163582
-0.163996
-0.16428
-0.164435
-0.164462
-0.164361
-0.164134
-0.163782
-0.163305
-0.162703
-0.16198
-0.161134
-0.160167
-0.159081
-0.157876
-0.156554
-0.155115
-0.153562
-0.151896
-0.150118
-0.148231
-0.146237
-0.144137
-0.141936
-0.139635
-0.137239
-0.13475
-0.132174
-0.129515
-0.126779
-0.12397
-0.121097
-0.118164
-0.115179
-0.112151
-0.109086
-0.105994
-0.102883
-0.0997617
-0.0966387
-0.0935229
-0.0904228
-0.0873466
-0.0843023
-0.0812973
-0.0783382
-0.0754314
-0.0725821
-0.069795
-0.0670739
-0.154231
-0.1555
-0.156639
-0.157647
-0.158525
-0.159274
-0.159894
-0.160386
-0.160749
-0.160986
-0.161096
-0.16108
-0.160938
-0.160672
-0.160283
-0.15977
-0.159136
-0.15838
-0.157504
-0.156509
-0.155396
-0.154166
-0.15282
-0.151361
-0.149788
-0.148105
-0.146313
-0.144414
-0.142411
-0.140306
-0.138102
-0.135803
-0.133413
-0.130936
-0.128375
-0.125738
-0.123028
-0.120252
-0.117416
-0.114528
-0.111594
-0.108623
-0.105622
-0.102599
-0.0995623
-0.096521
-0.093483
-0.0904563
-0.0874491
-0.0844688
-0.0815226
-0.0786171
-0.0757583
-0.0729515
-0.0702016
-0.0675123
-0.150206
-0.151531
-0.152728
-0.153799
-0.154743
-0.15556
-0.156252
-0.156817
-0.157257
-0.157571
-0.157761
-0.157826
-0.157768
-0.157586
-0.157282
-0.156856
-0.156309
-0.155641
-0.154855
-0.153949
-0.152927
-0.151788
-0.150534
-0.149167
-0.147688
-0.146098
-0.1444
-0.142596
-0.140688
-0.138679
-0.136572
-0.13437
-0.132077
-0.129696
-0.127234
-0.124693
-0.122081
-0.119401
-0.116662
-0.113869
-0.111028
-0.108149
-0.105237
-0.102301
-0.0993487
-0.096388
-0.0934268
-0.090473
-0.087534
-0.0846173
-0.0817297
-0.0788777
-0.0760671
-0.0733034
-0.0705911
-0.0679343
-0.146269
-0.147643
-0.148894
-0.150022
-0.151027
-0.151908
-0.152666
-0.153301
-0.153813
-0.154201
-0.154467
-0.154611
-0.154632
-0.154532
-0.154311
-0.153969
-0.153507
-0.152926
-0.152227
-0.15141
-0.150476
-0.149427
-0.148264
-0.146987
-0.1456
-0.144103
-0.142498
-0.140787
-0.138973
-0.137059
-0.135047
-0.132941
-0.130744
-0.12846
-0.126093
-0.123649
-0.121132
-0.118548
-0.115903
-0.113203
-0.110455
-0.107665
-0.104842
-0.101991
-0.0991217
-0.0962404
-0.093355
-0.090473
-0.0876016
-0.0847479
-0.0819186
-0.0791199
-0.0763576
-0.073637
-0.0709628
-0.0683391
-0.142431
-0.143849
-0.145148
-0.146327
-0.147388
-0.148328
-0.149149
-0.149849
-0.150428
-0.150888
-0.151226
-0.151445
-0.151543
-0.151521
-0.15138
-0.151119
-0.15074
-0.150243
-0.149629
-0.148898
-0.148051
-0.14709
-0.146015
-0.144829
-0.143531
-0.142125
-0.140612
-0.138993
-0.137273
-0.135451
-0.133533
-0.131521
-0.129418
-0.127229
-0.124957
-0.122607
-0.120184
-0.117694
-0.115142
-0.112533
-0.109875
-0.107174
-0.104437
-0.101671
-0.0988822
-0.096079
-0.0932681
-0.0904569
-0.0876522
-0.0848608
-0.0820892
-0.0793435
-0.0766293
-0.073952
-0.0713161
-0.0687259
-0.138705
-0.14016
-0.141501
-0.142728
-0.143838
-0.144833
-0.145711
-0.146472
-0.147115
-0.147641
-0.148048
-0.148338
-0.148509
-0.148563
-0.148498
-0.148316
-0.148017
-0.147601
-0.147069
-0.146422
-0.14566
-0.144785
-0.143797
-0.142698
-0.141489
-0.140172
-0.138749
-0.137221
-0.135591
-0.133861
-0.132035
-0.130115
-0.128105
-0.126008
-0.123829
-0.121572
-0.119241
-0.116842
-0.114381
-0.111862
-0.109292
-0.106678
-0.104025
-0.101341
-0.0986318
-0.0959049
-0.0931672
-0.0904254
-0.0876862
-0.0849562
-0.0822416
-0.0795484
-0.0768821
-0.0742479
-0.0716505
-0.069094
-0.135102
-0.136589
-0.137967
-0.139235
-0.140391
-0.141435
-0.142366
-0.143183
-0.143886
-0.144473
-0.144945
-0.145302
-0.145543
-0.145668
-0.145677
-0.14557
-0.145348
-0.145011
-0.144559
-0.143993
-0.143313
-0.142521
-0.141618
-0.140604
-0.139481
-0.138251
-0.136915
-0.135475
-0.133934
-0.132294
-0.130558
-0.128728
-0.126808
-0.124802
-0.122713
-0.120546
-0.118306
-0.115996
-0.113623
-0.111192
-0.108708
-0.106178
-0.103607
-0.101003
-0.0983718
-0.0957196
-0.0930533
-0.0903794
-0.0877045
-0.0850347
-0.0823762
-0.0797348
-0.0771158
-0.0745245
-0.0719654
-0.0694428
-0.131634
-0.133149
-0.134558
-0.135862
-0.137059
-0.138147
-0.139126
-0.139994
-0.140752
-0.141397
-0.14193
-0.14235
-0.142656
-0.142849
-0.142928
-0.142893
-0.142745
-0.142482
-0.142107
-0.141619
-0.141019
-0.140307
-0.139485
-0.138554
-0.137515
-0.136369
-0.135118
-0.133764
-0.13231
-0.130757
-0.129108
-0.127366
-0.125534
-0.123616
-0.121615
-0.119536
-0.117382
-0.11516
-0.112872
-0.110526
-0.108125
-0.105677
-0.103187
-0.10066
-0.0981042
-0.0955246
-0.0929278
-0.0903201
-0.0877078
-0.085097
-0.0824934
-0.0799028
-0.0773305
-0.0747815
-0.0722605
-0.0697717
-0.128314
-0.12985
-0.131287
-0.132622
-0.133854
-0.134982
-0.136004
-0.136919
-0.137727
-0.138426
-0.139015
-0.139494
-0.139862
-0.140118
-0.140263
-0.140297
-0.140218
-0.140027
-0.139725
-0.139312
-0.138788
-0.138154
-0.13741
-0.136559
-0.1356
-0.134535
-0.133367
-0.132096
-0.130725
-0.129256
-0.127691
-0.126034
-0.124287
-0.122454
-0.120539
-0.118544
-0.116475
-0.114336
-0.112132
-0.109867
-0.107548
-0.105179
-0.102766
-0.100314
-0.0978311
-0.0953217
-0.0927923
-0.0902488
-0.0876974
-0.0851438
-0.0825938
-0.0800529
-0.0775262
-0.0750189
-0.0725354
-0.0700801
-0.125153
-0.126707
-0.128165
-0.129527
-0.13079
-0.131953
-0.133014
-0.133971
-0.134825
-0.135572
-0.136213
-0.136747
-0.137172
-0.137489
-0.137696
-0.137793
-0.13778
-0.137658
-0.137425
-0.137083
-0.136631
-0.136071
-0.135403
-0.134627
-0.133745
-0.132759
-0.131669
-0.130478
-0.129188
-0.127799
-0.126316
-0.12474
-0.123076
-0.121324
-0.11949
-0.117578
-0.11559
-0.113531
-0.111407
-0.109221
-0.106979
-0.104686
-0.102347
-0.0999681
-0.0975549
-0.0951131
-0.0926486
-0.0901671
-0.0876744
-0.0851763
-0.0826782
-0.0801855
-0.0777033
-0.0752366
-0.0727899
-0.0703676
-0.122164
-0.123731
-0.125207
-0.126591
-0.12788
-0.129074
-0.130169
-0.131164
-0.132059
-0.132851
-0.13354
-0.134124
-0.134602
-0.134974
-0.135238
-0.135396
-0.135445
-0.135386
-0.135219
-0.134944
-0.134561
-0.134071
-0.133474
-0.132771
-0.131962
-0.13105
-0.130036
-0.128921
-0.127707
-0.126396
-0.12499
-0.123492
-0.121905
-0.120232
-0.118477
-0.116642
-0.114731
-0.11275
-0.110701
-0.108591
-0.106423
-0.104202
-0.101934
-0.0996245
-0.0972784
-0.0949013
-0.0924989
-0.0900767
-0.0876405
-0.0851956
-0.0827474
-0.0803013
-0.0778621
-0.0754348
-0.0730239
-0.0706337
-0.119359
-0.120935
-0.122426
-0.123828
-0.12514
-0.126359
-0.127484
-0.128513
-0.129445
-0.130277
-0.131009
-0.131638
-0.132165
-0.132588
-0.132906
-0.133119
-0.133226
-0.133227
-0.133121
-0.132909
-0.13259
-0.132166
-0.131635
-0.131001
-0.130262
-0.12942
-0.128477
-0.127433
-0.126292
-0.125054
-0.123721
-0.122298
-0.120785
-0.119186
-0.117504
-0.115743
-0.113906
-0.111997
-0.110021
-0.107982
-0.105884
-0.103732
-0.101531
-0.0992872
-0.0970046
-0.0946889
-0.0923456
-0.0899799
-0.0875973
-0.0852032
-0.0828027
-0.0804011
-0.0780031
-0.0756137
-0.0732374
-0.0708783
-0.116751
-0.118334
-0.119835
-0.121252
-0.122582
-0.123824
-0.124975
-0.126033
-0.126997
-0.127865
-0.128636
-0.129307
-0.129878
-0.130347
-0.130714
-0.130978
-0.131138
-0.131194
-0.131144
-0.130991
-0.130732
-0.130369
-0.129901
-0.12933
-0.128656
-0.127879
-0.127003
-0.126027
-0.124953
-0.123783
-0.12252
-0.121166
-0.119722
-0.118193
-0.11658
-0.114889
-0.113121
-0.11128
-0.109372
-0.107399
-0.105367
-0.10328
-0.101143
-0.09896
-0.0967371
-0.0944792
-0.0921913
-0.0898788
-0.0875469
-0.0852007
-0.0828453
-0.0804858
-0.078127
-0.0757737
-0.0734302
-0.0711009
-0.114354
-0.115941
-0.117449
-0.118878
-0.120223
-0.121484
-0.122657
-0.123741
-0.124733
-0.125633
-0.126437
-0.127146
-0.127756
-0.128267
-0.128679
-0.128989
-0.129197
-0.129303
-0.129305
-0.129205
-0.129001
-0.128694
-0.128284
-0.127772
-0.127157
-0.126442
-0.125627
-0.124713
-0.123702
-0.122596
-0.121397
-0.120106
-0.118727
-0.117262
-0.115714
-0.114087
-0.112382
-0.110606
-0.10876
-0.106849
-0.104878
-0.102851
-0.100772
-0.098647
-0.0964796
-0.0942754
-0.0920392
-0.0897762
-0.0874914
-0.0851899
-0.0828767
-0.0805566
-0.0782345
-0.0759149
-0.0736025
-0.0713013
-0.112183
-0.113771
-0.115285
-0.116722
-0.11808
-0.119356
-0.120548
-0.121653
-0.12267
-0.123597
-0.124432
-0.125172
-0.125818
-0.126366
-0.126817
-0.127169
-0.12742
-0.127571
-0.12762
-0.127568
-0.127414
-0.127158
-0.1268
-0.126341
-0.125781
-0.125121
-0.124361
-0.123504
-0.122551
-0.121503
-0.120362
-0.11913
-0.11781
-0.116404
-0.114914
-0.113345
-0.1117
-0.109981
-0.108193
-0.106339
-0.104424
-0.102451
-0.100426
-0.0983529
-0.0962364
-0.0940812
-0.0918924
-0.0896747
-0.0874332
-0.0851728
-0.0828983
-0.0806146
-0.0783263
-0.076038
-0.0737543
-0.0714792
-0.110254
-0.111842
-0.113359
-0.114802
-0.11617
-0.117458
-0.118665
-0.119789
-0.120827
-0.121777
-0.122637
-0.123406
-0.124082
-0.124663
-0.125148
-0.125536
-0.125826
-0.126016
-0.126107
-0.126098
-0.125987
-0.125777
-0.125465
-0.125054
-0.124542
-0.123931
-0.123222
-0.122416
-0.121513
-0.120517
-0.119428
-0.118249
-0.116981
-0.115628
-0.114191
-0.112675
-0.111081
-0.109415
-0.107678
-0.105875
-0.104009
-0.102086
-0.100109
-0.0980828
-0.0960118
-0.0939008
-0.0917544
-0.0895776
-0.087375
-0.0851515
-0.0829119
-0.080661
-0.0784033
-0.0761434
-0.0738856
-0.0716343
-0.108584
-0.110171
-0.11169
-0.113138
-0.114512
-0.115811
-0.11703
-0.118169
-0.119224
-0.120193
-0.121075
-0.121868
-0.12257
-0.123178
-0.123693
-0.124112
-0.124434
-0.124659
-0.124785
-0.124812
-0.12474
-0.124569
-0.124297
-0.123927
-0.123457
-0.122889
-0.122224
-0.121461
-0.120604
-0.119652
-0.118609
-0.117475
-0.116253
-0.114946
-0.113555
-0.112085
-0.110537
-0.108915
-0.107223
-0.105465
-0.103643
-0.101763
-0.0998275
-0.0978421
-0.0958109
-0.0937384
-0.0916291
-0.0894879
-0.0873194
-0.0851283
-0.0829193
-0.0806972
-0.0784663
-0.0762313
-0.0739965
-0.0717661
-0.107195
-0.10878
-0.110299
-0.11175
-0.11313
-0.114435
-0.115665
-0.116815
-0.117884
-0.118869
-0.119768
-0.12058
-0.121303
-0.121934
-0.122473
-0.122917
-0.123267
-0.123519
-0.123675
-0.123733
-0.123693
-0.123554
-0.123316
-0.12298
-0.122545
-0.122013
-0.121383
-0.120658
-0.119838
-0.118924
-0.117919
-0.116823
-0.11564
-0.114371
-0.113019
-0.111586
-0.110077
-0.108493
-0.106839
-0.105117
-0.103332
-0.101488
-0.0995877
-0.0976366
-0.0956388
-0.0935986
-0.0915205
-0.0894092
-0.0872694
-0.0851055
-0.0829223
-0.0807243
-0.0785161
-0.0763022
-0.0740867
-0.0718741
-0.106107
-0.10769
-0.109209
-0.110662
-0.112046
-0.113357
-0.114593
-0.115752
-0.116831
-0.117828
-0.118742
-0.119568
-0.120307
-0.120956
-0.121513
-0.121977
-0.122348
-0.122622
-0.122801
-0.122883
-0.122867
-0.122754
-0.122542
-0.122233
-0.121826
-0.121321
-0.120721
-0.120024
-0.119233
-0.118349
-0.117373
-0.116308
-0.115155
-0.113916
-0.112594
-0.111192
-0.109712
-0.108159
-0.106534
-0.104841
-0.103085
-0.101269
-0.0993966
-0.0974725
-0.095501
-0.0934862
-0.0914327
-0.089345
-0.0872277
-0.0850853
-0.0829225
-0.0807437
-0.0785534
-0.0763561
-0.074156
-0.0719575
-0.10535
-0.106931
-0.10845
-0.109904
-0.11129
-0.112604
-0.113845
-0.11501
-0.116096
-0.117102
-0.118024
-0.118861
-0.11961
-0.120271
-0.120841
-0.121319
-0.121704
-0.121994
-0.122189
-0.122287
-0.122289
-0.122193
-0.122
-0.121709
-0.121321
-0.120836
-0.120255
-0.119579
-0.118809
-0.117945
-0.11699
-0.115946
-0.114814
-0.113596
-0.112296
-0.110915
-0.109456
-0.107923
-0.106319
-0.104647
-0.102911
-0.101114
-0.0992614
-0.0973563
-0.0954032
-0.0934063
-0.09137
-0.0892989
-0.0871974
-0.0850701
-0.0829215
-0.0807561
-0.0785784
-0.0763928
-0.0742036
-0.072015
-0.104951
-0.106531
-0.108051
-0.109505
-0.110892
-0.112208
-0.113452
-0.11462
-0.11571
-0.116719
-0.117646
-0.118488
-0.119244
-0.119911
-0.120488
-0.120973
-0.121365
-0.121663
-0.121866
-0.121973
-0.121984
-0.121897
-0.121714
-0.121433
-0.121055
-0.120581
-0.12001
-0.119345
-0.118585
-0.117732
-0.116788
-0.115755
-0.114634
-0.113428
-0.112138
-0.110768
-0.109321
-0.107799
-0.106205
-0.104544
-0.102819
-0.101033
-0.0991899
-0.0972948
-0.0953513
-0.0933638
-0.0913366
-0.0892742
-0.087181
-0.0850617
-0.0829206
-0.0807623
-0.0785913
-0.0764119
-0.0742283
-0.0720449
)
;

boundaryField
{
    inlet
    {
        type            zeroGradient;
    }
    outlet
    {
        type            fixedValue;
        value           nonuniform 0();
    }
    cylinder
    {
        type            zeroGradient;
    }
    top
    {
        type            symmetryPlane;
    }
    bottom
    {
        type            symmetryPlane;
    }
    defaultFaces
    {
        type            empty;
    }
    procBoundary14to10
    {
        type            processor;
        value           nonuniform List<scalar> 
57
(
-0.173017
-0.16948
-0.165827
-0.162059
-0.158178
-0.154187
-0.150089
-0.145892
-0.141603
-0.13723
-0.132786
-0.128283
-0.123735
-0.119159
-0.114571
-0.109991
-0.105436
-0.100927
-0.0964809
-0.092117
-0.0878521
-0.0837021
-0.079681
-0.0758008
-0.0720714
-0.0684998
-0.065091
-0.0618472
-0.0587681
-0.221578
-0.221364
-0.221009
-0.220514
-0.21988
-0.219107
-0.218196
-0.217147
-0.215965
-0.214655
-0.213225
-0.211687
-0.210038
-0.208272
-0.20639
-0.204392
-0.202281
-0.200057
-0.197721
-0.195273
-0.192714
-0.190044
-0.187262
-0.184368
-0.181361
-0.17824
-0.175004
-0.175004
)
;
    }
    procBoundary14to11
    {
        type            processor;
        value           uniform -0.056383;
    }
    procBoundary14to13
    {
        type            processor;
        value           nonuniform List<scalar> 
35
(
-0.217594
-0.213441
-0.209212
-0.204926
-0.200593
-0.196225
-0.191831
-0.187421
-0.183007
-0.178597
-0.174202
-0.169833
-0.1655
-0.161215
-0.156987
-0.15283
-0.148754
-0.144772
-0.140896
-0.137137
-0.133507
-0.130017
-0.12668
-0.123507
-0.120509
-0.117699
-0.115089
-0.112693
-0.110524
-0.108598
-0.106933
-0.105547
-0.104463
-0.103708
-0.103311
)
;
    }
    procBoundary14to15
    {
        type            processor;
        value           nonuniform List<scalar> 
35
(
-0.0569257
-0.0574761
-0.058032
-0.0585911
-0.0591512
-0.0597101
-0.060266
-0.060817
-0.0613616
-0.0618983
-0.0624259
-0.0629432
-0.0634489
-0.0639421
-0.0644218
-0.0648868
-0.0653363
-0.0657693
-0.0661849
-0.0665822
-0.0669605
-0.0673189
-0.0676568
-0.0679735
-0.0682682
-0.0685406
-0.0687898
-0.0690155
-0.0692169
-0.0693934
-0.0695442
-0.0696683
-0.0697644
-0.069831
-0.0698657
)
;
    }
}


// ************************************************************************* //
