/*--------------------------------*- C++ -*----------------------------------*\
  =========                 |
  \\      /  F ield         | OpenFOAM: The Open Source CFD Toolbox
   \\    /   O peration     | Website:  https://openfoam.org
    \\  /    A nd           | Version:  7
     \\/     M anipulation  |
\*---------------------------------------------------------------------------*/
FoamFile
{
    version     2.0;
    format      ascii;
    class       volVectorField;
    location    "10";
    object      U;
}
// * * * * * * * * * * * * * * * * * * * * * * * * * * * * * * * * * * * * * //

dimensions      [0 1 -1 0 0 0 0];

internalField   nonuniform List<vector> 
5650
(
(-0.0341795 0.000773903 3.11983e-22)
(-0.0358844 0.000167211 -2.20202e-21)
(-0.0351586 -0.000505764 -1.11769e-20)
(-0.0317727 -0.00122324 -2.27733e-20)
(-0.0255765 -0.00196224 6.12341e-21)
(-0.0165066 -0.00269012 8.45478e-21)
(-0.00467453 -0.00334605 7.0255e-21)
(0.00941309 -0.00383905 1.1607e-20)
(0.0255867 -0.00404644 3.84329e-21)
(-0.0329023 0.00226987 -9.28413e-21)
(-0.0341094 0.000457866 -1.42727e-20)
(-0.0328307 -0.00155081 1.72323e-20)
(-0.0288394 -0.00369117 4.67215e-20)
(-0.0219873 -0.00589486 -6.33569e-20)
(-0.0122102 -0.00806537 1.29102e-21)
(0.000378003 -0.0100207 -1.10469e-20)
(0.0152459 -0.0114886 -3.899e-21)
(0.0324437 -0.0120891 4.34645e-21)
(-0.0303365 0.00361162 -4.92067e-20)
(-0.0305503 0.000618435 -3.22532e-20)
(-0.0281684 -0.00269526 8.93106e-20)
(-0.0229696 -0.00622246 -3.56731e-20)
(-0.0148107 -0.00985127 6.75769e-20)
(-0.00362539 -0.0134239 -5.91172e-20)
(0.010468 -0.0166412 -2.19657e-20)
(0.0268839 -0.0190512 -8.37557e-20)
(0.0461169 -0.019979 1.17906e-20)
(-0.0251883 0.000566301 8.17736e-20)
(-0.0211586 -0.00400149 -1.02963e-19)
(-0.0141576 -0.00885578 -1.08946e-19)
(-0.00404976 -0.0138451 1.04479e-19)
(0.0092322 -0.0187481 -9.73219e-20)
(0.0255647 -0.0231659 5.22384e-20)
(0.0442714 -0.026464 -3.10713e-20)
(0.0665234 -0.0276079 -1.3516e-20)
(-0.0179952 0.000225103 -1.1974e-19)
(-0.0117817 -0.00552582 1.47262e-19)
(-0.00239531 -0.0116234 -1.40354e-19)
(0.0102911 -0.0178799 -1.06059e-19)
(0.0263398 -0.0240169 5.54044e-21)
(0.0456198 -0.0295458 1.18829e-19)
(0.0673235 -0.0336567 -2.79435e-20)
(0.0935344 -0.0348587 1.552e-20)
(-0.00893305 -0.000472648 1.19875e-19)
(-1.07171e-05 -0.00731597 9.69414e-20)
(0.0123302 -0.0145489 4.0164e-20)
(0.0282035 -0.0219509 1.17873e-19)
(0.0476634 -0.0292001 3.3628e-20)
(0.0705686 -0.0357203 -1.42734e-19)
(0.0959241 -0.0405484 2.44136e-19)
(0.126971 -0.0416025 -1.318e-20)
(0.00204596 -0.00158287 -1.64435e-19)
(0.014188 -0.00940847 -9.89587e-20)
(0.0300339 -0.0176456 8.15435e-20)
(0.0496778 -0.0260457 -4.82522e-20)
(0.0731586 -0.034252 -6.9036e-20)
(0.100325 -0.0416144 -1.08535e-19)
(0.129923 -0.0470453 -2.34749e-19)
(0.166597 -0.0476973 2.26072e-19)
(0.0149993 -0.00314704 -7.22818e-20)
(0.0308551 -0.0118257 3.3669e-20)
(0.0507332 -0.0209128 2.21102e-19)
(0.0746999 -0.0301365 -1.11345e-19)
(0.102769 -0.0391135 2.65233e-19)
(0.134776 -0.0471368 2.64899e-19)
(0.16913 -0.0530381 1.86524e-19)
(0.212111 -0.0529874 -1.90654e-19)
(0.0299937 -0.00518926 -1.92687e-19)
(0.0500369 -0.0145732 -1.56423e-19)
(0.0744462 -0.0243329 -1.01211e-19)
(0.10325 -0.0341786 -6.64675e-20)
(0.136422 -0.0437094 1.03747e-19)
(0.173782 -0.0521781 -1.40468e-19)
(0.213311 -0.0584003 -6.46043e-20)
(0.263135 -0.0573043 3.41112e-20)
(0.0471036 -0.00771349 4.07326e-19)
(0.0717842 -0.0176362 2.03936e-19)
(0.10119 -0.0278691 -1.58748e-19)
(0.135298 -0.0381088 5.69746e-21)
(0.174024 -0.0479463 7.93631e-20)
(0.217163 -0.0566098 9.40509e-20)
(0.262183 -0.0629877 -3.18061e-19)
(0.3192 -0.0604703 3.56354e-19)
(0.0961498 -0.0209775 -2.9265e-19)
(0.130977 -0.0314627 2.48539e-19)
(0.170801 -0.0418433 3.08522e-20)
(0.215455 -0.0517119 -3.26314e-19)
(0.264696 -0.0602856 9.17598e-21)
(0.315398 -0.066638 4.36522e-20)
(0.379736 -0.0623032 -4.45029e-19)
(0.123185 -0.0245348 -1.88697e-21)
(0.16381 -0.0350313 1.71192e-19)
(0.209694 -0.0452772 2.65537e-19)
(0.260558 -0.0548755 -1.94636e-19)
(0.316099 -0.0630444 -4.25196e-20)
(0.372545 -0.0691738 -1.0817e-19)
(0.444058 -0.0626241 2.64664e-19)
(0.152933 -0.0282194 -3.59733e-19)
(0.199677 -0.0384676 2.44195e-19)
(0.251886 -0.0482839 -4.6929e-20)
(0.309137 -0.0572903 4.09837e-19)
(0.371029 -0.0647155 6.46276e-20)
(0.433132 -0.0704062 -2.46985e-19)
(0.511361 -0.0612668 1.4511e-19)
(0.185427 -0.0319151 5.58482e-19)
(0.238541 -0.0416394 -2.72194e-19)
(0.297247 -0.0507173 -1.49096e-19)
(0.36094 -0.0587968 7.94215e-20)
(0.429068 -0.065127 -1.8832e-19)
(0.49659 -0.0701415 1.16541e-20)
(0.580717 -0.0580908 -2.08492e-19)
(0.280334 -0.0443918 4.70254e-19)
(0.345603 -0.052415 -2.95273e-19)
(0.415654 -0.0592291 -7.56055e-21)
(0.489718 -0.0641172 -1.57752e-20)
(0.562269 -0.0681914 3.94645e-19)
(0.651087 -0.0530032 -9.39593e-20)
(0.324946 -0.0465501 -3.47099e-19)
(0.396722 -0.0532037 4.6129e-19)
(0.472899 -0.0584224 1.12592e-19)
(0.552402 -0.0615476 4.75881e-19)
(0.629447 -0.0643862 2.3414e-19)
(0.721342 -0.0459848 3.55931e-20)
(0.372214 -0.0479257 1.04574e-19)
(0.450306 -0.0529069 1.58357e-19)
(0.532214 -0.0562237 -4.83102e-20)
(0.616466 -0.0573162 -4.15027e-19)
(0.697332 -0.0585677 -6.896e-20)
(0.790265 -0.0370612 3.43505e-19)
(0.505988 -0.0513547 -2.26905e-19)
(0.593067 -0.0525067 -3.42135e-20)
(0.681201 -0.0513708 3.32506e-21)
(0.765073 -0.0505399 2.28865e-20)
(0.856488 -0.0261884 -4.15108e-19)
(0.563325 -0.0483967 1.17345e-19)
(0.65486 -0.0471937 -2.86195e-19)
(0.74591 -0.0437294 3.29976e-19)
(0.831899 -0.0400795 -8.13296e-20)
(0.918682 -0.0136164 5.93272e-20)
(0.716919 -0.0402726 1.48363e-19)
(0.80992 -0.0345041 -7.51666e-19)
(0.897352 -0.0273321 -9.96252e-20)
(0.97691 -0.0017655 1.87846e-19)
(0.778469 -0.0317811 -1.50448e-19)
(0.872355 -0.0239175 2.3588e-21)
(0.960641 -0.0134802 3.92259e-19)
(1.03532 0.0047271 -2.53272e-19)
(0.932028 -0.012241 -5.46103e-19)
(1.01867 -0.000441224 -2.67697e-19)
(1.08925 0.00813361 2.12359e-19)
(1.07077 0.0129385 4.84954e-19)
(1.13609 0.0168652 1.19368e-19)
(1.11706 0.027012 2.40358e-19)
(1.17601 0.0289923 3.30148e-20)
(1.20965 0.0427923 -5.61826e-19)
(1.20965 -0.0427923 -5.57951e-20)
(1.11706 -0.027012 -4.08844e-19)
(1.17601 -0.0289923 1.19191e-20)
(0.988092 -0.00058359 5.93644e-19)
(1.07077 -0.0129385 3.34238e-19)
(1.13609 -0.0168652 1.66787e-19)
(0.932028 0.012241 -3.73267e-19)
(1.01867 0.000441204 -3.79597e-19)
(1.08925 -0.00813364 4.24661e-19)
(0.778469 0.0317811 4.18051e-19)
(0.872355 0.0239175 1.85392e-19)
(0.960641 0.0134801 9.79106e-20)
(1.03532 -0.00472712 -9.99649e-20)
(0.716919 0.0402726 1.48342e-19)
(0.80992 0.0345041 -5.69401e-19)
(0.897352 0.0273321 -3.8975e-19)
(0.97691 0.00176548 1.41847e-19)
(0.563325 0.0483967 -3.73495e-19)
(0.65486 0.0471937 -2.16705e-19)
(0.74591 0.0437294 4.44868e-19)
(0.831899 0.0400795 -9.19407e-20)
(0.918682 0.0136164 8.20256e-20)
(0.505988 0.0513547 -2.38498e-19)
(0.593067 0.0525066 -5.04575e-20)
(0.681201 0.0513708 -3.99896e-21)
(0.765073 0.0505399 1.59148e-19)
(0.856488 0.0261883 -4.74368e-19)
(0.372214 0.0479257 -3.76152e-19)
(0.450306 0.0529069 3.00496e-20)
(0.532214 0.0562237 -7.03548e-20)
(0.616466 0.0573162 -2.7876e-19)
(0.697332 0.0585677 -3.50242e-19)
(0.790265 0.0370612 3.23849e-19)
(0.324946 0.0465501 -1.28936e-19)
(0.396722 0.0532037 4.30797e-19)
(0.472899 0.0584224 6.06042e-20)
(0.552402 0.0615476 4.30131e-19)
(0.629447 0.0643861 3.26603e-19)
(0.721342 0.0459848 1.4315e-19)
(0.280334 0.0443918 2.7917e-19)
(0.345603 0.052415 -2.31119e-19)
(0.415654 0.059229 -2.645e-19)
(0.489718 0.0641171 2.03329e-19)
(0.562269 0.0681914 2.82749e-19)
(0.651087 0.0530031 1.72154e-20)
(0.185427 0.0319151 2.92819e-19)
(0.238541 0.0416394 -3.39581e-19)
(0.297247 0.0507173 1.72862e-19)
(0.36094 0.0587968 -4.46771e-20)
(0.429068 0.0651269 -4.48897e-19)
(0.49659 0.0701414 2.39337e-19)
(0.580717 0.0580908 -3.16686e-19)
(0.152933 0.0282194 -4.18606e-19)
(0.199677 0.0384676 5.05897e-20)
(0.251886 0.0482839 -4.87595e-20)
(0.309137 0.0572903 6.07225e-19)
(0.371029 0.0647154 1.16324e-19)
(0.433132 0.0704062 -4.50919e-19)
(0.511361 0.0612668 1.41681e-19)
(0.123185 0.0245348 1.50444e-19)
(0.16381 0.0350313 7.87715e-21)
(0.209694 0.0452772 2.28764e-19)
(0.260558 0.0548755 -1.64066e-19)
(0.316099 0.0630444 -2.57147e-19)
(0.372545 0.0691738 4.9407e-21)
(0.444058 0.0626241 3.33605e-19)
(0.0961498 0.0209775 -1.95381e-19)
(0.130977 0.0314627 3.55663e-19)
(0.170801 0.0418433 -2.58058e-19)
(0.215455 0.0517118 -2.79761e-19)
(0.264695 0.0602856 8.30213e-20)
(0.315398 0.066638 -5.77809e-20)
(0.379736 0.0623032 -4.31261e-19)
(0.0471036 0.00771349 3.61035e-20)
(0.0717842 0.0176362 5.64897e-20)
(0.10119 0.0278691 -2.36823e-19)
(0.135298 0.0381088 1.46806e-19)
(0.174024 0.0479463 9.05015e-20)
(0.217163 0.0566098 5.13492e-20)
(0.262183 0.0629876 -1.426e-19)
(0.3192 0.0604702 1.02572e-19)
(0.0299937 0.00518926 -1.31069e-19)
(0.0500369 0.0145732 -4.03878e-20)
(0.0744462 0.0243329 -9.26371e-20)
(0.10325 0.0341786 -1.63425e-19)
(0.136422 0.0437094 -1.04676e-20)
(0.173782 0.0521781 -1.58522e-19)
(0.213311 0.0584003 7.359e-20)
(0.263135 0.0573042 -1.57824e-20)
(0.0149993 0.00314704 1.00033e-19)
(0.0308551 0.0118257 -7.96108e-20)
(0.0507332 0.0209128 1.44595e-19)
(0.0746999 0.0301365 7.09257e-20)
(0.102769 0.0391135 1.03835e-19)
(0.134776 0.0471368 2.90604e-19)
(0.169129 0.053038 2.08363e-19)
(0.212111 0.0529874 -2.24754e-19)
(0.00204597 0.00158287 -1.24212e-19)
(0.014188 0.00940846 -1.25278e-19)
(0.0300339 0.0176456 4.37071e-20)
(0.0496778 0.0260457 4.29712e-20)
(0.0731586 0.0342519 -2.15483e-19)
(0.100325 0.0416144 -8.11158e-20)
(0.129923 0.0470453 -2.03438e-19)
(0.166597 0.0476973 1.6977e-19)
(-0.00893305 0.000472646 1.78842e-19)
(-1.07159e-05 0.00731596 3.91552e-20)
(0.0123302 0.0145489 1.36017e-19)
(0.0282035 0.0219508 8.18562e-20)
(0.0476634 0.0292001 6.44392e-20)
(0.0705686 0.0357203 -1.13442e-19)
(0.0959241 0.0405484 2.31155e-19)
(0.126971 0.0416024 -3.04644e-20)
(-0.0179952 -0.000225105 -1.52627e-19)
(-0.0117817 0.00552581 1.59827e-19)
(-0.00239531 0.0116234 -1.09446e-19)
(0.0102911 0.0178799 -2.06498e-19)
(0.0263398 0.0240169 4.79157e-20)
(0.0456198 0.0295458 1.51773e-19)
(0.0673235 0.0336566 2.00153e-20)
(0.0935344 0.0348586 -4.04123e-20)
(-0.0251883 -0.000566303 5.06893e-20)
(-0.0211586 0.00400148 -1.13485e-19)
(-0.0141576 0.00885577 -7.62591e-20)
(-0.00404976 0.0138451 5.24097e-20)
(0.0092322 0.0187481 -3.23696e-20)
(0.0255647 0.0231659 2.63913e-21)
(0.0442714 0.026464 6.14349e-21)
(0.0665234 0.0276079 -7.03692e-20)
(-0.0303365 -0.00361162 9.55417e-20)
(-0.0305503 -0.000618437 -1.0579e-20)
(-0.0281683 0.00269526 5.21692e-20)
(-0.0229696 0.00622245 2.01961e-20)
(-0.0148107 0.00985125 1.62446e-20)
(-0.00362539 0.0134239 -2.12439e-20)
(0.010468 0.0166412 -7.75038e-20)
(0.0268839 0.0190512 -3.22931e-20)
(0.0461169 0.0199789 -9.61426e-21)
(-0.0329023 -0.00226987 -1.85538e-20)
(-0.0341094 -0.000457868 9.64634e-21)
(-0.0328307 0.0015508 -1.7497e-20)
(-0.0288394 0.00369115 6.21397e-20)
(-0.0219873 0.00589484 -7.79035e-20)
(-0.0122102 0.00806534 1.56006e-20)
(0.000378002 0.0100207 -9.09911e-21)
(0.0152459 0.0114886 5.90953e-21)
(0.0324437 0.012089 -1.26935e-20)
(-0.0341795 -0.000773901 4.3993e-22)
(-0.0358844 -0.000167213 -2.6355e-21)
(-0.0351586 0.000505757 -1.18724e-20)
(-0.0317727 0.00122323 -1.53488e-20)
(-0.0255765 0.00196222 5.6279e-21)
(-0.0165066 0.0026901 2.43642e-21)
(-0.00467453 0.00334602 8.83019e-21)
(0.00941309 0.00383901 1.37332e-20)
(0.0255867 0.00404639 1.74118e-21)
(0.0375981 -0.00350427 3.46046e-21)
(0.0464905 -0.00329301 2.38247e-21)
(0.055311 -0.00321173 -1.59546e-21)
(0.0643063 -0.00317812 5.33072e-22)
(0.0735243 -0.00318066 -2.53014e-21)
(0.0830701 -0.00320877 -1.12371e-21)
(0.0930222 -0.00325217 1.34698e-21)
(0.103432 -0.00330425 -3.5293e-21)
(0.114337 -0.00336019 6.82279e-21)
(0.125766 -0.00341614 -3.00829e-21)
(0.137733 -0.00346909 -2.27715e-23)
(0.150247 -0.00351673 -8.28659e-22)
(0.163306 -0.00355739 3.13667e-21)
(0.176903 -0.00358997 -1.1115e-22)
(0.191026 -0.00361392 -2.66884e-21)
(0.20566 -0.00362909 1.34213e-21)
(0.220785 -0.00363575 -7.13162e-22)
(0.236385 -0.00363448 1.18497e-23)
(0.25244 -0.0036261 3.93099e-22)
(0.268934 -0.0036116 7.82967e-22)
(0.285854 -0.0035921 -6.70015e-23)
(0.303189 -0.00356874 -6.2447e-22)
(0.320933 -0.00354268 7.98234e-22)
(0.339085 -0.003515 -1.31062e-21)
(0.357647 -0.00348663 1.34041e-21)
(0.376628 -0.00345834 -2.76256e-22)
(0.396038 -0.00343064 -9.34131e-23)
(0.415892 -0.00340377 1.83552e-22)
(0.436205 -0.00337768 -7.34849e-22)
(0.45699 -0.00335197 5.73023e-22)
(0.478261 -0.00332597 -9.17751e-23)
(0.500024 -0.00329872 1.47134e-22)
(0.522277 -0.00326909 -8.19293e-23)
(0.545011 -0.0032358 -1.25226e-22)
(0.568204 -0.00319759 -4.02887e-23)
(0.591827 -0.0031532 1.9749e-22)
(0.615822 -0.00310165 2.86736e-24)
(0.640155 -0.00304185 -1.51641e-23)
(0.664707 -0.00297357 -5.11855e-23)
(0.689487 -0.00289536 4.03001e-23)
(0.714226 -0.0028087 -3.71296e-23)
(0.739139 -0.00270929 7.80007e-24)
(0.763516 -0.0026042 -6.51057e-24)
(0.788273 -0.00247773 -7.875e-26)
(0.811376 -0.00235762 -3.10665e-25)
(0.835939 -0.00218795 -9.38972e-25)
(0.855975 -0.00207 3.8408e-24)
(0.881257 -0.0018179 4.53222e-24)
(0.894306 -0.00175458 8.07739e-25)
(0.924097 -0.00136695 -9.87672e-24)
(0.0446637 -0.0104658 -5.73453e-21)
(0.0533485 -0.0098448 -7.77608e-21)
(0.0620485 -0.00960593 -6.45843e-21)
(0.0709662 -0.00950659 6.84015e-21)
(0.080107 -0.00951511 1.08938e-20)
(0.0895783 -0.00960008 -2.01628e-21)
(0.0994587 -0.00973073 -5.58245e-21)
(0.109797 -0.00988727 8.02286e-21)
(0.120631 -0.0100552 -9.05956e-21)
(0.131986 -0.0102231 5.27764e-21)
(0.143877 -0.0103818 -6.3106e-21)
(0.15631 -0.0105244 2.96161e-21)
(0.169284 -0.010646 2.76275e-21)
(0.182791 -0.0107434 -1.3814e-21)
(0.196819 -0.0108148 2.71997e-21)
(0.211351 -0.01086 -5.53039e-21)
(0.22637 -0.0108797 4.29529e-21)
(0.241857 -0.0108756 3.21258e-22)
(0.257795 -0.0108503 2.96576e-22)
(0.274167 -0.0108067 -3.36739e-21)
(0.290959 -0.0107481 -1.79963e-23)
(0.308162 -0.010678 -1.15303e-22)
(0.32577 -0.0105999 -7.27959e-22)
(0.343782 -0.0105169 3.17531e-21)
(0.3622 -0.0104319 -7.27202e-23)
(0.381033 -0.0103471 -1.1546e-21)
(0.400292 -0.0102641 7.40999e-22)
(0.41999 -0.0101836 4.59078e-22)
(0.440142 -0.0101054 -9.60068e-23)
(0.460764 -0.0100285 -2.069e-22)
(0.481867 -0.00995062 7.48168e-23)
(0.503457 -0.00986909 2.51622e-22)
(0.525533 -0.00978046 1.55083e-22)
(0.548088 -0.00968093 -4.31859e-22)
(0.571097 -0.0095667 4.52561e-22)
(0.594534 -0.00943402 -1.67753e-22)
(0.61834 -0.00927997 -1.77272e-22)
(0.642484 -0.00910128 -1.6585e-22)
(0.666846 -0.00889726 6.28939e-23)
(0.691437 -0.00866355 1.05386e-22)
(0.715988 -0.00840461 -5.44779e-23)
(0.740717 -0.00810753 3.59733e-23)
(0.764916 -0.00779349 1.86884e-24)
(0.789499 -0.00741544 -6.53726e-25)
(0.812439 -0.00705646 1.43247e-25)
(0.836841 -0.00654907 -8.13821e-24)
(0.85674 -0.00619653 -1.02069e-23)
(0.881872 -0.00544235 2.14528e-23)
(0.894833 -0.00525306 5.71316e-25)
(0.924462 -0.00409337 -4.55125e-23)
(0.058738 -0.0172849 3.01747e-20)
(0.0670092 -0.0162919 -3.81386e-21)
(0.0754637 -0.0159108 -5.72635e-21)
(0.0842219 -0.0157506 -1.41055e-20)
(0.0932052 -0.0157681 -5.00704e-21)
(0.102525 -0.0159121 1.87017e-21)
(0.11226 -0.0161315 -1.73855e-20)
(0.122455 -0.0163936 3.20051e-20)
(0.133144 -0.0166741 -2.67224e-20)
(0.14435 -0.0169539 6.56824e-21)
(0.156087 -0.0172179 1.4194e-21)
(0.168359 -0.0174547 5.66828e-21)
(0.181162 -0.0176563 1.5333e-21)
(0.194488 -0.0178172 -1.413e-20)
(0.208323 -0.017935 2.07461e-21)
(0.222653 -0.018009 7.65418e-21)
(0.237457 -0.0180408 -8.08657e-21)
(0.25272 -0.0180332 3.68026e-21)
(0.268422 -0.0179905 2.16628e-22)
(0.284549 -0.0179174 -3.39592e-21)
(0.301087 -0.0178197 7.23939e-21)
(0.318028 -0.0177029 -1.96852e-21)
(0.335365 -0.0175728 -1.31255e-21)
(0.353098 -0.0174347 1.19085e-21)
(0.37123 -0.0172932 4.8368e-22)
(0.389768 -0.0171522 -2.13922e-21)
(0.408725 -0.0170143 2.3577e-21)
(0.428113 -0.0168805 -9.90734e-22)
(0.447949 -0.0167506 8.66471e-22)
(0.468245 -0.0166228 -1.17562e-21)
(0.489014 -0.0164936 -7.11369e-22)
(0.510262 -0.0163585 -4.52509e-22)
(0.531989 -0.0162116 5.50361e-22)
(0.554187 -0.0160468 1.94223e-22)
(0.576833 -0.0158578 1.04032e-23)
(0.599901 -0.0156384 -3.33614e-22)
(0.623334 -0.0153837 2.31438e-22)
(0.647102 -0.0150882 2.42012e-22)
(0.671087 -0.0147509 -1.55886e-22)
(0.695303 -0.0143645 -1.24803e-23)
(0.719484 -0.0139365 5.42898e-23)
(0.743848 -0.0134452 -1.00108e-23)
(0.767693 -0.0129259 -3.55948e-23)
(0.791932 -0.0123004 7.41805e-24)
(0.814548 -0.0117066 -8.67702e-25)
(0.838631 -0.0108664 -4.10906e-24)
(0.858259 -0.0102831 2.06031e-23)
(0.883094 -0.00903319 -4.61675e-23)
(0.895879 -0.00871993 2.98212e-24)
(0.925187 -0.00679761 -3.3749e-23)
(0.0797066 -0.0238607 -3.97316e-20)
(0.0873615 -0.0225576 1.79987e-20)
(0.095437 -0.022061 -2.93085e-20)
(0.103946 -0.0218495 1.81779e-20)
(0.112686 -0.0218821 2.65742e-20)
(0.121772 -0.0220897 -1.97585e-20)
(0.131285 -0.0224009 -4.66266e-21)
(0.141261 -0.0227705 1.12907e-20)
(0.151729 -0.0231648 -2.07305e-20)
(0.16271 -0.0235567 1.63204e-20)
(0.174213 -0.0239254 1.87465e-21)
(0.186239 -0.0242552 -4.90469e-21)
(0.198783 -0.0245349 -4.93957e-22)
(0.211835 -0.0247577 2.6631e-21)
(0.22538 -0.0249199 1.49936e-21)
(0.239403 -0.0250212 -6.34175e-22)
(0.253885 -0.0250638 3.56205e-21)
(0.268809 -0.0250517 -1.52089e-21)
(0.284159 -0.0249908 2.56562e-22)
(0.299919 -0.024888 -9.35629e-22)
(0.316078 -0.024751 6.1714e-21)
(0.332626 -0.0245876 -1.09863e-20)
(0.349559 -0.0244059 6.52518e-21)
(0.366877 -0.0242132 -2.70175e-21)
(0.384583 -0.0240159 4.93705e-21)
(0.402685 -0.0238193 -6.33459e-21)
(0.421193 -0.0236269 4.97868e-21)
(0.440123 -0.0234405 -2.25339e-21)
(0.459488 -0.0232596 8.84057e-22)
(0.479302 -0.0230817 -7.11543e-22)
(0.499578 -0.0229021 7.89265e-22)
(0.520321 -0.0227144 -7.97009e-22)
(0.541532 -0.0225107 7.17992e-22)
(0.563202 -0.0222824 4.10283e-22)
(0.585311 -0.0220207 -2.53134e-22)
(0.607834 -0.0217169 -1.62999e-23)
(0.630716 -0.0213645 -1.14468e-22)
(0.653929 -0.0209559 1.62268e-22)
(0.677358 -0.0204894 1.92937e-22)
(0.701021 -0.019955 -2.73622e-23)
(0.724655 -0.0193629 -1.96512e-23)
(0.748481 -0.0186831 -4.51657e-23)
(0.771804 -0.0179648 -5.13452e-23)
(0.795533 -0.0170984 9.88797e-24)
(0.817672 -0.0162767 -6.80281e-24)
(0.841284 -0.0151115 2.53622e-23)
(0.860511 -0.0143039 7.24815e-24)
(0.884905 -0.0125686 -1.21184e-23)
(0.897431 -0.0121346 -6.26065e-24)
(0.926263 -0.00946524 1.83872e-22)
(0.107395 -0.0300842 -2.23436e-20)
(0.114237 -0.0285557 -3.16211e-20)
(0.121789 -0.0279837 7.34581e-20)
(0.129948 -0.0277369 -1.52141e-20)
(0.138351 -0.0277953 1.05296e-20)
(0.147117 -0.0280742 5.47866e-21)
(0.156325 -0.0284828 -3.89763e-20)
(0.166002 -0.0289635 4.16977e-20)
(0.17617 -0.0294735 -1.43746e-20)
(0.186845 -0.0299781 2.7551e-21)
(0.19803 -0.0304508 -3.0586e-20)
(0.209724 -0.0308719 1.76467e-20)
(0.221918 -0.0312279 -1.04576e-20)
(0.234599 -0.0315101 -1.04305e-20)
(0.247754 -0.0317147 9.00543e-21)
(0.261365 -0.0318413 -2.94544e-21)
(0.275415 -0.0318931 5.0943e-21)
(0.289888 -0.0318754 6.42093e-21)
(0.304767 -0.0317958 -1.3816e-20)
(0.32004 -0.0316631 9.61526e-21)
(0.335695 -0.031487 -1.89837e-21)
(0.351724 -0.0312777 5.2157e-21)
(0.368123 -0.0310452 -2.52761e-21)
(0.384893 -0.0307987 -1.74574e-21)
(0.402038 -0.0305465 -3.30316e-21)
(0.419565 -0.0302953 2.03966e-21)
(0.437486 -0.0300497 1.32063e-21)
(0.455813 -0.0298117 -2.48916e-21)
(0.474562 -0.0295809 3.18262e-23)
(0.493745 -0.0293541 9.10293e-22)
(0.513375 -0.0291255 -2.68108e-22)
(0.533459 -0.0288869 2.11533e-21)
(0.553995 -0.0286283 3.67009e-22)
(0.574977 -0.0283387 -9.67519e-22)
(0.596386 -0.0280072 1.11895e-21)
(0.618198 -0.0276228 -5.68363e-22)
(0.640362 -0.0271768 -7.21211e-22)
(0.662851 -0.0266598 6.87966e-23)
(0.685556 -0.0260698 -1.76866e-22)
(0.708498 -0.0253936 2.28269e-23)
(0.731418 -0.0246447 -2.01688e-22)
(0.754542 -0.0237841 1.21728e-22)
(0.777183 -0.022875 5.78154e-23)
(0.800248 -0.021777 4.67728e-25)
(0.821763 -0.0207365 1.98866e-24)
(0.84476 -0.0192572 -5.77825e-23)
(0.863464 -0.0182341 -2.59714e-23)
(0.88728 -0.0160278 2.8531e-23)
(0.899468 -0.0154775 1.03364e-23)
(0.927676 -0.0120823 -2.95575e-22)
(0.141566 -0.0358354 1.93917e-20)
(0.147407 -0.0341886 -1.61374e-21)
(0.154279 -0.0335962 -3.45504e-20)
(0.161977 -0.0333387 6.44219e-20)
(0.16994 -0.0334402 -6.26266e-20)
(0.178291 -0.0338032 2.93941e-20)
(0.187107 -0.0343178 -1.25737e-21)
(0.196401 -0.0349154 -1.26581e-20)
(0.206186 -0.0355443 -1.79476e-20)
(0.21647 -0.0361626 1.73265e-20)
(0.227251 -0.0367388 -3.92179e-21)
(0.238521 -0.0372497 7.34125e-21)
(0.250269 -0.0376796 2.53547e-20)
(0.262481 -0.0380189 -2.22069e-20)
(0.275142 -0.0382634 2.85288e-20)
(0.288234 -0.0384135 -3.58983e-21)
(0.301741 -0.0384731 -3.19202e-20)
(0.315648 -0.0384491 2.95681e-20)
(0.329941 -0.0383506 -1.04763e-20)
(0.344606 -0.0381884 9.8875e-21)
(0.359635 -0.0379742 -1.43955e-20)
(0.375021 -0.0377201 8.24376e-21)
(0.390761 -0.0374381 -1.49857e-20)
(0.406856 -0.0371395 1.02449e-20)
(0.42331 -0.0368342 -1.71998e-23)
(0.440131 -0.0365301 1.41567e-21)
(0.457331 -0.0362328 -5.40298e-21)
(0.474921 -0.0359449 4.31736e-21)
(0.492917 -0.0356659 -3.11734e-21)
(0.51133 -0.0353921 -2.19593e-21)
(0.530173 -0.0351163 2.32271e-21)
(0.549453 -0.034829 -9.48062e-22)
(0.569168 -0.0345181 1.11759e-21)
(0.589314 -0.0341705 1.08587e-22)
(0.609871 -0.0337729 -3.56456e-22)
(0.630819 -0.0333121 -5.25659e-22)
(0.65211 -0.0327779 1.28478e-21)
(0.673721 -0.0321586 -3.54497e-22)
(0.695547 -0.031452 -4.92813e-22)
(0.717612 -0.030642 1.51963e-22)
(0.739666 -0.029745 -2.09211e-22)
(0.761936 -0.0287134 8.44423e-23)
(0.783749 -0.027624 6.3848e-23)
(0.806005 -0.0263058 -2.99001e-23)
(0.826762 -0.025058 1.54249e-24)
(0.849009 -0.0232782 -9.34242e-24)
(0.867076 -0.0220503 1.69207e-24)
(0.890188 -0.0193909 5.42384e-23)
(0.901963 -0.0187298 -8.83581e-24)
(0.929408 -0.0146356 3.76117e-23)
(0.181914 -0.0409835 -6.49381e-20)
(0.186579 -0.0393462 -9.94929e-21)
(0.192605 -0.0388055 -2.60779e-20)
(0.199719 -0.0385732 4.48914e-20)
(0.207133 -0.0387438 -3.91055e-20)
(0.214969 -0.03921 4.77111e-20)
(0.2233 -0.0398436 -3.50202e-20)
(0.232123 -0.0405665 3.27682e-20)
(0.241437 -0.0413189 -3.89586e-20)
(0.25124 -0.0420529 2.91589e-20)
(0.261523 -0.0427323 1.13785e-20)
(0.272274 -0.0433315 -5.74253e-21)
(0.283477 -0.043833 -1.87744e-21)
(0.295116 -0.0442271 2.23074e-21)
(0.307176 -0.0445096 6.4852e-21)
(0.31964 -0.0446817 -2.80498e-20)
(0.332493 -0.0447484 2.6396e-20)
(0.34572 -0.044718 -1.6914e-20)
(0.35931 -0.0446014 1.82475e-20)
(0.37325 -0.044411 -1.61423e-20)
(0.387535 -0.0441604 1.62506e-20)
(0.402158 -0.0438637 -9.02703e-21)
(0.417119 -0.0435348 -5.53014e-24)
(0.432417 -0.0431866 7.71704e-21)
(0.448059 -0.0428307 -4.70189e-21)
(0.464051 -0.0424763 -4.78162e-21)
(0.480406 -0.0421298 3.86309e-22)
(0.497135 -0.0417945 5.71303e-21)
(0.514251 -0.0414697 -6.52157e-22)
(0.531767 -0.0411513 3.31666e-21)
(0.549694 -0.040831 -2.38641e-21)
(0.568038 -0.0404978 1.30223e-21)
(0.5868 -0.040138 2.52504e-22)
(0.605975 -0.0397362 -1.53094e-21)
(0.625544 -0.039277 1.08188e-21)
(0.645492 -0.0387452 -6.45285e-22)
(0.665771 -0.038129 -6.14938e-22)
(0.686364 -0.0374147 9.42411e-22)
(0.70717 -0.0365998 -4.48357e-22)
(0.728219 -0.0356653 4.55768e-22)
(0.749269 -0.0346306 -4.41731e-22)
(0.770551 -0.0334393 -9.02154e-23)
(0.791403 -0.0321818 -1.13065e-23)
(0.81272 -0.0306569 1.3864e-23)
(0.832597 -0.0292153 -8.73752e-24)
(0.853972 -0.0271511 1.18817e-23)
(0.871298 -0.0257311 9.4159e-24)
(0.893589 -0.0226397 -1.71426e-22)
(0.904885 -0.0218743 -9.66433e-25)
(0.931438 -0.0171127 2.17488e-22)
(0.22806 -0.0453876 4.8274e-21)
(0.231391 -0.0439078 -1.90631e-20)
(0.236403 -0.043509 -3.09092e-20)
(0.242802 -0.0433514 1.98769e-20)
(0.249552 -0.0436278 1.05984e-20)
(0.256768 -0.0442242 -5.89691e-20)
(0.26452 -0.0449949 4.12785e-20)
(0.272778 -0.0458544 -2.20587e-20)
(0.281528 -0.046737 2.9469e-20)
(0.290755 -0.0475893 -1.14303e-20)
(0.300443 -0.0483723 2.52001e-21)
(0.310573 -0.0490585 3.91083e-21)
(0.321127 -0.04963 -3.69368e-21)
(0.332087 -0.0500771 2.04139e-21)
(0.343437 -0.0503964 -9.6907e-21)
(0.355161 -0.05059 2.64248e-20)
(0.367247 -0.0506642 -1.63872e-20)
(0.379681 -0.0506287 9.13411e-21)
(0.392453 -0.0504959 -1.77921e-20)
(0.405556 -0.0502799 1.31585e-20)
(0.418982 -0.0499961 -1.0706e-20)
(0.432729 -0.0496603 3.63796e-22)
(0.446795 -0.0492882 -3.1439e-21)
(0.461184 -0.0488943 1.42767e-20)
(0.4759 -0.0484916 -1.17766e-20)
(0.490951 -0.0480905 7.57914e-21)
(0.506347 -0.0476984 -2.75454e-21)
(0.522101 -0.047319 -1.46058e-21)
(0.538224 -0.0469517 -1.8125e-21)
(0.554729 -0.0465919 5.58092e-21)
(0.571625 -0.0462306 -1.57713e-21)
(0.588918 -0.0458552 3.2142e-23)
(0.606609 -0.0454504 5.80332e-23)
(0.624694 -0.044999 -6.71429e-23)
(0.643157 -0.0444836 -1.7581e-21)
(0.661983 -0.043887 9.53981e-22)
(0.681129 -0.0431959 -6.50846e-22)
(0.700582 -0.0423948 -4.51381e-22)
(0.720247 -0.0414811 1.08465e-21)
(0.740159 -0.0404326 -4.71792e-22)
(0.760084 -0.0392719 3.37974e-22)
(0.780257 -0.0379338 -9.96489e-23)
(0.800032 -0.0365221 -3.2757e-23)
(0.820296 -0.0348055 -4.17568e-23)
(0.839186 -0.0331853 2.2656e-23)
(0.859581 -0.0308548 2.75224e-23)
(0.876074 -0.0292572 9.13473e-24)
(0.897439 -0.0257578 9.2979e-23)
(0.908197 -0.0248952 1.8105e-23)
(0.933741 -0.0195023 8.70961e-23)
(0.279543 -0.0489028 -1.36207e-20)
(0.281404 -0.0477457 9.61139e-22)
(0.285241 -0.0475972 -5.86332e-20)
(0.290794 -0.0475794 -5.12834e-20)
(0.296767 -0.048011 4.37481e-20)
(0.303259 -0.048773 3.93153e-20)
(0.310331 -0.0497043 1.00261e-19)
(0.317929 -0.0507151 -5.77762e-20)
(0.326017 -0.0517359 -1.57761e-20)
(0.334569 -0.0527103 2.37097e-20)
(0.343558 -0.0535978 -4.48494e-20)
(0.352961 -0.0543707 -2.91179e-21)
(0.362756 -0.0550114 4.23023e-20)
(0.372925 -0.055511 7.26035e-22)
(0.383453 -0.0558672 -1.25531e-21)
(0.394326 -0.0560834 -3.17837e-20)
(0.405532 -0.056167 1.11974e-20)
(0.417062 -0.0561293 -8.34387e-21)
(0.428907 -0.055984 -3.47095e-21)
(0.441062 -0.0557469 5.65879e-21)
(0.453521 -0.0554348 -6.91398e-21)
(0.466285 -0.0550651 6.37135e-21)
(0.479352 -0.0546551 -5.89705e-21)
(0.492727 -0.0542208 8.35886e-21)
(0.506414 -0.0537764 -2.47023e-21)
(0.520422 -0.0533336 -2.82181e-21)
(0.534759 -0.0529006 2.43836e-21)
(0.549437 -0.0524816 7.11475e-23)
(0.564468 -0.0520761 2.34525e-21)
(0.579861 -0.0516791 5.23888e-22)
(0.595626 -0.051281 3.37527e-21)
(0.611768 -0.0508679 -6.07448e-21)
(0.628288 -0.050423 2.58139e-21)
(0.645183 -0.0499273 3.06751e-21)
(0.662438 -0.0493619 -1.94046e-21)
(0.68004 -0.0487074 -8.30981e-22)
(0.697951 -0.0479495 -1.04027e-21)
(0.716162 -0.0470706 9.812e-22)
(0.734582 -0.0460684 -7.2215e-22)
(0.753255 -0.0449175 4.40263e-22)
(0.771953 -0.0436436 -3.05939e-22)
(0.790916 -0.0421726 3.71899e-22)
(0.809516 -0.0406218 3.07075e-23)
(0.828628 -0.0387302 -3.94265e-23)
(0.846439 -0.036948 -1.2737e-23)
(0.865761 -0.0343711 6.36139e-23)
(0.881344 -0.0326114 -3.7352e-24)
(0.901691 -0.0287307 -1.51207e-23)
(0.911859 -0.0277787 -2.31676e-23)
(0.93629 -0.0217941 -1.64334e-22)
(0.335814 -0.0513861 -1.17421e-19)
(0.336102 -0.0507306 7.92424e-20)
(0.338623 -0.0509581 -1.4083e-19)
(0.343207 -0.0511622 1.1556e-19)
(0.348294 -0.0518114 3.61601e-20)
(0.353962 -0.0527833 -2.84152e-20)
(0.360259 -0.0539037 -6.03236e-20)
(0.367098 -0.0550832 1.94768e-20)
(0.374422 -0.0562519 7.13987e-20)
(0.382192 -0.0573531 -1.57473e-20)
(0.390373 -0.058347 7.45659e-21)
(0.398936 -0.0592072 -7.77418e-20)
(0.40786 -0.0599178 6.27777e-20)
(0.417125 -0.0604711 3.25972e-20)
(0.426718 -0.0608664 -6.26146e-20)
(0.436628 -0.0611082 1.64903e-20)
(0.446845 -0.0612056 -2.04721e-20)
(0.457362 -0.0611708 2.68279e-20)
(0.468174 -0.0610191 -1.07309e-20)
(0.479277 -0.0607673 1.81851e-21)
(0.49067 -0.0604339 1.05577e-20)
(0.502352 -0.0600375 -1.26758e-20)
(0.514324 -0.0595968 4.26919e-21)
(0.526592 -0.059129 -5.00656e-21)
(0.539159 -0.0586498 9.17913e-21)
(0.552033 -0.0581717 -1.77241e-21)
(0.565224 -0.0577039 -9.79878e-21)
(0.57874 -0.0572509 -2.60466e-22)
(0.592593 -0.0568126 3.1535e-21)
(0.606791 -0.0563837 -7.25701e-21)
(0.621341 -0.0559539 4.61037e-22)
(0.63625 -0.0555084 1.3272e-21)
(0.651517 -0.055029 2.49189e-21)
(0.667139 -0.0544952 1.87156e-21)
(0.683104 -0.0538864 -1.9466e-21)
(0.6994 -0.0531818 -1.73707e-21)
(0.715993 -0.0523657 2.49482e-21)
(0.732878 -0.051419 -2.80376e-22)
(0.749971 -0.0503392 1.11684e-21)
(0.767321 -0.0490982 -1.00511e-21)
(0.78471 -0.0477247 -2.16529e-22)
(0.802381 -0.046136 8.52226e-23)
(0.819726 -0.0444621 9.23817e-25)
(0.837607 -0.042413 1.48359e-23)
(0.854263 -0.0404865 -2.11054e-23)
(0.872433 -0.0376845 -2.73024e-23)
(0.88704 -0.0357794 -3.87424e-23)
(0.906291 -0.0315457 3.2181e-23)
(0.915827 -0.0305125 1.39337e-23)
(0.939055 -0.0239791 -3.51576e-22)
(0.396235 -0.0527011 -4.57908e-20)
(0.394887 -0.0527388 -7.69138e-20)
(0.395986 -0.053484 1.9406e-19)
(0.399497 -0.0540089 -1.03486e-19)
(0.403609 -0.0549509 7.36283e-20)
(0.408363 -0.0561839 -1.02446e-19)
(0.41379 -0.0575256 5.01125e-20)
(0.419768 -0.058893 -3.55321e-20)
(0.426222 -0.0602202 4.66667e-20)
(0.433098 -0.0614537 -2.27573e-20)
(0.440356 -0.0625572 -4.0814e-20)
(0.447964 -0.0635074 7.9081e-20)
(0.455899 -0.0642906 -3.05211e-20)
(0.464145 -0.0649013 -5.19179e-20)
(0.472691 -0.0653404 2.0904e-20)
(0.481527 -0.0656139 -2.23288e-22)
(0.490649 -0.0657319 1.66008e-20)
(0.500051 -0.065708 7.3606e-21)
(0.509732 -0.0655583 -3.28023e-20)
(0.51969 -0.0653011 1.39878e-21)
(0.529924 -0.0649556 2.6852e-20)
(0.540437 -0.0645418 -2.11772e-20)
(0.55123 -0.0640796 4.04338e-21)
(0.562309 -0.0635873 8.15041e-21)
(0.573677 -0.0630817 4.13484e-21)
(0.585343 -0.0625763 -1.92786e-21)
(0.597313 -0.0620811 -5.57487e-21)
(0.609597 -0.0616012 1.72449e-21)
(0.622203 -0.0611367 5.37367e-21)
(0.635138 -0.0606821 -4.09832e-21)
(0.648408 -0.0602268 8.8088e-22)
(0.662018 -0.059755 -5.93182e-22)
(0.675968 -0.0592475 2.32194e-22)
(0.690254 -0.0586824 5.15633e-22)
(0.704865 -0.0580378 3.34541e-22)
(0.719793 -0.0572912 -1.90671e-22)
(0.735005 -0.0564262 -9.91679e-22)
(0.750502 -0.0554219 2.10503e-21)
(0.766205 -0.0542762 -5.31565e-22)
(0.782168 -0.0529579 6.63654e-22)