/*--------------------------------*- C++ -*----------------------------------*\
  =========                 |
  \\      /  F ield         | OpenFOAM: The Open Source CFD Toolbox
   \\    /   O peration     | Website:  https://openfoam.org
    \\  /    A nd           | Version:  7
     \\/     M anipulation  |
\*---------------------------------------------------------------------------*/
FoamFile
{
    version     2.0;
    format      ascii;
    class       volScalarField;
    location    "160";
    object      p;
}
// * * * * * * * * * * * * * * * * * * * * * * * * * * * * * * * * * * * * * //

dimensions      [0 2 -2 0 0 0 0];

internalField   nonuniform List<scalar> 
31800
(
-0.385631
-0.387737
-0.388764
-0.389589
-0.390507
-0.391687
-0.393258
-0.395274
-0.397747
-0.400655
-0.403952
-0.407565
-0.411386
-0.415258
-0.418968
-0.422229
-0.424688
-0.425923
-0.425462
-0.422825
-0.417592
-0.409494
-0.398526
-0.385096
-0.37
-0.37868
-0.381004
-0.382087
-0.382884
-0.383687
-0.384654
-0.385907
-0.387495
-0.389419
-0.391652
-0.394139
-0.396801
-0.399525
-0.402157
-0.404499
-0.406286
-0.407215
-0.406929
-0.40505
-0.401217
-0.395152
-0.386744
-0.37614
-0.36383
-0.35093
-0.371876
-0.374383
-0.375507
-0.376268
-0.376953
-0.377707
-0.378643
-0.379803
-0.381183
-0.382744
-0.384427
-0.386143
-0.387777
-0.389179
-0.390158
-0.39049
-0.389904
-0.388114
-0.384833
-0.379815
-0.372919
-0.364189
-0.353916
-0.342643
-0.331725
-0.36526
-0.367914
-0.369067
-0.369787
-0.370352
-0.370896
-0.371522
-0.372264
-0.373109
-0.374013
-0.374907
-0.375698
-0.376267
-0.376468
-0.376124
-0.375037
-0.372983
-0.369741
-0.365112
-0.358963
-0.35128
-0.34225
-0.332312
-0.322032
-0.312849
-0.358868
-0.361636
-0.362806
-0.36348
-0.363928
-0.364268
-0.364594
-0.364932
-0.36526
-0.365529
-0.36566
-0.365558
-0.365101
-0.364147
-0.362537
-0.360096
-0.35665
-0.352038
-0.34615
-0.338957
-0.330567
-0.321294
-0.311719
-0.302429
-0.294681
-0.352731
-0.355581
-0.356757
-0.357384
-0.357719
-0.357864
-0.357904
-0.357856
-0.357691
-0.357352
-0.356755
-0.355801
-0.354369
-0.352323
-0.349518
-0.345811
-0.341068
-0.335195
-0.328162
-0.32004
-0.311049
-0.301609
-0.292435
-0.284176
-0.277461
-0.346875
-0.349778
-0.350951
-0.351529
-0.351756
-0.351719
-0.35149
-0.351077
-0.350446
-0.349532
-0.348248
-0.346491
-0.344144
-0.341077
-0.337165
-0.33229
-0.326365
-0.319356
-0.311308
-0.302389
-0.292918
-0.283404
-0.274668
-0.267519
-0.261226
-0.341318
-0.344249
-0.345411
-0.345942
-0.346068
-0.34586
-0.34538
-0.344627
-0.343559
-0.342107
-0.34018
-0.337676
-0.334479
-0.330471
-0.325544
-0.319611
-0.312628
-0.304616
-0.295695
-0.286117
-0.27629
-0.266802
-0.258533
-0.252707
-0.247416
-0.336076
-0.339013
-0.340159
-0.340643
-0.340675
-0.340311
-0.339599
-0.33853
-0.337056
-0.335104
-0.332582
-0.329387
-0.325409
-0.320543
-0.314699
-0.307821
-0.299905
-0.291028
-0.281376
-0.271274
-0.261211
-0.251842
-0.244015
-0.239129
-0.235223
-0.33116
-0.334086
-0.335211
-0.33565
-0.335595
-0.335087
-0.334162
-0.332803
-0.330954
-0.32854
-0.32547
-0.321641
-0.316953
-0.311313
-0.30465
-0.296938
-0.288214
-0.278606
-0.268359
-0.257863
-0.247671
-0.238503
-0.231143
-0.227238
-0.224229
-0.326577
-0.329479
-0.33058
-0.330976
-0.330841
-0.330201
-0.329082
-0.327455
-0.325262
-0.322425
-0.318852
-0.314447
-0.309116
-0.302781
-0.295394
-0.286956
-0.277544
-0.267331
-0.256617
-0.245845
-0.235615
-0.226711
-0.219801
-0.216923
-0.214529
-0.322331
-0.325201
-0.326275
-0.326629
-0.326421
-0.325662
-0.324364
-0.322492
-0.319984
-0.316759
-0.312727
-0.3078
-0.301892
-0.29494
-0.286917
-0.277855
-0.267865
-0.257164
-0.246097
-0.235153
-0.224959
-0.216381
-0.209871
-0.208007
-0.206089
-0.318427
-0.321258
-0.322304
-0.322618
-0.322342
-0.321472
-0.320011
-0.317916
-0.315119
-0.311539
-0.307091
-0.301691
-0.295267
-0.28777
-0.279195
-0.269601
-0.259135
-0.24805
-0.236731
-0.225706
-0.21561
-0.207407
-0.201244
-0.200358
-0.198803
-0.314867
-0.317657
-0.318673
-0.318948
-0.318607
-0.317636
-0.316025
-0.313724
-0.310663
-0.30676
-0.301935
-0.296109
-0.289225
-0.281249
-0.272198
-0.262157
-0.251306
-0.239931
-0.228449
-0.217424
-0.207472
-0.19969
-0.193819
-0.193887
-0.192561
-0.311652
-0.3144
-0.315386
-0.315621
-0.31522
-0.314153
-0.312403
-0.309914
-0.306611
-0.302415
-0.297247
-0.291041
-0.283749
-0.275356
-0.2659
-0.255488
-0.244334
-0.232753
-0.221188
-0.210234
-0.200467
-0.193153
-0.187515
-0.18854
-0.187268
-0.308786
-0.311492
-0.312445
-0.312642
-0.312181
-0.311025
-0.309146
-0.306483
-0.302959
-0.298496
-0.293022
-0.286477
-0.278826
-0.270073
-0.260279
-0.249563
-0.238183
-0.226473
-0.214896
-0.204081
-0.194536
-0.18774
-0.182284
-0.18429
-0.182867
-0.306273
-0.308935
-0.309855
-0.310011
-0.309491
-0.30825
-0.306251
-0.303428
-0.299703
-0.295001
-0.289252
-0.282408
-0.274447
-0.26539
-0.255323
-0.244359
-0.232831
-0.221064
-0.209543
-0.198932
-0.189648
-0.183418
-0.178106
-0.181108
-0.179357
-0.304115
-0.306732
-0.307617
-0.30773
-0.307152
-0.305828
-0.303716
-0.300748
-0.296842
-0.291926
-0.285936
-0.278833
-0.270608
-0.261298
-0.251004
-0.239892
-0.228269
-0.216513
-0.205115
-0.19477
-0.185789
-0.180159
-0.174986
-0.178924
-0.176771
-0.302319
-0.304886
-0.305731
-0.305799
-0.305162
-0.303759
-0.301543
-0.298442
-0.294375
-0.289272
-0.283074
-0.275752
-0.26731
-0.257802
-0.247345
-0.236139
-0.224493
-0.212817
-0.201608
-0.191587
-0.182956
-0.177925
-0.172935
-0.1776
-0.175135
-0.300889
-0.303399
-0.304199
-0.304218
-0.303521
-0.302042
-0.29973
-0.29651
-0.292303
-0.28704
-0.280669
-0.273168
-0.264559
-0.254905
-0.244348
-0.233106
-0.221506
-0.209977
-0.199017
-0.189369
-0.181135
-0.17665
-0.171929
-0.176946
-0.174391
-0.299829
-0.302271
-0.30302
-0.302985
-0.302227
-0.300675
-0.298275
-0.294951
-0.290625
-0.28523
-0.278723
-0.271084
-0.262354
-0.252611
-0.242011
-0.230795
-0.219303
-0.20798
-0.197323
-0.188078
-0.180276
-0.176228
-0.171875
-0.17676
-0.174362
-0.299144
-0.301502
-0.302192
-0.302098
-0.301276
-0.299654
-0.297175
-0.293762
-0.289339
-0.283842
-0.277235
-0.269495
-0.260693
-0.250913
-0.240326
-0.229191
-0.217862
-0.206795
-0.19648
-0.187642
-0.180284
-0.176519
-0.172593
-0.17687
-0.174776
-0.298835
-0.30109
-0.30171
-0.301551
-0.300663
-0.298974
-0.296424
-0.292938
-0.288438
-0.282868
-0.2762
-0.268386
-0.259564
-0.249793
-0.239267
-0.228261
-0.217138
-0.206359
-0.196403
-0.187951
-0.181009
-0.17736
-0.173827
-0.177146
-0.175343
-0.298901
-0.301029
-0.301568
-0.301335
-0.300379
-0.298624
-0.296012
-0.292465
-0.287909
-0.282289
-0.275575
-0.267762
-0.258941
-0.249217
-0.238792
-0.227949
-0.217061
-0.206582
-0.196977
-0.18886
-0.182263
-0.178573
-0.175304
-0.177475
-0.175825
-0.299339
-0.301314
-0.301757
-0.301442
-0.300412
-0.298592
-0.295923
-0.292327
-0.287733
-0.282085
-0.275358
-0.267563
-0.258779
-0.249134
-0.238836
-0.228178
-0.217534
-0.207346
-0.198058
-0.190201
-0.183843
-0.179971
-0.176776
-0.177752
-0.176056
-0.300141
-0.301934
-0.302266
-0.301857
-0.300746
-0.298859
-0.296137
-0.292501
-0.287881
-0.282224
-0.275506
-0.267746
-0.259023
-0.249476
-0.23932
-0.228853
-0.218444
-0.208517
-0.199487
-0.191799
-0.18555
-0.181376
-0.178055
-0.177875
-0.17594
-0.301297
-0.302878
-0.303082
-0.302566
-0.301363
-0.299405
-0.296629
-0.292958
-0.28832
-0.282664
-0.275969
-0.268256
-0.259607
-0.250166
-0.240154
-0.229868
-0.219669
-0.209954
-0.201107
-0.193483
-0.187207
-0.182629
-0.179011
-0.177743
-0.175424
-0.302792
-0.304131
-0.304188
-0.303549
-0.302243
-0.300205
-0.29737
-0.293663
-0.289011
-0.283361
-0.276694
-0.269032
-0.260459
-0.251122
-0.241243
-0.231114
-0.221085
-0.21152
-0.202768
-0.195104
-0.188671
-0.183605
-0.179555
-0.177249
-0.174476
-0.304611
-0.305679
-0.305569
-0.304789
-0.303364
-0.301233
-0.298332
-0.294583
-0.289912
-0.284267
-0.277626
-0.270012
-0.261508
-0.252261
-0.242494
-0.232489
-0.222576
-0.21309
-0.204342
-0.19654
-0.189839
-0.184226
-0.179641
-0.176274
-0.173054
-0.306737
-0.307505
-0.307207
-0.306266
-0.304705
-0.302465
-0.299483
-0.295681
-0.290984
-0.285335
-0.278712
-0.271135
-0.262686
-0.253509
-0.243821
-0.233894
-0.224038
-0.214555
-0.205721
-0.197701
-0.190648
-0.184465
-0.179271
-0.174791
-0.171088
-0.309152
-0.309595
-0.309088
-0.307964
-0.306244
-0.303877
-0.300798
-0.296928
-0.292191
-0.286526
-0.279907
-0.272351
-0.263933
-0.254796
-0.245147
-0.235245
-0.225379
-0.215824
-0.206828
-0.198526
-0.191068
-0.184329
-0.178497
-0.173043
-0.168522
-0.311838
-0.311934
-0.311197
-0.309868
-0.307967
-0.30545
-0.302253
-0.298298
-0.293504
-0.287807
-0.281173
-0.273615
-0.2652
-0.256064
-0.246405
-0.236468
-0.226526
-0.21683
-0.207611
-0.198986
-0.191103
-0.183834
-0.177371
-0.171171
-0.165756
-0.314783
-0.314513
-0.313523
-0.311966
-0.30986
-0.30717
-0.303835
-0.299775
-0.294905
-0.289154
-0.282483
-0.274892
-0.266444
-0.257262
-0.247538
-0.237505
-0.227422
-0.217528
-0.208041
-0.199074
-0.19077
-0.183009
-0.175983
-0.169162
-0.163044
-0.317974
-0.31732
-0.316061
-0.314252
-0.311916
-0.309031
-0.305536
-0.301349
-0.296381
-0.290554
-0.283816
-0.276157
-0.267629
-0.258349
-0.248499
-0.238308
-0.228028
-0.217892
-0.208111
-0.1988
-0.190097
-0.181893
-0.174379
-0.167041
-0.160433
-0.321407
-0.320354
-0.318805
-0.316723
-0.314136
-0.311032
-0.307356
-0.303021
-0.297932
-0.292
-0.285159
-0.277388
-0.268727
-0.259289
-0.249252
-0.238846
-0.228323
-0.217915
-0.20783
-0.198187
-0.189117
-0.180522
-0.17259
-0.164828
-0.157831
-0.325077
-0.323613
-0.321758
-0.319382
-0.316522
-0.313181
-0.309301
-0.304796
-0.29956
-0.293489
-0.286503
-0.278567
-0.269714
-0.260054
-0.24977
-0.239099
-0.228297
-0.217601
-0.207217
-0.197262
-0.187861
-0.178926
-0.170639
-0.162522
-0.155216
-0.328988
-0.3271
-0.324923
-0.322237
-0.319087
-0.315488
-0.311386
-0.306687
-0.301273
-0.295023
-0.287841
-0.279679
-0.270567
-0.26062
-0.250035
-0.239058
-0.227955
-0.216967
-0.206294
-0.196054
-0.186359
-0.177129
-0.168538
-0.160125
-0.152561
-0.333146
-0.330821
-0.32831
-0.325299
-0.321842
-0.31797
-0.313626
-0.308706
-0.303078
-0.296602
-0.289164
-0.280708
-0.271268
-0.260973
-0.250036
-0.238724
-0.227308
-0.216032
-0.205089
-0.19459
-0.184635
-0.175151
-0.166299
-0.157637
-0.149855
-0.337559
-0.334785
-0.331928
-0.32858
-0.324805
-0.320644
-0.316037
-0.310868
-0.304983
-0.298224
-0.290461
-0.281638
-0.2718
-0.261099
-0.249773
-0.238105
-0.226375
-0.214821
-0.203627
-0.192895
-0.182709
-0.173006
-0.163928
-0.155056
-0.147086
-0.342237
-0.339001
-0.335788
-0.332095
-0.327991
-0.323528
-0.318635
-0.313181
-0.30699
-0.299882
-0.29172
-0.282453
-0.27215
-0.260994
-0.249249
-0.237215
-0.225174
-0.213356
-0.201929
-0.190988
-0.180599
-0.170704
-0.16143
-0.152382
-0.144249
-0.347192
-0.343479
-0.339904
-0.335858
-0.331417
-0.326636
-0.321433
-0.315653
-0.309096
-0.301565
-0.292922
-0.283136
-0.272307
-0.260654
-0.248471
-0.236068
-0.223724
-0.211657
-0.200017
-0.188885
-0.178316
-0.168254
-0.158809
-0.149611
-0.141337
-0.352434
-0.348229
-0.344285
-0.339882
-0.335096
-0.329982
-0.324437
-0.31828
-0.311288
-0.303254
-0.294048
-0.283669
-0.272261
-0.260082
-0.247449
-0.23468
-0.222044
-0.209741
-0.197904
-0.1866
-0.175869
-0.16566
-0.156065
-0.146743
-0.138346
-0.357968
-0.353256
-0.348939
-0.344177
-0.339038
-0.33357
-0.327645
-0.321054
-0.313551
-0.304927
-0.295075
-0.284037
-0.272005
-0.259278
-0.246193
-0.233065
-0.220148
-0.207624
-0.195603
-0.184141
-0.173264
-0.162926
-0.1532
-0.143775
-0.135272
-0.363799
-0.358564
-0.353873
-0.348748
-0.343246
-0.3374
-0.33105
-0.323957
-0.315859
-0.306556
-0.295978
-0.284222
-0.271534
-0.258247
-0.244712
-0.231234
-0.218049
-0.205314
-0.193122
-0.181514
-0.170505
-0.160054
-0.150212
-0.140703
-0.132109
-0.369924
-0.364154
-0.359085
-0.353596
-0.347718
-0.341463
-0.334635
-0.326963
-0.318181
-0.30811
-0.296733
-0.28421
-0.270842
-0.256992
-0.243013
-0.229196
-0.215753
-0.202818
-0.190465
-0.178723
-0.167595
-0.157043
-0.147102
-0.137526
-0.128854
-0.376336
-0.370017
-0.364572
-0.358715
-0.352444
-0.345743
-0.338373
-0.330039
-0.320478
-0.309553
-0.297312
-0.283986
-0.269925
-0.255514
-0.241101
-0.226956
-0.213266
-0.200141
-0.187636
-0.175769
-0.164533
-0.153893
-0.143867
-0.134241
-0.125503
-0.38302
-0.376144
-0.370323
-0.364093
-0.357408
-0.350214
-0.34223
-0.333142
-0.322709
-0.31085
-0.297691
-0.283535
-0.268777
-0.253813
-0.238978
-0.224517
-0.210589
-0.197282
-0.184634
-0.172651
-0.161319
-0.150603
-0.140505
-0.130843
-0.122052
-0.389956
-0.382516
-0.376321
-0.369711
-0.362584
-0.354842
-0.346163
-0.336227
-0.324829
-0.311963
-0.297845
-0.282844
-0.267391
-0.251886
-0.236643
-0.221878
-0.207722
-0.194242
-0.181459
-0.169369
-0.15795
-0.14717
-0.137014
-0.12733
-0.118497
-0.397113
-0.389109
-0.382542
-0.375542
-0.367938
-0.359584
-0.350122
-0.339239
-0.326789
-0.312856
-0.297747
-0.281897
-0.265761
-0.249729
-0.234092
-0.219035
-0.204661
-0.191016
-0.178106
-0.165919
-0.154425
-0.143591
-0.13339
-0.123699
-0.114834
-0.404456
-0.39589
-0.388954
-0.381549
-0.373427
-0.36439
-0.354051
-0.342124
-0.328541
-0.313492
-0.297375
-0.28068
-0.263875
-0.247336
-0.23132
-0.215983
-0.201401
-0.1876
-0.174573
-0.162298
-0.15074
-0.139864
-0.129631
-0.119945
-0.111059
-0.411941
-0.402821
-0.395518
-0.387691
-0.379
-0.369198
-0.357884
-0.34482
-0.330035
-0.313834
-0.296703
-0.279176
-0.261724
-0.244697
-0.228319
-0.212715
-0.197936
-0.183988
-0.170853
-0.158501
-0.146891
-0.135984
-0.125734
-0.116065
-0.10717
-0.419515
-0.409854
-0.402188
-0.393914
-0.384598
-0.373945
-0.361557
-0.347267
-0.331224
-0.313848
-0.295709
-0.27737
-0.259294
-0.2418
-0.225079
-0.209222
-0.194257
-0.180173
-0.166942
-0.154524
-0.142874
-0.131949
-0.121695
-0.112055
-0.103162
-0.427119
-0.416935
-0.408907
-0.400157
-0.390151
-0.378556
-0.364998
-0.349404
-0.332059
-0.313501
-0.294368
-0.275244
-0.256572
-0.238635
-0.221589
-0.205494
-0.190355
-0.176149
-0.162834
-0.150362
-0.138685
-0.127754
-0.11751
-0.107913
-0.0990326
-0.434686
-0.424003
-0.415612
-0.406353
-0.395587
-0.382956
-0.368134
-0.351171
-0.332494
-0.312758
-0.292657
-0.27278
-0.253542
-0.235188
-0.217836
-0.20152
-0.186223
-0.171907
-0.158521
-0.14601
-0.134319
-0.123396
-0.113177
-0.103634
-0.0947786
-0.442143
-0.430989
-0.422233
-0.412426
-0.400824
-0.387062
-0.370892
-0.352508
-0.332486
-0.311589
-0.290553
-0.269959
-0.250187
-0.231443
-0.213808
-0.197289
-0.18185
-0.167439
-0.153997
-0.141462
-0.129772
-0.118871
-0.108692
-0.0992158
-0.0903974
-0.449408
-0.437815
-0.428691
-0.418291
-0.405775
-0.390792
-0.373201
-0.353357
-0.331993
-0.309963
-0.288033
-0.266762
-0.246492
-0.227386
-0.209492
-0.192789
-0.177226
-0.162739
-0.149257
-0.136712
-0.12504
-0.114176
-0.104052
-0.0946547
-0.0858867
-0.456396
-0.4444
-0.434902
-0.423862
-0.410351
-0.394062
-0.374988
-0.353665
-0.330974
-0.30785
-0.285072
-0.26317
-0.242439
-0.223002
-0.204873
-0.18801
-0.172343
-0.157797
-0.144293
-0.131757
-0.120118
-0.109306
-0.099254
-0.0899482
-0.0812445
-0.463016
-0.450657
-0.440775
-0.429043
-0.414459
-0.396788
-0.376185
-0.353378
-0.329391
-0.305223
-0.281649
-0.259162
-0.23801
-0.218275
-0.19994
-0.182939
-0.167191
-0.152606
-0.139099
-0.12659
-0.115002
-0.10426
-0.0942955
-0.0850938
-0.0764691
-0.469171
-0.456491
-0.446215
-0.433738
-0.418007
-0.398887
-0.376727
-0.352449
-0.327209
-0.302054
-0.277741
-0.25472
-0.233189
-0.213191
-0.194678
-0.177567
-0.16176
-0.147159
-0.133671
-0.121208
-0.109688
-0.0990329
-0.089174
-0.0800891
-0.0715594
-0.474764
-0.461807
-0.451125
-0.437849
-0.4209
-0.400281
-0.376551
-0.350832
-0.324396
-0.298317
-0.273328
-0.249824
-0.227959
-0.207734
-0.189077
-0.171883
-0.156044
-0.14145
-0.128002
-0.115606
-0.104174
-0.093624
-0.0838876
-0.0749327
-0.066515
-0.479693
-0.466505
-0.455403
-0.441275
-0.423049
-0.400894
-0.375601
-0.348486
-0.320919
-0.293989
-0.268387
-0.244458
-0.222304
-0.201892
-0.183124
-0.165878
-0.150033
-0.135473
-0.122088
-0.10978
-0.0984576
-0.0880308
-0.0784349
-0.0696246
-0.0613379
-0.483858
-0.470486
-0.458948
-0.44392
-0.424365
-0.400655
-0.373824
-0.345371
-0.316751
-0.289046
-0.262901
-0.238604
-0.21621
-0.195652
-0.176809
-0.159543
-0.143723
-0.129222
-0.115926
-0.103729
-0.0925351
-0.0822515
-0.0728143
-0.0641655
-0.0560328
-0.487158
-0.473649
-0.46166
-0.445687
-0.424766
-0.399498
-0.371171
-0.341455
-0.311866
-0.283468
-0.256851
-0.232246
-0.209663
-0.189003
-0.170122
-0.152871
-0.137106
-0.122693
-0.109511
-0.0974484
-0.0864053
-0.0762842
-0.067024
-0.0585549
-0.0506028
-0.489495
-0.475896
-0.463441
-0.446484
-0.424174
-0.397365
-0.367601
-0.336707
-0.306242
-0.277236
-0.250222
-0.225371
-0.202651
-0.181934
-0.163057
-0.145856
-0.130179
-0.115883
-0.102841
-0.090938
-0.0800671
-0.070128
-0.0610624
-0.0527878
-0.0450339
-0.490771
-0.477129
-0.464195
-0.446225
-0.422517
-0.394203
-0.363076
-0.331101
-0.299857
-0.270334
-0.242998
-0.217966
-0.195164
-0.174437
-0.155605
-0.138493
-0.122937
-0.108789
-0.0959155
-0.0841966
-0.0735203
-0.0637835
-0.0549311
-0.0468598
-0.0392856
-0.490896
-0.477257
-0.463833
-0.444829
-0.419732
-0.389964
-0.357564
-0.324613
-0.292696
-0.262747
-0.235168
-0.21002
-0.187193
-0.166506
-0.147763
-0.130777
-0.115378
-0.10141
-0.0887334
-0.0772243
-0.0667657
-0.0572527
-0.0486341
-0.0407763
-0.0333377
-0.489783
-0.476193
-0.46227
-0.442224
-0.415762
-0.384611
-0.35104
-0.317227
-0.284745
-0.254465
-0.226722
-0.201526
-0.178731
-0.158135
-0.139526
-0.122707
-0.107501
-0.0937449
-0.0812951
-0.0700222
-0.0598048
-0.050538
-0.0421726
-0.0345444
-0.0272827
-0.487354
-0.473855
-0.459432
-0.438345
-0.41056
-0.37811
-0.343483
-0.308929
-0.275992
-0.245477
-0.217652
-0.192478
-0.169775
-0.149321
-0.130892
-0.114282
-0.0993058
-0.0857955
-0.0736021
-0.0625925
-0.0526403
-0.0436442
-0.0355523
-0.0281462
-0.0211516
-0.483535
-0.470172
-0.455248
-0.433137
-0.404085
-0.370437
-0.334878
-0.299709
-0.266432
-0.23578
-0.207955
-0.182871
-0.160321
-0.140063
-0.121863
-0.105503
-0.0907942
-0.077564
-0.0656574
-0.054939
-0.045277
-0.0365728
-0.0287704
-0.0216086
-0.0149125
-0.478264
-0.465077
-0.449661
-0.426552
-0.396307
-0.361575
-0.325216
-0.289561
-0.25606
-0.225369
-0.197628
-0.172706
-0.15037
-0.130362
-0.112436
-0.0963731
-0.0819696
-0.0690547
-0.0574655
-0.0470643
-0.0377176
-0.0293279
-0.0218326
-0.0149374
-0.00855507
-0.471487
-0.458515
-0.442621
-0.418554
-0.387204
-0.351513
-0.314493
-0.278486
-0.244877
-0.214247
-0.186672
-0.161983
-0.139923
-0.12022
-0.102616
-0.0868989
-0.0728383
-0.0602704
-0.0490302
-0.038974
-0.0299673
-0.0219143
-0.0147449
-0.00813528
-0.00208026
-0.463158
-0.450441
-0.434089
-0.409118
-0.376764
-0.340248
-0.302711
-0.266486
-0.232887
-0.202416
-0.175091
-0.150706
-0.128986
-0.109644
-0.0924177
-0.0770771
-0.0634033
-0.0512182
-0.0403576
-0.0306741
-0.022032
-0.0143379
-0.0075133
-0.00120539
0.00450685
-0.453244
-0.440819
-0.424037
-0.398226
-0.364981
-0.327784
-0.289878
-0.253571
-0.220098
-0.189883
-0.16289
-0.138883
-0.117568
-0.0986418
-0.0818393
-0.0669218
-0.0536724
-0.0419054
-0.0314552
-0.0221718
-0.0139186
-0.00660528
-0.00014393
0.00584727
0.0111999
-0.441722
-0.429625
-0.412446
-0.385872
-0.35186
-0.314131
-0.276007
-0.239753
-0.206521
-0.176659
-0.150081
-0.126529
-0.105675
-0.0872211
-0.0708913
-0.0564417
-0.0436548
-0.0323405
-0.0223313
-0.0134753
-0.00563509
0.00127587
0.00735634
0.0130163
0.0179919
-0.428578
-0.416844
-0.39931
-0.37206
-0.337414
-0.299307
-0.261115
-0.225049
-0.192171
-0.162758
-0.136683
-0.113647
-0.0933211
-0.0753937
-0.0595853
-0.0456475
-0.0333612
-0.0225337
-0.0129958
-0.00459366
0.00280969
0.0092972
0.0149797
0.0202941
0.0248754
-0.413811
-0.402474
-0.384633
-0.356804
-0.321663
-0.283336
-0.245227
-0.20948
-0.177068
-0.148202
-0.122704
-0.100257
-0.0805198
-0.0631735
-0.0479344
-0.0345514
-0.0228034
-0.0124963
-0.00345928
0.00446269
0.0114058
0.0174494
0.0227176
0.0276721
0.0318424
-0.397431
-0.386524
-0.36843
-0.340126
-0.304637
-0.266247
-0.228372
-0.193072
-0.161238
-0.133008
-0.108167
-0.0863774
-0.0672885
-0.0505765
-0.0359539
-0.0231675
-0.0119949
-0.00224093
0.00626615
0.0136824
0.0201426
0.0257223
0.0305604
0.0351408
0.0388843
-0.379458
-0.369013
-0.350726
-0.322057
-0.286369
-0.248079
-0.210582
-0.175856
-0.144704
-0.117199
-0.0930926
-0.0720279
-0.0536465
-0.0376206
-0.0236605
-0.0115116
-0.000950484
0.00821847
0.0161674
0.023053
0.029008
0.0341049
0.0384976
0.0426898
0.0459917
-0.359923
-0.34997
-0.331555
-0.302639
-0.266907
-0.228872
-0.191892
-0.157866
-0.127497
-0.100806
-0.0775073
-0.0572322
-0.0396153
-0.024326
-0.011073
0.000399092
0.0103138
0.0188668
0.0262304
0.0325611
0.0379895
0.0425851
0.0465178
0.0503079
0.0531543
-0.338868
-0.329435
-0.310962
-0.281925
-0.246307
-0.20866
-0.172348
-0.139138
-0.109653
-0.0838573
-0.061439
-0.0420161
-0.0252188
-0.0107146
0.00178848
0.0125457
0.0217805
0.0296878
0.0364397
0.0421925
0.0470735
0.0511502
0.054609
0.0579827
0.0603608
-0.316341
-0.307455
-0.289002
-0.259983
-0.224622
-0.187489
-0.151994
-0.119716
-0.0912087
-0.0663881
-0.0449186
-0.026408
-0.0104829
0.00318977
0.0149018
0.024908
0.0334307
0.0406641
0.0467793
0.0519317
0.0562453
0.0597864
0.062758
0.0657007
0.0675987
-0.292401
-0.284093
-0.265742
-0.236869
-0.201851
-0.165468
-0.130885
-0.0996449
-0.0722047
-0.0484352
-0.0279797
-0.0104383
0.00456442
0.0173614
0.0282435
0.0374643
0.0452446
0.0517772
0.057232
0.0617627
0.0654898
0.0684794
0.0709506
0.0734464
0.0748534
-0.267113
-0.259423
-0.241271
-0.212578
-0.178142
-0.142619
-0.109077
-0.078974
-0.0526853
-0.0300381
-0.0106583
0.0058601
0.0198932
0.0317729
0.0417885
0.0501916
0.0572012
0.0630079
0.06778
0.071669
0.0747911
0.077214
0.0791713
0.0812013
0.0821047
-0.240549
-0.23353
-0.215675
-0.187191
-0.153543
-0.119011
-0.0866274
-0.0577563
-0.0326975
-0.0112394
0.00700723
0.0224523
0.0354715
0.0463952
0.0555102
0.0630658
0.0692782
0.0743358
0.0784047
0.0816332
0.0841331
0.0859748
0.087405
0.088946
0.0893261
-0.212785
-0.206485
-0.188852
-0.160988
-0.128137
-0.0947139
-0.0635986
-0.036047
-0.0122907
0.00791641
0.0249763
0.0393014
0.051266
0.0611979
0.069381
0.0760615
0.0814527
0.0857399
0.0890868
0.0916376
0.0934986
0.0947461
0.095638
0.0966653
0.0965009
-0.183891
-0.178405
-0.16108
-0.13391
-0.102003
-0.0698036
-0.040055
-0.013904
0.00848273
0.0273822
0.0432064
0.0563688
0.0672416
0.076149
0.0833717
0.0891523
0.0937005
0.0971985
0.0998067
0.101664
0.10287
0.103512
0.10386
0.10435
0.103623
-0.153967
-0.149392
-0.132463
-0.106051
-0.0752225
-0.0443559
-0.0160646
0.00861208
0.0295686
0.0471089
0.0616531
0.0736143
0.0833616
0.0912153
0.0974523
0.102311
0.105997
0.108689
0.110544
0.111692
0.112229
0.11226
0.112061
0.111969
0.110602
-0.123279
-0.119435
-0.10307
-0.0775123
-0.047881
-0.0184491
0.00830281
0.0314387
0.0509104
0.0670456
0.0802702
0.090996
0.0995881
0.106363
0.111592
0.115509
0.118317
0.120189
0.121278
0.121704
0.121561
0.120983
0.120225
0.119413
0.117151
-0.0918385
-0.0886981
-0.0729962
-0.0483958
-0.0200687
0.00783611
0.0329748
0.0545111
0.07245
0.0871397
0.0990103
0.108471
0.115882
0.121555
0.125757
0.128718
0.130633
0.131675
0.131988
0.131683
0.13086
0.129685
0.128333
0.126546
0.123061
-0.0597209
-0.0573249
-0.0423495
-0.0188034
0.00812166
0.0344168
0.0578771
0.0777627
0.0941275
0.107337
0.117824
0.125995
0.132203
0.136757
0.139916
0.141907
0.14292
0.143122
0.142651
0.141612
0.140117
0.13836
0.136352
0.133414
0.128952
-0.0270507
-0.0254325
-0.0112416
0.0111603
0.0365953
0.0612081
0.0829342
0.101126
0.115882
0.127583
0.136662
0.143522
0.148511
0.15193
0.154036
0.155046
0.155149
0.154505
0.153246
0.151472
0.149315
0.146968
0.144229
0.140197
0.136733
0.00604567
0.00686211
0.0202127
0.0413887
0.0652559
0.0881241
0.108069
0.124531
0.13765
0.14782
0.155474
0.161007
0.164764
0.167038
0.16808
0.168104
0.167292
0.165798
0.163749
0.161244
0.158426
0.155455
0.151986
0.147326
0.144461
0.0394424
0.0394392
0.051897
0.0717739
0.0940061
0.115077
0.133203
0.147909
0.159371
0.167993
0.174207
0.178403
0.180918
0.182041
0.182016
0.18105
0.17932
0.176976
0.174138
0.170906
0.167426
0.163815
0.159678
0.154592
0.15176
0.0730128
0.0721767
0.0836935
0.102207
0.122748
0.141981
0.158259
0.171188
0.180978
0.188043
0.192809
0.195662
0.196932
0.196902
0.195807
0.193851
0.191205
0.188012
0.184388
0.180434
0.176291
0.172041
0.167298
0.161844
0.158791
0.106629
0.104951
0.115484
0.13258
0.151383
0.168745
0.183156
0.194297
0.20241
0.207912
0.211228
0.212738
0.212763
0.21158
0.209419
0.206476
0.202917
0.19888
0.194476
0.189805
0.185
0.18012
0.174809
0.168977
0.16557
0.140163
0.137637
0.14715
0.162783
0.179813
0.195284
0.207817
0.217166
0.2236
0.227542
0.229412
0.229582
0.228368
0.226038
0.222816
0.218892
0.214427
0.209553
0.204377
0.198996
0.193534
0.188037
0.182179
0.17595
0.172119
0.173486
0.170111
0.178572
0.192708
0.207941
0.221508
0.232163
0.239724
0.244487
0.246876
0.247308
0.246148
0.243703
0.240235
0.235962
0.231068
0.225706
0.220005
0.214066
0.207983
0.201873
0.195771
0.189379
0.182737
0.178445
0.20647
0.202249
0.209635
0.222248
0.235669
0.247332
0.256114
0.2619
0.265005
0.265856
0.264865
0.262388
0.258727
0.254135
0.248824
0.242971
0.236726
0.230209
0.223519
0.216745
0.209997
0.203302
0.196387
0.189325
0.184548
0.23899
0.233927
0.240222
0.251296
0.262902
0.272669
0.279595
0.283624
0.285092
0.284425
0.28203
0.278255
0.273396
0.267697
0.261365
0.254571
0.247457
0.240139
0.232712
0.22526
0.217886
0.210611
0.203183
0.195698
0.190425
0.27092
0.265025
0.270218
0.279747
0.289545
0.297434
0.302529
0.304829
0.304685
0.302527
0.298753
0.293704
0.287669
0.280885
0.273553
0.265836
0.257871
0.24977
0.241622
0.233507
0.225521
0.21768
0.209749
0.201844
0.19607
0.302138
0.295421
0.299511
0.3075
0.315507
0.321546
0.324842
0.325446
0.323725
0.320107
0.314983
0.30869
0.301505
0.293662
0.285352
0.276735
0.267941
0.259077
0.250226
0.241465
0.232883
0.22449
0.216071
0.207752
0.201476
0.332522
0.325001
0.327992
0.334454
0.340698
0.344922
0.34646
0.34541
0.342151
0.33711
0.330673
0.323167
0.314864
0.30599
0.296731
0.287239
0.27764
0.268034
0.258501
0.249114
0.239953
0.231026
0.222133
0.21341
0.206635
0.361956
0.35365
0.355554
0.360512
0.365029
0.367485
0.367313
0.364656
0.359905
0.353485
0.345774
0.337093
0.327708
0.317836
0.307658
0.297319
0.286941
0.276619
0.266427
0.256434
0.246714
0.23727
0.227921
0.218806
0.21154
0.390326
0.381258
0.382093
0.385581
0.388417
0.389157
0.387331
0.383122
0.376931
0.369179
0.36024
0.350427
0.339997
0.329164
0.3181
0.306947
0.295819
0.284807
0.273982
0.263407
0.253149
0.243209
0.233422
0.223928
0.21618
0.417522
0.407717
0.407511
0.409569
0.410779
0.409866
0.406449
0.400748
0.393174
0.384145
0.374027
0.363127
0.351696
0.339941
0.328029
0.316095
0.304249
0.292578
0.281146
0.270014
0.259241
0.248826
0.238623
0.228764
0.220549
0.443439
0.432927
0.431711
0.432389
0.432038
0.42954
0.424602
0.417477
0.408583
0.398334
0.387091
0.375154
0.362769
0.350135
0.337415
0.324738
0.312208
0.299908
0.287899
0.276237
0.264975
0.254109
0.24351
0.233305
0.224637
0.467975
0.456788
0.454602
0.453959
0.452117
0.448113
0.44173
0.433253
0.423106
0.411701
0.399392
0.386473
0.373183
0.359717
0.346231
0.33285
0.319673
0.306779
0.294224
0.28206
0.270335
0.259044
0.248072
0.237538
0.228437
0.491034
0.479209
0.476098
0.4742
0.470947
0.46552
0.457775
0.448024
0.436698
0.424204
0.410891
0.397047
0.382906
0.368657
0.35445
0.340408
0.326623
0.31317
0.300103
0.287468
0.275308
0.263617
0.252297
0.241453
0.23194
0.512527
0.500101
0.496118
0.493038
0.488461
0.481701
0.472682
0.461741
0.449312
0.435801
0.421551
0.406843
0.391908
0.376927
0.362049
0.347389
0.333037
0.319063
0.305519
0.292445
0.27988
0.267818
0.256174
0.245042
0.235141
0.532368
0.519382
0.514584
0.510402
0.504595
0.4966
0.4864
0.474357
0.460908
0.446455
0.431337
0.41583
0.40016
0.384503
0.369004
0.353772
0.338897
0.324442
0.310456
0.296978
0.284039
0.271634
0.259692
0.248294
0.238031
0.550478
0.536977
0.531426
0.52623
0.519292
0.510163
0.498882
0.485829
0.471445
0.45613
0.440217
0.423979
0.407636
0.39136
0.375292
0.359539
0.344184
0.32929
0.314901
0.301052
0.287772
0.275055
0.262843
0.2512
0.240604
0.566785
0.552815
0.546578
0.540461
0.532498
0.522343
0.510083
0.496117
0.480888
0.464794
0.448163
0.431264
0.414311
0.397477
0.380895
0.364671
0.348883
0.333592
0.31884
0.304658
0.29107
0.278072
0.265617
0.253754
0.242856
0.581223
0.566832
0.559981
0.553041
0.544165
0.533096
0.519965
0.505186
0.489205
0.472416
0.455146
0.437658
0.420165
0.402833
0.385795
0.369151
0.352979
0.337336
0.32226
0.307783
0.293922
0.280675
0.268005
0.255947
0.24478
0.593731
0.578971
0.571582
0.563922
0.554248
0.542381
0.52849
0.513002
0.496365
0.478971
0.461143
0.443142
0.425176
0.407411
0.389974
0.372965
0.356459
0.340508
0.325152
0.310417
0.29632
0.282857
0.270001
0.257774
0.246371
0.604258
0.58918
0.581332
0.573061
0.562709
0.550165
0.535628
0.519538
0.502343
0.484434
0.466132
0.447695
0.429328
0.411194
0.393419
0.376101
0.35931
0.3431
0.327506
0.312553
0.298256
0.284611
0.271599
0.259228
0.247627
0.612757
0.597416
0.589192
0.58042
0.569514
0.556415
0.541351
0.524767
0.507116
0.488786
0.470095
0.4513
0.432605
0.414169
0.396118
0.378545
0.361523
0.3451
0.329313
0.314183
0.299722
0.285931
0.272792
0.260305
0.248543
0.619191
0.603641
0.595127
0.585968
0.574634
0.561108
0.545635
0.52867
0.510665
0.492008
0.473016
0.453944
0.434994
0.416325
0.398059
0.380291
0.363089
0.346503
0.330566
0.3153
0.300715
0.286811
0.273575
0.261
0.249115
0.623528
0.607825
0.599109
0.589681
0.578048
0.564222
0.548463
0.531229
0.512975
0.494087
0.474883
0.455615
0.436485
0.417651
0.399235
0.381328
0.364001
0.3473
0.33126
0.3159
0.301229
0.287247
0.273946
0.26131
0.249343
0.625744
0.609947
0.601116
0.591538
0.579737
0.565742
0.549819
0.532431
0.514033
0.495013
0.475685
0.456304
0.43707
0.418141
0.399638
0.381653
0.364254
0.347489
0.33139
0.315978
0.30126
0.287238
0.273902
0.261236
0.249234
0.625824
0.609989
0.601134
0.591526
0.57969
0.565656
0.549693
0.532267
0.513832
0.494777
0.475417
0.456005
0.436744
0.41779
0.399265
0.38126
0.363844
0.347065
0.330954
0.315532
0.300807
0.286779
0.273439
0.260773
0.24877
0.623758
0.607944
0.599155
0.589639
0.5779
0.563959
0.548081
0.530733
0.512368
0.493376
0.474074
0.454716
0.435504
0.416596
0.398113
0.380149
0.36277
0.346027
0.329951
0.314561
0.299868
0.28587