/*--------------------------------*- C++ -*----------------------------------*\
  =========                 |
  \\      /  F ield         | OpenFOAM: The Open Source CFD Toolbox
   \\    /   O peration     | Website:  https://openfoam.org
    \\  /    A nd           | Version:  7
     \\/     M anipulation  |
\*---------------------------------------------------------------------------*/
FoamFile
{
    version     2.0;
    format      ascii;
    class       surfaceScalarField;
    location    "160";
    object      phi;
}
// * * * * * * * * * * * * * * * * * * * * * * * * * * * * * * * * * * * * * //

dimensions      [0 3 -1 0 0 0 0];

internalField   nonuniform List<scalar> 
63130
(
-3.22563e-06
-9.62289e-05
9.94545e-05
-1.22345e-05
-0.000238792
0.000247801
-2.67211e-05
-0.000344025
0.000358511
-4.63061e-05
-0.000415766
0.000435351
-7.05763e-05
-0.000459069
0.000483339
-9.91409e-05
-0.000479586
0.000508151
-0.000131667
-0.00048274
0.000515267
-0.000167891
-0.000472976
0.000509199
-0.000207604
-0.000453178
0.000492891
-0.000250624
-0.000424364
0.000467385
-0.000296763
-0.000385694
0.000431833
-0.000345784
-0.000334733
0.000383754
-0.000397362
-0.000267829
0.000319407
-0.000451031
-0.000180483
0.000234152
-0.000506147
-6.7635e-05
0.000122751
-0.000561796
7.60123e-05
-2.03632e-05
-0.000616817
0.000255849
-0.000200828
-0.00066971
0.000476852
-0.000423959
-0.000718656
0.00074308
-0.000694134
-0.000761539
0.00105693
-0.00101405
-0.000796019
0.00141828
-0.0013838
-0.000819687
0.00182354
-0.00179987
-0.000830253
0.00226474
-0.00225417
-0.000825798
0.0027294
-0.00273386
0.00320332
-0.00322364
-0.000805475
-3.63684e-06
-9.25921e-05
-1.35486e-05
-0.00022888
-2.92065e-05
-0.000328367
-5.0076e-05
-0.000394896
-7.56531e-05
-0.000433492
-0.000105511
-0.000449728
-0.000139321
-0.00044893
-0.000176848
-0.000435449
-0.000217919
-0.000412107
-0.000262382
-0.000379901
-0.000310063
-0.000338013
-0.000360719
-0.000284077
-0.000413995
-0.000214554
-0.000469377
-0.0001251
-0.000526121
-1.08906e-05
-0.000583234
0.000133125
-0.000639375
0.00031199
-0.000692836
0.000530313
-0.00074151
0.000791754
-0.000782898
0.00109832
-0.000814154
0.00144953
-0.000832205
0.00184159
-0.000833948
0.00226648
-0.000816215
0.00271167
0.00316375
-0.000776647
-3.98587e-06
-8.86062e-05
-1.46482e-05
-0.000218218
-3.1252e-05
-0.000311763
-5.31167e-05
-0.000373031
-7.96502e-05
-0.000406958
-0.000110386
-0.000418993
-0.00014499
-0.000414326
-0.000183241
-0.000397198
-0.000224986
-0.000370363
-0.000270084
-0.000334803
-0.000318352
-0.000289744
-0.000369517
-0.000232912
-0.000423168
-0.000160903
-0.000478715
-6.95536e-05
-0.000535297
4.56911e-05
-0.000591781
0.000189609
-0.00064664
0.000366849
-0.000697918
0.000581591
-0.000743185
0.000837022
-0.000779524
0.00113466
-0.000803537
0.00147355
-0.000811437
0.00184949
-0.000799274
0.00225432
-0.000762744
0.00267514
0.0030986
-0.000697598
-4.2716e-06
-8.43346e-05
-1.55325e-05
-0.000206957
-3.28599e-05
-0.000294436
-5.54377e-05
-0.000350453
-8.25875e-05
-0.000379809
-0.000113798
-0.000387782
-0.000148719
-0.000379405
-0.000187128
-0.000358789
-0.000228874
-0.000328617
-0.000273807
-0.00028987
-0.000321716
-0.000241835
-0.000372273
-0.000182354
-0.000424987
-0.000108189
-0.000479159
-1.53822e-05
-0.000533793
0.000100326
-0.00058758
0.000243396
-0.000638779
0.000418048
-0.000685162
0.000627974
-0.000723959
0.000875819
-0.000751817
0.00116252
-0.00076479
0.00148652
-0.000758375
0.00184307
-0.0007278
0.00222374
-0.000667911
0.00261525
0.00300293
-0.000572242
-4.49514e-06
-7.98395e-05
-1.62073e-05
-0.000195245
-3.40457e-05
-0.000276597
-5.70688e-05
-0.00032743
-8.45136e-05
-0.000352364
-0.000115817
-0.000356479
-0.000150603
-0.00034462
-0.000188631
-0.000320761
-0.000229733
-0.000287515
-0.000273732
-0.000245871
-0.000320369
-0.000195199
-0.000369241
-0.000133481
-0.000419757
-5.76729e-05
-0.000471064
3.59242e-05
-0.000522038
0.0001513
-0.00057115
0.000292508
-0.000616428
0.000463325
-0.000655361
0.000666908
-0.000684834
0.000905292
-0.000701076
0.00117876
-0.000699635
0.00148508
-0.000675364
0.0018188
-0.000622712
0.00217109
-0.000536122
0.00252866
0.00287363
-0.000406825
-4.65958e-06
-7.51799e-05
-1.66848e-05
-0.00018322
-3.48369e-05
-0.000258445
-5.80588e-05
-0.000304208
-8.5504e-05
-0.000324918
-0.000116552
-0.000325431
-0.000150784
-0.000310387
-0.000187931
-0.000283614
-0.000227789
-0.000247656
-0.000270136
-0.000203524
-0.000314646
-0.000150689
-0.000360824
-8.73033e-05
-0.000407953
-1.05439e-05
-0.000455036
8.30076e-05
-0.000500755
0.000197019
-0.000543374
0.000335127
-0.000580674
0.000500625
-0.00060986
0.000696094
-0.000627491
0.000922922
-0.000629417
0.00118069
-0.000610766
0.00146643
-0.000565893
0.00177393
-0.000488525
0.00209372
-0.00037314
0.00241328
0.00271026
-0.000209766
-4.76994e-06
-7.04099e-05
-1.6983e-05
-0.000171007
-3.52717e-05
-0.000240157
-5.84729e-05
-0.000281007
-8.56569e-05
-0.000297734
-0.000116138
-0.000294949
-0.000149447
-0.000277078
-0.000185265
-0.000247796
-0.000223339
-0.000209582
-0.000263385
-0.000163479
-0.000304994
-0.00010908
-0.000347566
-4.47313e-05
-0.000390246
3.21361e-05
-0.000431874
0.000124636
-0.000470932
0.000236076
-0.000505465
0.00036966
-0.000533006
0.000528167
-0.000550493
0.000713581
-0.000554192
0.000926621
-0.000539644
0.00116614
-0.000501659
0.00142844
-0.000434304
0.00170658
-0.000330705
0.00199012
-0.000185189
0.00226776
0.00251663
8.44215e-06
-4.83272e-06
-6.55772e-05
-1.71245e-05
-0.000158715
-3.53968e-05
-0.000221884
-5.8389e-05
-0.000258015
-8.5089e-05
-0.000271034
-0.00011474
-0.000265299
-0.000146808
-0.000245011
-0.000180913
-0.000213691
-0.000216737
-0.000173758
-0.000253919
-0.000126297
-0.000291958
-7.10406e-05
-0.000330136
-6.5538e-06
-0.000367452
6.94526e-05
-0.000402576
0.000159759
-0.000433787
0.000267288
-0.000458913
0.000394786
-0.000475252
0.000544505
-0.000479497
0.000717826
-0.000467674
0.000914798
-0.000435098
0.00113356
-0.000376377
0.00136972
-0.000285493
0.00161569
-0.000155289
0.00185992
2.14821e-05
0.00209099
0.00228674
0.000251371
-4.85558e-06
-6.07217e-05
-1.7135e-05
-0.000146435
-3.52646e-05
-0.000203755
-5.78943e-05
-0.000235385
-8.39295e-05
-0.000244999
-0.000112537
-0.000236691
-0.000143107
-0.00021444
-0.000175188
-0.00018161
-0.000208381
-0.000140564
-0.000242239
-9.24391e-05
-0.000276158
-3.71215e-05
-0.000309297
2.65845e-05
-0.000340508
0.000100664
-0.000368288
0.000187539
-0.000390723
0.000289723
-0.000405433
0.000409496
-0.000409501
0.000548573
-0.000399415
0.000707741
-0.000371019
0.000886402
-0.000319493
0.00108204
-0.000239374
0.0012896
-0.000124715
0.00150103
3.13306e-05
0.00170388
0.000234118
0.0018882
0.00202413
0.000496723
-4.84682e-06
-5.58748e-05
-1.70421e-05
-0.00013424
-3.49308e-05
-0.000185866
-5.70801e-05
-0.000213236
-8.23143e-05
-0.000219765
-0.000109718
-0.000209288
-0.0001386
-0.000185558
-0.000168423
-0.000151788
-0.000198699
-0.000110288
-0.000228885
-6.22538e-05
-0.000258268
-7.73863e-06
-0.000285882
5.41986e-05
-0.000310437
0.000125219
-0.000330264
0.000207366
-0.000343271
0.00030273
-0.000346888
0.000413113
-0.000338017
0.000539702
-0.000312985
0.000682709
-0.00026752
0.000840936
-0.000196758
0.00101127
-9.52706e-05
0.00118812
4.24905e-05
0.00136327
0.00022346
0.00152291
0.000451352
0.00166031
0.00173408
0.000741403
-4.81492e-06
-5.10599e-05
-1.68735e-05
-0.000122182
-3.44507e-05
-0.000168289
-5.60376e-05
-0.000191649
-8.03783e-05
-0.000195424
-0.000106473
-0.000183193
-0.000133542
-0.000158488
-0.000160954
-0.000124376
-0.000188125
-8.31166e-05
-0.000214408
-3.59711e-05
-0.00023898
1.68337e-05
-0.000260754
7.59722e-05
-0.000278303
0.000142767
-0.000289809
0.000218872
-0.00029302
0.000305941
-0.000285208
0.000405301
-0.000263134
0.000517628
-0.000223016
0.000642591
-0.00016053
0.00077845
-7.08392e-05
0.000921583
5.12585e-05
0.00106602
0.000210921
0.00120361
0.000414903
0.00131892
0.000664939
0.00141027
0.00142052
0.000978505
-4.76795e-06
-4.6292e-05
-1.66555e-05
-0.000110294
-3.38768e-05
-0.000151068
-5.48524e-05
-0.000170674
-7.82485e-05
-0.000172028
-0.00010298
-0.000158462
-0.000128174
-0.000133294
-0.000153102
-9.94481e-05
-0.000177077
-5.91419e-05
-0.000199345
-1.37031e-05
-0.000218974
3.64631e-05
-0.000234761
9.17586e-05
-0.000245154
0.000153161
-0.000248207
0.000221925
-0.000241536
0.00029927
-0.00022229
0.000386055
-0.000187131
0.00048247
-0.000132228
0.000587688
-5.326e-05
0.000699483
5.44011e-05
0.000813922
0.000195882
0.000924538
0.000375634
0.00102386
0.000600326
0.00109423
0.000869052
0.00114155
0.00108732
0.00120225
-4.71314e-06
-4.15788e-05
-1.64114e-05
-9.85958e-05
-3.32549e-05
-0.000134224
-5.35993e-05
-0.000150329
-7.60361e-05
-0.000149592
-9.93954e-05
-0.000135102
-0.000122711
-0.000109978
-0.000145152
-7.70067e-05
-0.000165929
-3.83653e-05
-0.00018418
4.54834e-06
-0.000198868
5.11504e-05
-0.000208679
0.00010157
-0.000211955
0.000156437
-0.000206642
0.000216613
-0.000190255
0.000282883
-0.000159859
0.000355659
-0.000112066
0.000434676
-4.3038e-05
0.00051866
5.1402e-05
0.000605043
0.000175783
0.000689541
0.000334906
0.000765416
0.000532544
0.000826218
0.000775507
0.000851268
0.00105951
0.000857545
0.000737748
0.00140909
-4.65636e-06
-3.69225e-05
-1.61599e-05
-8.70922e-05
-3.26219e-05
-0.000117762
-5.23381e-05
-0.000130613
-7.38296e-05
-0.0001281
-9.58441e-05
-0.000113088
-0.000117323
-8.84991e-05
-0.000137336
-5.69937e-05
-0.000154988
-2.07135e-05
-0.000169314
1.8874e-05
-0.000179172
6.10089e-05
-0.000183153
0.000105551
-0.000179506
0.00015279
-0.000166091
0.000203198
-0.000140353
0.000257145
-9.93098e-05
0.000314616
-3.95628e-05
0.00037493
4.26403e-05
0.000436457
0.000151418
0.000496265
0.000291004
0.000549954
0.00046593
0.00059049
0.000679291
0.000612857
0.000938381
0.000592178
0.00123513
0.000560801
0.000373623
0.00159925
-4.60177e-06
-3.23207e-05
-1.5914e-05
-7.578e-05
-3.20026e-05
-0.000101674
-5.1109e-05
-0.000111506
-7.1688e-05
-0.000107521
-9.24096e-05
-9.23662e-05
-0.000112126
-6.87824e-05
-0.00012981
-3.93105e-05
-0.000144462
-6.06062e-06
-0.000155019
2.94302e-05
-0.00016024
6.62305e-05
-0.000158628
0.000103938
-0.000148352
0.000142514
-0.000127208
0.000182054
-9.25938e-05
0.000222531
-4.15037e-05
0.000263526
2.94189e-05
0.000304007
0.000123884
0.000341992
0.000245843
0.000374306
0.000399309
0.000396488
0.00058856
0.000401239
0.000816163
0.000385254
0.00109015
0.000318189
0.00139905
0.0002519
-5.41132e-06
0.00177809
-4.55146e-06
-2.77692e-05
-1.56798e-05
-6.46517e-05
-3.14086e-05
-8.59447e-05
-4.99292e-05
-9.29858e-05
-6.9636e-05
-8.78143e-05
-8.9126e-05
-7.28762e-05
-0.000107167
-5.07415e-05
-0.000122636
-2.38411e-05
-0.000134439
5.74173e-06
-0.000141409
3.64005e-05
-0.000142217
6.70379e-05
-0.000135278
9.70001e-05
-0.000118693
0.000125929
-9.02e-05
0.000153561
-4.71643e-05
0.000179495
1.34309e-05
0.00020293
9.49227e-05
0.000222515
0.000200949
0.000235965
0.000335358
0.000239897
0.000502017
0.000229828
0.000705042
0.000198214
0.000946824
0.000143472
0.00123603
2.89836e-05
0.00155931
-7.13799e-05
-0.00040204
0.00195594
-4.50533e-06
-2.32639e-05
-1.54562e-05
-5.37008e-05
-3.08364e-05
-7.05645e-05
-4.87916e-05
-7.50306e-05
-6.76606e-05
-6.89453e-05
-8.59728e-05
-5.45639e-05
-0.000102416
-3.42985e-05
-0.000115777
-1.04804e-05
-0.000124863
1.48277e-05
-0.000128411
3.99491e-05
-0.000124998
6.36245e-05
-0.000112954
8.4956e-05
-9.03035e-05
0.000103279
-5.47234e-05
0.000117981
-3.51851e-06
0.00012829
6.63042e-05
0.000133108
0.000158146
0.000130674
0.000275617
0.000118494
0.000422546
9.29686e-05
0.000602811
4.95627e-05
0.000820479
-1.94536e-05
0.00107828
-0.000114329
0.00138485
-0.000277585
0.00172743
-0.00041396
-0.000820142
0.00214553
-4.46106e-06
-1.88029e-05
-1.5235e-05
-4.29268e-05
-3.02678e-05
-5.55318e-05
-4.76635e-05
-5.76349e-05
-6.571e-05
-5.08989e-05
-8.2873e-05
-3.74009e-05
-9.77631e-05
-1.94084e-05
-0.000109078
8.34375e-07
-0.000115527
2.12767e-05
-0.000115745
4.01675e-05
-0.000108206
5.60854e-05
-9.11424e-05
6.78923e-05
-6.24857e-05
7.46224e-05
-1.98236e-05
7.53184e-05
3.95977e-05
6.88687e-05
0.000118913
5.37921e-05
0.000221548
2.80389e-05
0.000351213
-1.11711e-05
0.000511838
-6.76565e-05
0.000707488
-0.000146086
0.000942241
-0.000254207
0.00121964
-0.000391726
0.00154705
-0.000604996
0.00191501
-0.000781924
-0.00126235
0.00235722
-4.41423e-06
-1.43886e-05
-1.5001e-05
-3.23401e-05
-2.96706e-05
-4.08622e-05
-4.64889e-05
-4.08166e-05
-6.36956e-05
-3.36922e-05
-7.9695e-05
-2.14014e-05
-9.30208e-05
-6.08262e-06
-0.000102279
1.00923e-05
-0.000106074
2.50717e-05
-0.000102927
3.70205e-05
-9.11903e-05
4.43489e-05
-6.89711e-05
4.56731e-05
-3.40722e-05
3.97235e-05
1.6053e-05
2.51932e-05
8.43127e-05
6.09025e-07
0.000173984
-3.58792e-05
0.000288673
-8.66499e-05
0.000432279
-0.000154777
0.000608927
-0.000244304
0.000822957
-0.000360117
0.00107838
-0.000509633
0.00137964
-0.000692983
0.00173133
-0.000956681
0.00212915
-0.00117975
-0.00172719
0.002594
-4.35871e-06
-1.00299e-05
-1.47331e-05
-2.19656e-05
-2.90007e-05
-2.65946e-05
-4.51911e-05
-2.46263e-05
-6.14968e-05
-1.73865e-05
-7.62596e-05
-6.63854e-06
-8.79324e-05
5.59017e-06
-9.5021e-05
1.7181e-05
-9.60119e-05
2.60626e-05
-8.92905e-05
3.0299e-05
-7.30581e-05
2.81165e-05
-4.52537e-05
1.78688e-05
-3.49445e-06
-2.03583e-06
5.49533e-05
-3.32546e-05
0.000133233
-7.76705e-05
0.000234852
-0.000137499
0.000363669
-0.000215466
0.000523827
-0.000314935
0.000719633
-0.00044011
0.000955593
-0.000596077
0.00123537
-0.000789409
0.0015637
-0.00102131
0.00194113
-0.00133412
0.00236881
-0.00160743
-0.0022074
0.00284902
-4.2871e-06
-5.74282e-06
-1.44064e-05
-1.18463e-05
-2.82055e-05
-1.27955e-05
-4.36783e-05
-9.15338e-06
-5.89686e-05
-2.0962e-06
-7.23508e-05
6.74367e-06
-8.21878e-05
1.54272e-05
-8.6871e-05
2.18641e-05
-8.47465e-05
2.39382e-05
-7.40339e-05
1.95864e-05
-5.27428e-05
6.82539e-06
-1.85909e-05
-1.62831e-05
3.10402e-05
-5.16669e-05
9.91714e-05
-0.000101386
0.000189216
-0.000167715
0.000304973
-0.000253256
0.000450558
-0.000361051
0.000630295
-0.000494673
0.000848484
-0.000658299
0.00110939
-0.00085698
0.00141583
-0.00109585
0.00177161
-0.0013771
0.00217263
-0.00173513
0.00262404
-0.00205884
-0.0026904
0.00310704
-4.19139e-06
-1.55143e-06
-1.39936e-05
-2.04407e-06
-2.72273e-05
4.38172e-07
-4.18503e-05
5.4696e-06
-5.59524e-05
1.20059e-05
-6.77316e-05
1.85228e-05
-7.54463e-05
2.31419e-05
-7.73525e-05
2.37703e-05
-7.16274e-05
1.8213e-05
-5.62862e-05
4.24515e-06
-2.91024e-05
-2.03584e-05
1.24862e-05
-5.78717e-05
7.13946e-05
-0.000110575
0.00015096
-0.000180952
0.00025491
-0.000271664
0.000387302
-0.000385648
0.000552402
-0.000526151
0.000754477
-0.000696748
0.00099742
-0.000901242
0.00128457
-0.00114413
0.0016173
-0.00142859
0.00199698
-0.00175678
0.00241509
-0.00215325
0.00287839
-0.00252213
-0.00316112
0.00334911
-4.06372e-06
2.51229e-06
-1.34677e-05
7.35988e-06
-2.60088e-05
1.29793e-05
-3.9606e-05
1.90668e-05
-5.22876e-05
2.46875e-05
-6.21615e-05
2.83967e-05
-6.73628e-05
2.83432e-05
-6.59859e-05
2.23934e-05
-5.60052e-05
8.23234e-06
-3.51899e-05
-1.65701e-05
-1.01478e-06
-5.45335e-05
4.93486e-05
-0.000108235
0.000119201
-0.000180428
0.000212189
-0.000273939
0.000332298
-0.000391774
0.000483717
-0.000537067
0.0006706
-0.000713034
0.000896741
-0.00092289
0.00116507
-0.00116957
0.00147718
-0.00145624
0.00183239
-0.0017838
0.0022285
-0.00215289
0.00265354
-0.00257829
0.00311347
-0.00298205
-0.00360551
0.00355786
-3.89712e-06
6.40941e-06
-1.28042e-05
1.6267e-05
-2.44973e-05
2.46724e-05
-3.68521e-05
3.14216e-05
-4.78248e-05
3.56602e-05
-5.54167e-05
3.59887e-05
-5.76168e-05
3.05433e-05
-5.23293e-05
1.71058e-05
-3.72919e-05
-6.80501e-06
-9.99418e-06
-4.38678e-05
3.23927e-05
-9.69204e-05
9.30875e-05
-0.00016893
0.000175666
-0.000263006
0.000284048
-0.000382321
0.000422342
-0.000530068
0.000594609
-0.000709333
0.000804499
-0.000922924
0.00105479
-0.00117318
0.00134681
-0.00146159
0.00167974
-0.00178917
0.00205036
-0.00215442
0.00245259
-0.00255511
0.00287249
-0.00299819
0.00331364
-0.0034232
-0.00401333
0.00372146
-3.68621e-06
1.00956e-05
-1.19837e-05
2.45644e-05
-2.26497e-05
3.53384e-05
-3.35106e-05
4.22826e-05
-4.2438e-05
4.45875e-05
-4.73081e-05
4.08588e-05
-4.59396e-05
2.91748e-05
-3.60182e-05
7.18445e-06
-1.50162e-05
-2.7807e-05
1.98838e-05
-7.87678e-05
7.18446e-05
-0.000148881
0.000144399
-0.000241484
0.000241391
-0.000359999
0.000366861
-0.000507791
0.000524794
-0.000688002
0.000718761
-0.0009033
0.000951428
-0.00115559
0.00122399
-0.00144574
0.00153561
-0.00177321
0.00188269
-0.00213625
0.00225935
-0.00253108
0.00265626
-0.00295202
0.00305922
-0.00340115
0.00346901
-0.00383299
-0.00437928
0.00383496
-3.42781e-06
1.35234e-05
-1.09933e-05
3.213e-05
-2.04359e-05
4.4781e-05
-2.95254e-05
5.13721e-05
-3.60349e-05
5.1097e-05
-3.76965e-05
4.25203e-05
-3.21359e-05
2.36142e-05
-1.67969e-05
-8.15454e-06
1.11338e-05
-5.57377e-05
5.47876e-05
-0.000122422
0.000117641
-0.000211734
0.000203484
-0.000327327
0.000316298
-0.000472812
0.000460026
-0.000651519
0.00063821
-0.000866185
0.0008535
-0.00111859
0.00110708
-0.00140917
0.00139809
-0.00173675
0.0017232
-0.00209832
0.00207609
-0.00248915
0.00244859
-0.00290358
0.00282944
-0.00333286
0.00320579
-0.00377749
0.00357621
-0.00420342
-0.00470267
0.00389959
-3.12123e-06
1.66447e-05
-9.82829e-06
3.8837e-05
-1.78417e-05
5.27943e-05
-2.48665e-05
5.8397e-05
-2.85635e-05
5.4794e-05
-2.65031e-05
4.04599e-05
-1.60988e-05
1.321e-05
5.46263e-06
-2.9716e-05
4.12857e-05
-9.15608e-05
9.47994e-05
-0.000175935
0.000169739
-0.000286674
0.000270044
-0.000427632
0.000399642
-0.000602411
0.000562101
-0.000813978
0.000760141
-0.00106423
0.000995059
-0.00135351
0.00126614
-0.00168025
0.00157017
-0.00204078
0.00190134
-0.00242949
0.00225114
-0.00283894
0.00260989
-0.00326233
0.00296605
-0.00368902
0.00330938
-0.00412083
0.00363725
-0.00453129
-0.00498621
0.0039208
-2.76842e-06
1.94131e-05
-8.49187e-06
4.45605e-05
-1.48691e-05
5.91716e-05
-1.95317e-05
6.30595e-05
-2.00149e-05
5.52772e-05
-1.37127e-05
3.41577e-05
2.18611e-06
-2.68878e-06
3.07568e-05
-5.82867e-05
7.53822e-05
-0.000136186
0.000139745
-0.000240299
0.00022775
-0.000374678
0.000343329
-0.000543211
0.000490116
-0.000749198
0.000670978
-0.000994839
0.000887431
-0.00128068
0.00113904
-0.00160511
0.00142291
-0.00196413
0.00173349
-0.00235136
0.00206286
-0.00275886
0.00240116
-0.00317724
0.00273833
-0.00359951
0.00306411
-0.0040148
0.00337144
-0.00442816
0.00365761
-0.00481746
-0.00523469
0.00390609
-2.37371e-06
2.17868e-05
-6.99516e-06
4.91819e-05
-1.15361e-05
6.37126e-05
-1.3545e-05
6.50684e-05
-1.04208e-05
5.2153e-05
6.29778e-07
2.3107e-05
2.26465e-05
-2.47055e-05
5.89603e-05
-9.46005e-05
0.000113199
-0.000190425
0.000189229
-0.000316329
0.000290995
-0.000476445
0.000422225
-0.000674441
0.000585984
-0.000912957
0.000784099
-0.00119295
0.00101653
-0.00151311
0.00128084
-0.00186942
0.00157193
-0.00225522
0.0018822
-0.00266164
0.0022023
-0.00307896
0.00252211
-0.00349705
0.00283231
-0.00390971
0.00312506
-0.00430755
0.00339631
-0.00469941
0.00364425
-0.0050654
-0.00545388
0.00386345
-1.94337e-06
2.37302e-05
-5.35552e-06
5.25941e-05
-7.87325e-06
6.62303e-05
-6.95285e-06
6.4148e-05
1.52197e-07
4.5048e-05
1.64277e-05
6.83156e-06
4.5139e-05
-5.34169e-05
8.98488e-05
-0.00013931
0.000154378
-0.000254954
0.000242679
-0.000404629
0.000358578
-0.000592344
0.000505367
-0.00082123
0.000685244
-0.00109283
0.000898673
-0.00140638
0.00114379
-0.00175823
0.00141607
-0.0021417
0.0017084
-0.00254754
0.00201173
-0.00296497
0.00231619
-0.00338342
0.00261246
-0.00379332
0.0028929
-0.00419015
0.00315268
-0.00456733
0.00338996
-0.00493669
0.00360383
-0.00527927
-0.00565089
0.00380084
-1.48483e-06
2.5215e-05
-3.59449e-06
5.47037e-05
-3.92033e-06
6.65561e-05
1.8285e-07
6.00448e-05
1.16133e-05
3.36175e-05
3.35491e-05
-1.51042e-05
6.9468e-05
-8.93358e-05
0.000123128
-0.00019297
0.000198471
-0.000330297
0.000299409
-0.000505567
0.000429462
-0.000722397
0.00059123
-0.000982999
0.000785751
-0.00128736
0.00101185
-0.00163249
0.00126571
-0.00201209
0.00154081
-0.0024168
0.0018285
-0.00283523
0.00211906
-0.00325553
0.00240307
-0.00366743
0.00267285
-0.0040631
0.00292307
-0.00444037
0.00315189
-0.00479615
0.00335919
-0.00514398
0.0035468
-0.00546688
-0.00582265
0.00371856
-1.00582e-06
2.62208e-05
-1.73523e-06
5.54331e-05
2.79506e-07
6.45414e-05
7.79243e-06
5.25319e-05
2.38586e-05
1.75514e-05
5.1842e-05
-4.30877e-05
9.54098e-05
-0.000132904
0.000158464
-0.000256025
0.000244973
-0.000416806
0.000358662
-0.000619256
0.000502527
-0.000866262
0.000678214
-0.00115869
0.000885327
-0.00149447
0.00112087
-0.00186803
0.00137909
-0.0022703
0.00165182
-0.00268953
0.00192953
-0.00311294
0.00220269
-0.00352869
0.0024632
-0.00392793
0.00270552
-0.00430543
0.00292688
-0.00466172
0.00312785
-0.00499713
0.00330951
-0.00532563
0.00347667
-0.00563404
-0.00597583
0.00362985
-5.13539e-07
2.67343e-05
2.02855e-07
5.47167e-05
4.68244e-06
6.00618e-05
1.58065e-05
4.14079e-05
3.67833e-05
-3.42541e-06
7.11514e-05
-7.74558e-05
0.000122734
-0.000184486
0.00019551
-0.000328801
0.000293362
-0.000514658
0.000419649
-0.000745542
0.000576616
-0.00102323
0.00076469
-0.00134676
0.000981828
-0.00171161
0.00122316
-0.00210937
0.00148121
-0.00252835
0.0017467
-0.00295502
0.00200999
-0.00337623
0.00226254
-0.00378124
0.00249817
-0.00416356
0.00271372
-0.00452098
0.00290873
-0.00485673
0.00308554
-0.00517393
0.00324644
-0.00548654
0.00339646
-0.00578406
-0.00611583
0.00353647
-1.45832e-08
2.67489e-05
2.19254e-06
5.25096e-05
9.2521e-06
5.30023e-05
2.41639e-05
2.64961e-05
5.02923e-05
-2.95538e-05
9.13322e-05
-0.000118496
0.000151218
-0.000244372
0.000233923
-0.000411506
0.000343105
-0.000623839
0.000481563
-0.000884
0.000650548
-0.00119221
0.000849036
-0.00154525
0.00107321
-0.00193578
0.00131644
-0.00235259
0.0015699
-0.00278181
0.00182392
-0.00320904
0.00206947
-0.00362178
0.00229967
-0.00401144
0.00251052
-0.00437441
0.00270113
-0.00471159
0.00287293
-0.00502853
0.00302939
-0.00533039
0.0031734
-0.00563055
0.00330993
-0.0059206
-0.00624555
0.00343964
4.88489e-07
2.62604e-05
4.23032e-06
4.87678e-05
1.39616e-05
4.3271e-05
3.28166e-05
7.64109e-06
6.4307e-05
-6.10443e-05
0.000112258
-0.000166446
0.000180657
-0.000312771
0.000273371
-0.00050422
0.00039367
-0.000744139
0.000543583
-0.00103391
0.00072313
-0.00137176
0.000929663
-0.00175178
0.00115759
-0.00216371
0.00139879
-0.00259379
0.00164367
-0.0030267
0.00188283
-0.00344819
0.00210856
-0.00384751
0.00231595
-0.00421884
0.00250324
-0.0045617
0.00267145
-0.0048798
0.00282334
-0.00518043
0.00296295
-0.00547001
0.00309333
-0.00576092
0.00321901
-0.00604628
-0.00636664
0.0033401
9.93119e-07
2.52673e-05
6.3057e-06
4.34552e-05
1.87948e-05
3.07818e-05
4.1733e-05
-1.52971e-05
7.87688e-05
-9.80801e-05
0.000133822
-0.000221499
0.000210862
-0.000389812
0.000313524
-0.000606881
0.000444514
-0.000875129
0.000604864
-0.00119426
0.000793162
-0.00156006
0.00100505
-0.00196367
0.00123332
-0.00239198
0.00146876
-0.00282923
0.00170169
-0.00325962
0.00192361
-0.00367011
0.00212858
-0.00405248
0.00231381
-0.00440407
0.0024795
-0.00472739
0.00262811
-0.00502841
0.00276325
-0.00531556
0.00288903
-0.00559579
0.00300832
-0.0058802
0.00312508
-0.00616305
-0.00648039
0.00323883
1.50053e-06
2.37668e-05
8.41906e-06
3.65367e-05
2.37475e-05
1.54534e-05
5.08975e-05
-4.2447e-05
9.36372e-05
-0.00014082
0.000155934
-0.000283796
0.000241652
-0.000475529
0.000354046
-0.000719276
0.000495065
-0.00101615
0.000664531
-0.00136373
0.000859452
-0.00175498
0.0010738
-0.00217802
0.00129903
-0.00261721
0.00152542
-0.00305562
0.0017438
-0.003478
0.00194711
-0.00387343
0.00213139
-0.00423676
0.00229585
-0.00456853
0.00244229
-0.00487382
0.00257413
-0.00516026
0.0026953
-0.00543673
0.00280972
-0.00571021
0.00291986
-0.00599035
0.00302907
-0.00627225
-0.00658768
0.00313636
2.01371e-06
2.17531e-05
1.05768e-05
2.79736e-05
2.88258e-05
-2.79568e-06
6.03077e-05
-7.39289e-05
0.000108885
-0.000189397
0.000178513
-0.000353424
0.000272839
-0.000569855
0.000394579
-0.000841016
0.000544717
-0.00116629
0.000721685
-0.0015407
0.000920851
-0.00195415
0.00113467
-0.00239184
0.00135372
-0.00283626
0.00156834
-0.00327024
0.00177042
-0.00368008
0.00195468
-0.00405769
0.00211913
-0.0044012
0.0022647
-0.00471409
0.00239434
-0.00500347
0.00251201
-0.00527792
0.00262158
-0.0055463
0.00272657
-0.00581519
0.002829
-0.00609277
0.00293159
-0.00637484
-0.0066891
0.003033
2.53736e-06
1.92157e-05
1.27897e-05
1.77213e-05
3.4043e-05
-2.4049e-05
6.9969e-05
-0.000109855
0.000124488
-0.000243916
0.000201469
-0.000430405
0.000304214
-0.000672599
0.000434721
-0.000971523
0.000592818
-0.00132438
0.000775416
-0.0017233
0.00097629
-0.00215502
0.00118669
-0.00260224
0.00139681
-0.00304638
0.00159761
-0.00347105
0.00178247
-0.00386494
0.001948
-0.00422322
0.002094
-0.00454721
0.00222278
-0.00484287
0.00233801
-0.0051187
0.00244376
-0.00538367
0.00254365
-0.0056462
0.00264067
-0.00591221
0.00273641
-0.00618851
0.00283303
-0.00647146
-0.00678502
0.00292896
3.07722e-06
1.61385e-05
1.50713e-05
5.72725e-06
3.94155e-05
-4.83932e-05
7.98879e-05
-0.000150327
0.000140419
-0.000304447
0.000224695
-0.000514682
0.000335532
-0.000783436
0.000474025
-0.00111002
0.00063868
-0.00148904
0.000824837
-0.00190945
0.00102484
-0.00235503
0.00122915
-0.00280654
0.00142809
-0.00324532
0.00161374
-0.0036567
0.00178119
-0.00403239
0.00192888
-0.00437091
0.00205816
-0.00467649
0.00217226
-0.00495697
0.00227521
-0.00522164
0.00237094
-0.0054794
0.00246266
-0.00573791
0.0025528
-0.00600236
0.00264256
-0.00627828
0.00273365
-0.00656255
-0.00687571
0.00282434
3.63926e-06
1.24992e-05
1.74352e-05
-8.06864e-06
4.49584e-05
-7.59164e-05
9.00646e-05
-0.000195434
0.000156631
-0.000371013
0.000248054
-0.000606105
0.000366503
-0.000901884
0.000511997
-0.00125551
0.000681599
-0.00165864
0.000869126
-0.00209698
0.00106577
-0.00255167
0.00126166
-0.00300243
0.00144776
-0.00343142
0.00161759
-0.00382653
0.00176804
-0.00418283
0.00189919
-0.00450207
0.00201357
-0.00479087
0.00211499
-0.00505839
0.00220752
-0.00531417
0.00229476
-0.00556664
0.00237943
-0.00582259
0.00246348
-0.00608641
0.00254777
-0.00636256
0.0026336
-0.00664838
-0.00696134
0.00271922
4.22902e-06
8.27022e-06
1.9893e-05
-2.37327e-05
5.06813e-05
-0.000106705
0.000100487
-0.000245239
0.000173055
-0.000443582
0.00027137
-0.00070442
0.00039679
-0.0010273
0.000548106
-0.00140683
0.000720887
-0.00183142
0.000907571
-0.00228366
0.00109857
-0.00274267
0.00128414
-0.00318799
0.00145632
-0.0036036
0.00161026
-0.00398048
0.00174455
-0.00431712
0.00186067
-0.00461819
0.00196197
-0.00489217
0.0020525
-0.00514893
0.00213616
-0.00539782
0.0022161
-0.00564658
0.00229457
-0.00590106
0.00237308
-0.00616491
0.00245221
-0.00644169
0.00253298
-0.00672915
-0.007042
0.00261364
4.85093e-06
3.41929e-06
2.24526e-05
-4.13344e-05
5.65844e-05
-0.000140836
0.000111123
-0.000299778
0.000189594
-0.000522052
0.000294427
-0.000809254
0.000426016
-0.00115889
0.000581807
-0.00156262
0.000755905
-0.00200552
0.000939608
-0.00246737
0.00112296
-0.00292602
0.0012968
-0.00336184
0.00145453
-0.00376133
0.00159298
-0.00411892
0.00171226
-0.0044364
0.00181493
-0.00472087
0.00190483
-0.00498207
0.00198602
-0.00523012
0.00206205
-0.00547385
0.0021356
-0.00572014
0.00220849
-0.00597395
0.00228184
-0.00623827
0.00235604
-0.00651589
0.00243186
-0.00680496
-0.00711777
0.00250763
5.50787e-06
-2.08858e-06
2.51163e-05
-6.09428e-05
6.2656e-05
-0.000178376
0.000121923
-0.000359045
0.000206115
-0.000606244
0.000316971
-0.000920109
0.000453773
-0.00129569
0.000612567
-0.00172141
0.000786102
-0.00217905
0.000964853
-0.00264612
0.00113892
-0.0031001
0.00130011
-0.00352302
0.00144333
-0.00390455
0.00156702
-0.00424261
0.0016726
-0.00454198
0.00176337
-0.00481164
0.00184339
-0.00506209
0.00191652
-0.00530325
0.00198589
-0.00554322
0.00205375
-0.00578799
0.00212148
-0.00604168
0.00218993
-0.00630672
0.00225935
-0.0065853
0.00233029
-0.0068759
-0.00718869
0.00240122
6.20092e-06
-8.2895e-06
2.78803e-05
-8.26222e-05
6.88714e-05
-0.000219367
0.000132813
-0.000422987
0.000222459
-0.00069589
0.000338716
-0.00103637
0.000479645
-0.00143662
0.00063989
-0.00188166
0.00081104
-0.0023502
0.000983108
-0.00281819
0.00114666
-0.00326364
0.0012947
-0.00367107
0.00142374
-0.00403358
0.00153365
-0.00435253
0.00162688
-0.0046352
0.00170719
-0.00489196
0.00177864
-0.00513354
0.00184476
-0.00536936
0.00190823
-0.00560669
0.00197087
-0.00585064
0.00203375
-0.00610456
0.00209748
-0.00637045
0.00216219
-0.00665002
0.00222831
-0.00694202
-0.00725481
0.00229443
6.92924e-06
-1.52187e-05
3.07342e-05
-0.000106427
7.5193e-05
-0.000263826
0.000143699
-0.000491493
0.000238441
-0.000790632
0.000359361
-0.00115729
0.000503227
-0.00158049
0.000663351
-0.00204178
0.00083042
-0.00251727
0.000994361
-0.00298213
0.00114653
-0.00341581
0.00128134
-0.00380588
0.00139681
-0.00414905
0.00149406
-0.00444977
0.00157626
-0.0047174
0.00164741
-0.00496311
0.00171137
-0.00519751
0.0017713
-0.00542929
0.00182943
-0.00566483
0.00188722
-0.00590842
0.00194545
-0.0061628
0.00200457
-0.00642957
0.00206464
-0.00671008
0.00212597
-0.00700335
-0.00731612
0.00218728
7.69016e-06
-2.29089e-05
3.36616e-05
-0.000132399
8.15705e-05
-0.000311735
0.000154468
-0.00056439
0.000253854
-0.000890018
0.000378597
-0.00128203
0.000524142
-0.00172604
0.000682609
-0.00220025
0.000844084
-0.00267875
0.000998767
-0.00313681
0.00113908
-0.00355612
0.00126088
-0.00392768
0.00136358
-0.00425175
0.00144931
-0.0045355
0.00152172
-0.00478982
0.00158483
-0.00502622
0.00164221
-0.00525488
0.00169659
-0.00548366
0.0017498
-0.00571804
0.00180297
-0.00596159
0.00185669
-0.00621652
0.00191128
-0.00648416
0.00196674
-0.00676554
0.00202329
-0.00705991
-0.00737265
0.00207982
8.4793e-06
-3.13882e-05
3.66405e-05
-0.00016056
8.79433e-05
-0.000363038
0.000164994
-0.00064144
0.000268486
-0.000993511
0.000396126
-0.00140967
0.000542065
-0.00187197
0.000697425
-0.00235561
0.000852014
-0.00283334
0.000996624
-0.00328142
0.0011249
-0.0036844
0.00123416
-0.00403694
0.00132502
-0.0043426
0.00140036
-0.00461085
0.00146411
-0.00485356
0.00152014
-0.00508224
0.00157164
-0.00530639
0.00162095
-0.00553297
0.00166953
-0.00576663
0.00171826
-0.00601031
0.00176757
-0.00626582
0.00181766
-0.00653425
0.00186853
-0.00681641
0.00192033
-0.00711171
-0.0074244