/*--------------------------------*- C++ -*----------------------------------*\
  =========                 |
  \\      /  F ield         | OpenFOAM: The Open Source CFD Toolbox
   \\    /   O peration     | Website:  https://openfoam.org
    \\  /    A nd           | Version:  7
     \\/     M anipulation  |
\*---------------------------------------------------------------------------*/
FoamFile
{
    version     2.0;
    format      ascii;
    class       volVectorField;
    location    "160";
    object      U;
}
// * * * * * * * * * * * * * * * * * * * * * * * * * * * * * * * * * * * * * //

dimensions      [0 1 -1 0 0 0 0];

internalField   nonuniform List<vector> 
31800
(
(-0.000126358 -0.0447658 -1.39239e-20)
(-0.0031797 -0.106365 9.61861e-21)
(-0.0107468 -0.146766 -3.14275e-21)
(-0.0212733 -0.16995 1.38777e-20)
(-0.0340815 -0.179897 1.5505e-20)
(-0.0485711 -0.180292 -5.08967e-21)
(-0.0642069 -0.174236 -3.72587e-21)
(-0.0805725 -0.164064 2.6148e-20)
(-0.0973486 -0.151268 -3.00317e-21)
(-0.114285 -0.136559 4.30643e-21)
(-0.131177 -0.120007 1.48346e-20)
(-0.147838 -0.101254 1.45767e-20)
(-0.164084 -0.0797027 -9.33937e-21)
(-0.179711 -0.054676 -1.15984e-20)
(-0.194486 -0.0255198 -3.59608e-22)
(-0.208129 0.00833493 -1.49282e-20)
(-0.220315 0.0472961 1.15364e-20)
(-0.230674 0.0915699 1.95644e-20)
(-0.238792 0.141065 -7.22086e-21)
(-0.244237 0.195312 3.27711e-20)
(-0.246579 0.253376 2.08494e-21)
(-0.245438 0.313803 -2.55193e-21)
(-0.240534 0.374583 5.55962e-21)
(-0.231774 0.433283 1.0543e-20)
(-0.219045 0.48754 6.21193e-21)
(0.000872916 -0.0431849 1.43168e-20)
(-0.00111407 -0.102292 7.48959e-21)
(-0.00844059 -0.140745 -8.25871e-21)
(-0.0192014 -0.162452 -3.16666e-20)
(-0.0325364 -0.17133 2.29881e-20)
(-0.0477202 -0.170994 -1.12225e-20)
(-0.0641364 -0.164472 6.21454e-22)
(-0.0813269 -0.154035 -2.0014e-20)
(-0.0989568 -0.141133 3.97187e-21)
(-0.116778 -0.126445 2.62554e-21)
(-0.134593 -0.110031 -6.11282e-20)
(-0.152225 -0.0915316 -1.38478e-21)
(-0.169493 -0.0703582 6.88024e-20)
(-0.186193 -0.0458494 -3.41603e-20)
(-0.202079 -0.0173745 -6.46709e-21)
(-0.216855 0.0156105 1.47113e-20)
(-0.230168 0.0534856 -3.04377e-20)
(-0.241599 0.0964318 -2.05016e-21)
(-0.25067 0.144342 2.9565e-20)
(-0.256859 0.196744 -1.07952e-19)
(-0.259621 0.252721 -3.22642e-20)
(-0.258431 0.310861 4.78337e-20)
(-0.252818 0.369228 2.23022e-20)
(-0.242351 0.425476 3.8728e-21)
(-0.226924 0.477429 -9.49512e-21)
(0.00179362 -0.0414088 -2.85947e-20)
(0.000798305 -0.0978196 -1.04993e-21)
(-0.0062688 -0.134254 -3.87334e-20)
(-0.0171867 -0.154489 5.83078e-20)
(-0.0309257 -0.162347 -6.6328e-20)
(-0.0466427 -0.161339 -5.59859e-21)
(-0.0636446 -0.154406 -5.86024e-21)
(-0.0814318 -0.14375 1.04512e-20)
(-0.0996529 -0.130772 3.59693e-20)
(-0.118058 -0.116129 -6.32015e-21)
(-0.136454 -0.0998751 -9.82369e-21)
(-0.154667 -0.0816538 3.88215e-20)
(-0.172517 -0.0608913 -8.25082e-21)
(-0.189793 -0.0369457 3.97371e-20)
(-0.206234 -0.00921065 -7.73455e-20)
(-0.221523 0.0228218 -3.09976e-20)
(-0.235273 0.0595064 5.81422e-21)
(-0.247015 0.100992 -1.02051e-19)
(-0.256206 0.147151 2.69989e-20)
(-0.262234 0.1975 6.40268e-20)
(-0.264435 0.251129 -3.62009e-20)
(-0.262139 0.306661 -9.03344e-20)
(-0.254701 0.36223 -4.52137e-20)
(-0.241345 0.41555 -7.81803e-20)
(-0.221794 0.464594 -4.11498e-20)
(0.00262486 -0.0394694 1.35442e-20)
(0.00253575 -0.0930197 -2.20793e-20)
(-0.00425773 -0.127384 7.04543e-20)
(-0.0152578 -0.146167 -5.6376e-20)
(-0.0292795 -0.153055 -1.39209e-20)
(-0.0453709 -0.15144 -3.19818e-21)
(-0.0627661 -0.144156 4.5535e-20)
(-0.0809245 -0.133328 3.14194e-20)
(-0.099476 -0.120311 -5.74987e-20)
(-0.118165 -0.105743 2.36372e-20)
(-0.136799 -0.0896734 2.88098e-21)
(-0.155204 -0.0717593 -1.08113e-19)
(-0.173192 -0.0514451 -3.61706e-20)
(-0.190544 -0.0281138 3.33696e-21)
(-0.206981 -0.00118033 2.46247e-20)
(-0.222156 0.0298215 1.08262e-19)
(-0.235647 0.0652159 1.08261e-20)
(-0.246936 0.105118 1.01807e-19)
(-0.255414 0.14937 9.40727e-20)
(-0.260382 0.197474 -1.11954e-20)
(-0.261063 0.248518 4.49535e-20)
(-0.256649 0.301147 -1.24589e-20)
(-0.246358 0.353565 5.1032e-20)
(-0.229103 0.403545 1.65171e-19)
(-0.204168 0.449108 2.5929e-20)
(0.00335822 -0.0373991 2.19339e-20)
(0.00408059 -0.0879624 -7.96942e-20)
(-0.00243113 -0.120227 1.02638e-19)
(-0.0134432 -0.137585 3.78554e-20)
(-0.0276316 -0.143563 3.03478e-20)
(-0.0439444 -0.141408 3.22673e-20)
(-0.061547 -0.133835 -1.68186e-19)
(-0.0798582 -0.122889 6.13015e-20)
(-0.0984864 -0.109876 6.4785e-20)
(-0.117167 -0.0954157 -9.59754e-20)
(-0.135703 -0.0795632 9.98099e-20)
(-0.153916 -0.0619909 5.55922e-20)
(-0.171611 -0.0421661 6.51833e-20)
(-0.188547 -0.0194981 -4.39361e-20)
(-0.204427 0.00656537 -9.29797e-21)
(-0.218878 0.0364587 2.12504e-19)
(-0.231433 0.0704679 -9.32395e-20)
(-0.241528 0.10867 6.79267e-20)
(-0.248492 0.150878 -1.70267e-19)
(-0.251549 0.196568 -6.31336e-20)
(-0.249822 0.244822 6.1983e-20)
(-0.242378 0.294297 1.02391e-19)
(-0.228345 0.343259 1.39785e-20)
(-0.20644 0.389577 -1.2815e-19)
(-0.175074 0.431164 -8.50493e-20)
(0.00398774 -0.0352292 -8.41967e-20)
(0.00541896 -0.0827158 -2.62469e-20)
(-0.000810468 -0.11287 -6.11809e-20)
(-0.0117721 -0.128842 -5.89871e-20)
(-0.0260192 -0.133973 4.20667e-20)
(-0.0424095 -0.131349 -7.35799e-20)
(-0.0600441 -0.123557 -4.61581e-20)
(-0.0783005 -0.112551 -2.39023e-19)
(-0.0967638 -0.0995912 9.82153e-21)
(-0.115156 -0.0852807 -1.2308e-21)
(-0.133273 -0.0696837 -1.81259e-19)
(-0.150927 -0.0524934 -5.97922e-20)
(-0.167911 -0.033204 -7.85792e-20)
(-0.183965 -0.0112528 1.46863e-19)
(-0.198766 0.013873 4.20793e-20)
(-0.211909 0.0425804 -1.18032e-19)
(-0.222891 0.0751147 -1.20539e-19)
(-0.231101 0.111515 2.78658e-20)
(-0.235814 0.151556 1.31255e-19)
(-0.236189 0.194693 -2.39335e-20)
(-0.231274 0.239994 -1.57424e-20)
(-0.220034 0.286119 -7.6978e-20)
(-0.201543 0.331385 -9.07449e-20)
(-0.174559 0.373825 7.49459e-20)
(-0.135987 0.41112 5.22367e-20)
(0.00450966 -0.0329897 4.47656e-20)
(0.00654043 -0.0773442 5.22374e-20)
(0.00058504 -0.105395 -4.04155e-20)
(-0.0102732 -0.120028 -8.30582e-20)
(-0.0244822 -0.124381 1.29333e-20)
(-0.0408182 -0.121364 9.78121e-20)
(-0.0583225 -0.113426 1.41189e-19)
(-0.0763319 -0.102427 1.90132e-19)
(-0.0944053 -0.089578 3.164e-20)
(-0.112249 -0.0754677 4.47197e-20)
(-0.129645 -0.0601727 5.42757e-20)
(-0.146397 -0.0434116 1.99657e-19)
(-0.16228 -0.0247096 -1.1382e-20)
(-0.177016 -0.00353676 -2.4968e-19)
(-0.190255 0.0205877 1.75745e-19)
(-0.201559 0.0480342 6.65517e-20)
(-0.21039 0.0790101 2.19427e-19)
(-0.216096 0.113516 -9.29225e-20)
(-0.217908 0.151293 -9.5712e-20)
(-0.214939 0.191768 2.67085e-19)
(-0.206192 0.234 -8.3739e-20)
(-0.190562 0.276648 -1.28576e-19)
(-0.167075 0.318044 -2.92976e-20)
(-0.134878 0.356468 -1.00027e-19)
(-0.088743 0.389664 1.97916e-20)
(0.00492206 -0.030708 1.10266e-20)
(0.00743756 -0.0719062 -1.95281e-20)
(0.00173828 -0.097876 4.03799e-21)
(-0.00897524 -0.111226 -1.46486e-19)
(-0.0230618 -0.114876 -1.14794e-19)
(-0.0392261 -0.111547 -2.19616e-20)
(-0.0564543 -0.103542 -5.42759e-20)
(-0.0740427 -0.0926249 -1.02641e-19)
(-0.0915219 -0.0799531 -2.49912e-20)
(-0.108579 -0.0661029 -1.00618e-20)
(-0.124981 -0.051165 -1.03541e-19)
(-0.140518 -0.0348875 4.27329e-20)
(-0.154949 -0.0168297 3.42314e-20)
(-0.167974 0.00350307 1.79539e-19)
(-0.179217 0.0265585 -9.235e-21)
(-0.188212 0.0526709 -1.06579e-19)
(-0.194387 0.0820115 -1.31699e-20)
(-0.19706 0.114545 3.89517e-20)
(-0.195431 0.14998 1.69966e-19)
(-0.188584 0.187719 -1.30618e-19)
(-0.175508 0.226811 3.11735e-19)
(-0.155081 0.265925 1.25503e-19)
(-0.126231 0.303365 -8.73115e-20)
(-0.0886984 0.33756 1.78865e-19)
(-0.0353978 0.366871 1.00484e-19)
(0.00522456 -0.0284081 1.1675e-20)
(0.00810545 -0.0664536 6.54565e-20)
(0.0026342 -0.0903806 1.82358e-19)
(-0.00790554 -0.102511 2.29613e-19)
(-0.0217996 -0.105536 1.35395e-19)
(-0.0376911 -0.10198 -9.39212e-20)
(-0.0545154 -0.0939964 2.30353e-19)
(-0.0715296 -0.0832436 2.51145e-20)
(-0.0882345 -0.0708255 -1.371e-19)
(-0.104295 -0.0573052 1.60426e-20)
(-0.119462 -0.0427893 2.46778e-19)
(-0.133508 -0.0270575 -2.60335e-19)
(-0.146177 -0.00970647 -1.45376e-19)
(-0.157149 0.00972148 -3.08425e-20)
(-0.166026 0.0316393 -2.34634e-19)
(-0.172313 0.0563472 -1.46769e-19)
(-0.175416 0.0839823 2.3327e-20)
(-0.174629 0.114477 -2.90427e-19)
(-0.169136 0.147512 2.06768e-20)
(-0.158018 0.182471 -1.30146e-19)
(-0.140271 0.2184 -1.57539e-19)
(-0.114831 0.253988 1.34005e-19)
(-0.0805336 0.287508 1.51339e-19)
(-0.0377603 0.317457 -1.13416e-19)
(0.0226174 0.342548 1.54246e-19)
(0.00541789 -0.0261106 -1.50347e-19)
(0.00854121 -0.0610306 1.10038e-19)
(0.0032598 -0.0829654 -9.77015e-21)
(-0.00708988 -0.0939466 4.27683e-20)
(-0.0207362 -0.0964294 4.04199e-20)
(-0.0362701 -0.0927385 1.8684e-19)
(-0.0525822 -0.0848682 -1.35505e-19)
(-0.0688915 -0.074371 -2.48967e-19)
(-0.0846682 -0.0622934 1.23742e-19)
(-0.0995531 -0.0491837 1.1494e-19)
(-0.113279 -0.0351645 -3.84422e-19)
(-0.125602 -0.020049 2.67849e-19)
(-0.136249 -0.00347339 3.97477e-19)
(-0.144884 0.0149814 2.41684e-20)
(-0.151088 0.0356929 -6.29857e-20)
(-0.15435 0.0589283 1.87884e-19)
(-0.154057 0.0847943 -8.40289e-20)
(-0.149494 0.113195 3.64382e-19)
(-0.139844 0.143791 -3.10296e-19)
(-0.124203 0.175955 5.48342e-20)
(-0.101601 0.208735 -2.64192e-20)
(-0.0710863 0.240865 -8.78926e-20)
(-0.0313532 0.270595 -8.23433e-20)
(0.016125 0.296583 6.77383e-20)
(0.083393 0.31712 9.05232e-21)
(0.00550351 -0.023832 9.61219e-20)
(0.00874359 -0.0556735 -7.03099e-20)
(0.00360426 -0.0756774 5.56196e-20)
(-0.00655135 -0.085585 -1.94207e-19)
(-0.0199089 -0.0876131 -4.38148e-20)
(-0.0350171 -0.0838817 2.095e-20)
(-0.0507277 -0.0762239 -4.73956e-20)
(-0.0662242 -0.0660817 -7.77088e-20)
(-0.0809461 -0.0544411 2.30246e-20)
(-0.0945091 -0.0418333 -1.31255e-19)
(-0.106626 -0.0283959 2.43978e-19)
(-0.117037 -0.0139762 -5.64817e-20)
(-0.125455 0.00174905 -1.40921e-19)
(-0.13153 0.0191588 -1.39661e-19)
(-0.13483 0.0385947 1.78875e-19)
(-0.134831 0.0602928 8.84274e-20)
(-0.130916 0.0843323 3.68767e-20)
(-0.12237 0.110595 -2.92852e-19)
(-0.108396 0.138728 2.91016e-19)
(-0.0881261 0.168101 -8.88621e-20)
(-0.0606351 0.197782 -4.15459e-20)
(-0.0251627 0.226565 -2.85447e-20)
(0.0199072 0.252659 -3.11785e-20)
(0.0714342 0.274985 1.04109e-19)
(0.145094 0.291006 -1.74635e-19)
(0.00548324 -0.021585 -3.60162e-20)
(0.00871259 -0.0504108 1.5135e-19)
(0.00365923 -0.0685538 -2.1967e-19)
(-0.00630927 -0.0774681 8.84661e-20)
(-0.0193499 -0.0791315 4.68287e-20)
(-0.0339795 -0.0754576 -7.27547e-20)
(-0.0490173 -0.0681158 2.11853e-19)
(-0.0636145 -0.0584346 5.29118e-20)
(-0.0771814 -0.047336 2.10401e-20)
(-0.0893082 -0.035331 2.02151e-19)
(-0.0996877 -0.0225705 -8.16029e-20)
(-0.108044 -0.00893442 8.23522e-20)
(-0.114078 0.00585908 -8.89816e-20)
(-0.117431 0.0221484 -4.79933e-21)
(-0.117665 0.0402394 -9.15264e-20)
(-0.114253 0.0603381 -3.06898e-19)
(-0.106583 0.0825005 6.05997e-20)
(-0.0939572 0.106592 2.24686e-19)
(-0.0756109 0.13225 -7.88046e-20)
(-0.0507349 0.15886 3.45341e-19)
(-0.0184506 0.185512 -1.83731e-19)
(0.0216976 0.211079 -4.81671e-20)
(0.0718975 0.233732 -7.84739e-20)
(0.126787 0.252759 1.3331e-21)
(0.206195 0.264348 -7.08529e-20)
(0.00535903 -0.0193789 -1.03011e-19)
(0.00844934 -0.0452636 -1.57126e-19)
(0.00341928 -0.0616224 -8.24271e-20)
(-0.00637797 -0.0696269 7.84013e-20)
(-0.0190842 -0.0710168 2.38052e-20)
(-0.0331947 -0.0674996 1.38752e-20)
(-0.0475035 -0.06058 5.29835e-20)
(-0.0611341 -0.0514703 -2.56168e-19)
(-0.0734692 -0.0410251 8.18709e-20)
(-0.0840746 -0.0297319 -1.7398e-19)
(-0.092623 -0.0177512 -5.9414e-20)
(-0.0988241 -0.00499413 -8.28498e-20)
(-0.10237 0.00878086 -1.68537e-19)
(-0.102897 0.0238717 3.38076e-19)
(-0.0999677 0.0405491 1.846e-19)
(-0.0930642 0.0589909 5.05244e-20)
(-0.0815893 0.0792329 1.44957e-19)
(-0.0648773 0.101129 -2.00979e-19)
(-0.0422088 0.124322 -4.9348e-20)
(-0.012857 0.148212 -2.11536e-19)
(0.0240297 0.17192 8.08714e-20)
(0.0684645 0.194418 1.66966e-19)
(0.123536 0.213843 7.83445e-20)
(0.181085 0.230043 -1.3913e-19)
(0.265723 0.237236 1.79445e-19)
(0.0051328 -0.0172199 -3.44119e-20)
(0.00795611 -0.0402466 7.58919e-21)
(0.00288251 -0.0549025 1.04681e-19)
(-0.00676526 -0.0620821 1.84928e-19)
(-0.0191268 -0.0632893 -1.23548e-19)
(-0.0326867 -0.0600273 1.17369e-19)
(-0.0462214 -0.0536359 -9.23425e-20)
(-0.0588322 -0.0452096 3.49406e-19)
(-0.0698771 -0.0355326 -2.42635e-19)
(-0.078899 -0.0250645 5.20555e-20)
(-0.0855517 -0.0139718 2.1893e-19)
(-0.0895318 -0.00219381 -2.76985e-20)
(-0.0905249 0.010473 2.28695e-20)
(-0.0881683 0.0242873 -2.71625e-19)
(-0.0820322 0.0394858 -2.22104e-19)
(-0.0716143 0.05622 -9.44359e-21)
(-0.0563454 0.0745099 -2.26049e-19)
(-0.0356005 0.0942058 7.59898e-20)
(-0.00871829 0.114959 -1.07818e-19)
(0.0249242 0.136192 1.30479e-19)
(0.0661962 0.157074 -1.6595e-19)
(0.114509 0.176671 9.00534e-20)
(0.174277 0.193084 -7.55251e-20)
(0.233812 0.207003 1.09423e-19)
(0.323708 0.209882 -8.81134e-21)
(0.00480641 -0.0151116 1.96745e-19)
(0.00723653 -0.0353695 4.78039e-20)
(0.0020514 -0.0484065 -1.13715e-19)
(-0.00747095 -0.0548453 -1.36452e-19)
(-0.0194807 -0.0559582 9.1912e-20)
(-0.0324622 -0.0530463 -3.35552e-19)
(-0.0451832 -0.0472857 4.74751e-19)
(-0.0567284 -0.0396523 8.87526e-20)
(-0.0664353 -0.0308569 1.49994e-19)
(-0.0738257 -0.0213273 1.80334e-19)
(-0.078536 -0.0112316 1.10206e-19)
(-0.0802512 -0.000532785 -7.98298e-20)
(-0.0786526 0.0109376 2.02361e-22)
(-0.0733816 0.0234018 -3.77026e-20)
(-0.0640215 0.0370647 -1.07601e-19)
(-0.0500922 0.0520541 2.33146e-19)
(-0.0310595 0.0683806 4.5605e-19)
(-0.0063473 0.0858948 2.00327e-20)
(0.0246464 0.104262 1.39911e-19)
(0.0624254 0.122934 -6.9335e-20)
(0.107945 0.141159 8.56744e-20)
(0.159841 0.158051 -4.67168e-19)
(0.22441 0.171714 2.15484e-19)
(0.285377 0.183877 1.33108e-19)
(0.381565 0.182751 -8.96683e-20)
(0.00438175 -0.0130562 -1.1695e-19)
(0.00629607 -0.0306381 -2.01884e-19)
(0.000933698 -0.042141 1.92784e-19)
(-0.00848526 -0.0479209 1.27132e-19)
(-0.020134 -0.0490227 6.63312e-20)
(-0.0325076 -0.0465492 2.39817e-19)
(-0.0443737 -0.0415148 -2.48806e-19)
(-0.0548066 -0.0347766 -2.27338e-19)
(-0.0631274 -0.0269699 -1.4891e-19)
(-0.0688396 -0.0184865 -3.3958e-19)
(-0.071563 -0.0094909 6.2301e-20)
(-0.0709717 3.50983e-05 -2.5289e-20)
(-0.0667435 0.0102296 4.51106e-19)
(-0.0585252 0.0212822 1.8125e-19)
(-0.0459158 0.0333698 1.26921e-19)
(-0.0284579 0.0466004 -4.31391e-20)
(-0.00565511 0.0609824 -2.10563e-19)
(0.0230199 0.0763683 -1.60731e-19)
(0.0581197 0.0924494 -1.76551e-19)
(0.100025 0.108711 1.21962e-19)
(0.149866 0.124516 2.15625e-19)
(0.205337 0.13894 2.35345e-19)
(0.275268 0.150248 -2.16347e-19)
(0.337391 0.161031 9.06784e-20)
(0.442076 0.156642 1.28405e-19)
(0.00386107 -0.0110553 -3.01497e-19)
(0.00514264 -0.0260567 1.68942e-19)
(-0.000456505 -0.0361093 -2.89288e-19)
(-0.00978739 -0.0413076 3.54195e-19)
(-0.0210584 -0.042474 -3.39637e-19)
(-0.0327859 -0.0405174 -1.01313e-19)
(-0.0437459 -0.0362933 -1.86933e-19)
(-0.0530086 -0.0305405 1.04237e-19)
(-0.0598826 -0.0238168 -1.75818e-19)
(-0.0638548 -0.0164744 1.89916e-19)
(-0.0645289 -0.00866876 -2.4506e-19)
(-0.061567 -0.000394346 -1.75828e-19)
(-0.0546417 0.00846247 2.4725e-21)
(-0.0434025 0.018064 -2.52967e-19)
(-0.0274613 0.0285637 8.12695e-21)
(-0.00638128 0.0400621 -2.3515e-19)
(0.020307 0.0525603 -1.39749e-20)
(0.053088 0.0659275 -2.34105e-19)
(0.0924876 0.0798908 7.85034e-20)
(0.138771 0.0939613 3.17993e-19)
(0.193341 0.107676 -2.96437e-19)
(0.25281 0.11992 1.39889e-19)
(0.329147 0.129465 1.499e-19)
(0.392607 0.139017 -7.56056e-20)
(0.508691 0.132629 3.10127e-20)
(0.00324727 -0.00911061 1.56239e-19)
(0.0037874 -0.021629 -4.45648e-20)
(-0.00209784 -0.030313 9.80943e-20)
(-0.0113443 -0.0350007 -2.84849e-19)
(-0.0222075 -0.0362976 4.52323e-19)
(-0.0332349 -0.0349232 2.97555e-20)
(-0.0432186 -0.0315779 3.23793e-19)
(-0.0512304 -0.0268832 -1.67882e-19)
(-0.0565693 -0.0213184 1.11882e-19)
(-0.0587063 -0.0151916 1.4478e-19)
(-0.0572275 -0.0086437 1.30796e-19)
(-0.0517793 -0.00167504 4.00213e-19)
(-0.0420236 0.00581081 -1.02052e-19)
(-0.027606 0.0139558 -9.35305e-20)
(-0.00813979 0.0228998 -6.95249e-20)
(0.016799 0.0327393 -8.37325e-22)
(0.047667 0.0434766 -1.33492e-19)
(0.0849277 0.0550082 1.19725e-19)
(0.129105 0.0671049 -1.46896e-19)
(0.180364 0.0792915 5.22276e-20)
(0.240439 0.0913471 -7.52472e-20)
(0.304804 0.101757 8.56434e-21)
(0.388803 0.110317 -3.49087e-19)
(0.454343 0.118578 3.58506e-20)
(0.584184 0.111835 -2.9338e-21)
(0.00254443 -0.00722478 2.04032e-19)
(0.00224556 -0.0173601 -1.38745e-19)
(-0.00396074 -0.0247542 -9.74192e-20)
(-0.01311 -0.0289947 -6.00123e-20)
(-0.0235156 -0.0304756 -1.94699e-19)
(-0.0337657 -0.0297328 -3.24715e-19)
(-0.042675 -0.0273155 -1.05549e-19)
(-0.0493205 -0.0237297 3.58375e-19)
(-0.0529933 -0.0193745 -1.11772e-19)
(-0.053147 -0.0145106 -2.34886e-19)
(-0.0493457 -0.00925783 -1.38159e-19)
(-0.0412131 -0.00361491 -4.08696e-19)
(-0.0283914 0.0025061 -4.26373e-19)
(-0.010509 0.00923606 3.12297e-19)
(0.0128316 0.0167106 6.18401e-20)
(0.0420618 0.0250248 5.02991e-20)
(0.07764 0.034201 4.67788e-19)
(0.120028 0.0441625 6.67983e-20)
(0.169765 0.0547334 3.99655e-19)
(0.226926 0.0654322 -4.58983e-19)
(0.293542 0.0763415 2.07716e-19)
(0.364029 0.0853285 -1.80483e-19)
(0.456601 0.0937284 2.80324e-19)
(0.525402 0.100589 -4.26358e-19)
(0.669213 0.0951136 9.08988e-20)
(0.00175827 -0.0054022 -5.20559e-20)
(0.000537159 -0.0132581 -1.08957e-19)
(-0.0060069 -0.0194375 -1.00132e-19)
(-0.0150248 -0.0232849 3.36555e-20)
(-0.0248986 -0.0249897 -5.34652e-20)
(-0.034264 -0.0249098 2.05853e-19)
(-0.0419635 -0.0234473 -7.20966e-20)
(-0.0470814 -0.0209948 -1.51917e-19)
(-0.0488996 -0.0178703 -6.31396e-20)
(-0.0468505 -0.0142829 3.01029e-21)
(-0.040469 -0.0103252 3.81048e-19)
(-0.0293452 -0.00598582 -3.22723e-19)
(-0.0130885 -0.00117576 4.58328e-19)
(0.00870443 0.00423639 -1.2783e-19)
(0.0364602 0.0103875 -2.07759e-19)
(0.0706315 0.0173845 1.72001e-19)
(0.111692 0.0252744 -1.764e-19)
(0.160105 0.0340105 -2.81988e-19)
(0.216411 0.0434737 -1.02983e-19)
(0.280576 0.05315 8.81466e-20)
(0.354742 0.0634451 1.35308e-19)
(0.432533 0.0714956 2.58366e-19)
(0.533589 0.0803788 1.45209e-20)
(0.606871 0.0858799 1.80277e-19)
(0.761567 0.0828014 -6.23333e-20)
(0.000896651 -0.00364938 -2.53399e-20)
(-0.00131225 -0.00933454 2.38323e-19)
(-0.00818891 -0.0143712 2.47805e-19)
(-0.0170165 -0.0178705 -1.11596e-19)
(-0.0262542 -0.0198241 7.87884e-20)
(-0.0345916 -0.0204186 -2.87775e-19)
(-0.0409011 -0.0199135 5.70237e-20)
(-0.0442743 -0.01859 4.57687e-20)
(-0.0439802 -0.016684 -1.31108e-19)
(-0.039423 -0.0143491 -3.54387e-20)
(-0.0300987 -0.0116438 -4.71764e-19)
(-0.0155505 -0.00853864 1.47043e-19)
(0.00465978 -0.00493178 -2.23954e-20)
(0.0309808 -0.000683316 -7.43881e-21)
(0.0638801 0.00435444 -1.79809e-20)
(0.103838 0.010309 6.66399e-22)
(0.151335 0.0172533 -1.04208e-20)
(0.206803 0.0251683 1.97687e-19)
(0.270723 0.0339839 -1.61918e-19)
(0.342878 0.0431313 1.43521e-19)
(0.425196 0.0532773 -2.01888e-19)
(0.510914 0.0609248 -9.51765e-20)
(0.618944 0.0705613 2.80185e-20)
(0.697317 0.0749859 -1.52959e-19)
(0.856588 0.0746482 -5.18095e-20)
(-3.00866e-05 -0.00197516 -2.35192e-19)
(-0.00327123 -0.00560562 -3.05554e-20)
(-0.0104505 -0.00956883 -3.02166e-19)
(-0.0190004 -0.0127557 -2.43475e-19)
(-0.0274647 -0.0149683 3.22844e-19)
(-0.0345899 -0.0162286 2.20928e-19)
(-0.0392793 -0.0166586 -9.68801e-20)
(-0.0406283 -0.0164299 -8.50045e-20)
(-0.0378869 -0.0156957 -6.23478e-20)
(-0.0304223 -0.0145498 5.36131e-19)
(-0.0176808 -0.0130102 2.0319e-19)
(0.000855272 -0.0110215 2.76438e-19)
(0.0256817 -0.00845774 -1.65677e-20)
(0.0573011 -0.00516502 4.73806e-20)
(0.0962184 -0.000974129 1.29362e-19)
(0.142923 0.00426401 -2.98417e-19)
(0.197859 0.0106457 4.51243e-19)
(0.261355 0.0181674 4.35486e-20)
(0.333695 0.0267862 -1.339e-19)
(0.414365 0.0358693 -1.92815e-19)
(0.504658 0.0461861 -1.01268e-19)
(0.597876 0.053931 2.18541e-19)
(0.709999 0.0641777 -7.18442e-21)
(0.792823 0.0679529 1.16498e-19)
(0.948523 0.0699445 1.45443e-19)
(-0.00100884 -0.000390613 1.78714e-19)
(-0.00530233 -0.00209191 1.8959e-20)
(-0.0127272 -0.00504971 -3.92699e-20)
(-0.0208819 -0.00795137 4.38992e-20)
(-0.0283997 -0.0104191 -3.0521e-19)
(-0.0340856 -0.0123173 4.04642e-19)
(-0.0368714 -0.0136358 -1.55638e-21)
(-0.0358513 -0.0144389 3.25726e-19)
(-0.0302488 -0.0147959 1.4836e-20)
(-0.0193838 -0.0147377 -1.09464e-19)
(-0.00264292 -0.0142373 1.6649e-19)
(0.0205577 -0.0131986 -5.45056e-19)
(0.0507806 -0.011474 -3.24049e-19)
(0.0885687 -0.00888342 -1.54187e-19)
(0.13444 -0.00523418 -6.43205e-20)
(0.18884 -0.000358753 5.08066e-21)
(0.25209 0.0058514 -2.93582e-19)
(0.324285 0.0133879 1.05272e-19)
(0.405333 0.0221963 3.8901e-19)
(0.494272 0.0315889 1.02781e-19)
(0.591385 0.0422166 2.39007e-19)
(0.690368 0.0504057 -2.31745e-19)
(0.802815 0.0608313 -5.35334e-20)
(0.887921 0.0643199 -9.28676e-20)
(1.03211 0.0677494 -5.05919e-19)
(-0.00202372 0.00109131 -1.66548e-19)
(-0.00736242 0.00118198 8.49679e-20)
(-0.0149474 -0.000838855 1.52323e-19)
(-0.0225582 -0.00347592 5.28207e-19)
(-0.0289203 -0.00618244 1.99094e-19)
(-0.0328961 -0.00867337 -4.40427e-19)
(-0.033442 -0.0108116 -1.10448e-19)
(-0.0296446 -0.0125568 -5.89499e-20)
(-0.0206929 -0.0138941 -1.87904e-19)
(-0.00585176 -0.0147887 -6.21143e-20)
(0.0155602 -0.015161 -1.22433e-19)
(0.0441882 -0.0148721 4.34957e-19)
(0.0806487 -0.0137474 5.02506e-19)
(0.125498 -0.0115751 2.44196e-19)
(0.179207 -0.00814417 -1.21861e-19)
(0.242086 -0.00327829 -8.12219e-20)
(0.3142 0.00312382 1.70942e-19)
(0.395252 0.0110221 -3.44087e-20)
(0.484572 0.0202991 -1.07973e-21)
(0.580597 0.0302326 8.02599e-20)
(0.682407 0.0411445 -1.14084e-19)
(0.784223 0.0498761 -1.93435e-19)
(0.892996 0.059944 -1.29595e-19)
(0.977028 0.0632961 1.62302e-19)
(1.1037 0.0671259 5.3526e-19)
(-0.00305625 0.00245648 1.32448e-19)
(-0.00940332 0.00418835 4.5277e-19)
(-0.0170339 0.00303358 1.81808e-19)
(-0.023921 0.000644976 -1.61911e-19)
(-0.0288828 -0.00227406 2.2475e-19)
(-0.0308362 -0.00529785 2.47233e-19)
(-0.0287568 -0.00816836 2.75369e-19)
(-0.021717 -0.0107432 -1.63731e-20)
(-0.00886457 -0.0129238 2.11697e-19)
(0.0105938 -0.0146067 -6.43987e-19)
(0.0374035 -0.0156565 3.58229e-19)
(0.0722613 -0.015893 -1.84489e-19)
(0.115798 -0.0151037 -4.53269e-19)
(0.168528 -0.0130538 -3.16212e-19)
(0.230782 -0.00952173 5.00444e-19)
(0.302606 -0.00433923 -1.65039e-19)
(0.383653 0.0025606 -7.75199e-20)
(0.473055 0.0110753 5.70931e-20)
(0.569402 0.0209705 -2.77325e-19)
(0.67043 0.0315061 2.16543e-19)
(0.77406 0.0425468 -3.44393e-20)
(0.875051 0.0516618 2.42842e-19)
(0.97651 0.0608599 2.81402e-19)
(1.05574 0.0640103 -9.72169e-20)
(1.16165 0.0673068 -1.97431e-19)
(-0.00408578 0.00369037 -6.87717e-20)
(-0.0113728 0.00689782 -2.57189e-19)
(-0.0189055 0.00653357 6.37459e-21)
(-0.0248596 0.00437916 -1.30371e-19)
(-0.0281437 0.00128081 -3.8299e-19)
(-0.0277245 -0.00220477 -1.97391e-19)
(-0.0225916 -0.00570507 1.08282e-19)
(-0.0117977 -0.00897914 -3.34574e-19)
(0.00555315 -0.0118452 2.66973e-20)
(0.0303091 -0.0141307 1.6044e-19)
(0.0632641 -0.0156434 -4.53538e-19)
(0.105134 -0.0161597 -1.46811e-19)
(0.156508 -0.0154332 3.6176e-19)
(0.217768 -0.0132133 2.35222e-19)
(0.288984 -0.00928263 -2.96286e-19)
(0.369789 -0.00350477 3.0539e-19)
(0.459253 0.00412055 1.23385e-19)
(0.555794 0.0133968 -2.75615e-20)
(0.657175 0.0239289 -2.62171e-20)
(0.760434 0.0349622 -2.31867e-19)
(0.862609 0.0458876 2.52343e-20)
(0.959025 0.055042 -4.14648e-20)
(1.05031 0.0629403 -2.22488e-19)
(1.12154 0.0657093 -1.64024e-19)
(1.2061 0.0677596 -1.56002e-19)
(-0.00509008 0.0047791 -4.31159e-20)
(-0.013216 0.00928111 -5.68359e-19)
(-0.0204793 0.00962513 -3.52081e-19)
(-0.0252632 0.00768977 -4.49793e-19)
(-0.0265627 0.00444909 3.97929e-19)
(-0.0233886 0.000580493 3.23238e-20)
(-0.01474 -0.00343614 2.86147e-19)
(0.000352794 -0.00726533 -2.60703e-19)
(0.0228259 -0.010644 4.27762e-19)
(0.0535689 -0.0133308 1.58332e-19)
(0.0933945 -0.0150778 1.23586e-20)
(0.142985 -0.0156197 -2.34136e-20)
(0.202806 -0.014684 -8.11093e-20)
(0.272994 -0.0120166 -7.13554e-20)
(0.353216 -0.00742508 6.85878e-20)
(0.442533 -0.000833538 9.50134e-20)
(0.539294 0.00765718 -5.90096e-19)
(0.641117 0.0177268 3.50225e-20)
(0.744968 0.028796 -9.19754e-20)
(0.847332 0.0400885 -8.06799e-20)
(0.944797 0.0506026 3.99955e-20)
(1.03338 0.0593717 -2.5176e-19)
(1.11263 0.0656446 1.11842e-19)
(1.17377 0.0678552 1.43293e-19)
(1.23842 0.0681657 -3.31897e-19)
(-0.00604614 0.00571039 1.00826e-19)
(-0.0148766 0.0113109 4.11239e-19)
(-0.0216721 0.0122726 3.59324e-20)
(-0.0250235 0.0105378 6.52878e-19)
(-0.0240057 0.00719262 -4.14515e-19)
(-0.0176688 0.0030242 4.05333e-19)
(-0.00501796 -0.00138785 -3.62189e-19)
(0.0149366 -0.00561844 1.4232e-19)
(0.0431603 -0.00932555 -1.80732e-19)
(0.0805586 -0.0122016 2.35487e-19)
(0.127917 -0.0139458 3.84191e-19)
(0.18581 -0.0142567 1.94094e-19)
(0.254478 -0.0128471 7.69102e-20)
(0.333677 -0.00947715 8.2742e-20)
(0.422523 -0.00400605 -5.76061e-20)
(0.519365 0.00354983 -4.74201e-20)
(0.621746 0.0129552 4.80932e-19)
(0.726495 0.023742 1.53358e-19)
(0.829942 0.03515 4.07874e-19)
(0.928302 0.0463754 1.07868e-20)
(1.01822 0.0561693 -2.42978e-19)
(1.0966 0.0641356 2.98879e-19)
(1.16303 0.0685866 3.73042e-19)
(1.21318 0.0701418 4.88248e-20)
(1.26057 0.0683577 3.27039e-19)
(-0.00693098 0.00647452 -2.8615e-19)
(-0.0162984 0.0129638 1.59258e-19)
(-0.0224019 0.0144432 3.51121e-19)
(-0.0240355 0.0128852 -1.38505e-19)
(-0.0203466 0.00947194 -4.1165e-19)
(-0.0104195 0.00508881 -3.02272e-20)
(0.00673421 0.000406909 2.21051e-20)
(0.0321168 -0.00406402 3.93605e-20)
(0.066703 -0.00790699 -2.50559e-19)
(0.111375 -0.0107518 -1.04559e-19)
(0.166828 -0.0122502 -3.58603e-19)
(0.233436 -0.0120741 -7.68835e-21)
(0.311093 -0.00993732 -9.42373e-20)
(0.399033 -0.00563816 -2.81864e-20)
(0.495679 0.000882019 2.36224e-19)
(0.598577 0.00948042 -3.36636e-19)
(0.704453 0.0197598 1.39294e-19)
(0.809475 0.0310919 -2.07613e-19)
(0.909627 0.0425656 -2.97911e-19)
(1.00123 0.0533601 5.65965e-20)
(1.08145 0.0621505 5.26946e-19)
(1.1483 0.0689599 -2.61761e-19)
(1.20209 0.0715561 1.29194e-20)
(1.24139 0.0724505 2.2489e-19)
(1.27467 0.0682567 1.26194e-19)
(-0.00772241 0.00706502 1.34768e-19)
(-0.0174265 0.0142222 -1.92105e-19)
(-0.0225893 0.0161099 -4.08155e-19)
(-0.0221989 0.0146987 -2.1734e-19)
(-0.0154673 0.0112509 2.37662e-19)
(-0.0015095 0.00673861 8.09787e-20)
(0.020653 0.00191621 4.7051e-19)
(0.05202 -0.00262757 1.89421e-19)
(0.0935449 -0.00640591 1.18621e-19)
(0.146035 -0.00899123 5.5035e-20)
(0.210013 -0.00999607 3.71326e-19)
(0.285545 -0.00907922 1.64274e-19)
(0.372043 -0.00597699 -1.31839e-19)
(0.468079 -0.000555331 1.84424e-19)
(0.571279 0.00712732 -1.01949e-19)
(0.678349 0.0167694 1.24013e-19)
(0.785301 0.0277949 -1.15394e-19)
(0.887886 0.0394224 -2.48393e-19)
(0.982109 0.0506425 3.47174e-19)
(1.06481 0.0606521 -3.50494e-19)
(1.13406 0.0682091 9.90297e-20)
(1.18906 0.0736064 -1.0986e-19)
(1.23111 0.0745006 -8.18483e-20)
(1.26034 0.0747228 -6.71494e-19)
(1.28268 0.0678399 1.06559e-19)
(-0.00839975 0.00747916 2.74888e-20)
(-0.0182081 0.0150756 1.37756e-19)
(-0.0221576 0.0172538 4.5793e-19)
(-0.0194177 0.0159534 -1.08138e-19)
(-0.00925675 0.0125015 -4.71084e-20)
(0.00918061 0.00794638 8.77709e-20)
(0.0368546 0.00311708 7.79557e-20)
(0.0747408 -0.00132518 -3.04319e-19)
(0.123729 -0.00482937 -1.39786e-19)
(0.184484 -0.00691808 -4.27306e-19)
(0.257261 -0.00717666 -3.17545e-19)
(0.341693 -0.00526977 -2.21562e-19)
(0.436571 -0.000984074 1.91135e-19)
(0.539689 0.00571151 -2.75189e-19)
(0.647814 0.014605 -1.27626e-19)
(0.756875 0.0252105 -5.53098e-20)
(0.862372 0.036774 -3.55485e-20)
(0.95998 0.0483911 7.46218e-19)
(1.04613 0.0590253 4.80429e-20)
(1.11853 0.0679457 -6.35393e-20)
(1.17637 0.0741067 -3.39994e-19)
(1.22003 0.0779635 1.08954e-19)
(1.25172 0.0774452 9.73057e-21)
(1.27216 0.0767807 3.87919e-19)
(1.28642 0.067101 4.29438e-20)
(-0.00894418 0.00771815 2.17994e-19)
(-0.0185935 0.0155216 -2.10047e-19)
(-0.0210334 0.0178665 -3.19764e-19)
(-0.0155995 0.0166361 3.21518e-19)
(-0.0016094 0.0132092 -7.17624e-20)
(0.0217612 0.0086995 -6.20904e-20)
(0.0554405 0.00400278 5.40757e-20)
(0.100349 -0.000154212 -7.70216e-20)
(0.157259 -0.00316354 1.91338e-19)
(0.22661 -0.00450862 1.22931e-19)
(0.308278 -0.00376446 3.13291e-19)
(0.401329 -0.000627382 -7.30293e-21)
(0.503808 0.00503051 2.43969e-19)
(0.61264 0.0130976 -1.82896e-20)
(0.723755 0.0231752 2.43622e-19)
(0.832461 0.0345815 6.65369e-20)
(0.934056 0.046408 -4.3277e-19)
(1.02452 0.0576819 -2.02232e-19)
(1.10109 0.0674187 -4.55417e-20)
(1.16257 0.0750215 1.26059e-19)
(1.20929 0.0796969 -6.01806e-20)
(1.2427 0.0820233 -2.03598e-19)
(1.26557 0.0803548 2.66093e-20)
(1.27884 0.0784343 -1.81578e-19)
(1.28832 0.0692773 -8.72485e-20)
(-0.00933906 0.00778691 1.33587e-19)
(-0.0185352 0.0155661 1.43048e-19)
(-0.0191458 0.017952 2.62526e-19)
(-0.0106542 0.0167489 -1.91337e-19)
(0.0075773 0.0133767 1.40423e-20)
(0.036337 0.0090058 3.82994e-19)
(0.0765008 0.00459014 -1.09855e-19)
(0.128893 0.000914458 -3.63511e-19)
(0.194102 -0.00136614 -2.12876e-19)
(0.272244 -0.0017108 2.82867e-19)
(0.36269 0.00029235 -5.78479e-19)
(0.463808 0.00488148 3.37753e-21)
(0.572784 0.0120573 -4.47828e-20)
(0.685655 0.0215254 3.45532e-19)
(0.797618 0.0326775 -1.78366e-19)
(0.903625 0.0446458 2.42738e-19)
(0.999136 0.0564154 2.35007e-19)
(1.08082 0.0670181 -4.03461e-19)
(1.14697 0.0755975 -1.61869e-19)
(1.19759 0.0817403 -1.30927e-19)
(1.23405 0.0849184 1.96619e-19)
(1.2586 0.0858308 3.0335e-19)
(1.27422 0.0831299 1.37507e-19)
(1.28212 0.0804232 -1.21001e-19)
(1.28792 0.0711278 -2.15008e-19)
(-0.00956995 0.00769376 -3.15833e-20)
(-0.0179893 0.0152245 1.3399e-19)
(-0.016425 0.017527 -2.66481e-19)
(-0.00449267 0.0163103 -4.0951e-19)
(0.0184048 0.0130281 -6.07127e-19)
(0.0530093 0.00889806 1.03435e-19)
(0.100117 0.00492464 -1.21546e-19)
(0.160404 0.00194135 1.77343e-19)
(0.234192 0.000637276 6.55536e-20)
(0.321161 0.00155659 1.25796e-19)
(0.420047 0.00506637 1.37124e-19)
(0.528391 0.0112972 -7.38979e-20)
(0.642459 0.0200771 -1.04722e-19)
(0.757452 0.0308946 -2.28305e-19)
(0.868043 0.0429281 6.95147e-20)
(0.969168 0.0551594 -2.54894e-19)
(1.05683 0.0665366 9.46377e-20)