/*--------------------------------*- C++ -*----------------------------------*\
  =========                 |
  \\      /  F ield         | OpenFOAM: The Open Source CFD Toolbox
   \\    /   O peration     | Website:  https://openfoam.org
    \\  /    A nd           | Version:  7
     \\/     M anipulation  |
\*---------------------------------------------------------------------------*/
FoamFile
{
    version     2.0;
    format      ascii;
    class       volScalarField;
    location    "20";
    object      p;
}
// * * * * * * * * * * * * * * * * * * * * * * * * * * * * * * * * * * * * * //

dimensions      [0 2 -2 0 0 0 0];

internalField   nonuniform List<scalar> 
11300
(
-0.313003
-0.319241
-0.320958
-0.32085
-0.319086
-0.315737
-0.310949
-0.304826
-0.297462
-0.288965
-0.279472
-0.269153
-0.258279
-0.247266
-0.235675
-0.313876
-0.319957
-0.321584
-0.321399
-0.319569
-0.316165
-0.311333
-0.305171
-0.297773
-0.289243
-0.279714
-0.269349
-0.258419
-0.247353
-0.235472
-0.315613
-0.321383
-0.322829
-0.32249
-0.320529
-0.317016
-0.312093
-0.305855
-0.298389
-0.289793
-0.280193
-0.269736
-0.258696
-0.247527
-0.235064
-0.318195
-0.323503
-0.324682
-0.324112
-0.321953
-0.318278
-0.313219
-0.306865
-0.299297
-0.290604
-0.280899
-0.270305
-0.259103
-0.247788
-0.234455
-0.321597
-0.326299
-0.327124
-0.326248
-0.323827
-0.319934
-0.314693
-0.308185
-0.300481
-0.291658
-0.281812
-0.271046
-0.259627
-0.248136
-0.233648
-0.325785
-0.329745
-0.330132
-0.328875
-0.326128
-0.321963
-0.316494
-0.309793
-0.301919
-0.292934
-0.282917
-0.27194
-0.260256
-0.248571
-0.232649
-0.330721
-0.333809
-0.333678
-0.331969
-0.328832
-0.324341
-0.318597
-0.311664
-0.303586
-0.294409
-0.284191
-0.27297
-0.260974
-0.249091
-0.231469
-0.336361
-0.338459
-0.337734
-0.335502
-0.331912
-0.327041
-0.320977
-0.313771
-0.305455
-0.296056
-0.28561
-0.274116
-0.261766
-0.249693
-0.230123
-0.342659
-0.343658
-0.342266
-0.339444
-0.335341
-0.330036
-0.323605
-0.316088
-0.307501
-0.29785
-0.28715
-0.275359
-0.262613
-0.250373
-0.228636
-0.349568
-0.349369
-0.347242
-0.343765
-0.339089
-0.333299
-0.326457
-0.318589
-0.309697
-0.299765
-0.288786
-0.276679
-0.263503
-0.25112
-0.227038
-0.357038
-0.355554
-0.352629
-0.348437
-0.343131
-0.336805
-0.329507
-0.32125
-0.312019
-0.30178
-0.290497
-0.278057
-0.26442
-0.251919
-0.22537
-0.365026
-0.362175
-0.358395
-0.35343
-0.347442
-0.340532
-0.332734
-0.324051
-0.314449
-0.303873
-0.292264
-0.279475
-0.265353
-0.252749
-0.22368
-0.373485
-0.369199
-0.36451
-0.358719
-0.351998
-0.344458
-0.336121
-0.326975
-0.31697
-0.30603
-0.294071
-0.280917
-0.266294
-0.253575
-0.222022
-0.382373
-0.376591
-0.370945
-0.364281
-0.356781
-0.34857
-0.339654
-0.33001
-0.319571
-0.308238
-0.295905
-0.282369
-0.267238
-0.254356
-0.220457
-0.391652
-0.38432
-0.377673
-0.370094
-0.361774
-0.352853
-0.343324
-0.333149
-0.322244
-0.31049
-0.297758
-0.283819
-0.268185
-0.255042
-0.219063
-0.401286
-0.392354
-0.384672
-0.376139
-0.366964
-0.357299
-0.347124
-0.336386
-0.324985
-0.31278
-0.299621
-0.285254
-0.269139
-0.255579
-0.217938
-0.41124
-0.400667
-0.391917
-0.3824
-0.372339
-0.361901
-0.35105
-0.339719
-0.32779
-0.315104
-0.301488
-0.286663
-0.270106
-0.255857
-0.217062
-0.421482
-0.409229
-0.399387
-0.388861
-0.37789
-0.366654
-0.3551
-0.343145
-0.330656
-0.317455
-0.303352
-0.288049
-0.271111
-0.255672
-0.216158
-0.431977
-0.418012
-0.407058
-0.395506
-0.383606
-0.371551
-0.359269
-0.346661
-0.333576
-0.319823
-0.305204
-0.289428
-0.272232
-0.255052
-0.216028
-0.44269
-0.426986
-0.414908
-0.402317
-0.389476
-0.376584
-0.363551
-0.350257
-0.336536
-0.322186
-0.307016
-0.290791
-0.273516
-0.255001
-0.22236
-0.453584
-0.436117
-0.422909
-0.409276
-0.395485
-0.381742
-0.367933
-0.353918
-0.339512
-0.32451
-0.308734
-0.292027
-0.274688
-0.256346
-0.242569
-0.464613
-0.445369
-0.431032
-0.416357
-0.401613
-0.387007
-0.372396
-0.357617
-0.342469
-0.326744
-0.310282
-0.292989
-0.275374
-0.256456
-0.247103
-0.475728
-0.454697
-0.439238
-0.423531
-0.407834
-0.392353
-0.37691
-0.361319
-0.345363
-0.32883
-0.31158
-0.293567
-0.275388
-0.255574
-0.246363
-0.486868
-0.464051
-0.447486
-0.430759
-0.414114
-0.397743
-0.381435
-0.364977
-0.348134
-0.330699
-0.312551
-0.293686
-0.274718
-0.254049
-0.243647
-0.497965
-0.473371
-0.455724
-0.437996
-0.420407
-0.403132
-0.385918
-0.368527
-0.350712
-0.332273
-0.313116
-0.293278
-0.273357
-0.251848
-0.239623
-0.508936
-0.482589
-0.463889
-0.445184
-0.426657
-0.408459
-0.390294
-0.371897
-0.353017
-0.333468
-0.313194
-0.29228
-0.271295
-0.248946
-0.234715
-0.519689
-0.491626
-0.471911
-0.452257
-0.432797
-0.413653
-0.394482
-0.374999
-0.354955
-0.334194
-0.312704
-0.290633
-0.268526
-0.245354
-0.2292
-0.530118
-0.50039
-0.479707
-0.459133
-0.438745
-0.418625
-0.398388
-0.377734
-0.356428
-0.334355
-0.311568
-0.288284
-0.26504
-0.241082
-0.223215
-0.540104
-0.50878
-0.487181
-0.465722
-0.444406
-0.423278
-0.401908
-0.379993
-0.357328
-0.333857
-0.309711
-0.285186
-0.260826
-0.236139
-0.216808
-0.549515
-0.516682
-0.494227
-0.471917
-0.449674
-0.427498
-0.404925
-0.381659
-0.357545
-0.332606
-0.307061
-0.281297
-0.255871
-0.230524
-0.209982
-0.558208
-0.523972
-0.500728
-0.477603
-0.454428
-0.43116
-0.407311
-0.38261
-0.35697
-0.33051
-0.303555
-0.276579
-0.250162
-0.224239
-0.202717
-0.566028
-0.530513
-0.506553
-0.482649
-0.458537
-0.434132
-0.408934
-0.38272
-0.355492
-0.327484
-0.299133
-0.271
-0.243687
-0.217281
-0.194987
-0.572811
-0.536162
-0.511563
-0.486919
-0.46186
-0.43627
-0.409655
-0.381863
-0.353007
-0.32345
-0.293744
-0.264535
-0.236436
-0.209648
-0.186763
-0.578386
-0.540764
-0.51561
-0.490261
-0.464248
-0.437427
-0.409337
-0.379917
-0.349416
-0.318336
-0.287347
-0.257163
-0.2284
-0.201337
-0.178023
-0.582573
-0.544158
-0.518537
-0.492523
-0.465545
-0.437453
-0.40784
-0.376765
-0.344629
-0.312082
-0.279906
-0.248868
-0.219574
-0.192348
-0.168748
-0.585191
-0.546181
-0.520182
-0.493542
-0.465593
-0.436198
-0.40503
-0.372297
-0.338565
-0.304638
-0.271394
-0.23964
-0.209957
-0.18268
-0.158924
-0.586057
-0.546663
-0.520382
-0.493155
-0.464235
-0.433514
-0.400782
-0.366413
-0.331157
-0.295961
-0.261793
-0.229474
-0.199547
-0.172337
-0.148546
-0.584989
-0.545436
-0.518971
-0.4912
-0.461314
-0.429262
-0.394978
-0.359027
-0.322346
-0.286023
-0.251092
-0.21837
-0.188351
-0.161324
-0.137609
-0.581812
-0.542336
-0.515784
-0.487517
-0.45668
-0.42331
-0.387512
-0.350063
-0.312088
-0.274802
-0.239286
-0.206332
-0.176373
-0.149647
-0.126119
-0.576355
-0.5372
-0.510663
-0.481953
-0.450193
-0.415537
-0.378294
-0.339462
-0.300353
-0.262289
-0.226379
-0.193369
-0.163625
-0.137317
-0.11408
-0.568459
-0.529876
-0.503458
-0.474362
-0.441723
-0.405839
-0.367248
-0.32718
-0.287121
-0.248484
-0.21238
-0.179496
-0.150121
-0.124346
-0.101506
-0.557979
-0.520223
-0.494028
-0.464614
-0.431155
-0.394127
-0.354317
-0.313187
-0.272387
-0.233397
-0.197307
-0.164731
-0.135876
-0.11075
-0.0884098
-0.544785
-0.508113
-0.482249
-0.452592
-0.418393
-0.380331
-0.339459
-0.297471
-0.256159
-0.217046
-0.181182
-0.149095
-0.120913
-0.0965493
-0.0748102
-0.528767
-0.493433
-0.468009
-0.438198
-0.403359
-0.364401
-0.322654
-0.280034
-0.238456
-0.199458
-0.164035
-0.132618
-0.105254
-0.0817644
-0.0607217
-0.509838
-0.476094
-0.451221
-0.421354
-0.385996
-0.346306
-0.303898
-0.260895
-0.219308
-0.18067
-0.1459
-0.11533
-0.0889313
-0.0664254
-0.0461525
-0.487933
-0.456024
-0.431817
-0.402005
-0.366271
-0.32604
-0.283208
-0.240088
-0.198759
-0.160726
-0.12682
-0.0972702
-0.0719762
-0.0505683
-0.0311382
-0.463013
-0.433177
-0.409752
-0.38012
-0.344174
-0.303616
-0.26062
-0.217661
-0.176863
-0.139679
-0.106843
-0.0784794
-0.0544221
-0.0341913
-0.0157808
-0.435069
-0.407534
-0.385009
-0.355695
-0.319721
-0.279072
-0.236186
-0.193677
-0.153683
-0.117588
-0.0860212
-0.0590065
-0.0363171
-0.0173514
-5.69123e-05
-0.404121
-0.379102
-0.357599
-0.32875
-0.292951
-0.252466
-0.209979
-0.168212
-0.129294
-0.0945224
-0.0644177
-0.0389023
-0.0177004
-9.6132e-05
0.0159995
-0.370216
-0.347918
-0.327558
-0.299337
-0.26393
-0.223878
-0.182087
-0.141357
-0.103781
-0.0705587
-0.0420948
-0.0182245
0.00137772
0.0175323
0.032345
-0.333436
-0.314046
-0.294953
-0.267529
-0.232747
-0.193409
-0.152613
-0.113211
-0.0772358
-0.0457773
-0.0191262
0.00296464
0.020863
0.0354872
0.0489335
-0.293892
-0.277582
-0.25988
-0.233433
-0.199518
-0.161178
-0.121677
-0.0838876
-0.0497604
-0.0202676
0.0044111
0.024598
0.0406973
0.0537179
0.0657153
-0.251726
-0.238649
-0.222462
-0.19718
-0.164375
-0.127319
-0.0894138
-0.05351
-0.021464
0.00587495
0.0284344
0.0466037
0.0608186
0.0721693
0.0826351
-0.20711
-0.197401
-0.182854
-0.158928
-0.127466
-0.0919947
-0.055969
-0.0222103
0.00753687
0.0325492
0.0528562
0.0689053
0.0811612
0.0907823
0.09963
-0.160242
-0.154019
-0.141232
-0.118825
-0.0889989
-0.0553728
-0.0214995
0.00987069
0.0371192
0.0596488
0.0775844
0.0914224
0.101655
0.109494
0.11663
-0.111331
-0.108724
-0.0977886
-0.0771115
-0.0491466
-0.0176362
0.0138265
0.0425847
0.0671542
0.0870629
0.102523
0.114071
0.122229
0.128241
0.13356
-0.0606278
-0.0617542
-0.0527664
-0.0339949
-0.00812242
0.0210178
0.0498325
0.0757769
0.0975085
0.114677
0.127572
0.136763
0.142813
0.146971
0.150315
-0.00847851
-0.0133158
-0.00640771
0.0102867
0.033846
0.0603822
0.0863342
0.109287
0.128044
0.142372
0.15263
0.159411
0.163349
0.165627
0.166663
0.0448692
0.036281
0.0410194
0.0554774
0.0765201
0.100241
0.123142
0.142952
0.158621
0.170029
0.177591
0.18193
0.183775
0.184079
0.18229
0.0991034
0.0867395
0.0892321
0.101309
0.119652
0.140373
0.16006
0.176602
0.189096
0.197523
0.20235
0.204234
0.203994
0.202047
0.197203
0.153889
0.137752
0.137934
0.147502
0.162986
0.180548
0.196892
0.210069
0.219323
0.224732
0.226805
0.226238
0.223869
0.219233
0.212144
0.208882
0.188996
0.186818
0.193768
0.20626
0.220538
0.233436
0.243181
0.249158
0.251531
0.250851
0.247839
0.24333
0.236629
0.228279
0.263729
0.240142
0.235567
0.239815
0.249211
0.260108
0.269494
0.275768
0.278454
0.277797
0.274379
0.268934
0.262261
0.253669
0.244125
0.31807
0.29085
0.283862
0.285347
0.291572
0.299028
0.304864
0.30766
0.307067
0.303405
0.297282
0.289433
0.280606
0.270164
0.259371
0.371546
0.34078
0.331379
0.330066
0.333079
0.337066
0.339351
0.338689
0.334856
0.328236
0.319457
0.309248
0.298304
0.286063
0.273929
0.423793
0.389591
0.377798
0.373678
0.373471
0.373996
0.372761
0.368692
0.361681
0.35217
0.340802
0.328292
0.315288
0.301308
0.287791
0.474456
0.436946
0.422801
0.415895
0.412491
0.409597
0.404904
0.397507
0.387407
0.375093
0.361221
0.346486
0.33149
0.315836
0.300934
0.523184
0.482514
0.466076
0.456434
0.449892
0.443654
0.435599
0.424982
0.411903
0.396894
0.380618
0.363748
0.346846
0.329591
0.313326
0.569638
0.525973
0.507323
0.495021
0.485432
0.475962
0.464671
0.450968
0.435044
0.417467
0.398904
0.380005
0.361291
0.342519
0.324931
0.613491
0.567014
0.546253
0.531396
0.518885
0.506324
0.491953
0.475324
0.45671
0.436712
0.415994
0.395183
0.374767
0.354571
0.335716
0.654432
0.605343
0.58259
0.565313
0.550033
0.534555
0.517289
0.497917
0.476789
0.454532
0.431806
0.409216
0.387216
0.365698
0.345649
0.69217
0.640684
0.616078
0.596539
0.578676
0.560483
0.540531
0.518624
0.495176
0.470838
0.446266
0.42204
0.398586
0.375854
0.354695
0.726435
0.67278
0.646479
0.624861
0.604627
0.583949
0.561545
0.53733
0.511775
0.48555
0.459304
0.433595
0.408826
0.384998
0.362825
0.756981
0.7014
0.673575
0.650085
0.627717
0.604809
0.58021
0.553932
0.526499
0.498592
0.470856
0.443829
0.41789
0.39309
0.370008
0.783587
0.726332
0.697173
0.672037
0.647797
0.622934
0.596416
0.568339
0.539269
0.509898
0.480867
0.452692
0.425739
0.400095
0.376219
0.806061
0.747396
0.717102
0.690567
0.664735
0.638213
0.610069
0.58047
0.550016
0.51941
0.489286
0.460145
0.432336
0.405982
0.381432
0.824239
0.764436
0.733221
0.705547
0.67842
0.650551
0.621089
0.590257
0.558684
0.52708
0.496072
0.46615
0.437651
0.410724
0.385627
0.83799
0.777327
0.745414
0.716874
0.688762
0.659871
0.62941
0.597646
0.565227
0.532867
0.501192
0.47068
0.441659
0.4143
0.388789
0.847213
0.785974
0.753591
0.724469
0.695696
0.666118
0.634986
0.602595
0.569608
0.536742
0.504619
0.473711
0.444341
0.416693
0.390904
0.851842
0.790314
0.757694
0.728279
0.699174
0.66925
0.637781
0.605076
0.571804
0.538685
0.506337
0.475231
0.445686
0.417892
0.391964
0.851842
0.790314
0.757694
0.728279
0.699174
0.66925
0.637781
0.605076
0.571804
0.538685
0.506337
0.475231
0.445686
0.417892
0.391964
0.847213
0.785974
0.753591
0.724469
0.695696
0.666118
0.634986
0.602595
0.569608
0.536742
0.504619
0.473711
0.444341
0.416693
0.390904
0.83799
0.777327
0.745414
0.716874
0.688762
0.659871
0.62941
0.597646
0.565227
0.532867
0.501192
0.47068
0.441659
0.4143
0.388789
0.824239
0.764436
0.733221
0.705547
0.67842
0.650551
0.621089
0.590257
0.558684
0.52708
0.496072
0.46615
0.437651
0.410724
0.385627
0.806061
0.747396
0.717102
0.690567
0.664735
0.638213
0.610069
0.58047
0.550016
0.51941
0.489286
0.460145
0.432336
0.405982
0.381432
0.783587
0.726332
0.697173
0.672037
0.647797
0.622934
0.596416
0.568339
0.539269
0.509898
0.480867
0.452692
0.425739
0.400095
0.376219
0.756981
0.7014
0.673575
0.650085
0.627717
0.604809
0.58021
0.553932
0.526499
0.498592
0.470856
0.443829
0.41789
0.39309
0.370008
0.726435
0.67278
0.646479
0.624861
0.604627
0.583949
0.561545
0.53733
0.511775
0.48555
0.459304
0.433595
0.408826
0.384998
0.362825
0.69217
0.640684
0.616078
0.596539
0.578676
0.560483
0.540531
0.518624
0.495176
0.470838
0.446266
0.42204
0.398586
0.375854
0.354695
0.654432
0.605343
0.58259
0.565313
0.550033
0.534555
0.517289
0.497917
0.476789
0.454532
0.431806
0.409216
0.387216
0.365698
0.345649
0.613491
0.567014
0.546253
0.531396
0.518885
0.506324
0.491953
0.475324
0.45671
0.436712
0.415994
0.395183
0.374767
0.354571
0.335716
0.569638
0.525973
0.507323
0.495021
0.485432
0.475962
0.464671
0.450968
0.435044
0.417467
0.398904
0.380005
0.361291
0.342519
0.324931
0.523184
0.482514
0.466076
0.456434
0.449892
0.443654
0.435599
0.424982
0.411903
0.396894
0.380618
0.363748
0.346846
0.329591
0.313326
0.474456
0.436946
0.422801
0.415895
0.412491
0.409597
0.404904
0.397507
0.387407
0.375093
0.361221
0.346486
0.33149
0.315836
0.300934
0.423793
0.389591
0.377798
0.373678
0.373471
0.373996
0.372761
0.368692
0.361681
0.35217
0.340802
0.328292
0.315288
0.301308
0.287791
0.371546
0.34078
0.331379
0.330066
0.333079
0.337066
0.339351
0.338689
0.334856
0.328236
0.319457
0.309248
0.298304
0.286063
0.273929
0.31807
0.29085
0.283862
0.285347
0.291572
0.299028
0.304864
0.30766
0.307067
0.303405
0.297282
0.289433
0.280606
0.270164
0.259371
0.263729
0.240142
0.235567
0.239815
0.249211
0.260108
0.269494
0.275768
0.278454
0.277797
0.274379
0.268934
0.262261
0.253669
0.244125
0.208882
0.188996
0.186818
0.193768
0.20626
0.220538
0.233436
0.243181
0.249158
0.251531
0.250851
0.247839
0.24333
0.236629
0.228279
0.153889
0.137752
0.137934
0.147502
0.162986
0.180548
0.196892
0.210069
0.219323
0.224732
0.226805
0.226238
0.223869
0.219233
0.212144
0.0991034
0.0867395
0.0892321
0.101309
0.119652
0.140373
0.16006
0.176602
0.189096
0.197523
0.20235
0.204234
0.203994
0.202047
0.197203
0.0448692
0.036281
0.0410194
0.0554774
0.0765201
0.100241
0.123142
0.142952
0.158621
0.170029
0.177591
0.18193
0.183775
0.184079
0.18229
-0.00847851
-0.0133158
-0.0064077
0.0102867
0.033846
0.0603822
0.0863342
0.109287
0.128044
0.142372
0.15263
0.159411
0.163349
0.165627
0.166663
-0.0606278
-0.0617542
-0.0527664
-0.0339949
-0.00812241
0.0210178
0.0498325
0.0757769
0.0975085
0.114677
0.127572
0.136763
0.142813
0.146971
0.150315
-0.111331
-0.108724
-0.0977886
-0.0771115
-0.0491466
-0.0176362
0.0138265
0.0425847
0.0671542
0.0870629
0.102523
0.114071
0.122229
0.128242
0.13356
-0.160242
-0.154019
-0.141232
-0.118825
-0.0889989
-0.0553728
-0.0214995
0.00987069
0.0371192
0.0596488
0.0775844
0.0914224
0.101655
0.109494
0.11663
-0.20711
-0.197401
-0.182854
-0.158928
-0.127466
-0.0919947
-0.055969
-0.0222103
0.00753688
0.0325492
0.0528562
0.0689053
0.0811612
0.0907824
0.09963
-0.251726
-0.238649
-0.222462
-0.19718
-0.164375
-0.127319
-0.0894138
-0.05351
-0.021464
0.00587496
0.0284344
0.0466037
0.0608186
0.0721693
0.0826351
-0.293892
-0.277582
-0.25988
-0.233433
-0.199518
-0.161178
-0.121677
-0.0838876
-0.0497604
-0.0202676
0.0044111
0.024598
0.0406973
0.0537179
0.0657153
-0.333436
-0.314046
-0.294953
-0.267529
-0.232747
-0.193409
-0.152613
-0.113211
-0.0772358
-0.0457773
-0.0191262
0.00296464
0.020863
0.0354872
0.0489335
-0.370216
-0.347918
-0.327558
-0.299337
-0.26393
-0.223878
-0.182087
-0.141357
-0.103781
-0.0705587
-0.0420948
-0.0182245
0.00137773
0.0175323
0.032345
-0.404121
-0.379102
-0.357599
-0.32875
-0.292951
-0.252466
-0.209979
-0.168212
-0.129294
-0.0945224
-0.0644177
-0.0389023
-0.0177004
-9.61274e-05
0.0159995
-0.435069
-0.407534
-0.385009
-0.355695
-0.319721
-0.279072
-0.236186
-0.193677
-0.153683
-0.117588
-0.0860212
-0.0590065
-0.0363171
-0.0173514
-5.69079e-05
-0.463013
-0.433177
-0.409752
-0.38012
-0.344174
-0.303616
-0.26062
-0.217661
-0.176863
-0.139679
-0.106843
-0.0784794
-0.0544221
-0.0341913
-0.0157808
-0.487933
-0.456024
-0.431817
-0.402005
-0.366271
-0.32604
-0.283208
-0.240088
-0.198759
-0.160726
-0.12682
-0.0972702
-0.0719762
-0.0505683
-0.0311382
-0.509838
-0.476094
-0.451221
-0.421354
-0.385996
-0.346306
-0.303898
-0.260895
-0.219308
-0.18067
-0.1459
-0.11533
-0.0889313
-0.0664254
-0.0461525
-0.528767
-0.493433
-0.468009
-0.438198
-0.403359
-0.364401
-0.322654
-0.280034
-0.238456
-0.199458
-0.164035
-0.132618
-0.105254
-0.0817644
-0.0607216
-0.544785
-0.508113
-0.482249
-0.452592
-0.418393
-0.380331
-0.339459
-0.297471
-0.256159
-0.217046
-0.181182
-0.149095
-0.120913
-0.0965493
-0.0748102
-0.557979
-0.520223
-0.494028
-0.464614
-0.431155
-0.394127
-0.354317
-0.313187
-0.272387
-0.233397
-0.197307
-0.164731
-0.135876
-0.11075
-0.0884098
-0.568459
-0.529876
-0.503458
-0.474362
-0.441723
-0.405839
-0.367248
-0.32718
-0.287121
-0.248484
-0.21238
-0.179496
-0.150121
-0.124346
-0.101506
-0.576355
-0.5372
-0.510663
-0.481953
-0.450193
-0.415537
-0.378294
-0.339462
-0.300353
-0.262289
-0.226379
-0.193369
-0.163625
-0.137317
-0.11408
-0.581812
-0.542336
-0.515784
-0.487517
-0.45668
-0.42331
-0.387512
-0.350063
-0.312088
-0.274802
-0.239286
-0.206332
-0.176373
-0.149647
-0.126119
-0.584989
-0.545436
-0.518971
-0.4912
-0.461314
-0.429262
-0.394978
-0.359027
-0.322346
-0.286023
-0.251092
-0.21837
-0.188351
-0.161324
-0.137609
-0.586057
-0.546663
-0.520382
-0.493155
-0.464235
-0.433514
-0.400782
-0.366413
-0.331157
-0.295961
-0.261793
-0.229474
-0.199547
-0.172337
-0.148546
-0.585191
-0.546181
-0.520182
-0.493542
-0.465593
-0.436198
-0.40503
-0.372297
-0.338565
-0.304638
-0.271394
-0.23964
-0.209957
-0.18268
-0.158924
-0.582573
-0.544158
-0.518537
-0.492523
-0.465545
-0.437453
-0.40784
-0.376765
-0.344629
-0.312082
-0.279906
-0.248868
-0.219574
-0.192348
-0.168748
-0.578386
-0.540764
-0.51561
-0.490261
-0.464248
-0.437427
-0.409337
-0.379917
-0.349416
-0.318336
-0.287347
-0.257163
-0.2284
-0.201337
-0.178023
-0.572811
-0.536162
-0.511563
-0.486919
-0.46186
-0.43627
-0.409655
-0.381863
-0.353007
-0.32345
-0.293744
-0.264535
-0.236436
-0.209648
-0.186763
-0.566028
-0.530513
-0.506553
-0.482649
-0.458537
-0.434132
-0.408934
-0.38272
-0.355492
-0.327484
-0.299133
-0.271
-0.243687
-0.217281
-0.194987
-0.558208
-0.523972
-0.500728
-0.477603
-0.454428
-0.43116
-0.407311
-0.38261
-0.35697
-0.33051
-0.303555
-0.276579
-0.250162
-0.224239
-0.202717
-0.549515
-0.516682
-0.494227
-0.471917
-0.449674
-0.427498
-0.404925
-0.381659
-0.357545
-0.332606
-0.307061
-0.281297
-0.255871
-0.230524
-0.209982
-0.540104
-0.50878
-0.487181
-0.465722
-0.444406
-0.423278
-0.401908
-0.379993
-0.357328
-0.333857
-0.309711
-0.285186
-0.260826
-0.236139
-0.216808
-0.530118
-0.50039
-0.479707
-0.459133
-0.438745
-0.418625
-0.398388
-0.377734
-0.356428
-0.334355
-0.311568
-0.288284
-0.26504
-0.241082
-0.223215
-0.519689
-0.491626
-0.471911
-0.452257
-0.432797
-0.413653
-0.394482
-0.374999
-0.354955
-0.334194
-0.312704
-0.290633
-0.268526
-0.245354
-0.2292
-0.508936
-0.482589
-0.463889
-0.445184
-0.426657
-0.408459
-0.390294
-0.371897
-0.353017
-0.333468
-0.313194
-0.29228
-0.271295
-0.248946
-0.234715
-0.497965
-0.473371
-0.455724
-0.437996
-0.420407
-0.403132
-0.385918
-0.368527
-0.350712
-0.332273
-0.313116
-0.293278
-0.273357
-0.251848
-0.239623
-0.486868
-0.464051
-0.447486
-0.430759
-0.414114
-0.397743
-0.381435
-0.364977
-0.348134
-0.330699
-0.312551
-0.293686
-0.274718
-0.254049
-0.243647
-0.475728
-0.454697
-0.439238
-0.423531
-0.407834
-0.392353
-0.37691
-0.361319
-0.345363
-0.32883
-0.31158
-0.293567
-0.275388
-0.255574
-0.246363
-0.464613
-0.445369
-0.431032
-0.416357
-0.401613
-0.387007
-0.372396
-0.357617
-0.342469
-0.326744
-0.310282
-0.292989
-0.275374
-0.256456
-0.247103
-0.453584
-0.436117
-0.422909
-0.409276
-0.395485
-0.381742
-0.367933
-0.353918
-0.339512
-0.32451
-0.308734
-0.292027
-0.274688
-0.256346
-0.242569
-0.44269
-0.426986
-0.414908
-0.402317
-0.389476
-0.376584
-0.363551
-0.350257
-0.336535
-0.322186
-0.307016
-0.290791
-0.273516
-0.255001
-0.22236
-0.431977
-0.418012
-0.407058
-0.395506
-0.383606
-0.371551
-0.359269
-0.346661
-0.333576
-0.319823
-0.305204
-0.289428
-0.272232
-0.255052
-0.216028
-0.421482
-0.409229
-0.399387
-0.388861
-0.37789
-0.366654
-0.3551
-0.343145
-0.330656
-0.317455
-0.303352
-0.288049
-0.271111
-0.255672
-0.216158
-0.41124
-0.400667
-0.391917
-0.3824
-0.372339
-0.361901
-0.35105
-0.339719
-0.32779
-0.315104
-0.301488
-0.286663
-0.270106
-0.255857
-0.217062
-0.401286
-0.392354
-0.384672
-0.376139
-0.366964
-0.357299
-0.347124
-0.336386
-0.324985
-0.31278
-0.299621
-0.285254
-0.269139
-0.255579
-0.217938
-0.391652
-0.38432
-0.377673
-0.370094
-0.361774
-0.352853
-0.343324
-0.333149
-0.322244
-0.31049
-0.297758
-0.283819
-0.268185
-0.255042
-0.219063
-0.382373
-0.376591
-0.370945
-0.364281
-0.356781
-0.34857
-0.339654
-0.33001
-0.319571
-0.308238
-0.295905
-0.282369
-0.267238
-0.254356
-0.220457
-0.373485
-0.369199
-0.36451
-0.358719
-0.351998
-0.344458
-0.336121
-0.326975
-0.31697
-0.30603
-0.294071
-0.280917
-0.266294
-0.253575
-0.222022
-0.365026
-0.362175
-0.358395
-0.35343
-0.347442
-0.340532
-0.332734
-0.324051
-0.314449
-0.303873
-0.292264
-0.279475
-0.265353
-0.252749
-0.22368
-0.357038
-0.355554
-0.352629
-0.348437
-0.343131
-0.336805
-0.329507
-0.32125
-0.312019
-0.30178
-0.290497
-0.278057
-0.26442
-0.251919
-0.22537
-0.349568
-0.349369
-0.347242
-0.343765
-0.339089
-0.333299
-0.326457
-0.318589
-0.309697
-0.299765
-0.288786
-0.276679
-0.263503
-0.25112
-0.227038
-0.342659
-0.343658
-0.342266
-0.339444
-0.335341
-0.330036
-0.323605
-0.316088
-0.307501
-0.29785
-0.287149
-0.275359
-0.262613
-0.250373
-0.228636
-0.336361
-0.338459
-0.337734
-0.335502
-0.331912
-0.327041
-0.320977
-0.313771
-0.305455
-0.296056
-0.28561
-0.274116
-0.261766
-0.249693
-0.230123
-0.330721
-0.333809
-0.333678
-0.331969
-0.328832
-0.324341
-0.318597
-0.311664
-0.303586
-0.294409
-0.284191
-0.27297
-0.260974
-0.249091
-0.231469
-0.325785
-0.329745
-0.330132
-0.328875
-0.326128
-0.321963
-0.316494
-0.309793
-0.301919
-0.292934
-0.282917
-0.27194
-0.260256
-0.248571
-0.232649
-0.321597
-0.326299
-0.327124
-0.326248
-0.323827
-0.319934
-0.314693
-0.308185
-0.300481
-0.291658
-0.281812
-0.271046
-0.259627
-0.248136
-0.233648
-0.318195
-0.323503
-0.324682
-0.324112
-0.321953
-0.318278
-0.313219
-0.306865
-0.299297
-0.290604
-0.280899
-0.270305
-0.259103
-0.247788
-0.234455
-0.315613
-0.321383
-0.322829
-0.32249
-0.320529
-0.317016
-0.312093
-0.305855
-0.298389
-0.289793
-0.280193
-0.269736
-0.258696
-0.247527
-0.235064
-0.313876
-0.319957
-0.321584
-0.321399
-0.319569
-0.316165
-0.311333
-0.305171
-0.297773
-0.289243
-0.279714
-0.269349
-0.258419
-0.247353
-0.235472
-0.313003
-0.319241
-0.320958
-0.32085
-0.319086
-0.315737
-0.310949
-0.304826
-0.297462
-0.288965
-0.279472
-0.269153
-0.258279
-0.247266
-0.235675
-0.228194
-0.221099
-0.21373
-0.206315
-0.198789
-0.191176
-0.183509
-0.175811
-0.168103
-0.16041
-0.152756
-0.145166
-0.137664
-0.130277
-0.123027
-0.115937
-0.109029
-0.102321
-0.095831
-0.0895721
-0.0835565
-0.0777931
-0.0722883
-0.0670458
-0.062067
-0.0573505
-0.0528931
-0.0486895
-0.0447326
-0.0410138
-0.0375233
-0.0342501
-0.0311829
-0.0283087
-0.025617
-0.023091
-0.0207264
-0.0184947
-0.016415
-0.0144175
-0.0125987
-0.010753
-0.00922122
-0.00737433
-0.006288
-0.00408171
-0.00395046
-0.000460094
-0.00272082
0.00452426
-0.228607
-0.221414
-0.213965
-0.20653
-0.198987
-0.191359
-0.183681
-0.175974
-0.168257
-0.160556
-0.152895
-0.145298
-0.13779
-0.130396
-0.12314
-0.116044
-0.10913
-0.102417
-0.0959209
-0.0896566
-0.0836357
-0.0778673
-0.0723577
-0.0671105
-0.0621272
-0.0574064
-0.052945
-0.0487375
-0.0447769
-0.0410546
-0.0375608
-0.0342845
-0.0312145
-0.0283376
-0.0256434
-0.023115
-0.0207482
-0.0185146
-0.0164329
-0.0144337
-0.0126133
-0.0107663
-0.00923279
-0.00738536
-0.0062966
-0.00409169
-0.00395527
-0.000472014
-0.00271852
0.00450051
-0.229426
-0.222041
-0.214432
-0.206958
-0.199382
-0.191724
-0.184023
-0.176296
-0.168563
-0.160847
-0.153171
-0.14556
-0.138039
-0.130633
-0.123364
-0.116257
-0.109331
-0.102607
-0.0960998
-0.089825
-0.0837938
-0.0780154
-0.0724961
-0.0672397
-0.0622474
-0.0575182
-0.0530486
-0.0488333
-0.0448654
-0.0411362
-0.0376359
-0.0343534
-0.0312776
-0.0283954
-0.0256961
-0.0231631
-0.0207919
-0.0185542
-0.0164688
-0.0144662
-0.0126424
-0.0107928
-0.00925593
-0.00740739
-0.00631379
-0.00411164
-0.00396489
-0.000495773
-0.00271396
0.00445327
-0.230639
-0.222976
-0.215126
-0.207593
-0.199967
-0.192263
-0.184528
-0.176773
-0.169015
-0.161276
-0.153579
-0.145948
-0.138408
-0.130983
-0.123697
-0.116573
-0.10963
-0.102889
-0.0963664
-0.090076
-0.0840297
-0.0782365
-0.072703
-0.0674329
-0.0624274
-0.0576854
-0.0532037
-0.0489769
-0.0449981
-0.0412585
-0.0377484
-0.0344567
-0.0313723
-0.028482
-0.0257752
-0.0232351
-0.0208575
-0.0186137
-0.0165226
-0.014515
-0.0126861
-0.0108326
-0.00929059
-0.00744038
-0.00633955
-0.00414146
-0.00397933
-0.000531211
-0.00270726
0.00438304
-0.232223
-0.224213
-0.21604
-0.208426
-0.200735
-0.19297
-0.185188
-0.177395
-0.169604
-0.161836
-0.154112
-0.146456
-0.138892
-0.131443
-0.124135
-0.116988
-0.110024
-0.103262
-0.0967185
-0.0904079
-0.0843419
-0.0785296
-0.0729775
-0.0676893
-0.0626664
-0.0579078
-0.0534101
-0.0491681
-0.0451747
-0.0414214
-0.0378983
-0.0345944
-0.0314985
-0.0285974
-0.0258806
-0.0233312
-0.0209448
-0.018693
-0.0165943
-0.0145799
-0.0127443
-0.0108856
-0.00933673
-0.00748427
-0.00637383
-0.00418106
-0.00399859
-0.000578092
-0.00269858
0.00429058
-0.234146
-0.22574
-0.217163
-0.209448
-0.201674
-0.193832
-0.185993
-0.178154
-0.170322
-0.162518
-0.154762
-0.147075
-0.139482
-0.132006
-0.124671
-0.117498
-0.110509
-0.103721
-0.0971532
-0.0908184
-0.0847286
-0.0788931
-0.0733183
-0.0680081
-0.0629639
-0.0581848
-0.0536674
-0.0494065
-0.0453951
-0.0416247
-0.0380855
-0.0347664
-0.0316562
-0.0287417
-0.0260123
-0.0234512
-0.0210539
-0.018792
-0.0166839
-0.0146609
-0.0128169
-0.0109517
-0.0093943
-0.00753896
-0.0064166
-0.00423029
-0.0040227
-0.000636108
-0.00268811
0.00417684
-0.236367
-0.22754
-0.218481
-0.210642
-0.202771
-0.194837
-0.186929
-0.179034
-0.171156
-0.163311
-0.155517
-0.147797
-0.140171
-0.132665
-0.125299
-0.118097
-0.111079
-0.104264
-0.0976673
-0.0913047
-0.0851875
-0.0793251
-0.073724
-0.0683881
-0.0633189
-0.0585156
-0.0539749
-0.0496917
-0.045659
-0.0418683
-0.0383099
-0.0349726
-0.0318453
-0.0289147
-0.0261702
-0.0235951
-0.0211847
-0.0189107
-0.0167912
-0.0147581
-0.0129039
-0.0110308
-0.0094632
-0.00760435
-0.00646777
-0.00428898
-0.00405165
-0.000704883
-0.0026761
0.00404303
-0.238832
-0.229584
-0.219973
-0.211991
-0.204009
-0.195968
-0.18798
-0.180022
-0.172091
-0.1642
-0.156366
-0.148609
-0.14095
-0.13341
-0.126013
-0.11878
-0.11173
-0.104884
-0.0982569
-0.0918637
-0.0857161
-0.0798236
-0.0741929
-0.0688279
-0.0637304
-0.0588995
-0.0543322
-0.0500233
-0.045966
-0.0421519
-0.0385711
-0.0352128
-0.0320656
-0.0291162
-0.0263543
-0.0237627
-0.0213371
-0.019049
-0.0169162
-0.0148711
-0.0130051
-0.0111229
-0.00954334
-0.00768031
-0.00652728
-0.00435692
-0.00408544
-0.000783979
-0.00266281
0.00389054
-0.24148
-0.231835
-0.221614
-0.213472
-0.205367
-0.197204
-0.189126
-0.181099
-0.173111
-0.165171
-0.157296
-0.149501
-0.141806
-0.134233
-0.126803
-0.119538
-0.112456
-0.105577
-0.0989177
-0.0924918
-0.0863114
-0.0803862
-0.074723
-0.069326
-0.0641971
-0.0593354
-0.0547383
-0.0504006
-0.0463156
-0.042475
-0.038869
-0.0354867
-0.0323169
-0.0293463
-0.0265643
-0.0239541
-0.021511
-0.0192067
-0.0170588
-0.0150001
-0.0131205
-0.0112277
-0.00963459
-0.00776666
-0.00659503
-0.00443389
-0.00412409
-0.000872906
-0.00264856
0.00372092
-0.244232
-0.234239
-0.223371
-0.215056
-0.206817
-0.198523
-0.190347
-0.182246
-0.174197
-0.166208
-0.158291
-0.150458
-0.142729
-0.135124
-0.127662
-0.120364
-0.11325
-0.106339
-0.0996453
-0.0931852
-0.0869703
-0.0810103
-0.0753122
-0.0698806
-0.0647174
-0.0598223
-0.0551923
-0.0508228
-0.0467072
-0.0428371
-0.0392031
-0.035794
-0.0325989
-0.0296044
-0.0268001
-0.0241689
-0.0217062
-0.0193837
-0.0172187
-0.0151446
-0.0132498
-0.0113452
-0.00973679
-0.00786322
-0.00667089
-0.0045196
-0.00416757
-0.000971124
-0.00263365
0.00353589
-0.246992
-0.236726
-0.225201
-0.216707
-0.20833
-0.199897
-0.191619
-0.18344
-0.175331
-0.167294
-0.159336
-0.151469
-0.143708
-0.136072
-0.12858
-0.121252
-0.114106
-0.107162
-0.100435
-0.0939398
-0.0876892
-0.0816929
-0.0759581
-0.0704897
-0.0652899
-0.0603586
-0.0556932
-0.0512892
-0.0471401
-0.0432377
-0.0395728
-0.0361343
-0.0329113
-0.0298905
-0.0270614
-0.0244069
-0.0219224
-0.0195797
-0.0173957
-0.0153046
-0.0133929
-0.0114751
-0.00984978
-0.00796978
-0.00675473
-0.00461378
-0.00421586
-0.00107806
-0.0026184
0.00333726
-0.249651
-0.239207
-0.227051
-0.218382
-0.209866
-0.201294
-0.192913
-0.184659
-0.176492
-0.16841
-0.160416
-0.152518
-0.14473
-0.137067
-0.129548
-0.122192
-0.115017
-0.108041
-0.101281
-0.0947513
-0.0884645
-0.0824309
-0.0766581
-0.0711512
-0.0659127