/*--------------------------------*- C++ -*----------------------------------*\
  =========                 |
  \\      /  F ield         | OpenFOAM: The Open Source CFD Toolbox
   \\    /   O peration     | Website:  https://openfoam.org
    \\  /    A nd           | Version:  7
     \\/     M anipulation  |
\*---------------------------------------------------------------------------*/
FoamFile
{
    version     2.0;
    format      ascii;
    class       volVectorField;
    location    "20";
    object      U;
}
// * * * * * * * * * * * * * * * * * * * * * * * * * * * * * * * * * * * * * //

dimensions      [0 1 -1 0 0 0 0];

internalField   nonuniform List<vector> 
11300
(
(-0.000941168 0.000699431 -1.86222e-21)
(-0.00466023 0.00148241 -9.07714e-22)
(-0.0110743 0.00183069 -1.46867e-20)
(-0.0180205 0.0018621 1.27183e-20)
(-0.0245872 0.00165553 -3.28064e-21)
(-0.0300468 0.00127379 -1.99208e-20)
(-0.0338265 0.000764814 2.84636e-22)
(-0.0355096 0.000164185 -2.01624e-21)
(-0.0347875 -0.000501351 -1.021e-20)
(-0.0314366 -0.00120977 -2.07527e-20)
(-0.0253132 -0.0019378 5.57149e-21)
(-0.016364 -0.002652 7.66434e-21)
(-0.00470994 -0.00329263 6.34563e-21)
(0.00913866 -0.00376934 1.04521e-20)
(0.0249969 -0.00396222 3.45182e-21)
(-0.00103528 0.00208139 -1.99354e-21)
(-0.0048008 0.00440838 1.54114e-20)
(-0.0111138 0.00544075 2.21119e-20)
(-0.0178552 0.00552876 -3.0753e-20)
(-0.0241298 0.00490771 1.42993e-20)
(-0.0292227 0.00376495 -5.18738e-21)
(-0.0325711 0.00224352 -8.51038e-21)
(-0.0337644 0.000449686 -1.30559e-20)
(-0.0324988 -0.0015367 1.57348e-20)
(-0.0285537 -0.00364997 4.25708e-20)
(-0.0217874 -0.00582093 -5.76101e-20)
(-0.0121462 -0.00795028 1.15985e-21)
(0.000246295 -0.00985988 -9.98069e-21)
(0.0148554 -0.0112789 -3.50064e-21)
(0.0317108 -0.011836 3.9023e-21)
(-0.00121908 0.0034131 -3.18279e-20)
(-0.005072 0.00721876 4.10519e-20)
(-0.0111801 0.00889806 -6.05628e-21)
(-0.0175108 0.00902417 -4.03958e-20)
(-0.0232011 0.0079846 1.16513e-20)
(-0.0275615 0.00608817 2.5791e-20)
(-0.0300483 0.00357075 -4.50989e-20)
(-0.0302642 0.000607809 -2.95059e-20)
(-0.0279142 -0.00266883 8.15907e-20)
(-0.0227837 -0.00615106 -3.24929e-20)
(-0.0147357 -0.0097256 6.14511e-20)
(-0.00371587 -0.01323 -5.35803e-20)
(0.0101471 -0.0163713 -1.98523e-20)
(0.026266 -0.0186998 -7.54163e-20)
(0.0451043 -0.0195557 1.05924e-20)
(-0.0014839 0.00466254 -1.41743e-20)
(-0.00545421 0.00983964 -4.13197e-20)
(-0.0112481 0.0121047 -4.48787e-20)
(-0.0169596 0.0122385 -5.50863e-21)
(-0.0217731 0.0107738 -4.28369e-20)
(-0.0250365 0.00813583 -6.79634e-20)
(-0.0262345 0.00464971 7.74412e-20)
(-0.024989 0.000557642 7.48588e-20)
(-0.0210186 -0.00395844 -9.40803e-20)
(-0.0141182 -0.00874992 -9.93205e-20)
(-0.00415783 -0.0136625 9.49938e-20)
(0.0089162 -0.0184735 -8.82405e-20)
(0.0249682 -0.0227844 4.72108e-20)
(0.0433237 -0.0259682 -2.7973e-20)
(0.0651069 -0.0270123 -1.21008e-20)
(-0.00181701 0.00579985 2.27476e-20)
(-0.00591853 0.0122018 -5.92421e-20)
(-0.0112805 0.0149688 -4.04159e-20)
(-0.0161606 0.0150683 1.45175e-19)
(-0.0198044 0.0131695 3.29408e-20)
(-0.0216083 0.00980691 9.57927e-20)
(-0.0210939 0.00538999 -1.18999e-19)
(-0.0179089 0.000224366 -1.09667e-19)
(-0.0117898 -0.00546036 1.34533e-19)
(-0.00254474 -0.0114776 -1.28041e-19)
(0.00994628 -0.0176356 -9.65114e-20)
(0.0257332 -0.0236575 4.93039e-21)
(0.0446716 -0.029049 1.07361e-19)
(0.0659563 -0.0330128 -2.51099e-20)
(0.0916075 -0.034088 1.39763e-20)
(-0.00220203 0.00679809 1.19337e-19)
(-0.00642747 0.0142421 4.20098e-20)
(-0.0112288 0.0174062 1.0531e-19)
(-0.01506 0.0174192 -1.31917e-19)
(-0.01724 0.0150751 -1.55366e-19)
(-0.0172241 0.0110095 1.85188e-20)
(-0.014579 0.00571013 -4.25195e-20)
(-0.00898376 -0.000458164 1.09792e-19)
(-0.000197732 -0.00722105 8.86491e-20)
(0.0119536 -0.0143567 3.66195e-20)
(0.0275756 -0.0216404 1.07267e-19)
(0.0467105 -0.0287496 3.05407e-20)
(0.0692036 -0.0351038 -1.28899e-19)
(0.0940635 -0.0397523 2.20003e-19)
(0.124449 -0.0406537 -1.16378e-20)
(-0.00261933 0.00763383 -7.30312e-20)
(-0.00693574 0.0159053 -5.62724e-20)
(-0.0110338 0.0193429 1.22998e-19)
(-0.0135915 0.0192076 -5.47451e-20)
(-0.0140121 0.0164056 1.68782e-19)
(-0.0118187 0.0116636 -1.15097e-19)
(-0.00663025 0.00554029 1.08311e-20)
(0.00183678 -0.00154479 -1.5067e-19)
(0.0137952 -0.00927599 -9.04616e-20)
(0.0293972 -0.0173995 7.43613e-20)
(0.0487278 -0.0256623 -4.38966e-20)
(0.0718144 -0.0337047 -6.26766e-20)
(0.0984914 -0.0408738 -9.82286e-20)
(0.127513 -0.0460926 -2.11447e-19)
(0.163422 -0.0465672 2.02298e-19)
(-0.00304658 0.00828764 2.47084e-20)
(-0.0073912 0.0171449 1.0213e-19)
(-0.0106265 0.0207164 -7.90397e-20)
(-0.0116777 0.0203634 2.45256e-20)
(-0.0100407 0.01709 -5.56176e-21)
(-0.00531415 0.0117034 2.39645e-19)
(0.00282349 0.00482501 -4.13174e-20)
(0.0146129 -0.00307622 -6.6287e-20)
(0.0302334 -0.0116469 3.08337e-20)
(0.0498091 -0.0206044 2.01759e-19)
(0.0733968 -0.0296726 -1.01357e-19)
(0.100999 -0.0384637 2.40627e-19)
(0.132438 -0.0462677 2.39349e-19)
(0.166135 -0.0519247 1.67884e-19)
(0.208252 -0.0516729 -1.70428e-19)
(-0.00345923 0.00874443 2.1164e-20)
(-0.00773589 0.0179242 1.21367e-19)
(-0.00992981 0.0214772 9.31443e-20)
(-0.00923054 0.0208313 2.6993e-20)
(-0.00523403 0.0170737 -6.36861e-20)
(0.0023789 0.0110799 -9.2609e-20)
(0.0138643 0.00352586 -2.14271e-19)
(0.0294139 -0.00507614 -1.76822e-19)
(0.0491675 -0.0143387 -1.43131e-19)
(0.0732136 -0.0239537 -9.2239e-20)
(0.101571 -0.0336266 -6.04703e-20)
(0.134204 -0.0429512 9.40793e-20)
(0.170919 -0.0511766 -1.27164e-19)
(0.209717 -0.0571229 -5.82042e-20)
(0.258588 -0.0558029 3.06495e-20)
(-0.00383113 0.00899362 1.39954e-19)
(-0.00790706 0.0182169 -9.56488e-20)
(-0.00885889 0.02159 2.10971e-20)
(-0.00615291 0.0205727 -1.79404e-19)
(0.000509822 0.0163201 2.2608e-19)
(0.0113606 0.00976348 -2.56929e-19)
(0.0265842 0.00162403 -1.06741e-19)
(0.0463173 -0.00754851 3.73887e-19)
(0.0706527 -0.017337 1.86787e-19)
(0.0996337 -0.0274108 -1.45107e-19)
(0.133229 -0.0374615 5.12309e-21)
(0.171347 -0.0470743 7.21464e-20)
(0.21377 -0.0554729 8.50881e-20)
(0.257993 -0.0615444 -2.86078e-19)
(0.313991 -0.0587801 3.1851e-19)
(-0.00413501 0.00902927 1.03773e-19)
(-0.00783834 0.0180075 -9.78343e-21)
(-0.00732302 0.0210344 1.93938e-21)
(-0.00233972 0.0195671 -7.99604e-21)
(0.00730186 0.0148125 -1.16011e-19)
(0.0217404 0.00774554 -2.83969e-21)
(0.0410836 -0.000877111 1.04984e-20)
(0.0654064 -0.0104749 4.95484e-19)
(0.0947456 -0.020605 -2.68035e-19)
(0.129088 -0.0309175 2.27383e-19)
(0.168336 -0.0410942 2.81124e-20)
(0.212318 -0.0507214 -2.96423e-19)
(0.260782 -0.0590114 8.28028e-21)
(0.310637 -0.0650288 3.91645e-20)
(0.373917 -0.0604235 -3.966e-19)
(-0.00434291 0.00884966 -4.04942e-19)
(-0.0074609 0.0172913 -2.08168e-20)
(-0.00522685 0.0198056 -1.23029e-19)
(0.00232043 0.0178125 -3.46123e-20)
(0.0152603 0.0125557 1.13494e-19)
(0.0336349 0.00504078 2.83884e-19)
(0.0574689 -0.00394995 3.17124e-19)
(0.0867677 -0.0138119 -2.18895e-19)
(0.121501 -0.0240815 -1.69015e-21)
(0.161585 -0.0343925 1.56614e-19)
(0.206836 -0.0444209 2.41933e-19)
(0.256974 -0.0537633 -1.76866e-19)
(0.31169 -0.0616323 -3.86348e-20)
(0.367254 -0.0674012 -9.7796e-20)
(0.437705 -0.0605551 2.35592e-19)
(-0.00442642 0.00845743 9.74837e-20)
(-0.00670406 0.0160747 -2.66038e-19)
(-0.00247186 0.0179143 5.42228e-20)
(0.00794341 0.0153266 -3.62286e-20)
(0.0245086 0.00957684 1.71821e-19)
(0.0471653 0.00168845 3.66664e-20)
(0.0758494 -0.00754086 -1.81832e-20)
(0.110487 -0.0174898 1.09703e-19)
(0.150968 -0.0276791 -3.29895e-19)
(0.197118 -0.0377301 2.23477e-19)
(0.248644 -0.0473168 -4.2888e-20)
(0.305127 -0.0560545 3.72364e-19)
(0.366164 -0.0631665 5.8715e-20)
(0.427371 -0.0684751 -2.22491e-19)
(0.50457 -0.0590099 1.29016e-19)
(-0.00435745 0.00785936 6.17745e-20)
(-0.00549659 0.014374 3.29425e-19)
(0.00104227 0.0153871 -2.82977e-19)
(0.0146476 0.0121471 3.051e-19)
(0.0351727 0.00592629 -1.81229e-19)
(0.0624546 -0.00224667 1.80988e-19)
(0.0963331 -0.0115691 -3.24784e-19)
(0.136643 -0.0214111 2.36346e-19)
(0.18318 -0.0312836 5.12402e-19)
(0.235655 -0.0408002 -2.49259e-19)
(0.293639 -0.0496377 -1.36005e-19)
(0.356535 -0.0574375 7.23508e-20)
(0.423796 -0.0634438 -1.70585e-19)
(0.490431 -0.0680591 1.02388e-20)
(0.5736 -0.0556486 -1.84708e-19)
(-0.00410824 0.00706576 9.89387e-20)
(-0.00376761 0.0122159 -2.59309e-21)
(0.00541602 0.0122658 -9.91887e-21)
(0.0225517 0.00833124 -1.67286e-19)
(0.0473779 0.00167762 -1.93634e-19)
(0.0796231 -0.00667393 -2.13198e-19)
(0.119022 -0.0159266 -6.41684e-20)
(0.165305 -0.0254504 -1.06513e-19)
(0.21815 -0.0347541 -4.04561e-20)
(0.277133 -0.0434502 4.30582e-19)
(0.341652 -0.0512236 -2.69634e-19)
(0.410894 -0.0577485 -7.2011e-21)
(0.484102 -0.0623037 -1.46753e-20)
(0.555799 -0.0659669 3.54953e-19)
(0.643766 -0.050379 -8.36169e-20)
(-0.00365157 0.00609025 -1.61286e-19)
(-0.00144741 0.00963642 4.33256e-20)
(0.0107483 0.00860719 4.0924e-20)
(0.0317719 0.00395585 2.51793e-19)
(0.0612458 -0.00307255 -1.35495e-19)
(0.0987839 -0.0114771 -2.3511e-19)
(0.144005 -0.0204783 3.10576e-19)
(0.196519 -0.0294559 -2.65425e-19)
(0.255864 -0.0379258 2.00266e-19)
(0.321446 -0.0455078 -3.17907e-19)
(0.392457 -0.0519036 4.21225e-19)
(0.46783 -0.0568249 1.02408e-19)
(0.546512 -0.059609 4.30531e-19)
(0.622761 -0.0620297 2.1096e-19)
(0.713947 -0.0431829 3.10296e-20)
(-0.00296098 0.00494946 9.14764e-20)
(0.00153174 0.00668065 -2.88797e-19)
(0.017135 0.00448219 3.6237e-19)
(0.0424197 -0.000883606 -2.63345e-19)
(0.0768901 -0.00820549 1.9899e-19)
(0.120038 -0.0165156 1.06605e-19)
(0.171354 -0.0250638 -1.36499e-19)
(0.230307 -0.0332515 7.00969e-20)
(0.296267 -0.0406127 -1.19305e-19)
(0.368437 -0.0467872 9.60191e-20)
(0.445764 -0.0515037 1.44893e-19)
(0.526892 -0.0545158 -4.38943e-20)
(0.610379 -0.055259 -3.75473e-19)
(0.690533 -0.0560895 -6.25424e-20)
(0.782921 -0.0340869 3.04506e-19)
(-0.0020109 0.00366277 7.38179e-20)
(0.00523469 0.00340188 2.06962e-19)
(0.0246666 -2.47951e-05 -3.9717e-19)
(0.0545985 -0.00607403 1.2138e-19)
(0.0944123 -0.0135817 1.14349e-19)
(0.143469 -0.0216263 2.23939e-19)
(0.201115 -0.0295006 -3.14453e-20)
(0.266653 -0.0366406 4.43965e-19)
(0.339255 -0.0426138 -3.16909e-19)
(0.417885 -0.0470955 3.93554e-19)
(0.50121 -0.0498564 -2.07322e-19)
(0.587551 -0.0506968 -3.14202e-20)
(0.675 -0.0492026 2.6837e-21)
(0.758268 -0.047949 2.07778e-20)
(0.849308 -0.0230447 -3.67216e-19)
(-0.000776843 0.00225204 -1.74496e-19)
(0.00972251 -0.000138831 9.31316e-20)
(0.0334269 -0.00481696 -3.01973e-19)
(0.0684005 -0.0114861 6.45601e-19)
(0.113898 -0.0190429 -1.64179e-19)
(0.169137 -0.0266264 -1.65734e-19)
(0.2333 -0.0335868 1.79237e-20)
(0.305497 -0.0394115 6.01286e-20)
(0.384669 -0.0437192 2.20046e-19)
(0.469503 -0.046242 1.16058e-19)
(0.558355 -0.046813 1.07494e-19)
(0.649215 -0.045292 -2.60392e-19)
(0.739678 -0.0414594 2.99271e-19)
(0.825195 -0.0373811 -7.23992e-20)
(0.911767 -0.0102961 5.19746e-20)
(0.000764457 0.000741484 4.93836e-19)
(0.0150516 -0.00387323 1.01273e-19)
(0.0434906 -0.00978609 -3.0462e-20)
(0.0839037 -0.0169759 -2.29597e-19)
(0.13541 -0.0244145 -1.21374e-20)
(0.197072 -0.0313167 2.29135e-19)
(0.267883 -0.0371072 4.65674e-19)
(0.34673 -0.0413434 -5.40895e-19)
(0.432286 -0.043718 -3.93044e-19)
(0.522929 -0.0440467 -1.74635e-19)
(0.616679 -0.0422543 -1.07955e-19)
(0.71121 -0.038291 1.35129e-19)
(0.803739 -0.032144 -6.80612e-19)
(0.890858 -0.0245285 -8.97101e-20)
(0.970364 0.00171124 1.67157e-19)
(0.00263479 -0.000842444 -3.26461e-19)
(0.0212725 -0.00772639 2.89601e-20)
(0.0549213 -0.0148138 1.17824e-19)
(0.101168 -0.0223871 3.72545e-19)
(0.158989 -0.0295087 1.404e-20)
(0.227269 -0.0354862 -2.36777e-19)
(0.304792 -0.0398379 -2.23818e-19)
(0.390186 -0.0422134 1.85177e-19)
(0.481819 -0.0424063 6.16831e-19)
(0.577726 -0.0403475 1.94132e-19)
(0.67558 -0.0360921 4.2992e-19)
(0.77276 -0.0297325 -1.36994e-19)
(0.866304 -0.0214816 2.39695e-21)
(0.954451 -0.0105857 3.5363e-19)
(1.02922 0.00821948 -2.27258e-19)
(0.00485418 -0.00247111 -1.48835e-20)
(0.028429 -0.0116173 -6.15595e-20)
(0.0677692 -0.0197728 -3.26571e-19)
(0.120234 -0.0275531 -1.95883e-19)
(0.184642 -0.0341282 1.54633e-19)
(0.259686 -0.038917 2.02737e-19)
(0.343906 -0.0415533 1.04125e-19)
(0.435638 -0.0418045 -2.03958e-19)
(0.532913 -0.0395951 -1.23569e-19)
(0.633395 -0.0350056 -1.46365e-19)
(0.7344 -0.0282625 -4.23471e-19)
(0.833029 -0.0196556 -3.1916e-19)
(0.926173 -0.00974666 -4.95032e-19)
(1.01284 0.00251327 -2.40987e-19)
(1.08367 0.011598 1.91252e-19)
(0.00744049 -0.00411371 -5.31656e-20)
(0.0365566 -0.0154592 -4.61814e-20)
(0.0820693 -0.0245283 -1.98734e-20)
(0.141117 -0.0322996 -4.81585e-19)
(0.212348 -0.0380694 3.9099e-20)
(0.294236 -0.0413893 -3.5194e-19)
(0.385051 -0.0420329 4.28817e-19)
(0.482804 -0.039914 -3.37408e-19)
(0.585155 -0.0351195 2.38293e-19)
(0.689385 -0.027914 -2.40531e-19)
(0.792458 -0.018728 6.38213e-19)
(0.891229 -0.00808134 4.69133e-20)
(0.982485 0.00312141 -4.6018e-19)
(1.06534 0.0159334 4.37032e-19)
(1.13105 0.0203147 1.0649e-19)
(0.010409 -0.00573734 -1.41951e-19)
(0.0456816 -0.0191606 1.9316e-19)
(0.0978389 -0.0289396 3.56377e-19)
(0.163807 -0.0364473 2.17814e-19)
(0.242045 -0.0411274 2.29282e-19)
(0.330788 -0.0426874 -1.16059e-19)
(0.428002 -0.0410684 -2.02844e-19)
(0.531343 -0.0363609 -1.81952e-19)
(0.638082 -0.0288471 -3.82584e-19)
(0.745115 -0.0190055 1.81479e-19)
(0.849089 -0.00749295 -3.06554e-19)
(0.946668 0.00493764 -1.42504e-20)
(1.03464 0.0171262 -1.33037e-19)
(1.11203 0.0300328 2.16649e-19)
(1.17149 0.0324377 2.94952e-20)
(0.0137718 -0.00730698 5.1208e-20)
(0.055819 -0.0226254 -2.79202e-20)
(0.115076 -0.0328619 -4.07486e-19)
(0.188264 -0.0398153 -2.29409e-19)
(0.273637 -0.0431 -4.02332e-19)
(0.369163 -0.0426058 3.57639e-19)
(0.47248 -0.0384707 -3.95499e-19)
(0.580866 -0.0309943 6.02783e-19)
(0.691192 -0.0206854 2.61478e-19)
(0.799994 -0.00826062 1.65029e-19)
(0.90366 0.00538761 -3.8593e-20)
(0.998758 0.0192896 -5.63323e-20)
(1.08223 0.0321275 1.18725e-19)
(1.15307 0.0447027 2.32187e-19)
(1.20562 0.0462323 -5.03519e-19)
(0.0175373 -0.00878566 3.36722e-19)
(0.0669722 -0.0257543 -3.78282e-19)
(0.133757 -0.0361481 3.03446e-19)
(0.214417 -0.0422239 2.16345e-19)
(0.306985 -0.0437923 3.85405e-19)
(0.409139 -0.0409541 6.89401e-20)
(0.518163 -0.0340761 4.10624e-19)
(0.630942 -0.0236992 -4.50204e-19)
(0.743962 -0.0105866 -6.48396e-20)
(0.85344 0.00429034 -2.0822e-19)
(0.955594 0.019808 -1.51246e-19)
(1.04702 0.0348123 -2.12044e-19)
(1.12495 0.0479197 -5.44924e-20)
(1.18857 0.059768 1.65216e-19)
(1.23387 0.0607747 -3.31214e-19)
(0.0217095 -0.0101346 -9.4622e-20)
(0.0791307 -0.0284453 2.85268e-19)
(0.153836 -0.0386512 -5.23521e-19)
(0.242167 -0.0434981 -1.3274e-19)
(0.341915 -0.0430212 -2.58863e-19)
(0.450449 -0.0375631 -5.81468e-19)
(0.564683 -0.027752 -3.03423e-19)
(0.68111 -0.0144009 1.60927e-19)
(0.795857 0.00145013 9.95389e-20)
(0.904896 0.0185688 -1.07685e-19)
(1.00438 0.0356191 2.94487e-19)
(1.09109 0.0513092 2.70772e-19)
(1.16269 0.0642749 4.05827e-19)
(1.21871 0.0750347 -2.12286e-19)
(1.25669 0.0754884 -4.5498e-20)
(0.0262874 -0.0113136 -1.34716e-19)
(0.0922693 -0.0305954 -1.96877e-20)
(0.175243 -0.040226 2.3605e-19)
(0.271378 -0.043471 -3.09638e-20)
(0.378213 -0.0406198 -8.94884e-20)
(0.492788 -0.0322892 2.51393e-19)
(0.611641 -0.0194011 7.83365e-20)
(0.730889 -0.0030678 -8.15163e-20)
(0.846352 0.015379 1.2511e-19)
(0.953851 0.0344529 3.9435e-19)
(1.04961 0.052638 -4.12148e-19)
(1.13072 0.0685642 -1.08767e-19)
(1.19542 0.0809647 -4.83283e-20)
(1.24373 0.090308 2.78789e-19)
(1.27459 0.0900021 1.98113e-19)
(0.0312644 -0.0122811 2.54878e-19)
(0.106347 -0.0321015 -1.47861e-21)
(0.197882 -0.0407323 1.12213e-19)
(0.301886 -0.0419872 4.20635e-19)
(0.415628 -0.0364416 2.42667e-19)
(0.535815 -0.0250187 -2.15501e-19)
(0.658613 -0.00896452 1.03142e-19)
(0.779795 0.0102878 9.29601e-20)
(0.894949 0.0311108 -4.4953e-19)
(0.999852 0.0517842 -4.46561e-19)
(1.09094 0.0706595 1.4885e-19)
(1.16577 0.0863561 1.49366e-19)
(1.22324 0.0977765 -1.73241e-20)
(1.26397 0.105414 -3.01488e-19)
(1.28808 0.104088 -1.99357e-19)
(0.0366277 -0.0129954 2.71427e-19)
(0.121306 -0.0328624 3.54948e-20)
(0.221635 -0.040037 -2.22176e-19)
(0.333493 -0.0389065 -2.64701e-19)
(0.45388 -0.0303638 8.24298e-20)
(0.579164 -0.0156705 3.14982e-19)
(0.70516 0.0035769 1.52729e-20)
(0.827351 0.0256113 2.23315e-19)
(0.941184 0.0485177 2.04351e-19)
(1.04252 0.0703768 8.58128e-20)
(1.12815 0.0894666 2.49601e-19)
(1.19621 0.10447 -4.49252e-20)
(1.24634 0.114522 1.67939e-19)
(1.2798 0.12021 -1.44721e-19)
(1.29768 0.117617 3.57748e-19)
(0.0423579 -0.0134144 -2.51181e-19)
(0.137073 -0.0327805 -2.59544e-19)
(0.246355 -0.0380173 2.0649e-19)
(0.365976 -0.0341067 1.576e-19)
(0.49266 -0.022291 -2.02153e-19)
(0.622447 -0.00419909 -1.00636e-19)
(0.750841 0.018202 2.2352e-19)
(0.873102 0.0428082 -5.89261e-19)
(0.984646 0.0674392 -5.84944e-20)
(1.08156 0.0900256 1.31268e-19)
(1.1611 0.108841 3.11627e-19)
(1.22211 0.122708 -1.24823e-20)
(1.26498 0.131045 -3.38023e-19)
(1.29161 0.134588 -6.99247e-20)
(1.30388 0.130527 -8.61192e-20)
(0.0484287 -0.0134972 2.20428e-19)
(0.153554 -0.0317637 2.02225e-19)
(0.271876 -0.034563 1.69257e-19)
(0.399084 -0.0274874 1.18951e-21)
(0.531635 -0.0121579 3.80111e-20)
(0.665267 0.00940453 1.06821e-19)
(0.79522 0.0348505 -1.54551e-19)
(0.916624 0.0617485 2.10374e-19)
(1.02498 0.0876895 -1.53911e-19)
(1.11673 0.110516 3.85261e-20)
(1.18975 0.128572 -2.45382e-20)
(1.2436 0.14089 -2.75963e-19)
(1.27947 0.147218 3.05469e-19)
(1.29981 0.148474 -9.29987e-21)
(1.30714 0.142803 1.51663e-20)
(0.0548064 -0.0132044 2.88477e-20)
(0.170641 -0.0297277 -6.70484e-20)
(0.298006 -0.0295796 -1.55051e-19)
(0.432543 -0.018972 1.55983e-19)
(0.570457 6.9044e-05 1.31e-19)
(0.707222 0.0251125 -4.58015e-20)
(0.83788 0.0534253 -3.65778e-19)
(0.957535 0.0822718 5.82463e-20)
(1.0619 0.109065 2.78053e-19)
(1.14791 0.13163 -1.978e-19)
(1.21412 0.148461 -1.96508e-19)
(1.2609 0.158864 1.93986e-19)
(1.29014 0.162943 -2.11497e-20)
(1.30482 0.161821 1.67601e-20)
(1.30787 0.154452 1.29545e-19)
(0.0614503 -0.012499 -1.05876e-19)
(0.188209 -0.0265978 6.91396e-20)
(0.324535 -0.0229908 -1.03396e-19)
(0.466061 -0.00851096 -3.02352e-19)
(0.608769 0.0143899 -2.22374e-19)
(0.747914 0.0428608 5.55479e-20)
(0.878429 0.0737957 6.95706e-20)
(0.9955 0.104192 2.31811e-19)
(1.09519 0.131349 -2.53436e-19)
(1.17502 0.153154 2.21275e-19)
(1.23432 0.168326 -3.93137e-20)
(1.27424 0.176499 1.85191e-19)
(1.29734 0.178148 -1.54795e-19)
(1.30699 0.174602 -1.94665e-20)
(1.30643 0.165501 7.10758e-21)
(0.0683125 -0.0113479 -1.49642e-19)
(0.206117 -0.0223113 -1.65047e-19)
(0.351235 -0.014741 -1.14997e-19)
(0.499333 0.00391699 2.73989e-19)
(0.646207 0.0307709 2.57967e-19)
(0.78696 0.0625503 -2.82652e-19)
(0.916506 0.0958009 -2.74536e-20)
(1.03024 0.127305 -5.94913e-21)
(1.12468 0.154322 8.76948e-20)
(1.19806 0.174885 -1.34025e-19)
(1.25049 0.188005 -7.09607e-20)
(1.28389 0.19369 -5.12224e-20)
(1.30141 0.192782 3.44992e-20)
(1.3067 0.186808 -4.15178e-20)
(1.30315 0.17598 -1.02735e-19)
(0.0753384 -0.0097222 3.79484e-20)
(0.224211 -0.0168194 8.93218e-20)
(0.377864 -0.00479738 7.48442e-20)
(0.532046 0.0183029 -1.85671e-19)
(0.682415 0.0491444 -1.71435e-19)
(0.823997 0.0840497 1.67597e-19)
(0.951794 0.119255 -2.35987e-20)
(1.06152 0.151392 -1.77265e-20)
(1.15029 0.177763 5.37553e-20)
(1.21708 0.196629 -1.50435e-19)
(1.26283 0.207357 2.15819e-20)
(1.29015 0.210351 -3.8164e-20)
(1.30267 0.20681 -1.19198e-20)
(1.30425 0.198437 -1.05775e-20)
(1.29828 0.18592 8.25969e-20)
(0.0824673 -0.00759858 5.50805e-20)
(0.242325 -0.010089 6.07914e-20)
(0.404168 0.00684814 9.48505e-20)
(0.563882 0.0346069 1.64083e-19)
(0.717043 0.0694097 2.48384e-20)
(0.858687 0.107198 3.5082e-20)
(0.984014 0.143951 1.73648e-20)
(1.08918 0.176227 -1.2e-19)
(1.17198 0.201458 1.46189e-19)
(1.23218 0.21821 7.11763e-20)
(1.27154 0.226257 1.13217e-19)
(1.29329 0.226412 2.67502e-20)
(1.30143 0.220209 -2.20581e-20)
(1.29991 0.209494 3.4086e-20)
(1.29206 0.195347 -4.28244e-20)
(0.089633 -0.00495999 6.98087e-21)
(0.260283 -0.0021046 -4.41078e-20)
(0.429888 0.0201777 7.49487e-21)
(0.594525 0.0527581 -2.13388e-20)
(0.749757 0.0914347 5.99669e-21)
(0.890725 0.131807 9.74269e-20)
(1.01294 0.169665 -3.85208e-20)
(1.11311 0.201578 1.23297e-20)
(1.18976 0.225198 -5.16662e-20)
(1.24351 0.239467 -6.5022e-20)
(1.27686 0.244599 -1.09699e-20)
(1.29359 0.24182 1.60374e-20)
(1.29797 0.232964 5.19646e-20)
(1.29394 0.219985 -1.29211e-20)
(1.28466 0.204283 5.28154e-21)
(0.0967644 -0.00179651 -1.48914e-20)
(0.277903 0.00713068 -7.07832e-21)
(0.454761 0.0351466 -3.8078e-20)
(0.623667 0.0726548 -4.13491e-20)
(0.780247 0.115058 -9.12662e-21)
(0.919842 0.157668 -1.74813e-20)
(1.03838 0.196162 2.00778e-20)
(1.13322 0.227217 -9.85247e-21)
(1.20369 0.248786 3.47843e-21)
(1.25123 0.260251 4.21841e-21)
(1.27903 0.262292 5.29299e-20)
(1.29133 0.256531 -4.16575e-21)
(1.29254 0.245062 5.4849e-21)
(1.28654 0.229915 3.58517e-20)
(1.27625 0.212739 -3.33966e-22)
(0.103787 0.00189398 6.15876e-22)
(0.294998 0.0175938 -7.01067e-21)
(0.478527 0.0516829 3.58098e-20)
(0.651014 0.0941655 -2.02298e-20)
(0.808226 0.140091 6.99768e-21)
(0.945808 0.184551 -5.58721e-21)
(1.06021 0.223201 1.95884e-21)
(1.14951 0.252915 2.62005e-21)
(1.21387 0.272037 7.77381e-21)
(1.25553 0.280432 2.11038e-20)
(1.2783 0.279257 -8.62945e-21)
(1.28674 0.270508 -1.67029e-21)
(1.28536 0.256493 -5.28159e-21)
(1.27788 0.239285 -7.12774e-21)
(1.26695 0.220722 -3.31988e-21)
(0.110624 0.00610522 3.32062e-21)
(0.311381 0.0292414 1.35521e-21)
(0.500932 0.0696876 1.78348e-20)
(0.676286 0.117131 -1.41884e-20)
(0.833439 0.166323 4.55759e-21)
(0.968433 0.212214 7.31359e-22)
(1.07833 0.250534 -2.71279e-21)
(1.16199 0.278454 2.21307e-21)
(1.22042 0.294777 1.27957e-20)
(1.25661 0.299891 9.7507e-21)
(1.27488 0.295427 2.47479e-23)
(1.28007 0.283721 -5.00467e-21)
(1.27663 0.267248 -3.43374e-21)
(1.26813 0.248091 -4.95784e-21)
(1.25686 0.228229 -1.44094e-21)
(0.117196 0.0108222 1.48612e-20)
(0.326865 0.0420094 -1.4268e-20)
(0.521731 0.0890355 -2.47975e-20)
(0.699229 0.141364 -3.89641e-20)
(0.855663 0.19352 -1.944e-20)
(0.98757 0.240401 -1.73831e-20)
(1.0927 0.277916 1.05072e-20)
(1.17073 0.303622 1.30403e-20)
(1.2235 0.316845 -3.18852e-21)
(1.25467 0.318523 -6.50383e-21)
(1.26901 0.310741 4.61693e-20)
(1.2715 0.296139 -5.8634e-21)
(1.26653 0.277315 5.37896e-21)
(1.25739 0.256326 1.83683e-20)
(1.24608 0.235254 3.19629e-21)
(0.123426 0.0160209 3.18243e-20)
(0.34127 0.0558131 -2.1793e-20)
(0.540696 0.109576 -2.78512e-20)
(0.719611 0.166658 9.45062e-21)
(0.874713 0.221433 1.2409e-20)
(1.00311 0.268852 6.17217e-20)
(1.10331 0.305102 -1.51884e-20)
(1.17582 0.328215 2.70375e-20)
(1.22326 0.338093 -6.90109e-20)
(1.24992 0.33623 -1.19659e-20)
(1.2609 0.325146 -4.2854e-20)
(1.26125 0.307738 2.89747e-20)
(1.25519 0.286677 7.78059e-21)
(1.24578 0.263976 7.20381e-21)
(1.23466 0.24178 -3.60373e-21)
(0.129236 0.0216682 2.18034e-20)
(0.354425 0.0705482 2.31986e-20)
(0.557614 0.131136 1.00174e-19)
(0.737231 0.192781 1.64276e-19)
(0.89044 0.249801 5.15605e-20)
(1.015 0.297302 -3.66853e-20)
(1.11019 0.331854 1.49935e-20)
(1.17737 0.352043 -1.86852e-20)
(1.2199 0.358385 5.15683e-20)
(1.24257 0.352927 6.68922e-20)
(1.25075 0.338593 3.78923e-20)
(1.24947 0.318488 3.99567e-20)
(1.24276 0.295318 -1.05568e-20)
(1.2334 0.271025 -3.30432e-21)
(1.22269 0.24779 -1.21967e-20)
(0.134553 0.0277223 -8.03872e-20)
(0.366168 0.0860911 1.62246e-19)
(0.572296 0.153521 1.50005e-20)
(0.751918 0.219487 -1.57986e-19)
(0.902733 0.278352 -6.70263e-20)
(1.02319 0.325485 5.86038e-20)
(1.11341 0.357941 1.12673e-20)
(1.17553 0.374924 -1.49112e-20)
(1.21359 0.377593 -3.96036e-20)
(1.23282 0.368536 -3.96012e-20)
(1.23875 0.351035 -4.221e-20)
(1.23632 0.328362 9.23429e-21)
(1.22934 0.303216 -7.80622e-21)
(1.22032 0.277451 2.65311e-21)
(1.21019 0.25326 1.34972e-20)
(0.139306 0.0341326 -9.59504e-20)
(0.376354 0.102301 -9.97039e-20)
(0.584577 0.176517 -7.66125e-20)
(0.763538 0.246514 1.02204e-19)
(0.911521 0.306807 1.74167e-19)
(1.02772 0.353139 -1.40322e-19)
(1.11305 0.383139 4.99657e-21)
(1.17045 0.39669 -9.64556e-21)
(1.20453 0.395603 1.07035e-20)
(1.22088 0.382983 -1.47464e-20)
(1.22508 0.362429 -5.30507e-20)
(1.22195 0.337331 -1.4629e-20)
(1.21505 0.310348 -1.58804e-20)
(1.20661 0.283234 -3.63462e-21)
(1.19723 0.258164 -1.41405e-20)
(0.143431 0.0408404 -7.22696e-21)
(0.384851 0.119022 7.04235e-20)
(0.59432 0.199895 -1.48406e-19)
(0.771987 0.273592 -2.09294e-19)
(0.91677 0.334887 -1.77974e-19)
(1.02862 0.380006 2.1433e-21)
(1.10925 0.407238 1.06596e-19)
(1.1623 0.417183 5.29388e-20)
(1.19292 0.412308 -1.43772e-20)
(1.20691 0.396202 3.6015e-20)
(1.20989 0.372733 1.62639e-20)
(1.20646 0.345365 1.29638e-20)
(1.19996 0.316683 -2.36443e-20)
(1.19234 0.288349 7.11675e-22)
(1.18385 0.262467 4.37224e-21)
(0.14687 0.0477799 1.17594e-19)
(0.391549 0.136082 -1.24419e-19)
(0.601416 0.223414 -1.37458e-19)
(0.777203 0.300441 1.83389e-19)
(0.918484 0.362312 4.6069e-20)
(1.02597 0.405837 -9.43076e-20)
(1.10215 0.430036 -1.2169e-19)
(1.15128 0.436258 -7.29642e-21)
(1.17895 0.427612 1.20938e-19)
(1.19113 0.408132 -5.43947e-20)
(1.19333 0.381908 -2.97298e-20)
(1.19 0.352433 -4.50515e-21)
(1.18417 0.322197 1.33231e-20)
(1.17755 0.292762 1.85344e-21)
(1.17012 0.266153 -2.31087e-22)
(0.149571 0.0548783 1.72881e-19)
(0.396358 0.153301 5.44433e-20)
(0.605787 0.246823 1.36951e-19)
(0.779155 0.326782 -2.58423e-20)
(0.916703 0.388809 5.12634e-20)
(1.01989 0.430393 7.4926e-20)
(1.0919 0.451346 -3.80234e-20)
(1.13758 0.45378 5.22816e-20)
(1.16283 0.441425 -7.09582e-20)
(1.17369 0.418716 5.20014e-20)
(1.17557 0.389913 -1.3278e-20)
(1.17265 0.358504 -6.01571e-20)
(1.16774 0.32686 2.765e-20)
(1.1623 0.296442 -3.66272e-21)
(1.15607 0.269188 -4.89838e-21)
(0.151494 0.0620575 -2.68298e-19)
(0.39921 0.170488 -1.30769e-19)
(0.607387 0.269865 2.32978e-19)
(0.77785 0.352332 1.0362e-19)
(0.911501 0.414109 -1.75601e-19)
(1.01051 0.453446 -9.40942e-20)
(1.0787 0.470991 1.14443e-19)
(1.1214 0.469625 -1.36755e-19)
(1.14474 0.453667 -6.69829e-20)
(1.15477 0.4279 5.37937e-20)
(1.15672 0.396712 3.96793e-20)
(1.15453 0.363547 -6.62e-22)
(1.15076 0.330643 -2.48044e-21)
(1.14665 0.299359 -1.08581e-20)
(1.14173 0.27154 4.33118e-20)
(0.152606 0.0692347 1.31532e-19)
(0.40006 0.187445 1.57979e-20)
(0.606202 0.292282 -1.84504e-19)
(0.77333 0.376816 -2.2073e-19)
(0.902984 0.437954 9.30309e-20)
(0.997987 0.474781 2.77866e-19)
(1.06275 0.488811 -7.08584e-20)
(1.10295 0.483683 8.88061e-20)
(1.12488 0.464263 3.4526e-20)
(1.13453 0.435637 2.18608e-20)
(1.13692 0.402269 -1.24298e-20)
(1.13573 0.36753 1.45467e-20)
(1.13328 0.333516 -2.02614e-20)
(1.13063 0.301484 4.04997e-20)
(1.12714 0.273179 -9.03639e-20)
(0.152884 0.0763237 7.27713e-20)
(0.39889 0.203972 6.61283e-20)
(0.602251 0.313814 1.2843e-19)
(0.765671 0.399963 1.21872e-19)
(0.891287 0.460099 1.40127e-19)
(0.982514 0.494198 -1.45936e-19)
(1.04424 0.504658 1.03748e-19)
(1.08243 0.495852 -1.45881e-21)
(1.10345 0.473149 -4.27491e-20)
(1.11314 0.441882 -4.22988e-20)
(1.1163 0.40655 -1.79278e-20)
(1.11633 0.370424 -8.42655e-21)
(1.11536 0.335451 2.97391e-20)
(1.1143 0.302787 2.11562e-20)
(1.11235 0.274074 8.07121e-20)
(0.152317 0.0832365 -1.20582e-19)
(0.395703 0.219868 1.18276e-20)
(0.595583 0.334209 2.48627e-20)
(0.754981 0.421513 5.98535e-20)
(0.876574 0.480312 -9.37728e-20)
(0.96429 0.511513 6.94708e-20)
(1.0234 0.518398 1.49797e-20)
(1.06007 0.506043 -2.94897e-21)
(1.08063 0.480265 1.74405e-20)
(1.09076 0.446595 -3.58959e-21)
(1.09498 0.409524 1.42917e-20)
(1.09644 0.372202 4.28664e-20)
(1.09709 0.336423 3.05462e-20)
(1.09769 0.303243 -7.8964e-20)
(1.09739 0.274196 -7.93967e-20)
(0.150905 0.0898842 -2.48908e-21)
(0.390528 0.234933 7.68737e-20)
(0.586279 0.35322 -1.22073e-19)
(0.7414 0.441222 -1.45914e-19)
(0.859031 0.498379 -9.78543e-20)
(0.943532 0.526559 -1.12777e-19)
(1.00046 0.529914 -3.89734e-20)
(1.03607 0.514177 -6.0113e-21)
(1.0566 0.485561 -4.99623e-22)
(1.06753 0.44974 2.33197e-20)
(1.07308 0.411163 -7.68677e-20)
(1.07615 0.37284 -7.16626e-20)
(1.07851 0.336408 -5.48096e-20)
(1.08085 0.302826 1.23189e-20)
(1.08229 0.273514 4.68541e-20)
(0.148659 0.0961791 5.28284e-20)
(0.38342 0.248973 -8.33395e-20)
(0.574451 0.370611 1.31193e-19)
(0.72509 0.458857 1.24196e-20)
(0.838868 0.514103 5.47692e-20)
(0.920476 0.539186 5.30483e-20)
(0.975644 0.539101 1.10002e-20)
(1.01065 0.520187 1.44618e-20)
(1.03156 0.488993 -7.07827e-21)
(1.04361 0.451286 1.07729e-19)
(1.05072 0.411444 6.5704e-21)
(1.05554 0.372316 4.56799e-20)
(1.0597 0.33539 3.08225e-20)
(1.0638 0.301516 -2.00612e-20)
(1.06708 0.271997 -5.16383e-20)
(0.145596 0.102034 -5.54435e-20)
(0.374455 0.261802 1.1628e-20)
(0.560233 0.386159 -8.63672e-20)
(0.706243 0.474204 -5.05261e-20)
(0.816318 0.527307 -2.04863e-20)
(0.895368 0.549263 1.43497e-21)
(0.949202 0.545871 -3.60015e-21)
(0.984021 0.524017 -4.66318e-20)
(1.00569 0.490526 -6.61688e-20)
(1.01914 0.45121 -5.82903e-20)
(1.02801 0.410344 9.49467e-21)
(1.03471 0.370613 4.86833e-20)
(1.04072 0.333354 -4.71925e-20)
(1.0466 0.299297 1.16202e-19)
(1.05179 0.269611 2.19119e-19)
(0.141747 0.107362 -3.19103e-20)
(0.363736 0.273243 2.0143e-20)
(0.543791 0.399658 2.78127e-20)
(0.685077 0.487071 3.28503e-20)
(0.791626 0.537836 1.1547e-20)
(0.86846 0.556678 1.88346e-21)
(0.921371 0.550152 6.54053e-21)
(0.956405 0.525623 -4.75816e-21)
(0.979167 0.490131 1.35398e-19)
(0.994271 0.449489 -9.36727e-20)
(1.00507 0.407848 2.58147e-19)
(1.01376 0.367718 -4.75216e-20)
(1.02165 0.330293 1.26105e-19)
(1.02928 0.296159 -1.43021e-19)
(1.03644 0.266318 8.56602e-21)
(0.137157 0.112081 -9.44946e-21)
(0.351385 0.283129 -1.24589e-20)
(0.52531 0.410923 -1.10764e-20)
(0.661826 0.497287 2.17241e-20)
(0.765052 0.545553 8.16641e-21)
(0.840016 0.561339 5.29409e-20)
(0.892395 0.551886 -9.33245e-20)
(0.92801 0.524971 1.53574e-19)
(0.952164 0.487788 -1.16892e-19)
(0.969148 0.446111 6.77562e-20)
(0.982032 0.403943 -2.61793e-19)
(0.99278 0.363621 -9.77156e-20)
(1.00257 0.326202 -2.46421e-19)
(1.01188 0.29209 -2.00717e-19)
(1.02106 0.26208 -8.67234e-20)
(0.131882 0.11612 1.16431e-20)
(0.337538 0.291307 -2.89842e-21)
(0.504999 0.419784 4.22614e-20)
(0.636744 0.504703 3.78228e-20)
(0.736868 0.550347 -1.96043e-20)