/*--------------------------------*- C++ -*----------------------------------*\
  =========                 |
  \\      /  F ield         | OpenFOAM: The Open Source CFD Toolbox
   \\    /   O peration     | Website:  https://openfoam.org
    \\  /    A nd           | Version:  7
     \\/     M anipulation  |
\*---------------------------------------------------------------------------*/
FoamFile
{
    version     2.0;
    format      ascii;
    class       volScalarField;
    location    "13.5";
    object      p;
}
// * * * * * * * * * * * * * * * * * * * * * * * * * * * * * * * * * * * * * //

dimensions      [1 -1 -2 0 0 0 0];

internalField   nonuniform List<scalar> 
4032
(
1
1
1
1
1
1
1
1
1
1
1
1.19196
7.188
10.5805
10.722
10.9303
11.1174
11.2963
11.4618
11.6109
11.7433
11.85
11.9313
11.9909
1
1
1
1
1
1
1
1
1
1
1
1.15722
7.03608
10.5533
10.7076
10.9091
11.0922
11.2665
11.4269
11.5693
11.6937
11.7923
11.8646
11.921
1
1
1
1
1
1
1
1
1
1
1
1.04637
6.71872
10.5066
10.6561
10.8574
11.0426
11.2161
11.3738
11.5108
11.6276
11.7176
11.7768
11.8253
1
1
1
1
1
1
1
1
1
1
1
1.0017
6.22098
10.396
10.5693
10.7655
10.9485
11.1151
11.2668
11.3996
11.5136
11.5998
11.6494
11.687
1
1
1
1
1
1
1
1
1
1
1
1
5.54668
10.2281
10.4698
10.6519
10.8308
10.9887
11.1296
11.2456
11.3362
11.403
11.4379
11.4873
1
1
1
1
1
1
1
1
1
1
1
1
4.71663
9.9752
10.3566
10.5225
10.6881
10.8271
10.9477
11.0466
11.1261
11.1861
11.1985
11.1562
1
1
1
1
1
1
1
1
1
1
1
1
3.7841
9.57916
10.2431
10.401
10.5434
10.651
10.7335
10.7912
10.8105
10.77
10.6961
10.645
1
1
1
1
1
1
1
1
1
1
1
1
2.76973
8.96907
10.1572
10.2919
10.4024
10.476
10.5096
10.5102
10.4594
10.372
10.2304
10.2015
1
1
1
1
1
1
1
1
1
1
1
1
1.75201
8.08245
10.1253
10.1643
10.2528
10.2913
10.2745
10.211
10.0603
9.77931
9.00787
6.97181
1
1
1
1
1
1
1
1
1
1
1
1
1.07571
6.81592
10.0863
9.99145
10.0245
10.0324
9.98267
9.85579
9.61222
9.12632
8.32385
6.25454
1
1
1
1
1
1
1
1
1
1
1
1
1.00039
5.12038
9.49608
9.71836
9.77814
9.74594
9.66754
9.48838
9.18765
8.62784
7.81943
5.90677
1
1
1
1
1
1
1
1
1
1
1
1
0.999993
3.24248
8.78572
9.56917
9.60667
9.55078
9.42902
9.19404
8.83087
8.26231
7.39891
5.84437
1
1
1
1
1
1
1
1
1
1
1
1
0.999998
1.63686
7.76805
9.57464
9.43939
9.31958
9.16105
8.89439
8.50121
7.95348
7.0679
5.8875
1
1
1
1
1
1
1
1
1
1
1
1
1
1.04526
5.972
9.10148
9.12326
9.04685
8.89478
8.62973
8.24767
7.69343
6.8752
5.94874
1
1
1
1
1
1
1
1
1
1
1
1
1
0.999938
3.42055
8.41712
9.02105
8.917
8.74371
8.43627
8.04626
7.4832
6.76679
5.99922
1
1
1
1
1
1
1
1
1
1
1
1
1
0.999979
1.40282
7.315
9.07044
8.79209
8.54735
8.22806
7.81539
7.3129
6.70479
6.04944
1
1
1
1
1
1
1
1
1
1
1
1
1
0.999997
1.01471
5.1749
8.54178
8.46767
8.29319
8.01628
7.64298
7.18651
6.65189
6.07956
1
1
1
1
1
1
1
1
1
1
1
1
1
1
0.999924
2.41112
7.77102
8.40769
8.19782
7.90875
7.54755
7.10951
6.60774
6.09872
1
1
1
1
1
1
1
1
1
1
1
1
1
1
0.99998
1.15001
5.8117
8.26125
8.05238
7.77702
7.43058
7.02248
6.55968
6.11953
1
1
1
1
1
1
1
1
1
1
1
1
1
1
0.999997
1.00159
2.847
7.4464
7.95974
7.67093
7.33744
6.95153
6.54285
6.19099
1
1
1
1
1
1
1
1
1
1
1
1
1
1
1
0.999998
1.24211
5.69048
7.91941
7.58276
7.26836
6.90833
6.62583
6.51246
1
1
1
1
1
1
1
1
1
1
1
1
1
1
1
1
1.0047
2.7008
7.0332
7.46313
7.15805
6.93192
6.94288
7.1635
1
1
1
1
1
1
1
1
1
1
1
1
1
1
1
1
1.00001
1.20915
5.12383
7.41585
7.22346
7.36736
7.76103
8.016
1
1
1
1
1
1
1
1
1
1
1
1
1
1
1
1
1
1.00391
2.23367
6.1919
7.45174
8.23636
8.6041
8.5738
1
1
1
1
1
1
1
1
1
1
1
1
1
1
1
1
1
1.00002
1.11242
3.92857
8.05533
9.48821
9.26556
8.92197
1
1
1
1
1
1
1
1
1
1
1
1
1
1
1
1
1
1
1.00161
1.66105
8.28415
10.3563
9.57456
9.14166
1
1
1
1
1
1
1
1
1
1
1
1
1
1
1
1
1
1
1.00001
1.19771
7.92612
10.5158
9.7557
9.3758
1
1
1
1
1
1
1
1
1
1
1
1
1
1
1
1
1
1
1
1.05509
6.9068
10.3939
9.75815
9.45338
1
1
1
1
1
1
1
1
1
1
1
1
1
1
1
1
1
1
1
1.00188
5.96421
10.2508
9.81665
9.63222
1
1
1
1
1
1
1
1
1
1
1
1
1
1
1
1
1
1
1
1.00001
5.13298
9.9122
9.88448
9.68537
1
1
1
1
1
1
1
1
1
1
1
1
1
1
1
1
1
1
1
1
4.27753
9.62889
9.92891
9.7058
1
1
1
1
1
1
1
1
1
1
1
1
1
1
1
1
1
1
1
1
3.51623
9.37285
10.0187
9.76939
1
1
1
1
1
1
1
1
1
1
1
1
1
1
1
1
1
1
1
1
2.84968
9.10408
10.13
9.82554
1
1
1
1
1
1
1
1
1
1
1
1
1
1
1
1
1
1
1
1
2.33367
8.80782
10.2318
9.88771
1
1
1
1
1
1
1
1
1
1
1
1
1
1
1
1
1
1
1
1
1.9758
8.51759
10.2989
9.93762
1
1
1
1
1
1
1
1
1
1
1
1
1
1
1
1
1
1
1
1
1.70671
8.25737
10.3319
9.96901
1
1
1
1
1
1
1
1
1
1
1
1
1
1
1
1
1
1
1
1
1.54522
8.02195
10.3429
9.98728
1
1
1
1
1
1
1
1
1
1
1
1
1
1
1
1
1
1
1
1
1.45773
7.84251
10.3326
9.99577
1
1
1
1
1
1
1
1
1
1
1
1
1
1
1
1
1
1
1
1
1.40295
7.72058
10.3213
10.0036
1
1
1
1
1
1
1
1
1
1
1
1
1
1
1
1
1
1
1
1
1.37796
7.65644
10.2985
9.99727
1.97583
2.1996
2.70037
3.14577
3.33897
3.42661
3.48313
3.51997
3.52837
3.52433
3.51177
3.49835
3.47804
3.4465
3.40651
3.35406
3.29216
3.23664
3.20463
3.19709
3.19327
3.1716
3.15474
3.16242
3.19367
3.25943
3.35013
3.46058
3.57907
3.70156
3.83051
3.96202
4.09247
4.21857
4.33714
4.44493
4.5403
4.62402
4.69549
4.75072
4.78792
4.80646
4.80898
4.80017
4.77488
4.73677
4.69421
4.65388
4.6168
4.57786
4.5261
4.45797
4.38534
4.32264
4.27977
4.25561
4.22894
4.21044
4.22942
4.31138
4.46593
4.63156
4.71966
4.72606
4.69122
4.63719
4.56303
4.49911
4.45825
4.40549
4.34015
4.26861
4.19374
4.13379
4.08787
4.05873
4.0296
3.99806
3.96115
3.92282
3.89851
3.88456
3.87768
3.87053
3.86079
3.84163
3.82432
3.82666
3.83655
3.84869
3.85294
3.84925
3.83551
3.83345
3.83766
3.84547
3.3107
3.40089
3.29358
3.34405
3.42971
3.4839
3.52831
3.53799
3.52635
3.51023
3.49317
3.47875
3.46059
3.43426
3.39878
3.3539
3.3016
3.25108
3.21104
3.18599
3.16935
3.14656
3.13625
3.14901
3.18155
3.23939
3.31909
3.4183
3.53066
3.65391
3.78373
3.91418
4.04025
4.16192
4.27906
4.38976
4.4901
4.57473
4.63986
4.68785
4.72375
4.74907
4.76148
4.7641
4.76091
4.7392
4.6895
4.62859
4.57653
4.53874
4.50469
4.44562
4.36291
4.28357
4.22704
4.21129
4.21972
4.23031
4.25889
4.32498
4.44404
4.58403
4.68621
4.72967
4.71864
4.66405
4.58172
4.50167
4.44218
4.39797
4.34627
4.28685
4.21539
4.14144
4.09099
4.05862
4.03802
4.01414
3.98555
3.94806
3.90664
3.88133
3.8736
3.87265
3.86897
3.86038
3.84045
3.81743
3.81451
3.82633
3.8418
3.85002
3.85387
3.85304
3.85783
3.86562
3.9617
3.89685
3.44487
3.29859
3.36424
3.41683
3.44037
3.43201
3.43217
3.43255
3.42373
3.41873
3.41075
3.39163
3.36042
3.32133
3.28353
3.25001
3.21898
3.18867
3.15861
3.13255
3.11979
3.13648
3.17684
3.24213
3.32365
3.41637
3.52066
3.64051
3.77639
3.91987
4.05336
4.17384
4.28313
4.38802
4.49245
4.59045
4.67051
4.72212
4.74771
4.76039
4.76454
4.76001
4.75596
4.75655
4.73123
4.66433
4.59011
4.53339
4.4994
4.47016
4.40896
4.33085
4.25741
4.22042
4.21459
4.24038
4.28543
4.33959
4.41742
4.52417
4.6288
4.69071
4.70966
4.67507
4.60962
4.51503
4.42843
4.37029
4.32205
4.27394
4.22083
4.15866
4.09299
4.04285
4.01665
3.99933
3.98492
3.96897
3.94076
3.8985
3.8628
3.85422
3.8607
3.87292
3.87905
3.87018
3.84257
3.81924
3.82364
3.84048
3.86326
3.87915
3.88833
3.89401
4.37801
4.30333
3.80685
3.58298
3.61983
3.58931
3.51032
3.46063
3.44605
3.45527
3.44383
3.42928
3.41314
3.40741
3.38551
3.34338
3.28971
3.23856
3.20289
3.18188
3.16791
3.15185
3.13524
3.13539
3.1631
3.22201
3.30584
3.40669
3.51698
3.62454
3.7386
3.8729
4.01265
4.14399
4.25689
4.34733
4.4276
4.50709
4.58619
4.65536
4.69588
4.71025
4.71346
4.70721
4.6983
4.7034
4.69995
4.64407
4.55777
4.48513
4.44161
4.41223
4.36774
4.32859
4.28343
4.24952
4.24776
4.2733
4.31931
4.35936
4.39846
4.46952
4.56382
4.64685
4.67169
4.63427
4.58368
4.50372
4.42144
4.35242
4.29635
4.24728
4.20218
4.155
4.10011
4.04216
3.99514
3.96497
3.94843
3.93927
3.92719
3.90438
3.86701
3.8332
3.82242
3.83209
3.85086
3.86044
3.8545
3.83583
3.83274
3.84301
3.85601
3.86909
3.87767
3.87894
4.74756
4.62083
4.17832
3.81745
3.80187
3.69351
3.54466
3.48016
3.49165
3.54384
3.56525
3.55254
3.48511
3.45109
3.43244
3.41712
3.37047
3.29388
3.22338
3.18188
3.17124
3.17488
3.17755
3.17536
3.18132
3.21345
3.28189
3.38297
3.49705
3.60447
3.69279
3.79689
3.93504
4.08256
4.21932
4.32322
4.39869
4.47209
4.55133
4.62902
4.6796
4.69016
4.68695
4.67797
4.66479
4.66206
4.64846
4.60321
4.5363
4.47496
4.44565
4.4127
4.382
4.36025
4.33485
4.3187
4.32328
4.34653
4.38119
4.39516
4.39705
4.40513
4.45473
4.5333
4.61322
4.63543
4.59625
4.51425
4.4235
4.3423
4.28376
4.24022
4.20136
4.15867
4.11034
4.0551
4.00055
3.96293
3.94035
3.92687
3.91654
3.90204
3.87785
3.84907
3.83009
3.82258
3.82428
3.82773
3.82373
3.81545
3.82465
3.842
3.86194
3.8791
3.88973
3.89187
5.06807
4.86163
4.47101
4.0266
3.91702
3.82872
3.67418
3.5771
3.62862
3.77589
3.76662
3.75335
3.6931
3.54745
3.46726
3.4355
3.42857
3.3913
3.31637
3.24074
3.18796
3.18246
3.19468
3.19255
3.18454
3.20223
3.2603
3.35263
3.45038
3.54677
3.63359
3.7309
3.86674
3.99455
4.10809
4.2092
4.29232
4.3753
4.45631
4.52208
4.57104
4.6068
4.63197
4.62851
4.60376
4.58832
4.58224
4.56257
4.52326
4.46425
4.4029
4.37066
4.36406
4.37447
4.38937
4.40001
4.40564
4.41608
4.42634
4.41148
4.38072
4.34648
4.33943
4.3657
4.44888
4.53144
4.56255
4.52978
4.43752
4.32735
4.24358
4.19799
4.1723
4.1464
4.11041
4.05367
3.9902
3.94617
3.92227
3.90815
3.89871
3.88841
3.87183
3.84962
3.83041
3.82051
3.82051
3.82516
3.82559
3.81938
3.8229
3.83895
3.86072
3.88493
3.89807
3.90142
5.28405
5.03944
4.66907
4.22057
3.99715
3.92105
3.81114
3.77018
3.8925
4.20301
4.28179
4.14056
4.00745
3.82409
3.61703
3.51336
3.49734
3.50466
3.44373
3.36084
3.29773
3.28038
3.26673
3.23038
3.19714
3.20097
3.23415
3.28674
3.34803
3.42259
3.51543
3.62977
3.77311
3.90076
4.01508
4.13495
4.25445
4.3484
4.40726
4.45324
4.50338
4.55551
4.57967
4.56775
4.53343
4.5166
4.51811
4.51401
4.48874
4.43949
4.3847
4.37137
4.38408
4.43152
4.48326
4.49688
4.48833
4.46913
4.44094
4.40081
4.35458
4.30766
4.26435
4.24041
4.26602
4.31891
4.37645
4.41913
4.40439
4.34217
4.26141
4.19153
4.14373
4.11289
4.08243
4.03669
3.98241
3.94154
3.91479
3.89686
3.88534
3.87692
3.86367
3.84254
3.82168
3.81176
3.81403
3.82236
3.82962
3.83132
3.82871
3.8389
3.85471
3.8765
3.89477
3.90237
5.45152
5.16168
4.81655
4.40539
4.11125
4.04167
4.05265
4.13486
4.38398
4.78496
4.93033
4.70157
4.40757
4.17309
3.91678
3.7217
3.66916
3.68159
3.62884
3.52556
3.4553
3.43481
3.39336
3.31465
3.27475
3.25532
3.24184
3.25135
3.28835
3.33706
3.3934
3.47953
3.6056
3.74807
3.87353
4.02085
4.16839
4.25295
4.30867
4.35689
4.41146
4.46937
4.49211
4.48239
4.4504
4.43894
4.44872
4.4583
4.44607
4.42424
4.4128
4.42637
4.46365
4.52787
4.57021
4.56668
4.53556
4.48551
4.43618
4.38504
4.3308
4.2761
4.21903
4.16001
4.1228
4.13079
4.18249
4.23992
4.28997
4.30974
4.27682
4.21533
4.1512
4.09249
4.04368
3.99724
3.9526
3.93361
3.91738
3.90088
3.88506
3.87101
3.85473
3.82957
3.81069
3.80917
3.81754
3.83266
3.84307
3.84904
3.8449
3.84394
3.85464
3.86936
3.89121
3.90523
5.55321
5.24458
4.94296
4.59855
4.3502
4.39653
4.56213
4.74314
4.96778
5.24024
5.36944
5.20555
4.86199
4.55586
4.29377
4.02487
3.87222
3.84173
3.80054
3.69398
3.6072
3.57298
3.53466
3.4414
3.3778
3.34319
3.28663
3.26322
3.27403
3.28779
3.30584
3.35324
3.44187
3.57802
3.71553
3.8808
4.05331
4.13744
4.19747
4.25675
4.31785
4.37701
4.39911
4.39206
4.3642
4.36485
4.38857
4.423
4.43563
4.45141
4.47815
4.51782
4.5582
4.59838
4.61573
4.59763
4.55234
4.49125
4.42946
4.36906
4.30746
4.24738
4.18506
4.11621
4.05145
4.02144
4.03259
4.07627
4.14871
4.20913
4.22017
4.2075
4.16196
4.10756
4.0459
3.98298
3.93338
3.91746
3.90893
3.90243
3.89152
3.8775
3.8583
3.82748
3.80672
3.8077
3.8181
3.84013
3.85803
3.86533
3.86456
3.85712
3.85968
3.86847
3.88258
3.90476
5.61886
5.32895
5.12387
4.91809
4.84504
5.01965
5.15291
5.25463
5.36773
5.52125
5.62278
5.49813
5.24153
4.9424
4.69682
4.43655
4.16744
4.02968
3.99041
3.91338
3.79735
3.72478
3.68919
3.6106
3.50909
3.45807
3.38127
3.32126
3.30198
3.28085
3.27103
3.26943
3.30172
3.39441
3.53449
3.70861
3.90287
4.0002
4.06943
4.14583
4.22371
4.28932
4.30973
4.29785
4.2793
4.3019
4.34643
4.40399
4.46303
4.51902
4.56806
4.60722
4.62621
4.62755
4.62097
4.59003
4.54007
4.48015
4.41436
4.3455
4.27671
4.21027
4.14465
4.07621
4.01808
3.97093
3.95913
3.96759
4.00504
4.07161
4.11658
4.13363
4.13451
4.10883
4.06842
4.01008
3.94676
3.90802
3.89594
3.89314
3.89328
3.88499
3.8708
3.84826
3.82383
3.81776
3.82265
3.83926
3.86302
3.87621
3.8803
3.87806
3.87401
3.8764
3.88274
3.89973
5.70619
5.54846
5.55275
5.52831
5.55773
5.61302
5.58307
5.62438
5.69624
5.77767
5.83621
5.73943
5.55847
5.29707
5.03486
4.79754
4.52021
4.27078
4.1787
4.13937
4.03266
3.9042
3.84109
3.77848
3.65854
3.57836
3.50732
3.4209
3.36797
3.31535
3.26183
3.23096
3.23925
3.27691
3.36451
3.5071
3.69609
3.82899
3.91128
4.00688
4.10868
4.19106
4.22156
4.21568
4.21988
4.26061
4.32251
4.40819
4.51051
4.59918
4.65085
4.66755
4.65648
4.62525
4.59727
4.55352
4.50082
4.44621
4.38551
4.31674
4.24403
4.17025
4.09864
4.03424
3.98642
3.94877
3.92317
3.90977
3.90216
3.91446
3.96283
4.01622
4.05273
4.07189
4.06304
4.03723
3.99067
3.93021
3.89287
3.88008
3.87803
3.88043
3.878
3.87122
3.85897
3.84338
3.83664
3.84094
3.85582
3.87822
3.89131
3.89565
3.89591
3.89223
3.89225
3.90058
5.9623
6.07551
6.19278
6.19086
6.13597
5.96391
5.87478
5.91598
5.98789
6.03443
6.05315
5.96937
5.82588
5.62023
5.35318
5.09923
4.84942
4.57421
4.39865
4.33689
4.26309
4.12831
3.98532
3.91017
3.81295
3.69488
3.62297
3.53511
3.45331
3.38191
3.29381
3.2314
3.21778
3.23049
3.27876
3.3443
3.45904
3.60706
3.71665
3.8378
3.96275
4.06521
4.13503
4.16187
4.19965
4.26555
4.34874
4.44599
4.54606
4.63102
4.67809
4.67643
4.65156
4.60535
4.56129
4.50563
4.44844
4.39592
4.34233
4.28047
4.21202
4.1377
4.06446
4.00332
3.95939
3.92538
3.89359
3.86917
3.84631
3.83116
3.81935
3.8539
3.92231
3.97124
4.00878
4.02497
4.0089
3.96906
3.91668
3.8758
3.86236
3.86145
3.87217
3.8831
3.88325
3.87539
3.86042
3.85166
3.85551
3.87096
3.89494
3.90708
3.91073
3.90961
3.906
3.90958
6.59135
6.80894
6.80748
6.69832
6.50994
6.24485
6.13827
6.17778
6.2374
6.25643
6.25097
6.18831
6.06806
5.89971
5.66972
5.40422
5.16147
4.90414
4.67184
4.55014
4.4776
4.35343
4.17275
4.03814
3.95899
3.83941
3.7407
3.6524
3.54532
3.4587
3.37005
3.2862
3.24512
3.2288
3.23362
3.25598
3.29705
3.37541
3.48842
3.62749
3.78714
3.90728
4.02261
4.12059
4.20678
4.31481
4.41396
4.49473
4.55774
4.61309
4.65147
4.65218
4.62341
4.56892
4.50908
4.44904
4.39312
4.34307
4.29142
4.23248
4.17255
4.11001
4.04631
3.98619
3.93607
3.89296
3.85767
3.82677
3.7979
3.77117
3.74845
3.7394
3.77026
3.83799
3.89881
3.94652
3.97389
3.96741
3.94267
3.90281
3.87263
3.86179
3.864
3.87915
3.89141
3.89219
3.88359
3.87292
3.87105
3.87727
3.89345
3.9128
3.92025
3.92266
3.92207
3.92334
7.37239
7.36376
7.18904
7.00183
6.7935
6.54978
6.44629
6.44929
6.46496
6.4578
6.4323
6.37518
6.27102
6.13487
5.96051
5.71485
5.46257
5.22423
4.96917
4.77879
4.66828
4.55358
4.38546
4.19008
4.08191
3.98338
3.86116
3.75949
3.64573
3.53397
3.44457
3.36487
3.30122
3.24751
3.21423
3.20026
3.21126
3.25799
3.32332
3.42793
3.58566
3.73729
3.89893
4.07479
4.22775
4.36293
4.46388
4.51982
4.54503
4.56812
4.58665
4.59199
4.56362
4.51006
4.45269
4.39691
4.34075
4.28795
4.23246
4.175
4.12673
4.07813
4.02657
3.97494
3.92228
3.86653
3.81897
3.78264
3.75106
3.71899
3.69972
3.68624
3.67925
3.70099
3.76004
3.8263
3.87815
3.92063
3.94286
3.93296
3.91334
3.89237
3.87585
3.87482
3.88513
3.89414
3.89483
3.89377
3.89583
3.89721
3.90149
3.91124
3.92367
3.93065
3.9341
3.93692
8.02111
7.74987
7.45034
7.22912
7.04916
6.86676
6.74502
6.6999
6.67091
6.65479
6.61179
6.53953
6.44047
6.33194
6.20616
6.00826
5.74633
5.49523
5.25123
5.01844
4.85674
4.73848
4.59062
4.39059
4.20429
4.10501
3.99039
3.87071
3.76043
3.64391
3.54312
3.45139
3.36894
3.28875
3.21927
3.1813
3.16518
3.18372
3.22265
3.26935
3.38376
3.56092
3.77352
4.01658
4.20694
4.3448
4.45961
4.52014
4.53232
4.5279
4.52047
4.52123
4.4836
4.42745
4.38632
4.34928
4.30347
4.24417
4.16048
4.11193
4.07985
4.03927
3.99911
3.96133
3.91667
3.85835
3.79807
3.75695
3.72201
3.68952
3.66668
3.65369
3.64132
3.61961
3.63398
3.69017
3.76522
3.83236
3.8961
3.94085
3.95156
3.94488
3.92487
3.90349
3.8943
3.89877
3.90205
3.909
3.91807
3.92029
3.91947
3.91913
3.92584
3.93724
3.94505
3.94826
8.37657
8.03519
7.71861
7.49562
7.33825
7.18871
7.02855
6.92311
6.86836
6.84219
6.78815
6.69886
6.5963
6.50499
6.40384
6.24707
6.00452
5.72755
5.49356
5.27532
5.06951
4.91299
4.77037
4.58942
4.36612
4.20294
4.10257
3.99024
3.87456
3.75948
3.64322
3.52981
3.42485
3.32609
3.24338
3.18437
3.15262
3.15779
3.1841
3.23605
3.32275
3.47336
3.67664
3.90913
4.12397
4.26061
4.38152
4.45416
4.46458
4.44564
4.44229
4.41621
4.35348
4.32663
4.32559
4.30959
4.26846
4.20389
4.10987
4.03846
4.01032
3.99695
3.97735
3.94613
3.90613
3.84748
3.7681
3.70293
3.67528
3.66382
3.64985
3.6304
3.61056
3.59088
3.5764
3.59625
3.65524
3.73614
3.82243
3.89657
3.94006
3.96419
3.97083
3.96151
3.94271
3.93243
3.92598
3.92203
3.922
3.92587
3.93046
3.9363
3.94587
3.95784
3.96613
3.96472
8.60973
8.26331
7.95724
7.74774
7.60807
7.47924
7.30367
7.15358
7.07867
7.03488
6.97096
6.86363
6.74143
6.65195
6.56318
6.42896
6.21882
5.94682
5.7026
5.51216
5.31077
5.09997
4.92346
4.75185
4.55052
4.33742
4.20449
4.11102
4.00235
3.88332
3.75325
3.6107
3.4796
3.37824
3.29979
3.24015
3.20072
3.19835
3.21919
3.25562
3.34017
3.48041
3.64321
3.81182
4.00262
4.13085
4.24449
4.34129
4.35962
4.33888
4.33432
4.30087
4.23714
4.2045
4.20801
4.21605
4.19288
4.14782
4.07297
3.99457
3.96138
3.93377
3.904
3.87745
3.84891
3.80749
3.74168
3.68538
3.65221
3.62682
3.6103
3.59759
3.59089
3.58253
3.57163
3.57416
3.59903
3.65785
3.74094
3.8326
3.90064
3.94785
3.97384
3.98384
3.98573
3.98112
3.97144
3.94983
3.93882
3.93887
3.94049
3.9457
3.9538
3.96447
3.97514
3.97117
8.84863
8.51815
8.22389
8.01555
7.87222
7.74317
7.55541
7.36827
7.28194
7.22986
7.15842
7.03727
6.89427
6.7943
6.71134
6.59274
6.40566
6.16175
5.91478
5.7144
5.53168
5.3147
5.07983
4.88491
4.7109
4.52067
4.33349
4.21125
4.10846
3.99237
3.86437
3.70831
3.53905
3.42219
3.35895
3.31768
3.29536
3.30086
3.31164
3.34967
3.43519
3.53022
3.6253
3.72844
3.85811
3.96568
4.03119
4.12481
4.18781
4.20635
4.22527
4.20477
4.14835
4.09975
4.09037
4.09788
4.09011
4.0668
4.01837
3.96022
3.92411
3.88866
3.85099
3.81554
3.78292
3.74979
3.72304
3.69354
3.65674
3.62108
3.59696
3.58427
3.57749
3.58201
3.58161
3.5787
3.58529
3.61032
3.66527
3.74638
3.83199
3.90485
3.95699
3.98387
3.9964
3.99487
3.99125
3.98406
3.97723
3.97421
3.96513
3.95918
3.95943
3.96424
3.96553
3.95979
9.05715
8.72461
8.45947
8.26742
8.13274
8.00912
7.81689
7.60481
7.48765
7.41866
7.33533
7.19521
7.0309
6.90583
6.82484
6.72818
6.56918
6.35728
6.12677
5.90313
5.70697
5.51265
5.2767
5.02395
4.84073
4.68431
4.51212
4.33865
4.19013
4.06216
3.94686
3.81372
3.66949
3.52943
3.46307
3.44312
3.46087
3.48046
3.47788
3.50517
3.53815
3.57782
3.63031
3.68182
3.7268
3.77338
3.80104
3.86255
3.95532
4.02156
4.08451
4.09799
4.07065
4.01336
3.98052
3.97832
3.98278
3.96978
3.94145
3.91689
3.89021
3.85322
3.81024
3.76186
3.72398
3.7051
3.69366
3.68377
3.66635
3.63803
3.60626
3.59288
3.58536
3.5839
3.59033
3.59062
3.5917
3.59969
3.62286
3.67002
3.74097
3.82443
3.90283
3.95988
3.99098
4.00164
4.00236
4.00025
3.99881
4.00309
3.99715
3.98425
3.97134
3.95538
3.9453
3.93201
9.20129
8.99002
8.74372
8.52266
8.36172
8.22842
8.02037
7.79642
7.66406
7.59586
7.52124
7.36969
7.18395
7.02087
6.92574
6.84325
6.71347
6.52798
6.3067
6.0882
5.85703
5.65422
5.45413
5.22194
4.97699
4.80289
4.649
4.4774
4.31698
4.15074
3.98933
3.87792
3.79091
3.7071
3.65848
3.66346
3.69248
3.69259
3.66073
3.64198
3.63334
3.63142
3.63158
3.62881
3.62374
3.62522
3.62198
3.63745
3.72771
3.82124
3.90082
3.95331
3.95833
3.92829
3.89637
3.89772
3.89711
3.86951
3.85062
3.85138
3.84652
3.82131
3.78358
3.73012
3.68656
3.66971
3.66239
3.66416
3.65636
3.64409
3.62412
3.60282
3.59275
3.58772
3.59495
3.61391
3.61706
3.61715
3.62396
3.64258
3.67729
3.73281
3.80981
3.88687
3.94022
3.98552
4.0007
4.00521
4.00979
4.0163
4.01421
4.0023
3.98443
3.96091
3.94004
3.91831
9.41917
9.19178
8.94942
8.74611
8.59111
8.45304
8.23263
7.99759
7.84233
7.75138
7.66088
7.51538
7.32712
7.14416
7.03587
6.9635
6.85918
6.70354
6.49408
6.29342
6.07614
5.82619
5.64125
5.44318
5.17843
4.9083
4.73077
4.61858
4.48106
4.3078
4.13297
3.99298
3.93742
3.91348
3.90915
3.94235
3.94373
3.90431
3.83142
3.7603
3.68743
3.63469
3.59882
3.5711
3.54234
3.51677
3.50787
3.50038
3.55153
3.64574
3.69946
3.77235
3.81194
3.81608
3.81855
3.83605
3.82805
3.78924
3.76114
3.76082
3.77051
3.76911
3.7499
3.71197
3.66433
3.64454
3.63803
3.64512
3.65308
3.64679
3.63573
3.61703
3.60259
3.59852
3.60305
3.62261
3.64603
3.65329
3.65503
3.65406
3.65929
3.67739
3.71495
3.77891
3.85006
3.91191
3.966
3.99829
4.02534
4.0342
4.03003
4.01577
3.99239
3.96661
3.94335
3.91754
9.49571
9.28735
9.09378
8.93153
8.76683
8.56712
8.33478
8.13228
7.9864
7.87894
7.79643
7.67152
7.46697
7.26465
7.13171
7.05086
6.94636
6.79221
6.58144
6.36459
6.17298
5.97047
5.74767
5.53615
5.33526
5.10671
4.882
4.67735
4.5399
4.44631
4.33066
4.23311
4.19221
4.17184
4.17906
4.18719
4.15352
4.07316
3.94461
3.83146
3.74207
3.65693
3.58735
3.5323
3.47707
3.43261
3.41942
3.41119
3.43092
3.50229
3.53713
3.58223
3.64597
3.68784
3.72713
3.76436
3.76068
3.72314
3.68149
3.6762
3.68744
3.70403
3.7027
3.6859
3.6499
3.62606
3.61892
3.62384
3.63843
3.64217
3.63917
3.62859
3.61738
3.61785
3.62387
3.64028
3.66888
3.68691
3.68885
3.68208
3.66496
3.65657
3.66635
3.69625
3.75555
3.82468
3.89704
3.95921
4.01559
4.03427
4.03231
4.01738
3.99136
3.96876
3.94935
3.92163
9.55786
9.38641
9.21433
9.05029
8.87161
8.66705
8.45918
8.27706
8.1314
8.01521
7.90318
7.73333
7.51798
7.32285
7.17325
7.07608
6.98249
6.8384
6.65051
6.45024
6.27333
6.07965
5.85757
5.62425
5.38822
5.18006
4.99603
4.82265
4.70889
4.62841
4.54774
4.5225
4.49701
4.45648
4.42391
4.35847
4.26211
4.13583
4.02015
3.90901
3.80025
3.6899
3.59068
3.50476
3.43022
3.38525
3.35404
3.33694
3.34381
3.38753
3.41803
3.42907
3.47933
3.54438
3.61309
3.67106
3.67787
3.65212
3.6062
3.597
3.60782
3.63575
3.65082
3.64749
3.62618
3.60313
3.59745
3.60143
3.62061
3.6358
3.64013
3.63808
3.63697
3.64181
3.6502
3.66992
3.70109
3.71951
3.71963
3.70639
3.67766
3.65925
3.6582
3.66892
3.70202
3.75844
3.82568
3.89228
3.95861
3.9996
4.00786
4.00416
3.99187
3.97846
3.96368
3.9341
9.63196
9.46026
9.29026
9.11393
8.93055
8.7363
8.54332
8.36965
8.22253
8.09858
7.9663
7.78671
7.58911
7.40279
7.24763
7.14337
7.04552
6.89951
6.72265
6.53092
6.34848
6.15228
5.9358
5.71945
5.49897
5.29826
5.1412
5.00523
4.93733
4.89377
4.87991
4.84164
4.78411
4.70187
4.58312
4.45447
4.3207
4.18749
4.06503
3.94922
3.83254
3.71722
3.60798
3.50617
3.42258
3.36096
3.30965
3.28552
3.28612
3.30766
3.32767
3.32402
3.33334
3.39274
3.46891
3.55033
3.57823
3.57282
3.53422
3.51852
3.5326
3.56856
3.59891
3.60364
3.59494
3.57385
3.57105
3.57894
3.60457
3.63305
3.64553
3.65148
3.65798
3.6669
3.67941
3.70386
3.73222
3.74423
3.74126
3.72037
3.68989
3.67773
3.67355
3.67677
3.69236
3.71776
3.75359
3.80358
3.85861
3.91033
3.94688
3.9733
3.99053
3.98784
3.97704
3.94483
9.67741
9.50477
9.33739
9.15701
8.97271
8.7867
8.6059
8.44546
8.30336
8.1673
8.00956
7.82312
7.62454
7.43921
7.29005
7.18907
7.06788
6.90928
6.73388
6.55682
6.3843
6.21413
6.02221
5.8339
5.64054
5.46878
5.35067
5.24732
5.23148
5.19618
5.16028
5.09617
4.98143
4.8319
4.68311
4.5322
4.37475
4.22309
4.08454
3.95979
3.84369
3.73624
3.63499
3.53725
3.44222
3.35314
3.287
3.25807
3.24658
3.24549
3.24754
3.24009
3.21853
3.25118
3.31762
3.40486
3.46877
3.4838
3.46938
3.4511
3.4661
3.50501
3.54539
3.55785
3.55878
3.54929
3.55484
3.57335
3.60828
3.63933
3.65852
3.6728
3.68492
3.69807
3.71699
3.73917
3.75335
3.75621
3.74644
3.72261
3.70938
3.70597
3.70364
3.70172
3.69872
3.69673
3.70136
3.71868
3.75114
3.80301
3.8597
3.91549
3.96502
3.97951
3.97491
3.94511
9.7249
9.54128
9.36168
9.18165
9.00389
8.82537
8.65745
8.50113
8.34547
8.17928
7.99243
7.79775
7.62644
7.48075
7.37077
7.25228
7.08654
6.902
6.72252
6.5618
6.41515
6.26796
6.11321
5.96098
5.78949
5.67841
5.60854
5.59136
5.55883
5.45152
5.34714
5.2198
5.06057
4.89976
4.74727
4.59065
4.42381
4.2539
4.09468
3.96064
3.85091
3.75549
3.66453
3.57134
3.47177
3.36817
3.28504
3.23811
3.21012
3.19272
3.1818
3.17219
3.14893
3.14546
3.18853
3.25526
3.33451
3.38543
3.40158
3.4028
3.41792
3.45071
3.48999
3.51034
3.52057
3.53396
3.5579
3.59273
3.63168
3.65781
3.67745
3.69525
3.71464
3.7402
3.76693
3.77796
3.77946
3.76897
3.74445
3.72945
3.72863
3.73761
3.74051
3.73152
3.7187
3.69705
3.67363
3.67268
3.6825
3.71646
3.76555
3.82665
3.89581
3.92771
3.94491
3.9296
9.76441
9.57536
9.3914
9.20936
9.02865
8.848
8.67657
8.50609
8.33415
8.16152
7.99543
7.84111
7.69135
7.55522
7.42467
7.24844
7.06376
6.89039
6.74141
6.60746
6.48796
6.34383
6.20123
6.08145
6.02326
6.00165
5.94857
5.88747
5.77788
5.63807
5.44891
5.26075
5.08801
4.92834
4.7773
4.62224
4.45755
4.28456
4.11575
3.97235
3.86152
3.77049
3.68557
3.59716
3.50069
3.39714
3.29792
3.2228
3.18025
3.1527
3.13318
3.12106
3.10774
3.08859
3.09405
3.13566
3.19814
3.2677
3.32543
3.3611
3.38764
3.41426
3.43886
3.46195
3.48745
3.52346
3.57044
3.6215
3.6557
3.67661
3.69448
3.71788
3.75597
3.79531
3.80784
3.80962
3.80146
3.77279
3.74461
3.73905
3.7466
3.76681
3.77098
3.75946
3.7415
3.70945
3.67341
3.65498
3.64859
3.65519
3.67993
3.72214
3.78659
3.83757
3.88273
3.8987
9.79623
9.6048
9.41854
9.23242
9.04666
8.86241
8.68026
8.4961
8.3142
8.14209
7.98478
7.8425
7.70457
7.5711
7.41104
7.22994
7.0617
6.92494
6.81127
6.7158
6.61086
6.50592
6.41699
6.33924
6.28059
6.22576
6.16651
6.07686
5.93197
5.72541
5.50399
5.28767
5.09895
4.93414
4.78169
4.63233
4.48049
4.31926
4.15056
3.99425
3.86612
3.76823
3.68838
3.61401
3.53519
3.4387
3.32365
3.22246
3.16144
3.12863
3.10565
3.08897
3.07158
3.05782
3.04477
3.04903
3.08904
3.14875
3.22445
3.30275
3.35533
3.3779
3.39193
3.41971
3.4598
3.51806
3.59396
3.64768
3.67638
3.69446
3.71181
3.74182
3.79231
3.83293
3.84267
3.84121
3.81579
3.77149
3.75841
3.75664
3.76741
3.79203
3.79271
3.7793
3.75493
3.71672
3.68294
3.66056
3.64198
3.62594
3.6238
3.6381
3.67681
3.73484
3.78986
3.8463
9.81647
9.62466
9.43693
9.2464
9.0557
8.86525
8.67362
8.48134
8.29414
8.12177
7.96574
7.82523
7.69282
7.55388
7.38587
7.21928
7.07526
6.97304
6.91301
6.86714
6.81526
6.75451
6.66739
6.57123
6.47636
6.38911
6.30284
6.15535
5.97419
5.75559
5.52916
5.30944
5.11092
4.93674
4.78222
4.63739
4.49198
4.33896
4.18
4.02535
3.88826
3.77774
3.69149
3.61309
3.53374
3.44822
3.34775
3.24245
3.15652
3.11234
3.09143
3.0742
3.05567
3.03735
3.01985
3.00788
3.01949
3.0675
3.13622
3.22076
3.28738
3.32388
3.35475
3.39154
3.4446
3.52295
3.60994
3.65498
3.67953
3.70259
3.72856
3.76325
3.81084
3.84718
3.8561
3.8502
3.82048
3.79547
3.78554
3.78051
3.78742
3.79872
3.79547
3.77996
3.75164
3.71927
3.69321
3.67099
3.6485
3.62756
3.60689
3.59958
3.60856
3.63994
3.68243
3.76019
9.82963
9.63917
9.45037
9.25663
9.06086
8.86349
8.66561
8.46874
8.27913
8.10198
7.94012
7.79393
7.65673
7.51383
7.36863
7.23222
7.12299
7.05532
7.03406
7.02516
6.99974
6.95714
6.87226
6.78889
6.66772
6.52157
6.34836
6.16184
5.9557
5.7385
5.53067
5.33142
5.14131
4.95854
4.78598
4.62905
4.47648
4.33013
4.19663
4.06769
3.93712
3.80687
3.69191
3.60207
3.51756
3.43448
3.35791
3.27821
3.19575
3.1212
3.06582
3.02546
3.00047
2.99212
2.99567
2.99555
2.98847
3.00975
3.05823
3.12699
3.20046
3.26653
3.32934
3.39459
3.46151
3.53488
3.60468
3.65991
3.69662
3.72648
3.754
3.78208
3.81151
3.82858
3.8361
3.83237
3.8269
3.82328
3.81771
3.81456
3.81516
3.80552
3.78971
3.76177
3.73491
3.72009
3.70255
3.68223
3.65961
3.6346
3.60838
3.58476
3.56957
3.56843
3.58101
3.647
9.8399
9.64983
9.4598
9.26419
9.06507
8.86442
8.66411
8.46503
8.2733
8.08952
7.91654
7.75514
7.60576
7.47083
7.35754
7.26729
7.20349
7.16915
7.16162
7.16092
7.1228
7.05688
6.98815
6.91912
6.78438
6.60311
6.3823
6.14312
5.91349
5.70658
5.52084
5.34708
5.17598
4.99373
4.79804
4.61077
4.4522
4.31811
4.2016
4.09424
3.98446
3.86099
3.7197
3.58998
3.4941
3.41724
3.35036
3.29042
3.22467
3.14466
3.06167
3.00407
2.9824
2.97281
2.97139
2.97443
2.97143
2.97642
3.01266
3.0685
3.14033
3.22372
3.31064
3.39731
3.47543
3.54312
3.60045
3.65322
3.70334
3.74194
3.77135
3.79018
3.79826
3.79768
3.79834
3.8057
3.81981
3.83446
3.84509
3.84816
3.83774
3.81469
3.77627
3.73845
3.72118
3.71076
3.70605
3.69088
3.67137
3.64805
3.61758
3.57935
3.54823
3.52702
3.51809
3.55601
9.84028
9.65232
9.46308
9.26735
9.06684
8.86538
8.66412
8.46453
8.27045
8.07936
7.89453
7.71832
7.56013
7.434
7.34626
7.29457
7.27421
7.26647
7.25629
7.242
7.21419
7.17315
7.12306
7.04787
6.88589
6.66294
6.40537
6.1188
5.87658
5.68643
5.51521
5.35763
5.20135
5.01636
4.78951
4.57483
4.42161
4.30885
4.21124
4.11697
4.01304
3.8744
3.70121
3.55106
3.46207
3.40216
3.35276
3.30787
3.25321
3.15612
3.0357
2.98629
2.96716
2.95652
2.95829
2.96434
2.96813
2.95697
2.97808
3.02334
3.0947
3.19054
3.29565
3.39575
3.48202
3.54663
3.60001
3.6609
3.72493
3.76045
3.77753
3.7821
3.77625
3.77775
3.78579
3.79737
3.82014
3.85765
3.87856
3.87132
3.8523
3.81375
3.75722
3.72668
3.71226
3.7023
3.70492
3.69892
3.6818
3.66075
3.62683
3.57876
3.53729
3.50969
3.49012
3.50442
)
;

boundaryField
{
    inlet
    {
        type            fixedValue;
        value           uniform 1;
    }
    outlet
    {
        type            zeroGradient;
    }
    bottom
    {
        type            symmetryPlane;
    }
    top
    {
        type            symmetryPlane;
    }
    obstacle
    {
        type            zeroGradient;
    }
    defaultFaces
    {
        type            empty;
    }
}


// ************************************************************************* //
