/*--------------------------------*- C++ -*----------------------------------*\
  =========                 |
  \\      /  F ield         | OpenFOAM: The Open Source CFD Toolbox
   \\    /   O peration     | Website:  https://openfoam.org
    \\  /    A nd           | Version:  7
     \\/     M anipulation  |
\*---------------------------------------------------------------------------*/
FoamFile
{
    version     2.0;
    format      ascii;
    class       volScalarField;
    location    "13.5";
    object      rho;
}
// * * * * * * * * * * * * * * * * * * * * * * * * * * * * * * * * * * * * * //

dimensions      [1 -3 0 0 0 0 0];

internalField   nonuniform List<scalar> 
4032
(
1.40001
1.40001
1.40001
1.40001
1.40001
1.40001
1.40001
1.40001
1.40001
1.40001
1.40001
1.5095
4.25095
5.46044
5.51431
5.59064
5.65678
5.71848
5.77503
5.82669
5.87375
5.91231
5.94181
5.96333
1.40001
1.40001
1.40001
1.40001
1.40001
1.40001
1.40001
1.40001
1.40001
1.40001
1.40001
1.48925
4.18839
5.44915
5.50883
5.58281
5.64749
5.70751
5.76233
5.81171
5.85606
5.89183
5.91818
5.93856
1.40001
1.40001
1.40001
1.40001
1.40001
1.40001
1.40001
1.40001
1.40001
1.40001
1.40001
1.42892
4.07485
5.43496
5.49026
5.56349
5.62894
5.68878
5.74276
5.7904
5.83221
5.86507
5.88677
5.90433
1.40001
1.40001
1.40001
1.40001
1.40001
1.40001
1.40001
1.40001
1.40001
1.40001
1.40001
1.40133
3.87665
5.39765
5.45884
5.52916
5.59382
5.6515
5.70365
5.74995
5.79093
5.82261
5.841
5.85484
1.40001
1.40001
1.40001
1.40001
1.40001
1.40001
1.40001
1.40001
1.40001
1.40001
1.40001
1.40001
3.59577
5.33788
5.4222
5.48683
5.55015
5.60498
5.6535
5.69378
5.72641
5.75184
5.76635
5.78569
1.40001
1.40001
1.40001
1.40001
1.40001
1.40001
1.40001
1.40001
1.40001
1.40001
1.40001
1.40001
3.24206
5.2517
5.38396
5.44156
5.49933
5.54675
5.58744
5.62107
5.64952
5.67382
5.68481
5.67696
1.40001
1.40001
1.40001
1.40001
1.40001
1.40001
1.40001
1.40001
1.40001
1.40001
1.40001
1.40001
2.83144
5.12834
5.36153
5.40905
5.45351
5.48624
5.51086
5.52858
5.53485
5.52229
5.50394
5.49651
1.40001
1.40001
1.40001
1.40001
1.40001
1.40001
1.40001
1.40001
1.40001
1.40001
1.40001
1.40001
2.36232
4.95659
5.37741
5.39506
5.41773
5.43154
5.43386
5.42884
5.40803
5.37485
5.31351
5.2745
1.40001
1.40001
1.40001
1.40001
1.40001
1.40001
1.40001
1.40001
1.40001
1.40001
1.40001
1.40001
1.86228
4.70764
5.41372
5.38169
5.38845
5.38127
5.35963
5.32694
5.2635
5.1542
4.83716
3.88305
1.40001
1.40001
1.40001
1.40001
1.40001
1.40001
1.40001
1.40001
1.40001
1.40001
1.40001
1.40001
1.46109
4.1933
5.38947
5.3398
5.33461
5.31205
5.27097
5.20817
5.10276
4.90735
4.57416
3.65038
1.40001
1.40001
1.40001
1.40001
1.40001
1.40001
1.40001
1.40001
1.40001
1.40001
1.40001
1.40001
1.40031
3.44696
5.14913
5.24429
5.25723
5.2285
5.1771
5.08902
4.95475
4.72108
4.38382
3.55968
1.40001
1.40001
1.40001
1.40001
1.40001
1.40001
1.40001
1.40001
1.40001
1.40001
1.40001
1.40001
1.4
2.61938
4.92901
5.20362
5.20153
5.17236
5.10983
4.99873
4.8362
4.59201
4.22724
3.56292
1.40001
1.40001
1.40001
1.40001
1.40001
1.40001
1.40001
1.40001
1.40001
1.40001
1.40001
1.40001
1.4
1.82456
4.65011
5.23708
5.16552
5.10239
5.02507
4.90298
4.72809
4.48883
4.108
3.59201
1.40001
1.40001
1.40001
1.40001
1.40001
1.40001
1.40001
1.40001
1.40001
1.40001
1.40001
1.40001
1.4
1.43722
3.86841
5.07656
5.06086
5.01715
4.94099
4.81884
4.64836
4.40528
4.04833
3.63515
1.40001
1.40001
1.40001
1.40001
1.40001
1.40001
1.40001
1.40001
1.40001
1.40001
1.40001
1.40001
1.40001
1.39989
2.74223
4.87663
5.04648
4.99291
4.90653
4.76431
4.58856
4.34024
4.02392
3.67732
1.40001
1.40001
1.40001
1.40001
1.40001
1.40001
1.40001
1.40001
1.40001
1.40001
1.40001
1.40001
1.40001
1.39998
1.69715
4.54523
5.10582
4.97642
4.85543
4.70435
4.51565
4.28966
4.01768
3.71977
1.40001
1.40001
1.40001
1.40001
1.40001
1.40001
1.40001
1.40001
1.40001
1.40001
1.40001
1.40001
1.40001
1.4
1.4124
3.5721
4.92031
4.87697
4.78338
4.64584
4.46918
4.25854
4.01506
3.75229
1.40001
1.40001
1.40001
1.40001
1.40001
1.40001
1.40001
1.40001
1.40001
1.40001
1.40001
1.40001
1.40001
1.4
1.39992
2.2774
4.73033
4.88137
4.78071
4.63856
4.46376
4.2562
4.02095
3.78207
1.40001
1.40001
1.40001
1.40001
1.40001
1.40001
1.40001
1.40001
1.40001
1.40001
1.40001
1.40001
1.40001
1.40001
1.39998
1.52106
3.89582
4.85374
4.7533
4.61765
4.44871
4.25166
4.02995
3.81769
1.40001
1.40001
1.40001
1.40001
1.40001
1.40001
1.40001
1.40001
1.40001
1.40001
1.40001
1.40001
1.40001
1.40001
1.4
1.40134
2.52463
4.6311
4.74057
4.60448
4.44179
4.25408
4.05497
3.88101
1.40001
1.40001
1.40001
1.40001
1.40001
1.40001
1.40001
1.40001
1.40001
1.40001
1.40001
1.40001
1.40001
1.40001
1.4
1.4
1.5907
3.89253
4.76535
4.60356
4.44658
4.26862
4.12537
4.04981
1.40001
1.40001
1.40001
1.40001
1.40001
1.40001
1.40001
1.40001
1.40001
1.40001
1.40001
1.40001
1.40001
1.40001
1.40001
1.4
1.40407
2.47088
4.52474
4.58271
4.43675
4.31095
4.29821
4.37079
1.40001
1.40001
1.40001
1.40001
1.40001
1.40001
1.40001
1.40001
1.40001
1.40001
1.40001
1.40001
1.40001
1.40001
1.40001
1.4
1.40002
1.5672
3.68201
4.60906
4.49945
4.54269
4.69199
4.76972
1.40001
1.40001
1.40001
1.40001
1.40001
1.40001
1.40001
1.40001
1.40001
1.40001
1.40001
1.40001
1.40001
1.40001
1.40001
1.40001
1.40001
1.40346
2.22895
4.18387
4.67613
4.97675
5.10309
5.06015
1.40001
1.40001
1.40001
1.40001
1.40001
1.40001
1.40001
1.40001
1.40001
1.40001
1.40001
1.40001
1.40001
1.40001
1.40001
1.40001
1.40001
1.40002
1.49304
3.12786
5.02729
5.5703
5.45813
5.28255
1.40001
1.40001
1.40001
1.40001
1.40001
1.40001
1.40001
1.40001
1.40001
1.40001
1.40001
1.40001
1.40001
1.40001
1.40001
1.40001
1.40001
1.40001
1.40148
1.88143
5.10433
5.93098
5.60426
5.40749
1.40001
1.40001
1.40001
1.40001
1.40001
1.40001
1.40001
1.40001
1.40001
1.40001
1.40001
1.40001
1.40001
1.40001
1.40001
1.40001
1.40001
1.40001
1.40001
1.51896
4.6959
5.83632
5.56821
5.45398
1.40001
1.40001
1.40001
1.40001
1.40001
1.40001
1.40001
1.40001
1.40001
1.40001
1.40001
1.40001
1.40001
1.40001
1.40001
1.40001
1.40001
1.40001
1.40001
1.43137
4.16844
5.58443
5.38418
5.33545
1.40001
1.40001
1.40001
1.40001
1.40001
1.40001
1.40001
1.40001
1.40001
1.40001
1.40001
1.40001
1.40001
1.40001
1.40001
1.40001
1.40001
1.40001
1.40001
1.40131
3.76055
5.39516
5.25668
5.24057
1.40001
1.40001
1.40001
1.40001
1.40001
1.40001
1.40001
1.40001
1.40001
1.40001
1.40001
1.40001
1.40001
1.40001
1.40001
1.40001
1.40001
1.40001
1.40001
1.40002
3.41723
5.23269
5.22975
5.17268
1.40001
1.40001
1.40001
1.40001
1.40001
1.40001
1.40001
1.40001
1.40001
1.40001
1.40001
1.40001
1.40001
1.40001
1.40001
1.40001
1.40001
1.40001
1.40001
1.40001
3.06
5.14404
5.24594
5.16438
1.40001
1.40001
1.40001
1.40001
1.40001
1.40001
1.40001
1.40001
1.40001
1.40001
1.40001
1.40001
1.40001
1.40001
1.40001
1.40001
1.40001
1.40001
1.40001
1.40001
2.72847
5.10167
5.29818
5.20088
1.40001
1.40001
1.40001
1.40001
1.40001
1.40001
1.40001
1.40001
1.40001
1.40001
1.40001
1.40001
1.40001
1.40001
1.40001
1.40001
1.40001
1.40001
1.40001
1.40001
2.41138
5.0418
5.36792
5.24694
1.40001
1.40001
1.40001
1.40001
1.40001
1.40001
1.40001
1.40001
1.40001
1.40001
1.40001
1.40001
1.40001
1.40001
1.40001
1.40001
1.40001
1.40001
1.40001
1.40001
2.14626
4.93802
5.42487
5.29001
1.40001
1.40001
1.40001
1.40001
1.40001
1.40001
1.40001
1.40001
1.40001
1.40001
1.40001
1.40001
1.40001
1.40001
1.40001
1.40001
1.40001
1.40001
1.40001
1.40001
1.9515
4.81584
5.4495
5.31075
1.40001
1.40001
1.40001
1.40001
1.40001
1.40001
1.40001
1.40001
1.40001
1.40001
1.40001
1.40001
1.40001
1.40001
1.40001
1.40001
1.40001
1.40001
1.40001
1.40001
1.80412
4.70898
5.4489
5.31184
1.40001
1.40001
1.40001
1.40001
1.40001
1.40001
1.40001
1.40001
1.40001
1.40001
1.40001
1.40001
1.40001
1.40001
1.40001
1.40001
1.40001
1.40001
1.40001
1.40001
1.71215
4.61052
5.43871
5.30472
1.40001
1.40001
1.40001
1.40001
1.40001
1.40001
1.40001
1.40001
1.40001
1.40001
1.40001
1.40001
1.40001
1.40001
1.40001
1.40001
1.40001
1.40001
1.40001
1.40001
1.66147
4.53554
5.42377
5.29666
1.40001
1.40001
1.40001
1.40001
1.40001
1.40001
1.40001
1.40001
1.40001
1.40001
1.40001
1.40001
1.40001
1.40001
1.40001
1.40001
1.40001
1.40001
1.40001
1.40001
1.63081
4.48757
5.41409
5.29414
1.40001
1.40001
1.40001
1.40001
1.40001
1.40001
1.40001
1.40001
1.40001
1.40001
1.40001
1.40001
1.40001
1.40001
1.40001
1.40001
1.40001
1.40001
1.40001
1.40001
1.61618
4.46117
5.40377
5.29023
1.49882
1.51903
1.64098
1.74672
1.76106
1.75844
1.76495
1.77821
1.78951
1.80264
1.81411
1.82208
1.82393
1.81817
1.80636
1.78857
1.76684
1.74719
1.73634
1.73503
1.73576
1.73012
1.72611
1.73289
1.7508
1.7822
1.82334
1.87252
1.92473
1.97886
2.03687
2.09696
2.1575
2.21711
2.27443
2.32795
2.37672
2.4207
2.45899
2.48965
2.51234
2.52717
2.53479
2.53678
2.53223
2.52222
2.50993
2.49804
2.48679
2.47416
2.45605
2.43114
2.40409
2.38044
2.36404
2.35477
2.34474
2.33851
2.34637
2.37942
2.44106
2.50615
2.54028
2.54307
2.52969
2.50866
2.47966
2.45446
2.43805
2.41688
2.39077
2.36215
2.33206
2.30783
2.28925
2.27753
2.26597
2.25351
2.23891
2.22388
2.21489
2.21042
2.20905
2.20764
2.20542
2.1996
2.19437
2.1965
2.20199
2.20822
2.21093
2.21083
2.20686
2.2073
2.21067
2.21617
2.21082
2.13451
1.95673
1.88107
1.83823
1.80444
1.79351
1.79036
1.79038
1.79637
1.80483
1.81234
1.8152
1.81178
1.80196
1.78699
1.76864
1.75031
1.73566
1.72676
1.72141
1.71428
1.71188
1.71972
1.73746
1.76604
1.80382
1.85
1.90153
1.95738
2.01666
2.0778
2.13866
2.19905
2.25893
2.3171
2.37135
2.41968
2.46
2.49254
2.51899
2.53972
2.55353
2.56142
2.56527
2.56124
2.54564
2.52466
2.50664
2.49361
2.48134
2.45846
2.42552
2.39367
2.37091
2.36442
2.36776
2.37202
2.38344
2.40994
2.45757
2.51273
2.55208
2.56845
2.56363
2.54172
2.50884
2.47657
2.45206
2.43335
2.41163
2.38692
2.35748
2.32708
2.30611
2.29247
2.28365
2.27356
2.26163
2.24626
2.22962
2.22006
2.218
2.21871
2.21849
2.21654
2.20992
2.20183
2.20161
2.20774
2.21535
2.22008
2.223
2.2239
2.22715
2.23243
2.62564
2.51053
2.18673
2.01005
1.93805
1.87206
1.81994
1.78389
1.77338
1.77542
1.78059
1.78953
1.79534
1.79437
1.78631
1.77346
1.76006
1.74749
1.73555
1.72367
1.71214
1.70284
1.69891
1.70751
1.72782
1.75973
1.79958
1.84547
1.89796
1.95864
2.02756
2.10178
2.17364
2.24151
2.30656
2.37109
2.4362
2.49893
2.55378
2.59574
2.62501
2.64632
2.66117
2.66934
2.6744
2.67889
2.67207
2.64685
2.61699
2.59384
2.57907
2.56519
2.53701
2.50157
2.46855
2.45056
2.4468
2.45596
2.47319
2.49467
2.52569
2.5675
2.60719
2.63039
2.63364
2.61863
2.59039
2.54981
2.51184
2.48489
2.46195
2.43931
2.41503
2.38741
2.35849
2.33563
2.32248
2.31318
2.3052
2.29676
2.28366
2.26542
2.25023
2.24657
2.24929
2.25451
2.25758
2.25465
2.2443
2.23574
2.23847
2.24685
2.25736
2.26469
2.26933
2.27309
2.88263
2.79981
2.51196
2.32213
2.24283
2.12517
1.9981
1.90267
1.84652
1.82248
1.8092
1.80442
1.80208
1.8042
1.79957
1.78595
1.76674
1.74835
1.73576
1.72882
1.72527
1.72251
1.72107
1.72724
1.74682
1.78184
1.82941
1.88623
1.94991
2.01635
2.08946
2.17334
2.25964
2.34172
2.41578
2.48064
2.54167
2.60206
2.6611
2.71374
2.75103
2.77436
2.79062
2.80023
2.80534
2.81265
2.81447
2.79314
2.75522
2.7218
2.70068
2.68476
2.66064
2.63783
2.61231
2.59164
2.58858
2.59655
2.61386
2.62956
2.64456
2.67215
2.70762
2.73925
2.74221
2.72284
2.69754
2.65942
2.61949
2.58438
2.55481
2.5286
2.50449
2.48002
2.45278
2.42394
2.39917
2.38178
2.37082
2.36287
2.35436
2.34145
2.32268
2.30585
2.29964
2.30209
2.30881
2.31302
2.31083
2.30348
2.30273
2.30792
2.31388
2.31962
2.32358
2.32439
3.0871
3.00196
2.76644
2.54776
2.49372
2.37277
2.22001
2.10108
2.02113
1.9727
1.93577
1.90709
1.87218
1.8566
1.84991
1.84591
1.83103
1.80608
1.78508
1.77681
1.78135
1.79396
1.80913
1.8246
1.84551
1.88008
1.93254
2.00076
2.07599
2.1502
2.21919
2.29633
2.38725
2.47996
2.56564
2.63489
2.69017
2.74257
2.79587
2.84757
2.88553
2.90391
2.91495
2.92221
2.92573
2.92993
2.92751
2.91031
2.88059
2.85082
2.8356
2.81843
2.80034
2.7849
2.7666
2.75381
2.75278
2.75901
2.77174
2.77615
2.775
2.77585
2.79345
2.82337
2.85309
2.85296
2.83217
2.79135
2.7451
2.70228
2.66918
2.64317
2.61975
2.59494
2.56807
2.53825
2.50828
2.48551
2.4704
2.45912
2.44931
2.43831
2.42322
2.40643
2.39463
2.38819
2.38595
2.38576
2.38343
2.37964
2.38364
2.39107
2.39965
2.40706
2.41158
2.41187
3.24168
3.13908
2.94571
2.72033
2.63932
2.56362
2.44293
2.33546
2.28802
2.27279
2.19851
2.13945
2.08842
2.01269
1.97262
1.95929
1.95984
1.95124
1.93173
1.91636
1.91189
1.92668
1.9525
1.97492
1.99578
2.02872
2.08116
2.14953
2.21928
2.28681
2.35125
2.41944
2.5051
2.58589
2.65778
2.72152
2.7736
2.82254
2.86795
2.90636
2.93816
2.96375
2.98309
2.98816
2.98452
2.9822
2.98173
2.97516
2.95877
2.93134
2.90198
2.88546
2.88016
2.88195
2.8842
2.88516
2.88422
2.88518
2.88725
2.8795
2.86365
2.84383
2.83785
2.84668
2.88014
2.91351
2.91787
2.89937
2.85292
2.79674
2.75231
2.72519
2.70774
2.69058
2.66855
2.63697
2.60266
2.57654
2.56034
2.54877
2.53915
2.52965
2.51785
2.50345
2.49074
2.48267
2.47878
2.47776
2.47663
2.473
2.47394
2.48007
2.48921
2.4998
2.50521
2.50561
3.34869
3.23163
3.05506
2.83816
2.72163
2.66968
2.59399
2.54474
2.5687
2.66575
2.63164
2.51702
2.42965
2.32483
2.2175
2.16829
2.16364
2.17041
2.15134
2.12992
2.12103
2.13031
2.142
2.14439
2.14886
2.17022
2.20644
2.25036
2.29718
2.34762
2.40666
2.47591
2.55926
2.63415
2.70135
2.76856
2.83243
2.88264
2.91449
2.93926
2.96656
2.99748
3.01351
3.01129
3.00079
2.99629
2.99789
2.99684
2.98652
2.9644
2.93825
2.93063
2.93592
2.95656
2.97828
2.98203
2.97533
2.96389
2.94868
2.92853
2.90531
2.88052
2.85859
2.84388
2.8544
2.87701
2.89903
2.91369
2.90403
2.86964
2.82786
2.79124
2.76474
2.74605
2.72758
2.70169
2.67168
2.6482
2.6315
2.61889
2.60949
2.60186
2.59235
2.57883
2.56578
2.5584
2.55622
2.55684
2.55834
2.5583
2.55615
2.55966
2.56599
2.57554
2.58334
2.58533
3.44132
3.30066
3.13502
2.93673
2.79413
2.74745
2.74531
2.77127
2.86955
3.04018
3.05214
2.93387
2.78334
2.65866
2.52517
2.43003
2.40742
2.41416
2.39119
2.34934
2.32914
2.33166
2.32335
2.29498
2.28762
2.29043
2.29577
2.31041
2.33843
2.3724
2.40886
2.4595
2.53005
2.60873
2.67838
2.75692
2.83281
2.87699
2.90602
2.93033
2.95752
2.98917
3.00362
3.00064
2.98876
2.98519
2.99032
2.99503
2.98956
2.97964
2.97331
2.97956
2.99691
3.0271
3.04489
3.04239
3.0257
2.99978
2.97484
2.94954
2.92251
2.89463
2.86547
2.83647
2.81556
2.81823
2.8417
2.86803
2.88989
2.89396
2.87606
2.84435
2.81134
2.78033
2.75381
2.72867
2.70414
2.69208
2.68179
2.67125
2.66094
2.65171
2.64152
2.62676
2.61548
2.61364
2.61533
2.62011
2.62364
2.62576
2.6231
2.62196
2.62613
2.63242
2.64221
2.6472
3.50676
3.35573
3.20816
3.03906
2.91784
2.93705
3.01172
3.09162
3.18639
3.30781
3.33795
3.25566
3.08941
2.93881
2.80845
2.67713
2.60388
2.59103
2.57132
2.51967
2.48371
2.47544
2.46322
2.42124
2.39565
2.38516
2.36229
2.35768
2.36789
2.38129
2.39531
2.42346
2.47255
2.54674
2.62157
2.7093
2.79812
2.8416
2.87251
2.9024
2.93253
2.96369
2.97706
2.97437
2.96261
2.96366
2.97602
2.99278
2.99845
3.00571
3.01819
3.03728
3.0574
3.07625
3.08318
3.07396
3.05089
3.01999
2.98915
2.95928
2.9287
2.89859
2.86722
2.83284
2.80026
2.78351
2.78829
2.80906
2.84436
2.87344
2.87425
2.86739
2.8436
2.81538
2.78314
2.7503
2.72443
2.71499
2.70929
2.70468
2.69766
2.68904
2.67792
2.66091
2.64937
2.64939
2.65329
2.66276
2.67078
2.67399
2.67338
2.66932
2.67024
2.67393
2.68018
2.6897
3.55503
3.41136
3.30749
3.20416
3.16054
3.2404
3.29824
3.34125
3.38901
3.45741
3.49342
3.43461
3.31505
3.17424
3.05772
2.93244
2.80177
2.73559
2.71718
2.68045
2.62534
2.59338
2.57999
2.54436
2.49591
2.47395
2.43867
2.4107
2.4033
2.39475
2.39443
2.39597
2.41431
2.46529
2.54111
2.63356
2.73392
2.78445
2.82072
2.86026
2.89924
2.93374
2.94571
2.94018
2.93187
2.94382
2.96707
2.99532
3.02368
3.0509
3.07515
3.09371
3.10336
3.10323
3.09983
3.08451
3.05978
3.03
2.99728
2.96319
2.9292
2.89618
2.86336
2.82886
2.79939
2.77515
2.76867
2.77241
2.79035
2.82339
2.84507
2.85279
2.85047
2.83646
2.81547
2.78527
2.75273
2.73285
2.72582
2.72353
2.72256
2.71718
2.7087
2.69615
2.6829
2.67949
2.68162
2.68932
2.70089
2.7076
2.70972
2.70862
2.70652
2.70749
2.71019
2.71787
3.61774
3.53033
3.52347
3.50121
3.50503
3.52328
3.50643
3.52088
3.54981
3.58497
3.60946
3.56564
3.48302
3.36383
3.24347
3.13375
3.00383
2.88378
2.84051
2.82301
2.77168
2.7091
2.68006
2.65128
2.59267
2.55414
2.52024
2.4776
2.45193
2.42569
2.39879
2.38718
2.39317
2.41479
2.46339
2.54044
2.63988
2.7093
2.75296
2.80326
2.85551
2.89832
2.91537
2.91299
2.9158
2.93728
2.96901
3.01141
3.06172
3.10576
3.13143
3.13891
3.13356
3.11894
3.1058
3.08464
3.05877
3.03163
3.00135
2.96715
2.93117
2.89463
2.85872
2.82587
2.80115
2.78159
2.76845
2.7617
2.7573
2.76312
2.78695
2.81336
2.83086
2.83789
2.83249
2.81876
2.79505
2.76418
2.74483
2.73766
2.73573
2.73581
2.73359
2.72902
2.72185
2.71352
2.71003
2.71214
2.71965
2.73127
2.73833
2.74074
2.74093
2.73905
2.73891
2.74281
3.75503
3.79601
3.83456
3.81669
3.7872
3.7032
3.65641
3.67067
3.69742
3.71395
3.71976
3.68184
3.6161
3.52311
3.40285
3.28757
3.17282
3.04468
2.96218
2.93333
2.89865
2.83413
2.76507
2.7291
2.68174
2.62386
2.58944
2.54657
2.50642
2.47103
2.42586
2.3958
2.39239
2.40115
2.43029
2.46832
2.53163
2.61074
2.66935
2.73382
2.79948
2.85264
2.8891
2.904
2.92425
2.95823
3.00027
3.04931
3.09946
3.14228
3.16649
3.1659
3.15424
3.13249
3.11167
3.08476
3.05637
3.02976
3.00255
2.97138
2.93707
2.89989
2.86298
2.83176
2.80895
2.791
2.77416
2.7615
2.74985
2.74224
2.73548
2.7524
2.78649
2.81055
2.82768
2.83419
2.82586
2.80556
2.7784
2.75726
2.74898
2.74797
2.75247
2.75674
2.7562
2.75145
2.74352
2.73924
2.74135
2.7496
2.76232
2.76887
2.77086
2.77034
2.7685
2.77033
4.06918
4.14974
4.12562
4.06845
3.9791
3.85286
3.79701
3.81083
3.82971
3.83263
3.82599
3.79577
3.74028
3.66398
3.56024
3.43982
3.32894
3.21064
3.10299
3.04636
3.01252
2.95376
2.86746
2.80335
2.76547
2.70701
2.65988
2.61793
2.56556
2.52345
2.47971
2.43817
2.41893
2.41493
2.42164
2.43737
2.46274
2.50771
2.57014
2.64574
2.73112
2.79475
2.85514
2.90627
2.95114
3.00685
3.0577
3.09946
3.132
3.1602
3.18135
3.18225
3.16878
3.14261
3.11366
3.08409
3.0559
3.03
3.00316
2.97297
2.94249
2.91075
2.8785
2.84793
2.82186
2.79891
2.77991
2.76323
2.74795
2.73443
2.72315
2.71805
2.73318
2.76724
2.79782
2.82095
2.83285
2.82917
2.81618
2.79496
2.77865
2.77177
2.77254
2.77953
2.78465
2.78444
2.77944
2.77395
2.77317
2.77667
2.78545
2.79567
2.79962
2.80094
2.80067
2.80141
4.44027
4.41727
4.32728
4.23529
4.13425
4.01836
3.95976
3.9572
3.9566
3.94909
3.93162
3.9019
3.85399
3.79241
3.71247
3.60018
3.4851
3.37622
3.2589
3.17065
3.11899
3.06484
2.98532
2.89294
2.84262
2.79568
2.7365
2.68844
2.63355
2.57916
2.53629
2.49774
2.4675
2.44164
2.42761
2.42669
2.43536
2.46457
2.50354
2.56288
2.64985
2.73239
2.81865
2.91008
2.98942
3.05926
3.11201
3.1421
3.15583
3.16797
3.17915
3.18245
3.1688
3.14271
3.1142
3.08633
3.05809
3.03097
3.0019
2.97128
2.94581
2.92086
2.89482
2.86866
2.84122
2.81134
2.78531
2.76534
2.74833
2.73125
2.72153
2.71548
2.7117
2.72244
2.75247
2.78625
2.81187
2.83251
2.84197
2.83655
2.82556
2.8136
2.80409
2.80329
2.80801
2.81164
2.81138
2.81059
2.81165
2.81257
2.81502
2.82023
2.82672
2.83034
2.83209
2.83353
4.75613
4.62524
4.48205
4.37405
4.28269
4.1932
4.12672
4.09907
4.08106
4.06909
4.04292
4.00441
3.95812
3.90919
3.85192
3.76077
3.64058
3.52618
3.41413
3.30616
3.23099
3.17602
3.10689
3.01243
2.92462
2.87863
2.82402
2.7667
2.71404
2.6576
2.60874
2.56417
2.52444
2.48511
2.45092
2.43518
2.43198
2.44541
2.47135
2.5006
2.56598
2.66387
2.77868
2.90817
3.00707
3.07763
3.13631
3.16859
3.17663
3.17648
3.17449
3.17567
3.15735
3.1287
3.10738
3.08882
3.06632
3.03668
2.99317
2.96595
2.94754
2.92553
2.90494
2.88591
2.8629
2.83184
2.79883
2.77559
2.7559
2.73798
2.72602
2.71988
2.71442
2.70282
2.70997
2.73893
2.77762
2.81162
2.84298
2.86454
2.86869
2.86497
2.85394
2.84236
2.83666
2.8387
2.84005
2.843
2.84747
2.84858
2.84821
2.84817
2.85181
2.85758
2.86144
2.86284
4.96579
4.80398
4.64752
4.53473
4.45267
4.37656
4.2944
4.23735
4.20731
4.19121
4.15974
4.11233
4.06268
4.02066
3.97471
3.90223
3.79103
3.66522
3.55813
3.45653
3.36081
3.28882
3.22322
3.1381
3.03105
2.95353
2.90697
2.85371
2.79813
2.74202
2.68453
2.6285
2.5769
2.52785
2.48599
2.45713
2.44231
2.45034
2.4682
2.50021
2.55015
2.63369
2.74555
2.87274
2.98721
3.05874
3.12059
3.15832
3.16576
3.15806
3.15801
3.14596
3.11435
3.09991
3.09903
3.09081
3.07008
3.03689
2.98749
2.94924
2.9332
2.92513
2.91403
2.89721
2.87589
2.84453
2.80167
2.76537
2.74899
2.74202
2.73398
2.72327
2.71265
2.70263
2.69491
2.70539
2.73626
2.77811
2.8227
2.85966
2.88115
2.89316
2.89667
2.89147
2.88101
2.87514
2.87164
2.86842
2.86772
2.86939
2.87191
2.87541
2.88072
2.88658
2.89041
2.88937
5.12549
4.9582
4.80548
4.69639
4.62208
4.55444
4.46436
4.38582
4.34616
4.322
4.28627
4.23095
4.17212
4.12951
4.08688
4.02368
3.92718
3.80362
3.69222
3.60393
3.50983
3.41173
3.32982
3.2493
3.153
3.0496
2.98612
2.94261
2.89088
2.83265
2.76731
2.69482
2.62838
2.57733
2.53741
2.50676
2.48583
2.48889
2.5017
2.52362
2.57232
2.651
2.74219
2.83518
2.93846
3.00707
3.06673
3.1169
3.12641
3.11573
3.11438
3.09856
3.06583
3.04826
3.04974
3.05337
3.04073
3.01595
2.97575
2.93427
2.91665
2.90171
2.88513
2.87027
2.85436
2.83141
2.79511
2.76426
2.74583
2.73145
2.7214
2.71325
2.70888
2.70467
2.69923
2.70032
2.71321
2.74431
2.78791
2.83584
2.87129
2.89565
2.90921
2.91428
2.91526
2.91211
2.90626
2.89447
2.88741
2.88689
2.88746
2.89019
2.89467
2.90002
2.90521
2.90274
5.26969
5.11423
4.96941
4.86331
4.78869
4.72086
4.62663
4.532
4.48603
4.45764
4.41874
4.35807
4.29066
4.24241
4.20134
4.14386
4.05609
3.94392
3.8302
3.73711
3.65151
3.54981
3.43862
3.34589
3.26346
3.17193
3.07989
3.01994
2.97055
2.9143
2.85072
2.76999
2.6801
2.61827
2.58664
2.56666
2.5556
2.5608
2.56897
2.59125
2.63946
2.6926
2.74287
2.79758
2.8672
2.92415
2.95822
3.00642
3.03774
3.04554
3.05452
3.0438
3.01378
2.98781
2.98282
2.98621
2.98157
2.96823
2.94179
2.91105
2.89186
2.87254
2.85188
2.83276
2.81565
2.79839
2.78429
2.76866
2.74865
2.72855
2.71418
2.70613
2.70221
2.7051
2.70557
2.70339
2.70659
2.71912
2.74754
2.79059
2.83644
2.87552
2.90334
2.91758
2.92444
2.923
2.92032
2.91578
2.91133
2.90934
2.90439
2.90044
2.90029
2.90265
2.90357
2.90058
5.34401
5.2104
5.09361
5.00472
4.94007
4.87884
4.78526
4.68134
4.62123
4.58486
4.54153
4.47323
4.39556
4.33565
4.29573
4.24847
4.17292
4.07381
3.96639
3.8612
3.76874
3.67792
3.56669
3.44455
3.35559
3.28125
3.19756
3.11012
3.03423
2.96944
2.91211
2.84423
2.76744
2.69152
2.6564
2.64742
2.65759
2.66874
2.66783
2.68325
2.70141
2.72004
2.74478
2.76943
2.78983
2.81136
2.82395
2.85496
2.90135
2.93368
2.96406
2.96975
2.95468
2.92409
2.90669
2.90549
2.90766
2.90074
2.88597
2.87353
2.85972
2.84005
2.81693
2.79147
2.77264
2.76442
2.75991
2.75522
2.74568
2.72949
2.71153
2.7043
2.70059
2.70027
2.7046
2.70564
2.70598
2.70932
2.72055
2.74462
2.78168
2.82646
2.86912
2.9
2.91687
2.92242
2.92248
2.92062
2.91888
2.92069
2.91768
2.91068
2.90369
2.89578
2.89102
2.88424
5.28975
5.24399
5.16856
5.09058
5.02987
4.97606
4.88589
4.78506
4.7219
4.68778
4.65093
4.57946
4.49228
4.41551
4.36988
4.33013
4.26894
4.18255
4.07996
3.97866
3.86979
3.77384
3.67976
3.5671
3.44461
3.35798
3.28375
3.19938
3.11603
3.02735
2.94218
2.8844
2.83867
2.79292
2.76468
2.76654
2.78035
2.77838
2.75804
2.74631
2.73791
2.73113
2.72786
2.72313
2.71571
2.71057
2.70444
2.70976
2.75433
2.80131
2.84089
2.86658
2.86868
2.85256
2.83593
2.83711
2.83718
2.82329
2.8143
2.81546
2.81374
2.80141
2.78247
2.75558
2.73419
2.72671
2.72382
2.72546
2.7219
2.71569
2.70547
2.6949
2.6905
2.68861
2.69338
2.70502
2.70701
2.70725
2.7105
2.7191
2.73616
2.76504
2.80575
2.84729
2.87649
2.90102
2.90939
2.9114
2.91296
2.91573
2.91459
2.9086
2.90003
2.88879
2.87828
2.86709
5.21361
5.17697
5.12446
5.07699
5.03991
5.0033
4.92633
4.83635
4.77527
4.73879
4.70073
4.63715
4.55333
4.4701
4.41968
4.38589
4.33789
4.26636
4.16972
4.07705
3.97619
3.85806
3.76881
3.67366
3.54536
3.4106
3.31985
3.26279
3.19281
3.10272
3.00928
2.93414
2.90384
2.88871
2.88276
2.89615
2.89422
2.86953
2.8245
2.78103
2.7371
2.70465
2.68111
2.66152
2.64191
2.62328
2.61379
2.6067
2.63087
2.67737
2.70362
2.73991
2.76064
2.7622
2.76363
2.77366
2.77014
2.75107
2.73781
2.73839
2.74486
2.74493
2.73646
2.71863
2.69535
2.68643
2.68403
2.68879
2.69437
2.69264
2.68846
2.67961
2.67304
2.67179
2.67514
2.68746
2.70061
2.70457
2.70535
2.7044
2.70689
2.71598
2.73553
2.76965
2.808
2.84131
2.86978
2.8862
2.89962
2.90416
2.90215
2.89529
2.88399
2.87142
2.85986
2.84719
5.12861
5.08244
5.04285
5.01438
4.98224
4.93109
4.85973
4.79461
4.74942
4.71668
4.69125
4.64562
4.56268
4.47807
4.42225
4.38836
4.34283
4.27357
4.17733
4.07696
3.9885
3.89355
3.78677
3.68642
3.59096
3.4791
3.36542
3.26097
3.19185
3.14423
3.08316
3.02942
3.00581
2.99048
2.99012
2.98907
2.96858
2.92125
2.84781
2.78248
2.73135
2.68278
2.64127
2.60686
2.57328
2.5471
2.53644
2.52878
2.53736
2.57244
2.58858
2.61041
2.64292
2.66519
2.68617
2.70585
2.70416
2.68584
2.66592
2.66411
2.67108
2.68106
2.68121
2.67437
2.65771
2.64705
2.64466
2.64826
2.65787
2.66145
2.6617
2.65749
2.65239
2.65324
2.65788
2.6686
2.68456
2.69383
2.69465
2.69083
2.6818
2.67812
2.68375
2.70009
2.73166
2.76795
2.80538
2.83721
2.86603
2.87556
2.87459
2.86736
2.85486
2.84413
2.83489
2.82176
5.11546
5.06061
5.00877
4.96386
4.9153
4.85621
4.79352
4.73867
4.69693
4.66528
4.63371
4.57583
4.49496
4.42021
4.3635
4.32756
4.29136
4.23078
4.14882
4.06009
3.98061
3.89214
3.78939
3.6795
3.56674
3.46633
3.37753
3.29229
3.23421
3.19274
3.15157
3.13369
3.11696
3.09262
3.07152
3.03392
2.98139
2.91247
2.84837
2.7871
2.72777
2.66736
2.61168
2.56239
2.51991
2.49394
2.47606
2.46324
2.46596
2.48734
2.50154
2.5061
2.53126
2.56503
2.60102
2.63203
2.63608
2.62341
2.60104
2.59726
2.60388
2.61945
2.62802
2.62711
2.61793
2.60782
2.60609
2.60899
2.62065
2.63029
2.63381
2.63377
2.63372
2.63711
2.64299
2.65482
2.67162
2.6811
2.68112
2.6743
2.65964
2.65069
2.6505
2.65659
2.67415
2.70333
2.7378
2.77201
2.80624
2.82727
2.83091
2.82943
2.8241
2.81809
2.81136
2.79759
5.14607
5.08035
5.01849
4.95556
4.89073
4.82267
4.75626
4.69801
4.65
4.61073
4.56801
4.5052
4.4332
4.36402
4.30654
4.26958
4.23474
4.17751
4.10493
4.02436
3.94652
3.86159
3.76534
3.66687
3.56567
3.47274
3.39917
3.33416
3.29852
3.27713
3.26745
3.24493
3.21302
3.16936
3.10798
3.04156
2.97221
2.90247
2.83796
2.77698
2.71542
2.65426
2.59595
2.54088
2.49468
2.46033
2.43244
2.41773
2.4174
2.42736
2.4362
2.43355
2.43815
2.46855
2.50732
2.55002
2.56566
2.56324
2.5443
2.53708
2.54548
2.56547
2.58145
2.58414
2.58046
2.57109
2.57033
2.57525
2.58981
2.60555
2.61296
2.61689
2.62112
2.62664
2.63385
2.64685
2.66163
2.66802
2.66669
2.65649
2.64141
2.63555
2.63339
2.63497
2.64289
2.65591
2.67426
2.69987
2.72825
2.75495
2.77357
2.78744
2.79658
2.79556
2.79063
2.77525
5.18309
5.11167
5.04461
4.973
4.90094
4.82936
4.761
4.70152
4.64913
4.59851
4.53955
4.46947
4.39362
4.32181
4.26384
4.22624
4.18086
4.11915
4.04857
3.97586
3.90385
3.83222
3.75014
3.66852
3.58369
3.50638
3.45241
3.40414
3.39481
3.37748
3.35857
3.32545
3.26841
3.19525
3.1224
3.04787
2.96947
2.89322
2.82291
2.75912
2.69933
2.64388
2.5914
2.54039
2.4902
2.44266
2.40701
2.39115
2.38482
2.38343
2.38358
2.37885
2.36733
2.38433
2.41842
2.46321
2.49638
2.50471
2.49765
2.48869
2.49719
2.51848
2.54009
2.54696
2.5476
2.54339
2.54676
2.5573
2.57589
2.59227
2.60278
2.61082
2.61754
2.62456
2.63442
2.64589
2.65331
2.65493
2.65038
2.6389
2.63255
2.63081
2.62962
2.62865
2.62714
2.6261
2.62842
2.63726
2.65382
2.68033
2.70934
2.73833
2.76402
2.7718
2.76943
2.75451
5.21975
5.14262
5.06799
4.99455
4.92312
4.85201
4.78504
4.72292
4.66135
4.59577
4.52176
4.44401
4.37542
4.31747
4.27412
4.22715
4.15988
4.08514
4.0118
3.94502
3.88374
3.82231
3.7574
3.69236
3.61701
3.56678
3.53529
3.52723
3.51229
3.46294
3.41384
3.35367
3.27858
3.20264
3.13005
3.05479
2.97414
2.89132
2.8126
2.74516
2.6894
2.64094
2.59471
2.54714
2.49601
2.44211
2.39819
2.37326
2.35849
2.34914
2.34311
2.33763
2.325
2.32311
2.3456
2.38016
2.42117
2.44744
2.45571
2.45635
2.46412
2.48126
2.50214
2.5135
2.51915
2.52623
2.53902
2.55736
2.57754
2.59121
2.60152
2.61065
2.62041
2.6334
2.64725
2.65327
2.65417
2.64901
2.63703
2.62977
2.62933
2.6337
2.63519
2.63091
2.62482
2.61411
2.60215
2.60157
2.6064
2.62342
2.64823
2.67935
2.71467
2.73119
2.74053
2.7331
5.24028
5.16407
5.08977
5.01609
4.94281
4.86947
4.7998
4.73049
4.66077
4.59094
4.52349
4.46025
4.39925
4.34448
4.29244
4.22004
4.14257
4.06999
4.00797
3.9517
3.90144
3.84026
3.77898
3.72681
3.69998
3.68998
3.66647
3.63972
3.59123
3.52858
3.44302
3.3569
3.27714
3.20282
3.13191
3.05842
2.97977
2.89667
2.81472
2.744
2.68852
2.64256
2.59967
2.55485
2.50561
2.45231
2.40085
2.36138
2.33891
2.32444
2.31417
2.30763
2.3004
2.29016
2.29302
2.31494
2.34769
2.3839
2.4137
2.43195
2.44537
2.45887
2.47147
2.48351
2.497
2.51578
2.53991
2.56598
2.58374
2.59466
2.60369
2.61524
2.63445
2.65472
2.6613
2.66228
2.65837
2.64426
2.63004
2.62717
2.6309
2.64114
2.64331
2.63755
2.6287
2.6129
2.59484
2.58561
2.58235
2.58556
2.59793
2.61894
2.6509
2.67646
2.69942
2.70872
5.2463
5.17253
5.09967
5.02604
4.95186
4.87806
4.80479
4.73025
4.65649
4.58644
4.52196
4.46366
4.40732
4.35269
4.28675
4.21083
4.14001
4.08197
4.03391
3.99387
3.9493
3.90371
3.86439
3.82982
3.80429
3.78054
3.75454
3.71517
3.65143
3.56009
3.46111
3.36317
3.27679
3.20051
3.12918
3.05868
2.98644
2.90928
2.82794
2.75175
2.68838
2.63926
2.59892
2.56128
2.52107
2.47164
2.41231
2.3596
2.32739
2.31009
2.29802
2.28922
2.28001
2.27265
2.26565
2.26792
2.28916
2.32067
2.36027
2.4009
2.42796
2.43944
2.44649
2.46056
2.48101
2.51094
2.54961
2.57706
2.59181
2.60093
2.60951
2.62457
2.65016
2.67072
2.67558
2.67487
2.66232
2.64006
2.63334
2.63244
2.63795
2.65039
2.65077
2.64417
2.63187
2.61251
2.5956
2.58459
2.57561
2.56773
2.56618
2.57329
2.59255
2.62144
2.64865
2.67683
5.24065
5.16826
5.0968
5.02359
4.94967
4.87513
4.79933
4.72258
4.64728
4.57761
4.51434
4.45699
4.40256
4.34521
4.2753
4.20578
4.14521
4.10182
4.0762
4.05656
4.03396
4.00738
3.96961
3.92805
3.88714
3.84929
3.81163
3.74727
3.66804
3.57154
3.47037
3.3711
3.28051
3.20026
3.12826
3.06005
2.99097
2.91772
2.84099
2.76562
2.6981
2.64309
2.59979
2.56019
2.51978
2.47596
2.42413
2.36947
2.32436
2.30098
2.28988
2.2808
2.27103
2.26132
2.25202
2.24568
2.25189
2.27746
2.31379
2.35807