/*--------------------------------*- C++ -*----------------------------------*\
  =========                 |
  \\      /  F ield         | OpenFOAM: The Open Source CFD Toolbox
   \\    /   O peration     | Website:  https://openfoam.org
    \\  /    A nd           | Version:  7
     \\/     M anipulation  |
\*---------------------------------------------------------------------------*/
FoamFile
{
    version     2.0;
    format      ascii;
    class       volScalarField;
    location    "13.5";
    object      T;
}
// * * * * * * * * * * * * * * * * * * * * * * * * * * * * * * * * * * * * * //

dimensions      [0 0 0 1 0 0 0];

internalField   nonuniform List<scalar> 
4032
(
1
1
1
1
1
1
1
1
1
1
1
1.1055
2.36729
2.71274
2.72217
2.73717
2.75146
2.76559
2.77862
2.7898
2.79901
2.80601
2.81124
2.8151
1
1
1
1
1
1
1
1
1
1
1
1.08787
2.35187
2.71136
2.72122
2.73567
2.74973
2.76357
2.77627
2.78697
2.79562
2.80206
2.80669
2.81035
1
1
1
1
1
1
1
1
1
1
1
1.02519
2.30836
2.70642
2.71729
2.73218
2.74647
2.76027
2.77276
2.78308
2.79117
2.79702
2.80079
2.80395
1
1
1
1
1
1
1
1
1
1
1
1.00075
2.24663
2.69643
2.71066
2.72588
2.74017
2.75347
2.76553
2.77558
2.78351
2.78909
2.79219
2.79459
1
1
1
1
1
1
1
1
1
1
1
1
2.15959
2.6826
2.70328
2.7179
2.73204
2.74474
2.75609
2.7651
2.77149
2.77551
2.77699
2.77967
1
1
1
1
1
1
1
1
1
1
1
1
2.03676
2.6592
2.69305
2.70722
2.72095
2.73276
2.74308
2.75131
2.75716
2.76014
2.75788
2.75124
1
1
1
1
1
1
1
1
1
1
1
1
1.87104
2.61505
2.67467
2.69204
2.70667
2.71798
2.72678
2.73266
2.73444
2.73041
2.7207
2.71137
1
1
1
1
1
1
1
1
1
1
1
1
1.64145
2.53334
2.64443
2.67071
2.68811
2.70024
2.70773
2.71039
2.70767
2.70163
2.6955
2.70777
1
1
1
1
1
1
1
1
1
1
1
1
1.31711
2.40364
2.61842
2.64416
2.66385
2.6774
2.68383
2.68361
2.67588
2.6563
2.60712
2.51363
1
1
1
1
1
1
1
1
1
1
1
1
1.03073
2.27561
2.62009
2.61959
2.63081
2.64407
2.65146
2.64933
2.63723
2.60362
2.54767
2.39876
1
1
1
1
1
1
1
1
1
1
1
1
1.00017
2.07967
2.5819
2.59439
2.60393
2.60961
2.61432
2.61028
2.59605
2.55853
2.49719
2.3231
1
1
1
1
1
1
1
1
1
1
1
1
0.999998
1.73304
2.49544
2.57453
2.58566
2.58511
2.58339
2.575
2.5564
2.519
2.45042
2.29647
1
1
1
1
1
1
1
1
1
1
1
1
0.999999
1.25598
2.33872
2.55954
2.55835
2.55713
2.5523
2.53972
2.51724
2.48058
2.40874
2.29468
1
1
1
1
1
1
1
1
1
1
1
1
1
1.01819
2.16131
2.50999
2.5238
2.52447
2.52029
2.50717
2.48405
2.44499
2.3776
2.29104
1
1
1
1
1
1
1
1
1
1
1
1
1
1.00002
1.74631
2.41642
2.50264
2.50031
2.49489
2.47902
2.45498
2.41381
2.35431
2.28398
1
1
1
1
1
1
1
1
1
1
1
1
1
0.999996
1.15721
2.25314
2.4871
2.47346
2.46453
2.44865
2.42304
2.38669
2.33636
2.27682
1
1
1
1
1
1
1
1
1
1
1
1
1
0.999999
1.0058
2.02819
2.43045
2.43077
2.42726
2.41568
2.39422
2.36258
2.31944
2.26833
1
1
1
1
1
1
1
1
1
1
1
1
1
1
0.999986
1.48221
2.29994
2.41138
2.40069
2.38701
2.3672
2.33855
2.30067
2.25756
1
1
1
1
1
1
1
1
1
1
1
1
1
1
0.999995
1.05849
2.0885
2.38286
2.3717
2.35788
2.3384
2.31239
2.27883
2.24413
1
1
1
1
1
1
1
1
1
1
1
1
1
1
0.999999
1.00063
1.57877
2.25108
2.35071
2.33237
2.31269
2.28773
2.25896
2.23329
1
1
1
1
1
1
1
1
1
1
1
1
1
1
1
1
1.0932
2.04666
2.32664
2.30602
2.28844
2.26577
2.24857
2.25133
1
1
1
1
1
1
1
1
1
1
1
1
1
1
1
1
1.00179
1.53028
2.17615
2.27996
2.25871
2.25118
2.26142
2.29453
1
1
1
1
1
1
1
1
1
1
1
1
1
1
1
1
1
1.08015
1.94822
2.25257
2.24758
2.27053
2.31575
2.35285
1
1
1
1
1
1
1
1
1
1
1
1
1
1
1
1
1
1.00144
1.40297
2.07193
2.23101
2.31696
2.36049
2.37213
1
1
1
1
1
1
1
1
1
1
1
1
1
1
1
1
1
1
1.0431
1.7584
2.24326
2.38471
2.37661
2.36454
1
1
1
1
1
1
1
1
1
1
1
1
1
1
1
1
1
1
1.00056
1.23602
2.27216
2.4446
2.39183
2.36679
1
1
1
1
1
1
1
1
1
1
1
1
1
1
1
1
1
1
1
1.10391
2.36304
2.5225
2.45286
2.40672
1
1
1
1
1
1
1
1
1
1
1
1
1
1
1
1
1
1
1
1.03198
2.3197
2.60572
2.53733
2.48054
1
1
1
1
1
1
1
1
1
1
1
1
1
1
1
1
1
1
1
1.00095
2.2204
2.66
2.61445
2.57322
1
1
1
1
1
1
1
1
1
1
1
1
1
1
1
1
1
1
1
1
2.10293
2.65201
2.64608
2.62138
1
1
1
1
1
1
1
1
1
1
1
1
1
1
1
1
1
1
1
1
1.95705
2.6206
2.64977
2.63113
1
1
1
1
1
1
1
1
1
1
1
1
1
1
1
1
1
1
1
1
1.80421
2.57211
2.64736
2.62979
1
1
1
1
1
1
1
1
1
1
1
1
1
1
1
1
1
1
1
1
1.65447
2.52802
2.64201
2.62168
1
1
1
1
1
1
1
1
1
1
1
1
1
1
1
1
1
1
1
1
1.52225
2.49716
2.64053
2.61679
1
1
1
1
1
1
1
1
1
1
1
1
1
1
1
1
1
1
1
1
1.41744
2.47614
2.64584
2.61973
1
1
1
1
1
1
1
1
1
1
1
1
1
1
1
1
1
1
1
1
1.32441
2.45496
2.65462
2.62746
1
1
1
1
1
1
1
1
1
1
1
1
1
1
1
1
1
1
1
1
1.26351
2.4359
2.66242
2.63581
1
1
1
1
1
1
1
1
1
1
1
1
1
1
1
1
1
1
1
1
1.22832
2.42078
2.66709
2.64207
1
1
1
1
1
1
1
1
1
1
1
1
1
1
1
1
1
1
1
1
1.2044
2.40862
2.66895
2.6454
1
1
1
1
1
1
1
1
1
1
1
1
1
1
1
1
1
1
1
1
1.19365
2.40275
2.66812
2.64567
1.84557
2.02725
2.30383
2.52135
2.65442
2.72813
2.76291
2.77131
2.76039
2.73715
2.71014
2.68799
2.66966
2.65383
2.64019
2.62538
2.60864
2.59348
2.58388
2.57975
2.57558
2.56644
2.55873
2.55492
2.55378
2.56044
2.5723
2.58734
2.60334
2.61878
2.63284
2.64518
2.6556
2.66384
2.66969
2.67313
2.67446
2.67429
2.67333
2.67147
2.66808
2.66269
2.65608
2.64913
2.63991
2.62924
2.61836
2.60823
2.59915
2.59038
2.57998
2.56718
2.55378
2.54227
2.53451
2.53013
2.52503
2.52069
2.52356
2.53673
2.56132
2.58732
2.60111
2.60178
2.59626
2.58787
2.57627
2.56626
2.56006
2.55193
2.54154
2.52993
2.51762
2.50769
2.49997
2.49491
2.48964
2.48382
2.47693
2.46954
2.4642
2.46034
2.45752
2.45454
2.45084
2.44513
2.43991
2.43904
2.43924
2.44006
2.43976
2.43753
2.4332
2.43141
2.43037
2.42927
2.0965
2.23061
2.3565
2.48884
2.61209
2.70303
2.75419
2.76661
2.75746
2.7357
2.70965
2.68729
2.66905
2.65374
2.64063
2.62759
2.61346
2.60041
2.59006
2.58311
2.5776
2.56971
2.56487
2.56358
2.56361
2.56799
2.57606
2.58684
2.59946
2.61344
2.62674
2.63734
2.64482
2.64965
2.65201
2.65232
2.65088
2.6469
2.64058
2.63306
2.62537
2.6179
2.61055
2.60394
2.59828
2.5905
2.57905
2.5667
2.55608
2.54821
2.54161
2.53162
2.51826
2.50537
2.49603
2.49356
2.49503
2.49679
2.50163
2.5125
2.53164
2.55406
2.57073
2.57803
2.57686
2.569
2.55673
2.54479
2.53626
2.53033
2.52311
2.51438
2.50333
2.49155
2.48358
2.47859
2.47553
2.47181
2.46715
2.46068
2.45303
2.44763
2.44503
2.44364
2.44157
2.43828
2.43297
2.42726
2.42565
2.42641
2.42785
2.42786
2.4271
2.42559
2.42506
2.42422
2.1124
2.17309
2.2055
2.29748
2.43026
2.55525
2.64653
2.69345
2.70955
2.70674
2.69194
2.67458
2.6597
2.64623
2.6337
2.62192
2.61182
2.60375
2.59663
2.58991
2.58278
2.57545
2.5709
2.57164
2.57411
2.57937
2.58568
2.59171
2.59696
2.60218
2.60755
2.61105
2.61071
2.60691
2.59972
2.5909
2.58167
2.57177
2.56042
2.54686
2.53211
2.51843
2.50655
2.49651
2.48967
2.4858
2.47888
2.46712
2.45556
2.44686
2.44242
2.43968
2.43301
2.42376
2.41453
2.41113
2.4115
2.4172
2.42586
2.43537
2.44861
2.46694
2.48557
2.4966
2.50359
2.49945
2.49132
2.47904
2.46823
2.46226
2.45776
2.45296
2.44683
2.43869
2.42961
2.42333
2.42126
2.42052
2.42014
2.41931
2.4159
2.40923
2.40328
2.40185
2.40298
2.40501
2.40554
2.40315
2.39702
2.39158
2.39142
2.39299
2.39598
2.39805
2.39881
2.39834
2.12627
2.15181
2.1217
2.16017
2.25955
2.36454
2.45957
2.54637
2.61274
2.6543
2.66492
2.66069
2.6516
2.64404
2.63382
2.62088
2.60685
2.59331
2.58334
2.5767
2.57067
2.56173
2.55037
2.54138
2.5351
2.53156
2.52988
2.52853
2.52513
2.51662
2.50499
2.49481
2.48612
2.4775
2.46698
2.45351
2.43881
2.42498
2.41279
2.40168
2.38974
2.3769
2.36466
2.35342
2.34469
2.34114
2.3379
2.32775
2.31593
2.307
2.30248
2.30082
2.29826
2.29736
2.2956
2.29559
2.29735
2.30407
2.31345
2.32097
2.3285
2.34169
2.35978
2.37496
2.38508
2.38281
2.3789
2.3709
2.36307
2.35778
2.35434
2.35158
2.34901
2.34555
2.34027
2.33465
2.33132
2.3306
2.33161
2.33403
2.33528
2.33452
2.33085
2.32734
2.32706
2.33047
2.33506
2.33661
2.33523
2.33134
2.33022
2.33121
2.33306
2.33519
2.33638
2.33633
2.15303
2.15499
2.11451
2.0977
2.13442
2.17928
2.23537
2.31892
2.4186
2.51503
2.57849
2.60793
2.60614
2.60236
2.59766
2.59167
2.57706
2.55329
2.52804
2.5071
2.49235
2.47767
2.45896
2.43643
2.41336
2.3929
2.37753
2.36719
2.35834
2.34689
2.32965
2.31486
2.30771
2.30472
2.30238
2.29707
2.28914
2.28287
2.27904
2.27585
2.27045
2.26118
2.25107
2.24117
2.23217
2.22767
2.22301
2.21438
2.2047
2.1976
2.19492
2.19193
2.19074
2.19196
2.1936
2.19557
2.19873
2.20556
2.21294
2.21647
2.21834
2.22173
2.2326
2.2479
2.26369
2.2747
2.27203
2.26412
2.25599
2.24967
2.24686
2.24591
2.24522
2.24366
2.24079
2.23664
2.23292
2.23218
2.23304
2.23561
2.23866
2.24044
2.24041
2.2393
2.23923
2.24088
2.24397
2.24618
2.24602
2.24473
2.24636
2.24954
2.25313
2.25618
2.25812
2.25909
2.18878
2.16825
2.12494
2.07227
2.07775
2.09088
2.10561
2.14431
2.2203
2.32589
2.39857
2.4561
2.47572
2.46757
2.46079
2.45483
2.44919
2.43324
2.40352
2.36754
2.33442
2.3125
2.29068
2.26317
2.2339
2.20983
2.19321
2.1836
2.17663
2.17136
2.16355
2.15888
2.16097
2.16265
2.16397
2.1653
2.1666
2.17019
2.17537
2.1783
2.17806
2.17614
2.17385
2.16853
2.15957
2.15401
2.15148
2.14698
2.14028
2.13212
2.12409
2.12062
2.12131
2.12505
2.13062
2.13508
2.13851
2.14286
2.1463
2.14485
2.14168
2.13975
2.14078
2.14706
2.16255
2.17746
2.18913
2.18727
2.17761
2.1662
2.15856
2.15662
2.15724
2.15752
2.15645
2.15215
2.14638
2.14422
2.14471
2.1467
2.14963
2.15199
2.15286
2.15283
2.15301
2.15443
2.15781
2.16132
2.16255
2.16221
2.16338
2.1671
2.17138
2.17574
2.17839
2.17991
2.20913
2.18319
2.13964
2.08192
2.05613
2.05624
2.05692
2.07418
2.12151
2.20735
2.27786
2.30304
2.30916
2.30285
2.28359
2.26848
2.26299
2.26065
2.24103
2.20909
2.1767
2.15581
2.13513
2.10901
2.08297
2.06494
2.05209
2.04476
2.04044
2.04107
2.045
2.05246
2.06402
2.07319
2.08086
2.09096
2.10288
2.11187
2.11707
2.12113
2.12528
2.1277
2.1276
2.12363
2.11505
2.11037
2.10994
2.10877
2.10421
2.09665
2.08921
2.08827
2.09056
2.09844
2.10746
2.1112
2.11193
2.11101
2.10852
2.10384
2.09838
2.09363
2.08848
2.0875
2.09237
2.10166
2.11348
2.12336
2.12331
2.11841
2.10972
2.10235
2.0983
2.09686
2.09541
2.0918
2.08685
2.08374
2.08274
2.08318
2.0845
2.08609
2.08658
2.08605
2.08528
2.08587
2.08889
2.09294
2.09569
2.09665
2.09699
2.09968
2.10313
2.10717
2.11072
2.1132
2.2178
2.18938
2.15092
2.10015
2.05995
2.05949
2.0667
2.08887
2.13887
2.20348
2.26152
2.24353
2.21699
2.19748
2.17154
2.14417
2.13376
2.13501
2.12463
2.10093
2.07692
2.06237
2.04477
2.02203
2.00413
1.98978
1.97694
1.97017
1.96871
1.96927
1.97221
1.98063
1.99516
2.01145
2.02472
2.04185
2.06006
2.06958
2.07575
2.08156
2.08826
2.09327
2.0938
2.09134
2.08467
2.08179
2.0828
2.084
2.08208
2.07876
2.0778
2.07982
2.08519
2.0941
2.10133
2.10143
2.09862
2.0934
2.08774
2.08136
2.07463
2.06816
2.06133
2.05326
2.05002
2.05204
2.06056
2.06968
2.07827
2.08492
2.08186
2.07481
2.06724
2.06073
2.05576
2.05088
2.04637
2.04566
2.04503
2.04446
2.04405
2.04375
2.04301
2.04108
2.03977
2.0404
2.04356
2.0479
2.05071
2.05223
2.05211
2.05249
2.05493
2.05785
2.0618
2.06533
2.21701
2.18803
2.15705
2.11842
2.08726
2.0957
2.12072
2.14788
2.1827
2.21789
2.25205
2.2385
2.20327
2.17034
2.14043
2.1048
2.08194
2.07579
2.06928
2.05248
2.03329
2.02073
2.00897
1.98988
1.97397
1.96234
1.94781
1.93772
1.93576
1.93296
1.93219
1.93712
1.94885
1.96692
1.98421
2.00537
2.02802
2.03845
2.04576
2.05329
2.06137
2.06764
2.06874
2.0673
2.06234
2.06192
2.06451
2.06905
2.07104
2.07338
2.07721
2.08245
2.08723
2.09273
2.0959
2.09394
2.089
2.08205
2.07459
2.06696
2.0591
2.05147
2.04348
2.03425
2.02554
2.02264
2.02477
2.03157
2.04201
2.05079
2.05558
2.05431
2.04908
2.04257
2.03521
2.02748
2.02125
2.02007
2.01991
2.01999
2.01958
2.01876
2.0171
2.01378
2.01159
2.01209
2.01461
2.01904
2.02236
2.02375
2.02381
2.02298
2.02363
2.02543
2.02809
2.03245
2.21276
2.18697
2.16885
2.14888
2.14618
2.16873
2.18726
2.20172
2.21742
2.23572
2.25336
2.24113
2.21359
2.17985
2.15049
2.1181
2.08241
2.06229
2.05602
2.04397
2.025
2.01078
2.0019
1.98669
1.96832
1.95692
1.94113
1.92881
1.92352
1.91803
1.91254
1.91038
1.91459
1.92764
1.9473
1.97151
1.99861
2.01128
2.01978
2.02925
2.03957
2.0469
2.04828
2.04648
2.04342
2.04587
2.05085
2.05841
2.06645
2.0737
2.07967
2.08492
2.087
2.0877
2.08701
2.08333
2.07732
2.07004
2.06191
2.0531
2.04404
2.03523
2.02648
2.01732
2.00949
2.00325
2.00197
2.00354
2.00946
2.01895
2.02569
2.02857
2.03066
2.02801
2.02304
2.01565
2.00727
2.00203
2.00099
2.00123
2.00202
2.00171
2.00064
1.99825
1.99537
1.99473
1.99571
1.99865
2.00239
2.00426
2.0048
2.00446
2.00392
2.00443
2.00571
2.00879
2.2082
2.20033
2.20631
2.21057
2.21991
2.23038
2.22914
2.23642
2.24653
2.2563
2.2637
2.25352
2.23423
2.20461
2.17324
2.14331
2.10675
2.07336
2.05956
2.05282
2.03694
2.01761
2.0065
1.99522
1.97556
1.96141
1.94833
1.93304
1.92305
1.91348
1.9037
1.89485
1.89496
1.89983
1.91214
1.93272
1.96014
1.9786
1.98906
2.00112
2.01441
2.02445
2.02726
2.02609
2.02615
2.03075
2.03824
2.04936
2.06248
2.07321
2.07931
2.0818
2.08041
2.07615
2.07232
2.06668
2.06004
2.05326
2.04566
2.03679
2.02706
2.01697
2.00723
1.99866
1.9924
1.98746
1.98395
1.982
1.9813
1.98336
1.9907
1.99858
2.00428
2.00877
2.00823
2.00519
1.99887
1.99058
1.98556
1.98422
1.98457
1.98574
1.98611
1.98597
1.98489
1.98295
1.98201
1.98269
1.98488
1.98791
1.98948
1.98995
1.98995
1.98942
1.98954
1.99096
2.22295
2.24071
2.26099
2.27088
2.26827
2.25467
2.2494
2.25638
2.26728
2.27473
2.27822
2.26983
2.25554
2.23336
2.20241
2.1715
2.1398
2.10332
2.07892
2.06989
2.05901
2.0393
2.01784
2.00588
1.99055
1.97147
1.95879
1.94347
1.92891
1.91608
1.90091
1.88829
1.88301
1.88356
1.88878
1.89685
1.91287
1.93428
1.94929
1.96536
1.98175
1.99511
2.00376
2.00642
2.01062
2.0187
2.02924
2.04125
2.05343
2.06329
2.06833
2.06798
2.06458
2.05827
2.05222
2.04486
2.03765
2.03129
2.02471
2.0168
2.00774
1.99759
1.98753
1.97922
1.97339
1.96902
1.96493
1.96157
1.95823
1.95593
1.95472
1.96028
1.97067
1.97817
1.98478
1.98821
1.98612
1.98061
1.97358
1.96795
1.96703
1.96729
1.96953
1.97202
1.97249
1.97189
1.96995
1.96855
1.96901
1.97096
1.97404
1.97551
1.97594
1.97574
1.97522
1.97573
2.26776
2.29715
2.31008
2.30498
2.29046
2.26918
2.26326
2.26956
2.28017
2.28538
2.28735
2.28245
2.27131
2.25428
2.22952
2.19951
2.17069
2.13846
2.10784
2.09109
2.08087
2.06341
2.0373
2.01667
2.00422
1.98566
1.96888
1.95321
1.93465
1.91888
1.90268
1.88694
1.87818
1.87183
1.86943
1.87021
1.87429
1.88443
1.90021
1.9195
1.94134
1.95732
1.97247
1.98497
1.99567
2.009
2.02098
2.03023
2.03731
2.04365
2.04696
2.04669
2.04268
2.03541
2.02744
2.01961
2.01263
2.00671
2.00056
1.99312
1.98526
1.97682
1.96799
1.95956
1.95279
1.94725
1.94278
1.93886
1.93493
1.93081
1.92712
1.92608
1.93122
1.94172
1.95093
1.95861
1.96391
1.96326
1.96002
1.95493
1.9512
1.95057
1.95115
1.95386
1.95644
1.95698
1.95616
1.95465
1.95426
1.95493
1.9569
1.95943
1.9604
1.96068
1.96057
1.96069
2.3245
2.33386
2.32587
2.3145
2.30053
2.28196
2.27914
2.28167
2.28757
2.28938
2.29047
2.28742
2.27802
2.26475
2.24776
2.22234
2.19438
2.16631
2.13473
2.11008
2.09542
2.08006
2.05662
2.02774
2.01036
1.99478
1.97539
1.95775
1.93808
1.91829
1.90136
1.88604
1.87304
1.86208
1.85365
1.8463
1.84605
1.85071
1.85843
1.87255
1.89442
1.91489
1.93658
1.96033
1.97994
1.99661
2.00817
2.01386
2.01629
2.01877
2.01983
2.02008
2.01625
2.00912
2.00173
1.99451
1.98721
1.98061
1.9739
1.96717
1.96124
1.9547
1.94734
1.93991
1.9327
1.92547
1.91956
1.91503
1.9108
1.90631
1.9032
1.90049
1.89954
1.90322
1.91249
1.9226
1.93089
1.93782
1.94233
1.94114
1.93897
1.93678
1.93511
1.93514
1.93703
1.93902
1.93954
1.93955
1.93985
1.93991
1.94034
1.9416
1.9433
1.94427
1.94477
1.94518
2.36108
2.34579
2.32717
2.31383
2.30436
2.29264
2.28827
2.28829
2.28845
2.28964
2.28957
2.28632
2.27802
2.26767
2.25567
2.23667
2.20978
2.18178
2.15333
2.12508
2.10446
2.08874
2.06859
2.0405
2.01258
1.99645
1.97823
1.95866
1.93977
1.91958
1.90145
1.88442
1.86835
1.85274
1.8389
1.82896
1.82209
1.82269
1.82561
1.83041
1.84619
1.87146
1.90124
1.9336
1.95863
1.97644
1.99071
1.99717
1.99749
1.99563
1.99361
1.9932
1.98808
1.98116
1.97622
1.97131
1.96486
1.9567
1.946
1.94094
1.93782
1.93298
1.92733
1.92171
1.91531
1.90749
1.89984
1.895
1.89079
1.88655
1.8831
1.88066
1.87807
1.87489
1.87736
1.88623
1.89778
1.90827
1.91861
1.92604
1.92847
1.92772
1.92535
1.92267
1.92199
1.92282
1.92352
1.92494
1.92639
1.92672
1.92657
1.92643
1.92726
1.92896
1.93018
1.93081
2.36161
2.34166
2.32513
2.31412
2.30729
2.29957
2.29136
2.28737
2.28548
2.28552
2.28462
2.28056
2.2731
2.26506
2.25561
2.24126
2.21743
2.18776
2.16153
2.13667
2.11179
2.09139
2.07201
2.04749
2.01666
1.99224
1.97581
1.95757
1.93858
1.91949
1.89997
1.88007
1.86069
1.84209
1.82653
1.81436
1.80718
1.80421
1.80607
1.81204
1.82415
1.84635
1.87478
1.90508
1.93276
1.95011
1.9657
1.97442
1.97438
1.9708
1.96935
1.96529
1.95703
1.95402
1.95411
1.95206
1.94649
1.93799
1.92598
1.91706
1.91411
1.91299
1.91086
1.90687
1.90153
1.89363
1.88294
1.87466
1.87175
1.87065
1.869
1.86635
1.86342
1.86013
1.85794
1.86102
1.8702
1.8828
1.89585
1.90765
1.91455
1.91828
1.91916
1.9181
1.91593
1.91483
1.91403
1.91424
1.9147
1.91547
1.91603
1.91654
1.91766
1.91957
1.92105
1.92106
2.35171
2.33324
2.31823
2.30962
2.30445
2.29907
2.2904
2.28351
2.28021
2.27877
2.27689
2.27115
2.26217
2.25517
2.24829
2.2369
2.21695
2.18886
2.1623
2.14129
2.11836
2.09277
2.07004
2.0474
2.02054
1.99122
1.97122
1.9559
1.93827
1.91929
1.8988
1.87582
1.85341
1.83505
1.82065
1.80959
1.80263
1.79908
1.80153
1.80609
1.81791
1.83802
1.86002
1.88227
1.90701
1.9232
1.93766
1.94996
1.95224
1.94961
1.94841
1.94324
1.93488
1.93104
1.93172
1.93311
1.93047
1.92542
1.91622
1.9059
1.90148
1.89795
1.8944
1.89127
1.88781
1.88263
1.87412
1.86652
1.86214
1.85893
1.8573
1.85632
1.85584
1.85441
1.85249
1.85305
1.85709
1.86604
1.87858
1.89209
1.9019
1.90873
1.91234
1.91382
1.91408
1.91393
1.91313
1.91046
1.9098
1.91017
1.91058
1.9113
1.91226
1.91388
1.9156
1.91532
2.35082
2.33182
2.31687
2.30745
2.3015
2.29629
2.28625
2.27617
2.27255
2.27067
2.26803
2.26068
2.24954
2.24213
2.23641
2.22736
2.21099
2.18729
2.16196
2.14074
2.12087
2.09606
2.06821
2.04397
2.02095
1.9953
1.96985
1.95228
1.9363
1.9179
1.89781
1.87425
1.8487
1.82986
1.81802
1.80965
1.80526
1.8046
1.80474
1.80977
1.82207
1.83552
1.85041
1.86584
1.88385
1.89866
1.90779
1.9208
1.93004
1.93362
1.9366
1.934
1.92705
1.92103
1.91984
1.92118
1.92052
1.91816
1.91235
1.90458
1.89973
1.89524
1.89047
1.88571
1.88095
1.87598
1.87203
1.86768
1.86253
1.85795
1.85535
1.8543
1.85349
1.85384
1.85332
1.8533
1.85452
1.85886
1.86763
1.87951
1.89138
1.90116
1.90808
1.91167
1.91318
1.91339
1.91341
1.91294
1.91257
1.91243
1.91131
1.91104
1.91127
1.91203
1.91205
1.91125
2.37276
2.34425
2.32513
2.3127
2.3048
2.29825
2.28696
2.2743
2.26839
2.26532
2.26124
2.25191
2.23937
2.22993
2.22426
2.21715
2.20395
2.18474
2.16255
2.14038
2.12002
2.0984
2.07122
2.04194
2.01963
1.99864
1.97557
1.95302
1.93334
1.91519
1.89746
1.87721
1.85634
1.83585
1.82515
1.82078
1.82317
1.82583
1.8251
1.82885
1.83364
1.8415
1.85168
1.86124
1.8702
1.87908
1.8844
1.8941
1.90859
1.91916
1.92922
1.93188
1.92878
1.92153
1.91721
1.91695
1.91766
1.91596
1.91203
1.90834
1.90449
1.89945
1.89368
1.88668
1.88037
1.8764
1.87366
1.87183
1.86945
1.86601
1.86197
1.86002
1.85867
1.85814
1.85849
1.85793
1.85825
1.86009
1.86434
1.87205
1.88281
1.89432
1.90441
1.91168
1.91555
1.91701
1.91732
1.91753
1.91798
1.91884
1.91797
1.91638
1.91477
1.91228
1.91055
1.90859
2.43525
2.4001
2.36841
2.34389
2.32739
2.31505
2.29816
2.28107
2.27233
2.2685
2.26401
2.25301
2.23885
2.22608
2.21884
2.21254
2.20169
2.18508
2.16409
2.14231
2.11895
2.09758
2.07508
2.04949
2.02281
2.00241
1.98207
1.95925
1.93958
1.91951
1.89828
1.88223
1.86964
1.85825
1.85262
1.85389
1.8593
1.86067
1.85822
1.8566
1.85787
1.8615
1.86381
1.86563
1.86811
1.87242
1.87499
1.87929
1.89477
1.90973
1.92235
1.93075
1.93178
1.92796
1.92351
1.92338
1.92303
1.9188
1.91553
1.91512
1.91387
1.9097
1.90371
1.89514
1.88765
1.88418
1.88242
1.88219
1.88065
1.87862
1.87538
1.87167
1.86949
1.86818
1.86863
1.87041
1.87066
1.87054
1.87182
1.87549
1.88155
1.89002
1.90101
1.91116
1.91773
1.92337
1.92515
1.92599
1.92716
1.92845
1.9282
1.92644
1.9235
1.91959
1.91645
1.91332
2.52932
2.48573
2.44499
2.41178
2.38647
2.3653
2.33962
2.31511
2.2992
2.29003
2.28162
2.26897
2.25286
2.2375
2.22873
2.2228
2.21372
2.19977
2.18042
2.16108
2.13939
2.1142
2.09556
2.07436
2.04488
2.01479
1.995
1.98175
1.96488
1.94376
1.92278
1.90522
1.89831
1.89666
1.89847
1.90574
1.90768
1.90486
1.8991
1.89298
1.88609
1.88142
1.87921
1.87846
1.87716
1.87685
1.87889
1.87998
1.88993
1.90637
1.91568
1.92755
1.93315
1.93416
1.93441
1.93625
1.93467
1.92832
1.9233
1.92272
1.92313
1.92237
1.91849
1.91154
1.90331
1.89931
1.89761
1.89795
1.89815
1.8961
1.89329
1.88978
1.88686
1.88561
1.88562
1.88716
1.89011
1.8911
1.89146
1.89162
1.89259
1.89559
1.90126
1.91016
1.91955
1.92752
1.93479
1.93945
1.94353
1.94476
1.9441
1.94181
1.93807
1.93399
1.93041
1.92631
2.59213
2.55828
2.52463
2.49367
2.46347
2.43232
2.4011
2.37459
2.35418
2.33863
2.32668
2.31189
2.29115
2.27119
2.25777
2.24942
2.23931
2.2251
2.20572
2.18557
2.16678
2.14681
2.12497
2.10248
2.08005
2.05496
2.0309
2.00809
1.99129
1.97977
1.96647
1.95627
1.95259
1.95306
1.95667
1.96117
1.95883
1.95206
1.9392
1.9278
1.91807
1.90836
1.90148
1.89701
1.89172
1.88673
1.88737
1.88853
1.89304
1.90606
1.91301
1.9212
1.93134
1.93719
1.94254
1.94768
1.94699
1.9407
1.93333
1.93186
1.93272
1.93418
1.93338
1.92953
1.92266
1.9178
1.91575
1.91574
1.91651
1.9159
1.91414
1.91159
1.90935
1.90899
1.90883
1.90977
1.91333
1.91611
1.91654
1.91574
1.91325
1.9115
1.91259
1.91652
1.92476
1.93449
1.94479
1.95365
1.96154
1.96414
1.96384
1.96151
1.95734
1.9536
1.95038
1.9457
2.6158
2.59673
2.57551
2.55254
2.52687
2.49864
2.47061
2.4454
2.42371
2.40528
2.38783
2.36606
2.34156
2.31936
2.3015
2.28917
2.27795
2.26289
2.24419
2.22418
2.20637
2.18686
2.1641
2.13996
2.11497
2.09216
2.07089
2.05077
2.03835
2.02954
2.02022
2.02047
2.01986
2.01742
2.01643
2.01122
2.00141
1.98806
1.97594
1.96356
1.95045
1.9367
1.9248
1.91488
1.90575
1.90035
1.89643
1.89658
1.89839
1.90668
1.91293
1.91561
1.92437
1.93454
1.94476
1.95268
1.95329
1.94899
1.94103
1.93889
1.93978
1.94318
1.94487
1.94377
1.93919
1.93434
1.93257
1.93256
1.9342
1.9352
1.93492
1.93385
1.9333
1.93339
1.93353
1.93531
1.93948
1.94224
1.94228
1.94031
1.93588
1.93269
1.93227
1.9335
1.93813
1.94643
1.95631
1.9658
1.97491
1.98052
1.98206
1.98126
1.97891
1.97647
1.97384
1.96875
2.62041
2.60699
2.5917
2.57479
2.55643
2.53612
2.51472
2.49415
2.47561
2.45905
2.44152
2.41974
2.39664
2.37486
2.35612
2.34233
2.32925
2.31222
2.29279
2.27199
2.25208
2.23048
2.20701
2.18368
2.15908
2.13595
2.11749
2.10168
2.09557
2.09064
2.0909
2.08889
2.08457
2.07697
2.06449
2.05036
2.03519
2.01983
2.00533
1.99098
1.97596
1.96067
1.9458
1.93187
1.92074
1.91249
1.90489
1.9025
1.90311
1.90773
1.9123
1.91228
1.91403
1.92415
1.93693
1.94919
1.95253
1.95142
1.94471
1.94159
1.94291
1.9474
1.95181
1.95234
1.9504
1.94603
1.94508
1.94565
1.94857
1.9521
1.95325
1.95349
1.95382
1.95447
1.95577
1.95909
1.96313
1.96473
1.96415
1.96069
1.95572
1.95362
1.95299
1.95353
1.95594
1.95974
1.96505
1.97233
1.98005
1.98714
1.99225
1.99561
1.99771
1.99709
1.9952
1.99002
2.61396
2.6032
2.59136
2.57789
2.56315
2.54721
2.53063
2.51486
2.50041
2.48651
2.47016
2.4505
2.42952
2.40985
2.39364
2.38149
2.36675
2.34831
2.32859
2.30883
2.28955
2.27018
2.24822
2.22637
2.20354
2.18354
2.16978
2.15804
2.15744
2.15388
2.15104
2.14547
2.13376
2.1171
2.09979
2.08181
2.06254
2.04352
2.0257
2.00924
1.99352
1.97844
1.96381
1.94938
1.93524
1.92184
1.91185
1.90758
1.90589
1.90637
1.90746
1.90686
1.90339
1.90899
1.92054
1.93521
1.94533
1.94727
1.94469
1.9414
1.9432
1.94841
1.95409
1.95567
1.95569
1.9537
1.95416
1.95625
1.96111
1.96549
1.96787
1.96947
1.9709
1.97264
1.97531
1.97848
1.98044
1.98074
1.97898
1.97494
1.97267
1.97216
1.97182
1.97152
1.97105
1.97077
1.9715
1.97408
1.97888
1.98641
1.99444
2.00184
2.00832
2.01001
2.0094
2.00514
2.60835
2.59748
2.58611
2.57367
2.56047
2.54648
2.53299
2.51997
2.5065
2.49165
2.47458
2.45654
2.44024
2.42575
2.41432
2.40191
2.38497
2.36536
2.34597
2.32864
2.31252
2.29578
2.27778
2.26018
2.24089
2.22884
2.22103
2.21928
2.21576
2.20395
2.19285
2.17903
2.16094
2.14189
2.12335
2.10388
2.08241
2.05978
2.03817
2.01989
2.00464
1.99085
1.97724
1.96295
1.9473
1.93089
1.91773
1.91018
1.90554
1.90275
1.90112
1.89982
1.89614
1.89559
1.90312
1.91473
1.92814
1.93656
1.93925
1.93944
1.94191
1.947
1.95273
1.95524
1.95654
1.95847
1.96181
1.96681
1.97256
1.97628
1.97902
1.98164
1.98462
1.98842
1.99215
1.99345
1.99357
1.99191
1.98794
1.98544
1.98534
1.98681
1.98723
1.98568
1.98345
1.97998
1.97648
1.97641
1.97803
1.98331
1.99068
1.99949
2.00914
2.01334
2.01527
2.0129
2.60868
2.59593
2.58323
2.57036
2.55728
2.54386
2.53078
2.51741
2.50341
2.48885
2.47456
2.46121
2.44768
2.43466
2.4216
2.40468
2.38724
2.37017
2.35481
2.34088
2.32816
2.3127
2.29738
2.28454
2.27909
2.27707
2.27141
2.2646
2.25245
2.23697
2.21564
2.19401
2.17362
2.15426
2.13552
2.11585
2.09432
2.07079
2.04712
2.02672
2.01083
1.99757
1.9848
1.97117
1.956
1.9394
1.92311
1.91072
1.90361
1.89886
1.89548
1.8935
1.89135
1.8881
1.88907
1.89635
1.90716
1.91904
1.92883
1.93489
1.93947
1.94398
1.948
1.95157
1.95532
1.96077
1.96803
1.9759
1.98085
1.98379
1.98653
1.99027
1.996
2.00151
2.00315
2.00335
2.002
1.99751
1.99331
1.99252
1.99371
1.99669
1.99727
1.99552
1.99267
1.98754
1.98193
1.97902
1.97806
1.97917
1.98309
1.98974
1.9998
2.00736
2.0137
2.01505
2.61418
2.59965
2.58566
2.57169
2.5577
2.54351
2.52923
2.51458
2.49972
2.48536
2.4721
2.45976
2.44739
2.43518
2.42037
2.40379
2.38802
2.37507
2.36391
2.35415
2.34351
2.33325
2.32477
2.31733
2.3113
2.30552
2.29939
2.28997
2.2744
2.25152
2.22634
2.20113
2.17852
2.15835
2.13934
2.12029
2.1004
2.07852
2.05478
2.03215
2.01333
1.99887
1.98689
1.97543
1.96317
1.94777
1.92891
1.91196
1.90172
1.89608
1.89203
1.8891
1.88605
1.88369
1.88144
1.88219
1.8892
1.89957
1.9126
1.92589
1.93474
1.93859
1.94103
1.94574
1.95232
1.96154
1.97346
1.98163
1.98585
1.98861
1.99139
1.99597
2.00337
2.00925
2.01069
2.01045
2.00657
1.99999
1.99814
1.99789
1.99943
2.00305
2.00312
2.00102
1.99741
1.99174
1.98649
1.98283
1.97965
1.97698
1.977
1.97931
1.98552
1.99463
2.00322
2.01165
2.6224
2.60718
2.59216
2.57684
2.56139
2.54586
2.53017
2.51429
2.49863
2.48394
2.47037
2.45802
2.4463
2.43382
2.4186
2.40313
2.3896
2.37999
2.37433
2.37
2.36527
2.35973
2.35146
2.34207
2.33255
2.32375
2.31502
2.29968
2.28021
2.25613
2.23056
2.20499
2.18116
2.15966
2.14021
2.12166
2.10259
2.08196
2.05985
2.0377
2.01756
2.00101
1.98789
1.97577
1.96337
1.94976
1.93342
1.9158
1.90123
1.89367
1.89006
1.88701
1.88371
1.88046
1.87733
1.87518
1.87722
1.88566
1.89764
1.91219
1.92346
1.92957
1.93475
1.94093
1.94972
1.9624
1.97606
1.983
1.98686
1.9905
1.99449
1.99962
2.00664
2.01207
2.01347
2.01268
2.00851
2.00491
2.0033
2.00238
2.0033
2.00498
2.0045
2.00218
1.99802
1.99328
1.98928
1.9858
1.98212
1.97862
1.9754
1.97444
1.9759
1.98087
1.98755
2.00016
2.62932
2.61436
2.5992
2.58337
2.56713
2.55057
2.5338
2.51691
2.50053
2.4851
2.47079
2.4577
2.44532
2.43229
2.41891
2.40579
2.39539
2.38914
2.38734
2.38666
2.38445
2.38056
2.37246
2.36441
2.35249
2.3379
2.32024
2.3007
2.2785
2.25458
2.23113
2.20798
2.18522
2.16268
2.14088
2.12069
2.10064
2.0809
2.06241
2.04409
2.02509
2.00568
1.98817
1.97426
1.96091
1.9476
1.93514
1.92191
1.90797
1.89519
1.88555
1.87838
1.87393
1.87244
1.87306
1.87302
1.87173
1.87551
1.88407
1.8961
1.90873
1.91989
1.93038
1.94117
1.95211
1.96392
1.97497
1.98365
1.98945
1.99406
1.99818
2.00237
2.00679
2.00937
2.01069
2.01028
2.00965
2.0091
2.00814
2.00761
2.00769
2.00626
2.00397
1.99989
1.99583
1.99353
1.99083
1.98772
1.98425
1.98033
1.97614
1.97248
1.97015
1.96995
1.97193
1.98269
2.63313
2.61854
2.60361
2.58792
2.57162
2.55489
2.5379
2.52072
2.5039
2.48758
2.47204
2.45736
2.4436
2.43102
2.42018
2.41143
2.40525
2.40197
2.40128
2.40122
2.39759
2.39131
2.38468
2.37799
2.36476
2.34668
2.32415
2.29897
2.27417
2.25127
2.23019
2.20996
2.18951
2.16718
2.1426
2.11845
2.09745
2.07923
2.06302
2.04782
2.03201
2.01386
1.99251
1.97237
1.95714
1.94474
1.93378
1.92384
1.9128
1.89914
1.88463
1.8744
1.87055
1.86886
1.86863
1.86917
1.86861
1.86949
1.87595
1.88582
1.89833
1.9126
1.92718
1.94147
1.95415
1.965
1.97407
1.98234
1.9901
1.99603
2.00052
2.00342
2.0047
2.00468
2.00488
2.00606
2.00818
2.01038
2.01199
2.01248
2.011
2.00766
2.00196
1.99621
1.99355
1.99194
1.99122
1.98891
1.98594
1.98237
1.97766
1.97171
1.96682
1.96344
1.96197
1.96808
2.63398
2.61966
2.60495
2.58941
2.57316
2.55649
2.53952
2.52237
2.50537
2.48832
2.47168
2.45552
2.44073
2.42882
2.42036
2.41527
2.41317
2.41225
2.41116
2.40972
2.40699
2.40307
2.3983
2.39105
2.3752
2.35301
2.32674
2.29656
2.27025
2.2491
2.22963
2.21128
2.19263
2.17004
2.14158
2.11376
2.0933
2.0779
2.06433
2.05102
2.03612
2.0158
1.98963
1.96616
1.95191
1.94221
1.93414
1.92673
1.91759
1.90106
1.87997
1.87115
1.86774
1.86587
1.86622
1.86732
1.868
1.86596
1.86975
1.87783
1.89039
1.90693
1.92466
1.94119
1.95518
1.96549
1.97392
1.98341
1.99326
1.99871
2.00136
2.0021
2.00126
2.00154
2.0028
2.00458
2.00804
2.01371
2.01687
2.01583
2.0131
2.00743
1.99892
1.99425
1.99206
1.99055
1.99096
1.99006
1.98746
1.98425
1.97905
1.97159
1.96506
1.96065
1.95748
1.9597
)
;

boundaryField
{
    inlet
    {
        type            fixedValue;
        value           uniform 1;
    }
    outlet
    {
        type            inletOutlet;
        inletValue      uniform 1;
        value           nonuniform List<scalar> 
32
(
2.42972
2.42426
2.39852
2.33624
2.25857
2.17951
2.11308
2.06557
2.03296
2.00923
1.99104
1.97563
1.96059
1.94516
1.93092
1.92126
1.91536
1.91132
1.90866
1.91333
1.92637
1.94581
1.96882
1.98996
2.00498
2.01279
2.01502
2.01157
1.99988
1.98228
1.96784
1.95969
)
;
    }
    bottom
    {
        type            symmetryPlane;
    }
    top
    {
        type            symmetryPlane;
    }
    obstacle
    {
        type            zeroGradient;
    }
    defaultFaces
    {
        type            empty;
    }
}


// ************************************************************************* //
