/*--------------------------------*- C++ -*----------------------------------*\
  =========                 |
  \\      /  F ield         | OpenFOAM: The Open Source CFD Toolbox
   \\    /   O peration     | Website:  https://openfoam.org
    \\  /    A nd           | Version:  7
     \\/     M anipulation  |
\*---------------------------------------------------------------------------*/
FoamFile
{
    version     2.0;
    format      ascii;
    class       volVectorField;
    location    "13.5";
    object      U;
}
// * * * * * * * * * * * * * * * * * * * * * * * * * * * * * * * * * * * * * //

dimensions      [0 1 -1 0 0 0 0];

internalField   nonuniform List<vector> 
4032
(
(3 7.35428e-18 0)
(3 3.01611e-17 0)
(3 -5.84746e-17 0)
(3 -4.39883e-17 0)
(3 2.03532e-16 0)
(3 1.93867e-16 0)
(3 1.67645e-16 0)
(3 -2.30981e-17 0)
(3 -4.48881e-16 0)
(3 -6.59412e-16 0)
(3 -6.82907e-16 0)
(2.95104 0.00247239 0)
(1.02358 0.0169854 0)
(0.714436 0.0180975 0)
(0.663127 0.0226479 0)
(0.604613 0.0241634 0)
(0.546757 0.0256884 0)
(0.486735 0.0275756 0)
(0.424108 0.0297209 0)
(0.358123 0.0319956 0)
(0.288584 0.0341572 0)
(0.214413 0.0371332 0)
(0.134143 0.0396764 0)
(0.0501134 0.0450562 0)
(3 7.25585e-17 0)
(3 4.77696e-16 0)
(3 4.81832e-16 0)
(3 3.19776e-16 0)
(3 5.20158e-16 0)
(3 6.35913e-16 0)
(3 4.55929e-16 0)
(3 -5.21729e-17 0)
(3 -4.14971e-16 0)
(3 -2.55044e-16 0)
(3 -5.10711e-16 0)
(2.95976 0.0216159 0)
(1.03321 0.0757718 0)
(0.706813 0.0646478 0)
(0.653684 0.0705451 0)
(0.594735 0.0752023 0)
(0.535064 0.0796675 0)
(0.472898 0.0848141 0)
(0.408495 0.090445 0)
(0.341715 0.0967803 0)
(0.272638 0.103036 0)
(0.200841 0.112462 0)
(0.124128 0.120764 0)
(0.0465283 0.136223 0)
(3 1.73586e-16 0)
(3 2.87216e-16 0)
(3 4.70499e-16 0)
(3 4.96334e-16 0)
(3 5.83333e-16 0)
(3 1.01587e-15 0)
(3 1.14323e-15 0)
(3 1.05185e-15 0)
(3 1.0091e-15 0)
(3 1.14041e-15 0)
(3 9.56176e-16 0)
(2.9973 0.00749464 0)
(1.08127 0.130844 0)
(0.729824 0.10737 0)
(0.674688 0.119581 0)
(0.611445 0.129205 0)
(0.547014 0.137914 0)
(0.48063 0.146934 0)
(0.412581 0.155854 0)
(0.34265 0.165347 0)
(0.270516 0.17377 0)
(0.196845 0.186942 0)
(0.119126 0.19802 0)
(0.0442479 0.220002 0)
(3 -5.96527e-17 0)
(3 -1.03343e-16 0)
(3 1.78976e-17 0)
(3 2.7807e-16 0)
(3 4.10071e-16 0)
(3 6.08747e-16 0)
(3 7.66577e-16 0)
(3 1.39541e-15 0)
(3 1.46333e-15 0)
(3 1.48947e-15 0)
(3 1.4647e-15 0)
(3.00138 0.000555157 0)
(1.16406 0.172471 0)
(0.742676 0.149051 0)
(0.690534 0.168905 0)
(0.632532 0.183131 0)
(0.571779 0.195306 0)
(0.507937 0.208204 0)
(0.440237 0.221316 0)
(0.368268 0.236104 0)
(0.291302 0.249007 0)
(0.211941 0.266968 0)
(0.127598 0.280597 0)
(0.0462632 0.305735 0)
(3 1.74856e-17 0)
(3 3.42713e-16 0)
(3 3.2924e-16 0)
(3 3.26842e-16 0)
(3 4.37393e-16 0)
(3 6.00318e-16 0)
(3 1.26465e-15 0)
(3 1.41519e-15 0)
(3 1.91864e-15 0)
(3 1.67206e-15 0)
(3 1.54527e-15 0)
(3.00003 -2.41484e-08 0)
(1.29315 0.222245 0)
(0.752492 0.19357 0)
(0.692973 0.214217 0)
(0.640934 0.233543 0)
(0.585309 0.2505 0)
(0.526644 0.269408 0)
(0.462899 0.288908 0)
(0.394462 0.31079 0)
(0.319227 0.328985 0)
(0.239564 0.352246 0)
(0.148454 0.371666 0)
(0.0563495 0.403858 0)
(3 -1.45986e-16 0)
(3 -7.58458e-17 0)
(3 2.39239e-16 0)
(3 7.09342e-16 0)
(3 8.09046e-16 0)
(3 1.08811e-15 0)
(3 1.83581e-15 0)
(3 1.75552e-15 0)
(3 1.92228e-15 0)
(3 1.65432e-15 0)
(3 1.40734e-15 0)
(3 -4.16373e-10 0)
(1.49514 0.272812 0)
(0.774014 0.247891 0)
(0.693893 0.25847 0)
(0.645579 0.278453 0)
(0.596992 0.298714 0)
(0.548579 0.323062 0)
(0.494502 0.349066 0)
(0.433381 0.380002 0)
(0.358463 0.410209 0)
(0.271414 0.448191 0)
(0.168853 0.484048 0)
(0.0572447 0.524522 0)
(3 1.46146e-16 0)
(3 -1.45823e-16 0)
(3 1.46903e-16 0)
(3 2.82922e-16 0)
(3 6.44331e-16 0)
(3 5.52921e-16 0)
(3 4.06311e-16 0)
(3 1.33618e-16 0)
(3 -8.84665e-17 0)
(3 -2.0648e-16 0)
(3 -3.99258e-16 0)
(3 -4.88687e-09 0)
(1.78894 0.324658 0)
(0.809576 0.318188 0)
(0.698159 0.309099 0)
(0.646326 0.322838 0)
(0.599197 0.342239 0)
(0.557573 0.370728 0)
(0.512747 0.404953 0)
(0.464442 0.448581 0)
(0.403141 0.496061 0)
(0.331964 0.549068 0)
(0.238007 0.601554 0)
(0.104368 0.669898 0)
(3 3.02976e-16 0)
(3 2.91304e-16 0)
(3 1.30083e-16 0)
(3 -7.69676e-17 0)
(3 1.74601e-16 0)
(3 1.64611e-16 0)
(3 -3.57035e-16 0)
(3 -2.17767e-16 0)
(3 -6.33943e-16 0)
(3 -3.78057e-16 0)
(3 4.23484e-17 0)
(3 -1.35727e-09 0)
(2.21928 0.353692 0)
(0.878965 0.405503 0)
(0.72919 0.370359 0)
(0.675392 0.376796 0)
(0.62562 0.390018 0)
(0.584401 0.416424 0)
(0.545449 0.454051 0)
(0.508321 0.504544 0)
(0.464288 0.564911 0)
(0.403639 0.647301 0)
(0.285167 0.766941 0)
(0.159642 0.942286 0)
(3 4.92662e-17 0)
(3 5.17387e-16 0)
(3 2.46834e-16 0)
(3 -2.48674e-16 0)
(3 -2.72898e-16 0)
(3 -1.28819e-16 0)
(3 -1.77134e-16 0)
(3 -1.60816e-16 0)
(3 5.16784e-17 0)
(3 1.23337e-16 0)
(3 6.44818e-16 0)
(3 -1.96794e-10 0)
(2.80843 0.236471 0)
(1.03697 0.476809 0)
(0.82188 0.410267 0)
(0.763101 0.417306 0)
(0.699775 0.434175 0)
(0.64657 0.459627 0)
(0.604815 0.49784 0)
(0.569621 0.552081 0)
(0.538464 0.629698 0)
(0.507453 0.75421 0)
(0.483769 0.931912 0)
(0.598061 1.24179 0)
(3 -7.15682e-17 0)
(3 -1.92487e-16 0)
(3 -3.84129e-16 0)
(3 -4.53118e-16 0)
(3 -4.02578e-16 0)
(3 -5.15213e-16 0)
(3 -6.4445e-16 0)
(3 -7.85827e-16 0)
(3 -1.08671e-15 0)
(3 -1.60522e-15 0)
(3 -1.05961e-15 0)
(3 -1.38791e-11 0)
(3.06153 0.0212052 0)
(1.27099 0.463491 0)
(0.889232 0.459352 0)
(0.843928 0.485063 0)
(0.785972 0.494797 0)
(0.730301 0.511989 0)
(0.684851 0.54546 0)
(0.647849 0.597806 0)
(0.633176 0.682269 0)
(0.635054 0.816733 0)
(0.706892 0.971658 0)
(0.985168 1.16285 0)
(3 -2.33323e-16 0)
(3 -1.80351e-16 0)
(3 -1.20262e-16 0)
(3 1.80353e-16 0)
(3 -2.95587e-17 0)
(3 -3.88549e-16 0)
(3 -6.90405e-16 0)
(3 -7.82702e-16 0)
(3 -9.54081e-16 0)
(3 -1.08109e-15 0)
(3 -5.60489e-16 0)
(3 -5.98902e-13 0)
(3.00381 -1.50091e-05 0)
(1.52615 0.462915 0)
(0.886454 0.520443 0)
(0.839771 0.539727 0)
(0.806556 0.556619 0)
(0.776805 0.574474 0)
(0.750149 0.604665 0)
(0.726569 0.647736 0)
(0.732026 0.720544 0)
(0.760892 0.833374 0)
(0.885604 0.956398 0)
(1.17257 1.06812 0)
(3 2.53199e-17 0)
(3 2.85875e-16 0)
(3 -1.70198e-17 0)
(3 -2.77157e-17 0)
(3 -4.50179e-16 0)
(3 -5.95688e-16 0)
(3 -5.7493e-16 0)
(3 2.77449e-18 0)
(3 6.37309e-16 0)
(3 4.71689e-16 0)
(3 5.74977e-16 0)
(3 -1.10375e-14 0)
(3.00002 -6.28381e-07 0)
(2.11198 0.484416 0)
(0.95179 0.590525 0)
(0.865146 0.561436 0)
(0.850767 0.58381 0)
(0.832837 0.606814 0)
(0.820276 0.639783 0)
(0.81118 0.678851 0)
(0.827062 0.741452 0)
(0.87645 0.83133 0)
(1.01731 0.928957 0)
(1.26474 0.994999 0)
(3 -5.82608e-17 0)
(3 -2.83568e-17 0)
(3 -1.97142e-17 0)
(3 -1.85825e-16 0)
(3 -5.0886e-17 0)
(3 9.49044e-17 0)
(3 2.98658e-16 0)
(3 1.97465e-16 0)
(3 4.7327e-16 0)
(3 3.86714e-16 0)
(3 3.53764e-16 0)
(3 7.07473e-16 0)
(3 -1.02785e-06 0)
(2.92619 0.226466 0)
(1.15986 0.628195 0)
(0.946648 0.571718 0)
(0.923068 0.602871 0)
(0.900823 0.631521 0)
(0.890222 0.667548 0)
(0.891278 0.706434 0)
(0.912369 0.758867 0)
(0.974342 0.826393 0)
(1.10996 0.899044 0)
(1.32177 0.938796 0)
(3 -6.62757e-17 0)
(3 1.02756e-16 0)
(3 2.0051e-16 0)
(3 2.84436e-16 0)
(3 5.93735e-16 0)
(3 5.4462e-16 0)
(3 6.92334e-16 0)
(3 1.2549e-16 0)
(3 -1.18301e-15 0)
(3 -9.60593e-16 0)
(3 -1.18426e-15 0)
(3 -1.15825e-15 0)
(3 -2.33149e-07 0)
(3.05514 0.00943361 0)
(1.47237 0.608958 0)
(0.994163 0.656725 0)
(0.950385 0.658626 0)
(0.933897 0.67612 0)
(0.935493 0.701897 0)
(0.951821 0.734541 0)
(0.98577 0.774067 0)
(1.05587 0.823219 0)
(1.17691 0.872419 0)
(1.35399 0.900025 0)
(3 6.77899e-17 0)
(3 -3.1637e-16 0)
(3 2.71267e-17 0)
(3 -1.1881e-16 0)
(3 3.57695e-16 0)
(3 3.23261e-16 0)
(3 -1.13333e-16 0)
(3 -6.22932e-16 0)
(3 -9.65381e-16 0)
(3 -9.98798e-16 0)
(3 -1.0487e-15 0)
(3 -1.23637e-15 0)
(3 -2.2727e-08 0)
(3.0016 -1.01853e-06 0)
(2.12153 0.579156 0)
(1.06957 0.72657 0)
(1.00722 0.694556 0)
(0.99533 0.693623 0)
(0.996115 0.713387 0)
(1.01426 0.74035 0)
(1.05344 0.776612 0)
(1.12331 0.81498 0)
(1.22672 0.847376 0)
(1.36828 0.864859 0)
(3 -2.45535e-17 0)
(3 9.18348e-18 0)
(3 -6.82996e-17 0)
(3 5.6617e-17 0)
(3 -6.28912e-18 0)
(3 8.39519e-17 0)
(3 -6.53638e-16 0)
(3 -4.30073e-16 0)
(3 -2.24134e-16 0)
(3 9.57005e-17 0)
(3 4.29044e-16 0)
(3 3.43745e-16 0)
(3 -2.4788e-10 0)
(3.00003 -1.01654e-05 0)
(3.02975 0.154102 0)
(1.33546 0.689676 0)
(1.08805 0.710971 0)
(1.08778 0.716149 0)
(1.08267 0.738294 0)
(1.09087 0.761098 0)
(1.12104 0.787409 0)
(1.18239 0.816528 0)
(1.26982 0.838143 0)
(1.38382 0.847843 0)
(3 -5.46664e-17 0)
(3 -3.16157e-16 0)
(3 -2.68358e-16 0)
(3 -2.99357e-16 0)
(3 -3.17511e-16 0)
(3 -7.74666e-16 0)
(3 -8.0163e-16 0)
(3 -5.93747e-16 0)
(3 -4.76341e-16 0)
(3 -6.96891e-16 0)
(3 -9.34013e-16 0)
(3 -5.9808e-16 0)
(3 -5.3651e-13 0)
(3 -2.28137e-06 0)
(3.02721 0.00207387 0)
(1.65398 0.654183 0)
(1.10743 0.759677 0)
(1.10745 0.761593 0)
(1.1184 0.777908 0)
(1.14292 0.792482 0)
(1.17868 0.805788 0)
(1.23384 0.819049 0)
(1.30885 0.830162 0)
(1.40328 0.833401 0)
(3 7.52811e-17 0)
(3 -4.65577e-17 0)
(3 -1.85037e-16 0)
(3 -5.58701e-16 0)
(3 -6.08471e-16 0)
(3 -1.14046e-15 0)
(3 -1.21361e-15 0)
(3 -1.09253e-15 0)
(3 -5.82981e-16 0)
(3 -7.18351e-16 0)
(3 -4.31266e-16 0)
(3 5.47737e-17 0)
(3 1.93518e-15 0)
(3 -1.5432e-07 0)
(3.00036 9.25254e-06 0)
(2.55931 0.440992 0)
(1.24081 0.782821 0)
(1.13434 0.779667 0)
(1.15325 0.784986 0)
(1.18145 0.799488 0)
(1.22187 0.814406 0)
(1.27525 0.827728 0)
(1.34385 0.836594 0)
(1.42475 0.836075 0)
(3 8.38538e-17 0)
(3 7.15893e-16 0)
(3 3.50243e-16 0)
(3 2.64563e-17 0)
(3 -4.33321e-16 0)
(3 -5.91799e-16 0)
(3 -1.38424e-16 0)
(3 -4.10002e-16 0)
(3 -1.57848e-17 0)
(3 9.6992e-16 0)
(3 1.16203e-15 0)
(3 5.96479e-16 0)
(3 3.86006e-15 0)
(3 -8.25676e-10 0)
(3.00002 -1.05149e-05 0)
(3.06442 0.0418714 0)
(1.61156 0.758883 0)
(1.18255 0.791317 0)
(1.1998 0.79578 0)
(1.22186 0.807559 0)
(1.26019 0.819571 0)
(1.31189 0.830076 0)
(1.37438 0.837733 0)
(1.44674 0.834262 0)
(3 1.92766e-17 0)
(3 -2.5889e-17 0)
(3 -2.25231e-17 0)
(3 -1.16586e-16 0)
(3 -8.54066e-17 0)
(3 7.46665e-17 0)
(3 1.25388e-15 0)
(3 1.11654e-15 0)
(3 8.40961e-16 0)
(3 8.88231e-16 0)
(3 9.41911e-16 0)
(3 2.6309e-16 0)
(3 2.13825e-15 0)
(3 -1.32814e-12 0)
(3 -2.33497e-06 0)
(3.00459 0.000779927 0)
(2.43742 0.573933 0)
(1.28918 0.853976 0)
(1.22854 0.832606 0)
(1.26021 0.831331 0)
(1.29408 0.836397 0)
(1.34144 0.843646 0)
(1.39695 0.845963 0)
(1.4528 0.836611 0)
(3 -1.00999e-16 0)
(3 -6.03478e-16 0)
(3 -1.05235e-15 0)
(3 -9.86979e-16 0)
(3 -7.68707e-16 0)
(3 -6.90744e-16 0)
(3 -4.5265e-16 0)
(3 3.20591e-16 0)
(3 5.28385e-16 0)
(3 1.39336e-16 0)
(3 1.92462e-16 0)
(3 2.46866e-16 0)
(3 3.78304e-16 0)
(3 2.49646e-13 0)
(3 -1.97267e-07 0)
(3.00001 2.94827e-06 0)
(3.05739 0.076954 0)
(1.68745 0.814494 0)
(1.27533 0.834312 0)
(1.31304 0.834887 0)
(1.33624 0.843322 0)
(1.37836 0.844821 0)
(1.40996 0.836434 0)
(1.43837 0.800285 0)
(3 -1.53185e-16 0)
(3 2.17007e-16 0)
(3 -3.56177e-16 0)
(3 -3.76516e-16 0)
(3 -4.76008e-16 0)
(3 -5.43211e-16 0)
(3 -7.37816e-17 0)
(3 1.81531e-16 0)
(3 2.66962e-16 0)
(3 1.62713e-16 0)
(3 1.99749e-17 0)
(3 -2.20703e-16 0)
(3 -4.92199e-16 0)
(3 2.53468e-13 0)
(3 -1.59852e-09 0)
(3 -2.11371e-07 0)
(3.00656 0.00230158 0)
(2.53229 0.57022 0)
(1.38903 0.89121 0)
(1.34371 0.879089 0)
(1.3737 0.870602 0)
(1.39185 0.863331 0)
(1.3927 0.811391 0)
(1.38832 0.728124 0)
(3 3.71352e-17 0)
(3 3.09805e-16 0)
(3 3.02874e-16 0)
(3 5.34163e-16 0)
(3 5.95513e-16 0)
(3 5.97133e-16 0)
(3 7.83633e-16 0)
(3 4.27613e-16 0)
(3 1.33773e-16 0)
(3 -1.96831e-16 0)
(3 -3.95682e-16 0)
(3 -5.13257e-16 0)
(3 -2.99151e-16 0)
(3 8.27136e-14 0)
(3 -3.091e-12 0)
(3 -4.83484e-08 0)
(3.00002 1.88867e-05 0)
(3.0484 0.0652711 0)
(1.83421 0.811139 0)
(1.38917 0.89201 0)
(1.40624 0.884887 0)
(1.38531 0.829656 0)
(1.34386 0.736356 0)
(1.34053 0.646213 0)
(3 1.30896e-16 0)
(3 3.65197e-16 0)
(3 1.05707e-15 0)
(3 1.32939e-15 0)
(3 1.25822e-15 0)
(3 1.4057e-15 0)
(3 5.14442e-16 0)
(3 -1.50017e-16 0)
(3 2.00094e-17 0)
(3 -9.83221e-18 0)
(3 -5.19572e-16 0)
(3 -6.81637e-16 0)
(3 -6.21179e-16 0)
(3 6.76144e-15 0)
(3 4.5239e-15 0)
(3 -4.48058e-09 0)
(3 3.58264e-09 0)
(3.00359 0.00263014 0)
(2.72418 0.447436 0)
(1.57405 0.957241 0)
(1.38194 0.865205 0)
(1.31311 0.751785 0)
(1.28066 0.645023 0)
(1.31415 0.58787 0)
(3 -2.6017e-18 0)
(3 1.77848e-18 0)
(3 4.61756e-16 0)
(3 7.43255e-16 0)
(3 8.85705e-16 0)
(3 1.25852e-15 0)
(3 1.28312e-15 0)
(3 1.34419e-15 0)
(3 1.71189e-15 0)
(3 1.58035e-15 0)
(3 1.08025e-15 0)
(3 6.53098e-16 0)
(3 -2.07449e-16 0)
(3 7.95241e-17 0)
(3 8.52284e-16 0)
(3 -1.61388e-10 0)
(3 -1.75599e-10 0)
(3.00001 1.87046e-05 0)
(3.03143 0.0350836 0)
(2.18053 0.799219 0)
(1.33639 0.841614 0)
(1.23186 0.669546 0)
(1.25992 0.599356 0)
(1.32124 0.565968 0)
(3 -9.21586e-17 0)
(3 -4.74732e-16 0)
(3 -5.54109e-17 0)
(3 -1.37971e-16 0)
(3 4.8779e-16 0)
(3 1.15855e-15 0)
(3 2.1586e-15 0)
(3 2.06475e-15 0)
(3 1.54928e-15 0)
(3 1.17345e-15 0)
(3 1.33687e-15 0)
(3 1.59086e-15 0)
(3 1.47813e-15 0)
(3 1.5597e-15 0)
(3 1.97538e-15 0)
(3 -1.29035e-12 0)
(3 -5.61964e-11 0)
(3 9.17468e-09 0)
(3.0008 0.00162287 0)
(2.95679 0.223499 0)
(1.38489 0.659989 0)
(1.18826 0.568285 0)
(1.26816 0.561648 0)
(1.32811 0.545794 0)
(3 8.8068e-18 0)
(3 1.50319e-16 0)
(3 -2.99215e-16 0)
(3 -8.22902e-16 0)
(3 -6.35313e-16 0)
(3 -6.19588e-16 0)
(3 -3.11985e-16 0)
(3 1.14027e-16 0)
(3 -2.10921e-16 0)
(3 -6.95947e-17 0)
(3 1.02599e-15 0)
(3 1.5442e-15 0)
(3 1.71593e-15 0)
(3 1.71602e-15 0)
(3 1.99615e-15 0)
(3 1.59362e-16 0)
(3 -7.38952e-12 0)
(3 -6.39235e-12 0)
(3 9.49489e-06 0)
(2.956 0.00123544 0)
(1.21654 0.39945 0)
(1.08724 0.508271 0)
(1.22379 0.509052 0)
(1.3058 0.505348 0)
(3 -2.71417e-17 0)
(3 -2.13286e-17 0)
(3 -3.57749e-16 0)
(3 -3.04661e-16 0)
(3 -4.33156e-16 0)
(3 -8.86277e-16 0)
(3 -9.31753e-16 0)
(3 -7.30616e-16 0)
(3 -4.78358e-16 0)
(3 3.82622e-17 0)
(3 1.64755e-16 0)
(3 7.45905e-16 0)
(3 9.05577e-16 0)
(3 1.19212e-15 0)
(3 1.3029e-15 0)
(3 8.99753e-16 0)
(3 -2.24777e-13 0)
(3 -2.00504e-12 0)
(3 1.29259e-08 0)
(2.98131 0.00341461 0)
(1.14832 0.26072 0)
(0.908184 0.413317 0)
(1.07795 0.44451 0)
(1.19833 0.47666 0)
(3 2.67122e-17 0)
(3 -1.39382e-16 0)
(3 -7.92604e-17 0)
(3 1.90943e-16 0)
(3 2.46613e-17 0)
(3 -5.1399e-16 0)
(3 -5.59619e-16 0)
(3 -4.01072e-16 0)
(3 1.35647e-16 0)
(3 5.87609e-16 0)
(3 5.6972e-16 0)
(3 5.6033e-16 0)
(3 8.98058e-16 0)
(3 1.33441e-15 0)
(3 1.29064e-15 0)
(3 6.51111e-16 0)
(3 -1.16166e-15 0)
(3 -3.33038e-13 0)
(3 3.18891e-12 0)
(2.99963 0.000858159 0)
(1.28064 0.227176 0)
(0.838641 0.324242 0)
(0.93531 0.336187 0)
(1.03866 0.369532 0)
(3 1.07057e-17 0)
(3 -1.72813e-17 0)
(3 5.90881e-17 0)
(3 1.93744e-16 0)
(3 -1.54478e-16 0)
(3 -7.99755e-16 0)
(3 -7.2727e-16 0)
(3 -5.96841e-16 0)
(3 -5.42361e-16 0)
(3 -8.06968e-16 0)
(3 -7.58747e-16 0)
(3 -1.17312e-15 0)
(3 -1.26376e-15 0)
(3 -1.21672e-15 0)
(3 -6.34434e-16 0)
(3 -9.62063e-16 0)
(3 -5.97683e-16 0)
(3 -2.28764e-14 0)
(3 -2.2116e-14 0)
(3.00001 1.68424e-06 0)
(1.43485 0.255152 0)
(0.833428 0.277995 0)
(0.855401 0.283795 0)
(0.920097 0.295607 0)
(3 -7.48604e-19 0)
(3 -8.43994e-17 0)
(3 4.29789e-16 0)
(3 3.24303e-16 0)
(3 -5.8716e-17 0)
(3 -1.07308e-16 0)
(3 -2.4377e-16 0)
(3 -5.7312e-16 0)
(3 -6.87195e-16 0)
(3 -1.09068e-15 0)
(3 -2.08389e-15 0)
(3 -2.08342e-15 0)
(3 -2.05314e-15 0)
(3 -1.78731e-15 0)
(3 -1.49529e-15 0)
(3 -8.864e-16 0)
(3 -4.58506e-16 0)
(3 -2.06837e-16 0)
(3 -8.03321e-15 0)
(3 1.70539e-10 0)
(1.6529 0.279531 0)
(0.848514 0.258509 0)
(0.83912 0.248702 0)
(0.880863 0.249313 0)
(3 1.06519e-16 0)
(3 1.47937e-16 0)
(3 -1.73881e-16 0)
(3 -6.45482e-16 0)
(3 -5.91473e-16 0)
(3 1.55423e-16 0)
(3 2.95168e-16 0)
(3 2.30143e-16 0)
(3 -2.20606e-16 0)
(3 -1.94643e-16 0)
(3 -6.49917e-16 0)
(3 -1.46411e-16 0)
(3 -2.24756e-16 0)
(3 -3.52899e-16 0)
(3 -5.74545e-16 0)
(3 -2.12693e-16 0)
(3 -1.01868e-16 0)
(3 -2.57567e-16 0)
(3 -9.985e-16 0)
(3 -1.37681e-11 0)
(1.92485 0.268872 0)
(0.871685 0.249181 0)
(0.843032 0.225784 0)
(0.885236 0.217585 0)
(3 6.47527e-19 0)
(3 -1.71564e-16 0)
(3 -8.82628e-16 0)
(3 -1.34301e-15 0)
(3 -5.50761e-16 0)
(3 -5.66875e-16 0)
(3 -4.46423e-16 0)
(3 -1.05307e-16 0)
(3 -1.49759e-16 0)
(3 -3.81651e-17 0)
(3 8.30194e-17 0)
(3 1.44349e-16 0)
(3 2.64701e-17 0)
(3 -3.54017e-16 0)
(3 -9.30335e-16 0)
(3 -8.97441e-16 0)
(3 -1.18524e-15 0)
(3 -1.27801e-15 0)
(3 -1.16684e-15 0)
(3 -5.91638e-12 0)
(2.2086 0.230771 0)
(0.900554 0.229782 0)
(0.848214 0.201941 0)
(0.896024 0.195968 0)
(3 1.26942e-16 0)
(3 -3.86231e-16 0)
(3 -3.47311e-16 0)
(3 -6.65435e-16 0)
(3 -2.62843e-16 0)
(3 -1.17869e-15 0)
(3 -1.26621e-15 0)
(3 -1.14394e-15 0)
(3 -6.51299e-16 0)
(3 -5.68009e-16 0)
(3 -2.29384e-16 0)
(3 -3.89244e-16 0)
(3 -1.67852e-16 0)
(3 -4.71891e-16 0)
(3 -1.04213e-15 0)
(3 -5.24574e-16 0)
(3 -1.48357e-15 0)
(3 -1.62046e-15 0)
(3 -2.16503e-15 0)
(3 -9.63224e-13 0)
(2.45655 0.175744 0)
(0.933928 0.201172 0)
(0.851966 0.175484 0)
(0.903231 0.171203 0)
(3 -1.18001e-16 0)
(3 -1.07519e-16 0)
(3 5.16697e-16 0)
(3 4.33835e-16 0)
(3 -7.08553e-17 0)
(3 3.97092e-16 0)
(3 1.3846e-16 0)
(3 8.08658e-17 0)
(3 -3.18031e-16 0)
(3 2.31326e-16 0)
(3 5.72697e-16 0)
(3 2.73365e-16 0)
(3 3.68899e-16 0)
(3 -1.05362e-16 0)
(3 -6.37467e-16 0)
(3 -5.03996e-16 0)
(3 -1.01995e-15 0)
(3 -1.12233e-15 0)
(3 -1.25917e-15 0)
(3 -3.94085e-14 0)
(2.63232 0.125755 0)
(0.962051 0.164174 0)
(0.85126 0.14594 0)
(0.903382 0.144311 0)
(3 -2.17889e-17 0)
(3 1.47431e-16 0)
(3 1.23742e-16 0)
(3 3.07256e-16 0)
(3 5.39763e-16 0)
(3 5.59918e-16 0)
(3 5.58819e-16 0)
(3 6.83282e-16 0)
(3 9.67944e-16 0)
(3 7.41447e-16 0)
(3 7.03797e-16 0)
(3 4.33333e-16 0)
(3 -4.39689e-17 0)
(3 -2.92822e-16 0)
(3 -4.43741e-16 0)
(3 -1.46115e-15 0)
(3 -1.26696e-15 0)
(3 -8.94697e-16 0)
(3 -9.21068e-16 0)
(3 -1.59792e-15 0)
(2.76146 0.0792661 0)
(0.993691 0.12251 0)
(0.844529 0.115712 0)
(0.896662 0.11463 0)
(3 1.64712e-16 0)
(3 6.86625e-16 0)
(3 5.62381e-16 0)
(3 6.44499e-16 0)
(3 1.01287e-15 0)
(3 7.70361e-16 0)
(3 1.3048e-15 0)
(3 2.01013e-15 0)
(3 1.54466e-15 0)
(3 9.65315e-16 0)
(3 -8.35945e-17 0)
(3 -1.06035e-15 0)
(3 -9.25823e-16 0)
(3 -1.17127e-15 0)
(3 -1.57931e-15 0)
(3 -2.39241e-15 0)
(3 -2.29831e-15 0)
(3 -1.77175e-15 0)
(3 -7.85697e-16 0)
(3 -4.10756e-16 0)
(2.82915 0.0422005 0)
(1.0092 0.0838194 0)
(0.831289 0.0878671 0)
(0.882231 0.0878578 0)
(3 -8.33534e-18 0)
(3 -1.44449e-16 0)
(3 3.89064e-16 0)
(3 5.24465e-16 0)
(3 4.39509e-16 0)
(3 8.50382e-16 0)
(3 6.01337e-16 0)
(3 4.7705e-16 0)
(3 -5.30351e-16 0)
(3 -3.60127e-16 0)
(3 -4.88318e-16 0)
(3 -8.94064e-16 0)
(3 -1.3627e-15 0)
(3 -1.75676e-15 0)
(3 -1.39778e-15 0)
(3 -1.53157e-15 0)
(3 -5.20672e-16 0)
(3 -3.92057e-17 0)
(3 1.13927e-15 0)
(3 1.35332e-15 0)
(2.86053 0.0236196 0)
(1.01502 0.0556733 0)
(0.819069 0.0612884 0)
(0.867616 0.0617368 0)
(3 1.88312e-17 0)
(3 -1.94994e-16 0)
(3 -2.32227e-16 0)
(3 1.35602e-17 0)
(3 -3.8098e-16 0)
(3 -3.78218e-16 0)
(3 -7.29488e-16 0)
(3 -1.45893e-15 0)
(3 -6.59025e-16 0)
(3 -6.21111e-16 0)
(3 -9.28388e-16 0)
(3 2.0683e-17 0)
(3 -4.70547e-16 0)
(3 4.997e-16 0)
(3 1.28828e-15 0)
(3 2.35264e-15 0)
(3 2.75617e-15 0)
(3 3.19662e-15 0)
(3 3.67675e-15 0)
(3 3.49556e-15 0)
(2.88196 0.0121938 0)
(1.0226 0.0315029 0)
(0.816907 0.0351489 0)
(0.862662 0.0356299 0)
(3 1.91074e-16 0)
(3 1.90219e-16 0)
(3 -1.4228e-16 0)
(3 -8.4936e-17 0)
(3 -1.86267e-16 0)
(3 -4.30036e-16 0)
(3 -4.78932e-16 0)
(3 -5.03418e-16 0)
(3 2.13177e-17 0)
(3 -1.76444e-16 0)
(3 -2.71572e-16 0)
(3 -1.00803e-16 0)
(3 1.52735e-17 0)
(3 3.15579e-16 0)
(3 6.65288e-16 0)
(3 1.05759e-15 0)
(3 1.1644e-15 0)
(3 1.18425e-15 0)
(3 1.93157e-15 0)
(3 1.98412e-15 0)
(2.88955 0.00213046 0)
(1.02285 0.00746301 0)
(0.812108 0.0105053 0)
(0.855217 0.0113929 0)
(1.21603 1.3908 0)
(0.274576 0.651382 0)
(-0.0173824 0.121823 0)
(-0.0178507 0.00605414 0)
(-0.0258261 0.00985142 0)
(-0.0530355 0.0225151 0)
(-0.0918135 0.0191853 0)
(-0.123613 0.00256273 0)
(-0.138535 -0.00633348 0)
(-0.14554 -0.00349563 0)
(-0.151912 0.00691746 0)
(-0.168777 0.0176871 0)
(-0.19707 0.0222134 0)
(-0.227651 0.0234973 0)
(-0.262001 0.0242489 0)
(-0.300494 0.0239587 0)
(-0.342122 0.0233421 0)
(-0.381232 0.0226482 0)
(-0.411487 0.0206489 0)
(-0.430961 0.0157979 0)
(-0.447454 0.00905452 0)
(-0.466882 0.00258052 0)
(-0.480611 -0.00471193 0)
(-0.482557 -0.00961702 0)
(-0.469957 -0.0163493 0)
(-0.444707 -0.0233642 0)
(-0.405896 -0.0301626 0)
(-0.357976 -0.0377566 0)
(-0.303417 -0.0451946 0)
(-0.242644 -0.0522694 0)
(-0.175559 -0.059169 0)
(-0.103113 -0.0649915 0)
(-0.0266382 -0.0698636 0)
(0.0526238 -0.0737067 0)
(0.133373 -0.0764951 0)
(0.214437 -0.0780879 0)
(0.295179 -0.0783591 0)
(0.375072 -0.0774722 0)
(0.453866 -0.0757649 0)
(0.530479 -0.0730015 0)
(0.604009 -0.0695427 0)
(0.673914 -0.0655797 0)
(0.739873 -0.0611948 0)
(0.801055 -0.0563715 0)
(0.85911 -0.050894 0)
(0.912198 -0.0448428 0)
(0.960854 -0.0395371 0)
(1.00723 -0.0355767 0)
(1.05304 -0.0326917 0)
(1.09795 -0.0299865 0)
(1.13896 -0.0266824 0)
(1.17381 -0.0232697 0)
(1.20449 -0.0210207 0)
(1.23458 -0.019919 0)
(1.2653 -0.0196913 0)
(1.29191 -0.0194724 0)
(1.30581 -0.0186803 0)
(1.3094 -0.018622 0)
(1.30447 -0.0183548 0)
(1.28595 -0.018193 0)
(1.25752 -0.0187324 0)
(1.23691 -0.019279 0)
(1.23313 -0.0180001 0)
(1.23287 -0.0160124 0)
(1.23821 -0.0120276 0)
(1.24911 -0.00936293 0)
(1.26828 -0.00798275 0)
(1.2931 -0.00636424 0)
(1.3203 -0.00545108 0)
(1.3406 -0.00528722 0)
(1.35484 -0.00473432 0)
(1.36698 -0.00297204 0)
(1.37783 -0.000572522 0)
(1.3902 0.000721382 0)
(1.40312 0.00123553 0)
(1.41657 0.00165283 0)
(1.42652 0.00205214 0)
(1.43318 0.0028181 0)
(1.43656 0.00427474 0)
(1.43757 0.00569433 0)
(1.44025 0.00610959 0)
(1.44385 0.00589644 0)
(1.44717 0.00536201 0)
(1.44841 0.00514569 0)
(1.44692 0.00525579 0)
(1.44089 0.00585137 0)
(1.43347 0.0061687 0)
(1.43024 0.005741 0)
(1.4288 0.00478126 0)
(1.42828 0.00381477 0)
(1.42668 0.00384469 0)
(1.42251 0.00423473 0)
(1.41504 0.00503952 0)
(1.41035 0.00549219 0)
(1.40878 0.00544338 0)
(1.40964 0.00492485 0)
(1.70196 1.25183 0)
(1.23065 0.777678 0)
(0.846817 0.225435 0)
(0.484091 0.0406991 0)
(0.242203 0.03763 0)
(0.0963954 0.0449996 0)
(0.00897766 0.0247659 0)
(-0.0420941 0.00187674 0)
(-0.075648 -0.00615587 0)
(-0.0978102 0.000159604 0)
(-0.112888 0.0162225 0)
(-0.128509 0.0317754 0)
(-0.152178 0.0409619 0)
(-0.179271 0.0414493 0)
(-0.208502 0.0402044 0)
(-0.239706 0.0373931 0)
(-0.271485 0.0354894 0)
(-0.300019 0.0349023 0)
(-0.322047 0.0357647 0)
(-0.336782 0.0330302 0)
(-0.345211 0.0237206 0)
(-0.353491 0.012724 0)
(-0.349966 0.000289379 0)
(-0.336104 -0.0114221 0)
(-0.308077 -0.0224752 0)
(-0.269017 -0.0308583 0)
(-0.219133 -0.0401355 0)
(-0.160236 -0.0518715 0)
(-0.0948989 -0.0669522 0)
(-0.0242333 -0.0800206 0)
(0.0506078 -0.0892749 0)
(0.127004 -0.0961669 0)
(0.203063 -0.10058 0)
(0.27895 -0.103035 0)
(0.355027 -0.103892 0)
(0.430551 -0.103274 0)
(0.505159 -0.100946 0)
(0.577227 -0.0968879 0)
(0.64562 -0.0921569 0)
(0.710456 -0.089032 0)
(0.772379 -0.0869185 0)
(0.831284 -0.084565 0)
(0.886227 -0.081274 0)
(0.93755 -0.0773334 0)
(0.986484 -0.0718379 0)
(1.03205 -0.0608288 0)
(1.07075 -0.0466714 0)
(1.1054 -0.0361153 0)
(1.14087 -0.0315694 0)
(1.17927 -0.0306921 0)
(1.21878 -0.0287047 0)
(1.25244 -0.021591 0)
(1.27807 -0.0130848 0)
(1.2998 -0.00938117 0)
(1.32015 -0.0127345 0)
(1.34293 -0.0222714 0)
(1.35998 -0.0320059 0)
(1.36647 -0.0385285 0)
(1.36312 -0.0405564 0)
(1.3485 -0.0383837 0)
(1.32263 -0.0315754 0)
(1.29763 -0.0249232 0)
(1.28761 -0.026719 0)
(1.2878 -0.0275714 0)
(1.29092 -0.0244799 0)
(1.29968 -0.0166775 0)
(1.3153 -0.00949117 0)
(1.33487 -0.00327401 0)
(1.35515 -0.00208107 0)
(1.37412 -0.00584627 0)
(1.38859 -0.00787971 0)
(1.40156 -0.00701251 0)
(1.41235 -0.00202809 0)
(1.4205 0.00363242 0)
(1.4303 0.00551229 0)
(1.44048 0.00441204 0)
(1.45067 0.00184425 0)
(1.45848 0.00146371 0)
(1.46452 0.00364618 0)
(1.46725 0.00963137 0)
(1.46625 0.0151132 0)
(1.46581 0.015542 0)
(1.46713 0.0127432 0)
(1.4688 0.00850286 0)
(1.46909 0.00717787 0)
(1.46752 0.00933268 0)
(1.46173 0.0164767 0)
(1.45255 0.0220112 0)
(1.4465 0.0212113 0)
(1.44335 0.0157417 0)
(1.44131 0.00787704 0)
(1.43834 0.00379514 0)
(1.43511 0.00396718 0)
(1.43107 0.00741891 0)
(1.42853 0.0085921 0)
(1.42715 0.00698457 0)
(1.67451 1.09364 0)
(1.58048 1.006 0)
(1.48992 0.788587 0)
(1.17291 0.57218 0)
(0.791218 0.404408 0)
(0.52339 0.274868 0)
(0.358807 0.174904 0)
(0.229752 0.126659 0)
(0.133061 0.0798009 0)
(0.0612331 0.0579321 0)
(0.0096506 0.0603366 0)
(-0.0226689 0.0720749 0)
(-0.0415272 0.078177 0)
(-0.0562693 0.0764646 0)
(-0.0682081 0.071179 0)
(-0.0784926 0.0644458 0)
(-0.084304 0.0553784 0)
(-0.0820645 0.0450611 0)
(-0.0717357 0.0330802 0)
(-0.0551509 0.0160612 0)
(-0.0329306 -0.00492283 0)
(-0.00570668 -0.0264138 0)
(0.0336839 -0.0468501 0)
(0.0807992 -0.0708665 0)
(0.140114 -0.0919415 0)
(0.207859 -0.110646 0)
(0.280899 -0.127811 0)
(0.356652 -0.143662 0)
(0.433773 -0.15095 0)
(0.509868 -0.164081 0)
(0.586068 -0.182479 0)
(0.660762 -0.195227 0)
(0.728027 -0.202234 0)
(0.786926 -0.206843 0)
(0.840095 -0.209414 0)
(0.890577 -0.210757 0)
(0.940834 -0.210435 0)
(0.990766 -0.206791 0)
(1.03819 -0.198608 0)
(1.08044 -0.185051 0)
(1.11743 -0.168944 0)
(1.15166 -0.153918 0)
(1.18414 -0.139877 0)
(1.21485 -0.128268 0)
(1.2453 -0.121312 0)
(1.27742 -0.115579 0)
(1.30622 -0.104302 0)
(1.32696 -0.090423 0)
(1.34705 -0.0788925 0)
(1.37022 -0.0722417 0)
(1.39782 -0.068917 0)
(1.426 -0.0652722 0)
(1.44672 -0.0599865 0)
(1.46187 -0.0513313 0)
(1.47249 -0.0417432 0)
(1.4838 -0.0401498 0)
(1.49082 -0.0443109 0)
(1.49411 -0.0554382 0)
(1.49367 -0.0643937 0)
(1.48687 -0.0632237 0)
(1.46915 -0.0550252 0)
(1.44335 -0.0391637 0)
(1.42405 -0.0282169 0)
(1.41752 -0.0290138 0)
(1.41801 -0.0318732 0)
(1.42582 -0.0293962 0)
(1.4369 -0.022658 0)
(1.44926 -0.0129196 0)
(1.46015 -0.0077475 0)
(1.47257 -0.00835631 0)
(1.48379 -0.0101447 0)
(1.49458 -0.0102838 0)
(1.50447 -0.00759193 0)
(1.51137 -0.00134967 0)
(1.51492 0.00485283 0)
(1.51895 0.00705782 0)
(1.52566 0.00603144 0)
(1.53176 0.00295146 0)
(1.53686 0.000563625 0)
(1.54114 0.00085588 0)
(1.5423 0.0059141 0)
(1.53826 0.0133235 0)
(1.53289 0.01596 0)
(1.5314 0.013522 0)
(1.53115 0.00865993 0)
(1.53037 0.00473437 0)
(1.52785 0.00494102 0)
(1.52279 0.0111676 0)
(1.51228 0.0192129 0)
(1.50165 0.0203681 0)
(1.49648 0.0164005 0)
(1.49361 0.00947032 0)
(1.49212 0.00317633 0)
(1.4891 0.00075967 0)
(1.48568 0.000482725 0)
(1.48201 -0.00125494 0)
(1.59634 1.02102 0)
(1.63563 0.982788 0)
(1.74879 0.888077 0)
(1.7096 0.768684 0)
(1.47805 0.622974 0)
(1.24169 0.449564 0)
(1.01742 0.337155 0)
(0.794866 0.26675 0)
(0.587384 0.210773 0)
(0.419156 0.166255 0)
(0.296148 0.139826 0)
(0.227585 0.10566 0)
(0.198261 0.0810794 0)
(0.19826 0.0596375 0)
(0.212573 0.046146 0)
(0.232412 0.0385111 0)
(0.257159 0.0298744 0)
(0.293927 0.017534 0)
(0.345745 -0.00130318 0)
(0.411319 -0.0223174 0)
(0.485025 -0.0428299 0)
(0.561326 -0.0629567 0)
(0.640138 -0.080597 0)
(0.719617 -0.100253 0)
(0.803258 -0.1215 0)
(0.89132 -0.142778 0)
(0.978872 -0.163891 0)
(1.05918 -0.181509 0)
(1.12871 -0.195994 0)
(1.18929 -0.204009 0)
(1.24021 -0.212617 0)
(1.2861 -0.220694 0)
(1.32763 -0.220794 0)
(1.35964 -0.217088 0)
(1.38267 -0.210365 0)
(1.39961 -0.202236 0)
(1.4141 -0.197624 0)
(1.4295 -0.19603 0)
(1.44603 -0.193983 0)
(1.46158 -0.186464 0)
(1.47324 -0.1718 0)
(1.48235 -0.154604 0)
(1.49227 -0.137834 0)
(1.50356 -0.121004 0)
(1.51666 -0.105658 0)
(1.53466 -0.0917464 0)
(1.55374 -0.0771621 0)
(1.56553 -0.0681381 0)
(1.57377 -0.0570607 0)
(1.5854 -0.0488817 0)
(1.60223 -0.0438299 0)
(1.62174 -0.0412358 0)
(1.63751 -0.0426557 0)
(1.64881 -0.0426318 0)
(1.65365 -0.0413585 0)
(1.65565 -0.0448732 0)
(1.65619 -0.0497677 0)
(1.65558 -0.0582899 0)
(1.65587 -0.0702543 0)
(1.65335 -0.0774955 0)
(1.64462 -0.0732474 0)
(1.6278 -0.059916 0)
(1.60697 -0.0384729 0)
(1.59346 -0.01771 0)
(1.59056 -0.00864543 0)
(1.59497 -0.00553101 0)
(1.59937 -0.00254286 0)
(1.60674 0.00404632 0)
(1.61068 0.0104943 0)
(1.61442 0.0156194 0)
(1.62103 0.0181065 0)
(1.6297 0.0178837 0)
(1.63841 0.0167197 0)
(1.64519 0.0171723 0)
(1.64752 0.0203408 0)
(1.64621 0.0258921 0)
(1.6459 0.030398 0)
(1.64798 0.0317699 0)
(1.65137 0.0303547 0)
(1.65498 0.0273932 0)
(1.65677 0.0249754 0)
(1.65517 0.0258025 0)
(1.64867 0.0305712 0)
(1.64083 0.0341428 0)
(1.63638 0.0333552 0)
(1.63432 0.030035 0)
(1.63247 0.0222919 0)
(1.62758 0.0154751 0)
(1.61938 0.0119922 0)
(1.60859 0.0123026 0)
(1.60194 0.0143994 0)
(1.59825 0.0159203 0)
(1.5948 0.016484 0)
(1.59093 0.0161651 0)
(1.58711 0.0166105 0)
(1.58023 0.0159554 0)
(1.52782 0.931147 0)
(1.60645 0.906636 0)
(1.72128 0.872249 0)
(1.83239 0.808998 0)
(1.77418 0.768007 0)
(1.69548 0.685872 0)
(1.58162 0.581952 0)
(1.39857 0.50664 0)
(1.18434 0.41311 0)
(0.971501 0.300172 0)
(0.801613 0.200015 0)
(0.702229 0.128742 0)
(0.645388 0.0923145 0)
(0.638743 0.0565326 0)
(0.668367 0.0234913 0)
(0.715477 -0.00480929 0)
(0.768906 -0.0247452 0)
(0.82367 -0.0422476 0)
(0.887771 -0.0652535 0)
(0.96825 -0.0987614 0)
(1.06221 -0.141519 0)
(1.16298 -0.182926 0)
(1.26123 -0.215494 0)
(1.34863 -0.240201 0)
(1.42547 -0.261763 0)
(1.49801 -0.280715 0)
(1.56767 -0.294712 0)
(1.62763 -0.304256 0)
(1.67032 -0.305378 0)
(1.69737 -0.301434 0)
(1.7129 -0.298328 0)
(1.72071 -0.300166 0)
(1.72776 -0.293114 0)
(1.73147 -0.278965 0)
(1.72873 -0.266466 0)
(1.72212 -0.25263 0)
(1.71315 -0.239435 0)
(1.70442 -0.226346 0)
(1.69832 -0.210537 0)
(1.69591 -0.193604 0)
(1.69398 -0.177563 0)
(1.69011 -0.163661 0)
(1.68783 -0.148848 0)
(1.68799 -0.131732 0)
(1.69124 -0.116255 0)
(1.70096 -0.104618 0)
(1.71246 -0.0966607 0)
(1.72032 -0.0917942 0)
(1.72555 -0.0794014 0)
(1.73176 -0.0596878 0)
(1.74461 -0.0452741 0)
(1.75751 -0.0432912 0)
(1.76842 -0.043736 0)
(1.77543 -0.0431259 0)
(1.77904 -0.0481572 0)
(1.7786 -0.0574474 0)
(1.77606 -0.0662414 0)
(1.77614 -0.0760414 0)
(1.77936 -0.0881799 0)
(1.77971 -0.0906161 0)
(1.77855 -0.0872998 0)
(1.77159 -0.0769532 0)
(1.75981 -0.0592574 0)
(1.74556 -0.032168 0)
(1.742 -0.0055383 0)
(1.74122 0.0100799 0)
(1.74534 0.00892898 0)
(1.75107 0.00244149 0)
(1.75284 0.00240489 0)
(1.7514 0.00761913 0)
(1.7545 0.0148503 0)
(1.76203 0.0194713 0)
(1.77014 0.0198574 0)
(1.77764 0.0183654 0)
(1.78144 0.018002 0)
(1.77996 0.0201406 0)