/*--------------------------------*- C++ -*----------------------------------*\
  =========                 |
  \\      /  F ield         | OpenFOAM: The Open Source CFD Toolbox
   \\    /   O peration     | Website:  https://openfoam.org
    \\  /    A nd           | Version:  7
     \\/     M anipulation  |
\*---------------------------------------------------------------------------*/
FoamFile
{
    version     2.0;
    format      ascii;
    class       volScalarField;
    location    "170";
    object      p;
}
// * * * * * * * * * * * * * * * * * * * * * * * * * * * * * * * * * * * * * //

dimensions      [0 2 -2 0 0 0 0];

internalField   nonuniform List<scalar> 
1987
(
-0.092734
-0.0810656
-0.126843
-0.111221
-0.0971714
-0.0845312
-0.0731424
-0.175015
-0.153691
-0.134597
-0.117493
-0.102164
-0.0884163
-0.0760815
-0.0650026
-0.21433
-0.187949
-0.164387
-0.143352
-0.124569
-0.107791
-0.092795
-0.0793857
-0.0673902
-0.0566502
-0.26447
-0.231826
-0.202576
-0.176485
-0.153251
-0.132567
-0.114147
-0.0977394
-0.0831185
-0.0700851
-0.0584623
-0.0480902
-0.326446
-0.287424
-0.2515
-0.219104
-0.190177
-0.164452
-0.14162
-0.12134
-0.103335
-0.0873457
-0.0731418
-0.0605211
-0.0493043
-0.039329
-0.030447
-0.353437
-0.312376
-0.273396
-0.237708
-0.20566
-0.177145
-0.151869
-0.129492
-0.10968
-0.0921436
-0.0766187
-0.0628733
-0.050702
-0.0399237
-0.030374
-0.0219043
-0.416925
-0.379502
-0.338382
-0.297238
-0.258442
-0.223108
-0.191512
-0.163496
-0.138739
-0.116886
-0.0976004
-0.0805833
-0.0655692
-0.0523229
-0.0406372
-0.0303295
-0.0212335
-0.0132013
-0.450653
-0.431502
-0.401456
-0.363491
-0.322126
-0.281059
-0.242585
-0.207724
-0.176678
-0.149245
-0.125079
-0.103816
-0.0851137
-0.0686674
-0.0542092
-0.0415021
-0.0303377
-0.0205319
-0.0119174
-0.00434722
-0.445973
-0.434515
-0.415068
-0.384494
-0.346144
-0.304702
-0.26387
-0.225852
-0.191578
-0.161178
-0.13441
-0.11091
-0.0903005
-0.0722366
-0.0564108
-0.0425527
-0.0304241
-0.0198155
-0.0105424
-0.00243633
0.0046478
0.0107908
-0.427733
-0.416736
-0.397058
-0.366074
-0.327499
-0.28615
-0.245705
-0.208274
-0.174699
-0.145038
-0.119016
-0.0962507
-0.0763575
-0.0589872
-0.0438304
-0.0306154
-0.0191032
-0.00908431
-0.000373572
0.00719776
0.0137725
0.019428
-0.407855
-0.397348
-0.377509
-0.346241
-0.307605
-0.266513
-0.226599
-0.189889
-0.157117
-0.128287
-0.103089
-0.0811267
-0.0620095
-0.0453857
-0.0309448
-0.0184144
-0.00755561
0.00184114
0.00996075
0.0169719
0.0230147
0.0281635
-0.386383
-0.376394
-0.356468
-0.325052
-0.286521
-0.245826
-0.206602
-0.170734
-0.138869
-0.110957
-0.0866579
-0.0655638
-0.0472805
-0.0314543
-0.0177745
-0.00596867
0.0042015
0.0129448
0.0204457
0.0268722
0.0323612
0.0369847
0.0409472
-0.36337
-0.353926
-0.333994
-0.302579
-0.2643
-0.22414
-0.185759
-0.150853
-0.119994
-0.0930817
-0.0697537
-0.0495911
-0.032197
-0.0172172
-0.00434147
0.00670166
0.0161495
0.0242095
0.0310653
0.0368837
0.0417978
0.0458786
0.0493481
-0.338874
-0.330007
-0.310159
-0.278881
-0.240946
-0.201561
-0.164127
-0.130292
-0.100533
-0.0747001
-0.0524111
-0.0332398
-0.0167873
-0.00270032
0.00933047
0.0195748
0.0282684
0.035617
0.0418028
0.0469907
0.0513097
0.054831
0.0577937
-0.312966
-0.30472
-0.285063
-0.253939
-0.216612
-0.178116
-0.141762
-0.109104
-0.0805314
-0.0558526
-0.0346671
-0.0165432
-0.00108199
0.0120687
0.0232161
0.0326279
0.0405374
0.0471481
0.0526404
0.0571767
0.0608813
0.063827
0.0662688
0.0687857
-0.28572
-0.278152
-0.25881
-0.227826
-0.19134
-0.153878
-0.118726
-0.087342
-0.0600379
-0.0365826
-0.0165607
0.000463049
0.0148868
0.0270605
0.0372887
0.0458365
0.0529342
0.0587826
0.0635598
0.0674248
0.0704967
0.0728517
0.0747583
0.0767784
-0.257216
-0.250372
-0.231218
-0.200905
-0.165228
-0.128917
-0.0950813
-0.0650629
-0.0391031
-0.0169358
0.00186666
0.0177415
0.0310849
0.0422441
0.0515203
0.0591752
0.0654357
0.0704996
0.074542
0.0777173
0.080139
0.0818896
0.0832493
0.0847461
-0.227527
-0.221507
-0.202636
-0.17306
-0.138352
-0.103313
-0.070895
-0.0423263
-0.0177803
0.00303974
0.0205716
0.0352528
0.0474769
0.0575874
0.0658817
0.0726175
0.0780179
0.0822773
0.0855673
0.0880358
0.0897905
0.0909252
0.0917318
0.0926805
0.0923196
-0.196747
-0.191659
-0.173178
-0.144388
-0.110797
-0.0771417
-0.0462363
-0.0191938
0.0038749
0.0232941
0.0395088
0.052956
0.0640256
0.0730566
0.0803423
0.0861358
0.090656
0.0940935
0.0966155
0.0983615
0.0994335
0.0999454
0.100197
0.10055
0.0995295
-0.165158
-0.160821
-0.142904
-0.114998
-0.0826494
-0.0504846
-0.0211767
0.00427036
0.025805
0.0437752
0.0586315
0.0708088
0.0806925
0.0886171
0.0948707
0.0997017
0.103324
0.105925
0.107666
0.108676
0.109054
0.108947
0.108631
0.108243
0.106292
-0.132785
-0.129149
-0.11191
-0.0849945
-0.0540013
-0.0234237
0.00420994
0.0280003
0.0479507
0.0644297
0.0778913
0.0887673
0.0974382
0.104233
0.109434
0.113286
0.115997
0.117749
0.118698
0.118961
0.118646
0.117934
0.117015
0.115617
0.112378
-0.0996922
-0.0967989
-0.0803068
-0.054483
-0.0249475
0.00395647
0.029848
0.0519282
0.0702511
0.0852025
0.0972385
0.106787
0.114222
0.119867
0.124
0.126858
0.128646
0.12954
0.129689
0.129202
0.128202
0.1269
0.125311
0.122711
0.118439
-0.0660059
-0.0638924
-0.0482074
-0.0235705
0.00441503
0.0315695
0.0556602
0.075985
0.0926439
0.106038
0.116622
0.124821
0.131002
0.135483
0.138534
0.140388
0.141244
0.141274
0.140616
0.139379
0.137705
0.135803
0.13346
0.12971
0.126486
-0.0318563
-0.030549
-0.0157296
0.00763419
0.0339881
0.0593276
0.0815683
0.1001
0.115066
0.126878
0.135991
0.142824
0.147737
0.151041
0.153002
0.153844
0.153763
0.152923
0.151458
0.149474
0.147127
0.144589
0.141491
0.137085
0.134512
0.00262783
0.0031089
0.0170074
0.0390211
0.0636725
0.0871421
0.107493
0.124203
0.137453
0.147665
0.155293
0.160747
0.164383
0.166503
0.167367
0.167195
0.166173
0.164463
0.16219
0.159464
0.156442
0.15325
0.149464
0.144622
0.142113
0.037317
0.0369569
0.0498836
0.0704794
0.0933684
0.114924
0.133354
0.148221
0.15974
0.168341
0.174474
0.178544
0.180897
0.181831
0.181596
0.180407
0.178446
0.175866
0.17279
0.169326
0.165627
0.161781
0.157373
0.152163
0.14945
0.072081
0.0708692
0.0827783
0.101898
0.122976
0.142583
0.159072
0.172083
0.181863
0.188848
0.193483
0.196166
0.197236
0.196983
0.195652
0.19345
0.190552
0.187107
0.183232
0.179035
0.17466
0.17017
0.165182
0.159593
0.156535
0.106789
0.104719
0.115571
0.133167
0.152395
0.170031
0.184566
0.195717
0.203756
0.209125
0.212265
0.213564
0.213356
0.211922
0.2095
0.20629
0.202462
0.198159
0.193492
0.188568
0.183522
0.178401
0.172855
0.166867
0.163388
0.141311
0.13838
0.148141
0.164175
0.181527
0.197178
0.209757
0.21905
0.225355
0.229116
0.230768
0.230693
0.229215
0.226608
0.223103
0.218895
0.214146
0.208993
0.203545
0.197903
0.192193
0.186453
0.180363
0.173959
0.170016
0.175516
0.171725
0.180371
0.194814
0.210273
0.223937
0.234566
0.242011
0.246594
0.248761
0.248939
0.247502
0.244768
0.241002
0.236428
0.231233
0.225576
0.219585
0.213366
0.207016
0.200653
0.194307
0.187682
0.180853
0.176421
0.209277
0.204631
0.212141
0.224975
0.238537
0.25022
0.258914
0.26453
0.267412
0.268003
0.266725
0.263946
0.259973
0.255064
0.249437
0.243273
0.236721
0.229908
0.222932
0.215886
0.208882
0.201942
0.194793
0.187534
0.182599
0.242467
0.236973
0.243336
0.254554
0.266223
0.275943
0.282724
0.286538
0.287744
0.286785
0.284077
0.279978
0.274788
0.268758
0.262098
0.254982
0.247555
0.239935
0.232219
0.224492
0.21686
0.209339
0.201676
0.193991
0.188546
0.274961
0.268631
0.273842
0.283445
0.293238
0.30102
0.305921
0.307966
0.307528
0.305051
0.300942
0.295551
0.289171
0.282045
0.274376
0.26633
0.258048
0.249642
0.241203
0.232813
0.224568
0.216482
0.208318
0.200212
0.194254
0.306637
0.299486
0.303549
0.311549
0.319491
0.32537
0.328432
0.328748
0.326706
0.322747
0.317272
0.310623
0.303083
0.294889
0.286237
0.277288
0.268174
0.259004
0.249862
0.240827
0.231988
0.223352
0.214703
0.206184
0.199717
0.337377
0.329423
0.332347
0.338767
0.344893
0.348915
0.350183
0.348818
0.345218
0.33982
0.333019
0.325147
0.316483
0.307254
0.29765
0.287825
0.277907
0.267996
0.258175
0.248516
0.239102
0.229934
0.220816
0.211895
0.204925
0.367065
0.358331
0.360134
0.365003
0.369358
0.371575
0.371107
0.368115
0.363007
0.356218
0.348136
0.339084
0.329333
0.319106
0.308583
0.297914
0.287219
0.276596
0.26612
0.255861
0.245891
0.236213
0.226645
0.217335
0.209872
0.39559
0.386101
0.386808
0.390167
0.392805
0.393279
0.391135
0.386576
0.380018
0.371892
0.362577
0.352391
0.341598
0.33041
0.319006
0.307526
0.296087
0.284781
0.273677
0.262842
0.252341
0.242173
0.232175
0.222491
0.214547
0.422845
0.412631
0.412273
0.41417
0.415154
0.413953
0.410204
0.404145
0.396199
0.386793
0.3763
0.36503
0.35324
0.341136
0.328889
0.316636
0.304487
0.292528
0.280827
0.269442
0.258435
0.2478
0.237393
0.227353
0.218943
0.448729
0.437821
0.436436
0.436929
0.436329
0.43353
0.428252
0.420765
0.411499
0.400876
0.389263
0.376964
0.364226
0.351252
0.338206
0.325218
0.312395
0.299818
0.28755
0.275645
0.264157
0.253081
0.242289
0.23191
0.223052
0.473145
0.461577
0.45921
0.458363
0.456259
0.451946
0.445221
0.436384
0.42587
0.414098
0.401428
0.388155
0.374523
0.360728
0.346928
0.333249
0.319791
0.306632
0.293829
0.281434
0.269494
0.258003
0.246849
0.23615
0.226866
0.496
0.483812
0.480513
0.4784
0.474877
0.469139
0.461055
0.450952
0.439268
0.426418
0.412756
0.398572
0.384103
0.369539
0.355033
0.340706
0.326654
0.312949
0.299648
0.286795
0.274432
0.262554
0.251064
0.240065
0.230377
0.51721
0.504442
0.500267
0.496967
0.49212
0.485053
0.475704
0.464421
0.451649
0.437797
0.423213
0.408182
0.392934
0.377656
0.362495
0.347567
0.332964
0.318754
0.30499
0.291712
0.278959
0.266722
0.254921
0.243645
0.23358
0.536694
0.52339
0.518402
0.514001
0.507928
0.499635
0.489118
0.476749
0.462974
0.448199
0.432766
0.416956
0.400993
0.385057
0.369294
0.353813
0.338704
0.32403
0.309841
0.296174
0.283062
0.270497
0.258412
0.246882
0.236466
0.55438
0.540585
0.53485
0.529441
0.522248
0.512836
0.501255
0.487896
0.473208
0.457592
0.441387
0.424867
0.408252
0.39172
0.375408
0.359426
0.343857
0.328762
0.314188
0.300168
0.28673
0.273869
0.261527
0.249766
0.239032
0.5702
0.555963
0.549553
0.543233
0.53503
0.524611
0.512074
0.497825
0.482316
0.465946
0.449047
0.43189
0.414692
0.397624
0.380821
0.364389
0.348408
0.332937
0.318018
0.303683
0.289954
0.276828
0.264259
0.252291
0.24127
0.584095
0.569466
0.562455
0.555328
0.546231
0.534921
0.521538
0.506504
0.49027
0.473233
0.455722
0.438004
0.42029
0.40275
0.385515
0.368688
0.352345
0.336542
0.321321
0.306708
0.292725
0.279367
0.266599
0.254451
0.243177
0.596011
0.581042
0.57351
0.565682
0.555811
0.54373
0.529616
0.513903
0.497042
0.47943
0.461391
0.443188
0.42503
0.407083
0.389476
0.372308
0.355654
0.339567
0.324086
0.309236
0.295035
0.281479
0.268541
0.256239
0.244749
0.605902
0.590647
0.582677
0.574259
0.563736
0.551008
0.53628
0.519996
0.502611
0.484516
0.466035
0.447426
0.428896
0.410609
0.392691
0.375239
0.358325
0.342002
0.326305
0.311259
0.296877
0.283157
0.270079
0.25765
0.245981
0.613729
0.598243
0.589919
0.581026
0.569979
0.556728
0.541506
0.524764
0.506957
0.488474
0.469637
0.450703
0.431876
0.413316
0.39515
0.377471
0.360351
0.343839
0.327972
0.312769
0.298245
0.284396
0.271209
0.258679
0.24687
0.61946
0.6038
0.595209
0.585957
0.574515
0.560871
0.545276
0.528189
0.510063
0.491289
0.472185
0.453007
0.433957
0.415195
0.396843
0.378996
0.361723
0.345073
0.329079
0.313763
0.299134
0.285193
0.271926
0.259324
0.247414
0.623073
0.607295
0.598525
0.589034
0.577327
0.563419
0.547575
0.530257
0.511919
0.492951
0.47367
0.45433
0.435133
0.416237
0.397765
0.379809
0.362437
0.345697
0.329624
0.314235
0.299542
0.285542
0.272227
0.259582
0.247613
0.548393
0.530959
0.512516
0.493452
0.474084
0.454665
0.435398
0.416439
0.39791
0.379904
0.362488
0.345709
0.329602
0.314184
0.299464
0.285444
0.272112
0.259452
0.247465
0.101195
0.107737
0.103554
0.114163
0.110193
0.123187
0.132627
0.137239
0.14069
0.141765
0.142057
0.140914
0.139262
0.136775
0.13404
0.130884
0.127695
0.124367
0.121161
0.117998
0.115056
0.112269
0.10976
0.107468
0.105483
0.10375
0.102348
0.101235
0.100481
0.100075
0.116786
0.125344
0.131044
0.135079
0.136952
0.137839
0.137316
0.136177
0.134175
0.131849
0.12906
0.126179
0.12312
0.120136
0.117163
0.114377
0.111721
0.109316
0.107112
0.105196
0.103519
0.102159
0.101078
0.100345
0.0999485
0.2351
0.222784
0.210985
0.200075
0.189788
0.180316
0.171427
0.16326
0.155666
0.148746
0.142347
0.13655
0.131223
0.126446
0.122088
0.118231
0.114742
0.111707
0.109017
0.106743
0.104776
0.10322
0.101971
0.101144
0.100688
0.23527
0.222967
0.211178
0.200279
0.18998
0.180496
0.171599
0.16343
0.155827
0.148898
0.142489
0.136683
0.131347
0.126561
0.122195
0.118329
0.114832
0.111789
0.109095
0.106813
0.104844
0.103283
0.102031
0.101202
0.100745
0.235156
0.222918
0.211177
0.20032
0.190045
0.180578
0.171691
0.163533
0.155934
0.149006
0.142595
0.136787
0.131447
0.126657
0.122285
0.118413
0.11491
0.111859
0.109163
0.106876
0.104903
0.10334
0.102085
0.101254
0.100796
0.23476
0.222639
0.210986
0.200205
0.189983
0.180558
0.171702
0.163569
0.155988
0.149071
0.142666
0.136862
0.131523
0.126732
0.122358
0.118483
0.114977
0.111919
0.109222
0.10693
0.104956
0.10339
0.102134
0.1013
0.100842
0.234079
0.222129
0.210605
0.199932
0.189793
0.180434
0.171629
0.163537
0.155985
0.14909
0.142701
0.136908
0.131575
0.126788
0.122415
0.11854
0.115031
0.111968
0.109271
0.106976
0.105002
0.103433
0.102176
0.101341
0.100883
0.233116
0.221389
0.210033
0.199504
0.189475
0.180207
0.171472
0.163437
0.155928
0.149066
0.142699
0.136924
0.131602
0.126824
0.122455
0.118582
0.115075
0.112005
0.109309
0.107016
0.10504
0.10347
0.102212
0.101376
0.100918
0.231872
0.220418
0.20927
0.19892
0.18903
0.179877
0.171231
0.163269
0.155815
0.148996
0.142661
0.13691
0.131605
0.12684
0.122478
0.118611
0.115106
0.112033
0.109334
0.107048
0.105071
0.103501
0.102241
0.101405
0.100947
0.230348
0.219219
0.208319
0.198182
0.188458
0.179445
0.170907
0.163034
0.155647
0.148883
0.142586
0.136868
0.131584
0.126835
0.122484
0.118626
0.115126
0.112053
0.109356
0.107072
0.105095
0.103524
0.102265
0.101429
0.100971
0.228546
0.217794
0.20718
0.19729
0.18776
0.178911
0.170499
0.162732
0.155424
0.148725
0.142476
0.136795
0.131539
0.126811
0.122474
0.118626
0.115135
0.112066
0.109372
0.107088
0.105112
0.103542
0.102283
0.101446
0.10099
0.22647
0.216143
0.205854
0.196246
0.186938
0.178275
0.17001
0.162363
0.155148
0.148523
0.142329
0.136694
0.131469
0.126767
0.122448
0.118613
0.115132
0.112073
0.10938
0.107097
0.105122
0.103552
0.102295
0.101459
0.101003
0.224122
0.21427
0.204343
0.195052
0.185991
0.17754
0.169438
0.161928
0.154817
0.148278
0.142148
0.136563
0.131376
0.126703
0.122405
0.118586
0.115116
0.112078
0.109381
0.107098
0.105125
0.103557
0.102301
0.101465
0.10101
0.221505
0.212176
0.20265
0.193708
0.184922
0.176704
0.168785
0.161427
0.154432
0.147989
0.14193
0.136404
0.131259
0.12662
0.122346
0.118546
0.115089
0.112077
0.109373
0.107091
0.105121
0.103555
0.102301
0.101466
0.101012
0.218623
0.209864
0.200775
0.192216
0.183732
0.175771
0.168052
0.160862
0.153995
0.147658
0.141678
0.136216
0.131118
0.126517
0.12227
0.118491
0.11505
0.112062
0.109357
0.107076
0.10511
0.103546
0.102295
0.101461
0.101009
0.21548
0.207338
0.198721
0.190578
0.182421
0.17474
0.167239
0.160232
0.153505
0.147284
0.141391
0.136
0.130955
0.126395
0.122178
0.118423
0.114999
0.11203
0.109332
0.107054
0.105093
0.103532
0.102284
0.101451
0.101
0.21208
0.204599
0.19649
0.188795
0.18099
0.173612
0.166347
0.159538
0.152963
0.146868
0.14107
0.135756
0.130768
0.126254
0.122071
0.118341
0.114937
0.111984
0.109297
0.107024
0.105068
0.103511
0.102266
0.101435
0.100986
0.208428
0.201651
0.194084
0.18687
0.179442
0.17239
0.165377
0.158782
0.15237
0.146411
0.140715
0.135485
0.130558
0.126094
0.121947
0.118246
0.114863
0.111927
0.109255
0.106986
0.105037
0.103484
0.102243
0.101414
0.100967
0.204528
0.198498
0.191506
0.184805
0.177778
0.171073
0.164329
0.157963
0.151726
0.145912
0.140326
0.135186
0.130326
0.125915
0.121809
0.118138
0.114778
0.111858
0.1092
0.106941
0.105
0.103451
0.102214
0.101388
0.100942
0.200386
0.195143
0.188758
0.182601
0.175999
0.169664
0.163206
0.157084
0.151032
0.145374
0.139905
0.13486
0.130072
0.125718
0.121654
0.118017
0.114682
0.111777
0.109118
0.106889
0.104956
0.103412
0.10218
0.101356
0.100913
0.196008
0.191591
0.185843
0.180261
0.174106
0.168164
0.162007
0.156144
0.150289
0.144795
0.139451
0.134507
0.129797
0.125503
0.121485
0.117883
0.114575
0.111683
0.109048
0.106831
0.104906
0.103367
0.10214
0.101319
0.100878
0.191397
0.187845
0.182762
0.177788
0.172102
0.166573
0.160735
0.155144
0.149498
0.144177
0.138965
0.134129
0.129499
0.12527
0.121301
0.117737
0.114457
0.111582
0.108968
0.106764
0.10485
0.103316
0.102095
0.101277
0.100838
0.186561
0.18391
0.17952
0.175183
0.169988
0.164894
0.15939
0.154085
0.148658
0.14352
0.138448
0.133724
0.129181
0.12502
0.121103
0.117578
0.114329
0.111474
0.108886
0.106683
0.104789
0.10326
0.102044
0.10123
0.100793
0.181502
0.17979
0.176117
0.172449
0.167765
0.163128
0.157973
0.152968
0.147772
0.142825
0.1379
0.133295
0.128842
0.124752
0.12089
0.117407
0.114191
0.111358
0.108793
0.106594
0.104723
0.103198
0.101989
0.101178
0.100744
0.176224
0.17549
0.172556
0.169588
0.165436
0.161276
0.156486
0.151794
0.14684
0.142093
0.137321
0.13284
0.128483
0.124468
0.120663
0.117224
0.114042
0.111234
0.108691
0.106542
0.104648
0.103131
0.101928
0.101121
0.100689
0.170729
0.171013
0.16884
0.166603
0.163003
0.159338
0.15493
0.150564
0.145862
0.141323
0.136713
0.132361
0.128104
0.124167
0.120423
0.11703
0.113884
0.111101
0.108581
0.10644
0.104558
0.10306
0.101862
0.10106
0.10063
0.165015
0.166363
0.16497
0.163496
0.160467
0.157318
0.153307
0.149279
0.144841
0.140518
0.136076
0.131858
0.127705
0.12385
0.120169
0.116824
0.113716
0.110961
0.108464
0.106335
0.104477
0.102982
0.101791
0.100993
0.100566
0.159074
0.161541
0.160948
0.160266
0.157831
0.155213
0.151616
0.147938
0.143774
0.139676
0.135409
0.131331
0.127287
0.123516
0.119901
0.116607
0.113538
0.110812
0.10834
0.106225
0.104378
0.102894
0.101715
0.100922
0.100497
0.152897
0.156551
0.156781
0.156915
0.155097
0.153026
0.149858
0.146541
0.142662
0.138796
0.134712
0.13078
0.126849
0.123166
0.11962
0.116378
0.11335
0.110655
0.108208
0.10611
0.104276
0.10281
0.101635
0.100847
0.100424
0.146483
0.151399
0.152483
0.15346
0.152286
0.150777
0.148053
0.145108
0.141523
0.137896
0.133999
0.130217
0.126401
0.122809
0.119333
0.116145
0.113158
0.110494
0.108072
0.105992
0.104174
0.102713
0.101552
0.100767
0.100347
0.139704
0.145999
0.148009
0.149884
0.149389
0.148468
0.146209
0.143651
0.14037
0.13699
0.133285
0.129654
0.125956
0.122454
0.119047
0.115912
0.112966
0.110331
0.107935
0.105871
0.104068
0.102616
0.101466
0.100683
0.100265
0.132235
0.140142
0.143203
0.145959
0.146174
0.145858
0.144094
0.141949
0.139002
0.135895
0.132408
0.128952
0.125392
0.121999
0.118678
0.11561
0.112718
0.110125
0.107762
0.105723
0.103943
0.102506
0.101367
0.100596
0.100179
)
;

boundaryField
{
    inlet
    {
        type            zeroGradient;
    }
    outlet
    {
        type            fixedValue;
        value           nonuniform 0();
    }
    cylinder
    {
        type            zeroGradient;
    }
    top
    {
        type            symmetryPlane;
    }
    bottom
    {
        type            symmetryPlane;
    }
    defaultFaces
    {
        type            empty;
    }
    procBoundary8to4
    {
        type            processor;
        value           nonuniform List<scalar> 
51
(
0.624549
0.608711
0.599853
0.590243
0.578402
0.564363
0.564363
0.547724
0.530291
0.511849
0.492787
0.473423
0.45401
0.434749
0.415797
0.397277
0.37928
0.361874
0.345107
0.329012
0.313607
0.298902
0.284895
0.271577
0.258931
0.246966
0.234626
0.222345
0.21058
0.19969
0.189456
0.180019
0.171154
0.163013
0.155443
0.148545
0.142165
0.136385
0.131072
0.126308
0.121964
0.118117
0.114639
0.111614
0.10893
0.106663
0.104702
0.103151
0.101905
0.10108
0.100625
)
;
    }
    procBoundary8to9
    {
        type            processor;
        value           nonuniform List<scalar> 
29
(
-0.10069
-0.0887723
-0.135834
-0.119963
-0.10565
-0.10565
-0.18513
-0.163575
-0.144224
-0.144224
-0.225433
-0.198836
-0.198836
-0.276604
-0.243816
-0.243816
-0.33943
-0.300508
-0.300508
-0.367265
-0.367265
-0.430877
-0.394145
-0.394145
-0.465128
-0.446331
-0.446331
-0.462541
-0.462541
)
;
    }
    procBoundary8to12
    {
        type            processor;
        value           nonuniform List<scalar> 
55
(
-0.0705127
-0.0628703
-0.0550382
-0.0470204
-0.0388213
-0.0388213
-0.0225615
-0.0144219
-0.00614412
0.0022633
0.0022633
0.0161459
0.024334
0.032605
0.032605
0.0448237
0.0527893
0.0607828
0.0607828
0.0700957
0.0775538
0.0849633
0.0849633
0.0878865
0.0947372
0.0947372
0.0963417
0.0963417
0.0989751
0.105509
0.111449
0.119235
0.125307
0.129699
0.132188
0.13358
0.133615
0.132957
0.131423
0.129504
0.127087
0.124526
0.121749
0.119004
0.116236
0.11362
0.111109
0.108822
0.106715
0.104877
0.103264
0.101951
0.100905
0.100195
0.0998107
)
;
    }
}


// ************************************************************************* //
