/*--------------------------------*- C++ -*----------------------------------*\
  =========                 |
  \\      /  F ield         | OpenFOAM: The Open Source CFD Toolbox
   \\    /   O peration     | Website:  https://openfoam.org
    \\  /    A nd           | Version:  7
     \\/     M anipulation  |
\*---------------------------------------------------------------------------*/
FoamFile
{
    version     2.0;
    format      ascii;
    class       volScalarField;
    location    "15";
    object      p;
}
// * * * * * * * * * * * * * * * * * * * * * * * * * * * * * * * * * * * * * //

dimensions      [0 2 -2 0 0 0 0];

internalField   nonuniform List<scalar> 
5650
(
-0.321407
-0.315272
-0.307894
-0.29938
-0.289866
-0.279523
-0.26862
-0.257577
-0.24595
-0.321791
-0.315618
-0.308206
-0.299659
-0.290109
-0.27972
-0.268762
-0.257665
-0.245747
-0.322553
-0.316303
-0.308824
-0.300211
-0.29059
-0.28011
-0.269042
-0.257841
-0.245341
-0.317316
-0.309735
-0.301025
-0.291299
-0.280682
-0.269452
-0.258106
-0.244734
-0.318639
-0.310922
-0.302082
-0.292217
-0.281427
-0.269981
-0.25846
-0.24393
-0.320251
-0.312364
-0.303363
-0.293327
-0.282327
-0.270616
-0.258901
-0.242936
-0.322126
-0.314035
-0.304843
-0.294607
-0.283363
-0.271341
-0.259429
-0.241761
-0.324238
-0.31591
-0.306495
-0.296031
-0.284516
-0.272139
-0.260039
-0.240422
-0.326559
-0.31796
-0.308295
-0.297577
-0.285766
-0.272995
-0.260728
-0.238943
-0.329066
-0.320162
-0.310216
-0.29922
-0.287094
-0.273893
-0.261484
-0.237355
-0.32249
-0.312237
-0.300938
-0.288479
-0.274818
-0.262293
-0.235698
-0.324926
-0.314336
-0.302712
-0.289905
-0.27576
-0.263132
-0.234019
-0.327453
-0.316499
-0.304526
-0.291355
-0.276709
-0.263968
-0.232374
-0.330059
-0.318714
-0.306367
-0.292815
-0.277661
-0.264757
-0.230821
-0.320973
-0.308226
-0.294271
-0.278616
-0.265451
-0.229439
-0.323269
-0.310096
-0.295713
-0.279577
-0.265993
-0.228326
-0.325598
-0.311969
-0.297127
-0.280549
-0.266275
-0.227459
-0.313838
-0.298517
-0.281558
-0.266093
-0.226563
-0.315694
-0.2999
-0.282682
-0.265474
-0.226438
-0.301265
-0.283966
-0.265421
-0.232759
-0.302501
-0.285136
-0.26676
-0.25294
-0.285819
-0.266865
-0.257461
-0.265976
-0.256712
-0.264443
-0.253987
-0.249955
-0.249955
-0.264443
-0.253987
-0.285828
-0.265976
-0.256712
-0.285819
-0.266865
-0.257461
-0.302501
-0.285136
-0.26676
-0.25294
-0.301265
-0.283966
-0.265421
-0.232759
-0.315694
-0.2999
-0.282682
-0.265474
-0.226438
-0.313838
-0.298517
-0.281558
-0.266093
-0.226563
-0.325598
-0.311969
-0.297127
-0.280549
-0.266275
-0.227459
-0.323269
-0.310096
-0.295713
-0.279577
-0.265993
-0.228326
-0.320973
-0.308226
-0.294271
-0.278616
-0.265451
-0.229439
-0.330059
-0.318714
-0.306367
-0.292815
-0.277661
-0.264757
-0.230821
-0.327453
-0.316499
-0.304526
-0.291355
-0.276709
-0.263968
-0.232374
-0.324926
-0.314336
-0.302712
-0.289905
-0.27576
-0.263132
-0.234019
-0.32249
-0.312237
-0.300938
-0.288479
-0.274818
-0.262293
-0.235698
-0.329066
-0.320162
-0.310216
-0.29922
-0.287094
-0.273893
-0.261484
-0.237355
-0.326559
-0.31796
-0.308295
-0.297577
-0.285766
-0.272995
-0.260728
-0.238943
-0.324238
-0.31591
-0.306495
-0.296031
-0.284516
-0.272139
-0.260039
-0.240422
-0.322126
-0.314035
-0.304843
-0.294607
-0.283363
-0.271341
-0.259429
-0.241761
-0.320251
-0.312364
-0.303363
-0.293327
-0.282327
-0.270616
-0.258901
-0.242936
-0.318639
-0.310922
-0.302082
-0.292217
-0.281427
-0.269981
-0.25846
-0.24393
-0.317316
-0.309735
-0.301025
-0.291299
-0.280682
-0.269452
-0.258106
-0.244734
-0.322553
-0.316303
-0.308824
-0.300211
-0.29059
-0.28011
-0.269042
-0.257841
-0.245341
-0.321791
-0.315618
-0.308206
-0.299659
-0.290109
-0.27972
-0.268762
-0.257665
-0.245747
-0.321407
-0.315272
-0.307894
-0.29938
-0.289866
-0.279523
-0.26862
-0.257577
-0.24595
-0.238443
-0.231322
-0.223925
-0.216479
-0.20892
-0.201272
-0.193567
-0.185828
-0.178077
-0.170337
-0.162633
-0.154989
-0.14743
-0.139982
-0.132667
-0.125509
-0.118528
-0.111743
-0.10517
-0.098824
-0.0927161
-0.0868548
-0.0812462
-0.0758935
-0.0707974
-0.0659561
-0.0613656
-0.0570197
-0.0529102
-0.0490273
-0.0453601
-0.0418955
-0.0386212
-0.0355208
-0.0325836
-0.0297861
-0.0271291
-0.0245653
-0.0221403
-0.0197254
-0.0175151
-0.0151202
-0.0131968
-0.0105674
-0.00924044
-0.00578119
-0.00596152
-0.000195269
-0.00428077
0.00750306
-0.238858
-0.231639
-0.224161
-0.216696
-0.209121
-0.201457
-0.193742
-0.185993
-0.178233
-0.170486
-0.162774
-0.155124
-0.147559
-0.140104
-0.132784
-0.125619
-0.118632
-0.111842
-0.105264
-0.0989123
-0.0927993
-0.0869331
-0.0813198
-0.0759626
-0.0708622
-0.0660168
-0.0614223
-0.0570727
-0.0529597
-0.0490736
-0.0454032
-0.0419358
-0.0386589
-0.035556
-0.0326166
-0.029817
-0.0271582
-0.0245927
-0.0221661
-0.0197499
-0.0175381
-0.0151423
-0.0132172
-0.0105879
-0.00925779
-0.00580134
-0.00597379
-0.000218283
-0.00428165
0.00746622
-0.239681
-0.23227
-0.224632
-0.217128
-0.209519
-0.201826
-0.194088
-0.18632
-0.178544
-0.170781
-0.163056
-0.155392
-0.147814
-0.140347
-0.133014
-0.125838
-0.11884
-0.112039
-0.10545
-0.0990882
-0.0929652
-0.0870893
-0.0814666
-0.0761004
-0.0709914
-0.0661378
-0.0615356
-0.0571785
-0.0530585
-0.0491659
-0.0454894
-0.0420163
-0.038734
-0.0356263
-0.0326824
-0.0298787
-0.0272161
-0.0246473
-0.0222175
-0.0197986
-0.017584
-0.0151864
-0.0132579
-0.0106287
-0.0092923
-0.00584142
-0.00599818
-0.000264059
-0.00428336
0.00739295
-0.240901
-0.233212
-0.225332
-0.217769
-0.210111
-0.202372
-0.194599
-0.186804
-0.179003
-0.171217
-0.163471
-0.155788
-0.148191
-0.140707
-0.133356
-0.126164
-0.119149
-0.112331
-0.105727
-0.0993504
-0.0932125
-0.0873223
-0.0816858
-0.0763063
-0.0711846
-0.0663188
-0.0617049
-0.0573368
-0.0532064
-0.049304
-0.0456183
-0.0421367
-0.0388465
-0.0357314
-0.0327808
-0.0299709
-0.0273027
-0.0247287
-0.0222942
-0.0198712
-0.0176523
-0.015252
-0.0133184
-0.0106895
-0.0093436
-0.00590099
-0.00603438
-0.000332096
-0.0042858
0.00728402
-0.242493
-0.234457
-0.226254
-0.21861
-0.210886
-0.203087
-0.195268
-0.187436
-0.179602
-0.171788
-0.164015
-0.156306
-0.148686
-0.141178
-0.133806
-0.126591
-0.119556
-0.112717
-0.106093
-0.0996967
-0.0935397
-0.0876309
-0.0819763
-0.0765794
-0.0714408
-0.066559
-0.0619298
-0.0575471
-0.0534029
-0.0494874
-0.0457896
-0.0422966
-0.0389958
-0.035871
-0.0329113
-0.0300931
-0.0274174
-0.0248365
-0.0223957
-0.0199673
-0.0177425
-0.0153387
-0.0133982
-0.0107695
-0.00941115
-0.00597943
-0.00608195
-0.000421662
-0.0042888
0.00714061
-0.244426
-0.235993
-0.227386
-0.219641
-0.211835
-0.203959
-0.196083
-0.188205
-0.180331
-0.172481
-0.164676
-0.156938
-0.14929
-0.141755
-0.134356
-0.127116
-0.120056
-0.113193
-0.106545
-0.100125
-0.0939444
-0.0880131
-0.0823365
-0.0769183
-0.0717591
-0.0668575
-0.0622093
-0.0578086
-0.0536473
-0.0497157
-0.0460027
-0.0424955
-0.0391815
-0.0360444
-0.0330735
-0.0302449
-0.0275596
-0.0249702
-0.0225213
-0.020086
-0.017854
-0.0154456
-0.0134966
-0.0108682
-0.00949425
-0.00607591
-0.00614032
-0.000531807
-0.00429217
0.00696424
-0.246657
-0.237803
-0.228714
-0.220846
-0.212943
-0.204975
-0.197031
-0.189097
-0.181177
-0.173287
-0.165446
-0.157674
-0.149994
-0.142429
-0.135001
-0.127733
-0.120644
-0.113754
-0.107078
-0.100631
-0.0944241
-0.0884666
-0.0827646
-0.0773214
-0.0721381
-0.0672132
-0.0625427
-0.0581206
-0.053939
-0.0499881
-0.046257
-0.0427327
-0.0394029
-0.0362511
-0.0332666
-0.0304255
-0.0277288
-0.0251289
-0.0226703
-0.0202267
-0.017986
-0.015572
-0.0136127
-0.0109844
-0.00959208
-0.00618947
-0.00620881
-0.000661395
-0.00429568
0.00675677
-0.249133
-0.239859
-0.230218
-0.222206
-0.214193
-0.206118
-0.198094
-0.190098
-0.182126
-0.174191
-0.16631
-0.158502
-0.150789
-0.143191
-0.135733
-0.128434
-0.121315
-0.114394
-0.107689
-0.101212
-0.0949757
-0.088989
-0.0832582
-0.077787
-0.0725763
-0.0676247
-0.0629286
-0.0584819
-0.0542768
-0.0503037
-0.0465515
-0.0430075
-0.0396592
-0.0364902
-0.0334898
-0.030634
-0.0279239
-0.0253117
-0.0228418
-0.0203884
-0.0181373
-0.0157168
-0.0137455
-0.0111173
-0.00970367
-0.00631898
-0.00628664
-0.000809121
-0.00429909
0.00652033
-0.251792
-0.242122
-0.231871
-0.223699
-0.215563
-0.207368
-0.199254
-0.191189
-0.18316
-0.175177
-0.167255
-0.15941
-0.151662
-0.144033
-0.136542
-0.129212
-0.122062
-0.11511
-0.108372
-0.101864
-0.0955957
-0.0895773
-0.0838151
-0.0783128
-0.0730717
-0.0680905
-0.0633657
-0.0588914
-0.0546598
-0.0506615
-0.0468854
-0.043319
-0.0399496
-0.0367609
-0.0337423
-0.0308697
-0.0281441
-0.0255178
-0.0230348
-0.0205701
-0.0183071
-0.015879
-0.0138939
-0.0112656
-0.00982801
-0.00646321
-0.00637297
-0.000973551
-0.00430212
0.00625731
-0.254554
-0.244538
-0.233639
-0.225295
-0.217026
-0.208699
-0.200489
-0.19235
-0.184261
-0.17623
-0.168267
-0.160385
-0.152604
-0.144942
-0.137421
-0.130059
-0.122878
-0.115894
-0.109124
-0.102582
-0.0962805
-0.0902284
-0.0844324
-0.0788966
-0.0736224
-0.0686089
-0.0638525
-0.0593476
-0.0550867
-0.0510603
-0.0472577
-0.043666
-0.040273
-0.0370622
-0.034023
-0.0311314
-0.0283883
-0.0257461
-0.0232481
-0.0207706
-0.0184942
-0.0160573
-0.0140569
-0.0114281
-0.00996397
-0.00662087
-0.00646689
-0.00115315
-0.00430454
0.00597033
-0.257323
-0.247036
-0.23548
-0.226957
-0.21855
-0.210086
-0.201773
-0.193559
-0.18541
-0.177331
-0.169328
-0.161413
-0.153601
-0.14591
-0.138359
-0.130968
-0.123756
-0.11674
-0.109938
-0.103362
-0.097026
-0.0909387
-0.0851072
-0.0795358
-0.0742262
-0.0691777
-0.0643872
-0.0598491
-0.0555561
-0.0514989
-0.0476669
-0.0440475
-0.0406283
-0.0373929
-0.034331
-0.0314182
-0.0286555
-0.0259955
-0.0234808
-0.0209889
-0.0186973
-0.0162506
-0.0142331
-0.0116036
-0.0101104
-0.00679061
-0.0065675
-0.00134632
-0.00430608
0.00566214
-0.25999
-0.249527
-0.237341
-0.228643
-0.220098
-0.211495
-0.203081
-0.194791
-0.186585
-0.178462
-0.170424
-0.162479
-0.15464
-0.146924
-0.139347
-0.131929
-0.124689
-0.117643
-0.110808
-0.104199
-0.0978281
-0.0917047
-0.0858363
-0.0802276
-0.0748806
-0.069795
-0.0649679
-0.060394
-0.0560664
-0.0519758
-0.0481119
-0.0444621
-0.0410142
-0.037752
-0.0346649
-0.0317287
-0.0289445
-0.0262647
-0.0237315
-0.0212236
-0.0189153
-0.0164577
-0.0144215
-0.0117908
-0.0102662
-0.00697106
-0.00667385
-0.00155141
-0.00430655
0.00533563
-0.26243
-0.2519
-0.239155
-0.230301
-0.221624
-0.212891
-0.204381
-0.196022
-0.187765
-0.179605
-0.171539
-0.16357
-0.155711
-0.147974
-0.140376
-0.132935
-0.125669
-0.118595
-0.11173
-0.105088
-0.0986826
-0.0925227
-0.0866165
-0.0809692
-0.0755833
-0.0704586
-0.0655927
-0.0609808
-0.0566161
-0.0524896
-0.0485913
-0.0449086
-0.0414297
-0.0381381
-0.0350236
-0.032062
-0.0292541
-0.0265526
-0.0239991
-0.0214737
-0.0191471
-0.0166772
-0.0146207
-0.0119884
-0.0104302
-0.00716084
-0.00678505
-0.00176679
-0.00430577
0.00499372
-0.264509
-0.254026
-0.240845
-0.231867
-0.223076
-0.214233
-0.205642
-0.197226
-0.188929
-0.180742
-0.172656
-0.164673
-0.1568
-0.14905
-0.141436
-0.133977
-0.12669
-0.119591
-0.112698
-0.106025
-0.0995853
-0.0933891
-0.0874447
-0.0817579
-0.0763315
-0.0711661
-0.0662595
-0.0616075
-0.0572034
-0.0530387
-0.0491035
-0.0453856
-0.0418732
-0.0385501
-0.0354059
-0.0324167
-0.029583
-0.0268581
-0.0242825
-0.0217379
-0.0193913
-0.0169081
-0.0148295
-0.0121952
-0.0106012
-0.00735863
-0.0069002
-0.00199084
-0.00430359
0.00463938
-0.26609
-0.255762
-0.242324
-0.23327
-0.224394
-0.215473
-0.206827
-0.198372
-0.190052
-0.181851
-0.173759
-0.165772
-0.157895
-0.150139
-0.142518
-0.135046
-0.127743
-0.120623
-0.113705
-0.107003
-0.10053
-0.0942985
-0.0883161
-0.0825892
-0.0771216
-0.0719141
-0.0669653
-0.0622712
-0.0578257
-0.0536206
-0.0496464
-0.0458911
-0.042343
-0.0389861
-0.0358102
-0.0327912
-0.02993
-0.0271797
-0.0245802
-0.0220149
-0.0196467
-0.017149
-0.0150469
-0.0124099
-0.0107782
-0.0075631
-0.00701848
-0.00222193
-0.00429997
0.00427554
-0.26703
-0.256931
-0.243474
-0.234411
-0.225496
-0.216552
-0.207889
-0.199425
-0.191104
-0.182908
-0.174824
-0.166847
-0.158978
-0.151227
-0.143605
-0.136129
-0.128815
-0.12168
-0.114741
-0.108013
-0.10151
-0.0952436
-0.0892238
-0.0834572
-0.0779479
-0.0726976
-0.0677054
-0.0629678
-0.0584794
-0.0542322
-0.0502171
-0.0464223
-0.0428366
-0.0394439
-0.0362344
-0.0331839
-0.0302932
-0.0275158
-0.0248908
-0.0223033
-0.0199121
-0.0173987
-0.0152716
-0.0126314
-0.0109602
-0.00777305
-0.00713914
-0.00245857
-0.00429494
0.00390502
-0.26706
-0.257287
-0.24417
-0.235209
-0.226333
-0.217444
-0.208817
-0.200379
-0.192085
-0.183917
-0.175858
-0.167904
-0.160055
-0.152318
-0.144705
-0.137231
-0.129913
-0.122767
-0.11581
-0.109059
-0.102527
-0.0962284
-0.0901718
-0.0843652
-0.0788138
-0.0735197
-0.0684827
-0.0637001
-0.0591668
-0.0548755
-0.0508173
-0.0469809
-0.0433554
-0.0399248
-0.0366794
-0.0335953
-0.0306732
-0.0278669
-0.0252145
-0.0226032
-0.0201872
-0.017657
-0.0155033
-0.012859
-0.0111466
-0.00798771
-0.0072617
-0.00269961
-0.00428843
0.00353031
-0.266024
-0.256795
-0.244473
-0.235725
-0.226972
-0.218223
-0.209686
-0.201311
-0.19307
-0.184947
-0.176928
-0.169007
-0.161186
-0.15347
-0.145872
-0.138404
-0.131084
-0.123929
-0.116956
-0.110182
-0.103622
-0.0972883
-0.0911929
-0.0853439
-0.0797471
-0.0744058
-0.0693203
-0.0644887
-0.0599065
-0.0555669
-0.0514616
-0.0475797
-0.0439103
-0.040438
-0.0371532
-0.0340321
-0.0310753
-0.0282371
-0.0255546
-0.0229171
-0.020474
-0.0179249
-0.0157426
-0.0130931
-0.0113375
-0.00820662
-0.00738574
-0.00294433
-0.00428005
0.00315358
-0.264979
-0.255531
-0.24416
-0.235612
-0.227066
-0.218575
-0.210222
-0.201982
-0.19385
-0.185815
-0.177871
-0.170013
-0.162244
-0.154571
-0.147005
-0.139559
-0.132252
-0.125099
-0.11812
-0.11133
-0.104747
-0.0983834
-0.0922523
-0.0863627
-0.0807215
-0.0753328
-0.0701981
-0.065316
-0.060683
-0.0562928
-0.0521379
-0.0482076
-0.0444917
-0.0409749
-0.0376479
-0.034487
-0.031493
-0.0286204
-0.0259054
-0.0232396
-0.0207674
-0.0181979
-0.0159853
-0.0133296
-0.0115295
-0.00842644
-0.00750919
-0.00318966
-0.0042701
0.00277881
-0.260256
-0.25023
-0.241238
-0.233199
-0.225184
-0.217234
-0.209279
-0.20135
-0.19347
-0.185643
-0.177873
-0.170163
-0.16252
-0.154955
-0.147479
-0.14011
-0.132864
-0.12576
-0.118816
-0.112051
-0.105482
-0.0991243
-0.0929903
-0.0870909
-0.081434
-0.0760247
-0.0708654
-0.0659558
-0.0612931
-0.0568718
-0.052685
-0.0487225
-0.0449747
-0.0414266
-0.0380693
-0.0348793
-0.0318574
-0.0289589
-0.0262187
-0.0235311
-0.021035
-0.0184502
-0.0162107
-0.0135527
-0.0117103
-0.00863703
-0.00762747
-0.00342574
-0.00426462
0.00241482
-0.235961
-0.242899
-0.239514
-0.231958
-0.224316
-0.216629
-0.208832
-0.201021
-0.193235
-0.185484
-0.177777
-0.170122
-0.162526
-0.155002
-0.147563
-0.140226
-0.133007
-0.125928
-0.119005
-0.112259
-0.105705
-0.0993595
-0.0932358
-0.0873445
-0.0816937
-0.0762887
-0.0711321
-0.0662237
-0.0615609
-0.0571384
-0.0529494
-0.048984
-0.0452326
-0.0416803
-0.0383181
-0.0351232
-0.0320954
-0.0291916
-0.0264439
-0.0237516
-0.0212449
-0.0186582
-0.0164003
-0.0137494
-0.0118701
-0.00882917
-0.00773767
-0.00363666
-0.00427179
0.0020876
-0.228674
-0.235554
-0.234027
-0.227345
-0.220474
-0.21341
-0.206095
-0.198678
-0.191225
-0.183762
-0.176308
-0.168877
-0.161482
-0.15414
-0.146864
-0.139675
-0.13259
-0.125629
-0.118812
-0.112159
-0.105687
-0.0994115
-0.0933473
-0.0875057
-0.0818954
-0.0765228
-0.071391
-0.0665008
-0.0618503
-0.0574349
-0.0532486
-0.0492821
-0.0455264
-0.0419674
-0.0385963
-0.0353912
-0.0323516
-0.0294361
-0.0266747
-0.0239715
-0.0214485
-0.0188551
-0.0165748
-0.013929
-0.0120098
-0.00900469
-0.00782437
-0.00384038
-0.00425239
0.00176935
-0.224133
-0.228712
-0.227558
-0.22168
-0.215521
-0.209098
-0.202327
-0.195374
-0.188325
-0.181218
-0.17408
-0.166935
-0.159801
-0.152695
-0.145636
-0.138645
-0.131741
-0.124945
-0.118276
-0.111756
-0.105402
-0.0992311
-0.0932577
-0.0874941
-0.0819501
-0.0766326
-0.0715458
-0.0666913
-0.0620682
-0.0576728
-0.0534999
-0.0495412
-0.0457884
-0.0422284
-0.0388528
-0.0356409
-0.0325918
-0.0296665
-0.0268922
-0.0241792
-0.02164
-0.0190411
-0.0167378
-0.0141
-0.0121383
-0.00917632
-0.00789935
-0.00404956
-0.00421701
0.00143621
-0.219719
-0.222187
-0.221087
-0.215952
-0.21041
-0.204569
-0.198329
-0.191843
-0.185208
-0.178471
-0.171667
-0.164823
-0.157964
-0.151109
-0.144281
-0.137501
-0.130789
-0.124168
-0.117659
-0.111281
-0.105055
-0.0989965
-0.0931218
-0.0874437
-0.0819726
-0.0767163
-0.0716799
-0.066866
-0.0622745
-0.0579029
-0.0537466
-0.0497983
-0.0460506
-0.0424913
-0.0391125
-0.0358947
-0.0328367
-0.029902
-0.0271149
-0.0243921
-0.0218363
-0.0192321
-0.0169046
-0.0142754
-0.0122693
-0.0093522
-0.00797454
-0.00426399
-0.00417795
0.00109308
-0.214936
-0.215706
-0.214488
-0.210035
-0.205071
-0.199784
-0.194073
-0.188067
-0.181866
-0.175521
-0.169072
-0.162551
-0.155985
-0.149401
-0.14282
-0.136265
-0.12976
-0.123327
-0.116988
-0.110763
-0.104673
-0.0987361
-0.0929674
-0.0873809
-0.0819882
-0.0767978
-0.0718159
-0.0670459
-0.0624888
-0.058143
-0.0540049
-0.0500682
-0.0463264
-0.0427681
-0.0393862
-0.0361623
-0.033095
-0.0301503
-0.0273496
-0.0246162
-0.0220427
-0.0194323
-0.0170792
-0.0144578
-0.0124053
-0.00953358
-0.00805177
-0.00448334
-0.00413704
0.000742516
-0.209412
-0.209087
-0.207655
-0.20381
-0.199412
-0.194665
-0.189485
-0.183976
-0.17823
-0.172301
-0.166232
-0.160059
-0.153812
-0.14752
-0.141207
-0.134898
-0.128618
-0.122389
-0.116235
-0.110178
-0.104237
-0.0984314
-0.0927785
-0.0872926
-0.081986
-0.0768682
-0.0719464
-0.0672251
-0.0627063
-0.0583894
-0.054272
-0.0503488
-0.046614
-0.0430576
-0.0396728
-0.0364428
-0.0333658
-0.0304104
-0.0275952
-0.0248504
-0.0222579
-0.0196403
-0.0172603
-0.0146461
-0.0125453
-0.0097191
-0.00813007
-0.00470633
-0.00409422
0.000387567
-0.203069
-0.202215
-0.200579
-0.197279
-0.19344
-0.189222
-0.184573
-0.179569
-0.174295
-0.168803
-0.163136
-0.157335
-0.15143
-0.145452
-0.139429
-0.133385
-0.127348
-0.121341
-0.115388
-0.109512
-0.103733
-0.098072
-0.0925458
-0.0871701
-0.0819581
-0.0769205
-0.0720653
-0.0673982
-0.0629223
-0.0586382
-0.0545444
-0.0506369
-0.0469109
-0.0433574
-0.0399704
-0.0367345
-0.0336475
-0.0306811
-0.0278507
-0.0250935
-0.022481
-0.0198551
-0.0174469
-0.014839
-0.0126885
-0.00990759
-0.00820906
-0.00493134
-0.00405036
3.20102e-05
-0.195962
-0.195016
-0.193262
-0.190465
-0.18718
-0.183486
-0.179362
-0.174869
-0.170078
-0.165038
-0.159793
-0.154383
-0.14884
-0.143197
-0.137482
-0.131723
-0.125947
-0.120178
-0.114442
-0.108761
-0.103158
-0.0976533
-0.0922649
-0.0870094
-0.0819009
-0.0769512
-0.0721694
-0.0675624
-0.0631343
-0.058887
-0.0548202
-0.050931
-0.0472156
-0.0436664
-0.0402779
-0.0370364
-0.0339395
-0.0309616
-0.0281153
-0.0253449
-0.0227115
-0.0200763
-0.0176387
-0.015036
-0.0128345
-0.0100981
-0.00828884
-0.00515668
-0.00400685
-0.000319897
-0.188182
-0.187463
-0.185718
-0.183393
-0.180656
-0.177484
-0.17388
-0.169898
-0.165597
-0.161021
-0.156212
-0.151209
-0.146046
-0.140756
-0.135368
-0.129911
-0.124412
-0.118897
-0.113393
-0.107922
-0.102508
-0.0971714
-0.0919319
-0.0868066
-0.0818107
-0.076957
-0.0722558
-0.067715
-0.06334
-0.0591339
-0.0550976
-0.0512295
-0.0475268
-0.0439834
-0.0405944
-0.0373478
-0.034241
-0.0312513
-0.0283887
-0.0256042
-0.0229489
-0.0203033
-0.0178353
-0.0152365
-0.0129831
-0.0102898
-0.00836953
-0.00538055
-0.00396525
-0.000663573
-0.17986
-0.179575
-0.177969
-0.176101
-0.173902
-0.171248
-0.168157
-0.164684
-0.160875
-0.156769
-0.152406
-0.147823
-0.143054
-0.138132
-0.133086
-0.127947
-0.122741
-0.117496
-0.112238
-0.106991
-0.101778
-0.0966221
-0.0915426
-0.0865578
-0.0816838
-0.0769344
-0.072321
-0.0678528
-0.0635364
-0.0593761
-0.0553742
-0.0515303
-0.0478428
-0.0443068
-0.0409185
-0.0376674
-0.034551
-0.0315494
-0.0286699
-0.0258706
-0.0231927
-0.0205354
-0.0180363
-0.0154397
-0.0131342
-0.0104815
-0.00845133
-0.00560104
-0.00392718
-0.000994235
-0.171147
-0.171403
-0.170054
-0.168634
-0.166957
-0.164816
-0.162231
-0.159259
-0.15594
-0.152307
-0.148395
-0.14424
-0.139876
-0.135334
-0.130643
-0.125835
-0.120936
-0.115974
-0.110975
-0.105965
-0.100966
-0.096002
-0.0910934
-0.0862592
-0.0815163
-0.0768795
-0.0723615
-0.0679724
-0.0637204
-0.0596109
-0.0556474
-0.051831
-0.0481613
-0.0446348
-0.0412486
-0.0379939
-0.0348683
-0.0318547
-0.0289582
-0.0261434
-0.0234422
-0.0207719
-0.0182411
-0.0156449
-0.0132872
-0.0106723
-0.00853446
-0.0058162
-0.00389433
-0.00130708
-0.162194
-0.163025
-0.162023
-0.161045
-0.159872
-0.158233
-0.156142
-0.153661
-0.150826
-0.147663
-0.144203
-0.140481
-0.136527
-0.132373
-0.128048
-0.123582
-0.119001
-0.114334
-0.109606
-0.104843
-0.10007
-0.0953091
-0.0905817
-0.0859077
-0.0813049
-0.076789
-0.0723738
-0.0680707
-0.0638889
-0.0598352
-0.0559145
-0.0521292
-0.0484802
-0.0449654
-0.0415828
-0.0383256
-0.0351914
-0.032166
-0.0292524
-0.0264215
-0.0236966
-0.0210122
-0.0184492
-0.0158514
-0.0134421
-0.0108613
-0.00861922
-0.00602411
-0.00386836
-0.00159748
-0.153149
-0.154532
-0.153939
-0.153395
-0.152699
-0.151545
-0.149935
-0.147932
-0.145569
-0.142869
-0.139859
-0.136569
-0.133029
-0.129267
-0.125314
-0.121197
-0.116943
-0.11258
-0.108133
-0.103629
-0.0990908
-0.0945425
-0.0900059
-0.0855012
-0.081047
-0.07666
-0.0723549
-0.0681443
-0.0640386
-0.060046
-0.0561726
-0.0524221
-0.0487968
-0.0452962
-0.0419192
-0.0386608
-0.0355188
-0.0324819
-0.0295513
-0.0267039
-0.023955
-0.0212553
-0.0186601
-0.0160585
-0.0135985
-0.0110474
-0.00870595
-0.00622294
-0.00385079
-0.00186127
-0.144144
-0.146021
-0.145867
-0.145744
-0.145497
-0.144806
-0.143658
-0.142116
-0.140212
-0.137963
-0.135394
-0.132531
-0.129403
-0.126035
-0.122457
-0.118694
-0.114773
-0.11072
-0.106562
-0.102324
-0.0980299
-0.0937029
-0.0893654
-0.0850383
-0.0807406
-0.0764901
-0.0723021
-0.0681905
-0.0641667
-0.0602403
-0.0564186
-0.0527069
-0.0491086
-0.0456248
-0.0422554
-0.0389973
-0.0358487
-0.0328009
-0.0298536
-0.0269894
-0.0242166
-0.0215004
-0.018873
-0.0162655
-0.0137562
-0.0112298
-0.00879501
-0.00641105
-0.00384293
-0.00209491
-0.135295
-0.137589
-0.137878
-0.138157
-0.138325
-0.138068
-0.13736
-0.136259
-0.134794
-0.132982
-0.130843
-0.128399
-0.125677
-0.1227
-0.119495
-0.116088
-0.112503
-0.108765
-0.104902
-0.100936
-0.0968915
-0.0927927
-0.0886615
-0.0845191
-0.080385
-0.0762776
-0.0722133
-0.0682066
-0.0642704
-0.0604153
-0.0566499
-0.0529808
-0.0494129
-0.0459486
-0.0425892
-0.0393331
-0.0361792
-0.0331212
-0.0301578
-0.0272768
-0.0244801
-0.0217467
-0.0190875
-0.0164717
-0.0139151
-0.0114078
-0.00888676
-0.00658707
-0.00384575
-0.00229578
-0.126697
-0.129324
-0.130038
-0.130693
-0.131242
-0.131387
-0.131091
-0.130406
-0.12936
-0.127966
-0.126241
-0.124204
-0.121879
-0.119287
-0.116452
-0.113398
-0.110149
-0.106728
-0.103161
-0.0994708
-0.0956816
-0.0918162
-0.0878969
-0.0839449
-0.0799804
-0.076022
-0.0720871
-0.0681909
-0.0643474
-0.0605683
-0.0568636
-0.053241
-0.0497069
-0.046265
-0.0429179
-0.0396657
-0.036508
-0.033441
-0.0304623
-0.0275646
-0.0247445
-0.0219931
-0.0193028
-0.0166764
-0.0140748
-0.0115808
-0.00898145
-0.00674994
-0.00385983
-0.00246233
-0.118427
-0.121305
-0.12241
-0.123411
-0.124302
-0.124813
-0.1249
-0.124604
-0.123953
-0.122956
-0.121626
-0.119982
-0.118041
-0.115823
-0.113351
-0.110645
-0.107728
-0.104623
-0.101353
-0.0979402
-0.0944082
-0.0907793
-0.0870757
-0.0833186
-0.0795282
-0.0757238
-0.071923
-0.0681422
-0.064396
-0.0606973
-0.0570573
-0.053485
-0.0499879
-0.0465714
-0.0432392
-0.0399929
-0.0368331
-0.0337582
-0.0307654
-0.0278514
-0.0250086
-0.0222385
-0.0195181
-0.0168789
-0.0142352
-0.0117483
-0.00907926
-0.00689897
-0.00388527
-0.00259423
-0.11054
-0.113598
-0.11505
-0.116363
-0.117558
-0.118399
-0.118836
-0.1189
-0.118616
-0.117992
-0.117038
-0.115766
-0.114194
-0.112339
-0.110219
-0.107853
-0.105263
-0.102469
-0.0994926
-0.0963561
-0.0930813
-0.0896902
-0.0862042
-0.0826446
-0.0790315
-0.0753845
-0.0717217
-0.0680601
-0.0644151
-0.0608007
-0.0572289
-0.0537103
-0.0502535
-0.0468651
-0.0435503
-0.0403121
-0.0371521
-0.0340707
-0.031065
-0.0281354
-0.0252709
-0.0224819
-0.0197326
-0.0170786
-0.0143957
-0.0119097
-0.00918016
-0.00703389
-0.00392163
-0.00269238
-0.10308
-0.106256
-0.108009
-0.109596
-0.111058
-0.112193
-0.112945
-0.113339
-0.113394
-0.113117
-0.112514
-0.111595
-0.110374
-0.108864
-0.107083
-0.105047
-0.102774
-0.100284
-0.097597
-0.094733
-0.0917132
-0.0885587
-0.0852903
-0.081929
-0.0784947
-0.0750072
-0.0714849
-0.0679452
-0.0644045
-0.0608774
-0.0573771
-0.0539151
-0.0505013
-0.0471438
-0.0438487
-0.0406209
-0.0374626
-0.0343763
-0.0313591
-0.0284148
-0.0255298
-0.0227219
-0.0199452
-0.0172745
-0.0145559
-0.0120648
-0.00928387
-0.00715483
-0.00396797
-0.00275894
-0.0960777
-0.0993218
-0.10133
-0.103155
-0.104849
-0.106239
-0.107273
-0.107965
-0.10833
-0.108372
-0.108095
-0.107505
-0.106614
-0.105433
-0.103975
-0.102254
-0.100287
-0.0980917
-0.0956856
-0.0930879
-0.0903183
-0.0873969
-0.0843439
-0.0811796
-0.077924
-0.0745963
-0.0712155
-0.0677995
-0.0643648
-0.0609272
-0.0575007
-0.0540978
-0.0507295
-0.0474052
-0.0441322
-0.0409167
-0.0377621
-0.0346725
-0.0316456
-0.0286876
-0.0257836
-0.0229569
-0.0201546
-0.0174658
-0.0147151
-0.0122131
-0.00938983
-0.00726229
-0.00402288
-0.00279707
-0.0895573
-0.0928318
-0.0950507
-0.0970786
-0.0989706
-0.100583
-0.101864
-0.102822
-0.103466
-0.103799
-0.103821
-0.103537
-0.102953
-0.102079
-0.100925
-0.0995042
-0.0978292
-0.0959156
-0.09378
-0.0914397
-0.0889131
-0.0862191
-0.083377
-0.0804065
-0.077327
-0.074158
-0.0709182
-0.0676257
-0.0642979
-0.0609509
-0.0575995
-0.0542574
-0.0509365
-0.0476473
-0.0443983
-0.0411971
-0.0380481
-0.034957
-0.031922
-0.0289517
-0.0260303
-0.0231853
-0.0203594
-0.0176513
-0.014872
-0.0123544
-0.00949714
-0.00735704
-0.00408455
-0.00281079
-0.0835397
-0.0868158
-0.0892063
-0.091405
-0.093464
-0.0952655
-0.0967612
-0.0979531
-0.0988468
-0.0994413
-0.0997351
-0.0997296
-0.0994292
-0.0988401
-0.0979703
-0.0968295
-0.0954293
-0.0937828
-0.0919045
-0.0898102
-0.0875167
-0.0850417
-0.0824036
-0.0796212
-0.0767136
-0.0736998
-0.0705986
-0.0674283
-0.0642065
-0.0609499
-0.0576741
-0.0543935
-0.0511211
-0.0478684
-0.044645
-0.0414597
-0.038318
-0.035227
-0.0321857
-0.0292045
-0.0262675
-0.0234051
-0.0205577
-0.0178297
-0.0150254
-0.012488
-0.00960456
-0.00744003
-0.00415086
-0.00280458
-0.0780449
-0.0813019
-0.0838297
-0.0861698
-0.0883676
-0.0903283
-0.0920079
-0.0934034
-0.0945163
-0.095343
-0.09588
-0.0961262
-0.0960832
-0.0957546
-0.095146
-0.0942647
-0.0931201
-0.091723
-0.0900862
-0.0882236
-0.0861506
-0.0838837
-0.0814401
-0.0788378
-0.0760953
-0.0732313
-0.0702643
-0.0672128
-0.0640946
-0.0609268
-0.0577257
-0.0545064
-0.0512827
-0.0480672
-0.0448704
-0.0417023
-0.0385694
-0.03548
-0.0324342
-0.0294435
-0.0264928
-0.023614
-0.0207475
-0.0179994
-0.0151736
-0.0126133
-0.00971048
-0.00751226
-0.00421958
-0.00278311
-0.0730942
-0.0763179
-0.0789539
-0.0814093
-0.0837206
-0.0858131
-0.0876477
-0.0892175
-0.0905202
-0.09155
-0.0923015
-0.0927713
-0.0929586
-0.0928646
-0.0924924
-0.0918474
-0.0909365
-0.0897687
-0.0883547
-0.086707
-0.0848392
-0.0827666
-0.0805053
-0.0780724
-0.0754858
-0.0727637
-0.0699244
-0.0669864
-0.0639675
-0.0608853
-0.0577566
-0.0545971
-0.0514213
-0.0482427
-0.0450729
-0.0419226
-0.0387997
-0.0357132
-0.0326644
-0.0296659
-0.0267034
-0.0238095
-0.0209261
-0.0181583
-0.0153144
-0.0127294
-0.00981299
-0.00757465
-0.00428841
-0.00275086
-0.0687119
-0.0718938
-0.0746132
-0.0771609
-0.0795634
-0.0817631
-0.083726
-0.0854424
-0.0869064
-0.0881106
-0.0890477
-0.0897124
-0.0901017
-0.0902148
-0.0900526
-0.0896183
-0.0889169
-0.0879555
-0.0867431
-0.0852903
-0.0836094
-0.0817144
-0.0796204
-0.0773435
-0.0749009
-0.0723103
-0.0695897
-0.0667575
-0.0638317
-0.0608301
-0.0577698
-0.0546671
-0.0515372
-0.0483943
-0.0452509
-0.0421187
-0.0390063
-0.0359238
-0.0328735
-0.0298685
-0.0268961
-0.0239886
-0.0210909
-0.0183044
-0.0154455
-0.0128351
-0.00990988
-0.00762786
-0.00435517
-0.00271187
-0.0649268
-0.0680633
-0.0708455
-0.0734655
-0.0759397
-0.0782246
-0.0802914
-0.082128
-0.083726
-0.0850763
-0.08617
-0.0870004
-0.0875626
-0.0878537
-0.0878731
-0.0876218
-0.0871033
-0.0863227
-0.0852875
-0.0840067
-0.0824914
-0.0807543
-0.0788093
-0.0766719
-0.0743584
-0.071886
-0.0692726
-0.0665362
-0.0636949
-0.0607667
-0.057769
-0.0547186
-0.0516313
-0.0485218
-0.0454034
-0.0422885
-0.0391867
-0.0361088
-0.033058
-0.030048
-0.0270676
-0.0241483
-0.0212385
-0.0184348
-0.0155639
-0.0129288
-0.00999874
-0.00767226
-0.00441776
-0.00266956
-0.0617749
-0.0648669
-0.0676947
-0.0703698
-0.0728986
-0.0752492
-0.0773972
-0.0793293
-0.0810349
-0.0825033
-0.0837247
-0.0846909
-0.0853955
-0.0858342
-0.0860047
-0.0859065
-0.0855413
-0.0849131
-0.0840276
-0.0828928
-0.0815183
-0.0799158
-0.0780984
-0.0760805
-0.0738781
-0.0715077
-0.0689869
-0.0663336
-0.0635659
-0.0607018
-0.0577589
-0.0547545
-0.0517047
-0.048625
-0.045529
-0.04243
-0.0393381
-0.0362649
-0.0332145
-0.0302008
-0.0272142
-0.024285
-0.0213655
-0.0185467
-0.0156666
-0.0130087
-0.0100769
-0.00770798
-0.00447405
-0.00262657
-0.059299
-0.0623526
-0.0652124
-0.0679277
-0.0704964
-0.0728952
-0.0751039
-0.077108
-0.0788952
-0.080454
-0.0817737
-0.0828449
-0.0836603
-0.0842142
-0.0845031
-0.0845253
-0.0842812
-0.0837736
-0.083007
-0.0819884
-0.0807264
-0.0792316
-0.0775164
-0.0755948
-0.0734818
-0.0711938
-0.068748
-0.0661622
-0.0634542
-0.0606423
-0.0577444
-0.0547777
-0.0517589
-0.0487038
-0.0456266
-0.0425409
-0.0394577
-0.0363887
-0.0333392
-0.0303228
-0.0273317
-0.0243947
-0.0214678
-0.0186366
-0.01575
-0.0130725
-0.0101414
-0.00773497
-0.00452222
-0.00258429
-0.057566
-0.0605887
-0.0634679
-0.0662092
-0.0688038
-0.0712343
-0.0734834
-0.0755361
-0.0773791
-0.0789999
-0.0803873
-0.0815314
-0.0824238
-0.0830582
-0.0834301
-0.0835368
-0.0833781
-0.0829557
-0.0822733
-0.0813371
-0.0801549
-0.0787369
-0.0770948
-0.0752419
-0.073193
-0.0709641
-0.0685722
-0.0660348
-0.06337
-0.0605959
-0.0577304
-0.0547911
-0.0517949
-0.0487578
-0.0456944
-0.0426186
-0.0395419
-0.0364763
-0.0334276
-0.0304096
-0.0274155
-0.0244729
-0.0215414
-0.0187006
-0.0158107
-0.0131172
-0.0101902
-0.00775128
-0.00456391
-0.00254173
-0.056629
-0.0596414
-0.0625339
-0.0652909
-0.0679005
-0.0703485
-0.0726193
-0.0746978
-0.0765702
-0.0782237
-0.0796468
-0.0808292