/*--------------------------------*- C++ -*----------------------------------*\
  =========                 |
  \\      /  F ield         | OpenFOAM: The Open Source CFD Toolbox
   \\    /   O peration     | Website:  https://openfoam.org
    \\  /    A nd           | Version:  7
     \\/     M anipulation  |
\*---------------------------------------------------------------------------*/
FoamFile
{
    version     2.0;
    format      ascii;
    class       volVectorField;
    location    "70";
    object      U;
}
// * * * * * * * * * * * * * * * * * * * * * * * * * * * * * * * * * * * * * //

dimensions      [0 1 -1 0 0 0 0];

internalField   nonuniform List<vector> 
1987
(
(0.985083 -0.212415 2.1773e-20)
(0.992393 -0.214432 -8.6973e-20)
(0.99969 -0.216183 2.11376e-19)
(1.0044 -0.230188 9.76172e-20)
(1.00698 -0.21769 -1.6157e-19)
(1.0123 -0.231469 -7.27396e-20)
(1.01427 -0.218968 7.57106e-20)
(1.01853 -0.245333 -1.3491e-20)
(1.02015 -0.23249 -1.6376e-20)
(1.02154 -0.220023 -1.8421e-20)
(1.02677 -0.246051 1.41387e-20)
(1.02794 -0.233259 5.01313e-21)
(1.02878 -0.220857 -1.13233e-20)
(1.03494 -0.246514 -2.48552e-20)
(1.03565 -0.233785 3.23924e-20)
(1.03599 -0.221477 2.23166e-21)
(1.04245 -0.260659 -1.50979e-20)
(1.04301 -0.24673 -7.78035e-21)
(1.04329 -0.234076 -4.55128e-21)
(1.04315 -0.221887 -7.54209e-21)
(1.05086 -0.260478 7.62985e-21)
(1.05098 -0.246707 1.01362e-20)
(1.05084 -0.234142 -3.57626e-21)
(1.05027 -0.222094 9.08654e-21)
(1.05915 -0.260051 -8.6699e-21)
(1.05884 -0.246455 2.46896e-21)
(1.05831 -0.233991 4.40226e-21)
(1.05734 -0.222103 -6.54287e-21)
(1.06731 -0.259387 8.28993e-21)
(1.06658 -0.245982 1.41243e-21)
(1.06568 -0.233633 -9.56762e-23)
(1.06434 -0.221921 -3.07204e-22)
(1.07686 -0.272243 -1.37947e-20)
(1.07532 -0.258498 -1.71176e-20)
(1.0742 -0.245298 1.14479e-20)
(1.07295 -0.233077 9.69163e-21)
(1.07127 -0.221555 -6.93081e-22)
(1.0851 -0.270876 1.22406e-20)
(1.0832 -0.257395 1.27626e-20)
(1.0817 -0.244415 -3.35166e-20)
(1.08012 -0.232332 -1.22476e-20)
(1.07812 -0.221009 1.15362e-20)
(1.09318 -0.269294 -3.47488e-21)
(1.09091 -0.256089 4.57529e-21)
(1.08907 -0.243342 1.24973e-20)
(1.08718 -0.231407 4.08296e-21)
(1.08488 -0.220292 -9.51532e-21)
(1.10107 -0.267512 -2.4042e-20)
(1.09847 -0.254593 9.72593e-21)
(1.0963 -0.24209 9.50768e-21)
(1.09413 -0.230312 2.85861e-20)
(1.09156 -0.219408 -5.22615e-21)
(1.10878 -0.265542 -1.47564e-21)
(1.10587 -0.252919 2.37232e-20)
(1.10339 -0.240673 1.12766e-20)
(1.10097 -0.229055 -3.91606e-20)
(1.09813 -0.218364 -6.41122e-21)
(1.1163 -0.263398 -1.72794e-20)
(1.1131 -0.251078 1.49302e-21)
(1.11033 -0.239101 -1.35645e-20)
(1.10769 -0.227649 1.25131e-20)
(1.1046 -0.217164 2.2449e-20)
(1.12769 -0.273553 2.35461e-20)
(1.12363 -0.261094 4.38008e-20)
(1.12015 -0.249082 -4.80058e-20)
(1.11711 -0.237393 9.03142e-21)
(1.11426 -0.226093 2.27399e-20)
(1.11103 -0.21583 -1.53506e-20)
(1.12704 -0.246938 -3.37521e-20)
(1.12374 -0.235536 1.39544e-20)
(1.12066 -0.224443 -8.15098e-21)
(1.11741 -0.214387 2.93959e-20)
(0.970052 -0.181377 0)
(0.966787 -0.160314 0)
(0.961006 -0.150794 0)
(0.959622 -0.133183 0)
(0.957605 -0.121953 0)
(0.958351 -0.107507 0)
(0.958753 -0.0966574 0)
(0.96096 -0.0847218 0)
(0.962866 -0.0751129 0)
(0.965925 -0.0653235 0)
(0.968652 -0.05722 0)
(0.97207 -0.0493046 0)
(0.975105 -0.0426872 0)
(0.97851 -0.036383 0)
(0.981488 -0.0311019 0)
(0.984622 -0.0261471 0)
(0.9873 -0.0220005 0)
(0.989994 -0.0181393 0)
(0.992224 -0.0149064 0)
(0.994382 -0.0118974 0)
(0.996073 -0.00936065 0)
(0.997632 -0.00696967 0)
(0.998712 -0.00489982 0)
(0.999597 -0.00286804 0)
(0.999958 -0.000981311 0)
(0.976642 -0.176686 0)
(0.973155 -0.157681 0)
(0.967116 -0.148829 0)
(0.965212 -0.132208 0)
(0.962655 -0.121629 0)
(0.962797 -0.10759 0)
(0.962669 -0.0971442 0)
(0.964337 -0.0853779 0)
(0.965775 -0.0759584 0)
(0.968393 -0.0662103 0)
(0.970733 -0.0581574 0)
(0.973806 -0.0502092 0)
(0.976538 -0.0435647 0)
(0.979683 -0.0371898 0)
(0.982432 -0.0318448 0)
(0.985375 -0.0268052 0)
(0.987886 -0.0225824 0)
(0.990444 -0.0186369 0)
(0.992555 -0.0153296 0)
(0.99462 -0.0122438 0)
(0.996231 -0.00963952 0)
(0.99773 -0.00718074 0)
(0.998762 -0.00504998 0)
(0.999615 -0.00295664 0)
(0.999958 -0.00101178 0)
(0.982983 -0.172455 0)
(0.979283 -0.154968 0)
(0.97308 -0.14665 0)
(0.97074 -0.131023 0)
(0.96772 -0.121015 0)
(0.96731 -0.107454 0)
(0.966687 -0.0974011 0)
(0.967825 -0.0858501 0)
(0.968811 -0.0766381 0)
(0.970975 -0.0669618 0)
(0.972931 -0.058982 0)
(0.975642 -0.0510229 0)
(0.978065 -0.0443699 0)
(0.980932 -0.0379397 0)
(0.983444 -0.0325441 0)
(0.986181 -0.02743 0)
(0.988517 -0.0231399 0)
(0.990927 -0.0191167 0)
(0.992913 -0.0157403 0)
(0.994875 -0.0125817 0)
(0.996402 -0.00991289 0)
(0.997834 -0.00738839 0)
(0.998815 -0.00519834 0)
(0.999633 -0.00304445 0)
(0.999958 -0.00104202 0)
(0.989083 -0.168237 0)
(0.985215 -0.152037 0)
(0.978913 -0.14425 0)
(0.976191 -0.12959 0)
(0.972773 -0.120113 0)
(0.971863 -0.107093 0)
(0.970771 -0.0974299 0)
(0.9714 -0.0861446 0)
(0.971941 -0.0771582 0)
(0.973653 -0.0675874 0)
(0.975225 -0.0597023 0)
(0.977561 -0.0517545 0)
(0.979672 -0.0451108 0)
(0.982246 -0.0386397 0)
(0.984516 -0.0332057 0)
(0.987032 -0.0280264 0)
(0.989187 -0.0236766 0)
(0.991438 -0.0195812 0)
(0.993294 -0.0161402 0)
(0.995145 -0.0129119 0)
(0.996583 -0.0101811 0)
(0.997943 -0.00759248 0)
(0.998871 -0.00534458 0)
(0.999652 -0.00313102 0)
(0.999959 -0.0010719 0)
(0.994958 -0.163941 0)
(0.990945 -0.148889 0)
(0.984602 -0.141654 0)
(0.981539 -0.127919 0)
(0.977786 -0.118956 0)
(0.976418 -0.106517 0)
(0.974888 -0.0972422 0)
(0.975032 -0.0862686 0)
(0.975142 -0.0775217 0)
(0.976405 -0.0680898 0)
(0.977595 -0.060318 0)
(0.979553 -0.0524041 0)
(0.981347 -0.0457858 0)
(0.983619 -0.0392886 0)
(0.98564 -0.0338283 0)
(0.987926 -0.0285929 0)
(0.989894 -0.0241914 0)
(0.991976 -0.0200291 0)
(0.993697 -0.0165284 0)
(0.995429 -0.0132333 0)
(0.996775 -0.0104434 0)
(0.998058 -0.00779232 0)
(0.998931 -0.0054882 0)
(0.999672 -0.003216 0)
(0.99996 -0.00110129 0)
(1.00061 -0.159578 0)
(0.996464 -0.145561 0)
(0.990125 -0.138882 0)
(0.98676 -0.126022 0)
(0.982731 -0.117566 0)
(0.980943 -0.105727 0)
(0.979013 -0.0968405 0)
(0.978698 -0.0862173 0)
(0.978389 -0.0777212 0)
(0.979217 -0.0684616 0)
(0.980027 -0.0608197 0)
(0.981605 -0.0529637 0)
(0.983081 -0.0463868 0)
(0.985044 -0.0398797 0)
(0.986812 -0.0344054 0)
(0.988859 -0.0291243 0)
(0.990634 -0.0246796 0)
(0.992538 -0.020457 0)
(0.99412 -0.0169019 0)
(0.995727 -0.0135439 0)
(0.996978 -0.010698 0)
(0.998179 -0.00798673 0)
(0.998995 -0.00562844 0)
(0.999692 -0.00329894 0)
(0.999962 -0.00113005 0)
(1.00604 -0.15515 0)
(1.00177 -0.142081 0)
(0.995464 -0.135944 0)
(0.991832 -0.123907 0)
(0.987585 -0.115955 0)
(0.98541 -0.104721 0)
(0.983119 -0.0962262 0)
(0.982371 -0.0859837 0)
(0.981665 -0.0777496 0)
(0.982069 -0.0686942 0)
(0.982506 -0.061198 0)
(0.983709 -0.0534251 0)
(0.984865 -0.0469052 0)
(0.986517 -0.0404059 0)
(0.988027 -0.0349303 0)
(0.989828 -0.0296154 0)
(0.991406 -0.0251366 0)
(0.993126 -0.0208611 0)
(0.994564 -0.0172576 0)
(0.996038 -0.0138412 0)
(0.997191 -0.0109432 0)
(0.998304 -0.00817436 0)
(0.999063 -0.00576435 0)
(0.999713 -0.00337931 0)
(0.999964 -0.00115801 0)
(1.01123 -0.150651 0)
(1.00685 -0.138467 0)
(1.0006 -0.132849 0)
(0.996742 -0.121588 0)
(0.992322 -0.114135 0)
(0.989797 -0.103501 0)
(0.987187 -0.0954027 0)
(0.986032 -0.0855633 0)
(0.984952 -0.0776031 0)
(0.984949 -0.068781 0)
(0.985023 -0.0614456 0)
(0.985856 -0.0537812 0)
(0.986692 -0.0473334 0)
(0.988031 -0.040861 0)
(0.98928 -0.0353968 0)
(0.990832 -0.030061 0)
(0.992207 -0.0255577 0)
(0.993737 -0.0212377 0)
(0.995026 -0.0175923 0)
(0.996364 -0.0141227 0)
(0.997414 -0.0111769 0)
(0.998436 -0.00835382 0)
(0.999134 -0.00589497 0)
(0.999735 -0.00345652 0)
(0.999966 -0.00118499 0)
(1.01617 -0.146081 0)
(1.01169 -0.13473 0)
(1.00553 -0.129603 0)
(1.00147 -0.119077 0)
(0.996924 -0.112114 0)
(0.994085 -0.102071 0)
(0.991196 -0.0943746 0)
(0.989661 -0.0849538 0)
(0.988234 -0.0772796 0)
(0.987841 -0.0687161 0)
(0.987564 -0.0615566 0)
(0.988036 -0.0540254 0)
(0.988557 -0.0476648 0)
(0.989584 -0.0412388 0)
(0.99057 -0.0357989 0)
(0.991868 -0.0304563 0)
(0.993037 -0.0259383 0)
(0.994372 -0.0215832 0)
(0.995508 -0.0179029 0)
(0.996703 -0.0143861 0)
(0.997647 -0.0113972 0)
(0.998573 -0.00852361 0)
(0.999208 -0.0060192 0)
(0.999757 -0.00352996 0)
(0.999969 -0.00121076 0)
(1.02085 -0.141442 0)
(1.0163 -0.130881 0)
(1.01024 -0.126216 0)
(1.00602 -0.116388 0)
(1.00137 -0.109904 0)
(0.998258 -0.100438 0)
(0.995128 -0.0931469 0)
(0.993242 -0.0841544 0)
(0.991498 -0.076778 0)
(0.990733 -0.0684947 0)
(0.990122 -0.0615261 0)
(0.99024 -0.0541514 0)
(0.990451 -0.0478928 0)
(0.991169 -0.0415333 0)
(0.991891 -0.0361305 0)
(0.992935 -0.030796 0)
(0.993893 -0.0262736 0)
(0.995029 -0.0218936 0)
(0.996007 -0.0181858 0)
(0.997055 -0.0146287 0)
(0.99789 -0.0116018 0)
(0.998717 -0.00868218 0)
(0.999286 -0.00613588 0)
(0.999781 -0.00359898 0)
(0.999972 -0.00123511 0)
(1.02528 -0.136742 0)
(1.02066 -0.126932 0)
(1.01472 -0.122695 0)
(1.01037 -0.113535 0)
(1.00566 -0.107512 0)
(1.00231 -0.0986103 0)
(0.998967 -0.0917249 0)
(0.996763 -0.0831664 0)
(0.994729 -0.0760982 0)
(0.993613 -0.0681129 0)
(0.992684 -0.0613499 0)
(0.992461 -0.0541533 0)
(0.99237 -0.0480117 0)
(0.992782 -0.0417382 0)
(0.993241 -0.0363859 0)
(0.994028 -0.031075 0)
(0.994774 -0.0265586 0)
(0.995708 -0.022165 0)
(0.996523 -0.0184375 0)
(0.997421 -0.0148476 0)
(0.998142 -0.0117883 0)
(0.998866 -0.00882783 0)
(0.999367 -0.00624375 0)
(0.999805 -0.00366289 0)
(0.999975 -0.00125776 0)
(1.02943 -0.131988 0)
(1.02478 -0.122893 0)
(1.01896 -0.119052 0)
(1.01452 -0.11053 0)
(1.00977 -0.104949 0)
(1.00621 -0.0965973 0)
(1.0027 -0.0901142 0)
(1.00021 -0.0819921 0)
(0.997913 -0.0752408 0)
(0.996469 -0.067568 0)
(0.995242 -0.0610245 0)
(0.994689 -0.0540256 0)
(0.994305 -0.048016 0)
(0.994417 -0.0418478 0)
(0.994615 -0.0365593 0)
(0.995147 -0.031288 0)
(0.995677 -0.0267885 0)
(0.996406 -0.0223932 0)
(0.997056 -0.0186542 0)
(0.997799 -0.0150399 0)
(0.998403 -0.0119543 0)
(0.999022 -0.00895878 0)
(0.999451 -0.00634146 0)
(0.999831 -0.00372094 0)
(0.999978 -0.00127845 0)
(1.03332 -0.127191 0)
(1.02865 -0.118773 0)
(1.02298 -0.115297 0)
(1.01847 -0.107385 0)
(1.01371 -0.102225 0)
(1.00998 -0.0944079 0)
(1.00632 -0.088321 0)
(1.00357 -0.0806353 0)
(1.00104 -0.0742071 0)
(0.999289 -0.0668584 0)
(0.997783 -0.0605473 0)
(0.996916 -0.0537638 0)
(0.996249 -0.0479007 0)
(0.996067 -0.0418563 0)
(0.996008 -0.0366451 0)
(0.996285 -0.0314296 0)
(0.996599 -0.0269582 0)
(0.997122 -0.0225738 0)
(0.997603 -0.0188321 0)
(0.99819 -0.0152026 0)
(0.998672 -0.0120971 0)
(0.999183 -0.00907316 0)
(0.999538 -0.00642755 0)
(0.999858 -0.00377237 0)
(0.999981 -0.00129687 0)
(1.03695 -0.122357 0)
(1.03228 -0.114581 0)
(1.02676 -0.111441 0)
(1.02221 -0.104111 0)
(1.01745 -0.0993498 0)
(1.01359 -0.0920515 0)
(1.00981 -0.0863521 0)
(1.00684 -0.0791006 0)
(1.00409 -0.0729991 0)
(1.00206 -0.0659835 0)
(1.0003 -0.0599162 0)
(0.999133 -0.0533637 0)
(0.998195 -0.0476613 0)
(0.997728 -0.0417583 0)
(0.997416 -0.0366381 0)
(0.997441 -0.0314945 0)
(0.997539 -0.0270629 0)
(0.997854 -0.0227025 0)
(0.998164 -0.0189672 0)
(0.998591 -0.0153325 0)
(0.998949 -0.012214 0)
(0.999349 -0.00916897 0)
(0.999628 -0.00650052 0)
(0.999886 -0.00381633 0)
(0.999984 -0.00131269 0)
(1.04033 -0.117495 0)
(1.03568 -0.110326 0)
(1.0303 -0.107494 0)
(1.02573 -0.100717 0)
(1.02101 -0.0963336 0)
(1.01703 -0.0895372 0)
(1.01316 -0.0842147 0)
(1.00999 -0.077393 0)
(1.00706 -0.0716195 0)
(1.00478 -0.0649437 0)
(1.00277 -0.0591299 0)
(1.00133 -0.052822 0)
(1.00013 -0.0472939 0)
(0.999391 -0.0415487 0)
(0.998832 -0.0365333 0)
(0.99861 -0.0314774 0)
(0.998493 -0.0270977 0)
(0.9986 -0.0227748 0)
(0.998736 -0.0190555 0)
(0.999003 -0.0154261 0)
(0.999234 -0.0123022 0)
(0.99952 -0.00924413 0)
(0.99972 -0.00655878 0)
(0.999916 -0.00385196 0)
(0.999986 -0.00132558 0)
(1.04345 -0.112612 0)
(1.03884 -0.106016 0)
(1.03362 -0.103466 0)
(1.02905 -0.0972151 0)
(1.02437 -0.0931867 0)
(1.02031 -0.0868741 0)
(1.01637 -0.0819165 0)
(1.01304 -0.0755181 0)
(1.00994 -0.0700718 0)
(1.00743 -0.0637402 0)
(1.00521 -0.0581877 0)
(1.0035 -0.0521363 0)
(1.00206 -0.0467951 0)
(1.00105 -0.041223 0)
(1.00025 -0.036326 0)
(0.999787 -0.0313734 0)
(0.999456 -0.0270577 0)
(0.999357 -0.0227861 0)
(0.999319 -0.019093 0)
(0.999423 -0.0154801 0)
(0.999524 -0.0123589 0)
(0.999696 -0.00929646 0)
(0.999814 -0.00660066 0)
(0.999946 -0.00387836 0)
(0.999989 -0.00133518 0)
(1.04633 -0.107716 0)
(1.04177 -0.101659 0)
(1.03671 -0.0993665 0)
(1.03216 -0.0936132 0)
(1.02753 -0.0899188 0)
(1.02342 -0.084071 0)
(1.01942 -0.0794651 0)
(1.01596 -0.073482 0)
(1.01272 -0.06836 0)
(1.01001 -0.0623748 0)
(1.00758 -0.0570898 0)
(1.00563 -0.0513048 0)
(1.00396 -0.046162 0)
(1.0027 -0.040777 0)
(1.00167 -0.0360117 0)
(1.00097 -0.0311774 0)
(1.00043 -0.0269385 0)
(1.00012 -0.0227319 0)
(0.99991 -0.0190758 0)
(0.999851 -0.015491 0)
(0.999821 -0.0123809 0)
(0.999876 -0.00932368 0)
(0.999911 -0.00662447 0)
(0.999978 -0.00389456 0)
(0.999991 -0.00134113 0)
(1.04897 -0.10281 0)
(1.04447 -0.097261 0)
(1.03957 -0.0952033 0)
(1.03506 -0.0899205 0)
(1.03049 -0.0865394 0)
(1.02635 -0.0811365 0)
(1.02232 -0.0768686 0)
(1.01874 -0.0712909 0)
(1.01539 -0.0664888 0)
(1.0125 -0.06085 0)
(1.00989 -0.0558369 0)
(1.00772 -0.0503263 0)
(1.00583 -0.0453922 0)
(1.00433 -0.0402072 0)
(1.00308 -0.0355866 0)
(1.00215 -0.0308849 0)
(1.0014 -0.0267356 0)
(1.00089 -0.0226079 0)
(1.00051 -0.0189998 0)
(1.00028 -0.0154552 0)
(1.00012 -0.0123655 0)
(1.00006 -0.00932346 0)
(1.00001 -0.00662848 0)
(1.00001 -0.00389956 0)
(0.999994 -0.00134304 0)
(1.05139 -0.0979016 0)
(1.04696 -0.092828 0)
(1.04221 -0.0909841 0)
(1.03776 -0.0861448 0)
(1.03326 -0.0830572 0)
(1.0291 -0.0780789 0)
(1.02506 -0.0741348 0)
(1.02139 -0.068951 0)
(1.01794 -0.064463 0)
(1.0149 -0.059169 0)
(1.01212 -0.0544303 0)
(1.00975 -0.0492006 0)
(1.00766 -0.0444842 0)
(1.00593 -0.0395106 0)
(1.00447 -0.0350469 0)
(1.00332 -0.0304917 0)
(1.00237 -0.0264448 0)
(1.00166 -0.0224096 0)
(1.0011 -0.0188612 0)
(1.00072 -0.0153691 0)
(1.00042 -0.0123097 0)
(1.00025 -0.00929339 0)
(1.00011 -0.00661093 0)
(1.00004 -0.00389234 0)
(0.999996 -0.00134053 0)
(1.05358 -0.0929929 0)
(1.04924 -0.0883652 0)
(1.04464 -0.0867157 0)
(1.04025 -0.0822937 0)
(1.03584 -0.0794803 0)
(1.03168 -0.074906 0)
(1.02764 -0.0712712 0)
(1.0239 -0.0664688 0)
(1.02037 -0.062288 0)
(1.01719 -0.0573352 0)
(1.01427 -0.0528721 0)
(1.01171 -0.0479277 0)
(1.00944 -0.0434367 0)
(1.00751 -0.0386847 0)
(1.00584 -0.0343895 0)
(1.00448 -0.0299938 0)
(1.00333 -0.026062 0)
(1.00243 -0.0221329 0)
(1.0017 -0.0186562 0)
(1.00116 -0.0152292 0)
(1.00073 -0.0122104 0)
(1.00043 -0.00923103 0)
(1.00021 -0.00657008 0)
(1.00008 -0.00387181 0)
(0.999997 -0.00133323 0)
(1.05556 -0.0880873 0)
(1.05131 -0.0838767 0)
(1.04686 -0.0824038 0)
(1.04254 -0.0783736 0)
(1.03822 -0.0758162 0)
(1.03408 -0.0716252 0)
(1.03004 -0.0682851 0)
(1.02626 -0.0638507 0)
(1.02267 -0.0599691 0)
(1.01937 -0.0553524 0)
(1.01633 -0.0511647 0)
(1.01361 -0.0465084 0)
(1.01116 -0.0422493 0)
(1.00904 -0.0377277 0)
(1.00718 -0.0336118 0)
(1.00562 -0.0293877 0)
(1.00428 -0.0255836 0)
(1.0032 -0.0217738 0)
(1.0023 -0.0183812 0)
(1.0016 -0.0150319 0)
(1.00104 -0.0120649 0)
(1.00062 -0.00913392 0)
(1.00031 -0.00650418 0)
(1.00011 -0.00383688 0)
(0.999999 -0.00132075 0)
(1.05733 -0.0831867 0)
(1.05318 -0.0793659 0)
(1.04888 -0.0780532 0)
(1.04464 -0.0743903 0)
(1.04041 -0.0720714 0)
(1.0363 -0.0682434 0)
(1.03229 -0.0651836 0)
(1.02847 -0.0611029 0)
(1.02483 -0.0575118 0)
(1.02145 -0.0532249 0)
(1.01829 -0.049311 0)
(1.01543 -0.0449441 0)
(1.01282 -0.040922 0)
(1.01052 -0.0366382 0)
(1.00849 -0.0327116 0)
(1.00673 -0.0286704 0)
(1.00522 -0.0250063 0)
(1.00395 -0.0213286 0)
(1.00289 -0.0180326 0)
(1.00204 -0.0147739 0)
(1.00134 -0.0118702 0)
(1.00081 -0.00899964 0)
(1.00041 -0.00641153 0)
(1.00015 -0.00378644 0)
(1 -0.00130275 0)
(1.05891 -0.0782922 0)
(1.05486 -0.0748351 0)
(1.05071 -0.0736677 0)
(1.04655 -0.0703487 0)
(1.04241 -0.0682518 0)
(1.03834 -0.0647669 0)
(1.03436 -0.0619729 0)
(1.03053 -0.0582314 0)
(1.02686 -0.0549216 0)
(1.0234 -0.0509567 0)
(1.02015 -0.0473141 0)
(1.01716 -0.0432364 0)
(1.01442 -0.0394553 0)
(1.01195 -0.0354156 0)
(1.00975 -0.0316872 0)
(1.00782 -0.0278394 0)
(1.00613 -0.0243271 0)
(1.0047 -0.020794 0)
(1.00347 -0.0176073 0)
(1.00247 -0.0144519 0)
(1.00164 -0.0116238 0)
(1.001 -0.00882578 0)
(1.00051 -0.00629047 0)
(1.00018 -0.00371936 0)
(1 -0.00127887 0)
(1.06031 -0.0734039 0)
(1.05636 -0.070286 0)
(1.05234 -0.0692502 0)
(1.04828 -0.0662527 0)
(1.04423 -0.0643623 0)
(1.04022 -0.061201 0)
(1.03627 -0.0586588 0)
(1.03244 -0.0552418 0)
(1.02875 -0.0522036 0)
(1.02523 -0.0485524 0)
(1.0219 -0.0451774 0)
(1.0188 -0.0413876 0)
(1.01594 -0.0378501 0)
(1.01333 -0.0340594 0)
(1.01097 -0.0305373 0)
(1.00887 -0.0268924 0)
(1.00702 -0.0235434 0)
(1.00542 -0.0201669 0)
(1.00404 -0.0171023 0)
(1.00289 -0.014063 0)
(1.00194 -0.0113229 0)
(1.00119 -0.00861006 0)
(1.00061 -0.00613938 0)
(1.00022 -0.00363453 0)
(1 -0.00124877 0)
(1.06154 -0.0685206 0)
(1.05769 -0.0657191 0)
(1.0538 -0.0648024 0)
(1.04984 -0.0621054 0)
(1.04588 -0.060407 0)
(1.04192 -0.0575505 0)
(1.03802 -0.0552466 0)
(1.0342 -0.0521392 0)
(1.03049 -0.0493627 0)
(1.02693 -0.0460161 0)
(1.02354 -0.0429043 0)
(1.02035 -0.0393998 0)
(1.01737 -0.0361078 0)
(1.01463 -0.0325699 0)
(1.01213 -0.0292611 0)
(1.00988 -0.0258279 0)
(1.00788 -0.0226529 0)
(1.00612 -0.0194448 0)
(1.0046 -0.0165148 0)
(1.00331 -0.0136044 0)
(1.00223 -0.0109652 0)
(1.00137 -0.00835032 0)
(1.00071 -0.00595675 0)
(1.00025 -0.00353089 0)
(1 -0.00121216 0)
(1.0626 -0.0636407 0)
(1.05886 -0.0611338 0)
(1.05509 -0.0603251 0)
(1.05122 -0.0579088 0)
(1.04735 -0.0563887 0)
(1.04346 -0.0538192 0)
(1.03961 -0.0517405 0)
(1.0358 -0.0489282 0)
(1.0321 -0.0464033 0)
(1.02851 -0.0433518 0)
(1.02507 -0.0404983 0)
(1.02179 -0.0372758 0)
(1.01872 -0.03423 0)
(1.01586 -0.0309476 0)
(1.01324 -0.0278585 0)
(1.01085 -0.0246446 0)
(1.0087 -0.0216539 0)
(1.0068 -0.0186252 0)
(1.00514 -0.0158423 0)
(1.00371 -0.0130736 0)
(1.00252 -0.0105485 0)
(1.00155 -0.00804456 0)
(1.0008 -0.00574115 0)
(1.00028 -0.00340742 0)
(1 -0.00116875 0)
(1.06351 -0.0587609 0)
(1.05988 -0.0565288 0)
(1.05622 -0.0558179 0)
(1.05245 -0.0536637 0)
(1.04867 -0.0523095 0)
(1.04484 -0.0500099 0)
(1.04104 -0.0481439 0)
(1.03726 -0.0456127 0)
(1.03357 -0.0433295 0)
(1.02995 -0.0405634 0)
(1.02647 -0.0379626 0)
(1.02314 -0.035018 0)
(1.01998 -0.0322185 0)
(1.01702 -0.0291935 0)
(1.01428 -0.0263294 0)
(1.01176 -0.023342 0)
(1.00948 -0.0205452 0)
(1.00744 -0.0177065 0)
(1.00565 -0.015083 0)
(1.0041 -0.0124683 0)
(1.00279 -0.0100706 0)
(1.00172 -0.00769098 0)
(1.00089 -0.00549126 0)
(1.00032 -0.00326319 0)
(1 -0.00111827 0)
(1.06427 -0.0538772 0)
(1.06075 -0.0519013 0)
(1.0572 -0.0512793 0)
(1.05352 -0.0493698 0)
(1.04983 -0.04817 0)
(1.04607 -0.0461244 0)
(1.04232 -0.0444595 0)
(1.03858 -0.0421957 0)
(1.0349 -0.0401446 0)
(1.03127 -0.0376541 0)
(1.02776 -0.0353003 0)
(1.02438 -0.0326291 0)
(1.02115 -0.0300753 0)
(1.0181 -0.0273088 0)
(1.01526 -0.0246743 0)
(1.01262 -0.0219196 0)
(1.01022 -0.0193258 0)
(1.00806 -0.0166873 0)
(1.00614 -0.014235 0)
(1.00447 -0.0117869 0)
(1.00305 -0.00953005 0)
(1.00189 -0.00728802 0)
(1.00098 -0.00520591 0)
(1.00035 -0.00309737 0)
(1.00001 -0.0010605 0)
(1.06492 -0.0489841 0)
(1.06149 -0.0472475 0)
(1.05804 -0.0467062 0)
(1.05445 -0.0450258 0)
(1.05084 -0.0439698 0)
(1.04715 -0.0421633 0)
(1.04346 -0.0406887 0)
(1.03975 -0.0386793 0)
(1.03609 -0.036851 0)
(1.03246 -0.0346267 0)
(1.02894 -0.0325142 0)
(1.02551 -0.0301115 0)
(1.02222 -0.0278022 0)
(1.0191 -0.0252948 0)
(1.01616 -0.0228939 0)
(1.01342 -0.0203776 0)
(1.01091 -0.0179952 0)
(1.00863 -0.0155666 0)
(1.0066 -0.0132973 0)
(1.00482 -0.011028 0)
(1.0033 -0.0089253 0)
(1.00205 -0.00683442 0)
(1.00107 -0.00488411 0)
(1.00038 -0.00290926 0)
(1.00001 -0.000995238 0)
(1.06544 -0.044075 0)
(1.06212 -0.0425621 0)
(1.05876 -0.0420945 0)
(1.05525 -0.0406286 0)
(1.05172 -0.0397071 0)
(1.04809 -0.0381261 0)
(1.04446 -0.0368316 0)
(1.04079 -0.0350648 0)
(1.03715 -0.0334506 0)
(1.03353 -0.0314834 0)
(1.02999 -0.0296064 0)
(1.02653 -0.0274674 0)
(1.0232 -0.0254013 0)
(1.02001 -0.0231531 0)
(1.01699 -0.0209894 0)
(1.01416 -0.0187165 0)
(1.01155 -0.0165535 0)
(1.00917 -0.0143439 0)
(1.00703 -0.012269 0)
(1.00515 -0.0101904 0)
(1.00353 -0.00825537 0)
(1.00219 -0.0063292 0)
(1.00115 -0.00452509 0)
(1.0004 -0.00269832 0)
(1.00001 -0.00092233 0)
(1.06586 -0.0391415 0)
(1.06263 -0.0378384 0)
(1.05935 -0.0374383 0)
(1.05593 -0.036174 0)
(1.05247 -0.0353784 0)
(1.04891 -0.0340106 0)
(1.04533 -0.0328873 0)
(1.0417 -0.0313521 0)
(1.03808 -0.029944 0)
(1.03447 -0.0282254 0)
(1.03093 -0.0265785 0)
(1.02744 -0.0246985 0)
(1.02407 -0.0228743 0)
(1.02083 -0.0208852 0)
(1.01774 -0.0189617 0)
(1.01483 -0.0169371 0)
(1.01214 -0.0150011 0)
(1.00966 -0.0130195 0)
(1.00743 -0.0111498 0)
(1.00545 -0.00927387 0)
(1.00375 -0.00751968 0)
(1.00233 -0.00577174 0)
(1.00122 -0.00412832 0)
(1.00043 -0.00246416 0)
(1.00001 -0.000841667 0)
(1.0662 -0.0341737 0)
(1.06305 -0.033068 0)
(1.05984 -0.0327301 0)
(1.0565 -0.0316559 0)
(1.0531 -0.030979 0)
(1.0496 -0.0298134 0)
(1.04607 -0.0288534 0)
(1.04248 -0.0275398 0)
(1.03889 -0.0263307 0)
(1.0353 -0.0248532 0)
(1.03175 -0.0234316 0)
(1.02825 -0.0218063 0)
(1.02485 -0.0202225 0)
(1.02155 -0.0184926 0)
(1.01841 -0.0168125 0)
(1.01544 -0.0150405 0)
(1.01266 -0.0133387 0)
(1.0101 -0.0115937 0)
(1.00779 -0.00994008 0)
(1.00573 -0.00827832 0)
(1.00395 -0.00671808 0)
(1.00246 -0.00516185 0)
(1.00129 -0.00369358 0)
(1.00046 -0.00220663 0)
(1.00001 -0.000753202 0)
(1.06645 -0.0291596 0)
(1.06338 -0.0282405 0)
(1.06024 -0.0279606 0)
(1.05696 -0.0270664 0)
(1.05362 -0.0265021 0)
(1.05018 -0.0255293 0)
(1.04669 -0.0247256 0)
(1.04315 -0.0236253 0)
(1.03958 -0.022609 0)
(1.036 -0.021366 0)
(1.03245 -0.0201656 0)
(1.02894 -0.0187914 0)
(1.02552 -0.0174473 0)
(1.02219 -0.0159768 0)
(1.019 -0.0145429 0)
(1.01597 -0.0130282 0)
(1.01313 -0.0115678 0)
(1.0105 -0.0100676 0)
(1.00811 -0.00864056 0)
(1.00597 -0.00720436 0)
(1.00412 -0.00585098 0)
(1.00257 -0.00449978 0)
(1.00135 -0.00322099 0)
(1.00048 -0.00192577 0)
(1.00001 -0.000656953 0)
(1.06664 -0.0240849 0)
(1.06363 -0.0233436 0)
(1.06055 -0.0231181 0)
(1.05733 -0.0223957 0)
(1.05405 -0.0219389 0)
(1.05066 -0.0211511 0)
(1.04721 -0.0204983 0)
(1.04369 -0.0196043 0)
(1.04015 -0.0187759 0)
(1.03659 -0.017762 0)
(1.03305 -0.0167797 0)
(1.02953 -0.015654 0)
(1.02609 -0.0145492 0)
(1.02273 -0.0133389 0)
(1.0195 -0.0121548 0)
(1.01642 -0.010902 0)
(1.01353 -0.00968982 0)
(1.01084 -0.00844288 0)
(1.00838 -0.0072527 0)
(1.00619 -0.00605327 0)
(1.00428 -0.00491938 0)
(1.00267 -0.00378631 0)
(1.0014 -0.00271108 0)
(1.0005 -0.00162193 0)
(1.00001 -0.000553026 0)
(1.06677 -0.0189329 0)
(1.06382 -0.0183621 0)
(1.06078 -0.0181885 0)
(1.05762 -0.0176316 0)
(1.05438 -0.0172785 0)
(1.05103 -0.0166695 0)
(1.04762 -0.0161636 0)
(1.04413 -0.0154706 0)
(1.04061 -0.0148266 0)
(1.03707 -0.0140381 0)
(1.03353 -0.013272 0)
(1.03001 -0.0123934 0)
(1.02655 -0.0115286 0)
(1.02317 -0.0105802 0)
(1.01991 -0.00964958 0)
(1.0168 -0.00866377 0)
(1.01385 -0.00770716 0)
(1.01112 -0.00672183 0)
(1.00861 -0.00577864 0)
(1.00636 -0.00482702 0)
(1.0044 -0.00392496 0)
(1.00275 -0.00302282 0)
(1.00145 -0.00216484 0)
(1.00051 -0.00129571 0)
(1.00001 -0.00044162 0)
(1.06686 -0.0136837 0)
(1.06395 -0.0132786 0)
(1.06095 -0.0131553 0)
(1.05783 -0.0127591 0)
(1.05462 -0.0125074 0)
(1.05131 -0.0120732 0)
(1.04792 -0.0117116 0)
(1.04446 -0.0112162 0)
(1.04096 -0.010755 0)
(1.03743 -0.0101899 0)
(1.03389 -0.0096397 0)
(1.03038 -0.00900824 0)
(1.02691 -0.00838533 0)
(1.02352 -0.00770159 0)
(1.02023 -0.00702914 0)
(1.01709 -0.00631605 0)
(1.01411 -0.00562251 0)
(1.01134 -0.00490736 0)
(1.00879 -0.00422128 0)
(1.0065 -0.00352835 0)
(1.00451 -0.00287012 0)
(1.00282 -0.00221131 0)
(1.00148 -0.00158376 0)
(1.00052 -0.000948078 0)
(1.00001 -0.000323064 0)
(1.06691 -0.008315 0)
(1.06404 -0.00807221 0)
(1.06106 -0.00799846 0)
(1.05797 -0.0077604 0)
(1.05478 -0.00760897 0)
(1.0515 -0.00734761 0)
(1.04813 -0.0071297 0)
(1.04469 -0.00683103 0)
(1.0412 -0.00655256 0)
(1.03768 -0.00621122 0)
(1.03415 -0.00587843 0)
(1.03063 -0.00549619 0)
(1.02715 -0.00511862 0)
(1.02375 -0.00470378 0)
(1.02045 -0.00429523 0)
(1.01729 -0.00386154 0)
(1.01429 -0.00343916 0)
(1.01149 -0.00300317 0)
(1.00892 -0.00258435 0)
(1.0066 -0.00216089 0)
(1.00458 -0.00175813 0)
(1.00287 -0.00135464 0)
(1.00151 -0.000970071 0)
(1.00053 -0.000580552 0)
(1.00001 -0.00019789 0)
(1.06693 -0.00279942 0)
(1.06408 -0.00271736 0)
(1.06111 -0.00269345 0)
(1.05804 -0.00261331 0)
(1.05486 -0.00256296 0)
(1.05159 -0.00247519 0)
(1.04823 -0.00240235 0)
(1.04481 -0.0023021 0)
(1.04132 -0.0022088 0)
(1.03781 -0.00209418 0)
(1.03428 -0.0019825 0)
(1.03076 -0.00185404 0)
(1.02728 -0.00172715 0)
(1.02387 -0.00158758 0)
(1.02057 -0.00145009 0)
(1.01739 -0.00130399 0)
(1.01438 -0.00116165 0)
(1.01157 -0.00101459 0)
(1.00898 -0.00087327 0)
(1.00665 -0.000730243 0)
(1.00461 -0.00059416 0)
(1.00289 -0.000457719 0)
(1.00152 -0.000327706 0)
(1.00054 -0.000196023 0)
(1.00001 -6.68677e-05 0)
(1.12139 -0.202909 1.02054e-20)
(1.11966 -0.196791 -6.32343e-21)
(1.11848 -0.190627 -1.29583e-20)
(1.11765 -0.184682 1.65932e-20)
(1.11692 -0.178811 -1.98769e-22)
(1.11636 -0.172922 -1.09235e-20)
(1.11583 -0.167205 -4.00908e-21)
(1.11532 -0.16156 1.45876e-20)
(1.11543 -0.204078 4.03605e-21)
(1.11396 -0.197881 -1.67902e-20)
(1.11308 -0.19161 2.9062e-21)
(1.11251 -0.185631 1.19192e-20)
(1.11218 -0.179702 -9.55471e-21)
(1.11185 -0.173726 3.11604e-21)
(1.11153 -0.167951 1.78207e-21)
(1.11121 -0.162256 4.45024e-21)
(1.11089 -0.156634 -1.57951e-21)
(1.11056 -0.151082 -5.77262e-21)
(1.11021 -0.1456 5.73181e-21)
(1.10985 -0.140193 -1.52633e-21)
(1.10949 -0.134843 -3.55251e-21)
(1.10911 -0.129534 2.1774e-21)
(1.10869 -0.124284 -4.9942e-21)
(1.10824 -0.1191 3.48082e-21)
(1.10777 -0.113973 -3.59103e-21)
(1.10727 -0.1089 1.3955e-21)
(1.10675 -0.103879 1.41504e-21)
(1.10621 -0.0989076 4.32872e-21)
(1.10564 -0.0939822 -5.8398e-21)
(1.10505 -0.0891016 2.519e-21)
(1.10443 -0.0842684 -7.91278e-22)
(1.10382 -0.0794647 -2.58771e-21)
(1.10316 -0.0746867 3.37162e-21)
(1.1025 -0.0699451 -8.51679e-22)
(1.10183 -0.0652302 7.43385e-23)
(1.10115 -0.0605357 -4.84023e-23)
(1.10048 -0.0558562 -1.29977e-21)
(1.0998 -0.051185 3.77626e-23)
(1.09915 -0.0465148 -1.70353e-22)
(1.09851 -0.0418373 1.55757e-21)
(1.0979 -0.0371431 3.19762e-23)
(1.09733 -0.0324212 -7.10651e-22)
(1.09681 -0.0276592 -2.29591e-22)
(1.09635 -0.0228416 1.0545e-21)
(1.09596 -0.0179558 1.61402e-21)
(1.09567 -0.0129663 -4.61846e-22)
(1.09546 -0.00789759 -2.6133e-21)
(1.09538 -0.00259816 2.34887e-22)
(1.10936 -0.205113 -2.26018e-20)
(1.10823 -0.198854 1.11899e-20)
(1.10766 -0.192548 5.58998e-21)
(1.10739 -0.18643 -1.33633e-20)
(1.10738 -0.180439 3.74769e-21)
(1.10727 -0.174499 2.77077e-22)
(1.10717 -0.168663 -6.52516e-21)
(1.10706 -0.162917 5.03731e-21)
(1.10694 -0.157249 -8.50032e-21)
(1.1068 -0.151655 -6.79177e-22)
(1.10664 -0.146134 9.89353e-21)
(1.10645 -0.140686 -4.48029e-21)
(1.10625 -0.135299 6.34779e-21)
(1.10601 -0.129964 -2.45024e-21)
(1.10574 -0.124689 2.27185e-21)
(1.10543 -0.119477 -2.67196e-21)
(1.10509 -0.114325 5.4485e-21)
(1.10472 -0.109228 -1.92153e-21)
(1.10432 -0.104185 -3.29149e-21)
(1.10389 -0.0991927 1.85505e-21)
(1.10343 -0.0942478 8.83473e-22)
(1.10294 -0.0893492 -1.10072e-21)
(1.10242 -0.0844952 -2.27804e-21)
(1.10189 -0.0796749 -1.75379e-22)
(1.10132 -0.0748846 2.35009e-21)
(1.10074 -0.0701276 5.10443e-23)
(1.10014 -0.0653981 -7.36433e-22)
(1.09953 -0.0606898 2.37827e-21)
(1.09892 -0.0559968 8.17194e-22)
(1.09831 -0.0513126 -3.1451e-22)
(1.0977 -0.0466298 9.90349e-23)
(1.09711 -0.04194 2.83877e-21)
(1.09655 -0.0372336 1.10157e-21)
(1.09602 -0.0324997 7.24123e-22)
(1.09554 -0.0277258 8.97247e-23)
(1.09511 -0.0228964 -1.47134e-21)
(1.09475 -0.0179982 -1.87283e-21)
(1.09447 -0.0129973 -2.08797e-21)
(1.09428 -0.00791486 2.70545e-21)
(1.09421 -0.00260262 2.35394e-22)
(1.10328 -0.205963 -3.9823e-21)
(1.10245 -0.199683 7.15141e-21)
(1.10222 -0.193371 -1.7138e-20)
(1.10228 -0.187191 1.91101e-21)
(1.10245 -0.181152 2.13233e-20)
(1.10261 -0.175188 -7.41507e-21)
(1.10275 -0.169314 -1.05068e-20)
(1.10286 -0.163528 -3.70252e-21)
(1.10295 -0.157822 1.3493e-20)
(1.103 -0.152192 -1.34776e-20)
(1.10303 -0.146637 9.26713e-21)
(1.10302 -0.141153 -1.37933e-21)
(1.10298 -0.135734 -2.36205e-21)
(1.1029 -0.130375 9.41453e-22)
(1.10278 -0.125077 2.84952e-21)
(1.10261 -0.119841 -6.5609e-21)
(1.10241 -0.114665 5.80826e-21)
(1.10217 -0.109547 -1.41555e-21)
(1.10189 -0.104483 4.2484e-22)
(1.10157 -0.0994708 -1.05153e-21)
(1.10122 -0.0945076 -9.01459e-22)
(1.10083 -0.0895914 1.81555e-21)
(1.10041 -0.0847192 -3.20756e-21)
(1.09996 -0.0798831 2.40382e-21)
(1.09948 -0.0750795 1.39298e-21)
(1.09898 -0.0703082 -1.59675e-21)
(1.09845 -0.0655647 2.30552e-22)
(1.09791 -0.0608428 3.13858e-22)
(1.09736 -0.0561368 -7.05608e-22)
(1.09681 -0.0514399 2.41743e-21)
(1.09626 -0.0467446 -1.67777e-21)
(1.09572 -0.0420426 -1.45407e-21)
(1.0952 -0.0373242 2.28462e-23)
(1.09471 -0.0325784 -6.42129e-22)
(1.09426 -0.0277926 1.80725e-21)
(1.09387 -0.0229514 -3.18535e-22)
(1.09353 -0.0180409 5.70414e-22)
(1.09328 -0.0130285 -7.72567e-22)
(1.0931 -0.00793225 -2.00279e-21)
(1.09305 -0.00260765 -8.33905e-22)
(1.09713 -0.206708 -1.09851e-20)
(1.09658 -0.20041 1.07824e-20)
(1.09669 -0.194087 5.05094e-21)
(1.09706 -0.187868 -9.77562e-21)
(1.09749 -0.181795 -1.87111e-21)
(1.0979 -0.17581 4.3798e-21)
(1.09828 -0.169907 -2.87785e-21)
(1.09861 -0.164089 1.78486e-21)
(1.09891 -0.158352 1.04457e-20)
(1.09917 -0.152692 -1.23529e-20)
(1.09939 -0.147107 9.9165e-21)
(1.09956 -0.141594 -7.7199e-21)
(1.09969 -0.136148 3.94425e-21)
(1.09977 -0.130766 3.87572e-21)
(1.0998 -0.125446 -7.58389e-23)
(1.09978 -0.120189 -1.05277e-20)
(1.09972 -0.114993 5.95742e-21)
(1.09961 -0.109854 -7.49217e-21)
(1.09945 -0.104772 9.04852e-21)
(1.09925 -0.0997415 -3.5812e-21)
(1.099 -0.0947613 -1.87809e-22)