/*--------------------------------*- C++ -*----------------------------------*\
  =========                 |
  \\      /  F ield         | OpenFOAM: The Open Source CFD Toolbox
   \\    /   O peration     | Website:  https://openfoam.org
    \\  /    A nd           | Version:  7
     \\/     M anipulation  |
\*---------------------------------------------------------------------------*/
FoamFile
{
    version     2.0;
    format      ascii;
    class       volVectorField;
    location    "15";
    object      U;
}
// * * * * * * * * * * * * * * * * * * * * * * * * * * * * * * * * * * * * * //

dimensions      [0 1 -1 0 0 0 0];

internalField   nonuniform List<vector> 
1987
(
(0.988852 -0.209823 1.68384e-20)
(0.996234 -0.211698 -6.2352e-20)
(1.00361 -0.213301 1.50837e-19)
(1.00866 -0.227302 6.46134e-20)
(1.01098 -0.214657 -1.07844e-19)
(1.01665 -0.228429 -4.66965e-20)
(1.01834 -0.21578 5.00586e-20)
(1.02326 -0.242284 -6.23847e-21)
(1.02459 -0.229292 -7.86982e-21)
(1.02569 -0.216674 -9.47875e-21)
(1.0316 -0.242841 6.69112e-21)
(1.03246 -0.229897 4.7106e-21)
(1.03301 -0.217343 -4.68256e-21)
(1.03987 -0.243138 -5.44143e-21)
(1.04027 -0.230254 9.36002e-21)
(1.0403 -0.217791 1.05148e-21)
(1.04778 -0.257296 7.39196e-21)
(1.04804 -0.243182 6.97338e-21)
(1.04799 -0.230371 2.21933e-21)
(1.04755 -0.218026 -8.74329e-22)
(1.0563 -0.256942 -1.31123e-20)
(1.05611 -0.242983 -3.5921e-21)
(1.05564 -0.230258 9.18519e-21)
(1.05476 -0.218052 -6.30706e-21)
(1.06471 -0.256336 -2.50042e-20)
(1.06407 -0.242549 7.36402e-21)
(1.06321 -0.229923 8.66875e-21)
(1.06191 -0.217875 3.76238e-23)
(1.07298 -0.255489 3.50327e-20)
(1.07192 -0.241889 -7.46992e-21)
(1.07068 -0.229375 -1.06024e-20)
(1.069 -0.217502 7.30246e-21)
(1.08297 -0.268367 -2.95751e-20)
(1.08111 -0.254412 -3.24923e-20)
(1.07965 -0.241015 1.98197e-20)
(1.07805 -0.228625 2.67896e-20)
(1.07602 -0.216939 -1.03572e-20)
(1.09135 -0.266809 1.92197e-20)
(1.0891 -0.253115 2.61036e-20)
(1.08726 -0.239935 -6.5733e-20)
(1.08532 -0.22768 -2.94214e-20)
(1.08297 -0.216192 2.37993e-20)
(1.09955 -0.265033 -6.14076e-21)
(1.09694 -0.251611 8.73075e-21)
(1.09473 -0.23866 2.41734e-20)
(1.09248 -0.226551 7.33201e-21)
(1.08983 -0.215269 -2.05694e-20)
(1.10757 -0.26305 -3.48428e-20)
(1.10462 -0.249912 1.4605e-20)
(1.10208 -0.237201 1.54032e-20)
(1.09953 -0.225247 4.48374e-20)
(1.0966 -0.214174 -8.28667e-21)
(1.11542 -0.260876 -2.11059e-21)
(1.11214 -0.248029 3.28605e-20)
(1.10928 -0.235571 1.55398e-20)
(1.10647 -0.223778 -6.1343e-20)
(1.10328 -0.212916 -9.26344e-21)
(1.12307 -0.258524 -2.27813e-20)
(1.1195 -0.245975 1.16854e-21)
(1.11634 -0.23378 -1.99377e-20)
(1.11329 -0.222154 1.89559e-20)
(1.10986 -0.211497 3.40362e-20)
(1.13495 -0.268704 2.90225e-20)
(1.13053 -0.256008 5.7409e-20)
(1.12668 -0.243761 -6.40788e-20)
(1.12325 -0.231842 1.15312e-20)
(1.11998 -0.220387 3.20161e-20)
(1.11637 -0.209935 -2.17337e-20)
(1.1337 -0.2414 -4.31479e-20)
(1.13001 -0.229762 1.78333e-20)
(1.12653 -0.218498 -1.10804e-20)
(1.12283 -0.208226 4.06333e-20)
(0.973158 -0.179071 0)
(0.969598 -0.158 0)
(0.963588 -0.148715 0)
(0.961964 -0.131154 0)
(0.959738 -0.120104 0)
(0.960279 -0.105741 0)
(0.960491 -0.0950456 0)
(0.962519 -0.0832099 0)
(0.964255 -0.0737408 0)
(0.967156 -0.0640575 0)
(0.969732 -0.0560832 0)
(0.973012 -0.0482732 0)
(0.975914 -0.0417744 0)
(0.9792 -0.0355702 0)
(0.982064 -0.0303962 0)
(0.985097 -0.0255327 0)
(0.987681 -0.0214803 0)
(0.990294 -0.0176993 0)
(0.992449 -0.0145468 0)
(0.994546 -0.0116042 0)
(0.996183 -0.00913539 0)
(0.9977 -0.0067995 0)
(0.998746 -0.00478515 0)
(0.999608 -0.00279954 0)
(0.999957 -0.000960507 0)
(0.979687 -0.174233 0)
(0.975912 -0.155236 0)
(0.969654 -0.146635 0)
(0.967514 -0.130073 0)
(0.964753 -0.11969 0)
(0.964691 -0.105741 0)
(0.964378 -0.0954611 0)
(0.965867 -0.0838001 0)
(0.967139 -0.0745297 0)
(0.969599 -0.0648925 0)
(0.971792 -0.056976 0)
(0.974727 -0.0491376 0)
(0.977329 -0.0426174 0)
(0.980356 -0.0363463 0)
(0.982995 -0.031113 0)
(0.985839 -0.026168 0)
(0.988258 -0.0220432 0)
(0.990737 -0.0181808 0)
(0.992775 -0.0149568 0)
(0.99478 -0.0119401 0)
(0.996339 -0.00940603 0)
(0.997796 -0.00700433 0)
(0.998795 -0.00493111 0)
(0.999626 -0.0028856 0)
(0.999957 -0.000990217 0)
(0.98596 -0.169861 0)
(0.981979 -0.152398 0)
(0.975565 -0.144341 0)
(0.972993 -0.128786 0)
(0.969776 -0.118985 0)
(0.969164 -0.105522 0)
(0.968361 -0.0956464 0)
(0.969321 -0.0842066 0)
(0.970144 -0.0751526 0)
(0.972153 -0.0655924 0)
(0.973965 -0.057756 0)
(0.97654 -0.0499112 0)
(0.978837 -0.0433882 0)
(0.981587 -0.0370656 0)
(0.983993 -0.0317863 0)
(0.986632 -0.0267702 0)
(0.988879 -0.0225817 0)
(0.991211 -0.0186445 0)
(0.993127 -0.0153544 0)
(0.99503 -0.0122674 0)
(0.996506 -0.00967117 0)
(0.997898 -0.00720573 0)
(0.998847 -0.00507525 0)
(0.999644 -0.00297087 0)
(0.999958 -0.00101969 0)
(0.991984 -0.165502 0)
(0.987841 -0.149344 0)
(0.981337 -0.141826 0)
(0.978387 -0.12725 0)
(0.974779 -0.117991 0)
(0.973669 -0.105078 0)
(0.972403 -0.0956021 0)
(0.972856 -0.0844349 0)
(0.973241 -0.0756152 0)
(0.974798 -0.0661659 0)
(0.97623 -0.0584312 0)
(0.978433 -0.0506023 0)
(0.980422 -0.0440942 0)
(0.982882 -0.0377348 0)
(0.985048 -0.0324218 0)
(0.987469 -0.0273437 0)
(0.989538 -0.0230995 0)
(0.991712 -0.0190927 0)
(0.993501 -0.0157412 0)
(0.995295 -0.012587 0)
(0.996684 -0.00993113 0)
(0.998005 -0.00740355 0)
(0.998903 -0.00521724 0)
(0.999663 -0.0030549 0)
(0.999959 -0.0010488 0)
(0.997773 -0.161064 0)
(0.99349 -0.146073 0)
(0.986955 -0.139114 0)
(0.98367 -0.125476 0)
(0.979734 -0.116741 0)
(0.978171 -0.104418 0)
(0.976473 -0.0953401 0)
(0.976445 -0.0844922 0)
(0.976402 -0.07592 0)
(0.977514 -0.0666157 0)
(0.978569 -0.0590012 0)
(0.980396 -0.0512111 0)
(0.982072 -0.0447342 0)
(0.984233 -0.0383527 0)
(0.986154 -0.033018 0)
(0.988347 -0.0278873 0)
(0.990233 -0.0235951 0)
(0.99224 -0.0195245 0)
(0.993897 -0.0161163 0)
(0.995573 -0.0128978 0)
(0.996873 -0.0101851 0)
(0.998117 -0.00759714 0)
(0.998962 -0.00535663 0)
(0.999682 -0.00313734 0)
(0.99996 -0.00107742 0)
(1.00333 -0.156561 0)
(0.998917 -0.142624 0)
(0.992398 -0.136224 0)
(0.988816 -0.123477 0)
(0.984614 -0.115256 0)
(0.982635 -0.103545 0)
(0.980543 -0.0948631 0)
(0.98006 -0.0843738 0)
(0.979605 -0.0760601 0)
(0.980285 -0.0669346 0)
(0.980966 -0.0594567 0)
(0.982417 -0.0517297 0)
(0.983779 -0.0452998 0)
(0.985634 -0.0389127 0)
(0.987306 -0.0335686 0)
(0.989263 -0.0283958 0)
(0.99096 -0.0240642 0)
(0.992792 -0.0199361 0)
(0.994312 -0.0164766 0)
(0.995865 -0.0131978 0)
(0.997072 -0.0104315 0)
(0.998235 -0.00778531 0)
(0.999025 -0.00549264 0)
(0.999702 -0.00321774 0)
(0.999962 -0.00110541 0)
(1.00865 -0.151994 0)
(1.00412 -0.139024 0)
(0.997646 -0.133171 0)
(0.993805 -0.121262 0)
(0.989393 -0.113551 0)
(0.987034 -0.102456 0)
(0.984589 -0.094173 0)
(0.983678 -0.0840735 0)
(0.982832 -0.076029 0)
(0.983094 -0.0671146 0)
(0.983407 -0.0597887 0)
(0.984486 -0.0521503 0)
(0.985534 -0.0457828 0)
(0.987081 -0.039408 0)
(0.9885 -0.0340671 0)
(0.990214 -0.0288641 0)
(0.991718 -0.0245022 0)
(0.993368 -0.0203241 0)
(0.994748 -0.0168193 0)
(0.99617 -0.0134845 0)
(0.997281 -0.0106685 0)
(0.998358 -0.00796676 0)
(0.999091 -0.00562438 0)
(0.999722 -0.00329559 0)
(0.999964 -0.00113261 0)
(1.01372 -0.14736 0)
(1.00908 -0.135293 0)
(1.00268 -0.129961 0)
(0.998621 -0.118843 0)
(0.994048 -0.111636 0)
(0.991345 -0.101154 0)
(0.98859 -0.0932741 0)
(0.987277 -0.0835871 0)
(0.986065 -0.075823 0)
(0.985925 -0.0671492 0)
(0.985881 -0.0599902 0)
(0.986595 -0.052466 0)
(0.98733 -0.0461759 0)
(0.988568 -0.0398325 0)
(0.989731 -0.0345074 0)
(0.991199 -0.0292872 0)
(0.992504 -0.0249044 0)
(0.993967 -0.0206848 0)
(0.995201 -0.0171412 0)
(0.996488 -0.0137557 0)
(0.9975 -0.0108942 0)
(0.998487 -0.00814011 0)
(0.999161 -0.00575086 0)
(0.999743 -0.00337032 0)
(0.999967 -0.00115883 0)
(1.01853 -0.142658 0)
(1.0138 -0.131442 0)
(1.0075 -0.126604 0)
(1.00325 -0.116234 0)
(0.998559 -0.109524 0)
(0.99555 -0.0996432 0)
(0.992525 -0.0921715 0)
(0.99084 -0.0829126 0)
(0.98929 -0.0754405 0)
(0.988765 -0.067033 0)
(0.988377 -0.0600555 0)
(0.988735 -0.0526704 0)
(0.98916 -0.0464725 0)
(0.990091 -0.0401802 0)
(0.990996 -0.0348836 0)
(0.992214 -0.0296603 0)
(0.993318 -0.0252665 0)
(0.994589 -0.0210147 0)
(0.995673 -0.0174391 0)
(0.99682 -0.0140088 0)
(0.997728 -0.0111065 0)
(0.998621 -0.00830394 0)
(0.999234 -0.00587104 0)
(0.999764 -0.00344134 0)
(0.99997 -0.00118386 0)
(1.02307 -0.137892 0)
(1.01828 -0.127485 0)
(1.01209 -0.123108 0)
(1.00769 -0.113452 0)
(1.00291 -0.107223 0)
(0.999634 -0.0979322 0)
(0.996378 -0.0908709 0)
(0.99435 -0.08205 0)
(0.99249 -0.0748811 0)
(0.9916 -0.0667614 0)
(0.990885 -0.05998 0)
(0.990896 -0.0527577 0)
(0.991018 -0.0466664 0)
(0.991644 -0.0404453 0)
(0.992291 -0.03519 0)
(0.993259 -0.0299785 0)
(0.994156 -0.0255836 0)
(0.995232 -0.0213099 0)
(0.996162 -0.0177097 0)
(0.997165 -0.0142414 0)
(0.997966 -0.0113034 0)
(0.998761 -0.00845671 0)
(0.999311 -0.00598378 0)
(0.999787 -0.00350802 0)
(0.999973 -0.00120747 0)
(1.02733 -0.133071 0)
(1.02249 -0.123432 0)
(1.01643 -0.119484 0)
(1.01192 -0.110509 0)
(1.00709 -0.104745 0)
(1.00358 -0.0960294 0)
(1.00013 -0.0893781 0)
(0.997793 -0.0810007 0)
(0.995652 -0.074145 0)
(0.994419 -0.0663312 0)
(0.993395 -0.0597601 0)
(0.99307 -0.052722 0)
(0.992896 -0.046752 0)
(0.993223 -0.040622 0)
(0.993612 -0.0354207 0)
(0.994329 -0.0302367 0)
(0.995018 -0.025851 0)
(0.995895 -0.0215667 0)
(0.996668 -0.0179494 0)
(0.997522 -0.0144507 0)
(0.998213 -0.0114824 0)
(0.998907 -0.00859679 0)
(0.99939 -0.00608782 0)
(0.999811 -0.00356967 0)
(0.999976 -0.00122942 0)
(1.03132 -0.128203 0)
(1.02646 -0.119294 0)
(1.02054 -0.115743 0)
(1.01594 -0.107419 0)
(1.01109 -0.102099 0)
(1.00739 -0.0939447 0)
(1.00377 -0.0876997 0)
(1.00116 -0.079768 0)
(0.998762 -0.0732336 0)
(0.997209 -0.0657399 0)
(0.995895 -0.0593925 0)
(0.995249 -0.0525584 0)
(0.994789 -0.0467242 0)
(0.994821 -0.0407044 0)
(0.994956 -0.0355704 0)
(0.995422 -0.0304299 0)
(0.995901 -0.0260639 0)
(0.996577 -0.0217809 0)
(0.997188 -0.0181546 0)
(0.997892 -0.014634 0)
(0.998468 -0.0116412 0)
(0.999059 -0.00872245 0)
(0.999472 -0.00618186 0)
(0.999836 -0.00362559 0)
(0.999979 -0.00124941 0)
(1.03503 -0.123299 0)
(1.03017 -0.115083 0)
(1.0244 -0.111896 0)
(1.01975 -0.104194 0)
(1.0149 -0.0992971 0)
(1.01104 -0.091688 0)
(1.00729 -0.0858425 0)
(1.00443 -0.0783561 0)
(1.00181 -0.0721485 0)
(0.99996 -0.0649864 0)
(0.998376 -0.0588753 0)
(0.997423 -0.0522626 0)
(0.996688 -0.0465784 0)
(0.996433 -0.0406873 0)
(0.996317 -0.0356337 0)
(0.996534 -0.0305528 0)
(0.996803 -0.0262176 0)
(0.997277 -0.0219484 0)
(0.997723 -0.0183215 0)
(0.998273 -0.0147881 0)
(0.998731 -0.0117772 0)
(0.999216 -0.00883186 0)
(0.999558 -0.00626447 0)
(0.999862 -0.00367502 0)
(0.999982 -0.00126716 0)
(1.03848 -0.118368 0)
(1.03363 -0.110808 0)
(1.02803 -0.107955 0)
(1.02334 -0.100846 0)
(1.01851 -0.0963499 0)
(1.01453 -0.0892694 0)
(1.01067 -0.0838141 0)
(1.0076 -0.0767702 0)
(1.00478 -0.0708927 0)
(1.00266 -0.0640707 0)
(1.00083 -0.0582067 0)
(0.999583 -0.0518309 0)
(0.998585 -0.0463105 0)
(0.998052 -0.0405656 0)
(0.99769 -0.0356057 0)
(0.997662 -0.0306003 0)
(0.99772 -0.0263072 0)
(0.997991 -0.022065 0)
(0.998271 -0.0184464 0)
(0.998665 -0.01491 0)
(0.999002 -0.0118878 0)
(0.999378 -0.00892311 0)
(0.999645 -0.00633419 0)
(0.99989 -0.00371717 0)
(0.999985 -0.00128234 0)
(1.04165 -0.113419 0)
(1.03684 -0.10648 0)
(1.0314 -0.103932 0)
(1.02672 -0.0973877 0)
(1.02192 -0.0932687 0)
(1.01785 -0.086699 0)
(1.01391 -0.0816227 0)
(1.01066 -0.0750162 0)
(1.00766 -0.0694694 0)
(1.0053 -0.0629938 0)
(1.00323 -0.0573861 0)
(1.00172 -0.0512605 0)
(1.00047 -0.045917 0)
(0.999672 -0.0403344 0)
(0.999071 -0.0354815 0)
(0.998801 -0.0305676 0)
(0.998649 -0.0263282 0)
(0.998719 -0.0221263 0)
(0.998829 -0.0185254 0)
(0.999066 -0.0149965 0)
(0.99928 -0.0119702 0)
(0.999545 -0.00899417 0)
(0.999735 -0.00638945 0)
(0.999919 -0.00375119 0)
(0.999988 -0.00129463 0)
(1.04457 -0.108462 0)
(1.03981 -0.102107 0)
(1.03454 -0.0998379 0)
(1.02987 -0.0938287 0)
(1.02514 -0.0900647 0)
(1.02099 -0.0839868 0)
(1.017 -0.0792766 0)
(1.01359 -0.0731005 0)
(1.01045 -0.0678829 0)
(1.00787 -0.0617575 0)
(1.00559 -0.0564134 0)
(1.00383 -0.0505493 0)
(1.00234 -0.0453949 0)
(1.00129 -0.0399895 0)
(1.00045 -0.035257 0)
(0.999946 -0.0304497 0)
(0.999587 -0.026276 0)
(0.999456 -0.022128 0)
(0.999397 -0.0185546 0)
(0.999476 -0.0150443 0)
(0.999563 -0.0120216 0)
(0.999717 -0.00904294 0)
(0.999828 -0.00642865 0)
(0.999949 -0.00377621 0)
(0.999991 -0.00130368 0)
(1.04723 -0.103503 0)
(1.04253 -0.0976989 0)
(1.03744 -0.0956829 0)
(1.03281 -0.0901798 0)
(1.02814 -0.0867489 0)
(1.02396 -0.0811426 0)
(1.01993 -0.0767847 0)
(1.0164 -0.0710299 0)
(1.01312 -0.066138 0)
(1.01036 -0.0603642 0)
(1.00789 -0.0552893 0)
(1.00589 -0.0496961 0)
(1.00419 -0.0447418 0)
(1.00289 -0.0395273 0)
(1.00183 -0.034928 0)
(1.00109 -0.0302421 0)
(1.00053 -0.0261463 0)
(1.0002 -0.0220658 0)
(0.999972 -0.0185303 0)
(0.999892 -0.0150499 0)
(0.999851 -0.0120393 0)
(0.999892 -0.00906723 0)
(0.999922 -0.00645015 0)
(0.99998 -0.0037913 0)
(0.999993 -0.00130911 0)
(1.04964 -0.0985496 0)
(1.04503 -0.0932623 0)
(1.04011 -0.0914767 0)
(1.03554 -0.0864509 0)
(1.03095 -0.0833316 0)
(1.02675 -0.0781759 0)
(1.02269 -0.0741559 0)
(1.01907 -0.0688114 0)
(1.01569 -0.0642402 0)
(1.01275 -0.0588173 0)
(1.01011 -0.0540153 0)
(1.00791 -0.0487005 0)
(1.00599 -0.0439559 0)
(1.00447 -0.0389446 0)
(1.00319 -0.0344909 0)
(1.00224 -0.0299404 0)
(1.00147 -0.025935 0)
(1.00095 -0.0219355 0)
(1.00055 -0.0184485 0)
(1.00031 -0.0150101 0)
(1.00014 -0.0120203 0)
(1.00007 -0.00906477 0)
(1.00002 -0.00645227 0)
(1.00001 -0.0037955 0)
(0.999996 -0.00131057 0)
(1.05182 -0.0936085 0)
(1.0473 -0.088805 0)
(1.04255 -0.0872279 0)
(1.03805 -0.0826513 0)
(1.03355 -0.0798227 0)
(1.02935 -0.0750962 0)
(1.02529 -0.0713989 0)
(1.02159 -0.0664524 0)
(1.01813 -0.0621951 0)
(1.01505 -0.0571205 0)
(1.01226 -0.0525934 0)
(1.00986 -0.0475624 0)
(1.00776 -0.0430361 0)
(1.00602 -0.0382389 0)
(1.00454 -0.0339426 0)
(1.00337 -0.0295407 0)
(1.00242 -0.025638 0)
(1.0017 -0.0217329 0)
(1.00113 -0.0183058 0)
(1.00074 -0.0149213 0)
(1.00044 -0.0119618 0)
(1.00025 -0.00903325 0)
(1.00011 -0.00643332 0)
(1.00004 -0.00378781 0)
(0.999997 -0.00130769 0)
(1.05376 -0.0886848 0)
(1.04935 -0.0843333 0)
(1.04477 -0.0829448 0)
(1.04035 -0.0787895 0)
(1.03595 -0.0762317 0)
(1.03177 -0.0719123 0)
(1.02773 -0.0685224 0)
(1.02397 -0.0639601 0)
(1.02044 -0.0600091 0)
(1.01724 -0.0552782 0)
(1.01432 -0.0510263 0)
(1.01175 -0.0462829 0)
(1.00947 -0.0419819 0)
(1.00753 -0.0374083 0)
(1.00586 -0.0332804 0)
(1.00449 -0.0290396 0)
(1.00335 -0.0252518 0)
(1.00244 -0.0214541 0)
(1.00171 -0.0180985 0)
(1.00116 -0.0147801 0)
(1.00074 -0.0118611 0)
(1.00043 -0.00897031 0)
(1.00021 -0.00639163 0)
(1.00008 -0.00376719 0)
(0.999999 -0.00130011 0)
(1.05549 -0.0837828 0)
(1.05119 -0.0798527 0)
(1.04678 -0.0786342 0)
(1.04244 -0.0748732 0)
(1.03814 -0.072567 0)
(1.034 -0.0686328 0)
(1.02999 -0.0655349 0)
(1.0262 -0.061342 0)
(1.02262 -0.0576884 0)
(1.01932 -0.0532951 0)
(1.01629 -0.0493173 0)
(1.01357 -0.0448633 0)
(1.01113 -0.0407934 0)
(1.00901 -0.0364512 0)
(1.00716 -0.032502 0)
(1.00559 -0.0284337 0)
(1.00427 -0.0247731 0)
(1.00318 -0.0210954 0)
(1.00229 -0.0178232 0)
(1.00159 -0.0145832 0)
(1.00103 -0.0117154 0)
(1.00062 -0.00887359 0)
(1.00031 -0.00632554 0)
(1.00011 -0.00373257 0)
(1 -0.00128746 0)
(1.05701 -0.078906 0)
(1.05282 -0.0753681 0)
(1.04857 -0.0743024 0)
(1.04434 -0.0709096 0)
(1.04015 -0.0688367 0)
(1.03605 -0.0652658 0)
(1.03207 -0.0624443 0)
(1.02827 -0.0586053 0)
(1.02466 -0.0552395 0)
(1.02129 -0.051176 0)
(1.01816 -0.0474701 0)
(1.0153 -0.0433057 0)
(1.01272 -0.0394711 0)
(1.01043 -0.0353671 0)
(1.00841 -0.0316057 0)
(1.00667 -0.0277206 0)
(1.00517 -0.0241988 0)
(1.00391 -0.0206534 0)
(1.00286 -0.0174768 0)
(1.00201 -0.0143275 0)
(1.00133 -0.011522 0)
(1.0008 -0.00874074 0)
(1.00041 -0.00623342 0)
(1.00014 -0.00368288 0)
(1 -0.0012694 0)
(1.05832 -0.0740568 0)
(1.05427 -0.0708833 0)
(1.05017 -0.0699546 0)
(1.04605 -0.0669048 0)
(1.04196 -0.0650477 0)
(1.03792 -0.0618185 0)
(1.03399 -0.059258 0)
(1.03019 -0.055757 0)
(1.02656 -0.0526687 0)
(1.02313 -0.0489262 0)
(1.01992 -0.0454885 0)
(1.01695 -0.0416124 0)
(1.01424 -0.0380163 0)
(1.0118 -0.0341556 0)
(1.00962 -0.0305904 0)
(1.00771 -0.0268981 0)
(1.00605 -0.0235262 0)
(1.00463 -0.020125 0)
(1.00343 -0.0170561 0)
(1.00243 -0.0140098 0)
(1.00162 -0.0112783 0)
(1.00098 -0.0085695 0)
(1.0005 -0.0061137 0)
(1.00018 -0.00361702 0)
(1 -0.00124562 0)
(1.05945 -0.0692369 0)
(1.05552 -0.066401 0)
(1.05158 -0.0655951 0)
(1.04756 -0.0628641 0)
(1.04359 -0.0612063 0)
(1.03962 -0.0582977 0)
(1.03574 -0.0559832 0)
(1.03196 -0.0528037 0)
(1.02832 -0.0499822 0)
(1.02484 -0.0465508 0)
(1.02157 -0.0433767 0)
(1.01851 -0.0397864 0)
(1.01568 -0.0364306 0)
(1.01311 -0.0328171 0)
(1.01079 -0.0294553 0)
(1.00872 -0.0259644 0)
(1.0069 -0.0227533 0)
(1.00532 -0.0195075 0)
(1.00398 -0.0165585 0)
(1.00284 -0.0136274 0)
(1.00191 -0.0109821 0)
(1.00116 -0.00835766 0)
(1.0006 -0.00596487 0)
(1.00021 -0.00353393 0)
(1 -0.00121579 0)
(1.06041 -0.0644467 0)
(1.05661 -0.0619233 0)
(1.05281 -0.0612268 0)
(1.04891 -0.0587916 0)
(1.04504 -0.0573175 0)
(1.04114 -0.0547091 0)
(1.03733 -0.0526258 0)
(1.03357 -0.0497516 0)
(1.02993 -0.0471857 0)
(1.02643 -0.044055 0)
(1.0231 -0.041139 0)
(1.01996 -0.0378306 0)
(1.01705 -0.0347159 0)
(1.01435 -0.0313523 0)
(1.0119 -0.0282001 0)
(1.00969 -0.0249183 0)
(1.00772 -0.0218781 0)
(1.006 -0.0187985 0)
(1.00451 -0.0159814 0)
(1.00324 -0.0131776 0)
(1.00219 -0.0106309 0)
(1.00134 -0.00810317 0)
(1.00069 -0.00578549 0)
(1.00024 -0.00343257 0)
(1 -0.00117964 0)
(1.0612 -0.0596857 0)
(1.05753 -0.0574511 0)
(1.05387 -0.0568518 0)
(1.05008 -0.0546907 0)
(1.04631 -0.0533857 0)
(1.0425 -0.0510577 0)
(1.03875 -0.0491914 0)
(1.03503 -0.0466062 0)
(1.03141 -0.0442848 0)
(1.02789 -0.0414436 0)
(1.02453 -0.0387796 0)
(1.02132 -0.0357483 0)
(1.01832 -0.0328745 0)
(1.01552 -0.0297623 0)
(1.01295 -0.026825 0)
(1.01061 -0.0237592 0)
(1.00851 -0.0208993 0)
(1.00665 -0.0179962 0)
(1.00502 -0.0153228 0)
(1.00363 -0.0126582 0)
(1.00246 -0.0102228 0)
(1.00151 -0.00780415 0)
(1.00079 -0.00557423 0)
(1.00028 -0.00331195 0)
(1.00001 -0.0011369 0)
(1.06185 -0.0549522 0)
(1.0583 -0.0529839 0)
(1.05477 -0.052471 0)
(1.05109 -0.0505633 0)
(1.04743 -0.0494138 0)
(1.04371 -0.0473473 0)
(1.04002 -0.0456843 0)
(1.03634 -0.0433723 0)
(1.03274 -0.0412842 0)
(1.02922 -0.0387213 0)
(1.02583 -0.0363026 0)
(1.02258 -0.0335429 0)
(1.0195 -0.0309089 0)
(1.01661 -0.0280486 0)
(1.01394 -0.0253307 0)
(1.01148 -0.0224866 0)
(1.00926 -0.0198158 0)
(1.00727 -0.0170989 0)
(1.00552 -0.0145808 0)
(1.004 -0.0120672 0)
(1.00273 -0.00975581 0)
(1.00168 -0.00745892 0)
(1.00087 -0.00532984 0)
(1.00031 -0.00317119 0)
(1.00001 -0.00108734 0)
(1.06235 -0.0502431 0)
(1.05893 -0.0485202 0)
(1.05552 -0.0480839 0)
(1.05196 -0.0464103 0)
(1.0484 -0.0454035 0)
(1.04476 -0.0435807 0)
(1.04114 -0.0421082 0)
(1.03751 -0.0400539 0)
(1.03394 -0.0381881 0)
(1.03042 -0.0358921 0)
(1.02702 -0.0337117 0)
(1.02372 -0.0312175 0)
(1.02059 -0.0288215 0)
(1.01762 -0.0262129 0)
(1.01486 -0.023718 0)
(1.01229 -0.0211008 0)
(1.00996 -0.0186273 0)
(1.00785 -0.0161056 0)
(1.00599 -0.0137541 0)
(1.00436 -0.011403 0)
(1.00298 -0.00922849 0)
(1.00184 -0.00706603 0)
(1.00096 -0.00505125 0)
(1.00034 -0.0030095 0)
(1.00001 -0.00103074 0)
(1.06274 -0.0455542 0)
(1.05944 -0.0440572 0)
(1.05614 -0.0436884 0)
(1.05269 -0.0422309 0)
(1.04923 -0.0413554 0)
(1.04567 -0.0397594 0)
(1.04212 -0.0384651 0)
(1.03854 -0.0366539 0)
(1.03501 -0.0349998 0)
(1.0315 -0.0329595 0)
(1.02809 -0.0310102 0)
(1.02477 -0.0287753 0)
(1.02159 -0.0266148 0)
(1.01856 -0.0242571 0)
(1.01571 -0.0219881 0)
(1.01305 -0.0196022 0)
(1.01062 -0.0173334 0)
(1.0084 -0.0150157 0)
(1.00643 -0.0128416 0)
(1.00469 -0.0106644 0)
(1.00322 -0.00863955 0)
(1.00199 -0.0066243 0)
(1.00104 -0.00473753 0)
(1.00037 -0.00282621 0)
(1.00001 -0.000966931 0)
(1.06302 -0.0408793 0)
(1.05983 -0.0395905 0)
(1.05664 -0.0392812 0)
(1.05329 -0.0380233 0)
(1.04992 -0.0372682 0)
(1.04645 -0.0358835 0)
(1.04297 -0.034756 0)
(1.03944 -0.033174 0)
(1.03594 -0.0317215 0)
(1.03246 -0.0299261 0)
(1.02905 -0.028201 0)
(1.0257 -0.0262187 0)
(1.02249 -0.0242913 0)
(1.0194 -0.0221831 0)
(1.01649 -0.0201423 0)
(1.01375 -0.0179916 0)
(1.01122 -0.0159346 0)
(1.00891 -0.013829 0)
(1.00684 -0.0118428 0)
(1.00501 -0.00985061 0)
(1.00344 -0.0079881 0)
(1.00213 -0.00613285 0)
(1.00112 -0.00438798 0)
(1.00039 -0.00262081 0)
(1.00001 -0.000895763 0)
(1.06321 -0.036211 0)
(1.06013 -0.0351138 0)
(1.05704 -0.034857 0)
(1.05378 -0.0337834 0)
(1.0505 -0.0331393 0)
(1.0471 -0.0319515 0)
(1.04369 -0.0309805 0)
(1.04022 -0.0296149 0)
(1.03676 -0.0283546 0)
(1.03329 -0.0267938 0)
(1.02989 -0.0252861 0)
(1.02654 -0.0235501 0)
(1.02329 -0.021853 0)
(1.02016 -0.0199928 0)
(1.01719 -0.0181822 0)
(1.01438 -0.01627 0)
(1.01177 -0.0144314 0)
(1.00937 -0.0125456 0)
(1.00721 -0.0107575 0)
(1.00529 -0.0089612 0)
(1.00365 -0.00727364 0)
(1.00227 -0.00559115 0)
(1.00119 -0.00400211 0)
(1.00042 -0.00239295 0)
(1.00001 -0.000817142 0)
(1.06332 -0.0315394 0)
(1.06035 -0.0306191 0)
(1.05734 -0.0304085 0)
(1.05418 -0.0295058 0)
(1.05097 -0.028964 0)
(1.04765 -0.0279603 0)
(1.04429 -0.0271364 0)
(1.04088 -0.0259754 0)
(1.03745 -0.0248987 0)
(1.03402 -0.0235633 0)
(1.03062 -0.0222666 0)
(1.02727 -0.0207711 0)
(1.024 -0.0193017 0)
(1.02083 -0.0176879 0)
(1.01781 -0.0161094 0)
(1.01494 -0.0144389 0)
(1.01226 -0.0128249 0)
(1.00979 -0.0111663 0)
(1.00755 -0.00958617 0)
(1.00556 -0.00799634 0)
(1.00383 -0.00649612 0)
(1.00239 -0.00499905 0)
(1.00125 -0.00357972 0)
(1.00044 -0.0021425 0)
(1.00001 -0.000731024 0)
(1.06337 -0.0268527 0)
(1.06049 -0.0260961 0)
(1.05756 -0.0259265 0)
(1.05448 -0.0251825 0)
(1.05134 -0.0247356 0)
(1.04809 -0.0239045 0)
(1.04479 -0.0232197 0)
(1.04143 -0.022253 0)
(1.03804 -0.0213524 0)
(1.03463 -0.0202338 0)
(1.03125 -0.0191428 0)
(1.02789 -0.0178825 0)
(1.02461 -0.0166385 0)
(1.02142 -0.01527 0)
(1.01835 -0.0139253 0)
(1.01544 -0.0124998 0)
(1.0127 -0.0111162 0)
(1.01016 -0.00969214 0)
(1.00785 -0.00832958 0)
(1.00579 -0.00695667 0)
(1.004 -0.00565595 0)
(1.0025 -0.00435683 0)
(1.00131 -0.00312097 0)
(1.00046 -0.00186951 0)
(1.00001 -0.000637431 0)
(1.06338 -0.022136 0)
(1.06058 -0.021532 0)
(1.05771 -0.0213989 0)
(1.05471 -0.0208033 0)
(1.05163 -0.0204452 0)
(1.04844 -0.019777 0)
(1.0452 -0.0192243 0)
(1.04188 -0.0184431 0)
(1.03852 -0.0177123 0)
(1.03514 -0.0168036 0)
(1.03177 -0.0159136 0)
(1.02842 -0.0148843 0)
(1.02512 -0.0138641 0)
(1.02191 -0.0127402 0)
(1.01882 -0.0116314 0)
(1.01586 -0.0104542 0)
(1.01307 -0.00930724 0)
(1.01048 -0.00812479 0)
(1.00811 -0.00698917 0)
(1.00599 -0.00584343 0)
(1.00415 -0.00475412 0)
(1.00259 -0.00366526 0)
(1.00136 -0.00262635 0)
(1.00048 -0.00157433 0)
(1.00001 -0.000536463 0)
(1.06337 -0.0173718 0)
(1.06064 -0.016911 0)
(1.05782 -0.0168108 0)
(1.05488 -0.0163553 0)
(1.05185 -0.016081 0)
(1.04871 -0.0155678 0)
(1.04551 -0.0151418 0)
(1.04223 -0.0145391 0)
(1.0389 -0.0139732 0)
(1.03555 -0.0132691 0)
(1.03219 -0.0125768 0)
(1.02884 -0.0117755 0)
(1.02554 -0.0109785 0)
(1.02231 -0.0100995 0)
(1.01919 -0.0092293 0)
(1.0162 -0.00830422 0)
(1.01338 -0.00739989 0)
(1.01074 -0.00646638 0)
(1.00833 -0.00556699 0)
(1.00616 -0.00465852 0)
(1.00427 -0.00379225 0)
(1.00267 -0.00292566 0)
(1.0014 -0.00209683 0)
(1.0005 -0.00125755 0)
(1.00001 -0.000428309 0)
(1.06334 -0.0125386 0)
(1.06066 -0.012214 0)
(1.05788 -0.0121443 0)
(1.05499 -0.0118225 0)
(1.052 -0.0116283 0)
(1.04891 -0.0112643 0)
(1.04574 -0.0109612 0)
(1.04249 -0.0105321 0)
(1.03919 -0.0101281 0)
(1.03585 -0.00962489 0)
(1.0325 -0.00912887 0)
(1.02916 -0.00855418 0)
(1.02586 -0.00798104 0)
(1.02262 -0.00734826 0)
(1.01949 -0.0067202 0)
(1.01647 -0.00605176 0)
(1.01362 -0.00539663 0)
(1.01095 -0.0047196 0)
(1.0085 -0.00406569 0)
(1.00629 -0.00340451 0)
(1.00436 -0.00277258 0)
(1.00273 -0.00213995 0)
(1.00144 -0.00153382 0)
(1.00051 -0.000920096 0)
(1.00001 -0.000313279 0)
(1.06331 -0.00761183 0)
(1.06067 -0.00741849 0)
(1.05792 -0.0073775 0)
(1.05506 -0.00718508 0)
(1.0521 -0.00706888 0)
(1.04904 -0.00685062 0)
(1.04589 -0.00666856 0)
(1.04267 -0.0064106 0)
(1.03939 -0.00616722 0)
(1.03606 -0.0058639 0)
(1.03272 -0.00556437 0)
(1.02938 -0.00521702 0)
(1.02608 -0.00487003 0)
(1.02284 -0.00448653 0)
(1.01969 -0.00410526 0)
(1.01666 -0.00369904 0)
(1.01378 -0.00330027 0)
(1.01109 -0.00288773 0)
(1.00862 -0.00248868 0)
(1.00638 -0.00208477 0)
(1.00443 -0.00169819 0)
(1.00278 -0.00131084 0)
(1.00146 -0.000939427 0)
(1.00052 -0.000563421 0)
(1.00001 -0.000191873 0)
(1.06328 -0.00256136 0)
(1.06067 -0.00249613 0)
(1.05794 -0.00248321 0)
(1.0551 -0.00241857 0)
(1.05215 -0.00238009 0)
(1.0491 -0.00230693 0)
(1.04597 -0.0022462 0)
(1.04276 -0.00215974 0)
(1.03948 -0.0020783 0)
(1.03617 -0.00197657 0)
(1.03283 -0.00187614 0)
(1.0295 -0.0017595 0)
(1.0262 -0.00164296 0)
(1.02295 -0.00151401 0)
(1.01979 -0.00138575 0)
(1.01675 -0.00124896 0)
(1.01387 -0.00111461 0)
(1.01117 -0.000975501 0)
(1.00868 -0.000840873 0)
(1.00643 -0.000704481 0)
(1.00446 -0.000573876 0)
(1.0028 -0.000442917 0)
(1.00147 -0.000317351 0)
(1.00052 -0.000190248 0)
(1.00001 -6.48284e-05 0)
(1.12666 -0.196318 1.39263e-20)
(1.1247 -0.190159 -8.59662e-21)
(1.12323 -0.18387 -1.78024e-20)
(1.12219 -0.177617 2.28854e-20)
(1.12131 -0.171593 -2.31629e-22)
(1.12049 -0.165673 -1.51773e-20)
(1.1197 -0.159837 -5.60879e-21)
(1.11891 -0.154082 2.04314e-20)
(1.12054 -0.197709 5.71548e-21)
(1.11887 -0.191511 -2.36445e-20)
(1.11784 -0.185128 4.04057e-21)
(1.1171 -0.178779 1.69615e-20)
(1.11648 -0.172691 -1.36083e-20)
(1.1159 -0.166712 4.43857e-21)
(1.11532 -0.160821 2.58089e-21)
(1.11474 -0.155015 6.43442e-21)
(1.11413 -0.149299 -2.2626e-21)
(1.11354 -0.143658 -8.34672e-21)
(1.11293 -0.138072 8.28839e-21)
(1.11225 -0.132554 -2.20023e-21)
(1.11155 -0.12712 -5.17241e-21)
(1.11082 -0.121764 3.1658e-21)
(1.11006 -0.116482 -7.27565e-21)
(1.10926 -0.111273 5.06667e-21)
(1.10844 -0.106138 -5.21072e-21)
(1.10758 -0.101077 2.02541e-21)
(1.10669 -0.0960849 2.04828e-21)
(1.10577 -0.0911553 6.26286e-21)
(1.10482 -0.0862939 -8.41165e-21)
(1.10383 -0.0815034 3.63409e-21)
(1.10283 -0.0767805 -1.12546e-21)
(1.1018 -0.0721226 -3.71363e-21)
(1.10075 -0.0675276 4.80439e-21)
(1.09969 -0.0629928 -1.24009e-21)
(1.09863 -0.0585151 8.61522e-23)
(1.09756 -0.0540908 -7.82963e-23)
(1.09651 -0.0497157 -1.81567e-21)
(1.09547 -0.0453851 6.85043e-23)
(1.09445 -0.0410911 -2.31153e-22)
(1.09348 -0.0368256 2.12611e-21)
(1.09255 -0.0325815 5.36285e-23)
(1.09168 -0.0283484 -9.84232e-22)
(1.09089 -0.0241136 -2.99193e-22)
(1.0902 -0.0198615 1.42823e-21)
(1.08961 -0.0155778 2.20225e-21)
(1.08915 -0.0112285 -6.02021e-22)
(1.08882 -0.00683022 -3.52818e-21)
(1.08868 -0.0022425 3.2449e-22)
(1.11438 -0.198978 -3.27947e-20)
(1.11305 -0.192632 1.63299e-20)
(1.1124 -0.186205 8.23334e-21)
(1.11195 -0.17988 -1.96863e-20)
(1.1116 -0.173735 5.54597e-21)
(1.11126 -0.167699 4.10118e-22)
(1.11091 -0.161754 -9.65595e-21)
(1.11054 -0.155899 7.50564e-21)
(1.11015 -0.150132 -1.26998e-20)
(1.10975 -0.144443 -1.03551e-21)
(1.10931 -0.13882 1.47827e-20)
(1.10882 -0.13327 -6.70997e-21)
(1.1083 -0.127801 9.50739e-21)
(1.10773 -0.122411 -3.66306e-21)
(1.10713 -0.117097 3.38169e-21)
(1.10648 -0.111858 -3.99563e-21)
(1.10579 -0.106694 8.13397e-21)
(1.10507 -0.101604 -2.83668e-21)
(1.10431 -0.0965838 -4.8828e-21)
(1.10351 -0.0916307 2.75936e-21)
(1.10267 -0.0867463 1.28885e-21)
(1.1018 -0.0819319 -1.61762e-21)
(1.10089 -0.0771854 -3.32326e-21)
(1.09996 -0.0725045 -2.80613e-22)
(1.099 -0.0678868 3.41412e-21)
(1.09803 -0.0633296 6.04247e-23)
(1.09705 -0.0588297 -1.06045e-21)
(1.09606 -0.0543834 3.40439e-21)
(1.09507 -0.0499863 1.16518e-21)
(1.09409 -0.0456333 -4.39699e-22)
(1.09314 -0.041317 1.42494e-22)
(1.09222 -0.0370295 3.99192e-21)
(1.09134 -0.0327629 1.56768e-21)
(1.09052 -0.0285071 1.01401e-21)
(1.08977 -0.0242491 1.31289e-22)
(1.0891 -0.0199734 -2.04021e-21)
(1.08854 -0.0156654 -2.56713e-21)
(1.08811 -0.0112921 -2.86206e-21)
(1.0878 -0.00686756 3.70059e-21)
(1.08767 -0.00225384 3.34902e-22)
(1.10824 -0.200078 -6.02266e-21)
(1.10721 -0.193676 1.10053e-20)
(1.10683 -0.18723 -2.63553e-20)
(1.10671 -0.18088 2.90139e-21)
(1.10663 -0.174694 3.29268e-20)
(1.10655 -0.168615 -1.14761e-20)
(1.10644 -0.162627 -1.62626e-20)
(1.1063 -0.15673 -5.73782e-21)
(1.10613 -0.150919 2.09043e-20)
(1.10592 -0.145188 -2.0906e-20)
(1.10567 -0.139533 1.43877e-20)
(1.10538 -0.133955 -2.17022e-21)
(1.10503 -0.128455 -3.6362e-21)
(1.10463 -0.123034 1.44893e-21)
(1.10418 -0.117691 4.39156e-21)
(1.10368 -0.112424 -1.01177e-20)
(1.10314 -0.107233 8.94035e-21)
(1.10255 -0.102116 -2.16273e-21)
(1.10192 -0.0970704 6.18591e-22)
(1.10124 -0.0920942 -1.60334e-21)
(1.10052 -0.0871874 -1.37537e-21)
(1.09976 -0.0823504 2.75453e-21)
(1.09895 -0.0775816 -4.80759e-21)
(1.09812 -0.0728786 3.56754e-21)
(1.09726 -0.0682391 2.0402e-21)
(1.09637 -0.0636603 -2.37133e-21)
(1.09546 -0.0591389 3.59397e-22)
(1.09455 -0.0546711 4.64007e-22)
(1.09363 -0.0502524 -9.93323e-22)
(1.09272 -0.0458777 3.4982e-21)
(1.09183 -0.0415396 -2.42695e-21)
(1.09096 -0.0372304 -2.045e-21)
(1.09013 -0.0329418 6.164e-23)
(1.08935 -0.0286635 -8.7823e-22)
(1.08864 -0.0243827 2.56756e-21)
(1.08801 -0.0200839 -4.68916e-22)
(1.08748 -0.015752 7.83421e-22)
(1.08706 -0.011355 -1.0993e-21)
(1.08677 -0.00690445 -2.78298e-21)
(1.08666 -0.00226549 -1.14887e-21)
(1.102 -0.201051 -1.78445e-20)
(1.10128 -0.194613 1.76087e-20)
(1.10123 -0.188154 8.27565e-21)
(1.10141 -0.181788 -1.59683e-20)
(1.10161 -0.175574 -3.04341e-21)
(1.10179 -0.16946 7.14401e-21)
(1.10193 -0.163438 -4.70435e-21)
(1.10202 -0.157505 2.89784e-21)
(1.10207 -0.151659 1.69825e-20)
(1.10207 -0.145896 -2.0104e-20)
(1.10201 -0.140211 1.60727e-20)
(1.1019 -0.134605 -1.2509e-20)
(1.10173 -0.129079 6.34696e-21)
(1.10151 -0.123631 6.18791e-21)
(1.10122 -0.118262 -1.73163e-22)
(1.10088 -0.11297 -1.68016e-20)
(1.10048 -0.107754 9.48223e-21)
(1.10003 -0.102612 -1.18489e-20)
(1.09953 -0.0975435 1.42585e-20)
(1.09897 -0.0925454 -5.6489e-21)
(1.09837 -0.0876174 -2.95448e-22)