/*--------------------------------*- C++ -*----------------------------------*\
  =========                 |
  \\      /  F ield         | OpenFOAM: The Open Source CFD Toolbox
   \\    /   O peration     | Website:  https://openfoam.org
    \\  /    A nd           | Version:  7
     \\/     M anipulation  |
\*---------------------------------------------------------------------------*/
FoamFile
{
    version     2.0;
    format      ascii;
    class       volScalarField;
    location    "110";
    object      p;
}
// * * * * * * * * * * * * * * * * * * * * * * * * * * * * * * * * * * * * * //

dimensions      [0 2 -2 0 0 0 0];

internalField   nonuniform List<scalar> 
1987
(
0.626739
0.610998
0.602198
0.592663
0.580926
0.56701
0.626024
0.610283
0.601491
0.591968
0.58024
0.566334
0.550511
0.53323
0.514943
0.496033
0.476814
0.457537
0.438402
0.419564
0.401145
0.383237
0.365905
0.3492
0.333152
0.317782
0.3031
0.289104
0.275786
0.26313
0.251142
0.62318
0.607497
0.598803
0.589411
0.577825
0.564059
0.548368
0.53121
0.513037
0.494233
0.475113
0.455928
0.436878
0.418121
0.399777
0.381938
0.364673
0.34803
0.33204
0.316726
0.302096
0.28815
0.274875
0.26226
0.250334
0.618215
0.602647
0.594141
0.584998
0.573685
0.560189
0.544753
0.527834
0.509881
0.49128
0.472348
0.453337
0.434449
0.415841
0.397636
0.379927
0.362782
0.34625
0.330365
0.315148
0.30061
0.286749
0.273549
0.261002
0.249177
0.611143
0.595746
0.587516
0.57874
0.567831
0.554733
0.539676
0.523107
0.50548
0.48718
0.468525
0.44977
0.431119
0.41273
0.394728
0.377206
0.360235
0.343865
0.32813
0.313052
0.298644
0.284904
0.271809
0.259359
0.247676
0.601984
0.586814
0.578947
0.570656
0.560277
0.547706
0.533147
0.517044
0.499845
0.481941
0.463652
0.445235
0.426895
0.408794
0.391057
0.373781
0.357038
0.340878
0.325337
0.31044
0.296201
0.282617
0.269658
0.257333
0.24583
0.590768
0.575881
0.56846
0.560767
0.551045
0.539126
0.525186
0.509658
0.492991
0.475577
0.45774
0.439741
0.421786
0.404041
0.386633
0.36966
0.353196
0.337295
0.321993
0.307318
0.293286
0.279893
0.267099
0.254927
0.243643
0.57753
0.562979
0.556087
0.549103
0.540162
0.529018
0.515813
0.500969
0.484935
0.468105
0.450806
0.433303
0.415806
0.398483
0.381464
0.36485
0.348718
0.333123
0.318105
0.303692
0.289904
0.276736
0.264138
0.252145
0.241117
0.562315
0.548152
0.541868
0.5357
0.527659
0.51741
0.505055
0.491002
0.475699
0.459543
0.442866
0.425936
0.408968
0.392132
0.375563
0.359364
0.343614
0.328373
0.31368
0.299568
0.286061
0.273152
0.26078
0.248993
0.238256
0.545172
0.531448
0.525848
0.520598
0.513573
0.504336
0.492942
0.479784
0.465307
0.449915
0.433941
0.41766
0.401289
0.385004
0.368943
0.353213
0.337895
0.323053
0.308728
0.294957
0.281766
0.269149
0.257031
0.245475
0.235064
0.52616
0.512923
0.508077
0.503845
0.497946
0.489833
0.479509
0.467345
0.453789
0.439246
0.424055
0.408495
0.392789
0.377117
0.361621
0.346411
0.331575
0.317175
0.30326
0.289866
0.277028
0.264735
0.252899
0.241599
0.231545
0.505341
0.492637
0.488615
0.485493
0.480826
0.473945
0.464793
0.453722
0.441176
0.427564
0.413233
0.398465
0.383489
0.36849
0.353614
0.338976
0.324667
0.310754
0.297287
0.284308
0.271854
0.259917
0.248393
0.237373
0.227705
0.482788
0.470661
0.467523
0.465598
0.462265
0.456718
0.448837
0.438952
0.427503
0.414903
0.401504
0.387596
0.373413
0.359144
0.344941
0.330925
0.317188
0.303802
0.290822
0.278293
0.266258
0.254707
0.24352
0.232803
0.223549
0.458577
0.447068
0.444871
0.444224
0.442318
0.438204
0.431689
0.423078
0.412807
0.401295
0.3889
0.375916
0.362586
0.349103
0.335625
0.322276
0.309154
0.296337
0.283881
0.271835
0.260249
0.249113
0.238291
0.227899
0.219084
0.432792
0.421938
0.420734
0.421439
0.421048
0.418457
0.413397
0.406144
0.397131
0.386779
0.375454
0.363457
0.351036
0.338392
0.325686
0.31305
0.300586
0.288375
0.276477
0.264947
0.253841
0.243149
0.232716
0.22267
0.214318
0.40552
0.395357
0.395192
0.397315
0.398519
0.397536
0.394015
0.3882
0.380517
0.371394
0.361202
0.350251
0.338793
0.327038
0.315151
0.30327
0.291502
0.279933
0.268628
0.257645
0.247046
0.236824
0.226806
0.217126
0.209256
0.376856
0.367416
0.368329
0.37193
0.374801
0.375505
0.3736
0.369296
0.363013
0.355183
0.346184
0.336332
0.325889
0.315068
0.304045
0.292959
0.281924
0.271032
0.260351
0.249944
0.23988
0.230154
0.220573
0.211277
0.203907
0.3469
0.338212
0.340236
0.345364
0.349968
0.352429
0.352211
0.349486
0.344668
0.338189
0.330438
0.321737
0.312356
0.302515
0.292394
0.282141
0.271875
0.261692
0.251664
0.24186
0.232356
0.223149
0.214029
0.205134
0.198279
0.315756
0.307846
0.311006
0.317704
0.324097
0.328378
0.329911
0.328829
0.325532
0.320461
0.314008
0.306505
0.29823
0.289408
0.280228
0.270843
0.261378
0.251933
0.242587
0.233412
0.224491
0.215826
0.207186
0.198708
0.192381
0.283532
0.276422
0.280737
0.289038
0.297267
0.303424
0.306767
0.307381
0.30566
0.302045
0.296937
0.290676
0.283546
0.275781
0.267577
0.259092
0.250457
0.241779
0.23314
0.224617
0.216301
0.208198
0.200058
0.192011
0.18622
0.250341
0.24405
0.249532
0.25946
0.269563
0.277643
0.282845
0.285207
0.285108
0.282994
0.279272
0.274291
0.268342
0.261669
0.254471
0.246915
0.239138
0.231252
0.223343
0.215495
0.207804
0.200281
0.192659
0.185053
0.179805
0.216298
0.210842
0.217496
0.229065
0.241071
0.251112
0.258216
0.262368
0.263933
0.263358
0.261059
0.257393
0.252658
0.247105
0.240942
0.234342
0.227448
0.220376
0.213219
0.206064
0.199016
0.192091
0.185001
0.177847
0.173144
0.181525
0.176914
0.184738
0.197953
0.211881
0.223912
0.232952
0.23893
0.242194
0.243193
0.242348
0.240025
0.236532
0.232127
0.227024
0.221402
0.215412
0.209176
0.20279
0.196346
0.189957
0.183645
0.177101
0.170404
0.166244
0.146142
0.142386
0.151368
0.166225
0.182083
0.196124
0.207127
0.21496
0.219952
0.222551
0.223187
0.222234
0.220007
0.216771
0.212749
0.208127
0.20306
0.197677
0.192079
0.186362
0.180646
0.17496
0.168974
0.162736
0.159111
0.110273
0.107377
0.117501
0.133984
0.151771
0.167833
0.180817
0.190526
0.197268
0.20149
0.203628
0.204064
0.203122
0.201075
0.198153
0.194547
0.190419
0.185905
0.181109
0.176132
0.171102
0.166055
0.160637
0.154854
0.15175
0.0740463
0.0720098
0.0832518
0.101337
0.121039
0.139123
0.154098
0.165697
0.174205
0.180066
0.183722
0.185563
0.185922
0.185078
0.183269
0.180693
0.177519
0.173886
0.169905
0.165679
0.161345
0.156951
0.15211
0.146771
0.144163
0.0375876
0.0364088
0.0487375
0.0683889
0.0899852
0.110082
0.127048
0.140544
0.150826
0.158336
0.163521
0.166778
0.168448
0.168818
0.168133
0.166598
0.164388
0.161647
0.158492
0.155026
0.151397
0.147668
0.143417
0.138503
0.136344
0.00102561
0.000698383
0.0140759
0.0352495
0.0587057
0.0807963
0.0997463
0.115137
0.127196
0.136358
0.143077
0.147756
0.150743
0.152335
0.152781
0.152295
0.151055
0.149215
0.146893
0.144195
0.141276
0.138226
0.13459
0.130075
0.128283
-0.0355112
-0.034997
-0.0206144
0.00202682
0.0272985
0.0513537
0.0722704
0.0895472
0.103378
0.114191
0.122442
0.128544
0.132851
0.135667
0.137248
0.137814
0.137551
0.136617
0.135135
0.133211
0.131003
0.128644
0.125666
0.121533
0.119947
-0.0718944
-0.0705532
-0.0552149
-0.03117
-0.00413804
0.0218422
0.0446996
0.0638454
0.0794362
0.0918916
0.10167
0.10919
0.114815
0.118853
0.12157
0.12319
0.123905
0.123879
0.123242
0.122097
0.120599
0.11893
0.116684
0.113001
0.111306
-0.107997
-0.105847
-0.0896073
-0.0642322
-0.0355059
-0.00765047
0.0171125
0.0381025
0.055435
0.0695183
0.0808126
0.0897423
0.0966768
0.101933
0.105782
0.108453
0.110146
0.111029
0.111239
0.110879
0.11009
0.109092
0.107652
0.10466
0.102154
-0.143691
-0.140759
-0.123674
-0.0970515
-0.0667076
-0.0370369
-0.0104127
0.0123887
0.0314374
0.0471283
0.0599216
0.0702469
0.0784804
0.0849454
0.0899186
0.0936369
0.0963031
0.0980924
0.0991495
0.0995803
0.0995023
0.0991338
0.0984929
0.0967391
0.0929489
-0.178851
-0.17517
-0.157299
-0.129521
-0.0976463
-0.0662308
-0.0377987
-0.0132267
0.00750616
0.024778
0.0390481
0.0507505
0.0602674
0.0679281
0.0740154
0.0787718
0.0824051
0.0850956
0.0869958
0.0882197
0.0888664
0.0891195
0.0891866
0.0887463
0.0861633
-0.213347
-0.208964
-0.190368
-0.161535
-0.128227
-0.0951467
-0.0649692
-0.0386752
-0.0162973
0.00252321
0.0182426
0.0312988
0.0420792
0.0509188
0.0581061
0.0638889
0.0684802
0.0720644
0.0748013
0.0768158
0.0782009
0.0790983
0.0798076
0.0804662
0.0793709
-0.247075
-0.242009
-0.22277
-0.192991
-0.158356
-0.123701
-0.0918497
-0.06389
-0.0399126
-0.0195817
-0.0024455
0.0119364
0.0239562
0.0339543
0.0422241
0.0490186
0.0545556
0.0590238
0.0625885
0.065386
0.0675118
0.0690747
0.0703928
0.0718534
0.0717942
-0.280063
-0.274114
-0.254398
-0.223791
-0.187941
-0.151812
-0.118367
-0.0888055
-0.0632809
-0.0414835
-0.0229682
-0.00729308
0.00593808
0.0170703
0.0264019
0.0341904
0.040658
0.0459977
0.0503791
0.0539475
0.0568052
0.0590394
0.060958
0.0630644
-0.312067
-0.305296
-0.285169
-0.253836
-0.216894
-0.1794
-0.144451
-0.113358
-0.0863451
-0.0631306
-0.0432787
-0.0263473
-0.0119368
0.00030182
0.0106711
0.0194328
0.0268133
0.0330092
0.0381939
0.0425192
0.0460944
0.0489947
0.0515141
0.0542179
-0.342937
-0.335385
-0.31505
-0.283035
-0.245128
-0.206389
-0.170032
-0.137487
-0.10905
-0.0844734
-0.0633321
-0.0451854
-0.0296314
-0.0163175
-0.0049377
0.00477361
0.0130466
0.020081
0.0260533
0.0311204
0.0353976
0.0389539
0.0420697
0.045346
-0.372602
-0.36436
-0.3438
-0.311323
-0.272558
-0.232705
-0.195044
-0.161133
-0.131343
-0.105464
-0.083085
-0.0637681
-0.04711
-0.0327553
-0.020395
-0.0097603
-0.000617889
0.00723502
0.0139774
0.0197699
0.0247333
0.0289334
0.032635
-0.400984
-0.392109
-0.371329
-0.338629
-0.299103
-0.258276
-0.219424
-0.184239
-0.153173
-0.126056
-0.102496
-0.082058
-0.0643385
-0.0489806
-0.0356726
-0.0241433
-0.0141566
-0.00550735
0.00198555
0.00848568
0.0141187
0.0189489
0.0232235
-0.428004
-0.418545
-0.39763
-0.364726
-0.324758
-0.283036
-0.243111
-0.206752
-0.174492
-0.146208
-0.121526
-0.100019
-0.0812846
-0.0649638
-0.0507435
-0.0383507
-0.0275472
-0.0181256
-0.00990329
-0.00271469
0.00357034
0.00901619
-0.453592
-0.443588
-0.422636
-0.389646
-0.349363
-0.306914
-0.266048
-0.228622
-0.195255
-0.165878
-0.140138
-0.117619
-0.0979177
-0.080677
-0.0655824
-0.0523593
-0.0407681
-0.0306
-0.021671
-0.0138143
-0.00689564
-0.000849277
-0.477685
-0.46717
-0.446267
-0.413334
-0.37283
-0.329872
-0.288181
-0.2498
-0.215419
-0.185027
-0.158298
-0.134825
-0.114209
-0.0960941
-0.0801651
-0.066147
-0.0537993
-0.0429119
-0.0333003
-0.0247968
-0.0172636
-0.0106325
-0.500229
-0.489232
-0.468456
-0.43572
-0.395154
-0.351817
-0.309467
-0.270244
-0.234946
-0.203622
-0.175974
-0.151608
-0.130132
-0.111191
-0.0944694
-0.0796933
-0.0666216
-0.0550436
-0.0447746
-0.0356466
-0.0275187
-0.521177
-0.509727
-0.489152
-0.456743
-0.416282
-0.372717
-0.329852
-0.289911
-0.2538
-0.221629
-0.193136
-0.167943
-0.145663
-0.125944
-0.108474
-0.092979
-0.0792173
-0.0669787
-0.0560786
-0.0463491
-0.037647
-0.508313
-0.476355
-0.436161
-0.392533
-0.349296
-0.308766
-0.271948
-0.239021
-0.209759
-0.183804
-0.160778
-0.140334
-0.122161
-0.105987
-0.0915701
-0.0787019
-0.0671977
-0.0568906
-0.0476353
-0.494516
-0.454746
-0.411223
-0.367766
-0.326779
-0.289362
-0.25577
-0.225819
-0.19917
-0.175459
-0.154343
-0.135513
-0.1187
-0.103665
-0.090199
-0.0781189
-0.0672586
-0.0574717
-0.428753
-0.385231
-0.343921
-0.30602
-0.271852
-0.241295
-0.214023
-0.189688
-0.167953
-0.148515
-0.131105
-0.115489
-0.101458
-0.0888299
-0.0774414
-0.401664
-0.360167
-0.321898
-0.287257
-0.256168
-0.228346
-0.203449
-0.18115
-0.161152
-0.143189
-0.127029
-0.112466
-0.0993201
-0.0874288
-0.336977
-0.301962
-0.270429
-0.242125
-0.216731
-0.193924
-0.173415
-0.154942
-0.138276
-0.123215
-0.10958
-0.0972114
-0.284064
-0.255354
-0.229523
-0.206263
-0.185294
-0.166353
-0.14922
-0.133695
-0.119601
-0.106781
-0.241819
-0.218164
-0.196779
-0.177417
-0.159855
-0.1439
-0.129376
-0.116131
-0.188128
-0.170175
-0.153824
-0.138899
-0.125256
-0.148167
0.238774
0.226452
0.214639
0.203724
0.193381
0.183814
0.174911
0.166717
0.159065
0.152103
0.145639
0.139774
0.134382
0.129543
0.125126
0.121212
0.117672
0.114592
0.111853
0.109537
0.107539
0.105954
0.104684
0.103841
0.103377
0.238065
0.225834
0.214093
0.203247
0.19297
0.183537
0.174596
0.166413
0.158786
0.151871
0.145432
0.139589
0.134217
0.129395
0.124994
0.121093
0.117565
0.114495
0.111764
0.109456
0.107464
0.105883
0.104617
0.103777
0.103314
0.237067
0.224977
0.213347
0.202602
0.192406
0.183029
0.174184
0.166077
0.158534
0.151592
0.145195
0.139377
0.134029
0.129228
0.124845
0.12096
0.117445
0.114387
0.111666
0.109367
0.107381
0.105807
0.104545
0.103707
0.103246
0.235785
0.22389
0.212411
0.201804
0.19172
0.182431
0.173671
0.165632
0.158145
0.151301
0.144927
0.139138
0.133818
0.129043
0.12468
0.120813
0.117314
0.114269
0.111559
0.10927
0.107292
0.105723
0.104466
0.103632
0.103173
0.234219
0.222571
0.211284
0.200851
0.190907
0.181738
0.173081
0.165129
0.157701
0.15091
0.144637
0.138869
0.133589
0.128839
0.1245
0.120653
0.117171
0.114141
0.111444
0.109165
0.107195
0.105633
0.104382
0.103551
0.103093
0.232371
0.221022
0.209966
0.199742
0.189966
0.180943
0.172408
0.164561
0.157215
0.150494
0.144265
0.138644
0.13334
0.128617
0.124304
0.12048
0.117017
0.114003
0.111319
0.109052
0.107091
0.105537
0.104291
0.103464
0.103009
0.230241
0.219242
0.208458
0.198477
0.188897
0.180045
0.17165
0.163925
0.156675
0.150039
0.143873
0.138298
0.133056
0.12838
0.124093
0.120293
0.116851
0.113855
0.111186
0.108931
0.106981
0.105434
0.104194
0.103372
0.102919
0.227831
0.217234
0.206761
0.197059
0.187703
0.179045
0.17081
0.163221
0.156081
0.14954
0.143445
0.137926
0.132837
0.12813
0.123867
0.120093
0.116673
0.113697
0.111044
0.108802
0.106863
0.105325
0.104092
0.103274
0.102823
0.225143
0.215
0.204876
0.195487
0.186382
0.177945
0.169887
0.162451
0.155432
0.148996
0.142983
0.137527
0.132485
0.127859
0.123626
0.119881
0.116484
0.113529
0.110894
0.108666
0.106739
0.105209
0.103984
0.10317
0.102722
0.222179
0.21254
0.202805
0.193764
0.184938
0.176744
0.168882
0.161615
0.15473
0.148409
0.142485
0.137103
0.132119
0.127557
0.123372
0.119656
0.116284
0.113352
0.110735
0.108522
0.106607
0.105088
0.10387
0.103062
0.102616
0.218944
0.209857
0.200549
0.19189
0.183369
0.175443
0.167796
0.160713
0.153975
0.147779
0.141954
0.136651
0.131733
0.127305
0.123108
0.119419
0.116073
0.113165
0.110568
0.10837
0.106469
0.10496
0.103751
0.102947
0.102505
0.215438
0.206954
0.198109
0.189867
0.181679
0.174043
0.166629
0.159746
0.153168
0.147107
0.141388
0.136172
0.131318
0.126948
0.122829
0.11917
0.115852
0.112968
0.110393
0.108212
0.106325
0.104826
0.103625
0.102828
0.102389
0.211667
0.203832
0.195488
0.187696
0.179867
0.172546
0.165382
0.158715
0.152308
0.146393
0.140788
0.135667
0.130883
0.126573
0.122528
0.11891
0.115619
0.112763
0.11021
0.108046
0.106174
0.104686
0.103495
0.102703
0.102267
0.207634
0.200495
0.192688
0.18538
0.177935
0.170951
0.164056
0.157621
0.151397
0.145637
0.140155
0.135135
0.13043
0.126186
0.122246
0.118641
0.115377
0.112548
0.110019
0.107873
0.106017
0.104541
0.103359
0.102573
0.102141
0.203344
0.196946
0.189711
0.18292
0.175885
0.169261
0.162652
0.156463
0.150434
0.14484
0.139488
0.134576
0.129954
0.125774
0.121906
0.118364
0.115124
0.112325
0.10982
0.107693
0.105853
0.104389
0.103218
0.102438
0.102009
0.1988
0.193188
0.186559
0.180317
0.173718
0.167477
0.161171
0.155244
0.149422
0.144002
0.138789
0.133991
0.129458
0.125348
0.121534
0.118073
0.114861
0.112093
0.109614
0.107507
0.105683
0.104232
0.103071
0.102298
0.101873
0.194008
0.189224
0.183234
0.177574
0.171434
0.165599
0.159614
0.153964
0.14836
0.143125
0.138057
0.13338
0.128943
0.124908
0.121157
0.117765
0.114592
0.111853
0.109401
0.107313
0.105508
0.10407
0.10292
0.102154
0.101732
0.188973
0.185059
0.17974
0.174694
0.169037
0.16363
0.157982
0.152623
0.147249
0.142208
0.137294
0.132744
0.128407
0.124451
0.12076
0.117457
0.114313
0.111605
0.109181
0.107114
0.105327
0.103903
0.102763
0.102004
0.101586
0.183701
0.180696
0.176078
0.171677
0.166527
0.16157
0.156276
0.151222
0.14609
0.141252
0.1365
0.132083
0.12785
0.123979
0.120351
0.117089
0.11399
0.111353
0.108954
0.106908
0.105139
0.10373
0.102602
0.10185
0.101436
0.178197
0.17614
0.172252
0.168528
0.163907
0.15942
0.154497
0.149763
0.144884
0.140259
0.135675
0.131397
0.127275
0.123492
0.119934
0.116728
0.113832
0.111096
0.108721
0.106696
0.104947
0.103552
0.102436
0.101692
0.101281
0.172465
0.171394
0.168264
0.165247
0.161177
0.157182
0.152647
0.148246
0.143631
0.139227
0.13482
0.130686
0.12668
0.12299
0.119504
0.116355
0.113474
0.110815
0.108484
0.106478
0.104749
0.103369
0.102265
0.101529
0.101122
0.166511
0.166463
0.164116
0.161837
0.15834
0.154858
0.150726
0.146672
0.142333
0.138159
0.133936
0.129952
0.126065
0.122472
0.119063
0.115974
0.113132
0.110598
0.108243
0.106255
0.104546
0.103181
0.10209
0.101361
0.100959
0.160337
0.161352
0.159811
0.158301
0.155398
0.152448
0.148737
0.145042
0.140991
0.137055
0.133023
0.129195
0.125433
0.121939
0.118609
0.115585
0.112788
0.110289
0.107989
0.106025
0.104338
0.102989
0.101911
0.10119
0.100791
0.153945
0.156064
0.155351
0.15464
0.152354
0.149954
0.14668
0.143357
0.139604
0.135915
0.132081
0.128414
0.124781
0.121391
0.118144
0.115186
0.112437
0.109976
0.107744
0.105784
0.104125
0.102793
0.101727
0.101014
0.10062
0.147332
0.150602
0.15074
0.150857
0.149209
0.147378
0.144557
0.141617
0.138174
0.134741
0.131112
0.127612
0.124112
0.120829
0.117668
0.114777
0.112081
0.109663
0.107458
0.105592
0.103905
0.102592
0.101539
0.100835
0.100444
0.14049
0.144966
0.14598
0.146951
0.145965
0.144718
0.142368
0.139824
0.136701
0.133531
0.130115
0.126786
0.123425
0.120252
0.11718
0.114359
0.111718
0.109346
0.107177
0.105333
0.10371
0.102386
0.101347
0.100651
0.100265
0.133413
0.139163
0.14108
0.142927
0.142627
0.141978
0.140114
0.137976
0.135185
0.132286
0.129089
0.125938
0.122719
0.119661
0.116679
0.113931
0.111347
0.109023
0.106894
0.105073
0.103477
0.10219
0.101151
0.100464
0.100082
0.126095
0.133189
0.136048
0.138796
0.139213
0.139176
0.137814
0.136093
0.133642
0.131021
0.128049
0.125079
0.122006
0.119063
0.116174
0.1135
0.110973
0.108696
0.106607
0.104815
0.103242
0.101975
0.100961
0.100274
0.0998951
0.118376
0.126937
0.130823
0.134524
0.135695
0.136299
0.135461
0.134176
0.132077
0.129744
0.127003
0.124218
0.121292
0.118466
0.115669
0.113068
0.110599
0.108369
0.106319
0.104556
0.103006
0.101756
0.100757
0.100082
0.099705
0.109956
0.120269
0.125331
0.129947
0.131886
0.133138
0.13285
0.132024
0.130306
0.128286
0.1258
0.123224
0.120466
0.117776
0.115089
0.112576
0.110177
0.108004
0.106002
0.104275
0.102756
0.101528
0.100545
0.0998822
0.0995111
0.100185
0.112054
0.118805
0.124149
0.127005
0.128896
0.129253
0.128945
0.127712
0.126092
0.123964
0.121682
0.119181
0.116701
0.114194
0.111826
0.10955
0.107476
0.105558
0.103894
0.102428
0.10124
0.100287
0.0996438
0.0992846
0.093515
0.104309
0.112153
0.118078
0.121745
0.124247
0.125244
0.125469
0.12474
0.12355
0.121809
0.119857
0.117644
0.115407
0.113109
0.110915
0.108785
0.106832
0.105016
0.103433
0.102034
0.100897
0.0999828
0.0993647
0.0990197
0.0816261
0.088907
0.0850338
)
;

boundaryField
{
    inlet
    {
        type            zeroGradient;
    }
    outlet
    {
        type            fixedValue;
        value           nonuniform 0();
    }
    cylinder
    {
        type            zeroGradient;
    }
    top
    {
        type            symmetryPlane;
    }
    bottom
    {
        type            symmetryPlane;
    }
    defaultFaces
    {
        type            empty;
    }
    procBoundary4to0
    {
        type            processor;
        value           nonuniform List<scalar> 
56
(
0.0744853
0.0637309
0.0672925
0.0637309
0.055526
0.0472737
0.0364567
0.0364567
0.0275658
0.013851
0.013851
0.00453354
-0.00471401
-0.0203195
-0.0203195
-0.0298969
-0.0393523
-0.0486744
-0.067145
-0.067145
-0.0766453
-0.0859634
-0.0950916
-0.104023
-0.112752
-0.134152
-0.134152
0.0880656
0.0979659
0.106114
0.112365
0.116633
0.119635
0.121192
0.121906
0.121655
0.120884
0.119529
0.117912
0.115997
0.114014
0.111936
0.109927
0.107955
0.106134
0.10443
0.102936
0.101611
0.10053
0.0996586
0.0990687
0.0987392
0.0744853
0.0774492
0.0774492
0.0803803
)
;
    }
    procBoundary4to5
    {
        type            processor;
        value           nonuniform List<scalar> 
28
(
-0.540491
-0.52862
-0.52862
-0.525906
-0.525906
-0.511196
-0.472004
-0.472004
-0.445092
-0.445092
-0.417042
-0.375499
-0.375499
-0.351245
-0.315956
-0.315956
-0.297065
-0.268021
-0.268021
-0.253614
-0.229619
-0.20787
-0.20787
-0.198483
-0.180179
-0.163462
-0.163462
-0.157178
)
;
    }
    procBoundary4to8
    {
        type            processor;
        value           nonuniform List<scalar> 
51
(
0.625328
0.609644
0.600925
0.591499
0.579883
0.566089
0.551179
0.551179
0.53389
0.515594
0.496676
0.477448
0.458162
0.439017
0.42017
0.40174
0.38382
0.366477
0.34976
0.3337
0.318317
0.30362
0.289611
0.27628
0.26361
0.251602
0.239203
0.226847
0.215005
0.204061
0.193689
0.184111
0.175161
0.166942
0.159274
0.152284
0.145804
0.139926
0.134521
0.129669
0.12524
0.121315
0.117766
0.114678
0.111932
0.10961
0.107606
0.106017
0.104744
0.103899
0.103434
)
;
    }
}


// ************************************************************************* //
