/*--------------------------------*- C++ -*----------------------------------*\
  =========                 |
  \\      /  F ield         | OpenFOAM: The Open Source CFD Toolbox
   \\    /   O peration     | Website:  https://openfoam.org
    \\  /    A nd           | Version:  7
     \\/     M anipulation  |
\*---------------------------------------------------------------------------*/
FoamFile
{
    version     2.0;
    format      ascii;
    class       volVectorField;
    location    "50";
    object      U;
}
// * * * * * * * * * * * * * * * * * * * * * * * * * * * * * * * * * * * * * //

dimensions      [0 1 -1 0 0 0 0];

internalField   nonuniform List<vector> 
1989
(
(1.0517 -0.0222193 0)
(1.0506 -0.0215283 0)
(1.04949 -0.0208277 0)
(1.04842 -0.0201696 0)
(1.04732 -0.0194946 0)
(1.04628 -0.0188849 0)
(1.04522 -0.0182503 0)
(1.04423 -0.017714 0)
(1.0432 -0.0171395 0)
(1.04227 -0.0167061 0)
(1.04127 -0.0162103 0)
(1.04041 -0.015907 0)
(1.03943 -0.0155009 0)
(1.03862 -0.0153464 0)
(1.03764 -0.015028 0)
(1.03688 -0.0150276 0)
(1.03589 -0.0147799 0)
(1.03517 -0.014923 0)
(1.03414 -0.0147171 0)
(1.03347 -0.0149773 0)
(1.03237 -0.0147801 0)
(1.03176 -0.0151173 0)
(1.03057 -0.0149057 0)
(1.03006 -0.0152666 0)
(1.02875 -0.0150453 0)
(1.02837 -0.0153617 0)
(1.02693 -0.0151817 0)
(1.02673 -0.0153707 0)
(1.02515 -0.0153334 0)
(1.09929 -0.0558728 0)
(1.09687 -0.0543075 0)
(1.09455 -0.0526847 0)
(1.09233 -0.0510191 0)
(1.09022 -0.0493256 0)
(1.08822 -0.047619 0)
(1.08633 -0.0459139 0)
(1.08454 -0.044224 0)
(1.08285 -0.0425623 0)
(1.08124 -0.0409404 0)
(1.07973 -0.0393686 0)
(1.07829 -0.0378552 0)
(1.07691 -0.0364074 0)
(1.0756 -0.0350291 0)
(1.07434 -0.0337241 0)
(1.07311 -0.032492 0)
(1.07192 -0.0313333 0)
(1.07075 -0.0302432 0)
(1.0696 -0.02922 0)
(1.06845 -0.028255 0)
(1.06731 -0.0273462 0)
(1.06617 -0.026481 0)
(1.06503 -0.02566 0)
(1.06388 -0.0248667 0)
(1.06273 -0.0241073 0)
(1.06157 -0.0233606 0)
(1.06043 -0.0226427 0)
(1.05927 -0.0219254 0)
(1.05814 -0.0212392 0)
(1.057 -0.0205445 0)
(1.0559 -0.0198928 0)
(1.05478 -0.0192256 0)
(1.05372 -0.0186232 0)
(1.05263 -0.0179976 0)
(1.05163 -0.0174686 0)
(1.05058 -0.016904 0)
(1.04964 -0.0164765 0)
(1.04862 -0.0159909 0)
(1.04774 -0.0156909 0)
(1.04673 -0.0152952 0)
(1.0459 -0.0151403 0)
(1.0449 -0.014833 0)
(1.04411 -0.0148271 0)
(1.04307 -0.0145926 0)
(1.04232 -0.0147243 0)
(1.04122 -0.0145352 0)
(1.04052 -0.0147774 0)
(1.03933 -0.014603 0)
(1.03869 -0.014915 0)
(1.03739 -0.014734 0)
(1.03684 -0.0150633 0)
(1.03541 -0.0148801 0)
(1.035 -0.015162 0)
(1.03341 -0.0150223 0)
(1.03319 -0.0151842 0)
(1.03143 -0.0151744 0)
(1.10778 -0.054942 0)
(1.10523 -0.0534248 0)
(1.10278 -0.0518504 0)
(1.10045 -0.0502328 0)
(1.09822 -0.0485866 0)
(1.09611 -0.0469259 0)
(1.09411 -0.0452649 0)
(1.09222 -0.0436169 0)
(1.09043 -0.0419944 0)
(1.08873 -0.0404087 0)
(1.08712 -0.03887 0)
(1.08559 -0.0373862 0)
(1.08414 -0.0359644 0)
(1.08275 -0.0346088 0)
(1.08141 -0.0333232 0)
(1.08011 -0.0321071 0)
(1.07885 -0.0309616 0)
(1.07762 -0.029882 0)
(1.0764 -0.0288672 0)
(1.0752 -0.0279086 0)
(1.07401 -0.027005 0)
(1.07282 -0.0261439 0)
(1.07163 -0.0253264 0)
(1.07044 -0.0245364 0)
(1.06926 -0.0237805 0)
(1.06806 -0.0230378 0)
(1.06689 -0.0223245 0)
(1.06571 -0.0216126 0)
(1.06455 -0.0209324 0)
(1.06339 -0.020245 0)
(1.06227 -0.0196007 0)
(1.06113 -0.0189424 0)
(1.06007 -0.0183481 0)
(1.05897 -0.0177327 0)
(1.05796 -0.0172114 0)
(1.0569 -0.0166573 0)
(1.05596 -0.0162358 0)
(1.05493 -0.0157608 0)
(1.05404 -0.0154637 0)
(1.05302 -0.0150785 0)
(1.05218 -0.014922 0)
(1.05115 -0.0146258 0)
(1.05035 -0.0146129 0)
(1.04928 -0.0143913 0)
(1.04852 -0.0145097 0)
(1.04737 -0.0143373 0)
(1.04664 -0.0145595 0)
(1.04539 -0.0144077 0)
(1.04473 -0.014693 0)
(1.04334 -0.014542 0)
(1.04277 -0.0148391 0)
(1.04123 -0.0146929 0)
(1.04081 -0.014941 0)
(1.03909 -0.0148396 0)
(1.03887 -0.0149761 0)
(1.03695 -0.0149916 0)
(1.11456 -0.0539375 0)
(1.11192 -0.0524717 0)
(1.1094 -0.050949 0)
(1.10698 -0.0493827 0)
(1.10468 -0.0477869 0)
(1.10249 -0.0461752 0)
(1.10042 -0.0445614 0)
(1.09845 -0.0429581 0)
(1.09659 -0.0413776 0)
(1.09482 -0.0398308 0)
(1.09315 -0.0383276 0)
(1.09156 -0.0368758 0)
(1.09004 -0.0354825 0)
(1.08859 -0.0341517 0)
(1.0872 -0.0328874 0)
(1.08585 -0.0316893 0)
(1.08454 -0.0305587 0)
(1.08326 -0.0294913 0)
(1.082 -0.0284864 0)
(1.08076 -0.0275358 0)
(1.07953 -0.0266386 0)
(1.0783 -0.0257829 0)
(1.07709 -0.0249703 0)
(1.07587 -0.0241849 0)
(1.07466 -0.0234337 0)
(1.07345 -0.0226962 0)
(1.07226 -0.0219885 0)
(1.07106 -0.0212832 0)
(1.06989 -0.0206102 0)
(1.06872 -0.0199312 0)
(1.0676 -0.0192953 0)
(1.06645 -0.018647 0)
(1.06538 -0.0180616 0)
(1.06429 -0.0174571 0)
(1.06328 -0.016944 0)
(1.06222 -0.0164012 0)
(1.06127 -0.0159856 0)
(1.06024 -0.0155217 0)
(1.05936 -0.0152269 0)
(1.05833 -0.0148524 0)
(1.0575 -0.0146934 0)
(1.05645 -0.0144082 0)
(1.05565 -0.014387 0)
(1.05455 -0.0141779 0)
(1.05379 -0.0142816 0)
(1.0526 -0.0141254 0)
(1.05187 -0.0143262 0)
(1.05056 -0.0141963 0)
(1.04989 -0.014454 0)
(1.04844 -0.014332 0)
(1.04786 -0.0145968 0)
(1.04624 -0.0144857 0)
(1.0458 -0.0147014 0)
(1.04399 -0.0146354 0)
(1.04376 -0.0147489 0)
(1.04173 -0.014787 0)
(1.11981 -0.0528717 0)
(1.11713 -0.0514597 0)
(1.11455 -0.049991 0)
(1.11209 -0.0484784 0)
(1.10974 -0.0469354 0)
(1.10751 -0.0453752 0)
(1.10539 -0.0438108 0)
(1.10337 -0.0422545 0)
(1.10146 -0.0407183 0)
(1.09965 -0.0392126 0)
(1.09794 -0.037747 0)
(1.0963 -0.0363292 0)
(1.09474 -0.0349663 0)
(1.09325 -0.0336621 0)
(1.09182 -0.0324207 0)
(1.09043 -0.0312423 0)
(1.08909 -0.0301283 0)
(1.08778 -0.0290745 0)
(1.08649 -0.0280809 0)
(1.08522 -0.0271395 0)
(1.08397 -0.0262502 0)
(1.08272 -0.0254011 0)
(1.08149 -0.0245946 0)
(1.08026 -0.0238149 0)
(1.07904 -0.0230696 0)
(1.07782 -0.0223383 0)
(1.07662 -0.0216373 0)
(1.07541 -0.0209398 0)
(1.07425 -0.0202747 0)
(1.07307 -0.0196052 0)
(1.07195 -0.0189784 0)
(1.07081 -0.0183411 0)
(1.06975 -0.0177651 0)
(1.06865 -0.0171725 0)
(1.06765 -0.0166678 0)
(1.0666 -0.0161369 0)
(1.06566 -0.0157273 0)
(1.06463 -0.0152747 0)
(1.06376 -0.0149819 0)
(1.06273 -0.0146183 0)
(1.0619 -0.014456 0)
(1.06085 -0.0141816 0)
(1.06006 -0.014151 0)
(1.05895 -0.0139542 0)
(1.05818 -0.014042 0)
(1.05697 -0.0139013 0)
(1.05624 -0.0140798 0)
(1.0549 -0.0139707 0)
(1.05422 -0.0142005 0)
(1.05272 -0.0141059 0)
(1.05214 -0.014339 0)
(1.05046 -0.0142606 0)
(1.05002 -0.0144457 0)
(1.04813 -0.0144117 0)
(1.0479 -0.0145048 0)
(1.04578 -0.0145626 0)
(1.12375 -0.0517555 0)
(1.12105 -0.0503989 0)
(1.11845 -0.0489858 0)
(1.11597 -0.0475286 0)
(1.1136 -0.0460402 0)
(1.11134 -0.044533 0)
(1.10919 -0.0430198 0)
(1.10715 -0.0415123 0)
(1.10522 -0.040022 0)
(1.10338 -0.038559 0)
(1.10163 -0.0371328 0)
(1.09997 -0.0357506 0)
(1.09838 -0.0344196 0)
(1.09687 -0.0331436 0)
(1.09541 -0.0319268 0)
(1.094 -0.0307695 0)
(1.09263 -0.0296734 0)
(1.0913 -0.0286347 0)
(1.09 -0.0276537 0)
(1.08871 -0.0267228 0)
(1.08745 -0.0258424 0)
(1.08619 -0.0250012 0)
(1.08495 -0.0242017 0)
(1.08371 -0.023429 0)
(1.08249 -0.0226903 0)
(1.08126 -0.0219664 0)
(1.08007 -0.0212729 0)
(1.07887 -0.0205841 0)
(1.0777 -0.0199278 0)
(1.07653 -0.0192687 0)
(1.07542 -0.0186517 0)
(1.07429 -0.0180262 0)
(1.07323 -0.0174601 0)
(1.07215 -0.01688 0)
(1.07116 -0.0163839 0)
(1.07012 -0.0158655 0)
(1.06919 -0.0154619 0)
(1.06817 -0.0150211 0)
(1.06731 -0.0147299 0)
(1.06629 -0.0143772 0)
(1.06547 -0.0142111 0)
(1.06442 -0.0139473 0)
(1.06363 -0.0139066 0)
(1.06252 -0.0137215 0)
(1.06176 -0.0137927 0)
(1.06054 -0.0136667 0)
(1.05981 -0.0138223 0)
(1.05845 -0.0137328 0)
(1.05777 -0.0139347 0)
(1.05625 -0.0138654 0)
(1.05566 -0.0140681 0)
(1.05394 -0.0140193 0)
(1.0535 -0.0141762 0)
(1.05157 -0.0141704 0)
(1.05134 -0.0142459 0)
(1.04915 -0.0143204 0)
(1.12659 -0.0505975 0)
(1.12389 -0.0492972 0)
(1.1213 -0.0479408 0)
(1.11881 -0.04654 0)
(1.11644 -0.0451071 0)
(1.11417 -0.0436543 0)
(1.11201 -0.0421934 0)
(1.10996 -0.040736 0)
(1.10801 -0.0392929 0)
(1.10616 -0.037874 0)
(1.1044 -0.0364884 0)
(1.10272 -0.0351433 0)
(1.10112 -0.0338455 0)
(1.09958 -0.0325991 0)
(1.09811 -0.0314082 0)
(1.09668 -0.0302733 0)
(1.0953 -0.0291964 0)
(1.09396 -0.028174 0)
(1.09265 -0.0272068 0)
(1.09135 -0.0262877 0)
(1.09008 -0.0254174 0)
(1.08882 -0.0245851 0)
(1.08758 -0.0237937 0)
(1.08634 -0.0230288 0)
(1.08512 -0.0222979 0)
(1.0839 -0.0215822 0)
(1.08271 -0.0208971 0)
(1.08152 -0.0202178 0)
(1.08037 -0.019571 0)
(1.07921 -0.018923 0)
(1.0781 -0.0183163 0)
(1.07699 -0.0177032 0)
(1.07594 -0.0171474 0)
(1.07487 -0.0165804 0)
(1.0739 -0.0160933 0)
(1.07286 -0.0155878 0)
(1.07195 -0.0151901 0)
(1.07095 -0.0147614 0)
(1.07009 -0.0144716 0)
(1.06908 -0.0141299 0)
(1.06828 -0.0139595 0)
(1.06723 -0.0137062 0)
(1.06646 -0.0136549 0)
(1.06534 -0.013481 0)
(1.06459 -0.0135351 0)
(1.06337 -0.0134227 0)
(1.06265 -0.0135555 0)
(1.06128 -0.013484 0)
(1.06061 -0.0136586 0)
(1.05907 -0.0136122 0)
(1.05849 -0.0137861 0)
(1.05674 -0.0137635 0)
(1.05631 -0.013895 0)
(1.05434 -0.0139133 0)
(1.05411 -0.0139739 0)
(1.05188 -0.0140622 0)
(1.12856 -0.0494039 0)
(1.12588 -0.0481603 0)
(1.1233 -0.0468609 0)
(1.12083 -0.0455172 0)
(1.11846 -0.0441406 0)
(1.1162 -0.0427427 0)
(1.11404 -0.0413351 0)
(1.11198 -0.0399286 0)
(1.11003 -0.0385338 0)
(1.10817 -0.0371599 0)
(1.1064 -0.0358161 0)
(1.10471 -0.0345091 0)
(1.10309 -0.0332458 0)
(1.10155 -0.0320301 0)
(1.10006 -0.0308664 0)
(1.09863 -0.0297551 0)
(1.09724 -0.0286987 0)
(1.09589 -0.0276938 0)
(1.09457 -0.0267416 0)
(1.09327 -0.0258354 0)
(1.092 -0.0249762 0)
(1.09074 -0.024154 0)
(1.0895 -0.0233717 0)
(1.08827 -0.0226157 0)
(1.08706 -0.0218933 0)
(1.08584 -0.0211868 0)
(1.08466 -0.0205107 0)
(1.08348 -0.0198417 0)
(1.08234 -0.019205 0)
(1.08119 -0.0185688 0)
(1.08011 -0.0179729 0)
(1.079 -0.0173729 0)
(1.07798 -0.0168277 0)
(1.07692 -0.0162743 0)
(1.07596 -0.0157963 0)
(1.07494 -0.015304 0)
(1.07404 -0.0149123 0)
(1.07304 -0.0144958 0)
(1.0722 -0.0142074 0)
(1.0712 -0.0138767 0)
(1.07041 -0.0137018 0)
(1.06937 -0.0134587 0)
(1.06861 -0.0133966 0)
(1.0675 -0.0132332 0)
(1.06676 -0.0132702 0)
(1.06554 -0.0131704 0)
(1.06483 -0.0132808 0)
(1.06346 -0.0132252 0)
(1.0628 -0.0133739 0)
(1.06125 -0.0133475 0)
(1.06068 -0.0134949 0)
(1.05892 -0.0134945 0)
(1.05849 -0.0136037 0)
(1.05651 -0.0136419 0)
(1.05628 -0.0136903 0)
(1.05403 -0.0137895 0)
(1.12987 -0.0481783 0)
(1.12722 -0.0469914 0)
(1.12466 -0.0457494 0)
(1.1222 -0.0444628 0)
(1.11985 -0.0431429 0)
(1.11759 -0.0418004 0)
(1.11544 -0.0404466 0)
(1.11339 -0.0390916 0)
(1.11143 -0.0377457 0)
(1.10956 -0.0364178 0)
(1.10779 -0.0351166 0)
(1.10609 -0.0338488 0)
(1.10447 -0.0326211 0)
(1.10292 -0.0314372 0)
(1.10143 -0.0303018 0)
(1.09999 -0.0292154 0)
(1.09859 -0.0281805 0)
(1.09723 -0.0271944 0)
(1.09591 -0.0262584 0)
(1.09461 -0.0253663 0)
(1.09334 -0.0245194 0)
(1.09208 -0.0237083 0)
(1.09084 -0.022936 0)
(1.08961 -0.0221899 0)
(1.08841 -0.0214769 0)
(1.08721 -0.0207804 0)
(1.08604 -0.0201141 0)
(1.08487 -0.0194562 0)
(1.08374 -0.01883 0)
(1.08261 -0.0182063 0)
(1.08153 -0.0176216 0)
(1.08044 -0.0170352 0)
(1.07943 -0.0165009 0)
(1.07838 -0.0159615 0)
(1.07744 -0.0154928 0)
(1.07643 -0.0150141 0)
(1.07555 -0.0146284 0)
(1.07456 -0.0142243 0)
(1.07373 -0.0139373 0)
(1.07274 -0.0136175 0)
(1.07196 -0.0134382 0)
(1.07093 -0.0132048 0)
(1.07018 -0.0131321 0)
(1.06908 -0.0129784 0)
(1.06835 -0.0129988 0)
(1.06713 -0.0129101 0)
(1.06644 -0.012999 0)
(1.06507 -0.0129573 0)
(1.06442 -0.0130816 0)
(1.06287 -0.0130722 0)
(1.06231 -0.0131956 0)
(1.06055 -0.0132136 0)
(1.06013 -0.0133036 0)
(1.05814 -0.0133575 0)
(1.05792 -0.0133964 0)
(1.05565 -0.0135038 0)
(1.1307 -0.0469226 0)
(1.12807 -0.0457923 0)
(1.12554 -0.0446074 0)
(1.1231 -0.043378 0)
(1.12076 -0.0421148 0)
(1.11852 -0.040828 0)
(1.11637 -0.0395282 0)
(1.11432 -0.0382252 0)
(1.11237 -0.0369288 0)
(1.1105 -0.0356475 0)
(1.10872 -0.0343898 0)
(1.10702 -0.033162 0)
(1.10539 -0.0319707 0)
(1.10383 -0.0308198 0)
(1.10233 -0.0297138 0)
(1.10088 -0.0286534 0)
(1.09948 -0.0276413 0)
(1.09811 -0.0266752 0)
(1.09679 -0.0257566 0)
(1.09549 -0.0248797 0)
(1.09421 -0.0240462 0)
(1.09295 -0.0232474 0)
(1.09172 -0.0224863 0)
(1.0905 -0.021751 0)
(1.0893 -0.0210483 0)
(1.0881 -0.0203627 0)
(1.08694 -0.0197069 0)
(1.08578 -0.0190608 0)
(1.08467 -0.0184458 0)
(1.08354 -0.0178351 0)
(1.08248 -0.017262 0)
(1.0814 -0.0166896 0)
(1.0804 -0.0161666 0)
(1.07937 -0.0156415 0)
(1.07843 -0.0151822 0)
(1.07744 -0.0147173 0)
(1.07656 -0.0143378 0)
(1.07559 -0.0139462 0)
(1.07477 -0.0136607 0)
(1.07379 -0.0133517 0)
(1.07302 -0.0131682 0)
(1.07199 -0.0129443 0)
(1.07126 -0.0128613 0)
(1.07016 -0.0127164 0)
(1.06945 -0.012721 0)
(1.06823 -0.0126419 0)
(1.06755 -0.0127107 0)
(1.06619 -0.0126806 0)
(1.06555 -0.0127826 0)
(1.06401 -0.012787 0)
(1.06346 -0.0128891 0)
(1.0617 -0.0129217 0)
(1.06129 -0.0129955 0)
(1.0593 -0.0130613 0)
(1.05908 -0.0130929 0)
(1.05681 -0.013206 0)
(1.13118 -0.0456374 0)
(1.12859 -0.0445631 0)
(1.12608 -0.0434351 0)
(1.12366 -0.0422627 0)
(1.12134 -0.0410561 0)
(1.1191 -0.0398249 0)
(1.11697 -0.0385794 0)
(1.11492 -0.0373286 0)
(1.11297 -0.0360822 0)
(1.1111 -0.034848 0)
(1.10931 -0.0336344 0)
(1.1076 -0.0324474 0)
(1.10597 -0.0312936 0)
(1.1044 -0.0301766 0)
(1.10289 -0.029101 0)
(1.10143 -0.0280678 0)
(1.10002 -0.0270798 0)
(1.09865 -0.0261349 0)
(1.09731 -0.0252348 0)
(1.09601 -0.0243745 0)
(1.09473 -0.0235557 0)
(1.09347 -0.0227703 0)
(1.09224 -0.0220213 0)
(1.09101 -0.021298 0)
(1.08982 -0.0206065 0)
(1.08863 -0.0199327 0)
(1.08748 -0.0192881 0)
(1.08633 -0.0186545 0)
(1.08522 -0.0180513 0)
(1.08411 -0.0174542 0)
(1.08305 -0.0168932 0)
(1.08198 -0.0163352 0)
(1.08099 -0.0158237 0)
(1.07997 -0.0153133 0)
(1.07904 -0.0148637 0)
(1.07805 -0.0144128 0)
(1.07719 -0.0140397 0)
(1.07621 -0.0136606 0)
(1.07541 -0.0133769 0)
(1.07443 -0.0130785 0)
(1.07367 -0.0128914 0)
(1.07265 -0.0126763 0)
(1.07192 -0.0125838 0)
(1.07083 -0.0124469 0)
(1.07012 -0.0124367 0)
(1.06892 -0.0123657 0)
(1.06825 -0.012416 0)
(1.06689 -0.0123951 0)
(1.06627 -0.0124771 0)
(1.06473 -0.0124921 0)
(1.06419 -0.0125758 0)
(1.06244 -0.0126192 0)
(1.06204 -0.0126799 0)
(1.06005 -0.012754 0)
(1.05984 -0.0127802 0)
(1.05757 -0.0128969 0)
(1.13143 -0.044322 0)
(1.12887 -0.0433033 0)
(1.12638 -0.0422316 0)
(1.12399 -0.0411159 0)
(1.12168 -0.0399656 0)
(1.11946 -0.0387901 0)
(1.11732 -0.0375987 0)
(1.11528 -0.0364005 0)
(1.11333 -0.0352042 0)
(1.11145 -0.0340177 0)
(1.10966 -0.0328487 0)
(1.10795 -0.0317033 0)
(1.1063 -0.0305877 0)
(1.10472 -0.0295057 0)
(1.1032 -0.0284617 0)
(1.10173 -0.0274568 0)
(1.10031 -0.026494 0)
(1.09892 -0.0255716 0)
(1.09758 -0.0246914 0)
(1.09627 -0.023849 0)
(1.09499 -0.0230459 0)
(1.09372 -0.0222752 0)
(1.09249 -0.0215396 0)
(1.09126 -0.0208293 0)
(1.09007 -0.02015 0)
(1.08888 -0.0194889 0)
(1.08773 -0.0188564 0)
(1.08659 -0.0182361 0)
(1.08548 -0.0176452 0)
(1.08438 -0.0170623 0)
(1.08333 -0.0165138 0)
(1.08226 -0.0159707 0)
(1.08128 -0.015471 0)
(1.08026 -0.0149755 0)
(1.07934 -0.014536 0)
(1.07835 -0.0140992 0)
(1.07749 -0.0137329 0)
(1.07652 -0.0133662 0)
(1.07572 -0.0130849 0)
(1.07475 -0.0127969 0)
(1.07399 -0.0126067 0)
(1.07297 -0.0124 0)
(1.07225 -0.0122989 0)
(1.07116 -0.0121689 0)
(1.07047 -0.0121454 0)
(1.06926 -0.0120809 0)
(1.0686 -0.0121145 0)
(1.06725 -0.0121006 0)
(1.06664 -0.012165 0)
(1.06511 -0.0121877 0)
(1.06458 -0.0122558 0)
(1.06285 -0.0123066 0)
(1.06245 -0.0123567 0)
(1.06047 -0.0124361 0)
(1.06027 -0.0124585 0)
(1.058 -0.012577 0)
(1.13153 -0.0429755 0)
(1.12899 -0.0420118 0)
(1.12653 -0.0409959 0)
(1.12416 -0.0399364 0)
(1.12186 -0.0388421 0)
(1.11965 -0.0377219 0)
(1.11752 -0.0365847 0)
(1.11548 -0.035439 0)
(1.11353 -0.0342931 0)
(1.11165 -0.0331546 0)
(1.10985 -0.0320309 0)
(1.10812 -0.0309277 0)
(1.10646 -0.0298512 0)
(1.10487 -0.028805 0)
(1.10334 -0.0277936 0)
(1.10185 -0.0268183 0)
(1.10042 -0.0258819 0)
(1.09902 -0.0249833 0)
(1.09767 -0.0241242 0)
(1.09634 -0.0233009 0)
(1.09505 -0.022515 0)
(1.09378 -0.0217603 0)
(1.09254 -0.0210392 0)
(1.09131 -0.0203431 0)
(1.09012 -0.019677 0)
(1.08893 -0.0190295 0)
(1.08778 -0.01841 0)
(1.08663 -0.0178037 0)
(1.08553 -0.0172259 0)
(1.08443 -0.0166578 0)
(1.08338 -0.0161222 0)
(1.08232 -0.0155944 0)
(1.08134 -0.015107 0)
(1.08032 -0.0146267 0)
(1.0794 -0.0141975 0)
(1.07841 -0.0137749 0)
(1.07756 -0.0134159 0)
(1.07659 -0.0130616 0)
(1.07579 -0.0127832 0)
(1.07481 -0.0125053 0)
(1.07405 -0.0123129 0)
(1.07304 -0.012114 0)
(1.07232 -0.0120056 0)
(1.07123 -0.0118815 0)
(1.07054 -0.0118463 0)
(1.06934 -0.0117868 0)
(1.06869 -0.0118057 0)
(1.06734 -0.0117966 0)
(1.06674 -0.0118458 0)
(1.06522 -0.0118734 0)
(1.0647 -0.0119285 0)
(1.06297 -0.0119838 0)
(1.06258 -0.0120256 0)
(1.06061 -0.0121078 0)
(1.06041 -0.0121275 0)
(1.05815 -0.0122464 0)
(1.13153 -0.0415969 0)
(1.12902 -0.0406873 0)
(1.12658 -0.0397265 0)
(1.12422 -0.0387226 0)
(1.12194 -0.0376839 0)
(1.11974 -0.0366187 0)
(1.11762 -0.0355355 0)
(1.11558 -0.0344423 0)
(1.11362 -0.033347 0)
(1.11173 -0.0322568 0)
(1.10992 -0.0311788 0)
(1.10819 -0.0301185 0)
(1.10652 -0.0290819 0)
(1.10491 -0.0280725 0)
(1.10336 -0.0270947 0)
(1.10186 -0.02615 0)
(1.10041 -0.0252413 0)
(1.099 -0.0243677 0)
(1.09763 -0.0235311 0)
(1.09629 -0.0227283 0)
(1.09499 -0.0219609 0)
(1.09371 -0.0212233 0)
(1.09246 -0.020518 0)
(1.09123 -0.0198372 0)
(1.09003 -0.0191855 0)
(1.08883 -0.0185527 0)
(1.08768 -0.017947 0)
(1.08653 -0.0173555 0)
(1.08543 -0.0167915 0)
(1.08432 -0.0162387 0)
(1.08328 -0.0157167 0)
(1.08221 -0.0152046 0)
(1.08123 -0.01473 0)
(1.08021 -0.014265 0)
(1.07929 -0.0138467 0)
(1.0783 -0.0134383 0)
(1.07744 -0.0130871 0)
(1.07647 -0.0127451 0)
(1.07566 -0.0124703 0)
(1.07468 -0.0122022 0)
(1.07392 -0.0120086 0)
(1.07291 -0.011817 0)
(1.07218 -0.0117025 0)
(1.0711 -0.0115835 0)
(1.07041 -0.0115381 0)
(1.06921 -0.0114822 0)
(1.06856 -0.0114886 0)
(1.06722 -0.0114824 0)
(1.06662 -0.0115188 0)
(1.06511 -0.0115489 0)
(1.0646 -0.0115934 0)
(1.06288 -0.0116507 0)
(1.06249 -0.011686 0)
(1.06053 -0.011769 0)
(1.06034 -0.0117868 0)
(1.05809 -0.0119049 0)
(1.13146 -0.0401848 0)
(1.12898 -0.0393286 0)
(1.12656 -0.0384222 0)
(1.12422 -0.0374732 0)
(1.12195 -0.0364896 0)
(1.11975 -0.035479 0)
(1.11764 -0.0344496 0)
(1.1156 -0.0334088 0)
(1.11363 -0.0323642 0)
(1.11174 -0.0313225 0)
(1.10992 -0.0302906 0)
(1.10817 -0.0292738 0)
(1.10649 -0.0282777 0)
(1.10487 -0.027306 0)
(1.1033 -0.0263628 0)
(1.10178 -0.0254499 0)
(1.10032 -0.02457 0)
(1.09889 -0.0237228 0)
(1.09751 -0.02291 0)
(1.09615 -0.022129 0)
(1.09484 -0.0213814 0)
(1.09355 -0.0206623 0)
(1.09229 -0.0199741 0)
(1.09104 -0.0193098 0)
(1.08983 -0.0186735 0)
(1.08864 -0.0180565 0)
(1.08748 -0.0174655 0)
(1.08632 -0.0168897 0)
(1.08522 -0.0163402 0)
(1.0841 -0.0158033 0)
(1.08306 -0.0152956 0)
(1.08199 -0.0147994 0)
(1.081 -0.0143381 0)
(1.07997 -0.0138887 0)
(1.07905 -0.0134818 0)
(1.07805 -0.0130877 0)
(1.07719 -0.012745 0)
(1.07621 -0.0124152 0)
(1.0754 -0.0121448 0)
(1.07441 -0.0118862 0)
(1.07365 -0.0116925 0)
(1.07262 -0.0115075 0)
(1.0719 -0.0113884 0)
(1.07081 -0.0112736 0)
(1.07012 -0.0112198 0)
(1.06892 -0.0111662 0)
(1.06827 -0.0111621 0)
(1.06694 -0.0111571 0)
(1.06634 -0.0111828 0)
(1.06483 -0.0112136 0)
(1.06432 -0.0112494 0)
(1.06261 -0.0113068 0)
(1.06224 -0.0113372 0)
(1.06028 -0.0114194 0)
(1.06009 -0.0114359 0)
(1.05785 -0.0115523 0)
(1.13134 -0.0387384 0)
(1.12888 -0.0379345 0)
(1.12649 -0.0370816 0)
(1.12416 -0.0361869 0)
(1.12191 -0.0352577 0)
(1.11972 -0.0343014 0)
(1.11761 -0.0333254 0)
(1.11557 -0.0323368 0)
(1.1136 -0.0313429 0)
(1.1117 -0.03035 0)
(1.10987 -0.0293645 0)
(1.10811 -0.0283917 0)
(1.10641 -0.0274368 0)
(1.10477 -0.0265036 0)
(1.10319 -0.025596 0)
(1.10165 -0.024716 0)
(1.10017 -0.0238662 0)
(1.09873 -0.0230465 0)
(1.09733 -0.0222588 0)
(1.09596 -0.021501 0)
(1.09463 -0.0207745 0)
(1.09332 -0.0200753 0)
(1.09205 -0.0194054 0)
(1.09079 -0.0187589 0)
(1.08958 -0.0181392 0)
(1.08837 -0.0175389 0)
(1.0872 -0.0169637 0)
(1.08604 -0.0164043 0)
(1.08493 -0.0158702 0)
(1.08381 -0.0153498 0)
(1.08275 -0.0148569 0)
(1.08168 -0.0143772 0)
(1.08068 -0.0139298 0)
(1.07965 -0.0134961 0)
(1.07872 -0.0131013 0)
(1.07771 -0.0127215 0)
(1.07684 -0.0123878 0)
(1.07585 -0.0120701 0)
(1.07503 -0.011805 0)
(1.07404 -0.0115558 0)
(1.07327 -0.011363 0)
(1.07224 -0.0111842 0)
(1.07151 -0.0110619 0)
(1.07041 -0.0109505 0)
(1.06971 -0.0108901 0)
(1.06852 -0.0108378 0)
(1.06786 -0.010825 0)
(1.06653 -0.0108198 0)
(1.06594 -0.0108369 0)
(1.06443 -0.0108666 0)
(1.06393 -0.0108956 0)
(1.06222 -0.0109515 0)
(1.06185 -0.0109781 0)
(1.0599 -0.0110584 0)
(1.05971 -0.011074 0)
(1.05748 -0.0111879 0)
(1.13118 -0.0372566 0)
(1.12875 -0.0365041 0)
(1.12637 -0.0357039 0)
(1.12406 -0.0348626 0)
(1.12182 -0.0339872 0)
(1.11964 -0.0330845 0)
(1.11753 -0.0321615 0)
(1.11549 -0.031225 0)
(1.11352 -0.0302817 0)
(1.11162 -0.0293377 0)
(1.10978 -0.0283989 0)
(1.10801 -0.0274706 0)
(1.10629 -0.0265576 0)
(1.10464 -0.0256637 0)
(1.10304 -0.0247927 0)
(1.10149 -0.0239465 0)
(1.09998 -0.0231279 0)
(1.09852 -0.0223371 0)
(1.09711 -0.0215759 0)
(1.09572 -0.0208425 0)
(1.09437 -0.0201385 0)
(1.09305 -0.0194605 0)
(1.09177 -0.0188102 0)
(1.0905 -0.0181827 0)
(1.08927 -0.0175808 0)
(1.08805 -0.0169983 0)
(1.08687 -0.0164398 0)
(1.0857 -0.0158978 0)
(1.08458 -0.0153798 0)
(1.08345 -0.0148765 0)
(1.08239 -0.0143992 0)
(1.08131 -0.0139363 0)
(1.08031 -0.0135034 0)
(1.07926 -0.0130857 0)
(1.07832 -0.0127035 0)
(1.0773 -0.0123381 0)
(1.07642 -0.0120142 0)
(1.07542 -0.0117086 0)
(1.0746 -0.0114496 0)
(1.07359 -0.0112094 0)
(1.07281 -0.0110187 0)
(1.07177 -0.0108458 0)
(1.07103 -0.0107216 0)
(1.06993 -0.0106131 0)
(1.06923 -0.0105476 0)
(1.06802 -0.0104957 0)
(1.06737 -0.010476 0)
(1.06604 -0.0104697 0)
(1.06544 -0.0104797 0)
(1.06394 -0.0105074 0)
(1.06344 -0.0105308 0)
(1.06174 -0.0105842 0)
(1.06136 -0.0106077 0)
(1.05942 -0.0106855 0)
(1.05923 -0.0107002 0)
(1.057 -0.0108113 0)
(1.13097 -0.0357389 0)
(1.12857 -0.0350367 0)
(1.12622 -0.0342881 0)
(1.12393 -0.0334994 0)
(1.1217 -0.032677 0)
(1.11953 -0.0318273 0)
(1.11742 -0.030957 0)
(1.11539 -0.0300722 0)
(1.11341 -0.0291794 0)
(1.1115 -0.0282843 0)
(1.10965 -0.0273926 0)
(1.10787 -0.0265091 0)
(1.10614 -0.0256386 0)
(1.10447 -0.0247847 0)
(1.10285 -0.0239511 0)
(1.10129 -0.0231399 0)
(1.09977 -0.0223537 0)
(1.09829 -0.021593 0)
(1.09685 -0.0208594 0)
(1.09545 -0.0201519 0)
(1.09409 -0.0194717 0)
(1.09275 -0.0188162 0)
(1.09145 -0.0181868 0)
(1.09017 -0.0175796 0)
(1.08893 -0.0169967 0)
(1.0877 -0.016433 0)
(1.08651 -0.0158923 0)
(1.08533 -0.0153685 0)
(1.0842 -0.0148676 0)
(1.08306 -0.014382 0)
(1.08199 -0.013921 0)
(1.08089 -0.0134754 0)
(1.07988 -0.0130575 0)
(1.07883 -0.0126561 0)
(1.07788 -0.0122871 0)
(1.07685 -0.0119362 0)
(1.07596 -0.0116228 0)
(1.07495 -0.0113291 0)
(1.07411 -0.0110772 0)
(1.07309 -0.0108459 0)
(1.0723 -0.0106583 0)
(1.07125 -0.0104911 0)
(1.0705 -0.0103662 0)
(1.06939 -0.0102602 0)
(1.06868 -0.0101911 0)
(1.06747 -0.0101391 0)
(1.06681 -0.010114 0)
(1.06548 -0.0101058 0)
(1.06488 -0.0101102 0)
(1.06338 -0.010135 0)
(1.06288 -0.010154 0)
(1.06118 -0.0102042 0)
(1.06081 -0.0102252 0)
(1.05887 -0.0102998 0)
(1.05868 -0.0103138 0)
(1.05645 -0.0104215 0)
(1.13073 -0.0341846 0)
(1.12836 -0.0335315 0)
(1.12603 -0.0328336 0)
(1.12376 -0.0320965 0)
(1.12154 -0.0313263 0)
(1.11938 -0.030529 0)
(1.11728 -0.0297107 0)
(1.11524 -0.0288774 0)
(1.11327 -0.0280349 0)
(1.11135 -0.0271887 0)
(1.10949 -0.0263442 0)
(1.1077 -0.0255059 0)
(1.10596 -0.0246785 0)
(1.10427 -0.0238653 0)
(1.10264 -0.0230701 0)
(1.10106 -0.0222948 0)
(1.09952 -0.0215421 0)
(1.09802 -0.0208126 0)
(1.09657 -0.020108 0)
(1.09515 -0.0194276 0)
(1.09377 -0.0187726 0)
(1.09242 -0.018141 0)
(1.09111 -0.0175338 0)
(1.08981 -0.016948 0)
(1.08856 -0.0163853 0)
(1.08731 -0.0158416 0)
(1.08612 -0.0153198 0)
(1.08492 -0.014815 0)
(1.08378 -0.014332 0)
(1.08263 -0.0138649 0)
(1.08155 -0.013421 0)
(1.08045 -0.0129929 0)
(1.07943 -0.0125909 0)
(1.07836 -0.0122059 0)
(1.0774 -0.0118508 0)
(1.07636 -0.0115145 0)
(1.07545 -0.0112123 0)
(1.07443 -0.0109307 0)
(1.07358 -0.0106865 0)
(1.07255 -0.0104641 0)
(1.07175 -0.0102807 0)
(1.07069 -0.0101189 0)
(1.06993 -0.00999459 0)
(1.06881 -0.00989084 0)
(1.06809 -0.00981938 0)
(1.06688 -0.00976695 0)
(1.06621 -0.00973779 0)
(1.06487 -0.00972726 0)
(1.06427 -0.00972714 0)
(1.06277 -0.0097487 0)
(1.06227 -0.00976396 0)
(1.06057 -0.0098107 0)
(1.0602 -0.00982946 0)
(1.05826 -0.00990068 0)
(1.05808 -0.00991394 0)
(1.05585 -0.010018 0)
(1.13045 -0.0325932 0)
(1.1281 -0.031988 0)
(1.1258 -0.0313395 0)
(1.12354 -0.030653 0)
(1.12134 -0.0299342 0)
(1.11919 -0.0291885 0)
(1.1171 -0.0284218 0)
(1.11506 -0.0276394 0)
(1.11309 -0.0268471 0)
(1.11117 -0.0260498 0)
(1.1093 -0.0252526 0)
(1.1075 -0.0244599 0)
(1.10575 -0.0236761 0)
(1.10405 -0.0229043 0)
(1.1024 -0.0221482 0)
(1.1008 -0.0214098 0)
(1.09925 -0.0206917 0)
(1.09774 -0.0199946 0)
(1.09627 -0.0193203 0)
(1.09483 -0.0186683 0)
(1.09344 -0.0180399 0)
(1.09207 -0.0174333 0)
(1.09074 -0.0168498 0)
(1.08943 -0.0162867 0)
(1.08816 -0.0157454 0)
(1.08691 -0.0152227 0)
(1.0857 -0.0147209 0)
(1.08449 -0.014236 0)
(1.08334 -0.0137719 0)
(1.08218 -0.0133239 0)
(1.08109 -0.0128978 0)
(1.07998 -0.0124879 0)
(1.07894 -0.0121023 0)
(1.07786 -0.0117341 0)
(1.07689 -0.0113935 0)
(1.07584 -0.011072 0)
(1.07492 -0.0107816 0)
(1.07389 -0.0105121 0)
(1.07302 -0.0102766 0)
(1.07198 -0.0100631 0)
(1.07117 -0.00988471 0)
(1.0701 -0.00972843 0)
(1.06933 -0.0096057 0)
(1.0682 -0.00950415 0)
(1.06747 -0.00943145 0)
(1.06625 -0.00937851 0)
(1.06558 -0.0093463 0)
(1.06423 -0.00933336 0)
(1.06363 -0.00932959 0)
(1.06213 -0.00934776 0)
(1.06162 -0.00935986 0)
(1.05993 -0.00940296 0)
(1.05956 -0.00941971 0)
(1.05762 -0.00948736 0)
(1.05743 -0.00949979 0)
(1.05521 -0.00959989 0)
(1.13014 -0.0309642 0)
(1.12781 -0.0304056 0)
(1.12553 -0.0298054 0)
(1.12329 -0.0291684 0)
(1.1211 -0.0285 0)
(1.11897 -0.0278052 0)
(1.11688 -0.0270894 0)
(1.11485 -0.0263576 0)
(1.11287 -0.0256151 0)
(1.11095 -0.0248666 0)
(1.10908 -0.0241169 0)
(1.10727 -0.0233701 0)
(1.10551 -0.0226302 0)
(1.10379 -0.0219005 0)
(1.10213 -0.0211843 0)
(1.10052 -0.0204838 0)
(1.09895 -0.0198012 0)
(1.09742 -0.0191377 0)
(1.09594 -0.0184949 0)
(1.09449 -0.0178727 0)
(1.09308 -0.0172721 0)
(1.09169 -0.016692 0)
(1.09035 -0.0161334 0)
(1.08903 -0.0155942 0)
(1.08775 -0.0150757 0)
(1.08648 -0.014575 0)
(1.08526 -0.0140943 0)
(1.08404 -0.0136302 0)
(1.08288 -0.013186 0)
(1.08171 -0.0127578 0)
(1.08061 -0.0123503 0)
(1.07948 -0.0119591 0)
(1.07844 -0.0115907 0)
(1.07735 -0.0112396 0)
(1.07636 -0.0109141 0)
(1.0753 -0.0106076 0)
(1.07437 -0.0103298 0)
(1.07332 -0.0100726 0)
(1.07245 -0.00984642 0)
(1.07139 -0.00964198 0)
(1.07057 -0.00946943 0)
(1.06948 -0.00931874 0)
(1.0687 -0.00919854 0)
(1.06756 -0.0090993 0)
(1.06683 -0.00902632 0)
(1.0656 -0.00897297 0)
(1.06492 -0.00893859 0)
(1.06357 -0.00892333 0)
(1.06297 -0.0089166 0)
(1.06146 -0.00893144 0)
(1.06095 -0.00894079 0)
(1.05926 -0.00898027 0)
(1.05889 -0.00899511 0)
(1.05695 -0.0090591 0)
(1.05676 -0.00907065 0)
(1.05453 -0.00916655 0)
(1.12978 -0.029297 0)
(1.12748 -0.0287837 0)
(1.12522 -0.0282305 0)
(1.123 -0.027642 0)
(1.12083 -0.027023 0)
(1.1187 -0.0263782 0)
(1.11663 -0.0257126 0)
(1.1146 -0.025031 0)
(1.11262 -0.024338 0)
(1.1107 -0.0236382 0)
(1.10883 -0.022936 0)
(1.10701 -0.0222353 0)
(1.10524 -0.0215398 0)
(1.10351 -0.0208528 0)
(1.10184 -0.0201773 0)
(1.10021 -0.0195155 0)
(1.09863 -0.0188696 0)
(1.09709 -0.0182408 0)
(1.09559 -0.0176308 0)
(1.09412 -0.0170395 0)
(1.0927 -0.0164681 0)
(1.0913 -0.0159158 0)
(1.08994 -0.0153834 0)
(1.08861 -0.0148694 0)
(1.08731 -0.0143748 0)
(1.08603 -0.0138974 0)
(1.0848 -0.0134389 0)
(1.08357 -0.0129966 0)
(1.0824 -0.0125732 0)
(1.08122 -0.0121655 0)
(1.0801 -0.0117775 0)
(1.07897 -0.0114055 0)
(1.07791 -0.0110549 0)
(1.07681 -0.0107214 0)
(1.07581 -0.0104117 0)
(1.07474 -0.0101206 0)
(1.0738 -0.00985586 0)
(1.07274 -0.0096112 0)
(1.07185 -0.00939504 0)
(1.07078 -0.00919988 0)
(1.06995 -0.00903396 0)
(1.06885 -0.00888911 0)
(1.06806 -0.00877223 0)
(1.06691 -0.00867558 0)
(1.06617 -0.00860312 0)
(1.06493 -0.00854962 0)
(1.06425 -0.0085138 0)
(1.06289 -0.00849647 0)
(1.06229 -0.00848733 0)
(1.06078 -0.00849904 0)
(1.06027 -0.00850594 0)
(1.05857 -0.0085419 0)
(1.0582 -0.00855492 0)
(1.05626 -0.00861519 0)
(1.05607 -0.00862581 0)
(1.05384 -0.00871727 0)
(1.12938 -0.027591 0)
(1.12711 -0.0271216 0)
(1.12488 -0.0266141 0)
(1.12268 -0.0260729 0)
(1.12052 -0.0255024 0)
(1.11841 -0.0249068 0)
(1.11634 -0.0242907 0)
(1.11432 -0.0236586 0)
(1.11234 -0.0230149 0)
(1.11042 -0.0223636 0)
(1.10854 -0.0217089 0)
(1.10672 -0.0210545 0)
(1.10494 -0.0204039 0)
(1.10321 -0.0197601 0)
(1.10152 -0.019126 0)
(1.09988 -0.0185038 0)
(1.09829 -0.0178956 0)
(1.09673 -0.0173026 0)
(1.09522 -0.0167265 0)
(1.09374 -0.0161675 0)
(1.0923 -0.0156266 0)
(1.09089 -0.0151033 0)
(1.08952 -0.0145985 0)
(1.08817 -0.014111 0)
(1.08686 -0.0136416 0)
(1.08557 -0.0131886 0)
(1.08433 -0.0127535 0)
(1.08309 -0.0123339 0)
(1.0819 -0.0119323 0)
(1.08071 -0.0115459 0)
(1.07959 -0.0111782 0)
(1.07844 -0.010826 0)
(1.07737 -0.010494 0)
(1.07626 -0.0101785 0)
(1.07525 -0.00988526 0)
(1.07417 -0.00960983 0)
(1.07321 -0.00935891 0)
(1.07214 -0.00912711 0)
(1.07124 -0.00892162 0)
(1.07016 -0.00873606 0)
(1.06931 -0.00857746 0)
(1.06821 -0.0084388 0)
(1.06741 -0.00832597 0)
(1.06625 -0.00823227 0)
(1.0655 -0.00816105 0)
(1.06425 -0.00810779 0)
(1.06357 -0.00807115 0)
(1.0622 -0.0080521 0)
(1.06159 -0.00804102 0)
(1.06008 -0.00804987 0)
(1.05957 -0.0080546 0)
(1.05786 -0.00808717 0)
(1.05749 -0.00809845 0)
(1.05555 -0.00815495 0)
(1.05537 -0.0081646 0)
(1.05314 -0.00825138 0)
(1.12896 -0.0258456 0)
(1.12671 -0.0254186 0)
(1.1245 -0.0249556 0)
(1.12232 -0.0244605 0)
(1.12018 -0.0239373 0)
(1.11808 -0.02339 0)
(1.11602 -0.0228228 0)
(1.11401 -0.0222397 0)
(1.11204 -0.0216447 0)
(1.11011 -0.0210418 0)
(1.10823 -0.0204347 0)
(1.1064 -0.0198267 0)
(1.10462 -0.0192214 0)
(1.10288 -0.0186213 0)
(1.10118 -0.0180294 0)
(1.09953 -0.0174476 0)
(1.09792 -0.016878 0)
(1.09635 -0.016322 0)
(1.09483 -0.015781 0)
(1.09333 -0.0152554 0)
(1.09188 -0.0147463 0)
(1.09046 -0.0142534 0)
(1.08907 -0.0137776 0)