/*--------------------------------*- C++ -*----------------------------------*\
  =========                 |
  \\      /  F ield         | OpenFOAM: The Open Source CFD Toolbox
   \\    /   O peration     | Website:  https://openfoam.org
    \\  /    A nd           | Version:  7
     \\/     M anipulation  |
\*---------------------------------------------------------------------------*/
FoamFile
{
    version     2.0;
    format      ascii;
    class       volScalarField;
    location    "10";
    object      p;
}
// * * * * * * * * * * * * * * * * * * * * * * * * * * * * * * * * * * * * * //

dimensions      [1 -1 -2 0 0 0 0];

internalField   nonuniform List<scalar> 
4032
(
1
1
1
1
1
1
1
1
1
1
1
1.32745
7.58587
10.6086
10.7413
10.9498
11.1351
11.312
11.4747
11.6211
11.7512
11.8563
11.9367
11.9958
1
1
1
1
1
1
1
1
1
1
1
1.28849
7.42186
10.5749
10.7285
10.931
11.1126
11.2849
11.4425
11.5821
11.7042
11.8014
11.8728
11.9288
1
1
1
1
1
1
1
1
1
1
1
1.18512
7.12096
10.5459
10.687
10.888
11.0697
11.2404
11.3951
11.5295
11.6439
11.7321
11.7897
11.8372
1
1
1
1
1
1
1
1
1
1
1
1.01624
6.62059
10.4936
10.6335
10.8208
10.9924
11.1512
11.2966
11.4247
11.5356
11.6198
11.668
11.7049
1
1
1
1
1
1
1
1
1
1
1
1.00019
5.94724
10.3168
10.5008
10.6849
10.8599
11.0169
11.1562
11.2708
11.3601
11.4257
11.4593
11.5075
1
1
1
1
1
1
1
1
1
1
1
0.999999
5.10283
10.0852
10.3894
10.5581
10.7248
10.8639
10.9827
11.0804
11.1581
11.2172
11.2285
11.1878
1
1
1
1
1
1
1
1
1
1
1
1
4.13457
9.72973
10.2725
10.4292
10.5733
10.6822
10.7653
10.8243
10.8444
10.8071
10.7372
10.6918
1
1
1
1
1
1
1
1
1
1
1
1
3.08845
9.17906
10.1852
10.3224
10.4364
10.5094
10.5429
10.5462
10.4987
10.4187
10.2882
10.2733
1
1
1
1
1
1
1
1
1
1
1
1
2.00549
8.31639
10.143
10.1971
10.2877
10.3281
10.3132
10.2523
10.1057
9.8364
9.05891
7.17767
1
1
1
1
1
1
1
1
1
1
1
1
1.12664
7.17845
10.1923
10.0911
10.0873
10.0753
10.0186
9.89324
9.6527
9.17859
8.37588
6.3254
1
1
1
1
1
1
1
1
1
1
1
1
1.00154
5.56707
9.58925
9.72498
9.78781
9.76406
9.68932
9.51552
9.21742
8.65321
7.82553
5.88822
1
1
1
1
1
1
1
1
1
1
1
1
0.999977
3.69629
9.00783
9.59131
9.61911
9.55443
9.43478
9.20652
8.84779
8.27333
7.37463
5.7994
1
1
1
1
1
1
1
1
1
1
1
1
0.999994
1.96389
8.04868
9.53192
9.44211
9.33157
9.17282
8.90961
8.5152
7.95489
7.05977
5.83672
1
1
1
1
1
1
1
1
1
1
1
1
0.999999
1.0964
6.28726
9.20164
9.18897
9.09001
8.92185
8.65093
8.26257
7.70067
6.879
5.9259
1
1
1
1
1
1
1
1
1
1
1
1
1
1.0005
3.83619
8.609
9.0412
8.93654
8.74989
8.44141
8.05666
7.48807
6.77294
5.99178
1
1
1
1
1
1
1
1
1
1
1
1
1
0.999994
1.62116
7.63643
9.07599
8.79664
8.55767
8.24656
7.83565
7.33164
6.72244
6.0595
1
1
1
1
1
1
1
1
1
1
1
1
1
0.999999
1.03377
5.6042
8.64653
8.45891
8.29387
8.02541
7.65966
7.21107
6.67877
6.09782
1
1
1
1
1
1
1
1
1
1
1
1
1
1
0.99997
2.80045
7.90776
8.35063
8.20275
7.93806
7.58179
7.14722
6.64944
6.12713
1
1
1
1
1
1
1
1
1
1
1
1
1
1
0.999988
1.22741
6.07846
8.3017
8.11883
7.83663
7.48396
7.07464
6.61705
6.13718
1
1
1
1
1
1
1
1
1
1
1
1
1
1
0.999998
1.00399
3.23186
7.60584
7.99578
7.71519
7.39144
7.00865
6.58184
6.14111
1
1
1
1
1
1
1
1
1
1
1
1
1
1
1
1
1.33961
5.98643
7.96353
7.65784
7.34354
6.95915
6.545
6.15585
1
1
1
1
1
1
1
1
1
1
1
1
1
1
1
1
1.00924
3.11436
7.24312
7.57641
7.24544
6.86783
6.51203
6.28061
1
1
1
1
1
1
1
1
1
1
1
1
1
1
1
1
1.00003
1.30959
5.48512
7.60842
7.15594
6.83087
6.69369
6.92923
1
1
1
1
1
1
1
1
1
1
1
1
1
1
1
1
1
1.008
2.52607
6.6963
6.95545
6.95366
7.38965
7.96371
1
1
1
1
1
1
1
1
1
1
1
1
1
1
1
1
1
1.00004
1.16589
4.48556
6.74571
7.95474
8.69435
8.88921
1
1
1
1
1
1
1
1
1
1
1
1
1
1
1
1
1
1
1.00301
1.8289
5.99865
9.39246
9.61677
9.34035
1
1
1
1
1
1
1
1
1
1
1
1
1
1
1
1
1
1
1.00001
1.05075
5.16562
10.477
10.1237
9.54442
1
1
1
1
1
1
1
1
1
1
1
1
1
1
1
1
1
1
1
1.00049
4.15123
10.3957
10.2226
9.70012
1
1
1
1
1
1
1
1
1
1
1
1
1
1
1
1
1
1
1
1
3.63538
9.95391
10.1841
9.80085
1
1
1
1
1
1
1
1
1
1
1
1
1
1
1
1
1
1
1
1
3.05456
9.3018
10.1862
9.89647
1
1
1
1
1
1
1
1
1
1
1
1
1
1
1
1
1
1
1
1
2.46142
8.8263
10.1833
9.86489
1
1
1
1
1
1
1
1
1
1
1
1
1
1
1
1
1
1
1
1
1.86994
8.33817
10.3368
9.99272
1
1
1
1
1
1
1
1
1
1
1
1
1
1
1
1
1
1
1
1
1.4021
7.81542
10.3732
10.0155
1
1
1
1
1
1
1
1
1
1
1
1
1
1
1
1
1
1
1
1
1.19071
7.40929
10.401
10.0558
1
1
1
1
1
1
1
1
1
1
1
1
1
1
1
1
1
1
1
1
1.0841
7.01935
10.3445
10.0525
1
1
1
1
1
1
1
1
1
1
1
1
1
1
1
1
1
1
1
1
1.00409
6.65835
10.3195
10.094
1
1
1
1
1
1
1
1
1
1
1
1
1
1
1
1
1
1
1
1
1.00004
6.31931
10.2717
10.1023
1
1
1
1
1
1
1
1
1
1
1
1
1
1
1
1
1
1
1
1
1
6.03054
10.2575
10.1276
1
1
1
1
1
1
1
1
1
1
1
1
1
1
1
1
1
1
1
1
1
5.83196
10.2488
10.1467
1
1
1
1
1
1
1
1
1
1
1
1
1
1
1
1
1
1
1
1
1
5.74282
10.2294
10.1569
1.59124
0.402388
0.177775
0.181167
0.19958
0.230869
0.320662
0.481243
0.694416
0.883846
0.938346
0.960741
0.989509
1.22434
3.75639
4.97498
5.00889
4.94592
5.0459
5.18462
5.25291
5.24133
5.22304
5.22313
5.25577
5.27796
5.27499
5.26751
5.26664
5.25997
5.23065
5.19012
5.15938
5.15027
5.15758
5.15394
5.10622
5.03185
4.96765
4.93012
4.91497
4.90343
4.86887
4.80714
4.73568
4.67218
4.62481
4.58808
4.54959
4.5
4.44048
4.37822
4.31866
4.26295
4.20684
4.14518
4.08016
4.01728
3.96154
3.91411
3.86078
3.79281
3.72347
3.65692
3.59549
3.5405
3.49586
3.45429
3.40131
3.34648
3.29187
3.24071
3.1921
3.14442
3.09644
3.04695
2.99592
2.94353
2.88832
2.83397
2.78252
2.76232
2.8076
3.23318
4.45847
4.66159
4.5436
4.48752
4.47054
4.446
4.41188
4.3728
4.33934
4.32177
4.32254
4.34816
2.79242
1.39716
0.860623
0.710125
0.603815
0.500967
0.470271
0.485651
0.52729
0.587307
0.638094
0.714206
0.792522
0.921399
3.28043
4.88099
4.98442
4.99483
5.11247
5.22554
5.26542
5.25913
5.2562
5.26625
5.28105
5.2721
5.25051
5.23982
5.25034
5.26578
5.25341
5.20188
5.14099
5.10088
5.09899
5.11394
5.11259
5.06318
4.98669
4.91853
4.87287
4.84943
4.83126
4.79913
4.74748
4.68341
4.61948
4.56433
4.5188
4.4767
4.42723
4.36856
4.30879
4.25403
4.20399
4.14768
4.07871
4.00793
3.94315
3.88873
3.84239
3.78901
3.7256
3.66023
3.5961
3.53818
3.48871
3.44762
3.4023
3.34991
3.29484
3.23608
3.17778
3.12693
3.08218
3.03759
2.9909
2.94174
2.88935
2.83853
2.80393
2.80817
2.88604
3.27911
4.43239
4.65561
4.52739
4.45261
4.41739
4.40572
4.40737
4.39869
4.37362
4.33719
4.31194
4.30988
3.63561
2.39725
1.60783
1.23984
1.0544
0.857109
0.659719
0.582887
0.592828
0.59758
0.616751
0.671187
0.756281
0.802977
2.39628
4.70445
5.02288
5.11341
5.23437
5.26538
5.23442
5.21644
5.24416
5.30382
5.34233
5.31589
5.25938
5.21266
5.20427
5.22952
5.25727
5.25898
5.21197
5.14393
5.09059
5.06712
5.07094
5.0757
5.04851
4.98435
4.91324
4.85026
4.80255
4.77073
4.744
4.70894
4.65599
4.59151
4.52966
4.47736
4.43055
4.37693
4.31486
4.25323
4.19775
4.14886
4.09545
4.03051
3.96008
3.89211
3.83099
3.77395
3.71808
3.66085
3.60309
3.54452
3.48976
3.44005
3.39491
3.35045
3.30379
3.25231
3.19138
3.12458
3.06392
3.01485
2.97037
2.92626
2.88424
2.85044
2.83676
2.87449
3.001
3.2966
4.23498
4.62509
4.57585
4.48941
4.40999
4.36115
4.35348
4.37224
4.39417
4.38886
4.36093
4.30536
4.26093
3.19842
2.35204
1.79275
1.53656
1.34237
1.11023
0.875537
0.815093
0.79808
0.767735
0.722747
0.726999
0.732627
1.22084
4.14812
5.16922
5.21072
5.31538
5.36457
5.31023
5.25134
5.2399
5.27465
5.32667
5.34929
5.31536
5.25945
5.21312
5.18292
5.17838
5.19781
5.21812
5.19243
5.13131
5.07301
5.03048
5.00841
5.00406
4.98518
4.93293
4.86796
4.80563
4.75142
4.70729
4.67269
4.6351
4.58032
4.51688
4.45857
4.41055
4.36688
4.31231
4.24881
4.18257
4.12279
4.06666
4.00888
3.95098
3.89128
3.82767
3.76359
3.70276
3.64586
3.59199
3.53943
3.48613
3.43121
3.37824
3.33007
3.2852
3.2404
3.19163
3.13433
3.06967
3.00772
2.95719
2.91914
2.89413
2.88692
2.90756
3.00561
3.1861
3.35985
3.88277
4.45714
4.55685
4.51232
4.45079
4.38193
4.33828
4.32875
4.33983
4.36748
4.37456
4.35403
4.65695
3.77537
3.03079
2.36925
1.957
1.73989
1.53998
1.33243
1.09265
0.957128
0.909904
0.858705
0.83652
0.862847
0.94417
2.59461
5.1136
5.46701
5.37437
5.33164
5.33842
5.33869
5.3187
5.29628
5.2971
5.32378
5.34867
5.33763
5.29077
5.23511
5.18684
5.16287
5.17559
5.19669
5.16757
5.10932
5.04917
5.00318
4.97384
4.95816
4.92829
4.87816
4.82073
4.76291
4.70976
4.66611
4.62913
4.57787
4.5171
4.45412
4.40449
4.35952
4.30764
4.25172
4.19116
4.12627
4.05973
3.99577
3.93683
3.88048
3.8235
3.76424
3.70328
3.64356
3.58795
3.53587
3.48501
3.43261
3.378
3.32308
3.27168
3.22343
3.17637
3.12545
3.06838
3.00485
2.94757
2.91888
2.9144
2.95133
3.03906
3.23438
3.44678
3.4509
3.61364
4.07358
4.42847
4.50706
4.48675
4.44578
4.39487
4.34352
4.32157
4.31538
4.32798
4.34199
4.98653
4.18679
3.5353
2.92516
2.44551
2.08692
1.8398
1.66534
1.4734
1.26035
1.10373
1.0953
1.14631
1.22161
1.31977
1.60559
3.53197
5.30799
5.52518
5.42797
5.39827
5.44473
5.43889
5.36942
5.30869
5.28991
5.32158
5.34952
5.31805
5.26434
5.20577
5.16258
5.1443
5.1663
5.15997
5.11171
5.04939
4.99527
4.95516
4.93013
4.91159
4.86885
4.81182
4.74837
4.69199
4.64537
4.60516
4.5545
4.50036
4.44385
4.38935
4.33557
4.28308
4.23025
4.17406
4.11244
4.04603
3.97974
3.91815
3.86101
3.80583
3.7499
3.69146
3.63201
3.57526
3.52298
3.47336
3.42346
3.36997
3.31281
3.25569
3.2044
3.15781
3.11139
3.06179
3.00837
2.95358
2.934
2.95401
3.04595
3.21267
3.45416
3.62598
3.5736
3.53703
3.73217
4.11035
4.39664
4.49605
4.4804
4.42635
4.36978
4.31986
4.29847
4.29571
4.3101
5.21192
4.5094
3.89385
3.33625
2.85277
2.48557
2.16092
1.89911
1.72524
1.57524
1.45067
1.50389
1.58171
1.66168
1.79278
1.84047
2.16634
3.73691
5.16203
5.62262
5.5906
5.57387
5.51297
5.42455
5.33909
5.30248
5.31401
5.36222
5.34604
5.29738
5.22308
5.16984
5.13953
5.14676
5.15703
5.11881
5.06095
4.99181
4.94595
4.91262
4.89551
4.8642
4.81479
4.75026
4.68215
4.63164
4.58319
4.53347
4.48645
4.43657
4.37632
4.31447
4.26189
4.21128
4.15745
4.09807
4.03234
3.96369
3.89973
3.84318
3.79055
3.73743
3.68098
3.62103
3.56209
3.509
3.46126
3.41431
3.36406
3.30634
3.24286
3.18223
3.13289
3.0889
3.05038
3.01721
2.99031
2.99599
3.07103
3.2264
3.4152
3.59954
3.69828
3.66565
3.56844
3.57489
3.76338
4.07903
4.34943
4.48082
4.46526
4.41592
4.35078
4.29812
4.2841
4.28708
5.37965
4.75188
4.1891
3.67159
3.16158
2.78136
2.48323
2.2213
2.04838
1.93355
1.9736
2.11309
2.10949
2.17801
2.22375
2.16501
2.18231
2.45582
3.75796
5.12647
5.69353
5.74061
5.64537
5.5058
5.38225
5.34146
5.33458
5.37605
5.36386
5.31413
5.23308
5.16416
5.13056
5.12413
5.13945
5.11069
5.05942
4.98494
4.92771
4.89095
4.86943
4.8457
4.80117
4.7419
4.67008
4.60691
4.55453
4.50971
4.4677
4.41896
4.35728
4.29195
4.23724
4.1865
4.13394
4.07675
4.01285
3.94382
3.87848
3.82247
3.77162
3.72072
3.66618
3.60622
3.54439
3.48902
3.44236
3.39908
3.35321
3.29957
3.23412
3.164
3.10447
3.0651
3.04164
3.03878
3.05822
3.12246
3.29437
3.46095
3.5892
3.66442
3.70996
3.70008
3.63456
3.56125
3.59665
3.76197
4.04816
4.29597
4.45019
4.44178
4.40253
4.33324
4.28406
4.27184
5.50615
4.9208
4.40011
3.92638
3.4573
3.0415
2.78968
2.63708
2.56612
2.54091
2.67194
2.69806
2.56788
2.55334
2.53836
2.47599
2.43119
2.46597
2.67696
3.77992
5.16
5.72311
5.7769
5.66606
5.47623
5.38262
5.35987
5.38238
5.37543
5.3264
5.25345
5.17419
5.13537
5.11508
5.1206
5.09435
5.04694
4.97751
4.90965
4.87012
4.84269
4.81835
4.77498
4.71985
4.6503
4.57793
4.52522
4.48386
4.44148
4.39234
4.33338
4.26934
4.21135
4.15908
4.10702
4.05135
3.98973
3.9228
3.85818
3.80254
3.75263
3.70346
3.65121
3.59293
3.52929
3.46881
3.41936
3.37679
3.33415
3.28547
3.22623
3.1552
3.08479
3.05552
3.05444
3.0949
3.18513
3.36354
3.60217
3.68968
3.7095
3.69461
3.69131
3.69457
3.6652
3.60708
3.57256
3.60606
3.74534
4.00922
4.25476
4.38571
4.4197
4.38985
4.33479
4.27833
5.58787
5.05257
4.56826
4.13254
3.73613
3.4015
3.28472
3.31149
3.26106
3.24315
3.29776
3.21654
3.00189
2.85585
2.86261
2.81047
2.77089
2.68949
2.67253
2.83619
3.80108
5.11858
5.71832
5.77045
5.63608
5.45848
5.39714
5.38917
5.38461
5.33892
5.27971
5.19893
5.14878
5.11697
5.10246
5.07299
5.02854
4.96871
4.89722
4.85129
4.81747
4.78497
4.73917
4.68593
4.6206
4.54879
4.4974
4.45509
4.40963
4.35925
4.30222
4.2391
4.17862
4.12548
4.07443
4.02078
3.9622
3.89832
3.83426
3.7777
3.72832
3.6816
3.63319
3.57922
3.51675
3.45008
3.39133
3.34448
3.30308
3.2613
3.21296
3.15412
3.09169
3.07767
3.10413
3.2165
3.39008
3.64462
3.82
3.83506
3.79851
3.72509
3.68799
3.6704
3.66872
3.64418
3.60175
3.58585
3.60725
3.71886
3.9654
4.19251
4.32934
4.39952
4.3821
4.31525
5.64732
5.15558
4.73044
4.40565
4.16344
4.02842
4.08857
4.08956
3.8738
3.7526
3.71837
3.60268
3.40505
3.20434
3.17614
3.15252
3.08417
2.99946
2.8449
2.84697
2.97854
3.80223
5.03557
5.65881
5.70856
5.56881
5.45825
5.4103
5.39072
5.3467
5.29809
5.22459
5.16035
5.11883
5.08638
5.05183
5.00951
4.95804
4.88984
4.83701
4.79696
4.75384
4.70357
4.64951
4.58688
4.523
4.47551
4.43087
4.38197
4.32845
4.26872
4.20296
4.14099
4.08886
4.04028
3.99011
3.9355
3.87422
3.80862
3.74824
3.69792
3.65368
3.60994
3.56226
3.5057
3.43849
3.36842
3.30968
3.26647
3.22962
3.19463
3.16146
3.14087
3.16432
3.27328
3.45808
3.63739
3.82269
3.89556
3.89042
3.85161
3.778
3.70739
3.67335
3.65814
3.66021
3.63684
3.59936
3.58556
3.59607
3.68377
3.91061
4.13075
4.29849
4.37881
4.3398
5.70684
5.29319
5.01076
4.96513
4.92057
4.84553
4.87332
4.72552
4.38602
4.13745
4.04294
3.95811
3.79733
3.58297
3.48703
3.47322
3.40086
3.29816
3.13341
3.01793
3.01909
3.12817
3.78952
4.87556
5.53299
5.60277
5.52573
5.46414
5.41813
5.3611
5.30897
5.23694
5.16154
5.11249
5.07057
5.03188
4.99012
4.94108
4.87488
4.81937
4.77376
4.724
4.67119
4.61477
4.55013
4.49374
4.45128
4.40656
4.35649
4.30001
4.23494
4.16254
4.09688
4.04672
4.00281
3.95844
3.90954
3.8518
3.78439
3.71693
3.66164
3.61738
3.57649
3.5344
3.48576
3.42665
3.35614
3.28499
3.22766
3.19128
3.17787
3.19098
3.23986
3.37237
3.60644
3.74156
3.82878
3.88407
3.90961
3.9043
3.87161
3.8256
3.76032
3.69976
3.67136
3.65834
3.65578
3.62568
3.59002
3.57235
3.58624
3.65924
3.84934
4.07915
4.26762
4.31517
5.86697
5.67514
5.70787
5.84613
5.66862
5.45656
5.3469
5.13743
4.80874
4.50905
4.38092
4.32117
4.17818
3.95633
3.79337
3.7434
3.69291
3.59167
3.42521
3.29155
3.20299
3.17297
3.24143
3.71171
4.6619
5.35056
5.47863
5.51285
5.47896
5.40521
5.32662
5.23386
5.14865
5.09689
5.05389
5.01665
4.97448
4.92113
4.84764
4.78774
4.74072
4.69235
4.64301
4.58788
4.5188
4.45975
4.41762
4.37429
4.32666
4.27185
4.20589
4.12784
4.05362
4.00139
3.96083
3.92174
3.87915
3.82774
3.76355
3.69266
3.6303
3.58068
3.53754
3.49609
3.45156
3.40058
3.33953
3.27192
3.2093
3.18509
3.20361
3.29029
3.44298
3.69606
3.9115
3.94705
3.93725
3.91008
3.89633
3.89553
3.87579
3.8482
3.81015
3.75417
3.70368
3.67704
3.66178
3.6451
3.61034
3.57439
3.55532
3.57335
3.62885
3.78978
4.02232
4.20971
6.3151
6.45077
6.63545
6.57886
6.22711
5.90446
5.67165
5.47223
5.20641
4.90451
4.73402
4.65821
4.52948
4.31253
4.10258
4.00339
3.94958
3.86038
3.72156
3.54898
3.45888
3.3589
3.2915
3.32457
3.62687
4.40981
5.11413
5.37251
5.50695
5.47002
5.3732
5.23612
5.12757
5.07236
5.03402
5.00612
4.96406
4.90423
4.81466
4.73979
4.69417
4.65371
4.61274
4.56486
4.49781
4.42231
4.36893
4.32562
4.2815
4.232
4.17275
4.09903
4.01896
3.95678
3.91294
3.87465
3.83548
3.791
3.73611
3.67197
3.60854
3.55123
3.50004
3.45202
3.40563
3.35949
3.30881
3.26463
3.23233
3.24675
3.33999
3.52284
3.71762
3.95443
4.05079
4.04773
4.00742
3.9358
3.89956
3.87993
3.87125
3.85956
3.83521
3.801
3.7519
3.70509
3.67795
3.6583
3.63256
3.59659
3.56065
3.5425
3.55713
3.60097
3.72797
4.00174
7.25005
7.34072
7.28253
6.9601
6.57727
6.27282
6.01063
5.81786
5.60521
5.30811
5.07799
4.96502
4.85294
4.64751
4.41321
4.27967
4.20433
4.11268
3.98351
3.80812
3.68481
3.59918
3.48019
3.38982
3.37818
3.53443
4.14886
4.86277
5.27746
5.45439
5.40895
5.28161
5.12161
5.04695
5.0098
4.98824
4.94806
4.88705
4.78751
4.69115
4.64353
4.60945
4.57544
4.53347
4.47529
4.3923
4.318
4.26912
4.22548
4.17932
4.12811
4.06758
3.99586
3.92558
3.86971
3.82418
3.78256
3.74098
3.6951
3.6437
3.58825
3.52623
3.46405
3.40831
3.35958
3.31954
3.28773
3.28821
3.31987
3.42724
3.65089
3.82348
3.95499
4.05933
4.08709
4.07624
4.03962
3.98061
3.9212
3.8907
3.87368
3.86729
3.8516
3.82559
3.78954
3.73924
3.6972
3.67297
3.6506
3.62348
3.58781
3.55206
3.52781
3.52719
3.55117
3.74712
8.08902
7.94268
7.66317
7.23124
6.88144
6.63332
6.37181
6.13666
5.93924
5.68202
5.41378
5.25154
5.14522
4.95985
4.72131
4.55399
4.45798
4.35717
4.22419
4.05448
3.90024
3.80921
3.71004
3.57969
3.45237
3.44164
3.51377
3.93081
4.6039
5.13205
5.31972
5.29369
5.14913
5.06068
5.00638
4.96872
4.92118
4.86084
4.76612
4.6557
4.59779
4.5634
4.52935
4.48753
4.43696
4.36514
4.27476
4.20626
4.15824
4.11448
4.06945
4.02242
3.96716
3.90115
3.83527
3.77746
3.72599
3.67999
3.6416
3.60352
3.55681
3.49374
3.42892
3.36912
3.32251
3.29865
3.31497
3.38696
3.52458
3.77488
3.9996
4.04722
4.07806
4.08266
4.09015
4.08183
4.0538
4.01833
3.9633
3.91371
3.89069
3.87743
3.86534
3.84345
3.81555
3.77518
3.72531
3.69225
3.67041
3.64791
3.62029
3.58405
3.54396
3.50403
3.49603
3.56801
8.56149
8.28646
7.93746
7.51366
7.21391
7.00804
6.74838
6.45076
6.22488
6.02333
5.76495
5.55188
5.4242
5.25735
5.02446
4.83318
4.70783
4.59815
4.45776
4.29544
4.12324
4.00163
3.90895
3.79537
3.64874
3.50548
3.45602
3.48726
3.75641
4.33433
4.92073
5.11888
5.10506
5.08032
5.03207
4.97222
4.90325
4.83221
4.7448
4.6405
4.56412
4.52069
4.49173
4.4542
4.4026
4.33431
4.24569
4.16513
4.10279
4.05918
4.02267
3.98064
3.93105
3.86753
3.80504
3.74429
3.69059
3.64906
3.60912
3.56962
3.51451
3.45168
3.39944
3.34815
3.31848
3.33239
3.42706
3.61569
3.84697
4.115
4.18759
4.1745
4.12981
4.10064
4.09089
4.09073
4.07157
4.04281
3.99742
3.93825
3.90411
3.88673
3.87498
3.85852
3.83507
3.80139
3.75022
3.70549
3.67911
3.65937
3.63828
3.61206
3.57566
3.52146
3.47699
3.48007
8.89777
8.56683
8.20199
7.78317
7.51976
7.33857
7.08205
6.75654
6.50045
6.33328
6.11509
5.86112
5.68558
5.52639
5.30555
5.10488
4.95161
4.81865
4.67612
4.5123
4.35279
4.19603
4.07997
3.97633
3.85242
3.69418
3.55224
3.46033
3.47387
3.63008
4.0743
4.60847
4.9018
5.00883
5.02121
4.96636
4.88657
4.80734
4.72458
4.63716
4.56468
4.49981
4.43179
4.35835
4.30174
4.25768
4.2137
4.16124
4.10343
4.0271
3.93927
3.88318
3.85323
3.82996
3.79204
3.74188
3.67266
3.58205
3.51452
3.47108
3.44071
3.42168
3.39916
3.36658
3.37322
3.47001
3.70126
3.91513
4.11159
4.24332
4.25367
4.23724
4.17761
4.12888
4.1125
4.09819
4.0801
4.05272
4.01933
3.97305
3.93234
3.91534
3.90157
3.88188
3.85492
3.81933
3.77337
3.72414
3.69458
3.67963
3.66711
3.6448
3.61315
3.56092
3.495
3.46024
9.10148
8.81866
8.46776
8.0913
7.86048
7.67931
7.39954
7.0494
6.77765
6.62035
6.4356
6.17537
5.93697
5.76937
5.57143
5.37396
5.20314
5.03882
4.88113
4.71588
4.55711
4.41021
4.25986
4.13732
4.02228
3.8806
3.7274
3.58642
3.4715
3.46542
3.52389
3.82823
4.29314
4.72869
4.91667
4.87651
4.78217
4.72276
4.68161
4.6442
4.58754
4.50886
4.39958
4.28307
4.20527
4.16079
4.12885
4.09828
4.05354
3.98156
3.88684
3.8225
3.78501
3.75235
3.71739
3.67671
3.61716
3.5335
3.45568
3.39823
3.37204
3.3763
3.38994
3.44419
3.58466
3.84623
4.0506
4.1447
4.22641
4.28286
4.29281
4.27204
4.22319
4.15495
4.10199
4.07992
4.07323
4.06611
4.04587
4.02012
3.98096
3.92633
3.88911
3.86817
3.84589
3.82143
3.79534
3.76863
3.73345
3.68722
3.6527
3.62973
3.60423
3.57565
3.53201
3.47773
9.3697
9.11138
8.72953
8.36873
8.15364
7.97471
7.68048
7.33856
7.07701
6.909
6.72009
6.45871
6.17456
5.98063
5.80596
5.61771
5.4446
5.26
5.07361
4.89808
4.7358
4.59286
4.44979
4.29886
4.16522
4.04378
3.90505
3.76348
3.60996
3.49264
3.43765
3.46205
3.63747
4.01128
4.5091
4.74391
4.71021
4.68578
4.64225
4.58533
4.52478
4.455
4.35586
4.23587
4.15959
4.11795
4.08093
4.03737
3.98516
3.91543
3.83726
3.77946
3.73986
3.70411
3.66765
3.62046
3.55642
3.48169
3.40381
3.36691
3.36966
3.39078
3.48887
3.68912
3.95967
4.21168
4.26351
4.27185
4.28157
4.28797
4.2929
4.27277
4.24123
4.18903
4.12659
4.09619
4.08459
4.08699
4.07768
4.05361
4.01698
3.95627
3.89577
3.86583
3.85254
3.84628
3.83117
3.80851
3.77318
3.71452
3.65239
3.61673
3.59762
3.58358
3.57098
3.52586
9.53836
9.26766
8.96653
8.66966
8.43713
8.23873
7.9368
7.59377
7.3509
7.19719
7.00225
6.73137
6.43763
6.23951
6.06628
5.88365
5.71087
5.51993
5.28754
5.06596
4.87776
4.73044
4.61078
4.47703
4.32373
4.17036
4.02378
3.88001
3.74035
3.60349
3.49905
3.43588
3.38727
3.4633
3.75665
4.22261
4.49961
4.60119
4.60683
4.53875
4.45963
4.38626
4.29904
4.20279
4.13061
4.07649
4.0261
3.97454
3.91871
3.85691
3.79736
3.74458
3.69389
3.64409
3.59663
3.5445
3.48798
3.43451
3.39179
3.38282
3.40688
3.52605
3.76806
4.00585
4.24069
4.35909
4.36987
4.34629
4.29592
4.26938
4.25645
4.25035
4.2407
4.22029
4.18146
4.1326
4.10052
4.0825
4.0692
4.05025
4.02392
3.98859
3.93918
3.89079
3.86152
3.84281
3.82544
3.80328
3.77231
3.72848
3.67615
3.63268
3.60707
3.58808
3.57003
3.52631
9.69007
9.43324
9.15485
8.87379
8.63976
8.43246
8.16598
7.8451
7.59224
7.41971
7.2084
6.92987
6.63
6.43185
6.27867
6.0858
5.86821
5.64944
5.46789
5.29093
5.1236
4.95901
4.79286
4.64562
4.49794
4.33789
4.19276
4.06764
3.95216
3.82352
3.68108
3.51866
3.37731
3.32154
3.36433
3.57776
3.93868
4.24868
4.4846
4.47433
4.40983
4.32944
4.23971
4.15742
4.09402
4.03351
3.96831
3.90172
3.84239
3.79486
3.75318
3.71019
3.65561
3.58317
3.50405
3.44454
3.41109
3.40455
3.41928
3.47298
3.61948
3.8934
4.10674
4.23032
4.36786
4.42976
4.42425
4.3834
4.30765
4.25025
4.23235
4.22592
4.23316
4.23066
4.2144
4.1814
4.13264
4.09458
4.06924
4.04615
4.02269
3.99756
3.96865
3.92959
3.88829
3.85672
3.8307
3.80364
3.77358
3.73974
3.70087
3.66051
3.6279
3.60192
3.58214
3.53929
9.72339
9.51828
9.28425
9.05146
8.83565
8.60257
8.31828
8.02121
7.78259
7.60519
7.40221
7.12467
6.83092
6.629
6.46739
6.26513
6.03824
5.79727
5.57412
5.39301
5.23716
5.08209
4.91276
4.7286
4.54211
4.37375
4.23252
4.11267
3.99805
3.87225
3.72233
3.57133
3.4327
3.33546
3.26653
3.28522
3.41375
3.68108
4.06491
4.32197
4.33044
4.27579
4.20457
4.13103
4.06817
4.0012
3.91649
3.82245
3.76755
3.73167
3.70246
3.66648
3.61298
3.52727
3.42386
3.38141
3.37344
3.41698
3.53087
3.74031
4.04529
4.26781
4.31912
4.36356
4.39389
4.41685
4.40693
4.38191
4.33764
4.27397
4.24207
4.23003
4.22631
4.22665
4.21608
4.19862
4.16245
4.11706
4.08396
4.05803
4.03345
4.00904
3.98281
3.94973
3.90766
3.86731
3.83598
3.80855
3.78085
3.75142
3.7188
3.68263
3.64694
3.61461
3.59119
3.54746
9.82187
9.60722
9.39105
9.17493
8.95424
8.70936
8.43997
8.18471
7.97393
7.78871
7.5457
7.24796
6.97909
6.78213
6.61463
6.40816
6.1649
5.92465
5.71674
5.53771
5.37349
5.20722
5.02922
4.83758
4.64498
4.47614
4.33539
4.21107
4.08812
3.95642
3.80642
3.65512
3.51194
3.39578
3.29328
3.21692
3.19173
3.25565
3.47498
3.86667
4.08844
4.16465
4.17192
4.12334
4.05408
3.97261
3.86966
3.75552
3.6889
3.6544
3.63369
3.60191
3.55263
3.48105
3.40137
3.37782
3.40313
3.50206
3.78537
4.10358
4.37784
4.45516
4.42381
4.39144
4.36952
4.37107
4.3791
4.3728
4.3518
4.30403
4.2606
4.24327
4.23314
4.228
4.2184
4.20326
4.17478
4.13235
4.09544
4.0687
4.04532
4.02214
3.99718
3.96662
3.92654
3.88157
3.84337
3.81479
3.78977
3.76428
3.7359
3.7025
3.66515
3.62757
3.59864
3.55268
9.84055
9.64724
9.461
9.2611
9.04152
8.80168
8.55639
8.32753
8.11686
7.89584
7.62924
7.35365
7.11851
6.93665
6.75686
6.53016
6.26607
6.02562
5.83447
5.65517
5.48109
5.30408
5.11723
4.92161
4.73433
4.5699
4.42397
4.28772
4.15344
4.01484
3.86899
3.72313
3.58577
3.45997
3.34764
3.23819
3.15933
3.09468
3.11796
3.29988
3.64086
3.88501
4.06497
4.08987
4.02981
3.94059
3.82988
3.72254
3.64227
3.59166
3.55991
3.5238
3.47809
3.43332
3.40646
3.4113
3.50778
3.82736
4.14386
4.37363
4.50288
4.49871
4.4596
4.40652
4.3807
4.36983
4.3638
4.35568
4.33701
4.30784
4.27831
4.25991
4.24742
4.23564
4.22149
4.20011
4.16933
4.13443
4.10358
4.07847
4.05681
4.03431
4.00728
3.97315
3.93254
3.8905
3.85247
3.82115
3.79573
3.77109
3.74267
3.70943
3.67445
3.64222
3.61661
3.56815
9.87746
9.68505
9.49533
9.29376
9.0804
8.85801
8.63944
8.42901
8.21278
7.97063
7.70612
7.45717
7.24859
7.07114
6.85713
6.60614
6.34084
6.12594
5.94164
5.75722
5.57577
5.38874
5.18937
4.99182
4.8144
4.65597
4.5069
4.36131
4.2147
4.06605
3.91863
3.7792
3.64956
3.52591
3.4061
3.28688
3.17539
3.07643
3.00805
3.01903
3.15398
3.44019
3.76072
3.9429
3.93546
3.88776
3.80667
3.72232
3.6394
3.56482
3.49201
3.43619
3.4023
3.40224
3.43014
3.58611
3.9467
4.274
4.39656
4.47329
4.49505
4.48497
4.46731
4.44453
4.40796
4.37065
4.34719
4.33387
4.32784
4.32193
4.31082
4.29306
4.26769
4.24091
4.2155
4.1897
4.16755
4.14869
4.12735
4.09994
4.06872
4.03692
4.00291
3.96821
3.93649
3.90918
3.88154
3.84848
3.81172
3.77721
3.74485
3.71492
3.68867
3.66372
3.63769
3.57643
9.8935
9.71378
9.5271
9.32768
9.12038
8.91138
8.70552
8.49496
8.26814
8.02138
7.77342
7.54603
7.34986
7.15559
6.91771
6.65684
6.41533
6.22298
6.04325
5.85455
5.65808
5.4471
5.23663
5.04987
4.88461
4.73053
4.57956
4.42556
4.26392
4.10156
3.95282
3.8217
3.70221
3.58555
3.46668
3.33952
3.2079
3.08649
2.98823
2.94322
2.935
3.03055
3.28985
3.60132
3.74432
3.77601
3.75256
3.69894
3.63299
3.55238
3.44612
3.37287
3.37258
3.41788
3.6268
4.00226
4.39365
4.51048
4.48403
4.47278
4.45568
4.4622
4.46705
4.45265
4.42429
4.37597
4.347
4.33684
4.33487
4.33853
4.32884
4.31027
4.27602
4.23418
4.20664
4.18926
4.17368
4.15685
4.13584
4.10362
4.06156
4.02635
3.9994
3.97557
3.95344
3.93082
3.9033
3.86387
3.81616
3.77728
3.74886
3.72422
3.69969
3.6719
3.63844
3.56507
9.93337
9.75342
9.56578
9.36868
9.16607
8.96228
8.75514
8.53759
8.30753
8.07061
7.84013
7.62691
7.42735
7.20321
6.94911
6.69431
6.48752
6.31187
6.12824
5.92771
5.70983
5.48365
5.28018
5.10498
4.94618
4.79379
4.63996
4.4767
4.30156
4.13049
3.98177
3.85655
3.7442
3.6343
3.51846
3.38786
3.24284
3.10727
2.99658
2.92087
2.88257
2.86366
2.91721
3.11898
3.40586
3.55363
3.64268
3.63969
3.59028
3.51616
3.4348
3.38199
3.4163
3.63881
4.01175
4.39784
4.56775
4.57731
4.51384
4.46252
4.44667
4.45096
4.46069
4.44992
4.42788
4.38693
4.36023
4.34896
4.34218
4.33746
4.32438
4.30364
4.26887
4.23208
4.2063
4.18781
4.17038
4.15133
4.12814
4.09705
4.06162
4.03193
4.00901
3.98797
3.96596
3.94052
3.90685
3.86374
3.81969
3.78324
3.75359
3.72667
3.69909
3.66568
3.62595
3.55855
9.93493
9.76178
9.57825
9.38753
9.19128
8.98951
8.77761
8.55485
8.32657
8.10249
7.89034
7.69035
7.47744
7.2216
6.96235
6.73853
6.5463
6.37328
6.17968
5.96982
5.74436
5.52211
5.32815
5.15783
4.99801
4.84164
4.6808
4.50933
4.33038
4.16136
4.01467
3.8887
3.7752
3.66532
3.54977
3.42122
3.27792
3.1414
3.02108
2.92451
2.86103
2.81186
2.77888
2.7981
2.95606
3.21855
3.4242
3.5444
3.52773
3.48661
3.44046
3.48736
3.7009
4.0408
4.38036
4.55551
4.57346
4.54922
4.49344
4.45573
4.44557
4.45259
4.45537
4.44529
4.42538
4.39595
4.3742
4.36042
4.34827
4.33597
4.32028
4.29743
4.26807
4.23957
4.21526
4.19206
4.17062
4.14964
4.12557
4.09789
4.0698
4.04422
4.01984
3.99619
3.9704
3.93964
3.90362
3.86512
3.82738
3.79288
3.76051
3.72876
3.69589
3.65722
3.61783
3.55958
9.94836
9.7845
9.60605
9.42053
9.22694
9.02464
8.81331
8.5954
8.37486
8.15655
7.94133
7.72485
7.49823
7.25755
7.02083
6.80188
6.6035
6.4074
6.19977
5.98492
5.76663
5.56151
5.37815
5.20541
5.03701
4.87012
4.69918
4.52319
4.35269
4.1974
4.05563
3.92269
3.79721
3.67839
3.55495
3.42883
3.305
3.18744
3.07408
2.96232
2.86356
2.78095
2.71064
2.66041
2.68458
2.82146
3.0547
3.32691
3.42427
3.45152
3.56605
3.81139
4.16396
4.42969
4.56697
4.58243
4.54652
4.50431
4.48021
4.47129
4.46847
4.45996
4.44903
4.43244
4.41301
4.40114
4.38981
4.37392
4.35531
4.33782
4.3164
4.29171
4.26874
4.24871
4.22738
4.20293
4.17716
4.15274
4.12824
4.10275
4.0792
4.05542
4.02817
3.99858
3.96754
3.9343
3.90073
3.86865
3.83785
3.80569
3.77041
3.73265
3.69298
3.65149
3.61855
3.56959
9.95151
9.79172
9.61498
9.43187
9.23941
9.03834
8.83012
8.6176
8.4029
8.18673
7.96667
7.73685
7.49523
7.2623
7.04961
6.85352
6.64308
6.42237
6.20154
5.98609
5.78224
5.59673
5.42046
5.24575
5.06683
4.88059
4.69479
4.52184
4.36755
4.22936
4.0964
3.96153
3.81994
3.67416
3.53724
3.41759
3.31368
3.21921
3.12287
3.01594
2.89699
2.7772
2.67445
2.59778
2.56478
2.59327
2.71857
2.97183
3.25841
3.5231
3.88248
4.22344
4.51605
4.60124
4.58675
4.54025
4.50067
4.48318
4.48981
4.49586
4.48546
4.46446
4.43219
4.41337
4.40791
4.40569
4.40382
4.39126
4.3691
4.33519
4.30554
4.28712
4.27206
4.25702
4.24014
4.21781
4.18728
4.15487
4.13104
4.11198
4.09221
4.06854
4.03815
4.00004
3.96305
3.93132
3.90205
3.87445
3.84657
3.81618
3.78002
3.73686
3.69219
3.65187
3.62704
3.58276
9.95548
9.79868
9.62203
9.43932
9.24711
9.04794
8.84344
8.63479
8.42141
8.20113
7.97303
7.74023
7.51338
7.29562
7.08839
6.88421
6.65903
6.43112
6.20051
5.98619
5.80145
5.62504
5.45172
5.27477
5.08311
4.87599
4.67839
4.51647
4.38221
4.25877
4.13374
3.99423
3.8277
3.65196
3.50714
3.40518
3.32448
3.24839
3.16319
3.04953
2.89523
2.74415
2.63879
2.5687
2.51715
2.49647
2.5352
2.66947
3.03435
3.61319
4.12771
4.55556
4.82803
4.80437
4.66592
4.5256
4.48321
4.47265
4.4849
4.49138
4.48101
4.45563
4.41762
4.40637
4.40558
4.41852
4.41875
4.40308
4.37313
4.32796
4.29977
4.28414
4.27399
4.26429
4.24936
4.22755
4.19157
4.15599
4.13112
4.10927
4.08755
4.06457
4.03531
3.99518
3.95655
3.92929
3.90581
3.8819
3.85582
3.82598
3.7875
3.73811
3.69192
3.65953
3.63599
3.58743
)
;

boundaryField
{
    inlet
    {
        type            fixedValue;
        value           uniform 1;
    }
    outlet
    {
        type            zeroGradient;
    }
    bottom
    {
        type            symmetryPlane;
    }
    top
    {
        type            symmetryPlane;
    }
    obstacle
    {
        type            zeroGradient;
    }
    defaultFaces
    {
        type            empty;
    }
}


// ************************************************************************* //
