/*--------------------------------*- C++ -*----------------------------------*\
  =========                 |
  \\      /  F ield         | OpenFOAM: The Open Source CFD Toolbox
   \\    /   O peration     | Website:  https://openfoam.org
    \\  /    A nd           | Version:  7
     \\/     M anipulation  |
\*---------------------------------------------------------------------------*/
FoamFile
{
    version     2.0;
    format      ascii;
    class       volScalarField;
    location    "10";
    object      rho;
}
// * * * * * * * * * * * * * * * * * * * * * * * * * * * * * * * * * * * * * //

dimensions      [1 -3 0 0 0 0 0];

internalField   nonuniform List<scalar> 
4032
(
1.40001
1.40001
1.40001
1.40001
1.40001
1.40001
1.40001
1.40001
1.40001
1.40001
1.40001
1.585
4.40095
5.46771
5.51467
5.5902
5.65726
5.72102
5.7794
5.8317
5.87805
5.91528
5.94379
5.9649
1.40001
1.40001
1.40001
1.40001
1.40001
1.40001
1.40001
1.40001
1.40001
1.40001
1.40001
1.56186
4.33106
5.45262
5.50938
5.58338
5.64911
5.71114
5.76766
5.81761
5.86123
5.89577
5.92118
5.94122
1.40001
1.40001
1.40001
1.40001
1.40001
1.40001
1.40001
1.40001
1.40001
1.40001
1.40001
1.50631
4.22195
5.44343
5.49439
5.56746
5.63314
5.69457
5.75011
5.79831
5.83937
5.87092
5.89148
5.90851
1.40001
1.40001
1.40001
1.40001
1.40001
1.40001
1.40001
1.40001
1.40001
1.40001
1.40001
1.41238
4.04153
5.43223
5.47671
5.54255
5.60418
5.66142
5.71381
5.75996
5.79999
5.83039
5.84783
5.86124
1.40001
1.40001
1.40001
1.40001
1.40001
1.40001
1.40001
1.40001
1.40001
1.40001
1.40001
1.40018
3.76527
5.37212
5.42951
5.49307
5.55553
5.61208
5.66236
5.7037
5.73614
5.76059
5.774
5.79249
1.40001
1.40001
1.40001
1.40001
1.40001
1.40001
1.40001
1.40001
1.40001
1.40001
1.40001
1.4
3.40703
5.28842
5.39019
5.44868
5.50768
5.55704
5.5992
5.63393
5.66204
5.68544
5.69462
5.68561
1.40001
1.40001
1.40001
1.40001
1.40001
1.40001
1.40001
1.40001
1.40001
1.40001
1.40001
1.4
2.98598
5.17062
5.36106
5.41102
5.45829
5.49398
5.52125
5.54103
5.54804
5.53619
5.51724
5.50887
1.40001
1.40001
1.40001
1.40001
1.40001
1.40001
1.40001
1.40001
1.40001
1.40001
1.40001
1.40001
2.5116
5.01109
5.36895
5.39366
5.4212
5.43842
5.44404
5.44161
5.42287
5.39231
5.33558
5.30625
1.40001
1.40001
1.40001
1.40001
1.40001
1.40001
1.40001
1.40001
1.40001
1.40001
1.40001
1.40001
1.99151
4.77084
5.40036
5.37705
5.3877
5.38568
5.36959
5.34
5.27995
5.17566
4.86098
4.005
1.40001
1.40001
1.40001
1.40001
1.40001
1.40001
1.40001
1.40001
1.40001
1.40001
1.40001
1.40001
1.50033
4.35452
5.4258
5.36784
5.34454
5.31626
5.27713
5.21745
5.11595
4.92686
4.59784
3.70705
1.40001
1.40001
1.40001
1.40001
1.40001
1.40001
1.40001
1.40001
1.40001
1.40001
1.40001
1.40001
1.40131
3.6427
5.18574
5.24221
5.25368
5.22591
5.17713
5.09308
4.96235
4.72919
4.38683
3.56272
1.40001
1.40001
1.40001
1.40001
1.40001
1.40001
1.40001
1.40001
1.40001
1.40001
1.40001
1.40001
1.39998
2.82429
4.99667
5.20136
5.19971
5.16654
5.10467
4.99699
4.83787
4.5933
4.21584
3.54537
1.40001
1.40001
1.40001
1.40001
1.40001
1.40001
1.40001
1.40001
1.40001
1.40001
1.40001
1.40001
1.4
2.00187
4.73518
5.2063
5.1571
5.09972
5.0231
4.90302
4.72863
4.48561
4.10254
3.57184
1.40001
1.40001
1.40001
1.40001
1.40001
1.40001
1.40001
1.40001
1.40001
1.40001
1.40001
1.40001
1.4
1.47829
4.01081
5.10715
5.07886
5.02586
4.94411
4.82095
4.6492
4.40421
4.04732
3.62564
1.40001
1.40001
1.40001
1.40001
1.40001
1.40001
1.40001
1.40001
1.40001
1.40001
1.40001
1.40001
1.4
1.40039
2.93855
4.94124
5.04109
4.98869
4.89873
4.75836
4.58676
4.33779
4.02321
3.67262
1.40001
1.40001
1.40001
1.40001
1.40001
1.40001
1.40001
1.40001
1.40001
1.40001
1.40001
1.40001
1.40001
1.4
1.83034
4.68934
5.10061
4.97006
4.85044
4.70297
4.51645
4.29185
4.02152
3.72204
1.40001
1.40001
1.40001
1.40001
1.40001
1.40001
1.40001
1.40001
1.40001
1.40001
1.40001
1.40001
1.40001
1.4
1.42822
3.76686
4.95898
4.86973
4.77718
4.641
4.46739
4.26166
4.0216
3.75718
1.40001
1.40001
1.40001
1.40001
1.40001
1.40001
1.40001
1.40001
1.40001
1.40001
1.40001
1.40001
1.40001
1.4
1.39995
2.47391
4.76295
4.84611
4.77308
4.64241
4.47014
4.26485
4.03264
3.79005
1.40001
1.40001
1.40001
1.40001
1.40001
1.40001
1.40001
1.40001
1.40001
1.40001
1.40001
1.40001
1.40001
1.40001
1.39999
1.57801
4.02216
4.86157
4.77016
4.63222
4.46211
4.26592
4.04755
3.81897
1.40001
1.40001
1.40001
1.40001
1.40001
1.40001
1.40001
1.40001
1.40001
1.40001
1.40001
1.40001
1.40001
1.40001
1.4
1.40339
2.71683
4.67606
4.74193
4.61114
4.45463
4.26949
4.06286
3.84987
1.40001
1.40001
1.40001
1.40001
1.40001
1.40001
1.40001
1.40001
1.40001
1.40001
1.40001
1.40001
1.40001
1.40001
1.4
1.4
1.65969
4.03472
4.7742
4.62602
4.46823
4.27956
4.0786
3.88842
1.40001
1.40001
1.40001
1.40001
1.40001
1.40001
1.40001
1.40001
1.40001
1.40001
1.40001
1.40001
1.40001
1.40001
1.40001
1.4
1.40795
2.68398
4.58873
4.62018
4.46029
4.2735
4.10206
3.96618
1.40001
1.40001
1.40001
1.40001
1.40001
1.40001
1.40001
1.40001
1.40001
1.40001
1.40001
1.40001
1.40001
1.40001
1.40001
1.40001
1.40003
1.63999
3.84959
4.68551
4.46379
4.29924
4.20557
4.29262
1.40001
1.40001
1.40001
1.40001
1.40001
1.40001
1.40001
1.40001
1.40001
1.40001
1.40001
1.40001
1.40001
1.40001
1.40001
1.40001
1.40001
1.40699
2.39283
4.42493
4.42046
4.3894
4.55427
4.77942
1.40001
1.40001
1.40001
1.40001
1.40001
1.40001
1.40001
1.40001
1.40001
1.40001
1.40001
1.40001
1.40001
1.40001
1.40001
1.40001
1.40001
1.40004
1.53499
3.40507
4.40564
4.89837
5.1885
5.22008
1.40001
1.40001
1.40001
1.40001
1.40001
1.40001
1.40001
1.40001
1.40001
1.40001
1.40001
1.40001
1.40001
1.40001
1.40001
1.40001
1.40001
1.40001
1.40274
1.98767
4.17503
5.62282
5.63212
5.49693
1.40001
1.40001
1.40001
1.40001
1.40001
1.40001
1.40001
1.40001
1.40001
1.40001
1.40001
1.40001
1.40001
1.40001
1.40001
1.40001
1.40001
1.40001
1.40002
1.44327
3.67686
5.95752
5.81591
5.58315
1.40001
1.40001
1.40001
1.40001
1.40001
1.40001
1.40001
1.40001
1.40001
1.40001
1.40001
1.40001
1.40001
1.40001
1.40001
1.40001
1.40001
1.40001
1.40001
1.40046
3.07646
5.68058
5.67014
5.52916
1.40001
1.40001
1.40001
1.40001
1.40001
1.40001
1.40001
1.40001
1.40001
1.40001
1.40001
1.40001
1.40001
1.40001
1.40001
1.40001
1.40001
1.40001
1.40001
1.40001
2.75234
5.3002
5.47463
5.38962
1.40001
1.40001
1.40001
1.40001
1.40001
1.40001
1.40001
1.40001
1.40001
1.40001
1.40001
1.40001
1.40001
1.40001
1.40001
1.40001
1.40001
1.40001
1.40001
1.40001
2.46364
4.98077
5.38789
5.29944
1.40001
1.40001
1.40001
1.40001
1.40001
1.40001
1.40001
1.40001
1.40001
1.40001
1.40001
1.40001
1.40001
1.40001
1.40001
1.40001
1.40001
1.40001
1.40001
1.40001
2.18595
4.83238
5.35686
5.24358
1.40001
1.40001
1.40001
1.40001
1.40001
1.40001
1.40001
1.40001
1.40001
1.40001
1.40001
1.40001
1.40001
1.40001
1.40001
1.40001
1.40001
1.40001
1.40001
1.40001
1.90044
4.73828
5.42934
5.29649
1.40001
1.40001
1.40001
1.40001
1.40001
1.40001
1.40001
1.40001
1.40001
1.40001
1.40001
1.40001
1.40001
1.40001
1.40001
1.40001
1.40001
1.40001
1.40001
1.40001
1.64826
4.58255
5.46167
5.31976
1.40001
1.40001
1.40001
1.40001
1.40001
1.40001
1.40001
1.40001
1.40001
1.40001
1.40001
1.40001
1.40001
1.40001
1.40001
1.40001
1.40001
1.40001
1.40001
1.40001
1.51088
4.38722
5.46179
5.33092
1.40001
1.40001
1.40001
1.40001
1.40001
1.40001
1.40001
1.40001
1.40001
1.40001
1.40001
1.40001
1.40001
1.40001
1.40001
1.40001
1.40001
1.40001
1.40001
1.40001
1.44759
4.21273
5.4225
5.31454
1.40001
1.40001
1.40001
1.40001
1.40001
1.40001
1.40001
1.40001
1.40001
1.40001
1.40001
1.40001
1.40001
1.40001
1.40001
1.40001
1.40001
1.40001
1.40001
1.40001
1.40285
4.07363
5.4032
5.32078
1.40001
1.40001
1.40001
1.40001
1.40001
1.40001
1.40001
1.40001
1.40001
1.40001
1.40001
1.40001
1.40001
1.40001
1.40001
1.40001
1.40001
1.40001
1.40001
1.40001
1.40004
3.9423
5.38711
5.32458
1.40001
1.40001
1.40001
1.40001
1.40001
1.40001
1.40001
1.40001
1.40001
1.40001
1.40001
1.40001
1.40001
1.40001
1.40001
1.40001
1.40001
1.40001
1.40001
1.40001
1.40001
3.82897
5.38832
5.33887
1.40001
1.40001
1.40001
1.40001
1.40001
1.40001
1.40001
1.40001
1.40001
1.40001
1.40001
1.40001
1.40001
1.40001
1.40001
1.40001
1.40001
1.40001
1.40001
1.40001
1.40001
3.74873
5.38903
5.35017
1.40001
1.40001
1.40001
1.40001
1.40001
1.40001
1.40001
1.40001
1.40001
1.40001
1.40001
1.40001
1.40001
1.40001
1.40001
1.40001
1.40001
1.40001
1.40001
1.40001
1.40001
3.70974
5.3823
5.35508
1.31635
0.486719
0.253548
0.233
0.24295
0.268824
0.344401
0.47293
0.635301
0.772053
0.809279
0.821529
0.84014
0.966935
2.07523
2.50453
2.5153
2.4922
2.52767
2.57927
2.6081
2.60998
2.61216
2.62013
2.6395
2.65492
2.66089
2.66439
2.66918
2.67103
2.6641
2.65201
2.64307
2.64167
2.64661
2.64818
2.6344
2.61063
2.59098
2.58152
2.58022
2.58047
2.57211
2.55263
2.52909
2.50826
2.49325
2.4819
2.46947
2.45252
2.43158
2.4094
2.38807
2.3681
2.34789
2.32542
2.30158
2.27853
2.25822
2.24113
2.22158
2.19596
2.16952
2.14389
2.12008
2.09866
2.08131
2.06501
2.04357
2.02103
1.99835
1.97695
1.95645
1.93619
1.91581
1.89483
1.87322
1.85098
1.82743
1.80418
1.78193
1.77426
1.79519
1.98456
2.49461
2.57729
2.53097
2.50904
2.50268
2.49325
2.47945
2.46323
2.44932
2.44251
2.44341
2.45628
2.01429
1.20347
0.837953
0.717295
0.63412
0.551284
0.526208
0.540206
0.574588
0.618974
0.654499
0.706064
0.759873
0.842692
1.92599
2.49346
2.52058
2.52074
2.56184
2.6046
2.62303
2.62662
2.63381
2.64538
2.65817
2.66234
2.66188
2.66439
2.67386
2.68455
2.68446
2.66936
2.64978
2.63773
2.63956
2.64794
2.65029
2.636
2.61133
2.58995
2.57747
2.57357
2.57141
2.56357
2.54782
2.52682
2.50539
2.48696
2.47193
2.4579
2.44063
2.41938
2.39745
2.37733
2.35897
2.33803
2.3119
2.28497
2.26048
2.24032
2.22349
2.20367
2.17948
2.15419
2.12912
2.10636
2.0869
2.07072
2.05244
2.03076
2.0076
1.98256
1.95751
1.93567
1.91646
1.8973
1.87723
1.85608
1.83354
1.81138
1.79747
1.80022
1.83712
2.01276
2.49507
2.58671
2.53559
2.50612
2.49254
2.48783
2.48801
2.48376
2.47287
2.45767
2.44799
2.44968
2.49967
1.83019
1.36041
1.1216
0.995012
0.853528
0.707412
0.657105
0.666773
0.67049
0.684779
0.724505
0.789542
0.825583
1.58546
2.47651
2.58019
2.60655
2.64887
2.66172
2.65315
2.65191
2.66867
2.69778
2.71798
2.71531
2.70247
2.69241
2.6961
2.7126
2.72964
2.73588
2.72383
2.7026
2.68582
2.67975
2.68375
2.68846
2.68164
2.66121
2.63875
2.6197
2.6066
2.59946
2.59387
2.58464
2.56781
2.54587
2.52441
2.50602
2.48903
2.46867
2.44442
2.41999
2.39781
2.37816
2.35661
2.33038
2.30214
2.27524
2.25136
2.22915
2.20738
2.18495
2.16212
2.13869
2.11662
2.0964
2.07775
2.05896
2.0388
2.01618
1.98914
1.9593
1.93202
1.90983
1.8897
1.86976
1.85092
1.83536
1.83122
1.84973
1.90998
2.0452
2.44797
2.6085
2.59079
2.55705
2.52489
2.50389
2.49986
2.5062
2.51339
2.50998
2.49719
2.4748
2.83581
2.29531
1.83038
1.50001
1.33762
1.21072
1.05599
0.895706
0.855996
0.843946
0.820655
0.785791
0.78946
0.794028
1.08144
2.38095
2.7325
2.73383
2.77166
2.79117
2.77177
2.75305
2.75321
2.77157
2.79701
2.81102
2.80476
2.79065
2.78099
2.77831
2.78526
2.80154
2.81702
2.8132
2.79409
2.77431
2.76008
2.75373
2.75474
2.75077
2.73405
2.71279
2.69322
2.6771
2.66485
2.6561
2.64569
2.62742
2.60444
2.58247
2.5638
2.54615
2.52321
2.49586
2.46691
2.44044
2.41547
2.38993
2.36457
2.33872
2.31151
2.28442
2.25901
2.23546
2.21327
2.19153
2.16923
2.14584
2.12288
2.10161
2.08137
2.06076
2.03794
2.01075
1.97984
1.95004
1.92549
1.90675
1.89394
1.89032
1.90072
1.94836
2.03447
2.11847
2.35511
2.60119
2.64841
2.63127
2.60546
2.57499
2.5548
2.54917
2.55146
2.56006
2.56026
2.54815
3.03515
2.6067
2.22132
1.85653
1.61517
1.48256
1.35696
1.22211
1.0606
0.967657
0.934271
0.897344
0.878241
0.897194
0.954111
1.82327
2.87119
2.96693
2.93178
2.91398
2.91653
2.91713
2.91165
2.90753
2.91197
2.9269
2.94119
2.94179
2.93078
2.91703
2.90701
2.90615
2.91889
2.9344
2.92846
2.90897
2.88669
2.86992
2.86011
2.85599
2.84638
2.82903
2.80949
2.79031
2.7732
2.75983
2.74874
2.73075
2.70749
2.6822
2.66177
2.64257
2.61951
2.59388
2.56566
2.53519
2.50373
2.47323
2.44495
2.41805
2.39128
2.36397
2.33636
2.30968
2.28507
2.26207
2.23954
2.21607
2.19126
2.1659
2.1417
2.11844
2.09518
2.06954
2.04045
2.00792
1.97854
1.96246
1.95879
1.97593
2.01824
2.1128
2.21481
2.22304
2.30543
2.51776
2.6746
2.71113
2.70315
2.68458
2.66079
2.63601
2.62359
2.61805
2.61982
2.62034
3.19729
2.81714
2.49264
2.17341
1.909
1.70287
1.55516
1.44658
1.32384
1.18368
1.07722
1.07202
1.10723
1.15774
1.22202
1.39527
2.34139
3.08665
3.13513
3.09617
3.0825
3.10169
3.10082
3.07607
3.05455
3.04941
3.06518
3.08022
3.07182
3.05608
3.03831
3.02689
3.02516
3.04002
3.04246
3.02714
3.00312
2.98167
2.96631
2.9575
2.95152
2.93545
2.91367
2.88957
2.86869
2.85189
2.83751
2.81797
2.79602
2.77221
2.74867
2.72483
2.70081
2.67595
2.64902
2.61913
2.58659
2.55374
2.52288
2.49411
2.46644
2.43875
2.41029
2.38174
2.35475
2.33003
2.30659
2.28295
2.25741
2.22984
2.20191
2.17633
2.15253
2.12819
2.10163
2.07291
2.04392
2.03118
2.04059
2.08499
2.16631
2.28284
2.37044
2.34876
2.34154
2.43723
2.61393
2.74669
2.78911
2.7829
2.75864
2.73116
2.70582
2.69336
2.68976
2.6911
3.31454
2.98207
2.6807
2.39724
2.1411
1.93867
1.75284
1.59717
1.49081
1.39627
1.31462
1.34839
1.39659
1.44448
1.52537
1.55658
1.73826
2.51436
3.12908
3.29843
3.28285
3.27569
3.25094
3.21596
3.1821
3.16829
3.17486
3.19779
3.19312
3.17625
3.14846
3.12972
3.12066
3.12705
3.13496
3.1226
3.09986
3.07078
3.0521
3.03913
3.03325
3.02109
3.00086
2.97403
2.94563
2.92502
2.90508
2.88417
2.86398
2.84206
2.81501
2.78676
2.76232
2.73834
2.71241
2.68343
2.65102
2.61684
2.58457
2.55562
2.52849
2.50119
2.47246
2.44231
2.41289
2.38648
2.36274
2.33937
2.31429
2.28539
2.25344
2.22258
2.19689
2.17335
2.15212
2.13378
2.11808
2.11958
2.15476
2.23142
2.32544
2.41423
2.46996
2.45652
2.41486
2.42312
2.51774
2.67001
2.79654
2.85344
2.84607
2.82335
2.7918
2.76503
2.75676
2.75547
3.40836
3.11081
2.83652
2.57697
2.31285
2.10852
1.94269
1.79235
1.69102
1.6197
1.64219
1.72527
1.72256
1.75974
1.78868
1.75606
1.76904
1.92026
2.5733
3.18461
3.41513
3.43222
3.39237
3.33189
3.27997
3.26406
3.26213
3.28186
3.27772
3.25831
3.2254
3.19774
3.18549
3.18458
3.19361
3.18359
3.16303
3.13075
3.10627
3.09122
3.08294
3.07355
3.05457
3.02874
2.99705
2.96917
2.94604
2.92613
2.90725
2.88505
2.85656
2.82605
2.80027
2.77612
2.75081
2.72296
2.69154
2.65732
2.62452
2.59594
2.56967
2.54327
2.51506
2.48427
2.45266
2.42437
2.40047
2.37823
2.35457
2.32686
2.2931
2.25681
2.22555
2.20435
2.19137
2.18851
2.19685
2.22746
2.31183
2.39523
2.45951
2.49888
2.52603
2.52246
2.49308
2.46197
2.48282
2.5671
2.70796
2.82395
2.89402
2.88955
2.87068
2.83687
2.81233
2.80491
3.48336
3.20613
2.95284
2.71629
2.47594
2.25648
2.11882
2.03386
1.99089
1.97381
2.04469
2.06074
1.99011
1.98269
1.97522
1.94151
1.91824
1.94033
2.05746
2.61216
3.24402
3.48385
3.50373
3.4566
3.37257
3.33295
3.32445
3.33558
3.3335
3.31342
3.28286
3.2494
3.23385
3.22627
3.23021
3.2204
3.20065
3.17004
3.14015
3.12335
3.11194
3.10182
3.0828
3.05817
3.02665
2.99358
2.96949
2.9505
2.93088
2.90797
2.88024
2.84986
2.82217
2.79708
2.7719
2.74477
2.7145
2.68135
2.64903
2.62084
2.59522
2.56978
2.54267
2.51249
2.47965
2.44842
2.42276
2.40057
2.3782
2.35253
2.32122
2.28382
2.24692
2.2314
2.22993
2.24898
2.29373
2.38328
2.50327
2.54791
2.55769
2.55329
2.55435
2.55693
2.5441
2.51735
2.50452
2.52358
2.59482
2.72563
2.84341
2.90549
2.9181
2.90379
2.87716
2.84924
3.53821
3.28359
3.04822
2.83132
2.62942
2.45479
2.38966
2.40048
2.36988
2.35893
2.38734
2.34615
2.23374
2.15745
2.16224
2.13495
2.11496
2.07243
2.06746
2.1555
2.64256
3.2576
3.51963
3.53855
3.48041
3.40224
3.37704
3.37469
3.37371
3.35464
3.3294
3.29439
3.27308
3.26002
3.25495
3.2431
3.22384
3.19719
3.16522
3.14508
3.13035
3.1161
3.09555
3.07137
3.04132
3.00799
2.98409
2.96433
2.94295
2.9191
2.89192
2.86164
2.83245
2.80665
2.78174
2.7554
2.72645
2.69466
2.66253
2.63391
2.60866
2.58453
2.55936
2.53125
2.4988
2.4642
2.43352
2.40878
2.38674
2.36449
2.33847
2.307
2.27446
2.26548
2.27882
2.33569
2.42448
2.55282
2.6423
2.65026
2.63223
2.59748
2.58103
2.57333
2.57367
2.56312
2.5434
2.53886
2.55117
2.60865
2.7317
2.84345
2.90868
2.93902
2.93052
2.89808
3.58579
3.34953
3.14131
2.97838
2.85517
2.77985
2.80599
2.80487
2.69448
2.63294
2.61615
2.55825
2.4571
2.35373
2.34057
2.32925
2.29454
2.25156
2.17131
2.17371
2.24491
2.664
3.24765
3.52511
3.54292
3.48221
3.43462
3.4139
3.40639
3.38768
3.3665
3.33411
3.30614
3.28857
3.2751
3.26045
3.24186
3.21889
3.18817
3.1645
3.14659
3.12711
3.10417
3.07927
3.05013
3.02022
2.99796
2.97692
2.95367
2.92803
2.89924
2.86737
2.83714
2.81155
2.78754
2.76261
2.7353
2.70449
2.67133
2.64058
2.6147
2.59172
2.56887
2.54389
2.51426
2.47904
2.44219
2.41097
2.38767
2.36783
2.34882
2.33095
2.31799
2.32958
2.3859
2.48123
2.57184
2.6654
2.70524
2.70271
2.6837
2.64796
2.61402
2.598
2.59157
2.59386
2.58372
2.56616
2.56198
2.5686
2.61439
2.72861
2.83891
2.91921
2.95593
2.93684
3.63875
3.43395
3.29337
3.26083
3.23107
3.18828
3.19798
3.12679
2.96171
2.83975
2.79299
2.75081
2.67046
2.5626
2.51539
2.50958
2.47354
2.42193
2.33793
2.27722
2.28198
2.34112
2.67913
3.20149
3.49948
3.52834
3.4929
3.4666
3.44687
3.42211
3.39912
3.36705
3.3338
3.3127
3.29472
3.27802
3.25967
3.23775
3.20771
3.18254
3.16181
3.13897
3.11454
3.08824
3.05783
3.03125
3.01129
2.99005
2.96598
2.93856
2.90678
2.87126
2.83882
2.81383
2.79178
2.76936
2.7445
2.715
2.68045
2.64572
2.61697
2.59368
2.57202
2.5497
2.52388
2.49241
2.45471
2.41665
2.3864
2.36639
2.35864
2.36428
2.38789
2.45606
2.57594
2.64495
2.68952
2.71911
2.73431
2.73207
2.71639
2.69438
2.66263
2.63297
2.61988
2.61463
2.61478
2.60133
2.58441
2.57811
2.58682
2.62562
2.7225
2.83832
2.93072
2.95191
3.73859
3.63177
3.63881
3.68703
3.60032
3.49614
3.44092
3.34057
3.18396
3.03922
2.97601
2.9463
2.87628
2.76707
2.68691
2.66304
2.63864
2.5885
2.50476
2.43768
2.39287
2.38031
2.41806
2.66277
3.12795
3.44801
3.50408
3.51818
3.5042
3.47209
3.4372
3.39564
3.35777
3.33538
3.31684
3.30083
3.28233
3.25833
3.22454
3.19702
3.17547
3.15311
3.13006
3.10403
3.07112
3.043
3.02302
3.00227
2.97913
2.95215
2.91938
2.88039
2.84309
2.81657
2.79578
2.77561
2.75349
2.72663
2.69303
2.65587
2.62296
2.59645
2.57315
2.55063
2.52643
2.49873
2.46538
2.42886
2.39637
2.38128
2.39029
2.43478
2.51367
2.64227
2.75294
2.77242
2.76796
2.75567
2.75049
2.75097
2.742
2.72933
2.71137
2.684
2.65941
2.64733
2.64118
2.63449
2.61856
2.60126
2.59454
2.60585
2.63631
2.71972
2.83835
2.93064
3.97212
4.01376
4.07496
4.04282
3.87807
3.72592
3.61469
3.5191
3.39293
3.24895
3.16624
3.12891
3.06652
2.96132
2.85909
2.81113
2.7855
2.74222
2.67387
2.58821
2.54433
2.49406
2.46291
2.48212
2.64473
3.03551
3.37177
3.49084
3.55272
3.5365
3.49397
3.43141
3.38253
3.35866
3.34233
3.33066
3.31212
3.28487
3.24299
3.2079
3.18686
3.16816
3.14895
3.1261
3.09368
3.057
3.03109
3.00996
2.9881
2.96335
2.93341
2.89573
2.8545
2.82223
2.79924
2.77896
2.758
2.73415
2.70477
2.67032
2.6361
2.60485
2.57662
2.54991
2.52411
2.49855
2.47066
2.44702
2.4272
2.43377
2.48208
2.57792
2.67783
2.79816
2.85057
2.84947
2.82932
2.79435
2.77791
2.7693
2.76618
2.76162
2.75066
2.73459
2.71071
2.68813
2.6759
2.66757
2.65622
2.63957
2.62209
2.61616
2.62598
2.65077
2.7177
2.85816
4.41498
4.42795
4.39388
4.24206
4.06452
3.92146
3.79717
3.70441
3.60293
3.46268
3.35322
3.29858
3.2445
3.14589
3.03312
2.96921
2.93357
2.88988
2.82751
2.74163
2.68233
2.64118
2.58262
2.53597
2.53927
2.62538
2.93862
3.29071
3.49094
3.57303
3.551
3.49254
3.41901
3.38556
3.36979
3.36109
3.34324
3.31515
3.26793
3.22171
3.1992
3.1833
3.16727
3.14709
3.11867
3.07755
3.04037
3.01553
2.99299
2.96909
2.94267
2.91134
2.87384
2.83658
2.8066
2.78185
2.75888
2.73589
2.71067
2.68246
2.65201
2.61747
2.5824
2.5508
2.5235
2.50082
2.48395
2.48175
2.49606
2.55155
2.6688
2.759
2.82636
2.88172
2.89761
2.89247
2.87473
2.84623
2.81801
2.80419
2.79692
2.79505
2.7885
2.77657
2.7594
2.73474
2.71451
2.70363
2.69368
2.68132
2.66427
2.64674
2.63654
2.63871
2.65244
2.75646
4.79999
4.72829
4.59743
4.39889
4.23517
4.11687
3.99293
3.88115
3.78678
3.66538
3.539
3.4619
3.41107
3.32289
3.20917
3.1299
3.08508
3.03769
2.97436
2.89235
2.81817
2.77573
2.72831
2.66409
2.60031
2.60243
2.64545
2.86538
3.20794
3.46952
3.55595
3.54321
3.4739
3.43295
3.40814
3.39103
3.36907
3.34113
3.29609
3.24217
3.21351
3.1964
3.17938
3.15867
3.13366
3.09774
3.0519
3.01658
2.99087
2.96677
2.94233
2.9175
2.88849
2.85341
2.81776
2.7859
2.75697
2.7307
2.70876
2.68727
2.66118
2.62601
2.5892
2.55521
2.52866
2.51387
2.52151
2.55819
2.63035
2.75996
2.87757
2.90391
2.92022
2.92498
2.93041
2.92649
2.91305
2.89647
2.8701
2.84628
2.83577
2.83001
2.82474
2.81438
2.80091
2.78095
2.75606
2.74012
2.73002
2.71937
2.70586
2.6875
2.66683
2.6471
2.64473
2.68387
5.07061
4.93874
4.77164
4.57298
4.42861
4.32752
4.20335
4.06338
3.9565
3.86043
3.73832
3.638
3.57811
3.49959
3.38905
3.29858
3.24015
3.18923
3.12291
3.04527
2.96202
2.90408
2.86072
2.80614
2.73407
2.6583
2.63918
2.66026
2.8067
3.10921
3.40674
3.50348
3.49377
3.47978
3.45564
3.4266
3.39308
3.35905
3.31727
3.26573
3.22691
3.2044
3.18926
3.16992
3.14324
3.10769
3.06187
3.02051
2.98813
2.96509
2.94501
2.92151
2.89402
2.85956
2.82594
2.79276
2.76321
2.73986
2.71661
2.69344
2.66161
2.6264
2.59741
2.56892
2.54852
2.55466
2.60387
2.70482
2.82701
2.96559
3.00616
2.99986
2.97716
2.96373
2.95956
2.95981
2.95038
2.93623
2.91355
2.8835
2.86677
2.85858
2.85295
2.84465
2.83262
2.8153
2.78879
2.76571
2.75254
2.74282
2.73204
2.71843
2.69907
2.66938
2.64631
2.64918
5.28448
5.1206
4.94429
4.74672
4.61868
4.52785
4.40369
4.25004
4.12911
4.04873
3.94479
3.82498
3.74287
3.66831
3.56354
3.46816
3.39594
3.33372
3.26667
3.18847
3.11145
3.0349
2.97846
2.92834
2.86755
2.78684
2.71259
2.66513
2.67415
2.76089
2.99955
3.27562
3.42332
3.47214
3.47589
3.44972
3.40942
3.36742
3.32413
3.27989
3.24282
3.20933
3.17507
3.13728
3.10698
3.08279
3.05903
3.03162
3.00214
2.96308
2.91675
2.88623
2.86949
2.85645
2.83565
2.80804
2.77051
2.7216
2.68397
2.65937
2.64096
2.62888
2.61555
2.59445
2.59641
2.64737
2.77165
2.88555
2.98869
3.05834
3.06394
3.05538
3.02376
2.99821
2.99001
2.98261
2.97291
2.95813
2.94058
2.91656
2.89514
2.88659
2.87982
2.86954
2.85508
2.83604
2.8118
2.78553
2.76938
2.76147
2.75513
2.74329
2.72619
2.69811
2.66227
2.64359
5.39262
5.26293
5.10242
4.92915
4.81835
4.72866
4.59523
4.43206
4.30453
4.22849
4.13983
4.01657
3.9037
3.82454
3.73096
3.63695
3.55552
3.47684
3.40136
3.32192
3.24488
3.17268
3.09709
3.03465
2.97621
2.90372
2.8238
2.74668
2.68371
2.6791
2.70825
2.87023
3.11528
3.33538
3.42996
3.41001
3.36054
3.32691
3.30341
3.28344
3.25441
3.21406
3.1576
3.09639
3.05523
3.03177
3.01475
2.9983
2.97465
2.93647
2.88672
2.85355
2.83453
2.81741
2.79814
2.77573
2.74306
2.69737
2.65537
2.62422
2.60946
2.61136
2.6171
2.64453
2.72077
2.86233
2.9706
3.01974
3.06124
3.08899
3.09378
3.08267
3.05639
3.01958
2.99114
2.97934
2.97555
2.97167
2.96093
2.94722
2.92611
2.8966
2.87678
2.86594
2.85435
2.84141
2.82724
2.81242
2.79278
2.76713
2.74827
2.73606
2.72264
2.70765
2.68415
2.65374
5.43885
5.35778
5.21035
5.05819
4.96324
4.88305
4.75119
4.59624
4.47539
4.39558
4.30642
4.18428
4.05106
3.95908
3.87579
3.78591
3.703
3.61296
3.51999
3.43239
3.3517
3.28037
3.20785
3.1289
3.05721
2.99161
2.91653
2.83921
2.75349
2.68764
2.65133
2.66131
2.74991
2.94528
3.20034
3.31542
3.29992
3.28555
3.26346
3.23479
3.20415
3.1686
3.11669
3.05429
3.01536
2.99445
2.97555
2.95266
2.92497
2.8884
2.84795
2.81802
2.79736
2.77859
2.75957
2.73511
2.70129
2.66103
2.61894
2.5985
2.60058
2.61321
2.66764
2.77697
2.92236
3.05484
3.08144
3.08345
3.08561
3.0877
3.09018
3.07965
3.06274
3.03454
3.0012
2.98481
2.97858
2.97967
2.97429
2.96075
2.94117
2.90908
2.87684
2.86073
2.85347
2.84981
2.84106
2.82823
2.80889
2.77701
2.74327
2.72388
2.71338
2.70522
2.69791
2.67258
5.35108
5.29545
5.21081
5.11485
5.0347
4.96345
4.84221
4.69554
4.58912
4.52143
4.43482
4.31261
4.17757
4.08416
4.00131
3.91373
3.83002
3.73747
3.62399
3.51371
3.41777
3.34063
3.27723
3.20622
3.12393
3.04039
2.95955
2.87934
2.80027
2.72167
2.66015
2.62228
2.58607
2.62132
2.77175
3.00884
3.14769
3.19933
3.20411
3.17093
3.13206
3.09582
3.05261
3.0055
2.97062
2.94422
2.91909
2.89303
2.86497
2.83413
2.80413
2.77724
2.75132
2.72617
2.70247
2.67612
2.64729
2.61939
2.59732
2.59469
2.60828
2.67415
2.80587
2.9324
3.05363
3.11227
3.11589
3.10302
3.07546
3.06145
3.05496
3.05193
3.04646
3.03523
3.01471
2.9893
2.97231
2.96196
2.95401
2.94339
2.92947
2.91112
2.8849
2.85862
2.8423
2.83159
2.82175
2.80951
2.79272
2.76912
2.74072
2.71659
2.70198
2.691
2.6806
2.65585
5.26159
5.207
5.1412
5.06582
5.00188
4.94195
4.85006
4.72777
4.6285
4.56079
4.47369
4.35304
4.21899
4.12864
4.05799
3.96783
3.86417
3.75927
3.67174
3.58425
3.49917
3.41407
3.3273
3.24964
3.17124
3.08553
3.00627
2.93643
2.87099
2.79809
2.71752
2.62652
2.55026
2.50891
2.52758
2.63567
2.81765
2.97287
3.09205
3.08844
3.05835
3.02042
2.97755
2.93852
2.90881
2.87999
2.84846
2.8164
2.78824
2.76591
2.74627
2.72586
2.69952
2.66373
2.62401
2.59447
2.5788
2.57774
2.58928
2.62111
2.70059
2.84596
2.95777
3.01976
3.08596
3.11461
3.11165
3.09117
3.05253
3.02275
3.01328
3.0098
3.01324
3.01168
3.00276
2.98543
2.95992
2.93969
2.92599
2.91363
2.9012
2.8877
2.87201
2.85092
2.82862
2.81149
2.79732
2.78261
2.76623
2.74771
2.72632
2.70414
2.68618
2.67174
2.66066
2.63655
5.20454
5.14505
5.07983
5.0163
4.95794
4.88961
4.79632
4.69149
4.60666
4.54415
4.46731
4.35376
4.22922
4.14248
4.07234
3.98244
3.87876
3.76546
3.65853
3.57031
3.49332
3.41608
3.33081
3.23746
3.14162
3.05329
2.9779
2.91306
2.85055
2.78182
2.69982
2.61616
2.53945
2.48523
2.44268
2.44996
2.51302
2.64689
2.83887
2.96427
2.975
2.95081
2.91661
2.88188
2.85247
2.82082
2.78022
2.73498
2.70947
2.69316
2.68036
2.66441
2.63971
2.59806
2.54615
2.52659
2.52596
2.5522
2.61695
2.72966
2.88771
3.001
3.0247
3.04506
3.0578
3.06874
3.06397
3.05132
3.02878
2.99648
2.97984
2.97328
2.9711
2.97104
2.96524
2.95552
2.93643
2.91312
2.89597
2.88235
2.86935
2.85644
2.84256
2.82499
2.80274
2.78141
2.76471
2.74997
2.73499
2.71906
2.70145
2.682
2.66273
2.64511
2.63219
2.60801
5.23139
5.15303
5.07754
5.00355
4.92932
4.84638
4.75325
4.66428
4.5913
4.52624
4.43513
4.31777
4.20877
4.12804
4.05844
3.97024
3.86287
3.75418
3.6589
3.57562
3.49781
3.4178
3.33147
3.23798
3.14243
3.05691
2.98459
2.92018
2.85606
2.78696
2.70766
2.62662
2.54902
2.48598
2.42997
2.3884
2.37021
2.40219
2.51333
2.70794
2.81944
2.85995
2.86741
2.84458
2.81114
2.77222
2.72246
2.66686
2.63519
2.61954
2.61092
2.59699
2.57404
2.53949
2.50048
2.49402
2.50924
2.56379
2.71238
2.87449
3.00938
3.04677
3.03058
3.01431
3.00331
3.00389
3.00742
3.00401
2.99342
2.96963
2.94759
2.93865
2.93341
2.93059
2.92533
2.91714
2.90237
2.88083
2.86205
2.84834
2.83635
2.82449
2.81168
2.79596
2.7753
2.75204
2.73222
2.71739
2.70436
2.69101
2.67605
2.6584
2.63859
2.61858
2.6031
2.57837
5.24732
5.17043
5.09688
5.01972
4.93655
4.84645
4.75461
4.66948
4.59125
4.50791
4.40436
4.29518
4.20132
4.1286
4.05529
3.96004
3.84638
3.74085
3.65604
3.57551
3.49598
3.41391
3.32635
3.23342
3.14318
3.06296
2.99083
2.92277
2.85521
2.78493
2.71038
2.63515
2.56349
2.49701
2.43725
2.37905
2.33697
2.30099
2.31258
2.40574
2.57725
2.69804
2.7892
2.80444
2.77604
2.73325
2.67912
2.62666
2.58762
2.5639
2.54968
2.53284
2.51049
2.48842
2.48021
2.48476
2.53597
2.6983
2.85636
2.96725
3.02839
3.02652
3.00824
2.98312
2.97074
2.96503
2.96172
2.95772
2.94894
2.93481
2.92011
2.91084
2.90458
2.89869
2.8916
2.88087
2.86549
2.84807
2.83261
2.82001
2.80922
2.79812
2.78472
2.76768
2.74736
2.72626
2.70707
2.69116
2.67823
2.66572
2.65118
2.63405
2.61594
2.59912
2.5857
2.56022
5.26087
5.18497
5.10973
5.03006
4.9459
4.85828
4.77243
4.68992
4.60499
4.50946
4.40348
4.30257
4.21785
4.14613
4.05828
3.95282
3.83941
3.74643
3.66601
3.58486
3.50401
3.41952
3.32805
3.23609
3.15282
3.07778
3.00627
2.93566
2.86398
2.79058
2.71707
2.64688
2.58098
2.51742
2.45527
2.39288
2.33437
2.28223
2.24525
2.25098
2.32109
2.4667
2.62485
2.71696
2.71453
2.69279
2.65417
2.61268
2.57154
2.53521
2.4995
2.47185
2.45476
2.45772
2.47424
2.5545
2.73335
2.89274
2.95139
2.98679
2.99751
2.99257
2.98426
2.97397
2.95674
2.93853
2.92715
2.921
2.91844
2.91579
2.9105
2.90186
2.88955
2.87655
2.86423
2.85173
2.84102
2.83191
2.82157
2.80819
2.79285
2.77723
2.7606
2.74367
2.72822
2.71488
2.70124
2.68474
2.66627
2.64893
2.63269
2.61765
2.60442
2.59179
2.57859
2.54696
5.25609
5.18869
5.11746
5.04017
4.95897
4.87654
4.79489
4.71087
4.61987
4.52019
4.41952
4.32675
4.24621
4.16585
4.06664
3.95655
3.85324
3.77067
3.69304
3.61075
3.52409
3.42961
3.33399
3.24841
3.17212
3.10026
3.0291
2.9558
2.87805
2.79903
2.72582
2.66063
2.6007
2.5417
2.48111
2.4157
2.34701
2.2831
2.23081
2.20709
2.2024
2.2526
2.38589
2.54302
2.61236
2.63022
2.61961
2.59338
2.56073
2.52056
2.46632
2.43062
2.43119
2.45564
2.56122
2.74629
2.93439
2.98995
2.97679
2.97213
2.96422
2.96726
2.96969
2.96314
2.94993
2.92721
2.91355
2.90876
2.90785
2.90977
2.90535
2.89662
2.88021
2.86008
2.84678
2.83846
2.83111
2.82322
2.81331
2.79781
2.77735
2.7601
2.74693
2.73536
2.72467
2.71373
2.70036
2.68095
2.65722
2.63767
2.62338
2.61114
2.59904
2.58533
2.56864
2.53133
5.26285
5.19678
5.12677
5.05195
4.97391
4.8945
4.81301
4.72661
4.63447
4.53892
4.44547
4.35841
4.2763
4.18315
4.07667
3.96905
3.88108
3.80579
3.72637
3.63879
3.54265
3.44165
3.34991
3.27028
3.19736
3.12668
3.0546
2.97735
2.8936
2.81086
2.73818
2.67642
2.62048
2.56526
2.50657
2.43982
2.36476
2.29351
2.23487
2.19437
2.17391
2.16374
2.19202
2.29766
2.44472
2.51786
2.56189
2.56083
2.5366
2.49885
2.45711
2.43212
2.44976
2.56112
2.74425
2.92911
3.0107
3.01538
2.9854
2.96159
2.95439
2.95656
2.96144
2.95661
2.94623
2.92687
2.91433
2.90904
2.90591
2.90381
2.89777
2.88792
2.87126
2.85371
2.84145
2.83266
2.82432
2.81524
2.80416
2.78914
2.7719
2.75746
2.74633
2.73608
2.72538
2.71302
2.69655
2.6753
2.65341
2.6352
2.62035
2.60688
2.59322
2.57666
2.55674
2.52294
5.26278
5.19825
5.12921
5.05684
4.98169
4.90368
4.82108
4.73347
4.6428
4.55299
4.4673
4.38596
4.29884
4.19296
4.08444
3.98999
3.90853
3.83455
3.75073
3.65868
3.55905
3.46016
3.37307
3.29577
3.22248
3.15015
3.075
2.99384
2.90831
2.82675
2.75529
2.69336
2.6371
2.58214
2.52366
2.45796
2.38394
2.31265
2.24901
2.19725
2.16314
2.13653
2.1186
2.12877
2.21297
2.34935
2.45382
2.51385
2.50509
2.48383
2.46036
2.48411
2.59109
2.75793
2.92021
3.00416