/*--------------------------------*- C++ -*----------------------------------*\
  =========                 |
  \\      /  F ield         | OpenFOAM: The Open Source CFD Toolbox
   \\    /   O peration     | Website:  https://openfoam.org
    \\  /    A nd           | Version:  7
     \\/     M anipulation  |
\*---------------------------------------------------------------------------*/
FoamFile
{
    version     2.0;
    format      ascii;
    class       volScalarField;
    location    "10";
    object      T;
}
// * * * * * * * * * * * * * * * * * * * * * * * * * * * * * * * * * * * * * //

dimensions      [0 0 0 1 0 0 0];

internalField   nonuniform List<scalar> 
4032
(
1
1
1
1
1
1
1
1
1
1
1
1.17252
2.41317
2.71633
2.72688
2.74226
2.7556
2.76819
2.77965
2.78985
2.79885
2.80609
2.81157
2.81551
1
1
1
1
1
1
1
1
1
1
1
1.15496
2.3991
2.71519
2.72624
2.7409
2.75401
2.76634
2.77747
2.78721
2.79566
2.80234
2.80721
2.81095
1
1
1
1
1
1
1
1
1
1
1
1.10148
2.36132
2.71231
2.72312
2.73792
2.75115
2.76344
2.77442
2.78379
2.79167
2.7977
2.80161
2.80478
1
1
1
1
1
1
1
1
1
1
1
1.00734
2.2934
2.70442
2.71824
2.73325
2.74607
2.75757
2.76791
2.77686
2.78447
2.79016
2.79339
2.79581
1
1
1
1
1
1
1
1
1
1
1
1.00006
2.21131
2.68861
2.70764
2.72322
2.73672
2.7483
2.75835
2.76649
2.77263
2.7768
2.77851
2.78128
1
1
1
1
1
1
1
1
1
1
1
1
2.09684
2.66986
2.69846
2.71283
2.72614
2.73699
2.74607
2.75342
2.75896
2.76216
2.76049
2.75484
1
1
1
1
1
1
1
1
1
1
1
1
1.93853
2.63444
2.68259
2.69836
2.71195
2.72209
2.72972
2.7349
2.7365
2.73294
2.72458
2.71719
1
1
1
1
1
1
1
1
1
1
1
1
1.72155
2.56446
2.65588
2.67933
2.69516
2.70543
2.71126
2.71331
2.71041
2.70501
2.69953
2.71053
1
1
1
1
1
1
1
1
1
1
1
1
1.40983
2.44045
2.62949
2.65497
2.67329
2.68479
2.68894
2.68787
2.67957
2.66073
2.60904
2.50906
1
1
1
1
1
1
1
1
1
1
1
1
1.05131
2.30792
2.6299
2.63189
2.64237
2.65326
2.6579
2.65466
2.64151
2.60817
2.55039
2.38885
1
1
1
1
1
1
1
1
1
1
1
1
1.00061
2.1396
2.58883
2.59719
2.60826
2.61576
2.62019
2.61566
2.60047
2.56165
2.49743
2.31383
1
1
1
1
1
1
1
1
1
1
1
1
0.999994
1.83226
2.52388
2.58161
2.58991
2.58902
2.58758
2.57939
2.56041
2.52165
2.44899
2.29008
1
1
1
1
1
1
1
1
1
1
1
1
0.999998
1.37344
2.37968
2.56319
2.56326
2.56176
2.55658
2.54404
2.52109
2.48281
2.40917
2.28774
1
1
1
1
1
1
1
1
1
1
1
1
1
1.03834
2.19462
2.52242
2.53297
2.53212
2.52637
2.51223
2.48809
2.44788
2.37951
2.28823
1
1
1
1
1
1
1
1
1
1
1
1
1
1.00023
1.82767
2.4392
2.51091
2.50791
2.50062
2.48363
2.45911
2.41674
2.35686
2.28407
1
1
1
1
1
1
1
1
1
1
1
1
1
0.999998
1.24001
2.27986
2.49116
2.4779
2.47004
2.45488
2.42889
2.39159
2.34027
2.27921
1
1
1
1
1
1
1
1
1
1
1
1
1
1
1.01335
2.08287
2.44106
2.43186
2.43061
2.42094
2.40041
2.36892
2.32502
2.27218
1
1
1
1
1
1
1
1
1
1
1
1
1
1
1.00001
1.58479
2.32438
2.41243
2.40597
2.39387
2.37454
2.34619
2.30848
2.2633
1
1
1
1
1
1
1
1
1
1
1
1
1
1
0.999998
1.08895
2.11574
2.39067
2.38282
2.36848
2.34812
2.32178
2.28877
2.24984
1
1
1
1
1
1
1
1
1
1
1
1
1
1
0.999999
1.00156
1.6654
2.27718
2.36067
2.34244
2.32299
2.2982
2.26801
2.23321
1
1
1
1
1
1
1
1
1
1
1
1
1
1
1
1
1.13001
2.07723
2.33526
2.31755
2.30091
2.2766
2.24661
2.21638
1
1
1
1
1
1
1
1
1
1
1
1
1
1
1
1
1.00354
1.6245
2.20985
2.2958
2.27421
2.24991
2.22251
2.21697
1
1
1
1
1
1
1
1
1
1
1
1
1
1
1
1
1.00001
1.11796
1.99481
2.27335
2.24436
2.2244
2.22828
2.25991
1
1
1
1
1
1
1
1
1
1
1
1
1
1
1
1
1
1.00299
1.47796
2.11865
2.20286
2.21788
2.27161
2.33276
1
1
1
1
1
1
1
1
1
1
1
1
1
1
1
1
1
1.00001
1.06337
1.84425
2.14362
2.27354
2.34598
2.38405
1
1
1
1
1
1
1
1
1
1
1
1
1
1
1
1
1
1
1.00105
1.28818
2.01151
2.33859
2.39049
2.37888
1
1
1
1
1
1
1
1
1
1
1
1
1
1
1
1
1
1
1
1.01925
1.96687
2.46208
2.43697
2.39332
1
1
1
1
1
1
1
1
1
1
1
1
1
1
1
1
1
1
1
1.00016
1.8891
2.56207
2.52403
2.45611
1
1
1
1
1
1
1
1
1
1
1
1
1
1
1
1
1
1
1
1
1.84917
2.62925
2.60434
2.54587
1
1
1
1
1
1
1
1
1
1
1
1
1
1
1
1
1
1
1
1
1.73581
2.61457
2.6468
2.61445
1
1
1
1
1
1
1
1
1
1
1
1
1
1
1
1
1
1
1
1
1.57643
2.5571
2.66138
2.63387
1
1
1
1
1
1
1
1
1
1
1
1
1
1
1
1
1
1
1
1
1.37753
2.46366
2.66544
2.64135
1
1
1
1
1
1
1
1
1
1
1
1
1
1
1
1
1
1
1
1
1.19093
2.38767
2.65899
2.63579
1
1
1
1
1
1
1
1
1
1
1
1
1
1
1
1
1
1
1
1
1.10333
2.36438
2.66606
2.64086
1
1
1
1
1
1
1
1
1
1
1
1
1
1
1
1
1
1
1
1
1.04846
2.33273
2.67078
2.64813
1
1
1
1
1
1
1
1
1
1
1
1
1
1
1
1
1
1
1
1
1.00205
2.28831
2.67386
2.65593
1
1
1
1
1
1
1
1
1
1
1
1
1
1
1
1
1
1
1
1
1.00001
2.24413
2.66942
2.65622
1
1
1
1
1
1
1
1
1
1
1
1
1
1
1
1
1
1
1
1
1
2.20497
2.66512
2.65575
1
1
1
1
1
1
1
1
1
1
1
1
1
1
1
1
1
1
1
1
1
2.17801
2.66251
2.65514
1
1
1
1
1
1
1
1
1
1
1
1
1
1
1
1
1
1
1
1
1
2.16726
2.66078
2.65537
1.69237
1.15743
0.981614
1.08856
1.15009
1.20234
1.3035
1.42461
1.53028
1.60273
1.62328
1.63724
1.64891
1.77269
2.53417
2.78096
2.78792
2.77839
2.79478
2.81417
2.81972
2.81147
2.79933
2.79086
2.78769
2.7832
2.77539
2.76781
2.76239
2.75698
2.74874
2.73988
2.73287
2.72948
2.72826
2.72471
2.71361
2.69843
2.68421
2.67369
2.66682
2.6603
2.65014
2.63651
2.62149
2.60781
2.59692
2.58808
2.57928
2.5688
2.55664
2.54401
2.53182
2.52023
2.50846
2.49558
2.48188
2.46836
2.45599
2.44509
2.433
2.41806
2.40279
2.38805
2.3743
2.36185
2.35151
2.34189
2.33016
2.31817
2.30623
2.29495
2.28421
2.27364
2.26277
2.25125
2.23909
2.22636
2.21276
2.1991
2.18614
2.17965
2.18955
2.28085
2.50215
2.53221
2.51329
2.50397
2.50083
2.49651
2.49114
2.48533
2.48032
2.47717
2.47669
2.47832
1.94083
1.62533
1.43788
1.38601
1.3331
1.27222
1.25118
1.25862
1.28476
1.32838
1.36491
1.41615
1.46016
1.53077
2.38455
2.74053
2.76849
2.7741
2.79388
2.80879
2.81035
2.80315
2.79393
2.78703
2.78143
2.77235
2.76148
2.75326
2.74903
2.74613
2.73977
2.72824
2.71623
2.70735
2.70447
2.70382
2.7007
2.68911
2.6735
2.65873
2.6468
2.63806
2.63038
2.62088
2.6087
2.59488
2.58136
2.56944
2.55927
2.5499
2.53957
2.52792
2.51614
2.50519
2.49499
2.48362
2.46992
2.45567
2.44214
2.43012
2.41934
2.40718
2.39317
2.37877
2.36462
2.35167
2.34042
2.33091
2.32077
2.30943
2.29766
2.2852
2.27274
2.26161
2.25158
2.24142
2.23057
2.2189
2.20617
2.19388
2.18391
2.18388
2.19934
2.28083
2.48705
2.51975
2.49976
2.48738
2.48116
2.47928
2.48003
2.47939
2.47611
2.47066
2.466
2.46312
2.03622
1.83377
1.65463
1.5476
1.48356
1.40588
1.30562
1.24188
1.24474
1.24777
1.26092
1.29697
1.34103
1.36167
2.11599
2.65949
2.7254
2.74647
2.76652
2.76947
2.76208
2.75388
2.75112
2.75241
2.75179
2.74086
2.7246
2.71049
2.70243
2.69901
2.6964
2.69113
2.67887
2.66467
2.65351
2.64726
2.64531
2.64315
2.63568
2.62216
2.60676
2.59204
2.57945
2.5694
2.56051
2.55067
2.53851
2.52493
2.51209
2.5013
2.49205
2.4822
2.47127
2.46057
2.45093
2.4424
2.43301
2.42138
2.40825
2.39491
2.3823
2.37021
2.35815
2.34569
2.33306
2.32027
2.30824
2.29731
2.28752
2.27817
2.26865
2.25836
2.24617
2.23264
2.22022
2.21004
2.20064
2.19107
2.1816
2.1743
2.16877
2.17562
2.19972
2.25663
2.422
2.48232
2.47269
2.45799
2.44526
2.43846
2.4381
2.44241
2.44763
2.448
2.44488
2.43557
2.10357
1.95085
1.79901
1.67323
1.60822
1.55224
1.47192
1.36848
1.33311
1.32392
1.30973
1.28768
1.28924
1.29174
1.58047
2.4391
2.64846
2.66843
2.68487
2.69078
2.68217
2.67046
2.66448
2.66439
2.66619
2.66418
2.65318
2.63855
2.62439
2.6117
2.6029
2.59748
2.59331
2.58405
2.57109
2.56
2.55163
2.54629
2.54315
2.5372
2.52597
2.51224
2.49809
2.48478
2.47303
2.46293
2.45274
2.44059
2.42803
2.41708
2.40845
2.40114
2.39269
2.38329
2.37366
2.36511
2.35703
2.34837
2.33928
2.3294
2.31829
2.30651
2.29476
2.2833
2.27212
2.26107
2.24993
2.23861
2.22789
2.21835
2.20974
2.20141
2.19256
2.18231
2.17066
2.15936
2.15015
2.14333
2.13935
2.13811
2.1416
2.1597
2.19249
2.22039
2.30812
2.39891
2.40885
2.40084
2.39157
2.38243
2.37733
2.37735
2.3813
2.38842
2.3921
2.39219
2.14809
2.02767
1.91018
1.78665
1.6963
1.643
1.58884
1.52639
1.44232
1.38477
1.36349
1.33972
1.3335
1.34641
1.38542
1.99228
2.49342
2.57971
2.56641
2.56156
2.56257
2.56217
2.55738
2.55022
2.54672
2.54649
2.54596
2.54019
2.52735
2.51255
2.49796
2.48715
2.48239
2.47934
2.47045
2.45897
2.44877
2.44065
2.43466
2.43049
2.42401
2.41406
2.40223
2.38973
2.37765
2.36702
2.35774
2.34699
2.33573
2.32488
2.31662
2.30963
2.30223
2.2948
2.28699
2.27865
2.27007
2.26186
2.25427
2.24672
2.23852
2.22929
2.21909
2.20853
2.19825
2.18836
2.17859
2.16855
2.15822
2.14799
2.13866
2.13025
2.12246
2.11431
2.1053
2.09511
2.08568
2.08231
2.08301
2.09111
2.10812
2.1432
2.17875
2.17328
2.19443
2.26512
2.31806
2.32741
2.32376
2.31847
2.31241
2.30687
2.30609
2.30766
2.31283
2.31986
2.18346
2.08066
1.98562
1.88425
1.79346
1.71575
1.65625
1.61172
1.55817
1.49069
1.43446
1.4304
1.44942
1.47723
1.51199
1.61103
2.1119
2.40753
2.46729
2.45438
2.45178
2.45758
2.45563
2.44378
2.43316
2.42864
2.43061
2.43143
2.42375
2.41162
2.39874
2.3878
2.38072
2.37921
2.37439
2.36409
2.35395
2.34547
2.33868
2.3338
2.32973
2.3221
2.31206
2.3006
2.28982
2.28044
2.27215
2.26274
2.25339
2.24421
2.23567
2.2276
2.22019
2.21318
2.20599
2.19823
2.18993
2.18176
2.17427
2.16728
2.16027
2.15269
2.14417
2.13492
2.12565
2.1168
2.10819
2.09942
2.08999
2.07995
2.07001
2.06135
2.05384
2.04679
2.03962
2.03179
2.02309
2.02228
2.02668
2.04526
2.07623
2.11835
2.14154
2.13008
2.11479
2.14385
2.20148
2.241
2.25682
2.25397
2.24637
2.23997
2.23511
2.23434
2.23589
2.24226
2.20143
2.11705
2.03358
1.94839
1.86535
1.79495
1.72594
1.66467
1.62016
1.57946
1.54489
1.56146
1.58557
1.61051
1.64544
1.65534
1.74478
2.08072
2.30959
2.3865
2.38417
2.38223
2.37414
2.36147
2.349
2.34306
2.3433
2.3476
2.34394
2.33494
2.32251
2.3126
2.30572
2.30425
2.30302
2.295
2.2857
2.27583
2.26872
2.26304
2.25954
2.25412
2.24626
2.23616
2.22534
2.21685
2.20871
2.20059
2.19312
2.18547
2.1765
2.16749
2.16002
2.15306
2.14586
2.13805
2.12948
2.12057
2.1124
2.10534
2.0988
2.09198
2.08432
2.07569
2.06679
2.05852
2.05091
2.04331
2.03505
2.02543
2.01471
2.0045
1.99648
1.98978
1.98434
1.97964
1.97653
1.97889
1.99534
2.02426
2.05608
2.08736
2.09623
2.08911
2.06879
2.06546
2.09265
2.13882
2.17741
2.19846
2.1965
2.18971
2.18178
2.17625
2.17566
2.17819
2.20973
2.13856
2.06759
1.99468
1.91376
1.84676
1.78954
1.73505
1.69586
1.67129
1.68254
1.71471
1.71448
1.73277
1.74054
1.72604
1.72707
1.79047
2.04452
2.25368
2.33402
2.3416
2.3298
2.31345
2.29733
2.29104
2.28944
2.29336
2.29105
2.28334
2.27145
2.26092
2.25485
2.25267
2.25301
2.24746
2.23938
2.22916
2.22093
2.2151
2.21127
2.20722
2.20053
2.19189
2.18153
2.17222
2.16438
2.15767
2.15145
2.14435
2.13551
2.1262
2.11842
2.11127
2.10394
2.09606
2.08728
2.0778
2.06891
2.06147
2.05485
2.04817
2.04077
2.03228
2.02318
2.01481
2.00766
2.00096
1.99379
1.98525
1.97453
1.96278
1.9529
1.94668
1.94322
1.94393
1.94894
1.96253
1.99502
2.02291
2.04305
2.053
2.05618
2.0536
2.04101
2.02511
2.02807
2.05164
2.09288
2.12978
2.15282
2.15207
2.14707
2.13847
2.13265
2.13218
2.21299
2.14874
2.08618
2.02369
1.95491
1.88706
1.84327
1.81523
1.80451
1.80225
1.82948
1.83298
1.80646
1.80295
1.79915
1.78541
1.77437
1.77927
1.82155
2.02587
2.22687
2.29986
2.30831
2.29489
2.27327
2.26097
2.25717
2.25909
2.25758
2.25054
2.24038
2.2293
2.22322
2.21963
2.21932
2.21467
2.2076
2.19825
2.18892
2.18297
2.17864
2.17476
2.16848
2.16071
2.15104
2.14095
2.13347
2.12758
2.12158
2.11464
2.10634
2.09733
2.08914
2.08172
2.07433
2.06644
2.05771
2.0482
2.03904
2.03125
2.02437
2.01763
2.01037
2.00204
1.99263
1.98347
1.9759
1.96933
1.96276
1.95521
1.94585
1.93417
1.92206
1.91707
1.91765
1.9266
1.94408
1.97584
2.01459
2.02737
2.03047
2.02581
2.02316
2.0229
2.01694
2.00605
1.99703
2.00053
2.02075
2.05931
2.09491
2.11324
2.12042
2.11648
2.10928
2.1022
2.21102
2.15423
2.09814
2.04342
1.98926
1.93993
1.92439
1.93132
1.92647
1.92479
1.9339
1.91939
1.88145
1.85321
1.85348
1.84298
1.8342
1.81685
1.80973
1.84212
2.01378
2.19979
2.27458
2.28304
2.26713
2.24614
2.23747
2.23573
2.23448
2.22811
2.22011
2.20937
2.2023
2.19747
2.19465
2.18994
2.18373
2.17573
2.16608
2.15951
2.15455
2.1498
2.14335
2.13596
2.12699
2.11714
2.10998
2.10407
2.09773
2.0907
2.08274
2.0739
2.06538
2.05786
2.0506
2.04294
2.03455
2.02537
2.01612
2.00796
2.0009
1.99427
1.98741
1.97962
1.97033
1.96012
1.95103
1.94384
1.93751
1.93101
1.92355
1.91408
1.90303
1.90192
1.90704
1.92796
1.95759
1.99877
2.024
2.02588
2.02032
2.00777
2.00045
1.99686
1.99568
1.99049
1.98257
1.97735
1.97955
1.99583
2.03228
2.06423
2.08379
2.09572
2.09347
2.08461
2.20489
2.15488
2.10824
2.0709
2.0415
2.02882
2.03993
2.04124
2.01276
1.99536
1.98984
1.97157
1.94013
1.90594
1.8998
1.89484
1.88179
1.86504
1.83432
1.83363
1.85752
1.99818
2.17075
2.24741
2.25577
2.23891
2.22487
2.21871
2.21556
2.2096
2.20328
2.19382
2.18518
2.17918
2.17427
2.16921
2.16337
2.15642
2.14725
2.13994
2.1343
2.12829
2.12135
2.11392
2.10537
2.09661
2.09
2.08378
2.077
2.0696
2.06131
2.05211
2.0434
2.03604
2.02917
2.02207
2.0143
2.00553
1.99604
1.98727
1.98
1.97366
1.96738
1.96045
1.95207
1.94184
1.93097
1.92187
1.91529
1.90955
1.90415
1.89882
1.897
1.90166
1.9207
1.95118
1.98004
2.00788
2.01601
2.01523
2.00927
1.99747
1.98559
1.97949
1.97618
1.97555
1.97064
1.96368
1.95935
1.96002
1.97265
2.00647
2.03708
2.06149
2.07392
2.0688
2.1957
2.15801
2.13006
2.13173
2.13205
2.12772
2.13343
2.11583
2.07328
2.03977
2.02655
2.01445
1.99078
1.95746
1.94079
1.93758
1.92486
1.90651
1.87635
1.85538
1.85223
1.87067
1.98025
2.13207
2.21354
2.22312
2.21479
2.20672
2.20067
2.19325
2.18662
2.1775
2.16755
2.16063
2.15461
2.14906
2.14322
2.13652
2.12764
2.12005
2.11376
2.10694
2.09973
2.09203
2.08325
2.07546
2.06949
2.06325
2.05635
2.04863
2.03969
2.02963
2.02044
2.01343
2.0073
2.00112
1.99431
1.98621
1.97659
1.96685
1.95888
1.95257
1.94676
1.94069
1.93356
1.92478
1.91413
1.90305
1.89354
1.88803
1.88627
1.88953
1.89951
1.92232
1.96007
1.98045
1.99304
1.99982
2.00177
2.0007
1.9954
1.98779
1.97717
1.96724
1.96189
1.95886
1.95738
1.9513
1.94476
1.93991
1.9409
1.95114
1.97947
2.01205
2.03864
2.04656
2.19703
2.1877
2.19606
2.21983
2.20428
2.18504
2.17549
2.15305
2.11443
2.07708
2.06092
2.05331
2.0337
2.00171
1.97652
1.96797
1.95938
1.94258
1.91448
1.8904
1.87399
1.86621
1.87672
1.9515
2.08657
2.1725
2.18891
2.19376
2.18896
2.17947
2.16959
2.1579
2.1467
2.13939
2.1332
2.12775
2.12176
2.11446
2.10471
2.0966
2.09009
2.08344
2.07671
2.06927
2.05995
2.05181
2.04587
2.0398
2.03326
2.02585
2.01696
2.00633
1.9961
1.98893
1.98341
1.97811
1.97235
1.96538
1.95653
1.94653
1.93768
1.9307
1.92471
1.91896
1.91266
1.9053
1.89641
1.88595
1.87494
1.87258
1.87637
1.89193
1.91759
1.95836
1.98919
1.99317
1.99142
1.9865
1.98324
1.98249
1.97889
1.97393
1.96736
1.95822
1.94974
1.94455
1.94099
1.93706
1.93026
1.92375
1.91844
1.9198
1.92709
1.95083
1.98399
2.01104
2.2258
2.25004
2.27969
2.27822
2.24802
2.21858
2.19669
2.17702
2.14829
2.1134
2.09322
2.08428
2.06791
2.03881
2.0089
1.99378
1.98507
1.97087
1.94856
1.9197
1.90323
1.88547
1.871
1.87518
1.91991
2.03385
2.12346
2.15465
2.1701
2.16543
2.153
2.13632
2.12226
2.11433
2.10861
2.10427
2.09827
2.09017
2.0785
2.06856
2.06218
2.05647
2.0508
2.04434
2.03543
2.02527
2.01793
2.01196
2.006
1.99936
1.99149
1.98177
1.97112
1.96282
1.95701
1.952
1.94695
1.94115
1.93383
1.92515
1.91646
1.90865
1.90175
1.8953
1.88894
1.88241
1.87495
1.86778
1.8644
1.86766
1.88391
1.91316
1.94362
1.97852
1.98947
1.98874
1.98296
1.97189
1.96529
1.96148
1.9593
1.95661
1.95201
1.94597
1.93775
1.92965
1.92427
1.91997
1.9146
1.9076
1.90112
1.89572
1.89643
1.90186
1.92044
1.96016
2.29901
2.32095
2.3204
2.29703
2.26551
2.23947
2.2161
2.19874
2.17804
2.14613
2.12011
2.10729
2.09405
2.06826
2.03702
2.0179
2.00646
1.99239
1.97239
1.94461
1.92323
1.90781
1.88656
1.87138
1.86253
1.88476
1.97658
2.06882
2.11647
2.13717
2.13251
2.11716
2.09718
2.08703
2.08136
2.07777
2.07203
2.06383
2.051
2.03855
2.03206
2.02722
2.02245
2.01674
2.00901
1.9981
1.98832
1.982
1.97651
1.97066
1.96399
1.95601
1.94661
1.93749
1.93031
1.92457
1.91948
1.91433
1.90844
1.90169
1.89425
1.88607
1.87798
1.87065
1.86386
1.85834
1.85304
1.85494
1.86207
1.88049
1.91519
1.94016
1.95906
1.97212
1.97472
1.97297
1.96731
1.95798
1.94808
1.94245
1.93898
1.93708
1.93375
1.92894
1.92266
1.91424
1.90683
1.90195
1.89736
1.89194
1.8853
1.87888
1.87327
1.8714
1.87437
1.90316
2.35931
2.35176
2.33358
2.30143
2.27477
2.25576
2.23409
2.21361
2.19579
2.17027
2.14166
2.12374
2.11175
2.08969
2.05968
2.037
2.02302
2.00813
1.98829
1.96252
1.93756
1.92127
1.90377
1.88116
1.85875
1.85147
1.85953
1.92057
2.00923
2.07086
2.09441
2.09166
2.07513
2.06382
2.05654
2.05136
2.04498
2.0368
2.02439
2.01038
2.00309
1.99875
1.99445
1.98899
1.98227
1.9728
1.96097
1.95214
1.94644
1.94161
1.9363
1.93022
1.92282
1.91407
1.90555
1.89829
1.89207
1.88669
1.88213
1.87735
1.87118
1.86262
1.85405
1.84594
1.83952
1.83706
1.84055
1.85356
1.87596
1.91483
1.9459
1.95121
1.95509
1.95412
1.95407
1.95271
1.94825
1.94226
1.93325
1.92505
1.92082
1.91817
1.91575
1.91191
1.90716
1.90053
1.89236
1.88647
1.88225
1.87804
1.87313
1.86705
1.86047
1.85322
1.85065
1.8612
2.36384
2.349
2.32886
2.30029
2.28051
2.26718
2.24768
2.22256
2.20267
2.18439
2.15898
2.13652
2.12232
2.10319
2.07559
2.05133
2.03416
2.01849
1.99842
1.97475
1.94886
1.92911
1.913
1.89354
1.86837
1.84618
1.83331
1.83523
1.87373
1.95165
2.02218
2.04553
2.04567
2.04394
2.03867
2.0315
2.02311
2.01399
2.00247
1.98936
1.98016
1.97509
1.97176
1.96721
1.96093
1.95259
1.94129
1.93053
1.92225
1.91659
1.91231
1.90755
1.90168
1.89349
1.88507
1.877
1.86987
1.86459
1.85996
1.85543
1.84863
1.83992
1.8323
1.82467
1.82298
1.82622
1.8426
1.87147
1.90512
1.94262
1.95022
1.9482
1.94204
1.93706
1.93517
1.93494
1.93203
1.92763
1.92082
1.91211
1.9066
1.90355
1.90154
1.89898
1.89546
1.89037
1.88266
1.87572
1.87128
1.86784
1.8644
1.86023
1.85469
1.8469
1.83947
1.8391
2.35727
2.34223
2.32244
2.29558
2.27937
2.26908
2.2515
2.22567
2.20403
2.18998
2.17024
2.14527
2.12667
2.10914
2.08439
2.06071
2.04135
2.0236
2.00406
1.98128
1.95855
1.93564
1.91776
1.90103
1.88084
1.85582
1.83336
1.81772
1.81868
1.84076
1.90163
1.96967
2.00465
2.01962
2.02242
2.01551
2.00656
1.99865
1.98983
1.97935
1.97069
1.96295
1.95414
1.9449
1.93836
1.93356
1.92845
1.92166
1.91357
1.90274
1.8908
1.88359
1.87997
1.87715
1.87219
1.86559
1.85588
1.84263
1.83323
1.82732
1.82396
1.82221
1.81944
1.81666
1.81887
1.83504
1.86957
1.89954
1.92601
1.94245
1.94363
1.94154
1.93424
1.92797
1.92559
1.92365
1.9214
1.91805
1.9136
1.90714
1.90157
1.89895
1.89672
1.89391
1.89028
1.8854
1.87878
1.87175
1.86772
1.86549
1.86342
1.86008
1.85549
1.84771
1.83791
1.83249
2.36288
2.34588
2.32339
2.29814
2.28392
2.2736
2.25438
2.22677
2.20436
2.19192
2.17639
2.15247
2.12921
2.11192
2.09062
2.06865
2.04877
2.02896
2.00908
1.98748
1.96617
1.94609
1.92563
1.90871
1.89207
1.871
1.848
1.82802
1.81097
1.81091
1.82164
1.86729
1.92933
1.98484
2.00683
2.00208
1.99226
1.9874
1.98409
1.98021
1.9735
1.964
1.95067
1.93655
1.92699
1.92136
1.91737
1.91362
1.90778
1.89827
1.88504
1.87539
1.86946
1.86459
1.85994
1.85443
1.84613
1.83398
1.82195
1.81293
1.80914
1.81011
1.81343
1.82334
1.84453
1.88125
1.909
1.92156
1.93288
1.9411
1.9426
1.94016
1.93446
1.92641
1.91994
1.91717
1.91647
1.91561
1.91299
1.90966
1.9047
1.8977
1.89266
1.88959
1.88634
1.88288
1.87939
1.876
1.87156
1.86552
1.86073
1.85729
1.85333
1.84881
1.84223
1.83471
2.41184
2.38083
2.3456
2.3163
2.29994
2.28641
2.26316
2.23531
2.21385
2.20054
2.18468
2.161
2.13387
2.11486
2.09722
2.07739
2.05846
2.03823
2.01792
1.99783
1.97815
1.96015
1.94203
1.92349
1.90741
1.8924
1.87452
1.85576
1.83548
1.81934
1.81522
1.82124
1.85187
1.90672
1.97253
2.00322
1.99832
1.99665
1.9915
1.98451
1.97703
1.96839
1.95663
1.94161
1.93126
1.92528
1.92009
1.91432
1.90745
1.89781
1.88634
1.87765
1.87171
1.86633
1.8607
1.85318
1.8432
1.83176
1.81957
1.81401
1.81403
1.81659
1.83099
1.85986
1.89695
1.93017
1.93706
1.93958
1.94263
1.94422
1.9449
1.9424
1.93871
1.93263
1.92498
1.92129
1.91986
1.92028
1.91937
1.91677
1.9121
1.90397
1.89587
1.89189
1.89018
1.88953
1.88791
1.88526
1.88062
1.87264
1.86397
1.85891
1.85624
1.85457
1.85306
1.84699
2.49552
2.45017
2.40907
2.373
2.34612
2.32384
2.29473
2.26413
2.24254
2.22852
2.2105
2.18521
2.15741
2.13884
2.12251
2.10467
2.08752
2.06769
2.04266
2.01848
1.99805
1.98245
1.96969
1.95491
1.9377
1.92032
1.90344
1.88656
1.87
1.85361
1.84151
1.83438
1.83374
1.84969
1.89748
1.96477
2.0013
2.01345
2.01291
2.00392
1.99342
1.98358
1.97165
1.95772
1.94669
1.93841
1.93093
1.92337
1.91493
1.90523
1.89589
1.88764
1.87963
1.8714
1.86322
1.85429
1.8446
1.83567
1.82824
1.82525
1.82866
1.846
1.8801
1.9125
1.94424
1.96086
1.96343
1.96094
1.95558
1.95239
1.95061
1.94976
1.94882
1.94661
1.94183
1.93545
1.93141
1.92964
1.92853
1.92648
1.92305
1.91818
1.91164
1.9055
1.90204
1.89997
1.89799
1.89521
1.89108
1.88504
1.87784
1.87211
1.86897
1.86671
1.86453
1.85886
2.57834
2.53632
2.49296
2.45238
2.41823
2.38883
2.35717
2.32312
2.29646
2.27759
2.25581
2.22875
2.20006
2.18102
2.16614
2.14731
2.12608
2.10393
2.08486
2.06663
2.04994
2.03354
2.01666
2.00142
1.9857
1.96824
1.95255
1.93934
1.92723
1.91307
1.89641
1.87554
1.85403
1.85347
1.86348
1.90042
1.95701
2.00082
2.03051
2.02824
2.01866
2.00675
1.99346
1.98073
1.97044
1.96075
1.95041
1.93951
1.92931
1.92082
1.91331
1.90555
1.89584
1.88324
1.86954
1.85871
1.85185
1.84906
1.84878
1.85501
1.87637
1.91527
1.94385
1.96124
1.98156
1.99116
1.99058
1.98526
1.97565
1.96853
1.9664
1.96568
1.9668
1.96666
1.96492
1.96085
1.95469
1.95001
1.94702
1.94418
1.94119
1.93809
1.93458
1.92971
1.92448
1.92049
1.91719
1.91371
1.90983
1.90546
1.90045
1.89514
1.89082
1.88742
1.88488
1.87936
2.61556
2.58999
2.55875
2.52618
2.49498
2.46311
2.42804
2.39364
2.3652
2.34308
2.31977
2.29102
2.26125
2.24036
2.22339
2.20247
2.17945
2.15544
2.13304
2.11473
2.09888
2.08278
2.06493
2.04483
2.02411
2.00546
1.98984
1.97653
1.96358
1.94879
1.93023
1.91115
1.89245
1.87896
1.87219
1.87731
1.9018
1.94701
2.00463
2.04124
2.03786
2.02864
2.01824
2.00684
1.99668
1.98584
1.97219
1.95667
1.94672
1.93986
1.93386
1.92654
1.91619
1.90072
1.88261
1.87367
1.86972
1.87438
1.88893
1.91835
1.96122
1.99099
1.99913
2.0062
2.01173
2.01503
2.01364
2.01051
2.00501
1.99687
1.99303
1.99176
1.99147
1.99167
1.99058
1.98885
1.98453
1.9786
1.97432
1.97106
1.96799
1.96492
1.9616
1.9574
1.95192
1.94659
1.94248
1.93893
1.93536
1.93156
1.92724
1.92234
1.91748
1.91314
1.91007
1.90431
2.62849
2.61015
2.58935
2.56717
2.54315
2.51593
2.48588
2.45668
2.43146
2.40912
2.38189
2.3501
2.32153
2.30013
2.28179
2.25967
2.23432
2.20942
2.18739
2.16824
2.15075
2.13299
2.11346
2.09162
2.06942
2.04999
2.03363
2.01889
2.00394
1.98747
1.96812
1.9482
1.92887
1.91237
1.8974
1.88566
1.88525
1.89741
1.93567
1.99907
2.03013
2.03868
2.03693
2.02937
2.01902
2.00622
1.98994
1.97151
1.95981
1.95309
1.94843
1.94175
1.93226
1.91908
1.90441
1.89612
1.89874
1.91236
1.95383
1.99863
2.03663
2.04717
2.04362
2.03962
2.03687
2.0372
2.03855
2.03793
2.03531
2.0291
2.02364
2.02154
2.02031
2.01981
2.01884
2.01724
2.01377
2.00821
2.00333
1.99983
1.99674
1.99364
1.9903
1.98619
1.98075
1.97461
1.96937
1.96539
1.9619
1.95838
1.95448
1.94986
1.94468
1.93946
1.93543
1.92904
2.6255
2.61219
2.59874
2.58293
2.56417
2.54256
2.51945
2.49676
2.47506
2.45218
2.42509
2.39691
2.3721
2.35221
2.33267
2.30863
2.28072
2.25508
2.23419
2.2143
2.19497
2.17514
2.15375
2.13096
2.10872
2.0888
2.07085
2.05382
2.03657
2.01829
1.99846
1.97802
1.9583
1.93991
1.92295
1.90558
1.89265
1.88292
1.88757
1.92035
1.97778
2.01592
2.04036
2.0417
2.0323
2.01842
2.00135
1.98411
1.97061
1.96121
1.95472
1.94775
1.9396
1.93161
1.92284
1.92206
1.9365
1.98581
2.03105
2.06357
2.08165
2.08101
2.07545
2.06802
2.06447
2.06331
2.06277
2.06172
2.05899
2.05499
2.05118
2.04886
2.04725
2.04572
2.04389
2.04112
2.03703
2.03233
2.02818
2.02477
2.02175
2.01852
2.01464
2.00978
2.00395
1.99787
1.99237
1.98785
1.98416
1.98053
1.97639
1.97157
1.96651
1.96187
1.95818
1.95117
2.62856
2.61508
2.60161
2.58671
2.57033
2.5526
2.5344
2.51617
2.49684
2.47456
2.45002
2.42647
2.40598
2.38768
2.36554
2.33976
2.31213
2.2892
2.26904
2.24839
2.22776
2.20623
2.18301
2.15957
2.13783
2.11789
2.09884
2.07989
2.06028
2.0399
2.01912
1.99892
1.97964
1.96085
1.94217
1.92306
1.90439
1.88719
1.87564
1.8777
1.90238
1.95252
2.00584
2.03171
2.02969
2.02128
2.00792
1.99461
1.98137
1.96858
1.95592
1.94619
1.94041
1.93804
1.94088
1.96539
2.02147
2.0685
2.08553
2.09677
2.09944
2.09819
2.09575
2.09228
2.08716
2.08231
2.07919
2.07718
2.07611
2.07515
2.07358
2.07119
2.06772
2.06403
2.06049
2.05686
2.0537
2.05097
2.0479
2.044
2.03958
2.03501
2.03003
2.02484
2.02004
2.01588
2.01174
2.00685
2.00146
1.99632
1.99142
1.98686
1.98285
1.97903
1.97502
1.96589
2.63522
2.62096
2.60637
2.59094
2.57485
2.55837
2.54183
2.52458
2.50558
2.4844
2.46245
2.44167
2.4233
2.40476
2.38153
2.35548
2.33089
2.31052
2.29096
2.27
2.24777
2.22357
2.19896
2.1764
2.15581
2.1362
2.11661
2.09615
2.07415
2.0515
2.03021
2.01095
1.99297
1.97497
1.95613
1.9354
1.91353
1.89265
1.87535
1.86695
1.8657
1.88351
1.93043
1.98263
2.00664
2.00988
2.00549
1.99682
1.98623
1.97311
1.95619
1.94273
1.94211
1.9486
1.98247
2.04027
2.09622
2.11197
2.10887
2.10688
2.10443
2.10534
2.10591
2.10376
2.09972
2.09291
2.0888
2.08734
2.08706
2.08744
2.08594
2.08326
2.07848
2.07262
2.06876
2.06626
2.06392
2.06134
2.05815
2.05342
2.04735
2.04229
2.03834
2.03476
2.03138
2.0279
2.02367
2.01773
2.01062
2.00488
2.00064
1.9968
1.99288
1.9884
1.98309
1.97173
2.64244
2.62756
2.6122
2.59626
2.57997
2.56354
2.54669
2.5288
2.50958
2.48933
2.46908
2.44991
2.43162
2.41075
2.38645
2.36129
2.34021
2.3219
2.30239
2.28065
2.25645
2.23066
2.20671
2.18544
2.16575
2.14647
2.12662
2.10503
2.08121
2.05728
2.03584
2.01732
2.00035
1.98344
1.96518
1.944
1.91985
1.89674
1.87717
1.86351
1.85639
1.85287
1.86317
1.90045
1.95041
1.97592
1.99063
1.98982
1.98155
1.96996
1.95707
1.94678
1.95237
1.98911
2.04664
2.102
2.12405
2.12519
2.11677
2.10952
2.10715
2.10764
2.10876
2.10712
2.10406
2.09839
2.09459
2.09298
2.09197
2.09121
2.08925
2.08632
2.08147
2.07622
2.07248
2.06978
2.06724
2.06443
2.06101
2.05651
2.0514
2.04707
2.04369
2.04058
2.03728
2.03343
2.02837
2.02192
2.01536
2.00993
2.00547
2.00138
1.99704
1.99171
1.98547
1.97467
2.64289
2.62907
2.61436
2.59897
2.58303
2.56651
2.54895
2.53024
2.51082
2.49144
2.47275
2.45477
2.43518
2.41125
2.38645
2.36441
2.34483
2.3269
2.30664
2.28437
2.25962
2.23428
2.21146
2.19099
2.17138
2.15174
2.1311
2.10869
2.08456
2.061
2.03991
2.02134
2.00421
1.9873
1.96924
1.94865
1.92501
1.90171
1.88062
1.86338
1.85169
1.84253
1.83633
1.8402
1.87011
1.91797
1.95365
1.97394
1.97152
1.96522
1.9577
1.96542
1.99966
2.05122
2.10003
2.12297
2.12507
2.12172
2.11407
2.10899
2.1076
2.10851
2.10882
2.10729
2.10455
2.10064
2.09758
2.09553
2.09369
2.09195
2.0898
2.08661
2.08244
2.07837
2.07481
2.07142
2.06833
2.06533
2.06191
2.05798
2.054
2.05028
2.04667
2.04313
2.03933
2.03487
2.02964
2.024
2.0184
2.01317
2.0082
2.00337
1.99835
1.99236
1.98621
1.97675
2.64244
2.62989
2.61593
2.60112
2.58541
2.56883
2.55127
2.53289
2.51405
2.49514
2.47618
2.45674
2.43596
2.41342
2.39071
2.36922
2.34928
2.32915
2.3075
2.2846
2.26058
2.23726
2.21591
2.19537
2.17489
2.15416
2.13238
2.1093
2.08635
2.06485
2.0447
2.02534
2.00662
1.98849
1.96917
1.94894
1.92855
1.90864
1.88897
1.86914
1.85119
1.83585
1.82244
1.81279
1.81762
1.8444
1.88817
1.93585
1.95246
1.95736
1.97642
2.01529
2.06741
2.10436
2.1232
2.12482
2.12022
2.11446
2.11103
2.10997
2.10976
2.10869
2.10718
2.10491
2.10221
2.10061
2.09904
2.09682
2.09427
2.0919
2.08898
2.08551
2.08227
2.07944
2.07643
2.07294
2.06922
2.06573
2.06227
2.05871
2.05537
2.05198
2.04804
2.04375
2.03924
2.03445
2.02962
2.02499
2.02043
2.01558
2.01023
2.00445
1.99841
1.99206
1.98697
1.97911
2.64074
2.62873
2.61509
2.60061
2.5851
2.56863
2.5514
2.53363
2.51542
2.49679
2.47749
2.4569
2.43481
2.41295
2.39263
2.37353
2.3526
2.33013
2.30705
2.28383
2.26133
2.24039
2.22002
2.19937
2.17773
2.15466
2.13099
2.10823
2.08746
2.06845
2.04974
2.03031
2.0094
1.98724
1.96575
1.94645
1.92929
1.91341
1.89687
1.87808
1.8567
1.8344
1.81477
1.79984
1.79336
1.79916
1.8242
1.87213
1.92261
1.9668
2.02325
2.07337
2.11344
2.125
2.12349
2.11773
2.11236
2.10995
2.11095
2.11184
2.11058
2.10787
2.10355
2.10104
2.10033
2.10006
2.09986
2.09826
2.09536
2.09075
2.08664
2.08409
2.08202
2.07995
2.07763
2.07451
2.07022
2.06567
2.06236
2.05974
2.05699
2.05365
2.04931
2.04382
2.03846
2.03386
2.02968
2.0257
2.02162
2.01713
2.0117
2.00516
1.99834
1.99218
1.98837
1.98144
2.64023
2.62837
2.6148
2.60048
2.5851
2.56885
2.55199
2.53461
2.51659
2.49768
2.4777
2.45685
2.43608
2.41573
2.39607
2.37631
2.35398
2.33077
2.30656
2.28347
2.26319
2.24338
2.22342
2.20257
2.17943
2.15368
2.12839
2.10717
2.08917
2.07227
2.05478
2.03478
2.01021
1.98337
1.96056
1.94411
1.93085
1.91814
1.90363
1.88381
1.85607
1.82781
1.80753
1.79379
1.7835
1.77935
1.78744
1.81482
1.88373
1.98069
2.05795
2.11742
2.15363
2.15075
2.13325
2.11478
2.10904
2.10778
2.10966
2.11067
2.10935
2.10599
2.10099
2.09955
2.09946
2.10124
2.10135
2.09938
2.09544
2.08925
2.08538
2.08326
2.08191
2.08062
2.07859
2.07559
2.07058
2.06564
2.06223
2.05922
2.05618
2.05292
2.04872
2.04292
2.03735
2.03344
2.0301
2.0267
2.02294
2.01856
2.0128
2.00532
1.99828
1.99334
1.98971
1.9823
)
;

boundaryField
{
    inlet
    {
        type            fixedValue;
        value           uniform 1;
    }
    outlet
    {
        type            inletOutlet;
        inletValue      uniform 1;
        value           nonuniform List<scalar> 
32
(
2.47893
2.46343
2.43438
2.39185
2.32044
2.24344
2.17899
2.13234
2.10186
2.08403
2.06838
2.04627
2.01099
1.96015
1.90321
1.86131
1.83909
1.8324
1.83464
1.84712
1.85902
1.87947
1.90445
1.9292
1.95124
1.96554
1.97116
1.97445
1.97682
1.97935
1.98168
1.98238
)
;
    }
    bottom
    {
        type            symmetryPlane;
    }
    top
    {
        type            symmetryPlane;
    }
    obstacle
    {
        type            zeroGradient;
    }
    defaultFaces
    {
        type            empty;
    }
}


// ************************************************************************* //
