/*--------------------------------*- C++ -*----------------------------------*\
  =========                 |
  \\      /  F ield         | OpenFOAM: The Open Source CFD Toolbox
   \\    /   O peration     | Website:  https://openfoam.org
    \\  /    A nd           | Version:  7
     \\/     M anipulation  |
\*---------------------------------------------------------------------------*/
FoamFile
{
    version     2.0;
    format      ascii;
    class       volVectorField;
    location    "10";
    object      U;
}
// * * * * * * * * * * * * * * * * * * * * * * * * * * * * * * * * * * * * * //

dimensions      [0 1 -1 0 0 0 0];

internalField   nonuniform List<vector> 
4032
(
(3 3.93026e-18 0)
(3 4.83406e-17 0)
(3 4.21188e-18 0)
(3 -4.61089e-17 0)
(3 -4.68439e-16 0)
(3 -7.51571e-16 0)
(3 -9.91416e-16 0)
(3 -8.57261e-16 0)
(3 -5.91081e-16 0)
(3 -1.42855e-16 0)
(3 -3.18621e-17 0)
(2.9006 0.00319823 0)
(0.988391 0.0160724 0)
(0.709478 0.0193247 0)
(0.657761 0.0241193 0)
(0.597997 0.0255726 0)
(0.539117 0.0267773 0)
(0.478409 0.0281106 0)
(0.415917 0.0296194 0)
(0.350988 0.031422 0)
(0.283113 0.0334203 0)
(0.210708 0.0364592 0)
(0.132042 0.0391046 0)
(0.0494415 0.0445658 0)
(3 -1.37585e-16 0)
(3 -1.74884e-16 0)
(3 -1.97286e-17 0)
(3 2.20884e-16 0)
(3 -6.51619e-16 0)
(3 -9.20745e-16 0)
(3 -1.03878e-15 0)
(3 -1.27215e-15 0)
(3 -5.69845e-16 0)
(3 -9.3889e-17 0)
(3 6.77207e-17 0)
(2.91071 0.0202671 0)
(0.994529 0.0743248 0)
(0.695514 0.0666367 0)
(0.641462 0.0708 0)
(0.582786 0.0753147 0)
(0.52412 0.079705 0)
(0.463135 0.0843526 0)
(0.400097 0.0891287 0)
(0.334891 0.0946669 0)
(0.267559 0.100617 0)
(0.19749 0.110253 0)
(0.122268 0.118885 0)
(0.045985 0.134604 0)
(3 -2.36939e-16 0)
(3 -2.53524e-16 0)
(3 -3.05701e-16 0)
(3 -2.28051e-16 0)
(3 -3.41615e-16 0)
(3 -2.1882e-16 0)
(3 -3.10384e-16 0)
(3 -8.46876e-16 0)
(3 -1.09274e-15 0)
(3 -7.33532e-16 0)
(3 -6.09544e-16 0)
(2.95465 0.0399896 0)
(1.03214 0.137696 0)
(0.710933 0.115736 0)
(0.656501 0.122327 0)
(0.595799 0.129773 0)
(0.53498 0.137335 0)
(0.471819 0.145398 0)
(0.406187 0.15338 0)
(0.33788 0.16208 0)
(0.266969 0.170177 0)
(0.194424 0.183611 0)
(0.117711 0.195146 0)
(0.0438135 0.217491 0)
(3 -8.82464e-17 0)
(3 -4.54087e-16 0)
(3 -1.05301e-15 0)
(3 -1.04566e-15 0)
(3 -8.55536e-16 0)
(3 -8.13864e-16 0)
(3 -4.96952e-16 0)
(3 -3.59304e-16 0)
(3 -6.93059e-16 0)
(3 -1.70866e-16 0)
(3 1.33494e-16 0)
(3.00831 0.00631222 0)
(1.10756 0.182161 0)
(0.743572 0.152641 0)
(0.692108 0.166586 0)
(0.632719 0.178554 0)
(0.571742 0.190105 0)
(0.507983 0.202895 0)
(0.440398 0.216193 0)
(0.3682 0.231217 0)
(0.290777 0.244408 0)
(0.211127 0.26287 0)
(0.126817 0.277031 0)
(0.0459006 0.302474 0)
(3 -9.59682e-17 0)
(3 -2.06039e-16 0)
(3 -5.42068e-16 0)
(3 -9.24005e-16 0)
(3 -1.08637e-15 0)
(3 -6.0119e-16 0)
(3 -5.22006e-17 0)
(3 1.93068e-16 0)
(3 1.24806e-16 0)
(3 1.73976e-16 0)
(3 2.97346e-16 0)
(3.00059 3.04544e-05 0)
(1.21628 0.224409 0)
(0.750157 0.197026 0)
(0.695655 0.217712 0)
(0.639687 0.234221 0)
(0.58138 0.249252 0)
(0.521107 0.266825 0)
(0.457238 0.285715 0)
(0.389341 0.307391 0)
(0.314695 0.32543 0)
(0.235678 0.348567 0)
(0.145598 0.367768 0)
(0.0549974 0.399402 0)
(3 -2.64528e-17 0)
(3 1.20349e-16 0)
(3 5.66895e-17 0)
(3 -1.31697e-16 0)
(3 -2.48687e-17 0)
(3 1.08949e-16 0)
(3 -5.28762e-17 0)
(3 2.0922e-18 0)
(3 1.48412e-16 0)
(3 -3.69082e-17 0)
(3 -1.64782e-16 0)
(3 -1.18872e-07 0)
(1.3961 0.27459 0)
(0.765612 0.245366 0)
(0.696953 0.261885 0)
(0.648019 0.28109 0)
(0.597896 0.298838 0)
(0.547501 0.32035 0)
(0.492157 0.344667 0)
(0.430403 0.375121 0)
(0.355163 0.405405 0)
(0.268323 0.443149 0)
(0.166194 0.47837 0)
(0.0561684 0.517346 0)
(3 1.29669e-16 0)
(3 -3.56655e-16 0)
(3 -2.01816e-16 0)
(3 2.77929e-16 0)
(3 7.90656e-16 0)
(3 6.2834e-16 0)
(3 2.92469e-16 0)
(3 3.09124e-16 0)
(3 3.29533e-16 0)
(3 -8.38863e-17 0)
(3 -3.80282e-16 0)
(3 -1.1786e-07 0)
(1.67012 0.325797 0)
(0.796039 0.309303 0)
(0.696695 0.30866 0)
(0.645923 0.32521 0)
(0.597948 0.343549 0)
(0.55464 0.369856 0)
(0.508361 0.40237 0)
(0.459093 0.44497 0)
(0.397799 0.492035 0)
(0.326601 0.543747 0)
(0.233509 0.594823 0)
(0.101468 0.660625 0)
(3 5.83839e-18 0)
(3 7.74156e-17 0)
(3 1.52445e-16 0)
(3 5.29898e-16 0)
(3 7.0467e-16 0)
(3 6.31869e-16 0)
(3 6.86742e-16 0)
(3 7.2624e-16 0)
(3 4.8313e-16 0)
(3 -1.72886e-16 0)
(3 -6.57682e-16 0)
(3 -2.45825e-08 0)
(2.07316 0.367291 0)
(0.852376 0.394451 0)
(0.716945 0.370109 0)
(0.667219 0.379045 0)
(0.620249 0.392299 0)
(0.579547 0.416691 0)
(0.540556 0.452286 0)
(0.502009 0.501243 0)
(0.457753 0.560562 0)
(0.395806 0.641596 0)
(0.275834 0.75795 0)
(0.151726 0.925263 0)
(3 -9.04556e-17 0)
(3 7.30121e-16 0)
(3 9.42909e-16 0)
(3 5.47607e-16 0)
(3 2.83809e-16 0)
(3 2.29575e-17 0)
(3 2.27978e-16 0)
(3 3.11935e-16 0)
(3 1.00949e-16 0)
(3 6.21599e-17 0)
(3 1.90147e-17 0)
(3 -2.54388e-09 0)
(2.65706 0.302587 0)
(0.984693 0.477862 0)
(0.803514 0.406398 0)
(0.751708 0.414942 0)
(0.694045 0.433349 0)
(0.642638 0.459487 0)
(0.599878 0.496746 0)
(0.563649 0.550086 0)
(0.529908 0.626889 0)
(0.497219 0.751023 0)
(0.466006 0.923388 0)
(0.578277 1.20308 0)
(3 3.58917e-16 0)
(3 4.46895e-16 0)
(3 5.70614e-16 0)
(3 -1.99061e-16 0)
(3 -5.81696e-16 0)
(3 -2.2844e-16 0)
(3 4.73956e-17 0)
(3 4.0401e-16 0)
(3 6.29782e-16 0)
(3 9.44254e-16 0)
(3 6.1289e-16 0)
(3 -1.02264e-10 0)
(3.07663 0.0425339 0)
(1.2194 0.469483 0)
(0.882237 0.447572 0)
(0.83872 0.474154 0)
(0.78518 0.489834 0)
(0.730873 0.511222 0)
(0.682574 0.544831 0)
(0.643771 0.597081 0)
(0.624481 0.68171 0)
(0.623676 0.816617 0)
(0.686779 0.965817 0)
(0.968936 1.13815 0)
(3 -2.89815e-17 0)
(3 -3.66074e-16 0)
(3 -4.65187e-16 0)
(3 -3.55775e-16 0)
(3 -4.7648e-16 0)
(3 -2.56962e-16 0)
(3 -3.79917e-17 0)
(3 6.59506e-17 0)
(3 2.35715e-16 0)
(3 2.45364e-16 0)
(3 6.01881e-16 0)
(3 -2.13037e-12 0)
(3.00859 8.0613e-05 0)
(1.43656 0.462142 0)
(0.884164 0.512234 0)
(0.836621 0.531582 0)
(0.80098 0.550961 0)
(0.772576 0.575516 0)
(0.745044 0.607628 0)
(0.720463 0.651687 0)
(0.723348 0.725558 0)
(0.751358 0.839977 0)
(0.873142 0.963607 0)
(1.1783 1.06969 0)
(3 -1.73855e-16 0)
(3 -6.15854e-16 0)
(3 -4.73433e-16 0)
(3 -3.13629e-17 0)
(3 -7.13722e-17 0)
(3 -1.08753e-16 0)
(3 -1.22836e-16 0)
(3 -3.51226e-16 0)
(3 -8.59998e-17 0)
(3 6.52637e-17 0)
(3 6.78636e-16 0)
(3 -1.76817e-14 0)
(3.00006 -2.4876e-06 0)
(1.94382 0.494171 0)
(0.929149 0.576735 0)
(0.853478 0.560341 0)
(0.834113 0.582036 0)
(0.819739 0.607609 0)
(0.809628 0.642256 0)
(0.801871 0.682721 0)
(0.817545 0.74611 0)
(0.867236 0.837404 0)
(1.0106 0.939648 0)
(1.27228 1.00841 0)
(3 -1.68509e-16 0)
(3 1.55413e-16 0)
(3 -8.32857e-17 0)
(3 -3.35282e-16 0)
(3 -8.82245e-16 0)
(3 -1.15309e-15 0)
(3 -1.00408e-15 0)
(3 -7.93177e-16 0)
(3 -5.00654e-16 0)
(3 1.02805e-16 0)
(3 4.92823e-16 0)
(3 7.68456e-16 0)
(3.00001 -3.15947e-06 0)
(2.74814 0.318961 0)
(1.09662 0.634983 0)
(0.920718 0.580772 0)
(0.891611 0.601702 0)
(0.874014 0.630637 0)
(0.870214 0.668872 0)
(0.876499 0.710964 0)
(0.901418 0.765526 0)
(0.96642 0.83448 0)
(1.10618 0.906526 0)
(1.31687 0.948202 0)
(3 -1.18077e-16 0)
(3 8.45622e-17 0)
(3 -8.51297e-17 0)
(3 -4.28373e-16 0)
(3 -4.03154e-16 0)
(3 -5.29615e-16 0)
(3 -5.70787e-16 0)
(3 -7.34342e-16 0)
(3 -3.87395e-16 0)
(3 -1.38987e-16 0)
(3 3.48438e-16 0)
(3 5.52647e-16 0)
(3 -6.66799e-07 0)
(3.07445 0.0259541 0)
(1.43603 0.63165 0)
(1.00192 0.652553 0)
(0.950576 0.652207 0)
(0.924965 0.666741 0)
(0.923236 0.694194 0)
(0.939466 0.730372 0)
(0.974381 0.773739 0)
(1.04769 0.827578 0)
(1.17527 0.87898 0)
(1.34787 0.905998 0)
(3 2.67467e-16 0)
(3 -1.46128e-16 0)
(3 1.22603e-16 0)
(3 1.1604e-16 0)
(3 5.81352e-16 0)
(3 5.11745e-16 0)
(3 4.17566e-16 0)
(3 1.49138e-16 0)
(3 -7.98662e-17 0)
(3 2.30402e-16 0)
(3 2.07298e-16 0)
(3 1.53213e-16 0)
(3 -6.76955e-08 0)
(3.00412 7.28932e-05 0)
(1.9903 0.599955 0)
(1.06353 0.724421 0)
(1.01094 0.701938 0)
(0.994953 0.698932 0)
(0.991331 0.715146 0)
(1.00611 0.741821 0)
(1.04426 0.777732 0)
(1.11481 0.816376 0)
(1.22311 0.849746 0)
(1.36024 0.865136 0)
(3 3.45447e-18 0)
(3 1.56415e-16 0)
(3 5.16357e-16 0)
(3 5.40757e-16 0)
(3 3.87299e-16 0)
(3 3.6065e-16 0)
(3 -2.83672e-16 0)
(3 -1.11751e-15 0)
(3 -1.27323e-15 0)
(3 -5.89197e-16 0)
(3 -5.99268e-16 0)
(3 -5.32522e-16 0)
(3 -2.14377e-09 0)
(3.00001 -3.25801e-07 0)
(2.93374 0.221331 0)
(1.28204 0.698022 0)
(1.08253 0.719068 0)
(1.08724 0.720442 0)
(1.08174 0.740588 0)
(1.08685 0.762069 0)
(1.11472 0.788272 0)
(1.17539 0.817324 0)
(1.26461 0.839259 0)
(1.37803 0.847557 0)
(3 -3.1646e-17 0)
(3 5.3212e-16 0)
(3 3.49561e-16 0)
(3 6.12766e-16 0)
(3 3.56463e-16 0)
(3 3.38786e-16 0)
(3 -3.20982e-16 0)
(3 -1.09013e-15 0)
(3 -1.17633e-15 0)
(3 -2.30615e-15 0)
(3 -2.00414e-15 0)
(3 -1.89826e-15 0)
(3 -4.74508e-12 0)
(3 -7.75276e-07 0)
(3.04111 0.00640592 0)
(1.5729 0.659824 0)
(1.10012 0.756498 0)
(1.11127 0.76531 0)
(1.11717 0.783161 0)
(1.13968 0.795164 0)
(1.17363 0.806045 0)
(1.22773 0.817564 0)
(1.30238 0.828121 0)
(1.39823 0.830819 0)
(3 1.15573e-16 0)
(3 1.26011e-16 0)
(3 9.67273e-17 0)
(3 3.16212e-16 0)
(3 2.60955e-16 0)
(3 -6.41337e-17 0)
(3 -3.15319e-16 0)
(3 -6.44052e-16 0)
(3 -1.24231e-15 0)
(3 -1.96892e-15 0)
(3 -2.19847e-15 0)
(3 -1.07354e-15 0)
(3 -5.3861e-15 0)
(3 -1.48315e-07 0)
(3.00079 3.56738e-05 0)
(2.39012 0.51043 0)
(1.20594 0.788938 0)
(1.1354 0.791848 0)
(1.14875 0.795481 0)
(1.17684 0.805298 0)
(1.21672 0.816907 0)
(1.26937 0.827397 0)
(1.33765 0.833759 0)
(1.41946 0.833418 0)
(3 -8.55444e-17 0)
(3 -3.14913e-16 0)
(3 -1.84051e-16 0)
(3 -2.80492e-16 0)
(3 -9.60129e-17 0)
(3 9.50966e-17 0)
(3 4.65327e-18 0)
(3 -2.71709e-16 0)
(3 -7.55501e-16 0)
(3 -7.97451e-16 0)
(3 -8.58025e-16 0)
(3 -3.45791e-17 0)
(3 6.77858e-16 0)
(3 -4.65387e-09 0)
(3.00002 -5.60042e-06 0)
(3.05776 0.07222 0)
(1.56689 0.776451 0)
(1.18493 0.786208 0)
(1.19823 0.79402 0)
(1.22111 0.805969 0)
(1.25873 0.817182 0)
(1.30829 0.826491 0)
(1.37097 0.831487 0)
(1.44445 0.830785 0)
(3 1.35061e-16 0)
(3 -2.26125e-16 0)
(3 -1.94585e-16 0)
(3 2.72313e-16 0)
(3 4.46346e-16 0)
(3 4.06926e-16 0)
(3 1.26472e-16 0)
(3 1.99264e-16 0)
(3 2.27507e-16 0)
(3 9.67565e-17 0)
(3 2.27111e-16 0)
(3 4.1458e-16 0)
(3 1.37157e-15 0)
(3 -1.68209e-11 0)
(3 -1.41248e-06 0)
(3.00813 0.00137627 0)
(2.29549 0.630776 0)
(1.2636 0.848483 0)
(1.22254 0.833484 0)
(1.25531 0.832822 0)
(1.28929 0.837334 0)
(1.33689 0.842337 0)
(1.39568 0.845174 0)
(1.46146 0.845226 0)
(3 7.74828e-17 0)
(3 1.22668e-16 0)
(3 -2.63596e-16 0)
(3 -3.10855e-16 0)
(3 -2.48679e-16 0)
(3 5.74868e-16 0)
(3 6.75219e-16 0)
(3 3.49854e-16 0)
(3 5.06924e-16 0)
(3 2.86124e-16 0)
(3 4.15173e-16 0)
(3 8.25531e-16 0)
(3 1.04779e-15 0)
(3 -6.8279e-15 0)
(3 -1.20662e-07 0)
(3.00003 9.43399e-06 0)
(3.03953 0.117336 0)
(1.62713 0.827346 0)
(1.2684 0.830945 0)
(1.30248 0.83212 0)
(1.3292 0.837613 0)
(1.37417 0.841745 0)
(1.4255 0.846534 0)
(1.48444 0.839875 0)
(3 -7.13265e-18 0)
(3 1.8191e-16 0)
(3 -4.31288e-16 0)
(3 -9.69354e-16 0)
(3 -9.23473e-16 0)
(3 -3.01489e-16 0)
(3 6.68811e-16 0)
(3 8.09459e-16 0)
(3 1.87307e-16 0)
(3 6.33434e-16 0)
(3 6.16415e-16 0)
(3 6.39659e-16 0)
(3 6.86491e-16 0)
(3 8.31025e-16 0)
(3 -1.47393e-09 0)
(3 -1.06704e-07 0)
(3.01057 0.00343335 0)
(2.37271 0.637035 0)
(1.35441 0.885682 0)
(1.32152 0.872219 0)
(1.361 0.865597 0)
(1.39984 0.870054 0)
(1.44055 0.864934 0)
(1.48004 0.849098 0)
(3 -1.28901e-16 0)
(3 -1.31168e-17 0)
(3 1.22098e-16 0)
(3 -1.87526e-17 0)
(3 -9.84602e-16 0)
(3 -8.25948e-16 0)
(3 -3.30735e-17 0)
(3 1.08603e-15 0)
(3 1.2661e-15 0)
(3 1.49789e-15 0)
(3 1.16905e-15 0)
(3 1.34516e-16 0)
(3 -1.29088e-16 0)
(3 1.20236e-16 0)
(3 -3.33024e-12 0)
(3 -2.65776e-08 0)
(3.00005 4.17893e-05 0)
(3.0336 0.104776 0)
(1.75617 0.835738 0)
(1.35667 0.876349 0)
(1.41188 0.87732 0)
(1.43876 0.876054 0)
(1.44661 0.849319 0)
(1.43868 0.777096 0)
(3 1.20339e-16 0)
(3 -3.46914e-16 0)
(3 6.7715e-17 0)
(3 6.27287e-17 0)
(3 -3.8046e-17 0)
(3 5.2176e-17 0)
(3 4.54291e-16 0)
(3 1.24248e-15 0)
(3 1.93342e-15 0)
(3 1.4156e-15 0)
(3 2.19717e-16 0)
(3 -4.06176e-16 0)
(3 -1.36039e-15 0)
(3 -1.10516e-15 0)
(3 -3.46989e-15 0)
(3 -2.50591e-09 0)
(3 2.43373e-08 0)
(3.0063 0.0041786 0)
(2.59053 0.525042 0)
(1.51491 0.908615 0)
(1.44832 0.928749 0)
(1.43851 0.894237 0)
(1.40283 0.800056 0)
(1.36052 0.673248 0)
(3 7.37037e-17 0)
(3 2.21866e-17 0)
(3 1.64802e-16 0)
(3 3.4492e-16 0)
(3 7.94371e-16 0)
(3 7.07232e-16 0)
(3 5.13885e-16 0)
(3 6.25927e-16 0)
(3 7.03263e-16 0)
(3 8.7419e-17 0)
(3 -3.63175e-16 0)
(3 -3.63017e-16 0)
(3 -4.66563e-17 0)
(3 -3.18134e-16 0)
(3 -2.87942e-16 0)
(3 -1.00177e-10 0)
(3 -9.80728e-11 0)
(3.00002 4.38682e-05 0)
(3.02485 0.0539847 0)
(2.01582 0.776897 0)
(1.50699 0.97453 0)
(1.3723 0.815259 0)
(1.3285 0.674794 0)
(1.32048 0.58934 0)
(3 -3.89243e-17 0)
(3 3.63604e-16 0)
(3 1.85554e-16 0)
(3 1.47373e-16 0)
(3 3.38157e-16 0)
(3 1.96786e-16 0)
(3 -2.03431e-16 0)
(3 -5.51023e-16 0)
(3 -3.85249e-16 0)
(3 2.61823e-16 0)
(3 6.63693e-16 0)
(3 5.89055e-16 0)
(3 -8.91383e-18 0)
(3 -4.6764e-16 0)
(3 2.89289e-16 0)
(3 -8.83718e-13 0)
(3 -3.09786e-11 0)
(3 3.16473e-08 0)
(3.00135 0.00240159 0)
(2.85333 0.306033 0)
(1.68501 0.918396 0)
(1.26084 0.660217 0)
(1.2768 0.600097 0)
(1.31078 0.559125 0)
(3 1.42017e-17 0)
(3 2.23449e-16 0)
(3 1.66733e-16 0)
(3 2.17796e-16 0)
(3 -1.38625e-16 0)
(3 -5.96626e-16 0)
(3 -4.54178e-16 0)
(3 -6.01506e-16 0)
(3 -6.20699e-16 0)
(3 -8.39753e-17 0)
(3 2.20656e-18 0)
(3 -1.90658e-16 0)
(3 -5.66683e-16 0)
(3 -9.47206e-16 0)
(3 3.71791e-16 0)
(3 -1.93156e-15 0)
(3 -4.06051e-12 0)
(3 1.89514e-12 0)
(3 1.38527e-05 0)
(3.01364 0.0184398 0)
(1.83937 0.547909 0)
(1.16329 0.539874 0)
(1.22462 0.533679 0)
(1.29674 0.523747 0)
(3 -1.78017e-17 0)
(3 -1.9609e-16 0)
(3 -1.2074e-16 0)
(3 1.13522e-17 0)
(3 -4.59781e-16 0)
(3 -5.00679e-16 0)
(3 -5.92284e-16 0)
(3 -7.31448e-16 0)
(3 -5.44775e-16 0)
(3 -5.21499e-16 0)
(3 -8.80145e-16 0)
(3 -5.51116e-16 0)
(3 4.09731e-17 0)
(3 1.67814e-16 0)
(3 4.93295e-17 0)
(3 2.15253e-17 0)
(3 -2.55013e-13 0)
(3 -2.56365e-13 0)
(3 1.29292e-08 0)
(3.00022 0.000313732 0)
(1.86363 0.250765 0)
(0.989501 0.416698 0)
(1.1046 0.478425 0)
(1.2255 0.482524 0)
(3 -1.54934e-16 0)
(3 -4.45479e-16 0)
(3 -1.4208e-16 0)
(3 -3.20016e-16 0)
(3 -4.64521e-16 0)
(3 -6.80412e-16 0)
(3 -1.18154e-15 0)
(3 -1.32321e-15 0)
(3 -6.14977e-16 0)
(3 -2.82737e-16 0)
(3 -3.0218e-16 0)
(3 -1.19128e-15 0)
(3 -1.31394e-15 0)
(3 -1.54435e-15 0)
(3 -1.29688e-15 0)
(3 -2.80114e-16 0)
(3 -3.90689e-15 0)
(3 -8.46169e-14 0)
(3 4.9325e-12 0)
(3 3.36532e-07 0)
(1.89587 0.229719 0)
(0.872235 0.317385 0)
(0.928787 0.369703 0)
(1.06518 0.395556 0)
(3 5.95853e-17 0)
(3 -3.60914e-21 0)
(3 1.4474e-17 0)
(3 -9.6532e-17 0)
(3 9.64818e-17 0)
(3 -4.22698e-17 0)
(3 -1.85034e-17 0)
(3 2.4805e-16 0)
(3 -1.89432e-16 0)
(3 -4.83896e-16 0)
(3 -1.54487e-16 0)
(3 -6.38788e-16 0)
(3 -1.33827e-15 0)
(3 -1.0628e-15 0)
(3 -7.332e-16 0)
(3 -2.60597e-16 0)
(3 -1.55596e-16 0)
(3 -1.186e-14 0)
(3 -1.18942e-14 0)
(3 9.44345e-11 0)
(2.09107 0.238793 0)
(0.858232 0.27454 0)
(0.822569 0.300283 0)
(0.915844 0.319928 0)
(3 2.09921e-16 0)
(3 2.52394e-16 0)
(3 -1.13635e-17 0)
(3 1.34299e-16 0)
(3 8.12341e-16 0)
(3 1.23479e-15 0)
(3 1.163e-15 0)
(3 9.71107e-16 0)
(3 6.33026e-16 0)
(3 5.37974e-17 0)
(3 1.1326e-16 0)
(3 4.37183e-16 0)
(3 3.29782e-16 0)
(3 7.67594e-16 0)
(3 6.91715e-16 0)
(3 6.42051e-16 0)
(3 6.91e-16 0)
(3 -8.23548e-16 0)
(3 -4.88305e-15 0)
(3 4.85995e-15 0)
(2.36471 0.23991 0)
(0.902415 0.27741 0)
(0.8195 0.251154 0)
(0.875173 0.250413 0)
(3 -8.07107e-17 0)
(3 -1.0139e-16 0)
(3 2.01259e-16 0)
(3 3.42276e-16 0)
(3 4.39737e-16 0)
(3 3.87782e-16 0)
(3 5.90288e-16 0)
(3 9.17824e-16 0)
(3 8.52578e-16 0)
(3 5.98171e-16 0)
(3 7.71034e-17 0)
(3 5.63446e-16 0)
(3 9.26406e-16 0)
(3 1.00969e-15 0)
(3 1.51178e-15 0)
(3 1.09621e-15 0)
(3 1.12572e-15 0)
(3 1.26008e-15 0)
(3 7.78504e-16 0)
(3 2.664e-16 0)
(2.69464 0.204008 0)
(0.978775 0.270498 0)
(0.845397 0.227922 0)
(0.892351 0.220962 0)
(3 -1.30567e-16 0)
(3 -9.66408e-17 0)
(3 2.6788e-16 0)
(3 3.69267e-16 0)
(3 -1.81579e-16 0)
(3 -1.76006e-16 0)
(3 -2.17428e-16 0)
(3 2.74582e-16 0)
(3 3.08045e-16 0)
(3 2.57243e-17 0)
(3 -3.93921e-16 0)
(3 -1.02846e-16 0)
(3 3.14068e-17 0)
(3 6.27655e-17 0)
(3 9.77473e-17 0)
(3 2.78262e-16 0)
(3 8.24413e-16 0)
(3 1.09215e-15 0)
(3 1.34327e-15 0)
(3 7.98329e-16 0)
(2.94213 0.0520149 0)
(1.07349 0.224466 0)
(0.861305 0.20134 0)
(0.907778 0.198348 0)
(3 1.87972e-17 0)
(3 5.24458e-16 0)
(3 6.25511e-16 0)
(3 6.0909e-16 0)
(3 8.43942e-16 0)
(3 7.05569e-16 0)
(3 -3.77923e-16 0)
(3 -8.63313e-16 0)
(3 -5.21682e-16 0)
(3 -3.0207e-16 0)
(3 1.77333e-16 0)
(3 -1.5001e-16 0)
(3 -3.18357e-16 0)
(3 -4.0405e-16 0)
(3 -4.53431e-16 0)
(3 5.86014e-17 0)
(3 4.00545e-16 0)
(3 5.31283e-16 0)
(3 7.57846e-16 0)
(3 8.74718e-16 0)
(2.94889 -0.00368676 0)
(1.09033 0.168042 0)
(0.841246 0.166877 0)
(0.892135 0.168197 0)
(3 5.35071e-17 0)
(3 1.77973e-17 0)
(3 1.30587e-17 0)
(3 -5.07296e-17 0)
(3 -7.40377e-17 0)
(3 3.62064e-17 0)
(3 -3.59535e-16 0)
(3 -1.11643e-15 0)
(3 -8.56375e-16 0)
(3 -2.92779e-16 0)
(3 -7.49474e-17 0)
(3 1.04394e-16 0)
(3 -1.82668e-16 0)
(3 -4.79507e-16 0)
(3 -3.33862e-16 0)
(3 -2.75442e-16 0)
(3 -7.45439e-16 0)
(3 -6.66566e-16 0)
(3 -5.28686e-17 0)
(3 8.13443e-16 0)
(2.9665 0.00316503 0)
(1.09586 0.143301 0)
(0.811146 0.142257 0)
(0.858884 0.143068 0)
(3 5.67578e-17 0)
(3 -2.54791e-16 0)
(3 -8.71604e-16 0)
(3 -7.842e-16 0)
(3 -7.86787e-16 0)
(3 -6.29876e-16 0)
(3 -3.345e-16 0)
(3 -2.11086e-16 0)
(3 -2.48523e-16 0)
(3 -7.06518e-16 0)
(3 -6.91663e-16 0)
(3 1.73925e-16 0)
(3 1.3027e-15 0)
(3 4.95873e-16 0)
(3 -4.79074e-16 0)
(3 -4.11321e-16 0)
(3 -8.03409e-16 0)
(3 -1.06277e-15 0)
(3 -3.49133e-16 0)
(3 5.00731e-17 0)
(2.99857 0.00202844 0)
(1.13336 0.120979 0)
(0.810119 0.111122 0)
(0.847224 0.110825 0)
(3 -3.94799e-17 0)
(3 -4.76823e-17 0)
(3 -1.4347e-16 0)
(3 -3.6326e-16 0)
(3 -5.52515e-16 0)
(3 -7.36014e-16 0)
(3 -5.17518e-16 0)
(3 -3.73755e-16 0)
(3 -6.14485e-16 0)
(3 -4.89858e-16 0)
(3 -2.84475e-16 0)
(3 1.00372e-17 0)
(3 9.81197e-16 0)
(3 1.39004e-15 0)
(3 7.97142e-16 0)
(3 2.77534e-16 0)
(3 -7.73018e-17 0)
(3 4.28837e-16 0)
(3 5.68061e-16 0)
(3 4.21484e-16 0)
(3.00001 1.08853e-05 0)
(1.18796 0.102334 0)
(0.811599 0.0879285 0)
(0.840513 0.0856388 0)
(3 -6.46709e-17 0)
(3 5.35612e-17 0)
(3 5.63093e-16 0)
(3 6.44811e-16 0)
(3 -3.9917e-16 0)
(3 -5.90092e-16 0)
(3 -6.84707e-16 0)
(3 -1.03717e-15 0)
(3 -9.5747e-16 0)
(3 -6.16635e-17 0)
(3 1.69269e-16 0)
(3 -1.05256e-16 0)
(3 -2.16197e-16 0)
(3 1.40471e-16 0)
(3 6.42175e-16 0)
(3 -9.37422e-17 0)
(3 3.43647e-16 0)
(3 6.8286e-16 0)
(3 6.87947e-16 0)
(3 2.10682e-16 0)
(3 2.94729e-08 0)
(1.24448 0.0788121 0)
(0.818799 0.0651096 0)
(0.843913 0.061285 0)
(3 5.28891e-17 0)
(3 2.33535e-16 0)
(3 4.22773e-16 0)
(3 4.56739e-16 0)
(3 -1.66061e-16 0)
(3 -1.45531e-16 0)
(3 -9.05645e-16 0)
(3 -1.06786e-15 0)
(3 -6.376e-16 0)
(3 -5.69855e-16 0)
(3 -1.05329e-16 0)
(3 2.5241e-16 0)
(3 2.41999e-16 0)
(3 8.14608e-17 0)
(3 5.45212e-17 0)
(3 1.50525e-16 0)
(3 2.001e-16 0)
(3 3.61694e-16 0)
(3 2.79587e-16 0)
(3 -4.14694e-16 0)
(3 1.03023e-11 0)
(1.28695 0.0461273 0)
(0.824399 0.0389754 0)
(0.846144 0.0364645 0)
(3 8.48327e-17 0)
(3 1.41068e-16 0)
(3 5.71207e-17 0)
(3 -1.6693e-16 0)
(3 -1.36997e-16 0)
(3 -1.91008e-16 0)
(3 -5.66557e-16 0)
(3 -5.16922e-16 0)
(3 -2.2546e-16 0)
(3 -3.05117e-16 0)
(3 -8.08854e-17 0)
(3 2.81399e-16 0)
(3 4.46148e-16 0)
(3 3.00826e-16 0)
(3 2.47559e-16 0)
(3 2.35643e-16 0)
(3 2.42362e-16 0)
(3 1.33376e-16 0)
(3 3.49859e-16 0)
(3 2.03967e-16 0)
(3 3.08413e-15 0)
(1.29997 0.0107996 0)
(0.821355 0.0115237 0)
(0.839618 0.0120782 0)
(1.51874 1.26454 0)
(1.87722 1.41636 0)
(2.22904 1.26738 0)
(2.51902 0.701893 0)
(2.53845 0.248524 0)
(2.5923 0.0299856 0)
(2.5303 -0.171574 0)
(2.45074 -0.353143 0)
(2.47159 -0.350188 0)
(2.52916 -0.3374 0)
(2.46033 -0.290223 0)
(2.40502 -0.225244 0)
(2.3694 -0.154752 0)
(2.36881 -0.0924834 0)
(1.06588 0.00607758 0)
(0.835952 0.0246737 0)
(0.734807 0.0235768 0)
(0.646489 0.0215822 0)
(0.621189 0.019331 0)
(0.627415 0.0133791 0)
(0.626073 0.00510883 0)
(0.617087 -0.00107837 0)
(0.612805 -0.00430578 0)
(0.618664 -0.00592463 0)
(0.633457 -0.00780476 0)
(0.648121 -0.0101404 0)
(0.659829 -0.0126171 0)
(0.673904 -0.0149637 0)
(0.693214 -0.0170688 0)
(0.713718 -0.0183161 0)
(0.732442 -0.0185219 0)
(0.749282 -0.0186074 0)
(0.769122 -0.0192109 0)
(0.795619 -0.0203354 0)
(0.827086 -0.0219201 0)
(0.85905 -0.022658 0)
(0.884767 -0.0213924 0)
(0.903255 -0.0187269 0)
(0.921918 -0.0166136 0)
(0.945214 -0.015682 0)
(0.974044 -0.0160375 0)
(1.00418 -0.0175128 0)
(1.03191 -0.0184903 0)
(1.05588 -0.0182912 0)
(1.07798 -0.017227 0)
(1.10135 -0.0160525 0)
(1.12751 -0.015535 0)
(1.15608 -0.0157562 0)
(1.18468 -0.0160365 0)
(1.21081 -0.0158049 0)
(1.23459 -0.015033 0)
(1.25737 -0.0140144 0)
(1.28069 -0.0129202 0)
(1.30515 -0.0116737 0)
(1.32969 -0.0100368 0)
(1.35235 -0.00810715 0)
(1.37307 -0.00659782 0)
(1.39369 -0.00583779 0)
(1.41605 -0.00562927 0)
(1.44082 -0.00525289 0)
(1.46362 -0.0050007 0)
(1.48173 -0.00475402 0)
(1.49876 -0.0039832 0)
(1.51558 -0.00284823 0)
(1.53287 -0.00236877 0)
(1.55151 -0.00219225 0)
(1.57328 -0.00189196 0)
(1.59551 -0.00145495 0)
(1.61369 -0.00101905 0)
(1.63076 -0.000237102 0)
(1.64688 0.000845429 0)
(1.66312 0.00127265 0)
(1.68 0.00118498 0)
(1.69727 0.00120243 0)
(1.71464 0.00158955 0)
(1.7318 0.00231822 0)
(1.74896 0.00320591 0)
(1.76636 0.00386413 0)
(1.78441 0.00457604 0)
(1.80137 0.00538309 0)
(1.81564 0.00584698 0)
(1.82007 0.000460747 0)
(1.80534 -0.00601711 0)
(1.67685 -0.0136907 0)
(1.32042 -0.0127088 0)
(1.28372 -0.0108133 0)
(1.32322 -0.0100291 0)
(1.35203 -0.00898036 0)
(1.37179 -0.00864402 0)
(1.38356 -0.0088435 0)
(1.39134 -0.00819247 0)
(1.39655 -0.00499688 0)
(1.40034 -0.00116869 0)
(1.40433 0.000389987 0)
(1.41009 0.000741698 0)
(1.419 -0.00106292 0)
(1.77365 1.06929 0)
(2.26515 0.898601 0)
(2.51435 0.486654 0)
(2.65542 -0.0226784 0)
(2.69803 -0.254387 0)
(2.71308 -0.45822 0)
(2.67857 -0.564251 0)
(2.68344 -0.605834 0)
(2.69162 -0.600154 0)
(2.67102 -0.531744 0)
(2.60042 -0.42092 0)
(2.53154 -0.321909 0)
(2.45397 -0.203639 0)
(2.56676 -0.119364 0)
(1.12705 0.169398 0)
(0.808114 0.121531 0)
(0.728886 0.0706322 0)
(0.676715 0.0376153 0)
(0.663545 0.0284076 0)
(0.666793 0.0144673 0)
(0.659664 -0.00130178 0)
(0.653287 -0.0152017 0)
(0.655355 -0.0205282 0)
(0.666015 -0.0204742 0)
(0.68136 -0.017148 0)
(0.693557 -0.0164015 0)
(0.704358 -0.0192514 0)
(0.719278 -0.024418 0)
(0.741245 -0.0299461 0)
(0.766821 -0.0333028 0)
(0.789422 -0.0316229 0)
(0.80637 -0.0255706 0)
(0.821674 -0.0206052 0)
(0.842226 -0.0212401 0)
(0.87114 -0.0273667 0)
(0.90419 -0.0358621 0)
(0.934263 -0.0389578 0)
(0.956433 -0.0331745 0)
(0.972672 -0.0228461 0)
(0.990627 -0.0147371 0)
(1.01253 -0.0133526 0)
(1.03949 -0.0178635 0)
(1.06868 -0.0250784 0)
(1.09618 -0.0290092 0)
(1.12088 -0.0271807 0)
(1.14385 -0.0214293 0)
(1.16707 -0.0156242 0)
(1.19118 -0.0134011 0)
(1.21648 -0.0150583 0)
(1.24245 -0.0175609 0)
(1.26648 -0.0179435 0)
(1.28798 -0.0166583 0)
(1.30893 -0.0154751 0)
(1.33121 -0.0148381 0)
(1.35518 -0.0136236 0)
(1.37839 -0.0100573 0)
(1.39867 -0.0049411 0)
(1.41778 -0.000293314 0)
(1.43701 0.00197366 0)
(1.45742 0.000712189 0)
(1.47981 -0.00326306 0)
(1.50042 -0.00541591 0)
(1.51783 -0.0052653 0)
(1.53458 -0.00326275 0)
(1.55122 -0.000403596 0)
(1.56876 0.00150902 0)
(1.58742 0.00187531 0)
(1.60826 0.000394083 0)
(1.62803 5.04707e-06 0)
(1.64574 0.00103677 0)
(1.66268 0.00453345 0)
(1.67763 0.0087696 0)
(1.69135 0.0107693 0)
(1.70655 0.00999667 0)
(1.72364 0.00821412 0)
(1.74137 0.00653884 0)
(1.7597 0.0063668 0)
(1.77844 0.00722509 0)
(1.79676 0.00858961 0)
(1.81161 0.0102417 0)
(1.82166 0.00383432 0)
(1.82011 -0.00892976 0)
(1.79583 -0.0377757 0)
(1.70104 -0.0597533 0)
(1.36721 -0.0360198 0)
(1.31806 -0.0173151 0)
(1.35231 -0.0050565 0)
(1.3722 0.000399023 0)
(1.38303 -0.00164429 0)
(1.39484 -0.00984461 0)
(1.40596 -0.0155909 0)
(1.41449 -0.014612 0)
(1.42092 -0.00775198 0)
(1.42326 0.00276675 0)
(1.42372 0.00891883 0)
(1.42572 0.00714907 0)
(1.67811 1.02837 0)
(2.07871 0.85992 0)
(2.29485 0.70184 0)
(2.50489 0.361947 0)
(2.61215 0.068638 0)
(2.68097 0.00382791 0)
(2.70089 -0.0624724 0)
(2.71031 -0.232684 0)
(2.74443 -0.349755 0)
(2.75847 -0.444688 0)
(2.7767 -0.464331 0)
(2.76998 -0.485866 0)
(2.6921 -0.404801 0)
(2.73107 -0.39562 0)
(1.66889 0.169856 0)
(0.899785 0.183512 0)
(0.802836 0.0910655 0)
(0.791802 0.0386689 0)
(0.796294 0.0310899 0)
(0.791383 0.0316867 0)
(0.77795 0.020888 0)
(0.769926 0.00104196 0)
(0.777712 -0.0169458 0)
(0.798015 -0.0308704 0)
(0.818584 -0.0374292 0)
(0.831486 -0.0358445 0)
(0.838982 -0.0329554 0)
(0.84904 -0.0337814 0)
(0.866115 -0.0408505 0)
(0.889984 -0.0530372 0)
(0.916411 -0.0653653 0)
(0.9404 -0.0712659 0)
(0.959505 -0.0673694 0)
(0.975499 -0.057783 0)
(0.994065 -0.0509807 0)
(1.01644 -0.0515509 0)
(1.04215 -0.0586435 0)
(1.06812 -0.064912 0)
(1.09092 -0.0636829 0)
(1.10842 -0.0561266 0)
(1.12571 -0.0471681 0)
(1.14528 -0.042442 0)
(1.1667 -0.0435994 0)
(1.19027 -0.0489536 0)
(1.21548 -0.0542837 0)
(1.24054 -0.0558711 0)
(1.26341 -0.0530607 0)
(1.28404 -0.0483012 0)
(1.3043 -0.0444659 0)
(1.32525 -0.0425893 0)
(1.34677 -0.0413431 0)
(1.36675 -0.0384042 0)
(1.38474 -0.0341979 0)
(1.40286 -0.0304871 0)
(1.42219 -0.0287245 0)
(1.4431 -0.0282401 0)
(1.46357 -0.0262393 0)
(1.48201 -0.0224746 0)
(1.4997 -0.0170389 0)
(1.51776 -0.011638 0)
(1.53622 -0.00932307 0)
(1.55393 -0.0102484 0)
(1.57091 -0.0117596 0)
(1.58713 -0.0120886 0)
(1.6033 -0.0108392 0)
(1.61905 -0.00792642 0)
(1.63541 -0.00506631 0)
(1.65254 -0.00388931 0)
(1.6699 -0.00477725 0)
(1.68687 -0.00576426 0)
(1.70343 -0.00552906 0)
(1.71949 -0.00281073 0)
(1.73345 0.00326983 0)
(1.74528 0.0108476 0)
(1.7581 0.0155601 0)
(1.77432 0.0163644 0)
(1.79254 0.0159408 0)
(1.81115 0.015368 0)
(1.82807 0.0162234 0)
(1.83979 0.0136284 0)
(1.83888 0.0013496 0)
(1.82999 -0.0183249 0)
(1.78356 -0.0654955 0)
(1.73558 -0.104315 0)
(1.46574 -0.0499485 0)
(1.39319 -0.021033 0)
(1.41335 -0.0198987 0)
(1.42876 -0.0141277 0)
(1.43345 -0.00625919 0)
(1.43835 -0.00377373 0)
(1.4439 -0.00791014 0)
(1.45335 -0.0155433 0)
(1.46402 -0.0183988 0)
(1.47009 -0.0153725 0)
(1.47242 -0.00522744 0)
(1.46778 0.00812512 0)
(1.60768 0.982383 0)
(1.90329 0.87892 0)
(2.13506 0.748081 0)
(2.3259 0.539527 0)
(2.47448 0.278155 0)
(2.56502 0.120082 0)
(2.64398 0.0529462 0)
(2.67537 -0.0733824 0)
(2.7189 -0.266595 0)
(2.71842 -0.37198 0)
(2.7425 -0.440667 0)
(2.81759 -0.473883 0)
(2.81897 -0.496315 0)
(2.76955 -0.4988 0)
(2.60063 -0.289787 0)
(1.19618 0.175923 0)
(0.994945 0.13425 0)
(0.992992 0.0819224 0)
(1.00927 0.0372924 0)
(1.00375 0.0144588 0)
(0.991766 -0.00350477 0)
(0.983672 -0.0161669 0)
(0.987907 -0.0218242 0)
(1.00299 -0.0310302 0)
(1.02415 -0.0437638 0)
(1.04237 -0.0530812 0)
(1.05372 -0.0531248 0)
(1.06239 -0.0473397 0)
(1.07364 -0.0412368 0)
(1.08788 -0.0417445 0)
(1.10615 -0.0513989 0)
(1.12957 -0.0659409 0)
(1.15369 -0.0754905 0)
(1.17155 -0.0735012 0)
(1.18378 -0.0643903 0)
(1.19729 -0.0537157 0)
(1.21327 -0.0483313 0)
(1.23265 -0.0499357 0)
(1.25532 -0.055139 0)
(1.27637 -0.0565179 0)
(1.29206 -0.053005 0)
(1.30649 -0.047511 0)
(1.32227 -0.041674 0)
(1.34014 -0.0379248 0)
(1.3604 -0.0377415 0)
(1.38275 -0.0399209 0)
(1.40417 -0.040611 0)
(1.42127 -0.0383542 0)
(1.43589 -0.03518 0)
(1.45081 -0.0327494 0)
(1.46731 -0.0311069 0)
(1.48483 -0.0284184 0)
(1.50062 -0.0248088 0)
(1.51546 -0.0198655 0)
(1.53037 -0.0136831 0)
(1.54684 -0.00940664 0)
(1.56413 -0.00813343 0)
(1.58098 -0.00815207 0)
(1.59781 -0.00742363 0)
(1.61436 -0.00433809 0)
(1.62965 -0.000287571 0)
(1.64387 0.00298917 0)
(1.6578 0.00437332 0)
(1.67189 0.00459592 0)
(1.68623 0.00479939 0)
(1.70083 0.00596543 0)
(1.71512 0.00826624 0)
(1.72875 0.0109836 0)
(1.74213 0.012639 0)
(1.75622 0.0122957 0)
(1.771 0.0108866 0)
(1.78583 0.00948291 0)
(1.79995 0.00921398 0)
(1.81254 0.0126625 0)
(1.82352 0.0192302 0)
(1.83509 0.025113 0)
(1.8492 0.0275024 0)
(1.86552 0.0281976 0)
(1.87922 0.0265398 0)
(1.88513 0.0196598 0)
(1.87478 0.000535457 0)
(1.85144 -0.0303972 0)
(1.78683 -0.0854089 0)
(1.76625 -0.144073 0)
(1.62151 -0.0910781 0)
(1.49729 -0.0285879 0)
(1.49985 -0.0237494 0)
(1.51399 -0.0292419 0)
(1.52299 -0.0217852 0)
(1.52244 -0.00422469 0)
(1.52045 0.00648509 0)
(1.5236 0.00754924 0)
(1.53082 0.000554749 0)
(1.54109 -0.0097142 0)
(1.54559 -0.0152922 0)
(1.5473 -0.00978389 0)
(1.55852 0.931603 0)
(1.80395 0.844904 0)
(2.00663 0.74202 0)
(2.15186 0.638218 0)
(2.30122 0.462137 0)
(2.43749 0.276033 0)
(2.52642 0.141351 0)
(2.58611 0.0702387 0)
(2.58237 0.0315086 0)
(2.62949 -0.104744 0)
(2.6698 -0.225435 0)
(2.70478 -0.254453 0)
(2.7222 -0.312172 0)
(2.67814 -0.425715 0)
(2.66565 -0.585511 0)
(1.94864 -0.147324 0)
(1.25875 0.140255 0)
(1.21259 0.129017 0)
(1.23484 0.0650606 0)
(1.233 -0.00104619 0)
(1.22665 -0.0189909 0)
(1.22403 -0.0190992 0)
(1.22425 -0.0181765 0)
(1.22795 -0.0221096 0)
(1.23752 -0.0366 0)
(1.25357 -0.0542926 0)
(1.27091 -0.067323 0)
(1.28404 -0.0713953 0)
(1.29285 -0.0708874 0)
(1.30088 -0.0703294 0)
(1.3098 -0.0715922 0)
(1.32216 -0.0762577 0)
(1.34088 -0.0845898 0)
(1.36128 -0.0900692 0)
(1.37362 -0.0881558 0)
(1.38224 -0.0828647 0)
(1.39246 -0.0749788 0)
(1.40561 -0.0692957 0)
(1.42156 -0.0668677 0)
(1.43998 -0.0677254 0)
(1.45579 -0.0677489 0)
(1.46821 -0.0662787 0)
(1.48072 -0.064426 0)
(1.49467 -0.0627176 0)
(1.51042 -0.0608992 0)
(1.52803 -0.0587885 0)
(1.54594 -0.0561008 0)
(1.55964 -0.0539357 0)
(1.57111 -0.0514063 0)
(1.58161 -0.0467379 0)
(1.59422 -0.0424968 0)
(1.60803 -0.0391134 0)
(1.6214 -0.0374777 0)
(1.63495 -0.0345319 0)
(1.64865 -0.029158 0)
(1.66245 -0.022769 0)
(1.67617 -0.0173841 0)
(1.68998 -0.0134348 0)
(1.70421 -0.0107993 0)
(1.71867 -0.00938941 0)
(1.7328 -0.0080164 0)
(1.74606 -0.00602649 0)
(1.75831 -0.00370883 0)
(1.77002 -0.00167875 0)
(1.78198 -0.00025264 0)
(1.79451 0.00089234 0)
(1.80703 0.002127 0)
(1.81916 0.00416238 0)
(1.83052 0.00715602 0)
(1.84152 0.00996404 0)
(1.85308 0.0120359 0)
(1.86556 0.013081 0)
(1.87827 0.0142477 0)
(1.89095 0.0166593 0)
(1.9025 0.0220166 0)
(1.91204 0.0288406 0)
(1.91911 0.0332028 0)
(1.9318 0.0312183 0)
(1.93809 0.0252766 0)
(1.93436 0.00779022 0)