/*--------------------------------*- C++ -*----------------------------------*\
  =========                 |
  \\      /  F ield         | OpenFOAM: The Open Source CFD Toolbox
   \\    /   O peration     | Website:  https://openfoam.org
    \\  /    A nd           | Version:  7
     \\/     M anipulation  |
\*---------------------------------------------------------------------------*/
FoamFile
{
    version     2.0;
    format      ascii;
    class       volScalarField;
    location    "55";
    object      p;
}
// * * * * * * * * * * * * * * * * * * * * * * * * * * * * * * * * * * * * * //

dimensions      [0 2 -2 0 0 0 0];

internalField   nonuniform List<scalar> 
31800
(
-0.251731
-0.253271
-0.254147
-0.254859
-0.255475
-0.256012
-0.256506
-0.256978
-0.257439
-0.257895
-0.258344
-0.25878
-0.259198
-0.259585
-0.25993
-0.260222
-0.260446
-0.26059
-0.260642
-0.26059
-0.26043
-0.260164
-0.259802
-0.259352
-0.258869
-0.251842
-0.253371
-0.254241
-0.254947
-0.255559
-0.256093
-0.256584
-0.257053
-0.257512
-0.257966
-0.258413
-0.258849
-0.259265
-0.259651
-0.259997
-0.260288
-0.260512
-0.260656
-0.260707
-0.260654
-0.26049
-0.260218
-0.259849
-0.259386
-0.258886
-0.252062
-0.253568
-0.254424
-0.255121
-0.255724
-0.256251
-0.256736
-0.257199
-0.257654
-0.258103
-0.258547
-0.25898
-0.259394
-0.259779
-0.260123
-0.260413
-0.260637
-0.26078
-0.260828
-0.260771
-0.2606
-0.260316
-0.259931
-0.25944
-0.258903
-0.252387
-0.253858
-0.254696
-0.255378
-0.255968
-0.256484
-0.256959
-0.257415
-0.257862
-0.258305
-0.258744
-0.259172
-0.259582
-0.259964
-0.260306
-0.260595
-0.260817
-0.260958
-0.261003
-0.26094
-0.260757
-0.260454
-0.260046
-0.259514
-0.258914
-0.252814
-0.254239
-0.255053
-0.255715
-0.256288
-0.25679
-0.257252
-0.257696
-0.258133
-0.258568
-0.258999
-0.259421
-0.259826
-0.260203
-0.260542
-0.260828
-0.261048
-0.261186
-0.261227
-0.261155
-0.260957
-0.26063
-0.260189
-0.259605
-0.258911
-0.253337
-0.254707
-0.255491
-0.256129
-0.256681
-0.257164
-0.25761
-0.25804
-0.258464
-0.258887
-0.259307
-0.259721
-0.260119
-0.260491
-0.260825
-0.261107
-0.261324
-0.261458
-0.261493
-0.261411
-0.261196
-0.260838
-0.260357
-0.25971
-0.258882
-0.25395
-0.255257
-0.256005
-0.256615
-0.257141
-0.257602
-0.258028
-0.25844
-0.258848
-0.259256
-0.259664
-0.260066
-0.260455
-0.260819
-0.261147
-0.261424
-0.261637
-0.261767
-0.261795
-0.261702
-0.261466
-0.261073
-0.260544
-0.25983
-0.25881
-0.254648
-0.255883
-0.256592
-0.257168
-0.257665
-0.2581
-0.258502
-0.258892
-0.25928
-0.25967
-0.260062
-0.26045
-0.260826
-0.26118
-0.2615
-0.261771
-0.261977
-0.262101
-0.262122
-0.262017
-0.261759
-0.261328
-0.260742
-0.259965
-0.258677
-0.255422
-0.256579
-0.257244
-0.257783
-0.258246
-0.25865
-0.259025
-0.259388
-0.259753
-0.260121
-0.260493
-0.260864
-0.261225
-0.261566
-0.261875
-0.262137
-0.262336
-0.262453
-0.262465
-0.262346
-0.262067
-0.261594
-0.260941
-0.260121
-0.258447
-0.256265
-0.25734
-0.257956
-0.258454
-0.25888
-0.259249
-0.259591
-0.259924
-0.26026
-0.260602
-0.260951
-0.2613
-0.261642
-0.261967
-0.262262
-0.262512
-0.262701
-0.262809
-0.262811
-0.262679
-0.262378
-0.261864
-0.261133
-0.260319
-0.258057
-0.257169
-0.258158
-0.258723
-0.259176
-0.25956
-0.259889
-0.260194
-0.260492
-0.260794
-0.261105
-0.261425
-0.261749
-0.262068
-0.262372
-0.26265
-0.262885
-0.263062
-0.263158
-0.263149
-0.263002
-0.262679
-0.262127
-0.261302
-0.26058
-0.257515
-0.258127
-0.259027
-0.259539
-0.259943
-0.26028
-0.260566
-0.260828
-0.261084
-0.261348
-0.261623
-0.261909
-0.262202
-0.262493
-0.262773
-0.263028
-0.263245
-0.263405
-0.263487
-0.263464
-0.263301
-0.262955
-0.262374
-0.261429
-0.260699
-0.257179
-0.259132
-0.259942
-0.260398
-0.26075
-0.261036
-0.261272
-0.261486
-0.261696
-0.261915
-0.262147
-0.262394
-0.26265
-0.262908
-0.263157
-0.263386
-0.26358
-0.263719
-0.263783
-0.263742
-0.26356
-0.263188
-0.262583
-0.261533
-0.260796
-0.256706
-0.260176
-0.260898
-0.261295
-0.261592
-0.261823
-0.262004
-0.262164
-0.26232
-0.262488
-0.262671
-0.262871
-0.263084
-0.263303
-0.263517
-0.263714
-0.263879
-0.263993
-0.264033
-0.26397
-0.263767
-0.263362
-0.262744
-0.261553
-0.26093
-0.256057
-0.261255
-0.261889
-0.262227
-0.262465
-0.262636
-0.262757
-0.262855
-0.262952
-0.26306
-0.263188
-0.263335
-0.263499
-0.263671
-0.263844
-0.264003
-0.264133
-0.264216
-0.264227
-0.264136
-0.263906
-0.26346
-0.262844
-0.261457
-0.261078
-0.255252
-0.262362
-0.262912
-0.263189
-0.263365
-0.263471
-0.263526
-0.263557
-0.263586
-0.263628
-0.263692
-0.263779
-0.263885
-0.264006
-0.26413
-0.264244
-0.264333
-0.264378
-0.264354
-0.264229
-0.263967
-0.263465
-0.262869
-0.261221
-0.261211
-0.254301
-0.263495
-0.263964
-0.264179
-0.264291
-0.264327
-0.264308
-0.264265
-0.264219
-0.264187
-0.264179
-0.264197
-0.26424
-0.2643
-0.264369
-0.264432
-0.264474
-0.264475
-0.264409
-0.26424
-0.263941
-0.263364
-0.262808
-0.260825
-0.261294
-0.253224
-0.264653
-0.265044
-0.265197
-0.26524
-0.265201
-0.265103
-0.264977
-0.264848
-0.264734
-0.264646
-0.264588
-0.264558
-0.264552
-0.264558
-0.264563
-0.264551
-0.264501
-0.264385
-0.264165
-0.263823
-0.263148
-0.26265
-0.260259
-0.261282
-0.252057
-0.265834
-0.266153
-0.266242
-0.266212
-0.266092
-0.265908
-0.265692
-0.265472
-0.265267
-0.26509
-0.264948
-0.264839
-0.264758
-0.264694
-0.264635
-0.264563
-0.264454
-0.264282
-0.264
-0.263609
-0.262812
-0.262382
-0.259532
-0.261112
-0.250853
-0.26704
-0.267291
-0.267315
-0.267209
-0.267003
-0.266725
-0.266411
-0.26609
-0.265786
-0.265513
-0.265278
-0.265082
-0.264919
-0.264779
-0.264649
-0.26451
-0.264336
-0.2641
-0.263746
-0.263297
-0.262358
-0.261986
-0.258667
-0.260711
-0.249672
-0.268276
-0.268462
-0.268419
-0.268233
-0.267933
-0.267555
-0.267134
-0.266705
-0.266293
-0.265915
-0.26558
-0.265289
-0.265038
-0.264816
-0.264608
-0.264395
-0.264149
-0.26384
-0.263404
-0.262884
-0.261789
-0.261436
-0.257696
-0.260004
-0.248553
-0.269545
-0.269671
-0.269559
-0.269286
-0.268888
-0.2684
-0.267866
-0.26732
-0.266792
-0.266301
-0.265858
-0.265465
-0.265119
-0.264808
-0.264517
-0.264224
-0.263898
-0.263507
-0.262975
-0.262366
-0.261108
-0.260701
-0.256647
-0.258931
-0.247496
-0.270857
-0.270923
-0.270739
-0.270375
-0.269871
-0.269267
-0.268609
-0.267939
-0.267287
-0.266676
-0.266118
-0.265617
-0.26517
-0.264765
-0.264384
-0.264003
-0.263589
-0.263103
-0.262462
-0.261735
-0.260316
-0.259755
-0.255527
-0.257468
-0.24645
-0.272219
-0.272227
-0.271967
-0.271506
-0.270888
-0.27016
-0.269372
-0.268568
-0.267785
-0.267046
-0.266367
-0.265753
-0.265199
-0.264694
-0.264217
-0.26374
-0.263226
-0.262631
-0.261863
-0.260983
-0.259403
-0.258576
-0.254317
-0.25563
-0.245332
-0.273643
-0.273591
-0.27325
-0.272686
-0.271947
-0.271087
-0.27016
-0.269216
-0.268294
-0.267422
-0.266616
-0.265883
-0.265217
-0.264605
-0.264025
-0.263442
-0.262814
-0.262089
-0.261172
-0.260098
-0.258353
-0.257157
-0.252973
-0.253462
-0.244054
-0.275143
-0.275027
-0.274598
-0.273924
-0.273056
-0.272055
-0.270982
-0.26989
-0.268824
-0.267813
-0.266875
-0.266017
-0.265234
-0.26451
-0.263816
-0.263115
-0.262355
-0.261475
-0.26038
-0.259068
-0.257137
-0.255496
-0.251439
-0.251018
-0.242543
-0.276731
-0.276545
-0.276023
-0.275229
-0.274224
-0.273075
-0.271848
-0.270603
-0.269386
-0.268231
-0.267156
-0.26617
-0.265263
-0.264418
-0.2636
-0.262763
-0.261847
-0.260781
-0.259471
-0.257879
-0.255728
-0.253595
-0.249665
-0.248329
-0.240745
-0.278424
-0.278159
-0.277536
-0.276614
-0.275463
-0.274157
-0.27277
-0.271365
-0.269992
-0.268688
-0.267473
-0.266352
-0.265315
-0.264338
-0.26338
-0.262385
-0.261285
-0.259996
-0.258429
-0.256515
-0.254099
-0.251456
-0.247615
-0.245375
-0.238621
-0.280239
-0.279883
-0.279148
-0.278088
-0.276782
-0.275313
-0.273758
-0.272188
-0.270655
-0.269198
-0.267837
-0.266576
-0.2654
-0.264278
-0.26316
-0.26198
-0.260659
-0.259106
-0.257237
-0.254965
-0.252234
-0.249091
-0.245267
-0.242083
-0.236212
-0.282193
-0.28173
-0.280873
-0.279665
-0.278195
-0.276554
-0.274826
-0.273085
-0.271388
-0.269774
-0.268263
-0.266853
-0.265526
-0.264241
-0.262937
-0.261539
-0.259957
-0.258096
-0.25588
-0.253219
-0.250129
-0.246527
-0.242614
-0.238459
-0.233698
-0.284301
-0.283717
-0.282725
-0.281358
-0.279713
-0.277892
-0.275985
-0.27407
-0.272204
-0.270429
-0.26876
-0.267193
-0.265699
-0.264228
-0.262708
-0.261052
-0.259165
-0.256951
-0.254346
-0.251275
-0.247795
-0.24379
-0.239668
-0.234821
-0.231045
-0.286583
-0.285858
-0.284716
-0.283178
-0.28135
-0.279342
-0.27725
-0.275154
-0.273117
-0.271174
-0.26934
-0.267602
-0.265922
-0.264237
-0.262463
-0.260505
-0.258266
-0.255657
-0.252631
-0.249135
-0.245256
-0.240893
-0.236462
-0.231377
-0.227254
-0.289056
-0.288167
-0.286862
-0.28514
-0.283119
-0.280916
-0.278632
-0.276353
-0.274137
-0.272021
-0.270011
-0.268086
-0.266193
-0.264259
-0.262189
-0.259882
-0.257246
-0.254206
-0.250736
-0.24681
-0.242539
-0.237844
-0.233126
-0.227837
-0.22335
-0.291736
-0.290659
-0.289174
-0.287257
-0.285032
-0.282626
-0.280146
-0.277677
-0.275278
-0.27298
-0.27078
-0.268644
-0.266508
-0.264285
-0.261872
-0.259169
-0.256094
-0.252592
-0.248666
-0.244316
-0.23967
-0.234673
-0.229691
-0.224243
-0.219525
-0.29464
-0.293348
-0.291668
-0.289542
-0.287102
-0.284486
-0.281804
-0.27914
-0.27655
-0.274057
-0.271648
-0.269274
-0.266857
-0.264299
-0.261494
-0.258349
-0.254799
-0.250818
-0.246432
-0.241673
-0.236676
-0.231403
-0.226191
-0.22061
-0.215715
-0.297782
-0.296247
-0.294356
-0.292007
-0.289343
-0.286509
-0.283618
-0.280752
-0.277962
-0.275259
-0.272616
-0.269969
-0.267228
-0.264285
-0.261038
-0.257409
-0.253357
-0.248886
-0.244049
-0.238899
-0.233577
-0.228055
-0.222642
-0.216941
-0.211925
-0.301177
-0.299371
-0.29725
-0.294666
-0.291767
-0.288708
-0.285601
-0.282525
-0.279521
-0.276587
-0.27368
-0.27072
-0.267604
-0.264224
-0.260488
-0.256338
-0.251767
-0.246805
-0.24153
-0.236014
-0.230391
-0.224644
-0.219053
-0.213242
-0.208127
-0.304837
-0.302729
-0.300363
-0.29753
-0.294386
-0.291094
-0.287764
-0.284467
-0.281232
-0.278041
-0.274832
-0.27151
-0.267966
-0.264096
-0.259827
-0.25513
-0.250029
-0.244584
-0.238891
-0.233031
-0.227132
-0.22118
-0.215426
-0.209513
-0.204311
-0.308773
-0.306335
-0.303705
-0.300612
-0.297214
-0.29368
-0.290117
-0.286585
-0.283097
-0.279615
-0.276059
-0.272322
-0.268293
-0.263883
-0.259043
-0.253779
-0.248147
-0.242232
-0.236142
-0.229962
-0.223808
-0.217667
-0.211761
-0.20575
-0.200466
-0.312995
-0.310196
-0.307288
-0.303922
-0.30026
-0.296477
-0.292669
-0.288883
-0.285113
-0.2813
-0.277345
-0.273134
-0.268563
-0.263564
-0.258124
-0.252283
-0.246127
-0.23976
-0.233294
-0.226815
-0.220423
-0.214105
-0.208056
-0.201951
-0.196584
-0.31751
-0.314321
-0.31112
-0.30747
-0.303536
-0.299492
-0.295425
-0.291363
-0.287275
-0.283081
-0.278668
-0.273921
-0.268752
-0.263124
-0.257062
-0.250642
-0.243973
-0.237174
-0.230354
-0.223594
-0.216979
-0.210493
-0.204307
-0.19811
-0.19266
-0.322323
-0.318718
-0.315209
-0.311266
-0.307049
-0.302735
-0.29839
-0.29402
-0.28957
-0.284939
-0.280004
-0.274657
-0.268838
-0.262547
-0.25585
-0.248855
-0.24169
-0.234478
-0.227324
-0.220299
-0.213473
-0.206827
-0.200507
-0.194222
-0.188687
-0.327439
-0.323389
-0.319561
-0.315315
-0.310808
-0.306208
-0.301561
-0.296847
-0.291983
-0.286849
-0.281323
-0.275315
-0.268798
-0.26182
-0.254483
-0.246923
-0.23928
-0.231676
-0.224206
-0.216929
-0.209901
-0.203102
-0.196651
-0.19028
-0.18466
-0.332855
-0.328337
-0.324179
-0.319624
-0.314815
-0.309912
-0.304934
-0.299829
-0.29449
-0.288783
-0.282595
-0.275866
-0.268613
-0.26093
-0.252956
-0.244846
-0.236745
-0.228767
-0.220996
-0.21348
-0.206257
-0.19931
-0.192733
-0.186279
-0.180574
-0.33857
-0.333561
-0.329065
-0.324192
-0.31907
-0.313843
-0.308496
-0.302946
-0.297062
-0.290707
-0.283787
-0.276283
-0.268264
-0.259869
-0.251266
-0.242623
-0.234083
-0.225749
-0.217691
-0.209945
-0.202536
-0.195446
-0.188745
-0.182212
-0.176423
-0.344574
-0.339056
-0.334215
-0.329019
-0.32357
-0.31799
-0.31223
-0.306172
-0.299666
-0.292584
-0.284864
-0.27654
-0.267734
-0.258626
-0.249407
-0.240251
-0.23129
-0.222616
-0.214284
-0.206317
-0.19873
-0.191501
-0.184681
-0.178074
-0.172202
-0.350857
-0.344814
-0.339623
-0.334096
-0.328303
-0.322339
-0.316111
-0.309471
-0.302262
-0.294374
-0.285793
-0.276612
-0.267007
-0.257192
-0.247374
-0.237724
-0.228361
-0.219363
-0.210767
-0.20259
-0.19483
-0.187468
-0.180535
-0.173858
-0.167906
-0.357401
-0.35082
-0.345277
-0.339412
-0.333255
-0.326864
-0.320106
-0.312805
-0.304806
-0.296037
-0.286541
-0.276476
-0.266067
-0.255558
-0.245161
-0.235036
-0.22529
-0.21598
-0.207134
-0.198753
-0.190829
-0.18334
-0.176298
-0.169558
-0.16353
-0.364182
-0.357056
-0.351161
-0.344949
-0.338401
-0.331536
-0.324176
-0.316126
-0.307252
-0.297531
-0.287075
-0.276109
-0.264902
-0.253715
-0.242759
-0.23218
-0.222067
-0.21246
-0.203373
-0.194798
-0.186718
-0.179108
-0.171966
-0.165169
-0.159068
-0.371173
-0.363498
-0.357251
-0.350682
-0.343712
-0.336314
-0.328272
-0.319385
-0.30955
-0.298813
-0.287364
-0.27549
-0.263495
-0.251652
-0.240159
-0.229146
-0.218682
-0.208792
-0.199476
-0.190716
-0.182489
-0.174766
-0.167531
-0.160685
-0.154515
-0.378336
-0.370115
-0.363517
-0.356578
-0.349147
-0.341153
-0.332342
-0.322524
-0.311649
-0.299844
-0.287379
-0.274598
-0.261834
-0.249356
-0.23735
-0.225923
-0.215125
-0.204966
-0.195432
-0.186498
-0.178133
-0.170306
-0.162987
-0.156099
-0.149868
-0.385631
-0.37687
-0.369923
-0.362596
-0.354661
-0.345996
-0.336325
-0.325485
-0.313499
-0.300583
-0.287091
-0.273415
-0.259903
-0.246816
-0.23432
-0.222499
-0.211385
-0.20097
-0.191232
-0.182135
-0.173643
-0.165721
-0.158328
-0.151407
-0.145121
-0.393007
-0.383718
-0.376424
-0.368689
-0.360198
-0.350782
-0.340158
-0.328209
-0.315048
-0.300993
-0.286473
-0.27192
-0.257686
-0.244018
-0.231056
-0.218863
-0.207449
-0.196795
-0.186865
-0.177618
-0.169011
-0.161004
-0.153548
-0.146604
-0.14027
-0.400408
-0.390607
-0.382969
-0.374801
-0.365694
-0.355443
-0.343772
-0.330633
-0.316248
-0.301037
-0.285499
-0.270093
-0.255168
-0.240947
-0.227545
-0.215001
-0.203306
-0.192428
-0.182322
-0.172938
-0.164229
-0.156149
-0.148642
-0.141684
-0.135312
-0.40777
-0.39748
-0.389498
-0.380866
-0.37108
-0.359905
-0.347095
-0.332697
-0.317051
-0.30068
-0.284144
-0.267917
-0.252333
-0.23759
-0.223774
-0.2109
-0.198944
-0.187859
-0.177592
-0.168087
-0.159289
-0.151149
-0.143605
-0.136643
-0.130242
-0.415024
-0.40427
-0.395944
-0.386814
-0.376279
-0.36409
-0.350057
-0.33434
-0.31741
-0.299889
-0.282383
-0.26537
-0.249163
-0.233929
-0.219727
-0.206548
-0.194351
-0.183078
-0.172668
-0.163057
-0.154185
-0.145999
-0.138432
-0.131477
-0.125058
-0.422091
-0.410906
-0.402234
-0.392565
-0.381208
-0.367918
-0.352585
-0.335505
-0.317284
-0.298632
-0.280192
-0.262434
-0.245642
-0.229951
-0.21539
-0.20193
-0.189515
-0.178075
-0.167539
-0.15784
-0.148911
-0.140693
-0.133117
-0.126182
-0.119757
-0.428891
-0.417308
-0.408286
-0.398036
-0.385782
-0.371306
-0.354608
-0.336136
-0.316629
-0.29688
-0.277548
-0.259089
-0.241753
-0.225639
-0.21075
-0.197036
-0.184425
-0.172839
-0.162198
-0.152429
-0.14346
-0.135226
-0.127659
-0.120753
-0.114336
-0.435335
-0.423393
-0.414014
-0.403136
-0.389911
-0.374173
-0.356058
-0.33618
-0.315409
-0.294602
-0.274429
-0.255317
-0.237478
-0.220978
-0.205792
-0.191851
-0.179071
-0.167362
-0.156638
-0.146818
-0.137828
-0.129595
-0.122051
-0.115189
-0.108794
-0.441332
-0.429072
-0.419328
-0.407773
-0.393504
-0.376437
-0.356869
-0.335588
-0.313587
-0.291774
-0.270814
-0.251098
-0.232802
-0.215954
-0.200504
-0.186366
-0.173442
-0.161635
-0.15085
-0.141001
-0.132008
-0.123794
-0.116292
-0.109485
-0.103131
-0.446787
-0.434253
-0.424134
-0.411852
-0.396471
-0.37802
-0.35698
-0.334314
-0.311129
-0.288369
-0.26668
-0.246416
-0.227707
-0.210551
-0.194873
-0.18057
-0.167531
-0.155651
-0.144829
-0.134973
-0.125998
-0.117822
-0.110379
-0.103642
-0.0973444
-0.451603
-0.438839
-0.428334
-0.415275
-0.398723
-0.378847
-0.356331
-0.332315
-0.308005
-0.284364
-0.26201
-0.241252
-0.222181
-0.204758
-0.188888
-0.174452
-0.161328
-0.149403
-0.138569
-0.128729
-0.119793
-0.111675
-0.104309
-0.0976567
-0.091436
-0.455681
-0.442735
-0.43183
-0.417949
-0.400174
-0.378848
-0.35487
-0.329554
-0.304187
-0.279737
-0.256785
-0.235592
-0.216207
-0.198562
-0.182538
-0.168004
-0.154827
-0.142886
-0.132066
-0.122266
-0.113391
-0.10535
-0.0980801
-0.0915299
-0.085409
-0.458925
-0.445843
-0.434526
-0.419779
-0.400741
-0.377955
-0.352549
-0.325996
-0.299649
-0.274467
-0.250988
-0.229421
-0.209774
-0.191952
-0.175815
-0.161219
-0.148022
-0.136094
-0.125316
-0.11558
-0.106788
-0.0988449
-0.0916891
-0.0852598
-0.079267
-0.461238
-0.448068
-0.436325
-0.420675
-0.400348
-0.376111
-0.349324
-0.321611
-0.29437
-0.268538
-0.244603
-0.222725
-0.202871
-0.184918
-0.168711
-0.15409
-0.140907
-0.129024
-0.118316
-0.10867
-0.0999843
-0.0921583
-0.0851333
-0.0788417
-0.0730005
-0.462527
-0.449315
-0.437135
-0.420552
-0.398923
-0.373261
-0.345159
-0.316371
-0.288329
-0.261934
-0.237619
-0.215493
-0.195488
-0.177454
-0.161219
-0.146613
-0.133479
-0.121673
-0.111064
-0.101535
-0.092979
-0.0852911
-0.0784161
-0.0722738
-0.0665705
-0.462703
-0.449495
-0.436868
-0.419331
-0.396402
-0.36936
-0.34002
-0.310256
-0.28151
-0.254641
-0.230023
-0.207717
-0.187617
-0.169552
-0.153334
-0.138785
-0.125737
-0.11404
-0.10356
-0.0941753
-0.0857726
-0.0782461
-0.0715489
-0.065572
-0.0599277
-0.461681
-0.448523
-0.435442
-0.41694
-0.39273
-0.364366
-0.333882
-0.303248
-0.273901
-0.24665
-0.221808
-0.199388
-0.179252
-0.161208
-0.145054
-0.130602
-0.117677
-0.106125
-0.0958042
-0.0865908
-0.0783661
-0.0710259
-0.0645358
-0.0587533
-0.0531157
-0.459383
-0.446319
-0.432782
-0.413315
-0.387858
-0.358248
-0.326724
-0.295332
-0.265492
-0.237952
-0.212966
-0.190501
-0.17039
-0.15242
-0.136377
-0.122065
-0.109302
-0.0979276
-0.0877979
-0.0787842
-0.0707626
-0.0636336
-0.0573632
-0.0517202
-0.0463223
-0.455739
-0.442813
-0.428821
-0.408399
-0.381745
-0.35098
-0.318531
-0.2865
-0.256276
-0.228543
-0.203495
-0.181055
-0.161029
-0.143187
-0.127304
-0.113174
-0.100612
-0.0894515
-0.0795437
-0.0707591
-0.0629667
-0.0560725
-0.0500319
-0.0445609
-0.0394412
-0.450688
-0.43794
-0.4235
-0.402147
-0.374361
-0.342544
-0.309294
-0.276748
-0.246251
-0.218421
-0.193392
-0.171049
-0.15117
-0.13351
-0.117835
-0.103933
-0.0916106
-0.080701
-0.0710477
-0.0625182
-0.0549817
-0.048345
-0.0425521
-0.0372866
-0.0324509
-0.444174
-0.431646
-0.41677
-0.394522
-0.365683
-0.33293
-0.299008
-0.266075
-0.235419
-0.207588
-0.182661
-0.160485
-0.140815
-0.123394
-0.107977
-0.0943464
-0.082305
-0.0716793
-0.0623129
-0.0540678
-0.0468128
-0.0404563
-0.0349325
-0.0298974
-0.025351
-0.436154
-0.423885
-0.408592
-0.385496
-0.355697
-0.322134
-0.287677
-0.254485
-0.223783
-0.196049
-0.171306
-0.149368
-0.129971
-0.112842
-0.097736
-0.0844205
-0.072699
-0.0623935
-0.0533458
-0.045414
-0.038466
-0.0324129
-0.0271794
-0.0223935
-0.0181484
-0.426595
-0.414622
-0.398937
-0.375053
-0.344399
-0.310158
-0.275308
-0.241987
-0.211353
-0.183811
-0.159333
-0.137705
-0.118645
-0.101867
-0.0871169
-0.0741624
-0.0628008
-0.0528514
-0.044154
-0.0365641
-0.0299487
-0.024222
-0.019299
-0.0147786
-0.0108503
-0.415474
-0.403833
-0.387788
-0.363186
-0.331792
-0.297015
-0.261913
-0.228594
-0.198139
-0.170882
-0.146757
-0.125512
-0.106848
-0.090475
-0.0761312
-0.0635817
-0.0526196
-0.0430618
-0.0347464
-0.0275265
-0.0212689
-0.0158915
-0.011298
-0.00705852
-0.00346437
-0.402777
-0.391504
-0.375137
-0.349898
-0.317887
-0.282719
-0.247512
-0.214323
-0.184156
-0.157276
-0.133598
-0.112797
-0.0945912
-0.0786786
-0.0647906
-0.0526897
-0.0421662
-0.033035
-0.0251328
-0.0183107
-0.0124359
-0.00742998
-0.00318422
0.000759049
0.00400156
-0.388503
-0.377631
-0.360988
-0.335202
-0.302705
-0.267296
-0.232126
-0.199196
-0.169426
-0.143034
-0.119853
-0.0995761
-0.0818905
-0.0664921
-0.0531085
-0.0414993
-0.0314529
-0.0227827
-0.0153242
-0.00892718
-0.0034596
0.00115305
0.00503364
0.00866538
0.011539
-0.372662
-0.362224
-0.345355
-0.319118
-0.286274
-0.250775
-0.215787
-0.183241
-0.15398
-0.128151
-0.105554
-0.0858678
-0.068763
-0.0539321
-0.0411002
-0.0300249
-0.0204932
-0.0123177
-0.00533279
0.000612463
0.00564882
0.0098472
0.0133458
0.0166507
0.019139
-0.355272
-0.3453
-0.328262
-0.301679
-0.268628
-0.233193
-0.198527
-0.166487
-0.137838
-0.112661
-0.0907254
-0.071694
-0.0552284
-0.0410169
-0.0287828
-0.0182826
-0.00930223
-0.00165398
0.00482812
0.0102957
0.0148774
0.0186412
0.0217415
0.0247041
0.0267913
-0.336366
-0.326889
-0.309742
-0.282922
-0.249813
-0.214591
-0.180383
-0.14897
-0.12103
-0.0965918
-0.0753909
-0.0570785
-0.0413087
-0.0277669
-0.0161753
-0.00628981
0.00210373
0.0091931
0.0151443
0.0201089
0.0242133
0.0275229
0.0302093
0.032814
0.0344847
-0.315983
-0.307029
-0.28984
-0.262903
-0.229886
-0.195002
-0.161396
-0.130726
-0.103593
-0.0799743
-0.0595794
-0.0420476
-0.027028
-0.0142044
-0.00329827
0.00593431
0.0137071
0.0202072
0.0256004
0.0300378
0.0336427
0.0364793
0.0387368
0.0409671
0.042207
-0.294173
-0.285768
-0.268608
-0.241686
-0.208907
-0.174466
-0.141612
-0.111797
-0.0855638
-0.0628432
-0.043322
-0.02663
-0.0124128
-0.000353489
0.00982616
0.0183694
0.0254889
0.0313709
0.0361803
0.0400671
0.0431511
0.0454965
0.04731
0.0491482
0.0499435
-0.270993
-0.263165
-0.246114
-0.219324
-0.186854
-0.15311
-0.121088
-0.0922308
-0.0669841
-0.0452357
-0.0266524
-0.0108564
0.00250881
0.0137599
0.0231742
0.0309937
0.0374294
0.042666
0.0468671
0.0501811
0.0527236
0.0545601
0.0559144
0.057339
0.0576734
-0.246507
-0.239295
-0.222441
-0.195828
-0.163886
-0.130941
-0.0998791
-0.0720758
-0.047898
-0.0271917
-0.00960694
0.00524017
0.0177066
0.0281083
0.0367208
0.0437841
0.0495073
0.054073
0.0576431
0.0603633
0.0623446
0.0636556
0.0645352
0.0655205
0.0653695
-0.220786
-0.214238
-0.197673
-0.171272
-0.140053
-0.108029
-0.0780422
-0.0513848
-0.0283525
-0.00875379
0.00777599
0.0216246
0.0331488
0.0426626
0.0504394
0.0567166
0.0617008
0.065572
0.0684901
0.0705969
0.071998
0.0727679
0.0731599
0.0736784
0.0730151
-0.193906
-0.18807
-0.171732
-0.145908
-0.115436
-0.0844444
-0.0556392
-0.0302132
-0.00839722
0.0100334
0.0254557
0.03826
0.0488016
0.0573922
0.0643021
0.0697658
0.0739867
0.0771422
0.0793893
0.0808642
0.0816666
0.081882
0.0817789
0.0818048
0.0806046
-0.165937
-0.160901
-0.144871
-0.119697
-0.0901095
-0.060262
-0.0327344
-0.0086186
0.0119157
0.0291228
0.0433898
0.0551078
0.0646301
0.0722652
0.07828
0.0829054
0.0863414
0.0887622
0.0903213
0.091147
0.0913332
0.0909851
0.0903829
0.0898659
0.0880389
-0.136979
-0.132834
-0.117192
-0.0927307
-0.0641563
-0.0355575
-0.00939508
0.0133387
0.0325322
0.0484655
0.0615337
0.0721277
0.0805977
0.0872485
0.092343
0.0961083
0.0987404
0.10041
0.101266
0.101428
0.100985
0.100074
0.0989586
0.0977473
0.0950077
-0.107291
-0.103857
-0.0887636
-0.0651104
-0.0376612
-0.0104087
0.0143091
0.0355964
0.053396
0.0680108
0.0798416
0.0892781
0.0966667
0.102308
0.10646
0.109346
0.111158
0.112063
0.112204
0.11169
0.110617
0.109156
0.107489
0.105311
0.101289
-0.0768764
-0.0741395
-0.0596828
-0.0369351
-0.010713
0.0151045
0.0383063
0.0580903
0.0744494
0.0877065
0.0982663
0.106516
0.112798
0.117408
0.120599
0.12259
0.123569
0.123698
0.123114
0.121918
0.120221
0.118226
0.115947
0.112623
0.10758
-0.0458177
-0.0438167
-0.0300554
-0.00830516
0.0165965
0.0408999
0.0625232
0.0807543
0.0956329
0.107499
0.116759
0.123798
0.128952
0.132512
0.134728
0.135811
0.135945
0.135289
0.133973
0.132094
0.129782
0.127244
0.124274
0.119875
0.115964
-0.0142384
-0.0130028
8.42327e-06
0.0206762
0.0441739
0.0668939
0.0868848
0.103521
0.116886
0.127333
0.135271
0.141078
0.145088
0.147585
0.148812
0.148978
0.14826
0.146813
0.14476
0.142198
0.139272
0.136152
0.132485
0.127494
0.124298
0.0177376
0.0181875
0.0303961
0.0499044
0.0719243
0.0930015
0.111315
0.126323
0.138147
0.147154
0.15375
0.158312
0.161165
0.162588
0.162819
0.16206
0.160486
0.158244
0.155452
0.152211
0.148666
0.144947
0.140644
0.135267
0.132176
0.0499873
0.0496363
0.0609932
0.0792735
0.0997521
0.119137
0.135737
0.149091
0.159354
0.166905
0.172148
0.175453
0.177141
0.177484
0.176713
0.175027
0.172593
0.169555
0.166026
0.162107
0.157941
0.153621
0.148745
0.143039
0.139776
0.0823865
0.081224
0.0916844
0.108677
0.127561
0.145214
0.160074
0.171754
0.180444
0.186529
0.190411
0.192455
0.192974
0.192234
0.190461
0.187846
0.184554
0.180722
0.176459
0.171865
0.167076
0.162161
0.156749
0.150699
0.147124
0.11481
0.112829
0.122354
0.138008
0.155254
0.171146
0.184247
0.194244
0.201355
0.20597
0.208489
0.209271
0.208621
0.2068
0.204027
0.200488
0.196341
0.191718
0.186725
0.18146
0.176052
0.170554
0.164624
0.158207
0.154245
0.147133
0.144331
0.152886
0.16716
0.182736
0.196846
0.20818
0.216491
0.222022
0.22517
0.22633
0.225854
0.224041
0.221144
0.217377
0.212919
0.207923
0.202517
0.196802
0.190872
0.184849
0.178777
0.172341
0.165539
0.161148
0.179229
0.175607
0.183166
0.196027
0.209911
0.22223
0.231796
0.238425
0.242384
0.244074
0.243884
0.242159
0.239192
0.235229
0.230476
0.225109
0.219274
0.213093
0.206664
0.200078
0.193448
0.186812
0.179877
0.17268
0.167835
0.210976
0.206538
0.213078
0.224505
0.236685
0.247213
0.255018
0.259977
0.262379
0.262624
0.261099
0.258139
0.254032
0.249016
0.243291
0.237028
0.230365
0.223421
0.216289
0.209056
0.20183
0.19464
0.187214
0.179617
0.174303
0.24225
0.237003
0.242511
0.25249
0.262964
0.271711
0.277772
0.281081
0.281946
0.280767
0.277925
0.27375
0.26852
0.262468
0.255788
0.248643
0.241168
0.233475
0.225654
0.217787
0.209975
0.202242
0.194334
0.186338
0.180547
0.27293
0.266885
0.271354
0.279881
0.288658
0.295642
0.299984
0.30167
0.301024
0.298446
0.294313
0.288945
0.282615
0.275549
0.267933
0.259926
0.251656
0.243231
0.234736
0.226249
0.217865
0.209601
0.201222
0.192831
0.186559
0.302897
0.296069
0.299498
0.306579
0.313677
0.318925
0.321581
0.321677
0.319554
0.31561
0.310214
0.303683
0.296279
0.288222
0.279695
0.270847
0.261803
0.252665
0.243513
0.234423
0.225481
0.216701
0.207864
0.199086
0.192334
0.332036
0.324442
0.326838
0.332489
0.337935
0.341484
0.342493
0.341041
0.337479
0.332205
0.325583
0.317919
0.309472
0.300454
0.291041
0.281377
0.271582
0.261753
0.251965
0.242289
0.232807
0.223526
0.214246
0.20509
0.197862
0.360234
0.351895
0.353272
0.357516
0.361347
0.363242
0.362653
0.359699
0.354743
0.348182
0.340372
0.331614
0.322158
0.31221
0.301941
0.291489
0.280969
0.270472
0.26007
0.24983
0.239825
0.230062
0.220355
0.210833
0.203136
0.387383
0.378323
0.3787
0.381571
0.383833
0.384127
0.381993
0.377592
0.371293
0.363492
0.354538
0.344726
0.3343
0.323458
0.312366
0.301156
0.289939
0.2788
0.267809
0.257026
0.24652
0.236293
0.226178
0.216303
0.208147
0.413377
0.403624
0.403029
0.404567
0.405314
0.404068
0.400452
0.394662
0.387077
0.378088
0.368039
0.357218
0.345863
0.334166
0.322286
0.310353
0.298469
0.286717
0.275162
0.263861
0.252876
0.242206
0.231703
0.221489
0.212887
0.438118
0.427702
0.426167
0.426423
0.425718
0.422998
0.417969
0.410856
0.402045
0.391926
0.380835
0.369054
0.356814
0.344304
0.331676
0.319054
0.306537
0.294203
0.282112
0.270319
0.258878
0.247789
0.236917
0.226382
0.21735
0.46151
0.450464
0.448029
0.447059
0.444972
0.440855
0.434487
0.426121
0.416151
0.404962
0.392885
0.380197
0.367122
0.353843
0.340508
0.327236
0.314121
0.301237
0.288642
0.276384
0.264513
0.253027
0.24181
0.23097
0.221526
0.483463
0.471825
0.468534
0.466403
0.463012
0.457579
0.449951
0.440408
0.42935
0.417157
0.404155
0.390615
0.376757
0.362757
0.348759
0.334877
0.321202
0.307803
0.294734
0.282041
0.269768
0.257911
0.246371
0.235244
0.225409
0.503894
0.491702
0.487606
0.484386
0.479774
0.473113
0.464311
0.453672
0.4416
0.428473
0.41461
0.400278
0.385691
0.371021
0.356406
0.341957
0.327761
0.313883
0.300375
0.287277
0.274629
0.262428
0.250589
0.239196
0.228993
0.522724
0.510019
0.505175
0.500944
0.495201
0.487405
0.477519
0.465871
0.452864
0.438875
0.424219
0.409157
0.393898
0.37861
0.363428
0.348457
0.333781
0.319462
0.305549
0.292079
0.279086
0.266569
0.254455
0.242816
0.23227
0.539881
0.526709
0.521176
0.516017
0.509241
0.500408
0.489534
0.476963
0.463105
0.448331
0.432953
0.417225
0.401354
0.385504
0.369804
0.354359
0.339246
0.324526
0.310244
0.296435
0.283129
0.270323
0.25796
0.246098
0.235237
0.555301
0.541707
0.535551
0.529553
0.521844
0.512078
0.500315
0.486916
0.472292
0.456812
0.440784
0.424459
0.408038
0.391682
0.375518
0.359646
0.344141
0.329061
0.314448
0.300334
0.286746
0.273683
0.261097
0.249033
0.237887
0.568924
0.554956
0.548246
0.541504
0.532968
0.522376
0.509827
0.495695
0.480395
0.464291
0.447689
0.430836
0.41393
0.397128
0.380554
0.364304
0.348453
0.333055
0.31815
0.303768
0.289931
0.27664
0.263858
0.251616
0.240215
0.580698
0.566407
0.559215
0.551827
0.542575
0.531268
0.518038
0.503274
0.487388
0.470746
0.453648
0.436338
0.419013
0.401825
0.384896
0.368321
0.352171
0.336498
0.321341
0.306727
0.292675
0.279188
0.266236
0.253841
0.242219
0.59058
0.576016
0.568418
0.560485
0.550632
0.538724
0.524923
0.509627
0.49325
0.476155
0.458641
0.440949
0.423271
0.40576
0.388534
0.371686
0.355284
0.339381
0.324012
0.309204
0.294972
0.28132
0.268227
0.255702
0.243894
0.59853
0.583748
0.575821
0.567449
0.55711
0.544718
0.530458
0.514734
0.497962
0.480504
0.462655
0.444654
0.426693
0.408922
0.391457
0.374389
0.357785
0.341697
0.326158
0.311193
0.296817
0.283033
0.269825
0.257196
0.245237
0.60452
0.589572
0.581398
0.572694
0.561989
0.549232
0.534626
0.518579
0.50151
0.483777
0.465676
0.447443
0.429269
0.411301
0.393656
0.376422
0.359667
0.343439
0.327772
0.312689
0.298204
0.28432
0.271027
0.25832
0.246247
0.608526
0.593467
0.585127
0.576202
0.565251
0.55225
0.537412
0.52115
0.503881
0.485965
0.467695
0.449307
0.43099
0.412891
0.395126
0.377782
0.360925
0.344603
0.328851
0.313689
0.299131
0.28518
0.27183
0.25907
0.246921
0.610533
0.595419
0.586995
0.577959
0.566885
0.553762
0.538808
0.522437
0.505069
0.487061
0.468706
0.450241
0.431852
0.413688
0.395862
0.378462
0.361555
0.345186
0.329391
0.31419
0.299595
0.285611
0.272233
0.259446
0.247259
0.610534
0.59542
0.586996
0.577959
0.566886
0.553763
0.538808
0.522438
0.50507
0.487061
0.468707
0.450241
0.431853
0.413688
0.395862
0.378463
0.361555
0.345187
0.329391