/*--------------------------------*- C++ -*----------------------------------*\
  =========                 |
  \\      /  F ield         | OpenFOAM: The Open Source CFD Toolbox
   \\    /   O peration     | Website:  https://openfoam.org
    \\  /    A nd           | Version:  7
     \\/     M anipulation  |
\*---------------------------------------------------------------------------*/
FoamFile
{
    version     2.0;
    format      ascii;
    class       volVectorField;
    location    "55";
    object      U;
}
// * * * * * * * * * * * * * * * * * * * * * * * * * * * * * * * * * * * * * //

dimensions      [0 1 -1 0 0 0 0];

internalField   nonuniform List<vector> 
31800
(
(-0.000522061 0.000536613 -9.16723e-21)
(-0.00323545 0.00134709 6.33091e-21)
(-0.00866172 0.0019511 -2.06196e-21)
(-0.0156797 0.00238995 9.15663e-21)
(-0.0238542 0.00269274 1.02259e-20)
(-0.0328263 0.00288523 -3.34968e-21)
(-0.0422802 0.00299013 -2.42045e-21)
(-0.0519703 0.00302684 1.7112e-20)
(-0.0617061 0.00301166 -1.94827e-21)
(-0.0713427 0.00295789 2.79768e-21)
(-0.0807725 0.00287588 9.59125e-21)
(-0.0899168 0.00277329 9.38725e-21)
(-0.0987175 0.00265536 -5.92397e-21)
(-0.107131 0.00252528 -7.35769e-21)
(-0.115121 0.00238464 -2.51061e-22)
(-0.122657 0.00223399 -9.37714e-21)
(-0.129708 0.00207344 7.27815e-21)
(-0.136245 0.00190354 1.22565e-20)
(-0.142244 0.00172615 -4.5779e-21)
(-0.147691 0.00154565 2.07219e-20)
(-0.152591 0.00137003 1.31072e-21)
(-0.15699 0.0012119 -1.66819e-21)
(-0.160987 0.00108715 3.63822e-21)
(-0.164707 0.00100967 7.39415e-21)
(-0.168389 0.00100403 4.59065e-21)
(-0.000572191 0.00156325 9.43842e-21)
(-0.00334768 0.00392654 5.16574e-21)
(-0.00879701 0.00568937 -5.56309e-21)
(-0.0158117 0.00697218 -2.11324e-20)
(-0.0239619 0.0078592 1.56001e-20)
(-0.0328928 0.00842496 -7.6322e-21)
(-0.042292 0.00873508 4.20883e-22)
(-0.0519158 0.00884574 -1.31236e-20)
(-0.0615752 0.00880425 2.73534e-21)
(-0.0711266 0.00864934 1.8574e-21)
(-0.0804629 0.00841146 -4.02733e-20)
(-0.0895054 0.00811337 -6.79848e-22)
(-0.0981963 0.00777088 4.50222e-20)
(-0.106492 0.00739391 -2.26222e-20)
(-0.114356 0.00698775 -4.2822e-21)
(-0.121756 0.0065546 9.30704e-21)
(-0.128661 0.00609546 -1.95345e-20)
(-0.135043 0.00561241 -9.76208e-22)
(-0.140873 0.00511151 1.92485e-20)
(-0.146135 0.0046062 -7.05033e-20)
(-0.15083 0.0041208 -2.18304e-20)
(-0.154996 0.00369367 3.29745e-20)
(-0.158729 0.0033739 1.624e-20)
(-0.162144 0.00320557 2.88363e-21)
(-0.165466 0.00326525 -6.52837e-21)
(-0.000671094 0.00257416 -1.95652e-20)
(-0.0035693 0.00646948 -5.35579e-22)
(-0.00906442 0.00937834 -2.65896e-20)
(-0.0160727 0.0114976 3.96647e-20)
(-0.024175 0.0129649 -4.49092e-20)
(-0.0330244 0.0139025 -4.1972e-21)
(-0.0423147 0.014418 -4.07456e-21)
(-0.0518065 0.0146038 7.4485e-21)
(-0.0613141 0.0145377 2.4649e-20)
(-0.0706956 0.0142838 -4.18492e-21)
(-0.0798449 0.0138923 -7.3841e-21)
(-0.0886841 0.0134012 2.65901e-20)
(-0.0971553 0.0128368 -4.67938e-21)
(-0.105214 0.0122159 2.58227e-20)
(-0.112824 0.0115474 -5.22409e-20)
(-0.119953 0.0108352 -2.13427e-20)
(-0.126567 0.0100807 3.43687e-21)
(-0.132635 0.00928717 -6.98841e-20)
(-0.138126 0.00846383 1.90734e-20)
(-0.143017 0.00763199 4.2946e-20)
(-0.1473 0.00683108 -2.71042e-20)
(-0.151 0.00612462 -6.51542e-20)
(-0.154207 0.00559662 -3.24766e-20)
(-0.157011 0.00532641 -6.05522e-20)
(-0.159607 0.005447 -3.30952e-20)
(-0.000817069 0.00355929 9.10995e-21)
(-0.00389688 0.00895247 -1.51814e-20)
(-0.00946022 0.0129862 4.83e-20)
(-0.0164594 0.0159293 -3.86432e-20)
(-0.0244909 0.0179704 -1.0064e-20)
(-0.0332193 0.0192772 -2.6747e-21)
(-0.0423475 0.0199982 3.16279e-20)
(-0.0516427 0.0202608 2.24239e-20)
(-0.0609233 0.0201728 -3.96012e-20)
(-0.0700504 0.0198231 1.66015e-20)
(-0.0789196 0.0192818 1.01257e-21)
(-0.0874537 0.0186017 -7.47884e-20)
(-0.0955947 0.0178198 -2.4542e-20)
(-0.103298 0.0169597 1.98932e-21)
(-0.110526 0.0160341 1.63535e-20)
(-0.117244 0.0150483 7.44992e-20)
(-0.123418 0.0140041 8.26056e-21)
(-0.129013 0.0129046 7.05245e-20)
(-0.133993 0.0117611 7.04031e-20)
(-0.138325 0.0106007 -8.68039e-21)
(-0.141988 0.00947564 3.16121e-20)
(-0.144991 0.00847326 -1.20909e-20)
(-0.147408 0.00771484 4.00858e-20)
(-0.149298 0.00732334 1.33549e-19)
(-0.150793 0.00749508 2.0836e-20)
(-0.00100764 0.00450915 1.55026e-20)
(-0.00432541 0.0113532 -5.63907e-20)
(-0.00997894 0.0164825 7.27681e-20)
(-0.0169669 0.0202317 2.68203e-20)
(-0.0249058 0.0228371 2.10202e-20)
(-0.0334751 0.0245093 2.23562e-20)
(-0.0423893 0.0254354 -1.1892e-19)
(-0.051424 0.0257769 4.42196e-20)
(-0.0604033 0.0256706 4.59988e-20)
(-0.0691922 0.0252294 -6.79629e-20)
(-0.0776882 0.0245431 7.03705e-20)
(-0.0858149 0.0236792 3.8479e-20)
(-0.0935144 0.0226856 4.75939e-20)
(-0.100741 0.0215928 -3.22361e-20)
(-0.107456 0.0204173 -7.15313e-21)
(-0.113623 0.0191657 1.56556e-19)
(-0.119206 0.0178396 -6.75852e-20)
(-0.124164 0.0164412 5.23565e-20)
(-0.128456 0.0149819 -1.26651e-19)
(-0.132038 0.0134917 -5.10689e-20)
(-0.134872 0.0120325 4.84011e-20)
(-0.136943 0.0107127 8.4528e-20)
(-0.13831 0.0096929 1.43224e-20)
(-0.138989 0.00915119 -1.09889e-19)
(-0.13899 0.00935519 -7.70511e-20)
(-0.00123963 0.00541502 -6.09842e-20)
(-0.00484842 0.013651 -1.96886e-20)
(-0.0106135 0.0198386 -4.316e-20)
(-0.017589 0.0243712 -4.17725e-20)
(-0.0254149 0.0275282 2.99683e-20)
(-0.0337885 0.0295601 -5.35422e-20)
(-0.0424384 0.0306905 -3.47342e-20)
(-0.0511501 0.0311129 -1.72613e-19)
(-0.059755 0.030992 7.57171e-21)
(-0.0681222 0.0304645 -1.75798e-21)
(-0.076152 0.0296389 -1.32337e-19)
(-0.0837688 0.0285978 -4.51355e-20)
(-0.0909143 0.0273996 -5.60607e-20)
(-0.0975417 0.0260818 1.08451e-19)
(-0.10361 0.0246652 3.12757e-20)
(-0.109082 0.0231577 -8.53712e-20)
(-0.113916 0.0215601 -9.52403e-20)
(-0.118068 0.0198728 2.64146e-20)
(-0.121489 0.0181049 1.04513e-19)
(-0.124123 0.0162862 -2.26138e-20)
(-0.125914 0.0144839 -1.36578e-20)
(-0.126818 0.0128226 -6.43658e-20)
(-0.126872 0.0115025 -8.11241e-20)
(-0.126051 0.0107712 6.62924e-20)
(-0.124139 0.0109735 4.48849e-20)
(-0.00150928 0.00626907 3.16606e-20)
(-0.00545824 0.015827 3.72324e-20)
(-0.0113556 0.0230281 -2.93619e-20)
(-0.018318 0.0283161 -6.0722e-20)
(-0.0260121 0.0320087 9.45123e-21)
(-0.0341554 0.0343927 7.12291e-20)
(-0.0424924 0.0357252 1.02376e-19)
(-0.0508204 0.0362301 1.39798e-19)
(-0.0589786 0.0360988 2.43848e-20)
(-0.0668415 0.0354903 3.21987e-20)
(-0.074312 0.0345319 3.90714e-20)
(-0.0813155 0.0333207 1.49573e-19)
(-0.0877931 0.0319258 -8.62478e-21)
(-0.0936963 0.0303923 -1.91844e-19)
(-0.0989819 0.0287449 1.38262e-19)
(-0.103608 0.0269931 5.49649e-20)
(-0.10753 0.0251369 1.74095e-19)
(-0.110699 0.0231737 -7.12117e-20)
(-0.113057 0.0211086 -8.20271e-20)
(-0.114536 0.0189675 2.33941e-19)
(-0.115062 0.0168168 -7.85857e-20)
(-0.114555 0.0147908 -1.19925e-19)
(-0.113027 0.0131258 -3.20381e-20)
(-0.110429 0.0121548 -1.00695e-19)
(-0.106146 0.0122975 1.67696e-20)
(-0.00181233 0.00706459 7.87429e-21)
(-0.00614613 0.0178646 -1.54815e-20)
(-0.0121954 0.0260272 3.15814e-21)
(-0.019145 0.0320374 -1.10604e-19)
(-0.0266904 0.0362459 -8.58194e-20)
(-0.0345707 0.0389719 -1.62003e-20)
(-0.0425484 0.040503 -4.18553e-20)
(-0.0504335 0.0410912 -7.61331e-20)
(-0.0580741 0.0409529 -1.71473e-20)
(-0.0653505 0.0402689 -8.50319e-21)
(-0.0721686 0.0391844 -8.06581e-20)
(-0.0784545 0.0378106 3.48769e-20)
(-0.0841483 0.0362278 2.62437e-20)
(-0.089199 0.0344884 1.40893e-19)
(-0.09356 0.0326217 -2.86428e-21)
(-0.0971849 0.0306389 -8.52261e-20)
(-0.100024 0.0285392 -9.26404e-21)
(-0.102022 0.0263168 3.68429e-20)
(-0.103112 0.0239707 1.51017e-19)
(-0.103216 0.0215194 -1.12119e-19)
(-0.102238 0.0190224 2.95217e-19)
(-0.100065 0.0166147 1.23074e-19)
(-0.0966715 0.0145592 -9.28959e-20)
(-0.0920369 0.0132904 1.79495e-19)
(-0.0848677 0.0132776 1.041e-19)
(-0.00214421 0.00779607 9.64915e-21)
(-0.0069026 0.0197497 4.88832e-20)
(-0.0131225 0.0288152 1.38652e-19)
(-0.0200603 0.0355092 1.72724e-19)
(-0.0274415 0.04021 1.02679e-19)
(-0.0350285 0.0432648 -7.20572e-20)
(-0.0426024 0.0449887 1.75421e-19)
(-0.0499871 0.0456595 1.98823e-20)
(-0.0570404 0.0455171 -1.04704e-19)
(-0.0636486 0.0447625 1.1498e-20)
(-0.0697208 0.0435584 1.94117e-19)
(-0.0751835 0.0420299 -2.07379e-19)
(-0.0799751 0.0402681 -1.18364e-19)
(-0.0840413 0.0383331 -2.40345e-20)
(-0.0873305 0.0362592 -1.93996e-19)
(-0.0897907 0.03406 -1.26407e-19)
(-0.0913657 0.0317341 2.2409e-20)
(-0.0919917 0.0292722 -2.63156e-19)
(-0.0915933 0.0266666 2.63301e-20)
(-0.0900798 0.0239254 -1.25849e-19)
(-0.0873389 0.0210952 -1.55797e-19)
(-0.0832235 0.018301 1.45038e-19)
(-0.0776518 0.0158163 1.62954e-19)
(-0.0707463 0.0141893 -1.26755e-19)
(-0.0601009 0.0138912 1.74269e-19)
(-0.00250014 0.00845932 -1.16017e-19)
(-0.00771767 0.0214712 8.5068e-20)
(-0.0141254 0.0313746 -6.20753e-21)
(-0.0210532 0.0387088 3.40069e-20)
(-0.0282566 0.0438739 3.21773e-20)
(-0.0355216 0.047241 1.44345e-19)
(-0.0426493 0.0491495 -1.04728e-19)
(-0.0494776 0.0499004 -1.95173e-19)
(-0.0558747 0.0497552 9.77536e-20)
(-0.0617331 0.0489342 9.12179e-20)
(-0.0669651 0.0476164 -3.07887e-19)
(-0.0714971 0.0459406 2.16457e-19)
(-0.075265 0.0440086 3.28562e-19)
(-0.0782097 0.0418884 2.23888e-20)
(-0.0802734 0.0396199 -5.79254e-20)
(-0.0813963 0.0372194 1.66206e-19)
(-0.0815133 0.0346859 -7.66365e-20)
(-0.0805508 0.0320072 3.4319e-19)
(-0.0784225 0.029169 -3.02498e-19)
(-0.0750252 0.0261669 5.49749e-20)
(-0.0702311 0.02303 -2.85289e-20)
(-0.0638633 0.0198633 -9.27463e-20)
(-0.0557496 0.0169225 -8.99253e-20)
(-0.0463557 0.0148631 7.40224e-20)
(-0.0316115 0.014243 1.90272e-20)
(-0.00287532 0.00905147 7.57737e-20)
(-0.0085811 0.0230204 -5.45338e-20)
(-0.0151926 0.0336914 4.50446e-20)
(-0.0221123 0.041617 -1.51732e-19)
(-0.0291255 0.047214 -3.35359e-20)
(-0.0360419 0.050873 1.70471e-20)
(-0.0426823 0.0529546 -3.8578e-20)
(-0.0488995 0.0537806 -6.3838e-20)
(-0.054572 0.0536322 2.00804e-20)
(-0.0595988 0.0527476 -1.06627e-19)
(-0.0638948 0.0513212 1.98773e-19)
(-0.0673859 0.0495049 -4.56732e-20)
(-0.0700042 0.047411 -1.16683e-19)
(-0.0716845 0.0451159 -1.1942e-19)
(-0.0723606 0.0426652 1.58097e-19)
(-0.0719624 0.0400789 8.56707e-20)
(-0.0704131 0.0373574 3.40937e-20)
(-0.0676264 0.0344868 -2.86173e-19)
(-0.0635024 0.031447 2.98194e-19)
(-0.0579232 0.0282219 -9.74134e-20)
(-0.0507455 0.0248196 -4.53206e-20)
(-0.0417775 0.0213181 -3.50854e-20)
(-0.0306926 0.0179128 -3.88698e-20)
(-0.0184965 0.0152611 1.25295e-19)
(0.000840754 0.0146074 -2.04829e-19)
(-0.00326503 0.00957106 -2.81539e-20)
(-0.00948271 0.0243918 1.21675e-19)
(-0.0163119 0.0357553 -1.73948e-19)
(-0.0232255 0.0442184 6.97524e-20)
(-0.0300371 0.05021 3.84861e-20)
(-0.0365793 0.0541364 -5.83057e-20)
(-0.0426926 0.056376 1.69883e-19)
(-0.0482445 0.0572693 4.12626e-20)
(-0.053124 0.057115 1.93439e-20)
(-0.0572362 0.0561678 1.66767e-19)
(-0.0604982 0.0546366 -6.83404e-20)
(-0.0628343 0.0526858 7.22738e-20)
(-0.0641717 0.0504379 -7.68315e-20)
(-0.0644368 0.0479775 -4.8746e-21)
(-0.0635528 0.0453568 -8.3749e-20)
(-0.0614361 0.0426003 -2.89724e-19)
(-0.0579949 0.0397107 5.96702e-20)
(-0.0531259 0.0366745 2.31266e-19)
(-0.0467116 0.0334678 -7.9773e-20)
(-0.0386163 0.0300647 3.85885e-19)
(-0.0286767 0.0264527 -2.14015e-19)
(-0.0167153 0.0226797 -6.11515e-20)
(-0.00221173 0.0188612 -1.02722e-19)
(0.0133187 0.0155658 3.17748e-21)
(0.0378191 0.01483 -9.18103e-20)
(-0.00366482 0.010018 -8.43047e-20)
(-0.0104126 0.0255828 -1.25423e-19)
(-0.0174714 0.0375592 -6.73798e-20)
(-0.0243805 0.0465014 6.33374e-20)
(-0.0309793 0.0528454 1.97845e-20)
(-0.0371222 0.05701 1.14285e-20)
(-0.0426688 0.0593888 4.36804e-20)
(-0.0475012 0.060338 -2.12796e-19)
(-0.0515181 0.0601726 7.03614e-20)
(-0.0546304 0.0591619 -1.45701e-19)
(-0.0567567 0.0575282 -5.28197e-20)
(-0.0578184 0.0554477 -7.12944e-20)
(-0.0577358 0.0530529 -1.5097e-19)
(-0.0564251 0.0504366 3.10301e-19)
(-0.0537954 0.0476579 1.76008e-19)
(-0.0497463 0.0447466 4.73351e-20)
(-0.0441663 0.0417095 1.47715e-19)
(-0.0369306 0.0385349 -2.13776e-19)
(-0.0278987 0.0351982 -5.2665e-20)
(-0.016913 0.031668 -2.5082e-19)
(-0.00377932 0.0279149 9.66616e-20)
(0.0116391 0.0239635 2.12522e-19)
(0.0301203 0.0198319 9.71419e-20)
(0.0493422 0.0160356 -1.83397e-19)
(0.0801326 0.0147939 2.2904e-19)
(-0.00407062 0.0103933 -3.00496e-20)
(-0.0113614 0.0265935 7.85491e-21)
(-0.0186593 0.0391 8.53303e-20)
(-0.0255641 0.048458 1.52347e-19)
(-0.0319384 0.0551074 -1.0197e-19)
(-0.0376566 0.0594765 9.83288e-20)
(-0.0425964 0.0619711 -7.71387e-20)
(-0.0466533 0.0629616 2.91417e-19)
(-0.0497357 0.0627767 -2.04268e-19)
(-0.0517593 0.0616993 4.39433e-20)
(-0.0526427 0.059964 1.89611e-19)
(-0.0523029 0.0577577 -2.61634e-20)
(-0.0506514 0.0552225 2.03556e-20)
(-0.0475909 0.0524597 -2.52262e-19)
(-0.0430133 0.0495352 -2.1379e-19)
(-0.036797 0.0464853 -8.15818e-21)
(-0.028806 0.0433219 -2.3549e-19)
(-0.0188882 0.0400375 8.61598e-20)
(-0.00687388 0.0366102 -1.19995e-19)
(0.00742086 0.0330078 1.57008e-19)
(0.0242385 0.0291914 -2.12005e-19)
(0.0436223 0.0251722 1.2733e-19)
(0.0668075 0.0208554 -1.0638e-19)
(0.0900028 0.016742 1.44056e-19)
(0.128405 0.0148731 -8.39965e-21)
(-0.00447886 0.0106995 1.64605e-19)
(-0.0123204 0.0274267 4.17663e-20)
(-0.019864 0.0403777 -9.45189e-20)
(-0.0267628 0.0500842 -1.13433e-19)
(-0.0328993 0.0569872 7.65485e-20)
(-0.0381658 0.0615221 -2.80623e-19)
(-0.0424563 0.0641049 4.00005e-19)
(-0.0456792 0.0651181 7.78152e-20)
(-0.0477511 0.0649026 1.28953e-19)
(-0.0485912 0.0637531 1.57555e-19)
(-0.0481168 0.0619155 9.92945e-20)
(-0.0462381 0.0595866 -7.44007e-20)
(-0.0428552 0.0569175 -2.51576e-21)
(-0.037854 0.0540179 -3.63827e-20)
(-0.0311049 0.0509612 -1.08611e-19)
(-0.0224606 0.0477906 2.43373e-19)
(-0.0117551 0.0445247 4.96185e-19)
(0.00119699 0.0411623 2.95794e-20)
(0.0166014 0.0376872 1.71212e-19)
(0.0346701 0.0340715 -8.90517e-20)
(0.0557219 0.0302764 1.07885e-19)
(0.0796147 0.0263067 -6.33295e-19)
(0.108357 0.0219968 3.00694e-19)
(0.135786 0.0177208 1.85645e-19)
(0.183285 0.0154059 -1.23482e-19)
(-0.00488652 0.0109399 -9.87164e-20)
(-0.0132817 0.0280874 -1.69712e-19)
(-0.0210741 0.0413955 1.62814e-19)
(-0.0279623 0.0513794 1.06642e-19)
(-0.0338448 0.0584797 5.73457e-20)
(-0.0386292 0.0631371 2.0296e-19)
(-0.0422244 0.0657762 -2.10602e-19)
(-0.0445499 0.0667897 -1.94195e-19)
(-0.0455289 0.0665295 -1.27469e-19)
(-0.0450826 0.0653006 -2.99282e-19)
(-0.0431246 0.0633587 5.78726e-20)
(-0.0395558 0.0609102 -2.36044e-20)
(-0.0342612 0.0581146 4.26527e-19)
(-0.0271061 0.0550899 1.75634e-19)
(-0.017935 0.0519173 1.26239e-19)
(-0.00656925 0.0486479 -3.96621e-20)
(0.00719241 0.0453082 -2.27431e-19)
(0.0235743 0.0419054 -1.84184e-19)
(0.0428247 0.0384322 -2.15501e-19)
(0.0651804 0.034869 1.5432e-19)
(0.0910753 0.031189 2.90922e-19)
(0.120039 0.0273822 3.25337e-19)
(0.155292 0.0233302 -3.06634e-19)
(0.187144 0.0190304 1.32072e-19)
(0.245363 0.0166835 1.77103e-19)
(-0.00529123 0.0111188 -2.59964e-19)
(-0.0142383 0.0285828 1.447e-19)
(-0.0222784 0.0421594 -2.46779e-19)
(-0.0291472 0.0523465 3.0326e-19)
(-0.0347551 0.0595836 -2.89789e-19)
(-0.0390223 0.0643158 -8.67398e-20)
(-0.0418704 0.0669752 -1.61611e-19)
(-0.0432278 0.0679635 9.08692e-20)
(-0.0430226 0.0676417 -1.55581e-19)
(-0.0411755 0.0663244 1.70145e-19)
(-0.0375934 0.064276 -2.2316e-19)
(-0.0321648 0.0617115 -1.6553e-19)
(-0.0247554 0.0587989 5.7758e-21)
(-0.0152053 0.0556641 -2.54094e-19)
(-0.00332746 0.052397 5.38046e-21)
(0.0110929 0.0490574 -2.57176e-19)
(0.028298 0.0456813 -1.57744e-20)
(0.0485553 0.0422862 -2.80517e-19)
(0.0721607 0.0388771 9.80545e-20)
(0.0993632 0.0354434 4.26832e-19)
(0.130762 0.0319915 -4.10588e-19)
(0.165355 0.0284447 2.01648e-19)
(0.208121 0.0249639 2.21474e-19)
(0.244468 0.0207301 -1.06228e-19)
(0.315009 0.0189739 4.27223e-20)
(-0.00569124 0.0112411 1.34722e-19)
(-0.0151838 0.0289214 -3.80069e-20)
(-0.0234659 0.0426777 8.36761e-20)
(-0.0303011 0.0529913 -2.43952e-19)
(-0.0356075 0.0603011 3.90913e-19)
(-0.0393154 0.0650567 2.54874e-20)
(-0.0413559 0.067697 2.82525e-19)
(-0.0416647 0.0686314 -1.47389e-19)
(-0.0401717 0.0682295 9.98727e-20)
(-0.0367941 0.0668139 1.3139e-19)
(-0.0314287 0.0646573 1.20437e-19)
(-0.0239469 0.0619825 3.81059e-19)
(-0.0141905 0.0589659 -9.64229e-20)
(-0.00196902 0.055742 -9.71154e-20)
(0.0129412 0.0524097 -7.60559e-20)
(0.030797 0.0490391 -6.75327e-21)
(0.0518855 0.0456773 -1.60105e-19)
(0.0765187 0.0423541 1.41402e-19)
(0.105042 0.0390901 -1.89748e-19)
(0.137692 0.035881 7.78935e-20)
(0.175286 0.032802 -1.10655e-19)
(0.216038 0.0295904 1.42661e-20)
(0.267268 0.027061 -5.18664e-19)
(0.308057 0.0229025 5.53893e-20)
(0.392208 0.0225055 -1.68723e-21)
(-0.00608542 0.0113121 1.7964e-19)
(-0.0161127 0.0291133 -1.21228e-19)
(-0.0246252 0.0429608 -8.54548e-20)
(-0.0314054 0.0533224 -5.16371e-20)
(-0.0363754 0.0606382 -1.69037e-19)
(-0.0394721 0.0653626 -2.85253e-19)
(-0.040634 0.0679413 -9.30949e-20)
(-0.0398002 0.0687913 3.18454e-19)
(-0.0368998 0.0682896 -9.94431e-20)
(-0.0318422 0.0667663 -2.14962e-19)
(-0.0245098 0.0645017 -1.29852e-19)
(-0.0147519 0.0617263 -3.8968e-19)
(-0.00238075 0.0586249 -4.24535e-19)
(0.0128304 0.0553413 3.1889e-19)
(0.0311476 0.0519848 6.55939e-20)
(0.0528735 0.0486372 5.24222e-20)
(0.078342 0.0453588 5.4818e-19)
(0.107907 0.0421937 8.34326e-20)
(0.141958 0.0391823 5.2597e-19)
(0.180682 0.0363159 -6.30074e-19)
(0.225151 0.0337983 2.94635e-19)
(0.272538 0.0309806 -2.66415e-19)
(0.332963 0.0298346 4.17695e-19)
(0.37806 0.0256965 -6.27159e-19)
(0.476375 0.0274449 1.30326e-19)
(-0.00647318 0.0113375 -4.55484e-20)
(-0.01702 0.0291689 -9.6843e-20)
(-0.0257443 0.0430205 -8.92511e-20)
(-0.0324394 0.0533507 3.04055e-20)
(-0.0370276 0.0606037 -4.78869e-20)
(-0.0394493 0.0652404 1.80592e-19)
(-0.0396468 0.0677136 -6.46751e-20)
(-0.0375596 0.0684478 -1.36523e-19)
(-0.0331115 0.0678269 -5.59055e-20)
(-0.0261998 0.0661883 2.80772e-21)
(-0.0166869 0.0638195 3.58434e-19)
(-0.00439407 0.0609593 -3.14496e-19)
(0.010902 0.0578012 4.57395e-19)
(0.0294702 0.0544995 -1.32373e-19)
(0.0516231 0.0511755 -2.30458e-19)
(0.0777112 0.0479246 1.90878e-19)
(0.108113 0.0448226 -2.0937e-19)
(0.143211 0.0419296 -3.53798e-19)
(0.183426 0.0393104 -1.31824e-19)
(0.228842 0.0369319 1.23934e-19)
(0.28078 0.0352087 1.97881e-19)
(0.335194 0.0328501 3.83867e-19)
(0.405098 0.0335123 2.2236e-20)
(0.454351 0.029349 2.65571e-19)
(0.566203 0.0338803 -8.60608e-20)
(-0.00685434 0.0113227 -2.23162e-20)
(-0.0179006 0.0290991 2.1186e-19)
(-0.02681 0.0428692 2.18783e-19)
(-0.0333793 0.0530888 -9.81111e-20)
(-0.0375274 0.0602097 6.88873e-20)
(-0.0391949 0.0647012 -2.56288e-19)
(-0.0383246 0.0670247 5.09889e-20)
(-0.0348521 0.0676121 4.11617e-20)
(-0.0286911 0.0668548 -1.20073e-19)
(-0.0197209 0.0650972 -3.30716e-20)
(-0.007778 0.0626344 -4.49333e-19)
(0.00735085 0.0597138 1.42969e-19)
(0.0259306 0.0565393 -2.15733e-20)
(0.0482773 0.053277 -5.08644e-21)
(0.0747518 0.0500623 -2.0762e-20)
(0.10575 0.0470064 -4.10037e-21)
(0.141683 0.0442026 -1.8328e-20)
(0.182944 0.0417273 2.45514e-19)
(0.229943 0.0396746 -2.18165e-19)
(0.28261 0.0379583 1.98723e-19)
(0.342418 0.0372877 -2.92991e-19)
(0.404109 0.0354992 -1.41173e-19)
(0.483082 0.0382859 4.07139e-20)
(0.536365 0.0341539 -2.27608e-19)
(0.659579 0.0418034 -7.4334e-20)
(-0.00722898 0.011273 -2.11998e-19)
(-0.0187495 0.0289142 -2.66866e-20)
(-0.0278077 0.04252 -2.70375e-19)
(-0.0341976 0.0525507 -2.17359e-19)
(-0.0378317 0.0594706 2.88025e-19)
(-0.0386476 0.0637603 1.97334e-19)
(-0.0365844 0.0658911 -8.71556e-20)
(-0.0315691 0.0663034 -7.80993e-20)
(-0.0234996 0.0653964 -5.81899e-20)
(-0.0122311 0.0635222 5.02782e-19)
(0.002433 0.0609844 1.9343e-19)
(0.0207468 0.0580403 2.7325e-19)
(0.0430223 0.0549055 -1.51194e-20)
(0.0696248 0.0517603 5.30907e-20)
(0.100961 0.0487561 1.47154e-19)
(0.137462 0.046022 -3.4519e-19)
(0.17955 0.04367 5.45373e-19)
(0.227588 0.0417912 5.76295e-20)
(0.281919 0.0405109 -1.77686e-19)
(0.342254 0.0396604 -2.68195e-19)
(0.410012 0.0402834 -1.4497e-19)
(0.478993 0.0392608 3.23092e-19)
(0.56575 0.0442684 -1.07245e-20)
(0.622911 0.0403792 1.69093e-19)
(0.753661 0.0510823 2.0297e-19)
(-0.00759722 0.011193 1.61719e-19)
(-0.0195609 0.0286238 1.69315e-20)
(-0.0287202 0.0419855 -3.65298e-20)
(-0.0348621 0.0517514 3.8353e-20)
(-0.03789 0.0584035 -2.73955e-19)
(-0.0377351 0.0624371 3.64982e-19)
(-0.0343285 0.0643353 -8.73297e-22)
(-0.027583 0.0645488 2.97643e-19)
(-0.0173744 0.0634854 1.27046e-20)
(-0.00352675 0.0615062 -1.01988e-19)
(0.0141964 0.0589244 1.60708e-19)
(0.0360959 0.0560091 -5.4002e-19)
(0.0625338 0.0529899 -3.33139e-19)
(0.0939226 0.0500634 -1.66105e-19)
(0.130706 0.0473992 -7.16774e-20)
(0.173325 0.045145 6.48793e-21)
(0.222177 0.0434306 -3.537e-19)
(0.277535 0.0423573 1.34424e-19)
(0.339584 0.0420757 5.16929e-19)
(0.407759 0.0423181 1.42197e-19)
(0.483109 0.0444062 3.44109e-19)
(0.559004 0.0444342 -3.40256e-19)
(0.651355 0.0514745 -7.92682e-20)
(0.712049 0.048162 -1.3471e-19)
(0.84514 0.0614364 -7.10965e-19)
(-0.00795901 0.0110866 -1.51577e-19)
(-0.0203275 0.0282365 7.68838e-20)
(-0.0295274 0.0412777 1.36752e-19)
(-0.0353356 0.0507064 4.75764e-19)
(-0.0376438 0.0570272 1.79196e-19)
(-0.0363739 0.0607545 -3.98096e-19)
(-0.0314438 0.0623859 -1.0048e-19)
(-0.0227464 0.0623839 -5.27523e-20)
(-0.0101284 0.0611667 -1.73862e-19)
(0.00662458 0.0591059 -5.69663e-20)
(0.0277949 0.0565266 -1.17935e-19)
(0.0537339 0.053712 4.30911e-19)
(0.0848523 0.0509078 5.14818e-19)
(0.121601 0.0483291 2.59239e-19)
(0.164438 0.0461645 -1.32445e-19)
(0.213779 0.0445795 -9.28938e-20)
(0.269935 0.0437171 2.04437e-19)
(0.333008 0.0436796 -4.62221e-20)
(0.402903 0.0446238 -3.42163e-21)
(0.478718 0.0461922 1.12336e-19)
(0.560775 0.0498063 -1.60981e-19)
(0.64264 0.0512025 -2.7933e-19)
(0.737665 0.0598149 -1.86592e-19)
(0.801134 0.057429 2.36019e-19)
(0.930663 0.0724341 7.47213e-19)
(-0.0083138 0.0109568 1.20978e-19)
(-0.0210406 0.027759 4.11565e-19)
(-0.0302056 0.0404076 1.64654e-19)
(-0.0355745 0.049431 -1.45889e-19)
(-0.0370258 0.0553623 2.03657e-19)
(-0.0344681 0.0587394 2.24392e-19)
(-0.0278015 0.0600775 2.51709e-19)
(-0.0168922 0.0598529 -1.41587e-20)
(-0.00155074 0.0584967 1.98185e-19)
(0.0184819 0.0563932 -6.10595e-19)
(0.0435386 0.053882 3.45691e-19)
(0.0740209 0.0512625 -1.83936e-19)
(0.11038 0.0487993 -4.65237e-19)
(0.153086 0.0467267 -3.38072e-19)
(0.202574 0.0452515 5.51771e-19)
(0.259176 0.0445523 -1.89339e-19)
(0.323032 0.0447758 -9.3388e-20)
(0.393971 0.04601 7.20106e-20)
(0.471477 0.0483821 -3.6431e-19)
(0.55424 0.0514793 2.96117e-19)
(0.641576 0.0565569 -4.77774e-20)
(0.727763 0.0595652 3.47164e-19)
(0.822147 0.0690918 4.02086e-19)
(0.887076 0.0678804 -1.37645e-19)
(1.0073 0.0835311 -2.73408e-19)
(-0.00866033 0.0108052 -6.30849e-20)
(-0.0216886 0.0271959 -2.33465e-19)
(-0.0307267 0.0393852 6.16176e-21)
(-0.0355286 0.0479402 -1.17957e-19)
(-0.0359591 0.0534307 -3.47746e-19)
(-0.0319096 0.0564222 -1.79965e-19)
(-0.0232569 0.0574505 9.90482e-20)
(-0.00983427 0.0570089 -3.09089e-19)
(0.00859058 0.0555438 2.44065e-20)
(0.0323263 0.0534551 1.52322e-19)
(0.0617571 0.0510996 -4.38221e-19)
(0.0973283 0.0487956 -1.44293e-19)
(0.139515 0.0468276 3.72656e-19)
(0.188769 0.0454487 2.52211e-19)
(0.245448 0.0448793 -3.2664e-19)
(0.30972 0.0453015 3.51183e-19)
(0.381446 0.0468481 1.46387e-19)
(0.460057 0.0495721 -3.69013e-20)
(0.544484 0.0535207 -3.18423e-20)
(0.632931 0.0582663 -3.14648e-19)
(0.723606 0.0646341 3.47188e-20)
(0.81177 0.069315 -5.92174e-20)
(0.902216 0.078998 -3.14738e-19)
(0.966789 0.0790433 -2.31761e-19)
(1.07293 0.0941486 -2.15408e-19)
(-0.00899652 0.0106326 -3.96887e-20)
(-0.0222574 0.0265507 -5.19119e-19)
(-0.0310573 0.0382181 -3.20887e-19)
(-0.0351408 0.0462485 -4.09333e-19)
(-0.034357 0.0512557 3.61983e-19)
(-0.0285776 0.0538367 2.91712e-20)
(-0.0176505 0.0545515 2.62651e-19)
(-0.00136955 0.0539136 -2.40329e-19)
(0.0205453 0.0523881 4.00139e-19)
(0.0484542 0.0503934 1.50068e-19)
(0.0827881 0.0483063 1.22533e-20)
(0.124021 0.0464657 -2.35889e-20)
(0.172618 0.0451756 -8.33572e-20)
(0.228964 0.0447039 -7.2521e-20)
(0.29326 0.0452754 7.77414e-20)
(0.365402 0.0470589 1.10086e-19)
(0.444851 0.0501479 -7.00267e-19)
(0.530511 0.0545313 4.38505e-20)
(0.620659 0.0601238 -1.15742e-19)
(0.712946 0.0665022 -1.07118e-19)
(0.804619 0.0738987 5.38487e-20)
(0.891896 0.0800655 -3.48428e-19)
(0.975537 0.0891399 1.58154e-19)
(1.03767 0.0903822 2.00479e-19)
(1.12641 0.103767 -4.55149e-19)
(-0.00931877 0.0104385 9.27512e-20)
(-0.0227298 0.0258244 3.75753e-19)
(-0.0311586 0.036912 3.23728e-20)
(-0.0343458 0.0443702 5.94858e-19)
(-0.0321235 0.0488616 -3.77624e-19)
(-0.02434 0.0510196 3.702e-19)
(-0.0108094 0.0514324 -3.32076e-19)
(0.00871872 0.0506373 1.30873e-19)
(0.0345748 0.0491209 -1.69075e-19)
(0.0671677 0.0473238 2.23263e-19)
(0.106962 0.0456445 3.70471e-19)
(0.154433 0.044443 1.92051e-19)
(0.209989 0.0440395 7.69709e-20)
(0.273871 0.044708 8.41305e-20)
(0.346023 0.0466613 -6.40665e-20)
(0.425949 0.0500304 -5.15211e-20)
(0.512577 0.0548359 5.71349e-19)
(0.604177 0.0609672 1.88004e-19)
(0.69833 0.0681644 5.20737e-19)
(0.792139 0.075994 1.3562e-20)
(0.882234 0.0840908 -3.28094e-19)
(0.965594 0.0913114 4.08648e-19)
(1.04031 0.0991019 5.14582e-19)
(1.09795 0.101433 6.64836e-20)
(1.16753 0.111981 4.4759e-19)
(-0.00962201 0.0102212 -2.63206e-19)
(-0.0230839 0.0250155 1.45893e-19)
(-0.0309863 0.0354717 3.20665e-19)
(-0.0330711 0.0423187 -1.26155e-19)
(-0.029153 0.0462737 -3.75702e-19)
(-0.0190538 0.0480111 -2.77437e-20)
(-0.00254974 0.0481511 2.03242e-20)
(0.0206567 0.0472581 3.64592e-20)
(0.050945 0.0458442 -2.33926e-19)
(0.088763 0.0443742 -9.91474e-20)
(0.134586 0.0432696 -3.4601e-19)
(0.188844 0.042909 -8.56975e-21)
(0.251823 0.0436211 -9.73603e-20)
(0.323526 0.0456708 -2.95175e-20)
(0.403517 0.049235 2.58267e-19)
(0.49078 0.0543739 -3.78501e-19)
(0.583595 0.060996 1.59399e-19)
(0.679535 0.068853 -2.521e-19)
(0.775538 0.0774906 -3.76415e-19)
(0.86827 0.0864287 6.95739e-20)
(0.954203 0.0948498 6.99973e-19)
(1.03088 0.102505 -3.5458e-19)
(1.0955 0.108551 1.54114e-20)
(1.14673 0.111883 3.0698e-19)
(1.19692 0.11842 1.72064e-19)
(-0.00989904 0.00997753 1.23949e-19)
(-0.0232944 0.0241213 -1.76078e-19)
(-0.0304897 0.0339004 -3.73267e-19)
(-0.0312364 0.0401073 -1.98351e-19)
(-0.0253313 0.0435187 2.16868e-19)
(-0.0125673 0.0448544 7.38406e-20)
(0.00731978 0.0447703 4.31651e-19)
(0.0346741 0.0438617 1.75135e-19)
(0.0699171 0.042669 1.10725e-19)
(0.113516 0.0416828 5.16315e-20)
(0.165918 0.0413462 3.57731e-19)
(0.22745 0.0420499 1.61819e-19)
(0.298184 0.0441176 -1.34008e-19)
(0.377767 0.0477825 1.91754e-19)
(0.465259 0.0531529 -1.10551e-19)
(0.558997 0.0601785 1.40404e-19)
(0.656548 0.0686159 -1.363e-19)
(0.754805 0.0780479 -2.96772e-19)
(0.850214 0.0878323 4.31512e-19)
(0.939255 0.0974157 -4.51175e-19)
(1.01869 0.105757 1.27529e-19)
(1.08659 0.113141 -1.47322e-19)
(1.14083 0.117341 -1.11239e-19)
(1.18397 0.121445 -9.16303e-19)
(1.21599 0.122521 1.46218e-19)
(-0.010141 0.00970446 2.5308e-20)
(-0.0233305 0.023138 1.26217e-19)
(-0.0296124 0.0322002 4.18825e-19)
(-0.0287543 0.037749 -9.88098e-20)
(-0.0205367 0.0406246 -4.30465e-20)
(-0.00472195 0.0415961 8.01045e-20)
(0.0189943 0.0413584 7.14185e-20)
(0.0509979 0.0405411 -2.81244e-19)
(0.0917368 0.0397147 -1.30658e-19)
(0.141666 0.0393954 -4.03331e-19)
(0.201151 0.0400431 -3.04584e-19)
(0.270334 0.0420487 -2.17255e-19)
(0.348963 0.0457103 1.94109e-19)
(0.436203 0.0511979 -2.83439e-19)
(0.530482 0.0585115 -1.36486e-19)
(0.629409 0.0674482 -5.9747e-20)
(0.729833 0.0775794 -4.31606e-20)
(0.828093 0.0883055 8.88452e-19)
(0.920397 0.0988301 5.64819e-20)
(1.00338 0.10854 -7.81598e-20)
(1.07446 0.116386 -4.40751e-19)
(1.13242 0.122859 1.4317e-19)
(1.17664 0.125488 1.48956e-20)
(1.21039 0.129455 5.26509e-19)
(1.22741 0.123896 5.90022e-20)
(-0.0103379 0.0093979 2.00308e-19)
(-0.0231576 0.0220599 -1.92655e-19)
(-0.0282913 0.0303731 -2.92591e-19)
(-0.025531 0.0352579 2.9384e-19)
(-0.0146414 0.0376217 -6.55992e-20)
(0.00464444 0.0382863 -5.68546e-20)
(0.0326677 0.0379889 4.95977e-20)
(0.0698442 0.0373953 -7.09704e-20)
(0.116623 0.0371069 1.78051e-19)
(0.1734 0.0376621 1.15477e-19)
(0.240388 0.0395277 2.99191e-19)
(0.317442 0.0430767 -8.02822e-21)
(0.403862 0.0485521 2.45388e-19)
(0.498202 0.0560215 -1.64575e-20)
(0.598159 0.0653332 2.62065e-19)
(0.700591 0.0760931 7.62981e-20)
(0.801725 0.0876714 -4.9268e-19)
(0.897575 0.0992987 -2.40225e-19)
(0.984441 0.110084 -5.84886e-20)
(1.05949 0.11941 1.58564e-19)
(1.12103 0.126369 -7.52361e-20)
(1.16878 0.131515 -2.67351e-19)
(1.20363 0.1329 3.51592e-20)
(1.22751 0.135043 -2.46882e-19)
(1.24078 0.128969 -1.19517e-19)
(-0.010477 0.00905297 1.22712e-19)
(-0.0227368 0.0208821 1.31028e-19)
(-0.0264584 0.0284212 2.40112e-19)
(-0.0214666 0.0326491 -1.74905e-19)
(-0.00751343 0.0345428 1.27869e-20)
(0.015695 0.0349794 3.50354e-19)
(0.0485274 0.0347405 -1.00408e-19)
(0.0914099 0.0345292 -3.35174e-19)
(0.144754 0.0349757 -1.98642e-19)
(0.208835 0.0366331 2.65675e-19)
(0.28362 0.0399595 -5.53664e-19)
(0.36856 0.0452834 2.17815e-21)
(0.462376 0.052755 -4.75291e-20)
(0.5629 0.0622952 3.51896e-19)
(0.667049 0.0735577 -1.91469e-19)
(0.77099 0.0859332 2.63148e-19)
(0.870531 0.0985978 2.66232e-19)
(0.961672 0.110657 -4.70148e-19)
(1.04117 0.121205 -1.96241e-19)
(1.10701 0.129703 -1.62978e-19)
(1.15857 0.135455 2.48838e-19)
(1.19657 0.139129 3.94157e-19)
(1.22274 0.139213 1.83477e-19)
(1.23921 0.139817 -1.63141e-19)
(1.24826 0.13339 -2.94408e-19)
(-0.0105438 0.00866509 -2.8991e-20)
(-0.0220249 0.0195997 1.22696e-19)
(-0.0240403 0.0263483 -2.43809e-19)
(-0.0164573 0.0299405 -3.74373e-19)
(0.000981511 0.0314245 -5.54831e-19)
(0.0285897 0.0317346 9.45403e-20)
(0.0667487 0.0316975 -1.11519e-19)
(0.115864 0.0320527 1.6347e-19)
(0.176258 0.0334535 6.07797e-20)
(0.248003 0.036455 1.17283e-19)
(0.330713 0.0414833 1.30381e-19)
(0.423304 0.0487872 -7.19919e-20)
(0.523798 0.0583798 -1.0418e-19)
(0.629232 0.0699893 -2.34125e-19)
(0.735768 0.0830427 7.14399e-20)
(0.839047 0.0967123 -2.79752e-19)
(0.934742 0.110018 1.0318e-19)
(1.0192 0.122013 6.66242e-20)
(1.08994 0.131863 -2.77265e-19)
(1.146 0.139184 -2.9897e-19)
(1.18779 0.143538 -1.60088e-19)
(1.21691 0.145714 9.11346e-21)
(1.2357 0.144578 5.00138e-20)
(1.24631 0.143906 -1.61057e-19)