/*--------------------------------*- C++ -*----------------------------------*\
  =========                 |
  \\      /  F ield         | OpenFOAM: The Open Source CFD Toolbox
   \\    /   O peration     | Website:  https://openfoam.org
    \\  /    A nd           | Version:  7
     \\/     M anipulation  |
\*---------------------------------------------------------------------------*/
FoamFile
{
    version     2.0;
    format      ascii;
    class       volVectorField;
    location    "90";
    object      U;
}
// * * * * * * * * * * * * * * * * * * * * * * * * * * * * * * * * * * * * * //

dimensions      [0 1 -1 0 0 0 0];

internalField   nonuniform List<vector> 
1987
(
(0.00638033 0.00613049 -2.23378e-20)
(0.0347723 0.0135361 1.49345e-20)
(0.0854195 0.0172442 -4.8047e-21)
(0.14272 0.0184945 2.08717e-20)
(0.201095 0.0183008 2.27831e-20)
(0.257612 0.0174016 -7.30582e-21)
(0.00636772 -0.0052345 2.23473e-20)
(0.0347455 -0.0117768 -1.49408e-20)
(0.0853842 -0.0151939 4.80625e-21)
(0.142681 -0.0164617 -2.08809e-20)
(0.201054 -0.0164117 -2.27929e-20)
(0.25757 -0.0156859 7.30869e-21)
(0.310806 -0.0146998 5.01946e-21)
(0.360416 -0.0136721 -3.49897e-20)
(0.406492 -0.0126936 3.95705e-21)
(0.449264 -0.0117904 -5.2738e-21)
(0.488981 -0.0109635 -1.74248e-20)
(0.525881 -0.0102074 -1.63653e-20)
(0.560181 -0.00951568 9.83578e-21)
(0.592082 -0.00888223 1.16301e-20)
(0.621768 -0.00830158 3.23344e-22)
(0.649405 -0.00776873 1.36996e-20)
(0.675149 -0.00727914 -1.02142e-20)
(0.69914 -0.00682872 -1.64594e-20)
(0.721508 -0.00641372 5.6964e-21)
(0.742372 -0.00603075 -2.51461e-20)
(0.761839 -0.00567688 -1.56184e-21)
(0.780011 -0.00534966 1.79175e-21)
(0.796983 -0.00504611 -3.80085e-21)
(0.812846 -0.00476146 -7.31096e-21)
(0.827665 -0.00449507 -4.38815e-21)
(0.00694043 -0.0165746 -2.30067e-20)
(0.0359926 -0.0370408 -1.21315e-20)
(0.0869475 -0.0475763 1.26492e-20)
(0.144338 -0.0513637 4.78729e-20)
(0.202676 -0.0510747 -3.46192e-20)
(0.259096 -0.0487294 1.66076e-20)
(0.312215 -0.0456079 -6.16155e-22)
(0.361708 -0.0423708 2.69218e-20)
(0.407674 -0.0392864 -5.63235e-21)
(0.450345 -0.0364302 -4.01188e-21)
(0.48997 -0.0338051 7.25994e-20)
(0.526787 -0.0313948 7.4736e-22)
(0.561012 -0.0291806 -7.49876e-20)
(0.592845 -0.0271452 3.64784e-20)
(0.622469 -0.0252726 6.66238e-21)
(0.65005 -0.0235482 -1.3632e-20)
(0.675742 -0.0219589 2.71257e-20)
(0.699687 -0.0204927 1.70875e-21)
(0.722013 -0.0191385 -2.36623e-20)
(0.742838 -0.0178865 8.55892e-20)
(0.76227 -0.016728 2.51645e-20)
(0.780411 -0.0156559 -3.61322e-20)
(0.797356 -0.0146612 -1.70422e-20)
(0.813195 -0.0137286 -2.91716e-21)
(0.82798 -0.0128568 6.55736e-21)
(0.00809498 -0.0278421 4.67761e-20)
(0.0385072 -0.0621619 1.29433e-21)
(0.090102 -0.0797948 6.0936e-20)
(0.147684 -0.0861059 -8.93716e-20)
(0.205955 -0.0855918 9.92303e-20)
(0.262185 -0.0816421 8.52711e-21)
(0.315071 -0.076399 8.78965e-21)
(0.36433 -0.070964 -1.49794e-20)
(0.410076 -0.0657838 -4.85253e-20)
(0.452546 -0.0609836 7.96707e-21)
(0.491988 -0.0565682 1.30025e-20)
(0.528637 -0.052511 -4.63727e-20)
(0.562711 -0.0487811 7.55432e-21)
(0.594406 -0.0453497 -4.11033e-20)
(0.623903 -0.0421905 7.92412e-20)
(0.65137 -0.0392795 3.06161e-20)
(0.676959 -0.0365949 -4.49505e-21)
(0.700809 -0.0341168 9.2128e-20)
(0.723049 -0.0318272 -2.43223e-20)
(0.743796 -0.0297094 -5.1715e-20)
(0.763156 -0.0277492 3.10818e-20)
(0.78123 -0.0259348 7.1502e-20)
(0.798119 -0.024251 3.44657e-20)
(0.813909 -0.0226723 6.08062e-20)
(0.828624 -0.0211979 3.16662e-20)
(0.00982448 -0.0389895 -2.20941e-20)
(0.0422763 -0.0870467 3.50356e-20)
(0.0948338 -0.111742 -1.10549e-19)
(0.152707 -0.120584 8.68383e-20)
(0.210881 -0.119867 2.14034e-20)
(0.266827 -0.114338 5.12392e-21)
(0.319366 -0.106996 -6.60308e-20)
(0.368275 -0.0993819 -4.44607e-20)
(0.413692 -0.0921224 7.74555e-20)
(0.45586 -0.0853929 -3.09979e-20)
(0.495027 -0.0792006 -2.29273e-21)
(0.531426 -0.0735084 1.29912e-19)
(0.565271 -0.0682737 4.2012e-20)
(0.596759 -0.0634562 -2.52958e-21)
(0.626068 -0.0590194 -2.50387e-20)
(0.653363 -0.0549299 -1.07195e-19)
(0.678796 -0.0511573 -1.06841e-20)
(0.702503 -0.0476741 -9.33063e-20)
(0.724613 -0.0444549 -8.81628e-20)
(0.745242 -0.0414768 1.00848e-20)
(0.764493 -0.0387199 -3.60492e-20)
(0.782468 -0.0361676 1.31193e-20)
(0.799272 -0.0337984 -4.21189e-20)
(0.814987 -0.0315767 -1.32857e-19)
(0.829596 -0.0295046 -1.94373e-20)
(0.0121187 -0.04997 -3.58963e-20)
(0.0472808 -0.111603 1.28288e-19)
(0.101122 -0.143312 -1.62085e-19)
(0.159386 -0.154692 -5.86571e-20)
(0.217434 -0.153804 -4.57828e-20)
(0.273006 -0.146731 -4.71677e-20)
(0.325085 -0.137321 2.4402e-19)
(0.373529 -0.127555 -8.73469e-20)
(0.41851 -0.11824 -8.76198e-20)
(0.460277 -0.109601 1.26226e-19)
(0.499078 -0.10165 -1.25496e-19)
(0.535144 -0.09434 -6.59747e-20)
(0.568687 -0.0876155 -7.7903e-20)
(0.599899 -0.0814257 4.88028e-20)
(0.628957 -0.0757238 9.76505e-21)
(0.656023 -0.0704671 -2.23028e-19)
(0.681247 -0.0656169 9.36598e-20)
(0.704765 -0.0611377 -6.79515e-20)
(0.726703 -0.0569974 1.5799e-19)
(0.747173 -0.0531665 6.04384e-20)
(0.766279 -0.0496196 -5.42496e-20)
(0.784122 -0.0463356 -9.04327e-20)
(0.800812 -0.0432861 -1.42198e-20)
(0.816427 -0.0404258 1.09285e-19)
(0.830895 -0.0377631 7.40181e-20)
(0.014964 -0.0607378 1.39956e-19)
(0.0534955 -0.135739 4.26789e-20)
(0.108938 -0.174399 9.73008e-20)
(0.167695 -0.188329 9.1896e-20)
(0.225593 -0.18731 -6.43861e-20)
(0.280702 -0.178737 1.10464e-19)
(0.332211 -0.167299 6.79539e-20)
(0.380078 -0.155415 3.38007e-19)
(0.424516 -0.144073 -1.46767e-20)
(0.465783 -0.133552 2.4165e-21)
(0.50413 -0.123866 2.31325e-19)
(0.539782 -0.114959 7.3211e-20)
(0.572947 -0.106764 9.0645e-20)
(0.603816 -0.0992198 -1.68822e-19)
(0.632561 -0.0922687 -4.59548e-20)
(0.659343 -0.0858592 1.22927e-19)
(0.684308 -0.0799443 1.28314e-19)
(0.707589 -0.0744811 -3.29981e-20)
(0.729311 -0.0694302 -1.28278e-19)
(0.749584 -0.0647562 2.74089e-20)
(0.768509 -0.0604282 1.52927e-20)
(0.786187 -0.0564204 6.88144e-20)
(0.802735 -0.052697 8.28237e-20)
(0.818226 -0.0492038 -6.55252e-20)
(0.832518 -0.0459594 -4.28897e-20)
(0.0183438 -0.0712477 -7.45119e-20)
(0.0608887 -0.159366 -8.33774e-20)
(0.118247 -0.204901 6.40156e-20)
(0.177602 -0.221394 1.28622e-19)
(0.235327 -0.220291 -1.99147e-20)
(0.28989 -0.210272 -1.47026e-19)
(0.340721 -0.196855 -2.06034e-19)
(0.387901 -0.182895 -2.69739e-19)
(0.431691 -0.169562 -4.5341e-20)
(0.472363 -0.15719 -6.15431e-20)
(0.510167 -0.145798 -7.07171e-20)
(0.545325 -0.13532 -2.51007e-19)
(0.578041 -0.125678 1.34249e-20)
(0.6085 -0.1168 2.9299e-19)
(0.636872 -0.108619 -2.02928e-19)
(0.663314 -0.101075 -7.64779e-20)
(0.687969 -0.094111 -2.33314e-19)
(0.710968 -0.087678 9.30094e-20)
(0.732432 -0.0817297 9.91289e-20)
(0.75247 -0.0762243 -2.73388e-19)
(0.771178 -0.0711259 8.66313e-20)
(0.788658 -0.0664037 1.27831e-19)
(0.805036 -0.0620145 3.13414e-20)
(0.820378 -0.0578951 9.69119e-20)
(0.834462 -0.0540796 -1.61801e-20)
(0.0222378 -0.0814561 -1.88539e-20)
(0.0694231 -0.182396 2.91336e-20)
(0.129008 -0.234715 -6.02479e-21)
(0.189067 -0.253785 2.24275e-19)
(0.246603 -0.252655 1.73876e-19)
(0.300539 -0.241255 3.23878e-20)
(0.350588 -0.225916 7.87879e-20)
(0.396974 -0.209928 1.46349e-19)
(0.440014 -0.194646 3.37349e-20)
(0.479998 -0.18046 1.32536e-20)
(0.517173 -0.167395 1.34508e-19)
(0.551758 -0.155377 -5.62531e-20)
(0.583953 -0.144316 -4.16783e-20)
(0.613937 -0.13413 -2.13502e-19)
(0.641876 -0.124742 7.00693e-21)
(0.667924 -0.116083 1.19256e-19)
(0.69222 -0.108089 1.2322e-20)
(0.714891 -0.100703 -4.63759e-20)
(0.736057 -0.0938724 -1.8226e-19)
(0.755822 -0.0875493 1.30956e-19)
(0.77428 -0.081693 -3.25107e-19)
(0.791529 -0.0762678 -1.28688e-19)
(0.80771 -0.071222 9.17825e-20)
(0.822879 -0.0664844 -1.74763e-19)
(0.836724 -0.0621101 -9.4943e-20)
(0.0266232 -0.0913208 -1.8498e-20)
(0.0790551 -0.204745 -1.05145e-19)
(0.141174 -0.263744 -2.80348e-19)
(0.202045 -0.285407 -3.51066e-19)
(0.25938 -0.284314 -2.03409e-19)
(0.312614 -0.271604 1.38672e-19)
(0.361782 -0.254409 -3.33582e-19)
(0.407269 -0.236449 -3.43146e-20)
(0.44946 -0.219266 1.90549e-19)
(0.488663 -0.20331 -2.12254e-20)
(0.525126 -0.188611 -3.23809e-19)
(0.559063 -0.175087 3.31311e-19)
(0.590666 -0.162639 1.81281e-19)
(0.620112 -0.151173 3.71655e-20)
(0.647561 -0.140603 2.77339e-19)
(0.673162 -0.130853 1.7066e-19)
(0.697051 -0.12185 -2.854e-20)
(0.719351 -0.113531 3.28258e-19)
(0.740177 -0.105835 -2.8485e-20)
(0.759633 -0.0987105 1.42047e-19)
(0.777806 -0.0921105 1.6937e-19)
(0.794795 -0.0859951 -1.48859e-19)
(0.81075 -0.0803036 -1.6005e-19)
(0.825724 -0.0749567 1.20934e-19)
(0.839299 -0.0700374 -1.59215e-19)
(0.0314739 -0.100801 2.39058e-19)
(0.0897358 -0.22633 -1.68748e-19)
(0.154689 -0.291891 1.79682e-20)
(0.216486 -0.316165 -6.20633e-20)
(0.273613 -0.31518 -5.82523e-20)
(0.326076 -0.301243 -2.73055e-19)
(0.374267 -0.282264 1.96159e-19)
(0.418755 -0.262396 3.50017e-19)
(0.460001 -0.243367 -1.70771e-19)
(0.498334 -0.225687 -1.54384e-19)
(0.534003 -0.209397 5.04431e-19)
(0.567217 -0.194406 -3.42354e-19)
(0.598162 -0.180606 -4.96147e-19)
(0.627008 -0.167892 -2.93507e-20)
(0.653911 -0.156171 7.72513e-20)
(0.679014 -0.145356 -2.21967e-19)
(0.702448 -0.135369 9.86461e-20)
(0.724334 -0.126137 -4.19857e-19)
(0.744783 -0.117597 3.54358e-19)
(0.763894 -0.109687 -6.0892e-20)
(0.781749 -0.10236 3.0741e-20)
(0.798446 -0.0955687 9.63961e-20)
(0.81415 -0.0892435 8.98631e-20)
(0.828906 -0.0832974 -7.01933e-20)
(0.842183 -0.0778482 -1.48702e-20)
(0.0367611 -0.109859 -1.48813e-19)
(0.10141 -0.247073 1.07096e-19)
(0.169493 -0.319064 -7.87458e-20)
(0.232331 -0.345966 2.86652e-19)
(0.289251 -0.345169 6.53874e-20)
(0.34088 -0.330094 -2.98265e-20)
(0.388004 -0.309414 6.60848e-20)
(0.431398 -0.287707 1.06834e-19)
(0.471606 -0.266891 -3.00084e-20)
(0.508983 -0.247541 1.75103e-19)
(0.543779 -0.229708 -3.19244e-19)
(0.576198 -0.213294 7.30332e-20)
(0.606419 -0.198181 1.77413e-19)
(0.634605 -0.184255 1.72437e-19)
(0.660907 -0.171414 -2.15975e-19)
(0.685463 -0.159564 -1.07641e-19)
(0.708398 -0.148618 -4.29541e-20)
(0.729828 -0.138498 3.44627e-19)
(0.749861 -0.129134 -3.42265e-19)
(0.768592 -0.12046 1.07101e-19)
(0.786098 -0.112423 4.83024e-20)
(0.802475 -0.104972 3.30152e-20)
(0.817901 -0.0980266 3.50725e-20)
(0.832417 -0.0914924 -1.17037e-19)
(0.84537 -0.0855295 1.85039e-19)
(0.042453 -0.118457 5.66965e-20)
(0.114019 -0.266898 -2.16911e-19)
(0.185519 -0.345173 3.20072e-19)
(0.249517 -0.374722 -1.29327e-19)
(0.306238 -0.374198 -6.36356e-20)
(0.356978 -0.358085 1.02965e-19)
(0.402951 -0.335793 -2.96153e-19)
(0.445158 -0.312323 -7.4923e-20)
(0.484239 -0.289786 -2.57934e-20)
(0.520577 -0.268824 -2.68065e-19)
(0.554426 -0.2495 1.0655e-19)
(0.58598 -0.23171 -1.03331e-19)
(0.615414 -0.215326 1.12269e-19)
(0.642884 -0.200228 6.23114e-21)
(0.668533 -0.186302 1.12198e-19)
(0.692492 -0.173448 3.71721e-19)
(0.714884 -0.161572 -7.33586e-20)
(0.735819 -0.150591 -2.70676e-19)
(0.7554 -0.140427 9.21139e-20)
(0.773719 -0.13101 -4.16319e-19)
(0.790844 -0.122282 2.22232e-19)
(0.806873 -0.114189 5.8527e-20)
(0.821995 -0.106638 9.4948e-20)
(0.83625 -0.0995278 -1.96147e-21)
(0.848855 -0.0930684 8.26632e-20)
(0.0485156 -0.126561 1.48495e-19)
(0.127496 -0.285733 2.28806e-19)
(0.202694 -0.370134 1.11029e-19)
(0.267975 -0.402347 -1.09569e-19)
(0.324513 -0.402189 -3.15985e-20)
(0.374315 -0.385143 -1.84364e-20)
(0.419059 -0.361338 -7.15716e-20)
(0.459993 -0.336187 3.41486e-19)
(0.497863 -0.312001 -1.04972e-19)
(0.533084 -0.28949 2.28644e-19)
(0.565911 -0.26873 7.46644e-20)
(0.596536 -0.249615 1.05324e-19)
(0.625122 -0.232008 2.10894e-19)
(0.65182 -0.215778 -4.18518e-19)
(0.676765 -0.200806 -2.26292e-19)
(0.700084 -0.186983 -6.14686e-20)
(0.72189 -0.174209 -1.77507e-19)
(0.742291 -0.162394 2.45306e-19)
(0.761386 -0.151456 5.87633e-20)
(0.779259 -0.141318 2.61692e-19)
(0.795976 -0.131921 -9.92743e-20)
(0.811628 -0.123205 -2.05621e-19)
(0.826422 -0.115064 -9.20218e-20)
(0.840397 -0.107391 1.63219e-19)
(0.852632 -0.100452 -1.99147e-19)
(0.0549123 -0.13414 4.01901e-20)
(0.141771 -0.303512 -1.95401e-21)
(0.220939 -0.393865 -1.43207e-19)
(0.287632 -0.428761 -2.45921e-19)
(0.344009 -0.429066 1.64312e-19)
(0.392834 -0.411203 -1.51599e-19)
(0.43628 -0.385987 1.20981e-19)
(0.47586 -0.359245 -4.6223e-19)
(0.512438 -0.333486 3.17463e-19)
(0.546466 -0.309493 -6.75757e-20)
(0.578203 -0.287358 -2.79139e-19)
(0.607835 -0.266973 3.32472e-20)
(0.635516 -0.248192 -2.89333e-20)
(0.661389 -0.230876 3.35415e-19)
(0.685583 -0.214898 2.72451e-19)
(0.708216 -0.200142 1.14931e-20)
(0.729398 -0.186504 2.77204e-19)
(0.749229 -0.173886 -9.40386e-20)
(0.767803 -0.1622 1.33012e-19)
(0.785201 -0.151368 -1.62248e-19)
(0.801481 -0.141324 2.10074e-19)
(0.81673 -0.132004 -1.15362e-19)
(0.831173 -0.123292 9.44142e-20)
(0.844847 -0.115068 -1.28029e-19)
(0.856693 -0.107669 7.74661e-21)
(0.0616044 -0.141165 -2.66572e-19)
(0.156771 -0.320172 -5.31145e-20)
(0.240172 -0.41629 1.46315e-19)
(0.308406 -0.453886 1.76081e-19)
(0.364656 -0.454757 -1.18198e-19)
(0.412474 -0.436198 4.3507e-19)
(0.454558 -0.409684 -6.09959e-19)
(0.49271 -0.381446 -1.05961e-19)
(0.52792 -0.354195 -1.88469e-19)
(0.560684 -0.328791 -2.24936e-19)
(0.591266 -0.305347 -1.34773e-19)
(0.619845 -0.283749 9.65239e-20)
(0.646567 -0.263846 -2.79177e-21)
(0.671566 -0.245491 4.51467e-20)
(0.694962 -0.228551 1.30527e-19)
(0.716869 -0.212903 -2.84514e-19)
(0.737388 -0.198435 -5.61405e-19)
(0.756614 -0.185046 -2.58406e-20)
(0.774636 -0.172643 -1.75919e-19)
(0.79153 -0.161142 8.80908e-20)
(0.807345 -0.150474 -1.07423e-19)
(0.822169 -0.140574 5.90833e-19)
(0.836237 -0.131307 -2.68246e-19)
(0.849593 -0.122548 -1.58266e-19)
(0.861033 -0.114708 1.06129e-19)
(0.0685509 -0.147608 1.50038e-19)
(0.172414 -0.335653 2.4849e-19)
(0.260301 -0.437337 -2.32236e-19)
(0.330213 -0.477648 -1.59204e-19)
(0.386378 -0.479193 -7.48332e-20)
(0.433168 -0.460068 -2.99525e-19)
(0.473836 -0.432374 3.16071e-19)
(0.510491 -0.40274 2.86427e-19)
(0.544264 -0.374083 1.88032e-19)
(0.575697 -0.347345 4.17448e-19)
(0.605063 -0.322658 -7.2777e-20)
(0.632532 -0.29991 3.00491e-20)
(0.658243 -0.278941 -5.43376e-19)
(0.682321 -0.259598 -2.18331e-19)
(0.704878 -0.241741 -1.54605e-19)
(0.726019 -0.225241 5.34499e-20)
(0.745839 -0.209982 2.57762e-19)
(0.764428 -0.195857 1.993e-19)
(0.781868 -0.182767 2.22029e-19)
(0.79823 -0.170624 -1.5443e-19)
(0.813557 -0.159359 -2.7527e-19)
(0.82793 -0.1489 -2.98251e-19)
(0.841602 -0.139099 2.69835e-19)
(0.854623 -0.12982 -1.08056e-19)
(0.865642 -0.121556 -1.46075e-19)
(0.0757093 -0.153447 3.48731e-19)
(0.188619 -0.349904 -1.93352e-19)
(0.281234 -0.45694 3.29923e-19)
(0.352963 -0.499979 -4.00498e-19)
(0.409095 -0.502311 4.00596e-19)
(0.454848 -0.482754 1.20788e-19)
(0.494053 -0.454004 2.2025e-19)
(0.52915 -0.423082 -1.24916e-19)
(0.561421 -0.39311 2.0679e-19)
(0.591462 -0.365117 -2.26886e-19)
(0.619553 -0.339259 2.89997e-19)
(0.645861 -0.315424 2.05519e-19)
(0.670514 -0.293448 5.36965e-21)
(0.693626 -0.27317 2.98962e-19)
(0.715304 -0.254444 -9.94517e-21)
(0.735642 -0.237137 2.81817e-19)
(0.75473 -0.221125 1.56814e-20)
(0.77265 -0.206299 2.88008e-19)
(0.78948 -0.192554 -9.74307e-20)
(0.805285 -0.1798 -4.01683e-19)
(0.820101 -0.167964 3.77421e-19)
(0.834002 -0.156971 -1.765e-19)
(0.847257 -0.146657 -1.86405e-19)
(0.859927 -0.136873 9.00716e-20)
(0.870515 -0.128204 -3.21647e-20)
(0.0830352 -0.158661 -1.8121e-19)
(0.205299 -0.362876 5.35067e-20)
(0.302872 -0.475038 -1.11899e-19)
(0.376562 -0.520816 3.23504e-19)
(0.432724 -0.524049 -4.95841e-19)
(0.477439 -0.504202 -3.56953e-20)
(0.515146 -0.474528 -3.69493e-19)
(0.54863 -0.442429 1.88429e-19)
(0.579341 -0.411238 -1.28033e-19)
(0.607932 -0.382073 -1.61819e-19)
(0.634697 -0.355119 -1.53717e-19)
(0.659794 -0.330264 -4.5505e-19)
(0.683344 -0.307341 1.2464e-19)
(0.705451 -0.286183 1.03335e-19)
(0.726211 -0.266639 8.07156e-20)
(0.745713 -0.248569 -3.59568e-21)
(0.764038 -0.231847 1.58312e-19)
(0.781261 -0.216356 -1.46471e-19)
(0.797455 -0.201991 1.81474e-19)
(0.812679 -0.188656 -6.135e-20)
(0.826961 -0.176276 9.19577e-20)
(0.84037 -0.164775 -8.96301e-21)
(0.85319 -0.15397 4.30423e-19)
(0.865495 -0.143697 -4.02486e-20)
(0.875642 -0.13464 -2.74796e-24)
(0.0904831 -0.163233 -2.01128e-19)
(0.222362 -0.374528 1.34614e-19)
(0.32511 -0.491576 8.87452e-20)
(0.40091 -0.5401 6.77633e-20)
(0.457175 -0.544354 2.07741e-19)
(0.500866 -0.524363 3.33685e-19)
(0.537048 -0.493901 1.1762e-19)
(0.568873 -0.460741 -3.90675e-19)
(0.59797 -0.42843 1.28051e-19)
(0.625061 -0.39818 2.58776e-19)
(0.65045 -0.370206 1.43343e-19)
(0.674293 -0.344402 4.62571e-19)
(0.696699 -0.320596 4.71944e-19)
(0.717763 -0.298616 -3.51302e-19)
(0.737572 -0.278305 -7.31802e-20)
(0.756207 -0.259519 -6.10624e-20)
(0.77374 -0.242129 -5.47946e-19)
(0.790239 -0.226014 -8.10001e-20)
(0.805773 -0.211064 -4.84133e-19)
(0.820394 -0.197179 5.6816e-19)
(0.834123 -0.184285 -2.60906e-19)
(0.847021 -0.172302 2.22168e-19)
(0.859388 -0.161029 -3.39964e-19)
(0.871315 -0.150284 4.87368e-19)
(0.881016 -0.140856 -1.00828e-19)
(0.0980061 -0.16715 5.83468e-20)
(0.239716 -0.384822 8.82892e-20)
(0.347842 -0.506504 7.45409e-20)
(0.425903 -0.557778 -1.91943e-20)
(0.482357 -0.563173 4.27975e-20)
(0.525049 -0.54319 -2.08974e-19)
(0.559688 -0.512082 7.07659e-20)
(0.589817 -0.477983 1.51227e-19)
(0.617255 -0.444655 6.80271e-20)
(0.642798 -0.41341 -7.18842e-21)
(0.666768 -0.384496 -4.05508e-19)
(0.689316 -0.357815 3.39692e-19)
(0.710542 -0.333191 -4.96731e-19)
(0.730529 -0.310447 1.43426e-19)
(0.749357 -0.289423 2.25036e-19)
(0.767095 -0.269971 -1.90243e-19)
(0.78381 -0.251957 2.03386e-19)
(0.799562 -0.235257 3.24214e-19)
(0.814413 -0.219758 1.30018e-19)
(0.828411 -0.205357 -1.09876e-19)
(0.841569 -0.191979 -1.61409e-19)
(0.85394 -0.179542 -3.08394e-19)
(0.865838 -0.167825 -1.49511e-20)
(0.877376 -0.156626 -1.98634e-19)
(0.886629 -0.146843 6.37497e-20)
(0.105556 -0.170401 2.51402e-20)
(0.257263 -0.39373 -1.84072e-19)
(0.370956 -0.519781 -2.08908e-19)
(0.451435 -0.573803 1.02237e-19)
(0.508173 -0.58046 -8.36606e-20)
(0.549904 -0.560641 2.50496e-19)
(0.582996 -0.529034 -6.20382e-20)
(0.611399 -0.494122 -5.39802e-20)
(0.637139 -0.459883 1.24848e-19)
(0.661094 -0.427735 3.22825e-20)
(0.683606 -0.397965 4.66668e-19)
(0.704824 -0.370481 -1.5874e-19)
(0.724835 -0.345105 2.88197e-20)
(0.743716 -0.321659 5.63073e-21)
(0.761534 -0.299977 1.53399e-20)
(0.77835 -0.279909 4.62825e-21)
(0.794223 -0.261316 9.65321e-21)
(0.809207 -0.244073 -2.28888e-19)
(0.823355 -0.228063 1.92335e-19)
(0.836712 -0.213181 -1.68513e-19)
(0.849282 -0.199349 2.41343e-19)
(0.861111 -0.186487 1.11698e-19)
(0.872526 -0.174353 -2.73619e-20)
(0.883668 -0.162718 1.69035e-19)
(0.892474 -0.152594 5.4453e-20)
(0.113086 -0.172978 1.5942e-19)
(0.274907 -0.401226 2.78769e-20)
(0.394339 -0.531369 1.98221e-19)
(0.477394 -0.588133 1.73564e-19)
(0.534525 -0.596175 -2.58644e-19)
(0.575345 -0.576679 -2.01943e-19)
(0.606897 -0.544724 7.87535e-20)
(0.633553 -0.50913 6.38129e-20)
(0.657563 -0.47409 5.28821e-20)
(0.679896 -0.441134 -4.86837e-19)
(0.700917 -0.410591 -2.08882e-19)
(0.720772 -0.38238 -2.63958e-19)
(0.739541 -0.356322 2.04096e-20)
(0.757289 -0.332236 -5.44811e-20)
(0.774072 -0.309953 -1.28197e-19)
(0.789944 -0.289319 3.11002e-19)
(0.804954 -0.270194 -4.77948e-19)
(0.819149 -0.25245 -5.04298e-20)
(0.832578 -0.235968 1.4747e-19)
(0.845277 -0.220639 2.12874e-19)
(0.857244 -0.206386 1.11693e-19)
(0.868518 -0.193129 -2.39658e-19)
(0.879438 -0.180607 9.65769e-21)
(0.890178 -0.168554 -1.2012e-19)
(0.898545 -0.158102 -1.41119e-19)
(0.120546 -0.17488 -1.11794e-19)
(0.292546 -0.407294 -1.32728e-20)
(0.417872 -0.541238 -1.8028e-21)
(0.503665 -0.600732 -5.05653e-20)
(0.56131 -0.610281 2.05871e-19)
(0.601285 -0.591272 -2.98923e-19)
(0.631314 -0.559124 -5.04703e-22)
(0.656213 -0.52298 -2.67003e-19)
(0.678469 -0.487253 -1.31938e-20)
(0.69915 -0.453586 1.15588e-19)
(0.718652 -0.422357 -1.56476e-19)
(0.737118 -0.393496 4.93784e-19)
(0.75462 -0.366826 2.95257e-19)
(0.771211 -0.342163 1.37024e-19)
(0.786939 -0.319336 7.01621e-20)
(0.801846 -0.298189 -9.5184e-21)
(0.815976 -0.27858 2.99258e-19)
(0.829366 -0.260379 -1.04972e-19)
(0.842058 -0.243463 -4.07188e-19)
(0.854086 -0.227724 -1.15762e-19)
(0.865438 -0.213083 -2.61275e-19)
(0.876144 -0.199463 2.51952e-19)
(0.886558 -0.186582 5.68381e-20)
(0.896895 -0.174133 8.95405e-20)
(0.904835 -0.163363 4.91886e-19)
(0.127887 -0.176105 7.75897e-20)
(0.310079 -0.411922 -4.44171e-20)
(0.441437 -0.549367 -9.00734e-20)
(0.530132 -0.61157 -2.94469e-19)
(0.588422 -0.622748 -1.32209e-19)
(0.62763 -0.604389 2.95024e-19)
(0.656169 -0.572209 7.25233e-20)
(0.679311 -0.535652 5.1192e-20)
(0.699796 -0.499352 1.38103e-19)
(0.718803 -0.465075 5.70939e-20)
(0.736762 -0.433247 9.85897e-20)
(0.753817 -0.403814 -3.71089e-19)
(0.770032 -0.376603 -4.40135e-19)
(0.785447 -0.351428 -2.24524e-19)
(0.800101 -0.328116 1.0796e-19)
(0.814029 -0.30651 7.34811e-20)
(0.827262 -0.286465 -1.66843e-19)
(0.839832 -0.26785 4.36157e-20)
(0.851775 -0.250541 1.58323e-20)
(0.863118 -0.234427 -8.28172e-20)
(0.873844 -0.219433 1.14976e-19)
(0.883971 -0.205482 1.93614e-19)
(0.89387 -0.192275 1.23878e-19)
(0.903808 -0.179454 -1.58439e-19)
(0.91134 -0.168376 -4.95654e-19)
(0.13506 -0.176659 -5.38956e-20)
(0.327403 -0.415107 -1.49559e-19)
(0.46491 -0.55574 -7.11649e-20)
(0.556673 -0.620626 9.30109e-20)
(0.615754 -0.63355 -1.05081e-19)
(0.654289 -0.616009 -1.44544e-19)
(0.681381 -0.583958 -1.79394e-19)
(0.702776 -0.547129 1.50744e-20)
(0.721482 -0.510374 -1.54065e-19)
(0.7388 -0.475586 4.59985e-19)
(0.755198 -0.443248 -2.61516e-19)
(0.770825 -0.413324 1.48684e-19)
(0.785736 -0.385644 3.66538e-19)
(0.799961 -0.360023 2.59293e-19)
(0.813527 -0.336285 -4.27944e-19)
(0.82646 -0.314272 1.41131e-19)
(0.838784 -0.293839 6.97949e-20)
(0.850523 -0.274855 -4.56066e-20)
(0.861705 -0.257194 2.69067e-19)
(0.872354 -0.240744 -2.01338e-19)
(0.882444 -0.225429 3.07603e-20)
(0.891981 -0.211181 -2.35845e-19)
(0.901355 -0.197684 -2.62737e-19)
(0.910902 -0.184522 9.04588e-20)
(0.918061 -0.173146 1.81799e-19)
(0.142019 -0.176549 1.96963e-20)
(0.344416 -0.416851 1.00659e-19)
(0.488168 -0.560348 1.05466e-20)
(0.583166 -0.627882 6.06383e-20)
(0.643194 -0.642668 1.64314e-19)
(0.681166 -0.626112 1.00571e-19)
(0.70687 -0.594355 -5.5259e-20)
(0.726539 -0.557396 2.00986e-19)
(0.743465 -0.520306 -1.64228e-20)
(0.759084 -0.48511 -1.294e-19)
(0.773909 -0.452352 3.16233e-19)
(0.788096 -0.422017 9.74323e-20)
(0.801691 -0.393941 -2.78121e-19)
(0.814714 -0.367938 -1.90009e-19)
(0.827182 -0.343833 2.43807e-19)
(0.839111 -0.321468 -2.54e-19)
(0.850516 -0.300698 -1.00714e-19)
(0.861413 -0.281389 2.99406e-20)
(0.871824 -0.263417 1.88183e-20)
(0.881771 -0.246668 2.18376e-19)
(0.891218 -0.231067 -2.16999e-20)
(0.900154 -0.216555 3.88414e-20)
(0.90899 -0.202806 1.99397e-19)
(0.918159 -0.189341 1.40162e-19)
(0.924999 -0.17768 1.31572e-19)
(0.148714 -0.175785 5.71482e-21)
(0.361013 -0.417164 7.93903e-20)
(0.511085 -0.56319 5.38543e-20)
(0.609486 -0.633329 1.03612e-19)
(0.670629 -0.650087 -1.19736e-19)
(0.708162 -0.634684 -1.78486e-20)
(0.732551 -0.603389 -1.27172e-19)
(0.750526 -0.566444 1.19628e-19)
(0.765682 -0.529141 -2.30356e-19)
(0.779599 -0.49364 -9.97906e-20)
(0.792846 -0.460552 -2.58665e-20)
(0.805585 -0.429887 8.25551e-21)
(0.817857 -0.401487 5.40938e-20)
(0.82967 -0.375169 4.67217e-20)
(0.841032 -0.350758 -4.81535e-20)
(0.85195 -0.328095 -6.66818e-20)
(0.862428 -0.307035 4.60868e-19)
(0.872477 -0.287446 -2.62742e-20)
(0.882111 -0.269205 6.82657e-20)
(0.891348 -0.252195 6.84321e-20)
(0.900148 -0.236343 -3.09078e-20)
(0.908473 -0.2216 2.11681e-19)
(0.91675 -0.207644 -9.98707e-20)
(0.925559 -0.193931 -1.18008e-19)
(0.932171 -0.182009 2.6238e-19)
(0.155099 -0.174384 9.09441e-22)
(0.377094 -0.416063 -4.31528e-20)
(0.533538 -0.564274 -2.79938e-20)
(0.635507 -0.636964 -1.04779e-19)
(0.697944 -0.655801 1.13725e-19)
(0.735179 -0.641716 -1.26238e-19)
(0.75834 -0.611051 1.34643e-19)
(0.774667 -0.574268 -6.55162e-20)
(0.788069 -0.536874 9.80744e-20)
(0.80029 -0.501172 -1.08788e-19)
(0.811957 -0.467845 -2.18318e-19)
(0.823246 -0.43693 -1.15987e-19)
(0.834191 -0.40828 -4.6655e-20)
(0.844792 -0.381712 -5.72536e-20)
(0.855045 -0.357054 4.40723e-20)
(0.864946 -0.334147 3.68116e-20)
(0.874495 -0.312848 -3.57299e-19)
(0.88369 -0.293024 -1.0977e-19)
(0.892541 -0.274553 -3.14512e-19)
(0.901063 -0.25732 -8.10524e-21)
(0.909215 -0.241251 1.92092e-19)
(0.916924 -0.226306 -2.40034e-19)
(0.924602 -0.212173 -2.96966e-19)
(0.933046 -0.198261 -3.45904e-20)
(0.9396 -0.186145 -2.56449e-19)
(0.161129 -0.172364 -1.99736e-20)
(0.392557 -0.413573 1.49419e-20)
(0.555398 -0.563612 -3.46446e-21)
(0.661099 -0.638789 3.38896e-20)
(0.725023 -0.659806 5.43606e-20)
(0.762116 -0.647205 1.01418e-20)
(0.784153 -0.617338 -1.29181e-20)
(0.798887 -0.580866 -1.30505e-20)
(0.810564 -0.543505 9.19182e-20)
(0.8211 -0.507706 6.3833e-20)
(0.831192 -0.47423 1.75184e-19)
(0.841034 -0.443147 5.02643e-21)
(0.850654 -0.414318 5.99522e-20)
(0.860042 -0.387567 9.06536e-21)
(0.869185 -0.362721 -1.43231e-19)
(0.87807 -0.339625 2.13216e-19)
(0.886687 -0.318134 -7.82616e-20)
(0.895028 -0.29812 1.47215e-19)
(0.903092 -0.279461 2.19948e-19)
(0.910894 -0.262042 -3.34316e-20)
(0.918399 -0.245791 -3.92091e-19)
(0.925498 -0.230679 2.00782e-19)
(0.932529 -0.216425 -4.0331e-21)
(0.940547 -0.202461 -1.58816e-19)
(0.947352 -0.190423 -8.66638e-20)
(0.166759 -0.169748 6.17277e-21)
(0.407302 -0.409725 -2.74808e-20)
(0.576542 -0.561228 -5.96991e-20)
(0.686135 -0.638818 7.56701e-21)
(0.751747 -0.662105 -2.17976e-20)
(0.788871 -0.65115 -6.49214e-21)
(0.809901 -0.622252 -8.54601e-20)
(0.823113 -0.58624 -4.21049e-20)
(0.833102 -0.549036 -4.89619e-20)
(0.841972 -0.513246 -8.23009e-21)
(0.850501 -0.479711 -1.53125e-19)
(0.858903 -0.448539 -6.96421e-20)
(0.867203 -0.419604 6.63041e-20)
(0.875384 -0.392734 -1.01639e-19)
(0.88342 -0.36776 6.11602e-20)
(0.891291 -0.344527 -7.83544e-20)
(0.898978 -0.322894 8.43305e-20)
(0.906465 -0.302733 1.47121e-19)
(0.913742 -0.283925 -2.2206e-19)
(0.920821 -0.266358 2.43723e-19)
(0.92768 -0.249955 -6.18196e-20)
(0.934195 -0.234685 7.94728e-20)
(0.94055 -0.220284 5.92575e-20)
(0.947909 -0.206185 4.71079e-19)
(0.955415 -0.194074 -6.53509e-20)
(0.17195 -0.166561 -8.17083e-21)
(0.421231 -0.404556 3.98041e-20)
(0.596844 -0.55715 8.3101e-20)
(0.710484 -0.637066 -1.91105e-20)
(0.777996 -0.66271 -1.70803e-21)
(0.81534 -0.653558 1.39746e-20)
(0.8355 -0.625798 1.25724e-20)
(0.847273 -0.590396 7.01334e-20)
(0.85562 -0.553475 2.85599e-20)
(0.862852 -0.517797 1.25626e-19)
(0.869835 -0.484293 1.12675e-19)
(0.876808 -0.453111 9.16453e-20)
(0.883799 -0.424142 -8.28497e-20)
(0.89078 -0.397218 1.19449e-19)
(0.897717 -0.372173 5.93432e-20)
(0.90458 -0.348857 2.31311e-20)
(0.911341 -0.327128 3.32548e-20)
(0.917977 -0.306863 -4.31919e-19)
(0.92447 -0.287946 -1.31457e-20)
(0.930823 -0.270267 3.6847e-20)
(0.937033 -0.253747 2.16521e-19)
(0.94299 -0.238353 -6.82865e-20)
(0.948703 -0.223907 -1.02709e-20)
(0.954994 -0.210312 -2.57404e-19)
(0.962895 -0.19932 -2.08026e-20)
(0.176673 -0.16284 6.59609e-20)
(0.434244 -0.398106 -7.06594e-20)
(0.616181 -0.551416 -1.02586e-19)
(0.734017 -0.63356 8.38289e-20)
(0.80365 -0.661634 4.19724e-21)
(0.841418 -0.65444 1.50477e-20)
(0.86086 -0.627985 1.48494e-20)
(0.871292 -0.593344 9.06162e-21)
(0.878056 -0.556831 -4.1988e-20)
(0.883684 -0.521369 -4.10185e-20)
(0.889143 -0.487985 -8.4767e-20)
(0.894706 -0.456872 3.66101e-21)
(0.900401 -0.427938 -8.37984e-20)
(0.906195 -0.401023 -2.90791e-21)
(0.912043 -0.375966 -1.11473e-19)
(0.917906 -0.352617 -3.65859e-20)
(0.923749 -0.330841 2.14955e-19)
(0.92954 -0.310514 1.18784e-19)
(0.935254 -0.291526 4.02708e-20)
(0.940884 -0.27377 -7.27984e-20)
(0.946435 -0.257165 2.83284e-20)
(0.95184 -0.241665 1.22382e-19)
(0.957006 -0.22717 -1.92696e-20)
(0.962331 -0.213792 1.21089e-19)
(0.969337 -0.202182 5.72947e-20)
(0.18092 -0.158619 5.65884e-20)
(0.446245 -0.390408 6.07986e-20)
(0.634428 -0.544072 9.38527e-20)
(0.756605 -0.628333 -5.113e-20)
(0.828588 -0.6589 1.9945e-20)
(0.867002 -0.653811 5.94609e-20)
(0.885893 -0.628827 9.41832e-22)
(0.895096 -0.595097 4.74149e-21)
(0.900346 -0.559117 1.97705e-20)
(0.904412 -0.523975 -4.52953e-20)
(0.908377 -0.490799 1.19569e-19)
(0.912552 -0.459831 -2.55607e-22)
(0.916971 -0.431001 2.72499e-20)
(0.921593 -0.404157 -1.10185e-19)
(0.926366 -0.379143 6.57015e-20)
(0.931241 -0.355814 -9.19449e-20)
(0.936176 -0.334036 -1.06455e-19)
(0.941132 -0.313689 1.8305e-19)
(0.946075 -0.294666 8.99375e-20)
(0.950989 -0.276865 6.82629e-20)
(0.95588 -0.260201 -1.0672e-19)
(0.960731 -0.244608 -1.69166e-19)
(0.965434 -0.23003 -7.9969e-20)
(0.97005 -0.216719 7.37573e-20)
(0.975958 -0.204687 1.23483e-19)
(0.184638 -0.153879 -1.82915e-20)
(0.457172 -0.381512 8.24032e-20)
(0.651466 -0.535185 -1.38442e-19)
(0.778119 -0.621424 -1.7744e-19)
(0.852688 -0.654535 -1.77321e-19)
(0.891984 -0.651692 4.43113e-20)
(0.910513 -0.628342 -7.40173e-21)
(0.918614 -0.595672 -1.84285e-21)
(0.922429 -0.560351 -1.14305e-20)
(0.924985 -0.52563 1.24071e-21)
(0.927491 -0.492748 -3.53455e-20)
(0.930304 -0.462002 8.02777e-21)
(0.933469 -0.433343 3.25321e-20)
(0.93694 -0.406631 7.03771e-20)
(0.940655 -0.381715 -2.31981e-20)
(0.944557 -0.358455 9.16311e-20)
(0.948596 -0.33672 -2.73983e-20)
(0.952728 -0.316394 -4.02266e-20)
(0.956912 -0.297371 1.02875e-19)
(0.961122 -0.279555 1.06049e-19)
(0.965366 -0.26286 6.5141e-20)
(0.969666 -0.247197 -4.11286e-22)
(0.973946 -0.232549 -1.66603e-20)
(0.97805 -0.219302 6.4538e-20)
(0.983076 -0.207041 -5.54595e-20)
(0.187755 -0.148667 1.99722e-21)
(0.466955 -0.371523 -2.14324e-19)
(0.667193 -0.524812 2.59674e-19)
(0.798438 -0.612877 2.4066e-19)
(0.875829 -0.648572 1.20868e-19)
(0.916259 -0.648107 1.07241e-20)
(0.934629 -0.626552 -1.82473e-20)
(0.941771 -0.59509 -1.46784e-20)
(0.944244 -0.560552 1.24931e-20)
(0.945349 -0.526354 9.68286e-21)
(0.946437 -0.493851 -1.55359e-20)
(0.947922 -0.463399 -7.28104e-20)
(0.94986 -0.434977 -1.20941e-20)
(0.952202 -0.408456 3.73466e-20)
(0.954879 -0.383692 -6.27167e-20)
(0.957826 -0.360548 -8.88787e-20)
(0.960986 -0.3389 -8.76614e-21)
(0.964307 -0.318634 -1.89235e-19)
(0.967746 -0.299647 -1.43713e-19)
(0.97127 -0.281849 -9.55033e-20)
(0.974884 -0.265151 -1.0238e-19)