/*--------------------------------*- C++ -*----------------------------------*\
  =========                 |
  \\      /  F ield         | OpenFOAM: The Open Source CFD Toolbox
   \\    /   O peration     | Website:  https://openfoam.org
    \\  /    A nd           | Version:  7
     \\/     M anipulation  |
\*---------------------------------------------------------------------------*/
FoamFile
{
    version     2.0;
    format      ascii;
    class       volScalarField;
    location    "4";
    object      p;
}
// * * * * * * * * * * * * * * * * * * * * * * * * * * * * * * * * * * * * * //

dimensions      [1 -1 -2 0 0 0 0];

internalField   nonuniform List<scalar> 
4032
(
1
1
1
1
1
1
1
1
1
1
1
1.30246
7.51976
10.6096
10.744
10.9525
11.1383
11.3147
11.4754
11.6186
11.7435
11.8425
11.9154
11.9666
1
1
1
1
1
1
1
1
1
1
1
1.26351
7.35343
10.576
10.7293
10.9313
11.1132
11.2852
11.4419
11.5801
11.699
11.7909
11.8556
11.9023
1
1
1
1
1
1
1
1
1
1
1
1.15933
7.04522
10.5435
10.6857
10.8857
11.0672
11.237
11.3904
11.5236
11.6363
11.7222
11.78
11.8227
1
1
1
1
1
1
1
1
1
1
1
1.0127
6.53757
10.4804
10.628
10.8155
10.9882
11.1469
11.2917
11.4194
11.5294
11.6121
11.6629
11.698
1
1
1
1
1
1
1
1
1
1
1
1.00013
5.857
10.3087
10.5037
10.6842
10.8575
11.0116
11.1484
11.2615
11.3509
11.4183
11.4594
11.5095
1
1
1
1
1
1
1
1
1
1
1
1
5.01017
10.0715
10.3928
10.5575
10.721
10.8575
10.9743
11.0709
11.1501
11.2118
11.2298
11.1926
1
1
1
1
1
1
1
1
1
1
1
1
4.04671
9.70439
10.2781
10.4315
10.5741
10.6807
10.7605
10.8164
10.837
10.8034
10.743
10.7036
1
1
1
1
1
1
1
1
1
1
1
1
3.00466
9.13641
10.1903
10.3238
10.4365
10.5085
10.5409
10.5404
10.4952
10.4193
10.2994
10.2947
1
1
1
1
1
1
1
1
1
1
1
1
1.93446
8.26626
10.155
10.1964
10.2888
10.3283
10.3107
10.2469
10.102
9.83678
9.06247
7.18941
1
1
1
1
1
1
1
1
1
1
1
1
1.11088
7.08129
10.1843
10.085
10.0844
10.0761
10.0195
9.89242
9.65282
9.1822
8.38448
6.32299
1
1
1
1
1
1
1
1
1
1
1
1
1.00112
5.4464
9.58037
9.73749
9.80046
9.771
9.69246
9.5169
9.21934
8.65771
7.83055
5.89153
1
1
1
1
1
1
1
1
1
1
1
1
0.999984
3.57334
8.96385
9.59992
9.6327
9.56764
9.44487
9.21187
8.85113
8.27765
7.37149
5.79349
1
1
1
1
1
1
1
1
1
1
1
1
0.999996
1.87737
7.98629
9.55682
9.45114
9.33613
9.17697
8.91175
8.514
7.9551
7.05266
5.81872
1
1
1
1
1
1
1
1
1
1
1
1
0.999999
1.08131
6.21417
9.18585
9.17668
9.08198
8.91883
8.64933
8.25918
7.68972
6.86737
5.90544
1
1
1
1
1
1
1
1
1
1
1
1
1
1.0003
3.73062
8.56398
9.04503
8.94055
8.75411
8.44403
8.05405
7.47512
6.76016
5.96803
1
1
1
1
1
1
1
1
1
1
1
1
1
0.999996
1.56071
7.57117
9.08367
8.79988
8.55433
8.23532
7.82505
7.31384
6.7081
6.03455
1
1
1
1
1
1
1
1
1
1
1
1
1
0.999999
1.02791
5.51076
8.62178
8.45293
8.28484
8.01363
7.6452
7.19815
6.66649
6.08069
1
1
1
1
1
1
1
1
1
1
1
1
1
1
0.999945
2.71339
7.87584
8.35397
8.1914
7.91841
7.56146
7.13178
6.63547
6.11994
1
1
1
1
1
1
1
1
1
1
1
1
1
1
0.999983
1.20914
6.00195
8.28433
8.08836
7.80899
7.46196
7.05889
6.60863
6.1505
1
1
1
1
1
1
1
1
1
1
1
1
1
1
0.999997
1.00332
3.11975
7.54958
7.96394
7.69095
7.37135
6.99846
6.59442
6.17689
1
1
1
1
1
1
1
1
1
1
1
1
1
1
1
1
1.30957
5.86625
7.92764
7.62876
7.33087
6.97215
6.59276
6.19787
1
1
1
1
1
1
1
1
1
1
1
1
1
1
1
1
1.00769
2.92334
7.14045
7.55315
7.25374
6.91703
6.56771
6.2039
1
1
1
1
1
1
1
1
1
1
1
1
1
1
1
1
1.00002
1.26074
5.32062
7.56113
7.22183
6.90796
6.58087
6.24205
1
1
1
1
1
1
1
1
1
1
1
1
1
1
1
1
1
1.00582
2.37848
6.48233
7.17267
6.88767
6.58401
6.26468
1
1
1
1
1
1
1
1
1
1
1
1
1
1
1
1
1
1.00002
1.13636
4.2221
7.07447
6.91936
6.62994
6.31873
1
1
1
1
1
1
1
1
1
1
1
1
1
1
1
1
1
1
1.00211
1.73785
5.6524
6.91991
6.62822
6.32746
1
1
1
1
1
1
1
1
1
1
1
1
1
1
1
1
1
1
1.00001
1.04225
2.90288
6.23454
6.64411
6.37668
1
1
1
1
1
1
1
1
1
1
1
1
1
1
1
1
1
1
1
1.00046
1.25448
4.23418
6.48927
6.44144
1
1
1
1
1
1
1
1
1
1
1
1
1
1
1
1
1
1
1
1
1.00675
1.7926
5.15109
6.38658
1
1
1
1
1
1
1
1
1
1
1
1
1
1
1
1
1
1
1
1
1.00004
1.04986
2.56359
5.62326
1
1
1
1
1
1
1
1
1
1
1
1
1
1
1
1
1
1
1
1
1
1.00067
1.18085
3.40437
1
1
1
1
1
1
1
1
1
1
1
1
1
1
1
1
1
1
1
1
1
1
1.00429
1.44315
1
1
1
1
1
1
1
1
1
1
1
1
1
1
1
1
1
1
1
1
1
1
1.00002
1.02002
1
1
1
1
1
1
1
1
1
1
1
1
1
1
1
1
1
1
1
1
1
1
1
1.00021
1
1
1
1
1
1
1
1
1
1
1
1
1
1
1
1
1
1
1
1
1
1
1
1
1
1
1
1
1
1
1
1
1
1
1
1
1
1
1
1
1
1
1
1
1
1
1
1
1
1
1
1
1
1
1
1
1
1
1
1
1
1
1
1
1
1
1
1
1
1
1
1
1
1
1
1
1
1
1
1
1
1
1
1
1
1
1
1
1
1
1
1
1
1
1
1
1
1
1
1
1
1
1
1
1
1
1
1
1
1
1
1
1
1
1
1
1
1
1
1
1
1
1
1
1
1
1
1
1
1
1
1
1
1
1
1
1
1
1
1
1
1
1
1
1.60971
0.397017
0.166119
0.160695
0.180806
0.239721
0.351076
0.539099
0.715569
0.810157
0.865305
0.897181
0.972517
1.10168
1.23929
1.34103
1.34867
1.31674
1.2744
1.2606
1.2529
1.26998
1.31833
1.33096
1.33006
1.32597
1.32221
3.14242
5.55898
5.76627
5.84911
5.89393
5.91548
5.92036
5.90437
5.86525
5.79552
5.7123
5.64641
5.60721
5.5815
5.54318
5.46663
5.36039
5.25162
5.1676
5.12189
5.11005
5.09124
5.00229
4.87785
4.75741
4.6633
4.60436
4.58947
4.57577
4.50671
4.40882
4.29454
4.18862
4.11022
4.06211
4.04479
4.00246
3.9321
3.8539
3.76575
3.68826
3.62895
3.58081
3.54517
3.49819
3.44068
3.37847
3.30758
3.23684
3.18137
3.13698
3.1013
3.06746
3.02395
2.97438
2.91168
2.84106
2.78219
2.74157
2.71013
2.68642
2.66164
2.62753
2.57701
2.50228
2.43516
2.39478
2.37121
2.32871
2.76301
1.42107
0.894467
0.691278
0.552336
0.48565
0.494548
0.53174
0.549077
0.570241
0.62626
0.707467
0.796733
0.887602
0.99578
1.13312
1.19131
1.19787
1.19609
1.21106
1.2274
1.27016
1.31898
1.32513
1.3191
1.31142
1.3048
2.92588
5.53469
5.9123
5.9647
5.96207
5.92054
5.87014
5.82837
5.80993
5.79887
5.7559
5.66659
5.56945
5.48711
5.43145
5.39676
5.36046
5.29059
5.18921
5.09479
5.02494
4.99205
4.96666
4.90486
4.80972
4.70266
4.60806
4.52789
4.46727
4.42813
4.38342
4.31706
4.23529
4.14939
4.07132
4.00135
3.94274
3.90009
3.8462
3.78432
3.71412
3.63708
3.57052
3.5171
3.47318
3.43435
3.38398
3.32745
3.26056
3.18672
3.12377
3.0779
3.04086
3.01132
2.97196
2.92541
2.87191
2.81132
2.75251
2.70582
2.66975
2.6373
2.60745
2.57013
2.5196
2.46474
2.40996
2.37145
2.32109
3.60962
2.36731
1.67141
1.30745
1.05047
0.779021
0.643501
0.622989
0.619926
0.605567
0.62121
0.692689
0.763263
0.793547
0.829989
0.927388
1.02755
1.09387
1.14437
1.19905
1.24328
1.29569
1.33085
1.33655
1.33332
1.31613
1.30467
2.45347
5.61918
6.17076
6.01021
6.00531
5.99609
5.91865
5.81702
5.74854
5.74017
5.76951
5.77637
5.68536
5.54767
5.41519
5.32189
5.2852
5.29134
5.27079
5.18142
5.07143
4.96788
4.8913
4.8478
4.82027
4.77332
4.69389
4.57543
4.43491
4.34136
4.28441
4.25973
4.24399
4.19819
4.12758
4.03204
3.92527
3.85013
3.79846
3.76115
3.72001
3.66682
3.59757
3.51032
3.43963
3.39312
3.3596
3.32714
3.28404
3.22915
3.15362
3.06731
3.00086
2.95812
2.9286
2.90982
2.88229
2.84634
2.79549
2.72561
2.6567
2.60624
2.5643
2.53199
2.5084
2.48112
2.44615
2.4015
2.32307
4.26166
3.17428
2.3356
1.85817
1.59205
1.33
1.02988
0.852453
0.847846
0.838033
0.782638
0.745848
0.733278
0.712658
0.708265
0.728034
0.80692
0.917179
1.01098
1.07988
1.14034
1.1999
1.23938
1.28362
1.30761
1.31749
1.36493
1.97111
5.47066
6.61011
6.18774
6.00572
6.03172
5.96683
5.87486
5.75068
5.67987
5.65244
5.6778
5.66597
5.57995
5.45266
5.31516
5.23437
5.19179
5.18947
5.16021
5.09071
5.00077
4.88449
4.80398
4.75376
4.71546
4.66024
4.58741
4.4922
4.37683
4.29325
4.23994
4.20615
4.16207
4.10122
4.0325
3.95338
3.86504
3.79028
3.73745
3.6929
3.64761
3.59521
3.52961
3.45106
3.37906
3.33216
3.29498
3.25999
3.22026
3.17068
3.10385
3.02255
2.95272
2.91262
2.8843
2.85987
2.83409
2.80071
2.75069
2.67565
2.59459
2.54154
2.51256
2.48952
2.46874
2.44546
2.41752
2.34114
4.64372
3.75845
3.01018
2.37505
1.97877
1.75531
1.5277
1.26658
1.05066
1.0101
0.977912
0.901828
0.824128
0.786334
0.738273
0.731867
0.743699
0.778637
0.842214
0.914287
0.989078
1.05937
1.12825
1.2037
1.22885
1.31592
1.66764
2.22862
4.25211
6.32827
6.45201
6.11564
6.02272
5.9454
5.90998
5.81351
5.68234
5.61152
5.57005
5.57816
5.55756
5.49
5.3806
5.24915
5.17268
5.12462
5.10379
5.0667
5.01
4.92538
4.806
4.71503
4.65367
4.59548
4.54036
4.48162
4.40492
4.31078
4.23707
4.1786
4.11914
4.05987
4.00542
3.95082
3.88503
3.80508
3.73173
3.67536
3.62563
3.57703
3.52516
3.46335
3.39293
3.32886
3.27668
3.23011
3.18537
3.14072
3.09381
3.04125
2.98248
2.92545
2.88023
2.84334
2.80787
2.76974
2.72451
2.66938
2.61034
2.55984
2.52
2.48881
2.45991
2.4309
2.40102
2.33545
4.97609
4.1707
3.49117
2.93687
2.4449
2.0481
1.85576
1.67472
1.43029
1.21883
1.18113
1.12591
1.02374
0.953817
0.902886
0.831609
0.797343
0.803042
0.813433
0.819951
0.83343
0.867129
0.930797
1.01797
1.13362
1.48473
2.24275
2.63962
3.08153
4.65903
5.92904
6.09808
6.10727
6.03128
5.93977
5.84617
5.67041
5.54792
5.49455
5.48884
5.51666
5.47843
5.40053
5.26616
5.13408
5.07154
5.03724
5.0243
4.98141
4.91638
4.80542
4.68312
4.61473
4.56585
4.52161
4.4696
4.40908
4.32305
4.22175
4.14769
4.09254
4.04453
3.9997
3.95191
3.89008
3.79874
3.70719
3.65014
3.60609
3.56463
3.52156
3.47021
3.40165
3.32217
3.25786
3.20917
3.16611
3.12651
3.09057
3.05358
3.00526
2.93861
2.87351
2.82588
2.78515
2.74444
2.70387
2.66582
2.62827
2.58437
2.53424
2.48944
2.45043
2.41185
2.37582
2.31771
5.20554
4.50029
3.84293
3.3311
2.88709
2.45372
2.12331
1.94739
1.76473
1.53892
1.37933
1.30987
1.22269
1.12137
1.0471
0.971053
0.884049
0.859394
0.850068
0.837016
0.830263
0.834055
0.84526
0.891426
1.18498
1.79764
2.40027
2.64946
2.70271
3.05706
4.44927
5.65183
5.97022
6.06522
5.98527
5.86469
5.70674
5.52955
5.45058
5.41797
5.42751
5.42409
5.36446
5.281
5.15249
5.05716
5.01066
4.98474
4.93988
4.87793
4.79734
4.68983
4.60667
4.55647
4.51243
4.45778
4.39797
4.32242
4.22274
4.13747
4.08467
4.03825
3.99141
3.9415
3.87701
3.78147
3.68457
3.63157
3.59412
3.55789
3.51929
3.47246
3.40188
3.30603
3.22761
3.1818
3.14799
3.11796
3.08991
3.05946
3.01591
2.94081
2.85047
2.79124
2.7535
2.72182
2.69485
2.67053
2.64262
2.60332
2.54149
2.47402
2.42462
2.38487
2.35499
2.30893
5.37911
4.7438
4.15432
3.65053
3.20806
2.8138
2.47589
2.20263
2.00289
1.8409
1.65023
1.49399
1.39608
1.30932
1.22436
1.14747
1.05673
0.992794
0.96696
0.934702
0.892144
0.882066
0.916296
1.12721
1.58125
1.98955
2.22779
2.38444
2.3957
2.42368
2.74373
4.02542
5.26534
5.8105
5.93892
5.87064
5.75424
5.59704
5.4361
5.36111
5.32044
5.31114
5.32237
5.27295
5.19577
5.07664
4.97632
4.9161
4.86595
4.82781
4.77759
4.71216
4.62252
4.54031
4.48097
4.42422
4.3666
4.30384
4.22455
4.13553
4.06658
4.01683
3.96837
3.91523
3.85174
3.7707
3.68248
3.62294
3.58887
3.55427
3.51159
3.45983
3.39092
3.30184
3.21855
3.17172
3.14247
3.12098
3.09742
3.06198
3.01068
2.93045
2.83942
2.7748
2.73847
2.71335
2.69301
2.67622
2.65497
2.61452
2.53605
2.44975
2.39891
2.3665
2.34419
2.30398
5.50218
4.91878
4.39952
3.93009
3.47803
3.08696
2.79114
2.50681
2.23403
2.05057
1.8931
1.7191
1.56342
1.47592
1.388
1.29515
1.2155
1.14916
1.09095
1.03435
0.98116
1.00294
1.21304
1.69241
2.04267
2.20226
2.22439
2.22213
2.21922
2.2197
2.22329
2.41075
3.38935
4.78621
5.53134
5.75666
5.76795
5.66805
5.51849
5.33892
5.261
5.21964
5.22057
5.23662
5.1915
5.10577
4.9707
4.86976
4.81712
4.77466
4.74564
4.69757
4.62821
4.5337
4.44607
4.3828
4.32742
4.27034
4.20813
4.13125
4.04698
3.97903
3.92805
3.87906
3.82804
3.7735
3.70703
3.62518
3.55144
3.50123
3.45943
3.4166
3.3716
3.31857
3.25645
3.1894
3.13507
3.09348
3.05029
3.00486
2.9539
2.89939
2.84339
2.79377
2.7559
2.72976
2.70846
2.67616
2.62803
2.56814
2.49918
2.42861
2.38722
2.36277
2.3446
2.30412
5.59088
5.06706
4.59619
4.14747
3.71205
3.35395
3.03258
2.74756
2.47991
2.2742
2.0864
1.92204
1.75712
1.65132
1.55547
1.4558
1.35596
1.28323
1.2233
1.17065
1.21072
1.46501
1.99009
2.33196
2.36393
2.31912
2.26799
2.25296
2.26139
2.26425
2.25581
2.2128
2.2639
2.8268
4.12148
5.10229
5.57968
5.65458
5.56871
5.40138
5.2188
5.15974
5.1389
5.16025
5.14935
5.09101
4.9842
4.84358
4.77017
4.72363
4.69435
4.65895
4.60277
4.5232
4.41567
4.33977
4.28995
4.24022
4.18734
4.12298
4.03784
3.94825
3.88469
3.84275
3.80598
3.76747
3.71644
3.63584
3.53794
3.46937
3.42535
3.3882
3.35328
3.31895
3.27591
3.20936
3.12627
3.0575
3.00696
2.96132
2.91487
2.87657
2.84703
2.81545
2.78002
2.73721
2.68176
2.6303
2.57723
2.52095
2.46505
2.41872
2.38711
2.36343
2.34792
2.3131
5.66243
5.19226
4.75727
4.31873
3.91443
3.58207
3.26324
2.95577
2.70394
2.49367
2.28654
2.107
1.95086
1.82375
1.71248
1.60235
1.49976
1.41727
1.35637
1.41007
1.70911
2.28727
2.67963
2.67035
2.58865
2.47526
2.42867
2.42026
2.40155
2.3638
2.32871
2.27999
2.22001
2.22361
2.46984
3.39027
4.57259
5.2807
5.47466
5.43503
5.24635
5.1267
5.07524
5.08395
5.09296
5.04839
4.97338
4.83955
4.73101
4.67836
4.64318
4.61641
4.56847
4.50448
4.40122
4.29789
4.24306
4.2008
4.15837
4.10768
4.0369
3.94003
3.85572
3.80701
3.77228
3.741
3.70109
3.63906
3.54531
3.45209
3.39765
3.36289
3.33536
3.30724
3.27049
3.20925
3.11586
3.02844
2.97348
2.93413
2.90424
2.88002
2.85304
2.82025
2.77293
2.70336
2.63885
2.58704
2.54075
2.49165
2.45112
2.42691
2.40801
2.38928
2.36618
2.30896
5.72806
5.3
4.89245
4.47158
4.10567
3.77933
3.4628
3.15152
2.91762
2.69152
2.48694
2.28443
2.13972
1.9993
1.86832
1.74018
1.63655
1.58072
1.66982
2.01911
2.5613
2.97916
2.97901
2.89226
2.79019
2.67601
2.61709
2.59362
2.56071
2.51628
2.47412
2.42469
2.34182
2.24458
2.23023
2.29961
2.79985
3.85211
4.82938
5.18736
5.23268
5.12926
5.06218
5.04749
5.03611
4.99066
4.92673
4.81413
4.6933
4.63531
4.59973
4.5778
4.53539
4.48126
4.39969
4.28225
4.19339
4.14823
4.1101
4.07152
4.02628
3.9652
3.881
3.79095
3.72763
3.68655
3.65091
3.61
3.55051
3.47285
3.39674
3.34078
3.30245
3.26825
3.23132
3.18355
3.10423
3.00821
2.95259
2.9245
2.90352
2.88163
2.8521
2.80889
2.73758
2.65862
2.60159
2.55788
2.51819
2.48996
2.46881
2.44337
2.41233
2.37345
2.33227
2.27501
5.78468
5.38969
5.00104
4.60925
4.26948
3.95439
3.62831
3.34207
3.10983
2.88038
2.65979
2.46545
2.31273
2.15887
2.00515
1.88356
1.84709
2.00041
2.49903
2.956
3.25474
3.26362
3.18043
3.09578
3.01371
2.90713
2.81252
2.76934
2.73226
2.68351
2.63168
2.57524
2.49566
2.39129
2.29588
2.25004
2.26739
2.45832
3.16197
4.14505
4.80573
4.96428
5.00874
5.02062
4.99733
4.93892
4.87078
4.7746
4.66203
4.59503
4.5596
4.53556
4.49613
4.44983
4.39097
4.2989
4.1835
4.10294
4.06053
4.02555
3.9931
3.95639
3.90392
3.81708
3.71525
3.64141
3.59153
3.55037
3.51259
3.47141
3.4109
3.33409
3.27217
3.22759
3.18596
3.13925
3.08218
3.01766
2.95824
2.91751
2.89056
2.86333
2.83
2.77972
2.70249
2.62053
2.56879
2.53994
2.51976
2.50775
2.4893
2.45957
2.41254
2.34701
2.3023
2.2519
5.82798
5.46752
5.10258
4.7398
4.41755
4.10925
3.78542
3.52191
3.28349
3.0551
2.82071
2.63712
2.46642
2.30419
2.15024
2.16217
2.38192
3.0119
3.56545
3.63716
3.54531
3.41213
3.3322
3.28421
3.22435
3.14117
3.02896
2.94266
2.89136
2.83444
2.76685
2.70104
2.63298
2.54006
2.44315
2.36723
2.31143
2.28857
2.33477
2.64902
3.39337
4.23678
4.67738
4.83209
4.95458
4.90792
4.83793
4.75559
4.6667
4.59724
4.52696
4.47892
4.43895
4.39702
4.35123
4.29304
4.20737
4.10102
4.02021
3.97894
3.94712
3.91559
3.87917
3.82431
3.72906
3.61308
3.54036
3.50206
3.47035
3.43805
3.39799
3.33551
3.25426
3.18758
3.1393
3.09712
3.06019
3.0228
2.97224
2.91352
2.86638
2.82989
2.79169
2.74184
2.66836
2.58905
2.55166
2.53422
2.52661
2.52011
2.4994
2.46719
2.40171
2.30722
2.27068
2.2423
5.89036
5.54741
5.20023
4.85885
4.54876
4.24255
3.93473
3.68196
3.44291
3.20513
2.9767
2.7802
2.61585
2.46649
2.52766
2.91245
3.47267
4.03532
4.12225
4.00774
3.78213
3.59073
3.52094
3.48143
3.4236
3.3481
3.24149
3.11284
3.03418
2.97402
2.90992
2.84056
2.76737
2.68485
2.58188
2.4856
2.4197
2.35157
2.30247
2.29458
2.36795
2.76291
3.5001
4.18827
4.62793
4.72588
4.78822
4.74254
4.67999
4.61616
4.50806
4.41233
4.36332
4.32586
4.2881
4.24769
4.19674
4.11838
4.01575
3.93451
3.89078
3.85744
3.82195
3.77836
3.7125
3.61557
3.52303
3.46864
3.43298
3.40024
3.36426
3.31385
3.23481
3.1491
3.09738
3.06844
3.04431
3.01533
2.97261
2.90851
2.84046
2.78791
2.74344
2.69522
2.64057
2.59541
2.55644
2.53222
2.51743
2.50054
2.47855
2.44627
2.38404
2.29735
2.24996
2.21684
5.9393
5.60565
5.27065
4.96057
4.66177
4.35345
4.07309
3.82498
3.58281
3.33544
3.10248
2.94042
2.82446
2.9823
3.57811
4.1308
4.38545
4.43234
4.32441
4.18256
4.02438
3.84272
3.75121
3.69191
3.61164
3.52858
3.42582
3.28917
3.18207
3.1077
3.03898
2.96848
2.89192
2.80546
2.71003
2.61198
2.53216
2.46748
2.39861
2.33817
2.30184
2.27774
2.38496
2.80758
3.53643
4.14953
4.46826
4.61744
4.66621
4.60516
4.4912
4.35864
4.28828
4.25423
4.2233
4.19257
4.15425
4.09923
4.01035
3.90745
3.8396
3.79507
3.75453
3.71194
3.66341
3.59931
3.51781
3.44536
3.39758
3.36069
3.32389
3.27827
3.21114
3.12452
3.06312
3.03574
3.01356
2.98891
2.95428
2.89567
2.81345
2.74372
2.69546
2.65764
2.63072
2.60304
2.56435
2.52772
2.50044
2.47296
2.44366
2.40978
2.36396
2.30323
2.24101
2.1977
6.00136
5.6776
5.35404
5.05709
4.76457
4.46288
4.20717
3.95193
3.70384
3.45137
3.25966
3.26549
3.58403
4.34138
4.96941
4.91509
4.79266
4.61673
4.47885
4.40197
4.30037
4.13689
3.98052
3.89016
3.79391
3.70092
3.60332
3.48192
3.34684
3.24735
3.16296
3.08438
3.00675
2.92224
2.82803
2.72771
2.63584
2.56056
2.4982
2.43264
2.35817
2.29702
2.24354
2.23441
2.37401
2.85694
3.5332
4.14631
4.38509
4.47066
4.45431
4.31505
4.23363
4.19975
4.16593
4.13737
4.09883
4.04852
3.97335
3.87418
3.79571
3.74386
3.70002
3.65765
3.61377
3.56144
3.49308
3.41833
3.36065
3.31923
3.28207
3.24107
3.18913
3.1218
3.05119
2.99997
2.96853
2.94211
2.91118
2.86127
2.77896
2.70305
2.67051
2.65359
2.63681
2.60977
2.56446
2.49817
2.44668
2.41886
2.39365
2.36617
2.33827
2.30508
2.26085
2.20624
6.02338
5.71258
5.42007
5.13569
4.84294
4.56393
4.31497
4.0535
3.8187
3.60785
3.74184
4.31349
5.0402
5.5864
5.55495
5.25232
4.97001
4.82509
4.74086
4.68313
4.56847
4.39571
4.18079
4.05539
3.96497
3.87007
3.77319
3.66287
3.5246
3.38456
3.2799
3.19234
3.11085
3.03091
2.94562
2.8491
2.74601
2.65166
2.57598
2.51122
2.44516
2.37122
2.29338
2.22366
2.17319
2.19565
2.38644
2.92509
3.53499
4.06279
4.2208
4.21277
4.20839
4.15551
4.11746
4.09153
4.04475
3.98813
3.91515
3.82318
3.74735
3.69842
3.65923
3.62109
3.57785
3.52228
3.45052
3.37441
3.31598
3.27504
3.23957
3.20247
3.16035
3.10909
3.04512
2.97933
2.92929
2.89116
2.8527
2.80325
2.73586
2.68191
2.66467
2.65078
2.63482
2.61314
2.56446
2.47173
2.39188
2.35758
2.34034
2.32653
2.31556
2.30355
2.28191
2.29763
6.06987
5.77965
5.5001
5.22913
4.92815
4.67728
4.40298
4.1861
4.07105
4.35886
5.19238
5.79324
6.09302
6.11384
5.84121
5.51075
5.21873
5.06709
4.98215
4.91667
4.79038
4.61868
4.4014
4.23048
4.13417
4.04138
3.93935
3.82613
3.69147
3.53503
3.39812
3.29999
3.21602
3.13229
3.04859
2.95986
2.86089
2.75925
2.6667
2.58633
2.513
2.44356
2.36889
2.28864
2.21766
2.15815
2.11906
2.15949
2.39902
2.93799
3.48293
3.88166
3.99308
4.0684
4.10711
4.06706
4.00115
3.93163
3.8518
3.75865
3.69142
3.65788
3.62606
3.59079
3.54955
3.49314
3.41064
3.31609
3.25814
3.22831
3.20048
3.16907
3.13006
3.08301
3.02525
2.95891
2.89583
2.84469
2.80132
2.75918
2.71579
2.66898
2.64436
2.63643
2.62575
2.60302
2.55409
2.46232
2.3612
2.31531
2.30219
2.29288
2.29791
2.32649
2.37915
2.6383
6.14681
5.86049
5.59212
5.30527
5.00496
4.7594
4.5384
4.6237
5.14799
6.17232
6.68317
6.51984
6.39143
6.26913
6.04502
5.79891
5.53626
5.3274
5.20114
5.10408
4.98884
4.83387
4.63858
4.43403
4.29947
4.18811
4.07563
3.9574
3.83055
3.69113
3.5421
3.40822
3.3079
3.22003
3.13389
3.0485
2.95909
2.86369
2.76577
2.67163
2.58315
2.50379
2.43145
2.35942
2.28401
2.2054
2.13273
2.10176
2.07615
2.13344
2.40765
2.89142
3.3725
3.71275
3.90458
3.96258
3.95322
3.88835
3.8051
3.69622
3.63125
3.61283
3.58143
3.54328
3.50612
3.46026
3.37797
3.27328
3.23108
3.20847
3.17755
3.13478
3.08864
3.04096
2.98791
2.92995
2.87183
2.8184
2.77459
2.73899
2.70304
2.66083
2.61981
2.58142
2.5509
2.52538
2.49647
2.4469
2.36677
2.30106
2.29269
2.29822
2.33743
2.48352
2.74037
3.21364
6.21256
5.92019
5.6532
5.32876
5.09678
4.93823
5.25045
6.11756
6.9734
7.55472
7.38137
6.9111
6.55847
6.39709
6.27753
6.08506
5.84324
5.60165
5.42492
5.29471
5.17409
5.03039
4.8544
4.64433
4.46223
4.32532
4.19879
4.07635
3.95478
3.83039
3.69828
3.55712
3.42136
3.30408
3.2029
3.1149
3.03255
2.94687
2.85456
2.75866
2.66206
2.56729
2.47891
2.4016
2.3373
2.27216
2.20369
2.13473
2.07402
2.03985
2.01727
2.08306
2.3576
2.84233
3.33896
3.64981
3.80095
3.82477
3.79249
3.67976
3.56675
3.50828
3.48796
3.48304
3.46406
3.42873
3.36262
3.26922
3.16328
3.10385
3.08278
3.07075
3.05414
3.02474
2.98116
2.92195
2.85504
2.79178
2.75509
2.73007
2.70278
2.66321
2.59711
2.52721
2.49268
2.47223
2.4484
2.41791
2.38522
2.34815
2.36306
2.44772
2.68195
3.05375
3.31126
3.56628
6.23549
5.99725
5.67497
5.38895
5.42254
6.08729
7.32183
7.87236
7.9759
7.90926
7.60988
7.19408
6.82992
6.66754
6.55706
6.35203
6.11053
5.87914
5.67851
5.51284
5.35798
5.19901
5.02389
4.82717
4.63497
4.47655
4.33678
4.20427
4.07439
3.94344
3.81282
3.67901
3.54379
3.41506
3.29357
3.18375
3.09036
3.00573
2.91906
2.82948
2.73971
2.64761
2.55034
2.45189
2.3633
2.30107
2.25266
2.19717
2.13193
2.06055
2.01403
1.95715
1.9401
2.02532
2.33755
2.83096
3.29124
3.62237
3.68329
3.65692
3.57432
3.47021
3.42388
3.40205
3.37168
3.34235
3.31405
3.25417
3.14881
3.05476
3.01161
2.98787
2.96449
2.94306
2.91448
2.86624
2.78863
2.75566
2.74216
2.72256
2.6965
2.65402
2.58849
2.51703
2.44948
2.40628
2.39012
2.39047
2.42035
2.52229
2.73747
3.05944
3.41325
3.61921
3.73677
3.77004
5.90494
6.01057
5.73672
5.99896
7.1433
8.51277
9.02569
8.64341
8.33882
8.06882
7.79389
7.48192
7.17554
6.98778
6.83098
6.61004
6.35393
6.1174
5.91271
5.73002
5.54765
5.35731
5.16355
4.97244
4.79222
4.63239
4.48462
4.33853
4.19199
4.04339
3.90047
3.76976
3.64566
3.52351
3.40029
3.27392
3.15164
3.04777
2.95801
2.869
2.78535
2.71151
2.63043
2.53328
2.42808
2.33147
2.25375
2.21197
2.17708
2.13513
2.07342
1.99717
1.94328
1.86547
1.86396
1.99325
2.35587
2.87808
3.25057
3.49612
3.50299
3.45617
3.40475
3.36729
3.32862
3.30074
3.26406
3.21036
3.13636
3.03485
2.96723
2.94247
2.92235
2.90304
2.88249
2.84334
2.76827
2.67766
2.6354
2.61953
2.60406
2.58945
2.56922
2.52466
2.44881
2.39185
2.39429
2.46634
2.67758
3.05718
3.42242
3.73417
3.91033
3.90031
3.86171
3.80102
4.30352
5.42328
6.42947
8.36794
9.51317
9.85321
9.4628
8.92299
8.55815
8.29144
8.06029
7.784
7.48976
7.27215
7.07485
6.83863
6.58007
6.33616
6.11751
5.92424
5.73651
5.53626
5.32788
5.12536
4.93962
4.77189
4.61591
4.46199
4.30796
4.14941
3.98814
3.84782
3.72939
3.6162
3.49869
3.37448
3.2433
3.1118
3.0016
2.9241
2.8594
2.79208
2.7114
2.61393
2.50882
2.39301
2.29428
2.23822
2.19574
2.13891
2.07241
2.00481
1.9434
1.88534
1.82247
1.77654
1.80917
2.01699
2.40419
2.91303
3.18319
3.29226
3.3049
3.27
3.21361
3.19239
3.18353
3.1681
3.13493
3.05751
2.95297
2.90657
2.8858
2.86296
2.83651
2.80295
2.74869
2.66428
2.5841
2.54551
2.52521
2.50868
2.49989
2.501
2.49296
2.53604
2.67608
2.99746
3.39542
3.77347
3.88329
3.94627
3.94628
3.90229
3.84791
3.77599
1.87719
4.28875
9.28396
10.7427
10.446
10.1411
9.67098
9.22441
8.86432
8.6144
8.37954
8.10157
7.77476
7.52098
7.3076
7.05735
6.7825
6.52882
6.29552
6.07971
5.8849
5.68946
5.48244
5.26519
5.05605
4.87549
4.71973
4.57041
4.41572
4.26166
4.09659
3.92459
3.77891
3.65835
3.54905
3.4391
3.32238
3.20165
3.08495
2.96922
2.85308
2.76253
2.70528
2.66144
2.59713
2.49249
2.36518
2.26339
2.21912
2.18632
2.13938
2.07954
2.01727
1.94599
1.85716
1.78103
1.72032
1.7227
1.79351
2.03463
2.43941
2.88243
3.1447
3.13334
3.13439
3.10427
3.07024
3.05003
3.02693
2.98836
2.93723
2.86952
2.82011
2.79903
2.77708
2.75197
2.71816
2.66011
2.57825
2.51329
2.48684
2.48454
2.4954
2.56605
2.75262
3.09613
3.47144
3.79734
3.92032
4.00604
4.03254
4.01532
3.96506
3.91057
3.86913
3.78687
1.06323
4.90572
11.8549
11.5838
10.7586
10.2724
9.86222
9.4932
9.15042
8.87863
8.61708
8.31922
8.01775
7.77793
7.58067
7.33787
7.05913
6.79667
6.55328
6.32416
6.12045
5.92472
5.71674
5.49215
5.26675
5.06825
4.90349
4.7528
4.58927
4.38975
4.21149
4.07041
3.92647
3.79732
3.6814
3.56519
3.44346
3.31834
3.19017
3.06155
2.94039
2.82685
2.72443
2.63369
2.56467
2.51507
2.45294
2.36082
2.25153
2.15639
2.09373
2.0396
1.98761
1.94148
1.90128
1.83198
1.74805
1.68126
1.64798
1.66305
1.7703
2.05351
2.46327
2.84305
3.08872
3.07079
3.03234
3.01189
2.97886
2.93645
2.8953
2.83707
2.7596
2.70792
2.68382
2.66474
2.63974
2.61402
2.57773
2.52393
2.50802
2.54028
2.70947
3.07936
3.50681
3.81214
4.02416
4.13124
4.13388
4.12367
4.10672
4.06103
3.993
3.92541
3.86069
3.78959
1.00179
5.66015
11.532
11.0783
10.5079
10.2086
9.90664
9.60949
9.34588
9.11065
8.87077
8.56809
8.24644
7.98323
7.76335
7.51192
7.21374
6.91077
6.64982
6.40887
6.18673
5.98188
5.76962
5.54122
5.30817
5.08715
4.88895
4.7208
4.57701
4.44153
4.29009
4.10939
3.92286
3.76034
3.62946
3.51718
3.41012
3.29957
3.18067
3.05982
2.94708
2.84384
2.75201
2.67329
2.59789
2.51723
2.43423
2.35082
2.2579
2.16366
2.10172
2.06092
2.02045
1.96341
1.88526
1.81113
1.74651
1.68007
1.63656
1.61393
1.61522
1.65123
1.80264
2.12103
2.55538
2.81481
2.92799
2.9391
2.92696
2.91502
2.88836
2.83727
2.75272
2.65242
2.59815
2.575
2.55576
2.56456
2.57117
2.61229
2.78366
3.09057
3.55093
3.86353
4.06268
4.15766
4.21902
4.2186
4.18712
4.12358
4.06624
4.00961
3.95746
3.91344
3.86968
3.79772
1.00003
6.21393
10.9711
10.9287
10.5693
10.356
10.1008
9.84867
9.60375
9.34874
9.03164
8.66486
8.34395
8.07723
7.84764
7.61709
7.32947
7.01631
6.76937
6.55751
6.32807
6.105
5.88278
5.65094
5.41843
5.19753
4.99453
4.8102
4.64475
4.49258
4.33631
4.16528
3.98908
3.8284
3.69242
3.57374
3.46071
3.34605
3.22589
3.1032
2.98643
2.88103
2.78728
2.70031
2.6157
2.52994
2.44299
2.35854
2.28479
2.22057
2.15179
2.07737
2.00635
1.94092
1.87465
1.81861
1.77407
1.73731
1.69161
1.63254
1.58366
1.54302
1.54658
1.60428
1.81098
2.19743
2.5745
2.68031
2.75444
2.82078
2.83612
2.80394
2.73618
2.63538
2.55609
2.53644
2.54548
2.58632
2.75313
3.10507
3.5915
3.96206
4.21636
4.23948
4.25335
4.27642
4.25635
4.212
4.14959
4.08467
4.03397
3.99051
3.95207
3.91351
3.87467
3.8052
1
6.33239
10.6599
10.745
10.5265
10.3715
10.1436
9.91186
9.67595
9.4137
9.10706
8.79319
8.51664
8.26844
8.02823
7.75879
7.44018
7.1179
6.84827
6.62352
6.3926
6.16307
5.93569
5.69914
5.46312
5.24729
5.05376
4.87341
4.70185
4.53695
4.3713
4.20153
4.03308
3.87513
3.73137
3.6011
3.48027
3.36495
3.25111
3.13787
3.02552
2.91361
2.80423
2.70126
2.609
2.52785
2.45787
2.39401
2.32799
2.25361
2.16268
2.05834
1.96989
1.9144
1.88235
1.85795
1.82705
1.77881
1.71135
1.63222
1.56035
1.50948
1.49055
1.48441
1.51111
1.62426
1.88366
2.26865
2.51753
2.64923
2.71088
2.72074
2.68235
2.6272
2.5819
2.57892
2.66636
2.96041
3.45061
3.94293
4.2517
4.35014
4.40443
4.37409
4.30628
4.24364
4.18918
4.14918
4.11925
4.08767
4.05044
4.00968
3.96985
3.92574
3.88198
3.81556
1
6.30984
10.5963
10.6665
10.4579
10.3302
10.1599
9.97335
9.75373
9.48612
9.18265
8.877
8.59652
8.33509
8.06754
7.77443
7.47088
7.1843
6.93601
6.72278
6.49832
6.26196
6.01799
5.76389
5.51996
5.30268
5.10775
4.92979
4.761
4.59084
4.41292
4.23235
4.05998
3.90299
3.76032
3.63003
3.50827
3.39019
3.27115
3.15191
3.03628
2.92492
2.81679
2.71549
2.62573
2.54649
2.47473
2.4047
2.33091
2.25202
2.16646
2.07164
1.99044
1.94609
1.91034
1.87256
1.82927
1.77394
1.70736
1.63955
1.57623
1.52849
1.50005
1.47768
1.46717
1.46107
1.49738
1.63921
1.93185
2.26355
2.49227
2.62074
2.65064
2.65958
2.74279
2.97503
3.37659
3.86683
4.15945
4.39993
4.49008
4.47091
4.42916
4.33936
4.25978
4.19441
4.14746
4.11929
4.10457
4.09103
4.06009
4.02767
3.99228
3.9489
3.9043
3.8371
1
6.23611
10.597
10.6067
10.4347
10.3229
10.1569
9.95452
9.71762
9.45178
9.18056
8.91355
8.64373
8.36393
8.07385
7.78497
7.50814
7.2515
7.01267
6.77136
6.50354
6.23335
5.97416
5.74862
5.54539
5.35315
5.16366
4.97624
4.78462
4.58862
4.40025
4.22992
4.07701
3.93645
3.8021
3.66818
3.52933
3.3892
3.25819
3.14219
3.03907
2.94148
2.8436
2.74276
2.63818
2.53954
2.45776
2.3886
2.32228
2.25268
2.18173
2.11892
2.04988
1.97206
1.90806
1.85715
1.81045
1.76028
1.70387
1.65245
1.6162
1.57794
1.53753
1.49781
1.4603
1.42791
1.3917
1.39319
1.45241
1.6759
2.04261
2.35118
2.58292
2.95234
3.39703
3.77793
4.09364
4.34399
4.40559
4.40566
4.38187
4.38333
4.34503
4.29702
4.25991
4.22037
4.18053
4.14606
4.12538
4.09816
4.0563
4.01846
3.98065
3.9386
3.8998
3.8419
1
6.18882
10.6035
10.5864
10.4207
10.3022
10.1373
9.94652
9.72895
9.48531
9.22774
8.95822
8.67651
8.38988
8.10869
7.83909
7.57981
7.32485
7.06285
6.78896
6.51385
6.24577
6.00461
5.80237
5.62419
5.42084
5.213
4.99864
4.78062
4.57317
4.39042
4.233
4.09287
3.96066
3.82645
3.68261
3.52863
3.37701
3.24471
3.13714
3.04649
2.96005
2.86647
2.75596
2.63418
2.52374
2.43854
2.37288
2.31704
2.26541
2.20938
2.13288
2.04343
1.96036
1.89287
1.83904
1.79316
1.75138
1.70945
1.66296
1.61398
1.57197
1.53004
1.49122
1.45324
1.41275
1.37231
1.34719
1.33135
1.36517
1.54164
2.02484
2.80633
3.56744
4.19421
4.75083
4.97343
4.87082
4.64888
4.42821
4.34854
4.30958
4.28559
4.25721
4.23485
4.21187
4.18617
4.15871
4.14702
4.1263
4.08031
4.03469
3.98789
3.94092
3.90078
3.84343
)
;

boundaryField
{
    inlet
    {
        type            fixedValue;
        value           uniform 1;
    }
    outlet
    {
        type            zeroGradient;
    }
    bottom
    {
        type            symmetryPlane;
    }
    top
    {
        type            symmetryPlane;
    }
    obstacle
    {
        type            zeroGradient;
    }
    defaultFaces
    {
        type            empty;
    }
}


// ************************************************************************* //
