/*--------------------------------*- C++ -*----------------------------------*\
  =========                 |
  \\      /  F ield         | OpenFOAM: The Open Source CFD Toolbox
   \\    /   O peration     | Website:  https://openfoam.org
    \\  /    A nd           | Version:  7
     \\/     M anipulation  |
\*---------------------------------------------------------------------------*/
FoamFile
{
    version     2.0;
    format      ascii;
    class       volScalarField;
    location    "4";
    object      rho;
}
// * * * * * * * * * * * * * * * * * * * * * * * * * * * * * * * * * * * * * //

dimensions      [1 -3 0 0 0 0 0];

internalField   nonuniform List<scalar> 
4032
(
1.40001
1.40001
1.40001
1.40001
1.40001
1.40001
1.40001
1.40001
1.40001
1.40001
1.40001
1.5711
4.37477
5.46488
5.51471
5.59133
5.65833
5.72045
5.77609
5.82588
5.87034
5.90625
5.93279
5.95125
1.40001
1.40001
1.40001
1.40001
1.40001
1.40001
1.40001
1.40001
1.40001
1.40001
1.40001
1.54819
4.30485
5.4506
5.50906
5.58371
5.64926
5.70974
5.76392
5.81206
5.85447
5.88793
5.91163
5.9285
1.40001
1.40001
1.40001
1.40001
1.40001
1.40001
1.40001
1.40001
1.40001
1.40001
1.40001
1.49224
4.19386
5.44117
5.49366
5.56694
5.63224
5.69193
5.74506
5.79154
5.83193
5.86337
5.88459
5.90006
1.40001
1.40001
1.40001
1.40001
1.40001
1.40001
1.40001
1.40001
1.40001
1.40001
1.40001
1.40966
4.00634
5.42491
5.47402
5.54077
5.60259
5.65853
5.70892
5.75369
5.79333
5.82378
5.8426
5.8555
1.40001
1.40001
1.40001
1.40001
1.40001
1.40001
1.40001
1.40001
1.40001
1.40001
1.40001
1.40013
3.72622
5.36543
5.42914
5.49244
5.55429
5.60879
5.65655
5.6962
5.72861
5.75423
5.7707
5.78998
1.40001
1.40001
1.40001
1.40001
1.40001
1.40001
1.40001
1.40001
1.40001
1.40001
1.40001
1.4
3.36648
5.28052
5.39
5.44769
5.50557
5.55316
5.59324
5.62649
5.65504
5.68003
5.69205
5.68428
1.40001
1.40001
1.40001
1.40001
1.40001
1.40001
1.40001
1.40001
1.40001
1.40001
1.40001
1.4
2.94619
5.16044
5.36263
5.41139
5.45798
5.49193
5.51662
5.5343
5.54138
5.53132
5.51644
5.51039
1.40001
1.40001
1.40001
1.40001
1.40001
1.40001
1.40001
1.40001
1.40001
1.40001
1.40001
1.40001
2.47155
4.99742
5.37144
5.3947
5.42145
5.43712
5.44084
5.43623
5.41783
5.3888
5.33673
5.31179
1.40001
1.40001
1.40001
1.40001
1.40001
1.40001
1.40001
1.40001
1.40001
1.40001
1.40001
1.40001
1.95527
4.75611
5.40418
5.37785
5.38935
5.38608
5.36747
5.33578
5.27541
5.17217
4.85924
4.00955
1.40001
1.40001
1.40001
1.40001
1.40001
1.40001
1.40001
1.40001
1.40001
1.40001
1.40001
1.40001
1.48832
4.30927
5.41737
5.36291
5.3433
5.31724
5.27758
5.21641
5.11406
4.92529
4.5981
3.70404
1.40001
1.40001
1.40001
1.40001
1.40001
1.40001
1.40001
1.40001
1.40001
1.40001
1.40001
1.40001
1.40095
3.5888
5.17793
5.24199
5.25487
5.22731
5.17835
5.09355
4.96245
4.72929
4.38638
3.56179
1.40001
1.40001
1.40001
1.40001
1.40001
1.40001
1.40001
1.40001
1.40001
1.40001
1.40001
1.40001
1.39999
2.76838
4.982
5.20159
5.20053
5.16817
5.1066
4.99844
4.83914
4.59473
4.21346
3.54091
1.40001
1.40001
1.40001
1.40001
1.40001
1.40001
1.40001
1.40001
1.40001
1.40001
1.40001
1.40001
1.4
1.95525
4.71639
5.21435
5.1572
5.0974
5.02111
4.90156
4.72725
4.48563
4.0996
3.56422
1.40001
1.40001
1.40001
1.40001
1.40001
1.40001
1.40001
1.40001
1.40001
1.40001
1.40001
1.40001
1.4
1.46627
3.97642
5.0984
5.07082
5.01918
4.93903
4.81686
4.64553
4.39876
4.04243
3.61682
1.40001
1.40001
1.40001
1.40001
1.40001
1.40001
1.40001
1.40001
1.40001
1.40001
1.40001
1.40001
1.4
1.40022
2.88798
4.92207
5.04068
4.98794
4.89739
4.75598
4.58257
4.33025
4.01679
3.66195
1.40001
1.40001
1.40001
1.40001
1.40001
1.40001
1.40001
1.40001
1.40001
1.40001
1.40001
1.40001
1.40001
1.4
1.79387
4.65839
5.10034
4.96797
4.8458
4.69505
4.50882
4.28148
4.01312
3.70984
1.40001
1.40001
1.40001
1.40001
1.40001
1.40001
1.40001
1.40001
1.40001
1.40001
1.40001
1.40001
1.40001
1.4
1.42335
3.72316
4.94521
4.86271
4.76947
4.63259
4.4579
4.25297
4.01339
3.74747
1.40001
1.40001
1.40001
1.40001
1.40001
1.40001
1.40001
1.40001
1.40001
1.40001
1.40001
1.40001
1.40001
1.4
1.39993
2.4302
4.75319
4.844
4.76452
4.63005
4.4575
4.25446
4.0231
3.78384
1.40001
1.40001
1.40001
1.40001
1.40001
1.40001
1.40001
1.40001
1.40001
1.40001
1.40001
1.40001
1.40001
1.40001
1.39999
1.5648
3.98744
4.85189
4.75452
4.61687
4.44857
4.25492
4.03981
3.8213
1.40001
1.40001
1.40001
1.40001
1.40001
1.40001
1.40001
1.40001
1.40001
1.40001
1.40001
1.40001
1.40001
1.40001
1.4
1.40283
2.66276
4.66003
4.72678
4.59824
4.4425
4.2608
4.06416
3.86091
1.40001
1.40001
1.40001
1.40001
1.40001
1.40001
1.40001
1.40001
1.40001
1.40001
1.40001
1.40001
1.40001
1.40001
1.4
1.4
1.63884
3.98158
4.76004
4.61337
4.46094
4.28199
4.09457
3.89986
1.40001
1.40001
1.40001
1.40001
1.40001
1.40001
1.40001
1.40001
1.40001
1.40001
1.40001
1.40001
1.40001
1.40001
1.40001
1.4
1.40663
2.58909
4.55972
4.61426
4.46718
4.29553
4.11764
3.9339
1.40001
1.40001
1.40001
1.40001
1.40001
1.40001
1.40001
1.40001
1.40001
1.40001
1.40001
1.40001
1.40001
1.40001
1.40001
1.40001
1.40003
1.60507
3.77593
4.66974
4.49973
4.33339
4.16146
3.98553
1.40001
1.40001
1.40001
1.40001
1.40001
1.40001
1.40001
1.40001
1.40001
1.40001
1.40001
1.40001
1.40001
1.40001
1.40001
1.40001
1.40001
1.40511
2.31068
4.33063
4.51659
4.37042
4.20696
4.03579
1.40001
1.40001
1.40001
1.40001
1.40001
1.40001
1.40001
1.40001
1.40001
1.40001
1.40001
1.40001
1.40001
1.40001
1.40001
1.40001
1.40001
1.40003
1.51193
3.28448
4.5256
4.43487
4.27561
4.1055
1.40001
1.40001
1.40001
1.40001
1.40001
1.40001
1.40001
1.40001
1.40001
1.40001
1.40001
1.40001
1.40001
1.40001
1.40001
1.40001
1.40001
1.40001
1.40192
1.9329
3.97932
4.47615
4.32376
4.15763
1.40001
1.40001
1.40001
1.40001
1.40001
1.40001
1.40001
1.40001
1.40001
1.40001
1.40001
1.40001
1.40001
1.40001
1.40001
1.40001
1.40001
1.40001
1.40001
1.43646
2.6204
4.26343
4.36234
4.2225
1.40001
1.40001
1.40001
1.40001
1.40001
1.40001
1.40001
1.40001
1.40001
1.40001
1.40001
1.40001
1.40001
1.40001
1.40001
1.40001
1.40001
1.40001
1.40001
1.40045
1.60286
3.33357
4.33994
4.29544
1.40001
1.40001
1.40001
1.40001
1.40001
1.40001
1.40001
1.40001
1.40001
1.40001
1.40001
1.40001
1.40001
1.40001
1.40001
1.40001
1.40001
1.40001
1.40001
1.40001
1.40613
1.97527
3.79909
4.30696
1.40001
1.40001
1.40001
1.40001
1.40001
1.40001
1.40001
1.40001
1.40001
1.40001
1.40001
1.40001
1.40001
1.40001
1.40001
1.40001
1.40001
1.40001
1.40001
1.40001
1.40005
1.44328
2.45334
4.04057
1.40001
1.40001
1.40001
1.40001
1.40001
1.40001
1.40001
1.40001
1.40001
1.40001
1.40001
1.40001
1.40001
1.40001
1.40001
1.40001
1.40001
1.40001
1.40001
1.40001
1.40001
1.40065
1.54914
2.93405
1.40001
1.40001
1.40001
1.40001
1.40001
1.40001
1.40001
1.40001
1.40001
1.40001
1.40001
1.40001
1.40001
1.40001
1.40001
1.40001
1.40001
1.40001
1.40001
1.40001
1.40001
1.40001
1.40398
1.74319
1.40001
1.40001
1.40001
1.40001
1.40001
1.40001
1.40001
1.40001
1.40001
1.40001
1.40001
1.40001
1.40001
1.40001
1.40001
1.40001
1.40001
1.40001
1.40001
1.40001
1.40001
1.40001
1.40003
1.41808
1.40001
1.40001
1.40001
1.40001
1.40001
1.40001
1.40001
1.40001
1.40001
1.40001
1.40001
1.40001
1.40001
1.40001
1.40001
1.40001
1.40001
1.40001
1.40001
1.40001
1.40001
1.40001
1.40001
1.40021
1.40001
1.40001
1.40001
1.40001
1.40001
1.40001
1.40001
1.40001
1.40001
1.40001
1.40001
1.40001
1.40001
1.40001
1.40001
1.40001
1.40001
1.40001
1.40001
1.40001
1.40001
1.40001
1.40001
1.40001
1.40001
1.40001
1.40001
1.40001
1.40001
1.40001
1.40001
1.40001
1.40001
1.40001
1.40001
1.40001
1.40001
1.40001
1.40001
1.40001
1.40001
1.40001
1.40001
1.40001
1.40001
1.40001
1.40001
1.40001
1.40001
1.40001
1.40001
1.40001
1.40001
1.40001
1.40001
1.40001
1.40001
1.40001
1.40001
1.40001
1.40001
1.40001
1.40001
1.40001
1.40001
1.40001
1.40001
1.40001
1.40001
1.40001
1.40001
1.40001
1.40001
1.40001
1.40001
1.40001
1.40001
1.40001
1.40001
1.40001
1.40001
1.40001
1.40001
1.40001
1.40001
1.40001
1.40001
1.40001
1.40001
1.40001
1.40001
1.40001
1.40001
1.40001
1.40001
1.40001
1.40001
1.40001
1.40001
1.40001
1.40001
1.40001
1.40001
1.40001
1.40001
1.40001
1.40001
1.40001
1.40001
1.40001
1.40001
1.40001
1.40001
1.40001
1.40001
1.40001
1.40001
1.40001
1.40001
1.40001
1.40001
1.40001
1.40001
1.40001
1.40001
1.40001
1.40001
1.40001
1.40001
1.40001
1.40001
1.40001
1.40001
1.40001
1.40001
1.40001
1.40001
1.40001
1.40001
1.40001
1.40001
1.40001
1.40001
1.40001
1.33256
0.481246
0.244571
0.219205
0.229636
0.271171
0.352073
0.488632
0.640854
0.731974
0.785291
0.805863
0.831546
0.885158
0.980149
1.06276
1.07813
1.06785
1.04393
1.03416
1.02922
1.04053
1.07468
1.08689
1.08991
1.0891
1.08749
1.88516
2.76186
2.85691
2.90148
2.93057
2.95008
2.96123
2.96235
2.95455
2.93532
2.91221
2.89686
2.89193
2.8918
2.88761
2.8686
2.83737
2.80383
2.77832
2.76616
2.7654
2.7617
2.72998
2.6838
2.63943
2.60599
2.58707
2.58568
2.58557
2.56389
2.52897
2.48602
2.44549
2.4158
2.39823
2.39274
2.37644
2.3479
2.31598
2.27986
2.24838
2.22506
2.20672
2.19374
2.1758
2.15289
2.12749
2.09772
2.06757
2.04413
2.02543
2.01049
1.99646
1.97771
1.95569
1.92712
1.89426
1.8667
1.84795
1.83358
1.82295
1.81204
1.79654
1.77271
1.73639
1.70358
1.68429
1.67344
1.65372
2.00024
1.21628
0.863979
0.719363
0.604668
0.530156
0.530799
0.562823
0.584458
0.605776
0.654308
0.712916
0.763592
0.812416
0.88565
0.984526
1.03011
1.03375
1.03106
1.03772
1.04519
1.06988
1.10426
1.1104
1.10862
1.10386
1.09904
1.8147
2.78239
2.94628
2.97934
2.99123
2.98875
2.981
2.97328
2.97214
2.97322
2.96355
2.9372
2.90887
2.88693
2.87539
2.87128
2.86596
2.8471
2.81432
2.78259
2.75941
2.74977
2.74198
2.71917
2.68322
2.64288
2.60797
2.57975
2.56045
2.54953
2.53551
2.51212
2.48198
2.44896
2.41801
2.38974
2.36585
2.34828
2.32568
2.29989
2.27084
2.239
2.21195
2.19093
2.17401
2.15902
2.13862
2.11516
2.08654
2.05421
2.02671
2.00711
1.99108
1.97811
1.96045
1.93932
1.91473
1.88634
1.85845
1.83653
1.81985
1.80472
1.79082
1.77332
1.7491
1.72261
1.69583
1.67707
1.65311
2.48437
1.81388
1.40366
1.17382
0.995405
0.793519
0.692041
0.68274
0.682833
0.67433
0.687635
0.743353
0.797826
0.818253
0.842816
0.911678
0.982704
1.02749
1.05864
1.09071
1.114
1.14294
1.16436
1.16809
1.16616
1.15491
1.14474
1.69169
2.94332
3.16797
3.11383
3.12354
3.13125
3.11229
3.08007
3.05798
3.05769
3.07223
3.07798
3.0486
3.0016
2.95653
2.92698
2.91956
2.9283
2.92647
2.89627
2.85585
2.816
2.78512
2.76648
2.75437
2.73458
2.70225
2.6552
2.59949
2.56342
2.54342
2.53749
2.535
2.5187
2.49
2.44946
2.40272
2.36884
2.34501
2.32767
2.30911
2.28568
2.25569
2.2182
2.18817
2.16888
2.15523
2.14175
2.12301
2.09834
2.06379
2.02385
1.99274
1.97277
1.95904
1.95034
1.93748
1.92052
1.89611
1.86226
1.82883
1.80426
1.78374
1.76797
1.7567
1.74363
1.72644
1.70413
1.6644
2.8338
2.28219
1.82384
1.54241
1.37457
1.20323
0.999441
0.87784
0.876931
0.870856
0.829832
0.803912
0.796277
0.77967
0.774555
0.789568
0.850226
0.93353
1.00176
1.05018
1.08949
1.12682
1.1505
1.17814
1.19374
1.19961
1.22789
1.57203
3.1322
3.52281
3.36228
3.29496
3.31375
3.2943
3.26003
3.211
3.18356
3.17366
3.18564
3.18357
3.15172
3.10161
3.04764
3.01801
3.0048
3.00848
3.00113
2.97489
2.93753
2.88706
2.85033
2.82587
2.80661
2.78076
2.74806
2.70635
2.65784
2.62515
2.60586
2.59444
2.57788
2.5527
2.52232
2.48548
2.44339
2.40685
2.37998
2.35703
2.3344
2.30946
2.27916
2.24349
2.21113
2.19011
2.17305
2.15649
2.1373
2.11293
2.07976
2.03988
2.00584
1.98603
1.97175
1.95921
1.94608
1.92936
1.90421
1.86644
1.82576
1.79898
1.78414
1.77227
1.76137
1.74927
1.73475
1.6938
3.0282
2.5977
2.21055
1.86028
1.62906
1.49232
1.34857
1.17744
1.03176
1.00433
0.981763
0.926859
0.868996
0.840991
0.804976
0.800296
0.809431
0.836688
0.886554
0.941996
0.996859
1.04714
1.09512
1.14742
1.1646
1.22202
1.43836
1.75762
2.74938
3.61053
3.62337
3.48471
3.45187
3.4227
3.40841
3.36759
3.31235
3.28288
3.2667
3.27139
3.26407
3.23583
3.18872
3.1329
3.10157
3.08303
3.07623
3.06195
3.03781
2.9999
2.94543
2.90264
2.87259
2.84384
2.81676
2.7891
2.75478
2.71389
2.68296
2.65903
2.63429
2.6086
2.58372
2.55738
2.52454
2.48403
2.44604
2.41599
2.38943
2.36405
2.33802
2.30821
2.27483
2.24434
2.21902
2.19571
2.1726
2.14902
2.1242
2.09662
2.066
2.03648
2.01294
1.99354
1.97477
1.95457
1.9308
1.90197
1.87093
1.84426
1.82306
1.80618
1.79029
1.77407
1.75731
1.72041
3.19261
2.80939
2.47031
2.17918
1.90836
1.68047
1.56469
1.45217
1.29525
1.1559
1.13071
1.09283
1.02079
0.971038
0.935586
0.88319
0.855952
0.860116
0.868389
0.87384
0.88474
0.910599
0.958197
1.02236
1.10477
1.33248
1.77204
1.98811
2.2199
2.9686
3.50826
3.56431
3.56114
3.53142
3.49526
3.45561
3.38044
3.328
3.30489
3.30274
3.31544
3.30016
3.2671
3.20797
3.14977
3.12225
3.10754
3.10242
3.0842
3.0556
3.00525
2.94869
2.91589
2.89201
2.87039
2.84567
2.81752
2.77819
2.73253
2.69991
2.67594
2.65479
2.63436
2.61146
2.58066
2.53474
2.48791
2.4574
2.43331
2.41085
2.38829
2.36245
2.32874
2.28964
2.25741
2.23231
2.20949
2.18793
2.1679
2.14724
2.12094
2.08566
2.0514
2.02606
2.00423
1.98233
1.96038
1.93949
1.9187
1.89461
1.86721
1.84245
1.82048
1.79841
1.7776
1.74367
3.31205
2.97853
2.65641
2.39468
2.15956
1.92123
1.73168
1.6264
1.51458
1.37286
1.26992
1.22378
1.16456
1.09455
1.04308
0.9893
0.925188
0.906389
0.899114
0.889382
0.885462
0.88857
0.897106
0.931068
1.13503
1.5149
1.85638
1.99362
2.02799
2.21546
2.88285
3.41142
3.53915
3.57768
3.54368
3.49316
3.42552
3.34995
3.31708
3.30305
3.30774
3.30678
3.28144
3.24548
3.18871
3.14654
3.12604
3.11475
3.0948
3.06701
3.03076
2.98156
2.94282
2.91908
2.89817
2.87251
2.84476
2.81018
2.76446
2.72561
2.70208
2.68137
2.66005
2.63654
2.60518
2.55789
2.50903
2.48114
2.46097
2.44164
2.42159
2.39792
2.3627
2.31486
2.27498
2.25097
2.23289
2.21628
2.20029
2.183
2.15915
2.11932
2.07167
2.04004
2.01951
2.00212
1.98713
1.9735
1.95777
1.93572
1.90157
1.86414
1.83618
1.81312
1.79532
1.76781
3.40774
3.1075
2.82053
2.5671
2.33781
2.12667
1.93922
1.78276
1.66543
1.5672
1.44832
1.34894
1.28573
1.22804
1.17025
1.11751
1.05402
1.00808
0.98936
0.966033
0.935121
0.927539
0.952394
1.09935
1.38712
1.62927
1.77199
1.864
1.8734
1.89095
2.0618
2.68787
3.24834
3.47969
3.53293
3.50475
3.45666
3.39005
3.32213
3.29052
3.2735
3.26964
3.27506
3.25438
3.22145
3.16918
3.12487
3.09815
3.07537
3.05781
3.03508
3.00556
2.96461
2.92647
2.89887
2.87253
2.84597
2.81737
2.78115
2.74035
2.70898
2.68664
2.66452
2.63952
2.60883
2.56887
2.52479
2.4946
2.47689
2.45914
2.43749
2.41141
2.37676
2.33169
2.28916
2.26494
2.24948
2.23774
2.2247
2.20528
2.17756
2.13483
2.08644
2.05183
2.03207
2.01828
2.00683
1.99722
1.98534
1.96296
1.91979
1.87193
1.84294
1.8239
1.81053
1.78677
3.48006
3.20438
2.95212
2.71813
2.4872
2.28139
2.12059
1.96235
1.80643
1.69825
1.60288
1.4957
1.39805
1.34168
1.28371
1.22186
1.16804
1.12214
1.08128
1.04118
1.00276
1.01695
1.15646
1.4575
1.66326
1.76192
1.77846
1.77886
1.77911
1.78157
1.78788
1.89247
2.38829
3.03973
3.36007
3.46015
3.46667
3.42704
3.36438
3.28662
3.25281
3.23554
3.2371
3.24524
3.22692
3.19047
3.13067
3.08512
3.06133
3.04228
3.02921
3.00757
2.9762
2.9328
2.89224
2.86309
2.83767
2.81139
2.78304
2.74805
2.70948
2.67823
2.65475
2.63168
2.60695
2.58006
2.54691
2.50614
2.46935
2.44405
2.42292
2.40118
2.37836
2.35128
2.31963
2.28541
2.25724
2.23551
2.21277
2.18847
2.16102
2.13154
2.10128
2.07461
2.05417
2.03975
2.02817
2.01056
1.98432
1.95154
1.91342
1.87407
1.8503
1.83567
1.82476
1.80134
3.5373
3.28856
3.06004
2.83774
2.61723
2.4306
2.25897
2.10305
1.95308
1.83438
1.72382
1.62535
1.52454
1.45789
1.39644
1.33167
1.26607
1.21755
1.17684
1.14003
1.16609
1.32662
1.6415
1.8348
1.86162
1.83777
1.8115
1.80728
1.81506
1.81967
1.8185
1.79659
1.82684
2.12148
2.74881
3.18851
3.3953
3.43112
3.3944
3.3248
3.24508
3.21981
3.21078
3.22115
3.21761
3.19406
3.14771
3.0842
3.05076
3.02962
3.01651
3.00057
2.97486
2.93829
2.88847
2.85298
2.8298
2.80683
2.78255
2.75306
2.71377
2.6721
2.64196
2.62183
2.60411
2.58522
2.56005
2.52001
2.4711
2.43643
2.41384
2.39491
2.37717
2.3599
2.33826
2.30415
2.26098
2.22498
2.19827
2.174
2.14904
2.12828
2.11219
2.09505
2.07584
2.05277
2.02309
1.99538
1.96627
1.93518
1.90385
1.87764
1.85968
1.84558
1.83597
1.81534
3.58911
3.36367
3.15182
2.93504
2.73083
2.55867
2.39032
2.22464
2.08545
1.96632
1.84713
1.74181
1.64801
1.56955
1.50009
1.43052
1.36466
1.3107
1.26951
1.30327
1.48595
1.81748
2.03474
2.03272
1.99394
1.93384
1.91014
1.909
1.90227
1.88439
1.8674
1.84226
1.81162
1.81513
1.95133
2.42013
2.97823
3.29382
3.37795
3.36117
3.27867
3.22611
3.20201
3.20629
3.21143
3.19324
3.16084
3.10029
3.05043
3.02623
3.0102
2.99799
2.97558
2.94544
2.89701
2.84837
2.8221
2.80178
2.78165
2.75784
2.72466
2.67881
2.63818
2.6144
2.597
2.58145
2.56182
2.53106
2.48401
2.43653
2.40849
2.39042
2.37618
2.36184
2.34312
2.31167
2.26326
2.21741
2.18806
2.16692
2.15066
2.13736
2.12256
2.10459
2.07912
2.04204
2.00702
1.97855
1.95296
1.92541
1.90235
1.88831
1.8773
1.86646
1.85319
1.81991
3.64287
3.43466
3.23391
3.02453
2.83903
2.67066
2.50474
2.33875
2.21066
2.08475
1.96871
1.85185
1.766
1.68136
1.6015
1.52206
1.45681
1.41973
1.47346
1.67954
1.97902
2.20253
2.2051
2.16422
2.11337
2.05344
2.02435
2.01478
2.00027
1.97922
1.95882
1.93428
1.89038
1.83718
1.83344
1.87586
2.14479
2.67228
3.12932
3.28975
3.30845
3.26025
3.22785
3.22109
3.21605
3.19616
3.16784
3.11607
3.05948
3.03232
3.01582
3.00555
2.98516
2.95859
2.91892
2.86265
2.81967
2.79702
2.77772
2.75852
2.73645
2.70666
2.66562
2.62112
2.58911
2.56792
2.54954
2.52874
2.49864
2.4588
2.41953
2.39029
2.37003
2.35194
2.33244
2.30739
2.26596
2.21524
2.18527
2.16981
2.15826
2.14621
2.13
2.10648
2.06796
2.02486
1.99346
1.96915
1.94674
1.9304
1.91823
1.90366
1.88564
1.86373
1.84086
1.80834
3.69597
3.4998
3.30656
3.10972
2.93625
2.77336
2.60297
2.45055
2.32422
2.19766
2.07402
1.963
1.87374
1.78279
1.6902
1.61707
1.59122
1.67881
1.95846
2.20424
2.35705
2.36459
2.32406
2.28425
2.24418
2.18984
2.14231
2.12271
2.10622
2.08331
2.05844
2.03079
1.98969
1.9339
1.88259
1.86014
1.87195
1.98309
2.35661
2.84783
3.15951
3.23089
3.24858
3.24982
3.23825
3.21124
3.17984
3.13456
3.08027
3.0476
3.03054
3.01899
2.99939
2.97555
2.94555
2.89983
2.84299
2.80237
2.77973
2.76086
2.74362
2.7249
2.69867
2.65478
2.60297
2.56451
2.53792
2.51602
2.49599
2.47447
2.44258
2.40204
2.36895
2.34471
2.32218
2.29708
2.26615
2.23109
2.19893
2.17661
2.1615
2.14632
2.12794
2.10036
2.05796
2.01269
1.98355
1.96709
1.95547
1.94848
1.93778
1.92056
1.89355
1.85629
1.83086
1.80208
3.7448
3.5625
3.37792
3.1937
3.02794
2.86782
2.69826
2.55744
2.42813
2.30275
2.17253
2.06824
1.97003
1.87484
1.78326
1.789
1.90815
2.24072
2.52824
2.56723
2.52157
2.45506
2.41757
2.3966
2.36875
2.32835
2.27251
2.23042
2.20662
2.17945
2.14635
2.1142
2.08061
2.03234
1.98144
1.9413
1.91299
1.90419
1.93529
2.11347
2.50684
2.92985
3.14268
3.21328
3.26548
3.24167
3.20729
3.16851
3.12441
3.08904
3.05388
3.02977
3.00918
2.987
2.96271
2.93256
2.88884
2.8343
2.79155
2.76825
2.75008
2.73268
2.71343
2.68487
2.63507
2.5743
2.53521
2.5139
2.49614
2.47829
2.45644
2.42256
2.37878
2.34245
2.31561
2.29194
2.27081
2.24943
2.22107
2.18839
2.16194
2.14121
2.11943
2.09128
2.05021
2.00559
1.98387
1.97347
1.96874
1.96457
1.95242
1.93378
1.89633
1.84198
1.82004
1.80305
3.80491
3.6289
3.45064
3.27522
3.11441
2.95416
2.79171
2.65582
2.52612
2.396
2.26929
2.15836
2.0643
1.97557
2.00737
2.21156
2.49607
2.77148
2.82191
2.76759
2.65787
2.56367
2.53176
2.51487
2.48872
2.45363
2.40207
2.33799
2.29988
2.27124
2.24056
2.20716
2.17154
2.13021
2.07648
2.02581
1.9923
1.95714
1.93068
1.93294
1.97826
2.20058
2.59557
2.94673
3.16126
3.20429
3.2297
3.20581
3.17404
3.14189
3.08684
3.03755
3.01168
2.99147
2.97075
2.94865
2.92127
2.87948
2.82473
2.78047
2.75543
2.73617
2.71611
2.69202
2.65623
2.60382
2.5537
2.52342
2.50308
2.4843
2.46366
2.43534
2.39186
2.3447
2.31504
2.29748
2.28259
2.26486
2.23968
2.20308
2.16445
2.13412
2.1082
2.08001
2.04803
2.02144
1.99883
1.98416
1.97462
1.96425
1.95118
1.93229
1.89648
1.84602
1.81713
1.79645
3.86335
3.6883
3.5131
3.35037
3.1935
3.03123
2.8815
2.74748
2.61592
2.4805
2.35084
2.25897
2.18896
2.26876
2.57075
2.84115
2.9605
2.98982
2.93897
2.87281
2.79853
2.71169
2.66923
2.64227
2.60488
2.56661
2.51809
2.45082
2.39821
2.36237
2.32966
2.29622
2.25917
2.21604
2.16732
2.11654
2.07564
2.04332
2.00683
1.97582
1.95691
1.94852
2.01334
2.25427
2.65012
2.96753
3.12401
3.19145
3.21189
3.18045
3.12166
3.05231
3.0144
2.9954
2.97782
2.95996
2.93799
2.90727
2.85885
2.80298
2.76512
2.73946
2.71594
2.69139
2.66375
2.62789
2.58263
2.54187
2.51415
2.49231
2.47052
2.44397
2.40581
2.35696
2.32128
2.30374
2.28897
2.27272
2.25102
2.21648
2.16919
2.1286
2.09964
2.07631
2.05904
2.04175
2.01855
1.99649
1.97977
1.96304
1.94516
1.92453
1.89693
1.86037
1.82316
1.79699
3.93336
3.75926
3.58642
3.42734
3.27071
3.10966
2.97176
2.8338
2.6984
2.55851
2.45077
2.44816
2.60244
2.96748
3.2617
3.23766
3.18284
3.10309
3.03829
3.00297
2.95713
2.88131
2.80802
2.76632
2.72093
2.67769
2.6324
2.5742
2.50781
2.45951
2.41882
2.38134
2.34414
2.30232
2.2543
2.20252
2.1552
2.11692
2.0856
2.05193
2.01138
1.97777
1.94691
1.94945
2.03418
2.31172
2.68278
3.00038
3.12216
3.15797
3.1474
3.07203
3.02641
3.00687
2.98735
2.96984
2.94681
2.91772
2.87611
2.82209
2.77824
2.74806
2.72212
2.69713
2.67157
2.64159
2.60289
2.56013
2.52602
2.50081
2.47816
2.45346
2.42265
2.38317
2.34159
2.31015
2.28942
2.27154
2.25117
2.22054
2.17216
2.12708
2.10594
2.09393
2.08215
2.06442
2.03652
1.99699
1.96586
1.94828
1.93216
1.91458
1.89652
1.87507
1.84846
1.81403
3.98858
3.81712
3.65596
3.49981
3.33983
3.18746
3.05172
2.90852
2.77845
2.65605
2.72018
2.9967
3.33047
3.57714
3.56434
3.4272
3.29894
3.23241
3.19368
3.16797
3.11572
3.03553
2.9342
2.87658
2.83507
2.79095
2.74601
2.69389
2.6264
2.5572
2.50616
2.46407
2.42508
2.38649
2.34412
2.29423
2.23992
2.19041
2.15143
2.1182
2.08347
2.04305
1.99895
1.95691
1.93031
1.94694
2.06399
2.37596
2.71406
2.9934
3.07086
3.06104
3.05335
3.02263
2.99924
2.98261
2.95466
2.92183
2.88085
2.83
2.78732
2.75839
2.73446
2.71127
2.68574
2.6538
2.61284
2.56882
2.53373
2.50811
2.48578
2.4627
2.43672
2.4053
2.36629
2.32599
2.2946
2.26985
2.24477
2.21333
2.17201
2.13814
2.12532
2.11474
2.10275
2.08735
2.05654
2.00079
1.95208
1.92976
1.91775
1.90789
1.89949
1.89027
1.8746
1.87908
4.05499
3.8928
3.73589
3.58363
3.41671
3.27685
3.12497
3.00245
2.92662
3.0604
3.45063
3.71781
3.84845
3.85882
3.7369
3.58593
3.44994
3.37977
3.34252
3.31475
3.25737
3.17687
3.0741
2.99465
2.95175
2.90934
2.86166
2.80802
2.74251
2.66432
2.59591
2.54793
2.50747
2.46722
2.42645
2.38186
2.3302
2.27581
2.22627
2.18349
2.14435
2.10649
2.06469
2.01718
1.97486
1.93815
1.91823
1.94508
2.09118
2.40658
2.71068
2.92312
2.98134
3.01649
3.02843
3.00454
2.96599
2.92576
2.88034
2.8278
2.78877
2.76801
2.74834
2.72697
2.70256
2.66996
2.62261
2.56752
2.53214
2.51269
2.49444
2.4742
2.4496
2.42006
2.38376
2.3422
2.30261
2.26997
2.24173
2.214
2.18557
2.15549
2.13717
2.12954
2.12024
2.10338
2.07147
2.01491
1.9532
1.92312
1.91276
1.90521
1.9067
1.92052
1.94759
2.08466
4.13311
3.97328
3.82151
3.66044
3.49253
3.35504
3.21863
3.25284
3.48927
3.94498
4.16381
4.09004
4.03395
3.97817
3.87643
3.76292
3.63939
3.54234
3.48602
3.44355
3.39197
3.3206
3.2283
3.13094
3.06836
3.01675
2.96399
2.90782
2.84661
2.77791
2.70276
2.63505
2.5856
2.54255
2.49997
2.45742
2.41168
2.36109
2.30756
2.25529
2.20583
2.16128
2.12024
2.07844
2.03365
1.98536
1.94071
1.92201
1.90847
1.94478
2.11069
2.3943
2.67046
2.85774
2.95982
2.98
2.97196
2.93251
2.88439
2.82309
2.78463
2.77217
2.75287
2.72997
2.70795
2.68125
2.63387
2.57261
2.54574
2.53062
2.51043
2.4831
2.45409
2.42403
2.38999
2.35236
2.3146
2.28003
2.25136
2.22756
2.20347
2.1754
2.14752
2.12093
2.09895
2.08002
2.05921
2.02611
1.97577
1.93304
1.92534
1.92691
1.94726
2.02823
2.17177
2.4227
4.20796
4.04476
3.89275
3.71077
3.58141
3.47013
3.60794
3.99967
4.36991
4.61026
4.53274
4.32321
4.15985
4.08596
4.03173
3.9434
3.83176
3.71982
3.63791
3.57829
3.52362
3.45771
3.37507
3.27443
3.18705
3.12242
3.06257
3.00398
2.94506
2.88418
2.81869
2.74731
2.67766
2.6172
2.56526
2.5205
2.47839
2.43331
2.38248
2.32791
2.27201
2.21656
2.16416
2.1182
2.08001
2.04084
1.99876
1.95594
1.91805
1.89444
1.8787
1.91992
2.08815
2.37838
2.66622
2.83888
2.91637
2.92187
2.90254
2.8382
2.77459
2.74129
2.72813
2.72346
2.71108
2.68977
2.65093
2.59704
2.53521
2.49825
2.48301
2.473
2.46022
2.43992
2.41116
2.37284
2.3295
2.28849
2.26382
2.24637
2.22748
2.2009
2.15793
2.11188
2.08644
2.07026
2.05228
2.03114
2.00812
1.97942
1.9861
2.03247
2.16384
2.36898
2.50715
2.64897
4.25562
4.12462
3.94637
3.77757
3.77942
4.06946
4.60794
4.83573
4.87075
4.84189
4.70661
4.51454
4.34429
4.26871
4.21788
4.12304
4.01147
3.90378
3.80973
3.73214
3.65971
3.58501
3.50219
3.40799
3.31543
3.23948
3.17246
3.10826
3.04417
2.9785
2.91274
2.84472
2.77453
2.70651
2.64134
2.58207
2.53238
2.48752
2.43998
2.38831
2.3352
2.28022
2.22131
2.16085
2.10553
2.0662
2.03571
2.00147
1.9605
1.91473
1.88449
1.84674
1.82885
1.88107
2.07631
2.37682
2.64395
2.82607
2.8574
2.84221
2.79609
2.73816
2.71104
2.69788
2.6798
2.662
2.64458
2.60921
2.54713
2.49086
2.46334
2.44697
2.43012
2.41421
2.39431
2.36332
2.31396
2.28944
2.27821
2.26371
2.24535
2.21672
2.17401
2.12792
2.08373
2.05287
2.03888
2.0366
2.05025
2.10475
2.22473
2.40164
2.59454
2.70668
2.76479
2.79176
4.17859
4.16114
4.0055
4.1175
4.63768
5.23917
5.42596
5.25601
5.11431
4.98726
4.85951
4.71326
4.57014
4.4829
4.40944
4.30506
4.18382
4.07216
3.97558
3.88894
3.80178
3.71042
3.6173
3.52511
3.43762
3.35947
3.2869
3.21456
3.14087
3.06439
2.98953
2.92104
2.85649
2.79202
2.72473
2.65365
2.58399
2.52528
2.4753
2.42448
2.3738
2.32794
2.27733
2.21603
2.14946
2.08776
2.03712
2.00878
1.98506
1.95782
1.91793
1.86741
1.83096
1.77554
1.77117
1.85154
2.08041
2.39711
2.61449
2.75471
2.75946
2.73368
2.70591
2.68568
2.66492
2.64889
2.62665
2.59308
2.54779
2.48794
2.44719
2.43087
2.41714
2.40409
2.39051
2.36562
2.31864
2.26151
2.23252
2.22016
2.20815
2.19641
2.18137
2.15239
2.10325
2.06214
2.06147
2.09985
2.22093
2.43495
2.63437
2.80058
2.89517
2.89139
2.87284
2.84236
3.42726
3.93008
4.38914
5.27027
5.76179
5.89109
5.71687
5.46142
5.28311
5.15452
5.04433
4.91493
4.77726
4.67468
4.58114
4.46882
4.34599
4.23024
4.12587
4.0328
3.94165
3.84402
3.74236
3.64318
3.55109
3.46656
3.38701
3.30854
3.23003
3.14785
3.06096
2.98377
2.91975
2.85909
2.79461
2.72398
2.64711
2.56857
2.50151
2.45316
2.41194
2.36942
2.31846
2.25668
2.1907
2.11758
2.05361
2.01561
1.98605
1.94735
1.90298
1.8583
1.81781
1.77782
1.73482
1.69871
1.71837
1.85304
2.09726
2.40405
2.56555
2.63025
2.64414
2.62645
2.59592
2.58348
2.57673
2.56553
2.54413
2.49791
2.43649
2.40851
2.39561
2.3817
2.36554
2.34403
2.30952
2.25824
2.20982
2.18575
2.17244
2.16094
2.15315
2.15193
2.14158
2.16396
2.24393
2.42947
2.65255
2.85769
2.91316
2.95004
2.94998
2.92628
2.89822
2.86085
2.03723
3.4408
5.75032
6.30336
6.16642
6.02269
5.81937
5.61983
5.45218
5.33531
5.22668
5.09836
4.94732
4.82985
4.73108
4.61473
4.48599
4.36572
4.25355
4.14833
4.05271
3.95671
3.8545
3.74596
3.63977
3.5467
3.46555
3.38721
3.30516
3.22275
3.13441
3.03962
2.95598
2.88569
2.82209
2.75741
2.68668
2.61107
2.53645
2.46293
2.39033
2.33226
2.2937
2.26373
2.22197
2.15598
2.07639
2.012
1.98313
1.96066
1.92867
1.88841
1.84679
1.79858
1.7386
1.68705
1.64512
1.64576
1.6913
1.84715
2.10174
2.36741
2.52495
2.52449
2.52896
2.51345
2.49583
2.484
2.46917
2.44482
2.41394
2.37316
2.34363
2.33128
2.31859
2.3043
2.28503
2.25162
2.20377
2.1663
2.1517
2.15027
2.15654
2.19774
2.30759
2.50544
2.71634
2.89685
2.96245
3.00633
3.01522
3.00512
2.97795
2.94954
2.92812
2.88309
1.45482
3.58019
6.47966
6.38796
6.09257
5.93462
5.79405
5.66165
5.52971
5.41814
5.30527
5.17227
5.03837
4.93305
4.8465
4.73787
4.60957
4.48583
4.36927
4.25841
4.15916
4.06327
3.9605
3.84834
3.73463
3.63357
3.54894
3.47047
3.38383
3.27652
3.17982
3.10118
3.01755
2.94015
2.86994
2.79918
2.72389
2.64518
2.56441
2.48411
2.40877
2.33725
2.27234
2.2149
2.17051
2.13883
2.10028
2.04361
1.97556
1.91502
1.87425
1.838
1.80274
1.77176
1.74493
1.69917
1.64398
1.59786
1.5756
1.58593
1.65632
1.83744
2.08954
2.31446
2.46232
2.45655
2.43998
2.42948
2.40989
2.38462
2.36058
2.32712
2.28251
2.25402
2.24241
2.23423
2.22313
2.21189
2.19458
2.16504
2.16036
2.18039
2.28213
2.49961
2.74367
2.91188
3.0242
3.08092
3.07564
3.06687
3.05667
3.03203
2.99566
2.96015
2.92636
2.88721
1.40175
3.68068
5.94443
5.836
5.68541
5.63747
5.5804
5.51142
5.44091
5.369
5.28523
5.16835
5.03968
4.93367
4.84389
4.73737
4.60499
4.46591
4.34404
4.231
4.12631
4.02836
3.92546
3.81406
3.70003
3.5911
3.4919
3.40579
3.33037
3.25747
3.17339
3.07227
2.96672
2.87142
2.79089
2.7195
2.65094
2.58098
2.50698
2.43228
2.36268
2.2992
2.24323
2.19555
2.14978
2.10106
2.05048
1.99958
1.94275
1.88424
1.84467
1.81821
1.79226
1.75617
1.70657
1.65897
1.61701
1.57339
1.54536
1.53102
1.53031
1.55274
1.65018
1.84647
2.10657
2.26308
2.33075
2.33933
2.33364
2.32809
2.31366
2.28671
2.2426
2.18946
2.16248
2.15396
2.14913
2.16129
2.17525
2.20442
2.30971
2.48918
2.75044
2.92301
3.02785
3.07464
3.10199
3.10089
3.08297
3.04856
3.01962
2.99234
2.96706
2.94528
2.92216
2.8815
1.40003
3.8471
5.55813
5.5633
5.46799
5.43973
5.39918
5.35498
5.3052
5.24239
5.14689
5.02414
4.91359
4.81962
4.73562
4.64658
4.52807
4.39322
4.28541
4.193
4.09191
3.99182
3.89019
3.78274
3.67377
3.5685
3.46926
3.37645
3.29096
3.21032
3.12492
3.02989
2.93058
2.83704
2.75453
2.6807
2.61065
2.54105
2.46943
2.39693
2.3284
2.2672
2.21333
2.16355
2.11495
2.06535
2.01454
1.96461
1.92071
1.88231
1.8402
1.79417
1.75041
1.71066
1.67042
1.63576
1.60795
1.58534
1.55694
1.51848
1.48537
1.45705
1.45904
1.49529
1.62475
1.85782
2.07772
2.14445
2.18895
2.22803
2.23863
2.22277
2.1905
2.14074
2.10262
2.1019
2.11414
2.14575
2.25334
2.46127
2.73204
2.93037
3.06441
3.07223
3.07736
3.08841
3.07855
3.05734
3.02762
2.99614
2.97256
2.95358
2.93687
2.91964
2.8996
2.85812
1.40001
3.91209
5.43565
5.44597
5.37075
5.33003
5.26876
5.20943
5.14978
5.07901
4.9881
4.89072
4.80394
4.72374
4.64184
4.54361
4.42091
4.29267
4.18441
4.09389
3.99874
3.90202
3.80421
3.70002
3.59328
3.49286
3.40014
3.31137
3.22499
3.1401
3.05279
2.96126
2.86856
2.77991
2.69784
2.62281
2.55338
2.48782
2.424
2.36126
2.29955
2.23837
2.17873
2.12264
2.07211
2.02723
1.98842
1.9527
1.91493
1.87173
1.81839
1.75669
1.70373
1.67053
1.65205