/*--------------------------------*- C++ -*----------------------------------*\
  =========                 |
  \\      /  F ield         | OpenFOAM: The Open Source CFD Toolbox
   \\    /   O peration     | Website:  https://openfoam.org
    \\  /    A nd           | Version:  7
     \\/     M anipulation  |
\*---------------------------------------------------------------------------*/
FoamFile
{
    version     2.0;
    format      ascii;
    class       volScalarField;
    location    "4";
    object      T;
}
// * * * * * * * * * * * * * * * * * * * * * * * * * * * * * * * * * * * * * //

dimensions      [0 0 0 1 0 0 0];

internalField   nonuniform List<scalar> 
4032
(
1
1
1
1
1
1
1
1
1
1
1
1.16062
2.40645
2.71799
2.72756
2.74239
2.75587
2.76911
2.78141
2.79205
2.80069
2.80713
2.81177
2.81508
1
1
1
1
1
1
1
1
1
1
1
1.14257
2.39145
2.71649
2.72661
2.74081
2.75408
2.76709
2.77913
2.78942
2.79763
2.80357
2.80768
2.8107
1
1
1
1
1
1
1
1
1
1
1
1.08767
2.35185
2.71282
2.72314
2.73759
2.75098
2.76389
2.77571
2.78563
2.79339
2.79892
2.80258
2.80537
1
1
1
1
1
1
1
1
1
1
1
1.00576
2.28453
2.70468
2.71815
2.73278
2.74579
2.7579
2.76908
2.77861
2.78618
2.79148
2.79466
2.79691
1
1
1
1
1
1
1
1
1
1
1
1.00004
2.20058
2.68984
2.70857
2.72337
2.73673
2.7486
2.75924
2.76784
2.77403
2.77807
2.78011
2.78296
1
1
1
1
1
1
1
1
1
1
1
1
2.08356
2.67023
2.69944
2.71319
2.72623
2.73728
2.7469
2.75471
2.7604
2.76347
2.76207
2.75666
1
1
1
1
1
1
1
1
1
1
1
1
1.92296
2.63276
2.68327
2.69878
2.71233
2.72273
2.7308
2.73622
2.73792
2.73439
2.72643
2.71942
1
1
1
1
1
1
1
1
1
1
1
1
1.70199
2.55952
2.65599
2.67919
2.69507
2.70583
2.71233
2.71449
2.71204
2.70691
2.70187
2.71332
1
1
1
1
1
1
1
1
1
1
1
1
1.3851
2.43325
2.63076
2.6544
2.67275
2.68465
2.68937
2.68858
2.6809
2.66263
2.611
2.51031
1
1
1
1
1
1
1
1
1
1
1
1
1.04496
2.30059
2.63191
2.63273
2.64223
2.65299
2.6579
2.65498
2.64252
2.61003
2.55286
2.38988
1
1
1
1
1
1
1
1
1
1
1
1
1.00044
2.12466
2.59033
2.60064
2.61104
2.61692
2.62043
2.6158
2.60096
2.56293
2.49929
2.31574
1
1
1
1
1
1
1
1
1
1
1
1
0.999996
1.80709
2.51895
2.58381
2.59317
2.59178
2.58937
2.58014
2.56071
2.52218
2.44932
2.29063
1
1
1
1
1
1
1
1
1
1
1
1
0.999999
1.34424
2.37064
2.56592
2.56566
2.56417
2.55876
2.54541
2.52147
2.48286
2.40847
2.28556
1
1
1
1
1
1
1
1
1
1
1
1
1
1.03245
2.18787
2.5224
2.53359
2.53325
2.52811
2.5139
2.48904
2.44743
2.37836
2.28589
1
1
1
1
1
1
1
1
1
1
1
1
1
1.00015
1.80849
2.43589
2.51218
2.50942
2.50252
2.48565
2.46057
2.41677
2.35617
2.28164
1
1
1
1
1
1
1
1
1
1
1
1
1
0.999999
1.21804
2.27539
2.4934
2.47986
2.47144
2.45567
2.42971
2.39156
2.34017
2.2773
1
1
1
1
1
1
1
1
1
1
1
1
1
1
1.01105
2.07219
2.44086
2.43365
2.43189
2.42178
2.40098
2.36951
2.3255
2.27167
1
1
1
1
1
1
1
1
1
1
1
1
1
1
1
1.56315
2.31975
2.41445
2.40696
2.39432
2.37489
2.34684
2.30909
2.26435
1
1
1
1
1
1
1
1
1
1
1
1
1
1
0.999997
1.0818
2.10731
2.39043
2.38168
2.36797
2.34834
2.3226
2.29024
2.25335
1
1
1
1
1
1
1
1
1
1
1
1
1
1
0.999999
1.0013
1.64028
2.26811
2.35881
2.34163
2.323
2.29954
2.27162
2.2398
1
1
1
1
1
1
1
1
1
1
1
1
1
1
1
1
1.11872
2.06269
2.33165
2.31508
2.30069
2.27956
2.25418
2.22496
1
1
1
1
1
1
1
1
1
1
1
1
1
1
1
1
1.00294
1.58075
2.19238
2.29169
2.27331
2.25441
2.23303
2.20786
1
1
1
1
1
1
1
1
1
1
1
1
1
1
1
1
1.00001
1.09966
1.97273
2.26686
2.24693
2.23178
2.21395
2.19266
1
1
1
1
1
1
1
1
1
1
1
1
1
1
1
1
1
1.00216
1.44108
2.09561
2.22331
2.20637
2.19105
2.1732
1
1
1
1
1
1
1
1
1
1
1
1
1
1
1
1
1
1.00001
1.05223
1.79966
2.1885
2.18431
2.17091
2.15473
1
1
1
1
1
1
1
1
1
1
1
1
1
1
1
1
1
1
1.00074
1.25872
1.98863
2.16434
2.14617
2.13065
1
1
1
1
1
1
1
1
1
1
1
1
1
1
1
1
1
1
1
1.0158
1.55092
2.04727
2.13229
2.11424
1
1
1
1
1
1
1
1
1
1
1
1
1
1
1
1
1
1
1
1.00015
1.09571
1.77824
2.09335
2.09945
1
1
1
1
1
1
1
1
1
1
1
1
1
1
1
1
1
1
1
1
1.00237
1.27054
1.89823
2.076
1
1
1
1
1
1
1
1
1
1
1
1
1
1
1
1
1
1
1
1
1.00001
1.01839
1.46292
1.94839
1
1
1
1
1
1
1
1
1
1
1
1
1
1
1
1
1
1
1
1
1
1.00021
1.06717
1.62442
1
1
1
1
1
1
1
1
1
1
1
1
1
1
1
1
1
1
1
1
1
1
1.00145
1.15904
1
1
1
1
1
1
1
1
1
1
1
1
1
1
1
1
1
1
1
1
1
1
1.00001
1.00701
1
1
1
1
1
1
1
1
1
1
1
1
1
1
1
1
1
1
1
1
1
1
1
1.00006
1
1
1
1
1
1
1
1
1
1
1
1
1
1
1
1
1
1
1
1
1
1
1
1
1
1
1
1
1
1
1
1
1
1
1
1
1
1
1
1
1
1
1
1
1
1
1
1
1
1
1
1
1
1
1
1
1
1
1
1
1
1
1
1
1
1
1
1
1
1
1
1
1
1
1
1
1
1
1
1
1
1
1
1
1
1
1
1
1
1
1
1
1
1
1
1
1
1
1
1
1
1
1
1
1
1
1
1
1
1
1
1
1
1
1
1
1
1
1
1
1
1
1
1
1
1
1
1
1
1
1
1
1
1
1
1
1
1
1
1
1
1
1
1
1.69117
1.15497
0.950919
1.02632
1.10231
1.23763
1.39604
1.5446
1.56323
1.54954
1.54265
1.55865
1.63735
1.74246
1.77015
1.76657
1.75131
1.72632
1.70908
1.70655
1.70427
1.70873
1.71741
1.71439
1.70849
1.7045
1.70218
2.3337
2.81789
2.82571
2.82228
2.81568
2.80728
2.79902
2.7904
2.77923
2.76418
2.74611
2.72882
2.7145
2.70217
2.68751
2.66796
2.6449
2.62223
2.60397
2.59229
2.587
2.58093
2.5653
2.54453
2.52342
2.50525
2.49167
2.48495
2.47763
2.46087
2.44067
2.41847
2.39793
2.38196
2.37133
2.36663
2.35793
2.34463
2.32967
2.31245
2.29658
2.28333
2.27177
2.26247
2.25089
2.23744
2.22322
2.20746
2.19176
2.17888
2.16832
2.15959
2.15104
2.14064
2.12925
2.11526
2.09976
2.08661
2.07701
2.06928
2.06314
2.05641
2.04758
2.03521
2.01752
2.00122
1.99057
1.98377
1.97144
1.93388
1.63573
1.44941
1.34535
1.27884
1.28248
1.30439
1.32269
1.31525
1.31788
1.33999
1.3893
1.46077
1.52957
1.57409
1.61131
1.61909
1.62228
1.6241
1.63386
1.64408
1.66208
1.67224
1.67074
1.66581
1.66325
1.66211
2.25726
2.78487
2.80939
2.80284
2.79046
2.77333
2.75686
2.74437
2.73672
2.73053
2.71913
2.70096
2.68051
2.66095
2.64453
2.6314
2.61855
2.60154
2.58141
2.56335
2.54943
2.54163
2.53589
2.52534
2.50954
2.49113
2.47369
2.45724
2.44261
2.43159
2.42035
2.4059
2.38899
2.3721
2.35726
2.34415
2.33314
2.32517
2.31532
2.30362
2.28981
2.2742
2.25989
2.24742
2.23664
2.22698
2.21525
2.20241
2.18774
2.17184
2.15783
2.14691
2.13815
2.13126
2.12235
2.11187
2.09987
2.08651
2.07352
2.06267
2.05383
2.04588
2.03842
2.02908
2.01672
2.00315
1.98956
1.97966
1.96571
2.03411
1.82716
1.66706
1.55939
1.47746
1.37443
1.30181
1.27748
1.27103
1.25724
1.26476
1.30459
1.33935
1.35773
1.3787
1.42413
1.4639
1.49044
1.51339
1.53907
1.56248
1.58712
1.60019
1.60191
1.60069
1.59544
1.5956
2.03044
2.6728
2.72701
2.70224
2.69165
2.68089
2.66239
2.64405
2.6318
2.62822
2.62914
2.62736
2.61088
2.58754
2.56426
2.54552
2.53439
2.52976
2.52151
2.50461
2.48614
2.46983
2.45873
2.45328
2.45007
2.44377
2.43185
2.41248
2.38851
2.37102
2.35832
2.35022
2.34383
2.33354
2.32074
2.30454
2.28716
2.27546
2.26774
2.26219
2.25543
2.24596
2.23286
2.21552
2.2007
2.19025
2.18235
2.17486
2.16564
2.15448
2.1393
2.12183
2.10826
2.09927
2.09289
2.08874
2.08272
2.0749
2.06407
2.04905
2.03376
2.02229
2.01264
2.00501
1.99907
1.99216
1.98363
1.97292
1.95405
2.10543
1.94726
1.79284
1.68661
1.62151
1.5475
1.44265
1.35952
1.35357
1.34724
1.32039
1.29889
1.28924
1.27968
1.28019
1.2909
1.3287
1.37548
1.41289
1.4396
1.46534
1.49081
1.50817
1.52535
1.53355
1.53759
1.55625
1.75541
2.44523
2.62693
2.57648
2.55178
2.5483
2.53577
2.52293
2.50731
2.49779
2.49348
2.49524
2.49166
2.47863
2.46122
2.44164
2.42814
2.41897
2.41493
2.4072
2.39573
2.38333
2.36861
2.35958
2.35513
2.35218
2.34625
2.33706
2.32383
2.30547
2.28961
2.27792
2.26972
2.26036
2.24928
2.23822
2.22683
2.21458
2.20471
2.19852
2.19347
2.18757
2.17944
2.16811
2.15356
2.13949
2.13005
2.12282
2.1164
2.10938
2.10086
2.08937
2.07443
2.0609
2.05318
2.04795
2.0436
2.03883
2.03229
2.02235
2.00699
1.98955
1.97788
1.9716
1.9666
1.96225
1.95719
1.95102
1.93506
2.14689
2.02558
1.90643
1.78741
1.70055
1.64672
1.58596
1.50599
1.42566
1.40805
1.39451
1.3622
1.32772
1.30902
1.284
1.2803
1.28631
1.30287
1.32999
1.35882
1.38908
1.41636
1.44236
1.46867
1.47724
1.50758
1.62317
1.77517
2.16521
2.45383
2.49294
2.457
2.44269
2.43187
2.42753
2.41685
2.40171
2.39307
2.38715
2.3872
2.38372
2.37529
2.36235
2.3457
2.33488
2.32709
2.32275
2.31663
2.30891
2.2986
2.28436
2.27416
2.26805
2.26233
2.25668
2.24957
2.23862
2.22379
2.21096
2.20007
2.18914
2.17889
2.17036
2.16282
2.15448
2.14455
2.13588
2.12978
2.12431
2.11834
2.11087
2.10063
2.08812
2.07652
2.06729
2.05955
2.05263
2.04606
2.03904
2.03078
2.02105
2.01115
2.0032
1.99679
1.99063
1.98388
1.97552
1.96488
1.95331
1.94321
1.93522
1.92912
1.92365
1.91834
1.91283
1.9005
2.18208
2.07838
1.97856
1.88678
1.79362
1.70627
1.66044
1.61456
1.54596
1.47623
1.46242
1.44238
1.40405
1.37518
1.35107
1.31824
1.30414
1.30711
1.31141
1.31367
1.31881
1.33317
1.35997
1.39399
1.43656
1.55997
1.7719
1.85879
1.9434
2.19722
2.36604
2.39523
2.40097
2.39105
2.37914
2.36852
2.34839
2.33387
2.32758
2.32668
2.32951
2.32408
2.31421
2.29823
2.28199
2.27406
2.26937
2.26728
2.2612
2.25257
2.23862
2.2235
2.21567
2.2103
2.20537
2.19895
2.19083
2.17851
2.163
2.15074
2.14115
2.13288
2.1256
2.11862
2.11036
2.09815
2.08612
2.07952
2.07476
2.07002
2.06432
2.05647
2.04503
2.03134
2.02047
2.01265
2.00615
2.00058
1.99585
1.99094
1.98373
1.97255
1.96106
1.95268
1.9455
1.93823
1.93097
1.9243
1.91775
1.9097
1.90013
1.89163
1.88445
1.87754
1.87115
1.86091
2.20039
2.11528
2.02533
1.94746
1.87165
1.78803
1.71662
1.67632
1.63122
1.56936
1.52062
1.49849
1.46989
1.43431
1.40539
1.37418
1.33775
1.32742
1.32364
1.31757
1.31273
1.31411
1.3191
1.3404
1.46162
1.6613
1.81019
1.86056
1.8658
1.93183
2.16071
2.31944
2.36168
2.37342
2.36461
2.35048
2.33234
2.3109
2.30047
2.29642
2.2972
2.29642
2.28871
2.27806
2.2622
2.25011
2.24404
2.24052
2.23467
2.22664
2.21604
2.20213
2.19156
2.18531
2.1798
2.17264
2.1644
2.15339
2.13852
2.12521
2.11636
2.10846
2.10071
2.09294
2.08348
2.06971
2.05595
2.04914
2.04463
2.04004
2.03462
2.02737
2.01576
1.99946
1.98625
1.97895
1.97376
1.96959
1.96606
1.9621
1.95553
1.94268
1.9263
1.91553
1.90883
1.90326
1.89863
1.89448
1.88974
1.88284
1.87114
1.85804
1.84867
1.84148
1.83644
1.82855
2.20991
2.1372
2.06205
1.99087
1.92116
1.85235
1.78745
1.72974
1.68369
1.6445
1.59518
1.55054
1.52016
1.49266
1.46474
1.43753
1.40361
1.37878
1.36831
1.3546
1.33566
1.33137
1.34694
1.43548
1.59594
1.7096
1.76012
1.79089
1.79032
1.79443
1.86305
2.09668
2.26932
2.33778
2.35343
2.34508
2.33056
2.31144
2.29087
2.28097
2.27544
2.27414
2.27517
2.26838
2.25802
2.24264
2.22949
2.22151
2.21513
2.2104
2.20378
2.19495
2.18294
2.17206
2.16408
2.15626
2.14804
2.13866
2.1266
2.11279
2.10161
2.09317
2.08508
2.07665
2.067
2.05499
2.04195
2.03325
2.02852
2.02347
2.01693
2.00869
1.99738
1.98251
1.9684
1.9605
1.95577
1.95259
1.9492
1.94387
1.93564
1.92176
1.90526
1.89331
1.88669
1.88215
1.87869
1.87597
1.87221
1.8647
1.84941
1.83216
1.82236
1.8165
1.81266
1.80526
2.21349
2.14903
2.08641
2.02424
1.95773
1.89435
1.8427
1.78845
1.7314
1.69045
1.6535
1.60912
1.56561
1.54008
1.51375
1.48399
1.45689
1.43372
1.41253
1.39082
1.36985
1.38071
1.4685
1.62565
1.71936
1.74989
1.75104
1.74887
1.74633
1.7443
1.74095
1.78342
1.98683
2.20438
2.30468
2.32919
2.32937
2.3155
2.29639
2.27422
2.26433
2.25851
2.25783
2.2591
2.25234
2.24045
2.22285
2.20986
2.20296
2.19722
2.19329
2.18669
2.17711
2.16421
2.15215
2.14312
2.13499
2.12653
2.11689
2.10468
2.0911
2.07998
2.07149
2.06359
2.05577
2.0476
2.03771
2.02513
2.0135
2.00558
1.99892
1.99204
1.98468
1.97595
1.96542
1.95377
1.94446
1.93732
1.9299
1.92226
1.91367
1.90433
1.89444
1.88531
1.87827
1.8736
1.8696
1.86348
1.85417
1.84235
1.82859
1.81427
1.80626
1.80201
1.79884
1.79077
2.21278
2.15715
2.10282
2.04616
1.98565
1.93185
1.87945
1.82905
1.77765
1.73568
1.69448
1.65556
1.61359
1.58575
1.55944
1.5305
1.4994
1.47552
1.45527
1.43761
1.45359
1.54605
1.69731
1.77934
1.77776
1.7667
1.7528
1.74525
1.74427
1.74205
1.73667
1.72434
1.73495
1.86546
2.09912
2.2403
2.30071
2.30725
2.29679
2.27441
2.25152
2.24351
2.24072
2.2428
2.24052
2.23146
2.21682
2.19864
2.18905
2.18282
2.17871
2.17377
2.16612
2.15517
2.14022
2.12959
2.12239
2.11496
2.10681
2.09665
2.08307
2.06862
2.05855
2.05195
2.04615
2.04024
2.03239
2.01991
2.00443
1.99355
1.98667
1.98065
1.97487
1.96896
1.96141
1.95001
1.93579
1.92384
1.91503
1.90702
1.8989
1.89223
1.88707
1.88141
1.87493
1.86679
1.85582
1.84548
1.83502
1.82378
1.81268
1.80345
1.79706
1.79283
1.79039
1.78388
2.20874
2.16109
2.11313
2.06002
2.0068
1.95997
1.91127
1.86012
1.81521
1.77547
1.73305
1.69353
1.65727
1.62674
1.59822
1.56816
1.53861
1.51383
1.49579
1.51473
1.61026
1.76189
1.84372
1.83916
1.81757
1.79197
1.78006
1.77495
1.76746
1.75619
1.74585
1.73265
1.7156
1.71506
1.77202
1.96121
2.14948
2.24451
2.269
2.26382
2.24021
2.22479
2.21903
2.21987
2.22025
2.21335
2.20282
2.18541
2.17131
2.16432
2.15948
2.15578
2.14946
2.14104
2.12693
2.11246
2.10493
2.09907
2.09291
2.08524
2.07427
2.05915
2.04612
2.03865
2.03358
2.02886
2.0226
2.01287
1.99816
1.98354
1.97498
1.96955
1.96514
1.9604
1.9541
1.9436
1.92741
1.91207
1.90254
1.89569
1.89055
1.88646
1.88182
1.87607
1.86719
1.8534
1.84075
1.83057
1.82137
1.81172
1.80387
1.79933
1.79578
1.79216
1.78754
1.77622
2.20137
2.16034
2.11801
2.06982
2.02462
1.98119
1.9355
1.88654
1.84772
1.80748
1.76854
1.72704
1.69628
1.66474
1.63325
1.60064
1.57273
1.55876
1.58658
1.68306
1.81193
1.89366
1.89136
1.87097
1.84837
1.82447
1.80993
1.80222
1.79226
1.77989
1.7683
1.75496
1.73434
1.71045
1.70299
1.71626
1.82759
2.01812
2.16058
2.20757
2.21426
2.20259
2.1956
2.19383
2.19231
2.18604
2.17733
2.16292
2.14764
2.1401
2.13529
2.13237
2.12705
2.12053
2.11023
2.09427
2.08208
2.07634
2.07155
2.06638
2.0599
2.05098
2.03834
2.02484
2.01564
2.00987
2.00479
1.99863
1.98937
1.97739
1.96545
1.95672
1.9508
1.94545
1.93954
1.93162
1.91792
1.90116
1.89159
1.88695
1.88343
1.87974
1.87463
1.86684
1.85333
1.83819
1.8271
1.81858
1.81097
1.80582
1.80184
1.79692
1.79105
1.7829
1.77373
1.7613
2.1912
2.15601
2.11746
2.0751
2.03569
1.99619
1.95148
1.90933
1.87323
1.83493
1.79541
1.75835
1.728
1.69533
1.66088
1.63072
1.62513
1.66819
1.78643
1.87748
1.9332
1.9323
1.91588
1.89739
1.88007
1.85858
1.83799
1.82648
1.81613
1.80334
1.78988
1.77534
1.75602
1.73112
1.70735
1.69345
1.69575
1.7355
1.87845
2.03772
2.12946
2.15112
2.15856
2.16285
2.16052
2.15323
2.14449
2.13251
2.11892
2.11086
2.10638
2.10329
2.09863
2.09366
2.08701
2.07546
2.06012
2.04975
2.04507
2.04132
2.03759
2.03272
2.02526
2.01295
1.99824
1.9879
1.98121
1.97556
1.97021
1.96405
1.95501
1.94324
1.93379
1.92716
1.92076
1.91328
1.90414
1.89357
1.88344
1.87656
1.87222
1.8677
1.8619
1.85284
1.83847
1.82281
1.81307
1.80771
1.80401
1.80184
1.79847
1.79292
1.78372
1.7701
1.76051
1.74946
2.17881
2.14865
2.1148
2.07776
2.04251
2.00605
1.96408
1.92798
1.89318
1.85741
1.8177
1.78508
1.75277
1.72062
1.68812
1.69203
1.74761
1.88184
1.97436
1.98348
1.9684
1.94578
1.92966
1.91851
1.90569
1.88874
1.86602
1.84707
1.83445
1.82075
1.80474
1.78861
1.77169
1.74976
1.72623
1.70717
1.6916
1.6826
1.68899
1.75477
1.89511
2.02451
2.08368
2.1053
2.12417
2.11962
2.11179
2.10126
2.09108
2.08354
2.07532
2.06963
2.0652
2.06088
2.05614
2.0495
2.039
2.0257
2.0162
2.01229
2.00939
2.00603
2.00147
1.99416
1.98124
1.96494
1.95507
1.95032
1.9464
1.94218
1.93662
1.9276
1.91526
1.90511
1.898
1.89184
1.88668
1.88134
1.87349
1.8639
1.85618
1.85029
1.84407
1.83553
1.82212
1.80729
1.8007
1.79781
1.79671
1.7959
1.79223
1.78618
1.77311
1.75361
1.74665
1.74106
2.16734
2.14015
2.10986
2.07693
2.04478
2.01058
1.97321
1.94093
1.9081
1.87279
1.83644
1.80336
1.77406
1.7479
1.76287
1.8437
1.94776
2.03843
2.04513
2.02734
1.99219
1.96087
1.947
1.93808
1.92591
1.91037
1.88925
1.86399
1.84699
1.83321
1.81825
1.80177
1.78414
1.76452
1.74075
1.71776
1.70034
1.68215
1.66961
1.66194
1.67579
1.75776
1.88789
1.98987
2.04954
2.06481
2.07559
2.07111
2.06425
2.05693
2.04459
2.03364
2.02833
2.0245
2.02083
2.01678
2.01127
2.00235
1.9903
1.98108
1.97686
1.97372
1.97001
1.96497
1.95672
1.944
1.93142
1.92442
1.92011
1.91618
1.91178
1.90503
1.8934
1.8803
1.87312
1.8698
1.8672
1.8639
1.85816
1.84828
1.83726
1.8289
1.82186
1.81409
1.80506
1.79752
1.79056
1.78671
1.78486
1.78224
1.7784
1.77239
1.75993
1.74229
1.73348
1.72762
2.15229
2.12779
2.1004
2.07285
2.04368
2.01069
1.97895
1.94905
1.91747
1.88254
1.84763
1.82234
1.80646
1.84032
1.94861
2.03549
2.07386
2.07548
2.05997
2.03828
2.01325
1.98394
1.9675
1.95615
1.94109
1.92473
1.90468
1.8789
1.8576
1.84171
1.82627
1.80988
1.79212
1.77238
1.75058
1.72772
1.70792
1.69062
1.67332
1.65676
1.64678
1.63655
1.65842
1.74363
1.86823
1.95765
2.00242
2.02555
2.03392
2.02715
2.01422
1.99918
1.99164
1.98837
1.98556
1.98301
1.97957
1.974
1.96391
1.95165
1.94403
1.93948
1.93537
1.93088
1.9254
1.91753
1.90695
1.89762
1.89194
1.8878
1.88359
1.87792
1.86865
1.85592
1.84742
1.84485
1.84318
1.84119
1.83739
1.829
1.81581
1.80458
1.79729
1.79198
1.7887
1.78487
1.77856
1.77252
1.7682
1.76367
1.7588
1.753
1.74469
1.73328
1.72088
1.71219
2.13607
2.11442
2.09002
2.06573
2.03944
2.00924
1.98201
1.95241
1.92165
1.88857
1.86209
1.86741
1.92806
2.04819
2.133
2.12534
2.1081
2.0829
2.0638
2.05223
2.03594
2.01008
1.98458
1.96877
1.95209
1.93499
1.91637
1.89368
1.8684
1.84846
1.83071
1.81332
1.79574
1.77697
1.75631
1.73383
1.71222
1.6934
1.67697
1.65976
1.64139
1.626
1.61331
1.60465
1.63388
1.7302
1.84379
1.9347
1.96632
1.98195
1.98133
1.96648
1.95846
1.95542
1.95234
1.95039
1.94732
1.9426
1.93411
1.92193
1.91272
1.90732
1.90295
1.89858
1.89376
1.88751
1.8788
1.86931
1.86258
1.85817
1.85417
1.84944
1.84294
1.83392
1.82427
1.81805
1.81529
1.8133
1.81046
1.80398
1.7911
1.7791
1.77532
1.77419
1.77295
1.76984
1.76294
1.75136
1.74243
1.73815
1.73439
1.73022
1.7261
1.72107
1.71235
1.7027
2.11423
2.0952
2.07555
2.05439
2.03009
2.00458
1.97953
1.95114
1.92417
1.9017
1.92582
2.01518
2.11871
2.18638
2.18188
2.14557
2.10918
2.08982
2.07824
2.06959
2.05277
2.02733
1.9948
1.97372
1.95797
1.94132
1.9237
1.90358
1.87879
1.85296
1.83224
1.81379
1.7959
1.77805
1.75925
1.7386
1.71632
1.69481
1.67627
1.65977
1.64305
1.62488
1.60621
1.59085
1.57616
1.57885
1.61873
1.72357
1.82347
1.90016
1.92426
1.92676
1.92961
1.92473
1.92197
1.92052
1.91652
1.91093
1.90264
1.89133
1.88221
1.87712
1.87347
1.86981
1.86504
1.85817
1.84885
1.83905
1.83223
1.8281
1.82454
1.82055
1.81576
1.80965
1.80163
1.79324
1.78725
1.78321
1.77916
1.77315
1.76344
1.75605
1.75529
1.75488
1.75426
1.75266
1.74578
1.72953
1.71542
1.71038
1.7085
1.7072
1.70667
1.7061
1.70419
1.71184
2.09566
2.07859
2.06113
2.04285
2.01932
1.99833
1.97256
1.95193
1.94746
1.994
2.10667
2.18155
2.21654
2.21814
2.18837
2.15149
2.11779
2.09895
2.08676
2.07658
2.05888
2.03539
2.00448
1.97775
1.96082
1.94475
1.92724
1.90761
1.88443
1.85753
1.83265
1.81323
1.79562
1.77739
1.75896
1.73974
1.71884
1.69741
1.67698
1.6583
1.64069
1.62403
1.60627
1.58842
1.57213
1.55892
1.54658
1.55433
1.6061
1.70915
1.79886
1.85909
1.8751
1.88822
1.89866
1.8951
1.88862
1.88133
1.87219
1.86085
1.85315
1.85008
1.84712
1.84349
1.83877
1.83165
1.82067
1.80818
1.80141
1.79873
1.79627
1.79319
1.7889
1.78352
1.77676
1.76863
1.76068
1.75447
1.74948
1.74474
1.73965
1.73352
1.73225
1.73325
1.7338
1.73257
1.72618
1.71088
1.69245
1.68551
1.68504
1.68488
1.68725
1.69595
1.71023
1.77182
2.0821
2.06497
2.04867
2.0291
2.00627
1.98602
1.97407
1.99002
2.06553
2.19045
2.2471
2.23172
2.21818
2.20624
2.18321
2.1575
2.1297
2.1055
2.08881
2.07511
2.0591
2.03802
2.0116
1.98269
1.96173
1.9436
1.92507
1.90534
1.88392
1.86025
1.83477
1.81079
1.7911
1.77304
1.75501
1.73675
1.71778
1.69803
1.678
1.65846
1.63949
1.62188
1.6055
1.58927
1.57236
1.55517
1.53853
1.53094
1.52301
1.53582
1.59698
1.69068
1.76806
1.81887
1.84688
1.86162
1.86225
1.85633
1.84689
1.833
1.82565
1.82456
1.82138
1.81709
1.81266
1.80676
1.79552
1.78131
1.7769
1.77501
1.77204
1.76743
1.762
1.75631
1.75025
1.74376
1.73705
1.73058
1.72538
1.72144
1.71741
1.71241
1.7079
1.70397
1.70145
1.69976
1.69729
1.69076
1.67707
1.66654
1.66712
1.66979
1.68052
1.71427
1.76655
1.85706
2.06694
2.04914
2.03314
2.01044
1.99238
1.9923
2.03736
2.14133
2.2341
2.29415
2.27985
2.23805
2.20727
2.19188
2.17985
2.16035
2.13494
2.10826
2.08772
2.07155
2.05577
2.03677
2.01364
1.98572
1.96017
1.93935
1.91941
1.89978
1.88
1.8593
1.83689
1.81268
1.78885
1.76743
1.748
1.73016
1.71304
1.69548
1.67741
1.65906
1.64035
1.62152
1.60362
1.58732
1.57318
1.55869
1.54355
1.52798
1.51385
1.50746
1.50327
1.51897
1.58066
1.67311
1.75325
1.79992
1.82465
1.83262
1.82926
1.81512
1.79972
1.79172
1.78993
1.79047
1.78885
1.78463
1.77586
1.76236
1.74684
1.73938
1.73818
1.7384
1.73798
1.73557
1.73097
1.72398
1.71585
1.7079
1.70382
1.70146
1.69874
1.69408
1.68493
1.67534
1.67259
1.67184
1.67022
1.6666
1.66291
1.66081
1.66572
1.68603
1.73523
1.80469
1.84902
1.88481
2.05134
2.03562
2.01324
1.9972
2.00867
2.09419
2.22455
2.27915
2.29252
2.28692
2.2636
2.23096
2.20103
2.18675
2.17643
2.15687
2.13258
2.10842
2.08675
2.06798
2.04967
2.0303
2.00831
1.98301
1.95721
1.93463
1.91382
1.89367
1.8738
1.85356
1.83263
1.81059
1.78817
1.76652
1.74571
1.72624
1.70848
1.69166
1.67489
1.65862
1.64252
1.62557
1.60738
1.58857
1.57141
1.55915
1.54921
1.5369
1.52243
1.50663
1.49624
1.48371
1.48516
1.50737
1.57615
1.66751
1.74275
1.79449
1.80466
1.80132
1.78967
1.7743
1.76812
1.76542
1.76146
1.75781
1.75441
1.74606
1.73071
1.71695
1.71161
1.70947
1.70786
1.70668
1.70416
1.69793
1.68719
1.6851
1.68511
1.68378
1.6813
1.67619
1.66692
1.65601
1.64574
1.64101
1.64118
1.64327
1.65273
1.67773
1.72267
1.78346
1.84178
1.87201
1.89218
1.89059
1.9784
2.02224
2.0051
2.03973
2.15639
2.27477
2.32881
2.30228
2.28269
2.26505
2.24539
2.22239
2.19813
2.18227
2.16885
2.14958
2.12618
2.10316
2.08217
2.06279
2.04292
2.0214
1.99845
1.97482
1.95168
1.93048
1.91016
1.88952
1.86853
1.84728
1.8266
1.80679
1.78679
1.76679
1.74712
1.72725
1.70756
1.68968
1.67302
1.65669
1.64273
1.63068
1.61707
1.60043
1.58148
1.56343
1.54888
1.54162
1.53544
1.5268
1.51351
1.49728
1.48588
1.47091
1.47335
1.50716
1.58537
1.68091
1.74061
1.7768
1.77723
1.77002
1.76158
1.75532
1.74868
1.74452
1.73974
1.73327
1.72342
1.70776
1.69751
1.69465
1.69262
1.69057
1.68813
1.68273
1.67149
1.65762
1.65265
1.65184
1.65102
1.65053
1.64893
1.64214
1.63002
1.62385
1.62603
1.64435
1.68787
1.75776
1.81881
1.86671
1.89091
1.88852
1.8819
1.87219
1.75795
1.93192
2.05081
2.22287
2.31152
2.34159
2.31735
2.28736
2.26788
2.25202
2.23705
2.21725
2.19492
2.17791
2.16209
2.14243
2.11969
2.09696
2.07581
2.05663
2.03751
2.01633
1.99314
1.96958
1.94743
1.92718
1.90797
1.88809
1.86722
1.84545
1.82407
1.80542
1.78822
1.77074
1.75272
1.73433
1.71532
1.6961
1.67989
1.66877
1.65974
1.64974
1.63728
1.62164
1.60331
1.5821
1.56407
1.55462
1.54782
1.53772
1.52466
1.51038
1.49673
1.48468
1.47074
1.46415
1.47399
1.52387
1.60489
1.69641
1.73705
1.75237
1.74986
1.74304
1.73313
1.72998
1.72969
1.72883
1.72511
1.71364
1.69677
1.68951
1.68647
1.68289
1.67874
1.67411
1.66623
1.65173
1.63713
1.63044
1.62734
1.62529
1.62546
1.6271
1.62971
1.64073
1.66962
1.72731
1.79209
1.84865
1.86623
1.87279
1.87283
1.86696
1.85876
1.84785
1.29003
1.74502
2.26033
2.386
2.37163
2.35736
2.32661
2.29797
2.27617
2.26045
2.24452
2.22468
2.20012
2.18007
2.16244
2.14104
2.11671
2.09367
2.0721
2.05182
2.03293
2.01311
1.99129
1.9678
1.94477
1.92452
1.90666
1.88905
1.87042
1.85132
1.82977
1.80761
1.78976
1.77486
1.76064
1.74612
1.73126
1.71666
1.70276
1.6878
1.67103
1.65829
1.65123
1.64597
1.63638
1.61853
1.59472
1.57493
1.5666
1.56114
1.55296
1.5417
1.52924
1.51475
1.49548
1.47799
1.46401
1.46546
1.48462
1.5421
1.62494
1.70457
1.74363
1.73765
1.73516
1.72909
1.72221
1.71902
1.71625
1.71126
1.7035
1.69283
1.68464
1.68091
1.67685
1.67199
1.66538
1.654
1.63791
1.62425
1.61807
1.61764
1.61999
1.63462
1.67
1.73007
1.78919
1.8352
1.85268
1.86556
1.87236
1.87063
1.86407
1.85616
1.84992
1.83887
1.02317
1.91835
2.56138
2.53873
2.47222
2.42332
2.38299
2.34747
2.31669
2.29417
2.27396
2.2518
2.22788
2.20738
2.18982
2.16828
2.14398
2.12121
2.09981
2.07915
2.06019
2.04137
2.02082
1.99802
1.97436
1.95279
1.93435
1.9173
1.89874
1.87567
1.85423
1.83756
1.8217
1.80816
1.79585
1.78312
1.76984
1.75628
1.74163
1.72544
1.70899
1.69327
1.67854
1.66472
1.65425
1.64628
1.63508
1.61731
1.59558
1.57646
1.56395
1.55356
1.54358
1.53411
1.52545
1.50944
1.48862
1.47308
1.46432
1.46808
1.49636
1.56464
1.65041
1.71975
1.75616
1.75006
1.73989
1.73562
1.73054
1.72398
1.71714
1.70679
1.69263
1.68192
1.67559
1.66977
1.66236
1.65453
1.64443
1.63208
1.6253
1.63109
1.66216
1.72472
1.78941
1.83284
1.86292
1.87728
1.88171
1.88242
1.88095
1.87513
1.86611
1.85653
1.847
1.83757
1.00054
2.15293
2.71597
2.65758
2.58752
2.53519
2.48537
2.44099
2.40479
2.37567
2.34978
2.32093
2.29083
2.26537
2.2438
2.21995
2.19311
2.16643
2.14312
2.12064
2.09908
2.07893
2.05772
2.03398
2.00849
1.98325
1.96012
1.94056
1.92406
1.9089
1.89266
1.87261
1.85121
1.83341
1.82066
1.81065
1.80094
1.78979
1.77622
1.76121
1.74629
1.73164
1.71754
1.70464
1.69183
1.67731
1.66202
1.64593
1.62711
1.60762
1.59509
1.58689
1.57825
1.56522
1.5466
1.52841
1.51213
1.49493
1.48263
1.47582
1.47768
1.48881
1.52935
1.60819
1.69828
1.74132
1.75875
1.75894
1.75595
1.75296
1.74776
1.73707
1.71847
1.69604
1.68206
1.67367
1.6649
1.66123
1.65482
1.65904
1.68728
1.73825
1.80746
1.85047
1.87848
1.89315
1.90415
1.90463
1.90141
1.89369
1.88526
1.87594
1.86733
1.86021
1.85396
1.84516
1.00001
2.26132
2.76345
2.75022
2.70613
2.6653
2.61914
2.57484
2.53436
2.49663
2.4567
2.41451
2.3774
2.34628
2.32002
2.29501
2.26615
2.23591
2.21149
2.18949
2.16508
2.14114
2.1171
2.09143
2.06486
2.03911
2.01552
1.99449
1.97592
1.95919
1.94272
1.92463
1.90568
1.88921
1.87669
1.8664
1.85586
1.84352
1.82887
1.81252
1.79566
1.77905
1.76305
1.74734
1.73148
1.71493
1.69775
1.68073
1.66538
1.65159
1.63706
1.62099
1.60471
1.58845
1.57117
1.5565
1.54465
1.53421
1.5211
1.50517
1.49264
1.48261
1.48401
1.50205
1.56047
1.65593
1.73475
1.74985
1.76168
1.77247
1.77367
1.76605
1.74876
1.72349
1.70195
1.68944
1.68564
1.68746
1.71053
1.76621
1.84043
1.8929
1.92628
1.93192
1.935
1.93854
1.93562
1.92875
1.91882
1.90864
1.89991
1.89151
1.88395
1.87658
1.87079
1.86392
1
2.26615
2.74556
2.76223
2.74396
2.72421
2.69534
2.66376
2.63048
2.59484
2.55607
2.51712
2.48199
2.45057
2.42136
2.39069
2.35614
2.32142
2.29127
2.26508
2.23812
2.21125
2.18442
2.15643
2.12853
2.10321
2.08088
2.06041
2.04113
2.02279
2.00467
1.98637
1.96835
1.95157
1.93634
1.9222
1.90822
1.8936
1.87771
1.86046
1.84199
1.82233
1.80193
1.78164
1.76275
1.74573
1.73053
1.7164
1.70199
1.68563
1.66508
1.6404
1.61872
1.60438
1.59517
1.58771
1.57868
1.5652
1.5468
1.52527
1.50549
1.49057
1.48542
1.48615
1.49584
1.53229
1.60806
1.70163
1.75415
1.77867
1.78055
1.77984
1.76988
1.75402
1.73513
1.72439
1.73716
1.78754
1.86426
1.93255
1.97339
1.98806
1.99482
1.98988
1.97906
1.96824
1.95862
1.95112
1.94462
1.93748
1.92957
1.92159
1.91411
1.90607
1.8996
1.89377
1
2.25345
2.72027
2.7524
2.74069
2.73068
2.71571
2.69765
2.67523
2.64746
2.61567
2.58291
2.55169
2.52172
2.49116
2.45826
2.42425
2.39166
2.36253
2.33666
2.30971
2.28172
2.25301
2.22299
2.19415
2.16863
2.14584
2.12514
2.10568
2.0861
2.06545
2.04413
2.02332
2.00395
1.98587
1.96871
1.95166
1.93381
1.91441
1.89368
1.87235
1.85076
1.82913
1.80817
1.78873
1.77096
1.75451
1.73833
1.72138
1.70327
1.68338
1.66033
1.63918
1.62652
1.61597
1.60501
1.59282
1.57778
1.55992
1.54156
1.524
1.51031
1.50247
1.49654
1.49607
1.49832
1.5118
1.55933
1.64388
1.72436
1.77024
1.79039
1.79144
1.78576
1.79584
1.83333
1.89994
1.97122
2.00908
2.03832
2.04654
2.04345
2.03548
2.01977
2.00584
1.99404
1.98449
1.97738
1.97199
1.96669
1.95938
1.95279
1.94622
1.93889
1.93269
1.92686
1
2.23654
2.70227
2.73302
2.72986
2.72601
2.71503
2.69934
2.6803
2.65822
2.63433
2.60923
2.58253
2.55382
2.52322
2.49192
2.46116
2.432
2.4045
2.37676
2.34629
2.3156
2.28609
2.26003
2.23618
2.21354
2.19128
2.16915
2.14618
2.12222
2.09867
2.07678
2.05651
2.03728
2.01819
1.99825
1.97636
1.95294
1.92981
1.90819
1.88789
1.86781
1.84711
1.82548
1.80266
1.78056
1.76175
1.7455
1.72966
1.71282
1.69543
1.67947
1.66126
1.64048
1.6231
1.60912
1.59609
1.58201
1.56623
1.55198
1.54207
1.53157
1.52049
1.51004
1.50102
1.49385
1.48501
1.48805
1.51049
1.58155
1.68211
1.75323
1.79874
1.86713
1.94076
1.99466
2.03508
2.06496
2.07316
2.06907
2.06127
2.0576
2.04866
2.03864
2.02964
2.02001
2.01044
2.00173
1.99508
1.9875
1.97856
1.9712
1.96447
1.95764
1.95249
1.94785
1
2.22811
2.69549
2.72282
2.72214
2.72027
2.71152
2.69823
2.68212
2.6633
2.64204
2.61805
2.5914
2.56307
2.53414
2.50541
2.47696
2.44846
2.41921
2.38897
2.3586
2.32888
2.30189
2.27904
2.25848
2.23474
2.21045
2.18502
2.15835
2.13225
2.10863
2.08772
2.06854
2.04982
2.03
2.00768
1.98257
1.95661
1.9327
1.91208
1.89375
1.87559
1.85541
1.83155
1.80522
1.78078
1.76119
1.74545
1.7316
1.71837
1.70357
1.68391
1.66135
1.64026
1.62253
1.60755
1.59423
1.5819
1.56957
1.55592
1.54209
1.53079
1.51987
1.51027
1.50123
1.49108
1.48061
1.47405
1.47267
1.48526
1.54441
1.67991
1.84932
1.98095
2.07071
2.14339
2.16496
2.1493
2.11799
2.08492
2.06967
2.05945
2.05142
2.04326
2.03558
2.02751
2.01925
2.01104
2.00563
1.99893
1.98904
1.98043
1.97252
1.96517
1.95982
1.955
)
;

boundaryField
{
    inlet
    {
        type            fixedValue;
        value           uniform 1;
    }
    outlet
    {
        type            inletOutlet;
        inletValue      uniform 1;
        value           nonuniform List<scalar> 
32
(
1.97196
1.96597
1.95329
1.9339
1.9
1.86098
1.82902
1.8058
1.79126
1.78476
1.77591
1.76124
1.74967
1.74214
1.72848
1.71266
1.70202
1.70976
1.76976
1.85679
1.88576
1.8913
1.8718
1.84739
1.8389
1.83785
1.84489
1.86378
1.89409
1.92737
1.94845
1.95563
)
;
    }
    bottom
    {
        type            symmetryPlane;
    }
    top
    {
        type            symmetryPlane;
    }
    obstacle
    {
        type            zeroGradient;
    }
    defaultFaces
    {
        type            empty;
    }
}


// ************************************************************************* //
