/*--------------------------------*- C++ -*----------------------------------*\
  =========                 |
  \\      /  F ield         | OpenFOAM: The Open Source CFD Toolbox
   \\    /   O peration     | Website:  https://openfoam.org
    \\  /    A nd           | Version:  7
     \\/     M anipulation  |
\*---------------------------------------------------------------------------*/
FoamFile
{
    version     2.0;
    format      ascii;
    class       volVectorField;
    location    "4";
    object      U;
}
// * * * * * * * * * * * * * * * * * * * * * * * * * * * * * * * * * * * * * //

dimensions      [0 1 -1 0 0 0 0];

internalField   nonuniform List<vector> 
4032
(
(3 -4.22101e-18 0)
(3 -8.19213e-17 0)
(3 -4.64182e-17 0)
(3 4.33353e-16 0)
(3 3.4667e-16 0)
(3 -3.21707e-16 0)
(3 -2.44278e-16 0)
(3 2.07422e-16 0)
(3 2.79869e-16 0)
(3 1.37092e-16 0)
(3 -7.86657e-17 0)
(2.91033 0.00314081 0)
(0.993353 0.0165834 0)
(0.708627 0.0194636 0)
(0.656061 0.0240467 0)
(0.595616 0.0255497 0)
(0.535869 0.0268375 0)
(0.47421 0.0282677 0)
(0.410513 0.0299662 0)
(0.34403 0.0319171 0)
(0.274591 0.0337785 0)
(0.201668 0.0360829 0)
(0.124627 0.0377832 0)
(0.0455757 0.0416384 0)
(3 -3.82115e-17 0)
(3 -1.1482e-16 0)
(3 -2.46382e-16 0)
(3 -2.67482e-16 0)
(3 -1.39476e-16 0)
(3 -4.30092e-16 0)
(3 -5.51975e-16 0)
(3 -5.93567e-16 0)
(3 -5.48559e-16 0)
(3 -2.29675e-16 0)
(3 7.28332e-16 0)
(2.92128 0.0206819 0)
(1.00129 0.0760262 0)
(0.696463 0.0676701 0)
(0.641934 0.0718579 0)
(0.582778 0.0765676 0)
(0.523475 0.0811867 0)
(0.461795 0.0861691 0)
(0.397769 0.0916351 0)
(0.331076 0.0976851 0)
(0.26195 0.103255 0)
(0.190528 0.110261 0)
(0.116081 0.115458 0)
(0.0419389 0.125671 0)
(3 2.42078e-16 0)
(3 4.03824e-16 0)
(3 1.74802e-16 0)
(3 -2.21638e-16 0)
(3 -7.10564e-16 0)
(3 -8.82305e-16 0)
(3 -9.92646e-16 0)
(3 -1.72906e-15 0)
(3 -1.50849e-15 0)
(3 -8.84126e-16 0)
(3 2.50611e-16 0)
(2.96452 0.0320285 0)
(1.04071 0.138467 0)
(0.713185 0.11621 0)
(0.65818 0.122803 0)
(0.597207 0.130627 0)
(0.536117 0.138546 0)
(0.472882 0.147109 0)
(0.407208 0.156229 0)
(0.338665 0.165999 0)
(0.267197 0.174343 0)
(0.193445 0.184519 0)
(0.116557 0.191264 0)
(0.0414916 0.204666 0)
(3 2.91621e-16 0)
(3 2.50527e-16 0)
(3 -9.6741e-17 0)
(3 -5.08559e-16 0)
(3 -1.10898e-15 0)
(3 -1.50764e-15 0)
(3 -1.55753e-15 0)
(3 -1.12865e-15 0)
(3 -4.67329e-16 0)
(3 -4.52688e-16 0)
(3 -6.99557e-16 0)
(3.00655 0.00492132 0)
(1.11793 0.182728 0)
(0.742638 0.154515 0)
(0.690431 0.168104 0)
(0.631527 0.18008 0)
(0.570972 0.191623 0)
(0.507844 0.204519 0)
(0.441152 0.218693 0)
(0.370015 0.234612 0)
(0.293676 0.248554 0)
(0.213846 0.264104 0)
(0.129325 0.273919 0)
(0.0454509 0.289429 0)
(3 -2.05256e-16 0)
(3 -8.54809e-16 0)
(3 -7.57332e-16 0)
(3 -9.75349e-16 0)
(3 -1.00595e-15 0)
(3 -1.62354e-15 0)
(3 -5.68588e-16 0)
(3 2.46793e-16 0)
(3 2.99309e-16 0)
(3 -3.44619e-17 0)
(3 -6.69763e-16 0)
(3.0004 2.04971e-05 0)
(1.23243 0.226432 0)
(0.749937 0.198974 0)
(0.69347 0.218145 0)
(0.638326 0.234536 0)
(0.580927 0.249556 0)
(0.52172 0.267042 0)
(0.45921 0.286655 0)
(0.392856 0.309122 0)
(0.319969 0.328544 0)
(0.241143 0.349682 0)
(0.150657 0.366055 0)
(0.0557899 0.388379 0)
(3 -8.29184e-17 0)
(3 -2.05906e-16 0)
(3 -8.63835e-18 0)
(3 -4.01235e-16 0)
(3 -4.07592e-16 0)
(3 -2.51756e-16 0)
(3 1.39038e-16 0)
(3 3.42529e-16 0)
(3 3.80118e-16 0)
(3 6.36253e-16 0)
(3 5.70988e-16 0)
(3 -7.37227e-08 0)
(1.41874 0.276585 0)
(0.766732 0.248966 0)
(0.694717 0.262829 0)
(0.645398 0.281193 0)
(0.595311 0.298709 0)
(0.545411 0.319928 0)
(0.491451 0.344621 0)
(0.431471 0.375524 0)
(0.358525 0.407452 0)
(0.272455 0.444197 0)
(0.170797 0.478038 0)
(0.0572901 0.509537 0)
(3 2.61533e-16 0)
(3 2.6854e-16 0)
(3 2.18913e-16 0)
(3 -1.2233e-16 0)
(3 -6.88503e-16 0)
(3 -5.97869e-16 0)
(3 -9.15757e-16 0)
(3 -1.52209e-15 0)
(3 -1.57981e-15 0)
(3 -3.96092e-16 0)
(3 8.91919e-16 0)
(3 -6.57006e-08 0)
(1.69925 0.327943 0)
(0.798336 0.314539 0)
(0.696073 0.311106 0)
(0.644689 0.326234 0)
(0.596341 0.343851 0)
(0.552636 0.368887 0)
(0.507047 0.400766 0)
(0.458902 0.443326 0)
(0.39992 0.491818 0)
(0.329654 0.543487 0)
(0.237435 0.594572 0)
(0.103004 0.655274 0)
(3 1.81601e-16 0)
(3 -3.32898e-17 0)
(3 -2.656e-16 0)
(3 -4.63039e-16 0)
(3 -7.14601e-16 0)
(3 -1.3409e-15 0)
(3 -1.07222e-15 0)
(3 -1.21205e-15 0)
(3 -1.28766e-15 0)
(3 -1.54799e-15 0)
(3 -2.93067e-16 0)
(3 -1.33012e-08 0)
(2.11205 0.365608 0)
(0.858365 0.400161 0)
(0.720041 0.372411 0)
(0.669361 0.380841 0)
(0.621136 0.393352 0)
(0.578942 0.416153 0)
(0.538978 0.450456 0)
(0.5008 0.498746 0)
(0.457543 0.559141 0)
(0.396126 0.64083 0)
(0.276773 0.756826 0)
(0.15233 0.921477 0)
(3 -2.06683e-16 0)
(3 -2.82241e-16 0)
(3 -4.57661e-16 0)
(3 -4.47856e-16 0)
(3 -1.95566e-16 0)
(3 -3.06062e-17 0)
(3 -4.83114e-16 0)
(3 -2.82783e-16 0)
(3 -2.43027e-16 0)
(3 -4.93499e-16 0)
(3 2.13176e-16 0)
(3 -1.31039e-09 0)
(2.70084 0.285595 0)
(0.998014 0.479579 0)
(0.808503 0.409426 0)
(0.755676 0.417588 0)
(0.696323 0.436086 0)
(0.643111 0.460336 0)
(0.59906 0.495447 0)
(0.561867 0.547155 0)
(0.528437 0.624231 0)
(0.496128 0.749457 0)
(0.465036 0.922352 0)
(0.576914 1.19938 0)
(3 -1.09227e-17 0)
(3 1.0416e-16 0)
(3 3.70613e-16 0)
(3 6.97652e-16 0)
(3 8.39431e-16 0)
(3 8.03611e-16 0)
(3 1.13713e-16 0)
(3 -3.55754e-16 0)
(3 -8.65833e-16 0)
(3 -8.71031e-16 0)
(3 -2.29326e-16 0)
(3 -4.73457e-11 0)
(3.07296 0.0357279 0)
(1.23251 0.470261 0)
(0.882955 0.450195 0)
(0.839605 0.479085 0)
(0.786075 0.494148 0)
(0.730933 0.513945 0)
(0.681757 0.545368 0)
(0.641401 0.595259 0)
(0.621738 0.679104 0)
(0.621513 0.814855 0)
(0.685245 0.96541 0)
(0.969244 1.13781 0)
(3 1.48664e-16 0)
(3 4.98217e-16 0)
(3 1.09775e-15 0)
(3 1.04126e-15 0)
(3 9.6284e-16 0)
(3 8.28506e-16 0)
(3 1.03086e-15 0)
(3 1.27216e-16 0)
(3 -6.4e-16 0)
(3 -2.43263e-16 0)
(3 -2.92627e-16 0)
(3 -8.16731e-13 0)
(3.00688 5.03947e-05 0)
(1.45891 0.463252 0)
(0.881823 0.514603 0)
(0.835492 0.534343 0)
(0.802006 0.554505 0)
(0.774328 0.578465 0)
(0.746065 0.608809 0)
(0.71991 0.649843 0)
(0.720857 0.721664 0)
(0.748364 0.835785 0)
(0.870635 0.960501 0)
(1.18005 1.06611 0)
(3 -3.04688e-16 0)
(3 -1.24564e-16 0)
(3 1.33651e-16 0)
(3 4.4181e-16 0)
(3 5.91099e-16 0)
(3 8.12397e-16 0)
(3 1.40471e-15 0)
(3 1.22567e-15 0)
(3 1.29591e-15 0)
(3 5.48291e-16 0)
(3 -3.03869e-16 0)
(3 -6.60109e-15 0)
(3.00004 -1.80966e-06 0)
(1.98772 0.493224 0)
(0.932564 0.580746 0)
(0.854193 0.561101 0)
(0.837269 0.584091 0)
(0.824049 0.611161 0)
(0.813561 0.645875 0)
(0.804291 0.683799 0)
(0.817148 0.74534 0)
(0.865801 0.835152 0)
(1.00923 0.937864 0)
(1.27519 1.00703 0)
(3 -2.41698e-16 0)
(3 -2.26823e-16 0)
(3 -6.57199e-17 0)
(3 5.76687e-16 0)
(3 8.91276e-16 0)
(3 1.09526e-15 0)
(3 7.80077e-16 0)
(3 4.55732e-16 0)
(3 1.13495e-15 0)
(3 7.85554e-16 0)
(3 1.66402e-17 0)
(3 -4.91758e-16 0)
(3 -2.15171e-06 0)
(2.79674 0.296705 0)
(1.10953 0.633294 0)
(0.926389 0.576725 0)
(0.899391 0.600895 0)
(0.882624 0.63272 0)
(0.878185 0.672159 0)
(0.883256 0.71325 0)
(0.904762 0.765601 0)
(0.967504 0.832261 0)
(1.10569 0.903737 0)
(1.31645 0.946098 0)
(3 2.82445e-16 0)
(3 1.48047e-16 0)
(3 3.44078e-16 0)
(3 1.90797e-16 0)
(3 3.73355e-16 0)
(3 6.02598e-16 0)
(3 4.71517e-16 0)
(3 2.60398e-16 0)
(3 9.9001e-16 0)
(3 1.24811e-15 0)
(3 1.13467e-15 0)
(3 1.08739e-15 0)
(3 -4.45596e-07 0)
(3.06991 0.0209191 0)
(1.44306 0.62446 0)
(0.998373 0.654302 0)
(0.949507 0.653923 0)
(0.927251 0.671178 0)
(0.928539 0.700406 0)
(0.946812 0.737072 0)
(0.981346 0.779308 0)
(1.05303 0.830232 0)
(1.17832 0.880204 0)
(1.34774 0.906427 0)
(3 -2.48987e-16 0)
(3 -2.57679e-17 0)
(3 -2.26125e-16 0)
(3 -5.07508e-16 0)
(3 -8.41457e-16 0)
(3 -1.01881e-15 0)
(3 -4.68416e-16 0)
(3 1.07485e-15 0)
(3 1.33988e-15 0)
(3 1.12278e-15 0)
(3 1.24295e-15 0)
(3 1.52891e-15 0)
(3 -4.3985e-08 0)
(3.00321 4.88464e-05 0)
(2.02092 0.596351 0)
(1.06137 0.723852 0)
(1.00885 0.698661 0)
(0.994355 0.696597 0)
(0.99358 0.714911 0)
(1.0117 0.744783 0)
(1.05193 0.782419 0)
(1.12326 0.821194 0)
(1.22997 0.85374 0)
(1.36416 0.868283 0)
(3 6.3162e-17 0)
(3 3.0392e-16 0)
(3 1.0423e-16 0)
(3 -8.80636e-18 0)
(3 -1.31562e-16 0)
(3 -2.96098e-16 0)
(3 3.82275e-18 0)
(3 2.4642e-16 0)
(3 -3.64091e-16 0)
(3 -8.3574e-16 0)
(3 -1.03128e-15 0)
(3 -2.14809e-17 0)
(3 -1.32983e-09 0)
(3.00001 -2.55887e-07 0)
(2.96256 0.203995 0)
(1.29191 0.693792 0)
(1.08233 0.71599 0)
(1.08593 0.719157 0)
(1.08152 0.739915 0)
(1.08869 0.765429 0)
(1.12049 0.792644 0)
(1.18359 0.823507 0)
(1.27281 0.845804 0)
(1.38422 0.853387 0)
(3 2.1008e-16 0)
(3 8.78806e-16 0)
(3 1.05504e-15 0)
(3 1.21695e-15 0)
(3 1.44796e-15 0)
(3 1.14765e-15 0)
(3 1.06066e-15 0)
(3 1.79154e-16 0)
(3 -2.10274e-16 0)
(3 -3.78703e-16 0)
(3 -4.46633e-16 0)
(3 8.33092e-17 0)
(3 -2.7805e-12 0)
(3 -5.0126e-07 0)
(3.03778 0.00500465 0)
(1.58707 0.657765 0)
(1.09978 0.75711 0)
(1.10898 0.764386 0)
(1.11571 0.782094 0)
(1.1392 0.795639 0)
(1.17587 0.808399 0)
(1.23291 0.821709 0)
(1.30823 0.833345 0)
(1.4049 0.835531 0)
(3 8.97776e-17 0)
(3 4.46717e-16 0)
(3 9.16846e-16 0)
(3 5.59941e-16 0)
(3 2.53922e-16 0)
(3 4.42129e-16 0)
(3 3.16116e-16 0)
(3 2.93046e-18 0)
(3 4.83814e-16 0)
(3 1.15906e-15 0)
(3 1.3529e-15 0)
(3 1.29496e-15 0)
(3 -2.5413e-15 0)
(3 -9.43972e-08 0)
(3.00067 2.62838e-05 0)
(2.42616 0.49637 0)
(1.21251 0.788066 0)
(1.13405 0.790806 0)
(1.1482 0.794103 0)
(1.17606 0.804737 0)
(1.21656 0.817256 0)
(1.27081 0.829219 0)
(1.33997 0.837057 0)
(1.42383 0.836397 0)
(3 1.7727e-16 0)
(3 1.11032e-18 0)
(3 7.95193e-17 0)
(3 -2.25664e-16 0)
(3 -2.99053e-17 0)
(3 -1.22762e-16 0)
(3 -5.23986e-17 0)
(3 -3.80282e-17 0)
(3 3.57286e-16 0)
(3 1.16505e-15 0)
(3 7.07095e-16 0)
(3 3.81797e-16 0)
(3 2.53502e-16 0)
(3 -2.95232e-09 0)
(3.00002 -7.97112e-06 0)
(3.06064 0.0649299 0)
(1.57914 0.775167 0)
(1.18467 0.787251 0)
(1.19934 0.79538 0)
(1.22055 0.807441 0)
(1.25767 0.818124 0)
(1.30639 0.827828 0)
(1.36914 0.832377 0)
(1.44273 0.830725 0)
(3 -9.31982e-17 0)
(3 -4.1306e-16 0)
(3 -1.54812e-15 0)
(3 -9.03329e-16 0)
(3 -3.93942e-16 0)
(3 -6.16369e-16 0)
(3 -7.30036e-16 0)
(3 -2.97507e-16 0)
(3 -6.69557e-17 0)
(3 -2.11869e-16 0)
(3 -7.0288e-16 0)
(3 -1.42793e-15 0)
(3 -1.21884e-15 0)
(3 -1.04391e-11 0)
(3 -1.99717e-06 0)
(3.00722 0.00125609 0)
(2.33715 0.616794 0)
(1.27375 0.852576 0)
(1.22565 0.837469 0)
(1.25549 0.834888 0)
(1.28802 0.838569 0)
(1.33319 0.842377 0)
(1.38987 0.842671 0)
(1.45496 0.839412 0)
(3 -1.06388e-16 0)
(3 -9.01369e-16 0)
(3 -6.67092e-16 0)
(3 -2.19684e-16 0)
(3 -6.45406e-16 0)
(3 -2.05386e-16 0)
(3 -4.38966e-16 0)
(3 6.13605e-18 0)
(3 -7.38656e-16 0)
(3 -8.50309e-16 0)
(3 -4.15499e-16 0)
(3 -6.65521e-16 0)
(3 -9.2e-16 0)
(3 -5.89813e-15 0)
(3 -1.70053e-07 0)
(3.00002 7.60784e-06 0)
(3.04596 0.104787 0)
(1.65147 0.828393 0)
(1.27261 0.836815 0)
(1.30412 0.836258 0)
(1.32805 0.839273 0)
(1.36775 0.839842 0)
(1.41714 0.838634 0)
(1.47442 0.835551 0)
(3 -2.07262e-17 0)
(3 7.83166e-17 0)
(3 5.32756e-16 0)
(3 9.10564e-16 0)
(3 8.46036e-16 0)
(3 5.94209e-16 0)
(3 4.23256e-16 0)
(3 4.52515e-16 0)
(3 1.09407e-16 0)
(3 -5.16363e-16 0)
(3 -5.23438e-16 0)
(3 3.90406e-16 0)
(3 4.14639e-16 0)
(3 1.91996e-16 0)
(3 -2.08457e-09 0)
(3 -1.11962e-07 0)
(3.00903 0.0032084 0)
(2.44863 0.612975 0)
(1.37286 0.893831 0)
(1.33012 0.877716 0)
(1.3608 0.868082 0)
(1.39356 0.86417 0)
(1.43571 0.859078 0)
(1.48501 0.85259 0)
(3 1.21841e-17 0)
(3 8.41363e-16 0)
(3 4.01208e-16 0)
(3 7.56818e-17 0)
(3 2.60284e-16 0)
(3 1.72879e-16 0)
(3 1.68397e-16 0)
(3 1.14622e-16 0)
(3 3.68658e-16 0)
(3 -6.56747e-16 0)
(3 -7.98048e-16 0)
(3 6.51702e-16 0)
(3 1.50987e-15 0)
(3 1.89374e-15 0)
(3 -4.81173e-12 0)
(3 -2.7548e-08 0)
(3.00004 3.48504e-05 0)
(3.04279 0.0857808 0)
(1.79484 0.826367 0)
(1.37012 0.886888 0)
(1.40847 0.87904 0)
(1.43418 0.871932 0)
(1.46851 0.862282 0)
(1.50848 0.852287 0)
(3 -1.43813e-17 0)
(3 -2.00048e-17 0)
(3 -5.82459e-17 0)
(3 -5.34991e-16 0)
(3 -5.99885e-16 0)
(3 -5.71532e-16 0)
(3 -4.11455e-16 0)
(3 -3.96381e-16 0)
(3 -8.07008e-16 0)
(3 -7.92821e-16 0)
(3 -2.38863e-16 0)
(3 -1.261e-16 0)
(3 -3.87611e-17 0)
(3 1.71461e-15 0)
(3 -9.1069e-16 0)
(3 -2.55844e-09 0)
(3 1.83202e-08 0)
(3.00481 0.00345631 0)
(2.65739 0.486392 0)
(1.54057 0.932406 0)
(1.42823 0.908732 0)
(1.46066 0.899138 0)
(1.49032 0.888527 0)
(1.52595 0.874296 0)
(3 -1.31629e-16 0)
(3 -4.3992e-16 0)
(3 -8.75103e-17 0)
(3 5.56045e-17 0)
(3 -2.83238e-16 0)
(3 -2.41811e-16 0)
(3 1.882e-16 0)
(3 2.57927e-17 0)
(3 -3.00194e-16 0)
(3 -3.18973e-16 0)
(3 -1.11508e-17 0)
(3 -7.13184e-16 0)
(3 -9.37545e-16 0)
(3 -5.28849e-17 0)
(3 3.32852e-16 0)
(3 -1.00172e-10 0)
(3 -9.83174e-11 0)
(3.00001 2.9815e-05 0)
(3.03033 0.0428023 0)
(2.06811 0.785851 0)
(1.48859 0.919399 0)
(1.49874 0.90976 0)
(1.52559 0.89641 0)
(1.55716 0.881385 0)
(3 -2.95304e-17 0)
(3 -7.99742e-18 0)
(3 5.30365e-17 0)
(3 1.05305e-16 0)
(3 2.10975e-16 0)
(3 3.43853e-16 0)
(3 5.33435e-17 0)
(3 1.15881e-16 0)
(3 1.50791e-16 0)
(3 2.18272e-16 0)
(3 -1.24945e-16 0)
(3 -4.93238e-16 0)
(3 -1.02379e-15 0)
(3 -9.60901e-16 0)
(3 -8.63994e-17 0)
(3 -8.62988e-13 0)
(3 -3.09151e-11 0)
(3 1.90707e-08 0)
(3.00113 0.00180348 0)
(2.87467 0.275334 0)
(1.7691 0.891754 0)
(1.51884 0.931767 0)
(1.55369 0.920319 0)
(1.58718 0.903295 0)
(3 3.05471e-16 0)
(3 3.42461e-16 0)
(3 2.22335e-16 0)
(3 1.55479e-16 0)
(3 3.83501e-16 0)
(3 -2.282e-16 0)
(3 -1.38413e-15 0)
(3 -1.39357e-15 0)
(3 -4.87188e-16 0)
(3 -3.84331e-16 0)
(3 5.17614e-18 0)
(3 -3.75034e-16 0)
(3 -6.77069e-16 0)
(3 -5.38742e-16 0)
(3 -4.70453e-16 0)
(3 -3.62411e-15 0)
(3 -4.03285e-12 0)
(3 -7.6189e-13 0)
(3 7.88689e-06 0)
(3.00828 0.0175935 0)
(2.46801 0.603651 0)
(1.63398 0.953605 0)
(1.56477 0.941336 0)
(1.59997 0.92634 0)
(3 -3.42196e-17 0)
(3 -3.35791e-17 0)
(3 -1.69738e-16 0)
(3 -1.32593e-16 0)
(3 -5.25559e-16 0)
(3 -4.19657e-16 0)
(3 -3.87627e-16 0)
(3 -3.50087e-16 0)
(3 1.03921e-16 0)
(3 1.85297e-16 0)
(3 3.36978e-16 0)
(3 -4.04538e-16 0)
(3 -1.24444e-15 0)
(3 -1.10718e-15 0)
(3 -1.59372e-15 0)
(3 -2.10209e-16 0)
(3 -2.35365e-13 0)
(3 -2.23403e-13 0)
(3 3.93854e-09 0)
(3.00003 0.000445214 0)
(2.99331 0.0916572 0)
(2.09524 0.796395 0)
(1.62386 0.945553 0)
(1.61963 0.942074 0)
(3 -3.03736e-16 0)
(3 -6.63622e-16 0)
(3 -7.92282e-16 0)
(3 -7.31101e-16 0)
(3 -2.94718e-16 0)
(3 7.53947e-16 0)
(3 8.09638e-16 0)
(3 6.79496e-16 0)
(3 3.71996e-16 0)
(3 7.37994e-16 0)
(3 6.4903e-16 0)
(3 -3.69731e-16 0)
(3 -1.79169e-15 0)
(3 -1.6653e-15 0)
(3 -1.69567e-15 0)
(3 -5.08708e-16 0)
(3 -3.21861e-15 0)
(3 -7.41158e-14 0)
(3 1.02562e-12 0)
(3 8.71759e-07 0)
(3.00095 0.00479252 0)
(2.82779 0.298669 0)
(1.89503 0.884473 0)
(1.65427 0.956558 0)
(3 -6.63437e-17 0)
(3 -3.31717e-16 0)
(3 -3.33434e-16 0)
(3 -9.04572e-17 0)
(3 3.81174e-16 0)
(3 -4.37795e-16 0)
(3 -4.96826e-16 0)
(3 -3.4726e-17 0)
(3 -1.02674e-16 0)
(3 -1.09446e-16 0)
(3 -4.79208e-16 0)
(3 -4.78291e-16 0)
(3 -6.22212e-16 0)
(3 -1.26361e-15 0)
(3 -1.10758e-15 0)
(3 -1.44014e-15 0)
(3 -1.12393e-15 0)
(3 -7.32843e-15 0)
(3 -1.13663e-14 0)
(3 4.95021e-10 0)
(2.99999 3.65225e-05 0)
(3.00084 0.0226685 0)
(2.54749 0.530279 0)
(1.8147 0.939221 0)
(3 2.77972e-16 0)
(3 -4.97886e-18 0)
(3 1.56776e-16 0)
(3 1.53317e-16 0)
(3 -8.56637e-18 0)
(3 -5.05413e-16 0)
(3 -5.83538e-17 0)
(3 -2.11966e-16 0)
(3 -3.74383e-16 0)
(3 -4.5391e-16 0)
(3 -5.3755e-16 0)
(3 -4.48828e-17 0)
(3 2.26232e-16 0)
(3 -4.84547e-16 0)
(3 3.26943e-17 0)
(3 -2.52673e-16 0)
(3 -1.81547e-16 0)
(3 -2.36269e-16 0)
(3 -4.76076e-15 0)
(3 8.62798e-14 0)
(3 3.3644e-08 0)
(2.99994 0.000588398 0)
(2.98245 0.06902 0)
(2.30392 0.704366 0)
(3 -1.83948e-16 0)
(3 5.83894e-16 0)
(3 1.03488e-15 0)
(3 7.18028e-16 0)
(3 7.70611e-16 0)
(3 1.92432e-15 0)
(3 1.62602e-15 0)
(3 8.86273e-16 0)
(3 8.57081e-16 0)
(3 7.98488e-16 0)
(3 4.30526e-16 0)
(3 -1.3015e-16 0)
(3 2.75609e-16 0)
(3 7.5781e-16 0)
(3 3.32594e-16 0)
(3 9.0133e-16 0)
(3 1.35843e-15 0)
(3 1.20989e-15 0)
(3 -7.0362e-16 0)
(3 -1.78642e-15 0)
(3 1.59925e-11 0)
(3 1.36709e-06 0)
(2.9999 0.00313254 0)
(2.89147 0.184013 0)
(3 -2.0517e-16 0)
(3 2.69695e-16 0)
(3 7.44644e-16 0)
(3 8.03307e-16 0)
(3 4.88675e-16 0)
(3 2.97093e-16 0)
(3 1.23532e-16 0)
(3 1.29914e-16 0)
(3 2.39817e-16 0)
(3 9.2097e-17 0)
(3 -3.68618e-17 0)
(3 2.06763e-16 0)
(3 1.16249e-15 0)
(3 1.59656e-15 0)
(3 9.11216e-16 0)
(3 1.12648e-16 0)
(3 -7.80796e-17 0)
(3 -3.38857e-16 0)
(3 -3.62382e-16 0)
(3 -9.69751e-16 0)
(3 1.03085e-16 0)
(3 1.21875e-09 0)
(3 1.60421e-05 0)
(2.99676 0.0122254 0)
(3 -7.39371e-17 0)
(3 -5.88903e-16 0)
(3 -4.19209e-16 0)
(3 -1.02532e-16 0)
(3 5.82104e-16 0)
(3 4.88482e-16 0)
(3 2.23131e-16 0)
(3 -5.24937e-16 0)
(3 -1.64417e-15 0)
(3 -1.88852e-15 0)
(3 -1.45967e-15 0)
(3 3.69547e-17 0)
(3 1.02412e-15 0)
(3 8.93609e-16 0)
(3 5.99431e-16 0)
(3 1.03509e-16 0)
(3 -4.13147e-16 0)
(3 -3.2601e-16 0)
(3 -4.10246e-16 0)
(3 -6.24239e-16 0)
(3 -1.35884e-15 0)
(3 1.54463e-13 0)
(3 2.66449e-08 0)
(2.99998 8.99768e-05 0)
(3 -6.42297e-18 0)
(3 -5.29726e-16 0)
(3 -6.05812e-16 0)
(3 4.0082e-17 0)
(3 3.64906e-16 0)
(3 4.61499e-17 0)
(3 7.86321e-17 0)
(3 -8.27226e-17 0)
(3 -5.39131e-16 0)
(3 -1.28772e-15 0)
(3 -1.23975e-15 0)
(3 -6.28115e-16 0)
(3 -1.66305e-16 0)
(3 2.87889e-16 0)
(3 8.55002e-16 0)
(3 1.16711e-15 0)
(3 5.86737e-16 0)
(3 -1.21957e-16 0)
(3 -6.02259e-16 0)
(3 -9.14576e-16 0)
(3 -4.36997e-16 0)
(3 7.32215e-16 0)
(3 9.793e-12 0)
(3 1.31505e-07 0)
(3 5.76924e-17 0)
(3 1.76677e-16 0)
(3 -1.11742e-16 0)
(3 -3.60696e-16 0)
(3 -3.32405e-16 0)
(3 -4.66258e-16 0)
(3 -5.97807e-16 0)
(3 -3.48816e-16 0)
(3 5.73074e-16 0)
(3 2.30814e-16 0)
(3 1.23096e-16 0)
(3 -3.14254e-16 0)
(3 -7.85853e-16 0)
(3 2.71552e-16 0)
(3 -1.91527e-16 0)
(3 -2.13112e-17 0)
(3 -5.71396e-16 0)
(3 -4.39279e-16 0)
(3 -2.06035e-16 0)
(3 -5.79319e-17 0)
(3 6.39979e-16 0)
(3 4.74947e-16 0)
(3 1.22257e-15 0)
(3 4.35053e-11 0)
(3 2.25329e-16 0)
(3 1.15994e-15 0)
(3 9.436e-16 0)
(3 3.0401e-16 0)
(3 2.06266e-17 0)
(3 5.1202e-17 0)
(3 2.03092e-16 0)
(3 3.6298e-16 0)
(3 5.11185e-16 0)
(3 2.87467e-16 0)
(3 -2.97991e-16 0)
(3 -7.67465e-16 0)
(3 -9.21652e-16 0)
(3 -9.88065e-16 0)
(3 -7.42423e-16 0)
(3 -6.71616e-16 0)
(3 -7.70445e-16 0)
(3 -3.33807e-16 0)
(3 2.37699e-16 0)
(3 1.48795e-15 0)
(3 1.61477e-15 0)
(3 1.51189e-15 0)
(3 -1.263e-16 0)
(3 4.1233e-15 0)
(3 1.55508e-16 0)
(3 7.45386e-16 0)
(3 6.96643e-16 0)
(3 5.20588e-16 0)
(3 -4.28268e-16 0)
(3 -9.87187e-16 0)
(3 -6.22967e-16 0)
(3 -2.61382e-16 0)
(3 -6.21364e-16 0)
(3 -6.58813e-16 0)
(3 -9.54343e-16 0)
(3 -9.55453e-16 0)
(3 -4.37476e-16 0)
(3 -5.4738e-16 0)
(3 -6.95896e-16 0)
(3 -6.192e-16 0)
(3 -1.92166e-16 0)
(3 1.81303e-16 0)
(3 3.79812e-16 0)
(3 3.75402e-16 0)
(3 6.28871e-16 0)
(3 7.66873e-16 0)
(3 -4.85925e-17 0)
(3 7.25836e-16 0)
(3 -2.28088e-17 0)
(3 -2.03887e-16 0)
(3 2.78952e-16 0)
(3 2.97577e-17 0)
(3 1.16257e-16 0)
(3 -5.52068e-17 0)
(3 -4.18863e-16 0)
(3 -2.4446e-16 0)
(3 -4.71254e-16 0)
(3 -9.08483e-16 0)
(3 -1.24202e-15 0)
(3 -1.71267e-15 0)
(3 -1.28701e-15 0)
(3 -2.93667e-16 0)
(3 2.72502e-16 0)
(3 1.4037e-16 0)
(3 8.05232e-16 0)
(3 8.49065e-16 0)
(3 6.548e-16 0)
(3 -2.42213e-16 0)
(3 -7.34715e-16 0)
(3 -1.20635e-15 0)
(3 -9.79051e-16 0)
(3 -7.31771e-16 0)
(3 3.43227e-18 0)
(3 -4.31601e-16 0)
(3 -3.23073e-17 0)
(3 8.2782e-17 0)
(3 4.4031e-16 0)
(3 5.97885e-16 0)
(3 4.07071e-16 0)
(3 3.91556e-16 0)
(3 7.94776e-17 0)
(3 -6.70894e-16 0)
(3 -1.14988e-15 0)
(3 -1.61694e-15 0)
(3 -2.02667e-15 0)
(3 -1.01078e-15 0)
(3 1.48673e-16 0)
(3 1.62246e-16 0)
(3 4.88228e-16 0)
(3 2.55776e-16 0)
(3 3.65519e-16 0)
(3 2.55212e-16 0)
(3 -8.06662e-17 0)
(3 -5.55032e-16 0)
(3 -9.2674e-16 0)
(3 -9.9254e-16 0)
(1.53158 1.23852 0)
(1.86788 1.4657 0)
(2.19755 1.2837 0)
(2.50638 0.682533 0)
(2.60307 0.352296 0)
(2.62621 0.0586397 0)
(2.55996 -0.196141 0)
(2.5274 -0.30067 0)
(2.44741 -0.381711 0)
(2.44492 -0.414664 0)
(2.4325 -0.318831 0)
(2.40637 -0.185808 0)
(2.4051 -0.108534 0)
(2.3929 -0.0900009 0)
(2.37457 -0.100159 0)
(2.3994 -0.0944578 0)
(2.40513 -0.0728662 0)
(2.39878 -0.0493087 0)
(2.37079 -0.0279482 0)
(2.37048 -0.0252315 0)
(2.38212 -0.0181949 0)
(2.39719 -0.00711888 0)
(2.4071 -0.00381814 0)
(2.39568 -0.00675974 0)
(2.38911 -0.0122007 0)
(2.38845 -0.0133037 0)
(2.3904 -0.0124682 0)
(1.37989 0.0236393 0)
(0.798793 0.0335938 0)
(0.699074 0.0267811 0)
(0.685146 0.00828136 0)
(0.694555 -0.00856789 0)
(0.719737 -0.0216967 0)
(0.755094 -0.0309625 0)
(0.795706 -0.0361499 0)
(0.838401 -0.0374369 0)
(0.878147 -0.0344256 0)
(0.913565 -0.0286038 0)
(0.948172 -0.0235545 0)
(0.985119 -0.0213665 0)
(1.02421 -0.0216895 0)
(1.06106 -0.0238778 0)
(1.09204 -0.0248663 0)
(1.11868 -0.0234427 0)
(1.14417 -0.0205176 0)
(1.17252 -0.0182981 0)
(1.20802 -0.0181858 0)
(1.25141 -0.0192102 0)
(1.29342 -0.0198691 0)
(1.32304 -0.0190262 0)
(1.3446 -0.0162286 0)
(1.36386 -0.00967359 0)
(1.38401 -0.00517707 0)
(1.40902 -0.00293389 0)
(1.44354 -0.00326402 0)
(1.47574 -0.00829361 0)
(1.49695 -0.0123491 0)
(1.51687 -0.012655 0)
(1.534 -0.00960928 0)
(1.55054 -0.00480534 0)
(1.57015 -0.00247211 0)
(1.59506 -0.00143876 0)
(1.62817 -0.00287534 0)
(1.65342 -0.00579285 0)
(1.67376 -0.00615105 0)
(1.69293 -0.00471356 0)
(1.70796 -0.00133953 0)
(1.72292 0.00225112 0)
(1.74045 0.0033781 0)
(1.76026 0.00320716 0)
(1.78394 0.00183076 0)
(1.80416 0.000467051 0)
(1.82313 0.000448509 0)
(1.84066 0.0013535 0)
(1.85464 0.00301429 0)
(1.86698 0.00453566 0)
(1.88259 0.00486118 0)
(1.90019 0.00475973 0)
(1.91948 0.003914 0)
(1.93876 0.00217004 0)
(1.95716 0.00191101 0)
(1.97464 0.00242302 0)
(1.98692 0.00410371 0)
(1.99503 0.00633473 0)
(2.00549 0.00780178 0)
(2.02101 0.00809096 0)
(2.03752 0.00812757 0)
(2.0558 0.00714166 0)
(2.07303 0.00505475 0)
(2.08926 0.00431095 0)
(2.10091 0.0044652 0)
(2.10322 0.00614747 0)
(2.10652 0.00805958 0)
(2.11928 0.00825706 0)
(2.13291 0.00790551 0)
(2.15677 0.00750172 0)
(1.78322 1.05987 0)
(2.25086 0.898353 0)
(2.50624 0.48651 0)
(2.67169 -0.0316835 0)
(2.70849 -0.224957 0)
(2.69938 -0.456514 0)
(2.69702 -0.516297 0)
(2.71429 -0.621123 0)
(2.74384 -0.638245 0)
(2.69127 -0.578131 0)
(2.59627 -0.468694 0)
(2.49339 -0.30621 0)
(2.45932 -0.184686 0)
(2.47234 -0.103918 0)
(2.47797 -0.0657073 0)
(2.48423 -0.0552656 0)
(2.45097 -0.0360382 0)
(2.43721 -0.0233222 0)
(2.41605 -0.00268847 0)
(2.40535 -0.00717637 0)
(2.40205 -0.00183474 0)
(2.41596 0.00493644 0)
(2.42426 -0.00320156 0)
(2.42029 -0.0113236 0)
(2.41847 -0.0212542 0)
(2.41866 -0.0223402 0)
(2.41694 -0.0159012 0)
(1.49668 0.14502 0)
(0.811284 0.11487 0)
(0.75003 0.0387929 0)
(0.767288 -0.0140875 0)
(0.798958 -0.039546 0)
(0.831222 -0.0445704 0)
(0.861639 -0.0453017 0)
(0.894301 -0.0509418 0)
(0.931747 -0.0584983 0)
(0.971705 -0.0584497 0)
(1.00831 -0.0460966 0)
(1.0375 -0.0261889 0)
(1.06359 -0.0105286 0)
(1.08897 -0.0079488 0)
(1.11734 -0.0161538 0)
(1.15046 -0.0288908 0)
(1.18466 -0.0354737 0)
(1.21458 -0.0307834 0)
(1.23992 -0.0179786 0)
(1.26573 -0.00695502 0)
(1.29326 -0.00644389 0)
(1.32663 -0.0173688 0)
(1.36216 -0.030058 0)
(1.38961 -0.0314269 0)
(1.4105 -0.024191 0)
(1.42985 -0.00744448 0)
(1.45001 0.0083872 0)
(1.46885 0.012577 0)
(1.48946 0.00390828 0)
(1.51619 -0.013014 0)
(1.54165 -0.0248382 0)
(1.56272 -0.0273738 0)
(1.58257 -0.0213503 0)
(1.60307 -0.00643036 0)
(1.62436 0.00699088 0)
(1.64402 0.010004 0)
(1.66385 0.00431738 0)
(1.68774 -0.00584062 0)
(1.70828 -0.0100537 0)
(1.72701 -0.00865495 0)
(1.74449 -0.000304047 0)
(1.75948 0.00993468 0)
(1.77491 0.0154065 0)
(1.79168 0.0142908 0)
(1.81109 0.00699724 0)
(1.83237 0.000215598 0)
(1.85096 -0.00165403 0)
(1.86912 0.000404472 0)
(1.8842 0.00830253 0)
(1.89515 0.0175864 0)
(1.90677 0.0209409 0)
(1.92298 0.0193313 0)
(1.94216 0.0137691 0)
(1.96175 0.00571357 0)
(1.97844 -4.38643e-05 0)
(1.99484 -0.00148804 0)
(2.00883 0.00409402 0)
(2.01966 0.0153894 0)
(2.02836 0.025257 0)
(2.03973 0.0278937 0)
(2.05539 0.0256766 0)
(2.07261 0.0208601 0)
(2.08913 0.0122354 0)
(2.10333 0.0037325 0)
(2.11413 0.00277158 0)
(2.12245 0.0117094 0)
(2.13026 0.0225164 0)
(2.1398 0.0265991 0)
(2.16139 0.0244178 0)
(1.66683 1.04551 0)
(2.06389 0.881688 0)
(2.34421 0.616842 0)
(2.51121 0.314782 0)
(2.5938 0.176981 0)
(2.64248 0.0896538 0)
(2.70206 -0.107454 0)
(2.72947 -0.283539 0)
(2.75882 -0.372435 0)
(2.78492 -0.430136 0)
(2.78409 -0.442444 0)
(2.72468 -0.474157 0)
(2.65591 -0.419952 0)
(2.65811 -0.338819 0)
(2.68877 -0.304101 0)
(2.6986 -0.268733 0)
(2.61594 -0.176117 0)
(2.54812 -0.12033 0)
(2.51378 -0.0788042 0)
(2.49243 -0.0715924 0)
(2.46937 -0.0314043 0)
(2.47326 -0.00203841 0)
(2.48314 0.0145564 0)
(2.48755 0.00530399 0)
(2.48279 -0.0107503 0)
(2.47792 -0.0133395 0)
(2.46877 -0.00303651 0)
(1.90069 0.204178 0)
(0.968833 0.119363 0)
(0.908742 5.21001e-05 0)
(0.987053 -0.059844 0)
(1.04205 -0.0685585 0)
(1.0764 -0.0710762 0)
(1.09797 -0.0717531 0)
(1.1121 -0.0709243 0)
(1.12881 -0.0727222 0)
(1.15551 -0.0777367 0)
(1.19039 -0.0819359 0)
(1.22478 -0.0780269 0)
(1.24658 -0.0657051 0)
(1.26111 -0.0508203 0)
(1.27545 -0.0412253 0)
(1.29242 -0.042399 0)
(1.3172 -0.0528383 0)
(1.34904 -0.0637776 0)
(1.37804 -0.0654089 0)
(1.39734 -0.0585548 0)
(1.41529 -0.0445834 0)
(1.43539 -0.0319407 0)
(1.45484 -0.0296875 0)
(1.47724 -0.0354044 0)
(1.50177 -0.0383483 0)
(1.52347 -0.034001 0)
(1.54213 -0.0242095 0)
(1.55547 -0.0092993 0)
(1.566 0.00351997 0)
(1.58203 0.00532522 0)
(1.59978 -0.00367459 0)
(1.62387 -0.0172526 0)
(1.64991 -0.0232389 0)
(1.6704 -0.0214748 0)
(1.68906 -0.0169241 0)
(1.7042 -0.00679218 0)
(1.7171 0.00327261 0)
(1.73277 0.00595755 0)
(1.75049 0.0031753 0)
(1.77073 -0.00165864 0)
(1.78974 -0.00330182 0)
(1.8073 -0.000541728 0)
(1.82231 0.00796953 0)
(1.83199 0.0171299 0)
(1.84434 0.020001 0)
(1.86029 0.016857 0)
(1.87918 0.00891443 0)
(1.89765 0.00394544 0)
(1.91426 0.00372062 0)
(1.93024 0.00940007 0)
(1.94179 0.0217241 0)
(1.94818 0.0328762 0)
(1.95755 0.0343867 0)
(1.97249 0.0293582 0)
(1.99009 0.0220518 0)
(2.01027 0.0149212 0)
(2.02681 0.012649 0)
(2.0427 0.0150411 0)
(2.05592 0.0242984 0)
(2.06369 0.0366109 0)
(2.06913 0.0427168 0)
(2.0795 0.0389833 0)
(2.09283 0.031596 0)
(2.10851 0.0246471 0)
(2.12483 0.0181312 0)
(2.14004 0.0165695 0)
(2.15454 0.0210621 0)
(2.16407 0.0320256 0)
(2.17555 0.0395286 0)
(1.60774 0.985028 0)
(1.89994 0.887398 0)
(2.13315 0.740558 0)
(2.34304 0.502926 0)
(2.47221 0.271729 0)
(2.56112 0.16238 0)
(2.61987 0.0852877 0)
(2.66687 -0.0966931 0)
(2.71516 -0.263316 0)
(2.71679 -0.361713 0)
(2.76128 -0.414737 0)
(2.80045 -0.481042 0)
(2.7748 -0.501396 0)
(2.74443 -0.475236 0)
(2.74727 -0.451562 0)
(2.73854 -0.421196 0)
(2.69141 -0.346006 0)
(2.64956 -0.295275 0)
(2.62893 -0.2463 0)
(2.61086 -0.201248 0)
(2.56573 -0.125272 0)
(2.55944 -0.0859462 0)
(2.55502 -0.0377328 0)
(2.55501 -0.0345689 0)
(2.53482 -0.0235457 0)
(2.52759 -0.00886566 0)
(2.50491 -0.0379375 0)
(2.38822 -0.155805 0)
(1.30732 0.0682037 0)
(1.15808 0.041282 0)
(1.24323 -0.0370071 0)
(1.30949 -0.0974733 0)
(1.33672 -0.107662 0)
(1.34901 -0.102588 0)
(1.35198 -0.0907198 0)
(1.35203 -0.0732219 0)
(1.36365 -0.0646814 0)
(1.38483 -0.0608712 0)
(1.41636 -0.0628864 0)
(1.44272 -0.0641351 0)
(1.45704 -0.0598128 0)
(1.465 -0.0468026 0)
(1.46992 -0.0317887 0)
(1.48315 -0.0263357 0)
(1.50227 -0.0285399 0)
(1.52901 -0.0384422 0)
(1.5502 -0.0450004 0)
(1.56454 -0.0443579 0)
(1.57684 -0.0359613 0)
(1.58375 -0.0203578 0)
(1.59629 -0.0101822 0)
(1.61374 -0.00899323 0)
(1.63436 -0.0134928 0)
(1.65227 -0.0197694 0)
(1.66824 -0.0234312 0)
(1.68104 -0.01979 0)
(1.68857 -0.00763442 0)
(1.701 0.00213469 0)
(1.7174 0.00556779 0)
(1.73843 0.00332184 0)
(1.75746 -0.00358622 0)
(1.77327 -0.00930087 0)
(1.78794 -0.0119679 0)
(1.80071 -0.00753983 0)
(1.81041 0.00354376 0)
(1.8218 0.0136771 0)
(1.83746 0.0177797 0)
(1.85483 0.0176976 0)
(1.87172 0.0153372 0)
(1.88683 0.0135975 0)
(1.89872 0.0163153 0)
(1.90641 0.0235598 0)
(1.91447 0.0291154 0)
(1.92821 0.0299742 0)
(1.94365 0.0270658 0)
(1.95969 0.0206206 0)
(1.97448 0.0152814 0)
(1.98762 0.012942 0)
(1.99741 0.0166062 0)
(2.00346 0.026247 0)
(2.01139 0.0359011 0)
(2.0255 0.0406129 0)
(2.04037 0.0409518 0)
(2.05666 0.0374191 0)
(2.07256 0.0330125 0)
(2.08736 0.0306244 0)
(2.09857 0.0314042 0)
(2.10316 0.0368949 0)
(2.10519 0.0426762 0)
(2.11522 0.0453329 0)
(2.13061 0.0464301 0)
(2.1454 0.0456881 0)
(2.16183 0.0419658 0)
(2.17695 0.0381766 0)
(2.18933 0.0374621 0)
(2.20231 0.0429891 0)
(1.56162 0.92743 0)
(1.80914 0.83539 0)
(1.99755 0.743802 0)
(2.1387 0.639264 0)
(2.31156 0.457665 0)
(2.44328 0.265298 0)
(2.5178 0.138826 0)
(2.54943 0.102347 0)
(2.56959 0.0125678 0)
(2.63571 -0.12968 0)
(2.65919 -0.213585 0)
(2.7062 -0.240282 0)
(2.73675 -0.29514 0)
(2.71861 -0.385965 0)
(2.70086 -0.412877 0)
(2.70232 -0.403019 0)
(2.7058 -0.395231 0)
(2.70207 -0.405886 0)
(2.69855 -0.394444 0)
(2.68932 -0.338259 0)
(2.65598 -0.243469 0)
(2.63799 -0.190148 0)
(2.61562 -0.127308 0)
(2.60456 -0.119132 0)
(2.60286 -0.0669582 0)
(2.5649 -0.078845 0)
(2.46549 -0.176414 0)
(2.25191 -0.54055 0)
(1.73637 -0.266415 0)
(1.36182 -0.0728666 0)
(1.38502 -0.0268854 0)
(1.45609 -0.0530697 0)
(1.49245 -0.101298 0)
(1.5097 -0.113187 0)
(1.51282 -0.104254 0)
(1.50728 -0.0814778 0)
(1.5063 -0.0624018 0)
(1.5195 -0.059563 0)
(1.54018 -0.0614005 0)
(1.56939 -0.0679228 0)
(1.58915 -0.0700168 0)
(1.60045 -0.0658 0)
(1.60595 -0.0539061 0)
(1.60863 -0.041311 0)
(1.62141 -0.0380841 0)
(1.63787 -0.0390238 0)
(1.65854 -0.0431126 0)
(1.67395 -0.044459 0)
(1.6859 -0.0418942 0)
(1.69476 -0.0327372 0)
(1.69919 -0.0197909 0)
(1.71017 -0.0141397 0)
(1.72683 -0.0142405 0)
(1.74341 -0.0153649 0)
(1.75926 -0.0156141 0)
(1.77351 -0.0144449 0)
(1.78446 -0.0093746 0)
(1.79226 -0.00154146 0)
(1.80513 0.00165463 0)
(1.82129 0.000856481 0)
(1.83629 -0.00219714 0)
(1.84994 -0.00428669 0)
(1.86364 -0.00374578 0)
(1.87683 -0.000316798 0)
(1.88749 0.00712896 0)
(1.89519 0.01544 0)
(1.9051 0.0197692 0)
(1.91927 0.02173 0)
(1.93453 0.0227763 0)
(1.94925 0.0233541 0)
(1.96234 0.024434 0)
(1.97218 0.027792 0)
(1.97882 0.0335351 0)
(1.98667 0.037361 0)
(1.99805 0.0377298 0)
(2.01103 0.0361285 0)
(2.02429 0.033215 0)
(2.03721 0.0300298 0)
(2.04914 0.0289256 0)
(2.05912 0.0328563 0)
(2.06665 0.0423273 0)
(2.07381 0.0514192 0)
(2.08431 0.0554192 0)
(2.09766 0.0556211 0)
(2.11177 0.0531362 0)
(2.12519 0.0480942 0)
(2.13611 0.0418788 0)
(2.14342 0.0388881 0)
(2.1491 0.0429248 0)
(2.15678 0.0515168 0)