/*--------------------------------*- C++ -*----------------------------------*\
  =========                 |
  \\      /  F ield         | OpenFOAM: The Open Source CFD Toolbox
   \\    /   O peration     | Website:  https://openfoam.org
    \\  /    A nd           | Version:  7
     \\/     M anipulation  |
\*---------------------------------------------------------------------------*/
FoamFile
{
    version     2.0;
    format      ascii;
    class       volScalarField;
    location    "130";
    object      p;
}
// * * * * * * * * * * * * * * * * * * * * * * * * * * * * * * * * * * * * * //

dimensions      [0 2 -2 0 0 0 0];

internalField   nonuniform List<scalar> 
1987
(
-0.312646
-0.320525
-0.32916
-0.336284
-0.198325
-0.19359
-0.186625
-0.177573
-0.166686
-0.154301
-0.140803
-0.126592
-0.112054
-0.0975371
-0.0833315
-0.0696662
-0.0567075
-0.0445637
-0.0332931
-0.0229133
-0.0134134
-0.00476407
0.00307121
0.0101242
0.0164147
0.0219491
0.0267119
0.0306468
0.0336497
0.0356233
0.0365581
0.036546
0.0352927
0.0333355
0.0305088
0.0267136
0.0218785
0.0159781
0.00899818
0.00083308
-0.00885031
-0.0207014
-0.0355058
-0.0535983
-0.0743226
-0.09589
-0.115207
-0.128026
-0.131587
-0.123851
-0.109166
-0.0907942
-0.0720065
-0.0548205
-0.0400341
-0.0276912
-0.0175115
-0.00915396
-0.00231137
0.00326736
-0.185688
-0.180972
-0.174292
-0.165769
-0.155614
-0.144114
-0.131595
-0.118402
-0.10487
-0.0913036
-0.0779636
-0.0650599
-0.0527488
-0.041137
-0.030287
-0.0202258
-0.0109536
-0.00245275
0.00530184
0.0123347
0.0186666
0.0243119
0.0292574
0.0334278
0.0366745
0.0388346
0.0398133
0.0397979
0.0389319
0.0371217
0.0344141
0.0307599
0.02611
0.0204529
0.0137822
0.00599274
-0.00325801
-0.0146328
-0.0289128
-0.0464436
-0.0666594
-0.0878077
-0.106593
-0.118787
-0.121575
-0.114713
-0.10076
-0.0834156
-0.0657769
-0.0496591
-0.0357491
-0.0240664
-0.0143611
-0.00633435
0.000292729
0.00575619
-0.173486
-0.16887
-0.162533
-0.154569
-0.145147
-0.134504
-0.122915
-0.110677
-0.0980788
-0.0853927
-0.0728542
-0.0606573
-0.0489511
-0.0378417
-0.0273963
-0.0176499
-0.00861235
-0.000276628
0.00737326
0.0143547
0.0206844
0.0263752
0.0314148
0.0357246
0.0391468
0.0415078
0.0427185
0.0428551
0.04199
0.0402078
0.0375647
0.0340236
0.0295355
0.0240807
0.0176515
0.0101593
0.00129103
-0.00957336
-0.023158
-0.0397776
-0.0588833
-0.0787823
-0.0964527
-0.108238
-0.111247
-0.105008
-0.0920544
-0.075924
-0.0595002
-0.0444551
-0.0314138
-0.0203953
-0.0111794
-0.0035027
0.00288485
0.00819812
-0.162105
-0.157588
-0.151557
-0.144083
-0.135307
-0.125425
-0.114671
-0.103297
-0.091558
-0.0796907
-0.0679071
-0.0563848
-0.0452639
-0.0346478
-0.0246062
-0.0151798
-0.00638661
0.00177148
0.00930215
0.0162156
0.0225216
0.0282266
0.0333177
0.0377266
0.0413133
0.0439105
0.0453814
0.0456892
0.0449481
0.0432603
0.0406989
0.0372641
0.0329279
0.0276754
0.0215016
0.0143269
0.00585468
-0.00449632
-0.0173781
-0.0330442
-0.0509804
-0.0697177
-0.0865945
-0.0980326
-0.100963
-0.0951906
-0.0831722
-0.0682438
-0.0530667
-0.0391366
-0.0270017
-0.0166778
-0.00797498
-0.000667339
0.00546119
0.0106007
0.000771512
-0.011425
-0.0261934
-0.0431039
-0.0608709
-0.0769187
-0.0876784
-0.0904165
-0.0850856
-0.0740439
-0.0603944
-0.0465279
-0.0337547
-0.0225542
-0.0129469
-0.0047765
0.00214416
0.00799537
0.0129406
-0.32635
-0.336721
-0.347036
-0.355011
-0.358503
-0.35571
-0.345445
-0.327345
-0.302165
-0.271874
-0.239323
-0.207536
-0.179
-0.155251
-0.136873
-0.123774
-0.115517
-0.11157
-0.111473
-0.11496
-0.122051
-0.132987
-0.147843
-0.165899
-0.185181
-0.202599
-0.214728
-0.218816
-0.2137
-0.20019
-0.180806
-0.158863
-0.137385
-0.11842
-0.102942
-0.0911442
-0.0828279
-0.077688
-0.0754543
-0.0759591
-0.0792349
-0.0856085
-0.0955767
-0.109291
-0.125866
-0.143044
-0.157588
-0.166257
-0.166913
-0.159497
-0.145801
-0.128862
-0.11166
-0.096269
-0.0837222
-0.0743214
-0.0679761
-0.0644729
-0.0637285
-0.065934
-0.33844
-0.351046
-0.362751
-0.371403
-0.374992
-0.371834
-0.360766
-0.34145
-0.314698
-0.282592
-0.248137
-0.214507
-0.184282
-0.159025
-0.139303
-0.124982
-0.11558
-0.110532
-0.109342
-0.111704
-0.117589
-0.127198
-0.140634
-0.157298
-0.175401
-0.192037
-0.203902
-0.208293
-0.203961
-0.191634
-0.173637
-0.153094
-0.132893
-0.115024
-0.100468
-0.0894523
-0.0818193
-0.077304
-0.0756684
-0.0767734
-0.080687
-0.0877805
-0.0985876
-0.113259
-0.130855
-0.149012
-0.164348
-0.173471
-0.174128
-0.166249
-0.151697
-0.133682
-0.11537
-0.0989557
-0.0855166
-0.0753423
-0.0683107
-0.0641693
-0.0627852
-0.0642953
-0.348761
-0.363243
-0.376092
-0.38529
-0.388941
-0.385491
-0.373761
-0.353427
-0.325336
-0.291667
-0.255564
-0.220331
-0.188626
-0.16203
-0.141091
-0.125642
-0.115162
-0.109053
-0.106795
-0.108045
-0.112723
-0.120991
-0.132973
-0.148191
-0.165052
-0.180849
-0.192419
-0.197113
-0.193606
-0.182512
-0.165955
-0.146862
-0.127983
-0.111251
-0.0976473
-0.0874341
-0.0804979
-0.0766138
-0.0755761
-0.0772745
-0.0818111
-0.0896001
-0.10121
-0.116797
-0.135375
-0.154488
-0.170623
-0.180236
-0.180953
-0.172678
-0.157327
-0.138275
-0.118875
-0.101452
-0.0871295
-0.0761883
-0.0684756
-0.0637009
-0.0616827
-0.0625034
-0.373173
-0.38695
-0.396585
-0.400341
-0.396631
-0.384383
-0.363233
-0.334045
-0.299081
-0.261603
-0.225024
-0.192061
-0.164307
-0.142291
-0.125813
-0.114326
-0.107207
-0.103912
-0.104068
-0.107551
-0.114479
-0.124989
-0.13872
-0.154282
-0.169184
-0.180418
-0.185396
-0.182727
-0.1729
-0.157813
-0.140204
-0.122681
-0.107113
-0.0944823
-0.0850868
-0.0788558
-0.075605
-0.0751608
-0.0774406
-0.0825795
-0.0910318
-0.1034
-0.119847
-0.139359
-0.159399
-0.176334
-0.186477
-0.187319
-0.178732
-0.162653
-0.142617
-0.122164
-0.103753
-0.0885612
-0.0768643
-0.06848
-0.0630807
-0.0604378
-0.0605799
-0.380784
-0.395295
-0.40527
-0.409096
-0.405256
-0.392638
-0.370871
-0.340831
-0.304844
-0.266274
-0.228618
-0.194632
-0.165909
-0.142958
-0.125558
-0.11314
-0.105064
-0.100769
-0.0998593
-0.102168
-0.10777
-0.116807
-0.129026
-0.14324
-0.157192
-0.168041
-0.173271
-0.171431
-0.162877
-0.149272
-0.133162
-0.117012
-0.102624
-0.0909808
-0.0824113
-0.0768888
-0.0742686
-0.074409
-0.0772538
-0.0829686
-0.0920442
-0.105116
-0.122361
-0.142746
-0.163674
-0.181407
-0.19212
-0.193161
-0.184359
-0.167639
-0.146684
-0.125223
-0.105853
-0.0898134
-0.0773767
-0.0683338
-0.062322
-0.0590675
-0.058546
-0.386092
-0.401167
-0.411419
-0.415326
-0.411431
-0.39858
-0.376385
-0.345728
-0.308992
-0.269618
-0.23116
-0.196391
-0.166893
-0.143155
-0.124941
-0.11167
-0.102695
-0.0974443
-0.0955018
-0.0966653
-0.100968
-0.108547
-0.119243
-0.132074
-0.14502
-0.155428
-0.160865
-0.159835
-0.152529
-0.140392
-0.12578
-0.111007
-0.0978058
-0.0871544
-0.0794127
-0.0745963
-0.0725998
-0.0733116
-0.0767002
-0.082959
-0.0926116
-0.106324
-0.124294
-0.145482
-0.167252
-0.185775
-0.197099
-0.198416
-0.189509
-0.172247
-0.150455
-0.128041
-0.107751
-0.0908887
-0.0777324
-0.0680477
-0.0614388
-0.0575889
-0.0564223
-0.389168
-0.404659
-0.415162
-0.419164
-0.415267
-0.402299
-0.379847
-0.348799
-0.311584
-0.271695
-0.232711
-0.197399
-0.167319
-0.142943
-0.124024
-0.109982
-0.100168
-0.094008
-0.0910732
-0.09113
-0.0941706
-0.10032
-0.109499
-0.120921
-0.132812
-0.142717
-0.148301
-0.148053
-0.14194
-0.131238
-0.118107
-0.104702
-0.0926821
-0.0830185
-0.0760998
-0.071982
-0.0705975
-0.0718632
-0.0757706
-0.0825368
-0.0927137
-0.106997
-0.125608
-0.147521
-0.170077
-0.189377
-0.201351
-0.203025
-0.194136
-0.176445
-0.153908
-0.130609
-0.109443
-0.0917906
-0.0779392
-0.0676328
-0.0604449
-0.0560187
-0.0542289
-0.390137
-0.405911
-0.416614
-0.420755
-0.416905
-0.403914
-0.381357
-0.350129
-0.312695
-0.272574
-0.233338
-0.197723
-0.167254
-0.142386
-0.12287
-0.108137
-0.0975458
-0.0905276
-0.0866453
-0.0856406
-0.0874659
-0.0922278
-0.0999121
-0.109913
-0.120705
-0.130043
-0.135703
-0.136229
-0.131184
-0.121879
-0.110197
-0.0981356
-0.087281
-0.0785929
-0.0724856
-0.0690535
-0.0682648
-0.0700633
-0.0744605
-0.0816935
-0.0923371
-0.107115
-0.126278
-0.148827
-0.172104
-0.19216
-0.204823
-0.20694
-0.198197
-0.180201
-0.157024
-0.132916
-0.110928
-0.0925234
-0.0780054
-0.0671005
-0.0593543
-0.0543732
-0.0519849
-0.38917
-0.40513
-0.415934
-0.420249
-0.416496
-0.403565
-0.381032
-0.349819
-0.312417
-0.272341
-0.233121
-0.197433
-0.166762
-0.141544
-0.121539
-0.106194
-0.0948888
-0.0870646
-0.0822832
-0.0802674
-0.0809326
-0.0843612
-0.0905864
-0.099167
-0.108823
-0.117531
-0.123181
-0.124368
-0.120327
-0.112382
-0.102105
-0.0913501
-0.081634
-0.0739008
-0.0685869
-0.0658225
-0.0656094
-0.0679157
-0.0727707
-0.0804264
-0.0914753
-0.106666
-0.126285
-0.149375
-0.1733
-0.194084
-0.20747
-0.210116
-0.201655
-0.183483
-0.159784
-0.134956
-0.112206
-0.0930919
-0.0779395
-0.0664623
-0.058181
-0.0526684
-0.0497081
-0.38647
-0.402544
-0.413448
-0.417862
-0.41422
-0.401402
-0.379004
-0.347986
-0.310856
-0.271091
-0.232142
-0.196605
-0.165908
-0.140476
-0.120084
-0.104206
-0.09225
-0.0836737
-0.0780443
-0.0750711
-0.0746382
-0.0767971
-0.0816126
-0.0887874
-0.0972783
-0.105293
-0.110836
-0.112467
-0.109461
-0.102821
-0.0938856
-0.0843895
-0.0757758
-0.0689692
-0.0644245
-0.0623047
-0.0626429
-0.065429
-0.0707069
-0.0787388
-0.0901291
-0.105647
-0.125622
-0.149151
-0.173644
-0.195121
-0.209262
-0.21253
-0.204477
-0.186267
-0.162173
-0.136722
-0.113279
-0.0935017
-0.0777505
-0.0657296
-0.0569382
-0.0509193
-0.0474151
-0.382249
-0.398444
-0.409367
-0.413814
-0.410254
-0.397578
-0.375412
-0.344761
-0.30813
-0.268928
-0.230491
-0.19531
-0.164755
-0.139237
-0.118555
-0.102222
-0.0896769
-0.0804031
-0.0739782
-0.0701039
-0.0686379
-0.0695997
-0.073067
-0.0788639
-0.0861714
-0.0934305
-0.0987789
-0.10078
-0.0987021
-0.0932694
-0.0855957
-0.0772996
-0.0697435
-0.0638279
-0.0600225
-0.0585198
-0.0593812
-0.0626162
-0.06828
-0.0766402
-0.0883065
-0.104066
-0.124293
-0.148153
-0.173125
-0.195254
-0.210179
-0.214294
-0.206634
-0.188529
-0.164177
-0.138208
-0.114145
-0.0937585
-0.0774474
-0.0649138
-0.0556391
-0.04914
-0.0451214
-0.376696
-0.393162
-0.403909
-0.408283
-0.404761
-0.392246
-0.370402
-0.340279
-0.304363
-0.265958
-0.228255
-0.193621
-0.16336
-0.137876
-0.116999
-0.100283
-0.0872102
-0.0772938
-0.0701269
-0.065409
-0.0629766
-0.0628187
-0.0650103
-0.0694704
-0.0755866
-0.0820356
-0.0871044
-0.0894008
-0.0881425
-0.0837926
-0.0772905
-0.0701274
-0.0635762
-0.0585095
-0.0554083
-0.0544909
-0.0558441
-0.0594946
-0.0655058
-0.0741455
-0.0860225
-0.101938
-0.122312
-0.146393
-0.171748
-0.194474
-0.210204
-0.215801
-0.208097
-0.190247
-0.165783
-0.13941
-0.114809
-0.0938685
-0.077039
-0.0640257
-0.0542958
-0.0473438
-0.0428407
-0.369974
-0.386249
-0.39714
-0.401402
-0.39789
-0.385556
-0.36412
-0.334682
-0.299685
-0.262293
-0.225524
-0.191608
-0.161779
-0.136438
-0.115451
-0.0984239
-0.0848839
-0.0743797
-0.0665245
-0.061021
-0.0576894
-0.05649
-0.0574873
-0.0606652
-0.0655944
-0.0711861
-0.0758956
-0.0783906
-0.0778518
-0.0744478
-0.0690235
-0.0629201
-0.0573145
-0.053049
-0.0506118
-0.0502441
-0.0520548
-0.0560856
-0.0624046
-0.0712751
-0.0832987
-0.0992855
-0.119704
-0.143893
-0.169531
-0.192786
-0.209285
-0.215567
-0.208795
-0.191404
-0.166983
-0.140323
-0.11527
-0.0938379
-0.0765343
-0.0630758
-0.0529201
-0.045543
-0.0405857
-0.378257
-0.389145
-0.393295
-0.389791
-0.377656
-0.356717
-0.328117
-0.294227
-0.258041
-0.222384
-0.189335
-0.160061
-0.134962
-0.113946
-0.0966742
-0.0827256
-0.0716876
-0.0631978
-0.0569662
-0.0528021
-0.0506399
-0.0505266
-0.0524894
-0.0562497
-0.060946
-0.0652188
-0.0678033
-0.0679551
-0.0652761
-0.0608453
-0.0557245
-0.0509996
-0.0474827
-0.0456655
-0.0458083
-0.0480397
-0.0524136
-0.0590004
-0.0680541
-0.0801626
-0.0961395
-0.116501
-0.140688
-0.166504
-0.190214
-0.207451
-0.214482
-0.208742
-0.191993
-0.167769
-0.140947
-0.115534
-0.093673
-0.0759417
-0.0620741
-0.0515229
-0.0437488
-0.0383676
-0.369547
-0.380146
-0.384128
-0.380601
-0.368693
-0.348347
-0.320733
-0.288121
-0.253311
-0.218916
-0.186863
-0.158249
-0.13348
-0.112509
-0.0950564
-0.0807563
-0.0692379
-0.0601664
-0.0532635
-0.048332
-0.0452842
-0.0441459
-0.0449676
-0.0475912
-0.0513647
-0.0551257
-0.0576845
-0.0583535
-0.0563127
-0.0528062
-0.048586
-0.0446723
-0.0418479
-0.0406032
-0.0412146
-0.0438276
-0.0485065
-0.055321
-0.0645116
-0.0766466
-0.0925372
-0.112745
-0.136822
-0.162712
-0.186794
-0.204725
-0.212609
-0.20797
-0.192012
-0.168136
-0.14128
-0.115601
-0.0933801
-0.0752695
-0.0610299
-0.050114
-0.0419714
-0.0361961
-0.360306
-0.370346
-0.374033
-0.370452
-0.358813
-0.339163
-0.312678
-0.281497
-0.248205
-0.215197
-0.184245
-0.156381
-0.132019
-0.11116
-0.0935875
-0.078991
-0.0670445
-0.0574433
-0.0499243
-0.0442886
-0.0404304
-0.0383522
-0.0381124
-0.0396432
-0.0424797
-0.0456588
-0.0480699
-0.048934
-0.0476304
-0.0449563
-0.0415461
-0.0383728
-0.0361823
-0.0354601
-0.0364958
-0.0394497
-0.0443944
-0.0513966
-0.06068
-0.0727872
-0.0885211
-0.108487
-0.132347
-0.158206
-0.182574
-0.20115
-0.209972
-0.206497
-0.191462
-0.168081
-0.141322
-0.115477
-0.0929653
-0.0745255
-0.0599519
-0.0487026
-0.0402198
-0.0340798
-0.350414
-0.359779
-0.363107
-0.359475
-0.348168
-0.329326
-0.3041
-0.27448
-0.242821
-0.211296
-0.181528
-0.154489
-0.1306
-0.109915
-0.092279
-0.0774392
-0.0651157
-0.0550355
-0.0469541
-0.0406747
-0.0360777
-0.033143
-0.0319247
-0.0324178
-0.0343162
-0.0368522
-0.0390133
-0.0400056
-0.0393206
-0.0373353
-0.0346432
-0.03214
-0.0305235
-0.0302718
-0.0316859
-0.0349384
-0.0401089
-0.0472598
-0.0565942
-0.0686241
-0.0841374
-0.103778
-0.127325
-0.153048
-0.177613
-0.196792
-0.206592
-0.20433
-0.190349
-0.167607
-0.141073
-0.115164
-0.0924345
-0.0737168
-0.058848
-0.0472968
-0.0385021
-0.032026
-0.33971
-0.348473
-0.351464
-0.34781
-0.336914
-0.318993
-0.295145
-0.26719
-0.237248
-0.207277
-0.178755
-0.152598
-0.12924
-0.108784
-0.0911375
-0.0761055
-0.0634545
-0.0529449
-0.0443524
-0.037487
-0.0322191
-0.0285078
-0.0263951
-0.0259144
-0.026888
-0.0287331
-0.0305605
-0.0316111
-0.0314246
-0.0299704
-0.0279122
-0.0260112
-0.024908
-0.0250739
-0.0268191
-0.0303271
-0.0356835
-0.0429444
-0.0522907
-0.0641988
-0.0794354
-0.0986783
-0.121821
-0.147309
-0.171983
-0.191707
-0.202494
-0.201494
-0.188682
-0.166716
-0.140537
-0.114666
-0.0917933
-0.0728505
-0.0577254
-0.0459039
-0.0368253
-0.030041
-0.336564
-0.33923
-0.335604
-0.325215
-0.308323
-0.28595
-0.259735
-0.231567
-0.203194
-0.17596
-0.15073
-0.12795
-0.107773
-0.0901654
-0.0749903
-0.0620597
-0.0511683
-0.0421143
-0.0347171
-0.028842
-0.0244296
-0.0215052
-0.0201215
-0.0201976
-0.0213189
-0.0227388
-0.0237537
-0.0239779
-0.0228643
-0.0213842
-0.0200211
-0.0193707
-0.0199013
-0.02193
-0.0256499
-0.0311517
-0.0384851
-0.0478068
-0.0595539
-0.0744653
-0.0932463
-0.115903
-0.141063
-0.165755
-0.185961
-0.197722
-0.198021
-0.186478
-0.165414
-0.139716
-0.113987
-0.0910471
-0.0719326
-0.0565905
-0.0445301
-0.0351951
-0.0281297
-0.324171
-0.32654
-0.323019
-0.313238
-0.29747
-0.276646
-0.252217
-0.225848
-0.199094
-0.173172
-0.148899
-0.126737
-0.106883
-0.0893614
-0.0740899
-0.0609261
-0.0496989
-0.0402303
-0.0323523
-0.0259291
-0.0208862
-0.0172299
-0.0150176
-0.0142364
-0.0146165
-0.0155628
-0.0164313
-0.0167834
-0.0160314
-0.0150936
-0.0142023
-0.0139444
-0.0147874
-0.0170522
-0.0209404
-0.0265475
-0.0339169
-0.04318
-0.0547319
-0.0692776
-0.0875428
-0.109643
-0.134388
-0.15901
-0.17963
-0.192336
-0.193944
-0.183753
-0.163707
-0.138615
-0.113131
-0.0902005
-0.0709687
-0.0554489
-0.0431807
-0.0336164
-0.026296
-0.311416
-0.313555
-0.310228
-0.301149
-0.286581
-0.26735
-0.244722
-0.220153
-0.195015
-0.170412
-0.147118
-0.125604
-0.106113
-0.0887201
-0.0733968
-0.0600442
-0.0485255
-0.0386871
-0.0303762
-0.0234594
-0.0178511
-0.0135385
-0.0105732
-0.00898571
-0.00862332
-0.00903889
-0.00964834
-0.00994091
-0.00955746
-0.00907612
-0.00858106
-0.00865907
-0.00976411
-0.0122185
-0.0162317
-0.0219043
-0.0292741
-0.0384473
-0.0497746
-0.0639219
-0.0816273
-0.10311
-0.127363
-0.151828
-0.172794
-0.186397
-0.189307
-0.18053
-0.161606
-0.137237
-0.112102
-0.0892579
-0.0699634
-0.0543053
-0.04186
-0.0320928
-0.0245427
-0.018899
-0.298476
-0.300451
-0.297406
-0.289107
-0.275788
-0.258164
-0.237325
-0.214531
-0.190989
-0.167698
-0.145392
-0.124552
-0.105457
-0.088234
-0.0729014
-0.0594027
-0.0476348
-0.0374693
-0.0287698
-0.0214095
-0.0152954
-0.010397
-0.00675318
-0.0044178
-0.00332702
-0.00316746
-0.00343491
-0.00365411
-0.00350171
-0.00334956
-0.00318055
-0.00354185
-0.0048607
-0.00745987
-0.0115558
-0.0172549
-0.0245905
-0.0336445
-0.0447223
-0.0584456
-0.0755571
-0.0963718
-0.120065
-0.144293
-0.165526
-0.179967
-0.184168
-0.176837
-0.159122
-0.13559
-0.110904
-0.0882241
-0.0689219
-0.0531647
-0.0405723
-0.030628
-0.0228726
-0.0169865
-0.287413
-0.284724
-0.277259
-0.26521
-0.249179
-0.23009
-0.209025
-0.187043
-0.165045
-0.143729
-0.123581
-0.104914
-0.0878984
-0.0725968
-0.0589928
-0.0470159
-0.0365633
-0.0275164
-0.0197577
-0.0131912
-0.00777112
-0.00352016
-0.000499657
0.0012918
0.00205146
0.00218072
0.00207389
0.00211991
0.00207585
0.00197889
0.00138347
-0.000103593
-0.00280504
-0.00694303
-0.0126305
-0.0198983
-0.0288059
-0.0396133
-0.0528936
-0.0693863
-0.0894939
-0.11257
-0.136485
-0.157902
-0.173124
-0.178591
-0.1727
-0.156267
-0.133678
-0.109542
-0.0871049
-0.0678507
-0.0520331
-0.0393227
-0.0292256
-0.021288
-0.0151835
-0.274615
-0.272337
-0.265735
-0.254947
-0.240467
-0.223068
-0.203672
-0.183201
-0.16247
-0.142138
-0.122697
-0.104485
-0.0877114
-0.0724786
-0.0588075
-0.0466594
-0.0359567
-0.0266
-0.0184832
-0.0115114
-0.00562742
-0.00083587
0.00280555
0.00525888
0.00662594
0.00719708
0.00726923
0.0068879
0.0071948
0.00687943
0.00609658
0.00448397
0.00171972
-0.00242174
-0.00806083
-0.0152284
-0.0239639
-0.0344833
-0.0473076
-0.0631651
-0.0825365
-0.104947
-0.128481
-0.150005
-0.165944
-0.172677
-0.168141
-0.153052
-0.131508
-0.108019
-0.0859021
-0.0667513
-0.0509119
-0.0381119
-0.0278859
-0.0197885
-0.0134881
-0.262207
-0.260372
-0.254628
-0.245065
-0.232073
-0.216287
-0.198484
-0.179463
-0.159963
-0.140604
-0.121878
-0.104144
-0.0876433
-0.0725145
-0.0588128
-0.0465301
-0.0356135
-0.0259832
-0.0175464
-0.010213
-0.00391805
0.00135106
0.00554818
0.00861503
0.0105806
0.0116306
0.0119939
0.0118654
0.0120309
0.0115036
0.0105809
0.00888184
0.00609079
0.00198197
-0.00357361
-0.0106096
-0.0191489
-0.0293651
-0.0417254
-0.0569389
-0.0755545
-0.0972621
-0.120356
-0.141911
-0.158508
-0.167348
-0.163164
-0.149488
-0.129078
-0.106326
-0.0846037
-0.0656102
-0.0497881
-0.0369281
-0.0265978
-0.0183639
-0.0118913
-0.248929
-0.244014
-0.235612
-0.224018
-0.209745
-0.19344
-0.175795
-0.157476
-0.139067
-0.121056
-0.103817
-0.0876174
-0.0726274
-0.0589331
-0.0465544
-0.0354628
-0.0255975
-0.01688
-0.00922783
-0.00257265
0.0031131
0.00779957
0.0114234
0.0139628
0.0155141
0.0162511
0.0164332
0.0165181
0.015837
0.0148272
0.0130752
0.0102886
0.00624473
0.000805365
-0.00606898
-0.0143889
-0.024289
-0.0361812
-0.0507482
-0.0685973
-0.0895733
-0.112176
-0.13369
-0.150806
-0.16023
-0.157758
-0.145609
-0.126404
-0.104464
-0.0832004
-0.0644153
-0.0486498
-0.0357608
-0.0253524
-0.0170062
-0.0103855
-0.238144
-0.234007
-0.226684
-0.216386
-0.203515
-0.188606
-0.172257
-0.155065
-0.137582
-0.120284
-0.103555
-0.0876844
-0.0728661
-0.059214
-0.0467742
-0.0355409
-0.0254727
-0.0165061
-0.00856838
-0.00159226
0.00446089
0.00957917
0.0137055
0.0167883
0.0188528
0.0200135
0.0204838
0.02065
0.0198779
0.0188311
0.0170572
0.0143026
0.0103506
0.0050555
-0.00163004
-0.00970918
-0.019282
-0.0307054
-0.0446291
-0.0617082
-0.0819329
-0.104003
-0.125405
-0.142914
-0.152914
-0.152088
-0.141478
-0.123536
-0.102493
-0.0817644
-0.063243
-0.0475697
-0.0346741
-0.0242036
-0.0157601
-0.00900765
-0.228101
-0.224712
-0.21842
-0.209356
-0.197825
-0.184261
-0.169173
-0.153097
-0.136545
-0.119977
-0.103781
-0.0882603
-0.073632
-0.0600358
-0.0475437
-0.036174
-0.0259057
-0.016692
-0.00847253
-0.00118506
0.00521505
0.0107328
0.0153261
0.0189328
0.021526
0.0231495
0.0239289
0.0244271
0.0235772
0.0225427
0.0207911
0.0181092
0.0142837
0.0091631
0.00269231
-0.00512664
-0.0143631
-0.02532
-0.0386091
-0.0549224
-0.074383
-0.0958812
-0.117092
-0.134836
-0.145444
-0.146129
-0.137011
-0.120465
-0.100503
-0.0804518
-0.0622703
-0.0467164
-0.0338151
-0.0232746
-0.0147273
-0.00784192
-0.218346
-0.215692
-0.210411
-0.202561
-0.192356
-0.180135
-0.166322
-0.151385
-0.135796
-0.119993
-0.104364
-0.0892222
-0.0748081
-0.0612865
-0.0487561
-0.0372602
-0.0268
-0.0173469
-0.00885426
-0.00126876
0.00545423
0.0113333
0.0163498
0.020452
0.0235771
0.0256804
0.0267386
0.0264649
0.0267868
0.0258338
0.02415
0.0215913
0.0179466
0.013054
0.00684321
-0.00068417
-0.0095685
-0.0200549
-0.0327096
-0.0482544
-0.0669332
-0.0878077
-0.108703
-0.126429
-0.137381
-0.13928
-0.131809
-0.116915
-0.0982633
-0.0790372
-0.0612777
-0.0458864
-0.0330019
-0.022404
-0.0137651
-0.00676181
-0.206334
-0.201691
-0.194673
-0.185428
-0.174225
-0.161424
-0.147438
-0.132701
-0.117629
-0.102596
-0.0879163
-0.073837
-0.0605348
-0.0481232
-0.0366611
-0.0261644
-0.0166184
-0.00798805
-0.000230264
0.00669304
0.0128062
0.018116
0.0225972
0.0261703
0.028701
0.0300303
0.0300341
0.0300554
0.0291107
0.0273835
0.0248348
0.0212851
0.0165797
0.0106334
0.00341873
-0.00511009
-0.0151592
-0.0272324
-0.0420353
-0.0599017
-0.0800904
-0.100657
-0.118487
-0.129854
-0.132474
-0.126436
-0.112737
-0.0949581
-0.0763246
-0.0589674
-0.0438514
-0.0311487
-0.0206584
-0.0120723
-0.00507674
)
;

boundaryField
{
    inlet
    {
        type            zeroGradient;
    }
    outlet
    {
        type            fixedValue;
        value           nonuniform 0();
    }
    cylinder
    {
        type            zeroGradient;
    }
    top
    {
        type            symmetryPlane;
    }
    bottom
    {
        type            symmetryPlane;
    }
    defaultFaces
    {
        type            empty;
    }
    procBoundary6to2
    {
        type            processor;
        value           nonuniform List<scalar> 
57
(
-0.151356
-0.146939
-0.14119
-0.134165
-0.125979
-0.116796
-0.106811
-0.0962395
-0.0853012
-0.0742044
-0.0631377
-0.0522629
-0.0417107
-0.0315811
-0.0219447
-0.0128468
-0.00431189
0.00365029
0.0110398
0.0178601
0.024114
0.0298005
0.0349045
0.0393693
0.043075
0.0458566
0.0475545
0.0481264
0.0476159
0.0461129
0.0437084
0.0404402
0.0363092
0.0313148
0.0254551
0.0186491
0.0106036
0.0106036
0.00603474
-0.00549087
-0.0194091
-0.035354
-0.0521053
-0.0671486
-0.0771374
-0.0796569
-0.0747835
-0.0647837
-0.0524732
-0.0399534
-0.0283575
-0.0181054
-0.00922806
-0.00160401
0.00491515
0.0104736
0.0152067
)
;
    }
    procBoundary6to3
    {
        type            processor;
        value           uniform 0.0170828;
    }
    procBoundary6to5
    {
        type            processor;
        value           nonuniform List<scalar> 
40
(
-0.200817
-0.18843
-0.176379
-0.16511
-0.317854
-0.326979
-0.334674
-0.357149
-0.357149
-0.363516
-0.367849
-0.370192
-0.37064
-0.369327
-0.366423
-0.36212
-0.356619
-0.350136
-0.362409
-0.362409
-0.354217
-0.345733
-0.336612
-0.325917
-0.328435
-0.328435
-0.316713
-0.304552
-0.292122
-0.285533
-0.285533
-0.272766
-0.260342
-0.250321
-0.250321
-0.239111
-0.228645
-0.218475
-0.208594
-0.208594
)
;
    }
    procBoundary6to7
    {
        type            processor;
        value           nonuniform List<scalar> 
36
(
0.00774521
0.000587047
0.0102031
0.0125671
0.0148674
-0.0713763
-0.0689482
-0.0663739
-0.0636801
-0.0608927
-0.0580368
-0.055136
-0.0522124
-0.0492864
-0.0463765
-0.0434993
-0.0406694
-0.0378996
-0.035201
-0.0325829
-0.0300529
-0.0276173
-0.025281
-0.0230477
-0.0209198
-0.0209198
-0.0149975
-0.0127969
-0.0107303
-0.00879452
-0.00698055
-0.00528128
-0.00372758
-0.00238815
-0.00114835
0.000587047
)
;
    }
    procBoundary6to9
    {
        type            processor;
        value           uniform -0.307415;
    }
    procBoundary6to10
    {
        type            processor;
        value           nonuniform List<scalar> 
61
(
-0.297479
-0.302687
-0.309462
-0.339623
-0.315472
-0.339623
-0.337244
-0.327905
-0.311201
-0.287808
-0.259565
-0.229148
-0.199421
-0.172763
-0.150674
-0.133757
-0.121966
-0.11491
-0.112101
-0.113114
-0.117726
-0.126013
-0.138248
-0.154475
-0.173857
-0.194247
-0.212395
-0.22477
-0.228573
-0.222729
-0.208105
-0.187407
-0.164134
-0.14144
-0.121429
-0.105067
-0.0925156
-0.0835345
-0.077781
-0.0749536
-0.0748562
-0.0774858
-0.083123
-0.0922269
-0.104952
-0.120477
-0.136663
-0.150424
-0.158671
-0.159373
-0.152476
-0.139677
-0.12384
-0.107762
-0.0933987
-0.081747
-0.0731215
-0.0674637
-0.0646
-0.0644965
-0.0673986
)
;
    }
}


// ************************************************************************* //
