/*--------------------------------*- C++ -*----------------------------------*\
  =========                 |
  \\      /  F ield         | OpenFOAM: The Open Source CFD Toolbox
   \\    /   O peration     | Website:  https://openfoam.org
    \\  /    A nd           | Version:  7
     \\/     M anipulation  |
\*---------------------------------------------------------------------------*/
FoamFile
{
    version     2.0;
    format      ascii;
    class       volScalarField;
    location    "20";
    object      p;
}
// * * * * * * * * * * * * * * * * * * * * * * * * * * * * * * * * * * * * * //

dimensions      [0 2 -2 0 0 0 0];

internalField   nonuniform List<scalar> 
5650
(
-0.310949
-0.304826
-0.297462
-0.288965
-0.279472
-0.269153
-0.258279
-0.247266
-0.235675
-0.311333
-0.305171
-0.297773
-0.289243
-0.279714
-0.269349
-0.258419
-0.247353
-0.235472
-0.312093
-0.305855
-0.298389
-0.289793
-0.280193
-0.269736
-0.258696
-0.247527
-0.235064
-0.306865
-0.299297
-0.290604
-0.280899
-0.270305
-0.259103
-0.247788
-0.234455
-0.308185
-0.300481
-0.291658
-0.281812
-0.271046
-0.259627
-0.248136
-0.233648
-0.309793
-0.301919
-0.292934
-0.282917
-0.27194
-0.260256
-0.248571
-0.232649
-0.311664
-0.303586
-0.294409
-0.284191
-0.27297
-0.260974
-0.249091
-0.231469
-0.313771
-0.305455
-0.296056
-0.28561
-0.274116
-0.261766
-0.249693
-0.230123
-0.316088
-0.307501
-0.29785
-0.28715
-0.275359
-0.262613
-0.250373
-0.228636
-0.318589
-0.309697
-0.299765
-0.288786
-0.276679
-0.263503
-0.25112
-0.227038
-0.312019
-0.30178
-0.290497
-0.278057
-0.26442
-0.251919
-0.22537
-0.314449
-0.303873
-0.292264
-0.279475
-0.265353
-0.252749
-0.22368
-0.31697
-0.30603
-0.294071
-0.280917
-0.266294
-0.253575
-0.222022
-0.319571
-0.308238
-0.295905
-0.282369
-0.267238
-0.254356
-0.220457
-0.31049
-0.297758
-0.283819
-0.268185
-0.255042
-0.219063
-0.31278
-0.299621
-0.285254
-0.269139
-0.255579
-0.217938
-0.315104
-0.301488
-0.286663
-0.270106
-0.255857
-0.217062
-0.303352
-0.288049
-0.271111
-0.255672
-0.216158
-0.305204
-0.289428
-0.272232
-0.255052
-0.216028
-0.290791
-0.273516
-0.255001
-0.22236
-0.292027
-0.274688
-0.256346
-0.242569
-0.275374
-0.256456
-0.247103
-0.255574
-0.246363
-0.254049
-0.243647
-0.239623
-0.239623
-0.254049
-0.243647
-0.275388
-0.255574
-0.246363
-0.275374
-0.256456
-0.247103
-0.292027
-0.274688
-0.256346
-0.242569
-0.290791
-0.273516
-0.255001
-0.22236
-0.305204
-0.289428
-0.272232
-0.255052
-0.216028
-0.303352
-0.288049
-0.271111
-0.255672
-0.216158
-0.315104
-0.301488
-0.286663
-0.270106
-0.255857
-0.217062
-0.31278
-0.299621
-0.285254
-0.269139
-0.255579
-0.217938
-0.31049
-0.297758
-0.283819
-0.268185
-0.255042
-0.219063
-0.319571
-0.308238
-0.295905
-0.282369
-0.267238
-0.254356
-0.220457
-0.31697
-0.30603
-0.294071
-0.280917
-0.266294
-0.253575
-0.222022
-0.314449
-0.303873
-0.292264
-0.279475
-0.265353
-0.252749
-0.22368
-0.312019
-0.30178
-0.290497
-0.278057
-0.26442
-0.251919
-0.22537
-0.318589
-0.309697
-0.299765
-0.288786
-0.276679
-0.263503
-0.25112
-0.227038
-0.316088
-0.307501
-0.29785
-0.287149
-0.275359
-0.262613
-0.250373
-0.228636
-0.313771
-0.305455
-0.296056
-0.28561
-0.274116
-0.261766
-0.249693
-0.230123
-0.311664
-0.303586
-0.294409
-0.284191
-0.27297
-0.260974
-0.249091
-0.231469
-0.309793
-0.301919
-0.292934
-0.282917
-0.27194
-0.260256
-0.248571
-0.232649
-0.308185
-0.300481
-0.291658
-0.281812
-0.271046
-0.259627
-0.248136
-0.233648
-0.306865
-0.299297
-0.290604
-0.280899
-0.270305
-0.259103
-0.247788
-0.234455
-0.312093
-0.305855
-0.298389
-0.289793
-0.280193
-0.269736
-0.258696
-0.247527
-0.235064
-0.311333
-0.305171
-0.297773
-0.289243
-0.279714
-0.269349
-0.258419
-0.247353
-0.235472
-0.310949
-0.304826
-0.297462
-0.288965
-0.279472
-0.269153
-0.258279
-0.247266
-0.235675
-0.228194
-0.221099
-0.21373
-0.206315
-0.198789
-0.191176
-0.183509
-0.175811
-0.168103
-0.16041
-0.152756
-0.145166
-0.137664
-0.130277
-0.123027
-0.115937
-0.109029
-0.102321
-0.095831
-0.0895721
-0.0835565
-0.0777931
-0.0722883
-0.0670458
-0.062067
-0.0573505
-0.0528931
-0.0486895
-0.0447326
-0.0410138
-0.0375233
-0.0342501
-0.0311829
-0.0283087
-0.025617
-0.023091
-0.0207264
-0.0184947
-0.016415
-0.0144175
-0.0125987
-0.010753
-0.00922122
-0.00737433
-0.006288
-0.00408171
-0.00395046
-0.000460094
-0.00272082
0.00452426
-0.228607
-0.221414
-0.213965
-0.20653
-0.198987
-0.191359
-0.183681
-0.175974
-0.168257
-0.160556
-0.152895
-0.145298
-0.13779
-0.130396
-0.12314
-0.116044
-0.10913
-0.102417
-0.0959209
-0.0896566
-0.0836357
-0.0778673
-0.0723577
-0.0671105
-0.0621272
-0.0574064
-0.052945
-0.0487375
-0.0447769
-0.0410546
-0.0375608
-0.0342845
-0.0312145
-0.0283376
-0.0256434
-0.023115
-0.0207482
-0.0185146
-0.0164329
-0.0144337
-0.0126133
-0.0107663
-0.00923279
-0.00738536
-0.0062966
-0.00409169
-0.00395527
-0.000472014
-0.00271852
0.00450051
-0.229426
-0.222041
-0.214432
-0.206958
-0.199382
-0.191724
-0.184023
-0.176296
-0.168563
-0.160847
-0.153171
-0.14556
-0.138039
-0.130633
-0.123364
-0.116257
-0.109331
-0.102607
-0.0960998
-0.089825
-0.0837938
-0.0780154
-0.0724961
-0.0672397
-0.0622474
-0.0575182
-0.0530486
-0.0488333
-0.0448654
-0.0411362
-0.0376359
-0.0343534
-0.0312776
-0.0283954
-0.0256961
-0.0231631
-0.0207919
-0.0185542
-0.0164688
-0.0144662
-0.0126424
-0.0107928
-0.00925593
-0.00740739
-0.00631379
-0.00411164
-0.00396489
-0.000495773
-0.00271396
0.00445327
-0.230639
-0.222976
-0.215126
-0.207593
-0.199967
-0.192263
-0.184528
-0.176773
-0.169015
-0.161276
-0.153579
-0.145948
-0.138408
-0.130983
-0.123697
-0.116573
-0.10963
-0.102889
-0.0963664
-0.090076
-0.0840297
-0.0782365
-0.072703
-0.0674329
-0.0624274
-0.0576854
-0.0532037
-0.0489769
-0.0449981
-0.0412585
-0.0377484
-0.0344567
-0.0313723
-0.028482
-0.0257752
-0.0232351
-0.0208575
-0.0186137
-0.0165226
-0.014515
-0.0126861
-0.0108326
-0.00929059
-0.00744038
-0.00633955
-0.00414146
-0.00397933
-0.000531211
-0.00270726
0.00438304
-0.232223
-0.224213
-0.21604
-0.208426
-0.200735
-0.19297
-0.185188
-0.177395
-0.169604
-0.161836
-0.154112
-0.146456
-0.138892
-0.131443
-0.124135
-0.116988
-0.110024
-0.103262
-0.0967185
-0.0904079
-0.0843419
-0.0785296
-0.0729775
-0.0676893
-0.0626664
-0.0579078
-0.0534101
-0.0491681
-0.0451747
-0.0414214
-0.0378983
-0.0345944
-0.0314985
-0.0285974
-0.0258806
-0.0233312
-0.0209448
-0.018693
-0.0165943
-0.0145799
-0.0127443
-0.0108856
-0.00933673
-0.00748427
-0.00637383
-0.00418106
-0.00399859
-0.000578092
-0.00269858
0.00429058
-0.234146
-0.22574
-0.217163
-0.209448
-0.201674
-0.193832
-0.185993
-0.178154
-0.170322
-0.162518
-0.154762
-0.147075
-0.139482
-0.132006
-0.124671
-0.117498
-0.110509
-0.103721
-0.0971532
-0.0908184
-0.0847286
-0.0788931
-0.0733183
-0.0680081
-0.0629639
-0.0581848
-0.0536674
-0.0494065
-0.0453951
-0.0416247
-0.0380855
-0.0347664
-0.0316562
-0.0287417
-0.0260123
-0.0234512
-0.0210539
-0.018792
-0.0166839
-0.0146609
-0.0128169
-0.0109517
-0.0093943
-0.00753896
-0.0064166
-0.00423029
-0.0040227
-0.000636108
-0.00268811
0.00417684
-0.236367
-0.22754
-0.218481
-0.210642
-0.202771
-0.194837
-0.186929
-0.179034
-0.171156
-0.163311
-0.155517
-0.147797
-0.140171
-0.132665
-0.125299
-0.118097
-0.111079
-0.104264
-0.0976673
-0.0913047
-0.0851875
-0.0793251
-0.073724
-0.0683881
-0.0633189
-0.0585156
-0.0539749
-0.0496917
-0.045659
-0.0418683
-0.0383099
-0.0349726
-0.0318453
-0.0289147
-0.0261702
-0.0235951
-0.0211847
-0.0189107
-0.0167912
-0.0147581
-0.0129039
-0.0110308
-0.0094632
-0.00760435
-0.00646777
-0.00428898
-0.00405165
-0.000704883
-0.0026761
0.00404303
-0.238832
-0.229584
-0.219973
-0.211991
-0.204009
-0.195968
-0.18798
-0.180022
-0.172091
-0.1642
-0.156366
-0.148609
-0.14095
-0.13341
-0.126013
-0.11878
-0.11173
-0.104884
-0.0982569
-0.0918637
-0.0857161
-0.0798236
-0.0741929
-0.0688279
-0.0637304
-0.0588995
-0.0543322
-0.0500233
-0.045966
-0.0421519
-0.0385711
-0.0352128
-0.0320656
-0.0291162
-0.0263543
-0.0237627
-0.0213371
-0.019049
-0.0169162
-0.0148711
-0.0130051
-0.0111229
-0.00954334
-0.00768031
-0.00652728
-0.00435692
-0.00408544
-0.000783979
-0.00266281
0.00389054
-0.24148
-0.231835
-0.221614
-0.213472
-0.205367
-0.197204
-0.189126
-0.181099
-0.173111
-0.165171
-0.157296
-0.149501
-0.141806
-0.134233
-0.126803
-0.119538
-0.112456
-0.105577
-0.0989177
-0.0924918
-0.0863114
-0.0803862
-0.074723
-0.069326
-0.0641971
-0.0593354
-0.0547383
-0.0504006
-0.0463156
-0.042475
-0.038869
-0.0354867
-0.0323169
-0.0293463
-0.0265643
-0.0239541
-0.021511
-0.0192067
-0.0170588
-0.0150001
-0.0131205
-0.0112277
-0.00963459
-0.00776666
-0.00659503
-0.00443389
-0.00412409
-0.000872906
-0.00264856
0.00372092
-0.244232
-0.234239
-0.223371
-0.215056
-0.206817
-0.198523
-0.190347
-0.182246
-0.174197
-0.166208
-0.158291
-0.150458
-0.142729
-0.135124
-0.127662
-0.120364
-0.11325
-0.106339
-0.0996453
-0.0931852
-0.0869703
-0.0810103
-0.0753122
-0.0698806
-0.0647174
-0.0598223
-0.0551923
-0.0508228
-0.0467072
-0.0428371
-0.0392031
-0.035794
-0.0325989
-0.0296044
-0.0268001
-0.0241689
-0.0217062
-0.0193837
-0.0172187
-0.0151446
-0.0132498
-0.0113452
-0.00973679
-0.00786322
-0.00667089
-0.0045196
-0.00416757
-0.000971124
-0.00263365
0.00353589
-0.246992
-0.236726
-0.225201
-0.216707
-0.20833
-0.199897
-0.191619
-0.18344
-0.175331
-0.167294
-0.159336
-0.151469
-0.143708
-0.136072
-0.12858
-0.121252
-0.114106
-0.107162
-0.100435
-0.0939398
-0.0876892
-0.0816929
-0.0759581
-0.0704897
-0.0652899
-0.0603586
-0.0556932
-0.0512892
-0.0471401
-0.0432377
-0.0395728
-0.0361343
-0.0329113
-0.0298905
-0.0270614
-0.0244069
-0.0219224
-0.0195797
-0.0173957
-0.0153046
-0.0133929
-0.0114751
-0.00984978
-0.00796978
-0.00675473
-0.00461378
-0.00421586
-0.00107806
-0.0026184
0.00333726
-0.249651
-0.239207
-0.227051
-0.218382
-0.209866
-0.201294
-0.192913
-0.184659
-0.176492
-0.16841
-0.160416
-0.152518
-0.14473
-0.137067
-0.129548
-0.122192
-0.115017
-0.108041
-0.101281
-0.0947513
-0.0884645
-0.0824309
-0.0766581
-0.0711512
-0.0659127
-0.0609429
-0.0562396
-0.0517985
-0.0476133
-0.043676
-0.0399776
-0.0365071
-0.0332536
-0.0302039
-0.0273477
-0.0246677
-0.0221594
-0.0197946
-0.0175897
-0.0154799
-0.0135495
-0.0116171
-0.00997333
-0.00808609
-0.00684641
-0.0047161
-0.00426894
-0.0011931
-0.00260316
0.00312694
-0.252086
-0.241573
-0.228856
-0.22003
-0.211381
-0.202679
-0.194202
-0.185878
-0.177659
-0.169538
-0.161515
-0.153593
-0.145783
-0.138099
-0.130558
-0.123177
-0.115976
-0.108971
-0.102179
-0.0956155
-0.0892927
-0.0832214
-0.0774095
-0.0718627
-0.0665839
-0.0615737
-0.0568303
-0.0523496
-0.0481258
-0.0441512
-0.0404167
-0.0369116
-0.0336252
-0.0305444
-0.0276586
-0.024951
-0.0224168
-0.0200278
-0.0178003
-0.01567
-0.0137194
-0.0117711
-0.0101072
-0.0082119
-0.00694574
-0.00482624
-0.00432677
-0.00131563
-0.00258825
0.00290691
-0.254162
-0.243693
-0.230539
-0.221588
-0.212825
-0.204011
-0.195452
-0.18707
-0.17881
-0.170662
-0.162618
-0.154681
-0.146856
-0.139158
-0.1316
-0.1242
-0.116976
-0.109945
-0.103124
-0.096528
-0.0901699
-0.084061
-0.0782096
-0.072622
-0.0673015
-0.0622492
-0.0574636
-0.0529413
-0.0486767
-0.0446622
-0.0408893
-0.0373472
-0.0340256
-0.0309112
-0.0279937
-0.0252563
-0.0226941
-0.0202791
-0.018027
-0.0158747
-0.0139023
-0.0119367
-0.0102512
-0.00834692
-0.00705252
-0.00494384
-0.00438927
-0.00144498
-0.00257399
0.00267914
-0.255742
-0.245427
-0.232013
-0.222985
-0.214135
-0.205243
-0.196629
-0.188207
-0.179923
-0.17176
-0.163709
-0.155766
-0.147937
-0.140232
-0.132664
-0.125251
-0.11801
-0.110957
-0.104109
-0.0974828
-0.0910908
-0.0849449
-0.0790542
-0.0734252
-0.068062
-0.0629663
-0.0581371
-0.0535713
-0.0492637
-0.0452073
-0.0413937
-0.0378125
-0.0344533
-0.0313032
-0.028352
-0.0255827
-0.0229905
-0.0205477
-0.0182694
-0.0160934
-0.0140975
-0.0121135
-0.0104049
-0.00849074
-0.00716649
-0.00506848
-0.00445634
-0.0015805
-0.00256069
0.0024456
-0.256684
-0.246596
-0.233161
-0.224122
-0.215232
-0.206316
-0.197684
-0.189251
-0.180965
-0.172807
-0.164764
-0.156829
-0.149007
-0.141305
-0.133737
-0.126318
-0.119065
-0.111995
-0.105125
-0.0984711
-0.0920474
-0.085866
-0.0799366
-0.0742664
-0.0688603
-0.0637204
-0.0588463
-0.0542357
-0.0498836
-0.0457836
-0.0419274
-0.0383051
-0.0349064
-0.0317187
-0.0287318
-0.0259288
-0.023305
-0.0208327
-0.0185265
-0.0163254
-0.0143046
-0.0123008
-0.0105678
-0.00864293
-0.00728732
-0.00519972
-0.00452787
-0.00172149
-0.00254867
0.00220822
-0.256717
-0.246953
-0.233856
-0.224918
-0.216066
-0.207204
-0.198606
-0.190199
-0.18194
-0.173808
-0.165789
-0.157876
-0.150072
-0.142384
-0.134823
-0.127405
-0.120146
-0.113064
-0.106176
-0.0994977
-0.0930443
-0.0868286
-0.0808611
-0.0751497
-0.0697
-0.0645149
-0.0595947
-0.0549375
-0.0505391
-0.0463934
-0.0424926
-0.038827
-0.0353868
-0.0321593
-0.0291346
-0.026296
-0.0236385
-0.0211349
-0.0187991
-0.0165713
-0.0145241
-0.0124992
-0.0107402
-0.00880366
-0.00741519
-0.00533751
-0.00460396
-0.00186753
-0.00253818
0.00196869
-0.25568
-0.246461
-0.234158
-0.225433
-0.216704
-0.20798
-0.199472
-0.191127
-0.18292
-0.174832
-0.166851
-0.158972
-0.151194
-0.143526
-0.135979
-0.128566
-0.121304
-0.114212
-0.107306
-0.100604
-0.0941203
-0.0878691
-0.0818614
-0.0761063
-0.07061
-0.0653763
-0.0604063
-0.0556987
-0.0512501
-0.0470546
-0.0431052
-0.0393924
-0.0359068
-0.0326358
-0.0295698
-0.0266922
-0.0239979
-0.0214601
-0.019092
-0.0168351
-0.014759
-0.0127111
-0.0109242
-0.00897437
-0.00755122
-0.00548246
-0.00468512
-0.00201861
-0.00252937
0.00172853
-0.254637
-0.245203
-0.233851
-0.225324
-0.216801
-0.208335
-0.200009
-0.191798
-0.183698
-0.175699
-0.167791
-0.159974
-0.152248
-0.144621
-0.137104
-0.129712
-0.122462
-0.115371
-0.108458
-0.101739
-0.0952308
-0.0889484
-0.0829037
-0.0771068
-0.0715648
-0.0662825
-0.0612619
-0.0565025
-0.0520017
-0.0477543
-0.0437538
-0.0399912
-0.0364574
-0.0331403
-0.0300304
-0.0271111
-0.0243777
-0.0218033
-0.0194007
-0.0171127
-0.015006
-0.0129333
-0.011117
-0.00915262
-0.00769346
-0.00563267
-0.00477025
-0.0021731
-0.00252254
0.00149035
-0.24997
-0.239919
-0.230935
-0.222914
-0.214921
-0.206995
-0.199066
-0.191166
-0.183317
-0.175523
-0.167788
-0.160117
-0.152517
-0.144996
-0.13757
-0.130253
-0.123063
-0.116019
-0.10914
-0.102444
-0.0959492
-0.0896706
-0.0836217
-0.0778135
-0.0722544
-0.06695
-0.0619035
-0.0571152
-0.0525832
-0.0483032
-0.0442693
-0.040473
-0.0369058
-0.0335558
-0.0304139
-0.0274638
-0.0247008
-0.0220986
-0.0196691
-0.0173569
-0.0152254
-0.0131337
-0.0112921
-0.00931765
-0.00782566
-0.0057757
-0.00485183
-0.00232269
-0.00251941
0.00125949
-0.225555
-0.232569
-0.229206
-0.221664
-0.214042
-0.206378
-0.198606
-0.190822
-0.183066
-0.175347
-0.167675
-0.160057
-0.152503
-0.145022
-0.137631
-0.130344
-0.123181
-0.11616
-0.1093
-0.102622
-0.0961405
-0.0898731
-0.0838329
-0.0780312
-0.0724765
-0.0671747
-0.0621291
-0.0573402
-0.0528063
-0.0485232
-0.0444852
-0.040684
-0.0371111
-0.0337549
-0.0306061
-0.0276489
-0.0248782
-0.0222685
-0.0198304
-0.0175112
-0.0153694
-0.0132726
-0.0114169
-0.00944353
-0.00792708
-0.00589464
-0.0049195
-0.00245273
-0.00252192
0.00105157
-0.218285
-0.225235
-0.223729
-0.217062
-0.21021
-0.203169
-0.195878
-0.188488
-0.181064
-0.173633
-0.166212
-0.158818
-0.151463
-0.144164
-0.136935
-0.129795
-0.122764
-0.115861
-0.109106
-0.10252
-0.0961188
-0.0899204
-0.0839386
-0.0781854
-0.0726702
-0.0673996
-0.0623776
-0.0576057
-0.0530829
-0.0488058
-0.0447692
-0.0409657
-0.0373873
-0.034023
-0.0308641
-0.0278954
-0.0251116
-0.0224885
-0.0200356
-0.017703
-0.0155449
-0.0134371
-0.0115617
-0.00958429
-0.00803844
-0.00602073
-0.00498778
-0.00258671
-0.00251584
0.000846618
-0.21379
-0.218412
-0.217279
-0.211417
-0.205277
-0.198876
-0.192129
-0.185201
-0.178181
-0.171105
-0.164001
-0.156892
-0.149796
-0.142733
-0.13572
-0.128778
-0.121927
-0.115187
-0.108581
-0.102126
-0.0958428
-0.0897477
-0.0838558
-0.0781799
-0.07273
-0.0675136
-0.0625358
-0.0577988
-0.0533025
-0.0490445
-0.0450205
-0.041224
-0.0376476
-0.0342814
-0.0311171
-0.0281403
-0.0253461
-0.0227116
-0.020245
-0.0178998
-0.0157255
-0.013607
-0.0117111
-0.00973025
-0.0081529
-0.00615225
-0.00505636
-0.00272824
-0.00250451
0.00063195
-0.209404
-0.211906
-0.21083
-0.20571
-0.200187
-0.194368
-0.188151
-0.18169
-0.175083
-0.168376
-0.161605
-0.154797
-0.147975
-0.141163
-0.134379
-0.127647
-0.120988
-0.114424
-0.107975
-0.101662
-0.0955057
-0.0895226
-0.0837286
-0.0781373
-0.0727595
-0.0676036
-0.0626754
-0.0579782
-0.0535128
-0.0492777
-0.0452695
-0.0414826
-0.0379105
-0.0345442
-0.0313758
-0.0283921
-0.0255882
-0.0229427
-0.0204627
-0.018105
-0.0159141
-0.0137848
-0.0118678
-0.00988347
-0.00827337
-0.00629015
-0.00512895
-0.00287543
-0.00249386
0.000411628
-0.204649
-0.205446
-0.204253
-0.199817
-0.194871
-0.189605
-0.183916
-0.177936
-0.171761
-0.165446
-0.159029
-0.152542
-0.146015
-0.139471
-0.132935
-0.126428
-0.119975
-0.113597
-0.107317
-0.101157
-0.0951366
-0.0892736
-0.0835848
-0.0780843
-0.0727841
-0.0676934
-0.0628189
-0.0581649
-0.0537331
-0.0495231
-0.0455324
-0.0417564
-0.0381895
-0.0348234
-0.0316511
-0.0286605
-0.0258465
-0.0231895
-0.0206952
-0.0183243
-0.0161159
-0.0139748
-0.0120354
-0.0100468
-0.00840242
-0.00643599
-0.00520728
-0.00302849
-0.00248531
0.000187303
-0.199155
-0.198852
-0.197446
-0.193617
-0.189237
-0.184509
-0.179352
-0.173867
-0.168147
-0.162248
-0.15621
-0.150072
-0.143863
-0.137611
-0.131341
-0.12508
-0.11885
-0.112677
-0.106582
-0.100588
-0.0947152
-0.0889835
-0.0834099
-0.0780093
-0.0727944
-0.0677756
-0.0629606
-0.0583546
-0.0539605
-0.0497788
-0.0458082
-0.042045
-0.0384846
-0.0351197
-0.031944
-0.0289463
-0.026122
-0.023453
-0.0209437
-0.0185587
-0.0163317
-0.0141778
-0.0122148
-0.0102206
-0.00854051
-0.00658992
-0.00529162
-0.00318714
-0.00247926
-3.90326e-05
-0.192844
-0.192007
-0.190395
-0.187112
-0.183291
-0.179093
-0.174466
-0.169486
-0.164238
-0.158774
-0.153139
-0.147371
-0.141504
-0.135566
-0.129585
-0.123589
-0.117602
-0.111649
-0.105755
-0.0999413
-0.0942305
-0.0886424
-0.0831948
-0.0779039
-0.0727831
-0.0678439
-0.0630949
-0.0585426
-0.0541909
-0.0500415
-0.0460941
-0.0423462
-0.038794
-0.0354315
-0.0322531
-0.0292488
-0.0264142
-0.0237328
-0.021208
-0.0188081
-0.0165615
-0.0143938
-0.0124059
-0.010405
-0.00868771
-0.0067517
-0.00538214
-0.00335067
-0.00247646
-0.000264787
-0.185768
-0.184836
-0.183106
-0.180326
-0.177058
-0.173384
-0.169282
-0.164813
-0.160047
-0.155036
-0.149823
-0.144445
-0.138939
-0.133336
-0.127664
-0.121951
-0.116225
-0.11051
-0.104832
-0.0992137
-0.0936781
-0.0882457
-0.0829355
-0.0777642
-0.0727466
-0.0678949
-0.0632189
-0.0587263
-0.0544221
-0.0503092
-0.0463885
-0.0426585
-0.0391168
-0.0357582
-0.032578
-0.0295676
-0.0267227
-0.0240288
-0.021488
-0.0190724
-0.0168054
-0.0146227
-0.0126089
-0.0105998
-0.0088442
-0.0069211
-0.00547913
-0.0035182
-0.00247785
-0.000487024
-0.17802
-0.177312
-0.17559
-0.173283
-0.170563
-0.167411
-0.163828
-0.159871
-0.155595
-0.151048
-0.14627
-0.1413
-0.136173
-0.130922
-0.125577
-0.120166
-0.114717
-0.109256
-0.103809
-0.0984008
-0.0930537
-0.0877895
-0.0826279
-0.0775866
-0.0726813
-0.0679254
-0.0633298
-0.0589031
-0.0546519
-0.0505801
-0.0466897
-0.0429808
-0.0394517
-0.0360988
-0.0329181
-0.0299022
-0.0270473
-0.0243407
-0.0217835
-0.0193516
-0.0170634
-0.0148645
-0.0128238
-0.0108051
-0.00901009
-0.00709782
-0.00558286
-0.00368876
-0.00248441
-0.000702598
-0.169729
-0.169453
-0.16787
-0.16602
-0.163838
-0.161204
-0.158135
-0.154686
-0.150903
-0.146826
-0.142494
-0.137944
-0.133212
-0.128329
-0.123326
-0.118232
-0.113076
-0.107884
-0.102684
-0.0974988
-0.0923533
-0.0872695
-0.0822679
-0.077367
-0.0725835
-0.0679318
-0.063424
-0.0590701
-0.0548775
-0.0508516
-0.0469957
-0.0433111
-0.0397974
-0.036452
-0.0332722
-0.0302517
-0.0273873
-0.0246681
-0.0220943
-0.0196454
-0.0173353
-0.0151191
-0.0130505
-0.0110206
-0.00918538
-0.00728142
-0.00569353
-0.00386127
-0.00249708
-0.000908244
-0.161046
-0.161312
-0.159984
-0.158582
-0.156923
-0.154802
-0.152239
-0.149292
-0.145999
-0.142394
-0.138514
-0.134393
-0.130065
-0.125562
-0.120915
-0.116152
-0.111303
-0.106395
-0.101454
-0.0965053
-0.0915739
-0.0866823
-0.0818517
-0.0771015
-0.0724493
-0.0679104
-0.0634982
-0.0592237
-0.0550958
-0.051121
-0.047304
-0.0436473
-0.0401518
-0.0368162
-0.0336389
-0.030615
-0.0277418
-0.0250101
-0.0224195
-0.0199532
-0.0176206
-0.0153861
-0.0132889
-0.0112459
-0.00936992
-0.00747137
-0.00581121
-0.0040345
-0.0025167
-0.0011007
-0.152122
-0.152963
-0.151982
-0.151023
-0.149868
-0.148249
-0.146181
-0.143725
-0.140916
-0.137782
-0.134354
-0.130666
-0.12675
-0.122635
-0.118353
-0.113933
-0.109402
-0.104789
-0.100119
-0.0954195
-0.0907137
-0.0860254
-0.0813764
-0.0767868
-0.0722751
-0.0678576
-0.0635487
-0.0593606
-0.0553035
-0.0513852
-0.0476116
-0.0439866
-0.0405125
-0.0371893
-0.0340164
-0.0309904
-0.0281092
-0.0253655
-0.0227583
-0.0202741
-0.0179186
-0.0156648
-0.0135382
-0.0114805
-0.00956339
-0.00766698
-0.00593591
-0.00420717
-0.002544
-0.00127687
-0.143105
-0.144499
-0.143926
-0.143401
-0.142725
-0.141592
-0.140005
-0.138027
-0.135692
-0.133021
-0.130043
-0.126787
-0.123285
-0.119564
-0.115654
-0.111584
-0.107381
-0.103072
-0.0986838
-0.0942425
-0.0897725
-0.0852976
-0.0808399
-0.0764203
-0.0720579
-0.06777
-0.063572
-0.0594773
-0.0554972
-0.0516408
-0.0479154
-0.0443263
-0.0408769
-0.0375688
-0.0344024
-0.0313759
-0.0284878
-0.0257328
-0.0231092
-0.020607
-0.0182283
-0.0159543
-0.0137979
-0.0117236
-0.0097653
-0.00786743
-0.00606745
-0.00437794
-0.0025795
-0.00143397
-0.134127
-0.136016
-0.135882
-0.135779
-0.135552
-0.134882
-0.133758
-0.132242
-0.130366
-0.128147
-0.125611
-0.122784
-0.119693
-0.116367
-0.112832
-0.109117
-0.105247
-0.10125
-0.0971517
-0.0929774
-0.0887519
-0.0844991
-0.0802414
-0.0760002
-0.0717953
-0.0676448
-0.0635651
-0.0595704
-0.0556733
-0.0518843
-0.048212
-0.0446629
-0.0412418
-0.0379517
-0.0347943
-0.0317691
-0.0288755
-0.0261099
-0.0234705
-0.0209503
-0.0185484
-0.0162534
-0.0140669
-0.0119743
-0.00997494
-0.00807176
-0.00620553
-0.00454546
-0.00262348
-0.00156975
-0.125304
-0.12761
-0.127919
-0.128219
-0.128408
-0.128174
-0.12749
-0.126415
-0.124979
-0.123198
-0.121092
-0.118685
-0.116001
-0.113067
-0.109907
-0.106548
-0.103015
-0.0993342
-0.0955306
-0.0916296
-0.0876553
-0.0836317
-0.0795815
-0.0755261
-0.071486
-0.06748
-0.0635251
-0.0596368
-0.0558287
-0.0521125
-0.048498
-0.0449931
-0.041604
-0.038335
-0.035189
-0.0321672
-0.0292696
-0.0264945
-0.02384
-0.0213021
-0.0188771
-0.0165605
-0.014344
-0.0122312
-0.0101914
-0.00827887
-0.00634966
-0.00470843
-0.00267591
-0.00168262
-0.116731
-0.119371
-0.120105
-0.120782
-0.121352
-0.12152
-0.12125
-0.120592
-0.119576
-0.118214
-0.116523
-0.114523
-0.112238
-0.109689
-0.1069
-0.103895
-0.100699
-0.0973361
-0.0938303
-0.0902064
-0.0864882
-0.0826992
-0.0788621
-0.0749987
-0.0711296
-0.0672741
-0.0634501
-0.059674
-0.0559603
-0.0523219
-0.0487698
-0.0453133
-0.0419599
-0.0387152
-0.0355834
-0.032567
-0.0296672
-0.0268839
-0.0242154
-0.0216602
-0.0192125
-0.0168739
-0.0146274
-0.012493
-0.0104135
-0.00848754
-0.00649913
-0.00486564
-0.00273644
-0.00177185
-0.108484
-0.111376
-0.112502
-0.113525
-0.114438
-0.114974
-0.115087
-0.114819
-0.114198
-0.113234
-0.11194
-0.110333
-0.108433
-0.10626
-0.103835
-0.10118
-0.0983173
-0.0952706
-0.0920629
-0.0887176
-0.085258
-0.081707
-0.0780871
-0.0744201
-0.0707268
-0.0670269
-0.0633389
-0.05968
-0.0560656
-0.0525096
-0.0490243
-0.0456202
-0.0423059
-0.0390887
-0.0359738
-0.0329652
-0.0300652
-0.0272751
-0.0245937
-0.0220219
-0.0195522
-0.0171913
-0.0149155
-0.0127579
-0.01064
-0.00869642
-0.00665305
-0.00501601
-0.00280435
-0.00183759
-0.100619
-0.103692
-0.105167
-0.106501
-0.10772
-0.108586
-0.109049
-0.109143
-0.108891
-0.108301
-0.107382
-0.10615
-0.10462
-0.102809
-0.100737
-0.0984238
-0.0958892
-0.0931549
-0.0902427
-0.0871751
-0.0839742
-0.0806625
-0.077262
-0.0737941
-0.0702799
-0.0667394
-0.0631914
-0.0596537
-0.0561427
-0.0526732
-0.0492585
-0.0459103
-0.0426386
-0.0394519
-0.0363566
-0.0333582
-0.0304599
-0.0276648
-0.0249718
-0.0223842
-0.0198935
-0.0175105
-0.0152059
-0.0130241
-0.010869
-0.00890402
-0.00681025
-0.00515865
-0.00287856
-0.00188097
-0.0931802
-0.0963723
-0.0981484
-0.0997582
-0.101245
-0.102405
-0.103184
-0.103609
-0.103696
-0.103454
-0.102888
-0.102009
-0.100831
-0.0993677
-0.0976359
-0.0956528
-0.0934371
-0.0910082
-0.0883866
-0.0855929
-0.0826486
-0.0795752
-0.076394
-0.0731263
-0.0697929
-0.0664138
-0.0630084
-0.0595949
-0.0561904
-0.0528106
-0.0494698
-0.0461808
-0.0429547
-0.0398012
-0.0367282
-0.0337423
-0.0308478
-0.0280493
-0.0253464
-0.0227441
-0.0202333
-0.0178286
-0.0154963
-0.0132893
-0.0110988
-0.0091088
-0.00696937
-0.00529288
-0.00295768
-0.001904
-0.0861977
-0.0894595
-0.0914904
-0.093339
-0.0950578
-0.0964751
-0.0975371
-0.09826
-0.0986583
-0.0987361
-0.0984972
-0.097949
-0.0971019
-0.0959678
-0.0945602
-0.0928939
-0.0909855
-0.0888524
-0.0865133
-0.0839875
-0.0812951
-0.0784566
-0.0754926
-0.0724239
-0.069271
-0.066054
-0.0627923
-0.0595047
-0.0562087
-0.0529209
-0.0496564
-0.046429
-0.043251
-0.0401333
-0.0370849
-0.0341137
-0.0312251
-0.0284249
-0.0257137
-0.0230981
-0.0205686
-0.0181426
-0.0157838
-0.0135511
-0.0113272
-0.00930907
-0.00712876
-0.0054182
-0.00304007
-0.00190945
-0.079696
-0.0829891
-0.0852312
-0.0872837
-0.0892012
-0.090841
-0.0921513
-0.0931408
-0.0938195
-0.094189
-0.0942503
-0.0940081
-0.0934697
-0.0926441
-0.0915422
-0.0901765
-0.0885611
-0.0867115
-0.0846444
-0.0823776
-0.0799298
-0.0773204
-0.0745691
-0.0716961
-0.0687215
-0.0656652
-0.0625468
-0.0593852
-0.0561984
-0.0530037
-0.049817
-0.046653
-0.043525
-0.0404451
-0.0374232
-0.0344686
-0.0315878
-0.0287879
-0.02607
-0.0234424
-0.0208957
-0.0184493
-0.0160656
-0.0138069
-0.0115519
-0.00950308
-0.00728658
-0.00553433
-0.00312389
-0.00190066
-0.0736958
-0.0769915
-0.0794056
-0.0816294
-0.0837147
-0.0855444
-0.0870703
-0.0882948
-0.0892235
-0.0898554
-0.0901894
-0.090227
-0.0899728
-0.0894332
-0.0886164
-0.0875325
-0.0861932
-0.084612
-0.0828037
-0.0807844
-0.0785714
-0.0761827
-0.0736372
-0.0709543
-0.0681536
-0.0652547
-0.0622771
-0.0592399
-0.0561616
-0.0530598
-0.0499512
-0.0468514
-0.0437745
-0.0407336
-0.0377399
-0.0348036
-0.0319322
-0.0291341
-0.0264113
-0.0237732
-0.021211
-0.0187453
-0.0163384
-0.0140539
-0.01177
-0.00968898
-0.00744077
-0.0056411
-0.00320725
-0.0018812
-0.0682171
-0.0714946
-0.0740465
-0.0764122
-0.0786369
-0.0806265
-0.082337
-0.0837659
-0.0849145
-0.0857795
-0.0863576
-0.0866478
-0.086652
-0.0863739
-0.0858194
-0.0849962
-0.0839137
-0.0825833
-0.0810179
-0.0792319
-0.0772409
-0.075062
-0.0727128
-0.0702119
-0.0675782
-0.0648311
-0.06199
-0.0590738
-0.0561015
-0.0530909
-0.0500595
-0.0470235
-0.0439979
-0.0409967
-0.038032
-0.0351151
-0.0322546
-0.0294597
-0.0267336
-0.0240866
-0.0215105
-0.0190268
-0.0165986
-0.0142891
-0.0119789
-0.00986479
-0.00758906
-0.0057384
-0.00328823
-0.00185469
-0.0632811
-0.066526
-0.0691865
-0.0716679
-0.0740068
-0.0761288
-0.0779951
-0.0795989
-0.080938
-0.0820069
-0.0828003
-0.083315
-0.0835504
-0.0835079
-0.083191
-0.0826051
-0.0817575
-0.0806576
-0.0793164
-0.0777466
-0.0759624
-0.0739793
-0.0718141
-0.0694844
-0.0670086
-0.0644054
-0.0616939
-0.0588934
-0.0560226
-0.0531
-0.0501433
-0.0471694
-0.0441941
-0.0412322
-0.0382967
-0.0353998
-0.0325511
-0.0297607
-0.0270328
-0.0243783
-0.0217903
-0.01929
-0.0168426
-0.0145092
-0.0121755
-0.0100284
-0.00772906
-0.00582609
-0.00336503
-0.0018244
-0.0589119
-0.0621157
-0.0648599
-0.0674341
-0.0698647
-0.0720944
-0.0740897
-0.0758406
-0.0773418
-0.0785858
-0.0795655
-0.0802759
-0.0807142
-0.0808797
-0.0807737
-0.0803995
-0.0797626
-0.0788703
-0.0777318
-0.0763583
-0.0747624
-0.0729585
-0.0709621
-0.06879
-0.0664598
-0.0639899
-0.0613991
-0.0587064
-0.0559307
-0.0530908
-0.0502047
-0.0472898
-0.0443626
-0.0414386
-0.0385316
-0.0356547
-0.0328182
-0.0300332
-0.0273046
-0.0246441
-0.0220458
-0.0195309
-0.0170665
-0.0147109
-0.0123563
-0.0101776
-0.00785825
-0.00590389
-0.00343601
-0.0017931
-0.0551382
-0.0582973
-0.0611046
-0.0637514
-0.0662542
-0.0685697
-0.0706692
-0.072541
-0.0741767
-0.0755674
-0.0767045
-0.0775812
-0.0781931
-0.0785375
-0.0786139
-0.0784237
-0.0779706
-0.0772601
-0.0763
-0.0750997
-0.0736706
-0.0720258
-0.0701799
-0.0681487
-0.0659492
-0.0635992
-0.0611173
-0.0585222
-0.0558329
-0.0530682
-0.0502467
-0.0473861
-0.0445034
-0.0416146
-0.0387344
-0.0358765
-0.0330521
-0.0302729
-0.0275447
-0.0248794
-0.0222728
-0.019745
-0.017266
-0.0148904
-0.0125179
-0.0103099
-0.00797398
-0.00597131
-0.00349965
-0.0017629
-0.051996
-0.0551111
-0.0579643
-0.0606664
-0.0632242
-0.0656057
-0.067787
-0.0697547
-0.0714985
-0.0730078
-0.0742731
-0.0752862
-0.0760412
-0.0765339
-0.0767621
-0.0767258
-0.0764269
-0.0758697
-0.0750602
-0.0740068
-0.0727197
-0.0712107
-0.0694935
-0.0675832
-0.065496
-0.0632495
-0.0608616
-0.0583511
-0.0557369
-0.053038
-0.0502729
-0.04746
-0.0446165
-0.0417591
-0.0389029
-0.0360623
-0.0332491
-0.0304755
-0.0277483
-0.0250796
-0.0224662
-0.0199277
-0.0174367
-0.0150437
-0.0126565
-0.0104225
-0.00807348
-0.00602761
-0.00355452
-0.00173514
-0.0495277
-0.0526048
-0.0554901
-0.0582327
-0.0608307
-0.0632608
-0.0655031
-0.0675431
-0.069369
-0.0709691
-0.0723331
-0.0734518
-0.074318
-0.0749265
-0.0752737
-0.0753584
-0.0751813
-0.0747453
-0.0740556
-0.0731192
-0.0719453
-0.070545
-0.0689311
-0.067118
-0.0651214
-0.0629584
-0.0606467
-0.0582048
-0.0556517
-0.0530063
-0.0502874
-0.0475135
-0.0447024
-0.0418709
-0.0390347
-0.0362085
-0.0334049
-0.0306364
-0.0279105
-0.0252394
-0.0226209
-0.0200739
-0.0175736
-0.0151666
-0.0127679
-0.0105125
-0.00815378
-0.00607183
-0.00359931
-0.00171028
-0.0478001
-0.0508466
-0.0537514
-0.0565202
-0.0591442
-0.0616063
-0.0638892
-0.0659782
-0.0678601
-0.0695225
-0.0709546
-0.0721464
-0.0730901
-0.0737794
-0.07421
-0.0743797
-0.0742884
-0.0739381
-0.0733331
-0.0724798
-0.0713864
-0.0700635
-0.0685233
-0.0667796
-0.0648479
-0.0627448
-0.0604878
-0.0580954
-0.0555863
-0.0529795
-0.0502941
-0.0475486
-0.0447609
-0.0419484
-0.0391268
-0.0363114
-0.0335149
-0.0307504
-0.0280256
-0.0253529
-0.0227311
-0.0201781
-0.0176713
-0.015254
-0.0128478
-0.0105761
-0.00821221
-0.0061019