/*--------------------------------*- C++ -*----------------------------------*\
  =========                 |
  \\      /  F ield         | OpenFOAM: The Open Source CFD Toolbox
   \\    /   O peration     | Website:  https://openfoam.org
    \\  /    A nd           | Version:  7
     \\/     M anipulation  |
\*---------------------------------------------------------------------------*/
FoamFile
{
    version     2.0;
    format      ascii;
    class       volVectorField;
    location    "20";
    object      U;
}
// * * * * * * * * * * * * * * * * * * * * * * * * * * * * * * * * * * * * * //

dimensions      [0 1 -1 0 0 0 0];

internalField   nonuniform List<vector> 
5650
(
(-0.0338265 0.000764814 2.84636e-22)
(-0.0355096 0.000164185 -2.01624e-21)
(-0.0347875 -0.000501351 -1.021e-20)
(-0.0314366 -0.00120977 -2.07527e-20)
(-0.0253132 -0.0019378 5.57149e-21)
(-0.016364 -0.002652 7.66434e-21)
(-0.00470994 -0.00329263 6.34563e-21)
(0.00913866 -0.00376934 1.04521e-20)
(0.0249969 -0.00396222 3.45182e-21)
(-0.0325711 0.00224352 -8.51038e-21)
(-0.0337644 0.000449686 -1.30559e-20)
(-0.0324988 -0.0015367 1.57348e-20)
(-0.0285537 -0.00364997 4.25708e-20)
(-0.0217874 -0.00582093 -5.76101e-20)
(-0.0121462 -0.00795028 1.15985e-21)
(0.000246295 -0.00985988 -9.98069e-21)
(0.0148554 -0.0112789 -3.50064e-21)
(0.0317108 -0.011836 3.9023e-21)
(-0.0300483 0.00357075 -4.50989e-20)
(-0.0302642 0.000607809 -2.95059e-20)
(-0.0279142 -0.00266883 8.15907e-20)
(-0.0227837 -0.00615106 -3.24929e-20)
(-0.0147357 -0.0097256 6.14511e-20)
(-0.00371587 -0.01323 -5.35803e-20)
(0.0101471 -0.0163713 -1.98523e-20)
(0.026266 -0.0186998 -7.54163e-20)
(0.0451043 -0.0195557 1.05924e-20)
(-0.024989 0.000557642 7.48588e-20)
(-0.0210186 -0.00395844 -9.40803e-20)
(-0.0141182 -0.00874992 -9.93205e-20)
(-0.00415783 -0.0136625 9.49938e-20)
(0.0089162 -0.0184735 -8.82405e-20)
(0.0249682 -0.0227844 4.72108e-20)
(0.0433237 -0.0259682 -2.7973e-20)
(0.0651069 -0.0270123 -1.21008e-20)
(-0.0179089 0.000224366 -1.09667e-19)
(-0.0117898 -0.00546036 1.34533e-19)
(-0.00254474 -0.0114776 -1.28041e-19)
(0.00994628 -0.0176356 -9.65114e-20)
(0.0257332 -0.0236575 4.93039e-21)
(0.0446716 -0.029049 1.07361e-19)
(0.0659563 -0.0330128 -2.51099e-20)
(0.0916075 -0.034088 1.39763e-20)
(-0.00898376 -0.000458164 1.09792e-19)
(-0.000197732 -0.00722105 8.86491e-20)
(0.0119536 -0.0143567 3.66195e-20)
(0.0275756 -0.0216404 1.07267e-19)
(0.0467105 -0.0287496 3.05407e-20)
(0.0692036 -0.0351038 -1.28899e-19)
(0.0940635 -0.0397523 2.20003e-19)
(0.124449 -0.0406537 -1.16378e-20)
(0.00183678 -0.00154479 -1.5067e-19)
(0.0137952 -0.00927599 -9.04616e-20)
(0.0293972 -0.0173995 7.43613e-20)
(0.0487278 -0.0256623 -4.38966e-20)
(0.0718144 -0.0337047 -6.26766e-20)
(0.0984914 -0.0408738 -9.82286e-20)
(0.127513 -0.0460926 -2.11447e-19)
(0.163422 -0.0465672 2.02298e-19)
(0.0146129 -0.00307622 -6.6287e-20)
(0.0302334 -0.0116469 3.08337e-20)
(0.0498091 -0.0206044 2.01759e-19)
(0.0733968 -0.0296726 -1.01357e-19)
(0.100999 -0.0384637 2.40627e-19)
(0.132438 -0.0462677 2.39349e-19)
(0.166135 -0.0519247 1.67884e-19)
(0.208252 -0.0516729 -1.70428e-19)
(0.0294139 -0.00507614 -1.76822e-19)
(0.0491675 -0.0143387 -1.43131e-19)
(0.0732136 -0.0239537 -9.2239e-20)
(0.101571 -0.0336266 -6.04703e-20)
(0.134204 -0.0429512 9.40793e-20)
(0.170919 -0.0511766 -1.27164e-19)
(0.209717 -0.0571229 -5.82042e-20)
(0.258588 -0.0558029 3.06495e-20)
(0.0463173 -0.00754851 3.73887e-19)
(0.0706527 -0.017337 1.86787e-19)
(0.0996337 -0.0274108 -1.45107e-19)
(0.133229 -0.0374615 5.12309e-21)
(0.171347 -0.0470743 7.21464e-20)
(0.21377 -0.0554729 8.50881e-20)
(0.257993 -0.0615444 -2.86078e-19)
(0.313991 -0.0587801 3.1851e-19)
(0.0947456 -0.020605 -2.68035e-19)
(0.129088 -0.0309175 2.27383e-19)
(0.168336 -0.0410942 2.81124e-20)
(0.212318 -0.0507214 -2.96423e-19)
(0.260782 -0.0590114 8.28028e-21)
(0.310637 -0.0650288 3.91645e-20)
(0.373917 -0.0604235 -3.966e-19)
(0.121501 -0.0240815 -1.69015e-21)
(0.161585 -0.0343925 1.56614e-19)
(0.206836 -0.0444209 2.41933e-19)
(0.256974 -0.0537633 -1.76866e-19)
(0.31169 -0.0616323 -3.86348e-20)
(0.367254 -0.0674012 -9.7796e-20)
(0.437705 -0.0605551 2.35592e-19)
(0.150968 -0.0276791 -3.29895e-19)
(0.197118 -0.0377301 2.23477e-19)
(0.248644 -0.0473168 -4.2888e-20)
(0.305127 -0.0560545 3.72364e-19)
(0.366164 -0.0631665 5.8715e-20)
(0.427371 -0.0684751 -2.22491e-19)
(0.50457 -0.0590099 1.29016e-19)
(0.18318 -0.0312836 5.12402e-19)
(0.235655 -0.0408002 -2.49259e-19)
(0.293639 -0.0496377 -1.36005e-19)
(0.356535 -0.0574375 7.23508e-20)
(0.423796 -0.0634438 -1.70585e-19)
(0.490431 -0.0680591 1.02388e-20)
(0.5736 -0.0556486 -1.84708e-19)
(0.277133 -0.0434502 4.30582e-19)
(0.341652 -0.0512236 -2.69634e-19)
(0.410894 -0.0577485 -7.2011e-21)
(0.484102 -0.0623037 -1.46753e-20)
(0.555799 -0.0659669 3.54953e-19)
(0.643766 -0.050379 -8.36169e-20)
(0.321446 -0.0455078 -3.17907e-19)
(0.392457 -0.0519036 4.21225e-19)
(0.46783 -0.0568249 1.02408e-19)
(0.546512 -0.059609 4.30531e-19)
(0.622761 -0.0620297 2.1096e-19)
(0.713947 -0.0431829 3.10296e-20)
(0.368437 -0.0467872 9.60191e-20)
(0.445764 -0.0515037 1.44893e-19)
(0.526892 -0.0545158 -4.38943e-20)
(0.610379 -0.055259 -3.75473e-19)
(0.690533 -0.0560895 -6.25424e-20)
(0.782921 -0.0340869 3.04506e-19)
(0.50121 -0.0498564 -2.07322e-19)
(0.587551 -0.0506968 -3.14202e-20)
(0.675 -0.0492026 2.6837e-21)
(0.758268 -0.047949 2.07778e-20)
(0.849308 -0.0230447 -3.67216e-19)
(0.558355 -0.046813 1.07494e-19)
(0.649215 -0.045292 -2.60392e-19)
(0.739678 -0.0414594 2.99271e-19)
(0.825195 -0.0373811 -7.23992e-20)
(0.911767 -0.0102961 5.19746e-20)
(0.71121 -0.038291 1.35129e-19)
(0.803739 -0.032144 -6.80612e-19)
(0.890858 -0.0245285 -8.97101e-20)
(0.970364 0.00171124 1.67157e-19)
(0.77276 -0.0297325 -1.36994e-19)
(0.866304 -0.0214816 2.39695e-21)
(0.954451 -0.0105857 3.5363e-19)
(1.02922 0.00821948 -2.27258e-19)
(0.926173 -0.00974666 -4.95032e-19)
(1.01284 0.00251327 -2.40987e-19)
(1.08367 0.011598 1.91252e-19)
(1.06534 0.0159334 4.37032e-19)
(1.13105 0.0203147 1.0649e-19)
(1.11203 0.0300328 2.16649e-19)
(1.17149 0.0324377 2.94952e-20)
(1.20562 0.0462323 -5.03519e-19)
(1.20562 -0.0462323 -5.08854e-20)
(1.11203 -0.0300328 -3.68446e-19)
(1.17149 -0.0324377 1.02355e-20)
(0.982485 -0.00312141 5.38455e-19)
(1.06534 -0.0159334 3.01361e-19)
(1.13105 -0.0203147 1.49881e-19)
(0.926173 0.00974666 -3.38276e-19)
(1.01284 -0.00251327 -3.41988e-19)
(1.08367 -0.011598 3.81251e-19)
(0.77276 0.0297325 3.80704e-19)
(0.866304 0.0214816 1.67633e-19)
(0.954451 0.0105857 8.79872e-20)
(1.02922 -0.00821948 -8.94833e-20)
(0.71121 0.038291 1.34896e-19)
(0.803739 0.032144 -5.16164e-19)
(0.890858 0.0245285 -3.51069e-19)
(0.970364 -0.00171124 1.25715e-19)
(0.558355 0.046813 -3.4159e-19)
(0.649215 0.045292 -1.97457e-19)
(0.739678 0.0414594 4.02579e-19)
(0.825195 0.0373811 -8.36714e-20)
(0.911767 0.0102961 7.27672e-20)
(0.50121 0.0498564 -2.17733e-19)
(0.587551 0.0506968 -4.59511e-20)
(0.675 0.0492026 -3.65599e-21)
(0.758268 0.047949 1.43135e-19)
(0.849308 0.0230447 -4.20165e-19)
(0.368437 0.0467872 -3.44857e-19)
(0.445764 0.0515037 2.74206e-20)
(0.526892 0.0545158 -6.39722e-20)
(0.610379 0.055259 -2.52391e-19)
(0.690533 0.0560895 -3.15115e-19)
(0.782921 0.0340869 2.86464e-19)
(0.321446 0.0455078 -1.17934e-19)
(0.392457 0.0519036 3.93244e-19)
(0.46783 0.0568249 5.51435e-20)
(0.546512 0.059609 3.89321e-19)
(0.622761 0.0620297 2.94197e-19)
(0.713947 0.0431829 1.27591e-19)
(0.277133 0.0434502 2.55755e-19)
(0.341652 0.0512236 -2.10781e-19)
(0.410894 0.0577485 -2.40038e-19)
(0.484102 0.0623037 1.84302e-19)
(0.555799 0.0659669 2.55241e-19)
(0.643766 0.050379 1.57903e-20)
(0.18318 0.0312836 2.68613e-19)
(0.235655 0.0408002 -3.10481e-19)
(0.293639 0.0496377 1.57741e-19)
(0.356535 0.0574375 -4.06721e-20)
(0.423796 0.0634438 -4.05852e-19)
(0.490431 0.0680591 2.15788e-19)
(0.5736 0.0556486 -2.81755e-19)
(0.150968 0.0276791 -3.84217e-19)
(0.197118 0.0377301 4.63695e-20)
(0.248644 0.0473168 -4.42998e-20)
(0.305127 0.0560545 5.51598e-19)
(0.366164 0.0631665 1.04956e-19)
(0.427371 0.0684751 -4.06142e-19)
(0.50457 0.0590099 1.2587e-19)
(0.121501 0.0240815 1.37715e-19)
(0.161585 0.0343925 7.08575e-21)
(0.206836 0.0444209 2.08469e-19)
(0.256974 0.0537633 -1.49041e-19)
(0.31169 0.0616323 -2.32355e-19)
(0.367254 0.0674012 4.81555e-21)
(0.437705 0.0605551 2.97362e-19)
(0.0947456 0.020605 -1.79021e-19)
(0.129088 0.0309175 3.24928e-19)
(0.168336 0.0410942 -2.35217e-19)
(0.212318 0.0507214 -2.53882e-19)
(0.260782 0.0590114 7.51119e-20)
(0.310637 0.0650288 -5.18934e-20)
(0.373917 0.0604235 -3.84267e-19)
(0.0463173 0.00754852 3.29305e-20)
(0.0706527 0.017337 5.16763e-20)
(0.0996337 0.0274108 -2.16262e-19)
(0.133229 0.0374615 1.33719e-19)
(0.171347 0.0470743 8.21019e-20)
(0.21377 0.0554729 4.63843e-20)
(0.257993 0.0615444 -1.2874e-19)
(0.313991 0.0587801 9.096e-20)
(0.029414 0.00507615 -1.2026e-19)
(0.0491675 0.0143387 -3.70482e-20)
(0.0732136 0.0239537 -8.46744e-20)
(0.101571 0.0336266 -1.48903e-19)
(0.134204 0.0429512 -9.40499e-21)
(0.170919 0.0511766 -1.43116e-19)
(0.209717 0.0571229 6.63071e-20)
(0.258588 0.0558029 -1.40974e-20)
(0.0146129 0.00307623 9.1668e-20)
(0.0302334 0.0116469 -7.28512e-20)
(0.0498091 0.0206044 1.32085e-19)
(0.0733968 0.0296726 6.4558e-20)
(0.100999 0.0384637 9.41991e-20)
(0.132438 0.0462677 2.62796e-19)
(0.166135 0.0519247 1.87689e-19)
(0.208252 0.0516729 -2.0096e-19)
(0.00183678 0.0015448 -1.13821e-19)
(0.0137952 0.009276 -1.14547e-19)
(0.0293972 0.0173995 3.98922e-20)
(0.0487278 0.0256623 3.909e-20)
(0.0718144 0.0337047 -1.95441e-19)
(0.0984914 0.0408738 -7.31978e-20)
(0.127513 0.0460926 -1.83101e-19)
(0.163422 0.0465672 1.51889e-19)
(-0.00898376 0.000458173 1.63808e-19)
(-0.000197732 0.00722106 3.58376e-20)
(0.0119536 0.0143568 1.24013e-19)
(0.0275756 0.0216404 7.44031e-20)
(0.0467105 0.0287496 5.83844e-20)
(0.0692036 0.0351038 -1.02614e-19)
(0.0940635 0.0397523 2.08082e-19)
(0.124449 0.0406537 -2.72236e-20)
(-0.0179089 -0.000224357 -1.39748e-19)
(-0.0117898 0.00546037 1.46063e-19)
(-0.00254474 0.0114776 -9.98543e-20)
(0.00994628 0.0176357 -1.87762e-19)
(0.0257332 0.0236575 4.35203e-20)
(0.0446716 0.029049 1.37183e-19)
(0.0659563 0.0330128 1.79711e-20)
(0.0916075 0.034088 -3.62359e-20)
(-0.024989 -0.000557632 4.63921e-20)
(-0.0210186 0.00395845 -1.03675e-19)
(-0.0141182 0.00874993 -6.95286e-20)
(-0.00415783 0.0136626 4.76699e-20)
(0.0089162 0.0184735 -2.93557e-20)
(0.0249682 0.0227844 2.37312e-21)
(0.0433236 0.0259682 5.52799e-21)
(0.0651068 0.0270124 -6.30732e-20)
(-0.0300483 -0.00357074 8.75708e-20)
(-0.0302642 -0.000607799 -9.69636e-21)
(-0.0279142 0.00266884 4.76541e-20)
(-0.0227837 0.00615107 1.83945e-20)
(-0.0147357 0.00972561 1.4747e-20)
(-0.00371587 0.01323 -1.92706e-20)
(0.010147 0.0163713 -7.00276e-20)
(0.026266 0.0186998 -2.90744e-20)
(0.0451043 0.0195557 -8.64213e-21)
(-0.0325711 -0.00224351 -1.69993e-20)
(-0.0337644 -0.000449676 8.82209e-21)
(-0.0324988 0.00153671 -1.59788e-20)
(-0.0285537 0.00364998 5.6644e-20)
(-0.0217874 0.00582095 -7.08105e-20)
(-0.0121462 0.00795029 1.41527e-20)
(0.000246294 0.00985989 -8.22174e-21)
(0.0148554 0.0112789 5.3109e-21)
(0.0317108 0.011836 -1.13891e-20)
(-0.0338265 -0.000764805 4.04305e-22)
(-0.0355096 -0.000164175 -2.40975e-21)
(-0.0347875 0.000501362 -1.08408e-20)
(-0.0314366 0.00120978 -1.39893e-20)
(-0.0253132 0.00193781 5.11095e-21)
(-0.016364 0.00265201 2.20779e-21)
(-0.00470994 0.00329264 7.98033e-21)
(0.00913866 0.00376935 1.23643e-20)
(0.0249969 0.00396223 1.56433e-21)
(0.0367379 -0.0034211 3.09949e-21)
(0.0454054 -0.00320636 2.12331e-21)
(0.0539805 -0.00311922 -1.42323e-21)
(0.0627037 -0.00307891 4.70589e-22)
(0.071621 -0.003074 -2.23667e-21)
(0.0808336 -0.0030939 -9.84113e-22)
(0.0904159 -0.00312831 1.18845e-21)
(0.100415 -0.00317054 -3.0786e-21)
(0.110863 -0.00321567 5.94775e-21)
(0.121782 -0.00325973 -2.61438e-21)
(0.133182 -0.00329955 -1.75018e-23)
(0.145061 -0.00333269 -7.08665e-22)
(0.15741 -0.0033573 2.68317e-21)
(0.170211 -0.0033721 -1.01482e-22)
(0.183441 -0.00337629 -2.26173e-21)
(0.19707 -0.00336951 1.13207e-21)
(0.211064 -0.00335173 -5.97339e-22)
(0.225386 -0.00332322 1.21368e-23)
(0.239999 -0.00328447 3.27298e-22)
(0.25486 -0.00323613 6.44978e-22)
(0.269929 -0.00317898 -5.71213e-23)
(0.285165 -0.00311386 -5.11355e-22)
(0.300527 -0.0030417 6.50408e-22)
(0.315974 -0.0029634 -1.06624e-21)
(0.331468 -0.00287989 1.08947e-21)
(0.346972 -0.00279209 -2.2387e-22)
(0.362452 -0.00270087 -7.46903e-23)
(0.377872 -0.00260707 1.53056e-22)
(0.393204 -0.00251149 -6.08574e-22)
(0.408418 -0.00241486 4.81304e-22)
(0.42349 -0.00231788 -7.65607e-23)
(0.438395 -0.00222116 1.29905e-22)
(0.453113 -0.00212527 -7.18737e-23)
(0.467628 -0.00203073 -1.17105e-22)
(0.481922 -0.00193798 -4.19357e-23)
(0.495987 -0.0018474 2.07763e-22)
(0.509805 -0.0017594 5.65718e-24)
(0.523386 -0.00167411 -1.62759e-23)
(0.536692 -0.00159217 -7.27291e-23)
(0.549785 -0.00151296 6.68228e-23)
(0.562548 -0.00143834 -7.88763e-23)
(0.575203 -0.00136513 1.98526e-23)
(0.587353 -0.00129996 -3.03062e-23)
(0.599741 -0.00123042 -1.62781e-23)
(0.61106 -0.00118016 1.59066e-24)
(0.623663 -0.00110584 3.54659e-25)
(0.633466 -0.00108516 -1.25005e-23)
(0.647601 -0.000983795 -1.12908e-25)
(0.653922 -0.00101978 -4.1272e-24)
(0.67285 -0.000874345 -5.60638e-24)
(0.0436483 -0.0102151 -5.13532e-21)
(0.0521047 -0.00958327 -6.93047e-21)
(0.0605539 -0.00932669 -5.72044e-21)
(0.0691931 -0.00920719 6.09491e-21)
(0.0780264 -0.00919334 9.63636e-21)
(0.0871575 -0.00925365 -1.78651e-21)
(0.0966607 -0.00935731 -4.89925e-21)
(0.106581 -0.00948431 7.01824e-21)
(0.116949 -0.00961986 -7.89174e-21)
(0.127786 -0.00975203 4.58952e-21)
(0.139101 -0.00987136 -5.43901e-21)
(0.15089 -0.00997053 2.56465e-21)
(0.163145 -0.0100441 2.36802e-21)
(0.175847 -0.0100882 -1.17657e-21)
(0.188971 -0.0101005 2.3006e-21)
(0.202489 -0.0100799 -4.65573e-21)
(0.216367 -0.0100265 3.60561e-21)
(0.230568 -0.00994093 2.63333e-22)
(0.245054 -0.0098248 2.3957e-22)
(0.259786 -0.00968003 -2.77883e-21)
(0.274721 -0.00950894 -9.45673e-24)
(0.289821 -0.00931408 -8.93308e-23)
(0.305044 -0.00909817 -5.88588e-22)
(0.320351 -0.00886395 2.58341e-21)
(0.335704 -0.00861418 -5.91442e-23)
(0.351066 -0.00835159 -9.40039e-22)
(0.366403 -0.0080788 6.01729e-22)
(0.381683 -0.00779832 3.75762e-22)
(0.396874 -0.00751251 -7.84921e-23)
(0.41195 -0.00722359 -1.73353e-22)
(0.426884 -0.0069336 6.45424e-23)
(0.441654 -0.00664441 2.23578e-22)
(0.456239 -0.00635773 1.48729e-22)
(0.470624 -0.00607504 -4.0637e-22)
(0.484791 -0.00579774 4.44038e-22)
(0.498732 -0.00552691 -1.70229e-22)
(0.512429 -0.00526381 -1.98747e-22)
(0.525892 -0.00500879 -2.10718e-22)
(0.539084 -0.00476377 8.3167e-23)
(0.552067 -0.00452695 1.78803e-22)
(0.564722 -0.00430383 -1.07079e-22)
(0.577274 -0.0040849 9.87236e-23)
(0.589324 -0.00389008 8.66142e-24)
(0.601614 -0.00368212 6.82263e-23)
(0.612842 -0.00353193 -4.32027e-24)
(0.625351 -0.00330962 1.42678e-23)
(0.635074 -0.00324797 1.89164e-23)
(0.649114 -0.0029448 -3.52316e-24)
(0.655378 -0.00305249 -1.88231e-23)
(0.674187 -0.00261811 -2.61043e-23)
(0.0574196 -0.0168629 2.69695e-20)
(0.0654553 -0.0158507 -3.46863e-21)
(0.0736488 -0.0154397 -5.14986e-21)
(0.082116 -0.0152457 -1.25443e-20)
(0.0907788 -0.0152259 -4.43345e-21)
(0.0997449 -0.0153288 1.64616e-21)
(0.109089 -0.0155032 -1.52448e-20)
(0.11885 -0.0157159 2.80021e-20)
(0.129058 -0.0159424 -2.32968e-20)
(0.13973 -0.0161627 5.72176e-21)
(0.150873 -0.0163612 1.2331e-21)
(0.162483 -0.0165258 4.86795e-21)
(0.174549 -0.0166474 1.29235e-21)
(0.18705 -0.0167199 -1.20211e-20)
(0.199964 -0.0167395 1.79232e-21)
(0.21326 -0.0167046 6.45993e-21)
(0.226906 -0.0166152 -6.7669e-21)
(0.240865 -0.0164728 3.08325e-21)
(0.2551 -0.0162797 1.87798e-22)
(0.269572 -0.0160392 -2.78522e-21)
(0.284242 -0.0157554 5.95057e-21)
(0.29907 -0.0154322 -1.61177e-21)
(0.314017 -0.0150743 -1.0672e-21)
(0.329044 -0.0146862 9.68991e-22)
(0.344116 -0.0142724 3.92608e-22)
(0.359197 -0.0138375 -1.73872e-21)
(0.374252 -0.0133857 1.92125e-21)
(0.389251 -0.0129213 -8.08431e-22)
(0.404164 -0.012448 7.21089e-22)
(0.418964 -0.0119697 -9.77882e-22)
(0.433626 -0.0114896 -6.03621e-22)
(0.448128 -0.0110108 -3.99295e-22)
(0.462451 -0.0105362 4.8974e-22)
(0.476577 -0.0100682 1.83805e-22)
(0.490492 -0.0096091 2.45048e-23)
(0.504187 -0.00916073 -3.35685e-22)
(0.517644 -0.00872519 2.72959e-22)
(0.530874 -0.008303 3.16103e-22)
(0.54384 -0.00789739 -2.2292e-22)
(0.556603 -0.00750531 -3.38034e-23)
(0.569046 -0.00713599 1.11931e-22)
(0.581391 -0.00677353 -8.95653e-24)
(0.593243 -0.00645114 -1.61964e-22)
(0.605339 -0.00610674 -6.65842e-23)
(0.616385 -0.00585845 2.74926e-23)
(0.62871 -0.00549014 1.1226e-23)
(0.638274 -0.00538873 -4.20768e-23)
(0.652125 -0.00488654 1.09152e-23)
(0.658277 -0.00506525 -3.15381e-24)
(0.676848 -0.00434759 -1.91795e-23)
(0.0779519 -0.0232618 -3.55662e-20)
(0.0853607 -0.0219294 1.60744e-20)
(0.0931606 -0.0213901 -2.60674e-20)
(0.101361 -0.021131 1.61648e-20)
(0.109762 -0.0211112 2.34769e-20)
(0.118476 -0.021261 -1.74553e-20)
(0.127576 -0.0215092 -4.09618e-21)
(0.137097 -0.0218097 9.86385e-21)
(0.147062 -0.0221283 -1.80628e-20)
(0.157485 -0.022437 1.41779e-20)
(0.16837 -0.0227142 1.60319e-21)
(0.179709 -0.022943 -4.22647e-21)
(0.191489 -0.0231114 -4.17099e-22)
(0.203691 -0.023211 2.27124e-21)
(0.216288 -0.0232368 1.26718e-21)
(0.229251 -0.0231868 -5.33256e-22)
(0.242548 -0.0230612 2.98258e-21)
(0.256145 -0.022862 -1.27282e-21)
(0.270005 -0.0225928 2.0909e-22)
(0.28409 -0.0222581 -7.74693e-22)
(0.298364 -0.0218635 5.04968e-21)
(0.312787 -0.0214146 -8.97821e-21)
(0.327324 -0.0209177 5.3139e-21)
(0.341937 -0.0203791 -2.19459e-21)
(0.356592 -0.0198051 4.00333e-21)
(0.371254 -0.0192019 -5.13882e-21)
(0.385892 -0.0185755 4.05119e-21)
(0.400475 -0.0179315 -1.83829e-21)
(0.414975 -0.0172755 7.32057e-22)
(0.429367 -0.0166124 -5.93905e-22)
(0.443626 -0.0159469 6.63933e-22)
(0.457732 -0.0152834 -7.08128e-22)
(0.471665 -0.0146255 6.25801e-22)
(0.485411 -0.0139769 3.71853e-22)
(0.498952 -0.0133407 -2.59513e-22)
(0.512283 -0.0127192 -3.81094e-23)
(0.525386 -0.0121156 -1.53888e-22)
(0.538272 -0.0115305 1.88718e-22)
(0.550902 -0.0109683 2.86719e-22)
(0.563341 -0.0104249 -3.38947e-24)
(0.575469 -0.00991317 -1.00601e-23)
(0.587509 -0.00941075 -1.1834e-22)
(0.599068 -0.00896421 -2.50209e-22)
(0.610878 -0.00848667 6.86551e-23)
(0.621655 -0.00814326 1.30705e-23)
(0.633707 -0.00763222 -6.01255e-23)
(0.643034 -0.00749303 -2.87542e-23)
(0.656606 -0.00679644 -2.11344e-24)
(0.662593 -0.00704502 -5.65457e-24)
(0.680811 -0.00605338 1.05595e-22)
(0.105092 -0.0293013 -1.9994e-20)
(0.111673 -0.0277313 -2.8155e-20)
(0.118931 -0.027103 6.54298e-20)
(0.126761 -0.0267945 -1.35536e-20)
(0.134802 -0.0267852 9.27013e-21)
(0.143171 -0.0269898 4.75713e-21)
(0.151942 -0.0273171 -3.42606e-20)
(0.161137 -0.0277089 3.64632e-20)
(0.170775 -0.0281216 -1.26004e-20)
(0.180863 -0.0285193 2.33728e-21)
(0.191399 -0.0288746 -2.64254e-20)
(0.202375 -0.0291666 1.51895e-20)
(0.213773 -0.0293802 -8.95433e-21)
(0.225572 -0.0295053 -8.84764e-21)
(0.237745 -0.029536 7.65295e-21)
(0.250265 -0.02947 -2.46908e-21)
(0.263099 -0.029308 4.27277e-21)
(0.276214 -0.0290528 5.32814e-21)
(0.289577 -0.0287089 -1.1446e-20)
(0.30315 -0.0282823 7.92877e-21)
(0.3169 -0.0277798 -1.56387e-21)
(0.330791 -0.0272089 4.25124e-21)
(0.344787 -0.0265774 -2.06062e-21)
(0.358855 -0.0258932 -1.41428e-21)
(0.372961 -0.0251643 -2.67302e-21)
(0.387075 -0.0243986 1.64837e-21)
(0.401164 -0.0236036 1.06612e-21)
(0.415202 -0.0227864 -2.04439e-21)
(0.429162 -0.0219541 2.15846e-24)
(0.443019 -0.0211128 7.31584e-22)
(0.456752 -0.0202686 -2.59824e-22)
(0.470339 -0.0194267 1.81251e-21)
(0.483763 -0.0185922 3.43311e-22)
(0.49701 -0.0177694 -8.68813e-22)
(0.510064 -0.0169623 1.13155e-21)
(0.52292 -0.016174 -5.25725e-22)
(0.535559 -0.0154083 -7.57326e-22)
(0.547994 -0.014666 1.04307e-22)
(0.560187 -0.0139529 -2.50227e-22)
(0.5722 -0.0132636 2.15215e-23)
(0.583917 -0.0126145 -4.08511e-22)
(0.595559 -0.0119771 3.10325e-22)
(0.606735 -0.0114111 2.59418e-22)
(0.618171 -0.0108049 2.02566e-22)
(0.628596 -0.0103705 -4.9133e-23)
(0.64029 -0.00972122 1.07295e-22)
(0.649309 -0.00954696 7.29326e-23)
(0.662515 -0.00866233 -2.61272e-24)
(0.668286 -0.00897916 2.49048e-23)
(0.686042 -0.0077263 -1.69312e-22)
(0.138626 -0.0348608 1.73705e-20)
(0.14419 -0.0331581 -1.44226e-21)
(0.150748 -0.0324949 -3.07192e-20)
(0.158091 -0.0321612 5.71993e-20)
(0.165667 -0.0321795 -5.54093e-20)
(0.173594 -0.0324513 2.59785e-20)
(0.181945 -0.0328664 -1.09213e-21)
(0.190727 -0.0333553 -1.1043e-20)
(0.19995 -0.0338652 -1.55501e-20)
(0.209614 -0.0343533 1.51338e-20)
(0.219712 -0.0347865 -3.31655e-21)
(0.230228 -0.0351404 6.38306e-21)
(0.241145 -0.0353975 2.17022e-20)
(0.252437 -0.0355465 -1.88931e-20)
(0.26408 -0.0355809 2.4144e-20)
(0.276045 -0.0354985 -3.09158e-21)
(0.288302 -0.0353005 -2.67101e-20)
(0.300819 -0.0349905 2.46405e-20)
(0.313564 -0.0345743 -8.68898e-21)
(0.326504 -0.034059 8.13418e-21)
(0.339608 -0.0334529 -1.17936e-20)
(0.352841 -0.032765 6.72333e-21)
(0.366173 -0.0320047 -1.21667e-20)
(0.379571 -0.0311814 8.30606e-21)
(0.393005 -0.0303046 -1.43099e-23)
(0.406445 -0.0293838 1.14452e-21)
(0.419865 -0.0284279 -4.37778e-21)
(0.433236 -0.0274457 3.51531e-21)
(0.446536 -0.0264451 -2.54729e-21)
(0.459741 -0.025434 -1.84049e-21)
(0.472829 -0.0244193 1.95057e-21)
(0.485784 -0.0234076 -8.09086e-22)
(0.498588 -0.0224047 1.00433e-21)
(0.511227 -0.0214157 1.22621e-22)
(0.523687 -0.0204457 -3.25673e-22)
(0.535963 -0.0194983 -5.30201e-22)
(0.548038 -0.0185779 1.41695e-21)
(0.559923 -0.0176858 -4.00161e-22)
(0.571583 -0.0168288 -6.53682e-22)
(0.58308 -0.0160002 2.602e-22)
(0.594296 -0.0152203 -3.85341e-22)
(0.605452 -0.014454 1.78015e-22)
(0.616161 -0.0137745 2.79673e-22)
(0.62714 -0.0130453 -2.78455e-22)
(0.637136 -0.012525 7.26696e-23)
(0.648394 -0.0117432 2.4745e-23)
(0.657039 -0.0115372 -1.19184e-23)
(0.669797 -0.0104726 -3.83135e-24)
(0.675306 -0.0108556 -9.08947e-23)
(0.692495 -0.00935743 2.04975e-23)
(0.17828 -0.0398094 -5.81712e-20)
(0.182647 -0.0381 -8.83746e-21)
(0.188338 -0.037473 -2.31286e-20)
(0.195072 -0.0371494 3.99402e-20)
(0.202071 -0.037221 -3.45412e-20)
(0.209454 -0.0375792 4.21416e-20)
(0.21729 -0.0380949 -3.07295e-20)
(0.225569 -0.0386892 2.8734e-20)
(0.234287 -0.0393013 -3.39029e-20)
(0.243435 -0.0398817 2.53789e-20)
(0.252999 -0.0403929 9.81899e-21)
(0.262959 -0.0408078 -4.96558e-21)
(0.273293 -0.041107 -1.62407e-21)
(0.283975 -0.0412786 1.88051e-21)
(0.294979 -0.041316 5.45965e-21)
(0.306278 -0.0412174 -2.35852e-20)
(0.317844 -0.0409846 2.21227e-20)
(0.329648 -0.0406223 -1.40697e-20)
(0.34166 -0.0401372 1.51031e-20)
(0.35385 -0.0395379 -1.32855e-20)
(0.36619 -0.0388339 1.33026e-20)
(0.378649 -0.0380356 -7.35874e-21)
(0.391198 -0.0371538 5.46015e-24)
(0.40381 -0.0361995 6.23735e-21)
(0.416456 -0.0351835 -3.79756e-21)
(0.429109 -0.0341168 -3.85795e-21)
(0.441744 -0.0330095 3.01277e-22)
(0.454338 -0.0318718 4.6228e-21)
(0.466867 -0.0307131 -5.34378e-22)
(0.479311 -0.0295421 2.75401e-21)
(0.491651 -0.028367 -1.99504e-21)
(0.503869 -0.0271952 1.10365e-21)
(0.515951 -0.0260336 2.31519e-22)
(0.527883 -0.0248883 -1.38737e-21)
(0.539652 -0.0237647 1.0533e-21)
(0.551254 -0.0226673 -6.40462e-22)
(0.562672 -0.0216013 -6.93588e-22)
(0.573919 -0.0205678 1.1296e-21)
(0.584959 -0.0195753 -5.43276e-22)
(0.595854 -0.0186153 7.59876e-22)
(0.606488 -0.0177123 -7.4879e-22)
(0.617079 -0.0168243 -2.25613e-22)
(0.627245 -0.0160382 -3.61201e-23)
(0.637693 -0.0151928 2.50329e-22)
(0.647191 -0.0145926 -9.59638e-23)
(0.65794 -0.013685 -3.12444e-23)
(0.666148 -0.0134513 1.25647e-23)
(0.678384 -0.0122161 4.32745e-23)
(0.68359 -0.0126629 1.54917e-23)
(0.700117 -0.0109382 1.22649e-22)
(0.223704 -0.044007 4.31768e-21)
(0.226713 -0.0424374 -1.71498e-20)
(0.231369 -0.041936 -2.75664e-20)
(0.237363 -0.0416715 1.76601e-20)
(0.243671 -0.041833 9.341e-21)
(0.250406 -0.0423041 -5.19915e-20)
(0.257631 -0.0429386 3.63465e-20)
(0.265313 -0.0436497 -1.92818e-20)
(0.273433 -0.0443705 2.57123e-20)
(0.281971 -0.0450463 -9.93087e-21)
(0.290904 -0.0456365 2.19067e-21)
(0.300207 -0.0461118 3.36567e-21)
(0.309853 -0.0464524 -3.16033e-21)
(0.319818 -0.0466461 1.73803e-21)
(0.330075 -0.0466868 -8.18517e-21)
(0.340599 -0.0465733 2.22207e-20)
(0.351363 -0.0463083 -1.37473e-20)
(0.362342 -0.0458974 7.57852e-21)
(0.373509 -0.0453486 -1.47193e-20)
(0.384839 -0.0446715 1.08231e-20)
(0.396304 -0.043877 -8.76165e-21)
(0.407879 -0.0429766 3.09353e-22)
(0.419537 -0.0419825 -2.53089e-21)
(0.431255 -0.0409069 1.1522e-20)
(0.443006 -0.0397622 -9.49016e-21)
(0.454768 -0.0385603 6.09936e-21)
(0.466517 -0.0373129 -2.21078e-21)
(0.478232 -0.0360312 -1.17586e-21)
(0.489892 -0.0347257 -1.4791e-21)
(0.501479 -0.0334063 4.60052e-21)
(0.512975 -0.0320823 -1.27604e-21)
(0.524364 -0.0307619 6.25262e-23)
(0.535633 -0.0294529 8.73758e-23)
(0.54677 -0.0281621 -2.21917e-23)
(0.557763 -0.0268958 -1.66944e-21)
(0.568607 -0.0256588 9.45782e-22)
(0.579288 -0.0244572 -6.96662e-22)
(0.589818 -0.0232922 -5.78964e-22)
(0.600161 -0.0221735 1.38136e-21)
(0.610379 -0.0210913 -6.94341e-22)
(0.620359 -0.0200738 5.8653e-22)
(0.630315 -0.0190725 -2.21762e-22)
(0.639871 -0.0181877 -8.78933e-23)
(0.64972 -0.0172336 -2.92957e-22)
(0.658657 -0.0165603 7.03842e-23)
(0.668834 -0.0155348 -7.99113e-24)
(0.676553 -0.0152775 -5.96429e-23)
(0.688197 -0.0138829 -1.07383e-23)
(0.693065 -0.0143906 1.12342e-22)
(0.708843 -0.0124606 4.84309e-23)
(0.274469 -0.0473102 -1.22076e-20)
(0.275983 -0.0460447 8.69938e-22)
(0.279443 -0.0457767 -5.21869e-20)
(0.284567 -0.045636 -4.5332e-20)
(0.290071 -0.0459362 3.90032e-20)
(0.296055 -0.0465558 3.48227e-20)
(0.302572 -0.0473324 8.80402e-20)
(0.309563 -0.0481752 -5.07807e-20)
(0.31699 -0.0490132 -1.38147e-20)
(0.324819 -0.0497886 2.05096e-20)
(0.333019 -0.0504592 -3.87952e-20)
(0.34156 -0.0509954 -2.44343e-21)
(0.350414 -0.0513777 3.61753e-20)
(0.359553 -0.0515943 5.05389e-22)
(0.368955 -0.0516401 -1.17801e-21)
(0.378595 -0.0515147 -2.67892e-20)
(0.38845 -0.0512218 9.36348e-21)
(0.398497 -0.0507682 -6.94908e-21)
(0.408714 -0.0501627 -2.8498e-21)
(0.419077 -0.049416 4.65662e-21)
(0.429565 -0.0485402 -5.64633e-21)
(0.440155 -0.0475479 5.18304e-21)
(0.450825 -0.0464525 -4.76662e-21)
(0.461552 -0.0452673 6.74012e-21)
(0.472315 -0.0440059 -1.99016e-21)
(0.483093 -0.0426814 -2.26675e-21)
(0.493865 -0.0413067 1.95533e-21)
(0.504613 -0.0398939 5.34416e-23)
(0.515318 -0.0384547 1.89533e-21)
(0.525963 -0.0369999 4.21883e-22)
(0.536534 -0.0355398 2.82884e-21)
(0.547015 -0.0340835 -5.13057e-21)
(0.557393 -0.0326396 2.22646e-21)
(0.56766 -0.0312155 2.80912e-21)
(0.577802 -0.0298183 -1.73983e-21)
(0.587817 -0.0284533 -7.90728e-22)
(0.597691 -0.0271273 -1.11379e-21)
(0.607435 -0.0258416 1.1057e-21)
(0.617016 -0.024607 -8.99394e-22)
(0.626494 -0.0234124 6.30356e-22)
(0.635758 -0.0222901 -5.4739e-22)
(0.645018 -0.0211845 7.67955e-22)
(0.653906 -0.0202097 1.40893e-22)
(0.6631 -0.0191554 -1.37178e-22)
(0.671423 -0.0184165 -4.42728e-23)
(0.680971 -0.0172815 -2.07241e-22)
(0.688155 -0.0170056 -7.44208e-24)
(0.69915 -0.0154637 -5.64066e-24)
(0.703648 -0.016029 -9.44265e-23)
(0.718601 -0.0139169 -8.82624e-23)
(0.330058 -0.0495775 -1.05303e-19)
(0.329971 -0.0487952 7.10038e-20)
(0.332094 -0.0488862 -1.25541e-19)
(0.336227 -0.0489509 1.02884e-19)
(0.340823 -0.0494523 3.19524e-20)
(0.345958 -0.0502643 -2.51869e-20)
(0.351673 -0.0512117 -5.30066e-20)
(0.357878 -0.0522038 1.71815e-20)
(0.364512 -0.053169 6.2238e-20)
(0.371531 -0.0540493 -1.3824e-20)
(0.378893 -0.054803 6.30818e-21)
(0.386565 -0.055402 -6.68468e-20)
(0.394517 -0.0558278 5.37687e-20)
(0.402723 -0.05607 2.758e-20)
(0.411162 -0.0561247 -5.30791e-20)
(0.419812 -0.0559927 1.38999e-20)
(0.428654 -0.0556787 -1.70899e-20)
(0.437668 -0.0551903 2.23117e-20)
(0.446836 -0.0545374 -8.89438e-21)
(0.456139 -0.0537317 1.49994e-21)
(0.465557 -0.052786 8.60129e-21)
(0.475072 -0.0517141 -1.03105e-20)
(0.484665 -0.0505303 3.44481e-21)
(0.494317 -0.0492491 -4.03289e-21)
(0.504009 -0.0478849 7.35384e-21)
(0.513724 -0.046452 -1.4264e-21)
(0.523443 -0.0449641 -7.84456e-21)
(0.533149 -0.0434346 -2.10694e-22)
(0.542827 -0.0418761 2.54559e-21)
(0.552461 -0.0403002 -5.92083e-21)
(0.562038 -0.038718 3.30539e-22)
(0.571544 -0.0371396 1.05325e-21)
(0.580969 -0.0355743 2.11265e-21)
(0.590302 -0.0340301 1.69085e-21)
(0.599534 -0.0325148 -1.74826e-21)
(0.608661 -0.0310342 -1.74306e-21)
(0.61767 -0.0295959 2.50339e-21)
(0.626574 -0.0282009 -3.18648e-22)
(0.635339 -0.0268618 1.41924e-21)
(0.644024 -0.0255655 -1.35556e-21)
(0.652521 -0.0243485 -3.19355e-22)
(0.661036 -0.0231484 1.9975e-22)
(0.669208 -0.0220928 6.35315e-23)
(0.6777 -0.0209474 1.11754e-22)
(0.685366 -0.020151 -2.13758e-22)
(0.694238 -0.0189158 6.99267e-23)
(0.700849 -0.0186261 2.77897e-22)
(0.711143 -0.0169503 6.00443e-24)
(0.715249 -0.0175696 5.25391e-23)
(0.72931 -0.0153002 -1.94658e-22)
(0.389858 -0.0506742 -4.10624e-20)
(0.388109 -0.050568 -6.8782e-20)
(0.388791 -0.0511599 1.73205e-19)
(0.391834 -0.051529 -9.22365e-20)
(0.395433 -0.0523065 6.51208e-20)
(0.399633 -0.0533625 -9.05747e-20)
(0.404456 -0.0545131 4.40749e-20)
(0.409778 -0.055674 -3.11722e-20)
(0.415517 -0.0567777 4.06516e-20)
(0.421618 -0.0577692 -1.98753e-20)
(0.428033 -0.0586103 -3.5257e-20)
(0.434725 -0.0592756 6.79722e-20)
(0.441666 -0.059749 -2.62818e-20)
(0.448832 -0.0600222 -4.41642e-20)
(0.456203 -0.0600925 1.77826e-20)
(0.463762 -0.0599621 -1.56898e-22)
(0.471493 -0.0596364 1.38771e-20)
(0.479381 -0.059124 6.05662e-21)
(0.487411 -0.0584357 -2.71026e-20)
(0.495566 -0.0575838 1.20804e-21)
(0.503833 -0.056582 2.1899e-20)
(0.512196 -0.055445 -1.71956e-20)
(0.520638 -0.0541878 3.29337e-21)
(0.529144 -0.0528258 6.55713e-21)
(0.537698 -0.0513744 3.30107e-21)
(0.546284 -0.0498487 -1.54624e-21)
(0.554887 -0.0482636 -4.44957e-21)
(0.563492 -0.046633 1.37605e-21)
(0.572085 -0.0449706 4.3246e-21)
(0.580653 -0.0432889 -3.31338e-21)
(0.589182 -0.0415998 7.16132e-22)
(0.597663 -0.039914 -4.90843e-22)
(0.606083 -0.0382415 2.04047e-22)
(0.614435 -0.0365912 4.79211e-22)
(0.622709 -0.0349714 3.34638e-22)
(0.630903 -0.0333883 -1.58458e-22)
(0.639004 -0.0318503 -1.02804e-21)
(0.647024 -0.0303582 2.28622e-21)