/*--------------------------------*- C++ -*----------------------------------*\
  =========                 |
  \\      /  F ield         | OpenFOAM: The Open Source CFD Toolbox
   \\    /   O peration     | Website:  https://openfoam.org
    \\  /    A nd           | Version:  7
     \\/     M anipulation  |
\*---------------------------------------------------------------------------*/
FoamFile
{
    version     2.0;
    format      ascii;
    class       volScalarField;
    location    "175";
    object      p;
}
// * * * * * * * * * * * * * * * * * * * * * * * * * * * * * * * * * * * * * //

dimensions      [0 2 -2 0 0 0 0];

internalField   nonuniform List<scalar> 
1989
(
0.00621176
-0.0112782
-0.0304259
-0.0494723
-0.0656744
-0.0761959
-0.0797753
-0.0770321
-0.0698707
-0.0603142
-0.0498894
-0.0395555
-0.029821
-0.0209067
-0.012877
-0.00571554
0.000634207
0.00623601
0.0111442
0.0154125
0.0190967
0.0222182
0.0247268
0.0265339
0.0276145
0.028068
0.0280427
0.0276241
0.0267787
-0.0972975
-0.0834627
-0.069567
-0.0557791
-0.0422489
-0.0291061
-0.0164599
-0.00440011
0.00699977
0.0176788
0.0275852
0.0366715
0.0448904
0.0521903
0.0584887
0.0636902
0.067696
0.0703433
0.0715225
0.071195
0.0693773
0.0661
0.0613538
0.0550505
0.04702
0.0370363
0.0248695
0.0103973
-0.00617708
-0.0239951
-0.0412768
-0.0555468
-0.0645856
-0.0675905
-0.0652402
-0.0591553
-0.0509926
-0.0419933
-0.0329499
-0.0243053
-0.0162742
-0.0089418
-0.00232125
0.00361473
0.00890629
0.0135886
0.0176971
0.0212732
0.0243345
0.0268371
0.0286909
0.029844
0.0303505
0.0303324
0.0298918
0.0290151
-0.0910581
-0.0781554
-0.0651578
-0.052218
-0.039474
-0.0270479
-0.0150446
-0.00355312
0.00735183
0.0176069
0.0271568
0.0359507
0.0439386
0.0510668
0.0572601
0.0624331
0.066487
0.0692923
0.0707453
0.0707899
0.0694126
0.0666111
0.0623457
0.0565072
0.0489266
0.039418
0.0278347
0.0141688
-0.00124749
-0.0174708
-0.0328209
-0.0452177
-0.0529806
-0.0556145
-0.0537888
-0.0488182
-0.0420146
-0.0343735
-0.0265521
-0.0189423
-0.0117565
-0.00509853
0.000992192
0.00651679
0.011494
0.0159421
0.0198797
0.0233332
0.0263153
0.0287888
0.0306675
0.0318807
0.0324429
0.032447
0.0319935
0.0310944
-0.0851189
-0.0731031
-0.0609658
-0.0488447
-0.0368664
-0.0251451
-0.0137812
-0.00286163
0.00753855
0.0173544
0.0265283
0.0350068
0.0427376
0.0496646
0.0557175
0.0608186
0.0648759
0.0677813
0.0694388
0.0697822
0.0687756
0.0663901
0.0625665
0.0571898
0.0501079
0.0411816
0.0303439
0.0176925
0.00365813
-0.0108094
-0.024226
-0.0349139
-0.0416331
-0.0440947
-0.0428792
-0.0390035
-0.0334797
-0.0270998
-0.0204128
-0.0137704
-0.00738334
-0.00137102
0.00420547
0.00932461
0.0139862
0.0181936
0.0219511
0.0252701
0.0281572
0.0305811
0.0324636
0.0337235
0.034342
0.0343792
0.0339264
0.0330172
-0.0794688
-0.0682967
-0.0569825
-0.0456504
-0.0344162
-0.0233861
-0.0126554
-0.00230862
0.00758009
0.016945
0.025727
0.0338707
0.0413218
0.0480235
0.0539097
0.0589077
0.0629337
0.0658946
0.0677024
0.0682868
0.0675962
0.0655841
0.062181
0.0572799
0.0507572
0.0425236
0.0325827
0.0211129
0.00859202
-0.00409307
-0.0156932
-0.0248999
-0.0308216
-0.033268
-0.0326863
-0.0298311
-0.0254693
-0.02023
-0.0145753
-0.00882345
-0.00318196
0.00221865
0.00730048
0.0120234
0.0163707
0.0203333
0.0239031
0.0270782
0.0298575
0.0322143
0.0340802
0.0353711
0.0360427
0.0361228
0.0356866
0.0347815
-0.0740957
-0.0637257
-0.0531982
-0.0426253
-0.0321125
-0.0217583
-0.0116525
-0.00187633
0.0074973
0.0164029
0.0247805
0.032574
0.0397278
0.0461848
0.0518825
0.0567532
0.0607203
0.0637021
0.0656186
0.0663995
0.0659859
0.0643213
0.0613351
0.0569362
0.0510341
0.0435862
0.0346503
0.0244524
0.0134695
0.00248086
-0.00750321
-0.0154806
-0.0208151
-0.0233312
-0.0233408
-0.0213857
-0.018041
-0.0138068
-0.00907398
-0.00412992
0.000823791
0.00565057
0.0102607
0.0145996
0.0186368
0.0223525
0.025729
0.0287528
0.0314146
0.0336897
0.03552
0.0368247
0.0375431
0.0376736
0.0372699
0.0363846
-0.068987
-0.0593788
-0.0496025
-0.0397588
-0.0299439
-0.0202484
-0.0107568
-0.0015466
0.00731142
0.0157526
0.0237172
0.0311485
0.0379913
0.0441886
0.0496805
0.054404
0.0582897
0.0612647
0.063257
0.0641997
0.0640325
0.062697
0.0601284
0.0562543
0.051016
0.0444082
0.0365234
0.0276029
0.018088
0.00863409
3.92238e-05
-0.00692037
-0.0118125
-0.0144099
-0.0149166
-0.0137132
-0.0112281
-0.00785839
-0.003934
0.000287301
0.00461372
0.00890738
0.0130715
0.0170412
0.020775
0.0242442
0.0274235
0.0302905
0.0328274
0.0350097
0.0367881
0.0380893
0.0388446
0.0390292
0.0386727
0.0378245
-0.0641295
-0.0552445
-0.0461845
-0.03704
-0.0278985
-0.0188432
-0.00995291
-0.00130126
0.00704367
0.0150187
0.0225649
0.029626
0.0361471
0.0420738
0.0473469
0.0519071
0.0556926
0.0586385
0.0606798
0.061755
0.0618069
0.0607812
0.0586224
0.0552772
0.0507135
0.0449518
0.0381012
0.0303942
0.0222165
0.0141066
0.00669743
0.000623447
-0.00391215
-0.00655011
-0.00743291
-0.00682449
-0.00504199
-0.00239896
0.000828029
0.00441107
0.00817155
0.0119746
0.0157206
0.0193381
0.0227775
0.0260029
0.0289831
0.0316893
0.0340963
0.0361777
0.037891
0.0391722
0.0399524
0.0401904
0.0398931
0.0390997
-0.05951
-0.0513107
-0.0429329
-0.0344577
-0.0259643
-0.0175291
-0.00922539
-0.00112237
0.00671484
0.0142252
0.0213511
0.0280374
0.0342309
0.0398777
0.044921
0.0493063
0.0529774
0.055876
0.0579441
0.0591263
0.0593714
0.0586317
0.0568629
0.0540289
0.0501177
0.0451657
0.0392848
0.0326865
0.0256953
0.0187465
0.0123523
0.00709023
0.00287052
0.000266344
-0.000865323
-0.000702379
0.000523924
0.00256881
0.00520355
0.00822987
0.011485
0.0148407
0.0181979
0.021482
0.024638
0.0276244
0.0304058
0.0329487
0.0352226
0.0371978
0.0388362
0.0400833
0.0408748
0.0411614
0.0409313
0.040209
-0.0551157
-0.0475659
-0.0398366
-0.0320006
-0.0241295
-0.0162931
-0.0085592
-0.000992568
0.00634503
0.0133951
0.0201019
0.0264123
0.0322747
0.0376368
0.0424425
0.046644
0.0501895
0.0530263
0.0551029
0.0563703
0.0567838
0.0563036
0.0548961
0.0525396
0.0492363
0.0450311
0.0400313
0.0344225
0.0284743
0.0225327
0.0169869
0.0121217
0.00856615
0.00610304
0.00484005
0.00468952
0.00548927
0.00705182
0.00919103
0.0117375
0.014546
0.0174972
0.0204959
0.0234669
0.0263523
0.0291065
0.0316911
0.03407
0.0362089
0.0380749
0.0396321
0.0408339
0.0416233
0.0419502
0.0417901
0.041152
-0.050934
-0.0439984
-0.0368847
-0.0296579
-0.0223826
-0.0151225
-0.00793989
-0.000895223
0.00595339
0.0125503
0.0188422
0.0247781
0.0303091
0.0353865
0.0399487
0.04396
0.0473717
0.0501356
0.0522058
0.0535395
0.0540988
0.0538512
0.0527728
0.0508526
0.0481028
0.0445719
0.0403589
0.0356237
0.0305911
0.0255394
0.0207768
0.0165765
0.0133564
0.0110597
0.00975492
0.0093994
0.00988285
0.0110643
0.012795
0.0149326
0.0173501
0.019939
0.0226097
0.0252889
0.0279176
0.0304482
0.0328402
0.035056
0.0370591
0.0388147
0.0402872
0.0414359
0.0422119
0.0425688
0.0424759
0.0419295
-0.0469528
-0.0405973
-0.0340666
-0.0274189
-0.0207124
-0.014005
-0.00735373
-0.000814665
0.00555785
0.0117113
0.017595
0.0231604
0.0283617
0.0331626
0.0374721
0.0412905
0.0445632
0.0472459
0.0492979
0.0506823
0.051367
0.0513267
0.0505449
0.0490188
0.0467668
0.0438381
0.0403222
0.0363561
0.0321269
0.0278619
0.0238088
0.0202047
0.0173357
0.0152347
0.0139553
0.013481
0.0137392
0.0146262
0.016025
0.0178182
0.0198968
0.0221639
0.0245369
0.0269461
0.0293334
0.0316504
0.0338556
0.0359106
0.0377786
0.0394236
0.0408102
0.0419011
0.0426552
0.0430316
0.0429989
0.0425455
-0.043161
-0.037352
-0.0313723
-0.0252737
-0.0191085
-0.0129292
-0.00678799
-0.00073638
0.00517503
0.010897
0.0163815
0.0215819
0.026451
0.0309351
0.0350367
0.038668
0.0417996
0.0443953
0.0464198
0.0478415
0.0486339
0.0487773
0.0482613
0.0470891
0.0452822
0.0428885
0.0399882
0.0366988
0.0331748
0.0296027
0.0261845
0.0231158
0.0206054
0.0187215
0.0175163
0.0169896
0.0170961
0.0177613
0.0188948
0.0204014
0.0221889
0.0241726
0.0262775
0.0284388
0.0306007
0.0327153
0.0347408
0.0366393
0.0383741
0.0399093
0.04121
0.0422411
0.0429674
0.0433544
0.0433726
0.0430075
-0.0395479
-0.0342528
-0.0287925
-0.023213
-0.0175614
-0.0118849
-0.00623113
-0.000647285
0.00481987
0.0101245
0.0152217
0.0200676
0.0246193
0.0288354
0.0326875
0.0361255
0.0391133
0.0416174
0.0436069
0.0450547
0.0459389
0.0462444
0.0459657
0.0451095
0.0436992
0.0417795
0.039422
0.0367267
0.0338219
0.0308605
0.0280064
0.0254196
0.0232606
0.0216063
0.0205091
0.0199799
0.019993
0.0204963
0.0214213
0.0226923
0.0242323
0.0259684
0.0278339
0.0297693
0.0317222
0.0336464
0.0355009
0.0372483
0.038853
0.0402803
0.041496
0.0424672
0.0431625
0.0435525
0.0436122
0.0433272
-0.036104
-0.0312908
-0.0263187
-0.0212286
-0.0160624
-0.0108628
-0.00567298
-0.000535932
0.00450538
0.00940858
0.0141321
0.0186354
0.0228788
0.0268248
0.0304409
0.0336878
0.0365314
0.0389411
0.0408896
0.0423536
0.0433152
0.0437632
0.0436951
0.04312
0.0420614
0.0405608
0.038681
0.0365068
0.0341448
0.0317201
0.0293666
0.0272142
0.0253896
0.0239676
0.023
0.0225046
0.0224695
0.0228596
0.0236243
0.0247039
0.0260356
0.0275572
0.0292105
0.0309417
0.0327023
0.0344488
0.0361416
0.0377447
0.0392237
0.0405457
0.0416782
0.0425902
0.0432532
0.043641
0.0437337
0.0435186
-0.0328205
-0.028458
-0.0239434
-0.019313
-0.0146041
-0.00985521
-0.00510501
-0.000392717
0.00424249
0.00876165
0.0131266
0.0172998
0.0212448
0.0249266
0.0283159
0.0313761
0.0340767
0.0363903
0.0382929
0.0397645
0.0407904
0.0413622
0.04148
0.0411536
0.0404058
0.039274
0.0378131
0.0360949
0.0342084
0.0322565
0.0303467
0.0285825
0.0270697
0.025876
0.02505
0.0246138
0.0245648
0.0248808
0.0255251
0.0264516
0.0276096
0.0289471
0.0304136
0.0319615
0.0335466
0.0351285
0.0366698
0.0381362
0.0394951
0.0407153
0.0417667
0.0426205
0.0432504
0.0436335
0.0437527
0.0435971
-0.0296896
-0.0257474
-0.0216603
-0.0174602
-0.0131806
-0.00885575
-0.00452043
-0.000210078
0.00403975
0.00819359
0.0122162
0.0160731
0.0197306
0.0231557
0.0263282
0.0292075
0.0317673
0.0339841
0.0358367
0.0373082
0.0383861
0.0390645
0.0393447
0.0392368
0.0387621
0.0379538
0.0368589
0.0355385
0.034067
0.0325298
0.0310168
0.0295974
0.0283698
0.0273942
0.0267147
0.0263544
0.0263169
0.0265894
0.0271461
0.0279521
0.0289669
0.0301477
0.0314512
0.0328358
0.034262
0.0356926
0.0370931
0.0384311
0.0396762
0.0407992
0.0417723
0.0425691
0.0431654
0.0435422
0.0436829
0.0435773
-0.0267048
-0.0231532
-0.0194641
-0.0156656
-0.0117873
-0.00785983
-0.00391431
1.74413e-05
0.00390335
0.00771131
0.0114093
0.0149656
0.0183485
0.0215212
0.0244914
0.0271954
0.0296171
0.0317369
0.0335362
0.0350003
0.036119
0.0368876
0.0373083
0.0373908
0.0371542
0.036628
0.0358519
0.0348774
0.0337666
0.0325906
0.0314392
0.0303154
0.0293476
0.0285778
0.0280445
0.0277702
0.0277624
0.0280151
0.0285108
0.0292236
0.0301218
0.0311702
0.0323326
0.033573
0.0348562
0.0361489
0.0374195
0.038638
0.0397762
0.0408072
0.0417055
0.0424472
0.0430107
0.0433782
0.0435349
0.0434722
-0.0238605
-0.0206707
-0.0173508
-0.0139255
-0.0104211
-0.0068645
-0.00328363
0.00029312
0.00383694
0.007319
0.0107107
0.0139844
0.0171146
0.0200823
0.0228224
0.0253498
0.0276355
0.0296586
0.0314018
0.0328521
0.0340008
0.0348443
0.0353848
0.0356316
0.0356014
0.0353194
0.0348198
0.0341448
0.0333445
0.032474
0.0315803
0.030774
0.0300519
0.029476
0.0290851
0.0289017
0.0289359
0.0291866
0.0296426
0.030285
0.0310892
0.032027
0.0330682
0.034182
0.0353378
0.0365058
0.0376575
0.0387657
0.0398044
0.0407492
0.0415767
0.0422656
0.0427967
0.0431531
0.0433215
0.043295
-0.0211522
-0.0182963
-0.0153176
-0.012238
-0.00908027
-0.00586848
-0.00262729
0.000618024
0.00384175
0.00701808
0.0101213
0.0131266
0.0160097
0.0187461
0.0213037
0.0236703
0.0258264
0.0277545
0.0294396
0.0308703
0.0320392
0.0329431
0.0335845
0.0339713
0.0341182
0.0340464
0.0337849
0.0333688
0.032839
0.0322413
0.0316211
0.0310426
0.0305331
0.030134
0.0298779
0.0297862
0.0298702
0.0301318
0.0305646
0.0311553
0.0318849
0.0327312
0.0336692
0.034673
0.035716
0.0367722
0.0378161
0.0388232
0.0397702
0.0406346
0.0413958
0.0420343
0.0425331
0.0428789
0.0430556
0.0430585
-0.0185765
-0.0160276
-0.0133632
-0.0106022
-0.00776481
-0.00487212
-0.00194593
0.000991372
0.00391696
0.00680782
0.00964099
0.0123936
0.0150434
0.0175688
0.0199467
0.0221599
0.0241915
0.0260266
0.0276522
0.0290581
0.0302379
0.0311891
0.0319136
0.0324183
0.0327156
0.0328234
0.0327658
0.0325714
0.0322745
0.0319137
0.0315245
0.0311527
0.0308306
0.0305907
0.03046
0.0304578
0.0305957
0.0308773
0.0312998
0.0318537
0.0325252
0.0332965
0.0341474
0.0350562
0.0360003
0.036957
0.037904
0.0388194
0.0396824
0.0404729
0.0411723
0.0417634
0.0422316
0.0425656
0.0427464
0.0427741
-0.0161312
-0.0138633
-0.011487
-0.00901871
-0.00647596
-0.00387728
-0.00124185
0.00141057
0.00405979
0.00668532
0.00926666
0.0117834
0.0142157
0.0165445
0.0187507
0.0208176
0.0227298
0.024474
0.0260389
0.0274154
0.028598
0.0295842
0.0303755
0.0309779
0.0314015
0.0316611
0.0317761
0.0317706
0.0316728
0.0315139
0.0313232
0.0311345
0.0309778
0.0308804
0.0308647
0.0309478
0.0311408
0.0314484
0.0318699
0.0323992
0.0330261
0.0337367
0.0345148
0.0353423
0.0362004
0.0370694
0.03793
0.038763
0.0395499
0.0402729
0.0409155
0.0414626
0.0419006
0.0422186
0.0424042
0.0424533
-0.013815
-0.0118034
-0.00969012
-0.00748931
-0.00521631
-0.00288726
-0.000518971
0.00187121
0.00426547
0.00664573
0.00899381
0.0112917
0.0135216
0.0156667
0.0177108
0.0196392
0.0214372
0.0230929
0.0245963
0.0259395
0.0271173
0.0281275
0.0289711
0.0296527
0.0301807
0.0305671
0.0308277
0.0309822
0.0310536
0.0310648
0.031044
0.0310152
0.031004
0.0310331
0.0311216
0.0312844
0.0315316
0.0318687
0.0322961
0.0328103
0.0334037
0.0340658
0.0347836
0.0355424
0.0363262
0.0371187
0.037903
0.0386625
0.039381
0.040043
0.0406338
0.0411402
0.0415496
0.04185
0.0420405
0.0421075
-0.0116278
-0.00984871
-0.00797436
-0.00601694
-0.00398973
-0.00190675
0.00021734
0.00236737
0.00452773
0.00668253
0.00881581
0.0109115
0.0129538
0.0149278
0.0168197
0.0186179
0.0203072
0.0218771
0.0233188
0.0246253
0.0257919
0.0268163
0.027699
0.0284434
0.0290563
0.0295474
0.0299294
0.030218
0.030432
0.0305884
0.0307107
0.0308194
0.0309347
0.0310753
0.0312571
0.0314931
0.0317923
0.0321603
0.0325984
0.0331047
0.0336738
0.0342976
0.0349661
0.0356671
0.0363876
0.0371138
0.0378313
0.038526
0.0391837
0.0397911
0.0403354
0.0408046
0.0411884
0.0414769
0.0416662
0.0417471
-0.00957028
-0.00800116
-0.0063428
-0.00460568
-0.00280123
-0.000941612
0.000960465
0.00289178
0.00483872
0.0067874
0.00872378
0.0106338
0.0125035
0.0143193
0.0160682
0.0177453
0.0193315
0.0208185
0.0221987
0.0234659
0.0246158
0.0256459
0.0265561
0.027349
0.0280297
0.0286056
0.0290872
0.0294867
0.0298175
0.0300978
0.0303422
0.0305682
0.0307925
0.0310302
0.0312947
0.0315969
0.0319449
0.0323438
0.0327957
0.0332994
0.0338514
0.0344457
0.0350742
0.0357273
0.0363942
0.0370636
0.0377233
0.0383614
0.0389657
0.0395248
0.0400275
0.0404636
0.0408243
0.041101
0.0412887
0.041381
-0.00764435
-0.0062637
-0.00479945
-0.00326056
-0.00165687
1.18261e-06
0.00170259
0.0034359
0.00518929
0.00695064
0.00870771
0.0104483
0.0121604
0.013833
0.0154576
0.0170138
0.0185005
0.0199073
0.0212268
0.022453
0.0235817
0.0246102
0.0255381
0.0263669
0.0271003
0.0277441
0.0283065
0.028797
0.0292264
0.0296079
0.0299544
0.0302797
0.0305969
0.0309185
0.0312553
0.0316166
0.0320094
0.0324383
0.0329054
0.0334106
0.0339513
0.034523
0.0351196
0.0357334
0.0363556
0.0369768
0.037587
0.0381762
0.038734
0.0392508
0.039717
0.0401239
0.0404637
0.0407292
0.0409154
0.0410173
-0.00585282
-0.00464027
-0.00334934
-0.00198769
-0.000563694
0.000913662
0.00243491
0.00399015
0.00556912
0.00716131
0.0087561
0.0103428
0.0119109
0.0134501
0.0149511
0.0164037
0.0178003
0.0191321
0.0203927
0.0215771
0.0226811
0.0237022
0.0246394
0.0254934
0.0262666
0.0269637
0.0275905
0.0281543
0.028664
0.0291294
0.0295609
0.0299692
0.030365
0.0307582
0.0311577
0.0315711
0.0320042
0.0324612
0.0329443
0.0334535
0.0339873
0.0345423
0.0351138
0.0356956
0.0362809
0.0368617
0.0374301
0.0379774
0.0384953
0.0389755
0.03941
0.0397913
0.0401128
0.0403682
0.0405531
0.040663
-0.00419953
-0.00313578
-0.00199845
-0.000794019
0.00047036
0.00178699
0.00314773
0.00454406
0.00596712
0.0074078
0.00885684
0.010305
0.011743
0.0131614
0.0145517
0.0159073
0.0172193
0.0184808
0.0196852
0.0208278
0.021905
0.0229141
0.0238538
0.0247239
0.0255263
0.026264
0.0269411
0.0275635
0.0281378
0.0286716
0.0291729
0.0296502
0.0301117
0.0305654
0.0310184
0.0314769
0.0319459
0.0324288
0.0329275
0.0334425
0.0339727
0.0345156
0.0350676
0.035624
0.036179
0.0367265
0.0372598
0.0377719
0.0382559
0.0387049
0.0391122
0.0394715
0.0397771
0.0400238
0.0402074
0.0403243
-0.0026894
-0.00175615
-0.000753658
0.000312587
0.0014365
0.0026115
0.00383062
0.00508652
0.00637155
0.00767781
0.00899726
0.0103218
0.0116432
0.0129538
0.0142455
0.0155112
0.0167447
0.0179411
0.0190928
0.0201949
0.0212441
0.0222378
0.0231745
0.0240536
0.0248761
0.0256438
0.0263596
0.027028
0.0276537
0.0282425
0.0288004
0.0293341
0.0298499
0.030354
0.0308523
0.0313495
0.0318496
0.0323556
0.0328692
0.0333909
0.0339199
0.0344544
0.0349917
0.0355279
0.0360586
0.0365789
0.0370833
0.0375661
0.0380218
0.0384445
0.0388288
0.0391694
0.0394616
0.0397009
0.0398836
0.0400065
-0.0013286
-0.000508443
0.000377083
0.00132333
0.00232512
0.00337685
0.00447253
0.00560582
0.00677013
0.0079586
0.00916425
0.01038
0.0115988
0.0128136
0.0140174
0.0152038
0.0163675
0.0175022
0.0186041
0.0196677
0.0206889
0.0216652
0.0225949
0.0234769
0.0243127
0.0251018
0.0258469
0.0265506
0.0272164
0.0278486
0.0284519
0.029031
0.029591
0.0301367
0.0306725
0.0312022
0.0317291
0.0322554
0.0327826
0.0333112
0.0338407
0.0343696
0.0348958
0.0354165
0.035928
0.0364263
0.0369073
0.0373662
0.0377985
0.0381995
0.0385647
0.0388899
0.0391709
0.0394041
0.0395862
0.0397145
-0.000124495
0.00059919
0.00138485
0.00222855
0.00312586
0.00407199
0.00506178
0.00608977
0.00715023
0.00823721
0.0093446
0.0104662
0.0115958
0.0127271
0.0138542
0.0149712
0.0160724
0.0171529
0.0182088
0.0192358
0.02023
0.0211886
0.0221088
0.0229913
0.0238336
0.0246375
0.0254036
0.0261336
0.02683
0.0274959
0.0281346
0.0287498
0.0293452
0.0299245
0.0304909
0.0310475
0.0315968
0.0321405
0.0326798
0.0332151
0.033746
0.0342715
0.0347897
0.0352985
0.035795
0.0362761
0.0367383
0.037178
0.0375915
0.0379749
0.0383246
0.0386372
0.0389092
0.0391375
0.0393193
0.0394524
0.000914002
0.00155721
0.00225951
0.00301751
0.00382745
0.00468517
0.0055862
0.00652581
0.00749899
0.00850052
0.00952502
0.010567
0.011621
0.0126814
0.0137429
0.0148002
0.0158484
0.0168826
0.017898
0.0188915
0.0198601
0.0208008
0.0217119
0.0225904
0.0234363
0.0242493
0.0250298
0.0257788
0.026498
0.0271894
0.0278553
0.0284985
0.0291216
0.0297273
0.0303182
0.0308965
0.0314641
0.0320223
0.0325719
0.0331134
0.0336462
0.0341696
0.0346823
0.0351823
0.0356674
0.0361352
0.0365828
0.0370074
0.037406
0.0377755
0.0381129
0.0384155
0.0386804
0.038905
0.0390869
0.039224
0.00177611
0.00235447
0.00298952
0.00367836
0.0044177
0.00520391
0.0060331
0.00690107
0.0078034
0.00873547
0.00969248
0.0106695
0.0116617
0.0126639
0.0136714
0.0146793
0.0156829
0.0166779
0.0176601
0.0186261
0.0195728
0.0204972
0.0213973
0.0222712
0.0231176
0.0239358
0.0247259
0.0254882
0.0262237
0.0269338
0.0276199
0.0282841
0.0289282
0.0295542
0.030164
0.0307592
0.0313412
0.031911
0.0324691
0.0330158
0.0335508
0.0340732
0.034582
0.0350757
0.0355525
0.0360103
0.0364469
0.03686
0.0372472
0.037606
0.0379341
0.038229
0.0384885
0.0387104
0.0388925
0.0390331
0.00244925
0.00297819
0.00356197
0.00419804
0.00488349
0.0056151
0.00638936
0.00720251
0.00805058
0.00892937
0.00983454
0.0107616
0.0117061
0.0126634
0.0136289
0.0145984
0.0155673
0.0165316
0.0174875
0.0184315
0.0193603
0.0202713
0.0211621
0.0220308
0.0228761
0.0236969
0.0244929
0.025264
0.0260108
0.0267338
0.0274343
0.0281134
0.0287727
0.0294134
0.030037
0.0306447
0.0312375
0.031816
0.0323807
0.0329316
0.0334684
0.0339905
0.0344968
0.0349861
0.035457
0.0359077
0.0363364
0.0367413
0.0371202
0.0374713
0.0377926
0.038082
0.0383376
0.0385576
0.0387401
0.0388834
0.00291766
0.00341286
0.00396163
0.00456164
0.00521022
0.00590444
0.00664107
0.00741665
0.00822748
0.00906969
0.00993923
0.0108319
0.0117435
0.0126698
0.0136063
0.0145491
0.0154938
0.0164367
0.017374
0.0183022
0.0192183
0.0201195
0.0210033
0.021868
0.0227118
0.0235337
0.0243331
0.0251095
0.0258632
0.0265945
0.0273042
0.027993
0.0286622
0.0293126
0.0299453
0.0305613
0.0311613
0.0317457
0.0323149
0.0328687
0.033407
0.033929
0.0344339
0.0349205
0.0353876
0.0358337
0.0362573
0.0366567
0.0370303
0.0373763
0.0376931
0.0379789
0.0382321
0.0384509
0.0386337
0.0387789
0.00316331
0.003641
0.00417161
0.00475291
0.00538238
0.00605721
0.00677432
0.0075304
0.00832191
0.00914511
0.00999612
0.0108709
0.0117654
0.0126755
0.0135969
0.0145257
0.0154578
0.0163894
0.0173169
0.0182368
0.019146
0.0200419
0.020922
0.0217842
0.0226271
0.0234494
0.0242502
0.0250292
0.0257862
0.0265216
0.0272358
0.0279295
0.0286036
0.0292589
0.0298962
0.0305164
0.0311201
0.0317075
0.032279
0.0328344
0.0333735
0.0338955
0.0343997
0.034885
0.0353502
0.0357941
0.0362151
0.0366118
0.0369826
0.0373261
0.0376406
0.0379246
0.0381765
0.0383948
0.0385778
0.0387241
)
;

boundaryField
{
    inlet
    {
        type            zeroGradient;
    }
    outlet
    {
        type            fixedValue;
        value           nonuniform 0();
    }
    cylinder
    {
        type            zeroGradient;
    }
    top
    {
        type            symmetryPlane;
    }
    bottom
    {
        type            symmetryPlane;
    }
    defaultFaces
    {
        type            empty;
    }
    procBoundary14to10
    {
        type            processor;
        value           nonuniform List<scalar> 
57
(
0.00159444
-0.016658
-0.0369312
-0.0574862
-0.0754588
-0.0876454
-0.0919257
-0.0889377
-0.0807936
-0.0698637
-0.057983
-0.0463132
-0.0354484
-0.0256225
-0.0168794
-0.00917068
-0.00240849
0.00349682
0.00862076
0.0130359
0.0168112
0.0199708
0.0224608
0.0242
0.0251962
0.0255933
0.0255739
0.0251974
0.0243958
-0.103848
-0.0890336
-0.074201
-0.0595356
-0.0451999
-0.0313308
-0.0180406
-0.0054191
0.00646247
0.0175466
0.0277851
0.0371353
0.0455546
0.0529926
0.059354
0.0645177
0.0684171
0.0708335
0.0716579
0.0708795
0.0685519
0.064744
0.0594828
0.052712
0.0442734
0.0339083
0.0213009
0.0213009
)
;
    }
    procBoundary14to11
    {
        type            processor;
        value           uniform 0.0253806;
    }
    procBoundary14to13
    {
        type            processor;
        value           nonuniform List<scalar> 
35
(
-0.110887
-0.103701
-0.0968659
-0.0903676
-0.0841919
-0.0783237
-0.072748
-0.0674498
-0.0624144
-0.057628
-0.0530773
-0.0487499
-0.0446343
-0.04072
-0.0369972
-0.0334574
-0.0300931
-0.0268977
-0.0238659
-0.0209931
-0.018276
-0.0157123
-0.0133008
-0.0110409
-0.00893357
-0.00698034
-0.00518406
-0.00354865
-0.00207936
-0.000782774
0.000332787
0.00125697
0.00197739
0.00247805
0.00274045
)
;
    }
    procBoundary14to15
    {
        type            processor;
        value           nonuniform List<scalar> 
35
(
0.0276052
0.029683
0.0316137
0.0333961
0.0350285
0.0365109
0.0378439
0.0390282
0.0400633
0.0409478
0.0416802
0.0422609
0.0426945
0.0429902
0.0431608
0.0432209
0.0431854
0.0430684
0.0428835
0.0426437
0.0423616
0.042049
0.0417168
0.0413748
0.0410317
0.0406952
0.0403718
0.0400674
0.0397869
0.0395346
0.0393146
0.0391305
0.0389861
0.0388853
0.0388324
)
;
    }
}


// ************************************************************************* //
