/*--------------------------------*- C++ -*----------------------------------*\
  =========                 |
  \\      /  F ield         | OpenFOAM: The Open Source CFD Toolbox
   \\    /   O peration     | Website:  https://openfoam.org
    \\  /    A nd           | Version:  7
     \\/     M anipulation  |
\*---------------------------------------------------------------------------*/
FoamFile
{
    version     2.0;
    format      ascii;
    class       surfaceScalarField;
    location    "165";
    object      phi;
}
// * * * * * * * * * * * * * * * * * * * * * * * * * * * * * * * * * * * * * //

dimensions      [0 3 -1 0 0 0 0];

internalField   nonuniform List<scalar> 
3879
(
2.20016e-05
0.00684455
-1.14151e-05
0.00710341
-4.60525e-05
0.00737406
0.00765548
0.000108377
0.0068725
7.93822e-05
0.0071324
4.9227e-05
0.00740422
0.00768757
1.71315e-05
0.000195098
0.00689623
0.000170475
0.00715703
0.000144941
0.00742975
0.0077139
0.000118617
0.000282119
0.00691575
0.0002619
0.00717725
0.000241013
0.00745064
0.00773544
0.000219475
0.000384691
0.00668089
0.000369367
0.00693108
0.000353533
0.00719308
0.000337208
0.00746696
0.00775228
0.000320361
0.000467927
0.00669167
0.00045677
0.00694223
0.000445286
0.00720456
0.000433492
0.00747876
0.00776441
0.000421364
0.000551286
0.0066985
0.00054426
0.00694926
0.000537095
0.00721173
0.000529821
0.00748603
0.00777183
0.000522401
0.000634706
0.000631775
0.00695219
0.000628897
0.00721461
0.000626121
0.00748881
0.00777456
0.000623391
0.000719248
0.00695107
0.00072062
0.00721323
0.000722312
0.00748711
0.00777262
0.000724249
0.000806612
0.00694594
0.000812189
0.00720766
0.000818311
0.00748099
0.00776605
0.000824884
0.000893798
0.00693686
0.000903529
0.00719793
0.000914036
0.00747048
0.00775488
0.000925207
0.000980735
0.00692388
0.000994564
0.0071841
0.0010094
0.00745564
0.00773916
0.00102513
0.00106735
0.00690708
0.00108522
0.00716623
0.00110433
0.00743653
0.00771894
0.00112455
0.00115358
0.00688653
0.0011754
0.00714441
0.00119873
0.0074132
0.00769429
0.00122338
0.00123934
0.00686232
0.00126505
0.0071187
0.00129251
0.00738574
0.00766528
0.00132153
0.00132457
0.00683453
0.00135407
0.0070892
0.00138559
0.00735422
0.00763198
0.00141889
0.00140919
0.00144238
0.00705601
0.00147787
0.00731874
0.00759449
0.00151536
0.0015299
0.00701924
0.00156925
0.00727939
0.0075529
0.00161085
0.00161655
0.006979
0.00165964
0.00723629
0.00750731
0.00170523
0.00170222
0.00693543
0.00174895
0.00718956
0.00745784
0.00179842
0.00178683
0.00688868
0.00183706
0.00713934
0.00740461
0.00189028
0.0018703
0.00192387
0.00708577
0.00734777
0.00198071
0.00200927
0.00702902
0.00728746
0.00206957
0.00209315
0.00696927
0.00722386
0.00215675
0.00217538
0.00715713
0.0022421
0.00708749
0.00232548
0.00701513
0.00240675
0.00248572
0.000402335
-0.00471353
0.00473256
0.000383682
-0.00486103
0.00487968
0.000365686
-0.00501442
0.00503241
0.000348434
-0.00517414
0.00519139
0.000331886
-0.00534011
0.00535665
0.000315988
-0.00551223
0.00552813
0.000300697
-0.00569052
0.00570581
0.000285988
-0.00587513
0.00588984
0.000271821
-0.00606626
0.00608042
0.000258193
-0.00626411
0.00627774
0.000245088
-0.00646908
0.00648218
0.000232485
-0.00668134
0.00669394
0.000220366
-0.0069012
0.00691332
0.000208709
-0.00712896
0.00714062
0.000197493
-0.00736493
0.00737615
0.000186693
-0.00760944
0.00762024
0.000176286
-0.00786281
0.00787322
0.00016625
-0.00812541
0.00813544
0.000156562
-0.00839758
0.00840727
0.000147202
-0.0086797
0.00868906
0.000138159
-0.00897216
0.00898121
0.000129362
-0.00927526
0.00928406
0.000120842
-0.0095896
0.00959812
0.000112568
-0.00991551
0.00992379
0.000104521
-0.0102535
0.0102615
9.66842e-05
-0.0106039
0.0106117
8.90412e-05
-0.0109673
0.010975
8.15765e-05
-0.0113443
0.0113518
7.42756e-05
-0.0117353
0.0117426
6.71244e-05
-0.012141
0.0121482
6.01082e-05
-0.012562
0.012569
5.32124e-05
-0.012999
0.0130059
4.64213e-05
-0.0134526
0.0134594
3.97172e-05
-0.0139237
0.0139304
3.3081e-05
-0.014413
0.0144197
2.64903e-05
-0.0149216
0.0149282
1.99192e-05
-0.0154503
0.0154569
1.33382e-05
-0.0160003
0.0160069
6.70652e-06
-0.0165727
0.0165794
-0.0171689
0.0171756
0.000302062
-0.00469523
0.000284216
-0.00484318
0.000267119
-0.00499732
0.000250831
-0.00515785
0.000235311
-0.00532459
0.000220506
-0.00549742
0.000206387
-0.0056764
0.00019293
-0.00586167
0.000180082
-0.00605341
0.000167856
-0.00625189
0.000156219
-0.00645744
0.000145179
-0.0066703
0.000134715
-0.00689073
0.000124803
-0.00711905
0.000115422
-0.00735555
0.00010655
-0.00760057
9.81651e-05
-0.00785443
9.02474e-05
-0.00811749
8.27757e-05
-0.00839011
7.57344e-05
-0.00867266
6.91326e-05
-0.00896556
6.2846e-05
-0.00926897
5.69589e-05
-0.00958371
5.14292e-05
-0.00990998
4.6239e-05
-0.0102483
4.13728e-05
-0.010599
3.68163e-05
-0.0109628
3.25574e-05
-0.01134
2.85841e-05
-0.0117314
2.48851e-05
-0.0121373
2.14493e-05
-0.0125586
1.82651e-05
-0.0129958
1.53206e-05
-0.0134496
1.26025e-05
-0.0139209
1.00957e-05
-0.0144105
7.78289e-06
-0.0149193
5.64276e-06
-0.0154482
3.65319e-06
-0.0159983
1.77535e-06
-0.0165708
-0.0171671
0.000201922
-0.00467768
0.000184872
-0.00482613
0.000168629
-0.00498108
0.000153285
-0.00514251
0.000138784
-0.00531009
0.000125072
-0.00548371
0.000112123
-0.00566345
9.99263e-05
-0.00584948
8.84408e-05
-0.00604192
7.75502e-05
-0.006241
6.73866e-05
-0.00644728
5.79157e-05
-0.00666083
4.9107e-05
-0.00688193
4.09371e-05
-0.00711088
3.33863e-05
-0.007348
2.64351e-05
-0.00759361
2.00637e-05
-0.00784806
1.42516e-05
-0.00811168
8.97643e-06
-0.00838483
4.20685e-06
-0.00866789
-1.71144e-07
-0.00896119
-3.74606e-06
-0.0092654
-6.92553e-06
-0.00958053
-9.67675e-06
-0.00990723
-1.19921e-05
-0.0102459
-1.3878e-05
-0.0105971
-1.53421e-05
-0.0109613
-1.6393e-05
-0.011339
-1.70387e-05
-0.0117307
-1.72871e-05
-0.0121371
-1.71457e-05
-0.0125587
-1.66222e-05
-0.0129963
-1.57248e-05
-0.0134505
-1.44627e-05
-0.0139222
-1.28463e-05
-0.0144121
-1.08884e-05
-0.0149212
-8.6048e-06
-0.0154504
-6.01214e-06
-0.0160009
-3.14311e-06
-0.0165737
-0.0171703
0.000102089
-0.00466115
8.5492e-05
-0.00480954
7.00526e-05
-0.00496564
5.56326e-05
-0.00512809
4.21181e-05
-0.00529657
2.94351e-05
-0.00547103
1.75392e-05
-0.00565155
6.39111e-06
-0.00583833
-3.91497e-06
-0.00603162
-1.30371e-05
-0.00623187
-2.15226e-05
-0.00643879
-2.93052e-05
-0.00665304
-3.63774e-05
-0.00687485
-4.27449e-05
-0.00710451
-4.84174e-05
-0.00734233
-5.34068e-05
-0.00758863
-5.77278e-05
-0.00784374
-6.13948e-05
-0.00810801
-6.44231e-05
-0.0083818
-6.68278e-05
-0.00866548
-6.85845e-05
-0.00895943
-6.98215e-05
-0.00926416
-7.04476e-05
-0.00957991
-7.0496e-05
-0.00990718
-6.99856e-05
-0.0102465
-6.8925e-05
-0.0105982
-6.73228e-05
-0.0109629
-6.51864e-05
-0.0113411
-6.25216e-05
-0.0117334
-5.93341e-05
-0.0121403
-5.56288e-05
-0.0125624
-5.14099e-05
-0.0130005
-4.66824e-05
-0.0134553
-4.14516e-05
-0.0139274
-3.57235e-05
-0.0144179
-2.95067e-05
-0.0149274
-2.28108e-05
-0.0154571
-1.56498e-05
-0.0160081
-8.04532e-06
-0.0165813
-0.0171783
-3.53695e-07
-1.4683e-05
-2.8669e-05
-4.18032e-05
-5.40479e-05
-6.54269e-05
-7.59427e-05
-8.55882e-05
-9.43539e-05
-0.00602285
-0.000102411
-0.00622382
-0.000109542
-0.00643166
-0.000115842
-0.00664674
-0.000121319
-0.00686938
-0.000125984
-0.00709985
-0.000129854
-0.00733846
-0.000132942
-0.00758554
-0.000135263
-0.00784142
-0.000136831
-0.00810644
-0.00013766
-0.00838097
-0.000137762
-0.00866538
-0.000137134
-0.00896006
-0.000135844
-0.00926545
-0.000133856
-0.0095819
-0.000131182
-0.00990986
-0.000127836
-0.0102498
-0.000123826
-0.0106022
-0.000119159
-0.0109676
-0.000113839
-0.0113464
-0.00010787
-0.0117393
-0.000101255
-0.0121469
-9.39939e-05
-0.0125697
-8.60895e-05
-0.0130084
-7.75426e-05
-0.0134638
-6.83542e-05
-0.0139366
-5.85267e-05
-0.0144277
-4.80636e-05
-0.0149379
-3.69699e-05
-0.0154682
-2.52542e-05
-0.0160198
-1.29316e-05
-0.0165936
-0.0171912
-0.00018514
-0.000191771
-0.000197452
-0.000202202
-0.000206042
-0.000208983
-0.000211038
-0.000212218
-0.000212537
-0.000212007
-0.00021064
-0.000208445
-0.00020543
-0.00020163
-0.000197032
-0.000191642
-0.00018547
-0.000178522
-0.0001708
-0.000162308
-0.000153046
-0.000143014
-0.000132211
-0.000120634
-0.000108281
-9.51502e-05
-8.12384e-05
-6.65452e-05
-5.10706e-05
-3.48184e-05
-1.77971e-05
0.000502632
0.00475233
0.000483191
0.00489912
0.000464302
0.0050513
0.000446077
0.00520962
0.000428496
0.00537424
0.000411501
0.00554512
0.000395044
0.00572227
0.000379091
0.00590579
0.000363617
0.0060959
0.000348586
0.00629277
0.000334003
0.00649677
0.000319837
0.00670811
0.000306067
0.00692709
0.00029267
0.00715401
0.000279621
0.0073892
0.000266895
0.00763296
0.000254467
0.00788565
0.000242313
0.0081476
0.000230407
0.00841917
0.000218727
0.00870074
0.000207253
0.00899268
0.000195936
0.00929537
0.000184781
0.00960927
0.000173762
0.00993481
0.000162857
0.0102724
0.000152048
0.0106225
0.000141316
0.0109857
0.000130644
0.0113624
0.000120013
0.0117533
0.000109406
0.0121588
9.8807e-05
0.0125796
8.81965e-05
0.0130165
7.7555e-05
0.01347
6.68617e-05
0.0139411
5.60922e-05
0.0144304
4.52194e-05
0.014939
3.42123e-05
0.0154679
2.30356e-05
0.0160181
1.16419e-05
0.0165908
0.0171872
0.000602896
0.00477283
0.000582674
0.00491935
0.000562901
0.00507107
0.000543707
0.00522881
0.000525092
0.00539285
0.000507002
0.00556321
0.000489382
0.00573989
0.000472192
0.00592298
0.000455407
0.00611268
0.000438985
0.00630919
0.000422926
0.00651283
0.000407198
0.00672383
0.00039178
0.00694251
0.000376644
0.00716915
0.000361765
0.00740408
0.000347115
0.00764761
0.000332668
0.0079001
0.000318397
0.00816187
0.000304274
0.00843329
0.000290275
0.00871474
0.000276374
0.00900658
0.000262534
0.00930921
0.000248742
0.00962307
0.000234977
0.00994857
0.000221215
0.0102862
0.000207434
0.0106363
0.000193612
0.0109995
0.000179731
0.0113763
0.000165769
0.0117672
0.000151706
0.0121728
0.000137522
0.0125938
0.000123196
0.0130308
0.000108703
0.0134845
9.40192e-05
0.0139557
7.9115e-05
0.0144453
6.39587e-05
0.0149542
4.85136e-05
0.0154833
3.27391e-05
0.0160338
1.65806e-05
0.0166069
0.0172038
0.000703046
0.00479403
0.000682048
0.00494034
0.0006614
0.00509172
0.000641244
0.00524896
0.000621598
0.0054125
0.000602414
0.00558239
0.000583636
0.00575867
0.000565216
0.0059414
0.000547123
0.00613078
0.000529318
0.006327
0.000511788
0.00653036
0.000494504
0.00674112
0.000477442
0.00695957
0.000460572
0.00718602
0.000443866
0.00742078
0.000427297
0.00766418
0.000410834
0.00791656
0.000394448
0.00817826
0.000378111
0.00844963
0.000361795
0.00873105
0.000345472
0.00902291
0.000329109
0.00932558
0.000312683
0.00963949
0.000296174
0.00996508
0.000279555
0.0103028
0.000262802
0.0106531
0.000245893
0.0110164
0.000228804
0.0113934
0.000211512
0.0117845
0.000193995
0.0121904
0.000176228
0.0126116
0.000158187
0.0130488
0.000139845
0.0135029
0.000121171
0.0139744
0.000102134
0.0144644
8.26952e-05
0.0149736
6.28134e-05
0.0155032
4.24417e-05
0.0160542
2.15193e-05
0.0166278
0.0172253
0.000802987
0.00481593
0.000781226
0.0049621
0.000759715
0.00511323
0.000738605
0.00527007
0.000717933
0.00543317
0.000697661
0.00560266
0.00067773
0.0057786
0.000658087
0.00596104
0.000638693
0.00615017
0.000619511
0.00634618
0.000600519
0.00654935
0.000581687
0.00675995
0.000562988
0.00697827
0.000544391
0.00720462
0.000525866
0.00743931
0.000507382
0.00768267
0.000488908
0.00793503
0.000470413
0.00819675
0.000451867
0.00846818
0.000433238
0.00874968
0.000414498
0.00904165
0.000395614
0.00934446
0.000376559
0.00965855
0.000357309
0.00998433
0.000337837
0.0103223
0.000318116
0.0106728
0.000298122
0.0110364
0.000277828
0.0114137
0.00025721
0.0118051
0.000236242
0.0122113
0.000214897
0.0126329
0.000193145
0.0130706
0.000170957
0.013525
0.000148298
0.0139971
0.000125131
0.0144875
0.000101415
0.0149973
7.7101e-05
0.0155275
5.21367e-05
0.0160792
2.64543e-05
0.0166535
0.0172518
0.000902628
0.00483851
0.000880119
0.00498461
0.000857762
0.00513559
0.00083571
0.00529213
0.000814019
0.00545486
0.000792664
0.00562402
0.000771589
0.00579967
0.000750731
0.0059819
0.000730048
0.00617085
0.000709498
0.00636673
0.000689053
0.00656979
0.000668682
0.00678032
0.000648355
0.0069986
0.000628039
0.00722493
0.000607702
0.00745964
0.000587312
0.00770306
0.000566835
0.00795551
0.000546238
0.00821735
0.000525489
0.00848893
0.000504555
0.00877062
0.000483404
0.0090628
0.000462004
0.00936586
0.000440325
0.00968022
0.00041834
0.0100063
0.00039602
0.0103446
0.000373337
0.0106955
0.000350263
0.0110595
0.000326771
0.0114372
0.000302833
0.0118291
0.00027842
0.0122357
0.000253501
0.0126578
0.000228045
0.013096
0.000202018
0.0135511
0.000175381
0.0140237
0.000148093
0.0145148
0.000120106
0.0150253
9.13666e-05
0.0155563
6.18171e-05
0.0161087
3.13822e-05
0.0166839
0.0172832
0.00100188
0.00486176
0.000978638
0.00500785
0.000955455
0.00515877
0.000932477
0.0053151
0.000909777
0.00547756
0.000887348
0.00564645
0.000865135
0.00582189
0.000843075
0.00600396
0.000821113
0.00619281
0.000799206
0.00638864
0.000777321
0.00659168
0.000755423
0.00680222
0.000733479
0.00702054
0.000711455
0.00724696
0.000689318
0.00748178
0.000667031
0.00772534
0.00064456
0.00797798
0.00062187
0.00824004
0.000598926
0.00851187
0.000575695
0.00879385
0.000552141
0.00908635
0.000528232
0.00938977
0.000503937
0.00970452
0.000479224
0.010031
0.000454064
0.0103697
0.000428426
0.0107211
0.000402281
0.0110857
0.000375598
0.0114639
0.000348347
0.0118563
0.000320497
0.0122636
0.000292014
0.0126863
0.000262863
0.0131252
0.000233006
0.0135809
0.0002024
0.0140543
0.000171
0.0145462
0.000138753
0.0150576
0.000105599
0.0155894
7.14756e-05
0.0161429
3.62992e-05
0.0167191
0.0173195
0.00110064
0.00488567
0.00107669
0.0050318
0.00105271
0.00518276
0.00102882
0.00533899
0.00100513
0.00550126
0.000981634
0.00566994
0.000958295
0.00584522
0.000935042
0.00602721
0.000911816
0.00621604
0.000888567
0.00641189
0.000865255
0.00661499
0.000841843
0.00682563
0.000818296
0.00704409
0.000794578
0.00727067
0.000770651
0.00750571
0.00074648
0.00774952
0.000722026
0.00800243
0.000697254
0.00826481
0.000672126
0.008537
0.000646607
0.00881937
0.000620661
0.0091123
0.000594254
0.00941618
0.000567351
0.00973142
0.00053992
0.0100585
0.000511929
0.0103977
0.000483345
0.0107497
0.000454138
0.0111149
0.000424275
0.0114937
0.000393722
0.0118869
0.000362445
0.0122949
0.000330409
0.0127184
0.000297574
0.013158
0.000263899
0.0136146
0.000229337
0.0140889
0.000193838
0.0145817
0.000157344
0.0150941
0.00011979
0.015627
8.11054e-05
0.0161815
4.12019e-05
0.016759
0.0173607
0.00119883
0.00491022
0.00117419
0.00505644
0.00114943
0.00520752
0.00112466
0.00536376
0.00109999
0.00552593
0.00107544
0.00569449
0.00105099
0.00586968
0.00102656
0.00605164
0.00100209
0.00624052
0.000977509
0.00643646
0.000952787
0.00663971
0.000927878
0.00685054
0.000902743
0.00706922
0.000877345
0.00729607
0.000851644
0.00753141
0.000825602
0.00777556
0.000799179
0.00802886
0.000772337
0.00829165
0.000745038
0.0085643
0.000717243
0.00884716
0.000688917
0.00914062
0.000660022
0.00944507
0.000630522
0.00976092
0.000600384
0.0100886
0.000569574
0.0104285
0.000538057
0.0107812
0.0005058
0.0111471
0.000472767
0.0115268
0.000438924
0.0119207
0.000404235
0.0123296
0.000368658
0.0127539
0.000332154
0.0131945
0.000294675
0.0136521
0.000256172
0.0141274
0.00021659
0.0146213
0.000175865
0.0151348
0.000133927
0.0156689
9.06998e-05
0.0162248
4.60867e-05
0.0168036
0.0174068
0.00129634
0.00493541
0.00127103
0.00508175
0.00124553
0.00523303
0.00121991
0.00538937
0.00119428
0.00555156
0.0011687
0.00572007
0.00114315
0.00589523
0.00111755
0.00607724
0.00109185
0.00626622
0.00106596
0.00646235
0.00103985
0.00666583
0.00101346
0.00687692
0.000986755
0.00709592
0.000959694
0.00732313
0.000932236
0.00755887
0.000904338
0.00780346
0.000875961
0.00805723
0.000847065
0.00832055
0.000817608
0.00859375
0.000787553
0.00887722
0.00075686
0.00917132
0.00072549
0.00947644
0.000693408
0.00979301
0.000660576
0.0101214
0.000626959
0.0104622
0.000592522
0.0108156
0.000557228
0.0111824
0.000521042
0.011563
0.000483924
0.0119578
0.000445836
0.0123677
0.000406735
0.012793
0.000366577
0.0132347
0.000325313
0.0136933
0.000282887
0.0141698
0.000239239
0.0146649
0.000194303
0.0151797
0.000148001
0.0157152
0.000100251
0.0162725
5.09499e-05
0.0168529
0.0174577
0.00139308
0.00496121
0.00136713
0.0051077
0.00134091
0.00525925
0.00131447
0.00541581
0.00128792
0.00557811
0.00126132
0.00574666
0.00123469
0.00592187
0.00120795
0.00610398
0.00118103
0.00629314
0.00115385
0.00648952
0.00112637
0.00669331
0.00109852
0.00690477
0.00107027
0.00712418
0.00104156
0.00735184
0.00101237
0.00758807
0.000982632
0.00783319
0.000952318
0.00808755
0.000921384
0.00835148
0.000889787
0.00862535
0.000857486
0.00890952
0.000824441
0.00920436
0.000790612
0.00951027
0.000755962
0.00982766
0.000720452
0.0101569
0.000684045
0.0104986
0.000646703
0.010853
0.000608389
0.0112207
0.000569064
0.0116023
0.000528688
0.0119982
0.000487219
0.0124091
0.000444613
0.0128357
0.00040082
0.0132785
0.000355789
0.0137384
0.000309461
0.0142161
0.00026177
0.0147126
0.000212645
0.0152289
0.000162002
0.0157658
0.000109753
0.0163248
5.57881e-05
0.0169069
0.0175135
0.00148895
0.00498762
0.00146238
0.00513426
0.00143549
0.00528614
0.00140827
0.00544303
0.00138082
0.00560556
0.00135323
0.00577424
0.00132553
0.00594957
0.00129767
0.00613184
0.00126955
0.00632126
0.00124111
0.00651796
0.00121228
0.00672215
0.001183
0.00693405
0.00115322
0.00715396
0.00112289
0.00738216
0.00109198
0.00761898
0.00106042
0.00786474
0.00102819
0.00811978
0.000995241
0.00838444
0.000961521
0.00865907
0.000926992
0.00894405
0.000891613
0.00923974
0.000855344
0.00954654
0.000818142
0.00986486
0.000779971
0.0101951
0.00074079
0.0105377
0.000700561
0.0108932
0.000659245
0.011262
0.0006168
0.0116447
0.000573185
0.0120418
0.000528356
0.012454
0.000482264
0.0128817
0.000434858
0.0133259
0.000386083
0.0137872
0.000335875
0.0142663
0.000284165
0.0147643
0.000230876
0.0152821
0.000175919
0.0158208
0.000119199
0.0163815
6.05976e-05
0.0169655
0.0175741
0.00158385
0.00501462
0.00155669
0.00516142
0.00152916
0.00531368
0.00150119
0.005471
0.00147289
0.00563387
0.00144435
0.00580279
0.00141561
0.0059783
0.00138664
0.00616081
0.00135735
0.00635054
0.00132767
0.00654765
0.00129751
0.00675231
0.00126682
0.00696475
0.00123554
0.00718524
0.00120361
0.00741409
0.001171
0.00765159
0.00113766
0.00789809
0.00110353
0.0081539
0.00106858
0.00841939
0.00103276
0.00869489
0.000996023
0.00898078
0.000958329
0.00927743
0.000919637
0.00958523
0.000879904
0.00990459
0.000839091
0.0102359
0.000797156
0.0105797
0.00075406
0.0109363
0.000709761
0.0113063
0.000664217
0.0116903
0.000617385
0.0120887
0.000569216
0.0125021
0.000519662
0.0129313
0.000468667
0.0133769
0.000416173
0.0138396
0.000362111
0.0143204
0.00030641
0.0148201
0.000248985
0.0153396
0.000189742
0.01588
0.000128581
0.0164426
6.53749e-05
0.0170287
0.0176395
0.00167767
0.00504218
0.00164996
0.00518914
0.00162182
0.00534182
0.00159316
0.00549965
0.00156404
0.00566299
0.00153458
0.00583225
0.00150483
0.00600805
0.00147478
0.00619086
0.00144435
0.00638097
0.00141345
0.00657855
0.001382
0.00678376
0.00134992
0.00699682
0.00131716
0.007218
0.00128367
0.00744758
0.00124939
0.00768587
0.00121427
0.0079332
0.00117828
0.0081899
0.00114135
0.00845631
0.00110345
0.00873279
0.00106453
0.0090197
0.00102454
0.00931742
0.000983448
0.00962633
0.000941204
0.00994683
0.00089777
0.0102794
0.000853102
0.0106243
0.00080716
0.0109823
0.000759901
0.0113536
0.000711281
0.0117389
0.000661254
0.0121387
0.000609771
0.0125536
0.00055678
0.0129843
0.000502223
0.0134314
0.000446036
0.0138958
0.00038815
0.0143783
0.000328486
0.0148797
0.000266957
0.0154011
0.000203462
0.0159435
0.000137892
0.0165082
7.01165e-05
0.0170965
0.0177096
0.00177032
0.00507028
0.00174207
0.00521738
0.00171338
0.00537051
0.00168408
0.00552896
0.00165419
0.00569288
0.00162384
0.0058626
0.00159312
0.00603877
0.00156202
0.00622196
0.00153047
0.00641252
0.00149838
0.00661064
0.00146566
0.00681648
0.00143223
0.00703025
0.00139803
0.0072522
0.00136299
0.00748261
0.00132707
0.00772179
0.00129022
0.00797006
0.00125237
0.00822774
0.0012135
0.00849519
0.00117354
0.00877275
0.00113246
0.00906079
0.0010902
0.00935968
0.00104673
0.0096698
0.001002
0.00999156
0.000955966
0.0103254
0.000908589
0.0106717
0.000859825
0.011031
0.00080963
0.0114038
0.000757958
0.0117906
0.000704763
0.0121919
0.000649992
0.0126084
0.000593592
0.0130407
0.0005355
0.0134895
0.000475652
0.0139557
0.000413973
0.01444
0.000350379
0.0149433
0.000284779
0.0154667
0.000217067
0.0160113
0.000147126
0.0165782
7.48188e-05
0.0171688
0.0177844
0.00186166
0.0050989
0.00183294
0.0052461
0.00180373
0.00539972
0.00177383
0.00555886
0.00174323
0.00572348
0.00171205
0.00589377
0.0016804
0.00607042
0.00164828
0.00625408
0.00161565
0.00644516
0.00158239
0.00664389
0.00154844
0.00685044
0.00151369
0.007065
0.00147807
0.00728782
0.00144152
0.00751916
0.00140399
0.00775932
0.00136542
0.00800863
0.00132577
0.0082674
0.00128497
0.00853599
0.00124298
0.00881474
0.00119976
0.00910401
0.00115526
0.00940418
0.00110944
0.00971562
0.00106224
0.0100388
0.00101364
0.010374
0.000963578
0.0107218
0.000912017
0.0110826
0.000858912
0.0114569
0.000804217
0.0118453
0.00074788
0.0122482
0.000689851
0.0126664
0.00063007
0.0131005
0.000568476
0.0135511
0.000504999
0.0140192
0.00043956
0.0145054
0.000372073
0.0150108
0.000302439
0.0155363
0.000230548
0.0160831
0.000156276
0.0166524
7.94783e-05
0.0172456
0.0178639
0.00195161
0.005128
0.00192243
0.00527528
0.00189277
0.00542938
0.00186232
0.0055893
0.00183107
0.00575474
0.00179911
0.00592573
0.00176658
0.00610295
0.00173349
0.00628717
0.00169979
0.00647885
0.00166541
0.00667827
0.00163025
0.0068856
0.00159422
0.00710104
0.00155722
0.00732481
0.0015192
0.00755718
0.00148009
0.00779843
0.00143984
0.00804888
0.0013984
0.00830885
0.00135571
0.00857868
0.00131172
0.00885872
0.00126639
0.00914934
0.00121968
0.00945089
0.00117153
0.00976377
0.0011219
0.0100884
0.00107075
0.0104251
0.00101803
0.0107745
0.0009637
0.0111369
0.000907714
0.0115129
0.000850022
0.0119029
0.000790575
0.0123077
0.000729317
0.0127277
0.00066619
0.0131636
0.000601127
0.0136162
0.000534055
0.0140862
0.000464894
0.0145746
0.000393551
0.0150821
0.000319924
0.01561
0.000243894
0.0161592
0.000165335
0.016731
8.40914e-05
0.0173268
0.017948
0.00204002
0.00515755
0.00201045
0.00530485
0.00198038
0.00545945
0.00194946
0.00562023
0.0019176
0.00578659
0.00188493
0.00595839
0.00185157
0.00613632
0.00181755
0.00632119
0.00178284
0.00651356
0.00174737
0.00671374
0.00171104
0.00692193
0.00167375
0.00713832
0.00163542
0.00736315
0.00159596
0.00759664
0.00155531
0.00783908
0.00151341
0.00809077
0.00147021
0.00835204
0.00142566
0.00862323
0.00137971
0.00890467
0.0013323
0.00919674
0.0012834
0.00949979
0.00123295
0.00981422
0.00118092
0.0101404
0.00112725
0.0104788
0.0010719
0.0108298
0.00101484
0.011194
0.000955999
0.0115717
0.000895343
0.0119636
0.000832817
0.0123702
0.000768365
0.0127921
0.000701924
0.01323
0.000633428
0.0136847
0.000562801
0.0141569
0.000489956
0.0146474
0.000414798
0.0151573
0.00033722
0.0156875
0.000257097
0.0162393
0.000174296
0.0168138
8.86549e-05
0.0174125
0.0180366
0.0021268
0.0051875
0.00209689
0.00533476
0.00206647
0.00548987
0.00203511
0.00565159
0.00200273
0.00581898
0.00196941
0.0059917
0.00193529
0.00617044
0.00190039
0.00635609
0.00186471
0.00654925
0.00182818
0.00675026
0.00179073
0.00695938
0.00175223
0.00717682
0.00171259
0.00740279
0.00167173
0.0076375
0.00162958
0.00788123
0.00158607
0.00813428
0.00154116
0.00839696
0.00149478
0.0086696
0.00144689
0.00895256
0.00139744
0.00924619
0.00134639
0.00955085
0.00129367
0.00986693
0.00123926
0.0101948
0.00118311
0.010535
0.00112517
0.0108878
0.00106539
0.0112538
0.00100373
0.0116334
0.000940146
0.0120272
0.000874576
0.0124358
0.000806964
0.0128597
0.000737248
0.0132998
0.000665358
0.0137566
0.000591213
0.014231
0.000514727
0.0147239
0.000435798
0.0152362
0.000354314
0.015769
0.000270146
0.0163235
0.000183152
0.0169008
9.31651e-05
0.0175025
0.0181298
0.0022118
0.00521781
0.00218162
0.00536494
0.00215092
0.00552057
0.00211919
0.00568331
0.00208634
0.00585184
0.00205246
0.00602558
0.00201765
0.00620525
0.00198193
0.00639181
0.00194532
0.00658586
0.00190779
0.0067878
0.00186924
0.00699792
0.00182958
0.00721649
0.00178868
0.00744369
0.00174646
0.00767972
0.00170285
0.00792485
0.00165777
0.00817935
0.00161118
0.00844355
0.00156301
0.00871777
0.00151323
0.00900235
0.00146177
0.00929765
0.00140859
0.00960403
0.00135364
0.00992188
0.00129689
0.0102516
0.00123828
0.0105936
0.00117778
0.0109483
0.00111533
0.0113162
0.00105088
0.0116978
0.000984401
0.0120937
0.000915822
0.0125043
0.000845089
0.0129305
0.000772136
0.0133727
0.000696891
0.0138318
0.000619273
0.0143086
0.000539189
0.014804
0.000456536
0.0153189
0.000371194
0.0158544
0.000283032
0.0164116
0.000191898
0.0169919
9.76189e-05
0.0175967
0.0182274
0.00229489
0.0052484
0.00226451
0.00539532
0.0022336
0.00555148
0.00220157
0.00571534
0.00216832
0.00588509
0.00213396
0.00605994
0.00209854
0.00624067
0.00206207
0.00642827
0.00202459
0.00662335
0.0019861
0.00682629
0.00194652
0.0070375
0.00190573
0.00725728
0.00186361
0.0074858
0.00182008
0.00772325
0.00177505
0.00796988
0.00172845
0.00822595
0.00168022
0.00849178
0.0016303
0.00876768
0.00157865
0.009054
0.00152522
0.00935108
0.00146996
0.0096593
0.00141282
0.00997902
0.00135375
0.0103106
0.00129273
0.0106546
0.00122969
0.0110113
0.00116461
0.0113813
0.00109742
0.011765
0.00102807
0.012163
0.000956526
0.0125759
0.000882711
0.0130043
0.000806563
0.0134489
0.000728007
0.0139104
0.00064696
0.0143897
0.000563325
0.0148876
0.000476996
0.0154052
0.000387849
0.0159435
0.000295744
0.0165037
0.000200526
0.0170871
0.000102013
0.0176953
0.0183294
0.00237594
0.00527921
0.00234545
0.0054258
0.00231441
0.00558252
0.00228214
0.00574761
0.00224857
0.00591867
0.00221382
0.00609469
0.00217789
0.0062766
0.00214074
0.00646542
0.00210245
0.00666164
0.00206306
0.00686568
0.00202249
0.00707808
0.00198061
0.00729916
0.00193733
0.00752909
0.00189253
0.00776805
0.00184613
0.00801628
0.00179804
0.00827404
0.00174822
0.0085416
0.0016966
0.0088193
0.00164313
0.00910747
0.00158776
0.00940645
0.00153045
0.00971661
0.00147115
0.0100383
0.00140982
0.010372
0.00134641
0.010718
0.00128089
0.0110769
0.0012132
0.011449
0.0011433
0.0118349
0.00107114
0.0122352
0.000996658
0.0126504
0.000919803
0.0130811
0.000840503
0.0135282
0.000758682
0.0139922
0.000674252
0.0144741
0.000587117
0.0149748
0.000497163
0.0154952
0.000404264
0.0160364
0.000308273
0.0165997
0.000209029
0.0171864
0.000106343
0.0177979
0.0184358
0.00245479
0.00531013
0.0024243
0.0054563
0.00239321
0.00561361
0.00236076
0.00578006
0.00232693
0.00595249
0.00229189
0.00612973
0.00225554
0.00631296
0.0022178
0.00650315
0.00217879
0.00670064
0.00213857
0.0069059
0.00209706
0.00711959
0.00205415
0.00734206
0.00200975
0.00757349
0.00196374
0.00781406
0.00191602
0.00806401
0.0018665
0.00832355
0.00181513
0.00859297
0.00176185
0.00887259
0.0017066
0.00916272
0.00164934
0.00946371
0.00159003
0.00977592
0.00152861
0.0100997
0.00146504
0.0104355
0.0013993
0.0107838
0.00133132
0.0111448
0.00126107
0.0115192
0.0011885
0.0119075
0.00111356
0.0123101
0.00103619
0.0127277
0.000956339
0.013161
0.000873932
0.0136106
0.000788893
0.0140772
0.000701131
0.0145619
0.000610547
0.0150653
0.000517023
0.0155887
0.000420428
0.016133
0.000320611
0.0166995
0.000217402
0.0172896
0.000110607
0.0179047
0.0185464
0.0025313
0.00534104
0.00250095
0.00548665
0.00246992
0.00564464
0.00243736
0.00581262
0.00240339
0.00598646
0.00236817
0.00616495
0.00233148
0.00634965
0.00229323
0.00654141
0.00225358
0.00674029
0.00221259
0.00694689
0.00217019
0.00716199
0.00212631
0.00738594
0.00208085
0.00761895
0.00203367
0.00786124
0.00198467
0.008113
0.00193377
0.00837445
0.0018809
0.00864584
0.00182601
0.00892749
0.00176903
0.0092197
0.00170992
0.00952282
0.00164864
0.0098372
0.00158514
0.0101632
0.00151939
0.0105013
0.00145134
0.0108518
0.00138095
0.0112152
0.00130818
0.011592
0.00123298
0.0119827
0.0011553
0.0123878
0.00107509
0.0128079
0.000992292
0.0132438
0.000906827
0.013696
0.000818619
0.0141654
0.000727577
0.0146529
0.000633598
0.0151593
0.00053656
0.0156857
0.000436329
0.0162332
0.000332747
0.0168031
0.000225639
0.0173967
0.000114802
0.0180156
0.0186612
0.00260525
0.00257518
0.00551672
0.00254426
0.00567555
0.00251162
0.00584527
0.0024776
0.00602047
0.00244233
0.00620022
0.0024054
0.00638658
0.00236676
0.00658005
0.0023266
0.00678046
0.00228493
0.00698856
0.00224173
0.00720519
0.00219695
0.00743072
0.00215048
0.00766542
0.0021022
0.00790952
0.002052
0.00816321
0.00199977
0.00842667
0.00194546
0.00870015
0.001889
0.00898395
0.00183034
0.00927836
0.00176943
0.00958373
0.00170624
0.0099004
0.00164071
0.0102288
0.00157281
0.0105692
0.0015025
0.0109221
0.00142974
0.011288
0.00135449
0.0116673
0.00127671
0.0120605
0.00119635
0.0124682
0.00111334
0.0128909
0.00102764
0.0133295
0.000939163
0.0137845
0.000847839
0.0142568
0.000753571
0.0147472
0.000656253
0.0152566
0.000555761
0.0157862
0.000451955
0.016337
0.000344673
0.0169104
0.000233732
0.0175076
0.000118923
0.0181304
0.0187801
0.00264711
0.0055462
0.00261647
0.00570619
0.00258386
0.00587788
0.00254998
0.00605436
0.00251473
0.00623547
0.00247759
0.00642371
0.00243864
0.006619
0.00239804
0.00682106
0.00235574
0.00703085
0.00231178
0.00724915
0.00226614
0.00747636
0.00221872
0.00771284
0.00216937
0.00795887
0.002118
0.00821458
0.0020645
0.00848017
0.0020088
0.00875586
0.00195082
0.00904192
0.00189053
0.00933865
0.00182786
0.00964639
0.00176279
0.00996547
0.00169527
0.0102963
0.00162527
0.0106392
0.00155275
0.0109946
0.00147767
0.0113631
0.00139999
0.0117449
0.00131967
0.0121408
0.00123666
0.0125512
0.0011509
0.0129767
0.00106235
0.013418
0.000970917
0.0138759
0.00087653
0.0143512
0.000779092
0.0148446
0.000678494
0.0153572
0.00057461
0.0158901
0.000467294
0.0164444
0.000356378
0.0170213
0.000241675
0.0176223
0.000122968
0.0182491
0.0189031
0.00271589
0.00268537
0.00573671
0.00265285
0.0059104
0.0026193
0.00608791
0.00258422
0.00627055
0.00254707
0.00646086
0.00250805
0.00665802
0.00246719
0.00686192
0.00242444
0.0070736
0.00237987
0.00729372