/*--------------------------------*- C++ -*----------------------------------*\
  =========                 |
  \\      /  F ield         | OpenFOAM: The Open Source CFD Toolbox
   \\    /   O peration     | Website:  https://openfoam.org
    \\  /    A nd           | Version:  7
     \\/     M anipulation  |
\*---------------------------------------------------------------------------*/
FoamFile
{
    version     2.0;
    format      ascii;
    class       volVectorField;
    location    "165";
    object      U;
}
// * * * * * * * * * * * * * * * * * * * * * * * * * * * * * * * * * * * * * //

dimensions      [0 1 -1 0 0 0 0];

internalField   nonuniform List<vector> 
1987
(
(1.17947 -0.182278 -9.03607e-20)
(1.17071 -0.171008 -4.88672e-20)
(1.16228 -0.16038 -4.64981e-20)
(1.15377 -0.150988 6.69244e-20)
(1.18611 -0.17687 6.59138e-20)
(1.17699 -0.165974 -2.08368e-20)
(1.16823 -0.155633 5.03258e-20)
(1.15951 -0.146484 -8.28589e-21)
(1.19252 -0.171259 -5.26606e-20)
(1.18307 -0.160743 2.03338e-20)
(1.174 -0.150731 -5.82557e-20)
(1.16507 -0.141871 2.12401e-20)
(1.19871 -0.165457 1.8458e-20)
(1.18895 -0.155324 -1.87737e-21)
(1.17957 -0.145653 2.47288e-20)
(1.17038 -0.137079 -1.23119e-20)
(1.21524 -0.169677 2.61603e-20)
(1.20468 -0.159472 6.91938e-22)
(1.19461 -0.149719 2.95814e-21)
(1.18494 -0.140388 8.57786e-21)
(1.17547 -0.13209 -5.09852e-21)
(1.22127 -0.163128 -1.98157e-21)
(1.21042 -0.153311 1.23364e-22)
(1.20007 -0.143937 2.9416e-21)
(1.19011 -0.134944 -4.2754e-21)
(1.18038 -0.126917 2.08491e-21)
(1.22707 -0.156414 6.93659e-22)
(1.21594 -0.146982 1.1857e-21)
(1.20531 -0.137984 -2.43715e-21)
(1.19509 -0.129332 -4.59957e-21)
(1.18512 -0.121567 6.77517e-21)
(1.23262 -0.149545 -2.83257e-20)
(1.22124 -0.140492 2.26238e-20)
(1.21035 -0.131867 8.52836e-21)
(1.19987 -0.123562 3.53802e-21)
(1.18968 -0.116047 -5.78699e-21)
(1.22632 -0.133848 2.3762e-20)
(1.21518 -0.125592 9.98031e-21)
(1.20446 -0.117638 2.93515e-20)
(1.19404 -0.110363 -1.98708e-20)
(1.23118 -0.127056 -7.7428e-20)
(1.21981 -0.119162 2.7516e-20)
(1.20884 -0.111564 -6.9213e-20)
(1.19821 -0.104518 6.73e-21)
(1.23583 -0.120119 8.69238e-21)
(1.22422 -0.112581 -9.77919e-21)
(1.21302 -0.105343 1.03501e-19)
(1.20217 -0.0985147 -3.52871e-20)
(1.24027 -0.113043 1.13393e-19)
(1.22844 -0.105851 -8.74848e-20)
(1.21701 -0.0989778 -2.32813e-20)
(1.20595 -0.0923557 -5.4867e-20)
(1.24451 -0.105829 -7.00311e-20)
(1.23245 -0.098974 -6.71041e-21)
(1.22079 -0.0924683 -2.92642e-20)
(1.20952 -0.0860419 1.01739e-19)
(1.24855 -0.0984798 -1.28955e-19)
(1.23627 -0.0919501 -2.0226e-20)
(1.22438 -0.0858149 2.54187e-20)
(1.21288 -0.0795731 -7.23846e-20)
(1.2524 -0.0909952 -1.00209e-19)
(1.23989 -0.0847787 5.5995e-20)
(1.22777 -0.0790162 4.52335e-20)
(1.21605 -0.0729483 6.16242e-20)
(1.25606 -0.0833742 1.93308e-19)
(1.24332 -0.0774579 7.38578e-20)
(1.23097 -0.0720699 -3.48129e-19)
(1.21901 -0.0661649 -1.30807e-20)
(1.25954 -0.0756143 2.7118e-20)
(1.24656 -0.0699842 3.64415e-20)
(1.23398 -0.064972 1.29036e-19)
(1.22177 -0.0592195 -3.64229e-20)
(1.24961 -0.0623529 1.4384e-20)
(1.23679 -0.0577176 5.9244e-20)
(1.22432 -0.0521066 -7.93004e-20)
(1.25249 -0.0545573 -4.05624e-19)
(1.23941 -0.0502998 -2.64483e-20)
(1.22666 -0.0448197 -3.20298e-20)
(1.25519 -0.046589 1.15899e-19)
(1.24184 -0.0427104 1.20125e-19)
(1.22879 -0.0373503 4.24455e-21)
(1.25772 -0.0384376 -9.65598e-20)
(1.24408 -0.0349391 -2.27911e-19)
(1.2307 -0.0296882 2.66838e-19)
(1.26008 -0.0300902 1.79444e-19)
(1.24613 -0.0269737 -1.24075e-19)
(1.23239 -0.021821 6.94533e-20)
(1.24799 -0.0187998 -3.39897e-20)
(1.23386 -0.0137342 -1.40499e-19)
(1.24966 -0.0104003 2.62705e-19)
(1.23509 -0.00541086 -2.83018e-21)
(1.25114 -0.00175526 -1.8921e-19)
(1.23609 0.0031688 -1.20242e-19)
(1.23683 0.0120277 3.69731e-20)
(1.23731 0.0211923 -5.51179e-20)
(1.2375 0.030693 -5.12803e-19)
(1.17288 -0.119966 2.49971e-21)
(1.16721 -0.115127 -1.30372e-21)
(1.16184 -0.110347 -3.45662e-23)
(1.15683 -0.105717 2.48738e-21)
(1.1521 -0.101279 -2.41748e-21)
(1.14757 -0.097005 2.39482e-21)
(1.1432 -0.0928796 -3.39212e-21)
(1.13896 -0.0888913 2.41674e-21)
(1.13484 -0.0850436 -2.50085e-21)
(1.13083 -0.0813198 1.67773e-21)
(1.12695 -0.0777115 -1.52428e-21)
(1.1232 -0.0742312 6.47386e-22)
(1.11957 -0.0708642 1.28667e-21)
(1.11605 -0.0676057 -8.12697e-22)
(1.11266 -0.0644499 -6.28663e-22)
(1.10939 -0.0613909 4.02655e-22)
(1.10624 -0.058422 -9.04379e-24)
(1.10321 -0.055537 -4.99283e-22)
(1.1003 -0.0527296 5.95424e-22)
(1.0975 -0.0499933 -1.63962e-22)
(1.09482 -0.0473244 -1.90918e-22)
(1.09224 -0.0447125 2.23203e-22)
(1.08979 -0.0421484 8.32188e-23)
(1.08744 -0.0396325 -1.96774e-22)
(1.0852 -0.0371599 1.55301e-22)
(1.08307 -0.0347232 -1.58966e-22)
(1.08105 -0.0323171 1.23344e-22)
(1.07913 -0.0299365 -3.27992e-23)
(1.07732 -0.0275766 8.03435e-23)
(1.07562 -0.0252321 -4.15944e-23)
(1.07404 -0.0228982 -5.62075e-23)
(1.07256 -0.0205694 1.51758e-23)
(1.07121 -0.0182402 6.18266e-24)
(1.06999 -0.0159045 1.5385e-23)
(1.06891 -0.0135556 -1.873e-23)
(1.06796 -0.011185 -5.9775e-24)
(1.06718 -0.00878721 4.95847e-24)
(1.06657 -0.00634129 -6.03591e-25)
(1.06614 -0.00386354 -6.0052e-25)
(1.06591 -0.00127747 8.99125e-25)
(1.16826 -0.124563 2.44061e-21)
(1.16281 -0.119455 -2.36124e-21)
(1.15774 -0.114404 5.01046e-21)
(1.15303 -0.109529 -1.26744e-21)
(1.14858 -0.104853 -5.1042e-22)
(1.1443 -0.10035 1.27561e-21)
(1.14016 -0.0960039 -4.20378e-21)
(1.13613 -0.0918043 3.84471e-23)
(1.13221 -0.0877612 1.0812e-21)
(1.12837 -0.0838431 -1.34159e-21)
(1.12467 -0.0800425 8.39577e-22)
(1.12107 -0.0763872 -8.14659e-22)
(1.11759 -0.0728538 -1.61319e-22)
(1.11421 -0.0694381 5.25539e-23)
(1.11094 -0.0661341 1.63182e-21)
(1.10778 -0.0629354 -7.34632e-22)
(1.10474 -0.0598353 -7.86452e-22)
(1.1018 -0.0568273 7.35456e-22)
(1.09897 -0.0539048 1.03213e-21)
(1.09625 -0.0510609 -7.0079e-22)
(1.09365 -0.0482958 5.94518e-23)
(1.09113 -0.0455923 -7.3934e-22)
(1.08874 -0.0429396 3.94054e-22)
(1.08645 -0.0403453 7.08225e-22)
(1.08426 -0.0378005 -8.02142e-23)
(1.08217 -0.0352972 -1.87703e-22)
(1.08019 -0.0328299 -1.2927e-22)
(1.07831 -0.030393 1.56205e-23)
(1.07654 -0.0279812 -1.85788e-22)
(1.07487 -0.025589 7.08576e-23)
(1.07331 -0.0232109 1.474e-22)
(1.07187 -0.0208413 -6.11629e-23)
(1.07054 -0.0184741 1.11855e-22)
(1.06934 -0.0161028 -3.49885e-23)
(1.06827 -0.0137204 1.7314e-23)
(1.06735 -0.011318 1.57329e-23)
(1.06658 -0.00888947 -7.01508e-26)
(1.06598 -0.00641391 2.11124e-24)
(1.06555 -0.00390685 -6.96933e-24)
(1.06534 -0.00129004 1.21784e-24)
(1.16348 -0.129011 6.74395e-21)
(1.15823 -0.123652 -6.47176e-22)
(1.15349 -0.118322 2.03132e-21)
(1.1491 -0.113212 -1.48671e-20)
(1.14493 -0.108312 1.27193e-20)
(1.14092 -0.103591 -5.06258e-21)
(1.13702 -0.0990343 -1.92044e-21)
(1.13321 -0.0946375 2.27903e-21)
(1.12948 -0.0904113 1.82866e-21)
(1.12585 -0.0863042 2.01364e-21)
(1.12232 -0.0823174 -6.55427e-21)
(1.11889 -0.0784938 3.9813e-21)
(1.11555 -0.0748014 1.91926e-21)
(1.11231 -0.0712346 5.55365e-22)
(1.10917 -0.0677876 -5.36649e-21)
(1.10613 -0.0644537 3.67168e-21)
(1.10319 -0.0612265 7.9585e-22)
(1.10035 -0.0580991 -8.49638e-22)
(1.09761 -0.0550646 -1.28782e-21)
(1.09498 -0.0521152 1.07215e-21)
(1.09244 -0.0492568 -1.07902e-21)
(1.09001 -0.0464624 7.94176e-22)
(1.08767 -0.0437225 6.56789e-22)
(1.08544 -0.0410527 -1.11246e-21)
(1.0833 -0.0384366 5.51717e-23)
(1.08126 -0.0358676 1.61143e-22)
(1.07932 -0.0333396 1.91901e-22)
(1.07748 -0.030847 -4.45268e-23)
(1.07574 -0.0283838 6.67504e-23)
(1.07411 -0.0259442 1.19645e-22)
(1.07258 -0.0235223 -4.82358e-25)
(1.07116 -0.0211121 -1.32932e-23)
(1.06986 -0.0187072 -1.3653e-22)
(1.06868 -0.0163005 5.61501e-23)
(1.06763 -0.0138847 -1.02178e-23)
(1.06672 -0.0114506 -1.91956e-23)
(1.06597 -0.0089914 -3.20828e-24)
(1.06538 -0.00648635 -8.66333e-24)
(1.06497 -0.00394998 -7.20367e-24)
(1.06475 -0.00130265 7.01152e-24)
(1.1585 -0.13332 -2.07655e-21)
(1.1535 -0.127729 -7.92235e-21)
(1.14911 -0.122089 1.3962e-20)
(1.14505 -0.116759 -5.44333e-21)
(1.14118 -0.111652 -5.8434e-21)
(1.13743 -0.106727 5.56741e-21)
(1.13377 -0.101972 -2.03604e-21)
(1.13018 -0.0973911 4.75357e-21)
(1.12667 -0.0929816 -1.18677e-20)
(1.12327 -0.0886933 8.09867e-21)
(1.11991 -0.0845387 3.81618e-21)
(1.11664 -0.0805531 -2.37648e-21)
(1.11346 -0.0767077 2.47887e-21)
(1.11036 -0.0729953 -2.10448e-21)
(1.10735 -0.0694101 -3.64836e-22)
(1.10443 -0.0659456 2.51399e-21)
(1.10161 -0.0625952 -1.67959e-21)
(1.09887 -0.0593519 2.19413e-21)
(1.09622 -0.0562089 -3.18662e-21)
(1.09367 -0.0531595 2.45628e-21)
(1.09121 -0.0502016 -1.11641e-21)
(1.08886 -0.0473182 3.14755e-23)
(1.08659 -0.0445014 -4.71603e-22)
(1.08441 -0.0417546 -9.3918e-22)
(1.08232 -0.0390678 2.54324e-22)
(1.08033 -0.0364338 1.64299e-22)
(1.07844 -0.0338461 2.12789e-22)
(1.07664 -0.0312982 2.23004e-22)
(1.07494 -0.0287841 -2.81688e-22)
(1.07334 -0.0262976 -7.60675e-23)
(1.07184 -0.0238323 -2.21466e-23)
(1.07045 -0.0213818 -1.82821e-22)
(1.06917 -0.0189392 -6.88556e-23)
(1.06801 -0.0164974 -5.6942e-23)
(1.06699 -0.0140483 -3.92303e-23)
(1.0661 -0.0115827 9.20522e-24)
(1.06535 -0.009093 7.34111e-24)
(1.06477 -0.00655861 1.41077e-23)
(1.06437 -0.00399291 -5.5494e-24)
(1.06417 -0.00131534 2.92448e-24)
(1.15321 -0.13744 6.39762e-21)
(1.14873 -0.131626 -3.45891e-21)
(1.14466 -0.125702 -9.74636e-21)
(1.14092 -0.120177 -6.77824e-21)
(1.13734 -0.114879 1.42291e-20)
(1.13385 -0.109764 5.59014e-21)
(1.13044 -0.104823 -9.45513e-21)
(1.12708 -0.100058 -2.23006e-21)
(1.1238 -0.09546 4.13939e-22)
(1.1206 -0.0910102 6.32033e-21)
(1.11743 -0.0867099 -2.20039e-21)
(1.11433 -0.0825668 7.88991e-21)
(1.11131 -0.0785731 -8.04788e-21)
(1.10836 -0.0747201 -4.28772e-21)
(1.10549 -0.0710014 7.46349e-22)
(1.1027 -0.0674105 2.05011e-21)
(1.09998 -0.0639407 3.56156e-21)
(1.09735 -0.060585 -5.45568e-21)
(1.09481 -0.0573365 1.84649e-21)
(1.09234 -0.0541884 -1.46578e-21)
(1.08996 -0.0511358 2.45148e-21)
(1.08768 -0.0481659 -8.21367e-22)
(1.08548 -0.0452709 -2.01337e-22)
(1.08336 -0.0424494 7.21521e-22)
(1.08133 -0.0396935 -3.30499e-22)
(1.07939 -0.0369956 -5.32619e-22)
(1.07754 -0.0343488 3.94845e-22)
(1.07579 -0.0317464 -7.91314e-22)
(1.07412 -0.029182 2.42451e-22)
(1.07256 -0.026649 1.80009e-22)
(1.07109 -0.0241406 1.36228e-22)
(1.06973 -0.0216501 -1.39086e-23)
(1.06848 -0.0191702 1.59371e-22)
(1.06734 -0.0166934 1.75911e-23)
(1.06633 -0.0142113 1.54293e-23)
(1.06546 -0.0117143 2.09414e-24)
(1.06473 -0.00919422 7.24023e-24)
(1.06417 -0.00663066 -5.0912e-23)
(1.06377 -0.00403566 -3.14464e-25)
(1.06357 -0.00132813 -2.65936e-23)
(1.12084 -0.0978752 9.31001e-21)
(1.11783 -0.0932677 -5.88419e-21)
(1.11487 -0.088818 5.66107e-21)
(1.11196 -0.0845288 2.96256e-21)
(1.1091 -0.0803941 8.01122e-22)
(1.10631 -0.0764065 3.59704e-21)
(1.10358 -0.0725597 -6.11095e-21)
(1.10092 -0.0688472 -2.42174e-21)
(1.09832 -0.0652621 3.46594e-21)
(1.0958 -0.0617976 1.86076e-21)
(1.09336 -0.0584466 -2.64804e-21)
(1.09099 -0.0552023 3.54872e-21)
(1.08869 -0.052058 -2.14182e-21)
(1.08648 -0.0490036 -1.01922e-21)
(1.08435 -0.0460315 -1.85636e-22)
(1.0823 -0.0431371 3.70974e-22)
(1.08033 -0.0403133 7.05605e-22)
(1.07844 -0.0375525 -3.31305e-23)
(1.07664 -0.0348475 5.40852e-22)
(1.07492 -0.0321914 2.12133e-22)
(1.0733 -0.0295772 -7.98576e-23)
(1.07177 -0.0269981 -6.22186e-22)
(1.07033 -0.0244471 3.8008e-22)
(1.069 -0.0219169 2.33232e-22)
(1.06777 -0.0194 -1.92174e-22)
(1.06666 -0.0168884 5.68847e-23)
(1.06567 -0.0143735 2.26893e-24)
(1.06482 -0.0118453 -1.69223e-23)
(1.0641 -0.00929504 8.20542e-23)
(1.06355 -0.00670247 1.58742e-22)
(1.06316 -0.00407821 1.21807e-22)
(1.06297 -0.00134105 4.25184e-23)
(1.17735 -0.115208 -2.60481e-21)
(1.17146 -0.110655 1.34572e-21)
(1.1658 -0.10615 2.379e-23)
(1.16049 -0.101782 -2.57798e-21)
(1.15549 -0.0975923 2.51074e-21)
(1.15072 -0.0935585 -2.48768e-21)
(1.14613 -0.0896641 3.51581e-21)
(1.14168 -0.0858983 -2.50878e-21)
(1.13737 -0.0822598 2.59893e-21)
(1.1332 -0.078738 -1.73488e-21)
(1.12916 -0.0753255 1.57523e-21)
(1.12525 -0.072027 -6.63577e-22)
(1.12148 -0.068833 -1.33068e-21)
(1.11784 -0.0657377 8.429e-22)
(1.11433 -0.0627355 6.53644e-22)
(1.11096 -0.0598207 -4.14854e-22)
(1.10771 -0.0569872 1.22066e-23)
(1.10459 -0.0542286 5.22053e-22)
(1.10159 -0.051539 -6.21517e-22)
(1.09872 -0.0489125 1.69652e-22)
(1.09597 -0.0463438 1.96997e-22)
(1.09333 -0.0438252 -2.37021e-22)
(1.09082 -0.0413494 -8.15798e-23)
(1.08842 -0.038914 2.03592e-22)
(1.08613 -0.0365148 -1.63471e-22)
(1.08396 -0.0341455 1.68481e-22)
(1.08189 -0.0318014 -1.33176e-22)
(1.07994 -0.0294778 3.52761e-23)
(1.0781 -0.0271701 -8.31931e-23)
(1.07637 -0.0248738 4.44438e-23)
(1.07475 -0.0225842 6.45444e-23)
(1.07325 -0.0202965 -1.92782e-23)
(1.07188 -0.0180055 -7.73768e-24)
(1.07064 -0.0157055 -1.8758e-23)
(1.06953 -0.0133902 2.67504e-23)
(1.06857 -0.0110516 9.89559e-24)
(1.06777 -0.00868464 -1.06641e-23)
(1.06715 -0.00626851 4.74847e-24)
(1.06671 -0.00382005 -3.0127e-24)
(1.06648 -0.00126494 1.60725e-24)
(1.18165 -0.110287 -2.76108e-21)
(1.17554 -0.106032 2.62993e-21)
(1.16962 -0.101813 -5.62695e-21)
(1.16403 -0.0977229 1.45126e-21)
(1.15877 -0.0937958 5.89169e-22)
(1.15376 -0.0900133 -1.41927e-21)
(1.14895 -0.08636 4.69649e-21)
(1.14431 -0.0828263 -5.17667e-23)
(1.13982 -0.079408 -1.1986e-21)
(1.13548 -0.0760968 1.50784e-21)
(1.13129 -0.072886 -9.47553e-22)
(1.12724 -0.0697765 9.34166e-22)
(1.12334 -0.0667617 1.77472e-22)
(1.11957 -0.0638352 -6.27573e-23)
(1.11595 -0.0609917 -1.80339e-21)
(1.11247 -0.0582258 8.18336e-22)
(1.10913 -0.0555314 8.73432e-22)
(1.10592 -0.0529027 -8.21154e-22)
(1.10285 -0.0503339 -1.15724e-21)
(1.09991 -0.0478194 7.77249e-22)
(1.09709 -0.0453539 -6.18252e-23)
(1.0944 -0.0429308 8.33831e-22)
(1.09183 -0.040544 -4.41414e-22)
(1.08938 -0.0381902 -8.16173e-22)
(1.08704 -0.0358654 8.22428e-23)
(1.08483 -0.0335646 2.21872e-22)
(1.08273 -0.0312831 1.4738e-22)
(1.08074 -0.029017 -2.12791e-23)
(1.07886 -0.026762 2.31781e-22)
(1.0771 -0.0245141 -8.44094e-23)
(1.07546 -0.0222691 -1.82046e-22)
(1.07393 -0.0200227 7.2308e-23)
(1.07254 -0.01777 -1.61869e-22)
(1.07127 -0.0155059 5.50009e-23)
(1.07015 -0.0132244 -2.59307e-23)
(1.06918 -0.0109178 -3.1853e-23)
(1.06836 -0.00858179 -7.22257e-24)
(1.06773 -0.00619555 -2.38903e-25)
(1.06728 -0.0037764 -1.26425e-23)
(1.06704 -0.00125245 9.94245e-25)
(1.18577 -0.105204 -8.26626e-21)
(1.17946 -0.101258 7.86424e-22)
(1.17329 -0.0973386 -2.44332e-21)
(1.16744 -0.093541 1.80695e-20)
(1.16192 -0.0898901 -1.5399e-20)
(1.15668 -0.0863702 6.15326e-21)
(1.15167 -0.0829687 2.32005e-21)
(1.14684 -0.0796764 -2.76891e-21)
(1.14218 -0.0764878 -2.16854e-21)
(1.13768 -0.0733957 -2.42276e-21)
(1.13334 -0.0703939 7.85907e-21)
(1.12915 -0.0674807 -4.74433e-21)
(1.12512 -0.0646512 -2.31167e-21)
(1.12125 -0.0618991 -6.85127e-22)
(1.11752 -0.0592194 6.42817e-21)
(1.11394 -0.0566068 -4.40184e-21)
(1.11051 -0.0540554 -9.61356e-22)
(1.10722 -0.05156 1.0141e-21)
(1.10408 -0.0491149 1.5364e-21)
(1.10106 -0.0467149 -1.30446e-21)
(1.09819 -0.044355 1.30681e-21)
(1.09544 -0.0420294 -9.60887e-22)
(1.09281 -0.0397328 -8.17799e-22)
(1.09032 -0.0374616 1.36605e-21)
(1.08794 -0.0352124 -6.8711e-23)
(1.08568 -0.0329807 -1.92615e-22)
(1.08354 -0.0307625 -2.43759e-22)
(1.08152 -0.0285543 5.28832e-23)
(1.07961 -0.0263524 -9.71351e-23)
(1.07782 -0.0241533 -1.7005e-22)
(1.07615 -0.0219532 6.95589e-24)
(1.07461 -0.0197482 -8.06611e-25)
(1.07319 -0.017534 2.13167e-22)
(1.0719 -0.0153057 -1.05501e-22)
(1.07076 -0.0130582 6.85415e-24)
(1.06977 -0.0107837 7.02385e-23)
(1.06894 -0.00847867 3.65821e-23)
(1.06829 -0.00612242 -3.74228e-23)
(1.06784 -0.00373257 -6.02468e-24)
(1.06759 -0.00123996 7.55077e-24)
(1.18972 -0.0999587 2.73949e-21)
(1.18322 -0.0963342 1.04999e-20)
(1.17682 -0.0927264 -1.84068e-20)
(1.17071 -0.0892371 7.12934e-21)
(1.16495 -0.0858758 7.61413e-21)
(1.15949 -0.08263 -7.2541e-21)
(1.15427 -0.0794906 2.67679e-21)
(1.14926 -0.0764495 -6.2206e-21)
(1.14444 -0.0734998 1.53926e-20)
(1.13979 -0.0706351 -1.04783e-20)
(1.13531 -0.0678496 -4.89471e-21)
(1.13099 -0.06514 3.02549e-21)
(1.12685 -0.0625021 -3.23255e-21)
(1.12286 -0.0599302 2.64967e-21)
(1.11903 -0.0574193 4.53405e-22)
(1.11537 -0.0549643 -3.24974e-21)
(1.11185 -0.05256 2.14632e-21)
(1.10848 -0.0502012 -2.82278e-21)
(1.10527 -0.0478827 4.10253e-21)
(1.10219 -0.0455997 -3.19478e-21)
(1.09925 -0.0433475 1.45665e-21)
(1.09645 -0.0411212 -5.31388e-23)
(1.09378 -0.0389162 6.30461e-22)
(1.09124 -0.0367287 1.2776e-21)
(1.08882 -0.034556 -3.39686e-22)
(1.08653 -0.0323942 -2.13001e-22)
(1.08435 -0.0302399 -3.01364e-22)
(1.08229 -0.0280901 -3.29906e-22)
(1.08036 -0.0259416 3.99818e-22)
(1.07854 -0.0237915 1.05419e-22)
(1.07684 -0.0216364 5.20822e-23)
(1.07527 -0.0194729 3.69313e-22)
(1.07383 -0.0172974 1.8212e-22)
(1.07252 -0.0151051 1.69043e-22)
(1.07136 -0.0128916 1.6096e-22)
(1.07036 -0.0106492 -1.2772e-22)
(1.06952 -0.00837528 4.25195e-23)
(1.06886 -0.00604912 3.69681e-23)
(1.06839 -0.00368856 -5.00035e-24)
(1.06814 -0.00122747 2.02824e-24)
(1.19349 -0.0945524 -9.35343e-21)
(1.18681 -0.0912593 5.03834e-21)
(1.18019 -0.0879774 1.40308e-20)
(1.17385 -0.0848114 9.55057e-21)
(1.16786 -0.0817533 -2.03113e-20)
(1.16218 -0.0787931 -7.84667e-21)
(1.15677 -0.0759262 1.33409e-20)
(1.15159 -0.0731459 3.03715e-21)
(1.14661 -0.0704446 -5.44229e-22)
(1.14181 -0.0678158 -8.82717e-21)
(1.1372 -0.0652539 3.08174e-21)
(1.13276 -0.0627551 -1.09809e-20)
(1.1285 -0.0603152 1.11117e-20)
(1.12441 -0.0579291 5.8755e-21)
(1.12049 -0.0555921 -1.02368e-21)
(1.11674 -0.0532992 -2.85599e-21)
(1.11314 -0.0510458 -4.93041e-21)
(1.10971 -0.0488269 7.55227e-21)
(1.10642 -0.0466379 -2.55722e-21)
(1.10329 -0.0444744 2.0494e-21)
(1.1003 -0.0423321 -3.48816e-21)
(1.09744 -0.0402068 1.17201e-21)
(1.09473 -0.0380945 3.26113e-22)
(1.09214 -0.035992 -1.07034e-21)
(1.08968 -0.0338966 4.58542e-22)
(1.08735 -0.0318054 8.19395e-22)
(1.08514 -0.0297156 -6.37021e-22)
(1.08305 -0.0276246 1.29558e-21)
(1.08109 -0.0255298 -4.0741e-22)
(1.07924 -0.0234288 -3.47659e-22)
(1.07752 -0.0213189 -2.41543e-22)
(1.07592 -0.0191972 4.87375e-23)
(1.07446 -0.0170602 -4.35432e-22)
(1.07314 -0.0149041 -7.25664e-24)
(1.07196 -0.0127246 -5.33263e-23)
(1.07094 -0.0105145 4.63646e-23)
(1.07008 -0.00827164 2.3593e-23)
(1.06941 -0.00597566 -8.61409e-23)
(1.06894 -0.00364438 3.95004e-25)
(1.06868 -0.00121492 -2.71287e-23)
(1.19706 -0.0889857 -3.27713e-20)
(1.19022 -0.0860335 1.69113e-20)
(1.18341 -0.0830914 3.22717e-20)
(1.17686 -0.0802637 -4.39719e-20)
(1.17064 -0.0775225 1.89998e-21)
(1.16475 -0.0748597 2.56898e-20)
(1.15916 -0.0722759 8.68983e-21)
(1.15381 -0.0697661 -3.18286e-20)
(1.14868 -0.0673224 1.65952e-20)
(1.14375 -0.064938 8.8001e-21)
(1.13901 -0.0626074 -8.52316e-21)
(1.13446 -0.0603263 -4.48325e-21)
(1.13009 -0.0580909 -1.19362e-21)
(1.12591 -0.0558964 -5.33676e-21)
(1.1219 -0.0537383 9.1199e-21)
(1.11806 -0.0516121 3.60921e-21)
(1.11439 -0.0495134 -5.16759e-21)
(1.11089 -0.0474378 -2.84881e-21)
(1.10754 -0.0453812 3.9904e-21)
(1.10435 -0.0433396 -5.34689e-21)
(1.10131 -0.0413092 3.24856e-21)
(1.09841 -0.0392866 1.59529e-21)
(1.09565 -0.0372683 3.42497e-22)
(1.09302 -0.0352517 -5.94512e-22)
(1.09053 -0.0332346 -1.14621e-21)
(1.08816 -0.0312147 2.41543e-23)
(1.08592 -0.0291898 -9.66205e-22)
(1.0838 -0.0271579 -3.90905e-22)
(1.08181 -0.0251172 1.82037e-22)
(1.07993 -0.0230655 1.31732e-21)
(1.07819 -0.0210009 -8.36347e-22)
(1.07657 -0.0189209 -7.25679e-22)
(1.07509 -0.0168227 6.64644e-22)
(1.07374 -0.0147028 -3.18661e-22)
(1.07255 -0.0125572 9.81981e-23)
(1.07151 -0.0103794 -8.07991e-23)
(1.07064 -0.00816773 1.78539e-22)
(1.06996 -0.00590202 2.57268e-22)
(1.06948 -0.00360001 1.38345e-22)
(1.06921 -0.00120232 4.12573e-23)
(1.20045 -0.0832589 -1.2853e-20)
(1.19345 -0.0806562 5.29844e-20)
(1.18647 -0.0780675 -9.40688e-21)
(1.17972 -0.0755932 -3.54187e-20)
(1.17329 -0.0731832 2.75335e-20)
(1.16721 -0.0708298 -8.84407e-21)
(1.16143 -0.0685398 -5.007e-21)
(1.15592 -0.0663104 -1.13225e-20)
(1.15065 -0.0641336 2.31544e-21)
(1.14559 -0.0620021 1.31538e-20)
(1.14073 -0.0599105 -9.59041e-21)
(1.13608 -0.0578544 3.3496e-21)
(1.13161 -0.0558299 8.60051e-21)
(1.12734 -0.0538327 -5.28478e-21)
(1.12325 -0.0518586 9.76683e-21)
(1.11933 -0.0499035 -7.23953e-21)
(1.1156 -0.0479634 6.38335e-21)
(1.11203 -0.0460345 6.49845e-22)
(1.10863 -0.0441131 -1.326e-21)
(1.10538 -0.0421958 -6.73315e-21)
(1.10229 -0.0402794 5.43821e-21)
(1.09935 -0.0383611 -3.13847e-21)
(1.09655 -0.0364381 3.44983e-22)
(1.09389 -0.0345085 3.06759e-21)
(1.09136 -0.0325704 -3.38098e-21)
(1.08896 -0.0306224 2.58513e-21)
(1.08668 -0.0286628 1.14546e-21)
(1.08454 -0.0266904 8.18704e-22)
(1.08251 -0.0247038 -2.64983e-22)
(1.08062 -0.0227017 -3.96615e-22)
(1.07885 -0.0206825 -8.62167e-23)
(1.07721 -0.0186443 1.94292e-22)
(1.0757 -0.0165849 -2.63225e-22)
(1.07434 -0.014501 4.7815e-22)
(1.07312 -0.0123896 -2.58833e-22)
(1.07207 -0.0102441 -8.7534e-24)
(1.07119 -0.00806357 -4.90958e-22)
(1.0705 -0.00582821 -2.74048e-22)
(1.07001 -0.00355546 5.46861e-23)
(1.06974 -0.00118962 -8.92903e-23)
(1.20365 -0.0773715 8.57069e-20)
(1.1965 -0.0751263 -4.11026e-20)
(1.18936 -0.0729049 -1.87601e-20)
(1.18243 -0.070799 4.6338e-20)
(1.17581 -0.0687344 -1.26284e-20)
(1.16954 -0.066703 -6.35595e-22)
(1.16359 -0.0647177 1.95621e-20)
(1.15793 -0.0627787 -1.50767e-20)
(1.15252 -0.060878 2.35503e-20)
(1.14734 -0.0590082 8.20973e-22)
(1.14237 -0.0571636 -2.56394e-20)
(1.13762 -0.0553396 1.0744e-20)
(1.13306 -0.0535326 -1.46483e-20)
(1.1287 -0.0517385 5.3855e-21)
(1.12454 -0.0499535 -4.57845e-21)
(1.12056 -0.0481741 5.08664e-21)
(1.11676 -0.0463966 -9.70651e-21)
(1.11313 -0.0446177 3.39227e-21)
(1.10968 -0.0428343 5.11892e-21)
(1.10639 -0.0410437 -2.79365e-21)
(1.10325 -0.0392432 -1.06371e-21)
(1.10027 -0.0374308 1.42003e-21)
(1.09743 -0.0356044 2.46269e-21)
(1.09473 -0.0337626 8.46816e-23)
(1.09217 -0.0319044 -2.26128e-21)
(1.08973 -0.0300288 -1.07898e-23)
(1.08743 -0.028135 4.8151e-22)
(1.08526 -0.0262223 -1.63241e-21)
(1.08321 -0.0242901 -4.74651e-22)
(1.08129 -0.0223376 1.60086e-22)
(1.07949 -0.0203638 -3.12724e-23)
(1.07783 -0.0183674 -1.11168e-21)
(1.07631 -0.0163467 -3.89074e-22)
(1.07492 -0.014299 -2.04196e-22)
(1.07369 -0.0122217 -2.55239e-23)
(1.07262 -0.0101085 3.11016e-22)
(1.07173 -0.00795915 3.09584e-22)
(1.07103 -0.0057542 3.04771e-22)
(1.07053 -0.00351072 -3.43251e-22)
(1.07025 -0.0011768 -3.9866e-23)
(1.20665 -0.0713225 1.80757e-20)
(1.19936 -0.0694423 -3.06554e-20)
(1.19208 -0.0676019 7.15438e-20)
(1.18499 -0.0658795 -9.15206e-21)
(1.1782 -0.0641749 -8.22439e-20)
(1.17175 -0.0624785 2.91038e-20)
(1.16563 -0.0608093 3.7175e-20)
(1.15982 -0.0591709 1.13745e-20)
(1.15429 -0.0575558 -4.35754e-20)
(1.14899 -0.0559564 4.09697e-20)
(1.14393 -0.0543668 -2.74717e-20)
(1.13908 -0.0527823 4.10026e-21)
(1.13444 -0.0511994 5.92653e-21)
(1.13 -0.0496143 -2.30863e-21)
(1.12577 -0.0480238 -6.20427e-21)
(1.12173 -0.0464245 1.41212e-20)
(1.11787 -0.0448134 -1.17201e-20)
(1.11419 -0.0431879 2.89612e-21)
(1.11069 -0.0415454 -3.39891e-22)
(1.10735 -0.0398838 1.96376e-21)
(1.10418 -0.0382012 1.49079e-21)
(1.10116 -0.0364962 -2.42269e-21)
(1.09828 -0.0347676 3.90538e-21)
(1.09555 -0.0330146 -2.68902e-21)
(1.09296 -0.0312369 -1.23697e-21)
(1.0905 -0.0294342 1.59356e-21)
(1.08817 -0.0276065 -2.33683e-22)
(1.08597 -0.0257538 -2.76116e-22)
(1.08389 -0.023876 3.36465e-22)
(1.08195 -0.0219732 -1.40622e-21)
(1.08013 -0.0200448 8.94191e-22)
(1.07845 -0.0180903 5.78385e-22)
(1.0769 -0.0161083 -4.45093e-23)
(1.0755 -0.0140967 1.72738e-22)
(1.07425 -0.0120534 -5.1675e-22)
(1.07317 -0.00997263 9.78724e-23)
(1.07226 -0.00785445 -9.50829e-23)
(1.07155 -0.00567998 1.50401e-22)
(1.07105 -0.00346577 2.92895e-22)
(1.07076 -0.00116385 1.07224e-22)
(1.20945 -0.0651098 5.94442e-20)
(1.20202 -0.063602 -5.81417e-20)
(1.19462 -0.0621565 -2.46896e-20)
(1.1874 -0.0608329 4.78551e-20)
(1.18045 -0.0595032 7.83628e-21)
(1.17383 -0.058155 -1.96361e-20)
(1.16755 -0.0568137 1.17047e-20)
(1.16161 -0.0554864 -7.48469e-21)
(1.15595 -0.0541668 -3.8301e-20)
(1.15055 -0.0528467 4.45079e-20)
(1.14539 -0.0515203 -3.27204e-20)
(1.14046 -0.0501828 2.48078e-20)
(1.13574 -0.0488307 -1.15139e-20)
(1.13124 -0.0474607 -9.80447e-21)
(1.12694 -0.0460698 1.34382e-21)
(1.12284 -0.0446552 2.53403e-20)
(1.11893 -0.0432146 -1.36631e-20)
(1.11521 -0.0417458 1.51673e-20)
(1.11166 -0.040247 -1.75934e-20)
(1.10829 -0.0387167 6.59449e-21)
(1.10508 -0.0371539 3.1783e-22)
(1.10202 -0.0355579 -2.48368e-21)
(1.09911 -0.0339282 2.15462e-21)
(1.09635 -0.0322649 1.51664e-21)
(1.09373 -0.0305683 -2.14133e-22)
(1.09125 -0.028839 7.75119e-22)
(1.08889 -0.0270777 -1.13364e-22)
(1.08666 -0.0252851 8.64225e-22)
(1.08457 -0.0234619 2.48278e-22)
(1.0826 -0.0216087 -8.24903e-22)
(1.08076 -0.0197258 -9.34245e-22)
(1.07906 -0.017813 5.0281e-22)
(1.07749 -0.0158697 1.04002e-21)
(1.07607 -0.0138942 -1.06286e-22)
(1.07481 -0.0118849 1.46707e-22)
(1.07371 -0.00983646 5.40153e-23)
(1.07279 -0.00774946 3.00243e-23)
(1.07206 -0.00560555 -3.19341e-22)
(1.07155 -0.00342061 -3.2896e-22)
(1.07126 -0.00115074 -9.34974e-23)
(1.21205 -0.0587305 9.86704e-20)
(1.20449 -0.0576025 2.84418e-20)
(1.19698 -0.0565664 -6.25427e-20)
(1.18964 -0.0556569 -1.48989e-21)
(1.18255 -0.0547171 -4.22616e-21)
(1.17578 -0.0537309 5.42052e-20)
(1.16936 -0.0527298 -2.96677e-20)
(1.16328 -0.0517248 -1.45338e-20)
(1.15751 -0.0507105 -2.4097e-21)
(1.15201 -0.049679 -5.35812e-22)
(1.14676 -0.0486241 2.63424e-20)
(1.14176 -0.0475412 -3.78061e-20)
(1.13697 -0.0464268 1.69922e-20)
(1.13241 -0.045278 -1.76654e-20)
(1.12805 -0.044092 3.21535e-21)
(1.1239 -0.0428669 -4.85039e-21)
(1.11995 -0.0416007 1.68225e-20)
(1.11618 -0.0402919 -8.59319e-22)
(1.1126 -0.0389396 -5.40164e-22)
(1.10919 -0.0375431 -8.76164e-21)
(1.10594 -0.0361019 2.87688e-21)
(1.10286 -0.0346163 5.44735e-21)
(1.09992 -0.0330867 -8.19069e-21)
(1.09714 -0.0315139 2.87012e-21)
(1.09449 -0.0298991 -1.53951e-21)
(1.09198 -0.0282436 -2.33963e-22)
(1.0896 -0.0265489 2.28814e-21)
(1.08735 -0.0248165 -1.68822e-21)
(1.08523 -0.023048 2.22698e-21)
(1.08324 -0.0212444 1.06001e-21)
(1.08138 -0.0194068 7.58344e-22)
(1.07965 -0.0175357 1.12749e-22)
(1.07807 -0.0156309 -1.41362e-21)
(1.07663 -0.0136915 2.45233e-22)
(1.07535 -0.0117162 -3.9852e-22)
(1.07424 -0.0097 -6.03069e-22)
(1.07331 -0.00764418 2.06247e-23)
(1.07257 -0.00553087 1.2564e-22)
(1.07205 -0.00337524 -2.24469e-22)
(1.07176 -0.00113746 7.57338e-23)
(1.21444 -0.0521806 -5.13155e-20)
(1.20675 -0.0514401 -6.51369e-21)
(1.19915 -0.0508283 6.84722e-20)
(1.19172 -0.0503489 1.7859e-20)
(1.18451 -0.0498141 -5.95518e-20)
(1.1776 -0.0492041 -1.58055e-20)
(1.17104 -0.0485562 4.11327e-20)
(1.16484 -0.047885 -1.73369e-20)
(1.15896 -0.0471864 2.39825e-20)
(1.15337 -0.0464528 -4e-20)
(1.14805 -0.045678 4.10504e-20)
(1.14297 -0.0448576 -1.27132e-20)
(1.13812 -0.043988 -5.0151e-21)
(1.13351 -0.0430665 1.06169e-20)
(1.1291 -0.042091 -2.20601e-20)
(1.12491 -0.04106 1.41245e-20)
(1.12092 -0.0399722 -8.83261e-21)
(1.11711 -0.038827 1.82019e-20)
(1.1135 -0.037624 -1.69278e-20)
(1.11006 -0.0363634 3.42515e-22)
(1.10678 -0.0350458 1.0387e-20)
(1.10367 -0.0336721 -8.79268e-21)
(1.10071 -0.0322436 1.79298e-21)
(1.0979 -0.0307621 3.57304e-21)
(1.09523 -0.0292295 2.05272e-22)
(1.09269 -0.0276482 -5.26078e-22)
(1.09029 -0.0260203 -2.6585e-21)
(1.08802 -0.0243483 2.76638e-21)
(1.08588 -0.0226343 2.38528e-22)
(1.08386 -0.0208803 -4.48075e-22)
(1.08198 -0.019088 -6.85615e-22)
(1.08024 -0.0172584 5.9187e-22)
(1.07864 -0.0153921 5.20017e-22)
(1.07718 -0.0134885 3.27859e-22)
(1.07589 -0.0115471 2.25695e-22)
(1.07476 -0.00956324 -2.74864e-22)
(1.07381 -0.00753857 -1.98334e-22)
(1.07307 -0.00545593 -1.30708e-22)
(1.07254 -0.00332964 -2.08706e-22)
(1.07224 -0.00112398 6.7611e-23)
(1.21663 -0.0454547 1.06659e-19)
(1.20881 -0.0451099 -8.45423e-20)
(1.20112 -0.0449387 1.15194e-19)
(1.19362 -0.0449057 -7.00117e-20)
(1.18631 -0.0447912 -3.40726e-21)
(1.17928 -0.044572 -2.63382e-20)
(1.1726 -0.0442909 8.15393e-20)
(1.16627 -0.0439658 -4.54566e-21)
(1.1603 -0.0435938 -1.30502e-20)
(1.15462 -0.0431678 -2.22669e-20)
(1.14923 -0.042682 2.3391e-21)
(1.14409 -0.042132 2.61755e-20)
(1.1392 -0.0415143 -2.47638e-20)
(1.13453 -0.0408266 1.23649e-20)
(1.13009 -0.0400672 -7.58428e-21)
(1.12586 -0.0392351 1.17335e-20)
(1.12183 -0.0383298 -2.52433e-20)
(1.118 -0.0373516 9.44103e-21)
(1.11436 -0.0363007 1.54633e-21)
(1.11089 -0.0351784 4.8642e-21)
(1.10759 -0.0339861 9.36562e-22)
(1.10445 -0.0327257 -4.75831e-21)
(1.10147 -0.0313994 6.17904e-21)
(1.09864 -0.0300099 -4.05974e-21)
(1.09595 -0.0285601 4.56365e-21)
(1.09339 -0.0270532 -3.20225e-21)
(1.09097 -0.0254923 -2.17084e-21)
(1.08868 -0.0238806 -6.1881e-22)
(1.08651 -0.0222211 3.69232e-21)
(1.08448 -0.0205166 -1.31511e-21)
(1.08258 -0.0187693 -3.09012e-23)
(1.08082 -0.0169811 -1.70722e-21)
(1.0792 -0.0151532 5.42229e-22)
(1.07772 -0.0132854 5.05586e-22)
(1.07641 -0.0113778 -4.26026e-22)
(1.07527 -0.00942617 1.65713e-22)
(1.07431 -0.00743263 8.4918e-22)
(1.07356 -0.00538071 2.07372e-22)
(1.07302 -0.0032838 1.04119e-21)
(1.07272 -0.00111029 2.95621e-22)
(1.2186 -0.0385463 -1.33537e-19)
(1.21066 -0.0386062 1.08334e-19)
(1.20289 -0.038893 -3.00281e-20)
(1.19533 -0.0393236 -2.19519e-20)
(1.18795 -0.039645 4.39878e-20)
(1.18082 -0.0398314 -2.57338e-20)
(1.17402 -0.0399314 -1.03242e-20)
(1.16759 -0.0399656 -9.28185e-21)
(1.16152 -0.0399317 3.70101e-20)
(1.15578 -0.0398234 -1.3993e-20)
(1.15032 -0.0396356 8.55458e-23)
(1.14513 -0.0393642 2.16612e-20)
(1.14019 -0.0390059 -3.4071e-20)
(1.13549 -0.0385586 2.3942e-20)
(1.13101 -0.0380209 -4.44399e-21)
(1.12675 -0.0373926 2.11316e-21)
(1.1227 -0.0366741 -1.77073e-20)
(1.11884 -0.0358662 1.08513e-20)
(1.11517 -0.0349704 -1.05327e-20)
(1.11169 -0.0339887 -7.18195e-21)
(1.10837 -0.0329235 -1.60391e-21)
(1.10521 -0.0317776 1.86916e-21)
(1.10221 -0.0305545 3.23848e-21)
(1.09936 -0.0292577 -1.76341e-21)
(1.09665 -0.0278912 -2.76891e-21)
(1.09407 -0.0264589 3.31992e-21)
(1.09163 -0.0249651 1.66684e-21)
(1.08932 -0.0234137 -1.53925e-21)
(1.08714 -0.0218086 2.80872e-22)
(1.08509 -0.0201533 -4.71238e-22)
(1.08317 -0.018451 2.03013e-21)
(1.08139 -0.0167041 -1.90545e-21)
(1.07975 -0.0149142 4.41474e-22)
(1.07826 -0.0130821 -1.18677e-22)
(1.07693 -0.0112082 2.31467e-22)