/*--------------------------------*- C++ -*----------------------------------*\
  =========                 |
  \\      /  F ield         | OpenFOAM: The Open Source CFD Toolbox
   \\    /   O peration     | Website:  https://openfoam.org
    \\  /    A nd           | Version:  7
     \\/     M anipulation  |
\*---------------------------------------------------------------------------*/
FoamFile
{
    version     2.0;
    format      ascii;
    class       volScalarField;
    location    "5";
    object      p;
}
// * * * * * * * * * * * * * * * * * * * * * * * * * * * * * * * * * * * * * //

dimensions      [0 2 -2 0 0 0 0];

internalField   nonuniform List<scalar> 
1987
(
0.00162922
0.00148085
0.0013442
0.00121901
0.00110471
0.000999509
0.000903703
0.000815634
0.000735423
0.000662633
0.000596308
0.000536019
0.000481133
0.000430985
0.000386102
0.000345399
0.000308597
0.000275483
0.000246087
0.000218138
0.000193858
0.000172055
0.000152487
0.000134962
0.000119287
0.000105285
9.27959e-05
8.16706e-05
7.17743e-05
6.29839e-05
5.51872e-05
4.82821e-05
4.21753e-05
3.67826e-05
3.20271e-05
2.78399e-05
2.41574e-05
2.09244e-05
1.8089e-05
1.56081e-05
1.3438e-05
1.15456e-05
9.89241e-06
8.45462e-06
7.19714e-06
6.10749e-06
5.15033e-06
4.32409e-06
3.58781e-06
2.95498e-06
2.37474e-06
1.88101e-06
1.40279e-06
1.00195e-06
5.74598e-07
2.24168e-07
0.00158968
0.00144519
0.00131219
0.0011902
0.00107867
0.000976158
0.000882616
0.000796801
0.000718575
0.000647431
0.000582651
0.000523732
0.000470218
0.000421323
0.000377347
0.000337545
0.000301569
0.00026914
0.000240117
0.000213231
0.000189484
0.00016817
0.000149045
0.000131916
0.000116594
0.000102908
9.06989e-05
7.98234e-05
7.01491e-05
6.15561e-05
5.39344e-05
4.71844e-05
4.12147e-05
3.59434e-05
3.1295e-05
2.72022e-05
2.36028e-05
2.04429e-05
1.76717e-05
1.5247e-05
1.31263e-05
1.12772e-05
9.66193e-06
8.25706e-06
7.02853e-06
5.96391e-06
5.02905e-06
4.22189e-06
3.50294e-06
2.88465e-06
2.31829e-06
1.83591e-06
1.36951e-06
9.77627e-07
5.61437e-07
2.17783e-07
0.00154246
0.00140263
0.00127394
0.0011558
0.00104764
0.000948309
0.000857545
0.000774362
0.000698465
0.000629371
0.000566478
0.000509259
0.000457289
0.000409816
0.000367032
0.000328338
0.000293366
0.000261825
0.000233534
0.000207526
0.000184388
0.000163644
0.000145036
0.000128371
0.000113464
0.000100147
8.8268e-05
7.76857e-05
6.82721e-05
5.99101e-05
5.24932e-05
4.59243e-05
4.01146e-05
3.49843e-05
3.04602e-05
2.64768e-05
2.29735e-05
1.98978e-05
1.72005e-05
1.48404e-05
1.27763e-05
1.09765e-05
9.40428e-06
8.03676e-06
6.84099e-06
5.80463e-06
4.89479e-06
4.109e-06
3.40935e-06
2.8073e-06
2.25635e-06
1.78652e-06
1.33314e-06
9.5107e-07
5.46993e-07
2.11009e-07
0.00149283
0.00135789
0.00123367
0.00111956
0.00101497
0.000918949
0.000831122
0.000750664
0.000677212
0.000610296
0.000549377
0.000493931
0.000443547
0.000397597
0.000356109
0.00031859
0.00028468
0.000254088
0.000226587
0.000201438
0.000178975
0.00015884
0.000140781
0.000124608
0.00011014
9.7216e-05
8.56863e-05
7.54149e-05
6.62774e-05
5.81605e-05
5.09608e-05
4.4584e-05
3.8944e-05
3.39635e-05
2.95715e-05
2.57043e-05
2.23031e-05
1.9317e-05
1.66982e-05
1.44069e-05
1.2403e-05
1.06556e-05
9.12934e-06
7.8016e-06
6.64072e-06
5.63451e-06
4.75135e-06
3.98839e-06
3.30934e-06
2.72463e-06
2.19009e-06
1.7337e-06
1.2942e-06
9.22699e-07
5.31481e-07
2.03908e-07
0.000245873
0.000219223
0.00019496
0.000173227
0.000153742
0.000136266
0.000120614
0.000106613
9.41043e-05
8.29451e-05
7.30032e-05
6.41585e-05
5.63016e-05
4.93323e-05
4.31593e-05
3.76994e-05
3.28779e-05
2.86261e-05
2.48824e-05
2.15896e-05
1.86987e-05
1.61634e-05
1.39451e-05
1.20052e-05
1.03137e-05
8.83627e-06
7.55087e-06
6.42712e-06
5.45301e-06
4.5983e-06
3.8597e-06
3.20259e-06
2.63636e-06
2.1193e-06
1.67729e-06
1.25258e-06
8.92422e-07
5.14841e-07
1.96447e-07
0.00218102
0.00198573
0.00180641
0.0016419
0.00149107
0.0013529
0.0012264
0.00111069
0.00100494
0.000908366
0.00082025
0.000739922
0.000666757
0.000600183
0.00053967
0.000484722
0.000434876
0.000389703
0.000348813
0.000311844
0.000278461
0.000248354
0.000221232
0.000196827
0.000174892
0.000155201
0.000137545
0.000121735
0.000107595
9.49657e-05
8.3701e-05
7.36676e-05
6.47431e-05
5.68159e-05
4.9784e-05
4.35553e-05
3.80451e-05
3.3178e-05
2.88835e-05
2.51016e-05
2.17734e-05
1.88516e-05
1.62859e-05
1.40401e-05
1.20696e-05
1.03506e-05
8.84024e-06
7.52764e-06
6.36711e-06
5.36371e-06
4.46186e-06
3.6881e-06
0.00218057
0.00198531
0.00180604
0.00164155
0.00149076
0.00135261
0.00122614
0.00111046
0.00100472
0.00090817
0.000820072
0.000739759
0.000666608
0.000600047
0.000539546
0.000484609
0.000434773
0.000389609
0.000348728
0.000311766
0.00027839
0.00024829
0.000221174
0.000196775
0.000174845
0.000155158
0.000137506
0.0001217
0.000107563
9.49374e-05
8.36757e-05
7.36449e-05
6.47228e-05
5.67977e-05
4.97677e-05
4.35408e-05
3.80322e-05
3.31666e-05
2.88734e-05
2.50927e-05
2.17656e-05
1.88447e-05
1.62798e-05
1.40347e-05
1.20649e-05
1.03465e-05
8.83673e-06
7.52463e-06
6.3645e-06
5.36143e-06
4.45987e-06
3.68641e-06
2.96664e-06
2.35832e-06
1.75345e-06
1.26033e-06
7.13228e-07
2.89921e-07
0.00217966
0.00198449
0.00180529
0.00164087
0.00149014
0.00135205
0.00122563
0.00110999
0.00100429
0.00090778
0.000819716
0.000739434
0.000666311
0.000599775
0.000539298
0.000484383
0.000434567
0.000389421
0.000348557
0.00031161
0.000278249
0.000248161
0.000221058
0.000196669
0.000174749
0.000155072
0.000137428
0.000121629
0.0001075
9.48807e-05
8.36249e-05
7.35994e-05
6.4682e-05
5.67612e-05
4.97352e-05
4.35118e-05
3.80064e-05
3.31437e-05
2.88532e-05
2.50748e-05
2.17498e-05
1.88307e-05
1.62675e-05
1.40239e-05
1.20555e-05
1.03383e-05
8.82966e-06
7.51853e-06
6.35925e-06
5.35691e-06
4.45601e-06
3.68315e-06
2.96393e-06
2.35626e-06
1.75216e-06
1.2595e-06
7.12834e-07
2.89794e-07
0.0021783
0.00198325
0.00180416
0.00163985
0.00148921
0.00135121
0.00122486
0.00110928
0.00100365
0.000907194
0.000819181
0.000738946
0.000665865
0.000599368
0.000538926
0.000484044
0.000434258
0.00038914
0.0003483
0.000311376
0.000278036
0.000247968
0.000220883
0.000196511
0.000174607
0.000154942
0.000137312
0.000121524
0.000107405
9.47956e-05
8.35486e-05
7.35311e-05
6.46208e-05
5.67065e-05
4.96863e-05
4.34683e-05
3.79677e-05
3.31093e-05
2.88228e-05
2.50479e-05
2.17261e-05
1.88098e-05
1.62491e-05
1.40078e-05
1.20414e-05
1.03261e-05
8.81903e-06
7.50935e-06
6.35136e-06
5.35014e-06
4.45026e-06
3.67831e-06
2.95997e-06
2.35317e-06
1.75008e-06
1.25807e-06
7.12108e-07
2.89499e-07
0.00217649
0.00198161
0.00180266
0.00163849
0.00148798
0.00135008
0.00122383
0.00110834
0.0010028
0.000906414
0.000818469
0.000738296
0.000665271
0.000598825
0.000538431
0.000483593
0.000433847
0.000388765
0.000347958
0.000311064
0.000277752
0.000247711
0.000220651
0.000196301
0.000174416
0.00015477
0.000137156
0.000121384
0.000107279
9.46823e-05
8.34469e-05
7.34399e-05
6.45392e-05
5.66335e-05
4.96211e-05
4.34102e-05
3.79161e-05
3.30636e-05
2.87823e-05
2.50121e-05
2.16944e-05
1.87819e-05
1.62245e-05
1.39862e-05
1.20226e-05
1.03097e-05
8.80485e-06
7.49709e-06
6.34085e-06
5.34113e-06
4.44264e-06
3.6719e-06
2.95475e-06
2.34906e-06
1.74722e-06
1.25605e-06
7.11054e-07
2.89047e-07
0.00217423
0.00197955
0.00180079
0.00163678
0.00148643
0.00134867
0.00122254
0.00110717
0.00100173
0.000905439
0.00081758
0.000737484
0.000664529
0.000598147
0.000537812
0.000483029
0.000433333
0.000388296
0.00034753
0.000310675
0.000277398
0.00024739
0.00022036
0.000196038
0.000174178
0.000154555
0.000136962
0.000121209
0.000107122
9.45407e-05
8.33198e-05
7.3326e-05
6.44372e-05
5.65423e-05
4.95397e-05
4.33377e-05
3.78516e-05
3.30063e-05
2.87316e-05
2.49672e-05
2.16548e-05
1.8747e-05
1.61938e-05
1.39593e-05
1.19991e-05
1.02892e-05
8.78711e-06
7.48177e-06
6.3277e-06
5.32986e-06
4.43313e-06
3.66391e-06
2.94826e-06
2.3439e-06
1.74358e-06
1.25345e-06
7.09677e-07
2.88441e-07
0.00217151
0.00197708
0.00179854
0.00163474
0.00148458
0.00134698
0.001221
0.00110577
0.00100044
0.00090427
0.000816514
0.00073651
0.000663639
0.000597334
0.00053707
0.000482354
0.000432717
0.000387734
0.000347018
0.000310208
0.000276972
0.000247005
0.000220011
0.000195723
0.000173893
0.000154298
0.000136729
0.000120999
0.000106933
9.43708e-05
8.31674e-05
7.31894e-05
6.43148e-05
5.64329e-05
4.94421e-05
4.32507e-05
3.77743e-05
3.29377e-05
2.86708e-05
2.49134e-05
2.16073e-05
1.87051e-05
1.6157e-05
1.39271e-05
1.19709e-05
1.02647e-05
8.76582e-06
7.46337e-06
6.31192e-06
5.31636e-06
4.42174e-06
3.65435e-06
2.94051e-06
2.33772e-06
1.73916e-06
1.25027e-06
7.07977e-07
2.87683e-07
0.00216834
0.0019742
0.00179592
0.00163236
0.00148242
0.00134502
0.00121921
0.00110413
0.00099895
0.000902908
0.000815272
0.000735376
0.000662602
0.000596387
0.000536205
0.000481566
0.000431999
0.000387079
0.00034642
0.000309663
0.000276477
0.000246556
0.000219605
0.000195355
0.00017356
0.000153997
0.000136458
0.000120755
0.000106713
9.41728e-05
8.29896e-05
7.303e-05
6.41721e-05
5.63054e-05
4.93283e-05
4.31493e-05
3.76841e-05
3.28576e-05
2.85998e-05
2.48507e-05
2.15519e-05
1.86563e-05
1.61141e-05
1.38894e-05
1.19381e-05
1.02361e-05
8.74099e-06
7.4419e-06
6.29351e-06
5.30061e-06
4.40848e-06
3.64322e-06
2.9315e-06
2.33051e-06
1.73396e-06
1.2465e-06
7.05959e-07
2.86776e-07
0.00216473
0.00197091
0.00179293
0.00162964
0.00147995
0.00134278
0.00121716
0.00110226
0.000997244
0.000901354
0.000813854
0.000734082
0.000661418
0.000595305
0.000535217
0.000480667
0.000431179
0.000386331
0.000345738
0.000309041
0.000275911
0.000246044
0.000219141
0.000194935
0.000173181
0.000153654
0.000136148
0.000120475
0.000106461
9.39467e-05
8.27866e-05
7.2848e-05
6.40092e-05
5.61597e-05
4.91983e-05
4.30335e-05
3.75811e-05
3.27662e-05
2.85188e-05
2.4779e-05
2.14886e-05
1.86005e-05
1.60651e-05
1.38465e-05
1.19005e-05
1.02033e-05
8.71263e-06
7.41737e-06
6.27248e-06
5.28263e-06
4.39334e-06
3.63052e-06
2.92122e-06
2.32227e-06
1.72799e-06
1.24216e-06
7.03622e-07
2.85721e-07
0.00216066
0.00196721
0.00178956
0.00162658
0.00147718
0.00134026
0.00121485
0.00110016
0.000995327
0.000899607
0.000812261
0.000732627
0.000660088
0.00059409
0.000534107
0.000479657
0.000430259
0.000385491
0.000344971
0.000308342
0.000275274
0.000245467
0.00021862
0.000194463
0.000172754
0.000153268
0.0001358
0.000120161
0.000106178
9.36925e-05
8.25584e-05
7.26434e-05
6.3826e-05
5.59959e-05
4.90521e-05
4.29033e-05
3.74653e-05
3.26634e-05
2.84277e-05
2.46984e-05
2.14175e-05
1.85379e-05
1.601e-05
1.37982e-05
1.18584e-05
1.01666e-05
8.68073e-06
7.38979e-06
6.24883e-06
5.26241e-06
4.37633e-06
3.61624e-06
2.90969e-06
2.313e-06
1.72125e-06
1.23724e-06
7.00971e-07
2.84519e-07
0.00215614
0.00196309
0.00178582
0.00162319
0.0014741
0.00133746
0.0012123
0.00109783
0.000993199
0.00089767
0.000810494
0.000731014
0.000658612
0.000592741
0.000532875
0.000478536
0.000429237
0.000384559
0.000344121
0.000307566
0.000274567
0.000244828
0.000218041
0.00019394
0.00017228
0.00015284
0.000135414
0.000119813
0.000105864
9.34103e-05
8.23051e-05
7.24163e-05
6.36226e-05
5.58141e-05
4.88899e-05
4.27588e-05
3.73368e-05
3.25493e-05
2.83266e-05
2.46089e-05
2.13385e-05
1.84683e-05
1.59489e-05
1.37446e-05
1.18115e-05
1.01258e-05
8.64532e-06
7.35917e-06
6.22258e-06
5.23997e-06
4.35745e-06
3.60041e-06
2.89689e-06
2.30271e-06
1.71375e-06
1.23174e-06
6.98006e-07
2.83172e-07
0.00215117
0.00195857
0.00178171
0.00161945
0.00147073
0.00133439
0.00120949
0.00109527
0.000990863
0.000895543
0.000808554
0.000729242
0.000656992
0.00059126
0.000531521
0.000477305
0.000428115
0.000383535
0.000343186
0.000306714
0.000273791
0.000244126
0.000217406
0.000193364
0.00017176
0.00015237
0.000134989
0.00011943
0.00010552
9.31003e-05
8.20268e-05
7.21667e-05
6.33992e-05
5.56143e-05
4.87116e-05
4.26e-05
3.71955e-05
3.24238e-05
2.82154e-05
2.45106e-05
2.12517e-05
1.83918e-05
1.58817e-05
1.36857e-05
1.17601e-05
1.00809e-05
8.6064e-06
7.32552e-06
6.19373e-06
5.21531e-06
4.33671e-06
3.58302e-06
2.88283e-06
2.2914e-06
1.70548e-06
1.22568e-06
6.94731e-07
2.81679e-07
0.00214574
0.00195363
0.00177722
0.00161538
0.00146706
0.00133105
0.00120643
0.00109248
0.000988317
0.000893227
0.000806442
0.000727313
0.000655227
0.000589647
0.000530047
0.000475965
0.000426893
0.000382419
0.000342168
0.000305786
0.000272944
0.00024336
0.000216713
0.000192738
0.000171193
0.000151857
0.000134526
0.000119012
0.000105144
9.27625e-05
8.17234e-05
7.18947e-05
6.31556e-05
5.53966e-05
4.85173e-05
4.24269e-05
3.70416e-05
3.22872e-05
2.80943e-05
2.44034e-05
2.11571e-05
1.83085e-05
1.58085e-05
1.36216e-05
1.1704e-05
1.0032e-05
8.56399e-06
7.28884e-06
6.16229e-06
5.18844e-06
4.31411e-06
3.56407e-06
2.86752e-06
2.27907e-06
1.69644e-06
1.21905e-06
6.91147e-07
2.80042e-07
0.00213983
0.00194827
0.00177236
0.00161097
0.00146309
0.00132744
0.00120311
0.00108947
0.000985564
0.000890723
0.000804159
0.000725228
0.000653319
0.000587903
0.000528452
0.000474517
0.000425572
0.000381213
0.000341067
0.000304782
0.000272028
0.000242533
0.000215965
0.00019206
0.00017058
0.000151303
0.000134026
0.000118561
0.000104737
9.23969e-05
8.13952e-05
7.16004e-05
6.28921e-05
5.51611e-05
4.83071e-05
4.22396e-05
3.6875e-05
3.21393e-05
2.79632e-05
2.42875e-05
2.10548e-05
1.82184e-05
1.57293e-05
1.35521e-05
1.16433e-05
9.97908e-06
8.5181e-06
7.24915e-06
6.12826e-06
5.15936e-06
4.28966e-06
3.54357e-06
2.85096e-06
2.26573e-06
1.68665e-06
1.21185e-06
6.87257e-07
2.7826e-07
0.00213344
0.00194248
0.00176712
0.00160622
0.00145882
0.00132356
0.00119955
0.00108623
0.000982604
0.000888032
0.000801706
0.000722987
0.000651268
0.000586029
0.000526736
0.000472961
0.000424152
0.000379917
0.000339884
0.000303702
0.000271042
0.000241643
0.00021516
0.000191331
0.00016992
0.000150707
0.000133487
0.000118076
0.0001043
9.20038e-05
8.10422e-05
7.12838e-05
6.26087e-05
5.49077e-05
4.8081e-05
4.20382e-05
3.66959e-05
3.19802e-05
2.78222e-05
2.41627e-05
2.09447e-05
1.81214e-05
1.56441e-05
1.34774e-05
1.1578e-05
9.92218e-06
8.46874e-06
7.20646e-06
6.09167e-06
5.12808e-06
4.26337e-06
3.52152e-06
2.83314e-06
2.25136e-06
1.6761e-06
1.20408e-06
6.83063e-07
2.76333e-07
0.00212653
0.00193626
0.00176151
0.00160113
0.00145427
0.00131941
0.00119573
0.00108277
0.000979437
0.000885156
0.000799085
0.000720592
0.000649076
0.000584025
0.000524901
0.000471297
0.000422633
0.00037853
0.000338618
0.000302547
0.000269986
0.000240692
0.000214299
0.000190551
0.000169215
0.000150069
0.000132911
0.000117556
0.000103833
9.15833e-05
8.06645e-05
7.09452e-05
6.23055e-05
5.46367e-05
4.78391e-05
4.18226e-05
3.65042e-05
3.181e-05
2.76713e-05
2.40293e-05
2.08269e-05
1.80177e-05
1.5553e-05
1.33975e-05
1.15082e-05
9.86129e-06
8.41593e-06
7.16079e-06
6.05252e-06
5.09462e-06
4.23524e-06
3.49794e-06
2.81408e-06
2.23599e-06
1.6648e-06
1.19576e-06
6.78566e-07
2.74261e-07
0.00211911
0.00192961
0.0017555
0.00159569
0.00144943
0.001315
0.00119167
0.00107909
0.000976065
0.000882096
0.000796297
0.000718044
0.000646744
0.000581893
0.000522947
0.000469528
0.000421018
0.000377055
0.000337272
0.000301318
0.000268861
0.00023968
0.000213383
0.000189722
0.000168464
0.00014939
0.000132298
0.000117003
0.000103335
9.11354e-05
8.02623e-05
7.05845e-05
6.19825e-05
5.4348e-05
4.75815e-05
4.15931e-05
3.63e-05
3.16287e-05
2.75107e-05
2.38872e-05
2.07015e-05
1.79072e-05
1.54559e-05
1.33124e-05
1.14338e-05
9.79645e-06
8.35969e-06
7.11215e-06
6.01082e-06
5.05899e-06
4.20529e-06
3.47282e-06
2.79378e-06
2.21961e-06
1.65275e-06
1.18688e-06
6.73767e-07
2.72043e-07
0.002111
0.00192255
0.00174911
0.00158989
0.0014443
0.00131032
0.00118735
0.0010752
0.000972486
0.000878854
0.000793344
0.000715343
0.000644272
0.000579634
0.000520874
0.000467654
0.000419305
0.000375492
0.000335844
0.000300015
0.000267667
0.000238607
0.000212412
0.000188842
0.000167668
0.00014867
0.000131648
0.000116417
0.000102806
9.06603e-05
7.98356e-05
7.02019e-05
6.16399e-05
5.40417e-05
4.73082e-05
4.13496e-05
3.60834e-05
3.14363e-05
2.73402e-05
2.37364e-05
2.05684e-05
1.779e-05
1.53529e-05
1.32221e-05
1.13549e-05
9.72767e-06
8.30003e-06
7.06056e-06
5.96659e-06
5.02119e-06
4.17351e-06
3.44618e-06
2.77225e-06
2.20223e-06
1.63995e-06
1.17744e-06
6.68671e-07
2.69679e-07
0.00210083
0.00191487
0.00174235
0.00158371
0.00143888
0.00130537
0.00118278
0.00107109
0.000968701
0.000875431
0.000790228
0.000712492
0.000641664
0.000577248
0.000518682
0.000465676
0.000417497
0.00037384
0.000334337
0.000298638
0.000266402
0.000237474
0.000211386
0.000187912
0.000166826
0.000147909
0.000130961
0.000115797
0.000102248
9.01582e-05
7.93847e-05
6.97974e-05
6.12778e-05
5.3718e-05
4.70193e-05
4.10922e-05
3.58545e-05
3.1233e-05
2.716e-05
2.3577e-05
2.04277e-05
1.7666e-05
1.5244e-05
1.31266e-05
1.12715e-05
9.65497e-06
8.23698e-06
7.00602e-06
5.91984e-06
4.98123e-06
4.13992e-06
3.41802e-06
2.74948e-06
2.18384e-06
1.62641e-06
1.16744e-06
6.63277e-07
2.67167e-07
0.00208806
0.00190578
0.0017351
0.00157721
0.00143319
0.00130014
0.00117795
0.00106676
0.000964707
0.000871828
0.000786949
0.00070949
0.000638919
0.000574738
0.000516373
0.000463595
0.000415593
0.000372102
0.00033275
0.000297188
0.000265068
0.000236282
0.000210306
0.000186933
0.00016594
0.000147108
0.000130237
0.000115144
0.00010166
8.96292e-05
7.89095e-05
6.93713e-05
6.08963e-05
5.3377e-05
4.67149e-05
4.0821e-05
3.56132e-05
3.10188e-05
2.69702e-05
2.34091e-05
2.02795e-05
1.75355e-05
1.51292e-05
1.3026e-05
1.11836e-05
9.57837e-06
8.17055e-06
6.94857e-06
5.87059e-06
4.93914e-06
4.10454e-06
3.38834e-06
2.72548e-06
2.16447e-06
1.61213e-06
1.15689e-06
6.57589e-07
2.64507e-07
0.00189529
0.00172659
0.00157026
0.00142729
0.00129467
0.00117285
0.00106221
0.000960496
0.000868044
0.000783507
0.000706338
0.000636039
0.000572102
0.000513946
0.000461414
0.000413594
0.000370278
0.000331085
0.000295667
0.000263663
0.000235032
0.000209172
0.000185906
0.000165009
0.000146266
0.000129476
0.000114458
0.000101042
8.90735e-05
7.84104e-05
6.89237e-05
6.04955e-05
5.30187e-05
4.63951e-05
4.0536e-05
3.53598e-05
3.07938e-05
2.67708e-05
2.32327e-05
2.01238e-05
1.73983e-05
1.50087e-05
1.29203e-05
1.10913e-05
9.49791e-06
8.10077e-06
6.88822e-06
5.81885e-06
4.89492e-06
4.06737e-06
3.35717e-06
2.70026e-06
2.1441e-06
1.59711e-06
1.1458e-06
6.51609e-07
2.61698e-07
0.00189323
0.00171648
0.00156172
0.00142106
0.00128896
0.00116755
0.00105746
0.000956073
0.000864079
0.000779898
0.000703033
0.000633024
0.000569342
0.000511401
0.000459131
0.0004115
0.000368368
0.000329342
0.000294075
0.000262187
0.000233724
0.000207986
0.000184829
0.000164035
0.000145384
0.00012868
0.00011374
0.000100395
8.84912e-05
7.78874e-05
6.84547e-05
6.00755e-05
5.26432e-05
4.606e-05
4.02375e-05
3.50942e-05
3.0558e-05
2.65618e-05
2.30478e-05
1.99606e-05
1.72545e-05
1.48823e-05
1.28096e-05
1.09945e-05
9.4136e-06
8.02766e-06
6.82499e-06
5.76464e-06
4.8486e-06
4.02842e-06
3.3245e-06
2.67383e-06
2.12275e-06
1.58136e-06
1.13416e-06
6.45339e-07
2.5874e-07
0.00188466
0.00171519
0.00155062
0.0014135
0.0012826
0.00116197
0.00105255
0.00095148
0.000859957
0.000776135
0.000699578
0.000629876
0.000566458
0.000508736
0.000456746
0.000409312
0.000366372
0.000327522
0.000292412
0.000260639
0.000232359
0.000206747
0.000183705
0.000163016
0.000144463
0.000127847
0.000112989
9.97183e-05
8.78826e-05
7.73407e-05
6.79644e-05
5.96365e-05
5.22508e-05
4.57098e-05
3.99253e-05
3.48166e-05
3.03114e-05
2.63433e-05
2.28546e-05
1.979e-05
1.71041e-05
1.47502e-05
1.26938e-05
1.08934e-05
9.32548e-06
7.95123e-06
6.75889e-06
5.70798e-06
4.80017e-06
3.9877e-06
3.29035e-06
2.64619e-06
2.10042e-06
1.56488e-06
1.12197e-06
6.38781e-07
2.5563e-07
0.00187525
0.00170714
0.00155469
0.0014047
0.001275
0.00115516
0.00104718
0.000946652
0.000855678
0.000772259
0.000696006
0.000626611
0.000563459
0.000505959
0.000454263
0.00040703
0.000364294
0.000325628
0.000290679
0.000259015
0.000230939
0.000205455
0.000182533
0.000161954
0.000143502
0.000126979
0.000112205
9.90127e-05
8.72479e-05
7.67706e-05
6.7453e-05
5.91786e-05
5.18414e-05
4.53444e-05
3.95998e-05
3.4527e-05
3.00543e-05
2.61154e-05
2.2653e-05
1.9612e-05
1.69473e-05
1.46124e-05
1.2573e-05
1.07879e-05
9.23356e-06
7.87153e-06
6.68995e-06
5.64888e-06
4.74967e-06
3.94524e-06
3.25473e-06
2.61735e-06
2.07712e-06
1.54767e-06
1.10925e-06
6.31938e-07
2.52369e-07
0.00186589
0.00169813
0.00154478
0.0014017
0.00126967
0.00114637
0.00104086
0.000940777
0.000850965
0.000768175
0.000692292
0.000623227
0.000560351
0.00050312
0.000451702
0.000404663
0.000362135
0.00032366
0.000288882
0.000257319
0.000229465
0.000204111
0.000181313
0.000160849
0.000142502
0.000126076
0.00011139
9.8278e-05
8.65869e-05
7.61768e-05
6.69205e-05
5.87018e-05
5.14151e-05
4.49639e-05
3.92607e-05
3.42254e-05
2.97866e-05
2.58781e-05
2.24431e-05
1.94267e-05
1.6784e-05
1.44689e-05
1.24472e-05
1.06781e-05
9.13787e-06
7.78855e-06
6.61819e-06
5.58736e-06
4.69709e-06
3.90103e-06
3.21764e-06
2.58732e-06
2.05285e-06
1.52975e-06
1.09598e-06
6.24812e-07
2.48954e-07
0.00185623
0.00168908
0.00153585
0.001393
0.00126466
0.001149
0.00103553
0.000933306
0.000845482
0.000763367
0.00068804
0.000619554
0.000557036
0.000500156
0.000449046
0.000402199
0.000359891
0.000321619
0.000287026
0.000255566
0.000227947
0.000202718
0.000180047
0.0001597
0.000141462
0.000125136
0.000110542
9.75139e-05
8.58994e-05
7.55593e-05
6.63667e-05
5.82059e-05
5.09718e-05
4.45682e-05
3.89081e-05
3.39118e-05
2.95081e-05
2.56314e-05
2.22248e-05
1.9234e-05
1.66143e-05
1.43197e-05
1.23165e-05
1.05639e-05
9.03842e-06
7.7023e-06
6.5436e-06
5.52342e-06
4.64246e-06
3.85508e-06
3.1791e-06
2.5561e-06
2.02761e-06
1.5111e-06
1.08219e-06
6.17404e-07
2.45382e-07
0.00184626
0.0016799
0.00152725
0.00138541
0.00125731
0.0011406
0.00103182
0.000935372
0.000841321
0.000757925
0.000683044
0.00061544
0.00055331
0.000496291
0.000446063
0.000399549
0.000357518
0.00031948
0.000285089
0.00025373
0.000226389
0.000201279
0.000178737
0.000158512
0.000140386
0.000124163
0.000109665
9.67233e-05
8.51882e-05
7.49203e-05
6.57935e-05
5.76927e-05
5.0513e-05
4.41586e-05
3.85431e-05
3.35871e-05
2.92198e-05
2.53759e-05
2.19987e-05
1.90344e-05
1.64383e-05
1.41652e-05
1.2181e-05
1.04456e-05
8.93535e-06
7.61292e-06
6.46629e-06
5.45714e-06
4.58582e-06
3.80745e-06
3.13913e-06
2.52372e-06
2.00143e-06
1.49174e-06
1.06787e-06
6.09718e-07
2.41654e-07
0.00183643
0.0016709
0.00151893
0.00137827
0.00125022
0.00113355
0.00102566
0.000928208
0.000837462
0.000756178
0.000681222
0.000612163
0.000549727
0.000491191
0.000442604
0.000396705
0.000355017
0.000317219
0.000283
0.000251499
0.000224712
0.00019977
0.00017738
0.000157287
0.000139281
0.000123167
0.000108766
9.59142e-05
8.44602e-05
7.42663e-05
6.52067e-05
5.71669e-05
5.00427e-05
4.37386e-05
3.81686e-05
3.32538e-05
2.89238e-05
2.51134e-05
2.17663e-05
1.8829e-05
1.62573e-05
1.4006e-05
1.20415e-05
1.03237e-05
8.82911e-06
7.52074e-06
6.38654e-06
5.38874e-06
4.52737e-06
3.75827e-06
3.09785e-06
2.49025e-06
1.97438e-06
1.47173e-06
1.05307e-06
6.01772e-07
2.37775e-07
0.00182645
0.00166179
0.00151056
0.0013709
0.00124331
0.00112708
0.0010196
0.000922183
0.000832399
0.000750744
0.000676629
0.000609057
0.000548075
0.00049418
0.000440575
0.000394399
0.0003527
0.000314961
0.000280819
0.000248706
0.000222807
0.000198146
0.000175947
0.000156004
0.000138128
0.000122128
0.000107831
9.50725e-05
8.37034e-05
7.35865e-05
6.45971e-05
5.6621e-05
4.95545e-05
4.33027e-05
3.77801e-05
3.29081e-05
2.86168e-05
2.48412e-05
2.15255e-05
1.86163e-05
1.60698e-05
1.38412e-05
1.1897e-05
1.01976e-05
8.71921e-06
7.42541e-06
6.30406e-06
5.31803e-06
4.46695e-06
3.70743e-06
3.05519e-06
2.45565e-06
1.94642e-06
1.45103e-06
1.03777e-06
5.93574e-07
2.33742e-07
0.00181174
0.00164846
0.00149841
0.00136004
0.00123342
0.00111795
0.00101141
0.000914631
0.000825483
0.00074427
0.000670766
0.000603793
0.000543061
0.000488058
0.000436468
0.000391094
0.000349919
0.00031268
0.0002792
0.000250166
0.000221208
0.000196502
0.00017439
0.000154561
0.000136807
0.000120929
0.000106748
9.40975e-05
8.28283e-05
7.28031e-05
6.38972e-05
5.5997e-05
4.89992e-05
4.28095e-05
3.73427e-05
3.2521e-05
2.82747e-05
2.45395e-05
2.12598e-05
1.83828e-05
1.58649e-05
1.36619e-05
1.17405e-05
1.00615e-05
8.60102e-06
7.32326e-06
6.21597e-06
5.24275e-06
4.40278e-06
3.65361e-06
3.01006e-06
2.41915e-06
1.91691e-06
1.42925e-06
1.02161e-06
5.85003e-07
2.29454e-07
)
;

boundaryField
{
    inlet
    {
        type            zeroGradient;
    }
    outlet
    {
        type            fixedValue;
        value           uniform 0;
    }
    cylinder
    {
        type            zeroGradient;
    }
    top
    {
        type            symmetryPlane;
    }
    bottom
    {
        type            symmetryPlane;
    }
    defaultFaces
    {
        type            empty;
    }
    procBoundary7to3
    {
        type            processor;
        value           nonuniform List<scalar> 
57
(
0.00144048
0.00131069
0.00119116
0.00108128
0.000980462
0.000887923
0.000803202
0.000725603
0.000654729
0.000590117
0.000531272
0.000477699
0.000429003
0.000384647
0.000344537
0.000308258
0.000275468
0.000275468
0.000237088
0.00021137
0.00018803
0.000167082
0.000148291
0.00013144
0.000116345
0.000102842
9.07776e-05
8.00142e-05
7.04246e-05
6.18931e-05
5.4314e-05
4.75909e-05
4.16358e-05
3.63686e-05
3.1717e-05
2.76152e-05
2.40033e-05
2.08266e-05
1.80375e-05
1.55915e-05
1.34514e-05
1.158e-05
9.94806e-06
8.52276e-06
7.28266e-06
6.19869e-06
5.25891e-06
4.43457e-06
3.72197e-06
3.08838e-06
2.54194e-06
2.04376e-06
1.61686e-06
1.20822e-06
8.59852e-07
4.97062e-07
1.88596e-07
)
;
    }
    procBoundary7to6
    {
        type            processor;
        value           nonuniform List<scalar> 
36
(
0.0017906
0.0017906
0.00174673
0.00169432
0.00163928
0.00239356
0.00239306
0.00239206
0.00239055
0.00238855
0.00238605
0.00238305
0.00237955
0.00237557
0.00237109
0.00236613
0.00236068
0.00235476
0.00234837
0.0023415
0.00233409
0.00232613
0.00231739
0.00230523
0.00229916
0.00208953
0.00208953
0.00207888
0.00206885
0.00205894
0.0020487
0.00203808
0.00202713
0.00201635
0.00200537
0.00198912
)
;
    }
    procBoundary7to11
    {
        type            processor;
        value           nonuniform List<scalar> 
59
(
0.00218102
0.00198573
0.00180641
0.0016419
0.00149107
0.0013529
0.0012264
0.00111069
0.00100494
0.000908366
0.000820251
0.000739922
0.000666757
0.000600183
0.00053967
0.000484722
0.000434876
0.000389703
0.000348813
0.000311844
0.000278462
0.000248354
0.000221232
0.000196827
0.000174892
0.000155201
0.000137545
0.000121735
0.000107595
9.49657e-05
8.3701e-05
7.36676e-05
6.47431e-05
5.68159e-05
4.9784e-05
4.35552e-05
3.80451e-05
3.31778e-05
2.88836e-05
2.51014e-05
2.17734e-05
1.88517e-05
1.62858e-05
1.40402e-05
1.20697e-05
1.03506e-05
8.84003e-06
7.52773e-06
6.36715e-06
5.36387e-06
4.46177e-06
3.6882e-06
2.968e-06
2.968e-06
2.35916e-06
1.75468e-06
1.26126e-06
7.13584e-07
2.90765e-07
)
;
    }
}


// ************************************************************************* //
