/*--------------------------------*- C++ -*----------------------------------*\
  =========                 |
  \\      /  F ield         | OpenFOAM: The Open Source CFD Toolbox
   \\    /   O peration     | Website:  https://openfoam.org
    \\  /    A nd           | Version:  7
     \\/     M anipulation  |
\*---------------------------------------------------------------------------*/
FoamFile
{
    version     2.0;
    format      ascii;
    class       volScalarField;
    location    "12";
    object      p;
}
// * * * * * * * * * * * * * * * * * * * * * * * * * * * * * * * * * * * * * //

dimensions      [1 -1 -2 0 0 0 0];

internalField   nonuniform List<scalar> 
4032
(
1
1
1
1
1
1
1
1
1
1
1
1.3294
7.59043
10.6077
10.7394
10.9478
11.1335
11.3111
11.4744
11.6212
11.7516
11.8569
11.9374
11.9968
1
1
1
1
1
1
1
1
1
1
1
1.29027
7.4261
10.574
10.7267
10.9292
11.1113
11.2841
11.4421
11.582
11.7044
11.8017
11.8734
11.9296
1
1
1
1
1
1
1
1
1
1
1
1.18658
7.12477
10.5452
10.6856
10.8866
11.0686
11.2397
11.3946
11.5291
11.6439
11.7323
11.79
11.8377
1
1
1
1
1
1
1
1
1
1
1
1.01645
6.62389
10.4937
10.6327
10.82
10.9917
11.1506
11.296
11.4242
11.5353
11.6197
11.668
11.7051
1
1
1
1
1
1
1
1
1
1
1
1.00019
5.94996
10.3168
10.5
10.6842
10.8595
11.0164
11.1556
11.2702
11.3595
11.4253
11.4592
11.5076
1
1
1
1
1
1
1
1
1
1
1
0.999999
5.10479
10.0854
10.3889
10.5578
10.7247
10.8637
10.9821
11.0796
11.1573
11.2169
11.2289
11.189
1
1
1
1
1
1
1
1
1
1
1
1
4.13579
9.73012
10.2724
10.4292
10.5734
10.6821
10.7649
10.8236
10.8436
10.8073
10.7397
10.6958
1
1
1
1
1
1
1
1
1
1
1
1
3.08913
9.17952
10.1854
10.3227
10.4368
10.5096
10.5426
10.5454
10.4985
10.4208
10.2929
10.2799
1
1
1
1
1
1
1
1
1
1
1
1
2.00596
8.31689
10.1432
10.1975
10.2883
10.3285
10.3128
10.2515
10.1058
9.83974
9.06182
7.17466
1
1
1
1
1
1
1
1
1
1
1
1
1.12674
7.17893
10.1926
10.0915
10.088
10.0758
10.0183
9.89266
9.65302
9.18156
8.37762
6.31824
1
1
1
1
1
1
1
1
1
1
1
1
1.00155
5.5675
9.58951
9.72527
9.78855
9.76481
9.68932
9.51505
9.21769
8.65502
7.82811
5.88917
1
1
1
1
1
1
1
1
1
1
1
1
0.999977
3.69664
9.00797
9.59136
9.62007
9.55529
9.43497
9.20597
8.84757
8.27443
7.37633
5.80517
1
1
1
1
1
1
1
1
1
1
1
1
0.999994
1.96415
8.04825
9.53188
9.44311
9.33268
9.17353
8.90923
8.51466
7.95602
7.05796
5.83744
1
1
1
1
1
1
1
1
1
1
1
1
0.999999
1.09649
6.28645
9.20186
9.1902
9.0913
8.92292
8.651
8.26198
7.69965
6.87792
5.92584
1
1
1
1
1
1
1
1
1
1
1
1
1
1.0005
3.83596
8.60906
9.0417
8.93786
8.75083
8.44133
8.05588
7.48646
6.76899
5.99443
1
1
1
1
1
1
1
1
1
1
1
1
1
0.999994
1.62112
7.63605
9.07613
8.79752
8.55851
8.24635
7.83449
7.32971
6.7186
6.05002
1
1
1
1
1
1
1
1
1
1
1
1
1
0.999999
1.03378
5.60412
8.64606
8.45927
8.29442
8.02517
7.65827
7.20863
6.67363
6.08316
1
1
1
1
1
1
1
1
1
1
1
1
1
1
0.999969
2.80076
7.90635
8.34995
8.20269
7.93673
7.57871
7.14126
6.63856
6.10258
1
1
1
1
1
1
1
1
1
1
1
1
1
1
0.999988
1.2276
6.07867
8.30096
8.11746
7.83231
7.4766
7.06269
6.59532
6.11534
1
1
1
1
1
1
1
1
1
1
1
1
1
1
0.999998
1.00399
3.23432
7.60462
7.99291
7.70491
7.37764
6.98739
6.56144
6.15125
1
1
1
1
1
1
1
1
1
1
1
1
1
1
1
1
1.3405
5.98688
7.96231
7.63616
7.31909
6.93233
6.57001
6.32084
1
1
1
1
1
1
1
1
1
1
1
1
1
1
1
1
1.00929
3.12135
7.23065
7.5377
7.20653
6.86569
6.70269
6.78318
1
1
1
1
1
1
1
1
1
1
1
1
1
1
1
1
1.00003
1.31131
5.46546
7.54565
7.15897
7.03912
7.34757
7.69195
1
1
1
1
1
1
1
1
1
1
1
1
1
1
1
1
1
1.00813
2.51798
6.55482
7.08744
7.69375
8.3148
8.5274
1
1
1
1
1
1
1
1
1
1
1
1
1
1
1
1
1
1.00004
1.16599
4.37994
7.39897
9.04908
9.29793
9.02969
1
1
1
1
1
1
1
1
1
1
1
1
1
1
1
1
1
1
1.0029
1.80378
7.48508
10.2285
9.73504
9.30527
1
1
1
1
1
1
1
1
1
1
1
1
1
1
1
1
1
1
1.00001
1.04936
7.30467
10.7963
9.98482
9.50628
1
1
1
1
1
1
1
1
1
1
1
1
1
1
1
1
1
1
1
1.0003
6.36103
10.5381
9.82848
9.49014
1
1
1
1
1
1
1
1
1
1
1
1
1
1
1
1
1
1
1
1
5.50508
10.3098
9.90002
9.69317
1
1
1
1
1
1
1
1
1
1
1
1
1
1
1
1
1
1
1
1
4.7037
9.89302
9.95609
9.75031
1
1
1
1
1
1
1
1
1
1
1
1
1
1
1
1
1
1
1
1
3.90919
9.5545
9.99021
9.76542
1
1
1
1
1
1
1
1
1
1
1
1
1
1
1
1
1
1
1
1
3.16818
9.24622
10.0958
9.84518
1
1
1
1
1
1
1
1
1
1
1
1
1
1
1
1
1
1
1
1
2.54018
8.92573
10.2152
9.90108
1
1
1
1
1
1
1
1
1
1
1
1
1
1
1
1
1
1
1
1
2.03978
8.58447
10.328
9.96665
1
1
1
1
1
1
1
1
1
1
1
1
1
1
1
1
1
1
1
1
1.66932
8.25476
10.393
10.0151
1
1
1
1
1
1
1
1
1
1
1
1
1
1
1
1
1
1
1
1
1.47256
7.94279
10.4175
10.0472
1
1
1
1
1
1
1
1
1
1
1
1
1
1
1
1
1
1
1
1
1.36437
7.67552
10.4007
10.0598
1
1
1
1
1
1
1
1
1
1
1
1
1
1
1
1
1
1
1
1
1.29489
7.47383
10.3706
10.0688
1
1
1
1
1
1
1
1
1
1
1
1
1
1
1
1
1
1
1
1
1.25259
7.34311
10.3376
10.068
1
1
1
1
1
1
1
1
1
1
1
1
1
1
1
1
1
1
1
1
1.24248
7.2705
10.2796
10.0374
1.5785
0.471953
0.152493
0.13018
0.175862
0.282787
0.391528
0.479555
0.939181
3.10068
3.9327
4.22857
4.25866
4.22295
4.40183
4.56035
4.59216
4.60478
4.61926
4.63927
4.63488
4.62049
4.62007
4.64336
4.67414
4.69142
4.69726
4.70583
4.73171
4.76574
4.7908
4.79826
4.78738
4.76436
4.74504
4.73793
4.73731
4.73323
4.71917
4.69083
4.64931
4.6062
4.57378
4.55329
4.53518
4.50944
4.47143
4.422
4.3671
4.31356
4.26481
4.21978
4.17502
4.1293
4.08407
4.04059
3.99615
3.94545
3.88608
3.8236
3.76459
3.71204
3.66588
3.61992
3.56501
3.5043
3.44567
3.39346
3.34986
3.30087
3.24016
3.18177
3.13606
3.12304
3.18768
3.71127
4.25994
4.3279
4.32236
4.30203
4.28623
4.2765
4.27164
4.26619
4.25451
4.2369
4.21957
4.20626
4.19999
4.20437
4.21234
4.21028
4.19854
4.18447
4.17119
4.1668
2.75721
1.47091
0.919577
0.589845
0.532483
0.554082
0.548435
0.507501
0.541219
2.3195
3.78015
4.16961
4.25711
4.27591
4.42526
4.52291
4.5211
4.52878
4.55316
4.58973
4.60635
4.61345
4.62907
4.66529
4.71618
4.75758
4.77996
4.78628
4.78774
4.78931
4.79223
4.79951
4.80926
4.81054
4.7948
4.76516
4.73307
4.70984
4.69696
4.68687
4.66885
4.63572
4.59092
4.54491
4.50598
4.47535
4.44532
4.4072
4.36024
4.31062
4.26415
4.22161
4.17673
4.12306
4.0653
4.01157
3.9668
3.92897
3.88504
3.82575
3.76217
3.70312
3.6526
3.61061
3.56558
3.50663
3.44373
3.38461
3.32967
3.28027
3.23256
3.18661
3.15694
3.15536
3.21883
3.67632
4.22808
4.32145
4.32321
4.30583
4.28964
4.27337
4.25797
4.2458
4.23861
4.235
4.23243
4.22709
4.21691
4.2063
4.19642
4.19245
4.19515
4.1972
4.19293
4.18274
3.60272
2.37857
1.7405
1.2336
0.902982
0.799972
0.757626
0.6936
0.597663
1.29086
3.47128
4.16744
4.30198
4.36009
4.41016
4.4402
4.44511
4.49614
4.56332
4.63725
4.69384
4.73125
4.75381
4.76632
4.77331
4.78945
4.8184
4.84987
4.85984
4.82728
4.7829
4.75361
4.75577
4.78453
4.81006
4.80212
4.75754
4.7056
4.66704
4.64977
4.64895
4.64887
4.63017
4.58735
4.53316
4.48164
4.43771
4.39811
4.3562
4.31041
4.2657
4.22595
4.19108
4.15093
4.09288
4.02605
3.96442
3.91587
3.8787
3.83782
3.78182
3.71876
3.65719
3.60366
3.55764
3.511
3.4566
3.39758
3.33434
3.27091
3.21557
3.17788
3.16306
3.18016
3.25463
3.59636
4.19245
4.33557
4.32636
4.30205
4.29383
4.29078
4.26893
4.24103
4.21658
4.20694
4.21258
4.23347
4.25181
4.24681
4.22759
4.20045
4.18461
4.18099
4.19172
4.20656
4.23552
3.10986
2.42695
1.94111
1.50085
1.14291
1.05264
1.01054
0.877752
0.901271
2.21402
3.96275
4.3198
4.42325
4.51758
4.53246
4.54914
4.60831
4.66175
4.69597
4.71839
4.74062
4.76035
4.75813
4.73941
4.72402
4.72965
4.76507
4.81144
4.82993
4.8075
4.76552
4.73323
4.72858
4.75114
4.77642
4.77158
4.73024
4.67961
4.63687
4.60926
4.59827
4.59068
4.56669
4.52303
4.47134
4.42137
4.37745
4.33663
4.2919
4.24335
4.19573
4.1532
4.11754
4.07219
4.01394
3.94981
3.89287
3.84645
3.80625
3.76139
3.7119
3.65821
3.59862
3.5385
3.48172
3.42785
3.37672
3.32713
3.27757
3.22754
3.19374
3.19263
3.23125
3.3135
3.541
4.08729
4.35523
4.34443
4.29067
4.26402
4.26983
4.27249
4.25979
4.2432
4.21907
4.20463
4.20337
4.21355
4.22735
4.22804
4.22067
4.20208
4.17668
4.16673
4.17294
4.67013
3.71486
2.97492
2.46629
2.07003
1.70041
1.3762
1.24682
1.15167
1.00258
1.24962
3.08125
4.5683
4.8257
4.73358
4.6564
4.63193
4.66362
4.67211
4.65573
4.64636
4.66155
4.71544
4.77316
4.78947
4.77313
4.75721
4.76662
4.80764
4.85288
4.86406
4.84094
4.80509
4.77636
4.76659
4.77645
4.78381
4.76127
4.7195
4.67693
4.63994
4.61229
4.59454
4.57083
4.52741
4.47565
4.42505
4.38
4.3417
4.30084
4.24872
4.19731
4.15313
4.11616
4.07117
4.01897
3.95714
3.89438
3.84291
3.79782
3.75107
3.70591
3.65777
3.60526
3.54689
3.48558
3.42172
3.36367
3.31457
3.27772
3.24842
3.23962
3.25951
3.3326
3.41731
3.53571
3.84911
4.24132
4.3818
4.34763
4.2663
4.24162
4.24076
4.25422
4.26114
4.25666
4.24251
4.21566
4.20036
4.19948
4.20671
4.2159
4.21887
4.21342
4.19322
4.16363
4.99784
4.18835
3.48626
2.93107
2.45961
2.14005
1.82743
1.56185
1.41046
1.22584
1.25832
1.98549
4.27607
5.33948
5.12401
4.80806
4.75877
4.83102
4.82902
4.75932
4.68659
4.67326
4.72647
4.80421
4.82666
4.80611
4.77955
4.76125
4.76904
4.80656
4.83131
4.82053
4.78961
4.75546
4.72902
4.72436
4.73779
4.73191
4.69536
4.65567
4.61824
4.58512
4.56276
4.54337
4.50069
4.44788
4.39729
4.35362
4.31881
4.27736
4.22435
4.16835
4.12649
4.08635
4.04194
3.99281
3.94158
3.88748
3.83182
3.77619
3.72626
3.67919
3.63493
3.58811
3.53523
3.47429
3.40927
3.35067
3.30679
3.28212
3.2757
3.29918
3.35567
3.45578
3.55229
3.5788
3.68202
3.954
4.25178
4.37014
4.33706
4.25454
4.21207
4.21904
4.24911
4.26297
4.26035
4.23675
4.20195
4.18795
4.18953
4.19767
4.20906
4.21213
4.2064
4.17366
5.21323
4.50048
3.86829
3.34427
2.85512
2.43492
2.15471
1.93473
1.7674
1.63251
1.58224
1.70617
3.05477
5.07032
5.588
5.25642
4.97708
4.97795
5.00639
4.93839
4.8266
4.77328
4.79315
4.85931
4.87015
4.8344
4.78879
4.75802
4.74448
4.77026
4.79822
4.78616
4.75449
4.7213
4.6922
4.67771
4.6907
4.68967
4.65679
4.61741
4.58237
4.55137
4.53097
4.50602
4.45899
4.40288
4.35027
4.31158
4.28117
4.24313
4.19279
4.13577
4.08898
4.04573
4.00119
3.95826
3.91451
3.8659
3.80942
3.75301
3.69957
3.65332
3.6081
3.56141
3.50993
3.45573
3.39442
3.3425
3.31478
3.31413
3.34422
3.40696
3.50767
3.60645
3.66686
3.64458
3.63921
3.73114
3.93365
4.19572
4.31826
4.30812
4.26763
4.2298
4.22816
4.24393
4.25302
4.24835
4.22244
4.19393
4.18614
4.18828
4.19751
4.20106
4.1988
4.17613
5.39396
4.73955
4.14618
3.63585
3.22118
2.79935
2.46408
2.27533
2.25285
2.21529
2.17322
2.15537
2.35791
3.89299
5.42474
5.63415
5.40838
5.17158
5.1138
5.05707
4.97815
4.93023
4.91753
4.9498
4.94785
4.90531
4.84961
4.81762
4.79686
4.80788
4.82322
4.80164
4.76625
4.72358
4.69318
4.67469
4.68077
4.67248
4.64254
4.60293
4.568
4.54128
4.52304
4.48836
4.43822
4.37495
4.31745
4.28127
4.25487
4.21712
4.17055
4.1211
4.06649
4.01103
3.96481
3.9278
3.88984
3.84577
3.79423
3.73374
3.67354
3.61835
3.57304
3.52972
3.48401
3.43402
3.38499
3.34719
3.34319
3.37538
3.45837
3.5476
3.67025
3.73669
3.7384
3.69609
3.65346
3.63975
3.71169
3.89981
4.12112
4.25824
4.31194
4.28741
4.24468
4.22344
4.22455
4.23421
4.23476
4.21863
4.19736
4.19005
4.18951
4.19066
4.18756
4.17302
5.49979
4.92116
4.36857
3.88104
3.52109
3.20582
2.91961
2.82356
2.89514
2.85805
2.73595
2.65658
2.61886
2.92015
4.39248
5.52409
5.65072
5.50184
5.30851
5.2024
5.10895
5.03727
5.00128
4.99543
4.98666
4.94618
4.89709
4.86533
4.84354
4.84138
4.83565
4.80643
4.76827
4.72543
4.69818
4.6842
4.68553
4.66812
4.63823
4.59638
4.55991
4.53544
4.51514
4.47781
4.42951
4.36659
4.30971
4.276
4.24251
4.19983
4.15716
4.11284
4.05713
3.99673
3.95438
3.91668
3.87627
3.83278
3.78345
3.72567
3.66215
3.60485
3.55765
3.51347
3.46877
3.43023
3.39915
3.39146
3.41548
3.50366
3.61147
3.70767
3.80219
3.81247
3.79103
3.73671
3.67159
3.62641
3.63179
3.69496
3.86229
4.05979
4.23065
4.28413
4.27609
4.2509
4.22741
4.22414
4.22935
4.2303
4.21789
4.19821
4.18792
4.1823
4.17591
4.16398
5.57609
5.06061
4.57334
4.16569
3.93222
3.77408
3.59037
3.53737
3.56975
3.45031
3.2026
3.08569
2.96641
2.99447
3.38167
4.73757
5.57334
5.68266
5.59416
5.44109
5.28511
5.15261
5.06451
5.02931
5.0193
4.98821
4.9411
4.89134
4.85753
4.8344
4.81295
4.7812
4.74561
4.70667
4.67959
4.66589
4.65811
4.63634
4.60595
4.56139
4.51799
4.49064
4.46798
4.43429
4.39083
4.33928
4.28954
4.2443
4.19706
4.15511
4.12052
4.08063
4.03094
3.97648
3.92504
3.88067
3.84189
3.80192
3.7556
3.70261
3.64169
3.58106
3.53128
3.48723
3.45812
3.44061
3.44624
3.47473
3.55461
3.67887
3.75446
3.82197
3.8599
3.85066
3.81866
3.76949
3.70782
3.64331
3.6088
3.62371
3.68801
3.83475
4.03048
4.19086
4.25022
4.27362
4.25493
4.23412
4.22724
4.22552
4.22214
4.20859
4.18688
4.17318
4.16513
4.15345
5.65076
5.23396
4.87818
4.64781
4.62055
4.52354
4.26631
4.1343
4.0728
3.90173
3.65474
3.44295
3.37996
3.25571
3.306
3.77054
4.94808
5.59559
5.74416
5.6974
5.51635
5.32001
5.16354
5.0952
5.07313
5.04987
4.99855
4.93401
4.86876
4.82584
4.79421
4.76122
4.7265
4.69154
4.66057
4.63977
4.61986
4.59442
4.56311
4.51944
4.46893
4.43539
4.40785
4.37497
4.33896
4.3019
4.25762
4.20122
4.14019
4.10103
4.0709
4.03449
3.9931
3.94554
3.88641
3.83266
3.79346
3.7542
3.71087
3.6636
3.61013
3.55221
3.49938
3.46375
3.45973
3.48415
3.54226
3.62349
3.75599
3.84219
3.8591
3.8695
3.8677
3.85367
3.82274
3.78564
3.7416
3.6847
3.62748
3.60589
3.62367
3.6835
3.80895
3.98802
4.13918
4.22792
4.26062
4.24706
4.2364
4.22537
4.21645
4.20935
4.1895
4.16563
4.1559
4.14519
5.79374
5.58024
5.45575
5.3895
5.3812
5.15357
4.78921
4.58011
4.46278
4.30741
4.07645
3.83145
3.74108
3.67569
3.48958
3.53457
4.02902
5.02854
5.61028
5.82076
5.7398
5.53379
5.31417
5.20043
5.15832
5.12413
5.06537
4.98706
4.89651
4.83788
4.79638
4.76282
4.72894
4.69559
4.65897
4.61953
4.58716
4.55678
4.52377
4.48377
4.43571
4.39214
4.35296
4.31835
4.2896
4.26147
4.22175
4.16171
4.09234
4.05384
4.0233
3.98845
3.95288
3.90928
3.84689
3.78425
3.73953
3.70038
3.66149
3.62127
3.57489
3.52522
3.47869
3.47706
3.5026
3.58393
3.68764
3.80169
3.92265
3.94272
3.92377
3.88295
3.85538
3.83455
3.81214
3.78897
3.76189
3.72718
3.67599
3.62461
3.60798
3.62411
3.68014
3.78124
3.93634
4.09379
4.20422
4.2363
4.24104
4.23231
4.21663
4.20502
4.18882
4.16146
4.14826
4.1385
6.23159
6.30576
6.21316
6.08059
5.91818
5.59767
5.2102
4.95635
4.8329
4.70794
4.48416
4.21053
4.07459
4.02646
3.87118
3.67715
3.73166
4.20201
5.07997
5.66873
5.82801
5.72432
5.50749
5.33956
5.26264
5.2003
5.12951
5.04024
4.93361
4.86525
4.81727
4.78237
4.74952
4.71224
4.6666
4.60759
4.56065
4.52446
4.48931
4.45266
4.41282
4.36436
4.30966
4.27067
4.2452
4.21972
4.1828
4.1263
4.05613
4.01605
3.98306
3.9496
3.9163
3.8737
3.81424
3.74456
3.68723
3.64641
3.61499
3.58185
3.55371
3.52194
3.51356
3.54101
3.61834
3.7415
3.8333
3.93096
3.98995
3.98419
3.95988
3.90997
3.85441
3.8218
3.80098
3.78857
3.77417
3.7529
3.72243
3.67406
3.62837
3.61363
3.62743
3.67662
3.75866
3.89057
4.05463
4.15521
4.20926
4.23698
4.22738
4.20991
4.187
4.16002
4.14278
4.13199
7.00725
7.06368
6.80234
6.54879
6.27796
5.96501
5.61371
5.34002
5.19847
5.08312
4.86092
4.57147
4.39491
4.3294
4.23678
4.00312
3.84314
3.89399
4.3319
5.12985
5.69228
5.78025
5.67335
5.5032
5.37832
5.27604
5.18591
5.08974
4.97525
4.89549
4.84191
4.80307
4.76789
4.726
4.67343
4.59735
4.53388
4.49184
4.45522
4.42186
4.38634
4.33847
4.27355
4.22412
4.19861
4.17392
4.1408
4.09107
4.03106
3.98454
3.94349
3.91013
3.87524
3.83251
3.77969
3.71579
3.64803
3.59892
3.57079
3.55294
3.55311
3.57089
3.61827
3.7031
3.8293
3.90577
3.94538
3.98659
4.00382
3.99732
3.97288
3.93624
3.8828
3.82965
3.80439
3.79026
3.78347
3.77111
3.75086
3.72012
3.67381
3.63589
3.6204
3.63272
3.67069
3.73521
3.85379
3.99928
4.10433
4.18592
4.22517
4.21792
4.19592
4.16825
4.1445
4.12332
7.84645
7.57308
7.20071
6.89434
6.5848
6.29904
6.00825
5.73046
5.55062
5.42187
5.21005
4.92052
4.71269
4.62741
4.54505
4.36605
4.09659
3.98201
4.03585
4.42267
5.13055
5.62886
5.70541
5.62155
5.50651
5.37324
5.25484
5.14354
5.0228
4.92157
4.86263
4.81743
4.77434
4.72724
4.66967
4.58439
4.50304
4.4533
4.41588
4.38445
4.34886
4.30165
4.23538
4.17117
4.14271
4.11981
4.08748
4.0487
4.00878
3.95439
3.89717
3.85656
3.81817
3.78097
3.73814
3.69035
3.63357
3.57016
3.54438
3.55035
3.58596
3.66866
3.77924
3.92074
4.02659
4.03912
4.02348
4.01008
3.99925
3.99254
3.97035
3.9453
3.9114
3.85955
3.81996
3.80289
3.7938
3.7879
3.77338
3.75284
3.71997
3.67782
3.64446
3.62671
3.63415
3.65963
3.71144
3.81092
3.94008
4.06604
4.15218
4.18845
4.20305
4.18986
4.16586
4.12701
8.3226
7.86649
7.51097
7.22783
6.91163
6.61522
6.37738
6.11454
5.88482
5.72849
5.53423
5.2579
5.02929
4.91424
4.82868
4.6668
4.43562
4.20335
4.11113
4.17888
4.48291
5.05897
5.51017
5.57843
5.57866
5.50067
5.36595
5.22135
5.08329
4.95224
4.88022
4.82885
4.77646
4.72139
4.65588
4.5687
4.47676
4.41377
4.37162
4.33794
4.30309
4.25777
4.1952
4.12039
4.08193
4.05514
4.02253
3.99916
3.97128
3.92007
3.85676
3.79886
3.7558
3.7227
3.68653
3.65114
3.61916
3.58096
3.5697
3.5978
3.68451
3.81124
3.93953
4.07063
4.10886
4.10764
4.07608
4.02333
3.99857
3.9813
3.96682
3.9493
3.92715
3.89209
3.84563
3.8208
3.80894
3.80369
3.79496
3.77903
3.75669
3.72179
3.68389
3.65014
3.62928
3.6304
3.64424
3.68103
3.76275
3.88916
4.02669
4.10301
4.14871
4.18351
4.18141
4.14798
8.57319
8.0811
7.78908
7.55397
7.25103
6.93081
6.71876
6.49418
6.22033
6.01742
5.83755
5.58152
5.34186
5.19796
5.08954
4.9424
4.71783
4.51079
4.3197
4.22549
4.28402
4.49395
4.94555
5.31478
5.46151
5.55223
5.47804
5.33929
5.17462
5.01883
4.90676
4.83708
4.77745
4.71457
4.64206
4.55523
4.45966
4.38325
4.33082
4.28944
4.25399
4.21086
4.14918
4.08061
4.02993
3.99695
3.97111
3.95096
3.92137
3.87673
3.81895
3.74525
3.65811
3.61097
3.59841
3.60781
3.60597
3.61732
3.65403
3.74024
3.86596
3.95791
4.04767
4.12214
4.13454
4.1251
4.08545
4.0234
3.98663
3.97063
3.95866
3.94589
3.92927
3.90612
3.86856
3.83217
3.81826
3.81269
3.80558
3.79249
3.77578
3.75206
3.71753
3.68186
3.64935
3.63042
3.62566
3.62575
3.64788
3.71826
3.83811
3.96655
4.05781
4.12709
4.1552
4.14771
8.82068
8.34269
8.09884
7.88732
7.57771
7.23436
7.02189
6.83137
6.55154
6.29732
6.12161
5.89497
5.65199
5.48171
5.33721
5.1887
4.98628
4.77175
4.60279
4.41316
4.31217
4.34716
4.46174
4.78544
5.15664
5.39712
5.44552
5.40903
5.28892
5.13308
4.97432
4.85842
4.77632
4.70074
4.6239
4.5381
4.44652
4.3824
4.33282
4.27478
4.20941
4.15346
4.10952
4.06262
4.01484
3.95089
3.88749
3.85291
3.82142
3.79182
3.75815
3.69829
3.61636
3.5746
3.57051
3.57755
3.61656
3.69697
3.80988
3.96088
4.03701
4.07226
4.10256
4.12313
4.12335
4.10377
4.06788
4.02457
3.97715
3.94548
3.93355
3.93454
3.93246
3.91409
3.89009
3.85992
3.82906
3.80922
3.79962
3.79666
3.78814
3.7729
3.75134
3.71934
3.68021
3.64593
3.62034
3.61172
3.61158
3.62743
3.67739
3.78606
3.90836
4.01309
4.10352
4.12136
8.97392
8.59771
8.39127
8.19033
7.88509
7.54451
7.32265
7.13816
6.86936
6.57145
6.37626
6.18728
5.94408
5.75082
5.57637
5.41295
5.23542
5.01962
4.84738
4.66883
4.47612
4.37757
4.34497
4.4044
4.6589
5.02816
5.27232
5.32979
5.31543
5.2269
5.07574
4.9229
4.80148
4.70054
4.61052
4.52376
4.443
4.3681
4.29035
4.21
4.13761
4.08806
4.04258
4.00262
3.9596
3.89806
3.8375
3.78609
3.73933
3.69988
3.66663
3.63591
3.60352
3.57302
3.57006
3.60702
3.71271
3.84439
3.99472
4.11504
4.1394
4.14062
4.12176
4.10165
4.08983
4.07207
4.05778
4.03777
4.00206
3.96107
3.93147
3.92009
3.91974
3.93009
3.92243
3.90242
3.86876
3.83401
3.82257
3.81974
3.81694
3.80506
3.78756
3.75798
3.71204
3.67574
3.64851
3.62749
3.61627
3.61234
3.61937
3.65101
3.73034
3.84435
3.96706
4.05939
9.18565
8.91075
8.69463
8.47827
8.1601
7.83036
7.62151
7.44273
7.17844
6.86615
6.65024
6.46174
6.22509
5.99941
5.8185
5.6137
5.43871
5.24839
5.0575
4.89605
4.70083
4.49703
4.36527
4.33347
4.3637
4.5431
4.8698
5.1073
5.24056
5.22826
5.14918
5.00831
4.84825
4.71096
4.61101
4.53449
4.46258
4.37791
4.28261
4.18968
4.11817
4.05991
4.00484
3.96171
3.91422
3.85731
3.79419
3.72642
3.66417
3.62614
3.60348
3.59448
3.59172
3.60063
3.63963
3.74748
3.88535
4.00149
4.11842
4.18176
4.18972
4.17426
4.11996
4.06226
4.04301
4.03272
4.03433
4.03616
4.02524
3.99778
3.95909
3.93515
3.9266
3.92455
3.93037
3.92668
3.91237
3.88513
3.84752
3.82282
3.80964
3.79946
3.78838
3.77334
3.74997
3.71552
3.67644
3.64167
3.61453
3.59763
3.58989
3.59262
3.61401
3.67807
3.77728
3.93617
9.44227
9.17432
8.9386
8.72487
8.41954
8.10103
7.87211
7.68432
7.42554
7.10536
6.86148
6.72169
6.52898
6.26797
6.05293
5.86157
5.65696
5.50088
5.31769
5.14822
4.97406
4.74832
4.56497
4.44087
4.3373
4.33359
4.45935
4.70158
4.96916
5.13168
5.10508
4.99761
4.869
4.7414
4.62243
4.51594
4.42144
4.33551
4.25094
4.16309
4.08702
4.02188
3.96846
3.92275
3.87041
3.81052
3.74374
3.66473
3.59127
3.56451
3.55981
3.58484
3.62968
3.69826
3.8175
3.96168
4.04598
4.11294
4.18901
4.21917
4.20884
4.16928
4.10672
4.0452
4.02086
4.01669
4.01997
4.03148
4.03225
4.0227
4.00046
3.96501
3.94023
3.93191
3.93064
3.93191
3.92395
3.90824
3.87994
3.84593
3.82141
3.80396
3.78876
3.7736
3.75701
3.73455
3.70522
3.67109
3.63774
3.60506
3.57903
3.56329
3.56372
3.5783
3.62186
3.77217
9.53731
9.31879
9.11028
8.87221
8.57636
8.30278
8.09018
7.91656
7.66207
7.33814
7.07979
6.90344
6.72179
6.47536
6.21388
6.01336
5.81946
5.62769
5.45735
5.26626
5.07934
4.90617
4.70812
4.52017
4.3767
4.28625
4.26722
4.34221
4.54265
4.84669
4.97715
4.93802
4.87097
4.76852
4.6453
4.52805
4.42577
4.32966
4.2332
4.13792
4.05154
3.97728
3.9206
3.87024
3.81422
3.75014
3.68039
3.60357
3.55474
3.54769
3.56362
3.61765
3.72208
3.86211
4.01811
4.12283
4.15687
4.17853
4.17184
4.16043
4.14007
4.11801
4.09736
4.06653
4.03279
4.01818
4.0144
4.01471
4.021
4.02218
4.01544
3.99477
3.96416
3.94684
3.93986
3.93492
3.92718
3.9144
3.89429
3.86486
3.83578
3.81432
3.79654
3.77926
3.76192
3.74292
3.71926
3.68925
3.65591
3.62224
3.59097
3.56376
3.54514
3.53741
3.54111
3.62527
9.6209
9.43652
9.23223
8.99224
8.73497
8.50379
8.30531
8.09318
7.79962
7.49487
7.25865
7.08958
6.90784
6.66232
6.38271
6.17637
5.99314
5.7986
5.61489
5.41852
5.21872
5.03752
4.85697
4.67543
4.51233
4.36086
4.23961
4.17954
4.2239
4.41334
4.67434
4.78518
4.82062
4.76915
4.66159
4.53298
4.41807
4.3094
4.20576
4.11232
4.03005
3.95505
3.88194
3.80695
3.7344
3.66841
3.61274
3.57846
3.56968
3.58178
3.623
3.72409
3.87992
4.02348
4.16058
4.20902
4.2055
4.17425
4.12048
4.09596
4.08371
4.08063
4.08369
4.07591
4.05714
4.02936
4.01505
4.01134
4.01226
4.01794
4.0167
4.00747
3.98667
3.96391
3.95316
3.94485
3.93521
3.92249
3.90447
3.87897
3.84931
3.82571
3.80859
3.79282
3.77564
3.75529
3.72992
3.69927
3.66796
3.63889
3.6116
3.58307
3.55669
3.53039
3.5101
3.53238
9.70103
9.50833
9.29862
9.07472
8.85456
8.64256
8.43678
8.1937
7.91034
7.63908
7.42318
7.2625
7.05192
6.77892
6.50341
6.30289
6.13062
5.93967
5.74344
5.53406
5.32114
5.13306
4.97047
4.81032
4.64157
4.472
4.30612
4.16523
4.08516
4.11403
4.27244
4.46262
4.62894
4.71748
4.66912
4.54338
4.40853
4.28924
4.18637
4.10061
4.02622
3.94935
3.8547
3.74174
3.65025
3.60288
3.58358
3.59255
3.62381
3.65802
3.75395
3.91804
4.03331
4.12692
4.20249
4.21619
4.20174
4.16421
4.1022
4.05927
4.0492
4.05019
4.06197
4.06331
4.05614
4.03875
4.01595
4.00786
4.0063
4.00901
4.01144
4.00696
3.99541
3.97638
3.96065
3.95068
3.94
3.92691
3.91043
3.88939
3.864
3.83911
3.81912
3.80232
3.78498
3.76427
3.73807
3.70743
3.6781
3.65178
3.62731
3.60045
3.57297
3.53909
3.50707
3.48653
9.74478
9.55353
9.35576
9.15307
8.94924
8.73818
8.51092
8.25604
7.99635
7.76566
7.58564
7.39926
7.14508
6.86022
6.61412
6.43045
6.26403
6.06852
5.85232
5.62161
5.40851
5.22732
5.07074
4.91747
4.75693
4.57476
4.38804
4.21676
4.08709
4.01278
4.0169
4.11315
4.28538
4.52294
4.59368
4.51888
4.39575
4.28512
4.18536
4.09482
4.01159
3.92389
3.8188
3.69162
3.61427
3.58802
3.59786
3.64241
3.70056
3.82197
4.00534
4.09878
4.12843
4.16048
4.18254
4.17843
4.15939
4.12896
4.08477
4.05037
4.04081
4.04426
4.05214
4.05176
4.04649
4.03511
4.01886
4.00951
4.00769
4.00835
4.01175
4.01057
4.00224
3.98702
3.96851
3.95396
3.94226
3.92982
3.91523
3.89803
3.87792
3.85602
3.83403
3.81324
3.79236
3.76927
3.7421
3.71353
3.68689
3.66422
3.6422
3.6191
3.59228
3.55865
3.52137
3.47178
9.79549
9.59906
9.40736
9.21325
9.01353
8.80369
8.57277
8.33486
8.11059
7.91667
7.72967
7.48369
7.1974
6.92759
6.72821
6.5687
6.38387
6.16164
5.91323
5.68977
5.49856
5.32419
5.16207
5.00423
4.83558
4.64814
4.45462
4.28377
4.13744
4.02208
3.94482
3.90957
3.96241
4.15108
4.37097
4.41109
4.36933
4.27844
4.1763
4.07759
3.98171
3.88331
3.78019
3.67987
3.62833
3.62561
3.63802
3.71943
3.88064
4.05275
4.17388
4.19197
4.17887
4.16371
4.14179
4.1211
4.10022
4.08541
4.07951
4.0718
4.0581
4.0454
4.03846
4.03349
4.03119
4.03143
4.03146
4.02972
4.0244
4.01914
4.01609
4.01181
4.00455
3.9959
3.98532
3.97257
3.96004
3.94764
3.9334
3.91767
3.901
3.88272
3.86116
3.83592
3.80846
3.78091
3.75425
3.72958
3.70679
3.68503
3.66169
3.63475
3.60141
3.56423
3.52413
3.47178
9.83607
9.6429
9.45371
9.25875
9.05622
8.84392
8.62348
8.40519
8.19769
8.00172
7.78069
7.51472
7.24917
7.03225
6.85116
6.67072
6.45294
6.20378
5.96181
5.76789
5.59058
5.41861
5.24822
5.06912
4.87821
4.69067
4.51506
4.35552
4.20785
4.06889
3.94768
3.84652
3.77781
3.82516
4.00259
4.18125
4.27774
4.25006
4.1527
4.04467
3.93853
3.83561
3.74795
3.69111
3.66498
3.67885
3.76379
3.92698
4.06301
4.17971
4.22979
4.22344
4.19776
4.15209
4.09495
4.06558
4.05682
4.06069
4.07477
4.07479
4.06476
4.04114
4.0216
4.01847
4.02162
4.03411
4.04217
4.04213
4.03354
4.01655
4.00654
4.00366
4.0043
4.00691
4.00297
3.99427
3.97981
3.96289
3.94745
3.93228
3.91614
3.89776
3.87432
3.84431
3.81246
3.78591
3.76377
3.74307
3.72134
3.69658
3.66487
3.62627
3.58522
3.55043
3.52326
3.48131
9.87397
9.68379
9.49562
9.29985
9.09708
8.88694
8.67478
8.46528
8.25972
8.04843
7.80628
7.55138
7.32161
7.12582
6.94229
6.72709
6.48221
6.22249
6.01681
5.84658
5.67831
5.50462
5.3167
5.10654
4.89855
4.72249
4.56915
4.42309
4.27968
4.13599
3.98796
3.83609
3.71382
3.66359
3.71196
3.85189
4.03061
4.14503
4.09844
4.00621
3.89947
3.80405
3.74426
3.72646
3.76534
3.85961
4.02257
4.1259
4.17944
4.22681
4.23764
4.21698
4.18236
4.1297
4.06498
4.03443
4.03017
4.03975
4.05688
4.05805
4.05077
4.02783
4.01146
4.01228
4.02054
4.03652
4.04297
4.04182
4.02915
4.01138
4.00633
4.0055
4.01022
4.01476
4.01034
3.99949
3.97967
3.95865
3.94334
3.92922
3.91337
3.89407
3.86888
3.83805
3.80875
3.78573
3.76566
3.74558
3.72306
3.69442
3.65523
3.61083
3.57343
3.54698
3.52895
3.49179
9.89758
9.71392
9.529
9.33457
9.13376
8.92834
8.72163
8.51437
8.30238
8.07508
7.8328
7.59893
7.39018
7.20761
7.00276
6.76137
6.49682
6.26152
6.07502
5.91005
5.73756
5.55298
5.34984
5.1313
4.92855
4.76088
4.6175
4.48497
4.35067
4.19876
4.0222
3.84735
3.70606
3.60722
3.57374
3.60579
3.69741
3.86685
3.96758
3.9379
3.86657
3.81685
3.79077
3.85284
3.96286
4.12083
4.2345
4.25093
4.25386
4.23387
4.21013
4.17663
4.14121
4.10281
4.05922
4.03223
4.02678
4.03346
4.03973
4.03984
4.03573
4.02445
4.01623
4.01798
4.02813
4.03901
4.04189
4.03927
4.02897
4.0189
4.01501
4.01408
4.01741
4.01611
4.00841
3.99266
3.97093
3.95176
3.93703
3.92333
3.90751
3.88781
3.86399
3.83812
3.81302
3.79044
3.76895
3.74689
3.72163
3.69013
3.6519
3.61187
3.57665
3.55179
3.53641
3.50462
9.91834
9.74032
9.55689
9.36295
9.16282
8.95909
8.75306
8.54313
8.32508
8.09663
7.86512
7.64351
7.44567
7.25767
7.02659
6.77406
6.52662
6.32065
6.13392
5.95366
5.76809
5.57005
5.35906
5.15329
4.97083
4.81205
4.66525
4.52189
4.37021
4.20403
4.03165
3.86981
3.73032
3.6166
3.52521
3.46332
3.44749
3.52233
3.68217
3.78979
3.81765
3.84909
3.92954
4.0708
4.19211
4.31594
4.35994
4.34667
4.29695
4.23048
4.17016
4.12801
4.09848
4.07822
4.06061
4.04675
4.0312
4.0216
4.02088
4.0225
4.02574
4.02709
4.0275
4.03099
4.03533
4.03851
4.03966
4.03801
4.03519
4.03243
4.02948
4.02584
4.02162
4.0146
4.00276
3.98793
3.97255
3.95694
3.94109
3.92498
3.90758
3.8877
3.8659
3.84357
3.82152
3.79936
3.77616
3.75028
3.71991
3.6875
3.65499
3.62474
3.59902
3.57155
3.54601
3.50472
9.92163
9.74711
9.56779
9.37698
9.17869
8.97533
8.76791
8.55536
8.33703
8.11488
7.8943
7.67996
7.47621
7.25436
7.00641
6.76906
6.56176
6.37358
6.18151
5.98056
5.77268
5.56403
5.36445
5.18065
5.01628
4.86043
4.70267
4.53329
4.3593
4.19484
4.04136
3.90113
3.77274
3.65043
3.52753
3.40121
3.30016
3.29897
3.38433
3.56438
3.76655
3.96322
4.17397
4.30439
4.36751
4.41295
4.4133
4.36548
4.30149
4.2274
4.14477
4.09905
4.07956
4.07173
4.07094
4.06137
4.04186
4.0176
4.01085
4.01319
4.02321
4.03559
4.04285
4.04539
4.04109
4.03671
4.03818
4.04177
4.04548
4.0481
4.04637
4.03753
4.02296
4.01001
3.9984
3.9876
3.9773
3.96562
3.94992
3.93035
3.91007
3.8904
3.87101
3.85204
3.83261
3.81074
3.78425
3.75211
3.71892
3.68846
3.66452
3.64536
3.62415
3.59638
3.56509
3.50572
9.90661
9.74493
9.57593
9.39156
9.19573
8.99117
8.78087
8.56698
8.35172
8.13748
7.92564
7.71265
7.48582
7.24214
7.00232
6.78833
6.6058
6.4195
6.20958
5.99315
5.76562
5.55259
5.37096
5.20873
5.05304
4.89483
4.72224
4.52914
4.33491
4.17454
4.0492
3.93843
3.82481
3.6976
3.54225
3.36456
3.22501
3.17954
3.21177
3.36539
3.691
4.08379
4.36637
4.48925
4.54156
4.50344
4.44852
4.36753
4.29707
4.22295
4.13382
4.08937
4.07256
4.06549
4.06118
4.0516
4.03732
4.01381
4.00601
4.00903
4.02266
4.04181
4.04857
4.0502
4.04269
4.03779
4.04002
4.04683
4.05673
4.05819
4.05381
4.03956
4.02057
4.00835
3.99906
3.99016
3.98083
3.96945
3.95275
3.93067
3.91112
3.89556
3.8806
3.86418
3.84475
3.8197
3.78526
3.74547
3.71643
3.69802
3.68113
3.66113
3.6363
3.60289
3.56559
3.49883
)
;

boundaryField
{
    inlet
    {
        type            fixedValue;
        value           uniform 1;
    }
    outlet
    {
        type            zeroGradient;
    }
    bottom
    {
        type            symmetryPlane;
    }
    top
    {
        type            symmetryPlane;
    }
    obstacle
    {
        type            zeroGradient;
    }
    defaultFaces
    {
        type            empty;
    }
}


// ************************************************************************* //
