/*--------------------------------*- C++ -*----------------------------------*\
  =========                 |
  \\      /  F ield         | OpenFOAM: The Open Source CFD Toolbox
   \\    /   O peration     | Website:  https://openfoam.org
    \\  /    A nd           | Version:  7
     \\/     M anipulation  |
\*---------------------------------------------------------------------------*/
FoamFile
{
    version     2.0;
    format      ascii;
    class       volScalarField;
    location    "12";
    object      rho;
}
// * * * * * * * * * * * * * * * * * * * * * * * * * * * * * * * * * * * * * //

dimensions      [1 -3 0 0 0 0 0];

internalField   nonuniform List<scalar> 
4032
(
1.40001
1.40001
1.40001
1.40001
1.40001
1.40001
1.40001
1.40001
1.40001
1.40001
1.40001
1.58606
4.40222
5.46701
5.51429
5.59002
5.65709
5.72073
5.77897
5.83128
5.87786
5.91542
5.94415
5.96535
1.40001
1.40001
1.40001
1.40001
1.40001
1.40001
1.40001
1.40001
1.40001
1.40001
1.40001
1.56282
4.33222
5.45193
5.50906
5.58329
5.64903
5.71089
5.76722
5.81713
5.86097
5.89583
5.92147
5.9416
1.40001
1.40001
1.40001
1.40001
1.40001
1.40001
1.40001
1.40001
1.40001
1.40001
1.40001
1.50711
4.22302
5.44284
5.49418
5.56749
5.63315
5.69435
5.74961
5.79775
5.83904
5.87091
5.89169
5.90882
1.40001
1.40001
1.40001
1.40001
1.40001
1.40001
1.40001
1.40001
1.40001
1.40001
1.40001
1.41253
4.04269
5.43198
5.4767
5.54275
5.60433
5.66127
5.71331
5.75935
5.79957
5.83028
5.84793
5.86144
1.40001
1.40001
1.40001
1.40001
1.40001
1.40001
1.40001
1.40001
1.40001
1.40001
1.40001
1.40019
3.76625
5.37183
5.42948
5.4933
5.55577
5.61202
5.66189
5.70307
5.73564
5.76036
5.77401
5.79265
1.40001
1.40001
1.40001
1.40001
1.40001
1.40001
1.40001
1.40001
1.40001
1.40001
1.40001
1.4
3.40772
5.28816
5.39025
5.44901
5.50804
5.55708
5.59881
5.63328
5.6615
5.68524
5.6948
5.68609
1.40001
1.40001
1.40001
1.40001
1.40001
1.40001
1.40001
1.40001
1.40001
1.40001
1.40001
1.4
2.98643
5.17045
5.3612
5.41139
5.45871
5.49409
5.52089
5.5404
5.54749
5.53611
5.51815
5.51037
1.40001
1.40001
1.40001
1.40001
1.40001
1.40001
1.40001
1.40001
1.40001
1.40001
1.40001
1.40001
2.51191
5.01103
5.36907
5.39408
5.42165
5.43859
5.44376
5.44103
5.42249
5.39284
5.3374
5.3091
1.40001
1.40001
1.40001
1.40001
1.40001
1.40001
1.40001
1.40001
1.40001
1.40001
1.40001
1.40001
1.99175
4.7709
5.40043
5.37739
5.38813
5.38595
5.36937
5.33949
5.27969
5.17663
4.8621
4.00369
1.40001
1.40001
1.40001
1.40001
1.40001
1.40001
1.40001
1.40001
1.40001
1.40001
1.40001
1.40001
1.5004
4.35474
5.42582
5.36805
5.34498
5.31663
5.27705
5.21709
5.11581
4.92771
4.59835
3.70387
1.40001
1.40001
1.40001
1.40001
1.40001
1.40001
1.40001
1.40001
1.40001
1.40001
1.40001
1.40001
1.40131
3.64294
5.18576
5.24229
5.25412
5.22639
5.17723
5.09284
4.96226
4.72963
4.38764
3.56324
1.40001
1.40001
1.40001
1.40001
1.40001
1.40001
1.40001
1.40001
1.40001
1.40001
1.40001
1.40001
1.39998
2.82451
4.99668
5.20131
5.20005
5.16699
5.10489
4.99683
4.83769
4.59353
4.21633
3.54833
1.40001
1.40001
1.40001
1.40001
1.40001
1.40001
1.40001
1.40001
1.40001
1.40001
1.40001
1.40001
1.4
2.00206
4.73507
5.20626
5.15732
5.10015
5.02352
4.90301
4.72844
4.48596
4.10158
3.57139
1.40001
1.40001
1.40001
1.40001
1.40001
1.40001
1.40001
1.40001
1.40001
1.40001
1.40001
1.40001
1.4
1.47836
4.01067
5.10726
5.07912
5.02628
4.94462
4.82116
4.64909
4.40378
4.04674
3.62536
1.40001
1.40001
1.40001
1.40001
1.40001
1.40001
1.40001
1.40001
1.40001
1.40001
1.40001
1.40001
1.4
1.40039
2.93862
4.94134
5.04114
4.98914
4.89916
4.75849
4.58661
4.3372
4.02145
3.67388
1.40001
1.40001
1.40001
1.40001
1.40001
1.40001
1.40001
1.40001
1.40001
1.40001
1.40001
1.40001
1.40001
1.4
1.83038
4.68934
5.10061
4.97036
4.85082
4.70299
4.51611
4.29111
4.01987
3.71786
1.40001
1.40001
1.40001
1.40001
1.40001
1.40001
1.40001
1.40001
1.40001
1.40001
1.40001
1.40001
1.40001
1.4
1.42822
3.76688
4.95877
4.86983
4.77742
4.64092
4.46682
4.26059
4.01922
3.75048
1.40001
1.40001
1.40001
1.40001
1.40001
1.40001
1.40001
1.40001
1.40001
1.40001
1.40001
1.40001
1.40001
1.4
1.39995
2.47412
4.76237
4.84573
4.77297
4.64178
4.46878
4.26227
4.02787
3.77894
1.40001
1.40001
1.40001
1.40001
1.40001
1.40001
1.40001
1.40001
1.40001
1.40001
1.40001
1.40001
1.40001
1.40001
1.39999
1.57816
4.0223
4.86119
4.76949
4.63028
4.45888
4.26068
4.03793
3.81001
1.40001
1.40001
1.40001
1.40001
1.40001
1.40001
1.40001
1.40001
1.40001
1.40001
1.40001
1.40001
1.40001
1.40001
1.4
1.4034
2.71801
4.67537
4.74057
4.60641
4.44813
4.25961
4.05472
3.85623
1.40001
1.40001
1.40001
1.40001
1.40001
1.40001
1.40001
1.40001
1.40001
1.40001
1.40001
1.40001
1.40001
1.40001
1.4
1.4
1.66031
4.03508
4.77377
4.61639
4.45685
4.26862
4.09198
3.9594
1.40001
1.40001
1.40001
1.40001
1.40001
1.40001
1.40001
1.40001
1.40001
1.40001
1.40001
1.40001
1.40001
1.40001
1.40001
1.4
1.408
2.68727
4.58422
4.60191
4.44173
4.2815
4.1738
4.19684
1.40001
1.40001
1.40001
1.40001
1.40001
1.40001
1.40001
1.40001
1.40001
1.40001
1.40001
1.40001
1.40001
1.40001
1.40001
1.40001
1.40003
1.64112
3.84373
4.6567
4.47096
4.38386
4.49813
4.62661
1.40001
1.40001
1.40001
1.40001
1.40001
1.40001
1.40001
1.40001
1.40001
1.40001
1.40001
1.40001
1.40001
1.40001
1.40001
1.40001
1.40001
1.40711
2.39218
4.33593
4.51551
4.73372
4.96877
5.01709
1.40001
1.40001
1.40001
1.40001
1.40001
1.40001
1.40001
1.40001
1.40001
1.40001
1.40001
1.40001
1.40001
1.40001
1.40001
1.40001
1.40001
1.40004
1.53529
3.33875
4.70531
5.40027
5.44197
5.31193
1.40001
1.40001
1.40001
1.40001
1.40001
1.40001
1.40001
1.40001
1.40001
1.40001
1.40001
1.40001
1.40001
1.40001
1.40001
1.40001
1.40001
1.40001
1.40263
1.97234
4.79527
5.90084
5.67749
5.47666
1.40001
1.40001
1.40001
1.40001
1.40001
1.40001
1.40001
1.40001
1.40001
1.40001
1.40001
1.40001
1.40001
1.40001
1.40001
1.40001
1.40001
1.40001
1.40002
1.44233
4.53314
5.97944
5.68809
5.52321
1.40001
1.40001
1.40001
1.40001
1.40001
1.40001
1.40001
1.40001
1.40001
1.40001
1.40001
1.40001
1.40001
1.40001
1.40001
1.40001
1.40001
1.40001
1.40001
1.40028
4.0015
5.68266
5.45297
5.38274
1.40001
1.40001
1.40001
1.40001
1.40001
1.40001
1.40001
1.40001
1.40001
1.40001
1.40001
1.40001
1.40001
1.40001
1.40001
1.40001
1.40001
1.40001
1.40001
1.4
3.57998
5.43973
5.31724
5.29741
1.40001
1.40001
1.40001
1.40001
1.40001
1.40001
1.40001
1.40001
1.40001
1.40001
1.40001
1.40001
1.40001
1.40001
1.40001
1.40001
1.40001
1.40001
1.40001
1.4
3.22466
5.22297
5.27064
5.21663
1.40001
1.40001
1.40001
1.40001
1.40001
1.40001
1.40001
1.40001
1.40001
1.40001
1.40001
1.40001
1.40001
1.40001
1.40001
1.40001
1.40001
1.40001
1.40001
1.40001
2.88586
5.10004
5.27203
5.19094
1.40001
1.40001
1.40001
1.40001
1.40001
1.40001
1.40001
1.40001
1.40001
1.40001
1.40001
1.40001
1.40001
1.40001
1.40001
1.40001
1.40001
1.40001
1.40001
1.40001
2.55479
5.03582
5.32006
5.22453
1.40001
1.40001
1.40001
1.40001
1.40001
1.40001
1.40001
1.40001
1.40001
1.40001
1.40001
1.40001
1.40001
1.40001
1.40001
1.40001
1.40001
1.40001
1.40001
1.40001
2.24814
4.95744
5.38993
5.26744
1.40001
1.40001
1.40001
1.40001
1.40001
1.40001
1.40001
1.40001
1.40001
1.40001
1.40001
1.40001
1.40001
1.40001
1.40001
1.40001
1.40001
1.40001
1.40001
1.40001
1.98763
4.84567
5.45286
5.31263
1.40001
1.40001
1.40001
1.40001
1.40001
1.40001
1.40001
1.40001
1.40001
1.40001
1.40001
1.40001
1.40001
1.40001
1.40001
1.40001
1.40001
1.40001
1.40001
1.40001
1.78629
4.7193
5.47884
5.33447
1.40001
1.40001
1.40001
1.40001
1.40001
1.40001
1.40001
1.40001
1.40001
1.40001
1.40001
1.40001
1.40001
1.40001
1.40001
1.40001
1.40001
1.40001
1.40001
1.40001
1.67166
4.584
5.47412
5.33619
1.40001
1.40001
1.40001
1.40001
1.40001
1.40001
1.40001
1.40001
1.40001
1.40001
1.40001
1.40001
1.40001
1.40001
1.40001
1.40001
1.40001
1.40001
1.40001
1.40001
1.60875
4.47133
5.45327
5.32692
1.40001
1.40001
1.40001
1.40001
1.40001
1.40001
1.40001
1.40001
1.40001
1.40001
1.40001
1.40001
1.40001
1.40001
1.40001
1.40001
1.40001
1.40001
1.40001
1.40001
1.57017
4.39521
5.43288
5.31932
1.40001
1.40001
1.40001
1.40001
1.40001
1.40001
1.40001
1.40001
1.40001
1.40001
1.40001
1.40001
1.40001
1.40001
1.40001
1.40001
1.40001
1.40001
1.40001
1.40001
1.54685
4.34678
5.41397
5.31181
1.40001
1.40001
1.40001
1.40001
1.40001
1.40001
1.40001
1.40001
1.40001
1.40001
1.40001
1.40001
1.40001
1.40001
1.40001
1.40001
1.40001
1.40001
1.40001
1.40001
1.53916
4.31208
5.38721
5.29637
1.30597
0.548965
0.225275
0.187581
0.219633
0.301844
0.39488
0.474016
0.729236
1.62145
1.91606
2.03959
2.06109
2.06142
2.13545
2.19997
2.22051
2.23575
2.25059
2.26648
2.27456
2.27887
2.28684
2.30294
2.32123
2.33406
2.34225
2.35158
2.36736
2.3861
2.40168
2.41111
2.41377
2.41158
2.40999
2.41252
2.41728
2.42054
2.42029
2.41491
2.40439
2.39309
2.38571
2.38265
2.38023
2.37473
2.36453
2.35004
2.33329
2.31674
2.3017
2.28779
2.27366
2.25883
2.24386
2.22925
2.21403
2.19625
2.17489
2.15203
2.13031
2.111
2.09413
2.07726
2.05663
2.03343
2.01094
1.99106
1.9747
1.95596
1.93213
1.9097
1.89065
1.88952
1.91854
2.14011
2.36067
2.39591
2.39484
2.38867
2.38414
2.38174
2.38111
2.3802
2.37678
2.37081
2.36466
2.35988
2.3578
2.35997
2.36353
2.36296
2.35897
2.35417
2.34969
2.34987
1.9957
1.25283
0.879383
0.632603
0.573993
0.590774
0.591168
0.562947
0.577338
1.35383
1.87903
2.03525
2.07456
2.08949
2.15075
2.19315
2.2011
2.21448
2.23255
2.2544
2.26979
2.28155
2.29547
2.31668
2.34301
2.36546
2.38055
2.38946
2.39645
2.40377
2.41197
2.4216
2.43162
2.43822
2.43846
2.43346
2.42729
2.42432
2.42499
2.4266
2.42536
2.41832
2.40661
2.39426
2.38447
2.37763
2.37084
2.36076
2.34703
2.33197
2.31781
2.3048
2.29047
2.27222
2.25195
2.23301
2.21744
2.20443
2.18875
2.16659
2.1424
2.1199
2.10082
2.08516
2.06817
2.04526
2.02049
1.99721
1.97571
1.95658
1.93801
1.92031
1.90847
1.91125
1.94028
2.13586
2.36004
2.40422
2.40701
2.40211
2.39756
2.39275
2.388
2.38428
2.38235
2.38162
2.38111
2.37937
2.37543
2.3711
2.3671
2.3657
2.36712
2.36832
2.36708
2.36433
2.48393
1.8228
1.44238
1.11588
0.889237
0.819368
0.790461
0.740366
0.663471
1.02534
1.88776
2.09958
2.13544
2.15474
2.17399
2.18933
2.19764
2.22381
2.25693
2.29244
2.32179
2.34414
2.36135
2.37557
2.388
2.40321
2.42278
2.44293
2.45538
2.45312
2.44614
2.44314
2.45061
2.46839
2.48502
2.48916
2.48031
2.46795
2.46029
2.46038
2.46669
2.47324
2.47268
2.46297
2.44839
2.43445
2.42284
2.41228
2.4004
2.38668
2.37303
2.36089
2.35015
2.33673
2.31556
2.29036
2.26687
2.24828
2.23396
2.21783
2.19519
2.16943
2.14419
2.12227
2.10346
2.08433
2.06183
2.03732
2.01104
1.98468
1.96182
1.9461
1.9417
1.95051
1.98546
2.13549
2.38497
2.4487
2.44748
2.44102
2.4403
2.44113
2.43391
2.42325
2.41343
2.40948
2.41178
2.42006
2.42685
2.42417
2.41545
2.40359
2.39615
2.39398
2.39756
2.40318
2.82415
2.25112
1.87233
1.58554
1.31336
1.083
1.02188
0.992552
0.897426
0.908384
1.52393
2.17241
2.25384
2.26356
2.28987
2.29417
2.30128
2.32634
2.3524
2.37257
2.38954
2.40712
2.42456
2.43481
2.43956
2.44493
2.45813
2.48354
2.51413
2.53413
2.53722
2.53149
2.52798
2.53448
2.55202
2.57069
2.57707
2.56973
2.5579
2.54904
2.54617
2.54959
2.55468
2.55339
2.54373
2.52969
2.51544
2.50287
2.49095
2.47699
2.46102
2.44492
2.4303
2.41795
2.40089
2.37742
2.35056
2.32626
2.30615
2.28846
2.26845
2.24605
2.2215
2.1943
2.16696
2.14124
2.11693
2.09383
2.0713
2.04864
2.02601
2.01046
2.01162
2.03048
2.07028
2.17451
2.41336
2.5298
2.5287
2.51082
2.50329
2.5078
2.51048
2.50611
2.49885
2.48791
2.4809
2.47947
2.48237
2.48666
2.48526
2.47986
2.46918
2.45554
2.44902
2.44884
3.0408
2.57668
2.19141
1.91066
1.68148
1.45793
1.25227
1.16746
1.10356
0.995843
1.14127
1.99938
2.54689
2.5674
2.5222
2.48123
2.46731
2.47642
2.48063
2.47828
2.48185
2.49599
2.52718
2.56094
2.57898
2.58502
2.59112
2.60777
2.63812
2.67003
2.68719
2.68966
2.68643
2.68493
2.69026
2.70296
2.71365
2.71229
2.70329
2.69357
2.68609
2.68241
2.68262
2.68076
2.67006
2.65471
2.63918
2.62528
2.61352
2.6001
2.58127
2.56217
2.54558
2.53148
2.5131
2.49052
2.46279
2.43414
2.41026
2.3889
2.36629
2.34379
2.31947
2.29298
2.2639
2.23368
2.20242
2.17373
2.14899
2.13002
2.11472
2.11044
2.12041
2.15608
2.19811
2.25692
2.40344
2.57826
2.64322
2.63215
2.59936
2.59152
2.5929
2.5997
2.60271
2.60025
2.59295
2.57966
2.57123
2.56917
2.56957
2.5701
2.56753
2.56101
2.54825
2.53023
3.2024
2.81773
2.46749
2.17657
1.91773
1.73361
1.54638
1.38102
1.28454
1.16035
1.18017
1.59579
2.65597
2.98617
2.87872
2.72867
2.6986
2.71962
2.71678
2.68851
2.6642
2.6649
2.69391
2.73581
2.75372
2.7566
2.75674
2.75955
2.7735
2.8003
2.82126
2.82723
2.82496
2.81999
2.81688
2.82124
2.83314
2.83621
2.82706
2.81592
2.80552
2.79666
2.79248
2.78994
2.77695
2.75859
2.74095
2.72597
2.71436
2.69929
2.67839
2.65548
2.63838
2.62145
2.60189
2.57946
2.55552
2.52993
2.50333
2.47628
2.4513
2.42704
2.40353
2.37844
2.35031
2.31837
2.28449
2.25367
2.22974
2.21574
2.21079
2.22206
2.24974
2.29904
2.34575
2.36369
2.418
2.54761
2.68502
2.73874
2.72606
2.6914
2.67401
2.6777
2.69219
2.69844
2.69685
2.68504
2.66752
2.65918
2.65778
2.65816
2.65945
2.65674
2.65002
2.62884
3.31528
2.97783
2.6679
2.40106
2.14232
1.91027
1.74939
1.61814
1.51615
1.43045
1.39756
1.47333
2.19679
3.09324
3.23833
3.08765
2.95636
2.95121
2.9594
2.92992
2.88484
2.86676
2.87897
2.91399
2.92376
2.91686
2.90543
2.89968
2.90024
2.91782
2.93672
2.93823
2.93215
2.92407
2.91697
2.91522
2.92502
2.92835
2.91805
2.90393
2.89152
2.8808
2.875
2.86743
2.84937
2.82664
2.8056
2.79091
2.77974
2.76475
2.74358
2.71876
2.69819
2.67873
2.65809
2.63773
2.61674
2.59336
2.56608
2.53844
2.5117
2.48782
2.46385
2.4386
2.4106
2.38111
2.34826
2.31998
2.30344
2.30222
2.3159
2.34622
2.39507
2.44412
2.47526
2.46716
2.46925
2.51712
2.61611
2.73863
2.79791
2.79316
2.77544
2.75821
2.75881
2.76667
2.77096
2.7684
2.75544
2.74057
2.73526
2.73428
2.73582
2.73441
2.72994
2.7135
3.4142
3.10456
2.81563
2.55891
2.34367
2.1176
1.9322
1.82347
1.80943
1.78577
1.76042
1.74636
1.86073
2.63978
3.31089
3.35841
3.25693
3.15065
3.12271
3.09809
3.0661
3.0491
3.04645
3.06388
3.06611
3.05277
3.03389
3.02513
3.02043
3.02881
3.03938
3.03385
3.02195
3.0061
2.99588
2.99094
2.99651
2.99555
2.98435
2.96783
2.95349
2.94304
2.93659
2.92256
2.90074
2.87241
2.84708
2.83201
2.82148
2.80542
2.78492
2.76273
2.73762
2.71159
2.68958
2.67167
2.65314
2.63173
2.60669
2.57705
2.54705
2.51897
2.49521
2.47187
2.44686
2.41956
2.39324
2.37166
2.36851
2.38333
2.4233
2.46652
2.52663
2.56086
2.56294
2.54457
2.5263
2.52262
2.55947
2.65388
2.76194
2.82714
2.85129
2.84011
2.82065
2.81119
2.81222
2.81689
2.81696
2.8087
2.79748
2.79266
2.7911
2.78994
2.78627
2.77487
3.48079
3.20627
2.93762
2.69388
2.50847
2.34259
2.18923
2.13242
2.16968
2.14945
2.08289
2.03917
2.01812
2.17722
2.8999
3.39581
3.43015
3.36424
3.27734
3.22934
3.18957
3.16248
3.15028
3.14984
3.14816
3.13309
3.11518
3.10547
3.09951
3.10156
3.10188
3.09118
3.07543
3.05746
3.04717
3.0433
3.04624
3.04046
3.02791
3.00915
2.99301
2.98244
2.97392
2.95743
2.9354
2.90603
2.87961
2.86437
2.84941
2.8304
2.81135
2.79115
2.76498
2.73594
2.71522
2.69665
2.67692
2.65583
2.63188
2.60353
2.57174
2.54246
2.51788
2.49448
2.47062
2.45
2.43327
2.42707
2.43822
2.48132
2.53441
2.58153
2.62907
2.63558
2.6257
2.60026
2.56986
2.54807
2.55312
2.58674
2.67153
2.77021
2.85224
2.87736
2.873
2.86137
2.85056
2.84952
2.8521
2.85246
2.84616
2.83608
2.83028
2.82676
2.82263
2.81407
3.53267
3.28741
3.05062
2.84751
2.72677
2.64367
2.54588
2.51541
2.53118
2.46987
2.34082
2.28037
2.21821
2.23234
2.43306
3.08861
3.45355
3.48658
3.44852
3.38021
3.31124
3.25314
3.21727
3.20396
3.20119
3.18922
3.17084
3.15198
3.14027
3.13289
3.12578
3.11308
3.09795
3.0812
3.07036
3.0661
3.06454
3.05614
3.04294
3.0226
3.00262
2.99001
2.97976
2.96423
2.94381
2.91936
2.8957
2.87427
2.85213
2.83293
2.81721
2.79861
2.77493
2.74843
2.72293
2.70093
2.68192
2.66238
2.6396
2.61328
2.58261
2.5515
2.52565
2.50286
2.4875
2.4779
2.47949
2.49248
2.53196
2.59405
2.63273
2.66648
2.68615
2.68195
2.66658
2.64287
2.61326
2.58195
2.56584
2.57445
2.6084
2.68373
2.78255
2.86106
2.8887
2.89984
2.8914
2.88164
2.87849
2.87776
2.87621
2.86956
2.85862
2.85143
2.84701
2.83991
3.58753
3.38556
3.21092
3.09476
3.07503
3.02302
2.89411
2.82766
2.79632
2.71055
2.5857
2.47866
2.44691
2.38336
2.4099
2.64704
3.21015
3.49148
3.54785
3.52895
3.44932
3.36113
3.29072
3.26189
3.2537
3.24497
3.22387
3.19717
3.17015
3.15312
3.14088
3.12757
3.11302
3.09816
3.08537
3.07757
3.07012
3.05974
3.04613
3.02619
3.00258
2.9871
2.97419
2.95857
2.9413
2.92349
2.90233
2.87558
2.84664
2.82816
2.8139
2.79642
2.77628
2.7529
2.72362
2.69684
2.67731
2.65763
2.63576
2.6118
2.58474
2.55516
2.52793
2.50975
2.50645
2.51797
2.54644
2.58719
2.65401
2.698
2.70716
2.71261
2.71231
2.70587
2.691
2.67311
2.65183
2.62419
2.59589
2.58626
2.59635
2.62819
2.69293
2.78363
2.85908
2.90208
2.91796
2.91156
2.90649
2.90129
2.89716
2.89383
2.88403
2.87197
2.86684
2.86105
3.67623
3.56746
3.49667
3.45715
3.44857
3.3381
3.16267
3.06066
3.00246
2.92562
2.81145
2.69004
2.64533
2.61273
2.51708
2.54107
2.79218
3.2693
3.52564
3.61235
3.57753
3.48721
3.38748
3.33655
3.3187
3.30463
3.27962
3.24574
3.20592
3.18078
3.16353
3.14988
3.13588
3.12192
3.10642
3.08968
3.07624
3.0635
3.04915
3.03102
3.00857
2.98822
2.96976
2.95324
2.93941
2.92589
2.90686
2.87805
2.84462
2.82623
2.81165
2.79475
2.77712
2.75519
2.72375
2.69213
2.66928
2.64925
2.62928
2.60858
2.58461
2.55939
2.53535
2.53384
2.54589
2.58643
2.63913
2.69758
2.75852
2.77063
2.76091
2.74048
2.72733
2.71768
2.70716
2.69617
2.68328
2.66666
2.64165
2.61609
2.60913
2.61838
2.64877
2.70163
2.78109
2.86058
2.91505
2.93063
2.93278
2.92875
2.92118
2.91558
2.90758
2.89384
2.88698
2.88202
3.90036
3.91985
3.86573
3.79457
3.71486
3.56444
3.38145
3.25932
3.1983
3.1369
3.02828
2.89494
2.8285
2.80495
2.72766
2.62957
2.65847
2.89602
3.31467
3.57832
3.64435
3.59968
3.50443
3.4287
3.39385
3.36627
3.33532
3.29589
3.24797
3.21775
3.19705
3.18261
3.16911
3.1534
3.13366
3.10746
3.08698
3.07146
3.05621
3.0399
3.02169
2.99896
2.97305
2.95453
2.9424
2.93025
2.9125
2.88494
2.85053
2.83116
2.81527
2.79891
2.78221
2.76036
2.72958
2.69351
2.66357
2.64202
2.62555
2.6081
2.59325
2.57725
2.57139
2.58541
2.62474
2.68764
2.73548
2.78575
2.81667
2.81399
2.80202
2.77702
2.74958
2.73408
2.72441
2.71896
2.71257
2.70282
2.68846
2.66469
2.64195
2.63584
2.64403
2.6715
2.71542
2.78382
2.8675
2.91782
2.94472
2.95734
2.95271
2.94412
2.93269
2.91903
2.91013
2.90465
4.27618
4.27804
4.15305
4.0307
3.90334
3.75685
3.59171
3.46132
3.39211
3.33569
3.22915
3.09008
3.00473
2.97306
2.92814
2.81298
2.73333
2.76024
2.98017
3.36143
3.61881
3.6547
3.60819
3.53283
3.47658
3.43058
3.39041
3.34746
3.29573
3.26006
3.23654
3.22008
3.20545
3.18765
3.1647
3.13018
3.10158
3.08323
3.06739
3.05294
3.03713
3.01489
2.98379
2.96004
2.94795
2.93615
2.92017
2.89572
2.86572
2.84236
2.82166
2.80472
2.78688
2.76481
2.73721
2.70314
2.66695
2.64073
2.62563
2.61595
2.61591
2.62453
2.64797
2.69143
2.75679
2.79688
2.81809
2.83917
2.84893
2.84587
2.83388
2.81589
2.78955
2.76355
2.75177
2.7456
2.74327
2.73816
2.72893
2.71418
2.69112
2.67235
2.66536
2.67291
2.6949
2.73018
2.79245
2.8676
2.92135
2.96165
2.97982
2.97591
2.96487
2.95071
2.93842
2.92743
4.66297
4.5354
4.36159
4.2173
4.07226
3.93707
3.79946
3.66801
3.58153
3.51904
3.41821
3.28061
3.18126
3.14047
3.10125
3.01494
2.88316
2.82734
2.85673
3.05206
3.39415
3.62653
3.65771
3.61955
3.56941
3.50953
3.456
3.40575
3.35105
3.30542
3.2794
3.2598
3.24133
3.22103
3.19565
3.15644
3.11874
3.09641
3.08002
3.06656
3.05073
3.02866
2.99644
2.96462
2.95059
2.93931
2.92325
2.90391
2.88379
2.85597
2.82611
2.80441
2.78373
2.76389
2.74123
2.71574
2.68532
2.65142
2.63735
2.64021
2.65806
2.70025
2.75717
2.83083
2.88564
2.89314
2.88476
2.87839
2.87373
2.87089
2.86021
2.84834
2.83201
2.80631
2.78701
2.77938
2.77584
2.77387
2.76719
2.75708
2.74062
2.7195
2.7029
2.69406
2.69896
2.714
2.74215
2.79505
2.8628
2.92821
2.97062
2.98835
2.99429
2.98741
2.97533
2.955
4.91926
4.71109
4.54336
4.40706
4.25649
4.11498
4.00066
3.87606
3.7671
3.69213
3.60002
3.46949
3.36103
3.30657
3.26643
3.18959
3.07857
2.96606
2.92291
2.96075
3.11662
3.39921
3.61344
3.64318
3.64196
3.60739
3.54691
3.48074
3.4173
3.35701
3.32466
3.30208
3.27903
3.25451
3.22453
3.18353
3.13982
3.11021
3.09062
3.07506
3.05879
3.03704
3.00599
2.96791
2.94799
2.93405
2.9169
2.90479
2.8907
2.86471
2.83202
2.80137
2.77774
2.75923
2.73917
2.72005
2.70343
2.68205
2.67412
2.68864
2.73358
2.79984
2.86724
2.93595
2.95613
2.9555
2.93911
2.91238
2.90025
2.89172
2.88489
2.87663
2.86581
2.84802
2.8245
2.81258
2.80723
2.80509
2.80074
2.7922
2.78048
2.7627
2.74355
2.72613
2.7152
2.71589
2.72354
2.74378
2.78781
2.85493
2.92688
2.96647
2.9888
3.00525
3.00378
2.98614
5.09355
4.86096
4.71772
4.60056
4.45385
4.30123
4.19852
4.09056
3.96086
3.86445
3.77919
3.65838
3.54488
3.47711
3.42665
3.35762
3.25047
3.15158
3.05917
3.01556
3.04882
3.15926
3.38553
3.56578
3.63314
3.6753
3.64032
3.57671
3.49999
3.42616
3.37344
3.34179
3.31452
3.28471
3.24936
3.20662
3.15982
3.12232
3.09624
3.07527
3.05777
3.0363
3.0045
2.96863
2.94225
2.92588
2.91267
2.90168
2.88581
2.8624
2.83239
2.79412
2.74805
2.72207
2.7142
2.71875
2.71638
2.72018
2.7376
2.78328
2.85052
2.8992
2.94707
2.98514
2.9916
2.98669
2.96627
2.93382
2.91466
2.90621
2.89988
2.89335
2.88504
2.87285
2.8528
2.83365
2.82672
2.82404
2.82019
2.81285
2.80369
2.79108
2.77305
2.7544
2.73716
2.72673
2.72405
2.72452
2.73647
2.77466
2.83905
2.90738
2.95579
2.9913
3.00368
2.99932
5.25336
5.02996
4.9061
4.79896
4.65031
4.48889
4.38595
4.29262
4.15911
4.03838
3.9551
3.84813
3.73289
3.65267
3.58485
3.51506
3.41851
3.31538
3.23461
3.14224
3.09252
3.1142
3.177
3.3414
3.52523
3.64514
3.66395
3.64544
3.58766
3.51286
3.4351
3.37755
3.33663
3.29887
3.25988
3.21584
3.16914
3.13742
3.11326
3.08395
3.04973
3.02004
2.99686
2.97235
2.9477
2.9145
2.88124
2.86261
2.84551
2.82955
2.81125
2.77907
2.73495
2.71224
2.70891
2.71239
2.73217
2.77375
2.83416
2.91508
2.95554
2.97427
2.98858
2.99794
2.99792
2.98737
2.96791
2.94455
2.91903
2.90201
2.8953
2.89578
2.89486
2.88588
2.87332
2.8563
2.83878
2.82789
2.82305
2.82162
2.81723
2.80912
2.79745
2.78001
2.75888
2.74085
2.72693
2.72175
2.72114
2.72908
2.75574
2.81431
2.88
2.93576
2.9836
2.99063
5.31482
5.15688
5.06396
4.97067
4.8299
4.67242
4.56602
4.47652
4.34929
4.20988
4.11782
4.02761
3.91172
3.82049
3.73783
3.65919
3.57414
3.46973
3.3856
3.29855
3.20239
3.15322
3.13678
3.16666
3.29673
3.48418
3.60845
3.62846
3.61927
3.57321
3.49718
3.41951
3.35687
3.30521
3.25938
3.21434
3.17168
3.13311
3.09379
3.05249
3.01362
2.98635
2.96224
2.94173
2.91933
2.8858
2.85264
2.82543
2.80098
2.77997
2.76157
2.74379
2.72533
2.70894
2.70716
2.72701
2.78438
2.85574
2.93624
2.99906
3.01129
3.01081
2.99965
2.98764
2.98079
2.97125
2.96309
2.95174
2.93251
2.91095
2.89496
2.88864
2.88835
2.89408
2.89006
2.87899
2.8602
2.84084
2.83441
2.83295
2.83151
2.82512
2.81545
2.7994
2.77479
2.75493
2.73957
2.72741
2.72082
2.71776
2.72102
2.73689
2.77904
2.84049
2.90639
2.95429
5.30813
5.22935
5.16008
5.08168
4.95108
4.80767
4.71429
4.63362
4.51398
4.37136
4.27029
4.18171
4.07043
3.96269
3.87679
3.77876
3.69437
3.60248
3.50713
3.42588
3.32864
3.22372
3.15765
3.13431
3.14682
3.23265
3.39672
3.51412
3.57401
3.56488
3.52358
3.45217
3.3707
3.30101
3.25043
3.21082
3.17276
3.12794
3.07792
3.0294
2.99188
2.96096
2.93153
2.90843
2.88288
2.85214
2.81827
2.78223
2.74898
2.72845
2.71614
2.71107
2.71013
2.71546
2.73683
2.79487
2.86857
2.93019
2.99036
3.02006
3.02368
3.01588
2.98793
2.95686
2.94628
2.94104
2.94186
2.94228
2.93622
2.92185
2.90164
2.88867
2.88345
2.88181
2.88431
2.88226
2.87442
2.8594
2.83884
2.82522
2.81763
2.81167
2.80544
2.79739
2.78459
2.76507
2.74305
2.72365
2.70867
2.69952
2.69482
2.69498
2.70509
2.73816
2.791
2.87477
5.25777
5.20066
5.14516
5.08932
4.98719
4.86789
4.77979
4.70586
4.59812
4.4581
4.34846
4.28583
4.19891
4.07767
3.9753
3.88408
3.7851
3.70819
3.61736
3.53091
3.44147
3.32584
3.23117
3.16432
3.10627
3.09767
3.15455
3.27365
3.40289
3.48246
3.46785
3.41352
3.34876
3.2851
3.2258
3.17225
3.12399
3.0792
3.03528
2.99035
2.95155
2.91784
2.88943
2.86476
2.83701
2.80595
2.77145
2.72961
2.68984
2.67562
2.67369
2.68807
2.71347
2.75054
2.81388
2.8897
2.93287
2.96538
3.00249
3.01618
3.01088
2.99102
2.9591
2.92701
2.91423
2.91203
2.91365
2.9196
2.91994
2.91499
2.90364
2.88487
2.8712
2.8663
2.86542
2.86574
2.86108
2.85238
2.83716
2.81857
2.80487
2.79511
2.78674
2.77823
2.76857
2.75573
2.7392
2.72013
2.70157
2.6836
2.66917
2.66066
2.65971
2.666
2.68799
2.7657
5.16896
5.12128
5.07628
5.01722
4.92781
4.83963
4.77098
4.71406
4.61872
4.48757
4.37966
4.30457
4.22658
4.11755
3.99651
3.902
3.81019
3.71714
3.63385
3.53872
3.44322
3.35459
3.25249
3.15473
3.07892
3.0322
3.01493
3.04748
3.14308
3.28999
3.35474
3.33523
3.30175
3.25183
3.1918
3.13431
3.08338
3.03495
2.98662
2.9392
2.89588
2.85797
2.82863
2.80267
2.77437
2.74238
2.70727
2.66761
2.64153
2.63948
2.64885
2.67887
2.73493
2.80844
2.88929
2.94108
2.9571
2.96665
2.9621
2.95597
2.94545
2.93384
2.92333
2.90786
2.89034
2.88241
2.88042
2.88071
2.88429
2.88509
2.8816
2.87047
2.85422
2.84494
2.84103
2.83816
2.83382
2.82688
2.81591
2.79994
2.78427
2.7726
2.7628
2.75314
2.7434
2.73268
2.71931
2.70249
2.68392
2.66529
2.64811
2.6334
2.6232
2.61855
2.61966
2.66166
5.14654
5.09051
5.03095
4.95945
4.87995
4.80854
4.74791
4.67956
4.57284
4.45604
4.36432
4.29806
4.22439
4.12012
3.99735
3.90509
3.82206
3.7321
3.64528
3.55118
3.45373
3.36411
3.27361
3.18144
3.09794
3.02043
2.9594
2.92197
2.94103
3.03106
3.15802
3.21037
3.2307
3.20581
3.15427
3.09234
3.03582
2.98197
2.93114
2.8856
2.84509
2.80753
2.77068
2.73296
2.69672
2.66404
2.63698
2.62007
2.61799
2.62556
2.64876
2.70203
2.78223
2.85485
2.92314
2.94504
2.94318
2.92818
2.90054
2.88721
2.88057
2.87908
2.88088
2.87733
2.86783
2.85332
2.84595
2.84423
2.84484
2.84786
2.84723
2.84244
2.83161
2.81966
2.81382
2.80925
2.80397
2.79712
2.78756
2.77417
2.75859
2.74603
2.73676
2.72817
2.71876
2.70754
2.69355
2.67672
2.65956
2.64367
2.62887
2.61354
2.59935
2.58547
2.574
2.58467
5.17074
5.10073
5.02598
4.94633
4.8691
4.79639
4.7265
4.64057
4.53591
4.43307
4.35107
4.29067
4.20741
4.09512
3.97873
3.89239
3.8171
3.73247
3.64395
3.54776
3.4482
3.35869
3.28032
3.20223
3.1191
3.03458
2.95208
2.88198
2.83905
2.85112
2.92678
3.0181
3.09781
3.14425
3.12231
3.06205
2.9965
2.93829
2.88826
2.84668
2.81053
2.7728
2.72571
2.66893
2.62302
2.59981
2.5917
2.59814
2.61687
2.63595
2.68512
2.76782
2.82508
2.8706
2.90665
2.91346
2.90647
2.88823
2.85712
2.83513
2.83003
2.8306
2.83678
2.83767
2.83422
2.82536
2.81376
2.80973
2.80904
2.81051
2.81187
2.80974
2.80395
2.79409
2.78575
2.78038
2.77471
2.7679
2.75945
2.74866
2.73551
2.7225
2.712
2.70315
2.69398
2.68296
2.66898
2.65259
2.63685
2.62277
2.60976
2.59558
2.5811
2.56341
2.54664
2.53503
5.2038
5.1281
5.05013
4.97115
4.89327
4.81354
4.72708
4.62883
4.52816
4.43835
4.36935
4.29813
4.19677
4.07898
3.97574
3.89855
3.82829
3.74426
3.64932
3.54559
3.44862
3.3653
3.2926
3.22051
3.14413
3.05658
2.96558
2.8819
2.81824
2.78091
2.78158
2.82705
2.90867
3.02256
3.0608
3.02572
2.96697
2.91409
2.86592
2.8216
2.78102
2.73832
2.68647
2.62272
2.58405
2.57208
2.57809
2.60262
2.63304
2.69406
2.78476
2.83079
2.84459
2.8596
2.87078
2.86885
2.85939
2.84415
2.82224
2.80528
2.80058
2.80229
2.80632
2.80624
2.80375
2.7981
2.78996
2.78517
2.78419
2.78453
2.78638
2.78597
2.78208
2.77453
2.76505
2.75753
2.75151
2.74523
2.73792
2.72925
2.719
2.70773
2.69636
2.68563
2.67491
2.66308
2.64912
2.63434
2.62042
2.60844
2.59677
2.58469
2.57089
2.55365
2.53445
2.50841
5.24095
5.16058
5.08308
5.00588
4.92691
4.84299
4.74994
4.65456
4.56488
4.4881
4.41426
4.31526
4.19771
4.085
4.00149
3.93522
3.85742
3.76193
3.65299
3.55366
3.46828
3.38983
3.31596
3.24313
3.1645
3.07612
2.98364
2.90066
2.82911
2.77367
2.73514
2.71659
2.74192
2.83205
2.93695
2.95908
2.93969
2.89734
2.84876
2.80084
2.7538
2.70526
2.65438
2.60472
2.57883
2.57878
2.58538
2.62676
2.70678
2.79076
2.84979
2.85784
2.85127
2.84442
2.83418
2.82405
2.81347
2.80582
2.80295
2.79925
2.79247
2.78629
2.78299
2.7806
2.77949
2.7796
2.77958
2.77859
2.77578
2.77314
2.77166
2.76968
2.76635
2.76229
2.75708
2.75063
2.74428
2.73812
2.73109
2.72333
2.71503
2.70582
2.69486
2.68202
2.66812
2.65424
2.64089
2.62852
2.61698
2.60578
2.59368
2.57981
2.56272
2.54362
2.52302
2.49629
5.26317
5.18661
5.11132
5.03357
4.95254
4.86757
4.77943
4.69186
4.60819
4.52866
4.43798
4.32754
4.2164
4.12623
4.05093
3.97477
3.88132
3.77303
3.66692
3.5817
3.50304
3.42572
3.34829
3.26615
3.17763
3.08969
3.00645
2.92993
2.85819
2.79012
2.73095
2.68045
2.64575
2.66885
2.75511
2.84134
2.888
2.87519
2.82874
2.77685
2.72513
2.674
2.63109
2.6028
2.58992
2.59708
2.63946
2.72018
2.78646
2.84291
2.86618
2.8631
2.85094
2.8291
2.80114
2.78684
2.78267
2.78477
2.79183
2.79173
2.78653
2.77485
2.76532
2.76383
2.7654
2.77157
2.7755
2.77545
2.77114
2.76276
2.7578
2.75635
2.75669
2.7581
2.75631
2.75216
2.74506
2.73663
2.72898
2.72155
2.71367
2.70457
2.69279
2.6776
2.66154
2.64823
2.63728
2.62714
2.61644
2.60403
2.58791
2.56809
2.54695
2.52903
2.5151
2.4939
5.27231
5.20022
5.12752
5.05108
4.97136
4.88844
4.80443
4.72057
4.63747
4.55134
4.45186
4.34626
4.25072
4.16897
4.09136
3.99923
3.89353
3.78067
3.69074
3.61576
3.54083
3.46271
3.37738
3.28108
3.18476
3.10235
3.02986
2.96017
2.89111
2.82107
2.74824
2.67304
2.61159
2.5861
2.61029
2.67937
2.76627
2.82061
2.79785
2.75296
2.70097
2.65424
2.625
2.61566
2.63506
2.68178
2.76194
2.81211
2.83777
2.8604
2.86562
2.85572
2.83897
2.81311
2.7815
2.76688
2.76497
2.76995
2.77847
2.77897
2.77518
2.76387
2.75591
2.75626
2.76018
2.76801
2.77128
2.77077
2.76461
2.75579
2.7532
2.75272
2.75494
2.75719
2.75519
2.75011
2.74038
2.72989
2.72224
2.71528
2.70755
2.69806
2.68551
2.67002
2.65525
2.64376
2.63384
2.62399
2.61294
2.5987
2.57893
2.55629
2.53702
2.52327
2.51392
2.49511
5.2679
5.19975
5.13021
5.05613
4.97874
4.89878
4.81761
4.73551
4.65098
4.5597
4.46128
4.36507
4.27836
4.20157
4.11504
4.01256
3.89894
3.79681
3.71507
3.64216
3.5654
3.4827
3.39088
3.29097
3.19725
3.11893
3.05126
2.98814
2.92371
2.85035
2.76399
2.67751
2.60669
2.5567
2.53968
2.55576
2.60123
2.6848
2.73372
2.71876
2.68325
2.65925
2.64576
2.67633
2.73044
2.8074
2.86236
2.8701
2.87154
2.86193
2.8507
2.83433
2.81672
2.79794
2.77704
2.7639
2.76113
2.76426
2.76727
2.76734
2.76542