/*--------------------------------*- C++ -*----------------------------------*\
  =========                 |
  \\      /  F ield         | OpenFOAM: The Open Source CFD Toolbox
   \\    /   O peration     | Website:  https://openfoam.org
    \\  /    A nd           | Version:  7
     \\/     M anipulation  |
\*---------------------------------------------------------------------------*/
FoamFile
{
    version     2.0;
    format      ascii;
    class       volScalarField;
    location    "12";
    object      T;
}
// * * * * * * * * * * * * * * * * * * * * * * * * * * * * * * * * * * * * * //

dimensions      [0 0 0 1 0 0 0];

internalField   nonuniform List<scalar> 
4032
(
1
1
1
1
1
1
1
1
1
1
1
1.17345
2.41393
2.71644
2.72658
2.74184
2.75529
2.76811
2.77978
2.79007
2.79903
2.80617
2.81158
2.81551
1
1
1
1
1
1
1
1
1
1
1
1.15585
2.39983
2.7153
2.72595
2.7405
2.75372
2.76627
2.77761
2.78742
2.79581
2.8024
2.8072
2.81093
1
1
1
1
1
1
1
1
1
1
1
1.10226
2.36198
2.71244
2.72286
2.73755
2.75088
2.76337
2.77454
2.78398
2.79181
2.79774
2.80159
2.80475
1
1
1
1
1
1
1
1
1
1
1
1.00743
2.29389
2.70459
2.71803
2.73294
2.74582
2.7575
2.76801
2.77703
2.78459
2.79019
2.79335
2.79576
1
1
1
1
1
1
1
1
1
1
1
1.00006
2.21174
2.68877
2.70744
2.72295
2.73649
2.74822
2.75843
2.76664
2.77273
2.77681
2.77846
2.78124
1
1
1
1
1
1
1
1
1
1
1
1
2.09722
2.67005
2.6983
2.7126
2.72595
2.73691
2.74613
2.75355
2.75905
2.76218
2.76051
2.75491
1
1
1
1
1
1
1
1
1
1
1
1
1.93881
2.63463
2.6825
2.69819
2.71179
2.72203
2.72978
2.735
2.73658
2.73302
2.72475
2.71746
1
1
1
1
1
1
1
1
1
1
1
1
1.72172
2.56462
2.65587
2.67922
2.69503
2.70538
2.71131
2.71338
2.71054
2.70527
2.69983
2.71079
1
1
1
1
1
1
1
1
1
1
1
1
1.40999
2.44057
2.62952
2.65493
2.67322
2.68475
2.68895
2.68792
2.67974
2.66113
2.60928
2.50882
1
1
1
1
1
1
1
1
1
1
1
1
1.05135
2.30796
2.62995
2.6319
2.64233
2.65321
2.65787
2.65469
2.64167
2.60856
2.55063
2.3882
1
1
1
1
1
1
1
1
1
1
1
1
1.00061
2.13962
2.58889
2.59723
2.60824
2.61572
2.62015
2.61565
2.60059
2.56195
2.49779
2.31386
1
1
1
1
1
1
1
1
1
1
1
1
0.999994
1.83228
2.52391
2.58164
2.59
2.58902
2.58752
2.57931
2.56044
2.52186
2.44926
2.29045
1
1
1
1
1
1
1
1
1
1
1
1
0.999998
1.37349
2.37961
2.5632
2.56343
2.56185
2.55657
2.54394
2.52103
2.48296
2.40911
2.28831
1
1
1
1
1
1
1
1
1
1
1
1
1
1.03837
2.19441
2.52242
2.53318
2.53226
2.52641
2.51214
2.48797
2.44779
2.37948
2.28838
1
1
1
1
1
1
1
1
1
1
1
1
1
1.00023
1.82751
2.43916
2.51102
2.50806
2.50068
2.48354
2.45895
2.41655
2.35652
2.28429
1
1
1
1
1
1
1
1
1
1
1
1
1
0.999998
1.23995
2.27975
2.4912
2.478
2.47009
2.45481
2.42871
2.39137
2.33989
2.27821
1
1
1
1
1
1
1
1
1
1
1
1
1
1
1.01335
2.08284
2.44104
2.43192
2.43065
2.42091
2.40028
2.36871
2.32461
2.27076
1
1
1
1
1
1
1
1
1
1
1
1
1
1
1.00001
1.58484
2.32425
2.41242
2.40601
2.39379
2.3743
2.34565
2.30743
2.26086
1
1
1
1
1
1
1
1
1
1
1
1
1
1
0.999998
1.08902
2.11575
2.39065
2.38275
2.36817
2.34752
2.32071
2.28669
2.24711
1
1
1
1
1
1
1
1
1
1
1
1
1
1
0.999999
1.00157
1.66595
2.27715
2.3605
2.34172
2.32204
2.29655
2.26552
2.23321
1
1
1
1
1
1
1
1
1
1
1
1
1
1
1
1
1.13033
2.0772
2.33511
2.3158
2.2991
2.27364
2.24782
2.23499
1
1
1
1
1
1
1
1
1
1
1
1
1
1
1
1
1.00356
1.62615
2.20822
2.29314
2.27145
2.24501
2.24826
2.26277
1
1
1
1
1
1
1
1
1
1
1
1
1
1
1
1
1.00001
1.11865
1.99069
2.26855
2.24171
2.24798
2.28687
2.32757
1
1
1
1
1
1
1
1
1
1
1
1
1
1
1
1
1
1.00304
1.47363
2.11645
2.19742
2.27544
2.34278
2.37955
1
1
1
1
1
1
1
1
1
1
1
1
1
1
1
1
1
1.00001
1.06324
1.8366
2.20147
2.34595
2.39199
2.37985
1
1
1
1
1
1
1
1
1
1
1
1
1
1
1
1
1
1
1.00103
1.28036
2.18531
2.42676
2.40055
2.37872
1
1
1
1
1
1
1
1
1
1
1
1
1
1
1
1
1
1
1
1.01856
2.25596
2.52781
2.45756
2.40962
1
1
1
1
1
1
1
1
1
1
1
1
1
1
1
1
1
1
1
1.00011
2.22554
2.5962
2.52338
2.4683
1
1
1
1
1
1
1
1
1
1
1
1
1
1
1
1
1
1
1
1
2.15285
2.65339
2.60663
2.56172
1
1
1
1
1
1
1
1
1
1
1
1
1
1
1
1
1
1
1
1
2.04214
2.6518
2.64457
2.61673
1
1
1
1
1
1
1
1
1
1
1
1
1
1
1
1
1
1
1
1
1.89645
2.62279
2.65293
2.63375
1
1
1
1
1
1
1
1
1
1
1
1
1
1
1
1
1
1
1
1
1.73614
2.57054
2.65678
2.63819
1
1
1
1
1
1
1
1
1
1
1
1
1
1
1
1
1
1
1
1
1.58187
2.52067
2.65333
2.63155
1
1
1
1
1
1
1
1
1
1
1
1
1
1
1
1
1
1
1
1
1.43674
2.48021
2.65169
2.62645
1
1
1
1
1
1
1
1
1
1
1
1
1
1
1
1
1
1
1
1
1.30833
2.44882
2.65572
2.6284
1
1
1
1
1
1
1
1
1
1
1
1
1
1
1
1
1
1
1
1
1.23327
2.42582
2.66428
2.636
1
1
1
1
1
1
1
1
1
1
1
1
1
1
1
1
1
1
1
1
1.18734
2.40326
2.67014
2.6439
1
1
1
1
1
1
1
1
1
1
1
1
1
1
1
1
1
1
1
1
1.15455
2.38064
2.67242
2.65003
1
1
1
1
1
1
1
1
1
1
1
1
1
1
1
1
1
1
1
1
1.13367
2.36506
2.67321
2.65358
1
1
1
1
1
1
1
1
1
1
1
1
1
1
1
1
1
1
1
1
1.13015
2.36052
2.67141
2.65321
1.69216
1.2036
0.947692
0.97159
1.12099
1.31162
1.38812
1.41637
1.80306
2.67721
2.8735
2.90256
2.89271
2.86799
2.88585
2.9021
2.89531
2.88346
2.87347
2.86568
2.85279
2.83856
2.82842
2.8228
2.81911
2.81399
2.80763
2.8016
2.79823
2.79622
2.79268
2.7861
2.77672
2.76588
2.75648
2.74946
2.74369
2.73763
2.72978
2.71943
2.70716
2.69472
2.68403
2.67543
2.6675
2.65851
2.64746
2.63435
2.62032
2.60668
2.59406
2.58228
2.57077
2.55931
2.54816
2.53755
2.5269
2.51504
2.50152
2.48745
2.47403
2.46181
2.45078
2.43971
2.4268
2.41269
2.39885
2.38609
2.37495
2.36264
2.3478
2.33256
2.32222
2.31396
2.32614
2.42782
2.52637
2.52893
2.52682
2.52143
2.51694
2.51377
2.51156
2.50932
2.50606
2.50196
2.49821
2.49538
2.49386
2.49416
2.49512
2.4945
2.49176
2.48847
2.4853
2.48249
1.93421
1.64371
1.464
1.30538
1.29876
1.31305
1.2988
1.26212
1.31242
2.39861
2.81647
2.86818
2.87288
2.86496
2.88057
2.88721
2.87564
2.86312
2.85523
2.85027
2.8412
2.8309
2.82326
2.8193
2.81804
2.81579
2.81111
2.80432
2.797
2.7894
2.7816
2.77476
2.76893
2.76218
2.75286
2.74146
2.72992
2.71986
2.71166
2.70404
2.69504
2.6837
2.67069
2.65756
2.64562
2.63519
2.62501
2.61361
2.60089
2.58789
2.57563
2.56433
2.55294
2.54038
2.52734
2.51509
2.50449
2.49524
2.48501
2.47212
2.45849
2.44559
2.43413
2.42421
2.41364
2.40033
2.38617
2.37254
2.35943
2.34716
2.33518
2.3232
2.31585
2.31132
2.32254
2.40974
2.50815
2.51643
2.51453
2.50954
2.50485
2.50036
2.4963
2.49306
2.49085
2.4895
2.48851
2.48719
2.48532
2.4836
2.48195
2.48106
2.48117
2.48113
2.4799
2.47675
2.03058
1.82686
1.68936
1.5477
1.42165
1.36686
1.34185
1.31157
1.26114
1.76256
2.57437
2.77885
2.8204
2.83289
2.84006
2.83936
2.83175
2.83056
2.8307
2.832
2.83032
2.82567
2.81846
2.80896
2.79844
2.79013
2.78431
2.77939
2.77097
2.75495
2.73741
2.72398
2.71692
2.71366
2.70988
2.70091
2.68539
2.66937
2.65574
2.64582
2.63858
2.63154
2.62155
2.60755
2.59209
2.5773
2.56427
2.55251
2.5407
2.52845
2.51662
2.50598
2.49667
2.48695
2.47458
2.46097
2.44841
2.43841
2.43075
2.42262
2.41189
2.39984
2.38789
2.37724
2.36787
2.35827
2.34707
2.33475
2.32124
2.30732
2.29471
2.28613
2.28063
2.28261
2.29493
2.35774
2.46101
2.47879
2.47476
2.46737
2.46337
2.4608
2.45553
2.45021
2.44599
2.4444
2.44535
2.44907
2.45279
2.45261
2.45033
2.4466
2.44496
2.44505
2.44766
2.45058
2.09966
1.93407
1.81472
1.71397
1.59986
1.47746
1.44215
1.42538
1.36931
1.38904
2.03398
2.55379
2.68331
2.73576
2.76201
2.76591
2.76752
2.77331
2.77439
2.771
2.76446
2.75719
2.74875
2.7359
2.71984
2.70505
2.69373
2.68613
2.67927
2.66835
2.65272
2.63551
2.62128
2.61199
2.60641
2.60125
2.59218
2.57707
2.56127
2.5467
2.53439
2.52495
2.51577
2.50389
2.48936
2.47458
2.46077
2.44857
2.43734
2.4258
2.41392
2.40256
2.3925
2.38407
2.37457
2.36371
2.35253
2.34284
2.33508
2.32854
2.32139
2.3137
2.30543
2.29599
2.28611
2.27645
2.26697
2.25779
2.24883
2.23984
2.23028
2.22399
2.22194
2.22793
2.24072
2.27979
2.37106
2.41021
2.40528
2.39243
2.38472
2.38368
2.38261
2.37968
2.37729
2.37417
2.37273
2.37339
2.37635
2.38002
2.38176
2.38278
2.38255
2.3813
2.38195
2.38567
2.15016
2.01842
1.90056
1.80714
1.72351
1.63286
1.53856
1.49517
1.46103
1.40948
1.53292
2.15755
2.51115
2.63146
2.62748
2.62732
2.62825
2.6365
2.63682
2.63006
2.62101
2.61467
2.61226
2.60937
2.59997
2.58505
2.57036
2.559
2.55133
2.54456
2.53414
2.51977
2.50412
2.49054
2.48052
2.47398
2.46803
2.45763
2.44418
2.43088
2.41836
2.40725
2.3978
2.38708
2.37388
2.36031
2.34736
2.33576
2.32575
2.31575
2.30438
2.29347
2.28412
2.27639
2.26798
2.2592
2.24949
2.23987
2.23217
2.2257
2.2193
2.21364
2.20779
2.20123
2.19341
2.18466
2.17508
2.16639
2.15935
2.15435
2.15055
2.14907
2.1521
2.16396
2.17653
2.19326
2.24211
2.30305
2.32086
2.31244
2.29781
2.29143
2.28975
2.29101
2.29208
2.29184
2.29065
2.28788
2.28704
2.2884
2.29198
2.29652
2.30043
2.30331
2.30375
2.30378
2.18493
2.08101
1.97803
1.88531
1.7956
1.72823
1.65444
1.58333
1.53724
1.47902
1.49271
1.74189
2.25399
2.50331
2.49195
2.46689
2.4688
2.48691
2.48848
2.47835
2.46274
2.4551
2.45631
2.45848
2.4539
2.4409
2.42728
2.41553
2.40732
2.40303
2.39746
2.38706
2.37366
2.36088
2.35035
2.3444
2.34119
2.33576
2.32521
2.31468
2.30458
2.29531
2.28754
2.27989
2.26903
2.25733
2.24602
2.23594
2.22754
2.21848
2.20808
2.19761
2.18964
2.18234
2.17486
2.1671
2.15933
2.15124
2.14297
2.13493
2.12817
2.12229
2.11727
2.11205
2.10582
2.09804
2.0893
2.08148
2.07627
2.07379
2.07437
2.07864
2.08822
2.10441
2.1201
2.11971
2.13187
2.17286
2.21694
2.23395
2.22736
2.21312
2.20527
2.20587
2.20965
2.21171
2.21166
2.20908
2.20533
2.20487
2.20686
2.21084
2.21576
2.21964
2.22224
2.22271
2.20149
2.11587
2.02992
1.94997
1.86581
1.78451
1.72437
1.67392
1.63201
1.59777
1.58501
1.62126
1.94679
2.29483
2.41582
2.38337
2.35693
2.36145
2.36837
2.35971
2.34233
2.33107
2.33085
2.33462
2.33201
2.32036
2.30752
2.29724
2.29025
2.28883
2.28743
2.2805
2.27011
2.2605
2.25203
2.24643
2.24511
2.24207
2.23421
2.22609
2.21867
2.21187
2.2064
2.20004
2.19087
2.1807
2.1708
2.16282
2.15619
2.14862
2.13951
2.12969
2.12165
2.11445
2.10741
2.10089
2.09434
2.08698
2.07835
2.06986
2.06212
2.05588
2.05019
2.04462
2.03846
2.03184
2.02371
2.01705
2.01469
2.01536
2.02165
2.03296
2.05036
2.0658
2.07397
2.06814
2.06334
2.07524
2.10508
2.14488
2.16075
2.15934
2.1527
2.14695
2.14565
2.14753
2.14881
2.14842
2.14537
2.14244
2.14261
2.14448
2.148
2.15092
2.15328
2.15464
2.21181
2.1373
2.06159
1.98921
1.92419
1.85073
1.78539
1.74693
1.74309
1.73675
1.72829
1.7279
1.77408
2.06464
2.29385
2.34868
2.32481
2.29802
2.29267
2.28526
2.27306
2.26373
2.25987
2.26175
2.25922
2.24959
2.23788
2.22956
2.2234
2.22234
2.22168
2.21577
2.2081
2.19987
2.19317
2.18814
2.18691
2.18374
2.17789
2.17132
2.16531
2.16029
2.15634
2.15008
2.14205
2.13234
2.12304
2.11645
2.11125
2.10449
2.09658
2.08836
2.07958
2.07091
2.0638
2.05824
2.05258
2.04584
2.03781
2.02838
2.01919
2.01102
2.00475
1.99915
1.99343
1.98699
1.98016
1.97586
1.97613
1.98275
1.99799
2.01363
2.03369
2.04282
2.0421
2.03356
2.02465
2.01999
2.03026
2.05727
2.08896
2.10869
2.1172
2.11344
2.10681
2.10332
2.1031
2.10442
2.10464
2.10279
2.10058
2.10054
2.10144
2.10289
2.10411
2.10542
2.21206
2.14881
2.08196
2.01697
1.96516
1.9159
1.86708
1.85376
1.86811
1.86154
1.83896
1.8239
1.81675
1.87773
2.12059
2.27744
2.30632
2.28955
2.26768
2.25538
2.24248
2.22996
2.2226
2.22031
2.2176
2.21018
2.20082
2.19338
2.18776
2.18534
2.18253
2.17685
2.17062
2.16377
2.15856
2.15486
2.1534
2.14948
2.14456
2.13846
2.13293
2.12901
2.12555
2.11973
2.11261
2.10364
2.09529
2.08996
2.08448
2.07736
2.0702
2.06294
2.05426
2.04516
2.03893
2.0334
2.02725
2.02043
2.01257
2.00341
1.9936
1.98501
1.97814
1.97191
1.96562
1.96014
1.95573
1.95629
1.96114
1.97683
1.99497
2.01073
2.0247
2.02516
2.02135
2.01188
2.00021
1.99248
1.99149
1.9998
2.02401
2.05173
2.07659
2.08448
2.08373
2.07987
2.07622
2.07537
2.07605
2.07626
2.07475
2.07241
2.07156
2.07136
2.07122
2.07159
2.20982
2.15516
2.09882
2.0481
2.01892
1.99864
1.97438
1.9688
1.97444
1.95575
1.91542
1.89442
1.87223
1.87797
1.94584
2.14744
2.25933
2.28182
2.27108
2.25358
2.23457
2.21745
2.20384
2.19761
2.19513
2.18973
2.18162
2.17257
2.1656
2.16036
2.15567
2.15019
2.1446
2.13857
2.13377
2.13048
2.12801
2.12389
2.11912
2.11274
2.10657
2.10264
2.09923
2.09432
2.08817
2.08094
2.07389
2.06733
2.06018
2.05341
2.04768
2.04134
2.03369
2.02555
2.01807
2.01151
2.00553
1.99923
1.99192
1.98359
1.97412
1.96492
1.95744
1.95063
1.94629
1.94393
1.94587
1.95172
1.96546
1.98548
1.9965
2.00668
2.01176
2.01008
2.00487
1.99681
1.9864
1.97551
1.96908
1.9706
1.97946
2.00045
2.02788
2.05072
2.05987
2.06325
2.06022
2.05709
2.05599
2.05567
2.05515
2.05329
2.05052
2.04896
2.04819
2.04755
2.20516
2.16436
2.12696
2.10257
2.10365
2.09491
2.06379
2.04694
2.03909
2.01525
1.97883
1.94466
1.93386
1.91243
1.92058
1.99422
2.15795
2.2437
2.26668
2.26027
2.23897
2.21594
2.19678
2.18686
2.18287
2.17871
2.17068
2.16055
2.15015
2.1427
2.13696
2.13129
2.12563
2.12003
2.11477
2.11066
2.1067
2.10221
2.09721
2.09083
2.08371
2.0788
2.07485
2.07025
2.06527
2.0601
2.05376
2.04541
2.03619
2.03011
2.0254
2.01983
2.01361
2.00653
1.9977
1.98964
1.98366
1.97766
1.97106
1.9638
1.9554
1.94631
1.93801
1.93217
1.93247
1.93721
1.9475
1.96078
1.98131
1.99373
1.99573
1.99709
1.99638
1.99387
1.9888
1.98268
1.97533
1.96579
1.95636
1.95195
1.95396
1.96215
1.9802
2.00574
2.02683
2.03961
2.0442
2.04217
2.0406
2.03893
2.03753
2.03644
2.03372
2.03063
2.02951
2.02838
2.20641
2.1899
2.18439
2.18253
2.18459
2.16141
2.12001
2.09503
2.08093
2.06123
2.02993
1.99404
1.97992
1.96958
1.94091
1.94737
2.02016
2.15336
2.2278
2.2559
2.24617
2.22164
2.19628
2.18208
2.17605
2.17084
2.16231
2.1511
2.13828
2.12937
2.12262
2.11689
2.11122
2.10571
2.09971
2.09321
2.08763
2.08243
2.07707
2.07102
2.06411
2.05775
2.05207
2.04715
2.04309
2.03907
2.03329
2.02443
2.01408
2.00812
2.00332
1.99798
1.99273
1.98644
1.9773
1.96794
1.96134
1.95548
1.94963
1.94351
1.93641
1.92832
1.92092
1.92115
1.92611
1.93994
1.95622
1.97302
1.99083
1.99227
1.98967
1.98365
1.97906
1.97536
1.97144
1.96745
1.96278
1.95678
1.94818
1.93972
1.93596
1.93775
1.94513
1.95947
1.98155
2.00355
2.01915
2.02374
2.02452
2.02313
2.02086
2.01917
2.01692
2.01327
2.01165
2.01037
2.23678
2.25215
2.25015
2.24343
2.23036
2.19859
2.15715
2.12895
2.11553
2.10116
2.07307
2.03623
2.01677
2.00968
1.98693
1.95774
1.96517
2.03135
2.14561
2.21787
2.23888
2.22633
2.20022
2.18024
2.17091
2.16276
2.15312
2.14096
2.12659
2.11681
2.10951
2.10373
2.09818
2.09208
2.08487
2.07586
2.06835
2.0623
2.05649
2.05064
2.04454
2.03741
2.02942
2.02366
2.01988
2.01608
2.01062
2.00241
1.99212
1.98594
1.98074
1.97558
1.97068
1.96467
1.95633
1.94631
1.93806
1.93223
1.9276
1.92271
1.91853
1.91318
1.91297
1.91747
1.92997
1.94896
1.96187
1.97554
1.98317
1.9822
1.97852
1.97117
1.96255
1.95697
1.95323
1.95075
1.94792
1.94392
1.93844
1.93032
1.92272
1.91935
1.92071
1.92674
1.93787
1.95659
1.9796
1.99372
2.00121
2.00578
2.00438
2.00192
1.99879
1.9952
1.99301
1.99157
2.29415
2.31162
2.29309
2.27462
2.2517
2.22289
2.18816
2.15989
2.14553
2.13341
2.10746
2.07117
2.04774
2.0387
2.02569
1.99233
1.96845
1.97505
2.03501
2.13653
2.20216
2.21424
2.20131
2.18083
2.16583
2.15313
2.14142
2.12868
2.11345
2.10233
2.09442
2.08824
2.08241
2.07564
2.06744
2.05621
2.04652
2.03961
2.03344
2.02776
2.02194
2.01463
2.00517
1.99787
1.99396
1.99019
1.98521
1.97792
1.96931
1.96259
1.95662
1.95179
1.94675
1.94065
1.9332
1.92447
1.91502
1.908
1.90397
1.90146
1.90158
1.90482
1.91301
1.92624
1.94466
1.95507
1.96004
1.9658
1.96753
1.96645
1.96269
1.95702
1.94868
1.94009
1.93555
1.93268
1.93086
1.92815
1.92428
1.91889
1.91123
1.90479
1.90165
1.90273
1.90693
1.91537
1.93211
1.95251
1.96693
1.97873
1.98511
1.98431
1.9813
1.97769
1.97464
1.97193
2.35581
2.33769
2.31132
2.28869
2.26379
2.23991
2.21389
2.1872
2.16972
2.15702
2.13389
2.09984
2.07395
2.06287
2.05178
2.0274
1.98922
1.97176
1.97786
2.02871
2.11623
2.17299
2.18378
2.17436
2.15978
2.14347
2.1287
2.11436
2.09843
2.08453
2.0759
2.06897
2.06215
2.05467
2.04577
2.03335
2.02142
2.01351
2.00721
2.00167
1.99573
1.98845
1.97887
1.96979
1.96565
1.96228
1.95758
1.95192
1.94616
1.93846
1.93059
1.92525
1.92025
1.91519
1.90915
1.90243
1.89438
1.88512
1.88149
1.88261
1.88873
1.9021
1.91898
1.93903
1.95355
1.95455
1.95264
1.95045
1.94833
1.94699
1.94339
1.93918
1.9336
1.92544
1.91889
1.91556
1.91342
1.9118
1.90907
1.90564
1.90029
1.89335
1.8877
1.88467
1.88511
1.88781
1.89487
1.90885
1.92683
1.94401
1.95686
1.96224
1.96517
1.96352
1.9602
1.95527
2.36858
2.3377
2.31445
2.29609
2.27331
2.25064
2.23172
2.20853
2.18703
2.17217
2.1522
2.12166
2.0949
2.0807
2.06959
2.0484
2.01714
1.98402
1.96913
1.976
2.01375
2.0836
2.13488
2.14368
2.14449
2.13478
2.118
2.1001
2.08253
2.06528
2.05505
2.04732
2.03934
2.03102
2.02146
2.00915
1.99613
1.98678
1.98028
1.97497
1.96952
1.96273
1.95386
1.94365
1.93852
1.93494
1.93067
1.92745
1.92334
1.91577
1.90658
1.89851
1.89296
1.88886
1.88421
1.87923
1.87423
1.86923
1.86888
1.87341
1.88703
1.90574
1.92358
1.94108
1.94593
1.94577
1.94158
1.93405
1.93018
1.92752
1.92505
1.92205
1.91849
1.91324
1.90614
1.90186
1.89957
1.8984
1.89698
1.8948
1.89154
1.88603
1.87985
1.87453
1.87132
1.87142
1.87328
1.87823
1.8896
1.90717
1.92607
1.93639
1.94333
1.9489
1.94888
1.94471
2.35641
2.32744
2.31145
2.29876
2.27926
2.25591
2.24039
2.22265
2.19864
2.17998
2.16253
2.13596
2.1097
2.09288
2.0794
2.0608
2.03201
2.0038
1.97688
1.96173
1.9672
1.99147
2.04512
2.0867
2.10455
2.11497
2.10676
2.08992
2.06986
2.0508
2.03635
2.02644
2.01792
2.00944
2.00006
1.9888
1.97592
1.96539
1.95824
1.95275
1.9477
1.94158
1.93339
1.92441
1.91755
1.9125
1.90876
1.90626
1.90239
1.89612
1.88765
1.87657
1.86364
1.85718
1.85608
1.85782
1.85849
1.86174
1.86867
1.88136
1.89873
1.91124
1.92285
1.93325
1.93488
1.93363
1.92823
1.91995
1.91491
1.91276
1.91117
1.9093
1.90673
1.90354
1.89849
1.89334
1.89109
1.89012
1.88918
1.88759
1.88541
1.88203
1.87683
1.87142
1.86657
1.86399
1.86338
1.86311
1.86629
1.87612
1.89267
1.91004
1.92197
1.93158
1.93672
1.93605
2.35068
2.32205
2.31109
2.30097
2.28132
2.25627
2.2414
2.228
2.20533
2.18312
2.1669
2.14467
2.11976
2.10105
2.08436
2.06659
2.04206
2.01499
1.99218
1.96626
1.95215
1.95429
1.96615
2.00504
2.0479
2.0729
2.08075
2.0773
2.06389
2.04572
2.02733
2.01383
2.00408
1.99494
1.98581
1.97564
1.9643
1.95555
1.94843
1.9406
1.93236
1.92543
1.91979
1.91353
1.90684
1.89784
1.88894
1.88433
1.88016
1.87612
1.87156
1.86308
1.8512
1.84514
1.8453
1.84656
1.85318
1.86599
1.88198
1.90226
1.91228
1.91684
1.92185
1.92545
1.92557
1.92319
1.91888
1.91351
1.90749
1.9034
1.90204
1.90221
1.90181
1.89881
1.89542
1.89193
1.88839
1.88583
1.8843
1.88379
1.88249
1.88033
1.87739
1.87305
1.86754
1.86231
1.85868
1.85779
1.85813
1.86086
1.86823
1.88341
1.89991
1.91376
1.9255
1.92934
2.36387
2.33413
2.31989
2.30683
2.28559
2.26057
2.24522
2.23241
2.2112
2.18535
2.16785
2.15071
2.12739
2.10737
2.08863
2.071
2.05074
2.02537
2.00448
1.98159
1.95685
1.94361
1.93924
1.94722
1.97847
2.0204
2.04555
2.05645
2.05611
2.04793
2.03194
2.01552
2.00249
1.99103
1.98036
1.97033
1.96117
1.95185
1.94148
1.93089
1.92216
1.91649
1.91059
1.9049
1.89888
1.89109
1.88335
1.87601
1.86902
1.86328
1.85883
1.8552
1.85113
1.84657
1.84625
1.85179
1.86678
1.88468
1.90469
1.92096
1.92449
1.92536
1.92372
1.92203
1.92089
1.91869
1.91723
1.9151
1.91062
1.90505
1.90126
1.89991
1.89993
1.90118
1.90011
1.89768
1.89368
1.88945
1.88809
1.88767
1.88724
1.88562
1.88339
1.8794
1.87289
1.86794
1.8645
1.86203
1.86076
1.86083
1.86222
1.86761
1.87925
1.89478
1.91093
1.9237
2.42269
2.38559
2.35898
2.33577
2.30741
2.28022
2.26336
2.24875
2.22638
2.199
2.18027
2.16334
2.14109
2.11957
2.1012
2.07984
2.06103
2.03964
2.0189
2.0008
1.97714
1.95298
1.93543
1.93564
1.94139
1.96754
2.00715
2.03472
2.05282
2.05325
2.04589
2.03109
2.0137
1.99798
1.98603
1.97716
1.96915
1.95947
1.94796
1.93621
1.92703
1.91962
1.91258
1.90701
1.90085
1.89341
1.8848
1.87511
1.86609
1.86062
1.85737
1.8562
1.85542
1.85637
1.86182
1.87719
1.89625
1.91186
1.92813
1.93853
1.93989
1.93774
1.93042
1.92338
1.92115
1.91967
1.9199
1.9205
1.91925
1.91554
1.91021
1.90718
1.90649
1.90658
1.90775
1.90731
1.90555
1.90222
1.89745
1.89435
1.89291
1.89185
1.89053
1.88844
1.88537
1.88124
1.87639
1.87188
1.86821
1.86578
1.86501
1.86632
1.87041
1.88057
1.89474
1.9169
2.51423
2.46971
2.4322
2.40009
2.36353
2.32986
2.30575
2.28611
2.26088
2.23134
2.20908
2.1957
2.1769
2.15201
2.1317
2.11279
2.09236
2.07682
2.05807
2.04127
2.02347
1.9988
1.97791
1.9648
1.95484
1.95858
1.97908
2.01067
2.04439
2.06302
2.06097
2.04969
2.03556
2.02064
2.00614
1.99301
1.98146
1.97121
1.96072
1.94905
1.93859
1.92974
1.92282
1.91704
1.90996
1.90123
1.89116
1.87963
1.86918
1.86511
1.86399
1.86707
1.87273
1.88239
1.89934
1.91936
1.93135
1.94179
1.95325
1.95839
1.95703
1.95151
1.94296
1.93484
1.93163
1.93109
1.93159
1.93318
1.93331
1.93201
1.92884
1.92418
1.92127
1.92049
1.92046
1.92086
1.9201
1.91824
1.91457
1.9103
1.90739
1.90531
1.9034
1.90159
1.89984
1.89728
1.89374
1.88945
1.88515
1.88072
1.87724
1.87495
1.87585
1.87908
1.8864
1.90948
2.58317
2.54748
2.51255
2.4757
2.43657
2.40182
2.374
2.3511
2.32249
2.28931
2.26313
2.24526
2.22651
2.20168
2.17676
2.15754
2.13828
2.11958
2.10254
2.08346
2.06525
2.04754
2.02657
2.00596
1.99011
1.97902
1.98151
1.9948
2.02341
2.06244
2.07707
2.07279
2.06539
2.05298
2.03755
2.02255
2.00952
1.99725
1.98435
1.97098
1.95871
1.94831
1.94047
1.93329
1.92474
1.91448
1.90324
1.89121
1.88401
1.88173
1.88349
1.89062
1.90533
1.92526
1.94698
1.96253
1.96802
1.97191
1.97177
1.97046
1.96782
1.96508
1.96225
1.95785
1.95338
1.95166
1.95117
1.95112
1.95175
1.95178
1.95087
1.94835
1.94443
1.94226
1.94149
1.94101
1.94016
1.9386
1.93615
1.93247
1.92873
1.92601
1.92384
1.9218
1.91977
1.91757
1.91482
1.91119
1.90702
1.90266
1.89848
1.89462
1.89205
1.89127
1.89245
1.90685
2.61716
2.59525
2.56913
2.53842
2.50597
2.47588
2.44897
2.42127
2.3879
2.35475
2.32846
2.30929
2.28933
2.26384
2.23544
2.21428
2.19526
2.1752
2.15645
2.13618
2.11546
2.09641
2.07715
2.05744
2.03919
2.02131
2.00563
2.00255
2.01068
2.03846
2.07221
2.08677
2.08898
2.08273
2.06902
2.05223
2.03745
2.02322
2.00881
1.99517
1.9831
1.97223
1.96151
1.95017
1.93872
1.92782
1.91805
1.91211
1.90893
1.90988
1.91494
1.92957
1.95235
1.9731
1.99266
2.00088
2.00046
1.99577
1.98884
1.98613
1.98475
1.98429
1.98453
1.98319
1.98059
1.97704
1.97512
1.97448
1.97452
1.97521
1.97505
1.97382
1.97109
1.96815
1.96688
1.96594
1.96482
1.96327
1.96096
1.95755
1.95355
1.95046
1.9483
1.94635
1.94424
1.94177
1.93867
1.93482
1.93083
1.92704
1.92335
1.91936
1.91563
1.91167
1.90915
1.91334
2.6266
2.60977
2.59016
2.5685
2.54594
2.52265
2.499
2.47194
2.44152
2.41249
2.38849
2.36969
2.34651
2.31752
2.28837
2.26701
2.24854
2.2279
2.20663
2.18383
2.16044
2.13961
2.12134
2.10305
2.08336
2.06316
2.04215
2.02338
2.01449
2.02014
2.04369
2.07007
2.09197
2.1005
2.09357
2.07728
2.05973
2.04369
2.02922
2.01669
2.00558
1.99406
1.97989
1.96275
1.94827
1.94016
1.93581
1.93585
1.93871
1.94285
1.95729
1.98181
1.99876
2.01272
2.02416
2.026
2.02392
2.01851
2.0101
2.0045
2.00312
2.00321
2.00466
2.00469
2.00359
2.00126
1.99816
1.997
1.99671
1.99702
1.99726
1.99654
1.9949
1.9924
1.99046
1.98928
1.98796
1.98623
1.98395
1.98103
1.97756
1.97421
1.97153
1.96928
1.96698
1.96425
1.96079
1.95674
1.95284
1.94928
1.94587
1.94201
1.93801
1.93287
1.92799
1.92549
2.62169
2.60818
2.59362
2.57774
2.56045
2.54148
2.52065
2.49707
2.47229
2.44955
2.43055
2.41012
2.38353
2.35459
2.32908
2.30924
2.29076
2.26906
2.24515
2.21974
2.19564
2.17463
2.15607
2.1377
2.11814
2.09538
2.07153
2.04847
2.03032
2.02017
2.02175
2.0369
2.06265
2.09496
2.10114
2.09089
2.0742
2.05868
2.04456
2.03174
2.01949
2.00614
1.9901
1.97058
1.95816
1.95299
1.95378
1.95933
1.96761
1.98614
2.01364
2.02711
2.03186
2.03689
2.03972
2.03908
2.0365
2.03244
2.0263
2.02138
2.02
2.02049
2.02152
2.02138
2.02054
2.01893
2.01667
2.01544
2.01523
2.01532
2.01569
2.01539
2.01402
2.01182
2.00934
2.00743
2.00587
2.00412
2.00201
1.99955
1.99673
1.99372
1.99071
1.98782
1.98486
1.98154
1.97762
1.97354
1.96979
1.96667
1.96363
1.9603
1.95622
1.95098
1.94517
1.93769
2.61665
2.60411
2.59102
2.57669
2.56124
2.54496
2.52675
2.50697
2.48744
2.46951
2.4515
2.42794
2.40045
2.37421
2.35401
2.3369
2.31695
2.29306
2.26624
2.24155
2.21954
2.1989
2.17944
2.16024
2.13931
2.11546
2.09023
2.06756
2.04744
2.03014
2.0192
2.01481
2.02318
2.05206
2.08359
2.08698
2.08086
2.06735
2.05242
2.03819
2.02426
2.00966
1.99379
1.97789
1.96976
1.96832
1.97002
1.98237
2.00715
2.03309
2.05049
2.05357
2.05187
2.04935
2.04593
2.04301
2.0403
2.03848
2.03762
2.03645
2.03453
2.03266
2.03158
2.03082
2.03047
2.03052
2.03055
2.0304
2.02976
2.02904
2.02858
2.02787
2.02664
2.02523
2.02369
2.02195
2.02023
2.01844
2.01633
2.01399
2.01155
2.00893
2.00591
2.00234
1.99836
1.99428
1.99023
1.98645
1.98302
1.97985
1.97649
1.9725
1.96744
1.96174
1.95551
1.94709
2.6164
2.60288
2.5894
2.57517
2.56005
2.54368
2.52602
2.50803
2.49052
2.47368
2.4545
2.43109
2.407
2.386
2.36777
2.34958
2.3276
2.30195
2.27618
2.25454
2.2343
2.21445
2.19441
2.17283
2.14925
2.12544
2.10251
2.08119
2.0611
2.04166
2.02375
2.00905
1.99904
2.00658
2.03391
2.06021
2.07371
2.06947
2.05526
2.0392
2.02337
2.00818
1.99428
1.98538
1.98113
1.98316
1.99637
2.02111
2.04138
2.05832
2.06607
2.06519
2.06138
2.0547
2.04665
2.0424
2.04105
2.04146
2.04335
2.04343
2.04221
2.03889
2.03602
2.03554
2.03598
2.03775
2.03893
2.03895
2.03778
2.03535
2.03393
2.03354
2.03361
2.0339
2.03322
2.03186
2.02974
2.02734
2.0251
2.02282
2.02037
2.01765
2.01429
2.01003
2.00541
2.00145
1.998
1.99468
1.99122
1.98739
1.98262
1.97688
1.97072
1.96542
1.96119
1.95431
2.62193
2.60708
2.59266
2.57763
2.56186
2.54514
2.52782
2.51059
2.49352
2.47572
2.45489
2.43243
2.41142
2.39296
2.37556
2.35494
2.33082
2.30423
2.28235
2.26377
2.24514
2.22557
2.2039
2.17891
2.15338
2.13113
2.11127
2.09189
2.07241
2.05255
2.03154
2.00915
1.99088
1.98331
1.99088
2.01266
2.03989
2.05738
2.0508
2.03734
2.02123
2.00649
1.99695
1.99455
2.00052
2.01488
2.039
2.05408
2.06191
2.06879
2.07031
2.06736
2.06248
2.05524
2.04601
2.04137
2.04062
2.04179
2.04416
2.04439
2.04351
2.04025
2.03782
2.03798
2.03928
2.04159
2.04244
2.04224
2.04038
2.03788
2.03722
2.03716
2.03792
2.03856
2.03779
2.03603
2.03314
2.03017
2.028
2.02591
2.0235
2.02061
2.01692
2.01246
2.0082
2.00473
2.00162
1.99842
1.9948
1.99031
1.98429
1.97755
1.97193
1.968
1.96528
1.95924
2.6304
2.61542
2.60041
2.58467
2.56838
2.5516
2.53452
2.51719
2.49912
2.47936
2.45803
2.4372
2.41828
2.40165
2.38245
2.35908
2.33283
2.30882
2.28934
2.27175
2.25293
2.23223
2.20881
2.18289
2.1581
2.13703
2.11864
2.1013
2.0833
2.0623
2.03731
2.01169
1.99046
1.97525
1.97003
1.9752
1.98998
2.01639
2.03189
2.0278
2.01741
2.00944
2.00589
2.01544
2.03191
2.05499
2.07113
2.07357
2.07395
2.07113
2.06763
2.06303
2.05832
2.05292
2.04639
2.04245
2.04174
2.04281
2.04377
2.04377
2.0431
2.04135
2.04014
2.04043
2.04194
2.04352
2.04393
2.04352
2.04204
2.04064
2.04011
2.03998
2.04047
2.04026
2.03913
2.0368
2.03363
2.03087
2.02875
2.02675
2.02442
2.0215
2.018
2.01422
2.01054
2.00715
2.00385
2.0004
1.99642
1.99149
1.98554
1.97938
1.97401
1.97023
1.96782
1.96262
2.63815
2.62384
2.60897
2.59321
2.57692
2.56021
2.54304
2.52516
2.50612
2.48581
2.46515
2.44521
2.42716
2.40964
2.38752
2.36268
2.33799
2.31711
2.29768
2.27843
2.25805
2.23571
2.21127
2.1868
2.16453
2.14467
2.12587
2.10708
2.08673
2.06383
2.03935
2.01576
1.99475
1.97721
1.96289
1.95302
1.95075
1.96295
1.98837
2.00518
2.00982
2.01467
2.02691
2.04771
2.06528
2.08285
2.08891
2.08709
2.08022
2.07095
2.06254
2.05671
2.05263
2.0497
2.04711
2.04517
2.04304
2.04174
2.04162
2.04185
2.04232
2.04256
2.04263
2.04305
2.04356
2.04404
2.04426
2.04408
2.04377
2.04336
2.04289
2.04231
2.04168
2.04071
2.03905
2.03691
2.03464
2.03234
2.03001
2.02767
2.02515
2.02225
2.01908
2.01583
2.01257
2.00926
2.00572
2.00171
1.99702
1.99202
1.98705
1.98241
1.97841
1.97403
1.96992
1.9633
2.64223
2.62839
2.61411
2.5989
2.58295
2.56632
2.54901
2.53086
2.51184
2.49213
2.47224
2.45263
2.43369
2.41256
2.38861
2.36533
2.34443
2.32501
2.30475
2.28308
2.26009
2.23644
2.21324
2.19131
2.17123
2.15175
2.13154
2.1093
2.08585
2.06313
2.04131
2.02084
2.00163
1.98291
1.96365
1.94342
1.92671
1.92659
1.94095
1.97015
2.00184
2.03148
2.06207
2.0805
2.08946
2.09583
2.0959
2.08943
2.08075
2.07056
2.05894
2.05246
2.04973
2.04871
2.0487
2.04741
2.04461
2.04109
2.04013
2.0405
2.04204
2.04388
2.04487
2.04518
2.04453
2.04393
2.04419
2.04482
2.04539
2.04575
2.0455
2.04421
2.04211
2.04028
2.03863
2.0371
2.03563
2.0339
2.03159
2.02872
2.02576
2.0229
2.02004
2.01721
2.01431
2.01106
2.00709
2.00224
1.99721
1.99257
1.98888
1.9859
1.98259
1.97826
1.97338
1.96412
2.64259
2.62956
2.61617
2.60168
2.58608
2.56945
2.55196
2.53377
2.5151
2.49612
2.4769
2.45727
2.4361
2.41308
2.38997
2.3689
2.35027
2.33083
2.3086
2.28523
2.26008
2.23587
2.21462
2.1952
2.1762
2.15648
2.13446
2.10917
2.08295
2.06059
2.04268
2.02654
2.00966
1.99034
1.96613
1.93756
1.91414
1.90651
1.91209
1.93802
1.99034
2.04902
2.08872
2.10544
2.11291
2.10795
2.10066
2.08974
2.08016
2.06993
2.05732
2.05095
2.04863
2.04776
2.04726
2.04594
2.04389
2.0405
2.0394
2.03987
2.0419
2.04465
2.04558
2.04581
2.04472
2.04405
2.04444
2.0455
2.04696
2.04718
2.04659
2.04455
2.04181
2.04004
2.03873
2.03748
2.03614
2.03448
2.03202
2.02877
2.02592
2.02363
2.02142
2.01898
2.0161
2.01238
2.00724
2.00127
1.99689
1.99408
1.99147
1.98839
1.98458
1.9794
1.97359
1.96313
)
;

boundaryField
{
    inlet
    {
        type            fixedValue;
        value           uniform 1;
    }
    outlet
    {
        type            inletOutlet;
        inletValue      uniform 1;
        value           nonuniform List<scalar> 
32
(
2.48262
2.47655
2.45104
2.38635
2.30361
2.22231
2.15443
2.1055
2.07181
2.04778
2.02861
2.01059
1.99175
1.97196
1.95512
1.94445
1.93585
1.92923
1.92381
1.91694
1.90948
1.90683
1.91318
1.92528
1.93743
1.94707
1.95459
1.95963
1.96309
1.96355
1.96382
1.9626
)
;
    }
    bottom
    {
        type            symmetryPlane;
    }
    top
    {
        type            symmetryPlane;
    }
    obstacle
    {
        type            zeroGradient;
    }
    defaultFaces
    {
        type            empty;
    }
}


// ************************************************************************* //
