/*--------------------------------*- C++ -*----------------------------------*\
  =========                 |
  \\      /  F ield         | OpenFOAM: The Open Source CFD Toolbox
   \\    /   O peration     | Website:  https://openfoam.org
    \\  /    A nd           | Version:  7
     \\/     M anipulation  |
\*---------------------------------------------------------------------------*/
FoamFile
{
    version     2.0;
    format      ascii;
    class       volVectorField;
    location    "12";
    object      U;
}
// * * * * * * * * * * * * * * * * * * * * * * * * * * * * * * * * * * * * * //

dimensions      [0 1 -1 0 0 0 0];

internalField   nonuniform List<vector> 
4032
(
(3 -8.52446e-18 0)
(3 -4.53097e-17 0)
(3 5.36066e-17 0)
(3 -7.20243e-17 0)
(3 -3.31127e-16 0)
(3 -6.28393e-16 0)
(3 -7.26371e-16 0)
(3 -1.927e-16 0)
(3 6.0357e-16 0)
(3 1.19858e-15 0)
(3 9.82678e-16 0)
(2.89978 0.00321948 0)
(0.988003 0.0160919 0)
(0.709543 0.0193411 0)
(0.657859 0.0241208 0)
(0.598078 0.0255706 0)
(0.539153 0.0267756 0)
(0.478386 0.0281055 0)
(0.415854 0.0296108 0)
(0.35091 0.0314157 0)
(0.283033 0.0334165 0)
(0.21064 0.0364557 0)
(0.131996 0.0391001 0)
(0.0494327 0.0445639 0)
(3 -4.87404e-17 0)
(3 -3.49288e-16 0)
(3 4.49569e-17 0)
(3 9.00204e-18 0)
(3 -3.60753e-16 0)
(3 -1.24733e-15 0)
(3 -1.48975e-15 0)
(3 -5.84348e-16 0)
(3 1.40624e-15 0)
(3 2.09491e-15 0)
(3 1.20069e-15 0)
(2.9099 0.0203437 0)
(0.994084 0.0744159 0)
(0.695541 0.0666486 0)
(0.64154 0.0707783 0)
(0.58285 0.0752835 0)
(0.524139 0.0796697 0)
(0.463105 0.0843149 0)
(0.400041 0.0891006 0)
(0.334828 0.0946625 0)
(0.267496 0.100628 0)
(0.197435 0.110266 0)
(0.122229 0.118893 0)
(0.0459787 0.134618 0)
(3 -2.87936e-16 0)
(3 -2.73486e-16 0)
(3 -2.30579e-16 0)
(3 -1.0219e-16 0)
(3 -4.49103e-16 0)
(3 -1.31915e-15 0)
(3 -1.26175e-15 0)
(3 -4.3021e-16 0)
(3 2.3074e-16 0)
(3 6.73725e-16 0)
(3 5.48989e-17 0)
(2.95406 0.0405271 0)
(1.03173 0.13786 0)
(0.710974 0.115748 0)
(0.656575 0.122287 0)
(0.595844 0.129727 0)
(0.534982 0.137288 0)
(0.47179 0.145348 0)
(0.406151 0.153344 0)
(0.337847 0.162076 0)
(0.266935 0.170192 0)
(0.194394 0.183624 0)
(0.117689 0.195153 0)
(0.0438139 0.217505 0)
(3 -1.94162e-16 0)
(3 -2.2152e-16 0)
(3 -4.55196e-16 0)
(3 -6.56215e-16 0)
(3 -3.71084e-16 0)
(3 -2.1568e-16 0)
(3 -2.50885e-16 0)
(3 -5.05165e-16 0)
(3 -5.54538e-16 0)
(3 -7.20497e-16 0)
(3 -3.40307e-16 0)
(3.00843 0.00639228 0)
(1.1072 0.182307 0)
(0.743725 0.152603 0)
(0.692248 0.166527 0)
(0.632782 0.178504 0)
(0.571742 0.190052 0)
(0.50796 0.202827 0)
(0.440385 0.216132 0)
(0.368205 0.231192 0)
(0.290786 0.244412 0)
(0.211136 0.262879 0)
(0.126823 0.277041 0)
(0.0459129 0.302498 0)
(3 2.43077e-16 0)
(3 -4.44748e-17 0)
(3 -4.36403e-17 0)
(3 -4.8644e-16 0)
(3 -3.37766e-16 0)
(3 -2.0672e-16 0)
(3 -3.23732e-16 0)
(3 -5.21929e-16 0)
(3 -1.40963e-15 0)
(3 -1.43474e-15 0)
(3 -6.43393e-16 0)
(3.0006 3.10966e-05 0)
(1.21582 0.224521 0)
(0.750248 0.197034 0)
(0.695761 0.217715 0)
(0.639724 0.234211 0)
(0.581372 0.249212 0)
(0.521095 0.266751 0)
(0.457246 0.285638 0)
(0.389367 0.307354 0)
(0.314724 0.325433 0)
(0.235701 0.348571 0)
(0.14561 0.367766 0)
(0.0550124 0.399409 0)
(3 3.6357e-17 0)
(3 4.38302e-17 0)
(3 1.38621e-17 0)
(3 -1.40076e-16 0)
(3 -6.20528e-16 0)
(3 -7.25098e-16 0)
(3 -9.3354e-16 0)
(3 -1.19043e-15 0)
(3 -1.5615e-15 0)
(3 -1.62143e-15 0)
(3 -1.64514e-15 0)
(3 -1.22849e-07 0)
(1.39562 0.2747 0)
(0.765654 0.24535 0)
(0.69704 0.26189 0)
(0.648069 0.2811 0)
(0.597904 0.298809 0)
(0.547499 0.320281 0)
(0.492173 0.344589 0)
(0.430448 0.375081 0)
(0.355216 0.405411 0)
(0.268324 0.443142 0)
(0.166201 0.478291 0)
(0.0561604 0.517206 0)
(3 2.13577e-17 0)
(3 3.12139e-16 0)
(3 4.8601e-17 0)
(3 4.6797e-18 0)
(3 -6.08097e-17 0)
(3 -9.78472e-17 0)
(3 -3.96762e-16 0)
(3 -1.10913e-15 0)
(3 -2.38673e-16 0)
(3 -1.82805e-16 0)
(3 -3.918e-16 0)
(3 -1.19605e-07 0)
(1.66974 0.325902 0)
(0.796054 0.309277 0)
(0.696727 0.308637 0)
(0.645955 0.325226 0)
(0.597949 0.343541 0)
(0.554636 0.369811 0)
(0.508368 0.402293 0)
(0.45915 0.444938 0)
(0.397872 0.492025 0)
(0.326577 0.543653 0)
(0.233343 0.594526 0)
(0.101407 0.660165 0)
(3 1.89869e-16 0)
(3 -1.93887e-18 0)
(3 -3.13622e-16 0)
(3 -2.3649e-16 0)
(3 -2.65883e-18 0)
(3 -3.48456e-16 0)
(3 -1.10929e-16 0)
(3 1.66024e-16 0)
(3 4.26252e-16 0)
(3 5.26234e-16 0)
(3 6.96802e-16 0)
(3 -2.4794e-08 0)
(2.07289 0.367379 0)
(0.852375 0.394425 0)
(0.716939 0.370053 0)
(0.667215 0.379068 0)
(0.620229 0.392311 0)
(0.579539 0.416667 0)
(0.54052 0.452232 0)
(0.502092 0.501214 0)
(0.457755 0.560565 0)
(0.395555 0.64152 0)
(0.275194 0.757416 0)
(0.151409 0.924144 0)
(3 -1.23854e-16 0)
(3 -1.99739e-16 0)
(3 -2.59836e-16 0)
(3 -2.65154e-16 0)
(3 -3.63437e-16 0)
(3 -4.53137e-16 0)
(3 -1.85969e-16 0)
(3 2.51479e-16 0)
(3 -4.06175e-17 0)
(3 -7.31674e-16 0)
(3 -8.2804e-16 0)
(3 -2.54684e-09 0)
(2.65679 0.302698 0)
(0.984617 0.477847 0)
(0.803499 0.406362 0)
(0.751678 0.414981 0)
(0.693986 0.433413 0)
(0.642575 0.459492 0)
(0.599882 0.496722 0)
(0.5637 0.550059 0)
(0.529873 0.626886 0)
(0.496871 0.751043 0)
(0.465268 0.923104 0)
(0.578217 1.20242 0)
(3 -6.44142e-17 0)
(3 2.89434e-16 0)
(3 4.4216e-16 0)
(3 6.38514e-16 0)
(3 2.02859e-16 0)
(3 5.48463e-16 0)
(3 8.7117e-16 0)
(3 6.59331e-16 0)
(3 -2.37531e-16 0)
(3 -4.37957e-16 0)
(3 -4.45977e-16 0)
(3 -1.01384e-10 0)
(3.07665 0.0425783 0)
(1.21932 0.469511 0)
(0.882272 0.447486 0)
(0.838718 0.474187 0)
(0.785125 0.489924 0)
(0.730781 0.511223 0)
(0.68259 0.544819 0)
(0.643804 0.597047 0)
(0.624409 0.681674 0)
(0.623331 0.81664 0)
(0.686347 0.965812 0)
(0.96971 1.13879 0)
(3 2.30773e-16 0)
(3 -2.5763e-17 0)
(3 5.10332e-17 0)
(3 1.1686e-16 0)
(3 6.48516e-16 0)
(3 1.43342e-15 0)
(3 1.60256e-15 0)
(3 1.11764e-15 0)
(3 1.209e-15 0)
(3 1.5247e-15 0)
(3 1.34986e-15 0)
(3 -2.10103e-12 0)
(3.0086 8.07684e-05 0)
(1.43647 0.462119 0)
(0.884219 0.512116 0)
(0.836645 0.531645 0)
(0.800978 0.551096 0)
(0.77247 0.575544 0)
(0.745032 0.607631 0)
(0.720489 0.651656 0)
(0.723301 0.725569 0)
(0.751024 0.840171 0)
(0.872717 0.963524 0)
(1.18098 1.06916 0)
(3 3.91001e-17 0)
(3 -1.92349e-16 0)
(3 -1.2879e-16 0)
(3 -3.89323e-16 0)
(3 6.1339e-16 0)
(3 8.86362e-16 0)
(3 8.50706e-16 0)
(3 8.31073e-16 0)
(3 1.06124e-15 0)
(3 7.77305e-16 0)
(3 9.08089e-16 0)
(3 -1.72345e-14 0)
(3.00006 -2.49027e-06 0)
(1.94365 0.494115 0)
(0.929169 0.576589 0)
(0.853477 0.560381 0)
(0.834068 0.582197 0)
(0.81964 0.607669 0)
(0.809584 0.642244 0)
(0.801885 0.682679 0)
(0.817582 0.746105 0)
(0.866953 0.837531 0)
(1.01022 0.939998 0)
(1.27605 1.00661 0)
(3 -5.2298e-16 0)
(3 -2.59283e-16 0)
(3 -6.31987e-17 0)
(3 7.67422e-16 0)
(3 7.11881e-16 0)
(3 5.66105e-16 0)
(3 2.69682e-16 0)
(3 6.33654e-16 0)
(3 7.10514e-16 0)
(3 5.14413e-16 0)
(3 6.93609e-16 0)
(3 1.15073e-15 0)
(3.00001 -3.16801e-06 0)
(2.74795 0.319061 0)
(1.09656 0.63497 0)
(0.920607 0.580731 0)
(0.891528 0.601863 0)
(0.873881 0.630778 0)
(0.870103 0.668953 0)
(0.876477 0.710932 0)
(0.90146 0.76549 0)
(0.966357 0.834714 0)
(1.10543 0.90678 0)
(1.31899 0.947513 0)
(3 1.73354e-16 0)
(3 5.68889e-16 0)
(3 6.44224e-16 0)
(3 5.29243e-16 0)
(3 5.57859e-16 0)
(3 9.33448e-16 0)
(3 9.59545e-16 0)
(3 1.13941e-15 0)
(3 1.0205e-15 0)
(3 8.79132e-16 0)
(3 6.62337e-16 0)
(3 9.17764e-16 0)
(3 -6.68867e-07 0)
(3.07449 0.0259684 0)
(1.43617 0.631685 0)
(1.00204 0.652353 0)
(0.950536 0.652333 0)
(0.924908 0.666831 0)
(0.923163 0.694217 0)
(0.939422 0.730349 0)
(0.974415 0.773676 0)
(1.0477 0.827577 0)
(1.17498 0.879436 0)
(1.34811 0.905725 0)
(3 2.89729e-16 0)
(3 5.71301e-16 0)
(3 3.46238e-16 0)
(3 -2.58081e-16 0)
(3 -6.27157e-17 0)
(3 2.77879e-16 0)
(3 3.84472e-16 0)
(3 2.59319e-16 0)
(3 4.14782e-17 0)
(3 4.54509e-18 0)
(3 -1.80741e-16 0)
(3 -2.24454e-16 0)
(3 -6.79293e-08 0)
(3.00412 7.27273e-05 0)
(1.99035 0.599824 0)
(1.0637 0.724332 0)
(1.01103 0.701887 0)
(0.994871 0.699088 0)
(0.991251 0.715303 0)
(1.00607 0.74191 0)
(1.04426 0.77779 0)
(1.1151 0.816484 0)
(1.22208 0.849649 0)
(1.36189 0.865592 0)
(3 -4.8772e-17 0)
(3 -2.82551e-16 0)
(3 -2.65008e-16 0)
(3 -3.60588e-16 0)
(3 -5.06821e-16 0)
(3 -4.27407e-16 0)
(3 -3.09004e-16 0)
(3 -7.44713e-16 0)
(3 -7.16096e-16 0)
(3 -9.35673e-16 0)
(3 -1.15382e-15 0)
(3 -1.03893e-15 0)
(3 -2.15159e-09 0)
(3.00001 -3.26797e-07 0)
(2.93371 0.221287 0)
(1.28209 0.697929 0)
(1.08265 0.719126 0)
(1.08714 0.720541 0)
(1.08159 0.740726 0)
(1.08679 0.762226 0)
(1.11473 0.788306 0)
(1.17572 0.817525 0)
(1.26424 0.839458 0)
(1.37855 0.84901 0)
(3 -9.42962e-17 0)
(3 -2.72246e-16 0)
(3 -2.62655e-16 0)
(3 2.43165e-16 0)
(3 -1.39522e-17 0)
(3 -8.39341e-16 0)
(3 -5.43732e-16 0)
(3 -5.58084e-16 0)
(3 -3.86731e-16 0)
(3 -2.03626e-16 0)
(3 -4.81133e-16 0)
(3 -7.15609e-16 0)
(3 -4.76872e-12 0)
(3 -7.80448e-07 0)
(3.04113 0.00639682 0)
(1.57291 0.659721 0)
(1.1002 0.756565 0)
(1.11125 0.765442 0)
(1.11705 0.783361 0)
(1.13974 0.795367 0)
(1.17378 0.806265 0)
(1.22819 0.817875 0)
(1.30316 0.828521 0)
(1.39823 0.832449 0)
(3 -1.78662e-16 0)
(3 -4.13085e-17 0)
(3 3.51578e-16 0)
(3 3.71139e-16 0)
(3 -3.57468e-16 0)
(3 -9.82227e-16 0)
(3 -1.73138e-15 0)
(3 -1.36587e-15 0)
(3 -6.25154e-16 0)
(3 -2.66438e-17 0)
(3 3.76725e-17 0)
(3 -1.73955e-16 0)
(3 -6.70746e-15 0)
(3 -1.49464e-07 0)
(3.00079 3.55117e-05 0)
(2.39 0.510583 0)
(1.2059 0.789079 0)
(1.13549 0.791898 0)
(1.1488 0.795563 0)
(1.17703 0.805461 0)
(1.21713 0.817086 0)
(1.27002 0.827919 0)
(1.33914 0.835424 0)
(1.41953 0.835867 0)
(3 -1.92871e-17 0)
(3 1.28815e-16 0)
(3 2.85157e-16 0)
(3 1.39446e-16 0)
(3 -4.74022e-16 0)
(3 -5.55736e-16 0)
(3 -8.6707e-16 0)
(3 -8.41892e-16 0)
(3 -7.30193e-16 0)
(3 -6.89048e-16 0)
(3 -1.04205e-16 0)
(3 -2.52083e-16 0)
(3 8.37996e-16 0)
(3 -4.67788e-09 0)
(3.00002 -5.64879e-06 0)
(3.05783 0.0722814 0)
(1.56693 0.776525 0)
(1.18507 0.786145 0)
(1.19851 0.794042 0)
(1.22158 0.806542 0)
(1.2594 0.818316 0)
(1.30956 0.828202 0)
(1.37388 0.834325 0)
(1.44326 0.834644 0)
(3 1.73276e-16 0)
(3 -1.17718e-16 0)
(3 -1.59373e-16 0)
(3 -1.24942e-16 0)
(3 1.41324e-16 0)
(3 3.21055e-16 0)
(3 8.7892e-16 0)
(3 7.48844e-16 0)
(3 6.59077e-16 0)
(3 2.61983e-16 0)
(3 -5.09856e-17 0)
(3 5.9797e-16 0)
(3 1.99941e-15 0)
(3 -1.69318e-11 0)
(3 -1.41575e-06 0)
(3.00815 0.00137474 0)
(2.29468 0.63116 0)
(1.26357 0.848362 0)
(1.22299 0.833491 0)
(1.25662 0.833568 0)
(1.29151 0.838815 0)
(1.33983 0.844887 0)
(1.39811 0.849591 0)
(1.45771 0.842317 0)
(3 4.74375e-17 0)
(3 -8.34534e-17 0)
(3 -1.1154e-16 0)
(3 -1.83129e-16 0)
(3 3.77293e-18 0)
(3 4.65847e-16 0)
(3 1.17574e-15 0)
(3 2.10872e-15 0)
(3 1.9599e-15 0)
(3 1.28355e-15 0)
(3 9.56658e-16 0)
(3 1.07404e-15 0)
(3 1.71025e-15 0)
(3 -4.93357e-15 0)
(3 -1.19916e-07 0)
(3.00003 9.44402e-06 0)
(3.0393 0.117695 0)
(1.62715 0.82714 0)
(1.26866 0.830666 0)
(1.30507 0.833474 0)
(1.33324 0.839713 0)
(1.37655 0.846159 0)
(1.42512 0.842341 0)
(1.45773 0.824796 0)
(3 -1.4974e-16 0)
(3 -1.75197e-16 0)
(3 1.95992e-16 0)
(3 2.76421e-16 0)
(3 4.65925e-16 0)
(3 6.16178e-16 0)
(3 1.14824e-15 0)
(3 1.26381e-15 0)
(3 5.24771e-16 0)
(3 3.5739e-16 0)
(3 3.94334e-16 0)
(3 3.10484e-16 0)
(3 4.76663e-16 0)
(3 2.33991e-16 0)
(3 -1.43725e-09 0)
(3 -1.13169e-07 0)
(3.01061 0.00344377 0)
(2.36998 0.637053 0)
(1.35577 0.885687 0)
(1.32659 0.876127 0)
(1.36409 0.869842 0)
(1.39628 0.86699 0)
(1.4203 0.848769 0)
(1.42173 0.779059 0)
(3 -6.56581e-17 0)
(3 1.06438e-18 0)
(3 -1.71617e-16 0)
(3 1.19679e-16 0)
(3 3.04735e-16 0)
(3 7.05609e-16 0)
(3 6.62444e-16 0)
(3 2.75741e-16 0)
(3 1.69293e-16 0)
(3 1.19204e-16 0)
(3 -5.78529e-17 0)
(3 -1.16214e-17 0)
(3 1.42204e-16 0)
(3 5.10511e-16 0)
(3 -3.21055e-12 0)
(3 -2.76764e-08 0)
(3.00005 4.20388e-05 0)
(3.03177 0.105537 0)
(1.76116 0.836193 0)
(1.36373 0.880988 0)
(1.40623 0.882597 0)
(1.40958 0.859088 0)
(1.38013 0.783748 0)
(1.35649 0.67652 0)
(3 1.40712e-16 0)
(3 1.1793e-16 0)
(3 -2.11838e-16 0)
(3 -2.89071e-16 0)
(3 -1.52591e-16 0)
(3 8.01901e-18 0)
(3 -3.53953e-16 0)
(3 -5.49775e-16 0)
(3 5.22759e-17 0)
(3 3.56997e-16 0)
(3 -7.98399e-17 0)
(3 7.18417e-16 0)
(3 1.0476e-15 0)
(3 1.15028e-15 0)
(3 -8.29195e-16 0)
(3 -2.54527e-09 0)
(3 2.42286e-08 0)
(3.00615 0.00432616 0)
(2.6081 0.526674 0)
(1.5225 0.934333 0)
(1.42175 0.904147 0)
(1.36098 0.81537 0)
(1.30165 0.683333 0)
(1.31501 0.604305 0)
(3 6.69212e-17 0)
(3 9.03479e-17 0)
(3 3.88029e-16 0)
(3 1.85324e-16 0)
(3 -8.0643e-17 0)
(3 -1.19901e-16 0)
(3 -2.73889e-16 0)
(3 -5.59106e-16 0)
(3 -7.67389e-16 0)
(3 -6.98878e-16 0)
(3 -7.26645e-16 0)
(3 -3.3947e-16 0)
(3 -3.77468e-16 0)
(3 1.77754e-16 0)
(3 4.31625e-16 0)
(3 -9.79177e-11 0)
(3 -9.55242e-11 0)
(3.00002 4.63688e-05 0)
(3.0327 0.0527333 0)
(2.04322 0.805237 0)
(1.42779 0.907658 0)
(1.26191 0.709962 0)
(1.26287 0.618022 0)
(1.31902 0.563306 0)
(3 -6.66619e-17 0)
(3 -3.82956e-17 0)
(3 -2.46419e-16 0)
(3 -1.31165e-16 0)
(3 -2.21385e-16 0)
(3 4.75154e-17 0)
(3 -4.74295e-17 0)
(3 -5.60528e-17 0)
(3 -2.28298e-16 0)
(3 -3.25633e-16 0)
(3 -1.46321e-16 0)
(3 -6.73501e-16 0)
(3 -5.07885e-16 0)
(3 -4.4958e-16 0)
(3 -5.30729e-16 0)
(3 -8.33432e-13 0)
(3 -3.0009e-11 0)
(3 3.53597e-08 0)
(3.00159 0.0023557 0)
(2.87125 0.30999 0)
(1.48115 0.763752 0)
(1.19993 0.597018 0)
(1.26275 0.573753 0)
(1.3293 0.547627 0)
(3 -1.86446e-16 0)
(3 -6.77361e-17 0)
(3 -7.82203e-17 0)
(3 -6.1431e-16 0)
(3 -5.58539e-16 0)
(3 -5.52531e-16 0)
(3 -1.50437e-16 0)
(3 2.20249e-17 0)
(3 2.0401e-16 0)
(3 8.10844e-17 0)
(3 3.54976e-16 0)
(3 -3.12675e-17 0)
(3 -3.74138e-17 0)
(3 -1.12952e-15 0)
(3 -1.72296e-15 0)
(3 -3.82716e-15 0)
(3 -3.93548e-12 0)
(3 2.40824e-12 0)
(3 1.48415e-05 0)
(3.02363 0.0129345 0)
(1.35397 0.420739 0)
(1.10328 0.497689 0)
(1.23558 0.504088 0)
(1.31969 0.505989 0)
(3 -6.77686e-17 0)
(3 2.39966e-16 0)
(3 3.4538e-16 0)
(3 2.05836e-16 0)
(3 -5.48814e-16 0)
(3 -7.89297e-16 0)
(3 -2.25904e-16 0)
(3 2.11678e-16 0)
(3 6.05714e-16 0)
(3 7.93833e-16 0)
(3 5.6467e-16 0)
(3 9.79883e-17 0)
(3 -9.83786e-16 0)
(3 -1.8443e-15 0)
(3 -2.29041e-15 0)
(3 -2.0663e-15 0)
(3 -2.45575e-13 0)
(3 -2.5963e-13 0)
(3 2.07047e-08 0)
(3.00069 5.91182e-05 0)
(1.25767 0.249824 0)
(0.915842 0.427992 0)
(1.09393 0.469614 0)
(1.21971 0.495123 0)
(3 3.27833e-16 0)
(3 1.87008e-16 0)
(3 1.77856e-16 0)
(3 2.21659e-16 0)
(3 7.32151e-17 0)
(3 -4.87039e-16 0)
(3 -4.45174e-16 0)
(3 9.09127e-17 0)
(3 6.68378e-16 0)
(3 7.66696e-16 0)
(3 3.98118e-16 0)
(3 7.98924e-17 0)
(3 -4.67227e-16 0)
(3 -1.50775e-15 0)
(3 -2.41095e-15 0)
(3 -2.13862e-15 0)
(3 -5.52963e-15 0)
(3 -8.73569e-14 0)
(3 1.45961e-11 0)
(3 -3.94001e-08 0)
(1.36642 0.22065 0)
(0.836172 0.334104 0)
(0.938184 0.350946 0)
(1.05108 0.381426 0)
(3 3.16397e-17 0)
(3 -1.11376e-16 0)
(3 -2.92195e-16 0)
(3 -2.71243e-16 0)
(3 7.43931e-17 0)
(3 5.4225e-17 0)
(3 2.56109e-16 0)
(3 4.93587e-16 0)
(3 2.75671e-16 0)
(3 4.67377e-18 0)
(3 -5.40333e-16 0)
(3 -8.35205e-16 0)
(3 -1.10199e-15 0)
(3 -8.59154e-16 0)
(3 -6.86414e-16 0)
(3 -8.08139e-16 0)
(3 -1.0915e-15 0)
(3 -1.37873e-14 0)
(3 -9.87593e-15 0)
(3 -3.01512e-08 0)
(1.5349 0.259423 0)
(0.832133 0.282479 0)
(0.849008 0.285867 0)
(0.917447 0.303351 0)
(3 -1.83442e-16 0)
(3 4.82389e-18 0)
(3 -3.5321e-16 0)
(3 -8.45104e-17 0)
(3 4.28222e-16 0)
(3 1.03009e-15 0)
(3 9.53956e-16 0)
(3 3.1177e-16 0)
(3 -2.14901e-17 0)
(3 -3.47304e-17 0)
(3 1.73931e-17 0)
(3 1.17567e-16 0)
(3 -2.62989e-16 0)
(3 1.04626e-15 0)
(3 1.62757e-15 0)
(3 1.29931e-15 0)
(3 5.68047e-16 0)
(3 -2.93636e-16 0)
(3 -2.03992e-15 0)
(3 -5.99538e-09 0)
(1.77073 0.279084 0)
(0.851304 0.266235 0)
(0.8293 0.254491 0)
(0.871016 0.254878 0)
(3 -8.27491e-17 0)
(3 5.1277e-17 0)
(3 5.63342e-16 0)
(3 5.76096e-16 0)
(3 8.40525e-16 0)
(3 7.93313e-16 0)
(3 6.59669e-16 0)
(3 2.77625e-16 0)
(3 2.12393e-16 0)
(3 4.38502e-16 0)
(3 8.97387e-16 0)
(3 1.16264e-15 0)
(3 5.93914e-16 0)
(3 9.32136e-16 0)
(3 1.8249e-15 0)
(3 1.60646e-15 0)
(3 1.35139e-15 0)
(3 9.541e-16 0)
(3 6.19316e-16 0)
(3 -5.64462e-10 0)
(2.06037 0.265615 0)
(0.877692 0.259276 0)
(0.833397 0.231152 0)
(0.875415 0.223453 0)
(3 -5.02966e-17 0)
(3 -1.43373e-16 0)
(3 1.11416e-16 0)
(3 2.09165e-17 0)
(3 -1.12223e-16 0)
(3 -7.19772e-17 0)
(3 -2.57562e-16 0)
(3 -4.46221e-16 0)
(3 -3.73718e-16 0)
(3 4.5797e-16 0)
(3 8.78436e-16 0)
(3 4.88958e-16 0)
(3 4.79437e-16 0)
(3 4.00979e-16 0)
(3 1.94613e-16 0)
(3 2.5673e-16 0)
(3 6.44193e-16 0)
(3 8.56814e-16 0)
(3 4.71978e-16 0)
(3 -2.08815e-11 0)
(2.34906 0.225225 0)
(0.910964 0.240781 0)
(0.838524 0.206523 0)
(0.886883 0.200567 0)
(3 1.73127e-16 0)
(3 -3.24057e-16 0)
(3 -4.95285e-16 0)
(3 -3.32048e-16 0)
(3 -3.20757e-16 0)
(3 -3.36762e-16 0)
(3 -8.40161e-16 0)
(3 -1.03306e-15 0)
(3 -7.88175e-16 0)
(3 -6.32742e-16 0)
(3 1.24224e-16 0)
(3 6.74791e-16 0)
(3 1.20402e-15 0)
(3 6.54136e-16 0)
(3 3.88314e-17 0)
(3 -2.42477e-16 0)
(3 -4.0878e-16 0)
(3 2.55387e-16 0)
(3 1.90842e-16 0)
(3 -3.76533e-13 0)
(2.60565 0.173491 0)
(0.956888 0.211635 0)
(0.849444 0.181678 0)
(0.900387 0.177594 0)
(3 4.04023e-17 0)
(3 2.39337e-17 0)
(3 -3.70229e-16 0)
(3 -1.7267e-16 0)
(3 -2.94485e-16 0)
(3 -4.67553e-16 0)
(3 -1.14113e-16 0)
(3 3.89651e-16 0)
(3 7.21311e-16 0)
(3 2.66873e-16 0)
(3 -3.70113e-16 0)
(3 -2.10148e-16 0)
(3 3.53412e-16 0)
(3 3.79446e-16 0)
(3 1.32652e-16 0)
(3 1.09044e-16 0)
(3 1.51477e-16 0)
(3 3.53216e-16 0)
(3 8.06211e-16 0)
(3 -2.11877e-15 0)
(2.79289 0.104855 0)
(1.0084 0.165434 0)
(0.851677 0.151198 0)
(0.90501 0.149838 0)
(3 4.0939e-17 0)
(3 5.64383e-17 0)
(3 2.46189e-17 0)
(3 -1.712e-17 0)
(3 -8.69557e-17 0)
(3 -9.35559e-17 0)
(3 2.72032e-16 0)
(3 4.82166e-16 0)
(3 1.18209e-15 0)
(3 7.9616e-16 0)
(3 3.60163e-16 0)
(3 -2.00455e-16 0)
(3 -1.17681e-16 0)
(3 1.73243e-16 0)
(3 3.67426e-16 0)
(3 6.38257e-16 0)
(3 9.0739e-16 0)
(3 9.52961e-16 0)
(3 1.06397e-15 0)
(3 6.50068e-16 0)
(2.86678 0.0519974 0)
(1.02521 0.115397 0)
(0.837238 0.118261 0)
(0.891739 0.11764 0)
(3 2.05639e-16 0)
(3 2.19942e-16 0)
(3 5.83045e-16 0)
(3 6.80422e-16 0)
(3 9.45658e-16 0)
(3 1.17667e-15 0)
(3 8.48082e-16 0)
(3 -4.81711e-17 0)
(3 -3.88507e-16 0)
(3 -3.06471e-16 0)
(3 -6.29384e-17 0)
(3 -3.45126e-17 0)
(3 -4.41725e-16 0)
(3 -2.81526e-16 0)
(3 2.63606e-16 0)
(3 5.04836e-16 0)
(3 1.23685e-15 0)
(3 6.81949e-16 0)
(3 6.54997e-16 0)
(3 5.95403e-16 0)
(2.89975 0.0290594 0)
(1.03224 0.0816115 0)
(0.816441 0.0897765 0)
(0.867644 0.0902155 0)
(3 -1.29989e-16 0)
(3 -1.99344e-16 0)
(3 -4.81733e-16 0)
(3 -2.1263e-16 0)
(3 1.6059e-17 0)
(3 1.98236e-17 0)
(3 -3.967e-16 0)
(3 -8.5506e-16 0)
(3 -1.6998e-15 0)
(3 -1.62245e-15 0)
(3 -1.04953e-15 0)
(3 -2.57028e-17 0)
(3 8.87775e-17 0)
(3 1.15265e-16 0)
(3 2.37798e-16 0)
(3 7.1884e-16 0)
(3 1.37325e-16 0)
(3 4.26326e-16 0)
(3 8.0842e-16 0)
(3 1.09446e-15 0)
(2.92471 0.0164038 0)
(1.04169 0.0580237 0)
(0.809011 0.0606294 0)
(0.854398 0.0606292 0)
(3 -9.07364e-17 0)
(3 -4.08932e-16 0)
(3 -6.52827e-16 0)
(3 -1.0554e-15 0)
(3 -1.26365e-15 0)
(3 -1.25763e-15 0)
(3 -1.17558e-15 0)
(3 -8.81703e-16 0)
(3 -7.79643e-16 0)
(3 -7.08789e-16 0)
(3 -4.76523e-17 0)
(3 1.01258e-15 0)
(3 1.57519e-15 0)
(3 1.59374e-15 0)
(3 1.61278e-15 0)
(3 2.00538e-15 0)
(3 3.4566e-16 0)
(3 -4.51444e-16 0)
(3 6.44213e-17 0)
(3 3.74439e-16 0)
(2.93946 -0.00196035 0)
(1.0497 0.0354405 0)
(0.809306 0.036233 0)
(0.8484 0.0361929 0)
(3 1.49421e-16 0)
(3 2.36888e-16 0)
(3 6.94689e-17 0)
(3 -2.89491e-16 0)
(3 -6.82256e-16 0)
(3 -4.95326e-16 0)
(3 -2.51809e-16 0)
(3 -2.55025e-16 0)
(3 1.13239e-16 0)
(3 1.31169e-16 0)
(3 2.82947e-16 0)
(3 5.62478e-16 0)
(3 7.08933e-16 0)
(3 1.83811e-15 0)
(3 1.53575e-15 0)
(3 8.14975e-16 0)
(3 5.1052e-16 0)
(3 -3.39159e-16 0)
(3 -4.0307e-16 0)
(3 1.5269e-16 0)
(2.9311 -0.0049268 0)
(1.04236 0.00785137 0)
(0.803498 0.0111556 0)
(0.843279 0.0115375 0)
(1.49715 1.27286 0)
(1.99697 1.26681 0)
(2.25102 1.52862 0)
(2.31112 0.787403 0)
(2.4785 0.375777 0)
(2.60949 -0.0919493 0)
(2.65518 -0.251652 0)
(2.54406 -0.353621 0)
(2.23265 -0.287214 0)
(0.786798 -0.0670239 0)
(0.630642 0.0398879 0)
(0.546034 0.0431091 0)
(0.412033 0.0401145 0)
(0.309346 0.0278351 0)
(0.28634 0.0160629 0)
(0.283564 0.00402148 0)
(0.26757 -0.00121406 0)
(0.260426 -0.000851071 0)
(0.269607 0.000352749 0)
(0.284825 0.00206967 0)
(0.293814 0.0015561 0)
(0.299287 8.84658e-05 0)
(0.308608 -0.00222112 0)
(0.326091 -0.00585787 0)
(0.346065 -0.00927089 0)
(0.364088 -0.0123254 0)
(0.381646 -0.0144412 0)
(0.402074 -0.0158766 0)
(0.427205 -0.0184476 0)
(0.455073 -0.0201427 0)
(0.483755 -0.0226903 0)
(0.512383 -0.0253751 0)
(0.539423 -0.0265035 0)
(0.565247 -0.0258276 0)
(0.591171 -0.0246949 0)
(0.618731 -0.0239472 0)
(0.648249 -0.02427 0)
(0.678577 -0.0253198 0)
(0.709087 -0.0263675 0)
(0.738814 -0.0268332 0)
(0.766877 -0.0262266 0)
(0.794739 -0.0249687 0)
(0.824647 -0.0239709 0)
(0.857079 -0.0238383 0)
(0.890732 -0.0244389 0)
(0.924246 -0.0250103 0)
(0.956398 -0.0250796 0)
(0.986668 -0.0245638 0)
(1.01586 -0.0236409 0)
(1.0454 -0.0225126 0)
(1.07607 -0.0212482 0)
(1.10727 -0.0197998 0)
(1.13766 -0.0182446 0)
(1.16638 -0.0170686 0)
(1.19438 -0.016609 0)
(1.22283 -0.0165401 0)
(1.25128 -0.0163168 0)
(1.27819 -0.015464 0)
(1.30258 -0.0137378 0)
(1.32479 -0.0118196 0)
(1.34652 -0.0103211 0)
(1.36926 -0.00929456 0)
(1.3938 -0.00841892 0)
(1.41844 -0.00739488 0)
(1.44037 -0.00598015 0)
(1.4599 -0.00444424 0)
(1.47918 -0.00337472 0)
(1.50029 -0.00298455 0)
(1.52506 -0.00325025 0)
(1.54923 -0.0036128 0)
(1.56903 -0.0035459 0)
(1.58539 -0.00283282 0)
(1.59749 -0.00254077 0)
(1.59829 -0.00327907 0)
(1.58207 -0.00610171 0)
(1.41223 -0.00442101 0)
(1.26746 -0.0029032 0)
(1.25208 -0.00295327 0)
(1.25764 -0.00362929 0)
(1.26749 -0.00423518 0)
(1.27786 -0.00474044 0)
(1.28889 -0.00519908 0)
(1.29959 -0.00557384 0)
(1.30865 -0.00574196 0)
(1.31525 -0.00552267 0)
(1.3195 -0.00489904 0)
(1.32304 -0.00368259 0)
(1.32673 -0.00221711 0)
(1.33156 -0.00128616 0)
(1.33884 -0.0013147 0)
(1.34731 -0.00198495 0)
(1.35359 -0.00257419 0)
(1.35703 -0.00268459 0)
(1.3594 -0.0021221 0)
(1.36091 -0.00041637 0)
(1.36237 0.000797719 0)
(1.7587 1.1073 0)
(2.28942 0.76849 0)
(2.55118 0.472814 0)
(2.58666 0.173047 0)
(2.66503 -0.210006 0)
(2.75084 -0.484736 0)
(2.7424 -0.64623 0)
(2.75609 -0.670633 0)
(2.67183 -0.56344 0)
(1.14337 0.171495 0)
(0.648718 0.235697 0)
(0.563732 0.174697 0)
(0.459675 0.121491 0)
(0.371046 0.0661289 0)
(0.350769 0.0256116 0)
(0.339124 0.00958774 0)
(0.32069 0.00758398 0)
(0.310089 0.010272 0)
(0.314736 0.014052 0)
(0.324718 0.0156281 0)
(0.331921 0.0112047 0)
(0.337106 0.00483894 0)
(0.346427 -0.00257549 0)
(0.363733 -0.012533 0)
(0.386732 -0.0290164 0)
(0.412112 -0.0431323 0)
(0.437915 -0.0494314 0)
(0.463949 -0.0472488 0)
(0.490208 -0.0415226 0)
(0.516103 -0.0447895 0)
(0.543638 -0.0534765 0)
(0.573584 -0.0616318 0)
(0.605353 -0.0654816 0)
(0.636749 -0.0614867 0)
(0.665073 -0.0513176 0)
(0.690931 -0.0419628 0)
(0.715853 -0.0383536 0)
(0.742736 -0.0405344 0)
(0.772331 -0.0455257 0)
(0.803299 -0.0492776 0)
(0.834125 -0.0485789 0)
(0.863225 -0.042421 0)
(0.890882 -0.0338865 0)
(0.918844 -0.0276806 0)
(0.948621 -0.0267053 0)
(0.980452 -0.0297835 0)
(1.01258 -0.0333709 0)
(1.04296 -0.0349679 0)
(1.07124 -0.0344409 0)
(1.0988 -0.0328037 0)
(1.12719 -0.0305516 0)
(1.15676 -0.0274863 0)
(1.18594 -0.0227797 0)
(1.21267 -0.017012 0)
(1.23697 -0.0129903 0)
(1.2606 -0.0127643 0)
(1.28581 -0.0157375 0)
(1.31286 -0.0189501 0)
(1.33832 -0.0185368 0)
(1.35938 -0.0146067 0)
(1.37857 -0.0103123 0)
(1.39818 -0.00756659 0)
(1.41939 -0.00721289 0)
(1.44323 -0.00782671 0)
(1.46676 -0.00661156 0)
(1.48638 -0.00336073 0)
(1.50512 0.00104264 0)
(1.52461 0.00478859 0)
(1.54486 0.00532479 0)
(1.56603 0.00142291 0)
(1.58651 -0.00326212 0)
(1.60205 -0.00693766 0)
(1.61353 -0.0107039 0)
(1.61302 -0.0165847 0)
(1.60111 -0.0255009 0)
(1.45318 -0.00826678 0)
(1.29585 0.00337453 0)
(1.27375 7.39082e-05 0)
(1.2785 -0.00545845 0)
(1.29078 -0.00798952 0)
(1.30274 -0.00726626 0)
(1.31317 -0.00523187 0)
(1.3214 -0.00418277 0)
(1.32791 -0.00558683 0)
(1.33368 -0.00867374 0)
(1.33901 -0.0106564 0)
(1.34435 -0.0100769 0)
(1.34993 -0.00660054 0)
(1.35502 -0.000725416 0)
(1.35933 0.00391245 0)
(1.36219 0.00417407 0)
(1.36547 -0.000441841 0)
(1.37055 -0.00577579 0)
(1.37535 -0.0073759 0)
(1.37885 -0.00570986 0)
(1.38102 0.00119048 0)
(1.66995 1.04609 0)
(2.07707 0.840912 0)
(2.33702 0.609595 0)
(2.4691 0.468631 0)
(2.59615 0.212743 0)
(2.68706 -0.0757107 0)
(2.69921 -0.243139 0)
(2.74708 -0.239417 0)
(2.7993 -0.329449 0)
(2.22758 0.0899706 0)
(1.02574 0.345054 0)
(0.778971 0.264032 0)
(0.660302 0.154379 0)
(0.568509 0.103344 0)
(0.520454 0.0825736 0)
(0.486211 0.064406 0)
(0.461958 0.049426 0)
(0.451118 0.038562 0)
(0.452853 0.027427 0)
(0.457547 0.00807001 0)
(0.463728 -0.0158705 0)
(0.473914 -0.0354965 0)
(0.489236 -0.047185 0)
(0.507943 -0.0574397 0)
(0.531831 -0.0666389 0)
(0.559716 -0.0743644 0)
(0.590881 -0.0817417 0)
(0.624599 -0.0889682 0)
(0.657202 -0.0911909 0)
(0.68558 -0.0834684 0)
(0.709702 -0.0745871 0)
(0.734779 -0.072472 0)
(0.763474 -0.0777272 0)
(0.797155 -0.0863731 0)
(0.832485 -0.0907603 0)
(0.863094 -0.0866697 0)
(0.887526 -0.0773882 0)
(0.908905 -0.0697666 0)
(0.93138 -0.06778 0)
(0.956915 -0.0717538 0)
(0.985852 -0.0787852 0)
(1.01612 -0.0842888 0)
(1.04546 -0.0847684 0)
(1.07281 -0.0804735 0)
(1.0988 -0.0742123 0)
(1.12484 -0.0690505 0)
(1.15139 -0.0665407 0)
(1.17798 -0.0656329 0)
(1.20346 -0.0644325 0)
(1.22746 -0.0625764 0)
(1.25103 -0.0610256 0)
(1.27544 -0.0602391 0)
(1.30119 -0.0594841 0)
(1.32647 -0.0562624 0)
(1.34778 -0.0501922 0)
(1.36677 -0.0439052 0)
(1.38592 -0.0394733 0)
(1.40613 -0.0380873 0)
(1.42796 -0.0384984 0)
(1.44894 -0.037174 0)
(1.46672 -0.0336285 0)
(1.48358 -0.0283078 0)
(1.50093 -0.0227401 0)
(1.51926 -0.0197302 0)
(1.53845 -0.01929 0)
(1.5575 -0.0185711 0)
(1.5758 -0.0163214 0)
(1.59429 -0.0118631 0)
(1.61262 -0.00578031 0)
(1.62944 -0.000636885 0)
(1.64355 -0.000193728 0)
(1.65581 -0.00359158 0)
(1.6618 -0.0109655 0)
(1.66005 -0.021908 0)
(1.64893 -0.0399858 0)
(1.55281 -0.0201358 0)
(1.38243 0.00223956 0)
(1.34532 -0.00288831 0)
(1.34894 -0.010287 0)
(1.36077 -0.0133897 0)
(1.37299 -0.0148048 0)
(1.38429 -0.0148635 0)
(1.39153 -0.0122018 0)
(1.39535 -0.00773452 0)
(1.39645 -0.00469157 0)
(1.39797 -0.00552268 0)
(1.40095 -0.0103157 0)
(1.40762 -0.0152309 0)
(1.4147 -0.0166854 0)
(1.41858 -0.0153306 0)
(1.42079 -0.0114613 0)
(1.42094 -0.0067441 0)
(1.4218 -0.00498 0)
(1.42347 -0.00654113 0)
(1.42718 -0.00946828 0)
(1.43156 -0.00849245 0)
(1.60498 0.988175 0)
(1.89364 0.882099 0)
(2.15513 0.688192 0)
(2.34012 0.500074 0)
(2.44573 0.397807 0)
(2.50936 0.231998 0)
(2.63107 -0.0235581 0)
(2.67321 -0.153343 0)
(2.75285 -0.312496 0)
(2.7009 -0.256638 0)
(1.90944 0.31988 0)
(1.10461 0.455928 0)
(0.916867 0.341612 0)
(0.850826 0.204547 0)
(0.793169 0.128677 0)
(0.752233 0.0591241 0)
(0.725951 0.00534217 0)
(0.717899 -0.0184182 0)
(0.714449 -0.0286421 0)
(0.714465 -0.0389759 0)
(0.721203 -0.0526114 0)
(0.737931 -0.0647967 0)
(0.763073 -0.0713837 0)
(0.787725 -0.0671841 0)
(0.808745 -0.0597167 0)
(0.829914 -0.059035 0)
(0.855499 -0.065322 0)
(0.888218 -0.0753775 0)
(0.923911 -0.0844276 0)
(0.955025 -0.0909067 0)
(0.978184 -0.0897006 0)
(0.998219 -0.0827172 0)
(1.02046 -0.0753278 0)
(1.04761 -0.0721002 0)
(1.08025 -0.0759321 0)
(1.11348 -0.0826508 0)
(1.13971 -0.0840926 0)
(1.15867 -0.0794163 0)
(1.17545 -0.0727399 0)
(1.1939 -0.0668394 0)
(1.21578 -0.064207 0)
(1.24147 -0.0656737 0)
(1.26877 -0.069011 0)
(1.29342 -0.0702702 0)
(1.31407 -0.0685405 0)
(1.33312 -0.0650789 0)
(1.35267 -0.0611976 0)
(1.37348 -0.0575908 0)
(1.39467 -0.0538142 0)
(1.41436 -0.0489586 0)
(1.43257 -0.0439573 0)
(1.45064 -0.0402743 0)
(1.46956 -0.0384923 0)
(1.48966 -0.0378159 0)
(1.5073 -0.0363264 0)
(1.52197 -0.0337939 0)
(1.53512 -0.0270411 0)
(1.54937 -0.0214143 0)
(1.56547 -0.0194458 0)
(1.58262 -0.0197391 0)
(1.59847 -0.0199109 0)
(1.61385 -0.0180964 0)
(1.62861 -0.0113535 0)
(1.64228 -0.00278379 0)
(1.65583 0.0032389 0)
(1.6701 0.00462535 0)
(1.68521 0.00447819 0)
(1.70128 0.00431482 0)
(1.71772 0.00476392 0)
(1.73262 0.00677726 0)
(1.74196 0.00871593 0)
(1.74719 0.00498171 0)
(1.74536 -0.00340765 0)
(1.73983 -0.0183274 0)
(1.71867 -0.0516418 0)
(1.68276 -0.063167 0)
(1.54171 -0.0209347 0)
(1.47485 0.00340849 0)
(1.47198 -0.00125005 0)
(1.48043 -0.00742182 0)
(1.48826 -0.00882758 0)
(1.49577 -0.0126389 0)
(1.50425 -0.015717 0)
(1.50827 -0.0158623 0)
(1.5096 -0.0115983 0)
(1.50786 -0.00349715 0)
(1.50652 0.00275113 0)
(1.50743 0.00347627 0)
(1.51104 -0.00165964 0)
(1.51606 -0.00855956 0)
(1.51865 -0.0113099 0)
(1.52055 -0.00970029 0)
(1.52035 -0.00311282 0)
(1.51779 0.0046831 0)
(1.51679 0.00837996 0)
(1.51838 0.00589198 0)
(1.56541 0.926933 0)
(1.78926 0.858362 0)
(1.9957 0.747823 0)
(2.19084 0.589496 0)
(2.32941 0.430847 0)
(2.4009 0.339413 0)
(2.45871 0.22586 0)
(2.57142 0.0594065 0)
(2.63276 -0.0619024 0)
(2.69547 -0.143475 0)
(2.57836 -0.0631833 0)
(1.70223 0.459603 0)
(1.19012 0.435162 0)
(1.11992 0.306016 0)
(1.12344 0.151704 0)
(1.089 0.0740732 0)
(1.06708 0.0295544 0)
(1.06284 0.00381111 0)
(1.05824 -0.0101331 0)
(1.05309 -0.0225389 0)
(1.0557 -0.035455 0)
(1.06923 -0.0521642 0)
(1.09463 -0.0699846 0)
(1.12219 -0.0831298 0)
(1.1415 -0.0892489 0)
(1.15554 -0.0901867 0)
(1.17025 -0.0908219 0)
(1.1898 -0.0958285 0)
(1.21631 -0.107819 0)
(1.24433 -0.118865 0)
(1.26595 -0.122249 0)
(1.28135 -0.119199 0)
(1.29628 -0.113109 0)
(1.31452 -0.107828 0)
(1.33738 -0.106356 0)
(1.3637 -0.108367 0)
(1.38789 -0.109872 0)
(1.4046 -0.107787 0)
(1.41694 -0.104146 0)
(1.42995 -0.100191 0)
(1.44537 -0.0966001 0)
(1.46396 -0.0950096 0)
(1.48519 -0.0951426 0)
(1.50506 -0.0938826 0)
(1.52013 -0.0907102 0)
(1.53361 -0.0873185 0)
(1.54764 -0.0837039 0)
(1.56311 -0.079805 0)
(1.57986 -0.0750502 0)
(1.59542 -0.0694055 0)
(1.60842 -0.0647615 0)
(1.62128 -0.0611383 0)
(1.63515 -0.0568705 0)
(1.6502 -0.0513241 0)
(1.66354 -0.0480327 0)
(1.67579 -0.0457907 0)
(1.68631 -0.0428013 0)
(1.69621 -0.0373254 0)
(1.70852 -0.0312909 0)
(1.72155 -0.0259109 0)
(1.73446 -0.0238521 0)
(1.74745 -0.0216017 0)
(1.7606 -0.0202434 0)
(1.77329 -0.0174329 0)
(1.78532 -0.011801 0)
(1.79654 -0.00366657 0)
(1.80795 0.00165169 0)
(1.82017 0.0049347 0)
(1.83271 0.00571784 0)
(1.84316 0.00493357 0)
(1.84963 0.00127636 0)
(1.84871 -0.00786576 0)
(1.84133 -0.0220841 0)
(1.82798 -0.0402288 0)
(1.80184 -0.07483 0)
(1.79149 -0.107523 0)