/*--------------------------------*- C++ -*----------------------------------*\
  =========                 |
  \\      /  F ield         | OpenFOAM: The Open Source CFD Toolbox
   \\    /   O peration     | Website:  https://openfoam.org
    \\  /    A nd           | Version:  7
     \\/     M anipulation  |
\*---------------------------------------------------------------------------*/
FoamFile
{
    version     2.0;
    format      ascii;
    class       volScalarField;
    location    "180";
    object      p;
}
// * * * * * * * * * * * * * * * * * * * * * * * * * * * * * * * * * * * * * //

dimensions      [0 2 -2 0 0 0 0];

internalField   nonuniform List<scalar> 
1987
(
-0.070644
-0.0638618
-0.0599324
-0.0587988
-0.0606517
-0.0657562
-0.0739737
-0.0843288
-0.0949252
-0.103311
-0.10721
-0.105389
-0.0982829
-0.0877257
-0.076175
-0.0657067
-0.0574718
-0.0518673
-0.0490337
-0.0491179
-0.0521011
-0.0574559
-0.0639301
-0.0696682
-0.0727592
-0.0719842
-0.0675034
-0.0606014
-0.0530995
-0.046543
-0.0418453
-0.039556
-0.0398798
-0.0426645
-0.0470963
-0.0516661
-0.0547114
-0.0547822
-0.0517235
-0.0463697
-0.0401859
-0.0347425
-0.0307053
-0.0291057
-0.029413
-0.0313487
-0.0333136
-0.0340403
-0.0325417
-0.0289766
-0.0235685
-0.0187109
-0.0134731
-0.0111386
-0.0087618
-0.00820464
-0.00519414
-0.00361239
-0.0688048
-0.0627716
-0.0595253
-0.0590603
-0.0616222
-0.0675148
-0.0766051
-0.0878766
-0.0993384
-0.108403
-0.112658
-0.110785
-0.103234
-0.091929
-0.079471
-0.0680696
-0.0589538
-0.0525293
-0.0488997
-0.0481707
-0.0503046
-0.0547955
-0.0604558
-0.0655375
-0.0682444
-0.0674415
-0.0632905
-0.0569994
-0.0502673
-0.0445386
-0.0406803
-0.0392374
-0.0404292
-0.0440849
-0.0493626
-0.0546448
-0.0581852
-0.0583976
-0.0551315
-0.0492458
-0.0423487
-0.0360923
-0.031188
-0.0287334
-0.0281532
-0.0293517
-0.0306224
-0.0310272
-0.0293602
-0.0260776
-0.0210812
-0.0168699
-0.0124028
-0.01073
-0.00914434
-0.00893496
-0.00615355
-0.00430541
-0.0668127
-0.061517
-0.0589444
-0.0591399
-0.0624028
-0.0690757
-0.0790333
-0.0912221
-0.10356
-0.113323
-0.117961
-0.116062
-0.108087
-0.0960446
-0.0826782
-0.0703356
-0.060331
-0.0530839
-0.0486627
-0.0471311
-0.0484317
-0.0520792
-0.0569493
-0.0613978
-0.0637387
-0.0629138
-0.0590865
-0.0533869
-0.0473995
-0.0424758
-0.0394415
-0.0388387
-0.040901
-0.0454376
-0.0515771
-0.0575903
-0.0616419
-0.0620042
-0.0585269
-0.0520974
-0.0444716
-0.0373934
-0.0316212
-0.0283202
-0.0268672
-0.0273476
-0.0279417
-0.0280347
-0.0261969
-0.0231862
-0.0185849
-0.0150097
-0.0113068
-0.0102997
-0.00951398
-0.00966469
-0.00712338
-0.00500688
-0.0646709
-0.0600969
-0.0581845
-0.0590281
-0.0629787
-0.0704176
-0.0812305
-0.0943317
-0.107551
-0.11803
-0.123078
-0.121186
-0.112816
-0.100055
-0.0857863
-0.0725005
-0.0616037
-0.0535353
-0.0483305
-0.0460104
-0.0464971
-0.0493247
-0.0534304
-0.0572698
-0.0592617
-0.0584188
-0.0549055
-0.0497741
-0.0445028
-0.0403581
-0.0381292
-0.0383569
-0.0412885
-0.0467127
-0.053727
-0.0604882
-0.0650667
-0.0655887
-0.0618988
-0.0549165
-0.0465496
-0.0386436
-0.0320052
-0.027869
-0.0255599
-0.0253423
-0.0252783
-0.0250694
-0.0230587
-0.0203084
-0.0160849
-0.0131338
-0.0101868
-0.00984762
-0.00986896
-0.0103918
-0.00810133
-0.00571547
-0.0623839
-0.0585118
-0.0572421
-0.0587167
-0.0633362
-0.0715207
-0.0831701
-0.097172
-0.111274
-0.122484
-0.127971
-0.126123
-0.117396
-0.103942
-0.088785
-0.0745602
-0.0627727
-0.0538879
-0.0479108
-0.0448198
-0.0445149
-0.0465488
-0.0499178
-0.0531727
-0.0548319
-0.0539727
-0.0507604
-0.0461708
-0.041584
-0.0381892
-0.0367439
-0.037789
-0.0415852
-0.0478999
-0.0557993
-0.0633233
-0.068444
-0.0691372
-0.0652359
-0.0576948
-0.0485777
-0.0398406
-0.0323405
-0.0273824
-0.0242359
-0.0233416
-0.0226386
-0.0221375
-0.019952
-0.0174498
-0.0135865
-0.0112455
-0.00904456
-0.00937352
-0.0102075
-0.0111142
-0.00908505
-0.00642982
-0.0599574
-0.0567637
-0.0561154
-0.0581993
-0.0634635
-0.0723668
-0.0848269
-0.0997112
-0.114692
-0.126647
-0.132602
-0.130839
-0.1218
-0.107687
-0.0916642
-0.0765113
-0.0638391
-0.0541465
-0.0474116
-0.0435699
-0.0424987
-0.0437673
-0.0464284
-0.0491238
-0.0504659
-0.0495907
-0.0466635
-0.0425863
-0.0386498
-0.0359732
-0.0352867
-0.0371325
-0.0417846
-0.0489893
-0.0577807
-0.0660803
-0.0717576
-0.0726347
-0.0685261
-0.0604241
-0.0505507
-0.0409822
-0.0326274
-0.0268632
-0.0228996
-0.0213508
-0.0200283
-0.019245
-0.0168833
-0.0146159
-0.0110947
-0.00934817
-0.00788165
-0.00887715
-0.0105278
-0.0118298
-0.0100721
-0.00714853
-0.0573986
-0.0548563
-0.0548043
-0.0574715
-0.0633509
-0.0729399
-0.086178
-0.101919
-0.117768
-0.130479
-0.136933
-0.135301
-0.126001
-0.111274
-0.0944139
-0.0783504
-0.0648045
-0.054316
-0.0468407
-0.0422714
-0.0404613
-0.0409946
-0.0429779
-0.045139
-0.0461788
-0.0452879
-0.0426259
-0.0390296
-0.0357071
-0.0337144
-0.0337589
-0.0363853
-0.0418808
-0.0499709
-0.0596578
-0.0687432
-0.0749909
-0.0760643
-0.0717568
-0.0630956
-0.0524636
-0.0420664
-0.0328663
-0.0263139
-0.021555
-0.019375
-0.0174532
-0.0163973
-0.0138632
-0.0118118
-0.00861462
-0.00744518
-0.00669977
-0.00835828
-0.0108279
-0.0125361
-0.0110599
-0.00787012
-0.0547157
-0.0527947
-0.0533104
-0.0565308
-0.062991
-0.0732266
-0.087203
-0.103769
-0.120469
-0.133941
-0.140929
-0.139478
-0.129973
-0.114682
-0.0970242
-0.0800744
-0.0656707
-0.0544018
-0.0462057
-0.040934
-0.0384143
-0.038244
-0.0395803
-0.0412322
-0.0419838
-0.0410881
-0.0386577
-0.0355092
-0.0327626
-0.0314173
-0.0321622
-0.0355456
-0.0418683
-0.0508352
-0.0614173
-0.0712961
-0.0781274
-0.07941
-0.0749149
-0.0657005
-0.0543111
-0.0430909
-0.0330576
-0.025737
-0.0202062
-0.0174189
-0.0149183
-0.0135994
-0.0108897
-0.00904251
-0.00615107
-0.00553969
-0.00550054
-0.00781666
-0.0111059
-0.0132309
-0.012046
-0.00859305
-0.0519185
-0.0505857
-0.0516373
-0.0553772
-0.062379
-0.0732164
-0.0878846
-0.105236
-0.122765
-0.137001
-0.144555
-0.143337
-0.133692
-0.117896
-0.0994856
-0.0816805
-0.0664398
-0.054409
-0.0455144
-0.0395671
-0.0363687
-0.0355275
-0.036248
-0.0374157
-0.037892
-0.0370197
-0.0347679
-0.0320332
-0.029823
-0.0290869
-0.0304989
-0.0346122
-0.0417418
-0.0515729
-0.0630461
-0.073723
-0.0811499
-0.0826569
-0.0779875
-0.06823
-0.0560883
-0.0440539
-0.0332018
-0.0251346
-0.0188568
-0.0154868
-0.0124284
-0.010856
-0.00796793
-0.00631268
-0.00370879
-0.00363485
-0.0042856
-0.00725202
-0.0113598
-0.0139117
-0.0130276
-0.00931571
-0.0490175
-0.0482375
-0.0497906
-0.0540127
-0.0615127
-0.0729017
-0.0882091
-0.106299
-0.124628
-0.139627
-0.147776
-0.146846
-0.137132
-0.120897
-0.101789
-0.0831661
-0.067114
-0.054343
-0.0447738
-0.0381796
-0.0343345
-0.0328558
-0.0329919
-0.0337001
-0.0339118
-0.0330128
-0.0309632
-0.0286092
-0.0268951
-0.0267283
-0.0287717
-0.0335846
-0.041497
-0.0521752
-0.0645314
-0.0760081
-0.0840403
-0.0857888
-0.0809622
-0.0706749
-0.05779
-0.0449533
-0.0332993
-0.024509
-0.0175102
-0.0135826
-0.00998796
-0.00817138
-0.00510455
-0.00362681
-0.00129237
-0.00173371
-0.00305658
-0.00666413
-0.0115876
-0.0145759
-0.014002
-0.0100364
-0.0460246
-0.0457599
-0.0477775
-0.0524418
-0.0603929
-0.0722788
-0.0881666
-0.106941
-0.126035
-0.14179
-0.150562
-0.149978
-0.14027
-0.123669
-0.103924
-0.0845285
-0.0676956
-0.054209
-0.0439911
-0.0367795
-0.0323206
-0.0302382
-0.0298213
-0.0300943
-0.0300519
-0.0291166
-0.0272513
-0.0252444
-0.0239854
-0.0243466
-0.0269836
-0.0324628
-0.04113
-0.0526343
-0.0658612
-0.078136
-0.0867818
-0.0887898
-0.0838257
-0.0730261
-0.0594111
-0.0457872
-0.0333504
-0.0238622
-0.0161697
-0.0117101
-0.00760093
-0.00554949
-0.00230451
-0.000989189
0.00109376
0.000160743
-0.00181511
-0.00605277
-0.0117873
-0.015221
-0.0149662
-0.0107533
-0.0429523
-0.0431638
-0.0456072
-0.0506712
-0.0590234
-0.0713472
-0.0877514
-0.107152
-0.126967
-0.143467
-0.152885
-0.152708
-0.143084
-0.126196
-0.105883
-0.0857655
-0.0681868
-0.0540122
-0.0431729
-0.0353743
-0.0303349
-0.0276828
-0.0267442
-0.0266056
-0.0263194
-0.0253432
-0.0236394
-0.0219456
-0.0211005
-0.0219476
-0.0251383
-0.0312474
-0.0406378
-0.0529427
-0.067024
-0.0800917
-0.0893583
-0.0916428
-0.0865636
-0.0752744
-0.0609466
-0.0465537
-0.0333557
-0.023196
-0.014838
-0.00987244
-0.00527098
-0.00299396
0.000427613
0.00159617
0.0034453
0.00204559
-0.000562804
-0.00541773
-0.0119567
-0.015844
-0.0159174
-0.0114646
-0.0398139
-0.0404614
-0.0432905
-0.04871
-0.0574108
-0.0701103
-0.0869622
-0.106922
-0.127412
-0.144638
-0.154725
-0.155018
-0.145554
-0.128464
-0.107658
-0.0868745
-0.06859
-0.0537575
-0.0423254
-0.0339709
-0.0283845
-0.0251965
-0.023767
-0.0232399
-0.0227201
-0.0216996
-0.020134
-0.0187192
-0.0182469
-0.0195369
-0.0232398
-0.0299398
-0.040018
-0.0530942
-0.068009
-0.0818611
-0.091754
-0.0943319
-0.0891626
-0.0774105
-0.0623917
-0.0472513
-0.0333154
-0.0225123
-0.013518
-0.00807271
-0.00300143
-0.000507993
0.00308817
0.00412548
0.00575815
0.00391798
0.000698701
-0.00475887
-0.0120938
-0.0164423
-0.0168524
-0.0121683
-0.0366234
-0.0376659
-0.0408397
-0.0465692
-0.0555646
-0.0685749
-0.0858021
-0.106251
-0.12736
-0.145289
-0.156063
-0.156893
-0.147662
-0.130458
-0.10924
-0.0878535
-0.0689074
-0.0534498
-0.0414547
-0.0325755
-0.0264753
-0.0227851
-0.0208949
-0.0200019
-0.0192584
-0.0181884
-0.0167399
-0.015571
-0.0154308
-0.0171205
-0.0212927
-0.0285421
-0.0392695
-0.0530833
-0.0688068
-0.0834311
-0.0939526
-0.0968423
-0.0916111
-0.0794255
-0.0637413
-0.047878
-0.03323
-0.0218127
-0.012212
-0.00631351
-0.000795201
0.00190545
0.0056736
0.00659533
0.00802836
0.00577514
0.00196778
-0.00407608
-0.0121964
-0.0170128
-0.0177679
-0.0128623
-0.0333949
-0.0347914
-0.0382683
-0.0442619
-0.0534969
-0.0667517
-0.0842789
-0.105141
-0.126808
-0.145412
-0.156889
-0.158339
-0.149388
-0.132166
-0.110623
-0.0887001
-0.0691409
-0.0530936
-0.0405661
-0.0311936
-0.0246126
-0.0204531
-0.0181318
-0.0168948
-0.0159379
-0.0148105
-0.0134608
-0.0125063
-0.0126584
-0.0147044
-0.0193019
-0.027057
-0.0383918
-0.0529057
-0.0694089
-0.0847894
-0.0959395
-0.0991616
-0.0938966
-0.0813106
-0.0649909
-0.0484325
-0.0331
-0.0210987
-0.0109223
-0.00459714
0.00134512
0.00424381
0.00818018
0.00900251
0.0102522
0.00761437
0.00324278
-0.00336932
-0.0122624
-0.0175525
-0.0186607
-0.0135442
-0.0301428
-0.0318524
-0.0355911
-0.0418029
-0.0512223
-0.0646546
-0.0824046
-0.103601
-0.12576
-0.145003
-0.157194
-0.159577
-0.150717
-0.133576
-0.111798
-0.0894123
-0.0692924
-0.0526932
-0.0396647
-0.0298301
-0.0228007
-0.018204
-0.0154806
-0.0139209
-0.0127611
-0.0115678
-0.0102997
-0.00952999
-0.00993551
-0.0122948
-0.0172729
-0.025488
-0.0373856
-0.0525585
-0.0698083
-0.0859254
-0.0977022
-0.101276
-0.0960063
-0.0830569
-0.0661357
-0.0489132
-0.0329259
-0.0203717
-0.00965078
-0.0029256
0.00341729
0.00650507
0.0106048
0.0113439
0.012426
0.00943304
0.00452206
-0.00263863
-0.0122897
-0.0180584
-0.0195273
-0.0142118
-0.0268816
-0.0288639
-0.0328237
-0.0392083
-0.0487578
-0.0623006
-0.0801952
-0.101644
-0.124225
-0.144064
-0.15696
-0.160015
-0.151625
-0.13468
-0.112761
-0.089988
-0.0693637
-0.0522525
-0.0387553
-0.0284893
-0.0210431
-0.0160405
-0.0129429
-0.0110814
-0.00972844
-0.00846423
-0.00726022
-0.00664639
-0.00726778
-0.00989786
-0.0152113
-0.0238395
-0.0362523
-0.0520399
-0.069999
-0.0868297
-0.0992289
-0.103169
-0.0979282
-0.0846562
-0.0671714
-0.0493187
-0.0327081
-0.019633
-0.0083992
-0.00130057
0.00541941
0.0086874
0.0129446
0.0136167
0.0145465
0.0112286
0.00580396
-0.00188411
-0.0122762
-0.0185272
-0.0203639
-0.0148626
-0.0236254
-0.0258412
-0.0299821
-0.0364955
-0.046122
-0.0597096
-0.0776706
-0.0992877
-0.122216
-0.142603
-0.156185
-0.159873
-0.15211
-0.135469
-0.113506
-0.0904253
-0.0693561
-0.0517752
-0.037842
-0.0271752
-0.0193425
-0.0139643
-0.0105195
-0.0083763
-0.00683946
-0.00550454
-0.00434591
-0.00385936
-0.00466055
-0.00751989
-0.0131234
-0.0221162
-0.0349948
-0.0513492
-0.0699771
-0.0874946
-0.100509
-0.104831
-0.0996521
-0.0861005
-0.0680937
-0.0496478
-0.0324473
-0.0188839
-0.00716908
0.000276565
0.00734991
0.0107892
0.0151977
0.0158187
0.0166105
0.0129985
0.00708678
-0.00110599
-0.0122199
-0.0189557
-0.021167
-0.0154938
-0.0203879
-0.0227994
-0.027083
-0.0336826
-0.0433351
-0.0569037
-0.0748542
-0.0965559
-0.119753
-0.140634
-0.15488
-0.159237
-0.152174
-0.135938
-0.114027
-0.0907225
-0.0692708
-0.0512644
-0.0369286
-0.0258908
-0.0177013
-0.0119763
-0.00821035
-0.00580502
-0.00409341
-0.00268927
-0.00155854
-0.00117217
-0.00211883
-0.00516703
-0.0110155
-0.0203237
-0.0336167
-0.0504875
-0.0697398
-0.0879141
-0.101533
-0.106251
-0.101168
-0.0873825
-0.0688986
-0.0498994
-0.0321439
-0.0181255
-0.00596176
0.00180471
0.00920757
0.0128092
0.0173635
0.0179479
0.018615
0.0147403
0.00836884
-0.000304599
-0.0121187
-0.0193408
-0.0219325
-0.0161028
-0.0171825
-0.0197532
-0.0241429
-0.0307883
-0.0404183
-0.053907
-0.0717722
-0.0934747
-0.11686
-0.138176
-0.153065
-0.158127
-0.151818
-0.136083
-0.114322
-0.0908778
-0.0691089
-0.0507228
-0.0360185
-0.024639
-0.0161207
-0.0100766
-0.00601448
-0.00336598
-0.00148936
-1.61851e-05
0.00110191
0.00141256
0.000352713
-0.00284535
-0.00889431
-0.0184683
-0.0321225
-0.0494568
-0.0692862
-0.088084
-0.102294
-0.107419
-0.102468
-0.0884952
-0.0695824
-0.0500724
-0.0317986
-0.0173588
-0.00477834
0.00328304
0.0109915
0.0147464
0.0194401
0.0200025
0.0205573
0.0164516
0.00964841
0.000519632
-0.0119707
-0.0196791
-0.0226566
-0.0166865
-0.0167173
-0.0211781
-0.0278315
-0.0373937
-0.050745
-0.0684531
-0.0900742
-0.113567
-0.135254
-0.150758
-0.156552
-0.15105
-0.135904
-0.114387
-0.0908899
-0.0688709
-0.050153
-0.0351144
-0.023422
-0.0146021
-0.00826481
-0.00393028
-0.00105695
0.000974398
0.00251789
0.00363619
0.00389273
0.00274983
-0.000560784
-0.00676655
-0.0165566
-0.030518
-0.0482608
-0.068617
-0.0880019
-0.102788
-0.108328
-0.103542
-0.0894325
-0.0701418
-0.0501661
-0.031412
-0.0165848
-0.00361979
0.00471101
0.012701
0.0166004
0.0214252
0.0219808
0.0224348
0.0181302
0.0109238
0.00136613
-0.0117742
-0.0199675
-0.0233352
-0.0172421
-0.0137053
-0.0182047
-0.0248308
-0.0342835
-0.0474441
-0.0649271
-0.0863871
-0.109905
-0.131897
-0.147985
-0.154536
-0.149879
-0.1354
-0.114221
-0.090758
-0.0685579
-0.0495574
-0.0342195
-0.0222422
-0.0131462
-0.00654021
-0.00195574
0.00112477
0.00330071
0.00491605
0.0060446
0.00626668
0.0050687
0.00168095
-0.00463917
-0.0145959
-0.0288096
-0.0469043
-0.0677345
-0.0876672
-0.103011
-0.108973
-0.104386
-0.0901889
-0.0705737
-0.0501798
-0.0309851
-0.0158047
-0.00248697
0.00608822
0.0143359
0.0183711
0.0233169
0.0238809
0.0242453
0.0197738
0.0121931
0.00223417
-0.0115274
-0.0202028
-0.0239642
-0.0177663
-0.0107303
-0.0152381
-0.0218048
-0.0311099
-0.0440311
-0.0612258
-0.0824484
-0.105911
-0.12814
-0.144775
-0.152096
-0.148314
-0.134573
-0.113822
-0.0904818
-0.068171
-0.0489385
-0.0333365
-0.0211018
-0.0117539
-0.00490187
-8.84505e-05
0.00318225
0.0054928
0.00717938
0.00832748
0.00853324
0.00730593
0.00387439
-0.00251915
-0.0125938
-0.0270047
-0.0453935
-0.0666428
-0.0870814
-0.102961
-0.109349
-0.104994
-0.0907598
-0.0708755
-0.0501131
-0.0305188
-0.0150195
-0.00138065
0.00741448
0.015896
0.0200584
0.0251137
0.0257016
0.0259868
0.0213803
0.0134548
0.0031229
-0.0112289
-0.0203821
-0.0245393
-0.018256
-0.00780449
-0.0122929
-0.0187709
-0.0278947
-0.0405327
-0.0573811
-0.0782944
-0.101623
-0.124018
-0.141157
-0.149251
-0.146368
-0.133427
-0.11319
-0.0900593
-0.0677091
-0.0482961
-0.0324659
-0.0200007
-0.0104241
-0.00334728
0.00167541
0.00511979
0.00755449
0.00930985
0.0104856
0.0106916
0.00945845
0.0060143
-0.000413409
-0.0105583
-0.0251115
-0.0437358
-0.0653474
-0.0862476
-0.102639
-0.109457
-0.105363
-0.0911412
-0.0710447
-0.0499652
-0.0300134
-0.0142297
-0.00030095
0.00869019
0.0173817
0.0216625
0.0268159
0.0274421
0.0276573
0.0229475
0.0147068
0.00403131
-0.0108773
-0.0205023
-0.0250566
-0.018708
-0.00493901
-0.00938273
-0.015746
-0.0246587
-0.0369752
-0.0534251
-0.0739622
-0.0970814
-0.119571
-0.137168
-0.146026
-0.144053
-0.131967
-0.112325
-0.0894863
-0.0671654
-0.0476233
-0.0316013
-0.0189334
-0.00915163
-0.0018705
0.00334279
0.00694468
0.00949236
0.0113121
0.0125201
0.0127417
0.0115238
0.00809576
0.00167115
-0.0084977
-0.0231387
-0.0419396
-0.0638555
-0.085171
-0.102048
-0.109296
-0.105491
-0.0913301
-0.0710788
-0.0497342
-0.029468
-0.0134343
0.000753118
0.0099169
0.0187947
0.0231844
0.0284243
0.0291021
0.0292553
0.0244735
0.0159476
0.00495822
-0.0104715
-0.0205609
-0.0255119
-0.0191191
-0.0021438
-0.00652019
-0.0127457
-0.021422
-0.0333839
-0.0493891
-0.0694888
-0.0923263
-0.114841
-0.132846
-0.142449
-0.141389
-0.130207
-0.111232
-0.088763
-0.0665375
-0.0469172
-0.0307405
-0.0178979
-0.00793389
-0.000468112
0.00491875
0.00866363
0.0113139
0.0131933
0.0144338
0.0146852
0.0135007
0.0101148
0.00372798
-0.00642036
-0.0210958
-0.0400146
-0.0621758
-0.0838587
-0.101192
-0.108868
-0.105377
-0.0913261
-0.0709771
-0.0494202
-0.0288833
-0.0126342
0.0017814
0.0110953
0.0201364
0.024626
0.0299401
0.0306814
0.0307799
0.0259562
0.0171751
0.00590227
-0.0100106
-0.0205555
-0.0259014
-0.0194866
0.000574069
-0.00371539
-0.00978372
-0.0182025
-0.0297826
-0.0453035
-0.064911
-0.0873995
-0.10987
-0.128231
-0.138554
-0.13843
-0.128169
-0.109929
-0.0879145
-0.0658616
-0.0462193
-0.029923
-0.0169276
-0.00679755
0.000839133
0.00638736
0.0102649
0.0130109
0.0149509
0.0162271
0.0165213
0.0153876
0.012068
0.00575151
-0.0043342
-0.0189924
-0.037971
-0.0603182
-0.0823191
-0.100076
-0.108178
-0.105026
-0.0911297
-0.0707445
-0.0490336
-0.0282714
-0.0118407
0.00277522
0.0122185
0.0214018
0.0259842
0.0313629
0.0321792
0.0322298
0.0273941
0.0183877
0.00686203
-0.00949401
-0.0204839
-0.0262212
-0.0198145
0.00320278
-0.000979366
-0.00687221
-0.015015
-0.0261905
-0.0411942
-0.0602612
-0.0823373
-0.104691
-0.123333
-0.134307
-0.135268
-0.125815
-0.108403
-0.0869759
-0.0652071
-0.0456116
-0.029228
-0.0160904
-0.00579685
0.00200862
0.00771299
0.011715
0.0145493
0.0165496
0.017801
0.0182292
0.0171667
0.013943
0.00773237
-0.00224756
-0.016837
-0.0358178
-0.05829
-0.0805543
-0.0986924
-0.107204
-0.104416
-0.0907328
-0.0703885
-0.0485929
-0.027654
-0.0110746
0.00371855
0.0132721
0.0225784
0.0272469
0.0326828
0.0335887
0.0336004
0.0287841
0.0195836
0.00783613
-0.00892063
-0.0203436
-0.0264668
-0.0200829
0.00569441
0.00164746
-0.00404881
-0.0118963
-0.0226415
-0.0370899
-0.0555641
-0.0771568
-0.0992946
-0.118101
-0.129597
-0.131871
-0.122981
-0.106554
-0.0858502
-0.064462
-0.0449749
-0.0285428
-0.0152877
-0.00484638
0.00311721
0.0089665
0.0130754
0.0159736
0.0180061
0.0193208
0.0197949
0.018812
0.0157101
0.00964344
-0.000182146
-0.014645
-0.0335639
-0.0560925
-0.0785547
-0.0970214
-0.105921
-0.103513
-0.0901177
-0.0698881
-0.0480682
-0.0269998
-0.0103048
0.00463758
0.0142815
0.0236858
0.028426
0.0338986
0.0349065
0.0348849
0.0301198
0.0207586
0.00882212
-0.00828941
-0.0201317
-0.0266339
-0.0202962
0.00807954
0.00415132
-0.00135616
-0.00892365
-0.0192599
-0.0331593
-0.0510102
-0.0720593
-0.0939338
-0.11292
-0.125014
-0.127559
-0.119954
-0.10439
-0.0841866
-0.0630359
-0.043634
-0.0272179
-0.0139508
-0.00346926
0.00457003
0.0105155
0.0147043
0.0176407
0.0196639
0.0209345
0.0214354
0.0204883
0.0174674
0.0115205
0.00184655
-0.0124692
-0.031289
-0.0538328
-0.0764735
-0.0952788
-0.10457
-0.102494
-0.0893354
-0.0691626
-0.0472893
-0.0261209
-0.0093474
0.0056824
0.0153902
0.024854
0.0296452
0.0351118
0.0362014
0.0361249
0.0314154
0.0219112
0.00981113
-0.00761204
-0.0198602
-0.0267299
-0.0204546
0.00777691
0.0024537
-0.00480733
-0.0148045
-0.0284387
-0.0462016
-0.0674207
-0.0897579
-0.10948
-0.122553
-0.126052
-0.118312
-0.102524
-0.082044
-0.0606856
-0.0412
-0.024806
-0.0116259
-0.00123432
0.00678074
0.0127924
0.0171053
0.0201658
0.0222883
0.0236935
0.0240783
0.0231103
0.0201098
0.014198
0.00455094
-0.00979674
-0.0287561
-0.0515955
-0.0746835
-0.0939896
-0.103694
-0.101881
-0.0885386
-0.0681608
-0.0460901
-0.0247972
-0.00795872
0.00709584
0.0168597
0.0263684
0.0312273
0.0366887
0.0378306
0.0376589
0.0329677
0.0232626
0.0109577
-0.00682532
-0.0195277
-0.026787
-0.0205808
0.0108864
0.00573762
-0.00124896
-0.0108582
-0.0239977
-0.0412033
-0.061892
-0.0838288
-0.103319
-0.11622
-0.119345
-0.112533
-0.0974031
-0.0775946
-0.0569018
-0.0379953
-0.022056
-0.00920206
0.000974697
0.00886314
0.0148106
0.019093
0.0221306
0.0242265
0.0255576
0.0259939
0.0251001
0.0222056
0.0164371
0.00695622
-0.00723683
-0.0260832
-0.0488957
-0.0720531
-0.0914779
-0.101297
-0.0995155
-0.086361
-0.0661148
-0.0441963
-0.0230504
-0.00632358
0.00862041
0.0183475
0.0277989
0.0326584
0.0380847
0.0392771
0.0390876
0.034459
0.0246548
0.0122105
-0.00586047
-0.0190015
-0.0266523
-0.0205881
0.0134896
0.00843321
0.00162416
-0.00766171
-0.0202703
-0.0367142
-0.0564666
-0.0774239
-0.0960695
-0.108518
-0.112025
-0.105916
-0.0916209
-0.0727319
-0.0528673
-0.0346309
-0.0192009
-0.00671736
0.00319956
0.0109161
0.0167572
0.0209703
0.023946
0.0259726
0.027255
0.0276606
0.0267639
0.0239317
0.0182823
0.00897498
-0.00500244
-0.0235922
-0.0461395
-0.0690578
-0.0883131
-0.0981301
-0.0964658
-0.0835949
-0.0636508
-0.0420339
-0.0211468
-0.00460815
0.0101635
0.0198102
0.0291569
0.0339855
0.0393421
0.0405648
0.0403612
0.0358108
0.0259734
0.0134574
-0.00480448
-0.0183176
-0.0263281
-0.0204719
0.0160523
0.0110937
0.00447708
-0.00445962
-0.016492
-0.0320951
-0.0507903
-0.0706385
-0.0884155
-0.100574
-0.104403
-0.0988439
-0.0854571
-0.0675398
-0.0485745
-0.0310867
-0.0162344
-0.00417546
0.00543963
0.0129536
0.018669
0.0228049
0.0257201
0.02769
0.0289307
0.0292825
0.0283861
0.0256164
0.0200929
0.0109839
-0.00272486
-0.0209682
-0.0431262
-0.0656775
-0.0846832
-0.0944827
-0.0929468
-0.0803983
-0.0608469
-0.0396324
-0.0191017
-0.00282295
0.0117193
0.0212517
0.0304595
0.0352489
0.0405093
0.0417691
0.0415457
0.0371009
0.0272769
0.0147406
-0.00362728
-0.0174679
-0.0258159
-0.0202255
0.0186176
0.0138039
0.00743834
-0.00108442
-0.012478
-0.0271906
-0.0448035
-0.0635574
-0.0804971
-0.092272
-0.0961933
-0.0912615
-0.0788433
-0.0619923
-0.0440291
-0.0273792
-0.0131747
-0.00159451
0.00767718
0.0149569
0.0205241
0.0245684
0.0274165
0.0293252
0.0305042
0.0308255
0.0299494
-0.0145161
-0.0115257
-0.00836806
-0.00747567
-0.0042474
-0.00292907
)
;

boundaryField
{
    inlet
    {
        type            zeroGradient;
    }
    outlet
    {
        type            fixedValue;
        value           uniform 0;
    }
    cylinder
    {
        type            zeroGradient;
    }
    top
    {
        type            symmetryPlane;
    }
    bottom
    {
        type            symmetryPlane;
    }
    defaultFaces
    {
        type            empty;
    }
    procBoundary11to7
    {
        type            processor;
        value           nonuniform List<scalar> 
59
(
-0.0723284
-0.0647898
-0.0601719
-0.0583663
-0.0595076
-0.063822
-0.0711675
-0.080613
-0.0903583
-0.0980871
-0.101654
-0.099906
-0.0932594
-0.0834523
-0.0728006
-0.0632518
-0.0558853
-0.0510944
-0.0490574
-0.0499615
-0.0538059
-0.0600418
-0.067351
-0.0737678
-0.0772616
-0.076523
-0.0717103
-0.0641821
-0.0558891
-0.0484855
-0.0429365
-0.0397981
-0.0392595
-0.0411862
-0.0447905
-0.048668
-0.0512344
-0.0511709
-0.0483136
-0.0434766
-0.0379883
-0.0333464
-0.0301726
-0.0294341
-0.0306418
-0.0333322
-0.0360083
-0.0370669
-0.0357343
-0.0318772
-0.0260414
-0.020529
-0.020529
-0.01553
-0.0118914
-0.00796475
-0.00674992
-0.00331551
-0.00225669
)
;
    }
    procBoundary11to10
    {
        type            processor;
        value           nonuniform List<scalar> 
36
(
-0.0803807
-0.0776913
-0.0748628
-0.071903
-0.0688207
-0.0656257
-0.0623287
-0.0589416
-0.0554767
-0.051947
-0.0483663
-0.0447486
-0.041108
-0.037459
-0.0338156
-0.0301919
-0.0266013
-0.0230567
-0.0195704
-0.0161537
-0.0140216
-0.0140216
-0.0109171
-0.00787957
-0.00491896
-0.00204412
0.000737869
0.00342296
0.00599483
0.00839515
0.0107282
0.0116984
0.0116984
0.0147141
0.0172685
0.0197875
)
;
    }
    procBoundary11to14
    {
        type            processor;
        value           uniform 0.022275;
    }
    procBoundary11to15
    {
        type            processor;
        value           nonuniform List<scalar> 
57
(
0.0272672
0.0219078
0.0130536
-0.000310663
-0.018117
-0.0397892
-0.0618937
-0.0805876
-0.0903074
-0.0888932
-0.0767239
-0.057674
-0.0369808
-0.0169155
-0.000974252
0.0132781
0.0226606
0.0316923
0.0364313
0.0415662
0.0428744
0.0426324
0.0383292
0.0285711
0.016068
-0.00231679
-0.0164406
-0.0250984
-0.0198331
0.0211158
0.0164863
0.0104182
0.0023622
-0.00833869
-0.0221145
-0.0386113
-0.0562303
-0.0722324
-0.0834849
-0.0874707
-0.0832045
-0.0718231
-0.056134
-0.0392655
-0.0235329
-0.0100401
0.00101141
0.0099006
0.0169155
0.0223113
0.0262478
0.0290172
0.0308542
0.0319669
0.0322597
0.0272672
0.0314091
)
;
    }
}


// ************************************************************************* //
