/*--------------------------------*- C++ -*----------------------------------*\
  =========                 |
  \\      /  F ield         | OpenFOAM: The Open Source CFD Toolbox
   \\    /   O peration     | Website:  https://openfoam.org
    \\  /    A nd           | Version:  7
     \\/     M anipulation  |
\*---------------------------------------------------------------------------*/
FoamFile
{
    version     2.0;
    format      ascii;
    class       volScalarField;
    location    "140";
    object      p;
}
// * * * * * * * * * * * * * * * * * * * * * * * * * * * * * * * * * * * * * //

dimensions      [0 2 -2 0 0 0 0];

internalField   nonuniform List<scalar> 
31800
(
-0.358338
-0.361064
-0.362428
-0.363443
-0.3643
-0.365081
-0.36588
-0.366758
-0.36774
-0.368831
-0.37002
-0.371285
-0.372607
-0.373973
-0.375384
-0.376871
-0.378494
-0.380363
-0.382635
-0.38552
-0.389257
-0.394102
-0.400268
-0.407709
-0.416275
-0.362338
-0.365233
-0.366727
-0.367896
-0.368942
-0.369949
-0.37101
-0.372179
-0.373477
-0.374898
-0.376415
-0.377987
-0.379566
-0.381101
-0.382546
-0.383869
-0.385064
-0.386161
-0.38724
-0.388441
-0.389955
-0.392032
-0.394926
-0.398648
-0.403247
-0.366632
-0.369656
-0.371264
-0.372578
-0.373812
-0.375046
-0.376375
-0.377845
-0.379472
-0.381237
-0.383101
-0.385001
-0.386861
-0.388589
-0.390089
-0.391266
-0.39204
-0.392357
-0.392212
-0.391659
-0.390828
-0.389951
-0.38931
-0.38894
-0.389097
-0.371222
-0.374329
-0.376033
-0.377482
-0.378898
-0.380361
-0.381961
-0.38374
-0.385704
-0.387827
-0.390054
-0.392302
-0.394463
-0.396408
-0.397987
-0.399042
-0.399411
-0.398955
-0.39757
-0.395223
-0.391968
-0.388002
-0.383622
-0.378859
-0.37418
-0.376102
-0.379244
-0.381022
-0.382595
-0.384186
-0.385875
-0.387747
-0.389838
-0.392147
-0.394638
-0.39724
-0.39985
-0.402332
-0.404514
-0.406195
-0.40715
-0.407136
-0.405921
-0.403304
-0.39915
-0.393429
-0.386292
-0.378038
-0.368678
-0.358857
-0.381256
-0.384384
-0.386214
-0.387896
-0.389654
-0.391563
-0.393704
-0.396108
-0.398764
-0.401626
-0.40461
-0.407593
-0.410408
-0.412844
-0.414645
-0.41552
-0.415145
-0.413193
-0.409361
-0.403411
-0.395222
-0.384886
-0.372696
-0.358648
-0.343468
-0.386661
-0.389725
-0.391584
-0.39336
-0.395271
-0.397392
-0.399796
-0.402508
-0.405508
-0.408741
-0.412109
-0.415467
-0.41862
-0.421317
-0.42325
-0.424059
-0.42334
-0.420673
-0.415652
-0.407935
-0.397309
-0.383798
-0.367685
-0.348985
-0.328311
-0.39229
-0.39524
-0.397104
-0.398954
-0.401004
-0.403324
-0.405981
-0.40899
-0.412326
-0.415922
-0.419666
-0.423394
-0.426881
-0.429838
-0.431903
-0.432651
-0.431599
-0.428234
-0.422051
-0.412609
-0.399603
-0.38299
-0.363034
-0.339852
-0.313638
-0.398104
-0.400893
-0.402737
-0.404643
-0.406813
-0.409316
-0.41221
-0.415502
-0.419158
-0.423102
-0.427208
-0.431291
-0.435097
-0.438299
-0.440486
-0.441166
-0.43978
-0.435726
-0.428404
-0.417283
-0.401977
-0.382374
-0.358713
-0.331355
-0.299669
-0.404062
-0.406646
-0.408446
-0.410385
-0.412655
-0.41532
-0.41843
-0.421985
-0.42594
-0.430209
-0.434652
-0.439064
-0.443165
-0.446587
-0.44887
-0.449462
-0.447727
-0.442981
-0.434538
-0.421785
-0.404269
-0.381828
-0.354643
-0.323534
-0.286585
-0.410117
-0.412458
-0.414188
-0.416137
-0.418483
-0.421287
-0.424588
-0.428378
-0.432604
-0.437167
-0.441915
-0.446621
-0.450978
-0.454582
-0.456924
-0.457392
-0.455281
-0.449829
-0.440274
-0.425935
-0.406307
-0.381208
-0.350717
-0.316395
-0.274359
-0.41622
-0.418282
-0.419921
-0.421855
-0.424251
-0.427164
-0.430626
-0.43462
-0.439081
-0.443901
-0.448911
-0.453866
-0.458432
-0.462168
-0.464519
-0.464816
-0.462289
-0.456106
-0.445439
-0.429559
-0.407927
-0.38038
-0.346816
-0.310018
-0.262744
-0.422321
-0.424076
-0.425599
-0.427494
-0.429911
-0.432902
-0.436491
-0.44065
-0.445306
-0.450338
-0.45556
-0.46071
-0.465426
-0.469234
-0.471534
-0.471602
-0.468609
-0.461663
-0.449885
-0.432512
-0.408991
-0.379241
-0.342798
-0.304261
-0.252496
-0.428368
-0.429796
-0.431182
-0.433012
-0.435418
-0.438453
-0.44213
-0.446411
-0.451214
-0.456406
-0.461785
-0.46707
-0.471872
-0.475682
-0.477861
-0.477634
-0.47412
-0.466377
-0.453486
-0.43468
-0.409394
-0.377718
-0.339203
-0.298358
-0.244048
-0.434313
-0.435399
-0.436631
-0.438368
-0.440732
-0.443773
-0.447494
-0.451851
-0.45675
-0.462045
-0.467521
-0.472873
-0.477689
-0.481428
-0.483412
-0.48282
-0.478727
-0.470153
-0.456154
-0.435976
-0.409081
-0.375752
-0.335428
-0.292976
-0.23724
-0.440111
-0.440849
-0.441909
-0.443528
-0.445817
-0.448822
-0.452544
-0.456926
-0.461866
-0.467205
-0.47271
-0.47806
-0.482816
-0.486406
-0.488119
-0.487091
-0.482361
-0.472924
-0.457829
-0.436361
-0.408019
-0.373323
-0.331528
-0.288166
-0.231824
-0.445724
-0.446114
-0.446986
-0.448463
-0.450642
-0.453572
-0.457245
-0.4616
-0.466523
-0.471843
-0.477312
-0.482588
-0.487208
-0.490573
-0.491935
-0.490401
-0.48498
-0.474655
-0.458486
-0.435819
-0.406212
-0.370438
-0.327586
-0.283871
-0.227679
-0.451116
-0.451166
-0.451841
-0.453151
-0.455186
-0.457997
-0.461574
-0.465847
-0.470695
-0.475932
-0.481298
-0.486429
-0.490839
-0.493901
-0.494839
-0.492732
-0.48657
-0.475337
-0.458125
-0.434363
-0.403689
-0.367124
-0.323665
-0.280027
-0.224686
-0.456263
-0.455988
-0.456455
-0.457576
-0.459434
-0.462085
-0.465516
-0.469653
-0.474367
-0.47946
-0.484655
-0.489572
-0.4937
-0.496388
-0.49683
-0.494088
-0.487141
-0.474989
-0.456773
-0.432028
-0.400498
-0.363422
-0.319805
-0.27658
-0.222694
-0.461147
-0.460566
-0.460819
-0.461731
-0.463381
-0.46583
-0.469067
-0.473015
-0.477537
-0.482426
-0.487388
-0.492024
-0.495804
-0.498048
-0.497929
-0.494494
-0.486722
-0.473646
-0.454476
-0.428868
-0.396697
-0.359379
-0.316024
-0.273488
-0.221527
-0.465759
-0.464897
-0.464933
-0.465618
-0.467029
-0.469238
-0.472235
-0.475942
-0.480219
-0.484845
-0.489515
-0.49381
-0.497176
-0.498913
-0.498173
-0.493991
-0.485362
-0.471364
-0.451299
-0.424952
-0.392357
-0.355048
-0.312324
-0.270711
-0.220998
-0.470101
-0.468984
-0.468802
-0.469243
-0.470389
-0.472322
-0.475035
-0.478455
-0.482434
-0.486747
-0.49107
-0.494966
-0.497861
-0.499031
-0.497611
-0.492634
-0.48312
-0.468209
-0.447315
-0.420362
-0.387553
-0.350486
-0.308698
-0.268208
-0.220923
-0.47418
-0.472839
-0.472438
-0.472624
-0.473481
-0.475105
-0.477496
-0.480584
-0.484221
-0.48817
-0.492096
-0.495542
-0.497912
-0.498459
-0.496304
-0.490488
-0.480066
-0.46426
-0.442612
-0.415187
-0.382364
-0.34575
-0.305132
-0.265931
-0.221132
-0.478016
-0.476479
-0.475863
-0.475782
-0.476331
-0.477617
-0.479652
-0.482371
-0.485623
-0.489167
-0.492651
-0.495599
-0.497391
-0.497261
-0.49432
-0.487622
-0.476276
-0.459602
-0.437283
-0.409523
-0.376872
-0.340893
-0.301615
-0.263825
-0.221476
-0.481635
-0.47993
-0.479102
-0.478746
-0.47897
-0.479896
-0.481546
-0.483862
-0.486696
-0.489796
-0.492798
-0.495203
-0.496367
-0.495507
-0.491728
-0.48411
-0.471831
-0.454325
-0.431428
-0.403472
-0.371158
-0.335963
-0.298137
-0.261833
-0.221831
-0.48507
-0.483222
-0.482186
-0.481551
-0.481437
-0.481984
-0.483226
-0.485114
-0.487498
-0.490122
-0.492603
-0.494421
-0.494909
-0.493264
-0.488596
-0.480025
-0.466815
-0.448526
-0.42515
-0.397132
-0.3653
-0.330997
-0.294688
-0.259889
-0.222082
-0.488361
-0.486391
-0.48515
-0.484232
-0.483773
-0.483928
-0.484745
-0.486183
-0.488094
-0.490212
-0.492136
-0.493324
-0.493083
-0.490598
-0.484993
-0.475441
-0.461313
-0.442303
-0.418554
-0.390604
-0.359371
-0.326027
-0.291254
-0.257898
-0.222084
-0.491553
-0.489476
-0.488034
-0.486831
-0.486022
-0.485777
-0.486157
-0.48713
-0.488547
-0.490132
-0.491464
-0.491975
-0.49095
-0.487569
-0.480981
-0.470433
-0.455411
-0.435755
-0.411742
-0.383983
-0.35344
-0.321092
-0.287829
-0.255706
-0.221645
-0.494696
-0.49252
-0.490878
-0.489391
-0.48823
-0.487581
-0.487518
-0.488015
-0.48892
-0.489945
-0.490647
-0.490432
-0.488566
-0.484232
-0.476621
-0.46507
-0.449196
-0.42898
-0.404814
-0.377357
-0.347573
-0.316247
-0.284428
-0.253173
-0.220749
-0.497839
-0.495565
-0.493723
-0.491953
-0.490442
-0.48939
-0.488881
-0.488893
-0.48927
-0.489707
-0.489739
-0.488744
-0.485977
-0.480634
-0.47197
-0.459426
-0.442754
-0.422071
-0.397857
-0.3708
-0.341824
-0.311562
-0.281114
-0.250451
-0.219855
-0.501035
-0.498655
-0.496612
-0.494561
-0.492702
-0.491249
-0.490295
-0.489816
-0.489648
-0.489467
-0.488782
-0.48695
-0.483219
-0.47682
-0.467082
-0.453568
-0.436167
-0.415112
-0.390951
-0.364371
-0.336233
-0.307074
-0.277942
-0.248174
-0.219645
-0.504333
-0.501832
-0.499585
-0.497253
-0.495052
-0.493204
-0.491804
-0.490827
-0.490095
-0.489261
-0.487809
-0.485078
-0.480324
-0.472826
-0.46201
-0.447565
-0.42951
-0.408178
-0.384154
-0.358109
-0.330826
-0.30277
-0.274878
-0.246529
-0.220018
-0.50778
-0.505138
-0.50268
-0.500069
-0.49753
-0.49529
-0.493446
-0.491962
-0.490643
-0.489117
-0.486842
-0.483148
-0.477314
-0.468687
-0.456801
-0.441476
-0.42285
-0.40133
-0.377515
-0.352039
-0.325607
-0.298624
-0.271932
-0.244996
-0.220029
-0.511419
-0.508608
-0.505931
-0.50304
-0.500167
-0.497541
-0.495251
-0.493248
-0.491314
-0.489048
-0.48589
-0.48117
-0.474208
-0.464434
-0.451501
-0.435359
-0.416244
-0.394615
-0.371061
-0.346173
-0.320572
-0.29461
-0.26904
-0.243398
-0.219745
-0.515289
-0.512275
-0.509368
-0.506196
-0.502992
-0.499981
-0.497241
-0.494702
-0.492117
-0.489061
-0.484957
-0.479151
-0.471019
-0.460094
-0.446152
-0.429261
-0.409736
-0.388065
-0.364811
-0.340509
-0.315703
-0.290698
-0.266161
-0.241674
-0.219106
-0.51942
-0.516166
-0.513018
-0.509562
-0.506027
-0.50263
-0.49943
-0.496331
-0.493055
-0.489151
-0.484036
-0.477088
-0.467759
-0.455692
-0.440789
-0.42322
-0.40336
-0.3817
-0.358767
-0.335038
-0.310982
-0.286861
-0.263264
-0.239799
-0.218168
-0.523838
-0.520305
-0.516902
-0.513156
-0.509287
-0.5055
-0.501826
-0.498136
-0.49412
-0.489305
-0.483117
-0.474979
-0.464436
-0.45125
-0.435443
-0.417267
-0.397136
-0.375528
-0.352924
-0.329743
-0.306386
-0.283076
-0.260327
-0.237771
-0.21696
-0.528561
-0.524708
-0.521035
-0.516992
-0.512784
-0.508596
-0.504426
-0.500107
-0.495297
-0.489507
-0.482183
-0.472816
-0.461056
-0.446786
-0.430134
-0.411421
-0.391073
-0.369547
-0.34727
-0.324605
-0.301892
-0.279321
-0.257336
-0.235591
-0.21551
-0.5336
-0.529388
-0.525429
-0.521081
-0.516525
-0.51192
-0.507225
-0.502232
-0.496565
-0.489733
-0.481217
-0.470592
-0.457623
-0.442313
-0.42488
-0.405691
-0.385173
-0.363746
-0.341785
-0.3196
-0.297478
-0.275577
-0.25428
-0.233264
-0.213837
-0.53896
-0.53435
-0.530091
-0.525426
-0.520509
-0.515466
-0.510211
-0.504488
-0.497899
-0.489956
-0.480198
-0.468298
-0.45414
-0.437839
-0.419689
-0.400081
-0.379428
-0.358109
-0.336447
-0.314705
-0.29312
-0.271826
-0.251149
-0.230792
-0.211955
-0.54464
-0.539598
-0.535022
-0.530029
-0.524734
-0.519226
-0.513364
-0.506852
-0.499267
-0.490148
-0.479106
-0.465922
-0.450606
-0.43337
-0.414562
-0.394585
-0.373824
-0.352615
-0.331233
-0.309895
-0.288797
-0.268052
-0.247936
-0.228176
-0.209874
-0.550635
-0.545127
-0.540221
-0.534886
-0.529193
-0.523185
-0.516664
-0.509291
-0.500637
-0.490279
-0.477917
-0.463455
-0.447019
-0.428904
-0.409496
-0.389192
-0.368344
-0.347242
-0.326116
-0.305146
-0.284489
-0.264241
-0.244632
-0.225416
-0.207601
-0.556931
-0.550931
-0.545682
-0.539991
-0.533874
-0.527323
-0.520082
-0.511772
-0.501971
-0.490315
-0.47661
-0.460885
-0.443373
-0.424436
-0.404481
-0.383885
-0.362963
-0.341963
-0.321071
-0.300433
-0.280175
-0.260378
-0.24123
-0.222512
-0.205142
-0.563511
-0.556996
-0.551394
-0.54533
-0.538759
-0.531616
-0.523584
-0.514256
-0.503231
-0.490226
-0.475164
-0.4582
-0.439661
-0.419958
-0.399502
-0.378644
-0.35766
-0.336752
-0.316072
-0.295734
-0.275838
-0.256451
-0.237723
-0.219463
-0.202501
-0.570355
-0.563307
-0.557342
-0.550888
-0.543827
-0.536033
-0.527132
-0.5167
-0.504377
-0.489978
-0.473557
-0.455385
-0.435871
-0.415457
-0.394543
-0.373448
-0.352406
-0.331582
-0.311092
-0.291026
-0.271459
-0.252445
-0.234102
-0.216266
-0.19968
-0.577434
-0.569842
-0.563505
-0.55664
-0.54905
-0.540539
-0.530683
-0.519057
-0.505366
-0.48954
-0.471766
-0.452426
-0.431991
-0.410916
-0.389583
-0.368272
-0.347176
-0.326426
-0.306108
-0.286288
-0.267022
-0.248351
-0.230363
-0.212921
-0.196681
-0.584715
-0.576571
-0.569857
-0.56256
-0.554391
-0.545089
-0.534187
-0.521279
-0.506156
-0.48888
-0.469771
-0.449307
-0.428004
-0.406318
-0.384598
-0.363089
-0.341943
-0.321258
-0.301096
-0.281501
-0.26251
-0.244155
-0.226496
-0.209423
-0.193506
-0.59216
-0.583462
-0.576366
-0.56861
-0.559809
-0.549635
-0.537592
-0.523315
-0.506705
-0.487968
-0.467549
-0.44601
-0.423893
-0.40164
-0.379566
-0.357873
-0.33668
-0.316054
-0.296033
-0.276644
-0.257908
-0.239847
-0.222496
-0.20577
-0.190155
-0.599723
-0.590476
-0.582991
-0.574748
-0.565254
-0.55412
-0.540838
-0.525111
-0.506971
-0.486772
-0.465079
-0.442517
-0.419638
-0.39686
-0.374459
-0.352598
-0.331361
-0.310788
-0.290898
-0.2717
-0.253203
-0.235416
-0.218356
-0.201959
-0.186628
-0.607352
-0.597565
-0.589687
-0.580923
-0.570669
-0.558482
-0.543865
-0.526614
-0.506912
-0.485262
-0.462337
-0.438806
-0.415217
-0.391955
-0.369254
-0.347237
-0.325959
-0.305437
-0.285669
-0.266652
-0.24838
-0.230853
-0.21407
-0.197986
-0.182925
-0.61499
-0.604676
-0.5964
-0.587078
-0.57599
-0.562654
-0.546608
-0.52777
-0.506487
-0.48341
-0.459301
-0.434857
-0.410608
-0.386899
-0.363923
-0.341765
-0.320452
-0.299979
-0.280329
-0.261484
-0.243426
-0.226147
-0.209631
-0.193849
-0.179044
-0.622571
-0.61175
-0.603069
-0.593146
-0.581146
-0.566564
-0.549001
-0.528525
-0.505656
-0.481185
-0.455946
-0.430646
-0.405786
-0.381668
-0.35844
-0.336156
-0.314815
-0.294393
-0.274858
-0.25618
-0.238331
-0.221291
-0.205033
-0.189543
-0.174987
-0.630024
-0.618719
-0.609625
-0.599055
-0.586061
-0.570137
-0.550979
-0.528827
-0.504381
-0.478559
-0.452248
-0.42615
-0.400728
-0.376235
-0.352781
-0.330386
-0.309026
-0.288659
-0.26924
-0.250726
-0.233081
-0.216276
-0.200271
-0.185066
-0.17075
-0.637272
-0.62551
-0.615993
-0.604725
-0.590653
-0.573295
-0.552475
-0.528625
-0.502624
-0.475502
-0.448183
-0.421345
-0.395407
-0.370576
-0.346921
-0.324432
-0.303064
-0.282758
-0.263458
-0.24511
-0.227668
-0.211093
-0.19534
-0.180413
-0.166335
-0.64423
-0.632042
-0.622092
-0.61007
-0.594837
-0.57596
-0.553424
-0.527869
-0.500349
-0.471988
-0.443724
-0.416205
-0.3898
-0.364666
-0.340836
-0.318271
-0.296908
-0.276673
-0.257497
-0.239318
-0.22208
-0.205736
-0.190234
-0.175583
-0.16174
-0.65081
-0.638232
-0.627834
-0.615002
-0.598524
-0.578052
-0.553762
-0.526512
-0.497521
-0.467986
-0.438847
-0.410707
-0.383881
-0.358482
-0.334503
-0.311883
-0.29054
-0.270387
-0.251344
-0.233339
-0.21631
-0.200199
-0.18495
-0.170573
-0.156964
-0.65692
-0.643987
-0.633126
-0.619427
-0.601624
-0.579494
-0.553427
-0.524508
-0.494105
-0.463471
-0.433527
-0.404826
-0.377628
-0.351998
-0.3279
-0.305248
-0.283942
-0.263885
-0.244986
-0.227164
-0.210349
-0.194474
-0.179482
-0.165379
-0.152008
-0.662463
-0.649216
-0.637874
-0.623248
-0.60405
-0.58021
-0.552363
-0.521816
-0.490071
-0.458416
-0.427739
-0.398537
-0.371015
-0.345195
-0.321008
-0.298347
-0.277099
-0.257153
-0.238411
-0.220782
-0.204188
-0.188557
-0.173828
-0.16
-0.146871
-0.667341
-0.653819
-0.641979
-0.626369
-0.605712
-0.580128
-0.550514
-0.518395
-0.485387
-0.452793
-0.421459
-0.391819
-0.364022
-0.338051
-0.313807
-0.291164
-0.269995
-0.250179
-0.231608
-0.214185
-0.197823
-0.182443
-0.167985
-0.154434
-0.141554
-0.671453
-0.6577
-0.645341
-0.628693
-0.606524
-0.579179
-0.547829
-0.514207
-0.480025
-0.44658
-0.414664
-0.384648
-0.356628
-0.330546
-0.306279
-0.283683
-0.262617
-0.242952
-0.224569
-0.207365
-0.191247
-0.176129
-0.161949
-0.148681
-0.136059
-0.674699
-0.660758
-0.647862
-0.630127
-0.606406
-0.577299
-0.544261
-0.50922
-0.473958
-0.439752
-0.407332
-0.377005
-0.348813
-0.322664
-0.298409
-0.27589
-0.254954
-0.235461
-0.217285
-0.200316
-0.184455
-0.16961
-0.155719
-0.142741
-0.130392
-0.676981
-0.662894
-0.649441
-0.630578
-0.605279
-0.57443
-0.539768
-0.503402
-0.467162
-0.432288
-0.399443
-0.368869
-0.340559
-0.314387
-0.290183
-0.267773
-0.246994
-0.227697
-0.209749
-0.193033
-0.177444
-0.162883
-0.149292
-0.136615
-0.124556
-0.6782
-0.664011
-0.649985
-0.62996
-0.603072
-0.570516
-0.534313
-0.496726
-0.459613
-0.424167
-0.390978
-0.360224
-0.331851
-0.305702
-0.281588
-0.259322
-0.23873
-0.219654
-0.201956
-0.185511
-0.170209
-0.155946
-0.142667
-0.130299
-0.118544
-0.678264
-0.664016
-0.649402
-0.62819
-0.59972
-0.565512
-0.527862
-0.489167
-0.451293
-0.415372
-0.381921
-0.351054
-0.322674
-0.296596
-0.272614
-0.250527
-0.230153
-0.211326
-0.1939
-0.177747
-0.162749
-0.148799
-0.135844
-0.12379
-0.112324
-0.677084
-0.662819
-0.647606
-0.625193
-0.595164
-0.559375
-0.520386
-0.480705
-0.442185
-0.405889
-0.372257
-0.341345
-0.313016
-0.28706
-0.263252
-0.241382
-0.221257
-0.202708
-0.18558
-0.169739
-0.155063
-0.141442
-0.128826
-0.117093
-0.105873
-0.674577
-0.660336
-0.644517
-0.620901
-0.589352
-0.552072
-0.511863
-0.471322
-0.432273
-0.395702
-0.361975
-0.331088
-0.302869
-0.277084
-0.253495
-0.23188
-0.21204
-0.193796
-0.176992
-0.161486
-0.147151
-0.133876
-0.121615
-0.110214
-0.0992558
-0.670665
-0.656489
-0.640062
-0.615255
-0.582243
-0.543573
-0.502275
-0.461007
-0.421548
-0.384804
-0.351064
-0.320273
-0.292225
-0.266663
-0.243338
-0.222018
-0.202497
-0.184591
-0.168136
-0.152988
-0.139014
-0.126106
-0.114216
-0.103129
-0.0925246
-0.66528
-0.651209
-0.634178
-0.608204
-0.5738
-0.533858
-0.491609
-0.449749
-0.410001
-0.373186
-0.339519
-0.308896
-0.281078
-0.255793
-0.232779
-0.211794
-0.192628
-0.17509
-0.159013
-0.144248
-0.130656
-0.118132
-0.106625
-0.0958693
-0.0856467
-0.658362
-0.644434
-0.626809
-0.599704
-0.563997
-0.522911
-0.479856
-0.437544
-0.397629
-0.360844
-0.327335
-0.296951
-0.269426
-0.244472
-0.221816
-0.20121
-0.182435
-0.165298
-0.149626
-0.135266
-0.122079
-0.109958
-0.0988464
-0.0884413
-0.0786131
-0.649857
-0.636111
-0.617909
-0.589724
-0.552815
-0.510725
-0.467014
-0.424391
-0.38443
-0.347777
-0.314512
-0.28444
-0.257269
-0.2327
-0.210449
-0.190268
-0.17192
-0.155215
-0.139976
-0.126048
-0.113286
-0.101588
-0.0908876
-0.0808486
-0.0714259
-0.639725
-0.626197
-0.607443
-0.578241
-0.540245
-0.497298
-0.453086
-0.410293
-0.370408
-0.333988
-0.301051
-0.271359
-0.244612
-0.220483
-0.198688
-0.178967
-0.161086
-0.144847
-0.13007
-0.116598
-0.104283
-0.0930271
-0.0827544
-0.0730944
-0.064091
-0.627934
-0.614659
-0.595384
-0.565241
-0.526283
-0.482635
-0.438079
-0.395259
-0.355569
-0.319482
-0.286955
-0.257714
-0.231467
-0.207827
-0.186533
-0.167316
-0.149939
-0.134199
-0.119913
-0.106922
-0.0950767
-0.0842821
-0.0744528
-0.065184
-0.0566153
-0.61446
-0.601475
-0.581719
-0.550719
-0.510937
-0.466748
-0.422006
-0.379299
-0.339923
-0.304268
-0.272236
-0.243533
-0.217818
-0.194735
-0.173993
-0.155323
-0.138487
-0.123278
-0.109513
-0.0970274
-0.0856739
-0.0753601
-0.0659897
-0.0571241
-0.0490062
-0.599295
-0.586633
-0.566441
-0.534683
-0.49422
-0.449655
-0.404886
-0.362429
-0.323484
-0.288359
-0.256909
-0.228807
-0.203694
-0.181218
-0.161076
-0.142996
-0.126739
-0.112094
-0.0988775
-0.0869231
-0.0760831
-0.0662694
-0.0573729
-0.0489225
-0.0412716
-0.582436
-0.570132
-0.549558
-0.517146
-0.476154
-0.431378
-0.386741
-0.344672
-0.306271
-0.271775
-0.240984
-0.213552
-0.189105
-0.167289
-0.147795
-0.130347
-0.114705
-0.100657
-0.0880173
-0.0766186
-0.0663137
-0.0570191
-0.0486111
-0.0405878
-0.03342
-0.563895
-0.551982
-0.531086
-0.498133
-0.456767
-0.41195
-0.367599
-0.32605
-0.288308
-0.25453
-0.224479
-0.197786
-0.174066
-0.152963
-0.134163
-0.117389
-0.102398
-0.0889784
-0.0769434
-0.0661246
-0.0563763
-0.0476191
-0.0397138
-0.0321297
-0.0254605
-0.543692
-0.532201
-0.511048
-0.477673
-0.436092
-0.39141
-0.347496
-0.306593
-0.269616
-0.236648
-0.207415
-0.181528
-0.158595
-0.138257
-0.120197
-0.104136
-0.0898319
-0.0770715
-0.0656683
-0.0554532
-0.0462822
-0.0380805
-0.0306916
-0.0235588
-0.0174027
-0.521858
-0.510822
-0.489482
-0.455809
-0.414178
-0.369795
-0.326464
-0.286335
-0.250226
-0.218156
-0.189816
-0.164801
-0.142713
-0.123189
-0.105913
-0.0906047
-0.0770215
-0.0649507
-0.0542057
-0.0446172
-0.0360441
-0.0284151
-0.0215559
-0.0148867
-0.00925739
-0.498435
-0.487882
-0.466432
-0.432601
-0.391103
-0.347117
-0.304537
-0.265309
-0.23017
-0.199084
-0.171709
-0.147629
-0.12644
-0.10778
-0.0913307
-0.0768129
-0.0639838
-0.0526317
-0.0425703
-0.0336309
-0.0256753
-0.0186358
-0.0123191
-0.00612582
-0.00103594
-0.47347
-0.46343
-0.441952
-0.408119
-0.366948
-0.323397
-0.281755
-0.243557
-0.209486
-0.179463
-0.153123
-0.130038
-0.109803
-0.0920535
-0.0764717
-0.0627802
-0.0507369
-0.0401313
-0.030778
-0.0225092
-0.0151903
-0.0087562
-0.00299413
0.0027104
0.00724881
-0.44702
-0.437528
-0.41611
-0.382404
-0.341553
-0.298883
-0.258193
-0.221124
-0.188212
-0.15933
-0.134091
-0.11206
-0.0928281
-0.0760333
-0.0613583
-0.0485274
-0.0373001
-0.0274675
-0.0188456
-0.011268
-0.00460432
0.00120922
0.00640481
0.0116071
0.0155829
-0.419149
-0.410249
-0.388993
-0.355475
-0.31518
-0.273482
-0.233899
-0.198059
-0.166392
-0.138723
-0.114648
-0.0937245
-0.0755444
-0.0597462
-0.046015
-0.034077
-0.0236941
-0.0146594
-0.00679085
7.59906e-05
0.00606668
0.0112451
0.0158625
0.0205472
0.0239501
-0.38993
-0.381675
-0.360684
-0.327378
-0.287899
-0.247271
-0.208929
-0.174412
-0.144071
-0.117684
-0.0948307
-0.0750664
-0.0579828
-0.0432206
-0.0304676
-0.0194526
-0.0099405
-0.001727
0.00536782
0.0115054
0.0168062
0.0213356
0.0253626
0.0295106
0.0323278
-0.359441
-0.351885
-0.331101
-0.298382
-0.259764
-0.220324
-0.18334
-0.150239
-0.121297
-0.0962553
-0.0746791
-0.0561216
-0.040176
-0.0264862
-0.0147432
-0.00467916
0.00393785
0.0113089
0.0176112
0.0230024
0.0275974
0.0314648
0.0348889
0.0384757
0.0406851
-0.327757
-0.320992
-0.300459
-0.268468
-0.230852
-0.192718
-0.157196
-0.125595
-0.0981223
-0.0744836
-0.0542348
-0.0369277
-0.0221585
-0.00957446
0.00112952
0.0102174
0.0179172
0.0244265
0.0299196
0.0345487
0.0384227
0.0416164
0.0444275
0.0474264
0.0490009
-0.29496
-0.289057
-0.268932
-0.237718
-0.201242
-0.164528
-0.130563
-0.10054
-0.0745989
-0.0524169
-0.0335412
-0.0175245
-0.00396613
0.00748205
0.0171209
0.0252099
0.0319729
0.0376037
0.0422726
0.0461252
0.0492634
0.0517738
0.0539681
0.0563543
0.0572726
-0.261251
-0.256171
-0.236567
-0.206232
-0.171019
-0.135833
-0.103511
-0.0751356
-0.0507827
-0.0301052
-0.0126438
0.00204705
0.0143637
0.0246493
0.0332
0.0402704
0.0460797
0.0508174
0.0546495
0.0577122
0.0601009
0.0619236
0.0635019
0.0652274
0.0654066
-0.226781
-0.222388
-0.203452
-0.174108
-0.140272
-0.106711
-0.0761112
-0.0494449
-0.0267309
-0.00760033
0.00841049
0.0217443
0.0327922
0.0418923
0.049335
0.05537
0.0602112
0.0640443
0.0670291
0.0692907
0.0709215
0.0720631
0.0730181
0.0739267
0.0730541
-0.191562
-0.187882
-0.169694
-0.141447
-0.109094
-0.0772453
-0.0484365
-0.0235337
-0.00250276
0.0150443
0.0295734
0.0415234
0.0512799
0.0591748
0.0654931
0.0704788
0.0743408
0.0772601
0.0793895
0.0808429
0.0817192
0.0822019
0.0825009
0.0822934
0.079907
-0.155704
-0.152782
-0.135402
-0.108352
-0.0775762
-0.0475195
-0.0205619
0.00253074
0.0218414
0.0377741
0.0507954
0.0613396
0.0697858
0.0764599
0.0816407
0.0855664
0.0884408
0.0904397
0.0917081
0.0923516
0.0924876
0.0923352
0.0919125
0.09037
0.0867527
-0.119335
-0.117204
-0.100691
-0.0749287
-0.0458158
-0.0176187
0.00743623
0.0286799
0.0462397
0.0605331
0.0720259
0.0811468
0.0882684
0.0937098
0.0977435
0.100602
0.102483
0.103557
0.103961
0.103798
0.103208
0.102413
0.101176
0.0983755
0.0960619
-0.082583
-0.0812661
-0.065679
-0.0412847
-0.0139092
0.0123703
0.0354805
0.0548442
0.0706295
0.0832646
0.0932136
0.100899
0.106685
0.110886
0.113767
0.115553
0.116438
0.116586
0.116126
0.115162
0.113849
0.11237
0.110312
0.106808
0.105315
-0.0455738
-0.0450898
-0.0304821
-0.00752809
0.018046
0.0423603
0.0634927
0.0809534
0.0949473
0.105911
0.114306
0.120548
0.124994
0.12795
0.129675
0.130388
0.130277
0.129499
0.128179
0.12642
0.124384
0.122202
0.119399
0.115436
0.114051
-0.00843538
-0.00879838
0.00478117
0.0262322
0.0499518
0.0722636
0.0913942
0.106937
0.119129
0.128415
0.135252
0.140047
0.143151
0.144863
0.145433
0.145075
0.14397
0.14227
0.140094
0.137548
0.134788
0.131902
0.128429
0.124075
0.122476
0.0287039
0.0274841
0.0399921
0.0598874
0.08171
0.101992
0.119106
0.132723
0.143111
0.150719
0.155998
0.159348
0.161114
0.161584
0.161004
0.15958
0.157488
0.154872
0.151848
0.148521
0.145037
0.14146
0.137361
0.132599
0.130625
0.0657156
0.0636328
0.0750324
0.0933287
0.113223
0.131458
0.14655
0.158242
0.166829
0.172763
0.176491
0.178404
0.178839
0.178076
0.176354
0.173872
0.170801
0.167278
0.163415
0.159314
0.155113
0.150858
0.146158
0.140963
0.138529
0.102471
0.0995234
0.109784
0.126448
0.144393
0.160575
0.173646
0.183422
0.190219
0.194491
0.196679
0.197167
0.196282
0.194298
0.191446
0.187919
0.183879
0.17946
0.174769
0.169905
0.164995
0.160077
0.154789
0.149141
0.146202
0.138844
0.135032
0.144131
0.159139
0.175125
0.189256
0.200319
0.208193
0.213217
0.215845
0.216511
0.21559
0.213402
0.210213
0.206245
0.201687
0.196693
0.191392
0.185886
0.18027
0.174663
0.169094
0.163229
0.157117
0.153647
0.174707
0.170036
0.177956
0.191297
0.205323
0.217416
0.226491
0.232486
0.235761
0.236768
0.235934
0.233626
0.230156
0.22578
0.220717
0.215145
0.209214
0.203048
0.196742
0.190387
0.184096
0.177891
0.171459
0.164878
0.160862
0.209937
0.204416
0.211148
0.222817
0.234894
0.244971
0.252086
0.256234
0.25779
0.257205
0.254898
0.25123
0.246501
0.240964
0.234826
0.228262
0.221414
0.2144
0.207312
0.200235
0.193276
0.186447
0.179459
0.172413
0.167845
0.244412
0.238052
0.243595
0.253599
0.263748
0.27184
0.277031
0.279369
0.279242
0.2771
0.273354
0.268356
0.262398
0.255726
0.24854
0.241008
0.233266
0.225425
0.217574
0.209793
0.202181
0.194746
0.187216
0.17971
0.174588
0.278012
0.270829
0.275189
0.283543
0.291795
0.297942
0.301254
0.301826
0.300059
0.2964
0.291252
0.284959
0.277807
0.27003
0.261825
0.253352
0.24474
0.236098
0.227505
0.219041
0.210794
0.202769
0.194713
0.186757
0.181084
0.310621
0.302634
0.305824
0.312555
0.318949
0.323201
0.324685
0.323542
0.320184
0.315053
0.308547
0.300999
0.292688
0.283842
0.27465
0.265265
0.255813
0.246393
0.237084
0.227958
0.219097
0.210502
0.201938
0.193543
0.187326
0.342128
0.33336
0.335399
0.340541
0.345127
0.34754
0.347255
0.344456
0.33956
0.333009
0.325191
0.316432
0.307004
0.297127
0.286983
0.27672
0.266457
0.256289
0.246289
0.236526
0.227073
0.217928
0.208875
0.200057
0.193304
0.372424
0.3629
0.363816
0.367413
0.370248
0.370887
0.368901
0.364507
0.358135
0.350219
0.341141
0.331219
0.320718
0.309852
0.298795
0.287689
0.276648
0.265763
0.255101
0.244725
0.234705
0.225032
0.215513
0.206286
0.19901
0.401405
0.391155
0.390981
0.393085
0.394237
0.393175
0.389558
0.383641
0.375856
0.366636
0.356354
0.345322
0.333797
0.321985
0.310056
0.298146
0.286363
0.274793
0.263499
0.25254
0.241977
0.231802
0.221838
0.21222
0.204437
0.428972
0.418028
0.416805
0.417476
0.417019
0.414335
0.409168
0.401801
0.392675
0.382216
0.370791
0.358705
0.346206
0.333497
0.320741
0.308067
0.29558
0.283359
0.271465
0.259952
0.248875
0.238222
0.227837
0.217848
0.209575
0.455031
0.443429
0.441203
0.44051
0.438525
0.434307
0.427673
0.418939
0.408546
0.396917
0.384413
0.371331
0.357915
0.344359
0.330822
0.317428
0.304276
0.291442
0.278983
0.266947
0.255383
0.244281
0.2335
0.22316
0.214417
0.479493
0.467272
0.464096
0.462114
0.458691
0.45303
0.445022
0.435004
0.423424
0.410698
0.397183
0.383169
0.368893
0.354544
0.340276
0.326207
0.312433
0.299024
0.286035
0.273509
0.26149
0.249966
0.238816
0.228144
0.218956
0.502277
0.489477
0.485409
0.48222
0.477455
0.470451
0.461163
0.449952
0.437268
0.423524
0.409069
0.394189
0.379113
0.364027
0.349079
0.334383
0.32003
0.306088
0.292606
0.279625
0.267182
0.255266
0.243773
0.232793
0.223185
0.523305
0.50997
0.505073
0.500767
0.494761
0.486518
0.476051
0.463742
0.450041
0.43536
0.420039
0.404361
0.388549
0.372785
0.357211
0.341938
0.327052
0.312618
0.298682
0.285281
0.272447
0.260171
0.248362
0.237098
0.227097
0.542506
0.528683
0.523026
0.517696
0.510557
0.501185
0.489644
0.476334
0.461708
0.446173
0.430065
0.41366
0.397178
0.380796
0.364652
0.348853
0.333482
0.318599
0.304249
0.290465
0.277276
0.264671
0.252574
0.24105
0.230687
0.559817
0.545555
0.53921
0.532955
0.524796
0.514408
0.501902
0.487694
0.472238
0.455935
0.43912
0.422062
0.404979
0.388041
0.371384
0.355112
0.339305
0.324019
0.309297
0.295168
0.281657
0.268756
0.256401
0.244642
0.233949
0.575181
0.56053
0.553574
0.5465
0.537438
0.526152
0.512793
0.497791
0.481601
0.464621
0.447181
0.429547
0.411931
0.394503
0.377393
0.360702
0.344508
0.328866
0.313813
0.299379
0.285584
0.27242
0.259836
0.247867
0.236879
0.588547
0.57356
0.566073
0.558287
0.548443
0.536381
0.522286
0.506598
0.489773
0.472208
0.454227
0.436094
0.418019
0.400165
0.382663
0.36561
0.349081
0.333129
0.31779
0.30309
0.289047
0.275654
0.262872
0.25072
0.239472
0.599873
0.584603
0.576668
0.568284
0.557782
0.545068
0.530354
0.514091
0.496734
0.478676
0.460242
0.44169
0.423227
0.405016
0.387183
0.369825
0.353013
0.336799
0.321218
0.306294
0.292041
0.278454
0.265503
0.253196
0.241724
0.609122
0.593624
0.585327
0.576459
0.565428
0.552188
0.536977
0.52025
0.502464
0.484011
0.46521
0.44632
0.427544
0.409044
0.390943
0.373337
0.356296
0.33987
0.324092
0.308984
0.294559
0.280814
0.267725
0.25529
0.243634
0.616265
0.600597
0.592025
0.582791
0.57136
0.557723
0.542137
0.52506
0.50695
0.488197
0.46912
0.449973
0.43096
0.41224
0.393936
0.376141
0.358924
0.342334
0.326405
0.311156
0.296598
0.28273
0.269533
0.257
0.245199
0.621282
0.6055
0.596742
0.587262
0.575562
0.56166
0.545821
0.52851
0.510182
0.491227
0.471963
0.452642
0.433468
0.414598
0.396155
0.37823
0.360892
0.344189
0.328154
0.312806
0.298155
0.2842
0.270926
0.258322
0.246419
0.624159
0.60832
0.599467
0.589862
0.578025
0.563988
0.548022
0.530591
0.512153
0.493095
0.473733
0.454323
0.435064
0.416114
0.397596
0.379601
0.362196
0.34543
0.329336
0.313931
0.299226
0.28522
0.271901
0.259256
0.24729
0.624889
0.609052
0.600195
0.590584
0.578743
0.564704
0.548735
0.531301
0.512859
0.493796
0.474429
0.455011
0.435745
0.416786
0.398258
0.380252
0.362836
0.346058
0.32995