/*--------------------------------*- C++ -*----------------------------------*\
  =========                 |
  \\      /  F ield         | OpenFOAM: The Open Source CFD Toolbox
   \\    /   O peration     | Website:  https://openfoam.org
    \\  /    A nd           | Version:  7
     \\/     M anipulation  |
\*---------------------------------------------------------------------------*/
FoamFile
{
    version     2.0;
    format      ascii;
    class       surfaceScalarField;
    location    "140";
    object      phi;
}
// * * * * * * * * * * * * * * * * * * * * * * * * * * * * * * * * * * * * * //

dimensions      [0 3 -1 0 0 0 0];

internalField   nonuniform List<scalar> 
63130
(
-4.37148e-06
1.17328e-05
-7.36127e-06
-1.55659e-05
6.92523e-06
4.26916e-06
-3.25792e-05
-1.99488e-05
3.69621e-05
-5.47066e-05
-6.33448e-05
8.54722e-05
-8.14557e-05
-0.000118228
0.000144977
-0.000112463
-0.00018074
0.000211747
-0.000147414
-0.000248661
0.000283612
-0.00018599
-0.000321587
0.000360163
-0.000227839
-0.000400739
0.000442587
-0.000272565
-0.000488461
0.000533187
-0.000319726
-0.000587608
0.00063477
-0.000368814
-0.000700982
0.00075007
-0.000419208
-0.000830942
0.000881336
-0.000470115
-0.000979162
0.00103007
-0.000520482
-0.00114646
0.00119682
-0.000568912
-0.00133254
0.00138097
-0.000613572
-0.00153568
0.00158034
-0.000652117
-0.00175221
0.00179075
-0.000681628
-0.00197591
0.00200542
-0.00069861
-0.00219744
0.00221442
-0.000699069
-0.00240385
0.00240431
-0.00067869
-0.00257856
0.00255818
-0.000633158
-0.00270216
0.00265663
-0.000558702
-0.00275381
0.00267936
-0.00271171
0.00260642
-0.000453413
-4.61087e-06
1.63436e-05
-1.645e-05
1.87643e-05
-3.4466e-05
-1.93273e-06
-5.78995e-05
-3.99113e-05
-8.62047e-05
-8.99228e-05
-0.000118977
-0.000147968
-0.000155886
-0.000211752
-0.000196627
-0.000280846
-0.000240899
-0.000356467
-0.000288394
-0.000440966
-0.000338785
-0.000537217
-0.0003917
-0.000648067
-0.000446677
-0.000775965
-0.000503093
-0.000922746
-0.000560091
-0.00108946
-0.000616489
-0.00127614
-0.000670693
-0.00148148
-0.000720609
-0.00170229
-0.000763564
-0.00193295
-0.000796275
-0.00216473
-0.000814886
-0.00238524
-0.00081513
-0.00257831
-0.000792627
-0.00272466
-0.000743343
-0.0028031
-0.00278997
-0.000665084
-4.77641e-06
2.112e-05
-1.70846e-05
3.10725e-05
-3.58478e-05
1.68304e-05
-6.02635e-05
-1.54956e-05
-8.97371e-05
-6.04492e-05
-0.000123823
-0.000113881
-0.00016217
-0.000173405
-0.000204482
-0.000238534
-0.0002505
-0.000310449
-0.000299987
-0.000391479
-0.000352713
-0.000484491
-0.000408424
-0.000592356
-0.000466788
-0.000717601
-0.000527337
-0.000862198
-0.000589387
-0.00102741
-0.000651963
-0.00121356
-0.00071371
-0.00141973
-0.000772804
-0.0016432
-0.000826864
-0.00187889
-0.000872888
-0.0021187
-0.000907263
-0.00235087
-0.000925891
-0.00255968
-0.000924476
-0.00272608
-0.000898888
-0.00282868
-0.00284257
-0.000846286
-4.86119e-06
2.59812e-05
-1.74472e-05
4.36586e-05
-3.66808e-05
3.6064e-05
-6.17311e-05
9.55463e-06
-9.19609e-05
-3.02194e-05
-0.000126884
-7.8958e-05
-0.000166124
-0.000134165
-0.000209384
-0.000195275
-0.000256432
-0.000263401
-0.000307087
-0.000340824
-0.000361194
-0.000430384
-0.000418588
-0.000534962
-0.000479043
-0.000657146
-0.000542212
-0.000799028
-0.000607563
-0.000962057
-0.000674301
-0.00114683
-0.000741303
-0.00135273
-0.000807018
-0.00157748
-0.000869381
-0.00181653
-0.00092573
-0.00206235
-0.000972773
-0.00230382
-0.00100668
-0.00252578
-0.00102339
-0.00270937
-0.00101886
-0.00283321
-0.00287198
-0.000989455
-4.86063e-06
3.08419e-05
-1.75224e-05
5.63203e-05
-3.69353e-05
5.5477e-05
-6.22562e-05
3.48755e-05
-9.2813e-05
3.37404e-07
-0.00012808
-4.36914e-05
-0.000167649
-9.45966e-05
-0.000211212
-0.000151711
-0.000258551
-0.000216062
-0.000309517
-0.000289859
-0.000364003
-0.000375898
-0.000421906
-0.000477059
-0.000483073
-0.000595979
-0.000547245
-0.000734856
-0.000614001
-0.000895301
-0.000682701
-0.00107813
-0.00075242
-0.00128301
-0.000821871
-0.00150803
-0.000889314
-0.00174909
-0.000952461
-0.00199921
-0.0010084
-0.00224788
-0.00105366
-0.00248052
-0.0010845
-0.00267852
-0.0010972
-0.00282051
-0.00288184
-0.00108734
-4.77267e-06
3.56145e-05
-1.73026e-05
6.88503e-05
-3.65959e-05
7.47703e-05
-6.18146e-05
6.00942e-05
-9.22605e-05
3.07832e-05
-0.000127368
-8.58369e-06
-0.000166694
-5.52712e-05
-0.000209907
-0.000108498
-0.000256782
-0.000169186
-0.00030718
-0.00023946
-0.000361017
-0.000322061
-0.000418216
-0.00041986
-0.00047866
-0.000535535
-0.00054214
-0.000671376
-0.000608306
-0.000829136
-0.000676623
-0.00100981
-0.000746327
-0.0012133
-0.000816364
-0.00143799
-0.000885309
-0.00168014
-0.000951261
-0.00193326
-0.00101174
-0.0021874
-0.00106368
-0.00242858
-0.00110373
-0.00263846
-0.0011287
-0.00279555
-0.0028771
-0.00113344
-4.59787e-06
4.02124e-05
-1.67884e-05
8.10408e-05
-3.56621e-05
9.3644e-05
-6.04046e-05
8.48367e-05
-9.03005e-05
6.06792e-05
-0.000124747
2.58624e-05
-0.000163256
-1.67614e-05
-0.000205464
-6.62904e-05
-0.000251118
-0.000123532
-0.000300066
-0.000190513
-0.000352213
-0.000269914
-0.000407478
-0.000364595
-0.000465741
-0.000477272
-0.000526797
-0.00061032
-0.000590318
-0.000765614
-0.000655826
-0.0009443
-0.000722662
-0.00114647
-0.000789954
-0.0013707
-0.000856559
-0.00161354
-0.000920965
-0.00186885
-0.000981158
-0.00212721
-0.00103452
-0.00237522
-0.0010781
-0.00259489
-0.0011094
-0.00276424
-0.00286395
-0.00112255
-4.33943e-06
4.45518e-05
-1.59883e-05
9.26896e-05
-3.41484e-05
0.000111804
-5.80468e-05
0.000108735
-8.69608e-05
8.95932e-05
-0.000120251
5.91522e-05
-0.000157381
2.03694e-05
-0.000197938
-2.57344e-05
-0.000241625
-7.98439e-05
-0.000288249
-0.000143889
-0.000337677
-0.000220487
-0.000389786
-0.000312486
-0.000444415
-0.000422643
-0.000501318
-0.000553416
-0.00056014
-0.000706792
-0.000620397
-0.000884043
-0.000681474
-0.00108539
-0.000742615
-0.00130956
-0.000802906
-0.00155325
-0.000861196
-0.00181056
-0.000915959
-0.00207245
-0.000965096
-0.00232609
-0.00100599
-0.00255399
-0.00103703
-0.0027332
-0.0028496
-0.00105138
-4.00302e-06
4.85548e-05
-1.49186e-05
0.000103605
-3.20839e-05
0.000128969
-5.47843e-05
0.000131436
-8.22991e-05
0.000117108
-0.000113954
9.08071e-05
-0.000149161
5.55762e-05
-0.00018744
1.2545e-05
-0.000228438
-3.88466e-05
-0.00027189
-0.000100436
-0.000317598
-0.00017478
-0.000365363
-0.000264721
-0.000414945
-0.000373061
-0.000466015
-0.000502347
-0.000518136
-0.000654671
-0.000570761
-0.000831418
-0.000623249
-0.0010329
-0.000674888
-0.00125792
-0.000724914
-0.00150322
-0.000772487
-0.00176299
-0.000816561
-0.00202837
-0.000855646
-0.002287
-0.000887424
-0.00252221
-0.000911223
-0.0027094
-0.00284165
-0.00091917
-3.59669e-06
5.21515e-05
-1.36031e-05
0.000113612
-2.95116e-05
0.000144878
-5.06809e-05
0.000152605
-7.64014e-05
0.000142828
-0.000105967
0.000120372
-0.000138729
8.83385e-05
-0.00017414
4.79564e-05
-0.000211756
-1.23056e-06
-0.000251231
-6.09607e-05
-0.000292267
-0.000133744
-0.000334561
-0.000222427
-0.000377755
-0.000329867
-0.000421398
-0.000458704
-0.000464926
-0.000611142
-0.000507676
-0.000788668
-0.000548913
-0.000991667
-0.000587891
-0.00121894
-0.000623912
-0.0014672
-0.000656363
-0.00173053
-0.000684632
-0.0020001
-0.000707924
-0.00226371
-0.000724261
-0.00250587
-0.000733806
-0.00269986
-0.0028473
-0.000728158
-3.13056e-06
5.52821e-05
-1.20722e-05
0.000122553
-2.64871e-05
0.000159293
-4.58197e-05
0.000171938
-6.938e-05
0.000166389
-9.64326e-05
0.000147425
-0.000126267
0.000118173
-0.000158252
7.99407e-05
-0.000191845
3.2363e-05
-0.000226591
-2.62154e-05
-0.000262069
-9.82659e-05
-0.000297844
-0.000186652
-0.000333412
-0.000294299
-0.000368162
-0.000423953
-0.000401369
-0.000577936
-0.000432204
-0.000757833
-0.000459788
-0.000964083
-0.000483276
-0.00119546
-0.000501951
-0.00144852
-0.000515332
-0.00171715
-0.000523145
-0.00199229
-0.000525306
-0.00226155
-0.000520352
-0.00251083
-0.000509187
-0.00271102
-0.00287264
-0.000483844
-2.61646e-06
5.78986e-05
-1.03621e-05
0.000130299
-2.30771e-05
0.000172008
-4.03012e-05
0.000189162
-6.13714e-05
0.000187459
-8.5526e-05
0.00017158
-0.000111991
0.000144638
-0.00014004
0.00010799
-0.000169024
6.13465e-05
-0.000198354
3.11513e-06
-0.000227471
-6.91488e-05
-0.000255781
-0.000158342
-0.000282608
-0.000267472
-0.000307159
-0.000399402
-0.000328515
-0.00055658
-0.000345655
-0.000740692
-0.000357521
-0.000952217
-0.000363124
-0.00118985
-0.000361672
-0.00144998
-0.000352738
-0.00172609
-0.00033626
-0.00200877
-0.0003128
-0.00228501
-0.000281153
-0.00254248
-0.00024357
-0.00274861
-0.00291954
-0.000196676
-2.06757e-06
5.99661e-05
-8.5133e-06
0.000136745
-1.93576e-05
0.000182852
-3.42404e-05
0.000204044
-5.25318e-05
0.00020575
-7.34474e-05
0.000192495
-9.61475e-05
0.000167338
-0.000119809
0.000131651
-0.000143657
8.51951e-05
-0.000166965
2.64232e-05
-0.000189009
-4.71046e-05
-0.000209021
-0.00013833
-0.000226136
-0.000250357
-0.000239358
-0.00038618
-0.00024756
-0.000548378
-0.000249515
-0.000738737
-0.000243973
-0.000957759
-0.000229798
-0.00120403
-0.000206099
-0.00147368
-0.000172477
-0.00175971
-0.000128964
-0.00205228
-7.66854e-05
-0.00233729
-1.67545e-05
-0.00260241
6.09996e-05
-0.00282636
-0.00298185
0.000123319
-1.49792e-06
6.1464e-05
-6.56989e-06
0.000141817
-1.54113e-05
0.000191693
-2.77638e-05
0.000216397
-4.30341e-05
0.000221021
-6.04188e-05
0.00020988
-7.90129e-05
0.000185932
-9.78915e-05
0.00015053
-0.000116151
0.000103454
-0.000132909
4.31809e-05
-0.000147268
-3.27451e-05
-0.000158271
-0.000127327
-0.000164852
-0.000243776
-0.000165801
-0.000385231
-0.000159779
-0.0005544
-0.000145358
-0.000753158
-0.000121104
-0.000982014
-8.57682e-05
-0.00123936
-3.83801e-05
-0.00152106
2.14765e-05
-0.00181957
9.3397e-05
-0.0021242
0.000176523
-0.00242041
0.000269362
-0.00269525
0.000370489
-0.00292749
-0.00309446
0.000483093
-9.21928e-07
6.2386e-05
-4.57765e-06
0.000145472
-1.13255e-05
0.000198441
-2.10054e-05
0.000226077
-3.30626e-05
0.000233078
-4.66772e-05
0.000223494
-6.0881e-05
0.000200136
-7.46459e-05
0.000164295
-8.69328e-05
0.000115741
-9.66975e-05
5.29457e-05
-0.000102861
-2.65816e-05
-0.000104266
-0.000125922
-9.96371e-05
-0.000248405
-8.75514e-05
-0.000397317
-6.64623e-05
-0.000575489
-3.47635e-05
-0.000784856
9.09241e-06
-0.00102587
6.65376e-05
-0.00129681
0.000138389
-0.00159291
0.000224892
-0.00190607
0.000325582
-0.00222489
0.000439089
-0.00253392
0.000563669
-0.00281983
0.000696279
-0.0030601
-0.00324421
0.000846036
-3.54051e-07
6.274e-05
-2.58271e-06
0.000147701
-7.18903e-06
0.000203048
-1.4103e-05
0.000232991
-2.28075e-05
0.000241783
-3.24683e-05
0.000233155
-4.20559e-05
0.000209724
-5.04397e-05
0.000172679
-5.64426e-05
0.000121744
-5.88544e-05
5.53575e-05
-5.64072e-05
-2.90289e-05
-4.77369e-05
-0.000134592
-3.13642e-05
-0.000264778
-5.6529e-06
-0.000423028
3.1137e-05
-0.000612279
8.07894e-05
-0.000834509
0.000144939
-0.00109002
0.000224877
-0.00137675
0.000321386
-0.00168942
0.000434412
-0.00201909
0.000562966
-0.00235345
0.000705603
-0.00267656
0.000859317
-0.00297354
0.00102202
-0.0032228
-0.00342446
0.00120227
1.93287e-07
6.25467e-05
-6.298e-07
0.000148524
-3.08938e-06
0.000205507
-7.19364e-06
0.000237095
-1.24591e-05
0.000247048
-1.80383e-05
0.000238734
-2.28426e-05
0.000214528
-2.56403e-05
0.000175476
-2.51154e-05
0.000121219
-1.98908e-05
5.01329e-05
-8.50709e-06
-4.04126e-05
1.05945e-05
-0.000153694
3.91495e-05
-0.000293333
7.89582e-05
-0.000462837
0.000131934
-0.000665255
0.000199945
-0.00090252
0.000284649
-0.00117472
0.000387207
-0.00147931
0.000508052
-0.00181027
0.000646679
-0.00215772
0.00080136
-0.00250813
0.000970375
-0.00284557
0.00114971
-0.00315288
0.0013378
-0.00341089
-0.00362814
0.00154148
7.05323e-07
6.18414e-05
1.2386e-06
0.000147991
8.90397e-07
0.000205855
-4.08735e-07
0.000238394
-2.2014e-06
0.000248841
-3.62576e-06
0.000240159
-3.5361e-06
0.000214438
-6.01916e-07
0.000172542
6.62793e-06
0.000113989
1.97122e-05
3.70487e-05
4.02955e-05
-6.09959e-05
7.0157e-05
-0.000183555
0.000111194
-0.00033437
0.000165432
-0.000517075
0.00023491
-0.000734732
0.000321537
-0.000989147
0.000426859
-0.00128005
0.000551745
-0.00160419
0.00069609
-0.00195461
0.000858714
-0.00232035
0.00103696
-0.00268638
0.00122857
-0.00303717
0.00142882
-0.00335313
0.00163624
-0.00361831
-0.00384731
0.00185541
1.17257e-06
6.06688e-05
2.9852e-06
0.000146178
4.67423e-06
0.000204166
6.13055e-06
0.000236938
7.79511e-06
0.000247176
1.05476e-05
0.000237406
1.5591e-05
0.000209395
2.43548e-05
0.000163778
3.84298e-05
9.99144e-05
5.95333e-05
1.59452e-05
8.95152e-05
-9.09778e-05
0.000130356
-0.000224396
0.000184156
-0.00038817
0.000253095
-0.000586014
0.000339297
-0.000820934
0.000444623
-0.00109447
0.00057037
-0.00140579
0.000716918
-0.00175074
0.000883401
-0.0021211
0.00106773
-0.00250467
0.00126621
-0.00288486
0.00147578
-0.00324673
0.00169132
-0.00356867
0.00191145
-0.00383844
-0.00407392
0.00213805
1.58573e-06
5.90831e-05
4.57803e-06
0.000143186
8.19724e-06
0.000200547
1.23184e-05
0.000232817
1.73801e-05
0.000242114
2.42861e-05
0.0002305
3.42984e-05
0.000199383
4.89448e-05
0.000149132
6.99531e-05
7.8906e-05
9.9214e-05
-1.33157e-05
0.00013877
-0.000130534
0.000190804
-0.00027643
0.000257599
-0.000454966
0.000341458
-0.000669873
0.000444516
-0.000923992
0.000568462
-0.00121842
0.000714167
-0.0015515
0.000881295
-0.00191787
0.00106798
-0.00230778
0.00127101
-0.0027077
0.00148565
-0.0030995
0.0017079
-0.00346899
0.00193257
-0.00379333
0.00215866
-0.00406453
-0.00430057
0.00238532
1.93797e-06
5.71451e-05
5.9923e-06
0.000139132
1.14072e-05
0.000195132
1.80689e-05
0.000226155
2.64306e-05
0.000233753
3.74296e-05
0.000219501
5.23917e-05
0.000184421
7.29462e-05
0.000128577
0.000100961
5.08913e-05
0.0001385
-5.08551e-05
0.000187801
-0.000179835
0.000251238
-0.000339867
0.000331254
-0.000534981
0.000430217
-0.000768836
0.000550171
-0.00104395
0.00069247
-0.00136072
0.00085734
-0.00171637
0.00104347
-0.002104
0.0012478
-0.00251211
0.00146582
-0.00292573
0.00169188
-0.00332556
0.00192117
-0.00369828
0.0021487
-0.00402087
0.00237431
-0.00429014
-0.00452117
0.00259491
2.22507e-06
5.49201e-05
7.21142e-06
0.000134145
1.42676e-05
0.000188076
2.33205e-05
0.000217102
3.48578e-05
0.000222215
4.9863e-05
0.000204496
6.97348e-05
0.000164549
9.62101e-05
0.000102102
0.000131301
1.57999e-05
0.00017725
-9.68039e-05
0.000236485
-0.000239069
0.000311556
-0.000414939
0.000405023
-0.000628448
0.000519237
-0.000883049
0.000656006
-0.00118071
0.000816142
-0.00152085
0.000998971
-0.0018992
0.00120197
-0.002307
0.0014207
-0.00273084
0.00164938
-0.00315441
0.00188165
-0.00355782
0.00211222
-0.00392885
0.00233674
-0.0042454
0.00255617
-0.00450957
-0.00473123
0.00276623
2.44562e-06
5.24744e-05
8.22791e-06
0.000128363
1.67601e-05
0.000179544
2.804e-05
0.000205822
4.26126e-05
0.000207643
6.15246e-05
0.000185584
8.62598e-05
0.000139814
0.000118673
6.9689e-05
0.000160929
-2.64561e-05
0.000215448
-0.000151323
0.000284843
-0.000308464
0.000371813
-0.000501908
0.000478963
-0.000735599
0.000608507
-0.00101259
0.000761826
-0.00133403
0.000938943
-0.00169797
0.00113802
-0.00209827
0.0013551
-0.00252408
0.00158436
-0.0029601
0.00181888
-0.00338893
0.00205198
-0.00379093
0.00227837
-0.00415524
0.00249481
-0.00446184
0.00270355
-0.00471831
-0.00492795
0.00290026
2.60105e-06
4.98734e-05
9.04398e-06
0.00012192
1.88853e-05
0.000169703
3.22251e-05
0.000192482
4.96907e-05
0.000190177
7.24123e-05
0.000162862
0.000101976
0.00011025
0.000140366
3.12983e-05
0.000189911
-7.60009e-05
0.00025321
-0.000214622
0.00033304
-0.000388294
0.000432199
-0.000601067
0.000553238
-0.000856639
0.000698064
-0.00115742
0.000867397
-0.00150337
0.00106019
-0.00189076
0.0012732
-0.00231128
0.00150094
-0.00275182
0.00173632
-0.00319548
0.00197164
-0.00362425
0.0022004
-0.00401968
0.00241784
-0.00437267
0.00262228
-0.00466628
0.00281725
-0.00491328
-0.00511002
0.00299933
2.69577e-06
4.71776e-05
9.67182e-06
0.000114944
2.06643e-05
0.00015871
3.59064e-05
0.00017724
5.61351e-05
0.000169948
8.25878e-05
0.00013641
0.000116972
7.58659e-05
0.000161421
-1.31507e-05
0.000218431
-0.000133011
0.000290775
-0.000286965
0.00038136
-0.000478879
0.000493002
-0.000712709
0.000628056
-0.000991692
0.000787901
-0.00131726
0.000972324
-0.00168779
0.00117894
-0.00209738
0.00140294
-0.00253528
0.00163737
-0.00298625
0.00187415
-0.00343226
0.00210534
-0.00385544
0.00232518
-0.00423952
0.00252989
-0.00457739
0.00271978
-0.00485616
0.00289938
-0.00509289
-0.00527738
0.00306674
2.73701e-06
4.44406e-05
1.01334e-05
0.000107548
2.21379e-05
0.000146706
3.91473e-05
0.000160231
6.20368e-05
0.000147059
9.21769e-05
0.00010627
0.00013142
3.66224e-05
0.000182064
-6.37942e-05
0.000246778
-0.000197725
0.000328487
-0.000368675
0.000430172
-0.000580565
0.000554546
-0.000837083
0.000703575
-0.00114072
0.000877855
-0.00149154
0.00107595
-0.00188589
0.00129393
-0.00231536
0.00152539
-0.00276674
0.00176214
-0.003223
0.00199561
-0.00366573
0.00221823
-0.00407807
0.00242546
-0.00444675
0.00261492
-0.00476685
0.00278907
-0.00503031
0.00295294
-0.00525676
-0.0054308
0.00310635
2.73464e-06
4.1706e-05
1.04597e-05
9.98225e-05
2.33659e-05
0.000133799
4.20425e-05
0.000141554
6.7532e-05
0.000121569
0.000101366
7.24361e-05
0.000145565
-7.57684e-06
0.000202604
-0.000120833
0.000275321
-0.000270442
0.000366756
-0.000460109
0.000479868
-0.000693677
0.000617107
-0.000974322
0.000779811
-0.00130343
0.000967507
-0.00167924
0.00117729
-0.00209567
0.00140358
-0.00254165
0.00163852
-0.00300168
0.00187312
-0.0034576
0.0020989
-0.00389151
0.00230931
-0.00428848
0.00250139
-0.00463883
0.00267434
-0.0049398
0.00283277
-0.00518873
0.00298137
-0.00540536
-0.00557163
0.00312219
2.70085e-06
3.90051e-05
1.069e-05
9.18333e-05
2.44248e-05
0.000120065
4.47143e-05
0.000121265
7.27967e-05
9.34869e-05
0.000110392
3.48409e-05
0.000159711
-5.68961e-05
0.000223413
-0.000184535
0.000304484
-0.000351513
0.00040601
-0.000561635
0.0005308
-0.000818467
0.00068083
-0.00112435
0.00085654
-0.00147914
0.00105612
-0.00187882
0.00127501
-0.00231457
0.00150605
-0.00277269
0.00174028
-0.00323591
0.00196847
-0.00368579
0.00218288
-0.00410592
0.00237848
-0.00448408
0.00255406
-0.00481441
0.00271046
-0.0050962
0.00285403
-0.00533231
0.0029882
-0.00553953
-0.00570111
0.00311769
2.64958e-06
3.63555e-05
1.08697e-05
8.36132e-05
2.54041e-05
0.00010553
4.73062e-05
9.93626e-05
7.80371e-05
6.27561e-05
0.00011953
-6.65202e-06
0.000174202
-0.000111568
0.000244892
-0.000255225
0.00033469
-0.000441311
0.00044663
-0.000673575
0.000583194
-0.000955031
0.00074564
-0.0012868
0.000933232
-0.00166673
0.00114259
-0.00208818
0.0013675
-0.00253948
0.00159943
-0.00300462
0.00182882
-0.0034653
0.00204687
-0.00390384
0.00224714
-0.00430618
0.00242644
-0.00466339
0.00258531
-0.00497327
0.00272616
-0.00523704
0.00285624
-0.00546239
0.00297675
-0.00566004
-0.00582107
0.00309671
2.59597e-06
3.37596e-05
1.10482e-05
7.51609e-05
2.6402e-05
9.01765e-05
4.9976e-05
7.57886e-05
8.34779e-05
2.92542e-05
0.000129075
-5.22488e-05
0.000189395
-0.000171889
0.000267435
-0.000333264
0.000366318
-0.000540194
0.000488887
-0.000796144
0.000637085
-0.00110323
0.000811185
-0.0014609
0.00100903
-0.00186457
0.00122555
-0.0023047
0.00145299
-0.00276692
0.00168189
-0.00323351
0.00190271
-0.00368612
0.00210767
-0.0041088
0.00229204
-0.00449055
0.00245462
-0.00482597
0.00259751
-0.00511616
0.0027246
-0.00536413
0.00284287
-0.00558067
0.00295074
-0.00576791
-0.00593618
0.00306585
2.55554e-06
3.1204e-05
1.12768e-05
6.64397e-05
2.75199e-05
7.39334e-05
5.28857e-05
5.04227e-05
8.93472e-05
-7.20724e-06
0.000139317
-0.000102218
0.000205627
-0.0002382
0.000291385
-0.000419021
0.000399644
-0.000648454
0.000532882
-0.000929382
0.000692261
-0.00126261
0.000876808
-0.00164545
0.00108276
-0.00207052
0.0013034
-0.00252534
0.00152974
-0.00299325
0.00175191
-0.00345568
0.00196105
-0.00389527
0.00215089
-0.00429864
0.00231861
-0.00465827
0.00246492
-0.00497228
0.00259321
-0.00524445
0.00270857
-0.0054795
0.0028173
-0.0056894
0.00291955
-0.00587016
-0.00604854
0.00303191
2.5434e-06
2.86606e-05
1.16052e-05
5.73779e-05
2.88565e-05
5.66821e-05
5.61919e-05
2.30874e-05
9.5861e-05
-4.68764e-05
0.000150522
-0.00015688
0.000223186
-0.000310863
0.000316996
-0.000512831
0.000434801
-0.00076626
0.000578503
-0.00107308
0.000748234
-0.00143234
0.000941562
-0.00183877
0.00115304
-0.002282
0.00137451
-0.00274681
0.00159617
-0.00321492
0.00180842
-0.00366792
0.00200357
-0.00409042
0.00217719
-0.00447226
0.00232841
-0.00480949
0.00245954
-0.0051034
0.00257498
-0.00535988
0.00268042
-0.00558494
0.00278117
-0.00579015
0.00288331
-0.00597229
-0.00616082
0.00299559
2.57339e-06
2.60872e-05
1.20793e-05
4.7872e-05
3.05023e-05
3.8259e-05
6.00357e-05
-6.44602e-06
0.000103208
-9.00488e-05
0.00016291
-0.000216581
0.00024228
-0.000390234
0.000344398
-0.000614949
0.000471738
-0.0008936
0.000625402
-0.00122675
0.000804257
-0.00161119
0.00100427
-0.00203878
0.0012184
-0.00249613
0.00143734
-0.00296575
0.00165111
-0.00342868
0.00185088
-0.0038677
0.00203061
-0.00427015
0.00218778
-0.00462944
0.00232332
-0.00494502
0.00244078
-0.00522087
0.00254521
-0.00546432
0.00264237
-0.0056821
0.0027374
-0.00588518
0.00283602
-0.00607091
-0.00626734
0.00294254
2.6574e-06
2.34298e-05
1.27385e-05
3.77909e-05
3.25341e-05
1.84634e-05
6.45338e-05
-3.84457e-05
0.000111536
-0.000137051
0.000176632
-0.000281677
0.000263017
-0.000476618
0.000373575
-0.000725508
0.000510212
-0.00103024
0.000673
-0.00138954
0.00085936
-0.00179755
0.00106362
-0.00224305
0.00127736
-0.00270987
0.00149062
-0.00317902
0.00169378
-0.00363184
0.00187931
-0.00405322
0.00204299
-0.00443383
0.0021842
-0.00477065
0.00230533
-0.00506616
0.00241084
-0.00532638
0.00250603
-0.00555951
0.00259644
-0.00577251
0.00268672
-0.00597546
0.00278187
-0.00616606
-0.00637085
0.00288538
2.80473e-06
2.06251e-05
1.36137e-05
2.69819e-05
3.50108e-05
-2.93363e-06
6.97713e-05
-7.32062e-05
0.000120942
-0.000188222
0.000191763
-0.000352498
0.000285389
-0.000570244
0.000404353
-0.000844472
0.000549785
-0.00117567
0.000720524
-0.00156028
0.000912428
-0.00198946
0.00111829
-0.00244891
0.00132865
-0.00292023
0.00153345
-0.00338382
0.00172393
-0.00382232
0.0018942
-0.00422349
0.00204194
-0.00458157
0.00216818
-0.0048969
0.00227647
-0.00517445
0.00237174
-0.00542165
0.00245927
-0.00564704
0.00254416
-0.0058574
0.00263046
-0.00606176
0.00272246
-0.00625806
-0.0064705
0.00282211
3.02178e-06
1.76033e-05
1.47261e-05
1.52776e-05
3.79711e-05
-2.61786e-05
7.5798e-05
-0.000111033
0.000131465
-0.000243889
0.000208292
-0.000429324
0.000309271
-0.000671224
0.00043641
-0.00097161
0.000589858
-0.00132912
0.000767058
-0.00173748
0.000962293
-0.00218469
0.00116704
-0.00265365
0.00137127
-0.00312446
0.00156532
-0.00357786
0.00174174
-0.00399874
0.00189645
-0.0043782
0.00202891
-0.00471403
0.00214153
-0.00500951
0.0022386
-0.00527152
0.00232524
-0.00550829
0.00240644
-0.00572824
0.00248676
-0.00593772
0.00256963
-0.00614464
0.00265859
-0.00634701
-0.00656676
0.00275485
3.31192e-06
1.42914e-05
1.60866e-05
2.50289e-06
4.14321e-05
-5.15241e-05
8.26262e-05
-0.000152227
0.000143087
-0.00030435
0.000226124
-0.000512361
0.000334427
-0.000779527
0.000469291
-0.00110647
0.000629703
-0.00148953
0.000811611
-0.00191938
0.00100782
-0.0023809
0.00120884
-0.00285467
0.00140453
-0.00332015
0.00158613
-0.00375947
0.00174779
-0.0041604
0.00188723
-0.00451764
0.00200547
-0.00483227
0.00210595
-0.00511
0.00219339
-0.00535896
0.00227281
-0.00558771
0.00234877
-0.0058042
0.00242522
-0.00601417
0.002505
-0.00622442
0.00259103
-0.00643304
-0.00665969
0.00268396
3.67571e-06
1.06157e-05
1.76964e-05
-1.15178e-05
4.53905e-05
-7.92182e-05
9.02325e-05
-0.000197069
0.000155735
-0.000369852
0.000245087
-0.000601714
0.000360522
-0.000894962
0.000502439
-0.00124839
0.000668514
-0.0016556
0.000853191
-0.00210406
0.00104801
-0.00257572
0.00124289
-0.00304955
0.00142812
-0.00350538
0.00159619
-0.00392754
0.00174296
-0.00430718
0.00186785
-0.00464253
0.00197316
-0.00493758
0.00206302
-0.00519986
0.00214229
-0.00543822
0.00221566
-0.00566108
0.00228721
-0.00587574
0.00236027
-0.00608724
0.00243717
-0.00630131
0.00252029
-0.00651616
-0.0067493
0.0026099
4.11119e-06
6.50451e-06
1.95479e-05
-2.69545e-05
4.98239e-05
-0.000109494
9.85609e-05
-0.000245806
0.000169284
-0.000440575
0.000264942
-0.000697372
0.000387144
-0.00101716
0.000535227
-0.00139647
0.000705463
-0.00182584
0.000890871
-0.00228947
0.00108202
-0.00276686
0.00126871
-0.00323624
0.00144205
-0.00367872
0.00159605
-0.00408154
0.00172829
-0.00443942
0.00183967
-0.0047539
0.00193345
-0.00503136
0.00201414
-0.00528055
0.00208647
-0.00551056
0.00215476
-0.00572937
0.00222249
-0.00594347
0.00229247
-0.00615722
0.00236656
-0.0063754
0.00244674
-0.00659633
-0.00683553
0.00253297
4.61442e-06
1.89009e-06
2.16261e-05
-4.39662e-05
5.46943e-05
-0.000142562
0.000107528
-0.00029864
0.000183573
-0.00051662
0.000285398
-0.000799197
0.000413827
-0.00114559
0.000566996
-0.00154964
0.000739747
-0.00199859
0.000923846
-0.00247357
0.00110925
-0.00295227
0.00128609
-0.00341309
0.00144664
-0.00383927
0.00158653
-0.00422143
0.00170496
-0.00455784
0.00180402
-0.00485297
0.00188765
-0.00511499
0.00196047
-0.00535337
0.00202692
-0.00557702
0.00209084
-0.00579328
0.00215518
-0.00600782
0.00222225
-0.0062243
0.00229354
-0.00644669
0.00237067
-0.00667346
-0.00691829
0.00245342
5.18006e-06
-3.28996e-06
2.39105e-05
-6.26967e-05
5.99507e-05
-0.000178603
0.000117028
-0.000355718
0.000198403
-0.000597995
0.000306124
-0.000906918
0.000440075
-0.00127954
0.000597091
-0.00170666
0.000770635
-0.00217213
0.000951472
-0.0026544
0.00112935
-0.00313014
0.00129511
-0.00357885
0.00144243
-0.00398659
0.00156856
-0.00434756
0.00167412
-0.0046634
0.00176214
-0.00494099
0.00183692
-0.00518977
0.00190299
-0.00541943
0.00196441
-0.00563844
0.00202448
-0.00585335
0.0020857
-0.00606903
0.00214992
-0.00628852
0.00221835
-0.00651511
0.00229231
-0.00674743
-0.00699745
0.00237147
5.80186e-06
-9.09182e-06
2.63765e-05
-8.32713e-05
6.55331e-05
-0.000217759
0.00012694
-0.000417125
0.000213558
-0.000684612
0.000326769
-0.00102013
0.000465384
-0.00141816
0.000624892
-0.00186617
0.000797502
-0.00234474
0.000973286
-0.00283019
0.00114218
-0.00329904
0.00129606
-0.00373273
0.00143011
-0.00412064
0.00154313
-0.00446058
0.00163691
-0.00475718
0.00171514
-0.00501922
0.00178225
-0.00525688
0.00184251
-0.00547969
0.00189953
-0.00569546
0.00195613
-0.00590996
0.00201436
-0.00612725
0.00207574
-0.0063499
0.0021412
-0.00658057
0.00221187
-0.0068181
-0.00707289
0.00228732
6.47312e-06
-1.55649e-05
2.89968e-05
-0.000105795
7.13747e-05
-0.000260137
0.000137131
-0.000482881
0.000228803
-0.000776285
0.000346971
-0.0011383
0.000489264
-0.00156045
0.00064984
-0.00202674
0.000819849
-0.00251475
0.000989016
-0.00299936
0.00114782
-0.00345784
0.0012894
-0.00387431
0.00141048
-0.00424172
0.00151123
-0.00456133
0.00159438
-0.00484032
0.00166399
-0.00508884
0.00172444
-0.00531732
0.00177964
-0.00553489
0.00183275
-0.00574857
0.00188612
-0.00596333
0.00194142
-0.00618256
0.00199989
-0.00640837
0.00206228
-0.00664296
0.00212952
-0.00688534
-0.0071445
0.00220113
7.18694e-06
-2.27519e-05
3.17426e-05
-0.000130351
7.74042e-05
-0.000305799
0.000147458
-0.000552935
0.000243899
-0.000872726
0.000366372
-0.00126077
0.000511259
-0.00170534
0.000671462
-0.00218695
0.000837323
-0.00268061
0.00099857
-0.0031606
0.00114654
-0.00360581
0.00127575
-0.00400352
0.0013844
-0.00435037
0.00147384
-0.00465077
0.00154746
-0.00491395
0.00160951
-0.00515089
0.00166415
-0.00537196
0.00171488
-0.00558563
0.00176442
-0.00579811
0.00181469
-0.00601361
0.00186707
-0.00623493
0.00192255
-0.00646384
0.00198173
-0.00670214
0.0020454
-0.00694902
-0.00721216
0.00211306
7.93643e-06
-3.06883e-05
3.45841e-05
-0.000156998
8.35476e-05
-0.000354762
0.000157779
-0.000627166
0.000258604
-0.000973551
0.000384625
-0.00138679
0.000530958
-0.00185167
0.000689379
-0.00234537
0.00084971
-0.00284094
0.00100202
-0.00331291
0.00113871
-0.00374251
0.00125576
-0.00412057
0.0013527
-0.00444731
0.00143183
-0.0047299
0.00149698
-0.0049791
0.00155239
-0.00520629
0.00160191
-0.00542148
0.00164862
-0.00563235
0.00169481
-0.00584429
0.00174205
-0.00606085
0.00179145
-0.00628434
0.00184384
-0.00651623
0.00189969
-0.00675799
0.00195966
-0.00700899
-0.00727576
0.00202326
8.71468e-06
-3.9403e-05
3.74906e-05
-0.000185774
8.97288e-05
-0.000407
0.000167945
-0.000705382
0.00027268
-0.00107829
0.000401412
-0.00151552
0.00054801
-0.00199827
0.000703318
-0.00250068
0.000856938
-0.00299456
0.000999563
-0.00345553
0.00112484
-0.00386779
0.00123015
-0.00422587
0.0013162
-0.00453336
0.00138601
-0.00479971
0.00144364
-0.00503673
0.00149319
-0.00525584
0.00153814
-0.00546643
0.00158116
-0.00567536
0.00162412
-0.00588726
0.00166834
-0.00610507
0.00171471
-0.0063307
0.00176389
-0.0065654
0.00181628
-0.00681038
0.00187244
-0.00706515
-0.00733521
0.00193188
9.51474e-06
-4.89177e-05
4.04311e-05
-0.000216691
9.5871e-05
-0.00046244
0.000177811
-0.000787323
0.000285902
-0.00118638
0.000416442
-0.00164606
0.000562134
-0.00214396
0.000713109
-0.00265165
0.000859055
-0.00314051
0.000991525
-0.003588
0.00110548
-0.00398174
0.00119962
-0.00432
0.00127564
-0.00460938
0.00133707
-0.00486114
0.00138804
-0.0050877
0.00143237
-0.00530018
0.00147318
-0.00550723
0.00151271
-0.0057149
0.00155254
-0.00592708
0.0015937
-0.00614624
0.00163694
-0.00637394
0.0016828
-0.00661126
0.00173161
-0.00685919
0.00178385
-0.00711739
-0.00739041
0.00183905
1.03295e-05
-5.92473e-05
4.33739e-05
-0.000249735
0.000101897
-0.000520963
0.000187235
-0.000872661
0.000298057
-0.0012972
0.000429466
-0.00177747
0.000573119
-0.00228761
0.000718687
-0.00279722
0.000856214
-0.00327804
0.000978295
-0.00371009
0.00108122
-0.00408467
0.00116486
-0.00440365
0.00123172
-0.00467624
0.00128563
-0.00491506
0.00133065
-0.00513271
0.00137029
-0.00533982
0.00140726
-0.0055442
0.00144346
-0.0057511
0.00148017
-0.00596379
0.00151823
-0.0061843
0.00155825
-0.00641396
0.00160068
-0.00665369
0.0016458
-0.00690431
0.00169401
-0.00716559
-0.00744128
0.00174488
1.11517e-05
-7.03989e-05
4.62867e-05
-0.00028487
0.000107729
-0.000582405
0.000196079
-0.000961011
0.000308952
-0.00141007
0.00044028
-0.0019088
0.00058083
-0.00242816
0.000720076
-0.00293647
0.000848657
-0.00340662