/*--------------------------------*- C++ -*----------------------------------*\
  =========                 |
  \\      /  F ield         | OpenFOAM: The Open Source CFD Toolbox
   \\    /   O peration     | Website:  https://openfoam.org
    \\  /    A nd           | Version:  7
     \\/     M anipulation  |
\*---------------------------------------------------------------------------*/
FoamFile
{
    version     2.0;
    format      ascii;
    class       volVectorField;
    location    "140";
    object      U;
}
// * * * * * * * * * * * * * * * * * * * * * * * * * * * * * * * * * * * * * //

dimensions      [0 1 -1 0 0 0 0];

internalField   nonuniform List<vector> 
31800
(
(-0.00109615 0.00431985 -1.3114e-20)
(-0.00609023 0.000424334 9.06836e-21)
(-0.0156949 -0.0121834 -2.94761e-21)
(-0.0278499 -0.0301433 1.31345e-20)
(-0.0418867 -0.0507825 1.46658e-20)
(-0.0573114 -0.0722526 -4.80047e-21)
(-0.0736798 -0.0935529 -3.44918e-21)
(-0.0906112 -0.114439 2.45461e-20)
(-0.107754 -0.135213 -2.77922e-21)
(-0.124778 -0.156461 4.03252e-21)
(-0.141381 -0.178802 1.38527e-20)
(-0.15728 -0.202712 1.36047e-20)
(-0.172207 -0.228437 -8.56699e-21)
(-0.185884 -0.255972 -1.07154e-20)
(-0.198003 -0.28506 -3.92225e-22)
(-0.208202 -0.315196 -1.37085e-20)
(-0.216054 -0.345606 1.06941e-20)
(-0.221057 -0.375211 1.80161e-20)
(-0.222644 -0.402592 -6.79309e-21)
(-0.220187 -0.425977 3.07623e-20)
(-0.21304 -0.443268 1.9457e-21)
(-0.200606 -0.45216 -2.54664e-21)
(-0.182435 -0.450377 5.63683e-21)
(-0.158049 -0.435962 1.15889e-20)
(-0.127331 -0.407379 7.19553e-21)
(-0.00134247 0.00634568 1.35121e-20)
(-0.0066335 0.00529234 7.61102e-21)
(-0.0165668 -0.00530398 -8.0889e-21)
(-0.0290528 -0.0218308 -3.05442e-20)
(-0.0434412 -0.041461 2.28096e-20)
(-0.0592448 -0.0622439 -1.11844e-20)
(-0.0760166 -0.0831159 6.30571e-22)
(-0.0933735 -0.103795 -1.88454e-20)
(-0.110967 -0.124558 4.05427e-21)
(-0.128478 -0.145971 2.77715e-21)
(-0.145625 -0.168633 -5.89559e-20)
(-0.162156 -0.193014 -8.36488e-22)
(-0.177836 -0.21936 6.63077e-20)
(-0.192425 -0.247679 -3.36569e-20)
(-0.205658 -0.277745 -6.38788e-21)
(-0.217221 -0.30909 1.36526e-20)
(-0.22674 -0.340987 -2.89349e-20)
(-0.233772 -0.372402 -1.2787e-21)
(-0.237806 -0.401964 2.87067e-20)
(-0.23827 -0.427929 -1.05174e-19)
(-0.234552 -0.448207 -3.27158e-20)
(-0.226085 -0.460454 4.96283e-20)
(-0.212414 -0.462311 2.43525e-20)
(-0.192935 -0.451645 4.36756e-21)
(-0.167604 -0.426561 -1.02889e-20)
(-0.00168277 0.00845455 -2.86269e-20)
(-0.00735075 0.0103799 -6.34603e-22)
(-0.017583 0.00189925 -3.91238e-20)
(-0.0303067 -0.0131226 5.80627e-20)
(-0.0449064 -0.0317013 -6.55802e-20)
(-0.0609116 -0.0517765 -6.55415e-21)
(-0.077879 -0.072211 -6.05905e-21)
(-0.095426 -0.0926733 1.13181e-20)
(-0.113207 -0.113405 3.66296e-20)
(-0.130916 -0.134941 -6.1026e-21)
(-0.148288 -0.157864 -1.1723e-20)
(-0.165095 -0.182631 4.00468e-20)
(-0.181133 -0.209492 -6.26519e-21)
(-0.196197 -0.238471 3.80611e-20)
(-0.21006 -0.26937 -7.89099e-20)
(-0.222456 -0.301763 -3.2584e-20)
(-0.233067 -0.334966 4.90018e-21)
(-0.241515 -0.368002 -1.05833e-19)
(-0.247362 -0.399547 2.89962e-20)
(-0.250107 -0.427904 6.43048e-20)
(-0.249204 -0.451003 -4.07633e-20)
(-0.244143 -0.466484 -9.7545e-20)
(-0.234505 -0.471917 -4.88074e-20)
(-0.219573 -0.465018 -8.98139e-20)
(-0.199325 -0.443581 -4.88158e-20)
(-0.00211896 0.0106079 1.31905e-20)
(-0.00824368 0.0156036 -2.23463e-20)
(-0.0187387 0.0093198 7.1009e-20)
(-0.0315972 -0.00413617 -5.68483e-20)
(-0.0462572 -0.0216249 -1.53438e-20)
(-0.0622756 -0.0409715 -4.44374e-21)
(-0.0792193 -0.0609566 4.71408e-20)
(-0.0967096 -0.0811885 3.41752e-20)
(-0.114405 -0.101863 -5.90879e-20)
(-0.132008 -0.123482 2.52144e-20)
(-0.149268 -0.146602 5.53674e-22)
(-0.165977 -0.171671 -1.13405e-19)
(-0.181954 -0.19894 -3.68487e-20)
(-0.197023 -0.228452 2.8077e-21)
(-0.210992 -0.260037 2.44921e-20)
(-0.22364 -0.293306 1.13584e-19)
(-0.234705 -0.327622 1.3093e-20)
(-0.243879 -0.36206 1.0726e-19)
(-0.250806 -0.395354 1.08571e-19)
(-0.255076 -0.425858 -1.32309e-20)
(-0.256229 -0.451539 4.73287e-20)
(-0.253844 -0.470043 -1.77177e-20)
(-0.247574 -0.478882 5.91227e-20)
(-0.236602 -0.475648 1.94682e-19)
(-0.220897 -0.45793 3.08434e-20)
(-0.00264951 0.0127648 2.3145e-20)
(-0.00930807 0.0208751 -8.4428e-20)
(-0.020024 0.0168453 1.09306e-19)
(-0.032908 0.00500534 4.03276e-20)
(-0.0474696 -0.0113576 3.11763e-20)
(-0.0633047 -0.0299536 3.3241e-20)
(-0.0799978 -0.049474 -1.79572e-19)
(-0.0971767 -0.0694587 6.78783e-20)
(-0.114504 -0.0900495 7.01946e-20)
(-0.131687 -0.111707 -1.0383e-19)
(-0.148486 -0.134962 1.07675e-19)
(-0.164705 -0.160248 5.84216e-20)
(-0.180182 -0.187823 7.4882e-20)
(-0.194761 -0.217743 -5.09219e-20)
(-0.208279 -0.249865 -1.15274e-20)
(-0.220555 -0.283835 2.46392e-19)
(-0.23138 -0.31906 -1.05243e-19)
(-0.24052 -0.354663 8.25026e-20)
(-0.247708 -0.389436 -1.94907e-19)
(-0.252637 -0.421792 -7.87217e-20)
(-0.254957 -0.449751 7.24575e-20)
(-0.254358 -0.470979 1.24611e-19)
(-0.250597 -0.48295 1.97662e-20)
(-0.242789 -0.483146 -1.56263e-19)
(-0.230804 -0.469095 -1.04811e-19)
(-0.00326932 0.0148829 -9.22077e-20)
(-0.0105337 0.0261033 -3.04827e-20)
(-0.0214247 0.0243596 -6.45776e-20)
(-0.0342204 0.0141751 -6.27635e-20)
(-0.0485208 -0.00102885 4.52747e-20)
(-0.063972 -0.01885 -8.22263e-20)
(-0.080183 -0.037887 -5.47031e-20)
(-0.0967909 -0.0576041 -2.65414e-19)
(-0.113462 -0.0780818 1.2117e-20)
(-0.129905 -0.0997345 -3.64041e-21)
(-0.145885 -0.123063 -2.073e-19)
(-0.161213 -0.148488 -7.25036e-20)
(-0.175734 -0.176269 -8.69976e-20)
(-0.189308 -0.206476 1.71871e-19)
(-0.201793 -0.238991 4.96056e-20)
(-0.213039 -0.273489 -1.3326e-19)
(-0.22289 -0.309413 -1.53332e-19)
(-0.231179 -0.345931 4.43176e-20)
(-0.237735 -0.381889 1.63076e-19)
(-0.242366 -0.415761 -3.65056e-20)
(-0.244849 -0.44563 -2.06276e-20)
(-0.245006 -0.469206 -9.44816e-20)
(-0.242727 -0.483939 -1.15557e-19)
(-0.237115 -0.487202 9.28995e-20)
(-0.227719 -0.476608 6.3321e-20)
(-0.00396981 0.0169202 4.71873e-20)
(-0.0119042 0.0311963 5.60656e-20)
(-0.0229213 0.0317457 -4.47654e-20)
(-0.035514 0.0232451 -9.32005e-20)
(-0.0493895 0.00923113 1.45116e-20)
(-0.0642553 -0.00778889 1.09421e-19)
(-0.0797516 -0.0263204 1.5732e-19)
(-0.0955276 -0.0457466 2.1769e-19)
(-0.111252 -0.0660806 3.92154e-20)
(-0.126632 -0.0876863 4.95468e-20)
(-0.141431 -0.111031 6.04682e-20)
(-0.155458 -0.136521 2.3878e-19)
(-0.168562 -0.164416 -1.3949e-20)
(-0.180604 -0.194799 -3.10868e-19)
(-0.191459 -0.227569 2.26248e-19)
(-0.201 -0.262427 9.1327e-20)
(-0.209112 -0.298844 2.80426e-19)
(-0.215696 -0.336024 -1.11846e-19)
(-0.220675 -0.372856 -1.30483e-19)
(-0.223981 -0.407876 3.66607e-19)
(-0.225537 -0.439236 -1.19848e-19)
(-0.225314 -0.464712 -1.7643e-19)
(-0.223355 -0.481754 -4.30231e-20)
(-0.218862 -0.487609 -1.31969e-19)
(-0.210612 -0.480096 2.41037e-20)
(-0.00473907 0.0188361 1.17541e-20)
(-0.0133978 0.0360649 -2.49229e-20)
(-0.0244902 0.0388883 5.06006e-21)
(-0.0367665 0.0320886 -1.73347e-19)
(-0.0500559 0.0192927 -1.33976e-19)
(-0.0641372 0.00310166 -2.51709e-20)
(-0.0786888 -0.0148988 -6.71064e-20)
(-0.0933739 -0.0340084 -1.19217e-19)
(-0.107862 -0.0541682 -2.54468e-20)
(-0.121858 -0.0756869 -1.46277e-20)
(-0.135113 -0.0989961 -1.31899e-19)
(-0.147432 -0.124485 5.8656e-20)
(-0.158653 -0.15241 4.25485e-20)
(-0.168637 -0.182866 2.31142e-19)
(-0.17726 -0.215766 -8.73545e-22)
(-0.184414 -0.250828 -1.39552e-19)
(-0.190016 -0.287543 -1.35008e-20)
(-0.194027 -0.325136 6.26972e-20)
(-0.196459 -0.362529 2.43651e-19)
(-0.197375 -0.398309 -1.74033e-19)
(-0.196859 -0.430701 4.50208e-19)
(-0.195049 -0.457567 1.7886e-19)
(-0.192158 -0.476397 -1.25784e-19)
(-0.187681 -0.484287 2.38146e-19)
(-0.178859 -0.479325 1.22634e-19)
(-0.00556229 0.020593 1.5706e-20)
(-0.0149874 0.0406242 7.5547e-20)
(-0.0261039 0.0456764 2.17826e-19)
(-0.0379543 0.0405821 2.70186e-19)
(-0.0505021 0.0290286 1.61872e-19)
(-0.0636059 0.0136954 -1.14754e-19)
(-0.0769881 -0.00374616 2.79073e-19)
(-0.0903287 -0.0225111 3.27089e-20)
(-0.103298 -0.0424672 -1.67879e-19)
(-0.11559 -0.0638623 1.76752e-20)
(-0.126946 -0.0870897 3.19451e-19)
(-0.137152 -0.112519 -3.44367e-19)
(-0.146033 -0.140404 -1.98967e-19)
(-0.153439 -0.170844 -3.93567e-20)
(-0.159241 -0.203763 -3.25748e-19)
(-0.163336 -0.238889 -2.13562e-19)
(-0.16567 -0.275721 3.8906e-20)
(-0.166251 -0.313495 -4.39346e-19)
(-0.165179 -0.351149 4.62197e-20)
(-0.162643 -0.387301 -1.988e-19)
(-0.1589 -0.420242 -2.37575e-19)
(-0.154278 -0.447935 2.10165e-19)
(-0.149142 -0.467971 2.1927e-19)
(-0.143649 -0.477297 -1.6129e-19)
(-0.132339 -0.474249 1.96211e-19)
(-0.00642225 0.0221573 -1.82669e-19)
(-0.0166418 0.0447963 1.34717e-19)
(-0.0277316 0.052006 -8.42569e-21)
(-0.0390529 0.0486078 5.51326e-20)
(-0.0507121 0.038316 5.24122e-20)
(-0.0626542 0.0238692 2.31231e-19)
(-0.0746508 0.00701553 -1.68144e-19)
(-0.0864017 -0.0113774 -3.17841e-19)
(-0.0975761 -0.0311003 1.60477e-19)
(-0.107857 -0.0523391 1.50725e-19)
(-0.116965 -0.0754453 -5.12744e-19)
(-0.124667 -0.100767 3.62716e-19)
(-0.130764 -0.128551 5.57039e-19)
(-0.135089 -0.158899 3.99763e-20)
(-0.1375 -0.191742 -1.0219e-19)
(-0.137896 -0.226811 2.84749e-19)
(-0.136238 -0.263604 -1.31451e-19)
(-0.132579 -0.301353 5.78616e-19)
(-0.127094 -0.338992 -4.99913e-19)
(-0.120098 -0.375149 8.60991e-20)
(-0.11202 -0.408161 -4.4513e-20)
(-0.103407 -0.436089 -1.36346e-19)
(-0.094703 -0.456687 -1.24983e-19)
(-0.0873314 -0.466841 9.26652e-20)
(-0.0715246 -0.465036 1.04296e-20)
(-0.00729997 0.0235002 1.20951e-19)
(-0.0183266 0.0485124 -8.65927e-20)
(-0.0293401 0.0577822 7.36127e-20)
(-0.0400375 0.0560561 -2.43358e-19)
(-0.0506719 0.0470383 -5.3353e-20)
(-0.0612801 0.0335043 2.80873e-20)
(-0.0716869 0.0172676 -6.40806e-20)
(-0.0816133 -0.000725984 -1.07142e-19)
(-0.0907287 -0.0201881 3.51869e-20)
(-0.0987007 -0.0412425 -1.79021e-19)
(-0.105228 -0.0641955 3.34777e-19)
(-0.11005 -0.0893703 -7.66219e-20)
(-0.112941 -0.117005 -1.98243e-19)
(-0.113708 -0.147202 -2.05814e-19)
(-0.112194 -0.17989 2.73858e-19)
(-0.108291 -0.214801 1.5198e-19)
(-0.101975 -0.251423 5.82033e-20)
(-0.0933372 -0.288971 -4.88241e-19)
(-0.0826241 -0.326356 4.98041e-19)
(-0.0702683 -0.362193 -1.61133e-19)
(-0.0568621 -0.394836 -6.99724e-20)
(-0.0432097 -0.422416 -4.55484e-20)
(-0.02966 -0.442887 -4.54884e-20)
(-0.0198224 -0.453285 1.56268e-19)
(0.00236131 -0.451846 -2.2078e-19)
(-0.00817545 0.0245994 -4.46809e-20)
(-0.020005 0.0517145 1.97686e-19)
(-0.0308948 0.0629214 -2.80678e-19)
(-0.040883 0.0628268 1.1243e-19)
(-0.0503699 0.0550866 6.40691e-20)
(-0.0594858 0.0424882 -9.5508e-20)
(-0.0681123 0.0268962 2.80256e-19)
(-0.0759938 0.00932937 6.70019e-20)
(-0.0827996 -0.00984831 3.4963e-20)
(-0.0881815 -0.0306948 2.82839e-19)
(-0.0918121 -0.0534702 -1.17249e-19)
(-0.0933991 -0.0784696 1.27276e-19)
(-0.0926861 -0.105919 -1.33844e-19)
(-0.0894525 -0.135916 -9.3097e-21)
(-0.0835207 -0.168389 -1.48189e-19)
(-0.0747782 -0.20306 -5.10543e-19)
(-0.0632115 -0.239403 1.04757e-19)
(-0.0489518 -0.276604 3.99796e-19)
(-0.0323185 -0.313541 -1.31563e-19)
(-0.0138619 -0.348789 6.27462e-19)
(0.0056803 -0.38069 -3.33867e-19)
(0.0251917 -0.407408 -8.48562e-20)
(0.0447333 -0.427059 -1.31814e-19)
(0.0574706 -0.437371 -4.97545e-23)
(0.0870767 -0.4343 -9.86895e-20)
(-0.00902842 0.0254389 -1.37877e-19)
(-0.0216396 0.0543571 -2.02935e-19)
(-0.0323605 0.0673532 -1.11309e-19)
(-0.0415653 0.0688318 1.03576e-19)
(-0.0497963 0.0623616 3.32445e-20)
(-0.0572772 0.0507154 1.91684e-20)
(-0.0639488 0.0357929 7.33367e-20)
(-0.0695805 0.0186773 -3.60589e-19)
(-0.0738423 -0.000194767 1.2231e-19)
(-0.07637 -0.0208152 -2.49513e-19)
(-0.0768076 -0.0433951 -9.3921e-20)
(-0.0748292 -0.0681988 -1.24427e-19)
(-0.0701451 -0.0954368 -2.67987e-19)
(-0.0625051 -0.125199 5.54469e-19)
(-0.0517123 -0.157408 3.16265e-19)
(-0.0376505 -0.191774 8.44323e-20)
(-0.0203231 -0.22775 2.64397e-19)
(9.00818e-05 -0.264486 -3.72623e-19)
(0.0231898 -0.300816 -8.51718e-20)
(0.0482942 -0.335263 -4.08214e-19)
(0.0745431 -0.366134 1.51528e-19)
(0.100412 -0.391598 3.05614e-19)
(0.126665 -0.409709 1.26341e-19)
(0.143258 -0.420121 -2.14045e-19)
(0.179897 -0.412637 2.22468e-19)
(-0.00983919 0.0260097 -5.12323e-20)
(-0.0231935 0.0564079 1.46563e-20)
(-0.0337026 0.071022 1.40106e-19)
(-0.0420608 0.0739964 2.5291e-19)
(-0.048943 0.068775 -1.70044e-19)
(-0.0546636 0.0580894 1.66184e-19)
(-0.0592226 0.0438562 -1.30661e-19)
(-0.0624167 0.0272126 4.95287e-19)
(-0.0639178 0.00866404 -3.50369e-19)
(-0.0633454 -0.0117166 7.56422e-20)
(-0.0603151 -0.034089 3.32055e-19)
(-0.0544662 -0.0586846 -4.80797e-20)
(-0.0454749 -0.0856941 3.56901e-20)
(-0.0330624 -0.115197 -4.53745e-19)
(-0.0170153 -0.147105 -3.86494e-19)
(0.00277959 -0.181112 -1.46415e-20)
(0.0262925 -0.216646 -4.24779e-19)
(0.053277 -0.252814 1.49418e-19)
(0.083237 -0.288407 -2.08968e-19)
(0.115331 -0.321889 2.53218e-19)
(0.148589 -0.351494 -3.35622e-19)
(0.181026 -0.375447 1.78459e-19)
(0.213994 -0.391557 -1.34536e-19)
(0.235269 -0.401414 1.65579e-19)
(0.27936 -0.389453 -9.83294e-21)
(-0.0105894 0.02631 2.73093e-19)
(-0.0246313 0.0578486 7.13018e-20)
(-0.0348879 0.0738878 -1.57508e-19)
(-0.0423474 0.0782605 -1.8959e-19)
(-0.0478037 0.0742515 1.28223e-19)
(-0.0516556 0.064524 -4.74364e-19)
(-0.0539623 0.0509929 6.81673e-19)
(-0.0545485 0.0348379 1.36775e-19)
(-0.05309 0.0166266 2.24128e-19)
(-0.0491909 -0.00350423 2.7717e-19)
(-0.0424389 -0.0256628 1.78037e-19)
(-0.0324388 -0.0500438 -1.3542e-19)
(-0.0188345 -0.0768141 -7.02702e-21)
(-0.00132098 -0.10604 -6.73224e-20)
(0.0203261 -0.137615 -2.0033e-19)
(0.0462055 -0.171213 4.46479e-19)
(0.0762452 -0.206232 8.96869e-19)
(0.110111 -0.241744 5.00448e-20)
(0.147172 -0.276473 2.946e-19)
(0.186401 -0.308839 -1.48253e-19)
(0.226701 -0.336992 1.63886e-19)
(0.265519 -0.359301 -9.12104e-19)
(0.305146 -0.373103 3.82427e-19)
(0.330302 -0.381522 2.09081e-19)
(0.382433 -0.36658 -1.18877e-19)
(-0.0112629 0.0263451 -1.65009e-19)
(-0.0259208 0.0586753 -2.84057e-19)
(-0.0358858 0.0759271 2.73787e-19)
(-0.0424047 0.0815802 1.79257e-19)
(-0.0463725 0.0787296 9.87135e-20)
(-0.0482647 0.0699448 3.45629e-19)
(-0.0481967 0.0571199 -3.59991e-19)
(-0.046022 0.0414639 -3.3522e-19)
(-0.0414219 0.0235998 -2.20802e-19)
(-0.0339873 0.00372492 -5.29433e-19)
(-0.0232793 -0.0182168 1.05412e-19)
(-0.00886918 -0.0423804 -4.29796e-20)
(0.00962759 -0.0689043 7.79921e-19)
(0.032538 -0.0978365 3.22987e-19)
(0.060089 -0.129049 2.31703e-19)
(0.0923515 -0.162192 -7.17494e-20)
(0.129181 -0.196622 -4.15782e-19)
(0.170133 -0.231374 -3.29386e-19)
(0.214401 -0.265105 -3.70633e-19)
(0.260706 -0.296201 2.57605e-19)
(0.307827 -0.32273 4.51023e-19)
(0.352523 -0.34331 4.58587e-19)
(0.398266 -0.354535 -3.8968e-19)
(0.426401 -0.361496 1.4481e-19)
(0.485382 -0.343878 1.56322e-19)
(-0.0118461 0.0261264 -4.40582e-19)
(-0.0270339 0.058898 2.44684e-19)
(-0.0366687 0.0771335 -4.17918e-19)
(-0.0422138 0.0839284 5.15921e-19)
(-0.044644 0.082163 -4.93858e-19)
(-0.0445009 0.0742905 -1.48782e-19)
(-0.0419519 0.0621652 -2.79911e-19)
(-0.0368792 0.0470118 1.59001e-19)
(-0.0289707 0.0295002 -2.7534e-19)
(-0.0178067 0.00988479 3.03951e-19)
(-0.00292391 -0.0118389 -4.02489e-19)
(0.0161372 -0.0357821 -3.03199e-19)
(0.0397877 -0.0620559 1.3925e-20)
(0.068365 -0.0906769 -4.72124e-19)
(0.102089 -0.121493 9.64496e-21)
(0.140983 -0.154122 -4.76784e-19)
(0.184804 -0.18788 -3.05106e-20)
(0.232944 -0.221744 -5.03261e-19)
(0.284383 -0.254328 1.72268e-19)
(0.337522 -0.283994 7.00238e-19)
(0.390985 -0.308702 -6.37644e-19)
(0.440812 -0.327485 2.81407e-19)
(0.491592 -0.335976 2.75422e-19)
(0.521787 -0.34155 -1.14333e-19)
(0.585361 -0.321536 3.55923e-20)
(-0.0123284 0.0256719 2.28311e-19)
(-0.0279472 0.0585397 -6.40207e-20)
(-0.0372128 0.0775165 1.41658e-19)
(-0.0417572 0.0852951 -4.15401e-19)
(-0.0426118 0.0845221 6.71247e-19)
(-0.0403709 0.0775148 4.37613e-20)
(-0.0352482 0.0660701 4.92515e-19)
(-0.0271534 0.0514151 -2.58248e-19)
(-0.0157819 0.0342572 1.77805e-19)
(-0.000704679 0.0149016 2.36353e-19)
(0.0185621 -0.0066025 2.18386e-19)
(0.0425039 -0.0303226 7.01794e-19)
(0.0715555 -0.0563361 -1.76524e-19)
(0.106056 -0.0846215 -1.82752e-19)
(0.146198 -0.114996 -1.42361e-19)
(0.191932 -0.147037 -1.37514e-20)
(0.242876 -0.180013 -2.92827e-19)
(0.298207 -0.212847 2.56326e-19)
(0.356627 -0.244102 -3.28447e-19)
(0.416162 -0.272149 1.243e-19)
(0.47522 -0.294835 -1.67339e-19)
(0.529212 -0.311716 2.06423e-20)
(0.583507 -0.317474 -6.4115e-19)
(0.614798 -0.321636 6.76525e-20)
(0.680147 -0.299638 1.09931e-20)
(-0.0127033 0.0250043 3.08633e-19)
(-0.028643 0.0576353 -2.07795e-19)
(-0.0374984 0.0771019 -1.4715e-19)
(-0.0410187 0.0856877 -8.82862e-20)
(-0.0402669 0.0857941 -2.91221e-19)
(-0.0358754 0.0795871 -4.96767e-19)
(-0.0280965 0.0687908 -1.63693e-19)
(-0.0168642 0.054621 5.62987e-19)
(-0.00188252 0.0378129 -1.764e-19)
(0.0172862 0.0187174 -3.88571e-19)
(0.041144 -0.00256396 -2.38034e-19)
(0.0701967 -0.0260535 -7.17894e-19)
(0.104894 -0.0517845 -7.92648e-19)
(0.145565 -0.0796983 5.97427e-19)
(0.192351 -0.109569 1.22331e-19)
(0.245094 -0.140925 9.85031e-20)
(0.303221 -0.17298 1.01045e-18)
(0.365629 -0.204606 1.487e-19)
(0.430666 -0.23432 9.06656e-19)
(0.495939 -0.260535 -1.03066e-18)
(0.559563 -0.281008 4.55879e-19)
(0.616533 -0.295843 -3.63169e-19)
(0.672502 -0.299006 5.08533e-19)
(0.703848 -0.301678 -6.72126e-19)
(0.767988 -0.278175 1.18584e-19)
(-0.0129678 0.0241506 -7.78108e-20)
(-0.0291095 0.0562299 -1.67681e-19)
(-0.0375098 0.0759297 -1.55246e-19)
(-0.0399826 0.0851304 5.31607e-20)
(-0.0375967 0.0859839 -8.41234e-20)
(-0.0310067 0.0804944 3.13837e-19)
(-0.0204938 0.0703001 -1.14833e-19)
(-0.00601228 0.0565932 -2.42768e-19)
(0.0127267 0.0401268 -9.87267e-20)
(0.0361675 0.0212933 5.34169e-21)
(0.0648283 0.000242735 6.57101e-19)
(0.09923 -0.0229979 -5.84499e-19)
(0.139824 -0.0484133 8.54935e-19)
(0.186913 -0.0758988 -2.48443e-19)
(0.240554 -0.105177 -4.33037e-19)
(0.300429 -0.135719 3.5829e-19)
(0.365708 -0.16668 -3.85977e-19)
(0.43493 -0.196884 -6.35439e-19)
(0.506012 -0.224818 -2.32013e-19)
(0.576114 -0.248968 1.9675e-19)
(0.642997 -0.267073 2.93437e-19)
(0.701533 -0.279709 5.16652e-19)
(0.757168 -0.280517 1.35179e-20)
(0.787443 -0.281655 2.78878e-19)
(0.847552 -0.257148 -6.45345e-20)
(-0.0131224 0.0231404 -3.83547e-20)
(-0.0293405 0.0543771 3.6699e-19)
(-0.037235 0.0740531 3.78168e-19)
(-0.0386325 0.0836635 -1.69619e-19)
(-0.0345826 0.0851143 1.19345e-19)
(-0.0257452 0.0802422 -4.49153e-19)
(-0.0124192 0.0705898 9.06065e-20)
(0.00542672 0.0573148 7.36962e-20)
(0.028077 0.0411794 -2.16289e-19)
(0.0559823 0.0226115 -6.02867e-20)
(0.0896734 0.00180846 -8.27829e-19)
(0.129679 -0.0211509 2.65549e-19)
(0.176436 -0.0461973 -4.00123e-20)
(0.230192 -0.0731713 -9.6235e-21)
(0.290874 -0.101735 -3.83773e-20)
(0.357938 -0.131297 -5.3595e-21)
(0.430216 -0.160952 -2.91173e-20)
(0.505799 -0.189487 4.44201e-19)
(0.582102 -0.215388 -3.69756e-19)
(0.655852 -0.237242 3.24817e-19)
(0.724432 -0.252873 -4.39637e-19)
(0.782926 -0.263204 -1.9305e-19)
(0.836211 -0.26196 3.43798e-20)
(0.864248 -0.261615 -2.54767e-19)
(0.917951 -0.23662 -6.84618e-20)
(-0.0131713 0.022005 -3.69913e-19)
(-0.0293355 0.0521364 -4.57189e-20)
(-0.0366646 0.0715357 -4.70934e-19)
(-0.0369502 0.0813419 -3.78977e-19)
(-0.0311981 0.0832255 5.04044e-19)
(-0.0200563 0.0788556 3.47517e-19)
(-0.00382908 0.0696726 -1.53941e-19)
(0.0175085 0.0567911 -1.40331e-19)
(0.0442402 0.0409744 -1.05847e-19)
(0.0768234 0.022681 9.18333e-19)
(0.115797 0.00215428 3.56379e-19)
(0.161684 -0.0204722 5.0979e-19)
(0.214886 -0.0450697 -2.79905e-20)
(0.275553 -0.0714152 1.00052e-19)
(0.343419 -0.0991041 2.7551e-19)
(0.417632 -0.127477 -6.41783e-19)
(0.496584 -0.155578 9.97274e-19)
(0.577836 -0.182175 1.00133e-19)
(0.658257 -0.205796 -3.04288e-19)
(0.734191 -0.225153 -4.30182e-19)
(0.802712 -0.238277 -2.20045e-19)
(0.859436 -0.246282 4.20046e-19)
(0.908512 -0.243342 -1.83451e-20)
(0.933199 -0.241672 1.70222e-19)
(0.97877 -0.21671 1.76038e-19)
(-0.0131215 0.0207764 2.82822e-19)
(-0.0290981 0.0495712 2.94717e-20)
(-0.0357912 0.06845 -6.49625e-20)
(-0.0349138 0.078234 6.62479e-20)
(-0.0274062 0.0803751 -4.80266e-19)
(-0.013887 0.0763796 6.44954e-19)
(0.00534754 0.0675833 -5.59164e-22)
(0.0303252 0.0550517 5.33587e-19)
(0.0613344 0.0395429 2.18451e-20)
(0.0988389 0.0215415 -1.86223e-19)
(0.143378 0.00133663 2.9754e-19)
(0.195453 -0.0208807 -1.00721e-18)
(0.255393 -0.0449164 -6.25567e-19)
(0.32319 -0.0704776 -3.11839e-19)
(0.398309 -0.0970883 -1.35172e-19)
(0.479481 -0.124026 1.22994e-20)
(0.564557 -0.150299 -6.46577e-19)
(0.650503 -0.174687 2.35459e-19)
(0.733642 -0.195813 8.72949e-19)
(0.810056 -0.212537 2.33179e-19)
(0.876658 -0.223205 5.05251e-19)
(0.929896 -0.228976 -4.54078e-19)
(0.973199 -0.224735 -8.82589e-20)
(0.99361 -0.221986 -1.39716e-19)
(1.03008 -0.197566 -6.3486e-19)
(-0.0129826 0.0194855 -2.66111e-19)
(-0.0286352 0.0467459 1.34602e-19)
(-0.0346072 0.064874 2.38656e-19)
(-0.032496 0.0744189 8.33623e-19)
(-0.023157 0.0766363 3.15042e-19)
(-0.00716273 0.0728795 -7.03421e-19)
(0.0152126 0.064381 -1.78708e-19)
(0.0440101 0.0521539 -9.31449e-20)
(0.0795282 0.0369471 -3.13952e-19)
(0.122235 0.0192682 -1.02983e-19)
(0.172659 -0.000547865 -2.17547e-19)
(0.23125 -0.0222496 8.02948e-19)
(0.298214 -0.0455732 9.65193e-19)
(0.37331 -0.0701521 4.8735e-19)
(0.455623 -0.095441 -2.48369e-19)
(0.543356 -0.120667 -1.71143e-19)
(0.633726 -0.144829 3.735e-19)
(0.72308 -0.166763 -8.19214e-20)
(0.80727 -0.185242 -1.30101e-20)
(0.882296 -0.199291 1.72038e-19)
(0.945154 -0.207652 -2.36111e-19)
(0.993351 -0.211386 -3.64314e-19)
(1.02972 -0.206276 -2.07214e-19)
(1.04524 -0.202738 2.57667e-19)
(1.07236 -0.17933 6.79261e-19)
(-0.0127653 0.0181611 2.12813e-19)
(-0.0279552 0.0437236 7.22383e-19)
(-0.0331032 0.0608889 2.88836e-19)
(-0.0296618 0.0699845 -2.55739e-19)
(-0.0183854 0.072097 3.58632e-19)
(0.000215102 0.0684405 3.97264e-19)
(0.025902 0.0601495 4.49425e-19)
(0.05874 0.0481846 -2.42647e-20)
(0.099042 0.0332833 3.60471e-19)
(0.147276 0.0159751 -1.11765e-18)
(0.203936 -0.0033587 6.37571e-19)
(0.26938 -0.0244039 -3.42842e-19)
(0.343619 -0.046825 -8.70176e-19)
(0.426078 -0.0701835 -6.31435e-19)
(0.515342 -0.0938749 1.02667e-18)
(0.608972 -0.1171 -3.47061e-19)
(0.703491 -0.13889 -1.67501e-19)
(0.794665 -0.158181 1.19641e-19)
(0.878042 -0.173949 -6.09833e-19)
(0.949781 -0.185396 4.48534e-19)
(1.00724 -0.191691 -6.43389e-20)
(1.04915 -0.193673 4.57898e-19)
(1.07791 -0.188142 4.63943e-19)
(1.08832 -0.184099 -1.40979e-19)
(1.10644 -0.16212 -2.40039e-19)
(-0.0124811 0.0168291 -1.11252e-19)
(-0.0270664 0.0405642 -4.09567e-19)
(-0.0312658 0.0565764 1.102e-20)
(-0.0263665 0.0650249 -2.07227e-19)
(-0.013009 0.0668575 -6.13378e-19)
(0.00837104 0.0631666 -3.1958e-19)
(0.0375863 0.0549974 1.76386e-19)
(0.0747347 0.0432609 -5.56057e-19)
(0.120144 0.0286836 4.35563e-20)
(0.17427 0.0118173 2.79499e-19)
(0.237541 -0.00691009 -8.08084e-19)
(0.310159 -0.027121 -2.66987e-19)
(0.391847 -0.0484105 6.95606e-19)
(0.481573 -0.0702776 4.70476e-19)
(0.577294 -0.0920806 -6.05774e-19)
(0.67584 -0.11303 6.40323e-19)
(0.773039 -0.132236 2.61094e-19)
(0.864206 -0.148785 -6.36316e-20)
(0.94483 -0.161886 -5.36283e-20)
(1.0115 -0.170918 -4.8921e-19)
(1.06223 -0.175461 4.81433e-20)
(1.09701 -0.176028 -7.15889e-20)
(1.11798 -0.170525 -3.64145e-19)
(1.12343 -0.166196 -2.43444e-19)
(1.13329 -0.146014 -1.97181e-19)
(-0.0121408 0.0155113 -7.01258e-20)
(-0.0259747 0.0373217 -9.13091e-19)
(-0.0290755 0.0520155 -5.64004e-19)
(-0.0225539 0.0596375 -7.20205e-19)
(-0.00692746 0.0610283 6.38024e-19)
(0.0174557 0.057179 5.11955e-20)
(0.05047 0.0490572 4.68847e-19)
(0.0922529 0.0375303 -4.30698e-19)
(0.143143 0.0233164 7.25142e-19)
(0.20356 0.00699035 2.74384e-19)
(0.273815 -0.0109729 2.35089e-20)
(0.353872 -0.0301355 -4.30103e-20)
(0.44305 -0.0500323 -1.54829e-19)
(0.539723 -0.0701194 -1.34982e-19)
(0.641104 -0.089751 1.40445e-19)
(0.743251 -0.108193 1.94404e-19)
(0.841383 -0.124687 -1.23356e-18)
(0.930581 -0.138502 7.15758e-20)
(1.00658 -0.149093 -1.85256e-19)
(1.06668 -0.155997 -1.6382e-19)
(1.10977 -0.159143 7.22507e-20)
(1.13703 -0.158648 -4.4589e-19)
(1.15046 -0.153589 1.80885e-19)
(1.15145 -0.149071 1.97142e-19)
(1.15391 -0.131036 -4.17649e-19)
(-0.0117536 0.0142249 1.63753e-19)
(-0.0246813 0.0340431 6.61032e-19)
(-0.0265049 0.0472811 5.67605e-20)
(-0.0181549 0.0539202 1.04691e-18)
(-2.1372e-05 0.0547269 -6.66429e-19)
(0.0276442 0.0506132 6.55997e-19)
(0.0647865 0.0424831 -5.91484e-19)
(0.111584 0.0311684 2.34174e-19)
(0.168371 0.0173834 -3.0653e-19)
(0.235492 0.00172717 4.06593e-19)
(0.313074 -0.0152806 6.80395e-19)
(0.400732 -0.0331502 3.54469e-19)
(0.497245 -0.0513738 1.42767e-19)
(0.60026 -0.0693955 1.57293e-19)
(0.70617 -0.08661 -1.17802e-19)
(0.810292 -0.10239 -9.74168e-20)
(0.907421 -0.116145 9.94086e-19)
(0.992699 -0.127355 3.10059e-19)
(1.06243 -0.135691 8.2521e-19)
(1.11485 -0.140827 2.29127e-20)
(1.14985 -0.14293 -4.47142e-19)
(1.16962 -0.141722 5.31252e-19)
(1.17618 -0.137444 5.98284e-19)
(1.17331 -0.132634 6.13933e-20)
(1.16918 -0.117152 4.05945e-19)
(-0.0113259 0.0129819 -4.64526e-19)
(-0.0231816 0.030767 2.56721e-19)
(-0.0235167 0.0424412 5.63906e-19)
(-0.0130871 0.0479693 -2.22157e-19)
(0.00784597 0.0480756 -6.63037e-19)
(0.0391326 0.0436162 -4.95469e-20)
(0.0807912 0.0354473 3.63874e-20)
(0.133033 0.0243751 6.54728e-20)
(0.196162 0.011115 -4.22175e-19)
(0.270392 -0.00370947 -1.81308e-19)
(0.355565 -0.0195403 -6.33524e-19)
(0.450824 -0.0358511 -1.58837e-20)
(0.554263 -0.05212 -1.7989e-19)
(0.662693 -0.067821 -5.21817e-20)
(0.77167 -0.0824394 4.64117e-19)
(0.875905 -0.0955004 -6.69858e-19)
(0.970041 -0.10661 2.70054e-19)
(1.04961 -0.115449 -4.20867e-19)
(1.11179 -0.121862 -5.96355e-19)
(1.15588 -0.125618 1.0759e-19)
(1.1828 -0.127004 9.63956e-19)
(1.19551 -0.125417 -4.55043e-19)
(1.19611 -0.122099 2.49462e-20)
(1.18997 -0.116666 3.26225e-19)
(1.17987 -0.104452 1.65441e-19)
(-0.0108602 0.0117892 2.18792e-19)
(-0.0214627 0.0275228 -3.09826e-19)
(-0.0200627 0.0375555 -6.55951e-19)
(-0.00725455 0.0418763 -3.49022e-19)
(0.0168264 0.0411975 3.82306e-19)
(0.0521322 0.0363423 1.3014e-19)
(0.0987504 0.0281357 7.67249e-19)
(0.156906 0.0173688 3.13478e-19)
(0.22683 0.00476261 2.00053e-19)
(0.308521 -0.0090373 9.27649e-20)
(0.401426 -0.0234467 6.52625e-19)
(0.504067 -0.0379275 2.95519e-19)
(0.613722 -0.0519822 -2.44987e-19)
(0.726308 -0.0651645 3.5036e-19)
(0.836616 -0.0771 -1.99575e-19)
(0.93898 -0.0874992 2.46963e-19)
(1.02823 -0.0961655 -2.37207e-19)
(1.10061 -0.102951 -4.80288e-19)
(1.1544 -0.107815 6.63943e-19)
(1.18997 -0.110577 -6.60767e-19)
(1.20922 -0.111526 1.73348e-19)
(1.21557 -0.10987 -1.86948e-19)
(1.21133 -0.107448 -1.30086e-19)
(1.20233 -0.101096 -9.62269e-19)
(1.18678 -0.0937987 1.44803e-19)
(-0.0103547 0.0106488 4.48533e-20)
(-0.0195031 0.0243306 2.21689e-19)
(-0.0160838 0.0326749 7.35813e-19)
(-0.000549505 0.0357267 -1.73496e-19)
(0.0270828 0.0342139 -7.58205e-20)
(0.066861 0.028949 1.40823e-19)
(0.118928 0.020742 1.26086e-19)
(0.183489 0.010379 -5.03223e-19)
(0.260634 -0.00141105 -2.35066e-19)
(0.350049 -0.0139676 -7.29506e-19)
(0.450646 -0.0267001 -5.53832e-19)
(0.560182 -0.0390928 -3.96502e-19)
(0.675024 -0.0507206 3.51864e-19)
(0.790204 -0.0612683 -5.10366e-19)
(0.899924 -0.0705411 -2.4133e-19)
(0.998454 -0.078447 -1.03292e-19)
(1.08116 -0.0849636 -7.77602e-20)
(1.14529 -0.0900657 1.4356e-18)
(1.19028 -0.0937612 7.66868e-20)
(1.21759 -0.0958769 -1.19158e-19)
(1.22985 -0.0966237 -5.97756e-19)
(1.23077 -0.0951563 1.80287e-19)
(1.22286 -0.0933516 8.79968e-21)
(1.21138 -0.086512 5.57874e-19)
(1.19137 -0.0859408 6.45007e-20)
(-0.00980257 0.00955781 3.52654e-19)
(-0.0172714 0.0212022 -3.38508e-19)
(-0.0115099 0.0278408 -5.13282e-19)
(0.00714554 0.029598 5.15628e-19)
(0.0387838 0.0272413 -1.15974e-19)
(0.0835349 0.0215927 -1.01041e-19)
(0.141569 0.013462 8.74778e-20)
(0.213022 0.00363812 -1.26484e-19)
(0.297755 -0.00714311 3.19799e-19)
(0.395017 -0.0182199 2.09094e-19)
(0.503037 -0.0290236 5.4127e-19)
(0.618687 -0.039105 -1.43851e-20)
(0.737374 -0.0481627 4.40953e-19)
(0.853358 -0.0560585 -2.843e-20)
(0.960519 -0.062799 4.59765e-19)
(1.05342 -0.0684765 1.29045e-19)
(1.12827 -0.0731982 -8.22112e-19)
(1.18353 -0.0770024 -3.91027e-19)
(1.21978 -0.0798884 -9.55654e-20)
(1.2394 -0.0816496 2.26542e-19)
(1.24555 -0.0823888 -1.01136e-19)
(1.24201 -0.0812672 -3.31987e-19)
(1.23141 -0.0798552 4.66374e-20)
(1.21791 -0.0738324 -2.57607e-19)
(1.19925 -0.0729637 -1.14991e-19)
(-0.00919183 0.00850985 2.15715e-19)
(-0.0147268 0.0181415 2.29688e-19)
(-0.00626138 0.0230856 4.20858e-19)
(0.0159546 0.0235595 -3.0691e-19)
(0.052098 0.0203898 2.18757e-20)
(0.102357 0.0144252 6.17426e-19)
(0.166888 0.00648768 -1.77459e-19)
(0.245683 -0.00262656 -5.96145e-19)
(0.33827 -0.0121816 -3.5564e-19)
(0.443317 -0.0215358 4.77333e-19)
(0.558231 -0.0301805 -9.97031e-19)
(0.678907 -0.0377823 4.42057e-21)
(0.799839 -0.044214 -8.60558e-20)
(0.914713 -0.0495456 6.253e-19)
(1.01743 -0.0539833 -3.28722e-19)
(1.10318 -0.0577673 4.477e-19)
(1.16932 -0.0610772 4.3961e-19)
(1.2155 -0.0639548 -7.42648e-19)
(1.24343 -0.0663452 -3.01864e-19)
(1.25614 -0.0679829 -2.30582e-19)
(1.25714 -0.0688605 3.40823e-19)
(1.25011 -0.0681456 4.95419e-19)
(1.23754 -0.0671932 2.07787e-19)
(1.22308 -0.0619412 -1.75372e-19)
(1.20495 -0.0618629 -2.93056e-19)
(-0.00850548 0.00749563 -5.08277e-20)
(-0.0118196 0.0151462 2.14242e-19)
(-0.000250749 0.0184339 -4.26141e-19)
(0.0260045 0.017672 -6.55114e-19)
(0.0671863 0.013761 -9.73791e-19)
(0.123506 0.00759043 1.65508e-19)
(0.195047 2.20067e-06 -1.97444e-19)
(0.281568 -0.00820053 2.90716e-19)
(0.382131 -0.0162957 1.09028e-19)
(0.494681 -0.0236921 2.08862e-19)
(0.61568 -0.0299862 2.36155e-19)
(0.740021 -0.0350128 -1.27541e-19)
(0.861414 -0.0388589 -1.87598e-19)
(0.973265 -0.0418136 -4.12967e-19)
(1.06985 -0.0442561 1.272e-19)
(1.14733 -0.0465211 -4.66409e-19)
(1.2043 -0.0487988 1.69533e-19)
(1.24162 -0.0510837 1.12373e-19)
(1.26189 -0.0532361 -4.1592e-19)
(1.26862 -0.0549218 -4.23366e-19)
(1.26542 -0.0560321 -2.09507e-19)
(1.25575 -0.055763 1.87951e-20)
(1.24188 -0.0552711 6.20238e-20)
(1.22687 -0.0508828 -1.76816e-19)
(1.20931 -0.0514992 1.20713e-19)
(-0.00772202 0.00650423 3.16976e-21)
(-0.00849253 0.0122103 -5.89481e-19)