/*--------------------------------*- C++ -*----------------------------------*\
  =========                 |
  \\      /  F ield         | OpenFOAM: The Open Source CFD Toolbox
   \\    /   O peration     | Website:  https://openfoam.org
    \\  /    A nd           | Version:  7
     \\/     M anipulation  |
\*---------------------------------------------------------------------------*/
FoamFile
{
    version     2.0;
    format      ascii;
    class       surfaceScalarField;
    location    "155";
    object      phi;
}
// * * * * * * * * * * * * * * * * * * * * * * * * * * * * * * * * * * * * * //

dimensions      [0 3 -1 0 0 0 0];

internalField   nonuniform List<scalar> 
3877
(
0.000786738
0.00354877
0.00102606
0.00279655
0.00126879
0.00192451
0.00150574
0.000963931
0.00173131
-5.69658e-05
0.00194334
-0.00110964
0.00214089
-0.00215605
0.00232179
-0.00314177
0.00248147
-0.00400279
0.00261422
-0.00468457
0.00271586
-0.00516124
0.00278547
-0.00544209
0.0028254
-0.00556387
0.00284011
-0.00557611
0.0028347
-0.00552695
0.00281354
-0.00545427
0.00277872
-0.00538579
0.00272907
-0.00534645
0.00266186
-0.00536045
0.00257779
-0.0054347
0.00248577
-0.00552907
0.00240304
-0.00554092
0.00234904
-0.00532889
0.00233722
-0.00477182
0.00237101
-0.0038243
0.0024459
-0.00253148
0.00255364
-0.00100662
0.0026839
0.000600068
0.00282449
0.00212944
0.0029619
0.00344232
0.00308371
0.00445321
0.00318156
0.00514538
0.00325239
0.00556054
0.00329737
0.00577232
0.00332012
0.00585829
0.00332501
0.00588036
0.00331551
0.00588114
0.00329231
0.00589638
0.00325312
0.00596551
0.00319528
0.00611484
0.00311997
0.00631508
0.00303416
0.00645239
0.00294855
0.00635285
0.00287371
0.00585394
0.00281814
0.00487325
0.00278836
0.00343553
0.00278883
0.00166237
0.00282045
-0.000255482
0.00287896
-0.00209989
0.00295492
-0.00367905
0.0030356
-0.00487934
0.00310907
-0.00568574
0.00316755
-0.00615876
0.00320745
-0.0063927
0.00322649
-0.00649055
-0.00655505
0.000144914
0.00477636
0.000305441
0.00466597
0.000499181
0.00438504
0.00072102
0.00392885
0.000960828
0.00330896
0.0012069
0.00255048
0.00144854
0.00168286
0.00167804
0.000734435
0.00189139
-0.00027032
0.00208799
-0.00130624
0.00226809
-0.00233615
0.00243017
-0.00330386
0.00257007
-0.00414269
0.00268274
-0.00479724
0.00276487
-0.00524337
0.00281647
-0.00549369
0.00284062
-0.00558801
0.00284203
-0.00557753
0.00282565
-0.00551056
0.00279547
-0.00542409
0.0027533
-0.00534362
0.00269764
-0.00529079
0.00262503
-0.00528784
0.00253485
-0.00534452
0.00243482
-0.00542904
0.0023422
-0.0054483
0.00227818
-0.00526486
0.00225877
-0.00475241
0.0022894
-0.00385493
0.00236619
-0.00260828
0.00248029
-0.00112072
0.00262024
0.000460117
0.00277244
0.00197724
0.00292235
0.00329242
0.00305671
0.00431885
0.00316652
0.00503556
0.00324824
0.00547883
0.0033028
0.00571776
0.00333389
0.0058272
0.00334615
0.0058681
0.0033433
0.00588399
0.00332632
0.00591336
0.00329329
0.00599855
0.00324194
0.00616619
0.00317346
0.00638356
0.00309405
0.0065318
0.00301295
0.00643394
0.00293935
0.00592753
0.00288108
0.00493152
0.00284482
0.00347178
0.00283579
0.00167141
0.00285609
-0.000275782
0.00290285
-0.00214666
0.00296786
-0.00374406
0.00303905
-0.00495053
0.00310452
-0.00575121
0.00315621
-0.00621044
0.00319025
-0.00642675
0.00320422
-0.00650452
-0.00654574
0.00024186
0.000436167
0.00447166
0.000657188
0.00416402
0.000897778
0.00368826
0.00114748
0.00305926
0.00139543
0.00230253
0.00163219
0.00144609
0.0018515
0.00051513
0.0020509
-0.000469721
0.00223115
-0.00148649
0.00239339
-0.00249839
0.00253645
-0.00344692
0.00265647
-0.00426271
0.00274902
-0.00488979
0.00281176
-0.00530611
0.00284567
-0.0055276
0.00285453
-0.00559686
0.00284325
-0.00556626
0.00281656
-0.00548387
0.00277803
-0.00538556
0.00272914
-0.00529473
0.00266817
-0.00522982
0.00259107
-0.00521074
0.00249593
-0.00524937
0.00238903
-0.00532214
0.00228725
-0.00534652
0.00221316
-0.00519077
0.00218541
-0.00472466
0.00221175
-0.00388127
0.0022892
-0.00268572
0.00240844
-0.00123996
0.00255707
0.000311482
0.00272004
0.00181428
0.00288183
0.00313062
0.00302837
0.00417231
0.00314997
0.00491396
0.00324256
0.00538623
0.00330683
0.00565349
0.00334647
0.00578756
0.00336636
0.00584822
0.00337047
0.00587988
0.00336009
0.00592374
0.00333372
0.00602492
0.00328949
0.00621042
0.00322851
0.00644454
0.00315604
0.00660427
0.00307983
0.00651016
0.00300769
0.00599968
0.00294679
0.00499242
0.00290393
0.00351464
0.00288505
0.00169029
0.00289352
-0.000284253
0.00292794
-0.00218108
0.00298144
-0.00379756
0.00304271
-0.00501181
0.00309993
-0.00580843
0.00314472
-0.00625523
0.00317295
-0.00645498
0.00318201
-0.00651358
-0.00653218
0.000593918
0.00425
0.000835314
0.00392262
0.0010882
0.00343537
0.00134235
0.0028051
0.00158785
0.00205703
0.00181653
0.00121741
0.00202352
0.000308135
0.00220785
-0.00065405
0.00237138
-0.00165002
0.00251576
-0.00264277
0.0026399
-0.00357105
0.00274013
-0.00436294
0.00281271
-0.00496237
0.00285634
-0.00534973
0.00287301
-0.00554428
0.00286714
-0.005591
0.00284385
-0.00554296
0.00280755
-0.00544758
0.00276135
-0.00533936
0.00270638
-0.00523975
0.00264078
-0.00516422
0.00256007
-0.00513003
0.00246114
-0.00515044
0.00234865
-0.00520966
0.00223861
-0.00523648
0.00215458
-0.00510675
0.00211781
-0.0046879
0.00213865
-0.0039021
0.00221536
-0.00276243
0.00233841
-0.00136301
0.00249457
0.000155322
0.00266734
0.00164151
0.00284032
0.00295764
0.00299859
0.00401405
0.00313175
0.0047808
0.00323519
0.0052828
0.00330927
0.00557941
0.00335766
0.00573916
0.00338541
0.00582047
0.00339676
0.00586853
0.00339333
0.00592716
0.0033741
0.00604416
0.00333759
0.00624693
0.00328471
0.00649742
0.00321972
0.00666926
0.0031488
0.00658108
0.00307839
0.00607009
0.003015
0.00505581
0.00296549
0.00356415
0.00293652
0.00171926
0.00293273
-0.000280457
0.00295427
-0.00220262
0.00299573
-0.00383902
0.00304667
-0.00506275
0.00309539
-0.00585715
0.0031332
-0.00629304
0.00315564
-0.00647742
0.00315994
-0.00651789
-0.0065147
0.000773312
0.00400783
0.00102837
0.00366757
0.00128762
0.00317612
0.00154138
0.00255134
0.0017807
0.00181771
0.00199866
0.000999454
0.00219186
0.000114934
0.00236058
-0.000822765
0.00250748
-0.00179692
0.00263434
-0.00276963
0.00273988
-0.00367659
0.00282058
-0.00444365
0.00287348
-0.00501526
0.0028984
-0.00537466
0.00289839
-0.00554427
0.00287846
-0.00557108
0.00284386
-0.00550835
0.00279868
-0.0054024
0.0027455
-0.00528618
0.00268509
-0.00517934
0.00261549
-0.00509463
0.002532
-0.00504654
0.00243046
-0.0050489
0.00231375
-0.00509295
0.00219655
-0.00511928
0.00210292
-0.00501311
0.00205653
-0.00464151
0.00207063
-0.0039162
0.00214513
-0.00283694
0.00227047
-0.00148835
0.00243292
-7.12772e-06
0.00261442
0.00146001
0.00279781
0.00277426
0.00296728
0.00384457
0.00311174
0.00463634
0.00322594
0.00516859
0.0033099
0.00549546
0.00336721
0.00568185
0.00340305
0.00578463
0.00342189
0.00584968
0.00342574
0.00592332
0.00341407
0.00605582
0.0033858
0.0062752
0.00334158
0.00654163
0.00328458
0.00672626
0.00321937
0.00664629
0.00315105
0.00613841
0.00308541
0.00512145
0.0030293
0.00362025
0.00299008
0.00175849
0.00297367
-0.000264049
0.00298186
-0.0022108
0.00301078
-0.00386795
0.00305099
-0.00510295
0.00309097
-0.00589713
0.00312171
-0.00632378
0.00313839
-0.0064941
0.00313809
-0.00651759
-0.00649357
0.000968862
0.00375188
0.00123135
0.00340508
0.00149167
0.00291579
0.00174084
0.00230217
0.00197089
0.00158766
0.0021761
0.000794235
0.00235466
-6.3619e-05
0.00250774
-0.000975844
0.00263849
-0.00192768
0.00274841
-0.00287955
0.00283582
-0.003764
0.00289738
-0.0045052
0.00293099
-0.00504888
0.00293773
-0.00538139
0.00292169
-0.00552822
0.00288845
-0.00553783
0.00284327
-0.00546318
0.00278994
-0.00534907
0.00273049
-0.00522674
0.00266528
-0.00511412
0.0025923
-0.00502165
0.0025068
-0.00496104
0.00240375
-0.00494585
0.00228424
-0.00497344
0.00216118
-0.00499622
0.00205851
-0.00491044
0.00200206
-0.00458506
0.00200817
-0.00392231
0.00207889
-0.00290766
0.00220494
-0.0016144
0.00237227
-0.000174457
0.00256131
0.00127097
0.00275425
0.00258132
0.00293435
0.00366448
0.00308976
0.00448093
0.00321461
0.00504374
0.0033085
0.00540157
0.00337488
0.00561547
0.00341901
0.0057405
0.00344556
0.00582313
0.00345696
0.00591192
0.00345323
0.00605955
0.00343366
0.00629477
0.00339861
0.00657668
0.00335007
0.00677481
0.00329103
0.00670533
0.0032252
0.00620424
0.00315761
0.00518903
0.0030951
0.00368276
0.0030455
0.00180809
0.00301626
-0.000234805
0.00301067
-0.00220522
0.00302663
-0.00388391
0.00305573
-0.00513205
0.00308674
-0.00592813
0.00311033
-0.00634737
0.00312129
-0.00650506
0.00311651
-0.00651281
-0.00646908
0.00117521
0.00348842
0.00143957
0.00314072
0.0016964
0.00265897
0.00193743
0.00206114
0.00215579
0.0013693
0.00234686
0.000603169
0.00251047
-0.000227225
0.00264834
-0.00111372
0.00276371
-0.00204305
0.00285741
-0.00297325
0.00292725
-0.00383384
0.00297011
-0.00454806
0.00298494
-0.00506371
0.00297412
-0.00537058
0.00294279
-0.00549689
0.00289702
-0.00549206
0.00284207
-0.00540822
0.00278132
-0.00528832
0.00271629
-0.0051617
0.00264689
-0.00504473
0.00257112
-0.00494588
0.00248428
-0.0048742
0.00238078
-0.00484235
0.0022599
-0.00485256
0.00213243
-0.00486876
0.00202156
-0.00479956
0.0019548
-0.0045183
0.00195174
-0.00391925
0.00201702
-0.00297294
0.00214247
-0.00173985
0.00231236
-0.000344355
0.00250807
0.00107526
0.00270961
0.00237979
0.00289968
0.0034744
0.00306567
0.00431494
0.00320102
0.00490839
0.00330484
0.00529775
0.00338041
0.0055399
0.00343299
0.00568793
0.00346746
0.00578866
0.00348664
0.00589274
0.00349117
0.00605502
0.0034807
0.00630525
0.00345524
0.00660213
0.00341561
0.00681443
0.00336319
0.00675775
0.0033003
0.00626713
0.00323118
0.00525815
0.00316245
0.0037515
0.00310261
0.00186793
0.00306033
-0.000192525
0.00304067
-0.00218556
0.00304327
-0.00388651
0.00306092
-0.0051497
0.00308274
-0.00594995
0.0030991
-0.00636374
0.00310437
-0.00651033
0.00309524
-0.00650369
-0.00644148
0.00138728
0.00322305
0.00164875
0.00287925
0.00189825
0.00240947
0.00212832
0.00183107
0.00233315
0.00116447
0.00250947
0.000426851
0.00265827
-0.000376029
0.00278174
-0.00123718
0.00288265
-0.00214396
0.0029609
-0.0030515
0.00301371
-0.00388665
0.00303837
-0.00457272
0.003035
-0.00506034
0.00300735
-0.00534293
0.00296155
-0.0054511
0.00290411
-0.00543462
0.00284018
-0.00534429
0.00277275
-0.00522089
0.0027028
-0.00509175
0.00262984
-0.00497176
0.0025518
-0.00486785
0.00246423
-0.00478663
0.00236119
-0.0047393
0.00224034
-0.00473171
0.00211006
-0.00473848
0.00199209
-0.00468159
0.00191505
-0.00444126
0.00190173
-0.00390593
0.0019599
-0.00303111
0.00208265
-0.00186259
0.00225397
-0.000515675
0.00245476
0.00087446
0.00266387
0.00217069
0.00286319
0.00327508
0.00303931
0.00413881
0.00318495
0.00476276
0.00329869
0.005184
0.00338354
0.00545505
0.0034447
0.00562676
0.00348724
0.00574612
0.00351441
0.00586556
0.00352745
0.00604198
0.00352637
0.00630632
0.00351087
0.00661764
0.00348056
0.00684474
0.00343523
0.00680308
0.00337579
0.00632658
0.00330558
0.00532835
0.00323104
0.00382604
0.00316103
0.00193794
0.00310572
-0.000137212
0.00307174
-0.00215158
0.00306068
-0.00387545
0.00306658
-0.00515559
0.003079
-0.00596237
0.00308806
-0.00637279
0.00308766
-0.00650993
0.00307431
-0.00649034
-0.00641101
0.00160038
0.00296057
0.00185499
0.00262465
0.00209411
0.00217035
0.00231112
0.00161406
0.00250144
0.000974151
0.00266266
0.000265632
0.00279744
-0.00051081
0.00290752
-0.00134727
0.00299498
-0.00223142
0.00305852
-0.00311504
0.00309483
-0.00392296
0.00310178
-0.00457968
0.00308085
-0.0050394
0.00303717
-0.00529925
0.00297783
-0.00539175
0.00290961
-0.00536641
0.00283752
-0.00527219
0.00276413
-0.0051475
0.00268991
-0.00501753
0.00261396
-0.00489582
0.00253417
-0.00478806
0.00244639
-0.00469885
0.00234459
-0.0046375
0.00222506
-0.00461218
0.00209362
-0.00460704
0.00196994
-0.00455791
0.00188298
-0.0043543
0.00185851
-0.00388147
0.00190782
-0.00308042
0.00202595
-0.00198072
0.00219709
-0.000686812
0.00240147
0.00067008
0.002617
0.00195515
0.00282477
0.00306732
0.00301052
0.00395306
0.0031662
0.00460708
0.00328981
0.0050604
0.00338399
0.00536087
0.00345385
0.00555691
0.00350457
0.0056954
0.00353987
0.00583026
0.0035616
0.00602026
0.00357016
0.00629776
0.00356489
0.0066229
0.00354427
0.00686537
0.00350648
0.00684086
0.00345102
0.00638204
0.00338028
0.00539909
0.00330035
0.00390597
0.00322047
0.00201782
0.00315217
-6.89135e-05
0.00310376
-0.00210317
0.00307881
-0.0038505
0.00307269
-0.00514948
0.00307552
-0.0059652
0.00307721
-0.00637448
0.00307118
-0.0065039
0.00305371
-0.00647287
-0.00637787
0.00181023
0.00270493
0.00205483
0.00238004
0.0022813
0.00194388
0.00248382
0.00141154
0.00265889
0.000799084
0.00280622
0.000118297
0.00292764
-0.000632232
0.00302551
-0.00144514
0.00310045
-0.00230636
0.00314988
-0.00316447
0.00317015
-0.00394323
0.00315994
-0.00456947
0.00312218
-0.00500164
0.00306339
-0.00524046
0.00299147
-0.00531983
0.00291342
-0.00528836
0.00283399
-0.00519277
0.00275534
-0.00506884
0.00267746
-0.00493965
0.00259908
-0.00481744
0.00251801
-0.004707
0.00243044
-0.00461128
0.00233052
-0.00453758
0.00221347
-0.00449513
0.00208255
-0.00447612
0.00195478
-0.00443014
0.00185862
-0.00425814
0.00182237
-0.00384522
0.0018612
-0.00311925
0.00197277
-0.00209229
0.00214179
-0.00085584
0.00234826
0.00046361
0.002569
0.00173441
0.00278435
0.00285198
0.00297917
0.00375823
0.00314459
0.00444166
0.00327796
0.00492703
0.0033815
0.00525732
0.00346013
0.00547828
0.00351913
0.00563639
0.00356266
0.00578674
0.00359318
0.00598973
0.00361151
0.00627943
0.00361668
0.00661773
0.00360605
0.00687601
0.00357626
0.00687065
0.00352535
0.00643295
0.00345468
0.00546975
0.00336989
0.00399077
0.00328054
0.00210717
0.00319944
1.2191e-05
0.00313657
-0.00204031
0.00309757
-0.00381149
0.00307923
-0.00513114
0.00307231
-0.00595828
0.00306657
-0.00636874
0.00305494
-0.00649227
0.00303344
-0.00645136
-0.00634226
0.00201302
0.00245916
0.00224533
0.00214774
0.00245767
0.00173153
0.00264513
0.00122409
0.00280491
0.000639302
0.00293976
-1.65591e-05
0.00304894
-0.000741405
0.00313571
-0.00153191
0.00319891
-0.00236955
0.00323469
-0.00320026
0.0032393
-0.00394784
0.00321248
-0.00454265
0.0031587
-0.00494786
0.00308579
-0.00516755
0.00300233
-0.00523637
0.00291541
-0.00520145
0.00282948
-0.00510683
0.00274624
-0.0049856
0.00266528
-0.00485869
0.00258497
-0.00473713
0.00250306
-0.00462508
0.00241607
-0.00452429
0.00231852
-0.00444003
0.00220492
-0.00438153
0.00207612
-0.00434732
0.00194607
-0.00430009
0.00184182
-0.00415389
0.00179355
-0.00379695
0.00182041
-0.00314611
0.00192338
-0.00219525
0.00208829
-0.00102075
0.00229523
0.000256669
0.00251988
0.00150976
0.00274186
0.00263
0.00294512
0.00355497
0.00311993
0.00426684
0.00326292
0.00478404
0.0033758
0.00514444
0.00346324
0.00539084
0.00353059
0.00556905
0.00358238
0.00573494
0.00362174
0.00595038
0.00364989
0.00625128
0.00366562
0.006602
0.00366522
0.00687641
0.00364386
0.00689201
0.00359808
0.00647873
0.00352816
0.00553968
0.00343914
0.00407979
0.00334082
0.00220549
0.00324718
0.000105832
0.00316997
-0.0019631
0.00311686
-0.00375838
0.00308615
-0.00510044
0.00306935
-0.00594148
0.00305612
-0.00635551
0.00303892
-0.00647507
0.00301347
-0.00642592
-0.00630433
0.00220544
0.00222537
0.00242404
0.00192914
0.00262163
0.00153394
0.00279423
0.00105149
0.00294003
0.000493502
0.00306286
-0.000139384
0.00316155
-0.000840102
0.00323827
-0.00160863
0.00329026
-0.00242154
0.00331263
-0.00322263
0.00330189
-0.00393709
0.00325905
-0.00449981
0.00319016
-0.00487896
0.0031042
-0.00508159
0.00301029
-0.00514246
0.00291548
-0.00510664
0.00282385
-0.00501521
0.00273668
-0.00489843
0.00265317
-0.00477518
0.00257141
-0.00465538
0.00248905
-0.00454272
0.00240294
-0.00443818
0.0023081
-0.00434519
0.0021987
-0.00427213
0.00207349
-0.00422211
0.00194308
-0.00416968
0.00183226
-0.00404307
0.00177216
-0.00373685
0.0017858
-0.00315975
0.00187813
-0.00228758
0.00203687
-0.0011795
0.00224252
5.10279e-05
0.00246968
0.0012826
0.00269726
0.00240242
0.00290826
0.00334397
0.00309205
0.00408306
0.00324447
0.00463162
0.00336665
0.00502225
0.00346292
0.00529457
0.00353862
0.00549335
0.00359868
0.00567488
0.00364685
0.00590221
0.00368479
0.00621334
0.0037111
0.00657569
0.00372113
0.00686639
0.00370857
0.00690457
0.00366851
0.00651878
0.00360004
0.00560815
0.00350757
0.00417225
0.00340085
0.00231221
0.00329504
0.000211642
0.00320373
-0.00187179
0.00313655
-0.0036912
0.00309339
-0.00505728
0.00306658
-0.00591467
0.00304582
-0.00633475
0.00302309
-0.00645234
0.00299378
-0.0063966
-0.00626421
0.00238483
0.0025892
0.00172478
0.00277224
0.0013509
0.002931
0.000892732
0.0030642
0.000360298
0.00317635
-0.000251533
0.00326599
-0.00092974
0.00333342
-0.00167606
0.0033744
-0.00246252
0.00338339
-0.00323162
0.00335754
-0.00391124
0.00329934
-0.00444161
0.00321631
-0.00479594
0.00311846
-0.00498374
0.00301523
-0.00503923
0.00291351
-0.00500492
0.00281698
-0.00491868
0.00272649
-0.00480794
0.00264093
-0.00468961
0.00255814
-0.00457259
0.00247569
-0.00446028
0.00239071
-0.00435319
0.00229879
-0.00425327
0.00219414
-0.00416748
0.00207377
-0.00410174
0.00194493
-0.00404084
0.00182939
-0.00392753
0.00175816
-0.00366562
0.0017577
-0.00315929
0.00183745
-0.00236732
0.00198797
-0.00133002
0.00219029
-0.000151294
0.00241848
0.00105441
0.00265055
0.00217035
0.00286851
0.00312601
0.00306081
0.00389076
0.00322242
0.00447001
0.00335381
0.00489086
0.00345889
0.00518949
0.00354293
0.0054093
0.00361122
0.00560659
0.0036681
0.00584534
0.00371571
0.00616572
0.00375256
0.00653885
0.00377311
0.00684583
0.00376971
0.00690798
0.00373595
0.00655254
0.00366968
0.00567442
0.0035745
0.00426743
0.00346038
0.00242633
0.00334254
0.000329478
0.00323762
-0.00176686
0.00315649
-0.00361007
0.00310086
-0.00500165
0.00306397
-0.00587778
0.00303565
-0.00630642
0.00300742
-0.00642412
0.00297431
-0.00636349
-0.006222
0.00273997
0.00153432
0.0029094
0.00118146
0.00305587
0.000746268
0.00317815
0.000238013
0.00328129
-0.00035467
0.00336285
-0.0010113
0.00342131
-0.00173451
0.00345112
-0.00249234
0.0034466
-0.0032271
0.00340589
-0.00387052
0.00333305
-0.00436877
0.00323698
-0.00469988
0.00312845
-0.0048752
0.00301705
-0.00492784
0.00290941
-0.00489727
0.00280875
-0.00481802
0.00271552
-0.00471472
0.00262834
-0.00460244
0.0025449
-0.00448915
0.00246268
-0.00437806
0.00237903
-0.00426954
0.00229015
-0.00416439
0.00219055
-0.00406789
0.00207603
-0.00398722
0.00195061
-0.00391542
0.00183244
-0.00380936
0.00175133
-0.00358452
0.0017364
-0.00314435
0.00180187
-0.00243279
0.00194219
-0.00147035
0.00213853
-0.00034763
0.00236641
0.000826528
0.00260174
0.00193502
0.00282582
0.00290193
0.00302608
0.0036905
0.00319659
0.00429951
0.00333705
0.0047504
0.00345089
0.00507566
0.00354324
0.00531695
0.00361968
0.00553015
0.00368511
0.0057799
0.00374221
0.00610863
0.00378944
0.00649161
0.00382056
0.00681472
0.0038266
0.00690193
0.0037997
0.00657944
0.00373639
0.00573772
0.00363941
0.00436442
0.00351843
0.00254731
0.00338968
0.000458227
0.00327137
-0.00164855
0.00317652
-0.00351523
0.00310846
-0.00493358
0.00306145
-0.00583077
0.00302554
-0.00627051
0.00299187
-0.00639045
0.00295503
-0.00632665
-0.00617781
0.00287672
0.00135678
0.00303398
0.0010242
0.00316989
0.000610361
0.00328342
0.000124481
0.00337876
-0.000450014
0.00345271
-0.00108525
0.00350196
-0.00178375
0.00352012
-0.00251051
0.00350183
-0.00320881
0.00344656
-0.00381526
0.00335994
-0.00428214
0.00325202
-0.00459196
0.00313409
-0.00475727
0.00301569
-0.00480944
0.00290307
-0.00478465
0.00279901
-0.00471396
0.00270359
-0.0046193
0.00261521
-0.00451405
0.00253143
-0.00440537
0.00244972
-0.00429635
0.00236758
-0.00418739
0.00228176
-0.00407858
0.00218733
-0.00397346
0.00207936
-0.00387924
0.00195901
-0.00379508
0.00184046
-0.00369081
0.00175123
-0.00349528
0.00172202
-0.00311515
0.0017718
-0.00248257
0.0018997
-0.00159825
0.00208786
-0.000535792
0.00231367
0.000600724
0.00255092
0.00169777
0.00278016
0.00267268
0.00298778
0.00348288
0.00316683
0.00412045
0.0033162
0.00460103
0.00343871
0.00495314
0.00353931
0.00521636
0.00362377
0.00544569
0.00369756
0.00570611
0.00376388
0.00604231
0.00382128
0.00643421
0.00386291
0.00677308
0.00387863
0.00688621
0.00385912
0.00659896
0.00379956
0.00579728
0.00370165
0.00446232
0.00357482
0.00267414
0.00343579
0.000597254
0.00330471
-0.00151746
0.00319645
-0.00340698
0.00311608
-0.00485321
0.00305895
-0.00577364
0.00301544
-0.006227
0.00297636
-0.00635137
0.00293587
-0.00628615
-0.00613168
0.00300122
0.00119082
0.00314796
0.000877455
0.00327459
0.000483725
0.00338189
1.7187e-05
0.00346978
-0.000537903
0.00353585
-0.00115132
0.00357514
-0.00182305
0.00358093
-0.00251629
0.00354863
-0.00317652
0.00347924
-0.00374586
0.00337982
-0.00418272
0.00326134
-0.00447348
0.00313532
-0.00463125
0.00301108
-0.0046852
0.00289441
-0.00466798
0.00278765
-0.0046072
0.00269054
-0.00452219
0.00260131
-0.00442482
0.00251748
-0.00432155
0.00243651
-0.00421538
0.00235602
-0.0041069
0.00227326
-0.00399581
0.00218394
-0.00388414
0.00208291
-0.00377821
0.001969
-0.00368117
0.00185233
-0.00357414
0.00175714
-0.00340009
0.00171453
-0.00307254
0.00174768
-0.00251572
0.00186076
-0.00171133
0.00203895
-0.000713987
0.00226053
0.000379146
0.00249821
0.00146009
0.00273158
0.00243931
0.00294586
0.00326861
0.00313304
0.00393327
0.00329108
0.00444299
0.00342215
0.00482207
0.0035309
0.00510761
0.00362325
0.00535334
0.00370516
0.0056242
0.00378037
0.0059671
0.00384764
0.00636693
0.00389966
0.00672106
0.00392523
0.00686065
0.00391359
0.00661059
0.00385854
0.00585234
0.00376067
0.00456019
0.00362901
0.00280581
0.00348046
0.000745803
0.00333733
-0.00137434
0.00321608
-0.00328572
0.00312359
-0.00476073
0.00305638
-0.00570643
0.00300528
-0.0061759
0.00296085
-0.00630694
0.00291676
-0.00624207
-0.00608368
0.00311653
0.00103525
0.00325414
0.00073985
0.00337172
0.000366143
0.00347542
-8.65183e-05
0.00355487
-0.000617346
0.00361212
-0.00120857
0.00364036
-0.00185129
0.00363295
-0.00250888
0.00358653
-0.00313009
0.00350362
-0.00366296
0.00339256
-0.00407166
0.00326489
-0.00434581
0.00313213
-0.00449849
0.00300319
-0.00455626
0.00288337
-0.00454816
0.00277455
-0.00449837
0.0026762
-0.00442385
0.00258644
-0.00433506
0.0025028
-0.0042379
0.00242275
-0.00413533
0.00234404
-0.00402819
0.00226428
-0.00391606
0.00217991
-0.00379977
0.00208592
-0.00368423
0.00197946
-0.00357471
0.00186679
-0.00346146
0.00176815
-0.00330145
0.00171365
-0.00301804
0.00172982
-0.00253189
0.00182623
-0.00180773
0.00199217
-0.000879926
0.00220743
0.000163878
0.00244384
0.00122369
0.00268016
0.00220299
0.0029003
0.00304847
0.00309511
0.00373846
0.00326156
0.00427655
0.00340104
0.00468259
0.00351782
0.00499083
0.0036179
0.00525327
0.00370765
0.00553445
0.00379138
0.00588337
0.00386815
0.00629016
0.00393036
0.00665885
0.00396586
0.00682515
0.00396255
0.0066139
0.00391276
0.00590212
0.00381593
0.00465702
0.00368039
0.00294135
0.00352335
0.000902844
0.00336893
-0.00121991
0.00323519
-0.00315198
0.00313085
-0.00465639
0.00305365
-0.00562922
0.00299498
-0.00611723
0.00294525
-0.0062572
0.00289763
-0.00619445
-0.00603383
0.00322637
0.00335569
0.000610535
0.00346614
0.000255692
0.00356196
-0.000182337
0.00363375
-0.000689143
0.00368093
-0.00125575
0.00369681
-0.00186717
0.0036755
-0.00248757
0.00361506
-0.00306965
0.00351951
-0.00356741
0.00339812
-0.00395026
0.00326272
-0.00421041
0.00312455
-0.00436033
0.00299203
-0.00442374
0.00286988
-0.00442601
0.0027596
-0.00438809
0.00266043
-0.00432468
0.00257043
-0.00424506
0.00248716
-0.00415463
0.00240819
-0.00405636
0.00233134
-0.00395133
0.00225452
-0.00383924
0.00217483
-0.00372008
0.00208776
-0.00359716
0.00198938
-0.00347632
0.00188253
-0.00335461
0.00178307
-0.00320199
0.00171882
-0.0029538
0.00171844
-0.00253151
0.00179681
-0.0018861
0.00194812
-0.00103123
0.00215486
-4.28613e-05
0.00238809
0.000990452
0.00262604
0.00196504
0.00285115
0.00282336
0.00305303
0.00353658
0.00322753
0.00410204
0.00337524
0.00453489
0.00349992
0.00486614
0.00360754
0.00514565
0.00370484
0.00543715
0.00379669
0.00579153
0.00388253
0.00620431
0.00395465
0.00658673
0.0040001
0.00677971
0.0040055
0.0066085
0.00396171
0.00594591
0.00386688
0.00475185
0.00372859
0.00307964
0.00356405
0.00106738
0.00339919
-0.00105505
0.00325356
-0.00300635
0.00313772
-0.00454055
0.00305066
-0.00554217
0.00298446
-0.00605104
0.00292948
-0.00620222
0.00287842
-0.0061434
-0.00598217
0.00345456
0.000489927
0.00355685
0.000153394
0.00364355
-0.00026903
0.00370584
-0.000751436
0.00374126
-0.00129117
0.00374352
-0.00186943
0.00370787
-0.00245191
0.00363387
-0.00299566
0.0035268
-0.00346033
0.00339653
-0.00382
0.00325489
-0.00406877
0.00311266
-0.00421809
0.0029776
-0.00428868
0.0028539
-0.00430231
0.0027427
-0.00427688
0.00264308
-0.00422506
0.00255308
-0.00415506
0.00247035
-0.00407191
0.00239257
-0.00397857
0.00231763
-0.0038764
0.00224369
-0.0037653
0.00216839
-0.00364479
0.00208791
-0.00351668
0.00199784
-0.00338626
0.00189827
-0.00325505
0.00180058
-0.00310429
0.0017292
-0.00288242
0.00171348
-0.00251578
0.00177308
-0.0019457
0.00190846
-0.00116661
0.0021025
-0.000236908
0.00233138
0.000761577
0.00256948
0.00172694
0.00279852
0.00259432
0.00300679
0.0033283
0.00318896
0.00391988
0.00334465
0.0043792
0.00347708
0.00473371
0.00359205
0.00503067
0.00369659
0.0053326
0.00379611
0.00569201
0.00389055
0.00610988
0.00397222
0.00650506
0.00402756
0.00672437
0.00404199
0.00659407
0.00400492
0.00598298
0.00391306
0.00484371
0.003773
0.0032197
0.00360228
0.0012381
0.00342781
-0.000880577
0.00327098
-0.00284952
0.00314404
-0.00441361
0.0030473
-0.00544543
0.00297364
-0.00597737
0.00291347
-0.00614204
0.00285903
-0.00608896
-0.00592873
0.00355093
0.000379778
0.0036438
6.0523e-05
0.00371926
-0.000344488
0.00376978
-0.000801959
0.00379169
-0.00131308
0.00377939
-0.00185714
0.00372941
-0.00240193
0.0036427
-0.00290895
0.00352548
-0.00334312
0.00338793
-0.00368245
0.00324157
-0.00392241
0.00309654
-0.00407306
0.00295994
-0.00415208
0.0028354
-0.00417778
0.00272376
-0.00416524
0.00262401
-0.00412531
0.00253423
-0.00406527
0.00245218
-0.00398986
0.00237565
-0.00390205
0.00230267
-0.00380341
0.00223152
-0.00369415
0.00216032
-0.00357359
0.00208596
-0.00344232
0.00200411
-0.0033044
0.00191282
-0.00316376
0.00181924
-0.00301072
0.00174366
-0.00280684
0.00171455
-0.00248668
0.00175534
-0.00198649
0.00187242
-0.00128369
0.00205259
-0.000417081
0.00227428
0.000539888
0.00251079
0.00149044
0.00274257
0.00236254
0.00295646
0.00311441
0.0031458
0.00373054
0.0033092
0.0042158
0.00344919
0.00459371
0.00357132
0.00490854
0.0036828
0.00522113
0.00378954
0.00558527
0.00389205
0.00600736
0.00398286
0.00641425
0.00404795
0.00665929
0.00407167
0.00657034
0.00404197
0.00601269
0.00395402
0.00493166
0.00381335
0.00336036
0.00363757
0.00141388
0.00345453
-0.000697534
0.00328724
-0.00268223
0.00314966
-0.00427604
0.00304347
-0.00533924
0.00296242
-0.00589632
0.00289712
-0.00607674
0.0028394
-0.00603124
-0.00587352
0.00364228
0.000283422
0.0037259
-2.30942e-05
0.00378696
-0.000405553
0.00382356
-0.000838552
0.00383063
-0.00132015
0.00380341
-0.00182991
0.00373965
-0.00233817
0.00364147
-0.00281077
0.00351571
-0.00321736
0.00337254
-0.00353928
0.00322294
-0.00377281
0.00307633
-0.00392645
0.00293908
-0.00401483
0.00281435
-0.00405304
0.0027027
-0.00405359
0.00260311
-0.00402572
0.00251373
-0.00397589
0.00243246
-0.00390859
0.00235725
-0.00382683
0.00228621
-0.00373238
0.00221778
-0.00362571
0.00215039
-0.0035062
0.00208164
-0.00337357
0.00200762
-0.00323038
0.00192513
-0.00308127
0.00183764
-0.00292322
0.00176083
-0.00273002
0.00172094
-0.00244679
0.00174375
-0.00200929
0.00184126
-0.0013812
0.00200534
-0.000581166
0.00221746
0.000327766
0.00245043
0.00125746
0.00268358
0.00212939
0.00290217
0.00289583
0.00309812
0.00353459
0.00326888
0.00404503
0.00341622
0.00444638
0.0035453
0.00477946
0.0036634
0.00510303
0.00377691
0.00547177
0.00388696
0.00589731
0.00398644
0.00631478
0.00406106
0.00658466
0.00409425
0.00653715
0.00407251
0.00603443
0.00398942
0.00501475
0.00384934
0.00350044
0.00366957
0.00159364
0.00347908
-0.000507037
0.00330213
-0.00250528
0.00315444
-0.00412835
0.00303905
-0.00522385
0.00295072
-0.00580799
0.00288035
-0.00600637
0.00281942
-0.00597031
0.00276249
-0.00581659
-0.00561268
0.00372783
0.00379722
-9.24873e-05
0.00384343
-0.000451766
0.00386478
-0.000859901
0.00385652
-0.00131189
0.00381474
-0.00178814
0.00373834
-0.00226176
0.00363029
-0.00270273
0.00349776
-0.00308483
0.00335064
-0.00339215
0.00319924
-0.00362141
0.00305217
-0.00377938
0.00291509
-0.00387775
0.00279072
-0.00392867
0.00267945
-0.00394232
0.00258026
-0.00392653
0.00249143
-0.00388707
0.00241104
-0.0038282
0.00233717
-0.00375296
0.00226807
-0.00366328
0.00220226
-0.0035599
0.00213842
-0.00344237
0.00207474
-0.00330989
0.00200796
-0.0031636
0.00193435
-0.00300765
0.00185441
-0.00284329
0.00177921
-0.00265482
0.0017316
-0.00239919
0.00173811
-0.0020158
0.0018155
-0.00145859
0.00196171
-0.00072738
0.00216175
0.000127722
0.00238901
0.00103021
0.00262193
0.00189647
0.00284412
0.00267363
0.00304598
0.00333272
0.00322371
0.0038673
0.00337815
0.00429194
0.00351396
0.00464365
0.00363839
0.0049786
0.00375822
0.00535194
0.00387525
0.00578028
0.00398288
0.00620715
0.00406676
0.00650078
0.00410951
0.0064944
0.00409628
0.00604767
0.00401896
0.00509206
0.00388056
0.00363885
0.00369805
0.00177615
0.00350119
-0.000310181
0.00331546
-0.00231954
0.00315821
-0.0039711
0.00303393
-0.00509957
0.00293843
-0.00571249
0.00286307
-0.00593101
0.00279902
-0.00590625
0.0027404
-0.00575798
-0.00555532
0.00385492
-0.000145759
0.00388555
-0.000482397
0.00389139
-0.000865744
0.00386819
-0.00128869
0.00381296
-0.00173291
0.00372553
-0.00217433
0.00360948
-0.00258667
0.00347202
-0.00294737
0.00332259
-0.00324272
0.00317074
-0.00346956
0.00302421
-0.00363285
0.00288802
-0.00374157
0.00276449
-0.00380514
0.00265391
-0.00383174
0.00255534
-0.00382795
0.00246721
-0.00379894
0.00238776
-0.00374875
0.00231524
-0.00368044
0.00224803
-0.00359607
0.00218475
-0.00349662
0.00212423
-0.00338185
0.00206512
-0.00325077
0.00200489
-0.00310338
0.00193984
-0.0029426
0.00186837
-0.00277182
0.00179725
-0.0025837
0.00174517
-0.00234711
0.00173782
-0.00200844
0.00179559