/*--------------------------------*- C++ -*----------------------------------*\
  =========                 |
  \\      /  F ield         | OpenFOAM: The Open Source CFD Toolbox
   \\    /   O peration     | Website:  https://openfoam.org
    \\  /    A nd           | Version:  7
     \\/     M anipulation  |
\*---------------------------------------------------------------------------*/
FoamFile
{
    version     2.0;
    format      ascii;
    class       volScalarField;
    location    "65";
    object      p;
}
// * * * * * * * * * * * * * * * * * * * * * * * * * * * * * * * * * * * * * //

dimensions      [0 2 -2 0 0 0 0];

internalField   nonuniform List<scalar> 
1989
(
-0.162495
-0.159004
-0.155547
-0.152134
-0.148773
-0.145465
-0.14221
-0.139002
-0.135829
-0.132679
-0.129532
-0.126368
-0.123164
-0.119895
-0.116539
-0.113075
-0.109484
-0.105753
-0.101875
-0.0978499
-0.0936835
-0.0893901
-0.0849907
-0.0805125
-0.0759885
-0.0714554
-0.0669531
-0.0625226
-0.0582052
-0.215511
-0.215527
-0.215393
-0.215105
-0.214658
-0.214047
-0.213268
-0.212318
-0.211194
-0.209897
-0.20843
-0.206797
-0.204997
-0.20302
-0.200869
-0.19855
-0.196069
-0.193432
-0.190651
-0.187736
-0.184701
-0.181561
-0.178333
-0.175033
-0.17168
-0.16829
-0.164883
-0.161473
-0.158075
-0.154702
-0.151363
-0.148065
-0.144811
-0.141599
-0.138424
-0.135277
-0.132144
-0.12901
-0.125856
-0.122659
-0.1194
-0.116056
-0.11261
-0.109043
-0.105346
-0.101512
-0.0975394
-0.0934363
-0.0892154
-0.0848967
-0.0805059
-0.0760737
-0.071635
-0.0672272
-0.0628891
-0.0586597
-0.211395
-0.211508
-0.211469
-0.211275
-0.210922
-0.210406
-0.209724
-0.208873
-0.207852
-0.206659
-0.205298
-0.203771
-0.202077
-0.200214
-0.19818
-0.19598
-0.193621
-0.191111
-0.188458
-0.185673
-0.182769
-0.17976
-0.176661
-0.173488
-0.170257
-0.166985
-0.163689
-0.160383
-0.15708
-0.153793
-0.15053
-0.147298
-0.144099
-0.140933
-0.137794
-0.134675
-0.131565
-0.128447
-0.125306
-0.122122
-0.118876
-0.115549
-0.112124
-0.108587
-0.104927
-0.101139
-0.0972236
-0.0931867
-0.0890412
-0.0848057
-0.0805044
-0.0761662
-0.0718235
-0.0675117
-0.0632673
-0.0591272
-0.207204
-0.207412
-0.207468
-0.207367
-0.207108
-0.206687
-0.206102
-0.20535
-0.204431
-0.203343
-0.202089
-0.200669
-0.199084
-0.197333
-0.195416
-0.193337
-0.191102
-0.188719
-0.186195
-0.183541
-0.180769
-0.177891
-0.174922
-0.171876
-0.168769
-0.165616
-0.162431
-0.15923
-0.156024
-0.152824
-0.149639
-0.146475
-0.143334
-0.140216
-0.137117
-0.13403
-0.130945
-0.127848
-0.124724
-0.121556
-0.118328
-0.115022
-0.111623
-0.108118
-0.1045
-0.100762
-0.0969059
-0.0929379
-0.0888698
-0.0847193
-0.0805089
-0.0762657
-0.0720201
-0.0678051
-0.063655
-0.0596046
-0.202953
-0.203256
-0.203405
-0.203399
-0.203233
-0.202908
-0.202419
-0.201767
-0.200949
-0.199965
-0.198817
-0.197505
-0.19603
-0.194392
-0.192593
-0.190635
-0.188524
-0.186268
-0.183873
-0.18135
-0.178709
-0.175963
-0.173123
-0.170205
-0.167221
-0.164186
-0.161115
-0.158019
-0.15491
-0.151799
-0.148694
-0.145599
-0.142519
-0.139452
-0.136396
-0.133345
-0.130288
-0.127216
-0.124113
-0.120966
-0.11776
-0.114479
-0.11111
-0.107642
-0.104068
-0.100383
-0.0965889
-0.0926917
-0.0887026
-0.0846382
-0.0805195
-0.0763717
-0.0722234
-0.0681053
-0.0640496
-0.060089
-0.198655
-0.199053
-0.199296
-0.199382
-0.199311
-0.19908
-0.198689
-0.198135
-0.197418
-0.196539
-0.195496
-0.194292
-0.192928
-0.191404
-0.189721
-0.187884
-0.185898
-0.183768
-0.181502
-0.179109
-0.176598
-0.173982
-0.171271
-0.168479
-0.165619
-0.162703
-0.159743
-0.156753
-0.153743
-0.150722
-0.147697
-0.144675
-0.141657
-0.138645
-0.135635
-0.132622
-0.129599
-0.126555
-0.123478
-0.120356
-0.117176
-0.113924
-0.110589
-0.107161
-0.103634
-0.100005
-0.0962746
-0.0924496
-0.0885405
-0.0845626
-0.0805358
-0.0764834
-0.0724321
-0.0684105
-0.0644487
-0.0605774
-0.194322
-0.194813
-0.195148
-0.195328
-0.19535
-0.195215
-0.19492
-0.194465
-0.193849
-0.193073
-0.192137
-0.191041
-0.189787
-0.188376
-0.186811
-0.185094
-0.18323
-0.181226
-0.179087
-0.176823
-0.174442
-0.171955
-0.169372
-0.166706
-0.163967
-0.161168
-0.158321
-0.155437
-0.152525
-0.149595
-0.146653
-0.143704
-0.140752
-0.137796
-0.134836
-0.131865
-0.128879
-0.125868
-0.122822
-0.119729
-0.116579
-0.11336
-0.110063
-0.106678
-0.103201
-0.0996291
-0.0959643
-0.0922125
-0.0883839
-0.0844927
-0.0805574
-0.0765999
-0.0726447
-0.0687187
-0.06485
-0.0610671
-0.189963
-0.190546
-0.190973
-0.191245
-0.191361
-0.19132
-0.191122
-0.190765
-0.19025
-0.189577
-0.188745
-0.187757
-0.186614
-0.185316
-0.183867
-0.18227
-0.180528
-0.178648
-0.176636
-0.174499
-0.172246
-0.169886
-0.16743
-0.164887
-0.16227
-0.159588
-0.156853
-0.154074
-0.151261
-0.148422
-0.145564
-0.14269
-0.139805
-0.13691
-0.134001
-0.131077
-0.128132
-0.125157
-0.122146
-0.119087
-0.115971
-0.112789
-0.109533
-0.106194
-0.102769
-0.0992568
-0.0956588
-0.091981
-0.0882329
-0.0844282
-0.0805838
-0.07672
-0.0728599
-0.0690283
-0.0652514
-0.0615558
-0.185588
-0.186261
-0.186779
-0.187142
-0.18735
-0.187403
-0.187301
-0.187042
-0.186627
-0.186056
-0.185329
-0.184449
-0.183415
-0.18223
-0.180897
-0.179417
-0.177796
-0.176039
-0.174151
-0.17214
-0.170014
-0.16778
-0.165448
-0.163029
-0.160531
-0.157965
-0.15534
-0.152667
-0.149953
-0.147206
-0.144432
-0.141636
-0.138821
-0.135987
-0.133134
-0.13026
-0.127359
-0.124425
-0.121452
-0.118431
-0.115354
-0.112213
-0.109
-0.10571
-0.10234
-0.0988887
-0.0953585
-0.0917551
-0.0880876
-0.0843686
-0.0806142
-0.076843
-0.0730765
-0.0693378
-0.0656511
-0.0620413
-0.181207
-0.181967
-0.182574
-0.183027
-0.183327
-0.183472
-0.183464
-0.183302
-0.182987
-0.182517
-0.181895
-0.181121
-0.180196
-0.179123
-0.177904
-0.176541
-0.17504
-0.173404
-0.171639
-0.169752
-0.16775
-0.16564
-0.163431
-0.161133
-0.158753
-0.156302
-0.153787
-0.151219
-0.148604
-0.145949
-0.143261
-0.140543
-0.1378
-0.135031
-0.132237
-0.129415
-0.126562
-0.123673
-0.120743
-0.117763
-0.114728
-0.111631
-0.108465
-0.105227
-0.101914
-0.0985249
-0.0950634
-0.0915346
-0.0879474
-0.0843135
-0.0806478
-0.0769678
-0.0732933
-0.0696457
-0.0660475
-0.062522
-0.17683
-0.177675
-0.178368
-0.178909
-0.179298
-0.179535
-0.17962
-0.179554
-0.179336
-0.178967
-0.178447
-0.177778
-0.176962
-0.175999
-0.174893
-0.173646
-0.172262
-0.170746
-0.169102
-0.167337
-0.165457
-0.16347
-0.161382
-0.159203
-0.15694
-0.154602
-0.152197
-0.149732
-0.147216
-0.144654
-0.142052
-0.139415
-0.136745
-0.134043
-0.13131
-0.128544
-0.125743
-0.122903
-0.120019
-0.117084
-0.114095
-0.111045
-0.107929
-0.104745
-0.10149
-0.0981654
-0.0947732
-0.0913193
-0.0878119
-0.0842622
-0.080684
-0.0770935
-0.0735092
-0.0699508
-0.0664393
-0.0629961
-0.172467
-0.173394
-0.17417
-0.174796
-0.175272
-0.175598
-0.175775
-0.175803
-0.175681
-0.175411
-0.174993
-0.174428
-0.173717
-0.172864
-0.171869
-0.170736
-0.169468
-0.168069
-0.166545
-0.1649
-0.16314
-0.161273
-0.159305
-0.157243
-0.155095
-0.152869
-0.150572
-0.148211
-0.145793
-0.143324
-0.14081
-0.138253
-0.135658
-0.133026
-0.130357
-0.12765
-0.124904
-0.122115
-0.119281
-0.116395
-0.113455
-0.110455
-0.107392
-0.104264
-0.10107
-0.0978099
-0.0944877
-0.0911085
-0.0876805
-0.0842139
-0.0807218
-0.0772192
-0.0737231
-0.0702519
-0.0668251
-0.0634624
-0.168129
-0.169133
-0.169989
-0.170697
-0.171258
-0.171671
-0.171937
-0.172057
-0.172029
-0.171856
-0.171537
-0.171075
-0.170469
-0.169723
-0.168837
-0.167816
-0.166662
-0.165379
-0.163972
-0.162444
-0.160803
-0.159053
-0.157202
-0.155256
-0.153221
-0.151106
-0.148915
-0.146657
-0.144338
-0.141962
-0.139535
-0.137061
-0.134542
-0.131981
-0.129378
-0.126734
-0.124045
-0.121312
-0.11853
-0.115697
-0.112808
-0.109861
-0.106854
-0.103784
-0.100652
-0.0974581
-0.0942063
-0.0909019
-0.0875524
-0.084168
-0.0807604
-0.0773439
-0.0739341
-0.0705481
-0.0672038
-0.0639197
-0.163824
-0.164902
-0.165834
-0.166621
-0.167263
-0.167761
-0.168114
-0.168323
-0.168387
-0.168309
-0.168088
-0.167725
-0.167222
-0.166581
-0.165803
-0.164892
-0.163849
-0.16268
-0.161387
-0.159975
-0.158449
-0.156815
-0.155079
-0.153246
-0.151323
-0.149316
-0.147232
-0.145075
-0.142854
-0.140571
-0.138232
-0.135841
-0.1334
-0.130912
-0.128377
-0.125797
-0.123169
-0.120494
-0.117768
-0.114989
-0.112156
-0.109265
-0.106315
-0.103306
-0.100236
-0.0971096
-0.0939285
-0.0906986
-0.0874272
-0.0841236
-0.0807992
-0.0774669
-0.0741414
-0.0708384
-0.0675745
-0.0643669
-0.159565
-0.160712
-0.161716
-0.162578
-0.163298
-0.163877
-0.164314
-0.164609
-0.164763
-0.164777
-0.164651
-0.164386
-0.163983
-0.163445
-0.162772
-0.161968
-0.161035
-0.159976
-0.158795
-0.157496
-0.156084
-0.154563
-0.152939
-0.151217
-0.149404
-0.147504
-0.145524
-0.143469
-0.141344
-0.139154
-0.136903
-0.134595
-0.132234
-0.12982
-0.127356
-0.124842
-0.122278
-0.119662
-0.116995
-0.114274
-0.111498
-0.108666
-0.105776
-0.102828
-0.0998231
-0.096764
-0.0936539
-0.0904982
-0.0873039
-0.0840801
-0.0808371
-0.0775872
-0.0743439
-0.0711217
-0.0679361
-0.0648029
-0.155362
-0.156573
-0.157645
-0.158578
-0.159372
-0.160028
-0.160546
-0.160924
-0.161165
-0.161268
-0.161235
-0.161065
-0.16076
-0.160321
-0.159751
-0.159051
-0.158224
-0.157273
-0.156202
-0.155013
-0.153711
-0.152301
-0.150788
-0.149175
-0.147469
-0.145675
-0.143797
-0.141841
-0.139812
-0.137715
-0.135552
-0.133329
-0.131047
-0.128709
-0.126317
-0.123871
-0.121372
-0.11882
-0.116214
-0.113553
-0.110837
-0.108064
-0.105236
-0.102351
-0.0994119
-0.096421
-0.0933819
-0.0903
-0.0871821
-0.0840366
-0.0808735
-0.077704
-0.0745408
-0.0713972
-0.0682877
-0.0652267
-0.151227
-0.152497
-0.153632
-0.154631
-0.155496
-0.156225
-0.156819
-0.157278
-0.157602
-0.157791
-0.157847
-0.157769
-0.157558
-0.157217
-0.156746
-0.156148
-0.155425
-0.154579
-0.153614
-0.152532
-0.151338
-0.150036
-0.14863
-0.147124
-0.145523
-0.143832
-0.142055
-0.140198
-0.138264
-0.136258
-0.134184
-0.132045
-0.129843
-0.127582
-0.125263
-0.122887
-0.120455
-0.117968
-0.115425
-0.112826
-0.110172
-0.107461
-0.104696
-0.101875
-0.0990028
-0.0960804
-0.0931122
-0.0901036
-0.0870611
-0.0839926
-0.0809076
-0.0778166
-0.0747313
-0.0716641
-0.0686283
-0.0656374
-0.147171
-0.148494
-0.149687
-0.150748
-0.151678
-0.152477
-0.153144
-0.153679
-0.154083
-0.154355
-0.154496
-0.154507
-0.154388
-0.15414
-0.153766
-0.153266
-0.152643
-0.151899
-0.151037
-0.15006
-0.148971
-0.147774
-0.146472
-0.14507
-0.143572
-0.141982
-0.140305
-0.138544
-0.136704
-0.134789
-0.132802
-0.130747
-0.128626
-0.126442
-0.124197
-0.121893
-0.119529
-0.117108
-0.11463
-0.112096
-0.109504
-0.106858
-0.104156
-0.101401
-0.0985957
-0.0957421
-0.0928446
-0.0899085
-0.0869403
-0.0839474
-0.0809388
-0.0779242
-0.0749146
-0.0719215
-0.0689572
-0.0660341
-0.143206
-0.144578
-0.145823
-0.146941
-0.147932
-0.148796
-0.149531
-0.150139
-0.150618
-0.150969
-0.151192
-0.151288
-0.151257
-0.1511
-0.150818
-0.150413
-0.149887
-0.149242
-0.14848
-0.147604
-0.146616
-0.145521
-0.144321
-0.14302
-0.141622
-0.140131
-0.138551
-0.136885
-0.135137
-0.133312
-0.131412
-0.12944
-0.1274
-0.125294
-0.123124
-0.120891
-0.118598
-0.116245
-0.113833
-0.111363
-0.108837
-0.106255
-0.103618
-0.10093
-0.098191
-0.0954061
-0.0925788
-0.0897145
-0.0868193
-0.0839004
-0.0809663
-0.078026
-0.0750899
-0.0721686
-0.0692734
-0.0664159
-0.139344
-0.140758
-0.142051
-0.143221
-0.144268
-0.145192
-0.145992
-0.146667
-0.147218
-0.147644
-0.147945
-0.148122
-0.148175
-0.148104
-0.147912
-0.147598
-0.147166
-0.146615
-0.14595
-0.145171
-0.144282
-0.143285
-0.142183
-0.140981
-0.13968
-0.138285
-0.136799
-0.135227
-0.13357
-0.131833
-0.130019
-0.12813
-0.12617
-0.124142
-0.122046
-0.119886
-0.117663
-0.115379
-0.113034
-0.110631
-0.10817
-0.105653
-0.103083
-0.10046
-0.0977891
-0.0950726
-0.0923149
-0.0895212
-0.0866977
-0.0838512
-0.0809896
-0.0781215
-0.0752565
-0.0724046
-0.0695761
-0.066782
-0.135597
-0.137048
-0.138383
-0.1396
-0.140699
-0.141678
-0.142537
-0.143276
-0.143894
-0.14439
-0.144765
-0.145019
-0.145152
-0.145164
-0.145057
-0.144831
-0.144487
-0.144028
-0.143455
-0.14277
-0.141975
-0.141074
-0.140067
-0.13896
-0.137753
-0.136452
-0.135058
-0.133576
-0.132008
-0.130358
-0.128628
-0.126822
-0.124942
-0.12299
-0.12097
-0.118882
-0.11673
-0.114515
-0.112238
-0.109901
-0.107506
-0.105056
-0.102551
-0.0999949
-0.0973907
-0.0947419
-0.0920529
-0.0893288
-0.0865754
-0.0837994
-0.0810082
-0.0782101
-0.0754139
-0.0726288
-0.0698647
-0.0671315
-0.131975
-0.133459
-0.134831
-0.13609
-0.137235
-0.138265
-0.139179
-0.139977
-0.140657
-0.14122
-0.141664
-0.141991
-0.142199
-0.14229
-0.142263
-0.14212
-0.141862
-0.14149
-0.141006
-0.140411
-0.139707
-0.138896
-0.137982
-0.136965
-0.13585
-0.134639
-0.133335
-0.131941
-0.130459
-0.128894
-0.127247
-0.125521
-0.123719
-0.121844
-0.119898
-0.117884
-0.115802
-0.113656
-0.111447
-0.109177
-0.106848
-0.104463
-0.102024
-0.0995344
-0.0969965
-0.0944147
-0.0917932
-0.0891371
-0.0864522
-0.0837447
-0.0810219
-0.0782913
-0.0755613
-0.0728407
-0.0701384
-0.0674637
-0.128492
-0.130003
-0.131406
-0.132702
-0.133889
-0.134965
-0.13593
-0.136781
-0.13752
-0.138144
-0.138653
-0.139048
-0.139327
-0.139492
-0.139542
-0.139478
-0.139301
-0.139012
-0.138612
-0.138102
-0.137485
-0.136762
-0.135935
-0.135007
-0.133979
-0.132855
-0.131638
-0.130329
-0.128931
-0.127448
-0.125881
-0.124235
-0.12251
-0.120711
-0.118838
-0.116895
-0.114883
-0.112806
-0.110664
-0.108461
-0.106198
-0.103878
-0.101505
-0.0990801
-0.0966078
-0.0940918
-0.0915364
-0.0889467
-0.0863282
-0.0836872
-0.0810302
-0.0783647
-0.0756985
-0.0730396
-0.0703966
-0.0677779
-0.125159
-0.126692
-0.128123
-0.129451
-0.130674
-0.131791
-0.132801
-0.133702
-0.134494
-0.135175
-0.135745
-0.136203
-0.136549
-0.136783
-0.136905
-0.136916
-0.136815
-0.136604
-0.136284
-0.135856
-0.135321
-0.134681
-0.133938
-0.133094
-0.13215
-0.13111
-0.129975
-0.128748
-0.127431
-0.126028
-0.12454
-0.12297
-0.121321
-0.119595
-0.117794
-0.115921
-0.113979
-0.111969
-0.109894
-0.107756
-0.105559
-0.103304
-0.100995
-0.0986341
-0.0962259
-0.0937741
-0.0912832
-0.0887579
-0.0862038
-0.0836268
-0.0810333
-0.0784302
-0.0758249
-0.0732251
-0.0706386
-0.0680735
-0.121988
-0.123538
-0.124992
-0.126347
-0.127603
-0.128757
-0.129807
-0.130753
-0.131593
-0.132326
-0.132952
-0.133469
-0.133877
-0.134175
-0.134365
-0.134445
-0.134416
-0.134279
-0.134034
-0.133683
-0.133226
-0.132665
-0.132001
-0.131237
-0.130373
-0.129412
-0.128357
-0.127208
-0.12597
-0.124643
-0.12323
-0.121735
-0.120159
-0.118504
-0.116773
-0.114969
-0.113094
-0.111151
-0.109141
-0.107068
-0.104934
-0.102743
-0.100496
-0.0981982
-0.0958525
-0.0934632
-0.0910346
-0.0885715
-0.0860794
-0.0835638
-0.081031
-0.0784876
-0.0759405
-0.0733969
-0.0708642
-0.0683499
-0.11899
-0.120554
-0.122026
-0.123405
-0.124688
-0.125874
-0.126961
-0.127947
-0.128831
-0.129612
-0.130288
-0.130859
-0.131324
-0.131682
-0.131934
-0.132079
-0.132117
-0.132049
-0.131875
-0.131596
-0.131212
-0.130725
-0.130136
-0.129447
-0.128659
-0.127773
-0.126793
-0.125719
-0.124555
-0.123301
-0.121961
-0.120537
-0.119031
-0.117445
-0.115783
-0.114045
-0.112236
-0.110356
-0.10841
-0.1064
-0.104328
-0.102198
-0.100012
-0.097775
-0.0954898
-0.0931606
-0.090792
-0.0883886
-0.0859556
-0.0834987
-0.0810237
-0.0785369
-0.0760449
-0.0735545
-0.0710727
-0.0686066
-0.116179
-0.117752
-0.11924
-0.120638
-0.121945
-0.123158
-0.124277
-0.125298
-0.126222
-0.127045
-0.127767
-0.128387
-0.128905
-0.129318
-0.129627
-0.129832
-0.129932
-0.129928
-0.129819
-0.129607
-0.129291
-0.128874
-0.128355
-0.127736
-0.127019
-0.126204
-0.125295
-0.124292
-0.123198
-0.122014
-0.120742
-0.119386
-0.117947
-0.116427
-0.114829
-0.113156
-0.111409
-0.109592
-0.107707
-0.105757
-0.103744
-0.101673
-0.0995463
-0.0973673
-0.0951399
-0.0928683
-0.0905569
-0.0882103
-0.0858336
-0.0834322
-0.0810118
-0.0785785
-0.0761384
-0.073698
-0.071264
-0.068843
-0.113566
-0.115147
-0.116645
-0.118059
-0.119386
-0.120623
-0.121769
-0.122822
-0.12378
-0.124642
-0.125405
-0.12607
-0.126634
-0.127098
-0.127459
-0.127719
-0.127876
-0.12793
-0.127881
-0.127731
-0.127478
-0.127125
-0.126671
-0.126117
-0.125466
-0.124718
-0.123875
-0.122938
-0.121909
-0.12079
-0.119584
-0.118291
-0.116915
-0.115458
-0.113921
-0.112309
-0.110622
-0.108863
-0.107036
-0.105144
-0.103188
-0.101173
-0.099102
-0.0969783
-0.0948058
-0.0925887
-0.0903313
-0.0880382
-0.0857144
-0.0833651
-0.0809959
-0.0786125
-0.0762209
-0.0738272
-0.0714377
-0.0690587
-0.111166
-0.112751
-0.114258
-0.115684
-0.117027
-0.118284
-0.119454
-0.120534
-0.121523
-0.122418
-0.123218
-0.123922
-0.124529
-0.125037
-0.125446
-0.125755
-0.125963
-0.126071
-0.126077
-0.125983
-0.125788
-0.125493
-0.125098
-0.124605
-0.124014
-0.123327
-0.122545
-0.121669
-0.120701
-0.119643
-0.118496
-0.117264
-0.115946
-0.114547
-0.113068
-0.111512
-0.109881
-0.108178
-0.106406
-0.104567
-0.102665
-0.100703
-0.0986837
-0.0966118
-0.0944907
-0.0923244
-0.0901174
-0.0878741
-0.0855995
-0.0832986
-0.0809768
-0.0786396
-0.0762928
-0.0739421
-0.0715937
-0.0692535
-0.108993
-0.11058
-0.112093
-0.113528
-0.114884
-0.116158
-0.117348
-0.118451
-0.119466
-0.120391
-0.121223
-0.121962
-0.122606
-0.123154
-0.123605
-0.123958
-0.124212
-0.124367
-0.124423
-0.124379
-0.124236
-0.123993
-0.123653
-0.123214
-0.122678
-0.122046
-0.12132
-0.120499
-0.119587
-0.118584
-0.117492
-0.116314
-0.115051
-0.113705
-0.112279
-0.110775
-0.109196
-0.107544
-0.105822
-0.104033
-0.10218
-0.100266
-0.0982959
-0.0962717
-0.0941979
-0.0920785
-0.0899178
-0.0877203
-0.0854907
-0.083234
-0.0809555
-0.0786604
-0.0763543
-0.0740429
-0.0717317
-0.0694267
-0.107062
-0.10865
-0.110166
-0.111609
-0.112976
-0.114263
-0.11547
-0.116592
-0.117629
-0.118579
-0.119439
-0.120208
-0.120884
-0.121467
-0.121954
-0.122345
-0.12264
-0.122837
-0.122936
-0.122937
-0.122839
-0.122644
-0.122351
-0.12196
-0.121473
-0.120891
-0.120213
-0.119443
-0.11858
-0.117626
-0.116584
-0.115455
-0.11424
-0.112942
-0.111564
-0.110107
-0.108574
-0.106969
-0.105292
-0.103548
-0.10174
-0.0998707
-0.0979438
-0.0959628
-0.0939317
-0.0918545
-0.0897355
-0.087579
-0.0853899
-0.0831729
-0.0809331
-0.0786757
-0.076406
-0.0741295
-0.0718517
-0.0695781
-0.105392
-0.106979
-0.108498
-0.109946
-0.11132
-0.112618
-0.113838
-0.114977
-0.116032
-0.117003
-0.117886
-0.11868
-0.119384
-0.119996
-0.120514
-0.120938
-0.121267
-0.1215
-0.121636
-0.121675
-0.121618
-0.121462
-0.12121
-0.120862
-0.120417
-0.119877
-0.119243
-0.118515
-0.117695
-0.116785
-0.115785
-0.114699
-0.113527
-0.112271
-0.110935
-0.109519
-0.108027
-0.106462
-0.104826
-0.103121
-0.101352
-0.0995217
-0.0976331
-0.09569
-0.0936964
-0.0916562
-0.0895736
-0.0874531
-0.0852993
-0.0831169
-0.0809109
-0.0786863
-0.0764483
-0.0742022
-0.0719533
-0.069707
-0.104002
-0.105587
-0.107107
-0.108559
-0.109939
-0.111246
-0.112476
-0.113628
-0.114698
-0.115685
-0.116587
-0.117402
-0.118128
-0.118763
-0.119307
-0.119759
-0.120116
-0.120378
-0.120545
-0.120616
-0.120591
-0.120469
-0.120251
-0.119937
-0.119528
-0.119023
-0.118425
-0.117733
-0.116949
-0.116075
-0.115112
-0.114061
-0.112924
-0.111704
-0.110403
-0.109022
-0.107565
-0.106034
-0.104431
-0.10276
-0.101024
-0.0992263
-0.09737
-0.0954589
-0.0934968
-0.0914877
-0.0894359
-0.0873456
-0.0852214
-0.083068
-0.0808903
-0.0786931
-0.0764817
-0.074261
-0.0720363
-0.0698128
-0.102914
-0.104498
-0.106019
-0.107473
-0.108857
-0.11017
-0.111408
-0.112569
-0.11365
-0.11465
-0.115566
-0.116397
-0.11714
-0.117794
-0.118358
-0.11883
-0.119209
-0.119494
-0.119685
-0.119781
-0.119781
-0.119685
-0.119494
-0.119207
-0.118825
-0.118349
-0.117778
-0.117115
-0.11636
-0.115514
-0.114579
-0.113556
-0.112448
-0.111256
-0.109982
-0.108629
-0.107199
-0.105694
-0.104118
-0.102474
-0.100764
-0.0989921
-0.0971613
-0.0952754
-0.0933382
-0.0913537
-0.0893261
-0.0872596
-0.0851588
-0.0830283
-0.0808728
-0.0786972
-0.0765066
-0.0743059
-0.0721001
-0.0698945
-0.102157
-0.10374
-0.10526
-0.106715
-0.108103
-0.109419
-0.110662
-0.111829
-0.112918
-0.113927
-0.114853
-0.115694
-0.116449
-0.117116
-0.117693
-0.11818
-0.118574
-0.118875
-0.119083
-0.119196
-0.119213
-0.119136
-0.118963
-0.118695
-0.118332
-0.117875
-0.117324
-0.116681
-0.115945
-0.115119
-0.114204
-0.113201
-0.112112
-0.11094
-0.109686
-0.108352
-0.106941
-0.105455
-0.103898
-0.102272
-0.100581
-0.098827
-0.0970142
-0.095146
-0.0932263
-0.0912591
-0.0892485
-0.0871987
-0.0851143
-0.0829997
-0.0808598
-0.0786994
-0.0765233
-0.0743365
-0.0721441
-0.069951
-0.101758
-0.10334
-0.104861
-0.106317
-0.107705
-0.109024
-0.11027
-0.11144
-0.112533
-0.113546
-0.114477
-0.115324
-0.116086
-0.116759
-0.117344
-0.117838
-0.11824
-0.118549
-0.118765
-0.118887
-0.118914
-0.118846
-0.118683
-0.118425
-0.118073
-0.117626
-0.117085
-0.116452
-0.115727
-0.114911
-0.114006
-0.113014
-0.111935
-0.110773
-0.109529
-0.108206
-0.106805
-0.105329
-0.103782
-0.102166
-0.100484
-0.0987399
-0.0969365
-0.0950777
-0.0931672
-0.0912091
-0.0892074
-0.0871664
-0.0850906
-0.0829845
-0.0808528
-0.0787003
-0.0765319
-0.0743524
-0.072167
-0.0699804
)
;

boundaryField
{
    inlet
    {
        type            zeroGradient;
    }
    outlet
    {
        type            fixedValue;
        value           nonuniform 0();
    }
    cylinder
    {
        type            zeroGradient;
    }
    top
    {
        type            symmetryPlane;
    }
    bottom
    {
        type            symmetryPlane;
    }
    defaultFaces
    {
        type            empty;
    }
    procBoundary14to10
    {
        type            processor;
        value           nonuniform List<scalar> 
57
(
-0.163447
-0.159865
-0.156327
-0.152842
-0.14942
-0.146061
-0.142766
-0.139527
-0.136332
-0.133167
-0.13001
-0.12684
-0.123632
-0.120358
-0.116994
-0.113515
-0.109904
-0.106144
-0.102227
-0.0981524
-0.0939265
-0.0895641
-0.0850872
-0.0805248
-0.0759116
-0.0712867
-0.0666921
-0.0621713
-0.0577676
-0.219525
-0.219444
-0.219214
-0.218831
-0.21829
-0.217584
-0.216709
-0.215659
-0.214433
-0.213033
-0.211463
-0.209726
-0.207819
-0.205731
-0.203467
-0.201031
-0.198428
-0.195668
-0.19276
-0.189716
-0.186552
-0.183284
-0.179928
-0.176504
-0.173029
-0.169524
-0.166007
-0.166007
)
;
    }
    procBoundary14to11
    {
        type            processor;
        value           uniform -0.0540408;
    }
    procBoundary14to13
    {
        type            processor;
        value           nonuniform List<scalar> 
35
(
-0.215346
-0.211131
-0.206842
-0.202495
-0.198102
-0.193674
-0.189223
-0.184759
-0.180291
-0.175831
-0.171389
-0.166975
-0.1626
-0.158276
-0.154013
-0.149823
-0.145718
-0.14171
-0.13781
-0.134031
-0.130383
-0.126878
-0.123528
-0.120344
-0.117338
-0.114521
-0.111906
-0.109505
-0.107334
-0.105406
-0.103739
-0.102353
-0.101268
-0.100514
-0.100116
)
;
    }
    procBoundary14to15
    {
        type            processor;
        value           nonuniform List<scalar> 
35
(
-0.054577
-0.055127
-0.0556876
-0.0562551
-0.0568263
-0.0573981
-0.0579677
-0.058533
-0.0590918
-0.0596426
-0.0601838
-0.0607142
-0.0612325
-0.0617377
-0.0622289
-0.0627048
-0.0631648
-0.0636077
-0.0640327
-0.0644391
-0.0648259
-0.0651924
-0.0655378
-0.0658616
-0.0661631
-0.0664416
-0.0666965
-0.0669274
-0.0671335
-0.0673141
-0.0674685
-0.0675955
-0.067694
-0.0677621
-0.0677977
)
;
    }
}


// ************************************************************************* //
