/*--------------------------------*- C++ -*----------------------------------*\
  =========                 |
  \\      /  F ield         | OpenFOAM: The Open Source CFD Toolbox
   \\    /   O peration     | Website:  https://openfoam.org
    \\  /    A nd           | Version:  7
     \\/     M anipulation  |
\*---------------------------------------------------------------------------*/
FoamFile
{
    version     2.0;
    format      ascii;
    class       volVectorField;
    location    "40";
    object      U;
}
// * * * * * * * * * * * * * * * * * * * * * * * * * * * * * * * * * * * * * //

dimensions      [0 1 -1 0 0 0 0];

internalField   nonuniform List<vector> 
1987
(
(0.150384 -0.00174821 -6.88834e-23)
(0.165239 -0.00166618 2.19064e-22)
(0.18009 -0.00159021 -2.37579e-23)
(0.194916 -0.00152236 -2.57775e-22)
(0.209697 -0.00146437 1.00517e-22)
(0.224417 -0.00141752 3.52258e-23)
(0.23906 -0.00138259 -2.13103e-23)
(0.253614 -0.00135988 2.17006e-23)
(0.268069 -0.00134917 1.32879e-22)
(0.282416 -0.00134971 -1.46687e-23)
(0.29665 -0.00136033 -1.28269e-22)
(0.310766 -0.00137939 2.46688e-23)
(0.324761 -0.00140496 2.43874e-23)
(0.338634 -0.00143484 5.00044e-23)
(0.352384 -0.00146668 -2.06109e-24)
(0.366012 -0.00149809 -1.0467e-23)
(0.379519 -0.00152675 -7.25177e-23)
(0.392905 -0.00155046 1.30819e-23)
(0.406173 -0.0015674 6.72403e-23)
(0.419323 -0.00157594 -6.69573e-23)
(0.432357 -0.00157504 4.07255e-23)
(0.445274 -0.00156392 1.1066e-23)
(0.458074 -0.00154253 -2.42491e-23)
(0.470755 -0.00151094 1.55588e-23)
(0.483314 -0.0014701 1.05908e-23)
(0.495751 -0.00142082 -3.27122e-23)
(0.508055 -0.00136488 3.40746e-23)
(0.520231 -0.00130345 -3.83012e-24)
(0.532257 -0.0012389 4.86877e-24)
(0.544148 -0.0011723 5.30813e-24)
(0.555868 -0.00110636 -9.66141e-24)
(0.567448 -0.00104153 -8.49709e-24)
(0.578826 -0.0009807 6.05535e-24)
(0.590069 -0.000923204 1.0764e-23)
(0.601067 -0.000872155 2.45126e-24)
(0.611948 -0.000825334 -5.82161e-24)
(0.622528 -0.000786375 -4.22638e-24)
(0.63303 -0.000751065 2.40179e-24)
(0.643152 -0.000724153 2.29343e-24)
(0.653272 -0.000698949 -1.5994e-24)
(0.662893 -0.000682204 4.56767e-24)
(0.672644 -0.000664114 -1.91808e-25)
(0.681719 -0.000654628 2.4089e-24)
(0.691135 -0.000639887 -2.08529e-24)
(0.699609 -0.000634603 -2.07245e-24)
(0.708755 -0.00061945 -2.0986e-24)
(0.716557 -0.00061593 -3.19234e-25)
(0.725532 -0.00059718 4.13254e-25)
(0.732564 -0.000594145 1.10354e-24)
(0.741517 -0.000569484 6.84406e-25)
(0.747639 -0.000567041 -1.64809e-25)
(0.756781 -0.000535082 -3.60395e-26)
(0.761794 -0.000534614 1.74572e-26)
(0.771417 -0.000494939 -2.07361e-25)
(0.775043 -0.000498234 -2.39243e-26)
(0.785538 -0.000452016 1.20807e-25)
(0.787411 -0.000459007 1.84418e-26)
(0.799272 -0.000412052 1.02344e-24)
(0.155759 -0.00565696 6.29708e-23)
(0.170555 -0.00552879 -4.49268e-22)
(0.185346 -0.00540149 2.57003e-22)
(0.200109 -0.00527787 8.06775e-22)
(0.214827 -0.00516037 -9.60341e-22)
(0.229482 -0.00505099 2.21491e-22)
(0.244059 -0.0049512 -7.33255e-24)
(0.258546 -0.00486194 2.0954e-22)
(0.272932 -0.00478357 -3.53251e-22)
(0.28721 -0.0047159 1.14031e-22)
(0.301372 -0.00465821 3.11937e-22)
(0.315415 -0.00460929 -2.14522e-22)
(0.329335 -0.00456756 2.44353e-22)
(0.34313 -0.00453106 -7.99068e-23)
(0.3568 -0.00449769 -1.00391e-23)
(0.370345 -0.00446514 2.24811e-23)
(0.383766 -0.00443123 2.10954e-23)
(0.397065 -0.0043937 9.85076e-23)
(0.410242 -0.00435077 -7.15303e-23)
(0.4233 -0.00430062 -1.30837e-23)
(0.436238 -0.00424224 7.22749e-23)
(0.449057 -0.00417448 -1.2549e-22)
(0.461758 -0.00409739 5.76628e-23)
(0.474339 -0.0040105 -5.3949e-23)
(0.486796 -0.00391503 5.22816e-23)
(0.499132 -0.00381101 4.18198e-23)
(0.511334 -0.00370079 -5.922e-23)
(0.523408 -0.00358447 6.84758e-23)
(0.535334 -0.00346546 -5.54759e-24)
(0.547126 -0.00334327 -4.72671e-23)
(0.558749 -0.00322239 6.99386e-23)
(0.570233 -0.00310094 -1.32837e-23)
(0.581518 -0.00298472 2.03081e-23)
(0.592669 -0.00286949 1.56735e-23)
(0.60358 -0.00276293 -2.25503e-23)
(0.614373 -0.00265737 5.54059e-23)
(0.62487 -0.0025634 -1.96461e-23)
(0.63529 -0.00246857 -4.7933e-24)
(0.645333 -0.00238802 7.57955e-24)
(0.655374 -0.00230275 7.4811e-24)
(0.664921 -0.00223482 -6.88298e-24)
(0.674598 -0.00215624 -1.1601e-23)
(0.683603 -0.00209928 -7.27816e-24)
(0.692948 -0.00202353 6.52616e-24)
(0.701357 -0.00197591 2.84733e-24)
(0.710432 -0.00189883 -9.48826e-26)
(0.718174 -0.00185968 4.28502e-24)
(0.727081 -0.00177734 -2.21366e-24)
(0.734058 -0.00174714 -2.55165e-24)
(0.742943 -0.00165609 -1.16514e-24)
(0.749016 -0.00163682 -9.21266e-26)
(0.758091 -0.00153436 9.39556e-26)
(0.763063 -0.00152912 1.02728e-25)
(0.772616 -0.00141394 3.62197e-25)
(0.776212 -0.00142503 -2.64304e-27)
(0.786632 -0.00129976 1.35389e-24)
(0.788489 -0.00132272 -4.61433e-26)
(0.800267 -0.00120341 -5.24128e-25)
(0.166466 -0.00954441 -1.17222e-21)
(0.181145 -0.00936945 -1.15417e-21)
(0.195813 -0.00919028 2.27078e-22)
(0.210449 -0.00901041 6.20091e-22)
(0.225035 -0.00883301 -1.4613e-22)
(0.239555 -0.00866076 1.09507e-22)
(0.253992 -0.0084958 -1.05103e-22)
(0.268337 -0.00833969 -4.3108e-22)
(0.282577 -0.00819339 4.9605e-22)
(0.296705 -0.0080572 -2.72491e-22)
(0.310715 -0.00793092 -3.2452e-22)
(0.324601 -0.0078137 3.82288e-22)
(0.338362 -0.00770434 -2.02937e-22)
(0.351994 -0.00760112 -2.56805e-22)
(0.365498 -0.00750219 -1.37666e-23)
(0.378873 -0.00740534 -1.1422e-22)
(0.392121 -0.00730853 1.21893e-22)
(0.405243 -0.00720947 -3.70622e-23)
(0.41824 -0.00710642 3.87562e-23)
(0.431114 -0.00699739 -1.21019e-22)
(0.443866 -0.0068814 1.40717e-22)
(0.456498 -0.00675695 -4.73283e-23)
(0.469008 -0.00662419 -1.54203e-22)
(0.481398 -0.00648213 1.87085e-22)
(0.493663 -0.00633224 -1.16672e-22)
(0.505805 -0.0061738 -5.20778e-23)
(0.517814 -0.00600971 5.50763e-23)
(0.529696 -0.00583899 5.81429e-24)
(0.541431 -0.00566608 -1.47052e-22)
(0.553034 -0.00548893 1.33896e-22)
(0.56447 -0.0053138 -8.02391e-23)
(0.57577 -0.00513646 4.12033e-23)
(0.586873 -0.00496559 3.16946e-23)
(0.597846 -0.00479341 -4.089e-23)
(0.608582 -0.00463209 1.65645e-23)
(0.619204 -0.00446859 -2.95486e-23)
(0.629534 -0.00432034 -4.87386e-24)
(0.639789 -0.00416677 -6.90003e-24)
(0.649674 -0.00403328 1.50826e-23)
(0.659558 -0.00388868 1.27285e-23)
(0.668955 -0.00377021 -1.94232e-27)
(0.67848 -0.00363184 8.41376e-24)
(0.687345 -0.00352798 -5.75888e-24)
(0.696544 -0.00339191 1.38244e-23)
(0.704822 -0.00330245 -1.1684e-23)
(0.713758 -0.00316415 1.38468e-23)
(0.721378 -0.00308978 1.65407e-24)
(0.730149 -0.00294458 -4.25745e-24)
(0.737016 -0.00288753 7.18113e-25)
(0.745768 -0.00273089 -9.65042e-25)
(0.751744 -0.00269499 6.00364e-25)
(0.760685 -0.00252295 -3.3624e-25)
(0.765577 -0.00251295 -3.64413e-25)
(0.774993 -0.00232334 7.9561e-26)
(0.77853 -0.00234206 2.10251e-25)
(0.788803 -0.00213896 -3.3039e-24)
(0.790628 -0.00217753 -9.12683e-26)
(0.802243 -0.00198717 -6.53609e-25)
(0.182286 -0.0133965 -3.51242e-22)
(0.196791 -0.0131734 -5.10535e-22)
(0.211277 -0.0129412 5.27142e-24)
(0.225723 -0.012704 -1.13597e-21)
(0.240112 -0.0124659 5.97744e-22)
(0.254427 -0.01223 3.44202e-22)
(0.268654 -0.0119992 1.08142e-22)
(0.282783 -0.0117757 2.95172e-22)
(0.296802 -0.011561 -7.95231e-22)
(0.310704 -0.0113558 -2.6754e-22)
(0.324482 -0.0111605 4.06514e-23)
(0.338133 -0.0109746 9.14908e-22)
(0.351653 -0.0107972 -2.16418e-22)
(0.365041 -0.010627 2.64363e-22)
(0.378296 -0.0104621 2.52878e-22)
(0.391417 -0.0103007 -3.9035e-22)
(0.404408 -0.0101407 1.91032e-22)
(0.417268 -0.00997994 -2.02779e-22)
(0.43 -0.00981664 3.08548e-22)
(0.442606 -0.00964864 2.86399e-22)
(0.455086 -0.00947505 -1.72133e-22)
(0.467444 -0.00929402 -4.65841e-23)
(0.479677 -0.0091058 -2.79144e-23)
(0.491788 -0.00890888 -1.35117e-22)
(0.503774 -0.00870499 1.46798e-22)
(0.515637 -0.00849266 3.4209e-23)
(0.527367 -0.00827533 8.09156e-23)
(0.53897 -0.00805095 -2.00497e-22)
(0.550429 -0.00782497 1.44359e-22)
(0.561756 -0.00759377 -9.17965e-23)
(0.57292 -0.00736536 -4.35842e-23)
(0.583951 -0.00713319 -5.05229e-23)
(0.59479 -0.00690874 3.15131e-23)
(0.605501 -0.00668076 4.05395e-23)
(0.615982 -0.0064658 4.79351e-24)
(0.62635 -0.00624555 9.5686e-24)
(0.636436 -0.00604415 1.68005e-23)
(0.646447 -0.00583303 -2.29395e-23)
(0.656098 -0.00564768 2.61125e-23)
(0.665749 -0.00544494 -1.88488e-23)
(0.674925 -0.00527695 -1.7883e-23)
(0.684226 -0.00507998 1.59624e-23)
(0.692882 -0.00493017 1.8164e-25)
(0.701866 -0.00473496 3.209e-24)
(0.709949 -0.00460448 -1.0209e-23)
(0.718678 -0.00440617 -1.77169e-24)
(0.726119 -0.0042973 -1.22695e-23)
(0.734689 -0.00409049 7.65992e-24)
(0.741393 -0.00400715 3.40945e-24)
(0.749948 -0.00378629 -2.18666e-25)
(0.755783 -0.00373411 5.25782e-25)
(0.764526 -0.00349399 5.80232e-26)
(0.7693 -0.00347932 -1.49169e-26)
(0.778514 -0.00321702 -1.35484e-24)
(0.781964 -0.00324308 -1.61123e-25)
(0.792022 -0.00296418 1.73233e-24)
(0.793801 -0.00301778 9.62598e-27)
(0.805176 -0.00275845 -4.35017e-24)
(0.202907 -0.0171993 -1.38582e-21)
(0.217183 -0.0169261 1.74917e-21)
(0.231428 -0.0166391 -1.23524e-21)
(0.245623 -0.0163433 8.70155e-23)
(0.259751 -0.0160431 1.61062e-21)
(0.273796 -0.0157425 -7.53455e-22)
(0.287746 -0.015445 -6.34667e-22)
(0.301589 -0.0151533 4.29924e-22)
(0.315316 -0.0148694 1.16885e-22)
(0.328919 -0.0145947 1.76256e-22)
(0.342393 -0.0143299 4.14659e-22)
(0.355733 -0.0140748 -2.71981e-22)
(0.368937 -0.0138291 -3.7838e-22)
(0.382003 -0.0135914 -1.52436e-22)
(0.394932 -0.0133604 -3.69656e-22)
(0.407722 -0.0131342 5.51701e-22)
(0.420377 -0.0129109 -6.31012e-22)
(0.432897 -0.0126883 4.09496e-22)
(0.445284 -0.0124647 -1.5901e-22)
(0.457542 -0.0122378 1.49074e-23)
(0.469671 -0.0120068 -1.26225e-22)
(0.481674 -0.0117694 9.10954e-23)
(0.493551 -0.0115261 -2.49046e-22)
(0.505304 -0.0112748 3.67963e-22)
(0.516931 -0.0110176 -1.72092e-22)
(0.528434 -0.0107521 -2.19345e-22)
(0.539805 -0.0104824 -3.84114e-23)
(0.55105 -0.0102053 1.41699e-22)
(0.562152 -0.0099273 -2.41079e-22)
(0.573126 -0.00964324 8.95076e-23)
(0.58394 -0.0093628 1.17382e-23)
(0.594623 -0.00907714 1.79862e-23)
(0.605121 -0.0088005 -3.47872e-23)
(0.615493 -0.00851818 -2.09241e-23)
(0.625643 -0.00825105 -8.1298e-24)
(0.635684 -0.00797559 -1.71204e-23)
(0.645451 -0.00772251 -1.44837e-23)
(0.655147 -0.00745544 5.25921e-23)
(0.664494 -0.00721969 -3.23349e-23)
(0.673841 -0.00696042 -7.87463e-24)
(0.682728 -0.0067443 -1.31723e-23)
(0.691738 -0.00649033 3.55113e-23)
(0.700122 -0.00629586 -2.16226e-23)
(0.708827 -0.00604314 6.87932e-25)
(0.716656 -0.00587283 9.24099e-24)
(0.725115 -0.00561616 -4.60275e-24)
(0.732322 -0.00547379 2.11899e-24)
(0.740631 -0.00520712 6.79945e-25)
(0.747124 -0.00509828 -4.00946e-24)
(0.755423 -0.00481506 3.53741e-24)
(0.761073 -0.00474709 -2.3137e-24)
(0.76956 -0.00444098 -5.63481e-25)
(0.774182 -0.00442175 1.10115e-24)
(0.783132 -0.00408913 3.40508e-24)
(0.78647 -0.00412217 -3.40837e-25)
(0.796247 -0.00377022 -4.53168e-24)
(0.797965 -0.00383805 -6.74873e-26)
(0.809028 -0.00351261 5.80999e-24)
(0.227934 -0.0209393 -2.41962e-21)
(0.241928 -0.0206135 3.62374e-21)
(0.255877 -0.0202696 -3.95456e-21)
(0.269762 -0.0199132 2.59121e-21)
(0.283569 -0.0195494 -7.05107e-22)
(0.297283 -0.0191828 5.96589e-22)
(0.310892 -0.0188174 -1.44447e-21)
(0.324384 -0.0184565 5.97057e-22)
(0.337753 -0.0181027 -3.1392e-22)
(0.35099 -0.0177578 -3.0614e-23)
(0.364091 -0.0174229 1.83259e-22)
(0.377051 -0.0170983 6.94632e-22)
(0.389869 -0.0167838 -8.32378e-22)
(0.402544 -0.0164785 -8.83964e-23)
(0.415075 -0.0161812 4.25946e-23)
(0.427463 -0.01589 -5.32164e-23)
(0.43971 -0.0156034 -4.43898e-22)
(0.451818 -0.0153189 4.54457e-22)
(0.46379 -0.0150352 -7.12792e-23)
(0.475627 -0.0147496 1.90054e-22)
(0.487334 -0.0144615 -1.28644e-22)
(0.49891 -0.0141682 -8.31195e-23)
(0.510359 -0.0138704 -8.53191e-23)
(0.521682 -0.0135654 -8.05793e-23)
(0.532878 -0.0132556 2.69875e-22)
(0.54395 -0.0129379 -1.89609e-23)
(0.55489 -0.0126168 -1.55883e-22)
(0.565706 -0.0122882 -3.1222e-23)
(0.576382 -0.0119595 7.97368e-23)
(0.58693 -0.0116241 8.4634e-24)
(0.597324 -0.0112931 1.12317e-22)
(0.60759 -0.0109556 4.76168e-24)
(0.617677 -0.0106284 1.8181e-22)
(0.627642 -0.0102935 -1.8094e-22)
(0.637394 -0.00997593 1.04903e-22)
(0.64704 -0.00964713 1.74758e-23)
(0.656424 -0.00934418 1.05692e-23)
(0.665738 -0.00902309 -5.47824e-23)
(0.674718 -0.00873871 3.38356e-24)
(0.683698 -0.00842489 -1.89559e-23)
(0.692236 -0.00816236 -8.04454e-24)
(0.700893 -0.0078534 -6.02285e-23)
(0.708948 -0.00761588 2.2958e-23)
(0.717314 -0.00730769 3.85328e-24)
(0.724836 -0.007099 3.06417e-24)
(0.732969 -0.00678606 -9.96146e-24)
(0.739894 -0.00661145 -4.97073e-24)
(0.747886 -0.00628711 5.49319e-24)
(0.754124 -0.00615374 -2.66951e-25)
(0.762113 -0.00581051 -5.31997e-24)
(0.767539 -0.00572736 2.52958e-24)
(0.775716 -0.00535788 1.9277e-25)
(0.780153 -0.0053342 -1.79158e-24)
(0.788785 -0.00493426 -2.30533e-24)
(0.791987 -0.00497379 6.01754e-25)
(0.801423 -0.00455222 4.08646e-24)
(0.803067 -0.00463329 -1.64419e-25)
(0.813751 -0.00424527 1.31292e-24)
(0.256909 -0.024603 2.11091e-21)
(0.270569 -0.0242219 1.5221e-22)
(0.284169 -0.0238187 -2.05363e-21)
(0.297691 -0.0233996 -4.85586e-22)
(0.311121 -0.0229703 1.36215e-21)
(0.324445 -0.0225361 -9.29606e-22)
(0.337654 -0.0221016 1.4297e-21)
(0.350736 -0.0216705 -8.74138e-22)
(0.363685 -0.021246 2.32216e-22)
(0.376495 -0.0208302 1.3412e-21)
(0.389161 -0.0204248 -2.00034e-21)
(0.401679 -0.0200302 3.6297e-22)
(0.414049 -0.0196468 9.01582e-22)
(0.426268 -0.0192736 -1.13174e-21)
(0.438339 -0.0189099 -8.0992e-23)
(0.450261 -0.0185538 5.32676e-22)
(0.462038 -0.0182039 -5.24624e-23)
(0.473671 -0.0178579 5.64792e-23)
(0.485164 -0.0175143 5.58091e-22)
(0.496518 -0.0171704 1.17993e-22)
(0.507738 -0.0168257 -1.33673e-22)
(0.518826 -0.0164772 3.57965e-22)
(0.529784 -0.0161255 -2.22271e-22)
(0.540614 -0.0157677 1.87309e-23)
(0.551317 -0.0154062 1.57205e-23)
(0.561895 -0.0150374 1.20127e-22)
(0.572343 -0.0146663 -1.29536e-23)
(0.582667 -0.0142876 -4.44347e-23)
(0.592855 -0.0139097 -9.91721e-23)
(0.602917 -0.0135244 -8.83129e-23)
(0.61283 -0.0131446 2.30548e-22)
(0.622618 -0.0127571 -6.20908e-23)
(0.632235 -0.0123813 -4.76515e-23)
(0.641733 -0.0119959 2.16928e-23)
(0.651028 -0.0116299 -1.64282e-23)
(0.660221 -0.0112499 5.85179e-23)
(0.669164 -0.0108991 -1.211e-22)
(0.67804 -0.0105263 3.36961e-23)
(0.686598 -0.0101953 5.34025e-23)
(0.695156 -0.00982924 -2.0105e-23)
(0.703293 -0.0095223 -6.66936e-24)
(0.711544 -0.0091607 -8.00059e-24)
(0.71922 -0.00888201 -1.31572e-23)
(0.727196 -0.00852074 -2.09693e-23)
(0.734365 -0.00827539 1.28092e-23)
(0.742122 -0.00790865 1.48278e-23)
(0.74872 -0.00770326 1.35664e-23)
(0.756348 -0.00732382 -9.87592e-24)
(0.762291 -0.00716706 8.17304e-24)
(0.769922 -0.00676661 1.15671e-24)
(0.77509 -0.00666898 -4.27156e-24)
(0.78291 -0.0062392 1.89851e-26)
(0.787134 -0.0062112 5.36064e-25)
(0.795396 -0.00574745 1.96675e-24)
(0.798441 -0.0057929 -4.96248e-25)
(0.807483 -0.00530573 2.57214e-24)
(0.809043 -0.00539888 1.13731e-25)
(0.819287 -0.00495241 1.85953e-25)
(0.28933 -0.0281775 -3.41269e-21)
(0.302607 -0.027738 3.56059e-21)
(0.315806 -0.0272729 -2.27466e-21)
(0.328913 -0.0267888 1.11896e-21)
(0.341913 -0.0262923 -1.62813e-21)
(0.354796 -0.0257889 5.30744e-22)
(0.36755 -0.025284 8.15186e-23)
(0.380168 -0.0247817 1.59303e-22)
(0.392644 -0.0242857 -4.36328e-22)
(0.404971 -0.0237985 1.61929e-21)
(0.417146 -0.023322 -4.72702e-22)
(0.429167 -0.0228573 -3.69915e-23)
(0.441032 -0.0224047 -1.64789e-21)
(0.452742 -0.0219637 2.04848e-21)
(0.464297 -0.0215337 -4.7109e-22)
(0.475699 -0.0211129 2.3734e-22)
(0.486951 -0.0207001 -7.05335e-23)
(0.498054 -0.0202928 -1.35679e-21)
(0.509014 -0.0198898 8.63951e-22)
(0.519831 -0.0194883 -5.43198e-23)
(0.530512 -0.0190876 3.71685e-22)
(0.541058 -0.0186846 7.52053e-24)
(0.551472 -0.0182801 -5.19133e-22)
(0.561757 -0.0178705 -1.0962e-22)
(0.571915 -0.0174586 -1.21853e-22)
(0.581947 -0.01704 1.88693e-22)
(0.591851 -0.0166202 -1.95875e-22)
(0.601632 -0.016193 1.49122e-23)
(0.611281 -0.0157676 9.53662e-23)
(0.620806 -0.0153343 -7.81473e-23)
(0.630187 -0.0149076 2.21082e-22)
(0.639447 -0.0144721 -2.2834e-22)
(0.648544 -0.0140497 -7.23824e-24)
(0.657526 -0.013616 -4.44941e-23)
(0.666315 -0.0132038 1.24338e-22)
(0.675006 -0.0127751 -2.1669e-23)
(0.683461 -0.0123787 2.10151e-23)
(0.691852 -0.0119566 -8.87523e-23)
(0.699941 -0.0115814 2.1451e-23)
(0.708031 -0.0111656 5.99121e-23)
(0.715723 -0.0108165 7.12779e-23)
(0.723523 -0.0104049 -1.31462e-23)
(0.730779 -0.0100871 -1.90944e-23)
(0.738321 -0.00967548 7.06334e-24)
(0.745097 -0.00939538 3.66943e-24)
(0.752436 -0.00897761 -2.42012e-23)
(0.758672 -0.00874309 1.2206e-23)
(0.765893 -0.00831147 -4.76867e-25)
(0.77151 -0.00813259 -1.33239e-23)
(0.778741 -0.00767804 3.68911e-24)
(0.783623 -0.00756671 4.93745e-24)
(0.791042 -0.00708011 1.73783e-24)
(0.79503 -0.00704792 9.69391e-26)
(0.80288 -0.00652433 -3.47904e-24)
(0.805751 -0.00657502 -2.43742e-25)
(0.814351 -0.0060268 1.7647e-24)
(0.815818 -0.00613068 3.11666e-25)
(0.825569 -0.00563041 3.6233e-25)
(0.324665 -0.0316498 -1.87739e-21)
(0.337513 -0.0311489 2.45444e-21)
(0.350264 -0.0306193 -2.9392e-21)
(0.362907 -0.0300681 1.75453e-21)
(0.37543 -0.0295024 -5.61111e-22)
(0.387821 -0.0289285 -1.06626e-21)
(0.400073 -0.028352 2.31044e-21)
(0.412178 -0.0277776 -5.67342e-22)
(0.42413 -0.0272094 -1.53624e-22)
(0.435926 -0.0266504 1.34637e-21)
(0.447563 -0.0261027 -1.59245e-23)
(0.459038 -0.0255677 -1.75489e-21)
(0.470352 -0.0250461 8.81397e-22)
(0.481505 -0.0245375 7.1772e-22)
(0.492498 -0.0240415 -6.03235e-22)
(0.503333 -0.0235564 6.12173e-22)
(0.514014 -0.0230812 -3.28667e-22)
(0.524543 -0.0226133 -1.04298e-21)
(0.534925 -0.0221516 1.03047e-22)
(0.545162 -0.0216932 8.00327e-22)
(0.555259 -0.0212375 -6.05657e-23)
(0.56522 -0.020781 -4.84576e-22)
(0.575048 -0.0203247 -4.47069e-23)
(0.584746 -0.0198646 3.75037e-22)
(0.594317 -0.0194035 2.4723e-22)
(0.603762 -0.0189367 1.45616e-22)
(0.613081 -0.0184698 3.1821e-22)
(0.622279 -0.0179958 -1.99109e-22)
(0.631347 -0.0175246 -2.71389e-23)
(0.640295 -0.0170454 1.13074e-22)
(0.649105 -0.0165738 -1.34071e-22)
(0.657797 -0.0160927 2.21846e-22)
(0.666335 -0.0156259 -2.6533e-22)
(0.674761 -0.0151464 2.41328e-23)
(0.683007 -0.0146903 -5.53021e-23)
(0.691157 -0.0142154 1.25373e-22)
(0.699087 -0.013776 -8.18667e-24)
(0.706954 -0.0133072 -1.38965e-23)
(0.714539 -0.0128902 -6.89735e-23)
(0.722124 -0.0124276 1.03434e-23)
(0.729335 -0.0120387 -5.03222e-23)
(0.736649 -0.0115799 -2.54149e-23)
(0.743451 -0.0112254 5.43928e-23)
(0.750525 -0.0107662 -8.52215e-24)
(0.756876 -0.0104535 1.02783e-24)
(0.763763 -0.00998768 7.00581e-24)
(0.769607 -0.00972581 1.95016e-23)
(0.77639 -0.00924518 -2.60703e-24)
(0.781652 -0.00904556 2.14203e-23)
(0.78845 -0.00854033 -8.34566e-24)
(0.793023 -0.00841611 1.93463e-24)
(0.800008 -0.0078765 -1.08805e-24)
(0.803739 -0.00784021 -1.04337e-24)
(0.811141 -0.00726113 2.88675e-25)
(0.813823 -0.00731629 1.9924e-25)
(0.821942 -0.006712 -1.28743e-23)
(0.823309 -0.00682514 5.40127e-27)
(0.832523 -0.00627612 7.51074e-24)
(0.362379 -0.0350074 -1.26108e-22)
(0.37475 -0.0344423 3.11128e-21)
(0.387009 -0.0338457 -5.11143e-22)
(0.399143 -0.0332254 -1.30212e-21)
(0.411143 -0.032589 -9.61747e-22)
(0.422999 -0.0319432 2.00959e-21)
(0.434704 -0.0312942 -1.34318e-21)
(0.446252 -0.0306471 3.2236e-22)
(0.457639 -0.0300063 -1.41018e-22)
(0.468862 -0.0293752 -3.05113e-22)
(0.479919 -0.0287564 1.55303e-22)
(0.490808 -0.0281513 -4.30031e-22)
(0.50153 -0.027561 -1.21855e-21)
(0.512087 -0.0269853 6.9061e-22)
(0.522479 -0.0264238 9.24274e-22)
(0.53271 -0.0258752 -5.63142e-22)
(0.542784 -0.0253383 -2.72673e-22)
(0.552702 -0.0248107 -5.50704e-22)
(0.562471 -0.0242913 -8.82592e-24)
(0.572093 -0.023777 3.09385e-22)
(0.581574 -0.0232673 1.79939e-22)
(0.590916 -0.0227586 7.2033e-22)
(0.600126 -0.0222518 -8.90314e-22)
(0.609204 -0.0217426 -1.32082e-22)
(0.618157 -0.021234 2.0277e-23)
(0.626984 -0.0207205 1.10557e-22)
(0.635688 -0.0202082 1.14194e-22)
(0.644272 -0.0196893 1.13035e-22)
(0.652731 -0.0191744 3.06327e-22)
(0.661072 -0.0186514 -1.22033e-22)
(0.669281 -0.0181371 -2.23656e-22)
(0.677377 -0.0176126 1.84321e-22)
(0.685327 -0.0171039 -1.66871e-23)
(0.693169 -0.016581 9.13902e-23)
(0.700843 -0.0160836 -7.5682e-23)
(0.708425 -0.0155652 1.46319e-23)
(0.715801 -0.0150853 -5.00838e-23)
(0.723118 -0.0145728 6.56084e-23)
(0.730172 -0.0141166 -5.86807e-23)
(0.737225 -0.01361 1.30242e-22)
(0.743929 -0.0131839 -3.95599e-23)
(0.750731 -0.012681 -2.46962e-23)
(0.757054 -0.0122921 8.47018e-24)
(0.763634 -0.0117885 -2.89296e-23)
(0.769537 -0.0114453 -1.97464e-23)
(0.775946 -0.0109347 -3.39145e-23)
(0.781377 -0.0106473 -2.95876e-23)
(0.787694 -0.0101211 6.49759e-24)
(0.792582 -0.0099021 -7.36751e-24)
(0.798922 -0.00934986 -4.40616e-24)
(0.803167 -0.00921358 1.60428e-24)
(0.809691 -0.00862501 -4.19935e-24)
(0.813152 -0.0085847 2.90306e-25)
(0.820076 -0.00795475 1.97082e-24)
(0.82256 -0.00801353 2.40821e-25)
(0.830166 -0.00735845 2.06423e-24)
(0.831427 -0.00747928 1.45988e-25)
(0.840068 -0.00688685 -1.89374e-24)
(0.401936 -0.0382382 8.56968e-21)
(0.413788 -0.0376063 -5.29722e-21)
(0.42551 -0.0369406 -4.88176e-22)
(0.437094 -0.0362495 1.01389e-21)
(0.44853 -0.035541 -1.12884e-22)
(0.45981 -0.0348224 -1.16205e-21)
(0.470929 -0.0341002 5.73225e-22)
(0.481883 -0.0333801 1.72096e-21)
(0.492668 -0.0326667 -1.64663e-21)
(0.503282 -0.0319637 4.01887e-22)
(0.513723 -0.0312741 -6.99056e-22)
(0.523993 -0.0305995 1.10416e-21)
(0.534091 -0.0299412 -4.20454e-22)
(0.54402 -0.0292991 -3.25675e-22)
(0.553782 -0.0286731 7.58759e-22)
(0.563379 -0.0280619 -1.22866e-21)
(0.572817 -0.0274644 1.50297e-21)
(0.582098 -0.0268782 -3.77257e-22)
(0.591228 -0.0263023 -6.78998e-22)
(0.600209 -0.0257334 3.76855e-22)
(0.609049 -0.0251711 2.19279e-22)
(0.61775 -0.0246116 -6.86899e-22)
(0.626319 -0.0240558 3.41163e-22)
(0.634757 -0.0234991 3.49226e-22)
(0.643069 -0.0229446 -4.24253e-22)
(0.651258 -0.0223862 -3.90702e-22)
(0.659327 -0.0218305 -1.05094e-22)
(0.667277 -0.0212688 1.53957e-22)
(0.675107 -0.0207122 -1.06991e-22)
(0.682822 -0.0201476 -3.85269e-22)
(0.690412 -0.0195929 3.22224e-22)
(0.697893 -0.0190275 -1.91132e-22)
(0.705236 -0.0184793 -1.62804e-22)
(0.712477 -0.0179157 2.3978e-22)
(0.71956 -0.0173797 -8.16048e-23)
(0.726556 -0.0168205 6.99632e-23)
(0.733362 -0.0163028 -2.04605e-23)
(0.74011 -0.0157496 -1.03667e-22)
(0.746616 -0.0152568 1.26609e-22)
(0.753119 -0.0147093 -2.26963e-23)
(0.759301 -0.0142485 -4.68591e-23)
(0.765572 -0.0137046 4.081e-23)
(0.771401 -0.0132838 -8.86129e-25)
(0.777469 -0.0127391 8.58353e-24)
(0.782908 -0.0123676 3.53948e-23)
(0.788822 -0.0118155 -1.63026e-23)
(0.793825 -0.0115046 1.26678e-24)
(0.799659 -0.0109362 -1.2048e-23)
(0.80416 -0.0106994 3.24453e-24)
(0.810024 -0.0101039 6.38581e-24)
(0.81393 -0.00995638 2.34572e-24)
(0.819973 -0.00932309 6.29596e-24)
(0.823153 -0.00927876 3.37654e-24)
(0.829579 -0.0086028 1.46855e-24)
(0.831857 -0.00866426 -3.9407e-25)
(0.838927 -0.00796391 2.99003e-24)
(0.840078 -0.00809076 2.81183e-25)
(0.84812 -0.00746045 -1.14928e-23)
(0.44282 -0.0413303 2.51754e-21)
(0.454111 -0.0406295 -3.28179e-21)
(0.465257 -0.0398931 -1.70732e-22)
(0.476251 -0.03913 3.42803e-21)
(0.487085 -0.0383486 6.68413e-22)
(0.497754 -0.0375567 1.79009e-21)
(0.508253 -0.0367612 7.72056e-22)
(0.51858 -0.0359681 -3.51995e-21)
(0.528731 -0.0351824 4.55868e-22)
(0.538706 -0.0344082 2.75736e-22)
(0.548504 -0.0336485 1.08153e-21)
(0.558127 -0.0329053 -1.52993e-21)
(0.567576 -0.03218 1.76716e-21)
(0.576853 -0.0314727 -3.34737e-22)
(0.585962 -0.0307834 -9.29374e-23)
(0.594905 -0.0301108 1.50139e-22)
(0.603687 -0.0294541 -1.29863e-22)
(0.612311 -0.0288108 7.24717e-22)
(0.620785 -0.0281798 -8.55083e-22)
(0.62911 -0.027558 4.29683e-22)
(0.637294 -0.0269447 1.44449e-22)
(0.645339 -0.0263361 1.03599e-22)
(0.653253 -0.025733 -9.47629e-23)
(0.661037 -0.0251306 -4.21782e-22)
(0.668698 -0.024532 -8.73698e-23)
(0.676238 -0.0239308 4.4693e-22)
(0.68366 -0.0233336 3.1708e-22)
(0.690966 -0.0227312 -2.13503e-22)
(0.698157 -0.0221352 1.69409e-22)
(0.705237 -0.0215312 7.79272e-23)
(0.7122 -0.0209386 -5.5301e-23)
(0.719056 -0.0203347 -7.82578e-23)
(0.725784 -0.0197496 2.9858e-22)
(0.732414 -0.0191481 8.35662e-24)
(0.738899 -0.018576 -5.45345e-23)
(0.7453 -0.017979 -6.17354e-23)
(0.751527 -0.0174262 1.63014e-22)
(0.757698 -0.0168351 -1.22616e-22)
(0.763647 -0.0163085 1.97324e-23)
(0.769593 -0.0157231 6.03959e-23)
(0.775243 -0.0152304 -1.63618e-23)
(0.780976 -0.0146486 2.2181e-23)
(0.786302 -0.0141984 -3.76344e-25)
(0.79185 -0.0136159 5.51756e-24)
(0.796818 -0.0132183 2.92218e-23)
(0.802227 -0.0126282 -2.85282e-23)
(0.806795 -0.0122956 8.13409e-24)
(0.812137 -0.0116887 5.12123e-23)
(0.816243 -0.0114354 -3.64117e-23)
(0.821619 -0.0108006 -1.76441e-24)
(0.82518 -0.0106426 -2.2091e-24)
(0.830731 -0.00996894 3.18733e-25)
(0.833626 -0.00992056 -2.37156e-24)
(0.83954 -0.00920356 1.51067e-24)
(0.841608 -0.00926669 1.18259e-25)
(0.848126 -0.0085267 6.06197e-24)
(0.849165 -0.00865786 -3.53673e-25)
(0.85659 -0.00799528 7.63525e-24)
(0.484541 -0.0442725 6.10474e-21)
(0.49523 -0.0435013 -8.38884e-21)
(0.505763 -0.0426932 3.04346e-21)
(0.516131 -0.0418573 5.20033e-21)
(0.52633 -0.0410028 -3.48919e-21)
(0.536356 -0.0401377 -3.01932e-22)
(0.546206 -0.0392693 -2.28751e-22)
(0.555877 -0.0384038 2.97109e-21)
(0.565368 -0.0375467 -9.6036e-22)
(0.57468 -0.0367022 -1.1581e-21)
(0.583814 -0.0358736 -1.70643e-23)
(0.59277 -0.0350631 9.9392e-22)
(0.601551 -0.0342723 -1.72021e-21)
(0.610159 -0.0335013 1.94237e-21)
(0.618599 -0.0327504 3.56219e-22)
(0.626874 -0.0320182 -1.83878e-21)
(0.634988 -0.031304 2.67582e-22)
(0.642945 -0.0306052 2.76974e-23)
(0.650753 -0.029921 9.98909e-23)
(0.658413 -0.0292479 -4.49352e-23)
(0.665933 -0.0285856 -3.77559e-22)
(0.673317 -0.0279297 9.07992e-22)
(0.680571 -0.0272813 -8.42756e-22)
(0.687697 -0.0266351 7.77499e-22)
(0.694704 -0.0259945 -4.013e-22)
(0.701591 -0.0253525 1.24376e-22)
(0.708365 -0.0247161 -1.73567e-22)
(0.715027 -0.0240751 1.54929e-22)
(0.721578 -0.023442 -7.0649e-23)
(0.728023 -0.0228012 5.71633e-23)
(0.734357 -0.022173 -2.63423e-22)
(0.740588 -0.0215333 -5.07109e-23)
(0.746702 -0.0209138 -4.11684e-23)
(0.752722 -0.020277 6.15221e-23)
(0.758609 -0.0196715 1.62447e-23)
(0.764416 -0.0190396 1.64687e-23)
(0.770063 -0.0184544 -1.15612e-22)
(0.775658 -0.0178285 -1.70687e-23)
(0.781051 -0.0172708 -1.10658e-22)
(0.786438 -0.0166507 7.89562e-24)
(0.791557 -0.0161286 1.55025e-23)
(0.796751 -0.0155122 4.95151e-23)
(0.801573 -0.015035 -3.87161e-23)
(0.8066 -0.0144179 -1.71306e-23)
(0.811096 -0.0139966 -1.43239e-23)
(0.816 -0.0133718 8.77825e-24)
(0.820131 -0.0130193 5.00649e-23)
(0.824978 -0.0123775 -3.83225e-23)
(0.828689 -0.0121091 2.96677e-23)
(0.833575 -0.0114389 2.2348e-23)
(0.836788 -0.0112712 -1.58189e-24)
(0.841843 -0.0105616 -5.68372e-24)
(0.844451 -0.010509 6.07891e-25)
(0.849847 -0.00975599 -2.85475e-24)
(0.851706 -0.00981974 -9.08576e-25)
(0.857665 -0.00904576 -8.99463e-24)
(0.858592 -0.0091795 7.0462e-26)
(0.865389 -0.00849022 -5.38287e-24)
(0.52664 -0.0470541 6.62512e-21)
(0.53669 -0.0462119 8.98665e-22)
(0.546573 -0.0453316 -2.82563e-21)
(0.556284 -0.0444232 -8.89834e-24)
(0.565819 -0.0434959 -1.6429e-21)
(0.575174 -0.0425583 6.93636e-21)
(0.584349 -0.0416178 -4.61268e-21)
(0.593342 -0.0406813 5.61138e-22)
(0.602154 -0.0397541 -3.20735e-22)
(0.610786 -0.0388409 2.67081e-21)
(0.619238 -0.0379452 6.9533e-22)
(0.627513 -0.0370692 -4.46299e-21)
(0.635614 -0.0362147 7.25328e-22)
(0.643543 -0.035382 -3.85524e-22)
(0.651306 -0.0345714 3.42948e-22)
(0.658905 -0.0337816 1.76387e-22)
(0.666346 -0.0330119 5.86757e-22)
(0.673633 -0.0322598 7.51386e-22)
(0.680772 -0.0315244 -1.22384e-21)
(0.687766 -0.0308022 1.02881e-21)
(0.694624 -0.0300928 -1.91572e-23)
(0.701347 -0.0293917 5.00377e-22)
(0.707944 -0.0287002 4.7394e-22)
(0.714416 -0.0280124 -3.53081e-22)
(0.720773 -0.027332 -4.97278e-22)
(0.727013 -0.0266514 6.21853e-22)
(0.733145 -0.025978 -6.68314e-23)
(0.739168 -0.0253009 -4.17479e-23)
(0.745087 -0.024633 -5.64334e-22)
(0.750903 -0.0239578 4.628e-22)
(0.756616 -0.0232965 1.13452e-22)
(0.762232 -0.0226236 1.89181e-22)
(0.767738 -0.0219723 -3.09705e-22)
(0.773156 -0.021303 -7.8935e-23)
(0.778453 -0.0206667 -1.27116e-22)
(0.783674 -0.0200027 8.29857e-24)
(0.78875 -0.0193878 1.1346e-23)
(0.793776 -0.0187301 -6.74408e-23)
(0.79862 -0.018144 1.31858e-22)
(0.803457 -0.0174922 -9.13878e-23)
(0.808052 -0.0169434 -2.46365e-24)
(0.812713 -0.0162954 -5.13642e-23)
(0.817039 -0.0157938 8.92468e-23)
(0.821551 -0.0151452 2.19996e-23)
(0.825581 -0.0147023 -2.89304e-23)
(0.829984 -0.0140462 2.84241e-23)
(0.833684 -0.0136758 -4.97512e-23)
(0.838041 -0.0130026 1.68897e-23)
(0.841361 -0.0127205 1.01532e-24)
(0.845759 -0.0120187 -3.10944e-24)
(0.84863 -0.011842 1.72761e-24)
(0.853189 -0.0111007 4.35786e-24)
(0.855515 -0.0110439 -5.24563e-24)
(0.860394 -0.0102597 -7.78946e-25)
(0.862045 -0.010323 1.47976e-24)
(0.867444 -0.00952059 -1.59432e-24)
(0.868262 -0.0096552 7.35488e-25)
(0.874431 -0.00894466 4.67148e-24)
(0.568692 -0.0496655 7.97027e-21)
(0.578069 -0.0487523 -9.54803e-21)
(0.587272 -0.0478005 5.53628e-21)
(0.596297 -0.0468202 -7.20204e-21)
(0.605142 -0.0458213 4.37522e-22)
(0.613804 -0.0448125 7.05802e-21)
(0.622285 -0.0438018 -1.16338e-21)
(0.630583 -0.0427959 -4.21508e-21)
(0.638701 -0.0418007 -1.85269e-21)
(0.646639 -0.0408209 2.65513e-21)
(0.6544 -0.0398601 -1.92463e-21)
(0.661986 -0.0389209 -5.74893e-22)
(0.669401 -0.0380051 1.61588e-21)
(0.676647 -0.037113 9.56005e-22)
(0.683731 -0.0362451 -9.04178e-22)
(0.690654 -0.0354001 -3.91899e-22)
(0.697423 -0.0345773 -7.48097e-22)
(0.704042 -0.0337743 2.25082e-21)
(0.710517 -0.0329901 -2.75534e-21)
(0.716851 -0.0322211 1.58784e-21)
(0.723052 -0.031467 -5.47385e-22)
(0.729123 -0.0307231 -2.87133e-22)
(0.735072 -0.0299906 2.7966e-22)
(0.740901 -0.0292636 1.37731e-22)
(0.746618 -0.0285457 -1.51913e-23)
(0.752224 -0.027829 -4.94584e-23)
(0.757726 -0.0271209 -2.38122e-22)
(0.763124 -0.02641 1.5117e-22)
(0.768424 -0.0257097 4.9538e-23)
(0.773626 -0.0250026 2.70418e-22)
(0.778733 -0.0243108 -7.08075e-23)
(0.783747 -0.0236072 -6.53781e-23)
(0.788662 -0.0229267 2.61684e-22)
(0.793492 -0.0222277 -8.59749e-23)
(0.798213 -0.0215633 3.58078e-23)