/*--------------------------------*- C++ -*----------------------------------*\
  =========                 |
  \\      /  F ield         | OpenFOAM: The Open Source CFD Toolbox
   \\    /   O peration     | Website:  https://openfoam.org
    \\  /    A nd           | Version:  7
     \\/     M anipulation  |
\*---------------------------------------------------------------------------*/
FoamFile
{
    version     2.0;
    format      ascii;
    class       volScalarField;
    location    "75";
    object      p;
}
// * * * * * * * * * * * * * * * * * * * * * * * * * * * * * * * * * * * * * //

dimensions      [0 2 -2 0 0 0 0];

internalField   nonuniform List<scalar> 
31800
(
-0.247744
-0.249285
-0.250161
-0.250873
-0.251489
-0.252026
-0.25252
-0.252991
-0.253451
-0.253905
-0.254353
-0.254787
-0.255202
-0.255585
-0.255926
-0.256213
-0.25643
-0.256566
-0.256608
-0.256545
-0.256371
-0.256087
-0.255706
-0.255233
-0.254723
-0.247845
-0.249379
-0.25025
-0.250959
-0.251572
-0.252107
-0.252598
-0.253067
-0.253526
-0.253978
-0.254423
-0.254855
-0.255266
-0.255645
-0.25598
-0.256259
-0.256466
-0.256589
-0.256613
-0.256526
-0.256322
-0.255999
-0.25557
-0.255034
-0.254448
-0.248054
-0.249568
-0.25043
-0.25113
-0.251736
-0.252265
-0.252751
-0.253216
-0.25367
-0.254118
-0.254559
-0.254986
-0.255392
-0.255766
-0.256095
-0.256365
-0.256562
-0.256671
-0.256676
-0.256564
-0.256325
-0.255958
-0.255473
-0.254861
-0.25418
-0.24837
-0.249853
-0.250698
-0.251385
-0.25198
-0.252499
-0.252977
-0.253434
-0.253881
-0.254323
-0.254758
-0.25518
-0.25558
-0.255947
-0.256269
-0.25653
-0.256716
-0.25681
-0.256795
-0.256657
-0.25638
-0.255963
-0.255415
-0.254715
-0.253916
-0.248788
-0.25023
-0.251052
-0.251722
-0.252301
-0.252807
-0.253273
-0.25372
-0.254157
-0.25459
-0.255017
-0.255431
-0.255824
-0.256184
-0.256497
-0.25675
-0.256924
-0.257003
-0.256969
-0.256802
-0.256485
-0.256012
-0.255395
-0.254596
-0.253652
-0.249305
-0.250695
-0.25149
-0.252136
-0.252696
-0.253185
-0.253636
-0.254068
-0.254494
-0.254916
-0.255332
-0.255736
-0.25612
-0.256471
-0.256776
-0.257018
-0.257181
-0.257245
-0.25719
-0.256994
-0.256636
-0.256104
-0.255411
-0.254506
-0.253377
-0.249914
-0.251244
-0.252005
-0.252624
-0.25316
-0.253628
-0.25406
-0.254476
-0.254886
-0.255293
-0.255697
-0.256089
-0.256462
-0.256803
-0.257097
-0.257329
-0.25748
-0.257529
-0.257454
-0.257229
-0.256829
-0.256234
-0.255459
-0.254447
-0.25308
-0.25061
-0.251871
-0.252594
-0.253181
-0.253689
-0.254132
-0.254542
-0.254937
-0.255327
-0.255718
-0.256105
-0.256483
-0.256843
-0.257171
-0.257454
-0.257674
-0.257812
-0.257846
-0.257751
-0.257498
-0.257056
-0.256396
-0.255534
-0.254421
-0.252743
-0.251385
-0.252571
-0.253251
-0.253802
-0.254277
-0.254692
-0.255074
-0.255445
-0.255813
-0.256182
-0.25655
-0.256911
-0.257254
-0.257568
-0.257837
-0.258044
-0.258168
-0.258187
-0.258072
-0.257791
-0.257309
-0.256585
-0.255627
-0.254436
-0.252335
-0.252232
-0.253336
-0.25397
-0.254482
-0.25492
-0.255301
-0.255652
-0.255993
-0.256334
-0.256678
-0.257023
-0.257363
-0.257687
-0.257983
-0.258236
-0.258428
-0.258537
-0.25854
-0.258405
-0.258098
-0.257577
-0.256791
-0.255731
-0.254509
-0.251785
-0.253142
-0.254162
-0.254746
-0.255214
-0.255611
-0.255954
-0.256269
-0.256576
-0.256885
-0.257199
-0.257517
-0.257831
-0.258132
-0.258408
-0.258641
-0.258816
-0.258908
-0.258893
-0.258738
-0.258406
-0.257848
-0.257005
-0.255827
-0.254655
-0.251058
-0.25411
-0.255042
-0.255573
-0.255993
-0.256345
-0.256645
-0.256919
-0.257187
-0.257458
-0.257737
-0.258022
-0.258307
-0.25858
-0.258831
-0.259042
-0.259195
-0.259268
-0.259233
-0.259058
-0.258699
-0.258107
-0.257216
-0.255892
-0.25475
-0.250619
-0.255127
-0.25597
-0.256445
-0.256814
-0.257116
-0.257368
-0.257596
-0.257818
-0.258046
-0.258285
-0.258531
-0.25878
-0.259022
-0.259242
-0.259426
-0.259555
-0.259605
-0.259548
-0.259349
-0.258964
-0.258335
-0.257409
-0.255964
-0.254773
-0.250074
-0.256186
-0.25694
-0.257357
-0.257672
-0.25792
-0.258118
-0.258293
-0.258464
-0.258643
-0.258834
-0.259036
-0.259244
-0.259447
-0.259632
-0.259785
-0.259884
-0.259906
-0.259822
-0.259597
-0.259183
-0.258514
-0.257564
-0.255966
-0.254861
-0.249371
-0.257282
-0.257948
-0.258306
-0.258562
-0.258751
-0.25889
-0.259006
-0.259119
-0.259241
-0.259378
-0.259529
-0.259688
-0.259847
-0.259992
-0.260107
-0.260171
-0.260161
-0.260046
-0.259789
-0.259343
-0.258625
-0.257667
-0.255864
-0.254984
-0.248527
-0.258409
-0.25899
-0.259287
-0.259482
-0.259607
-0.25968
-0.25973
-0.259777
-0.259835
-0.25991
-0.260003
-0.260108
-0.260216
-0.260313
-0.260384
-0.260408
-0.260359
-0.260207
-0.259912
-0.25943
-0.258651
-0.257703
-0.255632
-0.255107
-0.247555
-0.259565
-0.260063
-0.260297
-0.260428
-0.260483
-0.260485
-0.260462
-0.260436
-0.260422
-0.260427
-0.260454
-0.260496
-0.260546
-0.26059
-0.26061
-0.260587
-0.260493
-0.260297
-0.259957
-0.259434
-0.258574
-0.257659
-0.255247
-0.255192
-0.246471
-0.260746
-0.261165
-0.261336
-0.261398
-0.261379
-0.261302
-0.261198
-0.261091
-0.260996
-0.260924
-0.260877
-0.260849
-0.260834
-0.260816
-0.26078
-0.260703
-0.260558
-0.260311
-0.259916
-0.259347
-0.258384
-0.257521
-0.254697
-0.255189
-0.245311
-0.261953
-0.262297
-0.262403
-0.262392
-0.262293
-0.262131
-0.261938
-0.261741
-0.261558
-0.261399
-0.261269
-0.261164
-0.261076
-0.260991
-0.260891
-0.260753
-0.260549
-0.260244
-0.259785
-0.259163
-0.258074
-0.257274
-0.253987
-0.255033
-0.244126
-0.263186
-0.263459
-0.263499
-0.263411
-0.263226
-0.262971
-0.262681
-0.262385
-0.262105
-0.261852
-0.261631
-0.261441
-0.261273
-0.261112
-0.260942
-0.260737
-0.260467
-0.260096
-0.259562
-0.258878
-0.257643
-0.256896
-0.25314
-0.254649
-0.242974
-0.264448
-0.264654
-0.264626
-0.264457
-0.264179
-0.263823
-0.263428
-0.263026
-0.262639
-0.262283
-0.261964
-0.261681
-0.261425
-0.261183
-0.260935
-0.260656
-0.260313
-0.259867
-0.259247
-0.258488
-0.257093
-0.256361
-0.252185
-0.253961
-0.241894
-0.265745
-0.265886
-0.265788
-0.265533
-0.265155
-0.264691
-0.264183
-0.263665
-0.263163
-0.262696
-0.262271
-0.261887
-0.261537
-0.261207
-0.260876
-0.260515
-0.26009
-0.259559
-0.258841
-0.257987
-0.256427
-0.255638
-0.25115
-0.25291
-0.240883
-0.267083
-0.267162
-0.26699
-0.266643
-0.266159
-0.265579
-0.264949
-0.264306
-0.263682
-0.263095
-0.262557
-0.262066
-0.261616
-0.261191
-0.260769
-0.26032
-0.259803
-0.259175
-0.258343
-0.257367
-0.255643
-0.2547
-0.250044
-0.251473
-0.23989
-0.268472
-0.268488
-0.26824
-0.267794
-0.267196
-0.266492
-0.265731
-0.264956
-0.264201
-0.263488
-0.262829
-0.262225
-0.261668
-0.261143
-0.260624
-0.260076
-0.259457
-0.258715
-0.257752
-0.25662
-0.254734
-0.253528
-0.248846
-0.249665
-0.238832
-0.269921
-0.269875
-0.269543
-0.268993
-0.268274
-0.267437
-0.266537
-0.265622
-0.264729
-0.263883
-0.263097
-0.262374
-0.261705
-0.261072
-0.260447
-0.259792
-0.259055
-0.258179
-0.257063
-0.255734
-0.253681
-0.252112
-0.247515
-0.247533
-0.237621
-0.271444
-0.271331
-0.27091
-0.270249
-0.269399
-0.268421
-0.267375
-0.266313
-0.265275
-0.26429
-0.263372
-0.262524
-0.261736
-0.260989
-0.260249
-0.259471
-0.258598
-0.257563
-0.256265
-0.254698
-0.252461
-0.250455
-0.245996
-0.24513
-0.236183
-0.273054
-0.272868
-0.272352
-0.27157
-0.270583
-0.269456
-0.268255
-0.267039
-0.26585
-0.26472
-0.263665
-0.262686
-0.261774
-0.260903
-0.260036
-0.259118
-0.258086
-0.256861
-0.255346
-0.253498
-0.251044
-0.248558
-0.244242
-0.242488
-0.234462
-0.274767
-0.274499
-0.27388
-0.272969
-0.271834
-0.27055
-0.269188
-0.267811
-0.266466
-0.265186
-0.263988
-0.262874
-0.26183
-0.260824
-0.259813
-0.258734
-0.257513
-0.256062
-0.254288
-0.252121
-0.249407
-0.246426
-0.242215
-0.239584
-0.232416
-0.276599
-0.276238
-0.275506
-0.274456
-0.273165
-0.271715
-0.270185
-0.268641
-0.267135
-0.265701
-0.264356
-0.263099
-0.261913
-0.260759
-0.259584
-0.258316
-0.256871
-0.255153
-0.253076
-0.250555
-0.247535
-0.244071
-0.239897
-0.23635
-0.230085
-0.278567
-0.278099
-0.277243
-0.276043
-0.274586
-0.272964
-0.271259
-0.269543
-0.26787
-0.266277
-0.26478
-0.263373
-0.262033
-0.260713
-0.259348
-0.257857
-0.256148
-0.25412
-0.251697
-0.248793
-0.245426
-0.24152
-0.237282
-0.232791
-0.227661
-0.280689
-0.280097
-0.279105
-0.277744
-0.276112
-0.274308
-0.272422
-0.270529
-0.268686
-0.26693
-0.265273
-0.263705
-0.262195
-0.260685
-0.2591
-0.257348
-0.25533
-0.252948
-0.250141
-0.246833
-0.24309
-0.238801
-0.234379
-0.229227
-0.225131
-0.282981
-0.282247
-0.281104
-0.279571
-0.277754
-0.275761
-0.273688
-0.271613
-0.269596
-0.26767
-0.265845
-0.264103
-0.262403
-0.260675
-0.258832
-0.256774
-0.254402
-0.251627
-0.248403
-0.24468
-0.240552
-0.235926
-0.231221
-0.225862
-0.221468
-0.285462
-0.284563
-0.283256
-0.281539
-0.279526
-0.277336
-0.27507
-0.272809
-0.270611
-0.268509
-0.266505
-0.264572
-0.262655
-0.260675
-0.258532
-0.256122
-0.253352
-0.250147
-0.246485
-0.242343
-0.23784
-0.232901
-0.227934
-0.222401
-0.217678
-0.288148
-0.28706
-0.285574
-0.283659
-0.281441
-0.279047
-0.276581
-0.274129
-0.271745
-0.269458
-0.26726
-0.265113
-0.262949
-0.260675
-0.258185
-0.255377
-0.252168
-0.248506
-0.244394
-0.239841
-0.234978
-0.229756
-0.224548
-0.218881
-0.213954
-0.291056
-0.289753
-0.288071
-0.285946
-0.283512
-0.280906
-0.278236
-0.275586
-0.273009
-0.270523
-0.268112
-0.265723
-0.263274
-0.260661
-0.257776
-0.254524
-0.250842
-0.246704
-0.242142
-0.237191
-0.231991
-0.226513
-0.221095
-0.215317
-0.210234
-0.294201
-0.292655
-0.29076
-0.288412
-0.285752
-0.282927
-0.280046
-0.277192
-0.274411
-0.271712
-0.269063
-0.266398
-0.263619
-0.260617
-0.257288
-0.253551
-0.249369
-0.244746
-0.239742
-0.234413
-0.228902
-0.223192
-0.217592
-0.211711
-0.206526
-0.297597
-0.29578
-0.293656
-0.291071
-0.288175
-0.285122
-0.282024
-0.278957
-0.275959
-0.273025
-0.270109
-0.267125
-0.263968
-0.260525
-0.256704
-0.252448
-0.247749
-0.242642
-0.237209
-0.231524
-0.225728
-0.219808
-0.214045
-0.208071
-0.202802
-0.301256
-0.299139
-0.296769
-0.293935
-0.290793
-0.287505
-0.284181
-0.28089
-0.277658
-0.274464
-0.271241
-0.267891
-0.264302
-0.260366
-0.256011
-0.251208
-0.245982
-0.240399
-0.234557
-0.22854
-0.222481
-0.216369
-0.210458
-0.204396
-0.199053
-0.305191
-0.302744
-0.30011
-0.297015
-0.293618
-0.290087
-0.286528
-0.282999
-0.279511
-0.276021
-0.272448
-0.268679
-0.2646
-0.260121
-0.255194
-0.249826
-0.244075
-0.238028
-0.231798
-0.225472
-0.219169
-0.21288
-0.206831
-0.200683
-0.195269
-0.309412
-0.306604
-0.303692
-0.300323
-0.296661
-0.29288
-0.289073
-0.285288
-0.281514
-0.277689
-0.273712
-0.269465
-0.264841
-0.259772
-0.254244
-0.248301
-0.24203
-0.235539
-0.228941
-0.222326
-0.215797
-0.209342
-0.203161
-0.19693
-0.191443
-0.313924
-0.310728
-0.307522
-0.30387
-0.299934
-0.295891
-0.291823
-0.287758
-0.283663
-0.279453
-0.275014
-0.270226
-0.265001
-0.259301
-0.253152
-0.246633
-0.239854
-0.232937
-0.225994
-0.219107
-0.212365
-0.205753
-0.199444
-0.193132
-0.18757
-0.318735
-0.315122
-0.311609
-0.307663
-0.303444
-0.299128
-0.294781
-0.290405
-0.285944
-0.281293
-0.276327
-0.270936
-0.265058
-0.258695
-0.251912
-0.244821
-0.237551
-0.230229
-0.222959
-0.215816
-0.20887
-0.202108
-0.195675
-0.189282
-0.183645
-0.323848
-0.319791
-0.315958
-0.31171
-0.307199
-0.302596
-0.297945
-0.293222
-0.288343
-0.283185
-0.277624
-0.271568
-0.264991
-0.257939
-0.250519
-0.242866
-0.235124
-0.227415
-0.219836
-0.212449
-0.20531
-0.198403
-0.191847
-0.185376
-0.179662
-0.329261
-0.324736
-0.320574
-0.316015
-0.311202
-0.306295
-0.30131
-0.296193
-0.290835
-0.2851
-0.278873
-0.272093
-0.264779
-0.257023
-0.248967
-0.240768
-0.232572
-0.224496
-0.216622
-0.209003
-0.201678
-0.19463
-0.187955
-0.181409
-0.175616
-0.334971
-0.329956
-0.325456
-0.32058
-0.315453
-0.31022
-0.304864
-0.299298
-0.293392
-0.287005
-0.280042
-0.272485
-0.264404
-0.255936
-0.247254
-0.238526
-0.229895
-0.221468
-0.213314
-0.205472
-0.197968
-0.190783
-0.183992
-0.177373
-0.171502
-0.340973
-0.335448
-0.330603
-0.325402
-0.319948
-0.314361
-0.308589
-0.302511
-0.29598
-0.288862
-0.281097
-0.272718
-0.263849
-0.254669
-0.245374
-0.236136
-0.227089
-0.218328
-0.209905
-0.201849
-0.194171
-0.186855
-0.179951
-0.173263
-0.167315
-0.347251
-0.341201
-0.336006
-0.330475
-0.324676
-0.318702
-0.312459
-0.305798
-0.298559
-0.290632
-0.282003
-0.272766
-0.263097
-0.253213
-0.243321
-0.233592
-0.224149
-0.215067
-0.206387
-0.198125
-0.190281
-0.182838
-0.175825
-0.169073
-0.163051
-0.353789
-0.347202
-0.341656
-0.335786
-0.329621
-0.323219
-0.316443
-0.309117
-0.301086
-0.292275
-0.282729
-0.272606
-0.262135
-0.251559
-0.24109
-0.23089
-0.221066
-0.211679
-0.202752
-0.194292
-0.186289
-0.178724
-0.171608
-0.164798
-0.158703
-0.360565
-0.353433
-0.347534
-0.341317
-0.33476
-0.327882
-0.320501
-0.312424
-0.303514
-0.293748
-0.283241
-0.272217
-0.260948
-0.249695
-0.23867
-0.22802
-0.217833
-0.208153
-0.198991
-0.190341
-0.182187
-0.174506
-0.167294
-0.160431
-0.154267
-0.367548
-0.359869
-0.353617
-0.347043
-0.340063
-0.33265
-0.324585
-0.315666
-0.305793
-0.295009
-0.283508
-0.271576
-0.259521
-0.247613
-0.236054
-0.224973
-0.21444
-0.20448
-0.195093
-0.186263
-0.177966
-0.170176
-0.162875
-0.155967
-0.14974
-0.374705
-0.366479
-0.359876
-0.352931
-0.345489
-0.337477
-0.328641
-0.318789
-0.307873
-0.29602
-0.283502
-0.270664
-0.25784
-0.2453
-0.23323
-0.221738
-0.210875
-0.200649
-0.191048
-0.182049
-0.173618
-0.165728
-0.158347
-0.151401
-0.145115
-0.381991
-0.373225
-0.366274
-0.35894
-0.350993
-0.342307
-0.332609
-0.321733
-0.309703
-0.296738
-0.283193
-0.26946
-0.25589
-0.242743
-0.230186
-0.218304
-0.207127
-0.196649
-0.186847
-0.177689
-0.169135
-0.161153
-0.153702
-0.146727
-0.140389
-0.389358
-0.380064
-0.372766
-0.365024
-0.356518
-0.34708
-0.336426
-0.324438
-0.311232
-0.297128
-0.282554
-0.267945
-0.253655
-0.239929
-0.226909
-0.214657
-0.203184
-0.192469
-0.18248
-0.173174
-0.164509
-0.156446
-0.148936
-0.14194
-0.135557
-0.396749
-0.386944
-0.379301
-0.371124
-0.362002
-0.351726
-0.340022
-0.326843
-0.312412
-0.297151
-0.28156
-0.2661
-0.25112
-0.236844
-0.223386
-0.210785
-0.199034
-0.188099
-0.177936
-0.168497
-0.159732
-0.1516
-0.144042
-0.137035
-0.130616
-0.4041
-0.393806
-0.385819
-0.377177
-0.367374
-0.356172
-0.343328
-0.328887
-0.313194
-0.296773
-0.280185
-0.263905
-0.248269
-0.233472
-0.219602
-0.206675
-0.194665
-0.183526
-0.173206
-0.163648
-0.154798
-0.146608
-0.139016
-0.132008
-0.125563
-0.411341
-0.400584
-0.392253
-0.383112
-0.372558
-0.36034
-0.34627
-0.33051
-0.313533
-0.295962
-0.278405
-0.261341
-0.245083
-0.229798
-0.215544
-0.202313
-0.190065
-0.178742
-0.16828
-0.158619
-0.149699
-0.141465
-0.133852
-0.126854
-0.120394
-0.418395
-0.407206
-0.398529
-0.388849
-0.377471
-0.36415
-0.348779
-0.331655
-0.313386
-0.294685
-0.276195
-0.258387
-0.241547
-0.225806
-0.211196
-0.197687
-0.185223
-0.173734
-0.163151
-0.153404
-0.144429
-0.136166
-0.128547
-0.12157
-0.115106
-0.42518
-0.413594
-0.404566
-0.394303
-0.382027
-0.367519
-0.350782
-0.332265
-0.312711
-0.292912
-0.273533
-0.255026
-0.237642
-0.221481
-0.206545
-0.192784
-0.180127
-0.168495
-0.157809
-0.147995
-0.138982
-0.130706
-0.123097
-0.116152
-0.109698
-0.431608
-0.419664
-0.410279
-0.399386
-0.386137
-0.370366
-0.352211
-0.332287
-0.31147
-0.290616
-0.270396
-0.251237
-0.233353
-0.216808
-0.201577
-0.187592
-0.174767
-0.163014
-0.152247
-0.142385
-0.133353
-0.12508
-0.117497
-0.110597
-0.104168
-0.437588
-0.425326
-0.415576
-0.404005
-0.38971
-0.372609
-0.353
-0.331674
-0.309627
-0.287768
-0.266762
-0.247002
-0.228662
-0.211771
-0.196278
-0.182098
-0.169133
-0.157284
-0.146458
-0.136568
-0.127536
-0.119284
-0.111745
-0.104903
-0.0985143
-0.443024
-0.430489
-0.420363
-0.408064
-0.392657
-0.374171
-0.353088
-0.330378
-0.307148
-0.284344
-0.262611
-0.242304
-0.223554
-0.206357
-0.190638
-0.176294
-0.163215
-0.151296
-0.140435
-0.130541
-0.121529
-0.113316
-0.105838
-0.099067
-0.0927376
-0.447821
-0.435056
-0.424543
-0.411467
-0.394887
-0.374975
-0.352417
-0.328358
-0.304004
-0.28032
-0.257924
-0.237125
-0.218013
-0.200552
-0.184643
-0.170168
-0.157007
-0.145044
-0.134174
-0.124297
-0.115326
-0.107173
-0.0997734
-0.0930892
-0.0868379
-0.451879
-0.438932
-0.428019
-0.414119
-0.396316
-0.374953
-0.350934
-0.325575
-0.300165
-0.275674
-0.252682
-0.23145
-0.212027
-0.194344
-0.178284
-0.163713
-0.1505
-0.138523
-0.127668
-0.117833
-0.108925
-0.100851
-0.0935497
-0.0869689
-0.0808189
-0.455101
-0.442019
-0.430693
-0.415927
-0.396859
-0.374037
-0.34859
-0.321995
-0.295607
-0.270386
-0.246868
-0.225264
-0.205581
-0.187723
-0.171551
-0.15692
-0.143689
-0.131727
-0.120916
-0.111147
-0.102323
-0.0943491
-0.0871634
-0.0807049
-0.074684
-0.457392
-0.444221
-0.432469
-0.416799
-0.396442
-0.372169
-0.345342
-0.317588
-0.290308
-0.264438
-0.240467
-0.218553
-0.198665
-0.180678
-0.164437
-0.149784
-0.136568
-0.124653
-0.113913
-0.104237
-0.0955205
-0.087665
-0.0806119
-0.0742924
-0.0684236
-0.458658
-0.445445
-0.433256
-0.416652
-0.394993
-0.369295
-0.341153
-0.312327
-0.284247
-0.257816
-0.233466
-0.211307
-0.191269
-0.173202
-0.156936
-0.142299
-0.129135
-0.117298
-0.106659
-0.0971009
-0.0885158
-0.0807999
-0.0738985
-0.0677295
-0.0619988
-0.458809
-0.445602
-0.432965
-0.415407
-0.392448
-0.365369
-0.335992
-0.306191
-0.277409
-0.250506
-0.225855
-0.203516
-0.183385
-0.16529
-0.149042
-0.134463
-0.121386
-0.109661
-0.0991523
-0.0897396
-0.0813095
-0.0737565
-0.0670339
-0.0610303
-0.0553624
-0.457762
-0.444605
-0.431514
-0.412991
-0.388751
-0.360351
-0.329831
-0.299161
-0.26978
-0.242497
-0.217624
-0.195173
-0.175008
-0.156935
-0.140753
-0.126273
-0.113321
-0.101741
-0.0913936
-0.0821537
-0.0739029
-0.0665375
-0.0600221
-0.0542108
-0.0485605
-0.455439
-0.442377
-0.428829
-0.40934
-0.383853
-0.354209
-0.32265
-0.291225
-0.261352
-0.233781
-0.208766
-0.186273
-0.166134
-0.148137
-0.132068
-0.117728
-0.10494
-0.0935394
-0.0833842
-0.0743454
-0.0662992
-0.059146
-0.0528512
-0.0471832
-0.0417697
-0.45177
-0.438845
-0.424842
-0.404398
-0.377715
-0.346917
-0.314435
-0.282372
-0.252117
-0.224355
-0.19928
-0.176814
-0.156761
-0.138893
-0.122985
-0.10883
-0.0962437
-0.0850589
-0.0751269
-0.0663186
-0.0585027
-0.0515854
-0.0455217
-0.0400285
-0.0348909
-0.446691
-0.433946
-0.419494
-0.39812
-0.370306
-0.338457
-0.305175
-0.272599
-0.242074
-0.214217
-0.189163
-0.166794
-0.146891
-0.129207
-0.113508
-0.099582
-0.0872364
-0.0763039
-0.0666277
-0.0580757
-0.0505169
-0.0438583
-0.0380437
-0.0327574
-0.0279032
-0.440151
-0.427625
-0.412737
-0.390468
-0.361602
-0.328819
-0.294868
-0.261906
-0.231223
-0.203367
-0.178417
-0.156217
-0.136524
-0.11908
-0.103641
-0.0899883
-0.0779249
-0.0672775
-0.0578895
-0.0496231
-0.042347
-0.0359697
-0.0304254
-0.0253707
-0.0208059
-0.432105
-0.419837
-0.404533
-0.381417
-0.351591
-0.317999
-0.283515
-0.250296
-0.219569
-0.191812
-0.167047
-0.145087
-0.125668
-0.108519
-0.0933913
-0.0800551
-0.068313
-0.0579871
-0.048919
-0.040967
-0.0339991
-0.0279262
-0.0226734
-0.0178687
-0.0136058
-0.422519
-0.410547
-0.394851
-0.370948
-0.340268
-0.306001
-0.271124
-0.237779
-0.207122
-0.179558
-0.15506
-0.133412
-0.114331
-0.0975337
-0.0827639
-0.0697899
-0.0584089
-0.0484402
-0.0397237
-0.0321147
-0.0254804
-0.019735
-0.0147936
-0.0102553
-0.00630996
-0.41137
-0.399732
-0.383676
-0.359055
-0.327636
-0.292834
-0.257709
-0.224367
-0.193891
-0.166614
-0.142469
-0.121207
-0.102523
-0.0861319
-0.0717699
-0.0592021
-0.0482218
-0.0386459
-0.0303124
-0.0230745
-0.0167991
-0.0114039
-0.00679302
-0.00253642
0.00107405
-0.398647
-0.387376
-0.370999
-0.345741
-0.313707
-0.278516
-0.243286
-0.210078
-0.179892
-0.152996
-0.129295
-0.108479
-0.0902558
-0.074326
-0.0604211
-0.0483031
-0.0377626
-0.0286144
-0.0206951
-0.0138561
-0.00796431
-0.00294167
0.00132066
0.00528022
0.00853832
-0.384347
-0.373477
-0.356824
-0.331019
-0.298502
-0.263071
-0.227881
-0.194933
-0.165146
-0.138736
-0.115537
-0.0952457
-0.0775445
-0.0621303
-0.0487308
-0.0371058
-0.0270435
-0.0183573
-0.0108828
-0.00446979
0.00101377
0.00564228
0.0095386
0.0131859
0.0160744
-0.368479
-0.358043
-0.341165
-0.314911
-0.282048
-0.246529
-0.211523
-0.178959
-0.149684
-0.123839
-0.101227
-0.0815258
-0.0644066
-0.0495612
-0.0367146
-0.0256246
-0.0160781
-0.00788755
-0.000887651
0.00507268
0.0101241
0.0143375
0.017851
0.0211707
0.0236731
-0.351064
-0.341094
-0.324046
-0.297448
-0.264379
-0.228926
-0.194244
-0.162189
-0.133525
-0.108335
-0.0863852
-0.0673407
-0.0508619
-0.0366371
-0.0243894
-0.0138755
-0.00488136
0.00278086
0.00927705
0.0147588
0.0193547
0.0231327
0.0262472
0.0292239
0.0313245
-0.332132
-0.322658
-0.305502
-0.278668
-0.245542
-0.210304
-0.176081
-0.144655
-0.116703
-0.0922517
-0.0710386
-0.0527142
-0.0369323
-0.0233783
-0.0117743
-0.00187613
0.00653024
0.0136326
0.019597
0.024575
0.0286927
0.0320158
0.0347157
0.0373337
0.0390172
-0.311725
-0.302773
-0.285576
-0.258626
-0.225593
-0.190696
-0.157076
-0.126394
-0.0992505
-0.0756209
-0.0552152
-0.0376726
-0.022642
-0.00980725
0.00111027
0.0103545
0.0181391
0.0246514
0.0300569
0.0345069
0.0381243
0.0409736
0.0432438
0.0454869
0.046739
-0.289891
-0.281488
-0.264321
-0.237386
-0.204591
-0.170143
-0.137275
-0.10745
-0.081207
-0.0584769
-0.0389461
-0.0222444
-0.00801742
0.00405199
0.014242
0.0227959
0.0299265
0.0358198
0.0406406
0.0445392
0.047635
0.0499923
0.051818
0.0536682
0.0544751
-0.266687
-0.258862
-0.241804
-0.215003
-0.182519
-0.148767
-0.116735
-0.0878685
-0.0626135
-0.0408569
-0.0222653
-0.00646068
0.00691329
0.0181735
0.0275973
0.0354265
0.0418723
0.0471193
0.0513312
0.0546561
0.0572098
0.0590576
0.0604233
0.0618594
0.0622048
-0.242178
-0.234969
-0.218108
-0.191486
-0.159532
-0.12658
-0.0955097
-0.0676989
-0.0435141
-0.0228009
-0.00520887
0.0096457
0.02212
0.0325298
0.0411508
0.0482231
0.0539555
0.0585309
0.062111
0.0648414
0.0668331
0.0681548
0.0690452
0.0700413
0.0699008
-0.216435
-0.20989
-0.193315
-0.166913
-0.135682
-0.103651
-0.0736574
-0.0469939
-0.0239558
-0.00435127
0.0121846
0.0260397
0.0375707
0.0470917
0.0548762
0.0611615
0.0661542
0.0700343
0.0729617
0.075078
0.0764889
0.0772689
0.0776711
0.0781998
0.0775464
-0.189534
-0.183701
-0.167356
-0.141528
-0.111047
-0.0800498
-0.0512395
-0.0258087
-0.00398822
0.0144471
0.0298745
0.0426843
0.0532318
0.0618287
0.0687455
0.0742165
0.0784452
0.0816088
0.0838645
0.0853483
0.0861599
0.0863847
0.0862913
0.0863269
0.0851361
-0.161544
-0.156512
-0.140477
-0.115298
-0.0857042
-0.0558519
-0.0283205
-0.00420123
0.0163365
0.0335473
0.0478184
0.0595409
0.0690683
0.0767089
0.0827298
0.0873618
0.0908048
0.0932331
0.0948
0.0956341
0.0958289
0.0954896
0.0948965
0.0943888
0.0925708
-0.132567
-0.128425
-0.11278
-0.088314
-0.0597349
-0.0311326
-0.00496762
0.0177685
0.0369643
0.0529004
0.0659717
0.0765694
0.0850436
0.0916991
0.0967989
0.10057
0.103209
0.104885
0.105749
0.105918
0.105483
0.10458
0.103474
0.102271
0.0995401
-0.102861
-0.0994302
-0.084334
-0.060677
-0.0332244
-0.00596976
0.0187494
0.040038
0.057839
0.0724556
0.0842887
0.093728
0.10112
0.106765
0.110922
0.113813
0.115631
0.116542
0.11669
0.116183
0.115117
0.113664
0.112006
0.109836
0.105822
-0.0724289
-0.0696951
-0.0552364
-0.0324858
-0.00626173
0.0195568
0.0427589
0.0625431
0.0789027
0.0921606
0.102722
0.110974
0.117259
0.121872
0.125067
0.127062
0.128046
0.128181
0.127603
0.126414
0.124724
0.122736
0.120465
0.117148
0.112113
-0.0413535
-0.0393559
-0.0255932
-0.00384104
0.0210615
0.0453648
0.0669874
0.0852178
0.100096
0.111962
0.121223
0.128263
0.133419
0.136982
0.139201
0.140288
0.140427
0.139776
0.138465
0.136592
0.134287
0.131756
0.128793
0.124402
0.120499
-0.0097586
-0.00852647
0.00448553
0.0251544
0.0486519
0.0713708
0.09136
0.107995
0.121358
0.131805
0.139742
0.145551
0.149562
0.152061
0.153291
0.153459
0.152746
0.151304
0.149255
0.146699
0.143779
0.140666
0.137005
0.132021
0.128834
0.0222322
0.0226784
0.0348872
0.0543957
0.0764145
0.0974895
0.115801
0.130806
0.142628
0.151634
0.15823
0.162791
0.165645
0.167069
0.167302
0.166546
0.164976
0.162738
0.159951
0.156714
0.153176
0.149462
0.145166
0.139796
0.136712
0.0544956
0.0541408
0.0654974
0.083777
0.104254
0.123635
0.140232
0.153583
0.163844
0.171392
0.176634
0.179939
0.181627
0.18197
0.181201
0.179517
0.177087
0.174053
0.170528
0.166613
0.162453
0.158138
0.153268
0.147569
0.144313
0.0869076
0.0857412
0.0962008
0.113192
0.132073
0.149722
0.164578
0.176255
0.184942
0.191023
0.194904
0.196947
0.197465
0.196725
0.194954
0.192341
0.189052
0.185222
0.180963
0.176373
0.17159
0.16668
0.161273
0.155229
0.151661
0.119343
0.117358
0.126882
0.142533
0.159776
0.175663
0.18876
0.198752
0.205859
0.210471
0.212988
0.213768
0.213118
0.211296
0.208524
0.204986
0.200842
0.196221
0.191232
0.185971
0.180567
0.175074
0.16915
0.162738
0.158782
0.151676
0.148871
0.157424
0.171695
0.187267
0.201372
0.212701
0.221006
0.226533
0.229678
0.230835
0.230357
0.228543
0.225645
0.221878
0.217422
0.212428
0.207023
0.201311
0.195385
0.189366
0.183299
0.176868
0.170071
0.165686
0.183783
0.180157
0.187713
0.200571
0.21445
0.226764
0.236324
0.242947
0.246902
0.248587
0.248394
0.246667
0.243698
0.239734
0.234982
0.229615
0.223782
0.217602
0.211176
0.204593
0.197967
0.191336
0.184405
0.177213
0.172373
0.215539
0.211097
0.217634
0.229057
0.241231
0.251754
0.259553
0.264506
0.266903
0.267143
0.265614
0.262652
0.258542
0.253525
0.2478
0.241537
0.234875
0.227933
0.220803
0.213573
0.206351
0.199165
0.191743
0.18415
0.178842
0.246821
0.24157
0.247075
0.257049
0.267518
0.276258
0.282313
0.285615
0.286474
0.28529
0.282444
0.278266
0.273034
0.266981
0.2603
0.253155
0.245681
0.23799
0.23017
0.222306
0.214497
0.206768
0.198863
0.190872
0.185086
0.277508
0.271459
0.275925
0.284447
0.293217
0.300194
0.304529
0.306209
0.305557
0.302974
0.298837
0.293466
0.287133
0.280065
0.272449
0.264441
0.256172
0.247748
0.239254
0.23077
0.222388
0.214128
0.205752
0.197366
0.191099
0.307481
0.300649
0.304075
0.311151
0.318242
0.323483
0.326131
0.326221
0.324091
0.320142
0.314742
0.308207
0.3008
0.292742
0.284213
0.275365
0.266321
0.257184
0.248033
0.238945
0.230006
0.221229
0.212395
0.203621
0.196874
0.336626
0.329027
0.33142
0.337065
0.342504
0.346046
0.347048
0.345589
0.34202
0.336741
0.330114
0.322447
0.313997
0.304977
0.295562
0.285897
0.276102
0.266273
0.256487
0.246813
0.237333
0.228055
0.218778
0.209626
0.202402
0.364829
0.356485
0.357858
0.362096
0.365921
0.367808
0.367211
0.36425
0.359288
0.352722
0.344907
0.336144
0.326685
0.316735
0.306464
0.296012
0.285491
0.274994
0.264593
0.254355
0.244353
0.234592
0.224888
0.21537
0.207676
0.391981
0.382916
0.38329
0.386155
0.38841
0.388696
0.386555
0.382146
0.375841
0.368034
0.359076
0.349259
0.338829
0.327985
0.316891
0.305681
0.294463
0.283324
0.272334
0.261552
0.251048
0.240824
0.230712
0.22084
0.212688
0.417979
0.408221
0.407621
0.409154
0.409894
0.408639
0.405017
0.399219
0.391628
0.382633
0.372579
0.361754
0.350394
0.338695
0.326813
0.314879
0.302994
0.291243
0.279688
0.268389
0.257405
0.246738
0.236237
0.226027
0.217429
0.442721
0.432301
0.430762
0.431011
0.430299
0.427572
0.422535
0.415415
0.406598
0.396472
0.385376
0.373591
0.361348
0.348835
0.336205
0.323581
0.311063
0.298729
0.28664
0.274848
0.263409
0.252321
0.241452
0.23092
0.221891
0.466114
0.455065
0.452625
0.451649
0.449555
0.445431
0.439054
0.430682
0.420705
0.40951
0.397429
0.384736
0.371657
0.358375
0.345038
0.331765
0.318649
0.305765
0.29317
0.280913
0.269044
0.25756
0.246346
0.235508
0.226067
0.488068
0.476426
0.473131
0.470994
0.467595
0.462155
0.454519
0.44497
0.433905
0.421706
0.4087
0.395156
0.381293
0.367291
0.353291
0.339407
0.325731
0.312332
0.299263
0.286571
0.274299
0.262444
0.250906
0.239783
0.22995
0.508499
0.496302
0.492203
0.488977
0.484358
0.477689
0.46888
0.458235
0.446157
0.433023
0.419156
0.40482
0.390228
0.375555
0.360939
0.346488
0.332291
0.318413
0.304905
0.291808
0.279161
0.266962
0.255125
0.243735
0.233534
0.527328
0.514619
0.509771
0.505534
0.499785
0.491981
0.482089
0.470433
0.457421
0.443426
0.428765
0.413699
0.398436
0.383145
0.367961
0.352989
0.338312
0.323993
0.310079
0.29661
0.283619
0.271103
0.258991
0.247355
0.236812
0.544484
0.531307
0.525771
0.520606
0.513823
0.504984
0.494103
0.481526
0.467662
0.452882
0.437499
0.421768
0.405893
0.39004
0.374338
0.358891
0.343777
0.329057
0.314775
0.300966
0.287661
0.274858
0.262497
0.250637
0.239778
0.559901
0.546303
0.540143
0.53414
0.526425
0.516652
0.504883
0.491478
0.476848
0.461363
0.44533
0.429001
0.412577
0.396218
0.380052
0.364178
0.348672
0.333592
0.318979
0.304866
0.291279
0.278218
0.265633
0.253572
0.242428
0.573521
0.559549
0.552836
0.546089
0.537547
0.526949
0.514393
0.500256
0.48495
0.468842
0.452235
0.435378
0.418469
0.401664
0.385088
0.368837
0.352984
0.337586
0.322681
0.308299
0.294464
0.281175
0.268394
0.256155
0.244756
0.585292
0.570997
0.563801
0.556409
0.547152
0.535839
0.522603
0.507833
0.491943
0.475295
0.458193
0.44088
0.423551
0.406361
0.38943
0.372854
0.356702
0.341029
0.325872
0.311258
0.297208
0.283722
0.270773
0.258379
0.24676
0.595169
0.580602
0.573001
0.565064
0.555205
0.543292
0.529486
0.514185
0.497803
0.480704
0.463186
0.44549
0.427809
0.410295
0.393068
0.376218
0.359816
0.343912
0.328543
0.313735
0.299505
0.285855
0.272763
0.26024
0.248435
0.603114
0.588328
0.580399
0.572024
0.56168
0.549284
0.535019
0.51929
0.502514
0.485051
0.467198
0.449194
0.43123
0.413456
0.39599
0.37892
0.362316
0.346228
0.330689
0.315724
0.301349
0.287566
0.274361
0.261734
0.249778
0.609098
0.594147
0.585971
0.577264
0.566555
0.553794
0.539183
0.523132
0.506059
0.488322
0.470217
0.451982
0.433805
0.415835
0.398188
0.380954
0.364198
0.347969
0.332303
0.31722
0.302736
0.288854
0.275563
0.262858
0.250787
0.613098
0.598037
0.589694
0.580766
0.569813
0.556808
0.541966
0.5257
0.508428
0.490508
0.472235
0.453844
0.435525
0.417424
0.399657
0.382312
0.365454
0.349133
0.333381
0.31822
0.303663
0.289714
0.276365
0.263608
0.251461
0.615099
0.599982
0.591557
0.582518
0.571442
0.558316
0.543358
0.526984
0.509613
0.491602
0.473244
0.454776
0.436386
0.418219
0.400392
0.382992
0.366083
0.349715
0.33392
0.31872
0.304126
0.290144
0.276767
0.263983
0.251798
0.615093
0.599976
0.591551
0.582513
0.571437
0.558312
0.543355
0.526982
0.50961
0.4916
0.473242