/*--------------------------------*- C++ -*----------------------------------*\
  =========                 |
  \\      /  F ield         | OpenFOAM: The Open Source CFD Toolbox
   \\    /   O peration     | Website:  https://openfoam.org
    \\  /    A nd           | Version:  7
     \\/     M anipulation  |
\*---------------------------------------------------------------------------*/
FoamFile
{
    version     2.0;
    format      ascii;
    class       volVectorField;
    location    "75";
    object      U;
}
// * * * * * * * * * * * * * * * * * * * * * * * * * * * * * * * * * * * * * //

dimensions      [0 1 -1 0 0 0 0];

internalField   nonuniform List<vector> 
31800
(
(-0.000518172 0.000225182 -9.0219e-21)
(-0.00322509 0.000483353 6.23125e-21)
(-0.00864606 0.000588012 -2.02959e-21)
(-0.0156595 0.000583872 9.01339e-21)
(-0.0238301 0.000500202 1.00664e-20)
(-0.0327986 0.00035906 -3.29752e-21)
(-0.0422493 0.000176015 -2.38287e-21)
(-0.0519361 -3.93823e-05 1.68466e-20)
(-0.0616687 -0.00028229 -1.91805e-21)
(-0.0713018 -0.000551149 2.75443e-21)
(-0.080728 -0.000846298 9.44313e-21)
(-0.0898682 -0.00116875 9.24242e-21)
(-0.0986645 -0.00151933 -5.83264e-21)
(-0.107073 -0.00189805 -7.24426e-21)
(-0.115058 -0.0023038 -2.47153e-22)
(-0.122587 -0.00273396 -9.23232e-21)
(-0.129631 -0.00318398 7.16541e-21)
(-0.13616 -0.00364666 1.20663e-20)
(-0.142149 -0.00411108 -4.50627e-21)
(-0.147584 -0.00456136 2.0397e-20)
(-0.152472 -0.00497534 1.29017e-21)
(-0.156855 -0.00532363 -1.64172e-21)
(-0.160834 -0.00557139 3.58092e-21)
(-0.164535 -0.00568354 7.27315e-21)
(-0.168195 -0.00560751 4.51233e-21)
(-0.000561814 0.00125381 9.28876e-21)
(-0.00332408 0.00306733 5.08403e-21)
(-0.00876952 0.00433222 -5.47601e-21)
(-0.0157858 0.00517268 -2.0802e-20)
(-0.0239419 0.00567334 1.53567e-20)
(-0.0328815 0.0059052 -7.51343e-21)
(-0.0422914 0.00592691 4.14478e-22)
(-0.0519273 0.00578491 -1.292e-20)
(-0.0615997 0.00551514 2.69299e-21)
(-0.0711646 0.00514464 1.82862e-21)
(-0.0805147 0.0046932 -3.96518e-20)
(-0.0895714 0.00417487 -6.69396e-22)
(-0.0982768 0.0035994 4.43277e-20)
(-0.106587 0.00297343 -2.22729e-20)
(-0.114466 0.00230173 -4.21597e-21)
(-0.121882 0.0015885 9.16325e-21)
(-0.128803 0.000839058 -1.92309e-20)
(-0.135199 6.20879e-05 -9.62674e-22)
(-0.141044 -0.000727382 1.89442e-20)
(-0.146319 -0.00150445 -6.93853e-20)
(-0.151026 -0.00223062 -2.14771e-20)
(-0.155202 -0.00285065 3.24327e-20)
(-0.158944 -0.0032964 1.59629e-20)
(-0.162363 -0.00350253 2.83322e-21)
(-0.165689 -0.00336496 -6.42437e-21)
(-0.000654491 0.00226983 -1.92543e-20)
(-0.00353297 0.00562212 -5.27463e-22)
(-0.00902561 0.00803708 -2.61719e-20)
(-0.0160416 0.0097161 3.90444e-20)
(-0.0241592 0.0107979 -4.4209e-20)
(-0.0330293 0.0114016 -4.13238e-21)
(-0.0423441 0.0116281 -4.01128e-21)
(-0.0518632 0.0115604 7.33354e-21)
(-0.0613997 0.0112652 2.42681e-20)
(-0.0708113 0.010795 -4.12025e-21)
(-0.0799919 0.0101895 -7.27076e-21)
(-0.0888633 0.00947788 2.61804e-20)
(-0.0973677 0.00868038 -4.60707e-21)
(-0.105461 0.00781036 2.5424e-20)
(-0.113107 0.00687617 -5.14314e-20)
(-0.120272 0.00588344 -2.101e-20)
(-0.126924 0.00483791 3.38364e-21)
(-0.133031 0.00374912 -6.87787e-20)
(-0.138561 0.00263522 1.87674e-20)
(-0.143491 0.00152888 4.2258e-20)
(-0.147811 0.000483678 -2.66478e-20)
(-0.151548 -0.000419882 -6.40588e-20)
(-0.154789 -0.00107857 -3.19289e-20)
(-0.157623 -0.00139182 -5.94645e-20)
(-0.160249 -0.00119984 -3.24732e-20)
(-0.000794704 0.00326311 8.9652e-21)
(-0.00384872 0.00812408 -1.49423e-20)
(-0.00941098 0.0116705 4.75415e-20)
(-0.0164237 0.014177 -3.80389e-20)
(-0.0244796 0.0158342 -9.90779e-21)
(-0.0332403 0.0168073 -2.6337e-21)
(-0.0424064 0.0172386 3.11378e-20)
(-0.0517433 0.0172468 2.20781e-20)
(-0.0610684 0.0169287 -3.89897e-20)
(-0.070242 0.0163619 1.6346e-20)
(-0.0791595 0.015606 9.95928e-22)
(-0.0877434 0.0147052 -7.3637e-20)
(-0.095936 0.0136902 -2.41639e-20)
(-0.103693 0.0125812 1.95823e-21)
(-0.110977 0.01139 1.61006e-20)
(-0.117753 0.0101236 7.33369e-20)
(-0.123988 0.00878768 8.12887e-21)
(-0.129646 0.00739164 6.94079e-20)
(-0.134689 0.00595527 6.92583e-20)
(-0.139085 0.00451692 -8.53453e-21)
(-0.142812 0.00314302 3.10901e-20)
(-0.145877 0.00193796 -1.18627e-20)
(-0.148357 0.00104243 3.93728e-20)
(-0.150305 0.000600557 1.3107e-19)
(-0.151856 0.000833856 2.04399e-20)
(-0.000980162 0.00422398 1.52567e-20)
(-0.00426669 0.0105506 -5.5501e-20)
(-0.00992053 0.0152017 7.16275e-20)
(-0.0169275 0.0185196 2.6402e-20)
(-0.0248994 0.0207433 2.06931e-20)
(-0.0335119 0.0220822 2.20093e-20)
(-0.0424767 0.0227182 -1.17081e-19)
(-0.0515671 0.022804 4.35388e-20)
(-0.0606059 0.0224665 4.52911e-20)
(-0.0694569 0.0218073 -6.69178e-20)
(-0.0780176 0.0209059 6.92886e-20)
(-0.0862113 0.0198212 3.78863e-20)
(-0.0939804 0.0185948 4.68627e-20)
(-0.10128 0.0172536 -3.17374e-20)
(-0.108071 0.015813 -7.04105e-21)
(-0.114317 0.014281 1.54105e-19)
(-0.119983 0.0126628 -6.65216e-20)
(-0.125027 0.0109667 5.15146e-20)
(-0.129407 0.00921198 -1.24592e-19)
(-0.133079 0.00743995 -5.02081e-20)
(-0.136003 0.0057265 4.75668e-20)
(-0.138165 0.00419721 8.30103e-20)
(-0.139623 0.00303235 1.40307e-20)
(-0.140389 0.00243119 -1.07777e-19)
(-0.140479 0.00268467 -7.54664e-20)
(-0.00120786 0.0051435 -6.0013e-20)
(-0.00478075 0.0128804 -1.93779e-20)
(-0.0105475 0.0186014 -4.24817e-20)
(-0.017547 0.0227094 -4.112e-20)
(-0.0254138 0.025488 2.95023e-20)
(-0.0338407 0.0271875 -5.2715e-20)
(-0.042553 0.0280271 -3.42018e-20)
(-0.0513336 0.0281927 -1.69958e-19)
(-0.060012 0.0278394 7.45609e-21)
(-0.0684564 0.0270929 -1.73284e-21)
(-0.0765665 0.0260518 -1.3031e-19)
(-0.0842667 0.02479 -4.44451e-20)
(-0.0914991 0.0233596 -5.51964e-20)
(-0.0982172 0.0217943 1.06778e-19)
(-0.104381 0.0201136 3.07894e-20)
(-0.109953 0.0183263 -8.40371e-20)
(-0.114891 0.0164367 -9.3729e-20)
(-0.119153 0.0144506 2.59817e-20)
(-0.122686 0.012385 1.02787e-19)
(-0.125437 0.0102805 -2.22304e-20)
(-0.127345 0.00821781 -1.34159e-20)
(-0.128368 0.00633917 -6.32005e-20)
(-0.128543 0.00486482 -7.9572e-20)
(-0.12784 0.00406376 6.49892e-20)
(-0.126053 0.00430354 4.39899e-20)
(-0.00147416 0.00601358 3.11563e-20)
(-0.00538347 0.0150942 3.66473e-20)
(-0.0112838 0.0218425 -2.89019e-20)
(-0.0182747 0.0267142 -5.97786e-20)
(-0.0260167 0.0300325 9.30479e-21)
(-0.0342225 0.0320855 7.01286e-20)
(-0.0426327 0.033127 1.00798e-19)
(-0.0510416 0.033374 1.37654e-19)
(-0.0592864 0.0330089 2.40144e-20)
(-0.0672404 0.0321805 3.17041e-20)
(-0.074806 0.0310063 3.84718e-20)
(-0.0819083 0.0295747 1.47288e-19)
(-0.088489 0.0279486 -8.49305e-21)
(-0.0945001 0.026169 -1.88892e-19)
(-0.0998991 0.024259 1.36124e-19)
(-0.104644 0.0222288 5.41065e-20)
(-0.108692 0.0200812 1.71328e-19)
(-0.111993 0.0178189 -7.00662e-20)
(-0.114487 0.0154541 -8.0659e-20)
(-0.116109 0.013023 2.29948e-19)
(-0.116779 0.0106057 -7.71761e-20)
(-0.116421 0.00835382 -1.17697e-19)
(-0.115044 0.00652445 -3.13657e-20)
(-0.112595 0.00547259 -9.85509e-20)
(-0.108476 0.00564188 1.64391e-20)
(-0.00177493 0.00682719 7.74764e-21)
(-0.00606634 0.0171746 -1.52429e-20)
(-0.0121199 0.0249006 3.10975e-21)
(-0.0191018 0.0305042 -1.08895e-19)
(-0.0267011 0.0343436 -8.44968e-20)
(-0.0346519 0.0367405 -1.59512e-20)
(-0.0427123 0.0379805 -4.12187e-20)
(-0.0506891 0.0383099 -7.4967e-20)
(-0.0584283 0.0379368 -1.68806e-20)
(-0.0658084 0.0370321 -8.37658e-21)
(-0.0727351 0.0357315 -7.94348e-20)
(-0.0791341 0.0341381 3.43514e-20)
(-0.084946 0.0323255 2.58423e-20)
(-0.0901204 0.0303418 1.3873e-19)
(-0.0946114 0.0282147 -2.8148e-21)
(-0.0983735 0.0259556 -8.38939e-20)
(-0.101358 0.0235661 -9.11053e-21)
(-0.103508 0.0210449 3.62495e-20)
(-0.104757 0.018398 1.48501e-19)
(-0.105028 0.0156533 -1.10199e-19)
(-0.104221 0.0128836 2.89907e-19)
(-0.102225 0.010241 1.20732e-19)
(-0.0990144 0.00801039 -9.09735e-20)
(-0.0945581 0.00664812 1.75722e-19)
(-0.0875903 0.00665415 1.01643e-19)
(-0.00210567 0.00757848 9.4966e-21)
(-0.00682001 0.019107 4.81128e-20)
(-0.0130453 0.0277538 1.36502e-19)
(-0.0200187 0.0340525 1.70056e-19)
(-0.0274587 0.0383904 1.01103e-19)
(-0.0351228 0.0411188 -7.09572e-20)
(-0.0427875 0.0425522 1.72746e-19)
(-0.0502732 0.0429636 1.95831e-20)
(-0.0574354 0.0425854 -1.03113e-19)
(-0.0641586 0.0416095 1.13202e-20)
(-0.0703513 0.0401895 1.91183e-19)
(-0.0759398 0.0384424 -2.04241e-19)
(-0.0808628 0.0364525 -1.16571e-19)
(-0.0850667 0.0342759 -2.36667e-20)
(-0.0885009 0.0319445 -1.91009e-19)
(-0.0911141 0.029472 -1.24432e-19)
(-0.0928508 0.0268587 2.20544e-20)
(-0.0936476 0.0240997 -2.58897e-19)
(-0.0934291 0.0211933 2.58854e-20)
(-0.0921042 0.0181564 -1.2365e-19)
(-0.0895596 0.0150483 -1.52963e-19)
(-0.0856472 0.0120105 1.42217e-19)
(-0.0802886 0.00933867 1.59569e-19)
(-0.0735872 0.00760248 -1.23981e-19)
(-0.0631725 0.00731549 1.70066e-19)
(-0.00246163 0.00826286 -1.14191e-19)
(-0.00763457 0.0208791 8.37454e-20)
(-0.0140488 0.0303839 -6.10464e-21)
(-0.0210144 0.0373354 3.34894e-20)
(-0.0282804 0.042145 3.16899e-20)
(-0.0356277 0.0451893 1.42148e-19)
(-0.0428526 0.0468083 -1.03137e-19)
(-0.0497896 0.0472997 -1.92226e-19)
(-0.0563043 0.0469181 9.62817e-20)
(-0.0622873 0.0458756 8.98455e-20)
(-0.0676499 0.0443423 -3.03256e-19)
(-0.0723184 0.0424493 2.13193e-19)
(-0.076229 0.0402917 3.23596e-19)
(-0.0793232 0.0379332 2.20514e-20)
(-0.0815442 0.035411 -5.7043e-20)
(-0.082833 0.0327411 1.63622e-19)
(-0.0831256 0.0299241 -7.54309e-20)
(-0.0823489 0.0269514 3.37621e-19)
(-0.080417 0.0238139 -2.97433e-19)
(-0.0772266 0.0205157 5.39969e-20)
(-0.0726496 0.0170973 -2.80106e-20)
(-0.0665081 0.0136792 -9.09759e-20)
(-0.0586373 0.0105393 -8.8108e-20)
(-0.0494728 0.00836044 7.23807e-20)
(-0.0349528 0.00772566 1.84013e-20)
(-0.00283801 0.00887707 7.45883e-20)
(-0.00849978 0.0224817 -5.36879e-20)
(-0.0151187 0.0327755 4.43582e-20)
(-0.0220776 0.0403326 -1.49412e-19)
(-0.0291558 0.0455827 -3.30232e-20)
(-0.036158 0.0489234 1.67902e-20)
(-0.0429003 0.0507174 -3.8002e-20)
(-0.0492321 0.0512843 -6.28894e-20)
(-0.0550288 0.0508995 1.97886e-20)
(-0.0601878 0.0497935 -1.05035e-19)
(-0.0646225 0.0481526 1.95797e-19)
(-0.0682586 0.046121 -4.49868e-20)
(-0.0710283 0.0438046 -1.14925e-19)
(-0.0728671 0.041275 -1.17616e-19)
(-0.0737096 0.0385754 1.55677e-19)
(-0.0734868 0.035725 8.43486e-20)
(-0.0721228 0.0327252 3.35514e-20)
(-0.0695322 0.0295653 -2.81537e-19)
(-0.0656158 0.02623 2.93191e-19)
(-0.0602563 0.0227107 -9.5741e-20)
(-0.0533111 0.0190261 -4.44874e-20)
(-0.044587 0.0152681 -3.43306e-20)
(-0.0337682 0.011658 -3.79672e-20)
(-0.0218503 0.00891902 1.22516e-19)
(-0.00269366 0.00822815 -1.99745e-19)
(-0.00323004 0.00941923 -2.77119e-20)
(-0.00940536 0.0239082 1.1981e-19)
(-0.0162427 0.0349173 -1.71286e-19)
(-0.0231961 0.0430275 6.86873e-20)
(-0.0300737 0.0486819 3.79119e-20)
(-0.0367034 0.0522957 -5.74279e-20)
(-0.0429214 0.0542506 1.67336e-19)
(-0.0485916 0.0548859 4.06378e-20)
(-0.0536 0.0544958 1.90693e-20)
(-0.0578495 0.0533279 1.64291e-19)
(-0.0612558 0.0515837 -6.7331e-20)
(-0.0637427 0.04942 7.12063e-20)
(-0.0652373 0.0469532 -7.56882e-20)
(-0.0656666 0.0442632 -4.80689e-21)
(-0.0649543 0.0413993 -8.24853e-20)
(-0.063018 0.0383851 -2.85263e-19)
(-0.0597667 0.035224 5.87338e-20)
(-0.0550982 0.0319051 2.27526e-19)
(-0.0488961 0.028409 -7.84181e-20)
(-0.0410257 0.0247168 3.79126e-19)
(-0.0313259 0.0208255 -2.10093e-19)
(-0.0196174 0.0167983 -5.99037e-20)
(-0.00537313 0.0127817 -1.00499e-19)
(0.00984165 0.00938787 3.05131e-21)
(0.0340873 0.0086435 -8.95464e-20)
(-0.0036332 0.00988879 -8.30043e-20)
(-0.0103412 0.025155 -1.23497e-19)
(-0.0174087 0.0368011 -6.63699e-20)
(-0.0243571 0.0454071 6.23775e-20)
(-0.0310214 0.0514251 1.94912e-20)
(-0.0372519 0.0552839 1.12601e-20)
(-0.042904 0.0573818 4.30328e-20)
(-0.047856 0.0580752 -2.09658e-19)
(-0.052004 0.0576752 6.9338e-20)
(-0.0552563 0.0564452 -1.43553e-19)
(-0.0575298 0.0546006 -5.20539e-20)
(-0.058745 0.0523104 -7.02442e-20)
(-0.058822 0.049701 -1.48742e-19)
(-0.0576772 0.0468607 3.05696e-19)
(-0.05522 0.0438455 1.73366e-19)
(-0.0513511 0.0406842 4.66198e-20)
(-0.0459596 0.0373839 1.45435e-19)
(-0.0389219 0.0339352 -2.1033e-19)
(-0.0300986 0.0303179 -5.17414e-20)
(-0.0193334 0.0265067 -2.4641e-19)
(-0.0064355 0.0224819 9.48962e-20)
(0.00873337 0.018283 2.08324e-19)
(0.0269499 0.0139556 9.50517e-20)
(0.0458728 0.0100118 -1.79174e-19)
(0.0763551 0.00881879 2.23089e-19)
(-0.0040433 0.0102865 -2.96019e-20)
(-0.0112978 0.0262215 7.74862e-21)
(-0.0186045 0.0384224 8.40374e-20)
(-0.0255472 0.0474622 1.50069e-19)
(-0.0319851 0.053798 -1.00453e-19)
(-0.037789 0.0578694 9.68825e-20)
(-0.0428328 0.0600882 -7.60049e-20)
(-0.0470086 0.0608259 2.8713e-19)
(-0.0502216 0.0604087 -2.01272e-19)
(-0.052385 0.0591142 4.33006e-20)
(-0.0534154 0.0571707 1.86842e-19)
(-0.0532285 0.0547585 -2.57931e-20)
(-0.0517351 0.0520138 2.00476e-20)
(-0.0488378 0.0490333 -2.48539e-19)
(-0.0444285 0.0458801 -2.10602e-19)
(-0.0383862 0.042589 -8.03897e-21)
(-0.0305756 0.0391722 -2.31877e-19)
(-0.0208454 0.0356245 8.475e-20)
(-0.00902708 0.0319278 -1.18045e-19)
(0.00506166 0.0280558 1.54219e-19)
(0.0216589 0.0239787 -2.08181e-19)
(0.0408104 0.0197203 1.24791e-19)
(0.0637355 0.0152116 -1.04083e-19)
(0.0866522 0.0109478 1.40699e-19)
(0.124734 0.00914432 -8.2067e-21)
(-0.00445659 0.0106143 1.62094e-19)
(-0.012266 0.0271093 4.11487e-20)
(-0.0198182 0.0397802 -9.31083e-20)
(-0.0267525 0.0491875 -1.1175e-19)
(-0.0329491 0.0557906 7.54152e-20)
(-0.0382974 0.0600371 -2.76497e-19)
(-0.0426883 0.0623505 3.94154e-19)
(-0.0460268 0.0631151 7.67035e-20)
(-0.0482261 0.0626705 1.27088e-19)
(-0.0492029 0.061307 1.55283e-19)
(-0.0488719 0.0592646 9.7871e-20)
(-0.0471418 0.0567343 -7.3336e-20)
(-0.0439113 0.0538615 -2.49616e-21)
(-0.0390658 0.0507515 -3.58673e-20)
(-0.0324753 0.0474746 -1.07024e-19)
(-0.0239926 0.0440728 2.39742e-19)
(-0.013452 0.0405649 4.88546e-19)
(-0.000668849 0.0369516 2.90758e-20)
(0.0145613 0.0332206 1.68388e-19)
(0.0324488 0.0293497 -8.7532e-20)
(0.0533062 0.0253088 1.0585e-19)
(0.0769958 0.0211139 -6.2091e-19)
(0.105495 0.0166228 2.94229e-19)
(0.132673 0.0122053 1.81339e-19)
(0.179859 0.00997233 -1.20262e-19)
(-0.00486988 0.0108753 -9.72268e-20)
(-0.0132376 0.0278228 -1.67181e-19)
(-0.021038 0.0408763 1.60404e-19)
(-0.0279582 0.0505809 1.05067e-19)
(-0.0338958 0.0573961 5.65203e-20)
(-0.0387565 0.061776 1.99998e-19)
(-0.0424462 0.0641533 -2.07531e-19)
(-0.0448813 0.0649238 -1.91379e-19)
(-0.0459818 0.0644388 -1.25621e-19)
(-0.0456658 0.0629998 -2.94987e-19)
(-0.0438441 0.0608576 5.70569e-20)
(-0.0404156 0.0582128 -2.32701e-20)
(-0.0352633 0.05522 4.20416e-19)
(-0.0282514 0.0519927 1.73104e-19)
(-0.0192234 0.0486094 1.24385e-19)
(-0.00800038 0.0451198 -3.90669e-20)
(0.00561904 0.0415506 -2.23994e-19)
(0.0218587 0.0379109 -1.81295e-19)
(0.0409652 0.0341973 -2.11946e-19)
(0.0631737 0.030396 1.51691e-19)
(0.088909 0.0264888 2.85614e-19)
(0.117709 0.022476 3.1888e-19)
(0.152744 0.0182617 -3.00068e-19)
(0.184378 0.013832 1.28998e-19)
(0.242297 0.0115963 1.72337e-19)
(-0.00528059 0.0110733 -2.56101e-19)
(-0.0142051 0.0283681 1.42558e-19)
(-0.0222522 0.0417158 -2.4316e-19)
(-0.0291486 0.0516441 2.98842e-19)
(-0.0348051 0.0586121 -2.85573e-19)
(-0.0391411 0.0630789 -8.5485e-20)
(-0.0420755 0.0654855 -1.5929e-19)
(-0.0435341 0.0662376 8.95685e-20)
(-0.0434415 0.0656966 -1.5337e-19)
(-0.0417151 0.0641741 1.67726e-19)
(-0.0382588 0.0619306 -2.19999e-19)
(-0.032958 0.0591758 -1.63196e-19)
(-0.0256762 0.056073 5.73906e-21)
(-0.0162516 0.0527443 -2.50462e-19)
(-0.00449593 0.0492766 5.30841e-21)
(0.0098068 0.0457285 -2.53395e-19)
(0.026899 0.0421363 -1.55611e-20)
(0.0470477 0.0385196 -2.76163e-19)
(0.0705467 0.0348871 9.64945e-20)
(0.0976429 0.0312345 4.19529e-19)
(0.128922 0.0275764 -4.03181e-19)
(0.163395 0.0238469 1.97679e-19)
(0.205969 0.0202291 2.16726e-19)
(0.242132 0.015879 -1.0368e-19)
(0.312385 0.0142761 4.15978e-20)
(-0.00568674 0.0112129 1.32719e-19)
(-0.0151618 0.0287534 -3.74394e-20)
(-0.0234492 0.042306 8.24482e-20)
(-0.0303066 0.0523817 -2.40402e-19)
(-0.0356539 0.0594395 3.85285e-19)
(-0.0394211 0.063943 2.51189e-20)
(-0.0415379 0.0663408 2.78497e-19)
(-0.0419369 0.0670471 -1.45299e-19)
(-0.0405449 0.0664326 9.84644e-20)
(-0.0372751 0.0648179 1.29552e-19)
(-0.0320211 0.0624722 1.18736e-19)
(-0.0246507 0.0596138 3.75734e-19)
(-0.0150029 0.0564148 -9.50371e-20)
(-0.00288455 0.0530059 -9.57679e-20)
(0.0119299 0.0494837 -7.49644e-20)
(0.0296985 0.0459168 -6.68093e-21)
(0.0507088 0.042353 -1.57714e-19)
(0.0752722 0.0388242 1.39238e-19)
(0.103731 0.0353547 -1.86697e-19)
(0.136319 0.031947 7.65929e-20)
(0.173834 0.0286839 -1.08674e-19)
(0.214509 0.0253151 1.4026e-20)
(0.265567 0.0226784 -5.07542e-19)
(0.306201 0.0184184 5.42933e-20)
(0.390053 0.0182236 -1.45247e-21)
(-0.00608696 0.0112994 1.77024e-19)
(-0.0161015 0.0289878 -1.19472e-19)
(-0.0246171 0.0426561 -8.42327e-20)
(-0.0314132 0.0528012 -5.08884e-20)
(-0.0364151 0.0598826 -1.66616e-19)
(-0.0395604 0.0643695 -2.81216e-19)
(-0.0407862 0.0667174 -9.17784e-20)
(-0.0400293 0.0673487 3.13974e-19)
(-0.0372154 0.0666422 -9.80373e-20)
(-0.0322498 0.0649269 -2.11968e-19)
(-0.025011 0.0624799 -1.28073e-19)
(-0.0153444 0.0595282 -3.84242e-19)
(-0.00305867 0.0562526 -4.18646e-19)
(0.012076 0.0527935 3.14432e-19)
(0.0303279 0.0492579 6.46495e-20)
(0.0520011 0.0457266 5.1662e-20)
(0.0774299 0.0422605 5.4011e-19)
(0.106966 0.0389059 8.21406e-20)
(0.140995 0.0357072 5.1757e-19)
(0.179699 0.0326628 -6.19416e-19)
(0.224125 0.029983 2.8937e-19)
(0.271469 0.027034 -2.61155e-19)
(0.331729 0.0258117 4.08693e-19)
(0.376685 0.0215876 -6.12606e-19)
(0.474662 0.0235843 1.26907e-19)
(-0.00648041 0.0113381 -4.48733e-20)
(-0.0170189 0.0290813 -9.54641e-20)
(-0.0257434 0.0427773 -8.79998e-20)
(-0.0324474 0.0529122 2.99851e-20)
(-0.0370574 0.0599493 -4.72249e-20)
(-0.0395153 0.0643639 1.78034e-19)
(-0.0397628 0.0666191 -6.37784e-20)
(-0.0377371 0.0671452 -1.34629e-19)
(-0.0333585 0.0663285 -5.51203e-20)
(-0.0265201 0.0645058 2.76297e-21)
(-0.01708 0.0619623 3.53497e-19)
(-0.00485494 0.0589336 -3.10189e-19)
(0.0103822 0.0556098 4.51088e-19)
(0.0289039 0.0521422 -1.30523e-19)
(0.051025 0.0486501 -2.27233e-19)
(0.0770973 0.0452279 1.88189e-19)
(0.107498 0.0419523 -2.06303e-19)
(0.142609 0.0388855 -3.48476e-19)
(0.18284 0.0360964 -1.29725e-19)
(0.228272 0.0335601 1.21779e-19)
(0.28019 0.0316954 1.9429e-19)
(0.33458 0.0292299 3.76288e-19)
(0.404304 0.0298448 2.15924e-20)
(0.453416 0.0256123 2.59431e-19)
(0.564852 0.0304256 -8.36298e-20)
(-0.00686669 0.0113343 -2.19912e-20)
(-0.0179084 0.0290444 2.08856e-19)
(-0.0268146 0.0426814 2.15677e-19)
(-0.0333849 0.0527266 -9.67177e-20)
(-0.0375438 0.0596503 6.79046e-20)
(-0.039234 0.0639361 -2.52721e-19)
(-0.0383982 0.0660553 5.02761e-20)
(-0.0349699 0.0664463 4.05831e-20)
(-0.0288592 0.065503 -1.18429e-19)
(-0.0199414 0.0635701 -3.26248e-20)
(-0.00804778 0.0609409 -4.43228e-19)
(0.00703932 0.0578602 1.41002e-19)
(0.0255892 0.0545287 -2.12636e-20)
(0.0479213 0.0511101 -5.02984e-21)
(0.0743988 0.0477379 -2.04815e-20)
(0.105418 0.0445226 -3.99573e-21)
(0.141388 0.0415584 -1.80293e-20)
(0.182696 0.0389242 2.41841e-19)
(0.229744 0.0367179 -2.14656e-19)
(0.282449 0.0348624 1.95429e-19)
(0.342245 0.0340688 -2.8772e-19)
(0.40391 0.0321953 -1.38447e-19)
(0.482665 0.034958 3.96776e-20)
(0.535787 0.0307763 -2.22574e-19)
(0.658477 0.0387228 -7.24522e-20)
(-0.00724567 0.0112932 -2.09019e-19)
(-0.0187646 0.0288873 -2.63011e-20)
(-0.0278154 0.0423807 -2.66609e-19)
(-0.034198 0.0522575 -2.14338e-19)
(-0.0378311 0.0589991 2.84026e-19)
(-0.0386554 0.0630999 1.94593e-19)
(-0.03661 0.0650411 -8.59572e-20)
(-0.0316202 0.0652693 -7.70491e-20)
(-0.0235803 0.0641871 -5.74069e-20)
(-0.0123411 0.0621471 4.95992e-19)
(0.00229894 0.0594517 1.90788e-19)
(0.0205987 0.0563559 2.69572e-19)
(0.0428746 0.0530729 -1.49068e-20)
(0.0694949 0.0497806 5.23427e-20)
(0.100868 0.046629 1.45121e-19)
(0.137424 0.0437466 -3.40333e-19)
(0.179582 0.0412462 5.37511e-19)
(0.227694 0.0392219 5.67332e-20)
(0.282092 0.0378024 -1.74918e-19)
(0.342473 0.0368289 -2.63744e-19)
(0.410209 0.0373446 -1.42438e-19)
(0.479137 0.0362557 3.1665e-19)
(0.565617 0.0412555 -1.05753e-20)
(0.622578 0.037338 1.6501e-19)
(0.752686 0.0483345 1.97393e-19)
(-0.00761728 0.0112195 1.59459e-19)
(-0.0195811 0.0286194 1.6695e-20)
(-0.0287286 0.0418878 -3.60556e-20)
(-0.0348544 0.0515193 3.77987e-20)
(-0.0378691 0.0580118 -2.7019e-19)
(-0.0377076 0.0618736 3.59996e-19)
(-0.0343013 0.0635973 -8.55401e-22)
(-0.0275615 0.0636399 2.93607e-19)
(-0.0173606 0.0624126 1.25261e-20)
(-0.00351822 0.0602775 -1.00587e-19)
(0.0142072 0.0575471 1.58545e-19)
(0.036121 0.0544887 -5.328e-19)
(0.0625893 0.0513298 -3.28682e-19)
(0.0940271 0.048265 -1.63874e-19)
(0.130878 0.0454625 -7.06797e-20)
(0.173581 0.0430698 6.38478e-21)
(0.222527 0.0412177 -3.48643e-19)
(0.277976 0.0400102 1.3242e-19)
(0.340097 0.0396014 5.08853e-19)
(0.408305 0.0397342 1.3988e-19)
(0.483601 0.0417275 3.37919e-19)
(0.559395 0.041704 -3.33615e-19)
(0.651399 0.0487462 -7.74742e-20)
(0.711836 0.0454264 -1.31602e-19)
(0.844181 0.0589778 -6.92052e-19)
(-0.00798131 0.0111172 -1.49496e-19)
(-0.0203507 0.0282492 7.58233e-20)
(-0.0295336 0.0412142 1.3486e-19)
(-0.0353168 0.0505271 4.69258e-19)
(-0.0375994 0.0567067 1.76745e-19)
(-0.0363076 0.0602792 -3.92684e-19)
(-0.03136 0.0617514 -9.91264e-20)
(-0.0226482 0.0615919 -5.20244e-20)
(-0.0100154 0.0602225 -1.71537e-19)
(0.00675676 0.058016 -5.61916e-20)
(0.0279556 0.0552973 -1.1637e-19)
(0.0539366 0.0523479 4.25186e-19)
(0.085114 0.049412 5.07958e-19)
(0.12194 0.0467028 2.55752e-19)
(0.16487 0.044408 -1.30661e-19)
(0.214317 0.0426928 -9.16091e-20)
(0.27058 0.0417015 2.01538e-19)
(0.333746 0.0415391 -4.55098e-20)
(0.4037 0.0423655 -3.3864e-21)
(0.479518 0.0438346 1.10411e-19)
(0.561474 0.0473637 -1.58115e-19)
(0.64317 0.0487188 -2.73822e-19)
(0.737779 0.0573387 -1.82404e-19)
(0.800921 0.0549629 2.30735e-19)
(0.929639 0.0702232 7.27532e-19)
(-0.00833714 0.0109892 1.19327e-19)
(-0.0210643 0.0277836 4.05997e-19)
(-0.0302066 0.0403713 1.62426e-19)
(-0.0355415 0.0492961 -1.43891e-19)
(-0.036955 0.0551036 2.00914e-19)
(-0.0343602 0.0583426 2.21369e-19)
(-0.0276584 0.0595367 2.48332e-19)
(-0.0167145 0.0591682 -1.39568e-20)
(-0.00133621 0.0576715 1.95551e-19)
(0.0187396 0.0554326 -6.02527e-19)
(0.0438501 0.0527908 3.41137e-19)
(0.0744003 0.0500446 -1.81504e-19)
(0.110844 0.0474569 -4.59074e-19)
(0.15365 0.0452608 -3.33551e-19)
(0.203251 0.0436621 5.44298e-19)
(0.259971 0.0428396 -1.86722e-19)
(0.323935 0.0429409 -9.20533e-20)
(0.394955 0.0440572 7.09111e-20)
(0.472491 0.0463186 -3.58643e-19)
(0.55521 0.0493234 2.91055e-19)
(0.642385 0.0543239 -4.6868e-20)
(0.728327 0.0572972 3.40393e-19)
(0.822235 0.0668357 3.9328e-19)
(0.886769 0.0656468 -1.34326e-19)
(1.00617 0.0815324 -2.65986e-19)
(-0.00868342 0.0108376 -6.22352e-20)
(-0.0217103 0.0272277 -2.30289e-19)
(-0.0307199 0.0393692 6.0902e-21)
(-0.0354786 0.0478411 -1.16361e-19)
(-0.0358593 0.0532243 -3.43091e-19)
(-0.0317581 0.0560938 -1.77565e-19)
(-0.023053 0.0569929 9.77306e-20)
(-0.00957643 0.0564206 -3.04991e-19)
(0.00890653 0.0548266 2.40803e-20)
(0.032708 0.0526124 1.50297e-19)
(0.0622159 0.0501348 -4.32464e-19)
(0.0978779 0.0477115 -1.42405e-19)
(0.140169 0.0456255 3.6773e-19)
(0.189541 0.0441289 2.48838e-19)
(0.246345 0.0434415 -3.22219e-19)
(0.310735 0.0437454 3.46315e-19)
(0.382558 0.0451748 1.44308e-19)
(0.461225 0.0477859 -3.63377e-20)
(0.54564 0.0516289 -3.13674e-20)
(0.633983 0.0562865 -3.09397e-19)
(0.724433 0.0625838 3.40757e-20)
(0.812275 0.0672326 -5.79702e-20)
(0.902205 0.076933 -3.0785e-19)
(0.966328 0.0770083 -2.26399e-19)
(1.07167 0.092334 -2.09812e-19)
(-0.00901808 0.0106631 -3.91629e-20)
(-0.0222745 0.0265852 -5.12226e-19)
(-0.0310397 0.0382157 -3.16632e-19)
(-0.0350713 0.046177 -4.03903e-19)
(-0.0342265 0.0510919 3.57179e-19)
(-0.0283814 0.0535659 2.87737e-20)
(-0.0173857 0.0541657 2.59187e-19)
(-0.00103262 0.0534099 -2.37169e-19)
(0.02096 0.0517665 3.94894e-19)
(0.0489552 0.0496558 1.48099e-19)
(0.0833865 0.0474546 1.20797e-20)
(0.124729 0.0455013 -2.32826e-20)
(0.173447 0.0440989 -8.22605e-20)
(0.229921 0.0435143 -7.15723e-20)
(0.294342 0.0439719 7.66694e-20)
(0.366594 0.0456407 1.08528e-19)
(0.446117 0.048616 -6.90226e-19)
(0.531795 0.0528897 4.31691e-20)
(0.621878 0.0583802 -1.13904e-19)
(0.713998 0.0646732 -1.05316e-19)
(0.805385 0.0720055 5.28227e-20)
(0.892274 0.0781416 -3.41471e-19)
(0.975382 0.0872409 1.54676e-19)
(1.03704 0.0885182 1.95588e-19)
(1.12504 0.102116 -4.43303e-19)
(-0.00933753 0.0104658 9.15401e-20)
(-0.0227399 0.0258578 3.70783e-19)
(-0.0311276 0.036917 3.1919e-20)
(-0.0342546 0.0443181 5.87019e-19)
(-0.0319608 0.048731 -3.72633e-19)
(-0.0240988 0.0507959 3.65326e-19)
(-0.0104848 0.0511069 -3.27712e-19)
(0.00913195 0.0502057 1.29149e-19)
(0.0350834 0.048582 -1.6686e-19)
(0.0677804 0.0466776 2.20361e-19)
(0.107689 0.0448915 3.65641e-19)
(0.155284 0.0435831 1.89542e-19)
(0.21097 0.0430721 7.59665e-20)
(0.274982 0.0436314 8.3032e-20)
(0.347253 0.0454738 -6.31969e-20)
(0.427269 0.0487309 -5.0846e-20)
(0.513939 0.0534249 5.63076e-19)
(0.605509 0.0594485 1.85119e-19)
(0.69954 0.0665465 5.12346e-19)
(0.793121 0.0742928 1.33628e-20)
(0.882876 0.0823314 -3.21915e-19)
(0.965806 0.089524 4.00609e-19)
(1.04 0.0973488 5.03364e-19)
(1.09714 0.0997194 6.47578e-20)
(1.16608 0.110483 4.358e-19)
(-0.0096368 0.0102442 -2.59791e-19)
(-0.0230849 0.0250445 1.44e-19)
(-0.0309397 0.0354787 3.16476e-19)
(-0.0329564 0.0422788 -1.24479e-19)
(-0.0289573 0.0461672 -3.708e-19)
(-0.0187682 0.047824 -2.73828e-20)
(-0.00216754 0.0478742 2.00539e-20)
(0.0211419 0.0468861 3.59854e-20)
(0.0515407 0.0453744 -2.30888e-19)
(0.0894773 0.0438051 -9.78506e-20)
(0.135427 0.0426003 -3.4151e-19)
(0.189819 0.042138 -8.45521e-21)
(0.252932 0.0427465 -9.60753e-20)
(0.324759 0.0446901 -2.91169e-20)
(0.404854 0.0481457 2.54729e-19)
(0.492179 0.0531743 -3.73197e-19)
(0.584994 0.0596863 1.57063e-19)
(0.680853 0.0674371 -2.48286e-19)
(0.776677 0.0759781 -3.70363e-19)
(0.869129 0.0848356 6.84361e-20)
(0.954684 0.0932048 6.86915e-19)
(1.03092 0.100837 -3.47501e-19)
(1.09503 0.106928 1.51757e-20)
(1.14579 0.110308 2.99756e-19)
(1.19543 0.11707 1.67666e-19)
(-0.00990906 0.00999548 1.22336e-19)
(-0.023284 0.0241432 -1.73806e-19)
(-0.0304256 0.0339047 -3.68458e-19)
(-0.031097 0.0400729 -1.95765e-19)
(-0.0251023 0.0434279 2.14043e-19)
(-0.0122384 0.044694 7.2881e-20)
(0.0077565 0.0445309 4.26053e-19)
(0.0352261 0.0435371 1.7287e-19)
(0.0705917 0.0422551 1.09284e-19)
(0.11432 0.0411769 5.09663e-20)
(0.166857 0.0407459 3.53085e-19)
(0.228527 0.0413523 1.59706e-19)
(0.299391 0.0433199 -1.3224e-19)
(0.379087 0.0468811 1.89204e-19)
(0.466659 0.0521446 -1.09046e-19)
(0.560425 0.0590612 1.38422e-19)
(0.657931 0.0673898 -1.34335e-19)
(0.756056 0.0767171 -2.92158e-19)
(0.851236 0.0864076 4.24379e-19)
(0.939957 0.0959145 -4.43284e-19)
(1.01899 0.104211 1.25109e-19)
(1.08646 0.11158 -1.44343e-19)
(1.14022 0.115834 -1.08816e-19)
(1.18294 0.12 -8.94515e-19)
(1.21448 0.121306 1.42588e-19)
(-0.0101456 0.00971669 2.49658e-20)
(-0.0233074 0.0231505 1.24611e-19)
(-0.0295291 0.0321979 4.13449e-19)
(-0.0285893 0.0377144 -9.75426e-20)
(-0.0202747 0.0405421 -4.24906e-20)
(-0.00435169 0.0414533 7.90825e-20)
(0.0194818 0.041146 7.0511e-20)
(0.0516105 0.0402521 -2.77604e-19)
(0.0924813 0.0393441 -1.28973e-19)
(0.142547 0.0389393 -3.98112e-19)
(0.202172 0.0394977 -3.00632e-19)
(0.271491 0.0414101 -2.14421e-19)
(0.350242 0.0449745 1.91535e-19)
(0.437577 0.0503605 -2.79641e-19)
(0.531906 0.0575688 -1.34604e-19)
(0.630821 0.0663975 -5.89025e-20)
(0.731154 0.0764213 -4.25599e-20)
(0.829235 0.0870449 8.74614e-19)
(0.921271 0.0974793 5.54266e-20)
(1.00391 0.107118 -7.68565e-20)
(1.0746 0.114928 -4.32371e-19)
(1.13213 0.121397 1.40228e-19)
(1.17594 0.124085 1.44394e-20)
(1.20932 0.128135 5.13984e-19)
(1.22595 0.122791 5.76242e-20)
(-0.0103364 0.009404 1.97771e-19)
(-0.0231206 0.0220618 -1.90219e-19)
(-0.0281878 0.0303612 -2.88886e-19)
(-0.0253398 0.0352182 2.90108e-19)
(-0.014347 0.0375409 -6.47518e-20)
(0.00505406 0.038153 -5.61136e-20)
(0.033202 0.037794 4.89729e-20)
(0.0705109 0.0371314 -7.00564e-20)
(0.117428 0.0367681 1.75752e-19)
(0.174346 0.0372435 1.13984e-19)
(0.241474 0.0390245 2.95311e-19)
(0.318658 0.042484 -7.91797e-21)
(0.405185 0.0478649 2.42124e-19)
(0.499597 0.0552349 -1.62406e-20)
(0.599571 0.0644425 2.58416e-19)
(0.70195 0.0750959 7.51761e-20)
(0.802949 0.0865684 -4.8534e-19)
(0.89858 0.0980963 -2.3652e-19)
(0.985152 0.108796 -5.75973e-20)
(1.05985 0.11806 1.55709e-19)
(1.12101 0.12499 -7.37717e-20)
(1.16837 0.130144 -2.61767e-19)
(1.20286 0.131595 3.44925e-20)
(1.22643 0.133835 -2.40946e-19)
(1.23939 0.127951 -1.16495e-19)
(-0.0104689 0.00905299 1.2118e-19)
(-0.0226849 0.0208726 1.29387e-19)
(-0.0263338 0.0283977 2.37085e-19)
(-0.0212492 0.0326008 -1.72683e-19)
(-0.00718746 0.0344585 1.26403e-20)
(0.0161417 0.0348489 3.45898e-19)
(0.0491045 0.034555 -9.9118e-20)
(0.0921246 0.0342813 -3.3088e-19)
(0.145611 0.0346588 -1.96086e-19)
(0.209834 0.0362416 2.62246e-19)
(0.284755 0.0394877 -5.46466e-19)
(0.369813 0.0447255 2.15835e-21)
(0.463718 0.0521053 -4.68867e-20)
(0.564285 0.0615479 3.47148e-19)
(0.668415 0.0727079 -1.88747e-19)
(0.772264 0.0849784 2.59356e-19)
(0.871631 0.0975399 2.62222e-19)
(0.962525 0.109504 -4.62647e-19)
(1.04171 0.119974 -1.93007e-19)
(1.10722 0.128417 -1.59999e-19)
(1.15843 0.13415 2.44127e-19)
(1.19608 0.137843 3.85971e-19)
(1.22194 0.137997 1.79284e-19)
(1.23816 0.138703 -1.59266e-19)
(1.24694 0.132451 -2.86954e-19)
(-0.0105288 0.00865933 -2.86368e-20)
(-0.0219576 0.0195787 1.21192e-19)
(-0.0238943 0.0263117 -2.40786e-19)
(-0.0162136 0.0298807 -3.69699e-19)
(0.00133815 0.0313325 -5.47834e-19)
(0.0290714 0.0316014 9.33618e-20)
(0.0673648 0.0315149 -1.10095e-19)
(0.116621 0.0318132 1.61376e-19)
(0.177157 0.0331504 5.9997e-20)
(0.249043 0.0360819 1.15775e-19)
(0.33188 0.0410339 1.28696e-19)
(0.424576 0.048255 -7.10386e-20)
(0.525136 0.0577583 -1.02804e-19)
(0.630581 0.069272 -2.30936e-19)
(0.737063 0.0822246 7.04785e-20)
(0.840212 0.0957915 -2.75614e-19)
(0.935703 0.108998 1.01628e-19)
(1.01989 0.120903 6.56599e-20)
(1.09033 0.130683 -2.72533e-19)
(1.14607 0.13796 -2.93471e-19)
(1.18754 0.142305 -1.56885e-19)