/*--------------------------------*- C++ -*----------------------------------*\
  =========                 |
  \\      /  F ield         | OpenFOAM: The Open Source CFD Toolbox
   \\    /   O peration     | Website:  https://openfoam.org
    \\  /    A nd           | Version:  7
     \\/     M anipulation  |
\*---------------------------------------------------------------------------*/
FoamFile
{
    version     2.0;
    format      ascii;
    class       volScalarField;
    location    "15";
    object      p;
}
// * * * * * * * * * * * * * * * * * * * * * * * * * * * * * * * * * * * * * //

dimensions      [0 2 -2 0 0 0 0];

internalField   nonuniform List<scalar> 
11300
(
-0.32347
-0.329716
-0.331434
-0.331326
-0.329558
-0.326203
-0.321407
-0.315272
-0.307894
-0.29938
-0.289866
-0.279523
-0.26862
-0.257577
-0.24595
-0.324344
-0.330433
-0.332061
-0.331875
-0.330042
-0.326632
-0.321791
-0.315618
-0.308206
-0.299659
-0.290109
-0.27972
-0.268762
-0.257665
-0.245747
-0.326084
-0.331861
-0.333309
-0.332968
-0.331003
-0.327485
-0.322553
-0.316303
-0.308824
-0.300211
-0.29059
-0.28011
-0.269042
-0.257841
-0.245341
-0.32867
-0.333985
-0.335164
-0.334592
-0.33243
-0.328749
-0.323681
-0.317316
-0.309735
-0.301025
-0.291299
-0.280682
-0.269452
-0.258106
-0.244734
-0.332077
-0.336785
-0.33761
-0.336731
-0.334307
-0.330408
-0.325158
-0.318639
-0.310922
-0.302082
-0.292217
-0.281427
-0.269981
-0.25846
-0.24393
-0.336272
-0.340235
-0.340622
-0.339362
-0.336611
-0.33244
-0.326962
-0.320251
-0.312364
-0.303363
-0.293327
-0.282327
-0.270616
-0.258901
-0.242936
-0.341215
-0.344305
-0.344173
-0.342461
-0.339319
-0.334822
-0.32907
-0.322126
-0.314035
-0.304843
-0.294607
-0.283363
-0.271341
-0.259429
-0.241761
-0.346864
-0.348961
-0.348234
-0.345999
-0.342404
-0.337526
-0.331454
-0.324238
-0.31591
-0.306495
-0.296031
-0.284516
-0.272139
-0.260039
-0.240422
-0.35317
-0.354167
-0.352772
-0.349946
-0.345837
-0.340525
-0.334087
-0.326559
-0.31796
-0.308295
-0.297577
-0.285766
-0.272995
-0.260728
-0.238943
-0.360087
-0.359885
-0.357754
-0.354273
-0.349591
-0.343794
-0.336943
-0.329066
-0.320162
-0.310216
-0.29922
-0.287094
-0.273893
-0.261484
-0.237355
-0.367567
-0.366078
-0.363148
-0.35895
-0.353639
-0.347305
-0.339998
-0.331732
-0.32249
-0.312237
-0.300938
-0.288479
-0.274818
-0.262293
-0.235698
-0.375565
-0.372707
-0.368921
-0.36395
-0.357955
-0.351037
-0.343231
-0.334538
-0.324926
-0.314336
-0.302712
-0.289905
-0.27576
-0.263132
-0.234019
-0.384033
-0.379739
-0.375043
-0.369245
-0.362517
-0.354969
-0.346624
-0.337468
-0.327453
-0.316499
-0.304526
-0.291355
-0.276709
-0.263968
-0.232374
-0.392931
-0.387139
-0.381485
-0.374813
-0.367306
-0.359086
-0.350162
-0.340509
-0.330059
-0.318714
-0.306367
-0.292815
-0.277661
-0.264757
-0.230821
-0.40222
-0.394875
-0.388221
-0.380633
-0.372305
-0.363375
-0.353838
-0.343653
-0.332738
-0.320973
-0.308226
-0.294271
-0.278616
-0.265451
-0.229439
-0.411863
-0.402918
-0.395227
-0.386685
-0.377501
-0.367827
-0.357643
-0.346896
-0.335485
-0.323269
-0.310096
-0.295713
-0.279577
-0.265993
-0.228326
-0.421826
-0.411239
-0.402479
-0.392952
-0.382883
-0.372435
-0.361575
-0.350235
-0.338296
-0.325598
-0.311969
-0.297127
-0.280549
-0.266275
-0.227459
-0.432076
-0.419809
-0.409956
-0.39942
-0.38844
-0.377194
-0.365631
-0.353667
-0.341168
-0.327955
-0.313838
-0.298517
-0.281558
-0.266093
-0.226563
-0.44258
-0.428599
-0.417635
-0.406072
-0.394162
-0.382097
-0.369806
-0.357189
-0.344093
-0.330328
-0.315694
-0.2999
-0.282682
-0.265474
-0.226438
-0.453302
-0.437581
-0.425492
-0.41289
-0.400039
-0.387137
-0.374094
-0.360791
-0.347058
-0.332696
-0.31751
-0.301265
-0.283966
-0.265421
-0.232759
-0.464203
-0.44672
-0.4335
-0.419856
-0.406054
-0.392302
-0.378483
-0.364457
-0.350039
-0.335023
-0.319231
-0.302501
-0.285136
-0.26676
-0.25294
-0.47524
-0.455978
-0.441629
-0.426944
-0.412189
-0.397573
-0.382951
-0.368162
-0.353002
-0.337261
-0.320779
-0.303463
-0.285819
-0.266865
-0.257461
-0.486362
-0.465313
-0.449843
-0.434124
-0.418417
-0.402925
-0.387471
-0.371869
-0.355899
-0.339349
-0.322078
-0.304039
-0.285828
-0.265976
-0.256712
-0.49751
-0.474674
-0.458098
-0.441359
-0.424703
-0.408322
-0.392002
-0.375531
-0.358673
-0.341219
-0.323048
-0.304154
-0.285151
-0.264443
-0.253987
-0.508612
-0.484001
-0.466342
-0.448602
-0.431002
-0.413716
-0.396491
-0.379086
-0.361254
-0.342794
-0.323611
-0.303742
-0.283783
-0.262233
-0.249955
-0.519589
-0.493225
-0.474513
-0.455797
-0.437258
-0.419049
-0.400871
-0.382459
-0.36356
-0.343988
-0.323685
-0.302738
-0.281714
-0.259321
-0.245038
-0.530348
-0.502266
-0.482541
-0.462875
-0.443404
-0.424247
-0.405062
-0.385563
-0.365498
-0.344711
-0.323191
-0.301084
-0.278936
-0.25572
-0.239516
-0.540781
-0.511036
-0.490341
-0.469757
-0.449356
-0.429224
-0.408972
-0.388299
-0.36697
-0.344869
-0.322049
-0.298728
-0.275441
-0.251439
-0.233523
-0.55077
-0.51943
-0.49782
-0.476349
-0.455022
-0.43388
-0.412494
-0.390558
-0.367867
-0.344367
-0.320185
-0.295621
-0.271218
-0.246485
-0.227108
-0.560184
-0.527335
-0.50487
-0.482549
-0.460293
-0.438102
-0.415511
-0.392223
-0.368082
-0.34311
-0.317528
-0.291723
-0.266254
-0.240862
-0.220274
-0.568879
-0.534628
-0.511373
-0.488237
-0.46505
-0.441766
-0.417897
-0.393171
-0.367502
-0.341007
-0.314013
-0.286996
-0.260535
-0.234568
-0.213002
-0.5767
-0.541171
-0.517201
-0.493286
-0.46916
-0.444738
-0.419518
-0.393278
-0.366018
-0.337974
-0.309583
-0.281408
-0.254052
-0.227602
-0.205266
-0.583483
-0.54682
-0.522212
-0.497556
-0.472483
-0.446875
-0.420237
-0.392416
-0.363526
-0.333931
-0.304185
-0.274934
-0.246791
-0.219961
-0.197036
-0.589056
-0.551421
-0.526258
-0.500899
-0.47487
-0.448029
-0.419914
-0.390464
-0.359927
-0.328809
-0.297778
-0.267552
-0.238747
-0.211643
-0.18829
-0.593241
-0.554814
-0.529184
-0.503158
-0.476165
-0.448052
-0.418412
-0.387305
-0.355132
-0.322545
-0.290328
-0.259248
-0.229913
-0.202647
-0.17901
-0.595854
-0.556833
-0.530827
-0.504175
-0.476209
-0.446791
-0.415596
-0.382828
-0.349059
-0.315091
-0.281806
-0.250011
-0.220288
-0.192973
-0.169181
-0.596715
-0.557311
-0.531023
-0.503784
-0.474846
-0.444102
-0.411339
-0.376936
-0.34164
-0.306404
-0.272196
-0.239836
-0.209871
-0.182624
-0.158798
-0.595641
-0.55608
-0.529606
-0.501824
-0.471919
-0.439842
-0.405526
-0.369539
-0.332819
-0.296455
-0.261484
-0.228723
-0.198667
-0.171605
-0.147858
-0.592456
-0.552972
-0.526413
-0.498134
-0.467277
-0.43388
-0.39805
-0.360565
-0.32255
-0.285224
-0.249669
-0.216677
-0.186683
-0.159924
-0.136364
-0.586989
-0.547829
-0.521285
-0.492561
-0.460781
-0.426098
-0.388822
-0.349953
-0.310804
-0.272701
-0.236753
-0.203707
-0.173929
-0.147589
-0.124323
-0.579083
-0.540496
-0.514071
-0.484961
-0.452301
-0.416389
-0.377764
-0.337658
-0.29756
-0.258886
-0.222745
-0.189827
-0.160419
-0.134614
-0.111746
-0.568591
-0.530833
-0.504631
-0.475203
-0.441722
-0.404666
-0.364821
-0.323653
-0.282815
-0.243788
-0.207663
-0.175054
-0.146169
-0.121015
-0.0986474
-0.555384
-0.51871
-0.49284
-0.463169
-0.428948
-0.390857
-0.34995
-0.307925
-0.266576
-0.227426
-0.191529
-0.159412
-0.1312
-0.106811
-0.0850457
-0.539353
-0.504018
-0.478588
-0.448762
-0.413901
-0.374913
-0.333131
-0.290475
-0.248861
-0.209829
-0.174374
-0.142927
-0.115537
-0.0920225
-0.0709552
-0.520409
-0.486665
-0.461786
-0.431905
-0.396524
-0.356804
-0.314362
-0.271324
-0.229702
-0.191031
-0.156231
-0.125634
-0.0992096
-0.0766807
-0.056384
-0.498488
-0.46658
-0.442367
-0.412541
-0.376784
-0.336523
-0.293658
-0.250504
-0.209142
-0.171078
-0.137144
-0.107568
-0.0822502
-0.0608213
-0.0413681
-0.473552
-0.443718
-0.420287
-0.390641
-0.354672
-0.314084
-0.271056
-0.228064
-0.187234
-0.150021
-0.117159
-0.0887712
-0.0646921
-0.0444411
-0.0260095
-0.445591
-0.418059
-0.395529
-0.366199
-0.330203
-0.289525
-0.246608
-0.204067
-0.164044
-0.127922
-0.0963298
-0.0692927
-0.0465831
-0.0275985
-0.0102843
-0.414624
-0.389611
-0.368102
-0.339239
-0.303417
-0.262904
-0.220387
-0.178591
-0.139644
-0.104847
-0.0747193
-0.0491832
-0.0279625
-0.0103408
0.00577343
-0.380702
-0.358409
-0.338044
-0.309808
-0.274379
-0.234301
-0.192481
-0.151723
-0.114121
-0.0808748
-0.0523897
-0.0285003
-0.00888075
0.00728998
0.0221201
-0.343904
-0.324519
-0.305421
-0.277984
-0.243181
-0.203816
-0.162993
-0.123565
-0.0875656
-0.0560852
-0.0294145
-0.00730617
0.010608
0.0252473
0.0387098
-0.304341
-0.288037
-0.27033
-0.24387
-0.209935
-0.17157
-0.132044
-0.09423
-0.0600804
-0.0305675
-0.005871
0.014332
0.0304458
0.0434801
0.0554928
-0.262156
-0.249086
-0.232895
-0.2076
-0.174776
-0.137697
-0.0997676
-0.0638412
-0.0317746
-0.00441735
0.0181584
0.0363422
0.0505704
0.0619337
0.0724138
-0.217521
-0.20782
-0.193269
-0.169331
-0.13785
-0.102358
-0.06631
-0.0325305
-0.00276461
0.0222643
0.042586
0.0586484
0.0709162
0.080549
0.08941
-0.170635
-0.16442
-0.151629
-0.129211
-0.0993675
-0.0657216
-0.0318281
-0.000438947
0.0268264
0.049371
0.0673198
0.0811698
0.0914135
0.0992628
0.106411
-0.121706
-0.119107
-0.108169
-0.0874809
-0.0594999
-0.0279712
0.00351001
0.0322852
0.0568699
0.0767919
0.0922638
0.103822
0.11199
0.118012
0.123343
-0.0709849
-0.0721199
-0.0631294
-0.044348
-0.0184607
0.0106963
0.0395275
0.0654872
0.0872323
0.104412
0.117318
0.126518
0.132577
0.136743
0.140098
-0.0188182
-0.0236644
-0.016754
-5.05679e-05
0.0235222
0.0500735
0.0760404
0.099007
0.117776
0.132114
0.142381
0.14917
0.153116
0.155402
0.156448
0.0345465
0.0259492
0.0306895
0.0451556
0.0662103
0.089945
0.112859
0.13268
0.14836
0.159776
0.167346
0.171693
0.173545
0.173857
0.172076
0.0887971
0.0764238
0.0789179
0.0910018
0.109356
0.130088
0.149787
0.166339
0.178842
0.187276
0.192111
0.194001
0.193766
0.191826
0.186989
0.143599
0.127452
0.127635
0.137209
0.152702
0.170275
0.186628
0.199814
0.209076
0.214491
0.21657
0.216008
0.213644
0.209013
0.20193
0.198606
0.178711
0.176533
0.183489
0.195989
0.210275
0.223182
0.232934
0.238916
0.241295
0.240619
0.237612
0.233108
0.226411
0.218065
0.253467
0.229871
0.225296
0.229549
0.238951
0.249856
0.259248
0.265528
0.268219
0.267566
0.264151
0.25871
0.252041
0.243452
0.233913
0.307823
0.280592
0.273604
0.275092
0.281323
0.288785
0.294627
0.297427
0.296838
0.293178
0.287058
0.279212
0.270388
0.259949
0.249159
0.361311
0.330535
0.321134
0.319823
0.322841
0.326832
0.329121
0.328462
0.324632
0.318013
0.309237
0.299029
0.288088
0.27585
0.263718
0.41357
0.379358
0.367564
0.363446
0.363242
0.36377
0.362538
0.358471
0.351462
0.341951
0.330585
0.318077
0.305074
0.291096
0.277581
0.464244
0.426725
0.412578
0.405673
0.402271
0.399379
0.394688
0.387292
0.377192
0.364878
0.351006
0.336272
0.321278
0.305625
0.290725
0.512983
0.472303
0.455863
0.446221
0.43968
0.433443
0.425389
0.414772
0.401692
0.386683
0.370406
0.353537
0.336635
0.319381
0.303118
0.559446
0.515771
0.497119
0.484817
0.475228
0.465758
0.454467
0.440762
0.424837
0.407259
0.388695
0.369795
0.351082
0.332311
0.314724
0.603307
0.556821
0.536057
0.5212
0.508688
0.496126
0.481754
0.465122
0.446506
0.426506
0.405787
0.384976
0.364559
0.344363
0.32551
0.644257
0.595158
0.572402
0.555123
0.539842
0.524363
0.507094
0.487719
0.466588
0.444329
0.421602
0.399011
0.37701
0.355491
0.335443
0.682002
0.630506
0.605897
0.586356
0.568491
0.550296
0.53034
0.508429
0.484979
0.460638
0.436064
0.411836
0.388381
0.365649
0.344491
0.716273
0.662609
0.636304
0.614683
0.594447
0.573766
0.551358
0.527139
0.501581
0.475352
0.449103
0.423392
0.398622
0.374794
0.352621
0.746824
0.691234
0.663406
0.639912
0.617541
0.594629
0.570026
0.543744
0.516306
0.488396
0.460657
0.433627
0.407687
0.382887
0.359805
0.773435
0.716172
0.687008
0.661869
0.637625
0.612757
0.586235
0.558153
0.529078
0.499703
0.470668
0.442492
0.415537
0.389892
0.366015
0.795913
0.737239
0.706941
0.680402
0.654565
0.628039
0.59989
0.570285
0.539827
0.509217
0.479089
0.449945
0.422134
0.39578
0.371229
0.814094
0.754282
0.723063
0.695385
0.668253
0.640379
0.610911
0.580074
0.548496
0.516887
0.485876
0.455951
0.42745
0.400522
0.375425
0.827847
0.767176
0.735258
0.706714
0.678597
0.649701
0.619234
0.587464
0.555039
0.522675
0.490996
0.460481
0.431458
0.404098
0.378587
0.837072
0.775825
0.743436
0.71431
0.685532
0.655948
0.62481
0.592414
0.559421
0.526551
0.494424
0.463513
0.434141
0.406491
0.380702
0.841702
0.780165
0.747541
0.718121
0.68901
0.659081
0.627607
0.594896
0.561618
0.528494
0.496142
0.465033
0.435485
0.407691
0.381762
0.841702
0.780165
0.747541
0.718121
0.68901
0.659081
0.627607
0.594896
0.561618
0.528494
0.496142
0.465033
0.435485
0.407691
0.381762
0.837072
0.775825
0.743436
0.71431
0.685532
0.655948
0.62481
0.592414
0.559421
0.526551
0.494424
0.463513
0.434141
0.406491
0.380702
0.827847
0.767176
0.735258
0.706714
0.678597
0.649701
0.619234
0.587464
0.555039
0.522675
0.490996
0.460481
0.431458
0.404098
0.378587
0.814094
0.754282
0.723063
0.695385
0.668253
0.640379
0.610911
0.580074
0.548496
0.516887
0.485876
0.455951
0.42745
0.400522
0.375425
0.795913
0.737239
0.706941
0.680402
0.654565
0.628039
0.59989
0.570285
0.539827
0.509217
0.479089
0.449945
0.422134
0.39578
0.371229
0.773435
0.716172
0.687008
0.661869
0.637625
0.612757
0.586235
0.558153
0.529078
0.499703
0.470668
0.442492
0.415537
0.389892
0.366015
0.746824
0.691234
0.663406
0.639912
0.617541
0.594629
0.570026
0.543744
0.516306
0.488396
0.460657
0.433627
0.407687
0.382887
0.359805
0.716273
0.662609
0.636304
0.614683
0.594447
0.573766
0.551358
0.527139
0.501581
0.475352
0.449103
0.423392
0.398622
0.374794
0.352621
0.682002
0.630506
0.605897
0.586356
0.568491
0.550296
0.53034
0.508429
0.484979
0.460638
0.436064
0.411836
0.388381
0.365649
0.344491
0.644257
0.595158
0.572402
0.555123
0.539842
0.524363
0.507094
0.487719
0.466588
0.444329
0.421602
0.399011
0.37701
0.355491
0.335443
0.603307
0.556821
0.536057
0.5212
0.508688
0.496126
0.481754
0.465122
0.446506
0.426506
0.405787
0.384976
0.364559
0.344363
0.32551
0.559446
0.515771
0.497119
0.484817
0.475228
0.465758
0.454467
0.440762
0.424837
0.407259
0.388695
0.369795
0.351082
0.332311
0.314724
0.512983
0.472303
0.455863
0.446221
0.43968
0.433443
0.425389
0.414772
0.401692
0.386683
0.370406
0.353537
0.336635
0.319381
0.303118
0.464244
0.426725
0.412578
0.405673
0.402271
0.399379
0.394688
0.387292
0.377192
0.364878
0.351006
0.336272
0.321278
0.305625
0.290725
0.41357
0.379358
0.367564
0.363446
0.363242
0.36377
0.362538
0.358471
0.351462
0.341951
0.330585
0.318077
0.305074
0.291096
0.277581
0.361311
0.330535
0.321134
0.319823
0.322841
0.326832
0.329121
0.328462
0.324632
0.318013
0.309237
0.299029
0.288088
0.27585
0.263718
0.307823
0.280592
0.273604
0.275092
0.281323
0.288785
0.294627
0.297427
0.296838
0.293178
0.287058
0.279212
0.270387
0.259949
0.249159
0.253467
0.229871
0.225296
0.229549
0.238951
0.249856
0.259248
0.265528
0.268219
0.267566
0.264151
0.25871
0.252041
0.243452
0.233913
0.198606
0.178711
0.176533
0.183489
0.195989
0.210275
0.223182
0.232934
0.238916
0.241295
0.240619
0.237612
0.233108
0.226411
0.218065
0.143599
0.127452
0.127635
0.137209
0.152702
0.170275
0.186628
0.199814
0.209076
0.214491
0.21657
0.216008
0.213644
0.209013
0.20193
0.088797
0.0764237
0.0789179
0.0910018
0.109356
0.130088
0.149787
0.166339
0.178842
0.187276
0.192111
0.194001
0.193766
0.191826
0.186989
0.0345465
0.0259491
0.0306894
0.0451556
0.0662103
0.089945
0.112859
0.13268
0.14836
0.159776
0.167346
0.171693
0.173545
0.173857
0.172076
-0.0188182
-0.0236644
-0.016754
-5.05804e-05
0.0235221
0.0500735
0.0760404
0.099007
0.117776
0.132114
0.142381
0.14917
0.153116
0.155402
0.156448
-0.0709849
-0.0721199
-0.0631294
-0.044348
-0.0184607
0.0106962
0.0395275
0.0654872
0.0872323
0.104412
0.117318
0.126518
0.132577
0.136743
0.140098
-0.121706
-0.119107
-0.108169
-0.0874809
-0.0594999
-0.0279712
0.00351
0.0322852
0.0568699
0.0767919
0.0922637
0.103822
0.11199
0.118012
0.123343
-0.170635
-0.16442
-0.151629
-0.129211
-0.0993675
-0.0657216
-0.0318281
-0.000438962
0.0268264
0.049371
0.0673198
0.0811698
0.0914135
0.0992628
0.106411
-0.217521
-0.20782
-0.193269
-0.169331
-0.13785
-0.102358
-0.06631
-0.0325305
-0.00276463
0.0222642
0.042586
0.0586483
0.0709162
0.0805489
0.08941
-0.262156
-0.249086
-0.232895
-0.2076
-0.174776
-0.137697
-0.0997677
-0.0638412
-0.0317746
-0.00441737
0.0181584
0.0363422
0.0505704
0.0619337
0.0724138
-0.304341
-0.288037
-0.27033
-0.24387
-0.209935
-0.17157
-0.132044
-0.09423
-0.0600804
-0.0305676
-0.00587102
0.0143319
0.0304458
0.0434801
0.0554928
-0.343904
-0.324519
-0.305421
-0.277984
-0.243181
-0.203816
-0.162994
-0.123565
-0.0875656
-0.0560852
-0.0294146
-0.00730619
0.010608
0.0252472
0.0387098
-0.380702
-0.358409
-0.338044
-0.309808
-0.274379
-0.234301
-0.192481
-0.151723
-0.114121
-0.0808748
-0.0523897
-0.0285003
-0.00888077
0.00728997
0.0221201
-0.414624
-0.389611
-0.368102
-0.339239
-0.303417
-0.262904
-0.220387
-0.178591
-0.139644
-0.104847
-0.0747193
-0.0491833
-0.0279626
-0.0103408
0.00577341
-0.445591
-0.418059
-0.395529
-0.366199
-0.330203
-0.289525
-0.246608
-0.204067
-0.164044
-0.127922
-0.0963299
-0.0692928
-0.0465831
-0.0275986
-0.0102843
-0.473552
-0.443718
-0.420287
-0.390641
-0.354672
-0.314084
-0.271056
-0.228064
-0.187234
-0.150021
-0.117159
-0.0887712
-0.0646921
-0.0444412
-0.0260095
-0.498488
-0.46658
-0.442367
-0.412541
-0.376784
-0.336523
-0.293658
-0.250504
-0.209142
-0.171078
-0.137144
-0.107568
-0.0822503
-0.0608213
-0.0413682
-0.520409
-0.486665
-0.461786
-0.431905
-0.396524
-0.356804
-0.314362
-0.271324
-0.229702
-0.191031
-0.156231
-0.125634
-0.0992097
-0.0766807
-0.056384
-0.539353
-0.504018
-0.478588
-0.448763
-0.413901
-0.374913
-0.333131
-0.290475
-0.248861
-0.209829
-0.174374
-0.142927
-0.115537
-0.0920226
-0.0709552
-0.555384
-0.51871
-0.49284
-0.463169
-0.428948
-0.390857
-0.34995
-0.307925
-0.266576
-0.227426
-0.191529
-0.159412
-0.131201
-0.106811
-0.0850458
-0.568591
-0.530833
-0.504631
-0.475203
-0.441722
-0.404666
-0.364821
-0.323654
-0.282815
-0.243788
-0.207663
-0.175054
-0.146169
-0.121015
-0.0986474
-0.579083
-0.540496
-0.514071
-0.484962
-0.452301
-0.416389
-0.377764
-0.337658
-0.29756
-0.258886
-0.222745
-0.189827
-0.160419
-0.134614
-0.111746
-0.586989
-0.547829
-0.521285
-0.492561
-0.460781
-0.426098
-0.388822
-0.349953
-0.310804
-0.272701
-0.236753
-0.203707
-0.173929
-0.147589
-0.124323
-0.592456
-0.552973
-0.526413
-0.498134
-0.467277
-0.43388
-0.398051
-0.360565
-0.32255
-0.285224
-0.249669
-0.216677
-0.186683
-0.159924
-0.136364
-0.595641
-0.55608
-0.529606
-0.501824
-0.471919
-0.439842
-0.405526
-0.369539
-0.332819
-0.296455
-0.261484
-0.228723
-0.198667
-0.171605
-0.147858
-0.596715
-0.557312
-0.531023
-0.503784
-0.474846
-0.444102
-0.411339
-0.376936
-0.34164
-0.306404
-0.272196
-0.239836
-0.209871
-0.182624
-0.158798
-0.595854
-0.556833
-0.530827
-0.504175
-0.476209
-0.446791
-0.415596
-0.382828
-0.349059
-0.315091
-0.281806
-0.250011
-0.220288
-0.192973
-0.169181
-0.593241
-0.554814
-0.529184
-0.503158
-0.476165
-0.448052
-0.418412
-0.387305
-0.355132
-0.322545
-0.290328
-0.259248
-0.229913
-0.202647
-0.17901
-0.589056
-0.551421
-0.526258
-0.500899
-0.47487
-0.448029
-0.419914
-0.390464
-0.359927
-0.328809
-0.297778
-0.267552
-0.238747
-0.211643
-0.18829
-0.583483
-0.54682
-0.522212
-0.497556
-0.472483
-0.446875
-0.420237
-0.392416
-0.363526
-0.333931
-0.304185
-0.274934
-0.246791
-0.219961
-0.197036
-0.5767
-0.541171
-0.517201
-0.493286
-0.46916
-0.444738
-0.419518
-0.393278
-0.366018
-0.337974
-0.309583
-0.281408
-0.254052
-0.227602
-0.205266
-0.568879
-0.534628
-0.511373
-0.488237
-0.46505
-0.441766
-0.417897
-0.393171
-0.367502
-0.341007
-0.314014
-0.286996
-0.260535
-0.234568
-0.213002
-0.560184
-0.527335
-0.50487
-0.482549
-0.460293
-0.438102
-0.415511
-0.392223
-0.368082
-0.34311
-0.317528
-0.291723
-0.266254
-0.240862
-0.220274
-0.55077
-0.51943
-0.49782
-0.476349
-0.455022
-0.43388
-0.412494
-0.390558
-0.367867
-0.344367
-0.320185
-0.295621
-0.271218
-0.246485
-0.227108
-0.540781
-0.511036
-0.490341
-0.469757
-0.449356
-0.429224
-0.408972
-0.388299
-0.36697
-0.344869
-0.322049
-0.298728
-0.275441
-0.251439
-0.233523
-0.530348
-0.502266
-0.482541
-0.462875
-0.443404
-0.424247
-0.405062
-0.385563
-0.365498
-0.344711
-0.323191
-0.301084
-0.278936
-0.25572
-0.239516
-0.519589
-0.493225
-0.474513
-0.455797
-0.437258
-0.419049
-0.400871
-0.382459
-0.36356
-0.343988
-0.323685
-0.302738
-0.281714
-0.259322
-0.245038
-0.508612
-0.484001
-0.466342
-0.448602
-0.431002
-0.413716
-0.396491
-0.379086
-0.361254
-0.342794
-0.323611
-0.303742
-0.283783
-0.262233
-0.249955
-0.49751
-0.474674
-0.458098
-0.441359
-0.424703
-0.408322
-0.392002
-0.375531
-0.358673
-0.341219
-0.323048
-0.304154
-0.285151
-0.264443
-0.253987
-0.486362
-0.465313
-0.449843
-0.434124
-0.418417
-0.402925
-0.387471
-0.37187
-0.355899
-0.339349
-0.322078
-0.304039
-0.285828
-0.265976
-0.256712
-0.47524
-0.455978
-0.44163
-0.426944
-0.412189
-0.397573
-0.382951
-0.368162
-0.353002
-0.337261
-0.320779
-0.303463
-0.285819
-0.266865
-0.257461
-0.464203
-0.44672
-0.4335
-0.419856
-0.406054
-0.392302
-0.378483
-0.364457
-0.350039
-0.335023
-0.319231
-0.302501
-0.285136
-0.26676
-0.25294
-0.453302
-0.437581
-0.425492
-0.41289
-0.400039
-0.387137
-0.374094
-0.360791
-0.347058
-0.332696
-0.31751
-0.301265
-0.283966
-0.265421
-0.232759
-0.44258
-0.428599
-0.417635
-0.406072
-0.394162
-0.382097
-0.369806
-0.357189
-0.344093
-0.330328
-0.315694
-0.2999
-0.282682
-0.265474
-0.226438
-0.432076
-0.419809
-0.409956
-0.39942
-0.38844
-0.377194
-0.365631
-0.353667
-0.341168
-0.327955
-0.313838
-0.298517
-0.281558
-0.266093
-0.226563
-0.421826
-0.411239
-0.402479
-0.392952
-0.382883
-0.372435
-0.361575
-0.350235
-0.338296
-0.325598
-0.311969
-0.297127
-0.280549
-0.266275
-0.227459
-0.411863
-0.402918
-0.395227
-0.386685
-0.377501
-0.367827
-0.357643
-0.346896
-0.335485
-0.323269
-0.310096
-0.295713
-0.279577
-0.265993
-0.228326
-0.40222
-0.394875
-0.388221
-0.380633
-0.372305
-0.363375
-0.353838
-0.343653
-0.332738
-0.320973
-0.308226
-0.294271
-0.278616
-0.265451
-0.229439
-0.392931
-0.387139
-0.381485
-0.374813
-0.367306
-0.359086
-0.350162
-0.340509
-0.330059
-0.318714
-0.306367
-0.292815
-0.277661
-0.264757
-0.230821
-0.384033
-0.379739
-0.375043
-0.369245
-0.362517
-0.354969
-0.346624
-0.337468
-0.327453
-0.316499
-0.304526
-0.291355
-0.276709
-0.263968
-0.232374
-0.375565
-0.372707
-0.368921
-0.36395
-0.357955
-0.351037
-0.343231
-0.334538
-0.324926
-0.314336
-0.302712
-0.289905
-0.27576
-0.263132
-0.234019
-0.367567
-0.366078
-0.363148
-0.35895
-0.353639
-0.347305
-0.339998
-0.331732
-0.32249
-0.312237
-0.300938
-0.288479
-0.274818
-0.262293
-0.235698
-0.360088
-0.359885
-0.357754
-0.354273
-0.349591
-0.343794
-0.336943
-0.329066
-0.320162
-0.310216
-0.29922
-0.287094
-0.273893
-0.261484
-0.237355
-0.35317
-0.354167
-0.352772
-0.349946
-0.345837
-0.340525
-0.334087
-0.326559
-0.31796
-0.308295
-0.297577
-0.285766
-0.272995
-0.260728
-0.238943
-0.346864
-0.348961
-0.348234
-0.345999
-0.342404
-0.337526
-0.331454
-0.324238
-0.31591
-0.306495
-0.296031
-0.284516
-0.272139
-0.260039
-0.240422
-0.341215
-0.344305
-0.344173
-0.342461
-0.339319
-0.334822
-0.32907
-0.322126
-0.314035
-0.304843
-0.294607
-0.283363
-0.271341
-0.259429
-0.241761
-0.336272
-0.340235
-0.340622
-0.339362
-0.336611
-0.33244
-0.326962
-0.320251
-0.312364
-0.303363
-0.293327
-0.282327
-0.270616
-0.258901
-0.242936
-0.332077
-0.336785
-0.33761
-0.336731
-0.334307
-0.330408
-0.325158
-0.318639
-0.310922
-0.302082
-0.292217
-0.281427
-0.269981
-0.25846
-0.24393
-0.32867
-0.333985
-0.335164
-0.334592
-0.33243
-0.328749
-0.323681
-0.317316
-0.309735
-0.301025
-0.291299
-0.280682
-0.269452
-0.258106
-0.244734
-0.326084
-0.331861
-0.333309
-0.332968
-0.331003
-0.327485
-0.322553
-0.316303
-0.308824
-0.300211
-0.29059
-0.28011
-0.269042
-0.257841
-0.245341
-0.324344
-0.330433
-0.332061
-0.331875
-0.330042
-0.326632
-0.321791
-0.315618
-0.308206
-0.299659
-0.290109
-0.27972
-0.268762
-0.257665
-0.245747
-0.32347
-0.329716
-0.331434
-0.331326
-0.329558
-0.326203
-0.321407
-0.315272
-0.307894
-0.29938
-0.289866
-0.279523
-0.26862
-0.257577
-0.24595
-0.238443
-0.231322
-0.223925
-0.216479
-0.20892
-0.201272
-0.193567
-0.185828
-0.178077
-0.170337
-0.162633
-0.154989
-0.14743
-0.139982
-0.132667
-0.125509
-0.118528
-0.111743
-0.10517
-0.098824
-0.0927161
-0.0868548
-0.0812462
-0.0758935
-0.0707974
-0.0659561
-0.0613656
-0.0570197
-0.0529102
-0.0490273
-0.0453601
-0.0418955
-0.0386212
-0.0355208
-0.0325836
-0.0297861
-0.0271291
-0.0245653
-0.0221403
-0.0197254
-0.0175151
-0.0151202
-0.0131968
-0.0105674
-0.00924044
-0.00578119
-0.00596152
-0.000195269
-0.00428077
0.00750306
-0.238858
-0.231639
-0.224161
-0.216696
-0.209121
-0.201457
-0.193742
-0.185993
-0.178233
-0.170486
-0.162774
-0.155124
-0.147559
-0.140104
-0.132784
-0.125619
-0.118632
-0.111842
-0.105264
-0.0989123
-0.0927993
-0.0869331
-0.0813198
-0.0759626
-0.0708622
-0.0660168
-0.0614223
-0.0570727
-0.0529597
-0.0490736
-0.0454032
-0.0419358
-0.0386589
-0.035556
-0.0326166
-0.029817
-0.0271582
-0.0245927
-0.0221661
-0.0197499
-0.0175381
-0.0151423
-0.0132172
-0.0105879
-0.00925779
-0.00580134
-0.00597379
-0.000218283
-0.00428165
0.00746622
-0.239681
-0.23227
-0.224632
-0.217128
-0.209519
-0.201826
-0.194088
-0.18632
-0.178544
-0.170781
-0.163056
-0.155392
-0.147814
-0.140347
-0.133014
-0.125838
-0.11884
-0.112039
-0.10545
-0.0990882
-0.0929652
-0.0870893
-0.0814666
-0.0761004
-0.0709914
-0.0661378
-0.0615356
-0.0571785
-0.0530585
-0.0491659
-0.0454894
-0.0420163
-0.038734
-0.0356263
-0.0326824
-0.0298787
-0.0272161
-0.0246473
-0.0222175
-0.0197986
-0.017584
-0.0151864
-0.0132579
-0.0106287
-0.0092923
-0.00584142
-0.00599818
-0.000264059
-0.00428336
0.00739295
-0.240901
-0.233212
-0.225332
-0.217769
-0.210111
-0.202372
-0.194599
-0.186804
-0.179003
-0.171217
-0.163471
-0.155788
-0.148191
-0.140707
-0.133356
-0.126164
-0.119149
-0.112331
-0.105727
-0.0993504
-0.0932125
-0.0873223
-0.0816858
-0.0763063
-0.0711846
-0.0663188
-0.0617049
-0.0573368
-0.0532064
-0.049304
-0.0456183
-0.0421367
-0.0388465
-0.0357314
-0.0327808
-0.0299709
-0.0273027
-0.0247287
-0.0222942
-0.0198712
-0.0176523
-0.015252
-0.0133184
-0.0106895
-0.0093436
-0.00590099
-0.00603438
-0.000332096
-0.0042858
0.00728402
-0.242493
-0.234457
-0.226254
-0.21861
-0.210886
-0.203087
-0.195268
-0.187436
-0.179602
-0.171788
-0.164015
-0.156306
-0.148686
-0.141178
-0.133806
-0.126591
-0.119556
-0.112717
-0.106093
-0.0996967
-0.0935397
-0.0876309
-0.0819763
-0.0765794
-0.0714408
-0.066559
-0.0619298
-0.0575471
-0.0534029
-0.0494874
-0.0457896
-0.0422966
-0.0389958
-0.035871
-0.0329113
-0.0300931
-0.0274174
-0.0248365
-0.0223957
-0.0199673
-0.0177425
-0.0153387
-0.0133982
-0.0107695
-0.00941115
-0.00597943
-0.00608195
-0.000421662
-0.0042888
0.00714061
-0.244426
-0.235993
-0.227386
-0.219641
-0.211835
-0.203959
-0.196083
-0.188205
-0.180331
-0.172481
-0.164676
-0.156938
-0.14929
-0.141755
-0.134356
-0.127116
-0.120056
-0.113193
-0.106545
-0.100125
-0.0939444
-0.0880131
-0.0823365
-0.0769183
-0.0717591
-0.0668575
-0.0622093
-0.0578086
-0.0536473
-0.0497157
-0.0460027
-0.0424955
-0.0391815
-0.0360444
-0.0330735
-0.0302449
-0.0275596
-0.0249702
-0.0225213
-0.020086
-0.017854
-0.0154456
-0.0134966
-0.0108682
-0.00949425
-0.00607591
-0.00614032
-0.000531807
-0.00429217
0.00696424
-0.246657
-0.237803
-0.228714
-0.220846
-0.212943
-0.204975
-0.197031
-0.189097
-0.181177
-0.173287
-0.165446
-0.157674
-0.149994
-0.142429
-0.135001
-0.127733
-0.120644
-0.113754
-0.107078
-0.100631
-0.0944241
-0.0884666
-0.0827646
-0.0773214
-0.0721381
-0.0672132
-0.0625427
-0.0581206
-0.053939
-0.0499881
-0.046257
-0.0427327
-0.0394029
-0.0362511
-0.0332666
-0.0304255
-0.0277288
-0.0251289
-0.0226703
-0.0202267
-0.017986
-0.015572
-0.0136127
-0.0109844
-0.00959208
-0.00618947
-0.00620881
-0.000661395
-0.00429568
0.00675677
-0.249133
-0.239859
-0.230218
-0.222206
-0.214193
-0.206118
-0.198094
-0.190098
-0.182126
-0.174191
-0.16631
-0.158502
-0.150789
-0.143191
-0.135733
-0.128434
-0.121315
-0.114394
-0.107689
-0.101212
-0.0949757
-0.088989
-0.0832582
-0.077787
-0.0725763
-0.0676247
-0.0629286
-0.0584819
-0.0542768
-0.0503037
-0.0465515
-0.0430075
-0.0396592
-0.0364902
-0.0334898
-0.030634
-0.0279239
-0.0253117
-0.0228418
-0.0203884
-0.0181373
-0.0157168
-0.0137455
-0.0111173
-0.00970367
-0.00631898
-0.00628664
-0.000809121
-0.00429909
0.00652033
-0.251792
-0.242122
-0.231871
-0.223699
-0.215563
-0.207368
-0.199254
-0.191189
-0.18316
-0.175177
-0.167255
-0.15941
-0.151662
-0.144033
-0.136542
-0.129212
-0.122062
-0.11511
-0.108372
-0.101864
-0.0955957
-0.0895773
-0.0838151
-0.0783128
-0.0730717
-0.0680905
-0.0633657
-0.0588914
-0.0546598
-0.0506615
-0.0468854
-0.043319
-0.0399496
-0.0367609
-0.0337423
-0.0308697
-0.0281441
-0.0255178
-0.0230348
-0.0205701
-0.0183071
-0.015879
-0.0138939
-0.0112656
-0.00982801
-0.00646321
-0.00637297
-0.000973551
-0.00430212
0.00625731
-0.254554
-0.244538
-0.233639
-0.225295
-0.217026
-0.208699
-0.200489
-0.19235
-0.184261
-0.17623
-0.168267
-0.160385
-0.152604
-0.144942
-0.137421
-0.130059
-0.122878
-0.115894
-0.109124
-0.102582
-0.0962805
-0.0902284
-0.0844324
-0.0788966
-0.0736224
-0.0686089
-0.0638525
-0.0593476
-0.0550867
-0.0510603
-0.0472577
-0.043666
-0.040273
-0.0370622
-0.034023
-0.0311314
-0.0283883
-0.0257461
-0.0232481
-0.0207706
-0.0184942
-0.0160573
-0.0140569
-0.0114281
-0.00996397
-0.00662087
-0.00646689
-0.00115315
-0.00430454
0.00597033
-0.257323
-0.247036
-0.23548
-0.226957
-0.21855
-0.210086
-0.201773
-0.193559
-0.18541
-0.177331
-0.169328
-0.161413
-0.153601
-0.14591
-0.138359
-0.130968
-0.123756
-0.11674
-0.109938
-0.103362
-0.097026
-0.0909387
-0.0851072
-0.0795358
-0.0742262
-0.0691777
-0.0643872
-0.0598491
-0.0555561
-0.0514989
-0.0476669
-0.0440475
-0.0406283
-0.0373929
-0.034331
-0.0314182
-0.0286555
-0.0259955
-0.0234808
-0.0209889
-0.0186973
-0.0162506
-0.0142331
-0.0116036
-0.0101104
-0.00679061
-0.0065675
-0.00134632
-0.00430608
0.00566214
-0.25999
-0.249527
-0.237341
-0.228643
-0.220098
-0.211495
-0.203081
-0.194791
-0.186585
-0.178462
-0.170424
-0.162479
-0.15464
-0.146924
-0.139347
-0.131929
-0.124689
-0.117643
-0.110808
-0.104199
-0.0978281
-0.0917047