/*--------------------------------*- C++ -*----------------------------------*\
  =========                 |
  \\      /  F ield         | OpenFOAM: The Open Source CFD Toolbox
   \\    /   O peration     | Website:  https://openfoam.org
    \\  /    A nd           | Version:  7
     \\/     M anipulation  |
\*---------------------------------------------------------------------------*/
FoamFile
{
    version     2.0;
    format      ascii;
    class       surfaceScalarField;
    location    "15";
    object      phi;
}
// * * * * * * * * * * * * * * * * * * * * * * * * * * * * * * * * * * * * * //

dimensions      [0 3 -1 0 0 0 0];

internalField   nonuniform List<scalar> 
22315
(
-5.20185e-06
5.20185e-06
9.33958e-14
-1.75264e-05
1.23245e-05
-7.11638e-13
-3.48591e-05
1.73328e-05
-2.3032e-12
-5.51194e-05
2.02603e-05
-4.50943e-12
-7.62291e-05
2.11097e-05
-7.06653e-12
-9.6073e-05
1.98439e-05
-9.80045e-12
-0.000112438
1.63648e-05
-1.28693e-11
-0.000122949
1.05114e-05
-1.63354e-11
-0.000125012
2.06298e-06
-2.05831e-11
-0.00011578
-9.23227e-06
-2.56308e-11
-9.22052e-05
-2.35747e-05
-3.2361e-11
-5.12745e-05
-4.09307e-05
-4.08314e-11
9.32912e-06
-6.06035e-05
-5.20952e-11
9.01285e-05
-8.07993e-05
-6.65935e-11
-9.85613e-05
-8.5406e-11
0.00018869
-5.09588e-06
1.02977e-05
-1.71257e-05
2.43544e-05
-3.39679e-05
3.4175e-05
-5.35263e-05
3.98187e-05
-7.36995e-05
4.12829e-05
-9.23414e-05
3.84857e-05
-0.0001072
3.12234e-05
-0.000115854
1.91657e-05
-0.000115653
1.86201e-06
-0.000103682
-2.12032e-05
-7.68076e-05
-5.04494e-05
-3.18971e-05
-8.58412e-05
3.35317e-05
-0.000126032
0.000120174
-0.000167442
-0.000204222
0.000225835
-4.88578e-06
1.51835e-05
-1.63307e-05
3.57992e-05
-3.21981e-05
5.00424e-05
-5.03609e-05
5.79816e-05
-6.86713e-05
5.95933e-05
-8.49215e-05
5.47358e-05
-9.67824e-05
4.30844e-05
-0.00010174
2.41236e-05
-9.70336e-05
-2.84473e-06
-7.96132e-05
-3.86235e-05
-4.61766e-05
-8.38861e-05
6.64448e-06
-0.000138662
8.16432e-05
-0.000201031
0.000179874
-0.000265673
-0.000323934
0.000299587
-4.57521e-06
1.97587e-05
-1.51533e-05
4.63773e-05
-2.95743e-05
6.44634e-05
-4.56643e-05
7.40715e-05
-6.12057e-05
7.51347e-05
-7.38987e-05
6.74289e-05
-8.13e-05
5.04856e-05
-8.07579e-05
2.35815e-05
-6.93475e-05
-1.42551e-05
-4.38227e-05
-6.41483e-05
-6.25579e-07
-0.000127083
6.39115e-05
-0.000203199
0.000153086
-0.000290206
0.000268447
-0.000381034
-0.000464366
0.000408879
-4.1694e-06
2.39281e-05
-1.36111e-05
5.5819e-05
-2.61322e-05
7.69846e-05
-3.94956e-05
8.74348e-05
-5.13913e-05
8.70305e-05
-5.93976e-05
7.54352e-05
-6.09204e-05
5.20084e-05
-5.31274e-05
1.57885e-05
-3.28808e-05
-3.45017e-05
3.31824e-06
-0.000100347
5.93313e-05
-0.000183096
0.000139274
-0.000283142
0.000247002
-0.000397934
0.000384727
-0.000518759
-0.000631753
0.000552114
-3.67492e-06
2.76031e-05
-1.17261e-05
6.38702e-05
-2.19169e-05
8.71754e-05
-3.19303e-05
9.74482e-05
-3.93412e-05
9.44414e-05
-4.15775e-05
7.76715e-05
-3.58593e-05
4.62902e-05
-1.91336e-05
-9.37333e-07
1.19954e-05
-6.56306e-05
6.13281e-05
-0.00014968
0.000133097
-0.000254865
0.000231892
-0.000381937
0.000362254
-0.000528297
0.000527167
-0.000683671
-0.000831755
0.000727169
-3.09938e-06
3.07024e-05
-9.52394e-06
7.02947e-05
-1.69811e-05
9.46326e-05
-2.30568e-05
0.000103524
-2.51889e-05
9.65735e-05
-2.06273e-05
7.31099e-05
-6.37387e-06
3.20368e-05
2.08817e-05
-2.81929e-05
6.48327e-05
-0.000109582
0.000129622
-0.00021447
0.000219888
-0.000345131
0.000340735
-0.000502784
0.000497438
-0.000685
0.000693846
-0.000880079
-0.0010693
0.000931395
-2.45105e-06
3.31535e-05
-7.03274e-06
7.48764e-05
-1.13829e-05
9.89827e-05
-1.29734e-05
0.000105114
-9.08339e-06
9.26835e-05
3.24068e-06
6.07858e-05
2.72441e-05
8.0334e-06
6.65276e-05
-6.74764e-05
0.000125114
-0.000168168
0.000207518
-0.000296873
0.000318801
-0.000456414
0.000464587
-0.000648571
0.000650888
-0.000871301
0.000882475
-0.00111167
-0.00134845
0.00116162
-1.73848e-06
3.4892e-05
-4.28179e-06
7.74197e-05
-5.18349e-06
9.98844e-05
-1.78408e-06
0.000101715
8.81568e-06
8.20837e-05
2.97963e-05
3.98052e-05
6.46766e-05
-2.68469e-05
0.000117373
-0.000120173
0.000192263
-0.000243058
0.000294246
-0.000398856
0.000428806
-0.000590974
0.000602056
-0.000821821
0.000820684
-0.00108993
0.0010904
-0.00138138
-0.00167218
0.00141413
-9.70127e-07
3.58621e-05
-1.30025e-06
7.77499e-05
1.55517e-06
9.7029e-05
1.04041e-05
9.28661e-05
2.83431e-05
6.41447e-05
5.87996e-05
9.34869e-06
0.000105586
-7.36335e-05
0.000172956
-0.000187542
0.000265652
-0.000335754
0.00038896
-0.000522164
0.000548758
-0.000750772
0.000751576
-0.00102464
0.00100466
-0.00134301
0.00131459
-0.00169131
-0.0020423
0.00168471
-1.54963e-07
3.6017e-05
1.88235e-06
7.57126e-05
8.77213e-06
9.01392e-05
2.34856e-05
7.81526e-05
4.9333e-05
3.82972e-05
9.00051e-05
-3.13233e-05
0.000149624
-0.000133252
0.000232787
-0.000270706
0.000344608
-0.000447575
0.000490737
-0.000668293
0.000677393
-0.000937428
0.000911413
-0.00125866
0.00120039
-0.00163198
0.00155169
-0.00204262
-0.00245922
0.00196861
7.0285e-07
3.53142e-05
5.2416e-06
7.11738e-05
1.64106e-05
7.89702e-05
3.73586e-05
5.72047e-05
7.16225e-05
4.03328e-06
0.000123168
-8.28686e-05
0.000196433
-0.000206517
0.000296362
-0.000370636
0.000428421
-0.000579634
0.000598588
-0.00083846
0.000813339
-0.00115218
0.00107966
-0.00152498
0.00140522
-0.00195754
0.00179798
-0.00243538
-0.00292182
0.00226058
1.59365e-06
3.37205e-05
8.75317e-06
6.40143e-05
2.4418e-05
6.33054e-05
5.19273e-05
2.96953e-05
9.50548e-05
-3.90942e-05
0.000158046
-0.00014586
0.000245655
-0.000294126
0.000363159
-0.00048814
0.000516345
-0.000732819
0.000711452
-0.00103357
0.000955102
-0.00139583
0.00125424
-0.00182412
0.00161625
-0.00231955
0.00204943
-0.00286855
-0.00342738
0.00255499
2.51405e-06
3.12065e-05
1.23972e-05
5.41312e-05
3.27474e-05
4.29552e-05
6.71037e-05
-4.66098e-06
0.000119481
-9.14715e-05
0.000194404
-0.000220783
0.00029693
-0.000396652
0.000432642
-0.000623851
0.000607592
-0.000907769
0.000828196
-0.00125417
0.00110107
-0.00166871
0.0014329
-0.00215594
0.00183038
-0.00271703
0.00230175
-0.00333992
-0.00397149
0.00284585
3.46017e-06
2.77463e-05
1.61573e-05
4.14341e-05
4.13582e-05
1.77542e-05
8.28072e-05
-4.611e-05
0.00014476
-0.000153425
0.000232011
-0.000308034
0.000349896
-0.000514537
0.000504256
-0.000778211
0.000701336
-0.00110485
0.000947608
-0.00150044
0.00124952
-0.00197062
0.0016132
-0.00251962
0.0020443
-0.00314813
0.00255047
-0.00384609
-0.00454807
0.00312705
4.4295e-06
2.33168e-05
2.00204e-05
2.58432e-05
5.02154e-05
-1.24407e-05
9.89647e-05
-9.48593e-05
0.000170758
-0.000225218
0.000270638
-0.000407914
0.000404182
-0.000648081
0.000577423
-0.000951452
0.000796698
-0.00132412
0.00106839
-0.00177213
0.00139857
-0.0023008
0.00179257
-0.00291362
0.00225457
-0.00361014
0.00279101
-0.00438252
-0.00514959
0.00339254
5.42062e-06
1.78962e-05
2.39765e-05
7.28737e-06
5.92884e-05
-4.77527e-05
0.000115508
-0.000151079
0.000197344
-0.000307054
0.000310056
-0.000520626
0.000459406
-0.000797431
0.000651535
-0.00114358
0.000892741
-0.00156533
0.00118914
-0.00206854
0.00154623
-0.00265788
0.00196825
-0.00333564
0.00245764
-0.00409954
0.00301879
-0.00494367
-0.00576769
0.00363689
6.43297e-06
1.14632e-05
2.80176e-05
-1.42973e-05
6.85502e-05
-8.82853e-05
0.000132373
-0.000214902
0.000224387
-0.000399069
0.000350027
-0.000646266
0.000515166
-0.00096257
0.00072594
-0.00135435
0.000988457
-0.00182785
0.00130838
-0.00238846
0.00169038
-0.00303988
0.00213741
-0.00378268
0.00265007
-0.00461219
0.00322935
-0.00552295
-0.00639397
0.00385563
7.46653e-06
3.9967e-06
3.21371e-05
-3.89679e-05
7.79744e-05
-0.000134123
0.000149492
-0.000286419
0.00025175
-0.000501327
0.000390298
-0.000784813
0.000571028
-0.0011433
0.000799938
-0.00158327
0.00108276
-0.00211067
0.00142449
-0.00273019
0.00182877
-0.00344415
0.00229722
-0.00425112
0.00282878
-0.00514375
0.00341911
-0.00611328
-0.00702229
0.00404743
8.52149e-06
-4.5248e-06
3.63283e-05
-6.67747e-05
8.75336e-05
-0.000185328
0.000166795
-0.00036568
0.000279286
-0.000613819
0.000430596
-0.000936122
0.000626525
-0.00133923
0.000872774
-0.00182951
0.0011745
-0.0024124
0.00153578
-0.00309147
0.00195902
-0.00386739
0.00244452
-0.00473662
0.00299052
-0.00568975
0.00358892
-0.00671168
-0.00764934
0.00421597
9.59782e-06
-1.41226e-05
4.05832e-05
-9.77601e-05
9.71966e-05
-0.000241941
0.000184203
-0.000452687
0.000306831
-0.000736447
0.000470619
-0.00109991
0.000681146
-0.00154976
0.000943639
-0.00209201
0.00126245
-0.00273121
0.00164048
-0.0034695
0.00207863
-0.00430555
0.00257565
-0.00523363
0.00312895
-0.00624306
0.00373902
-0.00732174
-0.00841145
0.00450112
1.06949e-05
-2.48175e-05
4.48915e-05
-0.000131957
0.000106926
-0.000303976
0.000201624
-0.000547385
0.0003342
-0.000869022
0.000510036
-0.00127575
0.000734342
-0.00177406
0.00101168
-0.00236934
0.00134535
-0.00306489
0.00173683
-0.00386098
0.00218524
-0.00475395
0.00268731
-0.0057357
0.00323849
-0.00679425
0.00383424
-0.00791749
-0.00908602
0.00450881
1.18112e-05
-3.66287e-05
4.9239e-05
-0.000169384
0.000116676
-0.000371413
0.000218953
-0.000649662
0.000361185
-0.00101125
0.00054848
-0.00146304
0.00078552
-0.0020111
0.001076
-0.00265982
0.00142196
-0.00341086
0.00182321
-0.00426223
0.00227686
-0.00520761
0.00277741
-0.00623625
0.00331759
-0.00733443
0.00388768
-0.00848758
-0.00969439
0.00449605
1.29438e-05
-4.95725e-05
5.36072e-05
-0.000210048
0.000126392
-0.000444197
0.000236066
-0.000759337
0.000387551
-0.00116274
0.000585553
-0.00166104
0.000834059
-0.00225961
0.0011357
-0.00296145
0.00149106
-0.00376622
0.00189813
-0.0046693
0.00235194
-0.00566142
0.00284482
-0.00672913
0.00336716
-0.00785676
0.00390693
-0.00902735
-0.0102462
0.00445871
1.40884e-05
-6.36609e-05
5.79725e-05
-0.000253932
0.000136006
-0.000522231
0.000252822
-0.000876152
0.00041304
-0.00132296
0.000620828
-0.00186883
0.00087931
-0.00251809
0.00118988
-0.00327202
0.00155151
-0.00412786
0.0019603
-0.00507808
0.00240928
-0.00611041
0.00288891
-0.00720875
0.00338795
-0.0083558
0.00389378
-0.00953318
-0.0107474
0.00439498
1.5239e-05
-7.88998e-05
6.23053e-05
-0.000300998
0.000145443
-0.000605369
0.00026906
-0.000999769
0.000437368
-0.00149126
0.000653854
-0.00208532
0.00092062
-0.00278486
0.00123767
-0.00358907
0.00160228
-0.00449247
0.00200866
-0.00548446
0.00244805
-0.0065498
0.00290949
-0.00767019
0.00338091
-0.00882722
0.00385015
-0.0100024
-0.0112017
0.00430453
1.63878e-05
-9.52877e-05
6.65708e-05
-0.000351181
0.000154612
-0.000693409
0.000284606
-0.00112976
0.000460236
-0.00166689
0.000684168
-0.00230925
0.000957342
-0.00305803
0.00127826
-0.00390999
0.00164246
-0.00485667
0.00204238
-0.00588438
0.00246779
-0.00697521
0.00290681
-0.00810921
0.00334729
-0.0092677
0.00377832
-0.0104335
-0.0116119
0.00418846
1.75255e-05
-0.000112813
7.07285e-05
-0.000404384
0.000163415
-0.000786096
0.00029927
-0.00126562
0.000481328
-0.00184895
0.000711305
-0.00253923
0.000988854
-0.00333558
0.00131091
-0.00423205
0.00167131
-0.00521707
0.00206093
-0.006274
0.00246841
-0.00738269
0.00288152
-0.00852232
0.00328871
-0.00967489
0.00368079
-0.0108255
-0.0119798
0.00404875
1.86411e-05
-0.000131454
7.47332e-05
-0.000460476
0.000171746
-0.000883109
0.000312854
-0.00140673
0.000500327
-0.00203643
0.000734811
-0.00277371
0.00101459
-0.00361535
0.001335
-0.00455246
0.00168829
-0.00557037
0.00206403
-0.00664974
0.00245018
-0.00776884
0.00283467
-0.00890681
0.00320706
-0.0100473
0.0035602
-0.0111787
-0.0123075
0.00388791
1.97221e-05
-0.000151176
7.85358e-05
-0.00051929
0.000179492
-0.000984065
0.000325153
-0.00155239
0.000516918
-0.00222819
0.000754259
-0.00301105
0.00103403
-0.00389512
0.00135002
-0.00486845
0.00169305
-0.00591341
0.00205171
-0.0070084
0.0024137
-0.00813083
0.00276759
-0.0092607
0.00310444
-0.0103841
0.00341923
-0.0114935
-0.0125969
0.0037086
2.0755e-05
-0.000171931
8.20842e-05
-0.000580619
0.000186536
-0.00108852
0.000335966
-0.00170182
0.000530798
-0.00242302
0.000769258
-0.00324951
0.00104675
-0.00417261
0.00135562
-0.00517731
0.00168547
-0.00624326
0.00202426
-0.00734719
0.00235985
-0.00846642
0.00268185
-0.0095827
0.00298306
-0.0106853
0.00326055
-0.011771
-0.0128499
0.00351351
2.17254e-05
-0.000193657
8.53246e-05
-0.000644218
0.000192762
-0.00119595
0.000345094
-0.00185415
0.000541686
-0.00261961
0.00077947
-0.0034873
0.00105243
-0.00444558
0.00135159
-0.00547647
0.00166562
-0.00655729
0.00198219
-0.00766376
0.00228973
-0.00877396
0.00257917
-0.00987214
0.00284515
-0.0109513
0.00308673
-0.0120125
-0.0130684
0.00330519
2.26185e-05
-0.000216275
8.82026e-05
-0.000709803
0.000198055
-0.00130581
0.00035235
-0.00200844
0.000549331
-0.0028166
0.000784616
-0.00372258
0.00105084
-0.0047118
0.00133788
-0.00576351
0.00163377
-0.00685318
0.00192625
-0.00795625
0.00220463
-0.00905233
0.00246135
-0.0101289
0.00269294
-0.0111829
0.00290016
-0.0122197
-0.0132542
0.00308596
2.3419e-05
-0.000239694
9.06647e-05
-0.000777048
0.000202305
-0.00141745
0.000357565
-0.0021637
0.000553519
-0.00301255
0.000784489
-0.00395355
0.00104187
-0.00496918
0.0013146
-0.00603624
0.00159037
-0.00712895
0.00185734
-0.00822322
0.00210593
-0.00930092
0.00233024
-0.0103532
0.00252852
-0.0113812
0.00270303
-0.0123943
-0.013409
0.00285792
2.41121e-05
-0.000263806
9.26596e-05
-0.000845596
0.000205413
-0.0015302
0.00036059
-0.00231888
0.000554078
-0.00320604
0.000778951
-0.00417843
0.0010255
-0.00521573
0.00128198
-0.00629271
0.00153603
-0.007383
0.00177648
-0.00846368
0.0019951
-0.00951953
0.0021876
-0.0105457
0.00235387
-0.0115475
0.00249733
-0.0125377
-0.0135346
0.00262289
2.46833e-05
-0.00028849
9.41391e-05
-0.000915052
0.000207286
-0.00164335
0.000361299
-0.00247289
0.000550885
-0.00339562
0.000767945
-0.00439549
0.00100184
-0.00544962
0.00124038
-0.00653126
0.00147144
-0.00761407
0.00168479
-0.00867702
0.00187358
-0.00970833
0.00203516
-0.0107072
0.00217079
-0.0116831
0.00228479
-0.0126517
-0.0136323
0.00238248
2.51188e-05
-0.000313609
9.50597e-05
-0.000984993
0.000207849
-0.00175614
0.000359597
-0.00262464
0.000543863
-0.00357989
0.000751485
-0.00460311
0.000971084
-0.00566922
0.00119028
-0.00675046
0.00139744
-0.00782122
0.0015834
-0.00886298
0.00174282
-0.00986774
0.00187451
-0.0108389
0.00198091
-0.0117895
0.00206694
-0.0127377
-0.0137034
0.00213806
2.54062e-05
-0.000339015
9.53831e-05
-0.00105497
0.000207036
-0.00186779
0.000355417
-0.00277302
0.000532989
-0.00375746
0.000729662
-0.00479978
0.00093352
-0.00587308
0.00113224
-0.00694918
0.00131487
-0.00800385
0.00147349
-0.0090216
0.00160419
-0.00999844
0.00170714
-0.0109419
0.00178569
-0.0118681
0.00184512
-0.0127972
-0.0137491
0.00189078
2.55341e-05
-0.000364549
9.50772e-05
-0.00112451
0.000204803
-0.00197752
0.000348721
-0.00291694
0.000518286
-0.00392703
0.00070263
-0.00498412
0.000889509
-0.00605996
0.00106688
-0.00712654
0.00122465
-0.00816163
0.0013562
-0.00915315
0.00145901
-0.0101012
0.00153439
-0.0110173
0.00158641
-0.0119201
0.00162048
-0.0128312
-0.0137703
0.00164167
2.5493e-05
-0.000390042
9.41169e-05
-0.00119314
0.000201116
-0.00208452
0.000339506
-0.00305533
0.000499829
-0.00408735
0.000670605
-0.0051549
0.000839474
-0.00622883
0.000994864
-0.00728193
0.0011277
-0.00829447
0.00123265
-0.0092581
0.00130848
-0.0101771
0.00135748
-0.0110663
0.0013842
-0.0119468
0.001394
-0.012841
-0.0137678
0.00139158
2.52748e-05
-0.000415317
9.24844e-05
-0.00126035
0.000195965
-0.002188
0.000327796
-0.00318716
0.000477732
-0.00423729
0.000633856
-0.00531102
0.000783889
-0.00637886
0.000916904
-0.00741495
0.00102492
-0.00840248
0.00110389
-0.00933707
0.00115372
-0.0102269
0.0011775
-0.01109
0.00118004
-0.0119493
0.00116656
-0.0128276
-0.0137425
0.00114125
2.48736e-05
-0.00044019
9.01695e-05
-0.00132564
0.000189352
-0.00228718
0.000313647
-0.00331145
0.000452154
-0.00437579
0.000592696
-0.00545157
0.000723262
-0.00650943
0.000833711
-0.0075254
0.000917206
-0.00848598
0.000970913
-0.00939078
0.000995759
-0.0102518
0.000995403
-0.0110897
0.000974803
-0.0119287
0.000938878
-0.0127916
-0.013695
0.000891339
2.42854e-05
-0.000464476
8.71699e-05
-0.00138853
0.000181299
-0.00238131
0.00029714
-0.00342729
0.000423285
-0.00450194
0.000547473
-0.00557576
0.000658125
-0.00662008
0.000745996
-0.00761327
0.000805404
-0.00854539
0.000834648
-0.00942002
0.000835506
-0.0102526
0.000812056
-0.0110662
0.000769236
-0.0118859
0.000711617
-0.012734
-0.0136258
0.000642407
2.35082e-05
-0.000487984
8.34907e-05
-0.00144851
0.000171842
-0.00246966
0.000278382
-0.00353383
0.000391346
-0.0046149
0.00049856
-0.00568297
0.000589023
-0.00671054
0.000654459
-0.0076787
0.000690324
-0.00858125
0.000695946
-0.00942564
0.000673798
-0.0102305
0.000628213
-0.0110206
0.000564001
-0.0118217
0.000485341
-0.0126554
-0.0135354
0.000394957
2.25422e-05
-0.000510526
7.91447e-05
-0.00150511
0.000161032
-0.00255155
0.000257501
-0.0036303
0.000356583
-0.00471398
0.000446351
-0.00577274
0.000516502
-0.00678069
0.000559776
-0.00772198
0.000572727
-0.0085942
0.00055559
-0.00940851
0.000511379
-0.0101863
0.000444549
-0.0109538
0.000359691
-0.0117368
0.00026055
-0.0125562
-0.0134242
0.000149384
2.13897e-05
-0.000531916
7.41519e-05
-0.00155787
0.000148936
-0.00262633
0.000234644
-0.00371601
0.000319261
-0.0047986
0.000391249
-0.00584472
0.000441102
-0.00683055
0.000462598
-0.00774347
0.00045332
-0.00858493
0.00041429
-0.00936948
0.000348919
-0.0101209
0.000261657
-0.0108666
0.000156831
-0.011632
3.78784e-05
-0.0124373
-0.0132925
-9.38538e-05
2.00547e-05
-0.00055197
6.85387e-05
-0.00160636
0.000135631
-0.00269342
0.000209975
-0.00379035
0.000279657
-0.00486828
0.00033366
-0.00589873
0.000363351
-0.00686024
0.000363539
-0.00774366
0.000332759
-0.00855414
0.000272694
-0.00930941
0.000187016
-0.0100352
8.0072e-05
-0.0107596
-4.41643e-05
-0.0115078
-0.000182702
-0.0122987
-0.0131412
-0.000334044
1.85436e-05
-0.000570514
6.2338e-05
-0.00165015
0.000121205
-0.00275229
0.000183667
-0.00385282
0.000238057
-0.00492267
0.000273991
-0.00593466
0.000283758
-0.00687
0.000263178
-0.00772308
0.000211647
-0.00850261
0.000131386
-0.00922915
2.62085e-05
-0.00993003
-9.97167e-05
-0.0106337
-0.000242775
-0.0113647
-0.000400409
-0.0121411
-0.0129703
-0.000571288
1.68642e-05
-0.000587378
5.55878e-05
-0.00168888
0.000105754
-0.00280246
0.000155906
-0.00390297
0.000194752
-0.00496152
0.00021264
-0.00595255
0.00020281
-0.00686017
0.000162054
-0.00768232
9.05348e-05
-0.00843109
-9.10902e-06
-0.00912951
-0.00013301
-0.00980613
-0.000277277
-0.0104894
-0.000438679
-0.0112033
-0.000615
-0.0119648
-0.0127802
-0.000805105
1.50263e-05
-0.000602405
4.83313e-05
-0.00172218
8.93841e-05
-0.00284351
0.000126881
-0.00394046
0.000150033
-0.00498467
0.000149993
-0.00595251
0.000120969
-0.00683115
6.06689e-05
-0.00762202
-3.00719e-05
-0.00834035
-0.000148298
-0.00901128
-0.000290208
-0.00966422
-0.00045221
-0.0103274
-0.000631488
-0.011024
-0.000826148
-0.0117701
-0.0125712
-0.00103517
1.30411e-05
-0.000615446
4.06156e-05
-0.00174976
7.22035e-05
-0.0028751
9.67871e-05
-0.00396505
0.000104188
-0.00499207
8.64249e-05
-0.00593475
3.86701e-05
-0.0067834
-4.05152e-05
-0.00754284
-0.000149716
-0.00823115
-0.000285765
-0.00887523
-0.000444986
-0.009505
-0.000624145
-0.0101483
-0.000820853
-0.0108273
-0.00103353
-0.0115574
-0.0123435
-0.00126117
1.09212e-05
-0.000626367
3.24912e-05
-0.00177133
5.43264e-05
-0.00289693
6.58192e-05
-0.00397654
5.74979e-05
-0.00498375
2.22937e-05
-0.00589954
-4.36825e-05
-0.00671742
-0.000141074
-0.00744545
-0.000267983
-0.00810424
-0.000421116
-0.0087221
-0.000596981
-0.00932914
-0.000792737
-0.0099525
-0.00100644
-0.0106136
-0.00123682
-0.011327
-0.0120975
-0.00148283
8.68057e-06
-0.000635047
2.40115e-05
-0.00178666
3.58695e-05
-0.00290879
3.41704e-05
-0.00397484
1.02432e-05
-0.00495983
-4.20684e-05
-0.00584723
-0.000125711
-0.00663378
-0.000240619
-0.00733054
-0.000384497
-0.00796037
-0.000553997
-0.0085526
-0.000745861
-0.00913727
-0.000957661
-0.0097407
-0.00118791
-0.0103834
-0.0014357
-0.0110793
-0.0118334
-0.00169984
6.33468e-06
-0.000641382
1.52317e-05
-0.00179555
1.69508e-05
-0.00291051
2.06259e-06
-0.00395995
-3.73313e-05
-0.00492043
-0.00010634
-0.00577822
-0.000207065
-0.00653305
-0.000338797
-0.00719881
-0.000498919
-0.00780024
-0.000684092
-0.00836743
-0.000891325
-0.00893004
-0.00111861
-0.00951341
-0.00136495
-0.0101371
-0.00162984
-0.0108144
-0.0115513
-0.00191194
3.90293e-06
-0.000645285
6.2083e-06
-0.00179786
-2.30856e-06
-0.00290199
-3.0405e-05
-0.00393186
-8.49642e-05
-0.00486587
-0.000170221
-0.00569296
-0.000287424
-0.00641585
-0.000435285
-0.00705095
-0.000610944
-0.00762459
-0.000811118
-0.00816725
-0.0010331
-0.00870806
-0.0012753
-0.00927121
-0.00153723
-0.00987513
-0.00181891
-0.0105327
-0.0112514
-0.00211883
1.38725e-06
-0.000646672
-3.00583e-06
-0.00179347
-2.18193e-05
-0.00288318
-6.29665e-05
-0.00389071
-0.000132414
-0.00479642
-0.000233435
-0.00559194
-0.000366491
-0.00628279
-0.000529793
-0.00688764
-0.000720297
-0.00743408
-0.000934819
-0.00795273
-0.00117094
-0.00847194
-0.00142747
-0.00901468
-0.00170443
-0.00959817
-0.00200253
-0.0102346
-0.0109337
-0.00232019
-1.22386e-06
-0.000645448
-1.23539e-05
-0.00178234
-4.14353e-05
-0.0028541
-9.54762e-05
-0.00383667
-0.000179458
-0.00471244
-0.000295722
-0.00547568
-0.000443997
-0.00613452
-0.000622056
-0.00670959
-0.000826732
-0.00722941
-0.00105497
-0.00772449
-0.00130463
-0.00822228
-0.00157489
-0.00874442
-0.00186626
-0.0093068
-0.00218033
-0.0099205
-0.0105983
-0.00251577
-3.8177e-06
-0.000641631
-2.17693e-05
-0.00176438
-6.1058e-05
-0.00281481
-0.000127768
-0.00376996
-0.000225886
-0.00461432
-0.000356843
-0.00534472
-0.000519694
-0.00597167
-0.000711837
-0.00651744
-0.000930028
-0.00701121
-0.00117136
-0.00748316
-0.00143397
-0.00795967
-0.00171734
-0.00846105
-0.00202245
-0.00900169
-0.00235192
-0.00959102
-0.010245
-0.0027052
-6.45828e-06
-0.000635172
-3.12036e-05
-0.00173964
-8.05802e-05
-0.00276543
-0.000159684
-0.00369086
-0.000271498
-0.00450251
-0.00041658
-0.00519964
-0.00059336
-0.00579489
-0.00079892
-0.00631188
-0.00102999
-0.00678015
-0.00128382
-0.00722932
-0.0015588
-0.00768468
-0.00185467
-0.00816519
-0.00217277
-0.00868359
-0.00251665
-0.00924714
-0.00987418
-0.00288746
-9.11067e-06
-0.000626062
-4.06017e-05
-0.00170815
-9.98992e-05
-0.00270614
-0.000191076
-0.00359968
-0.000316112
-0.00437747
-0.000474729
-0.00504103
-0.000664788
-0.00560483
-0.000883111
-0.00609356
-0.00112643
-0.00653683
-0.00139218
-0.00696357
-0.00167899
-0.00739788
-0.00198676
-0.00785741
-0.002317
-0.00835336
-0.00267402
-0.00889012
-0.00948464
-0.00306356
-1.17565e-05
-0.000614305
-4.991e-05
-0.00166999
-0.000118917
-0.00263713
-0.000221802
-0.00349679
-0.000359557
-0.00423972
-0.000531105
-0.00486948
-0.000733794
-0.00540214
-0.000964232
-0.00586312
-0.00121919
-0.00628187
-0.0014963
-0.00668646
-0.0017944
-0.00709978
-0.0021136
-0.00753821
-0.00245504
-0.00801191
-0.00281854
-0.00852662
-0.00908996
-0.00321322
-1.43793e-05
-0.000599926
-5.90769e-05
-0.0016253
-0.000137539
-0.00255867
-0.000251731
-0.0033826
-0.000401675
-0.00408978
-0.000585539
-0.00468561
-0.000800209
-0.00518747
-0.00104212
-0.0056212
-0.00130812
-0.00601587
-0.00159603
-0.00639855
-0.00190492
-0.00679089
-0.00223508
-0.00720804
-0.00258769
-0.00765931
-0.00296376
-0.00815055
-0.00868538
-0.00336834
-1.69632e-05
-0.000582963
-6.80531e-05
-0.00157421
-0.000155678
-0.00247104
-0.000280741
-0.00325754
-0.00044232
-0.0039282
-0.000637876
-0.00449006
-0.00086388
-0.00496147
-0.00111664
-0.00536844
-0.00139308
-0.00573943
-0.00169123
-0.00610041
-0.00201038
-0.00647174
-0.002351
-0.00686743
-0.00271432
-0.00729599
-0.0031019
-0.00776297
-0.00827031
-0.00351696
-1.94929e-05
-0.00056347
-7.67918e-05
-0.00151691
-0.000173249
-0.00237459
-0.000308716
-0.00312207
-0.000481358
-0.00375555
-0.000687975
-0.00428344
-0.000924669
-0.00472477
-0.00118766
-0.00510545
-0.00147395
-0.00545314
-0.00178179
-0.00579257
-0.00211067
-0.00614286
-0.0024612
-0.0065169
-0.0028347
-0.00692249
-0.00323289
-0.00736477
-0.0078448
-0.00365841
-2.19537e-05
-0.000541516
-8.52483e-05
-0.00145361
-0.000190176
-0.00226966
-0.000335551
-0.0029767
-0.000518668
-0.00357244
-0.000735709
-0.0040664
-0.000982452
-0.00447803
-0.00125505
-0.00483286
-0.00155062
-0.00515756
-0.0018676
-0.00547559
-0.00220567
-0.00580478
-0.00256559
-0.00615698
-0.00294875
-0.00653933
-0.00335698
-0.00695654
-0.00740923
-0.00379254
-2.43317e-05
-0.000517185
-9.33805e-05
-0.00138456
-0.000206384
-0.00215665
-0.000361149
-0.00282193
-0.000554136
-0.00337945
-0.000780961
-0.00383958
-0.00103712
-0.00422187
-0.00131871
-0.00455127
-0.00162298
-0.00485328
-0.00194855
-0.00515002
-0.0022953
-0.00545804
-0.00266409
-0.00578819
-0.00305642
-0.00614701
-0.00347416
-0.00653879
-0.00696395
-0.00391944
-2.66136e-05
-0.000490571
-0.000101149
-0.00131003
-0.000221806
-0.002036
-0.000385419
-0.00265832
-0.000587662
-0.00317721
-0.000823626
-0.00360361
-0.00108856
-0.00395694
-0.00137854
-0.00426129
-0.00169095
-0.00454088
-0.00202457
-0.0048164
-0.00237946
-0.00510315
-0.00275661
-0.00541104
-0.0031576
-0.00574602
-0.00358438
-0.00611201
-0.00650932
-0.00403901
-2.87867e-05
-0.000461784
-0.000108516
-0.0012303
-0.000236381
-0.00190813
-0.00040828
-0.00248642
-0.000619151
-0.00296634
-0.00086361
-0.00335915
-0.00113669
-0.00368386
-0.00143446
-0.00396351
-0.00175443
-0.00422091
-0.00209555
-0.00447527
-0.00245806
-0.00474065
-0.00284305
-0.00502605
-0.0032522
-0.00533687
-0.00368752
-0.00567669
-0.00604574
-0.00415109
-3.08392e-05
-0.000430945
-0.000115448
-0.00114569
-0.000250049
-0.00177353
-0.000429656
-0.00230681
-0.000648521
-0.00274747
-0.000900827
-0.00310685
-0.00118142
-0.00340327
-0.00148638
-0.00365855
-0.00181334
-0.00389395
-0.00216143
-0.00412718
-0.00253102
-0.00437106
-0.00292332
-0.00463374
-0.0033401
-0.00492009
-0.00378346
-0.00523334
-0.00557369
-0.00425551
-3.27603e-05
-0.000398185
-0.000121914
-0.00105654
-0.000262759
-0.00163269
-0.00044948
-0.00212009
-0.000675696
-0.00252125
-0.000935199
-0.00284734
-0.00122267
-0.0031158
-0.00153423
-0.00334699
-0.00186762
-0.00356056
-0.00222212
-0.00377268
-0.00259825
-0.00399494
-0.00299733
-0.00423466
-0.00342121
-0.00449621
-0.00387205
-0.00478249
-0.00509368
-0.00435206
-3.45396e-05
-0.000363645
-0.000127883
-0.000963192
-0.000274462
-0.00148611
-0.00046769
-0.00192686
-0.000700607
-0.00228834
-0.000966657
-0.00258129
-0.00126039
-0.00282206
-0.00157795
-0.00302943
-0.0019172
-0.00322131
-0.00227756
-0.00341232
-0.00265967
-0.00361283
-0.00306497
-0.00382936
-0.00349539
-0.00406579
-0.00395316
-0.00432472
-0.00460628
-0.00444056
-3.61679e-05
-0.000327477
-0.000133331
-0.000866029
-0.000285115
-0.00133432
-0.000484231
-0.00172775
-0.000723193
-0.00204937
-0.000995139
-0.00230935
-0.00129451
-0.00252269
-0.00161747
-0.00270647
-0.001962
-0.00287678
-0.00232766
-0.00304666
-0.0027152
-0.00322529
-0.00312615
-0.0034184
-0.00356253
-0.00362941
-0.00402663
-0.00386061
-0.00411212
-0.0045208
-3.76367e-05
-0.000289841
-0.000138232
-0.000765434
-0.000294681
-0.00117788
-0.000499054
-0.00152337
-0.000743402
-0.00180503
-0.00102059
-0.00203216
-0.00132497
-0.00221832
-0.00165274
-0.0023787
-0.00200198
-0.00252754
-0.00237237
-0.00267627
-0.00276476
-0.00283289
-0.00318079
-0.00300237
-0.00362252
-0.00318768
-0.00409233
-0.00339081
-0.00361183
-0.00459261
-3.89385e-05
-0.000250902
-0.000142567
-0.000661805
-0.000303124
-0.00101732
-0.000512116
-0.00131438
-0.000761185
-0.00155596
-0.00104296
-0.00175038
-0.00135172
-0.00190956
-0.0016837
-0.00204672
-0.00203707
-0.00217417
-0.00241162
-0.00230173
-0.0028083
-0.00243622
-0.00322879
-0.00258187
-0.00367525
-0.00274123
-0.00415011
-0.00291595
-0.00310613
-0.00465581
-4.00668e-05
-0.000210835
-0.000146317
-0.000555555
-0.000310415
-0.000853221
-0.000523381
-0.00110142
-0.000776502
-0.00130284
-0.00106222
-0.00146467
-0.00137473
-0.00159704
-0.00171033
-0.00171113
-0.00206725
-0.00181725
-0.00244537
-0.0019236
-0.00284573
-0.00203586
-0.00327009
-0.00215752
-0.00372064
-0.00229068
-0.00419986
-0.00243673
-0.00259572
-0.00471027
-4.10157e-05
-0.00016982
-0.000149465
-0.000447105
-0.00031653
-0.000686156
-0.000532815
-0.000885131
-0.000789318
-0.00104633
-0.00107831
-0.00117567
-0.00139396
-0.00128139
-0.00173257
-0.00137252
-0.00209245
-0.00145737
-0.00247357
-0.00154249
-0.00287701
-0.00163241
-0.00330461
-0.00172992
-0.00375859
-0.00183669
-0.00424149
-0.00195383
-0.00208137
-0.00475584
-4.17806e-05
-0.000128039
-0.000152
-0.000336886
-0.000321447
-0.00051671
-0.000540394
-0.000666183
-0.000799606
-0.000787122
-0.00109123
-0.000884053
-0.00140938
-0.000963238
-0.0017504
-0.00103151
-0.00211266
-0.00109511
-0.00249617
-0.00115897
-0.0029021
-0.00122649
-0.00333229
-0.00129973
-0.00378904
-0.00137995
-0.00427489
-0.00146798
-0.00156383
-0.00479243
-4.23576e-05
-8.56814e-05
-0.00015391
-0.000225334
-0.000325149
-0.000345471
-0.000546097
-0.000445235
-0.000807341
-0.000525878
-0.00110093
-0.000590463
-0.00142097
-0.000643203
-0.00176379
-0.000688676
-0.00212784
-0.000731063
-0.00251316
-0.000773651
-0.00292095
-0.000818696
-0.0033531
-0.000867578
-0.00381192
-0.000921128
-0.00430001
-0.000979895
-0.00104389
-0.00481994
-4.27439e-05
-4.29375e-05
-0.000155188
-0.00011289
-0.000327623
-0.000173035
-0.000549907
-0.000222952
-0.000812507
-0.000263278
-0.00110741
-0.00029556
-0.0014287
-0.000321915
-0.00177273
-0.00034464
-0.00213797
-0.000365829
-0.00252449
-0.000387127
-0.00293353
-0.00040966
-0.00336699
-0.000434117
-0.00382721
-0.000460913
-0.00431678
-0.000490321
-0.00052235
-0.00483832
-4.29375e-05
-2.31943e-12
-0.000155828
-5.84977e-12
-0.000328863
-8.40568e-12
-0.000551815
-1.01349e-11
-0.000815093
-1.12106e-11
-0.00111065
-1.17228e-11
-0.00143257
-1.17234e-11
-0.00177721
-1.12603e-11
-0.00214304
-1.04062e-11
-0.00253016
-9.22175e-12
-0.00293982
-7.76452e-12
-0.00337394
-6.1208e-12
-0.00383485
-4.41344e-12
-0.00432517
-2.85356e-12
-1.59887e-12
-0.00484752
-4.29375e-05
4.29375e-05
-0.000155828
0.00011289
-0.000328863
0.000173035
-0.000551815
0.000222951
-0.000815093
0.000263278
-0.00111065
0.00029556
-0.00143257
0.000321915
-0.00177721
0.00034464
-0.00214304
0.000365829
-0.00253016
0.000387127
-0.00293982
0.00040966
-0.00337394
0.000434117
-0.00383485
0.000460913
-0.00432517
0.000490321