2 	-3.90993 	-1.14171e-17 	-0.0796468
2 	-3.734 	-1.31085e-17 	-0.0803874
2 	-3.56628 	-1.31085e-17 	-0.0817737
2 	-3.40639 	-1.45342e-17 	-0.0837247
2 	-3.25396 	-1.59599e-17 	-0.0861701
2 	-3.10865 	-1.59599e-17 	-0.0890477
2 	-2.97012 	-1.59599e-17 	-0.0923015
2 	-2.83806 	-1.73423e-17 	-0.09588
2 	-2.71216 	-1.87246e-17 	-0.0997351
2 	-2.59214 	-2.04594e-17 	-0.103821
2 	-2.47772 	-2.21941e-17 	-0.108095
2 	-2.36864 	-2.21941e-17 	-0.112514
2 	-2.26465 	-2.21941e-17 	-0.117038
2 	-2.16552 	-2.21507e-17 	-0.121626
2 	-2.07101 	-2.21074e-17 	-0.126241
2 	-1.98092 	-2.2064e-17 	-0.130843
2 	-1.89503 	-2.27254e-17 	-0.135394
2 	-1.81315 	-2.34735e-17 	-0.139859
2 	-1.73509 	-2.35168e-17 	-0.144203
2 	-1.66068 	-2.35602e-17 	-0.148395
2 	-1.58974 	-2.35602e-17 	-0.152406
2 	-1.52211 	-2.35168e-17 	-0.156212
2 	-1.45764 	-2.35168e-17 	-0.159793
2 	-1.39618 	-2.35168e-17 	-0.163136
2 	-1.33758 	-2.35168e-17 	-0.166232
2 	-1.28173 	-2.35602e-17 	-0.169072
2 	-1.22847 	-2.49859e-17 	-0.171667
2 	-1.17771 	-2.63249e-17 	-0.17408
2 	-1.12931 	-2.66339e-17 	-0.176308
2 	-1.08318 	-2.69863e-17 	-0.177777
2 	-1.06014 	-2.84118e-17 	-0.177873
2 	-1.03838 	-3.25604e-17 	-0.185643
2 	-0.994703 	-3.44043e-17 	-0.185815
2 	-0.949195 	-3.53444e-17 	-0.184947
2 	-0.925591 	-3.69699e-17 	-0.183917
2 	-0.901887 	-3.92888e-17 	-0.192085
2 	-0.854405 	-4.12125e-17 	-0.191104
2 	-0.805217 	-4.02238e-17 	-0.190052
2 	-0.771144 	-4.07287e-17 	-0.188929
2 	-0.745713 	-4.29226e-17 	-0.197226
2 	-0.703521 	-4.14105e-17 	-0.196022
2 	-0.651133 	-3.84749e-17 	-0.194791
2 	-0.597802 	-3.91545e-17 	-0.193559
2 	-0.559305 	-3.97601e-17 	-0.19235
2 	-0.531993 	-4.07623e-17 	-0.200489
2 	-0.488593 	-4.70966e-17 	-0.199254
2 	-0.432862 	-5.14164e-17 	-0.198094
2 	-0.376483 	-4.87123e-17 	-0.197031
2 	-0.319537 	-4.80235e-17 	-0.196083
2 	-0.262107 	-4.76156e-17 	-0.195268
2 	-0.204278 	-4.58396e-17 	-0.194599
2 	-0.148957 	-4.62994e-17 	-0.194088
2 	-0.11982 	-4.70582e-17 	-0.201826
2 	-0.0877717 	-4.79447e-17 	-0.201457
2 	-0.0292722 	-4.72427e-17 	-0.201272
2 	0.0292722 	-4.64906e-17 	-0.201272
2 	0.0877717 	-4.4062e-17 	-0.201457
2 	0.11982 	-4.03715e-17 	-0.201826
2 	0.148957 	-3.90569e-17 	-0.194088
2 	0.204278 	-3.28725e-17 	-0.194599
2 	0.262107 	-2.7753e-17 	-0.195268
2 	0.319537 	-2.70333e-17 	-0.196083
2 	0.376483 	-2.51407e-17 	-0.197031
2 	0.432862 	-2.08167e-17 	-0.198094
2 	0.488593 	-2.01228e-17 	-0.199254
2 	0.531993 	-2.3653e-17 	-0.200489
2 	0.559305 	-2.48155e-17 	-0.19235
2 	0.597802 	-2.65778e-17 	-0.193559
2 	0.651133 	-2.81908e-17 	-0.194791
2 	0.703521 	-2.84495e-17 	-0.196022
2 	0.745713 	-3.06368e-17 	-0.197226
2 	0.771144 	-3.35485e-17 	-0.188929
2 	0.805217 	-3.7535e-17 	-0.190052
2 	0.854405 	-4.01744e-17 	-0.191104
2 	0.901887 	-4.16025e-17 	-0.192085
2 	0.925591 	-4.50815e-17 	-0.183917
2 	0.949195 	-4.92113e-17 	-0.184947
2 	0.994703 	-5.61407e-17 	-0.185815
2 	1.03838 	-5.99883e-17 	-0.185643
2 	1.06014 	-5.82647e-17 	-0.177873
2 	1.08318 	-5.83089e-17 	-0.177777
2 	1.12931 	-6.14314e-17 	-0.176308
2 	1.17771 	-6.49008e-17 	-0.17408
2 	1.22847 	-6.49008e-17 	-0.171667
2 	1.28173 	-6.00436e-17 	-0.169072
2 	1.33758 	-5.69211e-17 	-0.166232
2 	1.39618 	-5.37986e-17 	-0.163136
2 	1.45764 	-5.24108e-17 	-0.159793
2 	1.52211 	-5.27578e-17 	-0.156212
2 	1.58974 	-5.137e-17 	-0.152406
2 	1.66068 	-5.137e-17 	-0.148395
2 	1.73509 	-5.1023e-17 	-0.144203
2 	1.81315 	-4.92883e-17 	-0.139859
2 	1.89503 	-4.82475e-17 	-0.135394
2 	1.98092 	-4.99822e-17 	-0.130843
2 	2.07101 	-5.137e-17 	-0.126241
2 	2.16552 	-5.27578e-17 	-0.121626
2 	2.26465 	-5.41455e-17 	-0.117038
2 	2.36864 	-5.41455e-17 	-0.112514
2 	2.47772 	-5.55333e-17 	-0.108095
2 	2.59214 	-5.86558e-17 	-0.103821
2 	2.71216 	-6.03905e-17 	-0.0997351
2 	2.83806 	-6.03905e-17 	-0.09588
2 	2.97012 	-6.03905e-17 	-0.0923015
2 	3.10865 	-6.03905e-17 	-0.0890477
2 	3.25396 	-6.03905e-17 	-0.08617
2 	3.40639 	-6.03905e-17 	-0.0837247
2 	3.56628 	-6.03905e-17 	-0.0817737
2 	3.734 	-6.03905e-17 	-0.0803873
2 	3.90993 	-6.34692e-17 	-0.0796468
