/*--------------------------------*- C++ -*----------------------------------*\
  =========                 |
  \\      /  F ield         | OpenFOAM: The Open Source CFD Toolbox
   \\    /   O peration     | Website:  https://openfoam.org
    \\  /    A nd           | Version:  7
     \\/     M anipulation  |
\*---------------------------------------------------------------------------*/
FoamFile
{
    version     2.0;
    format      ascii;
    class       surfaceScalarField;
    location    "50";
    object      phi;
}
// * * * * * * * * * * * * * * * * * * * * * * * * * * * * * * * * * * * * * //

dimensions      [0 3 -1 0 0 0 0];

internalField   nonuniform List<scalar> 
3877
(
-0.000806179
7.07935e-06
-0.000811729
5.97142e-06
-0.000816463
4.80199e-06
-0.000820379
3.56612e-06
-0.000823474
2.26417e-06
-0.000825734
8.86615e-07
-0.000827158
-5.34093e-07
-0.000827781
-1.89646e-06
-0.00082761
-3.26885e-06
-0.000826632
-4.70725e-06
-0.000824836
-6.20472e-06
-0.000822203
-7.72838e-06
-0.000818712
-9.26844e-06
-0.00081434
-1.07954e-05
-0.000809064
-1.229e-05
-0.000802855
-1.37313e-05
-0.000795686
-1.50953e-05
-0.000787511
-1.63538e-05
-0.000778322
-1.7523e-05
-0.000768076
-1.85443e-05
-0.000756732
-1.93994e-05
-0.000744252
-2.00706e-05
-0.0007306
-2.05446e-05
-0.000715735
-2.0807e-05
-0.000699616
-2.08528e-05
-0.000682202
-2.06799e-05
-0.000663452
-2.02948e-05
-0.000643327
-1.97118e-05
-0.000621789
-1.89511e-05
-0.00059881
-1.80536e-05
-0.000574355
-1.70526e-05
-0.000548399
-1.60054e-05
-0.000520918
-1.4969e-05
-0.000491891
-1.4015e-05
-0.00046132
-1.321e-05
-0.000429196
-1.26414e-05
-0.000395525
-1.23845e-05
-0.000360318
-1.25222e-05
-0.000323601
-1.31201e-05
-0.000285404
-1.42519e-05
-0.000245766
-1.59729e-05
-0.00020474
-1.83124e-05
-0.000162381
-2.13083e-05
-0.000118763
-2.4929e-05
-7.39584e-05
-2.91795e-05
-2.80553e-05
-3.39842e-05
1.88553e-05
-3.92776e-05
6.66745e-05
-4.49515e-05
0.000115299
-5.08806e-05
0.00016462
-5.6917e-05
0.000214528
-6.28967e-05
0.000264911
-6.86448e-05
0.000315656
-7.3981e-05
0.000366653
-7.87269e-05
0.000417793
-8.27119e-05
-8.57817e-05
-0.000760826
2.07188e-05
-0.000769556
1.88642e-05
-0.000777428
1.70207e-05
-0.000784463
1.51697e-05
-0.000790676
1.32926e-05
-0.000796075
1.13704e-05
-0.000800662
9.38837e-06
-0.000804433
7.33688e-06
-0.000807382
5.21321e-06
-0.000809519
3.02363e-06
-0.000810792
7.39406e-07
-0.000811267
-1.42145e-06
-0.000810964
-3.57201e-06
-0.000809856
-5.81564e-06
-0.000807928
-8.1324e-06
-0.000805161
-1.04948e-05
-0.000801538
-1.28919e-05
-0.000797035
-1.52987e-05
-0.000791626
-1.76982e-05
-0.000785287
-2.00709e-05
-0.000777986
-2.23956e-05
-0.000769689
-2.46513e-05
-0.000760372
-2.68397e-05
-0.000749998
-2.89188e-05
-0.000738527
-3.08698e-05
-0.000725922
-3.26764e-05
-0.000712145
-3.43214e-05
-0.000697155
-3.57966e-05
-0.000680912
-3.70958e-05
-0.000663374
-3.82177e-05
-0.000644501
-3.91682e-05
-0.000624253
-3.99599e-05
-0.000602591
-4.0613e-05
-0.000579487
-4.11573e-05
-0.000554908
-4.16323e-05
-0.000528825
-4.20883e-05
-0.000501216
-4.25774e-05
-0.000472062
-4.31694e-05
-0.000441362
-4.391e-05
-0.000409109
-4.48943e-05
-0.000375309
-4.61841e-05
-0.000339975
-4.78569e-05
-0.000303133
-4.99619e-05
-0.000264815
-5.25696e-05
-0.000225063
-5.57255e-05
-0.000183931
-5.9444e-05
-0.000141479
-6.37606e-05
-9.77824e-05
-6.86254e-05
-5.29181e-05
-7.40438e-05
-6.97691e-06
-7.99254e-05
3.99422e-05
-8.61967e-05
8.77401e-05
-9.27494e-05
0.000136309
-9.94491e-05
0.000185536
-0.000106145
0.00023531
-0.00011267
0.000285515
-0.00011885
0.000336039
-0.000124504
0.000386769
-0.000129457
0.000437598
-0.000133541
-0.000136607
-0.000731275
-0.000739671
2.72599e-05
-0.000747219
2.45684e-05
-0.000753939
2.18896e-05
-0.000759845
1.91986e-05
-0.000764943
1.6469e-05
-0.000769235
1.368e-05
-0.000772715
1.08172e-05
-0.000775377
7.87504e-06
-0.000777212
4.85833e-06
-0.00077823
1.75786e-06
-0.000778414
-1.23752e-06
-0.000777835
-4.15104e-06
-0.000776453
-7.19748e-06
-0.000774251
-1.03349e-05
-0.000771209
-1.35367e-05
-0.00076731
-1.67912e-05
-0.00076253
-2.0078e-05
-0.000756847
-2.33819e-05
-0.000750232
-2.66855e-05
-0.000742657
-2.99705e-05
-0.000734088
-3.322e-05
-0.0007245
-3.64282e-05
-0.000713854
-3.95642e-05
-0.000702115
-4.26094e-05
-0.000689242
-4.55496e-05
-0.0006752
-4.83634e-05
-0.000659947
-5.10487e-05
-0.000643445
-5.35984e-05
-0.000625651
-5.60116e-05
-0.000606525
-5.82939e-05
-0.000586029
-6.0456e-05
-0.000564124
-6.25185e-05
-0.000540781
-6.44995e-05
-0.000515969
-6.64447e-05
-0.00048966
-6.83974e-05
-0.000461833
-7.04048e-05
-0.000432466
-7.25355e-05
-0.000401564
-7.48127e-05
-0.000369118
-7.73397e-05
-0.000335138
-8.01645e-05
-0.000299635
-8.33596e-05
-0.000262641
-8.69561e-05
-0.000224189
-9.10221e-05
-0.000184321
-9.55927e-05
-0.000143099
-0.000100667
-0.000100582
-0.000106278
-5.68516e-05
-0.000112356
-1.19847e-05
-0.000118911
3.39151e-05
-0.000125825
8.07542e-05
-0.000133036
0.000128426
-0.000140421
0.000176818
-0.000147842
0.000225817
-0.000155144
0.000275307
-0.00016216
0.000325171
-0.000168714
0.000375296
-0.000174629
0.00042557
-0.000179731
0.000475887
-0.000183858
-0.000186866
-0.000695116
3.51691e-05
-0.000702192
3.16445e-05
-0.000708453
2.81508e-05
-0.000713912
2.46575e-05
-0.000718574
2.11306e-05
-0.000722437
1.75426e-05
-0.000725493
1.3874e-05
-0.000727735
1.01164e-05
-0.000729154
6.27732e-06
-0.000729743
2.3472e-06
-0.000729536
-1.44475e-06
-0.000728556
-5.13138e-06
-0.000726771
-8.98245e-06
-0.000724164
-1.29415e-05
-0.000720718
-1.69831e-05
-0.000716413
-2.10958e-05
-0.000711228
-2.52628e-05
-0.000705139
-2.9471e-05
-0.000698119
-3.37053e-05
-0.00069014
-3.79499e-05
-0.000681169
-4.21907e-05
-0.000671179
-4.64184e-05
-0.000660134
-5.06096e-05
-0.000647997
-5.47464e-05
-0.000634728
-5.88177e-05
-0.000620296
-6.27962e-05
-0.000604657
-6.6687e-05
-0.000587774
-7.04817e-05
-0.000569606
-7.41797e-05
-0.000550114
-7.77862e-05
-0.000529259
-8.13102e-05
-0.000507005
-8.47729e-05
-0.000483324
-8.81801e-05
-0.000458186
-9.15831e-05
-0.000431565
-9.50188e-05
-0.00040344
-9.85294e-05
-0.000373792
-0.000102183
-0.000342626
-0.000105979
-0.000309938
-0.000110028
-0.000275738
-0.000114365
-0.000240039
-0.000119058
-0.000202876
-0.000124119
-0.000164286
-0.000129612
-0.000124314
-0.000135565
-8.30246e-05
-0.000141956
-4.04784e-05
-0.000148824
3.24922e-06
-0.000156083
4.80322e-05
-0.000163694
9.38143e-05
-0.000171607
0.000140479
-0.000179701
0.000187917
-0.000187858
0.000236012
-0.000195937
0.000284648
-0.00020378
0.000333707
-0.000211219
0.000383071
-0.000218078
0.000432626
-0.000224184
0.000482262
-0.000229367
0.000531874
-0.00023347
-0.000236357
-0.000636159
4.24589e-05
-0.000642635
3.81209e-05
-0.000648314
3.38291e-05
-0.000653205
2.95486e-05
-0.000657311
2.52372e-05
-0.00066063
2.08609e-05
-0.00066315
1.6394e-05
-0.000664857
1.1824e-05
-0.000665745
7.16504e-06
-0.000665798
2.40009e-06
-0.000665095
-2.14745e-06
-0.000663605
-6.62118e-06
-0.000661308
-1.12797e-05
-0.000658188
-1.60616e-05
-0.000654227
-2.09436e-05
-0.000649408
-2.5915e-05
-0.000643708
-3.09626e-05
-0.000637104
-3.60751e-05
-0.00062957
-4.12397e-05
-0.000621077
-4.6443e-05
-0.000611594
-5.1673e-05
-0.000601094
-5.69191e-05
-0.00058954
-6.2163e-05
-0.000576899
-6.73881e-05
-0.000563129
-7.25871e-05
-0.000548201
-7.77247e-05
-0.000532074
-8.28142e-05
-0.00051471
-8.78458e-05
-0.00049607
-9.28191e-05
-0.000476118
-9.77387e-05
-0.000454816
-0.000102612
-0.000432128
-0.000107461
-0.000408029
-0.000112278
-0.000382491
-0.000117121
-0.000355491
-0.000122019
-0.000327011
-0.00012701
-0.00029703
-0.000132164
-0.000265559
-0.00013745
-0.000232596
-0.00014299
-0.000198154
-0.000148808
-0.000162247
-0.000154965
-0.000124916
-0.00016145
-8.62e-05
-0.000168329
-4.61444e-05
-0.00017562
-4.80335e-06
-0.000183297
3.76986e-05
-0.000191326
8.13286e-05
-0.000199713
0.000125986
-0.000208351
0.000171565
-0.000217186
0.000217957
-0.000226093
0.00026505
-0.000234951
0.000312726
-0.000243613
0.000360866
-0.00025192
0.00040935
-0.000259703
0.00045806
-0.000266789
0.000506883
-0.000273007
0.000555708
-0.000278192
0.000604434
-0.000282197
-0.00028489
-0.000563123
4.90224e-05
-0.000568897
4.38953e-05
-0.000573894
3.8826e-05
-0.000578122
3.37767e-05
-0.000581582
2.86967e-05
-0.000584265
2.35448e-05
-0.00058616
1.82887e-05
-0.000587245
1.29085e-05
-0.000587507
7.42742e-06
-0.000586949
1.84212e-06
-0.000585669
-3.42753e-06
-0.000583587
-8.703e-06
-0.000580695
-1.41724e-05
-0.000576978
-1.97785e-05
-0.00057242
-2.55014e-05
-0.000567003
-3.13321e-05
-0.000560705
-3.72605e-05
-0.000553502
-4.32774e-05
-0.00054537
-4.9372e-05
-0.00053628
-5.5533e-05
-0.000526203
-6.175e-05
-0.00051511
-6.80126e-05
-0.000502967
-7.4306e-05
-0.00048974
-8.06146e-05
-0.00047539
-8.69373e-05
-0.000459888
-9.32267e-05
-0.000443196
-9.95061e-05
-0.000425277
-0.000105764
-0.000406096
-0.000112001
-0.000385616
-0.000118219
-0.000363804
-0.000124424
-0.000340622
-0.000130643
-0.000316052
-0.000136849
-0.000290066
-0.000143107
-0.000262645
-0.00014944
-0.000233774
-0.000155881
-0.000203434
-0.000162504
-0.000171637
-0.000169246
-0.000138389
-0.000176238
-0.000103705
-0.000183493
-6.75978e-05
-0.000191071
-3.01127e-05
-0.000198935
8.71383e-06
-0.000207155
4.87884e-05
-0.000215695
9.00841e-05
-0.000224593
0.00013252
-0.000233761
0.000176
-0.000243194
0.000220433
-0.000252784
0.000265712
-0.000262464
0.000311726
-0.000272107
0.00035836
-0.000281584
0.000405492
-0.000290746
0.000453004
-0.000299431
0.000500773
-0.000307472
0.000548681
-0.000314697
0.000596615
-0.000320941
0.000644468
-0.000326045
0.000692141
-0.000329869
-0.000332292
-0.000476361
5.47858e-05
-0.000481364
4.88987e-05
-0.000485614
4.30756e-05
-0.000489116
3.72789e-05
-0.000491868
3.14484e-05
-0.000493859
2.55359e-05
-0.000495071
1.95001e-05
-0.000495474
1.33124e-05
-0.000495082
7.03527e-06
-0.000493818
5.78152e-07
-0.000491929
-5.31714e-06
-0.000489204
-1.14276e-05
-0.000485663
-1.77137e-05
-0.000481296
-2.4145e-05
-0.000476089
-3.0709e-05
-0.000470021
-3.73994e-05
-0.000463073
-4.42089e-05
-0.00045522
-5.113e-05
-0.000446438
-5.81541e-05
-0.0004367
-6.52716e-05
-0.000425976
-7.24736e-05
-0.000414239
-7.975e-05
-0.000401456
-8.70887e-05
-0.000387596
-9.4475e-05
-0.000372616
-0.000101917
-0.000356494
-0.000109349
-0.000339192
-0.000116808
-0.000320676
-0.00012428
-0.000300912
-0.000131765
-0.000279868
-0.000139263
-0.000257512
-0.000146779
-0.000233809
-0.000154347
-0.000208742
-0.000161916
-0.000182288
-0.00016956
-0.000154433
-0.000177295
-0.000125166
-0.000185148
-9.44635e-05
-0.000193207
-6.23482e-05
-0.000201361
-2.88232e-05
-0.000209763
6.10731e-06
-0.000218423
4.23481e-05
-0.000227312
7.99299e-05
-0.000236517
0.000118785
-0.00024601
0.000158855
-0.000255766
0.000200065
-0.000265802
0.000242337
-0.000276033
0.000285577
-0.000286434
0.000329689
-0.000296896
0.000374564
-0.000307339
0.000420087
-0.000317631
0.000466141
-0.000327639
0.000512604
-0.000337209
0.000559354
-0.000346181
0.00060627
-0.000354387
0.000653233
-0.000361661
0.000700132
-0.00036784
0.000746861
-0.000372775
0.000793325
-0.000376332
-0.000378404
-0.000376229
5.97171e-05
-0.000380433
5.31027e-05
-0.00038391
4.65521e-05
-0.000386662
4.00316e-05
-0.000388684
3.34704e-05
-0.000389962
2.68134e-05
-0.00039047
2.00086e-05
-0.00039017
1.30124e-05
-0.000389026
5.89103e-06
-0.000387212
-1.23599e-06
-0.000384621
-7.90795e-06
-0.000381226
-1.48222e-05
-0.000377019
-2.19215e-05
-0.000371985
-2.91782e-05
-0.000366111
-3.65836e-05
-0.000359376
-4.4134e-05
-0.00035176
-5.18247e-05
-0.00034324
-5.965e-05
-0.000333791
-6.7603e-05
-0.000323387
-7.56758e-05
-0.000312
-8.38604e-05
-0.000299603
-9.21477e-05
-0.000286165
-0.000100527
-0.000271656
-0.000108984
-0.000256035
-0.000117538
-0.000239279
-0.000126104
-0.000221357
-0.00013473
-0.000202236
-0.000143402
-0.000181883
-0.000152118
-0.000160271
-0.000160875
-0.000137373
-0.000169677
-0.000113149
-0.00017857
-8.75923e-05
-0.000187473
-6.06821e-05
-0.00019647
-3.24014e-05
-0.000205576
-2.70268e-06
-0.000214847
2.82723e-05
-0.000224182
6.06564e-05
-0.000233745
9.43982e-05
-0.000243505
0.000129469
-0.000253494
0.000165846
-0.000263689
0.000203475
-0.000274145
0.000242304
-0.000284839
0.000282274
-0.000295735
0.000323305
-0.000306833
0.000365317
-0.000318046
0.000408215
-0.000329331
0.000451896
-0.000340578
0.000496251
-0.000351693
0.000541162
-0.000362543
0.000586511
-0.000372987
0.000632174
-0.000382872
0.000678029
-0.000392036
0.000723955
-0.000400313
0.000769834
-0.00040754
0.000815558
-0.000413563
0.000861022
-0.000418239
0.000906135
-0.000421445
-0.000423084
-0.000263056
6.38349e-05
-0.000266482
5.65288e-05
-0.000269207
4.92778e-05
-0.000271234
4.20578e-05
-0.00027255
3.47865e-05
-0.000273138
2.74017e-05
-0.000272968
1.98383e-05
-0.000271988
1.20326e-05
-0.000270158
4.06142e-06
-0.00026774
-3.65399e-06
-0.000264507
-1.11417e-05
-0.000260468
-1.88612e-05
-0.000255615
-2.67743e-05
-0.000249937
-3.48563e-05
-0.000243417
-4.31033e-05
-0.000236037
-5.15143e-05
-0.000227775
-6.00867e-05
-0.000218608
-6.88164e-05
-0.000208513
-7.76978e-05
-0.000197465
-8.67247e-05
-0.000185435
-9.58898e-05
-0.000172398
-0.000105185
-0.000158327
-0.000114598
-0.000143195
-0.000124116
-0.000126952
-0.000133781
-0.000109588
-0.000143469
-9.10706e-05
-0.000153247
-7.13693e-05
-0.000163104
-5.04546e-05
-0.000173032
-2.82973e-05
-0.000183033
-4.84889e-06
-0.000193126
1.98175e-05
-0.000203237
4.5806e-05
-0.000213461
7.31179e-05
-0.000223782
0.000101755
-0.000234213
0.000131713
-0.000244805
0.000163011
-0.00025548
0.000195619
-0.000266354
0.000229519
-0.000277405
0.000264685
-0.000288659
0.000301085
-0.000300089
0.000338666
-0.000311727
0.000377372
-0.000323545
0.000417138
-0.000335501
0.000457882
-0.000347578
0.000499522
-0.000359686
0.000541957
-0.000371766
0.000585084
-0.000383706
0.000628791
-0.0003954
0.00067296
-0.000406712
0.00071747
-0.000417497
0.000762199
-0.0004276
0.000807023
-0.00043686
0.000851823
-0.000445113
0.000896483
-0.000452201
0.000940897
-0.000457977
0.000984964
-0.000462306
0.0010286
-0.000465077
-0.000466204
-0.000137119
6.72203e-05
-0.000139848
5.92581e-05
-0.000141901
5.13304e-05
-0.000143279
4.3436e-05
-0.000143966
3.54735e-05
-0.000143941
2.73766e-05
-0.000143167
1.90646e-05
-0.000141588
1.04537e-05
-0.00013915
1.62361e-06
-0.000136181
-6.62313e-06
-0.000132375
-1.49476e-05
-0.000127758
-2.34785e-05
-0.000122326
-3.22061e-05
-0.000116068
-4.11148e-05
-0.000108966
-5.02048e-05
-0.000101003
-5.94777e-05
-9.21566e-05
-6.89332e-05
-8.24047e-05
-7.85682e-05
-7.1724e-05
-8.83786e-05
-6.00894e-05
-9.83592e-05
-4.74752e-05
-0.000108504
-3.38541e-05
-0.000118806
-1.91955e-05
-0.000129257
-3.44424e-06
-0.000139867
1.33093e-05
-0.000150535
3.11979e-05
-0.000161357
5.02374e-05
-0.000172286
7.04468e-05
-0.000183313
9.18487e-05
-0.000194434
0.000114464
-0.000205647
0.000138308
-0.00021697
0.000163415
-0.000228344
0.000189786
-0.000239832
0.000217431
-0.000251427
0.000246354
-0.000263135
0.000276549
-0.000275
0.000308023
-0.000286953
0.00034075
-0.00029908
0.000374706
-0.000311361
0.000409859
-0.000323812
0.000446172
-0.000336402
0.00048359
-0.000349145
0.000522053
-0.000362007
0.000561491
-0.000374939
0.00060182
-0.000387908
0.000642954
-0.00040082
0.000684792
-0.000413604
0.000727227
-0.000426141
0.000770147
-0.00043832
0.000813433
-0.000449998
0.000856964
-0.000461028
0.000900617
-0.000471254
0.000944272
-0.000480515
0.00098781
-0.000488651
0.00103112
-0.00049551
0.00107409
-0.000500951
0.00111664
-0.000504851
0.00115867
-0.000507108
-0.000507649
1.44814e-06
6.9994e-05
-7.10623e-07
6.14169e-05
-2.26818e-06
5.2888e-05
-3.14767e-06
4.43155e-05
-3.34218e-06
3.5668e-05
-2.82912e-06
2.68635e-05
-1.54914e-06
1.77846e-05
5.75051e-07
8.32954e-06
3.34894e-06
-1.15028e-06
6.76535e-06
-1.00395e-05
1.1015e-05
-1.91972e-05
1.60859e-05
-2.85494e-05
2.19774e-05
-3.80976e-05
2.87007e-05
-4.78381e-05
3.62713e-05
-5.77754e-05
4.47075e-05
-6.79139e-05
5.403e-05
-7.82556e-05
6.42602e-05
-8.87984e-05
7.54207e-05
-9.9539e-05
8.75349e-05
-0.000110473
0.000100627
-0.000121596
0.000114721
-0.0001329
0.00012984
-0.000144376
0.000146003
-0.000156031
0.000163259
-0.00016779
0.000181614
-0.000179712
0.000201092
-0.000191764
0.000221718
-0.000203939
0.000243512
-0.000216229
0.000266493
-0.000228629
0.000290675
-0.000241151
0.00031608
-0.000253749
0.000342712
-0.000266464
0.000370574
-0.00027929
0.000399667
-0.000292228
0.000429978
-0.000305312
0.000461508
-0.000318483
0.000494228
-0.000331801
0.000528112
-0.000345244
0.000563119
-0.00035882
0.00059921
-0.000372493
0.000636326
-0.000386261
0.000674403
-0.000400084
0.000713368
-0.000413904
0.000753135
-0.000427675
0.000793614
-0.000441299
0.000834703
-0.000454692
0.000876295
-0.000467733
0.000918276
-0.000480301
0.000960528
-0.00049225
0.00100293
-0.000503431
0.00104536
-0.000513687
0.00108771
-0.000522859
0.00112985
-0.000530791
0.00117167
-0.000537336
0.00121309
-0.000542362
0.00125399
-0.000545756
0.00129431
-0.000547427
-0.000547315
0.000152268
7.24617e-05
0.000150401
6.32845e-05
0.000149171
5.41175e-05
0.00014859
4.48972e-05
0.000148678
3.55798e-05
0.000149461
2.60801e-05
0.000150994
1.62516e-05
0.000153434
5.89001e-06
0.000156394
-4.11044e-06
0.000160178
-1.38233e-05
0.000164747
-2.3766e-05
0.00017013
-3.39325e-05
0.000176336
-4.43042e-05
0.000183379
-5.48809e-05
0.000191274
-6.56703e-05
0.00020004
-7.66794e-05
0.000209696
-8.79121e-05
0.000220264
-9.93668e-05
0.000231766
-0.000111041
0.000244223
-0.000122931
0.000257658
-0.000135031
0.000272094
-0.000147335
0.000287552
-0.000159833
0.000304051
-0.00017253
0.000321626
-0.000185366
0.000340292
-0.000198377
0.000360066
-0.000211539
0.000380969
-0.000224842
0.000403019
-0.000238278
0.000426229
-0.000251838
0.000450607
-0.00026553
0.000476172
-0.000279314
0.000502923
-0.000293215
0.000530859
-0.000307227
0.000559976
-0.000321344
0.000590256
-0.000335592
0.000621693
-0.00034992
0.000654255
-0.000364363
0.00068791
-0.0003789
0.000722616
-0.000393525
0.000758326
-0.000408203
0.000794978
-0.000422913
0.000832506
-0.000437611
0.000870833
-0.000452231
0.000909871
-0.000466713
0.000949529
-0.000480957
0.000989704
-0.000494867
0.00103029
-0.000508318
0.00107117
-0.000521181
0.00111223
-0.000533309
0.00115335
-0.000544551
0.00119441
-0.00055475
0.0012353
-0.000563748
0.0012759
-0.000571395
0.00131612
-0.00057755
0.00135584
-0.000582089
0.001395
-0.000584909
0.0014335
-0.000585933
-0.000585111
0.000315492
0.000313615
6.51615e-05
0.000312373
5.53598e-05
0.000311786
4.54843e-05
0.000311875
3.54902e-05
0.000312664
2.52912e-05
0.000314207
1.47085e-05
0.00031667
3.42747e-06
0.000319685
-7.1259e-06
0.000323508
-1.76455e-05
0.00032815
-2.84088e-05
0.00033362
-3.94019e-05
0.000339925
-5.06093e-05
0.000347078
-6.20343e-05
0.000355095
-7.36869e-05
0.000363992
-8.55768e-05
0.00037379
-9.77099e-05
0.000384508
-0.000110085
0.000396166
-0.000122699
0.000408786
-0.00013555
0.000422386
-0.000148631
0.000436988
-0.000161937
0.000452611
-0.000175456
0.000469271
-0.00018919
0.000486999
-0.000203094
0.000505805
-0.000217184
0.000525708
-0.000231441
0.00054672
-0.000245855
0.000568857
-0.000260415
0.000592127
-0.000275108
0.000616534
-0.000289938
0.00064209
-0.00030487
0.00066879
-0.000319915
0.00069663
-0.000335066
0.000725598
-0.000350312
0.000755674
-0.000365668
0.000786842
-0.000381088
0.000819069
-0.000396591
0.000852318
-0.000412149
0.000886542
-0.000427749
0.00092169
-0.000443351
0.000957698
-0.000458921
0.000994494
-0.000474408
0.001032
-0.000489738
0.00107013
-0.000504842
0.00110879
-0.000519614
0.00114787
-0.00053395
0.00118727
-0.000547719
0.00122688
-0.000560789
0.00126658
-0.00057301
0.00130626
-0.000584228
0.0013458
-0.000594288
0.00138508
-0.000603037
0.00142402
-0.000610326
0.00146249
-0.000616024
0.00150042
-0.000620015
0.00153771
-0.000622206
0.00157431
-0.00062253
-0.000620954
0.00048865
6.74777e-05
0.000486993
5.7017e-05
0.000486019
4.64584e-05
0.000485749
3.57601e-05
0.000486199
2.48413e-05
0.000487412
1.34954e-05
0.000489592
1.24722e-06
0.000492328
-9.86107e-06
0.000495924
-2.12423e-05
0.000500363
-3.28473e-05
0.00050565
-4.46893e-05
0.000511796
-5.67546e-05
0.000518809
-6.90479e-05
0.000526704
-8.15817e-05
0.000535496
-9.4369e-05
0.000545205
-0.000107418
0.000555847
-0.000120727
0.000567441
-0.000134293
0.000580006
-0.000148115
0.000593559
-0.000162185
0.000608119
-0.000176496
0.000623701
-0.000191038
0.00064032
-0.000205809
0.000657999
-0.000220772
0.000676748
-0.000235933
0.00069658
-0.000251274
0.000717506
-0.000266781
0.000739534
-0.000282443
0.000762669
-0.000298243
0.00078691
-0.000314179
0.000812262
-0.000330221
0.000838717
-0.00034637
0.000866264
-0.000362613
0.000894887
-0.000378935
0.000924561
-0.000395342
0.000955264
-0.000411791
0.000986959
-0.000428285
0.0010196
-0.000444793
0.00105315
-0.000461293
0.00108753
-0.000477738
0.0011227
-0.000494086
0.00115857
-0.000510276
0.00119506
-0.00052623
0.00123209
-0.000541868
0.00126955
-0.00055708
0.00130736
-0.000571753
0.00134539
-0.000585756
0.00138355
-0.000598948
0.00142172
-0.000611181
0.00145979
-0.000622299
0.00149765
-0.000632149
0.0015352
-0.00064058
0.00157232
-0.000647451
0.00160894
-0.000652637
0.00164495
-0.000656029
0.00168029
-0.000657547
0.0017149
-0.000657135
-0.000654772
0.000675259
7.07664e-05
0.000672688
5.95879e-05
0.000670858
4.8288e-05
0.000669788
3.68303e-05
0.000669484
2.5145e-05
0.000669963
1.30169e-05
0.000671446
-2.36098e-07
0.000673567
-1.19821e-05
0.00067659
-2.42655e-05
0.000680495
-3.6752e-05
0.000685285
-4.94789e-05
0.000690966
-6.24358e-05
0.000697546
-7.56279e-05
0.000705035
-8.90708e-05
0.000713447
-0.000102781
0.000722798
-0.000116769
0.000733104
-0.000131034
0.000744381
-0.00014557
0.000756643
-0.000160377
0.000769906
-0.000175448
0.000784185
-0.000190775
0.000799493
-0.000206346
0.00081584
-0.000222156
0.000833243
-0.000238176
0.000851711
-0.000254401
0.000871251
-0.000270814
0.00089187
-0.000287399
0.00091357
-0.000304142
0.000936351
-0.000321025
0.00096021
-0.000338038
0.000985142
-0.000355153
0.00101114
-0.000372363
0.00103817
-0.000389651
0.00106624
-0.000406998
0.00109529
-0.0004244
0.00112532
-0.000441814
0.00115626
-0.000459233
0.00118809
-0.00047662
0.00122074
-0.000493944
0.00125416
-0.000511153
0.00128827
-0.000528197
0.001323
-0.000545008
0.00135827
-0.000561502
0.00139399
-0.000577589
0.00143007
-0.000593157
0.0014664
-0.000608086
0.00150289
-0.000622241
0.00153942
-0.00063548
0.00157589
-0.000647652
0.00161219
-0.000658603
0.00164823
-0.00066818
0.00168388
-0.000676238
0.00171907
-0.000682642
0.00175371
-0.000687271
0.00178771
-0.00069003
0.00182101
-0.000690845
0.00185355
-0.000689674
-0.000686507
0.000873021
7.56596e-05
0.000868949
6.36604e-05
0.000865714
5.15231e-05
0.000863328
3.92163e-05
0.000861793
2.668e-05
0.000861137
1.36723e-05
0.000861345
-4.44266e-07
0.000862492
-1.31284e-05
0.000864552
-2.63259e-05
0.00086755
-3.975e-05
0.000871484
-5.34125e-05
0.000876357
-6.73089e-05
0.000882173
-8.14441e-05
0.000888938
-9.58354e-05
0.000896661
-0.000110504
0.000905357
-0.000125465
0.000915038
-0.000140715
0.000925716
-0.000156248
0.000937403
-0.000172064
0.00095011
-0.000188155
0.000963847
-0.000204512
0.000978624
-0.000221123
0.000994448
-0.00023798
0.00101133
-0.000255057
0.00102927
-0.000272343
0.00104828
-0.000289821
0.00106835
-0.000307472
0.00108949
-0.000325278
0.00111168
-0.000343218
0.00113492
-0.00036128
0.0011592
-0.000379433
0.0011845
-0.000397663
0.0012108
-0.000415951
0.00123808
-0.000434271
0.00126629
-0.000452611
0.0012954
-0.00047093
0.00132538
-0.000489207
0.00135616
-0.000507403
0.00138769
-0.000525478
0.00141992
-0.000543376
0.00145276
-0.000561038
0.00148614
-0.00057839
0.00151998
-0.000595343
0.00155419
-0.000611801
0.00158868
-0.000627645
0.00162335
-0.000642755
0.0016581
-0.000656991
0.00169283
-0.000670208
0.00172743
-0.000682256
0.00176181
-0.000692982
0.00179587
-0.000702237
0.00182951
-0.000709878
0.00186264
-0.000715777
0.0018952
-0.000719823
0.00192709
-0.000721925
0.00195827
-0.000722023
0.00198868
-0.000720085
-0.000716111
0.00108121
8.28653e-05
0.00107498
6.98916e-05
0.00106973
5.67759e-05
0.00106546
4.34902e-05
0.00106215
2.99867e-05
0.00105976
1.60566e-05
0.00105836
9.60158e-07
0.00105802
-1.27904e-05
0.00105868
-2.6989e-05
0.00106037
-4.14318e-05
0.00106305
-5.60997e-05
0.00106675
-7.10018e-05
0.00107144
-8.61398e-05
0.00107714
-0.000101533
0.00108384
-0.000117208
0.00109157
-0.000133187
0.00110032
-0.000149463
0.0011101
-0.000166029
0.00112092
-0.000182884
0.00113278
-0.000200023
0.0011457
-0.000217433
0.00115968
-0.0002351
0.00117472
-0.000253016
0.00119082
-0.000271156
0.00120798
-0.000289505
0.0012262
-0.000308042
0.00124548
-0.000326748
0.0012658
-0.000345602
0.00128716
-0.000364579
0.00130954
-0.000383662
0.00133293
-0.000402819
0.0013573
-0.000422031
0.00138262
-0.000441273
0.00140886
-0.000460516
0.00143599
-0.000479741
0.00146397
-0.000498903
0.00149273
-0.000517975
0.00152224
-0.000536912
0.00155243
-0.000555668
0.00158324
-0.000574182
0.00161459
-0.000592388
0.00164641
-0.000610207
0.00167861
-0.000627544
0.00171111
-0.000644299
0.00174381
-0.000660351
0.00177663
-0.000675573
0.00180947
-0.000689826
0.00184222
-0.000702964
0.0018748
-0.000714836
0.00190711
-0.000725292
0.00193906
-0.000734186
0.00197056
-0.000741381
0.00200154
-0.000746754
0.00203192
-0.0007502
0.00206163
-0.00075164
0.00209063
-0.000751022
0.00211887
-0.000748323
-0.000743557
0.00129864
0.00128957
7.89697e-05
0.00128165
6.46885e-05
0.00127489
5.02547e-05
0.00126925
3.56221e-05
0.0012647
2.06072e-05
0.00126101
4.65291e-06
0.0012588
-1.0579e-05
0.00125761
-2.58047e-05
0.00125755
-4.13718e-05
0.00125859
-5.71373e-05
0.00126072
-7.31297e-05
0.00126393
-8.93476e-05
0.00126821
-0.000105812
0.00127355
-0.000122556
0.00127998
-0.00013961
0.00128748
-0.000156964
0.00129605
-0.000174608
0.00130571
-0.000192544
0.00131646
-0.000210764
0.00132828
-0.000229255
0.00134118
-0.000248003
0.00135516
-0.000266996
0.00137021
-0.000286209
0.00138634
-0.000305625
0.00140352
-0.000325222
0.00142174
-0.000344976
0.001441
-0.000364864
0.00146128
-0.000384858
0.00148256
-0.000404936
0.0015048
-0.000425066
0.001528
-0.000445222
0.0015521
-0.000465376
0.00157708
-0.000485494
0.00160289
-0.00050555
0.00162948
-0.000525499
0.00165681
-0.000545306
0.00168482
-0.00056492
0.00171344
-0.00058429
0.00174261
-0.000603352
0.00177226
-0.000622032
0.0018023
-0.000640249
0.00183266
-0.000657903
0.00186325
-0.00067489
0.00189399
-0.000691087
0.00192478
-0.000706364
0.00195553
-0.000720581
0.00198616
-0.000733592
0.00201657
-0.000745249
0.00204668
-0.000755404
0.00207641
-0.000763913
0.00210568
-0.000770645
0.00213441
-0.000775484
0.00216254
-0.000778333
0.00219002
-0.000779119
0.0022168
-0.0007778
0.00224284
-0.000774365
-0.000768834
0.00151091
9.15584e-05
0.00149971
7.58816e-05
0.00148988
6.00912e-05
0.00148136
4.41381e-05
0.00147406
2.79099e-05
0.00146783
1.08808e-05
0.00146318
-5.92449e-06
0.00145968
-2.23075e-05
0.00145745
-3.91419e-05
0.00145644
-5.61262e-05
0.00145662
-7.33164e-05
0.00145799
-9.07092e-05
0.0014605
-0.000108328
0.00146416
-0.000126216
0.00146897
-0.000144415
0.00147491
-0.00016291
0.001482
-0.000181689
0.00149021
-0.000200755
0.00149954
-0.0002201
0.00151
-0.000239708
0.00152156
-0.000259565
0.00153422
-0.000279657
0.00154797
-0.00029996
0.0015628
-0.000320452
0.00157868
-0.00034111
0.00159561
-0.000361907
0.00161357
-0.000382818
0.00163252
-0.000403811
0.00165245
-0.000424861
0.00167331
-0.000445934
0.00169509
-0.000466999
0.00171774
-0.000488024
0.00174121
-0.000508971
0.00176547
-0.000529809
0.00179046
-0.00055049
0.00181613
-0.000570973
0.00184241
-0.000591204
0.00186925
-0.000611128
0.00189657
-0.000630674
0.00192431
-0.000649767
0.00195238
-0.000668321
0.00198071
-0.000686233
0.00200922
-0.000703395
0.00203781
-0.000719684
0.00206642
-0.000734969
0.00209495
-0.000749109
0.00212332
-0.000761961
0.00215144
-0.000773376
0.00217925
-0.000783209
0.00220666
-0.000791324
0.00223361
-0.000797593
0.00226003
-0.000801905
0.00228587
-0.000804172
0.00231108
-0.000804329
0.00233562
-0.000802341
0.00235946
-0.000798206
-0.000791955
0.00173652
0.000108224
0.00172151
9.08908e-05
0.0017081
7.35074e-05
0.00169622
5.60154e-05
0.00168575
3.83766e-05
0.00167642
2.02147e-05
0.00166908
1.41761e-06
0.00166286
-1.60943e-05
0.00165807
-3.43469e-05
0.00165464
-5.27014e-05
0.00165255
-7.12207e-05
0.00165174
-8.99002e-05
0.00165218
-0.000108772
0.00165386
-0.00012789
0.00165676
-0.000147314
0.00166087
-0.000167024
0.00166618
-0.000187002
0.00167268
-0.000207254
0.00168035
-0.000227772
0.00168919
-0.000248539
0.00169916
-0.000269539
0.00171026
-0.000290757
0.00172247
-0.000312167
0.00173576
-0.000333746
0.00175012
-0.000355469
0.00176552
-0.000377307
0.00178193
-0.000399231
0.00179933
-0.000421208
0.00181768
-0.000443208
0.00183694
-0.000465195
0.00185707
-0.000487134
0.00187804
-0.000508991
0.00189979
-0.000530724
0.00192228
-0.000552297
0.00194545
-0.00057366
0.00196924
-0.000594766
0.0019936
-0.000615561
0.00201845
-0.000635981
0.00204374
-0.000655957
0.00206938
-0.000675408
0.0020953
-0.000694245
0.00212144
-0.000712365
0.0021477
-0.000729658
0.00217401
-0.000745998
0.0022003
-0.000761256
0.00222648
-0.000775291
0.00225248
-0.000787961
0.00227823
-0.000799121
0.00230365
-0.00080863
0.00232868
-0.000816355
0.00235326
-0.000822174
0.00237734
-0.000825983
0.00240086
-0.000827699
0.0024238
-0.000827265
0.00244611
-0.000824655
0.00246778
-0.000819872
-0.000812957
0.00196318
0.000129352
0.00194398
0.000110092
0.00192662
9.0868e-05
0.00191102
7.161e-05
0.0018971
5.22997e-05
0.00188473
3.258e-05
0.00187362
1.25359e-05
0.00186475
-7.22381e-06
0.00185708
-2.66839e-05
0.00185096
-4.65793e-05
0.00184631
-6.6571e-05
0.00184307
-8.66591e-05
0.00184119
-0.000106891
0.00184063
-0.000127332
0.00184138
-0.000148068
0.00184343
-0.000169071
0.00184675
-0.000190317
0.00185131
-0.000211817
0.0018571
-0.000233561
0.00186409
-0.000255531
0.00187226
-0.000277709
0.00188158
-0.00030008
0.00189203
-0.000322618
0.00190358
-0.000345297
0.0019162
-0.00036809
0.00192986
-0.000390965
0.00194453
-0.000413893
0.00196016
-0.000436838
0.00197671
-0.000459766
0.00199416
-0.00048264
0.00201245
-0.000505423
0.00203153