/*--------------------------------*- C++ -*----------------------------------*\
  =========                 |
  \\      /  F ield         | OpenFOAM: The Open Source CFD Toolbox
   \\    /   O peration     | Website:  https://openfoam.org
    \\  /    A nd           | Version:  7
     \\/     M anipulation  |
\*---------------------------------------------------------------------------*/
FoamFile
{
    version     2.0;
    format      ascii;
    class       volVectorField;
    location    "165";
    object      U;
}
// * * * * * * * * * * * * * * * * * * * * * * * * * * * * * * * * * * * * * //

dimensions      [0 1 -1 0 0 0 0];

internalField   nonuniform List<vector> 
1987
(
(0.00655381 -0.000800302 -2.27227e-20)
(0.0359043 -0.0010943 1.51826e-20)
(0.0882248 -0.000942399 -4.88041e-21)
(0.147243 -0.000695435 2.12034e-20)
(0.207188 -0.000583102 2.31243e-20)
(0.265081 -0.000642726 -7.40754e-21)
(0.00673472 -0.0126133 2.26116e-20)
(0.0362944 -0.0273096 -1.51098e-20)
(0.0887304 -0.0344214 4.86252e-21)
(0.1478 -0.0366545 -2.1098e-20)
(0.20776 -0.0361883 -2.3015e-20)
(0.265651 -0.0345019 7.37603e-21)
(0.320064 -0.0324131 5.06275e-21)
(0.370687 -0.0302794 -3.52316e-20)
(0.417632 -0.028219 3.98752e-21)
(0.461141 -0.0262573 -5.29292e-21)
(0.501474 -0.0243941 -1.74646e-20)
(0.538874 -0.0226248 -1.63759e-20)
(0.573566 -0.0209445 9.83351e-21)
(0.605757 -0.0193486 1.16009e-20)
(0.635637 -0.0178329 3.16472e-22)
(0.663381 -0.0163933 1.36348e-20)
(0.689148 -0.015026 -1.01495e-20)
(0.713087 -0.0137277 -1.63444e-20)
(0.735333 -0.0124949 5.64399e-21)
(0.756011 -0.0113247 -2.49187e-20)
(0.775235 -0.0102146 -1.54814e-21)
(0.793111 -0.00916324 1.77412e-21)
(0.809742 -0.00816735 -3.76738e-21)
(0.825222 -0.00721555 -7.23151e-21)
(0.839613 -0.00630705 -4.33486e-21)
(0.00752527 -0.0244036 -2.32741e-20)
(0.0380083 -0.0534802 -1.2174e-20)
(0.0908952 -0.0678476 1.27374e-20)
(0.150115 -0.0725598 4.82759e-20)
(0.210056 -0.0717418 -3.48012e-20)
(0.267845 -0.0683122 1.66806e-20)
(0.322129 -0.0639777 -6.05688e-22)
(0.372618 -0.0595397 2.71047e-20)
(0.419436 -0.0552894 -5.63912e-21)
(0.462826 -0.0512976 -4.01723e-21)
(0.503047 -0.0475642 7.25917e-20)
(0.540342 -0.0440732 7.65446e-22)
(0.574937 -0.0408074 -7.47645e-20)
(0.607037 -0.0377507 3.62852e-20)
(0.636831 -0.0348883 6.61879e-21)
(0.664494 -0.0322065 -1.35607e-20)
(0.690187 -0.0296928 2.69122e-20)
(0.714055 -0.0273358 1.72982e-21)
(0.736235 -0.0251248 -2.34045e-20)
(0.756851 -0.0230501 8.46484e-20)
(0.776015 -0.0211033 2.48382e-20)
(0.793836 -0.0192783 -3.56515e-20)
(0.810419 -0.0175656 -1.67777e-20)
(0.825857 -0.0159431 -2.87415e-21)
(0.840183 -0.0144106 6.49095e-21)
(0.00892245 -0.0361231 4.7027e-20)
(0.0410406 -0.0795111 1.36939e-21)
(0.0947132 -0.101112 6.11713e-20)
(0.154184 -0.108305 -8.98359e-20)
(0.21407 -0.107146 9.97711e-20)
(0.271659 -0.101986 8.42012e-21)
(0.325694 -0.0954171 8.79986e-21)
(0.37593 -0.088685 -1.49076e-20)
(0.422508 -0.0822538 -4.84948e-20)
(0.465675 -0.0762402 7.98225e-21)
(0.505689 -0.070644 1.28087e-20)
(0.542794 -0.0654381 -4.61185e-20)
(0.577212 -0.0605931 7.63681e-21)
(0.609148 -0.0560813 -4.09323e-20)
(0.638791 -0.0518775 7.85195e-20)
(0.666314 -0.0479585 3.02411e-20)
(0.691876 -0.0443029 -4.48426e-21)
(0.715623 -0.0408914 9.09081e-20)
(0.737691 -0.037706 -2.39473e-20)
(0.758202 -0.0347302 -5.1063e-20)
(0.777268 -0.03195 3.05023e-20)
(0.794997 -0.0293546 7.03593e-20)
(0.811501 -0.0269276 3.3948e-20)
(0.82687 -0.0246364 5.97386e-20)
(0.841092 -0.0224834 3.11069e-20)
(0.0109199 -0.0477236 -2.22813e-20)
(0.0453795 -0.105308 3.51639e-20)
(0.100171 -0.134106 -1.10998e-19)
(0.159994 -0.143783 8.7175e-20)
(0.219792 -0.142302 2.12739e-20)
(0.277084 -0.135434 4.96172e-21)
(0.330752 -0.126652 -6.60163e-20)
(0.380616 -0.117644 -4.42055e-20)
(0.426841 -0.109047 7.7333e-20)
(0.469681 -0.101026 -3.08199e-20)
(0.509395 -0.0935796 -2.4925e-21)
(0.546223 -0.0866705 1.29038e-19)
(0.580385 -0.0802568 4.17816e-20)
(0.612086 -0.0742997 -2.5284e-21)
(0.641512 -0.0687634 -2.48494e-20)
(0.668835 -0.0636153 -1.05915e-19)
(0.694212 -0.0588253 -1.04472e-20)
(0.717788 -0.0543661 -9.2003e-20)
(0.739697 -0.0502125 -8.64563e-20)
(0.760062 -0.0463414 9.86827e-21)
(0.778991 -0.0427332 -3.55116e-20)
(0.796594 -0.039372 1.27103e-20)
(0.812988 -0.0362347 -4.12814e-20)
(0.828261 -0.0332784 -1.3022e-19)
(0.842341 -0.0305108 -1.91155e-20)
(0.0135078 -0.0591579 -3.58616e-20)
(0.0510069 -0.130777 1.28051e-19)
(0.10725 -0.166722 -1.61674e-19)
(0.167527 -0.178889 -5.8516e-20)
(0.227205 -0.177115 -4.58559e-20)
(0.284106 -0.168571 -4.71987e-20)
(0.33729 -0.157605 2.43183e-19)
(0.386663 -0.146345 -8.66957e-20)
(0.432425 -0.135605 -8.70534e-20)
(0.474837 -0.125596 1.25347e-19)
(0.514156 -0.116317 -1.24512e-19)
(0.550621 -0.107721 -6.5503e-20)
(0.584451 -0.099754 -7.68023e-20)
(0.615845 -0.0923652 4.79987e-20)
(0.644989 -0.0855089 9.54033e-21)
(0.672052 -0.079143 -2.19128e-19)
(0.697189 -0.0732289 9.21051e-20)
(0.720545 -0.0677315 -6.64886e-20)
(0.742251 -0.0626184 1.54983e-19)
(0.762427 -0.05786 5.89885e-20)
(0.781181 -0.053431 -5.31189e-20)
(0.798621 -0.0493108 -8.83187e-20)
(0.814876 -0.0454686 -1.37395e-20)
(0.830025 -0.0418519 1.0671e-19)
(0.843928 -0.0384777 7.21352e-20)
(0.0166731 -0.0703793 1.39204e-19)
(0.0578986 -0.155827 4.20697e-20)
(0.115923 -0.198855 9.71511e-20)
(0.176756 -0.213519 9.16923e-20)
(0.236287 -0.211488 -6.4154e-20)
(0.292705 -0.201309 1.09569e-19)
(0.34529 -0.188196 6.69438e-20)
(0.394057 -0.174718 3.35301e-19)
(0.439246 -0.161864 -1.44273e-20)
(0.481128 -0.149892 2.15598e-21)
(0.519961 -0.138804 2.28417e-19)
(0.555979 -0.128542 7.18591e-20)
(0.589399 -0.119041 8.95664e-20)
(0.620416 -0.110238 -1.66061e-19)
(0.649214 -0.102077 -4.51344e-20)
(0.675958 -0.0945082 1.20987e-19)
(0.700803 -0.0874834 1.25294e-19)
(0.723888 -0.08096 -3.18055e-20)
(0.745345 -0.0748984 -1.25272e-19)
(0.765292 -0.0692626 2.64824e-20)
(0.783833 -0.0640222 1.48757e-20)
(0.801076 -0.0591512 6.71667e-20)
(0.81716 -0.0546112 8.0585e-20)
(0.83216 -0.0503401 -6.38712e-20)
(0.845849 -0.0463694 -4.19657e-20)
(0.0203996 -0.0813421 -7.44963e-20)
(0.0660243 -0.180367 -8.30962e-20)
(0.126156 -0.230398 6.35186e-20)
(0.187652 -0.247571 1.27429e-19)
(0.247011 -0.245327 -1.97328e-20)
(0.302856 -0.233565 -1.45799e-19)
(0.35473 -0.218351 -2.044e-19)
(0.402777 -0.202694 -2.66699e-19)
(0.447285 -0.18776 -4.44503e-20)
(0.488538 -0.173856 -6.10107e-20)
(0.526794 -0.160988 -7.00099e-20)
(0.562283 -0.149086 -2.468e-19)
(0.595217 -0.138073 1.3154e-20)
(0.625788 -0.127877 2.86901e-19)
(0.654176 -0.118432 -1.98174e-19)
(0.680544 -0.109678 -7.43445e-20)
(0.705043 -0.101559 -2.27737e-19)
(0.72781 -0.0940237 9.10809e-20)
(0.748975 -0.0870271 9.62791e-20)
(0.768652 -0.0805263 -2.65318e-19)
(0.786941 -0.0744855 8.37886e-20)
(0.803953 -0.0688741 1.23855e-19)
(0.819837 -0.0636446 3.0114e-20)
(0.834661 -0.0587263 9.36648e-20)
(0.848101 -0.0541709 -1.58521e-20)
(0.0246677 -0.0920019 -1.88352e-20)
(0.0753476 -0.204307 2.8128e-20)
(0.137909 -0.261251 -5.86236e-21)
(0.200177 -0.280942 2.2033e-19)
(0.259343 -0.278539 1.71361e-19)
(0.314531 -0.265253 3.20328e-20)
(0.365586 -0.247994 7.71018e-20)
(0.412801 -0.230205 1.44474e-19)
(0.456523 -0.213232 3.37797e-20)
(0.49705 -0.197433 1.27312e-20)
(0.534639 -0.182817 1.31469e-19)
(0.569517 -0.169305 -5.46119e-20)
(0.60189 -0.156809 -4.08304e-20)
(0.631948 -0.145246 -2.08517e-19)
(0.659865 -0.134539 7.56834e-21)
(0.6858 -0.12462 1.16277e-19)
(0.7099 -0.115425 1.22219e-20)
(0.732302 -0.106896 -4.45936e-20)
(0.75313 -0.0989798 -1.76474e-19)
(0.772497 -0.0916282 1.27341e-19)
(0.7905 -0.0848003 -3.14215e-19)
(0.807246 -0.0784602 -1.24291e-19)
(0.822899 -0.0725512 8.82603e-20)
(0.837522 -0.0669941 -1.68906e-19)
(0.850681 -0.0618673 -9.16915e-20)
(0.029455 -0.102316 -1.77309e-20)
(0.0858264 -0.227563 -1.03638e-19)
(0.151137 -0.291312 -2.74616e-19)
(0.214287 -0.313536 -3.45253e-19)
(0.273244 -0.311032 -1.99682e-19)
(0.327694 -0.296292 1.35753e-19)
(0.377826 -0.27705 -3.27386e-19)
(0.424101 -0.257184 -3.33673e-20)
(0.466933 -0.238219 1.86922e-19)
(0.506639 -0.220567 -2.10916e-20)
(0.543475 -0.204242 -3.15853e-19)
(0.577662 -0.189155 3.22628e-19)
(0.609403 -0.175206 1.7602e-19)
(0.638881 -0.162304 3.63226e-20)
(0.666265 -0.150362 2.69202e-19)
(0.691711 -0.139302 1.65091e-19)
(0.715363 -0.129053 -2.73372e-20)
(0.737353 -0.11955 3.16709e-19)
(0.757802 -0.110732 -2.67176e-20)
(0.776821 -0.102546 1.36856e-19)
(0.7945 -0.094946 1.63183e-19)
(0.810948 -0.0878909 -1.42674e-19)
(0.826341 -0.0813137 -1.53735e-19)
(0.840737 -0.0751274 1.15853e-19)
(0.853585 -0.0694442 -1.52551e-19)
(0.0347358 -0.112242 2.33573e-19)
(0.0974128 -0.250051 -1.6434e-19)
(0.165786 -0.320485 1.84264e-20)
(0.229931 -0.345254 -5.98464e-20)
(0.28867 -0.342719 -5.62884e-20)
(0.342309 -0.326602 -2.66801e-19)
(0.391416 -0.305448 1.9172e-19)
(0.436647 -0.283565 3.41058e-19)
(0.478489 -0.262662 -1.66186e-19)
(0.517281 -0.243205 -1.50212e-19)
(0.553279 -0.225213 4.9025e-19)
(0.586699 -0.208589 -3.32501e-19)
(0.617735 -0.193224 -4.80561e-19)
(0.646568 -0.179015 -2.7957e-20)
(0.673361 -0.165867 7.38928e-20)
(0.698265 -0.153693 -2.13946e-19)
(0.721419 -0.142415 9.4869e-20)
(0.742951 -0.131959 -4.03537e-19)
(0.76298 -0.122261 3.40229e-19)
(0.781612 -0.113259 -5.85427e-20)
(0.798933 -0.104903 2.93709e-20)
(0.81505 -0.0971479 9.25502e-20)
(0.830155 -0.0899154 8.61634e-20)
(0.8443 -0.0831105 -6.74092e-20)
(0.856806 -0.0768871 -1.34198e-20)
(0.0404819 -0.121742 -1.44217e-19)
(0.110053 -0.271689 1.04165e-19)
(0.181797 -0.348675 -7.50671e-20)
(0.247055 -0.376004 2.78297e-19)
(0.305572 -0.373512 6.41655e-20)
(0.35833 -0.356106 -2.85322e-20)
(0.406318 -0.333118 6.34154e-20)
(0.450404 -0.309286 1.02479e-19)
(0.49116 -0.286503 -2.82798e-20)
(0.528948 -0.265293 1.6936e-19)
(0.564025 -0.245682 -3.09132e-19)
(0.596602 -0.227565 7.08631e-20)
(0.626867 -0.210823 1.71701e-19)
(0.654992 -0.195343 1.66229e-19)
(0.681136 -0.181021 -2.07771e-19)
(0.705445 -0.167763 -1.02461e-19)
(0.728053 -0.155482 -4.12998e-20)
(0.749084 -0.144099 3.29829e-19)
(0.768653 -0.133542 -3.26921e-19)
(0.786861 -0.123744 1.01751e-19)
(0.803789 -0.114652 4.61237e-20)
(0.819544 -0.106214 3.13562e-20)
(0.834333 -0.0983398 3.32708e-20)
(0.848203 -0.090928 -1.11259e-19)
(0.860339 -0.0841817 1.76594e-19)
(0.0466619 -0.130777 5.51709e-20)
(0.123689 -0.292403 -2.07339e-19)
(0.199105 -0.375791 3.08499e-19)
(0.265596 -0.405695 -1.25023e-19)
(0.323895 -0.403328 -6.05044e-20)
(0.37571 -0.384726 9.91212e-20)
(0.42249 -0.359992 -2.86146e-19)
(0.465334 -0.334285 -7.32328e-20)
(0.504911 -0.309687 -2.36612e-20)
(0.541609 -0.286782 -2.581e-19)
(0.575686 -0.265603 1.02238e-19)
(0.607347 -0.246041 -9.86239e-20)
(0.636774 -0.227965 1.07682e-19)
(0.66413 -0.211253 5.73397e-21)
(0.689571 -0.195793 1.07147e-19)
(0.713234 -0.181483 3.54867e-19)
(0.735249 -0.168229 -6.98559e-20)
(0.755736 -0.155946 -2.57373e-19)
(0.774806 -0.144554 8.82544e-20)
(0.792555 -0.133982 -3.95156e-19)
(0.809058 -0.124173 2.10617e-19)
(0.82442 -0.11507 5.52119e-20)
(0.838864 -0.106571 8.93524e-20)
(0.852437 -0.0985649 -1.69541e-21)
(0.864179 -0.091314 7.79627e-20)
(0.0532423 -0.139312 1.41147e-19)
(0.138257 -0.312117 2.19728e-19)
(0.217639 -0.401746 1.05147e-19)
(0.285488 -0.434241 -1.04471e-19)
(0.343579 -0.432085 -2.98899e-20)
(0.394398 -0.412391 -1.75324e-20)
(0.439885 -0.386004 -6.82798e-20)
(0.481396 -0.358504 3.2576e-19)
(0.519704 -0.332161 -9.91155e-20)
(0.555229 -0.307622 2.18895e-19)
(0.588231 -0.284933 7.04416e-20)
(0.618907 -0.263976 1.00684e-19)
(0.64743 -0.244612 2.00678e-19)
(0.673961 -0.226711 -3.9772e-19)
(0.698643 -0.210152 -2.14558e-19)
(0.721612 -0.194825 -5.85385e-20)
(0.742991 -0.18063 -1.67756e-19)
(0.762893 -0.167475 2.32122e-19)
(0.781426 -0.155275 5.62045e-20)
(0.798681 -0.143954 2.46565e-19)
(0.814728 -0.13345 -9.37588e-20)
(0.829667 -0.123702 -1.93512e-19)
(0.843741 -0.114594 -8.72199e-20)
(0.856994 -0.106007 1.5323e-19)
(0.868318 -0.0982704 -1.87759e-19)
(0.0601867 -0.147315 3.59943e-20)
(0.153687 -0.330762 2.15508e-22)
(0.237322 -0.426458 -1.3554e-19)
(0.306657 -0.461557 -2.31886e-19)
(0.364559 -0.459708 1.55302e-19)
(0.414335 -0.439031 -1.42433e-19)
(0.458453 -0.411092 1.1443e-19)
(0.498545 -0.381885 -4.40071e-19)
(0.5355 -0.353872 3.02213e-19)
(0.569773 -0.327767 -6.42663e-20)
(0.601625 -0.303628 -2.65202e-19)
(0.631249 -0.281331 3.07229e-20)
(0.65881 -0.260729 -2.78386e-20)
(0.684458 -0.241684 3.17608e-19)
(0.708332 -0.224067 2.57481e-19)
(0.73056 -0.207761 1.0995e-20)
(0.751259 -0.19266 2.60732e-19)
(0.770537 -0.178664 -8.83948e-20)
(0.788497 -0.165684 1.25233e-19)
(0.805226 -0.153639 -1.5274e-19)
(0.820786 -0.142464 1.96201e-19)
(0.835274 -0.132093 -1.0673e-19)
(0.848951 -0.122394 8.76576e-20)
(0.861863 -0.11324 -1.20239e-19)
(0.87275 -0.105037 7.72464e-21)
(0.0674569 -0.154755 -2.49276e-19)
(0.169905 -0.348275 -4.69781e-20)
(0.258071 -0.449847 1.36566e-19)
(0.329026 -0.487564 1.64898e-19)
(0.386767 -0.48612 -1.10662e-19)
(0.435463 -0.464579 4.09697e-19)
(0.478142 -0.435195 -5.73974e-19)
(0.516734 -0.404375 -9.78542e-20)
(0.552255 -0.374772 -1.76961e-19)
(0.5852 -0.347173 -2.11153e-19)
(0.615835 -0.321647 -1.26053e-19)
(0.644343 -0.298069 8.99262e-20)
(0.670883 -0.276283 -3.77238e-21)
(0.695596 -0.256142 4.1784e-20)
(0.718613 -0.237511 1.21548e-19)
(0.740055 -0.220266 -2.65396e-19)
(0.760033 -0.204294 -5.24523e-19)
(0.77865 -0.189491 -2.33838e-20)
(0.796003 -0.175762 -1.63343e-19)
(0.812175 -0.16302 8.15208e-20)
(0.827218 -0.151199 -1.01089e-19)
(0.84123 -0.140227 5.49587e-19)
(0.854485 -0.129957 -2.49349e-19)
(0.867035 -0.120252 -1.46778e-19)
(0.877466 -0.111602 9.87362e-20)
(0.0750122 -0.161605 1.38632e-19)
(0.186835 -0.364595 2.28463e-19)
(0.2798 -0.47184 -2.12707e-19)
(0.352511 -0.512188 -1.47868e-19)
(0.410128 -0.511252 -6.77053e-20)
(0.457716 -0.48897 -2.79157e-19)
(0.498894 -0.458257 2.9647e-19)
(0.535911 -0.425921 2.68672e-19)
(0.569924 -0.394815 1.76758e-19)
(0.601471 -0.365796 3.90242e-19)
(0.630822 -0.338952 -6.68877e-20)
(0.658155 -0.314155 2.77313e-20)
(0.683618 -0.29124 -5.06076e-19)
(0.707346 -0.270055 -2.03306e-19)
(0.72946 -0.250457 -1.44579e-19)
(0.750074 -0.232315 5.10563e-20)
(0.769292 -0.215511 2.39939e-19)
(0.787212 -0.199937 1.85297e-19)
(0.803926 -0.18549 2.06227e-19)
(0.81951 -0.17208 -1.43265e-19)
(0.834012 -0.159639 -2.54458e-19)
(0.84752 -0.14809 -2.76566e-19)
(0.860329 -0.13727 2.49626e-19)
(0.8725 -0.127029 -9.88142e-20)
(0.882459 -0.117952 -1.35149e-19)
(0.0828101 -0.167839 3.12974e-19)
(0.204393 -0.379666 -1.73659e-19)
(0.302415 -0.492368 2.9785e-19)
(0.377025 -0.535357 -3.61424e-19)
(0.434564 -0.535037 3.66776e-19)
(0.481025 -0.512145 1.11159e-19)
(0.520649 -0.480224 2.02293e-19)
(0.556024 -0.446477 -1.15528e-19)
(0.588458 -0.413957 1.90395e-19)
(0.61854 -0.383598 -2.102e-19)
(0.646546 -0.355507 2.68045e-19)
(0.672648 -0.329555 1.89199e-19)
(0.696984 -0.305572 8.00217e-21)
(0.719678 -0.283396 2.75527e-19)
(0.740845 -0.262879 -9.60333e-21)
(0.760592 -0.243885 2.58956e-19)
(0.779015 -0.22629 1.38884e-20)
(0.796205 -0.20998 2.64286e-19)
(0.812248 -0.194849 -8.9177e-20)
(0.827217 -0.180803 -3.67237e-19)
(0.84115 -0.167769 3.45651e-19)
(0.854132 -0.155669 -1.61431e-19)
(0.866473 -0.14432 -1.701e-19)
(0.878245 -0.133561 8.3464e-20)
(0.887721 -0.124075 -2.93963e-20)
(0.0908067 -0.173436 -1.62733e-19)
(0.222495 -0.393438 4.86104e-20)
(0.325819 -0.511368 -1.00999e-19)
(0.402474 -0.557005 2.92469e-19)
(0.459992 -0.557413 -4.44529e-19)
(0.505319 -0.534048 -3.29079e-20)
(0.543344 -0.501045 -3.36391e-19)
(0.577016 -0.465996 1.70792e-19)
(0.607808 -0.432156 -1.16981e-19)
(0.636363 -0.400541 -1.46789e-19)
(0.662967 -0.371278 -1.41704e-19)
(0.687784 -0.344239 -4.1491e-19)
(0.710944 -0.319248 1.16499e-19)
(0.732562 -0.296138 9.25402e-20)
(0.752742 -0.274754 7.32259e-20)
(0.771584 -0.254954 -5.64432e-21)
(0.789177 -0.23661 1.42903e-19)
(0.805605 -0.219604 -1.34295e-19)
(0.82095 -0.203824 1.64906e-19)
(0.835277 -0.189172 -5.30345e-20)
(0.848618 -0.175575 8.16917e-20)
(0.861051 -0.162951 -7.08863e-21)
(0.872903 -0.151097 3.91037e-19)
(0.884261 -0.139835 -3.53327e-20)
(0.893244 -0.129959 1.41884e-22)
(0.0989563 -0.178378 -1.7156e-19)
(0.241049 -0.405867 1.14894e-19)
(0.349912 -0.528782 7.44129e-20)
(0.428762 -0.577072 6.11677e-20)
(0.486326 -0.578322 1.84846e-19)
(0.530523 -0.554625 2.93938e-19)
(0.566912 -0.520673 1.06398e-19)
(0.598828 -0.484437 -3.51264e-19)
(0.627919 -0.449375 1.16912e-19)
(0.654891 -0.416589 2.33748e-19)
(0.68004 -0.386233 1.26866e-19)
(0.703525 -0.358178 4.20968e-19)
(0.725465 -0.332243 4.25244e-19)
(0.745964 -0.308257 -3.17552e-19)
(0.765121 -0.286058 -6.70155e-20)
(0.783023 -0.265502 -5.66333e-20)
(0.799755 -0.246453 -4.94118e-19)
(0.815392 -0.22879 -7.33585e-20)
(0.830011 -0.212398 -4.35075e-19)
(0.843673 -0.197175 5.12672e-19)
(0.856399 -0.183045 -2.36187e-19)
(0.868262 -0.169924 2.00392e-19)
(0.879605 -0.15759 -3.07301e-19)
(0.890536 -0.145843 4.39246e-19)
(0.899018 -0.135594 -9.10549e-20)
(0.107212 -0.182649 5.16719e-20)
(0.259964 -0.416913 7.00703e-20)
(0.374587 -0.544558 5.73835e-20)
(0.455786 -0.595502 -1.25022e-20)
(0.513476 -0.59771 3.43969e-20)
(0.556557 -0.573828 -1.83315e-19)
(0.591286 -0.539066 6.15838e-20)
(0.6214 -0.50176 1.32165e-19)
(0.648738 -0.465579 6.09922e-20)
(0.674075 -0.431713 -7.56524e-21)
(0.697721 -0.400343 -3.62058e-19)
(0.719829 -0.371344 3.01578e-19)
(0.740508 -0.344533 -4.44356e-19)
(0.759852 -0.319731 1.29303e-19)
(0.77795 -0.296773 1.98809e-19)
(0.794881 -0.275509 -1.69292e-19)
(0.810722 -0.255801 1.82027e-19)
(0.825542 -0.237523 2.87539e-19)
(0.839411 -0.220557 1.18902e-19)
(0.852384 -0.204797 -9.90896e-20)
(0.864476 -0.190166 -1.42865e-19)
(0.87575 -0.176578 -2.74811e-19)
(0.886567 -0.163789 -1.32509e-20)
(0.897057 -0.151576 -1.77339e-19)
(0.905037 -0.140969 5.76296e-20)
(0.115526 -0.186237 2.14969e-20)
(0.279145 -0.426544 -1.43119e-19)
(0.399734 -0.558651 -1.69867e-19)
(0.483442 -0.612245 8.62237e-20)
(0.541346 -0.615529 -7.42865e-20)
(0.58334 -0.591614 2.0831e-19)
(0.616393 -0.556182 -5.57071e-20)
(0.644667 -0.517931 -4.95823e-20)
(0.670208 -0.480736 1.07514e-19)
(0.693864 -0.445882 2.73556e-20)
(0.715964 -0.413582 4.0654e-19)
(0.736655 -0.383715 -1.4205e-19)
(0.756036 -0.356095 2.71119e-20)
(0.774191 -0.33054 4.62267e-21)
(0.791198 -0.306879 1.21735e-20)
(0.80713 -0.284959 5.15758e-21)
(0.822054 -0.264639 7.25175e-21)
(0.836032 -0.245789 -2.0374e-19)
(0.849127 -0.228288 1.70983e-19)
(0.861391 -0.212026 -1.48826e-19)
(0.87283 -0.196927 2.13945e-19)
(0.883499 -0.182903 9.88985e-20)
(0.893774 -0.169688 -2.39397e-20)
(0.903814 -0.157026 1.49581e-19)
(0.911292 -0.146077 4.85526e-20)
(0.123849 -0.189134 1.14963e-19)
(0.298492 -0.434732 2.32678e-20)
(0.425241 -0.57102 1.42306e-19)
(0.511619 -0.627256 1.31379e-19)
(0.56984 -0.631735 -2.07739e-19)
(0.610786 -0.607941 -1.71165e-19)
(0.642161 -0.571988 6.37794e-20)
(0.668566 -0.532918 4.99704e-20)
(0.69227 -0.494817 4.36149e-20)
(0.714206 -0.459071 -4.12035e-19)
(0.734721 -0.425926 -1.84201e-19)
(0.753959 -0.395268 -2.26466e-19)
(0.772009 -0.36691 1.90406e-20)
(0.788945 -0.340664 -4.89379e-20)
(0.804834 -0.316359 -1.09401e-19)
(0.81974 -0.293836 2.69528e-19)
(0.833722 -0.272952 -4.1396e-19)
(0.846836 -0.253575 -4.44915e-20)
(0.859138 -0.235579 1.27884e-19)
(0.870674 -0.218853 1.8401e-19)
(0.881443 -0.203319 9.63169e-20)
(0.891492 -0.188891 -2.08095e-19)
(0.901211 -0.175278 8.83974e-21)
(0.910795 -0.16219 -1.04994e-19)
(0.917778 -0.150909 -1.22287e-19)
(0.132133 -0.191334 -7.6591e-20)
(0.317907 -0.441458 -9.90817e-21)
(0.450991 -0.581634 -1.30876e-20)
(0.540206 -0.640497 -4.57846e-20)
(0.598858 -0.64629 1.51967e-19)
(0.63881 -0.622774 -2.32074e-19)
(0.668512 -0.58645 -1.06137e-21)
(0.693029 -0.546692 -2.17409e-19)
(0.714864 -0.507798 -1.11139e-20)
(0.735045 -0.471257 1.02794e-19)
(0.753943 -0.437354 -1.33785e-19)
(0.771697 -0.405985 4.15556e-19)
(0.788388 -0.376959 2.47892e-19)
(0.804077 -0.350089 1.13137e-19)
(0.818823 -0.325198 6.20136e-20)
(0.83268 -0.302126 -9.42193e-21)
(0.8457 -0.280728 2.55799e-19)
(0.857929 -0.260867 -8.82775e-20)
(0.86942 -0.242418 -3.46898e-19)
(0.880212 -0.225265 -1.00683e-19)
(0.890296 -0.209332 -2.2513e-19)
(0.89971 -0.194533 2.1785e-19)
(0.908861 -0.180556 4.93335e-20)
(0.917988 -0.167062 7.64877e-20)
(0.924488 -0.155461 4.26807e-19)
(0.140328 -0.192836 4.11651e-20)
(0.337288 -0.446705 -2.67131e-20)
(0.476866 -0.590465 -6.05304e-20)
(0.569087 -0.651935 -1.91286e-19)
(0.628294 -0.659159 -9.69298e-20)
(0.66732 -0.636082 2.17793e-19)
(0.695369 -0.599543 5.30513e-20)
(0.717988 -0.559231 4.26182e-20)
(0.73793 -0.519657 1.07148e-19)
(0.756328 -0.48242 4.85855e-20)
(0.77358 -0.447849 7.94263e-20)
(0.789824 -0.415847 -3.05203e-19)
(0.80513 -0.386228 -3.64153e-19)
(0.81955 -0.358799 -1.88289e-19)
(0.833132 -0.333383 8.89444e-20)
(0.845921 -0.309817 6.05317e-20)
(0.857959 -0.287954 -1.40516e-19)
(0.869287 -0.267657 3.93226e-20)
(0.87995 -0.248796 1.75346e-20)
(0.889983 -0.231256 -7.00158e-20)
(0.899368 -0.214958 9.65365e-20)
(0.908134 -0.199824 1.63339e-19)
(0.916707 -0.185517 1.04428e-19)
(0.92538 -0.171644 -1.3499e-19)
(0.931421 -0.15973 -4.22756e-19)
(0.148385 -0.193642 -2.37291e-20)
(0.356532 -0.450467 -4.31618e-20)
(0.502745 -0.597495 -3.09048e-20)
(0.598143 -0.661545 6.17372e-20)
(0.658043 -0.670316 -5.87645e-20)
(0.696225 -0.647839 -9.82246e-20)
(0.722653 -0.611241 -1.30685e-19)
(0.743373 -0.570512 1.27856e-20)
(0.761406 -0.530375 -1.18924e-19)
(0.777999 -0.492545 3.51476e-19)
(0.793582 -0.457394 -2.01581e-19)
(0.808294 -0.424843 1.19359e-19)
(0.822196 -0.394703 2.93426e-19)
(0.835327 -0.366782 2.07456e-19)
(0.847727 -0.340902 -3.46732e-19)
(0.85943 -0.316899 1.13602e-19)
(0.870471 -0.294622 5.69381e-20)
(0.880883 -0.273934 -3.50974e-20)
(0.890704 -0.254705 2.23364e-19)
(0.899965 -0.236816 -1.6436e-19)
(0.908641 -0.220191 2.49467e-20)
(0.916745 -0.204757 -1.96858e-19)
(0.924729 -0.19016 -2.18773e-19)
(0.932959 -0.175939 7.63394e-20)
(0.938576 -0.163722 1.55196e-19)
(0.156253 -0.193758 2.8424e-21)
(0.375535 -0.452744 4.25767e-20)
(0.528505 -0.602712 1.40635e-20)
(0.627253 -0.669306 3.35601e-20)
(0.687997 -0.679737 8.35718e-20)
(0.72543 -0.658023 6.1596e-20)
(0.750282 -0.621527 -3.38915e-20)
(0.769112 -0.58052 1.39473e-19)
(0.785228 -0.539939 -1.156e-20)
(0.8 -0.501618 -1.04439e-19)
(0.813897 -0.465979 2.38226e-19)
(0.827061 -0.432959 7.12953e-20)
(0.839541 -0.402374 -2.17565e-19)
(0.85137 -0.37403 -1.50968e-19)
(0.862573 -0.347747 1.9435e-19)
(0.873177 -0.323361 -2.01986e-19)
(0.883208 -0.300722 -7.9019e-20)
(0.89269 -0.27969 2.57384e-20)
(0.901657 -0.260137 1.38069e-20)
(0.910136 -0.241939 1.7907e-19)
(0.918093 -0.225023 -1.72488e-20)
(0.925522 -0.209324 3.22416e-20)
(0.9329 -0.194479 1.63525e-19)
(0.940704 -0.179954 1.14388e-19)
(0.945959 -0.167446 1.08772e-19)
(0.163885 -0.193192 -5.79913e-21)
(0.394194 -0.453539 -7.00944e-20)
(0.554021 -0.60611 -3.69058e-20)
(0.656294 -0.675206 -5.41305e-21)
(0.718043 -0.687406 -2.83166e-20)
(0.754839 -0.666619 -1.15429e-20)
(0.778173 -0.630386 -6.81772e-20)
(0.795135 -0.589243 6.64845e-20)
(0.809333 -0.548338 -1.47954e-19)
(0.822275 -0.509628 -7.12582e-20)
(0.834474 -0.473594 -2.61073e-20)
(0.846077 -0.440189 3.01442e-21)
(0.857125 -0.409232 3.93887e-20)
(0.867639 -0.380533 3.37362e-20)
(0.877634 -0.35391 -3.53648e-20)
(0.887129 -0.329198 -4.87597e-20)
(0.89614 -0.306247 3.54406e-19)
(0.904683 -0.28492 -1.96669e-20)
(0.912785 -0.265085 5.08307e-20)
(0.920473 -0.246619 5.39824e-20)
(0.927705 -0.22945 -2.35599e-20)
(0.934447 -0.213523 1.67922e-19)
(0.941194 -0.198477 -8.20489e-20)
(0.948591 -0.183709 -9.56156e-20)
(0.953588 -0.170934 2.11055e-19)
(0.171232 -0.191958 2.98041e-20)
(0.412406 -0.452868 6.6874e-20)
(0.579168 -0.607693 -2.21702e-20)
(0.68514 -0.679237 5.99461e-20)
(0.748068 -0.693312 1.70752e-20)
(0.784354 -0.673613 -3.45568e-20)
(0.806244 -0.637807 5.6188e-20)
(0.821368 -0.596671 -3.65357e-20)
(0.833657 -0.555563 6.33789e-20)
(0.844766 -0.516571 -6.08131e-20)
(0.855261 -0.480233 -1.45361e-19)
(0.865296 -0.446525 -7.95416e-20)
(0.874905 -0.415273 -3.22554e-20)
(0.884096 -0.386286 -4.25945e-20)
(0.892877 -0.359385 3.39355e-20)
(0.901255 -0.334404 2.86194e-20)
(0.909238 -0.311194 -2.68094e-19)
(0.916834 -0.289617 -8.0448e-20)
(0.924064 -0.269544 -2.38279e-19)
(0.930952 -0.250851 -6.02268e-21)
(0.937457 -0.233464 1.47664e-19)
(0.943505 -0.217339 -1.8644e-19)
(0.949574 -0.202126 -2.32185e-19)
(0.956558 -0.18717 -2.62691e-20)
(0.961488 -0.174216 -2.05634e-19)
(0.178248 -0.190073 -1.04478e-19)
(0.430066 -0.450748 6.23817e-20)
(0.60382 -0.607469 9.41878e-20)
(0.713666 -0.681401 6.12012e-22)
(0.777959 -0.697449 -4.9916e-20)
(0.813877 -0.678999 3.53875e-21)
(0.834408 -0.643785 -8.80467e-21)
(0.847739 -0.6028 -4.33399e-21)
(0.858135 -0.561612 3.76507e-20)
(0.867416 -0.522442 4.46952e-20)
(0.876207 -0.485893 1.03096e-19)
(0.884672 -0.451965 3.57067e-21)
(0.892838 -0.420493 4.24139e-20)
(0.900704 -0.391287 2.58214e-21)
(0.908266 -0.364169 -9.70274e-20)
(0.915522 -0.338975 1.47695e-19)
(0.922473 -0.315557 -4.96535e-20)
(0.929117 -0.293778 1.07456e-19)
(0.935468 -0.27351 1.63273e-19)
(0.941549 -0.254631 -2.1638e-20)
(0.947326 -0.237064 -2.92788e-19)
(0.952684 -0.220781 1.52931e-19)
(0.958015 -0.205465 -6.22941e-22)
(0.964503 -0.190492 -1.17973e-19)
(0.969702 -0.177671 -6.41175e-20)
(0.184886 -0.187556 4.5455e-20)
(0.447074 -0.447208 -8.61761e-20)
(0.627851 -0.605458 -1.83165e-19)
(0.741742 -0.681704 -5.13537e-20)
(0.807597 -0.699819 3.99541e-20)
(0.843305 -0.682776 1.46113e-20)
(0.86258 -0.648318 2.92203e-20)
(0.874173 -0.60763 2.81371e-21)
(0.882702 -0.566485 -2.40477e-20)
(0.890167 -0.527242 5.37245e-21)
(0.897259 -0.490574 -7.45913e-20)
(0.904156 -0.456509 -3.49254e-20)
(0.910881 -0.42489 3.95457e-20)
(0.917422 -0.395533 -6.50485e-20)
(0.923765 -0.36826 4.12076e-20)
(0.929899 -0.34291 -5.41126e-20)
(0.935816 -0.319335 6.28375e-20)
(0.941507 -0.2974 9.61612e-20)
(0.946975 -0.27698 -1.52158e-19)
(0.952242 -0.257953 1.753e-19)
(0.957292 -0.240239 -4.17472e-20)
(0.961991 -0.223806 5.88365e-20)
(0.96655 -0.208352 4.41127e-20)
(0.972273 -0.193268 3.49007e-19)
(0.978246 -0.180398 -4.45151e-20)
(0.191103 -0.184432 -1.62204e-21)
(0.463331 -0.442282 8.50193e-20)
(0.651135 -0.601682 2.24008e-19)
(0.769241 -0.68016 -5.2077e-20)
(0.836866 -0.700427 -1.49305e-20)
(0.872538 -0.684948 3.99812e-20)
(0.890674 -0.651409 3.55356e-20)
(0.900596 -0.611165 -1.69709e-21)
(0.907295 -0.570186 -4.93927e-21)
(0.912963 -0.530974 2.8561e-20)
(0.918366 -0.494278 4.30348e-20)
(0.923704 -0.460158 4.45656e-20)
(0.928993 -0.428468 -4.22452e-20)
(0.934213 -0.399026 6.06747e-20)
(0.939341 -0.37166 3.21985e-20)
(0.944355 -0.346209 1.09607e-20)
(0.949239 -0.322527 2.75481e-20)
(0.953977 -0.300482 -2.77664e-19)
(0.958563 -0.279951 -1.31365e-21)
(0.963011 -0.260817 2.35483e-20)
(0.967326 -0.242995 1.47895e-19)
(0.971392 -0.226448 -4.63102e-20)
(0.975203 -0.210979 -9.24755e-21)
(0.979624 -0.196515 -1.8375e-19)
(0.985818 -0.184885 -1.10532e-20)
(0.196856 -0.180727 1.379e-19)
(0.478736 -0.436009 -1.4118e-19)
(0.673548 -0.596175 -2.08157e-19)
(0.796033 -0.676791 1.85759e-19)
(0.865646 -0.699287 -1.45472e-20)
(0.901473 -0.685521 6.0938e-22)
(0.918604 -0.653065 3.17102e-20)
(0.926936 -0.61341 -1.03931e-20)
(0.93185 -0.572721 3.45253e-21)
(0.935745 -0.533645 -1.38225e-20)
(0.939478 -0.497013 -1.23829e-20)
(0.943268 -0.462919 2.1424e-21)
(0.947131 -0.43123 -2.9091e-20)
(0.95104 -0.40177 -8.13004e-21)
(0.954959 -0.374371 -5.92778e-20)
(0.958858 -0.348873 -2.27735e-20)
(0.962713 -0.325134 1.22258e-19)
(0.966502 -0.303024 7.72941e-20)
(0.970207 -0.282423 3.25968e-20)
(0.973834 -0.26322 -4.63269e-20)
(0.977399 -0.245327 1.47549e-20)
(0.980829 -0.22869 8.04382e-20)
(0.983986 -0.213202 -1.43204e-20)
(0.987213 -0.199028 8.6863e-20)
(0.992192 -0.186752 4.16952e-20)
(0.202114 -0.176478 1.03205e-19)
(0.493193 -0.428432 1.10745e-19)
(0.694966 -0.588976 1.81836e-19)
(0.82199 -0.671626 -1.12158e-19)
(0.893818 -0.696417 2.69729e-20)
(0.930007 -0.684511 1.7271e-19)
(0.946282 -0.653298 -2.87134e-20)
(0.953119 -0.614378 -9.27565e-20)
(0.956302 -0.574101 -3.4747e-20)
(0.958459 -0.535265 2.43968e-20)
(0.960543 -0.498787 -1.94904e-20)
(0.962803 -0.464798 5.51145e-22)
(0.965256 -0.433182 1.87127e-20)
(0.967864 -0.40377 -3.1108e-20)
(0.970585 -0.376396 2.52679e-20)
(0.973378 -0.350906 -3.70272e-20)
(0.976211 -0.327159 -5.47683e-20)
(0.979056 -0.305028 9.32018e-20)
(0.981887 -0.284397 5.58325e-20)
(0.984697 -0.26516 3.97545e-20)
(0.987503 -0.247222 -6.43805e-20)
(0.990282 -0.230507 -1.04478e-19)
(0.992867 -0.214959 -5.13675e-20)
(0.995218 -0.200889 4.94336e-20)
(0.998899 -0.188151 8.01889e-20)
(0.20687 -0.171723 -3.00616e-20)
(0.5066 -0.419591 1.33814e-19)
(0.715265 -0.580134 -2.35383e-19)
(0.846982 -0.664699 -3.19108e-19)
(0.921263 -0.691842 -3.71155e-19)
(0.958035 -0.681935 7.95423e-20)
(0.973621 -0.652124 -4.14031e-20)
(0.97907 -0.614084 4.57829e-20)
(0.980589 -0.574341 4.53369e-21)
(0.981049 -0.535848 3.54023e-20)
(0.981513 -0.499611 -3.47815e-21)
(0.982265 -0.465806 -1.08873e-20)
(0.983326 -0.434334 8.66452e-21)
(0.98465 -0.405034 1.76404e-20)
(0.986186 -0.377744 -7.38522e-21)
(0.987885 -0.352314 3.2876e-20)
(0.989706 -0.328606 -4.61065e-21)
(0.991615 -0.306498 -3.00278e-20)
(0.99358 -0.285875 5.01819e-20)
(0.995582 -0.266636 4.95416e-20)
(0.997636 -0.248682 3.76333e-20)
(0.999758 -0.231914 2.25421e-21)
(1.00181 -0.216316 -7.41941e-21)
(1.00352 -0.202341 3.84091e-20)
(1.00624 -0.189372 -3.859e-20)
(0.211087 -0.166457 2.95361e-21)
(0.518884 -0.409527 -3.53104e-19)
(0.734324 -0.569716 4.33598e-19)
(0.870882 -0.656056 4.18766e-19)
(0.94786 -0.685593 2.22578e-19)
(0.985454 -0.677817 9.67187e-21)
(1.00053 -0.649563 -5.06331e-20)
(1.00472 -0.612546 -5.71936e-20)
(1.00465 -0.573459 8.76384e-20)
(1.00346 -0.535409 -1.64573e-19)
(1.00234 -0.499501 -1.73258e-22)
(1.00161 -0.465957 7.49819e-20)
(1.0013 -0.434697 7.81665e-21)
(1.00136 -0.405571 -6.33898e-22)
(1.00173 -0.378421 5.85005e-21)
(1.00235 -0.353103 -1.75323e-20)
(1.00317 -0.329482 1.18822e-20)
(1.00416 -0.307439 -6.6435e-20)
(1.00527 -0.286862 -5.12326e-20)
(1.00647 -0.267654 -4.60724e-20)
(1.00779 -0.249716 -4.24576e-20)
(1.00926 -0.232931 1.67246e-20)