/*--------------------------------*- C++ -*----------------------------------*\
  =========                 |
  \\      /  F ield         | OpenFOAM: The Open Source CFD Toolbox
   \\    /   O peration     | Website:  https://openfoam.org
    \\  /    A nd           | Version:  7
     \\/     M anipulation  |
\*---------------------------------------------------------------------------*/
FoamFile
{
    version     2.0;
    format      ascii;
    class       volScalarField;
    location    "115";
    object      p;
}
// * * * * * * * * * * * * * * * * * * * * * * * * * * * * * * * * * * * * * //

dimensions      [0 2 -2 0 0 0 0];

internalField   nonuniform List<scalar> 
31800
(
-0.351074
-0.352738
-0.353559
-0.354131
-0.354602
-0.355076
-0.355669
-0.356468
-0.357535
-0.358915
-0.360655
-0.362808
-0.365444
-0.368656
-0.372561
-0.377297
-0.383019
-0.389883
-0.398027
-0.40754
-0.418409
-0.430473
-0.443367
-0.456421
-0.468626
-0.350778
-0.352115
-0.352756
-0.353177
-0.35351
-0.353858
-0.35434
-0.355045
-0.356045
-0.357397
-0.359158
-0.3614
-0.364213
-0.367717
-0.372057
-0.377405
-0.383949
-0.39188
-0.401362
-0.412494
-0.425259
-0.439456
-0.454652
-0.470115
-0.484524
-0.350582
-0.351584
-0.352041
-0.352308
-0.3525
-0.352721
-0.353087
-0.353695
-0.354623
-0.355938
-0.35771
-0.360025
-0.362994
-0.366756
-0.371485
-0.37738
-0.384659
-0.393537
-0.404197
-0.416745
-0.431152
-0.44718
-0.46432
-0.481815
-0.497962
-0.350451
-0.351117
-0.351388
-0.3515
-0.351549
-0.351638
-0.351885
-0.352389
-0.353236
-0.354503
-0.35627
-0.358639
-0.361734
-0.365716
-0.37078
-0.377147
-0.385059
-0.39475
-0.406416
-0.420158
-0.435937
-0.453482
-0.472194
-0.491346
-0.508774
-0.350352
-0.350689
-0.350775
-0.35073
-0.350633
-0.350588
-0.350708
-0.351099
-0.351853
-0.353056
-0.3548
-0.357196
-0.360384
-0.364541
-0.369878
-0.376635
-0.385071
-0.395432
-0.407919
-0.42263
-0.439497
-0.458236
-0.478141
-0.498602
-0.516869
-0.350255
-0.350275
-0.350179
-0.349978
-0.349734
-0.349548
-0.349533
-0.349799
-0.350445
-0.351565
-0.353262
-0.355655
-0.358899
-0.36318
-0.368725
-0.375783
-0.38463
-0.395513
-0.408634
-0.424081
-0.441759
-0.461377
-0.482097
-0.503536
-0.522227
-0.350134
-0.349854
-0.349583
-0.349227
-0.348834
-0.348502
-0.348342
-0.348469
-0.348988
-0.350003
-0.351625
-0.353983
-0.357239
-0.361591
-0.367274
-0.374547
-0.383688
-0.394946
-0.408516
-0.424475
-0.442694
-0.462897
-0.484067
-0.506172
-0.524913
-0.349966
-0.349411
-0.348973
-0.348465
-0.347921
-0.347436
-0.34712
-0.347091
-0.347463
-0.348347
-0.349864
-0.35215
-0.355374
-0.359742
-0.365493
-0.372892
-0.382215
-0.393708
-0.407553
-0.423815
-0.44232
-0.462842
-0.484127
-0.506619
-0.525091
-0.349732
-0.348931
-0.348337
-0.347683
-0.346986
-0.346342
-0.345857
-0.345655
-0.345856
-0.346581
-0.347959
-0.350135
-0.353282
-0.357611
-0.363362
-0.370802
-0.380201
-0.391798
-0.405757
-0.422135
-0.440699
-0.46131
-0.482417
-0.505054
-0.522995
-0.34942
-0.348407
-0.34767
-0.346875
-0.346026
-0.345214
-0.344548
-0.344153
-0.344159
-0.344696
-0.345901
-0.347926
-0.350951
-0.355187
-0.360875
-0.368277
-0.377656
-0.38924
-0.403175
-0.419509
-0.437936
-0.458445
-0.479125
-0.501704
-0.518896
-0.349021
-0.347833
-0.346969
-0.34604
-0.345039
-0.344054
-0.343193
-0.342586
-0.342371
-0.342689
-0.343687
-0.345523
-0.348381
-0.352473
-0.358038
-0.365333
-0.374609
-0.386082
-0.399874
-0.416033
-0.434166
-0.454425
-0.474478
-0.496816
-0.513004
-0.348533
-0.347209
-0.346235
-0.34518
-0.344029
-0.342866
-0.341797
-0.340958
-0.340498
-0.340569
-0.341325
-0.342934
-0.345583
-0.349485
-0.354875
-0.362003
-0.371107
-0.38239
-0.395946
-0.411833
-0.429554
-0.449453
-0.468726
-0.490676
-0.505428
-0.347956
-0.346538
-0.345473
-0.344302
-0.343003
-0.341656
-0.340368
-0.339282
-0.338554
-0.338348
-0.33883
-0.340177
-0.34258
-0.346252
-0.351424
-0.358336
-0.367215
-0.378249
-0.391503
-0.407046
-0.424275
-0.443738
-0.462128
-0.483603
-0.496871
-0.347299
-0.345829
-0.344691
-0.343415
-0.341972
-0.340438
-0.338922
-0.337571
-0.336555
-0.336048
-0.336229
-0.337283
-0.339408
-0.342816
-0.347735
-0.354397
-0.363012
-0.373757
-0.386666
-0.401823
-0.418512
-0.437481
-0.45493
-0.475829
-0.487491
-0.346572
-0.345092
-0.343901
-0.34253
-0.340947
-0.339225
-0.337474
-0.335848
-0.334526
-0.333697
-0.333554
-0.33429
-0.336111
-0.339231
-0.343873
-0.35026
-0.35859
-0.369024
-0.381567
-0.396315
-0.412442
-0.430864
-0.447332
-0.467503
-0.477436
-0.345792
-0.344343
-0.343116
-0.341662
-0.339944
-0.338034
-0.336043
-0.334134
-0.332496
-0.331331
-0.330846
-0.331247
-0.332747
-0.335562
-0.339913
-0.346014
-0.35405
-0.364168
-0.376341
-0.390667
-0.406225
-0.424032
-0.439488
-0.458695
-0.466817
-0.344979
-0.343599
-0.342354
-0.340826
-0.33898
-0.336884
-0.334653
-0.332456
-0.330496
-0.328987
-0.328152
-0.328208
-0.329378
-0.331882
-0.335938
-0.341754
-0.3495
-0.359308
-0.371117
-0.385013
-0.399992
-0.417087
-0.431496
-0.449409
-0.455673
-0.344159
-0.342881
-0.341633
-0.340041
-0.338072
-0.335794
-0.333326
-0.330844
-0.328562
-0.326709
-0.325522
-0.325234
-0.326075
-0.328271
-0.332039
-0.33758
-0.345049
-0.354557
-0.366011
-0.379461
-0.393837
-0.410087
-0.423377
-0.439607
-0.443973
-0.343361
-0.342213
-0.340974
-0.339327
-0.337242
-0.334788
-0.332088
-0.329328
-0.326731
-0.324542
-0.323012
-0.322388
-0.322911
-0.324812
-0.328308
-0.333591
-0.3408
-0.350021
-0.36112
-0.374089
-0.387805
-0.403039
-0.415088
-0.429247
-0.43167
-0.342618
-0.341623
-0.340403
-0.338705
-0.33651
-0.333887
-0.330966
-0.327939
-0.325042
-0.322533
-0.320677
-0.319735
-0.319959
-0.321587
-0.324833
-0.32988
-0.336846
-0.345783
-0.35651
-0.368937
-0.381888
-0.395905
-0.406535
-0.418319
-0.418768
-0.341967
-0.341139
-0.339943
-0.3382
-0.335902
-0.333119
-0.329988
-0.326712
-0.323535
-0.320728
-0.318571
-0.317339
-0.317292
-0.318674
-0.321696
-0.326528
-0.333261
-0.341901
-0.352211
-0.363996
-0.376032
-0.388616
-0.39762
-0.406855
-0.405351
-0.341448
-0.340792
-0.339622
-0.337836
-0.33544
-0.332508
-0.329185
-0.32568
-0.322249
-0.319175
-0.316749
-0.31526
-0.314976
-0.316143
-0.318967
-0.323597
-0.330092
-0.3384
-0.348213
-0.359217
-0.370149
-0.381089
-0.388273
-0.39494
-0.39157
-0.341103
-0.340615
-0.339468
-0.33764
-0.335151
-0.332082
-0.328584
-0.324876
-0.321223
-0.317916
-0.31526
-0.313552
-0.313067
-0.314049
-0.316695
-0.321126
-0.327358
-0.335265
-0.344464
-0.354514
-0.36414
-0.373252
-0.378484
-0.382702
-0.377632
-0.340973
-0.340642
-0.339509
-0.337639
-0.335063
-0.331869
-0.328218
-0.324335
-0.320493
-0.316993
-0.314147
-0.312259
-0.311608
-0.312432
-0.314909
-0.319124
-0.325039
-0.332445
-0.340881
-0.349785
-0.357918
-0.365067
-0.368311
-0.3703
-0.363749
-0.341101
-0.340901
-0.339777
-0.337859
-0.335201
-0.331896
-0.328114
-0.324086
-0.320092
-0.316438
-0.313443
-0.311414
-0.310627
-0.311308
-0.313608
-0.317568
-0.323084
-0.329858
-0.337362
-0.344929
-0.351425
-0.35654
-0.35787
-0.357905
-0.350119
-0.341525
-0.341426
-0.340296
-0.338326
-0.335589
-0.332186
-0.328296
-0.324154
-0.320044
-0.316276
-0.313171
-0.311032
-0.310129
-0.310669
-0.312765
-0.316405
-0.321412
-0.327405
-0.333804
-0.339871
-0.34464
-0.347717
-0.347299
-0.345668
-0.336894
-0.342283
-0.342245
-0.341092
-0.339062
-0.336249
-0.332762
-0.328786
-0.324559
-0.320367
-0.31652
-0.313336
-0.311112
-0.310101
-0.310482
-0.312326
-0.315556
-0.319927
-0.324982
-0.330119
-0.33457
-0.33758
-0.33867
-0.336722
-0.333656
-0.324158
-0.343405
-0.343381
-0.342185
-0.340084
-0.337199
-0.333639
-0.329595
-0.32531
-0.321065
-0.317169
-0.31393
-0.311632
-0.310506
-0.310693
-0.312213
-0.314927
-0.318523
-0.322495
-0.326245
-0.329024
-0.330296
-0.329494
-0.326218
-0.321763
-0.311887
-0.344913
-0.344853
-0.343595
-0.341406
-0.338449
-0.334825
-0.330731
-0.326408
-0.322134
-0.318208
-0.314927
-0.312554
-0.311288
-0.311227
-0.312337
-0.314417
-0.317104
-0.319871
-0.322154
-0.323269
-0.322867
-0.320326
-0.315845
-0.309746
-0.299912
-0.346827
-0.346675
-0.345319
-0.34305
-0.340008
-0.336323
-0.332189
-0.327844
-0.323556
-0.319613
-0.316291
-0.313825
-0.312379
-0.312001
-0.312601
-0.313928
-0.315587
-0.317062
-0.317847
-0.317358
-0.315393
-0.311332
-0.305726
-0.297662
-0.287969
-0.349154
-0.348858
-0.347377
-0.345006
-0.341875
-0.338129
-0.333961
-0.329601
-0.325307
-0.321347
-0.317972
-0.315385
-0.313703
-0.312926
-0.312912
-0.313373
-0.313911
-0.314044
-0.313349
-0.311358
-0.307968
-0.302639
-0.296029
-0.286492
-0.276128
-0.3519
-0.351407
-0.349768
-0.347276
-0.344047
-0.340235
-0.336032
-0.331659
-0.327356
-0.32337
-0.319919
-0.317166
-0.315182
-0.313916
-0.313185
-0.312684
-0.312034
-0.310818
-0.3087
-0.305332
-0.300679
-0.294299
-0.28678
-0.276599
-0.266122
-0.355059
-0.354306
-0.352505
-0.349861
-0.346515
-0.342629
-0.338384
-0.333991
-0.32967
-0.325638
-0.322076
-0.319103
-0.316739
-0.314891
-0.313347
-0.311808
-0.309937
-0.307397
-0.303946
-0.299338
-0.293588
-0.286334
-0.278114
-0.267571
-0.256969
-0.358628
-0.357569
-0.355569
-0.352752
-0.349274
-0.345298
-0.341001
-0.336575
-0.332217
-0.32811
-0.324391
-0.321131
-0.318304
-0.31578
-0.313341
-0.310712
-0.307617
-0.30381
-0.299131
-0.293424
-0.286731
-0.27876
-0.26999
-0.259239
-0.248704
-0.362597
-0.361188
-0.358958
-0.355946
-0.352314
-0.348232
-0.343866
-0.339389
-0.334969
-0.330746
-0.326814
-0.323193
-0.319814
-0.316527
-0.313124
-0.309378
-0.305086
-0.300087
-0.294297
-0.287623
-0.280125
-0.271563
-0.262366
-0.251496
-0.241016
-0.366955
-0.365158
-0.362669
-0.359438
-0.355632
-0.351423
-0.346968
-0.342416
-0.337899
-0.333513
-0.3293
-0.325233
-0.321212
-0.317084
-0.31267
-0.307804
-0.302361
-0.29626
-0.289473
-0.281956
-0.273771
-0.264719
-0.25518
-0.244235
-0.233813
-0.371694
-0.369473
-0.3667
-0.363227
-0.359224
-0.354869
-0.350302
-0.345644
-0.340987
-0.336377
-0.331806
-0.327204
-0.322454
-0.317418
-0.311963
-0.305996
-0.299466
-0.292357
-0.284684
-0.276432
-0.267657
-0.258195
-0.248378
-0.237384
-0.227002
-0.376804
-0.37413
-0.37105
-0.367312
-0.363092
-0.358569
-0.353863
-0.349064
-0.344214
-0.33931
-0.334293
-0.329063
-0.323503
-0.317506
-0.311003
-0.30397
-0.296426
-0.288403
-0.279943
-0.271048
-0.261766
-0.251957
-0.241905
-0.230877
-0.220522
-0.382281
-0.379125
-0.375719
-0.371698
-0.367241
-0.362527
-0.357653
-0.352666
-0.347562
-0.342282
-0.336724
-0.330774
-0.324331
-0.317337
-0.309793
-0.301745
-0.293262
-0.284415
-0.275256
-0.265799
-0.256076
-0.245967
-0.235715
-0.224662
-0.214324
-0.388119
-0.38446
-0.380709
-0.376389
-0.371677
-0.366748
-0.36167
-0.356444
-0.351011
-0.345262
-0.339065
-0.332304
-0.324917
-0.316908
-0.308346
-0.299338
-0.289994
-0.280403
-0.270625
-0.26067
-0.25056
-0.240191
-0.229764
-0.218692
-0.208364
-0.394315
-0.390132
-0.386024
-0.381392
-0.376407
-0.371238
-0.365913
-0.360385
-0.354538
-0.348219
-0.341281
-0.333628
-0.325249
-0.31622
-0.306675
-0.296768
-0.286635
-0.276375
-0.266042
-0.255646
-0.245194
-0.234595
-0.224014
-0.212928
-0.202605
-0.400868
-0.396142
-0.391667
-0.386711
-0.381437
-0.375998
-0.370378
-0.364474
-0.358117
-0.351121
-0.343342
-0.334723
-0.32532
-0.31528
-0.304794
-0.294049
-0.283195
-0.27233
-0.2615
-0.250708
-0.239951
-0.229148
-0.21843
-0.207336
-0.197013
-0.407772
-0.402488
-0.397639
-0.392351
-0.38677
-0.381026
-0.375053
-0.368687
-0.361715
-0.353933
-0.345217
-0.335572
-0.325128
-0.314097
-0.302716
-0.291193
-0.279679
-0.268265
-0.256986
-0.245838
-0.234807
-0.223822
-0.212981
-0.201883
-0.19156
-0.415021
-0.409166
-0.403938
-0.398311
-0.392404
-0.386315
-0.379919
-0.372997
-0.365297
-0.356618
-0.346881
-0.336163
-0.324672
-0.312678
-0.300451
-0.288206
-0.276087
-0.264173
-0.252486
-0.241015
-0.229737
-0.218589
-0.20764
-0.196542
-0.186219
-0.422607
-0.416169
-0.410561
-0.404586
-0.39833
-0.391847
-0.38495
-0.377365
-0.368821
-0.359139
-0.348307
-0.336484
-0.323953
-0.311032
-0.298007
-0.285091
-0.272416
-0.260043
-0.247984
-0.23622
-0.224719
-0.213424
-0.202379
-0.191287
-0.180965
-0.430513
-0.423485
-0.417496
-0.411167
-0.404533
-0.397598
-0.39011
-0.38175
-0.372244
-0.361462
-0.349473
-0.336528
-0.322973
-0.309163
-0.295387
-0.281848
-0.268659
-0.255865
-0.243465
-0.231433
-0.21973
-0.208305
-0.197177
-0.186096
-0.175776
-0.438719
-0.431096
-0.424728
-0.418034
-0.410988
-0.403534
-0.395355
-0.386102
-0.375519
-0.363549
-0.350358
-0.336285
-0.321732
-0.307073
-0.292592
-0.278472
-0.264807
-0.251625
-0.238912
-0.226636
-0.214751
-0.20321
-0.192011
-0.180947
-0.170632
-0.447197
-0.438977
-0.432232
-0.425161
-0.417661
-0.409612
-0.400634
-0.390365
-0.378598
-0.365365
-0.350942
-0.335747
-0.320227
-0.30476
-0.289617
-0.274956
-0.260849
-0.247308
-0.234309
-0.221809
-0.209762
-0.198119
-0.186861
-0.175821
-0.165516
-0.455911
-0.447099
-0.43998
-0.432514
-0.424511
-0.415778
-0.405887
-0.394483
-0.381431
-0.366878
-0.351206
-0.334907
-0.318454
-0.302222
-0.286456
-0.271291
-0.256774
-0.242901
-0.229638
-0.216937
-0.204745
-0.193014
-0.18171
-0.170701
-0.160409
-0.464818
-0.455422
-0.447931
-0.440049
-0.431484
-0.421972
-0.411048
-0.398393
-0.383971
-0.368054
-0.351131
-0.333753
-0.316407
-0.29945
-0.283101
-0.267464
-0.252566
-0.238387
-0.224884
-0.212001
-0.199683
-0.187878
-0.176541
-0.16557
-0.155297
-0.473867
-0.4639
-0.456038
-0.447714
-0.438519
-0.428124
-0.416048
-0.402033
-0.386169
-0.368863
-0.350699
-0.332275
-0.314077
-0.296437
-0.27954
-0.263464
-0.248212
-0.233753
-0.220031
-0.206986
-0.194559
-0.182695
-0.171337
-0.160414
-0.150166
-0.482998
-0.472477
-0.464246
-0.455445
-0.445546
-0.43416
-0.420812
-0.405341
-0.387981
-0.369273
-0.349891
-0.330459
-0.311452
-0.293168
-0.27576
-0.259275
-0.243698
-0.228981
-0.215063
-0.201877
-0.189358
-0.177449
-0.166086
-0.155217
-0.145001
-0.492143
-0.481091
-0.472489
-0.463173
-0.452487
-0.439997
-0.425266
-0.408255
-0.38936
-0.369255
-0.348686
-0.328291
-0.308519
-0.289633
-0.271747
-0.254884
-0.239007
-0.224058
-0.209966
-0.196658
-0.184066
-0.172128
-0.160773
-0.149968
-0.139793
-0.501227
-0.489671
-0.480695
-0.470818
-0.459257
-0.44555
-0.429331
-0.410714
-0.390264
-0.368781
-0.347066
-0.325754
-0.305263
-0.285814
-0.267486
-0.250274
-0.234126
-0.218969
-0.204725
-0.191316
-0.17867
-0.166718
-0.155386
-0.144654
-0.134529
-0.510166
-0.498138
-0.488783
-0.478293
-0.465763
-0.450731
-0.432933
-0.41266
-0.390652
-0.367822
-0.345009
-0.322832
-0.301669
-0.281697
-0.262962
-0.245432
-0.229039
-0.213699
-0.199327
-0.185839
-0.173156
-0.161207
-0.149914
-0.139265
-0.1292
-0.518872
-0.506408
-0.496664
-0.485504
-0.471913
-0.455451
-0.435996
-0.414036
-0.390484
-0.366351
-0.342495
-0.319507
-0.297718
-0.277265
-0.258157
-0.240341
-0.223732
-0.208236
-0.19376
-0.180213
-0.167514
-0.155585
-0.144347
-0.133791
-0.123796
-0.52725
-0.514388
-0.504243
-0.492354
-0.477606
-0.459621
-0.438448
-0.41479
-0.389724
-0.364341
-0.339501
-0.315758
-0.293394
-0.272501
-0.253057
-0.234987
-0.218191
-0.202566
-0.18801
-0.174428
-0.161733
-0.149841
-0.138675
-0.128223
-0.118312
-0.535198
-0.521981
-0.511421
-0.498739
-0.482743
-0.463152
-0.44022
-0.414871
-0.388336
-0.361765
-0.336007
-0.311567
-0.288678
-0.267388
-0.247646
-0.229356
-0.212403
-0.196676
-0.182067
-0.168473
-0.155803
-0.143967
-0.132889
-0.122553
-0.112738
-0.542614
-0.529086
-0.518094
-0.504554
-0.487225
-0.465961
-0.441247
-0.414233
-0.386287
-0.358599
-0.33199
-0.306916
-0.283553
-0.261911
-0.241909
-0.223433
-0.206356
-0.190557
-0.17592
-0.162338
-0.149714
-0.137954
-0.126982
-0.116773
-0.10707
-0.549391
-0.535597
-0.524153
-0.509691
-0.490953
-0.467966
-0.441469
-0.412832
-0.383546
-0.354818
-0.327431
-0.301784
-0.278001
-0.256053
-0.235832
-0.217207
-0.200039
-0.184197
-0.16956
-0.156015
-0.14346
-0.131795
-0.120947
-0.110877
-0.101303
-0.55542
-0.541407
-0.529491
-0.514047
-0.493834
-0.469091
-0.440828
-0.410629
-0.380082
-0.350398
-0.32231
-0.296155
-0.272007
-0.249799
-0.229402
-0.210664
-0.19344
-0.177587
-0.162979
-0.149496
-0.137032
-0.125484
-0.114777
-0.104863
-0.0954372
-0.560594
-0.546409
-0.534
-0.517515
-0.495776
-0.469265
-0.439274
-0.407587
-0.375871
-0.345318
-0.316606
-0.29001
-0.265554
-0.243136
-0.222605
-0.203796
-0.18655
-0.170719
-0.156168
-0.142774
-0.130425
-0.119013
-0.108468
-0.0987251
-0.0894714
-0.564805
-0.550495
-0.537572
-0.519997
-0.496695
-0.468422
-0.43676
-0.403675
-0.370886
-0.339559
-0.310304
-0.283334
-0.258628
-0.236052
-0.215433
-0.196592
-0.179361
-0.163585
-0.149122
-0.135844
-0.123634
-0.112379
-0.102013
-0.0924595
-0.0833989
-0.56795
-0.553562
-0.540104
-0.521398
-0.496512
-0.466506
-0.433247
-0.398863
-0.365108
-0.333101
-0.303386
-0.276113
-0.251217
-0.228535
-0.207874
-0.189044
-0.171867
-0.15618
-0.141835
-0.1287
-0.116653
-0.105577
-0.0954087
-0.0860583
-0.0771934
-0.569927
-0.555508
-0.541497
-0.521627
-0.495157
-0.463465
-0.428699
-0.393127
-0.358516
-0.325929
-0.295838
-0.268335
-0.243311
-0.220576
-0.199922
-0.181146
-0.164061
-0.148498
-0.134304
-0.12134
-0.10948
-0.0986053
-0.0886573
-0.079516
-0.0708107
-0.570643
-0.556236
-0.541658
-0.520605
-0.492564
-0.459253
-0.423086
-0.386446
-0.351095
-0.31803
-0.287649
-0.259988
-0.234899
-0.212168
-0.19157
-0.172893
-0.15594
-0.140537
-0.126524
-0.11376
-0.102113
-0.0914618
-0.0817593
-0.0728344
-0.0642529
-0.570007
-0.555657
-0.540501
-0.518258
-0.488681
-0.453835
-0.416384
-0.378805
-0.342832
-0.309392
-0.27881
-0.251065
-0.225975
-0.203304
-0.182814
-0.16428
-0.1475
-0.132293
-0.118495
-0.105959
-0.0945508
-0.0841469
-0.0747097
-0.0660009
-0.0576706
-0.567938
-0.553687
-0.537949
-0.514521
-0.483461
-0.447181
-0.408576
-0.370191
-0.333719
-0.300007
-0.269312
-0.241559
-0.216535
-0.193982
-0.17365
-0.155306
-0.13874
-0.123765
-0.110217
-0.0979369
-0.0867977
-0.0766667
-0.0675037
-0.0590307
-0.0509985
-0.564363
-0.550252
-0.533933
-0.50934
-0.476866
-0.439269
-0.399649
-0.360595
-0.323748
-0.289872
-0.259152
-0.231468
-0.206575
-0.184199
-0.164077
-0.14597
-0.12966
-0.114952
-0.101695
-0.0897006
-0.0788483
-0.0690168
-0.0601471
-0.0519324
-0.0442143
-0.559219
-0.545287
-0.528394
-0.502671
-0.468869
-0.430083
-0.389595
-0.350015
-0.312917
-0.278982
-0.248328
-0.22079
-0.196095
-0.173955
-0.154097
-0.136273
-0.120265
-0.105868
-0.0929193
-0.0812459
-0.0707095
-0.0611992
-0.052644
-0.044707
-0.0373146
-0.552451
-0.538737
-0.521285
-0.49448
-0.459452
-0.419617
-0.378414
-0.338452
-0.301228
-0.267341
-0.236842
-0.209526
-0.185097
-0.163254
-0.143714
-0.126223
-0.110554
-0.0965053
-0.0839019
-0.072577
-0.0623842
-0.0532178
-0.0449978
-0.0373552
-0.0303031
-0.544016
-0.530557
-0.512569
-0.484743
-0.448603
-0.40787
-0.366109
-0.32591
-0.288687
-0.254952
-0.224698
-0.197681
-0.173586
-0.152104
-0.132933
-0.115821
-0.100535
-0.0868705
-0.0746472
-0.0636993
-0.0538766
-0.0450774
-0.0372122
-0.0298795
-0.0231845
-0.533881
-0.520713
-0.502219
-0.473448
-0.436324
-0.39485
-0.352692
-0.3124
-0.275301
-0.241824
-0.211903
-0.185263
-0.161575
-0.140506
-0.12176
-0.105074
-0.0902132
-0.0769701
-0.065161
-0.054619
-0.0451925
-0.0367835
-0.029292
-0.0222842
-0.0159643
-0.522024
-0.509183
-0.490222
-0.460591
-0.422621
-0.380569
-0.338176
-0.297937
-0.261085
-0.227968
-0.198469
-0.172285
-0.149065
-0.128472
-0.110203
-0.0939906
-0.0795972
-0.0668124
-0.0554506
-0.0453433
-0.0363386
-0.0283425
-0.0212428
-0.0145748
-0.00864819
-0.508437
-0.495957
-0.476574
-0.446181
-0.407511
-0.365049
-0.322582
-0.282539
-0.246054
-0.2134
-0.184412
-0.158757
-0.136072
-0.116013
-0.0982739
-0.0825818
-0.0686967
-0.0564067
-0.0455247
-0.0358805
-0.0273227
-0.0197618
-0.0130715
-0.00675812
-0.00124267
-0.493121
-0.481034
-0.461282
-0.430234
-0.391018
-0.348315
-0.305936
-0.266229
-0.23023
-0.198139
-0.169746
-0.144694
-0.122611
-0.103145
-0.085986
-0.0708595
-0.0575233
-0.0457639
-0.0353933
-0.0262401
-0.018154
-0.0110497
-0.00478595
0.00115819
0.00624521
-0.476087
-0.464426
-0.444366
-0.412779
-0.373175
-0.330403
-0.288272
-0.249033
-0.213637
-0.182206
-0.154491
-0.130117
-0.108698
-0.0898819
-0.073354
-0.0588378
-0.0460898
-0.0348961
-0.0250678
-0.0164327
-0.0088425
-0.00221571
0.00360513
0.00916532
0.0138075
-0.457362
-0.446157
-0.425854
-0.393849
-0.354021
-0.311352
-0.269627
-0.23098
-0.196303
-0.165627
-0.138672
-0.115045
-0.0943542
-0.0762428
-0.0603947
-0.046532
-0.0344108
-0.0238167
-0.0145608
-0.00647022
0.000600702
0.00672982
0.0120919
0.0172535
0.0214356
-0.436978
-0.42626
-0.405785
-0.373491
-0.333607
-0.291206
-0.250022
-0.212121
-0.178261
-0.148431
-0.122314
-0.0995029
-0.0796008
-0.0622478
-0.0471268
-0.0339596
-0.0225022
-0.0125405
-0.0038858
0.00363456
0.0101634
0.0157755
0.0206635
0.0254119
0.0291195
-0.414982
-0.404779
-0.384209
-0.351763
-0.31199
-0.269999
-0.229521
-0.192484
-0.159546
-0.130649
-0.105446
-0.0835177
-0.0644624
-0.0479191
-0.0335707
-0.0211392
-0.0103811
-0.00108349
0.00694218
0.0138677
0.0198325
0.0249091
0.0293083
0.0336287
0.0368484
-0.391427
-0.381766
-0.361184
-0.328738
-0.289219
-0.247788
-0.208168
-0.172112
-0.140198
-0.112318
-0.0881006
-0.0671181
-0.0489652
-0.0332809
-0.0197485
-0.00809104
0.00193361
0.0105373
0.0179073
0.0242144
0.0295939
0.0341172
0.0380138
0.0418906
0.0446097
-0.366373
-0.357287
-0.336785
-0.304477
-0.265308
-0.224668
-0.186019
-0.151055
-0.120258
-0.0934747
-0.0703122
-0.0503354
-0.0331379
-0.0183592
-0.00568397
0.00516306
0.0144222
0.0223035
0.0289929
0.0346589
0.0394327
0.0433859
0.0467659
0.0501819
0.0523891
-0.339891
-0.331425
-0.31111
-0.278958
-0.240413
-0.200677
-0.16313
-0.129363
-0.0997723
-0.0741605
-0.0521175
-0.0332033
-0.017011
-0.00318183
0.00859758
0.0186001
0.0270638
0.0341961
0.0401812
0.0451848
0.0493335
0.0527004
0.0555495
0.0584842
0.0601653
-0.312056
-0.304267
-0.284255
-0.252266
-0.214573
-0.175886
-0.139563
-0.107091
-0.0787891
-0.0544188
-0.033556
-0.0157573
-0.000616906
0.0122219
0.0230694
0.0321958
0.039836
0.0461949
0.0514539
0.0557753
0.0592804
0.0620456
0.0643496
0.0667775
0.0679101
-0.282948
-0.275885
-0.256063
-0.224744
-0.187882
-0.150367
-0.115382
-0.0842975
-0.0573595
-0.0342956
-0.0146693
0.00196478
0.0160103
0.0278209
0.0377035
0.0459247
0.052716
0.0582788
0.062792
0.0664128
0.0692565
0.0714063
0.0731531
0.0750469
0.0756055
-0.252642
-0.246405
-0.226867
-0.196291
-0.16042
-0.124197
-0.090653
-0.0610406
-0.0355371
-0.0138392
0.00449918
0.0199236
0.032835
0.0435829
0.0524705
0.0597602
0.0656795
0.0704263
0.0741759
0.0770788
0.0792441
0.0807668
0.0819506
0.0832846
0.0832477
-0.221233
-0.21593
-0.196785
-0.167005
-0.13227
-0.097455
-0.0654463
-0.0373829
-0.0133775
0.0069003
0.023904
0.0380782
0.0498199
0.0594742
0.0673399
0.0736747
0.0787017
0.0826151
0.0855855
0.0877546
0.0892256
0.0901145
0.0907336
0.0914587
0.0907422
-0.189004
-0.184455
-0.165877
-0.136993
-0.103521
-0.0702206
-0.0398336
-0.0133886
0.00906141
0.0278707
0.0434981
0.0563858
0.0669264
0.07546
0.0822801
0.0876397
0.0917571
0.0948223
0.0970002
0.0984217
0.0991877
0.0994465
0.0994901
0.0994551
0.0977718
-0.155983
-0.152133
-0.134241
-0.106361
-0.0742658
-0.0425768
-0.013889
0.0108759
0.0317201
0.0490184
0.063233
0.0748027
0.084115
0.0915042
0.0972587
0.101626
0.104819
0.107024
0.108399
0.109063
0.109124
0.10877
0.108201
0.107126
0.104086
-0.122232
-0.119122
-0.101985
-0.0752136
-0.0445986
-0.0146086
0.0123117
0.0353427
0.0545375
0.0702883
0.0830588
0.0932838
0.101345
0.10757
0.112242
0.115603
0.117861
0.119196
0.119759
0.119662
0.119028
0.118078
0.116828
0.114509
0.110377
-0.0878782
-0.0855466
-0.0692261
-0.0436584
-0.0146169
0.0135974
0.0386912
0.0599426
0.0774512
0.091624
0.102925
0.111783
0.118574
0.12362
0.127197
0.129541
0.130854
0.131313
0.131059
0.1302
0.128883
0.127327
0.125307
0.1218
0.118792
-0.0530513
-0.0515259
-0.0360809
-0.0118048
0.0155805
0.0419532
0.0651708
0.084605
0.100398
0.112968
0.122779
0.130254
0.135761
0.139616
0.142088
0.143407
0.143771
0.143349
0.142275
0.140659
0.13866
0.136458
0.133666
0.129489
0.127191
-0.0178811
-0.0171825
-0.00266939
0.020237
0.0458944
0.0703699
0.091671
0.109259
0.123313
0.134263
0.142569
0.148648
0.152862
0.155518
0.156879
0.15717
0.156582
0.155277
0.153385
0.151016
0.148333
0.145467
0.141972
0.137356
0.135148
0.0175024
0.0173585
0.030888
0.0523559
0.0762247
0.0987581
0.118112
0.133831
0.146132
0.15545
0.162242
0.166919
0.169834
0.171288
0.171537
0.170798
0.169258
0.167072
0.164365
0.161247
0.157877
0.154347
0.15022
0.145234
0.14283
0.0529686
0.0519711
0.0644705
0.0844408
0.106471
0.127028
0.144413
0.158251
0.16879
0.17647
0.181746
0.185018
0.186634
0.186886
0.186024
0.184258
0.181769
0.178706
0.175189
0.171328
0.167272
0.163087
0.15837
0.153003
0.150255
0.0883864
0.0865283
0.0979571
0.116381
0.136534
0.155091
0.170494
0.182446
0.191221
0.197265
0.201025
0.202897
0.203217
0.202273
0.200305
0.197519
0.194086
0.190153
0.185833
0.181235
0.176498
0.171671
0.166387
0.160618
0.157446
0.123625
0.120903
0.131228
0.148065
0.166314
0.182857
0.196276
0.206344
0.213361
0.217775
0.220028
0.220507
0.219541
0.217409
0.214345
0.210546
0.20618
0.201385
0.196272
0.190945
0.185534
0.180079
0.174242
0.168051
0.164409
0.158555
0.15497
0.164162
0.179385
0.195712
0.210238
0.221679
0.229874
0.235145
0.237943
0.238702
0.237802
0.235562
0.232255
0.228107
0.223309
0.218021
0.212377
0.206482
0.200436
0.194361
0.188289
0.181909
0.175286
0.171148
0.193047
0.188602
0.196644
0.210233
0.224633
0.237147
0.246624
0.252964
0.25651
0.257711
0.256995
0.254733
0.251238
0.246773
0.241557
0.235775
0.229581
0.223101
0.216438
0.209685
0.202959
0.196283
0.189368
0.182309
0.177661
0.226974
0.221678
0.228555
0.240502
0.252979
0.2635
0.271036
0.275547
0.277392
0.277022
0.274855
0.271255
0.266526
0.260924
0.254661
0.247914
0.24083
0.233532
0.226116
0.218672
0.211307
0.20404
0.196602
0.189109
0.183942
0.260212
0.254075
0.259784
0.270089
0.280659
0.28921
0.294837
0.297552
0.297731
0.29582
0.292232
0.287322
0.281386
0.274671
0.267383
0.259693
0.251742
0.243645
0.235494
0.227375
0.219387
0.211544
0.203595
0.195673
0.189984
0.292638
0.285676
0.290218
0.298893
0.30758
0.314198
0.317955
0.318915
0.317465
0.31405
0.309076
0.302888
0.295775
0.287977
0.279692
0.271084
0.262288
0.253414
0.244549
0.235774
0.22718
0.218777
0.210332
0.201989
0.195782
0.324135
0.316365
0.31975
0.326815
0.333655
0.338384
0.340318
0.339569
0.336536
0.33166
0.325339
0.317911
0.309656
0.300806
0.291554
0.282056
0.272442
0.262816
0.25326
0.243849
0.234669
0.225723
0.216799
0.208046
0.201325
0.354586
0.34603
0.348274
0.353761
0.358797
0.361689
0.361857
0.359453
0.354888
0.348598
0.340975
0.332348
0.322989
0.313125
0.302938
0.292582
0.282179
0.271827
0.261604
0.251581
0.241835
0.232367
0.222983
0.213833
0.206607
0.38388
0.374564
0.375692
0.379639
0.382925
0.384041
0.382503
0.378505
0.372464
0.364814
0.355938
0.346158
0.335738
0.324898
0.313815
0.302634
0.291472
0.280424
0.269562
0.258951
0.248663
0.238694
0.228869
0.219337
0.211619
0.411911
0.401864
0.401905
0.404361
0.405959
0.405367
0.402194
0.396668
0.389214
0.380261
0.370186
0.359302
0.347868
0.336095
0.324154
0.312185
0.3003
0.288587
0.277113
0.265942
0.255136
0.244689
0.234446
0.224548
0.216353
0.438577
0.427829
0.426823
0.427843
0.427824
0.425601
0.420867
0.413885
0.405085
0.394893
0.383676
0.371743
0.359344
0.346684
0.333928
0.321211
0.308638
0.296293
0.284241
0.272537
0.261239
0.25034
0.239701
0.229455
0.2208
0.463781
0.452368
0.450357
0.450007
0.448449
0.444677
0.438465
0.430105
0.420031
0.408666
0.396371
0.383445
0.370134
0.356636
0.343111
0.329687
0.316465
0.303525
0.290926
0.27872
0.266958
0.255633
0.244622
0.234047
0.224953
0.487432
0.475391
0.472426
0.470777
0.467766
0.462535
0.454933
0.445277
0.434007
0.42154
0.408232
0.394375
0.380209
0.365925
0.351678
0.337591
0.323761
0.310263
0.297152
0.284476
0.27228
0.260556
0.249198
0.238315
0.228804
0.509444
0.496816
0.492953
0.490083
0.485712
0.479118
0.470218
0.459354
0.44697
0.433477
0.419225
0.404501
0.389538
0.374523
0.359605
0.344902
0.330507
0.31649
0.302903
0.289791
0.277192
0.265098
0.253419
0.242249
0.232347
0.529737
0.516565
0.511865
0.507862
0.502229
0.494374
0.484274
0.472295
0.458881
0.44444
0.429318
0.413794
0.398096
0.382407
0.36687
0.3516
0.336684
0.322189
0.308165
0.294651
0.281681
0.269248
0.257274
0.245841
0.235575
0.548239
0.534569
0.529098
0.524053
0.517263
0.508253
0.497057
0.484057
0.469703
0.454398
0.43848
0.422227
0.405859
0.389555
0.373454
0.357666
0.342276
0.327347
0.312925
0.299045
0.285738
0.272996
0.260756
0.249082
0.238483
0.564883
0.550763
0.544592
0.538601
0.530764
0.520712
0.508525
0.494606
0.479404
0.463319
0.446686
0.429775
0.412804
0.395946
0.379338
0.363085
0.347269
0.331949
0.317169
0.302962
0.289351
0.276333
0.263854
0.251965
0.241064
0.579608
0.565089
0.558292
0.551459
0.54269
0.53171
0.518644
0.503909
0.487955
0.471178
0.45391
0.436417
0.418911
0.401563
0.384506
0.367842
0.351649
0.335984
0.320888
0.306391
0.292513
0.279251
0.266563
0.254484
0.243315
0.592363
0.577496
0.570152
0.562583
0.553001
0.541213
0.527382
0.511936
0.495328
0.477951
0.460131
0.442132
0.424163
0.40639
0.388943
0.371923
0.355403
0.33944
0.324071
0.309323
0.295215
0.281743
0.268875
0.256632
0.245231
0.603101
0.58794
0.580131
0.571935
0.561663
0.54919
0.534711
0.518664
0.501502
0.483617
0.465331
0.446904
0.428543
0.410412
0.392637
0.375317
0.358523
0.342308
0.32671
0.311752
0.297451
0.283803
0.270785
0.258405
0.246808
0.611783
0.596383
0.588193
0.579485
0.568649
0.555616
0.540607
0.52407
0.506457
0.488158
0.469493
0.450719
0.43204
0.413618
0.395578
0.378014
0.360998
0.344581
0.328798
0.313671
0.299214
0.285425
0.272287
0.259797
0.248044
0.618379
0.602795
0.594311
0.585207
0.573935
0.56047
0.545053
0.528138
0.510178
0.491561
0.472604
0.453564
0.434643
0.415998
0.397755
0.380007
0.362822
0.346251
0.330328
0.315074
0.3005
0.286606
0.273377
0.260806
0.248937
0.622864
0.607153
0.598463
0.589082
0.577504
0.563736
0.548033
0.530854
0.512652
0.493814
0.474656
0.455432
0.436343
0.417546
0.399164
0.381289
0.36399
0.347315
0.331298
0.315958
0.301306
0.287341
0.274053
0.26143
0.249487
0.625223
0.609443
0.600636
0.591096
0.579343
0.565403
0.549538
0.53221
0.513873
0.494912
0.475642
0.456316
0.437135
0.418256
0.399799
0.381857
0.364497
0.347768
0.331702
0.316319
0.301628
0.287629
0.274312
0.261667
0.249693
0.625446
0.609654
0.600821
0.591243
0.579448
0.565466
0.549563
0.532202
0.513835
0.494849
0.475557
0.456213
0.437017