/*--------------------------------*- C++ -*----------------------------------*\
  =========                 |
  \\      /  F ield         | OpenFOAM: The Open Source CFD Toolbox
   \\    /   O peration     | Website:  https://openfoam.org
    \\  /    A nd           | Version:  7
     \\/     M anipulation  |
\*---------------------------------------------------------------------------*/
FoamFile
{
    version     2.0;
    format      ascii;
    class       surfaceScalarField;
    location    "115";
    object      phi;
}
// * * * * * * * * * * * * * * * * * * * * * * * * * * * * * * * * * * * * * //

dimensions      [0 3 -1 0 0 0 0];

internalField   nonuniform List<scalar> 
63130
(
-2.56607e-06
4.14612e-05
-3.88951e-05
-9.50515e-06
0.000126784
-0.000119845
-2.05545e-05
0.000215983
-0.000204934
-3.55489e-05
0.000305681
-0.000290686
-5.43281e-05
0.000393224
-0.000374445
-7.66703e-05
0.000477195
-0.000454853
-0.000102254
0.000557585
-0.000532002
-0.000130652
0.000635721
-0.000607322
-0.000161354
0.000713894
-0.000683193
-0.000193794
0.000794823
-0.000762383
-0.000227381
0.000881078
-0.000847491
-0.000261499
0.000974624
-0.000940506
-0.000295483
0.00107652
-0.00104253
-0.000328565
0.00118674
-0.00115366
-0.000359809
0.0013041
-0.00127286
-0.000388027
0.00142605
-0.00139784
-0.000411713
0.00154852
-0.00152483
-0.000428975
0.00166552
-0.00164826
-0.000437515
0.00176887
-0.00176033
-0.000434647
0.0018479
-0.00185077
-0.000417413
0.00188941
-0.00190665
-0.000382729
0.00187799
-0.00191267
-0.000327611
0.00179721
-0.00185233
-0.000249715
0.00163157
-0.00170946
0.00136713
-0.00146933
-0.000147517
-2.04347e-06
4.35046e-05
-7.66678e-06
0.000132407
-1.67595e-05
0.000225076
-2.92836e-05
0.000318205
-4.51801e-05
0.00040912
-6.42961e-05
0.000496311
-8.63411e-05
0.00057963
-0.000110878
0.000660258
-0.000137344
0.00074036
-0.000165084
0.000822563
-0.000193384
0.000909378
-0.000221485
0.00100272
-0.000248564
0.0011036
-0.00027369
0.00121187
-0.000295756
0.00132616
-0.000313409
0.00144371
-0.000324991
0.0015601
-0.00032849
0.00166902
-0.000321552
0.00176193
-0.000301531
0.00182788
-0.000265661
0.00185354
-0.000211188
0.00182351
-0.00013557
0.00172159
-3.7004e-05
0.001533
0.00124348
8.66469e-05
-1.51273e-06
4.50174e-05
-5.78794e-06
0.000136682
-1.28567e-05
0.000232144
-2.27991e-05
0.000328147
-3.56508e-05
0.000421972
-5.13259e-05
0.000511986
-6.95664e-05
0.000597871
-8.99272e-05
0.000680619
-0.000111795
0.000762228
-0.000134425
0.000845192
-0.000156979
0.000931932
-0.000178548
0.00102429
-0.000198144
0.00112319
-0.000214662
0.00122839
-0.000226825
0.00133833
-0.000233119
0.00145
-0.000231747
0.00155873
-0.00022061
0.00165788
-0.000197341
0.00173866
-0.000159385
0.00178992
-0.000104253
0.00179841
-2.96402e-05
0.0017489
6.66581e-05
0.00162529
0.000185568
0.00141409
0.00109891
0.000330135
-9.85463e-07
4.60028e-05
-3.90727e-06
0.000139604
-8.9225e-06
0.00023716
-1.62156e-05
0.00033544
-2.59082e-05
0.000431665
-3.79769e-05
0.000524055
-5.21965e-05
0.00061209
-6.81179e-05
0.00069654
-8.5082e-05
0.000779192
-0.000102257
0.000862368
-0.000118683
0.000948358
-0.000133299
0.00103891
-0.000144951
0.00113484
-0.000152358
0.00123579
-0.000154075
0.00134004
-0.000148436
0.00144436
-0.000133529
0.00154382
-0.000107193
0.00163155
-6.70944e-05
0.00169856
-1.08725e-05
0.0017337
6.38881e-05
0.00172365
0.000158883
0.00165391
0.000275812
0.00150836
0.000414525
0.00127538
0.000934364
0.000579072
-4.73285e-07
4.64761e-05
-2.06341e-06
0.000141194
-5.03403e-06
0.00024013
-9.65704e-06
0.000340063
-1.61275e-05
0.000438135
-2.44782e-05
0.000532405
-3.45161e-05
0.000622128
-4.57922e-05
0.000707816
-5.76083e-05
0.000791008
-6.90538e-05
0.000873813
-7.90509e-05
0.000958355
-8.6394e-05
0.00104625
-8.97627e-05
0.00113821
-8.77093e-05
0.00123374
-7.86267e-05
0.00133096
-6.07117e-05
0.00142645
-3.19585e-05
0.00151507
9.82332e-06
0.00158976
6.69239e-05
0.00164146
0.000141582
0.00165904
0.000235759
0.00162947
0.000350801
0.00153887
0.000488076
0.00137109
0.000646184
0.00111727
0.000750722
0.000829826
1.39936e-08
4.64621e-05
-2.93473e-07
0.000141502
-1.26726e-06
0.000241104
-3.24729e-06
0.000342043
-6.487e-06
0.000441375
-1.10664e-05
0.000536985
-1.68224e-05
0.000627884
-2.33102e-05
0.000714304
-2.9801e-05
0.000797499
-3.53157e-05
0.000879328
-3.86698e-05
0.000961709
-3.85224e-05
0.00104611
-3.33981e-05
0.00113309
-2.16896e-05
0.00122203
-1.64119e-06
0.00131091
2.86586e-05
0.00139615
7.12974e-05
0.00147243
0.000128467
0.00153259
0.000202372
0.00156756
0.000295053
0.00156636
0.000408239
0.00151629
0.000542738
0.00140437
0.000699744
0.00121408
0.000876613
0.000940403
0.000548817
0.00107852
4.65016e-07
4.59971e-05
1.36717e-06
0.0001406
2.30407e-06
0.000240167
2.8915e-06
0.000341456
2.83526e-06
0.000441431
2.01917e-06
0.000537801
5.80056e-07
0.000629323
-1.04371e-06
0.000715928
-2.10403e-06
0.00079856
-1.5636e-06
0.000878788
1.84854e-06
0.000958297
9.59825e-06
0.00103836
2.32988e-05
0.00111939
4.46993e-05
0.00120063
7.5682e-05
0.00127993
0.000118264
0.00135357
0.000174568
0.00141612
0.000246764
0.0014604
0.000336954
0.00147737
0.000446965
0.00145635
0.000578298
0.00138495
0.000731253
0.00125141
0.000906985
0.00103835
0.00110169
0.000745702
0.000329259
0.00132124
8.71872e-07
4.51252e-05
2.88634e-06
0.000138585
5.6115e-06
0.000237442
8.64282e-06
0.000338425
1.16653e-05
0.000438409
1.45402e-05
0.000534926
1.73836e-05
0.00062648
2.06243e-05
0.000712687
2.50237e-05
0.00079416
3.16577e-05
0.000872154
4.18738e-05
0.000948081
5.72342e-05
0.001023
7.94713e-05
0.00109715
0.000110455
0.00116965
0.000152175
0.00123821
0.000206716
0.00129902
0.000276221
0.00134662
0.00036281
0.00137381
0.000468461
0.00137172
0.000594774
0.00133004
0.000743041
0.00123669
0.000913088
0.00108136
0.00110617
0.000845267
0.00131743
0.000534443
9.24781e-05
0.00155421
1.22686e-06
4.38984e-05
4.2353e-06
0.000135577
8.59214e-06
0.000233085
1.38979e-05
0.000333119
1.98381e-05
0.000432468
2.62667e-05
0.000528497
3.32874e-05
0.000619459
4.13193e-05
0.000704655
5.11269e-05
0.000784352
6.38116e-05
0.000859469
8.07722e-05
0.00093112
0.000103648
0.00100012
0.000134263
0.00106653
0.000174584
0.00112933
0.000226675
0.00118612
0.000292669
0.00123303
0.000374698
0.00126459
0.000474807
0.0012737
0.000594835
0.00125169
0.000736151
0.00118872
0.000899858
0.00107298
0.00108538
0.000895844
0.00129422
0.000636421
0.00152054
0.00030813
-0.000161414
0.00177443
1.52358e-06
4.23748e-05
5.38936e-06
0.000131711
1.11907e-05
0.000227284
1.85585e-05
0.000325751
2.72009e-05
0.000423826
3.69815e-05
0.000518717
4.80015e-05
0.000608439
6.06719e-05
0.000691985
7.57533e-05
0.000769271
9.43572e-05
0.000840865
0.000117912
0.000907565
0.000148108
0.000969925
0.000186833
0.00102781
0.000236117
0.00108004
0.000298076
0.00112416
0.000374854
0.00115625
0.000468553
0.00117089
0.000581121
0.00116113
0.000714251
0.00111856
0.000869092
0.00103388
0.00104659
0.000895486
0.0012459
0.000696531
0.00146897
0.000413349
0.00170905
6.80476e-05
-0.000432611
0.00198025
1.75708e-06
4.06177e-05
6.32838e-06
0.00012714
1.33605e-05
0.000220252
2.25395e-05
0.000316572
3.36181e-05
0.000412747
4.6487e-05
0.000505848
6.12568e-05
0.000593669
7.8334e-05
0.000674908
9.84705e-05
0.000749135
0.000122774
0.000816562
0.000152682
0.000877658
0.000189907
0.0009327
0.000236371
0.000981344
0.000294138
0.00102228
0.00036534
0.00105296
0.000452111
0.00106948
0.000556496
0.0010665
0.000680337
0.00103729
0.000825188
0.000973708
0.00099203
0.00086704
0.00118168
0.000705832
0.00139332
0.000484899
0.00162945
0.000177217
0.00188279
-0.000185296
-0.000721188
0.00217137
1.92375e-06
3.8694e-05
7.03712e-06
0.000122026
1.5065e-05
0.000212224
2.57715e-05
0.000305865
3.89752e-05
0.000399544
5.46119e-05
0.000490211
7.28139e-05
0.000575467
9.39893e-05
0.000653732
0.000118879
0.000724245
0.000148575
0.000786866
0.000184504
0.000841728
0.000228377
0.000888827
0.00028212
0.000927602
0.000347797
0.000956599
0.000427531
0.000973224
0.000523419
0.000973594
0.000637439
0.000952485
0.000771331
0.000903399
0.000926537
0.000818502
0.00110398
0.000689599
0.00130444
0.000505373
0.00152745
0.000261885
0.00177631
-7.16414e-05
0.00204378
-0.00045276
-0.00102968
0.00235227
2.02141e-06
3.66725e-05
7.5055e-06
0.000116542
1.62783e-05
0.000203451
2.82031e-05
0.000293941
4.31833e-05
0.000384563
6.12172e-05
0.000472177
8.24722e-05
0.000554212
0.000107366
0.000628839
0.000136627
0.000694984
0.000171325
0.000752167
0.000212861
0.000800193
0.000262919
0.000838769
0.000323402
0.000867118
0.000396351
0.000883651
0.000483852
0.000885722
0.000587954
0.000869492
0.000710567
0.000829873
0.000853364
0.000760602
0.00101774
0.000654128
0.00120472
0.000502619
0.0014152
0.000294892
0.00164959
2.74926e-05
0.0019119
-0.000333947
0.00219618
-0.000737045
-0.00136148
0.00252798
2.04927e-06
3.46233e-05
7.72888e-06
0.000110863
1.69864e-05
0.000194194
2.98026e-05
0.000281124
4.61829e-05
0.000368183
6.62036e-05
0.000452157
9.00805e-05
0.000530335
0.000118249
0.00060067
0.000151431
0.000661803
0.000190667
0.000712931
0.000237321
0.000753539
0.000293033
0.000783056
0.000359665
0.000800487
0.00043921
0.000804106
0.00053371
0.000791222
0.000645164
0.000758038
0.000775444
0.000699593
0.000926223
0.000609823
0.00109896
0.00048139
0.00129502
0.000306556
0.00151559
7.43275e-05
0.00176268
-0.000219604
0.00204038
-0.000611647
0.00234557
-0.00104223
-0.00171918
0.00270326
2.00799e-06
3.26153e-05
7.70831e-06
0.000105162
1.7188e-05
0.000184714
3.05606e-05
0.000267752
4.79479e-05
0.000350796
6.95178e-05
0.000430587
9.55474e-05
0.000504306
0.0001265
0.000569717
0.000163095
0.000625208
0.000206347
0.000669679
0.000257573
0.000702313
0.000318366
0.000722263
0.000390529
0.000728323
0.000476008
0.000718627
0.000576801
0.000690428
0.000694887
0.000639953
0.000832161
0.000562319
0.000990411
0.000451573
0.00117134
0.00030046
0.00137692
0.000100974
0.00160892
-0.000157675
0.00187119
-0.000481866
0.00216748
-0.000907941
0.00249827
-0.00137302
-0.00210379
0.00288288
1.89972e-06
3.07156e-05
7.45089e-06
9.96112e-05
1.68954e-05
0.000175269
3.04916e-05
0.000254156
4.84893e-05
0.000332798
7.11595e-05
0.000407917
9.88517e-05
0.000476614
0.000132068
0.000536501
0.000171535
0.000585742
0.000218244
0.000622969
0.000273474
0.000647083
0.000338764
0.000656973
0.000415869
0.000651218
0.000506695
0.000627801
0.000613232
0.000583891
0.000737498
0.000515687
0.000881516
0.000418301
0.00104736
0.000285731
0.00123719
0.00011063
0.00145385
-0.00011569
0.00169987
-0.000403697
0.00198098
-0.000762974
0.00229956
-0.00122651
0.00265974
-0.00173321
-0.00251312
0.00306908
1.72826e-06
2.89873e-05
6.97016e-06
9.43693e-05
1.61353e-05
0.000166104
2.96363e-05
0.000240655
4.78592e-05
0.000314575
7.11873e-05
0.000384589
0.000100053
0.000447748
0.00013501
0.000501544
0.000176802
0.000543951
0.000226412
0.000573359
0.00028509
0.000588405
0.00035434
0.000587723
0.000435891
0.000569667
0.00053165
0.000532043
0.000643658
0.000471883
0.000774078
0.000385267
0.000925209
0.000267169
0.0010996
0.000111341
0.0013001
-8.98696e-05
0.00153055
-0.000346143
0.00179428
-0.000667424
0.00209823
-0.00106693
0.00244215
-0.00157043
0.00283259
-0.00212365
-0.00294072
0.00326019
1.49918e-06
2.74881e-05
6.28661e-06
8.95819e-05
1.49501e-05
0.000157441
2.80631e-05
0.000227542
4.61538e-05
0.000296484
6.97251e-05
0.000361017
9.93031e-05
0.00041817
0.000135505
0.000465342
0.000179108
0.000500347
0.00023111
0.000521358
0.000292754
0.000526761
0.000365545
0.000514932
0.000451232
0.00048398
0.000551792
0.000431483
0.00066942
0.000354254
0.000806558
0.00024813
0.000965953
0.000107774
0.00115081
-7.35179e-05
0.0013648
-0.000303855
0.00161264
-0.000593983
0.00189813
-0.000952916
0.00222802
-0.00139683
0.00259819
-0.0019406
0.0030151
-0.00254055
-0.00337588
0.00345026
1.22007e-06
2.62681e-05
5.42808e-06
8.53738e-05
1.33984e-05
0.00014947
2.58694e-05
0.000215071
4.35157e-05
0.000278838
6.69663e-05
0.000337567
9.68507e-05
0.000388285
0.000133866
0.000428326
0.000178848
0.000455365
0.000232835
0.000467372
0.000297108
0.000462487
0.000373226
0.000438814
0.000463032
0.000394174
0.000568672
0.000325843
0.000692625
0.000230301
0.000837762
0.000102992
0.00100743
-6.18943e-05
0.00120558
-0.000271665
0.00143661
-0.000534883
0.00170564
-0.000863013
0.00201617
-0.00126345
0.00237276
-0.00175341
0.00276651
-0.00233435
0.00320085
-0.0029749
-0.00380519
0.00363016
9.00628e-07
2.53674e-05
4.43005e-06
8.18444e-05
1.15553e-05
0.000142345
2.31825e-05
0.000203443
4.01357e-05
0.000261885
6.31762e-05
0.000314526
9.30498e-05
0.000358412
0.000130554
0.000390822
0.000176612
0.000409306
0.000232345
0.000411638
0.000299133
0.000395699
0.000378661
0.000359286
0.000472968
0.000299868
0.000584489
0.000214322
0.00071612
9.86697e-05
0.000871288
-5.21756e-05
0.001054
-0.000244602
0.00126883
-0.000486495
0.00152054
-0.000786593
0.00181373
-0.00115621
0.00215046
-0.00160018
0.00253093
-0.00213388
0.00294138
-0.00274481
0.00337991
-0.00341343
-0.00421506
0.00378979
5.52775e-07
2.48147e-05
3.33566e-06
7.90615e-05
9.51237e-06
0.000136169
2.01586e-05
0.000192797
3.62509e-05
0.000245792
5.8691e-05
0.000292086
8.83566e-05
0.000328746
0.000126172
0.000353007
0.000173187
0.000362291
0.000230664
0.000354162
0.00030015
0.000326213
0.000383556
0.00027588
0.000483225
0.000200199
0.000602003
9.55434e-05
0.000743307
-4.26344e-05
0.000911155
-0.000220023
0.00111009
-0.000443542
0.00134496
-0.000721361
0.00162013
-0.00106176
0.00193849
-0.00147457
0.00229927
-0.00196095
0.00269687
-0.00253148
0.00311344
-0.00316138
0.00354103
-0.00384102
-0.00459416
0.00392013
1.90572e-07
2.46241e-05
2.19506e-06
7.70571e-05
7.37613e-06
0.000130987
1.69802e-05
0.000183193
3.2141e-05
0.000230632
5.39117e-05
0.000270316
8.33224e-05
0.000299335
0.000121457
0.000314873
0.000169543
0.000314205
0.000229048
0.000294657
0.000301775
0.000253486
0.00038996
0.000187695
0.000496357
9.38018e-05
0.00062431
-3.24089e-05
0.000777774
-0.000196099
0.000961245
-0.000403494
0.00117947
-0.000661768
0.00143687
-0.000978759
0.00173643
-0.00136132
0.00207804
-0.00181618
0.00245703
-0.00233995
0.00286167
-0.00293612
0.00327175
-0.00357145
0.0036743
-0.00424357
-0.00493505
0.00401519
-1.70051e-07
2.47941e-05
1.06412e-06
7.58229e-05
5.26506e-06
0.000126787
1.38511e-05
0.000174607
2.812e-05
0.000216363
4.92916e-05
0.000249144
7.85745e-05
0.000270052
0.000117253
0.000276194
0.000166789
0.000264669
0.000228931
0.000232515
0.000305825
0.000176592
0.000400122
9.33977e-05
0.000515058
-2.11344e-05
0.000654483
-0.000171834
0.000822784
-0.000364399
0.00102462
-0.000605328
0.00126435
-0.0009015
0.00154509
-0.00125949
0.00186735
-0.00168358
0.00222706
-0.00217589
0.00261526
-0.00272815
0.00301505
-0.00333591
0.00340625
-0.00396265
0.00377309
-0.00461041
-0.00523482
0.00407286
-5.11797e-07
2.53059e-05
5.36722e-09
7.53057e-05
3.30554e-06
0.000123486
1.09883e-05
0.000166924
2.45237e-05
0.000202827
4.53171e-05
0.000228351
7.47878e-05
0.000240582
0.000114467
0.000236515
0.000166112
0.000213024
0.000231824
0.000166803
0.000314169
9.42469e-05
0.000416269
-8.7024e-06
0.000541844
-0.00014671
0.000695148
-0.000325138
0.000880721
-0.000549971
0.00110287
-0.00082748
0.00136482
-0.00116345
0.00166742
-0.00156209
0.00200784
-0.002024
0.0023777
-0.00254575
0.00276423
-0.00311468
0.00314751
-0.0037192
0.00350977
-0.00432492
0.00383487
-0.00493551
-0.00549458
0.00409463
-8.17605e-07
2.61235e-05
-9.26705e-07
7.54148e-05
1.62495e-06
0.000120935
8.61242e-06
0.000159937
2.16933e-05
0.000189746
4.24825e-05
0.000207561
7.2646e-05
0.000210418
0.000114011
0.00019515
0.000168686
0.000158349
0.000239189
9.63003e-05
0.000328546
4.88946e-06
0.000440351
-0.000120507
0.000578714
-0.000285073
0.000748053
-0.000494476
0.000952622
-0.000754541
0.00119573
-0.00107059
0.00147863
-0.00144635
0.00179915
-0.00188261
0.0021507
-0.00237555
0.00252105
-0.00291611
0.00289497
-0.0034886
0.00325209
-0.00407632
0.00357891
-0.00465174
0.00386076
-0.00521735
-0.00571841
0.00408459
-1.06999e-06
2.71935e-05
-1.66784e-06
7.60127e-05
3.47065e-07
0.00011892
6.93491e-06
0.000153349
1.99553e-05
0.000176726
4.12593e-05
0.000186257
7.27959e-05
0.000178882
0.000116733
0.000151213
0.00017558
9.95017e-05
0.0002523
1.95801e-05
0.000350377
-9.31883e-05
0.000473795
-0.000243924
0.000626851
-0.00043813
0.000813757
-0.000681382
0.00103792
-0.000978708
0.00130095
-0.00133362
0.00160144
-0.00174684
0.00193379
-0.00221496
0.00228788
-0.00272964
0.00264883
-0.00327705
0.00300071
-0.00384048
0.00332516
-0.00440077
0.00361387
-0.00494044
0.00385452
-0.00545801
-0.00591204
0.00404815
-1.25376e-06
2.84473e-05
-2.16744e-06
7.69264e-05
-4.17274e-07
0.00011717
6.14541e-06
0.000146786
1.96017e-05
0.00016327
4.20646e-05
0.000163794
7.58004e-05
0.000145146
0.000123352
0.000103661
0.000187655
3.51994e-05
0.000272112
-6.48769e-05
0.000380597
-0.000201674
0.000517313
-0.00038064
0.000686439
-0.000607256
0.000891506
-0.000886449
0.00113448
-0.00122168
0.00141464
-0.00161377
0.00172751
-0.00205971
0.0020642
-0.00255165
0.00241187
-0.0030773
0.00275464
-0.00361982
0.00307767
-0.00416352
0.00336634
-0.00468943
0.00361748
-0.00519158
0.00382127
-0.0056618
-0.00608167
0.00399091
-1.35659e-06
2.98039e-05
-2.38274e-06
7.79525e-05
-5.8161e-07
0.000115369
6.39919e-06
0.000139805
2.08698e-05
0.000148799
4.52322e-05
0.000139432
8.20959e-05
0.000108282
0.000134398
5.13594e-05
0.000205492
-3.58942e-05
0.000299167
-0.000158553
0.000419551
-0.000322057
0.000570813
-0.000531902
0.00075662
-0.000793063
0.000979308
-0.00110914
0.00123885
-0.00148122
0.00153178
-0.00190671
0.00185057
-0.00237851
0.00218365
-0.00288473
0.00251672
-0.00341037
0.00283466
-0.00393776
0.00312504
-0.0044539
0.00337782
-0.00494221
0.00359405
-0.00540781
0.00376638
-0.00583414
-0.0062331
0.00391781
-1.37004e-06
3.11739e-05
-2.28251e-06
7.8865e-05
-6.41295e-08
0.00011315
7.80886e-06
0.000131932
2.39276e-05
0.00013268
5.09902e-05
0.000112369
9.19618e-05
6.73105e-05
0.000150169
-6.84801e-06
0.000229342
-0.000115067
0.000333549
-0.00026276
0.000466968
-0.000455476
0.000633413
-0.000698347
0.000835604
-0.000995254
0.00107419
-0.00134773
0.00134675
-0.00175377
0.00164698
-0.00220694
0.00196469
-0.00269622
0.00228669
-0.00320672
0.00259867
-0.00372236
0.00288767
-0.00422676
0.00314443
-0.00471066
0.00336358
-0.00516137
0.00354841
-0.00559263
0.00369447
-0.0059802
-0.00637174
0.00383311
-1.29009e-06
3.2464e-05
-1.85404e-06
7.94289e-05
1.13329e-06
0.000110163
1.04327e-05
0.000122633
2.88644e-05
0.000114249
5.94487e-05
8.17851e-05
0.000105506
2.12534e-05
0.000170721
-7.20632e-05
0.000259119
-0.000203465
0.000374891
-0.000378531
0.000522004
-0.000602589
0.000703558
-0.000879902
0.000920893
-0.00121259
0.00117258
-0.00159941
0.0014536
-0.00203479
0.00175509
-0.00250843
0.00206498
-0.00300611
0.00236964
-0.00351139
0.00265615
-0.00400886
0.00291456
-0.00448517
0.00313902
-0.00493513
0.00332843
-0.00535077
0.00348597
-0.00575017
0.00360825
-0.00610248
-0.00650255
0.00373906
-1.11654e-06
3.35805e-05
-1.09282e-06
7.94052e-05
3.0547e-06
0.000106015
1.42853e-05
0.000111402
3.56904e-05
9.28435e-05
7.06003e-05
4.68752e-05
0.000122667
-3.08135e-05
0.000195876
-0.000145272
0.000294428
-0.000302017
0.000422432
-0.000506535
0.000583352
-0.000763509
0.000779198
-0.00107575
0.00100955
-0.00144294
0.00127067
-0.00186053
0.00155503
-0.00231916
0.00185176
-0.00280515
0.00214792
-0.00330227
0.00243069
-0.00379416
0.00268946
-0.00426764
0.00291766
-0.00471337
0.0031127
-0.00513017
0.00327678
-0.00551485
0.00341292
-0.00588631
0.00352421
-0.00621377
-0.00659441
0.00361607
-8.53133e-07
3.44337e-05
9.08262e-09
7.8543e-05
5.66552e-06
0.000100359
1.93294e-05
9.77386e-05
4.4343e-05
6.783e-05
8.43309e-05
6.88731e-06
0.000143236
-8.97189e-05
0.000225257
-0.000227293
0.000334617
-0.000411377
0.000475108
-0.000647026
0.000649374
-0.000937775
0.000857984
-0.00128436
0.00109848
-0.00168344
0.00136478
-0.00212683
0.00164723
-0.00260161
0.00193371
-0.00309164
0.00221154
-0.00358009
0.00246964
-0.00405227
0.00270031
-0.0044983
0.00290019
-0.00491325
0.00306948
-0.00529946
0.00321231
-0.00565767
0.00333127
-0.00600528
0.00343623
-0.00631872
-0.00667931
0.00352112
-5.12675e-07
3.49463e-05
1.3704e-06
7.66599e-05
8.91581e-06
9.28134e-05
2.54896e-05
8.11648e-05
5.46991e-05
3.86204e-05
0.00010044
-3.88537e-05
0.000166886
-0.000156165
0.000258336
-0.000318743
0.000378853
-0.000531893
0.000531652
-0.000799825
0.000718242
-0.00112437
0.00093746
-0.00150358
0.00118469
-0.00193067
0.00145165
-0.00239379
0.0017272
-0.00287715
0.0019989
-0.00336334
0.00225525
-0.00383644
0.00248761
-0.00428463
0.00269125
-0.00470195
0.00286563
-0.00508762
0.00301304
-0.00544688
0.00313846
-0.00578308
0.00324542
-0.00611224
0.00334148
-0.00641479
-0.00676176
0.00342394
-1.00757e-07
3.50471e-05
3.01926e-06
7.35399e-05
1.27509e-05
8.30818e-05
3.26627e-05
6.1253e-05
6.65934e-05
4.68966e-06
0.000118667
-9.09277e-05
0.000193209
-0.000230707
0.000294482
-0.000420015
0.000426183
-0.000663594
0.00059068
-0.000964322
0.000788059
-0.00132174
0.00101522
-0.00173074
0.00126542
-0.00218086
0.00152862
-0.002657
0.00179289
-0.00314142
0.00204642
-0.00361687
0.00227962
-0.00406964
0.00248653
-0.00449154
0.00266523
-0.00488065
0.00281736
-0.00523975
0.00294656
-0.00557608
0.00305813
-0.00589466
0.0031555
-0.00620961
0.00324575
-0.00650504
-0.00684259
0.00332659
3.73761e-07
3.46733e-05
4.89932e-06
6.90143e-05
1.71001e-05
7.0881e-05
4.07304e-05
3.76227e-05
7.98364e-05
-3.44163e-05
0.000138717
-0.000149808
0.000221752
-0.000313742
0.000333009
-0.000531273
0.000475598
-0.000806183
0.000650771
-0.00113949
0.000856952
-0.00152793
0.00108903
-0.00196282
0.00133835
-0.00243018
0.00159371
-0.00291235
0.0018432
-0.00339091
0.00207639
-0.00385006
0.00228603
-0.00427928
0.00246884
-0.00467436
0.00262524
-0.00503705
0.0027584
-0.00537291
0.00287269
-0.00569037
0.00297323
-0.00599519
0.00306323
-0.00629962
0.00314862
-0.00659043
-0.00692086
0.00322689
8.94183e-07
3.37792e-05
6.97595e-06
6.29326e-05
2.18922e-05
5.59648e-05
4.95702e-05
9.94466e-06
9.42305e-05
-7.90766e-05
0.000160282
-0.00021586
0.000252042
-0.000405502
0.000373211
-0.000652442
0.000526073
-0.000959046
0.00071052
-0.00132394
0.000923154
-0.00174056
0.00115692
-0.00219658
0.00140165
-0.00267492
0.00164566
-0.00315636
0.00187783
-0.00362308
0.00208966
-0.00406189
0.00227639
-0.004466
0.00243713
-0.0048351
0.00257408
-0.005174
0.00269135
-0.00549018
0.00279351
-0.00579253
0.00288525
-0.00608693
0.0029693
-0.00638367
0.00305063
-0.00667176
-0.0069969
0.00312667
1.45452e-06
3.23246e-05
9.21809e-06
5.5169e-05
2.70609e-05
3.8122e-05
5.90649e-05
-2.20594e-05
0.000109584
-0.000129596
0.000183056
-0.000289332
0.000283608
-0.000506053
0.000414376
-0.000783211
0.000576591
-0.00112126
0.000768574
-0.00151592
0.000985051
-0.00195704
0.00121725
-0.00242878
0.00145403
-0.0029117
0.00168392
-0.00338625
0.00189723
-0.0038364
0.00208767
-0.00425233
0.00225286
-0.0046312
0.0023939
-0.00497614
0.0025142
-0.00529431
0.00261831
-0.00559428
0.00271062
-0.00588484
0.00279521
-0.00617152
0.00287435
-0.00646281
0.00295207
-0.00674949
-0.00707055
0.00302572
2.04706e-06
3.02776e-05
1.15998e-05
4.56163e-05
3.25489e-05
1.71728e-05
6.91089e-05
-5.86194e-05
0.000125717
-0.000186203
0.000206748
-0.000370363
0.000315986
-0.000615291
0.000455806
-0.000923031
0.000626161
-0.00129162
0.000823665
-0.00171343
0.00104124
-0.00217461
0.00126875
-0.00265629
0.00149472
-0.00313767
0.00170853
-0.00360005
0.00190233
-0.00403021
0.00207213
-0.00442213
0.00221765
-0.00477671
0.00234145
-0.00509994
0.00244769
-0.00540054
0.00254092
-0.00568752
0.00262516
-0.00596908
0.00270383
-0.00625018
0.00277872
-0.0065377
0.0028531
-0.00682386
-0.00714179
0.00292434
2.66699e-06
2.76106e-05
1.41015e-05
3.41817e-05
3.83094e-05
-7.03503e-06
7.96099e-05
-9.99199e-05
0.000142463
-0.000249056
0.000231073
-0.000458974
0.00034872
-0.000732938
0.000496808
-0.00107112
0.000673829
-0.00146864
0.000874637
-0.00191424
0.00109055
-0.00239052
0.00131056
-0.00287631
0.00152347
-0.00335058
0.00172002
-0.0037966
0.00189446
-0.00420464
0.00204492
-0.00457258
0.00217283
-0.00490462
0.00228179
-0.0052089
0.00237623
-0.00549498
0.00246046
-0.00577175
0.00253799
-0.0060466
0.00261159
-0.00632379
0.00268266
-0.00660877
0.00275381
-0.00689501
-0.00721049
0.00282251
3.31194e-06
2.42986e-05
1.67101e-05
2.07836e-05
4.43054e-05
-3.46303e-05
9.04877e-05
-0.000146102
0.000159668
-0.000318236
0.000255758
-0.000555064
0.000381357
-0.000858536
0.000536703
-0.00122646
0.000718695
-0.00165063
0.00092048
-0.00211602
0.0011321
-0.00260214
0.00134222
-0.00308643
0.00154047
-0.00354882
0.00171932
-0.00397546
0.00187511
-0.00436044
0.00200786
-0.00470534
0.0021203
-0.00501707
0.0022166
-0.00530519
0.00230115
-0.00557954
0.00237786
-0.00584846
0.00244967
-0.0061184
0.0025188
-0.00639292
0.0025863
-0.00667627
0.00265425
-0.00696297
-0.00727652
0.00272028
3.98152e-06
2.03171e-05
1.94172e-05
5.34786e-06
5.05075e-05
-6.57206e-05
0.00010167
-0.000197264
0.000177181
-0.000393747
0.000280525
-0.000658408
0.000413439
-0.00099145
0.000574824
-0.00138785
0.000759927
-0.00183573
0.000960355
-0.00231645
0.00116529
-0.00280707
0.00136362
-0.00328477
0.00154625
-0.00373145
0.00170756
-0.00413677
0.00184586
-0.00449874
0.0019627
-0.00482218
0.0020617
-0.00511606
0.00214724
-0.00539073
0.00222347
-0.00565577
0.00229379
-0.00591878
0.0023606
-0.00618522
0.00242565
-0.00645797
0.0024897
-0.00674032
0.00255443
-0.0070277
-0.00733973
0.00261765
4.67661e-06
1.56405e-05
2.22178e-05
-1.21934e-05
5.68902e-05
-0.000100393
0.000113085
-0.000253459
0.000194849
-0.000475511
0.000305088
-0.000768647
0.000444505
-0.00113087
0.000610533
-0.00155388
0.000796791
-0.00202199
0.00099362
-0.00251328
0.00118982
-0.00300326
0.00137499
-0.00346994
0.00154162
-0.00389807
0.00168602
-0.00428117
0.00180824
-0.00462095
0.00191099
-0.00492493
0.0019984
-0.00520348
0.00207481
-0.00546714
0.00214396
-0.00572493
0.00220873
-0.00598355
0.00227105
-0.00624753
0.00233226
-0.00651918
0.00239291
-0.00680097
0.00245437
-0.00708916
-0.00739999
0.00251462
5.39867e-06
1.02418e-05
2.51077e-05
-3.19024e-05
6.34277e-05
-0.000138713
0.00012466
-0.000314691
0.000212509
-0.00056336
0.000329151
-0.000885289
0.000474094
-0.00127581
0.000643228
-0.00172301
0.00082867
-0.00220743
0.00101985
-0.00270445
0.00120565
-0.00318907
0.00137681
-0.00364111
0.00152755
-0.00404881
0.00165603
-0.00440965
0.00176369
-0.00472861
0.00185409
-0.00501533
0.00193154
-0.00528093
0.00200014
-0.00553574
0.00206318
-0.00578797
0.00212303
-0.00604339
0.00218119
-0.00630569
0.00223869
-0.00657668
0.00229595
-0.00685823
0.00235404
-0.00714725
-0.00745713
0.00241118
6.14893e-06
4.09292e-06
2.80816e-05
-5.38351e-05
7.00905e-05
-0.000180722
0.00013631
-0.00038091
0.000229983
-0.000657034
0.000352402
-0.00100771
0.000501749
-0.00142516
0.000672371
-0.00189363
0.000855087
-0.00239015
0.00103882
-0.00288819
0.001213
-0.00336325
0.00136977
-0.00379787
0.00150512
-0.00418417
0.00161884
-0.00452337
0.0017135
-0.00482327
0.00179313
-0.00509496
0.00186202
-0.00534982
0.00192388
-0.0055976
0.00198154
-0.00584563
0.00203689
-0.00609874
0.00209111
-0.00635991
0.00214498
-0.00663055
0.00219881
-0.00691205
0.00225346
-0.0072019
-0.00751103
0.00230736
6.92782e-06
-2.8349e-06
3.1131e-05
-7.80383e-05
7.68419e-05
-0.000226433
0.000147941
-0.000452009
0.00024708
-0.000756173
0.000374522
-0.00113515
0.000527039
-0.00157768
0.0006975
-0.00206409
0.000875717
-0.00256837
0.00105052
-0.00306299
0.00121227
-0.00352499
0.00135466
-0.00394027
0.00147541
-0.00430492
0.00157567
-0.00462362
0.00165881
-0.00490641
0.00172907
-0.00516523
0.00179054
-0.00541129
0.00184651
-0.00565357
0.00189932
-0.00589844
0.00195049
-0.00614991
0.0020009
-0.00641033
0.00205117
-0.00668081
0.0021015
-0.00696239
0.00215262
-0.00725302
-0.00756155
0.00220314
7.7345e-06
-1.05694e-05
3.42434e-05
-0.000104547
8.36366e-05
-0.000275826
0.000159443
-0.000527815
0.000263592
-0.000860323
0.000395192
-0.00126675
0.000549566
-0.00173205
0.000718254
-0.00223278
0.000890394
-0.0027405
0.00105513
-0.00322773
0.001204
-0.00367387
0.00133237
-0.00406863
0.00143948
-0.00441203
0.00152758
-0.00471173
0.00160057
-0.00497939
0.00166268
-0.00522734
0.00171767
-0.00546628
0.00176839
-0.00570429
0.00181674
-0.00594679
0.00186392
-0.00619708
0.0019106
-0.00645701
0.00195725
-0.00672746
0.00200403
-0.00700917
0.00205153
-0.00730051
-0.00760857
0.00209855
8.56663e-06
-1.9136e-05
3.74015e-05
-0.000133382
9.04202e-05
-0.000328845
0.000170695
-0.00060809
0.000279305
-0.000968933
0.000414104
-0.00140155
0.000568988
-0.00188693
0.000734379
-0.00239817
0.000899099
-0.00290522
0.00105295
-0.00338158
0.00118887
-0.00380978
0.00130379
-0.00418356
0.00139833
-0.00450657
0.00147554
-0.00478894
0.00153959
-0.00504344
0.00159456
-0.00528231
0.00164382
-0.00551554
0.00168976
-0.00575024
0.00173394
-0.00599096
0.00177725
-0.0062404
0.00182024
-0.0065
0.00186325
-0.00677047
0.00190641
-0.00705233
0.0019502
-0.0073443
-0.00765197
0.0019936
9.42029e-06
-2.85563e-05
4.05829e-05
-0.000164545
9.71294e-05
-0.000385391
0.000181565
-0.000692525
0.000294001
-0.00108137
0.000430972
-0.00153852
0.000585028
-0.00204099
0.000745734
-0.00255888
0.00090195
-0.00306144
0.00104443
-0.00352406
0.00116756
-0.00393292
0.0012698
-0.0042858
0.00135285
-0.00458962
0.00142036
-0.00485645
0.00147653
-0.00509961
0.0015252
-0.00533098
0.0015693
-0.00555964
0.00161083
-0.00579177
0.00165101
-0.00603115
0.00169055
-0.00627994
0.00172985
-0.0065393
0.00176917
-0.0068098
0.00180864
-0.0070918
0.00184864
-0.0073843
-0.00769165
0.00188832
1.029e-05
-3.88463e-05
4.37608e-05
-0.000198015
0.000103694
-0.000445324
0.000191917
-0.000780749
0.000307469
-0.00119692
0.000445544
-0.00167659
0.000597484
-0.00219293
0.000752288
-0.00271368
0.000899179
-0.00320833
0.00103006
-0.00365494
0.00114081
-0.00404367
0.00123122
-0.0043762
0.00130386
-0.00466226
0.00136273
-0.00491531
0.00141194
-0.00514882
0.00145497
-0.00537402
0.00149436
-0.00559903
0.00153173
-0.00582914
0.00156805
-0.00606746
0.00160384
-0.00631574
0.00163944
-0.00657489
0.00167504
-0.0068454
0.00171075
-0.00712751
0.00174689
-0.00742044
-0.0077275
0.00178274
1.11691e-05
-5.00155e-05
4.69047e-05
-0.000233751
0.000110038
-0.000508457
0.000201612
-0.000872323
0.000319511