/*--------------------------------*- C++ -*----------------------------------*\
  =========                 |
  \\      /  F ield         | OpenFOAM: The Open Source CFD Toolbox
   \\    /   O peration     | Website:  https://openfoam.org
    \\  /    A nd           | Version:  7
     \\/     M anipulation  |
\*---------------------------------------------------------------------------*/
FoamFile
{
    version     2.0;
    format      ascii;
    class       volVectorField;
    location    "115";
    object      U;
}
// * * * * * * * * * * * * * * * * * * * * * * * * * * * * * * * * * * * * * //

dimensions      [0 1 -1 0 0 0 0];

internalField   nonuniform List<vector> 
31800
(
(-0.000823964 0.018407 -1.27774e-20)
(-0.00431891 0.0539166 8.8084e-21)
(-0.0109438 0.0878184 -2.86745e-21)
(-0.0195902 0.11876 1.27047e-20)
(-0.0298884 0.145924 1.41714e-20)
(-0.0414872 0.169123 -4.63986e-21)
(-0.0539985 0.188736 -3.35851e-21)
(-0.0670323 0.205555 2.37051e-20)
(-0.0802029 0.220569 -2.70381e-21)
(-0.0931469 0.234738 3.88764e-21)
(-0.105539 0.248821 1.33671e-20)
(-0.117098 0.263273 1.31353e-20)
(-0.127576 0.278229 -8.35591e-21)
(-0.136738 0.293526 -1.04576e-20)
(-0.144341 0.30874 -3.68191e-22)
(-0.15011 0.323216 -1.35957e-20)
(-0.153719 0.336077 1.06905e-20)
(-0.154787 0.346219 1.83127e-20)
(-0.152877 0.352306 -7.08939e-21)
(-0.147517 0.352791 3.2561e-20)
(-0.138232 0.345974 2.07819e-21)
(-0.124604 0.330124 -2.82375e-21)
(-0.106349 0.303723 6.23806e-21)
(-0.0832866 0.265741 1.33398e-20)
(-0.0551257 0.215721 8.6055e-21)
(-0.00122179 0.0194382 1.31544e-20)
(-0.00511208 0.0565587 7.15202e-21)
(-0.0115402 0.0917806 -7.69488e-21)
(-0.0196392 0.123825 -2.92556e-20)
(-0.0291258 0.151891 2.15049e-20)
(-0.0397183 0.175783 -1.05027e-20)
(-0.051088 0.195864 5.75689e-22)
(-0.0628842 0.212915 -1.81721e-20)
(-0.0747417 0.227925 3.74465e-21)
(-0.0862979 0.241871 2.52077e-21)
(-0.0972122 0.255537 -5.59603e-20)
(-0.107174 0.269406 -1.03366e-21)
(-0.1159 0.283632 6.32097e-20)
(-0.123116 0.298057 -3.18988e-20)
(-0.128538 0.312251 -6.08818e-21)
(-0.131852 0.325541 1.34721e-20)
(-0.132696 0.337024 -2.88048e-20)
(-0.130662 0.345569 -1.18887e-21)
(-0.125297 0.349823 3.01331e-20)
(-0.116136 0.348239 -1.11397e-19)
(-0.102746 0.339147 -3.58513e-20)
(-0.0847753 0.320868 5.62268e-20)
(-0.0620364 0.291967 2.89172e-20)
(-0.0345828 0.251559 5.32184e-21)
(-0.00170569 0.199291 -1.15732e-20)
(-0.00165732 0.0202191 -2.7177e-20)
(-0.00599629 0.0586119 -7.66183e-22)
(-0.0122533 0.0949398 -3.67266e-20)
(-0.0198019 0.127963 5.47336e-20)
(-0.0284424 0.156875 -6.19174e-20)
(-0.0379623 0.181452 -5.65653e-21)
(-0.0480932 0.20202 -5.57615e-21)
(-0.0585269 0.219329 1.01253e-20)
(-0.0689211 0.234358 3.38218e-20)
(-0.0789181 0.24809 -5.78965e-21)
(-0.0881631 0.261327 -1.00247e-20)
(-0.0963183 0.27458 3.67957e-20)
(-0.103063 0.288024 -6.76688e-21)
(-0.108084 0.301513 3.66038e-20)
(-0.111055 0.314616 -7.4594e-20)
(-0.111626 0.326648 -3.095e-20)
(-0.109404 0.336689 5.20906e-21)
(-0.10396 0.343594 -1.05701e-19)
(-0.0948426 0.346006 2.94765e-20)
(-0.0816056 0.342393 6.84691e-20)
(-0.0638776 0.33114 -4.53782e-20)
(-0.0413984 0.310634 -1.12045e-19)
(-0.0140712 0.279506 -5.70983e-20)
(0.0177199 0.237035 -1.1298e-19)
(0.0553602 0.182764 -6.44227e-20)
(-0.00211432 0.0207479 1.26778e-20)
(-0.00694106 0.0600661 -2.09886e-20)
(-0.0130563 0.0972728 6.67176e-20)
(-0.0200645 0.131137 -5.32587e-20)
(-0.0278431 0.160825 -1.36928e-20)
(-0.0362448 0.186066 -3.5322e-21)
(-0.0450608 0.20713 4.32714e-20)
(-0.0540271 0.224723 3.04882e-20)
(-0.0628279 0.239793 -5.42751e-20)
(-0.0711129 0.25332 2.26917e-20)
(-0.0785175 0.266122 1.66752e-21)
(-0.0846785 0.278731 -1.03294e-19)
(-0.08924 0.291348 -3.40707e-20)
(-0.0918486 0.303843 2.99106e-21)
(-0.0921408 0.315791 2.33001e-20)
(-0.0897302 0.326504 1.08138e-19)
(-0.084201 0.335054 1.23656e-20)
(-0.0751135 0.340295 1.06423e-19)
(-0.0620256 0.340882 1.09686e-19)
(-0.0445239 0.33532 -1.42715e-20)
(-0.0223085 0.322043 5.28052e-20)
(0.00476152 0.299552 -2.17254e-20)
(0.0367361 0.266513 7.23392e-20)
(0.0727545 0.222411 2.53213e-19)
(0.115272 0.166435 4.11861e-20)
(-0.00257699 0.0210286 2.14341e-20)
(-0.00791621 0.0609227 -7.77386e-20)
(-0.0139222 0.0987706 9.9924e-20)
(-0.0204128 0.133321 3.67176e-20)
(-0.0273322 0.1637 2.88372e-20)
(-0.0345919 0.18957 3.06182e-20)
(-0.0420395 0.21113 -1.62029e-19)
(-0.0494554 0.229023 5.99478e-20)
(-0.0565532 0.244157 6.26357e-20)
(-0.0629948 0.257494 -9.27417e-20)
(-0.0684097 0.269856 9.64774e-20)
(-0.0724133 0.281801 5.32675e-20)
(-0.074618 0.293552 6.55682e-20)
(-0.0746337 0.305003 -4.5325e-20)
(-0.0720613 0.315742 -1.03326e-20)
(-0.0664846 0.325085 2.25975e-19)
(-0.0574699 0.332111 -9.91015e-20)
(-0.0445758 0.335684 7.91293e-20)
(-0.0273799 0.334485 -1.9772e-19)
(-0.0055183 0.32707 -8.27804e-20)
(0.0212459 0.311935 8.26604e-20)
(0.0529121 0.287716 1.50414e-19)
(0.0895564 0.253097 2.75331e-20)
(0.129614 0.207831 -2.10123e-19)
(0.177179 0.150531 -1.53111e-19)
(-0.00303038 0.0210709 -8.42697e-20)
(-0.00889265 0.0611964 -2.69517e-20)
(-0.0148243 0.0994409 -5.94074e-20)
(-0.0208322 0.134511 -5.7245e-20)
(-0.0269138 0.165476 4.09181e-20)
(-0.0330297 0.191922 -7.25694e-20)
(-0.0390789 0.213964 -4.66073e-20)
(-0.0448849 0.232167 -2.3386e-19)
(-0.0501934 0.247382 1.00911e-20)
(-0.0546827 0.260543 -2.08888e-21)
(-0.0579819 0.272469 -1.80197e-19)
(-0.0596911 0.283734 -6.16218e-20)
(-0.059396 0.294591 -7.7988e-20)
(-0.0566744 0.304957 1.51059e-19)
(-0.0510966 0.314442 4.44229e-20)
(-0.0422226 0.322379 -1.23092e-19)
(-0.0296078 0.327862 -1.39682e-19)
(-0.0128181 0.329778 3.95837e-20)
(0.00854115 0.326849 1.64334e-19)
(0.0347748 0.317691 -3.51938e-20)
(0.0660622 0.300884 -2.32636e-20)
(0.102228 0.275199 -1.14942e-19)
(0.143515 0.239316 -1.51094e-19)
(0.187324 0.193331 1.27844e-19)
(0.240126 0.13516 8.93646e-20)
(-0.00346099 0.0208899 4.38685e-20)
(-0.0098436 0.0609137 5.11573e-20)
(-0.0157378 0.0993063 -4.0175e-20)
(-0.0213089 0.134714 -8.25743e-20)
(-0.0265915 0.166144 1.2828e-20)
(-0.0315839 0.193096 9.65262e-20)
(-0.0362287 0.215588 1.38636e-19)
(-0.0403904 0.234098 1.88486e-19)
(-0.0438477 0.249406 3.24103e-20)
(-0.0463003 0.262403 4.36355e-20)
(-0.0473833 0.2739 5.31928e-20)
(-0.0466882 0.284481 2.03279e-19)
(-0.0437813 0.294423 -1.18019e-20)
(-0.0382148 0.303676 -2.65771e-19)
(-0.0295349 0.311876 1.93228e-19)
(-0.0172854 0.318383 7.78878e-20)
(-0.00101872 0.322318 2.55879e-19)
(0.0196847 0.322605 -1.07764e-19)
(0.0451838 0.318014 -1.28572e-19)
(0.0757158 0.307237 3.77433e-19)
(0.111418 0.288938 -1.32982e-19)
(0.151878 0.262043 -2.12046e-19)
(0.197723 0.225191 -6.09485e-20)
(0.244889 0.178873 -1.97663e-19)
(0.303096 0.120285 3.35032e-20)
(-0.00385745 0.0205054 1.09628e-20)
(-0.0107458 0.060112 -2.07747e-20)
(-0.0166407 0.0984048 4.22116e-21)
(-0.0218307 0.133959 -1.49298e-19)
(-0.0263697 0.165713 -1.15717e-19)
(-0.0302797 0.193077 -2.18455e-20)
(-0.0335385 0.21597 -5.56905e-20)
(-0.0360468 0.234768 -1.02431e-19)
(-0.0376172 0.250171 -2.36822e-20)
(-0.0379746 0.263017 -1.10975e-20)
(-0.0367672 0.274095 -1.08119e-19)
(-0.0335862 0.283993 4.62934e-20)
(-0.0279866 0.293012 3.5867e-20)
(-0.0195041 0.301134 1.9412e-19)
(-0.00766858 0.308032 -5.1532e-21)
(0.00798416 0.3131 -1.21455e-19)
(0.0278968 0.315497 -1.47305e-20)
(0.0524654 0.314194 5.37217e-20)
(0.0820086 0.308021 2.34228e-19)
(0.116684 0.295757 -1.82657e-19)
(0.156618 0.276142 4.99037e-19)
(0.201068 0.248273 2.19722e-19)
(0.251331 0.210721 -1.7438e-19)
(0.301366 0.164382 3.48206e-19)
(0.365093 0.105729 2.14637e-19)
(-0.00421089 0.0199411 1.31204e-20)
(-0.0115804 0.0588392 6.69434e-20)
(-0.0175149 0.0967886 1.87513e-19)
(-0.0223877 0.132288 2.33183e-19)
(-0.0262528 0.164208 1.37865e-19)
(-0.0291417 0.191872 -9.62011e-20)
(-0.0310562 0.215092 2.34219e-19)
(-0.0319279 0.234142 2.62264e-20)
(-0.0316025 0.249631 -1.39731e-19)
(-0.0298336 0.262331 1.57716e-20)
(-0.0262893 0.273 2.58645e-19)
(-0.0205693 0.282223 -2.77873e-19)
(-0.0122273 0.290322 -1.59285e-19)
(-0.000792217 0.297311 -3.29161e-20)
(0.0142124 0.302904 -2.68725e-19)
(0.0332501 0.306538 -1.78818e-19)
(0.05675 0.307421 3.18631e-20)
(0.085077 0.30458 -3.90063e-19)
(0.118506 0.296915 3.90886e-20)
(0.157101 0.283294 -2.04081e-19)
(0.201027 0.262537 -2.63467e-19)
(0.249086 0.233903 2.55895e-19)
(0.303605 0.195891 3.05266e-19)
(0.355983 0.149774 -2.42994e-19)
(0.425346 0.0912503 3.5137e-19)
(-0.00451518 0.019224 -1.58204e-19)
(-0.0123337 0.0571514 1.15089e-19)
(-0.0183469 0.0945224 -8.94489e-21)
(-0.022973 0.12976 4.51967e-20)
(-0.0262465 0.161673 4.25726e-20)
(-0.0281931 0.1895 1.92136e-19)
(-0.0288271 0.212954 -1.39227e-19)
(-0.0281043 0.232198 -2.58007e-19)
(-0.0259013 0.247746 1.28983e-19)
(-0.0220029 0.260299 1.20565e-19)
(-0.0161035 0.270568 -4.07895e-19)
(-0.00782043 0.279129 2.88559e-19)
(0.0032833 0.28632 4.40811e-19)
(0.0176747 0.292187 3.00381e-20)
(0.0358259 0.296487 -7.8663e-20)
(0.05819 0.298708 2.32927e-19)
(0.0851746 0.298115 -1.09015e-19)
(0.117106 0.293799 5.0767e-19)
(0.154217 0.284738 -4.63703e-19)
(0.196459 0.269892 9.01343e-20)
(0.244109 0.248161 -4.67926e-20)
(0.295365 0.218936 -1.62413e-19)
(0.35401 0.180675 -1.63829e-19)
(0.408254 0.134955 1.44735e-19)
(0.483497 0.0765678 3.59599e-20)
(-0.00476723 0.0183837 1.02768e-19)
(-0.012998 0.0551121 -7.36407e-20)
(-0.0191291 0.0916825 5.98968e-20)
(-0.0235833 0.126448 -2.02609e-19)
(-0.026357 0.158167 -4.48039e-20)
(-0.0274551 0.186002 2.24396e-20)
(-0.0268923 0.209569 -5.03376e-20)
(-0.0246409 0.228929 -8.2907e-20)
(-0.0206049 0.244493 2.54649e-20)
(-0.014602 0.256881 -1.39666e-19)
(-0.00635797 0.266755 2.61892e-19)
(0.0044833 0.274671 -6.05354e-20)
(0.018339 0.280974 -1.5575e-19)
(0.0356604 0.285742 -1.60323e-19)
(0.0569045 0.288777 2.16535e-19)
(0.0825042 0.289622 1.18156e-19)
(0.112838 0.287604 4.92089e-20)
(0.148186 0.281888 -4.20002e-19)
(0.18875 0.271532 4.53589e-19)
(0.234352 0.255586 -1.50152e-19)
(0.285468 0.233046 -7.50385e-20)
(0.339549 0.20336 -6.48217e-20)
(0.402302 0.16503 -7.47963e-20)
(0.458073 0.119833 2.35357e-19)
(0.539706 0.0614419 -4.10954e-19)
(-0.00496714 0.0174514 -3.82902e-20)
(-0.0135717 0.0527898 1.62561e-19)
(-0.0198598 0.0883538 -2.32317e-19)
(-0.0242195 0.12244 9.30199e-20)
(-0.0265917 0.153766 5.02564e-20)
(-0.0269465 0.181434 -7.67699e-20)
(-0.0252873 0.204973 2.22701e-19)
(-0.0215942 0.224344 5.46782e-20)
(-0.0157948 0.23986 2.39681e-20)
(-0.00773935 0.252054 2.17034e-19)
(0.00281069 0.261528 -8.84956e-20)
(0.0161774 0.268813 9.40607e-20)
(0.0327478 0.274254 -1.00895e-19)
(0.0529469 0.277957 -5.82817e-21)
(0.0772054 0.279767 -1.12354e-19)
(0.105927 0.279287 -3.98924e-19)
(0.139456 0.275911 8.38907e-20)
(0.178026 0.268879 3.36129e-19)
(0.221816 0.257334 -1.23225e-19)
(0.270518 0.240406 6.04662e-19)
(0.32491 0.217216 -3.4724e-19)
(0.38158 0.187147 -1.06283e-19)
(0.448637 0.14891 -1.83186e-19)
(0.505875 0.104258 6.31622e-21)
(0.595113 0.04579 -1.75816e-19)
(-0.00511823 0.0164589 -1.1302e-19)
(-0.0140595 0.0502566 -1.67831e-19)
(-0.0205436 0.0846286 -8.8504e-20)
(-0.0248864 0.117832 8.39253e-20)
(-0.0269586 0.148561 2.56882e-20)
(-0.0266826 0.17587 1.47633e-20)
(-0.0240396 0.199218 5.66746e-20)
(-0.0190094 0.218474 -2.7465e-19)
(-0.0115379 0.233854 8.95673e-20)
(-0.0015064 0.245804 -1.88138e-19)
(0.0112851 0.254864 -6.71103e-20)
(0.0271187 0.261527 -9.23192e-20)
(0.0463428 0.266134 -1.96321e-19)
(0.0693461 0.268814 4.07045e-19)
(0.0965246 0.269454 2.34362e-19)
(0.128246 0.267713 6.37201e-20)
(0.164819 0.263056 2.02974e-19)
(0.206431 0.254801 -3.07932e-19)
(0.253268 0.242179 -8.33543e-20)
(0.3049 0.224374 -3.89162e-19)
(0.362514 0.200684 1.55256e-19)
(0.421797 0.170245 3.58638e-19)
(0.49364 0.132266 1.76319e-19)
(0.552707 0.0880236 -3.36553e-19)
(0.651348 0.0295248 4.44742e-19)
(-0.00522693 0.0154382 -3.92619e-20)
(-0.0144727 0.0475858 9.57787e-21)
(-0.0211913 0.0806031 1.13051e-19)
(-0.0255929 0.112729 1.99659e-19)
(-0.0274653 0.142654 -1.3297e-19)
(-0.0266734 0.169403 1.269e-19)
(-0.0231664 0.192377 -9.93569e-20)
(-0.016916 0.211368 3.75274e-19)
(-0.00788046 0.226503 -2.62235e-19)
(0.00403007 0.238142 5.62459e-20)
(0.0189767 0.246756 2.42745e-19)
(0.0371975 0.252799 -3.23943e-20)
(0.0589963 0.256599 2.72883e-20)
(0.0847183 0.258301 -3.28594e-19)
(0.114719 0.257832 -2.82204e-19)
(0.149328 0.254906 -1.06114e-20)
(0.188823 0.249059 -3.20751e-19)
(0.233361 0.239682 1.25086e-19)
(0.283164 0.226099 -1.73476e-19)
(0.337725 0.207514 2.44927e-19)
(0.398721 0.183462 -3.29818e-19)
(0.461021 0.152645 2.08026e-19)
(0.538458 0.115085 -1.82159e-19)
(0.600213 0.0709808 2.65856e-19)
(0.710148 0.0127044 -1.8348e-20)
(-0.00530266 0.0144205 2.18874e-19)
(-0.014828 0.0448502 5.43266e-20)
(-0.0218191 0.0763754 -1.2376e-19)
(-0.0263505 0.107243 -1.47826e-19)
(-0.0281182 0.136158 9.95216e-20)
(-0.0269222 0.162136 -3.61943e-19)
(-0.0226718 0.184542 5.1305e-19)
(-0.0153234 0.2031 9.76119e-20)
(-0.00484219 0.217859 1.63403e-19)
(0.00883714 0.229098 1.98973e-19)
(0.0258381 0.23722 1.24749e-19)
(0.0463537 0.242633 -9.33851e-20)
(0.0706402 0.245648 -1.59047e-21)
(0.0989973 0.246421 -4.51305e-20)
(0.131739 0.244911 -1.39742e-19)
(0.169162 0.240886 3.20508e-19)
(0.211528 0.233948 6.7519e-19)
(0.258989 0.223559 4.34176e-20)
(0.311851 0.209137 2.46677e-19)
(0.369601 0.189866 -1.31181e-19)
(0.434453 0.165592 1.75561e-19)
(0.500638 0.134367 -1.03332e-18)
(0.584701 0.0974218 5.1551e-19)
(0.650529 0.0531304 3.29393e-19)
(0.773165 -0.00427097 -2.31503e-19)
(-0.0053574 0.0134353 -1.30268e-19)
(-0.0151474 0.04212 -2.22276e-19)
(-0.0224474 0.0720424 2.12056e-19)
(-0.0271721 0.101487 1.3846e-19)
(-0.0289204 0.129193 7.2926e-20)
(-0.0274226 0.15419 2.60296e-19)
(-0.0225426 0.175821 -2.69489e-19)
(-0.0142157 0.193765 -2.46952e-19)
(-0.00240774 0.208001 -1.61917e-19)
(0.012927 0.218733 -3.76332e-19)
(0.0318782 0.2263 7.15109e-20)
(0.0545966 0.231061 -2.92921e-20)
(0.0812931 0.233307 5.36414e-19)
(0.112225 0.233197 2.22372e-19)
(0.147673 0.230719 1.63385e-19)
(0.187915 0.22569 -5.30677e-20)
(0.233223 0.217774 -3.03337e-19)
(0.283788 0.206496 -2.54209e-19)
(0.340051 0.191366 -3.10386e-19)
(0.401593 0.171517 2.27898e-19)
(0.471125 0.147151 4.48135e-19)
(0.542548 0.11551 5.31403e-19)
(0.634303 0.079454 -5.18065e-19)
(0.705901 0.0347344 2.24595e-19)
(0.841285 -0.0207404 3.26184e-19)
(-0.00540532 0.0125098 -3.39551e-19)
(-0.0154565 0.0394607 1.8858e-19)
(-0.0230992 0.0676973 -3.19345e-19)
(-0.02807 0.0955731 3.90244e-19)
(-0.0298691 0.121885 -3.71677e-19)
(-0.0281554 0.145694 -1.10543e-19)
(-0.0227442 0.166344 -2.04374e-19)
(-0.0135449 0.183483 1.14249e-19)
(-0.000517777 0.197035 -1.94097e-19)
(0.0163697 0.20714 2.12092e-19)
(0.0371805 0.214075 -2.77069e-19)
(0.06203 0.218151 -2.0468e-19)
(0.0910923 0.219638 3.00813e-21)
(0.124594 0.218691 -3.1896e-19)
(0.162799 0.215325 6.39173e-21)
(0.205995 0.209398 -3.32141e-19)
(0.254503 0.200632 -1.86381e-20)
(0.308607 0.188606 -3.80017e-19)
(0.368932 0.172921 1.35267e-19)
(0.435247 0.152632 6.20497e-19)
(0.510613 0.128322 -6.18942e-19)
(0.588918 0.0963809 3.19358e-19)
(0.689118 0.0615237 3.63452e-19)
(0.76804 0.0163809 -1.89867e-19)
(0.914089 -0.03586 7.27437e-20)
(-0.00546209 0.011668 1.76007e-19)
(-0.0157832 0.0369316 -4.98068e-20)
(-0.0237979 0.0634272 1.08336e-19)
(-0.0290531 0.089611 -3.13549e-19)
(-0.0309524 0.11436 4.98075e-19)
(-0.0290848 0.136785 3.24506e-20)
(-0.0232155 0.156253 3.55191e-19)
(-0.0132239 0.172395 -1.84377e-19)
(0.00094114 0.185098 1.2378e-19)
(0.019308 0.194448 1.61522e-19)
(0.0419231 0.200665 1.4913e-19)
(0.0688793 0.204019 4.66943e-19)
(0.10033 0.204752 -1.21581e-19)
(0.136492 0.203019 -1.18065e-19)
(0.177643 0.198853 -9.57102e-20)
(0.224116 0.192151 -5.70402e-21)
(0.276329 0.182686 -2.0828e-19)
(0.334715 0.170083 1.89246e-19)
(0.400104 0.154027 -2.62447e-19)
(0.472494 0.133498 1.05688e-19)
(0.555019 0.109429 -1.59625e-19)
(0.641768 0.0774733 1.70837e-20)
(0.750437 0.0441499 -8.43611e-19)
(0.83742 -0.00105406 8.13535e-20)
(0.989651 -0.0487608 -5.43138e-21)
(-0.00554414 0.0109301 2.31684e-19)
(-0.0161557 0.0345837 -1.55823e-19)
(-0.0245645 0.0593102 -1.08938e-19)
(-0.0301235 0.0837035 -6.61364e-20)
(-0.0321456 0.106741 -2.14606e-19)
(-0.0301536 0.127606 -3.58223e-19)
(-0.0238629 0.145702 -1.16119e-19)
(-0.0131193 0.160666 3.95335e-19)
(0.00214694 0.172357 -1.23628e-19)
(0.0219711 0.180823 -2.63241e-19)
(0.0463982 0.186238 -1.56512e-19)
(0.0755178 0.188831 -4.769e-19)
(0.109487 0.188823 -5.16549e-19)
(0.148544 0.186364 3.90936e-19)
(0.193018 0.181504 8.28279e-20)
(0.243333 0.174174 6.71038e-20)
(0.300044 0.164194 7.04251e-19)
(0.363762 0.151227 1.11879e-19)
(0.435492 0.135035 7.17908e-19)
(0.515393 0.11454 -8.96559e-19)
(0.606264 0.0909574 4.35111e-19)
(0.7024 0.0594527 -4.12416e-19)
(0.818465 0.027997 6.73096e-19)
(0.912786 -0.0165684 -1.0298e-18)
(1.06484 -0.0587351 2.2188e-19)
(-0.00566771 0.0103118 -5.9344e-20)
(-0.0166003 0.0324582 -1.23298e-19)
(-0.0254145 0.0554135 -1.12476e-19)
(-0.0312733 0.0779441 3.81012e-20)
(-0.0334073 0.0991488 -5.94595e-20)
(-0.0312791 0.1183 2.27195e-19)
(-0.0245551 0.134857 -7.95951e-20)
(-0.0130443 0.148476 -1.67938e-19)
(0.0033513 0.159009 -6.93566e-20)
(0.0246879 0.166474 3.68286e-21)
(0.0510291 0.171011 4.3407e-19)
(0.0824874 0.172817 -3.78345e-19)
(0.119256 0.172093 5.5338e-19)
(0.161632 0.168988 -1.62212e-19)
(0.210037 0.163568 -2.82215e-19)
(0.265023 0.155793 2.35327e-19)
(0.3273 0.145523 -2.67279e-19)
(0.397631 0.132458 -4.59211e-19)
(0.477066 0.116421 -1.81883e-19)
(0.565725 0.0963178 1.78947e-19)
(0.665571 0.0735266 2.87257e-19)
(0.770877 0.0430704 5.82547e-19)
(0.891995 0.0137759 3.92351e-20)
(0.991173 -0.0292689 4.25824e-19)
(1.136 -0.0653924 -1.4404e-19)
(-0.00584781 0.00982318 -2.87742e-20)
(-0.0171388 0.030585 2.69187e-19)
(-0.0263552 0.0517914 2.77818e-19)
(-0.0324809 0.0724148 -1.24305e-19)
(-0.0346758 0.0916946 8.70611e-20)
(-0.032349 0.109009 -3.19091e-19)
(-0.0251191 0.123888 6.28705e-20)
(-0.0127532 0.136024 5.06944e-20)
(0.00488592 0.145275 -1.45799e-19)
(0.0278938 0.151644 -3.96113e-20)
(0.0563777 0.155248 -5.38153e-19)
(0.0905046 0.156263 1.72613e-19)
(0.13054 0.154876 -2.70371e-20)
(0.17688 0.151236 -5.12376e-21)
(0.230067 0.145426 -2.44193e-20)
(0.290795 0.137432 -8.67634e-21)
(0.359888 0.127148 -2.47183e-20)
(0.438154 0.114304 3.18075e-19)
(0.526451 0.0987657 -2.96656e-19)
(0.624519 0.0794687 2.7402e-19)
(0.732989 0.0578127 -4.23614e-19)
(0.845753 0.0290293 -2.10493e-19)
(0.968432 0.00209849 6.43528e-20)
(1.06851 -0.0385802 -3.54543e-19)
(1.19978 -0.0687417 -1.19262e-19)
(-0.00609706 0.0094689 -2.68109e-19)
(-0.0177865 0.0289815 -3.42842e-20)
(-0.0273821 0.0484833 -3.40035e-19)
(-0.0337077 0.0671831 -2.72419e-19)
(-0.0358656 0.0844785 3.59099e-19)
(-0.0332183 0.0998685 2.44526e-19)
(-0.025337 0.112967 -1.0747e-19)
(-0.01194 0.123516 -9.42545e-20)
(0.00716326 0.131395 -6.97006e-20)
(0.0321295 0.136608 6.01818e-19)
(0.0631383 0.139258 2.32485e-19)
(0.100445 0.139512 3.24026e-19)
(0.144422 0.13755 -1.86075e-20)
(0.195588 0.133527 6.52874e-20)
(0.254617 0.127539 1.77709e-19)
(0.322299 0.119597 -4.23402e-19)
(0.399466 0.109619 6.8099e-19)
(0.486757 0.0973567 7.63175e-20)
(0.584501 0.0826866 -2.33636e-19)
(0.691663 0.0646234 -3.64226e-19)
(0.807149 0.0444292 -2.01473e-19)
(0.92421 0.017849 4.74007e-19)
(1.04423 -0.00666155 -1.54116e-20)
(1.14056 -0.0443448 2.60533e-19)
(1.25373 -0.0691351 3.14321e-19)
(-0.00642455 0.00924718 2.03979e-19)
(-0.0185498 0.0276523 2.13042e-20)
(-0.0284772 0.0455127 -4.45353e-20)
(-0.0348965 0.0623006 4.8799e-20)
(-0.0368664 0.0775866 -3.40451e-19)
(-0.0337093 0.0910025 4.49128e-19)
(-0.0249476 0.102259 -1.81985e-21)
(-0.0102416 0.111161 3.60974e-19)
(0.0106694 0.117621 1.60222e-20)
(0.0380272 0.121658 -1.23168e-19)
(0.0721127 0.123378 1.9092e-19)
(0.113298 0.122944 -6.37386e-19)
(0.162086 0.12054 -3.92698e-19)
(0.21912 0.116329 -1.96148e-19)
(0.285159 0.11042 -8.7251e-20)
(0.360987 0.102837 8.95554e-21)
(0.447242 0.0935104 -4.37988e-19)
(0.5441 0.0822017 1.70281e-19)
(0.650988 0.0687535 6.74765e-19)
(0.765738 0.0522994 1.92558e-19)
(0.885383 0.0338077 4.82785e-19)
(1.00257 0.00977255 -4.92504e-19)
(1.11564 -0.0124423 -1.2054e-19)
(1.20388 -0.04679 -1.96662e-19)
(1.29672 -0.0671413 -1.08981e-18)
(-0.00683477 0.0091498 -1.89667e-19)
(-0.0194238 0.0265876 9.6365e-20)
(-0.0296071 0.0428866 1.71424e-19)
(-0.0359701 0.057801 5.91678e-19)
(-0.0375431 0.0710876 2.21754e-19)
(-0.0336133 0.0825211 -4.89351e-19)
(-0.0236509 0.0919194 -1.22399e-19)
(-0.00724719 0.099161 -6.51206e-20)
(0.0159472 0.104205 -2.08591e-19)
(0.0462822 0.107096 -6.87905e-20)
(0.0841638 0.107956 -1.39196e-19)
(0.130099 0.106957 5.06634e-19)
(0.184715 0.104291 6.05201e-19)
(0.248739 0.100128 3.06586e-19)
(0.322917 0.0945853 -1.56687e-19)
(0.407842 0.0876897 -1.11799e-19)
(0.503687 0.0793562 2.51101e-19)
(0.609838 0.0693407 -6.12319e-20)
(0.724488 0.0574003 -7.73526e-21)
(0.844161 0.0428135 1.52242e-19)
(0.964189 0.0261228 -2.19921e-19)
(1.07703 0.00474557 -3.93415e-19)
(1.17942 -0.0154758 -2.68423e-19)
(1.25635 -0.0464042 3.43323e-19)
(1.32881 -0.063414 1.10279e-18)
(-0.00732696 0.00916232 1.51e-19)
(-0.020392 0.0257655 5.12073e-19)
(-0.0307213 0.0405947 2.04389e-19)
(-0.0368317 0.0536984 -1.81428e-19)
(-0.0377381 0.06503 2.50939e-19)
(-0.0326958 0.0745142 2.747e-19)
(-0.0211179 0.0820843 3.05205e-19)
(-0.00251442 0.0877018 -1.81073e-20)
(0.0235698 0.0913831 2.35962e-19)
(0.0576109 0.0932117 -7.22186e-19)
(0.100152 0.0933339 4.06372e-19)
(0.151827 0.0919392 -2.15529e-19)
(0.213349 0.0892298 -5.44931e-19)
(0.285436 0.0853828 -3.98006e-19)
(0.368653 0.0805096 6.54956e-19)
(0.463161 0.0746183 -2.27499e-19)
(0.568368 0.0675807 -1.14607e-19)
(0.682567 0.0591202 9.02053e-20)
(0.802556 0.0488617 -4.69438e-19)
(0.923618 0.0362375 3.92071e-19)
(1.0399 0.0212848 -6.42369e-20)
(1.14436 0.00246558 4.82028e-19)
(1.23345 -0.0161982 5.67455e-19)
(1.29734 -0.0437882 -1.97871e-19)
(1.35103 -0.0585936 -4.05224e-19)
(-0.00789411 0.00926472 -7.83593e-20)
(-0.0214254 0.0251511 -2.90916e-19)
(-0.0317538 0.0386095 7.43874e-21)
(-0.0373671 0.0499877 -1.45947e-19)
(-0.0372754 0.0594405 -4.27054e-19)
(-0.0307045 0.0670482 -2.19054e-19)
(-0.0170041 0.0728652 1.2015e-19)
(0.00440827 0.0769439 -3.70935e-19)
(0.0341062 0.079367 2.95649e-20)
(0.0726991 0.0802658 1.80262e-19)
(0.120858 0.0798196 -5.14554e-19)
(0.179308 0.0782397 -1.68723e-19)
(0.248761 0.075738 4.36068e-19)
(0.329777 0.0724875 2.96885e-19)
(0.42252 0.068576 -3.87348e-19)
(0.52645 0.0639659 4.22352e-19)
(0.639934 0.0584511 1.78144e-19)
(0.759997 0.0516913 -4.76669e-20)
(0.8821 0.0431522 -3.87896e-20)
(1.00064 0.0324092 -4.14329e-19)
(1.10932 0.0189972 4.60596e-20)
(1.20235 0.00247598 -8.25429e-20)
(1.27681 -0.0151321 -4.36175e-19)
(1.3274 -0.0395298 -3.1729e-19)
(1.36495 -0.0532553 -2.95793e-19)
(-0.0085231 0.00943199 -4.9047e-20)
(-0.0224821 0.0246987 -6.4235e-19)
(-0.0326246 0.0368886 -3.96446e-19)
(-0.0374477 0.0466441 -5.04037e-19)
(-0.0359673 0.0543228 4.44267e-19)
(-0.0273798 0.0601625 3.61775e-20)
(-0.0109662 0.0643432 3.17118e-19)
(0.0139563 0.0670134 -2.88764e-19)
(0.0480832 0.0683291 4.75496e-19)
(0.0921477 0.0684758 1.77105e-19)
(0.146914 0.0676706 1.44281e-20)
(0.213121 0.0661463 -2.76806e-20)
(0.291348 0.0641179 -9.74227e-20)
(0.3818 0.0617381 -8.44969e-20)
(0.484 0.0590456 9.29982e-20)
(0.596443 0.0559243 1.33103e-19)
(0.716288 0.0520565 -8.53728e-19)
(0.839289 0.0470074 5.486e-20)
(0.95989 0.0400882 -1.44829e-19)
(1.07215 0.0309912 -1.38564e-19)
(1.17019 0.0188483 6.97567e-20)
(1.24996 0.00426535 -4.63206e-19)
(1.30969 -0.0127742 2.1833e-19)
(1.34786 -0.0341088 2.71167e-19)
(1.37228 -0.0478887 -6.00362e-19)
(-0.00919488 0.00963563 1.14272e-19)
(-0.0235091 0.0243539 4.64372e-19)
(-0.0332413 0.0353765 4.04323e-20)
(-0.0369353 0.0436248 7.31279e-19)
(-0.0336213 0.0496571 -4.62369e-19)
(-0.0224661 0.0538685 4.5051e-19)
(-0.00267912 0.0565659 -4.01551e-19)
(0.0265236 0.0579973 1.5752e-19)
(0.0659496 0.058396 -2.00787e-19)
(0.116425 0.058005 2.63648e-19)
(0.17874 0.0570798 4.34897e-19)
(0.253531 0.0558695 2.24764e-19)
(0.341075 0.0545788 8.98107e-20)
(0.440998 0.0533179 9.80007e-20)
(0.551941 0.0520449 -7.60139e-20)
(0.671258 0.0505302 -6.04985e-20)
(0.794866 0.0483169 6.97375e-19)
(0.917472 0.0448553 2.32853e-19)
(1.03302 0.0393405 6.57347e-19)
(1.13588 0.0315511 1.68847e-20)
(1.2213 0.0203973 -4.26195e-19)
(1.28718 0.0073409 5.34902e-19)
(1.33308 -0.00950206 6.77549e-19)
(1.36033 -0.027822 8.3782e-20)
(1.37459 -0.0429004 5.89036e-19)
(-0.00988519 0.00984523 -3.23954e-19)
(-0.0244436 0.0240569 1.79706e-19)
(-0.0335016 0.0340058 3.94724e-19)
(-0.0356878 0.0408728 -1.55224e-19)
(-0.0300475 0.0454035 -4.58878e-19)
(-0.0157226 0.0481508 -3.3334e-20)
(0.00814807 0.0495477 2.44808e-20)
(0.0424403 0.049942 4.36235e-20)
(0.0880471 0.0496457 -2.78536e-19)
(0.14583 0.0489594 -1.16756e-19)
(0.216509 0.0481723 -4.06859e-19)
(0.300466 0.0475392 -1.00094e-20)
(0.397473 0.047235 -1.14009e-19)
(0.506359 0.0472983 -3.52069e-20)
(0.624694 0.0475726 3.07353e-19)
(0.748623 0.0476814 -4.54062e-19)
(0.872977 0.0470144 1.92661e-19)
(0.991826 0.0449061 -3.10891e-19)
(1.09923 0.0404996 -4.72368e-19)
(1.1905 0.0336393 8.48209e-20)
(1.26246 0.0232305 8.95379e-19)
(1.31481 0.0112695 -4.58477e-19)
(1.34842 -0.00550504 1.48641e-20)
(1.36637 -0.020796 3.84877e-19)
(1.37308 -0.0386824 2.13133e-19)
(-0.0105657 0.0100302 1.52557e-19)
(-0.0252169 0.0237453 -2.16751e-19)
(-0.033299 0.0327058 -4.58907e-19)
(-0.0335599 0.0383179 -2.43479e-19)
(-0.0250654 0.0415032 2.65223e-19)
(-0.0069323 0.0429705 9.02371e-20)
(0.0217602 0.0432727 5.22073e-19)
(0.061958 0.0428569 2.10212e-19)
(0.114594 0.0421121 1.3169e-19)
(0.180482 0.041392 6.17349e-20)
(0.26014 0.0410109 4.21821e-19)
(0.353523 0.0412122 1.90587e-19)
(0.45969 0.0421151 -1.57666e-19)
(0.576479 0.0436528 2.25847e-19)
(0.700289 0.0455194 -1.31223e-19)
(0.826142 0.0471676 1.6878e-19)
(0.948113 0.0478367 -1.66095e-19)
(1.06017 0.0467714 -3.63055e-19)
(1.15711 0.0431373 5.34688e-19)
(1.2356 0.0368461 -5.67437e-19)
(1.29422 0.026982 1.57485e-19)
(1.33416 0.0157083 -1.87427e-19)
(1.35737 -0.000784187 -1.41712e-19)
(1.36745 -0.0132734 -1.14518e-18)
(1.36846 -0.0357232 1.6995e-19)
(-0.011205 0.0101616 3.11729e-20)
(-0.0257537 0.0233589 1.55248e-19)
(-0.032527 0.0314027 5.14699e-19)
(-0.0304119 0.0358821 -1.21364e-19)
(-0.0185072 0.0378876 -5.26673e-20)
(0.00409221 0.0382715 9.79903e-20)
(0.038349 0.0377027 8.69516e-20)
(0.0852427 0.0367231 -3.37724e-19)
(0.145678 0.0357939 -1.56141e-19)
(0.220315 0.0353144 -4.79402e-19)
(0.309315 0.0356092 -3.60213e-19)
(0.412014 0.036887 -2.56017e-19)
(0.526568 0.0391792 2.29361e-19)
(0.649693 0.0422766 -3.3573e-19)
(0.776637 0.0456938 -1.62644e-19)
(0.901541 0.0487038 -7.13976e-20)
(1.01819 0.0504217 -5.30273e-20)
(1.12102 0.0500523 1.08526e-18)
(1.20604 0.0468544 6.62428e-20)
(1.2715 0.0408304 -9.5915e-20)
(1.31762 0.0313391 -5.47294e-19)
(1.34673 0.020443 1.76044e-19)
(1.36154 0.00468472 2.0005e-20)
(1.36526 -0.00610875 6.42792e-19)
(1.36132 -0.0342367 6.24051e-20)
(-0.01177 0.0102134 2.46019e-19)
(-0.0259744 0.0228394 -2.36821e-19)
(-0.0310779 0.0300251 -3.59492e-19)
(-0.0261124 0.03349 3.60527e-19)
(-0.0102227 0.0344831 -7.97987e-20)
(0.0175061 0.0339895 -6.8768e-20)
(0.0580522 0.0327864 6.05021e-20)
(0.112376 0.0315042 -8.55827e-20)
(0.181266 0.0306688 2.13044e-19)
(0.265098 0.030712 1.37042e-19)
(0.363507 0.031948 3.55555e-19)
(0.475021 0.0345211 -9.49214e-21)
(0.596739 0.0383365 2.91328e-19)
(0.724217 0.0430066 -1.98595e-20)
(0.851709 0.0478471 3.12843e-19)
(0.972854 0.0519642 9.20702e-20)
(1.08166 0.0543967 -5.94783e-19)
(1.17357 0.0543754 -2.93603e-19)
(1.24607 0.0513106 -7.48059e-20)
(1.299 0.0453247 1.94579e-19)
(1.33395 0.0360561 -8.93746e-20)
(1.35398 0.0253911 -3.25748e-19)
(1.36216 0.0106142 4.56294e-20)
(1.3612 -0.000259032 -3.00494e-19)
(1.35553 -0.0227194 -1.44784e-19)
(-0.0122294 0.0101638 1.50706e-19)
(-0.0258036 0.0221418 1.61079e-19)
(-0.0288426 0.0285083 2.94974e-19)
(-0.0205376 0.0310693 -2.14668e-19)
(-7.95485e-05 0.0312191 1.5996e-20)
(0.0334332 0.0300607 4.2748e-19)
(0.080956 0.028471 -1.22043e-19)
(0.143362 0.0271605 -4.05381e-19)
(0.221216 0.0267079 -2.38803e-19)
(0.31446 0.0275593 3.18077e-19)
(0.422025 0.0299911 -6.60585e-19)
(0.541462 0.034045 2.55086e-21)
(0.668725 0.0394593 -5.58631e-20)
(0.798282 0.0456376 4.1906e-19)
(0.923687 0.0516956 -2.29203e-19)
(1.03855 0.0566099 3.15228e-19)
(1.13761 0.0594085 3.20849e-19)
(1.21765 0.0594163 -5.67669e-19)
(1.27776 0.0562368 -2.40098e-19)
(1.3192 0.0501282 -1.97651e-19)
(1.34452 0.0409726 3.02444e-19)
(1.35721 0.0305232 4.74659e-19)
(1.36026 0.0164976 2.18074e-19)
(1.35624 0.00636259 -1.93402e-19)
(1.34889 -0.0148019 -3.36883e-19)
(-0.0125513 0.00999836 -3.56364e-20)
(-0.0251699 0.0212288 1.51088e-19)
(-0.0257192 0.0267967 -2.99955e-19)
(-0.0135695 0.0285612 -4.59979e-19)
(0.012039 0.0280366 -6.79702e-19)
(0.0519688 0.0264324 1.16147e-19)
(0.107101 0.0247145 -1.35472e-19)
(0.178137 0.0236618 1.97732e-19)
(0.265292 0.0238895 7.28331e-20)
(0.36791 0.0258331 1.41832e-19)
(0.484047 0.0296952 1.54984e-19)
(0.610149 0.0353709 -8.65321e-20)
(0.741023 0.0423916 -1.2378e-19)
(0.870248 0.0499351 -2.79272e-19)
(0.991073 0.0569399 8.51989e-20)
(1.09757 0.0623127 -3.35403e-19)
(1.18564 0.0651441 1.23253e-19)
(1.2536 0.0649119 8.25234e-20)
(1.30202 0.061434 -3.33816e-19)
(1.33329 0.0551018 -3.57107e-19)
(1.35059 0.0460019 -1.91988e-19)
(1.35749 0.0357284 1.05146e-20)
(1.35674 0.0224582 5.76183e-20)
(1.35058 0.012618 -1.85849e-19)
(1.34226 -0.00666173 1.42353e-19)
(-0.0127054 0.00970648 2.316e-21)
(-0.0239999 0.0200726 -4.15233e-19)
(-0.0216137 0.0248552 5.29756e-19)
(-0.00510084 0.0259244 5.66144e-19)
(0.0262349 0.0248954 3.37387e-19)
(0.0731838 0.0230716 -1.1581e-20)
(0.136489 0.0214949 -1.22104e-19)
(0.216578 0.0209974 -1.67447e-19)
(0.313176 0.0222083 3.04311e-19)
(0.424861 0.0255194 -7.35952e-19)
(0.54866 0.0310145 7.41555e-20)
(0.679848 0.0383952 6.79458e-19)
(0.812188 0.0469534 9.5707e-20)
(0.938685 0.055646 -1.92489e-19)
(1.05275 0.063282 3.48321e-19)
(1.14935 0.0687729 3.87566e-19)
(1.22585 0.071342 9.82445e-20)
(1.28206 0.070662 7.17089e-19)
(1.31988 0.0667653 5.46788e-19)
(1.34245 0.0601602 3.15284e-19)