/*--------------------------------*- C++ -*----------------------------------*\
  =========                 |
  \\      /  F ield         | OpenFOAM: The Open Source CFD Toolbox
   \\    /   O peration     | Website:  https://openfoam.org
    \\  /    A nd           | Version:  7
     \\/     M anipulation  |
\*---------------------------------------------------------------------------*/
FoamFile
{
    version     2.0;
    format      ascii;
    class       volScalarField;
    location    "15";
    object      p;
}
// * * * * * * * * * * * * * * * * * * * * * * * * * * * * * * * * * * * * * //

dimensions      [0 2 -2 0 0 0 0];

internalField   nonuniform List<scalar> 
31800
(
-0.278055
-0.279711
-0.280648
-0.281413
-0.282081
-0.282676
-0.283237
-0.283791
-0.284353
-0.28493
-0.285525
-0.286136
-0.286759
-0.287388
-0.288018
-0.288642
-0.289256
-0.289855
-0.290439
-0.291011
-0.291582
-0.292176
-0.292827
-0.293567
-0.294517
-0.278176
-0.279818
-0.280748
-0.281506
-0.28217
-0.282761
-0.283319
-0.28387
-0.284428
-0.285003
-0.285596
-0.286205
-0.286826
-0.287454
-0.288082
-0.288704
-0.289314
-0.28991
-0.29049
-0.291056
-0.291618
-0.292199
-0.292835
-0.29355
-0.294467
-0.278417
-0.280029
-0.280945
-0.281692
-0.282346
-0.282929
-0.28348
-0.284025
-0.284578
-0.285148
-0.285737
-0.286342
-0.286959
-0.287583
-0.288206
-0.288824
-0.28943
-0.290019
-0.290589
-0.291143
-0.291688
-0.292244
-0.292851
-0.293516
-0.294367
-0.278773
-0.280344
-0.281237
-0.281967
-0.282607
-0.283178
-0.283719
-0.284254
-0.2848
-0.285362
-0.285943
-0.286542
-0.287153
-0.287771
-0.288388
-0.288999
-0.289597
-0.290176
-0.290733
-0.291268
-0.291787
-0.292307
-0.29287
-0.293465
-0.29421
-0.27924
-0.280757
-0.281622
-0.282329
-0.282949
-0.283504
-0.284031
-0.284554
-0.285088
-0.28564
-0.286211
-0.286801
-0.287403
-0.288012
-0.288621
-0.289222
-0.289809
-0.290375
-0.290914
-0.291425
-0.291909
-0.292383
-0.292889
-0.293396
-0.29399
-0.279812
-0.281263
-0.282093
-0.282772
-0.283369
-0.283903
-0.284412
-0.284918
-0.285437
-0.285975
-0.286534
-0.287111
-0.287702
-0.2883
-0.288897
-0.289485
-0.290058
-0.290607
-0.291125
-0.291606
-0.292049
-0.292466
-0.292902
-0.293311
-0.2937
-0.280482
-0.281857
-0.282645
-0.283292
-0.28386
-0.284369
-0.284855
-0.285342
-0.285842
-0.286362
-0.286904
-0.287466
-0.288041
-0.288624
-0.289206
-0.289779
-0.290334
-0.290862
-0.291354
-0.291802
-0.292198
-0.292548
-0.292902
-0.293213
-0.293328
-0.28124
-0.282531
-0.283273
-0.283882
-0.284417
-0.284896
-0.285356
-0.285817
-0.286294
-0.286792
-0.287314
-0.287855
-0.288412
-0.288975
-0.289539
-0.290092
-0.290626
-0.291129
-0.291592
-0.292002
-0.292348
-0.292625
-0.292884
-0.293108
-0.292855
-0.282079
-0.283277
-0.283969
-0.284536
-0.285032
-0.285478
-0.285905
-0.286337
-0.286785
-0.287257
-0.287753
-0.28827
-0.288803
-0.289344
-0.289883
-0.290413
-0.290922
-0.291397
-0.291827
-0.292196
-0.292488
-0.292689
-0.292841
-0.293009
-0.292237
-0.282987
-0.284089
-0.284726
-0.285246
-0.2857
-0.286107
-0.286497
-0.286894
-0.287308
-0.287748
-0.288213
-0.288701
-0.289205
-0.289717
-0.290229
-0.290731
-0.29121
-0.291654
-0.292047
-0.292372
-0.29261
-0.292735
-0.292762
-0.292937
-0.291438
-0.283957
-0.284959
-0.285538
-0.286007
-0.286414
-0.286776
-0.287124
-0.287479
-0.287855
-0.288256
-0.288684
-0.289136
-0.289606
-0.290085
-0.290565
-0.291033
-0.291479
-0.291887
-0.292241
-0.292521
-0.292703
-0.292757
-0.29263
-0.29286
-0.290758
-0.284978
-0.285879
-0.286397
-0.286812
-0.287167
-0.287479
-0.287779
-0.288087
-0.288416
-0.288773
-0.289158
-0.289568
-0.289998
-0.290438
-0.290879
-0.29131
-0.291717
-0.292086
-0.292398
-0.292631
-0.292756
-0.292752
-0.292494
-0.29264
-0.290086
-0.286043
-0.286843
-0.287298
-0.287655
-0.287953
-0.28821
-0.288454
-0.288708
-0.288984
-0.289289
-0.289625
-0.289987
-0.290369
-0.290764
-0.291162
-0.29155
-0.291915
-0.29224
-0.292508
-0.292692
-0.292759
-0.292704
-0.292295
-0.292463
-0.289259
-0.287143
-0.287843
-0.288234
-0.28853
-0.288767
-0.288962
-0.289145
-0.289338
-0.289553
-0.289799
-0.290077
-0.290384
-0.290713
-0.291057
-0.291405
-0.291744
-0.292062
-0.292341
-0.29256
-0.292695
-0.292699
-0.292612
-0.292011
-0.292333
-0.288286
-0.288271
-0.288876
-0.289201
-0.289433
-0.289603
-0.289731
-0.289846
-0.28997
-0.290117
-0.290296
-0.290508
-0.290752
-0.291022
-0.291308
-0.2916
-0.291887
-0.292152
-0.29238
-0.292547
-0.292633
-0.292567
-0.292468
-0.291623
-0.292226
-0.287185
-0.289424
-0.289937
-0.290196
-0.290361
-0.290459
-0.290514
-0.290553
-0.2906
-0.29067
-0.290774
-0.290913
-0.291087
-0.291289
-0.291511
-0.291743
-0.291971
-0.29218
-0.292353
-0.292464
-0.292498
-0.292351
-0.292267
-0.291112
-0.292121
-0.285965
-0.290596
-0.291023
-0.291216
-0.29131
-0.291332
-0.291306
-0.291262
-0.291224
-0.29121
-0.29123
-0.291289
-0.291385
-0.291513
-0.291665
-0.291829
-0.291994
-0.292142
-0.292255
-0.292307
-0.292289
-0.292043
-0.291999
-0.290464
-0.291982
-0.284652
-0.291786
-0.292133
-0.292259
-0.292279
-0.292221
-0.292107
-0.291972
-0.291841
-0.291733
-0.291662
-0.291632
-0.291643
-0.29169
-0.291766
-0.291859
-0.291955
-0.292038
-0.292088
-0.292073
-0.292001
-0.291637
-0.291656
-0.289676
-0.291754
-0.283286
-0.292995
-0.293267
-0.293327
-0.29327
-0.293124
-0.292917
-0.292683
-0.29245
-0.292241
-0.292069
-0.291943
-0.291861
-0.291822
-0.291816
-0.291831
-0.291855
-0.291868
-0.29185
-0.291762
-0.291634
-0.291132
-0.29122
-0.28876
-0.291365
-0.281922
-0.294225
-0.294429
-0.29442
-0.294283
-0.294045
-0.293736
-0.293395
-0.293052
-0.292733
-0.292454
-0.292223
-0.292043
-0.29191
-0.291817
-0.291751
-0.291697
-0.291635
-0.291545
-0.291376
-0.291184
-0.290529
-0.290667
-0.287741
-0.290729
-0.280609
-0.295479
-0.295621
-0.295543
-0.295321
-0.294984
-0.294568
-0.294111
-0.293651
-0.293214
-0.292819
-0.292477
-0.292192
-0.291961
-0.291775
-0.291623
-0.291487
-0.291346
-0.291175
-0.290917
-0.290648
-0.28983
-0.289965
-0.286645
-0.289767
-0.279367
-0.296766
-0.296849
-0.296701
-0.29639
-0.295947
-0.295415
-0.294836
-0.29425
-0.293687
-0.29317
-0.292711
-0.292315
-0.291979
-0.291697
-0.291454
-0.291231
-0.291003
-0.290745
-0.290385
-0.290017
-0.289033
-0.289076
-0.285486
-0.288422
-0.278163
-0.298094
-0.29812
-0.297899
-0.297493
-0.29694
-0.296285
-0.295575
-0.294855
-0.29416
-0.293513
-0.292931
-0.292419
-0.291975
-0.291592
-0.291253
-0.290937
-0.290614
-0.290256
-0.289779
-0.289281
-0.288133
-0.287971
-0.284253
-0.286677
-0.276921
-0.299473
-0.299444
-0.299146
-0.298639
-0.297968
-0.297182
-0.296335
-0.295475
-0.29464
-0.293858
-0.293147
-0.292515
-0.291959
-0.291469
-0.291028
-0.290611
-0.290183
-0.289707
-0.289095
-0.288426
-0.28711
-0.286626
-0.282903
-0.284557
-0.275539
-0.300916
-0.30083
-0.30045
-0.299837
-0.299041
-0.298117
-0.297125
-0.296117
-0.295137
-0.294215
-0.293371
-0.292614
-0.29194
-0.291339
-0.29079
-0.290262
-0.289712
-0.289095
-0.288321
-0.287436
-0.285937
-0.28503
-0.281376
-0.282111
-0.273925
-0.302438
-0.302291
-0.301823
-0.301096
-0.300167
-0.299097
-0.297953
-0.296792
-0.295662
-0.294595
-0.293614
-0.292728
-0.291932
-0.291214
-0.290546
-0.289891
-0.2892
-0.288414
-0.287442
-0.286292
-0.28458
-0.283179
-0.279609
-0.279386
-0.272014
-0.304054
-0.303838
-0.303276
-0.302427
-0.301356
-0.300134
-0.298832
-0.297512
-0.296226
-0.295011
-0.293889
-0.29287
-0.291947
-0.291102
-0.290302
-0.289502
-0.288642
-0.28765
-0.286439
-0.284974
-0.283003
-0.281067
-0.277553
-0.276401
-0.269765
-0.305781
-0.305488
-0.304822
-0.303842
-0.302621
-0.301239
-0.299772
-0.298288
-0.296843
-0.295475
-0.294209
-0.293051
-0.291993
-0.29101
-0.290062
-0.289091
-0.288028
-0.286788
-0.285289
-0.283463
-0.281178
-0.278688
-0.275174
-0.273119
-0.267154
-0.307637
-0.307253
-0.306473
-0.305352
-0.303973
-0.302423
-0.300786
-0.299133
-0.297525
-0.296002
-0.294587
-0.293284
-0.292082
-0.290946
-0.289825
-0.288652
-0.287345
-0.285811
-0.283972
-0.281743
-0.279091
-0.276051
-0.272453
-0.269447
-0.264207
-0.30964
-0.309148
-0.308243
-0.306971
-0.305425
-0.3037
-0.301886
-0.300061
-0.298286
-0.296603
-0.295034
-0.293579
-0.292218
-0.290909
-0.289587
-0.288173
-0.286576
-0.284699
-0.28247
-0.279806
-0.276739
-0.273185
-0.269396
-0.265377
-0.261015
-0.311807
-0.31119
-0.310147
-0.308712
-0.306989
-0.305082
-0.303086
-0.301084
-0.299138
-0.297291
-0.295562
-0.293944
-0.292407
-0.290898
-0.28934
-0.287641
-0.285705
-0.283434
-0.280773
-0.277649
-0.274138
-0.270124
-0.266037
-0.261256
-0.257485
-0.314156
-0.313394
-0.312198
-0.310589
-0.308679
-0.306581
-0.304398
-0.302215
-0.300095
-0.298079
-0.296179
-0.294383
-0.292648
-0.290906
-0.28907
-0.287038
-0.284712
-0.282004
-0.278876
-0.275279
-0.271318
-0.266888
-0.26242
-0.257304
-0.253091
-0.316706
-0.315774
-0.31441
-0.312614
-0.310507
-0.308212
-0.305837
-0.303467
-0.301168
-0.298975
-0.296893
-0.294899
-0.292936
-0.290924
-0.288762
-0.286346
-0.283582
-0.280399
-0.276782
-0.272711
-0.26831
-0.263496
-0.258679
-0.253283
-0.248652
-0.319473
-0.318345
-0.316798
-0.314802
-0.312487
-0.309988
-0.307414
-0.304853
-0.302368
-0.299988
-0.297708
-0.295491
-0.293265
-0.290937
-0.2884
-0.285548
-0.282304
-0.278617
-0.274501
-0.269965
-0.265146
-0.259983
-0.254851
-0.249232
-0.244333
-0.322473
-0.321122
-0.319374
-0.317164
-0.314632
-0.31192
-0.309142
-0.306385
-0.303705
-0.301124
-0.298625
-0.296153
-0.293623
-0.29093
-0.287963
-0.284628
-0.280868
-0.276661
-0.272047
-0.267064
-0.261856
-0.256376
-0.25097
-0.245166
-0.240057
-0.325721
-0.324118
-0.322152
-0.319715
-0.316954
-0.314022
-0.311033
-0.308072
-0.305187
-0.302388
-0.299642
-0.296877
-0.293994
-0.290881
-0.287433
-0.283574
-0.279271
-0.274537
-0.269437
-0.264031
-0.258464
-0.2527
-0.247054
-0.241086
-0.235825
-0.32923
-0.327345
-0.325144
-0.322466
-0.319467
-0.316307
-0.3131
-0.309925
-0.30682
-0.30378
-0.300752
-0.297649
-0.29436
-0.290772
-0.286794
-0.282375
-0.277514
-0.272256
-0.266689
-0.260887
-0.254989
-0.248969
-0.24311
-0.236997
-0.231606
-0.333013
-0.330816
-0.328362
-0.325431
-0.322183
-0.318787
-0.315353
-0.311952
-0.308608
-0.305296
-0.301945
-0.298452
-0.2947
-0.290582
-0.286031
-0.281025
-0.275601
-0.269831
-0.263818
-0.257647
-0.251448
-0.245193
-0.239142
-0.232895
-0.227387
-0.33708
-0.334541
-0.331817
-0.32862
-0.325114
-0.321473
-0.317802
-0.31416
-0.310551
-0.306931
-0.303208
-0.299266
-0.29499
-0.290292
-0.28513
-0.279523
-0.273538
-0.267273
-0.260839
-0.254326
-0.247847
-0.241379
-0.235149
-0.228778
-0.223159
-0.34144
-0.338529
-0.33552
-0.332045
-0.328271
-0.324376
-0.320455
-0.31655
-0.312646
-0.308672
-0.30452
-0.300068
-0.295209
-0.289882
-0.284083
-0.277867
-0.271332
-0.264592
-0.257763
-0.25093
-0.244192
-0.237525
-0.231128
-0.224639
-0.218913
-0.3461
-0.342788
-0.339479
-0.335715
-0.331664
-0.327505
-0.323318
-0.319124
-0.314883
-0.310502
-0.305859
-0.300831
-0.295333
-0.289337
-0.282883
-0.27606
-0.26899
-0.261798
-0.254597
-0.247466
-0.240484
-0.23363
-0.227073
-0.220474
-0.214643
-0.351066
-0.347325
-0.343701
-0.339639
-0.335302
-0.330865
-0.326391
-0.321876
-0.317251
-0.312402
-0.307197
-0.301528
-0.295339
-0.288644
-0.281524
-0.274102
-0.266517
-0.258896
-0.251345
-0.243932
-0.236722
-0.22969
-0.222981
-0.216276
-0.210341
-0.356339
-0.352143
-0.348194
-0.343824
-0.339191
-0.334461
-0.329674
-0.324796
-0.319729
-0.314343
-0.308506
-0.302133
-0.295207
-0.28779
-0.280004
-0.271997
-0.263918
-0.25589
-0.248007
-0.240329
-0.232901
-0.2257
-0.218843
-0.212038
-0.206001
-0.361919
-0.357243
-0.352959
-0.348274
-0.343333
-0.338292
-0.333159
-0.327867
-0.322294
-0.316295
-0.309753
-0.302616
-0.294917
-0.286766
-0.278319
-0.269745
-0.261193
-0.252778
-0.244582
-0.23665
-0.229015
-0.221652
-0.214654
-0.207754
-0.201618
-0.367801
-0.362625
-0.357996
-0.35299
-0.347729
-0.342352
-0.336833
-0.331069
-0.324914
-0.318224
-0.310905
-0.302952
-0.294452
-0.285562
-0.276467
-0.267346
-0.258342
-0.24956
-0.241065
-0.232892
-0.225058
-0.21754
-0.210406
-0.203418
-0.197185
-0.373977
-0.368281
-0.363303
-0.357967
-0.352372
-0.34663
-0.340675
-0.33437
-0.327553
-0.32009
-0.311927
-0.303115
-0.293797
-0.284171
-0.274444
-0.264796
-0.255361
-0.246229
-0.23745
-0.229046
-0.221022
-0.213356
-0.206092
-0.199022
-0.192697
-0.380433
-0.374203
-0.368871
-0.363199
-0.357251
-0.351107
-0.344658
-0.337735
-0.33017
-0.321855
-0.312787
-0.303081
-0.292936
-0.282585
-0.272245
-0.262092
-0.252246
-0.24278
-0.233729
-0.225104
-0.2169
-0.209091
-0.201706
-0.194561
-0.188147
-0.387151
-0.380376
-0.374687
-0.368672
-0.362347
-0.355757
-0.348747
-0.341121
-0.33272
-0.323476
-0.313452
-0.302829
-0.291857
-0.280795
-0.269864
-0.259228
-0.248989
-0.239205
-0.229895
-0.221058
-0.212682
-0.20474
-0.197239
-0.190027
-0.18353
-0.394106
-0.386779
-0.380734
-0.374365
-0.367636
-0.360547
-0.352899
-0.344481
-0.335156
-0.324912
-0.313889
-0.302336
-0.290546
-0.278792
-0.267293
-0.256194
-0.245582
-0.235493
-0.225936
-0.216899
-0.208361
-0.200292
-0.192686
-0.185414
-0.178839
-0.401268
-0.393386
-0.386985
-0.380252
-0.373084
-0.365436
-0.357066
-0.347761
-0.337425
-0.326122
-0.31407
-0.301583
-0.288988
-0.276567
-0.264522
-0.252983
-0.242014
-0.231637
-0.221845
-0.212618
-0.203927
-0.195742
-0.188039
-0.180717
-0.174071
-0.408598
-0.400165
-0.39341
-0.386297
-0.37865
-0.370372
-0.36119
-0.350905
-0.339479
-0.327064
-0.313965
-0.30055
-0.287171
-0.274106
-0.261542
-0.249583
-0.238276
-0.227624
-0.21761
-0.208205
-0.199373
-0.19108
-0.183291
-0.175928
-0.169219
-0.416053
-0.407077
-0.39997
-0.392459
-0.384284
-0.375299
-0.36521
-0.353851
-0.341265
-0.327701
-0.313546
-0.299218
-0.28508
-0.271399
-0.258339
-0.245983
-0.234354
-0.223443
-0.213221
-0.203651
-0.19469
-0.1863
-0.178437
-0.171042
-0.164278
-0.423581
-0.414075
-0.406617
-0.398685
-0.389928
-0.380153
-0.36906
-0.35654
-0.342734
-0.327995
-0.312788
-0.297568
-0.2827
-0.268431
-0.254902
-0.242169
-0.230238
-0.219085
-0.208669
-0.198947
-0.18987
-0.181395
-0.17347
-0.166054
-0.159243
-0.431123
-0.421105
-0.413298
-0.404918
-0.395516
-0.384862
-0.37267
-0.35891
-0.343836
-0.32791
-0.311665
-0.295581
-0.280014
-0.265189
-0.251217
-0.23813
-0.225916
-0.214537
-0.203944
-0.194084
-0.184905
-0.176358
-0.168384
-0.160957
-0.15411
-0.438613
-0.428106
-0.419951
-0.411089
-0.400975
-0.389351
-0.375968
-0.360899
-0.344525
-0.327412
-0.310153
-0.293237
-0.277008
-0.261657
-0.247269
-0.233852
-0.221375
-0.209789
-0.199035
-0.189054
-0.179787
-0.171183
-0.163174
-0.155748
-0.148875
-0.445978
-0.43501
-0.426505
-0.417126
-0.406227
-0.39354
-0.378882
-0.362447
-0.344754
-0.326469
-0.308226
-0.290519
-0.273663
-0.25782
-0.243044
-0.229321
-0.216604
-0.20483
-0.193934
-0.183848
-0.174511
-0.165862
-0.157835
-0.150421
-0.143534
-0.45314
-0.441742
-0.432885
-0.422945
-0.411186
-0.397348
-0.381339
-0.363498
-0.344483
-0.325048
-0.305862
-0.287405
-0.269963
-0.253662
-0.238528
-0.224525
-0.21159
-0.19965
-0.188631
-0.178459
-0.169068
-0.160392
-0.152361
-0.144971
-0.138084
-0.460013
-0.448223
-0.439007
-0.428462
-0.415764
-0.400691
-0.383268
-0.363995
-0.343669
-0.323122
-0.303038
-0.283878
-0.265891
-0.249169
-0.233707
-0.219451
-0.206323
-0.194239
-0.183118
-0.17288
-0.163453
-0.154766
-0.146748
-0.139395
-0.132522
-0.466509
-0.454364
-0.444783
-0.433583
-0.419871
-0.403486
-0.3846
-0.363888
-0.342276
-0.320661
-0.299732
-0.279918
-0.26143
-0.244323
-0.228567
-0.214087
-0.200792
-0.188589
-0.177388
-0.167104
-0.15766
-0.14898
-0.140993
-0.133689
-0.126846
-0.472533
-0.460076
-0.45012
-0.438214
-0.423415
-0.405653
-0.385272
-0.363126
-0.340268
-0.31764
-0.295922
-0.275507
-0.256563
-0.239111
-0.223095
-0.208421
-0.194987
-0.18269
-0.171433
-0.161125
-0.151685
-0.143029
-0.135092
-0.127851
-0.121055
-0.477988
-0.465264
-0.454922
-0.442258
-0.426304
-0.407112
-0.38522
-0.361666
-0.337611
-0.314033
-0.291588
-0.270627
-0.251274
-0.233519
-0.217278
-0.202443
-0.188899
-0.176535
-0.165247
-0.154938
-0.145522
-0.136911
-0.129041
-0.121877
-0.115147
-0.482777
-0.46983
-0.459089
-0.445618
-0.428449
-0.407789
-0.384389
-0.359465
-0.334277
-0.309817
-0.28671
-0.26526
-0.24555
-0.227533
-0.211106
-0.196144
-0.182521
-0.170118
-0.158824
-0.148538
-0.139168
-0.130623
-0.122838
-0.115768
-0.109123
-0.4868
-0.473678
-0.462524
-0.448198
-0.429764
-0.407614
-0.382725
-0.356486
-0.330237
-0.30497
-0.281271
-0.259392
-0.239375
-0.221142
-0.204568
-0.189514
-0.175844
-0.163432
-0.152159
-0.141921
-0.132619
-0.124161
-0.116482
-0.109523
-0.102989
-0.489958
-0.476708
-0.465127
-0.449903
-0.430167
-0.406522
-0.380181
-0.352696
-0.325467
-0.299474
-0.275253
-0.253008
-0.232737
-0.214334
-0.197654
-0.182546
-0.168863
-0.156472
-0.145249
-0.135084
-0.125874
-0.117522
-0.109968
-0.10314
-0.0967472
-0.492155
-0.478823
-0.466802
-0.450643
-0.429581
-0.404455
-0.376716
-0.348065
-0.319945
-0.29331
-0.268643
-0.246095
-0.225625
-0.2071
-0.190358
-0.175234
-0.161574
-0.149236
-0.138092
-0.128025
-0.11893
-0.110705
-0.103294
-0.0966127
-0.0903787
-0.493296
-0.47993
-0.467456
-0.450334
-0.427936
-0.40136
-0.372292
-0.342567
-0.313652
-0.286463
-0.261426
-0.238642
-0.21803
-0.199433
-0.182673
-0.167573
-0.153972
-0.14172
-0.130684
-0.120744
-0.111787
-0.103711
-0.0964615
-0.089935
-0.0838323
-0.493293
-0.479939
-0.467003
-0.448897
-0.42517
-0.397192
-0.36688
-0.336182
-0.306573
-0.278921
-0.253594
-0.230639
-0.209944
-0.191327
-0.174594
-0.15956
-0.146055
-0.133923
-0.123025
-0.113239
-0.104446
-0.0965407
-0.0894765
-0.0831137
-0.0770814
-0.492062
-0.478765
-0.465359
-0.446261
-0.421227
-0.391912
-0.360454
-0.328892
-0.298695
-0.270674
-0.245136
-0.222081
-0.201361
-0.182777
-0.166119
-0.151193
-0.137822
-0.125844
-0.115117
-0.105512
-0.096907
-0.089198
-0.0823404
-0.0761578
-0.0702377
-0.489524
-0.476328
-0.462451
-0.442363
-0.41606
-0.385489
-0.352993
-0.320685
-0.290008
-0.261714
-0.236047
-0.212961
-0.192279
-0.173781
-0.157247
-0.142472
-0.129273
-0.117485
-0.10696
-0.0975648
-0.0891736
-0.0816868
-0.0750561
-0.0690439
-0.0633502
-0.485611
-0.472559
-0.458212
-0.437148
-0.409631
-0.3779
-0.344486
-0.311552
-0.280508
-0.252038
-0.226324
-0.203279
-0.182696
-0.164339
-0.147977
-0.133397
-0.12041
-0.108848
-0.0985566
-0.0894016
-0.0812509
-0.0740086
-0.0676213
-0.0618043
-0.0563761
-0.480261
-0.467394
-0.452586
-0.430571
-0.40191
-0.369127
-0.334922
-0.30149
-0.270193
-0.241643
-0.215967
-0.193033
-0.172612
-0.154452
-0.13831
-0.123972
-0.111238
-0.0999386
-0.0899128
-0.0810248
-0.0731414
-0.0661673
-0.0600421
-0.0544457
-0.0492998
-0.473422
-0.460781
-0.445524
-0.422598
-0.392877
-0.359162
-0.324301
-0.2905
-0.259063
-0.230533
-0.204977
-0.182227
-0.16203
-0.144123
-0.128252
-0.114204
-0.101762
-0.0907586
-0.081032
-0.0724404
-0.0648501
-0.0581679
-0.052325
-0.0469704
-0.0421201
-0.465052
-0.452674
-0.436989
-0.413204
-0.382519
-0.348003
-0.312624
-0.278586
-0.247125
-0.218712
-0.19336
-0.170865
-0.150958
-0.13336
-0.117814
-0.104093
-0.0919864
-0.081316
-0.0719205
-0.0636544
-0.0563831
-0.0500163
-0.044476
-0.0393809
-0.0348413
-0.455118
-0.443041
-0.426956
-0.402373
-0.370834
-0.335653
-0.299901
-0.265758
-0.234387
-0.206189
-0.181123
-0.158956
-0.139405
-0.122172
-0.106999
-0.0936518
-0.0819193
-0.0716184
-0.0625861
-0.0546743
-0.0477476
-0.0417193
-0.0365012
-0.0316817
-0.0274698
-0.443599
-0.431859
-0.415406
-0.390101
-0.357826
-0.322126
-0.286146
-0.25203
-0.220864
-0.192975
-0.168277
-0.146517
-0.127378
-0.110567
-0.0958168
-0.0828888
-0.0715703
-0.0616748
-0.0530374
-0.0455083
-0.0389516
-0.0332847
-0.0284074
-0.0238792
-0.0200126
-0.430484
-0.419116
-0.402337
-0.376392
-0.34351
-0.307439
-0.271378
-0.23742
-0.20657
-0.179087
-0.154843
-0.133552
-0.114891
-0.0985575
-0.08428
-0.0718157
-0.0609504
-0.0514955
-0.0432845
-0.0361658
-0.0300042
-0.0247209
-0.0202025
-0.0159809
-0.0124774
-0.415773
-0.404812
-0.387752
-0.361261
-0.327908
-0.291618
-0.255623
-0.221952
-0.191528
-0.164546
-0.140832
-0.120081
-0.101959
-0.0861588
-0.0724024
-0.0604454
-0.050072
-0.0410922
-0.0333383
-0.0266575
-0.0209155
-0.0160373
-0.0118953
-0.00799554
-0.00487243
-0.399479
-0.388956
-0.371668
-0.344733
-0.311048
-0.274693
-0.238909
-0.205652
-0.175762
-0.14937
-0.126266
-0.106124
-0.0886021
-0.0733873
-0.0601996
-0.0487924
-0.0389488
-0.0304778
-0.0232111
-0.0169949
-0.0116965
-0.00724446
-0.00349554
6.70209e-05
0.00279332
-0.381623
-0.371569
-0.354112
-0.326839
-0.292968
-0.256704
-0.221272
-0.188551
-0.1593
-0.133586
-0.111168
-0.0917014
-0.0748386
-0.0602617
-0.047689
-0.036873
-0.0275959
-0.0196665
-0.0129162
-0.0071905
-0.00235908
0.0016465
0.00498618
0.00819609
0.0105099
-0.362237
-0.352682
-0.335119
-0.307622
-0.273714
-0.237692
-0.202747
-0.170686
-0.142173
-0.117224
-0.0955646
-0.0768383
-0.0606911
-0.0468026
-0.0348899
-0.0247049
-0.0160298
-0.00867374
-0.00246786
0.00274204
0.00708377
0.0106234
0.0135383
0.0163799
0.0182663
-0.341364
-0.332336
-0.314734
-0.287135
-0.25334
-0.217694
-0.183382
-0.152094
-0.124417
-0.100314
-0.0794849
-0.061561
-0.0461842
-0.0330326
-0.021823
-0.0123073
-0.00426833
0.00248413
0.00811846
0.0127883
0.0166183
0.0196733
0.0221484
0.0246055
0.0260501
-0.319056
-0.310582
-0.293016
-0.265445
-0.231889
-0.196765
-0.163223
-0.13282
-0.10607
-0.0828916
-0.0629605
-0.0458985
-0.0313445
-0.0189762
-0.00851063
0.000299255
0.00766964
0.0137896
0.0188266
0.022933
0.02623
0.0287823
0.0308028
0.0328574
0.0338468
-0.29537
-0.287481
-0.270033
-0.242617
-0.209389
-0.174984
-0.142324
-0.112908
-0.0871747
-0.0649949
-0.046026
-0.0298821
-0.0162006
-0.00465945
0.00502311
0.0130928
0.019764
0.0252242
0.0296395
0.0331604
0.0359039
0.037936
0.0394866
0.0411175
0.0416357
-0.270373
-0.263108
-0.245859
-0.218638
-0.185992
-0.1524
-0.120739
-0.0924112
-0.0677751
-0.0466641
-0.0287179
-0.0135452
-0.000782981
0.00988977
0.0187529
0.02605
0.0319935
0.0367685
0.0405395
0.043454
0.0456244
0.0471198
0.0481853
0.0493666
0.0493894
-0.244138
-0.237543
-0.220558
-0.193642
-0.161729
-0.129079
-0.0985304
-0.0713808
-0.0479193
-0.0279422
-0.0110752
0.00307668
0.0148762
0.0246421
0.032652
0.0391467
0.044336
0.0484024
0.0515082
0.0537969
0.0553754
0.0563188
0.0568863
0.0575904
0.057091
-0.216742
-0.210875
-0.19414
-0.167788
-0.136677
-0.105092
-0.075759
-0.0498733
-0.0276572
-0.00887454
0.00686091
0.0199464
0.0307429
0.0395668
0.0466923
0.0523574
0.0567684
0.0601051
0.0625268
0.0641713
0.0651395
0.0655178
0.06558
0.0657812
0.0647355
-0.188256
-0.1832
-0.166801
-0.141101
-0.110918
-0.0805115
-0.0524907
-0.0279472
-0.00704149
0.0104915
0.0250476
0.0370248
0.0467819
0.0546315
0.0608447
0.0656556
0.0692668
0.071855
0.0735758
0.0745591
0.0748998
0.074704
0.0742573
0.0739055
0.0722241
-0.158795
-0.154629
-0.138639
-0.11367
-0.084537
-0.0554149
-0.0287932
-0.00566325
0.0138731
0.0301064
0.04344
0.0542715
0.0629562
0.0698031
0.0750789
0.0790138
0.0818065
0.0836301
0.0846354
0.0849425
0.0846434
0.0838745
0.0829052
0.0818485
0.0792444
-0.128613
-0.125148
-0.109729
-0.0855923
-0.0576199
-0.0298801
-0.00473691
0.0169155
0.0350298
0.049919
0.0619919
0.0716444
0.0792279
0.0850469
0.0893637
0.0924039
0.0943621
0.0954076
0.0956853
0.0953051
0.0943642
0.0930363
0.0915068
0.0894705
0.0855693
-0.0976998
-0.0949378
-0.0801732
-0.056968
-0.0302573
-0.00398794
0.0196059
0.0397243
0.0563705
0.0698768
0.0806556
0.0891003
0.0955578
0.100327
0.103667
0.105797
0.106907
0.107164
0.106704
0.105631
0.104056
0.102185
0.100033
0.0968341
0.0918983
-0.0661497
-0.0641306
-0.0500782
-0.0278978
-0.00254164
0.0221787
0.0441611
0.0626968
0.0778352
0.0899255
0.0993823
0.106595
0.111906
0.115609
0.117955
0.119162
0.119415
0.118874
0.11767
0.115902
0.113703
0.111279
0.108424
0.104133
0.100338
-0.034088
-0.0328406
-0.0195554
0.00151447
0.0254329
0.0485355
0.0688532
0.085765
0.099363
0.11001
0.118122
0.124084
0.128231
0.130853
0.132196
0.132471
0.131858
0.130513
0.12856
0.126099
0.123276
0.120262
0.116698
0.111802
0.108726
-0.00163926
-0.00118377
0.0112812
0.0311634
0.0535708
0.0749968
0.0936058
0.10886
0.120892
0.130075
0.136824
0.14152
0.144492
0.146023
0.146354
0.145691
0.144208
0.142056
0.139354
0.136202
0.132751
0.129128
0.124919
0.11963
0.116656
0.0310725
0.030721
0.0423164
0.0609423
0.0817756
0.101476
0.118341
0.131914
0.142359
0.150063
0.155438
0.158858
0.160647
0.161082
0.160396
0.158791
0.156436
0.153476
0.150026
0.146187
0.142104
0.137871
0.133079
0.127456
0.124307
0.0639221
0.0627531
0.0734339
0.090744
0.109951
0.127887
0.142982
0.154854
0.163702
0.169918
0.173911
0.17605
0.176653
0.175989
0.174287
0.17174
0.168515
0.164749
0.160553
0.156029
0.151315
0.146479
0.141143
0.135169
0.131703
0.0967836
0.0947905
0.104517
0.120461
0.137999
0.154143
0.167451
0.177613
0.184857
0.189581
0.192192
0.193051
0.192469
0.190708
0.187992
0.184507
0.180414
0.175847
0.170911
0.165707
0.160365
0.154936
0.149075
0.142729
0.13887
0.129531
0.126711
0.13545
0.149987
0.165823
0.180156
0.191669
0.200119
0.205761
0.208997
0.21023
0.209813
0.208051
0.2052
0.201475
0.197059
0.192106
0.186744
0.181076
0.175198
0.169233
0.163222
0.156848
0.150112
0.145817
0.162038
0.158392
0.166116
0.179214
0.193329
0.205842
0.215559
0.222303
0.226351
0.228109
0.227972
0.22629
0.223358
0.219426
0.214704
0.209366
0.203562
0.197415
0.191024
0.184481
0.1779
0.171318
0.164438
0.157301
0.152545
0.194181
0.189713
0.196402
0.208038
0.22042
0.231114
0.239045
0.244097
0.246566
0.246859
0.245369
0.242436
0.238349
0.23335
0.227642
0.221396
0.214754
0.207835
0.200731
0.193533
0.186347
0.179204
0.171826
0.164284
0.159053
0.225836
0.220552
0.226192
0.236356
0.247005
0.25589
0.262053
0.265431
0.266342
0.265193
0.262369
0.258204
0.252981
0.246933
0.240258
0.233119
0.225655
0.217976
0.210175
0.202334
0.194555
0.186862
0.178996
0.171049
0.165334
0.25688
0.250794
0.255377
0.264065
0.27299
0.280087
0.284506
0.28624
0.285621
0.283056
0.278924
0.273552
0.267214
0.260139
0.252516
0.244505
0.236236
0.227816
0.219332
0.210864
0.202505
0.194274
0.185931
0.177585
0.171382
0.287196
0.280321
0.283848
0.291067
0.298287
0.303624
0.306334
0.306459
0.304343
0.300394
0.294984
0.288434
0.281009
0.272932
0.264386
0.255524
0.246471
0.23733
0.228181
0.219102
0.210179
0.201425
0.192619
0.18388
0.17719
0.316667
0.30902
0.311499
0.317265
0.322809
0.326424
0.327466
0.326022
0.322451
0.317156
0.310504
0.302808
0.294327
0.285277
0.275835
0.266147
0.256334
0.246493
0.236701
0.227029
0.217559
0.208299
0.199044
0.189922
0.182751
0.34518
0.336783
0.338227
0.342565
0.346472
0.34841
0.347834
0.34487
0.339888
0.33329
0.325437
0.316633
0.307131
0.297141
0.286833
0.276348
0.2658
0.255284
0.244871
0.234628
0.224629
0.21488
0.205194
0.195701
0.188055
0.372626
0.363503
0.363934
0.366878
0.369193
0.36951
0.36737
0.362941
0.356601
0.348748
0.339738
0.329868
0.319385
0.30849
0.297349
0.286098
0.274846
0.26368
0.252671
0.241879
0.231373
0.221154
0.211055
0.201205
0.193094
0.398901
0.38908
0.388523
0.390116
0.390897
0.389653
0.386014
0.38018
0.372538
0.363484
0.353366
0.342476
0.331053
0.319293
0.307356
0.295372
0.283446
0.271661
0.260081
0.248765
0.237775
0.227109
0.216616
0.206423
0.197861
0.423903
0.413415
0.411906
0.412198
0.411507
0.408773
0.403703
0.39653
0.387649
0.377452
0.36628
0.354419
0.342102
0.32952
0.316826
0.304146
0.29158
0.279206
0.267085
0.255271
0.24382
0.232729
0.221864
0.211346
0.202348
0.447539
0.436417
0.433995
0.433045
0.430954
0.426805
0.420381
0.411941
0.401888
0.390609
0.378441
0.365663
0.352502
0.339142
0.325734
0.312397
0.299226
0.286296
0.273664
0.261381
0.249495
0.238003
0.226789
0.215962
0.206548
0.469718
0.457999
0.454711
0.452584
0.449172
0.443691
0.435993
0.426364
0.41521
0.402916
0.389813
0.376174
0.362221
0.348133
0.334055
0.320101
0.306364
0.292913
0.279803
0.267079
0.254786
0.24292
0.231379
0.220262
0.210452
0.490355
0.478079
0.473976
0.470745
0.466097
0.459374
0.450488
0.439752
0.427573
0.414335
0.400362
0.385922
0.371232
0.356467
0.341765
0.327239
0.312975
0.299041
0.285486
0.272353
0.259681
0.247467
0.235623
0.224237
0.214056
0.509374
0.496582
0.49172
0.487465
0.481673
0.473802
0.463821
0.452063
0.438939
0.424831
0.410056
0.394879
0.37951
0.36412
0.348845
0.333791
0.319042
0.304662
0.290699
0.27719
0.264169
0.251635
0.239514
0.227879
0.217351
0.526701
0.513439
0.507879
0.502685
0.495846
0.486927
0.475946
0.463257
0.449273
0.434371
0.418866
0.403017
0.38703
0.371072
0.355274
0.33974
0.32455
0.309764
0.295428
0.281577
0.268239
0.255414
0.243041
0.23118
0.220334
0.542272
0.528585
0.522394
0.51635
0.508569
0.498705
0.486826
0.473299
0.458542
0.442927
0.426766
0.410312
0.39377
0.377301
0.361034
0.345069
0.329483
0.314333
0.299663
0.285504
0.271882
0.258796
0.246198
0.234132
0.222998
0.556027
0.541964
0.535212
0.528415
0.519797
0.509098
0.496424
0.482158
0.466717
0.450471
0.433731
0.416744
0.399711
0.382792
0.36611
0.349764
0.333828
0.318358
0.303392
0.288961
0.275088
0.261772
0.248975
0.23673
0.225339
0.567914
0.553526
0.546286
0.538835
0.529493
0.518071
0.50471
0.489804
0.473772
0.456982
0.43974
0.422293
0.404836
0.387527
0.370488
0.353813
0.337575
0.321826
0.306606
0.291941
0.277851
0.264337
0.251369
0.238968
0.227353
0.57789
0.563227
0.555577
0.547575
0.537623
0.525595
0.511657
0.496213
0.479685
0.462439
0.444776
0.426942
0.40913
0.391494
0.374154
0.357204
0.340712
0.324731
0.309297
0.294435
0.280163
0.266483
0.253371
0.24084
0.229037
0.585916
0.571033
0.56305
0.554603
0.544161
0.531643
0.517241
0.501365
0.484438
0.466824
0.448824
0.430678
0.41258
0.394681
0.3771
0.359927
0.343232
0.327064
0.311458
0.296438
0.28202
0.268205
0.254979
0.242342
0.230387
0.591962
0.576912
0.568679
0.559897
0.549084
0.536198
0.521445
0.505244
0.488016
0.470125
0.45187
0.43349
0.415176
0.397079
0.379316
0.361977
0.345128
0.328819
0.313083
0.297945
0.283416
0.269501
0.256188
0.243472
0.231402
0.596005
0.580844
0.572442
0.563436
0.552375
0.539242
0.524256
0.507837
0.490408
0.472332
0.453906
0.435369
0.416911
0.398682
0.380797
0.363346
0.346395
0.329991
0.314169
0.298951
0.284349
0.270367
0.256996
0.244227
0.23208
0.59803
0.582814
0.574328
0.565208
0.554024
0.540767
0.525663
0.509135
0.491605
0.473437
0.454925
0.43631
0.41778
0.399485
0.381539
0.364032
0.347029
0.330578
0.314713
0.299455
0.284816
0.2708
0.2574
0.244605
0.232419
0.59803
0.582814
0.574328
0.565208
0.554024
0.540767
0.525663
0.509135
0.491605
0.473437
0.454925
0.43631
0.41778
0.399485
0.381539
0.364032
0.347029