/*--------------------------------*- C++ -*----------------------------------*\
  =========                 |
  \\      /  F ield         | OpenFOAM: The Open Source CFD Toolbox
   \\    /   O peration     | Website:  https://openfoam.org
    \\  /    A nd           | Version:  7
     \\/     M anipulation  |
\*---------------------------------------------------------------------------*/
FoamFile
{
    version     2.0;
    format      ascii;
    class       surfaceScalarField;
    location    "15";
    object      phi;
}
// * * * * * * * * * * * * * * * * * * * * * * * * * * * * * * * * * * * * * //

dimensions      [0 3 -1 0 0 0 0];

internalField   nonuniform List<scalar> 
63130
(
-2.46696e-06
2.46686e-06
9.69233e-11
-9.05641e-06
6.58919e-06
2.70677e-10
-1.93066e-05
1.02498e-05
4.22875e-10
-3.28119e-05
1.35047e-05
5.50269e-10
-4.92184e-05
1.64058e-05
6.53698e-10
-6.82251e-05
1.9006e-05
7.35676e-10
-8.95831e-05
2.13572e-05
7.98545e-10
-0.000113095
2.35107e-05
8.43048e-10
-0.000138612
2.55167e-05
8.63866e-10
-0.000166036
2.74224e-05
8.66765e-10
-0.000195307
2.92703e-05
8.66533e-10
-0.000226405
3.10976e-05
8.65949e-10
-0.000259341
3.29348e-05
8.63302e-10
-0.000294148
3.48059e-05
8.55819e-10
-0.000330878
3.67294e-05
8.39886e-10
-0.0003696
3.87211e-05
8.11124e-10
-0.000410399
4.07983e-05
7.64389e-10
-0.000453386
4.29869e-05
6.93889e-10
-0.00049872
4.53325e-05
5.92971e-10
-0.000546636
4.79158e-05
4.5427e-10
-0.000597508
5.08723e-05
2.69398e-10
-0.000651928
5.44194e-05
2.90921e-11
-0.000710783
5.8855e-05
-2.76713e-10
-0.000775277
6.4495e-05
-6.59456e-10
7.20297e-05
-1.13392e-09
-0.000847305
-2.4435e-06
4.91036e-06
-8.97435e-06
1.312e-05
-1.91366e-05
2.04121e-05
-3.25281e-05
2.68961e-05
-4.87966e-05
3.26743e-05
-6.7641e-05
3.78505e-05
-8.88108e-05
4.25269e-05
-0.000112105
4.68052e-05
-0.000137373
5.07841e-05
-0.000164507
5.45567e-05
-0.000193444
5.82072e-05
-0.000224154
6.18083e-05
-0.000256639
6.54195e-05
-0.00029092
6.90872e-05
-0.000327037
7.28462e-05
-0.000365041
7.6725e-05
-0.000404997
8.0754e-05
-0.000446989
8.49792e-05
-0.00049114
8.94835e-05
-0.000537641
9.44166e-05
-0.000586804
0.000100036
-0.000639145
0.00010676
-0.000695469
0.000115179
-0.000756898
0.000125924
0.000140335
-0.000825204
-2.39716e-06
7.30752e-06
-8.81207e-06
1.9535e-05
-1.88002e-05
3.04002e-05
-3.19662e-05
4.00621e-05
-4.79609e-05
4.86691e-05
-6.64831e-05
5.63727e-05
-8.72789e-05
6.33227e-05
-0.000110142
6.96682e-05
-0.000134912
7.5554e-05
-0.000161472
8.11167e-05
-0.000189744
8.64796e-05
-0.000219684
9.17482e-05
-0.000251273
9.70083e-05
-0.000284511
0.000102325
-0.00031941
0.000107745
-0.00035599
0.000113305
-0.000394276
0.00011904
-0.0004343
0.000125004
-0.000476118
0.000131301
-0.00051983
0.000138129
-0.000565632
0.000145838
-0.00061389
0.000155018
-0.000665249
0.000166539
-0.000720668
0.000181343
0.000201341
-0.000781674
-2.32902e-06
9.63654e-06
-8.57316e-06
2.57791e-05
-1.83043e-05
4.01314e-05
-3.11371e-05
5.28949e-05
-4.67268e-05
6.42588e-05
-6.47716e-05
7.44175e-05
-8.50129e-05
8.3564e-05
-0.000107236
9.18909e-05
-0.000131267
9.95855e-05
-0.000156975
0.000106824
-0.00018426
0.000113765
-0.000213056
0.000120544
-0.000243316
0.000127268
-0.000275007
0.000134016
-0.000308103
0.000140842
-0.000342578
0.00014778
-0.000378398
0.000154859
-0.000415523
0.000162129
-0.000453913
0.000169691
-0.000493543
0.000177759
-0.000534442
0.000186736
-0.000576758
0.000197335
-0.0006209
0.00021068
-0.000667594
0.000228038
0.000251741
-0.000717995
-2.24069e-06
1.18772e-05
-8.26288e-06
3.18013e-05
-1.76593e-05
4.95279e-05
-3.00571e-05
6.52926e-05
-4.51169e-05
7.93186e-05
-6.25361e-05
9.18367e-05
-8.20499e-05
0.000103078
-0.000103432
0.000113273
-0.000126493
0.000122647
-0.000151079
0.000131411
-0.000177068
0.000139755
-0.000204361
0.000147837
-0.000232876
0.000155782
-0.000262537
0.000163678
-0.000293271
0.000171575
-0.00032499
0.000179499
-0.000357591
0.000187461
-0.000390945
0.000195483
-0.000424893
0.000203639
-0.000459256
0.000212122
-0.000493857
0.000221336
-0.000528573
0.000232052
-0.000563499
0.000245605
-0.000599076
0.000263615
0.000288599
-0.000635935
-2.13426e-06
1.40115e-05
-7.88803e-06
3.7555e-05
-1.68785e-05
5.85183e-05
-2.8747e-05
7.71612e-05
-4.31605e-05
9.37321e-05
-5.98151e-05
0.000108491
-7.84379e-05
0.000121701
-9.87886e-05
0.000133623
-0.000120659
0.000144517
-0.000143869
0.000154622
-0.000168267
0.000164152
-0.000193715
0.000173285
-0.000220088
0.000182156
-0.000247263
0.000190852
-0.000275105
0.000199417
-0.000303459
0.000207854
-0.00033214
0.000216142
-0.000360916
0.000224258
-0.000389497
0.000232221
-0.000417534
0.000240158
-0.000444615
0.000248417
-0.000470308
0.000257745
-0.00049432
0.000269618
-0.000516773
0.000286068
0.000309401
-0.000537574
-2.01218e-06
1.60237e-05
-7.45674e-06
4.29996e-05
-1.59776e-05
6.70392e-05
-2.7232e-05
8.84156e-05
-4.08931e-05
0.000107393
-5.66548e-05
0.000124253
-7.4235e-05
0.000139281
-9.3377e-05
0.000152765
-0.00011385
0.000164989
-0.000135445
0.000176216
-0.000157972
0.000186679
-0.000181254
0.000196567
-0.000205115
0.000206017
-0.000229374
0.000215111
-0.00025383
0.000223873
-0.000278253
0.000232277
-0.000302365
0.000240253
-0.000325824
0.000247717
-0.000348205
0.000254602
-0.000368979
0.000260932
-0.000387494
0.000266932
-0.000402982
0.000273233
-0.000414702
0.000281338
-0.000422437
0.000293802
0.000312071
-0.000425107
-1.87728e-06
1.79009e-05
-6.97828e-06
4.81006e-05
-1.49751e-05
7.5036e-05
-2.55409e-05
9.89814e-05
-3.83549e-05
0.000120207
-5.31081e-05
0.000139006
-6.95072e-05
0.00015568
-8.72773e-05
0.000170535
-0.000106161
0.000183873
-0.000125918
0.000195973
-0.000146317
0.000207078
-0.000167133
0.000217383
-0.000188136
0.00022702
-0.00020908
0.000236055
-0.000229691
0.000244485
-0.000249656
0.000252242
-0.0002686
0.000259197
-0.000286068
0.000265185
-0.000301496
0.000270031
-0.000314179
0.000273614
-0.00032323
0.000275984
-0.00032755
0.000277553
-0.00032589
0.000279678
-0.000317717
0.000285629
0.000294976
-0.000300621
-1.73262e-06
1.96336e-05
-6.46276e-06
5.28307e-05
-1.38906e-05
8.24639e-05
-2.3705e-05
0.000108796
-3.55902e-05
0.000132092
-4.9233e-05
0.000152649
-6.43274e-05
0.000170774
-8.05776e-05
0.000186786
-9.76983e-05
0.000200994
-0.000115412
0.000213687
-0.000133445
0.000225111
-0.000151518
0.000235457
-0.000169342
0.000244843
-0.000186601
0.000253313
-0.000202942
0.000260826
-0.000217961
0.000267261
-0.000231181
0.000272418
-0.000242031
0.000276035
-0.00024981
0.00027781
-0.000253646
0.000277449
-0.000252435
0.000274772
-0.000244776
0.000269894
-0.000228851
0.000263753
-0.000203918
0.000260696
0.000257054
-0.000165996
-1.58145e-06
2.1215e-05
-5.92091e-06
5.71702e-05
-1.27454e-05
8.92883e-05
-2.17578e-05
0.000117808
-3.26461e-05
0.000142981
-4.50912e-05
0.000165094
-5.87725e-05
0.000184456
-7.33716e-05
0.000201385
-8.85719e-05
0.000216194
-0.000104057
0.000229172
-0.000119505
0.000240559
-0.000134581
0.000250533
-0.000148929
0.000259191
-0.000162158
0.000266542
-0.000173829
0.000272498
-0.000183443
0.000276874
-0.000190414
0.000279388
-0.000194048
0.00027967
-0.000193511
0.000277272
-0.000187769
0.000271708
-0.000175526
0.000262529
-0.000155142
0.000249511
-0.000124106
0.000232716
-8.12078e-05
0.000217798
0.000200527
-2.46809e-05
-1.42706e-06
2.26421e-05
-5.36369e-06
6.11068e-05
-1.1561e-05
9.54856e-05
-1.97337e-05
0.000125981
-2.95711e-05
0.000152818
-4.07461e-05
0.000176269
-5.29219e-05
0.000196632
-6.57548e-05
0.000214218
-7.88949e-05
0.000229334
-9.19834e-05
0.00024226
-0.000104647
0.000253223
-0.00011649
0.000262376
-0.000127085
0.000269786
-0.00013596
0.000275417
-0.000142584
0.000279122
-0.000146351
0.000280641
-0.000146559
0.000279596
-0.000142385
0.000275497
-0.000132852
0.000267739
-0.000116774
0.000255629
-9.26658e-05
0.000238421
-5.87572e-05
0.000215602
-1.24076e-05
0.000186367
5.01708e-05
0.00015522
0.000120053
0.000130645
-1.27277e-06
2.39149e-05
-4.80206e-06
6.46361e-05
-1.03591e-05
0.000101043
-1.76669e-05
0.000133289
-2.64134e-05
0.000161565
-3.62612e-05
0.000186117
-4.68545e-05
0.000207225
-5.78222e-05
0.000225185
-6.87783e-05
0.00024029
-7.93186e-05
0.000252801
-8.90146e-05
0.000262919
-9.74053e-05
0.000270767
-0.000103986
0.000276367
-0.000108195
0.000279626
-0.000109401
0.000280328
-0.000106882
0.000278121
-9.9806e-05
0.000272521
-8.72072e-05
0.000262898
-6.79507e-05
0.000248483
-4.06872e-05
0.000228366
-3.75167e-06
0.000201486
4.48153e-05
0.000167035
0.0001084
0.000122782
0.00018854
7.50804e-05
1.36609e-05
0.000294932
-1.12176e-06
2.50366e-05
-4.24659e-06
6.7761e-05
-9.16051e-06
0.000105957
-1.55906e-05
0.000139719
-2.32199e-05
0.000169194
-3.16975e-05
0.000194594
-4.06459e-05
0.000216173
-4.9664e-05
0.000234203
-5.83267e-05
0.000248953
-6.61809e-05
0.000260655
-7.27384e-05
0.000269476
-7.74671e-05
0.000275495
-7.97783e-05
0.000278678
-7.9013e-05
0.000278861
-7.44256e-05
0.00027574
-6.51648e-05
0.00026886
-5.02521e-05
0.000257608
-2.8556e-05
0.000241202
1.24009e-06
0.000218687
4.06757e-05
0.00018893
9.16361e-05
0.000150525
0.000156126
0.000102545
0.000238106
4.0802e-05
0.000338428
-2.5242e-05
-0.000118917
0.000471006
-9.76994e-07
2.60136e-05
-3.70714e-06
7.04911e-05
-7.98479e-06
0.000110234
-1.35358e-05
0.00014527
-2.0034e-05
0.000175692
-2.71113e-05
0.000201672
-3.43656e-05
0.000223427
-4.13623e-05
0.0002412
-4.76337e-05
0.000255224
-5.26733e-05
0.000265694
-5.59282e-05
0.000272731
-5.67882e-05
0.000276355
-5.45718e-05
0.000276462
-4.8511e-05
0.0002728
-3.77323e-05
0.000264962
-2.12366e-05
0.000252365
2.12518e-06
0.000234246
3.36786e-05
0.000209648
7.49579e-05
0.000177407
0.000127727
0.00013616
0.000194149
8.41043e-05
0.00027627
2.04239e-05
0.000378682
-6.16107e-05
0.000501145
-0.000147705
-0.000279528
0.000661756
-8.41156e-07
2.68548e-05
-3.19255e-06
7.28425e-05
-6.84933e-06
0.000113891
-1.153e-05
0.000149951
-1.6894e-05
0.000181056
-2.25524e-05
0.00020733
-2.80738e-05
0.000228949
-3.29868e-05
0.000246113
-3.67761e-05
0.000259014
-3.8877e-05
0.000267795
-3.86649e-05
0.000272519
-3.54427e-05
0.000273133
-2.84251e-05
0.000269444
-1.67204e-05
0.000261096
6.90608e-07
0.000247551
2.49786e-05
0.000228077
5.74914e-05
0.000201733
9.97833e-05
0.000167356
0.000153649
0.000123542
0.000221123
6.86864e-05
0.000304714
5.1344e-07
0.000406528
-8.13906e-05
0.000531865
-0.000186948
0.000678985
-0.000294824
-0.000470554
0.00087001
-7.16523e-07
2.75713e-05
-2.71033e-06
7.48363e-05
-5.76878e-06
0.000116949
-9.59617e-06
0.000153778
-1.38319e-05
0.000185292
-1.80608e-05
0.000211559
-2.18183e-05
0.000232706
-2.45904e-05
0.000248885
-2.58094e-05
0.000260233
-2.48448e-05
0.000266831
-2.09919e-05
0.000268666
-1.34556e-05
0.000265597
-1.33266e-06
0.000257321
1.64105e-05
0.000243352
4.09617e-05
0.000222999
7.36903e-05
0.000195348
0.000116177
0.000159247
0.000170242
0.000113291
0.000237986
5.57977e-05
0.000321758
-1.50859e-05
0.000424464
-0.000102192
0.000548335
-0.000205262
0.000699344
-0.000337957
0.000874101
-0.000469581
-0.000694581
0.00109813
-6.04902e-07
2.81762e-05
-2.26631e-06
7.64977e-05
-4.75443e-06
0.000119438
-7.75168e-06
0.000156775
-1.08711e-05
0.000188411
-1.36654e-05
0.000214353
-1.56309e-05
0.000234672
-1.62054e-05
0.00024946
-1.47612e-05
0.000258789
-1.05936e-05
0.000262663
-2.90635e-06
0.000260979
9.2076e-06
0.000253483
2.67876e-05
0.000239741
5.1031e-05
0.000219109
8.33211e-05
0.000190709
0.000125258
0.000153411
0.00017869
0.000105815
0.000245744
4.62371e-05
0.000328863
-2.73213e-05
0.000430743
-0.000116966
0.000554681
-0.000226131
0.00070314
-0.000353721
0.000882518
-0.000517335
0.00108797
-0.000675036
-0.000953836
0.00134723
-5.07544e-07
2.86837e-05
-1.86439e-06
7.78546e-05
-3.81356e-06
0.000121387
-6.0073e-06
0.000158969
-8.02496e-06
0.000190429
-9.38065e-06
0.000215709
-9.52477e-06
0.000234816
-7.83914e-06
0.000247774
-3.62695e-06
0.000254576
3.90177e-06
0.000255134
1.5649e-05
0.000249232
3.26512e-05
0.000236481
5.61057e-05
0.000216287
8.73996e-05
0.000187815
0.000128142
0.000149966
0.000180199
0.000101355
0.00024572
4.02932e-05
0.00032717
-3.52124e-05
0.000427353
-0.000127505
0.000549326
-0.000238938
0.000696671
-0.000373475
0.000872206
-0.000529257
0.00108221
-0.000727339
0.00132093
-0.000913754
-0.00124935
0.00161644
-4.25081e-07
2.91088e-05
-1.50633e-06
7.89358e-05
-2.94897e-06
0.000122829
-4.36619e-06
0.000160386
-5.29572e-06
0.000191358
-5.20531e-06
0.000215619
-3.49121e-06
0.000233102
5.30092e-07
0.000243753
7.6357e-06
0.000247471
1.87151e-05
0.000244055
3.47931e-05
0.000233154
5.70571e-05
0.000214217
8.68876e-05
0.000186456
0.000125891
0.000148811
0.000175936
9.99215e-05
0.000239184
3.81072e-05
0.000318117
-3.86396e-05
0.000415548
-0.000132644
0.000534631
-0.000246587
0.000678755
-0.000383062
0.000851561
-0.000546281
0.00105631
-0.000734001
0.00129832
-0.00096935
0.00157169
-0.00118713
-0.00157997
0.00190231
-3.57465e-07
2.94663e-05
-1.19149e-06
7.97698e-05
-2.15849e-06
0.000123796
-2.82321e-06
0.000161051
-2.67298e-06
0.000191208
-1.12018e-06
0.000214066
2.50257e-06
0.000229479
8.95573e-06
0.0002373
1.91106e-05
0.000237316
3.39732e-05
0.000229192
5.47118e-05
0.000212415
8.26897e-05
0.000186239
0.000119499
0.000149647
0.000166997
0.000101313
0.000227341
3.95776e-05
0.000303014
-3.75658e-05
0.00039684
-0.000132465
0.000511967
-0.000247771
0.000651825
-0.000386445
0.000820052
-0.000551289
0.00102001
-0.00074624
0.00125531
-0.000969298
0.00152937
-0.00124341
0.00183695
-0.0014947
-0.00194156
0.00219854
-3.03934e-07
2.97702e-05
-9.16723e-07
8.03826e-05
-1.43472e-06
0.000124314
-1.36437e-06
0.000160981
-1.32228e-07
0.000189976
2.91287e-06
0.000211021
8.51534e-06
0.000223877
1.75257e-05
0.000228289
3.09261e-05
0.000223915
4.9859e-05
0.00021026
7.56605e-05
0.000186613
0.000109897
0.000152003
0.000154402
0.000105142
0.000211312
4.44024e-05
0.000283098
-3.22077e-05
0.000372572
-0.00012704
0.00048288
-0.000242774
0.000617445
-0.000382336
0.000779829
-0.000548829
0.000973728
-0.000745188
0.00120184
-0.000974354
0.00146775
-0.00123521
0.00177211
-0.00154777
0.00211105
-0.00183365
-0.00232669
0.00249618
-2.62992e-07
3.00332e-05
-6.76317e-07
8.07959e-05
-7.64806e-07
0.000124403
3.47992e-08
0.000160181
2.36274e-06
0.000187648
6.95171e-06
0.000206432
1.46328e-05
0.000216196
2.63633e-05
0.000216559
4.32556e-05
0.000207023
6.66118e-05
0.000186903
9.7962e-05
0.000155263
0.000139104
0.000110861
0.000192141
5.21049e-05
0.000259512
-2.29687e-05
0.000344006
-0.000116702
0.000448748
-0.000231782
0.000577142
-0.000371168
0.000732756
-0.000537949
0.00091906
-0.000735133
0.00113947
-0.000965599
0.00139567
-0.00123055
0.00169049
-0.00153004
0.00202126
-0.00187853
0.00238597
-0.00219835
-0.00272507
0.00278434
-2.32416e-07
3.02656e-05
-4.6198e-07
8.10255e-05
-1.30548e-07
0.000124071
1.40292e-06
0.000158647
4.86485e-06
0.000184186
1.10743e-05
0.000200222
2.09674e-05
0.000206302
3.56267e-05
0.0002019
5.63165e-05
0.000186333
8.45238e-05
0.000158696
0.000122
0.000117787
0.000170802
6.20591e-05
0.000233322
-1.0416e-05
0.000312311
-0.000101958
0.000410859
-0.000215249
0.00053234
-0.000353263
0.000680293
-0.00051912
0.000858219
-0.000715875
0.00106919
-0.000946105
0.00131586
-0.00121227
0.00159857
-0.00151326
0.00191854
-0.00185
0.00226957
-0.00222956
0.00265173
-0.00258052
-0.00312477
0.00305144
-2.09254e-07
3.04749e-05
-2.63018e-07
8.10793e-05
4.90729e-07
0.000123318
2.78481e-06
0.000156353
7.43891e-06
0.000179532
1.5377e-05
0.000192284
2.76568e-05
0.000194023
4.55063e-05
0.00018405
7.03657e-05
0.000161474
0.000103933
0.000125129
0.000148206
7.35137e-05
0.000205522
4.74347e-06
0.000278573
-8.34678e-05
0.000370404
-0.000193788
0.000484351
-0.000329196
0.000623923
-0.000492836
0.000792592
-0.000687788
0.000993489
-0.000916773
0.00122891
-0.00118153
0.00150016
-0.00148351
0.00180602
-0.00181913
0.00214518
-0.00218916
0.00250841
-0.00259279
0.00289757
-0.00296968
-0.0035139
0.0032867
-1.89903e-07
3.06648e-05
-6.54928e-08
8.09549e-05
1.12792e-06
0.000122124
4.22816e-06
0.000153253
1.0162e-05
0.000173598
1.99736e-05
0.000182473
3.48612e-05
0.000179135
5.62205e-05
0.000162691
8.56922e-05
0.000132002
0.00012521
8.56116e-05
0.000177039
2.16838e-05
0.000243808
-6.20249e-05
0.000328497
-0.000168157
0.000434395
-0.000299686
0.000564979
-0.000459781
0.00072371
-0.000651566
0.000913712
-0.00087779
0.00113737
-0.00114043
0.00139576
-0.00143993
0.00168829
-0.00177604
0.00201201
-0.00214285
0.00236256
-0.00253971
0.00272867
-0.0029589
0.00311335
-0.00335436
-0.00388219
0.00348164
-1.70425e-07
3.08352e-05
1.43049e-07
8.06414e-05
1.81252e-06
0.000120455
5.78887e-06
0.000149277
1.31212e-05
0.000166266
2.49914e-05
0.000170602
4.27584e-05
0.000161368
6.80083e-05
0.000137441
0.000102606
9.74046e-05
0.000148741
3.94765e-05
0.000208961
-3.85358e-05
0.000286173
-0.000139238
0.000383609
-0.000265592
0.000504708
-0.000420785
0.000652924
-0.000607997
0.00083141
-0.000830053
0.0010426
-0.00108898
0.00128768
-0.00138551
0.00156611
-0.00171836
0.001875
-0.00208493
0.00220959
-0.00247743
0.00256248
-0.00289261
0.00292196
-0.00331838
0.00329118
-0.00372358
-0.0042221
0.0036311
-1.46156e-07
3.09814e-05
3.80823e-07
8.01144e-05
2.57984e-06
0.000118256
7.52806e-06
0.000144329
1.64118e-05
0.000157382
3.05683e-05
0.000156446
5.15381e-05
0.000140398
8.11202e-05
0.000107859
0.000121424
5.71009e-05
0.000174909
-1.40084e-05
0.000244399
-0.000108026
0.000333054
-0.000227893
0.000444272
-0.00037681
0.000581502
-0.000558015
0.000747941
-0.000774435
0.000946114
-0.00102823
0.00117736
-0.00132022
0.00144126
-0.00164941
0.00173531
-0.00201241
0.00205424
-0.00240386
0.00239156
-0.00281475
0.00273754
-0.00323859
0.00308176
-0.0036626
0.00342638
-0.0040682
-0.00452928
0.00373356
-1.12276e-07
3.10936e-05
6.6518e-07
7.9337e-05
3.46713e-06
0.000115454
9.51018e-06
0.000138286
2.01331e-05
0.000146759
3.68471e-05
0.000139732
6.13946e-05
0.000115851
9.58069e-05
7.34465e-05
0.000142453
1.04552e-05
0.000204063
-7.56185e-05
0.000283715
-0.000187679
0.000384756
-0.000328933
0.000510627
-0.000502681
0.000664581
-0.000711969
0.000849271
-0.000959125
0.00106622
-0.00124518
0.00131529
-0.00156929
0.00159413
-0.00192825
0.00189808
-0.00231635
0.0022198
-0.00272559
0.00255143
-0.00314637
0.00288213
-0.00356929
0.00320422
-0.00398469
0.00351781
-0.0043818
-0.00480233
0.00379086
-6.42927e-08
3.11579e-05
1.01372e-06
7.82589e-05
4.51242e-06
0.000111955
1.18009e-05
0.000130997
2.43859e-05
0.000134174
4.39707e-05
0.000120147
7.25179e-05
8.73035e-05
0.000112307
3.36577e-05
0.00016597
-4.32079e-05
0.000236495
-0.000146143
0.000327163
-0.000278347
0.000441402
-0.000443173
0.000582525
-0.000643803
0.000753329
-0.000882773
0.000955585
-0.00116138
0.00118946
-0.00147905
0.00145298
-0.00183281
0.00174172
-0.002217
0.002049
-0.00262363
0.00236604
-0.00304262
0.00268419
-0.00346452
0.00299311
-0.00387821
0.00328835
-0.00427993
0.00356737
-0.00466082
-0.00504264
0.00380769
6.6521e-09
3.11513e-05
1.44439e-06
7.68212e-05
5.75328e-06
0.000107646
1.44647e-05
0.000122286
2.92683e-05
0.000119371
5.20758e-05
9.73396e-05
8.50853e-05
5.42939e-05
0.000130832
-1.20887e-05
0.000192204
-0.00010458
0.000272409
-0.000226348
0.000374848
-0.000380786
0.000502886
-0.000571211
0.000659477
-0.000800394
0.000846664
-0.00106996
0.00106499
-0.0013797
0.00131292
-0.00172698
0.00158651
-0.00210639
0.00187934
-0.00250983
0.00218312
-0.00292742
0.0024885
-0.003348
0.0027869
-0.00376292
0.00307004
-0.00416135
0.00333585
-0.00454574
0.00357883
-0.0049038
-0.00525624
0.00379243
9.73261e-08
3.10539e-05
1.97329e-06
7.49452e-05
7.22563e-06
0.000102394
1.75627e-05
0.000111949
3.48718e-05
0.000102061
6.1287e-05
7.09244e-05
9.92519e-05
1.63291e-05
0.000151555
-6.43914e-05
0.000221315
-0.000174341
0.000311895
-0.000316928
0.000426698
-0.000495589
0.00056883
-0.000713343
0.000740624
-0.000972188
0.000943042
-0.00127238
0.00117508
-0.00161174
0.00143332
-0.00198522
0.00171183
-0.00238491
0.00200261
-0.00280061
0.00229648
-0.00322129
0.00258441
-0.00363593
0.00285887
-0.00403739
0.00311456
-0.00441703
0.00335077
-0.00478195
0.0035628
-0.00511582
-0.00545769
0.00376425
2.18548e-07
3.08354e-05
2.61669e-06
7.25471e-05
8.96254e-06
9.6048e-05
2.11508e-05
9.97603e-05
4.1278e-05
8.19342e-05
7.17114e-05
4.0491e-05
0.000115142
-2.71011e-05
0.000174595
-0.000123845
0.000253376
-0.000253122
0.000354906
-0.000418458
0.000482431
-0.000623114
0.00063857
-0.000869482
0.000824736
-0.00115835
0.0010405
-0.00148815
0.0012831
-0.00185433
0.00154717
-0.0022493
0.00182513
-0.00266287
0.00210795
-0.00308343
0.00238649
-0.00349982
0.00265285
-0.0039023
0.00290138
-0.00428592
0.00312975
-0.0046454
0.00333771
-0.00498991
0.00352777
-0.00530588
-0.00563628
0.00370636
3.7232e-07
3.04631e-05
3.38845e-06
6.9531e-05
1.09933e-05
8.84432e-05
2.52771e-05
8.54765e-05
4.85554e-05
5.8656e-05
8.34327e-05
5.6137e-06
0.000132839
-7.65078e-05
0.000200008
-0.000191013
0.000288356
-0.000341469
0.000401238
-0.000531341
0.000541544
-0.00076342
0.000711144
-0.00103908
0.000910239
-0.00135745
0.00113677
-0.00171468
0.0013861
-0.00210366
0.00165116
-0.00251435
0.00192317
-0.00293488
0.00219292
-0.00335317
0.00245208
-0.00375899
0.00269461
-0.00414483
0.00291713
-0.00450844
0.00311969
-0.00484796
0.00330372
-0.00517394
0.00347376
-0.00547593
-0.00579594
0.00363342
5.61924e-07
2.99012e-05
4.30041e-06
6.57925e-05
1.33423e-05
7.94013e-05
2.9981e-05
6.88378e-05
5.67562e-05
3.18808e-05
9.65077e-05
-3.41378e-05
0.000152385
-0.000132385
0.000227776
-0.000266404
0.000326111
-0.000439805
0.000450519
-0.000655748
0.000603306
-0.000916208
0.000785319
-0.0012211
0.000995292
-0.00156742
0.00122939
-0.00194878
0.00148122
-0.00235549
0.00174238
-0.00277551
0.00200363
-0.00319612
0.0022563
-0.00360584
0.00249365
-0.00399634
0.00271179
-0.00436297
0.00290964
-0.00470629
0.00308914
-0.00502746
0.00325301
-0.00533781
0.00340643
-0.00562935
-0.00594233
0.00355282
7.90094e-07
2.91111e-05
5.36226e-06
6.12203e-05
1.60292e-05
6.87343e-05
3.52919e-05
4.95751e-05
6.5915e-05
1.25768e-06
0.000110962
-7.91849e-05
0.000173767
-0.000195191
0.0002578
-0.000350436
0.000366377
-0.000548382
0.000502208
-0.000791579
0.000666771
-0.00108077
0.000859633
-0.00141396
0.00107788
-0.00178567
0.00131592
-0.00218682
0.00156588
-0.00260546
0.00181862
-0.00302826
0.00206517
-0.00344267
0.00229813
-0.00383881
0.00251275
-0.00421096
0.00270734
-0.00455756
0.00288281
-0.00488175
0.00304244
-0.00518708
0.00318965
-0.00548502
0.0033298
-0.00576949
-0.00607796
0.00346542
1.05898e-06
2.80521e-05
6.58136e-06
5.56979e-05
1.90679e-05
5.62478e-05
4.12283e-05
2.74146e-05
7.60466e-05
-3.35606e-05
0.000126788
-0.000129926
0.00019692
-0.000265322
0.000289895
-0.000443412
0.000408763
-0.00066725
0.000555599
-0.000938414
0.000730807
-0.00125598
0.000932465
-0.00161562
0.00115594
-0.00200914
0.00139408
-0.00242496
0.00163799
-0.00284937
0.00187849
-0.00326875
0.00210753
-0.00367171
0.0023195
-0.00405077
0.00251174
-0.00440321
0.00268458
-0.00473039
0.00284043
-0.0050376
0.00298335
-0.00533
0.00311701
-0.00561869
0.00324641
-0.00589889
-0.00620488
0.00337333
1.37016e-06
2.66819e-05
7.96284e-06
4.91053e-05
2.24666e-05
4.1744e-05
4.77974e-05
2.08387e-06
8.71451e-05
-7.29083e-05
0.000143942
-0.000186723
0.000221718
-0.000343099
0.00032379
-0.000545483
0.000452759
-0.000796219
0.00060984
-0.0010955
0.000794142
-0.00144028
0.00100213
-0.0018236
0.00122753
-0.00223455
0.00146196
-0.00265938
0.00169613
-0.00308355
0.00192144
-0.00349406
0.00213135
-0.00388161
0.00232221
-0.00424163
0.0024934
-0.0045744
0.00264682
-0.00488382
0.00278591
-0.00517669
0.00291499
-0.00545908
0.00303762
-0.00574132
0.00315823
-0.00601951
-0.00632453
0.00327788
1.72475e-06
2.49572e-05
9.50963e-06
4.13204e-05
2.62284e-05
2.50253e-05
5.4995e-05
-2.66827e-05
9.91834e-05
-0.000117097
0.000162345
-0.000249884
0.00024798
-0.000428734
0.000359127
-0.00065663
0.000497741
-0.000934833
0.000663958
-0.00126171
0.000855422
-0.00163175
0.00106696
-0.00203514
0.00129091
-0.00245849
0.00151813
-0.00288661
0.00173956
-0.00330498
0.00194775
-0.00370225
0.00213796
-0.00407182
0.00230854
-0.00441221
0.00246058
-0.00472644
0.00259713
-0.00502037
0.00272212
-0.00530168
0.0028398
-0.00557677
0.00295336
-0.00585488
0.0030666
-0.00613274
-0.00643783
0.0031799
2.12342e-06
2.28337e-05
1.12226e-05
3.22212e-05
3.03504e-05
5.89747e-06
6.2805e-05
-5.91373e-05
0.000112112
-0.000166404
0.000181878
-0.00031965
0.000275465
-0.000522322
0.000395467
-0.000776632
0.00054299
-0.00108236
0.000716901
-0.00143562
0.000913284
-0.00182813
0.00112545
-0.00224731
0.0013447
-0.00267774
0.00156171
-0.00310362
0.0017682
-0.00351147
0.0019583
-0.00389235
0.00212916
-0.00424268
0.00228093
-0.00456399
0.00241602
-0.00486153
0.00253815
-0.00514251
0.00265139
-0.00541491
0.00275963
-0.00568501
0.00286559
-0.00596083
0.00297241
-0.00623956
-0.0065454
0.00307998
2.56644e-06
2.02673e-05
1.31006e-05
2.16871e-05
3.48244e-05
-1.58264e-05
7.11997e-05
-9.55126e-05
0.000125861
-0.000221065
0.000202387
-0.000396176
0.000303876
-0.00062381
0.000432297
-0.000905053
0.000587716
-0.00123777
0.000767582
-0.00161549
0.000966435
-0.00202698
0.00117631
-0.00245718
0.00138794
-0.00288936
0.00159237
-0.00330805
0.00178258
-0.00370169
0.00195446
-0.00406422
0.00210699
-0.00439521
0.00224179
-0.00469878
0.00236215
-0.00498189
0.0024721
-0.00525246
0.00257552
-0.00551833
0.00267582
-0.00578531
0.00277523
-0.00606023
0.00287628
-0.00634062
-0.00664759
0.00297848
3.05377e-06
1.72135e-05
1.51405e-05
9.60041e-06
3.96367e-05
-4.03226e-05
8.0139e-05
-0.000136015
0.000140334
-0.000281261
0.00022368
-0.000479522
0.000332861
-0.000732991
0.000469045
-0.00104124
0.000631082
-0.00139981
0.000814935
-0.00179934
0.00101372
-0.00222577
0.00121856
-0.00266202
0.00142011
-0.00309092
0.0016103
-0.00349824
0.00178366
-0.00387505
0.00193787
-0.00421843
0.00207352
-0.00453086
0.00219331
-0.00481857
0.00230104
-0.00508962
0.00240072
-0.00535215
0.00249586
-0.00561347
0.00258935
-0.0058788
0.00268292
-0.0061538
0.00277862
-0.00643632
-0.00674462
0.00287565
3.58497e-06
1.36286e-05
1.73371e-05
-4.15175e-06
4.47677e-05
-6.77532e-05
8.95704e-05
-0.000180818
0.000155417
-0.000347107
0.000245529
-0.000569634
0.000362024
-0.000849486
0.000505093
-0.00118431
0.000672243
-0.00156696
0.000857967
-0.00198507
0.00105419
-0.00242199
0.00125154
-0.00285937
0.00144112
-0.00328049
0.0016161
-0.00367322
0.00177271
-0.00403165
0.00191028
-0.004356
0.00203071
-0.00465129
0.00213743
-0.00492529
0.0022344
-0.00518659
0.00232538
-0.00544313
0.00241342
-0.00570152
0.00250089
-0.00596627
0.00258911
-0.00624202
0.0026797
-0.00652691
-0.00683659
0.00277167
4.15923e-06
9.46934e-06
1.96832e-05
-1.96758e-05
5.01917e-05
-9.82617e-05
9.94288e-05
-0.000230055
0.000170968
-0.000418647
0.000267673
-0.000666339
0.000390932
-0.000972745
0.000539803
-0.00133318
0.000710384
-0.00173754
0.00089581
-0.00217049
0.00108714
-0.00261332
0.00127497
-0.0030472
0.00145126
-0.00345678
0.00161068
-0.00383265
0.00175114
-0.00417211
0.00187342
-0.00447829
0.00198037
-0.00475824
0.00207579
-0.00502071
0.00216357
-0.00527437
0.00224709
-0.00552665
0.00232891
-0.00578334
0.00241092
-0.00604827
0.00249409
-0.00632519
0.00257969
-0.00661251
-0.00692356
0.00266666
4.7753e-06
4.69404e-06
2.21691e-05
-3.70696e-05
5.58768e-05
-0.000131969
0.000109636
-0.000283814
0.000186828
-0.000495839
0.000289823
-0.000769334
0.000419123
-0.00110204
0.000572536
-0.00148659
0.000744756
-0.00190976
0.000927763
-0.0023535
0.00111213
-0.00279768
0.00128886
-0.00322394
0.00145112
-0.00361904
0.00159516
-0.00397669
0.00172043
-0.00429738
0.0018289
-0.00458676
0.00192403
-0.00485336
0.00200972
-0.0051064
0.00208961
-0.00535426
0.00216661
-0.00560365
0.00224284
-0.00585957
0.00231975
-0.00612518
0.00239806
-0.0064035
0.00247875
-0.00669321
-0.00700553
0.00256072
5.43134e-06
-7.37298e-07
2.47824e-05
-5.64206e-05
6.1784e-05
-0.000168971
0.0001201
-0.000342129
0.000202815
-0.000578555
0.000311665
-0.000878184
0.000446126
-0.00123651
0.000602683
-0.00164315
0.000774712
-0.00208179
0.000953317
-0.0025321
0.00112899
-0.00297336
0.00129354
-0.00338848
0.0014415
-0.003767
0.00157073
-0.00410592
0.00168201
-0.00440866
0.00177818
-0.00468293
0.001863
-0.00493818
0.00194029
-0.00518369
0.0020133
-0.00542727
0.00208451
-0.00567486
0.00215557
-0.00593064
0.00222762
-0.00619723
0.00230117
-0.00647705
0.00237698
-0.00676902
-0.0070825
0.00245395
6.1249e-06
-6.8622e-06
2.75079e-05
-7.78036e-05
6.78676e-05
-0.000209331
0.000130717
-0.000404978
0.000218731
-0.000666569
0.000332872
-0.000992326
0.000471475
-0.00137511
0.000629687
-0.00180136
0.000799731
-0.00225184
0.000972166
-0.00270454
0.0011378
-0.00313899
0.00128952
-0.0035402
0.00142337
-0.00390085
0.00153864
-0.00422119
0.00163722
-0.00450724
0.0017225
-0.00476821
0.00179835
-0.00501403
0.00186833
-0.00525366
0.00193526
-0.0054942
0.00200117
-0.00574077
0.00206737
-0.00599684
0.0021347
-0.00626457
0.00220354
-0.00654589
0.00227446
-0.00683994
-0.00715445
0.00234642
6.8528e-06
-1.3715e-05
3.03275e-05
-0.000101278
7.40749e-05
-0.000253078
0.000141371
-0.000472274
0.000234362
-0.00075956
0.000353109
-0.00111107
0.000494724
-0.00151672
0.000653069
-0.0019597
0.00081944
-0.00241821
0.000984207
-0.00286931
0.00113884
-0.00329362
0.0012775
-0.00367886
0.00139771
-0.00402106
0.00150005
-0.00432353
0.00158722
-0.00459441
0.00166293
-0.00484392
0.00173095
-0.00508205
0.00179447
-0.00531719
0.00185591
-0.00555564
0.00191688
-0.00580174
0.00197841
-0.00605836
0.00204112
-0.00632728
0.00210526
-0.00661003
0.00217128
-0.00690595
-0.00722137
0.00223819
7.61101e-06
-2.1326e-05
3.32198e-05
-0.000126887
8.03464e-05
-0.000300204
0.000151937
-0.000543865
0.000249489
-0.000857112
0.000372049
-0.00123363
0.00051547
-0.00166014
0.000672443
-0.00211668
0.000833615
-0.00257938
0.000989518
-0.00302521
0.00113255
-0.00343666
0.00125826
-0.00380458
0.00136556
-0.00412835
0.00145607
-0.00441403
0.00153306
-0.00467141
0.00160035
-0.00491121
0.00166147
-0.00514317
0.00171921
-0.00537494
0.00177559
-0.00561201
0.00183187
-0.00585803
0.00188884
-0.00611533
0.00194696
-0.0063854
0.0020064
-0.00666947
0.0020675
-0.00696705
-0.00728323
0.00212936
8.39467e-06
-2.97207e-05
3.61604e-05
-0.000154653
8.66166e-05
-0.000350661
0.000162281
-0.000619529
0.000263886
-0.000958717
0.000389376
-0.00135912
0.00053336
-0.00180413
0.000687529
-0.00227085