/*--------------------------------*- C++ -*----------------------------------*\
  =========                 |
  \\      /  F ield         | OpenFOAM: The Open Source CFD Toolbox
   \\    /   O peration     | Website:  https://openfoam.org
    \\  /    A nd           | Version:  7
     \\/     M anipulation  |
\*---------------------------------------------------------------------------*/
FoamFile
{
    version     2.0;
    format      ascii;
    class       volVectorField;
    location    "15";
    object      U;
}
// * * * * * * * * * * * * * * * * * * * * * * * * * * * * * * * * * * * * * //

dimensions      [0 1 -1 0 0 0 0];

internalField   nonuniform List<vector> 
31800
(
(-0.000565981 0.000557551 -1.01258e-20)
(-0.00349135 0.00139571 6.99172e-21)
(-0.00932958 0.00201952 -2.27701e-21)
(-0.0168749 0.00247436 1.01106e-20)
(-0.0256664 0.00279163 1.12909e-20)
(-0.0353291 0.00299864 -3.69856e-21)
(-0.0455367 0.0031192 -2.67292e-21)
(-0.0560394 0.00317351 1.88978e-20)
(-0.066648 0.00317857 -2.15166e-21)
(-0.077223 0.00314831 3.09117e-21)
(-0.087666 0.00309384 1.06009e-20)
(-0.0979102 0.00302363 1.038e-20)
(-0.107913 0.0029439 -6.55492e-21)
(-0.11765 0.00285898 -8.14762e-21)
(-0.127106 0.00277183 -2.7893e-22)
(-0.136275 0.00268453 -1.04014e-20)
(-0.145159 0.00259898 8.08139e-21)
(-0.153764 0.00251764 1.36284e-20)
(-0.162106 0.00244438 -5.10516e-21)
(-0.170218 0.00238552 2.31385e-20)
(-0.178158 0.00235084 1.46489e-21)
(-0.186027 0.00235459 -1.87722e-21)
(-0.193985 0.00241377 4.10504e-21)
(-0.202203 0.00254281 8.38394e-21)
(-0.211021 0.00277856 5.22594e-21)
(-0.00061884 0.00166643 1.04254e-20)
(-0.00360695 0.00417287 5.70503e-21)
(-0.00946354 0.00603945 -6.14257e-21)
(-0.0169978 0.00740117 -2.33336e-20)
(-0.0257551 0.0083515 1.72243e-20)
(-0.0353647 0.00897194 -8.42671e-21)
(-0.0455035 0.00933349 4.65104e-22)
(-0.0559238 0.00949654 -1.44929e-20)
(-0.0664376 0.00951189 3.02013e-21)
(-0.0769057 0.00942125 2.04964e-21)
(-0.0872294 0.00925784 -4.45143e-20)
(-0.0973415 0.00904707 -7.55214e-22)
(-0.107198 0.00880757 4.98115e-20)
(-0.116773 0.00855231 -2.50401e-20)
(-0.12605 0.00829009 -4.74284e-21)
(-0.13502 0.0080271 1.03224e-20)
(-0.143683 0.00776889 -2.16959e-20)
(-0.152039 0.00752255 -1.0734e-21)
(-0.160101 0.0072994 2.14748e-20)
(-0.167895 0.00711794 -7.87142e-20)
(-0.17547 0.00700708 -2.44385e-20)
(-0.182917 0.00700929 3.70399e-20)
(-0.190388 0.00717622 1.82954e-20)
(-0.19803 0.00755264 3.26524e-21)
(-0.206158 0.00824787 -7.39013e-21)
(-0.000723532 0.00275651 -2.16101e-20)
(-0.00383617 0.00690683 -5.91337e-22)
(-0.0097295 0.0100014 -2.93612e-20)
(-0.0172422 0.0122613 4.37955e-20)
(-0.0259317 0.0138401 -4.95848e-20)
(-0.0354359 0.0148719 -4.63354e-21)
(-0.0454381 0.015474 -4.49829e-21)
(-0.0556946 0.0157461 8.22424e-21)
(-0.0660194 0.0157722 2.72235e-20)
(-0.0762746 0.0156216 -4.62342e-21)
(-0.0863608 0.0153494 -8.16016e-21)
(-0.0962095 0.0149978 2.93963e-20)
(-0.105775 0.0145977 -5.1824e-21)
(-0.115027 0.0141706 2.85914e-20)
(-0.123948 0.0137312 -5.78844e-20)
(-0.132523 0.0132894 -2.36736e-20)
(-0.140744 0.0128541 3.82551e-21)
(-0.148608 0.0124363 -7.77264e-20)
(-0.156117 0.0120536 2.12378e-20)
(-0.163282 0.0117355 4.79604e-20)
(-0.170137 0.0115287 -3.03295e-20)
(-0.176753 0.0115029 -7.31438e-20)
(-0.183266 0.0117462 -3.65565e-20)
(-0.189778 0.0123384 -6.84771e-20)
(-0.196546 0.0134577 -3.76317e-20)
(-0.000878036 0.00381579 1.00624e-20)
(-0.00417509 0.00956985 -1.67647e-20)
(-0.0101235 0.0138678 5.33344e-20)
(-0.017605 0.0170114 -4.26675e-20)
(-0.0261946 0.0192108 -1.11104e-20)
(-0.0355428 0.0206506 -2.95236e-21)
(-0.0453422 0.0214922 3.49208e-20)
(-0.055355 0.0218736 2.47614e-20)
(-0.0653987 0.0219114 -4.37378e-20)
(-0.0753365 0.0217015 1.83395e-20)
(-0.0850687 0.0213206 1.12178e-21)
(-0.094525 0.0208276 -8.26798e-20)
(-0.103656 0.0202655 -2.71382e-20)
(-0.112429 0.0196645 2.21079e-21)
(-0.120819 0.0190445 1.81171e-20)
(-0.128806 0.0184191 8.26376e-20)
(-0.136374 0.0177998 9.17921e-21)
(-0.143509 0.0172004 7.84214e-20)
(-0.150199 0.0166433 7.84012e-20)
(-0.15644 0.0161667 -9.69722e-21)
(-0.16224 0.0158325 3.54077e-20)
(-0.167641 0.0157362 -1.35459e-20)
(-0.172758 0.0160042 4.5117e-20)
(-0.17763 0.0167596 1.5107e-19)
(-0.182401 0.0182443 2.37637e-20)
(-0.00107941 0.004833 1.71217e-20)
(-0.00461803 0.0121357 -6.2273e-20)
(-0.0106399 0.0176032 8.03471e-20)
(-0.0180818 0.02161 2.96111e-20)
(-0.0265414 0.0244189 2.32076e-20)
(-0.0356852 0.0262613 2.46838e-20)
(-0.0452181 0.0273407 -1.313e-19)
(-0.05491 0.0278316 4.88259e-20)
(-0.0645827 0.0278818 5.08043e-20)
(-0.0741012 0.0276134 -7.5078e-20)
(-0.0833656 0.027124 7.7767e-20)
(-0.0923032 0.0264889 4.25467e-20)
(-0.100861 0.0257632 5.26357e-20)
(-0.109 0.0249852 -3.56958e-20)
(-0.11669 0.0241804 -7.93409e-21)
(-0.123902 0.0233655 1.73603e-19)
(-0.130612 0.0225536 -7.50115e-20)
(-0.136792 0.0217601 5.81961e-20)
(-0.142414 0.0210099 -1.41065e-19)
(-0.147454 0.020347 -5.69725e-20)
(-0.151889 0.0198451 5.42099e-20)
(-0.155726 0.0196217 9.4903e-20)
(-0.159051 0.0198435 1.6128e-20)
(-0.161835 0.0206896 -1.24152e-19)
(-0.164019 0.0224576 -8.73102e-20)
(-0.00132392 0.00579792 -6.73586e-20)
(-0.00515765 0.0145802 -2.17419e-20)
(-0.0112712 0.0211741 -4.76579e-20)
(-0.0186668 0.026018 -4.61208e-20)
(-0.0269688 0.0294214 3.30859e-20)
(-0.0358632 0.0316591 -5.91076e-20)
(-0.0450689 0.0329735 -3.83428e-20)
(-0.0543656 0.0335735 -1.90595e-19)
(-0.0635805 0.0336368 8.35772e-21)
(-0.0725811 0.0333106 -1.93834e-21)
(-0.081267 0.0327129 -1.46241e-19)
(-0.089563 0.0319349 -4.99056e-20)
(-0.0974119 0.0310435 -6.20248e-20)
(-0.104768 0.0300853 1.20026e-19)
(-0.111594 0.0290909 3.46515e-20)
(-0.117853 0.0280797 -9.46605e-20)
(-0.123507 0.0270658 -1.05693e-19)
(-0.128517 0.0260647 2.93278e-20)
(-0.132837 0.0251013 1.16403e-19)
(-0.13642 0.0242214 -2.5139e-20)
(-0.139212 0.0235058 -1.52747e-20)
(-0.141175 0.0230889 -7.22661e-20)
(-0.142362 0.023177 -9.13172e-20)
(-0.142684 0.0240212 7.49015e-20)
(-0.141741 0.0259646 5.09872e-20)
(-0.00160713 0.00670155 3.497e-20)
(-0.00578531 0.0168819 4.11121e-20)
(-0.0120087 0.0245506 -3.24194e-20)
(-0.0193531 0.0301992 -6.70335e-20)
(-0.027473 0.0341785 1.04328e-20)
(-0.036076 0.0368015 7.86316e-20)
(-0.0448977 0.0383465 1.13026e-19)
(-0.0537286 0.0390545 1.54352e-19)
(-0.0624026 0.0391311 2.69171e-20)
(-0.07079 0.0387476 3.55574e-20)
(-0.0787905 0.0380415 4.31668e-20)
(-0.086326 0.0371196 1.6532e-19)
(-0.0933345 0.0360604 -9.53883e-21)
(-0.0997641 0.0349185 -2.123e-19)
(-0.105568 0.0337294 1.53082e-19)
(-0.1107 0.0325153 6.08984e-20)
(-0.115111 0.0312903 1.93222e-19)
(-0.118748 0.0300684 -7.91593e-20)
(-0.121547 0.0288723 -9.1306e-20)
(-0.123438 0.0277455 2.60765e-19)
(-0.124336 0.0267695 -8.77868e-20)
(-0.124155 0.0260882 -1.34352e-19)
(-0.122906 0.0259423 -3.60257e-20)
(-0.12048 0.0266738 -1.13665e-19)
(-0.115906 0.0286516 1.90646e-20)
(-0.00192411 0.00753637 8.69931e-21)
(-0.00649124 0.0190221 -1.70871e-20)
(-0.0128423 0.0277057 3.48538e-21)
(-0.0201327 0.0341211 -1.22086e-19)
(-0.0280492 0.0386531 -9.47276e-20)
(-0.0363228 0.0416487 -1.7884e-20)
(-0.0447075 0.043418 -4.61962e-20)
(-0.0530061 0.0442314 -8.40558e-20)
(-0.0610599 0.0443208 -1.89459e-20)
(-0.0687429 0.0438799 -9.38952e-21)
(-0.0759547 0.0430652 -8.91132e-20)
(-0.0826147 0.0419983 3.85279e-20)
(-0.0886558 0.040769 2.90216e-20)
(-0.0940189 0.0394399 1.55889e-19)
(-0.0986482 0.0380516 -3.20133e-21)
(-0.102487 0.0366282 -9.4451e-20)
(-0.105475 0.035184 -1.03205e-20)
(-0.107544 0.0337305 4.08579e-20)
(-0.108615 0.0322853 1.67981e-19)
(-0.108594 0.0308858 -1.25055e-19)
(-0.107369 0.0296078 3.29744e-19)
(-0.104807 0.0285943 1.37896e-19)
(-0.100865 0.0281082 -1.04389e-19)
(-0.0954972 0.0286023 2.02409e-19)
(-0.0868104 0.0304365 1.18164e-19)
(-0.00226958 0.00829642 1.06572e-20)
(-0.00726495 0.0209856 5.39808e-20)
(-0.0137611 0.030617 1.53053e-19)
(-0.0209967 0.037755 1.90653e-19)
(-0.0286917 0.0428122 1.13328e-19)
(-0.0366019 0.046164 -7.95255e-20)
(-0.0445009 0.0481488 1.93629e-19)
(-0.0522046 0.0490634 2.19486e-20)
(-0.059563 0.0491639 -1.15603e-19)
(-0.066454 0.0486649 1.27064e-20)
(-0.0727778 0.0477408 2.14418e-19)
(-0.0784511 0.0465276 -2.29165e-19)
(-0.0834015 0.0451259 -1.30845e-19)
(-0.0875623 0.0436065 -2.6585e-20)
(-0.0908685 0.0420147 -2.14733e-19)
(-0.0932528 0.0403771 -1.40045e-19)
(-0.0946422 0.0387076 2.48273e-20)
(-0.0949545 0.0370144 -2.92093e-19)
(-0.0940945 0.0353092 2.91881e-20)
(-0.0919507 0.0336193 -1.40228e-19)
(-0.0883869 0.032008 -1.73962e-19)
(-0.0832258 0.0306068 1.62247e-19)
(-0.0763464 0.0296776 1.8306e-19)
(-0.0679316 0.0298033 -1.42613e-19)
(-0.0546633 0.0313415 1.96952e-19)
(-0.00263813 0.00897746 -1.28113e-19)
(-0.00809547 0.0227606 9.39096e-20)
(-0.0147537 0.0332658 -6.86304e-21)
(-0.0219354 0.0410767 3.75232e-20)
(-0.029394 0.0466267 3.55044e-20)
(-0.0369107 0.0503145 1.59301e-19)
(-0.0442792 0.0525029 -1.15584e-19)
(-0.0513297 0.0535122 -2.1542e-19)
(-0.0579212 0.0536203 1.07906e-19)
(-0.0639361 0.0530616 1.00719e-19)
(-0.0692758 0.0520268 -3.4005e-19)
(-0.0738541 0.0506657 2.39165e-19)
(-0.0775932 0.0490897 3.63188e-19)
(-0.0804185 0.0473771 2.47591e-20)
(-0.0822552 0.0455786 -6.40764e-20)
(-0.0830243 0.0437231 1.84068e-19)
(-0.0826401 0.0418246 -8.49197e-20)
(-0.0810066 0.0398881 3.80849e-19)
(-0.0780134 0.0379186 -3.36153e-19)
(-0.0735317 0.0359314 6.12745e-20)
(-0.0674065 0.0339715 -3.17856e-20)
(-0.0594311 0.0321495 -1.03713e-19)
(-0.049354 0.0306922 -1.00801e-19)
(-0.0378048 0.0302884 8.3433e-20)
(-0.0196139 0.0316063 2.13928e-20)
(-0.00302436 0.00957696 8.36645e-20)
(-0.00897176 0.0243391 -6.01985e-20)
(-0.015808 0.0356383 4.97025e-20)
(-0.0229384 0.0440665 -1.67441e-19)
(-0.0301487 0.0500716 -3.70141e-20)
(-0.0372452 0.054071 1.88053e-20)
(-0.0440424 0.0564476 -4.25559e-20)
(-0.0503847 0.0575424 -7.04266e-20)
(-0.056141 0.057653 2.21467e-20)
(-0.0611989 0.0570313 -1.17711e-19)
(-0.0654605 0.0558839 2.19515e-19)
(-0.0688374 0.0543731 -5.0452e-20)
(-0.0712457 0.0526208 -1.28954e-19)
(-0.0726025 0.050713 -1.32028e-19)
(-0.0728222 0.0487055 1.74933e-19)
(-0.0718134 0.0466305 9.48143e-20)
(-0.0694766 0.0445022 3.77993e-20)
(-0.0657008 0.0423234 -3.17433e-19)
(-0.0603602 0.0400928 3.31182e-19)
(-0.0533096 0.0378137 -1.08208e-19)
(-0.0443768 0.03551 -5.05157e-20)
(-0.0333523 0.0332682 -3.93227e-20)
(-0.0197914 0.0312557 -4.37e-20)
(-0.00484986 0.0300875 1.40653e-19)
(0.0183988 0.031219 -2.31377e-19)
(-0.00342313 0.0100941 -3.10882e-20)
(-0.00988298 0.0257165 1.34275e-19)
(-0.0169122 0.0377248 -1.91955e-19)
(-0.0239949 0.0467094 7.69709e-20)
(-0.0309473 0.053127 4.24498e-20)
(-0.0375999 0.0574087 -6.43241e-20)
(-0.0437877 0.0599541 1.87445e-19)
(-0.0493699 0.0611221 4.5549e-20)
(-0.0542252 0.0612274 2.13212e-20)
(-0.0582466 0.0605382 1.84072e-19)
(-0.0613374 0.0592752 -7.54308e-20)
(-0.0634062 0.0576128 7.98184e-20)
(-0.064363 0.0556825 -8.48724e-20)
(-0.0641155 0.0535782 -5.3694e-21)
(-0.062566 0.0513612 -9.25994e-20)
(-0.0596092 0.0490672 -3.20631e-19)
(-0.0551298 0.0467117 6.60785e-20)
(-0.0489997 0.0442966 2.56381e-19)
(-0.0410755 0.0418159 -8.86586e-20)
(-0.031195 0.039263 4.28919e-19)
(-0.0191624 0.0366412 -2.38205e-19)
(-0.00479353 0.0340124 -6.82749e-20)
(0.0125569 0.0314486 -1.14873e-19)
(0.0311622 0.029476 3.61347e-21)
(0.0601399 0.0300661 -1.03251e-19)
(-0.00382964 0.0105298 -9.30555e-20)
(-0.0108188 0.026892 -1.38419e-19)
(-0.0180543 0.0395205 -7.43177e-20)
(-0.0250933 0.0489955 6.98772e-20)
(-0.0317797 0.0557773 2.18204e-20)
(-0.0379669 0.060307 1.26024e-20)
(-0.0435093 0.0629976 4.81812e-20)
(-0.0482811 0.0642228 -2.34733e-19)
(-0.0521708 0.0643127 7.76044e-20)
(-0.0550766 0.0635496 -1.60782e-19)
(-0.0569027 0.0621671 -5.8279e-20)
(-0.0575545 0.0603508 -7.87124e-20)
(-0.0569345 0.0582416 -1.66729e-19)
(-0.0549399 0.0559407 3.42821e-19)
(-0.0514592 0.0535156 1.94557e-19)
(-0.0463706 0.0510058 5.23461e-20)
(-0.0395398 0.0484297 1.63433e-19)
(-0.0308183 0.0457897 -2.36879e-19)
(-0.0200411 0.0430777 -5.8571e-20)
(-0.00702596 0.0402806 -2.78577e-19)
(0.00845755 0.0373849 1.07519e-19)
(0.0265285 0.0344305 2.36887e-19)
(0.0481714 0.0313692 1.08776e-19)
(0.0705795 0.0287591 -2.05536e-19)
(0.106308 0.0284008 2.58235e-19)
(-0.00423967 0.0108863 -3.31414e-20)
(-0.0117696 0.0278682 8.64207e-21)
(-0.0192227 0.0410246 9.41393e-20)
(-0.0262217 0.0509192 1.68026e-19)
(-0.0326345 0.058012 -1.12458e-19)
(-0.0383353 0.0627503 1.08421e-19)
(-0.0431973 0.0655578 -8.50661e-20)
(-0.0471086 0.0668207 3.21441e-19)
(-0.0499672 0.066882 -2.25338e-19)
(-0.0516764 0.0660367 4.8475e-20)
(-0.0521405 0.0645299 2.09235e-19)
(-0.0512604 0.0625574 -2.88494e-20)
(-0.0489301 0.0602691 2.25043e-20)
(-0.0450339 0.0577735 -2.78636e-19)
(-0.0394439 0.0551442 -2.36249e-19)
(-0.0320182 0.0524258 -9.01406e-21)
(-0.0225996 0.0496406 -2.60455e-19)
(-0.0110141 0.0467933 9.54705e-20)
(0.00293124 0.0438771 -1.32953e-19)
(0.0194411 0.0408766 1.74405e-19)
(0.0388037 0.0377682 -2.35394e-19)
(0.0610022 0.0345814 1.41632e-19)
(0.0876178 0.0311539 -1.1866e-19)
(0.113999 0.028041 1.61528e-19)
(0.157723 0.026677 -9.52794e-21)
(-0.00464961 0.0111674 1.81645e-19)
(-0.0127268 0.0286504 4.6051e-20)
(-0.0204063 0.0422405 -1.04238e-19)
(-0.0273674 0.0524797 -1.25084e-19)
(-0.0334982 0.059825 8.44064e-20)
(-0.0386911 0.0647276 -3.09433e-19)
(-0.0428363 0.0676192 4.41065e-19)
(-0.0458352 0.0688963 8.57715e-20)
(-0.0475945 0.068913 1.42191e-19)
(-0.0480213 0.0679754 1.73754e-19)
(-0.0470191 0.0663388 1.09519e-19)
(-0.0444826 0.0642082 -8.20731e-20)
(-0.040295 0.061742 -2.73747e-21)
(-0.0343248 0.059056 -4.01241e-20)
(-0.0264237 0.0562304 -1.19915e-19)
(-0.0164257 0.0533157 2.6888e-19)
(-0.00414502 0.0503393 5.48681e-19)
(0.010624 0.0473107 3.27537e-20)
(0.0281094 0.0442273 1.89588e-19)
(0.0485397 0.0410762 -9.86616e-20)
(0.0722969 0.0378331 1.20034e-19)
(0.0991147 0.0345215 -7.04527e-19)
(0.131548 0.030928 3.35436e-19)
(0.162092 0.027459 2.0768e-19)
(0.215325 0.0253122 -1.38907e-19)
(-0.00505663 0.0113781 -1.08902e-19)
(-0.0136828 0.029247 -1.87155e-19)
(-0.0215943 0.043175 1.79514e-19)
(-0.028517 0.0536805 1.1758e-19)
(-0.0343548 0.0612152 6.31907e-20)
(-0.0390155 0.0662328 2.2375e-19)
(-0.0424046 0.0691711 -2.32203e-19)
(-0.044435 0.0704353 -2.14118e-19)
(-0.0450207 0.0703888 -1.4056e-19)
(-0.0440715 0.0693471 -3.30021e-19)
(-0.0414877 0.0675747 6.37993e-20)
(-0.0371556 0.0652852 -2.60253e-20)
(-0.0309442 0.0626446 4.70571e-19)
(-0.0227024 0.0597764 1.93821e-19)
(-0.0122569 0.0567678 1.39405e-19)
(0.000588667 0.0536761 -4.38587e-20)
(0.0160542 0.0505356 -2.51341e-19)
(0.0343838 0.0473629 -2.03719e-19)
(0.0558489 0.0441625 -2.38629e-19)
(0.080697 0.0409276 1.71004e-19)
(0.109454 0.037648 3.22812e-19)
(0.141433 0.034319 3.61945e-19)
(0.180669 0.0308274 -3.41829e-19)
(0.215528 0.0271479 1.47508e-19)
(0.279976 0.0246964 1.99278e-19)
(-0.00545862 0.0115241 -2.8667e-19)
(-0.0146309 0.0296682 1.59542e-19)
(-0.022776 0.0438384 -2.72021e-19)
(-0.0296557 0.0545287 3.3423e-19)
(-0.0351852 0.0621857 -3.19399e-19)
(-0.0392846 0.0672646 -9.56007e-20)
(-0.0418724 0.0702083 -1.78109e-19)
(-0.042871 0.071429 1.0016e-19)
(-0.0421998 0.0712983 -1.71477e-19)
(-0.0397688 0.0701398 1.87578e-19)
(-0.0354723 0.068226 -2.46031e-19)
(-0.0291849 0.0657784 -1.8251e-19)
(-0.020757 0.0629706 6.25415e-21)
(-0.0100128 0.0599339 -2.80328e-19)
(0.0032519 0.0567631 5.93276e-21)
(0.0192698 0.0535237 -2.83922e-19)
(0.038302 0.0502588 -1.73706e-20)
(0.060636 0.046994 -3.10025e-19)
(0.0865944 0.0437452 1.0841e-19)
(0.116429 0.0405113 4.72599e-19)
(0.150869 0.0373228 -4.55171e-19)
(0.188578 0.0340719 2.24037e-19)
(0.235665 0.0310237 2.4658e-19)
(0.274907 0.0272225 -1.18963e-19)
(0.352232 0.0251769 4.78862e-20)
(-0.00585428 0.0116118 1.48563e-19)
(-0.0155656 0.0299262 -4.19163e-20)
(-0.0239408 0.0442433 9.2236e-20)
(-0.0307674 0.0550349 -2.68861e-19)
(-0.0359667 0.0627438 4.30726e-19)
(-0.0394684 0.0678266 2.80912e-20)
(-0.0412008 0.0707307 3.11316e-19)
(-0.0410936 0.0718749 -1.62393e-19)
(-0.0390689 0.0716374 1.10059e-19)
(-0.0350333 0.0703491 1.44773e-19)
(-0.0288718 0.0682897 1.32776e-19)
(-0.0204422 0.065688 4.20031e-19)
(-0.00957117 0.0627256 -1.06392e-19)
(0.00394805 0.0595416 -1.07033e-19)
(0.0203569 0.0562398 -8.39026e-20)
(0.0399311 0.0528956 -7.36199e-21)
(0.0629786 0.0495625 -1.76735e-19)
(0.0898333 0.0462781 1.56227e-19)
(0.120872 0.0430735 -2.09779e-19)
(0.156323 0.0399479 8.60352e-20)
(0.197177 0.0370192 -1.22483e-19)
(0.241177 0.0339252 1.57068e-20)
(0.297092 0.0317346 -5.77335e-19)
(0.340695 0.0278154 6.13055e-20)
(0.432122 0.0270254 -2.22512e-21)
(-0.00624297 0.0116482 1.97978e-19)
(-0.0164822 0.0300338 -1.33576e-19)
(-0.025078 0.044404 -9.41248e-20)
(-0.0318335 0.0552126 -5.69063e-20)
(-0.0366721 0.0629005 -1.86228e-19)
(-0.0395292 0.0679269 -3.14191e-19)
(-0.0403402 0.0707443 -1.02567e-19)
(-0.0390386 0.0717769 3.50825e-19)
(-0.0355455 0.0714096 -1.09584e-19)
(-0.0297605 0.0699794 -2.36843e-19)
(-0.0215539 0.067773 -1.43016e-19)
(-0.010761 0.0650264 -4.29508e-19)
(0.00282167 0.0619293 -4.67899e-19)
(0.0194386 0.0586298 3.51553e-19)
(0.0393753 0.0552422 7.23704e-20)
(0.0629559 0.0518533 5.78698e-20)
(0.0905382 0.0485299 6.04954e-19)
(0.122499 0.0453236 9.21655e-20)
(0.159265 0.0422858 5.81229e-19)
(0.200999 0.0394022 -6.97111e-19)
(0.248985 0.0369503 3.26369e-19)
(0.299794 0.0340851 -2.95806e-19)
(0.365221 0.0332086 4.64914e-19)
(0.413118 0.029125 -6.99766e-19)
(0.518937 0.0304168 1.46274e-19)
(-0.00662466 0.0116399 -5.02269e-20)
(-0.0173762 0.0300046 -1.06653e-19)
(-0.026176 0.0443365 -9.82481e-20)
(-0.032833 0.0550774 3.3454e-20)
(-0.0372687 0.0626701 -5.27037e-20)
(-0.0394209 0.0675784 1.98907e-19)
(-0.0392283 0.0702603 -7.12148e-20)
(-0.0366248 0.0711462 -1.50338e-19)
(-0.0315259 0.0706268 -6.15843e-20)
(-0.0238184 0.0690454 3.11474e-21)
(-0.0133522 0.0666952 3.94856e-19)
(6.66916e-05 0.0638202 -3.46458e-19)
(0.0166791 0.0606186 5.0402e-19)
(0.0367741 0.0572493 -1.45928e-19)
(0.0606867 0.0538385 -2.54027e-19)
(0.0887921 0.0504871 2.10439e-19)
(0.121495 0.0472777 -2.31005e-19)
(0.159203 0.0442771 -3.90469e-19)
(0.202373 0.0415635 -1.45718e-19)
(0.251048 0.0390842 1.37182e-19)
(0.30677 0.0373673 2.1913e-19)
(0.364811 0.0348245 4.26041e-19)
(0.43988 0.0356828 2.49872e-20)
(0.492008 0.031429 2.96023e-19)
(0.611088 0.0354216 -9.67718e-20)
(-0.00699976 0.0115937 -2.45948e-20)
(-0.0182437 0.0298519 2.33286e-19)
(-0.0272218 0.0440571 2.40928e-19)
(-0.0337412 0.0546467 -1.08049e-19)
(-0.0377176 0.0620698 7.58893e-20)
(-0.0390876 0.0667982 -2.82131e-19)
(-0.0377897 0.0692963 5.61653e-20)
(-0.0337529 0.0700014 4.53581e-20)
(-0.0268819 0.0693103 -1.32198e-19)
(-0.0170448 0.0675729 -3.64042e-20)
(-0.00406347 0.0650895 -4.94801e-19)
(0.0122926 0.0621125 1.57519e-19)
(0.0323088 0.0588504 -2.37991e-20)
(0.0563245 0.0554745 -5.58034e-21)
(0.0847269 0.0521252 -2.28528e-20)
(0.117939 0.0489198 -4.59553e-21)
(0.1564 0.0459588 -2.02373e-20)
(0.200522 0.0433246 2.70951e-19)
(0.250747 0.0411275 -2.41053e-19)
(0.30694 0.0392452 2.19672e-19)
(0.370763 0.0385336 -3.24409e-19)
(0.436284 0.0364711 -1.56557e-19)
(0.520312 0.0393355 4.54876e-20)
(0.576617 0.0350385 -2.532e-19)
(0.706093 0.0419959 -8.31424e-20)
(-0.0073689 0.0115155 -2.3338e-19)
(-0.0190801 0.0295883 -2.94014e-20)
(-0.0282005 0.0435817 -2.97556e-19)
(-0.0345292 0.0539383 -2.39213e-19)
(-0.0379726 0.0611195 3.17017e-19)
(-0.0384629 0.0656073 2.1725e-19)
(-0.0359335 0.0678753 -9.59193e-20)
(-0.0303036 0.0683687 -8.5923e-20)
(-0.0214605 0.0674913 -6.40404e-20)
(-0.00924624 0.0656003 5.53457e-19)
(0.00655294 0.0630041 2.13036e-19)
(0.0262116 0.059965 3.00875e-19)
(0.0500658 0.0567036 -1.66676e-20)
(0.0785079 0.0534056 5.85326e-20)
(0.111974 0.0502284 1.62138e-19)
(0.150922 0.0473074 -3.80476e-19)
(0.1958 0.044762 6.01352e-19)
(0.246978 0.0426882 6.36313e-20)
(0.304811 0.0412289 -1.96165e-19)
(0.36892 0.0401658 -2.96397e-19)
(0.440826 0.040694 -1.6037e-19)
(0.513764 0.0393638 3.58474e-19)
(0.60512 0.0442556 -1.17624e-20)
(0.665434 0.040201 1.88831e-19)
(0.800753 0.0499631 2.2864e-19)
(-0.00773265 0.0114105 1.77999e-19)
(-0.0198799 0.029225 1.86357e-20)
(-0.0290947 0.0429258 -4.01103e-20)
(-0.035163 0.0529712 4.22692e-20)
(-0.0379796 0.0598407 -3.01417e-19)
(-0.0374684 0.0640305 4.01585e-19)
(-0.0335531 0.0660263 -9.60483e-22)
(-0.0261367 0.0662827 3.27544e-19)
(-0.0150823 0.0652119 1.39844e-20)
(-0.000197583 0.0631797 -1.12325e-19)
(0.0187743 0.0605042 1.76933e-19)
(0.0421586 0.0574595 -5.94503e-19)
(0.0703451 0.0542809 -3.66799e-19)
(0.103776 0.0511709 -1.82908e-19)
(0.142925 0.0483055 -7.89966e-20)
(0.188258 0.0458391 7.17269e-21)
(0.240184 0.0439084 -3.89929e-19)
(0.298964 0.0426171 1.48277e-19)
(0.364757 0.0421323 5.70645e-19)
(0.43688 0.0421318 1.57103e-19)
(0.516352 0.0440489 3.80879e-19)
(0.596154 0.0437778 -3.77307e-19)
(0.69231 0.0504352 -8.83304e-20)
(0.756122 0.0469971 -1.49829e-19)
(0.891533 0.0589955 -7.98612e-19)
(-0.00809132 0.011283 -1.66736e-19)
(-0.0206364 0.0287713 8.45855e-20)
(-0.0298835 0.0421036 1.50464e-19)
(-0.0356028 0.051764 5.23315e-19)
(-0.0376755 0.0582561 1.97139e-19)
(-0.0360135 0.0620959 -4.37929e-19)
(-0.0305252 0.0637839 -1.1052e-19)
(-0.0210912 0.063786 -5.80629e-20)
(-0.00754207 0.062525 -1.91273e-19)
(0.0103563 0.060377 -6.27056e-20)
(0.0329109 0.0576722 -1.29782e-19)
(0.0605013 0.0546992 4.74304e-19)
(0.0935691 0.0517101 5.66767e-19)
(0.132596 0.0489261 2.85476e-19)
(0.178064 0.0465428 -1.45855e-19)
(0.230404 0.0447318 -1.02341e-19)
(0.289916 0.0436415 2.25335e-19)
(0.356659 0.043373 -5.1027e-20)
(0.430457 0.0440926 -3.78753e-21)
(0.510253 0.0453959 1.24201e-19)
(0.596203 0.0487356 -1.78117e-19)
(0.681648 0.0498443 -3.09702e-19)
(0.77943 0.0577671 -2.07693e-19)
(0.845662 0.0552799 2.62353e-19)
(0.975055 0.0686255 8.38821e-19)
(-0.00844456 0.0111358 1.33049e-19)
(-0.0213404 0.0282345 4.52474e-19)
(-0.0305418 0.0411275 1.81029e-19)
(-0.0358023 0.0503341 -1.6048e-19)
(-0.0369877 0.0563899 2.23916e-19)
(-0.0339945 0.0598351 2.46774e-19)
(-0.0267101 0.0611882 2.76853e-19)
(-0.0149853 0.0609296 -1.55869e-20)
(0.00138939 0.0594947 2.1803e-19)
(0.022697 0.0572728 -6.71734e-19)
(0.049299 0.0546089 3.80345e-19)
(0.0816284 0.0518084 -2.02438e-19)
(0.120169 0.0491425 -5.1211e-19)
(0.165415 0.0468523 -3.7223e-19)
(0.217818 0.045151 6.07678e-19)
(0.277702 0.0442219 -2.08593e-19)
(0.345163 0.0442134 -1.02939e-19)
(0.419938 0.0452078 7.94431e-20)
(0.501369 0.0473286 -4.02093e-19)
(0.587944 0.0501311 3.27307e-19)
(0.67871 0.0548101 -5.29082e-20)
(0.767822 0.0574982 3.84776e-19)
(0.863793 0.0660374 4.473e-19)
(0.930735 0.0646843 -1.53747e-19)
(1.04859 0.0782978 -3.07683e-19)
(-0.00879122 0.0109706 -6.93487e-20)
(-0.0219801 0.0276197 -2.56727e-19)
(-0.0310396 0.0400075 6.73606e-21)
(-0.0357079 0.0486982 -1.29701e-19)
(-0.035834 0.0542667 -3.82275e-19)
(-0.0312951 0.0572821 -1.97863e-19)
(-0.021952 0.0582847 1.08898e-19)
(-0.00761831 0.0577724 -3.39911e-19)
(0.0119621 0.0561964 2.68397e-20)
(0.0371265 0.0539621 1.67609e-19)
(0.068291 0.0514321 -4.82121e-19)
(0.105934 0.0489315 -1.58755e-19)
(0.150557 0.0467514 4.10185e-19)
(0.202632 0.0451514 2.77696e-19)
(0.262508 0.044357 -3.59725e-19)
(0.330312 0.0445517 3.86908e-19)
(0.405815 0.0458647 1.61336e-19)
(0.488301 0.0483364 -4.07205e-20)
(0.57649 0.0519936 -3.51099e-20)
(0.668337 0.0563909 -3.47648e-19)
(0.76175 0.0622244 3.84298e-20)
(0.851878 0.066477 -6.57855e-20)
(0.94276 0.0749242 -3.50121e-19)
(1.00825 0.0747024 -2.57703e-19)
(1.11037 0.0874551 -2.41211e-19)
(-0.00912885 0.0107875 -4.36035e-20)
(-0.0225407 0.0269294 -5.70322e-19)
(-0.0313417 0.0387514 -3.52524e-19)
(-0.0352586 0.0468718 -4.49744e-19)
(-0.0341221 0.0519115 3.9777e-19)
(-0.0277866 0.0544735 3.2082e-20)
(-0.0160803 0.0551237 2.88712e-19)
(0.00122637 0.0543811 -2.6419e-19)
(0.024442 0.0527161 4.39993e-19)
(0.0539589 0.0505535 1.65061e-19)
(0.0902418 0.0482763 1.35085e-20)
(0.133794 0.0462305 -2.59494e-20)
(0.185102 0.0447268 -9.17448e-20)
(0.244547 0.0440382 -7.98092e-20)
(0.312293 0.0443914 8.56433e-20)
(0.38815 0.0459516 1.21315e-19)
(0.47143 0.0488008 -7.71855e-19)
(0.56083 0.0529069 4.83844e-20)
(0.65436 0.0581478 -1.27739e-19)
(0.749392 0.0640883 -1.18347e-19)
(0.842911 0.0708085 5.96133e-20)
(0.931003 0.0763653 -3.86212e-19)
(1.01406 0.0840273 1.75865e-19)
(1.07583 0.0848026 2.23417e-19)
(1.15972 0.0956244 -5.09405e-19)
(-0.00945356 0.0105855 1.0184e-19)
(-0.0230033 0.0261633 4.12755e-19)
(-0.0314071 0.0373647 3.56465e-20)
(-0.0343853 0.0448691 6.53415e-19)
(-0.0317498 0.0493496 -4.14913e-19)
(-0.0233285 0.0514482 4.06777e-19)
(-0.0089121 0.0517604 -3.64948e-19)
(0.0117777 0.0508299 1.43863e-19)
(0.0391038 0.0491501 -1.85917e-19)
(0.0735093 0.0471682 2.45497e-19)
(0.115491 0.0452898 4.07493e-19)
(0.165547 0.0438817 2.11297e-19)
(0.224088 0.0432699 8.46946e-20)
(0.291325 0.0437306 9.25795e-20)
(0.367121 0.0454739 -7.05606e-20)
(0.450838 0.0486197 -5.67186e-20)
(0.541194 0.0531671 6.2982e-19)
(0.636197 0.0589748 2.07391e-19)
(0.733132 0.0657348 5.74856e-19)
(0.828828 0.0730003 1.49449e-20)
(0.919747 0.0802745 -3.63157e-19)
(1.00275 0.0866609 4.5269e-19)
(1.07605 0.092942 5.71776e-19)
(1.1321 0.0945577 7.42971e-20)
(1.1969 0.102459 5.014e-19)
(-0.00975982 0.010362 -2.88924e-19)
(-0.0233448 0.0253189 1.60135e-19)
(-0.0311884 0.035851 3.52078e-19)
(-0.0330113 0.0427032 -1.3862e-19)
(-0.0286059 0.0466068 -4.12594e-19)
(-0.0177708 0.0482474 -3.04846e-20)
(-0.000254646 0.0482542 2.23503e-20)
(0.0242717 0.0471998 4.0068e-20)
(0.0562229 0.0456036 -2.5713e-19)
(0.0960804 0.043938 -1.09043e-19)
(0.144346 0.0426319 -3.8056e-19)
(0.201459 0.0420696 -9.44087e-21)
(0.267681 0.0425834 -1.07162e-19)
(0.342944 0.0444363 -3.25038e-20)
(0.426681 0.0477952 2.84455e-19)
(0.51767 0.0526998 -4.17015e-19)
(0.613927 0.0590258 1.757e-19)
(0.712728 0.0664862 -2.78041e-19)
(0.810722 0.0745742 -4.15496e-19)
(0.904362 0.0827956 7.67654e-20)
(0.990071 0.0902475 7.74488e-19)
(1.06538 0.0968479 -3.92916e-19)
(1.12795 0.101364 1.68752e-20)
(1.17663 0.103711 3.41526e-19)
(1.22289 0.107661 1.92214e-19)
(-0.0100398 0.0101131 1.36077e-19)
(-0.023538 0.0243922 -1.93226e-19)
(-0.0306324 0.034212 -4.09581e-19)
(-0.0310523 0.0403861 -2.1778e-19)
(-0.0245711 0.0437091 2.38134e-19)
(-0.0109551 0.0449146 8.10741e-20)
(0.0100906 0.0446694 4.74118e-19)
(0.0389451 0.0435782 1.92416e-19)
(0.0760651 0.0421901 1.21719e-19)
(0.121948 0.0410037 5.67433e-20)
(0.177055 0.0404689 3.93425e-19)
(0.2417 0.0409808 1.78023e-19)
(0.315895 0.0428626 -1.47483e-19)
(0.399165 0.046339 2.11083e-19)
(0.49038 0.0514992 -1.21749e-19)
(0.587617 0.0582618 1.54706e-19)
(0.688135 0.0663405 -1.50246e-19)
(0.788531 0.0752745 -3.27343e-19)
(0.885016 0.0843744 4.76369e-19)
(0.973963 0.0930805 -4.98561e-19)
(1.05222 0.100315 1.41077e-19)
(1.11799 0.106474 -1.63264e-19)
(1.16976 0.109179 -1.23505e-19)
(1.20982 0.112043 -1.01978e-18)
(1.23927 0.110811 1.62506e-19)
(-0.0102837 0.00983485 2.78327e-20)
(-0.0235504 0.0233776 1.38418e-19)
(-0.0296793 0.0324482 4.59499e-19)
(-0.0284172 0.0379296 -1.08401e-19)
(-0.0195189 0.0406837 -4.72484e-20)
(-0.00271796 0.0414959 8.78781e-20)
(0.0223238 0.0410741 7.83627e-20)
(0.0560281 0.0400587 -3.09e-19)
(0.0988758 0.0390297 -1.43585e-19)
(0.151342 0.0385115 -4.43383e-19)
(0.21379 0.0389696 -3.34944e-19)
(0.286315 0.0407961 -2.38993e-19)
(0.368558 0.0442828 2.13636e-19)
(0.459508 0.0495827 -3.12011e-19)
(0.557342 0.056666 -1.50315e-19)
(0.659364 0.0652879 -6.58146e-20)
(0.76211 0.0749712 -4.75797e-20)
(0.861662 0.0850743 9.79963e-19)
(0.954092 0.0947682 6.23868e-20)
(1.03607 0.103451 -8.62734e-20)
(1.10521 0.11008 -4.87605e-19)
(1.16057 0.115236 1.58628e-19)
(1.20213 0.116424 1.67544e-20)
(1.23278 0.118993 5.85743e-19)
(1.24856 0.111655 6.51873e-20)
(-0.0104806 0.00952246 2.1965e-19)
(-0.0233451 0.0222682 -2.11226e-19)
(-0.0282636 0.0305597 -3.20803e-19)
(-0.0250084 0.0353461 3.22232e-19)
(-0.0133176 0.0375595 -7.20242e-20)
(0.00710691 0.0380407 -6.24639e-20)
(0.0366414 0.0375416 5.44012e-20)
(0.0757365 0.0367401 -7.79471e-20)
(0.124867 0.0362479 1.9565e-19)
(0.184436 0.0366108 1.26936e-19)
(0.254623 0.038299 3.28971e-19)
(0.335197 0.0416818 -8.84783e-21)
(0.425297 0.0469881 2.7005e-19)
(0.523243 0.0542581 -1.80901e-20)
(0.626431 0.0632989 2.88646e-19)
(0.731394 0.0736671 8.41005e-20)
(0.834076 0.0846841 -5.43076e-19)
(0.930321 0.0955497 -2.6495e-19)
(1.01642 0.105363 -6.4552e-20)
(1.08971 0.113544 1.75222e-19)
(1.14881 0.119215 -8.32116e-20)
(1.19379 0.123032 -2.96275e-19)
(1.22597 0.123027 3.89108e-20)
(1.24723 0.123852 -2.74738e-19)
(1.25916 0.11641 -1.33139e-19)
(-0.010617 0.00917038 1.34473e-19)
(-0.0228813 0.0210574 1.43591e-19)
(-0.0263142 0.0285471 2.6321e-19)
(-0.0207231 0.032649 -1.91805e-19)
(-0.00583209 0.0343679 1.39475e-20)
(0.0186848 0.034602 3.84357e-19)
(0.0532311 0.0341495 -1.10213e-19)
(0.0982631 0.0337266 -3.68031e-19)
(0.154207 0.0339736 -2.18245e-19)
(0.221321 0.0354499 2.91975e-19)
(0.299505 0.0386129 -6.08773e-19)
(0.388072 0.0437806 2.37263e-21)
(0.485527 0.0510792 -5.23469e-20)
(0.589413 0.0603908 3.87336e-19)
(0.696316 0.0713187 -2.10902e-19)
(0.802096 0.0832016 2.89896e-19)
(0.902348 0.0951755 2.93469e-19)
(0.993021 0.106335 -5.18546e-19)
(1.071 0.115792 -2.16584e-19)
(1.13456 0.123066 -1.80108e-19)
(1.18344 0.127513 2.75165e-19)
(1.2187 0.129902 4.36663e-19)
(1.24243 0.12868 2.03724e-19)
(1.25673 0.128147 -1.81361e-19)
(1.26456 0.12043 -3.27665e-19)
(-0.0106774 0.00877349 -3.17393e-20)
(-0.0221137 0.0197393 1.34313e-19)
(-0.0237553 0.0264126 -2.67036e-19)
(-0.0154545 0.0298547 -4.10198e-19)
(0.00307417 0.0311439 -6.08305e-19)
(0.0321764 0.0312378 1.03592e-19)
(0.0722655 0.030981 -1.22401e-19)
(0.123769 0.0311267 1.79493e-19)
(0.187004 0.0323377 6.67778e-20)
(0.261999 0.0351724 1.28831e-19)
(0.348253 0.0400506 1.43347e-19)
(0.444491 0.0472016 -7.918e-20)
(0.548461 0.0566035 -1.14635e-19)
(0.656872 0.0679346 -2.57731e-19)
(0.765557 0.0805665 7.86425e-20)
(0.869903 0.0936246 -3.08248e-19)
(0.96548 0.106106 1.13685e-19)
(1.04871 0.117078 7.34639e-20)
(1.11738 0.125754 -3.06041e-19)
(1.17087 0.131822 -3.30345e-19)
(1.20995 0.134902 -1.77191e-19)
(1.23655 0.135874 9.95639e-21)
(1.25322 0.133551 5.54294e-20)
(1.26208 0.131889 -1.78978e-19)
(1.26642 0.123935 1.35267e-19)