/*--------------------------------*- C++ -*----------------------------------*\
  =========                 |
  \\      /  F ield         | OpenFOAM: The Open Source CFD Toolbox
   \\    /   O peration     | Website:  https://openfoam.org
    \\  /    A nd           | Version:  7
     \\/     M anipulation  |
\*---------------------------------------------------------------------------*/
FoamFile
{
    version     2.0;
    format      ascii;
    class       volScalarField;
    location    "155";
    object      p;
}
// * * * * * * * * * * * * * * * * * * * * * * * * * * * * * * * * * * * * * //

dimensions      [0 2 -2 0 0 0 0];

internalField   nonuniform List<scalar> 
31800
(
-0.389607
-0.390928
-0.391552
-0.392052
-0.392722
-0.393786
-0.39542
-0.397723
-0.400743
-0.404502
-0.409006
-0.414252
-0.420213
-0.426828
-0.433983
-0.441481
-0.449022
-0.45618
-0.462388
-0.466936
-0.468935
-0.467563
-0.461979
-0.451643
-0.436244
-0.383811
-0.385492
-0.38626
-0.386821
-0.387477
-0.388441
-0.38988
-0.391883
-0.394487
-0.3977
-0.401514
-0.405906
-0.410836
-0.416227
-0.421953
-0.427818
-0.433536
-0.438711
-0.44284
-0.445324
-0.44528
-0.442149
-0.435244
-0.424156
-0.40901
-0.378039
-0.380058
-0.380959
-0.381574
-0.38221
-0.383067
-0.384304
-0.385999
-0.388176
-0.390829
-0.393934
-0.397451
-0.40132
-0.405448
-0.4097
-0.413875
-0.417698
-0.420806
-0.422756
-0.423126
-0.420854
-0.415837
-0.407455
-0.395414
-0.38023
-0.372347
-0.374677
-0.375701
-0.376363
-0.376974
-0.377723
-0.378756
-0.38014
-0.381887
-0.383975
-0.386365
-0.388997
-0.391793
-0.394643
-0.397399
-0.399859
-0.401756
-0.402753
-0.402433
-0.400206
-0.396056
-0.389101
-0.379134
-0.365974
-0.350482
-0.366787
-0.369399
-0.370534
-0.371239
-0.371823
-0.372463
-0.373294
-0.374371
-0.375691
-0.377219
-0.378897
-0.380649
-0.382377
-0.383955
-0.385222
-0.385972
-0.385948
-0.384843
-0.382293
-0.377885
-0.37142
-0.362449
-0.350838
-0.336458
-0.320422
-0.361408
-0.364273
-0.365508
-0.366249
-0.366807
-0.367341
-0.367975
-0.368752
-0.369655
-0.370634
-0.371615
-0.372504
-0.373185
-0.373515
-0.373322
-0.372398
-0.370497
-0.367338
-0.362614
-0.356016
-0.347339
-0.336373
-0.323125
-0.307514
-0.290745
-0.356257
-0.359343
-0.360666
-0.36144
-0.361972
-0.362405
-0.362851
-0.363339
-0.363839
-0.364287
-0.364594
-0.364647
-0.364314
-0.363438
-0.361838
-0.359302
-0.355596
-0.35047
-0.343666
-0.334956
-0.324194
-0.311325
-0.296523
-0.279771
-0.26213
-0.351374
-0.354651
-0.356051
-0.356855
-0.357361
-0.357699
-0.357967
-0.358179
-0.358295
-0.358236
-0.357896
-0.357149
-0.355848
-0.353823
-0.350883
-0.346819
-0.34141
-0.334432
-0.325683
-0.315001
-0.302321
-0.287702
-0.271486
-0.253787
-0.235173
-0.346799
-0.350235
-0.3517
-0.352529
-0.353012
-0.353262
-0.353362
-0.353315
-0.353067
-0.352527
-0.351575
-0.350071
-0.347855
-0.344747
-0.34055
-0.335059
-0.328066
-0.31938
-0.308845
-0.296375
-0.281981
-0.265818
-0.248376
-0.230006
-0.210339
-0.342562
-0.346127
-0.347646
-0.348496
-0.348958
-0.349125
-0.34907
-0.348781
-0.348192
-0.3472
-0.345673
-0.34346
-0.340388
-0.336269
-0.330907
-0.3241
-0.315659
-0.305423
-0.293287
-0.279234
-0.263357
-0.245896
-0.227444
-0.208735
-0.187966
-0.338691
-0.342355
-0.343918
-0.344785
-0.345226
-0.345318
-0.345118
-0.344605
-0.343699
-0.342285
-0.340223
-0.337349
-0.333483
-0.328433
-0.322001
-0.313995
-0.304247
-0.292629
-0.279087
-0.263668
-0.246554
-0.228067
-0.208839
-0.190167
-0.168484
-0.33521
-0.338945
-0.34054
-0.341419
-0.341839
-0.341861
-0.341529
-0.340808
-0.339608
-0.337805
-0.335247
-0.331763
-0.327168
-0.321265
-0.313861
-0.304776
-0.293862
-0.281031
-0.266276
-0.249712
-0.2316
-0.212366
-0.192601
-0.174372
-0.152336
-0.332137
-0.335914
-0.337529
-0.338415
-0.338815
-0.338773
-0.338319
-0.337406
-0.335936
-0.333774
-0.330761
-0.326719
-0.321457
-0.314781
-0.306502
-0.296454
-0.284515
-0.270634
-0.254856
-0.237356
-0.218474
-0.198752
-0.17862
-0.1608
-0.139197
-0.329486
-0.333277
-0.334901
-0.335788
-0.336166
-0.336064
-0.335498
-0.334411
-0.332693
-0.330203
-0.326775
-0.322225
-0.316361
-0.308989
-0.299928
-0.289031
-0.276202
-0.261426
-0.244801
-0.226565
-0.207119
-0.187154
-0.166879
-0.149677
-0.128465
-0.327265
-0.331043
-0.332665
-0.333547
-0.333901
-0.333743
-0.333074
-0.331827
-0.329885
-0.327098
-0.323294
-0.318286
-0.311881
-0.303889
-0.29414
-0.282502
-0.268908
-0.253384
-0.236078
-0.21729
-0.197462
-0.177445
-0.157188
-0.140921
-0.12
-0.325481
-0.329218
-0.330825
-0.331695
-0.332024
-0.331811
-0.331049
-0.329658
-0.327513
-0.324459
-0.320319
-0.314903
-0.308018
-0.299479
-0.289129
-0.276856
-0.26262
-0.246487
-0.228653
-0.20948
-0.189432
-0.169571
-0.149404
-0.13434
-0.113646
-0.324132
-0.327803
-0.329382
-0.330232
-0.330532
-0.330269
-0.32942
-0.3279
-0.325575
-0.322283
-0.317845
-0.31207
-0.304765
-0.295753
-0.284888
-0.272079
-0.257317
-0.240706
-0.222488
-0.203085
-0.182973
-0.163451
-0.143441
-0.129769
-0.109268
-0.323217
-0.326793
-0.328331
-0.329154
-0.329422
-0.329108
-0.328182
-0.326546
-0.324062
-0.320563
-0.315866
-0.309778
-0.302112
-0.292698
-0.281401
-0.268154
-0.252976
-0.236011
-0.217543
-0.198062
-0.17802
-0.159001
-0.13923
-0.127033
-0.106786
-0.322727
-0.32618
-0.327665
-0.328451
-0.328682
-0.32832
-0.327323
-0.325586
-0.322963
-0.319285
-0.314365
-0.308012
-0.300042
-0.290292
-0.278644
-0.26505
-0.249562
-0.23236
-0.213772
-0.194351
-0.174506
-0.156113
-0.136697
-0.1259
-0.106125
-0.322651
-0.325953
-0.32737
-0.328109
-0.328299
-0.327889
-0.326827
-0.325
-0.322259
-0.318428
-0.313321
-0.306748
-0.298527
-0.288505
-0.27658
-0.262726
-0.247024
-0.229695
-0.211105
-0.191866
-0.172339
-0.154643
-0.135747
-0.12609
-0.107149
-0.322973
-0.326096
-0.32743
-0.328112
-0.328253
-0.327794
-0.326672
-0.324767
-0.321924
-0.317967
-0.312705
-0.305951
-0.297527
-0.287291
-0.275156
-0.261119
-0.245293
-0.227936
-0.209446
-0.190493
-0.171396
-0.154403
-0.136227
-0.127314
-0.109608
-0.323672
-0.326588
-0.327824
-0.328438
-0.328523
-0.328013
-0.326833
-0.324858
-0.321929
-0.317864
-0.312476
-0.305575
-0.296992
-0.286592
-0.274305
-0.260152
-0.244278
-0.226975
-0.208676
-0.190088
-0.171517
-0.155182
-0.137909
-0.129317
-0.113142
-0.324727
-0.327409
-0.32853
-0.329063
-0.329083
-0.328515
-0.327277
-0.325238
-0.322233
-0.318079
-0.312586
-0.305567
-0.296857
-0.286333
-0.273941
-0.259729
-0.243869
-0.22669
-0.208654
-0.190486
-0.172509
-0.15676
-0.140505
-0.131889
-0.117347
-0.326111
-0.328534
-0.329524
-0.32996
-0.329902
-0.329269
-0.327971
-0.325869
-0.322794
-0.31856
-0.312978
-0.305861
-0.297049
-0.286432
-0.273973
-0.259743
-0.243948
-0.226946
-0.209227
-0.19151
-0.174163
-0.158924
-0.143695
-0.134845
-0.121839
-0.327798
-0.329937
-0.330778
-0.331102
-0.330952
-0.330242
-0.328876
-0.326707
-0.323563
-0.319255
-0.313591
-0.306388
-0.297492
-0.286802
-0.274302
-0.260087
-0.244393
-0.227607
-0.210238
-0.192984
-0.176264
-0.161469
-0.147172
-0.138005
-0.126299
-0.329758
-0.331591
-0.332266
-0.332459
-0.332201
-0.331403
-0.329954
-0.32771
-0.324491
-0.320108
-0.314364
-0.307079
-0.298106
-0.287356
-0.274832
-0.260654
-0.245087
-0.228541
-0.211538
-0.19474
-0.178607
-0.164197
-0.150674
-0.141185
-0.130477
-0.331962
-0.333472
-0.333963
-0.334006
-0.333619
-0.33271
-0.331166
-0.328834
-0.325531
-0.321064
-0.315236
-0.307868
-0.298819
-0.288013
-0.275474
-0.261348
-0.245923
-0.229626
-0.212987
-0.196621
-0.18101
-0.166928
-0.153997
-0.144209
-0.13418
-0.334385
-0.335555
-0.335843
-0.335715
-0.335178
-0.334138
-0.332478
-0.33004
-0.326639
-0.322075
-0.316153
-0.308694
-0.299565
-0.288703
-0.276152
-0.262082
-0.246804
-0.230755
-0.214461
-0.198488
-0.183321
-0.169509
-0.156995
-0.146925
-0.137286
-0.337002
-0.33782
-0.337887
-0.337566
-0.336853
-0.335659
-0.333861
-0.331296
-0.327777
-0.323101
-0.317071
-0.30951
-0.300291
-0.289368
-0.276801
-0.262785
-0.247648
-0.231831
-0.215852
-0.200225
-0.185419
-0.171822
-0.15958
-0.149225
-0.139757
-0.339791
-0.340247
-0.340077
-0.33954
-0.338627
-0.337252
-0.335291
-0.332577
-0.328919
-0.324113
-0.317957
-0.310278
-0.300958
-0.289961
-0.277369
-0.263396
-0.248385
-0.232777
-0.217071
-0.201738
-0.187218
-0.173788
-0.161705
-0.151075
-0.141701
-0.342737
-0.342825
-0.342401
-0.341625
-0.340486
-0.338904
-0.336754
-0.333867
-0.330048
-0.32509
-0.31879
-0.310976
-0.301535
-0.290448
-0.277815
-0.263867
-0.248959
-0.233527
-0.218052
-0.202961
-0.188663
-0.175364
-0.163354
-0.152519
-0.143261
-0.34583
-0.345545
-0.344851
-0.343814
-0.342425
-0.34061
-0.338244
-0.335159
-0.331157
-0.326025
-0.319559
-0.311587
-0.302005
-0.290805
-0.278106
-0.264158
-0.249324
-0.234034
-0.218747
-0.203853
-0.189726
-0.176528
-0.16454
-0.153603
-0.144054
-0.349065
-0.348403
-0.347425
-0.346107
-0.344443
-0.34237
-0.339765
-0.336458
-0.332249
-0.32692
-0.320263
-0.312108
-0.302354
-0.291012
-0.278219
-0.264241
-0.249448
-0.234266
-0.219128
-0.204394
-0.190402
-0.177281
-0.165301
-0.154264
-0.144485
-0.352443
-0.351402
-0.350125
-0.348508
-0.346547
-0.344194
-0.341326
-0.337776
-0.333336
-0.327784
-0.320908
-0.312536
-0.302577
-0.291058
-0.278135
-0.264094
-0.249312
-0.234204
-0.219184
-0.20458
-0.1907
-0.177642
-0.165664
-0.154536
-0.144614
-0.355971
-0.354547
-0.352961
-0.351027
-0.348751
-0.346097
-0.342947
-0.33913
-0.334434
-0.328631
-0.321501
-0.312873
-0.302669
-0.290932
-0.277843
-0.263705
-0.248904
-0.233845
-0.218918
-0.204423
-0.190636
-0.177634
-0.16566
-0.154458
-0.144426
-0.359662
-0.357849
-0.355942
-0.353678
-0.351071
-0.348099
-0.344647
-0.340542
-0.335564
-0.329476
-0.322051
-0.313123
-0.302626
-0.290627
-0.277334
-0.26307
-0.248225
-0.233194
-0.218341
-0.20394
-0.190236
-0.177286
-0.165319
-0.154056
-0.143951
-0.36353
-0.361322
-0.359085
-0.356479
-0.353528
-0.350224
-0.346452
-0.342036
-0.336745
-0.330332
-0.322565
-0.313285
-0.302444
-0.290139
-0.276608
-0.262191
-0.247282
-0.232263
-0.217471
-0.203153
-0.189524
-0.176624
-0.164668
-0.153361
-0.143201
-0.367593
-0.364981
-0.362405
-0.359448
-0.356144
-0.352494
-0.348386
-0.343633
-0.337994
-0.331209
-0.323047
-0.313357
-0.302119
-0.289466
-0.275664
-0.261074
-0.246087
-0.231068
-0.216327
-0.202084
-0.188523
-0.175674
-0.163732
-0.152394
-0.142197
-0.371871
-0.368842
-0.36592
-0.362605
-0.358939
-0.354934
-0.35047
-0.345351
-0.339322
-0.332113
-0.323494
-0.313334
-0.301648
-0.288606
-0.274509
-0.25973
-0.244655
-0.229629
-0.21493
-0.200754
-0.187256
-0.174456
-0.162531
-0.151176
-0.140953
-0.376382
-0.372921
-0.369647
-0.36597
-0.361935
-0.357562
-0.352722
-0.347203
-0.340736
-0.333042
-0.323901
-0.313209
-0.301025
-0.287561
-0.273149
-0.258171
-0.243002
-0.227961
-0.213298
-0.199181
-0.185741
-0.17299
-0.161083
-0.149723
-0.139484
-0.381141
-0.377233
-0.373602
-0.369558
-0.365149
-0.360395
-0.355155
-0.349195
-0.342233
-0.333988
-0.324255
-0.312973
-0.300245
-0.286333
-0.271592
-0.256409
-0.241141
-0.226081
-0.211447
-0.197382
-0.183995
-0.17129
-0.159403
-0.148048
-0.137802
-0.386163
-0.381789
-0.377796
-0.373383
-0.368594
-0.363444
-0.357772
-0.351325
-0.343805
-0.334935
-0.324542
-0.312612
-0.299304
-0.284923
-0.269846
-0.254455
-0.239086
-0.224001
-0.209389
-0.19537
-0.182029
-0.169369
-0.157504
-0.146163
-0.135917
-0.391455
-0.386599
-0.382238
-0.377455
-0.372278
-0.366712
-0.360572
-0.353581
-0.345433
-0.335864
-0.324743
-0.312114
-0.298196
-0.283333
-0.267917
-0.252319
-0.236846
-0.221731
-0.207134
-0.193153
-0.179854
-0.167237
-0.155395
-0.144076
-0.133836
-0.397022
-0.391665
-0.386934
-0.381777
-0.376202
-0.370196
-0.363544
-0.355946
-0.347093
-0.336749
-0.324835
-0.311465
-0.296916
-0.281566
-0.265811
-0.250006
-0.234428
-0.219278
-0.204689
-0.190739
-0.177478
-0.164902
-0.153084
-0.141797
-0.131566
-0.402861
-0.396986
-0.391884
-0.386349
-0.380362
-0.373885
-0.366668
-0.358392
-0.348754
-0.337559
-0.324796
-0.31065
-0.295457
-0.279619
-0.26353
-0.24752
-0.231835
-0.216645
-0.202058
-0.188133
-0.174906
-0.16237
-0.150579
-0.139329
-0.129114
-0.408962
-0.402556
-0.39708
-0.391163
-0.384746
-0.37776
-0.369918
-0.360886
-0.35038
-0.338262
-0.3246
-0.309655
-0.293812
-0.277491
-0.261074
-0.244862
-0.229068
-0.213834
-0.199242
-0.185338
-0.172141
-0.159644
-0.147884
-0.136679
-0.126484
-0.41531
-0.408362
-0.402512
-0.396206
-0.389335
-0.381794
-0.373258
-0.363386
-0.35193
-0.338824
-0.324224
-0.308464
-0.291973
-0.275178
-0.25844
-0.242029
-0.226126
-0.210843
-0.196242
-0.182354
-0.169186
-0.156729
-0.145002
-0.133849
-0.12368
-0.421882
-0.414385
-0.40816
-0.401455
-0.394103
-0.385952
-0.376645
-0.365846
-0.35336
-0.339209
-0.32364
-0.307061
-0.289931
-0.272673
-0.255622
-0.239016
-0.223003
-0.207669
-0.193056
-0.179181
-0.166042
-0.153626
-0.141936
-0.130842
-0.120704
-0.428647
-0.420598
-0.413999
-0.406884
-0.399013
-0.39019
-0.380028
-0.368214
-0.354624
-0.33938
-0.322825
-0.305429
-0.287673
-0.269966
-0.252614
-0.235817
-0.219695
-0.204308
-0.189681
-0.175818
-0.162709
-0.150336
-0.138689
-0.127661
-0.117559
-0.435566
-0.426969
-0.419998
-0.412455
-0.404023
-0.394456
-0.383352
-0.370436
-0.355675
-0.339301
-0.321754
-0.303552
-0.285187
-0.267048
-0.249404
-0.232423
-0.216193
-0.200753
-0.186112
-0.172262
-0.159185
-0.146859
-0.135261
-0.124307
-0.114246
-0.442596
-0.433457
-0.426114
-0.418125
-0.40908
-0.398693
-0.386556
-0.372454
-0.356465
-0.338938
-0.3204
-0.301411
-0.282459
-0.263905
-0.245983
-0.228824
-0.21249
-0.196999
-0.182345
-0.168511
-0.155469
-0.143195
-0.131653
-0.12078
-0.110767
-0.449683
-0.440015
-0.432302
-0.42384
-0.414127
-0.402835
-0.389573
-0.374211
-0.356948
-0.338256
-0.31874
-0.298988
-0.279474
-0.260525
-0.242337
-0.225009
-0.208576
-0.193037
-0.178375
-0.16456
-0.15156
-0.139342
-0.127864
-0.117081
-0.107122
-0.456767
-0.446589
-0.438505
-0.42954
-0.419095
-0.406812
-0.392337
-0.375646
-0.357077
-0.337221
-0.316749
-0.296263
-0.276213
-0.256891
-0.238453
-0.220965
-0.20444
-0.18886
-0.174194
-0.160405
-0.147453
-0.135299
-0.123895
-0.113209
-0.103313
-0.463782
-0.453116
-0.444659
-0.435158
-0.423911
-0.410549
-0.394777
-0.376701
-0.356808
-0.335801
-0.314402
-0.293215
-0.272661
-0.252988
-0.234316
-0.216681
-0.200073
-0.18446
-0.169799
-0.156043
-0.143146
-0.131066
-0.119745
-0.109165
-0.0993403
-0.470654
-0.459528
-0.450696
-0.440618
-0.428497
-0.413967
-0.396823
-0.377321
-0.356099
-0.333963
-0.311675
-0.289825
-0.268798
-0.248799
-0.229912
-0.212144
-0.195465
-0.179829
-0.165181
-0.151468
-0.138638
-0.126639
-0.115413
-0.104948
-0.0952037
-0.477303
-0.465748
-0.456536
-0.445838
-0.432767
-0.416986
-0.398405
-0.377448
-0.354907
-0.331677
-0.308543
-0.286072
-0.264606
-0.244308
-0.225225
-0.207341
-0.190605
-0.174957
-0.160336
-0.146677
-0.133923
-0.122018
-0.110898
-0.100558
-0.0909041
-0.483644
-0.471697
-0.462098
-0.450732
-0.436636
-0.419525
-0.399454
-0.377032
-0.353195
-0.328914
-0.304982
-0.281934
-0.260066
-0.239497
-0.220242
-0.202259
-0.185482
-0.169839
-0.155256
-0.141665
-0.129001
-0.1172
-0.1062
-0.0959935
-0.0864421
-0.489588
-0.477286
-0.467291
-0.455208
-0.440012
-0.421502
-0.399906
-0.376021
-0.350924
-0.325645
-0.300969
-0.277392
-0.255159
-0.234351
-0.214948
-0.196888
-0.180088
-0.164465
-0.149938
-0.136428
-0.123867
-0.112184
-0.101317
-0.0912551
-0.0818186
-0.49504
-0.482425
-0.472024
-0.459171
-0.442806
-0.42284
-0.399696
-0.374369
-0.348061
-0.321842
-0.296481
-0.272424
-0.249869
-0.228853
-0.20933
-0.191216
-0.174414
-0.15883
-0.144374
-0.130963
-0.11852
-0.106969
-0.0962496
-0.0863423
-0.0770344
-0.499904
-0.48702
-0.476199
-0.462527
-0.444928
-0.423462
-0.398766
-0.372031
-0.344572
-0.317482
-0.291496
-0.267012
-0.244176
-0.222988
-0.203374
-0.185231
-0.16845
-0.152926
-0.138561
-0.125265
-0.112956
-0.101554
-0.0909967
-0.0812553
-0.0720912
-0.504082
-0.490973
-0.47972
-0.465178
-0.446291
-0.423294
-0.397061
-0.368969
-0.340427
-0.312537
-0.285993
-0.261136
-0.238064
-0.216742
-0.197069
-0.178926
-0.16219
-0.146748
-0.132495
-0.119333
-0.107176
-0.0959381
-0.0855585
-0.0759957
-0.0669925
-0.507475
-0.494187
-0.482487
-0.467029
-0.44681
-0.422271
-0.39453
-0.365145
-0.3356
-0.306987
-0.279953
-0.25478
-0.23152
-0.210102
-0.190404
-0.17229
-0.155627
-0.140291
-0.126171
-0.113164
-0.101177
-0.0901203
-0.079935
-0.0705657
-0.061745
-0.509985
-0.496565
-0.484402
-0.467989
-0.446405
-0.420329
-0.391127
-0.360526
-0.330063
-0.300811
-0.273357
-0.247927
-0.224527
-0.203056
-0.183369
-0.165316
-0.148754
-0.133551
-0.119587
-0.106756
-0.0949576
-0.0841002
-0.0741253
-0.0649663
-0.0563542
-0.511516
-0.49801
-0.485372
-0.467969
-0.445003
-0.417411
-0.386812
-0.355082
-0.323796
-0.293989
-0.266189
-0.240563
-0.217075
-0.195594
-0.175956
-0.157999
-0.141568
-0.126524
-0.112742
-0.100108
-0.0885187
-0.077878
-0.0681294
-0.0591941
-0.0508074
-0.511975
-0.498429
-0.485304
-0.466884
-0.442534
-0.413466
-0.38155
-0.348789
-0.316778
-0.286506
-0.258434
-0.232675
-0.209152
-0.187707
-0.168159
-0.150332
-0.134064
-0.119209
-0.105633
-0.0932199
-0.0818604
-0.071455
-0.0619498
-0.0532455
-0.0450624
-0.511274
-0.497733
-0.484111
-0.46466
-0.438937
-0.408452
-0.375309
-0.341625
-0.308993
-0.278346
-0.250081
-0.224254
-0.200751
-0.179389
-0.159972
-0.142313
-0.126241
-0.111604
-0.0982616
-0.0860931
-0.0749841
-0.064833
-0.0555883
-0.0471294
-0.0390989
-0.50933
-0.495837
-0.481714
-0.461225
-0.43416
-0.40233
-0.368066
-0.333572
-0.300428
-0.2695
-0.241119
-0.21529
-0.191863
-0.170634
-0.151392
-0.133939
-0.118098
-0.103709
-0.0906281
-0.0787289
-0.0678924
-0.0580149
-0.0490429
-0.0408566
-0.0330252
-0.506065
-0.492665
-0.478039
-0.456519
-0.428157
-0.39507
-0.3598
-0.324618
-0.291072
-0.259959
-0.231542
-0.205778
-0.182485
-0.161439
-0.142417
-0.12521
-0.109635
-0.0955258
-0.0827347
-0.0711301
-0.0605892
-0.0510095
-0.0423438
-0.0343924
-0.0268578
-0.501412
-0.488147
-0.47302
-0.450488
-0.42089
-0.38665
-0.350499
-0.314754
-0.280918
-0.249716
-0.221345
-0.195715
-0.172615
-0.151804
-0.133046
-0.116126
-0.100854
-0.0870568
-0.0745849
-0.063301
-0.0530785
-0.0438187
-0.0354702
-0.0277803
-0.0205681
-0.49531
-0.482219
-0.466603
-0.443089
-0.412331
-0.377053
-0.340153
-0.303975
-0.269964
-0.23877
-0.210526
-0.185099
-0.162252
-0.141728
-0.123282
-0.106691
-0.091758
-0.0783071
-0.0661824
-0.0552449
-0.0453648
-0.0364459
-0.0284295
-0.0210255
-0.0141478
-0.487706
-0.474831
-0.45874
-0.434288
-0.402461
-0.36627
-0.328761
-0.292281
-0.25821
-0.227121
-0.199086
-0.173932
-0.151398
-0.131215
-0.113128
-0.0969099
-0.0823527
-0.0692801
-0.0575326
-0.0469678
-0.0374536
-0.0288964
-0.0212291
-0.0141307
-0.0075997
-0.47856
-0.465938
-0.449395
-0.42406
-0.391267
-0.3543
-0.316324
-0.279676
-0.245661
-0.214774
-0.187029
-0.162217
-0.14006
-0.120273
-0.102593
-0.0867859
-0.0726433
-0.0599826
-0.048642
-0.0384761
-0.0293513
-0.0211766
-0.0138762
-0.00709932
-0.000929829
-0.467839
-0.455508
-0.438542
-0.412392
-0.378747
-0.341146
-0.302851
-0.266169
-0.232324
-0.201735
-0.174361
-0.149961
-0.128246
-0.108906
-0.0916802
-0.0763282
-0.0626376
-0.0504223
-0.0395182
-0.0297774
-0.0210653
-0.013294
-0.0063779
6.31007e-05
0.00585467
-0.455523
-0.443518
-0.426165
-0.399278
-0.364907
-0.326821
-0.288355
-0.251772
-0.218211
-0.188015
-0.161094
-0.137181
-0.115961
-0.0971247
-0.080401
-0.0655461
-0.0523449
-0.0406082
-0.0301701
-0.0208804
-0.012604
-0.0052566
0.00125833
0.00734953
0.0127462
-0.441601
-0.429958
-0.41226
-0.384725
-0.349759
-0.311342
-0.272855
-0.236504
-0.203338
-0.17363
-0.147244
-0.123883
-0.10322
-0.0849404
-0.0687663
-0.0544507
-0.0417759
-0.0305508
-0.0206076
-0.0117946
-0.00397679
0.00292653
0.00902408
0.0147518
0.0197368
-0.426073
-0.414826
-0.396833
-0.368747
-0.333327
-0.294733
-0.256375
-0.220385
-0.187725
-0.158597
-0.132823
-0.110083
-0.0900372
-0.0723672
-0.0567895
-0.0430546
-0.0309428
-0.0202616
-0.010842
-0.00253086
0.00480602
0.0112456
0.0169101
0.0222608
0.0268178
-0.408951
-0.398132
-0.379899
-0.351367
-0.315638
-0.277027
-0.238944
-0.203442
-0.171395
-0.142937
-0.117852
-0.0957993
-0.0764304
-0.0594214
-0.0444859
-0.0313721
-0.0198592
-0.00975364
-0.000885574
0.00689911
0.0137332
0.01969
0.0249064
0.0298664
0.0339801
-0.390255
-0.379897
-0.361485
-0.332619
-0.29673
-0.25826
-0.220595
-0.185703
-0.154374
-0.126674
-0.102353
-0.0810534
-0.0624185
-0.046121
-0.0318723
-0.0194192
-0.00854012
0.000958963
0.0092483
0.0164825
0.0227924
0.0282481
0.0330018
0.0375578
0.0412137
-0.37002
-0.360152
-0.341626
-0.312543
-0.27665
-0.238473
-0.201361
-0.167206
-0.136693
-0.109836
-0.0863513
-0.0658684
-0.0480232
-0.0324862
-0.0189676
-0.00721345
0.00299807
0.0118608
0.0195451
0.0262056
0.0319707
0.0369076
0.0411847
0.0453232
0.0485079
-0.348286
-0.338936
-0.320368
-0.291194
-0.255448
-0.217701
-0.181293
-0.147986
-0.118387
-0.0924544
-0.069876
-0.0502702
-0.0332683
-0.0185391
-0.00579219
0.00522622
0.0147377
0.0229354
0.0299893
0.0360538
0.0412541
0.0456552
0.0494424
0.0531498
0.0558508
-0.325103
-0.316301
-0.297768
-0.268639
-0.233162
-0.196002
-0.160433
-0.128087
-0.0994934
-0.0745623
-0.0529574
-0.0342873
-0.01818
-0.0043037
0.00763174
0.0178793
0.0266597
0.034165
0.0405645
0.0460114
0.0506276
0.054477
0.0577615
0.0610237
0.0632295
-0.30053
-0.292309
-0.273895
-0.244945
-0.209823
-0.173446
-0.138834
-0.107553
-0.0800526
-0.056197
-0.0356292
-0.0179502
-0.00278619
0.0101943
0.0212805
0.0307241
0.0387441
0.0455311
0.0512533
0.0560621
0.0600758
0.0633582
0.0661274
0.0689289
0.070629
-0.274631
-0.267033
-0.248822
-0.220078
-0.185597
-0.150089
-0.11655
-0.0864336
-0.0601087
-0.0373981
-0.0179274
-0.00129182
0.012883
0.0249275
0.035129
0.0437374
0.0509695
0.0570142
0.0620375
0.0661889
0.0695825
0.0722832
0.0745243
0.0768467
0.0780286
-0.247481
-0.240553
-0.222609
-0.194193
-0.160497
-0.125995
-0.0936418
-0.0647816
-0.0397086
-0.0182079
0.000109787
0.015653
0.0287959
0.0398667
0.0491506
0.0568949
0.0633138
0.0685936
0.0728985
0.0763745
0.0791312
0.0812364
0.0829365
0.0847569
0.0854011
-0.219154
-0.212956
-0.195267
-0.167445
-0.134604
-0.101232
-0.0701702
-0.0426518
-0.0189017
0.00132899
0.0184417
0.0328475
0.0449188
0.0549814
0.0633174
0.0701711
0.0757537
0.0802483
0.0838167
0.0866008
0.0887048
0.090202
0.0913505
0.0926443
0.0927292
-0.189721
-0.184339
-0.166993
-0.139857
-0.107999
-0.0758743
-0.0461999
-0.0201021
0.00226017
0.0211657
0.037026
0.0502529
0.0612166
0.0702396
0.0776004
0.0835396
0.0882649
0.0919564
0.0947724
0.096849
0.0982849
0.0991639
0.0997554
0.1005
0.100007
-0.159295
-0.154812
-0.137886
-0.111517
-0.0807654
-0.0499961
-0.0217981
0.00280746
0.0237227
0.0412532
0.0558183
0.0678291
0.0776529
0.0856081
0.0919693
0.096973
0.100823
0.103695
0.105745
0.1071
0.107854
0.108108
0.108141
0.108291
0.107144
-0.128134
-0.124361
-0.108022
-0.082523
-0.0529905
-0.0236759
0.00296534
0.0260143
0.0454298
0.0615409
0.0747725
0.0855344
0.0941897
0.101052
0.106393
0.110443
0.113402
0.115442
0.116714
0.117335
0.117397
0.11703
0.116493
0.115909
0.113845
-0.0962301
-0.093162
-0.0774984
-0.0529731
-0.024764
0.00300598
0.0280186
0.049454
0.0673234
0.0819763
0.0938413
0.103326
0.110788
0.116537
0.120839
0.12392
0.125975
0.127173
0.127657
0.127536
0.126906
0.125932
0.124791
0.123214
0.119889
-0.0636721
-0.0613517
-0.0464242
-0.0229686
0.00382183
0.0299669
0.053288
0.0730603
0.089344
0.102506
0.112976
0.121159
0.127408
0.132026
0.135274
0.137374
0.138516
0.138863
0.138553
0.137686
0.136374
0.13481
0.133003
0.130256
0.125918
-0.0305857
-0.0290445
-0.0149105
0.00738683
0.0326728
0.0571227
0.078698
0.0967658
0.111431
0.123074
0.132126
0.138989
0.144008
0.147482
0.149666
0.150775
0.150997
0.150488
0.149379
0.147768
0.145784
0.143621
0.141074
0.137219
0.133928
0.00290418
0.00364311
0.0169285
0.0379874
0.0616932
0.0843876
0.104172
0.120502
0.133521
0.143624
0.151242
0.156769
0.160547
0.162867
0.163979
0.164092
0.163389
0.162021
0.160112
0.15776
0.155107
0.152311
0.149023
0.144533
0.14187
0.0366727
0.036592
0.0489768
0.0687259
0.0907864
0.111675
0.129633
0.144198
0.155553
0.164101
0.170272
0.174454
0.176983
0.178143
0.178178
0.177294
0.175664
0.173437
0.17073
0.167642
0.164318
0.160873
0.156908
0.151987
0.14936
0.0705938
0.0696806
0.0811176
0.0994946
0.119855
0.138898
0.155002
0.167785
0.177463
0.184447
0.189164
0.191996
0.193272
0.193271
0.19223
0.190347
0.187792
0.184708
0.181207
0.177389
0.173393
0.1693
0.16472
0.159428
0.156573
0.10454
0.102786
0.113233
0.130185
0.148801
0.165968
0.180201
0.191192
0.199187
0.204603
0.207865
0.209348
0.209373
0.208213
0.206098
0.203221
0.199746
0.195809
0.19152
0.186977
0.182311
0.17758
0.172424
0.166746
0.16353
0.138385
0.135784
0.145206
0.160689
0.177527
0.192799
0.205151
0.214347
0.220661
0.224513
0.226324
0.226462
0.225242
0.222929
0.219747
0.215882
0.211494
0.206713
0.201644
0.196383
0.191053
0.185697
0.179986
0.173903
0.170255
0.172001
0.168552
0.176919
0.190899
0.205937
0.219304
0.229775
0.237182
0.241821
0.244119
0.244488
0.243292
0.240836
0.237381
0.233142
0.2283
0.223009
0.217394
0.211555
0.205584
0.199598
0.19363
0.187377
0.180874
0.176755
0.20526
0.200966
0.208254
0.220709
0.233933
0.245395
0.253994
0.259624
0.262605
0.263362
0.262306
0.25979
0.256114
0.25153
0.246248
0.240443
0.234262
0.227824
0.221227
0.214559
0.207928
0.201359
0.194575
0.187643
0.183032
0.238037
0.232903
0.239098
0.250012
0.261421
0.270988
0.277732
0.281607
0.28295
0.282188
0.279726
0.275909
0.271032
0.265338
0.25903
0.252278
0.245223
0.237979
0.230638
0.223285
0.216021
0.208865
0.20156
0.194198
0.189083
0.270209
0.264244
0.269336
0.278705
0.288308
0.295999
0.300914
0.30306
0.302793
0.30054
0.296697
0.291605
0.28555
0.278767
0.271455
0.263775
0.255865
0.247832
0.239764
0.231742
0.223859
0.216129
0.208315
0.200526
0.194901
0.301652
0.294869
0.298857
0.306687
0.314501
0.320345
0.323465
0.323918
0.322075
0.318363
0.313171
0.306833
0.299626
0.291781
0.283488
0.274904
0.26616
0.257358
0.248582
0.239908
0.231422
0.223134
0.214824
0.206614
0.20048
0.332248
0.324663
0.327553
0.333857
0.339912
0.343946
0.345312
0.344114
0.340736
0.335603
0.329098
0.321547
0.31322
0.304342
0.295097
0.285635
0.276081
0.266533
0.25707
0.247763
0.238693
0.229864
0.221073
0.212452
0.205812
0.36188
0.353512
0.355316
0.36012
0.364453
0.366724
0.366386
0.363586
0.358719
0.352208
0.344431
0.335705
0.326295
0.316417
0.30625
0.295939
0.285602
0.275333
0.265206
0.255289
0.245653
0.236301
0.227047
0.218028
0.210888
0.390435
0.381307
0.382045
0.385383
0.388041
0.388603
0.386617
0.38227
0.375967
0.368128
0.359123
0.349266
0.338811
0.327971
0.316916
0.305787
0.294697
0.283735
0.27297
0.262465
0.252286
0.242431
0.232734
0.223329
0.215701
0.417805
0.407943
0.407642
0.409555
0.410594
0.409511
0.40594
0.400108
0.392427
0.383313
0.373132
0.362189
0.350733
0.33897
0.327066
0.315154
0.303342
0.291716
0.280341
0.269273
0.258575
0.24824
0.238119
0.228344
0.220241
0.443883
0.433317
0.43201
0.43255
0.432035
0.429376
0.424292
0.417042
0.408046
0.397716
0.386414
0.374436
0.362026
0.349384
0.33667
0.324012
0.311514
0.299256
0.2873
0.275698
0.264504
0.253713
0.243191
0.233063
0.224501
0.46857
0.457333
0.45506
0.454285
0.452289
0.448132
0.441612
0.433018
0.422775
0.411293
0.398928
0.385969
0.372656
0.359182
0.345701
0.332338
0.31919
0.306335
0.293828
0.28172
0.270059
0.258837
0.247936
0.237474
0.228472
0.491771
0.479898
0.476706
0.474684
0.471286
0.465717
0.457843
0.447983
0.436566
0.424001
0.410636
0.396755
0.382592
0.368335
0.354133
0.340106
0.326349
0.312932
0.299909
0.287326
0.275225
0.263598
0.252344
0.241567
0.232147
0.513397
0.500927
0.496867
0.493671
0.48896
0.482069
0.472931
0.461888
0.449377
0.4358
0.421501
0.406759
0.391804
0.376816
0.361942
0.347297
0.33297
0.319029
0.305526
0.2925
0.279989
0.267986
0.256404
0.245333
0.235518
0.533363
0.520337
0.515467
0.511179
0.505249
0.497133
0.486824
0.474689
0.461164
0.446651
0.431489
0.415952
0.400263
0.3846
0.369104
0.353887
0.339035
0.324611
0.310663
0.297228
0.284339
0.271989
0.260104
0.248761
0.238578
0.55159
0.538053
0.532436
0.527144
0.520095
0.510856
0.499477
0.486341
0.471889
0.456521
0.440568
0.424303
0.407943
0.391663
0.375599
0.359859
0.344526
0.32966
0.315306
0.301498
0.288263
0.275596
0.263436
0.251844
0.241321
0.568008
0.554005
0.54771
0.541506
0.533444
0.523192
0.510845
0.496806
0.481517
0.465375
0.44871
0.431787
0.414821
0.397983
0.381406
0.365195
0.349427
0.334162
0.319442
0.305297
0.291751
0.278798
0.26639
0.254574
0.243742
0.58255
0.568131
0.561229
0.554213
0.54525
0.534096
0.52089
0.506047
0.490015
0.473186
0.455886
0.438379
0.420875
0.403541
0.386508
0.369877
0.353724
0.338104
0.323058
0.308614
0.294792
0.281586
0.268958
0.256943
0.245835
0.595158
0.580373
0.57294
0.565216
0.555468
0.54353
0.529575
0.514034
0.497354
0.479927
0.462075
0.444058
0.426085
0.408319
0.390889
0.373892
0.357403
0.341475
0.326146
0.311441
0.297378
0.283952
0.271134
0.258945
0.247596
0.60578
0.590682
0.582798
0.574473
0.564061
0.551458
0.53687
0.520737
0.503508
0.485574
0.467253
0.448805
0.430434
0.412301
0.394534
0.377227
0.360453
0.344263
0.328694
0.313768
0.299501
0.28589
0.272911
0.260574
0.24902
0.614371
0.599013
0.590761
0.581947
0.570995
0.557851
0.542748
0.526132
0.508456
0.490107
0.471404
0.452603
0.433906
0.415474
0.397431
0.37987
0.362863
0.34646
0.330694
0.315588
0.301155
0.287392
0.274282
0.261826
0.250104
0.620893
0.605331
0.596797
0.587609
0.576242
0.562685
0.547185
0.530198
0.512177
0.493509
0.474511
0.455437
0.43649
0.417826
0.39957
0.381813
0.364626
0.348057
0.33214
0.316896
0.302334
0.288455
0.275244
0.262696
0.250847
0.625316
0.609606
0.600877
0.591432
0.57978
0.565937
0.550163
0.532919
0.514658
0.495768
0.476563
0.457298
0.438174
0.419348
0.400942
0.383048
0.365735
0.34905
0.333027
0.317685
0.303034
0.289073
0.275793
0.263183
0.25125
0.627617
0.611816
0.602981
0.593399
0.581593
0.567594
0.551669
0.534282
0.515887
0.496871
0.47755
0.458177
0.438952
0.420033
0.401542
0.383569
0.366184
0.349433
0.33335
0.317953
0.303251
0.289245
0.275926
0.263282
0.251303
0.62778
0.611947
0.603096
0.593496
0.581669
0.567645
0.551694
0.534279
0.515857
0.496813
0.477466
0.458067
0.438819
0.419877
0.401365
0.383373
0.36597
0.349204
0.333106
0.317696
0.302984
0.288968
0.275641
0.262988
0.251002
0.625798
0.609989
0.601213
0.591717
0.580001
0.566085
0.550231
0.532905
0.514562
0.49559
0.476307
0.456966
0.437771
0.418877
0.400409
0.382458
0.365092
0.34836