/*--------------------------------*- C++ -*----------------------------------*\
  =========                 |
  \\      /  F ield         | OpenFOAM: The Open Source CFD Toolbox
   \\    /   O peration     | Website:  https://openfoam.org
    \\  /    A nd           | Version:  7
     \\/     M anipulation  |
\*---------------------------------------------------------------------------*/
FoamFile
{
    version     2.0;
    format      ascii;
    class       surfaceScalarField;
    location    "155";
    object      phi;
}
// * * * * * * * * * * * * * * * * * * * * * * * * * * * * * * * * * * * * * //

dimensions      [0 3 -1 0 0 0 0];

internalField   nonuniform List<scalar> 
63130
(
-1.86001e-06
-0.000107255
0.000109115
-7.80543e-06
-0.000280247
0.000286192
-1.8262e-05
-0.000422793
0.00043325
-3.33871e-05
-0.000535808
0.000550933
-5.30776e-05
-0.000621989
0.00064168
-7.70381e-05
-0.000685546
0.000709506
-0.000104867
-0.000731452
0.000759281
-0.000136132
-0.000764628
0.000795893
-0.000170419
-0.000789141
0.000823428
-0.000207345
-0.000807599
0.000844525
-0.000246541
-0.000820824
0.000860021
-0.000287613
-0.000827804
0.000868876
-0.000330083
-0.00082584
0.00086831
-0.000373335
-0.000810769
0.000854021
-0.000416557
-0.000777187
0.000820409
-0.000458697
-0.000718621
0.000760761
-0.000498434
-0.000627697
0.000667434
-0.000534168
-0.000496373
0.000532107
-0.000564036
-0.000316315
0.000346183
-0.000585964
-7.9442e-05
0.00010137
-0.000597583
0.00022081
-0.000209191
-0.000596522
0.000589284
-0.000590345
-0.000580373
0.00102649
-0.00104264
-0.000547585
0.00152744
-0.00156023
0.00208326
-0.00213253
-0.000498316
-2.48335e-06
-0.000104772
-9.89718e-06
-0.000272833
-2.2391e-05
-0.000410299
-3.99073e-05
-0.000518291
-6.21959e-05
-0.000599701
-8.88841e-05
-0.000658857
-0.000119556
-0.000700781
-0.000153814
-0.00073037
-0.000191316
-0.00075164
-0.000231768
-0.000767147
-0.000274898
-0.000777694
-0.0003204
-0.000782303
-0.000367874
-0.000778366
-0.00041676
-0.000761883
-0.000466279
-0.000727669
-0.00051537
-0.000669529
-0.000562658
-0.000580409
-0.000606419
-0.000452612
-0.000644581
-0.000278153
-0.000674846
-4.9177e-05
-0.000694447
0.00024041
-0.000700752
0.00059559
-0.00069118
0.00101692
-0.00066399
0.00150025
0.00203911
-0.000619835
-3.07124e-06
-0.0001017
-1.18522e-05
-0.000264052
-2.6216e-05
-0.000395935
-4.58915e-05
-0.000498616
-7.04828e-05
-0.000575109
-9.95391e-05
-0.000629801
-0.000132624
-0.000667695
-0.000169368
-0.000693626
-0.000209485
-0.000711523
-0.000252753
-0.000723879
-0.000298976
-0.000731471
-0.000347919
-0.00073336
-0.00039924
-0.000727044
-0.000452425
-0.000708698
-0.000506714
-0.00067338
-0.000561042
-0.000615202
-0.000613979
-0.000527472
-0.000663697
-0.000402894
-0.00070794
-0.00023391
-0.000744163
-1.29541e-05
-0.000769286
0.000265533
-0.000780368
0.000606672
-0.000774604
0.00101115
-0.000749969
0.00147562
0.00199614
-0.000706998
-3.61664e-06
-9.80837e-05
-1.36501e-05
-0.000254019
-2.97022e-05
-0.000379883
-5.12923e-05
-0.000477026
-7.78814e-05
-0.00054852
-0.000108939
-0.000598744
-0.000144002
-0.000632632
-0.000182714
-0.000654913
-0.000224829
-0.000669409
-0.000270178
-0.000678529
-0.000318618
-0.000683031
-0.000369961
-0.000682017
-0.000423902
-0.000673102
-0.000479951
-0.000652649
-0.000537354
-0.000615977
-0.00059503
-0.000557527
-0.0006515
-0.000471001
-0.000704841
-0.000349553
-0.000752693
-0.000186059
-0.000791986
2.63395e-05
-0.00081979
0.000293337
-0.000832531
0.000619413
-0.000827162
0.00100578
-0.000801237
0.00144969
0.00194931
-0.000754406
-4.1141e-06
-9.39696e-05
-1.52759e-05
-0.000242857
-3.28253e-05
-0.000362334
-5.60791e-05
-0.000453772
-8.43585e-05
-0.000520241
-0.000117051
-0.000566052
-0.000153658
-0.000596025
-0.000193825
-0.000614747
-0.000237323
-0.00062591
-0.000284015
-0.000631837
-0.000333785
-0.000633262
-0.000386465
-0.000629337
-0.000441762
-0.000617805
-0.000499183
-0.000595228
-0.000557962
-0.000557198
-0.000616984
-0.000498504
-0.000674714
-0.000413271
-0.000729126
-0.000295141
-0.000777683
-0.000137502
-0.000817209
6.58655e-05
-0.000844292
0.00032042
-0.000855077
0.000630198
-0.000846079
0.000996784
-0.000814308
0.00141792
0.00189277
-0.000757776
-4.55977e-06
-8.94098e-05
-1.67196e-05
-0.000230697
-3.55708e-05
-0.000343483
-6.02371e-05
-0.000429106
-8.99038e-05
-0.000490574
-0.000123873
-0.000532082
-0.000161605
-0.000558293
-0.000202727
-0.000573625
-0.000247011
-0.000581625
-0.000294324
-0.000584524
-0.00034455
-0.000583036
-0.000397516
-0.000576372
-0.000452909
-0.000562412
-0.000510207
-0.00053793
-0.000568602
-0.000498803
-0.000626924
-0.000440182
-0.000683563
-0.000356632
-0.000736394
-0.00024231
-0.000782692
-9.12042e-05
-0.000819157
0.000102331
-0.000841966
0.000343229
-0.000846856
0.000635088
-0.000829799
0.000979726
-0.000787207
0.00137533
0.00182041
-0.000714845
-4.95137e-06
-8.44584e-05
-1.79761e-05
-0.000217672
-3.79337e-05
-0.000323525
-6.37657e-05
-0.000403274
-9.45265e-05
-0.000459813
-0.000129432
-0.000497177
-0.000167888
-0.000519837
-0.000209492
-0.000532022
-0.000253995
-0.000537122
-0.000301244
-0.000537276
-0.000351096
-0.000533183
-0.000403341
-0.000524126
-0.000457619
-0.000508134
-0.000513345
-0.000482203
-0.00056964
-0.000442508
-0.000625252
-0.000384571
-0.000678471
-0.000303413
-0.000727052
-0.000193729
-0.000768119
-5.0137e-05
-0.000798169
0.000132381
-0.000813053
0.000358112
-0.000808033
0.000630068
-0.000778391
0.000950085
-0.000720017
0.00131695
0.00172643
-0.000626038
-5.28798e-06
-7.91705e-05
-1.90447e-05
-0.000203916
-3.99165e-05
-0.000302653
-6.66761e-05
-0.000376514
-9.82523e-05
-0.000428237
-0.000133773
-0.000461656
-0.000172583
-0.000481027
-0.000214232
-0.000490373
-0.000258432
-0.000492922
-0.000304985
-0.000490723
-0.000353697
-0.000484471
-0.000404293
-0.00047353
-0.000456333
-0.000456094
-0.000509142
-0.000429395
-0.000561735
-0.000389915
-0.000612746
-0.00033356
-0.000660341
-0.000255817
-0.000702137
-0.000151933
-0.000735103
-1.71715e-05
-0.000755526
0.000152804
-0.000758968
0.000361555
-0.000740234
0.000611334
-0.000693781
0.000903632
-0.000615151
0.00123832
0.00160609
-0.000494809
-5.56985e-06
-7.36006e-05
-1.99278e-05
-0.000189558
-4.15281e-05
-0.000281053
-6.89882e-05
-0.000349054
-0.000101119
-0.000396107
-0.000136958
-0.000425817
-0.000175783
-0.000442202
-0.000217083
-0.000449072
-0.000260513
-0.000449492
-0.000305809
-0.000445427
-0.000352701
-0.000437579
-0.000400824
-0.000425408
-0.000449632
-0.000407286
-0.000498328
-0.000380699
-0.000545794
-0.000342449
-0.00059052
-0.000288835
-0.00063052
-0.000215816
-0.000663254
-0.0001192
-0.000685524
5.09889e-06
-0.000693427
0.000160707
-0.000682279
0.000350406
-0.000646523
0.000575578
-0.000579708
0.000836818
-0.000477256
0.00113587
0.00145657
-0.000327736
-5.79808e-06
-6.78025e-05
-2.06304e-05
-0.000174725
-4.27812e-05
-0.000258902
-7.07277e-05
-0.000321108
-0.00010317
-0.000363665
-0.000139058
-0.000389928
-0.000177595
-0.000403666
-0.000218199
-0.000408467
-0.000260452
-0.00040724
-0.000304006
-0.000401873
-0.000348497
-0.000393088
-0.000393447
-0.000380458
-0.000438183
-0.00036255
-0.000481762
-0.000337119
-0.000522908
-0.000301303
-0.000559941
-0.000251803
-0.000590701
-0.000185056
-0.000612472
-9.74292e-05
-0.000621891
1.45181e-05
-0.000614876
0.000153691
-0.000586556
0.000322086
-0.000531175
0.000520198
-0.000441393
0.000747036
-0.000312483
0.00100696
0.0012793
-0.000135212
-5.97432e-06
-6.18282e-05
-2.11589e-05
-0.000159541
-4.36906e-05
-0.00023637
-7.19224e-05
-0.000292876
-0.000104452
-0.000331134
-0.000140146
-0.000354235
-0.000178125
-0.000365687
-0.000217733
-0.00036886
-0.000258462
-0.00036651
-0.000299871
-0.000360464
-0.000341484
-0.000351475
-0.000382695
-0.000339246
-0.000422688
-0.000322558
-0.000460358
-0.000299449
-0.000494254
-0.000267407
-0.000522508
-0.000223548
-0.000542774
-0.00016479
-0.000552152
-8.80514e-05
-0.000547114
9.48025e-06
-0.000523429
0.000130007
-0.000476092
0.000274749
-0.000399337
0.000443442
-0.000285113
0.000632811
-0.000126666
0.000848516
0.00107111
8.15287e-05
-6.10041e-06
-5.57278e-05
-2.152e-05
-0.000144121
-4.42711e-05
-0.000213619
-7.2599e-05
-0.000264548
-0.00010501
-0.000298724
-0.000140286
-0.000318958
-0.00017747
-0.000328502
-0.000215821
-0.00033051
-0.000254738
-0.000327594
-0.000293673
-0.000321529
-0.000332028
-0.000313119
-0.000369063
-0.000302211
-0.000403806
-0.000287815
-0.000434985
-0.00026827
-0.000460965
-0.000241428
-0.000479688
-0.000204825
-0.000488618
-0.00015586
-0.000484674
-9.19946e-05
-0.000464179
-1.1015e-05
-0.000422793
8.86205e-05
-0.000355431
0.000207387
-0.000256482
0.000344493
-0.00011806
0.00049439
6.78694e-05
0.000662586
0.000826718
0.000312257
-6.17812e-06
-4.95497e-05
-2.17198e-05
-0.000128579
-4.45358e-05
-0.000190803
-7.27802e-05
-0.000236304
-0.000104877
-0.000266626
-0.000139532
-0.000284304
-0.000175708
-0.000292327
-0.000212574
-0.000293643
-0.000249433
-0.000290734
-0.000285625
-0.000285337
-0.000320425
-0.000278319
-0.000352952
-0.000269685
-0.000382078
-0.000258689
-0.000406362
-0.000243985
-0.00042399
-0.0002238
-0.00043272
-0.000196095
-0.000429835
-0.000158745
-0.000412096
-0.000109734
-0.000375698
-4.74131e-05
-0.000316239
2.91611e-05
-0.000228611
0.000119759
-0.00010729
0.000223172
5.50364e-05
0.000332063
0.000263322
0.000454301
0.000549141
0.000540898
-6.20893e-06
-4.33408e-05
-2.17631e-05
-0.000113025
-4.44944e-05
-0.000168072
-7.24822e-05
-0.000208316
-0.00010408
-0.000235029
-0.000137919
-0.000250464
-0.000172885
-0.000257361
-0.00020806
-0.000258468
-0.000242644
-0.00025615
-0.000275861
-0.00025212
-0.00030686
-0.00024732
-0.000334615
-0.00024193
-0.000357847
-0.000235457
-0.00037495
-0.000226882
-0.00038394
-0.00021481
-0.000382406
-0.000197629
-0.000367473
-0.000173678
-0.000335766
-0.00014144
-0.000283391
-9.97879e-05
-0.000205922
-4.83081e-05
-9.83033e-05
1.21407e-05
4.45544e-05
8.03145e-05
0.00023055
0.000146068
0.000460573
0.000224278
0.000243625
0.000766089
-6.19381e-06
-3.71469e-05
-2.16531e-05
-9.7566e-05
-4.41526e-05
-0.000145572
-7.17129e-05
-0.000180756
-0.000102626
-0.000204116
-0.000135458
-0.000217632
-0.000169017
-0.000223802
-0.000202296
-0.00022519
-0.000234392
-0.000224054
-0.000264413
-0.000222099
-0.000291375
-0.000220358
-0.000314113
-0.000219192
-0.000331194
-0.000218376
-0.000340857
-0.000217219
-0.000340957
-0.00021471
-0.00032893
-0.000209656
-0.000301762
-0.000200846
-0.000255971
-0.000187231
-0.000187598
-0.000168161
-9.22323e-05
-0.000143674
3.50659e-05
-0.000115157
0.000198956
-8.35759e-05
0.000407808
-6.27837e-05
0.000658749
-2.66636e-05
-8.70205e-05
0.000989395
-6.13324e-06
-3.10137e-05
-2.1391e-05
-8.23082e-05
-4.35115e-05
-0.000123452
-7.0472e-05
-0.000153795
-0.000100513
-0.000174075
-0.000132139
-0.000186007
-0.000164082
-0.000191859
-0.000195246
-0.000194025
-0.000224623
-0.000194677
-0.000251199
-0.000195523
-0.000273856
-0.0001977
-0.000291285
-0.000201763
-0.000301902
-0.00020776
-0.000303786
-0.000215335
-0.000294639
-0.000223857
-0.000271748
-0.000232547
-0.000231973
-0.000240621
-0.000171736
-0.000247468
-8.70272e-05
-0.00025287
2.651e-05
-0.000257211
0.000173766
-0.000262414
0.000359062
-0.000268872
0.000591015
-0.000294737
0.00086339
-0.000299038
-0.000441591
0.00121796
-6.0272e-06
-2.49865e-05
-2.0976e-05
-6.73594e-05
-4.2568e-05
-0.00010186
-6.87506e-05
-0.000127613
-9.7721e-05
-0.000145104
-0.000127925
-0.000155803
-0.000158021
-0.000161763
-0.000186819
-0.000165227
-0.0002132
-0.000168296
-0.000236022
-0.000172701
-0.000254028
-0.000179694
-0.000265752
-0.000190039
-0.000269448
-0.000204064
-0.000263031
-0.000221752
-0.000244035
-0.000242853
-0.000209593
-0.000266988
-0.00015643
-0.000293785
-8.08666e-05
-0.000323031
2.11477e-05
-0.000354885
0.000153948
-0.000390012
0.000322374
-0.00043084
0.000530531
-0.000477029
0.000786938
-0.000551144
0.00108349
-0.000595591
-0.000820167
0.00146207
-5.87537e-06
-1.91111e-05
-2.04064e-05
-5.28284e-05
-4.1316e-05
-8.09503e-05
-6.65337e-05
-0.000102395
-9.42199e-05
-0.000117418
-0.000122763
-0.000127259
-0.000150745
-0.000133781
-0.000176877
-0.000139096
-0.000199919
-0.000145254
-0.000218591
-0.000154029
-0.000231477
-0.000166808
-0.000236941
-0.000184575
-0.000233054
-0.00020795
-0.000217542
-0.000237264
-0.000187751
-0.000272644
-0.000140635
-0.000314104
-7.27622e-05
-0.000361658
1.9658e-05
-0.000415451
0.000140735
-0.000475962
0.000294817
-0.000544093
0.000486535
-0.000622558
0.000720015
-0.000710508
0.00100288
-0.000834012
0.00132721
-0.000919916
-0.0012229
0.00172995
-5.67734e-06
-1.34338e-05
-1.96796e-05
-3.88262e-05
-3.97475e-05
-6.08824e-05
-6.38025e-05
-7.83399e-05
-8.99718e-05
-9.12487e-05
-0.000116587
-0.000100644
-0.000142144
-0.000108223
-0.000165248
-0.000115992
-0.000184526
-0.000125977
-0.000198539
-0.000140016
-0.000205692
-0.000159655
-0.000204151
-0.000186116
-0.000191776
-0.000220326
-0.000166069
-0.000262971
-0.000124159
-0.000314554
-6.27921e-05
-0.000375471
2.16348e-05
-0.000446085
0.000133021
-0.000526837
0.00027553
-0.000618471
0.000453444
-0.000722007
0.000670995
-0.000840109
0.000932356
-0.00097187
0.00124313
-0.00114479
0.00159757
-0.00127435
-0.00164783
0.00202249
-5.43296e-06
-8.00082e-06
-1.8794e-05
-2.54651e-05
-3.78554e-05
-4.1821e-05
-6.05378e-05
-5.56574e-05
-8.4937e-05
-6.68495e-05
-0.000109322
-7.62591e-05
-0.000132099
-8.54461e-05
-0.000151748
-9.63429e-05
-0.000166745
-0.00011098
-0.000175471
-0.00013129
-0.000176124
-0.000159002
-0.000166639
-0.000195601
-0.000144629
-0.000242336
-0.000107345
-0.000300255
-5.16682e-05
-0.000370231
2.58685e-05
-0.000453008
0.000129024
-0.00054924
0.000261769
-0.000659583
0.00042817
-0.000784872
0.000632302
-0.000926138
0.000877658
-0.00108546
0.00116816
-0.00126237
0.00150633
-0.00148296
0.00188971
-0.00165772
-0.00208899
0.00233087
-5.14268e-06
-2.85815e-06
-1.77492e-05
-1.28586e-05
-3.56348e-05
-2.39354e-05
-5.67241e-05
-3.45681e-05
-7.90801e-05
-4.44935e-05
-0.000100903
-5.4436e-05
-0.000120495
-6.58543e-05
-0.000136197
-8.06412e-05
-0.00014631
-0.000100867
-0.000149008
-0.000128592
-0.000142252
-0.000165758
-0.000123717
-0.000214136
-9.07397e-05
-0.000275314
-4.02994e-05
-0.000350695
3.09679e-05
-0.000441498
0.000126711
-0.000548751
0.000250772
-0.0006733
0.000407032
-0.000815844
0.000599229
-0.000977069
0.000830896
-0.00115781
0.0011044
-0.00135897
0.00142272
-0.00158069
0.00178475
-0.00184499
0.00219129
-0.00206426
-0.00253621
0.0026385
-4.80786e-06
1.94971e-06
-1.65478e-05
-1.11868e-06
-3.30862e-05
-7.39702e-06
-5.23536e-05
-1.53006e-05
-7.23763e-05
-2.44708e-05
-9.12767e-05
-3.55357e-05
-0.000107238
-4.98931e-05
-0.000118443
-6.94365e-05
-0.000122995
-9.63148e-05
-0.000118834
-0.000132752
-0.000103658
-0.000180934
-7.48571e-05
-0.000242937
-2.94819e-05
-0.000320689
3.57508e-05
-0.000415928
0.000124404
-0.000530152
0.000240216
-0.000664563
0.000386932
-0.000820016
0.000568099
-0.000997011
0.000786774
-0.00119574
0.00104547
-0.0014165
0.00134508
-0.00165858
0.00168671
-0.00192232
0.00206578
-0.00222406
0.00248548
-0.00248396
-0.00297677
0.00292604
-4.43107e-06
6.38078e-06
-1.51959e-05
9.64612e-06
-3.02168e-05
7.62387e-06
-4.74294e-05
1.91198e-06
-6.48171e-05
-7.08301e-06
-8.04133e-05
-1.99395e-05
-9.22671e-05
-3.80393e-05
-9.83827e-05
-6.33209e-05
-9.66446e-05
-9.80528e-05
-8.47379e-05
-0.000144659
-6.00777e-05
-0.000205594
-1.97649e-05
-0.00028325
3.94202e-05
-0.000379874
0.000120972
-0.000497479
0.000228549
-0.000637729
0.0003658
-0.000801814
0.000536121
-0.000990337
0.000742373
-0.00120326
0.000986523
-0.00143989
0.00126952
-0.0016995
0.00159054
-0.00197959
0.00194813
-0.00227991
0.00233483
-0.00261076
0.00275512
-0.00290425
-0.00339816
0.00317652
-4.01625e-06
1.0397e-05
-1.37037e-05
1.93336e-05
-2.70419e-05
2.0962e-05
-4.19679e-05
1.6838e-05
-5.64145e-05
7.3636e-06
-6.83135e-05
-8.04038e-06
-7.5565e-05
-3.07879e-05
-7.5977e-05
-6.29089e-05
-6.7197e-05
-0.000106833
-4.66416e-05
-0.000165214
-1.14422e-05
-0.000240794
4.15717e-05
-0.000336263
0.000115838
-0.00045414
0.000214961
-0.000596601
0.000342526
-0.000765295
0.000501847
-0.000961135
0.00069564
-0.00118413
0.000925682
-0.00143331
0.00119245
-0.00170666
0.00149491
-0.00200196
0.00183035
-0.00231503
0.00219461
-0.00264418
0.00257838
-0.00299453
0.00298638
-0.00331225
-0.00379048
0.00337869
-3.56873e-06
1.39658e-05
-1.20861e-05
2.7851e-05
-2.35857e-05
3.24616e-05
-3.60002e-05
2.92524e-05
-4.72027e-05
1.85662e-05
-5.50111e-05
-2.31978e-07
-5.71629e-05
-2.86361e-05
-5.12556e-05
-6.88162e-05
-3.46894e-05
-0.000123399
-4.61231e-06
-0.000195292
4.21112e-05
-0.000287517
0.000108875
-0.000403027
0.000199244
-0.000544509
0.000316776
-0.000714134
0.000464761
-0.00091328
0.000645875
-0.00114225
0.000861792
-0.00140005
0.00111282
-0.00168434
0.00139764
-0.00199148
0.00171304
-0.00231736
0.00205446
-0.00265645
0.00241549
-0.0030052
0.00278618
-0.00336522
0.00317082
-0.00369689
-0.00414762
0.00352796
-3.09509e-06
1.70609e-05
-1.03618e-05
3.51177e-05
-1.98806e-05
4.19804e-05
-2.95713e-05
3.89432e-05
-3.7237e-05
2.62319e-05
-4.05738e-05
3.10478e-06
-3.71399e-05
-3.207e-05
-2.43176e-05
-8.16385e-05
7.39794e-07
-0.000148456
4.11446e-05
-0.000235696
0.000100253
-0.000346625
0.000181605
-0.000484379
0.000288758
-0.000651662
0.000425027
-0.000850404
0.000593134
-0.00108139
0.000794788
-0.0013439
0.00103028
-0.00163554
0.00129815
-0.00195221
0.00159511
-0.00228845
0.00191593
-0.00263818
0.0022545
-0.00299501
0.00260303
-0.00335374
0.00295228
-0.00371447
0.00330575
-0.00405036
-0.00446734
0.00362547
-2.60282e-06
1.96637e-05
-8.55246e-06
4.10673e-05
-1.59654e-05
4.93933e-05
-2.27382e-05
4.57159e-05
-2.65942e-05
3.00879e-05
-2.50944e-05
1.60504e-06
-1.56161e-05
-4.15483e-05
4.67908e-06
-0.000101934
3.88771e-05
-0.000182654
9.03077e-05
-0.000287127
0.000162494
-0.000418812
0.000259009
-0.000580894
0.000383232
-0.000775884
0.000537997
-0.00100517
0.00072516
-0.00126855
0.000945146
-0.00156389
0.00119658
-0.00188697
0.00147609
-0.00223173
0.00177851
-0.00259086
0.00209701
-0.00295668
0.0024245
-0.00332251
0.00275299
-0.00368222
0.00307499
-0.00403647
0.00339322
-0.0043686
-0.00475044
0.00367632
-2.09991e-06
2.17636e-05
-6.68184e-06
4.56493e-05
-1.18832e-05
5.45947e-05
-1.55651e-05
4.93979e-05
-1.53609e-05
2.98836e-05
-8.68929e-06
-5.06656e-06
7.25758e-06
-5.74951e-05
3.55322e-05
-0.000130208
7.94342e-05
-0.000226556
0.000142469
-0.000350162
0.000228232
-0.000504575
0.000340186
-0.000692849
0.000481331
-0.000917029
0.000653755
-0.00117759
0.000858154
-0.00147295
0.0010934
-0.00179913
0.00135628
-0.00214985
0.00164159
-0.00251704
0.00194258
-0.00289186
0.00225154
-0.00326563
0.00256118
-0.00363215
0.00286438
-0.00398541
0.00315614
-0.00432824
0.00343839
-0.00465084
-0.0049999
0.00368785
-1.59423e-06
2.33578e-05
-4.77358e-06
4.88286e-05
-7.67788e-06
5.7499e-05
-8.11913e-06
4.98391e-05
-3.6304e-06
2.53949e-05
8.5172e-06
-1.72142e-05
3.13154e-05
-8.02933e-05
6.80156e-05
-0.000166909
0.000122097
-0.000280638
0.000197171
-0.000425236
0.000296791
-0.000604195
0.000424142
-0.0008202
0.000581608
-0.00107449
0.00077026
-0.00136625
0.000989365
-0.00169205
0.00123606
-0.00204582
0.00150531
-0.00241911
0.00179036
-0.00280209
0.00208346
-0.00318495
0.0023768
-0.00355897
0.00266376
-0.00391911
0.00293895
-0.0042606
0.00319998
-0.00458927
0.00344798
-0.00489885
-0.00522026
0.00366835
-1.0929e-06
2.44507e-05
-2.84946e-06
5.05852e-05
-3.3905e-06
5.804e-05
-4.63895e-07
4.69125e-05
8.50744e-06
1.64236e-05
2.64029e-05
-3.51097e-05
5.63914e-05
-0.000110282
0.0001019
-0.000212417
0.000166539
-0.000345276
0.000253935
-0.000512633
0.000367463
-0.000717722
0.000509826
-0.000962563
0.000682546
-0.00124721
0.000885416
-0.00156911
0.00111607
-0.00192271
0.00136987
-0.00229961
0.00164018
-0.00268942
0.00191916
-0.00308107
0.0021988
-0.00346459
0.00247201
-0.00383219
0.00273356
-0.00418066
0.0029803
-0.00450735
0.00321204
-0.00482101
0.00342925
-0.00511606
-0.00541768
0.00362667
-6.01708e-07
2.50524e-05
-9.27297e-07
5.09108e-05
9.44423e-07
5.61683e-05
7.34644e-06
4.05105e-05
2.09744e-05
2.79563e-06
4.48593e-05
-5.89946e-05
8.23348e-05
-0.000147757
0.000136971
-0.000267054
0.000212442
-0.000420747
0.000312282
-0.000612473
0.000439517
-0.000844957
0.000596151
-0.0011192
0.00078259
-0.00143365
0.000997125
-0.00178365
0.00123567
-0.00216125
0.00149192
-0.00255587
0.00175807
-0.00295557
0.00202585
-0.00334884
0.00228775
-0.0037265
0.00253809
-0.00408253
0.00277345
-0.00441602
0.00299304
-0.00472693
0.00319813
-0.0050261
0.00338971
-0.00530763
-0.00560333
0.00357536
-1.24632e-07
2.51771e-05
9.79385e-07
4.98067e-05
5.30189e-06
5.18458e-05
1.52714e-05
3.0541e-05
3.3711e-05
-1.5644e-05
6.38008e-05
-8.90844e-05
0.00010902
-0.000192976
0.000173037
-0.000331071
0.000259506
-0.000507216
0.000371735
-0.000724703
0.000512209
-0.00098543
0.000681994
-0.00128898
0.00088015
-0.00163181
0.00110332
-0.00200682
0.00134575
-0.00240367
0.00159979
-0.00280991
0.00185702
-0.0032128
0.00210948
-0.00360129
0.00235083
-0.00396785
0.00257721
-0.0043089
0.00278722
-0.00462604
0.00298205
-0.00492176
0.00316387
-0.00520793
0.00333601
-0.00547977
-0.00577125
0.00350392
3.36778e-07
2.48403e-05
2.86555e-06
4.7278e-05
9.6693e-06
4.5042e-05
2.3289e-05
1.69213e-05
4.66817e-05
-3.90367e-05
8.31698e-05
-0.000125573
0.000136351
-0.000246158
0.000209933
-0.000404653
0.000307447
-0.000604729
0.000431811
-0.000849067
0.000584758
-0.00113838
0.000766184
-0.00147041
0.000973619
-0.00183924
0.00120203
-0.00223524
0.0014442
-0.00264585
0.00169166
-0.00305737
0.00193599
-0.00345713
0.00217019
-0.0038355
0.00238963
-0.00418729
0.0025924
-0.00451167
0.00277899
-0.00481263
0.00295202
-0.0050948
0.00311446
-0.00537037
0.00327039
-0.00563569
-0.0059241
0.00342324
7.83345e-07
2.40569e-05
4.73237e-06
4.3329e-05
1.40471e-05
3.57273e-05
3.13964e-05
-4.27984e-07
5.98757e-05
-6.75159e-05
0.000102938
-0.000168634
0.000164261
-0.000307481
0.000247515
-0.000487907
0.000355979
-0.000713193
0.000492001
-0.000985089
0.000656334
-0.00130271
0.0008475
-0.00166157
0.0010614
-0.00205315
0.00129145
-0.00246529
0.00152935
-0.00288374
0.00176636
-0.00329438
0.00199478
-0.00368555
0.00220909
-0.00404981
0.00240653
-0.00438473
0.0025871
-0.00469224
0.00275281
-0.00497834
0.00290723
-0.00524921
0.00305369
-0.00551683
0.00319621
-0.00577822
-0.00606542
0.00333754
1.21828e-06
2.28387e-05
6.58806e-06
3.79592e-05
1.84487e-05
2.38666e-05
3.96099e-05
-2.15892e-05
7.33055e-05
-0.000101212
0.000123099
-0.000218428
0.000192698
-0.00037708
0.000285638
-0.000580847
0.000404796
-0.000832351
0.000551743
-0.00113204
0.000726041
-0.00147701
0.000924684
-0.00186022
0.00114197
-0.00227043
0.00137002
-0.00269334
0.00159998
-0.0031137
0.00182348
-0.00351788
0.00203405
-0.00389612
0.00222794
-0.00424371
0.00240432
-0.0045611
0.00256477
-0.00485269
0.00271239
-0.00512597
0.00285121
-0.00538803
0.00298454
-0.00565016
0.00311616
-0.00590984
-0.00619705
0.00324778
1.64693e-06
2.11917e-05
8.44738e-06
3.11587e-05
2.28987e-05
9.4153e-06
4.79608e-05
-4.66513e-05
8.70009e-05
-0.000140252
0.000143663
-0.00027509
0.000221616
-0.000455034
0.000324144
-0.000683375
0.000453545
-0.000961752
0.000610407
-0.0012889
0.000792915
-0.00165952
0.000996473
-0.00206377
0.00121393
-0.00248789
0.00143655
-0.00291596
0.00165547
-0.00333262
0.00186326
-0.00372567
0.00205506
-0.00408792
0.00222901
-0.00441765
0.00238593
-0.00471803
0.00252865
-0.0049954
0.0026609
-0.00525823
0.00278676
-0.00551388
0.00290928
-0.00577269
0.0030318
-0.00603235
-0.00632043
0.00315518
2.07631e-06
1.91154e-05
1.03299e-05
2.29052e-05
2.74299e-05
-7.68475e-06
5.64909e-05
-7.57122e-05
0.000101
-0.000184761
0.000164639
-0.000338729
0.000250954
-0.000541349
0.000362832
-0.000795254
0.000501807
-0.00110073
0.000667284
-0.00145437
0.000855946
-0.00184818
0.00106166
-0.00226949
0.00127614
-0.00270237
0.00149026
-0.00313008
0.00169574
-0.0035381
0.00188653
-0.00391646
0.00205956
-0.00426095
0.00221471
-0.00457281
0.0023542
-0.00485751
0.00248162
-0.00512283
0.00260096
-0.00537756
0.00271606
-0.00562898
0.00282957
-0.0058862
0.00294431
-0.0061471
-0.00643659
0.00306047
2.51445e-06
1.6601e-05
1.22579e-05
1.31617e-05
3.20793e-05
-2.75061e-05
6.52452e-05
-0.000108878
0.00011534
-0.000234856
0.000186025
-0.000409413
0.000280613
-0.000635937
0.000401442
-0.000916082
0.000549083
-0.00124837
0.000721594
-0.00162689
0.000914118
-0.0020407
0.00111917
-0.00247454
0.00132771
-0.00291091
0.0015308
-0.00333318
0.00172123
-0.00372852
0.00189457
-0.0040898
0.00204953
-0.00441591
0.00218751
-0.00471079
0.0023117
-0.0049817
0.0024261
-0.00523723
0.00253462
-0.00548609
0.00264071
-0.00573507
0.00274655
-0.00599204
0.00285446
-0.00625501
-0.00654621
0.00296408
2.96964e-06
1.36313e-05
1.42542e-05
1.87716e-06
3.68832e-05
-5.01352e-05
7.42646e-05
-0.000146259
0.000130044
-0.000290635
0.000207786
-0.000487156
0.000310448
-0.0007386
0.000439641
-0.00104528
0.000594797
-0.00140352
0.000772517
-0.00180461
0.000966469
-0.00223465
0.00116811
-0.00267618
0.00136815
-0.00311095
0.00155832
-0.00352335
0.0017328
-0.00390301
0.00188894
-0.00424593
0.00202704
-0.00455401
0.00214968
-0.00483343
0.00226066
-0.00509268
0.00236405
-0.00534062
0.00246348
-0.00558552
0.0025619
-0.0058335
0.00266104
-0.00609118
0.00276277
-0.00635673
-0.00664977
0.00286632
3.44976e-06
1.01816e-05
1.634e-05
-1.10131e-05
4.18735e-05
-7.56686e-05
8.35783e-05
-0.000187964
0.000145112
-0.000352168
0.00022985
-0.000571894
0.000340251
-0.000849001
0.000477025
-0.00118205
0.000638313
-0.00156481
0.000819231
-0.00198552
0.00101215
-0.00242757
0.00120786
-0.00287188
0.0013973
-0.00330039
0.00157329
-0.00369934
0.00173165
-0.00406136
0.00187136
-0.00438565
0.00199411
-0.00467676
0.00210328
-0.00494261
0.00220295
-0.00519234
0.00229703
-0.00543469
0.00238872
-0.00567721
0.00248047
-0.00592525
0.0025736
-0.0061843
0.00266957
-0.0064527
-0.00674757
0.00276737
3.96164e-06
6.21992e-06
1.85326e-05
-2.55841e-05
4.70728e-05
-0.000104209
9.31982e-05
-0.00023409
0.000160513
-0.000419483
0.000252096
-0.000663477
0.000369751
-0.000966656
0.000513123
-0.00132542
0.000678964
-0.00173065
0.000860968
-0.00216753
0.00105048
-0.00261709
0.00123807
-0.00305947
0.00141536
-0.00347767
0.00157655
-0.00386054
0.00171912
-0.00420393
0.00184355
-0.00451008
0.00195258
-0.00478579
0.00205007
-0.0050401
0.00214009
-0.00528236
0.00222622
-0.00552082
0.00231121
-0.0057622
0.00239701
-0.00601105
0.0024846
-0.00627189
0.00257511
-0.00654321
-0.00683983
0.00266737
4.51051e-06
1.70941e-06
2.08439e-05
-4.19175e-05
5.24917e-05
-0.000135857
0.000103114
-0.000284712
0.000176181
-0.00049255
0.00027435
-0.000761647
0.000398616
-0.00109092
0.00054742
-0.00147422
0.000716091
-0.00189932
0.000897056
-0.00234849
0.001081
-0.00280103
0.00125869
-0.00323716
0.00142281
-0.0036418
0.00156913
-0.00400685
0.00169666
-0.00433146
0.00180718
-0.00462059
0.0019041
-0.00488272
0.00199152
-0.00512752
0.00207328
-0.00536412
0.00215254
-0.00560009
0.00223159
-0.00584124
0.00231195
-0.00609142
0.00239431
-0.00635425
0.00247956
-0.00662845
-0.00692671
0.00256643
5.09973e-06
-3.39032e-06
2.32792e-05
-6.0097e-05
5.81271e-05
-0.000170704
0.00011329
-0.000339874
0.000192011
-0.000571271
0.000296392
-0.000866028
0.000426469
-0.001221
0.000579382
-0.00162714
0.000749082
-0.00206902
0.000926966
-0.00252638
0.00110345
-0.00297751
0.00126993
-0.00340364
0.00142039
-0.00379227
0.00155217
-0.00413863
0.00166572
-0.004445
0.00176373
-0.00471861
0.00185009
-0.00496907
0.00192882
-0.00520625
0.00200344
-0.00543874
0.00207666
-0.00567331
0.00215031
-0.0059149
0.00222558
-0.00616668
0.00230293
-0.00643161
0.00238303
-0.00670855
-0.0070083
0.00246462
5.73061e-06
-9.12093e-06
2.58371e-05
-8.02035e-05
6.39608e-05
-0.000208828
0.000123666
-0.000399579
0.000207863
-0.000655468
0.000317959
-0.000976124
0.000452903
-0.00135594
0.000608488
-0.00178272
0.000777407
-0.00223794
0.00095034
-0.00269931
0.00111783
-0.003145
0.00127223
-0.00355804
0.00140897
-0.00392902
0.0015269
-0.00425656
0.00162763
-0.00454574
0.00171456
-0.00480553
0.00179171
-0.00504623
0.00186291
-0.00527745
0.00193128
-0.00550711
0.00199906
-0.00574109
0.00206772
-0.00598355
0.00213813
-0.00623709
0.0022106
-0.00650408
0.00228564
-0.00678359
-0.00708468
0.00236203
6.40247e-06
-1.55234e-05
2.85089e-05
-0.00010231
6.99603e-05
-0.00025028
0.000134158
-0.000463777
0.000223565
-0.000744875
0.000338761
-0.00109132
0.000477505
-0.00149469
0.000634258
-0.00193948
0.000800652
-0.00240434
0.000966995
-0.00286565
0.00112433
-0.00330233
0.00126619
-0.0036999
0.00138952
-0.00405234
0.00149449
-0.00436152
0.00158365
-0.0046349
0.0016608
-0.00488268
0.00172993
-0.00511536
0.00179455
-0.00534207
0.00185733
-0.00556989
0.00192012
-0.00580388
0.00198404
-0.00604747
0.00204975
-0.0063028
0.00211744
-0.00657177
0.00218747
-0.00685363
-0.00715591
0.0022587
7.11273e-06
-2.26361e-05
3.12798e-05
-0.000126477
7.60802e-05
-0.00029508
0.000144663
-0.000532359
0.000238924
-0.000839136
0.000358491
-0.00121089
0.000499872
-0.00163607
0.000656279
-0.00209588
0.000818533
-0.00256659
0.000976927
-0.00302404
0.0011233
-0.00344871
0.00125255
-0.00382915
0.00136303
-0.00416282
0.00145605
-0.00445455
0.00153486
-0.0047137
0.00160341
-0.00495124
0.00166552
-0.00517747
0.0017243
-0.00540085
0.00178201
-0.0056276
0.00184011
-0.00586198
0.00189947
-0.00610683
0.00196057
-0.0063639
0.00202353
-0.00663472
0.00208859
-0.0069187
-0.00722202
0.00215471
7.85721e-06
-3.04933e-05
3.4129e-05
-0.000152749
8.22636e-05
-0.000343215
0.00015506
-0.000605156
0.000253728
-0.000937803
0.00037684
-0.001334
0.000519638
-0.00177887
0.000674225
-0.00225047
0.000830906
-0.00272327
0.000980289
-0.00317343
0.00111526
-0.00358368
0.0012321
-0.00394598
0.00133047
-0.00426119
0.00141262
-0.00453671
0.00148221
-0.00478329
0.00154319
-0.00501222
0.00159909
-0.00523336
0.00165261
-0.00545436
0.0017056
-0.00568059
0.00175923
-0.00591562
0.00181415
-0.00616175
0.00187071
-0.00642046
0.00192896
-0.00669297
0.00198908
-0.00697882
-0.00728305
0.00205011
8.63034e-06
-3.91237e-05
3.70313e-05
-0.00018115
8.84446e-05
-0.000394628
0.000165218
-0.00068193
0.00026776
-0.00104035
0.000393513
-0.00145975
0.000536487
-0.00192184
0.00068787
-0.00240185
0.000837757
-0.00287316
0.000977368
-0.00331304
0.00110079
-0.0037071
0.00120565