/*--------------------------------*- C++ -*----------------------------------*\
  =========                 |
  \\      /  F ield         | OpenFOAM: The Open Source CFD Toolbox
   \\    /   O peration     | Website:  https://openfoam.org
    \\  /    A nd           | Version:  7
     \\/     M anipulation  |
\*---------------------------------------------------------------------------*/
FoamFile
{
    version     2.0;
    format      ascii;
    class       volVectorField;
    location    "155";
    object      U;
}
// * * * * * * * * * * * * * * * * * * * * * * * * * * * * * * * * * * * * * //

dimensions      [0 1 -1 0 0 0 0];

internalField   nonuniform List<vector> 
31800
(
(0.000291287 -0.0495092 -1.40881e-20)
(-0.00109542 -0.123825 9.7112e-21)
(-0.00595122 -0.178797 -3.16835e-21)
(-0.0135917 -0.216886 1.39918e-20)
(-0.023641 -0.241001 1.56217e-20)
(-0.0356065 -0.254273 -5.12536e-21)
(-0.0489393 -0.259707 -3.74589e-21)
(-0.0631313 -0.25988 2.63544e-20)
(-0.077749 -0.256734 -3.02139e-21)
(-0.0924417 -0.251485 4.36082e-21)
(-0.10693 -0.244646 1.50665e-20)
(-0.120982 -0.236154 1.48699e-20)
(-0.134386 -0.225523 -9.56877e-21)
(-0.146921 -0.211996 -1.19865e-20)
(-0.158343 -0.194674 -3.93924e-22)
(-0.168372 -0.172605 -1.56602e-20)
(-0.176688 -0.14485 1.22265e-20)
(-0.18294 -0.110562 2.0961e-20)
(-0.186761 -0.0690596 -7.92667e-21)
(-0.187782 -0.0199346 3.62454e-20)
(-0.185644 0.0368206 2.31748e-21)
(-0.180018 0.100716 -2.94096e-21)
(-0.170622 0.170555 6.4546e-21)
(-0.157488 0.244289 1.23679e-20)
(-0.140442 0.319459 7.26275e-21)
(0.00138956 -0.0484956 1.4489e-20)
(0.00117644 -0.120921 7.63339e-21)
(-0.00354589 -0.174176 -8.36311e-21)
(-0.0116588 -0.210787 -3.2001e-20)
(-0.0225713 -0.233724 2.3313e-20)
(-0.035635 -0.24614 -1.13861e-20)
(-0.0501934 -0.251019 6.37664e-22)
(-0.0656811 -0.2509 -2.01798e-20)
(-0.0816452 -0.247678 4.04403e-21)
(-0.0977432 -0.242524 2.67158e-21)
(-0.11372 -0.235923 -6.24022e-20)
(-0.129376 -0.227797 -1.38977e-21)
(-0.14453 -0.217663 7.0906e-20)
(-0.158987 -0.204781 -3.54676e-20)
(-0.172523 -0.188273 -6.7555e-21)
(-0.18486 -0.167212 1.54364e-20)
(-0.195672 -0.140684 -3.24233e-20)
(-0.204579 -0.107858 -1.98277e-21)
(-0.211162 -0.0680597 3.2633e-20)
(-0.214989 -0.0208733 -1.19668e-19)
(-0.215607 0.0337372 -3.63766e-20)
(-0.2126 0.0953231 5.47214e-20)
(-0.20562 0.162757 2.57141e-20)
(-0.194512 0.23418 4.45611e-21)
(-0.179622 0.307463 -1.1223e-20)
(0.00242461 -0.0471816 -2.91023e-20)
(0.00330594 -0.117362 -1.01492e-21)
(-0.00129625 -0.168731 -3.93961e-20)
(-0.00984266 -0.203816 5.91634e-20)
(-0.0215324 -0.225603 -6.72227e-20)
(-0.0355664 -0.237223 -5.80989e-21)
(-0.0511856 -0.241617 -5.96976e-21)
(-0.0677696 -0.241265 1.07368e-20)
(-0.0848468 -0.238003 3.67246e-20)
(-0.102081 -0.232959 -6.42267e-21)
(-0.11924 -0.226592 -1.03399e-20)
(-0.136151 -0.218817 4.00924e-20)
(-0.152662 -0.209159 -8.33617e-21)
(-0.168605 -0.1969 4.12272e-20)
(-0.183771 -0.181193 -8.143e-20)
(-0.197894 -0.161143 -3.30496e-20)
(-0.210642 -0.135871 6.22116e-21)
(-0.221616 -0.104569 -1.10915e-19)
(-0.230358 -0.066583 2.96468e-20)
(-0.236371 -0.0215109 7.12597e-20)
(-0.23913 0.0307763 -4.08297e-20)
(-0.238141 0.0898179 -1.03029e-19)
(-0.232984 0.154609 -5.20393e-20)
(-0.223302 0.223484 -8.9641e-20)
(-0.209753 0.2947 -4.66301e-20)
(0.00337797 -0.0455883 1.37541e-20)
(0.00525768 -0.113202 -2.24686e-20)
(0.000760566 -0.162536 7.16352e-20)
(-0.00817555 -0.196064 -5.72954e-20)
(-0.0205493 -0.216737 -1.42997e-20)
(-0.0354185 -0.22763 -3.40579e-21)
(-0.051927 -0.231611 4.64473e-20)
(-0.069402 -0.231085 3.23217e-20)
(-0.0873526 -0.227825 -5.87842e-20)
(-0.105447 -0.222911 2.43457e-20)
(-0.123469 -0.216778 2.67015e-21)
(-0.141271 -0.209341 -1.11886e-19)
(-0.158726 -0.200139 -3.73798e-20)
(-0.175688 -0.188481 3.51451e-21)
(-0.191964 -0.173556 2.58156e-20)
(-0.2073 -0.154509 1.15409e-19)
(-0.221363 -0.1305 1.18759e-20)
(-0.233745 -0.100757 1.10635e-19)
(-0.243962 -0.0646474 1.03828e-19)
(-0.251436 -0.0217644 -1.25602e-20)
(-0.255593 0.0280152 5.08548e-20)
(-0.255899 0.084317 -1.37357e-20)
(-0.251828 0.14626 5.80876e-20)
(-0.242797 0.212374 1.87264e-19)
(-0.229544 0.281284 2.92511e-20)
(0.00423305 -0.0437399 2.24237e-20)
(0.00699983 -0.108497 -8.14883e-20)
(0.00259029 -0.155673 1.04975e-19)
(-0.00668879 -0.187625 3.87149e-20)
(-0.0196486 -0.207227 3.09061e-20)
(-0.0352137 -0.217465 3.28968e-20)
(-0.0524372 -0.221108 -1.72283e-19)
(-0.0705958 -0.220474 6.31675e-20)
(-0.0891785 -0.217261 6.67414e-20)
(-0.107853 -0.212502 -9.90466e-20)
(-0.126416 -0.206613 1.03337e-19)
(-0.144739 -0.199508 5.765e-20)
(-0.162713 -0.190747 6.85035e-20)
(-0.180209 -0.17967 -4.67171e-20)
(-0.197052 -0.165506 -1.01019e-20)
(-0.212994 -0.147445 2.28324e-19)
(-0.227707 -0.12469 -1.00582e-19)
(-0.240772 -0.0965137 7.44017e-20)
(-0.251681 -0.0623108 -1.8799e-19)
(-0.259832 -0.0216651 -7.02801e-20)
(-0.264575 0.0254844 6.98535e-20)
(-0.265298 0.0789012 1.15329e-19)
(-0.261434 0.137827 1.48608e-20)
(-0.252119 0.200982 -1.42587e-19)
(-0.237888 0.267283 -9.15898e-20)
(0.00497547 -0.0416639 -8.63552e-20)
(0.00850449 -0.103313 -2.70796e-20)
(0.00416197 -0.148226 -6.25169e-20)
(-0.00541215 -0.178596 -6.03256e-20)
(-0.0188581 -0.197177 4.30812e-20)
(-0.0349785 -0.206834 -7.5716e-20)
(-0.0527426 -0.210219 -4.7898e-20)
(-0.0713794 -0.209543 -2.46419e-19)
(-0.0903557 -0.206429 1.02459e-20)
(-0.109335 -0.201861 -1.5225e-21)
(-0.128121 -0.196232 -1.89094e-19)
(-0.146595 -0.189464 -6.31848e-20)
(-0.164662 -0.181137 -8.24888e-20)
(-0.182206 -0.170627 1.55616e-19)
(-0.199061 -0.157205 4.49989e-20)
(-0.214986 -0.140108 -1.26463e-19)
(-0.229657 -0.118589 -1.31201e-19)
(-0.24265 -0.0919656 3.07731e-20)
(-0.253437 -0.0596733 1.4519e-19)
(-0.261392 -0.0213247 -2.61355e-20)
(-0.265812 0.0231674 -1.74876e-20)
(-0.266002 0.073601 -8.63956e-20)
(-0.261354 0.129368 -1.00024e-19)
(-0.250731 0.189387 8.23086e-20)
(-0.234065 0.252733 5.76546e-20)
(0.00559322 -0.0393893 4.57843e-20)
(0.0097481 -0.0977133 5.34872e-20)
(0.00544846 -0.140282 -4.15025e-20)
(-0.00437321 -0.169073 -8.54231e-20)
(-0.0182052 -0.186689 1.32981e-20)
(-0.0347415 -0.195843 1.00647e-19)
(-0.0528753 -0.199049 1.454e-19)
(-0.07179 -0.198405 1.96756e-19)
(-0.0909287 -0.195448 3.30533e-20)
(-0.109946 -0.191112 4.61657e-20)
(-0.128645 -0.185773 5.63232e-20)
(-0.146913 -0.179356 2.09916e-19)
(-0.164659 -0.171469 -1.2071e-20)
(-0.181774 -0.161523 -2.66299e-19)
(-0.198096 -0.148831 1.88789e-19)
(-0.213387 -0.132679 7.22111e-20)
(-0.227324 -0.112372 2.39016e-19)
(-0.239478 -0.0872766 -1.01794e-19)
(-0.249311 -0.0568726 -1.0569e-19)
(-0.256178 -0.0208138 2.95368e-19)
(-0.259328 0.0209994 -9.1922e-20)
(-0.257983 0.0683893 -1.40669e-19)
(-0.251506 0.12088 -2.93722e-20)
(-0.23856 0.177605 -1.01665e-19)
(-0.217918 0.237645 2.20011e-20)
(0.00607674 -0.0369465 1.12798e-20)
(0.0107116 -0.0917669 -2.03377e-20)
(0.00642697 -0.131928 4.20396e-21)
(-0.00359643 -0.159154 -1.51534e-19)
(-0.0177164 -0.175861 -1.18643e-19)
(-0.0345322 -0.18459 -2.26854e-20)
(-0.05287 -0.1877 -5.66021e-20)
(-0.0718704 -0.187163 -1.06392e-19)
(-0.0909512 -0.184429 -2.56165e-20)
(-0.109753 -0.180378 -1.08192e-20)
(-0.128074 -0.175369 -1.0946e-19)
(-0.145797 -0.169334 4.55924e-20)
(-0.162831 -0.161906 3.63214e-20)
(-0.179065 -0.152534 1.92027e-19)
(-0.194334 -0.140573 -9.24122e-21)
(-0.2084 -0.125357 -1.15378e-19)
(-0.220936 -0.106241 -1.43635e-20)
(-0.231511 -0.0826455 4.26257e-20)
(-0.239577 -0.0540976 1.87158e-19)
(-0.244475 -0.020293 -1.44906e-19)
(-0.245424 0.0188562 3.40963e-19)
(-0.241562 0.0631799 1.3501e-19)
(-0.232226 0.112298 -8.81822e-20)
(-0.216073 0.165593 1.83158e-19)
(-0.189953 0.222017 9.28698e-20)
(0.00641896 -0.0343662 1.21549e-20)
(0.0113808 -0.0855408 6.74249e-20)
(0.00707955 -0.12325 1.88717e-19)
(-0.00310223 -0.148932 2.37402e-19)
(-0.0174149 -0.16479 1.40331e-19)
(-0.0343787 -0.173172 -9.76692e-20)
(-0.0527618 -0.176267 2.39688e-19)
(-0.0716657 -0.175918 2.64764e-20)
(-0.0904819 -0.173477 -1.43301e-19)
(-0.108834 -0.169775 1.66402e-20)
(-0.126506 -0.165148 2.61094e-19)
(-0.143373 -0.15954 -2.77106e-19)
(-0.159335 -0.152607 -1.55789e-19)
(-0.174272 -0.143834 -3.29101e-20)
(-0.188013 -0.132621 -2.53675e-19)
(-0.200311 -0.118346 -1.59943e-19)
(-0.210833 -0.100413 2.55455e-20)
(-0.219142 -0.078294 -3.18632e-19)
(-0.224686 -0.0515661 2.21368e-20)
(-0.226798 -0.019969 -1.42146e-19)
(-0.224681 0.0165578 -1.70532e-19)
(-0.217405 0.0578318 1.38615e-19)
(-0.204258 0.10351 1.51825e-19)
(-0.184258 0.153262 -1.07402e-19)
(-0.151382 0.205907 1.32038e-19)
(0.00661528 -0.0316787 -1.55486e-19)
(0.0117462 -0.0791014 1.14064e-19)
(0.00739361 -0.114332 -9.79353e-21)
(-0.00290599 -0.138497 4.46856e-20)
(-0.0173196 -0.153566 4.23225e-20)
(-0.0343051 -0.161677 1.9469e-19)
(-0.0525826 -0.16484 -1.41355e-19)
(-0.0712185 -0.164758 -2.61201e-19)
(-0.0895784 -0.162689 1.30294e-19)
(-0.107264 -0.159405 1.21513e-19)
(-0.124044 -0.155227 -4.08253e-19)
(-0.139775 -0.150103 2.85819e-19)
(-0.154344 -0.143717 4.27141e-19)
(-0.167618 -0.135589 2.65919e-20)
(-0.17941 -0.125158 -6.89751e-20)
(-0.189464 -0.111848 2.05101e-19)
(-0.197435 -0.095107 -9.20235e-20)
(-0.202879 -0.074455 3.99586e-19)
(-0.205242 -0.0495186 -3.39375e-19)
(-0.203855 -0.0200819 5.93408e-20)
(-0.197924 0.0138792 -2.79108e-20)
(-0.186482 0.0521548 -9.25371e-20)
(-0.168693 0.0943589 -8.34373e-20)
(-0.144456 0.140464 6.42151e-20)
(-0.104091 0.189526 -2.55875e-21)
(0.00666355 -0.0289138 9.97165e-20)
(0.0118034 -0.0725131 -7.29425e-20)
(0.00736241 -0.105254 5.82185e-20)
(-0.00301694 -0.127935 -2.02258e-19)
(-0.0174434 -0.142274 -4.55541e-20)
(-0.0343292 -0.150187 2.20104e-20)
(-0.0523574 -0.153497 -4.9983e-20)
(-0.0705647 -0.153764 -8.23186e-20)
(-0.0882908 -0.152145 2.48233e-20)
(-0.105115 -0.149358 -1.39488e-19)
(-0.120783 -0.145702 2.60077e-19)
(-0.135133 -0.141134 -6.0215e-20)
(-0.148032 -0.135361 -1.51376e-19)
(-0.159327 -0.127939 -1.5119e-19)
(-0.168817 -0.118346 1.94946e-19)
(-0.176227 -0.106044 9.71955e-20)
(-0.181202 -0.090525 4.04394e-20)
(-0.183291 -0.0713517 -3.2075e-19)
(-0.181939 -0.0481954 3.165e-19)
(-0.176482 -0.0208822 -9.52599e-20)
(-0.166146 0.0105716 -4.36057e-20)
(-0.149982 0.0459223 -2.62895e-20)
(-0.126884 0.0846555 -2.63446e-20)
(-0.0980721 0.126891 9.31663e-20)
(-0.0500763 0.172792 -1.40933e-19)
(0.00656396 -0.0261003 -3.73085e-20)
(0.0115529 -0.065838 1.58047e-19)
(0.00698563 -0.0960946 -2.29092e-19)
(-0.00343712 -0.117328 9.22575e-20)
(-0.0177908 -0.130993 4.94183e-20)
(-0.0344597 -0.138775 -7.6337e-20)
(-0.0521011 -0.142308 2.23054e-19)
(-0.0697276 -0.143001 5.54658e-20)
(-0.0866551 -0.141913 2.30085e-20)
(-0.102439 -0.139703 2.15574e-19)
(-0.116801 -0.136651 -8.74464e-20)
(-0.129555 -0.132718 8.94604e-20)
(-0.140546 -0.127638 -9.62983e-20)
(-0.149601 -0.120997 -5.33625e-21)
(-0.156496 -0.11231 -1.00138e-19)
(-0.160944 -0.101078 -3.36593e-19)
(-0.162577 -0.086831 6.64507e-20)
(-0.160937 -0.0691689 2.45461e-19)
(-0.155476 -0.0478016 -8.5573e-20)
(-0.145541 -0.0225928 3.6647e-19)
(-0.130387 0.00640325 -1.8967e-19)
(-0.109174 0.0389127 -4.50653e-20)
(-0.0803809 0.074273 -6.8308e-20)
(-0.0466024 0.112406 -1.46082e-21)
(0.00864375 0.154928 -5.37271e-20)
(0.00631901 -0.0232657 -1.07551e-19)
(0.0110004 -0.0591354 -1.63885e-19)
(0.00626977 -0.0869257 -8.67252e-20)
(-0.00416035 -0.10675 8.21376e-20)
(-0.0183571 -0.119794 2.52172e-20)
(-0.034694 -0.127508 1.47029e-20)
(-0.0518145 -0.131331 5.61424e-20)
(-0.0687136 -0.132523 -2.72587e-19)
(-0.084686 -0.132043 8.80892e-20)
(-0.099263 -0.130491 -1.86163e-19)
(-0.112141 -0.128125 -6.46412e-20)
(-0.123109 -0.124912 -8.95566e-20)
(-0.131988 -0.120607 -1.83696e-19)
(-0.13858 -0.114829 3.70109e-19)
(-0.142647 -0.107128 2.02999e-19)
(-0.143882 -0.0970384 5.55526e-20)
(-0.141911 -0.0841249 1.59395e-19)
(-0.136276 -0.0680208 -2.19135e-19)
(-0.126439 -0.0484674 -5.27463e-20)
(-0.111772 -0.0253589 -2.20975e-19)
(-0.0915557 0.00121668 8.29305e-20)
(-0.0651543 0.0309601 1.59252e-19)
(-0.0305952 0.0631325 7.10618e-20)
(0.00806291 0.0973319 -1.10931e-19)
(0.0707739 0.135455 1.25308e-19)
(0.00593347 -0.0204363 -3.64617e-20)
(0.0101568 -0.0524615 8.45338e-21)
(0.00522865 -0.0778166 1.09778e-19)
(-0.00517138 -0.0962719 1.9492e-19)
(-0.0191261 -0.108742 -1.30509e-19)
(-0.0350158 -0.116442 1.2472e-19)
(-0.0514814 -0.120614 -9.82335e-20)
(-0.0675072 -0.122371 3.72305e-19)
(-0.0823701 -0.122569 -2.59642e-19)
(-0.0955785 -0.12175 5.58067e-20)
(-0.106803 -0.120148 2.36645e-19)
(-0.115807 -0.117735 -3.0627e-20)
(-0.122385 -0.114287 2.48338e-20)
(-0.12632 -0.109453 -2.98055e-19)
(-0.127353 -0.102814 -2.44627e-19)
(-0.125169 -0.0939373 -1.041e-20)
(-0.119388 -0.0824185 -2.49008e-19)
(-0.10956 -0.0679183 8.20926e-20)
(-0.095166 -0.0502037 -1.16988e-19)
(-0.0756179 -0.0291908 1.35109e-19)
(-0.0502126 -0.00499253 -1.67094e-19)
(-0.0185893 0.0220718 7.99994e-20)
(0.0218536 0.051251 -6.21319e-20)
(0.0647342 0.082029 8.61105e-20)
(0.135271 0.114868 -7.94277e-21)
(0.00541433 -0.0176373 2.06367e-19)
(0.00903827 -0.0458702 5.0814e-20)
(0.00388366 -0.0688324 -1.2002e-19)
(-0.00644521 -0.08596 -1.44285e-19)
(-0.0200698 -0.0978988 9.72962e-20)
(-0.0353933 -0.105628 -3.56666e-19)
(-0.0510657 -0.110197 5.06487e-19)
(-0.0660675 -0.112572 9.614e-20)
(-0.0796611 -0.113506 1.61528e-19)
(-0.0913335 -0.113484 1.95296e-19)
(-0.10073 -0.112714 1.20503e-19)
(-0.107586 -0.111172 -8.79568e-20)
(-0.111673 -0.108651 -5.9937e-22)
(-0.112751 -0.104827 -4.18762e-20)
(-0.110549 -0.0993121 -1.19421e-19)
(-0.104741 -0.0917019 2.58235e-19)
(-0.0949497 -0.0816178 5.01478e-19)
(-0.0807386 -0.0687442 2.06004e-20)
(-0.0616182 -0.052867 1.48588e-19)
(-0.0370552 -0.0339174 -7.15999e-20)
(-0.00634859 -0.0120116 8.45638e-20)
(0.0304717 0.0125024 -4.32696e-19)
(0.077086 0.0388857 1.79712e-19)
(0.123527 0.0667439 9.9648e-20)
(0.202488 0.094154 -5.85884e-20)
(0.00477086 -0.0148927 -1.23159e-19)
(0.00766622 -0.0394125 -2.13319e-19)
(0.00226396 -0.060035 2.04272e-19)
(-0.00794673 -0.0758756 1.34771e-19)
(-0.0211471 -0.0873172 7.1204e-20)
(-0.0357783 -0.0951089 2.55857e-19)
(-0.0505102 -0.10011 -2.65827e-19)
(-0.0643255 -0.103141 -2.44027e-19)
(-0.0764758 -0.104856 -1.6009e-19)
(-0.0864275 -0.105679 -3.68889e-19)
(-0.0937999 -0.105794 6.87647e-20)
(-0.0983018 -0.105173 -2.7879e-20)
(-0.0996778 -0.103628 4.98524e-19)
(-0.0976687 -0.100856 2.00933e-19)
(-0.0919867 -0.0964969 1.40559e-19)
(-0.0823033 -0.0901702 -4.75836e-20)
(-0.0682459 -0.0815189 -2.3278e-19)
(-0.0493979 -0.0702445 -1.75233e-19)
(-0.0253031 -0.0561459 -1.87428e-19)
(0.00450291 -0.0391614 1.26598e-19)
(0.0407545 -0.0193855 2.10541e-19)
(0.0828412 0.00275946 2.12663e-19)
(0.136132 0.0266871 -1.78379e-19)
(0.185645 0.0520531 6.50611e-20)
(0.274311 0.07455 7.84418e-20)
(0.00401449 -0.0122253 -3.19518e-19)
(0.00606737 -0.0331372 1.79192e-19)
(0.000406454 -0.051483 -3.07752e-19)
(-0.00963062 -0.066077 3.77886e-19)
(-0.0223038 -0.0770487 -3.62686e-19)
(-0.0361059 -0.0849237 -1.08543e-19)
(-0.0497358 -0.0903765 -2.01262e-19)
(-0.0621839 -0.0940865 1.12735e-19)
(-0.0726932 -0.0966083 -1.91323e-19)
(-0.08071 -0.0983047 2.07493e-19)
(-0.0858266 -0.099332 -2.69143e-19)
(-0.0877223 -0.0996593 -1.94783e-19)
(-0.0861139 -0.0991076 4.32511e-21)
(-0.0807192 -0.0973947 -2.82299e-19)
(-0.0712352 -0.0941795 8.92615e-21)
(-0.0573285 -0.0891019 -2.62005e-19)
(-0.0386347 -0.0818195 -1.60344e-20)
(-0.01476 -0.0720444 -2.54955e-19)
(0.0147153 -0.0595796 8.41603e-20)
(0.0501713 -0.044366 3.2292e-19)
(0.0924308 -0.0264533 -2.87927e-19)
(0.14008 -0.00642904 1.2364e-19)
(0.200796 0.0155664 1.19543e-19)
(0.253104 0.0387855 -5.38535e-20)
(0.353331 0.057579 1.90727e-20)
(0.00315888 -0.00965727 1.65554e-19)
(0.00427357 -0.0270911 -4.71103e-20)
(-0.00164444 -0.0432327 1.0433e-19)
(-0.0114418 -0.0566198 -3.04063e-19)
(-0.0234734 -0.067141 4.85335e-19)
(-0.0362952 -0.0751083 3.18914e-20)
(-0.0486426 -0.0810175 3.50014e-19)
(-0.0595176 -0.0854102 -1.82057e-19)
(-0.068156 -0.0887431 1.22268e-19)
(-0.0739829 -0.0913177 1.59237e-19)
(-0.0765605 -0.0932595 1.44067e-19)
(-0.0755352 -0.0945289 4.45487e-19)
(-0.0705915 -0.0949523 -1.12654e-19)
(-0.0614203 -0.0942603 -1.05706e-19)
(-0.0477001 -0.0921258 -7.80945e-20)
(-0.0290913 -0.0882005 -1.77227e-21)
(-0.00523818 -0.0821499 -1.47614e-19)
(0.0242263 -0.0736889 1.31297e-19)
(0.0596823 -0.0626159 -1.5575e-19)
(0.101398 -0.0488812 5.16644e-20)
(0.150337 -0.0324419 -7.11671e-20)
(0.204068 -0.0142101 7.83716e-21)
(0.273042 0.00653411 -2.76879e-19)
(0.328089 0.0278063 2.93525e-20)
(0.441418 0.0446134 2.11261e-21)
(0.00221979 -0.00720941 2.18019e-19)
(0.00232155 -0.0213186 -1.48473e-19)
(-0.00383731 -0.0353378 -1.04758e-19)
(-0.0133161 -0.0475574 -6.41897e-20)
(-0.0245779 -0.0576407 -2.09403e-19)
(-0.0362506 -0.065697 -3.51635e-19)
(-0.0471118 -0.0720513 -1.14695e-19)
(-0.0561777 -0.0771117 3.90807e-19)
(-0.062676 -0.0812384 -1.21857e-19)
(-0.0660078 -0.0846706 -2.59213e-19)
(-0.0657013 -0.0874991 -1.54207e-19)
(-0.0613639 -0.0896705 -4.55094e-19)
(-0.0526426 -0.0910104 -4.7947e-19)
(-0.0391958 -0.0912544 3.51598e-19)
(-0.0206807 -0.0900816 6.91336e-20)
(0.00324918 -0.0871477 5.63275e-20)
(0.0329365 -0.0821183 5.20714e-19)
(0.0687107 -0.0747041 7.24511e-20)
(0.110898 -0.0646966 4.23253e-19)
(0.159612 -0.0520688 -4.65229e-19)
(0.215961 -0.0366202 2.00713e-19)
(0.276366 -0.0198005 -1.56287e-19)
(0.354062 0.000419359 2.19903e-19)
(0.412021 0.0198089 -3.04604e-19)
(0.538379 0.0363751 5.66895e-20)
(0.00121492 -0.00490153 -5.5261e-20)
(0.000252465 -0.0158623 -1.17407e-19)
(-0.00611456 -0.0278504 -1.08564e-19)
(-0.0151816 -0.038942 3.66945e-20)
(-0.0255294 -0.0485938 -5.84494e-20)
(-0.0358646 -0.0567246 2.22706e-19)
(-0.04501 -0.0634977 -7.91005e-20)
(-0.0519964 -0.0691923 -1.66741e-19)
(-0.0560413 -0.0740736 -6.88377e-20)
(-0.0565176 -0.078317 3.23807e-21)
(-0.052914 -0.0819748 4.24733e-19)
(-0.0447929 -0.084974 -3.63113e-19)
(-0.0317578 -0.087132 5.16619e-19)
(-0.0134315 -0.0881816 -1.44134e-19)
(0.01055 -0.0878002 -2.35717e-19)
(0.040533 -0.0856399 1.94637e-19)
(0.0768322 -0.0813605 -1.96804e-19)
(0.119711 -0.0746673 -3.09625e-19)
(0.169406 -0.0653436 -1.09977e-19)
(0.225811 -0.0534099 8.70259e-20)
(0.290094 -0.0384574 1.27207e-19)
(0.357574 -0.0226436 2.22796e-19)
(0.443544 -0.00237572 6.61489e-21)
(0.504693 0.0152318 1.29037e-19)
(0.641383 0.0327272 -3.59427e-20)
(0.000163717 -0.00275204 -2.70763e-20)
(-0.00188868 -0.010762 2.5716e-19)
(-0.00841337 -0.0208199 2.67255e-19)
(-0.0169598 -0.0308248 -1.20404e-19)
(-0.0262327 -0.0400465 8.49744e-20)
(-0.0350205 -0.048228 -3.13873e-19)
(-0.0421929 -0.0553801 6.24206e-20)
(-0.0467935 -0.0616582 5.01347e-20)
(-0.0480264 -0.0672344 -1.4529e-19)
(-0.0452314 -0.0722184 -3.96666e-20)
(-0.0378516 -0.0766203 -5.29697e-19)
(-0.0254 -0.0803413 1.65084e-19)
(-0.00743361 -0.0831836 -2.47187e-20)
(0.016458 -0.0848699 -8.56616e-21)
(0.0466502 -0.0850686 -2.06427e-20)
(0.0834688 -0.0834231 1.94652e-21)
(0.127165 -0.0795859 -1.0546e-20)
(0.177885 -0.0732613 2.17879e-19)
(0.235702 -0.0642273 -1.69804e-19)
(0.300214 -0.0525869 1.46632e-19)
(0.372448 -0.0377202 -1.91632e-19)
(0.446912 -0.022502 -8.37388e-20)
(0.539462 -0.00196805 1.78216e-20)
(0.603904 0.0141286 -1.15533e-19)
(0.745558 0.0328294 -3.41384e-20)
(-0.000913015 -0.000777625 -2.54762e-19)
(-0.00405387 -0.00605456 -3.27093e-20)
(-0.010667 -0.0142935 -3.28299e-19)
(-0.0185677 -0.0232557 -2.64945e-19)
(-0.0265873 -0.0320461 3.52118e-19)
(-0.0335965 -0.0402468 2.41554e-19)
(-0.0385109 -0.0477266 -1.06383e-19)
(-0.0403845 -0.0545229 -9.47262e-20)
(-0.0384036 -0.060716 -6.98388e-20)
(-0.0318704 -0.0663489 6.00892e-19)
(-0.0201786 -0.0713855 2.27644e-19)
(-0.00279025 -0.0756957 3.13885e-19)
(0.0207797 -0.0790601 -1.83057e-20)
(0.0509626 -0.0811849 5.36591e-20)
(0.0881205 -0.0817254 1.47867e-19)
(0.132517 -0.0803151 -3.38309e-19)
(0.184281 -0.0766031 5.06127e-19)
(0.243357 -0.0703027 4.6717e-20)
(0.309555 -0.0612009 -1.43169e-19)
(0.382091 -0.0495094 -1.96303e-19)
(0.461571 -0.034481 -9.8742e-20)
(0.542185 -0.019482 1.87703e-19)
(0.638465 0.00112544 -7.56696e-21)
(0.705728 0.0161117 8.28174e-20)
(0.845362 0.035508 9.44984e-20)
(-0.00199353 0.0010072 1.93979e-19)
(-0.00619296 -0.00177332 2.05864e-20)
(-0.0128061 -0.00831524 -4.37356e-20)
(-0.0199198 -0.0162833 4.7145e-20)
(-0.0264902 -0.0246403 -3.33997e-19)
(-0.0314685 -0.032824 4.4528e-19)
(-0.0338141 -0.0405715 -1.25049e-21)
(-0.0325875 -0.0478084 3.61557e-19)
(-0.0269536 -0.0545255 1.59881e-20)
(-0.016174 -0.0606979 -1.21806e-19)
(0.000406696 -0.0662401 1.88123e-19)
(0.0233724 -0.070986 -6.20696e-19)
(0.0532357 -0.0746895 -3.71245e-19)
(0.0904217 -0.0770366 -1.77417e-19)
(0.135235 -0.0776685 -7.31904e-20)
(0.187811 -0.0762125 5.44186e-21)
(0.24807 -0.0723235 -3.30507e-19)
(0.315654 -0.0657419 1.15687e-19)
(0.389977 -0.0562898 4.14712e-19)
(0.469808 -0.0442916 1.06046e-19)
(0.555057 -0.029041 2.27318e-19)
(0.640118 -0.0139922 -2.04042e-19)
(0.736609 0.00621369 -4.06027e-20)
(0.805334 0.0204343 -7.03702e-20)
(0.935976 0.0396037 -3.38104e-19)
(-0.00305571 0.00259057 -1.81838e-19)
(-0.00825481 0.00205312 9.26209e-20)
(-0.0147601 -0.00292493 1.65905e-19)
(-0.020929 -0.00995365 5.78342e-19)
(-0.0258379 -0.0178769 2.18482e-19)
(-0.0285141 -0.0260046 -4.85356e-19)
(-0.0279569 -0.0339539 -1.22452e-19)
(-0.0232302 -0.041545 -6.45943e-20)
(-0.0134749 -0.0486814 -2.10346e-19)
(0.0020869 -0.0552702 -6.90532e-20)
(0.0241543 -0.0611737 -1.38944e-19)
(0.0533419 -0.0661863 4.96508e-19)
(0.0901624 -0.0700324 5.76283e-19)
(0.134989 -0.0723769 2.80356e-19)
(0.188004 -0.0728496 -1.40211e-19)
(0.249128 -0.0710806 -9.2611e-20)
(0.317963 -0.0667467 1.93095e-19)
(0.393732 -0.0596379 -3.71073e-20)
(0.475334 -0.0496486 -1.65884e-21)
(0.561044 -0.0371998 7.98215e-20)
(0.649924 -0.0218199 -1.10285e-19)
(0.736943 -0.00663934 -1.7135e-19)
(0.830072 0.0126127 -1.02955e-19)
(0.89805 0.0261969 1.26772e-19)
(1.01417 0.0441805 3.74097e-19)
(-0.00407768 0.0039637 1.44897e-19)
(-0.0101884 0.00540162 4.96349e-19)
(-0.0164587 0.00184271 1.99525e-19)
(-0.0215093 -0.00430912 -1.77266e-19)
(-0.0245286 -0.011802 2.47746e-19)
(-0.0246146 -0.0198347 2.7342e-19)
(-0.0208012 -0.0279169 3.06275e-19)
(-0.0121539 -0.0357692 -1.7498e-20)
(0.0022097 -0.0432114 2.38376e-19)
(0.023102 -0.0500823 -7.29196e-19)
(0.0512514 -0.056191 4.07923e-19)
(0.087277 -0.0612903 -2.11251e-19)
(0.131648 -0.0650742 -5.21098e-19)
(0.184624 -0.0671888 -3.64007e-19)
(0.246175 -0.0672602 5.74678e-19)
(0.315904 -0.0649348 -1.88228e-19)
(0.392977 -0.0599333 -8.7127e-20)
(0.476091 -0.0521216 6.18045e-20)
(0.563543 -0.0415086 -2.96527e-19)
(0.653105 -0.0285898 2.17313e-19)
(0.743033 -0.013269 -3.21114e-20)
(0.829037 0.00190977 2.18763e-19)
(0.91567 0.0197256 2.31964e-19)
(0.980264 0.0325661 -7.39063e-20)
(1.07854 0.0486026 -1.3506e-19)
(-0.00503841 0.00512131 -7.55217e-20)
(-0.011944 0.00825535 -2.81588e-19)
(-0.017833 0.00595953 7.20747e-21)
(-0.0215761 0.000613233 -1.43325e-19)
(-0.0224629 -0.00645833 -4.23236e-19)
(-0.0196554 -0.0143599 -2.19295e-19)
(-0.0122182 -0.0225042 1.20578e-19)
(0.000783321 -0.0305201 -3.75007e-19)
(0.0202504 -0.0381472 2.97168e-20)
(0.0470178 -0.0451575 1.81414e-19)
(0.0818191 -0.0513053 -5.17095e-19)
(0.125239 -0.0563021 -1.68215e-19)
(0.177644 -0.0598131 4.16331e-19)
(0.239096 -0.0614719 2.70823e-19)
(0.309254 -0.0609123 -3.40223e-19)
(0.387285 -0.0578172 3.47712e-19)
(0.471811 -0.0519777 1.38962e-19)
(0.560922 -0.0433629 -2.97954e-20)
(0.652292 -0.032134 -2.88813e-20)
(0.743245 -0.018849 -2.36538e-19)
(0.831456 -0.00382751 2.41533e-20)
(0.913413 0.0110462 -3.54088e-20)
(0.991156 0.0270629 -1.86434e-19)
(1.0499 0.0389127 -1.31826e-19)
(1.12921 0.0525224 -1.16839e-19)
(-0.00591832 0.00606189 -4.7542e-20)
(-0.0134739 0.0106047 -6.25877e-19)
(-0.0188162 0.00940522 -3.88077e-19)
(-0.0210472 0.00478354 -4.96746e-19)
(-0.0195455 -0.00188274 4.40305e-19)
(-0.0135279 -0.00962011 3.54378e-20)
(-0.00208795 -0.0177555 3.19875e-19)
(0.0157082 -0.0258343 -2.92399e-19)
(0.0407713 -0.0335192 4.83324e-19)
(0.073939 -0.040517 1.797e-19)
(0.115916 -0.0465279 1.38573e-20)
(0.167198 -0.0512238 -2.69171e-20)
(0.227974 -0.0542462 -9.3434e-20)
(0.298011 -0.0552257 -8.22867e-20)
(0.376544 -0.053822 7.81229e-20)
(0.462191 -0.0497785 1.06965e-19)
(0.552944 -0.0429877 -6.61158e-19)
(0.646259 -0.0335487 3.76443e-20)
(0.73925 -0.0217981 -9.79331e-20)
(0.828936 -0.00835679 -8.25155e-20)
(0.91276 0.00609749 3.82224e-20)
(0.988004 0.0202793 -2.30251e-19)
(1.05533 0.0342498 9.33341e-20)
(1.10639 0.0448541 1.12462e-19)
(1.16743 0.0558192 -2.57607e-19)
(-0.00669976 0.00678781 1.11453e-19)
(-0.0147332 0.0124476 4.53297e-19)
(-0.0193442 0.0121686 3.92128e-20)
(-0.0198429 0.00818135 7.22091e-19)
(-0.0156829 0.00189745 -4.59479e-19)
(-0.00612843 -0.00564605 4.51117e-19)
(0.00970159 -0.0137023 -4.04719e-19)
(0.0327339 -0.0217395 1.59403e-19)
(0.0638742 -0.0293481 -2.04283e-19)
(0.103935 -0.036171 2.67777e-19)
(0.153545 -0.0418577 4.3869e-19)
(0.213044 -0.0460442 2.22591e-19)
(0.282352 -0.0483565 8.85056e-20)
(0.360833 -0.048438 9.55107e-20)
(0.447181 -0.0459972 -6.60726e-20)
(0.539373 -0.0408684 -5.5083e-20)
(0.634731 -0.0330766 5.36238e-19)
(0.730119 -0.0228743 1.66303e-19)
(0.822253 -0.0107758 4.30317e-19)
(0.908076 0.00253652 1.18473e-20)
(0.985193 0.0161446 -2.33646e-19)
(1.05173 0.029248 2.78795e-19)
(1.10799 0.0410336 3.26304e-19)
(1.1504 0.050234 3.94292e-20)
(1.19499 0.0585344 2.5304e-19)
(-0.00736738 0.00730521 -3.16581e-19)
(-0.0156808 0.0137903 1.76061e-19)
(-0.0193558 0.0142485 3.88209e-19)
(-0.0178853 0.0107975 -1.53041e-19)
(-0.0107834 0.00486672 -4.57483e-19)
(0.00264584 -0.00245669 -3.39545e-20)
(0.0232582 -0.0103623 2.47217e-20)
(0.0519644 -0.018248 4.43495e-20)
(0.0896436 -0.0256362 -2.83311e-19)
(0.137044 -0.0321099 -1.18866e-19)
(0.194662 -0.0372712 -4.09476e-19)
(0.262597 -0.0407279 -8.9256e-21)
(0.340395 -0.0421042 -1.0842e-19)
(0.426902 -0.0410779 -3.19305e-20)
(0.520169 -0.0374362 2.6878e-19)
(0.617472 -0.0311375 -3.80122e-19)
(0.715488 -0.0223675 1.54409e-19)
(0.810625 -0.0115446 -2.26748e-19)
(0.899444 0.000659505 -3.15278e-19)
(0.979112 0.0135177 6.01531e-20)
(1.04776 0.0260121 5.14621e-19)
(1.10441 0.0377091 -2.44544e-19)
(1.14976 0.0472863 1.54021e-20)
(1.18334 0.0550634 1.94826e-19)
(1.2139 0.0607537 1.05228e-19)
(-0.00790824 0.0076237 1.49087e-19)
(-0.0162784 0.0146464 -2.12499e-19)
(-0.0187922 0.015655 -4.51871e-19)
(-0.0150977 0.0126361 -2.40758e-19)
(-0.00475518 0.00702461 2.63927e-19)
(0.0128978 -5.35937e-05 8.9986e-20)
(0.038689 -0.00773365 5.26593e-19)
(0.0734992 -0.0153499 2.13209e-19)
(0.118152 -0.0223615 1.34147e-19)
(0.173283 -0.0282958 6.22751e-20)
(0.23918 -0.032715 4.23566e-19)
(0.315609 -0.0352103 1.87817e-19)
(0.401627 -0.0354246 -1.51023e-19)
(0.495449 -0.0330991 2.11344e-19)
(0.594405 -0.0281346 -1.16259e-19)
(0.69507 -0.0206469 1.39644e-19)
(0.793583 -0.0110013 -1.28795e-19)
(0.886119 0.000223329 -2.68852e-19)
(0.969392 0.0122406 3.65023e-19)
(1.04111 0.024318 -3.56864e-19)
(1.10019 0.0354674 9.82007e-20)
(1.14663 0.0455241 -1.03173e-19)
(1.18184 0.0529945 -7.36088e-20)
(1.20699 0.0594164 -5.79809e-19)
(1.22619 0.0623891 9.39912e-20)
(-0.00831176 0.00775584 3.03657e-20)
(-0.0164913 0.0150375 1.52512e-19)
(-0.0175963 0.0164091 5.07179e-19)
(-0.0114026 0.0137157 -1.19817e-19)
(0.00249608 0.00838838 -5.23234e-20)
(0.0247334 0.00158254 9.76122e-20)
(0.0561033 -0.00579049 8.70899e-20)
(0.0974367 -0.0130077 -3.42378e-19)
(0.149463 -0.0194704 -1.58042e-19)
(0.212643 -0.0246575 -4.84715e-19)
(0.286971 -0.028102 -3.61625e-19)
(0.371765 -0.0293973 -2.5316e-19)
(0.46548 -0.0282329 2.18174e-19)
(0.565601 -0.0244494 -3.13399e-19)
(0.668706 -0.018099 -1.44341e-19)
(0.770746 -0.0094815 -6.20241e-20)
(0.867516 0.000856214 -4.01424e-20)
(0.955256 0.0122024 8.07638e-19)
(1.03116 0.0237182 4.92922e-20)
(1.09373 0.0347216 -6.68841e-20)
(1.14285 0.044353 -3.35764e-19)
(1.17944 0.0526487 1.04264e-19)
(1.20566 0.0582222 5.77104e-21)
(1.22318 0.0632747 3.42172e-19)
(1.23416 0.0633604 4.19131e-20)
(-0.00856939 0.00771647 2.41671e-19)
(-0.016287 0.0149916 -2.32694e-19)
(-0.0157115 0.0165433 -3.54323e-19)
(-0.00672115 0.0140705 3.56636e-19)
(0.0110686 0.00899496 -8.00639e-20)
(0.0382641 0.00249478 -6.94954e-20)
(0.0756151 -0.00447897 6.04046e-20)
(0.123875 -0.011152 -8.64825e-20)
(0.18363 -0.0168751 2.15989e-19)
(0.25509 -0.0210886 1.39472e-19)
(0.337852 -0.0233133 3.55829e-19)
(0.430672 -0.0231717 -8.34187e-21)
(0.531285 -0.0204356 2.77282e-19)
(0.636389 -0.0150867 -2.04081e-20)
(0.741847 -0.0073625 2.74636e-19)
(0.843144 0.00224051 7.37584e-20)
(0.936013 0.0130145 -4.77091e-19)
(1.01708 0.0241659 -2.1953e-19)
(1.08432 0.0348759 -4.8456e-20)
(1.13721 0.0445736 1.28657e-19)
(1.17658 0.0525852 -6.07386e-20)
(1.2042 0.0591193 -1.94636e-19)
(1.22273 0.0630313 2.52698e-20)
(1.23371 0.0665261 -1.59289e-19)
(1.24079 0.0651982 -7.38781e-20)
(-0.00867402 0.00752201 1.48147e-19)
(-0.0156347 0.0145424 1.58475e-19)
(-0.013081 0.0161005 2.90959e-19)
(-0.00097113 0.0137502 -2.12167e-19)
(0.021066 0.008902 1.54249e-20)
(0.0536074 0.00275175 4.26816e-19)
(0.0973421 -0.00371528 -1.22605e-19)
(0.152909 -0.00968027 -4.07824e-19)
(0.220689 -0.0144527 -2.39979e-19)
(0.300549 -0.0174499 3.19681e-19)
(0.391577 -0.0182051 -6.55609e-19)
(0.491839 -0.016405 3.88362e-21)
(0.59827 -0.0119475 -5.1281e-20)
(0.706772 -0.00499593 3.91093e-19)
(0.81261 0.00400324 -1.99356e-19)
(0.911053 0.014366 2.7034e-19)
(0.998095 0.0252687 2.58194e-19)
(1.07107 0.0359034 -4.34896e-19)
(1.12892 0.0455449 -1.71337e-19)
(1.17216 0.0537816 -1.33892e-19)
(1.20249 0.0601498 1.97698e-19)
(1.22231 0.0650181 2.93933e-19)
(1.23445 0.0674304 1.27588e-19)
(1.24055 0.0696081 -1.09641e-19)
(1.24448 0.067346 -1.92121e-19)
(-0.00861931 0.00718959 -3.50149e-20)
(-0.014504 0.0137281 1.48273e-19)
(-0.00964619 0.0151336 -2.95079e-19)
(0.00593346 0.0128202 -4.53968e-19)
(0.0325972 0.00818805 -6.74628e-19)
(0.0708858 0.00244805 1.1482e-19)
(0.121403 -0.0033855 -1.35927e-19)
(0.184625 -0.00845735 1.98952e-19)
(0.260649 -0.012049 7.39594e-20)
(0.348895 -0.0135771 1.41364e-19)
(0.447813 -0.0126206 1.55792e-19)
(0.554678 -0.00897417 -8.32185e-20)
(0.665571 -0.00270858 -1.19044e-19)
(0.775671 0.00579722 -2.57685e-19)
(0.879852 0.0158842 7.87517e-20)