/*--------------------------------*- C++ -*----------------------------------*\
  =========                 |
  \\      /  F ield         | OpenFOAM: The Open Source CFD Toolbox
   \\    /   O peration     | Website:  https://openfoam.org
    \\  /    A nd           | Version:  7
     \\/     M anipulation  |
\*---------------------------------------------------------------------------*/
FoamFile
{
    version     2.0;
    format      ascii;
    class       volScalarField;
    location    "95";
    object      p;
}
// * * * * * * * * * * * * * * * * * * * * * * * * * * * * * * * * * * * * * //

dimensions      [0 2 -2 0 0 0 0];

internalField   nonuniform List<scalar> 
1987
(
-0.299284
-0.294139
-0.287841
-0.280535
-0.241809
-0.225904
-0.208215
-0.189016
-0.168619
-0.147359
-0.125581
-0.103623
-0.0818034
-0.0604227
-0.0397614
-0.0200826
-0.00163375
0.0153569
0.0306722
0.0440944
0.0552032
0.0639523
0.0698799
0.0728884
0.0727579
0.0692355
0.0621009
0.0512065
0.0365141
0.0181407
-0.00358907
-0.0280499
-0.0542167
-0.0807216
-0.106056
-0.128694
-0.147011
-0.159212
-0.163737
-0.161155
-0.152291
-0.138773
-0.12244
-0.104934
-0.0875123
-0.0710039
-0.0558696
-0.042302
-0.0303167
-0.0198342
-0.0107338
-0.00287171
0.00389525
0.00967317
0.014528
0.0184917
0.0215298
0.0234786
0.0241523
0.0236356
-0.230587
-0.21558
-0.198931
-0.180879
-0.1617
-0.141696
-0.121174
-0.100442
-0.0797944
-0.0595131
-0.0398613
-0.0210873
-0.00342612
0.012889
0.027647
0.0405963
0.0515167
0.0601593
0.0661705
0.0693718
0.0695106
0.0663339
0.0596267
0.0492433
0.035153
0.0174886
-0.0034023
-0.0268696
-0.0518761
-0.0770525
-0.100894
-0.121907
-0.138536
-0.14915
-0.152977
-0.150124
-0.141607
-0.128935
-0.113756
-0.097519
-0.0813247
-0.0659013
-0.0516653
-0.0388015
-0.0273421
-0.0172352
-0.00838499
-0.000669373
0.00602703
0.0117867
0.0166824
0.0207774
0.024048
0.0263014
0.0272763
0.0269595
-0.219474
-0.205372
-0.189756
-0.172835
-0.154854
-0.13608
-0.116793
-0.0972716
-0.0777907
-0.0586127
-0.0399875
-0.0221515
-0.00533146
0.0102476
0.0244007
0.0370235
0.0474094
0.0557131
0.0615562
0.0646984
0.0648818
0.0618615
0.0554371
0.0454863
0.0320104
0.0151806
-0.00461651
-0.0267068
-0.0500732
-0.0734126
-0.095296
-0.114333
-0.129204
-0.138501
-0.141551
-0.13864
-0.130709
-0.119068
-0.105148
-0.0902139
-0.0752356
-0.0608686
-0.0475015
-0.0353215
-0.0243795
-0.0146486
-0.00605695
0.00149535
0.00810219
0.0138291
0.018746
0.022931
0.0263687
0.0288555
0.030087
0.029962
-0.208922
-0.195685
-0.181054
-0.165212
-0.148375
-0.130781
-0.112683
-0.0943349
-0.0759905
-0.0578947
-0.0402832
-0.0233817
-0.00740789
0.00742534
0.0209357
0.0329232
0.0429354
0.0509099
0.0565552
0.0596237
0.0598621
0.0570341
0.050954
0.0415222
0.0287701
0.0129028
-0.00566229
-0.0262421
-0.0478559
-0.069282
-0.0892043
-0.106375
-0.119571
-0.127616
-0.130085
-0.12725
-0.11995
-0.109337
-0.0966497
-0.0829862
-0.0691955
-0.0558641
-0.0433535
-0.0318528
-0.0214295
-0.0120792
-0.00375398
0.00362436
0.0101328
0.0158224
0.0207504
0.0249945
0.0285538
0.0312408
0.0327402
0.032877
-0.0997584
-0.0882975
-0.0758805
-0.063248
-0.0509261
-0.039254
-0.0284232
-0.0185169
-0.0095512
-0.00150054
0.00569256
0.0120902
0.0177313
0.022657
0.0269361
0.0305821
0.0334359
0.0351916
0.0356165
-0.313824
-0.308412
-0.30149
-0.293189
-0.283783
-0.27369
-0.263454
-0.253712
-0.245143
-0.238405
-0.234067
-0.232506
-0.233828
-0.237779
-0.243741
-0.250704
-0.257369
-0.262577
-0.265007
-0.263528
-0.257452
-0.246757
-0.231857
-0.213795
-0.194031
-0.174168
-0.155645
-0.13953
-0.126461
-0.116706
-0.110307
-0.107266
-0.107718
-0.111994
-0.12038
-0.132613
-0.147471
-0.162772
-0.175831
-0.184097
-0.185727
-0.180105
-0.168094
-0.151718
-0.133538
-0.115873
-0.100309
-0.087632
-0.078048
-0.0714736
-0.0677143
-0.0665432
-0.0678475
-0.0718434
-0.0790278
-0.0895807
-0.102614
-0.115968
-0.12675
-0.132335
-0.328094
-0.322398
-0.314833
-0.30552
-0.294737
-0.282919
-0.270642
-0.258585
-0.247478
-0.238035
-0.230898
-0.22654
-0.225185
-0.226702
-0.230587
-0.23593
-0.241488
-0.24608
-0.248473
-0.247443
-0.242247
-0.232874
-0.219626
-0.203444
-0.18566
-0.167748
-0.151056
-0.136604
-0.125018
-0.116583
-0.111381
-0.109472
-0.111075
-0.116585
-0.126283
-0.139809
-0.15579
-0.171904
-0.185378
-0.193623
-0.194782
-0.188288
-0.175092
-0.157383
-0.13788
-0.119001
-0.102374
-0.08878
-0.0783947
-0.0710939
-0.0666489
-0.0648081
-0.0654239
-0.0686559
-0.0749618
-0.0845545
-0.0966531
-0.109244
-0.119581
-0.125142
-0.341873
-0.335875
-0.327653
-0.31732
-0.30516
-0.291629
-0.277333
-0.262994
-0.249385
-0.237265
-0.227345
-0.220182
-0.216114
-0.215129
-0.216856
-0.220436
-0.224809
-0.228801
-0.231093
-0.230489
-0.226182
-0.218163
-0.206597
-0.192333
-0.176567
-0.160648
-0.14583
-0.133077
-0.123004
-0.115909
-0.111916
-0.111154
-0.113927
-0.120688
-0.131703
-0.146507
-0.16358
-0.180473
-0.194342
-0.202564
-0.203277
-0.195947
-0.181617
-0.162633
-0.141865
-0.121827
-0.104184
-0.0897113
-0.0785562
-0.0705553
-0.0654463
-0.0629532
-0.0628959
-0.0653798
-0.0708196
-0.0794587
-0.0906247
-0.102453
-0.112345
-0.117881
-0.348628
-0.339742
-0.328392
-0.314872
-0.29966
-0.283393
-0.266831
-0.250792
-0.236061
-0.223415
-0.213487
-0.206711
-0.203192
-0.202704
-0.204463
-0.207406
-0.210887
-0.213033
-0.212785
-0.209359
-0.202703
-0.192828
-0.180496
-0.166765
-0.152859
-0.139935
-0.128903
-0.120358
-0.114614
-0.111838
-0.112235
-0.116196
-0.124226
-0.136559
-0.152623
-0.170753
-0.188391
-0.202637
-0.210843
-0.211143
-0.203031
-0.187635
-0.167447
-0.145482
-0.124349
-0.105744
-0.0904371
-0.0785471
-0.0698752
-0.0641264
-0.0610009
-0.0602891
-0.0620442
-0.0666357
-0.0743324
-0.0845717
-0.09564
-0.105084
-0.110589
-0.360459
-0.350909
-0.338556
-0.323706
-0.306865
-0.288703
-0.270008
-0.25164
-0.2344
-0.219117
-0.206509
-0.197072
-0.191026
-0.188302
-0.188183
-0.189759
-0.192141
-0.194517
-0.194462
-0.191877
-0.186573
-0.178376
-0.167967
-0.156266
-0.144372
-0.133344
-0.124037
-0.117022
-0.112631
-0.111077
-0.112647
-0.117815
-0.12713
-0.140781
-0.15808
-0.177229
-0.195578
-0.210188
-0.218392
-0.218323
-0.209495
-0.193112
-0.171805
-0.148724
-0.126568
-0.107063
-0.0909696
-0.0783831
-0.0690713
-0.0627089
-0.0589733
-0.0576278
-0.0586769
-0.0624421
-0.0692127
-0.0785342
-0.0888454
-0.0978404
-0.103303
-0.371186
-0.360981
-0.347653
-0.331523
-0.313125
-0.293163
-0.272451
-0.251883
-0.232278
-0.214478
-0.199325
-0.187293
-0.178765
-0.173832
-0.171777
-0.171896
-0.172862
-0.175749
-0.175651
-0.173846
-0.169844
-0.163296
-0.154783
-0.145084
-0.13518
-0.126034
-0.118439
-0.112946
-0.109902
-0.109576
-0.112334
-0.118732
-0.129345
-0.144308
-0.162812
-0.182938
-0.201965
-0.216928
-0.225151
-0.22477
-0.215302
-0.198024
-0.175691
-0.151586
-0.128488
-0.108148
-0.0913218
-0.0780796
-0.0681611
-0.0612131
-0.0568916
-0.0549353
-0.0553036
-0.058269
-0.0641338
-0.0725497
-0.0821082
-0.0906501
-0.0960568
-0.380663
-0.369832
-0.355583
-0.338246
-0.318382
-0.29673
-0.274107
-0.251489
-0.229688
-0.20955
-0.192045
-0.177491
-0.166552
-0.15948
-0.15544
-0.154031
-0.154223
-0.155981
-0.156461
-0.155368
-0.152598
-0.147653
-0.14098
-0.133237
-0.125282
-0.117985
-0.112076
-0.108088
-0.106383
-0.10729
-0.111254
-0.118905
-0.130829
-0.147093
-0.166768
-0.187827
-0.207497
-0.222804
-0.231075
-0.230442
-0.220421
-0.202348
-0.179095
-0.154065
-0.130112
-0.109011
-0.0915071
-0.0776527
-0.0671621
-0.0596576
-0.0547759
-0.0522333
-0.0519484
-0.0541436
-0.0591271
-0.0666525
-0.075464
-0.0835481
-0.0888837
-0.388815
-0.377394
-0.362285
-0.343828
-0.3226
-0.299373
-0.275016
-0.250483
-0.22665
-0.20435
-0.184742
-0.167805
-0.154558
-0.145468
-0.139369
-0.136364
-0.13558
-0.136258
-0.13709
-0.136544
-0.134957
-0.131513
-0.126601
-0.120744
-0.114681
-0.109184
-0.104926
-0.102416
-0.102043
-0.104191
-0.109384
-0.118311
-0.131556
-0.149103
-0.169907
-0.191851
-0.21213
-0.227778
-0.236129
-0.23531
-0.224827
-0.206069
-0.182011
-0.156163
-0.131448
-0.109661
-0.0915393
-0.077118
-0.0660911
-0.0580604
-0.0526452
-0.0495422
-0.048633
-0.0500907
-0.054221
-0.0608735
-0.0689447
-0.076566
-0.0818115
-0.395567
-0.383605
-0.367716
-0.348243
-0.325783
-0.301129
-0.275179
-0.248915
-0.223258
-0.199137
-0.177374
-0.158234
-0.142852
-0.132069
-0.123784
-0.119147
-0.117155
-0.116876
-0.117586
-0.117591
-0.117032
-0.114951
-0.111698
-0.107637
-0.103389
-0.0996317
-0.0969775
-0.0959196
-0.0968693
-0.100269
-0.106718
-0.116945
-0.131514
-0.15032
-0.172207
-0.194985
-0.215837
-0.231822
-0.240288
-0.239352
-0.228507
-0.209178
-0.184434
-0.157882
-0.132504
-0.11011
-0.0914323
-0.0764909
-0.0649645
-0.0564384
-0.0505172
-0.0468806
-0.0453773
-0.0461319
-0.0494406
-0.0552404
-0.062579
-0.0697321
-0.0748665
-0.400874
-0.388433
-0.371858
-0.351496
-0.327954
-0.302037
-0.274684
-0.246893
-0.219622
-0.193797
-0.170153
-0.149247
-0.131251
-0.119466
-0.10884
-0.102649
-0.0991874
-0.0979431
-0.0982958
-0.0986798
-0.0989351
-0.0980529
-0.09634
-0.0939623
-0.0914359
-0.0893445
-0.0882418
-0.0886053
-0.090871
-0.0955382
-0.103268
-0.114817
-0.130707
-0.150739
-0.173656
-0.197215
-0.218605
-0.234923
-0.243538
-0.242559
-0.231452
-0.211672
-0.186367
-0.159229
-0.133289
-0.110371
-0.0912
-0.0757864
-0.0637978
-0.0548074
-0.0484083
-0.0442654
-0.0421984
-0.0422863
-0.0448077
-0.0497774
-0.0563922
-0.0630717
-0.0680742
-0.404722
-0.391876
-0.374726
-0.353616
-0.329158
-0.302176
-0.273631
-0.244534
-0.215862
-0.188533
-0.16328
-0.140739
-0.121355
-0.10678
-0.0944498
-0.0870407
-0.081856
-0.0797183
-0.0795549
-0.079953
-0.0809
-0.0809389
-0.0806279
-0.079792
-0.0788745
-0.0783629
-0.0787525
-0.080506
-0.0840824
-0.0900331
-0.0990685
-0.111953
-0.129153
-0.15037
-0.174259
-0.198542
-0.220434
-0.23708
-0.245881
-0.244928
-0.23366
-0.21355
-0.187813
-0.16021
-0.133814
-0.110456
-0.0908557
-0.0750186
-0.0626055
-0.0531821
-0.0463333
-0.0417117
-0.0391119
-0.03857
-0.0403409
-0.0445054
-0.0504061
-0.0566065
-0.0614568
-0.407126
-0.393956
-0.37635
-0.354648
-0.329466
-0.301635
-0.272125
-0.241955
-0.21211
-0.183499
-0.156867
-0.13287
-0.112044
-0.0952691
-0.0816084
-0.0721388
-0.0652632
-0.0625933
-0.0614268
-0.0616584
-0.0629103
-0.0638056
-0.064694
-0.0652284
-0.065788
-0.0667574
-0.0685732
-0.0716819
-0.0765629
-0.0838114
-0.0941708
-0.108395
-0.126882
-0.149235
-0.174032
-0.198981
-0.221338
-0.238307
-0.247325
-0.246468
-0.235138
-0.214819
-0.18878
-0.160837
-0.13409
-0.110377
-0.0904126
-0.0742009
-0.0614012
-0.051576
-0.0443055
-0.0392329
-0.0361309
-0.0349963
-0.0360554
-0.039442
-0.0446392
-0.0503551
-0.0550317
-0.408115
-0.39471
-0.37678
-0.35466
-0.328959
-0.300506
-0.270271
-0.23927
-0.20849
-0.178828
-0.151037
-0.125771
-0.103576
-0.0850296
-0.0699051
-0.0585794
-0.0504877
-0.0461694
-0.0442418
-0.0440675
-0.0453761
-0.0468806
-0.0487049
-0.0504122
-0.0522965
-0.0546329
-0.0577997
-0.0622229
-0.0683983
-0.0769521
-0.0886439
-0.104199
-0.123937
-0.147366
-0.173003
-0.198558
-0.221341
-0.238626
-0.247884
-0.247193
-0.235897
-0.21549
-0.189279
-0.16112
-0.13413
-0.110146
-0.0898833
-0.0733458
-0.0601973
-0.0500012
-0.0423367
-0.0368405
-0.0332666
-0.031576
-0.0319633
-0.0346016
-0.039107
-0.044333
-0.0488147
-0.394197
-0.376083
-0.353723
-0.327716
-0.298877
-0.268164
-0.236584
-0.205113
-0.174635
-0.145902
-0.119559
-0.0961375
-0.0760977
-0.0595172
-0.046552
-0.0371034
-0.0312316
-0.0282859
-0.0274549
-0.02856
-0.0303923
-0.0328607
-0.0355247
-0.0385591
-0.0421314
-0.0465605
-0.0522481
-0.0596979
-0.069553
-0.0825708
-0.0994313
-0.12037
-0.144807
-0.171211
-0.19731
-0.220478
-0.238071
-0.247602
-0.247127
-0.235955
-0.215576
-0.189323
-0.161073
-0.133947
-0.109777
-0.0892795
-0.0724649
-0.059005
-0.0484686
-0.0404372
-0.0345444
-0.0305282
-0.0283176
-0.0280736
-0.0299953
-0.0338219
-0.0385531
-0.0428189
-0.392488
-0.374332
-0.351916
-0.325817
-0.29683
-0.26589
-0.233983
-0.202066
-0.171008
-0.14155
-0.114324
-0.0898473
-0.0685318
-0.0505855
-0.0361303
-0.025265
-0.0179093
-0.0137622
-0.0120695
-0.0126953
-0.0146283
-0.0173869
-0.0207834
-0.0247716
-0.0294293
-0.0350151
-0.0419028
-0.0505921
-0.0617271
-0.0760455
-0.0941684
-0.116243
-0.141609
-0.168703
-0.195281
-0.218795
-0.236684
-0.246506
-0.246298
-0.235336
-0.215097
-0.188928
-0.160711
-0.133554
-0.109282
-0.0886126
-0.0715686
-0.0578342
-0.0469876
-0.0386159
-0.0323529
-0.0279233
-0.0252276
-0.0243926
-0.0256315
-0.0287936
-0.0330253
-0.0370545
-0.389662
-0.371609
-0.349317
-0.323339
-0.294438
-0.263518
-0.231533
-0.199413
-0.168006
-0.138039
-0.110128
-0.0847748
-0.0623748
-0.043193
-0.0273758
-0.0151036
-0.00629965
-0.000844517
0.00187368
0.00199893
0.000327238
-0.00252669
-0.00643385
-0.0111584
-0.0167302
-0.0233486
-0.0313528
-0.0412264
-0.0535985
-0.0691698
-0.0884913
-0.111622
-0.137829
-0.165531
-0.192524
-0.216341
-0.234511
-0.244638
-0.244741
-0.234064
-0.214074
-0.188114
-0.160049
-0.132964
-0.108672
-0.0878927
-0.0706662
-0.0566937
-0.0455664
-0.0368804
-0.0302724
-0.0254575
-0.0223103
-0.0209243
-0.0215156
-0.0240294
-0.0277575
-0.0315293
-0.385809
-0.367999
-0.346009
-0.320356
-0.291767
-0.261102
-0.229278
-0.19719
-0.165658
-0.135393
-0.106992
-0.0809455
-0.0576407
-0.0373703
-0.0203167
-0.00669563
0.00351452
0.0103305
0.0142015
0.0152732
0.0141782
0.0114215
0.00726879
0.00204045
-0.00425578
-0.0117623
-0.0207771
-0.0317557
-0.0452967
-0.0620487
-0.0824842
-0.106575
-0.133528
-0.161752
-0.189093
-0.213171
-0.231604
-0.242042
-0.242493
-0.232173
-0.212532
-0.186899
-0.159103
-0.132192
-0.107958
-0.0871293
-0.069766
-0.055591
-0.0442119
-0.0352366
-0.0283083
-0.023135
-0.0195686
-0.0176703
-0.0176502
-0.0195339
-0.0227549
-0.0262492
-0.381028
-0.363598
-0.342075
-0.316941
-0.288873
-0.258683
-0.227242
-0.195406
-0.163963
-0.133602
-0.104903
-0.0783431
-0.0543078
-0.0331032
-0.0149442
-6.47765e-05
0.0114918
0.0196755
0.0247818
0.0269324
0.0265999
0.0242068
0.0200807
0.0145859
0.00776788
-0.000462621
-0.0103585
-0.022337
-0.0369518
-0.0547872
-0.0762318
-0.101174
-0.12877
-0.157427
-0.185049
-0.209343
-0.228017
-0.238768
-0.239595
-0.229693
-0.210499
-0.185307
-0.157893
-0.13125
-0.107151
-0.0863312
-0.0688754
-0.0545324
-0.0429298
-0.0336896
-0.0264642
-0.0209585
-0.0170038
-0.0146306
-0.014036
-0.0153097
-0.0180211
-0.0212173
-0.358504
-0.337603
-0.313162
-0.285804
-0.256289
-0.225434
-0.194051
-0.162894
-0.132626
-0.10381
-0.0769138
-0.0523175
-0.030336
-0.0112094
0.00481582
0.017638
0.0271577
0.0335364
0.0368508
0.0374304
0.0356349
0.0317833
0.0262549
0.019125
0.0103509
-0.000274467
-0.013122
-0.0286891
-0.0474866
-0.0698165
-0.0954893
-0.123617
-0.152618
-0.180452
-0.204917
-0.223806
-0.234865
-0.236088
-0.226661
-0.208002
-0.18336
-0.156434
-0.130153
-0.106261
-0.085506
-0.0680004
-0.0535231
-0.0417244
-0.0322429
-0.0247428
-0.0189293
-0.0146156
-0.0118036
-0.0106714
-0.0113572
-0.0135577
-0.0164357
-0.352822
-0.332681
-0.309085
-0.282605
-0.253937
-0.223846
-0.193094
-0.1624
-0.132399
-0.103638
-0.0765713
-0.0515781
-0.0289767
-0.00902593
0.00801811
0.0220058
0.0327979
0.0404454
0.0449691
0.0465773
0.0455567
0.0421986
0.0368558
0.0296237
0.0204971
0.00931242
-0.00425032
-0.0206246
-0.0402416
-0.0633165
-0.0895878
-0.118132
-0.147384
-0.175362
-0.199954
-0.219029
-0.230386
-0.232017
-0.223112
-0.205072
-0.181082
-0.154745
-0.128912
-0.105297
-0.0846602
-0.067146
-0.0525669
-0.0405988
-0.0308989
-0.0231454
-0.0170473
-0.0124028
-0.00918615
-0.00755327
-0.00767501
-0.00936494
-0.0119058
-0.346662
-0.327398
-0.304777
-0.279311
-0.251638
-0.222461
-0.192494
-0.162417
-0.132839
-0.104286
-0.0772055
-0.051971
-0.0289033
-0.00827419
0.00965239
0.0246897
0.0366661
0.0455435
0.0512849
0.0539928
0.0538799
0.0512003
0.0462399
0.0391073
0.029823
0.0182618
0.00415569
-0.0128611
-0.0331373
-0.0568042
-0.0835342
-0.112377
-0.141785
-0.169839
-0.194511
-0.213745
-0.225383
-0.227426
-0.219085
-0.201741
-0.178498
-0.152845
-0.12754
-0.104267
-0.0837992
-0.066316
-0.0516664
-0.0395549
-0.0296588
-0.0216723
-0.0153112
-0.0103625
-0.00677402
-0.00467674
-0.00426033
-0.00544189
-0.0076278
-0.00999788
-0.340135
-0.321841
-0.300298
-0.275958
-0.249395
-0.221254
-0.1922
-0.162872
-0.133849
-0.105643
-0.0786895
-0.0533584
-0.0299715
-0.00880907
0.00985931
0.0258195
0.0388731
0.0489133
0.0558483
0.0596799
0.0605752
0.0587175
0.0543076
0.0474608
0.0382103
0.0264614
0.0119955
-0.00548512
-0.0262481
-0.0503446
-0.0773885
-0.106408
-0.135879
-0.163941
-0.188644
-0.20801
-0.219903
-0.222358
-0.214617
-0.19804
-0.175634
-0.150751
-0.12605
-0.103179
-0.0829288
-0.0655143
-0.0508244
-0.0385946
-0.0285238
-0.0203234
-0.0137196
-0.00849165
-0.00456242
-0.0020362
-0.00110906
-0.00178658
-0.0036012
-0.00579392
-0.316099
-0.295708
-0.272574
-0.247209
-0.220199
-0.192158
-0.163684
-0.135331
-0.107591
-0.0808887
-0.0555925
-0.0320238
-0.0104681
0.0088013
0.0255509
0.0395624
0.0506762
0.0587555
0.0637049
0.0656806
0.064734
0.061009
0.0546138
0.0455786
0.0338299
0.0191928
0.00143426
-0.0196359
-0.0439949
-0.0712054
-0.100281
-0.129721
-0.157723
-0.182409
-0.201869
-0.213991
-0.216853
-0.209746
-0.194002
-0.172516
-0.148484
-0.124455
-0.102044
-0.0820564
-0.0647466
-0.0500451
-0.0377208
-0.0274957
-0.0190994
-0.0122712
-0.00678701
-0.00254648
0.000374263
0.00178351
0.00160351
0.000175444
-0.00181469
-0.310253
-0.291064
-0.269189
-0.245082
-0.219271
-0.192319
-0.164783
-0.137191
-0.110015
-0.0836725
-0.0585281
-0.0349021
-0.0130834
0.00665163
0.0240563
0.0388996
0.0509815
0.0601387
0.0662541
0.0692902
0.0692802
0.0663396
0.0605385
0.0518855
0.0403175
0.025696
0.00784661
-0.0133496
-0.0378035
-0.065034
-0.0940445
-0.123362
-0.151238
-0.175858
-0.195364
-0.207686
-0.210951
-0.204506
-0.189659
-0.169168
-0.14606
-0.122768
-0.100869
-0.0811858
-0.0640146
-0.0493286
-0.0369325
-0.026573
-0.0179981
-0.0109624
-0.00524298
-0.000719199
0.00256251
0.00442409
0.00473276
0.00370559
0.00194174
-0.304381
-0.286416
-0.265831
-0.243018
-0.218449
-0.192637
-0.166102
-0.139342
-0.112813
-0.0869221
-0.0620307
-0.0384583
-0.016496
0.00357894
0.0215115
0.0370609
0.0499947
0.0601442
0.067644
0.0715086
0.0724188
0.0703323
0.0652442
0.0571224
0.0459037
0.0314772
0.0137195
-0.00742521
-0.0318098
-0.058917
-0.0877457
-0.116851
-0.144534
-0.169035
-0.188543
-0.201028
-0.204686
-0.19893
-0.185036
-0.165607
-0.143485
-0.120983
-0.0996402
-0.0803004
-0.0633005
-0.0486578
-0.0362135
-0.0257405
-0.0170055
-0.00977945
-0.00384527
0.000934158
0.00454308
0.00682517
0.00761016
0.0069967
0.0054822
-0.281792
-0.262498
-0.240989
-0.217681
-0.193041
-0.167548
-0.141673
-0.115854
-0.0904925
-0.0659427
-0.0425248
-0.0205311
-0.000238344
0.0180948
0.0342252
0.0478927
0.0589117
0.0675545
0.0723788
0.0742312
0.0730534
0.068773
0.0613098
0.0505927
0.0365289
0.0190362
-0.00188722
-0.0260449
-0.0528915
-0.0814255
-0.11023
-0.137654
-0.161982
-0.181441
-0.194065
-0.198108
-0.193067
-0.180172
-0.161852
-0.140759
-0.119086
-0.0983379
-0.0793773
-0.0625815
-0.048011
-0.0355443
-0.0249807
-0.016106
-0.00870752
-0.00257841
0.00242977
0.00633201
0.00900034
0.0102443
0.0100546
0.00881386
-0.277218
-0.259192
-0.238969
-0.216915
-0.193448
-0.169013
-0.144054
-0.118991
-0.0942178
-0.0700821
-0.0469054
-0.0249804
-0.00458304
0.0140266
0.0306065
0.0448795
0.0566806
0.0660324
0.0719901
0.0748267
0.0746032
0.0711985
0.0644967
0.0544125
0.0408614
0.0237924
0.00324775
-0.0205364
-0.0469939
-0.0751278
-0.103551
-0.130654
-0.154761
-0.174101
-0.186841
-0.191287
-0.186994
-0.175143
-0.157979
-0.137961
-0.11716
-0.0970465
-0.0784994
-0.0619359
-0.0474598
-0.034988
-0.0243487
-0.0153471
-0.00778691
-0.00147514
0.00374178
0.00790867
0.0109317
0.0126166
0.0128602
0.0119203
-0.272916
-0.256142
-0.237194
-0.216388
-0.194098
-0.170732
-0.146705
-0.122425
-0.0982701
-0.0745857
-0.0516935
-0.0298884
-0.00944694
0.00936979
0.0263207
0.0411197
0.0536031
0.0635511
0.0704882
0.0742943
0.0750458
0.072583
0.0667402
0.0574126
0.0445154
0.0280183
0.00799799
-0.0152771
-0.0412257
-0.0688577
-0.0968136
-0.123524
-0.147342
-0.166519
-0.179248
-0.18413
-0.180672
-0.169984
-0.154102
-0.135269
-0.115427
-0.0960054
-0.0779044
-0.0615864
-0.0472053
-0.0347221
-0.0239988
-0.0148624
-0.00713269
-0.000633231
0.00478625
0.0091995
0.0125566
0.0146763
0.0153735
0.0147637
-0.268934
-0.25346
-0.235839
-0.216339
-0.195286
-0.173047
-0.150009
-0.126558
-0.103068
-0.0798818
-0.0573179
-0.035674
-0.015229
0.00375584
0.0210427
0.0363572
0.0495607
0.0601911
0.0678774
0.0726329
0.0743508
0.072889
0.0680076
0.0595735
0.0474912
0.0317401
0.0124194
-0.0101788
-0.0354613
-0.0624439
-0.0897919
-0.115974
-0.139358
-0.15834
-0.170965
-0.176256
-0.173773
-0.164426
-0.149983
-0.132456
-0.113659
-0.0949887
-0.0773721
-0.0613253
-0.0470562
-0.0345728
-0.0237742
-0.0145113
-0.00661711
6.68895e-05
0.00567518
0.0103052
0.0139671
0.0165163
0.0176957
0.0174472
-0.249083
-0.232642
-0.214335
-0.194451
-0.173324
-0.151312
-0.128781
-0.10609
-0.0835771
-0.0615598
-0.0403335
-0.0201764
-0.00134962
0.0159043
0.0312971
0.0446982
0.0557524
0.0647942
0.0705325
0.0730912
0.0724284
0.0683734
0.060748
0.0494455
0.0344527
0.0158861
-0.00594836
-0.0304586
-0.0566792
-0.0833145
-0.108882
-0.131798
-0.150407
-0.163109
-0.168594
-0.166688
-0.158234
-0.1448
-0.128251
-0.110314
-0.0923495
-0.0752772
-0.0596249
-0.0456207
-0.0332943
-0.0225681
-0.013312
-0.00536807
0.00140876
0.00712853
0.0118895
0.0157528
0.0186345
0.020255
0.0204012
)
;

boundaryField
{
    inlet
    {
        type            zeroGradient;
    }
    outlet
    {
        type            fixedValue;
        value           nonuniform 0();
    }
    cylinder
    {
        type            zeroGradient;
    }
    top
    {
        type            symmetryPlane;
    }
    bottom
    {
        type            symmetryPlane;
    }
    defaultFaces
    {
        type            empty;
    }
    procBoundary6to2
    {
        type            processor;
        value           nonuniform List<scalar> 
57
(
-0.198818
-0.186415
-0.172729
-0.157924
-0.142189
-0.125736
-0.108793
-0.0915911
-0.0743631
-0.0573373
-0.0407357
-0.0247724
-0.00965575
0.0044097
0.0172333
0.0285893
0.0381749
0.0458161
0.05126
0.0542675
0.0545963
0.0520235
0.0463801
0.0375866
0.025696
0.0109341
-0.00626881
-0.0252395
-0.0450463
-0.0645573
-0.0825699
-0.0979358
-0.109547
-0.116545
-0.118589
-0.115932
-0.109322
-0.109322
-0.0904514
-0.0801818
-0.0689621
-0.0574394
-0.0460881
-0.0352278
-0.0250519
-0.0156573
-0.00707793
0.000691839
0.00768956
0.0139635
0.0195431
0.0244536
0.0287484
0.0324504
0.0354331
0.0374158
0.0381295
)
;
    }
    procBoundary6to3
    {
        type            processor;
        value           uniform 0.0347618;
    }
    procBoundary6to5
    {
        type            processor;
        value           nonuniform List<scalar> 
40
(
-0.255717
-0.243761
-0.231897
-0.220621
-0.317722
-0.331943
-0.345696
-0.354945
-0.354945
-0.367109
-0.378178
-0.387991
-0.396468
-0.403526
-0.40911
-0.4132
-0.415803
-0.416948
-0.407742
-0.407742
-0.406074
-0.403188
-0.399172
-0.394125
-0.375425
-0.375425
-0.369116
-0.362227
-0.354884
-0.333351
-0.333351
-0.326419
-0.319437
-0.298531
-0.298531
-0.292758
-0.287274
-0.28207
-0.263431
-0.263431
)
;
    }
    procBoundary6to7
    {
        type            processor;
        value           nonuniform List<scalar> 
36
(
0.022312
0.0192765
0.0256491
0.0287186
0.0318103
-0.131339
-0.124568
-0.117721
-0.110832
-0.103932
-0.0970607
-0.0902312
-0.083453
-0.0767687
-0.0702028
-0.0637772
-0.0575094
-0.0514173
-0.0455135
-0.0398067
-0.0343073
-0.0290256
-0.0239464
-0.0190778
-0.0144266
-0.0144266
-0.0119496
-0.00775147
-0.00375174
4.78806e-05
0.00364906
0.00707722
0.0103153
0.0133093
0.0161306
0.0192765
)
;
    }
    procBoundary6to9
    {
        type            processor;
        value           uniform -0.303247;
    }
    procBoundary6to10
    {
        type            processor;
        value           nonuniform List<scalar> 
61
(
-0.284692
-0.279797
-0.274102
-0.272492
-0.267765
-0.272492
-0.264115
-0.255915
-0.248489
-0.242457
-0.238412
-0.236845
-0.238029
-0.241948
-0.248231
-0.256154
-0.264619
-0.272365
-0.278113
-0.280556
-0.278631
-0.271699
-0.25973
-0.243233
-0.223349
-0.201668
-0.179916
-0.159623
-0.141903
-0.127395
-0.11635
-0.108777
-0.104618
-0.103938
-0.106999
-0.114082
-0.125013
-0.13872
-0.153176
-0.165795
-0.174073
-0.176181
-0.171453
-0.160667
-0.145666
-0.128855
-0.112446
-0.0979842
-0.0862572
-0.0775021
-0.0716776
-0.0686227
-0.0681358
-0.0701409
-0.0749119
-0.0829819
-0.0944962
-0.108463
-0.122579
-0.133808
-0.139418
)
;
    }
}


// ************************************************************************* //
