/*--------------------------------*- C++ -*----------------------------------*\
  =========                 |
  \\      /  F ield         | OpenFOAM: The Open Source CFD Toolbox
   \\    /   O peration     | Website:  https://openfoam.org
    \\  /    A nd           | Version:  7
     \\/     M anipulation  |
\*---------------------------------------------------------------------------*/
FoamFile
{
    version     2.0;
    format      ascii;
    class       volScalarField;
    location    "110";
    object      p;
}
// * * * * * * * * * * * * * * * * * * * * * * * * * * * * * * * * * * * * * //

dimensions      [0 2 -2 0 0 0 0];

internalField   nonuniform List<scalar> 
1987
(
-0.117073
-0.118561
-0.114011
-0.104691
-0.0928279
-0.0806715
-0.0698988
-0.0614424
-0.0555929
-0.0522992
-0.0515683
-0.0536421
-0.0586883
-0.0662534
-0.0749767
-0.082816
-0.0876526
-0.0879973
-0.0836318
-0.0757029
-0.0662288
-0.057179
-0.0498057
-0.0445798
-0.0416539
-0.0412132
-0.0432887
-0.0474064
-0.0523869
-0.0566386
-0.0586107
-0.0574383
-0.0534364
-0.0477302
-0.0418387
-0.0368597
-0.0334455
-0.0319729
-0.0325531
-0.0349951
-0.0383473
-0.0414648
-0.0429601
-0.0421123
-0.0390123
-0.034436
-0.0296387
-0.0253505
-0.0223933
-0.0208197
-0.0207636
-0.0210657
-0.0216614
-0.0203809
-0.0182953
-0.0141274
-0.00888384
-0.0030199
-0.110696
-0.112133
-0.107961
-0.0993629
-0.0884108
-0.0772095
-0.0673454
-0.0597145
-0.0546083
-0.0520054
-0.051965
-0.0547804
-0.060642
-0.0690745
-0.0786485
-0.0872119
-0.0925223
-0.0929925
-0.0883725
-0.0798678
-0.0696136
-0.0597077
-0.0514977
-0.0454816
-0.0417868
-0.0405587
-0.0418191
-0.0451202
-0.0493477
-0.0529973
-0.0546127
-0.0533969
-0.0496706
-0.0444953
-0.0392767
-0.0350477
-0.032403
-0.0317458
-0.0331476
-0.036433
-0.0405598
-0.0443499
-0.0462892
-0.0455917
-0.0423275
-0.0372795
-0.0318901
-0.0268374
-0.0231806
-0.0207665
-0.0200359
-0.0196082
-0.0197297
-0.0181264
-0.0159994
-0.0121957
-0.00741769
-0.00251537
-0.104253
-0.105658
-0.101872
-0.0939916
-0.0839349
-0.0736689
-0.064694
-0.0578722
-0.0534967
-0.0515769
-0.0522233
-0.0557791
-0.062458
-0.0717654
-0.0822049
-0.0915142
-0.0973228
-0.0979417
-0.0930789
-0.0840003
-0.0729581
-0.0621816
-0.0531208
-0.046307
-0.0418449
-0.039839
-0.0403002
-0.0428061
-0.0463056
-0.0493783
-0.0506565
-0.0494032
-0.0459461
-0.0412802
-0.0367073
-0.0332042
-0.0313136
-0.0314665
-0.0336939
-0.0378352
-0.0427556
-0.0472402
-0.0496416
-0.0491026
-0.0456691
-0.0401328
-0.0341322
-0.0283016
-0.0239405
-0.0206927
-0.0192988
-0.018162
-0.0178264
-0.0159149
-0.0137496
-0.0103001
-0.0059737
-0.00201791
-0.0977867
-0.0991737
-0.0957753
-0.0885991
-0.0794155
-0.0700595
-0.0619503
-0.0559174
-0.0522567
-0.0510086
-0.0523338
-0.0566245
-0.0641177
-0.0743029
-0.0856193
-0.0956943
-0.102026
-0.102819
-0.0977308
-0.0880863
-0.0762533
-0.0645963
-0.0546741
-0.0470581
-0.0418331
-0.0390618
-0.0387425
-0.0404764
-0.0432741
-0.0457952
-0.0467549
-0.0454679
-0.0422714
-0.0380909
-0.0341347
-0.0313315
-0.0301773
-0.0311326
-0.0341868
-0.0391945
-0.0449256
-0.0501257
-0.0530076
-0.0526363
-0.04903
-0.0429907
-0.0363616
-0.0297411
-0.0246726
-0.0205991
-0.0185543
-0.0167299
-0.0159541
-0.0137489
-0.011548
-0.00844236
-0.00455342
-0.00152772
-0.0913355
-0.0927154
-0.0896974
-0.0832064
-0.0748679
-0.0663918
-0.0591205
-0.0538528
-0.0508876
-0.0502962
-0.0522884
-0.0573035
-0.0656031
-0.0766638
-0.0888646
-0.0997233
-0.106605
-0.107599
-0.102307
-0.0921108
-0.07949
-0.0669476
-0.0561572
-0.0477373
-0.0417564
-0.0382347
-0.0371557
-0.0381427
-0.0402658
-0.0422605
-0.0429193
-0.0416009
-0.0386545
-0.0349336
-0.0315633
-0.0294322
-0.0289944
-0.0307415
-0.0346213
-0.0405031
-0.0470604
-0.052996
-0.0563766
-0.0561838
-0.0524028
-0.0458478
-0.0385745
-0.0311539
-0.0253762
-0.0204868
-0.0178044
-0.0153144
-0.0141152
-0.0116305
-0.00939636
-0.00662407
-0.0031583
-0.00104499
-0.0849343
-0.0863138
-0.0836646
-0.0778333
-0.0703066
-0.0626762
-0.0562115
-0.051682
-0.0493898
-0.0494369
-0.0520799
-0.057804
-0.0668967
-0.0788256
-0.0919139
-0.103572
-0.111028
-0.112254
-0.106787
-0.0960585
-0.0826591
-0.0692313
-0.0575698
-0.0483473
-0.0416197
-0.0373649
-0.0355492
-0.0358159
-0.0372921
-0.0387855
-0.0391604
-0.0378104
-0.0351027
-0.0318137
-0.0289972
-0.0275087
-0.0277654
-0.0302912
-0.0349923
-0.0417535
-0.0491503
-0.0558399
-0.0597376
-0.0597348
-0.0557795
-0.0486986
-0.0407673
-0.0325378
-0.0260508
-0.0203567
-0.0170511
-0.0139181
-0.0123118
-0.00956184
-0.00729622
-0.00484682
-0.00178967
-0.00056984
-0.0786152
-0.0799954
-0.0777
-0.0724987
-0.0657462
-0.0589235
-0.053231
-0.0494095
-0.047765
-0.0484287
-0.0517023
-0.0581152
-0.067982
-0.0807662
-0.0947406
-0.10721
-0.115265
-0.116758
-0.111147
-0.0999139
-0.0857511
-0.0714434
-0.0589119
-0.0488908
-0.0414281
-0.0364595
-0.0339318
-0.0335059
-0.0343633
-0.0353801
-0.0354876
-0.0341072
-0.0316224
-0.0287366
-0.0264406
-0.0255639
-0.0264908
-0.0297795
-0.035295
-0.0429379
-0.0511852
-0.0586458
-0.0630786
-0.0632784
-0.0591517
-0.051537
-0.0429361
-0.0338907
-0.0266958
-0.0202095
-0.0162959
-0.0125429
-0.0105459
-0.00754462
-0.00524897
-0.00311205
-0.000448795
-0.000102349
-0.0724071
-0.0737862
-0.0718236
-0.0672196
-0.0612006
-0.0551447
-0.0501871
-0.0470408
-0.0460156
-0.0472709
-0.0511509
-0.0582276
-0.0688441
-0.082465
-0.0973187
-0.110609
-0.119288
-0.121082
-0.115367
-0.103661
-0.0887563
-0.0735797
-0.0601836
-0.0493706
-0.0411866
-0.0355252
-0.0323116
-0.0312218
-0.0314888
-0.0320532
-0.0319096
-0.0306335
-0.0282196
-0.0257071
-0.0238976
-0.0236006
-0.0251715
-0.0292047
-0.0355245
-0.0440484
-0.0531546
-0.0614018
-0.0663875
-0.0668031
-0.0625099
-0.0543567
-0.0450769
-0.0352106
-0.0273105
-0.020046
-0.0155405
-0.0111909
-0.00881894
-0.00558051
-0.00325581
-0.0014211
0.000863164
0.000357431
-0.066334
-0.0677075
-0.0660551
-0.0620127
-0.0566834
-0.051351
-0.0470885
-0.0445824
-0.0441457
-0.0459644
-0.0504227
-0.0581331
-0.0694693
-0.0839024
-0.0996234
-0.11374
-0.123067
-0.125196
-0.119421
-0.107284
-0.0916652
-0.0756363
-0.061385
-0.0497899
-0.0408999
-0.0345683
-0.0306961
-0.0289718
-0.0286767
-0.0288122
-0.0284288
-0.0271192
-0.0248964
-0.0227299
-0.0213725
-0.0216218
-0.0238086
-0.0285652
-0.0356762
-0.0450773
-0.0550482
-0.0640953
-0.0696512
-0.0702971
-0.0658449
-0.0571512
-0.0471855
-0.0364951
-0.0278942
-0.0198667
-0.0147863
-0.00986382
-0.00713254
-0.00367101
-0.00131781
0.000224796
0.00214512
0.000809484
-0.0604168
-0.0617773
-0.0604118
-0.0568928
-0.0522074
-0.0475534
-0.0439446
-0.0420415
-0.0421601
-0.0445113
-0.0495161
-0.0578257
-0.0698463
-0.0850611
-0.101632
-0.116576
-0.126573
-0.129074
-0.123289
-0.110766
-0.0944679
-0.0776091
-0.0625165
-0.0501515
-0.0405728
-0.0335947
-0.0290923
-0.0267632
-0.0259343
-0.0256636
-0.0250511
-0.0237059
-0.0216579
-0.0198095
-0.0188693
-0.0196306
-0.0224034
-0.0278596
-0.0357457
-0.046017
-0.0568554
-0.0667137
-0.0728561
-0.073748
-0.0691465
-0.0599134
-0.0492577
-0.0377421
-0.0284462
-0.0196722
-0.0140345
-0.00856331
-0.00548791
-0.00181746
0.000564127
0.0018245
0.00339607
0.00125382
-0.0546738
-0.0560122
-0.0549077
-0.0518733
-0.047785
-0.0437631
-0.0407651
-0.0394261
-0.0400649
-0.042915
-0.0484311
-0.0573012
-0.0699655
-0.0859257
-0.103323
-0.119092
-0.129779
-0.132694
-0.12695
-0.114092
-0.0971547
-0.0794938
-0.0635784
-0.0504585
-0.0402098
-0.0326099
-0.0275061
-0.0246025
-0.0232675
-0.022613
-0.0217825
-0.0203987
-0.0185078
-0.0169499
-0.0163922
-0.0176304
-0.0209575
-0.0270871
-0.035729
-0.0468601
-0.0585658
-0.0692441
-0.0759885
-0.077143
-0.0724044
-0.0626363
-0.0512891
-0.0389495
-0.0289656
-0.0194629
-0.0132862
-0.00729077
-0.00388615
-2.10446e-05
0.00238922
0.00337697
0.00461506
0.00169046
-0.0491202
-0.0504261
-0.0495553
-0.0469665
-0.0434278
-0.0399909
-0.0375599
-0.0367451
-0.0378672
-0.0411805
-0.0471698
-0.0565576
-0.06982
-0.0864834
-0.104677
-0.121263
-0.132656
-0.136029
-0.130382
-0.117247
-0.0997157
-0.0812864
-0.0645707
-0.0507138
-0.0398153
-0.0316191
-0.0259432
-0.0224951
-0.0206817
-0.0196647
-0.0186273
-0.017203
-0.0154499
-0.0141549
-0.013945
-0.0156245
-0.0194728
-0.026247
-0.0356225
-0.0475994
-0.060169
-0.0716736
-0.0790346
-0.0804685
-0.0756074
-0.0653121
-0.0532751
-0.040115
-0.0294519
-0.019239
-0.0125424
-0.00604746
-0.00232819
0.00171714
0.00415684
0.00488124
0.00580124
0.00211946
-0.0437676
-0.0450301
-0.0443671
-0.0421835
-0.0391466
-0.0362478
-0.0343394
-0.0340079
-0.0355753
-0.0393141
-0.0457358
-0.055595
-0.0694053
-0.0867243
-0.105679
-0.123069
-0.135185
-0.139054
-0.133563
-0.120213
-0.102141
-0.0829826
-0.0654937
-0.0509203
-0.0393933
-0.0306268
-0.0244084
-0.0204458
-0.0181811
-0.0168223
-0.0155875
-0.014122
-0.0124887
-0.0114285
-0.0115319
-0.0136165
-0.0179515
-0.0253391
-0.0354228
-0.0482283
-0.0616549
-0.0739896
-0.0819802
-0.0837116
-0.0787443
-0.0679332
-0.0552112
-0.0412365
-0.0299041
-0.0190011
-0.011804
-0.00483446
-0.000814781
0.00339614
0.00586644
0.00633643
0.00695377
0.00254087
-0.038625
-0.0398361
-0.0393544
-0.0375336
-0.0349515
-0.0325442
-0.031114
-0.0312245
-0.0331982
-0.0373233
-0.0441345
-0.0544159
-0.0687197
-0.0866414
-0.106317
-0.124492
-0.137342
-0.141748
-0.136473
-0.122976
-0.104422
-0.0845781
-0.0663475
-0.0510807
-0.0389479
-0.0296374
-0.0229059
-0.0184586
-0.0157689
-0.0140883
-0.0126658
-0.0111597
-0.00962715
-0.00877383
-0.00915662
-0.0116101
-0.0163961
-0.0243636
-0.0351273
-0.0487405
-0.0630139
-0.0761792
-0.0848111
-0.0868588
-0.0818039
-0.0704914
-0.0570925
-0.0423116
-0.0303215
-0.0187491
-0.0110718
-0.00365272
0.000653433
0.0050151
0.00751763
0.00774176
0.0080719
0.00295476
-0.0336996
-0.034851
-0.0345269
-0.0330249
-0.0308517
-0.0288904
-0.0278943
-0.0284053
-0.0307457
-0.0352171
-0.0423732
-0.053025
-0.0677643
-0.0862308
-0.10658
-0.125516
-0.139108
-0.144086
-0.139094
-0.125522
-0.106548
-0.0860687
-0.067132
-0.0511977
-0.0384826
-0.0286547
-0.0214392
-0.0165365
-0.0134477
-0.0114647
-0.00986393
-0.00831719
-0.00686681
-0.00619396
-0.00682304
-0.00960904
-0.0148093
-0.0233212
-0.0347338
-0.0491304
-0.0642368
-0.0782304
-0.0875134
-0.0898964
-0.0847745
-0.0729785
-0.0589142
-0.0433382
-0.0307034
-0.0184834
-0.0103464
-0.00250305
0.00207596
0.00657328
0.00911011
0.00909651
0.00915491
0.00336119
-0.0289957
-0.0300784
-0.0298978
-0.0286631
-0.0268556
-0.0252961
-0.0246905
-0.025561
-0.0282284
-0.0330053
-0.0404606
-0.0514291
-0.066543
-0.0854923
-0.106462
-0.126131
-0.140467
-0.146058
-0.14141
-0.127837
-0.10851
-0.08745
-0.0678468
-0.0512736
-0.038001
-0.0276821
-0.0200115
-0.014682
-0.0112193
-0.00895234
-0.00718247
-0.0055934
-0.00420948
-0.0036917
-0.00453482
-0.00761715
-0.0131941
-0.022213
-0.0342407
-0.0493928
-0.065315
-0.0801314
-0.0900735
-0.0928103
-0.0876438
-0.075386
-0.0606712
-0.044314
-0.031049
-0.0182041
-0.00962836
-0.00138608
0.00345243
0.00807003
0.0106437
0.0104001
0.0102022
0.00376024
-0.0245163
-0.0255215
-0.0256028
-0.0244501
-0.0229707
-0.0217704
-0.0215131
-0.0227025
-0.0256575
-0.0306988
-0.0384071
-0.0496373
-0.0650625
-0.0844287
-0.105963
-0.126329
-0.141408
-0.147648
-0.143403
-0.129908
-0.1103
-0.0887178
-0.0684917
-0.0513106
-0.0375062
-0.0267227
-0.0186252
-0.0128968
-0.00908462
-0.0065517
-0.00462139
-0.0029884
-0.00165633
-0.0012695
-0.00229552
-0.00563835
-0.0115538
-0.0210405
-0.033647
-0.0495235
-0.0662405
-0.081871
-0.0924785
-0.0955855
-0.0903998
-0.0777053
-0.0623585
-0.0452369
-0.0313576
-0.0179113
-0.00891809
-0.00030235
0.00478259
0.00950481
0.0121183
0.0116519
0.011213
0.00415196
-0.0202621
-0.0211724
-0.0213106
-0.0203818
-0.0192039
-0.0183221
-0.018372
-0.0198407
-0.0230443
-0.0283095
-0.0362243
-0.0476608
-0.0633324
-0.0830464
-0.105082
-0.126106
-0.141922
-0.148842
-0.145061
-0.131724
-0.11191
-0.0898677
-0.069066
-0.0513108
-0.037001
-0.0257792
-0.0172822
-0.0111822
-0.00704409
-0.00426246
-0.00218036
-0.00050138
0.000792233
0.00107054
-0.00010851
-0.00367656
-0.00989212
-0.019806
-0.0329525
-0.0495188
-0.0670064
-0.083439
-0.0947158
-0.0982088
-0.0930307
-0.0799277
-0.0639709
-0.0461045
-0.0316284
-0.017605
-0.008216
0.000747756
0.0060663
0.0108772
0.0135339
0.0128514
0.0121868
0.00453642
-0.0162322
-0.0170308
-0.0171754
-0.0164694
-0.0155618
-0.0149588
-0.0152767
-0.0169865
-0.0204008
-0.0258496
-0.0339251
-0.0455124
-0.0613646
-0.0813552
-0.103827
-0.125462
-0.142002
-0.149632
-0.146372
-0.133273
-0.11333
-0.0908955
-0.0695689
-0.0512757
-0.0364881
-0.0248539
-0.0159842
-0.00953863
-0.00509744
-0.00208378
0.000141698
0.00186869
0.00313597
0.00332658
0.00202299
-0.00173573
-0.00821275
-0.0185118
-0.0321576
-0.049376
-0.0676065
-0.0848257
-0.0967734
-0.100669
-0.0955252
-0.0820447
-0.0655032
-0.0469149
-0.0318609
-0.0172854
-0.00752238
0.00176397
0.00730351
0.0121868
0.0148908
0.0139984
0.0131231
0.00491368
-0.0124243
-0.0130993
-0.0132425
-0.0127214
-0.0120493
-0.0116877
-0.0122364
-0.0141506
-0.0177386
-0.0233321
-0.0315233
-0.0432066
-0.0591735
-0.0793679
-0.102206
-0.124403
-0.14165
-0.150013
-0.147324
-0.134545
-0.114555
-0.0917972
-0.0699995
-0.0512067
-0.0359699
-0.0239489
-0.0147321
-0.00796617
-0.00324382
-1.42703e-05
0.00234648
0.00412314
0.00537482
0.0054971
0.00409597
0.000180214
-0.00651977
-0.0171609
-0.0312633
-0.0490933
-0.0680356
-0.0860226
-0.0986401
-0.102954
-0.0978725
-0.0840476
-0.0669502
-0.0476656
-0.0320544
-0.0169525
-0.00683747
0.00274615
0.00849429
0.0134335
0.0161889
0.0150924
0.0140213
0.00528378
-0.00937886
-0.00951772
-0.00914291
-0.00867084
-0.00851506
-0.00925965
-0.0113432
-0.0150696
-0.0207701
-0.0290334
-0.0407594
-0.0567756
-0.0771002
-0.100232
-0.122936
-0.14087
-0.149979
-0.147909
-0.135534
-0.115576
-0.0925687
-0.0703567
-0.051105
-0.0354483
-0.0230659
-0.0135269
-0.00646444
-0.00148192
0.00194794
0.00443598
0.00626315
0.00750914
0.00758092
0.00610764
0.00206739
-0.00481741
-0.015757
-0.0302716
-0.0486696
-0.0682894
-0.0870223
-0.100306
-0.105054
-0.100062
-0.0859281
-0.0683068
-0.0483547
-0.0322083
-0.0166065
-0.00616145
0.00369426
0.00963877
0.0146172
0.0174288
0.0161333
0.0148809
0.00564678
-0.00586857
-0.00599698
-0.00573626
-0.00542934
-0.00544648
-0.00635437
-0.00857417
-0.0124053
-0.0181768
-0.0264707
-0.0381875
-0.0541892
-0.0745703
-0.0979228
-0.121073
-0.139666
-0.149533
-0.148125
-0.136233
-0.116389
-0.0932067
-0.0706398
-0.0509719
-0.0349254
-0.0222067
-0.0123692
-0.00503289
0.000189884
0.00380502
0.00641246
0.00828998
0.00953966
0.00957719
0.00805544
0.003922
-0.00311009
-0.0143037
-0.0291849
-0.048105
-0.0683651
-0.0878185
-0.101762
-0.106958
-0.102083
-0.087678
-0.0695679
-0.04898
-0.0323224
-0.0162475
-0.00549454
0.00460832
0.0107372
0.0157378
0.0186108
0.0171208
0.0157015
0.00600272
-0.00256757
-0.00267584
-0.00250029
-0.00232686
-0.00248681
-0.00352779
-0.00585287
-0.00975693
-0.0155654
-0.0238503
-0.035509
-0.0514341
-0.0717991
-0.095297
-0.118831
-0.138049
-0.148682
-0.14797
-0.136636
-0.116987
-0.0937077
-0.0708479
-0.0508086
-0.0344036
-0.021373
-0.0112597
-0.00367076
0.00177347
0.00555941
0.00827843
0.0102059
0.0114672
0.0114852
0.00993705
0.00574033
-0.00140232
-0.0128055
-0.0280066
-0.0474004
-0.0682607
-0.0884062
-0.103
-0.108655
-0.103926
-0.0892894
-0.0707285
-0.0495396
-0.0323961
-0.0158758
-0.00483691
0.00548845
0.0117897
0.0167954
0.0197353
0.018055
0.0164826
0.00635165
0.000528917
0.000451774
0.000562776
0.000634493
0.000359651
-0.000786507
-0.00318798
-0.00713517
-0.0129487
-0.0211878
-0.0327419
-0.0485313
-0.068809
-0.092377
-0.11623
-0.136035
-0.147435
-0.147447
-0.136741
-0.117365
-0.0940676
-0.0709785
-0.0506141
-0.0338826
-0.0205647
-0.0101974
-0.00237606
0.00327184
0.00721447
0.0100368
0.012013
0.0132926
0.0133046
0.0117503
0.00751877
0.000301261
-0.0112669
-0.0267405
-0.0465577
-0.0679756
-0.0887813
-0.104015
-0.110137
-0.105581
-0.0907547
-0.0717836
-0.0500311
-0.0324289
-0.0154913
-0.00418845
0.00633508
0.0127969
0.0177904
0.020803
0.0189357
0.0172236
0.0066936
0.00343129
0.00339144
0.00344689
0.00345424
0.0030893
0.00186355
-0.000587608
-0.00455024
-0.0103392
-0.0184983
-0.0299048
-0.0455025
-0.065624
-0.0891874
-0.113291
-0.13364
-0.145804
-0.146555
-0.136545
-0.117518
-0.0942799
-0.0710245
-0.0503817
-0.0333571
-0.0197773
-0.00917808
-0.00114408
0.0046904
0.00877584
0.0116926
0.0137144
0.0150176
0.0150354
0.0134934
0.00925386
0.00199595
-0.00969294
-0.0253912
-0.0455798
-0.0675102
-0.0889416
-0.1048
-0.111397
-0.107042
-0.092067
-0.0727277
-0.0504514
-0.0324193
-0.0150932
-0.00354851
0.00714917
0.0137596
0.0187234
0.0218145
0.019763
0.0179243
0.00702864
0.00615201
0.00615443
0.00607481
0.00613711
0.0057012
0.00441844
0.00194148
-0.00201146
-0.00774872
-0.0157968
-0.0270162
-0.0423698
-0.0622694
-0.0857545
-0.11004
-0.130885
-0.143812
-0.14535
-0.136049
-0.117446
-0.0943421
-0.0709826
-0.0501091
-0.0328254
-0.0190093
-0.00819998
2.77805e-05
0.00603304
0.0102486
0.0132515
0.0153157
0.0166448
0.016679
0.0151655
0.0109427
0.00367716
-0.00808894
-0.023964
-0.0444704
-0.0668665
-0.088886
-0.105353
-0.112429
-0.108302
-0.0932205
-0.0735568
-0.0507989
-0.0323669
-0.0146817
-0.00291714
0.00793127
0.0146783
0.0195954
0.0227708
0.0205374
0.0185843
0.00735683
0.00867666
0.00873844
0.00867093
0.00868853
0.00819367
0.00687562
0.00439466
0.000473953
-0.00518734
-0.0130967
-0.0240938
-0.0391555
-0.0587712
-0.0821065
-0.106503
-0.127794
-0.141489
-0.145157
-0.135259
-0.117157
-0.0942711
-0.0708823
-0.0498314
-0.0323216
-0.0182893
-0.00728524
0.00112262
0.00728703
0.0116235
0.0147074
0.0168146
0.0181769
0.0182342
0.0167652
0.0125827
0.00534083
-0.00646004
-0.0224645
-0.0432343
-0.0660474
-0.0886147
-0.105671
-0.11323
-0.109354
-0.0942101
-0.0742716
-0.0510786
-0.0322794
-0.0142632
-0.00229911
0.00867809
0.0155512
0.0204052
0.0236723
0.0212588
0.0192031
0.00767827
0.0109495
0.0110771
0.0111029
0.0110582
0.010532
0.00921235
0.00675679
0.00289388
-0.00266705
-0.0104111
-0.021153
-0.0358792
-0.0551533
-0.0782697
-0.102705
-0.124374
-0.138746
-0.142885
-0.134095
-0.11663
-0.0940943
-0.0707825
-0.0496188
-0.0319128
-0.0176747
-0.0064791
0.00210541
0.00842358
0.012874
0.0160341
0.0181849
0.0196087
0.0196847
0.0182791
0.0141647
0.00698021
-0.00481171
-0.0208978
-0.0418752
-0.0650539
-0.0881234
-0.10574
-0.113777
-0.11018
-0.0950268
-0.0748755
-0.0513008
-0.0321703
-0.0138492
-0.00170327
0.00938267
0.0163732
0.0211477
0.0245166
0.0219254
0.0197799
0.00799299
0.0130628
0.0132065
0.0132581
0.0131671
0.0126566
0.0113735
0.00897933
0.00520696
-0.000225933
-0.00777722
-0.018228
-0.0325687
-0.0514382
-0.0742605
-0.0986436
-0.120584
-0.135504
-0.140077
-0.132467
-0.115798
-0.0937408
-0.0705945
-0.0493722
-0.031505
-0.017084
-0.00571265
0.00303703
0.00949779
0.0140468
0.0172643
0.019436
0.0208647
0.0210194
0.0196872
0.0156664
0.0085754
-0.00315854
-0.0192732
-0.0403966
-0.063883
-0.0874004
-0.105543
-0.114051
-0.110761
-0.0956582
-0.0753499
-0.0514442
-0.0320175
-0.0134226
-0.00111522
0.0100568
0.0171524
0.0218278
0.0253038
0.0225367
0.020313
0.00830093
0.0155914
0.0157426
0.0156532
0.0154048
0.014866
0.0135405
0.0111546
0.00744868
0.00213932
-0.00522365
-0.015392
-0.0293424
-0.0477672
-0.0702256
-0.0944978
-0.116717
-0.132264
-0.137349
-0.130745
-0.114713
-0.092925
-0.06981
-0.0485083
-0.0305396
-0.0160327
-0.00458467
0.00425325
0.0108089
0.015428
0.0186746
0.0208293
0.0221587
0.0224038
0.0211147
0.0171614
0.0101512
-0.00151394
-0.0176296
-0.0388541
-0.0626119
-0.0865562
-0.105236
-0.114216
-0.11121
-0.0961266
-0.0756216
-0.0513976
-0.0316938
-0.0128828
-0.000451883
0.01077
0.0179431
0.0224973
0.0260637
0.0231112
0.020807
0.0086038
0.0198564
0.0200172
0.0198175
0.0188178
0.0171832
0.0145801
0.0108141
0.00561711
-0.00151087
-0.0114141
-0.0251763
-0.0435948
-0.0663222
-0.09119
-0.114282
-0.13084
-0.136762
-0.130417
-0.113976
-0.0917253
-0.0682257
-0.0466885
-0.0286209
-0.0141157
-0.00270857
0.0061239
0.0127396
0.017454
0.0207794
0.0229818
0.0244217
0.024552
0.0232819
0.0193585
0.0123589
0.000650511
-0.0156219
-0.0371386
-0.0613917
-0.0859646
-0.105326
-0.114782
-0.111952
-0.0966379
-0.0757411
-0.0511134
-0.031083
-0.0120923
0.000435234
0.0116766
0.0189015
0.0233158
0.0270232
0.0237717
0.0213506
0.00894882
0.0225874
0.0226795
0.0223147
0.0214907
0.0198681
0.0172862
0.0135851
0.0085151
0.00158804
-0.00803526
-0.0214501
-0.0394997
-0.061926
-0.086652
-0.109785
-0.126433
-0.13241
-0.126451
-0.110412
-0.0885231
-0.0653911
-0.0441925
-0.0264027
-0.0121063
-0.000843809
0.00789937
0.0144681
0.0191547
0.0224514
0.0246171
0.0259675
0.0261659
0.0249636
0.0211278
0.0142318
0.00260082
-0.0136688
-0.0352923
-0.0598244
-0.0847852
-0.104611
-0.114366
-0.111676
-0.0963188
-0.0752495
-0.0504426
-0.0302241
-0.0111667
0.00140407
0.0126017
0.0198224
0.0240686
0.0275707
0.0243717
0.0218567
0.00928886
0.0250308
0.0250854
0.0246818
0.0237799
0.0221276
0.0195518
0.0158785
0.0108615
0.00403776
-0.00538732
-0.0184585
-0.0359947
-0.0577773
-0.0818283
-0.104381
-0.120715
-0.126944
-0.121539
-0.106106
-0.084835
-0.0622489
-0.0414962
-0.0240517
-0.010016
0.00105377
0.00966157
0.016142
0.0207644
0.0239982
0.0260911
0.0273998
0.0275633
0.0263669
0.0225815
0.0157773
0.00424321
-0.0119488
-0.0335464
-0.0581527
-0.0832608
-0.103338
-0.113316
-0.110809
-0.0955187
-0.0744113
-0.0495509
-0.0292267
-0.0101721
0.00239977
0.013507
0.0206973
0.0247462
0.0282915
0.0248881
0.0222873
0.00959954
0.0274399
0.0274987
0.0270479
0.026068
0.0243775
0.0217934
0.0181401
0.0131786
0.00647013
-0.00273445
-0.0154199
-0.0323624
-0.0533674
-0.0765747
-0.0984412
-0.114532
-0.121031
-0.116081
-0.101308
-0.0807311
-0.0587875
-0.0385782
-0.0215606
-0.00784788
0.00298238
0.0114204
0.0177911
0.0223389
0.0255088
0.0275369
0.0288071
0.0289153
0.027728
0.023996
0.0172957
0.00589055
-0.0101661
-0.0316458
-0.0562117
-0.0813528
-0.10161
-0.111796
-0.109478
-0.0943105
-0.073247
-0.0484385
-0.0280911
-0.0091116
0.00341963
0.0143925
0.0215356
0.0253597
0.0289426
0.02534
0.0226486
0.00989062
0.0297147
0.0297718
0.0292943
0.0282775
0.0265703
0.0239997
0.0203978
0.0155372
0.00900424
9.33406e-05
-0.0121245
-0.0283909
-0.0485467
-0.0708702
-0.092049
-0.107837
-0.114422
-0.109957
-0.0959253
-0.0761671
-0.0549972
-0.0354434
-0.0189391
-0.00561429
0.00492838
0.0131609
0.0193969
-0.0236185
-0.0226757
-0.0206352
-0.0160931
-0.0103705
-0.00353122
)
;

boundaryField
{
    inlet
    {
        type            zeroGradient;
    }
    outlet
    {
        type            fixedValue;
        value           uniform 0;
    }
    cylinder
    {
        type            zeroGradient;
    }
    top
    {
        type            symmetryPlane;
    }
    bottom
    {
        type            symmetryPlane;
    }
    defaultFaces
    {
        type            empty;
    }
    procBoundary11to7
    {
        type            processor;
        value           nonuniform List<scalar> 
59
(
-0.12334
-0.124905
-0.11999
-0.109952
-0.0971701
-0.0840447
-0.0723492
-0.0630549
-0.0564533
-0.0524642
-0.0510427
-0.0523782
-0.0566158
-0.0633249
-0.0712157
-0.0783537
-0.0827401
-0.0829793
-0.0788758
-0.0715196
-0.0628122
-0.0545998
-0.0480458
-0.0435997
-0.0414414
-0.0417948
-0.0446985
-0.0496518
-0.0554089
-0.0602875
-0.0626367
-0.0615154
-0.0572341
-0.0509782
-0.044389
-0.0386381
-0.0344411
-0.0321503
-0.0319152
-0.0335286
-0.0361266
-0.038594
-0.0396632
-0.0386723
-0.0357296
-0.0316071
-0.0273816
-0.023843
-0.021579
-0.0208509
-0.0214794
-0.0225314
-0.0225314
-0.025598
-0.0250077
-0.0230165
-0.0180908
-0.0118759
-0.00404898
)
;
    }
    procBoundary11to10
    {
        type            processor;
        value           nonuniform List<scalar> 
36
(
-0.109925
-0.104005
-0.0979949
-0.0919403
-0.0858812
-0.0798553
-0.0738961
-0.0680337
-0.0622945
-0.0567015
-0.0512738
-0.0460274
-0.0409754
-0.0361276
-0.0314915
-0.0270723
-0.022873
-0.0188947
-0.015137
-0.0115979
-0.00883604
-0.00883604
-0.00546379
-0.00230333
0.000651779
0.00341347
0.00599317
0.00837282
0.010505
0.0125023
0.0148805
0.0193062
0.0193062
0.0220121
0.024458
0.0268211
)
;
    }
    procBoundary11to14
    {
        type            processor;
        value           uniform 0.0290409;
    }
    procBoundary11to15
    {
        type            processor;
        value           nonuniform List<scalar> 
57
(
0.0238546
0.0269536
0.0289124
0.0301259
0.0301995
0.0290387
0.025386
0.0188291
0.0076139
-0.0082315
-0.0294979
-0.0539299
-0.0790197
-0.0993935
-0.109739
-0.107609
-0.0926341
-0.0717169
-0.0470847
-0.02681
-0.00798635
0.00445846
0.0152516
0.0223274
0.0259007
0.0295096
0.0257215
0.0229322
0.0101589
0.0318134
0.031878
0.0313883
0.0303481
0.0286395
0.0261053
0.0225857
0.0178659
0.0115601
0.00300859
-0.00866291
-0.0241694
-0.0433967
-0.0647613
-0.0851427
-0.100474
-0.107082
-0.103152
-0.0899646
-0.0711595
-0.0508936
-0.0321042
-0.0161979
-0.0033246
0.00688315
0.0148745
0.0238546
0.0209503
)
;
    }
}


// ************************************************************************* //
