/*--------------------------------*- C++ -*----------------------------------*\
  =========                 |
  \\      /  F ield         | OpenFOAM: The Open Source CFD Toolbox
   \\    /   O peration     | Website:  https://openfoam.org
    \\  /    A nd           | Version:  7
     \\/     M anipulation  |
\*---------------------------------------------------------------------------*/
FoamFile
{
    version     2.0;
    format      ascii;
    class       volVectorField;
    location    "140";
    object      U;
}
// * * * * * * * * * * * * * * * * * * * * * * * * * * * * * * * * * * * * * //

dimensions      [0 1 -1 0 0 0 0];

internalField   nonuniform List<vector> 
1989
(
(1.14353 0.155659 -3.58052e-20)
(1.16025 0.190969 1.04301e-19)
(1.15261 0.179642 -2.15293e-20)
(1.14525 0.169002 -1.13035e-20)
(1.13778 0.159518 5.23121e-20)
(1.16111 0.207763 -1.01065e-20)
(1.15336 0.195559 -3.67891e-20)
(1.14609 0.183874 -6.91876e-21)
(1.13905 0.172964 1.22711e-20)
(1.1319 0.163183 -3.28717e-20)
(1.1536 0.212506 2.1899e-21)
(1.14625 0.199926 -5.71934e-20)
(1.13938 0.187895 2.8171e-20)
(1.13269 0.176725 1.65089e-20)
(1.12585 0.166644 2.45769e-20)
(1.14586 0.217006 -1.91311e-20)
(1.13894 0.204059 6.89483e-20)
(1.13249 0.191694 3.04853e-20)
(1.12615 0.180274 -1.30998e-19)
(1.11965 0.169896 -6.61104e-21)
(1.1379 0.221252 1.81618e-20)
(1.13143 0.207949 -1.79392e-20)
(1.1254 0.195264 1.27098e-20)
(1.11945 0.183604 4.97486e-20)
(1.11331 0.172932 -1.19673e-20)
(1.12972 0.225232 -4.27611e-20)
(1.12371 0.211585 2.03518e-20)
(1.11815 0.198592 2.78922e-20)
(1.11259 0.186707 1.97216e-20)
(1.10683 0.175747 -1.89824e-20)
(1.11581 0.214956 3.11051e-20)
(1.11072 0.201671 -1.00087e-19)
(1.10558 0.189573 -4.50387e-21)
(1.10021 0.178334 -4.53411e-21)
(1.10772 0.218051 -4.47776e-20)
(1.10313 0.204492 2.89549e-20)
(1.09842 0.192195 2.72933e-20)
(1.09348 0.180687 3.94184e-21)
(1.09946 0.220861 5.73981e-20)
(1.09538 0.207044 6.97449e-21)
(1.09113 0.194564 -3.73939e-20)
(1.08663 0.182801 4.1829e-20)
(1.09103 0.223376 -5.06751e-20)
(1.08748 0.20932 4.96164e-20)
(1.0837 0.196672 -1.12267e-20)
(1.07968 0.18467 4.02005e-21)
(1.07944 0.211311 -1.55279e-20)
(1.07616 0.198512 3.33513e-21)
(1.07263 0.186289 -1.2575e-20)
(1.07126 0.213008 2.43741e-20)
(1.0685 0.200074 1.32597e-20)
(1.0655 0.187654 -1.28424e-21)
(1.06297 0.214405 -3.22603e-21)
(1.06073 0.201352 3.59281e-21)
(1.0583 0.188758 -8.09184e-22)
(1.05286 0.202338 3.89763e-21)
(1.05102 0.189599 1.74936e-21)
(1.0449 0.203023 -8.66259e-21)
(1.04369 0.190171 1.13542e-20)
(1.03686 0.203401 -1.70311e-20)
(1.03632 0.190472 3.89929e-20)
(1.0289 0.190499 -6.80462e-20)
(1.02146 0.190251 1.05511e-19)
(1.01401 0.189715 -9.42876e-20)
(1.13824 0.146112 -1.8918e-20)
(1.13446 0.140255 9.92385e-21)
(1.13116 0.134481 1.93218e-20)
(1.12824 0.128884 -2.42145e-20)
(1.1254 0.123495 6.3329e-22)
(1.12264 0.118289 1.51319e-20)
(1.11993 0.113252 5.09396e-21)
(1.11728 0.108372 -1.8636e-20)
(1.11467 0.103645 1.03616e-20)
(1.1121 0.0990643 3.77571e-21)
(1.10959 0.0946275 -3.8074e-21)
(1.10713 0.0903264 -3.48239e-21)
(1.10473 0.0861496 -1.31071e-22)
(1.10237 0.0820947 -3.14275e-21)
(1.10007 0.0781614 6.0166e-21)
(1.09782 0.074343 1.27413e-21)
(1.09562 0.0706323 -2.90344e-21)
(1.09349 0.067023 -1.47556e-21)
(1.09141 0.0635092 2.53546e-21)
(1.08939 0.0600848 -2.52403e-21)
(1.13289 0.149397 -6.42274e-21)
(1.12944 0.143375 2.68388e-20)
(1.12651 0.137446 -4.78597e-21)
(1.12388 0.131688 -1.80709e-20)
(1.12135 0.126147 1.411e-20)
(1.11887 0.120788 -4.53826e-21)
(1.11641 0.115598 -2.49374e-21)
(1.11399 0.110571 -5.74349e-21)
(1.1116 0.105702 1.14825e-21)
(1.10924 0.100985 6.69593e-21)
(1.10692 0.0964161 -4.85345e-21)
(1.10464 0.0919878 1.73867e-21)
(1.10239 0.087693 4.31561e-21)
(1.10019 0.0835275 -2.63391e-21)
(1.09802 0.0794873 4.75125e-21)
(1.0959 0.075567 -3.50084e-21)
(1.09383 0.0717603 3.02543e-21)
(1.0918 0.0680608 3.15263e-22)
(1.08983 0.0644623 -6.33697e-22)
(1.0879 0.0609586 -2.9218e-21)
(1.08603 0.0575438 2.96045e-21)
(1.0842 0.0542119 -1.17706e-21)
(1.08243 0.0509571 2.77896e-22)
(1.08071 0.0477737 7.12543e-22)
(1.07905 0.0446563 -9.00215e-22)
(1.07744 0.0415993 1.90364e-22)
(1.0759 0.0385964 -2.58422e-23)
(1.07441 0.035642 -2.23577e-23)
(1.07299 0.0327315 3.82992e-23)
(1.07164 0.0298591 -3.12821e-25)
(1.07036 0.0270185 -3.02634e-23)
(1.06916 0.0242033 1.26626e-22)
(1.06805 0.0214061 5.65902e-23)
(1.06703 0.0186192 -1.25145e-22)
(1.06613 0.0158335 -3.52229e-23)
(1.06533 0.0130385 2.30345e-22)
(1.06467 0.0102241 4.30743e-22)
(1.06416 0.00736885 -8.81822e-23)
(1.0638 0.00448051 -7.34845e-22)
(1.06363 0.00147429 7.98634e-23)
(1.12741 0.152506 3.89391e-20)
(1.12429 0.146334 -1.88392e-20)
(1.12173 0.140263 -8.77905e-21)
(1.11943 0.134363 2.14017e-20)
(1.1172 0.128685 -5.82496e-21)
(1.115 0.123185 -3.17663e-22)
(1.1128 0.117855 9.20899e-21)
(1.11062 0.112692 -6.99639e-21)
(1.10846 0.10769 1.09265e-20)
(1.10631 0.102845 3.45145e-22)
(1.10419 0.098152 -1.19093e-20)
(1.10208 0.093605 4.9277e-21)
(1.10001 0.0891976 -6.67532e-21)
(1.09796 0.0849251 2.44594e-21)
(1.09594 0.0807826 -2.06992e-21)
(1.09395 0.076765 2.20686e-21)
(1.092 0.072866 -4.11958e-21)
(1.09009 0.0690794 1.52314e-21)
(1.08822 0.065399 2.08182e-21)
(1.08639 0.0618184 -1.0898e-21)
(1.0846 0.0583316 -3.96077e-22)
(1.08286 0.0549323 5.30817e-22)
(1.08116 0.0516147 7.93983e-22)
(1.07951 0.0483727 -1.00138e-22)
(1.07792 0.0452006 -6.26622e-22)
(1.07637 0.0420925 -2.08025e-23)
(1.07487 0.0390422 2.18758e-23)
(1.07344 0.0360439 -1.99977e-22)
(1.07206 0.0330921 -9.8957e-25)
(1.07075 0.030181 3.60385e-24)
(1.06951 0.027304 2.95576e-23)
(1.06834 0.0244543 3.72569e-22)
(1.06726 0.0216244 2.40273e-22)
(1.06628 0.0188062 1.65701e-22)
(1.06539 0.0159905 3.57904e-23)
(1.06462 0.0131663 -3.92947e-22)
(1.06398 0.0103231 -5.13894e-22)
(1.06348 0.00743984 -6.18292e-22)
(1.06313 0.0045226 8.36995e-22)
(1.06296 0.00148757 9.59402e-23)
(1.12179 0.155432 7.3834e-21)
(1.11901 0.149133 -1.25905e-20)
(1.11683 0.142939 2.96281e-20)
(1.11487 0.136913 -3.75133e-21)
(1.11295 0.131106 -3.44395e-20)
(1.11103 0.125477 1.21181e-20)
(1.1091 0.12002 1.56858e-20)
(1.10717 0.114731 4.83464e-21)
(1.10524 0.109607 -1.84545e-20)
(1.10331 0.104642 1.72913e-20)
(1.10139 0.0998337 -1.15529e-20)
(1.09948 0.0951751 1.66473e-21)
(1.09757 0.0906611 2.49344e-21)
(1.09568 0.0862867 -9.65629e-22)
(1.09382 0.0820468 -2.47662e-21)
(1.09197 0.0779361 5.58568e-21)
(1.09015 0.0739486 -4.52415e-21)
(1.08835 0.0700782 1.17408e-21)
(1.08659 0.0663186 -8.78562e-23)
(1.08486 0.0626635 7.70281e-22)
(1.08316 0.0591067 5.27608e-22)
(1.0815 0.0556419 -6.87911e-22)
(1.07988 0.0522629 1.09383e-21)
(1.07831 0.0489636 -7.31991e-22)
(1.07677 0.0457379 -2.3687e-22)
(1.07528 0.0425798 3.24867e-22)
(1.07384 0.039483 -2.7788e-24)
(1.07246 0.0364412 -3.93197e-23)
(1.07112 0.0334488 -3.15218e-23)
(1.06985 0.0304994 1.44091e-22)
(1.06865 0.0275864 -1.74879e-22)
(1.06752 0.0247027 -1.82715e-22)
(1.06647 0.0218405 4.8675e-23)
(1.06551 0.0189914 -9.83283e-23)
(1.06465 0.0161458 5.06387e-22)
(1.0639 0.0132928 -1.2574e-22)
(1.06328 0.0104212 1.59786e-22)
(1.06279 0.0075102 -2.9469e-22)
(1.06245 0.00456427 -6.91861e-22)
(1.06229 0.00150096 -2.786e-22)
(1.11604 0.158173 2.15752e-20)
(1.11362 0.15177 -2.11432e-20)
(1.11182 0.145467 -9.15484e-21)
(1.1102 0.13933 1.77845e-20)
(1.1086 0.133408 2.99634e-21)
(1.10697 0.127663 -7.40666e-21)
(1.10532 0.122091 4.4277e-21)
(1.10365 0.116687 -2.86526e-21)
(1.10196 0.11145 -1.46134e-20)
(1.10025 0.106376 1.69184e-20)
(1.09854 0.10146 -1.24253e-20)
(1.09681 0.0966967 9.38055e-21)
(1.09509 0.0920822 -4.33832e-21)
(1.09337 0.0876113 -3.60824e-21)
(1.09165 0.0832788 5.62693e-22)
(1.08995 0.0790793 9.07593e-21)
(1.08826 0.0750071 -4.81564e-21)
(1.08658 0.0710562 5.04731e-21)
(1.08493 0.0672204 -5.77581e-21)
(1.0833 0.0634933 2.03638e-21)
(1.0817 0.0598687 9.07673e-23)
(1.08013 0.0563402 -5.62274e-22)
(1.07859 0.0529014 5.80388e-22)
(1.07708 0.0495461 3.38977e-22)
(1.07562 0.046268 -6.41535e-23)
(1.07419 0.0430609 1.07222e-22)
(1.07281 0.0399183 4.89038e-24)
(1.07147 0.0368338 -2.94597e-23)
(1.07018 0.0338013 -6.87067e-23)
(1.06896 0.0308142 7.6523e-23)
(1.06779 0.0278657 1.71711e-22)
(1.0667 0.0249484 -2.7554e-22)
(1.06568 0.0220543 -6.44453e-22)
(1.06474 0.0191746 6.37787e-23)
(1.06391 0.0162996 -1.78308e-22)
(1.06318 0.0134181 -1.03431e-22)
(1.06257 0.0105183 -5.32052e-23)
(1.0621 0.00757993 6.39364e-22)
(1.06177 0.00460554 7.58634e-22)
(1.06162 0.00151448 2.28349e-22)
(1.11016 0.160723 3.13081e-20)
(1.10812 0.154239 9.33319e-21)
(1.10671 0.147843 -2.02548e-20)
(1.10544 0.141611 -4.53241e-22)
(1.10415 0.135588 -1.4641e-21)
(1.10282 0.129741 1.82125e-20)
(1.10145 0.124065 -9.99349e-21)
(1.10004 0.118559 -4.92018e-21)
(1.0986 0.113219 -8.26765e-22)
(1.09712 0.108044 -1.82662e-22)
(1.09562 0.103028 8.80525e-21)
(1.0941 0.0981681 -1.26384e-20)
(1.09256 0.0934596 5.66806e-21)
(1.09101 0.0888978 -5.85126e-21)
(1.08945 0.0844776 1.08165e-21)
(1.0879 0.0801938 -1.41618e-21)
(1.08634 0.0760409 5.21918e-21)
(1.08479 0.0720129 -2.57565e-22)
(1.08325 0.0681038 -1.85604e-22)
(1.08173 0.0643073 -2.34132e-21)
(1.08023 0.060617 7.32538e-22)
(1.07874 0.0570266 1.17805e-21)
(1.07728 0.0535297 -1.67633e-21)
(1.07585 0.0501198 4.61705e-22)
(1.07445 0.0467905 -2.66102e-22)
(1.07309 0.0435354 -2.47957e-23)
(1.07176 0.0403479 6.72296e-23)
(1.07048 0.0372214 7.53671e-23)
(1.06924 0.0341494 -2.35654e-22)
(1.06805 0.0311253 -2.59435e-22)
(1.06693 0.0281418 -2.87874e-22)
(1.06587 0.0251913 -1.52882e-22)
(1.06488 0.0222656 8.17524e-22)
(1.06397 0.0193558 -1.87324e-22)
(1.06316 0.0164517 4.33606e-22)
(1.06245 0.013542 8.32242e-22)
(1.06186 0.0106144 -1.78534e-23)
(1.0614 0.00764899 -2.59638e-22)
(1.06108 0.00464639 4.82073e-22)
(1.06094 0.00152815 -1.85253e-22)
(1.10416 0.163078 -1.41394e-20)
(1.1025 0.156538 -1.9666e-21)
(1.10149 0.150065 1.94766e-20)
(1.10057 0.143754 5.28165e-21)
(1.09961 0.137645 -1.74319e-20)
(1.09858 0.131708 -4.7692e-21)
(1.0975 0.125941 1.21595e-20)
(1.09636 0.120343 -5.05855e-21)
(1.09517 0.114911 7.14104e-21)
(1.09393 0.109644 -1.19846e-20)
(1.09265 0.104537 1.22551e-20)
(1.09133 0.099588 -3.7275e-21)
(1.08999 0.094792 -1.46755e-21)
(1.08861 0.090145 3.07346e-21)
(1.08722 0.0856422 -6.33252e-21)
(1.08581 0.0812786 3.91066e-21)
(1.08439 0.0770489 -2.4371e-21)
(1.08297 0.0729474 4.64673e-21)
(1.08155 0.068968 -4.15653e-21)
(1.08014 0.0651047 1.8114e-22)
(1.07873 0.0613511 2.1974e-21)
(1.07734 0.0577008 -1.57733e-21)
(1.07597 0.0541474 4.58896e-22)
(1.07461 0.0506844 5.23966e-22)
(1.07328 0.0473051 -1.93706e-23)
(1.07198 0.0440031 -7.89593e-23)
(1.07071 0.0407715 4.19073e-23)
(1.06948 0.0376038 -1.94599e-22)
(1.06829 0.0344931 -9.19411e-23)
(1.06714 0.0314324 1.36111e-23)
(1.06606 0.0284144 2.09236e-22)
(1.06503 0.0254312 -2.59679e-22)
(1.06408 0.0224745 -3.36037e-22)
(1.0632 0.0195349 -3.15103e-22)
(1.06241 0.0166021 -2.54649e-22)
(1.06172 0.0136645 4.01241e-22)
(1.06115 0.0107095 3.43543e-22)
(1.0607 0.00771735 2.54361e-22)
(1.06039 0.00468681 4.50792e-22)
(1.06026 0.00154196 -1.57889e-22)
(1.09805 0.165233 2.47738e-20)
(1.09679 0.158663 -2.0335e-20)
(1.09617 0.152129 2.80418e-20)
(1.09561 0.145756 -1.72929e-20)
(1.09498 0.139574 -9.38175e-22)
(1.09427 0.133562 -6.85274e-21)
(1.09348 0.127717 2.10416e-20)
(1.09261 0.122038 -1.02001e-21)
(1.09168 0.116525 -3.45049e-21)
(1.09068 0.111175 -5.8188e-21)
(1.08963 0.105986 6.66146e-22)
(1.08852 0.100955 6.81153e-21)
(1.08737 0.0960781 -6.36402e-21)
(1.08617 0.0913518 3.13602e-21)
(1.08495 0.0867716 -1.87626e-21)
(1.08369 0.0823329 2.75691e-21)
(1.08242 0.0780305 -5.93701e-21)
(1.08113 0.0738589 2.14024e-21)
(1.07983 0.0698125 3.55111e-22)
(1.07853 0.065885 9.29146e-22)
(1.07723 0.0620704 9.4141e-23)
(1.07593 0.0583623 -6.51366e-22)
(1.07464 0.0547541 7.61819e-22)
(1.07336 0.0512394 -3.87369e-22)
(1.0721 0.0478114 9.88814e-23)
(1.07086 0.0444636 -1.43602e-22)
(1.06965 0.041189 8.03056e-23)
(1.06847 0.0379808 8.35965e-23)
(1.06733 0.034832 -7.71579e-22)
(1.06623 0.0317354 3.20908e-22)
(1.06518 0.0286835 -2.30124e-23)
(1.06419 0.0256681 9.19181e-22)
(1.06327 0.0226807 -3.21138e-22)
(1.06242 0.0197118 -4.43056e-22)
(1.06166 0.0167507 4.54566e-22)
(1.06099 0.0137856 -2.2931e-22)
(1.06043 0.0108035 -1.41973e-21)
(1.06 0.00778498 -4.14869e-22)
(1.0597 0.0047268 -2.27826e-21)
(1.05957 0.0015559 -6.87598e-22)
(1.09184 0.167185 -2.58438e-20)
(1.09097 0.16061 2.14476e-20)
(1.09077 0.154031 -6.07782e-21)
(1.09056 0.147613 -4.55967e-21)
(1.09026 0.141375 9.46593e-21)
(1.08987 0.135301 -5.58471e-21)
(1.08937 0.12939 -2.32869e-21)
(1.08879 0.123643 -2.11596e-21)
(1.08812 0.118058 8.29598e-21)
(1.08737 0.112635 -3.1944e-21)
(1.08655 0.107373 9.10247e-23)
(1.08565 0.102267 4.82602e-21)
(1.0847 0.0973166 -7.49137e-21)
(1.08369 0.092517 5.17678e-21)
(1.08264 0.0878649 -9.94618e-22)
(1.08155 0.0833557 4.03858e-22)
(1.08042 0.0789848 -3.52518e-21)
(1.07926 0.0747469 2.05554e-21)
(1.07809 0.0706365 -1.87576e-21)
(1.0769 0.0666477 -1.0537e-21)
(1.0757 0.0627745 -1.0139e-22)
(1.0745 0.0590105 3.00076e-22)
(1.07329 0.0553494 3.24597e-22)
(1.0721 0.0517845 3.34885e-24)
(1.07091 0.0483092 1.81004e-22)
(1.06974 0.0449167 6.91851e-23)
(1.06859 0.0416 -9.21216e-23)
(1.06746 0.0383521 2.46612e-22)
(1.06637 0.035166 -8.57348e-23)
(1.06532 0.0320341 2.02534e-22)
(1.06431 0.0289488 -9.17219e-22)
(1.06335 0.0259018 1.09695e-21)
(1.06246 0.0228842 -2.41008e-22)
(1.06164 0.0198863 1.68638e-22)
(1.0609 0.0168974 -2.49633e-22)
(1.06025 0.0139052 -6.90983e-22)
(1.05971 0.0108964 5.84604e-22)
(1.05929 0.00785185 5.47425e-23)
(1.059 0.00476635 1.38941e-21)
(1.05888 0.00156999 7.44926e-22)
(1.08553 0.16893 -1.38766e-20)
(1.08507 0.162375 -1.30894e-20)
(1.08527 0.155769 2.04572e-20)
(1.08542 0.149323 -1.35183e-20)
(1.08546 0.143043 -6.17116e-21)
(1.08539 0.136922 2.08311e-20)
(1.0852 0.130958 -6.11294e-21)
(1.0849 0.125154 -8.88479e-21)
(1.0845 0.11951 4.66075e-21)
(1.08401 0.114024 2.89438e-21)
(1.08342 0.108696 -5.6155e-21)
(1.08274 0.103524 3.91433e-21)
(1.08199 0.0985063 1.13776e-21)
(1.08118 0.0936397 -2.16837e-21)
(1.0803 0.088921 1.13763e-21)
(1.07937 0.0843462 1.59219e-21)
(1.07839 0.079911 -5.28366e-22)
(1.07738 0.0756105 -2.45957e-21)
(1.07633 0.0714394 1.42939e-21)
(1.07525 0.0673921 1.15874e-22)
(1.07416 0.0634628 4.98553e-22)
(1.07306 0.0596452 -3.92286e-22)
(1.07194 0.0559329 3.07287e-22)
(1.07083 0.0523194 -2.75885e-22)
(1.06971 0.0487981 2.30061e-23)
(1.06861 0.0453621 3.40963e-22)
(1.06752 0.0420043 -6.47099e-22)
(1.06645 0.0387177 2.55789e-22)
(1.06541 0.0354949 3.08757e-22)
(1.0644 0.0323285 -7.14249e-23)
(1.06343 0.0292104 1.74805e-23)
(1.06251 0.0261322 8.14459e-22)
(1.06165 0.0230849 5.93196e-22)
(1.06086 0.0200586 -9.84157e-22)
(1.06014 0.0170421 2.74401e-22)
(1.05951 0.0140232 -1.14321e-22)
(1.05899 0.0109881 -1.08063e-21)
(1.05858 0.00791791 5.5412e-22)
(1.0583 0.00480544 -2.77699e-22)
(1.05819 0.00158419 -2.11618e-22)
(1.07913 0.170465 5.74143e-21)
(1.07909 0.163957 3.51308e-21)
(1.07969 0.157339 6.11063e-21)
(1.0802 0.150882 -2.18909e-20)
(1.08059 0.144577 -2.94814e-21)
(1.08084 0.138423 1.53169e-20)
(1.08096 0.13242 7.58993e-21)
(1.08095 0.126571 -7.31728e-21)
(1.08082 0.120877 7.72489e-21)
(1.08058 0.115338 -9.02606e-21)
(1.08024 0.109954 6.14991e-21)
(1.07979 0.104724 -2.11631e-21)
(1.07925 0.099646 -5.51716e-21)
(1.07862 0.0947187 2.61374e-21)
(1.07793 0.0899391 2.78814e-21)
(1.07716 0.0853036 -2.97145e-21)
(1.07634 0.0808084 -2.35396e-22)
(1.07546 0.0764491 1.28647e-21)
(1.07455 0.0722207 -7.09289e-22)
(1.07359 0.0681178 -5.08439e-22)
(1.07261 0.0641348 7.26775e-22)
(1.0716 0.0602657 1.91301e-22)
(1.07058 0.0565042 1.20063e-22)
(1.06955 0.0528438 9.89139e-23)
(1.06851 0.0492778 1.38923e-22)
(1.06747 0.0457994 -1.18384e-21)
(1.06645 0.0424016 -1.86896e-22)
(1.06543 0.0390771 3.2962e-22)
(1.06444 0.0358186 -5.9027e-22)
(1.06348 0.0326182 1.25029e-21)
(1.06255 0.029468 -8.55007e-22)
(1.06167 0.0263592 -6.05582e-22)
(1.06084 0.0232827 -1.55101e-22)
(1.06007 0.0202283 1.25457e-21)
(1.05938 0.0171848 5.04127e-24)
(1.05877 0.0141396 -1.77703e-22)
(1.05827 0.0110786 1.13151e-21)
(1.05787 0.00798312 -4.1272e-22)
(1.0576 0.00484405 -1.33205e-21)
(1.05749 0.00159851 3.20812e-22)
(1.07265 0.171787 8.16964e-21)
(1.07302 0.165351 -3.79231e-21)
(1.07403 0.158739 1.99591e-21)
(1.0749 0.152289 -9.56762e-21)
(1.07563 0.145974 1.43061e-20)
(1.07621 0.139802 -8.46982e-21)
(1.07665 0.133773 1.39906e-21)
(1.07694 0.127892 1.04195e-21)
(1.07709 0.122159 8.33093e-21)
(1.07711 0.116577 -6.52197e-21)
(1.077 0.111145 4.08313e-21)
(1.07678 0.105865 -3.51701e-21)
(1.07646 0.100735 1.36752e-21)
(1.07603 0.0957531 -7.79816e-22)
(1.07552 0.0909182 -2.01072e-21)
(1.07492 0.0862271 1.34409e-21)
(1.07426 0.0816764 1.78767e-22)
(1.07353 0.0772621 -1.58867e-23)
(1.07275 0.0729797 1.096e-21)
(1.07191 0.0688242 -7.24407e-22)
(1.07104 0.0647901 5.40613e-22)
(1.07014 0.0608717 -2.11467e-22)
(1.06921 0.0570629 -2.5895e-22)
(1.06826 0.0533572 1.29748e-22)
(1.0673 0.049748 5.48771e-22)
(1.06633 0.0462286 2.88526e-22)
(1.06537 0.0427918 -1.13853e-21)
(1.06441 0.0394304 7.27346e-23)
(1.06347 0.0361368 1.06261e-21)
(1.06255 0.0329032 4.72645e-22)
(1.06167 0.0297214 6.33455e-22)
(1.06082 0.0265826 7.12441e-22)
(1.06002 0.0234774 -5.08202e-22)
(1.05928 0.0203955 -4.73687e-22)
(1.05862 0.0173253 -3.22638e-23)
(1.05803 0.0142543 -3.94853e-22)
(1.05754 0.0111678 1.11671e-21)
(1.05716 0.00804743 1.47076e-21)
(1.0569 0.00488218 1.86241e-21)
(1.05679 0.00161292 5.77452e-22)
(1.0661 0.172894 -7.31795e-21)
(1.06689 0.166557 2.53126e-21)
(1.06829 0.159968 -4.8191e-21)
(1.06953 0.153541 4.30756e-21)
(1.07061 0.147232 8.77144e-21)
(1.07152 0.141057 8.75439e-22)
(1.07227 0.135016 -5.16405e-21)
(1.07286 0.129114 3.54012e-22)
(1.07329 0.123354 -6.24357e-21)
(1.07358 0.117739 8.18799e-22)
(1.07372 0.11227 2.08384e-21)
(1.07374 0.106947 3.68456e-22)
(1.07363 0.101771 2.07249e-22)
(1.07341 0.0967419 5.08237e-22)
(1.07308 0.0918574 -9.06455e-22)
(1.07266 0.0871157 9.01019e-22)
(1.07216 0.082514 -1.15305e-21)
(1.07157 0.0780487 -4.02021e-22)
(1.07093 0.0737158 4.43692e-22)
(1.07022 0.0695107 -8.9777e-23)
(1.06946 0.0654282 1.05435e-22)
(1.06866 0.0614628 4.19184e-23)
(1.06783 0.0576086 -3.82009e-22)
(1.06697 0.0538593 4.49657e-22)
(1.06608 0.0502085 -2.04231e-22)
(1.06519 0.0466492 1.08256e-22)
(1.06429 0.0431745 6.67742e-22)
(1.06339 0.0397771 -1.08168e-21)
(1.0625 0.0364493 9.09059e-22)
(1.06163 0.0331833 -1.82364e-21)
(1.06078 0.0299706 8.22922e-22)
(1.05997 0.0268023 -1.64741e-21)
(1.05921 0.023669 1.23052e-21)
(1.0585 0.0205599 9.35652e-22)
(1.05785 0.0174637 2.06598e-23)
(1.05729 0.0143672 6.48531e-22)
(1.05681 0.0112556 -4.42167e-22)
(1.05644 0.0081108 -2.32063e-21)
(1.05619 0.00491979 -3.46964e-22)
(1.05609 0.0016274 -2.12172e-21)
(1.05948 0.173784 3.4172e-22)
(1.06069 0.16757 -3.75936e-22)
(1.06249 0.161022 6.17841e-22)
(1.0641 0.154635 -8.09492e-22)
(1.06552 0.148349 -1.41282e-22)
(1.06677 0.142186 -5.69425e-22)
(1.06783 0.136146 4.9005e-21)
(1.06872 0.130237 -3.34282e-21)
(1.06944 0.124462 -2.21555e-21)
(1.07 0.118823 1.39586e-21)
(1.0704 0.113325 -2.1435e-21)
(1.07065 0.107968 2.6601e-21)
(1.07076 0.102754 2.97882e-21)
(1.07075 0.0976839 -2.79304e-21)
(1.07061 0.0927557 -4.71025e-22)
(1.07037 0.0879687 1.02845e-21)
(1.07003 0.0833205 8.04517e-23)
(1.0696 0.0788083 1.5241e-22)
(1.06909 0.0744285 8.81864e-23)
(1.06851 0.0701769 -1.6054e-22)
(1.06787 0.0660486 1.58538e-22)
(1.06718 0.0620386 -1.44965e-22)
(1.06644 0.058141 -5.71856e-22)
(1.06567 0.0543499 1.66902e-22)
(1.06486 0.0506589 1.05998e-21)
(1.06404 0.0470611 -1.16495e-21)
(1.0632 0.0435496 -1.08082e-21)
(1.06236 0.0401172 1.1238e-22)
(1.06153 0.036756 1.21849e-21)
(1.0607 0.0334582 -7.99244e-22)
(1.0599 0.0302153 -1.41041e-21)
(1.05912 0.0270182 4.41518e-22)
(1.05839 0.0238572 -2.84937e-22)
(1.05771 0.0207217 -1.20548e-22)
(1.05709 0.0175997 -2.06186e-21)
(1.05654 0.0144782 -1.28814e-21)
(1.05608 0.0113421 1.60494e-21)
(1.05573 0.00817316 -6.93542e-22)
(1.05548 0.00495688 -1.54448e-21)
(1.05538 0.00164191 5.10315e-22)
(1.05281 0.174458 2.31379e-21)
(1.05444 0.16839 -4.49725e-21)
(1.05663 0.161901 1.91789e-22)
(1.05859 0.155571 1.30907e-21)
(1.06037 0.149325 -2.12685e-22)
(1.06195 0.143188 1.2094e-22)
(1.06333 0.137164 -1.36577e-22)
(1.06453 0.131259 9.56558e-22)
(1.06554 0.125479 -2.79734e-22)
(1.06637 0.119827 8.40754e-24)
(1.06703 0.114309 -1.58409e-21)
(1.06752 0.108927 4.32069e-22)
(1.06786 0.103683 -2.49447e-22)
(1.06806 0.0985779 2.04712e-22)
(1.06812 0.0936122 5.41096e-22)
(1.06806 0.0887852 -7.30666e-23)
(1.06788 0.0840953 -1.74998e-23)
(1.06761 0.0795404 5.9449e-23)
(1.06724 0.0751173 -3.52283e-22)
(1.06679 0.0708222 3.87887e-22)
(1.06627 0.066651 -4.4602e-22)
(1.06568 0.0625987 5.16015e-22)
(1.06504 0.0586599 8.0377e-22)
(1.06436 0.0548287 -4.38043e-22)
(1.06364 0.0510989 1.84645e-23)
(1.06289 0.047464 -9.46043e-23)
(1.06212 0.0439169 4.41756e-22)
(1.06134 0.0404504 -1.77623e-21)
(1.06055 0.0370568 3.66493e-21)
(1.05977 0.033728 1.29561e-21)
(1.05901 0.0304555 -2.40628e-21)
(1.05828 0.0272302 -5.01117e-23)
(1.05757 0.0240421 -5.27843e-22)
(1.05692 0.0208805 3.04658e-22)
(1.05632 0.0177334 1.68301e-21)
(1.0558 0.0145874 2.6362e-21)
(1.05535 0.0114271 -1.26896e-21)
(1.05501 0.00823447 9.19297e-22)
(1.05477 0.00499341 9.71789e-22)
(1.05467 0.00165643 -5.98015e-22)
(1.0461 0.174915 -5.61472e-22)
(1.04814 0.169014 -8.94856e-21)
(1.05071 0.162606 5.67472e-21)
(1.05303 0.15635 -5.18081e-21)
(1.05515 0.150158 2.34347e-21)
(1.05707 0.144063 -3.16357e-21)
(1.05878 0.138065 2.92043e-22)
(1.06029 0.132177 6.65072e-22)
(1.06159 0.126403 1.06352e-21)
(1.0627 0.120749 -1.84667e-21)
(1.06362 0.115221 7.39071e-22)
(1.06436 0.109822 -2.58694e-22)
(1.06493 0.104556 -1.42207e-23)
(1.06534 0.0994233 7.77116e-22)
(1.0656 0.0944263 -6.95762e-22)
(1.06572 0.0895648 -1.13159e-21)
(1.06572 0.0848381 7.65674e-22)
(1.0656 0.0802445 8.60788e-22)
(1.06537 0.0757817 -7.20668e-22)
(1.06506 0.0714465 9.62066e-22)
(1.06466 0.0672351 -1.84298e-21)
(1.06418 0.0631429 1.03587e-21)
(1.06364 0.0591648 -8.60736e-23)
(1.06305 0.0552953 -1.24238e-21)
(1.06241 0.0515284 9.03917e-22)
(1.06173 0.0478576 -7.97631e-22)
(1.06103 0.0442761 6.86746e-22)
(1.06031 0.0407765 3.74858e-21)
(1.05958 0.0373513 -2.72567e-21)
(1.05885 0.0339923 -1.62147e-21)
(1.05813 0.030691 3.95854e-21)
(1.05743 0.027438 -8.05994e-22)
(1.05676 0.0242235 -1.11055e-21)
(1.05613 0.0210363 -3.56993e-23)
(1.05556 0.0178645 -2.0182e-21)
(1.05505 0.0146945 -1.84953e-21)
(1.05462 0.0115105 -3.18636e-22)
(1.05429 0.00829468 5.45915e-22)
(1.05406 0.00502937 7.09969e-22)
(1.05396 0.00167089 1.54787e-21)
(1.03936 0.175161 -1.87552e-20)
(1.04181 0.169444 -3.12774e-21)
(1.04474 0.163138 1.4908e-20)
(1.04742 0.156968 -1.97891e-21)
(1.0499 0.150845 -1.25202e-20)
(1.05215 0.144802 7.02752e-21)
(1.05419 0.138847 2.04025e-22)
(1.05601 0.132988 -2.02905e-21)
(1.05761 0.127233 2.41785e-21)
(1.059 0.121589 -3.61575e-21)
(1.06018 0.116061 2.07664e-21)
(1.06116 0.110654 -3.2242e-22)
(1.06196 0.105373 -1.2045e-21)
(1.06259 0.10022 5.74545e-23)
(1.06305 0.0951979 1.78864e-21)
(1.06336 0.0903073 2.19408e-21)
(1.06353 0.0855484 -3.60872e-21)
(1.06357 0.0809204 -1.42153e-21)
(1.06349 0.0764216 4.23487e-21)
(1.06331 0.0720494 -1.38845e-21)
(1.06303 0.0678004 -4.29297e-22)
(1.06267 0.0636707 8.08594e-22)
(1.06223 0.0596555 -8.62685e-22)
(1.06173 0.0557496 9.71248e-22)
(1.06117 0.0519471 -2.54329e-21)
(1.06057 0.0482419 1.92694e-21)
(1.05994 0.044627 -3.06677e-22)
(1.05928 0.0410954 -1.49642e-21)
(1.0586 0.0376395 1.01498e-21)
(1.05792 0.0342511 -1.56813e-21)
(1.05724 0.0309216 1.65953e-21)
(1.05658 0.0276417 4.84924e-22)
(1.05594 0.0244012 8.59285e-23)
(1.05534 0.0211891 9.7803e-22)
(1.05479 0.0179931 5.27531e-22)
(1.0543 0.0147995 2.51623e-22)
(1.05389 0.0115924 6.99407e-22)
(1.05357 0.00835372 1.45379e-21)
(1.05335 0.00506473 -1.71302e-22)
(1.05325 0.00168527 -2.25287e-23)
(1.03258 0.175204 -4.79094e-21)
(1.03545 0.169675 -1.48553e-20)
(1.03875 0.163491 -4.30578e-21)
(1.04179 0.15742 1.98745e-20)
(1.04461 0.151381 -2.67265e-21)
(1.0472 0.145409 -3.16605e-22)
(1.04955 0.139511 -5.60819e-21)
(1.05167 0.133696 1.84106e-24)
(1.05356 0.127972 -4.72953e-21)
(1.05523 0.122348 -1.84043e-21)
(1.05667 0.116829 4.62928e-21)
(1.05791 0.111423 1.07335e-21)
(1.05895 0.106134 -2.18697e-21)
(1.05979 0.100968 -9.29162e-22)
(1.06046 0.095926 -1.14217e-21)
(1.06096 0.0910115 -1.3153e-21)
(1.06131 0.0862252 5.41235e-21)
(1.06151 0.081567 -3.91539e-21)
(1.06159 0.0770359 1.68918e-21)
(1.06155 0.0726299 2.44336e-21)
(1.06139 0.0683464 -2.02358e-21)
(1.06115 0.0641817 -2.03787e-21)
(1.06081 0.0601316 1.53281e-21)
(1.06041 0.0561911 8.54047e-22)
(1.05994 0.0523547 -1.3092e-21)
(1.05941 0.0486164 5.35449e-22)
(1.05885 0.0449695 -1.45586e-21)
(1.05825 0.0414069 1.46003e-21)
(1.05763 0.0379212 -1.60991e-21)
(1.05699 0.0345042 7.08002e-22)
(1.05636 0.0311473 -1.65737e-22)
(1.05573 0.027841 -3.16424e-21)
(1.05513 0.0245752 7.28435e-22)
(1.05455 0.0213387 -3.04343e-22)
(1.05403 0.018119 -1.47274e-21)
(1.05356 0.0149023 2.62653e-21)
(1.05316 0.0116726 2.64019e-22)
(1.05285 0.00841155 -2.14689e-21)
(1.05264 0.00509946 7.09644e-22)
(1.05254 0.0016995 3.42134e-22)
(1.02581 0.175055 -7.84328e-21)
(1.02911 0.169701 -6.468e-21)
(1.03274 0.163664 2.28682e-20)
(1.03611 0.157714 -2.04374e-20)
(1.03925 0.151779 2.63316e-20)
(1.04214 0.145894 -2.11991e-20)
(1.0448 0.140065 4.40151e-21)
(1.04723 0.134304 5.32955e-21)
(1.04942 0.128621 -1.38903e-22)
(1.05137 0.123024 -2.1029e-21)
(1.05309 0.117523 9.3577e-21)
(1.05459 0.112125 -5.61553e-21)
(1.05588 0.106836 -4.7852e-21)
(1.05695 0.101663 -8.89296e-22)
(1.05784 0.0966079 5.15383e-21)
(1.05854 0.0916753 -2.56712e-21)
(1.05907 0.0868667 3.04925e-21)
(1.05944 0.0821828 -6.5093e-21)
(1.05967 0.0776234 4.93863e-21)
(1.05977 0.0731873 3.65379e-21)
(1.05975 0.0688723 -9.06676e-22)
(1.05962 0.0646753 -2.8999e-21)
(1.05939 0.0605925 9.96974e-23)
(1.05908 0.0566195 2.13331e-21)
(1.0587 0.0527509 -3.4555e-21)
(1.05825 0.0489809 2.28114e-21)
(1.05775 0.0453032 -2.99281e-22)
(1.05722 0.0417108 1.80527e-21)
(1.05665 0.0381963 3.9634e-22)
(1.05607 0.0347515 -3.38753e-22)
(1.05547 0.0313679 1.57332e-21)
(1.05488 0.0280359 1.57904e-21)
(1.05431 0.0247454 -2.02624e-21)
(1.05377 0.021485 -5.03569e-22)
(1.05326 0.0182422 1.90447e-22)
(1.05281 0.0150029 -2.1051e-22)
(1.05243 0.011751 7.50515e-22)
(1.05213 0.0084681 1.28672e-21)
(1.05192 0.00513353 -1.91096e-21)
(1.05183 0.00171352 -3.81871e-22)
(1.01902 0.174735 -2.83136e-20)
(1.02273 0.169537 1.5381e-20)
(1.02664 0.163681 -1.44421e-21)
(1.03031 0.157873 1.94463e-20)
(1.03377 0.152053 -2.68186e-20)
(1.03699 0.146258 2.36453e-20)
(1.03999 0.140504 -1.91855e-20)
(1.04274 0.134804 2.10915e-20)
(1.04525 0.129169 -1.81164e-20)
(1.0475 0.123609 2.84963e-21)
(1.04951 0.118135 6.21463e-21)
(1.05127 0.112755 4.47326e-21)
(1.05281 0.107475 -9.0308e-21)
(1.05411 0.102302 1.57505e-21)
(1.05521 0.0972414 -2.36326e-21)
(1.05611 0.0922971 -4.18854e-22)
(1.05682 0.0874717 5.79055e-21)
(1.05737 0.0827671 1.46797e-21)
(1.05775 0.0781837 -5.25029e-21)
(1.05799 0.0737211 -1.88191e-21)
(1.0581 0.0693778 -1.01747e-21)
(1.05808 0.0651512 1.21735e-21)
(1.05796 0.0610382 1.84899e-21)
(1.05775 0.0570346 -2.91143e-21)
(1.05745 0.0531355 2.80428e-21)
(1.05709 0.0493354 -2.82116e-22)
(1.05666 0.0456281 2.10625e-21)
(1.05618 0.0420069 -2.37202e-21)
(1.05567 0.0384645 -9.93889e-22)
(1.05514 0.0349928 1.70499e-22)
(1.05459 0.0315832 3.06123e-22)
(1.05404 0.0282262 6.16365e-22)
(1.0535 0.0249115 9.89959e-22)
(1.05298 0.0216278 -3.87655e-22)
(1.0525 0.0183625 -3.03528e-23)
(1.05207 0.0151011 -1.54896e-21)
(1.0517 0.0118276 -1.30493e-21)
(1.05141 0.00852329 9.89303e-22)
(1.05121 0.00516688 -1.33811e-22)
(1.05112 0.00172725 -1.13665e-21)
(1.01217 0.174304 -1.6695e-20)
(1.01626 0.169219 -1.1371e-20)
(1.02049 0.163552 -8.0839e-21)
(1.02453 0.157884 3.824e-20)
(1.02836 0.152175 -1.70261e-20)
(1.03196 0.146475 8.49631e-21)
(1.03531 0.140806 -1.71386e-20)
(1.0384 0.13518 3.07456e-21)
(1.04121 0.129609 -9.97981e-21)
(1.04375 0.124101 1.08343e-20)
(1.04602 0.118666 2.7039e-21)
(1.04804 0.113314 1.24103e-21)
(1.0498 0.108053 -1.66755e-22)
(1.05133 0.102889 -1.02126e-20)
(1.05263 0.0978297 7.09213e-21)
(1.05372 0.0928798 4.83388e-21)
(1.05461 0.088043 -7.77133e-21)
(1.05531 0.0833221 7.44781e-21)
(1.05585 0.0787187 -9.31459e-21)
(1.05622 0.0742329 1.18567e-20)
(1.05645 0.0698641 -5.93754e-21)
(1.05656 0.0656104 -1.41848e-21)
(1.05654 0.0614692 -5.32474e-22)
(1.05642 0.0574367 -4.61766e-22)
(1.05621 0.0535086 1.34199e-21)
(1.05592 0.0496797 2.06061e-22)
(1.05557 0.0459441 -8.16719e-22)
(1.05516 0.0422951 -5.70804e-24)
(1.0547 0.0387257 -2.12909e-21)
(1.05422 0.0352279 5.96128e-22)
(1.05371 0.031793 -2.88311e-21)
(1.0532 0.0284116 1.84919e-22)
(1.05269 0.0250735 7.99368e-22)
(1.0522 0.0217671 1.48539e-22)
(1.05174 0.0184797 5.43107e-22)
(1.05133 0.0151969 2.83044e-21)
(1.05098 0.0119022 -9.40816e-22)
(1.05069 0.00857704 -1.83561e-21)
(1.0505 0.00519948 1.34655e-22)
(1.05041 0.00174062 1.78603e-21)
(1.00533 0.173816 -9.19944e-20)
(1.00993 0.168726 5.77435e-20)
(1.01458 0.163201 -1.45787e-20)
(1.01904 0.157682 2.52527e-20)
(1.02324 0.152111 -1.71435e-20)
(1.02716 0.146535 1.89742e-20)
(1.03081 0.140977 -1.81858e-20)
(1.03417 0.135449 -4.95735e-21)
(1.03725 0.129958 2.43386e-22)
(1.04005 0.124516 -1.6582e-21)
(1.04257 0.119131 -5.78263e-21)
(1.04483 0.113817 7.9248e-21)
(1.04682 0.108581 -3.07488e-21)
(1.04855 0.103433 1.74729e-21)
(1.05005 0.0983804 7.68389e-21)
(1.05133 0.0934295 -2.25265e-21)
(1.05239 0.0885854 -1.6798e-20)
(1.05326 0.0838518 1.25623e-20)
(1.05394 0.0792312 -4.59353e-21)
(1.05446 0.0747248 -1.46758e-21)
(1.05482 0.0703327 2.94264e-21)
(1.05504 0.0660539 -1.96136e-21)
(1.05513 0.0618862 1.54456e-21)
(1.05511 0.0578264 -2.0656e-21)
(1.05499 0.0538707 -4.13242e-22)
(1.05478 0.0500142 4.26917e-21)
(1.05449 0.0462512 1.13385e-21)
(1.05414 0.0425755 -4.46239e-21)
(1.05374 0.03898 2.36382e-21)
(1.0533 0.0354568 2.59251e-22)
(1.05284 0.0319973 -5.24746e-22)
(1.05236 0.0285923 8.18399e-22)
(1.05189 0.0252313 -2.58475e-21)
(1.05142 0.0219027 1.85837e-21)