/*--------------------------------*- C++ -*----------------------------------*\
  =========                 |
  \\      /  F ield         | OpenFOAM: The Open Source CFD Toolbox
   \\    /   O peration     | Website:  https://openfoam.org
    \\  /    A nd           | Version:  7
     \\/     M anipulation  |
\*---------------------------------------------------------------------------*/
FoamFile
{
    version     2.0;
    format      ascii;
    class       volScalarField;
    location    "105";
    object      p;
}
// * * * * * * * * * * * * * * * * * * * * * * * * * * * * * * * * * * * * * //

dimensions      [0 2 -2 0 0 0 0];

internalField   nonuniform List<scalar> 
31800
(
-0.327605
-0.329691
-0.330764
-0.331577
-0.332278
-0.332924
-0.33358
-0.334275
-0.335019
-0.335805
-0.336611
-0.337408
-0.338153
-0.338793
-0.339265
-0.339493
-0.339396
-0.338888
-0.337887
-0.336331
-0.334195
-0.331525
-0.328467
-0.325261
-0.322424
-0.323687
-0.325795
-0.326851
-0.327617
-0.328232
-0.32875
-0.329227
-0.329693
-0.330153
-0.330597
-0.331002
-0.331337
-0.331559
-0.331618
-0.331458
-0.33102
-0.330242
-0.329071
-0.327473
-0.325441
-0.323023
-0.320349
-0.317654
-0.31524
-0.313768
-0.319951
-0.322058
-0.32309
-0.323802
-0.32433
-0.324719
-0.325022
-0.325264
-0.325447
-0.325559
-0.325577
-0.325467
-0.325187
-0.324691
-0.323931
-0.322862
-0.321445
-0.319659
-0.317509
-0.315045
-0.312379
-0.309716
-0.307371
-0.305692
-0.305407
-0.316406
-0.318492
-0.31949
-0.320146
-0.320586
-0.320848
-0.320981
-0.321005
-0.320921
-0.320715
-0.32036
-0.319824
-0.319066
-0.318044
-0.31672
-0.315061
-0.31305
-0.310697
-0.308047
-0.305199
-0.302322
-0.299682
-0.297674
-0.29668
-0.29737
-0.313059
-0.315105
-0.316062
-0.316658
-0.317009
-0.317148
-0.317116
-0.316931
-0.31659
-0.316078
-0.315369
-0.314427
-0.313217
-0.311701
-0.309849
-0.307643
-0.305087
-0.302219
-0.29912
-0.295935
-0.292882
-0.290281
-0.28859
-0.288244
-0.28965
-0.30991
-0.311902
-0.312812
-0.313346
-0.31361
-0.313628
-0.313437
-0.313051
-0.312465
-0.311662
-0.310614
-0.30929
-0.307655
-0.305676
-0.303334
-0.300625
-0.297572
-0.29424
-0.290743
-0.287267
-0.284074
-0.281525
-0.280124
-0.280398
-0.282224
-0.306961
-0.308886
-0.309745
-0.310216
-0.310393
-0.310295
-0.309951
-0.309373
-0.308552
-0.307472
-0.306105
-0.30442
-0.302386
-0.299977
-0.297183
-0.294013
-0.290511
-0.286764
-0.282918
-0.279193
-0.275892
-0.27341
-0.272262
-0.273141
-0.27554
-0.304209
-0.306059
-0.306864
-0.307271
-0.307364
-0.307152
-0.306662
-0.3059
-0.304856
-0.303512
-0.301842
-0.299818
-0.297412
-0.294605
-0.291395
-0.287806
-0.283899
-0.279784
-0.275634
-0.2717
-0.268318
-0.265921
-0.264974
-0.266353
-0.269211
-0.301651
-0.303422
-0.304171
-0.304514
-0.304524
-0.304203
-0.303572
-0.302633
-0.301376
-0.299782
-0.297827
-0.295484
-0.292731
-0.289555
-0.285964
-0.281995
-0.277726
-0.273287
-0.268873
-0.264765
-0.261321
-0.258991
-0.258264
-0.260099
-0.263179
-0.299282
-0.300972
-0.301666
-0.301945
-0.301873
-0.301447
-0.300681
-0.299574
-0.298113
-0.296281
-0.294055
-0.291413
-0.288336
-0.284819
-0.280881
-0.276568
-0.271977
-0.267255
-0.262613
-0.258362
-0.254875
-0.252628
-0.252058
-0.254347
-0.257485
-0.297099
-0.29871
-0.299347
-0.299564
-0.299414
-0.298885
-0.297989
-0.296719
-0.295063
-0.293005
-0.290523
-0.287598
-0.28422
-0.280389
-0.276132
-0.27151
-0.266632
-0.261668
-0.256826
-0.252465
-0.248948
-0.246796
-0.246327
-0.249062
-0.25214
-0.295096
-0.296633
-0.297216
-0.297372
-0.297144
-0.296516
-0.295493
-0.294066
-0.292224
-0.289949
-0.287224
-0.284034
-0.280374
-0.276252
-0.271705
-0.266806
-0.261675
-0.256492
-0.251501
-0.247049
-0.243513
-0.241468
-0.241047
-0.244228
-0.247138
-0.293272
-0.29474
-0.295272
-0.295368
-0.295064
-0.294339
-0.293192
-0.291614
-0.289592
-0.28711
-0.284154
-0.280715
-0.276791
-0.272402
-0.267591
-0.262442
-0.257089
-0.251724
-0.246608
-0.242092
-0.238547
-0.236629
-0.236202
-0.239846
-0.242473
-0.291622
-0.29303
-0.293514
-0.293551
-0.293173
-0.292352
-0.291085
-0.289361
-0.287165
-0.284484
-0.281309
-0.277634
-0.273466
-0.26883
-0.263781
-0.258411
-0.252865
-0.247349
-0.242134
-0.237583
-0.234038
-0.232276
-0.231786
-0.235935
-0.238145
-0.290148
-0.291505
-0.291943
-0.291924
-0.291471
-0.290556
-0.289171
-0.287304
-0.284941
-0.282071
-0.278688
-0.274792
-0.270397
-0.265535
-0.260271
-0.254707
-0.248998
-0.243361
-0.238076
-0.23352
-0.229987
-0.228417
-0.227808
-0.232527
-0.23416
-0.28885
-0.290166
-0.290561
-0.290485
-0.289959
-0.288951
-0.287451
-0.285445
-0.282921
-0.27987
-0.27629
-0.272188
-0.267583
-0.262517
-0.257062
-0.251332
-0.245491
-0.239765
-0.234439
-0.229912
-0.226403
-0.225071
-0.224291
-0.229653
-0.230549
-0.287733
-0.289016
-0.289369
-0.289238
-0.288639
-0.287539
-0.285925
-0.283785
-0.281106
-0.277883
-0.27412
-0.269827
-0.265031
-0.259783
-0.254163
-0.248295
-0.242353
-0.236571
-0.231236
-0.226774
-0.223307
-0.222258
-0.221268
-0.227317
-0.227364
-0.286801
-0.288058
-0.288372
-0.288186
-0.287513
-0.286321
-0.284596
-0.282326
-0.2795
-0.276116
-0.272182
-0.267715
-0.262749
-0.257342
-0.251585
-0.245609
-0.239598
-0.233796
-0.228487
-0.224126
-0.220724
-0.219988
-0.21878
-0.225476
-0.224673
-0.286062
-0.287299
-0.287574
-0.28733
-0.286585
-0.285301
-0.283468
-0.281073
-0.278108
-0.274575
-0.270485
-0.265863
-0.260748
-0.255208
-0.249342
-0.24329
-0.237245
-0.231458
-0.22621
-0.221985
-0.218673
-0.218248
-0.216858
-0.224022
-0.222517
-0.285525
-0.286743
-0.286978
-0.286677
-0.285856
-0.284482
-0.282544
-0.28003
-0.276937
-0.273268
-0.269039
-0.264281
-0.259041
-0.253395
-0.24745
-0.241355
-0.23531
-0.229574
-0.224421
-0.220355
-0.217162
-0.216994
-0.215507
-0.222805
-0.220872
-0.285202
-0.286399
-0.286591
-0.286229
-0.285333
-0.283869
-0.281829
-0.279205
-0.275992
-0.272201
-0.267852
-0.262979
-0.25764
-0.251916
-0.245922
-0.239816
-0.233804
-0.228151
-0.223119
-0.219221
-0.216169
-0.216152
-0.214675
-0.221674
-0.219613
-0.285103
-0.286273
-0.286418
-0.285992
-0.285018
-0.283466
-0.281328
-0.2786
-0.275281
-0.271383
-0.266932
-0.261968
-0.256554
-0.250779
-0.244765
-0.238678
-0.232727
-0.227179
-0.222285
-0.218545
-0.215638
-0.215627
-0.214247
-0.220508
-0.218544
-0.28524
-0.286373
-0.286465
-0.285969
-0.284915
-0.283275
-0.281045
-0.278221
-0.274807
-0.270818
-0.266284
-0.261251
-0.255786
-0.249986
-0.243978
-0.237934
-0.232064
-0.22663
-0.221875
-0.218258
-0.215477
-0.215312
-0.214048
-0.219236
-0.217446
-0.285623
-0.286705
-0.286735
-0.286165
-0.285027
-0.283299
-0.28098
-0.278069
-0.274573
-0.270508
-0.26591
-0.260827
-0.255334
-0.24953
-0.243548
-0.237562
-0.231781
-0.226459
-0.221823
-0.218274
-0.215562
-0.215095
-0.213881
-0.217812
-0.216142
-0.286263
-0.287275
-0.287233
-0.286581
-0.285356
-0.28354
-0.281136
-0.278144
-0.274576
-0.27045
-0.265803
-0.260689
-0.255184
-0.249392
-0.243448
-0.237526
-0.231829
-0.226596
-0.22204
-0.218487
-0.215755
-0.214864
-0.21357
-0.2162
-0.214515
-0.287168
-0.288088
-0.287961
-0.287218
-0.2859
-0.283994
-0.281507
-0.278442
-0.27481
-0.270635
-0.265953
-0.26082
-0.255316
-0.249544
-0.243641
-0.237776
-0.232144
-0.226963
-0.222426
-0.218781
-0.215923
-0.214505
-0.21298
-0.214358
-0.212509
-0.288344
-0.289147
-0.288922
-0.288077
-0.286658
-0.28466
-0.28209
-0.278954
-0.275266
-0.271049
-0.266341
-0.261198
-0.255699
-0.249949
-0.244079
-0.238252
-0.232651
-0.227468
-0.222875
-0.219045
-0.215943
-0.213917
-0.212027
-0.212234
-0.210105
-0.289795
-0.290455
-0.290114
-0.289155
-0.287627
-0.28553
-0.282875
-0.27967
-0.275929
-0.271674
-0.266944
-0.261794
-0.256299
-0.250561
-0.244707
-0.238888
-0.23327
-0.22802
-0.223287
-0.219178
-0.215719
-0.21302
-0.210656
-0.209738
-0.207302
-0.291522
-0.29201
-0.291538
-0.29045
-0.288802
-0.286598
-0.283853
-0.280577
-0.276782
-0.27249
-0.267737
-0.262574
-0.257075
-0.251332
-0.245466
-0.239612
-0.233922
-0.228531
-0.223571
-0.2191
-0.215188
-0.211777
-0.208838
-0.206742
-0.204075
-0.293527
-0.293813
-0.29319
-0.291958
-0.290175
-0.287855
-0.285013
-0.281659
-0.277806
-0.273473
-0.268691
-0.263507
-0.257985
-0.252213
-0.246297
-0.240358
-0.234529
-0.228923
-0.223656
-0.218755
-0.214318
-0.210194
-0.206597
-0.203221
-0.200319
-0.295806
-0.295862
-0.295068
-0.293674
-0.291742
-0.289292
-0.286342
-0.282903
-0.278984
-0.274601
-0.269779
-0.264557
-0.25899
-0.253154
-0.247142
-0.24106
-0.235024
-0.229132
-0.223488
-0.218109
-0.213106
-0.208304
-0.204008
-0.199533
-0.195882
-0.298358
-0.298155
-0.29717
-0.295596
-0.293497
-0.290902
-0.287832
-0.284296
-0.280301
-0.275856
-0.270977
-0.265695
-0.260051
-0.254109
-0.247948
-0.241661
-0.235351
-0.229109
-0.223034
-0.21715
-0.211573
-0.206137
-0.201134
-0.19588
-0.191315
-0.30118
-0.30069
-0.299494
-0.29772
-0.295435
-0.292679
-0.289474
-0.285828
-0.281743
-0.277219
-0.272264
-0.266892
-0.261134
-0.255036
-0.248667
-0.24211
-0.235464
-0.22882
-0.222283
-0.215885
-0.209751
-0.203729
-0.198099
-0.192205
-0.186913
-0.304271
-0.303466
-0.30204
-0.300045
-0.297556
-0.294622
-0.291266
-0.287494
-0.283302
-0.278681
-0.273622
-0.268125
-0.262205
-0.255896
-0.249257
-0.242369
-0.235333
-0.22825
-0.221233
-0.214334
-0.207676
-0.201127
-0.19495
-0.188532
-0.182746
-0.307627
-0.306487
-0.304809
-0.302572
-0.29986
-0.296731
-0.293208
-0.289294
-0.284976
-0.280232
-0.275036
-0.269371
-0.263235
-0.256654
-0.249682
-0.242406
-0.234938
-0.227394
-0.219901
-0.212522
-0.205382
-0.198366
-0.191722
-0.184875
-0.178697
-0.311252
-0.309752
-0.307803
-0.305307
-0.302353
-0.299011
-0.295305
-0.291231
-0.286765
-0.281867
-0.276494
-0.270609
-0.264197
-0.257279
-0.249914
-0.242202
-0.234273
-0.226262
-0.218304
-0.210479
-0.202903
-0.195476
-0.188432
-0.181225
-0.174738
-0.315148
-0.313266
-0.311028
-0.308255
-0.305043
-0.301472
-0.297565
-0.293311
-0.28867
-0.283582
-0.277983
-0.271818
-0.265065
-0.257745
-0.249932
-0.241747
-0.233341
-0.224867
-0.216469
-0.208231
-0.200264
-0.192478
-0.185087
-0.177578
-0.170828
-0.319319
-0.317035
-0.314492
-0.311425
-0.30794
-0.304125
-0.3
-0.295542
-0.290693
-0.285371
-0.279489
-0.272979
-0.265815
-0.258031
-0.249723
-0.241039
-0.232152
-0.223229
-0.214418
-0.205805
-0.197487
-0.189384
-0.181692
-0.173924
-0.166948
-0.323773
-0.321066
-0.318202
-0.314829
-0.311056
-0.306983
-0.302621
-0.297933
-0.292838
-0.287228
-0.280998
-0.274069
-0.266425
-0.25812
-0.249281
-0.240084
-0.230721
-0.221369
-0.212173
-0.203218
-0.194586
-0.186205
-0.178248
-0.170257
-0.163081
-0.328516
-0.325365
-0.322168
-0.318476
-0.314405
-0.310059
-0.30544
-0.300489
-0.2951
-0.289141
-0.282489
-0.275068
-0.266876
-0.258002
-0.248605
-0.23889
-0.229063
-0.219306
-0.209755
-0.200488
-0.191573
-0.182944
-0.174752
-0.166568
-0.159214
-0.333555
-0.329941
-0.3264
-0.32238
-0.317999
-0.313366
-0.308464
-0.303212
-0.297473
-0.291094
-0.283942
-0.275951
-0.267152
-0.257668
-0.247698
-0.237469
-0.227196
-0.217056
-0.207177
-0.197626
-0.188455
-0.179604
-0.171201
-0.162849
-0.155336
-0.338897
-0.3348
-0.330905
-0.32655
-0.321851
-0.316913
-0.311699
-0.306098
-0.299945
-0.293066
-0.285332
-0.276699
-0.267237
-0.257115
-0.246566
-0.235832
-0.225133
-0.214635
-0.204452
-0.194639
-0.185235
-0.176184
-0.167592
-0.159094
-0.151438
-0.344545
-0.339947
-0.335691
-0.330996
-0.325967
-0.320705
-0.315143
-0.309136
-0.302495
-0.295033
-0.286633
-0.277289
-0.267121
-0.256342
-0.245214
-0.233992
-0.222886
-0.212052
-0.201586
-0.191532
-0.181914
-0.172682
-0.163919
-0.155295
-0.147511
-0.3505
-0.345383
-0.340762
-0.33572
-0.330352
-0.32474
-0.318786
-0.31231
-0.305097
-0.296963
-0.287816
-0.277702
-0.266794
-0.255349
-0.243651
-0.231956
-0.220465
-0.209314
-0.198583
-0.188305
-0.178491
-0.169095
-0.160178
-0.151445
-0.143547
-0.356759
-0.351108
-0.346117
-0.340725
-0.335003
-0.329012
-0.322614
-0.315593
-0.30772
-0.298822
-0.288854
-0.277919
-0.266248
-0.254136
-0.24188
-0.229732
-0.217874
-0.206425
-0.195446
-0.184959
-0.174964
-0.165418
-0.156363
-0.147538
-0.139538
-0.363314
-0.357115
-0.351753
-0.346006
-0.339913
-0.333505
-0.326601
-0.318952
-0.310325
-0.300576
-0.289718
-0.277922
-0.265476
-0.252703
-0.239906
-0.227322
-0.215116
-0.203384
-0.192172
-0.18149
-0.171328
-0.161647
-0.152469
-0.143566
-0.135476
-0.370149
-0.363392
-0.357658
-0.351551
-0.345065
-0.338196
-0.330714
-0.322347
-0.312869
-0.302185
-0.29038
-0.277696
-0.26447
-0.251048
-0.237728
-0.224728
-0.212191
-0.200191
-0.188759
-0.177895
-0.16758
-0.157776
-0.148489
-0.139523
-0.131355
-0.377246
-0.369923
-0.363819
-0.357342
-0.350437
-0.343052
-0.334912
-0.32573
-0.315307
-0.303612
-0.290813
-0.277224
-0.263224
-0.249169
-0.235345
-0.221948
-0.209095
-0.196841
-0.185203
-0.174169
-0.163714
-0.1538
-0.144417
-0.135402
-0.127167
-0.384574
-0.376684
-0.370211
-0.363356
-0.355996
-0.348032
-0.339147
-0.32905
-0.317589
-0.304818
-0.29099
-0.276491
-0.261729
-0.247061
-0.232753
-0.218977
-0.205823
-0.193329
-0.181497
-0.170306
-0.159724
-0.149713
-0.140248
-0.131198
-0.122906
-0.392101
-0.383645
-0.376805
-0.369557
-0.361703
-0.353088
-0.343362
-0.33225
-0.319667
-0.305764
-0.290888
-0.275481
-0.259974
-0.244715
-0.229946
-0.215808
-0.202369
-0.189649
-0.177635
-0.166299
-0.155604
-0.145509
-0.135977
-0.126903
-0.118566
-0.399782
-0.390768
-0.383563
-0.375905
-0.367507
-0.358162
-0.347495
-0.33527
-0.32149
-0.306415
-0.29048
-0.274179
-0.25795
-0.242124
-0.226914
-0.212433
-0.198725
-0.185792
-0.17361
-0.162143
-0.151347
-0.141181
-0.131596
-0.122513
-0.11414
-0.407568
-0.398007
-0.390441
-0.382349
-0.373351
-0.363188
-0.35148
-0.33805
-0.323009
-0.306733
-0.289743
-0.272567
-0.255644
-0.239277
-0.223648
-0.208842
-0.194881
-0.181749
-0.169413
-0.157829
-0.146948
-0.136723
-0.127101
-0.11802
-0.109625
-0.415401
-0.40531
-0.397384
-0.388832
-0.379169
-0.368096
-0.355246
-0.340526
-0.324176
-0.306686
-0.288653
-0.27063
-0.253041
-0.236161
-0.220136
-0.205025
-0.190827
-0.177513
-0.165038
-0.153351
-0.142399
-0.132131
-0.122485
-0.11342
-0.105014
-0.423216
-0.412617
-0.404331
-0.395284
-0.384888
-0.372809
-0.35872
-0.342639
-0.324943
-0.30624
-0.287187
-0.268349
-0.250127
-0.232762
-0.216366
-0.20097
-0.186553
-0.173073
-0.160476
-0.148702
-0.137694
-0.127397
-0.117744
-0.108707
-0.100302
-0.430939
-0.41986
-0.411212
-0.401633
-0.390427
-0.377246
-0.361828
-0.344326
-0.325266
-0.305362
-0.285322
-0.265706
-0.246887
-0.229067
-0.212325
-0.196665
-0.182049
-0.168422
-0.155719
-0.143875
-0.132828
-0.122517
-0.112873
-0.103877
-0.0954847
-0.438492
-0.426964
-0.417951
-0.407796
-0.395701
-0.381323
-0.364498
-0.345531
-0.325102
-0.304023
-0.283034
-0.262682
-0.243303
-0.22506
-0.207999
-0.192098
-0.177304
-0.163548
-0.150758
-0.138863
-0.127793
-0.117485
-0.107866
-0.0989236
-0.0905588
-0.445789
-0.433847
-0.424465
-0.413685
-0.400619
-0.384957
-0.366656
-0.346197
-0.32441
-0.302192
-0.2803
-0.259257
-0.239359
-0.220726
-0.203374
-0.187258
-0.172308
-0.158445
-0.145587
-0.133659
-0.122585
-0.112296
-0.102719
-0.0938437
-0.0855206
-0.45274
-0.440424
-0.430662
-0.419207
-0.40509
-0.388061
-0.368232
-0.346272
-0.323152
-0.299841
-0.277099
-0.255414
-0.235037
-0.21605
-0.198436
-0.182132
-0.16705
-0.153102
-0.140199
-0.128257
-0.117198
-0.106946
-0.0974284
-0.0886331
-0.080367
-0.459249
-0.4466
-0.43645
-0.424266
-0.409019
-0.390553
-0.369161
-0.345705
-0.321293
-0.296944
-0.273408
-0.251133
-0.230321
-0.211016
-0.193174
-0.176708
-0.161521
-0.147512
-0.134585
-0.122651
-0.111627
-0.10143
-0.0919902
-0.0832882
-0.0750956
-0.465219
-0.452281
-0.441729
-0.428761
-0.412312
-0.392352
-0.369378
-0.34445
-0.318797
-0.293474
-0.269206
-0.246394
-0.225194
-0.205611
-0.187573
-0.170977
-0.155712
-0.141668
-0.128741
-0.116837
-0.105867
-0.0957452
-0.0864011
-0.0778065
-0.0697052
-0.470547
-0.457366
-0.446399
-0.432593
-0.414878
-0.39338
-0.368824
-0.342464
-0.315635
-0.289407
-0.264473
-0.241182
-0.219641
-0.19982
-0.181623
-0.164929
-0.149615
-0.135562
-0.122661
-0.11081
-0.099916
-0.0898882
-0.0806588
-0.0721865
-0.0641958
-0.475133
-0.461756
-0.450358
-0.435662
-0.416626
-0.393565
-0.367446
-0.339709
-0.311776
-0.284721
-0.25919
-0.235477
-0.213646
-0.19363
-0.175312
-0.158554
-0.143222
-0.129189
-0.116339
-0.104565
-0.0937691
-0.0838562
-0.0747603
-0.0664274
-0.0585698
-0.478875
-0.465348
-0.453503
-0.437871
-0.417471
-0.39284
-0.365194
-0.336149
-0.307196
-0.279394
-0.253337
-0.229266
-0.207196
-0.187031
-0.16863
-0.151844
-0.136527
-0.122544
-0.109772
-0.0980995
-0.087424
-0.0776461
-0.0687024
-0.060527
-0.052829
-0.481672
-0.468044
-0.455737
-0.439127
-0.417334
-0.391143
-0.362023
-0.331754
-0.301871
-0.273407
-0.246901
-0.222533
-0.200279
-0.180011
-0.161571
-0.144793
-0.129524
-0.115622
-0.102956
-0.0914112
-0.0808789
-0.0712562
-0.0624822
-0.0544807
-0.046964
-0.483427
-0.469745
-0.456961
-0.439341
-0.416141
-0.388418
-0.357896
-0.326494
-0.29578
-0.266745
-0.239865
-0.215267
-0.192884
-0.172562
-0.154125
-0.137395
-0.12221
-0.10842
-0.0958899
-0.0844985
-0.0741329
-0.0646865
-0.0561014
-0.0482856
-0.0409424
-0.484046
-0.470356
-0.457083
-0.438429
-0.413826
-0.384619
-0.352779
-0.320349
-0.288906
-0.259392
-0.232218
-0.207456
-0.185002
-0.164677
-0.146288
-0.129646
-0.114581
-0.100937
-0.0885717
-0.0773607
-0.0671858
-0.0579386
-0.0495673
-0.0419514
-0.0347279
-0.483442
-0.46979
-0.456019
-0.436317
-0.41033
-0.379704
-0.346644
-0.313298
-0.281235
-0.251336
-0.223949
-0.199093
-0.176627
-0.156351
-0.138055
-0.121544
-0.106636
-0.0931706
-0.0810014
-0.0699982
-0.0600382
-0.0510141
-0.0428824
-0.0354896
-0.0283616
-0.481533
-0.467962
-0.453688
-0.432938
-0.405603
-0.373638
-0.339471
-0.305328
-0.272755
-0.242569
-0.215051
-0.19017
-0.167753
-0.147579
-0.129425
-0.113086
-0.0983745
-0.0851223
-0.0731796
-0.0624123
-0.0526923
-0.0439154
-0.0360386
-0.0288369
-0.021972
-0.478243
-0.464798
-0.450021
-0.428232
-0.399602
-0.366395
-0.331241
-0.296427
-0.263459
-0.233085
-0.205519
-0.180684
-0.158378
-0.13836
-0.120397
-0.104273
-0.0897968
-0.0767934
-0.0651084
-0.0546063
-0.0451518
-0.0366455
-0.029036
-0.0220525
-0.0154846
-0.473508
-0.460229
-0.444954
-0.422151
-0.392294
-0.357955
-0.321946
-0.28659
-0.253344
-0.22288
-0.19535
-0.170634
-0.148502
-0.128696
-0.110971
-0.0951079
-0.0809056
-0.0681877
-0.0567929
-0.0465819
-0.0374193
-0.0292063
-0.0218824
-0.0151446
-0.0088839
-0.467269
-0.454197
-0.438436
-0.414655
-0.383656
-0.348307
-0.311581
-0.275815
-0.242408
-0.211955
-0.184546
-0.160021
-0.138125
-0.118586
-0.101153
-0.0855941
-0.0717071
-0.0593082
-0.0482356
-0.0383447
-0.0294994
-0.0216023
-0.0145844
-0.00811419
-0.00217009
-0.45948
-0.446654
-0.430425
-0.405716
-0.373672
-0.337446
-0.300145
-0.264106
-0.230655
-0.200312
-0.173109
-0.148848
-0.127252
-0.108035
-0.0909487
-0.0757376
-0.0622043
-0.0501609
-0.0394422
-0.0299002
-0.0213974
-0.0138391
-0.00714751
-0.000962287
0.00465114
-0.450104
-0.437561
-0.42089
-0.395314
-0.362335
-0.325374
-0.287647
-0.251469
-0.218093
-0.187959
-0.161046
-0.137122
-0.115891
-0.0970582
-0.0803586
-0.0655437
-0.0524049
-0.0407526
-0.0304196
-0.0212549
-0.0131199
-0.00592308
0.000422708
0.00630726
0.0115736
-0.439114
-0.426892
-0.40981
-0.383441
-0.349649
-0.312099
-0.274096
-0.237917
-0.204732
-0.174906
-0.148366
-0.124854
-0.104051
-0.0856567
-0.0693963
-0.0550216
-0.0423172
-0.0310918
-0.021176
-0.0124165
-0.00467426
0.00213858
0.00812004
0.0136889
0.0185905
-0.426495
-0.414628
-0.397175
-0.370098
-0.335623
-0.297639
-0.259512
-0.223466
-0.190586
-0.161165
-0.135087
-0.112054
-0.0917432
-0.073843
-0.0580724
-0.0441817
-0.0319514
-0.021188
-0.0117205
-0.00339383
0.00393096
0.0103379
0.0159373
0.0211756
0.025695
-0.412242
-0.400765
-0.382988
-0.355296
-0.320277
-0.282016
-0.243916
-0.208137
-0.175675
-0.146759
-0.121217
-0.0987376
-0.0789815
-0.0616305
-0.0463995
-0.0330363
-0.0213189
-0.011052
-0.00206357
0.00580317
0.0126863
0.0186661
0.0238663
0.0287593
0.0328793
-0.396364
-0.38531
-0.36726
-0.339056
-0.303637
-0.265258
-0.227336
-0.191955
-0.160023
-0.131701
-0.106779
-0.0849224
-0.0657823
-0.049035
-0.0343921
-0.0215992
-0.0104327
-0.000696299
0.00778322
0.0151635
0.0215814
0.0271134
0.031898
0.0364309
0.0401352
-0.378876
-0.368277
-0.350013
-0.321407
-0.285738
-0.247402
-0.209805
-0.174949
-0.143656
-0.116019
-0.0917944
-0.0706287
-0.0521647
-0.0360742
-0.0220665
-0.00988573
0.000692667
0.00986574
0.0178072
0.0246752
0.0306049
0.0356691
0.0400221
0.0441805
0.0474536
-0.359809
-0.349695
-0.331282
-0.302388
-0.266623
-0.228489
-0.191358
-0.157153
-0.126603
-0.0997397
-0.0762878
-0.0558794
-0.0381497
-0.0227677
-0.00944097
0.0020871
0.0120415
0.0206193
0.0279944
0.0343252
0.0397442
0.0443216
0.0482278
0.051997
0.0548245
-0.339201
-0.329602
-0.311107
-0.282051
-0.246348
-0.208555
-0.172036
-0.138604
-0.108897
-0.0828926
-0.0602871
-0.0406999
-0.0237609
-0.0091372
0.0034645
0.0143008
0.0235966
0.0315485
0.0383301
0.0440995
0.0489863
0.0530583
0.0565033
0.0598685
0.0622368
-0.3171
-0.308042
-0.289541
-0.260456
-0.22497
-0.187639
-0.151888
-0.119344
-0.0905755
-0.0655118
-0.0438229
-0.0251182
-0.00902396
0.00479383
0.0166283
0.0267355
0.0353396
0.0426362
0.0487983
0.0539831
0.0583168
0.0618661
0.0648357
0.0677817
0.0696781
-0.293563
-0.285076
-0.26665
-0.237665
-0.202488
-0.165848
-0.130967
-0.0994178
-0.0716797
-0.0476337
-0.0269283
-0.00916449
0.00603357
0.019
0.0300271
0.0393699
0.0472509
0.0538644
0.0593824
0.0639604
0.0677209
0.0707306
0.0732112
0.0757211
0.0771341
-0.268652
-0.260775
-0.242514
-0.213714
-0.179019
-0.143207
-0.109325
-0.0788746
-0.0522529
-0.0292977
-0.00963895
0.00712868
0.021382
0.0334543
0.0436362
0.0521812
0.0593096
0.0652141
0.0700647
0.074015
0.0771831
0.0796372
0.0816145
0.0836686
0.0845843
-0.242439
-0.235218
-0.217213
-0.188633
-0.154661
-0.119785
-0.0870219
-0.0577664
-0.0323417
-0.0105458
0.0080071
0.0237267
0.0369898
0.0481278
0.0574295
0.0651455
0.0714941
0.0766652
0.080827
0.0841299
0.0866874
0.0885707
0.0900307
0.0916046
0.0920017
-0.215002
-0.208485
-0.190716
-0.162652
-0.129466
-0.0956529
-0.0641183
-0.0361483
-0.0119954
0.00857753
0.0259696
0.0405931
0.0528237
0.0629905
0.0713792
0.0782378
0.0837813
0.088197
0.0916504
0.0942878
0.0962171
0.0975158
0.0984467
0.0995146
0.0993696
-0.186415
-0.180689
-0.163197
-0.135785
-0.103513
-0.0708833
-0.0406791
-0.0140778
0.00873427
0.0280257
0.0442062
0.0576894
0.0688489
0.0780106
0.0854568
0.091432
0.0961477
0.099788
0.102515
0.10447
0.105755
0.106457
0.106852
0.10739
0.106683
-0.156764
-0.151908
-0.13481
-0.108115
-0.076886
-0.0455524
-0.0167717
0.00838476
0.0297932
0.0477497
0.0626727
0.0749756
0.085029
0.0931551
0.0996323
0.104701
0.108569
0.111416
0.113402
0.114659
0.115282
0.115381
0.115238
0.115198
0.113847
-0.12626
-0.122201
-0.105618
-0.0797387
-0.0496714
-0.0197382
0.00753399
0.031177
0.0511251
0.067699
0.0813233
0.0924102
0.101326
0.10839
0.113875
0.118017
0.121019
0.123059
0.12429
0.124835
0.124787
0.124283
0.12359
0.122829
0.120566
-0.0950134
-0.0916579
-0.0757125
-0.0507562
-0.0219591
0.00647875
0.0321659
0.0542343
0.0726721
0.0878212
0.10011
0.10995
0.117702
0.12368
0.128152
0.13135
0.133473
0.134693
0.135159
0.134981
0.13426
0.133169
0.131889
0.130143
0.12662
-0.063062
-0.0604393
-0.0452018
-0.0212684
0.0061584
0.0330156
0.0570501
0.0774903
0.0943743
0.108062
0.118986
0.127551
0.134116
0.138988
0.142431
0.144671
0.145903
0.146294
0.145985
0.145081
0.143697
0.142033
0.140102
0.13719
0.132661
-0.0305218
-0.0286683
-0.0141972
0.00862058
0.0345865
0.0597878
0.0821109
0.100877
0.116171
0.128367
0.137899
0.145169
0.150528
0.154279
0.156679
0.157951
0.158282
0.157837
0.156748
0.155117
0.153079
0.150833
0.148174
0.144156
0.140677
0.00247969
0.00353843
0.0171867
0.0388046
0.0632291
0.0867091
0.107271
0.124326
0.138
0.14868
0.156799
0.162756
0.166895
0.169513
0.170862
0.171157
0.170583
0.169297
0.167425
0.16507
0.162378
0.159515
0.156126
0.151482
0.148648
0.0358164
0.0360616
0.0488335
0.0691759
0.0919887
0.113693
0.132454
0.147767
0.159797
0.168943
0.175636
0.180267
0.183177
0.184653
0.184944
0.184258
0.182775
0.180647
0.177993
0.174918
0.171571
0.168073
0.164018
0.158955
0.156181
0.0693618
0.0687792
0.0806255
0.0996259
0.120768
0.140651
0.157579
0.17113
0.181501
0.1891
0.194356
0.197655
0.199329
0.199661
0.198891
0.197224
0.194831
0.191861
0.188429
0.184638
0.180633
0.1765
0.171842
0.166421
0.163441
0.102988
0.101568
0.112444
0.130046
0.149467
0.167495
0.182569
0.194342
0.203045
0.209092
0.212908
0.214872
0.215309
0.214497
0.212668
0.210021
0.206722
0.202914
0.198707
0.194204
0.189543
0.184784
0.179561
0.173769
0.170448
0.136567
0.134303
0.144171
0.160326
0.177989
0.194137
0.207344
0.217334
0.224367
0.228862
0.231238
0.23187
0.231075
0.229123
0.226239
0.222617
0.218418
0.213778
0.208804
0.203595
0.198282
0.19291
0.187144
0.180961
0.177224
0.16997
0.166861
0.175688
0.190358
0.206236
0.22049
0.231825
0.240035
0.245402
0.248351
0.249296
0.248603
0.246583
0.243499
0.23957
0.234982
0.229891
0.224427
0.218694
0.212788
0.20683
0.200856
0.19456
0.187969
0.183776
0.20307
0.199116
0.206878
0.220035
0.23411
0.246466
0.255935
0.262373
0.266087
0.267502
0.267028
0.265023
0.261791
0.257587
0.252624
0.247082
0.241111
0.234836
0.228355
0.221761
0.215167
0.208604
0.201786
0.194778
0.190107
0.23574
0.230947
0.237624
0.24925
0.261516
0.271981
0.279596
0.28428
0.286359
0.286258
0.284383
0.281084
0.276657
0.271349
0.265368
0.258887
0.252051
0.244977
0.237761
0.230492
0.223274
0.216132
0.208803
0.201376
0.196212
0.267855
0.26223
0.267812
0.277899
0.28836
0.296948
0.302731
0.305686
0.306155
0.304564
0.301311
0.296739
0.291138
0.284747
0.277768
0.270366
0.262681
0.254825
0.24689
0.23896
0.231132
0.223425
0.215594
0.20775
0.202087
0.299292
0.292848
0.297329
0.305878
0.314549
0.321284
0.325267
0.326524
0.325415
0.322363
0.31776
0.311944
0.305194
0.297744
0.289789
0.281488
0.272974
0.264356
0.25572
0.247144
0.23872
0.230462
0.222143
0.213887
0.207724
0.329931
0.322682
0.326065
0.333088
0.339993
0.34491
0.34713
0.346729
0.344078
0.339601
0.333684
0.326654
0.318785
0.310304
0.301399
0.292223
0.282904
0.273545
0.264226
0.255024
0.246022
0.237229
0.228436
0.219777
0.213116
0.359653
0.351619
0.353915
0.359431
0.364604
0.367746
0.36825
0.366236
0.362088
0.356227
0.349033
0.340826
0.331872
0.322392
0.312566
0.302543
0.292444
0.282367
0.272389
0.262581
0.253019
0.243709
0.234459
0.225408
0.218255
0.388346
0.379547
0.380773
0.384813
0.388298
0.389715
0.388556
0.384982
0.379387
0.372189
0.363762
0.354418
0.344417
0.333972
0.323258
0.312419
0.301568
0.290801
0.280188
0.269796
0.259695
0.249887
0.240198
0.230768
0.223132
0.415898
0.406361
0.406541
0.409144
0.410992
0.410744
0.407983
0.402907
0.39592
0.387438
0.377825
0.36739
0.356383
0.345013
0.333447
0.321824
0.310253
0.298823
0.287601
0.27665
0.266032
0.255747
0.24564
0.235845
0.227739
0.442204
0.431958
0.431123
0.432335
0.432608
0.430762
0.426466
0.419954
0.411637
0.401926
0.391181
0.379702
0.367735
0.355481
0.343103
0.330732
0.318474
0.306412
0.29461
0.283126
0.272016
0.261278
0.250772
0.240629
0.232068
0.467164
0.45624
0.454426
0.454305
0.453071
0.449702
0.443946
0.436068
0.426486
0.415608
0.403788
0.391319
0.37844
0.365347
0.352198
0.339118
0.326208
0.313548
0.301197
0.289208
0.277631
0.266464
0.255583
0.245109
0.236111
0.49068
0.479114
0.476366
0.474973
0.47231
0.4675
0.460363
0.451196
0.440421
0.428442
0.415607
0.402204
0.388466
0.374583
0.360706
0.346959
0.333436
0.320212
0.307344
0.294879
0.282864
0.271293
0.26006
0.249275
0.23986
0.512662
0.500491
0.496859
0.494266
0.490259
0.484094
0.475664
0.465289
0.453395
0.440386
0.426601
0.412324
0.397782
0.383159
0.368603
0.354231
0.340135
0.326385
0.313034
0.300125
0.287701
0.275753
0.264193
0.253116
0.243308
0.533026
0.520291
0.515829
0.512115
0.506853
0.499429
0.489797
0.4783
0.465369
0.451402
0.436736
0.421648
0.40636
0.391052
0.375866
0.360916
0.346288
0.33205
0.318251
0.304933
0.292128
0.279834
0.267971
0.256625
0.246449
0.551692
0.538436
0.533205
0.528454
0.522036
0.513453
0.502714
0.490186
0.476301
0.461455
0.44598
0.430147
0.414175
0.398237
0.382473
0.366991
0.351876
0.337192
0.322983
0.309288
0.296136
0.283523
0.271385
0.259791
0.249275
0.568587
0.554856
0.548922
0.543224
0.535753
0.526115
0.514372
0.500908
0.486157
0.470513
0.454304
0.437795
0.421201
0.404692
0.388404
0.372441
0.356884
0.341795
0.327215
0.313179
0.299713
0.286813
0.274426
0.262608
0.251781
0.583645
0.569487
0.56292
0.556371
0.547955
0.537373
0.524732
0.510429
0.494904
0.478546
0.461679
0.444566
0.427416
0.410397
0.393641
0.377248
0.361297
0.345846
0.330935
0.316595
0.302849
0.289693
0.277086
0.265067
0.253962
0.596807
0.582272
0.575146
0.567847
0.5586
0.547188
0.533756
0.518717
0.502512
0.485527
0.468083
0.450439
0.432802
0.415335
0.398167
0.381398
0.365101
0.349334
0.334133
0.319527
0.305536
0.292156
0.279356
0.267163
0.255814
0.60802
0.59316
0.585552
0.577608
0.567647
0.555523
0.541413
0.525743
0.508954
0.491432
0.473494
0.455395
0.437339
0.419489
0.401969
0.384877
0.368285
0.352247
0.336798
0.321966
0.307765
0.294196
0.281232
0.26889
0.257331
0.617239
0.602106
0.594097
0.585618
0.575064
0.562348
0.547676
0.531482
0.51421
0.496242
0.477892
0.459416
0.441014
0.422846
0.405035
0.387675
0.370839
0.354576
0.338924
0.323904
0.309531
0.295805
0.282707
0.270242
0.258511
0.624424
0.609073
0.600748
0.591845
0.580822
0.567639
0.552523
0.535914
0.518259
0.499938
0.481264
0.462489
0.443813
0.425394
0.407353
0.389783
0.372753
0.356315
0.340501
0.325335
0.310827
0.296979
0.283776
0.271216
0.259351
0.629545
0.614033
0.605475
0.596263
0.584899
0.571375
0.555933
0.539022
0.521086
0.502506
0.483595
0.464602
0.445726
0.427124
0.408914
0.391191
0.374022
0.357456
0.341526
0.326254
0.311649
0.297714
0.284436
0.271808
0.259847
0.632578
0.616961
0.608259
0.598855
0.587277
0.573539
0.557893
0.540791
0.522679
0.503938
0.484877
0.465747
0.446746
0.428028
0.409714
0.391896
0.37464
0.357995
0.341994
0.326657
0.311994
0.298006
0.284684
0.272015
0.26
0.633508
0.617842
0.609084
0.599605
0.587944
0.574121
0.558393
0.541215
0.523032
0.504224
0.485103
0.465917
0.446866
0.428102
0.409747
0.391891
0.374603
0.357928
0.341901
0.326542
0.311859
0.297854
0.284518
0.271836
0.259806
0.632325
0.616668
0.607942
0.598508
0.586894
0.573115
0.557429
0.540287
0.522138
0.503361
0.484269
0.46511
0.446083
0.427344
0.409011
0.391177