/*--------------------------------*- C++ -*----------------------------------*\
  =========                 |
  \\      /  F ield         | OpenFOAM: The Open Source CFD Toolbox
   \\    /   O peration     | Website:  https://openfoam.org
    \\  /    A nd           | Version:  7
     \\/     M anipulation  |
\*---------------------------------------------------------------------------*/
FoamFile
{
    version     2.0;
    format      ascii;
    class       volVectorField;
    location    "105";
    object      U;
}
// * * * * * * * * * * * * * * * * * * * * * * * * * * * * * * * * * * * * * //

dimensions      [0 1 -1 0 0 0 0];

internalField   nonuniform List<vector> 
31800
(
(-0.000473572 -0.0208692 -1.18621e-20)
(-0.00391432 -0.0473614 8.19841e-21)
(-0.0112313 -0.062446 -2.67663e-21)
(-0.0207978 -0.0686254 1.18418e-20)
(-0.0319876 -0.0682492 1.32244e-20)
(-0.0443182 -0.0633695 -4.33533e-21)
(-0.057393 -0.0556274 -3.15275e-21)
(-0.0709264 -0.0461921 2.21556e-20)
(-0.08471 -0.0357552 -2.53671e-21)
(-0.098587 -0.0245837 3.61727e-21)
(-0.112433 -0.012616 1.2399e-20)
(-0.126143 0.000421392 1.21185e-20)
(-0.139616 0.0149074 -7.68589e-21)
(-0.15275 0.0312448 -9.49519e-21)
(-0.165425 0.0498088 -2.97988e-22)
(-0.177493 0.0709167 -1.20811e-20)
(-0.18877 0.0948069 9.31541e-21)
(-0.19902 0.121614 1.5706e-20)
(-0.207952 0.151334 -5.80131e-21)
(-0.215227 0.183777 2.63138e-20)
(-0.220461 0.218518 1.67069e-21)
(-0.223277 0.254857 -2.09755e-21)
(-0.223345 0.291803 4.60233e-21)
(-0.220341 0.328129 9.10928e-21)
(-0.214183 0.362563 5.56922e-21)
(-5.14525e-06 -0.0193809 1.22021e-20)
(-0.00289854 -0.0436987 6.48056e-21)
(-0.00994987 -0.0572108 -7.09316e-21)
(-0.0194216 -0.0622741 -2.71152e-20)
(-0.0306123 -0.0611336 1.97802e-20)
(-0.0429835 -0.0557527 -9.65884e-21)
(-0.0561003 -0.0477018 5.24532e-22)
(-0.0696523 -0.0380973 -1.69709e-20)
(-0.0834169 -0.0275965 3.42682e-21)
(-0.0972293 -0.0164436 2.2991e-21)
(-0.110959 -0.00456538 -5.13761e-20)
(-0.124494 0.00831662 -1.0296e-21)
(-0.137723 0.0225805 5.72438e-20)
(-0.150531 0.0386232 -2.84494e-20)
(-0.162781 0.0568078 -5.36661e-21)
(-0.174307 0.0774329 1.1939e-20)
(-0.1849 0.100713 -2.47125e-20)
(-0.194301 0.126753 -1.52182e-21)
(-0.202192 0.155522 2.39941e-20)
(-0.208201 0.186806 -8.77639e-20)
(-0.211907 0.22017 -2.66616e-20)
(-0.212883 0.254928 4.00706e-20)
(-0.210737 0.29013 1.9276e-20)
(-0.204997 0.32459 3.43249e-21)
(-0.19544 0.357148 -8.07909e-21)
(0.000394177 -0.017865 -2.46843e-20)
(-0.00202326 -0.0399945 -8.29569e-22)
(-0.00881279 -0.0519494 -3.34706e-20)
(-0.0181519 -0.0559289 5.02319e-20)
(-0.0292738 -0.0540634 -5.70304e-20)
(-0.0415906 -0.0482214 -4.97186e-21)
(-0.0546317 -0.0398989 -5.08349e-21)
(-0.0680637 -0.0301599 9.11142e-21)
(-0.0816496 -0.0196266 3.08669e-20)
(-0.0952154 -0.00852559 -5.34604e-21)
(-0.108623 0.00322522 -8.6467e-21)
(-0.121752 0.0159059 3.29879e-20)
(-0.134479 0.0298918 -6.51396e-21)
(-0.146673 0.0455724 3.2821e-20)
(-0.158177 0.0632982 -6.4518e-20)
(-0.168804 0.0833498 -2.59261e-20)
(-0.17832 0.105918 4.55773e-21)
(-0.18644 0.131082 -8.46906e-20)
(-0.192816 0.158781 2.26708e-20)
(-0.197044 0.18878 5.26094e-20)
(-0.198666 0.220633 -3.12683e-20)
(-0.197201 0.25366 -7.71455e-20)
(-0.192201 0.28695 -3.87589e-20)
(-0.183054 0.319353 -7.04993e-20)
(-0.169258 0.34976 -3.85415e-20)
(0.000723496 -0.0163416 1.16211e-20)
(-0.00129196 -0.0362927 -1.90901e-20)
(-0.00782848 -0.0467188 6.0855e-20)
(-0.0170033 -0.0496541 -4.86861e-20)
(-0.027994 -0.0471074 -1.2234e-20)
(-0.0401687 -0.0408471 -2.95469e-21)
(-0.0530252 -0.0322925 3.9411e-20)
(-0.066208 -0.0224547 2.73787e-20)
(-0.0794655 -0.0119238 -4.94138e-20)
(-0.0926139 -0.00090975 2.03941e-20)
(-0.105507 0.0106742 2.02955e-21)
(-0.118013 0.0231067 -9.21887e-20)
(-0.129997 0.0367578 -3.05721e-20)
(-0.141309 0.0520084 2.62399e-21)
(-0.151773 0.0691964 2.04218e-20)
(-0.161177 0.088585 9.05608e-20)
(-0.169262 0.110342 9.38764e-21)
(-0.175715 0.134523 8.49033e-20)
(-0.180161 0.161039 8.09729e-20)
(-0.182162 0.189636 -9.80283e-21)
(-0.181222 0.219853 3.77943e-20)
(-0.176811 0.251013 -1.23389e-20)
(-0.168435 0.282233 4.57201e-20)
(-0.155382 0.312415 1.52605e-19)
(-0.136644 0.340418 2.45219e-20)
(0.000983348 -0.0148287 1.91543e-20)
(-0.000705574 -0.0326333 -6.96026e-20)
(-0.00700323 -0.0415718 8.96779e-20)
(-0.015989 -0.0435096 3.30556e-20)
(-0.0267944 -0.0403296 2.62845e-20)
(-0.0387492 -0.0336969 2.79105e-20)
(-0.0513222 -0.0249526 -1.46383e-19)
(-0.0641372 -0.0150547 5.36419e-20)
(-0.0769284 -0.00456247 5.62137e-20)
(-0.0895014 0.00632744 -8.30346e-20)
(-0.101701 0.0177036 8.59278e-20)
(-0.113385 0.0298404 4.7352e-20)
(-0.124404 0.0431001 5.65102e-20)
(-0.13459 0.0578537 -3.79071e-20)
(-0.143747 0.0744265 -8.11829e-21)
(-0.151637 0.0930652 1.82792e-19)
(-0.157978 0.113917 -7.94827e-20)
(-0.162428 0.137013 5.92943e-20)
(-0.164586 0.162243 -1.46169e-19)
(-0.163984 0.189329 -5.63957e-20)
(-0.160094 0.217798 5.47543e-20)
(-0.152335 0.246969 9.35151e-20)
(-0.140179 0.275977 1.45556e-20)
(-0.122916 0.303805 -1.21901e-19)
(-0.0986929 0.329219 -8.44868e-20)
(0.0011755 -0.0133423 -7.42154e-20)
(-0.000262875 -0.0290514 -2.34218e-20)
(-0.00634143 -0.0365542 -5.33706e-20)
(-0.0151215 -0.0375479 -5.15014e-20)
(-0.0256969 -0.033787 3.67855e-20)
(-0.0373641 -0.0268316 -6.477e-20)
(-0.0495662 -0.0179433 -4.10658e-20)
(-0.0619072 -0.00802731 -2.09174e-19)
(-0.074107 0.00238662 8.81949e-21)
(-0.085961 0.0131129 -1.45818e-21)
(-0.0973042 0.0242391 -1.57999e-19)
(-0.107983 0.0360323 -5.25326e-20)
(-0.117836 0.0488448 -6.73931e-20)
(-0.126678 0.0630365 1.27376e-19)
(-0.134289 0.0789198 3.64233e-20)
(-0.140412 0.0967258 -1.00792e-19)
(-0.144736 0.116584 -1.066e-19)
(-0.146898 0.138502 2.68315e-20)
(-0.14647 0.162349 1.1627e-19)
(-0.14296 0.187828 -2.30506e-20)
(-0.135814 0.214454 -1.464e-20)
(-0.124414 0.241535 -7.08066e-20)
(-0.108189 0.268205 -8.72616e-20)
(-0.0865875 0.293555 7.26168e-20)
(-0.0565965 0.31646 5.06646e-20)
(0.00130261 -0.0118954 3.91055e-20)
(3.89779e-05 -0.0255763 4.57276e-20)
(-0.005846 -0.0317053 -3.5622e-20)
(-0.0144121 -0.0318146 -7.3334e-20)
(-0.0247227 -0.0275301 1.14183e-20)
(-0.0360461 -0.0203058 8.6136e-20)
(-0.0478019 -0.0113233 1.23954e-19)
(-0.0595758 -0.00143503 1.67451e-19)
(-0.0710738 0.00885752 2.83564e-20)
(-0.0820803 0.0193781 3.9025e-20)
(-0.0924213 0.0302106 4.71613e-20)
(-0.101933 0.0416121 1.75354e-19)
(-0.110441 0.053923 -9.98668e-21)
(-0.117743 0.0674906 -2.1998e-19)
(-0.123602 0.0826141 1.55992e-19)
(-0.127736 0.0995103 6.018e-20)
(-0.129816 0.118291 1.94378e-19)
(-0.129453 0.138948 -8.09432e-20)
(-0.1262 0.161328 -8.7771e-20)
(-0.119547 0.18512 2.47931e-19)
(-0.108923 0.209822 -8.08969e-20)
(-0.0936932 0.234742 -1.24813e-19)
(-0.0732244 0.258984 -3.16801e-20)
(-0.04719 0.281721 -1.0452e-19)
(-0.0114879 0.302135 1.90755e-20)
(0.0013679 -0.0104983 9.6758e-21)
(0.000203912 -0.0222312 -1.77767e-20)
(-0.00551872 -0.0270568 3.65302e-21)
(-0.013871 -0.0263475 -1.30844e-19)
(-0.0238926 -0.0216014 -1.02097e-19)
(-0.0348274 -0.0141664 -1.94071e-20)
(-0.0460746 -0.00514418 -4.87143e-20)
(-0.0572022 0.00466579 -9.06964e-20)
(-0.0679026 0.0147897 -2.14096e-20)
(-0.0779499 0.0250591 -9.27528e-21)
(-0.0871609 0.0355524 -9.24538e-20)
(-0.0953626 0.0465142 3.88548e-20)
(-0.102369 0.0582707 3.02274e-20)
(-0.107963 0.0711551 1.59576e-19)
(-0.111892 0.0854536 -6.10867e-21)
(-0.113855 0.101369 -9.49759e-20)
(-0.113502 0.118999 -1.10848e-20)
(-0.110427 0.138319 3.74586e-20)
(-0.104167 0.159161 1.58562e-19)
(-0.0942022 0.181198 -1.20154e-19)
(-0.0799538 0.203921 3.0269e-19)
(-0.0607974 0.226631 1.25367e-19)
(-0.0360395 0.248413 -9.26445e-20)
(-0.00566264 0.268478 1.85813e-19)
(0.0357858 0.286144 1.09967e-19)
(0.00137484 -0.0091583 1.08474e-20)
(0.000236404 -0.0190331 5.83309e-20)
(-0.00536057 -0.0226325 1.63389e-19)
(-0.0135076 -0.0211758 2.04795e-19)
(-0.023226 -0.016035 1.21035e-19)
(-0.0337393 -0.00845271 -8.42491e-20)
(-0.044428 0.000549801 2.05749e-19)
(-0.0548441 0.0102259 2.26684e-20)
(-0.0646669 0.0201293 -1.22209e-19)
(-0.0736601 0.0300983 1.39212e-20)
(-0.0816321 0.0402045 2.21345e-19)
(-0.0884017 0.050678 -2.33982e-19)
(-0.0937729 0.0618288 -1.31506e-19)
(-0.0975183 0.0739748 -2.73673e-20)
(-0.0993692 0.0873884 -2.12625e-19)
(-0.0990106 0.10226 -1.35104e-19)
(-0.0960769 0.118674 2.26029e-20)
(-0.0901496 0.136592 -2.73239e-19)
(-0.0807561 0.155837 2.32272e-20)
(-0.0673726 0.17607 -1.27078e-19)
(-0.0494251 0.196778 -1.56512e-19)
(-0.0263194 0.217266 1.41098e-19)
(0.00272517 0.236583 1.61489e-19)
(0.0371551 0.254029 -1.24856e-19)
(0.0843053 0.268743 1.75424e-19)
(0.00132682 -0.00787971 -1.35715e-19)
(0.00014099 -0.0159928 9.92705e-20)
(-0.00537208 -0.0184486 -8.24053e-21)
(-0.0133303 -0.0163204 3.89297e-20)
(-0.022741 -0.0108564 3.67649e-20)
(-0.0328104 -0.00319507 1.67948e-19)
(-0.0429032 0.00572285 -1.21731e-19)
(-0.0525562 0.015204 -2.24374e-19)
(-0.0614363 0.0248298 1.11666e-19)
(-0.0692975 0.0344452 1.03654e-19)
(-0.0759404 0.0441136 -3.47144e-19)
(-0.0811768 0.0540495 2.42125e-19)
(-0.0848033 0.0645448 3.61666e-19)
(-0.0865834 0.0759007 2.2961e-20)
(-0.0862384 0.0883752 -5.97382e-20)
(-0.0834418 0.102146 1.75015e-19)
(-0.0778177 0.117288 -7.92937e-20)
(-0.0689403 0.133753 3.49154e-19)
(-0.0563344 0.151353 -3.02849e-19)
(-0.0394812 0.169751 5.46421e-20)
(-0.017815 0.188431 -2.74292e-20)
(0.00918038 0.206715 -9.09996e-20)
(0.042477 0.223587 -8.78522e-20)
(0.0806024 0.238498 7.41274e-20)
(0.133304 0.25018 1.54421e-20)
(0.00122688 -0.00666399 8.74751e-20)
(-7.81523e-05 -0.0131149 -6.34972e-20)
(-0.00555346 -0.0145135 5.10239e-20)
(-0.0133461 -0.0117936 -1.75613e-19)
(-0.0224529 -0.00608248 -3.92627e-20)
(-0.0320662 0.00158496 1.92296e-20)
(-0.0415366 0.0103482 -4.34088e-20)
(-0.0503876 0.0195679 -7.12967e-20)
(-0.0582743 0.0288538 2.15541e-20)
(-0.0649416 0.0380578 -1.19389e-19)
(-0.0701831 0.0472348 2.21713e-19)
(-0.0738051 0.0565826 -5.11221e-20)
(-0.0755989 0.0663736 -1.28396e-19)
(-0.0753222 0.0768912 -1.28639e-19)
(-0.0726898 0.0883785 1.66719e-19)
(-0.0673689 0.101001 8.57587e-20)
(-0.058978 0.114825 3.50087e-20)
(-0.0470908 0.129794 -2.8556e-19)
(-0.0312348 0.145721 2.91106e-19)
(-0.0109067 0.162268 -9.21267e-20)
(0.014453 0.178918 -4.34394e-20)
(0.0452226 0.195037 -3.27335e-20)
(0.0827181 0.209531 -3.66546e-20)
(0.124154 0.222046 1.18969e-19)
(0.182249 0.230624 -2.02972e-19)
(0.00107747 -0.00551009 -3.26744e-20)
(-0.000417511 -0.0103987 1.38524e-19)
(-0.00590467 -0.0108287 -1.9976e-19)
(-0.0135603 -0.00759996 8.02848e-20)
(-0.0223739 -0.00172118 4.30813e-20)
(-0.0315266 0.00587507 -6.6322e-20)
(-0.0403576 0.0144088 1.92727e-19)
(-0.0483783 0.0232954 4.75822e-20)
(-0.0552334 0.0321742 2.00941e-20)
(-0.0606591 0.0409046 1.84939e-19)
(-0.064443 0.0495335 -7.49906e-20)
(-0.0663872 0.0582414 7.67679e-20)
(-0.0662798 0.0672806 -8.24332e-20)
(-0.0638758 0.0769154 -4.76372e-21)
(-0.0588873 0.0873733 -8.65921e-20)
(-0.05098 0.0988086 -2.94181e-19)
(-0.0397727 0.111279 5.92405e-20)
(-0.0248418 0.124726 2.24564e-19)
(-0.00572721 0.138964 -7.85125e-20)
(0.0180497 0.153656 3.62509e-19)
(0.0470586 0.1683 -1.98308e-19)
(0.0814549 0.182312 -5.54265e-20)
(0.123121 0.194517 -9.27881e-20)
(0.16748 0.204854 2.6971e-21)
(0.230936 0.210236 -8.56171e-20)
(0.000880276 -0.00441477 -9.50801e-20)
(-0.000874406 -0.00783885 -1.43415e-19)
(-0.00642531 -0.00738936 -7.57649e-20)
(-0.0139762 -0.0037364 7.18107e-20)
(-0.0225119 0.00222776 2.19748e-20)
(-0.0312052 0.00967223 1.27538e-20)
(-0.0393862 0.0178978 4.86977e-20)
(-0.0465564 0.0263756 -2.35718e-19)
(-0.0523509 0.0347757 7.61371e-20)
(-0.0564984 0.0429666 -1.60089e-19)
(-0.0587811 0.050988 -5.57804e-20)
(-0.0589978 0.0590033 -7.67387e-20)
(-0.0569354 0.0672444 -1.5836e-19)
(-0.0523487 0.0759558 3.20468e-19)
(-0.0449508 0.0853491 1.77665e-19)
(-0.0344093 0.095568 4.82334e-20)
(-0.0203482 0.106664 1.43796e-19)
(-0.00235295 0.118577 -2.04007e-19)
(0.0200233 0.131124 -5.06359e-20)
(0.0472215 0.143983 -2.28858e-19)
(0.0798523 0.156665 8.83785e-20)
(0.117737 0.168646 1.91046e-19)
(0.163643 0.178671 9.00991e-20)
(0.210566 0.187124 -1.67334e-19)
(0.279674 0.189234 2.18037e-19)
(0.00063619 -0.00337309 -3.25357e-20)
(-0.00144699 -0.00542612 7.66577e-21)
(-0.00711431 -0.00418531 9.62445e-20)
(-0.0145941 -0.000193424 1.70473e-19)
(-0.0228689 0.00577245 -1.13862e-19)
(-0.0311064 0.0129825 1.0863e-19)
(-0.0386302 0.0208187 -8.52701e-20)
(-0.0449337 0.028809 3.21928e-19)
(-0.049644 0.0366561 -2.23972e-19)
(-0.0524828 0.0442393 4.80683e-20)
(-0.0532275 0.0515922 2.03601e-19)
(-0.0516745 0.0588624 -2.65831e-20)
(-0.0476101 0.0662613 2.14289e-20)
(-0.0407908 0.074014 -2.58687e-19)
(-0.0309326 0.0823165 -2.14608e-19)
(-0.0177082 0.0913021 -8.7057e-21)
(-0.00074936 0.101017 -2.26385e-19)
(0.0203467 0.111403 7.96486e-20)
(0.0460146 0.122284 -1.11932e-19)
(0.0766478 0.133355 1.42418e-19)
(0.112948 0.144152 -1.87121e-19)
(0.154258 0.154204 1.08873e-19)
(0.20467 0.162186 -9.2393e-20)
(0.253873 0.169092 1.31843e-19)
(0.329489 0.167962 -9.49354e-21)
(0.000345291 -0.00237899 1.83092e-19)
(-0.00213405 -0.00314866 4.51665e-20)
(-0.00796946 -0.00120243 -1.05218e-19)
(-0.0154105 0.00304394 -1.26154e-19)
(-0.0234402 0.0089279 8.50087e-20)
(-0.0312241 0.0158205 -3.10238e-19)
(-0.0380822 0.0231855 4.39622e-19)
(-0.0435021 0.030609 8.31656e-20)
(-0.0471039 0.0378279 1.39521e-19)
(-0.0486031 0.0447344 1.68472e-19)
(-0.0477722 0.0513584 1.03921e-19)
(-0.0444048 0.0578328 -7.61778e-20)
(-0.0382866 0.0643501 -8.31647e-22)
(-0.0291757 0.0711165 -3.6432e-20)
(-0.0167914 0.0783131 -1.06021e-19)
(-0.000811283 0.0860635 2.3333e-19)
(0.0191256 0.0944111 4.66141e-19)
(0.0434116 0.103302 2.41575e-20)
(0.072476 0.112573 1.52438e-19)
(0.106658 0.121936 -7.77487e-20)
(0.146822 0.130974 9.66641e-20)
(0.191659 0.139226 -5.50592e-19)
(0.247155 0.145371 2.62079e-19)
(0.298481 0.151047 1.64463e-19)
(0.382226 0.146957 -1.12389e-19)
(6.98128e-06 -0.00142587 -1.09105e-19)
(-0.00293467 -0.000993136 -1.87726e-19)
(-0.00898667 0.00157611 1.79453e-19)
(-0.0164171 0.00599479 1.17918e-19)
(-0.0242121 0.011715 6.20899e-20)
(-0.0315388 0.018209 2.2266e-19)
(-0.0377165 0.0250226 -2.30763e-19)
(-0.0422289 0.0318015 -2.11225e-19)
(-0.0446903 0.0383189 -1.38347e-19)
(-0.0448097 0.0444822 -3.18131e-19)
(-0.0423539 0.05032 5.94036e-20)
(-0.0371122 0.0559531 -2.41664e-20)
(-0.0288677 0.0615568 4.32612e-19)
(-0.0173776 0.0673205 1.75479e-19)
(-0.00236138 0.0734114 1.243e-19)
(0.016502 0.0799458 -4.08946e-20)
(0.0395715 0.0869671 -2.14174e-19)
(0.0672361 0.0944289 -1.68656e-19)
(0.0999344 0.102187 -1.92125e-19)
(0.137948 0.109966 1.3572e-19)
(0.182395 0.117434 2.5037e-19)
(0.23111 0.124051 2.80799e-19)
(0.292646 0.128691 -2.64875e-19)
(0.346145 0.13335 1.14115e-19)
(0.440339 0.126963 1.61681e-19)
(-0.000379781 -0.000507213 -2.83397e-19)
(-0.00384759 0.00105393 1.58256e-19)
(-0.0101592 0.00416832 -2.70154e-19)
(-0.0175993 0.0086809 3.30954e-19)
(-0.0251609 0.0141594 -3.16616e-19)
(-0.0320162 0.0201774 -9.44389e-20)
(-0.0374864 0.0263637 -1.74635e-19)
(-0.0410531 0.032425 9.74889e-20)
(-0.0423254 0.0381726 -1.65113e-19)
(-0.0410048 0.043532 1.78893e-19)
(-0.0368503 0.0485335 -2.31999e-19)
(-0.0296429 0.053289 -1.68337e-19)
(-0.0191588 0.0579594 3.59831e-21)
(-0.00514854 0.0627196 -2.48426e-19)
(0.0126751 0.0677265 6.81052e-21)
(0.0346405 0.0730921 -2.40025e-19)
(0.0611155 0.0788633 -1.43561e-20)
(0.0924976 0.0850053 -2.50683e-19)
(0.129256 0.0913986 8.60154e-20)
(0.171613 0.0977752 3.64666e-19)
(0.221034 0.103942 -3.48073e-19)
(0.274292 0.109122 1.70111e-19)
(0.343124 0.112753 1.86988e-19)
(0.399116 0.116454 -9.42411e-20)
(0.506295 0.108855 3.87664e-20)
(-0.000816167 0.000382733 1.46869e-19)
(-0.00487059 0.00300495 -4.17102e-20)
(-0.0114765 0.00659187 9.16137e-20)
(-0.0189355 0.0111251 -2.66125e-19)
(-0.0262513 0.0162895 4.23537e-19)
(-0.0326047 0.0217607 2.77368e-20)
(-0.0373214 0.0272512 3.0334e-19)
(-0.039882 0.0325298 -1.57528e-19)
(-0.0398897 0.0374482 1.05339e-19)
(-0.0370366 0.0419531 1.36993e-19)
(-0.031069 0.0460797 1.24301e-19)
(-0.0217544 0.0499352 3.84651e-19)
(-0.00885387 0.05367 -9.7858e-20)
(0.00789836 0.0574487 -9.29875e-20)
(0.0288074 0.0614215 -7.08393e-20)
(0.054222 0.0657007 -3.15085e-21)
(0.0845341 0.0703414 -1.42439e-19)
(0.120165 0.0753246 1.27135e-19)
(0.161634 0.0805639 -1.63849e-19)
(0.209103 0.0857814 6.2953e-20)
(0.264434 0.0909983 -9.08719e-20)
(0.323198 0.0949819 1.0854e-20)
(0.400604 0.0982482 -4.36399e-19)
(0.459711 0.100916 4.50587e-20)
(0.581668 0.0934717 -3.65727e-21)
(-0.00130307 0.00124841 1.93115e-19)
(-0.00599957 0.00487 -1.30786e-19)
(-0.0129234 0.00886258 -9.18504e-20)
(-0.0203957 0.0133499 -5.61432e-20)
(-0.0274349 0.0181355 -1.82553e-19)
(-0.033234 0.022998 -3.05305e-19)
(-0.0371252 0.0277343 -9.9167e-20)
(-0.0385883 0.0321765 3.37393e-19)
(-0.0372186 0.0362193 -1.05193e-19)
(-0.0326942 0.0398332 -2.22819e-19)
(-0.0247427 0.0430632 -1.32166e-19)
(-0.013109 0.046016 -3.93045e-19)
(0.00247198 0.0488364 -4.16672e-19)
(0.0222955 0.0516839 3.0841e-19)
(0.0466992 0.0547078 6.21942e-20)
(0.076068 0.0580254 5.01925e-20)
(0.110833 0.0617054 4.92974e-19)
(0.15145 0.0657482 7.29576e-20)
(0.198497 0.0701083 4.49505e-19)
(0.25206 0.0744738 -5.31345e-19)
(0.314359 0.0791573 2.46403e-19)
(0.379756 0.0822384 -2.21945e-19)
(0.466566 0.0858248 3.51053e-19)
(0.529646 0.08737 -5.37375e-19)
(0.666269 0.0814198 1.15175e-19)
(-0.00184063 0.0020924 -4.92311e-20)
(-0.00722772 0.00665579 -1.03309e-19)
(-0.0144792 0.0109931 -9.48774e-20)
(-0.0219405 0.0153753 3.2052e-20)
(-0.0286496 0.019727 -5.06102e-20)
(-0.0338147 0.0239302 1.93533e-19)
(-0.0367755 0.0278669 -6.80888e-20)
(-0.0370096 0.031434 -1.43535e-19)
(-0.0341009 0.0345713 -5.93655e-20)
(-0.0277073 0.0372769 2.8451e-21)
(-0.0175285 0.0396102 3.64639e-19)
(-0.00327506 0.0416822 -3.12642e-19)
(0.0153579 0.0436387 4.4818e-19)
(0.0387103 0.0456402 -1.26979e-19)
(0.0671677 0.0478407 -2.12586e-19)
(0.101164 0.0503686 1.76119e-19)
(0.141177 0.0533105 -1.86906e-19)
(0.187693 0.0566877 -3.07641e-19)
(0.241327 0.0605003 -1.14255e-19)
(0.302052 0.0643748 1.03667e-19)
(0.372266 0.0689603 1.63135e-19)
(0.445325 0.071508 3.18223e-19)
(0.541404 0.0759624 1.93222e-20)
(0.609321 0.0764414 2.26864e-19)
(0.757743 0.0729364 -7.83135e-20)
(-0.00242778 0.00291507 -2.39861e-20)
(-0.0085446 0.00836478 2.25896e-19)
(-0.0161164 0.0129915 2.34141e-19)
(-0.0235204 0.0172181 -1.05195e-19)
(-0.0298188 0.0210913 7.40317e-20)
(-0.0342374 0.0245979 -2.71823e-19)
(-0.0361233 0.0277054 5.37699e-20)
(-0.0349491 0.0303765 4.31963e-20)
(-0.0302815 0.0325986 -1.24498e-19)
(-0.0217494 0.0344015 -3.38201e-20)
(-0.0090138 0.0358637 -4.53234e-19)
(0.00826262 0.0371066 1.4236e-19)
(0.0304392 0.0382836 -2.16514e-20)
(0.0579145 0.0395627 -6.26689e-21)
(0.0911327 0.0411088 -1.87073e-20)
(0.13058 0.0430659 -1.5701e-21)
(0.176769 0.045541 -1.37039e-20)
(0.230185 0.0485739 2.1451e-19)
(0.291407 0.0522077 -1.84378e-19)
(0.360233 0.0559857 1.66295e-19)
(0.438907 0.0608613 -2.42192e-19)
(0.520188 0.0633207 -1.16714e-19)
(0.62411 0.0688903 3.5403e-20)
(0.697308 0.068587 -1.91664e-19)
(0.851887 0.0678543 -6.50568e-20)
(-0.00306177 0.00371424 -2.24118e-19)
(-0.00993542 0.00999456 -2.87954e-20)
(-0.0178004 0.0148606 -2.86694e-19)
(-0.0250757 0.0188897 -2.30609e-19)
(-0.0308522 0.0222522 3.0532e-19)
(-0.0343746 0.0250397 2.08693e-19)
(-0.0349957 0.0273056 -9.17264e-20)
(-0.0321788 0.0290801 -8.08363e-20)
(-0.0254657 0.0304005 -5.9526e-20)
(-0.0144464 0.0313323 5.12475e-19)
(0.00126978 0.031978 1.95227e-19)
(0.0220809 0.0324764 2.69025e-19)
(0.0484134 0.0329945 -1.56723e-20)
(0.080732 0.0337144 4.87022e-20)
(0.119538 0.0348167 1.33702e-19)
(0.165353 0.0364635 -3.1131e-19)
(0.218685 0.0387807 4.81448e-19)
(0.279947 0.0418181 4.89385e-20)
(0.349553 0.0456467 -1.50661e-19)
(0.427025 0.0497233 -2.23717e-19)
(0.514026 0.0551672 -1.1989e-19)
(0.603236 0.0580072 2.67817e-19)
(0.712311 0.064585 -8.63615e-21)
(0.790306 0.0639369 1.45327e-19)
(0.943597 0.0656651 1.80576e-19)
(-0.00373776 0.00448521 1.7051e-19)
(-0.0113804 0.0115376 1.79742e-20)
(-0.0194894 0.0165972 -3.76954e-20)
(-0.0265369 0.0203956 4.12948e-20)
(-0.0316463 0.0232276 -2.89277e-19)
(-0.034082 0.0252892 3.83455e-19)
(-0.0331992 0.0267202 -1.38937e-21)
(-0.0284456 0.0276191 3.09247e-19)
(-0.0193292 0.028076 1.38442e-20)
(-0.00539032 0.0281961 -1.04439e-19)
(0.0138251 0.028111 1.60636e-19)
(0.0387865 0.027983 -5.30759e-19)
(0.0699922 0.0279991 -3.20081e-19)
(0.107969 0.02836 -1.55313e-19)
(0.153255 0.0292649 -6.59075e-20)
(0.20636 0.0308921 5.61642e-21)
(0.267708 0.0333791 -3.12502e-19)
(0.337523 0.0367712 1.15639e-19)
(0.415882 0.0411348 4.37901e-19)
(0.5019 0.0458604 1.18746e-19)
(0.596245 0.052008 2.84825e-19)
(0.691967 0.0556137 -2.81987e-19)
(0.802622 0.0628169 -6.67178e-20)
(0.883671 0.0622335 -1.14397e-19)
(1.02802 0.0656426 -6.27451e-19)
(-0.00444855 0.0052208 -1.59071e-19)
(-0.0128543 0.0129815 8.09695e-20)
(-0.0211337 0.0181917 1.44651e-19)
(-0.0278247 0.0217347 5.01543e-19)
(-0.0320865 0.0240286 1.8876e-19)
(-0.0332017 0.0253737 -4.17714e-19)
(-0.0305241 0.0259956 -1.04836e-19)
(-0.0234784 0.0260625 -5.57041e-20)
(-0.0115295 0.0257196 -1.78953e-19)
(0.0058424 0.0251153 -5.89752e-20)
(0.0291627 0.0244161 -1.18014e-19)
(0.0589756 0.0238127 4.23415e-19)
(0.0958449 0.0235164 4.95578e-19)
(0.140336 0.0237496 2.4448e-19)
(0.192974 0.0247286 -1.23225e-19)
(0.254178 0.0266412 -8.41784e-20)
(0.324169 0.0296211 1.81193e-19)
(0.402828 0.0336889 -3.89364e-20)
(0.489696 0.0388579 -2.14616e-21)
(0.583338 0.0444869 9.36129e-20)
(0.683168 0.0513322 -1.34082e-19)
(0.782857 0.055892 -2.32769e-19)
(0.891181 0.0632007 -1.58086e-19)
(0.972395 0.0629052 1.99347e-19)
(1.10151 0.0669949 6.57208e-19)
(-0.00518438 0.00591171 1.26646e-19)
(-0.0143265 0.014309 4.31775e-19)
(-0.0226767 0.0196287 1.73009e-19)
(-0.0288518 0.0228988 -1.53757e-19)
(-0.0320486 0.024659 2.13575e-19)
(-0.0315662 0.0253122 2.34727e-19)
(-0.0267513 0.0251698 2.61627e-19)
(-0.0169981 0.0244702 -1.53792e-20)
(-0.00172004 0.0234161 2.02226e-19)
(0.0196696 0.0222025 -6.1743e-19)
(0.0477698 0.0210348 3.45377e-19)
(0.0831915 0.0201361 -1.79976e-19)
(0.12654 0.0197448 -4.47237e-19)
(0.17837 0.0201038 -3.17451e-19)
(0.239116 0.0214404 5.095e-19)
(0.308991 0.0239382 -1.71265e-19)
(0.387856 0.0277047 -8.24888e-20)
(0.475083 0.0327092 6.23906e-20)
(0.569492 0.0388565 -3.10035e-19)
(0.668979 0.0455026 2.4897e-19)
(0.771684 0.0529188 -4.02743e-20)
(0.871967 0.0583699 2.89914e-19)
(0.974247 0.065241 3.40061e-19)
(1.05217 0.0652314 -1.18546e-19)
(1.16206 0.0690037 -2.42459e-19)
(-0.005933 0.00654701 -6.58259e-20)
(-0.0157612 0.0154993 -2.45173e-19)
(-0.0240555 0.0208872 6.2223e-21)
(-0.0295241 0.0238729 -1.23917e-19)
(-0.0314023 0.0251144 -3.64026e-19)
(-0.0290024 0.0251152 -1.87557e-19)
(-0.0216585 0.0242711 1.0295e-19)
(-0.00872749 0.0228915 -3.18579e-19)
(0.0104343 0.021238 2.53664e-20)
(0.036482 0.0195554 1.5389e-19)
(0.0700801 0.0180909 -4.37423e-19)
(0.111883 0.017102 -1.42435e-19)
(0.162491 0.0168535 3.57457e-19)
(0.222375 0.0176034 2.36432e-19)
(0.291766 0.0195779 -3.01636e-19)
(0.370524 0.0229364 3.17329e-19)
(0.457989 0.0277297 1.30275e-19)
(0.552851 0.0338457 -3.10673e-20)
(0.653102 0.0410295 -2.80311e-20)
(0.755923 0.0486435 -2.65031e-19)
(0.8584 0.0564055 2.92472e-20)
(0.955591 0.0624628 -4.98311e-20)
(1.04873 0.06839 -2.66711e-19)
(1.12013 0.0685127 -1.97264e-19)
(1.20932 0.0711119 -1.88113e-19)
(-0.00667983 0.00711479 -4.12962e-20)
(-0.0171177 0.0165291 -5.42668e-19)
(-0.0252017 0.0219421 -3.35744e-19)
(-0.0297426 0.0246364 -4.28308e-19)
(-0.0300134 0.0253833 3.78552e-19)
(-0.0253362 0.024784 3.0706e-20)
(-0.0150275 0.0233175 2.72195e-19)
(0.00159857 0.0213636 -2.48156e-19)
(0.0252433 0.019244 4.08519e-19)
(0.0566231 0.0172555 1.51749e-19)
(0.096447 0.0156881 1.20262e-20)
(0.145371 0.0148334 -2.29617e-20)
(0.203922 0.0149779 -8.00696e-20)
(0.27238 0.0163845 -7.00961e-20)
(0.350639 0.0192594 7.07948e-20)
(0.438047 0.0237108 9.92229e-20)
(0.533261 0.029698 -6.23535e-19)
(0.634176 0.0369945 3.81575e-20)
(0.737939 0.0451524 -1.00533e-19)
(0.8411 0.0535286 -9.10827e-20)
(0.94011 0.0613384 4.57971e-20)
(1.03077 0.0675758 -2.94293e-19)
(1.1126 0.0721276 1.3412e-19)
(1.1751 0.0721958 1.72072e-19)
(1.24422 0.0729431 -3.95893e-19)
(-0.00740828 0.00760291 9.65026e-20)
(-0.0183515 0.0173736 3.92635e-19)
(-0.026043 0.0227655 3.41385e-20)
(-0.0294048 0.0251642 6.21864e-19)
(-0.0277467 0.0254483 -3.9439e-19)
(-0.0203962 0.0243129 3.85527e-19)
(-0.00664889 0.0223178 -3.44524e-19)
(0.0142249 0.0199123 1.35389e-19)
(0.0429791 0.0174795 -1.72585e-19)
(0.0803731 0.015368 2.25788e-19)
(0.127124 0.0139103 3.70313e-19)
(0.183827 0.013428 1.88841e-19)
(0.250839 0.0142206 7.51181e-20)
(0.328126 0.0165391 8.1284e-20)
(0.415089 0.020545 -5.88831e-20)
(0.510411 0.0262619 -4.78883e-20)
(0.61195 0.0335213 5.08719e-19)
(0.71677 0.0419513 1.65183e-19)
(0.821288 0.0509048 4.49585e-19)
(0.921653 0.0597136 1.17226e-20)
(1.0142 0.0672354 -2.78437e-19)
(1.09561 0.0731758 3.45972e-19)
(1.16498 0.0760444 4.37629e-19)
(1.21731 0.0759365 5.7431e-20)
(1.26842 0.0742673 3.89913e-19)
(-0.00810026 0.00799977 -2.7384e-19)
(-0.0194148 0.0180087 1.52172e-19)
(-0.0265037 0.023329 3.34949e-19)
(-0.0284069 0.0254292 -1.31911e-19)
(-0.0244683 0.0252882 -3.91848e-19)
(-0.0140176 0.0236907 -2.87267e-20)
(0.00367211 0.0212737 2.10273e-20)
(0.0293697 0.0185555 3.75079e-20)
(0.063868 0.0159797 -2.39241e-19)
(0.107939 0.0139456 -1.00198e-19)
(0.162252 0.0128252 -3.45856e-19)
(0.227259 0.0129623 -7.844e-21)
(0.30303 0.014655 -9.32649e-20)
(0.389072 0.0181196 -2.816e-20)
(0.484143 0.023441 2.40005e-19)
(0.586137 0.0305221 -3.46635e-19)
(0.692064 0.0390328 1.44875e-19)
(0.798239 0.0484348 -2.22411e-19)
(0.900596 0.0579047 -3.26505e-19)
(0.995238 0.066743 6.09881e-20)
(1.07891 0.0736455 5.97215e-19)
(1.14931 0.0788335 -3.01328e-19)
(1.2061 0.0799038 1.30775e-20)
(1.24795 0.079588 2.61572e-19)
(1.28388 0.0749455 1.47572e-19)
(-0.00873669 0.00829505 1.28956e-19)
(-0.0202578 0.018412 -1.83595e-19)
(-0.0265066 0.023605 -3.89605e-19)
(-0.0266446 0.0254043 -2.0714e-19)
(-0.0200469 0.024881 2.26292e-19)
(-0.00604354 0.0229038 7.70727e-20)
(0.016113 0.020184 4.47801e-19)
(0.0472206 0.0173068 1.80512e-19)
(0.0880857 0.0147744 1.13225e-19)
(0.139447 0.0130341 5.2692e-20)
(0.201857 0.0124904 3.58115e-19)
(0.275514 0.0134975 1.59757e-19)
(0.36007 0.0163313 -1.2977e-19)
(0.454424 0.0211435 1.83205e-19)
(0.556561 0.0279058 -1.03176e-19)
(0.663517 0.0363633 1.28135e-19)
(0.77151 0.0460011 -1.21723e-19)
(0.87631 0.0561122 -2.64137e-19)
(0.973722 0.0657464 3.77309e-19)
(1.06022 0.0741949 -3.88975e-19)
(1.13339 0.0801872 1.09993e-19)
(1.19208 0.084248 -1.25576e-19)
(1.23699 0.0836524 -9.4621e-20)
(1.26872 0.0830548 -7.81011e-19)
(1.29247 0.0749004 1.22705e-19)
(-0.00929806 0.00848036 2.62955e-20)
(-0.0208294 0.0185645 1.31656e-19)
(-0.0259733 0.0235697 4.37131e-19)
(-0.0240144 0.0250658 -1.03175e-19)
(-0.014355 0.0242072 -4.48947e-20)
(0.00367364 0.0219413 8.36204e-20)
(0.0308333 0.0190496 7.42935e-20)
(0.0679324 0.0161816 -2.89984e-19)
(0.115755 0.0138948 -1.33639e-19)
(0.174946 0.0126789 -4.09566e-19)
(0.245845 0.0129605 -3.05918e-19)
(0.32828 0.0150858 -2.15113e-19)
(0.421338 0.019281 1.88244e-19)
(0.523171 0.0255969 -2.727e-19)
(0.630906 0.0338523 -1.28587e-19)
(0.74074 0.0436041 -5.60168e-20)
(0.848264 0.0541462 -3.7962e-20)
(0.949022 0.0646263 7.92153e-19)
(1.0391 0.0740379 5.06898e-20)
(1.11576 0.0817153 -6.86168e-20)
(1.17766 0.086567 -3.79083e-19)
(1.22485 0.089263 1.22533e-19)
(1.25913 0.0873332 1.25434e-20)
(1.28167 0.0860451 4.47201e-19)
(1.29608 0.0741098 4.78285e-20)
(-0.00976499 0.0085497 2.08534e-19)
(-0.021078 0.018452 -2.00832e-19)
(-0.0248256 0.0232052 -3.05393e-19)
(-0.0204134 0.024396 3.06778e-19)
(-0.00726944 0.0232535 -6.82976e-20)
(0.015272 0.0207986 -5.90387e-20)
(0.0479741 0.0178785 5.15903e-20)
(0.0916285 0.0152029 -7.33848e-20)
(0.146947 0.0133795 1.82664e-19)
(0.214403 0.0129315 1.17572e-19)
(0.294013 0.014292 3.0162e-19)
(0.385096 0.0177739 -7.4294e-21)
(0.486036 0.0235183 2.39624e-19)
(0.594132 0.0314339 -1.72864e-20)
(0.705631 0.0411502 2.4617e-19)
(0.816013 0.0520181 6.92453e-20)
(0.920526 0.0631579 -4.49234e-19)
(1.01487 0.0736231 -2.14436e-19)
(1.09583 0.0824342 -5.0442e-20)
(1.16171 0.0890353 1.37926e-19)
(1.21237 0.0925891 -6.54125e-20)
(1.24898 0.0938578 -2.28542e-19)
(1.27408 0.0908913 3.02816e-20)
(1.28885 0.088243 -2.09644e-19)
(1.2986 0.0772983 -1.01633e-19)
(-0.0101186 0.00849978 1.27816e-19)
(-0.0209524 0.0180665 1.36734e-19)
(-0.0229852 0.0225012 2.50703e-19)
(-0.0157402 0.0233854 -1.82597e-19)
(0.00132973 0.0220169 1.34782e-20)
(0.0288809 0.019483 3.6502e-19)
(0.0676587 0.0166916 -1.04546e-19)
(0.1184 0.0144075 -3.46698e-19)
(0.181681 0.013281 -2.03661e-19)
(0.257704 0.0138551 2.7104e-19)
(0.346043 0.0165469 -5.57886e-19)
(0.445364 0.021603 2.83724e-21)
(0.553222 0.0290375 -4.4835e-20)
(0.666009 0.0385745 3.41336e-19)
(0.779167 0.049627 -1.80282e-19)
(0.887692 0.0613444 2.46424e-19)
(0.986846 0.0727176 2.43448e-19)
(1.0729 0.0827793 -4.23739e-19)
(1.14362 0.0906603 -1.73587e-19)
(1.19854 0.095974 -1.42293e-19)
(1.23863 0.09816 2.15699e-19)
(1.26595 0.0980845 3.37674e-19)
(1.28338 0.09416 1.55447e-19)
(1.2924 0.0907183 -1.37922e-19)
(1.29831 0.0797903 -2.45776e-19)
(-0.0103404 0.00833002 -3.02319e-20)
(-0.0204022 0.0174064 1.28194e-19)
(-0.020374 0.0214558 -2.54728e-19)
(-0.00989436 0.0220371 -3.91105e-19)
(0.0115588 0.0205082 -5.79139e-19)
(0.044621 0.0180175 9.87684e-20)
(0.0899929 0.0155274 -1.15834e-19)
(0.148306 0.0138509 1.69125e-19)
(0.21992 0.0136692 6.25133e-20)
(0.304658 0.0155258 1.2048e-19)
(0.401509 0.0197913 1.3179e-19)
(0.508355 0.0266047 -7.18904e-20)
(0.621833 0.0358067 -1.02426e-19)
(0.737451 0.0469003 -2.26261e-19)
(0.850022 0.0590728 6.89289e-20)
(0.954383 0.0713032 -2.60268e-19)
(1.04621 0.0825217 9.63392e-20)
(1.12267 0.0918236 5.95055e-20)
(1.18274 0.0985215 -2.46817e-19)
(1.22712 0.102434 -2.62823e-19)
(1.25772 0.103272 -1.38028e-19)
(1.27721 0.101972 8.6493e-21)
(1.28854 0.0972741 4.26232e-20)
(1.29327 0.0931468 -1.35413e-19)
(1.29614 0.0824318 1.02225e-19)
(-0.0104125 0.00804306 1.96379e-21)
(-0.0193768 0.0164767 -3.52388e-19)