/*--------------------------------*- C++ -*----------------------------------*\
  =========                 |
  \\      /  F ield         | OpenFOAM: The Open Source CFD Toolbox
   \\    /   O peration     | Website:  https://openfoam.org
    \\  /    A nd           | Version:  7
     \\/     M anipulation  |
\*---------------------------------------------------------------------------*/
FoamFile
{
    version     2.0;
    format      ascii;
    class       volScalarField;
    location    "16";
    object      p;
}
// * * * * * * * * * * * * * * * * * * * * * * * * * * * * * * * * * * * * * //

dimensions      [1 -1 -2 0 0 0 0];

internalField   nonuniform List<scalar> 
4032
(
1
1
1
1
1
1
1
1
1
1
1
1.02693
6.68127
10.5699
10.7223
10.9233
11.1142
11.2973
11.468
11.6229
11.7606
11.8719
11.957
12.0179
1
1
1
1
1
1
1
1
1
1
1
1.00246
6.51284
10.5186
10.6933
10.8927
11.0837
11.2641
11.431
11.5807
11.7119
11.8153
11.8912
11.9461
1
1
1
1
1
1
1
1
1
1
1
1.00005
6.1571
10.4519
10.6434
10.8377
11.026
11.2002
11.3606
11.5042
11.6313
11.7332
11.8072
11.8654
1
1
1
1
1
1
1
1
1
1
1
1
5.62837
10.339
10.575
10.7625
10.9477
11.1145
11.2674
11.4036
11.522
11.6111
11.6669
11.7059
1
1
1
1
1
1
1
1
1
1
1
1
4.94776
10.1478
10.4866
10.6645
10.8423
10.9951
11.1302
11.2439
11.338
11.4104
11.4555
11.5122
1
1
1
1
1
1
1
1
1
1
1
1
4.13746
9.83632
10.379
10.5455
10.7092
10.8419
10.9559
11.0516
11.13
11.1882
11.201
11.1596
1
1
1
1
1
1
1
1
1
1
1
1
3.23927
9.36037
10.3059
10.4506
10.5916
10.6942
10.7671
10.8164
10.829
10.7818
10.7029
10.6478
1
1
1
1
1
1
1
1
1
1
1
1
2.2633
8.61476
10.2412
10.3454
10.4618
10.532
10.5607
10.5558
10.4931
10.3937
10.2436
10.1908
1
1
1
1
1
1
1
1
1
1
1
1
1.33752
7.64326
10.2554
10.2057
10.2866
10.3217
10.307
10.2459
10.0906
9.80554
9.04152
7.03728
1
1
1
1
1
1
1
1
1
1
1
1
1.01488
6.30517
9.87774
9.87849
9.98324
10.0299
10.0005
9.89016
9.65407
9.17846
8.38944
6.35737
1
1
1
1
1
1
1
1
1
1
1
1
0.999951
4.52839
9.39976
9.7758
9.84959
9.83023
9.75007
9.57335
9.27074
8.71317
7.91396
6.04713
1
1
1
1
1
1
1
1
1
1
1
1
0.999987
2.6928
8.56208
9.63706
9.64434
9.62048
9.51406
9.28647
8.93342
8.37529
7.5448
6.00766
1
1
1
1
1
1
1
1
1
1
1
1
0.999998
1.2606
7.36682
9.74414
9.52022
9.41017
9.28562
9.03611
8.66833
8.13088
7.2959
6.17782
1
1
1
1
1
1
1
1
1
1
1
1
1
1.00716
5.52233
9.06557
9.17286
9.1813
9.06958
8.84418
8.50952
7.9642
7.21997
6.41824
1
1
1
1
1
1
1
1
1
1
1
1
1
0.999909
3.03272
8.29405
9.09435
9.09817
8.97195
8.75469
8.40357
7.91105
7.31027
6.76775
1
1
1
1
1
1
1
1
1
1
1
1
1
0.999977
1.31108
6.98926
9.17499
9.05113
8.89315
8.6794
8.3713
7.97444
7.5389
7.16669
1
1
1
1
1
1
1
1
1
1
1
1
1
0.999996
1.00859
4.73052
8.64855
8.91046
8.81678
8.68723
8.46364
8.16708
7.83187
7.53611
1
1
1
1
1
1
1
1
1
1
1
1
1
1
0.999948
2.10397
7.9046
9.10619
9.00893
8.90121
8.65566
8.38759
8.09588
7.84787
1
1
1
1
1
1
1
1
1
1
1
1
1
1
0.999987
1.09776
6.24954
9.07231
9.15881
9.08347
8.86962
8.62815
8.35927
8.13384
1
1
1
1
1
1
1
1
1
1
1
1
1
1
0.999998
1.00055
3.63969
8.8114
9.54419
9.36563
9.12869
8.87519
8.61111
8.38614
1
1
1
1
1
1
1
1
1
1
1
1
1
1
1
0.999998
1.59597
8.24706
9.98362
9.57827
9.33505
9.08186
8.84786
8.63173
1
1
1
1
1
1
1
1
1
1
1
1
1
1
1
0.999999
1.02803
7.01871
10.2028
9.77563
9.53207
9.284
9.05805
8.85075
1
1
1
1
1
1
1
1
1
1
1
1
1
1
1
1
1.00004
5.38418
10.1563
9.90578
9.69576
9.4772
9.26774
9.06812
1
1
1
1
1
1
1
1
1
1
1
1
1
1
1
1
0.999999
4.05774
9.89738
10.1131
9.8462
9.63808
9.44446
9.25661
1
1
1
1
1
1
1
1
1
1
1
1
1
1
1
1
1
2.94936
9.30528
10.1794
9.92209
9.7771
9.60117
9.41785
1
1
1
1
1
1
1
1
1
1
1
1
1
1
1
1
1
2.04061
8.67706
10.4015
10.0672
9.92172
9.7448
9.56178
1
1
1
1
1
1
1
1
1
1
1
1
1
1
1
1
1
1.41166
7.95967
10.4707
10.1333
9.97669
9.80547
9.63028
1
1
1
1
1
1
1
1
1
1
1
1
1
1
1
1
1
1.0915
7.20674
10.457
10.1841
10.0241
9.86285
9.6946
1
1
1
1
1
1
1
1
1
1
1
1
1
1
1
1
1
1.00205
6.34086
10.3582
10.2378
10.0715
9.92482
9.76162
1
1
1
1
1
1
1
1
1
1
1
1
1
1
1
1
1
1.00001
5.52281
10.2734
10.333
10.1281
9.98382
9.81719
1
1
1
1
1
1
1
1
1
1
1
1
1
1
1
1
1
1
4.79987
10.1629
10.4022
10.1765
10.0394
9.87488
1
1
1
1
1
1
1
1
1
1
1
1
1
1
1
1
1
1
4.17217
10.0412
10.465
10.2154
10.0784
9.91579
1
1
1
1
1
1
1
1
1
1
1
1
1
1
1
1
1
1
3.685
9.88589
10.5075
10.2435
10.1041
9.94442
1
1
1
1
1
1
1
1
1
1
1
1
1
1
1
1
1
1
3.31249
9.70697
10.5269
10.2577
10.1166
9.96148
1
1
1
1
1
1
1
1
1
1
1
1
1
1
1
1
1
1
3.02852
9.52548
10.5289
10.2652
10.1271
9.976
1
1
1
1
1
1
1
1
1
1
1
1
1
1
1
1
1
1
2.82288
9.36512
10.5191
10.2668
10.1369
9.98859
1
1
1
1
1
1
1
1
1
1
1
1
1
1
1
1
1
1
2.6574
9.22687
10.5161
10.2677
10.1463
10.0026
1
1
1
1
1
1
1
1
1
1
1
1
1
1
1
1
1
1
2.51136
9.11829
10.5087
10.2702
10.1547
10.0137
1
1
1
1
1
1
1
1
1
1
1
1
1
1
1
1
1
1
2.38955
9.06691
10.5056
10.2732
10.1591
10.0192
1
1
1
1
1
1
1
1
1
1
1
1
1
1
1
1
1
1
2.33551
9.0272
10.502
10.2753
10.1646
10.0258
2.17425
2.53571
3.1806
3.67336
3.95454
4.0476
4.05304
4.01888
3.96888
3.92067
3.9111
3.93664
3.98631
4.04742
4.10635
4.14981
4.17669
4.19079
4.20555
4.23511
4.28824
4.35887
4.42884
4.48364
4.51782
4.53643
4.54932
4.56623
4.59451
4.63619
4.6876
4.74107
4.78646
4.81761
4.83479
4.83933
4.83484
4.82604
4.81728
4.81223
4.81255
4.81582
4.81656
4.80883
4.7885
4.75599
4.71473
4.67032
4.62621
4.5836
4.54273
4.50374
4.46703
4.43339
4.40279
4.37284
4.33867
4.29654
4.24614
4.19063
4.13427
4.08001
4.02944
3.98363
3.94276
3.90681
3.87441
3.84185
3.80469
3.76108
3.71209
3.65868
3.60033
3.5376
3.47576
3.41761
3.3654
3.32088
3.28488
3.25517
3.22232
3.18304
3.1436
3.10594
3.06974
3.03484
3.0009
2.96808
2.93594
2.90301
2.86849
2.83492
2.80485
2.78031
2.76009
2.73734
3.5522
3.78004
3.7024
3.82245
3.91257
3.92264
3.91891
3.91622
3.91781
3.91709
3.94895
4.02041
4.10206
4.16466
4.19899
4.22135
4.24457
4.26753
4.28799
4.30728
4.33196
4.3688
4.4175
4.46921
4.51219
4.54243
4.56306
4.58026
4.60315
4.63717
4.67968
4.72275
4.75804
4.78102
4.79391
4.80193
4.80796
4.81288
4.81563
4.81384
4.80674
4.79608
4.78527
4.77537
4.76341
4.74178
4.70532
4.65958
4.6145
4.57486
4.54036
4.50783
4.47339
4.43524
4.39458
4.35387
4.31447
4.27445
4.23052
4.1816
4.12911
4.07458
4.01914
3.96497
3.91439
3.86925
3.83002
3.7948
3.75891
3.71851
3.67379
3.62697
3.5779
3.525
3.47173
3.42132
3.37427
3.33123
3.29263
3.25745
3.22233
3.18448
3.14683
3.111
3.07592
3.04066
3.00322
2.96265
2.92193
2.8849
2.85215
2.82307
2.79613
2.77073
2.74918
2.73547
4.31215
4.36326
3.79277
3.75453
3.78312
3.81668
3.85081
3.90383
3.99755
4.07064
4.08258
4.10632
4.15039
4.18784
4.18762
4.17647
4.17567
4.1986
4.24132
4.28536
4.31636
4.33631
4.35703
4.38979
4.43669
4.49116
4.5431
4.5854
4.6201
4.65598
4.69812
4.74349
4.78296
4.80767
4.8137
4.80813
4.80134
4.80071
4.80773
4.8172
4.82102
4.81364
4.79439
4.77123
4.75065
4.73316
4.70958
4.6704
4.62225
4.57502
4.53457
4.5032
4.47911
4.45656
4.4273
4.38785
4.34186
4.29449
4.24712
4.20131
4.15717
4.11249
4.0655
4.01493
3.96165
3.90777
3.8561
3.80953
3.76767
3.72409
3.67441
3.62075
3.56514
3.50802
3.45143
3.40365
3.36396
3.32905
3.29413
3.25567
3.2165
3.17809
3.14057
3.10445
3.07253
3.0444
3.01636
2.98385
2.94265
2.89473
2.85145
2.821
2.79813
2.77694
2.75305
2.73975
4.84727
5.03606
4.26699
4.13846
4.15941
4.07412
4.03144
4.0365
4.08335
4.14314
4.13288
4.06921
4.06844
4.09727
4.15252
4.18498
4.18864
4.19166
4.21111
4.25552
4.31251
4.35995
4.39113
4.41373
4.44201
4.48194
4.53021
4.57749
4.61541
4.64407
4.66877
4.69554
4.72856
4.76268
4.7861
4.79317
4.78897
4.78369
4.78416
4.79038
4.79833
4.80238
4.79249
4.76682
4.73655
4.71104
4.69316
4.66884
4.625
4.57361
4.52201
4.47763
4.44382
4.41919
4.3947
4.36165
4.31816
4.26855
4.21934
4.1704
4.12212
4.07515
4.03145
3.98811
3.9413
3.89124
3.83839
3.79054
3.74949
3.70873
3.66665
3.62279
3.57622
3.52655
3.47389
3.41879
3.36695
3.32424
3.28691
3.25188
3.21855
3.18392
3.14544
3.1022
3.05895
3.02238
2.99203
2.96329
2.93172
2.89553
2.8592
2.82881
2.80704
2.79392
2.78325
2.78982
5.39358
5.60424
4.92792
4.70022
4.59431
4.33936
4.20167
4.14673
4.10889
4.13041
4.17318
4.15904
4.12817
4.14917
4.20735
4.27882
4.31157
4.3233
4.33356
4.35325
4.39018
4.43748
4.4778
4.50263
4.51587
4.53324
4.56667
4.61502
4.66339
4.698
4.71685
4.72855
4.7445
4.76846
4.7945
4.81402
4.82288
4.82333
4.81933
4.81238
4.80252
4.79485
4.78849
4.76829
4.73743
4.70417
4.66532
4.62067
4.57494
4.53578
4.49802
4.46251
4.43404
4.40079
4.35943
4.3182
4.27882
4.23876
4.19625
4.14933
4.09584
4.04435
4.00248
3.96357
3.92375
3.88092
3.83345
3.78233
3.73105
3.68383
3.64162
3.6027
3.56547
3.52749
3.48514
3.43498
3.37958
3.3277
3.28428
3.24831
3.21579
3.18371
3.14964
3.1128
3.07311
3.03262
2.99075
2.94804
2.90834
2.87314
2.84588
2.82345
2.80591
2.79874
2.79888
2.83056
5.91942
6.04779
5.48333
5.17904
5.16322
4.95813
4.73125
4.5564
4.37825
4.27636
4.27354
4.25362
4.20144
4.17601
4.20758
4.27191
4.31942
4.33063
4.33917
4.35211
4.38484
4.43803
4.48093
4.49695
4.49953
4.50633
4.52755
4.56998
4.61831
4.64789
4.65461
4.65352
4.65662
4.67212
4.69868
4.72024
4.72572
4.71879
4.70745
4.69563
4.68806
4.69006
4.6953
4.67823
4.65054
4.61968
4.58324
4.5441
4.51299
4.49626
4.48216
4.45425
4.41013
4.35844
4.3057
4.26676
4.24055
4.21463
4.18367
4.14386
4.0917
4.0355
3.98857
3.95053
3.91493
3.87706
3.83378
3.7837
3.72986
3.67872
3.63403
3.59467
3.55811
3.52199
3.48379
3.43915
3.38503
3.32849
3.28117
3.24287
3.20914
3.17567
3.14149
3.10678
3.07108
3.03292
2.99172
2.95175
2.9119
2.87629
2.85249
2.83767
2.83212
2.83972
2.85226
2.9103
6.44847
6.43692
5.89435
5.60336
5.63723
5.50232
5.31397
5.11159
4.86069
4.63531
4.51893
4.44397
4.35633
4.28618
4.28624
4.32909
4.37327
4.38008
4.36335
4.36729
4.40095
4.45018
4.46537
4.45911
4.45796
4.47092
4.49704
4.5379
4.57695
4.59409
4.5898
4.58582
4.59469
4.6226
4.66317
4.68668
4.68653
4.67892
4.67408
4.67683
4.69349
4.71998
4.71533
4.68613
4.65186
4.62663
4.61193
4.60333
4.58123
4.54472
4.50353
4.45828
4.40458
4.35871
4.32672
4.3011
4.27282
4.23958
4.19935
4.15115
4.0974
4.0434
3.99528
3.95385
3.91464
3.87436
3.83057
3.78159
3.72852
3.67666
3.63314
3.59679
3.56212
3.52667
3.48774
3.43981
3.38077
3.32296
3.27953
3.2452
3.21242
3.17804
3.14028
3.10021
3.06065
3.02455
2.98981
2.95642
2.92325
2.88866
2.86405
2.85858
2.86642
2.90118
2.94333
3.03889
6.92817
6.75958
6.22471
6.00838
6.0618
5.93113
5.73549
5.51839
5.24309
4.97075
4.80196
4.70485
4.59926
4.48843
4.44129
4.4576
4.49402
4.49487
4.46345
4.45416
4.47799
4.5112
4.52117
4.52006
4.52546
4.53211
4.5389
4.56139
4.58872
4.60174
4.6043
4.60878
4.62188
4.64704
4.67554
4.68284
4.67612
4.66954
4.67155
4.683
4.7012
4.695
4.66405
4.63341
4.61671
4.61149
4.61433
4.59304
4.5507
4.48588
4.41918
4.38303
4.36008
4.33936
4.31009
4.27256
4.22833
4.1872
4.14949
4.10935
4.06551
4.01683
3.96399
3.91511
3.87431
3.83729
3.79997
3.75951
3.71467
3.66628
3.61908
3.577
3.53841
3.5002
3.46
3.41454
3.3616
3.31033
3.2706
3.23753
3.20614
3.17369
3.13568
3.09041
3.0472
3.01488
2.9885
2.9671
2.94582
2.91755
2.90221
2.90502
2.9285
2.99357
3.06412
3.17813
7.31564
7.0602
6.58664
6.44605
6.46198
6.26229
6.0193
5.76974
5.47669
5.20128
5.04316
4.95076
4.83774
4.69419
4.59602
4.58695
4.60521
4.59334
4.55782
4.54125
4.54872
4.57328
4.59452
4.59757
4.5919
4.57787
4.56968
4.57615
4.5911
4.59891
4.59865
4.59662
4.59722
4.60497
4.61992
4.62122
4.6102
4.60043
4.6034
4.6199
4.63643
4.6214
4.58038
4.54238
4.52949
4.53607
4.53869
4.5111
4.46404
4.39514
4.34488
4.32063
4.3117
4.29743
4.26787
4.22692
4.17075
4.12788
4.09579
4.06234
4.02572
3.98315
3.93116
3.87816
3.83843
3.80476
3.77119
3.73624
3.69714
3.65036
3.5984
3.55001
3.50867
3.47076
3.43145
3.38867
3.34259
3.29648
3.25719
3.22739
3.20128
3.1727
3.13714
3.08988
3.04135
3.00852
2.99283
2.98518
2.97848
2.973
2.97196
2.989
3.03914
3.12647
3.20333
3.29529
7.6305
7.34101
6.97398
6.87823
6.82807
6.54783
6.26026
5.99113
5.6893
5.41007
5.25137
5.15545
5.03066
4.8648
4.73159
4.69959
4.70316
4.67964
4.63491
4.59527
4.58807
4.60933
4.63105
4.6269
4.60388
4.57713
4.56443
4.56284
4.57315
4.57095
4.56016
4.54755
4.5373
4.53077
4.53373
4.53776
4.52764
4.51265
4.50764
4.51794
4.53175
4.52588
4.50121
4.46361
4.44453
4.45154
4.45254
4.42874
4.38873
4.32912
4.29376
4.27883
4.27849
4.25987
4.22809
4.18158
4.12356
4.09141
4.06524
4.03511
3.99978
3.95745
3.90483
3.85585
3.82193
3.79014
3.75688
3.72256
3.68457
3.63807
3.58348
3.53047
3.48544
3.44695
3.41115
3.37477
3.33594
3.2924
3.24537
3.21225
3.19132
3.1688
3.14213
3.10608
3.05546
3.01967
3.00943
3.01005
3.02685
3.0462
3.07706
3.12553
3.21139
3.28295
3.32447
3.36771
7.90575
7.62165
7.36231
7.27111
7.14971
6.8126
6.50577
6.23549
5.93312
5.64106
5.46443
5.35362
5.21586
5.03545
4.87844
4.82417
4.81376
4.77902
4.71791
4.6596
4.64142
4.65441
4.66505
4.64761
4.61157
4.58055
4.56388
4.55945
4.56824
4.5546
4.53226
4.50578
4.48779
4.47612
4.47547
4.48098
4.46896
4.44804
4.43018
4.42647
4.43808
4.44317
4.43197
4.41046
4.3863
4.37847
4.37567
4.35869
4.32534
4.28319
4.26246
4.25933
4.2548
4.22758
4.19092
4.13741
4.09198
4.07061
4.05221
4.02661
3.99264
3.94748
3.89301
3.85042
3.81945
3.78841
3.75457
3.71734
3.67497
3.62481
3.57111
3.52236
3.48004
3.44094
3.40406
3.3702
3.33736
3.30013
3.25442
3.20867
3.18079
3.16203
3.14448
3.12307
3.0919
3.05873
3.0503
3.05972
3.09166
3.14579
3.21626
3.29169
3.38711
3.40825
3.41488
3.41543
8.14864
7.89235
7.71366
7.60171
7.42134
7.06666
6.76831
6.5054
6.20842
5.90463
5.70637
5.58111
5.43461
5.24312
5.06592
4.98959
4.95761
4.90811
4.83098
4.75212
4.72115
4.7237
4.72126
4.68904
4.63996
4.60078
4.58006
4.57564
4.57895
4.55556
4.52393
4.48398
4.45816
4.44086
4.43674
4.44193
4.42961
4.40796
4.37984
4.36416
4.37057
4.37698
4.37104
4.36465
4.34675
4.32548
4.31861
4.30804
4.2821
4.2522
4.24308
4.24242
4.22248
4.19074
4.14684
4.09873
4.07679
4.06555
4.04987
4.02307
3.98587
3.93363
3.87957
3.84394
3.8152
3.78515
3.74991
3.70641
3.65494
3.60029
3.55393
3.51874
3.48712
3.45291
3.41442
3.37546
3.33998
3.30619
3.2699
3.22614
3.18173
3.15839
3.1453
3.13632
3.12616
3.11571
3.12165
3.1515
3.19493
3.27641
3.34498
3.42236
3.49424
3.49646
3.48072
3.4529
8.38916
8.14788
8.00058
7.86199
7.64497
7.30075
7.02253
6.77067
6.48322
6.18077
5.97351
5.84086
5.68789
5.48522
5.28777
5.19281
5.14145
5.07455
4.97752
4.86906
4.81934
4.80711
4.7952
4.75142
4.68701
4.63502
4.60748
4.59811
4.58949
4.56022
4.52379
4.47507
4.44148
4.41903
4.40808
4.40478
4.38879
4.36996
4.34455
4.32254
4.32754
4.32397
4.30893
4.30679
4.29452
4.27895
4.27599
4.26948
4.24655
4.2154
4.20382
4.19468
4.16965
4.13746
4.0955
4.06296
4.05116
4.04171
4.02305
3.99565
3.95644
3.89939
3.84633
3.81411
3.78997
3.76588
3.73522
3.68763
3.61835
3.56594
3.53672
3.51319
3.49033
3.46473
3.43144
3.38805
3.34139
3.30347
3.27322
3.2424
3.20576
3.17006
3.15385
3.15293
3.16616
3.1777
3.22183
3.27815
3.34828
3.4188
3.45397
3.50146
3.54149
3.54403
3.53136
3.49341
8.62323
8.40894
8.26335
8.08502
7.83183
7.50176
7.24352
7.00071
6.7285
6.44266
6.23663
6.09913
5.9426
5.73008
5.52141
5.4153
5.34425
5.2544
5.13673
5.0049
4.93463
4.90077
4.8733
4.82005
4.74051
4.66861
4.6313
4.61059
4.58819
4.55436
4.51356
4.45905
4.41558
4.38711
4.36999
4.35761
4.33613
4.31769
4.29251
4.27196
4.26935
4.24745
4.22011
4.21761
4.20781
4.19661
4.20062
4.19896
4.17751
4.1422
4.12213
4.11063
4.09491
4.07082
4.04437
4.02286
4.0095
3.99453
3.97304
3.94488
3.90532
3.85216
3.80027
3.77043
3.75248
3.73105
3.70279
3.65686
3.58946
3.54246
3.51745
3.49636
3.47803
3.45923
3.43433
3.3946
3.338
3.29402
3.26872
3.24908
3.22847
3.20047
3.18337
3.19229
3.21832
3.26556
3.35129
3.42589
3.50723
3.53127
3.53874
3.55402
3.56921
3.57996
3.57065
3.53372
8.83753
8.62483
8.46655
8.27746
8.01145
7.69282
7.44534
7.20174
6.94525
6.68119
6.47215
6.32108
6.16022
5.9442
5.73057
5.61302
5.52468
5.41246
5.27427
5.13127
5.046
4.99097
4.9409
4.87519
4.78625
4.69696
4.64471
4.60801
4.57048
4.52914
4.48459
4.43047
4.37799
4.3419
4.32149
4.29674
4.27056
4.25291
4.22401
4.19844
4.19139
4.16502
4.13028
4.1213
4.11061
4.10267
4.1104
4.11228
4.09355
4.06262
4.03103
4.01917
4.01597
4.01386
3.99552
3.9601
3.93954
3.92358
3.90178
3.87118
3.83491
3.79825
3.76493
3.73211
3.69253
3.6623
3.63923
3.60918
3.56892
3.52996
3.50745
3.49471
3.47869
3.45504
3.42622
3.38361
3.32497
3.28638
3.27061
3.26071
3.25202
3.23799
3.23425
3.26711
3.3138
3.40942
3.49807
3.57247
3.62012
3.61345
3.6078
3.60486
3.60431
3.61129
3.60468
3.57247
9.04186
8.84119
8.66837
8.45657
8.1727
7.88033
7.65149
7.40212
7.14477
6.89411
6.67737
6.50559
6.34314
6.1362
5.91794
5.7785
5.6742
5.54731
5.39361
5.24433
5.1465
5.06985
4.99629
4.91778
4.82533
4.73109
4.65815
4.60753
4.56004
4.51015
4.46068
4.40776
4.353
4.31233
4.27974
4.2409
4.2038
4.17812
4.14796
4.12615
4.11144
4.08504
4.04511
4.02358
4.00339
3.98667
3.99214
4.00326
3.99627
3.97476
3.94563
3.93491
3.94381
3.95111
3.93021
3.90235
3.88029
3.85954
3.83681
3.80296
3.77465
3.76208
3.74298
3.71055
3.66655
3.61846
3.59123
3.57747
3.56258
3.53826
3.51086
3.47982
3.44489
3.41248
3.38126
3.34823
3.31567
3.2946
3.28823
3.29071
3.2952
3.29774
3.33477
3.39639
3.47583
3.57717
3.62468
3.67282
3.69487
3.68983
3.6786
3.66372
3.65379
3.64849
3.64082
3.61102
9.21968
9.02757
8.8393
8.6164
8.34449
8.0775
7.84983
7.59721
7.34853
7.10965
6.8865
6.70628
6.53125
6.3132
6.08805
5.93078
5.81013
5.67483
5.51439
5.35354
5.24464
5.15552
5.06517
4.97223
4.8741
4.77984
4.69593
4.62548
4.56619
4.50689
4.44674
4.39457
4.34525
4.3013
4.26008
4.21404
4.16721
4.12388
4.07964
4.0468
4.02494
3.99691
3.96449
3.94332
3.91823
3.88602
3.87812
3.88708
3.88266
3.8765
3.86746
3.86339
3.88192
3.89059
3.87203
3.84695
3.82202
3.79905
3.7821
3.76523
3.74426
3.71779
3.69725
3.67958
3.6523
3.60921
3.56981
3.55014
3.53543
3.51924
3.49689
3.46434
3.42701
3.39423
3.36637
3.34496
3.3329
3.32553
3.32371
3.34269
3.36768
3.41796
3.50227
3.57666
3.66388
3.70186
3.72313
3.7542
3.77074
3.76936
3.75813
3.72672
3.70596
3.69321
3.68064
3.64583
9.36744
9.16817
8.96412
8.7408
8.50089
8.25761
8.03885
7.80789
7.54229
7.31262
7.11005
6.88543
6.69054
6.49885
6.28105
6.10848
5.97503
5.83931
5.6737
5.48184
5.34712
5.25192
5.15541
5.06089
4.96539
4.85766
4.75865
4.67446
4.60346
4.54613
4.49477
4.43616
4.36939
4.30136
4.24945
4.20648
4.16188
4.10621
4.04549
3.99326
3.95301
3.91144
3.88343
3.86809
3.84527
3.80768
3.78679
3.79089
3.78193
3.78115
3.79249
3.79248
3.80673
3.81715
3.80915
3.78903
3.76218
3.74982
3.74426
3.73969
3.72008
3.69159
3.67802
3.66309
3.64119
3.61285
3.57411
3.54328
3.52481
3.50533
3.48081
3.45072
3.41802
3.39638
3.38275
3.37403
3.36823
3.36227
3.37895
3.42523
3.48468
3.58363
3.67297
3.74888
3.78793
3.79503
3.80772
3.82474
3.83272
3.82384
3.80364
3.76489
3.72536
3.70139
3.69124
3.66104
9.45239
9.27433
9.08477
8.87031
8.64179
8.41404
8.20406
7.99085
7.72755
7.49453
7.30057
7.08761
6.86855
6.65694
6.44829
6.28234
6.13838
5.97225
5.78779
5.61929
5.49393
5.39266
5.29132
5.17643
5.04467
4.93225
4.85343
4.77777
4.69975
4.61708
4.52442
4.42847
4.3399
4.27009
4.21554
4.17106
4.12949
4.07874
4.01224
3.94769
3.89265
3.84263
3.81504
3.79841
3.77286
3.73294
3.70364
3.70333
3.69671
3.6935
3.71724
3.72481
3.72108
3.73143
3.73737
3.72898
3.70387
3.69239
3.69602
3.70144
3.68596
3.65484
3.64044
3.63164
3.61716
3.59619
3.56516
3.52683
3.49985
3.47942
3.45736
3.43324
3.40921
3.39622
3.39108
3.39698
3.40272
3.41778
3.47573
3.5434
3.63725
3.73529
3.81176
3.85665
3.86266
3.85609
3.85648
3.86457
3.86632
3.85223
3.82805
3.78979
3.74732
3.71185
3.69284
3.66131
9.52211
9.34365
9.1536
8.95251
8.74724
8.54482
8.3421
8.11609
7.87245
7.66171
7.47496
7.26804
7.03663
6.82205
6.62871
6.45692
6.30147
6.12742
5.92846
5.75072
5.61839
5.50307
5.39207
5.27158
5.12878
4.99305
4.88957
4.80707
4.73014
4.64831
4.55255
4.44465
4.34566
4.27024
4.2073
4.14891
4.0911
4.02836
3.95716
3.89181
3.83397
3.7859
3.75776
3.73474
3.7017
3.65844
3.627
3.62188
3.61724
3.61071
3.62621
3.63977
3.63104
3.62253
3.63698
3.64758
3.63952
3.6271
3.63624
3.64653
3.63534
3.60777
3.58744
3.57833
3.57331
3.56479
3.54348
3.50839
3.47133
3.44957
3.43068
3.41701
3.40901
3.40989
3.42129
3.44036
3.46034
3.51733
3.60316
3.68376
3.77932
3.84185
3.89757
3.92481
3.92126
3.90377
3.89755
3.89131
3.87825
3.8621
3.84053
3.81109
3.77581
3.73792
3.70567
3.66274
9.59406
9.41655
9.22864
9.03685
8.8429
8.6437
8.43713
8.21193
7.9917
7.79767
7.60572
7.38728
7.15797
6.95995
6.78432
6.60101
6.42818
6.2478
6.05321
5.88552
5.7454
5.61209
5.48008
5.34202
5.19559
5.06193
4.95203
4.85478
4.76086
4.66151
4.55269
4.44258
4.34556
4.26441
4.19219
4.12488
4.05984
3.98862
3.91213
3.84619
3.78687
3.74145
3.71178
3.68266
3.64332
3.599
3.5699
3.55802
3.54622
3.52962
3.52593
3.53624
3.5365
3.52384
3.52693
3.55377
3.56693
3.56181
3.56773
3.57589
3.56696
3.54451
3.52627
3.51853
3.5209
3.52333
3.50881
3.4832
3.44911
3.42905
3.41752
3.41767
3.42709
3.44256
3.46921
3.50656
3.55981
3.66223
3.74227
3.81647
3.88481
3.92362
3.95363
3.96219
3.95305
3.93166
3.91634
3.89964
3.88091
3.86132
3.84072
3.81957
3.7949
3.76537
3.73375
3.68578
9.64848
9.47105
9.28939
9.10356
8.91004
8.70759
8.50028
8.29123
8.09574
7.91064
7.71257
7.49144
7.2742
7.09469
6.91578
6.71168
6.52311
6.34415
6.16083
5.99611
5.84388
5.69347
5.5426
5.39306
5.2481
5.11532
4.99692
4.88598
4.7755
4.66186
4.54763
4.44011
4.34487
4.25971
4.18105
4.1059
4.03016
3.94495
3.86637
3.80911
3.75918
3.7188
3.68302
3.6394
3.58691
3.54467
3.52076
3.5058
3.48706
3.46252
3.43936
3.4381
3.44772
3.44883
3.44131
3.45349
3.48442
3.49288
3.49225
3.49924
3.49469
3.47734
3.46264
3.46104
3.46977
3.47586
3.4694
3.45429
3.43502
3.42703
3.42808
3.44039
3.46446
3.49779
3.55177
3.61883
3.71383
3.81992
3.86764
3.92642
3.94869
3.96049
3.97324
3.98452
3.97866
3.96359
3.9455
3.92255
3.89882
3.87569
3.85373
3.83193
3.80885
3.78227
3.75721
3.71641
9.70738
9.5325
9.35572
9.17611
8.99017
8.7964
8.59564
8.39427
8.20008
8.00237
7.79419
7.57757
7.37624
7.19938
7.00489
6.79192
6.60425
6.43525
6.25674
6.08509
5.92146
5.75824
5.59706
5.44098
5.29398
5.15928
5.03413
4.91325
4.79224
4.67133
4.55667
4.45356
4.36135
4.2755
4.1911
4.10456
4.0131
3.9234
3.856
3.80728
3.76571
3.72455
3.67561
3.61416
3.54821
3.50828
3.48497
3.46518
3.44105
3.41133
3.37601
3.35739
3.35933
3.37391
3.37953
3.37642
3.3962
3.41444
3.41252
3.41978
3.42968
3.42535
3.41765
3.42258
3.43353
3.43901
3.43919
3.43548
3.43678
3.44752
3.46543
3.49133
3.52827
3.59171
3.68486
3.76799
3.87848
3.94217
3.97454
3.99976
4.00276
3.99682
3.9964
4.00755
4.01071
3.99745
3.97533
3.94483
3.91578
3.89211
3.87044
3.84844
3.82374
3.79235
3.76923
3.73649
9.75148
9.58103
9.40818
9.23169
9.04919
8.85999
8.66427
8.46866
8.27074
8.06518
7.85508
7.64529
7.45054
7.26858
7.06767
6.8598
6.67955
6.5146
6.33324
6.15129
5.97913
5.81038
5.64556
5.48854
5.3431
5.20748
5.07674
4.94739
4.81947
4.69708
4.58383
4.48083
4.38626
4.29723
4.20734
4.11329
4.01632
3.93423
3.87526
3.82147
3.76799
3.71183
3.64828
3.57625
3.51097
3.46963
3.44282
3.4194
3.39127
3.35625
3.31235
3.2849
3.27674
3.28701
3.31363
3.31978
3.316
3.32958
3.33375
3.34271
3.36876
3.38462
3.38622
3.38836
3.3982
3.40654
3.41398
3.42714
3.45075
3.48044
3.51497
3.56524
3.62949
3.72821
3.81572
3.89444
3.99163
4.0359
4.05915
4.06374
4.05776
4.03931
4.02921
4.02882
4.03257
4.02192
4.00177
3.97304
3.94021
3.91337
3.89065
3.86711
3.83972
3.8061
3.78329
3.75342
9.78524
9.62063
9.45297
9.28023
9.10253
8.91898
8.72971
8.53727
8.33704
8.1317
7.92439
7.71701
7.52042
7.3311
7.12858
6.92701
6.74989
6.58348
6.39772
6.20742
6.03042
5.8642
5.70384
5.54877
5.39965
5.25553
5.11474
4.97833
4.8486
4.72698
4.61458
4.51135
4.41422
4.31716
4.2173
4.11833
4.02898
3.95295
3.88067
3.80899
3.73925
3.66933
3.59742
3.52863
3.47254
3.42643
3.38789
3.35588
3.32444
3.28679
3.24225
3.21753
3.20626
3.20523
3.22693
3.24822
3.248
3.24965
3.25654
3.27496
3.30967
3.34418
3.35296
3.35222
3.35909
3.37165
3.39097
3.4226
3.46745
3.51602
3.57963
3.65459
3.73902
3.8365
3.89921
3.97764
4.05099
4.09385
4.1097
4.11033
4.09941
4.07441
4.05702
4.04776
4.0428
4.03282
4.01519
3.98923
3.9552
3.92345
3.89657
3.87032
3.84288
3.81234
3.78839
3.75476
9.80853
9.65066
9.48799
9.31836
9.14449
8.96584
8.78266
8.59402
8.39793
8.19772
7.99264
7.78582
7.58729
7.39264
7.18846
6.99041
6.81623
6.64839
6.45808
6.26356
6.08783
5.9253
5.76787
5.61368
5.4582
5.30082
5.14954
5.00998
4.88178
4.76308
4.65199
4.54446
4.4338
4.32134
4.21603
4.12211
4.03713
3.95437
3.87033
3.7856
3.70211
3.62269
3.55166
3.49134
3.43994
3.39219
3.34479
3.2952
3.24988
3.21406
3.18864
3.17343
3.15865
3.14286
3.14213
3.1639
3.18064
3.19024
3.19406
3.21337
3.25372
3.29653
3.3116
3.31485
3.32471
3.34707
3.37848
3.42388
3.48484
3.56516
3.64982
3.72804
3.82643
3.89867
3.95637
4.01853
4.06633
4.10557
4.12151
4.12344
4.11313
4.08897
4.06617
4.05195
4.04007
4.02701
4.00784
3.97962
3.94565
3.91645
3.89191
3.86744
3.84152
3.81312
3.78687
3.74712
9.82621
9.67227
9.514
9.34875
9.17904
9.00388
8.82371
8.63767
8.44655
8.25073
8.04729
7.84433
7.64907
7.44989
7.24281
7.04661
6.87427
6.70269
6.50909
6.31896
6.14918
5.99024
5.83181
5.66955
5.50209
5.33681
5.18421
5.04643
4.92039
4.80227
4.68516
4.56189
4.43598
4.31822
4.21391
4.12144
4.03503
3.94944
3.85988
3.76576
3.67269
3.58913
3.51994
3.46289
3.41375
3.36846
3.31916
3.25734
3.19496
3.16431
3.1482
3.14089
3.12693
3.10668
3.08934
3.09252
3.11529
3.14424
3.15366
3.16228
3.19891
3.24353
3.2682
3.28179
3.30357
3.33566
3.37931
3.43482
3.51097
3.60999
3.7049
3.81544
3.9098
3.95234
3.99227
4.02845
4.05509
4.08218
4.10174
4.10843
4.0999
4.08456
4.07171
4.0571
4.04063
4.02101
3.99697
3.97107
3.94779
3.92689
3.90558
3.88155
3.85385
3.82415
3.79787
3.7567
9.8431
9.69323
9.53802
9.37522
9.20641
9.03115
8.85053
8.66558
8.47842
8.28812
8.0944
7.90118
7.70424
7.49629
7.28866
7.09564
6.92278
6.74311
6.54883
6.36842
6.20249
6.03723
5.86986
5.69837
5.52712
5.36626
5.22024
5.0858
4.95803
4.82967
4.69649
4.56218
4.43457
4.31898
4.21622
4.12186
4.03165
3.94285
3.85114
3.75432
3.65887
3.57548
3.50769
3.45002
3.3991
3.3528
3.3023
3.24198
3.17775
3.13273
3.11207
3.10475
3.09543
3.07949
3.05655
3.04235
3.04999
3.08312
3.10973
3.12037
3.1495
3.18853
3.2225
3.26242
3.30812
3.35883
3.41766
3.48401
3.5658
3.65013
3.75265
3.87979
3.9607
3.99865
4.0239
4.0311
4.04378
4.05653
4.06931
4.08138
4.09183
4.0937
4.08558
4.07191
4.05186
4.02195
3.99459
3.97587
3.95842
3.9404
3.92089
3.89768
3.86873
3.83731
3.81115
3.77088
9.86007
9.71033
9.55452
9.39258
9.22516
9.05101
8.87143
8.68835
8.50343
8.31658
8.12938
7.93976
7.73745
7.52509
7.32033
7.13244
6.95742
6.76923
6.57769
6.40433
6.23763
6.06511
5.89049
5.71541
5.54758
5.39314
5.25029
5.11279
4.97561
4.8358
4.69613
4.56155
4.43693
4.32407
4.22098
4.12426
4.03121
3.93917
3.84637
3.75242
3.65962
3.57573
3.50479
3.44618
3.3954
3.3463
3.2931
3.2337
3.17608
3.12832
3.09614
3.07789
3.05942
3.03982
3.01825
2.9989
2.99691
3.0175
3.05107
3.0686
3.09752
3.14062
3.18835
3.24698
3.31612
3.39262
3.46504
3.54167
3.62659
3.71713
3.82807
3.92959
3.98457
4.01865
4.03679
4.04794
4.0532
4.05798
4.06406
4.07219
4.08863
4.10474
4.09946
4.08595
4.06248
4.03001
4.00185
3.98417
3.97068
3.95582
3.93848
3.91675
3.88574
3.85267
3.82987
3.7931
9.87324
9.72466
9.57065
9.40985
9.24162
9.06644
8.88695
8.70502
8.52178
8.3374
8.15167
7.96005
7.75889
7.5543
7.35503
7.16593
6.97822
6.78544
6.59919
6.42682
6.25675
6.07954
5.90165
5.72864
5.56606
5.41392
5.26792
5.12408
4.97984
4.83585
4.69509
4.56315
4.44328
4.33411
4.23202
4.13325
4.03462
3.93428
3.83666
3.74875
3.66967
3.59744
3.52935
3.46354
3.39695
3.33229
3.27591
3.22695
3.1802
3.13535
3.09054
3.04962
3.01826
2.99205
2.97115
2.95411
2.94548
2.95292
2.97596
3.00389
3.04186
3.09562
3.16046
3.23548
3.32118
3.4133
3.51117
3.61185
3.70929
3.80142
3.8921
3.95002
3.98508
4.02119
4.05917
4.07685
4.08225
4.07764
4.07209
4.0749
4.08056
4.09652
4.10223
4.09073
4.06957
4.0389
4.0154
3.99948
3.98503
3.96919
3.95002
3.92623
3.89648
3.86478
3.83896
3.79636
9.88052
9.7325
9.57846
9.4172
9.2493
9.0762
8.89939
8.71945
8.53671
8.35144
8.16285
7.96837
7.76926
7.57082
7.3761
7.18194
6.98516
6.78971
6.60898
6.43937
6.26792
6.09001
5.91366
5.74409
5.58233
5.42621
5.27343
5.12353
4.97647
4.83376
4.69775
4.57167
4.45633
4.34842
4.2438
4.13863
4.03258
3.92986
3.83453
3.74835
3.68011
3.6243
3.56692
3.49583
3.41477
3.3363
3.27434
3.22937
3.18871
3.14436
3.09355
3.03858
2.98867
2.9545
2.93364
2.91696
2.90196
2.90107
2.91202
2.93786
2.98402
3.05213
3.13502
3.22561
3.32279
3.42954
3.54077
3.65581
3.77695
3.8704
3.91392
3.94528
3.97705
4.01202
4.05867
4.09745
4.10999
4.11105
4.09528
4.08108
4.0793
4.08078
4.08862
4.08547
4.07257
4.05468
4.03511
4.01411
3.99176
3.9689
3.94539
3.92134
3.89796
3.87083
3.84363
3.79455
9.88864
9.74064
9.58524
9.42278
9.25573
9.08497
8.91023
8.73078
8.54656
8.35829
8.16675
7.97441
7.78377
7.59377
7.39894
7.19494
6.99122
6.79858
6.62152
6.45035
6.27428
6.09458
5.92188
5.75544
5.5932
5.43317
5.27466
5.11873
4.96808
4.82706
4.69899
4.58249
4.4728
4.36542
4.25661
4.14366
4.02749
3.91759
3.82817
3.76076
3.70158
3.63786
3.56383
3.4845
3.40352
3.32754
3.26561
3.21498
3.16981
3.1272
3.08012
3.02214
2.96408
2.92747
2.90552
2.8868
2.86705
2.8619
2.86792
2.89299
2.94186
3.0141
3.10634
3.20988
3.32348
3.44307
3.56836
3.70148
3.83295
3.90724
3.94828
3.97459
3.99874
4.02627
4.07203
4.12237
4.13675
4.13887
4.12426
4.09343
4.0761
4.07008
4.07065
4.08215
4.07721
4.06426
4.04545
4.01915
3.98977
3.96334
3.93965
3.917
3.89347
3.86637
3.83906
3.78822
)
;

boundaryField
{
    inlet
    {
        type            fixedValue;
        value           uniform 1;
    }
    outlet
    {
        type            zeroGradient;
    }
    bottom
    {
        type            symmetryPlane;
    }
    top
    {
        type            symmetryPlane;
    }
    obstacle
    {
        type            zeroGradient;
    }
    defaultFaces
    {
        type            empty;
    }
}


// ************************************************************************* //
