/*--------------------------------*- C++ -*----------------------------------*\
  =========                 |
  \\      /  F ield         | OpenFOAM: The Open Source CFD Toolbox
   \\    /   O peration     | Website:  https://openfoam.org
    \\  /    A nd           | Version:  7
     \\/     M anipulation  |
\*---------------------------------------------------------------------------*/
FoamFile
{
    version     2.0;
    format      ascii;
    class       volScalarField;
    location    "16";
    object      rho;
}
// * * * * * * * * * * * * * * * * * * * * * * * * * * * * * * * * * * * * * //

dimensions      [1 -3 0 0 0 0 0];

internalField   nonuniform List<scalar> 
4032
(
1.40001
1.40001
1.40001
1.40001
1.40001
1.40001
1.40001
1.40001
1.40001
1.40001
1.40001
1.41549
4.05902
5.4535
5.50753
5.58021
5.64921
5.71522
5.7766
5.83211
5.88121
5.92058
5.95069
5.97239
1.40001
1.40001
1.40001
1.40001
1.40001
1.40001
1.40001
1.40001
1.40001
1.40001
1.40001
1.40163
3.99125
5.43368
5.49646
5.56881
5.63795
5.70305
5.76318
5.81697
5.86385
5.90052
5.92739
5.94696
1.40001
1.40001
1.40001
1.40001
1.40001
1.40001
1.40001
1.40001
1.40001
1.40001
1.40001
1.40005
3.84579
5.40777
5.47694
5.54758
5.616
5.67916
5.73726
5.78919
5.83487
5.87115
5.8973
5.91803
1.40001
1.40001
1.40001
1.40001
1.40001
1.40001
1.40001
1.40001
1.40001
1.40001
1.40001
1.4
3.62708
5.3672
5.45012
5.51791
5.5855
5.64647
5.70241
5.75211
5.79512
5.82718
5.8471
5.86112
1.40001
1.40001
1.40001
1.40001
1.40001
1.40001
1.40001
1.40001
1.40001
1.40001
1.40001
1.40001
3.33981
5.30359
5.41729
5.48062
5.54533
5.60136
5.65114
5.69315
5.72794
5.75489
5.7723
5.79382
1.40001
1.40001
1.40001
1.40001
1.40001
1.40001
1.40001
1.40001
1.40001
1.40001
1.40001
1.40001
2.98625
5.20475
5.38773
5.44235
5.4988
5.54569
5.58684
5.62195
5.65128
5.67475
5.68464
5.67557
1.40001
1.40001
1.40001
1.40001
1.40001
1.40001
1.40001
1.40001
1.40001
1.40001
1.40001
1.40001
2.57792
5.06324
5.3906
5.42383
5.46446
5.49582
5.51906
5.53613
5.54132
5.52635
5.50478
5.49342
1.40001
1.40001
1.40001
1.40001
1.40001
1.40001
1.40001
1.40001
1.40001
1.40001
1.40001
1.40001
2.11331
4.85467
5.41368
5.41217
5.43418
5.44707
5.44894
5.44365
5.41922
5.38238
5.31765
5.27043
1.40001
1.40001
1.40001
1.40001
1.40001
1.40001
1.40001
1.40001
1.40001
1.40001
1.40001
1.40001
1.62847
4.54791
5.45849
5.39927
5.40228
5.39156
5.36943
5.33816
5.27334
5.1628
4.84934
3.91577
1.40001
1.40001
1.40001
1.40001
1.40001
1.40001
1.40001
1.40001
1.40001
1.40001
1.40001
1.40001
1.41209
3.95441
5.31061
5.3
5.32148
5.31231
5.27882
5.22252
5.11892
4.92648
4.59879
3.69357
1.40001
1.40001
1.40001
1.40001
1.40001
1.40001
1.40001
1.40001
1.40001
1.40001
1.40001
1.40001
1.39994
3.17443
5.10702
5.27376
5.28963
5.26445
5.21298
5.12593
4.99
4.75573
4.42204
3.62073
1.40001
1.40001
1.40001
1.40001
1.40001
1.40001
1.40001
1.40001
1.40001
1.40001
1.40001
1.40001
1.39999
2.35147
4.84437
5.23804
5.22502
5.20292
5.14767
5.04043
4.88204
4.6411
4.28972
3.63789
1.40001
1.40001
1.40001
1.40001
1.40001
1.40001
1.40001
1.40001
1.40001
1.40001
1.40001
1.40001
1.4
1.59888
4.46705
5.29233
5.19286
5.13527
5.07474
4.96259
4.80037
4.56624
4.20915
3.72658
1.40001
1.40001
1.40001
1.40001
1.40001
1.40001
1.40001
1.40001
1.40001
1.40001
1.40001
1.40001
1.4
1.40596
3.65438
5.03539
5.06785
5.05721
5.00394
4.90289
4.75623
4.5215
4.20512
3.85289
1.40001
1.40001
1.40001
1.40001
1.40001
1.40001
1.40001
1.40001
1.40001
1.40001
1.40001
1.40001
1.40001
1.39991
2.55202
4.8148
5.07578
5.05049
4.98698
4.88674
4.73301
4.52281
4.25793
4.02069
1.40001
1.40001
1.40001
1.40001
1.40001
1.40001
1.40001
1.40001
1.40001
1.40001
1.40001
1.40001
1.40001
1.39998
1.63597
4.36944
5.13847
5.07091
4.98884
4.88531
4.74496
4.56713
4.37347
4.20736
1.40001
1.40001
1.40001
1.40001
1.40001
1.40001
1.40001
1.40001
1.40001
1.40001
1.40001
1.40001
1.40001
1.4
1.40721
3.35888
4.96366
5.04191
4.99515
4.92244
4.8088
4.66836
4.51568
4.38116
1.40001
1.40001
1.40001
1.40001
1.40001
1.40001
1.40001
1.40001
1.40001
1.40001
1.40001
1.40001
1.40001
1.4
1.39995
2.10778
4.79468
5.16149
5.09941
5.03357
4.91293
4.78521
4.64949
4.53339
1.40001
1.40001
1.40001
1.40001
1.40001
1.40001
1.40001
1.40001
1.40001
1.40001
1.40001
1.40001
1.40001
1.40001
1.39999
1.47992
4.04846
5.17205
5.17417
5.1351
5.03241
4.91618
4.78884
4.68053
1.40001
1.40001
1.40001
1.40001
1.40001
1.40001
1.40001
1.40001
1.40001
1.40001
1.40001
1.40001
1.40001
1.40001
1.4
1.40045
2.86035
5.0979
5.35567
5.2792
5.17222
5.05358
4.9292
4.82102
1.40001
1.40001
1.40001
1.40001
1.40001
1.40001
1.40001
1.40001
1.40001
1.40001
1.40001
1.40001
1.40001
1.40001
1.4
1.4
1.80389
4.90695
5.546
5.38193
5.28018
5.16931
5.06209
4.95992
1.40001
1.40001
1.40001
1.40001
1.40001
1.40001
1.40001
1.40001
1.40001
1.40001
1.40001
1.40001
1.40001
1.40001
1.40001
1.4
1.42306
4.30116
5.56502
5.41907
5.34516
5.25827
5.16881
5.0795
1.40001
1.40001
1.40001
1.40001
1.40001
1.40001
1.40001
1.40001
1.40001
1.40001
1.40001
1.40001
1.40001
1.40001
1.40001
1.4
1.40003
3.55577
5.44468
5.38191
5.34201
5.29256
5.23457
5.16922
1.40001
1.40001
1.40001
1.40001
1.40001
1.40001
1.40001
1.40001
1.40001
1.40001
1.40001
1.40001
1.40001
1.40001
1.40001
1.40001
1.4
2.94294
5.25104
5.39377
5.32553
5.2827
5.24301
5.20082
1.40001
1.40001
1.40001
1.40001
1.40001
1.40001
1.40001
1.40001
1.40001
1.40001
1.40001
1.40001
1.40001
1.40001
1.40001
1.40001
1.4
2.42441
5.00441
5.38168
5.2974
5.26999
5.23413
5.19567
1.40001
1.40001
1.40001
1.40001
1.40001
1.40001
1.40001
1.40001
1.40001
1.40001
1.40001
1.40001
1.40001
1.40001
1.40001
1.40001
1.4
1.98862
4.828
5.44475
5.32339
5.2829
5.2342
5.1862
1.40001
1.40001
1.40001
1.40001
1.40001
1.40001
1.40001
1.40001
1.40001
1.40001
1.40001
1.40001
1.40001
1.40001
1.40001
1.40001
1.40001
1.65062
4.60106
5.4661
5.33695
5.27959
5.22044
5.16272
1.40001
1.40001
1.40001
1.40001
1.40001
1.40001
1.40001
1.40001
1.40001
1.40001
1.40001
1.40001
1.40001
1.40001
1.40001
1.40001
1.40001
1.45448
4.29217
5.4464
5.34241
5.27912
5.21637
5.15293
1.40001
1.40001
1.40001
1.40001
1.40001
1.40001
1.40001
1.40001
1.40001
1.40001
1.40001
1.40001
1.40001
1.40001
1.40001
1.40001
1.40001
1.40147
3.92744
5.39315
5.3468
5.28158
5.22281
5.15887
1.40001
1.40001
1.40001
1.40001
1.40001
1.40001
1.40001
1.40001
1.40001
1.40001
1.40001
1.40001
1.40001
1.40001
1.40001
1.40001
1.40001
1.40001
3.58912
5.35908
5.37214
5.29493
5.23876
5.17425
1.40001
1.40001
1.40001
1.40001
1.40001
1.40001
1.40001
1.40001
1.40001
1.40001
1.40001
1.40001
1.40001
1.40001
1.40001
1.40001
1.40001
1.40001
3.28764
5.33067
5.39952
5.31473
5.26201
5.19902
1.40001
1.40001
1.40001
1.40001
1.40001
1.40001
1.40001
1.40001
1.40001
1.40001
1.40001
1.40001
1.40001
1.40001
1.40001
1.40001
1.40001
1.40001
3.00945
5.29234
5.42608
5.33252
5.28035
5.21874
1.40001
1.40001
1.40001
1.40001
1.40001
1.40001
1.40001
1.40001
1.40001
1.40001
1.40001
1.40001
1.40001
1.40001
1.40001
1.40001
1.40001
1.40001
2.7791
5.22676
5.43903
5.34117
5.28949
5.23028
1.40001
1.40001
1.40001
1.40001
1.40001
1.40001
1.40001
1.40001
1.40001
1.40001
1.40001
1.40001
1.40001
1.40001
1.40001
1.40001
1.40001
1.40001
2.59769
5.14875
5.4385
5.33996
5.28962
5.23388
1.40001
1.40001
1.40001
1.40001
1.40001
1.40001
1.40001
1.40001
1.40001
1.40001
1.40001
1.40001
1.40001
1.40001
1.40001
1.40001
1.40001
1.40001
2.45812
5.07375
5.43181
5.33614
5.28868
5.23601
1.40001
1.40001
1.40001
1.40001
1.40001
1.40001
1.40001
1.40001
1.40001
1.40001
1.40001
1.40001
1.40001
1.40001
1.40001
1.40001
1.40001
1.40001
2.35514
5.00996
5.42274
5.33208
5.2891
5.23893
1.40001
1.40001
1.40001
1.40001
1.40001
1.40001
1.40001
1.40001
1.40001
1.40001
1.40001
1.40001
1.40001
1.40001
1.40001
1.40001
1.40001
1.40001
2.27226
4.95954
5.41916
5.33022
5.29125
5.24394
1.40001
1.40001
1.40001
1.40001
1.40001
1.40001
1.40001
1.40001
1.40001
1.40001
1.40001
1.40001
1.40001
1.40001
1.40001
1.40001
1.40001
1.40001
2.20122
4.92725
5.41694
5.33111
5.2944
5.24867
1.40001
1.40001
1.40001
1.40001
1.40001
1.40001
1.40001
1.40001
1.40001
1.40001
1.40001
1.40001
1.40001
1.40001
1.40001
1.40001
1.40001
1.40001
2.14341
4.91889
5.41802
5.33331
5.29656
5.25144
1.40001
1.40001
1.40001
1.40001
1.40001
1.40001
1.40001
1.40001
1.40001
1.40001
1.40001
1.40001
1.40001
1.40001
1.40001
1.40001
1.40001
1.40001
2.11587
4.9071
5.41775
5.33475
5.29895
5.25421
1.60141
1.67769
1.88356
2.05705
2.13973
2.1456
2.12308
2.09274
2.06334
2.04044
2.03525
2.04442
2.06298
2.08646
2.10954
2.12701
2.13824
2.14459
2.15159
2.16479
2.18684
2.2149
2.24306
2.26602
2.28157
2.29156
2.29989
2.31014
2.32504
2.34524
2.36912
2.39384
2.41544
2.43159
2.44281
2.44977
2.45356
2.45589
2.45835
2.46232
2.46843
2.47564
2.48182
2.48495
2.48385
2.47826
2.46916
2.45888
2.44875
2.4392
2.43038
2.42233
2.41514
2.40902
2.40385
2.39864
2.39156
2.38124
2.36756
2.3517
2.33524
2.31924
2.30426
2.29074
2.27878
2.26838
2.25911
2.24949
2.23758
2.22242
2.20438
2.18388
2.16081
2.13543
2.11
2.0858
2.06392
2.04526
2.03025
2.01793
2.0041
1.98716
1.96979
1.95289
1.93637
1.92028
1.90459
1.88944
1.87458
1.85933
1.84342
1.82807
1.81442
1.8034
1.79437
1.78428
2.32373
2.29797
2.14856
2.14848
2.14871
2.11974
2.09031
2.06869
2.05589
2.049
2.05797
2.08392
2.11449
2.13769
2.1508
2.1603
2.17036
2.18029
2.18948
2.19863
2.21022
2.22676
2.24799
2.27051
2.29
2.30506
2.31712
2.32851
2.34229
2.36044
2.3819
2.40351
2.42223
2.43667
2.44763
2.45678
2.46506
2.47284
2.47981
2.48511
2.48847
2.49052
2.49257
2.49501
2.49678
2.49501
2.48738
2.47603
2.46498
2.45605
2.44909
2.44296
2.43619
2.42799
2.4187
2.40918
2.39994
2.39026
2.37881
2.36516
2.34984
2.33337
2.31611
2.29893
2.2828
2.26854
2.25637
2.24551
2.23395
2.21999
2.20364
2.18583
2.16649
2.14494
2.12278
2.10155
2.0816
2.06329
2.04679
2.03168
2.01645
1.99979
1.98296
1.96667
1.95045
1.93391
1.91622
1.897
1.87773
1.86025
1.84483
1.83115
1.81854
1.80677
1.79685
1.79093
2.77407
2.69626
2.3366
2.2407
2.1822
2.14294
2.11971
2.11446
2.13085
2.14593
2.14303
2.14804
2.16327
2.17676
2.17702
2.17404
2.17548
2.18658
2.20546
2.22494
2.24023
2.25262
2.26603
2.28431
2.30843
2.33587
2.36284
2.38661
2.40798
2.43002
2.45439
2.4798
2.50296
2.52074
2.53145
2.53743
2.54241
2.54924
2.55866
2.56871
2.57617
2.579
2.57752
2.5745
2.57219
2.57082
2.56677
2.55613
2.54175
2.52783
2.51672
2.50944
2.50535
2.50216
2.49652
2.48671
2.47397
2.46023
2.44603
2.43215
2.41883
2.4052
2.39045
2.37399
2.35614
2.33771
2.31978
2.30352
2.28881
2.27288
2.25376
2.23224
2.20907
2.18448
2.15961
2.13847
2.12088
2.10529
2.08947
2.0718
2.05359
2.03562
2.01799
2.00089
1.98546
1.97142
1.9571
1.9405
1.91985
1.89614
1.87462
1.85917
1.84738
1.83655
1.82438
1.81776
3.07237
3.09542
2.70317
2.57142
2.49713
2.39163
2.31981
2.28242
2.27237
2.27262
2.25471
2.22037
2.21534
2.22357
2.24517
2.25889
2.26195
2.26604
2.27824
2.30179
2.331
2.35704
2.37788
2.39696
2.41903
2.44598
2.47639
2.50659
2.53334
2.55676
2.57869
2.60109
2.62544
2.64969
2.66891
2.68095
2.68788
2.69362
2.70092
2.70993
2.71886
2.72528
2.72581
2.72024
2.71196
2.70504
2.7007
2.69323
2.6772
2.6581
2.63922
2.62378
2.61332
2.60725
2.60156
2.59209
2.57763
2.56
2.5421
2.5241
2.50634
2.48918
2.4735
2.45803
2.44098
2.42224
2.40183
2.38321
2.36727
2.35106
2.33374
2.31501
2.29438
2.27166
2.24703
2.22099
2.19631
2.17568
2.15731
2.13976
2.12282
2.10521
2.08585
2.06425
2.04247
2.02352
2.0072
1.99134
1.97383
1.95383
1.93367
1.91651
1.90369
1.89542
1.88806
1.89055
3.35201
3.41317
3.10071
2.94619
2.84569
2.68303
2.57401
2.50601
2.45301
2.43349
2.42974
2.41039
2.38974
2.39461
2.41518
2.44289
2.45791
2.46551
2.47501
2.49127
2.51544
2.54395
2.57011
2.59191
2.61076
2.63131
2.65797
2.6908
2.72361
2.75064
2.77116
2.78823
2.80609
2.82636
2.84669
2.86359
2.87544
2.88289
2.88756
2.89035
2.89114
2.89158
2.8918
2.88633
2.87538
2.86265
2.84711
2.82846
2.80865
2.79173
2.77585
2.76136
2.75052
2.73827
2.72268
2.70654
2.69043
2.67355
2.65539
2.63526
2.61219
2.59004
2.57228
2.55593
2.53926
2.52121
2.50082
2.47841
2.45562
2.43442
2.41524
2.39727
2.37973
2.3614
2.3405
2.31543
2.28747
2.26091
2.23822
2.21901
2.20142
2.18406
2.1658
2.14628
2.12533
2.10382
2.08128
2.05777
2.03511
2.01426
1.99718
1.98258
1.9706
1.9646
1.96296
1.97775
3.61083
3.65016
3.40507
3.23678
3.19485
3.07582
2.94747
2.84187
2.73322
2.66582
2.64738
2.62478
2.5924
2.57806
2.58938
2.61345
2.63397
2.64117
2.64912
2.66123
2.68309
2.71427
2.74021
2.75505
2.76684
2.78061
2.8001
2.82872
2.85989
2.88226
2.89454
2.90272
2.91176
2.92574
2.94428
2.95999
2.96807
2.97013
2.96928
2.96764
2.96763
2.97152
2.97608
2.97046
2.95912
2.94543
2.92915
2.91172
2.89788
2.89057
2.88439
2.87197
2.85206
2.82916
2.80592
2.78862
2.77668
2.76445
2.74963
2.73068
2.70604
2.67953
2.65738
2.63946
2.62285
2.60533
2.58525
2.56168
2.53593
2.51121
2.48947
2.4702
2.45215
2.4341
2.4147
2.39166
2.36341
2.33359
2.30818
2.28725
2.26863
2.25016
2.23138
2.21242
2.19306
2.17242
2.14999
2.12765
2.10473
2.08362
2.06795
2.05692
2.05141
2.05365
2.05891
2.08766
3.86753
3.85095
3.61376
3.46771
3.46625
3.39551
3.29711
3.18838
3.05803
2.94348
2.88053
2.838
2.79183
2.75683
2.75622
2.77374
2.79266
2.79667
2.79225
2.79715
2.81801
2.84681
2.85701
2.85824
2.8636
2.87599
2.89451
2.92003
2.94413
2.95729
2.96093
2.96388
2.97178
2.98929
3.01233
3.02657
3.02912
3.02894
3.02921
3.03216
3.04147
3.05505
3.05418
3.04298
3.02834
3.01683
3.00989
3.00606
2.99655
2.98067
2.96247
2.94201
2.91745
2.89614
2.88093
2.86854
2.85489
2.8391
2.81993
2.79664
2.77044
2.74396
2.72024
2.69982
2.68065
2.66123
2.64022
2.61645
2.59022
2.56419
2.54213
2.52362
2.50595
2.48787
2.46795
2.44319
2.41232
2.38164
2.35808
2.33913
2.32097
2.30199
2.2813
2.25945
2.23798
2.2184
2.19944
2.18086
2.16206
2.14248
2.12643
2.12155
2.12448
2.14118
2.16216
2.21062
4.09567
4.015
3.77928
3.67017
3.68663
3.62592
3.534
3.42988
3.29713
3.16535
3.08095
3.03076
2.97848
2.92606
2.90368
2.91081
2.92688
2.92751
2.91493
2.91273
2.92676
2.94643
2.95321
2.95487
2.96037
2.96727
2.97442
2.98866
3.00511
3.01432
3.01882
3.02286
3.03086
3.04527
3.06187
3.06724
3.06596
3.06485
3.06731
3.07448
3.08418
3.082
3.06927
3.05657
3.04957
3.04734
3.04891
3.0395
3.02044
2.99056
2.95966
2.94344
2.93348
2.92397
2.90969
2.89109
2.86959
2.85002
2.83213
2.81268
2.79104
2.7668
2.7404
2.71599
2.69573
2.67756
2.65942
2.63958
2.61713
2.59242
2.56803
2.54619
2.52618
2.50645
2.48574
2.46224
2.43455
2.40733
2.38585
2.36769
2.35029
2.33234
2.31157
2.28711
2.2637
2.24612
2.23166
2.21978
2.20823
2.19257
2.182
2.18274
2.19371
2.22678
2.26333
2.32211
4.27919
4.16348
3.95706
3.88076
3.88254
3.79334
3.68436
3.57193
3.43821
3.3091
3.23232
3.18656
3.13208
3.06467
3.01728
3.0127
3.02106
3.01561
3.00031
2.99445
2.99925
3.01326
3.0255
3.02825
3.02752
3.02332
3.02189
3.0268
3.03639
3.04198
3.04396
3.04473
3.04643
3.05167
3.06117
3.06326
3.0599
3.0566
3.05906
3.06909
3.0782
3.0724
3.05501
3.03804
3.03238
3.03585
3.03754
3.0255
3.00409
2.97165
2.94799
2.9369
2.93315
2.92693
2.91281
2.89283
2.86565
2.84484
2.8291
2.81258
2.79439
2.77311
2.74705
2.7204
2.70043
2.68366
2.66712
2.64987
2.63016
2.60608
2.57907
2.55385
2.53231
2.51255
2.49207
2.46973
2.44549
2.42104
2.39994
2.38355
2.36898
2.35305
2.3335
2.30795
2.28186
2.26399
2.25528
2.25105
2.24764
2.24343
2.24198
2.25056
2.2764
2.32195
2.36231
2.41035
4.43195
4.30163
4.14282
4.08892
4.0606
3.93407
3.80664
3.68758
3.55281
3.4259
3.35238
3.30739
3.24897
3.17092
3.10722
3.09145
3.09277
3.08136
3.06069
3.04364
3.04134
3.05276
3.06475
3.06394
3.05493
3.04399
3.03992
3.04068
3.04742
3.048
3.04504
3.04084
3.0377
3.0365
3.03927
3.04268
3.03958
3.03365
3.0322
3.03854
3.04703
3.04529
3.03551
3.01903
3.01059
3.01457
3.01554
3.00497
2.98659
2.95833
2.94166
2.93482
2.93536
2.92732
2.91231
2.88952
2.86085
2.845
2.83205
2.8171
2.79948
2.77827
2.75181
2.72702
2.70979
2.69375
2.67712
2.66
2.64074
2.61666
2.58812
2.56032
2.53667
2.51646
2.49764
2.47845
2.45785
2.43461
2.40936
2.39126
2.37948
2.3668
2.35189
2.33202
2.30455
2.28528
2.27985
2.28012
2.28883
2.29861
2.3148
2.34057
2.38621
2.4239
2.44602
2.46939
4.57284
4.44288
4.32743
4.27901
4.21985
4.06904
3.93206
3.81093
3.67532
3.54385
3.46373
3.41298
3.34965
3.2663
3.19372
3.16828
3.16322
3.14669
3.11787
3.09135
3.08411
3.09125
3.09758
3.09081
3.07567
3.06285
3.05685
3.05622
3.06221
3.05799
3.04948
3.03832
3.03158
3.02811
3.0293
3.03365
3.02997
3.02172
3.01426
3.01321
3.02047
3.02442
3.0209
3.01264
3.00208
2.99881
2.99801
2.9906
2.97511
2.95504
2.94537
2.94423
2.94275
2.93051
2.91297
2.88634
2.86364
2.85312
2.84403
2.8311
2.81378
2.79089
2.76339
2.74185
2.72605
2.71009
2.69268
2.67362
2.65189
2.62582
2.59761
2.57178
2.54928
2.52856
2.50904
2.49103
2.47341
2.45325
2.42837
2.40342
2.38792
2.37722
2.36719
2.35505
2.33766
2.31985
2.31537
2.32041
2.33739
2.36651
2.40412
2.4438
2.49426
2.50651
2.51041
2.51241
4.70822
4.58787
4.50247
4.44605
4.36236
4.2047
4.07015
3.95051
3.81614
3.679
3.58857
3.53083
3.46368
3.37612
3.29506
3.26009
3.24547
3.2228
3.18731
3.15148
3.13911
3.14152
3.14157
3.1281
3.10672
3.09045
3.08296
3.08288
3.08676
3.07844
3.06533
3.04762
3.03728
3.03147
3.03158
3.03622
3.03265
3.02426
3.01207
3.0056
3.00976
3.01437
3.01316
3.01206
3.00476
2.99504
2.99247
2.98811
2.9759
2.96124
2.95729
2.9577
2.94891
2.93397
2.91221
2.88785
2.87677
2.87105
2.86305
2.84931
2.83014
2.80329
2.77556
2.75731
2.7426
2.72711
2.70874
2.68595
2.65908
2.63046
2.60592
2.58705
2.57002
2.55166
2.53102
2.51003
2.49072
2.47213
2.45195
2.42765
2.40314
2.39001
2.38239
2.37706
2.3711
2.36492
2.36792
2.38399
2.40749
2.4511
2.4876
2.52872
2.56813
2.56996
2.5624
2.54959
4.84606
4.73261
4.65908
4.59066
4.49095
4.33735
4.21099
4.09574
3.96499
3.82775
3.7324
3.67057
3.60011
3.50747
3.41686
3.37299
3.34939
3.31905
3.27537
3.22675
3.20524
3.20106
3.19713
3.17825
3.14981
3.12777
3.11751
3.11611
3.11516
3.10391
3.0886
3.06709
3.05325
3.04494
3.04224
3.04305
3.03751
3.0299
3.01889
3.01002
3.01379
3.01306
3.00729
3.00784
3.00298
2.99611
2.99565
2.99337
2.98269
2.96713
2.96155
2.95757
2.94581
2.93019
2.90903
2.89229
2.88619
2.88123
2.87149
2.85726
2.837
2.80742
2.77966
2.76252
2.74959
2.73694
2.72103
2.69629
2.65978
2.63179
2.61595
2.60306
2.59051
2.57663
2.5587
2.53518
2.50953
2.48826
2.47096
2.4533
2.43273
2.41318
2.4038
2.40317
2.40963
2.41468
2.43764
2.46798
2.50592
2.54385
2.56296
2.58892
2.61155
2.61331
2.60747
2.58948
4.97769
4.87845
4.80678
4.72217
4.60682
4.45906
4.34156
4.23074
4.10688
3.97676
3.88168
3.81755
3.74507
3.64748
3.55138
3.50236
3.46983
3.42885
3.37534
3.31548
3.28399
3.26953
3.25832
3.23528
3.20004
3.16877
3.15416
3.14739
3.13965
3.12599
3.10878
3.08474
3.06612
3.05469
3.04881
3.04508
3.03633
3.02854
3.0174
3.00867
3.00871
2.99898
2.98597
2.98562
2.98141
2.97662
2.97945
2.97953
2.96992
2.95237
2.94226
2.93655
2.92876
2.91689
2.90421
2.89387
2.88714
2.87939
2.86803
2.85292
2.8318
2.80381
2.77682
2.76107
2.75104
2.73902
2.72375
2.6997
2.66417
2.63888
2.62511
2.61345
2.60314
2.59268
2.57914
2.55767
2.5266
2.50168
2.48672
2.47489
2.46284
2.44701
2.4366
2.44102
2.45432
2.47888
2.52438
2.56467
2.60878
2.62209
2.62663
2.63556
2.64498
2.65134
2.64697
2.62924
5.08127
4.99219
4.92168
4.83673
4.71805
4.5762
4.46427
4.35393
4.2379
4.11799
4.02178
3.95168
3.87709
3.77743
3.67869
3.62429
3.58365
3.532
3.46849
3.40277
3.36414
3.33968
3.31774
3.28864
3.24863
3.20866
3.18654
3.17155
3.15573
3.13759
3.11771
3.09309
3.06925
3.05331
3.04515
3.03466
3.02302
3.01538
3.00189
2.98962
2.98644
2.97342
2.95612
2.95216
2.947
2.9434
2.94776
2.94922
2.94063
2.92549
2.90964
2.90388
2.90273
2.90224
2.89427
2.8773
2.86696
2.85875
2.84731
2.83076
2.81044
2.79028
2.77328
2.75708
2.7363
2.71922
2.70578
2.68911
2.66787
2.64745
2.6355
2.62871
2.61996
2.60676
2.59066
2.5672
2.53477
2.51266
2.50294
2.49648
2.49045
2.48103
2.47839
2.49585
2.52108
2.57286
2.62043
2.6606
2.68643
2.68312
2.68026
2.67945
2.68025
2.68484
2.68171
2.66562
5.13912
5.07261
5.01016
4.92681
4.80797
4.68263
4.58288
4.47292
4.35898
4.2466
4.14802
4.06893
3.99345
3.89705
3.79563
3.73053
3.68177
3.62307
3.55216
3.48313
3.43802
3.40285
3.36955
3.33417
3.29181
3.24821
3.2149
3.19247
3.17105
3.14752
3.12336
3.09705
3.06993
3.05023
3.03481
3.01624
2.99861
2.98665
2.97182
2.96032
2.95197
2.9376
2.91678
2.90629
2.89646
2.88799
2.89086
2.89667
2.89317
2.88245
2.86802
2.86336
2.86902
2.87378
2.86402
2.85089
2.84031
2.82992
2.8181
2.80015
2.78519
2.7786
2.76853
2.75142
2.72808
2.70236
2.68777
2.68032
2.67239
2.65972
2.64559
2.62924
2.61053
2.59262
2.57496
2.55607
2.53771
2.52569
2.52155
2.52251
2.52384
2.52441
2.54441
2.57837
2.62208
2.6767
2.70231
2.72814
2.73975
2.73721
2.73137
2.72361
2.719
2.71672
2.71291
2.6971
5.1481
5.09732
5.04228
4.96841
4.86883
4.76599
4.67613
4.57257
4.4674
4.3641
4.26561
4.18376
4.10361
4.00346
3.89941
3.8261
3.76984
3.70724
3.63249
3.55661
3.50539
3.46382
3.42202
3.37945
3.33383
3.28849
3.24782
3.21396
3.18558
3.15669
3.12569
3.09752
3.07073
3.04745
3.02623
3.00291
2.97914
2.95659
2.93288
2.91448
2.90197
2.88642
2.8687
2.85752
2.84472
2.82803
2.82388
2.82848
2.82611
2.82284
2.81864
2.81755
2.82899
2.83448
2.82563
2.81426
2.80285
2.79185
2.7836
2.77555
2.76593
2.75306
2.74177
2.73159
2.71704
2.69513
2.67544
2.66557
2.65788
2.6495
2.63798
2.62081
2.60097
2.58333
2.56809
2.55604
2.54936
2.54532
2.54494
2.55562
2.56952
2.59722
2.64296
2.68338
2.73034
2.75077
2.76237
2.77854
2.78671
2.78587
2.77989
2.76328
2.7522
2.74532
2.73878
2.71996
5.13528
5.0817
5.02447
4.95684
4.88006
4.79883
4.72395
4.64018
4.53635
4.4439
4.36011
4.26303
4.17679
4.09104
3.99256
3.91388
3.85248
3.78954
3.71272
3.62355
3.56061
3.51582
3.46995
3.42453
3.37872
3.32675
3.27791
3.2354
3.19889
3.16905
3.14234
3.1116
3.07628
3.0403
3.01258
2.9894
2.96508
2.93472
2.90174
2.87326
2.85118
2.82854
2.81309
2.80447
2.79223
2.77217
2.76028
2.76223
2.75749
2.75703
2.76336
2.76455
2.77347
2.78019
2.77685
2.76816
2.75601
2.75109
2.7496
2.7487
2.7399
2.72554
2.71879
2.71148
2.70095
2.68749
2.66791
2.65213
2.64316
2.63384
2.62176
2.60656
2.58991
2.57921
2.5726
2.56851
2.56596
2.56378
2.57357
2.59967
2.63275
2.68651
2.73438
2.77492
2.79547
2.79917
2.80552
2.81354
2.81715
2.81224
2.80145
2.78115
2.76014
2.74736
2.74208
2.72554
5.1069
5.05341
4.9975
4.93315
4.86359
4.79289
4.72687
4.6571
4.56253
4.47523
4.40134
4.31619
4.22409
4.1326
4.04144
3.96834
3.90398
3.82849
3.74439
3.66777
3.61005
3.56261
3.5145
3.45917
3.39526
3.34054
3.30115
3.26249
3.22213
3.17943
3.13244
3.08406
3.03869
3.00189
2.97226
2.94738
2.92384
2.89584
2.86032
2.82621
2.7968
2.76992
2.75481
2.74551
2.73172
2.71041
2.69399
2.69348
2.68979
2.68822
2.70115
2.70629
2.70555
2.71205
2.7166
2.71374
2.70271
2.69851
2.70194
2.70619
2.69933
2.68467
2.67882
2.67562
2.66961
2.6603
2.6454
2.62643
2.61368
2.60448
2.59445
2.58332
2.57197
2.56655
2.56568
2.57041
2.57571
2.58516
2.61744
2.65459
2.70539
2.75751
2.79808
2.82192
2.82464
2.82057
2.81965
2.82275
2.82366
2.81629
2.80356
2.78344
2.76111
2.74239
2.73212
2.71487
5.09063
5.02921
4.96634
4.90167
4.83705
4.77422
4.71116
4.63682
4.55233
4.47799
4.41084
4.33233
4.24009
4.15218
4.07154
3.99893
3.93233
3.85665
3.76857
3.68865
3.62858
3.57559
3.52424
3.4681
3.40003
3.33385
3.2825
3.24089
3.2017
3.1599
3.11107
3.05636
3.00575
2.96626
2.9326
2.90104
2.86981
2.83629
2.79892
2.7648
2.73448
2.70911
2.6939
2.68138
2.66381
2.64126
2.62501
2.62227
2.61953
2.61652
2.62527
2.63392
2.63088
2.62792
2.6366
2.64413
2.64127
2.63684
2.64318
2.65034
2.6459
2.63407
2.62585
2.62286
2.62187
2.61945
2.61059
2.59416
2.57638
2.56688
2.55901
2.55396
2.55189
2.55455
2.56363
2.5766
2.58946
2.62169
2.66806
2.71118
2.7619
2.7949
2.82409
2.83778
2.83578
2.82595
2.82159
2.81773
2.81073
2.80219
2.79059
2.77474
2.75594
2.7359
2.71879
2.69623
5.09533
5.03029
4.96309
4.89611
4.82997
4.76306
4.69373
4.61647
4.53982
4.47237
4.40376
4.32168
4.23205
4.15349
4.08347
4.00886
3.9372
3.86116
3.77765
3.70464
3.64286
3.58319
3.52325
3.45961
3.39096
3.32715
3.27377
3.22566
3.17856
3.12843
3.07349
3.01784
2.9684
2.92653
2.88902
2.85395
2.82001
2.78302
2.74358
2.70954
2.67875
2.65501
2.63941
2.62418
2.60378
2.58115
2.56676
2.56122
2.55552
2.5473
2.54708
2.55397
2.55545
2.55059
2.55309
2.56893
2.57762
2.57609
2.58063
2.58661
2.58365
2.57473
2.56763
2.5655
2.56827
2.57109
2.56598
2.55524
2.53938
2.53104
2.52729
2.52965
2.53719
2.54828
2.56572
2.588
2.61793
2.67309
2.7156
2.75516
2.79091
2.81176
2.82723
2.83099
2.82603
2.81432
2.80579
2.7966
2.78642
2.77582
2.76461
2.75308
2.73974
2.72403
2.70749
2.68295
5.10968
5.04251
4.97458
4.90623
4.83619
4.76356
4.68922
4.61426
4.54415
4.47768
4.40482
4.32087
4.23649
4.16669
4.09639
4.01388
3.93637
3.86191
3.7845
3.71395
3.64794
3.58188
3.5141
3.4456
3.37849
3.31633
3.25996
3.20619
3.15204
3.09606
3.03971
2.98641
2.93869
2.8956
2.8557
2.81758
2.77916
2.73606
2.69628
2.66708
2.64148
2.62049
2.60197
2.57987
2.55333
2.53208
2.5205
2.51366
2.50498
2.49316
2.48287
2.48321
2.48951
2.49127
2.48842
2.49556
2.51357
2.51946
2.52015
2.52508
2.52394
2.51718
2.51172
2.51229
2.51855
2.52276
2.52092
2.51557
2.5076
2.50613
2.50888
2.51721
2.53231
2.55237
2.58274
2.61931
2.67004
2.72587
2.75175
2.78303
2.79486
2.80151
2.80832
2.81351
2.81019
2.8018
2.79179
2.77944
2.76684
2.7546
2.74291
2.73124
2.71883
2.70468
2.69166
2.67117
5.13516
5.06873
5.00197
4.93458
4.86512
4.79291
4.71852
4.64397
4.57216
4.49809
4.41875
4.33498
4.25655
4.18716
4.10907
4.02174
3.9441
3.87377
3.79844
3.72487
3.65392
3.58231
3.5104
3.4396
3.37212
3.30976
3.25126
3.19411
3.13628
3.07802
3.0224
2.97211
2.92684
2.88444
2.84258
2.7997
2.75452
2.71005
2.67618
2.65156
2.63092
2.61041
2.5857
2.55449
2.52136
2.5016
2.49018
2.48047
2.46863
2.4539
2.43645
2.42805
2.4296
2.43828
2.44196
2.44067
2.45171
2.46309
2.46288
2.46719
2.4744
2.47341
2.4711
2.47492
2.48225
2.48577
2.48665
2.48637
2.48899
2.49626
2.5075
2.52267
2.54331
2.57741
2.62648
2.67027
2.72765
2.76135
2.77926
2.79263
2.79486
2.79233
2.79217
2.79743
2.79865
2.79141
2.7794
2.76333
2.74823
2.73592
2.72458
2.71297
2.69992
2.68356
2.67177
2.6556
5.15671
5.09263
5.0279
4.962
4.8939
4.82323
4.74988
4.67624
4.60109
4.52208
4.44038
4.35789
4.28046
4.20703
4.12457
4.03823
3.9629
3.89341
3.81605
3.73753
3.66244
3.58804
3.51466
3.44399
3.37784
3.31565
3.25524
3.19494
3.13469
3.07656
3.02234
2.97275
2.92712
2.8841
2.84051
2.79477
2.74738
2.70722
2.67846
2.65197
2.62512
2.5969
2.56487
2.52847
2.4957
2.47511
2.46175
2.44999
2.43582
2.41808
2.39595
2.38261
2.3787
2.38426
2.39886
2.40249
2.40062
2.40778
2.41095
2.41664
2.43144
2.4413
2.44305
2.44512
2.45136
2.45648
2.46109
2.46868
2.48178
2.49816
2.51692
2.54381
2.57753
2.62836
2.67336
2.71385
2.76311
2.7862
2.79892
2.80188
2.79927
2.79075
2.78573
2.78533
2.78685
2.78107
2.77014
2.75507
2.73833
2.72466
2.71296
2.70075
2.68663
2.66953
2.65811
2.64341
5.17131
5.11041
5.04842
4.9845
4.91863
4.85031
4.77937
4.70657
4.62993
4.55033
4.46891
4.3863
4.30684
4.22925
4.1453
4.06099
3.9863
3.91557
3.83599
3.75379
3.67662
3.60346
3.53228
3.46292
3.39568
3.33011
3.2654
3.2021
3.14148
3.08433
3.03124
2.98222
2.93596
2.88955
2.84148
2.79358
2.75021
2.71329
2.67803
2.64255
2.60738
2.57205
2.53592
2.50148
2.47323
2.44993
2.43051
2.41449
2.39875
2.37974
2.35708
2.34443
2.33887
2.33845
2.35001
2.36158
2.36155
2.36229
2.36605
2.37613
2.39445
2.41319
2.41835
2.41825
2.42229
2.42968
2.44056
2.45755
2.48116
2.50645
2.53942
2.57803
2.62093
2.67002
2.70161
2.74071
2.77696
2.79839
2.80766
2.80832
2.80354
2.79182
2.78312
2.77834
2.77569
2.77036
2.76103
2.74763
2.7304
2.71443
2.70083
2.6875
2.67364
2.6584
2.6465
2.62982
5.17865
5.1213
5.06192
4.99967
4.93554
4.86925
4.80067
4.72919
4.65384
4.57574
4.49451
4.41139
4.33053
4.25033
4.16548
4.08259
4.00921
3.9381
3.857
3.77348
3.6974
3.62641
3.55704
3.48852
3.41883
3.34766
3.27861
3.2144
3.15504
3.09979
3.04779
2.99716
2.94476
2.89109
2.8404
2.79497
2.75384
2.71348
2.67189
2.62965
2.58807
2.54845
2.51295
2.48264
2.45662
2.43238
2.40832
2.38313
2.36006
2.34173
2.32861
2.32076
2.31318
2.30532
2.3051
2.31676
2.32573
2.33076
2.33268
2.34269
2.36354
2.38561
2.3935
2.39525
2.40056
2.41255
2.42934
2.45338
2.48504
2.52602
2.56884
2.60803
2.65715
2.69331
2.72192
2.7525
2.77644
2.79632
2.8047
2.8056
2.80057
2.78882
2.77757
2.77042
2.76428
2.7575
2.7477
2.73358
2.71667
2.70196
2.68957
2.67729
2.66441
2.65039
2.63745
2.618
5.18314
5.12805
5.07089
5.01062
4.94817
4.88301
4.81509
4.74386
4.66955
4.59225
4.51086
4.42872
4.34891
4.26684
4.1811
4.09953
4.0276
3.95569
3.87402
3.79317
3.72034
3.65152
3.58228
3.51074
3.43627
3.36213
3.29307
3.23025
3.1724
3.11781
3.06329
3.0055
2.94601
2.88988
2.83987
2.79535
2.75339
2.71146
2.66735
2.62079
2.57452
2.53267
2.49785
2.46902
2.44407
2.42096
2.39575
2.364
2.33174
2.31585
2.30752
2.30386
2.29675
2.28644
2.27776
2.27957
2.29176
2.30714
2.31201
2.31642
2.33542
2.35851
2.37129
2.37834
2.38965
2.40629
2.42893
2.4576
2.49651
2.5465
2.59378
2.64848
2.69535
2.71665
2.73646
2.75453
2.76821
2.78181
2.79098
2.7936
2.78909
2.78117
2.77478
2.76755
2.75928
2.74937
2.73729
2.72434
2.71276
2.70231
2.69167
2.67978
2.66615
2.65158
2.63869
2.61867
5.1889
5.1363
5.08087
5.02177
4.95942
4.89345
4.82419
4.75196
4.67764
4.60104
4.52229
4.44323
4.36244
4.27712
4.19181
4.11236
4.04109
3.96664
3.88548
3.80946
3.7389
3.66792
3.59534
3.52033
3.44477
3.37319
3.30767
3.24688
3.18865
3.12968
3.06808
3.00547
2.94542
2.89058
2.84153
2.79614
2.75238
2.70898
2.66391
2.61604
2.5685
2.52672
2.49249
2.46322
2.43726
2.41356
2.38766
2.35656
2.32324
2.29978
2.28906
2.28541
2.28074
2.27256
2.26079
2.25367
2.25782
2.27551
2.28959
2.29517
2.31044
2.33084
2.34855
2.36935
2.39304
2.41923
2.44939
2.4831
2.52441
2.56668
2.61771
2.68066
2.72065
2.7393
2.75183
2.75551
2.76167
2.76764
2.77329
2.77856
2.78304
2.78365
2.77948
2.77249
2.76244
2.74759
2.73399
2.72457
2.71581
2.70692
2.69739
2.68608
2.67193
2.65652
2.64363
2.62394
5.1963
5.14484
5.0898
5.03119
4.96904
4.90269
4.83258
4.75946
4.68415
4.60704
4.5293
4.45064
4.36731
4.28048
4.19705
4.12055
4.04911
3.9717
3.89218
3.81951
3.74899
3.67535
3.60015
3.52408
3.45051
3.38226
3.31868
3.25692
3.19482
3.13106
3.06684
3.00438
2.94598
2.89274
2.84377
2.79736
2.75236
2.7076
2.66209
2.61563
2.5694
2.52731
2.49145
2.46164
2.43578
2.4107
2.3834
2.35271
2.32281
2.29795
2.28122
2.27178
2.26222
2.25204
2.24081
2.23091
2.23005
2.2412
2.25911
2.26842
2.28373
2.30644
2.33149
2.36211