/*--------------------------------*- C++ -*----------------------------------*\
  =========                 |
  \\      /  F ield         | OpenFOAM: The Open Source CFD Toolbox
   \\    /   O peration     | Website:  https://openfoam.org
    \\  /    A nd           | Version:  7
     \\/     M anipulation  |
\*---------------------------------------------------------------------------*/
FoamFile
{
    version     2.0;
    format      ascii;
    class       volScalarField;
    location    "16";
    object      T;
}
// * * * * * * * * * * * * * * * * * * * * * * * * * * * * * * * * * * * * * //

dimensions      [0 0 0 1 0 0 0];

internalField   nonuniform List<scalar> 
4032
(
1
1
1
1
1
1
1
1
1
1
1
1.01569
2.30445
2.71347
2.72558
2.74052
2.75435
2.76739
2.77935
2.79008
2.79958
2.80727
2.8131
2.81716
1
1
1
1
1
1
1
1
1
1
1
1.00129
2.2845
2.71016
2.7237
2.73845
2.75229
2.76514
2.77684
2.7872
2.79624
2.8034
2.80862
2.81229
1
1
1
1
1
1
1
1
1
1
1
1.00002
2.2414
2.70588
2.72064
2.73503
2.74867
2.76103
2.7722
2.78207
2.79078
2.79785
2.80299
2.80695
1
1
1
1
1
1
1
1
1
1
1
1
2.17247
2.69687
2.71647
2.73067
2.74405
2.75576
2.76628
2.77551
2.78352
2.78963
2.79349
2.7961
1
1
1
1
1
1
1
1
1
1
1
1
2.07403
2.67874
2.71008
2.72422
2.73731
2.74811
2.75738
2.765
2.77121
2.77582
2.7784
2.78178
1
1
1
1
1
1
1
1
1
1
1
1
1.93971
2.64583
2.69698
2.71277
2.72659
2.73704
2.74543
2.75212
2.75727
2.76022
2.75857
2.75275
1
1
1
1
1
1
1
1
1
1
1
1
1.75917
2.58818
2.67657
2.69752
2.71358
2.72425
2.73126
2.73532
2.73592
2.73139
2.72201
2.7136
1
1
1
1
1
1
1
1
1
1
1
1
1.49937
2.48435
2.64842
2.67613
2.69526
2.70694
2.71338
2.71477
2.7108
2.7035
2.69688
2.70703
1
1
1
1
1
1
1
1
1
1
1
1
1.14987
2.35286
2.63032
2.64629
2.66578
2.68019
2.6874
2.68712
2.67894
2.65899
2.61029
2.51604
1
1
1
1
1
1
1
1
1
1
1
1
1.00619
2.23226
2.60401
2.60942
2.62645
2.64328
2.65225
2.65126
2.64035
2.60833
2.55399
2.40968
1
1
1
1
1
1
1
1
1
1
1
1
0.999994
1.99714
2.57679
2.59515
2.60689
2.61421
2.61849
2.61469
2.60102
2.56501
2.50554
2.3382
1
1
1
1
1
1
1
1
1
1
1
1
0.999997
1.60322
2.47441
2.57576
2.58413
2.58869
2.58752
2.57937
2.56181
2.52644
2.46234
2.31198
1
1
1
1
1
1
1
1
1
1
1
1
0.999999
1.1038
2.30881
2.57766
2.56667
2.56545
2.56169
2.5492
2.52808
2.49292
2.42669
2.32089
1
1
1
1
1
1
1
1
1
1
1
1
1
1.0029
2.11562
2.52053
2.53402
2.54169
2.53749
2.52543
2.50479
2.46598
2.40373
2.33216
1
1
1
1
1
1
1
1
1
1
1
1
1
0.999977
1.66371
2.41167
2.50841
2.52203
2.51872
2.50814
2.48574
2.44881
2.40361
2.35653
1
1
1
1
1
1
1
1
1
1
1
1
1
0.999994
1.12198
2.23942
2.49978
2.49889
2.49566
2.48729
2.46996
2.44448
2.4133
2.38473
1
1
1
1
1
1
1
1
1
1
1
1
1
0.999999
1.00343
1.97171
2.43933
2.4742
2.4711
2.47076
2.46405
2.44924
2.42813
2.40818
1
1
1
1
1
1
1
1
1
1
1
1
1
1
0.999989
1.39748
2.30807
2.46996
2.47333
2.47572
2.46654
2.45395
2.43774
2.42359
1
1
1
1
1
1
1
1
1
1
1
1
1
1
0.999997
1.03848
2.16116
2.45575
2.47815
2.47647
2.46751
2.45708
2.44381
2.43293
1
1
1
1
1
1
1
1
1
1
1
1
1
1
0.999999
1.00023
1.78146
2.41982
2.49491
2.4837
2.47093
2.45872
2.44575
2.4353
1
1
1
1
1
1
1
1
1
1
1
1
1
1
1
0.999999
1.23864
2.35297
2.52022
2.4916
2.47513
2.45964
2.44702
2.43642
1
1
1
1
1
1
1
1
1
1
1
1
1
1
1
1
1.01138
2.28455
2.56675
2.52551
2.49664
2.47185
2.45343
2.43944
1
1
1
1
1
1
1
1
1
1
1
1
1
1
1
1
1.00002
2.1199
2.61151
2.57681
2.54101
2.50694
2.47869
2.45597
1
1
1
1
1
1
1
1
1
1
1
1
1
1
1
1
1
1.93034
2.63879
2.62496
2.58842
2.55425
2.52189
2.49178
1
1
1
1
1
1
1
1
1
1
1
1
1
1
1
1
1
1.70314
2.60319
2.64809
2.62223
2.59735
2.56809
2.5377
1
1
1
1
1
1
1
1
1
1
1
1
1
1
1
1
1
1.4366
2.51614
2.67452
2.64759
2.62933
2.60647
2.58119
1
1
1
1
1
1
1
1
1
1
1
1
1
1
1
1
1
1.19733
2.42196
2.68181
2.65821
2.64555
2.62961
2.6115
1
1
1
1
1
1
1
1
1
1
1
1
1
1
1
1
1
1.05062
2.35067
2.68799
2.6688
2.65836
2.64706
2.63394
1
1
1
1
1
1
1
1
1
1
1
1
1
1
1
1
1
1.001
2.26031
2.68888
2.68066
2.66969
2.6604
2.64909
1
1
1
1
1
1
1
1
1
1
1
1
1
1
1
1
1
1
2.15428
2.68382
2.69282
2.6779
2.66807
2.65626
1
1
1
1
1
1
1
1
1
1
1
1
1
1
1
1
1
1
2.04397
2.6691
2.69712
2.6807
2.67108
2.65913
1
1
1
1
1
1
1
1
1
1
1
1
1
1
1
1
1
1
1.94091
2.65625
2.70012
2.68197
2.67212
2.66006
1
1
1
1
1
1
1
1
1
1
1
1
1
1
1
1
1
1
1.85636
2.64797
2.70463
2.68499
2.67431
2.66186
1
1
1
1
1
1
1
1
1
1
1
1
1
1
1
1
1
1
1.78524
2.63944
2.7099
2.68932
2.67757
2.66459
1
1
1
1
1
1
1
1
1
1
1
1
1
1
1
1
1
1
1.72487
2.62838
2.71374
2.69319
2.68082
2.66739
1
1
1
1
1
1
1
1
1
1
1
1
1
1
1
1
1
1
1.67805
2.61703
2.71574
2.69569
2.6832
2.66926
1
1
1
1
1
1
1
1
1
1
1
1
1
1
1
1
1
1
1.6373
2.60461
2.71678
2.69686
2.68459
2.67045
1
1
1
1
1
1
1
1
1
1
1
1
1
1
1
1
1
1
1.59726
2.59083
2.71595
2.69706
2.68523
2.671
1
1
1
1
1
1
1
1
1
1
1
1
1
1
1
1
1
1
1.56078
2.5806
2.71462
2.69674
2.68528
2.67108
1
1
1
1
1
1
1
1
1
1
1
1
1
1
1
1
1
1
1.54534
2.57548
2.71384
2.69656
2.68554
2.67141
1.9008
2.11601
2.36407
2.50004
2.58742
2.64107
2.67267
2.68856
2.69295
2.69008
2.69036
2.69578
2.70524
2.7158
2.72519
2.73141
2.73468
2.73578
2.73648
2.73891
2.74532
2.75518
2.76426
2.77011
2.7722
2.77149
2.76929
2.76726
2.76655
2.76759
2.77009
2.77276
2.77426
2.77377
2.77088
2.76561
2.75877
2.75114
2.74339
2.73609
2.72951
2.72341
2.71704
2.70927
2.699
2.68673
2.67324
2.65913
2.64491
2.63081
2.61681
2.60297
2.58944
2.57647
2.56419
2.55227
2.53982
2.52607
2.51087
2.49475
2.47854
2.46289
2.44818
2.43462
2.4223
2.41122
2.40104
2.39103
2.38051
2.36928
2.35756
2.34545
2.33268
2.31928
2.3062
2.29393
2.28283
2.27319
2.26517
2.25838
2.25101
2.24253
2.23427
2.22662
2.21944
2.21259
2.20587
2.19924
2.19267
2.18585
2.1785
2.17109
2.16422
2.1584
2.15349
2.14781
2.14013
2.30293
2.41249
2.49081
2.54926
2.59075
2.62473
2.65034
2.66792
2.6764
2.68641
2.70097
2.71598
2.72749
2.73322
2.73569
2.73799
2.74026
2.74185
2.74271
2.74396
2.74675
2.75113
2.75573
2.75855
2.75889
2.75701
2.75386
2.75134
2.75036
2.75057
2.75092
2.75006
2.74697
2.74205
2.7364
2.73063
2.72482
2.71872
2.71191
2.70426
2.69603
2.68775
2.67956
2.67096
2.66072
2.64836
2.63464
2.62084
2.60778
2.59547
2.58334
2.57073
2.55741
2.5437
2.53009
2.51684
2.5036
2.4898
2.47521
2.46007
2.44472
2.42942
2.41459
2.40063
2.38787
2.3764
2.36594
2.35568
2.34502
2.33401
2.32304
2.31207
2.30076
2.28966
2.27921
2.2694
2.26034
2.25215
2.24467
2.23724
2.22938
2.22172
2.21461
2.20785
2.2012
2.19418
2.18646
2.17854
2.17115
2.16445
2.15837
2.1526
2.14695
2.14201
2.13837
2.17623
2.26558
2.27249
2.34586
2.42709
2.49348
2.54334
2.58477
2.62646
2.65569
2.66708
2.67633
2.686
2.69345
2.69299
2.6895
2.68721
2.68825
2.69235
2.69649
2.69746
2.69502
2.69188
2.69041
2.69074
2.69178
2.69183
2.68983
2.68614
2.68244
2.67985
2.678
2.6753
2.67015
2.66219
2.65284
2.6439
2.63648
2.63061
2.62548
2.61995
2.61307
2.60413
2.59458
2.58571
2.57756
2.56877
2.55801
2.54596
2.53382
2.5225
2.51232
2.50295
2.49353
2.48276
2.47034
2.45704
2.4438
2.43087
2.41837
2.40614
2.39378
2.38102
2.36771
2.354
2.34028
2.32718
2.31532
2.30459
2.29389
2.28249
2.27084
2.25942
2.24824
2.23745
2.22829
2.22057
2.2138
2.20716
2.2
2.1928
2.18574
2.17881
2.17216
2.16653
2.16198
2.15774
2.15275
2.14586
2.13731
2.12952
2.12429
2.12052
2.11686
2.11265
2.1101
2.20879
2.27772
2.20993
2.25318
2.33195
2.3849
2.43297
2.47593
2.51575
2.5523
2.5662
2.56576
2.57109
2.57972
2.58936
2.59375
2.5925
2.58969
2.58778
2.58831
2.5901
2.58967
2.58532
2.57794
2.5708
2.56533
2.56111
2.55666
2.55063
2.54295
2.53474
2.52732
2.52149
2.51644
2.5106
2.50302
2.49437
2.48631
2.47984
2.47481
2.47078
2.46703
2.46147
2.45331
2.44517
2.43822
2.43287
2.42698
2.41857
2.40889
2.39875
2.38919
2.38063
2.37295
2.36497
2.35576
2.34535
2.33437
2.32371
2.31314
2.30256
2.29201
2.2818
2.27148
2.26051
2.24906
2.23736
2.22674
2.21745
2.20847
2.19961
2.19089
2.18217
2.17339
2.1644
2.15504
2.14621
2.13908
2.13307
2.12765
2.12264
2.11736
2.1112
2.10396
2.09675
2.09108
2.08692
2.08334
2.07942
2.07477
2.0701
2.06644
2.06434
2.06365
2.0638
2.06594
2.25269
2.29873
2.22501
2.23351
2.26028
2.26427
2.28529
2.31661
2.34506
2.37626
2.40457
2.41566
2.41845
2.4258
2.43888
2.45217
2.45584
2.45493
2.45131
2.44637
2.44342
2.44207
2.43917
2.43207
2.42161
2.41194
2.40536
2.40116
2.39711
2.39116
2.38298
2.37426
2.36711
2.362
2.35794
2.35357
2.34818
2.34233
2.3366
2.33098
2.32557
2.3215
2.31825
2.31284
2.30663
2.30062
2.29407
2.2871
2.28043
2.27462
2.26858
2.26249
2.25691
2.25001
2.24163
2.23366
2.22654
2.21963
2.21239
2.20437
2.19517
2.18611
2.17842
2.17104
2.16333
2.15504
2.14603
2.13656
2.12716
2.11853
2.11088
2.10397
2.09757
2.09135
2.08469
2.07693
2.06841
2.06059
2.05432
2.0494
2.0451
2.04079
2.03597
2.03047
2.02433
2.01808
2.01177
2.0057
2.00072
1.99696
1.99494
1.99378
1.99344
1.99443
1.99619
2.00369
2.2951
2.31961
2.25449
2.24009
2.26256
2.25677
2.24728
2.24465
2.24262
2.24581
2.25997
2.2688
2.26895
2.26776
2.27492
2.28843
2.29585
2.29554
2.29316
2.28953
2.28796
2.28911
2.28936
2.28517
2.27674
2.26888
2.2637
2.2618
2.2608
2.25763
2.2513
2.24443
2.23895
2.23567
2.23422
2.23256
2.22907
2.22426
2.21954
2.2152
2.21163
2.20968
2.20876
2.20489
2.20024
2.1958
2.19059
2.18488
2.18029
2.1777
2.17552
2.17132
2.16483
2.15677
2.14832
2.14209
2.13809
2.13442
2.13017
2.12454
2.11689
2.10847
2.10132
2.09541
2.08968
2.08338
2.07612
2.06786
2.05913
2.05089
2.04368
2.03731
2.03144
2.02572
2.01985
2.01318
2.00518
1.99688
1.99016
1.98493
1.98041
1.97584
1.97103
1.96595
1.96052
1.95455
1.94811
1.94226
1.93691
1.93261
1.93113
1.93141
1.9328
1.93588
1.93946
1.95167
2.33428
2.34013
2.28353
2.26222
2.27686
2.26867
2.2564
2.24448
2.22529
2.20469
2.19631
2.19224
2.18454
2.17666
2.17716
2.18505
2.19239
2.19266
2.18774
2.18588
2.18642
2.18851
2.18814
2.18413
2.17948
2.17641
2.17511
2.17569
2.17645
2.17488
2.17018
2.16614
2.16456
2.16495
2.16725
2.16793
2.16603
2.16264
2.16021
2.15938
2.16044
2.16298
2.16146
2.15598
2.15056
2.14706
2.14518
2.1439
2.14038
2.13463
2.12828
2.12154
2.11364
2.10702
2.1026
2.09917
2.09534
2.0906
2.08484
2.07807
2.07056
2.063
2.05622
2.05029
2.04447
2.0382
2.0312
2.02344
2.01525
2.0074
2.00085
1.99536
1.99006
1.98457
1.97851
1.97109
1.96205
1.95334
1.94707
1.9423
1.93773
1.93279
1.92715
1.92095
1.91464
1.90876
1.9031
1.89787
1.8929
1.88759
1.88563
1.88637
1.88893
1.89693
1.90582
1.92456
2.36822
2.35702
2.3059
2.29193
2.30198
2.29007
2.27213
2.25249
2.22629
2.19852
2.18205
2.17332
2.16184
2.14754
2.14136
2.14396
2.14961
2.14955
2.14374
2.1409
2.14203
2.14351
2.14332
2.14158
2.14016
2.13832
2.13638
2.13673
2.13777
2.13729
2.13528
2.1345
2.13492
2.13639
2.13784
2.13743
2.13525
2.13302
2.13222
2.13247
2.13402
2.13271
2.12744
2.12225
2.11945
2.11861
2.11882
2.11557
2.1093
2.10002
2.0904
2.08472
2.08085
2.0777
2.07381
2.06898
2.0629
2.05687
2.05122
2.04542
2.03929
2.03252
2.02511
2.01811
2.01209
2.00639
2.00043
1.994
1.98712
1.97993
1.973
1.96679
1.96098
1.95508
1.94872
1.94148
1.93311
1.92515
1.91917
1.91434
1.90981
1.90503
1.89913
1.89173
1.88456
1.87918
1.8748
1.87133
1.86763
1.86292
1.8621
1.86327
1.86894
1.88209
1.89534
1.9161
2.39343
2.37405
2.33035
2.32545
2.33013
2.31122
2.28725
2.26143
2.23006
2.20054
2.18433
2.1751
2.16241
2.1444
2.13253
2.13156
2.13412
2.13247
2.12677
2.12318
2.12328
2.12481
2.12604
2.12553
2.12341
2.11987
2.11708
2.11664
2.11684
2.11655
2.11505
2.11358
2.11268
2.11261
2.11289
2.11204
2.10931
2.10712
2.10678
2.10743
2.10871
2.10584
2.09903
2.09324
2.0912
2.09184
2.09188
2.08744
2.08039
2.07064
2.06339
2.05962
2.05799
2.05554
2.0513
2.04565
2.03761
2.03142
2.02684
2.02209
2.01691
2.0109
2.00347
1.99582
1.98999
1.98486
1.97954
1.97397
1.96795
1.961
1.95334
1.9461
1.9398
1.93392
1.92773
1.92093
1.91358
1.90624
1.90008
1.89565
1.89187
1.88768
1.88216
1.87432
1.86598
1.86041
1.85786
1.85658
1.85523
1.85529
1.85584
1.85936
1.8691
1.88508
1.89842
1.914
2.41039
2.3892
2.35675
2.35504
2.35417
2.33015
2.3024
2.27456
2.2419
2.21084
2.19305
2.18228
2.16775
2.14788
2.13189
2.12827
2.12898
2.12617
2.12008
2.11372
2.11201
2.11386
2.1155
2.11417
2.10985
2.10513
2.1021
2.10085
2.10093
2.09952
2.09661
2.0937
2.09113
2.08895
2.08841
2.08792
2.08539
2.08255
2.08124
2.08164
2.08218
2.08067
2.076
2.06989
2.06683
2.06735
2.06715
2.06333
2.05728
2.04872
2.0435
2.04114
2.04061
2.0373
2.03253
2.02602
2.01793
2.01336
2.00963
2.00531
2.00027
1.9942
1.98661
1.97953
1.97458
1.96983
1.96467
1.95925
1.9534
1.94649
1.93843
1.9305
1.92363
1.91767
1.91206
1.90632
1.90017
1.89327
1.88578
1.88067
1.87766
1.8744
1.87041
1.86471
1.85618
1.8499
1.84802
1.84819
1.85143
1.85534
1.86102
1.86953
1.88415
1.89618
1.90279
1.90931
2.4204
2.40167
2.38185
2.37896
2.37203
2.34396
2.31637
2.2907
2.26005
2.22851
2.20867
2.19606
2.17999
2.1583
2.13852
2.13171
2.13052
2.12626
2.11846
2.11023
2.10693
2.10795
2.10845
2.10517
2.09913
2.09373
2.09021
2.08861
2.08854
2.08518
2.08075
2.07618
2.07249
2.06947
2.06836
2.06793
2.06489
2.06083
2.05764
2.05664
2.05707
2.05675
2.05395
2.04959
2.04553
2.0441
2.04335
2.04046
2.03538
2.02924
2.02605
2.02535
2.02421
2.01966
2.0142
2.00683
2.00053
1.99741
1.99475
1.9912
1.98655
1.98019
1.9723
1.96605
1.96154
1.95706
1.95211
1.94653
1.94012
1.93263
1.92468
1.91748
1.91115
1.90517
1.89941
1.89411
1.88902
1.8833
1.87624
1.86907
1.86485
1.8622
1.85971
1.85657
1.85171
1.84591
1.84439
1.84606
1.85178
1.86102
1.87294
1.88575
1.90115
1.90367
1.90441
1.9032
2.42303
2.40838
2.3985
2.39368
2.38172
2.35293
2.32809
2.30542
2.27765
2.24695
2.22622
2.21296
2.19665
2.17421
2.1524
2.14272
2.13858
2.13212
2.12198
2.11107
2.10557
2.1051
2.10398
2.09862
2.09094
2.0842
2.07985
2.0779
2.07679
2.07177
2.06618
2.05983
2.05495
2.0509
2.04892
2.04818
2.0449
2.04055
2.03574
2.03282
2.03299
2.03286
2.03092
2.02869
2.02528
2.02191
2.02043
2.01842
2.01451
2.01034
2.00871
2.00812
2.00464
1.9997
1.99354
1.98703
1.98401
1.98248
1.98035
1.97673
1.97171
1.96451
1.95687
1.95173
1.94753
1.94317
1.93813
1.9319
1.92433
1.91618
1.90931
1.9042
1.89959
1.89449
1.88864
1.88271
1.87736
1.87235
1.86704
1.86049
1.85359
1.8501
1.84833
1.84718
1.84583
1.84446
1.84564
1.85073
1.85792
1.8714
1.88253
1.89476
1.90487
1.90473
1.90175
1.89602
2.42359
2.41031
2.40409
2.39766
2.38324
2.35653
2.33474
2.31435
2.28917
2.26062
2.24063
2.22778
2.2119
2.18943
2.16658
2.15535
2.14907
2.14049
2.12756
2.11256
2.10502
2.10242
2.09979
2.09298
2.08325
2.07466
2.06912
2.06584
2.0626
2.05686
2.05055
2.04269
2.03655
2.03179
2.02855
2.02649
2.02282
2.0192
2.01478
2.01047
2.01028
2.00912
2.00597
2.00461
2.00213
1.99944
1.99837
1.99685
1.99323
1.98898
1.98726
1.98561
1.98164
1.97682
1.971
1.96667
1.9651
1.96389
1.96145
1.95779
1.95243
1.94455
1.93724
1.93294
1.92973
1.92633
1.92182
1.91474
1.90456
1.89693
1.89278
1.8895
1.8863
1.88255
1.87753
1.87099
1.86408
1.85868
1.85455
1.85031
1.84488
1.83911
1.83684
1.83679
1.83955
1.8424
1.85039
1.85959
1.87061
1.88153
1.88672
1.89347
1.89853
1.89861
1.89606
1.88872
2.42534
2.41317
2.40675
2.397
2.38008
2.35532
2.33579
2.31662
2.2937
2.26812
2.24937
2.23673
2.2215
2.19937
2.17662
2.16467
2.15629
2.14538
2.13058
2.11339
2.10369
2.0985
2.09392
2.08578
2.07396
2.06265
2.05565
2.05086
2.04593
2.03972
2.03263
2.02374
2.01618
2.01067
2.00669
2.00346
1.99932
1.99594
1.99163
1.98784
1.9866
1.98282
1.97865
1.97771
1.97589
1.97381
1.97382
1.97299
1.96926
1.96422
1.96142
1.95975
1.95745
1.95385
1.94963
1.94619
1.94425
1.94221
1.9394
1.93586
1.93074
1.92347
1.916
1.91181
1.90964
1.90706
1.90323
1.89637
1.88624
1.87938
1.8759
1.87298
1.87054
1.86793
1.86422
1.85812
1.84961
1.84342
1.84027
1.83795
1.83523
1.83108
1.82908
1.83088
1.83581
1.84429
1.85861
1.87013
1.88216
1.88544
1.88616
1.88789
1.8892
1.89035
1.88855
1.88162
2.43494
2.41874
2.40837
2.39593
2.37727
2.35348
2.33487
2.31572
2.29439
2.27142
2.25299
2.23944
2.22444
2.20306
2.18089
2.16822
2.1583
2.14538
2.12888
2.11116
2.09992
2.09223
2.08494
2.07541
2.06264
2.04938
2.04065
2.03409
2.02764
2.02092
2.0138
2.00533
1.99697
1.99085
1.9868
1.98225
1.97776
1.97458
1.96997
1.96608
1.96487
1.96106
1.95609
1.95445
1.95279
1.95141
1.95218
1.95211
1.94889
1.94418
1.93957
1.9377
1.93693
1.93624
1.9327
1.92686
1.92377
1.92148
1.91848
1.91456
1.91034
1.90575
1.90061
1.89511
1.88925
1.88555
1.88298
1.87901
1.87285
1.86668
1.86319
1.86123
1.85888
1.85558
1.85155
1.84523
1.83645
1.83111
1.8294
1.82858
1.82812
1.82714
1.82698
1.83263
1.84022
1.85521
1.8689
1.87983
1.88659
1.88543
1.8845
1.88353
1.88268
1.8831
1.88185
1.87629
2.46319
2.44011
2.42223
2.40303
2.37976
2.35605
2.33742
2.31683
2.29474
2.27282
2.25369
2.23839
2.22375
2.20441
2.18281
2.16857
2.15763
2.14356
2.12577
2.1079
2.09572
2.08584
2.0759
2.06496
2.05221
2.03914
2.0285
2.02056
2.01324
2.0061
1.99944
1.9925
1.98514
1.97929
1.97431
1.96844
1.96269
1.95851
1.95408
1.95135
1.94989
1.94686
1.94158
1.93822
1.93504
1.93261
1.93334
1.93484
1.93379
1.93054
1.92603
1.92393
1.92447
1.92484
1.92119
1.91635
1.91262
1.90938
1.90609
1.90138
1.89737
1.89553
1.89277
1.88804
1.88161
1.87461
1.8706
1.86861
1.86636
1.86245
1.8579
1.85292
1.84746
1.84273
1.83839
1.83389
1.82919
1.82622
1.82567
1.82636
1.82789
1.82889
1.83488
1.84417
1.85584
1.87099
1.87787
1.88479
1.88807
1.88724
1.88552
1.88324
1.88133
1.88018
1.87886
1.8744
2.50725
2.47947
2.45426
2.42794
2.39941
2.37276
2.35019
2.32607
2.3029
2.28078
2.2602
2.24411
2.22823
2.20772
2.18579
2.17012
2.15771
2.14305
2.12531
2.10734
2.09464
2.08376
2.07225
2.05985
2.04683
2.03491
2.02423
2.01486
2.00676
1.99883
1.99171
1.98624
1.98109
1.97603
1.97081
1.96465
1.95832
1.95274
1.9474
1.94393
1.94176
1.93863
1.93478
1.93198
1.92833
1.92375
1.92267
1.92398
1.92341
1.92257
1.92095
1.91967
1.92107
1.92164
1.91846
1.91373
1.90907
1.90508
1.9022
1.89921
1.89519
1.8906
1.8879
1.88587
1.88192
1.87483
1.86801
1.8646
1.86224
1.85958
1.85584
1.85061
1.84463
1.83946
1.83519
1.83211
1.8303
1.82915
1.82841
1.83118
1.83489
1.84242
1.8552
1.86606
1.87869
1.88406
1.88693
1.8916
1.89437
1.89424
1.89267
1.88813
1.88517
1.88339
1.88147
1.87656
2.5538
2.52583
2.49774
2.46874
2.43876
2.40907
2.38242
2.35575
2.3277
2.30377
2.283
2.26122
2.24258
2.22399
2.20247
2.18502
2.17134
2.15727
2.13946
2.11798
2.10244
2.09132
2.08003
2.06898
2.05746
2.04426
2.03244
2.02271
2.01472
2.00836
2.00256
1.99597
1.9885
1.9807
1.9748
1.96999
1.96509
1.95886
1.95183
1.94573
1.94103
1.93599
1.93269
1.93097
1.92799
1.92296
1.92065
1.92137
1.92013
1.92005
1.9214
1.92056
1.92158
1.92218
1.92046
1.91631
1.91112
1.90825
1.90645
1.90475
1.90085
1.89623
1.89395
1.89135
1.88737
1.88206
1.87554
1.87043
1.86699
1.86324
1.85873
1.85341
1.84765
1.84357
1.84089
1.83906
1.83773
1.83604
1.83813
1.84459
1.85303
1.86751
1.88056
1.89139
1.89704
1.89808
1.90012
1.90318
1.9047
1.9036
1.90084
1.89521
1.88958
1.88616
1.88461
1.88053
2.59128
2.56938
2.54502
2.51735
2.48757
2.45775
2.42988
2.40219
2.37119
2.34454
2.32221
2.29895
2.27647
2.25518
2.23377
2.21637
2.20128
2.18393
2.16402
2.14491
2.13059
2.11916
2.10781
2.09502
2.08012
2.06708
2.05832
2.05025
2.04202
2.03305
2.02213
2.01029
1.99951
1.99146
1.98562
1.98126
1.9773
1.97189
1.96382
1.95554
1.94856
1.94219
1.93882
1.93691
1.93358
1.92817
1.9247
1.9249
1.92409
1.92355
1.92664
1.9269
1.9255
1.92623
1.92606
1.92376
1.91861
1.91564
1.91508
1.91488
1.91172
1.90593
1.90256
1.90024
1.89693
1.89252
1.88676
1.87996
1.87468
1.87032
1.86564
1.86061
1.85575
1.85257
1.8504
1.85021
1.84952
1.85091
1.85909
1.86876
1.88223
1.89643
1.90719
1.91336
1.91449
1.91399
1.91481
1.91672
1.91697
1.91498
1.9116
1.90617
1.90006
1.89492
1.8923
1.88807
2.61873
2.60104
2.58039
2.557
2.53175
2.50571
2.479
2.45051
2.42106
2.39537
2.37256
2.34869
2.32337
2.30022
2.27929
2.26054
2.24348
2.22432
2.20239
2.18265
2.16773
2.1547
2.142
2.12803
2.11184
2.09676
2.08543
2.07657
2.06835
2.05945
2.04869
2.03592
2.0241
2.01546
2.00854
2.00221
1.9958
1.98842
1.97935
1.97068
1.96292
1.95646
1.95289
1.94999
1.94548
1.93916
1.9344
1.93369
1.93323
1.93196
1.93378
1.93464
1.93223
1.92987
1.9312
1.93131
1.92912
1.92577
1.92599
1.92623
1.92354
1.91753
1.91269
1.91001
1.90805
1.90526
1.90029
1.89339
1.88632
1.88143
1.87689
1.87311
1.87023
1.86876
1.86837
1.86933
1.87085
1.87828
1.89068
1.90223
1.91573
1.92444
1.93217
1.93628
1.9359
1.93397
1.93387
1.93342
1.93173
1.92955
1.92674
1.9229
1.91809
1.91276
1.90819
1.90187
2.63609
2.62077
2.60324
2.58402
2.56318
2.54064
2.51655
2.49037
2.46451
2.44094
2.41795
2.39311
2.36793
2.34597
2.32598
2.30526
2.28576
2.26537
2.24333
2.22417
2.20804
2.19272
2.17757
2.16176
2.14507
2.12997
2.1177
2.10708
2.09693
2.08608
2.0738
2.06096
2.04953
2.04002
2.03152
2.02346
2.01552
2.00648
1.9963
1.9873
1.97915
1.97289
1.96881
1.96471
1.95895
1.95208
1.94715
1.94487
1.94274
1.93989
1.93803
1.93846
1.93748
1.93422
1.93402
1.93672
1.93734
1.9357
1.93552
1.93545
1.93283
1.92732
1.9227
1.92008
1.9193
1.91852
1.91442
1.90843
1.90156
1.89672
1.89315
1.89147
1.89104
1.89131
1.893
1.89691
1.9037
1.91806
1.9293
1.9393
1.94874
1.95361
1.95779
1.95941
1.95833
1.95584
1.95414
1.9522
1.94992
1.94749
1.94495
1.94234
1.93919
1.9352
1.93067
1.9233
2.64359
2.62955
2.61433
2.59772
2.57933
2.55915
2.53783
2.51563
2.49421
2.47337
2.45132
2.4273
2.40386
2.38381
2.36357
2.34097
2.32
2.29986
2.27908
2.26029
2.24276
2.22534
2.20815
2.19129
2.17475
2.15946
2.14595
2.1335
2.12108
2.10804
2.09451
2.08149
2.06991
2.05954
2.04975
2.04015
2.03019
2.01858
2.00756
1.99948
1.99239
1.98678
1.98166
1.97497
1.96673
1.95987
1.9556
1.95259
1.94888
1.94434
1.93934
1.93836
1.93887
1.93812
1.93611
1.9374
1.94074
1.94091
1.94003
1.94012
1.93847
1.93403
1.93004
1.92871
1.92877
1.92893
1.92675
1.92244
1.91779
1.91445
1.91294
1.91346
1.91535
1.91858
1.92528
1.93424
1.94731
1.96191
1.96773
1.97519
1.97798
1.97918
1.98074
1.9827
1.98213
1.98053
1.97856
1.97579
1.97278
1.96979
1.96697
1.96421
1.96129
1.95779
1.95422
1.94783
2.64654
2.63291
2.61858
2.60338
2.58705
2.56942
2.55037
2.5306
2.51088
2.4907
2.46946
2.44722
2.42609
2.40716
2.38664
2.36433
2.34426
2.32574
2.30607
2.2871
2.26882
2.25038
2.2322
2.21462
2.1979
2.18233
2.16772
2.15351
2.13921
2.12471
2.11069
2.09784
2.08618
2.07518
2.06417
2.05251
2.03969
2.02682
2.01721
2.01022
2.00387
1.99754
1.99013
1.98076
1.97017
1.96339
1.95929
1.95578
1.95148
1.94624
1.93988
1.93586
1.93574
1.93722
1.93753
1.93677
1.93933
1.94074
1.93982
1.94055
1.94049
1.93882
1.93628
1.93608
1.93653
1.93688
1.93629
1.93442
1.93312
1.93351
1.93484
1.93758
1.94219
1.95096
1.96416
1.97553
1.99068
1.99868
2.00211
2.00517
2.00507
2.00391
2.00381
2.00562
2.00633
2.00488
2.00241
1.9986
1.99478
1.99164
1.9888
1.98595
1.98274
1.97846
1.97507
1.96984
2.64745
2.63391
2.61968
2.60468
2.58871
2.57173
2.55375
2.53541
2.51659
2.49693
2.47663
2.45611
2.43684
2.41882
2.39899
2.37821
2.35974
2.34254
2.3235
2.30415
2.28558
2.26714
2.24881
2.23113
2.21454
2.19881
2.18339
2.16792
2.15246
2.13743
2.12331
2.11023
2.0979
2.08597
2.07368
2.0605
2.04663
2.03454
2.02556
2.0174
2.00951
2.00107
1.99137
1.98016
1.96954
1.96254
1.95795
1.95396
1.94916
1.94318
1.93548
1.93018
1.92855
1.93009
1.93388
1.93453
1.93384
1.93599
1.93586
1.93649
1.93971
1.94096
1.9405
1.94007
1.94076
1.94147
1.94206
1.94355
1.94661
1.95049
1.95516
1.96216
1.97139
1.98584
1.99824
2.00904
2.02247
2.02796
2.03037
2.03051
2.02941
2.02635
2.02493
2.02502
2.02581
2.02465
2.02246
2.01893
2.01449
2.01079
2.00774
2.00462
2.00088
1.99606
1.99263
1.98789
2.64911
2.63559
2.62146
2.60655
2.59088
2.57439
2.55717
2.53947
2.52097
2.50189
2.48252
2.46309
2.44463
2.42681
2.40756
2.38805
2.37059
2.35391
2.33495
2.31511
2.2963
2.27834
2.26069
2.24328
2.22622
2.20947
2.19289
2.1766
2.16079
2.14562
2.13129
2.11786
2.10491
2.09169
2.07787
2.0639
2.05097
2.03964
2.02871
2.01798
2.00776
1.99727
1.98602
1.97487
1.96568
1.95802
1.95146
1.94586
1.94027
1.93362
1.92576
1.92139
1.91921
1.91893
1.92242
1.92563
1.92552
1.92589
1.92691
1.92959
1.93512
1.94011
1.94106
1.94071
1.94144
1.94277
1.9452
1.94977
1.95652
1.96391
1.97348
1.98464
1.99725
2.01164
2.02062
2.03185
2.04231
2.04811
2.04925
2.04908
2.04713
2.04318
2.04082
2.03967
2.03911
2.03799
2.03594
2.03264
2.02801
2.02358
2.01983
2.01617
2.01225
2.00771
2.00407
1.99888
2.65166
2.63819
2.62415
2.60932
2.59391
2.57785
2.56126
2.54413
2.52633
2.50819
2.48965
2.47092
2.45288
2.43505
2.41602
2.39715
2.38021
2.36352
2.34414
2.32385
2.30513
2.28751
2.27016
2.25287
2.23512
2.21682
2.19891
2.18206
2.16622
2.15122
2.13689
2.12276
2.10793
2.0926
2.07804
2.06477
2.05241
2.04024
2.02796
2.01542
2.00264
1.99015
1.97869
1.96883
1.96039
1.95244
1.94439
1.93582
1.92786
1.92153
1.91707
1.91438
1.91171
1.90864
1.90838
1.91193
1.91464
1.91626
1.91698
1.92033
1.92729
1.93458
1.93702
1.9375
1.93896
1.94231
1.94699
1.95381
1.96327
1.97593
1.98913
2.00123
2.01608
2.02656
2.03494
2.04394
2.05042
2.05549
2.0573
2.05761
2.05615
2.05269
2.04951
2.04761
2.04614
2.04455
2.04207
2.03816
2.03335
2.02928
2.02586
2.02235
2.01851
2.01419
2.01014
2.00381
2.65413
2.64062
2.62669
2.61211
2.59706
2.5815
2.56553
2.54914
2.53241
2.51534
2.49758
2.47974
2.4624
2.4444
2.42519
2.40645
2.38952
2.37223
2.35228
2.33224
2.31401
2.29668
2.27915
2.26089
2.24166
2.22227
2.204
2.18715
2.17141
2.15639
2.14125
2.12499
2.10807
2.09197
2.07738
2.06416
2.05168
2.03921
2.02593
2.01164
1.99718
1.98399
1.97287
1.96356
1.95546
1.94793
1.93962
1.92906
1.91829
1.91292
1.91006
1.90865
1.90605
1.90225
1.89884
1.89929
1.90309
1.90797
1.90966
1.91123
1.91764
1.92535
1.92954
1.93182
1.93544
1.94072
1.94779
1.95669
1.9689
1.98469
1.99974
2.01687
2.03081
2.03681
2.04249
2.04748
2.05083
2.05444
2.0575
2.05893
2.05797
2.05611
2.05437
2.05234
2.05013
2.04754
2.04428
2.04068
2.03738
2.03443
2.03139
2.02785
2.02367
2.01911
2.01503
2.00843
2.65574
2.64209
2.62815
2.61369
2.5989
2.58379
2.56847
2.55302
2.53757
2.52191
2.50586
2.48956
2.47247
2.45372
2.43431
2.41563
2.39835
2.37995
2.35965
2.34044
2.32248
2.30435
2.28569
2.26619
2.2463
2.22721
2.20952
2.19292
2.17687
2.16047
2.14307
2.12515
2.10782
2.09183
2.07731
2.06378
2.05071
2.03767
2.02394
2.00917
1.99433
1.9811
1.97023
1.96087
1.95251
1.94481
1.9363
1.92603
1.91494
1.90707
1.90337
1.90192
1.90009
1.89711
1.89279
1.88995
1.89121
1.89688
1.90149
1.90336
1.90843
1.91517
1.92098
1.9277
1.93535
1.94375
1.95344
1.96434
1.97755
1.99097
2.00699
2.02626
2.03812
2.04364
2.04718
2.0481
2.04995
2.05199
2.05426
2.05645
2.05839
2.05888
2.05788
2.05616
2.05348
2.04934
2.04552
2.04298
2.04058
2.03795
2.03503
2.0315
2.02709
2.02229
2.0183
2.01196
2.65653
2.64236
2.62808
2.61363
2.59915
2.58459
2.57006
2.5557
2.54151
2.52727
2.51279
2.49755
2.48035
2.46121
2.44184
2.42333
2.40557
2.38612
2.36598
2.34744
2.32935
2.31031
2.29066
2.27055
2.25087
2.23236
2.21487
2.19776
2.18036
2.16226
2.14377
2.12563
2.10854
2.09273
2.07802
2.06408
2.0505
2.03681
2.02283
2.00847
1.99404
1.98077
1.96943
1.95994
1.95156
1.94335
1.93436
1.92425
1.91429
1.9059
1.90013
1.89678
1.89336
1.88973
1.88573
1.88196
1.88143
1.88494
1.89079
1.89385
1.89889
1.90635
1.91453
1.92446
1.936
1.94863
1.96043
1.9728
1.98634
2.00055
2.01751
2.03253
2.0406
2.0456
2.04834
2.05004
2.05101
2.05204
2.05338
2.05512
2.05802
2.06053
2.05991
2.05838
2.0555
2.05106
2.04704
2.04449
2.04252
2.04029
2.03764
2.03429
2.0296
2.02461
2.02114
2.01552
2.65679
2.64229
2.62788
2.61347
2.59904
2.58467
2.57065
2.55716
2.54409
2.53103
2.5175
2.50263
2.48578
2.46741
2.44844
2.42966
2.41054
2.39057
2.37102
2.35266
2.33424
2.31466
2.29453
2.2745
2.25526
2.23687
2.21889
2.20082
2.18233
2.16349
2.14473
2.12682
2.11022
2.09479
2.08012
2.06574
2.05114
2.03609
2.02126
2.00772
1.99539
1.98404
1.97318
1.96254
1.95159
1.94078
1.93125
1.92288
1.91481
1.90695
1.89898
1.89162
1.88589
1.88103
1.87706
1.87396
1.87196
1.87319
1.87723
1.88214
1.88881
1.89819
1.90938
1.92215
1.93653
1.95172
1.96753
1.98347
1.99862
2.01272
2.02633
2.03481
2.03996
2.04527
2.05088
2.05359
2.05481
2.05445
2.05418
2.05511
2.05655
2.05925
2.06023
2.05894
2.05644
2.05229
2.04892
2.04658
2.04444
2.04204
2.03909
2.03544
2.0309
2.0261
2.02219
2.01586
2.65672
2.64197
2.62738
2.61288
2.59851
2.58446
2.57103
2.55822
2.5458
2.53328
2.52001
2.50522
2.48868
2.47084
2.45225
2.43299
2.41302
2.39287
2.37397
2.35593
2.33736
2.31767
2.29767
2.27796
2.25872
2.23977
2.22088
2.20192
2.18296
2.16421
2.14598
2.12873
2.11263
2.09734
2.08228
2.06692
2.05117
2.0357
2.02113
2.00777
1.99707
1.98823
1.97907
1.96763
1.9544
1.94136
1.93092
1.92323
1.9162
1.90845
1.89947
1.88962
1.88054
1.8742
1.87021
1.86708
1.86402
1.86366
1.86556
1.87013
1.87835
1.89038
1.90482
1.92033
1.93666
1.95424
1.97215
1.99023
2.00879
2.02277
2.02922
2.03386
2.03848
2.04361
2.05045
2.05631
2.0585
2.05883
2.05705
2.05567
2.05596
2.05681
2.05838
2.05811
2.05665
2.05443
2.05172
2.04862
2.04528
2.04183
2.03822
2.03451
2.03087
2.02672
2.02259
2.01537
2.65705
2.6422
2.62745
2.61283
2.59854
2.58476
2.57165
2.55909
2.54676
2.5342
2.52084
2.50636
2.49064
2.47359
2.455
2.43483
2.41424
2.39446
2.37597
2.3578
2.33873
2.31882
2.2992
2.27983
2.26054
2.24112
2.22148
2.20175
2.18231
2.1637
2.14644
2.13041
2.11508
2.09987
2.08425
2.06779
2.05061
2.03405
2.02032
2.00979
2.00045
1.99036
1.97856
1.96577
1.95251
1.93987
1.92942
1.92077
1.91295
1.90546
1.8971
1.88669
1.8761
1.86927
1.86507
1.86149
1.85765
1.85636
1.85742
1.86192
1.8707
1.88358
1.89978
1.91761
1.93674
1.9564
1.97649
1.9973
2.01725
2.02816
2.03414
2.03799
2.0415
2.04554
2.05232
2.05985
2.06218
2.06265
2.06095
2.0572
2.05553
2.05523
2.05568
2.0577
2.0572
2.05572
2.05322
2.04934
2.0449
2.04088
2.03723
2.0337
2.03006
2.02591
2.02173
2.01424
)
;

boundaryField
{
    inlet
    {
        type            fixedValue;
        value           uniform 1;
    }
    outlet
    {
        type            inletOutlet;
        inletValue      uniform 1;
        value           nonuniform List<scalar> 
32
(
2.14796
2.13867
2.10981
2.06582
2.00384
1.95155
1.92427
1.91596
1.91413
1.90947
1.90314
1.89579
1.88819
1.88124
1.8763
1.87462
1.8766
1.88046
1.88806
1.90169
1.92313
1.94792
1.97017
1.98819
1.99891
2.00376
2.00845
2.0121
2.01581
2.01589
2.01512
2.01394
)
;
    }
    bottom
    {
        type            symmetryPlane;
    }
    top
    {
        type            symmetryPlane;
    }
    obstacle
    {
        type            zeroGradient;
    }
    defaultFaces
    {
        type            empty;
    }
}


// ************************************************************************* //
