/*--------------------------------*- C++ -*----------------------------------*\
  =========                 |
  \\      /  F ield         | OpenFOAM: The Open Source CFD Toolbox
   \\    /   O peration     | Website:  https://openfoam.org
    \\  /    A nd           | Version:  7
     \\/     M anipulation  |
\*---------------------------------------------------------------------------*/
FoamFile
{
    version     2.0;
    format      ascii;
    class       volVectorField;
    location    "16";
    object      U;
}
// * * * * * * * * * * * * * * * * * * * * * * * * * * * * * * * * * * * * * //

dimensions      [0 1 -1 0 0 0 0];

internalField   nonuniform List<vector> 
4032
(
(3 -1.9719e-16 0)
(3 -3.85586e-16 0)
(3 -3.86129e-16 0)
(3 2.15866e-16 0)
(3 3.34575e-16 0)
(3 5.15182e-16 0)
(3 6.25855e-16 0)
(3 8.23982e-16 0)
(3 7.45152e-16 0)
(3 5.07295e-16 0)
(3 5.73094e-16 0)
(2.98433 -0.00233975 0)
(1.07592 0.0174148 0)
(0.719238 0.016392 0)
(0.668884 0.0214113 0)
(0.611997 0.023735 0)
(0.553538 0.0256907 0)
(0.492378 0.0276264 0)
(0.428366 0.0296719 0)
(0.361005 0.0319066 0)
(0.290025 0.0342469 0)
(0.214311 0.037412 0)
(0.133099 0.0397075 0)
(0.0493199 0.0445572 0)
(3 -1.66046e-16 0)
(3 2.13813e-17 0)
(3 4.14407e-16 0)
(3 6.88935e-16 0)
(3 3.1642e-16 0)
(3 3.55803e-16 0)
(3 2.91914e-16 0)
(3 5.42631e-16 0)
(3 3.78057e-16 0)
(3 7.95684e-17 0)
(3 -8.2098e-17 0)
(2.99887 0.00122885 0)
(1.09789 0.0722334 0)
(0.716607 0.0613912 0)
(0.661754 0.0685506 0)
(0.603707 0.0745177 0)
(0.544229 0.079724 0)
(0.482565 0.0855137 0)
(0.418241 0.0918896 0)
(0.350762 0.0990045 0)
(0.279921 0.106252 0)
(0.205236 0.115906 0)
(0.125728 0.122709 0)
(0.0460244 0.135369 0)
(3 6.45623e-17 0)
(3 2.33276e-16 0)
(3 4.50731e-16 0)
(3 3.52951e-16 0)
(3 2.00802e-16 0)
(3 4.29749e-16 0)
(3 2.30955e-16 0)
(3 -3.30764e-16 0)
(3 -4.89782e-16 0)
(3 -6.74307e-16 0)
(3 -1.23594e-15 0)
(3.00005 4.21967e-06 0)
(1.16314 0.124739 0)
(0.726701 0.105785 0)
(0.668396 0.116255 0)
(0.61014 0.12567 0)
(0.550414 0.13403 0)
(0.489083 0.143511 0)
(0.42514 0.15403 0)
(0.357757 0.165901 0)
(0.286083 0.177734 0)
(0.210143 0.193398 0)
(0.127895 0.203817 0)
(0.0470308 0.221966 0)
(3 -5.30509e-17 0)
(3 -1.41978e-16 0)
(3 -3.97006e-16 0)
(3 -1.29463e-16 0)
(3 1.25535e-16 0)
(3 2.42022e-17 0)
(3 -1.18746e-16 0)
(3 -4.52339e-16 0)
(3 -8.56445e-16 0)
(3 -1.64223e-15 0)
(3 -1.80925e-15 0)
(3 -3.33862e-08 0)
(1.27026 0.176744 0)
(0.739601 0.153073 0)
(0.674587 0.16498 0)
(0.616803 0.177098 0)
(0.557548 0.188106 0)
(0.497344 0.201287 0)
(0.434099 0.216556 0)
(0.366513 0.234632 0)
(0.293222 0.252534 0)
(0.215887 0.275492 0)
(0.131067 0.290736 0)
(0.0470403 0.312843 0)
(3 6.5499e-17 0)
(3 3.78292e-16 0)
(3 -1.25781e-16 0)
(3 -5.29616e-16 0)
(3 -5.89606e-16 0)
(3 -6.77702e-16 0)
(3 -8.79595e-16 0)
(3 -7.35211e-16 0)
(3 -7.30031e-16 0)
(3 -1.40082e-15 0)
(3 -6.26758e-16 0)
(3 -2.17431e-08 0)
(1.43193 0.228211 0)
(0.757861 0.205531 0)
(0.681741 0.214652 0)
(0.626286 0.227887 0)
(0.569774 0.240808 0)
(0.513267 0.257564 0)
(0.453791 0.277969 0)
(0.390228 0.303136 0)
(0.319394 0.327581 0)
(0.243055 0.358715 0)
(0.152034 0.382798 0)
(0.0576014 0.412768 0)
(3 -5.06158e-17 0)
(3 1.83202e-16 0)
(3 -1.15404e-16 0)
(3 -1.00916e-15 0)
(3 -1.53219e-15 0)
(3 -1.49702e-15 0)
(3 -1.36665e-15 0)
(3 -1.33067e-15 0)
(3 -9.59497e-16 0)
(3 -5.87404e-16 0)
(3 -9.20879e-18 0)
(3 -4.50167e-09 0)
(1.66678 0.277413 0)
(0.785217 0.266764 0)
(0.686646 0.264128 0)
(0.631333 0.276645 0)
(0.577164 0.290523 0)
(0.525752 0.310471 0)
(0.472407 0.335983 0)
(0.414902 0.369885 0)
(0.344842 0.405894 0)
(0.264603 0.452675 0)
(0.166556 0.495816 0)
(0.0566627 0.535488 0)
(3 -1.40341e-16 0)
(3 -5.15751e-16 0)
(3 -6.86748e-16 0)
(3 -1.37167e-15 0)
(3 -1.89014e-15 0)
(3 -1.72984e-15 0)
(3 -1.41222e-15 0)
(3 -1.05014e-15 0)
(3 -9.37554e-16 0)
(3 -5.3102e-16 0)
(3 -5.05113e-16 0)
(3 -4.9844e-10 0)
(1.99875 0.326519 0)
(0.827417 0.344748 0)
(0.696205 0.326289 0)
(0.642261 0.33137 0)
(0.590132 0.342279 0)
(0.542591 0.362463 0)
(0.494337 0.391271 0)
(0.446544 0.434344 0)
(0.387199 0.485235 0)
(0.322195 0.546738 0)
(0.233512 0.609393 0)
(0.101949 0.67952 0)
(3 2.14845e-16 0)
(3 -3.28988e-16 0)
(3 -3.74114e-16 0)
(3 7.31493e-17 0)
(3 -3.77722e-16 0)
(3 -4.43265e-16 0)
(3 -5.69888e-16 0)
(3 -4.50351e-16 0)
(3 -3.97402e-16 0)
(3 -1.61059e-16 0)
(3 -1.21741e-16 0)
(3 -2.1377e-11 0)
(2.48979 0.319494 0)
(0.931172 0.433367 0)
(0.763174 0.375866 0)
(0.707872 0.381978 0)
(0.647227 0.392463 0)
(0.593568 0.412598 0)
(0.543091 0.443522 0)
(0.498392 0.491078 0)
(0.45151 0.5521 0)
(0.393339 0.640622 0)
(0.281109 0.770964 0)
(0.155653 0.94902 0)
(3 2.88546e-16 0)
(3 7.44232e-16 0)
(3 7.94356e-16 0)
(3 1.36975e-15 0)
(3 8.74247e-16 0)
(3 1.17737e-16 0)
(3 -4.50061e-16 0)
(3 -8.31297e-16 0)
(3 -1.27422e-15 0)
(3 -8.46403e-16 0)
(3 1.27173e-16 0)
(3 -4.71537e-13 0)
(3.01344 0.100983 0)
(1.13468 0.452473 0)
(0.856477 0.409855 0)
(0.804502 0.429504 0)
(0.736361 0.445662 0)
(0.673798 0.464632 0)
(0.618568 0.494105 0)
(0.571124 0.542051 0)
(0.532557 0.616796 0)
(0.499325 0.743231 0)
(0.476492 0.928972 0)
(0.591594 1.24364 0)
(3 1.80952e-16 0)
(3 3.9399e-16 0)
(3 8.83388e-16 0)
(3 9.91917e-16 0)
(3 8.72159e-16 0)
(3 4.58465e-16 0)
(3 -1.80127e-16 0)
(3 -4.80004e-16 0)
(3 -4.92961e-16 0)
(3 -1.44505e-16 0)
(3 -9.56875e-17 0)
(3 -5.76663e-15 0)
(3.02473 0.00335478 0)
(1.31415 0.429598 0)
(0.876291 0.471284 0)
(0.833042 0.500473 0)
(0.779289 0.516018 0)
(0.728839 0.532736 0)
(0.685409 0.558491 0)
(0.645388 0.600703 0)
(0.627772 0.676562 0)
(0.628408 0.806548 0)
(0.698412 0.96321 0)
(0.970672 1.15347 0)
(3 -9.74973e-17 0)
(3 -2.01038e-16 0)
(3 9.71489e-17 0)
(3 5.00861e-16 0)
(3 3.65277e-16 0)
(3 6.25472e-16 0)
(3 5.20789e-16 0)
(3 6.4069e-16 0)
(3 9.73676e-16 0)
(3 4.16121e-16 0)
(3 1.60688e-16 0)
(3 -8.59882e-19 0)
(3.00045 -9.34735e-06 0)
(1.65943 0.46666 0)
(0.871186 0.507978 0)
(0.83193 0.537972 0)
(0.805802 0.563225 0)
(0.77868 0.581436 0)
(0.753492 0.607379 0)
(0.728509 0.643056 0)
(0.729846 0.709091 0)
(0.756469 0.817931 0)
(0.879105 0.942371 0)
(1.1595 1.06032 0)
(3 5.25525e-17 0)
(3 -6.3497e-16 0)
(3 -3.43774e-16 0)
(3 -1.63541e-16 0)
(3 2.2471e-16 0)
(3 1.11947e-16 0)
(3 -9.28267e-17 0)
(3 4.98126e-17 0)
(3 5.7097e-17 0)
(3 -6.7195e-18 0)
(3 -3.27493e-17 0)
(3 4.60114e-16 0)
(3.00002 -6.78048e-06 0)
(2.34485 0.453895 0)
(0.975542 0.592032 0)
(0.863577 0.549445 0)
(0.857067 0.577521 0)
(0.839817 0.609073 0)
(0.824993 0.642868 0)
(0.814646 0.677211 0)
(0.826414 0.733516 0)
(0.875751 0.816204 0)
(1.0134 0.906015 0)
(1.23327 0.969248 0)
(3 1.05472e-16 0)
(3 1.24546e-17 0)
(3 -2.31086e-16 0)
(3 -2.53512e-16 0)
(3 3.81722e-16 0)
(3 3.42624e-16 0)
(3 -5.52912e-17 0)
(3 -6.97066e-16 0)
(3 -7.95709e-16 0)
(3 -6.99233e-16 0)
(3 -4.34012e-16 0)
(3 -2.0632e-16 0)
(3 -1.52876e-06 0)
(3.08729 0.103772 0)
(1.24922 0.599247 0)
(0.947875 0.559262 0)
(0.932715 0.609005 0)
(0.910236 0.637871 0)
(0.89614 0.671266 0)
(0.896416 0.703539 0)
(0.914995 0.744009 0)
(0.974455 0.800473 0)
(1.10632 0.864562 0)
(1.29099 0.896251 0)
(3 -1.6264e-16 0)
(3 1.02662e-16 0)
(3 -1.47963e-16 0)
(3 1.6881e-16 0)
(3 2.81779e-16 0)
(3 7.04302e-16 0)
(3 7.22774e-16 0)
(3 3.17187e-16 0)
(3 1.58701e-16 0)
(3 -1.29886e-16 0)
(3 -5.78988e-16 0)
(3 -8.41738e-16 0)
(3 -1.44401e-07 0)
(3.02286 0.000675739 0)
(1.52048 0.582802 0)
(0.969902 0.647687 0)
(0.942156 0.653779 0)
(0.928571 0.670528 0)
(0.936571 0.695931 0)
(0.95328 0.72327 0)
(0.988615 0.754759 0)
(1.05432 0.787311 0)
(1.16432 0.821915 0)
(1.31484 0.828427 0)
(3 5.43799e-17 0)
(3 3.15024e-17 0)
(3 5.72695e-18 0)
(3 -3.14481e-17 0)
(3 5.80714e-16 0)
(3 6.34786e-16 0)
(3 6.69585e-16 0)
(3 1.1027e-15 0)
(3 1.41505e-15 0)
(3 1.32199e-15 0)
(3 1.05388e-15 0)
(3 -3.09093e-16 0)
(3 -4.36255e-09 0)
(3.00028 -7.74832e-06 0)
(2.25888 0.540272 0)
(1.06446 0.716943 0)
(0.975985 0.671811 0)
(0.96084 0.677455 0)
(0.969263 0.693881 0)
(0.993165 0.714978 0)
(1.03787 0.74087 0)
(1.10861 0.767487 0)
(1.20018 0.779035 0)
(1.31729 0.764725 0)
(3 1.53152e-16 0)
(3 1.32124e-16 0)
(3 3.33681e-16 0)
(3 8.22366e-17 0)
(3 1.68341e-16 0)
(3 2.73298e-17 0)
(3 9.74298e-16 0)
(3 1.04973e-15 0)
(3 9.75057e-16 0)
(3 9.68176e-16 0)
(3 1.357e-15 0)
(3 1.31151e-15 0)
(3 -1.05496e-11 0)
(3.00003 -1.2437e-05 0)
(3.06569 0.115314 0)
(1.37516 0.700633 0)
(1.05492 0.696508 0)
(1.03049 0.686572 0)
(1.01835 0.697793 0)
(1.03262 0.70939 0)
(1.07166 0.724131 0)
(1.13649 0.733786 0)
(1.2093 0.724119 0)
(1.29673 0.69984 0)
(3 -3.41669e-17 0)
(3 3.38588e-16 0)
(3 5.30259e-16 0)
(3 -3.37644e-17 0)
(3 -3.93994e-16 0)
(3 -5.58793e-16 0)
(3 -2.17292e-16 0)
(3 2.75915e-16 0)
(3 2.22367e-16 0)
(3 2.77462e-16 0)
(3 4.69535e-16 0)
(3 1.02627e-15 0)
(3 -9.84687e-15 0)
(3 -2.68568e-06 0)
(3.02027 0.00116751 0)
(1.77123 0.670689 0)
(1.0727 0.755583 0)
(1.05095 0.732628 0)
(1.05457 0.722175 0)
(1.06454 0.709295 0)
(1.09559 0.697266 0)
(1.15194 0.690242 0)
(1.20853 0.67074 0)
(1.27507 0.645204 0)
(3 6.87168e-17 0)
(3 -1.35645e-16 0)
(3 -2.52575e-16 0)
(3 6.93936e-17 0)
(3 1.68727e-16 0)
(3 -1.47055e-16 0)
(3 -3.02686e-16 0)
(3 -3.32044e-16 0)
(3 -2.36478e-16 0)
(3 3.08778e-18 0)
(3 -6.45282e-16 0)
(3 -4.51449e-16 0)
(3 -7.30736e-17 0)
(3 -2.25924e-07 0)
(3.0002 4.95973e-06 0)
(2.73407 0.385632 0)
(1.21812 0.763584 0)
(1.0829 0.715476 0)
(1.0937 0.705632 0)
(1.09874 0.688014 0)
(1.12428 0.667813 0)
(1.16874 0.651038 0)
(1.21042 0.62653 0)
(1.26303 0.600548 0)
(3 2.27117e-17 0)
(3 -3.87946e-16 0)
(3 -5.49615e-16 0)
(3 -1.50162e-16 0)
(3 1.59982e-16 0)
(3 8.73417e-16 0)
(3 6.52672e-16 0)
(3 3.20871e-16 0)
(3 -5.05184e-16 0)
(3 -1.04961e-15 0)
(3 -1.1585e-15 0)
(3 -9.08404e-16 0)
(3 -7.44525e-17 0)
(3 -1.21597e-09 0)
(3.00002 -7.05918e-06 0)
(3.06903 0.0252355 0)
(1.50737 0.699048 0)
(1.08368 0.712482 0)
(1.08646 0.693274 0)
(1.10837 0.673892 0)
(1.14246 0.651259 0)
(1.18447 0.627963 0)
(1.21943 0.599131 0)
(1.26498 0.572229 0)
(3 6.74401e-17 0)
(3 3.63451e-16 0)
(3 3.45867e-16 0)
(3 -4.52211e-16 0)
(3 -8.90738e-16 0)
(3 -5.52152e-16 0)
(3 -6.66735e-16 0)
(3 -5.93133e-16 0)
(3 -1.13483e-15 0)
(3 -7.72939e-16 0)
(3 -3.30594e-16 0)
(3 -5.18704e-16 0)
(3 -5.59182e-16 0)
(3 -1.89075e-12 0)
(3 -1.51576e-06 0)
(3.00301 0.000175325 0)
(2.10505 0.619868 0)
(1.07945 0.718135 0)
(1.04671 0.646355 0)
(1.09721 0.628089 0)
(1.14423 0.610625 0)
(1.19153 0.593149 0)
(1.22937 0.568371 0)
(1.27318 0.542402 0)
(3 -1.15065e-16 0)
(3 -2.09918e-16 0)
(3 -3.72777e-16 0)
(3 -5.72769e-16 0)
(3 -6.53737e-16 0)
(3 -9.63877e-16 0)
(3 -7.12729e-16 0)
(3 -7.71414e-16 0)
(3 -1.00724e-15 0)
(3 -6.4694e-16 0)
(3 -6.6077e-16 0)
(3 -6.18951e-16 0)
(3 -8.07946e-16 0)
(3 -1.64494e-15 0)
(3 -1.23695e-07 0)
(3.00001 -2.76025e-08 0)
(2.95051 0.195713 0)
(1.2207 0.637043 0)
(1.0494 0.591558 0)
(1.10529 0.590118 0)
(1.14743 0.579176 0)
(1.19273 0.565709 0)
(1.23353 0.546543 0)
(1.27831 0.523879 0)
(3 -2.83815e-16 0)
(3 -8.34562e-16 0)
(3 -1.00048e-15 0)
(3 -6.24554e-16 0)
(3 -3.2816e-16 0)
(3 -4.56318e-16 0)
(3 -1.70259e-16 0)
(3 -3.31012e-16 0)
(3 1.57413e-16 0)
(3 8.67167e-17 0)
(3 -8.20241e-16 0)
(3 -9.99852e-16 0)
(3 -1.55887e-15 0)
(3 -2.27033e-15 0)
(3 -5.27836e-10 0)
(3 -3.06659e-07 0)
(3.03308 0.00693776 0)
(1.27914 0.497466 0)
(1.01614 0.543341 0)
(1.08187 0.543477 0)
(1.13143 0.540588 0)
(1.17811 0.528845 0)
(1.22146 0.513771 0)
(1.26698 0.494923 0)
(3 2.55671e-16 0)
(3 8.36021e-16 0)
(3 1.3343e-15 0)
(3 8.41168e-16 0)
(3 -1.68745e-16 0)
(3 -5.14565e-16 0)
(3 -7.22131e-16 0)
(3 -4.91769e-16 0)
(3 2.23854e-16 0)
(3 4.96508e-17 0)
(3 -4.71434e-16 0)
(3 -6.65868e-16 0)
(3 -8.95662e-16 0)
(3 -2.82947e-16 0)
(3 -8.86357e-13 0)
(3 -5.68462e-08 0)
(3.00054 6.24741e-06 0)
(1.46885 0.385407 0)
(0.928443 0.493224 0)
(0.997832 0.492879 0)
(1.07291 0.492099 0)
(1.13656 0.488225 0)
(1.19042 0.480082 0)
(1.23938 0.462662 0)
(3 9.05162e-17 0)
(3 7.36232e-16 0)
(3 1.25987e-15 0)
(3 8.64446e-16 0)
(3 5.54185e-16 0)
(3 8.51459e-16 0)
(3 5.72733e-16 0)
(3 1.79813e-16 0)
(3 -3.61585e-16 0)
(3 -5.09378e-16 0)
(3 -2.09135e-16 0)
(3 -1.3269e-16 0)
(3 7.34749e-16 0)
(3 2.136e-15 0)
(3 8.70412e-16 0)
(3 -2.57332e-09 0)
(3 -1.2797e-07 0)
(1.79343 0.355191 0)
(0.876154 0.43677 0)
(0.895583 0.427634 0)
(0.980779 0.429149 0)
(1.05855 0.436553 0)
(1.12967 0.435905 0)
(1.19031 0.427574 0)
(3 -5.08299e-16 0)
(3 -5.5062e-16 0)
(3 -4.57851e-16 0)
(3 -7.41359e-17 0)
(3 3.26686e-16 0)
(3 4.61163e-16 0)
(3 4.17869e-16 0)
(3 -1.89073e-16 0)
(3 -6.66555e-16 0)
(3 -6.24667e-16 0)
(3 -4.381e-16 0)
(3 -6.26403e-16 0)
(3 -2.24891e-16 0)
(3 4.81074e-16 0)
(3 9.89779e-16 0)
(3 -8.13611e-12 0)
(3 -1.97293e-07 0)
(2.18446 0.348933 0)
(0.899869 0.401698 0)
(0.854248 0.368272 0)
(0.917461 0.367778 0)
(0.980235 0.377395 0)
(1.05205 0.382382 0)
(1.12185 0.379805 0)
(3 -2.76804e-16 0)
(3 -1.15208e-15 0)
(3 -1.0187e-15 0)
(3 -4.54596e-16 0)
(3 8.28641e-17 0)
(3 -1.65116e-16 0)
(3 -1.5639e-17 0)
(3 3.06369e-16 0)
(3 8.43673e-17 0)
(3 -4.55837e-16 0)
(3 -7.03441e-16 0)
(3 -6.1431e-16 0)
(3 -6.03628e-16 0)
(3 -2.60537e-16 0)
(3 4.50989e-16 0)
(3 7.65157e-15 0)
(3 -6.00655e-08 0)
(2.65171 0.254562 0)
(0.983588 0.379964 0)
(0.872553 0.334356 0)
(0.922197 0.326918 0)
(0.962239 0.323738 0)
(1.01261 0.323175 0)
(1.06726 0.322954 0)
(3 -1.22553e-17 0)
(3 -3.21e-16 0)
(3 -1.41725e-17 0)
(3 5.94656e-16 0)
(3 1.22048e-15 0)
(3 1.27807e-15 0)
(3 1.16231e-15 0)
(3 1.16445e-15 0)
(3 7.8412e-16 0)
(3 3.13237e-16 0)
(3 8.10108e-17 0)
(3 -1.56471e-16 0)
(3 -5.99364e-16 0)
(3 -7.15749e-16 0)
(3 -3.46834e-16 0)
(3 1.9779e-14 0)
(3 -6.71957e-09 0)
(2.93588 0.0733677 0)
(1.08004 0.325719 0)
(0.863078 0.304466 0)
(0.908504 0.298626 0)
(0.939556 0.292196 0)
(0.975411 0.288959 0)
(1.01526 0.287322 0)
(3 1.70782e-16 0)
(3 9.2086e-16 0)
(3 1.01429e-15 0)
(3 7.12923e-16 0)
(3 9.33972e-17 0)
(3 -5.35631e-17 0)
(3 3.17458e-16 0)
(3 3.74742e-16 0)
(3 5.45622e-16 0)
(3 1.16772e-15 0)
(3 9.54745e-16 0)
(3 -7.99441e-17 0)
(3 -8.9637e-16 0)
(3 -9.10887e-16 0)
(3 -6.56421e-16 0)
(3 6.57033e-15 0)
(3 -1.67028e-10 0)
(2.98074 0.012856 0)
(1.12288 0.275431 0)
(0.826644 0.282758 0)
(0.868607 0.279087 0)
(0.900855 0.274614 0)
(0.932773 0.26877 0)
(0.966608 0.262769 0)
(3 2.39265e-16 0)
(3 9.05679e-16 0)
(3 6.38371e-16 0)
(3 -1.62538e-16 0)
(3 -6.02064e-16 0)
(3 -1.01946e-15 0)
(3 -1.35135e-15 0)
(3 -8.0988e-16 0)
(3 -1.21694e-16 0)
(3 -2.06806e-16 0)
(3 -2.70627e-16 0)
(3 -1.44304e-16 0)
(3 -5.02603e-18 0)
(3 1.9927e-16 0)
(3 3.67191e-16 0)
(3 1.32319e-15 0)
(3 -8.46353e-13 0)
(3.00009 0.000977166 0)
(1.20524 0.258824 0)
(0.79763 0.255758 0)
(0.825577 0.252944 0)
(0.863079 0.252012 0)
(0.896627 0.246366 0)
(0.930601 0.240065 0)
(3 4.4934e-17 0)
(3 7.14685e-17 0)
(3 4.51342e-17 0)
(3 -1.06865e-16 0)
(3 -4.90628e-16 0)
(3 -8.59097e-16 0)
(3 -9.50739e-16 0)
(3 -6.41084e-16 0)
(3 -1.70332e-16 0)
(3 -2.85272e-16 0)
(3 9.12221e-17 0)
(3 4.95049e-16 0)
(3 9.35782e-16 0)
(3 1.35938e-15 0)
(3 1.5356e-15 0)
(3 1.11384e-15 0)
(3 -2.9488e-16 0)
(3 2.23669e-06 0)
(1.34098 0.259158 0)
(0.804557 0.228785 0)
(0.81115 0.222631 0)
(0.850307 0.221373 0)
(0.88279 0.217796 0)
(0.917125 0.212801 0)
(3 -6.23596e-17 0)
(3 -3.58076e-16 0)
(3 -5.04579e-16 0)
(3 -3.91829e-16 0)
(3 -7.9002e-16 0)
(3 -7.16328e-16 0)
(3 -3.89536e-16 0)
(3 -5.63818e-16 0)
(3 -3.37522e-16 0)
(3 9.16375e-16 0)
(3 1.25042e-15 0)
(3 1.78371e-15 0)
(3 2.35479e-15 0)
(3 1.98166e-15 0)
(3 1.44273e-15 0)
(3 1.4532e-15 0)
(3 1.09218e-15 0)
(3 7.37194e-10 0)
(1.52466 0.242277 0)
(0.814065 0.208731 0)
(0.812334 0.199439 0)
(0.853531 0.195901 0)
(0.885482 0.19292 0)
(0.919871 0.188844 0)
(3 -3.70337e-17 0)
(3 -8.62708e-16 0)
(3 -7.62308e-16 0)
(3 -8.7319e-16 0)
(3 -1.12236e-17 0)
(3 2.80577e-16 0)
(3 1.04258e-17 0)
(3 -1.85529e-16 0)
(3 3.72221e-17 0)
(3 6.48499e-16 0)
(3 1.05285e-15 0)
(3 1.22493e-15 0)
(3 1.33116e-15 0)
(3 1.09347e-15 0)
(3 1.04195e-15 0)
(3 1.49328e-15 0)
(3 1.79352e-15 0)
(3 -8.88718e-14 0)
(1.71441 0.204717 0)
(0.824566 0.18305 0)
(0.812699 0.174332 0)
(0.855806 0.171096 0)
(0.887915 0.16887 0)
(0.922674 0.165473 0)
(3 1.44275e-16 0)
(3 3.33158e-16 0)
(3 7.02505e-17 0)
(3 5.30175e-17 0)
(3 6.15402e-16 0)
(3 1.55547e-15 0)
(3 1.45084e-15 0)
(3 7.82453e-16 0)
(3 9.02017e-16 0)
(3 1.02717e-15 0)
(3 1.18515e-15 0)
(3 1.06246e-15 0)
(3 7.87333e-16 0)
(3 6.42768e-16 0)
(3 1.19032e-15 0)
(3 9.29319e-16 0)
(3 8.64503e-16 0)
(3 -1.59505e-13 0)
(1.87698 0.162306 0)
(0.830861 0.156215 0)
(0.806769 0.149179 0)
(0.85163 0.146321 0)
(0.885062 0.144366 0)
(0.920617 0.141369 0)
(3 2.50576e-16 0)
(3 6.30584e-16 0)
(3 8.8112e-16 0)
(3 8.28682e-16 0)
(3 7.68057e-16 0)
(3 1.05881e-15 0)
(3 8.6135e-16 0)
(3 1.12758e-15 0)
(3 5.15333e-16 0)
(3 3.88508e-16 0)
(3 7.00876e-16 0)
(3 7.4466e-16 0)
(3 3.44542e-16 0)
(3 3.04876e-16 0)
(3 3.74247e-16 0)
(3 2.09375e-16 0)
(3 -7.78538e-16 0)
(3 -6.07999e-14 0)
(2.01352 0.126005 0)
(0.839014 0.129491 0)
(0.802309 0.122772 0)
(0.8484 0.120083 0)
(0.881855 0.119013 0)
(0.915146 0.117824 0)
(3 1.14291e-17 0)
(3 1.43027e-18 0)
(3 5.41927e-17 0)
(3 -8.44097e-17 0)
(3 -4.19928e-16 0)
(3 -7.355e-16 0)
(3 -5.16154e-16 0)
(3 4.79316e-17 0)
(3 9.14334e-17 0)
(3 -6.8627e-17 0)
(3 1.84445e-16 0)
(3 1.0228e-16 0)
(3 -3.41681e-16 0)
(3 -4.28046e-16 0)
(3 -6.74096e-16 0)
(3 -1.37251e-15 0)
(3 -1.28084e-15 0)
(3 -1.86062e-14 0)
(2.12522 0.0940123 0)
(0.848543 0.102484 0)
(0.799231 0.0974227 0)
(0.84318 0.0951898 0)
(0.873009 0.0967787 0)
(0.902369 0.0989706 0)
(3 -2.18639e-17 0)
(3 1.33908e-16 0)
(3 -3.73647e-16 0)
(3 -1.3518e-16 0)
(3 -1.27792e-16 0)
(3 -1.48711e-16 0)
(3 -1.23178e-16 0)
(3 8.24346e-18 0)
(3 4.71437e-16 0)
(3 4.55298e-16 0)
(3 -2.79165e-16 0)
(3 -4.40699e-16 0)
(3 -6.79772e-16 0)
(3 -9.09138e-16 0)
(3 -1.10867e-15 0)
(3 -1.22037e-15 0)
(3 -3.79634e-16 0)
(3 -3.6758e-15 0)
(2.20864 0.068853 0)
(0.855016 0.0767286 0)
(0.793613 0.0743337 0)
(0.832709 0.0740301 0)
(0.858713 0.0792587 0)
(0.886585 0.0832204 0)
(3 -3.97949e-17 0)
(3 -8.98792e-17 0)
(3 -2.84553e-18 0)
(3 4.89525e-16 0)
(3 7.65597e-16 0)
(3 4.9509e-16 0)
(3 4.29195e-16 0)
(3 2.06365e-16 0)
(3 -2.20151e-16 0)
(3 -8.82301e-16 0)
(3 -1.25188e-15 0)
(3 -1.36957e-15 0)
(3 -1.28911e-15 0)
(3 -1.59649e-15 0)
(3 -1.82836e-15 0)
(3 -6.21461e-16 0)
(3 4.17336e-16 0)
(3 2.01584e-16 0)
(2.27825 0.0511041 0)
(0.860049 0.0517465 0)
(0.787492 0.0563186 0)
(0.821825 0.056383 0)
(0.846157 0.0616016 0)
(0.874049 0.0661877 0)
(3 -1.24974e-16 0)
(3 -3.02687e-16 0)
(3 1.50817e-16 0)
(3 3.14331e-16 0)
(3 -1.45955e-16 0)
(3 -1.10583e-15 0)
(3 -9.50846e-16 0)
(3 -1.11595e-15 0)
(3 -1.19761e-15 0)
(3 -1.29288e-15 0)
(3 -1.16247e-15 0)
(3 -1.95829e-15 0)
(3 -1.98446e-15 0)
(3 -1.78483e-15 0)
(3 -2.16273e-15 0)
(3 -1.77119e-15 0)
(3 -1.44266e-15 0)
(3 -5.5083e-16 0)
(2.34372 0.0380344 0)
(0.867209 0.0290554 0)
(0.781446 0.0394857 0)
(0.814587 0.0390578 0)
(0.838468 0.0433137 0)
(0.866685 0.0478971 0)
(3 -1.37869e-16 0)
(3 -3.04206e-16 0)
(3 -6.89274e-16 0)
(3 -1.17314e-15 0)
(3 -1.42707e-15 0)
(3 -1.43776e-15 0)
(3 -1.33185e-15 0)
(3 -8.46142e-16 0)
(3 -7.7964e-16 0)
(3 -5.83094e-16 0)
(3 -2.48323e-16 0)
(3 -4.93998e-16 0)
(3 -7.97207e-16 0)
(3 -9.9905e-16 0)
(3 -1.16341e-15 0)
(3 -1.54468e-15 0)
(3 -1.17963e-15 0)
(3 -5.1474e-16 0)
(2.40457 0.0219116 0)
(0.879904 0.0149324 0)
(0.777581 0.0229401 0)
(0.809066 0.0224453 0)
(0.831929 0.0253406 0)
(0.859857 0.0289076 0)
(3 1.10483e-16 0)
(3 -7.44175e-17 0)
(3 -7.49706e-16 0)
(3 -9.31285e-16 0)
(3 -9.23986e-16 0)
(3 -1.03853e-15 0)
(3 -8.96874e-16 0)
(3 -5.86335e-16 0)
(3 -5.2371e-16 0)
(3 -3.31888e-16 0)
(3 1.73658e-16 0)
(3 3.23534e-16 0)
(3 1.79363e-16 0)
(3 -1.68607e-16 0)
(3 -2.88303e-16 0)
(3 -8.64594e-16 0)
(3 -3.22288e-16 0)
(3 -1.2605e-16 0)
(2.42685 0.00380233 0)
(0.881292 0.00203485 0)
(0.771495 0.00769828 0)
(0.801714 0.00784446 0)
(0.823787 0.00926575 0)
(0.851757 0.010673 0)
(1.14917 1.35411 0)
(0.19338 0.602196 0)
(-0.0356491 0.0780737 0)
(-0.0673856 -0.0167602 0)
(-0.0732615 -0.00592943 0)
(-0.0863105 0.0121925 0)
(-0.0955985 0.0144646 0)
(-0.0977224 0.0115022 0)
(-0.104558 0.0128055 0)
(-0.117922 0.0137068 0)
(-0.124615 0.0128015 0)
(-0.127594 0.0101289 0)
(-0.125961 0.00446944 0)
(-0.120785 -0.00191381 0)
(-0.114985 -0.00808814 0)
(-0.108337 -0.0131742 0)
(-0.101201 -0.0167949 0)
(-0.0945133 -0.0179477 0)
(-0.0872128 -0.0178036 0)
(-0.0761552 -0.0178068 0)
(-0.0587175 -0.0191834 0)
(-0.0353987 -0.0223214 0)
(-0.00933106 -0.0261292 0)
(0.0168014 -0.0295116 0)
(0.0416963 -0.0318027 0)
(0.0662056 -0.0330885 0)
(0.0918976 -0.0337434 0)
(0.120281 -0.0341652 0)
(0.152837 -0.0346636 0)
(0.189607 -0.0353393 0)
(0.229661 -0.0362481 0)
(0.270924 -0.0375508 0)
(0.311149 -0.038903 0)
(0.34968 -0.0400249 0)
(0.386952 -0.0408201 0)
(0.423197 -0.0410573 0)
(0.458936 -0.0405965 0)
(0.494702 -0.0394482 0)
(0.530868 -0.0376509 0)
(0.567593 -0.0355991 0)
(0.604884 -0.0339361 0)
(0.64248 -0.0329036 0)
(0.679686 -0.0324984 0)
(0.715279 -0.0323291 0)
(0.749235 -0.031829 0)
(0.781167 -0.0306517 0)
(0.811036 -0.0291298 0)
(0.839958 -0.027733 0)
(0.868954 -0.0263609 0)
(0.898214 -0.024781 0)
(0.927379 -0.023012 0)
(0.9562 -0.0212848 0)
(0.984864 -0.019883 0)
(1.01387 -0.0191437 0)
(1.04406 -0.0190707 0)
(1.07541 -0.0192273 0)
(1.10671 -0.0191004 0)
(1.13647 -0.0185895 0)
(1.16412 -0.0177015 0)
(1.1901 -0.0165356 0)
(1.21535 -0.0153168 0)
(1.24063 -0.014017 0)
(1.26632 -0.0127772 0)
(1.29274 -0.0119344 0)
(1.32028 -0.0114417 0)
(1.349 -0.0112091 0)
(1.37841 -0.0113952 0)
(1.40755 -0.0119692 0)
(1.4356 -0.0126155 0)
(1.46221 -0.0129789 0)
(1.48746 -0.0129081 0)
(1.51133 -0.0123558 0)
(1.53313 -0.0113318 0)
(1.55254 -0.0101141 0)
(1.57124 -0.00879596 0)
(1.58992 -0.00712057 0)
(1.60876 -0.00532079 0)
(1.62813 -0.00365103 0)
(1.64863 -0.00231293 0)
(1.66999 -0.00137601 0)
(1.68933 -0.000712563 0)
(1.70581 -0.000454507 0)
(1.72167 -0.000121673 0)
(1.73695 0.000584932 0)
(1.75145 0.00121932 0)
(1.76502 0.00195121 0)
(1.77744 0.00244762 0)
(1.78919 0.00228194 0)
(1.80068 0.00176571 0)
(1.81155 0.00143427 0)
(1.82126 0.0014747 0)
(1.83042 0.00188016 0)
(1.83963 0.00209651 0)
(1.84945 0.00190793 0)
(1.85881 0.00171736 0)
(1.87138 0.000249133 0)
(1.60952 1.20106 0)
(1.09102 0.689551 0)
(0.7204 0.168239 0)
(0.379518 0.00267939 0)
(0.168555 0.0329703 0)
(0.0683029 0.0644814 0)
(0.0202313 0.062811 0)
(-0.00379285 0.0497997 0)
(-0.0236283 0.0457153 0)
(-0.0444927 0.0389218 0)
(-0.0597256 0.0211291 0)
(-0.0625204 -0.00304631 0)
(-0.054051 -0.0225413 0)
(-0.0455277 -0.0360093 0)
(-0.0365294 -0.0451132 0)
(-0.0251865 -0.0509758 0)
(-0.0125728 -0.0556754 0)
(0.00101728 -0.058524 0)
(0.0156026 -0.0580238 0)
(0.0318164 -0.0545249 0)
(0.0512217 -0.0507615 0)
(0.0753025 -0.0489051 0)
(0.104054 -0.0518852 0)
(0.135503 -0.0581162 0)
(0.166867 -0.0639147 0)
(0.196884 -0.0667143 0)
(0.226425 -0.0659108 0)
(0.256747 -0.0622928 0)
(0.289941 -0.0574913 0)
(0.327227 -0.0527583 0)
(0.367643 -0.0484615 0)
(0.408836 -0.0454935 0)
(0.448688 -0.0455278 0)
(0.486126 -0.0479086 0)
(0.521581 -0.0516989 0)
(0.556215 -0.0557612 0)
(0.590809 -0.058306 0)
(0.62561 -0.0583711 0)
(0.660458 -0.05552 0)
(0.694723 -0.0498816 0)
(0.728014 -0.0433198 0)
(0.760498 -0.038076 0)
(0.792854 -0.0359672 0)
(0.825378 -0.0368524 0)
(0.857352 -0.0387714 0)
(0.887623 -0.0393125 0)
(0.914517 -0.0379818 0)
(0.93891 -0.0364095 0)
(0.963322 -0.0354124 0)
(0.98912 -0.0342196 0)
(1.0163 -0.0319932 0)
(1.04419 -0.0285267 0)
(1.07198 -0.0239815 0)
(1.09919 -0.0193511 0)
(1.12564 -0.0161484 0)
(1.15192 -0.0152028 0)
(1.17862 -0.0159597 0)
(1.20552 -0.0169727 0)
(1.23167 -0.0172757 0)
(1.25656 -0.0162211 0)
(1.28046 -0.014188 0)
(1.30392 -0.0111643 0)
(1.32731 -0.00714039 0)
(1.35091 -0.00306615 0)
(1.37506 0.000107207 0)
(1.40009 0.00184575 0)
(1.42618 0.00206479 0)
(1.45284 0.000968978 0)
(1.47894 -0.00105219 0)
(1.50336 -0.00369864 0)
(1.52607 -0.00696264 0)
(1.54795 -0.0105404 0)
(1.56862 -0.0135395 0)
(1.58702 -0.0146687 0)
(1.60427 -0.0145168 0)
(1.6215 -0.0132183 0)
(1.63909 -0.0102794 0)
(1.65723 -0.00658188 0)
(1.67578 -0.00312551 0)
(1.69421 -0.00116301 0)
(1.71184 -0.000745365 0)
(1.72803 -0.000288366 0)
(1.74334 0.00036029 0)
(1.75829 0.001147 0)
(1.77292 0.00233007 0)
(1.78701 0.00472103 0)
(1.79971 0.00843621 0)
(1.81011 0.0120864 0)
(1.81861 0.0133005 0)
(1.82687 0.0115636 0)
(1.83564 0.00862289 0)
(1.8452 0.00689624 0)
(1.85528 0.00713954 0)
(1.86429 0.00776557 0)
(1.87186 0.00673404 0)
(1.88076 -0.000356378 0)
(1.59649 1.08871 0)
(1.45042 0.959134 0)
(1.37003 0.703583 0)
(1.00293 0.495473 0)
(0.673343 0.363677 0)
(0.499104 0.252498 0)
(0.393131 0.173779 0)
(0.316101 0.116305 0)
(0.26525 0.0587259 0)
(0.233542 0.0130442 0)
(0.206305 -0.0100532 0)
(0.199717 -0.0279955 0)
(0.213965 -0.0404465 0)
(0.231247 -0.0480043 0)
(0.244227 -0.0463364 0)
(0.254424 -0.0417259 0)
(0.266175 -0.043243 0)
(0.282085 -0.0515346 0)
(0.305426 -0.0609006 0)
(0.333507 -0.0649968 0)
(0.362358 -0.0639887 0)
(0.392001 -0.0624395 0)
(0.423183 -0.0630548 0)
(0.45729 -0.0682521 0)
(0.493688 -0.0778229 0)
(0.530998 -0.0890347 0)
(0.567495 -0.0988524 0)
(0.602427 -0.105787 0)
(0.636649 -0.110254 0)
(0.672289 -0.113741 0)
(0.7105 -0.117021 0)
(0.750543 -0.119833 0)
(0.790208 -0.120407 0)
(0.826505 -0.118102 0)
(0.857915 -0.113558 0)
(0.885425 -0.108947 0)
(0.911426 -0.105846 0)
(0.938017 -0.104688 0)
(0.966127 -0.104337 0)
(0.995206 -0.103325 0)
(1.024 -0.100763 0)
(1.05088 -0.0959864 0)
(1.07574 -0.0900369 0)
(1.0993 -0.0854545 0)
(1.1226 -0.0832401 0)
(1.14625 -0.0819651 0)
(1.16867 -0.0790976 0)
(1.18731 -0.0740792 0)
(1.20383 -0.0688554 0)
(1.22091 -0.0648405 0)
(1.23981 -0.0629992 0)
(1.26092 -0.0635046 0)
(1.28379 -0.0651901 0)
(1.30723 -0.0658556 0)
(1.32936 -0.064036 0)
(1.34981 -0.0605823 0)
(1.3691 -0.0567956 0)
(1.3882 -0.0543774 0)
(1.40734 -0.0532908 0)
(1.42606 -0.0534411 0)
(1.44441 -0.0536401 0)
(1.46259 -0.052782 0)
(1.48083 -0.0505377 0)
(1.49916 -0.0468743 0)
(1.51759 -0.0422806 0)
(1.53632 -0.0374173 0)
(1.5559 -0.0334487 0)
(1.57665 -0.0309878 0)
(1.59792 -0.0287966 0)
(1.61813 -0.0257359 0)
(1.63603 -0.0220497 0)
(1.65212 -0.0185854 0)
(1.66716 -0.0155125 0)
(1.68094 -0.0127782 0)
(1.69349 -0.0107357 0)
(1.70673 -0.00979 0)
(1.72105 -0.00926546 0)
(1.73656 -0.00735284 0)
(1.7523 -0.00437632 0)
(1.76728 -0.00203268 0)
(1.78181 -0.00055182 0)
(1.79551 0.000280752 0)
(1.808 0.00104304 0)
(1.81946 0.00126374 0)
(1.8311 0.000489413 0)
(1.84319 -0.000360898 0)
(1.8553 -0.000518253 0)
(1.86631 0.000848636 0)
(1.87438 0.00427514 0)
(1.8794 0.00846445 0)
(1.88426 0.0109361 0)
(1.89199 0.0112407 0)
(1.90164 0.011359 0)
(1.91085 0.0123479 0)
(1.91678 0.0140393 0)
(1.9202 0.00840287 0)
(1.5449 0.991393 0)
(1.5083 0.929681 0)
(1.66658 0.807412 0)
(1.56668 0.651939 0)
(1.36256 0.464144 0)
(1.21591 0.270196 0)
(1.0657 0.174608 0)
(0.921841 0.119387 0)
(0.823509 0.0644074 0)
(0.773572 0.0199817 0)
(0.739099 0.010034 0)
(0.711004 0.013288 0)
(0.706895 0.0115481 0)
(0.716367 -0.000925731 0)
(0.733315 -0.018982 0)
(0.746484 -0.0270491 0)
(0.756616 -0.028765 0)
(0.768129 -0.032237 0)
(0.786388 -0.0413881 0)
(0.814155 -0.0568799 0)
(0.848602 -0.0729682 0)
(0.883441 -0.0839455 0)
(0.915727 -0.0903117 0)
(0.945965 -0.0953368 0)
(0.97665 -0.101083 0)
(1.00988 -0.108586 0)
(1.0451 -0.116613 0)
(1.07978 -0.12143 0)
(1.11156 -0.121264 0)
(1.14045 -0.118075 0)
(1.16813 -0.114569 0)
(1.1958 -0.113203 0)
(1.22338 -0.115064 0)
(1.24982 -0.117947 0)
(1.27332 -0.118414 0)
(1.29274 -0.115395 0)
(1.30917 -0.109246 0)
(1.32509 -0.101257 0)
(1.34228 -0.0928483 0)
(1.36118 -0.0847805 0)
(1.38134 -0.0782837 0)
(1.40136 -0.0732708 0)
(1.41913 -0.0679868 0)
(1.43361 -0.0623786 0)
(1.44675 -0.0573646 0)
(1.46074 -0.0532999 0)
(1.47648 -0.0494436 0)
(1.49137 -0.0462052 0)
(1.5028 -0.0438686 0)
(1.5135 -0.0409666 0)
(1.52483 -0.0365148 0)
(1.53775 -0.0319336 0)
(1.55255 -0.0280531 0)
(1.56895 -0.0259682 0)
(1.58543 -0.0272545 0)
(1.60032 -0.0297068 0)
(1.61323 -0.0305367 0)
(1.6248 -0.0300722 0)
(1.63631 -0.0275349 0)
(1.64773 -0.0236442 0)
(1.6591 -0.021931 0)
(1.67064 -0.022318 0)
(1.68294 -0.0233318 0)
(1.69557 -0.0236643 0)
(1.7078 -0.023209 0)
(1.71988 -0.0213631 0)
(1.73161 -0.0179964 0)
(1.74428 -0.0145161 0)
(1.75785 -0.0131463 0)
(1.77091 -0.013698 0)
(1.78352 -0.0151084 0)
(1.79548 -0.0163048 0)
(1.80674 -0.0155456 0)
(1.81714 -0.0114516 0)
(1.82639 -0.0038856 0)
(1.8343 0.00406432 0)
(1.84244 0.00847485 0)
(1.85252 0.0093633 0)
(1.86377 0.00899985 0)
(1.87562 0.00922379 0)
(1.88788 0.0109595 0)
(1.89949 0.0137837 0)
(1.9094 0.0167923 0)
(1.91706 0.0188211 0)
(1.92363 0.0193086 0)
(1.93136 0.0178309 0)
(1.9401 0.0154359 0)
(1.94851 0.0126645 0)
(1.95558 0.00925028 0)
(1.96099 0.00709052 0)
(1.96577 0.00703677 0)
(1.97131 0.00744269 0)
(1.97786 0.00608083 0)
(1.98498 0.00313501 0)
(1.98904 -0.000321051 0)
(1.98783 -0.00950561 0)
(1.45856 0.862096 0)
(1.47593 0.828717 0)
(1.63488 0.774773 0)
(1.70085 0.689338 0)
(1.66828 0.584788 0)
(1.64126 0.44313 0)
(1.58424 0.317626 0)
(1.4956 0.239938 0)
(1.41123 0.165138 0)
(1.36188 0.0969435 0)
(1.33374 0.0545738 0)
(1.30458 0.0355436 0)
(1.27649 0.018431 0)
(1.27054 0.00157434 0)
(1.27572 -0.0229511 0)
(1.28539 -0.0505239 0)
(1.2902 -0.0669142 0)
(1.29484 -0.0750575 0)
(1.30305 -0.08186 0)
(1.31689 -0.0897762 0)
(1.33801 -0.1022 0)
(1.36262 -0.117533 0)
(1.38559 -0.130335 0)
(1.40471 -0.137602 0)
(1.42153 -0.142967 0)
(1.43911 -0.147707 0)
(1.46002 -0.15159 0)
(1.48386 -0.154485 0)
(1.50678 -0.155332 0)
(1.5252 -0.154566 0)
(1.53929 -0.152089 0)
(1.55145 -0.147491 0)
(1.56381 -0.141962 0)
(1.57727 -0.137273 0)
(1.59053 -0.132465 0)
(1.60172 -0.126479 0)
(1.61066 -0.119592 0)
(1.61902 -0.113114 0)
(1.62798 -0.107371 0)
(1.63814 -0.102813 0)
(1.6493 -0.100078 0)
(1.66148 -0.0983564 0)
(1.67351 -0.0944113 0)
(1.68259 -0.0884932 0)
(1.69061 -0.0829987 0)
(1.69969 -0.0779267 0)
(1.70905 -0.0738874 0)
(1.71863 -0.0739181 0)
(1.72772 -0.0752589 0)
(1.73705 -0.0751707 0)
(1.74585 -0.071997 0)
(1.75557 -0.0661362 0)
(1.76638 -0.0588191 0)
(1.77622 -0.0530291 0)
(1.78532 -0.0516363 0)
(1.79432 -0.052133 0)
(1.80376 -0.0519841 0)
(1.81318 -0.0508646 0)
(1.82195 -0.0494827 0)
(1.82977 -0.0473723 0)
(1.83598 -0.0439899 0)
(1.84229 -0.039757 0)
(1.85067 -0.0364407 0)
(1.85969 -0.034432 0)
(1.86862 -0.0326394 0)
(1.87708 -0.0300545 0)