/*--------------------------------*- C++ -*----------------------------------*\
  =========                 |
  \\      /  F ield         | OpenFOAM: The Open Source CFD Toolbox
   \\    /   O peration     | Website:  https://openfoam.org
    \\  /    A nd           | Version:  7
     \\/     M anipulation  |
\*---------------------------------------------------------------------------*/
FoamFile
{
    version     2.0;
    format      ascii;
    class       surfaceScalarField;
    location    "75";
    object      phi;
}
// * * * * * * * * * * * * * * * * * * * * * * * * * * * * * * * * * * * * * //

dimensions      [0 3 -1 0 0 0 0];

internalField   nonuniform List<scalar> 
3883
(
-0.00643733
0.00309749
-0.00654331
0.0029981
0.00279636
-0.006341
-0.00664408
0.00289713
0.0026991
-0.00643476
-0.00673977
0.00279478
0.00260056
-0.00652352
-0.00683042
0.00269121
0.00250091
-0.00660736
-0.00691604
0.00258654
0.00232133
-0.00639724
0.00240027
-0.00668629
-0.00699663
0.00248085
0.00222471
-0.00646886
0.00229874
-0.00676032
-0.00707215
0.00237426
0.00212731
-0.00653575
0.00219641
-0.00682942
-0.00714257
0.00226683
0.00202922
-0.00659793
0.00209336
-0.00689356
-0.00720787
0.00215865
0.00187309
-0.0063719
0.00193052
-0.00665536
0.00198967
-0.00695271
-0.00726801
0.00204981
0.00177863
-0.00642329
0.00183129
-0.00670802
0.00188542
-0.00700685
-0.00732295
0.00194037
0.00168373
-0.00647006
0.00173159
-0.00675588
0.00178069
-0.00705594
-0.00737268
0.00183041
0.00158848
-0.00651221
0.00163152
-0.00679892
0.00167554
-0.00709997
-0.00741716
0.00172003
0.00149293
-0.00654971
0.00153112
-0.00683711
0.00157007
-0.00713891
-0.00745637
0.00160928
0.00139716
-0.00658255
0.00143049
-0.00687044
0.00146432
-0.00717275
-0.0074903
0.00149825
0.00130124
-0.0066107
0.00132968
-0.00689888
0.0013584
-0.00720147
-0.00751893
0.00138703
0.00120522
-0.00663415
0.00122876
-0.00692242
0.00125236
-0.00722507
-0.00754224
0.00127568
0.00110918
-0.0066529
0.00112781
-0.00694105
0.00114628
-0.00724354
-0.00756024
0.00116428
0.000999154
-0.00639329
0.00101318
-0.00666692
0.0010269
-0.00695477
0.00104024
-0.00725688
-0.00757292
0.00105292
0.000907985
-0.00640304
0.000917286
-0.00667622
0.000926089
-0.00696358
0.000934302
-0.00726509
-0.0075803
0.000941675
0.000816988
-0.00640824
0.000821563
-0.0066808
0.00082545
-0.00696746
0.000828544
-0.00726818
-0.00758237
0.000830621
0.000726225
-0.0064089
0.000726074
-0.00668065
0.000725049
-0.00696644
0.000723033
-0.00726617
-0.00757918
0.000719834
0.000635756
-0.00640502
0.000630882
-0.00667577
0.000624951
-0.00696051
0.000617839
-0.00725905
-0.00757072
0.000609381
0.000545639
0.000536049
-0.00666618
0.000525221
-0.00694968
0.000513031
-0.00724686
-0.00755702
0.000499329
0.000441632
-0.00665188
0.000425918
-0.00693397
0.000408671
-0.00722962
-0.00753808
0.000389738
0.000347697
-0.00663287
0.000327099
-0.00691337
0.000304813
-0.00720733
0.000280656
0.000254314
0.000228845
0.00632592
0.00086774
-0.0063225
0.00632829
0.000836633
0.00632917
0.000806269
0.00632791
0.000775211
0.00632447
0.000743385
0.00631908
0.000711401
0.00631193
0.000679607
0.00630318
0.000648039
0.00629301
0.000616683
0.00628164
0.000585577
0.00626928
0.000554762
0.00625615
0.00052424
0.000493973
0.00654717
0.00086108
-0.00654051
0.00655299
0.000830811
0.00655785
0.000801413
0.00656122
0.000771841
0.00656291
0.000741692
0.00656301
0.000711303
0.00656161
0.000681001
0.0065588
0.000650848
0.00655468
0.00062081
0.00654937
0.000590886
0.00654303
0.000561098
0.00653583
0.000531445
0.000501883
0.00676907
0.000851917
-0.00675991
0.00677736
0.000822525
0.0067848
0.000793975
0.00679109
0.000765547
0.00679607
0.000736707
0.00679978
0.000707593
0.0068023
0.000678488
0.00680366
0.000649483
0.00680393
0.000620544
0.00680317
0.000591642
0.0068015
0.000562775
0.00679901
0.000533932
0.000505068
0.00699452
0.000840713
-0.00698331
0.00700467
0.000812376
0.00701394
0.000784697
0.00702223
0.000757259
0.00702942
0.000729522
0.00703552
0.000701488
0.00704062
0.000673386
0.00704478
0.000645328
0.00704803
0.000617293
0.00705043
0.00058924
0.00705206
0.00056115
0.00705298
0.000533005
0.000504759
0.00722515
0.000827895
-0.00721233
0.00723681
0.000800711
0.00724755
0.000773955
0.00725736
0.000747456
0.00726615
0.000720726
0.00727396
0.000693678
0.00728087
0.000666485
0.00728693
0.000639264
0.00729221
0.000612015
0.00729675
0.000584696
0.00730063
0.000557277
0.00730389
0.000529736
0.000502028
0.00746172
0.00081366
-0.00744749
0.00747476
0.000787671
0.00748681
0.000761909
0.0074979
0.000736359
0.00750802
0.000710605
0.00751719
0.000684511
0.00752548
0.000658196
0.00753297
0.000631776
0.00753972
0.000605265
0.00754579
0.000578628
0.00755123
0.000551832
0.00755612
0.000524849
0.000497639
0.00770452
0.00079805
-0.00768891
0.0077189
0.000773297
0.00773221
0.000748599
0.00774452
0.000724041
0.00775586
0.000699271
0.00776624
0.000674132
0.00777573
0.000648703
0.00778442
0.00062309
0.00779236
0.000597319
0.00779963
0.000571362
0.00780628
0.000545185
0.00781236
0.000518761
0.000492052
0.00795375
0.000781083
-0.00793679
0.00796945
0.000757601
0.00798402
0.000734026
0.00799755
0.000710508
0.00801008
0.000686749
0.00802162
0.000662587
0.00803225
0.000638071
0.00804205
0.000613293
0.00805108
0.000588288
0.0080594
0.000563037
0.00806708
0.000537509
0.00807417
0.000511674
0.000485499
0.00820985
0.000762803
-0.00819157
0.00822683
0.00074062
0.00824265
0.00071821
0.00825739
0.000695773
0.00827108
0.000673055
0.00828377
0.000649896
0.00829552
0.000626322
0.0083064
0.000602416
0.00831647
0.000578217
0.00832579
0.000553711
0.00833443
0.000528873
0.00834243
0.000503674
0.000478085
0.00847361
0.000743305
-0.00845411
0.00849179
0.00072244
0.00850878
0.000701219
0.00852467
0.000679888
0.00853949
0.000658233
0.00855329
0.000636098
0.00856611
0.000613494
0.00857804
0.000590493
0.00858912
0.000567136
0.00859941
0.000543418
0.00860897
0.000519316
0.00861784
0.000494805
0.000469857
0.00874595
0.000722722
-0.00872537
0.00876522
0.000703176
0.00878328
0.000683155
0.00880023
0.000662939
0.0088161
0.000642357
0.00883094
0.000621259
0.00884479
0.000599644
0.00885771
0.000577576
0.00886975
0.000555094
0.00888097
0.000532202
0.0088914
0.000508879
0.00890111
0.000485104
0.000460852
0.00902771
0.000701186
-0.00900617
0.00904795
0.00068294
0.00906698
0.000664118
0.0090849
0.000645019
0.00910175
0.000625511
0.00911755
0.000605457
0.00913235
0.000584845
0.0091462
0.000563729
0.00915914
0.00054215
0.00917123
0.000520115
0.0091825
0.000497609
0.00919299
0.000474615
0.00045111
0.00931947
0.000678795
-0.00929708
0.00934059
0.00066182
0.00936052
0.000644186
0.00937934
0.000626201
0.00939709
0.000607766
0.00941379
0.000588757
0.00942948
0.000569157
0.0094442
0.00054901
0.00945799
0.000528357
0.0094709
0.000507208
0.00948295
0.000485554
0.00949419
0.00046338
0.000440667
0.0096216
0.000655621
-0.00959843
0.00964354
0.000639879
0.00966431
0.000623415
0.00968398
0.000606535
0.00970258
0.000589168
0.00972013
0.000571204
0.00973666
0.000552622
0.00975222
0.000533459
0.00976682
0.000513752
0.00978051
0.000493515
0.00979332
0.000472745
0.00980527
0.000451428
0.000429551
0.00993435
0.00063172
-0.00991045
0.00995706
0.000617167
0.00997863
0.000601848
0.00999911
0.000586059
0.0100185
0.000569752
0.0100369
0.00055283
0.0100542
0.000535269
0.0100706
0.0005171
0.010086
0.000498357
0.0101005
0.000479057
0.010114
0.000459199
0.0101267
0.000438775
0.000417773
0.010258
0.000607145
-0.0102334
0.0102814
0.000593732
0.0103037
0.000579526
0.010325
0.000564809
0.0103452
0.000549549
0.0103644
0.000533662
0.0103825
0.000517122
0.0103996
0.000499953
0.0104158
0.000482188
0.010431
0.000463844
0.0104453
0.000444925
0.0104587
0.000425423
0.000405333
0.0105928
0.000581951
-0.0105676
0.0106169
0.000569628
0.0106399
0.000556498
0.0106619
0.000542826
0.0106829
0.000528595
0.0107028
0.000513731
0.0107217
0.000498205
0.0107396
0.000482038
0.0107565
0.00046526
0.0107725
0.000447889
0.0107875
0.000429929
0.0108015
0.000411377
0.00039223
0.0109392
0.000556197
-0.0109134
0.0109639
0.000544912
0.0109876
0.000532816
0.0110102
0.00052016
0.0110319
0.000506934
0.0110526
0.000493074
0.0110722
0.000478553
0.0110909
0.000463385
0.0111085
0.000447597
0.0111252
0.000431207
0.0111409
0.000414222
0.0111557
0.000396642
0.000378464
0.0112976
0.000529943
-0.0112713
0.0113229
0.000519641
0.0113471
0.000508536
0.0113704
0.00049686
0.0113928
0.000484612
0.0114141
0.000471735
0.0114345
0.000458202
0.0114538
0.000444024
0.0114722
0.000429225
0.0114896
0.000413821
0.011506
0.000397822
0.0115214
0.000381228
0.000364041
0.0116685
0.000503247
-0.0116418
0.0116943
0.000493874
0.0117191
0.000483713
0.011743
0.00047298
0.0117659
0.000461678
0.0117879
0.000449759
0.0118089
0.000437195
0.011829
0.000423993
0.011848
0.000410175
0.0118661
0.000395757
0.0118831
0.000380748
0.0118992
0.000365151
0.000348968
0.0120525
0.000476163
-0.0120254
0.0120787
0.000467663
0.0121041
0.000458399
0.0121285
0.000448569
0.012152
0.00043818
0.0121745
0.000427189
0.0121962
0.000415571
0.0122168
0.000403329
0.0122365
0.000390481
0.0122552
0.000377043
0.0122729
0.000363025
0.0122897
0.000348429
0.000333259
0.0124501
0.000448738
-0.0124227
0.0124767
0.000441056
0.0125025
0.000432642
0.0125274
0.000423674
0.0125514
0.000414163
0.0125745
0.00040407
0.0125967
0.000393371
0.012618
0.000382068
0.0126383
0.000370176
0.0126576
0.000357708
0.012676
0.000344674
0.0126933
0.00033108
0.000316927
0.012862
0.000421012
-0.0128343
0.012889
0.000414097
0.0129151
0.000406485
0.0129404
0.000398338
0.0129649
0.000389667
0.0129886
0.00038044
0.0130113
0.000370633
0.0130331
0.000360245
0.013054
0.000349289
0.013074
0.000337778
0.0130929
0.000325721
0.0131109
0.000313122
0.000299986
0.0132887
0.000393018
-0.0132607
0.013316
0.000386819
0.0133425
0.000379963
0.0133683
0.000372595
0.0133932
0.000364729
0.0134173
0.000356334
0.0134406
0.000347388
0.0134629
0.00033789
0.0134844
0.00032785
0.0135049
0.000317279
0.0135244
0.000306184
0.0135429
0.000294573
0.000282449
0.013731
0.00036478
-0.0137028
0.0137586
0.000359249
0.0137855
0.000353104
0.0138116
0.000346476
0.0138369
0.000339376
0.0138615
0.000331779
0.0138852
0.000323665
0.0139081
0.00031503
0.01393
0.000305882
0.0139511
0.000296231
0.0139712
0.000286085
0.0139903
0.000275448
0.000264326
0.0141897
0.000336313
-0.0141612
0.0142175
0.000331405
0.0142447
0.000325928
0.0142712
0.00032
0.0142969
0.000313631
0.0143219
0.000306799
0.0143461
0.000299485
0.0143694
0.000291685
0.0143919
0.000283405
0.0144135
0.000274653
0.0144341
0.000265436
0.0144538
0.00025576
0.000245628
0.0146655
0.000307622
-0.0146368
0.0146936
0.000303295
0.014721
0.000298446
0.0147479
0.000293179
0.014774
0.000287506
0.0147994
0.000281406
0.014824
0.000274861
0.0148478
0.000267868
0.0148708
0.000260431
0.0148929
0.000252555
0.0149141
0.000244249
0.0149343
0.000235516
0.000226361
0.0151592
0.0002787
-0.0151303
0.0151876
0.000274914
0.0152154
0.000270656
0.0152426
0.000266016
0.0152691
0.000261005
0.0152949
0.000255605
0.0153199
0.000249801
0.0153442
0.000243587
0.0153677
0.000236967
0.0153903
0.000229945
0.015412
0.000222529
0.0154328
0.000214721
0.000206527
0.015672
0.000249529
-0.0156428
0.0157006
0.00024625
0.0157287
0.000242547
0.0157563
0.000238502
0.0157831
0.000234122
0.0158094
0.000229392
0.0158349
0.0002243
0.0158596
0.000218839
0.0158836
0.000213011
0.0159067
0.000206821
0.0159289
0.000200275
0.0159503
0.000193374
0.000186124
0.0162047
0.00022008
-0.0161753
0.0162337
0.000217275
0.0162621
0.000214097
0.01629
0.000210615
0.0163173
0.000206838
0.016344
0.000202752
0.0163699
0.000198345
0.0163951
0.000193612
0.0164196
0.000188554
0.0164432
0.000183174
0.016466
0.000177478
0.016488
0.000171466
0.000165144
0.0167586
0.000190306
-0.0167288
0.0167879
0.000187947
0.0168168
0.000185266
0.0168451
0.000182322
0.0168728
0.000179122
0.0168999
0.000175655
0.0169263
0.000171911
0.016952
0.000167883
0.016977
0.000163574
0.0170012
0.000158986
0.0170246
0.000154121
0.017047
0.000148984
0.000143575
0.0173349
0.000160146
-0.0173047
0.0173646
0.00015821
0.0173939
0.000156003
0.0174226
0.000153574
0.0174508
0.00015093
0.0174784
0.000148061
0.0175054
0.000144959
0.0175316
0.000141619
0.0175572
0.000138041
0.0175819
0.000134227
0.0176059
0.000130181
0.0176289
0.000125903
0.000121396
0.0179349
0.000129523
-0.0179043
0.0179651
0.00012799
0.0179949
0.000126236
0.0180242
0.000124305
0.0180529
0.000122199
0.0180811
0.000119913
0.0181086
0.000117438
0.0181354
0.00011477
0.0181616
0.00011191
0.0181869
0.000108859
0.0182115
0.000105618
0.0182352
0.000102191
9.85773e-05
0.0185603
9.83401e-05
-0.0185291
0.0185911
9.71925e-05
0.0186214
9.58809e-05
0.0186513
9.44329e-05
0.0186806
9.28536e-05
0.0187094
9.11376e-05
0.0187376
8.92788e-05
0.0187651
8.72741e-05
0.0187919
8.51233e-05
0.0188179
8.28273e-05
0.0188431
8.03876e-05
0.0188675
7.78054e-05
7.50821e-05
0.0192126
6.64633e-05
-0.0191807
0.0192441
6.56997e-05
0.0192751
6.48174e-05
0.0193057
6.38486e-05
0.0193358
6.27911e-05
0.0193653
6.16409e-05
0.0193942
6.03943e-05
0.0194224
5.90495e-05
0.0194499
5.76062e-05
0.0194767
5.60649e-05
0.0195026
5.44264e-05
0.0195277
5.26916e-05
5.08614e-05
0.0198938
3.37763e-05
-0.0198611
0.0199261
3.33698e-05
0.019958
3.29255e-05
0.0199894
3.24319e-05
0.0200203
3.18942e-05
0.0200507
3.13113e-05
0.0200804
3.06805e-05
0.0201094
3.00003e-05
0.0201378
2.92702e-05
0.0201653
2.84904e-05
0.0201921
2.76615e-05
0.020218
2.67838e-05
2.58576e-05
0.0206059
-0.0205722
0.0206393
0.0206722
0.0207047
0.0207366
0.0207679
0.0207986
0.0208286
0.0208578
0.0208863
0.020914
0.0209408
0.000807759
0.0046615
-0.00463863
0.000784636
0.00481855
-0.00479543
0.000761526
0.00498091
-0.00495779
0.000738654
0.00514977
-0.0051269
0.000716057
0.00532563
-0.00530303
0.000693714
0.00550861
-0.00548626
0.000671566
0.00569862
-0.00567647
0.000649579
0.00589569
-0.00587371
0.000627737
0.00609996
-0.00607812
0.000606036
0.00631161
-0.0062899
0.000584473
0.00653084
-0.00650928
0.000563051
0.00675793
-0.00673651
0.000541759
0.00699309
-0.0069718
0.000520605
0.00723663
-0.00721548
0.000499594
0.00748884
-0.00746783
0.000478727
0.00774998
-0.00772912
0.000458002
0.00802039
-0.00799966
0.000437419
0.00830037
-0.00827978
0.000416976
0.00859025
-0.00856981
0.000396669
0.00889039
-0.00887008
0.000376495
0.00920114
-0.00918096
0.00035645
0.00952288
-0.00950283
0.000336527
0.00985602
-0.0098361
0.000316703
0.0102009
-0.0101811
0.000296985
0.0105581
-0.0105384
0.000277365
0.010928
-0.0109084
0.000257828
0.0113111
-0.0112915
0.000238358
0.0117079
-0.0116884
0.000218939
0.012119
-0.0120996
0.00019955
0.0125449
-0.0125256
0.00018017
0.0129864
-0.012967
0.000160772
0.013444
-0.0134246
0.000141325
0.0139185
-0.0138991
0.000121794
0.0144107
-0.0143912
0.000102137
0.0149214
-0.0149017
8.23065e-05
0.0154515
-0.0154316
6.2247e-05
0.0160019
-0.0159819
4.18949e-05
0.0165739
-0.0165535
2.11649e-05
0.0171684
-0.0171476
0.0177866
-0.0177654
0.000917876
0.0046853
0.000893715
0.00484271
0.000869436
0.00500518
0.000845284
0.00517392
0.000821334
0.00534958
0.000797574
0.00553236
0.000773949
0.00572224
0.000750416
0.00591923
0.000726954
0.00612342
0.000703553
0.00633501
0.00068021
0.00655419
0.000656924
0.00678121
0.000633689
0.00701632
0.000610509
0.00725981
0.000587385
0.00751196
0.000564316
0.00777305
0.000541301
0.0080434
0.000518337
0.00832333
0.000495419
0.00861317
0.000472543
0.00891326
0.000449703
0.00922398
0.000426892
0.00954569
0.000404103
0.00987881
0.000381309
0.0102237
0.000358516
0.0105809
0.000335709
0.0109508
0.000312872
0.0113339
0.000289986
0.0117308
0.000267031
0.0121419
0.000243984
0.012568
0.000220817
0.0130096
0.0001975
0.0134673
0.000173997
0.013942
0.000150269
0.0144344
0.00012627
0.0149454
0.000101944
0.0154758
7.723e-05
0.0160266
5.20587e-05
0.0165991
2.63363e-05
0.0171941
0.0178129
0.00102819
0.00471003
0.00100299
0.00486791
0.000977549
0.00503063
0.000952113
0.00519936
0.000926794
0.0053749
0.000901601
0.00555756
0.000876482
0.00574736
0.000851391
0.00594432
0.000826298
0.00614852
0.000801188
0.00636012
0.000776057
0.00657932
0.000750901
0.00680637
0.000725715
0.00704151
0.0007005
0.00728503
0.000675256
0.0075372
0.00064998
0.00779833
0.000624668
0.00806872
0.000599317
0.00834868
0.00057392
0.00863857
0.00054847
0.00893871
0.00052296
0.00924949
0.00049738
0.00957127
0.000471719
0.00990447
0.000445954
0.0102495
0.000420082
0.0106068
0.000394087
0.0109768
0.000367947
0.0113601
0.000341643
0.0117571
0.000315151
0.0121684
0.000288443
0.0125947
0.000261487
0.0130365
0.00023425
0.0134946
0.000206692
0.0139696
0.000178766
0.0144623
0.000150421
0.0149737
0.000121597
0.0155046
9.22268e-05
0.016056
6.22326e-05
0.016629
3.15137e-05
0.0172248
0.0178445
0.00113861
0.0047357
0.00111239
0.00489413
0.00108579
0.00505723
0.00105906
0.00522608
0.00103237
0.0054016
0.00100572
0.0055842
0.000979097
0.00577399
0.000952435
0.00597098
0.000925701
0.00617525
0.000898875
0.00638694
0.000871948
0.00660625
0.000844916
0.0068334
0.000817773
0.00706865
0.000790517
0.00731228
0.000763147
0.00756457
0.000735658
0.00782582
0.000708046
0.00809633
0.000680304
0.00837643
0.000652424
0.00866645
0.000624398
0.00896674
0.000596215
0.00927767
0.000567864
0.00959962
0.000539331
0.009933
0.000510592
0.0102782
0.000481641
0.0106357
0.000452456
0.011006
0.000423015
0.0113895
0.000393294
0.0117868
0.000363264
0.0121985
0.000332896
0.0126251
0.000302154
0.0130673
0.000270998
0.0135257
0.000239384
0.0140012
0.000207262
0.0144945
0.000174573
0.0150064
0.000141253
0.0155379
0.000107226
0.01609
7.24096e-05
0.0166639
3.66932e-05
0.0172605
0.0178812
0.00124907
0.00476231
0.00122182
0.00492138
0.00119407
0.00508498
0.00116607
0.00525408
0.00113798
0.00542968
0.00110987
0.00561231
0.00108172
0.00580214
0.00105348
0.00599923
0.00102509
0.00620364
0.000996545
0.00641549
0.000967817
0.00663497
0.000938904
0.00686232
0.000909798
0.00709776
0.000880498
0.00734158
0.000850998
0.00759407
0.000821293
0.00785552
0.000791377
0.00812625
0.000761242
0.00840656
0.000730877
0.00869681
0.000700274
0.00899734
0.000669417
0.00930853
0.000638295
0.00963074
0.00060689
0.00996441
0.00057518
0.0103099
0.00054315
0.0106677
0.000510777
0.0110383
0.000478037
0.0114222
0.000444901
0.0118199
0.000411338
0.012232
0.000377313
0.0126591
0.000342788
0.0131018
0.000307717
0.0135608
0.000272053
0.0140369
0.000235738
0.0145308
0.00019871
0.0150434
0.000160897
0.0155757
0.000122218
0.0161287
8.25824e-05
0.0167035
4.18714e-05
0.0173012
0.017923
0.00135948
0.00478985
0.00133121
0.00494966
0.00130232
0.00511387
0.00127304
0.00528336
0.00124356
0.00545916
0.00121398
0.00564189
0.0011843
0.00583182
0.00115445
0.00602907
0.00112441
0.00623368
0.00109413
0.00644577
0.0010636
0.00666551
0.0010328
0.00689311
0.00100173
0.00712883
0.000970379
0.00737293
0.000938747
0.00762571
0.000906825
0.00788745
0.000874604
0.00815847
0.000842075
0.00843909
0.000809226
0.00872966
0.000776045
0.00903052
0.000742517
0.00934205
0.000708625
0.00966463
0.000674352
0.00999868
0.000639671
0.0103446
0.000604566
0.0107028
0.00056901
0.0110739
0.000532974
0.0114583
0.000496429
0.0118565
0.000459338
0.0122691
0.000421663
0.0126968
0.00038336
0.0131401
0.000344382
0.0135998
0.000304674
0.0140766
0.000264174
0.0145713
0.000222814
0.0150848
0.000180516
0.015618
0.000137191
0.016172
9.27433e-05
0.0167479
4.70442e-05
0.0173469
0.0179701
0.00146976
0.00481835
0.00144047
0.00497895
0.00141045
0.00514388
0.00137991
0.00531389
0.00134905
0.00549002
0.00131798
0.00567295
0.00128674
0.00586306
0.00125529
0.00606052
0.00122358
0.00626539
0.00119157
0.00647779
0.00115922
0.00669785
0.00112654
0.0069258
0.0010935
0.00716187
0.0010601
0.00740633
0.00102634
0.00765947
0.000992195
0.00792159
0.000957669
0.00819299
0.000922748
0.00847401
0.000887416
0.00876499
0.000851661
0.00906628
0.000815463
0.00937825
0.000778806
0.00970129
0.000741668
0.0100358
0.000704022
0.0103822
0.000665847
0.010741
0.000627113
0.0111126
0.00058779
0.0114976
0.000547842
0.0118964
0.000507231
0.0123097
0.000465914
0.0127381
0.000423844
0.0131822
0.000380967
0.0136426
0.000337224
0.0141203
0.000292549
0.014616
0.000246868
0.0151305
0.000200095
0.0156648
0.000152136
0.01622
0.000102885
0.0167972
5.22082e-05
0.0173976
0.0180223
0.00157983
0.0048478
0.00154952
0.00500926
0.00151839
0.00517501
0.0014866
0.00534568
0.00145435
0.00552227
0.0014218
0.00570551
0.001389
0.00589586
0.00135593
0.00609358
0.00132254
0.00629878
0.00128878
0.00651154
0.00125463
0.00673201
0.00122005
0.00696038
0.00118504
0.00719687
0.0011496
0.00744178
0.0011137
0.00769537
0.00107734
0.00795794
0.00104052
0.00822982
0.0010032
0.00851132
0.000965393
0.0088028
0.000927067
0.00910461
0.000888205
0.00941711
0.000848787
0.00974071
0.000808791
0.0100758
0.000768187
0.0104228
0.000726949
0.0107823
0.000685046
0.0111545
0.000642444
0.0115402
0.000599103
0.0119398
0.000554983
0.0123539
0.000510035
0.012783
0.000464209
0.013228
0.000417445
0.0136894
0.000369681
0.0141681
0.000320844
0.0146648
0.000270855
0.0151805
0.000219621
0.015716
0.00016704
0.0162726
0.000113001
0.0168512
5.73594e-05
0.0174533
0.0180796
0.00168961
0.00487821
0.00165828
0.00504059
0.00162604
0.00520725
0.00159303
0.0053787
0.00155941
0.00555589
0.00152536
0.00573955
0.00149099
0.00593023
0.00145629
0.00612828
0.00142122
0.00633386
0.00138571
0.00654705
0.00134974
0.00676798
0.00131328
0.00699684
0.0012763
0.00723385
0.00123881
0.00747927
0.00120078
0.00773339
0.00116221
0.00799651
0.00112308
0.00826895
0.00108339
0.00855102
0.0010431
0.00884309
0.00100221
0.0091455
0.000960692
0.00945863
0.000918521
0.00978288
0.000875675
0.0101187
0.000832121
0.0104664
0.000787831
0.0108265
0.000742769
0.0111996
0.000696899
0.0115861
0.000650177
0.0119865
0.00060256
0.0124015
0.000553995
0.0128316
0.000504426
0.0132776
0.000453791
0.01374
0.000402022
0.0142198
0.000349039
0.0147178
0.000294757
0.0152347
0.000239079
0.0157717
0.000181894
0.0163298
0.000123084
0.01691
6.24942e-05
0.0175138
0.0181421
0.00179902
0.0049096
0.00176666
0.00507295
0.00173334
0.00524058
0.00169911
0.00541293
0.00166413
0.00559087
0.00162861
0.00577508
0.00159266
0.00596618
0.00155632
0.00616462
0.00151955
0.00637063
0.00148229
0.0065843
0.0014445
0.00680577
0.00140615
0.0070352
0.00136721
0.00727279
0.00132767
0.00751881
0.00128752
0.00777355
0.00124674
0.00803729
0.00120532
0.00831036
0.00116324
0.0085931
0.00112049
0.00888584
0.00107704
0.00918895
0.00103287
0.0095028
0.000987958
0.00982779
0.000942272
0.0101643
0.000895779
0.0105129
0.000848448
0.0108739
0.00080024
0.0112478
0.000751115
0.0116352
0.000701028
0.0120366
0.000649928
0.0124526
0.000597762
0.0128838
0.000544468
0.0133308
0.000489979
0.0137945
0.000434221
0.0142756
0.000377112
0.0147749
0.000318558
0.0152933
0.000258455
0.0158318
0.000196687
0.0163915
0.000133126
0.0169736
6.76088e-05
0.0175794
0.0182097
0.00190799
0.00494198
0.0018746
0.00510634
0.00184018
0.00527499
0.00180476
0.00544835
0.00176845
0.00562718
0.00173145
0.00581208
0.00169393
0.0060037
0.00165594
0.00620261
0.00161747
0.0064091
0.00157846
0.00662332
0.00153885
0.00684538
0.0014986
0.00707544
0.0014577
0.00731369
0.00141612
0.00756039
0.00137385
0.00781582
0.00133086
0.00808027
0.00128716
0.00835407
0.00124271
0.00863755
0.0011975
0.00893105
0.0011515
0.00923494
0.0011047
0.00954961
0.00105705
0.00987544
0.00100853
0.0102129
0.000959116
0.0105623
0.000908757
0.0109242
0.000857418
0.0112991
0.000805054
0.0116876
0.000751617
0.01209
0.000697054
0.0125071
0.000641304
0.0129395
0.000584304
0.0133878
0.000525982
0.0138529
0.000466258
0.0143353
0.000405043
0.0148361
0.000342239
0.0153561
0.000277736
0.0158963
0.000211407
0.0164579
0.000143119
0.0170419
7.26995e-05
0.0176498
0.0182824
0.00201643
0.00497536
0.00198199
0.00514078
0.00194649
0.00531049
0.0019099
0.00548494
0.00187228
0.0056648
0.00183383
0.00585053
0.00179473
0.0060428
0.00175509
0.00624225
0.00171491
0.00644928
0.00167413
0.0066641
0.0016327
0.00688681
0.00159057
0.00711757
0.00154771
0.00735655
0.00150409
0.00760401
0.00145971
0.00786021
0.00141453
0.00812545
0.00136855
0.00840005
0.00132174
0.00868436
0.00127408
0.00897871
0.00122554
0.00928348
0.00117611
0.00959904
0.00112574
0.0099258
0.00107442
0.0102642
0.00102209
0.0106146
0.000968716
0.0109776
0.000914263
0.0113536
0.000858678
0.0117431
0.00080191
0.0121468
0.000743903
0.0125651
0.000684591
0.0129988
0.000623908
0.0134485
0.000561775
0.013915
0.000498108
0.014399
0.000432813
0.0149014
0.000365785
0.0154231
0.000296907
0.0159652
0.000226045
0.0165287
0.000153057
0.0171149
7.77626e-05
0.0177251
0.0183602
0.00212426
0.00500976
0.00208877
0.00517627
0.00205218
0.00534708
0.00201443
0.00552269
0.00197553
0.00570369
0.00193565
0.00589041
0.001895
0.00608345
0.00185371
0.00628354
0.00181181
0.00649118
0.00176926
0.00670664
0.00172601
0.00693007
0.00168199
0.00716158
0.00163718
0.00740137
0.00159153
0.00764965
0.00154504
0.0079067
0.00149768
0.00817281
0.00144943
0.0084483
0.00140027
0.00873352
0.00135017
0.00902881
0.00129911
0.00933453
0.00124707
0.00965109
0.001194
0.00997887
0.00113987
0.0103183
0.00108464
0.0106699
0.00102828
0.011034
0.000970733
0.0114112
0.000911947
0.0118019
0.00085187
0.0122069
0.000790441
0.0126266
0.000727591
0.0130617
0.000663248
0.0135129
0.00059733
0.0139809
0.000529748
0.0144666
0.0004604
0.0149707
0.000389177
0.0154943
0.000315953
0.0160384
0.000240589
0.0166041
0.000162932
0.0171925
8.27942e-05
0.0178052
0.018443
0.00223141
0.00504518
0.00219485
0.00521283
0.00215717
0.00538476
0.00211829
0.00556157
0.00207813
0.00574385
0.00203685
0.00593169
0.00199465
0.00612565
0.00195171
0.00632648
0.00190809
0.0065348
0.00186377
0.00675096
0.00181869
0.00697515
0.0017728
0.00720748
0.00172603
0.00744813
0.00167837
0.00769731
0.00162978
0.00795529
0.00158025
0.00822235
0.00152974
0.00849881
0.00147824
0.00878502
0.00142572
0.00908132
0.00137215
0.0093881
0.00131751
0.00970573
0.00126175
0.0100346
0.00120485
0.0103752
0.00114675
0.010728
0.00108741
0.0110933
0.00102679
0.0114718
0.000964824
0.0118639
0.000901461
0.0122702
0.000836634
0.0126914
0.000770272
0.013128
0.000702297
0.0135808
0.000632623
0.0140506
0.000561154
0.014538
0.000487785
0.0150441
0.000412398
0.0155697
0.000334862
0.016116
0.000255028
0.0166839
0.000172738
0.0172748
8.77906e-05
0.0178902
0.0185308
0.0023378
0.00508163
0.00230016
0.00525047
0.00226139
0.00542353
0.00222137
0.0056016
0.00217998
0.00578523
0.00213733
0.00597435
0.00209361
0.00616936
0.00204904
0.00637105
0.0020037
0.00658014
0.00195761
0.00679706
0.0019107
0.00702205
0.00186292
0.00725526
0.00181422
0.00749684
0.00176455
0.00774699
0.00171387
0.00800596
0.00166217
0.00827405
0.00160942
0.00855156
0.0015556
0.00883884
0.00150067
0.00913625
0.00144462
0.00944416
0.00138739
0.00976296
0.00132897
0.0100931
0.0012693
0.0104349
0.00120835
0.0107889
0.00114606
0.0111556
0.00108238
0.0115354
0.00101727
0.011929
0.000950646
0.0123369
0.000882449
0.0127596
0.000812604
0.0131979
0.000741026
0.0136524
0.000667627
0.014124
0.000592304
0.0146134
0.000514947
0.0151215
0.000435431
0.0156493
0.000353618
0.0161978
0.000269352
0.0167682
0.000182465
0.0173617
9.27482e-05
0.0179799
0.0186235
0.00244336
0.00511913
0.00240462
0.00528921
0.00236474
0.0054634
0.00232359
0.00564275
0.002281
0.00582783
0.00223701
0.00601834
0.00219181
0.00621456
0.00214562
0.00641724
0.00209857
0.00662719
0.0020507
0.00684493
0.00200196
0.00707078
0.00195231
0.00730491
0.00190167
0.00754747
0.00185
0.00779866
0.00179725
0.00805871
0.0017434
0.00832789
0.00168843
0.00860654
0.0016323
0.00889497
0.00157498
0.00919357
0.00151645
0.00950269
0.00145666
0.00982274
0.00139559
0.0101541
0.00133318
0.0104973
0.0012694
0.0108527
0.00120418
0.0112208
0.00113749
0.0116021
0.00106924
0.0119973
0.000999388
0.0124067
0.000927852
0.0128311
0.000854554
0.0132712
0.000779407
0.0137276
0.000702316
0.0142011
0.000623174
0.0146925
0.000541866
0.0152028
0.000458259
0.0157329
0.000372209
0.0162838
0.000283551
0.0168569
0.000192108
0.0174532
9.76631e-05
0.0180743
0.0187212
0.00254799
0.00515767
0.00250816
0.00532905
0.00246717
0.00550439
0.00242489
0.00568503
0.0023811
0.00587161
0.0023358
0.00606364
0.00228916
0.0062612
0.00224138
0.00646502
0.00219263
0.00667594
0.00214298
0.00689458
0.00209242
0.00712134
0.0020409
0.00735644
0.00198833
0.00760004
0.00193466
0.00785233
0.00187986
0.00811351
0.00182388
0.00838388
0.00176669
0.00866372
0.00170827
0.0089534
0.00164858
0.00925325
0.00158759
0.00956368
0.00152527
0.00988506
0.00146157
0.0102178
0.00139645
0.0105624
0.00132986
0.0109193
0.00126174
0.0112889
0.00119205
0.0116718
0.00112071
0.0120686
0.00104765
0.0124798
0.000972809
0.012906
0.000896092
0.0133479
0.00081741
0.0138063
0.000736664
0.0142818
0.000653742
0.0147754
0.000568521
0.015288
0.000480864
0.0158205
0.000390619
0.0163741
0.000297612
0.0169499
0.000201659
0.0175491
0.000102532
0.0181734
0.0188237
0.00265163
0.00519725
0.00261069
0.00536999
0.00256858
0.00554651
0.00252516
0.00572844
0.0024802
0.00591657
0.00243363
0.00611022
0.00238557
0.00630926
0.00233624
0.00651435
0.00228581
0.00672637
0.00223439
0.006946
0.00218201
0.00717372
0.00212861
0.00740984
0.00207412
0.00765453
0.00201848
0.00790797
0.00196163
0.00817037
0.00190353
0.00844197
0.00184415
0.0087231
0.00178346
0.00901409
0.00172142
0.00931529
0.001658
0.00962709
0.00159316
0.0099499
0.00152686
0.0102841
0.00145905
0.0106302
0.00138968
0.0109887
0.0013187
0.0113599
0.00124603
0.0117445
0.00117163
0.012143
0.0010954
0.012556
0.00101729
0.0129841
0.000937186
0.013428
0.000855008
0.0138884
0.000770646
0.0143662
0.000683984
0.0148621
0.000594894
0.0153771
0.00050323
0.0159122
0.000408835
0.0164685
0.000311527
0.0170472
0.000211111
0.0176495
0.000107351
0.0182772
0.0189311
0.00275419
0.00523784
0.00271215
0.00541203
0.00266891
0.00558975
0.00262436
0.005773
0.00257822
0.00596271
0.0025304
0.00615804
0.00248098
0.00635868
0.00243013
0.0065652
0.00237805
0.00677845
0.00232487
0.00699917
0.00227067
0.00722793
0.0022154
0.0074651
0.002159
0.00771093
0.00210139
0.00796558
0.00204251
0.00822925
0.00198231
0.00850217
0.00192076
0.00878466
0.00185782
0.00907703
0.00179345
0.00937966
0.00172763
0.00969292
0.0016603
0.0100172
0.00159142
0.010353
0.00152095
0.0107007
0.00144883
0.0110608
0.001375
0.0114337