# Probe 0 (2 -0.5 0)
# Probe 1 (2 0.5 0)
#       Probe             0             1
#        Time
        0.005      -12.0659      -12.0659
         0.01       1.16568       1.16568
        0.015    -0.0723217    -0.0723218
         0.02    -0.0740972    -0.0740972
        0.025    -0.0669997    -0.0669997
         0.03    -0.0590818    -0.0590818
        0.035    -0.0515916    -0.0515916
         0.04    -0.0448614    -0.0448614
        0.045    -0.0389296    -0.0389296
         0.05    -0.0337368    -0.0337368
        0.055    -0.0291994    -0.0291994
         0.06    -0.0252289    -0.0252289
        0.065    -0.0217441     -0.021744
         0.07    -0.0186727    -0.0186727
        0.075    -0.0159548    -0.0159548
         0.08    -0.0135395    -0.0135395
        0.085    -0.0113805    -0.0113805
         0.09   -0.00944389   -0.00944388
        0.095   -0.00769826   -0.00769827
          0.1    -0.0061182   -0.00611821
        0.105   -0.00468298   -0.00468299
         0.11   -0.00337386   -0.00337387
        0.115   -0.00217435   -0.00217436
         0.12   -0.00107368    -0.0010737
        0.125  -5.96246e-05  -5.96354e-05
         0.13   0.000878375   0.000878356
        0.135    0.00174794    0.00174793
         0.14    0.00255488    0.00255487
        0.145    0.00330694    0.00330693
         0.15    0.00400967    0.00400967
        0.155    0.00466694    0.00466693
         0.16    0.00528195    0.00528195
        0.165     0.0058603     0.0058603
         0.17     0.0064039    0.00640389
        0.175      0.006916    0.00691599
         0.18    0.00740002    0.00740001
        0.185    0.00785521    0.00785521
         0.19    0.00828681    0.00828681
        0.195    0.00869415    0.00869414
          0.2    0.00908055    0.00908055
        0.205    0.00944762    0.00944762
         0.21    0.00979537    0.00979537
        0.215     0.0101261     0.0101261
         0.22     0.0104398     0.0104398
        0.225     0.0107387     0.0107387
         0.23     0.0110249     0.0110249
        0.235      0.011297      0.011297
         0.24     0.0115562     0.0115562
        0.245     0.0118038     0.0118038
         0.25     0.0120411     0.0120411
        0.255     0.0122685     0.0122685
         0.26     0.0124856     0.0124857
        0.265     0.0126961     0.0126961
         0.27      0.012895      0.012895
        0.275     0.0130862     0.0130862
         0.28     0.0132708     0.0132708
        0.285     0.0134484     0.0134484
         0.29     0.0136191     0.0136191
        0.295     0.0137844     0.0137844
          0.3     0.0139421     0.0139421
        0.305     0.0140959     0.0140959
         0.31     0.0142421     0.0142421
        0.315     0.0143841     0.0143841
         0.32     0.0145216     0.0145216
        0.325     0.0146541     0.0146541
         0.33      0.014782      0.014782
        0.335     0.0149055     0.0149055
         0.34     0.0150257     0.0150257
        0.345     0.0151424     0.0151424
         0.35     0.0152548     0.0152548
        0.355     0.0153638     0.0153638
         0.36     0.0154681     0.0154681
        0.365     0.0155716     0.0155716
         0.37     0.0156712     0.0156712
        0.375     0.0157679     0.0157679
         0.38     0.0158619     0.0158619
        0.385     0.0159531     0.0159531
         0.39     0.0160417     0.0160418
        0.395     0.0161282     0.0161282
          0.4     0.0162128     0.0162128
        0.405     0.0162946     0.0162947
         0.41     0.0163742     0.0163742
        0.415     0.0164512     0.0164512
         0.42     0.0165272     0.0165272
        0.425     0.0166009     0.0166009
         0.43     0.0166739     0.0166739
        0.435     0.0167449     0.0167449
         0.44     0.0168131     0.0168131
        0.445     0.0168808     0.0168808
         0.45     0.0169456     0.0169457
        0.455     0.0170111     0.0170111
         0.46     0.0170741     0.0170741
        0.465      0.017136      0.017136
         0.47     0.0171963     0.0171963
        0.475     0.0172567     0.0172567
         0.48      0.017315      0.017315
        0.485      0.017373      0.017373
         0.49     0.0174289     0.0174289
        0.495      0.017484      0.017484
          0.5     0.0175385     0.0175385
        0.505     0.0175926     0.0175927
         0.51     0.0176452     0.0176452
        0.515     0.0176974     0.0176974
         0.52     0.0177482     0.0177482
        0.525     0.0177992     0.0177992
         0.53     0.0178484     0.0178484
        0.535     0.0178977     0.0178977
         0.54     0.0179467     0.0179467
        0.545     0.0179955     0.0179956
         0.55     0.0180424     0.0180424
        0.555     0.0180891     0.0180891
         0.56     0.0181357     0.0181357
        0.565     0.0181822     0.0181822
         0.57     0.0182276     0.0182276
        0.575     0.0182731     0.0182731
         0.58     0.0183184     0.0183184
        0.585     0.0183626     0.0183626
         0.59     0.0184076     0.0184076
        0.595     0.0184512     0.0184512
          0.6     0.0184948     0.0184948
        0.605     0.0185384     0.0185384
         0.61     0.0185823     0.0185823
        0.615     0.0186248     0.0186248
         0.62     0.0186677     0.0186677
        0.625     0.0187107     0.0187107
         0.63     0.0187532     0.0187533
        0.635     0.0187958     0.0187959
         0.64     0.0188376     0.0188376
        0.645     0.0188804     0.0188804
         0.65     0.0189222     0.0189222
        0.655     0.0189647     0.0189647
         0.66     0.0190067     0.0190067
        0.665     0.0190493     0.0190493
         0.67     0.0190919     0.0190919
        0.675     0.0191333     0.0191333
         0.68     0.0191766     0.0191766
        0.685     0.0192181     0.0192181
         0.69     0.0192599     0.0192599
        0.695     0.0193023     0.0193023
          0.7     0.0193443     0.0193443
        0.705     0.0193871     0.0193871
         0.71     0.0194299     0.0194299
        0.715     0.0194728     0.0194728
         0.72     0.0195157     0.0195157
        0.725     0.0195584     0.0195584
         0.73     0.0196014     0.0196014
        0.735     0.0196449     0.0196449
         0.74     0.0196886     0.0196886
        0.745     0.0197324     0.0197324
         0.75     0.0197772     0.0197772
        0.755     0.0198206     0.0198207
         0.76     0.0198653     0.0198653
        0.765     0.0199105     0.0199105
         0.77     0.0199528     0.0199528
        0.775     0.0199985     0.0199985
         0.78     0.0200432     0.0200432
        0.785     0.0200896     0.0200896
         0.79      0.020135      0.020135
        0.795     0.0201802     0.0201802
          0.8     0.0202264     0.0202264
        0.805     0.0202731     0.0202731
         0.81     0.0203213     0.0203213
        0.815     0.0203672     0.0203672
         0.82     0.0204154     0.0204154
        0.825     0.0204632     0.0204632
         0.83     0.0205094     0.0205094
        0.835      0.020561      0.020561
         0.84      0.020606      0.020606
        0.845     0.0206547     0.0206547
         0.85     0.0207035     0.0207035
        0.855     0.0207525     0.0207525
         0.86     0.0208038     0.0208038
        0.865     0.0208567     0.0208567
         0.87     0.0209044     0.0209044
        0.875     0.0209556     0.0209556
         0.88     0.0210061     0.0210061
        0.885     0.0210581     0.0210581
         0.89      0.021111      0.021111
        0.895     0.0211616     0.0211616
          0.9     0.0212144     0.0212144
        0.905     0.0212677     0.0212677
         0.91     0.0213214     0.0213214
        0.915     0.0213749     0.0213749
         0.92     0.0214282     0.0214283
        0.925     0.0214829     0.0214829
         0.93     0.0215372     0.0215372
        0.935     0.0215928     0.0215928
         0.94     0.0216479     0.0216479
        0.945     0.0217043     0.0217043
         0.95     0.0217605     0.0217605
        0.955     0.0218179     0.0218179
         0.96     0.0218736     0.0218736
        0.965     0.0219317     0.0219317
         0.97     0.0219896     0.0219897
        0.975      0.022046      0.022046
         0.98     0.0221031     0.0221031
        0.985     0.0221629     0.0221629
         0.99     0.0222213     0.0222213
        0.995     0.0222807     0.0222807
            1     0.0223416     0.0223416
        1.005     0.0224018     0.0224018
         1.01     0.0224614     0.0224614
        1.015     0.0225223     0.0225223
         1.02     0.0225827     0.0225827
        1.025     0.0226447     0.0226447
         1.03     0.0227065     0.0227065
        1.035     0.0227687     0.0227687
         1.04     0.0228356     0.0228356
        1.045     0.0228985     0.0228985
         1.05     0.0229571     0.0229571
        1.055     0.0230222     0.0230222
         1.06     0.0230845     0.0230845
        1.065     0.0231492     0.0231492
         1.07     0.0232148     0.0232148
        1.075     0.0232794     0.0232794
         1.08     0.0233449     0.0233449
        1.085     0.0234103     0.0234103
         1.09      0.023478      0.023478
        1.095     0.0235438     0.0235438
          1.1      0.023609      0.023609
        1.105     0.0236777     0.0236777
         1.11      0.023743      0.023743
        1.115     0.0238131     0.0238131
         1.12     0.0238784     0.0238784
        1.125     0.0239479     0.0239479
         1.13     0.0240166     0.0240166
        1.135     0.0240851     0.0240851
         1.14     0.0241565     0.0241565
        1.145     0.0242241     0.0242241
         1.15     0.0242954     0.0242954
        1.155     0.0243636     0.0243636
         1.16      0.024432      0.024432
        1.165     0.0245026     0.0245026
         1.17     0.0245739     0.0245739
        1.175      0.024645      0.024645
         1.18     0.0247211     0.0247211
        1.185     0.0247877     0.0247877
         1.19     0.0248607     0.0248607
        1.195     0.0249329     0.0249329
          1.2     0.0250059     0.0250059
        1.205     0.0250777     0.0250777
         1.21      0.025154      0.025154
        1.215     0.0252243     0.0252243
         1.22     0.0252978     0.0252978
        1.225     0.0253682     0.0253682
         1.23     0.0254469     0.0254469
        1.235     0.0255153     0.0255153
         1.24       0.02559       0.02559
        1.245     0.0256652     0.0256652
         1.25     0.0257424     0.0257424
        1.255     0.0258152     0.0258152
         1.26     0.0258905     0.0258905
        1.265     0.0259639     0.0259639
         1.27     0.0260394     0.0260394
        1.275     0.0261159     0.0261159
         1.28     0.0261908     0.0261908
        1.285     0.0262656     0.0262656
         1.29     0.0263417     0.0263417
        1.295     0.0264181     0.0264181
          1.3     0.0264948     0.0264948
        1.305     0.0265727     0.0265727
         1.31      0.026652      0.026652
        1.315     0.0267249     0.0267249
         1.32     0.0267984     0.0267984
        1.325     0.0268781     0.0268781
         1.33     0.0269518     0.0269518
        1.335     0.0270286     0.0270286
         1.34     0.0271061     0.0271061
        1.345     0.0271843     0.0271843
         1.35     0.0272662     0.0272661
        1.355      0.027336      0.027336
         1.36     0.0274139     0.0274139
        1.365     0.0274948     0.0274948
         1.37     0.0275689     0.0275689
        1.375     0.0276466     0.0276465
         1.38     0.0277274     0.0277274
        1.385     0.0278065     0.0278065
         1.39     0.0278775     0.0278775
        1.395     0.0279555     0.0279555
          1.4     0.0280337     0.0280336
        1.405     0.0281117     0.0281117
         1.41     0.0281899     0.0281899
        1.415     0.0282668     0.0282667
         1.42     0.0283446     0.0283446
        1.425     0.0284304     0.0284304
         1.43     0.0285025     0.0285025
        1.435     0.0285723     0.0285723
         1.44     0.0286499     0.0286499
        1.445     0.0287276     0.0287276
         1.45     0.0288054     0.0288054
        1.455     0.0288891     0.0288891
         1.46     0.0289582     0.0289582
        1.465     0.0290355     0.0290355
         1.47     0.0291124     0.0291124
        1.475     0.0291896     0.0291896
         1.48     0.0292668     0.0292668
        1.485     0.0293509     0.0293509
         1.49     0.0294184     0.0294184
        1.495      0.029497      0.029497
          1.5     0.0295688     0.0295688
        1.505     0.0296448     0.0296448
         1.51       0.02972       0.02972
        1.515     0.0297953     0.0297953
         1.52      0.029872     0.0298719
        1.525     0.0299517     0.0299517
         1.53     0.0300188     0.0300188
        1.535     0.0300929     0.0300929
         1.54     0.0301687     0.0301687
        1.545     0.0302472     0.0302472
         1.55      0.030315      0.030315
        1.555     0.0303878     0.0303878
         1.56      0.030462      0.030462
        1.565     0.0305434     0.0305434
         1.57     0.0306138     0.0306137
        1.575     0.0306764     0.0306764
         1.58     0.0307491     0.0307491
        1.585      0.030822      0.030822
         1.59     0.0308929     0.0308929
        1.595     0.0309646     0.0309646
          1.6     0.0310356     0.0310356
        1.605     0.0311066     0.0311066
         1.61     0.0311777     0.0311777
        1.615     0.0312601     0.0312601
         1.62     0.0313164     0.0313164
        1.625     0.0313837     0.0313837
         1.63     0.0314518     0.0314518
        1.635     0.0315192     0.0315192
         1.64     0.0315867     0.0315867
        1.645     0.0316544     0.0316543
         1.65     0.0317217     0.0317217
        1.655     0.0317899     0.0317899
         1.66     0.0318552     0.0318552
        1.665      0.031923      0.031923
         1.67     0.0319865     0.0319865
        1.675     0.0320516     0.0320516
         1.68     0.0321176     0.0321176
        1.685     0.0321777     0.0321776
         1.69     0.0322372     0.0322372
        1.695     0.0323026     0.0323026
          1.7     0.0323615     0.0323614
        1.705     0.0324234     0.0324234
         1.71     0.0324851     0.0324851
        1.715     0.0325545     0.0325545
         1.72     0.0326024     0.0326024
        1.725     0.0326622     0.0326621
         1.73     0.0327212     0.0327212
        1.735     0.0327788     0.0327788
         1.74     0.0328382     0.0328382
        1.745     0.0328955     0.0328955
         1.75      0.032952      0.032952
        1.755     0.0330129     0.0330129
         1.76     0.0330629     0.0330628
        1.765     0.0331173     0.0331173
         1.77     0.0331657     0.0331657
        1.775     0.0332179     0.0332179
         1.78     0.0332707     0.0332707
        1.785     0.0333235     0.0333235
         1.79     0.0333733     0.0333733
        1.795     0.0334235     0.0334235
          1.8     0.0334729     0.0334729
        1.805     0.0335221     0.0335221
         1.81     0.0335702     0.0335702
        1.815     0.0336181     0.0336181
         1.82     0.0336678     0.0336678
        1.825     0.0337122     0.0337122
         1.83     0.0337555     0.0337555
        1.835     0.0337979     0.0337979
         1.84     0.0338409     0.0338409
        1.845     0.0338822     0.0338822
         1.85      0.033924      0.033924
        1.855     0.0339655     0.0339655
         1.86     0.0340083     0.0340083
        1.865     0.0340458     0.0340458
         1.87     0.0340862     0.0340862
        1.875      0.034117      0.034117
         1.88     0.0341553     0.0341553
        1.885     0.0342017     0.0342017
         1.89     0.0342257     0.0342257
        1.895     0.0342565     0.0342565
          1.9     0.0342881     0.0342881
        1.905     0.0343205     0.0343204
         1.91     0.0343525     0.0343525
        1.915      0.034383      0.034383
         1.92     0.0344166     0.0344166
        1.925     0.0344514     0.0344514
         1.93     0.0344655     0.0344655
        1.935     0.0344918     0.0344918
         1.94     0.0345182     0.0345182
        1.945     0.0345428     0.0345428
         1.95     0.0345659     0.0345659
        1.955     0.0345881     0.0345881
         1.96     0.0346088     0.0346088
        1.965     0.0346296     0.0346296
         1.97     0.0346502     0.0346502
        1.975     0.0346721     0.0346721
         1.98     0.0346915     0.0346915
        1.985     0.0346995     0.0346995
         1.99     0.0347148     0.0347147
        1.995     0.0347294     0.0347294
            2     0.0347419     0.0347419
        2.005      0.034754      0.034754
         2.01     0.0347735     0.0347735
        2.015      0.034774      0.034774
         2.02     0.0347829     0.0347829
        2.025     0.0347911     0.0347911
         2.03      0.034802      0.034802
        2.035     0.0348026     0.0348026
         2.04     0.0348075     0.0348074
        2.045     0.0348125     0.0348125
         2.05     0.0348263     0.0348263
        2.055     0.0348105     0.0348105
         2.06     0.0348111      0.034811
        2.065     0.0348112     0.0348112
         2.07     0.0348201       0.03482
        2.075     0.0348147     0.0348147
         2.08     0.0347931     0.0347931
        2.085     0.0347849     0.0347849
         2.09     0.0347778     0.0347778
        2.095     0.0347705     0.0347704
          2.1     0.0347619     0.0347619
        2.105     0.0347557     0.0347557
         2.11      0.034744     0.0347439
        2.115     0.0347228     0.0347228
         2.12     0.0347111     0.0347111
        2.125     0.0346912     0.0346912
         2.13     0.0346768     0.0346767
        2.135     0.0346575     0.0346575
         2.14     0.0346343     0.0346343
        2.145      0.034614     0.0346139
         2.15     0.0345921     0.0345921
        2.155     0.0345709     0.0345709
         2.16     0.0345449     0.0345449
        2.165     0.0345144     0.0345144
         2.17     0.0344863     0.0344863
        2.175     0.0344574     0.0344574
         2.18      0.034428      0.034428
        2.185     0.0343958     0.0343957
         2.19     0.0343628     0.0343628
        2.195     0.0343287     0.0343286
          2.2     0.0342924     0.0342923
        2.205     0.0342547     0.0342546
         2.21     0.0342179     0.0342178
        2.215      0.034179     0.0341789
         2.22     0.0341402     0.0341402
        2.225     0.0341155     0.0341155
         2.23     0.0340452     0.0340452
        2.235     0.0340006     0.0340006
         2.24     0.0339546     0.0339546
        2.245     0.0339065     0.0339064
         2.25     0.0338574     0.0338573
        2.255     0.0338071     0.0338071
         2.26     0.0337536     0.0337535
        2.265     0.0336992     0.0336991
         2.27     0.0336442     0.0336441
        2.275      0.033588     0.0335879
         2.28     0.0335304     0.0335304
        2.285     0.0334719     0.0334719
         2.29     0.0334121     0.0334121
        2.295     0.0333544     0.0333543
          2.3     0.0332929     0.0332929
        2.305     0.0332165     0.0332164
         2.31     0.0331552     0.0331552
        2.315     0.0330883     0.0330883
         2.32     0.0330152     0.0330151
        2.325     0.0329561      0.032956
         2.33     0.0328655     0.0328655
        2.335     0.0327868     0.0327868
         2.34     0.0327127     0.0327126
        2.345     0.0326387     0.0326386
         2.35     0.0325875     0.0325874
        2.355     0.0324971      0.032497
         2.36     0.0323849     0.0323848
        2.365     0.0323017     0.0323017
         2.37     0.0322168     0.0322168
        2.375     0.0321309     0.0321309
         2.38     0.0320438     0.0320438
        2.385     0.0319548     0.0319547
         2.39     0.0318648     0.0318648
        2.395     0.0317734     0.0317733
          2.4     0.0316819     0.0316818
        2.405     0.0315967     0.0315967
         2.41     0.0314999     0.0314999
        2.415     0.0313816     0.0313815
         2.42     0.0312796     0.0312796
        2.425     0.0311769     0.0311769
         2.43     0.0310729     0.0310728
        2.435     0.0309678     0.0309677
         2.44     0.0308611      0.030861
        2.445     0.0307528     0.0307528
         2.45     0.0306431      0.030643
        2.455     0.0305325     0.0305324
         2.46     0.0304193     0.0304193
        2.465     0.0303032     0.0303031
         2.47      0.030185      0.030185
        2.475     0.0300675     0.0300675
         2.48     0.0299476     0.0299476
        2.485      0.029827      0.029827
         2.49     0.0297067     0.0297066
        2.495     0.0295944     0.0295944
          2.5      0.029462      0.029462
        2.505     0.0292816     0.0292816
         2.51     0.0291842     0.0291842
        2.515     0.0290531     0.0290531
         2.52     0.0289193     0.0289193
        2.525     0.0287835     0.0287835
         2.53     0.0286444     0.0286443
        2.535     0.0284835     0.0284834
         2.54     0.0283785     0.0283785
        2.545     0.0282595     0.0282595
         2.55     0.0280862     0.0280862
        2.555     0.0279459     0.0279459
         2.56     0.0277921      0.027792
        2.565     0.0276406     0.0276406
         2.57     0.0274882     0.0274882
        2.575     0.0273361      0.027336
         2.58     0.0271823     0.0271823
        2.585     0.0270258     0.0270257
         2.59     0.0268679     0.0268679
        2.595     0.0267059     0.0267059
          2.6     0.0265382     0.0265382
        2.605     0.0263611     0.0263611
         2.61     0.0262295     0.0262295
        2.615     0.0260655     0.0260654
         2.62     0.0259018     0.0259017
        2.625     0.0257445     0.0257444
         2.63     0.0255867     0.0255867
        2.635     0.0253624     0.0253624
         2.64     0.0251865     0.0251864
        2.645     0.0250136     0.0250135
         2.65     0.0248261      0.024826
        2.655     0.0246445     0.0246445
         2.66     0.0244623     0.0244622
        2.665      0.024278      0.024278
         2.67     0.0240917     0.0240916
        2.675      0.023904     0.0239039
         2.68      0.023715     0.0237149
        2.685     0.0235424     0.0235424
         2.69     0.0233262     0.0233261
        2.695     0.0231299     0.0231298
          2.7     0.0229313     0.0229312
        2.705     0.0227281     0.0227281
         2.71     0.0224995     0.0224994
        2.715     0.0223444     0.0223443
         2.72     0.0221708     0.0221708
        2.725      0.021922      0.021922
         2.73      0.021713      0.021713
        2.735     0.0215021     0.0215021
         2.74     0.0212898     0.0212897
        2.745     0.0210759     0.0210758
         2.75      0.020862     0.0208619
        2.755     0.0206421     0.0206421
         2.76     0.0204212     0.0204212
        2.765     0.0201996     0.0201996
         2.77     0.0199763     0.0199762
        2.775     0.0197515     0.0197514
         2.78     0.0195278     0.0195278
        2.785     0.0193052     0.0193051
         2.79     0.0190919     0.0190918
        2.795     0.0188547     0.0188546
          2.8      0.018587     0.0185869
        2.805     0.0183517     0.0183516
         2.81     0.0181096     0.0181096
        2.815     0.0178905     0.0178905
         2.82     0.0176565     0.0176565
        2.825     0.0173627     0.0173626
         2.83     0.0171107     0.0171107
        2.835     0.0168613     0.0168613
         2.84     0.0166115     0.0166115
        2.845     0.0163597     0.0163596
         2.85     0.0161055     0.0161055
        2.855      0.015849      0.015849
         2.86     0.0155889     0.0155888
        2.865     0.0153049     0.0153049
         2.87     0.0150896     0.0150896
        2.875     0.0148102     0.0148101
         2.88     0.0145449     0.0145448
        2.885     0.0142775     0.0142775
         2.89     0.0140096     0.0140095
        2.895     0.0137413     0.0137413
          2.9     0.0134753     0.0134753
        2.905     0.0132285     0.0132284
         2.91     0.0129265     0.0129265
        2.915     0.0125972     0.0125972
         2.92     0.0123149     0.0123148
        2.925     0.0120316     0.0120316
         2.93     0.0117457     0.0117457
        2.935     0.0114581      0.011458
         2.94     0.0111688     0.0111688
        2.945     0.0108763     0.0108762
         2.95     0.0105815     0.0105814
        2.955     0.0102846     0.0102845
         2.96    0.00998614    0.00998611
        2.965    0.00968642    0.00968639
         2.97    0.00938429    0.00938426
        2.975    0.00908106    0.00908103
         2.98    0.00877821    0.00877818
        2.985     0.0084957    0.00849568
         2.99    0.00814858    0.00814855
        2.995     0.0078354    0.00783537
            3    0.00752131    0.00752128
        3.005    0.00720507    0.00720504
         3.01    0.00688666    0.00688663
        3.015    0.00656618    0.00656616
         3.02     0.0062438    0.00624377
        3.025     0.0059198    0.00591978
         3.03    0.00559313    0.00559311
        3.035    0.00526441    0.00526439
         3.04    0.00493386    0.00493384
        3.045    0.00460191    0.00460188
         3.05    0.00426842     0.0042684
        3.055    0.00393361    0.00393359
         3.06    0.00359816    0.00359815
        3.065    0.00326343    0.00326341
         3.07    0.00293515    0.00293513
        3.075    0.00260008    0.00260007
         3.08    0.00218819    0.00218818
        3.085    0.00182424    0.00182423
         3.09    0.00146995    0.00146993
        3.095    0.00109969    0.00109968
          3.1    0.00079662   0.000796605
        3.105   0.000473829   0.000473818
         3.11   6.27145e-05   6.27029e-05
        3.115  -0.000291799   -0.00029181
         3.12  -0.000654345  -0.000654351
        3.125   -0.00104747   -0.00104747
         3.13   -0.00143841   -0.00143841
        3.135   -0.00180628   -0.00180629
         3.14   -0.00217712   -0.00217713
        3.145   -0.00255009   -0.00255009
         3.15   -0.00292441   -0.00292441
        3.155   -0.00330395   -0.00330396
         3.16   -0.00368364   -0.00368364
        3.165   -0.00406538   -0.00406538
         3.17   -0.00444889   -0.00444889
        3.175   -0.00483345   -0.00483344
         3.18    -0.0052145    -0.0052145
        3.185   -0.00559436   -0.00559435
         3.19   -0.00601568   -0.00601568
        3.195   -0.00641142   -0.00641141
          3.2   -0.00680883   -0.00680882
        3.205   -0.00720891    -0.0072089
         3.21   -0.00761061    -0.0076106
        3.215   -0.00801536   -0.00801535
         3.22   -0.00842017   -0.00842016
        3.225    -0.0088283   -0.00882829
         3.23   -0.00923996   -0.00923994
        3.235   -0.00966168   -0.00966166
         3.24    -0.0100611    -0.0100611
        3.245    -0.0104725    -0.0104725
         3.25    -0.0108905    -0.0108905
        3.255    -0.0113098    -0.0113098
         3.26    -0.0117308    -0.0117308
        3.265    -0.0121534    -0.0121534
         3.27    -0.0125762    -0.0125762
        3.275    -0.0129971    -0.0129971
         3.28     -0.013393     -0.013393
        3.285    -0.0138841     -0.013884
         3.29     -0.014324     -0.014324
        3.295    -0.0147565    -0.0147564
          3.3    -0.0151869    -0.0151869
        3.305    -0.0156199    -0.0156199
         3.31    -0.0160262    -0.0160261
        3.315     -0.016515     -0.016515
         3.32    -0.0169529    -0.0169529
        3.325     -0.017416     -0.017416
         3.33    -0.0179047    -0.0179046
        3.335    -0.0183838    -0.0183838
         3.34    -0.0188357    -0.0188357
        3.345    -0.0192913    -0.0192913
         3.35    -0.0197483    -0.0197482
        3.355    -0.0202085    -0.0202084
         3.36    -0.0206692    -0.0206691
        3.365    -0.0211328    -0.0211328
         3.37    -0.0215985    -0.0215985
        3.375    -0.0220656    -0.0220655
         3.38    -0.0225344    -0.0225343
        3.385    -0.0230028    -0.0230028
         3.39    -0.0234661     -0.023466
        3.395    -0.0239683    -0.0239683
          3.4    -0.0244461    -0.0244461
        3.405    -0.0249281     -0.024928
         3.41     -0.025411    -0.0254109
        3.415     -0.025896     -0.025896
         3.42    -0.0263838    -0.0263838
        3.425    -0.0268735    -0.0268734
         3.43    -0.0273646    -0.0273645
        3.435     -0.027858     -0.027858
         3.44    -0.0283527    -0.0283526
        3.445    -0.0288497    -0.0288497
         3.45    -0.0293493    -0.0293492
        3.455    -0.0298501    -0.0298501
         3.46    -0.0303527    -0.0303526
        3.465    -0.0308607    -0.0308607
         3.47    -0.0313704    -0.0313703
        3.475    -0.0318917    -0.0318916
         3.48    -0.0323924    -0.0323923
        3.485    -0.0328659    -0.0328658
         3.49    -0.0333758    -0.0333757
        3.495    -0.0338759    -0.0338758
          3.5    -0.0343996    -0.0343995
        3.505    -0.0349677    -0.0349676
         3.51    -0.0354824    -0.0354823
        3.515    -0.0360067    -0.0360067
         3.52    -0.0365219    -0.0365218
        3.525    -0.0370267    -0.0370266
         3.53    -0.0375966    -0.0375965
        3.535    -0.0381201      -0.03812
         3.54    -0.0386303    -0.0386302
        3.545    -0.0391936    -0.0391935
         3.55    -0.0397659    -0.0397658
        3.555    -0.0403023    -0.0403022