# Probe 0 (2 -0.5 0)
# Probe 1 (2 0.5 0)
#       Probe             0             1
#        Time
        0.005             (0.950738 0.0457148 -2.21218e-18)             (0.950738 -0.0457148 2.21218e-18)
         0.01             (0.95277 0.0338135 2.13953e-19)             (0.95277 -0.0338135 -2.13953e-19)
        0.015             (0.952793 0.0330404 -1.32245e-20)             (0.952793 -0.0330404 1.32246e-20)
         0.02             (0.952725 0.0325717 -1.35518e-20)             (0.952725 -0.0325717 1.35518e-20)
        0.025             (0.952614 0.0322684 -1.22545e-20)             (0.952614 -0.0322684 1.22545e-20)
         0.03             (0.95248 0.0320669 -1.08064e-20)             (0.95248 -0.0320669 1.08064e-20)
        0.035             (0.952334 0.0319337 -9.43627e-21)             (0.952334 -0.0319337 9.43627e-21)
         0.04             (0.95218 0.031849 -8.20501e-21)             (0.95218 -0.031849 8.20501e-21)
        0.045             (0.952021 0.0318004 -7.11974e-21)             (0.952021 -0.0318004 7.11974e-21)
         0.05             (0.951859 0.0317795 -6.16962e-21)             (0.951859 -0.0317795 6.16962e-21)
        0.055             (0.951694 0.0317802 -5.33939e-21)             (0.951694 -0.0317802 5.33939e-21)
         0.06             (0.951526 0.0317984 -4.61287e-21)             (0.951526 -0.0317984 4.61287e-21)
        0.065             (0.951358 0.0318307 -3.97519e-21)             (0.951358 -0.0318307 3.97519e-21)
         0.07             (0.951188 0.0318747 -3.41316e-21)             (0.951188 -0.0318747 3.41316e-21)
        0.075             (0.951017 0.0319285 -2.9158e-21)             (0.951017 -0.0319285 2.9158e-21)
         0.08             (0.950846 0.0319906 -2.47381e-21)             (0.950846 -0.0319906 2.47381e-21)
        0.085             (0.950674 0.0320596 -2.07871e-21)             (0.950674 -0.0320596 2.07871e-21)
         0.09             (0.950502 0.0321345 -1.72429e-21)             (0.950502 -0.0321345 1.72429e-21)
        0.095             (0.950329 0.0322146 -1.40482e-21)             (0.950329 -0.0322146 1.40482e-21)
          0.1             (0.950156 0.0322991 -1.11564e-21)             (0.950156 -0.0322991 1.11564e-21)
        0.105             (0.949984 0.0323875 -8.52961e-22)             (0.949984 -0.0323875 8.52962e-22)
         0.11             (0.949811 0.0324793 -6.13355e-22)             (0.949811 -0.0324793 6.13357e-22)
        0.115             (0.949638 0.032574 -3.93802e-22)             (0.949638 -0.032574 3.93804e-22)
         0.12             (0.949465 0.0326713 -1.92336e-22)             (0.949465 -0.0326713 1.92338e-22)
        0.125             (0.949293 0.032771 -6.71512e-24)             (0.949293 -0.032771 6.7171e-24)
         0.13             (0.94912 0.0328727 1.6499e-22)             (0.94912 -0.0328727 -1.64987e-22)
        0.135             (0.948948 0.0329762 3.24175e-22)             (0.948948 -0.0329762 -3.24173e-22)
         0.14             (0.948776 0.0330815 4.71894e-22)             (0.948776 -0.0330815 -4.71892e-22)
        0.145             (0.948604 0.0331883 6.09562e-22)             (0.948604 -0.0331883 -6.0956e-22)
         0.15             (0.948433 0.0332965 7.38205e-22)             (0.948433 -0.0332965 -7.38203e-22)
        0.155             (0.948261 0.033406 8.58528e-22)             (0.948261 -0.033406 -8.58527e-22)
         0.16             (0.94809 0.0335168 9.71122e-22)             (0.94809 -0.0335168 -9.7112e-22)
        0.165             (0.94792 0.0336288 1.077e-21)             (0.94792 -0.0336288 -1.077e-21)
         0.17             (0.947749 0.0337418 1.17653e-21)             (0.947749 -0.0337418 -1.17653e-21)
        0.175             (0.947579 0.0338559 1.27028e-21)             (0.947579 -0.0338559 -1.27028e-21)
         0.18             (0.947409 0.033971 1.3589e-21)             (0.947409 -0.033971 -1.3589e-21)
        0.185             (0.947239 0.034087 1.44224e-21)             (0.947239 -0.034087 -1.44224e-21)
         0.19             (0.947069 0.034204 1.52126e-21)             (0.947069 -0.034204 -1.52126e-21)
        0.195             (0.9469 0.0343218 1.59584e-21)             (0.9469 -0.0343218 -1.59584e-21)
          0.2             (0.946731 0.0344405 1.66659e-21)             (0.946731 -0.0344405 -1.66659e-21)
        0.205             (0.946561 0.0345599 1.7338e-21)             (0.946561 -0.0345599 -1.7338e-21)
         0.21             (0.946392 0.0346802 1.79747e-21)             (0.946392 -0.0346802 -1.79747e-21)
        0.215             (0.946223 0.0348012 1.85803e-21)             (0.946223 -0.0348012 -1.85803e-21)
         0.22             (0.946055 0.0349229 1.91547e-21)             (0.946055 -0.0349229 -1.91547e-21)
        0.225             (0.945886 0.0350454 1.9702e-21)             (0.945886 -0.0350454 -1.9702e-21)
         0.23             (0.945717 0.0351686 2.02261e-21)             (0.945717 -0.0351686 -2.02261e-21)
        0.235             (0.945548 0.0352924 2.07243e-21)             (0.945548 -0.0352924 -2.07243e-21)
         0.24             (0.94538 0.035417 2.1199e-21)             (0.94538 -0.035417 -2.1199e-21)
        0.245             (0.945211 0.0355423 2.16524e-21)             (0.945211 -0.0355423 -2.16524e-21)
         0.25             (0.945043 0.0356682 2.20869e-21)             (0.945043 -0.0356682 -2.20869e-21)
        0.255             (0.944874 0.0357948 2.25033e-21)             (0.944874 -0.0357948 -2.25033e-21)
         0.26             (0.944705 0.0359221 2.2901e-21)             (0.944705 -0.0359221 -2.2901e-21)
        0.265             (0.944537 0.03605 2.32863e-21)             (0.944537 -0.03605 -2.32864e-21)
         0.27             (0.944368 0.0361786 2.36507e-21)             (0.944368 -0.0361786 -2.36507e-21)
        0.275             (0.944199 0.0363079 2.40009e-21)             (0.944199 -0.0363079 -2.40009e-21)
         0.28             (0.94403 0.0364379 2.43388e-21)             (0.94403 -0.0364379 -2.43388e-21)
        0.285             (0.943861 0.0365685 2.46642e-21)             (0.943861 -0.0365685 -2.46642e-21)
         0.29             (0.943691 0.0366998 2.49769e-21)             (0.943691 -0.0366998 -2.49769e-21)
        0.295             (0.943522 0.0368318 2.52796e-21)             (0.943522 -0.0368318 -2.52796e-21)
          0.3             (0.943352 0.0369644 2.55685e-21)             (0.943352 -0.0369644 -2.55685e-21)
        0.305             (0.943182 0.0370977 2.58501e-21)             (0.943182 -0.0370977 -2.58501e-21)
         0.31             (0.943012 0.0372317 2.6118e-21)             (0.943012 -0.0372317 -2.6118e-21)
        0.315             (0.942842 0.0373664 2.63779e-21)             (0.942842 -0.0373664 -2.63779e-21)
         0.32             (0.942671 0.0375018 2.66299e-21)             (0.942671 -0.0375018 -2.663e-21)
        0.325             (0.942501 0.0376379 2.68727e-21)             (0.942501 -0.0376379 -2.68727e-21)
         0.33             (0.942329 0.0377747 2.71068e-21)             (0.94233 -0.0377747 -2.71068e-21)
        0.335             (0.942158 0.0379122 2.73331e-21)             (0.942158 -0.0379122 -2.73331e-21)
         0.34             (0.941986 0.0380503 2.75533e-21)             (0.941986 -0.0380503 -2.75533e-21)
        0.345             (0.941815 0.0381892 2.77671e-21)             (0.941815 -0.0381892 -2.77671e-21)
         0.35             (0.941642 0.0383288 2.7973e-21)             (0.941642 -0.0383288 -2.7973e-21)
        0.355             (0.94147 0.0384691 2.81726e-21)             (0.94147 -0.0384692 -2.81726e-21)
         0.36             (0.941297 0.0386102 2.83637e-21)             (0.941297 -0.0386102 -2.83637e-21)
        0.365             (0.941123 0.038752 2.85534e-21)             (0.941123 -0.038752 -2.85534e-21)
         0.37             (0.94095 0.0388944 2.87358e-21)             (0.94095 -0.0388944 -2.87358e-21)
        0.375             (0.940776 0.0390377 2.89129e-21)             (0.940776 -0.0390377 -2.89129e-21)
         0.38             (0.940601 0.0391816 2.90852e-21)             (0.940601 -0.0391816 -2.90852e-21)
        0.385             (0.940426 0.0393263 2.92523e-21)             (0.940426 -0.0393263 -2.92523e-21)
         0.39             (0.940251 0.0394717 2.94147e-21)             (0.940251 -0.0394717 -2.94147e-21)
        0.395             (0.940075 0.0396178 2.95731e-21)             (0.940075 -0.0396179 -2.95731e-21)
          0.4             (0.939899 0.0397647 2.97281e-21)             (0.939899 -0.0397647 -2.97281e-21)
        0.405             (0.939723 0.0399124 2.9878e-21)             (0.939723 -0.0399124 -2.9878e-21)
         0.41             (0.939546 0.0400608 3.00238e-21)             (0.939546 -0.0400608 -3.00238e-21)
        0.415             (0.939368 0.0402099 3.01648e-21)             (0.939368 -0.0402099 -3.01649e-21)
         0.42             (0.93919 0.0403598 3.0304e-21)             (0.93919 -0.0403598 -3.0304e-21)
        0.425             (0.939012 0.0405104 3.0439e-21)             (0.939012 -0.0405104 -3.0439e-21)
         0.43             (0.938833 0.0406618 3.05728e-21)             (0.938833 -0.0406618 -3.05728e-21)
        0.435             (0.938654 0.040814 3.07028e-21)             (0.938654 -0.040814 -3.07029e-21)
         0.44             (0.938474 0.0409669 3.08278e-21)             (0.938474 -0.0409669 -3.08278e-21)
        0.445             (0.938293 0.0411206 3.09519e-21)             (0.938293 -0.0411206 -3.09519e-21)
         0.45             (0.938113 0.041275 3.10706e-21)             (0.938113 -0.041275 -3.10707e-21)
        0.455             (0.937931 0.0414302 3.11905e-21)             (0.937931 -0.0414302 -3.11905e-21)
         0.46             (0.937749 0.0415861 3.1306e-21)             (0.937749 -0.0415861 -3.1306e-21)
        0.465             (0.937567 0.0417428 3.14194e-21)             (0.937567 -0.0417428 -3.14194e-21)
         0.47             (0.937384 0.0419003 3.15299e-21)             (0.937384 -0.0419003 -3.15299e-21)
        0.475             (0.9372 0.0420585 3.16405e-21)             (0.9372 -0.0420585 -3.16405e-21)
         0.48             (0.937016 0.0422175 3.17472e-21)             (0.937016 -0.0422175 -3.17472e-21)
        0.485             (0.936832 0.0423772 3.18535e-21)             (0.936832 -0.0423772 -3.18535e-21)
         0.49             (0.936647 0.0425377 3.1956e-21)             (0.936647 -0.0425377 -3.1956e-21)
        0.495             (0.936461 0.042699 3.20569e-21)             (0.936461 -0.042699 -3.20569e-21)
          0.5             (0.936275 0.0428611 3.21567e-21)             (0.936275 -0.0428611 -3.21567e-21)
        0.505             (0.936088 0.0430239 3.22558e-21)             (0.936088 -0.0430239 -3.22558e-21)
         0.51             (0.935901 0.0431875 3.2352e-21)             (0.935901 -0.0431875 -3.2352e-21)
        0.515             (0.935713 0.0433518 3.24477e-21)             (0.935713 -0.0433518 -3.24477e-21)
         0.52             (0.935524 0.0435169 3.25408e-21)             (0.935524 -0.0435169 -3.25408e-21)
        0.525             (0.935335 0.0436828 3.26341e-21)             (0.935335 -0.0436828 -3.26342e-21)
         0.53             (0.935145 0.0438495 3.27243e-21)             (0.935145 -0.0438495 -3.27243e-21)
        0.535             (0.934955 0.0440169 3.28144e-21)             (0.934955 -0.0440169 -3.28145e-21)
         0.54             (0.934764 0.0441851 3.29042e-21)             (0.934764 -0.0441851 -3.29042e-21)
        0.545             (0.934573 0.0443541 3.29937e-21)             (0.934573 -0.0443541 -3.29937e-21)
         0.55             (0.934381 0.0445238 3.30795e-21)             (0.934381 -0.0445238 -3.30795e-21)
        0.555             (0.934188 0.0446944 3.31649e-21)             (0.934188 -0.0446944 -3.31649e-21)
         0.56             (0.933995 0.0448657 3.32504e-21)             (0.933995 -0.0448657 -3.32504e-21)
        0.565             (0.933801 0.0450378 3.33354e-21)             (0.933801 -0.0450378 -3.33354e-21)
         0.57             (0.933607 0.0452106 3.34186e-21)             (0.933607 -0.0452106 -3.34186e-21)
        0.575             (0.933412 0.0453843 3.35019e-21)             (0.933412 -0.0453843 -3.35019e-21)
         0.58             (0.933216 0.0455587 3.35848e-21)             (0.933216 -0.0455587 -3.35848e-21)
        0.585             (0.93302 0.045734 3.36658e-21)             (0.93302 -0.045734 -3.36658e-21)
         0.59             (0.932823 0.04591 3.3748e-21)             (0.932823 -0.04591 -3.3748e-21)
        0.595             (0.932625 0.0460868 3.38278e-21)             (0.932625 -0.0460869 -3.38278e-21)
          0.6             (0.932427 0.0462645 3.39077e-21)             (0.932427 -0.0462645 -3.39078e-21)
        0.605             (0.932229 0.0464429 3.39875e-21)             (0.932229 -0.0464429 -3.39875e-21)
         0.61             (0.93203 0.0466222 3.40679e-21)             (0.93203 -0.0466222 -3.4068e-21)
        0.615             (0.93183 0.0468023 3.41457e-21)             (0.93183 -0.0468023 -3.41457e-21)
         0.62             (0.931629 0.0469831 3.42241e-21)             (0.931629 -0.0469832 -3.42241e-21)
        0.625             (0.931428 0.0471649 3.4303e-21)             (0.931428 -0.0471649 -3.4303e-21)
         0.63             (0.931227 0.0473474 3.43808e-21)             (0.931227 -0.0473474 -3.43808e-21)
        0.635             (0.931024 0.0475308 3.44588e-21)             (0.931024 -0.0475308 -3.44588e-21)
         0.64             (0.930821 0.047715 3.45352e-21)             (0.930821 -0.0477151 -3.45352e-21)
        0.645             (0.930618 0.0479001 3.46135e-21)             (0.930618 -0.0479001 -3.46136e-21)
         0.65             (0.930414 0.0480861 3.46899e-21)             (0.930414 -0.0480861 -3.46899e-21)
        0.655             (0.930209 0.0482729 3.47678e-21)             (0.930209 -0.0482729 -3.47678e-21)
         0.66             (0.930004 0.0484606 3.48446e-21)             (0.930004 -0.0484606 -3.48446e-21)
        0.665             (0.929798 0.0486492 3.49225e-21)             (0.929798 -0.0486492 -3.49225e-21)
         0.67             (0.929592 0.0488387 3.50005e-21)             (0.929592 -0.0488387 -3.50005e-21)
        0.675             (0.929385 0.049029 3.50762e-21)             (0.929385 -0.049029 -3.50762e-21)
         0.68             (0.929177 0.0492203 3.51555e-21)             (0.929177 -0.0492203 -3.51555e-21)
        0.685             (0.928969 0.0494125 3.52314e-21)             (0.928969 -0.0494125 -3.52314e-21)
         0.69             (0.92876 0.0496057 3.53079e-21)             (0.92876 -0.0496057 -3.53079e-21)
        0.695             (0.928551 0.0497998 3.53855e-21)             (0.928551 -0.0497998 -3.53855e-21)
          0.7             (0.928341 0.0499948 3.54623e-21)             (0.928341 -0.0499948 -3.54623e-21)
        0.705             (0.928131 0.0501908 3.55406e-21)             (0.928131 -0.0501908 -3.55406e-21)
         0.71             (0.92792 0.0503878 3.5619e-21)             (0.92792 -0.0503878 -3.5619e-21)
        0.715             (0.927708 0.0505858 3.56974e-21)             (0.927708 -0.0505858 -3.56974e-21)
         0.72             (0.927496 0.0507848 3.5776e-21)             (0.927496 -0.0507848 -3.5776e-21)
        0.725             (0.927283 0.0509848 3.58539e-21)             (0.927283 -0.0509848 -3.58539e-21)
         0.73             (0.92707 0.0511858 3.59326e-21)             (0.92707 -0.0511858 -3.59326e-21)
        0.735             (0.926856 0.0513879 3.60122e-21)             (0.926856 -0.0513879 -3.60122e-21)
         0.74             (0.926641 0.051591 3.60922e-21)             (0.926641 -0.0515911 -3.60922e-21)
        0.745             (0.926426 0.0517952 3.61723e-21)             (0.926426 -0.0517953 -3.61723e-21)
         0.75             (0.926211 0.0520005 3.62542e-21)             (0.926211 -0.0520005 -3.62542e-21)
        0.755             (0.925995 0.0522069 3.63336e-21)             (0.925995 -0.0522069 -3.63337e-21)
         0.76             (0.925778 0.0524144 3.64153e-21)             (0.925778 -0.0524144 -3.64153e-21)
        0.765             (0.925561 0.0526231 3.6498e-21)             (0.925561 -0.0526231 -3.6498e-21)
         0.77             (0.925343 0.0528329 3.65754e-21)             (0.925343 -0.0528329 -3.65754e-21)
        0.775             (0.925125 0.0530438 3.66589e-21)             (0.925125 -0.0530438 -3.66589e-21)
         0.78             (0.924906 0.0532559 3.67405e-21)             (0.924906 -0.0532559 -3.67405e-21)
        0.785             (0.924687 0.0534692 3.68254e-21)             (0.924687 -0.0534693 -3.68254e-21)
         0.79             (0.924467 0.0536838 3.69085e-21)             (0.924467 -0.0536838 -3.69086e-21)
        0.795             (0.924246 0.0538995 3.69911e-21)             (0.924246 -0.0538995 -3.69911e-21)
          0.8             (0.924025 0.0541165 3.70756e-21)             (0.924025 -0.0541165 -3.70756e-21)
        0.805             (0.923804 0.0543348 3.7161e-21)             (0.923804 -0.0543348 -3.7161e-21)
         0.81             (0.923582 0.0545543 3.72491e-21)             (0.923582 -0.0545543 -3.72491e-21)
        0.815             (0.923359 0.0547751 3.73331e-21)             (0.923359 -0.0547752 -3.73331e-21)
         0.82             (0.923136 0.0549973 3.74212e-21)             (0.923136 -0.0549973 -3.74212e-21)
        0.825             (0.922913 0.0552207 3.75085e-21)             (0.922913 -0.0552207 -3.75085e-21)
         0.83             (0.922689 0.0554455 3.7593e-21)             (0.922689 -0.0554455 -3.7593e-21)
        0.835             (0.922464 0.0556717 3.76872e-21)             (0.922464 -0.0556717 -3.76872e-21)
         0.84             (0.922239 0.0558992 3.77695e-21)             (0.922239 -0.0558992 -3.77695e-21)
        0.845             (0.922013 0.0561281 3.78585e-21)             (0.922013 -0.0561281 -3.78585e-21)
         0.85             (0.921787 0.0563585 3.79478e-21)             (0.921787 -0.0563585 -3.79478e-21)
        0.855             (0.921561 0.0565902 3.80374e-21)             (0.921561 -0.0565902 -3.80374e-21)
         0.86             (0.921333 0.0568234 3.8131e-21)             (0.921333 -0.0568234 -3.8131e-21)
        0.865             (0.921106 0.057058 3.82277e-21)             (0.921106 -0.0570581 -3.82277e-21)
         0.87             (0.920878 0.0572942 3.83148e-21)             (0.920878 -0.0572942 -3.83148e-21)
        0.875             (0.920649 0.0575318 3.84085e-21)             (0.920649 -0.0575318 -3.84085e-21)
         0.88             (0.92042 0.0577709 3.85008e-21)             (0.92042 -0.0577709 -3.85008e-21)
        0.885             (0.92019 0.0580115 3.85957e-21)             (0.92019 -0.0580115 -3.85957e-21)
         0.89             (0.91996 0.0582537 3.86925e-21)             (0.91996 -0.0582537 -3.86925e-21)
        0.895             (0.919729 0.0584974 3.87849e-21)             (0.919729 -0.0584974 -3.87849e-21)
          0.9             (0.919498 0.0587427 3.88813e-21)             (0.919498 -0.0587427 -3.88813e-21)
        0.905             (0.919266 0.0589895 3.89788e-21)             (0.919266 -0.0589895 -3.89788e-21)
         0.91             (0.919034 0.059238 3.90768e-21)             (0.919034 -0.059238 -3.90768e-21)
        0.915             (0.918801 0.059488 3.91747e-21)             (0.918801 -0.059488 -3.91747e-21)
         0.92             (0.918568 0.0597397 3.9272e-21)             (0.918568 -0.0597397 -3.9272e-21)
        0.925             (0.918334 0.059993 3.9372e-21)             (0.918334 -0.059993 -3.9372e-21)
         0.93             (0.9181 0.0602479 3.9471e-21)             (0.9181 -0.0602479 -3.9471e-21)
        0.935             (0.917865 0.0605045 3.95726e-21)             (0.917865 -0.0605045 -3.95726e-21)
         0.94             (0.91763 0.0607628 3.96733e-21)             (0.91763 -0.0607628 -3.96733e-21)
        0.945             (0.917394 0.0610227 3.97763e-21)             (0.917394 -0.0610227 -3.97763e-21)
         0.95             (0.917158 0.0612844 3.9879e-21)             (0.917158 -0.0612844 -3.9879e-21)
        0.955             (0.916921 0.0615477 3.99838e-21)             (0.916921 -0.0615477 -3.99838e-21)
         0.96             (0.916684 0.0618128 4.00856e-21)             (0.916684 -0.0618128 -4.00856e-21)
        0.965             (0.916446 0.0620796 4.01916e-21)             (0.916446 -0.0620796 -4.01916e-21)
         0.97             (0.916208 0.0623481 4.02975e-21)             (0.916208 -0.0623481 -4.02975e-21)
        0.975             (0.915969 0.0626184 4.04003e-21)             (0.915969 -0.0626184 -4.04003e-21)
         0.98             (0.91573 0.0628904 4.05046e-21)             (0.91573 -0.0628904 -4.05046e-21)
        0.985             (0.915491 0.0631642 4.06138e-21)             (0.915491 -0.0631642 -4.06138e-21)
         0.99             (0.91525 0.0634398 4.07204e-21)             (0.91525 -0.0634398 -4.07204e-21)
        0.995             (0.91501 0.0637171 4.08289e-21)             (0.91501 -0.0637172 -4.08289e-21)
            1             (0.914769 0.0639963 4.09401e-21)             (0.914769 -0.0639963 -4.09401e-21)
        1.005             (0.914527 0.0642772 4.10501e-21)             (0.914527 -0.0642772 -4.10501e-21)
         1.01             (0.914285 0.06456 4.11589e-21)             (0.914285 -0.06456 -4.11589e-21)
        1.015             (0.914042 0.0648445 4.127e-21)             (0.914042 -0.0648446 -4.127e-21)
         1.02             (0.913799 0.0651309 4.13803e-21)             (0.913799 -0.0651309 -4.13803e-21)
        1.025             (0.913555 0.0654191 4.14936e-21)             (0.913555 -0.0654191 -4.14936e-21)
         1.03             (0.913311 0.0657092 4.16064e-21)             (0.913311 -0.0657092 -4.16064e-21)
        1.035             (0.913067 0.066001 4.17199e-21)             (0.913067 -0.0660011 -4.17199e-21)
         1.04             (0.912822 0.0662947 4.1842e-21)             (0.912822 -0.0662948 -4.1842e-21)
        1.045             (0.912576 0.0665903 4.19569e-21)             (0.912576 -0.0665903 -4.19569e-21)
         1.05             (0.91233 0.0668877 4.20638e-21)             (0.91233 -0.0668877 -4.20638e-21)
        1.055             (0.912084 0.067187 4.21826e-21)             (0.912084 -0.067187 -4.21826e-21)
         1.06             (0.911837 0.0674882 4.22964e-21)             (0.911837 -0.0674882 -4.22964e-21)
        1.065             (0.91159 0.0677912 4.24145e-21)             (0.91159 -0.0677912 -4.24145e-21)
         1.07             (0.911342 0.0680961 4.25341e-21)             (0.911342 -0.0680961 -4.25341e-21)
        1.075             (0.911094 0.0684028 4.2652e-21)             (0.911094 -0.0684028 -4.2652e-21)
         1.08             (0.910845 0.0687115 4.27715e-21)             (0.910845 -0.0687115 -4.27715e-21)
        1.085             (0.910596 0.069022 4.2891e-21)             (0.910596 -0.069022 -4.2891e-21)
         1.09             (0.910346 0.0693344 4.30145e-21)             (0.910346 -0.0693344 -4.30145e-21)
        1.095             (0.910096 0.0696487 4.31346e-21)             (0.910096 -0.0696487 -4.31346e-21)
          1.1             (0.909846 0.0699649 4.32536e-21)             (0.909846 -0.0699649 -4.32536e-21)
        1.105             (0.909595 0.070283 4.33789e-21)             (0.909595 -0.070283 -4.33789e-21)
         1.11             (0.909343 0.0706029 4.3498e-21)             (0.909343 -0.070603 -4.3498e-21)
        1.115             (0.909092 0.0709248 4.3626e-21)             (0.909092 -0.0709248 -4.3626e-21)
         1.12             (0.908839 0.0712486 4.37452e-21)             (0.908839 -0.0712486 -4.37452e-21)
        1.125             (0.908587 0.0715743 4.3872e-21)             (0.908587 -0.0715743 -4.38719e-21)
         1.13             (0.908334 0.0719019 4.39973e-21)             (0.908334 -0.0719019 -4.39973e-21)
        1.135             (0.90808 0.0722313 4.41222e-21)             (0.90808 -0.0722314 -4.41222e-21)
         1.14             (0.907827 0.0725627 4.42526e-21)             (0.907827 -0.0725628 -4.42526e-21)
        1.145             (0.907572 0.0728961 4.43759e-21)             (0.907572 -0.0728961 -4.43759e-21)
         1.15             (0.907318 0.0732313 4.45059e-21)             (0.907318 -0.0732313 -4.45059e-21)
        1.155             (0.907063 0.0735684 4.46304e-21)             (0.907063 -0.0735684 -4.46304e-21)
         1.16             (0.906808 0.0739075 4.4755e-21)             (0.906808 -0.0739075 -4.4755e-21)
        1.165             (0.906552 0.0742485 4.48838e-21)             (0.906552 -0.0742485 -4.48838e-21)
         1.17             (0.906296 0.0745914 4.50139e-21)             (0.906296 -0.0745914 -4.50139e-21)
        1.175             (0.90604 0.0749362 4.51436e-21)             (0.90604 -0.0749363 -4.51436e-21)
         1.18             (0.905783 0.075283 4.52824e-21)             (0.905783 -0.075283 -4.52825e-21)
        1.185             (0.905526 0.0756317 4.54037e-21)             (0.905526 -0.0756317 -4.54037e-21)
         1.19             (0.905269 0.0759823 4.5537e-21)             (0.905269 -0.0759823 -4.5537e-21)
        1.195             (0.905011 0.0763348 4.56686e-21)             (0.905011 -0.0763349 -4.56686e-21)
          1.2             (0.904753 0.0766893 4.58017e-21)             (0.904753 -0.0766894 -4.58017e-21)
        1.205             (0.904495 0.0770458 4.59326e-21)             (0.904495 -0.0770458 -4.59326e-21)
         1.21             (0.904237 0.0774041 4.60718e-21)             (0.904237 -0.0774041 -4.60718e-21)
        1.215             (0.903978 0.0777644 4.62e-21)             (0.903978 -0.0777644 -4.62e-21)
         1.22             (0.903719 0.0781267 4.63339e-21)             (0.903719 -0.0781267 -4.63339e-21)
        1.225             (0.90346 0.0784909 4.64623e-21)             (0.90346 -0.0784909 -4.64623e-21)
         1.23             (0.9032 0.078857 4.66058e-21)             (0.9032 -0.0788571 -4.66058e-21)
        1.235             (0.902941 0.0792252 4.67305e-21)             (0.902941 -0.0792252 -4.67305e-21)
         1.24             (0.902681 0.0795953 4.68666e-21)             (0.902681 -0.0795953 -4.68666e-21)
        1.245             (0.902421 0.0799673 4.70037e-21)             (0.902421 -0.0799673 -4.70037e-21)
         1.25             (0.90216 0.0803413 4.71444e-21)             (0.90216 -0.0803413 -4.71444e-21)
        1.255             (0.9019 0.0807173 4.72771e-21)             (0.9019 -0.0807173 -4.72771e-21)
         1.26             (0.901639 0.0810952 4.74144e-21)             (0.901639 -0.0810952 -4.74144e-21)
        1.265             (0.901378 0.0814751 4.75481e-21)             (0.901378 -0.0814752 -4.75481e-21)
         1.27             (0.901117 0.0818571 4.76856e-21)             (0.901117 -0.0818571 -4.76856e-21)
        1.275             (0.900856 0.082241 4.7825e-21)             (0.900856 -0.082241 -4.7825e-21)
         1.28             (0.900595 0.0826268 4.79614e-21)             (0.900595 -0.0826269 -4.79614e-21)
        1.285             (0.900334 0.0830147 4.80978e-21)             (0.900334 -0.0830147 -4.80978e-21)
         1.29             (0.900072 0.0834046 4.82365e-21)             (0.900072 -0.0834046 -4.82365e-21)
        1.295             (0.899811 0.0837965 4.83756e-21)             (0.899811 -0.0837965 -4.83756e-21)
          1.3             (0.899549 0.0841904 4.85153e-21)             (0.899549 -0.0841904 -4.85153e-21)
        1.305             (0.899288 0.0845862 4.86572e-21)             (0.899288 -0.0845863 -4.86572e-21)
         1.31             (0.899026 0.0849841 4.88017e-21)             (0.899026 -0.0849841 -4.88017e-21)
        1.315             (0.898765 0.085384 4.89345e-21)             (0.898765 -0.0853841 -4.89345e-21)
         1.32             (0.898503 0.085786 4.90683e-21)             (0.898503 -0.085786 -4.90683e-21)
        1.325             (0.898241 0.08619 4.92135e-21)             (0.898241 -0.08619 -4.92135e-21)
         1.33             (0.89798 0.086596 4.93476e-21)             (0.89798 -0.086596 -4.93476e-21)
        1.335             (0.897718 0.0870041 4.94875e-21)             (0.897718 -0.0870041 -4.94875e-21)
         1.34             (0.897456 0.0874142 4.96286e-21)             (0.897456 -0.0874143 -4.96286e-21)
        1.345             (0.897195 0.0878264 4.97709e-21)             (0.897195 -0.0878264 -4.97709e-21)
         1.35             (0.896934 0.0882406 4.992e-21)             (0.896934 -0.0882406 -4.992e-21)
        1.355             (0.896672 0.0886569 5.0047e-21)             (0.896672 -0.0886569 -5.0047e-21)
         1.36             (0.896411 0.0890753 5.01889e-21)             (0.896411 -0.0890753 -5.01889e-21)
        1.365             (0.89615 0.0894957 5.03361e-21)             (0.89615 -0.0894957 -5.03361e-21)
         1.37             (0.895889 0.0899182 5.04709e-21)             (0.895889 -0.0899182 -5.04709e-21)
        1.375             (0.895628 0.0903428 5.06122e-21)             (0.895628 -0.0903428 -5.06122e-21)
         1.38             (0.895367 0.0907694 5.07594e-21)             (0.895367 -0.0907695 -5.07594e-21)
        1.385             (0.895107 0.0911982 5.09034e-21)             (0.895107 -0.0911982 -5.09033e-21)
         1.39             (0.894847 0.0916291 5.10324e-21)             (0.894847 -0.0916291 -5.10324e-21)
        1.395             (0.894586 0.0920621 5.11742e-21)             (0.894586 -0.0920621 -5.11742e-21)
          1.4             (0.894327 0.0924972 5.13164e-21)             (0.894327 -0.0924972 -5.13164e-21)
        1.405             (0.894067 0.0929344 5.14583e-21)             (0.894067 -0.0929344 -5.14583e-21)
         1.41             (0.893808 0.0933737 5.16007e-21)             (0.893808 -0.0933737 -5.16007e-21)
        1.415             (0.893548 0.0938151 5.17404e-21)             (0.893548 -0.0938152 -5.17404e-21)
         1.42             (0.89329 0.0942587 5.1882e-21)             (0.89329 -0.0942587 -5.18819e-21)