/*--------------------------------*- C++ -*----------------------------------*\
  =========                 |
  \\      /  F ield         | OpenFOAM: The Open Source CFD Toolbox
   \\    /   O peration     | Website:  https://openfoam.org
    \\  /    A nd           | Version:  7
     \\/     M anipulation  |
\*---------------------------------------------------------------------------*/
FoamFile
{
    version     2.0;
    format      ascii;
    class       volVectorField;
    location    "45";
    object      U;
}
// * * * * * * * * * * * * * * * * * * * * * * * * * * * * * * * * * * * * * //

dimensions      [0 1 -1 0 0 0 0];

internalField   nonuniform List<vector> 
1987
(
(1.13283 0.2863 -4.88532e-21)
(1.12804 0.273376 -3.07347e-20)
(1.14338 0.332281 1.02927e-20)
(1.13637 0.317461 -5.13615e-20)
(1.13025 0.30315 -7.42186e-20)
(1.12495 0.289343 6.87921e-20)
(1.12044 0.276033 -2.64486e-20)
(1.1603 0.386092 1.20067e-19)
(1.15059 0.369057 1.63191e-20)
(1.14193 0.352544 3.48789e-20)
(1.1343 0.336603 7.61881e-20)
(1.12762 0.321242 -9.33094e-20)
(1.12182 0.306449 2.30493e-20)
(1.11683 0.292213 6.21118e-20)
(1.11262 0.278523 -3.20947e-20)
(1.17074 0.428926 -7.3689e-20)
(1.16005 0.41057 5.58101e-20)
(1.14976 0.392271 -2.85641e-20)
(1.14041 0.374452 -1.96537e-20)
(1.13213 0.357257 -7.56444e-20)
(1.12487 0.340714 1.87476e-20)
(1.11856 0.324819 6.23922e-20)
(1.11312 0.309552 5.48756e-20)
(1.10847 0.294894 -4.55449e-20)
(1.10458 0.280831 -1.30194e-22)
(1.17522 0.472021 -2.17242e-19)
(1.16895 0.455683 -1.60327e-19)
(1.15915 0.436847 1.16919e-19)
(1.14865 0.417381 -1.01155e-19)
(1.13872 0.398177 8.95589e-20)
(1.1298 0.37959 -3.09266e-21)
(1.12195 0.361724 3.03514e-21)
(1.11512 0.34459 3.99759e-21)
(1.10921 0.32817 -2.03394e-20)
(1.10416 0.312439 -6.80741e-20)
(1.09988 0.29737 1.77662e-20)
(1.09634 0.282943 -1.96607e-20)
(1.14595 0.498199 -5.00285e-20)
(1.16269 0.495596 1.86776e-19)
(1.16359 0.482731 1.86465e-19)
(1.15668 0.464599 1.16461e-19)
(1.14687 0.444399 -9.61852e-20)
(1.13668 0.423861 -5.95371e-20)
(1.1272 0.403778 -6.48732e-21)
(1.11877 0.38444 -1.40028e-19)
(1.1114 0.365919 -6.69381e-20)
(1.10504 0.348207 6.97543e-20)
(1.09958 0.331276 2.67707e-20)
(1.09494 0.315092 5.6414e-20)
(1.09106 0.299623 -6.09796e-20)
(1.0879 0.284843 6.83904e-20)
(1.0854 0.27074 -2.80143e-20)
(1.09753 0.502374 -7.01159e-20)
(1.13715 0.513414 8.19792e-20)
(1.15129 0.508012 -5.86023e-20)
(1.15088 0.492897 -1.75933e-20)
(1.14358 0.473052 -1.05814e-19)
(1.13392 0.451545 1.87257e-19)
(1.12417 0.429978 1.14368e-19)
(1.11521 0.409043 1.11093e-19)
(1.10733 0.388975 -4.93363e-20)
(1.1005 0.369816 7.83844e-20)
(1.09464 0.351542 -8.44109e-20)
(1.08966 0.334115 -6.90369e-20)
(1.08548 0.317492 5.51121e-20)
(1.08203 0.301637 4.15681e-21)
(1.07927 0.286518 -2.81506e-20)
(1.07715 0.272117 3.96422e-20)
(0.894115 0.425792 -2.31236e-19)
(1.01742 0.488027 2.15682e-19)
(1.09065 0.519921 2.26841e-20)
(1.12664 0.527879 -2.57117e-20)
(1.13856 0.519754 -3.32606e-19)
(1.13715 0.502482 6.65973e-20)
(1.12969 0.481004 2.84425e-20)
(1.12035 0.458252 -9.01126e-21)
(1.11112 0.435696 -5.97677e-20)
(1.10277 0.41394 3.36877e-20)
(1.09549 0.393166 5.31564e-20)
(1.08924 0.373389 -1.53225e-20)
(1.08394 0.354572 2.55136e-20)
(1.07948 0.336666 2.9865e-20)
(1.07578 0.319622 -5.16795e-20)
(1.07278 0.303395 -1.15907e-20)
(1.07044 0.287951 9.15984e-21)
(1.06873 0.273267 -4.14006e-20)
(0.477957 0.225144 2.63787e-19)
(0.717323 0.351851 -1.55202e-19)
(0.894856 0.447185 2.6805e-19)
(1.01309 0.507654 -3.38118e-19)
(1.08178 0.536633 4.20279e-21)
(1.11451 0.541541 -4.14599e-20)
(1.12458 0.530779 1.68364e-19)
(1.12246 0.511447 1.14074e-20)
(1.11505 0.488418 -1.99751e-19)
(1.10617 0.464484 6.91909e-20)
(1.09757 0.440982 -7.25276e-20)
(1.08989 0.418438 -7.24533e-21)
(1.08327 0.396984 1.44598e-19)
(1.07765 0.376613 -1.1237e-19)
(1.07294 0.357274 6.37594e-21)
(1.06903 0.338909 -2.60898e-21)
(1.06585 0.321462 3.20505e-20)
(1.06333 0.304882 -6.47047e-22)
(1.06144 0.28913 -1.79753e-20)
(1.06015 0.274177 1.08853e-20)
(0.183161 0.0876694 1.99073e-19)
(0.482977 0.241276 3.11753e-20)
(0.720167 0.372155 9.47083e-21)
(0.893286 0.467903 -9.98724e-20)
(1.00656 0.526423 1.11581e-20)
(1.07103 0.55244 1.55197e-19)
(1.10087 0.554347 8.32957e-20)
(1.10942 0.541046 1.09804e-19)
(1.10687 0.519755 3.24091e-20)
(1.0997 0.495258 1.4716e-19)
(1.09141 0.470203 -1.28316e-19)
(1.08353 0.445804 6.31465e-20)
(1.07659 0.422506 -6.52156e-21)
(1.07068 0.400401 -4.8128e-20)
(1.06574 0.379462 8.61066e-20)
(1.06165 0.359625 -1.23213e-20)
(1.05834 0.340824 1.68689e-20)
(1.0557 0.322996 1.52498e-20)
(1.0537 0.306083 -7.83397e-21)
(1.05228 0.290041 -1.94179e-20)
(1.05143 0.274835 1.55439e-20)
(1.05112 0.260371 2.41097e-21)
(0.185924 0.0947125 -3.19007e-19)
(0.486455 0.257236 -3.06655e-19)
(0.720928 0.391956 5.67178e-22)
(0.889468 0.487832 1.70266e-20)
(0.997919 0.544244 -2.82544e-20)
(1.05848 0.567272 -9.64412e-20)
(1.0858 0.566246 -2.34413e-19)
(1.09318 0.550511 1.31466e-20)
(1.09044 0.527365 -3.73907e-21)
(1.0837 0.501487 -6.58357e-20)
(1.07611 0.475374 3.31671e-20)
(1.06903 0.450126 -1.2728e-19)
(1.06289 0.426112 -6.69385e-20)
(1.05774 0.40339 1.46756e-20)
(1.05352 0.381911 9.81162e-21)
(1.0501 0.361604 -4.3269e-20)
(1.04741 0.342392 -2.35617e-21)
(1.04536 0.324205 -1.27841e-20)
(1.04388 0.306981 1.0472e-20)
(1.04296 0.290669 1.93745e-20)
(1.04257 0.275229 -9.92674e-21)
(1.0427 0.26056 5.08005e-21)
(0.188053 0.101737 2.27401e-19)
(0.488385 0.272916 1.59842e-19)
(0.719635 0.411134 -9.66734e-20)
(0.883476 0.506863 3.23289e-19)
(0.987277 0.561029 2.57439e-19)
(1.04425 0.581068 1.92029e-19)
(1.06941 0.57719 2.99065e-20)
(1.07592 0.559133 -1.26089e-19)
(1.07323 0.53424 -6.09301e-21)
(1.06706 0.507067 6.17493e-20)
(1.06028 0.479963 -5.88642e-20)
(1.05408 0.453915 9.88485e-20)
(1.0488 0.429227 7.47195e-20)
(1.04447 0.405922 5.65125e-21)
(1.04101 0.383938 4.46935e-21)
(1.0383 0.363189 -7.0062e-21)
(1.03627 0.343593 -2.51719e-20)
(1.03482 0.325074 -1.23047e-21)
(1.03391 0.307561 -5.65007e-21)
(1.0335 0.291002 5.5715e-21)
(1.03358 0.275347 2.31361e-21)
(1.03418 0.260493 -6.76843e-21)
(0.189536 0.108693 1.63926e-19)
(0.488771 0.288214 -2.0338e-19)
(0.716334 0.429571 -8.35718e-20)
(0.875393 0.52489 -5.21762e-20)
(0.974735 0.576698 -3.03907e-20)
(1.02845 0.593764 -2.07024e-19)
(1.05178 0.587129 -3.63164e-20)
(1.05771 0.56687 1.41995e-19)
(1.05529 0.540341 -9.01375e-20)
(1.04984 0.511962 -3.45265e-20)
(1.04398 0.483935 -1.2454e-20)
(1.03872 0.45714 1.70018e-20)
(1.03436 0.431821 -1.0296e-19)
(1.03089 0.407974 -1.5017e-20)
(1.02823 0.385517 9.1992e-21)
(1.02626 0.364359 -1.13971e-20)
(1.02492 0.344409 6.68577e-21)
(1.02411 0.325585 -8.09829e-21)
(1.02379 0.307811 1.39277e-20)
(1.02391 0.291027 -1.5406e-20)
(1.02449 0.275179 2.31022e-20)
(1.02555 0.26016 3.15132e-20)
(1.02701 0.245961 -1.69528e-20)
(0.190364 0.115533 -1.85857e-19)
(0.487627 0.303028 1.58318e-19)
(0.711079 0.447155 1.24586e-19)
(0.865312 0.541816 -2.17262e-19)
(0.960406 0.591173 -6.9184e-20)
(1.01118 0.605301 2.89905e-19)
(1.03301 0.596019 5.16441e-20)
(1.03863 0.573682 3.26235e-20)
(1.03666 0.54563 -8.90521e-20)
(1.03207 0.516136 2.21823e-20)
(1.02721 0.487256 2.20548e-20)
(1.02298 0.45977 4.24633e-20)
(1.01959 0.433868 9.69674e-21)
(1.01702 0.409519 -5.61865e-21)
(1.0152 0.386628 -1.60678e-20)
(1.01401 0.365095 3.53002e-21)
(1.01339 0.344824 -3.59061e-21)
(1.01325 0.325723 -2.68398e-21)
(1.01353 0.307715 -9.88968e-21)
(1.01422 0.290732 1.50816e-20)
(1.0153 0.274715 -2.44761e-20)
(1.01683 0.259552 2.88174e-20)
(1.01875 0.245251 -1.23687e-20)
(0.190538 0.122211 -1.50002e-19)
(0.484978 0.31726 2.83026e-20)
(0.703938 0.463777 1.81461e-19)
(0.853339 0.557549 2.64407e-19)
(0.944406 0.604392 -2.91328e-19)
(0.992533 0.615621 -2.25329e-19)
(1.01319 0.603812 -2.65289e-20)
(1.01874 0.579531 -7.45555e-20)
(1.01742 0.550072 3.00502e-20)
(1.01381 0.519556 -6.29968e-20)
(1.01004 0.489894 -2.94066e-20)
(1.00688 0.461776 -3.01189e-20)
(1.0045 0.43534 1.23748e-20)
(1.00289 0.410533 9.24048e-21)
(1.00194 0.38725 1.13512e-20)
(1.00157 0.365379 9.72782e-21)
(1.00169 0.344819 2.65004e-24)
(1.00224 0.325475 1.30243e-21)
(1.00316 0.30726 -9.28869e-21)
(1.00442 0.290106 1.91177e-20)
(1.00603 0.273944 3.31932e-20)
(1.00805 0.258661 -1.62402e-20)
(1.01043 0.244278 -2.85019e-20)
(0.190059 0.12868 1.78855e-20)
(0.480856 0.330814 6.77739e-20)
(0.694989 0.479331 -6.54242e-20)
(0.839583 0.571998 -4.66899e-20)
(0.926821 0.616279 4.95151e-20)
(0.972627 0.624688 7.93094e-20)
(0.992409 0.610464 9.11498e-21)
(0.998134 0.584378 6.84852e-20)
(0.99761 0.553631 5.99914e-20)
(0.995089 0.522187 5.59216e-20)
(0.99248 0.491819 2.02816e-20)
(0.990451 0.463129 1.67282e-20)
(0.989142 0.436213 4.72355e-22)
(0.988511 0.410996 5.74474e-21)
(0.988474 0.387361 -3.44369e-21)
(0.988945 0.365192 -2.13206e-20)
(0.989847 0.34438 3.88647e-21)
(0.991114 0.324824 -1.76547e-20)
(0.992695 0.306435 6.7806e-20)
(0.994553 0.289137 -3.97169e-20)
(0.996695 0.272856 -3.16015e-20)
(0.999204 0.25748 -9.35748e-20)
(1.00204 0.243037 1.00246e-19)
(1.0046 0.230115 -2.37839e-20)
(0.188934 0.134898 6.39078e-20)
(0.475307 0.343601 -7.23881e-20)
(0.684325 0.493721 -1.27701e-19)
(0.824126 0.585081 -3.01512e-19)
(0.907766 0.626768 3.21015e-20)
(0.951586 0.632447 -6.96729e-21)
(0.970759 0.615945 9.63644e-20)
(0.976867 0.588191 -1.76977e-20)
(0.977291 0.556276 2.81485e-20)
(0.975958 0.523999 1.33717e-20)
(0.97458 0.493001 -1.88656e-21)
(0.973737 0.463803 6.78224e-21)
(0.973533 0.436463 -4.90426e-21)
(0.973925 0.410885 -2.14458e-21)
(0.974832 0.386945 -1.60881e-20)
(0.976173 0.364519 -1.4618e-20)
(0.977878 0.343491 1.52322e-20)
(0.979886 0.323759 5.29736e-20)
(0.982146 0.305227 -6.57115e-21)
(0.984622 0.287815 2.17764e-20)
(0.987321 0.271443 -1.72977e-20)
(0.990327 0.256001 1.16419e-19)
(0.993609 0.241519 -1.06819e-19)
(0.996652 0.228572 1.98032e-20)
(0.187176 0.140821 5.21409e-20)
(0.468389 0.355533 -4.74217e-20)
(0.672048 0.506878 -5.66326e-20)
(0.807054 0.596707 5.5961e-20)
(0.887384 0.635805 -1.06721e-19)
(0.929506 0.638849 -9.58379e-20)
(0.948328 0.620218 -4.22922e-20)
(0.955014 0.590937 2.76589e-20)
(0.956521 0.557976 -1.36089e-20)
(0.956464 0.524963 1.60679e-20)
(0.95638 0.493414 -7.05141e-21)
(0.956767 0.463775 2.97559e-20)
(0.957709 0.436068 1.19286e-20)
(0.959157 0.410182 2.05879e-20)
(0.961036 0.385984 6.94414e-20)
(0.963274 0.363343 1.76001e-20)
(0.965806 0.34214 9.48222e-20)
(0.968575 0.322267 2.42645e-20)
(0.971534 0.303625 2.8751e-20)
(0.974648 0.286129 -4.60463e-20)
(0.977923 0.269695 1.04084e-19)
(0.981434 0.254216 8.47033e-21)
(0.985152 0.239719 2.44802e-20)
(0.988666 0.226744 -3.45026e-20)
(0.1848 0.146405 4.74174e-20)
(0.460167 0.366515 -1.38929e-19)
(0.658212 0.518706 2.60883e-19)
(0.788525 0.606849 2.35366e-19)
(0.865805 0.64333 1.50323e-19)
(0.906494 0.643858 -6.95576e-20)
(0.925207 0.62325 3.73512e-20)
(0.932649 0.592588 -2.3078e-20)
(0.935358 0.558702 -7.02301e-21)
(0.936656 0.525053 -3.38328e-21)
(0.93792 0.493033 -7.80238e-21)
(0.93958 0.463021 -5.23484e-20)
(0.941701 0.435008 1.22811e-20)
(0.944235 0.408868 -3.82378e-20)
(0.947114 0.384461 -3.43289e-20)
(0.950273 0.361651 -4.59191e-20)
(0.953653 0.340314 -7.40667e-20)
(0.957203 0.320337 -1.69169e-19)
(0.960879 0.301619 -1.21338e-19)
(0.96465 0.28407 -9.71955e-20)
(0.96852 0.267603 -5.91432e-20)
(0.972547 0.25212 -1.59128e-20)
(0.976689 0.23763 8.19948e-20)
(0.980654 0.224612 -7.0487e-20)
(0.985261 0.212356 -5.11741e-20)
(0.181813 0.1516 2.41104e-20)
(0.450699 0.37649 1.62575e-19)
(0.642912 0.529096 -2.49893e-19)
(0.768689 0.615434 -1.45978e-19)
(0.843139 0.649313 -1.00089e-19)
(0.882657 0.647443 3.33214e-21)
(0.901483 0.625013 -2.96549e-20)
(0.909843 0.593116 1.08521e-20)
(0.91386 0.558429 -1.41519e-20)
(0.916582 0.524243 -7.35397e-21)
(0.919243 0.491835 -3.18364e-20)
(0.922214 0.461522 2.06769e-20)
(0.925546 0.433265 4.56383e-20)
(0.929193 0.406929 2.76334e-20)
(0.933095 0.382364 -6.21185e-20)
(0.937195 0.359431 1.08367e-19)
(0.941441 0.338002 -5.62526e-20)
(0.945789 0.317959 3.12392e-20)
(0.950199 0.299201 9.88211e-20)
(0.954645 0.281629 8.32067e-20)
(0.959132 0.265159 -3.70305e-20)
(0.963688 0.249706 4.73466e-20)
(0.968239 0.23525 7.41469e-21)
(0.972642 0.222169 1.09535e-19)
(0.977976 0.210072 -1.56594e-19)
(0.178226 0.156336 -5.61043e-21)
(0.440087 0.385395 -7.83839e-21)
(0.626299 0.538015 1.33681e-19)
(0.747647 0.622392 -8.09616e-20)
(0.819502 0.653714 1.11383e-19)
(0.858101 0.649573 1.06964e-20)
(0.877247 0.625481 4.18631e-21)
(0.886668 0.592499 -6.7241e-21)
(0.892088 0.557134 3.23508e-21)
(0.896295 0.522513 -1.90279e-20)
(0.900395 0.489801 6.7928e-20)
(0.904709 0.459259 2.05219e-20)
(0.909278 0.430824 -4.08552e-20)
(0.914062 0.404349 -6.8988e-20)
(0.919008 0.37968 2.11187e-20)
(0.924067 0.356672 -1.34648e-20)
(0.929196 0.335193 -1.06753e-19)
(0.934356 0.315125 2.26875e-19)
(0.939513 0.29636 4.86731e-20)
(0.94465 0.278798 5.23584e-21)
(0.949774 0.262355 -1.23749e-19)
(0.954869 0.246966 -8.5638e-20)
(0.959831 0.232575 -2.42689e-20)
(0.96473 0.219427 -2.02447e-20)
(0.97094 0.207551 2.00548e-19)
(0.174107 0.160558 -1.59912e-20)
(0.428402 0.39312 -5.04776e-20)
(0.608474 0.545408 -5.55258e-20)
(0.72552 0.627682 1.01623e-19)
(0.795015 0.656496 9.75579e-21)
(0.832933 0.650225 -1.10453e-20)
(0.852585 0.624633 1.78964e-20)
(0.863199 0.590714 6.32133e-21)
(0.870102 0.554798 -4.88727e-20)
(0.875847 0.519844 -6.29477e-20)
(0.88142 0.486914 -6.85607e-20)
(0.887106 0.456218 -4.26239e-21)
(0.892935 0.427671 3.06544e-20)
(0.898875 0.401118 -7.35904e-20)
(0.904882 0.376398 -1.49467e-20)
(0.910916 0.353364 -9.82562e-20)
(0.91694 0.331881 2.13563e-19)
(0.922924 0.311827 9.51513e-20)
(0.928841 0.293091 3.15486e-20)
(0.934683 0.275569 -5.02803e-20)
(0.940455 0.259179 -4.75953e-21)
(0.946093 0.243878 4.89839e-20)
(0.951504 0.229566 3.40189e-21)
(0.957098 0.216348 1.34483e-19)
(0.964393 0.204883 1.18579e-19)
(0.169513 0.164284 -5.25085e-20)
(0.415704 0.399611 8.00452e-20)
(0.589552 0.55121 5.61465e-20)
(0.702437 0.631263 -2.79609e-20)
(0.769799 0.657632 1.52621e-20)
(0.807256 0.649377 9.9785e-22)
(0.827588 0.62245 3.48758e-20)
(0.839506 0.587747 1.88815e-20)
(0.847964 0.551403 4.30139e-20)
(0.85529 0.516219 1.37437e-19)
(0.862368 0.483159 1.24868e-19)
(0.869446 0.452385 6.66166e-20)
(0.876555 0.423795 1.58616e-20)
(0.883668 0.397224 9.87263e-21)
(0.89075 0.37251 7.36518e-20)
(0.89777 0.349501 5.72693e-20)
(0.9047 0.328059 -4.7852e-20)
(0.911517 0.30806 -3.39237e-19)
(0.918201 0.289389 2.4211e-20)
(0.924756 0.271938 5.08978e-20)
(0.931176 0.255628 5.79035e-20)
(0.937356 0.240426 7.78305e-20)
(0.943302 0.226159 9.30216e-21)
(0.949844 0.21272 -4.04579e-19)
(0.958016 0.201865 7.30874e-20)
(0.164453 0.167482 -2.05317e-20)
(0.402087 0.404833 -3.4032e-20)
(0.569657 0.55537 -5.39917e-20)
(0.678526 0.633102 9.2377e-21)
(0.743974 0.657101 -2.27198e-20)
(0.781178 0.647014 -3.07408e-20)
(0.802341 0.61892 -3.44523e-20)
(0.815665 0.583581 -2.98484e-20)
(0.825737 0.546936 -8.91675e-20)
(0.834679 0.511626 1.94368e-20)
(0.843284 0.478523 -1.21002e-19)
(0.851774 0.447749 -8.86549e-20)
(0.860177 0.419185 1.18833e-20)
(0.868474 0.392661 -6.60627e-20)
(0.876642 0.368009 7.83654e-20)
(0.884658 0.345076 -3.43605e-20)
(0.892502 0.323722 -8.16895e-21)
(0.900157 0.30382 2.09047e-19)
(0.907614 0.285253 -1.69329e-19)
(0.914884 0.267907 6.10087e-20)
(0.921944 0.251708 1.25857e-19)
(0.928671 0.236625 -7.90914e-20)
(0.935246 0.222396 2.14175e-19)
(0.942839 0.20845 2.54982e-19)
(0.950607 0.196454 4.05613e-20)
(0.158955 0.170119 -3.18967e-20)
(0.387649 0.408748 2.51478e-20)
(0.548912 0.557851 -3.04586e-22)
(0.653915 0.633176 2.10519e-20)
(0.717662 0.654885 1.55266e-20)
(0.754801 0.643125 4.19337e-20)
(0.776934 0.614033 8.18441e-21)
(0.791747 0.578209 -2.25293e-20)
(0.803482 0.541387 6.26917e-20)
(0.814068 0.506055 1.15576e-19)
(0.824219 0.472999 9.58886e-20)
(0.834132 0.442304 -5.19942e-21)
(0.84384 0.413836 4.46568e-20)
(0.853331 0.387422 6.69397e-20)
(0.862592 0.36289 -1.03426e-20)
(0.871608 0.340086 -3.38324e-20)
(0.88037 0.318867 7.79582e-20)
(0.888868 0.299105 1.17131e-19)
(0.897102 0.280679 1.98449e-19)
(0.905084 0.263476 -2.09226e-19)
(0.91278 0.247422 -1.32093e-19)
(0.920081 0.232491 2.51778e-20)
(0.92732 0.218405 2.43504e-20)
(0.935554 0.204589 -1.18183e-19)
(0.942601 0.192673 -1.12037e-19)
(0.153057 0.172167 -8.74815e-23)
(0.372487 0.411318 -2.88455e-20)
(0.527439 0.558623 -3.85505e-20)
(0.628736 0.631464 -6.10314e-20)
(0.690981 0.650976 1.74022e-20)
(0.72823 0.637703 1.53615e-20)
(0.751452 0.607783 1.75182e-20)
(0.767827 0.571624 -1.01408e-19)
(0.781263 0.53475 1.90122e-19)
(0.793514 0.4995 -1.25383e-19)
(0.805221 0.46658 -3.07386e-19)
(0.816566 0.436043 5.06007e-20)
(0.827584 0.407744 -2.73927e-19)
(0.838274 0.381504 1.60197e-20)
(0.848631 0.357151 1.47129e-19)
(0.858652 0.334528 1.61263e-19)
(0.868333 0.313492 -4.98726e-19)
(0.877675 0.293913 -9.97902e-21)
(0.886684 0.275669 -3.53688e-19)
(0.895376 0.258644 1.15999e-20)
(0.903711 0.242767 4.44891e-20)
(0.911612 0.227997 -2.08777e-19)
(0.919487 0.214025 -1.28936e-19)
(0.928138 0.200259 -2.00982e-20)
(0.934923 0.188263 -2.31685e-19)
(0.146802 0.173602 -5.29678e-21)
(0.356701 0.412511 7.94751e-20)
(0.505365 0.557664 6.19982e-20)
(0.603115 0.627956 4.17573e-20)
(0.66405 0.645369 -1.54817e-19)
(0.701566 0.630748 2.39269e-20)
(0.725983 0.600168 1.79003e-20)
(0.743978 0.563823 1.38253e-20)
(0.759143 0.52702 -1.50355e-19)
(0.773071 0.491956 -2.52573e-19)
(0.786341 0.459264 1.22354e-19)
(0.799121 0.428965 -1.67762e-19)
(0.81145 0.400906 2.02647e-19)
(0.823339 0.374905 1.49998e-19)
(0.834793 0.35079 -1.37225e-19)
(0.845817 0.328402 -4.05205e-21)
(0.856418 0.307598 3.74545e-19)
(0.866602 0.288246 -2.81072e-20)
(0.876384 0.270223 7.26586e-20)
(0.885781 0.253415 4.0611e-20)
(0.894754 0.237748 5.39991e-21)
(0.903262 0.223174 9.59275e-20)
(0.911727 0.209374 1.07684e-19)
(0.920735 0.195801 -1.75192e-19)
(0.927569 0.183998 6.22305e-20)
(0.140235 0.174407 1.61597e-21)
(0.340392 0.412303 3.98986e-20)
(0.482813 0.554959 5.71992e-20)
(0.577181 0.622648 2.74489e-20)
(0.636985 0.638067 1.11337e-19)
(0.674909 0.622263 6.05029e-20)
(0.70061 0.591192 9.2391e-20)
(0.720272 0.554807 -5.34197e-21)
(0.737185 0.5182 1.53965e-19)
(0.752796 0.483425 -1.37634e-19)
(0.767628 0.451049 3.8297e-19)
(0.781841 0.421069 6.54379e-20)
(0.79548 0.393322 -1.87023e-19)
(0.808565 0.367626 -2.28933e-19)
(0.821112 0.343808 1.09423e-19)
(0.833136 0.321709 -1.44113e-19)
(0.844651 0.301185 -2.73226e-19)
(0.855673 0.282105 1.9098e-19)
(0.866223 0.264345 3.71646e-20)
(0.87632 0.24779 1.84364e-19)
(0.885931 0.232368 -6.16407e-20)
(0.89504 0.218018 -5.13706e-20)
(0.904056 0.20442 2.78925e-19)
(0.913417 0.19109 2.0036e-19)
(0.920472 0.179543 -2.16475e-21)
(0.133402 0.174565 -4.6301e-20)
(0.323659 0.410676 -1.04547e-19)
(0.45991 0.550501 -7.02392e-20)
(0.551059 0.615541 -7.72895e-21)
(0.609901 0.629077 -2.97146e-20)
(0.64836 0.612257 -1.05317e-19)
(0.675419 0.580863 -5.85644e-20)
(0.696781 0.544583 -6.23544e-20)
(0.715452 0.508291 -7.80666e-20)
(0.732744 0.473909 2.08913e-19)
(0.749134 0.44194 -1.90542e-19)
(0.764772 0.412358 1.50925e-19)
(0.779713 0.384996 3.33652e-19)
(0.793987 0.359671 1.48497e-19)
(0.80762 0.336209 -2.19452e-19)
(0.820637 0.314453 9.00997e-20)
(0.833061 0.294258 6.77967e-20)
(0.844914 0.275494 1.99665e-20)
(0.856224 0.258037 3.07534e-19)
(0.867014 0.241774 -2.19787e-19)
(0.877259 0.22663 -1.75571e-19)
(0.886961 0.212538 -4.28146e-20)
(0.896507 0.199185 -1.82106e-19)
(0.906239 0.186152 -1.82552e-19)
(0.913604 0.174885 3.32747e-19)
(0.126352 0.174065 4.25123e-20)
(0.306607 0.40762 -8.93519e-21)
(0.436779 0.54429 -1.03542e-19)
(0.524875 0.606646 -1.78408e-19)
(0.582911 0.618413 -1.46398e-19)
(0.622015 0.600745 2.16367e-19)
(0.650492 0.569191 1.69514e-19)
(0.673577 0.53316 1.56914e-19)
(0.694008 0.497303 3.39436e-20)
(0.712972 0.463415 1.57185e-19)
(0.730907 0.431942 -1.3668e-19)
(0.747959 0.402838 -2.70908e-19)
(0.764191 0.375934 -4.00232e-19)
(0.779643 0.351044 -2.70343e-19)
(0.794352 0.327998 3.07036e-19)
(0.808352 0.306638 -2.04249e-19)
(0.821674 0.286821 -1.57257e-19)
(0.834349 0.268417 1.11944e-19)
(0.846411 0.251304 7.59814e-20)
(0.857887 0.23537 -5.0163e-20)
(0.868759 0.220539 5.00614e-20)
(0.879041 0.206738 1.06733e-19)
(0.889105 0.193669 1.19249e-20)
(0.899221 0.180971 -7.96124e-20)
(0.906951 0.169998 -3.83319e-19)
(0.11913 0.172899 -1.44888e-19)
(0.289337 0.403131 4.13982e-20)
(0.413544 0.536335 -6.91803e-20)
(0.498751 0.595979 4.8164e-20)
(0.556126 0.606094 2.12166e-19)
(0.595969 0.587744 -2.24037e-19)
(0.625911 0.556194 -5.96834e-20)
(0.65073 0.52055 -4.15512e-19)
(0.672913 0.485246 -6.68923e-20)
(0.693535 0.451953 3.17568e-19)
(0.712998 0.421064 -1.76231e-19)
(0.731447 0.392518 2.86527e-19)
(0.748954 0.366142 3.46028e-19)
(0.765569 0.341753 7.37096e-20)
(0.781341 0.319181 2.07086e-19)
(0.79631 0.29827 -1.81879e-21)
(0.810519 0.27888 2.88641e-19)
(0.824004 0.260881 -2.24146e-19)
(0.836806 0.244152 -3.52194e-19)
(0.848957 0.228584 -1.58745e-19)
(0.860447 0.2141 -5.44678e-20)
(0.871301 0.200623 2.53348e-20)
(0.881872 0.187873 1.39411e-19)
(0.892381 0.175541 1.41554e-19)
(0.90051 0.164871 3.51083e-19)
(0.111787 0.171063 3.5005e-20)
(0.271951 0.397213 2.142e-19)
(0.390326 0.526649 1.09456e-19)
(0.472807 0.583561 1.88354e-19)
(0.529653 0.592146 -1.63787e-19)
(0.570317 0.573278 -7.1365e-20)
(0.601756 0.54189 -1.69822e-19)
(0.628311 0.506771 1.1907e-19)
(0.65223 0.472135 -9.6009e-20)
(0.674488 0.439536 -4.32338e-19)
(0.695456 0.409318 -5.90275e-20)
(0.715281 0.381409 -2.95369e-19)
(0.734042 0.355632 7.88659e-20)
(0.751803 0.331807 1.16084e-19)
(0.768619 0.309767 -2.4874e-19)
(0.784542 0.289359 -8.98037e-22)
(0.799622 0.270443 -1.61811e-19)
(0.813903 0.252893 -1.07941e-19)
(0.827432 0.236588 1.48879e-19)
(0.840247 0.221422 1.81602e-19)
(0.852344 0.207319 2.03191e-19)
(0.863758 0.194198 -1.80708e-19)
(0.874827 0.1818 -1.78117e-19)
(0.885733 0.169858 7.06437e-20)
(0.894282 0.1595 -2.91328e-19)
(0.10437 0.168557 1.45173e-19)
(0.254551 0.389876 -3.25982e-19)
(0.367245 0.515256 -1.72516e-19)
(0.447161 0.569423 1.37452e-19)
(0.503599 0.576597 4.46872e-20)
(0.54515 0.557375 2.85963e-19)
(0.578105 0.526305 -7.40628e-20)
(0.606386 0.491844 -6.47868e-20)
(0.632018 0.457989 3.40845e-21)
(0.655884 0.42618 1.03288e-19)
(0.67833 0.39672 4.56564e-19)
(0.699504 0.369523 -1.91584e-19)
(0.719497 0.344416 7.24878e-21)
(0.738379 0.321219 2.80168e-19)
(0.756219 0.299768 -4.87733e-19)
(0.773077 0.279914 4.79181e-20)
(0.78901 0.26152 1.67083e-20)
(0.804071 0.244461 -1.51799e-19)
(0.818311 0.22862 2.21351e-19)
(0.831776 0.213892 -1.08543e-19)
(0.844467 0.200202 1.82719e-19)
(0.85643 0.187469 1.9054e-19)
(0.867988 0.175453 1.38018e-19)
(0.879289 0.163921 7.22164e-20)
(0.888269 0.153887 -9.58101e-20)
(0.0969283 0.165382 7.28327e-20)
(0.237236 0.381137 -9.48217e-21)
(0.344418 0.502184 -8.5735e-22)
(0.421927 0.553599 -5.8756e-20)
(0.478065 0.559485 1.35621e-19)
(0.520555 0.540067 -4.08655e-19)
(0.555035 0.509466 2.56587e-19)
(0.585023 0.475794 2.33934e-19)
(0.612337 0.442829 2.0801e-19)
(0.637777 0.411905 -2.44548e-19)
(0.661668 0.383287 -4.62281e-19)
(0.684161 0.356879 4.07273e-19)
(0.705355 0.332508 -3.8824e-19)
(0.725334 0.310001 2.57911e-21)
(0.744174 0.289196 1.05459e-20)
(0.761944 0.269948 -4.97936e-20)
(0.77871 0.252121 4.24191e-19)
(0.794531 0.235595 2.39129e-19)
(0.809466 0.220256 1.48142e-19)
(0.823564 0.206002 -1.53831e-20)
(0.836836 0.192757 -3.08955e-19)
(0.849333 0.180441 -5.96423e-20)
(0.861368 0.168835 -1.52874e-19)
(0.87306 0.157733 -3.052e-19)
(0.882479 0.148035 -2.89652e-20)
(0.0895093 0.161547 -1.75223e-19)
(0.220105 0.37102 6.73574e-20)
(0.32196 0.48747 1.40156e-19)
(0.397215 0.53613 -1.0418e-19)
(0.453151 0.54085 3.85956e-19)
(0.496619 0.521391 2.07141e-19)
(0.53262 0.491407 -5.87267e-20)
(0.564286 0.45865 5.87102e-20)
(0.593244 0.42668 -1.62233e-19)
(0.620218 0.396735 3.90442e-19)
(0.645516 0.369039 2.64409e-19)
(0.669292 0.343494 1.54661e-19)
(0.691657 0.319927 5.15734e-19)
(0.712702 0.29817 -3.7849e-19)
(0.732514 0.278066 1.50637e-19)
(0.751172 0.259472 -4.4357e-19)
(0.768747 0.242259 -2.57721e-19)
(0.785307 0.226308 -5.76981e-20)
(0.800917 0.211507 -4.70097e-19)
(0.815631 0.19776 4.09518e-19)
(0.829467 0.184991 -2.14933e-19)
(0.842485 0.173122 1.79309e-19)
(0.854983 0.161953 -3.77532e-20)
(0.867057 0.151299 2.00944e-19)
(0.876917 0.14195 -1.02615e-20)
(0.0821607 0.157061 -1.01919e-19)
(0.203253 0.359554 6.13292e-20)
(0.29998 0.471155 -2.09894e-19)
(0.373133 0.517064 1.59209e-19)
(0.428952 0.520737 -2.38353e-19)
(0.473424 0.50139 -1.3446e-19)
(0.510931 0.472164 -7.31108e-20)
(0.544239 0.440442 1.04331e-19)
(0.574796 0.409572 -3.3844e-19)
(0.603258 0.380693 -8.74618e-20)
(0.62992 0.354001 2.53918e-20)
(0.65494 0.329389 -7.17505e-19)
(0.678438 0.306692 3.28158e-19)
(0.700517 0.285744 -8.05065e-20)
(0.721271 0.266394 8.50777e-21)
(0.740788 0.248503 1.05978e-19)
(0.759147 0.231947 -2.9195e-20)
(0.776422 0.21661 2.91591e-20)
(0.792686 0.202386 1.8808e-19)
(0.807995 0.189179 -1.53835e-21)
(0.822378 0.176916 -2.83878e-21)
(0.835901 0.165521 4.85911e-21)
(0.848845 0.154812 3.87406e-19)
(0.861291 0.144623 -1.44069e-19)
(0.871591 0.13564 6.32616e-20)
(0.0749291 0.151937 1.09253e-19)
(0.186773 0.346776 -1.54158e-19)
(0.278587 0.453288 2.9097e-19)
(0.349785 0.496453 -2.19912e-19)
(0.405561 0.499197 2.51777e-19)
(0.45105 0.480108 2.58268e-19)
(0.490038 0.451778 1.75611e-19)
(0.524943 0.421208 -1.65415e-20)
(0.557047 0.391536 9.57036e-21)
(0.586947 0.363811 -6.71331e-20)
(0.614924 0.338198 2.05117e-19)
(0.641145 0.31459 1.92695e-19)
(0.665736 0.292824 -1.21112e-19)
(0.688811 0.272742 3.26298e-19)
(0.710474 0.254198 -7.55508e-20)
(0.730819 0.237058 3.89795e-19)
(0.749933 0.221201 1.82915e-19)
(0.767899 0.206517 3.94617e-20)
(0.784791 0.192903 -2.36487e-20)
(0.800675 0.180268 -2.16718e-19)
(0.815585 0.16854 2.57195e-19)
(0.829594 0.157646 -1.68525e-19)
(0.842969 0.14742 -1.99138e-19)
(0.855775 0.137714 1.8263e-20)
(0.866509 0.129113 1.47347e-19)
(0.06786 0.146193 -2.31128e-20)
(0.170756 0.332727 2.68586e-19)
(0.257883 0.433924 -1.12508e-19)
(0.327269 0.474355 -6.4322e-20)
(0.383065 0.476286 -1.08191e-19)
(0.429575 0.457596 -2.83218e-19)
(0.470008 0.430292 1.64935e-19)
(0.506456 0.400985 4.31527e-19)
(0.54005 0.372607 3.62891e-19)
(0.571331 0.346118 3.57677e-20)
(0.600572 0.321659 2.41124e-19)
(0.627944 0.299121 -2.64478e-19)
(0.653585 0.278348 -4.97965e-19)
(0.677616 0.259187 -2.77497e-19)
(0.700151 0.241498 1.10481e-20)
(0.721291 0.225153 2.17835e-19)
(0.74113 0.210037 2.20619e-19)
(0.759757 0.196043 5.08434e-21)
(0.777254 0.183073 1.80122e-19)
(0.793689 0.171041 -1.18867e-19)
(0.809105 0.159875 -2.14291e-19)
(0.82358 0.149507 -1.90281e-19)
(0.837366 0.139788 5.19387e-20)
(0.850518 0.13058 4.59707e-20)
(0.861678 0.122378 -1.36193e-19)
(0.0609973 0.139849 -3.79232e-19)
(0.155288 0.317454 9.33338e-20)
(0.237967 0.413124 2.20979e-20)
(0.30568 0.450833 2.80615e-19)
(0.361549 0.452063 -2.53131e-19)
(0.40907 0.433908 4.04081e-19)
(0.450903 0.407753 -2.74634e-19)
(0.488835 0.379817 -1.86933e-19)
(0.523854 0.352823 -5.05447e-19)
(0.556455 0.327649 7.09267e-20)
(0.586904 0.304415 -9.6723e-20)
(0.615376 0.283012 -1.5426e-19)
(0.642019 0.26329 2.38233e-19)
(0.666964 0.245102 9.37738e-20)
(0.69033 0.228316 -3.52069e-20)
(0.712229 0.21281 -2.05667e-19)
(0.73276 0.198473 -2.92865e-19)
(0.752018 0.185205 -1.48985e-19)
(0.770091 0.172912 -2.83843e-19)
(0.787052 0.161511 1.20738e-19)
(0.802951 0.150934 -4.17718e-20)
(0.817871 0.141116 5.76086e-19)
(0.832049 0.131923 -3.58085e-19)
(0.845532 0.123229 -1.63275e-19)
(0.857107 0.115445 2.29241e-19)
(0.0543837 0.132928 4.45001e-20)
(0.140452 0.30101 -9.28348e-20)
(0.218933 0.390953 -2.56496e-19)
(0.285107 0.425956 6.75101e-20)
(0.341093 0.426592 -4.28088e-20)
(0.389605 0.4091 -8.79868e-20)
(0.432785 0.384214 2.03638e-19)
(0.472133 0.357748 -5.03763e-19)
(0.508509 0.332225 2.85248e-19)
(0.542364 0.308442 -2.41338e-19)
(0.573958 0.286501 -2.18e-19)
(0.603476 0.266293 1.4447e-19)
(0.63107 0.247676 9.71491e-20)
(0.656881 0.230512 2.03407e-19)
(0.681038 0.214675 2.96011e-19)
(0.703656 0.200049 5.81605e-20)
(0.724845 0.186529 4.0127e-19)
(0.744702 0.174021 -1.67611e-19)
(0.763321 0.162435 1.65634e-19)
(0.780781 0.151693 -1.70143e-19)
(0.797139 0.14173 2.20688e-19)
(0.812481 0.132485 -2.42792e-19)
(0.82703 0.123839 8.67552e-20)
(0.840826 0.115673 -6.16973e-20)
(0.852802 0.108325 -9.67213e-20)
(0.0480596 0.125455 2.8567e-19)
(0.126327 0.283452 -9.89548e-20)
(0.200869 0.367483 1.38516e-19)
(0.265636 0.399796 -5.52258e-21)
(0.321772 0.399941 3.02956e-19)
(0.371246 0.383234 -3.77644e-19)
(0.415712 0.359728 1.83262e-19)
(0.456402 0.334828 1.43019e-19)
(0.494059 0.310856 8.48073e-20)
(0.529098 0.288536 1.94779e-19)
(0.561774 0.267951 -1.23841e-19)
(0.592277 0.248996 4.19678e-19)
(0.620768 0.231538 -1.71749e-19)
(0.647398 0.215445 -1.14432e-19)
(0.672299 0.200599 -3.15245e-19)
(0.695597 0.186892 -2.23097e-19)
(0.717404 0.174225 -8.24596e-20)
(0.737827 0.162508 2.17365e-19)
(0.756961 0.151658 -3.42935e-20)
(0.774892 0.141602 3.33044e-19)
(0.791682 0.132277 -3.9441e-20)
(0.807423 0.123627 -1.62273e-19)
(0.822319 0.115545 -7.81244e-20)
(0.836411 0.107922 5.99099e-20)
(0.848772 0.101029 -3.46119e-20)
(0.0420639 0.117461 1.60127e-20)
(0.112989 0.264844 -1.61974e-19)
(0.183861 0.342789 1.67543e-19)
(0.247347 0.372431 -5.21465e-20)
(0.303657 0.372182 8.92642e-20)
(0.354055 0.356374 1.12525e-19)
(0.399736 0.334353 -2.58531e-19)
(0.441688 0.311108 -2.54715e-19)
(0.480548 0.288763 1.21211e-20)
(0.516696 0.267972 -2.73968e-19)
(0.550385 0.248803 3.27876e-19)
(0.581811 0.231157 -3.33444e-19)
(0.611143 0.214906 1.7347e-19)
(0.638538 0.199929 8.68498e-21)
(0.664137 0.186116 1.28929e-19)
(0.688071 0.173364 2.30976e-19)
(0.710459 0.161583 6.81423e-20)
(0.73141 0.150687 -2.74742e-19)
(0.751026 0.140601 -7.17288e-20)
(0.769398 0.131255 -1.12337e-19)
(0.786594 0.122591 -1.35527e-20)
(0.802706 0.114555 4.90398e-20)
(0.817927 0.107055 1.29377e-19)
(0.832297 0.0999882 9.69288e-20)
(0.845024 0.0935672 9.98236e-20)
(0.0364328 0.108976 -1.88907e-19)
(0.100506 0.245252 1.35527e-20)
(0.167986 0.316953 -7.95515e-20)