/*--------------------------------*- C++ -*----------------------------------*\
  =========                 |
  \\      /  F ield         | OpenFOAM: The Open Source CFD Toolbox
   \\    /   O peration     | Website:  https://openfoam.org
    \\  /    A nd           | Version:  7
     \\/     M anipulation  |
\*---------------------------------------------------------------------------*/
FoamFile
{
    version     2.0;
    format      ascii;
    class       surfaceScalarField;
    location    "5";
    object      phi;
}
// * * * * * * * * * * * * * * * * * * * * * * * * * * * * * * * * * * * * * //

dimensions      [0 3 -1 0 0 0 0];

internalField   nonuniform List<scalar> 
11129
(
-0.000127499
1.94553e-05
-5.15207e-10
-0.000141018
1.35203e-05
-6.05698e-10
-0.00014574
4.72207e-06
-6.8487e-10
-0.000138409
-7.32982e-06
-7.4545e-10
-0.000115366
-2.30425e-05
-7.8842e-10
-7.27083e-05
-4.26567e-05
-8.12408e-10
-6.92418e-06
-6.57833e-05
-8.16414e-10
8.39037e-05
-9.08271e-05
-8.00423e-10
-0.000114818
-7.64931e-10
0.000198722
-0.000121378
3.71389e-05
-0.000132696
2.4838e-05
-0.000134708
6.73432e-06
-0.000124069
-1.79691e-05
-9.70023e-05
-5.0109e-05
-4.94566e-05
-9.02024e-05
2.22942e-05
-0.000137534
0.000120392
-0.000188925
-0.00023853
0.000244104
-0.000109233
-0.000116183
3.17872e-05
-0.000112823
3.37434e-06
-9.56274e-05
-3.51643e-05
-6.05984e-05
-8.5138e-05
-3.38562e-06
-0.000147415
8.01213e-05
-0.000221041
0.000192532
-0.000301336
-0.000379699
0.000333702
-9.17377e-05
3.22698e-05
-8.04324e-05
-7.93094e-06
-5.3554e-05
-6.20427e-05
-6.787e-06
-0.000131905
6.46189e-05
-0.000218821
0.000165369
-0.000321792
0.000298692
-0.000434658
-0.000546258
0.00046525
-5.97347e-05
2.42875e-05
-3.80413e-05
-2.96244e-05
1.47517e-06
-0.000101559
6.35165e-05
-0.000193946
0.000153339
-0.000308643
0.000276335
-0.000444788
0.000436522
-0.000594845
-0.000745233
0.000635498
-2.0647e-05
5.9684e-06
1.37118e-05
-6.39832e-05
6.85979e-05
-0.000156445
0.000149159
-0.000274507
0.000261195
-0.00042068
0.000410863
-0.000594456
0.000603064
-0.000787046
-0.000982529
0.00084036
2.49716e-05
-2.44104e-05
7.40785e-05
-0.00011309
0.000146812
-0.000229179
0.000248783
-0.000376478
0.000386351
-0.000558248
0.000566434
-0.000774539
0.000794863
-0.00101548
-0.00126275
0.00107508
7.65082e-05
-6.8406e-05
0.000142229
-0.000178811
0.000234997
-0.000321946
0.000360882
-0.000502363
0.000526764
-0.00072413
0.000740257
-0.000988032
0.00100809
-0.00128331
-0.00158908
0.00133442
0.000133312
-0.000127397
0.000217277
-0.000262775
0.000331956
-0.000436625
0.000483842
-0.00065425
0.000680249
-0.000920537
0.000929343
-0.00123713
0.00123867
-0.00159264
-0.00196317
0.00161277
0.000194714
0.000298307
-0.000366369
0.000436445
-0.000574763
0.000615978
-0.000833783
0.000844525
-0.00114908
0.00113058
-0.00152318
0.00148233
-0.00194439
-0.00238514
0.0019043
0.000384395
-0.00049072
0.000547199
-0.000737568
0.000755565
-0.00104215
0.00101725
-0.00141076
0.00134077
-0.0018467
0.00173472
-0.00233835
-0.00285347
0.00220305
0.000474619
-0.000636696
0.000662942
-0.000925891
0.000900853
-0.00128006
0.00119603
-0.00170594
0.00155666
-0.00220734
0.00199142
-0.00277311
-0.00336504
0.002503
0.000568073
-0.000804894
0.000782401
-0.00114022
0.00105007
-0.00154773
0.00137844
-0.00203431
0.00177497
-0.00260386
0.002248
-0.00324615
-0.00391519
0.00279815
0.000663858
0.000904296
-0.00138066
0.00120143
-0.00184487
0.00156203
-0.0023949
0.00199237
-0.00303421
0.00250003
-0.00375381
-0.00449778
0.00308262
0.00102733
-0.00164691
0.0013531
-0.00217064
0.00174426
-0.00278606
0.00220553
-0.00349548
0.00274315
-0.00429143
-0.00510534
0.00335072
0.00115019
-0.00193826
0.0015032
-0.00252365
0.00192258
-0.00320543
0.00241112
-0.00398402
0.00297312
-0.00485343
-0.0057294
0.00359718
0.00127149
0.00164979
-0.00290195
0.00209436
-0.00365
0.00260584
-0.00449551
0.00318586
-0.00543344
-0.00636107
0.00381752
0.00179087
-0.00330301
0.00225697
-0.0041161
0.00278659
-0.00502512
0.00337751
-0.00602436
-0.00699207
0.0040085
0.00192434
0.00240786
-0.00459962
0.00295072
-0.00556798
0.0035452
-0.00661884
-0.00761667
0.0041698
0.00254424
-0.00509581
0.00309553
-0.00611926
0.00369041
-0.00721373
-0.00823048
0.00430422
0.00266293
0.00321554
-0.00667187
0.00381378
-0.00781197
-0.00895931
0.00454261
0.00330624
0.00388458
-0.00839031
-0.00959929
0.00452457
0.00391535
-0.00893889
-0.010172
0.00448803
0.00391359
-0.0106877
0.00442935
0.00434689
0.0106877
0.00434689
0.00391359
0.00893889
0.010172
0.00442935
0.00336677
0.00721694
0.00391535
0.00839031
0.00959929
0.00448803
0.00330624
0.00667187
0.00388458
0.00781197
0.00895931
0.00452457
0.00266293
0.00509581
0.00321554
0.00611926
0.00381378
0.00721373
0.00823048
0.00454261
0.00254424
0.00459962
0.00309552
0.00556798
0.00369041
0.00661884
0.00761667
0.00430422
0.00192434
0.00330301
0.00240786
0.0041161
0.00295072
0.00502512
0.0035452
0.00602436
0.00699207
0.0041698
0.00179087
0.00290195
0.00225697
0.00365
0.00278659
0.00449551
0.00337751
0.00543344
0.00636107
0.0040085
0.00127149
0.00193826
0.00164979
0.00252365
0.00209436
0.00320544
0.00260584
0.00398402
0.00318585
0.00485343
0.0057294
0.00381752
0.00115019
0.00164691
0.0015032
0.00217064
0.00192258
0.00278606
0.00241112
0.00349548
0.00297312
0.00429143
0.00510534
0.00359718
0.00102733
0.00138066
0.0013531
0.00184487
0.00174426
0.0023949
0.00220553
0.00303421
0.00274315
0.00375381
0.00449778
0.00335072
0.000663858
0.000804895
0.000904296
0.00114022
0.00120143
0.00154773
0.00156203
0.00203431
0.00199237
0.00260386
0.00250003
0.00324615
0.00391519
0.00308262
0.000568073
0.000636697
0.000782401
0.000925892
0.00105007
0.00128006
0.00137844
0.00170594
0.00177497
0.00220734
0.002248
0.00277311
0.00336504
0.00279815
0.00047462
0.000490721
0.000662943
0.000737569
0.000900853
0.00104215
0.00119603
0.00141077
0.00155666
0.0018467
0.00199142
0.00233835
0.00285347
0.002503
0.000384395
0.00036637
0.000547199
0.000574765
0.000755565
0.000833784
0.00101725
0.00114908
0.00134077
0.00152318
0.00173472
0.00194439
0.00238514
0.00220305
0.000194714
0.000127398
0.000298307
0.000262777
0.000436445
0.000436627
0.000615978
0.000654251
0.000844525
0.000920538
0.00113058
0.00123713
0.00148233
0.00159264
0.00196317
0.0019043
0.000133312
6.84072e-05
0.000217277
0.000178812
0.000331956
0.000321948
0.000483842
0.000502365
0.000680249
0.000724131
0.000929343
0.000988033
0.00123867
0.00128331
0.00158908
0.00161277
7.65084e-05
2.44116e-05
0.000142229
0.000113091
0.000234997
0.00022918
0.000360882
0.000376479
0.000526764
0.000558249
0.000740257
0.000774541
0.00100809
0.00101548
0.00126275
0.00133442
2.49718e-05
-5.96717e-06
7.40787e-05
6.39845e-05
0.000146812
0.000156447
0.000248783
0.000274508
0.000386351
0.000420682
0.000566434
0.000594457
0.000794863
0.000787048
0.00098253
0.00107508
-2.06468e-05
-2.42863e-05
1.37119e-05
2.96257e-05
6.85981e-05
0.000101561
0.000149159
0.000193948
0.000261195
0.000308645
0.000410863
0.000444789
0.000603064
0.000594846
0.000745235
0.00084036
-5.97345e-05
-3.22686e-05
-3.80411e-05
7.9323e-06
1.47529e-06
6.20442e-05
6.35166e-05
0.000131907
0.000153339
0.000218823
0.000276335
0.000321793
0.000436522
0.000434659
0.000546259
0.000635498
-9.17376e-05
-3.1786e-05
-8.04323e-05
-3.37297e-06
-5.35539e-05
3.51658e-05
-6.78691e-06
8.51395e-05
6.4619e-05
0.000147417
0.000165369
0.000221043
0.000298691
0.000301337
0.000379701
0.00046525
-0.000109233
-3.71379e-05
-0.000116183
-2.48368e-05
-0.000112823
-6.73295e-06
-9.56273e-05
1.79706e-05
-6.05984e-05
5.01105e-05
-3.38558e-06
9.0204e-05
8.01214e-05
0.000137536
0.000192532
0.000188927
0.000238531
0.000333702
-0.000121378
-1.94543e-05
-0.000132696
-1.3519e-05
-0.000134708
-4.7207e-06
-0.000124069
7.33131e-06
-9.70022e-05
2.30441e-05
-4.94566e-05
4.26584e-05
2.22942e-05
6.57849e-05
0.000120392
9.08287e-05
0.000114819
0.000244104
-0.000127499
-0.000141018
-0.00014574
-0.000138409
-0.000115366
-7.27083e-05
-6.92418e-06
8.39037e-05
0.000198722
0.000263841
-6.51187e-05
-4.8797e-10
0.000329278
-6.54366e-05
-4.48641e-10
0.000397815
-6.85364e-05
-4.0622e-10
0.000470821
-7.30055e-05
-3.60971e-10
0.000549551
-7.87296e-05
-3.13911e-10
0.000635151
-8.55992e-05
-2.64499e-10
0.000728616
-9.34654e-05
-2.13151e-10
0.000830829
-0.000102213
-1.60096e-10
0.000942554
-0.000111725
-1.04143e-10
0.00106441
-0.000121858
-4.50336e-11
0.00119686
-0.000132443
1.86454e-11
0.00134014
-0.00014328
8.88149e-11
0.00149427
-0.00015414
1.65233e-10
0.00165904
-0.00016477
2.49336e-10
0.00183395
-0.000174902
3.40645e-10
0.00201821
-0.000184262
4.38103e-10
0.00221079
-0.000192584
5.39966e-10
0.00241041
-0.000199619
6.42505e-10
0.00261555
-0.000205145
7.41179e-10
0.00282453
-0.00020898
8.30929e-10
0.00303551
-0.000210983
9.06391e-10
0.00324657
-0.000211056
9.62804e-10
0.00345571
-0.000209144
9.9582e-10
0.00366094
-0.000205233
1.00262e-09
0.00386028
-0.000199342
9.82533e-10
0.00405181
-0.000191528
9.36322e-10
0.0042337
-0.000181887
8.66374e-10
0.00440426
-0.00017056
7.76849e-10
0.004562
-0.000157743
6.73182e-10
0.0047057
-0.000143697
5.60876e-10
0.00483445
-0.000128752
4.45691e-10
0.00494774
-0.000113298
3.32764e-10
0.00504551
-9.77676e-05
2.26486e-10
0.00512811
-8.25972e-05
1.30124e-10
0.0051963
-6.81899e-05
4.5341e-11
0.00525117
-5.48751e-05
-2.68391e-11
0.00529406
-4.28814e-05
-8.6769e-11
0.00532638
-3.23242e-05
-1.3514e-10
0.0053496
-2.32156e-05
-1.72989e-10
0.00536508
-1.54797e-05
-2.01081e-10
0.00537406
-8.98885e-06
-2.20615e-10
0.00537764
-3.57469e-06
-2.32143e-10
0.00537672
9.2e-07
-2.35715e-10
0.00537204
4.67499e-06
-2.35024e-10
0.00536425
7.79066e-06
-2.28283e-10
0.00535379
1.04692e-05
-2.16059e-10
0.00534113
1.26525e-05
-2.0192e-10
0.00532643
1.47034e-05
-1.80767e-10
0.00531028
1.61546e-05
-1.66602e-10
1.80302e-05
-1.3103e-10
0.00030861
-0.000129624
0.000373544
-0.000130371
0.000441621
-0.000136613
0.000514133
-0.000145518
0.000592304
-0.0001569
0.000677263
-0.000170558
0.000769993
-0.000186195
0.000871362
-0.000203582
0.000982122
-0.000222484
0.00110288
-0.000242619
0.00123409
-0.000263646
0.00137598
-0.00028517
0.00152857
-0.000306734
0.00169164
-0.000327839
0.00186469
-0.000347954
0.00204696
-0.000366535
0.00223743
-0.000383054
0.00243483
-0.000397017
0.00263768
-0.00040799
0.00284431
-0.000415608
0.00305292
-0.000419594
0.00326162
-0.000419754
0.00346845
-0.000415979
0.00367146
-0.000408239
0.00386869
-0.000396572
0.00405825
-0.000381089
0.00423834
-0.000361976
0.00440729
-0.00033951
0.00456362
-0.000314078
0.00470612
-0.000286195
0.00483388
-0.000256512
0.00494639
-0.000225806
0.00504355
-0.000194932
0.00512571
-0.00016476
0.00519362
-0.000136094
0.00524833
-0.00010959
0.00529116
-8.57058e-05
0.00532351
-6.46748e-05
0.00534681
-4.65228e-05
0.00536244
-3.11014e-05
0.00537161
-1.81582e-05
0.00537539
-7.35954e-06
0.0053747
1.60672e-06
0.00537028
9.0981e-06
0.00536276
1.53139e-05
0.00535257
2.06572e-05
0.00534021
2.50117e-05
0.00532581
2.91017e-05
0.00530997
3.1993e-05
3.57324e-05
0.000396943
-0.000192865
0.000460822
-0.00019425
0.000527938
-0.000203729
0.000599433
-0.000217013
0.000676464
-0.000233932
0.00076013
-0.000254224
0.000851384
-0.000277449
0.000951067
-0.000303266
0.00105991
-0.000331323
0.00117849
-0.000361199
0.00130723
-0.000392389
0.00144636
-0.000424304
0.0015959
-0.000456271
0.00175561
-0.000487549
0.00192501
-0.000517352
0.00210336
-0.000544881
0.00228966
-0.000569354
0.00248268
-0.000590044
0.002681
-0.000606308
0.002883
-0.000617612
0.00308695
-0.000623544
0.00329102
-0.000623821
0.00349332
-0.00061828
0.00369196
-0.000606873
0.00388504
-0.000589656
0.00407074
-0.000566788
0.0042473
-0.000538536
0.00441309
-0.000505303
0.00456667
-0.000467652
0.00470681
-0.000426341
0.00483263
-0.00038233
0.00494359
-0.000336764
0.00503957
-0.000290914
0.00512089
-0.000246073
0.00518823
-0.000203439
0.00524263
-0.000163993
0.00528535
-0.000128423
0.00531776
-9.70824e-05
0.00534125
-7.00159e-05
0.00535716
-4.70085e-05
0.00536669
-2.76894e-05
0.0053709
-1.15648e-05
0.00537068
1.82713e-06
0.00536676
1.3018e-05
0.00535977
2.23027e-05
0.00535014
3.02839e-05
0.00533837
3.67847e-05
0.00532458
4.28903e-05
0.00530937
4.72e-05
5.27791e-05
0.000526497
-0.000254112
0.000588682
-0.000256435
0.000654259
-0.000269307
0.000724155
-0.000286908
0.000799428
-0.000309205
0.000881125
-0.000335921
0.000970154
-0.000366478
0.00106731
-0.000400426
0.00117329
-0.0004373
0.00128863
-0.000476543
0.00141374
-0.000517491
0.0015488
-0.00055937
0.00169383
-0.0006013
0.0018486
-0.000642313
0.00201263
-0.000681383
0.00218521
-0.000717467
0.0023654
-0.000749546
0.00255203
-0.000776674
0.00274374
-0.000798011
0.00293899
-0.000812864
0.00313614
-0.000820696
0.00333346
-0.000821138
0.00352915
-0.000813976
0.00372143
-0.000799145
0.00390848
-0.000776711
0.00408856
-0.000746871
0.00425999
-0.000709965
0.00442119
-0.000666504
0.00457076
-0.000617214
0.00470749
-0.000563071
0.00483048
-0.000505325
0.00493919
-0.000445473
0.00503346
-0.000385183
0.00511354
-0.000326158
0.00518008
-0.00026998
0.00523405
-0.000217955
0.00527662
-0.000170998
0.00530912
-0.000129587
0.0053329
-9.37955e-05
0.00534924
-6.33484e-05
0.00535932
-3.77658e-05
0.00536416
-1.64018e-05
0.00536464
1.34772e-06
0.00536147
1.61832e-05
0.00535528
2.84908e-05
0.0053465
3.90693e-05
0.0053356
4.76797e-05
0.00532273
5.57655e-05
0.00530847
6.1461e-05
6.88438e-05
0.000693916
-0.00031253
0.000753652
-0.000316171
0.000817011
-0.000332667
0.000884649
-0.000354546
0.000957492
-0.000382048
0.00103652
-0.000414944
0.00112256
-0.000452524
0.00121637
-0.000494231
0.00131856
-0.000539498
0.00142966
-0.000587634
0.00154999
-0.000637824
0.00167974
-0.000689124
0.0018189
-0.00074046
0.00196724
-0.000790653
0.00212432
-0.000838457
0.00228945
-0.000882603
0.00246176
-0.000921855
0.00264015
-0.000955061
0.00282334
-0.000981206
0.00300992
-0.000999446
0.00319836
-0.00100913
0.00338703
-0.00100981
0.00357428
-0.00100122
0.00375842
-0.000983284
0.00393777
-0.000956061
0.00411068
-0.000919783
0.00427556
-0.000874844
0.0044309
-0.000821847
0.00457534
-0.000761655
0.00470771
-0.000695442
0.00482711
-0.000624721
0.00493295
-0.000551318
0.00502504
-0.000477273
0.00510357
-0.000404686
0.0051691
-0.000335511
0.00522252
-0.000271372
0.00526494
-0.000213413
0.00529759
-0.000162244
0.00532177
-0.000117971
0.00533869
-8.02739e-05
0.0053495
-4.8574e-05
0.00535518
-2.20839e-05
0.0053566
-6.53945e-08
0.00535444
1.83423e-05
0.00534932
3.36119e-05
0.00534165
4.67343e-05
0.00533193
5.74054e-05
0.00532027
6.74248e-05
0.00530726
7.44626e-05
8.36015e-05
0.000894997
-0.000367167
0.000951405
-0.000372579
0.00101175
-0.000393016
0.00107639
-0.000419179
0.00114607
-0.000451732
0.00122168
-0.000490556
0.00130397
-0.000534816
0.00139361
-0.000583864
0.00149114
-0.000637029
0.00159701
-0.000693502
0.00171151
-0.00075233
0.0018348
-0.000812411
0.00196684
-0.000872498
0.00210741
-0.000931223
0.00225609
-0.00098714
0.00241227
-0.00103878
0.00257512
-0.00108471
0.00274364
-0.00112359
0.00291668
-0.00115424
0.00309293
-0.0011757
0.003271
-0.0011872
0.00344941
-0.00118822
0.00362664
-0.00117845
0.00380114
-0.00115779
0.00397137
-0.00112629
0.0041358
-0.00108421
0.00429294
-0.00103198
0.00444136
-0.000970265
0.00457975
-0.000900047
0.00470697
-0.000822667
0.00482213
-0.000739872
0.0049246
-0.000653787
0.00501413
-0.000566804
0.00509084
-0.000481395
0.0051552
-0.000399875
0.005208
-0.000324177
0.00525027
-0.000255677
0.00528315
-0.000195121
0.00530784
-0.000142662
0.00532551
-9.79444e-05
0.00533724
-6.03043e-05
0.00534398
-2.88252e-05
0.00534656
-2.64796e-06
0.00534566
1.92449e-05
0.00534187
3.74012e-05
0.0053356
5.30012e-05
0.00532734
6.56726e-05
0.00531719
7.75673e-05
0.00530576
8.58935e-05
9.67291e-05
0.00112488
-0.00041696
0.00117696
-0.000424663
0.0012334
-0.000449452
0.0012942
-0.000479977
0.00135994
-0.000517472
0.00143137
-0.00056199
0.00150914
-0.000612583
0.00159379
-0.000668519
0.00168581
-0.000729042
0.00178554
-0.000793235
0.00189323
-0.000860026
0.002009
-0.000928176
0.00213279
-0.000996287
0.00226439
-0.00106283
0.00240343
-0.00112618
0.00254934
-0.00118469
0.00270139
-0.00123676
0.00285869
-0.00128088
0.00302019
-0.00131575
0.00318475
-0.00134025
0.0033511
-0.00135355
0.00351794
-0.00135505
0.00368389
-0.0013444
0.00384757
-0.00132146
0.00400756
-0.00128629
0.00416247
-0.00123913
0.00431093
-0.00118043
0.00445159
-0.00111092
0.0045832
-0.00103166
0.00470467
-0.000944132
0.00481507
-0.000850278
0.00491378
-0.000752493
0.00500047
-0.000653492
0.00507517
-0.000556097
0.00513826
-0.00046297
0.00519043
-0.000376344
0.00523258
-0.000297828
0.00526577
-0.000228311
0.00529111
-0.000168003
0.00530969
-0.000116527
0.00532254
-7.31515e-05
0.00533056
-3.68425e-05
0.00533455
-6.63597e-06
0.00533515
1.86408e-05
0.00533296
3.95946e-05
0.00532836
5.75938e-05
0.00532184
7.21934e-05
0.00531352
8.58943e-05
0.00530397
9.54445e-05
0.000107906
0.00137822
-0.000460757
0.00142489
-0.00047134
0.00147643
-0.000500986
0.0015325
-0.000536047
0.00159347
-0.000578446
0.00165995
-0.000628465
0.00173242
-0.000685055
0.00181131
-0.000747415
0.001897
-0.000814724
0.00198974
-0.00088598
0.00208973
-0.000960011
0.00219702
-0.00103547
0.00231157
-0.00111083
0.00243317
-0.00118444
0.0025615
-0.00125451
0.00269607
-0.00131925
0.00283622
-0.00137692
0.0029812
-0.00142586
0.00313009
-0.00146464
0.0032819
-0.00149206
0.00343552
-0.00150717
0.0035898
-0.00150934
0.00374355
-0.00149815
0.00389552
-0.00147344
0.00404447
-0.00143524
0.00418912
-0.00138378
0.00432823
-0.00131953
0.00446054
-0.00124323
0.00458487
-0.001156
0.00470015
-0.00105941
0.00480547
-0.000955595
0.00490015
-0.000847174
0.00498381
-0.000737154
0.0050564
-0.000628684
0.00511818
-0.000524754
0.00516973
-0.000427891
0.00521183
-0.000339935
0.00524545
-0.000261924
0.00527158
-0.00019414
0.00529125
-0.000136199
0.00530542
-8.73152e-05
0.00531493
-4.63559e-05
0.00532056
-1.2263e-05
0.00532292
1.62791e-05
0.00532259
3.99296e-05
0.00531994
6.02375e-05
0.00531545
7.66824e-05
0.00530924
9.21093e-05
0.00530187
0.000102809
0.000116813
0.00164936
-0.000497349
0.00168951
-0.00051149
0.00173511
-0.000546587
0.00178552
-0.000586462
0.0018409
-0.000633818
0.00190163
-0.000689202
0.00196806
-0.000751477
0.00204044
-0.0008198
0.00211903
-0.000893311
0.002204
-0.000970948
0.00229546
-0.00105147
0.00239344
-0.00113346
0.00249789
-0.00121528
0.00260864
-0.00129518
0.0027254
-0.00137127
0.00284776
-0.00144161
0.00297519
-0.00150434
0.00310703
-0.00155771
0.00324254
-0.00160015
0.00338086
-0.00163037
0.00352105
-0.00164737
0.00366214
-0.00165043
0.00380309
-0.00163909
0.00394282
-0.00161316
0.00408022
-0.00157264
0.00421417
-0.00151774
0.00434353
-0.00144889
0.00446714
-0.00136685
0.0045839
-0.00127275
0.00469275
-0.00116827
0.0047928
-0.00105564
0.00488333
-0.000937702
0.00496389
-0.000817715
0.00503434
-0.000699131
0.00509483
-0.00058525
0.00514582
-0.000478882
0.00518799
-0.000382099
0.00522216
-0.000296095
0.00524925
-0.000221234
0.0052702
-0.000157144
0.00528588
-0.000103
0.00529712
-5.75871e-05
0.00530462
-1.9765e-05
0.00530899
1.19107e-05
0.00531077
3.81449e-05
0.00531035
6.06603e-05
0.00530817
7.88567e-05
0.00530436
9.59189e-05
0.00529949
0.000107683
0.000123138
0.00193247
-0.000525515
0.00196499
-0.000544018
0.00200365
-0.00058524
0.0020475
-0.000630317
0.00209646
-0.00068278
0.00215071
-0.000743453
0.00221037
-0.00081113
0.00227553
-0.000884962
0.0023463
-0.000964087
0.00242277
-0.00104742
0.00250499
-0.00113369
0.00259295
-0.00122141
0.00268659
-0.00130893
0.00278579
-0.00139438
0.00289031
-0.00147579
0.00299985
-0.00155115
0.00311397
-0.00161847
0.00323216
-0.0016759
0.00335381
-0.00172179
0.00347821
-0.00175478
0.00360462
-0.00177378
0.0037322
-0.00177801
0.00386007
-0.00176697
0.00398732
-0.00174041
0.00411299
-0.00169831
0.00423608
-0.00164082
0.00435556
-0.00156837
0.00447037
-0.00148166
0.00457947
-0.00138185
0.00468184
-0.00127064
0.00477659
-0.00115039
0.00486296
-0.00102408
0.00494045
-0.000895204
0.00500882
-0.000767496
0.00506811
-0.000644542
0.00511865
-0.000529428
0.00516101
-0.000424455
0.0051959
-0.000330981
0.00522413
-0.000249463
0.00524654
-0.000179556
0.00526395
-0.000120416
0.00527713
-7.07594e-05
0.00528674
-2.93785e-05
0.00529336
5.28797e-06
0.00529753
3.39812e-05
0.00529959
5.85925e-05
0.00530001
7.84365e-05
0.0052989
9.70329e-05
0.00529682
0.000109768
0.000126568
0.00222165
-0.000544116
0.00224557
-0.000567935
0.00227635
-0.000616022
0.00231282
-0.000666789
0.00235463
-0.000724593
0.0024017
-0.000790522
0.00245391
-0.000863337
0.00251118
-0.000942234
0.00257349
-0.00102639
0.00264081
-0.00111474
0.00271314
-0.00120602
0.00279047
-0.00129874
0.00287274
-0.00139121
0.00295988
-0.00148151
0.00305172
-0.00156763
0.00314804
-0.00164746
0.00324853
-0.00171896
0.00335281
-0.00178017
0.00346041
-0.00182939
0.00357079
-0.00186516
0.00368334
-0.00188633
0.0037974
-0.00189206
0.00391223
-0.0018818
0.00402707
-0.00185525
0.00414109
-0.00181233
0.00425341
-0.00175315
0.00436312
-0.00167807
0.00446924
-0.00158778
0.00457079
-0.0014834
0.00466681
-0.00136665
0.00475637
-0.00123995
0.00483871
-0.00110642
0.00491325
-0.000969747
0.00497967
-0.000833911
0.0050379
-0.000702773
0.00508816
-0.000579684
0.00513087
-0.000467169
0.00516665
-0.000366759
0.0051962
-0.000279017
0.00522028
-0.000203639
0.00523965
-0.000139778
0.00525498
-8.60981e-05
0.00526695
-4.13402e-05
0.00527607
-3.8358e-06
0.00528287
2.71815e-05
0.0052877
5.37671e-05
0.00529099
7.5145e-05
0.00529285
9.51649e-05
0.00529386
0.000108766
0.000126797
0.00251106
-0.000552178
0.00252557
-0.000582449
0.00254774
-0.000638187
0.00257615
-0.000695202
0.00261019
-0.000758632
0.00264947
-0.000829796
0.00269361
-0.000907483
0.00274237
-0.000990997
0.0027956
-0.00107961
0.00285319
-0.00117233
0.0029151
-0.00126793
0.00298132
-0.00136496
0.00305182
-0.00146171
0.00312656
-0.00155626
0.00320547
-0.00164654
0.00328841
-0.0017304
0.00337519
-0.00180574
0.00346557
-0.00187055
0.00355921
-0.00192304
0.00365572
-0.00196167
0.00375464
-0.00198525
0.00385544
-0.00199287
0.00395754
-0.0019839
0.0040603
-0.00195801
0.004163
-0.00191503
0.00426489
-0.00185504
0.00436515
-0.00177833
0.00446289
-0.00168552
0.00455719
-0.0015777
0.0046471
-0.00145657
0.00473173
-0.00132458
0.00481026
-0.00118495
0.00488207
-0.00104156
0.00494674
-0.000898582
0.00500411
-0.000760142
0.00505427
-0.000629843
0.00509754
-0.000510437
0.00513441
-0.000403629
0.00516549
-0.0003101
0.00519146
-0.000229603
0.00521298
-0.000161303
0.00523071
-0.00010383
0.00524526
-5.58848e-05
0.00525713
-1.57081e-05
0.00526682
1.74928e-05
0.00527467
4.59205e-05
0.0052811
6.87093e-05
0.00528623
9.00322e-05
0.00529061
0.000104388
0.000123524
0.00279497
-0.000548998
0.0027996
-0.000587078
0.00281268
-0.000651259
0.00283256
-0.000715089
0.00285834
-0.000784411
0.00288929
-0.000860746
0.00292481
-0.000943005
0.0029645
-0.00103069
0.0030081
-0.00112321
0.00305546
-0.00121969
0.00310653
-0.001319
0.00316129
-0.00141972
0.00321977
-0.00152018
0.00328196
-0.00161845
0.00334789
-0.00171246
0.00341751
-0.00180003
0.00349075
-0.00187898
0.00356748
-0.00194728
0.0036475
-0.00200306
0.00373056
-0.00204473
0.00381631
-0.00207101
0.00390438
-0.00208093
0.00399428
-0.00207381
0.0040855
-0.00204922
0.00417744
-0.00200697
0.00426943
-0.00194703
0.00436074
-0.00186964
0.00445057
-0.00177535
0.00453805
-0.00166517
0.00462225
-0.00154078
0.0047023
-0.00140462
0.00477735
-0.00126001
0.00484673
-0.00111093
0.00490992
-0.000961773
0.00496667
-0.000816894
0.00501696
-0.000680138
0.00506101
-0.000554481
0.00509919
-0.000441807
0.00513201
-0.000342927
0.00516008
-0.000257665
0.00518399
-0.000185215
0.00520434
-0.000124184
0.0052217
-7.3249e-05
0.00523657
-3.05695e-05
0.0052494
4.66238e-06
0.00526052
3.47927e-05
0.00527037
5.88605e-05
0.00527905
8.13571e-05
0.00528709
9.63445e-05
0.000116452
0.0030679
-0.00053428
0.00306261
-0.000581786
0.00306647
-0.000655117
0.0030776
-0.000726223
0.00309478
-0.000801586
0.00311695
-0.000882917
0.00314334
-0.00096939
0.00317343
-0.00106078
0.00320692
-0.0011567
0.00324365
-0.00125642
0.00328356
-0.00135891
0.00332667
-0.00146283
0.00337304
-0.00156654
0.00342274
-0.00166815
0.00347584
-0.00176557
0.00353242
-0.00185661
0.00359251
-0.00193906
0.00365607
-0.00201084
0.00372303
-0.00207002
0.00379327
-0.00211496
0.00386655
-0.00214429
0.00394259
-0.00215697
0.00402104
-0.00215226
0.00410146
-0.00212964
0.00418335
-0.00208886
0.00426614
-0.00202982
0.00434916
-0.00195267
0.00443168
-0.00185787
0.00451288
-0.00174637
0.00459189
-0.00161978
0.0046678
-0.00148054
0.00473977
-0.00133198
0.00480706
-0.00117822
0.00486909
-0.0010238
0.00492551
-0.000873316
0.00497621
-0.00073083
0.00502127
-0.000599543
0.00506099
-0.000481525
0.00509578
-0.000377724
0.00512617
-0.000288049
0.00515269
-0.000211737
0.00517589
-0.000147387
0.00519631
-9.36665e-05
0.0052144
-4.86607e-05
0.00523062
-1.1558e-05
0.00524529
2.01275e-05
0.00525881
4.53343e-05
0.0052713
6.88662e-05
0.00528329
8.43553e-05
0.000105289
0.00332477
-0.00050833
0.00331011
-0.000567135
0.00330504
-0.000650044
0.00330742
-0.000728602
0.00331574
-0.000809904
0.00332871
-0.000895885
0.00334546
-0.000986147
0.00336549
-0.0010808
0.00338847
-0.00117968
0.00341427
-0.00128222
0.00344286
-0.0013875
0.00347429
-0.00149426
0.00350865
-0.00160091
0.00354608
-0.00170559
0.00358674
-0.00180623
0.00363077
-0.00190063
0.00367828
-0.00198658
0.00372936
-0.00206192
0.00378404
-0.0021247
0.00384227
-0.00217319
0.00390394
-0.00220596
0.00396885
-0.00222188
0.00403673
-0.00222014
0.00410724
-0.00220015
0.00417995
-0.00216156
0.00425434
-0.00210422
0.00432984
-0.00202817
0.00440576
-0.00193379
0.00448133
-0.00182195
0.00455571
-0.00169416
0.00462801
-0.00155284
0.00469736
-0.00140133
0.00476297
-0.00124382
0.0048242
-0.00108503
0.00488061
-0.000929727
0.00493198
-0.000782206
0.00497833
-0.000645887
0.00501983
-0.000523027
0.00505683
-0.000414725
0.00508976
-0.000320983
0.00511912
-0.000241096
0.0051454
-0.000173669
0.00516911
-0.000117369
0.00519067
-7.02196e-05
0.00521052
-3.14126e-05
0.00522898
1.67299e-06
0.00524644
2.78708e-05
0.00526301
5.22918e-05
0.00527922
6.81442e-05
8.97501e-05
0.0035612
-0.000472347
0.00353846
-0.0005444
0.00352508
-0.000636659
0.00351878
-0.000722302
0.00351795
-0.000809079
0.00352125
-0.000899183
0.00352789
-0.000992784
0.00353742
-0.00109034
0.0035496
-0.00119186
0.00356432
-0.00129695
0.00358159
-0.00140477
0.00360148
-0.00151415
0.00362415
-0.00162357
0.00364977
-0.00173121
0.00367854
-0.00183501
0.0037107
-0.00193278
0.00374642
-0.0020223
0.00378589
-0.00210139
0.00382921
-0.00216802
0.00387642
-0.0022204
0.00392748
-0.00225702
0.00398229
-0.00227669
0.00404063
-0.00227848
0.00410221
-0.00226174
0.00416668
-0.00222603
0.00423359
-0.00217112
0.00430241
-0.00209698
0.0043725
-0.00200389
0.00444315
-0.0018926
0.00451354
-0.00176455
0.00458279
-0.00162209
0.00465001
-0.00146855
0.00471438
-0.00130819
0.0047752
-0.00114585
0.00483194
-0.000986469
0.0048843
-0.000834571
0.0049322
-0.000693788
0.00497574
-0.000566569
0.00501519
-0.000454169
0.0050509
-0.000356697
0.00508333
-0.000273518
0.00511291
-0.000203256
0.00514013
-0.000144587
0.00516539
-9.54809e-05
0.00518912
-5.51413e-05
0.00521161
-2.08185e-05
0.00523327
6.21606e-06
0.00525419
3.13716e-05
0.00527489
4.74412e-05
6.95574e-05
0.00377394
-0.000428766
0.00374503
-0.000515488
0.00372399
-0.000615618
0.0037089
-0.000707211
0.00369845
-0.000798627
0.00369151
-0.000892247
0.00368755
-0.000988825
0.00368628
-0.00108906
0.00368751
-0.0011931
0.0036912
-0.00130063
0.00369736
-0.00141093
0.0037061
-0.00152289
0.00371758
-0.00163505
0.00373203
-0.00174565
0.00374969
-0.00185267
0.00377084
-0.00195393
0.00379573
-0.0020472
0.00382461
-0.00213026
0.00385764
-0.00220105
0.00389493
-0.00225769
0.00393651
-0.00229861
0.00398232
-0.0023225
0.00403221
-0.00232837
0.00408594
-0.00231547
0.0041432
-0.00228329
0.00420358
-0.00223151
0.00426661
-0.00216001
0.0043317
-0.00206898
0.00439817
-0.00195907
0.00446524
-0.00183161
0.00453204
-0.00168888
0.00459767
-0.00153418
0.00466127
-0.00137179
0.00472208
-0.00120666
0.00477951
-0.0010439
0.00483318
-0.000888244
0.00488293
-0.000743531
0.00492877
-0.000612409
0.0049709
-0.000496298
0.00500962
-0.000395423
0.00504534
-0.000309232
0.00507845
-0.000236373
0.00510941
-0.000175546
0.00513861
-0.000124675
0.00516645
-8.29802e-05
0.00519322
-4.75885e-05
0.00521931
-1.98791e-05
0.00524483
5.84944e-06
0.00527029
2.19827e-05
4.44388e-05
0.0039609
-0.000381161
0.00392832
-0.000482908
0.00389997
-0.000587264
0.0038755
-0.000682745
0.00385464
-0.000777768
0.00383683
-0.000874433
0.00382187
-0.000973871
0.00380964
-0.00107683
0.00380001
-0.00118347
0.00379293
-0.00129355
0.00378842
-0.00140642
0.00378659
-0.00152106
0.00378761
-0.00163608
0.00379172
-0.00174976
0.0037992
-0.00186015
0.00381036
-0.00196509
0.0038255
-0.00206234
0.0038449
-0.00214967
0.0038688
-0.00222495
0.00389736
-0.00228625
0.00393064
-0.00233189
0.00396863
-0.00236049
0.00401121
-0.00237095
0.00405818
-0.00236245
0.00410927
-0.00233438
0.00416411
-0.00228635
0.00422227
-0.00221816
0.0042832
-0.00212991
0.00434627
-0.00202213
0.00441071
-0.00189606
0.00447568
-0.00175385
0.00454026
-0.00159877
0.00460358
-0.00143511
0.00466481
-0.00126789
0.00472332
-0.00110241
0.00477863
-0.000943559
0.00483052
-0.000795415
0.00487893
-0.000660819
0.00492399
-0.000541363
0.00496597
-0.000437398
0.0050052
-0.000348464
0.00504207
-0.000273245
0.005077
-0.000210472
0.00511035
-0.000158029
0.00514253
-0.00011516
0.00517382
-7.88738e-05
0.00520459
-5.06576e-05
0.00523497
-2.45245e-05
0.00526544
-8.48816e-06
1.413e-05
0.00412371
-0.000335071
0.00409008
-0.000449274
0.00405316
-0.000550349
0.00401773
-0.000647317
0.00398524
-0.000745273
0.00395582
-0.000845016
0.00392958
-0.00094763
0.00390643
-0.00105367
0.00388621
-0.00116326
0.00386886
-0.00127619
0.00385433
-0.0013919
0.00384271
-0.00150944
0.00383415
-0.00162752
0.00382889
-0.0017445
0.00382722
-0.00185848
0.00382948
-0.00196735
0.00383601
-0.00206887
0.00384712
-0.00216078
0.00386308
-0.00224091
0.00388408
-0.00230725
0.00391023
-0.00235804
0.00394154
-0.0023918
0.00397793
-0.00240734
0.00401922
-0.00240374
0.00406516
-0.00238032
0.00411542
-0.00233661
0.0041696
-0.00227234
0.00422719
-0.0021875
0.00428759
-0.00208253