/*--------------------------------*- C++ -*----------------------------------*\
  =========                 |
  \\      /  F ield         | OpenFOAM: The Open Source CFD Toolbox
   \\    /   O peration     | Website:  https://openfoam.org
    \\  /    A nd           | Version:  7
     \\/     M anipulation  |
\*---------------------------------------------------------------------------*/
FoamFile
{
    version     2.0;
    format      ascii;
    class       volVectorField;
    location    "5";
    object      U;
}
// * * * * * * * * * * * * * * * * * * * * * * * * * * * * * * * * * * * * * //

dimensions      [0 1 -1 0 0 0 0];

internalField   nonuniform List<vector> 
5650
(
(-0.038228 0.000950242 3.21152e-22)
(-0.0405237 0.000311051 -2.27172e-21)
(-0.040245 -0.000407063 -1.15107e-20)
(-0.0371072 -0.00118612 -2.34009e-20)
(-0.0308857 -0.00200862 6.28235e-21)
(-0.0214205 -0.00284722 8.63213e-21)
(-0.00870111 -0.00364593 7.13243e-21)
(0.00687202 -0.00430954 1.17146e-20)
(0.0253439 -0.00469991 3.8587e-21)
(-0.036767 0.00278945 -9.58507e-21)
(-0.0384935 0.000879705 -1.47145e-20)
(-0.0375762 -0.00126451 1.77384e-20)
(-0.0337307 -0.00358954 4.80112e-20)
(-0.026732 -0.00604334 -6.49683e-20)
(-0.0164173 -0.00854478 1.30685e-21)
(-0.00277635 -0.0109274 -1.1221e-20)
(0.0137644 -0.0129058 -3.90052e-21)
(0.0335105 -0.0140522 4.35605e-21)
(-0.0338383 0.00444697 -5.08026e-20)
(-0.0344314 0.00129013 -3.32601e-20)
(-0.0322431 -0.00224979 9.20054e-20)
(-0.0269905 -0.00608435 -3.664e-20)
(-0.0184482 -0.0101284 6.929e-20)
(-0.00644873 -0.0142496 -6.03843e-20)
(0.00901741 -0.0181748 -2.23728e-20)
(0.0274665 -0.0214315 -8.46198e-20)
(0.0497263 -0.0232592 1.18539e-20)
(-0.0283331 0.00144206 8.43741e-20)
(-0.0242538 -0.00344313 -1.06104e-19)
(-0.0169108 -0.00872657 -1.12072e-19)
(-0.00607984 -0.0142922 1.07198e-19)
(0.00841183 -0.0199603 -9.95634e-20)
(0.0265714 -0.0253592 5.31286e-20)
(0.0478167 -0.0298341 -3.14858e-20)
(0.0737618 -0.0322173 -1.35853e-20)
(-0.0201909 0.00124307 -1.23613e-19)
(-0.0136185 -0.00491711 1.51786e-19)
(-0.00352547 -0.0115647 -1.44566e-19)
(0.0103087 -0.0185552 -1.08993e-19)
(0.0280586 -0.0256672 5.47648e-21)
(0.0497276 -0.0324421 1.21114e-19)
(0.0745821 -0.038052 -2.83049e-20)
(0.105283 -0.0408136 1.55895e-20)
(-0.00999196 0.000611839 1.23781e-19)
(-0.00034761 -0.00673342 1.00059e-19)
(0.0131252 -0.0146364 4.12958e-20)
(0.0306373 -0.0229274 1.21151e-19)
(0.0523585 -0.0313497 3.44747e-20)
(0.0782862 -0.0393706 -1.45445e-19)
(0.107467 -0.046011 2.48286e-19)
(0.143864 -0.0489224 -1.31531e-20)
(0.00228315 -0.000518521 -1.69879e-19)
(0.0155512 -0.00893959 -1.02082e-19)
(0.0329972 -0.0179653 8.39995e-20)
(0.0548143 -0.0274043 -4.96331e-20)
(0.0811565 -0.0369718 -7.10189e-20)
(0.112011 -0.0460752 -1.11225e-19)
(0.146124 -0.0536204 -2.38686e-19)
(0.188996 -0.0564037 2.27775e-19)
(0.0166621 -0.00219713 -7.47472e-20)
(0.0340746 -0.0115655 3.47963e-20)
(0.0560456 -0.0215578 2.28125e-19)
(0.0827398 -0.0319641 -1.14693e-19)
(0.11428 -0.0424793 2.72433e-19)
(0.150636 -0.0524659 2.71199e-19)
(0.190161 -0.0607695 1.90275e-19)
(0.240102 -0.0631014 -1.92727e-19)
(0.033182 -0.004452 -1.99366e-19)
(0.0552253 -0.0146202 -1.6167e-19)
(0.082227 -0.0253994 -1.04332e-19)
(0.114309 -0.0365644 -6.85876e-20)
(0.151541 -0.0477972 1.0676e-19)
(0.193866 -0.0584303 -1.44122e-19)
(0.239148 -0.0673253 -6.56029e-20)
(0.296537 -0.0688437 3.43233e-20)
(0.0518892 -0.00728694 4.21511e-19)
(0.0790127 -0.0180882 2.1091e-19)
(0.1115 -0.0294517 -1.64112e-19)
(0.149411 -0.0411393 5.7558e-21)
(0.192737 -0.0528281 8.20106e-20)
(0.24138 -0.0638327 9.68036e-20)
(0.292622 -0.0731306 -3.25326e-19)
(0.357595 -0.0734457 3.62721e-19)
(0.105452 -0.0219268 -3.02868e-19)
(0.143822 -0.0336495 2.57134e-19)
(0.187929 -0.0455978 3.17575e-20)
(0.237652 -0.057451 -3.36812e-19)
(0.292827 -0.0685155 9.63979e-21)
(0.350081 -0.0780049 4.46121e-20)
(0.422504 -0.076714 -4.54534e-19)
(0.134561 -0.0260641 -1.99767e-21)
(0.179152 -0.0378992 1.77324e-19)
(0.229735 -0.0498225 2.74629e-19)
(0.286046 -0.0615221 -2.01464e-19)
(0.347819 -0.0723032 -4.38758e-20)
(0.410981 -0.0817483 -1.11684e-19)
(0.490422 -0.078454 2.70317e-19)
(0.166356 -0.030397 -3.72884e-19)
(0.217435 -0.0420777 2.5315e-19)
(0.274683 -0.05367 -4.85231e-20)
(0.337649 -0.0648772 4.23995e-19)
(0.405921 -0.0750083 6.69434e-20)
(0.474731 -0.0841479 -2.55096e-19)
(0.560433 -0.0784813 1.49147e-19)
(0.200844 -0.0347917 5.78904e-19)
(0.258602 -0.0460335 -2.82083e-19)
(0.322599 -0.0569737 -1.54453e-19)
(0.392155 -0.0673365 8.25124e-20)
(0.466646 -0.0764415 -1.95078e-19)
(0.540682 -0.0849871 1.12997e-20)
(0.631548 -0.0766363 -2.15189e-19)
(0.302558 -0.0495895 4.87975e-19)
(0.37327 -0.0595481 -3.06334e-19)
(0.449204 -0.0687118 -7.77581e-21)
(0.529448 -0.0764236 -1.66836e-20)
(0.608134 -0.08406 4.07848e-19)
(0.702712 -0.0728091 -9.76992e-20)
(0.349168 -0.0525473 -3.60149e-19)
(0.426436 -0.0611957 4.7889e-19)
(0.508381 -0.0688157 1.16942e-19)
(0.593714 -0.0747994 4.93556e-19)
(0.676335 -0.0811857 2.42443e-19)
(0.772826 -0.0669657 3.72245e-20)
(0.39825 -0.054695 1.08766e-19)
(0.481775 -0.0617167 1.64691e-19)
(0.569201 -0.0674737 -5.00961e-20)
(0.658776 -0.0714522 -4.306e-19)
(0.744488 -0.0762039 -7.11586e-20)
(0.840747 -0.0591218 3.56037e-19)
(0.538897 -0.0609202 -2.35707e-19)
(0.631114 -0.0645405 -3.55746e-20)
(0.723924 -0.066316 3.37011e-21)
(0.811759 -0.0689284 2.36461e-20)
(0.905229 -0.0492506 -4.31553e-19)
(0.597345 -0.0586379 1.2207e-19)
(0.693514 -0.0599227 -2.97478e-19)
(0.788472 -0.0593949 3.4277e-19)
(0.877408 -0.0591612 -8.4339e-20)
(0.965074 -0.0376392 6.28938e-20)
(0.755731 -0.053595 1.54255e-19)
(0.851771 -0.0507845 -7.80266e-19)
(0.941006 -0.0470575 -1.02941e-19)
(1.02043 -0.0265235 1.94026e-19)
(0.81701 -0.0455861 -1.56273e-19)
(0.912998 -0.0406853 2.79084e-21)
(1.00184 -0.0337241 4.05808e-19)
(1.07525 -0.0200611 -2.60335e-19)
(0.97107 -0.0293492 -5.65688e-19)
(1.05712 -0.0209476 -2.76252e-19)
(1.12526 -0.0162126 2.17781e-19)
(1.10637 -0.00767211 5.0015e-19)
(1.16833 -0.00710554 1.21207e-19)
(1.14977 0.00640253 2.47557e-19)
(1.20473 0.00532582 3.34194e-20)
(1.2351 0.0194287 -5.72999e-19)
(1.2351 -0.0194287 -5.73523e-20)
(1.14977 -0.00640249 -4.21226e-19)
(1.20473 -0.0053258 1.15606e-20)
(1.02523 0.0167421 6.15223e-19)
(1.10637 0.00767215 3.4528e-19)
(1.16833 0.00710555 1.70512e-19)
(0.97107 0.0293493 -3.86516e-19)
(1.05712 0.0209476 -3.918e-19)
(1.12526 0.0162126 4.35134e-19)
(0.81701 0.0455862 4.34432e-19)
(0.912998 0.0406854 1.92316e-19)
(1.00184 0.0337241 1.01279e-19)
(1.07525 0.0200611 -1.02808e-19)
(0.755731 0.0535951 1.54189e-19)
(0.851771 0.0507845 -5.91313e-19)
(0.941006 0.0470575 -4.03765e-19)
(1.02043 0.0265235 1.478e-19)
(0.597345 0.058638 -3.88357e-19)
(0.693514 0.0599228 -2.25297e-19)
(0.788472 0.059395 4.6183e-19)
(0.877408 0.0591612 -9.52652e-20)
(0.965074 0.0376392 8.44667e-20)
(0.538897 0.0609203 -2.47754e-19)
(0.631114 0.0645406 -5.24271e-20)
(0.723923 0.0663161 -4.14431e-21)
(0.811759 0.0689284 1.65037e-19)
(0.905229 0.0492506 -4.93147e-19)
(0.39825 0.0546952 -3.90774e-19)
(0.481775 0.0617168 3.14111e-20)
(0.569201 0.0674738 -7.29925e-20)
(0.658776 0.0714522 -2.89288e-19)
(0.744488 0.0762039 -3.6284e-19)
(0.840747 0.0591219 3.37243e-19)
(0.349168 0.0525474 -1.33685e-19)
(0.426436 0.0611958 4.47233e-19)
(0.508381 0.0688158 6.29907e-20)
(0.593714 0.0747995 4.46181e-19)
(0.676335 0.0811857 3.38238e-19)
(0.772826 0.0669657 1.47473e-19)
(0.302558 0.0495896 2.89747e-19)
(0.373271 0.0595482 -2.3977e-19)
(0.449204 0.0687119 -2.74073e-19)
(0.529448 0.0764236 2.1051e-19)
(0.608133 0.08406 2.92212e-19)
(0.702712 0.0728091 1.75207e-20)
(0.200844 0.0347918 3.03474e-19)
(0.258602 0.0460337 -3.51913e-19)
(0.322599 0.0569738 1.79227e-19)
(0.392155 0.0673366 -4.60819e-20)
(0.466646 0.0764416 -4.64463e-19)
(0.540682 0.0849872 2.46672e-19)
(0.631548 0.0766363 -3.26137e-19)
(0.166356 0.0303971 -4.33916e-19)
(0.217435 0.0420778 5.25912e-20)
(0.274683 0.0536702 -5.03696e-20)
(0.337649 0.0648773 6.28181e-19)
(0.405921 0.0750084 1.20103e-19)
(0.474731 0.084148 -4.65413e-19)
(0.560433 0.0784813 1.4595e-19)
(0.134561 0.0260642 1.55711e-19)
(0.179152 0.0378993 8.2338e-21)
(0.229735 0.0498226 2.36607e-19)
(0.286046 0.0615222 -1.69853e-19)
(0.347819 0.0723032 -2.65011e-19)
(0.410981 0.0817484 5.14732e-21)
(0.490422 0.0784541 3.41103e-19)
(0.105452 0.021927 -2.02231e-19)
(0.143823 0.0336497 3.67823e-19)
(0.187929 0.045598 -2.6681e-19)
(0.237652 0.0574511 -2.88635e-19)
(0.292827 0.0685156 8.57064e-20)
(0.350081 0.0780049 -5.93316e-20)
(0.422504 0.0767141 -4.40173e-19)
(0.0518893 0.0072871 3.72145e-20)
(0.0790129 0.0180883 5.83941e-20)
(0.1115 0.0294518 -2.44728e-19)
(0.149411 0.0411395 1.51441e-19)
(0.192737 0.0528282 9.33859e-20)
(0.24138 0.0638328 5.28406e-20)
(0.292622 0.0731306 -1.46216e-19)
(0.357595 0.0734458 1.0404e-19)
(0.0331821 0.00445217 -1.35626e-19)
(0.0552254 0.0146204 -4.17989e-20)
(0.0822271 0.0253996 -9.56107e-20)
(0.114309 0.0365645 -1.68647e-19)
(0.151541 0.0477973 -1.06207e-20)
(0.193866 0.0584304 -1.62272e-19)
(0.239149 0.0673254 7.56953e-20)
(0.296537 0.0688438 -1.63956e-20)
(0.0166623 0.0021973 1.03358e-19)
(0.0340747 0.0115657 -8.22213e-20)
(0.0560457 0.0215579 1.49296e-19)
(0.0827399 0.0319643 7.30303e-20)
(0.11428 0.0424794 1.06621e-19)
(0.150636 0.0524661 2.97762e-19)
(0.190161 0.0607696 2.1273e-19)
(0.240102 0.0631015 -2.27085e-19)
(0.00228325 0.000518697 -1.28329e-19)
(0.0155513 0.00893977 -1.29255e-19)
(0.0329973 0.0179654 4.50384e-20)
(0.0548143 0.0274045 4.41949e-20)
(0.0811566 0.036972 -2.21182e-19)
(0.112011 0.0460754 -8.2872e-20)
(0.146124 0.0536205 -2.066e-19)
(0.188996 0.0564038 1.71181e-19)
(-0.00999187 -0.000611658 1.84671e-19)
(-0.000347523 0.0067336 4.04648e-20)
(0.0131253 0.0146365 1.39987e-19)
(0.0306374 0.0229276 8.40374e-20)
(0.0523586 0.0313499 6.59219e-20)
(0.0782863 0.0393708 -1.1584e-19)
(0.107467 0.0460111 2.34693e-19)
(0.143864 0.0489225 -3.08024e-20)
(-0.0201908 -0.00124289 -1.57536e-19)
(-0.0136185 0.0049173 1.64775e-19)
(-0.0035254 0.0115649 -1.12754e-19)
(0.0103088 0.0185554 -2.1201e-19)
(0.0280586 0.0256674 4.90658e-20)
(0.0497277 0.0324422 1.54759e-19)
(0.0745822 0.0380521 2.00611e-20)
(0.105283 0.0408137 -4.07297e-20)
(-0.0283331 -0.00144188 5.22956e-20)
(-0.0242537 0.00344333 -1.1693e-19)
(-0.0169108 0.00872676 -7.84597e-20)
(-0.00607979 0.0142924 5.38067e-20)
(0.00841187 0.0199605 -3.31658e-20)
(0.0265714 0.0253594 2.63263e-21)
(0.0478167 0.0298342 6.12385e-21)
(0.0737618 0.0322175 -7.05184e-20)
(-0.0338382 -0.00444679 9.86367e-20)
(-0.0344314 -0.00128994 -1.09256e-20)
(-0.032243 0.00224999 5.3743e-20)
(-0.0269905 0.00608455 2.07549e-20)
(-0.0184482 0.0101286 1.66166e-20)
(-0.0064487 0.0142498 -2.17338e-20)
(0.00901743 0.0181749 -7.88066e-20)
(0.0274665 0.0214317 -3.26453e-20)
(0.0497263 0.0232593 -9.67162e-21)
(-0.0367669 -0.00278927 -1.91487e-20)
(-0.0384935 -0.000879512 9.94262e-21)
(-0.0375762 0.00126471 -1.80161e-20)
(-0.0337307 0.00358974 6.38797e-20)
(-0.026732 0.00604354 -7.98442e-20)
(-0.0164173 0.00854496 1.5951e-20)
(-0.00277634 0.0109275 -9.24452e-21)
(0.0137644 0.012906 5.94729e-21)
(0.0335105 0.0140523 -1.26996e-20)
(-0.038228 -0.000950064 4.5485e-22)
(-0.0405237 -0.000310858 -2.71615e-21)
(-0.040245 0.000407264 -1.22226e-20)
(-0.0371072 0.00118633 -1.57755e-20)
(-0.0308857 0.00200882 5.76082e-21)
(-0.0214205 0.00284741 2.48742e-21)
(-0.00870111 0.0036461 8.97295e-21)
(0.00687202 0.0043097 1.38535e-20)
(0.0253439 0.00470005 1.75263e-21)
(0.0395849 -0.00422817 3.44452e-21)
(0.0505328 -0.00413603 2.33107e-21)
(0.0618644 -0.00421438 -1.56711e-21)
(0.0739474 -0.00436679 4.9989e-22)
(0.0869226 -0.00458023 -2.38528e-21)
(0.101006 -0.00484267 -1.0022e-21)
(0.116391 -0.00514142 1.25872e-21)
(0.133241 -0.00546678 -3.04012e-21)
(0.151704 -0.00580971 5.83984e-21)
(0.171905 -0.00616088 -2.50423e-21)
(0.193948 -0.00651047 4.39759e-24)
(0.217903 -0.00684828 -5.70462e-22)
(0.243802 -0.0071639 2.16045e-21)
(0.271641 -0.00744705 -1.57969e-22)
(0.301366 -0.00768799 -1.56854e-21)
(0.33288 -0.00787799 7.15017e-22)
(0.366036 -0.00800972 -3.17461e-22)
(0.400643 -0.00807761 4.10518e-23)
(0.436468 -0.00807809 1.44595e-22)
(0.473242 -0.00800967 1.66842e-22)
(0.510666 -0.00787285 -5.35644e-23)
(0.54842 -0.00766996 -6.88946e-23)
(0.586167 -0.00740482 4.26556e-24)
(0.623563 -0.00708246 5.60667e-23)
(0.660264 -0.00670881 -1.4081e-22)
(0.695927 -0.00629054 1.93639e-23)
(0.730221 -0.00583501 1.13456e-25)
(0.762835 -0.00535032 -6.3161e-23)
(0.79348 -0.00484547 2.13587e-22)
(0.821908 -0.00433044 -1.85303e-22)
(0.847921 -0.00381607 2.93439e-23)
(0.87138 -0.00331371 -5.47532e-23)
(0.892222 -0.0028345 3.04421e-23)
(0.910461 -0.00238852 4.91953e-23)
(0.926186 -0.0019838 1.67494e-23)
(0.939556 -0.00162566 -8.23487e-23)
(0.950779 -0.00131634 -1.68361e-24)
(0.960098 -0.00105515 6.35745e-24)
(0.967764 -0.000839022 2.49893e-23)
(0.974034 -0.00066319 -2.18317e-23)
(0.979127 -0.000522165 2.42063e-23)
(0.983269 -0.000410099 -5.96647e-24)
(0.986606 -0.000321846 8.43367e-24)
(0.989336 -0.000252279 4.57371e-24)
(0.991497 -0.000198242 -4.46398e-25)
(0.993332 -0.000155017 -2.70136e-25)
(0.994677 -0.000122794 2.67147e-24)
(0.996005 -9.4754e-05 6.89199e-25)
(0.996691 -7.81072e-05 6.32783e-25)
(0.997909 -5.60047e-05 -5.61867e-25)
(0.0480797 -0.0126464 -5.70818e-21)
(0.0588553 -0.0123836 -7.61573e-21)
(0.070113 -0.012621 -6.16791e-21)
(0.0821667 -0.0130761 6.70284e-21)
(0.0951053 -0.0137129 1.03162e-20)
(0.109146 -0.0144961 -1.92923e-21)
(0.124479 -0.0153877 -5.04229e-21)
(0.141264 -0.0163587 7.07724e-21)
(0.159644 -0.017382 -7.71924e-21)
(0.179743 -0.0184298 4.43169e-21)
(0.20166 -0.0194726 -4.82348e-21)
(0.22546 -0.0204801 2.39455e-21)
(0.251177 -0.0214211 1.96392e-21)
(0.2788 -0.0222651 -8.92381e-22)
(0.308276 -0.0229829 1.54585e-21)
(0.339508 -0.0235487 -2.8348e-21)
(0.372351 -0.0239405 2.05166e-21)
(0.406614 -0.0241418 5.28177e-23)
(0.442068 -0.0241421 -1.6669e-23)
(0.478449 -0.0239368 -8.25787e-22)
(0.515464 -0.0235276 1.05069e-22)
(0.552796 -0.0229213 1.06867e-22)
(0.590117 -0.0221295 1.18518e-22)
(0.627089 -0.0211671 -6.90253e-23)
(0.663374 -0.0200517 -1.71381e-23)
(0.698635 -0.0188031 2.05285e-22)
(0.732549 -0.0174433 -1.16164e-22)
(0.764807 -0.0159963 -1.09722e-22)
(0.795127 -0.0144889 2.4477e-23)
(0.823262 -0.0129508 6.60281e-23)
(0.849016 -0.0114144 -2.61609e-23)
(0.872252 -0.00991351 -9.37124e-23)
(0.892905 -0.00848144 -6.27696e-23)
(0.910988 -0.00714831 1.69528e-22)
(0.926587 -0.00593822 -1.81871e-22)
(0.939856 -0.00486711 6.87739e-23)
(0.951002 -0.00394178 7.5555e-23)
(0.960263 -0.00316022 7.52442e-23)
(0.967886 -0.00251334 -2.91697e-23)
(0.974123 -0.00198693 -5.7655e-23)
(0.979194 -0.00156464 3.33088e-23)
(0.983318 -0.00122898 -2.92176e-23)
(0.986643 -0.000964603 -2.38123e-24)
(0.989364 -0.000756155 -1.89354e-23)
(0.991518 -0.000594221 1.48156e-24)
(0.993348 -0.000464673 -4.3688e-24)
(0.99469 -0.000368091 -4.75883e-24)
(0.996015 -0.000284039 3.72312e-24)
(0.996699 -0.000234141 2.4526e-24)
(0.997914 -0.000167887 -2.55974e-24)
(0.0649233 -0.020947 2.988e-20)
(0.0753555 -0.0205533 -4.00305e-21)
(0.086457 -0.020958 -5.8144e-21)
(0.0984438 -0.0217098 -1.37216e-20)
(0.111303 -0.0227605 -4.77625e-21)
(0.125251 -0.0240526 1.7279e-21)
(0.140476 -0.0255235 -1.56574e-20)
(0.157127 -0.0271251 2.83607e-20)
(0.175341 -0.0288129 -2.30215e-20)
(0.195234 -0.0305403 5.62737e-21)
(0.216896 -0.0322589 1.1903e-21)
(0.24039 -0.0339185 4.16587e-21)
(0.26574 -0.0354677 8.4068e-22)
(0.292934 -0.0368563 -9.03689e-21)
(0.321918 -0.0380365 1.69455e-21)
(0.352591 -0.0389655 4.20509e-21)
(0.384811 -0.0396076 -3.61169e-21)
(0.418394 -0.0399356 1.70379e-21)
(0.453116 -0.0399322 2.03386e-22)
(0.488721 -0.0395903 -5.53044e-22)
(0.524926 -0.0389125 1.41736e-21)
(0.561427 -0.0379103 -2.57226e-22)
(0.597908 -0.0366025 1.56819e-23)
(0.634043 -0.0350138 1.40555e-23)
(0.669508 -0.033173 -5.91283e-23)
(0.703979 -0.0311127 3.50864e-22)
(0.737143 -0.0288686 -4.76695e-22)
(0.768701 -0.0264803 2.21186e-22)
(0.798379 -0.0239916 -2.64394e-22)
(0.825937 -0.0214513 3.56352e-22)
(0.851181 -0.0189126 2.38275e-22)
(0.873977 -0.0164314 1.66564e-22)
(0.894257 -0.0140629 -2.03585e-22)
(0.91203 -0.0118569 -7.49807e-23)
(0.92738 -0.00985343 -7.30267e-24)
(0.940452 -0.00807918 1.34266e-22)
(0.951445 -0.00654562 -1.00449e-22)
(0.96059 -0.00524967 -1.10532e-22)
(0.968126 -0.0041765 7.56832e-23)
(0.9743 -0.00330277 9.71715e-24)
(0.979325 -0.00260151 -3.41666e-23)
(0.983416 -0.00204387 3.50988e-24)
(0.986716 -0.00160449 4.57283e-23)
(0.98942 -0.00125794 1.86526e-23)
(0.991561 -0.000988642 -6.72752e-24)
(0.993381 -0.000773147 -3.06475e-24)
(0.994715 -0.000612475 1.04217e-23)
(0.996034 -0.000472621 -8.36656e-24)
(0.996714 -0.000389602 8.31377e-25)
(0.997923 -0.000279363 -1.92997e-24)
(0.0898308 -0.0290418 -3.96089e-20)
(0.0997516 -0.0285815 1.78033e-20)
(0.110599 -0.0291687 -2.8577e-20)
(0.122465 -0.0302099 1.77157e-20)
(0.135189 -0.0316603 2.51296e-20)
(0.148986 -0.0334433 -1.8686e-20)
(0.164038 -0.0354723 -4.26945e-21)
(0.180481 -0.037681 9.94094e-21)
(0.198439 -0.0400076 -1.78703e-20)
(0.218018 -0.0423875 1.37116e-20)
(0.239298 -0.0447537 1.33273e-21)
(0.262331 -0.0470369 -3.79234e-21)
(0.287135 -0.0491667 -2.79298e-22)
(0.313691 -0.0510739 1.79567e-21)
(0.341941 -0.0526929 8.71421e-22)
(0.371787 -0.0539653 -3.25689e-22)
(0.40309 -0.0548421 1.64777e-21)
(0.435669 -0.0552863 -6.98081e-22)
(0.469313 -0.0552743 2.23482e-23)
(0.503777 -0.0547964 -2.93357e-22)
(0.538794 -0.0538566 8.74443e-22)
(0.574076 -0.0524708 -1.31026e-21)
(0.609326 -0.0506648 3.49465e-22)
(0.644237 -0.0484724 2.10795e-23)
(0.678502 -0.0459332 -5.55358e-22)
(0.711817 -0.0430913 8.40816e-22)
(0.743883 -0.0399957 -9.79283e-22)
(0.774417 -0.0367002 4.9649e-22)
(0.803156 -0.0332646 -2.52687e-22)
(0.829868 -0.0297559 2.13123e-22)
(0.854366 -0.0262472 -2.55357e-22)
(0.876515 -0.0228156 2.91747e-22)
(0.896248 -0.0195373 -2.53522e-22)
(0.913569 -0.0164817 -1.5124e-22)
(0.928551 -0.0137045 9.98956e-23)
(0.941333 -0.0112431 9.93872e-24)
(0.9521 -0.00911404 5.17595e-23)
(0.961074 -0.00731349 -6.80816e-23)
(0.968484 -0.00582133 -9.34898e-23)
(0.974564 -0.0046056 4.67806e-24)
(0.97952 -0.00362916 5.88784e-24)
(0.983562 -0.00285219 3.42391e-23)
(0.986826 -0.00223967 6.82256e-23)
(0.989504 -0.00175625 -1.94612e-23)
(0.991625 -0.00138048 -4.33727e-24)
(0.99343 -0.00107966 1.73239e-23)
(0.994753 -0.000855346 6.0247e-24)
(0.996062 -0.000660035 -1.47886e-24)
(0.996737 -0.000544112 -1.8231e-25)
(0.997938 -0.000390164 1.03596e-23)
(0.122391 -0.0368289 -2.22915e-20)
(0.131637 -0.036388 -3.10585e-20)
(0.14211 -0.0371829 7.21908e-20)
(0.153781 -0.0385074 -1.49794e-20)
(0.166298 -0.0403418 9.83244e-21)
(0.179871 -0.0425938 4.72408e-21)
(0.194675 -0.0451542 -3.59877e-20)
(0.210826 -0.0479394 3.72042e-20)
(0.228433 -0.050871 -1.3081e-20)
(0.247586 -0.0538672 1.84546e-21)
(0.268352 -0.0568434 -2.45626e-20)
(0.29077 -0.0597124 1.35953e-20)
(0.314849 -0.0623859 -7.55825e-21)
(0.340563 -0.064777 -6.56003e-21)
(0.367851 -0.066804 5.84006e-21)
(0.396614 -0.0683938 -1.44815e-21)
(0.426717 -0.0694852 2.54067e-21)
(0.45799 -0.0700322 2.3518e-21)
(0.490234 -0.0700056 -4.75981e-21)
(0.523219 -0.0693937 2.69478e-21)
(0.556698 -0.0682017 -4.83832e-22)
(0.590406 -0.0664496 5.47522e-22)
(0.624066 -0.06417 -2.41924e-22)
(0.657399 -0.061405 2.91221e-23)
(0.690119 -0.0582039 3.69523e-22)
(0.721944 -0.0546216 -1.12611e-22)
(0.752597 -0.0507188 -1.58889e-22)
(0.781812 -0.0465621 6.66509e-22)
(0.809341 -0.0422264 9.25571e-23)
(0.834963 -0.037795 -2.06997e-22)
(0.858498 -0.0333599 1.29664e-22)
(0.879812 -0.0290181 -7.06996e-22)
(0.898838 -0.0248662 -1.36288e-22)
(0.915572 -0.0209924 3.5106e-22)
(0.930078 -0.0174681 -4.35515e-22)
(0.942483 -0.0143414 2.10901e-22)
(0.952958 -0.0116341 2.82785e-22)
(0.96171 -0.00934222 -3.15864e-23)
(0.968953 -0.00744104 8.40405e-23)
(0.974911 -0.00589055 -9.40272e-24)
(0.979778 -0.00464412 1.21325e-22)
(0.983755 -0.00365144 -8.93625e-23)
(0.986971 -0.00286876 -7.01993e-23)
(0.989614 -0.00224977 -5.47983e-23)
(0.991709 -0.00176874 1.31153e-23)
(0.993494 -0.00138346 -3.18591e-23)
(0.994803 -0.00109611 -1.6252e-23)
(0.996099 -0.000845824 4.70146e-24)
(0.996768 -0.000697297 -1.63534e-24)
(0.997958 -0.000500025 -1.67715e-23)
(0.162084 -0.0441895 1.94666e-20)
(0.170497 -0.0438736 -1.60355e-21)
(0.180455 -0.0449137 -3.38541e-20)
(0.191832 -0.0465204 6.27756e-20)
(0.204049 -0.0487246 -6.01244e-20)
(0.217309 -0.0514231 2.80859e-20)
(0.231776 -0.0544849 -1.08822e-21)
(0.247541 -0.0578111 -1.11872e-20)
(0.264693 -0.0613077 -1.50153e-20)
(0.283302 -0.0648769 1.54967e-20)
(0.30342 -0.0684178 -2.51463e-21)
(0.325069 -0.0718269 6.37419e-21)
(0.348247 -0.0749996 1.85124e-20)
(0.372922 -0.0778333 -1.49164e-20)
(0.399027 -0.0802315 1.75716e-20)
(0.426466 -0.082108 -2.93302e-21)
(0.455109 -0.0833908 -1.55751e-20)
(0.484798 -0.0840259 1.29755e-20)
(0.515348 -0.0839791 -3.95955e-21)
(0.54655 -0.083237 2.69133e-21)
(0.578178 -0.0818061 -3.04135e-21)
(0.609995 -0.0797104 1.16418e-21)
(0.641751 -0.0769883 -8.85194e-22)
(0.673192 -0.0736895 3.12498e-22)
(0.704063 -0.0698719 3.84587e-23)
(0.734106 -0.0655999 -1.55128e-22)
(0.763069 -0.0609443 9.4959e-22)
(0.790707 -0.0559833 -9.29564e-22)
(0.816788 -0.0508046 7.40883e-22)
(0.841106 -0.0455066 6.68209e-22)
(0.863485 -0.0401985 -7.05971e-22)
(0.883799 -0.0349961 3.05312e-22)
(0.901974 -0.0300151 -3.93063e-22)
(0.918002 -0.0253619 -4.53932e-23)
(0.931935 -0.0211233 1.2945e-22)
(0.943884 -0.0173581 1.96322e-22)
(0.954005 -0.0140939 -5.06868e-22)
(0.962487 -0.0113272 1.42085e-22)
(0.969529 -0.00902932 2.15518e-22)
(0.975337 -0.0071531 -8.0628e-23)
(0.980095 -0.00564312 1.13816e-22)
(0.983992 -0.00443925 -5.07264e-23)
(0.987151 -0.00348972 -7.43142e-23)
(0.98975 -0.00273722 7.42674e-23)
(0.991814 -0.00215245 -1.84207e-23)
(0.993574 -0.0016838 -6.89974e-24)
(0.994865 -0.0013342 2.20792e-24)
(0.996146 -0.00102954 8.6116e-24)
(0.996806 -0.00084879 1.04343e-23)
(0.997982 -0.000608686 2.2256e-24)
(0.208297 -0.0509881 -6.53393e-20)
(0.215726 -0.0509189 -9.77865e-21)
(0.225007 -0.052256 -2.54467e-20)
(0.235968 -0.0541524 4.42413e-20)
(0.247775 -0.0567181 -3.74411e-20)
(0.260616 -0.0598428 4.5668e-20)
(0.274643 -0.0633757 -3.23886e-20)
(0.289917 -0.0672046 3.01876e-20)
(0.3065 -0.0712221 -3.40602e-20)
(0.324441 -0.0753157 2.55252e-20)
(0.343771 -0.0793702 9.22835e-21)
(0.364496 -0.0832679 -4.77451e-21)
(0.386602 -0.0868899 -1.57137e-21)
(0.410047 -0.0901201 1.32135e-21)
(0.434763 -0.0928491 3.74714e-21)
(0.460654 -0.0949791 -1.57481e-20)
(0.4876 -0.0964289 1.38674e-20)
(0.515454 -0.0971374 -7.37083e-21)
(0.54405 -0.0970662 6.87801e-21)
(0.573201 -0.0962006 -4.87016e-21)
(0.602709 -0.0945482 3.72683e-21)
(0.632363 -0.0921364 -1.52727e-21)
(0.661945 -0.0890092 2.22088e-22)
(0.691232 -0.0852225 1.00066e-22)
(0.719997 -0.0808415 1.13201e-22)
(0.748013 -0.0759388 6.56018e-22)
(0.775054 -0.0705935 2.004e-22)
(0.800897 -0.0648937 -1.0216e-21)
(0.825331 -0.0589381 1.61303e-22)
(0.848161 -0.0528384 -9.28502e-22)
(0.869223 -0.046719 6.86498e-22)
(0.888393 -0.040713 -4.00594e-22)
(0.905596 -0.0349543 -8.90259e-23)
(0.920814 -0.0295666 5.24225e-22)
(0.934088 -0.0246516 -3.88392e-22)
(0.945513 -0.0202792 2.34599e-22)
(0.955226 -0.016483 2.39365e-22)
(0.963396 -0.0132606 -3.76518e-22)
(0.970203 -0.0105805 1.78331e-22)
(0.975838 -0.00838912 -2.25124e-22)
(0.980469 -0.00662316 2.18799e-22)
(0.984272 -0.00521341 6.21164e-23)
(0.987363 -0.00409998 9.98408e-24)
(0.989912 -0.00321735 -6.39451e-23)
(0.991938 -0.00253069 2.45089e-23)
(0.993669 -0.00197996 8.28449e-24)
(0.994939 -0.00156904 -1.5828e-24)
(0.996201 -0.00121075 -3.18885e-23)
(0.996851 -0.000998235 -2.05547e-24)
(0.998011 -0.000715894 1.26661e-23)
(0.26034 -0.0570739 4.73011e-21)
(0.266645 -0.0573867 -1.93644e-20)
(0.275077 -0.0590885 -3.07738e-20)
(0.285477 -0.0612942 1.95651e-20)
(0.296746 -0.0642218 1.01178e-20)
(0.309049 -0.0677579 -5.62664e-20)
(0.322521 -0.0717337 3.91482e-20)
(0.337187 -0.076027 -2.00704e-20)
(0.353078 -0.0805188 2.64761e-20)
(0.370218 -0.085085 -9.95893e-21)
(0.388616 -0.0895985 2.20853e-21)
(0.408262 -0.0939296 3.1153e-21)
(0.429125 -0.0979481 -2.7861e-21)
(0.451158 -0.101526 1.44745e-21)
(0.47429 -0.104544 -6.06068e-21)
(0.49843 -0.106894 1.53519e-20)
(0.523466 -0.108487 -9.07994e-21)
(0.549266 -0.109256 3.9277e-21)
(0.575684 -0.109159 -6.98873e-21)
(0.60256 -0.10818 4.23428e-21)
(0.629722 -0.106328 -2.71297e-21)
(0.65699 -0.103633 3.11059e-22)
(0.68418 -0.100144 -8.60733e-24)
(0.7111 -0.0959212 4.70179e-22)
(0.737556 -0.0910366 1.17018e-22)
(0.76335 -0.0855687 -6.89608e-22)
(0.788284 -0.0796038 1.71246e-22)
(0.812159 -0.0732376 2.05567e-22)
(0.834785 -0.066578 4.13684e-22)
(0.855982 -0.0597479 -1.44042e-21)
(0.875596 -0.0528854 3.80442e-22)
(0.893507 -0.046139 -4.08679e-23)
(0.909636 -0.0396595 -4.00998e-23)
(0.923959 -0.0335871 2.68043e-24)
(0.936503 -0.0280379 6.0541e-22)
(0.947345 -0.0230929 -3.34687e-22)
(0.956603 -0.0187924 2.36383e-22)
(0.964424 -0.0151359 1.8011e-22)
(0.970969 -0.0120896 -4.33354e-22)
(0.976409 -0.00959493 2.0625e-22)
(0.980896 -0.00758152 -1.66263e-22)
(0.984594 -0.00597193 5.84877e-23)
(0.987607 -0.00469847 2.1418e-23)
(0.990097 -0.00368899 7.57788e-23)
(0.992081 -0.00290257 -1.40815e-23)
(0.993778 -0.00227127 3.24814e-24)
(0.995025 -0.00180011 1.01707e-23)
(0.996265 -0.00138903 1.50122e-23)
(0.996903 -0.00114529 -1.18201e-23)
(0.998045 -0.000821401 5.22448e-24)
(0.317461 -0.0622871 -1.38006e-20)
(0.322514 -0.0631273 9.94823e-22)
(0.329922 -0.0652772 -5.82558e-20)
(0.339608 -0.0678267 -4.98391e-20)
(0.350201 -0.0711286 4.37899e-20)
(0.361835 -0.075069 3.84626e-20)
(0.374625 -0.0794637 9.43168e-20)
(0.388556 -0.0841841 -5.4671e-20)
(0.403623 -0.0891038 -1.46353e-20)
(0.419822 -0.0940895 2.01702e-20)
(0.43714 -0.0990056 -3.81107e-20)
(0.455546 -0.103714 -1.78893e-21)
(0.475001 -0.108075 3.20869e-20)
(0.495448 -0.111952 -6.97974e-22)
(0.516818 -0.115218 -2.16548e-21)
(0.539022 -0.117756 -1.97417e-20)
(0.561961 -0.119471 6.02246e-21)
(0.585521 -0.120291 -4.10339e-21)
(0.609577 -0.120171 -1.16497e-21)
(0.633994 -0.119094 1.98251e-21)
(0.658632 -0.117069 -1.77978e-21)
(0.683343 -0.114129 1.32331e-21)
(0.707974 -0.110326 -6.33341e-22)
(0.732368 -0.105724 5.48715e-22)
(0.756362 -0.100401 -9.50142e-23)
(0.779791 -0.0944388 2.61939e-22)
(0.802482 -0.0879293 -1.44751e-22)
(0.824262 -0.080974 4.57811e-23)
(0.844962 -0.0736882 -4.44957e-22)
(0.864417 -0.0662039 -1.02939e-22)
(0.882484 -0.0586708 -9.32322e-22)
(0.899046 -0.0512515 1.72343e-21)
(0.914024 -0.044112 -7.6929e-22)
(0.927385 -0.0374081 -9.83551e-22)
(0.939141 -0.03127 6.144e-22)
(0.949353 -0.0257898 2.72518e-22)
(0.958117 -0.0210148 3.62685e-22)
(0.965559 -0.0169473 -3.54375e-22)
(0.971818 -0.0135525 2.72314e-22)
(0.977044 -0.0107674 -1.8037e-22)
(0.981372 -0.00851582 1.48278e-22)
(0.984953 -0.00671302 -2.03501e-22)
(0.98788 -0.0052845 -3.64663e-23)
(0.990306 -0.00415114 3.45413e-23)
(0.992242 -0.00326727 1.05884e-23)
(0.993902 -0.00255708 5.50164e-23)
(0.995121 -0.00202689 5.53268e-25)
(0.996337 -0.00156399 -1.59969e-24)
(0.996961 -0.00128961 8.62721e-24)
(0.998083 -0.000924971 -1.02292e-23)
(0.378856 -0.0664671 -1.19222e-19)
(0.382547 -0.0679864 8.01082e-20)
(0.38877 -0.0706822 -1.40905e-19)
(0.397586 -0.0736264 1.15256e-19)
(0.407363 -0.0773285 3.51953e-20)
(0.418194 -0.0816751 -2.79864e-20)
(0.43017 -0.0864697 -5.72838e-20)
(0.443229 -0.0915828 1.88949e-20)
(0.457329 -0.0968846 6.482e-20)
(0.472439 -0.102237 -1.50307e-20)
(0.48852 -0.1075 5.2426e-21)
(0.505529 -0.11253 -6.33652e-20)
(0.523412 -0.117182 4.92409e-20)
(0.542109 -0.121313 2.2079e-20)
(0.561551 -0.124788 -4.34416e-20)
(0.581658 -0.127486 1.05523e-20)
(0.602343 -0.129306 -1.11042e-20)
(0.62351 -0.130173 1.34369e-20)
(0.645058 -0.130037 -4.97503e-21)
(0.666879 -0.128882 7.22955e-22)
(0.688863 -0.126717 2.73889e-21)
(0.710894 -0.123575 -3.04849e-21)
(0.732852 -0.119511 5.63603e-22)
(0.754613 -0.114592 -5.46499e-22)
(0.776046 -0.108898 -3.51087e-23)
(0.797014 -0.102516 -2.95808e-22)
(0.817374 -0.0955404 7.85088e-22)
(0.836977 -0.0880765 8.57441e-23)
(0.855672 -0.0802451 -5.65192e-22)
(0.873313 -0.0721857 1.60135e-21)
(0.889766 -0.0640574 -2.48389e-23)
(0.904918 -0.056035 -2.75852e-22)
(0.918689 -0.0482987 -6.83655e-22)
(0.931038 -0.0410188 -5.61648e-22)
(0.941964 -0.0343391 5.8467e-22)
(0.95151 -0.0283627 5.67812e-22)
(0.95975 -0.0231446 -8.09404e-22)
(0.966788 -0.0186905 9.18161e-23)
(0.97274 -0.0149656 -4.11032e-22)
(0.977736 -0.0119038 3.84233e-22)
(0.981894 -0.00942402 8.43588e-23)
(0.985348 -0.00743511 -4.67183e-23)
(0.988181 -0.00585672 -1.38043e-23)
(0.990536 -0.00460307 -2.69684e-23)
(0.992419 -0.00362404 4.77511e-23)
(0.994038 -0.00283679 -1.90055e-23)
(0.995227 -0.0022489 -5.48692e-23)
(0.996416 -0.00173524 3.81026e-24)
(0.997026 -0.00143089 -4.60264e-24)
(0.998124 -0.00102638 -2.1419e-23)
(0.443674 -0.0694583 -4.6658e-20)
(0.44592 -0.071814 -7.76748e-20)
(0.450829 -0.0751659 1.95169e-19)
(0.458632 -0.0785723 -1.03805e-19)
(0.467461 -0.0827139 7.21884e-20)
(0.477359 -0.0874769 -1.0028e-19)
(0.488383 -0.0926572 4.80313e-20)
(0.500425 -0.0981314 -3.36649e-20)
(0.513408 -0.103772 4.25267e-20)
(0.527271 -0.109441 -2.11132e-20)
(0.541956 -0.114998 -3.50361e-20)
(0.557405 -0.120298 6.50601e-20)
(0.573558 -0.125192 -2.55612e-20)
(0.590352 -0.129536 -3.8372e-20)
(0.60772 -0.133188 1.54654e-20)
(0.625592 -0.136025 2.03645e-22)
(0.643894 -0.13794 9.51576e-21)
(0.662551 -0.138854 3.00156e-21)
(0.681485 -0.138717 -1.48015e-20)
(0.700615 -0.13751 1.33166e-21)
(0.719861 -0.135241 8.14362e-21)
(0.739139 -0.131944 -5.26171e-21)
(0.75836 -0.127676 1.21108e-21)
(0.777431 -0.122505 9.73886e-22)
(0.796252 -0.116512 -1.45012e-23)
(0.814714 -0.109786 -2.91132e-22)
(0.832699 -0.102423 2.31933e-22)
(0.850083 -0.0945325 -1.63726e-22)
(0.866734 -0.0862373 -8.81736e-22)
(0.882522 -0.0776826 7.60647e-22)
(0.897323 -0.0690354 -1.8292e-22)
(0.911029 -0.060481 1.39901e-22)
(0.923559 -0.0522121 -5.83434e-23)
(0.934865 -0.0444126 -1.55873e-22)
(0.944934 -0.0372395 -1.04506e-22)
(0.953788 -0.0308069 5.82952e-23)
(0.961482 -0.0251778 3.24001e-22)
(0.968097 -0.0203623 -6.79435e-22)
(0.973726 -0.0163265 1.81486e-22)