/*--------------------------------*- C++ -*----------------------------------*\
  =========                 |
  \\      /  F ield         | OpenFOAM: The Open Source CFD Toolbox
   \\    /   O peration     | Website:  https://openfoam.org
    \\  /    A nd           | Version:  7
     \\/     M anipulation  |
\*---------------------------------------------------------------------------*/
FoamFile
{
    version     2.0;
    format      ascii;
    class       volScalarField;
    location    "15";
    object      p;
}
// * * * * * * * * * * * * * * * * * * * * * * * * * * * * * * * * * * * * * //

dimensions      [0 2 -2 0 0 0 0];

internalField   nonuniform List<scalar> 
1989
(
-0.0813582
-0.070737
-0.060778
-0.0515395
-0.0430591
-0.0353552
-0.0284287
-0.0222652
-0.0168375
-0.0121084
-0.00803355
-0.0045632
-0.00164491
0.000774811
0.00274891
0.00432875
0.00556329
0.00649847
0.00717674
0.00763686
0.00791379
0.00803869
0.00803909
0.00793902
0.00775927
0.00751767
0.00722933
0.00690698
0.00656123
-0.253937
-0.254869
-0.255524
-0.255857
-0.255803
-0.255297
-0.254276
-0.252673
-0.250421
-0.24746
-0.243734
-0.2392
-0.233822
-0.227584
-0.220484
-0.212539
-0.203788
-0.19429
-0.184123
-0.173383
-0.162184
-0.150651
-0.138916
-0.127118
-0.115393
-0.103873
-0.0926794
-0.0819226
-0.0716956
-0.0620742
-0.0531157
-0.0448588
-0.0373244
-0.0305173
-0.0244277
-0.019034
-0.0143044
-0.0102
-0.00667659
-0.00368666
-0.00118124
0.000888631
0.00257087
0.00391152
0.00495405
0.00573896
0.00630344
0.00668128
0.00690277
0.00699485
0.0069812
0.00688244
0.00671634
0.00649811
0.00624063
0.00595472
-0.247586
-0.248416
-0.248964
-0.249187
-0.249026
-0.248426
-0.247329
-0.245675
-0.243405
-0.240465
-0.236807
-0.232391
-0.227189
-0.221184
-0.214377
-0.206785
-0.198443
-0.189406
-0.179745
-0.169547
-0.158916
-0.147965
-0.136816
-0.125595
-0.114427
-0.103433
-0.092728
-0.0824134
-0.0725777
-0.0632937
-0.0546175
-0.0465885
-0.0392299
-0.0325497
-0.0265426
-0.0211916
-0.0164704
-0.0123452
-0.00877682
-0.00572271
-0.00313827
-0.000978434
0.00080127
0.00224393
0.00339055
0.00427959
0.00494661
0.00542414
0.00574154
0.00592507
0.00599798
0.00598063
0.00589071
0.00574345
0.00555183
0.00532688
-0.241164
-0.241903
-0.242356
-0.242482
-0.242232
-0.241554
-0.240397
-0.238708
-0.236436
-0.233531
-0.229952
-0.225664
-0.220642
-0.214873
-0.208359
-0.201116
-0.193177
-0.18459
-0.175421
-0.16575
-0.155669
-0.145283
-0.134703
-0.124042
-0.113416
-0.102937
-0.0927098
-0.0828303
-0.0733818
-0.064434
-0.0560416
-0.0482443
-0.0410671
-0.034521
-0.0286044
-0.0233048
-0.0186008
-0.0144634
-0.0108584
-0.00774784
-0.00509132
-0.00284768
-0.000975823
0.00056438
0.00181143
0.0028017
0.00356908
0.00414473
0.00455702
0.00483146
0.00499079
0.00505506
0.00504178
0.00496616
0.00484125
0.00467818
-0.234695
-0.235354
-0.235725
-0.23577
-0.235446
-0.234706
-0.233506
-0.231798
-0.229537
-0.22668
-0.223191
-0.219038
-0.214202
-0.208671
-0.202447
-0.195547
-0.188001
-0.179852
-0.171161
-0.161999
-0.152452
-0.142612
-0.132581
-0.122463
-0.112363
-0.102385
-0.0926254
-0.0831731
-0.0741069
-0.0654932
-0.0573853
-0.0498228
-0.0428321
-0.0364266
-0.0306082
-0.0253685
-0.0206903
-0.0165495
-0.0129163
-0.00975715
-0.00703579
-0.0047148
-0.00275645
-0.00112354
0.000219916
0.00130815
0.00217332
0.00284519
0.00335104
0.00371556
0.00396091
0.00410675
0.00417038
0.0041669
0.00410937
0.00400902
-0.228198
-0.228789
-0.229091
-0.22907
-0.228687
-0.227902
-0.226674
-0.224962
-0.222726
-0.219928
-0.216538
-0.212528
-0.20788
-0.202587
-0.196651
-0.190088
-0.182923
-0.1752
-0.16697
-0.158301
-0.149267
-0.139955
-0.130454
-0.120861
-0.111272
-0.10178
-0.0924757
-0.0834419
-0.0747522
-0.0664699
-0.0586463
-0.051321
-0.0445212
-0.0382624
-0.0325496
-0.0273779
-0.0227342
-0.0185986
-0.0149456
-0.0117459
-0.00896711
-0.00657551
-0.00453663
-0.00281619
-0.00138072
-0.00019814
0.000761913
0.00152776
0.00212552
0.002579
0.0029097
0.00313683
0.0032774
0.00334637
0.00335674
0.0033198
-0.22169
-0.222225
-0.222471
-0.222398
-0.221971
-0.221155
-0.219914
-0.218211
-0.216013
-0.213286
-0.210003
-0.206141
-0.201685
-0.19663
-0.190977
-0.184742
-0.17795
-0.170638
-0.162855
-0.154659
-0.14612
-0.137315
-0.128326
-0.119239
-0.110142
-0.101123
-0.0922618
-0.0836371
-0.0753176
-0.067363
-0.0598231
-0.0527366
-0.0461314
-0.0400249
-0.0344245
-0.0293286
-0.0247277
-0.0206058
-0.0169415
-0.0137093
-0.0108807
-0.00842547
-0.00631231
-0.00450982
-0.00298706
-0.0017141
-0.000662399
0.000194848
0.000882549
0.00142357
0.00183868
0.00214657
0.00236391
0.00250543
0.00258405
0.00261104
-0.215188
-0.215678
-0.21588
-0.215768
-0.215311
-0.214478
-0.213237
-0.211557
-0.209408
-0.206761
-0.203593
-0.199884
-0.195622
-0.190802
-0.185429
-0.179515
-0.173084
-0.166169
-0.158815
-0.151076
-0.143013
-0.134695
-0.126197
-0.117599
-0.108978
-0.100415
-0.0919851
-0.0837597
-0.0758032
-0.0681722
-0.0609144
-0.0540677
-0.0476603
-0.0417111
-0.0362294
-0.0312166
-0.0266665
-0.0225667
-0.0188994
-0.0156428
-0.0127721
-0.0102604
-0.00807938
-0.0062006
-0.00459555
-0.00323648
-0.0020967
-0.00115094
-0.000375567
0.000251274
0.000749578
0.00113745
0.00143115
0.00164512
0.00179215
0.00188344
-0.208708
-0.209163
-0.209332
-0.209193
-0.208718
-0.207881
-0.206654
-0.205008
-0.202918
-0.20036
-0.197313
-0.193761
-0.189694
-0.185108
-0.180008
-0.174407
-0.168326
-0.161795
-0.154855
-0.147554
-0.139947
-0.132097
-0.124072
-0.115943
-0.107781
-0.0996592
-0.0916472
-0.0838106
-0.0762096
-0.0688974
-0.0619195
-0.0553128
-0.0491058
-0.0433181
-0.037961
-0.0330382
-0.0285466
-0.0244769
-0.0208148
-0.0175419
-0.0146368
-0.0120758
-0.00983366
-0.00788456
-0.00620251
-0.00476189
-0.00353789
-0.00250682
-0.00164635
-0.000935693
-0.000355688
0.000111125
0.000480523
0.000766639
0.000982038
0.00113782
-0.202266
-0.202694
-0.202841
-0.202686
-0.202206
-0.201376
-0.200172
-0.198571
-0.19655
-0.194088
-0.191167
-0.187775
-0.183903
-0.179549
-0.174718
-0.169421
-0.163678
-0.157517
-0.150975
-0.144094
-0.136924
-0.129524
-0.121952
-0.114273
-0.106553
-0.0988573
-0.09125
-0.0837915
-0.0765378
-0.0695389
-0.0628381
-0.0564711
-0.0504662
-0.0448437
-0.0396163
-0.03479
-0.0303641
-0.0263323
-0.0226834
-0.0194022
-0.0164704
-0.0138674
-0.0115709
-0.00955768
-0.00780413
-0.00628679
-0.00498273
-0.00386983
-0.00292714
-0.00213495
-0.00147501
-0.000930564
-0.000486357
-0.00012864
0.000154891
0.000375184
-0.195876
-0.196286
-0.19642
-0.196259
-0.195783
-0.194971
-0.193801
-0.192254
-0.190309
-0.187949
-0.18516
-0.18193
-0.178253
-0.174127
-0.169558
-0.164556
-0.15914
-0.153336
-0.147175
-0.140697
-0.133947
-0.126976
-0.119838
-0.112592
-0.105296
-0.0980114
-0.0907954
-0.083704
-0.0767891
-0.0700976
-0.0636704
-0.0575421
-0.0517403
-0.046286
-0.041193
-0.0364691
-0.0321157
-0.0281291
-0.0245011
-0.0212194
-0.0182686
-0.0156309
-0.0132869
-0.0112158
-0.0093965
-0.00780751
-0.00642778
-0.00523682
-0.00421505
-0.0033439
-0.00260608
-0.00198556
-0.00146769
-0.00103914
-0.00068793
-0.000403314
-0.189554
-0.189953
-0.190082
-0.189923
-0.189461
-0.188675
-0.187548
-0.186062
-0.184201
-0.181949
-0.179294
-0.176227
-0.172744
-0.168843
-0.164529
-0.159814
-0.154714
-0.149252
-0.143457
-0.137365
-0.131016
-0.124456
-0.117734
-0.110902
-0.104014
-0.0971243
-0.0902859
-0.0835503
-0.0769652
-0.0705745
-0.0644169
-0.0585255
-0.0529274
-0.0476436
-0.042689
-0.0380726
-0.033798
-0.0298637
-0.026264
-0.0229893
-0.020027
-0.017362
-0.0149774
-0.0128549
-0.0109756
-0.00932022
-0.00786946
-0.00660446
-0.00550702
-0.00455976
-0.00374637
-0.00305161
-0.00246145
-0.00196309
-0.00154487
-0.00119631
-0.183314
-0.183708
-0.183838
-0.18369
-0.183249
-0.182498
-0.181421
-0.180003
-0.178231
-0.176091
-0.173573
-0.17067
-0.167378
-0.163697
-0.159633
-0.155195
-0.150399
-0.145266
-0.139822
-0.134099
-0.128133
-0.121966
-0.115641
-0.109206
-0.102708
-0.0961985
-0.0897243
-0.0833327
-0.0770682
-0.0709713
-0.0650787
-0.0594218
-0.0540271
-0.0489155
-0.0441026
-0.0395984
-0.0354083
-0.0315328
-0.0279684
-0.0247081
-0.0217415
-0.0190564
-0.016638
-0.0144706
-0.0125374
-0.010821
-0.00930404
-0.00796924
-0.00679979
-0.00577953
-0.00489313
-0.00412621
-0.00346542
-0.00289848
-0.00241415
-0.00200225
-0.177169
-0.177564
-0.177702
-0.177571
-0.177158
-0.176447
-0.175427
-0.174083
-0.172404
-0.170379
-0.167999
-0.165259
-0.162156
-0.158691
-0.154869
-0.1507
-0.146196
-0.141379
-0.136271
-0.1309
-0.1253
-0.119508
-0.113562
-0.107506
-0.101383
-0.0952372
-0.0891134
-0.0830542
-0.0771004
-0.07129
-0.0656571
-0.0602318
-0.0550395
-0.0501011
-0.0454324
-0.0410446
-0.0369441
-0.0331334
-0.029611
-0.0263718
-0.0234082
-0.0207099
-0.0182646
-0.0160587
-0.0140776
-0.0123058
-0.0107276
-0.0093275
-0.00808993
-0.007
-0.00604341
-0.00520668
-0.00447715
-0.00384311
-0.0032938
-0.00281937
-0.171136
-0.171535
-0.171686
-0.171577
-0.171197
-0.170533
-0.169574
-0.168308
-0.166726
-0.164818
-0.162577
-0.159999
-0.157082
-0.153827
-0.15024
-0.146329
-0.142107
-0.137592
-0.132805
-0.127771
-0.12252
-0.117084
-0.1115
-0.105806
-0.10004
-0.0942438
-0.0884565
-0.0827177
-0.0770648
-0.0715329
-0.066154
-0.0609566
-0.0559653
-0.0512003
-0.0466778
-0.0424095
-0.0384033
-0.0346628
-0.0311884
-0.0279771
-0.0250232
-0.0223185
-0.019853
-0.0176151
-0.0155921
-0.0137705
-0.0121363
-0.0106754
-0.00937382
-0.00821778
-0.00719407
-0.00629009
-0.00549394
-0.00479455
-0.00418161
-0.00364567
-0.165227
-0.165634
-0.165802
-0.16572
-0.165378
-0.164765
-0.163871
-0.162686
-0.161202
-0.159412
-0.15731
-0.154892
-0.152157
-0.149107
-0.145747
-0.142085
-0.138133
-0.133907
-0.129426
-0.124712
-0.119793
-0.114698
-0.109459
-0.104109
-0.0986846
-0.093222
-0.0877575
-0.0823268
-0.0769645
-0.0717028
-0.0665717
-0.061598
-0.0568052
-0.0522133
-0.0478382
-0.0436922
-0.0397841
-0.0361187
-0.032698
-0.0295206
-0.0265828
-0.0238783
-0.0213991
-0.0191355
-0.0170767
-0.0152109
-0.0135259
-0.0120091
-0.0106477
-0.00942929
-0.00834173
-0.00737331
-0.00651292
-0.00575011
-0.00507513
-0.00447894
-0.159457
-0.159875
-0.160063
-0.160011
-0.15971
-0.159151
-0.158325
-0.157223
-0.15584
-0.154168
-0.152203
-0.149942
-0.147385
-0.144533
-0.141392
-0.13797
-0.134276
-0.130326
-0.126136
-0.121728
-0.117124
-0.112352
-0.10744
-0.102419
-0.0973195
-0.0921757
-0.0870202
-0.0818854
-0.076803
-0.0718029
-0.0669128
-0.062158
-0.057561
-0.0531409
-0.0489137
-0.044892
-0.0410852
-0.0374992
-0.0341372
-0.0309994
-0.0280837
-0.0253857
-0.022899
-0.0206159
-0.0185272
-0.016623
-0.0148924
-0.0133244
-0.0119076
-0.0106308
-0.00948285
-0.008453
-0.00753095
-0.00670692
-0.00597171
-0.00531673
-0.15384
-0.154271
-0.154481
-0.154461
-0.154204
-0.153701
-0.152944
-0.151928
-0.150644
-0.14909
-0.14726
-0.145152
-0.142768
-0.140108
-0.137178
-0.133985
-0.130538
-0.126851
-0.122938
-0.11882
-0.114516
-0.11005
-0.105449
-0.100739
-0.0959494
-0.0911094
-0.086249
-0.0813977
-0.0765845
-0.0718368
-0.0671805
-0.0626392
-0.0582343
-0.0539843
-0.0499049
-0.0460088
-0.0423057
-0.0388027
-0.0355039
-0.0324108
-0.0295228
-0.0268371
-0.0243489
-0.0220523
-0.0199395
-0.0180023
-0.0162315
-0.0146172
-0.0131496
-0.0118184
-0.0106137
-0.00952563
-0.00854471
-0.00766184
-0.00686843
-0.00615636
-0.14839
-0.148836
-0.149069
-0.149083
-0.148871
-0.148425
-0.147739
-0.146806
-0.145623
-0.144184
-0.142486
-0.140528
-0.138311
-0.135836
-0.133108
-0.130134
-0.126922
-0.123485
-0.119836
-0.115992
-0.111972
-0.107796
-0.103489
-0.0990749
-0.0945788
-0.0900277
-0.0854486
-0.0808683
-0.0763132
-0.0718085
-0.0673783
-0.0630447
-0.0588278
-0.0547454
-0.0508127
-0.0470427
-0.0434453
-0.0400281
-0.0367963
-0.0337525
-0.0308973
-0.0282293
-0.0257453
-0.0234407
-0.0213096
-0.019345
-0.017539
-0.0158834
-0.0143694
-0.0129881
-0.0117304
-0.0105875
-0.00955064
-0.00861154
-0.00776216
-0.0069949
-0.14312
-0.143581
-0.143838
-0.143887
-0.14372
-0.143332
-0.142716
-0.141868
-0.140782
-0.139456
-0.137887
-0.136074
-0.134017
-0.13172
-0.129185
-0.126419
-0.123431
-0.120231
-0.116831
-0.113247
-0.109495
-0.105595
-0.101566
-0.0974307
-0.0932128
-0.0889358
-0.0846241
-0.0803021
-0.0759939
-0.0717226
-0.0675104
-0.0633779
-0.0593442
-0.0554262
-0.0516387
-0.0479945
-0.0445038
-0.0411748
-0.0380131
-0.0350225
-0.0322046
-0.0295593
-0.0270847
-0.0247777
-0.0226335
-0.0206467
-0.0188108
-0.0171187
-0.015563
-0.0141357
-0.0128289
-0.0116346
-0.010545
-0.00955245
-0.00864953
-0.00782918
-0.138044
-0.138519
-0.138801
-0.138884
-0.138763
-0.138432
-0.137885
-0.137119
-0.136129
-0.134913
-0.133469
-0.131795
-0.129893
-0.127764
-0.125414
-0.122846
-0.12007
-0.117094
-0.113929
-0.11059
-0.107091
-0.103449
-0.099683
-0.0958119
-0.0918567
-0.0878391
-0.0837811
-0.0797047
-0.0756318
-0.0715838
-0.067581
-0.0636427
-0.0597868
-0.0560294
-0.0523848
-0.0488656
-0.045482
-0.0422424
-0.0391534
-0.0362192
-0.0334426
-0.0308245
-0.0283641
-0.0260595
-0.0239075
-0.0219036
-0.0200427
-0.0183189
-0.016726
-0.015257
-0.013905
-0.012663
-0.0115239
-0.0104808
-0.00952693
-0.00865579
-0.133172
-0.133662
-0.133968
-0.134086
-0.13401
-0.133734
-0.133256
-0.132569
-0.131672
-0.130562
-0.129237
-0.127696
-0.125942
-0.123974
-0.121798
-0.119418
-0.116842
-0.114077
-0.111135
-0.108026
-0.104765
-0.101366
-0.0978468
-0.0942239
-0.0905164
-0.0867436
-0.0829253
-0.0790816
-0.0752325
-0.0713974
-0.0675951
-0.0638436
-0.0601595
-0.0565582
-0.0530535
-0.0496575
-0.0463805
-0.0432313
-0.0402166
-0.0373416
-0.0346095
-0.0320224
-0.0295806
-0.0272831
-0.0251278
-0.0231117
-0.0212306
-0.0194798
-0.017854
-0.0163476
-0.0149544
-0.0136683
-0.0124831
-0.0113926
-0.0103906
-0.00947107
-0.128519
-0.129023
-0.129352
-0.129503
-0.12947
-0.129249
-0.128836
-0.128227
-0.127419
-0.12641
-0.125199
-0.123785
-0.12217
-0.120355
-0.118344
-0.116141
-0.113753
-0.111187
-0.108452
-0.10556
-0.102522
-0.0993511
-0.0960629
-0.092673
-0.089198
-0.0856554
-0.0820631
-0.0784393
-0.074802
-0.0711691
-0.067558
-0.0639852
-0.0604664
-0.0570161
-0.0536475
-0.0503724
-0.047201
-0.0441421
-0.0412028
-0.0383887
-0.0357039
-0.0331511
-0.0307315
-0.0284452
-0.0262911
-0.0242672
-0.0223703
-0.020597
-0.0189428
-0.0174031
-0.0159727
-0.0146463
-0.0134184
-0.0122836
-0.0112363
-0.0102711
-0.124096
-0.124612
-0.124964
-0.125147
-0.125155
-0.124986
-0.124635
-0.1241
-0.123377
-0.122464
-0.121362
-0.120068
-0.118585
-0.116913
-0.115057
-0.11302
-0.110808
-0.108428
-0.105888
-0.103198
-0.100367
-0.0974098
-0.0943379
-0.0911657
-0.0879084
-0.0845815
-0.0812013
-0.0777842
-0.0743467
-0.0709051
-0.0674754
-0.0640729
-0.0607123
-0.0574072
-0.0541703
-0.0510129
-0.0479452
-0.0449758
-0.0421121
-0.0393602
-0.0367246
-0.0342088
-0.0318146
-0.0295431
-0.0273941
-0.0253664
-0.0234581
-0.0216664
-0.019988
-0.018419
-0.0169553
-0.0155923
-0.0143253
-0.0131495
-0.0120599
-0.0110518
-0.119913
-0.120442
-0.120815
-0.121027
-0.121075
-0.120955
-0.120664
-0.120198
-0.119555
-0.118734
-0.117733
-0.116552
-0.115192
-0.113656
-0.111944
-0.110062
-0.108015
-0.105808
-0.103448
-0.100946
-0.0983092
-0.0955496
-0.0926787
-0.0897092
-0.0866546
-0.083529
-0.080347
-0.0771235
-0.0738734
-0.0706118
-0.0673534
-0.0641123
-0.0609022
-0.0577359
-0.0546256
-0.0515821
-0.0486152
-0.0457338
-0.0429453
-0.040256
-0.0376709
-0.0351939
-0.0328278
-0.0305741
-0.0284335
-0.0264058
-0.0244898
-0.0226837
-0.0209851
-0.0193908
-0.0178976
-0.0165017
-0.015199
-0.0139855
-0.0128569
-0.0118087
-0.115985
-0.116524
-0.116916
-0.117156
-0.117241
-0.117168
-0.116932
-0.116531
-0.115963
-0.115227
-0.114321
-0.113246
-0.112001
-0.11059
-0.109013
-0.107275
-0.105379
-0.103332
-0.101141
-0.0988119
-0.0963544
-0.0937779
-0.0910931
-0.0883113
-0.0854446
-0.0825057
-0.0795079
-0.0764646
-0.0733895
-0.0702963
-0.0671986
-0.0641094
-0.0610415
-0.0580071
-0.0550175
-0.0520832
-0.0492139
-0.0464181
-0.0437034
-0.0410763
-0.0385422
-0.0361053
-0.0337691
-0.0315357
-0.0294065
-0.027382
-0.0254618
-0.0236449
-0.0219297
-0.0203139
-0.0187948
-0.0173696
-0.0160348
-0.014787
-0.0136223
-0.0125371
-0.112321
-0.11287
-0.113279
-0.113545
-0.113665
-0.113634
-0.11345
-0.113109
-0.112611
-0.111954
-0.111136
-0.110158
-0.10902
-0.107724
-0.106271
-0.104666
-0.10291
-0.101011
-0.0989735
-0.0968042
-0.0945113
-0.0921032
-0.0895894
-0.0869803
-0.0842866
-0.0815199
-0.0786921
-0.0758155
-0.0729026
-0.0699659
-0.0670178
-0.0640706
-0.0611362
-0.0582258
-0.0553504
-0.05252
-0.0497439
-0.0470307
-0.0443877
-0.0418217
-0.0393382
-0.0369421
-0.0346369
-0.0324256
-0.03031
-0.0282914
-0.02637
-0.0245456
-0.0228172
-0.0211834
-0.0196421
-0.018191
-0.0168275
-0.0155487
-0.0143513
-0.0132321
-0.108935
-0.109492
-0.109917
-0.110207
-0.110358
-0.110366
-0.110229
-0.109945
-0.109511
-0.108926
-0.108189
-0.1073
-0.10626
-0.105069
-0.10373
-0.102245
-0.100618
-0.0988528
-0.0969555
-0.0949319
-0.092789
-0.0905344
-0.0881768
-0.0857252
-0.0831897
-0.0805804
-0.0779084
-0.0751848
-0.0724209
-0.0696283
-0.0668185
-0.0640028
-0.0611923
-0.0583977
-0.0556292
-0.0528965
-0.0502087
-0.0475739
-0.0449997
-0.0424928
-0.040059
-0.0377033
-0.0354297
-0.0332415
-0.0311413
-0.0291307
-0.0272107
-0.0253816
-0.0236432
-0.0219945
-0.0204342
-0.0189607
-0.0175719
-0.0162654
-0.0150385
-0.0138885
-0.105841
-0.106405
-0.106844
-0.107154
-0.107333
-0.107377
-0.107283
-0.107049
-0.106673
-0.106154
-0.10549
-0.104682
-0.10373
-0.102635
-0.101398
-0.100023
-0.0985111
-0.0968678
-0.0950973
-0.0932052
-0.0911977
-0.0890818
-0.0868651
-0.084556
-0.0821635
-0.0796969
-0.0771661
-0.0745813
-0.071953
-0.0692918
-0.0666082
-0.0639129
-0.0612163
-0.0585283
-0.0558588
-0.0532169
-0.0506114
-0.0480504
-0.0455412
-0.0430906
-0.0407045
-0.0383881
-0.0361459
-0.0339814
-0.0318975
-0.0298966
-0.02798
-0.0261486
-0.0244027
-0.0227421
-0.021166
-0.0196733
-0.0182624
-0.0169315
-0.0156783
-0.0145006
-0.103052
-0.103622
-0.104073
-0.104402
-0.104606
-0.104681
-0.104625
-0.104436
-0.104112
-0.103652
-0.103053
-0.102318
-0.101444
-0.100435
-0.0992895
-0.0980113
-0.096603
-0.095068
-0.0934105
-0.0916355
-0.0897487
-0.0877563
-0.0856654
-0.0834834
-0.0812185
-0.0788793
-0.0764749
-0.0740145
-0.0715079
-0.0689647
-0.066395
-0.0638084
-0.0612148
-0.0586237
-0.0560443
-0.0534855
-0.0509557
-0.0484627
-0.0460139
-0.0436159
-0.0412748
-0.0389959
-0.0367839
-0.0346428
-0.0325757
-0.0305853
-0.0286736
-0.0268419
-0.0250909
-0.023421
-0.0218319
-0.0203229
-0.0188931
-0.0175409
-0.0162647
-0.0150625
-0.100586
-0.10116
-0.101621
-0.101966
-0.102192
-0.102295
-0.102272
-0.102123
-0.101844
-0.101435
-0.100894
-0.100222
-0.0994177
-0.0984825
-0.0974176
-0.0962249
-0.0949068
-0.0934666
-0.091908
-0.0902356
-0.0884544
-0.0865703
-0.0845895
-0.0825189
-0.0803661
-0.0781388
-0.0758454
-0.0734945
-0.071095
-0.0686561
-0.0661869
-0.0636968
-0.0611947
-0.0586899
-0.056191
-0.0537066
-0.0512448
-0.0488133
-0.0464193
-0.0440694
-0.0417697
-0.0395256
-0.0373421
-0.0352232
-0.0331726
-0.0311932
-0.0292872
-0.0274566
-0.0257025
-0.0240255
-0.0224259
-0.0209035
-0.0194577
-0.0180874
-0.0167914
-0.015568
-0.0984606
-0.0990391
-0.0995098
-0.0998697
-0.100112
-0.100237
-0.100243
-0.100127
-0.0998868
-0.0995215
-0.0990299
-0.0984115
-0.0976664
-0.0967952
-0.0957988
-0.094679
-0.093438
-0.0920788
-0.0906047
-0.0890199
-0.087329
-0.0855373
-0.0836506
-0.0816754
-0.0796183
-0.0774869
-0.0752886
-0.0730317
-0.0707243
-0.0683751
-0.0659926
-0.0635856
-0.0611628
-0.0587327
-0.0563038
-0.0538843
-0.051482
-0.0491045
-0.0467588
-0.0444515
-0.0421887
-0.0399759
-0.0378181
-0.0357198
-0.0336846
-0.0317158
-0.0298161
-0.0279875
-0.0262316
-0.0245495
-0.0229417
-0.0214085
-0.0199495
-0.0185642
-0.0172515
-0.0160101
-0.096697
-0.0972784
-0.0977554
-0.0981246
-0.0983829
-0.0985279
-0.0985574
-0.098469
-0.098261
-0.0979319
-0.0974807
-0.0969069
-0.0962104
-0.0953917
-0.0944517
-0.093392
-0.0922145
-0.0909218
-0.0895173
-0.0880046
-0.086388
-0.0846725
-0.0828634
-0.0809666
-0.0789886
-0.0769362
-0.0748165
-0.0726372
-0.070406
-0.0681311
-0.0658205
-0.0634826
-0.0611257
-0.058758
-0.0563876
-0.0540224
-0.0516701
-0.049338
-0.0470332
-0.044762
-0.0425307
-0.0403448
-0.0382094
-0.0361289
-0.0341075
-0.0321484
-0.0302546
-0.0284285
-0.0266719
-0.0249862
-0.0233723
-0.0218306
-0.0203612
-0.0189638
-0.0176376
-0.0163816
-0.0953204
-0.0959036
-0.0963856
-0.096763
-0.0970331
-0.0971932
-0.097241
-0.0971742
-0.096991
-0.09669
-0.0962701
-0.0957309
-0.0950722
-0.0942943
-0.093398
-0.0923848
-0.0912565
-0.0900156
-0.0886649
-0.0872081
-0.0856492
-0.0839927
-0.0822437
-0.0804079
-0.0784912
-0.0765002
-0.0744416
-0.0723227
-0.0701508
-0.0679337
-0.0656792
-0.0633953
-0.06109
-0.0587711
-0.0564466
-0.0541241
-0.0518112
-0.0495151
-0.0472425
-0.0450001
-0.0427939
-0.0406296
-0.0385121
-0.0364462
-0.0344361
-0.0324851
-0.0305966
-0.0287729
-0.0270162
-0.0253282
-0.0237098
-0.0221619
-0.0206847
-0.0192781
-0.0179415
-0.0166743
-0.0943642
-0.0949487
-0.0954341
-0.0958171
-0.0960949
-0.096265
-0.0963251
-0.0962732
-0.0961071
-0.0958255
-0.0954273
-0.094912
-0.0942793
-0.0935296
-0.0926636
-0.0916826
-0.0905884
-0.0893832
-0.0880698
-0.0866517
-0.0851327
-0.0835171
-0.0818098
-0.0800162
-0.078142
-0.0761935
-0.0741773
-0.0721003
-0.0699696
-0.0677928
-0.0655773
-0.063331
-0.0610615
-0.0587767
-0.0564843
-0.0541917
-0.0519064
-0.0496355
-0.0473857
-0.0451636
-0.0429751
-0.040826
-0.0387214
-0.036666
-0.0346639
-0.032719
-0.0308343
-0.0290127
-0.0272562
-0.0255667
-0.0239455
-0.0223934
-0.020911
-0.0194981
-0.0181545
-0.0168796
-0.0938615
-0.0944468
-0.0949341
-0.0953202
-0.0956023
-0.0957779
-0.0958447
-0.0958005
-0.0956435
-0.095372
-0.0949852
-0.0944824
-0.0938634
-0.0931285
-0.0922783
-0.0913142
-0.0902377
-0.0890512
-0.0877573
-0.0863594
-0.0848612
-0.083267
-0.0815815
-0.0798099
-0.077958
-0.0760318
-0.0740377
-0.0719826
-0.0698735
-0.0677177
-0.0655227
-0.063296
-0.0610454
-0.0587785
-0.0565029
-0.054226
-0.0519553
-0.0496976
-0.0474598
-0.0452484
-0.0430694
-0.0409284
-0.0388306
-0.0367807
-0.0347831
-0.0328413
-0.0309588
-0.0291383
-0.027382
-0.0256919
-0.0240693
-0.0225151
-0.0210299
-0.0196138
-0.0182666
-0.0169876
)
;

boundaryField
{
    inlet
    {
        type            zeroGradient;
    }
    outlet
    {
        type            fixedValue;
        value           nonuniform 0();
    }
    cylinder
    {
        type            zeroGradient;
    }
    top
    {
        type            symmetryPlane;
    }
    bottom
    {
        type            symmetryPlane;
    }
    defaultFaces
    {
        type            empty;
    }
    procBoundary14to10
    {
        type            processor;
        value           nonuniform List<scalar> 
57
(
-0.0807211
-0.069704
-0.0594085
-0.0498933
-0.0411949
-0.0333284
-0.0262905
-0.0200616
-0.0146089
-0.00988924
-0.00585228
-0.0024428
0.000396815
0.00272466
0.0045977
0.00607073
0.00719562
0.00802069
0.0085903
0.00894469
0.00911991
0.00914792
0.00905672
0.00887065
0.00861062
0.00829441
0.007937
0.00755093
0.00714653
-0.260181
-0.261227
-0.262001
-0.26246
-0.262526
-0.262129
-0.261201
-0.259665
-0.257446
-0.254478
-0.250699
-0.246056
-0.240513
-0.234046
-0.226655
-0.218356
-0.209191
-0.199224
-0.18854
-0.177245
-0.165463
-0.153332
-0.140996
-0.128606
-0.116311
-0.104253
-0.092563
-0.092563
)
;
    }
    procBoundary14to11
    {
        type            processor;
        value           uniform 0.00620087;
    }
    procBoundary14to13
    {
        type            processor;
        value           nonuniform List<scalar> 
35
(
-0.252771
-0.246514
-0.240176
-0.233781
-0.227347
-0.220892
-0.214435
-0.20799
-0.201576
-0.195208
-0.1889
-0.18267
-0.176531
-0.170499
-0.164589
-0.158816
-0.153195
-0.14774
-0.142465
-0.137382
-0.132506
-0.127848
-0.12342
-0.119234
-0.115303
-0.111638
-0.108251
-0.105156
-0.102368
-0.0999024
-0.0977776
-0.0960151
-0.0946395
-0.093684
-0.0931816
)
;
    }
    procBoundary14to15
    {
        type            processor;
        value           nonuniform List<scalar> 
35
(
0.00564946
0.00507785
0.00448644
0.00387548
0.00324525
0.00259618
0.00192879
0.00124376
0.000541927
-0.000175722
-0.000908014
-0.00165358
-0.00241086
-0.00317807
-0.00395321
-0.00473403
-0.00551807
-0.00630261
-0.00708468
-0.00786109
-0.00862834
-0.00938273
-0.0101203
-0.0108367
-0.0115274
-0.0121876
-0.0128122
-0.0133956
-0.0139321
-0.0144153
-0.0148385
-0.0151944
-0.0154752
-0.0156722
-0.0157759
)
;
    }
}


// ************************************************************************* //
