/*--------------------------------*- C++ -*----------------------------------*\
  =========                 |
  \\      /  F ield         | OpenFOAM: The Open Source CFD Toolbox
   \\    /   O peration     | Website:  https://openfoam.org
    \\  /    A nd           | Version:  7
     \\/     M anipulation  |
\*---------------------------------------------------------------------------*/
FoamFile
{
    version     2.0;
    format      ascii;
    class       surfaceScalarField;
    location    "10";
    object      phi;
}
// * * * * * * * * * * * * * * * * * * * * * * * * * * * * * * * * * * * * * //

dimensions      [0 3 -1 0 0 0 0];

internalField   nonuniform List<scalar> 
11129
(
-0.00011347
1.65256e-05
-5.37912e-12
-0.000124094
1.06237e-05
6.498e-12
-0.00012619
2.09573e-06
2.34186e-11
-0.000116868
-9.32135e-06
4.64849e-11
-9.3026e-05
-2.38424e-05
7.56372e-11
-5.15659e-05
-4.14602e-05
1.11635e-10
9.91438e-06
-6.14804e-05
1.53307e-10
9.20295e-05
-8.21153e-05
2.00984e-10
-0.000100378
2.53006e-10
0.000192407
-0.000108156
3.15223e-05
-0.000116893
1.93611e-05
-0.000116688
1.89007e-06
-0.00010458
-2.14289e-05
-7.73783e-05
-5.10444e-05
-3.18621e-05
-8.69764e-05
3.45397e-05
-0.000127882
0.000122621
-0.000170197
-0.000208013
0.000230257
-9.75893e-05
-0.000102573
2.43449e-05
-9.77883e-05
-2.89471e-06
-8.0138e-05
-3.90793e-05
-4.62602e-05
-8.49222e-05
7.31655e-06
-0.000140553
8.34744e-05
-0.00020404
0.000183381
-0.000270103
-0.000330005
0.000305373
-8.12912e-05
2.3746e-05
-6.96971e-05
-1.44888e-05
-4.38063e-05
-6.49701e-05
2.87154e-08
-0.000128757
6.55032e-05
-0.000206028
0.000156098
-0.000294634
0.000273466
-0.000387472
-0.00047314
0.000416601
-5.32799e-05
1.57914e-05
-3.27164e-05
-3.50522e-05
4.01424e-06
-0.000101701
6.08463e-05
-0.000185589
0.000142014
-0.000287196
0.000251488
-0.000404108
0.000391624
-0.000527608
-0.000643738
0.000562222
-1.8838e-05
-1.21852e-06
1.27628e-05
-6.6653e-05
6.28211e-05
-0.000151759
0.000135653
-0.000258421
0.000235965
-0.000387508
0.000368434
-0.000536577
0.000536202
-0.000695376
-0.0008475
0.000739964
2.16761e-05
-2.88937e-05
6.62692e-05
-0.000111246
0.000131996
-0.000217486
0.000223585
-0.00035001
0.000346261
-0.000510184
0.000505445
-0.000695761
0.000705161
-0.000895092
-0.00108935
0.000947011
6.78541e-05
-6.874e-05
0.000127261
-0.000170653
0.000210821
-0.000301046
0.000323691
-0.00046288
0.000471619
-0.000658112
0.000660765
-0.000884906
0.000896083
-0.00113041
-0.00137328
0.00118001
0.000119247
-0.000122145
0.000195137
-0.000246543
0.000298493
-0.000404402
0.000434897
-0.000599284
0.000610582
-0.000833797
0.000832383
-0.00110671
0.00110619
-0.00140422
-0.0017022
0.0014351
0.000175375
0.000269243
-0.000340411
0.000394129
-0.000529287
0.000556007
-0.000761162
0.00076152
-0.00103931
0.00101804
-0.00136323
0.00133235
-0.00171852
-0.00207774
0.00170789
0.000348886
-0.000453564
0.000496777
-0.000677178
0.000685716
-0.000950102
0.000922639
-0.00127623
0.00121525
-0.00165584
0.00157107
-0.00207434
-0.00250016
0.00199349
0.000433334
-0.000587097
0.000605417
-0.000849261
0.000822611
-0.0011673
0.00109198
-0.00154561
0.00142128
-0.00198513
0.00181858
-0.00247164
-0.00296816
0.00228657
0.000521823
-0.000741872
0.000718967
-0.00104641
0.000965169
-0.0014135
0.00126743
-0.00184787
0.00163318
-0.00235088
0.00207076
-0.00290923
-0.00347879
0.0025814
0.000613553
0.000836273
-0.00126912
0.00111175
-0.00168898
0.00144669
-0.0021828
0.0018478
-0.00275199
0.0023233
-0.00338473
-0.00402747
0.00287198
0.000956109
-0.00151755
0.00126061
-0.00199348
0.00162732
-0.00254951
0.00206182
-0.00318649
0.00257169
-0.00389459
-0.00460794
0.00315216
0.00107717
-0.00179137
0.00140986
-0.00232617
0.0018067
-0.00294636
0.00227177
-0.00365157
0.00281136
-0.00443417
-0.00521255
0.00341596
0.00119804
0.0015575
-0.00268562
0.00198209
-0.00337095
0.00247413
-0.0041436
0.00303775
-0.00499779
-0.00583281
0.00365801
0.00170141
-0.00306978
0.00215068
-0.00382023
0.00266545
-0.00465837
0.00324644
-0.00557878
-0.0064603
0.00387393
0.00183936
0.00230963
-0.0042905
0.00284271
-0.00519146
0.00343392
-0.00616999
-0.00708894
0.00406257
0.00245583
-0.00477736
0.0030027
-0.00573833
0.00360113
-0.00676842
-0.00771509
0.00422728
0.00258566
0.00313916
-0.00629183
0.0037483
-0.00737757
-0.0084741
0.00450732
0.00324663
0.00384079
-0.00797172
-0.00914526
0.00451195
0.00389161
-0.00853969
-0.00974995
0.0044963
0.00390838
-0.0102979
0.00445633
0.00439024
0.0102979
0.00439024
0.00390838
0.00853969
0.00974995
0.00445633
0.00332364
0.00684259
0.00389161
0.00797172
0.00914526
0.0044963
0.00324663
0.00629183
0.00384079
0.00737757
0.0084741
0.00451195
0.00258566
0.00477736
0.00313916
0.00573833
0.0037483
0.00676842
0.00771509
0.00450732
0.00245583
0.0042905
0.0030027
0.00519146
0.00360113
0.00616999
0.00708894
0.00422728
0.00183936
0.00306978
0.00230963
0.00382023
0.00284271
0.00465837
0.00343392
0.00557878
0.0064603
0.00406257
0.00170141
0.00268562
0.00215068
0.00337095
0.00266545
0.0041436
0.00324644
0.00499779
0.00583281
0.00387393
0.00119804
0.00179137
0.0015575
0.00232617
0.00198209
0.00294636
0.00247413
0.00365157
0.00303775
0.00443417
0.00521255
0.00365801
0.00107717
0.00151755
0.00140986
0.00199348
0.0018067
0.00254951
0.00227177
0.00318649
0.00281136
0.00389459
0.00460794
0.00341596
0.000956109
0.00126912
0.00126061
0.00168898
0.00162732
0.0021828
0.00206182
0.00275199
0.00257169
0.00338473
0.00402747
0.00315216
0.000613553
0.000741872
0.000836273
0.00104641
0.00111175
0.0014135
0.00144669
0.00184787
0.0018478
0.00235088
0.0023233
0.00290923
0.00347879
0.00287198
0.000521823
0.000587097
0.000718967
0.000849261
0.000965169
0.0011673
0.00126743
0.00154561
0.00163318
0.00198513
0.00207076
0.00247164
0.00296816
0.0025814
0.000433334
0.000453564
0.000605417
0.000677178
0.000822611
0.000950101
0.00109198
0.00127623
0.00142128
0.00165584
0.00181858
0.00207434
0.00250016
0.00228657
0.000348886
0.000340411
0.000496777
0.000529287
0.000685716
0.000761162
0.000922639
0.00103931
0.00121525
0.00136323
0.00157107
0.00171852
0.00207774
0.00199349
0.000175375
0.000122145
0.000269243
0.000246543
0.000394129
0.000404401
0.000556007
0.000599284
0.00076152
0.000833797
0.00101804
0.00110671
0.00133235
0.00140422
0.0017022
0.00170789
0.000119247
6.874e-05
0.000195137
0.000170653
0.000298493
0.000301045
0.000434897
0.00046288
0.000610582
0.000658112
0.000832383
0.000884906
0.00110619
0.00113041
0.00137328
0.0014351
6.78541e-05
2.88937e-05
0.000127261
0.000111246
0.000210821
0.000217486
0.000323692
0.00035001
0.000471619
0.000510184
0.000660765
0.00069576
0.000896083
0.000895091
0.00108935
0.00118001
2.16761e-05
1.21851e-06
6.62692e-05
6.66529e-05
0.000131996
0.000151759
0.000223585
0.000258421
0.000346261
0.000387508
0.000505445
0.000536576
0.000705161
0.000695376
0.000847499
0.000947011
-1.8838e-05
-1.57914e-05
1.27628e-05
3.50522e-05
6.28211e-05
0.000101701
0.000135653
0.000185589
0.000235965
0.000287196
0.000368434
0.000404108
0.000536202
0.000527607
0.000643737
0.000739964
-5.32798e-05
-2.3746e-05
-3.27164e-05
1.44887e-05
4.01425e-06
6.497e-05
6.08463e-05
0.000128757
0.000142015
0.000206027
0.000251488
0.000294634
0.000391624
0.000387471
0.000473139
0.000562222
-8.12912e-05
-2.43449e-05
-6.96971e-05
2.89466e-06
-4.38063e-05
3.90792e-05
2.87227e-08
8.4922e-05
6.55032e-05
0.000140553
0.000156098
0.00020404
0.000273466
0.000270103
0.000330005
0.000416601
-9.75893e-05
-3.15223e-05
-0.000102573
-1.93611e-05
-9.77883e-05
-1.89012e-06
-8.0138e-05
2.14288e-05
-4.62602e-05
5.10442e-05
7.31656e-06
8.69762e-05
8.34744e-05
0.000127882
0.000183381
0.000170196
0.000208013
0.000305373
-0.000108156
-1.65256e-05
-0.000116893
-1.06238e-05
-0.000116688
-2.09577e-06
-0.00010458
9.32126e-06
-7.73783e-05
2.38423e-05
-3.18621e-05
4.146e-05
3.45397e-05
6.14801e-05
0.000122621
8.21149e-05
0.000100377
0.000230257
-0.00011347
-0.000124094
-0.00012619
-0.000116868
-9.30259e-05
-5.15659e-05
9.91439e-06
9.20295e-05
0.000192407
0.000246332
-5.39248e-05
1.99951e-10
0.000298364
-5.20327e-05
2.19966e-10
0.000350513
-5.21488e-05
2.39338e-10
0.000403545
-5.3033e-05
2.57765e-10
0.000458097
-5.45522e-05
2.7409e-10
0.000514673
-5.65759e-05
2.88415e-10
0.000573627
-5.8954e-05
2.99561e-10
0.000635213
-6.15864e-05
3.07023e-10
0.000699608
-6.43955e-05
3.10224e-10
0.000766921
-6.73132e-05
3.08585e-10
0.000837201
-7.02806e-05
3.01392e-10
0.000910448
-7.32468e-05
2.87973e-10
0.000986617
-7.61692e-05
2.68103e-10
0.00106563
-7.90137e-05
2.41961e-10
0.00114738
-8.17548e-05
2.09303e-10
0.00123176
-8.43752e-05
1.70258e-10
0.00131863
-8.6866e-05
1.25133e-10
0.00140785
-8.92259e-05
7.45004e-11
0.00149931
-9.14606e-05
1.94588e-11
0.00159289
-9.3582e-05
-3.91887e-11
0.0016885
-9.56073e-05
-1.0097e-10
0.00178606
-9.75577e-05
-1.65116e-10
0.00188552
-9.94572e-05
-2.30648e-10
0.00198685
-0.000101331
-2.97097e-10
0.00209005
-0.000103203
-3.64072e-10
0.00219515
-0.000105095
-4.31337e-10
0.00230217
-0.000107024
-4.98182e-10
0.00241117
-0.000108998
-5.64289e-10
0.00252219
-0.000111017
-6.28273e-10
0.00263526
-0.000113068
-6.88592e-10
0.00275038
-0.000115127
-7.42242e-10
0.00286754
-0.000117157
-7.8524e-10
0.00298665
-0.000119109
-8.13169e-10
0.00310758
-0.000120924
-8.19608e-10
0.00323012
-0.000122536
-7.98534e-10
0.00335399
-0.000123874
-7.43638e-10
0.00347886
-0.000124871
-6.49878e-10
0.00360431
-0.000125449
-5.14774e-10
0.00372988
-0.000125564
-3.38673e-10
0.00385498
-0.000125109
-1.26313e-10
0.0039791
-0.000124112
1.13375e-10
0.00410141
-0.000122317
3.66402e-10
0.00422144
-0.000120026
6.17578e-10
0.00433781
-0.000116373
8.47124e-10
0.00445058
-0.000112773
1.04257e-09
0.00455667
-0.000106085
1.18078e-09
0.00465863
-0.000101961
1.27254e-09
0.00474812
-8.94902e-05
1.263e-09
0.00483605
-8.79384e-05
1.26711e-09
-6.55678e-05
1.03431e-09
0.000283433
-0.000107101
0.000334823
-0.000103423
0.000386406
-0.000103732
0.000438894
-0.000105521
0.000492906
-0.000108564
0.000548941
-0.000112612
0.000607352
-0.000117365
0.00066839
-0.000122624
0.000732228
-0.000128234
0.000798973
-0.000134057
0.000868668
-0.000139976
0.000941312
-0.00014589
0.00101686
-0.000151714
0.00109522
-0.000157381
0.00117631
-0.00016284
0.00125999
-0.000168057
0.00134614
-0.000173016
0.00143463
-0.000177714
0.00152533
-0.000182163
0.00161814
-0.000186387
0.00171295
-0.000190419
0.00180969
-0.000194303
0.00190832
-0.000198086
0.00200881
-0.000201818
0.00211115
-0.000205548
0.00221538
-0.000209318
0.00232151
-0.000213161
0.00242961
-0.000217095
0.00253971
-0.000221119
0.00265185
-0.000225209
0.00276604
-0.000229317
0.00288225
-0.000233368
0.00300041
-0.000237266
0.00312038
-0.000240892
0.00324196
-0.000244117
0.00336488
-0.000246798
0.00348881
-0.000248802
0.00361334
-0.000249976
0.00373801
-0.000250229
0.00386225
-0.000249351
0.00398553
-0.000247394
0.00410706
-0.000243849
0.00422636
-0.000239321
0.00434206
-0.000232076
0.00445423
-0.000224943
0.00455979
-0.000211648
0.0046613
-0.000203469
0.00475045
-0.000178644
0.00483809
-0.000175578
-0.000131026
0.000357031
-0.00015876
0.000407111
-0.000153503
0.00045754
-0.000154161
0.000508922
-0.000156903
0.000561842
-0.000161484
0.000616792
-0.000167561
0.000674115
-0.000174688
0.000734055
-0.000182564
0.000796779
-0.000190958
0.000862386
-0.000199664
0.000930915
-0.000208505
0.00100235
-0.00021733
0.00107665
-0.000226014
0.00115373
-0.000234459
0.00123348
-0.00024259
0.00131579
-0.000250359
0.00140051
-0.000257742
0.00148753
-0.000264736
0.00157673
-0.000271359
0.00166799
-0.000277648
0.00176122
-0.000283653
0.00185636
-0.000289438
0.00195335
-0.000295073
0.00205216
-0.000300634
0.00215281
-0.000306192
0.0022553
-0.000311812
0.00235968
-0.000317543
0.002466
-0.000323411
0.00257429
-0.000329415
0.00268461
-0.00033552
0.00279694
-0.000341655
0.00291129
-0.00034771
0.00302756
-0.000353541
0.00314564
-0.000358972
0.00326533
-0.000363811
0.00338638
-0.000367846
0.00350846
-0.00037088
0.00363117
-0.000372683
0.00375406
-0.000373121
0.00387659
-0.00037188
0.00399824
-0.00036904
0.00411822
-0.000363836
0.00423608
-0.000357175
0.00435046
-0.000346461
0.00446144
-0.000335923
0.00456598
-0.000316184
0.00466659
-0.000304085
0.00475509
-0.000267138
0.00484214
-0.000262632
-0.000196275
0.000465928
-0.000208087
0.000513976
-0.000201551
0.000562622
-0.000202807
0.000612309
-0.00020659
0.000663567
-0.000212742
0.000716873
-0.000220867
0.000772556
-0.00023037
0.000830847
-0.000240855
0.000891901
-0.000252013
0.000955805
-0.000263568
0.00102259
-0.000275286
0.00109223
-0.000286969
0.00116467
-0.000298454
0.00123982
-0.000309613
0.00131758
-0.00032035
0.00139783
-0.000330606
0.00148043
-0.00034035
0.00156528
-0.00034958
0.00165224
-0.000358322
0.00174122
-0.000366623
0.00183211
-0.000374552
0.00192487
-0.000382192
0.00201943
-0.000389637
0.00211579
-0.000396986
0.00221393
-0.000404333
0.00231388
-0.000411765
0.00241568
-0.000419344
0.00251938
-0.000427109
0.00262502
-0.000435057
0.00273264
-0.000443144
0.00284227
-0.000451277
0.00295387
-0.000459311
0.00306738
-0.000467057
0.0031827
-0.000474286
0.00329963
-0.000480742
0.00341793
-0.000486147
0.00353729
-0.000490243
0.00365733
-0.000492724
0.00377763
-0.000493417
0.00389765
-0.000491901
0.0040169
-0.000488289
0.00413462
-0.000481558
0.00425036
-0.000472918
0.00436282
-0.000458914
0.00447206
-0.000445164
0.00457509
-0.000419217
0.0046744
-0.000403398
0.00476194
-0.000354669
0.00484814
-0.000348832
-0.000261224
0.00060834
-0.000254205
0.000653573
-0.000246784
0.00069975
-0.000248984
0.000747112
-0.000253952
0.000796113
-0.000261743
0.000847203
-0.000271957
0.000900688
-0.000283854
0.000956776
-0.000296944
0.00101561
-0.000310842
0.00107724
-0.000325206
0.0011417
-0.000339746
0.00120895
-0.000354219
0.00127893
-0.000368428
0.00135153
-0.000382218
0.00142666
-0.00039548
0.0015042
-0.000408141
0.00158401
-0.000420168
0.00166599
-0.000431561
0.00175002
-0.000442353
0.00183601
-0.000452604
0.00192385
-0.000462399
0.0020135
-0.00047184
0.00210491
-0.000481044
0.00219805
-0.000490131
0.00229294
-0.00049922
0.00238959
-0.000508416
0.00248804
-0.0005178
0.00258835
-0.000527416
0.00269056
-0.000537265
0.00279471
-0.000547294
0.00290082
-0.000557388
0.00300888
-0.000567371
0.00311884
-0.000577013
0.00323058
-0.000586029
0.00334395
-0.000594108
0.0034587
-0.000600905
0.00357456
-0.000606104
0.00369117
-0.000609328
0.00380812
-0.000610364
0.0039249
-0.000608688
0.00404106
-0.000604446
0.00415586
-0.00059636
0.00426888
-0.00058594
0.00437885
-0.000568877
0.00448584
-0.000552162
0.00458694
-0.000520317
0.00468458
-0.000501034
0.00477088
-0.000440968
0.00485599
-0.000433939
-0.000325803
0.000781923
-0.000296163
0.000823484
-0.000288346
0.000866447
-0.000291948
0.00091081
-0.000298315
0.000956933
-0.000307866
0.00100522
-0.000320247
0.00105595
-0.000334578
0.00110928
-0.000350278
0.00116533
-0.000366894
0.00122415
-0.000384021
0.00128572
-0.000401316
0.00135
-0.000418498
0.00141691
-0.00043534
0.00148636
-0.000451669
0.00155824
-0.000467359
0.00163243
-0.000482332
0.00170882
-0.000496554
0.00178728
-0.000510028
0.00186773
-0.000522795
0.00195005
-0.000534927
0.00203418
-0.000546525
0.00212004
-0.000557709
0.00220762
-0.000568617
0.00229688
-0.000579391
0.00238783
-0.000590172
0.0024805
-0.000601083
0.00257492
-0.000612221
0.00267114
-0.00062364
0.00276922
-0.000635344
0.0028692
-0.00064727
0.00297109
-0.000659285
0.00307491
-0.000671186
0.00318059
-0.000682699
0.00328806
-0.000693494
0.00339715
-0.000703202
0.00350767
-0.000711419
0.00361933
-0.000717772
0.00373182
-0.000721816
0.00384476
-0.000723301
0.00395767
-0.000721604
0.00407013
-0.000716902
0.00418144
-0.000707665
0.0042912
-0.000695703
0.00439819
-0.000675861
0.0045025
-0.000656478
0.00460129
-0.000619106
0.00469692
-0.000596668
0.00478176
-0.000525804
0.00486557
-0.000517751
-0.000389963
0.000983793
-0.000332945
0.00102076
-0.000325315
0.00105971
-0.000330893
0.00110036
-0.000338968
0.00114296
-0.000350468
0.00118786
-0.000365143
0.00123526
-0.000381977
0.00128529
-0.000400309
0.00133802
-0.000419626
0.00139347
-0.000439466
0.00145159
-0.000459442
0.00151233
-0.000479241
0.00157561
-0.000498616
0.00164132
-0.000517378
0.00170935
-0.000535393
0.0017796
-0.00055258
0.00185195
-0.000568905
0.0019263
-0.000584376
0.00200255
-0.000599042
0.00208061
-0.000612987
0.00216041
-0.000626325
0.0022419
-0.000639196
0.00232503
-0.000651756
0.00240981
-0.000664167
0.00249623
-0.00067659
0.00258431
-0.000689168
0.0026741
-0.000702012
0.00276565
-0.000715186
0.002859
-0.000728696
0.00295421
-0.000742474
0.00305129
-0.000756371
0.00315026
-0.000770156
0.00325108
-0.000783519
0.00335367
-0.000796084
0.0034579
-0.000807433
0.00356359
-0.000817102
0.00367048
-0.000824668
0.00377829
-0.000829619
0.00388666
-0.000831676
0.00399517
-0.000830113
0.00410342
-0.000825148
0.00421075
-0.000814994
0.0043168
-0.000801761
0.0044204
-0.000779459
0.00452167
-0.000757747
0.00461784
-0.000715275
0.00471121
-0.000690036
0.0047944
-0.000608996
0.00487675
-0.000600108
-0.000453683
0.00121055
-0.000363479
0.00124196
-0.000356728
0.00127605
-0.000364977
0.00131225
-0.000375176
0.00135069
-0.000388899
0.0013916
-0.000406054
0.00143512
-0.000425497
0.00148131
-0.000446501
0.00153019
-0.000468505
0.00158173
-0.000491004
0.00163587
-0.00051358
0.00169252
-0.0005359
0.00175161
-0.000557701
0.00181302
-0.000578788
0.00187665
-0.000599024
0.0019424
-0.000618327
0.00201016
-0.000636666
0.00207983
-0.000654054
0.00215134
-0.000670549
0.0022246
-0.000686244
0.00229954
-0.000701269
0.00237612
-0.000715778
0.00245431
-0.000729944
0.00253409
-0.000743949
0.00261548
-0.000757973
0.00269848
-0.000772175
0.00278315
-0.000786681
0.00286953
-0.000801566
0.00295768
-0.000816839
0.00304763
-0.000832427
0.00313942
-0.000848167
0.00323307
-0.000863805
0.00332855
-0.000878999
0.0034258
-0.00089333
0.0035247
-0.000906333
0.00362509
-0.000917492
0.00372676
-0.000926336
0.00382943
-0.000932293
0.00393281
-0.000935055
0.0040365
-0.000933799
0.00414013
-0.000928783
0.00424311
-0.000917969
0.00434511
-0.000903765
0.00444501
-0.000879354
0.00454295
-0.000855686
0.00463626
-0.000808587
0.00472716
-0.000780937
0.00480858
-0.000690416
0.00488937
-0.000680901
-0.000516975
0.00145828
-0.000386659
0.00148317
-0.000381619
0.00151155
-0.00039335
0.00154258
-0.000406208
0.00157621
-0.000422525
0.00161256
-0.00044241
0.00165167
-0.000464604
0.0016935
-0.000488334
0.00173801
-0.000513016
0.00178513
-0.000538119
0.00183476
-0.00056321
0.0018868
-0.000587949
0.00194117
-0.000612069
0.00199776
-0.000635376
0.00205647
-0.000657734
0.00211721
-0.000679064
0.00217988
-0.000699337
0.0022444
-0.000718575
0.00231069
-0.000736841
0.00237869
-0.000754239
0.00244833
-0.000770909
0.00251957
-0.00078702
0.00259239
-0.00080276
0.00266677
-0.000818329
0.00274272
-0.000833922
0.00282026
-0.000849716
0.00289943
-0.00086585
0.00298027
-0.000882411
0.00306284
-0.00089941
0.00314719
-0.000916772
0.00323334
-0.000934324
0.00332133
-0.000951789
0.00341113
-0.000968798
0.00350269
-0.000984894
0.00359593
-0.00099957
0.0036907
-0.00101226
0.00378682
-0.00102246
0.00388405
-0.00102952
0.00398212
-0.00103313
0.00408069
-0.00103237
0.00417944
-0.00102753
0.00427779
-0.00101633
0.0043755
-0.00100147
0.00447147
-0.000975326
0.00456589
-0.000950102
0.00465619
-0.000898888
0.00474449
-0.000869243
0.00482407
-0.000769994
0.00490325
-0.000760074
-0.000579884
0.00172263
-0.000401399
0.00174008
-0.000399071
0.00176194
-0.000415202
0.0017871
-0.000431372
0.00181533
-0.000450752
0.0018466
-0.000473677
0.00188078
-0.000498792
0.00191776
-0.000525315
0.00195741
-0.000552665
0.00199961
-0.000580314
0.00204423
-0.000607834
0.00209118
-0.000634893
0.00214034
-0.000661233
0.00219163
-0.000686665
0.00224495
-0.000711059
0.00230023
-0.000734342
0.00235738
-0.000756491
0.00241634
-0.000777529
0.00247703
-0.000797528
0.00253939
-0.000816599
0.00260337
-0.000834893
0.00266894
-0.000852588
0.00273606
-0.000869887
0.00280474
-0.000887005
0.00287497
-0.000904152
0.00294678
-0.000921521
0.00302019
-0.000939263
0.00309525
-0.000957475
0.00317202
-0.000976174
0.00325053
-0.000995284
0.00333083
-0.00101462
0.00341294
-0.0010339
0.00349685
-0.00105271
0.00358253
-0.00107058
0.00366991
-0.00108695
0.00375887
-0.00110122
0.00384926
-0.00111284
0.00394087
-0.00112113
0.00403347
-0.00112573
0.00412675
-0.00112565
0.00422044
-0.00112122
0.00431403
-0.00110992
0.00440731
-0.00109474
0.00449924
-0.00106726
0.00459003
-0.0010409
0.00467725
-0.000986104
0.0047629
-0.0009549
0.00484063
-0.000847724
0.00491819
-0.000837627
-0.000642489
0.0019988
-0.000406707
0.00200801
-0.000408281
0.00202263
-0.000429822
0.00204133
-0.000450073
0.00206365
-0.000473069
0.00208935
-0.000499381
0.00211816
-0.000527599
0.00214983
-0.000556979
0.00218414
-0.000586984
0.00222095
-0.000617118
0.0022601
-0.000646984
0.00230148
-0.000676274
0.002345
-0.000704749
0.00239056
-0.000732231
0.0024381
-0.0007586
0.00248755
-0.000783788
0.00253883
-0.000807775
0.0025919
-0.000830591
0.00264668
-0.000852311
0.00270313
-0.000873052
0.00276121
-0.00089297
0.00282088
-0.000912255
0.00288211
-0.000931121
0.0029449
-0.000949794
0.00300925
-0.000968499
0.00307517
-0.000987441
0.00314269
-0.00100679
0.00321185
-0.00102664
0.00328271
-0.00104703
0.00335529
-0.00106787
0.00342965
-0.00108898
0.0035058
-0.00111005
0.00358376
-0.00113067
0.0036635
-0.00115032
0.00374497
-0.00116842
0.00382807
-0.00118432
0.00391268
-0.00119745
0.00399861
-0.00120706
0.00408569
-0.00121282
0.00417365
-0.0012136
0.00426226
-0.00120983
0.00435105
-0.00119871
0.00443986
-0.00118355
0.00452774
-0.00115513
0.0046149
-0.00112806
0.00469904
-0.00107024
0.00478207
-0.00103793
0.00485801
-0.00092366
0.004934
-0.000913617
-0.000704907
0.00228163
-0.000401765
0.002282
-0.000408651
0.00228886
-0.00043668
0.00230064
-0.000461856
0.00231664
-0.000489072
0.00233639
-0.000519123
0.0023594
-0.000550612
0.00238532
-0.000582898
0.00241387
-0.000615533
0.00244484
-0.000648092
0.00247809
-0.000680232
0.0025135
-0.000711683
0.00255098
-0.000742232
0.00259047
-0.000771719
0.0026319
-0.000800032
0.00267522
-0.000827109
0.00272038
-0.000852934
0.00276733
-0.000877537
0.00281601
-0.000900995
0.00286639
-0.00092343
0.00291842
-0.000945003
0.00297208
-0.00096591
0.00302733
-0.000986373
0.00308417
-0.00100663
0.00314258
-0.00102692
0.00320259
-0.00104745
0.00326422
-0.00106841
0.00332749
-0.00108991
0.00339245
-0.00111199
0.00345915
-0.00113456
0.00352761
-0.00115744
0.00359787
-0.00118032
0.00366995
-0.00120275
0.00374382
-0.00122419
0.00381945
-0.00124405
0.00389677
-0.00126164
0.00397568
-0.00127635
0.00405603
-0.00128742
0.00413768
-0.00129446
0.00422039
-0.00129631
0.00430399
-0.00129343
0.00438807
-0.00128279
0.00447251
-0.00126799
0.00455641
-0.00123904
0.00464003
-0.00121168
0.00472119
-0.0011514
0.00480168
-0.00111842
0.00487594
-0.000997919
0.00495048
-0.000988157
-0.000767293
0.00256567
-0.000386034
0.00255691
-0.000399896
0.00255574
-0.000435504
0.00256035
-0.000466469
0.00256977
-0.000498491
0.00258323
-0.000532581
0.00260007
-0.00056746
0.00261984
-0.000602668
0.00264221
-0.000637899
0.00266695
-0.000672831
0.00269391
-0.000707196
0.002723
-0.00074077
0.00275414
-0.000773372
0.00278728
-0.000804858
0.00282237
-0.000835126
0.00285938
-0.000864116
0.00289826
-0.000891813
0.00293897
-0.000918249
0.00298147
-0.000943499
0.00302573
-0.000967685
0.0030717
-0.000990971
0.00311934
-0.00101356
0.00316865
-0.00103568
0.00321958
-0.00105757
0.00327215
-0.00107948
0.00332635
-0.00110165
0.00338219
-0.00112426
0.00343971
-0.00114743
0.00349893
-0.00117121
0.00355989
-0.00119552
0.00362263
-0.00122019
0.00368719
-0.00124487
0.00375357
-0.00126913
0.00382177
-0.0012924
0.00389178
-0.00131405
0.00396353
-0.00133339
0.00403694
-0.00134977
0.00411192
-0.00136239
0.00418834
-0.00137088
0.004266
-0.00137398
0.0043448
-0.00137222
0.00442435
-0.00136235
0.00450459
-0.00134823
0.00458469
-0.00131914
0.00466494
-0.00129193
0.00474329
-0.00122975
0.00482141
-0.00119654
0.00489417
-0.00107068
0.00496743
-0.00106142
-0.000829834
0.00284533
-0.000359388
0.00282761
-0.000382175
0.00281847
-0.000426365
0.00281588
-0.000463885
0.00281857
-0.000501179
0.00282548
-0.000539487
0.00283581
-0.000577795
0.00284906
-0.000615908
0.00286486
-0.000653701
0.002883
-0.000690978
0.00290336
-0.000727554
0.00292585
-0.000763261
0.00295042
-0.000797943
0.00297704
-0.000831473
0.00300567
-0.000863754
0.00303628
-0.000894728
0.00306884
-0.000924377
0.00310333
-0.00095273
0.00313969
-0.000979859
0.00317789
-0.00100589
0.00321789
-0.00103098
0.00325966
-0.00105533
0.00330317
-0.00107918
0.00334839
-0.00110279
0.0033953
-0.00112639
0.0034439
-0.00115025
0.00349419
-0.00117455
0.0035462
-0.00119944
0.00359995
-0.00122495
0.00365546
-0.00125104
0.00371278
-0.0012775
0.00377192
-0.00130402
0.00383292
-0.00133013
0.00389578
-0.00135525
0.00396047
-0.00137875
0.00402698
-0.00139989
0.00409523
-0.00141803
0.00416515
-0.00143231
0.00423665
-0.00144238
0.00430958
-0.00144691
0.00438386
-0.00144651
0.00445918
-0.00143766
0.0045355
-0.00142455
0.00461207
-0.00139572
0.0046892
-0.00136905
0.00476498
-0.00130553
0.00484097
-0.00127253
0.00491245
-0.00114216
0.00498465
-0.00113361
-0.000892751
0.00311508
-0.000322308
0.00308915
-0.000356249
0.00307252
-0.000409731
0.00306292
-0.000454283
0.0030588
-0.000497064
0.0030589
-0.000539582
0.00306237
-0.000581265
0.0030687
-0.000622244
0.00307759
-0.000662587
0.00308884
-0.000702229
0.00310235
-0.000741068
0.00311807
-0.000778979
0.00313596
-0.000815832
0.003156
-0.000851509
0.00317816
-0.000885916
0.00320242
-0.000918991
0.00322876
-0.000950714
0.00325714
-0.000981107
0.00328752
-0.00101024
0.00331986
-0.00103823
0.00335412
-0.00106524
0.00339027
-0.00109147
0.00342825
-0.00111716
0.00346804
-0.00114257
0.00350961
-0.00116796
0.00355294
-0.00119358
0.00359803
-0.00121965
0.0036449
-0.0012463
0.00369354
-0.0012736
0.00374399
-0.00130149
0.00379628
-0.00132979
0.00385043
-0.00135817
0.00390646
-0.00138616
0.00396439
-0.00141318
0.00402421
-0.00143857
0.00408589
-0.00146158
0.00414941
-0.00148154
0.00421469
-0.00149759
0.0042817
-0.00150939
0.0043503
-0.00151551
0.00442046
-0.00151667
0.00449191
-0.00150911
0.00456467
-0.00149731
0.00463806
-0.0014691
0.00471239
-0.00144338
0.00478591
-0.00137906
0.00486006
-0.00134668
0.00493055
-0.00121266
0.00500196
-0.00120502
-0.000956299
0.00336984
-0.000276182
0.00333721
-0.00032362
0.00331388
-0.000386405
0.00329751
-0.000437911
0.00328646
-0.000486012
0.0032794
-0.00053253
0.00327561
-0.000577475
0.00327468
-0.000621306
0.00327634
-0.000664254
0.00328048
-0.000706365
0.00328701
-0.000747601
0.0032959
-0.000787868
0.00330712
-0.000827053
0.00332065
-0.000865042
0.00333648
-0.000901742
0.00335457
-0.000937086
0.00337491
-0.000971047
0.00339744
-0.00100364
0.00342213
-0.00103493
0.00344894
-0.00106503
0.0034778
-0.0010941
0.00350868
-0.00112235
0.00354152
-0.00115001
0.00357629
-0.00117734
0.00361293
-0.00120461
0.00365143
-0.00123209
0.00369177
-0.00125999
0.00373395
-0.00128847
0.00377797
-0.00131761
0.00382384
-0.00134736
0.00387159
-0.00137754
0.00392124
-0.00140782
0.00397282
-0.00143774
0.00402634
-0.0014667
0.0040818
-0.00149403
0.00413918
-0.00151896
0.00419848
-0.00154084
0.00425964
-0.00155875
0.00432264
-0.00157239
0.0043874
-0.00158027
0.00445391
-0.00158318
0.00452195
-0.00157715
0.00459159
-0.00156694
0.0046622
-0.00153972
0.00473413
-0.00151531
0.00480578
-0.0014507
0.00487842
-0.00141932
0.00494826
-0.00128249
0.00501918
-0.00127594
-0.00102076
0.00360554
-0.000223718
0.00356837
-0.000286446
0.00353917
-0.000357207
0.00351604
-0.000414785
0.00349768
-0.000467645
0.00348298
-0.000517837
0.00347149
-0.000565979
0.00346294
-0.000612757
0.00345717
-0.00065849
0.0034541
-0.000703291
0.00345366
-0.00074716
0.00345581
-0.000790022
0.00346053
-0.000831773
0.0034678
-0.000872303
0.00347757
-0.000911514
0.00348982
-0.000949336
0.00350451
-0.000985735
0.00352159
-0.00102072
0.00354101
-0.00105435
0.00356271
-0.00108674
0.00358664
-0.00111803
0.00361274
-0.00114844
0.00364093
-0.0011782
0.00367118
-0.00120758
0.00370342
-0.00123685
0.00373762
-0.00126629
0.00377375
-0.00129612
0.00381179
-0.00132651
0.00385173
-0.00135756
0.00389359
-0.00138922
0.00393738
-0.00142133
0.00398313
-0.00145356
0.00403084
-0.00148545
0.00408054
-0.0015164
0.00413223
-0.00154572
0.00418591
-0.00157264
0.00424158
-0.0015965
0.00429919
-0.00161637
0.00435877
-0.00163196
0.00442024
-0.00164174
0.00448364
-0.00164658
0.00454879
-0.0016423
0.0046158
-0.00163395
0.00468412
-0.00160804
0.00475409
-0.00158529
0.00482428
-0.00152088
0.00489582
-0.00149087
0.00496536
-0.00135203
0.00503615
-0.00134672
-0.00108643
0.00381921
-0.000168994
0.00378022
-0.000247455
0.00374559
-0.000322579
0.00371518
-0.000384375
0.00368873
-0.0004412
0.00366575
-0.000494848
0.0036461
-0.00054633
0.00362969
-0.000596355
0.00361643
-0.000645227
0.00360622
-0.00069308
0.00359899
-0.000739929
0.00359468
-0.000785711
0.00359324
-0.00083033
0.00359461
-0.000873681
0.00359876
-0.000915664
0.00360564
-0.000956209
0.00361518
-0.000995275
0.00362732
-0.00103287
0.00364201
-0.00106904
0.00365918
-0.0011039
0.00367874
-0.0011376
0.00370062
-0.00117033
0.00372476
-0.00120234
0.00375109
-0.0012339
0.00377953
-0.0012653
0.00381004
-0.0012968
0.00384258
-0.00132865
0.0038771
-0.00136104
0.00391361
-0.00139407
0.0039521
-0.00142771
0.00399257
-0.0014618
0.00403505
-0.00149604
0.00407955
-0.00152995
0.00412608
-0.00156293
0.00417467
-0.00159431
0.0042253
-0.00162327
0.00427798
-0.00164918
0.0043327
-0.00167109
0.00438947
-0.00168874
0.00444827
-0.00170054
0.00450916
-0.00170747
0.004572
-0.00170514
0.00463693
-0.00169888
0.00470347
-0.00167458
0.00477198
-0.0016538
0.00484116
-0.00159007
0.00491204
-0.00156175
0.00498169
-0.00142169
0.00505272
-0.00141775
-0.00115363
0.00401123
-0.000117662
0.00397341
-0.000209633
0.0039322
-0.000281372
0.0038929
-0.000345071
0.00385708
-0.000405375
0.00382496
-0.000462732
0.00379673
-0.000518097
0.00377233
-0.000571959
0.00375164
-0.000624534
0.00373451
-0.000675949
0.00372081
-0.00072623
0.00371043
-0.000775335
0.00370328
-0.000823182
0.00369928
-0.000869677
0.00369834
-0.000914728
0.0037004
-0.000958265
0.00370537
-0.00100025
0.00371318
-0.00104068
0.00372375
-0.00107961
0.003737
-0.00111714