/*--------------------------------*- C++ -*----------------------------------*\
  =========                 |
  \\      /  F ield         | OpenFOAM: The Open Source CFD Toolbox
   \\    /   O peration     | Website:  https://openfoam.org
    \\  /    A nd           | Version:  7
     \\/     M anipulation  |
\*---------------------------------------------------------------------------*/
FoamFile
{
    version     2.0;
    format      ascii;
    class       volScalarField;
    location    "110";
    object      p;
}
// * * * * * * * * * * * * * * * * * * * * * * * * * * * * * * * * * * * * * //

dimensions      [0 2 -2 0 0 0 0];

internalField   nonuniform List<scalar> 
1987
(
-0.351671
-0.317019
-0.281624
-0.247921
-0.21785
-0.192654
-0.172896
-0.158631
-0.149646
-0.14572
-0.146803
-0.152946
-0.163913
-0.178661
-0.195093
-0.210314
-0.221289
-0.225549
-0.221741
-0.20999
-0.191896
-0.170158
-0.147754
-0.127124
-0.10976
-0.0962421
-0.0865525
-0.0804022
-0.077456
-0.0774359
-0.0802024
-0.0858688
-0.0948375
-0.107518
-0.123681
-0.141824
-0.15912
-0.172117
-0.177839
-0.174857
-0.163922
-0.14754
-0.128937
-0.110907
-0.0951987
-0.0825565
-0.0730974
-0.0666648
-0.0630199
-0.0619835
-0.0636095
-0.0682331
-0.0761344
-0.0868998
-0.0989884
-0.109925
-0.459735
-0.44707
-0.426697
-0.399108
-0.365709
-0.328745
-0.290905
-0.254783
-0.222431
-0.195143
-0.173489
-0.1575
-0.146914
-0.141432
-0.140914
-0.145365
-0.154604
-0.167756
-0.18294
-0.197429
-0.208258
-0.212942
-0.210035
-0.199588
-0.183034
-0.162901
-0.142017
-0.122734
-0.106523
-0.0939925
-0.0851642
-0.0797948
-0.0775859
-0.0782889
-0.0817948
-0.0882596
-0.0981294
-0.111827
-0.129072
-0.148256
-0.166412
-0.179949
-0.185781
-0.182426
-0.170689
-0.153226
-0.133446
-0.114293
-0.0975921
-0.0841002
-0.073907
-0.0668175
-0.0625577
-0.0609121
-0.0618867
-0.0657668
-0.0728125
-0.0826467
-0.0938235
-0.104005
-0.476046
-0.463071
-0.441874
-0.412953
-0.377789
-0.338762
-0.298721
-0.260407
-0.225973
-0.196759
-0.173335
-0.155709
-0.143579
-0.136581
-0.134494
-0.137272
-0.144774
-0.156281
-0.170132
-0.183797
-0.194409
-0.199486
-0.197496
-0.188403
-0.173454
-0.154999
-0.135707
-0.117836
-0.102833
-0.0913295
-0.0833917
-0.078822
-0.0773603
-0.0787873
-0.0830253
-0.0902713
-0.101013
-0.115685
-0.133964
-0.154147
-0.173143
-0.187233
-0.193222
-0.189555
-0.177081
-0.158592
-0.137678
-0.117432
-0.0997632
-0.08544
-0.0745276
-0.0667933
-0.0619284
-0.0596819
-0.0600134
-0.063158
-0.0693559
-0.0782688
-0.088549
-0.0979949
-0.476374
-0.45454
-0.424521
-0.387856
-0.347044
-0.30508
-0.264835
-0.22855
-0.197598
-0.172551
-0.153395
-0.139791
-0.131327
-0.12771
-0.128841
-0.134606
-0.144429
-0.15687
-0.169616
-0.179926
-0.185344
-0.184258
-0.176542
-0.163235
-0.146507
-0.128858
-0.112447
-0.0986929
-0.0882479
-0.0812225
-0.0774658
-0.0767559
-0.0789026
-0.0838587
-0.0918611
-0.103436
-0.119029
-0.138284
-0.159418
-0.179229
-0.193887
-0.200086
-0.196182
-0.183052
-0.163606
-0.141613
-0.120318
-0.101711
-0.08658
-0.0749676
-0.066604
-0.061147
-0.0583116
-0.0580121
-0.0604342
-0.0657979
-0.0738047
-0.0832072
-0.0919403
-0.486932
-0.464649
-0.433772
-0.395887
-0.353592
-0.31001
-0.268122
-0.230236
-0.197757
-0.171253
-0.150689
-0.135697
-0.125826
-0.120727
-0.120246
-0.124284
-0.132395
-0.143359
-0.155091
-0.165005
-0.170691
-0.170465
-0.164123
-0.152466
-0.137486
-0.12151
-0.10659
-0.0941121
-0.0847475
-0.0786492
-0.0757126
-0.0757537
-0.0786101
-0.0842645
-0.092991
-0.105351
-0.121803
-0.141966
-0.163992
-0.184593
-0.199833
-0.206301
-0.20225
-0.188559
-0.168242
-0.145236
-0.122941
-0.103435
-0.0875257
-0.0752361
-0.0662624
-0.0602293
-0.0568198
-0.0559051
-0.0576223
-0.0621704
-0.0692911
-0.0778381
-0.0858812
-0.494756
-0.472203
-0.440707
-0.401889
-0.358431
-0.313556
-0.270331
-0.231116
-0.197335
-0.169552
-0.147714
-0.131433
-0.120226
-0.1137
-0.111653
-0.113988
-0.120373
-0.129801
-0.140427
-0.149844
-0.155712
-0.156281
-0.15127
-0.14124
-0.128006
-0.11371
-0.100294
-0.0891073
-0.0808341
-0.0756694
-0.0735539
-0.0743395
-0.0778905
-0.0842174
-0.0936285
-0.106718
-0.123956
-0.144949
-0.167806
-0.189166
-0.205005
-0.211802
-0.207703
-0.193563
-0.172472
-0.148532
-0.125298
-0.104937
-0.0882833
-0.0753434
-0.0657815
-0.0591912
-0.0552251
-0.0537143
-0.0547478
-0.0585035
-0.0647621
-0.0724784
-0.0798553
-0.49991
-0.477249
-0.445365
-0.405902
-0.361608
-0.315777
-0.271535
-0.231273
-0.196426
-0.167552
-0.144586
-0.127123
-0.11466
-0.106773
-0.103216
-0.103885
-0.108544
-0.11639
-0.125825
-0.134639
-0.140595
-0.142142
-0.13811
-0.129662
-0.118146
-0.105515
-0.0935979
-0.0837008
-0.0765195
-0.0722868
-0.0709866
-0.0725044
-0.0767298
-0.083698
-0.0937478
-0.107502
-0.125447
-0.147186
-0.170803
-0.192888
-0.20934
-0.216535
-0.212495
-0.198027
-0.176274
-0.151489
-0.127384
-0.10622
-0.0888602
-0.0753001
-0.0651748
-0.0580486
-0.053546
-0.0514604
-0.0518351
-0.0548253
-0.0602493
-0.0671618
-0.0738961
-0.502502
-0.479873
-0.447814
-0.40799
-0.363187
-0.316745
-0.271815
-0.230797
-0.195125
-0.165351
-0.141405
-0.122874
-0.109246
-0.100071
-0.0950705
-0.0941272
-0.0970755
-0.103308
-0.111472
-0.119575
-0.125481
-0.12756
-0.124739
-0.117837
-0.107988
-0.0969845
-0.086543
-0.0779214
-0.0718214
-0.0685105
-0.0680131
-0.0702453
-0.0751198
-0.0826932
-0.0933304
-0.107679
-0.126245
-0.148638
-0.172939
-0.195711
-0.212788
-0.220445
-0.216587
-0.201923
-0.179627
-0.154096
-0.129197
-0.107287
-0.0892644
-0.0751175
-0.0644559
-0.0568173
-0.0518001
-0.0491633
-0.0489066
-0.0511614
-0.0557812
-0.0619184
-0.0680337
-0.502673
-0.48019
-0.448153
-0.408238
-0.363254
-0.316545
-0.271256
-0.229774
-0.193518
-0.163037
-0.13826
-0.11878
-0.104081
-0.0936998
-0.0873318
-0.0848423
-0.0861164
-0.0907172
-0.0975433
-0.104827
-0.110551
-0.113063
-0.11131
-0.105878
-0.0976181
-0.0881841
-0.079178
-0.0718034
-0.0667632
-0.0643556
-0.0646416
-0.0675651
-0.0730586
-0.0811969
-0.0923654
-0.107233
-0.126328
-0.14928
-0.174184
-0.197598
-0.215312
-0.223502
-0.219941
-0.205221
-0.182514
-0.156345
-0.130735
-0.108143
-0.0895046
-0.0748068
-0.0636383
-0.0555125
-0.0500044
-0.0468418
-0.0459832
-0.0475353
-0.0513834
-0.0567749
-0.0622945
-0.500586
-0.47834
-0.446503
-0.40676
-0.361912
-0.315276
-0.269953
-0.22829
-0.191687
-0.160686
-0.135228
-0.114918
-0.099246
-0.0877458
-0.0800932
-0.0761352
-0.0757901
-0.078762
-0.0841926
-0.0905545
-0.0959718
-0.0988111
-0.097963
-0.0938971
-0.0871238
-0.079183
-0.0715557
-0.0653865
-0.0613741
-0.059843
-0.0608863
-0.0644724
-0.0705505
-0.0792096
-0.0908501
-0.106159
-0.125687
-0.149097
-0.174519
-0.198529
-0.216887
-0.225674
-0.22253
-0.207901
-0.18492
-0.15823
-0.132
-0.108793
-0.0895895
-0.0743795
-0.0627352
-0.0541489
-0.0481749
-0.0445132
-0.0430837
-0.0439676
-0.0470784
-0.0517546
-0.0567015
-0.496415
-0.47448
-0.443008
-0.403686
-0.359281
-0.313044
-0.267997
-0.226428
-0.189704
-0.158366
-0.132371
-0.111347
-0.0948027
-0.0822742
-0.0734258
-0.0680868
-0.0661924
-0.0675606
-0.071555
-0.0769004
-0.0818876
-0.0849387
-0.0848356
-0.082002
-0.0765923
-0.0700523
-0.0637327
-0.058715
-0.0556884
-0.0549989
-0.056767
-0.060982
-0.0676065
-0.0767389
-0.0887898
-0.104459
-0.124324
-0.14809
-0.17394
-0.198493
-0.217496
-0.22694
-0.224341
-0.209947
-0.186836
-0.159745
-0.132991
-0.109243
-0.0895285
-0.073847
-0.0617595
-0.0527408
-0.0463268
-0.0421933
-0.0402248
-0.0404766
-0.0428858
-0.0468774
-0.0512738
-0.490341
-0.468778
-0.437826
-0.399162
-0.355492
-0.309961
-0.265485
-0.224267
-0.187635
-0.156132
-0.129739
-0.108115
-0.0907961
-0.0773316
-0.0673798
-0.0607544
-0.0573948
-0.0572034
-0.0597412
-0.0639852
-0.068421
-0.0715738
-0.0726354
-0.0702936
-0.0661078
-0.0608638
-0.055768
-0.051837
-0.0497451
-0.0498546
-0.0523087
-0.0571142
-0.0642432
-0.0737996
-0.0861978
-0.102147
-0.122251
-0.14627
-0.172459
-0.197496
-0.217143
-0.227311
-0.225363
-0.211348
-0.188252
-0.160889
-0.133713
-0.109499
-0.0893307
-0.0732203
-0.0607234
-0.0513012
-0.044474
-0.0398965
-0.0374214
-0.0370779
-0.0388219
-0.04216
-0.0460274
-0.482543
-0.461409
-0.431125
-0.393346
-0.350683
-0.306146
-0.262509
-0.221878
-0.185538
-0.154031
-0.127369
-0.105254
-0.0872563
-0.0729473
-0.061986
-0.0541733
-0.049444
-0.0477561
-0.0488371
-0.0519085
-0.0556704
-0.0587329
-0.0601275
-0.0587978
-0.0557487
-0.051687
-0.047722
-0.0448038
-0.0435869
-0.0444457
-0.0475414
-0.0528944
-0.0604831
-0.0704122
-0.0830947
-0.0992449
-0.119493
-0.143664
-0.170098
-0.195557
-0.215837
-0.226781
-0.225595
-0.2121
-0.189165
-0.16166
-0.134167
-0.109569
-0.0890053
-0.0725102
-0.0596387
-0.0498424
-0.0426293
-0.0376359
-0.0346864
-0.0337845
-0.0349006
-0.0376161
-0.0409754
-0.452553
-0.423085
-0.386404
-0.345002
-0.301715
-0.25916
-0.219329
-0.183459
-0.152096
-0.125288
-0.102784
-0.0842002
-0.0691358
-0.0572585
-0.0483592
-0.0423631
-0.0392599
-0.0389062
-0.0407512
-0.043722
-0.0465274
-0.0481243
-0.0476518
-0.0455912
-0.0425883
-0.0396553
-0.0376685
-0.0372599
-0.0388118
-0.0424991
-0.0483527
-0.0563538
-0.0666036
-0.079508
-0.0957818
-0.116083
-0.140306
-0.166894
-0.19271
-0.213599
-0.22537
-0.225044
-0.2122
-0.189574
-0.16206
-0.134358
-0.109458
-0.0885613
-0.0717269
-0.0585162
-0.0483758
-0.0408042
-0.0354228
-0.0320309
-0.0306074
-0.0311327
-0.0332565
-0.0361276
-0.442398
-0.413892
-0.378511
-0.338595
-0.296787
-0.255523
-0.21668
-0.181439
-0.150354
-0.123512
-0.100716
-0.0816334
-0.0658995
-0.0531971
-0.0433115
-0.0361554
-0.0317314
-0.0299887
-0.0305748
-0.0326498
-0.0350527
-0.0367433
-0.0369422
-0.0356959
-0.03363
-0.0316277
-0.0304854
-0.0308122
-0.0329955
-0.0372197
-0.0435232
-0.051887
-0.062405
-0.0754709
-0.0917951
-0.112063
-0.136243
-0.162895
-0.188999
-0.210472
-0.223104
-0.223717
-0.211655
-0.18948
-0.162091
-0.134292
-0.109175
-0.0880072
-0.07088
-0.057366
-0.0469117
-0.039009
-0.0332673
-0.0294643
-0.0275551
-0.0275265
-0.0290894
-0.0314915
-0.431139
-0.403742
-0.369845
-0.331611
-0.291473
-0.25168
-0.213981
-0.179508
-0.14882
-0.122047
-0.0990507
-0.079552
-0.0632305
-0.0497902
-0.039016
-0.0308072
-0.025166
-0.0221012
-0.0214211
-0.0225136
-0.0243819
-0.0260293
-0.0267036
-0.0260968
-0.0248697
-0.0236971
-0.0233081
-0.0242933
-0.0270412
-0.0317436
-0.0384431
-0.0471183
-0.0578522
-0.0710215
-0.0873276
-0.107481
-0.13153
-0.158159
-0.184479
-0.206501
-0.22001
-0.221635
-0.210476
-0.188889
-0.161758
-0.133973
-0.108726
-0.0873515
-0.0699785
-0.0561975
-0.0454592
-0.0372528
-0.031178
-0.0269943
-0.0246346
-0.024088
-0.0251203
-0.0270723
-0.418979
-0.392835
-0.360582
-0.324194
-0.285882
-0.247702
-0.211278
-0.177689
-0.147503
-0.120893
-0.0977797
-0.0779443
-0.0611129
-0.0470175
-0.0354478
-0.0262914
-0.0195415
-0.0152384
-0.0133116
-0.0133565
-0.0145668
-0.0160157
-0.0169854
-0.0168379
-0.0163661
-0.0159191
-0.0161888
-0.0177523
-0.0209949
-0.026113
-0.033152
-0.0420858
-0.0529839
-0.0662015
-0.0824264
-0.102392
-0.126228
-0.15275
-0.179215
-0.201742
-0.216128
-0.218825
-0.208679
-0.18781
-0.161067
-0.133409
-0.108119
-0.086602
-0.0690309
-0.055019
-0.0440265
-0.0355432
-0.0291622
-0.0246272
-0.0218507
-0.0208214
-0.0213528
-0.022873
-0.406131
-0.381372
-0.350898
-0.316482
-0.280112
-0.243654
-0.208608
-0.175999
-0.146403
-0.12004
-0.0968892
-0.076792
-0.0595247
-0.0448521
-0.0325747
-0.0225714
-0.0148213
-0.00937598
-0.00624707
-0.00520637
-0.005647
-0.00673307
-0.00769638
-0.0080143
-0.00817744
-0.00834102
-0.00917652
-0.0112371
-0.0149021
-0.0203712
-0.0276909
-0.0368297
-0.0478411
-0.0610553
-0.0771419
-0.0968536
-0.120402
-0.14674
-0.173278
-0.196261
-0.211511
-0.215317
-0.206282
-0.186255
-0.160025
-0.132606
-0.10736
-0.085766
-0.0680445
-0.0538379
-0.0426208
-0.0338871
-0.0272257
-0.0223677
-0.0192069
-0.017729
-0.0177885
-0.0188947
-0.369551
-0.340958
-0.308603
-0.274254
-0.239592
-0.205998
-0.174445
-0.145517
-0.119475
-0.0963598
-0.0760718
-0.0584388
-0.0432624
-0.0303592
-0.0196036
-0.0109592
-0.00447429
-0.000209362
0.00192619
0.00234722
0.00176272
0.000897774
0.000300378
-0.000341534
-0.00100464
-0.00231593
-0.00479297
-0.00880751
-0.0145612
-0.0221015
-0.0313912
-0.0424662
-0.0556287
-0.0715262
-0.0909269
-0.114122
-0.140204
-0.166746
-0.19013
-0.206213
-0.211151
-0.203312
-0.184236
-0.158642
-0.131571
-0.106457
-0.0848503
-0.0670262
-0.0526609
-0.041248
-0.0322897
-0.0253733
-0.0202194
-0.0167052
-0.0148113
-0.0144273
-0.015137
-0.357563
-0.330917
-0.300671
-0.268385
-0.235564
-0.203471
-0.173032
-0.144834
-0.11918
-0.0961678
-0.0757561
-0.0578246
-0.0422133
-0.0287601
-0.0173399
-0.00790181
-0.000481899
0.00483693
0.00804737
0.00939256
0.00942174
0.00876566
0.00807678
0.00711334
0.00605416
0.00435336
0.00153849
-0.00275354
-0.00872527
-0.0164253
-0.0258114
-0.0369018
-0.0499683
-0.0656321
-0.0846726
-0.107458
-0.13322
-0.159697
-0.18342
-0.2003
-0.206378
-0.199799
-0.181771
-0.156928
-0.130311
-0.105415
-0.083861
-0.0659818
-0.0514932
-0.0399132
-0.0307552
-0.0236083
-0.0181847
-0.0143464
-0.0120676
-0.0112673
-0.0115979
-0.345582
-0.320911
-0.292787
-0.262571
-0.231605
-0.201041
-0.171756
-0.14434
-0.119133
-0.0962854
-0.0758138
-0.0576477
-0.0416667
-0.0277337
-0.0157295
-0.00559159
0.0026608
0.00894131
0.0131807
0.015481
0.0162214
0.0159027
0.0148554
0.0141624
0.0128051
0.0107979
0.00772078
0.00322079
-0.00290337
-0.0107026
-0.0201313
-0.0311902
-0.0441199
-0.0595116
-0.0781512
-0.100479
-0.125865
-0.152212
-0.176213
-0.193851
-0.201051
-0.195774
-0.178876
-0.154892
-0.128834
-0.104241
-0.0828034
-0.064916
-0.0503396
-0.0386202
-0.0292869
-0.021933
-0.0162645
-0.0121302
-0.00949607
-0.00830564
-0.00827392
-0.00883604
-0.333761
-0.311059
-0.285033
-0.256867
-0.227745
-0.198717
-0.17061
-0.144016
-0.119307
-0.0966821
-0.0762109
-0.0578711
-0.0415823
-0.0272346
-0.0147199
-0.00396843
0.0050186
0.012164
0.017366
0.0206219
0.0221538
0.0223463
0.021628
0.0208233
0.0192212
0.0169908
0.0137229
0.00908066
0.00286727
-0.0049719
-0.0143902
-0.0253728
-0.0381283
-0.0532154
-0.0714211
-0.0932538
-0.118215
-0.144373
-0.168588
-0.186935
-0.195224
-0.191274
-0.175573
-0.152547
-0.127149
-0.102942
-0.0816833
-0.063834
-0.0492044
-0.0373729
-0.0278876
-0.0203491
-0.0144597
-0.0100557
-0.0070943
-0.00553847
-0.00516085
-0.00546379
-0.301458
-0.27748
-0.251314
-0.224005
-0.196502
-0.169587
-0.143846
-0.119679
-0.0973301
-0.076916
-0.0584606
-0.0419223
-0.0272202
-0.0142613
-0.002974
0.00665691
0.0145708
0.0206559
0.02484
0.0272154
0.0280552
0.0277924
0.0270204
0.025274
0.0229105
0.0195194
0.0147961
0.00855311
0.000730847
-0.00862579
-0.0194892
-0.0320366
-0.046792
-0.0645382
-0.0858457
-0.110342
-0.13626
-0.160624
-0.179629
-0.188954
-0.186334
-0.17188
-0.149906
-0.125264
-0.101526
-0.0805083
-0.0627426
-0.0480936
-0.0361761
-0.0265608
-0.0188588
-0.0127709
-0.00812221
-0.0048598
-0.00296174
-0.0022538
-0.00230333
-0.292187
-0.270183
-0.245952
-0.220407
-0.194407
-0.168685
-0.14382
-0.120235
-0.09821
-0.0779061
-0.0593895
-0.042656
-0.0276544
-0.0143105
-0.00255597
0.00763697
0.0162274
0.0231094
0.0281721
0.0314104
0.0329862
0.0332389
0.0327075
0.0309382
0.028537
0.0250887
0.020342
0.0141246
0.0063728
-0.0028733
-0.0135767
-0.0258854
-0.0402867
-0.0575547
-0.0783151
-0.102316
-0.127946
-0.152401
-0.172011
-0.18235
-0.180987
-0.167815
-0.146978
-0.123187
-0.0999973
-0.0792817
-0.061644
-0.0470085
-0.0350306
-0.0253064
-0.0174608
-0.0111957
-0.00632625
-0.00278794
-0.000569407
0.000454275
0.000651779
-0.283296
-0.263172
-0.240792
-0.216951
-0.192418
-0.167882
-0.14391
-0.120939
-0.0992819
-0.0791376
-0.0606115
-0.0437349
-0.0284862
-0.0148122
-0.0026529
0.00802728
0.0172071
0.0247962
0.0306699
0.034757
0.0371143
0.0379465
0.0378359
0.036185
0.0338493
0.0304115
0.0256969
0.019556
0.0119241
0.00283457
-0.00767065
-0.0197128
-0.0337421
-0.0505189
-0.0707175
-0.0941987
-0.119502
-0.143989
-0.164153
-0.176359
-0.175259
-0.163392
-0.143769
-0.120912
-0.0983452
-0.0779889
-0.0605226
-0.0459343
-0.033923
-0.0241123
-0.0161437
-0.00972302
-0.00465692
-0.000867872
0.00164973
0.0029754
0.00341347
-0.256431
-0.2358
-0.213581
-0.190465
-0.167092
-0.144017
-0.121686
-0.100436
-0.0804999
-0.0620169
-0.0450516
-0.029611
-0.0156638
-0.003162
0.00793247
0.0176153
0.0258174
0.0324182
0.0373086
0.0404582
0.0419141
0.0416063
0.0409793
0.038826
0.0354713
0.0308432
0.0248251
0.017358
0.00846742
-0.00180384
-0.0135544
-0.0271971
-0.0434745
-0.0631028
-0.0860478
-0.110993
-0.135458
-0.156033
-0.168841
-0.169128
-0.158645
-0.140296
-0.118441
-0.0965584
-0.0766132
-0.0593609
-0.044855
-0.0328393
-0.0229665
-0.0148965
-0.00834245
-0.00310411
0.000910065
0.00370493
0.00531947
0.00599317
-0.250009
-0.231009
-0.21032
-0.188559
-0.166321
-0.144141
-0.12247
-0.101663
-0.0819786
-0.0635872
-0.0465827
-0.0309987
-0.0168266
-0.00403341
0.00741573
0.0175284
0.0262578
0.0334992
0.0391294
0.0430604
0.0452474
0.0457209
0.0453595
0.0434374
0.0402494
0.0357674
0.0299164
0.0226535
0.0139994
0.00399391
-0.00744309
-0.0206881
-0.0364619
-0.0555157
-0.0779137
-0.102476
-0.12687
-0.147752
-0.161022
-0.162704
-0.153643
-0.136623
-0.115843
-0.0947163
-0.0752385
-0.0582401
-0.0438443
-0.0318442
-0.0219243
-0.013766
-0.00709303
-0.00170063
0.00251795
0.00557191
0.00746537
0.00837282
-0.244212
-0.22678
-0.207579
-0.187153
-0.16605
-0.144782
-0.123795
-0.103458
-0.0840514
-0.0657718
-0.0487424
-0.033024
-0.0186324
-0.00555343
0.00623847
0.0167561
0.0259717
0.0338019
0.0401283
0.0448347
0.0478299
0.0491718
0.049185
0.0475904
0.0446737
0.0404216
0.0348002
0.0277898
0.0194114
0.00970238
-0.00140166
-0.0142421
-0.0295137
-0.0479941
-0.069837
-0.0939923
-0.118252
-0.139304
-0.152974
-0.155919
-0.148305
-0.132757
-0.113234
-0.0930046
-0.0740768
-0.0573671
-0.0430883
-0.0310983
-0.0211217
-0.0128655
-0.00606966
-0.000527166
0.00388712
0.00719339
0.00936454
0.010505
-0.238823
-0.222966
-0.205273
-0.186217
-0.166293
-0.145983
-0.125727
-0.1059
-0.0868031
-0.0686603
-0.0516241
-0.0357845
-0.021183
-0.00782686
0.00429537
0.0151939
0.0248548
0.0332219
0.0402003
0.0456705
0.0495033
0.0517003
0.0522848
0.0511855
0.0486281
0.0446741
0.0393519
0.0326601
0.0246173
0.0152548
0.00452095
-0.0078899
-0.0226447
-0.040541
-0.061809
-0.0855042
-0.109488
-0.130397
-0.144159
-0.148163
-0.142177
-0.128376
-0.110349
-0.091175
-0.0728875
-0.0565149
-0.0423799
-0.0304171
-0.020395
-0.012048
-0.00513774
0.000539338
0.00513105
0.00867927
0.0111297
0.0125023
-0.216851
-0.200394
-0.182513
-0.163658
-0.14428
-0.124802
-0.105595
-0.0869646
-0.0691478
-0.0523129
-0.0365683
-0.0219736
-0.0085531
0.00368979
0.0147567
0.0246403
0.0333136
0.0407264
0.046786
0.0513037
0.0540682
0.0552285
0.0547604
0.0525066
0.0487497
0.0436217
0.0371781
0.0294373
0.0204065
0.0100207
-0.00200083
-0.0162752
-0.0335818
-0.0542244
-0.0774155
-0.10116
-0.122062
-0.135831
-0.14056
-0.135815
-0.123233
-0.106228
-0.0878477
-0.0701578
-0.0542229
-0.0403974
-0.0286423
-0.0187432
-0.0104483
-0.00353861
0.00217523
0.00685339
0.0105672
0.0132608
0.0148805
-0.207927
-0.192034
-0.174793
-0.156622
-0.137939
-0.119138
-0.100561
-0.082493
-0.0651569
-0.0487134
-0.0332687
-0.0188844
-0.00558994
0.00660312
0.0176864
0.0276442
0.036449
0.0440631
0.0504336
0.0554736
0.0590211
0.060763
0.0605961
0.0587484
0.0552945
0.0503776
0.0441142
0.0365759
0.0277685
0.0175544
0.00552853
-0.0090242
-0.0268562
-0.0481997
-0.0723618
-0.0973999
-0.119718
-0.134582
-0.138849
-0.132288
-0.118626
-0.101102
-0.0827137
-0.065354
-0.0498939
-0.0365506
-0.0252143
-0.0156464
-0.00758702
-0.000816017
0.00483724
0.00950974
0.0132906
0.0161837
0.0181594
0.0193062
-0.195023
-0.180202
-0.164148
-0.14722
-0.129782
-0.112178
-0.0947143
-0.0776522
-0.0611977
-0.0455056
-0.0306839
-0.0168013
-0.0038977
0.00800487
0.0188912
0.0287469
0.0375554
0.0452886
0.0518814
0.0572107
0.0610582
0.0632033
0.0636299
0.0622918
0.0593258
0.0548786
0.0490759
0.0419884
0.0336006
0.0237374
0.0119593
-0.00244106
-0.020148
-0.0413415
-0.0653063
-0.0899169
-0.11123
-0.124727
-0.128084
-0.121786
-0.108753
-0.0923652
-0.0753164
-0.0592411
-0.0448701
-0.0323822
-0.0216839
-0.0125721
-0.00482817
0.00173075
0.00725558
0.0118816
0.0156954
0.0186828
0.0207761
0.0220121
-0.182777
-0.169005
-0.154088
-0.138336
-0.122066
-0.105581
-0.0891586
-0.0730384
-0.0574149
-0.0424393
-0.0282218
-0.0148378
-0.00233578
0.00925364
0.0199093
0.0296142
0.0383531
0.0461009
0.0527964
0.0583334
0.0625516
0.0650362
0.0657943
0.0648454
0.0622857
0.0582427
0.0528347
0.046119
0.0380585
0.0284612
0.0168992
0.00273134
-0.0146225
-0.0352451
-0.0582976
-0.081547
-0.101308
-0.113803
-0.11678
-0.110745
-0.0986508
-0.0835921
-0.067946
-0.0531483
-0.039842
-0.0281918
-0.0181275
-0.0094811
-0.00207008
0.00425809
0.00963395
0.014182
0.017981
0.0210063
0.0231678
0.024458
-0.171233
-0.158413
-0.144535
-0.129866
-0.11468
-0.099246
-0.0838123
-0.0685964
-0.0537804
-0.0395093
-0.0258934
-0.0130122
-0.000920886
0.0103428
0.0207513
0.0302825
0.0389165
0.0466272
0.053365
0.0590437
0.0634636
0.0662819
0.0674654
0.0669919
0.0649183
0.061347
0.0563781
0.050052
0.0423102
0.0329478
0.021562
0.00760191
-0.00937964
-0.0293394
-0.0513592
-0.073269
-0.0916887
-0.103058
-0.105353
-0.099594
-0.088454
-0.0747278
-0.0604994
-0.0469965
-0.0347695
-0.0239694
-0.0145513
-0.00638397
0.000680587
0.00676615
0.0119797
0.0164293
0.0201874
0.0232291
0.0254551
0.0268211
-0.16026
-0.148328
-0.135422
-0.121768
-0.107606
-0.0931706
-0.0786835
-0.0643421
-0.0503155
-0.0367423
-0.023731
-0.0113638
0.000299027
0.0112137
0.0213471
0.0306715
0.0391618
0.0467883
0.0535033
0.0592233
0.063762
0.0668901
0.0684966
0.0685232
0.0669915
0.0639687
0.059522
)
;

boundaryField
{
    inlet
    {
        type            zeroGradient;
    }
    outlet
    {
        type            fixedValue;
        value           nonuniform 0();
    }
    cylinder
    {
        type            zeroGradient;
    }
    top
    {
        type            symmetryPlane;
    }
    bottom
    {
        type            symmetryPlane;
    }
    defaultFaces
    {
        type            empty;
    }
    procBoundary10to6
    {
        type            processor;
        value           nonuniform List<scalar> 
61
(
-0.440692
-0.428477
-0.409106
-0.383068
-0.383068
-0.335765
-0.303633
-0.270886
-0.239792
-0.212169
-0.1892
-0.171438
-0.158964
-0.151624
-0.149288
-0.151999
-0.159849
-0.172526
-0.188812
-0.206404
-0.222268
-0.233334
-0.237162
-0.23249
-0.219511
-0.199967
-0.176721
-0.15289
-0.130995
-0.112542
-0.098088
-0.0875729
-0.0806662
-0.0769975
-0.0762605
-0.0782861
-0.0831451
-0.0911937
-0.102828
-0.11787
-0.134938
-0.151357
-0.163823
-0.169471
-0.166908
-0.156826
-0.141565
-0.124169
-0.107285
-0.0925858
-0.0808062
-0.0720917
-0.0663243
-0.0633005
-0.0628781
-0.0651593
-0.070529
-0.0792875
-0.0909882
-0.103999
-0.115711
)
;
    }
    procBoundary10to9
    {
        type            processor;
        value           nonuniform List<scalar> 
38
(
-0.465066
-0.48114
-0.489531
-0.489531
-0.500148
-0.507921
-0.512925
-0.515298
-0.515213
-0.512855
-0.508416
-0.50209
-0.49407
-0.473199
-0.473199
-0.462483
-0.450575
-0.437663
-0.423949
-0.392812
-0.392812
-0.379238
-0.365616
-0.352135
-0.322232
-0.322232
-0.311101
-0.300438
-0.27479
-0.27479
-0.266731
-0.259375
-0.252433
-0.231467
-0.231467
-0.222086
-0.208278
-0.195124
)
;
    }
    procBoundary10to11
    {
        type            processor;
        value           nonuniform List<scalar> 
36
(
-0.117073
-0.110696
-0.104253
-0.0977867
-0.0913355
-0.0849343
-0.0786152
-0.0724071
-0.066334
-0.0604168
-0.0546738
-0.0491202
-0.0437676
-0.038625
-0.0336996
-0.0289957
-0.0245163
-0.0202621
-0.0162322
-0.0124243
-0.0124243
-0.00937886
-0.00586857
-0.00256757
0.000528917
0.00343129
0.00615201
0.00867666
0.0109495
0.0130628
0.0155914
0.0155914
0.0198564
0.0225874
0.0250308
0.0274399
)
;
    }
    procBoundary10to13
    {
        type            processor;
        value           nonuniform List<scalar> 2(-0.182755 -0.171011);
    }
    procBoundary10to14
    {
        type            processor;
        value           nonuniform List<scalar> 
57
(
0.0536607
0.0462948
0.0372042
0.0260204
0.0122962
-0.00427834
-0.02355
-0.0445443
-0.0650936
-0.0819349
-0.0918762
-0.0935962
-0.0882007
-0.0781195
-0.0658085
-0.05304
-0.040846
-0.0297012
-0.0197535
-0.010987
-0.00330803
0.00339805
0.00922795
0.0142647
0.0185974
0.0222914
0.0253261
0.0276001
0.0290409
-0.149844
-0.138745
-0.126747
-0.114047
-0.100849
-0.0873599
-0.0737772
-0.0602794
-0.0470227
-0.0341382
-0.0217321
-0.00988779
0.00133097
0.0118753
0.0217067
0.0307927
0.0391026
0.0466016
0.05324
0.0589356
0.063551
0.0668984
0.068848
0.0693224
0.0683103
0.0658422
0.0536607
0.0619456
)
;
    }
}


// ************************************************************************* //
