/*--------------------------------*- C++ -*----------------------------------*\
  =========                 |
  \\      /  F ield         | OpenFOAM: The Open Source CFD Toolbox
   \\    /   O peration     | Website:  https://openfoam.org
    \\  /    A nd           | Version:  7
     \\/     M anipulation  |
\*---------------------------------------------------------------------------*/
FoamFile
{
    version     2.0;
    format      ascii;
    class       volVectorField;
    location    "175";
    object      U;
}
// * * * * * * * * * * * * * * * * * * * * * * * * * * * * * * * * * * * * * //

dimensions      [0 1 -1 0 0 0 0];

internalField   nonuniform List<vector> 
1987
(
(1.20775 -0.0663291 0)
(1.22389 -0.0624789 0)
(1.24079 -0.0549194 0)
(1.25769 -0.0433773 0)
(1.27371 -0.0277901 0)
(1.28795 -0.00835793 0)
(1.29956 0.0145254 0)
(1.30767 0.040265 0)
(1.31156 0.0679339 0)
(1.31085 0.0965131 0)
(1.3054 0.125007 0)
(1.29537 0.152464 0)
(1.28111 0.178057 0)
(1.26318 0.201137 0)
(1.24222 0.221251 0)
(1.21891 0.238133 0)
(1.19391 0.251684 0)
(1.1678 0.261939 0)
(1.1411 0.269033 0)
(1.1142 0.273164 0)
(1.08742 0.274562 0)
(1.06095 0.27346 0)
(1.03494 0.270071 0)
(1.00945 0.264578 0)
(0.984496 0.257126 0)
(0.960059 0.247777 0)
(0.936139 0.23653 0)
(0.912677 0.223402 0)
(0.88958 0.208339 0)
(0.866965 0.190975 0)
(0.845158 0.17081 0)
(0.824089 0.147925 0)
(0.802948 0.123199 0)
(0.781207 0.0972332 0)
(0.760284 0.0690825 0)
(0.743836 0.0365171 0)
(0.73607 -0.00214703 0)
(1.20938 -0.0566535 0)
(1.2238 -0.0523115 0)
(1.23874 -0.044702 0)
(1.25353 -0.0336011 0)
(1.26739 -0.0189707 0)
(1.27953 -0.000987526 0)
(1.2892 0.0199911 0)
(1.2957 0.0434271 0)
(1.29845 0.0685631 0)
(1.29711 0.0945356 0)
(1.29158 0.120483 0)
(1.28198 0.145582 0)
(1.26861 0.169107 0)
(1.25192 0.190473 0)
(1.23244 0.20925 0)
(1.21075 0.225168 0)
(1.18741 0.238095 0)
(1.16294 0.248023 0)
(1.1378 0.255031 0)
(1.11235 0.259262 0)
(1.08689 0.260892 0)
(1.06163 0.260111 0)
(1.03671 0.257094 0)
(1.01223 0.251992 0)
(0.988216 0.24493 0)
(0.964678 0.235966 0)
(0.941641 0.225093 0)
(0.9191 0.212305 0)
(0.896989 0.197576 0)
(0.875376 0.180646 0)
(0.854617 0.16102 0)
(0.834948 0.13854 0)
(0.815885 0.113885 0)
(0.796621 0.0879987 0)
(0.777531 0.0608074 0)
(0.761162 0.0308096 0)
(0.751419 -0.00375907 0)
(0.751451 -0.0431919 0)
(0.76208 -0.0857454 0)
(0.781844 -0.128495 0)
(0.808041 -0.168778 0)
(0.837843 -0.205362 0)
(0.869057 -0.238826 0)
(0.900557 -0.270986 0)
(0.932558 -0.303273 0)
(0.966544 -0.334664 0)
(1.00418 -0.360801 0)
(1.04549 -0.375299 0)
(1.0882 -0.371608 0)
(1.12866 -0.343462 0)
(1.16354 -0.284904 0)
(1.19155 -0.193328 0)
(1.21196 -0.0760618 0)
(1.22163 0.0477209 0)
(1.21696 0.155633 0)
(1.19764 0.233504 0)
(1.2089 -0.0477401 0)
(1.22161 -0.0430217 0)
(1.23467 -0.0354425 0)
(1.24749 -0.0248238 0)
(1.2594 -0.0111434 0)
(1.2697 0.00545378 0)
(1.27775 0.0246388 0)
(1.28295 0.0459562 0)
(1.28484 0.0687689 0)
(1.28311 0.0923476 0)
(1.27767 0.115953 0)
(1.26862 0.138873 0)
(1.25618 0.160471 0)
(1.24072 0.180215 0)
(1.22268 0.197703 0)
(1.20256 0.212663 0)
(1.18083 0.224942 0)
(1.15795 0.234494 0)
(1.13433 0.241355 0)
(1.11032 0.24562 0)
(1.08618 0.247421 0)
(1.06214 0.246906 0)
(1.03835 0.244217 0)
(1.0149 0.239475 0)
(0.99187 0.232784 0)
(0.969274 0.224198 0)
(0.947159 0.213711 0)
(0.925561 0.201295 0)
(0.904463 0.186931 0)
(0.883901 0.170453 0)
(0.864188 0.151444 0)
(0.845742 0.129588 0)
(0.828456 0.105277 0)
(0.811576 0.0795052 0)
(0.794745 0.0528568 0)
(0.779334 0.0246667 0)
(0.768484 -0.00653908 0)
(0.765569 -0.0416044 0)
(0.772386 -0.0797907 0)
(0.788497 -0.119025 0)
(0.811807 -0.157027 0)
(0.839633 -0.192485 0)
(0.869661 -0.225601 0)
(0.900605 -0.257634 0)
(0.932618 -0.289436 0)
(0.967102 -0.319713 0)
(1.00546 -0.34447 0)
(1.04746 -0.358131 0)
(1.09079 -0.354848 0)
(1.13176 -0.328456 0)
(1.16757 -0.27241 0)
(1.19743 -0.183718 0)
(1.21992 -0.0701684 0)
(1.23073 0.0486752 0)
(1.22594 0.151096 0)
(1.20575 0.224244 0)
(1.20709 -0.0396226 0)
(1.21816 -0.0346227 0)
(1.22947 -0.0271353 0)
(1.24049 -0.0170159 0)
(1.25062 -0.00424621 0)
(1.2593 0.0110417 0)
(1.26595 0.0285715 0)
(1.27008 0.0479471 0)
(1.27128 0.0686353 0)
(1.26929 0.0900235 0)
(1.26403 0.111479 0)
(1.25554 0.132385 0)
(1.244 0.15218 0)
(1.22972 0.170386 0)
(1.21306 0.186627 0)
(1.19442 0.200633 0)
(1.17423 0.212239 0)
(1.15288 0.221371 0)
(1.13075 0.228029 0)
(1.10814 0.232269 0)
(1.08533 0.234183 0)
(1.06252 0.233882 0)
(1.03986 0.231477 0)
(1.01748 0.227065 0)
(0.995458 0.220728 0)
(0.973839 0.212513 0)
(0.952679 0.202417 0)
(0.932047 0.190403 0)
(0.911974 0.176442 0)
(0.892497 0.160437 0)
(0.873856 0.142079 0)
(0.856522 0.121005 0)
(0.840715 0.0973212 0)
(0.825955 0.0718542 0)
(0.811549 0.0455399 0)
(0.797842 0.0184886 0)
(0.786916 -0.0101848 0)
(0.781836 -0.0414701 0)
(0.785021 -0.0754141 0)
(0.797083 -0.110861 0)
(0.816798 -0.146121 0)
(0.841914 -0.179997 0)
(0.870175 -0.21239 0)
(0.900211 -0.243986 0)
(0.932064 -0.27504 0)
(0.966909 -0.304022 0)
(1.0058 -0.327321 0)
(1.04827 -0.340147 0)
(1.09184 -0.337299 0)
(1.13308 -0.312579 0)
(1.16995 -0.258838 0)
(1.20196 -0.172954 0)
(1.22661 -0.0634321 0)
(1.23844 0.049852 0)
(1.23339 0.146203 0)
(1.21235 0.214313 0)
(1.20442 -0.0323063 0)
(1.21398 -0.0271061 0)
(1.22367 -0.0197527 0)
(1.23304 -0.0101279 0)
(1.2416 0.00177838 0)
(1.24883 0.0158516 0)
(1.25427 0.0318603 0)
(1.25747 0.0494646 0)
(1.2581 0.0682185 0)
(1.25592 0.0876066 0)
(1.25084 0.107088 0)
(1.24289 0.12613 0)
(1.23221 0.144238 0)
(1.21902 0.160983 0)
(1.20364 0.176016 0)
(1.18641 0.189078 0)
(1.16767 0.199993 0)
(1.14779 0.208669 0)
(1.12709 0.215075 0)
(1.10587 0.219236 0)
(1.08436 0.22121 0)
(1.06277 0.221074 0)
(1.04127 0.218912 0)
(1.01997 0.2148 0)
(0.99898 0.208799 0)
(0.978363 0.200948 0)
(0.958188 0.191248 0)
(0.938541 0.179659 0)
(0.919498 0.166142 0)
(0.901117 0.150637 0)
(0.883577 0.132944 0)
(0.867309 0.112735 0)
(0.852735 0.089918 0)
(0.83974 0.0650327 0)
(0.827655 0.0390716 0)
(0.81613 0.0127062 0)
(0.806139 -0.014252 0)
(0.799988 -0.042558 0)
(0.800199 -0.072694 0)
(0.808208 -0.10432 0)
(0.823791 -0.136474 0)
(0.845421 -0.16827 0)
(0.871188 -0.199445 0)
(0.899794 -0.230166 0)
(0.931149 -0.260127 0)
(0.966096 -0.287608 0)
(1.00527 -0.309383 0)
(1.04786 -0.32142 0)
(1.09129 -0.31905 0)
(1.13268 -0.295844 0)
(1.1709 -0.24407 0)
(1.20535 -0.160882 0)
(1.23212 -0.0558077 0)
(1.24467 0.0512047 0)
(1.23915 0.140906 0)
(1.21727 0.203718 0)
(1.20112 -0.0257685 0)
(1.20931 -0.0204375 0)
(1.21755 -0.013249 0)
(1.22545 -0.00410933 0)
(1.23259 0.00698656 0)
(1.23855 0.0199401 0)
(1.24291 0.0345583 0)
(1.24531 0.0505522 0)
(1.24544 0.0675477 0)
(1.24311 0.085111 0)
(1.23822 0.102781 0)
(1.23077 0.120098 0)
(1.22087 0.136629 0)
(1.2087 0.15199 0)
(1.1945 0.16586 0)
(1.17857 0.177991 0)
(1.16121 0.188206 0)
(1.14273 0.196396 0)
(1.12341 0.20251 0)
(1.10352 0.206545 0)
(1.0833 0.20853 0)
(1.06293 0.208514 0)
(1.04258 0.206558 0)
(1.02238 0.202716 0)
(1.00244 0.197034 0)
(0.98284 0.189541 0)
(0.963671 0.180239 0)
(0.945026 0.169093 0)
(0.927011 0.156058 0)
(0.909718 0.141088 0)
(0.893294 0.124067 0)
(0.878088 0.104753 0)
(0.864589 0.0829617 0)
(0.852998 0.0589496 0)
(0.842909 0.0335417 0)
(0.833698 0.00767937 0)
(0.825436 -0.0182181 0)
(0.819429 -0.0444242 0)
(0.817774 -0.0714677 0)
(0.822284 -0.0995662 0)
(0.83362 -0.128465 0)
(0.851174 -0.157738 0)
(0.873694 -0.187128 0)
(0.900179 -0.216418 0)
(0.930477 -0.244848 0)
(0.965063 -0.270576 0)
(1.00408 -0.29078 0)
(1.04632 -0.302106 0)
(1.08927 -0.30019 0)
(1.13091 -0.278145 0)
(1.17092 -0.227874 0)
(1.20801 -0.147372 0)
(1.23659 -0.0473412 0)
(1.24937 0.0526117 0)
(1.24307 0.135128 0)
(1.22038 0.192469 0)
(1.19735 -0.0199697 0)
(1.2043 -0.0145681 0)
(1.21125 -0.00757125 0)
(1.21785 0.00109562 0)
(1.22375 0.0114331 0)
(1.22858 0.0233591 0)
(1.232 0.0367095 0)
(1.23369 0.0512407 0)
(1.23339 0.066639 0)
(1.23093 0.0825395 0)
(1.22621 0.0985499 0)
(1.21922 0.114274 0)
(1.21003 0.129334 0)
(1.19878 0.143388 0)
(1.18569 0.156143 0)
(1.17097 0.167363 0)
(1.1549 0.176875 0)
(1.13774 0.184559 0)
(1.11974 0.190348 0)
(1.10115 0.194216 0)
(1.08217 0.196169 0)
(1.06301 0.196234 0)
(1.0438 0.194449 0)
(1.0247 0.190851 0)
(1.00582 0.185471 0)
(0.98726 0.178328 0)
(0.969111 0.169426 0)
(0.951479 0.158736 0)
(0.934489 0.146215 0)
(0.918265 0.131819 0)
(0.902949 0.115484 0)
(0.888813 0.0970627 0)
(0.876313 0.0763717 0)
(0.865838 0.0534678 0)
(0.857323 0.0289074 0)
(0.850221 0.00361828 0)
(0.844088 -0.0215913 0)
(0.839289 -0.0464704 0)
(0.837128 -0.071287 0)
(0.839265 -0.0964688 0)
(0.846882 -0.122283 0)
(0.860261 -0.148783 0)
(0.879001 -0.175861 0)
(0.902646 -0.203112 0)
(0.931136 -0.229501 0)
(0.964649 -0.253184 0)
(1.00283 -0.271758 0)
(1.04412 -0.282395 0)
(1.08639 -0.28071 0)
(1.12864 -0.259252 0)
(1.17089 -0.210023 0)
(1.2105 -0.132413 0)
(1.2402 -0.0382208 0)
(1.25245 0.0538634 0)
(1.24501 0.128771 0)
(1.22156 0.180596 0)
(1.1932 -0.014863 0)
(1.19906 -0.00944402 0)
(1.20486 -0.00266033 0)
(1.21031 0.00554766 0)
(1.21512 0.0151772 0)
(1.21897 0.0261589 0)
(1.22156 0.0383538 0)
(1.22264 0.0515571 0)
(1.22197 0.0655057 0)
(1.2194 0.0798926 0)
(1.21483 0.0943844 0)
(1.20825 0.108641 0)
(1.19971 0.122333 0)
(1.18932 0.135156 0)
(1.17722 0.146846 0)
(1.16364 0.157182 0)
(1.14877 0.165994 0)
(1.13286 0.173159 0)
(1.11612 0.178597 0)
(1.09877 0.182265 0)
(1.08101 0.184151 0)
(1.06303 0.184262 0)
(1.04496 0.182616 0)
(1.02696 0.179236 0)
(1.00914 0.174142 0)
(0.991615 0.167344 0)
(0.97449 0.158843 0)
(0.957877 0.14862 0)
(0.941908 0.136634 0)
(0.926729 0.122848 0)
(0.912493 0.107224 0)
(0.899423 0.0896851 0)
(0.887896 0.0701063 0)
(0.878357 0.0484493 0)
(0.871018 0.0250167 0)
(0.865605 0.000551981 0)
(0.861563 -0.0240312 0)
(0.858621 -0.0480849 0)
(0.857227 -0.0714842 0)
(0.858473 -0.0945504 0)
(0.863576 -0.117774 0)
(0.873406 -0.141554 0)
(0.888384 -0.16599 0)
(0.90873 -0.190674 0)
(0.934668 -0.214519 0)
(0.966225 -0.235842 0)
(1.00268 -0.252669 0)
(1.04244 -0.262455 0)
(1.08403 -0.260493 0)
(1.12734 -0.238898 0)
(1.17197 -0.190413 0)
(1.21338 -0.11622 0)
(1.24298 -0.0288253 0)
(1.25374 0.0546601 0)
(1.2448 0.121726 0)
(1.2207 0.168152 0)
(1.18877 -0.0104 0)
(1.19367 -0.00500957 0)
(1.19846 0.00154347 0)
(1.20291 0.00930628 0)
(1.20676 0.0182744 0)
(1.20975 0.0283879 0)
(1.21162 0.0395296 0)
(1.21216 0.0515275 0)
(1.21117 0.0641607 0)
(1.20851 0.0771708 0)
(1.20409 0.0902748 0)
(1.19789 0.103181 0)
(1.18994 0.115603 0)
(1.18031 0.127273 0)
(1.16914 0.137951 0)
(1.1566 0.147433 0)
(1.14286 0.155557 0)
(1.12811 0.162196 0)
(1.11257 0.167265 0)
(1.09642 0.170707 0)
(1.07984 0.172496 0)
(1.063 0.172621 0)
(1.04606 0.171088 0)
(1.02914 0.167904 0)
(1.01238 0.163081 0)
(0.995894 0.156621 0)
(0.979793 0.148523 0)
(0.964197 0.138772 0)
(0.949241 0.12734 0)
(0.935081 0.114192 0)
(0.921887 0.0993034 0)
(0.909857 0.082647 0)
(0.899292 0.0641595 0)
(0.890607 0.0437947 0)
(0.884154 0.0216865 0)
(0.879955 -0.00165681 0)
(0.87763 -0.02543 0)
(0.876669 -0.0488147 0)
(0.876883 -0.0713462 0)
(0.878663 -0.0930626 0)
(0.882857 -0.114383 0)
(0.890476 -0.135811 0)
(0.902472 -0.157591 0)
(0.919667 -0.179418 0)
(0.942657 -0.200354 0)
(0.97151 -0.219043 0)
(1.00547 -0.233898 0)
(1.04328 -0.242398 0)
(1.08434 -0.239382 0)
(1.12887 -0.216949 0)
(1.17521 -0.169261 0)
(1.21685 -0.0993467 0)
(1.24469 -0.0197397 0)
(1.25296 0.0546452 0)
(1.24227 0.113911 0)
(1.21779 0.155238 0)
(1.18413 -0.00653353 0)
(1.18819 -0.00121154 0)
(1.1921 0.00509701 0)
(1.19567 0.012429 0)
(1.19869 0.0207782 0)
(1.20094 0.030093 0)
(1.20219 0.0402741 0)
(1.20227 0.0511772 0)
(1.20101 0.0626168 0)
(1.19827 0.074375 0)
(1.19399 0.0862122 0)
(1.18813 0.0978783 0)
(1.1807 0.109125 0)
(1.17178 0.119716 0)
(1.16146 0.129437 0)
(1.14987 0.138101 0)
(1.13718 0.145552 0)
(1.12353 0.151667 0)
(1.10912 0.156355 0)
(1.09411 0.159553 0)
(1.07867 0.16122 0)
(1.06295 0.161335 0)
(1.0471 0.159891 0)
(1.03126 0.156884 0)
(1.01555 0.152317 0)
(1.00009 0.146189 0)
(0.985002 0.138494 0)
(0.970413 0.129222 0)
(0.956457 0.118354 0)
(0.943294 0.105863 0)
(0.931098 0.0917349 0)
(0.920064 0.0759661 0)
(0.910442 0.0585454 0)
(0.902576 0.0394565 0)
(0.896847 0.0187667 0)
(0.893481 -0.00322236 0)
(0.892364 -0.0258973 0)
(0.893063 -0.0484803 0)
(0.895119 -0.0703336 0)
(0.898376 -0.0912079 0)
(0.903159 -0.111272 0)
(0.91024 -0.130899 0)
(0.920682 -0.150322 0)
(0.935618 -0.169338 0)
(0.95593 -0.187274 0)
(0.98188 -0.203169 0)
(1.01302 -0.215725 0)
(1.04881 -0.222272 0)
(1.08935 -0.217345 0)
(1.1345 -0.193665 0)
(1.18082 -0.147283 0)
(1.22041 -0.0827108 0)
(1.24472 -0.0116816 0)
(1.24972 0.053489 0)
(1.23732 0.105322 0)
(1.21285 0.142016 0)
(1.17936 -0.00321701 0)
(1.18267 0.00200184 0)
(1.18582 0.00805509 0)
(1.18864 0.0149701 0)
(1.19094 0.0227394 0)
(1.19254 0.0313182 0)
(1.19326 0.0406224 0)
(1.19294 0.0505304 0)
(1.19144 0.0608864 0)
(1.18865 0.0715069 0)
(1.1845 0.0821885 0)
(1.17895 0.0927174 0)
(1.17201 0.102879 0)
(1.16373 0.112465 0)
(1.15418 0.121285 0)
(1.14348 0.129168 0)
(1.13175 0.135968 0)
(1.11914 0.141566 0)
(1.10579 0.14587 0)
(1.09187 0.148809 0)
(1.07752 0.150337 0)
(1.06288 0.150423 0)
(1.0481 0.149048 0)
(1.03331 0.146202 0)
(1.01863 0.14188 0)
(1.00419 0.136076 0)
(0.990101 0.128783 0)
(0.976503 0.119994 0)
(0.963529 0.109697 0)
(0.951334 0.0978757 0)
(0.940096 0.084524 0)
(0.930006 0.0696508 0)
(0.921286 0.0532784 0)
(0.914217 0.0354277 0)
(0.909143 0.0161567 0)
(0.906372 -0.00435048 0)
(0.906007 -0.0256693 0)
(0.907842 -0.0471755 0)
(0.911449 -0.0682302 0)
(0.916437 -0.0884092 0)
(0.922717 -0.107607 0)
(0.93067 -0.125933 0)
(0.941131 -0.14346 0)
(0.955177 -0.160012 0)
(0.973753 -0.175155 0)
(0.997338 -0.188268 0)
(1.026 -0.1982 0)
(1.05995 -0.202123 0)
(1.09959 -0.194686 0)
(1.14381 -0.169861 0)
(1.18762 -0.125677 0)
(1.2228 -0.067424 0)
(1.24222 -0.00531471 0)
(1.2437 0.0510079 0)
(1.22997 0.096079 0)
(1.20606 0.128719 0)
(1.1745 -0.000406762 0)
(1.17717 0.00468044 0)
(1.17965 0.0104698 0)
(1.18181 0.0169811 0)
(1.18349 0.0242061 0)
(1.18454 0.0321055 0)
(1.18481 0.0406079 0)
(1.18415 0.0496106 0)
(1.18246 0.0589827 0)
(1.17963 0.0685691 0)
(1.1756 0.0781975 0)
(1.17034 0.0876851 0)
(1.16384 0.0968462 0)
(1.15614 0.1055 0)
(1.1473 0.113475 0)
(1.13742 0.120618 0)
(1.12659 0.126793 0)
(1.11494 0.131887 0)
(1.1026 0.135808 0)
(1.0897 0.138483 0)
(1.07639 0.13986 0)
(1.0628 0.139901 0)
(1.04906 0.138581 0)
(1.03529 0.135882 0)
(1.02162 0.131793 0)
(1.00818 0.126306 0)
(0.995074 0.119413 0)
(0.982445 0.111109 0)
(0.970427 0.101387 0)
(0.959172 0.0902415 0)
(0.94885 0.077674 0)
(0.939651 0.0637026 0)
(0.931779 0.0483658 0)
(0.925472 0.0317144 0)
(0.921021 0.0138164 0)
(0.918731 -0.00518083 0)
(0.918818 -0.024991 0)
(0.921288 -0.0451568 0)
(0.925902 -0.0651398 0)
(0.932298 -0.0844734 0)
(0.940216 -0.102862 0)
(0.949723 -0.120149 0)
(0.961294 -0.136184 0)
(0.975698 -0.150733 0)
(0.993718 -0.163486 0)
(1.01594 -0.174001 0)
(1.04288 -0.181146 0)
(1.07519 -0.182089 0)
(1.11307 -0.172098 0)
(1.15434 -0.146777 0)
(1.19326 -0.105797 0)
(1.22237 -0.054444 0)
(1.23645 -0.00101414 0)
(1.23481 0.0472647 0)
(1.22043 0.0864411 0)
(1.19769 0.11563 0)
(1.16958 0.00194039 0)
(1.17169 0.00687151 0)
(1.1736 0.0123904 0)
(1.1752 0.018511 0)
(1.17635 0.025224 0)
(1.17693 0.0324951 0)
(1.17681 0.0402631 0)
(1.17587 0.0484413 0)
(1.17402 0.0569191 0)
(1.17117 0.0655658 0)
(1.16726 0.0742351 0)
(1.16226 0.0827708 0)
(1.15617 0.0910127 0)
(1.149 0.0988029 0)
(1.14082 0.10599 0)
(1.13168 0.112436 0)
(1.12169 0.118017 0)
(1.11094 0.122624 0)
(1.09954 0.126168 0)
(1.08763 0.128579 0)
(1.07531 0.129798 0)
(1.06272 0.129784 0)
(1.04998 0.128506 0)
(1.03721 0.125942 0)
(1.02452 0.122078 0)
(1.01205 0.116902 0)
(0.999904 0.110406 0)
(0.988218 0.102586 0)
(0.977127 0.0934404 0)
(0.966777 0.0829713 0)
(0.957332 0.0711887 0)
(0.948971 0.0581182 0)
(0.941888 0.0438057 0)
(0.936297 0.0283203 0)
(0.932436 0.0117467 0)
(0.930574 -0.00577902 0)
(0.930959 -0.0240399 0)
(0.933721 -0.0427029 0)
(0.938812 -0.0613517 0)
(0.946031 -0.0795613 0)
(0.955151 -0.0969545 0)
(0.966097 -0.113195 0)
(0.97905 -0.127943 0)
(0.994414 -0.140862 0)
(1.01269 -0.151645 0)
(1.03442 -0.159856 0)
(1.06028 -0.164326 0)
(1.09093 -0.162447 0)
(1.12601 -0.150475 0)
(1.16263 -0.125633 0)
(1.19522 -0.0886643 0)
(1.21787 -0.0442415 0)
(1.22716 0.0012697 0)
(1.22333 0.0425792 0)
(1.20915 0.0767724 0)
(1.18814 0.103047 0)
(1.16461 0.00386733 0)
(1.16624 0.00862139 0)
(1.16766 0.0138649 0)
(1.16878 0.0196068 0)
(1.16949 0.0258374 0)
(1.16967 0.032526 0)
(1.16923 0.0396202 0)
(1.16806 0.0470463 0)
(1.16609 0.054711 0)
(1.16323 0.0625036 0)
(1.15944 0.0702999 0)
(1.15469 0.0779666 0)
(1.14897 0.0853657 0)
(1.1423 0.0923596 0)
(1.13472 0.0988155 0)
(1.12628 0.104609 0)
(1.11706 0.109626 0)
(1.10715 0.113768 0)
(1.09664 0.116949 0)
(1.08565 0.119098 0)
(1.07428 0.120157 0)
(1.06265 0.120082 0)
(1.05087 0.118839 0)
(1.03906 0.116402 0)
(1.02733 0.112754 0)
(1.01579 0.107882 0)
(1.00458 0.101778 0)
(0.993803 0.0944398 0)
(0.983604 0.0858686 0)
(0.974121 0.0760731 0)
(0.96551 0.0650704 0)
(0.957939 0.0528923 0)
(0.951588 0.039591 0)
(0.946651 0.02524 0)
(0.943338 0.00994376 0)
(0.941875 -0.00617137 0)
(0.942489 -0.0229138 0)
(0.945358 -0.040023 0)
(0.950558 -0.0571773 0)
(0.958047 -0.0740169 0)
(0.96772 -0.0901593 0)
(0.979498 -0.105188 0)
(0.993405 -0.118659 0)
(1.00957 -0.130144 0)
(1.02823 -0.139269 0)
(1.04977 -0.145503 0)
(1.07471 -0.147678 0)
(1.10336 -0.143597 0)
(1.1348 -0.1306 0)
(1.16595 -0.107201 0)
(1.19215 -0.0746312 0)
(1.20912 -0.0366701 0)
(1.21486 0.00197509 0)
(1.20997 0.0374342 0)
(1.19673 0.0674569 0)
(1.17786 0.0912293 0)
(1.15961 0.00541463 0)
(1.16084 0.00997423 0)
(1.16185 0.0149389 0)
(1.16256 0.020314 0)
(1.16289 0.026089 0)
(1.16274 0.0322365 0)
(1.16204 0.0387112 0)
(1.16069 0.0454505 0)
(1.15862 0.0523751 0)
(1.15578 0.0593912 0)
(1.15211 0.0663935 0)
(1.1476 0.0732679 0)
(1.14223 0.0798959 0)
(1.13602 0.0861579 0)
(1.12899 0.091937 0)
(1.1212 0.0971225 0)
(1.1127 0.101612 0)
(1.10357 0.105313 0)
(1.0939 0.108146 0)
(1.08378 0.110041 0)
(1.0733 0.110943 0)
(1.06259 0.110804 0)
(1.05173 0.109591 0)
(1.04084 0.107275 0)
(1.03002 0.103836 0)
(1.0194 0.0992615 0)
(1.00908 0.0935442 0)
(0.99918 0.0866821 0)
(0.989836 0.0786805 0)
(0.98118 0.0695519 0)
(0.973358 0.0593194 0)
(0.966526 0.0480196 0)
(0.960853 0.0357094 0)
(0.956514 0.0224653 0)
(0.953694 0.0083927 0)
(0.95259 -0.00637226 0)
(0.953397 -0.0216568 0)
(0.956292 -0.037238 0)
(0.961401 -0.0528499 0)
(0.968783 -0.0681854 0)
(0.978441 -0.0828884 0)
(0.99035 -0.0965356 0)
(1.00448 -0.108652 0)
(1.02083 -0.118767 0)
(1.03943 -0.126423 0)
(1.06047 -0.131007 0)
(1.08416 -0.13142 0)
(1.11036 -0.125964 0)
(1.13778 -0.112913 0)
(1.16363 -0.0916309 0)
(1.18434 -0.0634037 0)
(1.19704 -0.0311373 0)
(1.20059 0.0017298 0)
(1.19561 0.0323192 0)
(1.18383 0.0588084 0)
(1.16727 0.0803586 0)
(1.15461 0.00662174 0)
(1.15549 0.0109724 0)
(1.15615 0.0156565 0)
(1.15653 0.020676 0)
(1.15654 0.02602 0)
(1.15613 0.0316637 0)
(1.15521 0.0375679 0)
(1.15372 0.0436789 0)
(1.15159 0.0499293 0)
(1.14878 0.0562396 0)
(1.14524 0.0625199 0)
(1.14096 0.0686731 0)
(1.13592 0.074597 0)
(1.13013 0.0801882 0)
(1.12362 0.0853442 0)
(1.11642 0.0899667 0)
(1.1086 0.0939638 0)
(1.1002 0.0972512 0)
(1.09131 0.0997543 0)
(1.08201 0.101408 0)
(1.07239 0.102157 0)
(1.06254 0.101957 0)
(1.05256 0.100771 0)
(1.04255 0.0985701 0)
(1.03261 0.0953351 0)
(1.02286 0.0910522 0)
(1.01339 0.0857145 0)
(1.00433 0.0793217 0)
(0.995805 0.0718813 0)
(0.987932 0.0634094 0)
(0.980852 0.053933 0)
(0.97471 0.0434931 0)
(0.96966 0.0321483 0)
(0.965863 0.0199784 0)
(0.963483 0.00708667 0)
(0.962691 -0.00639099 0)
(0.963657 -0.0202901 0)
(0.966537 -0.0344077 0)
(0.971462 -0.0485077 0)
(0.978533 -0.0623167 0)
(0.987809 -0.0755094 0)
(0.999312 -0.0876893 0)
(1.01301 -0.0984008 0)
(1.02884 -0.107168 0)
(1.04674 -0.113491 0)
(1.0667 -0.116731 0)
(1.08863 -0.115932 0)
(1.11202 -0.109863 0)
(1.13551 -0.0974713 0)
(1.15681 -0.0785949 0)
(1.17332 -0.0543577 0)
(1.18313 -0.026958 0)
(1.18557 0.00109349 0)
(1.18112 0.0275932 0)
(1.17101 0.0510147 0)
(1.15673 0.0705211 0)
(1.14961 0.00752536 0)
(1.1502 0.0116559 0)
(1.15058 0.0160591 0)
(1.15068 0.0207342 0)
(1.15044 0.0256699 0)
(1.14981 0.0308437 0)
(1.14873 0.0362215 0)
(1.14713 0.041757 0)
(1.14497 0.0473928 0)
(1.14221 0.053061 0)
(1.13881 0.0586853 0)
(1.13475 0.0641826 0)
(1.13002 0.0694652 0)
(1.12463 0.0744434 0)
(1.1186 0.0790278 0)
(1.11196 0.0831318 0)
(1.10475 0.086673 0)
(1.09704 0.0895754 0)
(1.08888 0.0917701 0)
(1.08035 0.0931963 0)
(1.07153 0.0938018 0)
(1.0625 0.0935427 0)
(1.05335 0.0923832 0)
(1.04418 0.0902957 0)
(1.03508 0.0872596 0)
(1.02616 0.0832617 0)
(1.01751 0.0782958 0)
(1.00925 0.0723632 0)
(1.00149 0.0654732 0)
(0.994357 0.0576443 0)
(0.987971 0.0489064 0)
(0.982468 0.0393032 0)
(0.97799 0.0288946 0)
(0.974681 0.0177601 0)
(0.972687 0.00600305 0)
(0.972161 -0.00624777 0)
(0.973246 -0.0188337 0)
(0.976078 -0.0315654 0)
(0.980776 -0.0442242 0)
(0.987442 -0.0565583 0)
(0.996149 -0.0682687 0)
(1.00693 -0.0789955 0)
(1.01977 -0.0883222 0)
(1.03458 -0.0957968 0)
(1.05124 -0.100924 0)
(1.0696 -0.103101 0)
(1.08937 -0.101551 0)
(1.10986 -0.0954145 0)
(1.12981 -0.0840735 0)
(1.14743 -0.0675824 0)
(1.16087 -0.046869 0)
(1.16882 -0.0235648 0)
(1.17079 0.000449076 0)
(1.16712 0.0234463 0)
(1.15866 0.0441389 0)
(1.14649 0.0617223 0)
(1.14466 0.00816033 0)
(1.14501 0.0120626 0)
(1.14514 0.0161859 0)
(1.14502 0.0205275 0)
(1.14458 0.0250761 0)
(1.14379 0.0298111 0)
(1.14258 0.0347023 0)
(1.14091 0.03971 0)
(1.13875 0.0447848 0)
(1.13604 0.049869 0)
(1.13278 0.0548974 0)
(1.12894 0.0597989 0)
(1.1245 0.0644983 0)
(1.11949 0.0689181 0)
(1.11391 0.0729804 0)
(1.10779 0.0766091 0)
(1.10116 0.079731 0)
(1.09409 0.0822777 0)
(1.08661 0.0841866 0)
(1.0788 0.0854017 0)
(1.07073 0.085874 0)
(1.06248 0.0855619 0)
(1.05412 0.0844312 0)
(1.04574 0.0824549 0)
(1.03743 0.0796133 0)
(1.0293 0.075894 0)
(1.02142 0.0712914 0)
(1.01392 0.0658082 0)
(1.00688 0.059455 0)
(1.00044 0.0522523 0)
(0.994699 0.0442318 0)
(0.989786 0.0354384 0)
(0.985828 0.0259321 0)
(0.982955 0.0157926 0)
(0.981297 0.00511918 0)
(0.980987 -0.00596576 0)
(0.982152 -0.0173106 0)
(0.984904 -0.0287378 0)
(0.989347 -0.0400427 0)
(0.995565 -0.0509902 0)
(1.00362 -0.0613046 0)
(1.01355 -0.0706621 0)
(1.02532 -0.0786895 0)
(1.03884 -0.084975 0)
(1.05396 -0.0890637 0)
(1.07045 -0.0904273 0)
(1.0879 -0.088463 0)
(1.10562 -0.0825797 0)
(1.12252 -0.0724274 0)
(1.13722 -0.0581404 0)
(1.14839 -0.0404596 0)
(1.15506 -0.0206092 0)
(1.15687 -2.66567e-05 0)
(1.15399 0.0199227 0)
(1.147 0.0381516 0)
(1.13672 0.0539121 0)
(1.13976 0.0085596 0)
(1.13992 0.0122277 0)
(1.13986 0.0160736 0)
(1.13956 0.0200928 0)
(1.13896 0.024274 0)
(1.13804 0.0285984 0)
(1.13674 0.0330393 0)
(1.13504 0.0375622 0)
(1.13289 0.0421248 0)
(1.13026 0.0466775 0)
(1.12714 0.0511648 0)
(1.12351 0.0555259 0)
(1.11936 0.059696 0)
(1.1147 0.0636084 0)
(1.10954 0.0671956 0)
(1.1039 0.0703907 0)
(1.09782 0.0731292 0)
(1.09134 0.0753501 0)
(1.0845 0.076997 0)
(1.07737 0.0780187 0)
(1.07 0.0783701 0)
(1.06247 0.0780124 0)
(1.05485 0.0769135 0)
(1.04722 0.0750478 0)
(1.03966 0.072397 0)
(1.03226 0.0689493 0)
(1.02512 0.0647006 0)
(1.01832 0.0596543 0)
(1.01197 0.0538223 0)
(1.00617 0.0472263 0)
(1.00102 0.0398987 0)
(0.996649 0.0318847 0)
(0.993161 0.0232442 0)
(0.990674 0.0140541 0)
(0.989306 0.00441001 0)
(0.98917 -0.00557098 0)
(0.990374 -0.0157471 0)
(0.993015 -0.0259526 0)
(0.997178 -0.0359964 0)
(1.00293 -0.0456595 0)
(1.01032 -0.0546895 0)
(1.01935 -0.0627951 0)
(1.02999 -0.0696466 0)
(1.04213 -0.0748794 0)
(1.05562 -0.0780948 0)
(1.07017 -0.0788559 0)
(1.08538 -0.076703 0)
(1.10058 -0.0712376 0)
(1.11488 -0.0622624 0)
(1.12723 -0.0499392 0)
(1.13664 -0.0348476 0)
(1.14237 -0.0179333 0)
(1.14409 -0.000296514 0)
(1.14189 0.0169784 0)
(1.13616 0.032973 0)
(1.1275 0.0470113 0)
(1.13495 0.00875354 0)
(1.13495 0.0121841 0)
(1.13474 0.0157562 0)
(1.1343 0.0194641 0)
(1.13358 0.0232966 0)
(1.13257 0.0272365 0)
(1.13121 0.0312601 0)
(1.12949 0.0353373 0)
(1.12738 0.0394316 0)
(1.12484 0.0435006 0)
(1.12187 0.0474967 0)
(1.11845 0.0513679 0)
(1.11457 0.0550586 0)
(1.11025 0.0585113 0)
(1.10548 0.0616676 0)
(1.10029 0.0644692 0)
(1.09472 0.0668594 0)
(1.08878 0.0687842 0)
(1.08254 0.0701931 0)
(1.07604 0.07104 0)
(1.06933 0.0712839 0)
(1.06247 0.0708891 0)
(1.05555 0.0698261 0)
(1.04862 0.0680712 0)
(1.04176 0.0656075 0)
(1.03506 0.0624245 0)
(1.02859 0.0585192 0)
(1.02245 0.0538959 0)
(1.01673 0.0485674 0)
(1.01153 0.0425559 0)
(1.00693 0.035894 0)
(1.00305 0.0286264 0)
(0.999984 0.0208116 0)
(0.997838 0.0125233 0)
(0.996713 0.00385238 0)
(0.996708 -0.00508905 0)
(0.997917 -0.0141705 0)
(1.00042 -0.0232381 0)
(1.00428 -0.032115 0)
(1.00956 -0.0405996 0)
(1.01627 -0.0484628 0)
(1.02441 -0.0554447 0)
(1.03394 -0.0612563 0)
(1.04474 -0.0655818 0)
(1.05663 -0.0680838 0)
(1.06934 -0.0684102 0)
(1.08246 -0.0662182 0)
(1.09544 -0.0612382 0)
(1.10755 -0.0533664 0)
(1.11797 -0.0427639 0)
(1.12594 -0.0298951 0)
(1.13088 -0.0154789 0)
(1.13252 -0.000384048 0)
(1.13086 0.014535 0)
(1.12617 0.0285056 0)
(1.11888 0.0409299 0)
(1.13025 0.00877043 0)
(1.13012 0.0119621 0)
(1.12979 0.0152651 0)
(1.12925 0.0186728 0)
(1.12845 0.0221744 0)
(1.12737 0.025754 0)
(1.12599 0.0293905 0)
(1.12428 0.0330575 0)
(1.12221 0.0367235 0)
(1.11978 0.040352 0)
(1.11695 0.0439024 0)
(1.11374 0.0473299 0)
(1.11012 0.0505871 0)
(1.10611 0.0536244 0)
(1.10171 0.0563914 0)
(1.09695 0.0588375 0)
(1.09184 0.0609131 0)
(1.08642 0.0625708 0)
(1.08073 0.0637657 0)
(1.07481 0.0644568 0)
(1.06871 0.0646071 0)
(1.06249 0.0641845 0)
(1.05621 0.0631621 0)
(1.04993 0.0615185 0)
(1.04373 0.0592384 0)
(1.03767 0.0563128 0)
(1.03184 0.0527397 0)
(1.02631 0.0485242 0)
(1.02118 0.0436796 0)
(1.01652 0.0382284 0)
(1.01242 0.0322026 0)
(1.00898 0.0256458 0)
(1.00629 0.0186144 0)
(1.00444 0.0111787 0)
(1.00352 0.00342466 0)
(1.00361 -0.00454455 0)
(1.0048 -0.012607 0)
(1.00714 -0.0206212 0)
(1.01069 -0.0284255 0)
(1.01548 -0.0358367 0)
(1.02153 -0.042649 0)
(1.02882 -0.0486332 0)
(1.03728 -0.0535384 0)
(1.04679 -0.0570955 0)
(1.05719 -0.0590256 0)
(1.06821 -0.0590493 0)
(1.07949 -0.056914 0)
(1.09053 -0.0524377 0)
(1.10077 -0.0455748 0)
(1.10957 -0.0364771 0)
(1.11633 -0.0255106 0)
(1.12059 -0.0132399 0)
(1.12211 -0.000338092 0)
(1.12086 0.0125065 0)
(1.11702 0.0246521 0)
(1.11089 0.0355785 0)
(1.12569 0.00863644 0)
(1.12546 0.0115897 0)
(1.12504 0.0146293 0)
(1.12441 0.0177482 0)
(1.12355 0.0209358 0)
(1.12244 0.0241775 0)
(1.12105 0.0274544 0)
(1.11937 0.0307435 0)
(1.11737 0.0340174 0)
(1.11504 0.0372448 0)
(1.11237 0.0403907 0)
(1.10936 0.0434168 0)
(1.10599 0.0462826 0)
(1.10228 0.0489455 0)
(1.09822 0.051362 0)
(1.09385 0.0534883 0)
(1.08918 0.0552815 0)
(1.08424 0.0567 0)
(1.07905 0.0577045 0)
(1.07368 0.0582586 0)
(1.06814 0.0583295 0)
(1.06251 0.0578886 0)
(1.05682 0.0569118 0)
(1.05115 0.0553801 0)
(1.04555 0.0532801 0)
(1.0401 0.0506042 0)
(1.03485 0.0473512 0)
(1.02989 0.0435272 0)
(1.02529 0.0391457 0)
(1.02113 0.0342286 0)
(1.01749 0.0288076 0)
(1.01445 0.0229243 0)
(1.01209 0.0166322 0)
(1.0105 0.00999767 0)
(1.00974 0.00310097 0)
(1.0099 -0.00396292 0)
(1.01103 -0.0110817 0)
(1.01319 -0.0181265 0)
(1.01642 -0.0249509 0)
(1.02074 -0.0313908 0)
(1.02615 -0.0372633 0)
(1.03261 -0.0423685 0)
(1.04007 -0.046491 0)
(1.04841 -0.0494048 0)
(1.05744 -0.0508821 0)
(1.06694 -0.0507044 0)
(1.07658 -0.0486861 0)
(1.08596 -0.044707 0)
(1.09461 -0.0387553 0)
(1.10203 -0.0309667 0)
(1.10775 -0.0216358 0)
(1.11141 -0.0112036 0)
(1.11279 -0.000198716 0)
(1.11184 0.0108175 0)
(1.10867 0.0213245 0)
(1.10352 0.0308732 0)
(1.12127 0.00837533 0)
(1.12097 0.0110924 0)
(1.12049 0.0138752 0)
(1.11981 0.0167165 0)
(1.11891 0.0196062 0)
(1.11779 0.0225309 0)
(1.11641 0.0254737 0)
(1.11477 0.0284143 0)
(1.11285 0.0313291 0)
(1.11063 0.0341909 0)
(1.10812 0.0369699 0)
(1.10529 0.0396332 0)
(1.10216 0.0421461 0)
(1.09873 0.0444722 0)
(1.095 0.0465741 0)
(1.091 0.0484141 0)
(1.08673 0.0499552 0)
(1.08223 0.0511611 0)
(1.07752 0.0519977 0)
(1.07264 0.0524332 0)
(1.06763 0.0524386 0)
(1.06253 0.0519889 0)
(1.0574 0.0510627 0)
(1.05229 0.0496436 0)
(1.04724 0.0477199 0)
(1.04234 0.0452854 0)
(1.03763 0.0423401 0)
(1.03319 0.0388904 0)
(1.02908 0.0349497 0)
(1.02537 0.0305397 0)
(1.02214 0.0256904 0)
(1.01946 0.0204417 0)
(1.01739 0.0148436 0)
(1.01601 0.00895782 0)
(1.01539 0.00285869 0)
(1.01558 -0.00336694 0)
(1.01663 -0.00961682 0)
(1.0186 -0.0157748 0)
(1.02151 -0.0217097 0)
(1.02537 -0.027276 0)
(1.03016 -0.0323132 0)
(1.03586 -0.0366489 0)
(1.04239 -0.0400999 0)
(1.04964 -0.0424789 0)
(1.05744 -0.0436015 0)
(1.06559 -0.0432986 0)
(1.0738 -0.0414342 0)
(1.08175 -0.03793 0)
(1.08904 -0.032794 0)
(1.09529 -0.0261445 0)
(1.10012 -0.0182245 0)
(1.10324 -0.00937322 0)
(1.10446 -1.48574e-05 0)
(1.10373 0.00939899 0)
(1.10111 0.0184438 0)
(1.09677 0.0267364 0)
(1.11703 0.00800894 0)
(1.11667 0.0104931 0)
(1.11615 0.0130264 0)
(1.11544 0.0156016 0)
(1.11453 0.0182088 0)
(1.1134 0.020836 0)
(1.11206 0.023468 0)
(1.11047 0.0260871 0)
(1.10863 0.0286726 0)
(1.10653 0.0312012 0)
(1.10417 0.0336473 0)
(1.10153 0.0359827 0)
(1.09863 0.0381779 0)
(1.09546 0.0402016 0)
(1.09204 0.042022 0)
(1.08837 0.0436067 0)
(1.08448 0.0449239 0)
(1.08038 0.0459424 0)
(1.0761 0.0466325 0)
(1.07168 0.0469668 0)
(1.06715 0.0469201 0)
(1.06255 0.0464706 0)
(1.05793 0.0455999 0)
(1.05332 0.0442937 0)
(1.0488 0.0425422 0)
(1.04439 0.0403406 0)
(1.04018 0.0376898 0)
(1.03621 0.0345963 0)
(1.03254 0.0310738 0)
(1.02924 0.0271426 0)
(1.02637 0.0228313 0)
(1.024 0.0181772 0)
(1.02219 0.0132269 0)
(1.02099 0.00803733 0)
(1.02047 0.00267612 0)
(1.02067 -0.00277746 0)
(1.02164 -0.00823181 0)
(1.02342 -0.013583 0)
(1.02601 -0.0187152 0)
(1.02942 -0.0235001 0)
(1.03364 -0.0277992 0)
(1.03862 -0.0314645 0)
(1.0443 -0.0343425 0)
(1.05056 -0.0362791 0)
(1.05727 -0.0371264 0)
(1.06422 -0.0367547 0)
(1.07119 -0.0350637 0)
(1.07789 -0.0320043 0)
(1.08403 -0.0275951 0)
(1.08927 -0.0219402 0)
(1.09334 -0.015233 0)
(1.09598 -0.00774748 0)
(1.09704 0.000182655 0)
(1.09647 0.00819586 0)
(1.09429 0.0159421 0)
(1.09062 0.0230981 0)