/*--------------------------------*- C++ -*----------------------------------*\
  =========                 |
  \\      /  F ield         | OpenFOAM: The Open Source CFD Toolbox
   \\    /   O peration     | Website:  https://openfoam.org
    \\  /    A nd           | Version:  7
     \\/     M anipulation  |
\*---------------------------------------------------------------------------*/
FoamFile
{
    version     2.0;
    format      ascii;
    class       volVectorField;
    location    "70";
    object      U;
}
// * * * * * * * * * * * * * * * * * * * * * * * * * * * * * * * * * * * * * //

dimensions      [0 1 -1 0 0 0 0];

internalField   nonuniform List<vector> 
1987
(
(1.13375 -0.244663 -4.87263e-20)
(1.13023 -0.233551 -2.661e-20)
(1.12695 -0.222707 -2.59369e-20)
(1.1236 -0.212846 3.68854e-20)
(1.14028 -0.24227 3.72662e-20)
(1.13656 -0.231452 -1.21416e-20)
(1.1331 -0.220861 2.86523e-20)
(1.1296 -0.21119 -4.63453e-21)
(1.14663 -0.239772 -3.04651e-20)
(1.14274 -0.229246 1.15329e-20)
(1.13911 -0.218902 -3.42708e-20)
(1.13546 -0.209418 1.28166e-20)
(1.15279 -0.237176 1.06689e-20)
(1.14875 -0.226941 -1.22181e-21)
(1.14497 -0.216842 1.47178e-20)
(1.14121 -0.20754 -7.44247e-21)
(1.1634 -0.24464 1.55712e-20)
(1.15878 -0.234496 3.64112e-22)
(1.1546 -0.22455 1.74136e-21)
(1.1507 -0.214695 5.29908e-21)
(1.14684 -0.205569 -3.25216e-21)
(1.16934 -0.241578 -1.19925e-21)
(1.1646 -0.231741 6.75394e-23)
(1.16029 -0.222081 1.8312e-21)
(1.15628 -0.212473 -2.65538e-21)
(1.15235 -0.203515 1.32044e-21)
(1.17508 -0.238458 4.23188e-22)
(1.17023 -0.228922 7.47139e-22)
(1.16583 -0.219545 -1.54433e-21)
(1.16173 -0.210186 -3.00707e-21)
(1.15773 -0.201387 4.47929e-21)
(1.18063 -0.235289 -1.77472e-20)
(1.1757 -0.226051 1.43087e-20)
(1.17122 -0.216952 5.54315e-21)
(1.16703 -0.207844 2.34078e-21)
(1.16299 -0.199191 -3.83557e-21)
(1.18099 -0.223137 1.53379e-20)
(1.17644 -0.21431 6.57284e-21)
(1.1722 -0.205454 1.96978e-20)
(1.16813 -0.196939 -1.36187e-20)
(1.18612 -0.220191 -4.9921e-20)
(1.18152 -0.211627 1.83703e-20)
(1.17723 -0.203025 -4.6533e-20)
(1.17314 -0.194636 4.59029e-21)
(1.19109 -0.217221 5.70983e-21)
(1.18645 -0.208912 -6.38459e-21)
(1.18212 -0.200566 7.0697e-20)
(1.17803 -0.192292 -2.47132e-20)
(1.1959 -0.214236 7.4879e-20)
(1.19124 -0.206173 -5.91154e-20)
(1.18688 -0.198082 -1.56377e-20)
(1.18279 -0.189913 -3.91107e-20)
(1.20056 -0.211246 -4.57962e-20)
(1.19589 -0.203417 -5.05212e-21)
(1.19151 -0.195581 -2.07153e-20)
(1.18744 -0.187506 7.27775e-20)
(1.20507 -0.208257 -8.58121e-20)
(1.2004 -0.200652 -1.41094e-20)
(1.19602 -0.193068 1.75245e-20)
(1.19197 -0.185078 -5.34121e-20)
(1.20944 -0.205277 -6.83336e-20)
(1.20477 -0.197883 3.80758e-20)
(1.2004 -0.19055 3.27661e-20)
(1.19639 -0.182635 4.52532e-20)
(1.21367 -0.202313 1.30914e-19)
(1.20903 -0.195118 5.21466e-20)
(1.20467 -0.188033 -2.49393e-19)
(1.2007 -0.180182 -9.61761e-21)
(1.21777 -0.19937 1.80337e-20)
(1.21315 -0.192362 2.51724e-20)
(1.20882 -0.18552 9.17563e-20)
(1.2049 -0.177726 -2.82093e-20)
(1.21717 -0.18962 1.03823e-20)
(1.21286 -0.183017 4.18424e-20)
(1.209 -0.175269 -6.07285e-20)
(1.22107 -0.186896 -2.87697e-19)
(1.21679 -0.180528 -1.92104e-20)
(1.21301 -0.172818 -2.49594e-20)
(1.22486 -0.184195 8.19928e-20)
(1.22063 -0.178056 8.83693e-20)
(1.21693 -0.170375 3.05933e-21)
(1.22854 -0.181518 -6.8945e-20)
(1.22436 -0.175604 -1.70251e-19)
(1.22075 -0.167945 2.06902e-19)
(1.23211 -0.178865 1.30433e-19)
(1.228 -0.173174 -9.30683e-20)
(1.22449 -0.165529 5.39484e-20)
(1.23153 -0.170767 -2.7559e-20)
(1.22815 -0.163129 -1.13004e-19)
(1.23496 -0.16838 1.99581e-19)
(1.23172 -0.160746 3.08781e-22)
(1.23827 -0.166009 -1.40988e-19)
(1.2352 -0.158379 -9.55468e-20)
(1.23857 -0.156022 2.83178e-20)
(1.24181 -0.153668 -4.81456e-20)
(1.24486 -0.1513 -4.20019e-19)
(1.1492 -0.195743 1.64555e-21)
(1.14663 -0.190199 -8.64793e-22)
(1.14416 -0.184611 -2.95703e-23)
(1.14199 -0.179034 1.73976e-21)
(1.1401 -0.173549 -1.69939e-21)
(1.13842 -0.16814 1.75466e-21)
(1.13686 -0.162797 -2.52387e-21)
(1.13538 -0.157499 1.84575e-21)
(1.13395 -0.152245 -1.9822e-21)
(1.13257 -0.147032 1.35642e-21)
(1.13122 -0.141859 -1.3052e-21)
(1.1299 -0.136729 5.42381e-22)
(1.1286 -0.131638 1.19021e-21)
(1.12733 -0.12658 -7.53996e-22)
(1.12608 -0.121565 -6.37061e-22)
(1.12484 -0.116591 4.15824e-22)
(1.12362 -0.111655 -3.95101e-24)
(1.1224 -0.106759 -5.94109e-22)
(1.1212 -0.101901 7.47441e-22)
(1.12001 -0.0970798 -2.07618e-22)
(1.11883 -0.0922958 -2.82698e-22)
(1.11765 -0.0875411 3.33086e-22)
(1.11649 -0.0828286 1.46645e-22)
(1.11533 -0.0781386 -3.63311e-22)
(1.11419 -0.0734661 3.11379e-22)
(1.11307 -0.0688292 -3.70616e-22)
(1.11196 -0.0642075 2.9715e-22)
(1.11088 -0.0596027 -1.14631e-22)
(1.10982 -0.0550087 2.65744e-22)
(1.1088 -0.0504194 -1.4333e-22)
(1.10781 -0.0458281 -2.57955e-22)
(1.10688 -0.0412271 8.95742e-23)
(1.106 -0.0366073 3.21289e-23)
(1.10518 -0.0319582 1.29948e-22)
(1.10444 -0.0272684 -2.67816e-22)
(1.10379 -0.0225215 -1.32e-22)
(1.10324 -0.0177089 1.90017e-22)
(1.10281 -0.0127888 -1.29878e-22)
(1.1025 -0.00779588 1.2759e-22)
(1.10234 -0.00258057 -9.41088e-23)
(1.14385 -0.197338 1.56132e-21)
(1.14141 -0.191655 -1.55151e-21)
(1.13916 -0.185947 3.34346e-21)
(1.13724 -0.180265 -8.07836e-22)
(1.13558 -0.174687 -3.10174e-22)
(1.13412 -0.169185 9.61516e-22)
(1.13275 -0.16376 -3.02955e-21)
(1.13145 -0.158383 1.75902e-23)
(1.1302 -0.153056 8.38142e-22)
(1.12898 -0.147777 -1.07266e-21)
(1.12779 -0.142543 6.8199e-22)
(1.12662 -0.137357 -7.02957e-22)
(1.12547 -0.132216 -1.69705e-22)
(1.12433 -0.127109 1.27064e-23)
(1.12321 -0.12205 1.61315e-21)
(1.1221 -0.117037 -7.34525e-22)
(1.121 -0.112064 -8.8895e-22)
(1.1199 -0.107135 8.09288e-22)
(1.11881 -0.102246 1.29099e-21)
(1.11772 -0.0973971 -9.10603e-22)
(1.11664 -0.0925873 8.16731e-23)
(1.11556 -0.0878084 -1.16209e-21)
(1.11449 -0.0830766 6.33731e-22)
(1.11341 -0.0783662 1.33644e-21)
(1.11235 -0.0736719 -1.05543e-22)
(1.1113 -0.0690174 -3.98635e-22)
(1.11027 -0.0643793 -3.16132e-22)
(1.10926 -0.0597587 5.76234e-23)
(1.10826 -0.0551499 -6.67306e-22)
(1.1073 -0.0505466 2.35892e-22)
(1.10637 -0.0459418 7.03524e-22)
(1.10549 -0.0413278 -3.76365e-22)
(1.10465 -0.0366955 8.39809e-22)
(1.10388 -0.0320342 -3.5587e-22)
(1.10317 -0.0273324 2.48891e-22)
(1.10256 -0.0225737 3.3778e-22)
(1.10203 -0.0177491 4.79638e-23)
(1.10162 -0.0128174 5.60898e-23)
(1.10133 -0.0078126 2.83321e-22)
(1.10119 -0.00258265 1.25181e-23)
(1.13839 -0.198857 4.24542e-21)
(1.1361 -0.193045 -3.45603e-22)
(1.13409 -0.187222 1.39703e-21)
(1.13243 -0.181445 -9.82621e-21)
(1.13101 -0.175779 8.5587e-21)
(1.12976 -0.170188 -3.46276e-21)
(1.1286 -0.164685 -1.38826e-21)
(1.12748 -0.159235 1.63741e-21)
(1.12641 -0.153838 1.41271e-21)
(1.12536 -0.148497 1.64819e-21)
(1.12433 -0.143204 -5.29003e-21)
(1.12332 -0.137968 3.3329e-21)
(1.12231 -0.13278 1.75146e-21)
(1.12131 -0.127625 6.21872e-22)
(1.12032 -0.122523 -5.18086e-21)
(1.11934 -0.117472 3.69299e-21)
(1.11836 -0.112465 9.33572e-22)
(1.11739 -0.107503 -8.79279e-22)
(1.11641 -0.102585 -1.5495e-21)
(1.11543 -0.0977095 1.43015e-21)
(1.11445 -0.0928745 -1.5275e-21)
(1.11347 -0.0880722 1.17408e-21)
(1.11249 -0.0833236 1.11433e-21)
(1.11149 -0.0785936 -2.06929e-21)
(1.11051 -0.0738762 5.85967e-23)
(1.10954 -0.0692044 3.46273e-22)
(1.10858 -0.0645504 5.14606e-22)
(1.10764 -0.0599146 -8.06899e-23)
(1.10671 -0.0552912 2.45088e-22)
(1.1058 -0.0506739 4.53608e-22)
(1.10493 -0.0460559 1.85468e-23)
(1.10409 -0.041429 6.20442e-23)
(1.1033 -0.0367841 -1.04925e-21)
(1.10257 -0.0321107 6.88534e-22)
(1.1019 -0.0273968 -3.38493e-23)
(1.10132 -0.0226264 -6.46633e-22)
(1.10082 -0.0177897 -4.73808e-22)
(1.10044 -0.0128463 6.05938e-22)
(1.10016 -0.00782947 -1.02688e-23)
(1.10003 -0.00258514 -1.37718e-22)
(1.13284 -0.200294 -1.24901e-21)
(1.13071 -0.194366 -4.91599e-21)
(1.12896 -0.18843 8.78714e-21)
(1.12757 -0.182572 -3.43466e-21)
(1.12638 -0.176827 -3.86377e-21)
(1.12535 -0.171147 3.7061e-21)
(1.12439 -0.165571 -1.41243e-21)
(1.12347 -0.160051 3.38251e-21)
(1.12258 -0.154589 -8.78102e-21)
(1.12171 -0.149188 6.02925e-21)
(1.12085 -0.14384 3.06567e-21)
(1.12 -0.138561 -1.90284e-21)
(1.11913 -0.133331 2.16778e-21)
(1.11827 -0.128128 -1.85813e-21)
(1.11742 -0.122983 -3.85122e-22)
(1.11657 -0.117895 2.51507e-21)
(1.11572 -0.112856 -1.74757e-21)
(1.11486 -0.107864 2.53083e-21)
(1.114 -0.102918 -3.86164e-21)
(1.11313 -0.0980167 3.16707e-21)
(1.11225 -0.0931572 -1.51515e-21)
(1.11137 -0.0883325 6.97037e-23)
(1.11047 -0.0835685 -7.28037e-22)
(1.10957 -0.0788194 -1.7463e-21)
(1.10867 -0.0740791 4.2715e-22)
(1.10778 -0.0693902 3.0616e-22)
(1.10689 -0.0647209 5.39065e-22)
(1.10601 -0.0600701 7.33576e-22)
(1.10515 -0.0554325 -9.2815e-22)
(1.1043 -0.0508015 -2.63203e-22)
(1.10348 -0.0461702 -1.37551e-22)
(1.1027 -0.0415306 -1.39386e-21)
(1.10195 -0.0368733 -7.72175e-22)
(1.10126 -0.0321877 -8.4715e-22)
(1.10063 -0.0274617 -1.02386e-21)
(1.10008 -0.0226795 1.07683e-21)
(1.09961 -0.0178307 -3.9963e-22)
(1.09925 -0.0128756 -5.30221e-22)
(1.09899 -0.00784641 -4.22603e-23)
(1.09887 -0.00258791 3.03078e-23)
(1.12718 -0.201645 3.75426e-21)
(1.12524 -0.195616 -2.03291e-21)
(1.12376 -0.189567 -5.95419e-21)
(1.12266 -0.183651 -4.36749e-21)
(1.12168 -0.177838 8.9075e-21)
(1.12087 -0.172061 3.70154e-21)
(1.12013 -0.166413 -6.28614e-21)
(1.11941 -0.160826 -1.64421e-21)
(1.11871 -0.155305 1.89622e-22)
(1.11802 -0.149848 4.61602e-21)
(1.11733 -0.14445 -1.67607e-21)
(1.11664 -0.139133 6.42018e-21)
(1.11593 -0.133867 -6.60425e-21)
(1.11522 -0.128617 -3.85949e-21)
(1.11451 -0.123428 5.64505e-22)
(1.1138 -0.118307 1.97104e-21)
(1.11307 -0.113237 3.85615e-21)
(1.11233 -0.108217 -5.9702e-21)
(1.11158 -0.103245 2.19135e-21)
(1.11082 -0.0983188 -1.85532e-21)
(1.11004 -0.0934359 3.47569e-21)
(1.10926 -0.0885908 -1.10817e-21)
(1.10845 -0.0838079 -2.38647e-22)
(1.10766 -0.07904 1.46782e-21)
(1.10684 -0.0742818 -5.34057e-22)
(1.10602 -0.0695755 -1.19374e-21)
(1.10521 -0.0648911 1.14956e-21)
(1.10439 -0.0602256 -2.48334e-21)
(1.10359 -0.0555738 7.88033e-22)
(1.1028 -0.0509292 7.32754e-22)
(1.10204 -0.0462849 7.595e-22)
(1.1013 -0.0416325 1.69997e-24)
(1.1006 -0.0369629 1.78918e-21)
(1.09995 -0.0322651 1.44939e-22)
(1.09936 -0.0275271 3.30883e-22)
(1.09884 -0.0227331 -3.82442e-22)
(1.0984 -0.017872 -9.6718e-23)
(1.09806 -0.0129055 8.86043e-22)
(1.09781 -0.00786337 -7.78915e-23)
(1.09771 -0.00259086 4.11683e-22)
(1.1148 -0.155985 6.29348e-21)
(1.11429 -0.150478 -4.30142e-21)
(1.11378 -0.145035 4.09719e-21)
(1.11324 -0.139679 2.29646e-21)
(1.11272 -0.134375 7.23505e-22)
(1.11218 -0.129085 3.25931e-21)
(1.11161 -0.12386 -5.41261e-21)
(1.11103 -0.118707 -2.4425e-21)
(1.11042 -0.113609 3.45773e-21)
(1.10981 -0.108562 2.08147e-21)
(1.10917 -0.103565 -3.15404e-21)
(1.10851 -0.0986161 4.50169e-21)
(1.10784 -0.0937114 -2.81588e-21)
(1.10715 -0.0888493 -1.53506e-21)
(1.10643 -0.0840387 -4.41745e-22)
(1.10575 -0.0792523 5.31592e-22)
(1.10501 -0.0744864 1.45532e-21)
(1.10426 -0.0697611 -7.35707e-23)
(1.10352 -0.0650612 1.42595e-21)
(1.10277 -0.060381 6.36368e-22)
(1.10203 -0.0557152 -3.52178e-22)
(1.1013 -0.0510572 -3.10794e-21)
(1.10059 -0.0463998 2.17016e-21)
(1.09991 -0.0417348 2.26989e-21)
(1.09925 -0.0370528 -2.34428e-21)
(1.09864 -0.032343 1.35714e-21)
(1.09809 -0.027593 -4.64535e-22)
(1.0976 -0.0227872 5.11364e-22)
(1.09718 -0.0179137 -1.21068e-21)
(1.09686 -0.0129357 -2.37142e-21)
(1.09664 -0.00788043 -1.41913e-21)
(1.09655 -0.00259426 -4.88473e-22)
(1.15445 -0.194076 -1.75206e-21)
(1.15176 -0.188681 9.07698e-22)
(1.1491 -0.183216 1.84329e-23)
(1.14669 -0.177753 -1.83951e-21)
(1.14457 -0.17237 1.80268e-21)
(1.14267 -0.167057 -1.86255e-21)
(1.14092 -0.161801 2.66983e-21)
(1.13926 -0.156585 -1.95739e-21)
(1.13767 -0.151406 2.10535e-21)
(1.13612 -0.146264 -1.42926e-21)
(1.13462 -0.141155 1.37332e-21)
(1.13316 -0.136083 -5.63218e-22)
(1.13172 -0.131045 -1.25261e-21)
(1.13031 -0.126038 7.96973e-22)
(1.12893 -0.121069 6.747e-22)
(1.12757 -0.116136 -4.34354e-22)
(1.12622 -0.111238 8.84046e-24)
(1.1249 -0.106377 6.31616e-22)
(1.12359 -0.10155 -7.91554e-22)
(1.12229 -0.096758 2.1726e-22)
(1.12101 -0.0920007 2.93746e-22)
(1.11974 -0.0872709 -3.58485e-22)
(1.11849 -0.0825794 -1.43585e-22)
(1.11724 -0.0779105 3.76628e-22)
(1.11602 -0.0732591 -3.27748e-22)
(1.11482 -0.06864 3.90346e-22)
(1.11364 -0.0640353 -3.17809e-22)
(1.11249 -0.0594465 1.20137e-22)
(1.11138 -0.0548675 -2.72051e-22)
(1.11029 -0.0502924 1.49692e-22)
(1.10926 -0.0457148 2.77204e-22)
(1.10827 -0.0411268 -9.92382e-23)
(1.10734 -0.0365196 -3.58215e-23)
(1.10648 -0.0318828 -1.38126e-22)
(1.10571 -0.027205 2.87615e-22)
(1.10503 -0.0224698 1.41783e-22)
(1.10445 -0.0176691 -2.04394e-22)
(1.10399 -0.0127607 1.40409e-22)
(1.10367 -0.0077793 -1.36814e-22)
(1.10349 -0.00257895 1.00531e-22)
(1.1596 -0.19234 -1.8836e-21)
(1.1568 -0.187102 1.83199e-21)
(1.15396 -0.181767 -4.00205e-21)
(1.15133 -0.176428 9.96433e-22)
(1.14899 -0.171153 3.88801e-22)
(1.14688 -0.165938 -1.13868e-21)
(1.14494 -0.160772 3.60555e-21)
(1.14311 -0.155642 -3.20757e-23)
(1.14135 -0.150543 -9.85231e-22)
(1.13965 -0.145474 1.28716e-21)
(1.138 -0.140432 -8.23493e-22)
(1.13639 -0.135421 8.67256e-22)
(1.13482 -0.130439 1.95515e-22)
(1.13328 -0.125484 -2.34492e-23)
(1.13177 -0.120562 -1.87032e-21)
(1.13028 -0.115672 8.61163e-22)
(1.12882 -0.110814 1.02961e-21)
(1.12738 -0.105988 -9.46342e-22)
(1.12597 -0.101194 -1.50323e-21)
(1.12457 -0.0964323 1.04224e-21)
(1.12319 -0.0917023 -8.58575e-23)
(1.12182 -0.0869981 1.33855e-21)
(1.12048 -0.0823287 -7.22696e-22)
(1.11915 -0.0776814 -1.54895e-21)
(1.11785 -0.0730512 1.07613e-22)
(1.11658 -0.0684503 4.68278e-22)
(1.11533 -0.0638629 3.54047e-22)
(1.11411 -0.0592903 -7.01264e-23)
(1.11293 -0.0547265 7.6981e-22)
(1.11179 -0.0501658 -2.65886e-22)
(1.11069 -0.0456019 -7.8354e-22)
(1.10966 -0.041027 4.02818e-22)
(1.10868 -0.0364325 -9.59366e-22)
(1.10778 -0.0318079 4.04484e-22)
(1.10697 -0.0271421 -2.7017e-22)
(1.10626 -0.0224186 -3.77897e-22)
(1.10565 -0.0176298 -6.62777e-23)
(1.10517 -0.0127329 -5.13354e-23)
(1.10483 -0.00776286 -3.33386e-22)
(1.10464 -0.00257775 -6.84898e-24)
(1.16463 -0.190542 -5.80143e-21)
(1.16174 -0.185467 4.57901e-22)
(1.15875 -0.180266 -1.87069e-21)
(1.15592 -0.17506 1.33181e-20)
(1.15336 -0.169899 -1.15433e-20)
(1.15105 -0.164787 4.70459e-21)
(1.14892 -0.159715 1.86995e-21)
(1.14691 -0.154673 -2.22582e-21)
(1.145 -0.149656 -1.84609e-21)
(1.14315 -0.144663 -2.1966e-21)
(1.14135 -0.139691 7.01672e-21)
(1.1396 -0.134743 -4.36959e-21)
(1.1379 -0.12982 -2.31971e-21)
(1.13623 -0.124919 -8.33801e-22)
(1.13459 -0.120046 6.77172e-21)
(1.13299 -0.1152 -4.81378e-21)
(1.13141 -0.110383 -1.20847e-21)
(1.12986 -0.105594 1.13663e-21)
(1.12834 -0.100834 1.96617e-21)
(1.12684 -0.0961029 -1.83621e-21)
(1.12536 -0.0914011 1.93539e-21)
(1.1239 -0.0867232 -1.47891e-21)
(1.12247 -0.0820766 -1.42247e-21)
(1.12106 -0.0774513 2.5669e-21)
(1.11968 -0.0728426 -8.26862e-23)
(1.11833 -0.0682602 -4.10107e-22)
(1.11701 -0.0636904 -6.24955e-22)
(1.11572 -0.0591342 9.69861e-23)
(1.11448 -0.0545858 -3.12757e-22)
(1.11328 -0.0500396 -5.66616e-22)
(1.11213 -0.0454895 -4.11184e-24)
(1.11104 -0.0409278 -9.70715e-23)
(1.11002 -0.0363459 1.23214e-21)
(1.10908 -0.0317336 -8.08952e-22)
(1.10823 -0.0270798 2.50698e-23)
(1.10748 -0.0223679 7.73805e-22)
(1.10685 -0.0175908 5.57885e-22)
(1.10635 -0.0127055 -7.22936e-22)
(1.10599 -0.00774652 -2.35407e-23)
(1.10579 -0.00257688 1.75024e-22)
(1.16955 -0.188687 1.90046e-21)
(1.16658 -0.183779 7.61263e-21)
(1.16346 -0.178718 -1.35125e-20)
(1.16045 -0.173651 5.2252e-21)
(1.15768 -0.168613 5.86047e-21)
(1.15517 -0.163606 -5.62369e-21)
(1.15286 -0.158631 2.17684e-21)
(1.15068 -0.15368 -5.17385e-21)
(1.14861 -0.148748 1.32309e-20)
(1.14661 -0.143833 -9.04904e-21)
(1.14468 -0.138934 -4.51573e-21)
(1.14279 -0.134051 2.77041e-21)
(1.14095 -0.129188 -3.2471e-21)
(1.13916 -0.124343 2.63722e-21)
(1.1374 -0.11952 5.27135e-22)
(1.13568 -0.114721 -3.65387e-21)
(1.13399 -0.109945 2.48363e-21)
(1.13233 -0.105195 -3.57317e-21)
(1.1307 -0.10047 5.41236e-21)
(1.1291 -0.0957702 -4.44947e-21)
(1.12752 -0.0910973 2.11745e-21)
(1.12597 -0.0864462 -1.12322e-22)
(1.12446 -0.0818232 1.02493e-21)
(1.12296 -0.0772204 2.40969e-21)
(1.1215 -0.0726332 -5.90946e-22)
(1.12007 -0.0680697 -4.01556e-22)
(1.11868 -0.0635178 -7.24999e-22)
(1.11733 -0.0589783 -9.67714e-22)
(1.11602 -0.0544454 1.18705e-21)
(1.11476 -0.0499139 3.27826e-22)
(1.11356 -0.0453775 2.06713e-22)
(1.11242 -0.0408291 1.83493e-21)
(1.11136 -0.0362599 1.04426e-21)
(1.11037 -0.0316598 1.11962e-21)
(1.10949 -0.0270179 1.32388e-21)
(1.1087 -0.0223176 -1.37293e-21)
(1.10804 -0.0175523 5.25224e-22)
(1.10752 -0.0126784 6.59997e-22)
(1.10714 -0.00773026 1.53498e-23)
(1.10693 -0.00257628 -1.76062e-23)
(1.17436 -0.18678 -6.7397e-21)
(1.17133 -0.182042 3.64393e-21)
(1.16809 -0.177124 1.05627e-20)
(1.16492 -0.172205 7.53789e-21)
(1.16196 -0.167295 -1.56366e-20)
(1.15925 -0.162399 -6.34779e-21)
(1.15676 -0.157523 1.08688e-20)
(1.15442 -0.152665 2.6863e-21)
(1.15219 -0.14782 -2.82888e-22)
(1.15005 -0.142986 -7.82784e-21)
(1.14797 -0.138161 2.84446e-21)
(1.14596 -0.133347 -1.07068e-20)
(1.14399 -0.128545 1.08697e-20)
(1.14207 -0.123758 6.20056e-21)
(1.14019 -0.118987 -9.35795e-22)
(1.13835 -0.114235 -3.20689e-21)
(1.13655 -0.109502 -6.07953e-21)
(1.13478 -0.104791 9.39043e-21)
(1.13305 -0.100102 -3.39151e-21)
(1.13135 -0.0954345 2.86708e-21)
(1.12968 -0.0907912 -5.34984e-21)
(1.12804 -0.0861675 1.73362e-21)
(1.12644 -0.0815687 4.63369e-22)
(1.12486 -0.0769888 -2.16577e-21)
(1.12332 -0.0724234 7.75289e-22)
(1.12182 -0.0678791 1.77998e-21)
(1.12035 -0.0633453 -1.6681e-21)
(1.11893 -0.0588226 3.57554e-21)
(1.11756 -0.0543053 -1.14744e-21)
(1.11624 -0.0497885 -1.10785e-21)
(1.11499 -0.0452661 -1.00324e-21)
(1.1138 -0.0407309 7.61453e-23)
(1.11269 -0.0361744 -2.45183e-21)
(1.11166 -0.0315865 -1.20285e-22)
(1.11074 -0.0269566 -4.23977e-22)
(1.10992 -0.0222678 5.03888e-22)
(1.10923 -0.0175141 1.73915e-22)
(1.10868 -0.0126517 -1.23442e-21)
(1.10829 -0.00771404 7.81599e-23)
(1.10806 -0.00257591 -5.49325e-22)
(1.17906 -0.184827 -2.4062e-20)
(1.17597 -0.180261 1.22665e-20)
(1.17264 -0.17549 2.45078e-20)
(1.16933 -0.170723 -3.3968e-20)
(1.1662 -0.165949 1.1249e-21)
(1.1633 -0.161167 2.06681e-20)
(1.16062 -0.156393 7.45129e-21)
(1.15812 -0.15163 -2.72066e-20)
(1.15574 -0.146874 1.44218e-20)
(1.15346 -0.142122 8.1304e-21)
(1.15125 -0.137374 -7.83568e-21)
(1.1491 -0.132629 -4.38455e-21)
(1.14701 -0.127892 -1.31426e-21)
(1.14496 -0.123163 -5.87243e-21)
(1.14297 -0.118445 9.87417e-21)
(1.14102 -0.113742 4.32649e-21)
(1.1391 -0.109053 -6.141e-21)
(1.13723 -0.104382 -3.72462e-21)
(1.1354 -0.0997297 5.4393e-21)
(1.1336 -0.095096 -7.63593e-21)
(1.13183 -0.0904829 4.77137e-21)
(1.1301 -0.0858872 2.60027e-21)
(1.12841 -0.0813133 7.62969e-22)
(1.12675 -0.0767566 -9.45785e-22)
(1.12513 -0.0722132 -2.33798e-21)
(1.12356 -0.0676883 5.45755e-23)
(1.12202 -0.0631729 -2.31913e-21)
(1.12053 -0.0586671 -1.01972e-21)
(1.1191 -0.0541656 5.80574e-22)
(1.11772 -0.0496637 4.68838e-21)
(1.11641 -0.0451553 -3.21934e-21)
(1.11517 -0.0406333 -3.43485e-21)
(1.11401 -0.0360895 3.47355e-21)
(1.11295 -0.0315138 -1.99355e-21)
(1.11198 -0.0268957 7.12289e-22)
(1.11113 -0.0222185 -7.55869e-22)
(1.11041 -0.0174762 1.86816e-21)
(1.10984 -0.0126252 3.42843e-21)
(1.10943 -0.00769787 2.08372e-21)
(1.10919 -0.00257569 7.03149e-22)
(1.18366 -0.182834 -9.78521e-21)
(1.18051 -0.178441 3.98306e-20)
(1.17711 -0.173817 -6.86862e-21)
(1.17368 -0.169209 -2.7777e-20)
(1.17039 -0.164576 2.19818e-20)
(1.16731 -0.159913 -7.12813e-21)
(1.16445 -0.155243 -4.21578e-21)
(1.16179 -0.150577 -9.99984e-21)
(1.15926 -0.145911 1.77041e-21)
(1.15684 -0.141244 1.20224e-20)
(1.1545 -0.136573 -9.25397e-21)
(1.15222 -0.131901 3.0263e-21)
(1.15001 -0.127229 8.73265e-21)
(1.14784 -0.12256 -5.69773e-21)
(1.14573 -0.117897 1.09129e-20)
(1.14367 -0.113243 -8.41025e-21)
(1.14165 -0.1086 7.87837e-21)
(1.13967 -0.10397 1.10473e-21)
(1.13773 -0.0993547 -1.54823e-21)
(1.13584 -0.094755 -9.78377e-21)
(1.13398 -0.0901728 8.35067e-21)
(1.13216 -0.0856056 -5.0282e-21)
(1.13038 -0.0810571 6.62653e-22)
(1.12864 -0.076524 6.08384e-21)
(1.12694 -0.0720026 -6.92184e-21)
(1.12529 -0.0674975 5.73553e-21)
(1.12368 -0.0630006 2.84736e-21)
(1.12213 -0.0585119 2.30846e-21)
(1.12063 -0.0540263 -7.57402e-22)
(1.1192 -0.0495393 -1.29999e-21)
(1.11783 -0.0450449 -2.23768e-22)
(1.11654 -0.0405362 8.23553e-22)
(1.11533 -0.0360051 -1.58586e-21)
(1.11422 -0.0314415 2.87324e-21)
(1.11322 -0.0268354 -1.81522e-21)
(1.11234 -0.0221695 -4.01887e-23)
(1.11159 -0.0174386 -5.1399e-21)
(1.111 -0.0125991 -3.38663e-21)
(1.11057 -0.00768171 5.76729e-22)
(1.11032 -0.00257558 -1.34553e-21)
(1.18814 -0.180807 6.377e-20)
(1.18494 -0.176585 -3.1209e-20)
(1.18149 -0.17211 -1.49788e-20)
(1.17797 -0.167662 3.65892e-20)
(1.17453 -0.163177 -1.02095e-20)
(1.17128 -0.158638 -6.30426e-22)
(1.16825 -0.154076 1.6782e-20)
(1.16542 -0.149507 -1.31576e-20)
(1.16275 -0.144934 2.16042e-20)
(1.16019 -0.140352 1.41085e-21)
(1.15772 -0.135761 -2.44764e-20)
(1.15532 -0.131161 1.0857e-20)
(1.15298 -0.126556 -1.52099e-20)
(1.15071 -0.121949 5.7599e-21)
(1.14848 -0.117342 -5.15127e-21)
(1.14631 -0.112739 6.07731e-21)
(1.14418 -0.108142 -1.21733e-20)
(1.1421 -0.103554 4.11417e-21)
(1.14006 -0.0989768 7.04791e-21)
(1.13807 -0.0944118 -3.9986e-21)
(1.13612 -0.0898611 -1.73429e-21)
(1.13421 -0.0853227 2.23485e-21)
(1.13234 -0.0808001 4.46979e-21)
(1.13052 -0.0762909 4.9589e-22)
(1.12874 -0.0717919 -4.5385e-21)
(1.12702 -0.0673068 -1.91377e-23)
(1.12534 -0.0628286 1.39242e-21)
(1.12372 -0.058357 -4.36312e-21)
(1.12216 -0.0538874 -1.48827e-21)
(1.12066 -0.0494153 5.2519e-22)
(1.11924 -0.044935 -1.95597e-22)
(1.1179 -0.0404396 -4.98688e-21)
(1.11665 -0.0359211 -2.06294e-21)
(1.1155 -0.0313697 -1.27558e-21)
(1.11446 -0.0267754 -1.9196e-22)
(1.11354 -0.0221209 2.51524e-21)
(1.11277 -0.0174013 3.06317e-21)
(1.11215 -0.0125732 3.43615e-21)
(1.11171 -0.00766554 -4.42955e-21)
(1.11144 -0.00257553 -4.57009e-22)
(1.19252 -0.178751 1.34242e-20)
(1.18928 -0.1747 -2.39531e-20)
(1.18578 -0.170371 5.64515e-20)
(1.18218 -0.166087 -6.6364e-21)
(1.17863 -0.161754 -6.78993e-20)
(1.17522 -0.157344 2.39259e-20)
(1.17203 -0.152892 3.22643e-20)
(1.16903 -0.148423 1.07229e-20)
(1.16621 -0.143943 -3.98901e-20)
(1.16352 -0.139448 3.89958e-20)
(1.16092 -0.134937 -2.66157e-20)
(1.1584 -0.130412 4.09615e-21)
(1.15594 -0.125875 6.28304e-21)
(1.15355 -0.12133 -2.48725e-21)
(1.15121 -0.11678 -7.34312e-21)
(1.14893 -0.112229 1.69037e-20)
(1.1467 -0.107679 -1.46946e-20)
(1.14451 -0.103134 3.50011e-21)
(1.14238 -0.0985963 -7.92771e-22)
(1.14029 -0.0940665 2.53606e-21)
(1.13825 -0.0895478 2.15013e-21)
(1.13625 -0.0850388 -4.18802e-21)
(1.1343 -0.0805426 7.04805e-21)
(1.13239 -0.0760576 -5.07521e-21)
(1.13054 -0.071581 -2.79392e-21)
(1.12874 -0.0671161 3.38563e-21)
(1.12699 -0.0626567 -5.88334e-22)
(1.12531 -0.0582025 -6.54546e-22)
(1.12368 -0.0537489 1.2234e-21)
(1.12213 -0.0492918 -4.71675e-21)
(1.12065 -0.0448255 3.28675e-21)
(1.11926 -0.0403434 2.55341e-21)
(1.11796 -0.0358376 -2.06209e-22)
(1.11676 -0.0312984 1.0087e-21)
(1.11569 -0.0267157 -3.40157e-21)
(1.11474 -0.0220726 6.93776e-22)
(1.11393 -0.0173642 -9.41764e-22)
(1.11329 -0.0125475 1.49241e-21)
(1.11283 -0.00764933 3.5172e-21)
(1.11255 -0.00257547 1.4145e-21)
(1.19679 -0.176671 4.58144e-20)
(1.19351 -0.172789 -4.5034e-20)
(1.18997 -0.168605 -2.01101e-20)
(1.18632 -0.164485 3.87824e-20)
(1.18267 -0.160309 6.83805e-21)
(1.17913 -0.156032 -1.66036e-20)
(1.17577 -0.151694 1.04847e-20)
(1.17262 -0.147327 -6.504e-21)
(1.16965 -0.14294 -3.60836e-20)
(1.16682 -0.138532 4.24775e-20)
(1.16409 -0.134103 -3.27363e-20)
(1.16145 -0.129654 2.52454e-20)
(1.15888 -0.125187 -1.23198e-20)
(1.15638 -0.120705 -1.14277e-20)
(1.15393 -0.116213 7.95591e-22)
(1.15154 -0.111715 3.06937e-20)
(1.14921 -0.107213 -1.70733e-20)
(1.14692 -0.102712 2.06376e-20)
(1.14469 -0.0982134 -2.45122e-20)
(1.1425 -0.0937195 9.66838e-21)
(1.14037 -0.0892333 4.98158e-22)
(1.13828 -0.084754 -4.44359e-21)
(1.13625 -0.0802845 3.52499e-21)
(1.13426 -0.075824 2.78622e-21)
(1.13233 -0.0713701 -4.99079e-22)
(1.13046 -0.0669255 1.76744e-21)
(1.12864 -0.0624851 -1.87267e-22)
(1.12689 -0.0580482 2.52065e-21)
(1.1252 -0.0536108 1.0371e-21)
(1.12358 -0.0491687 -2.50176e-21)
(1.12205 -0.0447165 -3.24685e-21)
(1.12061 -0.0402477 2.4165e-21)
(1.11926 -0.0357545 5.23484e-21)
(1.11802 -0.0312273 -3.98344e-22)
(1.11691 -0.0266564 1.17008e-21)
(1.11593 -0.0220245 4.23e-22)
(1.1151 -0.0173273 2.43138e-22)
(1.11443 -0.0125219 -3.28569e-21)
(1.11395 -0.00763307 -3.70655e-21)
(1.11366 -0.00257536 -1.0821e-21)
(1.20097 -0.174573 7.59973e-20)
(1.19765 -0.170856 2.32515e-20)
(1.19407 -0.166815 -4.99592e-20)
(1.19039 -0.162859 -1.26995e-21)
(1.18666 -0.158843 -3.6452e-21)
(1.183 -0.154704 4.74449e-20)
(1.17949 -0.150482 -2.57672e-20)
(1.17618 -0.146218 -1.3209e-20)
(1.17306 -0.141926 -2.32203e-21)
(1.1701 -0.137607 -5.69777e-22)
(1.16725 -0.133261 2.69718e-20)
(1.16449 -0.128888 -3.93675e-20)
(1.16181 -0.124491 1.82453e-20)
(1.15919 -0.120074 -2.00683e-20)
(1.15664 -0.115641 3.26629e-21)
(1.15414 -0.111197 -6.65949e-21)
(1.1517 -0.106744 2.1263e-20)
(1.14932 -0.102287 -1.0383e-21)
(1.14699 -0.0978283 -5.95672e-22)
(1.14471 -0.0933709 -1.32444e-20)
(1.14248 -0.0889177 4.46302e-21)
(1.14031 -0.0844685 9.57736e-21)
(1.13819 -0.080026 -1.46863e-20)
(1.13613 -0.0755903 5.64041e-21)
(1.13412 -0.0711591 -3.07767e-21)
(1.13217 -0.0667351 -5.1195e-22)
(1.13028 -0.0623137 5.73706e-21)
(1.12846 -0.0578943 -4.68349e-21)
(1.12671 -0.053473 6.69154e-21)
(1.12504 -0.0490459 3.74991e-21)
(1.12345 -0.0446078 3.07352e-21)
(1.12195 -0.0401523 7.24347e-22)
(1.12056 -0.0356718 -6.73994e-21)
(1.11928 -0.0311566 1.43333e-21)
(1.11812 -0.0265973 -2.50633e-21)
(1.11711 -0.0219766 -4.60231e-21)
(1.11625 -0.0172905 9.70063e-23)
(1.11556 -0.0124965 1.2629e-21)
(1.11507 -0.00761673 -2.20252e-21)
(1.11476 -0.00257513 8.88747e-22)
(1.20506 -0.17246 -4.03696e-20)
(1.20169 -0.168906 -5.96258e-21)
(1.19808 -0.165004 5.57184e-20)
(1.19437 -0.16121 1.55218e-20)
(1.19059 -0.157357 -5.08078e-20)
(1.18683 -0.153359 -1.455e-20)
(1.18318 -0.149258 3.68188e-20)
(1.17972 -0.1451 -1.60945e-20)
(1.17646 -0.140904 2.31152e-20)
(1.17336 -0.136673 -3.97317e-20)
(1.17038 -0.13241 4.18863e-20)
(1.16751 -0.128114 -1.3003e-20)
(1.16471 -0.123789 -5.39405e-21)
(1.16199 -0.119438 1.2449e-20)
(1.15933 -0.115065 -2.61283e-20)
(1.15673 -0.110674 1.75754e-20)
(1.15419 -0.106271 -1.14203e-20)
(1.15171 -0.101859 2.52072e-20)
(1.14928 -0.0974413 -2.41877e-20)
(1.14691 -0.0930209 2.56681e-23)
(1.14459 -0.088601 1.66022e-20)
(1.14233 -0.0841822 -1.53038e-20)
(1.14013 -0.0797672 2.665e-21)
(1.13798 -0.0753564 6.78023e-21)
(1.1359 -0.0709482 5.71672e-22)
(1.13387 -0.0665449 -1.03304e-21)
(1.13191 -0.0621425 -6.73348e-21)
(1.13003 -0.0577407 7.45624e-21)
(1.12821 -0.0533356 8.9305e-22)
(1.12648 -0.0489235 -1.18733e-21)
(1.12484 -0.0444995 -2.53426e-21)
(1.12329 -0.0400572 2.24771e-21)
(1.12185 -0.0355893 2.48887e-21)
(1.12053 -0.031086 1.97282e-21)
(1.11933 -0.0265384 1.5005e-21)
(1.11829 -0.0219289 -2.00086e-21)
(1.1174 -0.0172537 -1.64629e-21)
(1.11669 -0.0124711 -1.19265e-21)
(1.11618 -0.00760027 -1.93257e-21)
(1.11586 -0.00257474 7.21317e-22)
(1.20905 -0.170339 8.36776e-20)
(1.20564 -0.166944 -6.85564e-20)
(1.202 -0.163177 9.50244e-20)
(1.19828 -0.159543 -5.8842e-20)
(1.19447 -0.155852 -3.31043e-21)
(1.19062 -0.152 -2.41511e-20)
(1.18685 -0.148022 7.44855e-20)
(1.18325 -0.143972 -3.4108e-21)
(1.17984 -0.139873 -1.19533e-20)
(1.1766 -0.135732 -2.20963e-20)
(1.1735 -0.131552 2.27401e-21)
(1.17051 -0.127334 2.84608e-20)
(1.1676 -0.123081 -2.71859e-20)
(1.16477 -0.118796 1.44387e-20)
(1.162 -0.114483 -8.97391e-21)
(1.1593 -0.110149 1.5154e-20)
(1.15666 -0.105796 -3.33255e-20)
(1.15408 -0.101429 1.25848e-20)
(1.15156 -0.0970527 2.00248e-21)
(1.1491 -0.0926697 7.33911e-21)
(1.14669 -0.0882836 1.65833e-21)
(1.14434 -0.0838955 -8.37585e-21)
(1.14206 -0.0795081 1.14938e-20)
(1.13983 -0.0751225 -7.76325e-21)
(1.13767 -0.0707373 1.01793e-20)
(1.13557 -0.0663548 -6.86732e-21)
(1.13354 -0.0619716 -5.34341e-21)
(1.13159 -0.0575873 -1.87776e-21)
(1.12971 -0.0531984 1.12632e-20)
(1.12792 -0.0488014 -4.2064e-21)
(1.12622 -0.0443914 -1.14877e-22)
(1.12462 -0.0399624 -7.24979e-21)
(1.12313 -0.0355069 2.36881e-21)
(1.12177 -0.0310157 2.70806e-21)
(1.12053 -0.0264796 -2.52638e-21)
(1.11945 -0.0218813 1.24649e-21)
(1.11854 -0.0172169 6.77841e-21)
(1.1178 -0.0124458 1.88482e-21)
(1.11728 -0.00758368 1.01537e-20)
(1.11695 -0.00257413 2.96975e-21)
(1.21297 -0.168211 -1.06708e-19)
(1.2095 -0.164972 8.79881e-20)
(1.20582 -0.161337 -2.46318e-20)
(1.2021 -0.157858 -1.88821e-20)
(1.19827 -0.154331 3.87226e-20)
(1.19436 -0.150625 -2.27531e-20)
(1.19049 -0.146775 -9.61957e-21)
(1.18675 -0.142836 -9.27785e-21)
(1.1832 -0.138835 3.63022e-20)
(1.17982 -0.134784 -1.39451e-20)
(1.17659 -0.130688 3.12377e-23)
(1.17349 -0.126548 2.39736e-20)
(1.17047 -0.122367 -3.82699e-20)
(1.16753 -0.118149 2.80741e-20)
(1.16467 -0.113898 -5.02445e-21)
(1.16186 -0.10962 3.05113e-21)
(1.15913 -0.105318 -2.36254e-20)
(1.15645 -0.100997 1.51366e-20)
(1.15383 -0.0966626 -1.53359e-20)
(1.15128 -0.0923174 -1.14601e-20)
(1.14878 -0.0879654 -3.08829e-21)
(1.14635 -0.0836083 2.97625e-21)
(1.14398 -0.0792489 5.9341e-21)
(1.14167 -0.0748886 -3.84855e-21)
(1.13943 -0.0705265 -6.7351e-21)
(1.13726 -0.0661649 7.09081e-21)
(1.13516 -0.0618009 4.01128e-21)
(1.13314 -0.0574342 -4.32517e-21)
(1.1312 -0.0530615 7.5658e-22)
(1.12935 -0.0486795 -1.78218e-21)
(1.12759 -0.0442836 7.54407e-21)
(1.12594 -0.0398677 -7.90922e-21)
(1.12441 -0.0354247 1.7429e-21)
(1.123 -0.0309454 -7.86187e-22)
(1.12173 -0.0264209 1.37722e-21)
(1.12061 -0.0218336 3.41523e-21)
(1.11967 -0.0171801 -2.83988e-21)
(1.11891 -0.0124204 -2.87391e-22)
(1.11837 -0.00756691 -6.07945e-21)
(1.11803 -0.00257324 -3.22826e-21)
(1.2168 -0.166082 -7.24539e-20)
(1.21328 -0.162995 -6.69918e-20)
(1.20956 -0.159487 1.04484e-19)
(1.20583 -0.156161 -6.86397e-20)
(1.202 -0.152794 -3.14551e-20)
(1.19806 -0.149237 1.05879e-19)
(1.1941 -0.145517 -3.12248e-20)
(1.19023 -0.141691 -4.65844e-20)
(1.18654 -0.137791 2.42667e-20)