/*--------------------------------*- C++ -*----------------------------------*\
  =========                 |
  \\      /  F ield         | OpenFOAM: The Open Source CFD Toolbox
   \\    /   O peration     | Website:  https://openfoam.org
    \\  /    A nd           | Version:  7
     \\/     M anipulation  |
\*---------------------------------------------------------------------------*/
FoamFile
{
    version     2.0;
    format      ascii;
    class       volVectorField;
    location    "125";
    object      U;
}
// * * * * * * * * * * * * * * * * * * * * * * * * * * * * * * * * * * * * * //

dimensions      [0 1 -1 0 0 0 0];

internalField   nonuniform List<vector> 
1987
(
(0.0167069 -0.678134 -3.76136e-21)
(0.0286521 -0.673389 2.99041e-21)
(0.0483494 -0.649554 -2.80897e-22)
(0.0787945 -0.603374 -2.05291e-21)
(1.34556 0.0623042 0)
(1.35041 0.0912067 0)
(1.35093 0.121844 0)
(1.34655 0.153245 0)
(1.33705 0.184352 0)
(1.32257 0.214139 0)
(1.30357 0.241696 0)
(1.28067 0.266291 0)
(1.2546 0.287395 0)
(1.22611 0.304683 0)
(1.19592 0.318025 0)
(1.16467 0.327461 0)
(1.13295 0.333161 0)
(1.10122 0.335387 0)
(1.06983 0.334449 0)
(1.03904 0.33067 0)
(1.00897 0.324347 0)
(0.979688 0.31574 0)
(0.95117 0.305045 0)
(0.923363 0.29237 0)
(0.896179 0.277752 0)
(0.869511 0.261183 0)
(0.843338 0.242538 0)
(0.817696 0.221581 0)
(0.79219 0.198383 0)
(0.765691 0.173639 0)
(0.73738 0.147894 0)
(0.708657 0.120077 0)
(0.683704 0.0872458 0)
(0.667911 0.0465545 0)
(0.664997 -0.00328889 0)
(0.674901 -0.0594364 0)
(0.695313 -0.117101 0)
(0.723361 -0.171839 0)
(0.755882 -0.220528 0)
(0.79017 -0.262104 0)
(0.824102 -0.297745 0)
(0.856376 -0.330391 0)
(0.886847 -0.363218 0)
(0.916612 -0.397177 0)
(0.947646 -0.428661 0)
(0.982086 -0.44935 0)
(1.0202 -0.449739 0)
(1.05836 -0.422811 0)
(1.09315 -0.362766 0)
(1.12532 -0.265326 0)
(1.15335 -0.135809 0)
(1.17223 0.00807165 0)
(1.17932 0.143209 0)
(1.17327 0.24871 0)
(1.15438 0.31701 0)
(1.12615 0.351522 0)
(1.09303 0.3613 0)
(1.05858 0.356021 0)
(1.02459 0.343215 0)
(0.991867 0.327052 0)
(1.34112 0.0666261 0)
(1.34394 0.0936228 0)
(1.3429 0.122086 0)
(1.33757 0.151158 0)
(1.32776 0.179916 0)
(1.31356 0.207458 0)
(1.29528 0.232967 0)
(1.27342 0.255773 0)
(1.24858 0.275379 0)
(1.22141 0.291476 0)
(1.19257 0.303934 0)
(1.16269 0.312775 0)
(1.1323 0.318142 0)
(1.10184 0.320257 0)
(1.07167 0.319384 0)
(1.042 0.315799 0)
(1.013 0.309753 0)
(0.984712 0.301466 0)
(0.957154 0.291105 0)
(0.930292 0.278758 0)
(0.904079 0.264445 0)
(0.878436 0.248164 0)
(0.853323 0.229833 0)
(0.828834 0.209187 0)
(0.804887 0.186071 0)
(0.780665 0.160977 0)
(0.754995 0.134788 0)
(0.728103 0.107411 0)
(0.70306 0.0768049 0)
(0.684838 0.0398163 0)
(0.677839 -0.00479006 0)
(0.683814 -0.0552221 0)
(0.70136 -0.108598 0)
(0.727387 -0.16052 0)
(0.758602 -0.20771 0)
(0.792085 -0.248844 0)
(0.825588 -0.284761 0)
(0.857802 -0.317968 0)
(0.888619 -0.351164 0)
(0.919174 -0.384905 0)
(0.951571 -0.415424 0)
(0.987928 -0.434864 0)
(1.02775 -0.434892 0)
(1.06711 -0.409037 0)
(1.10361 -0.350687 0)
(1.13708 -0.254875 0)
(1.16537 -0.125952 0)
(1.18517 0.0165146 0)
(1.19283 0.146903 0)
(1.18594 0.247575 0)
(1.16552 0.311315 0)
(1.13559 0.34249 0)
(1.10103 0.350535 0)
(1.06557 0.344774 0)
(1.031 0.332164 0)
(0.99794 0.316517 0)
(1.3331 0.0692246 0)
(1.33443 0.0943121 0)
(1.33228 0.120582 0)
(1.3263 0.1473 0)
(1.31635 0.173684 0)
(1.30249 0.198962 0)
(1.28497 0.222437 0)
(1.2642 0.243521 0)
(1.24068 0.261772 0)
(1.21499 0.276898 0)
(1.18771 0.288751 0)
(1.15938 0.297317 0)
(1.13049 0.30268 0)
(1.10145 0.304999 0)
(1.07259 0.304479 0)
(1.04412 0.301337 0)
(1.01621 0.29578 0)
(0.988933 0.287989 0)
(0.962329 0.278107 0)
(0.936391 0.266214 0)
(0.911113 0.252318 0)
(0.88646 0.236414 0)
(0.862388 0.218457 0)
(0.838986 0.198208 0)
(0.816386 0.175353 0)
(0.794198 0.1501 0)
(0.771317 0.123405 0)
(0.747114 0.0959531 0)
(0.723205 0.0667961 0)
(0.703665 0.0335375 0)
(0.69332 -0.00604321 0)
(0.695161 -0.0517955 0)
(0.708944 -0.10099 0)
(0.732154 -0.149954 0)
(0.761505 -0.195518 0)
(0.793864 -0.236155 0)
(0.82679 -0.272358 0)
(0.858878 -0.306171 0)
(0.88999 -0.339771 0)
(0.92131 -0.373228 0)
(0.955102 -0.402592 0)
(0.993229 -0.420619 0)
(1.03441 -0.420109 0)
(1.07496 -0.394737 0)
(1.113 -0.337123 0)
(1.14776 -0.242215 0)
(1.17748 -0.116099 0)
(1.19864 0.0219573 0)
(1.2064 0.147672 0)
(1.19826 0.242989 0)
(1.17599 0.302531 0)
(1.14433 0.331364 0)
(1.10843 0.338681 0)
(1.07206 0.333142 0)
(1.03698 0.321114 0)
(1.00364 0.306159 0)
(1.32284 0.0705065 0)
(1.32308 0.0936847 0)
(1.32018 0.117858 0)
(1.31385 0.142401 0)
(1.30398 0.166645 0)
(1.29062 0.189926 0)
(1.27396 0.21163 0)
(1.25436 0.231232 0)
(1.23223 0.24832 0)
(1.20808 0.262606 0)
(1.18239 0.273927 0)
(1.15565 0.282232 0)
(1.12831 0.287565 0)
(1.10072 0.290039 0)
(1.0732 0.28981 0)
(1.04596 0.287052 0)
(1.01918 0.281937 0)
(0.992944 0.274615 0)
(0.96732 0.265208 0)
(0.942325 0.253786 0)
(0.917981 0.240353 0)
(0.894299 0.224893 0)
(0.871256 0.20738 0)
(0.848913 0.187629 0)
(0.827497 0.165269 0)
(0.80701 0.140239 0)
(0.786679 0.113326 0)
(0.765454 0.0856608 0)
(0.743658 0.0573207 0)
(0.724124 0.0266669 0)
(0.711356 -0.00864109 0)
(0.709129 -0.0493497 0)
(0.718564 -0.0939422 0)
(0.73815 -0.139518 0)
(0.764924 -0.18312 0)
(0.795667 -0.223046 0)
(0.827738 -0.259389 0)
(0.859556 -0.29368 0)
(0.890893 -0.327527 0)
(0.923004 -0.360481 0)
(0.958204 -0.38852 0)
(0.997838 -0.405204 0)
(1.04009 -0.404299 0)
(1.08178 -0.379434 0)
(1.12128 -0.322825 0)
(1.15779 -0.229816 0)
(1.18949 -0.106893 0)
(1.21185 0.0269134 0)
(1.2193 0.147251 0)
(1.20962 0.237241 0)
(1.18547 0.292806 0)
(1.15223 0.319466 0)
(1.1152 0.326164 0)
(1.07812 0.32095 0)
(1.04267 0.309606 0)
(1.00918 0.295414 0)
(0.859825 -0.28047 0)
(0.891303 -0.314281 0)
(0.924256 -0.346442 0)
(0.960815 -0.373015 0)
(1.00168 -0.38846 0)
(1.04482 -0.387319 0)
(1.08758 -0.363135 0)
(1.1286 -0.307827 0)
(1.1672 -0.216731 0)
(1.20107 -0.0966727 0)
(1.22445 0.0323594 0)
(1.23122 0.146605 0)
(1.21979 0.230803 0)
(1.1938 0.282194 0)
(1.15916 0.306699 0)
(1.12124 0.312897 0)
(1.08366 0.30815 0)
(1.04803 0.29761 0)
(1.01455 0.284255 0)
(-0.00495091 -0.669982 3.766e-21)
(0.0178733 -0.661953 -3.00987e-21)
(0.049469 -0.633377 2.83363e-22)
(0.0914888 -0.582057 2.15405e-21)
(0.143266 -0.508181 -3.70509e-21)
(0.202233 -0.414526 3.22973e-21)
(0.265058 -0.305345 -1.28736e-22)
(0.32862 -0.185291 -1.07781e-21)
(0.390611 -0.0585941 2.52259e-21)
(0.449681 0.07087 -3.58694e-21)
(0.505321 0.198814 8.61404e-22)
(0.557255 0.319524 5.70374e-22)
(0.604727 0.425998 1.25693e-21)
(0.646321 0.511629 5.20858e-22)
(0.680484 0.57252 -3.39086e-21)
(0.706232 0.608784 -3.49008e-22)
(0.723522 0.624132 1.46686e-21)
(0.733149 0.624302 -5.32043e-22)
(0.736365 0.615288 5.61758e-22)
(0.734528 0.602058 3.38268e-22)
(0.728781 0.588218 -1.21826e-22)
(0.719604 0.576702 -1.18408e-21)
(0.706508 0.570328 -1.33064e-22)
(0.688601 0.570614 9.82368e-22)
(0.666075 0.574873 7.54075e-22)
(0.641557 0.574121 4.68935e-22)
(0.619971 0.554677 -1.00806e-21)
(0.606591 0.50371 5.0967e-22)
(0.604669 0.415283 7.86733e-22)
(0.614618 0.292665 -1.92334e-21)
(0.634947 0.146343 -1.18033e-21)
(0.663405 -0.00931813 2.58506e-21)
(0.697306 -0.15892 -6.13991e-22)
(0.733479 -0.288522 -1.92682e-21)
(0.76845 -0.388849 9.65058e-22)
(0.799124 -0.457189 -2.77115e-22)
(0.823551 -0.496894 7.60461e-22)
(0.841122 -0.514949 -2.67709e-22)
(0.852215 -0.519169 4.3461e-22)
(0.857754 -0.516072 -4.01183e-22)
(0.858857 -0.510088 8.19973e-23)
(0.856366 -0.504361 -4.9222e-23)
(0.850263 -0.502077 2.57153e-22)
(0.839654 -0.506023 -1.06593e-22)
(0.823733 -0.51554 1.83404e-22)
(0.803111 -0.523439 1.42839e-22)
(0.780252 -0.516691 -4.24246e-22)
(0.758515 -0.481666 5.5289e-22)
(0.740851 -0.410335 -1.09068e-22)
(0.729359 -0.303362 4.69051e-23)
(0.72549 -0.169468 -2.26356e-22)
(0.730028 -0.0230035 9.17609e-23)
(0.742632 0.119272 -3.84122e-22)
(0.76162 0.242306 -1.56365e-22)
(0.784104 0.336523 4.42909e-22)
(0.806596 0.399832 2.96401e-22)
(0.826147 0.4363 -1.89107e-22)
(0.841135 0.45296 7.69415e-23)
(0.850999 0.45753 -1.94812e-22)
(0.855243 0.457694 2.89962e-22)
(-0.0158089 -0.656676 7.42035e-21)
(0.0178407 -0.645099 -2.85446e-21)
(0.060584 -0.612143 -3.6905e-21)
(0.112847 -0.556608 -2.51906e-21)
(0.17307 -0.479554 1.12347e-20)
(0.238361 -0.384212 -3.64094e-21)
(0.305493 -0.274829 -9.94594e-22)
(0.371593 -0.15574 1.27389e-22)
(0.434628 -0.0307352 -3.15256e-21)
(0.493588 0.096793 3.26539e-22)
(0.548278 0.22278 1.24811e-21)
(0.598564 0.341436 5.83491e-21)
(0.643646 0.445452 -5.12375e-21)
(0.682047 0.528001 -2.96716e-21)
(0.712304 0.585273 4.1502e-21)
(0.733705 0.617737 -2.03385e-21)
(0.746568 0.629514 1.29881e-21)
(0.752015 0.626628 -2.7861e-21)
(0.751504 0.615177 2.15463e-21)
(0.746445 0.600079 -7.4305e-22)
(0.737957 0.584739 -1.79947e-22)
(0.726517 0.571737 2.55904e-22)
(0.711626 0.563599 -1.18357e-21)
(0.692213 0.561976 -1.30259e-22)
(0.66804 0.564908 2.09019e-21)
(0.641228 0.564383 -1.96784e-21)
(0.616466 0.547261 1.32499e-22)
(0.599277 0.50037 1.4439e-21)
(0.593502 0.416766 4.1098e-22)
(0.600115 0.298727 -3.03819e-21)
(0.617951 0.156165 4.07081e-21)
(0.644894 0.00321529 -2.38626e-21)
(0.678243 -0.144909 5.02176e-22)
(0.714769 -0.274393 -7.43383e-22)
(0.750922 -0.375908 2.29975e-21)
(0.783446 -0.446398 -3.59118e-21)
(0.810152 -0.488698 7.5118e-22)
(0.830158 -0.509332 6.10958e-22)
(0.843632 -0.515821 -4.51639e-22)
(0.851396 -0.514558 1.32002e-22)
(0.854554 -0.510008 -1.91652e-22)
(0.853941 -0.505524 -1.34555e-22)
(0.849531 -0.504574 9.54991e-22)
(0.840475 -0.510067 8.19405e-22)
(0.82611 -0.521117 1.69857e-22)
(0.807199 -0.530083 -1.87391e-21)
(0.78622 -0.523579 1.90855e-21)
(0.766365 -0.487925 -2.85112e-21)
(0.750361 -0.415247 5.30203e-22)
(0.740137 -0.306381 -1.4162e-22)
(0.737038 -0.170212 9.28977e-22)
(0.741795 -0.0213307 -1.50277e-21)
(0.754071 0.123125 1.59208e-21)
(0.772263 0.247692 -1.38502e-21)
(0.793624 0.342498 8.83598e-22)
(0.81478 0.405442 3.03532e-23)
(0.832855 0.440876 -3.73412e-22)
(0.846285 0.456197 5.23724e-22)
(0.854602 0.459295 -1.925e-23)
(0.857418 0.457817 -1.33719e-22)
(-0.0155261 -0.638366 3.59664e-21)
(0.0283228 -0.623308 6.33399e-21)
(0.0809956 -0.586599 -7.42974e-21)
(0.141923 -0.527877 1.51921e-20)
(0.208976 -0.448839 -8.98881e-21)
(0.279153 -0.352946 1.01727e-20)
(0.349378 -0.244332 -1.13512e-20)
(0.417025 -0.126996 5.44439e-21)
(0.480351 -0.0042626 -7.64994e-21)
(0.538704 0.120923 1.56821e-20)
(0.592163 0.244715 -1.71812e-21)
(0.640635 0.36117 -1.68301e-20)
(0.683188 0.462627 4.44279e-21)
(0.718242 0.542053 -6.32774e-21)
(0.744437 0.595761 1.6078e-21)
(0.761372 0.624587 2.57801e-21)
(0.76975 0.633047 7.80869e-21)
(0.771023 0.627404 -5.22912e-21)
(0.766843 0.613805 1.01501e-21)
(0.758658 0.597083 3.45537e-22)
(0.747535 0.580445 1.38252e-22)
(0.733922 0.566135 4.06576e-22)
(0.717328 0.556356 -3.61808e-21)
(0.696554 0.552826 5.62421e-21)
(0.670967 0.554278 -1.97448e-21)
(0.642152 0.553756 -1.44483e-21)
(0.614464 0.538834 -2.4213e-21)
(0.593597 0.496136 8.99914e-22)
(0.583969 0.417713 -2.73984e-21)
(0.587159 0.304726 1.01581e-20)
(0.602363 0.166374 -9.50786e-21)
(0.627624 0.0164504 2.96802e-21)
(0.660249 -0.129941 -2.66227e-21)
(0.69695 -0.259188 1.8041e-21)
(0.734108 -0.361855 5.15858e-21)
(0.76832 -0.434521 1.41988e-21)
(0.797168 -0.479496 -2.42556e-21)
(0.819512 -0.502818 -8.88057e-22)
(0.835312 -0.511689 1.20503e-21)
(0.845285 -0.512356 -1.22633e-21)
(0.850507 -0.509313 -9.51851e-22)
(0.851799 -0.506122 4.24994e-22)
(0.849125 -0.506528 2.68419e-21)
(0.841698 -0.513549 -1.47048e-21)
(0.828997 -0.526103 2.05843e-21)
(0.811918 -0.536153 -2.54827e-21)
(0.792926 -0.530022 1.30829e-21)
(0.775038 -0.493985 2.77464e-21)
(0.760762 -0.420274 -5.46819e-21)
(0.751858 -0.309823 -1.16234e-21)
(0.749549 -0.171647 -1.47283e-21)
(0.754504 -0.0205476 5.86649e-21)
(0.766389 0.126073 -3.50551e-21)
(0.783693 0.252226 5.42853e-22)
(0.803821 0.347731 3.76234e-21)
(0.823537 0.410431 -3.26317e-21)
(0.840054 0.444933 -1.8786e-21)
(0.851869 0.458993 2.82126e-21)
(0.858603 0.460683 7.87329e-22)
(0.859982 0.457617 8.06538e-22)
(0.0486753 -0.597268 -3.10197e-21)
(0.109754 -0.557583 -4.81045e-21)
(0.177666 -0.496717 2.10257e-20)
(0.249965 -0.416793 -2.58044e-21)
(0.323655 -0.321341 3.12022e-21)
(0.395834 -0.214331 -4.01201e-20)
(0.464125 -0.0994063 5.18986e-20)
(0.527113 0.0205951 -2.24626e-21)
(0.584495 0.143142 -8.49299e-21)
(0.636554 0.264569 -4.93609e-21)
(0.683134 0.378704 2.53767e-21)
(0.723075 0.477509 5.4061e-21)
(0.75467 0.553775 2.05453e-21)
(0.77669 0.603984 -1.35267e-20)
(0.789083 0.629358 9.67872e-21)
(0.792961 0.634777 -1.12036e-20)
(0.790105 0.62669 5.39292e-21)
(0.782344 0.61124 2.76823e-21)
(0.77115 0.593142 -1.21441e-21)
(0.757511 0.575405 -8.82491e-21)
(0.741828 0.559962 4.48186e-21)
(0.723625 0.548683 -5.49416e-22)
(0.701627 0.543277 4.97285e-21)
(0.674856 0.543116 -1.38014e-21)
(0.644346 0.542346 1.24734e-21)
(0.614026 0.52943 2.75985e-21)
(0.589651 0.490961 -4.31037e-21)
(0.576192 0.418021 -1.75431e-21)
(0.575875 0.310537 1.30985e-21)
(0.588312 0.176841 -2.20634e-21)
(0.611703 0.0303277 -5.83883e-21)
(0.643401 -0.114103 7.40675e-21)
(0.680088 -0.242977 -7.22992e-21)
(0.718055 -0.346737 9.69263e-21)
(0.753774 -0.421586 -4.97416e-21)
(0.784613 -0.469295 5.61661e-23)
(0.809187 -0.495401 -4.59369e-22)
(0.827249 -0.506759 9.06832e-22)
(0.839407 -0.509446 2.19371e-21)
(0.846696 -0.50798 -4.80843e-21)
(0.849912 -0.506127 3.03599e-21)
(0.849014 -0.507898 -8.69471e-22)
(0.843286 -0.51642 1.45628e-21)
(0.832347 -0.530441 2.0261e-21)
(0.81721 -0.5416 -3.28917e-21)
(0.800303 -0.535981 3.6254e-21)
(0.784461 -0.49982 -8.80567e-22)
(0.771983 -0.425401 -4.14111e-21)
(0.764456 -0.313693 4.3728e-21)
(0.762976 -0.173782 -7.42544e-21)
(0.768104 -0.0206189 4.08635e-22)
(0.779541 0.128079 2.95526e-21)
(0.795886 0.255862 -7.68597e-23)
(0.814684 0.352184 4.66362e-21)
(0.832863 0.414776 -2.23397e-21)
(0.847744 0.44846 -1.09311e-21)
(0.85789 0.461345 1.72017e-21)
(0.863009 0.461704 -2.3221e-21)
(0.862942 0.457111 2.27023e-21)
(0.077947 -0.567788 -7.23673e-21)
(0.145756 -0.525966 -1.84882e-20)
(0.21898 -0.463948 -5.01258e-21)
(0.295013 -0.384105 -1.11747e-20)
(0.370935 -0.289945 4.82807e-20)
(0.444023 -0.185237 -2.53942e-20)
(0.512167 -0.0732461 8.68948e-21)
(0.574315 0.0436714 -2.1538e-21)
(0.630492 0.163394 -3.66317e-22)
(0.681087 0.282344 -2.4489e-20)
(0.725763 0.394053 5.50181e-20)
(0.763051 0.490106 -3.92367e-20)
(0.791106 0.563174 -2.59683e-21)
(0.808871 0.609963 2.51284e-20)
(0.816688 0.632088 -1.26525e-20)
(0.816096 0.634757 -9.37817e-21)
(0.809192 0.624552 8.70033e-21)
(0.797967 0.607555 -3.77761e-22)
(0.783897 0.588328 1.62676e-21)
(0.767878 0.569688 7.27319e-21)
(0.750237 0.553287 2.27586e-21)
(0.730517 0.540659 -6.27063e-21)
(0.70742 0.533442 -2.65826e-21)
(0.679688 0.531557 -5.28639e-21)
(0.647801 0.530277 7.14394e-21)
(0.615179 0.519106 1.55775e-21)
(0.587514 0.484812 4.50203e-21)
(0.570273 0.417586 5.08172e-21)
(0.566374 0.316025 -1.56914e-20)
(0.575886 0.187439 1.53969e-20)
(0.59722 0.04472 -1.11935e-20)
(0.627789 -0.0974989 -1.7766e-21)
(0.66424 -0.225838 -1.21055e-21)
(0.702803 -0.330608 8.76656e-21)
(0.739833 -0.407623 -3.58176e-21)
(0.772502 -0.458108 -2.22376e-21)
(0.799184 -0.487079 -2.30292e-21)
(0.819435 -0.501017 8.12721e-21)
(0.833745 -0.505809 -5.46589e-21)
(0.843096 -0.505986 4.73545e-21)
(0.848249 -0.505512 -4.69059e-21)
(0.849161 -0.508648 6.53573e-21)
(0.845193 -0.518631 -7.86016e-21)
(0.836106 -0.53408 4.12166e-21)
(0.823006 -0.546375 -4.03648e-21)
(0.80827 -0.541418 5.41764e-21)
(0.794551 -0.505401 2.6883e-21)
(0.78394 -0.430609 5.75865e-21)
(0.777852 -0.317987 -1.85042e-20)
(0.777227 -0.176615 6.07621e-21)
(0.782537 -0.0215468 4.26029e-21)
(0.793497 0.129105 -3.506e-21)
(0.808812 0.258561 2.93759e-21)
(0.826193 0.355824 -2.77055e-21)
(0.842748 0.418455 1.37886e-21)
(0.855923 0.451446 -9.14846e-23)
(0.864351 0.463254 -8.51188e-23)
(0.867826 0.462363 7.51817e-22)
(0.866303 0.456316 -4.19897e-22)
(0.114986 -0.53573 -8.55429e-21)
(0.187826 -0.4926 2.35943e-20)
(0.26476 -0.430321 -2.44182e-20)
(0.343124 -0.351391 4.25286e-21)
(0.420103 -0.259232 2.11076e-20)
(0.493167 -0.157387 -2.84618e-20)
(0.560508 -0.0486818 4.85019e-20)
(0.621455 0.0648993 -6.60003e-20)
(0.676312 0.181688 2.21716e-20)
(0.725464 0.298082 3.62027e-20)
(0.768268 0.407258 -2.90574e-20)
(0.80288 0.500447 1.50334e-20)
(0.827332 0.570275 -6.05784e-21)
(0.840795 0.613732 7.25842e-21)
(0.844041 0.632828 -1.02573e-20)
(0.839047 0.633054 -1.02023e-20)
(0.828215 0.621063 4.77078e-21)
(0.813668 0.602825 -3.26584e-21)
(0.79687 0.582715 2.54492e-21)
(0.778616 0.563361 9.58919e-23)
(0.759141 0.546171 -2.8863e-21)
(0.737999 0.53236 4.46116e-21)
(0.713917 0.523425 -6.18834e-21)
(0.685427 0.519743 6.18215e-21)
(0.652483 0.517686 -1.44196e-21)
(0.61792 0.507939 -2.1819e-21)
(0.58723 0.477669 7.01235e-21)
(0.566292 0.416306 -2.46771e-21)
(0.558741 0.321045 1.37205e-21)
(0.565182 0.198019 1.06079e-21)
(0.584253 0.0594502 6.79368e-21)
(0.613469 -0.080245 -9.55733e-21)
(0.649458 -0.207859 -3.55803e-21)
(0.688388 -0.313529 -2.78086e-21)
(0.72652 -0.39267 7.91558e-21)
(0.760842 -0.445952 -7.1596e-21)
(0.789503 -0.477853 1.97341e-21)
(0.811859 -0.494452 5.89026e-21)
(0.828281 -0.501429 -3.25559e-21)
(0.839681 -0.503312 -3.67068e-21)
(0.846775 -0.504251 1.23086e-21)
(0.849525 -0.508746 6.13925e-22)
(0.847372 -0.520142 5.62086e-21)
(0.840212 -0.536972 -1.83312e-21)
(0.829232 -0.550434 -3.47932e-21)
(0.816741 -0.546293 2.61887e-21)
(0.805214 -0.510695 -2.85383e-21)
(0.796538 -0.435873 3.84353e-21)
(0.79195 -0.322692 3.33664e-22)
(0.792217 -0.180162 -1.16967e-21)
(0.797727 -0.0234443 -4.10525e-22)
(0.808194 0.12911 -1.17301e-21)
(0.822428 0.260283 -5.93732e-22)
(0.838325 0.358617 -4.07176e-21)
(0.85318 0.421443 1.04376e-20)
(0.864583 0.453881 -6.04737e-21)
(0.871249 0.464718 5.01455e-21)
(0.873052 0.462666 -2.78226e-21)
(0.870066 0.455247 6.27904e-22)
(0.158528 -0.501945 4.92426e-21)
(0.234768 -0.458274 -6.49813e-21)
(0.313928 -0.396508 -3.19842e-20)
(0.393347 -0.319185 -3.2548e-21)
(0.470338 -0.229605 4.62063e-20)
(0.542565 -0.131042 -9.839e-21)
(0.608604 -0.0258816 -1.92041e-22)
(0.668144 0.084249 -3.3189e-20)
(0.721664 0.198075 1.29032e-21)
(0.769453 0.311857 1.42939e-21)
(0.810433 0.418379 5.00182e-20)
(0.842346 0.508572 -6.85471e-21)
(0.863144 0.575114 -1.1245e-20)
(0.87228 0.615338 -1.24455e-20)
(0.870998 0.63164 -1.29492e-20)
(0.861713 0.629742 8.13313e-21)
(0.847105 0.616301 4.76947e-21)
(0.829402 0.597126 -5.1219e-21)
(0.81004 0.576376 1.26113e-20)
(0.789702 0.556491 -4.51637e-21)
(0.768521 0.538675 2.45244e-21)
(0.746055 0.52385 -5.0028e-21)
(0.721087 0.513323 4.53251e-21)
(0.692021 0.50781 6.30148e-22)
(0.658332 0.504724 1.84445e-21)
(0.622211 0.496033 1.64998e-21)
(0.588812 0.469537 -1.99113e-21)
(0.564307 0.414086 4.71e-21)
(0.553052 0.32545 -7.53867e-21)
(0.556269 0.208421 -8.38569e-21)
(0.572867 0.0744218 5.21203e-21)
(0.600493 -0.062457 4.0583e-21)
(0.635783 -0.189136 -5.33593e-21)
(0.674841 -0.295567 1.35006e-22)
(0.713854 -0.376769 7.27291e-21)
(0.749642 -0.432847 -1.34031e-21)
(0.780139 -0.467725 -4.4892e-21)
(0.804509 -0.487057 4.02011e-21)
(0.822993 -0.496291 -1.51323e-21)
(0.83642 -0.499941 1.48977e-21)
(0.845456 -0.502325 -7.51729e-21)
(0.850063 -0.508161 4.50197e-21)
(0.849768 -0.520915 -4.13819e-21)
(0.844598 -0.539078 -1.59572e-21)
(0.835804 -0.553734 2.97604e-21)
(0.825621 -0.550566 -8.37774e-21)
(0.816346 -0.515663 1.26587e-20)
(0.80967 -0.441162 -1.66553e-20)
(0.806643 -0.327786 1.30211e-20)
(0.807856 -0.184438 3.33189e-21)
(0.813586 -0.0262945 -3.65698e-21)
(0.823554 0.128069 5.32794e-21)
(0.836684 0.260995 -6.00505e-21)
(0.851047 0.360532 -5.5559e-21)
(0.864139 0.423721 1.06128e-21)
(0.873713 0.455753 1.50344e-22)
(0.878579 0.465736 9.92573e-21)
(0.878688 0.46262 -5.41445e-21)
(0.874229 0.453919 -7.38327e-22)
(0.207272 -0.467226 -3.58302e-20)
(0.285405 -0.423689 9.19621e-20)
(0.365454 -0.363089 -5.04478e-20)
(0.444802 -0.287939 -3.11055e-21)
(0.520907 -0.201384 7.23964e-20)
(0.591651 -0.106387 -7.89529e-20)
(0.656034 -0.00496334 5.26153e-20)
(0.714075 0.101757 -3.5576e-20)
(0.76634 0.212648 -4.46095e-21)
(0.81288 0.32376 7.61379e-20)
(0.852075 0.427483 -8.60093e-20)
(0.88125 0.51453 -1.02118e-20)
(0.898341 0.577739 2.64036e-20)
(0.903151 0.61484 -1.46454e-20)
(0.897422 0.628599 2.07112e-20)
(0.883995 0.624904 -4.18318e-21)
(0.865794 0.610349 7.13153e-21)
(0.845122 0.590535 4.89481e-21)
(0.82337 0.569382 -2.22244e-20)
(0.801106 0.549144 7.68873e-21)
(0.778354 0.530855 -6.06491e-22)
(0.754662 0.515187 4.11355e-21)
(0.728896 0.503221 1.47024e-20)
(0.69941 0.495889 -2.32943e-20)
(0.665265 0.49155 8.5865e-21)
(0.627985 0.483514 4.41084e-22)
(0.592242 0.460444 1.20366e-20)
(0.56435 0.410843 -9.66231e-21)
(0.549362 0.329089 5.01207e-21)
(0.549197 0.218476 -8.43447e-21)
(0.563111 0.0894569 7.66599e-22)
(0.588913 -0.0442726 -1.98892e-21)
(0.623253 -0.169772 1.41652e-20)
(0.662186 -0.276797 -1.11425e-20)
(0.701849 -0.359966 4.98374e-21)
(0.738907 -0.418818 6.77696e-22)
(0.771089 -0.456702 1.82278e-21)
(0.797372 -0.478827 -7.63303e-21)
(0.817858 -0.490384 5.35571e-21)
(0.833285 -0.495858 -5.25553e-21)
(0.844253 -0.499714 4.86755e-22)
(0.850727 -0.506872 4.19872e-21)
(0.852324 -0.52092 -1.68182e-21)
(0.849193 -0.540362 8.05045e-22)
(0.842634 -0.556239 5.43319e-21)
(0.834807 -0.554197 -8.57499e-21)
(0.827837 -0.520265 -2.42506e-21)
(0.823224 -0.446438 4.61861e-21)
(0.821819 -0.333241 -2.239e-21)
(0.824026 -0.189431 1.00146e-20)
(0.830013 -0.0301039 6.27439e-22)
(0.839503 0.12596 -1.53259e-21)
(0.851521 0.260669 -2.86437e-21)
(0.864321 0.36154 -6.47492e-21)
(0.875601 0.425266 3.45274e-21)
(0.8833 0.457054 7.5725e-22)
(0.886332 0.466305 -2.79589e-22)
(0.884727 0.46223 1.74863e-21)
(0.878788 0.452344 -1.23773e-21)
(0.259918 -0.43228 -1.55707e-20)
(0.338603 -0.389446 -2.07317e-21)
(0.418373 -0.33055 -9.33431e-22)
(0.496689 -0.25802 9.55474e-21)
(0.571173 -0.174803 -4.62446e-21)
(0.63997 -0.0835474 6.00734e-20)
(0.702491 0.0141295 -1.00632e-19)
(0.759056 0.117528 7.45039e-20)
(0.810223 0.225525 7.7904e-21)
(0.855625 0.333891 -1.21708e-20)
(0.893036 0.434635 -1.75104e-20)
(0.919404 0.518368 -3.39534e-20)
(0.932732 0.578202 1.17018e-20)
(0.933241 0.612309 1.27589e-20)
(0.923183 0.623792 -3.12652e-20)
(0.905797 0.618632 1.40717e-20)
(0.884218 0.603295 1.79433e-20)
(0.860785 0.583131 -1.83753e-20)
(0.836824 0.561803 -2.45109e-22)
(0.812795 0.541382 1.02769e-20)
(0.788607 0.522766 -4.73174e-21)
(0.76379 0.506419 1.55412e-20)
(0.737305 0.493188 -1.57286e-20)
(0.707524 0.484099 8.38178e-21)
(0.673184 0.478325 8.80496e-21)
(0.635143 0.47053 -8.59043e-21)
(0.597462 0.450453 8.60723e-21)
(0.566426 0.406518 -1.50767e-22)
(0.547714 0.331813 -2.12533e-20)
(0.544022 0.228 1.27562e-20)
(0.55503 0.104378 -2.91352e-21)
(0.578759 -0.0258341 1.44954e-20)
(0.611895 -0.149881 -1.49973e-20)
(0.650446 -0.2573 -1.08226e-20)
(0.69052 -0.342317 1.63207e-20)
(0.72864 -0.403894 -6.68169e-21)
(0.762347 -0.444795 -2.52547e-21)
(0.790433 -0.469758 1.44867e-20)
(0.812855 -0.483699 -8.51689e-21)
(0.830242 -0.491053 -4.94407e-21)
(0.843125 -0.496405 3.0854e-21)
(0.851471 -0.504859 3.42642e-21)
(0.854982 -0.520134 -5.49801e-21)
(0.853921 -0.540797 -1.88485e-22)
(0.849632 -0.557916 5.47553e-21)
(0.844196 -0.557149 -5.13237e-21)
(0.839572 -0.524458 7.89497e-22)
(0.837074 -0.45166 -3.90172e-21)
(0.837356 -0.339025 5.21541e-21)
(0.840617 -0.1951 8.46541e-21)
(0.846901 -0.0349336 -1.60192e-20)
(0.855943 0.122766 1.01259e-21)
(0.866871 0.259282 9.11159e-21)
(0.8781 0.361617 2.19035e-21)
(0.887538 0.42606 -5.82982e-21)
(0.893324 0.457774 -2.32706e-21)
(0.894497 0.466426 1.66064e-21)
(0.891164 0.4615 2.37112e-21)
(0.883737 0.450534 -2.76666e-21)
(0.315203 -0.39771 3.85467e-20)
(0.393287 -0.356051 -6.61253e-20)
(0.471795 -0.299281 7.93138e-20)
(0.548297 -0.2297 -1.82443e-20)
(0.620611 -0.150012 -8.0846e-20)
(0.687173 -0.0625317 6.57432e-20)
(0.747784 0.031512 6.77718e-20)
(0.803016 0.131691 7.07235e-21)
(0.853264 0.236837 -1.03271e-19)
(0.897603 0.342344 -6.67595e-21)
(0.933173 0.439895 6.77968e-21)
(0.956623 0.520137 -1.86285e-20)
(0.966132 0.576567 8.08855e-20)
(0.96239 0.607827 -4.38068e-20)
(0.948157 0.617314 -6.82894e-21)
(0.927035 0.611024 2.88474e-20)
(0.902317 0.595228 -1.42894e-20)
(0.876345 0.57499 3.31601e-21)
(0.850366 0.553705 3.97865e-21)
(0.824731 0.533265 -4.10848e-21)
(0.799244 0.514457 6.17438e-21)
(0.773405 0.497591 -4.51465e-21)
(0.746269 0.48328 -7.84145e-21)
(0.71629 0.472544 1.12699e-20)
(0.681978 0.465208 2.07436e-21)
(0.643558 0.45725 -7.86633e-21)
(0.604384 0.439658 -6.5784e-21)
(0.570512 0.401079 8.82991e-21)
(0.548135 0.333483 1.06399e-21)
(0.54078 0.236807 -1.73545e-20)
(0.548657 0.119017 1.94269e-20)
(0.570063 -0.00733513 -1.93194e-20)
(0.601733 -0.129581 2.63058e-20)
(0.639638 -0.237163 -1.90792e-20)
(0.679876 -0.32388 1.17089e-20)
(0.718845 -0.38811 -7.92911e-21)
(0.753908 -0.432018 7.29219e-22)
(0.783677 -0.459851 -1.61116e-21)
(0.807959 -0.476231 1.17637e-20)
(0.82726 -0.485515 -3.60485e-21)
(0.842034 -0.492388 -4.29102e-21)
(0.852246 -0.50211 8.22743e-23)
(0.85768 -0.518542 -3.49515e-21)
(0.858706 -0.540361 1.09933e-20)
(0.856705 -0.558739 4.06369e-21)
(0.853678 -0.559386 -5.98015e-22)
(0.851431 -0.528198 -1.2382e-20)
(0.851095 -0.456778 1.77941e-20)
(0.853121 -0.345098 -1.36839e-20)
(0.857515 -0.20142 -1.8282e-20)
(0.864141 -0.0406487 4.56817e-20)
(0.872767 0.118497 -2.32209e-20)
(0.882659 0.256819 3.4259e-21)
(0.892334 0.360744 5.76136e-21)
(0.899916 0.426085 -4.4194e-21)
(0.903764 0.457902 -2.99843e-21)
(0.903059 0.466097 -1.11217e-22)
(0.897986 0.460434 3.73734e-21)
(0.889068 0.448499 -2.86482e-21)
(0.371914 -0.364009 -7.82184e-20)
(0.448453 -0.323902 2.80015e-20)
(0.524916 -0.269577 1.30389e-20)
(0.599019 -0.203161 9.14937e-21)
(0.668807 -0.127074 -8.07584e-20)
(0.733035 -0.0432286 6.41901e-20)
(0.79186 0.0473026 -6.09187e-20)
(0.845978 0.144395 7.65763e-20)
(0.895469 0.246705 2.1987e-20)
(0.938748 0.349195 2.59105e-20)
(0.972344 0.443312 -2.41837e-20)
(0.992729 0.519886 -8.79431e-21)
(0.998361 0.572903 9.13809e-21)
(0.990448 0.60149 -1.14142e-20)
(0.972233 0.609272 -1.71652e-20)
(0.947629 0.602185 -2.36272e-20)
(0.920035 0.586242 2.61445e-20)
(0.89176 0.566191 -2.27267e-20)
(0.863957 0.545154 1.80518e-20)
(0.836874 0.524848 7.34361e-21)
(0.810222 0.505976 -6.29455e-21)
(0.783463 0.488738 4.35225e-21)
(0.755742 0.473538 -3.42555e-21)
(0.725635 0.461305 -1.9052e-21)
(0.691529 0.452346 1.28014e-21)
(0.653085 0.443854 -4.1609e-21)
(0.61288 0.42819 1.12254e-20)
(0.576551 0.394532 -5.53738e-21)
(0.550633 0.333977 1.09869e-20)
(0.539507 0.244718 -9.68722e-21)
(0.544043 0.133177 -4.16987e-21)
(0.562846 0.0109153 -1.34376e-20)
(0.592773 -0.10901 1.52094e-20)
(0.629775 -0.216484 -1.18278e-20)
(0.669927 -0.304721 3.77527e-22)
(0.709523 -0.371504 4.37202e-21)
(0.745764 -0.418389 5.13189e-21)
(0.77709 -0.449112 -1.12451e-21)
(0.803147 -0.467976 2.34204e-21)
(0.824307 -0.479241 4.33165e-21)
(0.840939 -0.487657 -5.22336e-21)
(0.853002 -0.498619 4.74338e-21)
(0.860357 -0.516134 -7.002e-21)
(0.863472 -0.539043 3.18945e-21)
(0.863758 -0.558685 7.10018e-21)
(0.863145 -0.560873 -1.8876e-20)
(0.863293 -0.53144 1.38827e-20)
(0.865156 -0.461743 6.54319e-22)
(0.86898 -0.351407 -2.23667e-20)
(0.874561 -0.20836 2.49193e-20)
(0.881603 -0.0471929 -1.24041e-20)
(0.889897 0.113156 -5.08205e-21)
(0.898805 0.253271 9.17108e-21)
(0.906964 0.358903 1.71702e-20)
(0.912697 0.425326 -8.43773e-21)
(0.914594 0.457432 -1.84582e-20)
(0.911999 0.465317 1.29206e-20)
(0.905183 0.459036 -8.15926e-21)
(0.894768 0.446246 2.55452e-21)
(0.428921 -0.331554 -2.89352e-20)
(0.503192 -0.29329 7.08329e-20)
(0.577046 -0.241629 -3.64064e-20)
(0.648374 -0.17849 -1.22042e-20)
(0.715464 -0.105961 6.99102e-21)
(0.777475 -0.0255148 -6.50206e-21)
(0.834794 0.0616228 1.07753e-20)
(0.88804 0.155781 4.12768e-20)
(0.936873 0.255229 1.71222e-21)
(0.978994 0.354496 -9.30145e-20)
(1.0104 0.444917 1.60443e-20)
(1.02754 0.517661 6.42717e-20)
(1.02925 0.567292 -5.58087e-20)
(1.01727 0.593403 2.20913e-20)
(0.995312 0.599783 1.69952e-20)
(0.96751 0.592225 -9.55432e-21)
(0.937323 0.57643 -8.44398e-21)
(0.90699 0.556809 -1.24582e-20)
(0.877559 0.536209 2.04232e-21)
(0.849184 0.516182 7.31632e-21)
(0.821497 0.497366 -5.15879e-23)
(0.793921 0.479892 -1.40834e-21)
(0.765673 0.463991 4.83819e-22)
(0.735486 0.450443 -2.79518e-21)
(0.701718 0.439869 3.85432e-21)
(0.663562 0.430526 -5.03339e-23)
(0.622793 0.416211 1.93205e-21)
(0.584447 0.386926 4.51472e-21)
(0.555195 0.333203 -1.19642e-20)
(0.540229 0.251552 4.05989e-21)
(0.541264 0.146673 1.71789e-21)
(0.557135 0.0290723 -1.45037e-20)
(0.584977 -0.0882642 1.67952e-20)
(0.620866 -0.195362 5.44184e-21)
(0.660679 -0.284912 -5.05036e-21)
(0.700675 -0.354122 -3.77319e-21)
(0.737912 -0.403931 1.8032e-21)
(0.770658 -0.437548 5.14146e-21)
(0.798395 -0.458935 -1.12399e-20)
(0.821352 -0.472229 6.4899e-21)
(0.839803 -0.482211 3.20826e-21)
(0.853693 -0.494385 -2.63221e-21)
(0.862954 -0.51291 -1.20994e-20)
(0.868143 -0.536837 2.03931e-20)
(0.870701 -0.55774 -1.65066e-20)
(0.872489 -0.561582 3.3139e-21)
(0.875038 -0.53414 -3.90323e-21)
(0.879126 -0.4665 5.27088e-21)
(0.884797 -0.357901 1.12878e-20)
(0.89162 -0.21587 -2.70922e-20)
(0.899163 -0.0546704 5.04884e-21)
(0.90722 0.106742 2.97269e-20)
(0.915222 0.248636 -1.00214e-20)
(0.921928 0.356085 -1.99464e-20)
(0.92584 0.423771 8.2431e-21)
(0.925785 0.456354 -9.79296e-21)
(0.921298 0.464084 1.55329e-20)
(0.912738 0.457308 -8.76022e-21)
(0.900825 0.443783 -2.94136e-21)
(0.485232 -0.300607 -5.4714e-20)
(0.556746 -0.264389 6.51911e-20)
(0.627657 -0.215519 -2.03002e-20)
(0.696062 -0.155678 -3.58914e-20)
(0.760475 -0.0865683 1.18373e-20)
(0.820581 -0.00916783 2.64337e-20)
(0.876768 0.0746048 1.70559e-20)
(0.929337 0.165977 -2.06086e-20)
(0.977509 0.262474 -2.83777e-20)
(1.01825 0.358265 2.05613e-20)
(1.04718 0.444727 -1.38233e-21)
(1.06086 0.513513 3.55684e-20)
(1.05862 0.559822 -1.23612e-20)
(1.04275 0.583684 -1.72009e-20)
(1.01731 0.58897 -4.80733e-21)
(0.986621 0.581257 1.38929e-20)
(0.954138 0.565887 -2.14018e-20)
(0.921998 0.546916 1.4994e-20)
(0.891137 0.526926 -3.56943e-22)