/*--------------------------------*- C++ -*----------------------------------*\
  =========                 |
  \\      /  F ield         | OpenFOAM: The Open Source CFD Toolbox
   \\    /   O peration     | Website:  https://openfoam.org
    \\  /    A nd           | Version:  7
     \\/     M anipulation  |
\*---------------------------------------------------------------------------*/
FoamFile
{
    version     2.0;
    format      ascii;
    class       volVectorField;
    location    "65";
    object      U;
}
// * * * * * * * * * * * * * * * * * * * * * * * * * * * * * * * * * * * * * //

dimensions      [0 1 -1 0 0 0 0];

internalField   nonuniform List<vector> 
1987
(
(1.13258 0.286489 -4.14285e-21)
(1.1278 0.273572 -2.77623e-20)
(1.14308 0.332435 9.55714e-21)
(1.13609 0.317624 -4.6848e-20)
(1.12998 0.303321 -6.67005e-20)
(1.1247 0.289522 6.11765e-20)
(1.1202 0.276219 -2.35756e-20)
(1.15996 0.386204 1.12408e-19)
(1.15027 0.369182 1.4987e-20)
(1.14162 0.352679 3.17647e-20)
(1.134 0.336748 6.92476e-20)
(1.12734 0.321396 -8.37229e-20)
(1.12155 0.306611 2.06074e-20)
(1.11659 0.292383 5.41184e-20)
(1.11239 0.2787 -2.78516e-20)
(1.17037 0.429001 -6.96961e-20)
(1.1597 0.410661 5.26395e-20)
(1.14943 0.392375 -2.6479e-20)
(1.14009 0.374568 -1.81605e-20)
(1.13183 0.357383 -6.91529e-20)
(1.12459 0.34085 1.67477e-20)
(1.11829 0.324964 5.61509e-20)
(1.11286 0.309706 4.79084e-20)
(1.10823 0.295055 -3.99088e-20)
(1.10436 0.281 -8.63341e-23)
(1.17482 0.472046 -2.07425e-19)
(1.16857 0.455732 -1.52243e-19)
(1.15879 0.436915 1.10089e-19)
(1.14831 0.417463 -9.44581e-20)
(1.1384 0.398272 8.29398e-20)
(1.12949 0.379697 -3.2849e-21)
(1.12165 0.361841 2.57607e-21)
(1.11484 0.344717 3.15554e-21)
(1.10895 0.328307 -1.79066e-20)
(1.1039 0.312584 -5.86653e-20)
(1.09964 0.297522 1.4521e-20)
(1.09612 0.283103 -1.59821e-20)
(1.1455 0.498153 -4.83056e-20)
(1.16227 0.495585 1.78827e-19)
(1.1632 0.482749 1.77873e-19)
(1.15631 0.464641 1.1041e-19)
(1.14652 0.444458 -9.0371e-20)
(1.13635 0.423935 -5.50526e-20)
(1.12688 0.403865 -5.79045e-21)
(1.11846 0.384539 -1.27313e-19)
(1.11111 0.366028 -5.97491e-20)
(1.10476 0.348326 6.0706e-20)
(1.09932 0.331405 2.26237e-20)
(1.09469 0.315229 4.77285e-20)
(1.09083 0.299767 -5.01247e-20)
(1.08768 0.284995 5.42249e-20)
(1.0852 0.270898 -2.19925e-20)
(1.09706 0.502285 -6.74716e-20)
(1.13671 0.513363 7.87616e-20)
(1.15088 0.507996 -5.6304e-20)
(1.1505 0.492909 -1.68767e-20)
(1.14322 0.473086 -9.97111e-20)
(1.13358 0.451596 1.75123e-19)
(1.12384 0.430043 1.05873e-19)
(1.11491 0.409122 1.01586e-19)
(1.10703 0.389066 -4.36681e-20)
(1.10022 0.369917 6.96573e-20)
(1.09437 0.351653 -7.37617e-20)
(1.08941 0.334235 -5.8298e-20)
(1.08524 0.317621 4.45366e-20)
(1.0818 0.301773 3.62324e-21)
(1.07905 0.286661 -2.1787e-20)
(1.07695 0.272267 2.73808e-20)
(0.893649 0.425639 -2.2416e-19)
(1.01695 0.487898 2.08577e-19)
(1.0902 0.519828 2.21859e-20)
(1.12621 0.527824 -2.48416e-20)
(1.13816 0.519732 -3.17104e-19)
(1.13678 0.502486 6.27493e-20)
(1.12934 0.481031 2.63767e-20)
(1.12002 0.458296 -8.91296e-21)
(1.11081 0.435753 -5.53909e-20)
(1.10247 0.414011 3.01487e-20)
(1.0952 0.393249 4.84684e-20)
(1.08897 0.373483 -1.38144e-20)
(1.08367 0.354675 2.16856e-20)
(1.07923 0.336779 2.46257e-20)
(1.07554 0.319743 -4.11024e-20)
(1.07255 0.303524 -8.98746e-21)
(1.07023 0.288087 5.55911e-21)
(1.06853 0.273409 -2.59903e-20)
(0.477663 0.225021 2.56451e-19)
(0.716921 0.351694 -1.50644e-19)
(0.894406 0.447028 2.59786e-19)
(1.01263 0.507521 -3.26762e-19)
(1.08135 0.536536 4.22614e-21)
(1.1141 0.541481 -3.9698e-20)
(1.1242 0.530752 1.60323e-19)
(1.1221 0.511445 1.07309e-20)
(1.11471 0.488438 -1.864e-19)
(1.10585 0.464522 6.35956e-20)
(1.09726 0.441032 -6.60811e-20)
(1.0896 0.418501 -7.03728e-21)
(1.08299 0.397059 1.26203e-19)
(1.07738 0.376699 -9.53902e-20)
(1.07268 0.35737 4.76135e-21)
(1.06879 0.339014 -1.68989e-21)
(1.06562 0.321576 2.45898e-20)
(1.06311 0.305004 -7.11913e-22)
(1.06124 0.289259 -1.17327e-20)
(1.05996 0.274312 7.94567e-21)
(0.183041 0.0876151 1.93343e-19)
(0.48269 0.241149 3.00986e-20)
(0.719779 0.371993 9.28108e-21)
(0.892852 0.467742 -9.67821e-20)
(1.00612 0.526286 1.10539e-20)
(1.07061 0.552339 1.48809e-19)
(1.10047 0.554282 7.92551e-20)
(1.10906 0.541013 1.03742e-19)
(1.10653 0.519747 3.05988e-20)
(1.09938 0.495271 1.37042e-19)
(1.0911 0.470233 -1.1755e-19)
(1.08323 0.445847 5.63939e-20)
(1.07631 0.422561 -6.29325e-21)
(1.07041 0.400469 -4.24969e-20)
(1.06547 0.37954 7.153e-20)
(1.0614 0.359714 -1.17819e-20)
(1.0581 0.340922 1.11656e-20)
(1.05548 0.323102 8.58884e-21)
(1.05348 0.306197 -3.8692e-21)
(1.05208 0.290162 -2.15935e-21)
(1.05124 0.274962 -1.07457e-21)
(1.05094 0.260504 3.34881e-21)
(0.185807 0.0946557 -3.09788e-19)
(0.486176 0.257103 -2.97546e-19)
(0.720552 0.391789 6.83585e-22)
(0.88905 0.487668 1.6412e-20)
(0.997499 0.544104 -2.7017e-20)
(1.05808 0.567168 -9.25849e-20)
(1.08543 0.566178 -2.22794e-19)
(1.09283 0.550473 1.20092e-20)
(1.09011 0.527352 -4.21378e-21)
(1.08338 0.501493 -6.04704e-20)
(1.0758 0.475397 3.01358e-20)
(1.06874 0.450162 -1.11762e-19)
(1.06261 0.426161 -5.71251e-20)
(1.05748 0.40345 1.07403e-20)
(1.05326 0.381983 6.73116e-21)
(1.04986 0.361685 -3.2584e-20)
(1.04718 0.342482 -3.76765e-21)
(1.04513 0.324304 -7.06836e-21)
(1.04367 0.307088 2.79523e-21)
(1.04276 0.290783 -1.39274e-21)
(1.04238 0.275349 -1.07371e-20)
(1.04253 0.260687 5.65841e-21)
(0.187939 0.101677 2.2056e-19)
(0.488115 0.27278 1.54824e-19)
(0.719272 0.410964 -9.34682e-20)
(0.883075 0.506695 3.1165e-19)
(0.986874 0.560887 2.47493e-19)
(1.04387 0.58096 1.83134e-19)
(1.06905 0.577117 2.86955e-20)
(1.07558 0.55909 -1.17962e-19)
(1.07291 0.534221 -5.59133e-21)
(1.06675 0.507067 5.72363e-20)
(1.05999 0.479979 -5.22289e-20)
(1.0538 0.453945 8.66808e-20)
(1.04853 0.429269 6.09146e-20)
(1.04421 0.405976 2.65977e-21)
(1.04076 0.384002 1.22482e-21)
(1.03806 0.363263 -4.88208e-21)
(1.03604 0.343677 -8.05786e-21)
(1.0346 0.325166 -2.53306e-21)
(1.0337 0.307661 2.66814e-21)
(1.0333 0.291109 1.19647e-20)
(1.0334 0.275461 1.42493e-20)
(1.034 0.260612 -1.42043e-20)
(0.189424 0.108632 1.58473e-19)
(0.488509 0.288075 -1.96689e-19)
(0.715985 0.429398 -8.0505e-20)
(0.875008 0.52472 -5.09273e-20)
(0.974348 0.576553 -2.93588e-20)
(1.02808 0.593653 -1.9685e-19)
(1.05144 0.587053 -3.37364e-20)
(1.05738 0.566822 1.3156e-19)
(1.05497 0.540316 -8.32782e-20)
(1.04954 0.511956 -3.0154e-20)
(1.04369 0.483945 -9.79638e-21)
(1.03845 0.457164 1.5306e-20)
(1.0341 0.431857 -8.09722e-20)
(1.03064 0.408021 -1.08294e-20)
(1.02798 0.385576 -1.26802e-22)
(1.02603 0.364427 -3.66959e-21)
(1.02469 0.344487 -1.78477e-21)
(1.0239 0.325671 -2.24114e-20)
(1.02359 0.307904 2.588e-20)
(1.02372 0.291127 -3.03093e-20)
(1.02431 0.275286 3.48235e-20)
(1.02538 0.260273 4.71411e-20)
(1.02685 0.246079 -2.57114e-20)
(0.190256 0.11547 -1.79661e-19)
(0.487374 0.302886 1.52787e-19)
(0.710744 0.44698 1.20131e-19)
(0.864943 0.541644 -2.08645e-19)
(0.960035 0.591026 -6.63492e-20)
(1.01083 0.605187 2.73939e-19)
(1.03268 0.595939 4.85106e-20)
(1.03831 0.57363 2.94359e-20)
(1.03636 0.5456 -8.02434e-20)
(1.03179 0.516125 2.08355e-20)
(1.02694 0.48726 1.96908e-20)
(1.02271 0.459788 3.35096e-20)
(1.01933 0.433898 8.81635e-21)
(1.01677 0.40956 5.37399e-22)
(1.01496 0.38668 -5.10332e-21)
(1.01378 0.365158 -2.10402e-21)
(1.01317 0.344895 7.21405e-22)
(1.01304 0.325803 2.57033e-21)
(1.01334 0.307802 -1.87217e-20)
(1.01403 0.290826 2.31356e-20)
(1.01512 0.274816 -3.63833e-20)
(1.01667 0.259658 3.66069e-20)
(1.0186 0.245363 -1.6927e-20)
(0.190432 0.122146 -1.44415e-19)
(0.484734 0.317115 2.72068e-20)
(0.703616 0.463599 1.73861e-19)
(0.852986 0.557375 2.52462e-19)
(0.944052 0.604243 -2.76695e-19)
(0.992193 0.615504 -2.11755e-19)
(1.01287 0.603729 -2.48352e-20)
(1.01844 0.579474 -6.79519e-20)
(1.01713 0.550037 2.76927e-20)
(1.01353 0.519539 -5.11759e-20)
(1.00977 0.489892 -2.1574e-20)
(1.00662 0.461788 -1.90647e-20)
(1.00425 0.435365 8.33559e-21)
(1.00264 0.410569 1.84968e-21)
(1.0017 0.387296 1.73044e-20)
(1.00134 0.365435 1.21369e-20)
(1.00148 0.344884 1.86892e-21)
(1.00204 0.325548 3.6408e-21)
(1.00297 0.307342 -1.21778e-20)
(1.00424 0.290194 2.41384e-20)
(1.00585 0.274038 4.19503e-20)
(1.00788 0.258762 -2.32921e-20)
(1.01027 0.244384 -3.51169e-20)
(0.189957 0.128614 1.73361e-20)
(0.480622 0.330667 6.49284e-20)
(0.69468 0.479151 -6.34995e-20)
(0.839245 0.571823 -4.50981e-20)
(0.926484 0.61613 4.73525e-20)
(0.972301 0.62457 7.45728e-20)
(0.9921 0.610378 9.07811e-21)
(0.99784 0.584318 6.10137e-20)
(0.997328 0.553592 5.14042e-20)
(0.994817 0.522165 4.75338e-20)
(0.992218 0.491812 1.4911e-20)
(0.990198 0.463135 1.33061e-20)
(0.988898 0.436232 -1.64166e-20)
(0.988276 0.411026 1.80856e-20)
(0.988247 0.387402 -1.22419e-20)
(0.988728 0.365243 -3.19797e-20)
(0.989639 0.34444 4.71587e-21)
(0.990915 0.324892 -2.15314e-20)
(0.992505 0.306511 8.44946e-20)
(0.994373 0.28922 -4.98692e-20)
(0.996525 0.272945 -3.95558e-20)
(0.999044 0.257575 -1.14264e-19)
(1.00189 0.243136 1.21818e-19)
(1.00447 0.230218 -2.82062e-20)
(0.188836 0.13483 6.13648e-20)
(0.475083 0.343452 -6.92963e-20)
(0.68403 0.49354 -1.22186e-19)
(0.823804 0.584905 -2.85577e-19)
(0.907444 0.626618 3.04377e-20)
(0.951275 0.632327 -6.3051e-21)
(0.970463 0.615856 8.71438e-20)
(0.976584 0.588127 -1.49596e-20)
(0.97702 0.556233 2.11771e-20)
(0.975696 0.523973 1.10747e-20)
(0.974327 0.492989 -2.68232e-21)
(0.973491 0.463805 9.45269e-21)
(0.973296 0.436476 2.22138e-21)
(0.973696 0.41091 -4.36578e-21)
(0.974611 0.386981 -2.14458e-20)
(0.975961 0.364564 -1.83805e-20)
(0.977675 0.343546 1.84629e-20)
(0.979692 0.323822 6.51103e-20)
(0.981961 0.305297 -1.09896e-20)
(0.984446 0.287892 2.63691e-20)
(0.987155 0.271526 -2.02353e-20)
(0.99017 0.25609 1.38681e-19)
(0.993461 0.241613 -1.27079e-19)
(0.996515 0.22867 2.38226e-20)
(0.187082 0.140753 4.99016e-20)
(0.468175 0.355384 -4.51428e-20)
(0.671767 0.506696 -5.34085e-20)
(0.806748 0.59653 5.3244e-20)
(0.887076 0.635654 -9.86242e-20)
(0.929208 0.638728 -8.68829e-20)
(0.948044 0.620126 -3.74077e-20)
(0.954743 0.59087 2.22403e-20)
(0.956259 0.557928 -1.01891e-20)
(0.956211 0.524933 -4.19889e-21)
(0.956134 0.493397 -8.94074e-21)
(0.956529 0.463772 4.0705e-20)
(0.957479 0.436076 1.70657e-20)
(0.958934 0.410202 2.59506e-20)
(0.960822 0.386014 8.58821e-20)
(0.963068 0.363383 2.08262e-20)
(0.965608 0.34219 1.11207e-19)
(0.968386 0.322324 2.72082e-20)
(0.971354 0.30369 3.1139e-20)
(0.974476 0.286201 -5.37608e-20)
(0.97776 0.269772 1.20434e-19)
(0.98128 0.2543 9.30575e-21)
(0.985008 0.239808 2.89565e-20)
(0.988531 0.226837 -4.03503e-20)
(0.184709 0.146336 4.49199e-20)
(0.459963 0.366365 -1.30656e-19)
(0.657945 0.518526 2.44511e-19)
(0.788232 0.606672 2.18161e-19)
(0.865512 0.643178 1.36543e-19)
(0.90621 0.643736 -6.01422e-20)
(0.924935 0.623156 3.09252e-20)
(0.932388 0.592518 -2.08509e-20)
(0.935105 0.558651 -6.04922e-21)
(0.936411 0.525018 1.54378e-20)
(0.937682 0.493012 -5.66924e-21)
(0.93935 0.463014 -7.28385e-20)
(0.941478 0.435012 1.3656e-20)
(0.94402 0.408884 -4.70642e-20)
(0.946906 0.384487 -4.16659e-20)
(0.950072 0.361687 -5.34714e-20)
(0.95346 0.340358 -8.82927e-20)
(0.957018 0.32039 -1.93972e-19)
(0.960703 0.301679 -1.39872e-19)
(0.964482 0.284137 -1.10076e-19)
(0.968361 0.267676 -6.86928e-20)
(0.972396 0.252198 -1.83915e-20)
(0.976547 0.237713 9.35378e-20)
(0.980522 0.2247 -8.02705e-20)
(0.985139 0.212448 -5.84014e-20)
(0.181727 0.151531 2.2556e-20)
(0.450504 0.37634 1.52728e-19)
(0.642658 0.528916 -2.32639e-19)
(0.76841 0.615258 -1.33939e-19)
(0.84286 0.649161 -8.8789e-20)
(0.882386 0.64732 4.482e-21)
(0.901223 0.624917 -1.92638e-20)
(0.909592 0.593043 1.33379e-21)
(0.913617 0.558375 -2.08439e-20)
(0.916346 0.524205 -1.40346e-20)
(0.919013 0.491811 -3.52621e-20)
(0.921991 0.46151 2.70719e-20)
(0.925329 0.433265 5.25047e-20)
(0.928983 0.40694 3.10452e-20)
(0.932893 0.382386 -7.07087e-20)
(0.937 0.359462 1.23745e-19)
(0.941254 0.338041 -6.46029e-20)
(0.945609 0.318007 3.77114e-20)
(0.950027 0.299256 1.11266e-19)
(0.95448 0.281691 9.46845e-20)
(0.958976 0.265227 -4.20905e-20)
(0.96354 0.24978 5.2953e-20)
(0.9681 0.235328 7.86459e-21)
(0.972512 0.222251 1.23847e-19)
(0.977856 0.210158 -1.76399e-19)
(0.178144 0.156267 -5.51944e-21)
(0.439902 0.385244 -7.16041e-21)
(0.626057 0.537835 1.2176e-19)
(0.747383 0.622217 -7.02067e-20)
(0.819237 0.653562 9.65578e-20)
(0.857843 0.64945 8.7089e-21)
(0.876998 0.625384 1.17574e-20)
(0.886428 0.592423 -6.38272e-21)
(0.891854 0.557077 1.0081e-20)
(0.896068 0.522472 -2.28047e-20)
(0.900173 0.489773 8.27468e-20)
(0.904493 0.459244 2.45654e-20)
(0.909068 0.430821 -4.79906e-20)
(0.913859 0.404357 -7.82677e-20)
(0.918811 0.379697 2.44017e-20)
(0.923877 0.356698 -1.55407e-20)
(0.929013 0.335228 -1.18709e-19)
(0.934181 0.315168 2.53233e-19)
(0.939346 0.29641 5.29251e-20)
(0.94449 0.278855 5.79066e-21)
(0.949622 0.262418 -1.37526e-19)
(0.954724 0.247035 -9.54014e-20)
(0.959694 0.232649 -2.70556e-20)
(0.964602 0.219505 -2.29748e-20)
(0.970821 0.207633 2.25353e-19)
(0.174029 0.160488 -1.56252e-20)
(0.428227 0.39297 -4.48582e-20)
(0.608245 0.545229 -4.97016e-20)
(0.72527 0.627508 8.73354e-20)
(0.794763 0.656345 6.85894e-21)
(0.832687 0.650101 -1.1387e-21)
(0.852347 0.624534 1.8694e-20)
(0.862968 0.590637 7.75629e-21)
(0.869877 0.554738 -5.81121e-20)
(0.875627 0.5198 -7.11118e-20)
(0.881206 0.486883 -7.84339e-20)
(0.886897 0.456199 -4.61112e-21)
(0.892732 0.427664 3.3537e-20)
(0.898678 0.401121 -8.11109e-20)
(0.904691 0.376412 -1.62083e-20)
(0.910731 0.353387 -1.08217e-19)
(0.916763 0.331912 2.35203e-19)
(0.922753 0.311866 1.03426e-19)
(0.928677 0.293137 3.32063e-20)
(0.934526 0.275621 -5.53019e-20)
(0.940306 0.259238 -4.53278e-21)
(0.945951 0.243942 5.41662e-20)
(0.95137 0.229635 4.10929e-21)
(0.956972 0.216421 1.4808e-19)
(0.964275 0.204959 1.31483e-19)
(0.169438 0.164214 -4.77159e-20)
(0.415538 0.399462 6.98017e-20)
(0.589336 0.551032 4.51509e-20)
(0.7022 0.63109 -2.00971e-20)
(0.769559 0.657482 9.0404e-21)
(0.807022 0.649253 -7.13892e-21)
(0.82736 0.622351 4.13775e-20)
(0.839285 0.587668 2.09084e-20)
(0.847748 0.551341 5.19126e-20)
(0.855079 0.516172 1.56323e-19)
(0.862161 0.483125 1.39108e-19)
(0.869244 0.452363 7.30839e-20)
(0.876358 0.423784 1.72782e-20)
(0.883477 0.397224 1.12814e-20)
(0.890565 0.37252 8.09072e-20)
(0.897591 0.34952 6.29886e-20)
(0.904528 0.328086 -5.34098e-20)
(0.91135 0.308095 -3.7013e-19)
(0.918041 0.289431 2.50048e-20)
(0.924603 0.271987 5.57902e-20)
(0.93103 0.255682 6.33802e-20)
(0.937217 0.240486 8.5003e-20)
(0.943171 0.226223 1.06661e-20)
(0.94972 0.212789 -4.45334e-19)
(0.957899 0.201937 7.97206e-20)
(0.164383 0.167413 -1.95194e-20)
(0.40193 0.404685 -2.57705e-20)
(0.569453 0.555194 -4.12979e-20)
(0.678301 0.632932 1.47708e-20)
(0.743747 0.656951 -3.31235e-20)
(0.780955 0.64689 -3.86595e-20)
(0.802124 0.61882 -4.20196e-20)
(0.815453 0.583501 -3.60364e-20)
(0.825529 0.546872 -9.87976e-20)
(0.834476 0.511577 2.03487e-20)
(0.843085 0.478487 -1.33094e-19)
(0.851579 0.447725 -9.73303e-20)
(0.859986 0.419172 1.28822e-20)
(0.868289 0.392658 -7.11592e-20)
(0.876462 0.368015 8.4551e-20)
(0.884484 0.345091 -3.67956e-20)
(0.892334 0.323745 -9.91233e-21)
(0.899995 0.303851 2.27234e-19)
(0.907459 0.285291 -1.84041e-19)
(0.914734 0.267952 6.56574e-20)
(0.921801 0.251758 1.36207e-19)
(0.928535 0.236681 -8.6304e-20)
(0.935117 0.222457 2.33464e-19)
(0.942716 0.208514 2.78786e-19)
(0.950492 0.196522 4.33911e-20)
(0.158888 0.170051 -1.73651e-20)
(0.387501 0.408602 1.44124e-20)
(0.548719 0.557677 -4.76076e-21)
(0.653704 0.633007 1.66551e-20)
(0.717447 0.654737 2.46627e-20)
(0.75459 0.643001 5.06729e-20)
(0.776727 0.613932 1.00658e-20)
(0.791545 0.578128 -2.52849e-20)
(0.803283 0.541322 6.96679e-20)
(0.813873 0.506004 1.24326e-19)
(0.824027 0.47296 1.03794e-19)
(0.833944 0.442277 -5.52754e-21)
(0.843656 0.41382 4.76943e-20)
(0.853152 0.387416 7.26105e-20)
(0.862417 0.362893 -1.14173e-20)
(0.871439 0.340098 -3.61263e-20)
(0.880207 0.318887 8.28092e-20)
(0.888711 0.299132 1.2581e-19)
(0.89695 0.280713 2.13278e-19)
(0.904938 0.263517 -2.26247e-19)
(0.912641 0.247469 -1.42738e-19)
(0.919948 0.232543 2.682e-20)
(0.927194 0.218461 2.58054e-20)
(0.935434 0.20465 -1.29361e-19)
(0.942487 0.192736 -1.22654e-19)
(0.152994 0.172099 -5.95249e-21)
(0.372348 0.411174 -3.78241e-20)
(0.527258 0.558452 -4.59287e-20)
(0.628536 0.631298 -7.69103e-20)
(0.690778 0.65083 1.78303e-20)
(0.728029 0.63758 1.77304e-20)
(0.751255 0.607682 1.87972e-20)
(0.767634 0.571542 -1.09518e-19)
(0.781072 0.534683 2.04872e-19)
(0.793326 0.499447 -1.35998e-19)
(0.805036 0.466539 -3.29229e-19)
(0.816385 0.436014 5.43255e-20)
(0.827406 0.407725 -2.92837e-19)
(0.8381 0.381495 1.75478e-20)
(0.848462 0.357151 1.56888e-19)
(0.858487 0.334537 1.7202e-19)
(0.868174 0.313509 -5.32954e-19)
(0.877522 0.293937 -1.10685e-20)
(0.886536 0.275699 -3.79077e-19)
(0.895234 0.258681 1.24943e-20)
(0.903575 0.242809 4.79872e-20)
(0.911482 0.228044 -2.24882e-19)
(0.919364 0.214077 -1.39133e-19)
(0.92802 0.200315 -2.19077e-20)
(0.934811 0.188324 -2.5088e-19)
(0.146743 0.173535 -6.35649e-21)
(0.356571 0.412369 1.01284e-19)
(0.505194 0.557496 7.59271e-20)
(0.602927 0.627793 4.94771e-20)
(0.663858 0.645225 -1.72736e-19)
(0.701375 0.630626 2.74411e-20)
(0.725795 0.600068 1.87568e-20)
(0.743793 0.56374 1.53204e-20)
(0.75896 0.526953 -1.61471e-19)
(0.77289 0.491902 -2.69021e-19)
(0.786163 0.459221 1.31419e-19)
(0.798946 0.428933 -1.77901e-19)
(0.811279 0.400884 2.15456e-19)
(0.823171 0.374893 1.5949e-19)
(0.834629 0.350787 -1.46062e-19)
(0.845658 0.328408 -4.72021e-21)
(0.856263 0.307611 3.98906e-19)
(0.866452 0.288267 -3.008e-20)
(0.87624 0.270251 7.80091e-20)
(0.885642 0.253448 4.33918e-20)
(0.894621 0.237787 5.59939e-21)
(0.903135 0.223218 1.03038e-19)
(0.911606 0.209423 1.16233e-19)
(0.92062 0.195854 -1.88539e-19)
(0.927461 0.184055 6.78455e-20)
(0.14018 0.17434 1.68048e-21)
(0.34027 0.412164 4.13674e-20)
(0.482653 0.554794 6.3186e-20)
(0.577004 0.622487 2.90228e-20)
(0.636803 0.637925 1.21538e-19)
(0.674728 0.622143 6.55565e-20)
(0.700431 0.591092 9.88323e-20)
(0.720095 0.554724 -5.82124e-21)
(0.73701 0.518131 1.63622e-19)
(0.752622 0.483369 -1.44491e-19)
(0.767457 0.451005 4.04987e-19)
(0.781672 0.421035 6.95675e-20)
(0.795314 0.393299 -1.97388e-19)
(0.808402 0.367613 -2.41708e-19)
(0.820953 0.343803 1.15379e-19)
(0.832981 0.321712 -1.5248e-19)
(0.844501 0.301196 -2.89788e-19)
(0.855528 0.282123 2.0232e-19)
(0.866082 0.264369 3.97595e-20)
(0.876185 0.24782 1.95776e-19)
(0.885801 0.232403 -6.57892e-20)
(0.894916 0.218058 -5.50374e-20)
(0.903938 0.204465 2.98527e-19)
(0.913304 0.191139 2.15242e-19)
(0.920365 0.179595 -2.21046e-21)
(0.133351 0.1745 -5.0538e-20)
(0.323545 0.41054 -1.17016e-19)
(0.45976 0.55034 -7.71839e-20)
(0.550893 0.615384 -9.68825e-21)
(0.60973 0.628938 -3.22968e-20)
(0.648189 0.612139 -1.1206e-19)
(0.675249 0.580764 -6.19642e-20)
(0.696612 0.5445 -6.64616e-20)
(0.715285 0.508222 -8.22263e-20)
(0.732578 0.473852 2.20665e-19)
(0.748969 0.441894 -2.01059e-19)
(0.764609 0.412323 1.58687e-19)
(0.779553 0.384971 3.51284e-19)
(0.79383 0.359655 1.56677e-19)
(0.807467 0.336202 -2.31368e-19)
(0.820487 0.314453 9.52906e-20)
(0.832915 0.294266 7.16302e-20)
(0.844772 0.275509 2.0712e-20)
(0.856087 0.258058 3.25428e-19)
(0.866883 0.241801 -2.33465e-19)
(0.877133 0.226663 -1.86476e-19)
(0.88684 0.212575 -4.54796e-20)
(0.896391 0.199227 -1.94312e-19)
(0.906128 0.186198 -1.95431e-19)
(0.9135 0.174934 3.56094e-19)
(0.126304 0.174001 4.59908e-20)
(0.306501 0.407487 -9.32485e-21)
(0.436639 0.544133 -1.09976e-19)
(0.52472 0.606492 -1.90228e-19)
(0.58275 0.618276 -1.54896e-19)
(0.621853 0.600628 2.28193e-19)
(0.65033 0.569093 1.78705e-19)
(0.673416 0.533077 1.64251e-19)
(0.693847 0.497233 3.57959e-20)
(0.712813 0.463358 1.64357e-19)
(0.730748 0.431895 -1.43218e-19)
(0.747802 0.402802 -2.83904e-19)
(0.764036 0.375907 -4.1965e-19)
(0.779491 0.351026 -2.834e-19)
(0.794203 0.327988 3.22678e-19)
(0.808207 0.306636 -2.14614e-19)
(0.821533 0.286827 -1.65453e-19)
(0.834212 0.26843 1.17502e-19)
(0.846278 0.251323 7.94669e-20)
(0.857758 0.235394 -5.29654e-20)
(0.868635 0.220569 5.31796e-20)
(0.878923 0.206772 1.13388e-19)
(0.888992 0.193707 1.26868e-20)
(0.899113 0.181014 -8.49348e-20)
(0.906849 0.170043 -4.0982e-19)
(0.119086 0.172837 -1.53557e-19)
(0.289238 0.403001 4.40868e-20)
(0.413413 0.536181 -7.1853e-20)
(0.498606 0.595829 5.19881e-20)
(0.555974 0.60596 2.23383e-19)
(0.595816 0.587629 -2.35544e-19)
(0.625757 0.556097 -6.2657e-20)
(0.650577 0.520468 -4.34548e-19)
(0.67276 0.485177 -6.97792e-20)
(0.693382 0.451895 3.30841e-19)
(0.712846 0.421017 -1.83743e-19)
(0.731296 0.392481 2.99483e-19)
(0.748805 0.366114 3.62087e-19)
(0.765423 0.341734 7.75906e-20)
(0.781197 0.31917 2.16512e-19)
(0.79617 0.298267 -1.67844e-21)
(0.810381 0.278884 3.02944e-19)
(0.82387 0.260891 -2.3597e-19)
(0.836676 0.244168 -3.71189e-19)
(0.848832 0.228606 -1.67223e-19)
(0.860327 0.214127 -5.73729e-20)
(0.871185 0.200654 2.65568e-20)
(0.881761 0.187909 1.47777e-19)
(0.892275 0.17558 1.50721e-19)
(0.90041 0.164913 3.74054e-19)
(0.111746 0.171002 3.71125e-20)
(0.27186 0.397086 2.25109e-19)
(0.390205 0.5265 1.1578e-19)
(0.472671 0.583415 1.97868e-19)
(0.529511 0.592015 -1.7134e-19)
(0.570173 0.573165 -7.39748e-20)
(0.60161 0.541794 -1.77048e-19)
(0.628165 0.50669 1.24573e-19)
(0.652083 0.472066 -9.98076e-20)
(0.674341 0.439478 -4.50744e-19)
(0.69531 0.409271 -6.07483e-20)
(0.715136 0.381371 -3.0794e-19)
(0.733899 0.355603 8.20463e-20)
(0.751661 0.331787 1.2151e-19)
(0.768479 0.309755 -2.60061e-19)
(0.784406 0.289354 -9.49862e-22)
(0.799488 0.270445 -1.69626e-19)
(0.813773 0.252901 -1.1304e-19)
(0.827306 0.236602 1.56486e-19)
(0.840125 0.221441 1.91339e-19)
(0.852226 0.207343 2.14452e-19)
(0.863645 0.194226 -1.909e-19)
(0.874719 0.181833 -1.8859e-19)
(0.88563 0.169894 7.50108e-20)
(0.894183 0.159539 -3.10004e-19)
(0.104333 0.168497 1.51549e-19)
(0.254467 0.389753 -3.41116e-19)
(0.367133 0.515111 -1.79739e-19)
(0.447034 0.569281 1.43052e-19)
(0.503465 0.57647 4.70979e-20)
(0.545013 0.557265 2.97695e-19)
(0.577967 0.526211 -7.67308e-20)
(0.606247 0.491764 -6.69424e-20)
(0.631878 0.45792 3.64504e-21)
(0.655743 0.426122 1.07399e-19)
(0.67819 0.396672 4.74681e-19)
(0.699365 0.369485 -1.9876e-19)
(0.719358 0.344386 7.27177e-21)
(0.738242 0.321197 2.91885e-19)
(0.756084 0.299754 -5.08266e-19)
(0.772945 0.279907 4.97054e-20)
(0.788881 0.26152 1.75474e-20)
(0.803944 0.244466 -1.58609e-19)
(0.818189 0.228631 2.3176e-19)
(0.831657 0.213909 -1.13894e-19)
(0.844352 0.200223 1.91994e-19)
(0.856319 0.187494 2.00787e-19)
(0.867881 0.175482 1.45904e-19)
(0.879187 0.163954 7.65488e-20)
(0.888173 0.153923 -1.01654e-19)
(0.0968938 0.165325 7.53363e-20)
(0.237159 0.381018 -9.48154e-21)
(0.344314 0.502043 -2.13161e-22)
(0.421808 0.553461 -6.14063e-20)
(0.47794 0.559361 1.41126e-19)
(0.520426 0.539959 -4.23312e-19)
(0.554904 0.509374 2.66004e-19)
(0.58489 0.475715 2.42495e-19)
(0.612203 0.442761 2.15375e-19)
(0.637642 0.411848 -2.5326e-19)
(0.661533 0.383239 -4.79155e-19)
(0.684026 0.35684 4.22708e-19)
(0.705221 0.332478 -4.02905e-19)
(0.725202 0.309978 2.49733e-21)
(0.744043 0.289181 1.11821e-20)
(0.761816 0.269939 -5.20687e-20)
(0.778584 0.252119 4.42419e-19)
(0.794408 0.235599 2.50151e-19)
(0.809347 0.220265 1.54536e-19)
(0.823448 0.206016 -1.58293e-20)
(0.836724 0.192776 -3.2457e-19)
(0.849225 0.180464 -6.26957e-20)
(0.861264 0.168862 -1.61055e-19)
(0.87296 0.157764 -3.22502e-19)
(0.882384 0.148068 -3.07727e-20)
(0.0894778 0.161491 -1.81636e-19)
(0.220034 0.370904 6.98777e-20)
(0.321864 0.487334 1.45498e-19)
(0.397105 0.535996 -1.08087e-19)
(0.453034 0.54073 3.99074e-19)
(0.496498 0.521287 2.14505e-19)
(0.532496 0.491317 -6.08235e-20)
(0.56416 0.458572 6.07799e-20)
(0.593117 0.426614 -1.67959e-19)
(0.620089 0.396677 4.03775e-19)
(0.645386 0.368991 2.74039e-19)
(0.669163 0.343454 1.59741e-19)
(0.691528 0.319896 5.34725e-19)
(0.712574 0.298146 -3.92737e-19)
(0.732388 0.278049 1.56632e-19)
(0.751047 0.259462 -4.6114e-19)
(0.768625 0.242255 -2.68528e-19)
(0.785188 0.226309 -6.00924e-20)
(0.800801 0.211515 -4.91262e-19)
(0.815518 0.197772 4.28362e-19)
(0.829357 0.185008 -2.25178e-19)
(0.84238 0.173143 1.88218e-19)
(0.854881 0.161977 -3.94571e-20)
(0.866959 0.151326 2.12043e-19)
(0.876824 0.141981 -1.08821e-20)
(0.082132 0.157007 -1.04861e-19)
(0.203188 0.359443 6.31774e-20)
(0.299892 0.471023 -2.16579e-19)
(0.373031 0.516935 1.63944e-19)
(0.428843 0.520621 -2.46097e-19)
(0.47331 0.501289 -1.38638e-19)
(0.510814 0.472077 -7.53403e-20)
(0.54412 0.440366 1.07752e-19)
(0.574674 0.409507 -3.4925e-19)
(0.603135 0.380637 -9.04489e-20)
(0.629796 0.353953 2.64525e-20)
(0.654816 0.32935 -7.42054e-19)
(0.678314 0.30666 3.39244e-19)
(0.700393 0.28572 -8.31125e-20)
(0.721148 0.266376 8.8236e-21)
(0.740667 0.248492 1.1037e-19)
(0.759028 0.231942 -3.0225e-20)
(0.776306 0.21661 3.04266e-20)
(0.792572 0.202391 1.9622e-19)
(0.807885 0.189189 -2.06186e-21)
(0.822271 0.17693 -2.62265e-21)
(0.835797 0.165539 4.86819e-21)
(0.848746 0.154834 4.07127e-19)
(0.861196 0.144648 -1.52072e-19)
(0.8715 0.135668 6.66753e-20)
(0.0749032 0.151886 1.12718e-19)
(0.186714 0.346669 -1.58951e-19)
(0.278506 0.453162 2.9994e-19)
(0.34969 0.496328 -2.26877e-19)
(0.405459 0.499085 2.5923e-19)
(0.450943 0.48001 2.65908e-19)
(0.489927 0.451692 1.80912e-19)
(0.524829 0.421133 -1.70043e-20)
(0.556931 0.391472 9.96513e-21)
(0.586829 0.363755 -6.918e-20)
(0.614805 0.338151 2.11618e-19)
(0.641025 0.314551 1.99066e-19)
(0.665616 0.292793 -1.25659e-19)
(0.688691 0.272718 3.37565e-19)
(0.710355 0.25418 -7.82747e-20)
(0.730701 0.237046 4.04279e-19)
(0.749818 0.221195 1.90093e-19)
(0.767785 0.206516 4.11179e-20)
(0.784681 0.192907 -2.474e-20)
(0.800568 0.180276 -2.263e-19)
(0.815481 0.168552 2.69006e-19)
(0.829493 0.157662 -1.76534e-19)
(0.842871 0.14744 -2.09103e-19)
(0.855681 0.137737 1.90006e-20)
(0.86642 0.129139 1.55226e-19)
(0.0678366 0.146144 -2.38835e-20)
(0.170702 0.332624 2.76105e-19)
(0.257808 0.433803 -1.158e-19)
(0.327181 0.474236 -6.60475e-20)
(0.38297 0.476178 -1.11477e-19)
(0.429474 0.457501 -2.91091e-19)
(0.469903 0.430209 1.69336e-19)
(0.506348 0.400913 4.43644e-19)
(0.539939 0.372544 3.73293e-19)
(0.571218 0.346063 3.68057e-20)
(0.600457 0.321613 2.4831e-19)
(0.627829 0.299083 -2.72679e-19)
(0.653469 0.278317 -5.14131e-19)
(0.677501 0.259162 -2.86813e-19)
(0.700036 0.241479 1.15152e-20)
(0.721177 0.22514 2.25522e-19)
(0.741018 0.21003 2.28857e-19)
(0.759647 0.196041 5.22546e-21)
(0.777146 0.183076 1.87236e-19)
(0.793583 0.171047 -1.2386e-19)
(0.809002 0.159886 -2.23727e-19)
(0.823481 0.149521 -1.98781e-19)
(0.837271 0.139805 5.43464e-20)
(0.850426 0.1306 4.80754e-20)
(0.86159 0.122401 -1.43288e-19)
(0.0609764 0.139802 -3.8902e-19)
(0.155239 0.317356 9.54589e-20)
(0.237898 0.413008 2.26909e-20)
(0.305599 0.450719 2.88062e-19)
(0.36146 0.451959 -2.59854e-19)
(0.408975 0.433816 4.14766e-19)
(0.450804 0.407673 -2.82083e-19)
(0.488732 0.379747 -1.92273e-19)
(0.523748 0.352762 -5.19601e-19)
(0.556347 0.327596 7.27831e-20)
(0.586793 0.30437 -9.96427e-20)
(0.615265 0.282974 -1.58812e-19)
(0.641907 0.263258 2.45777e-19)
(0.666852 0.245077 9.69413e-20)
(0.690218 0.228297 -3.62496e-20)
(0.712118 0.212796 -2.1296e-19)
(0.732651 0.198465 -3.03375e-19)
(0.751911 0.185201 -1.54549e-19)
(0.769986 0.172913 -2.95057e-19)
(0.786949 0.161516 1.25799e-19)
(0.802851 0.150943 -4.33154e-20)
(0.817774 0.141128 6.02012e-19)
(0.831956 0.131939 -3.74849e-19)
(0.845441 0.123247 -1.71372e-19)
(0.857021 0.115466 2.41e-19)
(0.054365 0.132882 4.58402e-20)
(0.140408 0.300916 -9.5416e-20)
(0.21887 0.390843 -2.62871e-19)
(0.285032 0.425847 6.91081e-20)
(0.34101 0.426493 -4.38232e-20)
(0.389516 0.409012 -9.04214e-20)
(0.432692 0.384137 2.0894e-19)
(0.472036 0.357681 -5.16816e-19)
(0.508408 0.332165 2.92797e-19)
(0.54226 0.30839 -2.47974e-19)
(0.573853 0.286456 -2.24202e-19)
(0.603368 0.266255 1.48727e-19)
(0.630962 0.247645 1.00178e-19)
(0.656773 0.230487 2.09728e-19)
(0.68093 0.214655 3.05585e-19)
(0.703549 0.200034 6.01398e-20)
(0.724739 0.18652 4.15524e-19)
(0.744597 0.174016 -1.73633e-19)
(0.763218 0.162434 1.72032e-19)
(0.780681 0.151696 -1.76747e-19)
(0.797041 0.141737 2.30134e-19)
(0.812386 0.132496 -2.53581e-19)
(0.826938 0.123852 9.08267e-20)
(0.840737 0.115689 -6.45694e-20)
(0.852718 0.108344 -1.0165e-19)
(0.0480431 0.125412 2.92355e-19)
(0.126288 0.283364 -1.01529e-19)
(0.200813 0.367378 1.41923e-19)
(0.265567 0.399693 -5.66507e-21)
(0.321695 0.399846 3.10196e-19)
(0.371163 0.383149 -3.86823e-19)
(0.415623 0.359654 1.87735e-19)
(0.456309 0.334763 1.46794e-19)
(0.493962 0.310799 8.68133e-20)
(0.528998 0.288485 1.9995e-19)
(0.561672 0.267907 -1.27116e-19)
(0.592173 0.248959 4.31519e-19)
(0.620664 0.231507 -1.76734e-19)
(0.647293 0.21542 -1.18e-19)
(0.672194 0.200579 -3.25219e-19)
(0.695492 0.186877 -2.3046e-19)
(0.717301 0.174215 -8.54223e-20)
(0.737725 0.162502 2.25082e-19)
(0.756861 0.151657 -3.57778e-20)
(0.774794 0.141604 3.46025e-19)
(0.791587 0.132283 -4.10589e-20)
(0.807329 0.123635 -1.69236e-19)
(0.822228 0.115556 -8.14948e-20)
(0.836324 0.107936 6.27513e-20)
(0.848689 0.101045 -3.63102e-20)
(0.0420494 0.11742 1.62889e-20)
(0.112954 0.26476 -1.65772e-19)
(0.18381 0.34269 1.71277e-19)
(0.247283 0.372332 -5.32791e-20)
(0.303584 0.372092 9.12197e-20)
(0.353976 0.356293 1.15197e-19)
(0.399652 0.334282 -2.64585e-19)
(0.4416 0.311045 -2.60757e-19)
(0.480455 0.288708 1.22641e-20)
(0.516601 0.267923 -2.80995e-19)
(0.550287 0.248761 3.36643e-19)
(0.581711 0.231121 -3.42645e-19)
(0.611042 0.214875 1.78375e-19)
(0.638436 0.199904 8.9932e-21)
(0.664035 0.186095 1.32941e-19)
(0.687969 0.173349 2.38356e-19)
(0.710358 0.161572 7.04141e-20)
(0.73131 0.150681 -2.84337e-19)
(0.750928 0.140598 -7.44928e-20)
(0.769302 0.131256 -1.16598e-19)
(0.7865 0.122595 -1.40331e-20)
(0.802615 0.114562 5.10704e-20)
(0.817838 0.107064 1.35108e-19)
(0.832211 0.100001 1.01402e-19)
(0.844941 0.0935817 1.04759e-19)
(0.0364202 0.108937 -1.9291e-19)
(0.100475 0.245173 1.37922e-20)
(0.167939 0.316859 -8.14427e-20)
(0.230255 0.343847 3.36465e-19)
(0.286746 0.343304 -1.62837e-19)