/*--------------------------------*- C++ -*----------------------------------*\
  =========                 |
  \\      /  F ield         | OpenFOAM: The Open Source CFD Toolbox
   \\    /   O peration     | Website:  https://openfoam.org
    \\  /    A nd           | Version:  7
     \\/     M anipulation  |
\*---------------------------------------------------------------------------*/
FoamFile
{
    version     2.0;
    format      ascii;
    class       volScalarField;
    location    "9";
    object      p;
}
// * * * * * * * * * * * * * * * * * * * * * * * * * * * * * * * * * * * * * //

dimensions      [1 -1 -2 0 0 0 0];

internalField   nonuniform List<scalar> 
4032
(
1
1
1
1
1
1
1
1
1
1
1
1.32833
7.58821
10.6085
10.7406
10.9485
11.1334
11.3106
11.4739
11.6211
11.7521
11.8579
11.9388
11.9983
1
1
1
1
1
1
1
1
1
1
1
1.28933
7.42413
10.5747
10.7278
10.9299
11.1112
11.2837
11.4419
11.5822
11.705
11.8027
11.8744
11.9307
1
1
1
1
1
1
1
1
1
1
1
1.1859
7.1232
10.5455
10.6865
10.8871
11.0686
11.2395
11.3946
11.5295
11.6445
11.7329
11.7906
11.8381
1
1
1
1
1
1
1
1
1
1
1
1.01635
6.62298
10.4932
10.6329
10.8203
10.9919
11.1508
11.2964
11.4247
11.5357
11.6198
11.668
11.7049
1
1
1
1
1
1
1
1
1
1
1
1.00019
5.94965
10.3162
10.5
10.6845
10.8598
11.0169
11.1562
11.2705
11.3594
11.4249
11.4589
11.5074
1
1
1
1
1
1
1
1
1
1
1
0.999999
5.10508
10.0846
10.3887
10.558
10.7252
10.8644
10.9827
11.0798
11.1571
11.2167
11.2291
11.1889
1
1
1
1
1
1
1
1
1
1
1
1
4.13629
9.72953
10.2721
10.4293
10.5739
10.6829
10.7653
10.8236
10.8435
10.8075
10.7401
10.6956
1
1
1
1
1
1
1
1
1
1
1
1
3.08955
9.17924
10.1851
10.3229
10.4374
10.5103
10.5431
10.5456
10.4983
10.4208
10.2927
10.2803
1
1
1
1
1
1
1
1
1
1
1
1
2.0065
8.31726
10.1426
10.1977
10.2887
10.3292
10.3133
10.2516
10.1059
9.84
9.06146
7.1725
1
1
1
1
1
1
1
1
1
1
1
1
1.12688
7.17976
10.1922
10.0917
10.0885
10.0765
10.0188
9.89258
9.65287
9.18087
8.37564
6.31587
1
1
1
1
1
1
1
1
1
1
1
1
1.00155
5.56891
9.58916
9.72507
9.78861
9.76534
9.68959
9.51474
9.2171
8.65422
7.82409
5.89848
1
1
1
1
1
1
1
1
1
1
1
1
0.999977
3.69843
9.00821
9.59078
9.61978
9.5557
9.4353
9.20559
8.84682
8.27351
7.37498
5.80295
1
1
1
1
1
1
1
1
1
1
1
1
0.999994
1.96537
8.04914
9.53065
9.44283
9.33315
9.17401
8.90915
8.51387
7.95438
7.05754
5.83985
1
1
1
1
1
1
1
1
1
1
1
1
0.999999
1.09669
6.28779
9.20123
9.19006
9.09191
8.92362
8.65113
8.26125
7.69903
6.87576
5.91848
1
1
1
1
1
1
1
1
1
1
1
1
1
1.0005
3.83784
8.60836
9.04103
8.93805
8.75152
8.44161
8.05558
7.48554
6.76876
5.98155
1
1
1
1
1
1
1
1
1
1
1
1
1
0.999994
1.62216
7.6365
9.07558
8.79725
8.55907
8.24702
7.83502
7.32963
6.71969
6.04718
1
1
1
1
1
1
1
1
1
1
1
1
1
0.999999
1.03389
5.60485
8.64591
8.4589
8.29479
8.02617
7.65966
7.2098
6.67812
6.09091
1
1
1
1
1
1
1
1
1
1
1
1
1
1
0.99997
2.80132
7.90627
8.34945
8.20263
7.93827
7.58197
7.14701
6.65161
6.12569
1
1
1
1
1
1
1
1
1
1
1
1
1
1
0.999988
1.2277
6.07846
8.30077
8.11737
7.83553
7.48403
7.077
6.62433
6.14632
1
1
1
1
1
1
1
1
1
1
1
1
1
1
0.999998
1.004
3.23341
7.6047
7.99307
7.71328
7.3921
7.01614
6.59863
6.1529
1
1
1
1
1
1
1
1
1
1
1
1
1
1
1
1
1.34018
5.98471
7.96069
7.65437
7.34519
6.97278
6.56584
6.14402
1
1
1
1
1
1
1
1
1
1
1
1
1
1
1
1
1.00928
3.11247
7.23966
7.5742
7.25132
6.88849
6.50204
6.1601
1
1
1
1
1
1
1
1
1
1
1
1
1
1
1
1
1.00003
1.30919
5.4811
7.60221
7.1749
6.82475
6.52552
6.42844
1
1
1
1
1
1
1
1
1
1
1
1
1
1
1
1
1
1.00799
2.52369
6.66955
7.01673
6.77317
6.781
7.23098
1
1
1
1
1
1
1
1
1
1
1
1
1
1
1
1
1
1.00004
1.16526
4.47792
6.7408
7.26515
7.84411
8.43222
1
1
1
1
1
1
1
1
1
1
1
1
1
1
1
1
1
1
1.00298
1.84931
5.36519
8.46873
9.13152
9.30692
1
1
1
1
1
1
1
1
1
1
1
1
1
1
1
1
1
1
1.00001
1.05517
3.70941
9.51566
10.0965
9.69881
1
1
1
1
1
1
1
1
1
1
1
1
1
1
1
1
1
1
1
1.00066
2.45671
9.91348
10.6577
9.97744
1
1
1
1
1
1
1
1
1
1
1
1
1
1
1
1
1
1
1
1
2.26599
9.36798
10.4126
9.849
1
1
1
1
1
1
1
1
1
1
1
1
1
1
1
1
1
1
1
1
1.94898
8.56481
10.3814
9.97824
1
1
1
1
1
1
1
1
1
1
1
1
1
1
1
1
1
1
1
1
1.56312
8.00442
10.3665
9.98117
1
1
1
1
1
1
1
1
1
1
1
1
1
1
1
1
1
1
1
1
1.19696
7.32697
10.374
10.0523
1
1
1
1
1
1
1
1
1
1
1
1
1
1
1
1
1
1
1
1
1.00804
6.78073
10.3244
10.0605
1
1
1
1
1
1
1
1
1
1
1
1
1
1
1
1
1
1
1
1
1.00004
6.19418
10.2166
10.0742
1
1
1
1
1
1
1
1
1
1
1
1
1
1
1
1
1
1
1
1
1
5.68202
10.1447
10.1371
1
1
1
1
1
1
1
1
1
1
1
1
1
1
1
1
1
1
1
1
1
5.20344
10.0998
10.1819
1
1
1
1
1
1
1
1
1
1
1
1
1
1
1
1
1
1
1
1
1
4.8164
10.0657
10.2233
1
1
1
1
1
1
1
1
1
1
1
1
1
1
1
1
1
1
1
1
1
4.52824
10.0323
10.2557
1
1
1
1
1
1
1
1
1
1
1
1
1
1
1
1
1
1
1
1
1
4.3446
9.99725
10.2719
1
1
1
1
1
1
1
1
1
1
1
1
1
1
1
1
1
1
1
1
1
4.27172
9.96132
10.2725
1.57094
0.470417
0.172205
0.126631
0.154128
0.253478
0.388402
0.5172
0.680348
0.789166
0.862748
0.941732
1.05799
1.20015
1.24098
2.08149
4.5616
5.06382
5.12309
5.2411
5.35579
5.43039
5.43129
5.40556
5.37602
5.37989
5.41762
5.44269
5.42926
5.39514
5.36484
5.34844
5.33407
5.30185
5.25262
5.20399
5.16774
5.1414
5.11339
5.07134
5.01299
4.94789
4.89362
4.85997
4.83884
4.80536
4.73795
4.6521
4.56949
4.50188
4.45678
4.42775
4.38904
4.3249
4.2483
4.17307
4.10695
4.05461
4.01378
3.96975
3.90658
3.83217
3.75958
3.69378
3.63718
3.58344
3.52531
3.46682
3.40939
3.35731
3.30964
3.26551
3.21909
3.17148
3.12017
3.06388
3.00746
2.95587
2.90926
2.86497
2.82029
2.77231
2.72121
2.66879
2.63095
2.64628
2.80457
3.58355
4.70946
4.75498
4.60229
4.49666
4.42556
4.38134
4.36774
4.39336
2.7338
1.47324
0.979043
0.622381
0.486218
0.508289
0.538969
0.522995
0.519855
0.559332
0.622457
0.703136
0.808224
0.933306
1.01491
1.75845
4.38723
5.09726
5.17164
5.30484
5.42629
5.45924
5.4395
5.40548
5.37458
5.37727
5.41368
5.43941
5.42429
5.38253
5.34287
5.32123
5.31426
5.30208
5.26777
5.21325
5.15366
5.10198
5.06373
5.03486
5.0073
4.97113
4.91733
4.85818
4.80549
4.76105
4.71606
4.65593
4.58234
4.50833
4.44483
4.39358
4.35058
4.3067
4.25309
4.18638
4.11497
4.04883
3.98977
3.93966
3.89326
3.83419
3.76595
3.69825
3.63727
3.57744
3.51974
3.46431
3.40913
3.35353
3.29985
3.25085
3.20521
3.16114
3.11571
3.06902
3.01992
2.96791
2.91472
2.8631
2.81437
2.76771
2.72224
2.68139
2.67551
2.73116
2.94753
3.55079
4.56248
4.66244
4.54926
4.48399
4.43107
4.38568
4.36074
4.36207
3.59957
2.33616
1.75921
1.33747
0.91276
0.769784
0.728922
0.672681
0.586411
0.570063
0.606924
0.674914
0.730037
0.787911
0.84994
1.14092
3.98427
5.36067
5.28293
5.31113
5.41232
5.46228
5.44598
5.4074
5.38602
5.39188
5.42599
5.45371
5.45108
5.41687
5.37017
5.32924
5.30272
5.28892
5.27861
5.25749
5.21034
5.13999
5.06721
5.00728
4.97199
4.96425
4.95967
4.91411
4.83705
4.75841
4.6902
4.63496
4.58958
4.54242
4.48012
4.40904
4.33934
4.27943
4.23129
4.18976
4.14166
4.07647
4.00286
3.93351
3.87348
3.82073
3.7666
3.70883
3.64798
3.58207
3.51655
3.46138
3.41354
3.36588
3.31474
3.25813
3.19586
3.13505
3.08898
3.05146
3.01328
2.97276
2.92649
2.86954
2.80785
2.75757
2.72877
2.72398
2.77103
2.91726
3.16381
3.48487
4.27297
4.56159
4.50558
4.48574
4.46328
4.43337
4.40095
4.35797
4.25391
3.08233
2.38838
1.95968
1.53086
1.17778
1.04986
0.98617
0.88992
0.791754
0.745303
0.724985
0.696272
0.698295
0.728623
0.818419
2.65625
5.37021
5.53468
5.42987
5.46905
5.50407
5.47839
5.43993
5.42094
5.41758
5.427
5.43057
5.42353
5.40812
5.38112
5.34301
5.30133
5.2623
5.23119
5.2121
5.19449
5.15134
5.08329
5.01398
4.95718
4.92378
4.91837
4.89771
4.8382
4.7628
4.67943
4.61186
4.55636
4.51574
4.47265
4.41059
4.34195
4.27371
4.21451
4.16401
4.11925
4.06304
3.99998
3.93147
3.86493
3.80585
3.75003
3.69645
3.64096
3.5796
3.50971
3.4423
3.3914
3.34992
3.30834
3.26394
3.21204
3.15053
3.08831
3.03829
2.99857
2.95992
2.91833
2.8677
2.80415
2.74738
2.73547
2.77034
2.89531
3.15023
3.38037
3.47849
3.90075
4.37692
4.47948
4.44595
4.41797
4.42197
4.41939
4.38588
4.68396
3.68042
2.96439
2.50043
2.06511
1.65684
1.39571
1.25846
1.16793
1.07809
0.961614
0.841515
0.759172
0.761142
0.821736
0.966961
1.47567
4.04248
5.66605
5.66655
5.56501
5.48456
5.46001
5.46502
5.47998
5.49237
5.47931
5.45076
5.42306
5.40123
5.38322
5.35907
5.32368
5.28125
5.23863
5.20317
5.1755
5.14061
5.08824
5.03013
4.97595
4.93492
4.91281
4.87822
4.8241
4.76057
4.68403
4.61588
4.55797
4.50913
4.45725
4.39935
4.33977
4.27747
4.22034
4.16714
4.11151
4.05263
3.99019
3.92556
3.86299
3.8023
3.74527
3.69058
3.63666
3.57928
3.51458
3.44496
3.38324
3.33363
3.29071
3.24897
3.20524
3.15441
3.09486
3.03637
2.98905
2.94819
2.90648
2.86309
2.81693
2.78119
2.79645
2.89677
3.09831
3.34564
3.51824
3.5065
3.60711
4.01914
4.36283
4.45066
4.4237
4.40373
4.41062
4.39918
5.02601
4.17449
3.42614
2.95286
2.54507
2.12831
1.81653
1.54323
1.37733
1.31605
1.2284
1.10658
1.03849
1.06615
1.17183
1.36017
1.44622
2.14218
4.40337
5.64636
5.71157
5.60315
5.47909
5.48923
5.53867
5.54826
5.50995
5.46349
5.43054
5.40177
5.37816
5.3518
5.31578
5.27341
5.22963
5.19018
5.15897
5.12473
5.07518
5.02012
4.9672
4.92585
4.89546
4.85355
4.80254
4.74284
4.66836
4.59909
4.54561
4.49496
4.43972
4.38412
4.32668
4.26622
4.20642
4.14974
4.09316
4.03518
3.9752
3.91388
3.85105
3.78859
3.72894
3.6737
3.62041
3.56604
3.50705
3.44267
3.378
3.32401
3.28049
3.24058
3.19897
3.15188
3.09501
3.03026
2.97039
2.92492
2.88391
2.85267
2.83695
2.85075
2.93239
3.14088
3.34941
3.48922
3.56425
3.54666
3.51401
3.67914
4.04423
4.31186
4.42563
4.39255
4.3683
4.37279
5.23262
4.51987
3.82819
3.31522
2.91991
2.50107
2.16706
1.91598
1.67594
1.50061
1.43951
1.398
1.46153
1.5666
1.65959
1.79442
1.76722
1.80457
2.48053
4.45207
5.52205
5.74965
5.65021
5.58256
5.58317
5.56433
5.53202
5.49094
5.4539
5.42006
5.38712
5.35342
5.31437
5.27016
5.22498
5.18477
5.15243
5.11642
5.06927
5.01863
4.9639
4.91544
4.87515
4.83178
4.78397
4.72834
4.65806
4.58316
4.52687
4.47471
4.42276
4.372
4.31961
4.26215
4.19782
4.13084
4.06873
4.012
3.95732
3.90156
3.84275
3.78004
3.71575
3.6554
3.60079
3.54918
3.49669
3.43937
3.37578
3.31414
3.26571
3.22556
3.18664
3.14447
3.09408
3.03003
2.95872
2.90408
2.86811
2.86189
2.89327
2.98065
3.17805
3.4396
3.54636
3.56833
3.56692
3.56262
3.51543
3.53278
3.6958
4.00333
4.28023
4.38817
4.38053
4.3696
5.39103
4.77481
4.15785
3.61753
3.23295
2.85376
2.44385
2.16515
1.97725
1.85684
1.83723
1.84455
2.0391
2.11235
2.1284
2.16335
2.12499
2.03755
2.08948
2.69362
4.29924
5.42551
5.84467
5.76802
5.67394
5.57108
5.53207
5.50001
5.4654
5.42516
5.38413
5.34524
5.30706
5.26619
5.22371
5.18419
5.14539
5.1006
5.05372
5.00558
4.95323
4.89803
4.85084
4.80813
4.76243
4.70939
4.64421
4.56905
4.50256
4.44886
4.40073
4.35399
4.30501
4.24979
4.18336
4.10736
4.03854
3.98332
3.93338
3.88306
3.82918
3.76849
3.70077
3.6338
3.57689
3.52867
3.48308
3.43402
3.37587
3.30921
3.24906
3.20423
3.16538
3.12644
3.08119
3.02436
2.95488
2.89347
2.88012
2.9092
3.02148
3.20995
3.49312
3.67013
3.6861
3.62986
3.57955
3.5574
3.52614
3.4926
3.52956
3.67668
3.96063
4.21386
4.33146
4.37451
5.50749
4.94948
4.4063
3.87894
3.45233
3.11596
2.77409
2.4796
2.31995
2.41142
2.46998
2.44772
2.57622
2.57681
2.48003
2.47098
2.42645
2.35452
2.302
2.34096
2.78247
4.15392
5.44967
5.83847
5.77051
5.64058
5.54344
5.50048
5.47084
5.43003
5.38195
5.33807
5.30007
5.26567
5.22811
5.18362
5.13347
5.0818
5.03339
4.98591
4.93703
4.88393
4.83138
4.7864
4.74165
4.69024
4.62982
4.55988
4.48671
4.42683
4.37929
4.33379
4.28573
4.2315
4.16548
4.08574
4.01044
3.95447
3.90792
3.86191
3.81217
3.75465
3.6859
3.61265
3.55177
3.50606
3.46504
3.42212
3.37089
3.30666
3.23737
3.18201
3.14005
3.10176
3.05938
3.01393
2.96078
2.92171
2.93882
3.04649
3.25801
3.48894
3.72321
3.7701
3.755
3.6905
3.60606
3.5602
3.53154
3.49475
3.48095
3.516
3.64412
3.90011
4.13827
4.3181
5.59256
5.07941
4.58447
4.09544
3.66665
3.36657
3.1528
2.99448
2.97222
3.16079
3.16778
3.01714
2.99008
2.9654
2.83579
2.79736
2.7393
2.6529
2.6201
2.53799
2.55126
2.8688
4.06785
5.40775
5.72293
5.69439
5.60577
5.54236
5.49403
5.44333
5.38423
5.33632
5.29648
5.26594
5.22615
5.17615
5.11629
5.05582
5.00673
4.96187
4.91769
4.86952
4.81378
4.76002
4.711
4.65915
4.60413
4.54357
4.47438
4.40703
4.35273
4.30478
4.25602
4.20275
4.14055
4.06513
3.98591
3.92386
3.87768
3.83496
3.78965
3.73716
3.67192
3.59505
3.5266
3.4791
3.44091
3.40241
3.35834
3.3023
3.23283
3.16255
3.11039
3.06981
3.03443
3.00757
2.99014
3.00587
3.10493
3.33978
3.54341
3.69896
3.7968
3.80465
3.77499
3.72542
3.65765
3.58299
3.54121
3.51126
3.48151
3.47243
3.50861
3.619
3.82423
4.14431
5.64799
5.17171
4.71968
4.29101
3.94021
3.79439
3.81892
3.74295
3.72296
3.79806
3.71053
3.46773
3.30659
3.2837
3.1907
3.13436
3.06656
2.93852
2.88403
2.82835
2.72403
2.73469
2.95923
3.97062
5.16325
5.5345
5.65308
5.61838
5.54802
5.46791
5.38247
5.32953
5.28996
5.26229
5.22058
5.16705
5.09751
5.027
4.97961
4.93978
4.90119
4.85604
4.79896
4.73257
4.67011
4.61657
4.56762
4.51691
4.45888
4.3922
4.32619
4.26984
4.21832
4.1658
4.10873
4.0425
3.96672
3.89642
3.84472
3.80295
3.7613
3.71446
3.65663
3.58381
3.50775
3.45114
3.41094
3.37448
3.33534
3.28875
3.22726
3.15398
3.08585
3.0405
3.02145
3.02781
3.07587
3.20029
3.46021
3.69793
3.76315
3.79682
3.79947
3.80221
3.77484
3.74016
3.6988
3.63679
3.57192
3.53328
3.5032
3.47701
3.46934
3.50777
3.57489
3.85811
5.68611
5.25288
4.88468
4.60823
4.50695
4.61464
4.6891
4.47466
4.33374
4.26171
4.11235
3.88076
3.64991
3.59134
3.53957
3.45604
3.36914
3.22906
3.14849
3.09683
3.02056
2.9003
2.91358
3.05824
3.79144
4.85981
5.42951
5.64056
5.61312
5.52521
5.38954
5.31756
5.27923
5.25613
5.21645
5.16046
5.08119
4.99898
4.95171
4.91611
4.8845
4.84086
4.78217
4.70401
4.62313
4.56805
4.52494
4.48207
4.43391
4.37367
4.30048
4.23102
4.17408
4.12224
4.0701
4.01324
3.94654
3.87228
3.80871
3.76307
3.72368
3.6829
3.63553
3.5753
3.5004
3.42712
3.3743
3.33445
3.29761
3.25796
3.21011
3.15023
3.08132
3.0357
3.04196
3.10863
3.27609
3.51434
3.81507
3.90888
3.89618
3.84357
3.80253
3.78271
3.76621
3.74664
3.71958
3.68153
3.62658
3.56913
3.53254
3.50227
3.47377
3.46661
3.49474
3.61463
5.73272
5.41983
5.32742
5.3725
5.38328
5.44814
5.30053
4.95646
4.74118
4.61303
4.48124
4.27759
4.0195
3.90654
3.86697
3.77504
3.66307
3.49836
3.4037
3.34489
3.2722
3.18527
3.05694
3.02771
3.09736
3.6153
4.58634
5.29648
5.58165
5.56363
5.41917
5.31043
5.26671
5.24754
5.21134
5.15364
5.06816
4.97238
4.92212
4.88794
4.86151
4.81885
4.75987
4.67594
4.57965
4.52397
4.48542
4.44706
4.40341
4.34783
4.27313
4.19134
4.12657
4.0759
4.02915
3.98056
3.92411
3.8536
3.77757
3.71954
3.67849
3.64204
3.6042
3.55873
3.49684
3.41781
3.34438
3.29173
3.25347
3.21864
3.18082
3.14506
3.10461
3.10038
3.16531
3.36291
3.58449
3.80919
3.97651
3.98466
3.96032
3.89564
3.82206
3.78093
3.75666
3.74487
3.72989
3.70355
3.66878
3.62142
3.56944
3.53403
3.50224
3.47098
3.45678
3.49447
5.90294
5.95587
6.22322
6.26982
6.1676
6.0117
5.70687
5.35083
5.09009
4.94764
4.8431
4.65221
4.38189
4.21589
4.15598
4.08065
3.96167
3.78931
3.63611
3.57996
3.50586
3.43517
3.31958
3.16487
3.09761
3.12879
3.47624
4.31632
5.1171
5.43895
5.42389
5.32346
5.26479
5.24162
5.20259
5.14298
5.06
4.95375
4.89564
4.85789
4.82877
4.78406
4.72596
4.64463
4.54255
4.48383
4.44753
4.411
4.36846
4.31502
4.24199
4.15252
4.07615
4.02331
3.98046
3.9389
3.89292
3.83456
3.75971
3.68478
3.63007
3.59135
3.55718
3.52165
3.47661
3.41248
3.3323
3.25861
3.20898
3.17432
3.15354
3.15277
3.18202
3.27007
3.49298
3.73471
3.85598
3.96082
4.01143
4.0095
3.98061
3.93524
3.87305
3.8045
3.76515
3.74375
3.73256
3.71617
3.69014
3.65799
3.61318
3.56374
3.53117
3.49875
3.46355
3.44745
6.63729
7.01344
7.11341
6.8426
6.6328
6.36115
6.03389
5.73017
5.4664
5.29747
5.18537
5.00225
4.73084
4.52725
4.43848
4.36424
4.24084
4.06509
3.89433
3.81018
3.73061
3.64732
3.55155
3.39793
3.23447
3.16072
3.17651
3.37922
4.03008
4.81866
5.22843
5.26152
5.26391
5.24691
5.20039
5.12766
5.04953
4.93901
4.86928
4.82684
4.79136
4.74253
4.68552
4.61202
4.51207
4.44609
4.4092
4.3704
4.32398
4.27137
4.20633
4.12297
4.03837
3.97526
3.92886
3.88832
3.84791
3.80127
3.74239
3.67121
3.60095
3.5466
3.50605
3.47012
3.43237
3.38239
3.31656
3.24233
3.17761
3.15344
3.16567
3.22902
3.37399
3.60293
3.91218
4.01534
4.026
4.02127
4.00696
4.00539
3.98165
3.95103
3.91298
3.85539
3.79446
3.76168
3.74149
3.72788
3.7071
3.67988
3.64496
3.59689
3.55142
3.52323
3.4909
3.4431
7.71514
7.9243
7.6244
7.21538
6.95088
6.66558
6.33464
6.07268
5.85182
5.64272
5.49482
5.32417
5.06484
4.83338
4.71621
4.63218
4.50017
4.32031
4.13622
4.0423
3.95459
3.85078
3.75197
3.61211
3.44489
3.31705
3.23167
3.25977
3.3617
3.7653
4.476
4.9566
5.10003
5.21231
5.20216
5.13846
5.04258
4.92109
4.83586
4.78563
4.74427
4.69749
4.64476
4.57988
4.48719
4.41407
4.36437
4.31425
4.26273
4.21089
4.15634
4.08979
4.0126
3.94028
3.87956
3.82947
3.78683
3.74639
3.70482
3.6543
3.59073
3.52382
3.46266
3.40711
3.36092
3.3224
3.28105
3.23935
3.19003
3.19437
3.26513
3.4625
3.69035
3.95494
4.14561
4.15367
4.12596
4.05512
4.01274
3.99188
3.97742
3.95894
3.93241
3.89507
3.83813
3.78609
3.75951
3.73994
3.72001
3.69458
3.6647
3.62645
3.57686
3.53644
3.5124
3.46092
8.60488
8.37703
7.90078
7.51527
7.27678
7.01338
6.6659
6.39497
6.22504
5.99886
5.79625
5.6235
5.38191
5.13765
4.99518
4.89861
4.7595
4.57375
4.38143
4.25596
4.16995
4.05948
3.93988
3.81094
3.63866
3.51615
3.40478
3.30494
3.29545
3.32629
3.55079
4.11305
4.64569
4.97817
5.11507
5.1155
5.03952
4.91451
4.81609
4.74544
4.69308
4.65041
4.61124
4.54471
4.45841
4.38805
4.32412
4.26034
4.20367
4.15656
4.10306
4.04328
3.97546
3.91666
3.85451
3.78625
3.73816
3.70615
3.66919
3.62131
3.56519
3.5017
3.43332
3.37328
3.32235
3.28206
3.25641
3.24697
3.26736
3.3592
3.58521
3.82787
3.99111
4.14851
4.20452
4.19633
4.16504
4.09784
4.03336
4.00302
3.98402
3.97092
3.94964
3.92195
3.88089
3.8228
3.77941
3.75417
3.73178
3.70834
3.68221
3.65175
3.61097
3.5569
3.52307
3.47438
9.04626
8.6204
8.10954
7.7818
7.5874
7.34308
6.99517
6.71065
6.55859
6.35242
6.08961
5.88543
5.66873
5.43058
5.26775
5.15185
5.01073
4.81568
4.62106
4.468
4.35865
4.25367
4.12392
3.99043
3.83978
3.685
3.58584
3.46843
3.35682
3.30889
3.28666
3.3863
3.76967
4.32371
4.83432
4.98153
4.94708
4.89397
4.80598
4.72802
4.66855
4.61468
4.53866
4.46829
4.41562
4.35937
4.30463
4.24796
4.17373
4.07176
3.98959
3.95495
3.93317
3.8984
3.85049
3.78452
3.69436
3.61705
3.58218
3.56096
3.53594
3.48893
3.41853
3.31896
3.25152
3.23903
3.24632
3.30804
3.46292
3.73485
4.03739
4.12712
4.17511
4.20485
4.21087
4.20406
4.17683
4.13428
4.07069
4.02003
3.99674
3.98247
3.96413
3.93876
3.90609
3.85776
3.80016
3.76149
3.73755
3.718
3.69701
3.67155
3.63895
3.58788
3.53364
3.48463
9.30933
8.86468
8.39691
8.10667
7.92092
7.66487
7.31179
7.02026
6.86108
6.67608
6.38966
6.13371
5.94541
5.73158
5.54738
5.4001
5.24805
5.0527
4.84251
4.68503
4.54828
4.43318
4.3073
4.16384
4.01753
3.86545
3.73786
3.63333
3.51139
3.383
3.2906
3.24779
3.27899
3.51581
4.0546
4.57521
4.72185
4.77588
4.78996
4.74808
4.67051
4.57312
4.46126
4.37299
4.32261
4.28371
4.24139
4.18637
4.11284
4.01025
3.92029
3.87429
3.84396
3.81511
3.77998
3.7312
3.65366
3.56846
3.52133
3.4894
3.453
3.40983
3.35672
3.28592
3.24636
3.25073
3.33498
3.55654
3.83414
4.15503
4.28877
4.28472
4.25104
4.22674
4.21853
4.22249
4.19648
4.15987
4.11013
4.04571
4.00886
3.99292
3.9772
3.95191
3.92288
3.88785
3.83621
3.78253
3.75544
3.73779
3.71707
3.6905
3.65846
3.61876
3.5694
3.49713
9.54215
9.06465
8.64758
8.397
8.21949
7.95593
7.61089
7.31256
7.13942
6.95475
6.6727
6.37714
6.19438
6.01195
5.81225
5.6322
5.45629
5.26612
5.05679
4.88294
4.73999
4.60041
4.47149
4.33159
4.17597
4.0248
3.88564
3.76956
3.66078
3.53647
3.40445
3.29777
3.21493
3.21671
3.3566
3.75555
4.19613
4.47878
4.67372
4.69579
4.64703
4.5421
4.41307
4.32121
4.26616
4.22094
4.17178
4.11459
4.03881
3.94725
3.87778
3.83422
3.80078
3.76607
3.72433
3.67041
3.59933
3.52367
3.46806
3.42946
3.38996
3.35302
3.32314
3.28392
3.29488
3.40191
3.66882
3.93324
4.16583
4.33195
4.35299
4.34087
4.29327
4.23976
4.2156
4.20073
4.19705
4.18084
4.14817
4.09715
4.03632
3.99344
3.97682
3.97117
3.95384
3.92602
3.88658
3.83293
3.77444
3.72768
3.706
3.69311
3.67728
3.64967
3.61023
3.52529
9.52919
9.24065
8.95742
8.70282
8.50135
8.2268
7.88269
7.5991
7.42394
7.24266
6.96986
6.6704
6.46463
6.27905
6.05924
5.85411
5.64468
5.4371
5.24547
5.07462
4.92423
4.77877
4.62584
4.46546
4.3052
4.15549
4.02353
3.90623
3.79226
3.67084
3.53044
3.38492
3.26599
3.21159
3.17367
3.225
3.47278
3.86016
4.31214
4.57295
4.54966
4.46848
4.37151
4.29437
4.22772
4.16794
4.10689
4.04182
3.97179
3.90821
3.85366
3.79838
3.74412
3.69873
3.65629
3.61125
3.56128
3.50392
3.43446
3.36276
3.31493
3.29986
3.30991
3.3697
3.53841
3.84596
4.11679
4.23383
4.31825
4.38521
4.38906
4.37085
4.32553
4.25939
4.21397
4.19558
4.18516
4.17936
4.1618
4.13514
4.08888
4.02749
3.9844
3.96202
3.94395
3.92382
3.90006
3.86683
3.81486
3.75863
3.7182
3.68988
3.6654
3.63954
3.61541
3.56196
9.76564
9.49696
9.20905
8.93659
8.71488
8.47267
8.14583
7.8549
7.65386
7.45533
7.19154
6.88671
6.67896
6.53577
6.32999
6.10091
5.88646
5.67538
5.48969
5.32548
5.16782
5.0082
4.84026
4.66976
4.5097
4.36509
4.23153
4.1032
3.9746
3.84213
3.70456
3.56252
3.43317
3.30582
3.18854
3.12456
3.14104
3.2689
3.59822
4.07814
4.29183
4.33507
4.33462
4.28793
4.20966
4.11848
4.02789
3.95362
3.90676
3.86796
3.82429
3.76417
3.68368
3.61416
3.57822
3.54754
3.51309
3.46616
3.39993
3.32246
3.2917
3.30011
3.3914
3.63566
3.97031
4.28974
4.38958
4.38602
4.38761
4.37985
4.37695
4.359
4.3339
4.29587
4.24117
4.20288
4.18414
4.17212
4.15841
4.13726
4.10979
4.0661
4.00914
3.97116
3.94671
3.92313
3.89761
3.86821
3.83335
3.78984
3.74136
3.70144
3.67065
3.64157
3.61662
3.56749
9.80601
9.57132
9.33728
9.11848
8.89154
8.61554
8.30928
8.04671
7.84508
7.66519
7.41511
7.10807
6.87198
6.70119
6.50112
6.25155
6.00976
5.79436
5.60523
5.43433
5.26509
5.09025
4.90962
4.73174
4.56814
4.42205
4.28566
4.15065
4.01183
3.86951
3.726
3.58951
3.45994
3.34788
3.24614
3.15201
3.07438
3.04114
3.09964
3.36279
3.77725
4.06345
4.25628
4.27119
4.20254
4.07192
3.93915
3.87892
3.8431
3.82179
3.78838
3.73141
3.6455
3.54609
3.49593
3.46621
3.44243
3.40692
3.36976
3.3409
3.33213
3.42851
3.71824
4.0301
4.3092
4.49421
4.51124
4.46955
4.38567
4.34403
4.33202
4.33427
4.33324
4.32013
4.2827
4.228
4.19564
4.1763
4.15798
4.13862
4.11621
4.08415
4.0346
3.98752
3.95686
3.93123
3.90518
3.8779
3.84733
3.80902
3.76128
3.71532
3.68072
3.65123
3.62682
3.57861
9.88988
9.67456
9.45822
9.23727
9.00007
8.73786
8.47935
8.25154
8.05647
7.83785
7.54598
7.25107
7.02596
6.85646
6.65781
6.40933
6.15084
5.94413
5.75832
5.58262
5.40847
5.22572
5.03371
4.8457
4.67657
4.52696
4.38725
4.24931
4.10672
3.95808
3.80836
3.66995
3.54164
3.42841
3.3192
3.21749
3.10595
3.0145
2.9392
2.9654
3.17399
3.52836
3.89119
4.14805
4.15265
4.05281
3.90024
3.81322
3.77374
3.75742
3.73696
3.69011
3.62176
3.51701
3.42218
3.37891
3.34968
3.33874
3.37044
3.40255
3.53851
3.8843
4.17811
4.34099
4.50199
4.54453
4.52435
4.47154
4.39269
4.3514
4.33904
4.33661
4.33511
4.32014
4.29176
4.24788
4.2086
4.18426
4.1651
4.14548
4.12298
4.09321
4.05118
4.00416
3.96626
3.93736
3.91179
3.88597
3.85711
3.82223
3.77864
3.73182
3.69117
3.6575
3.63271
3.58623
9.89245
9.70896
9.5184
9.30307
9.06912
8.82735
8.59347
8.3759
8.16645
7.9182
7.64067
7.38482
7.18314
7.01509
6.79645
6.52942
6.25853
6.05947
5.87575
5.69444
5.51548
5.32378
5.12079
4.9277
4.75973
4.61053
4.4696
4.32861
4.17959
4.02213
3.86839
3.73151
3.60964
3.49541
3.38469
3.27227
3.157
3.03789
2.94482
2.87372
2.88151
3.0079
3.31143
3.70256
4.00045
4.01446
3.91517
3.78581
3.71671
3.67793
3.65638
3.62093
3.57471
3.49703
3.39028
3.32687
3.30047
3.32534
3.40723
3.61828
4.01469
4.38146
4.45272
4.47896
4.49856
4.4961
4.47602
4.45144
4.41814
4.38382
4.36318
4.35009
4.33752
4.31867
4.29219
4.26066
4.22874
4.20022
4.17666
4.15517
4.13064
4.09935
4.06128
4.02096
3.9828
3.9488
3.9196
3.89242
3.86293
3.82832
3.78785
3.74483
3.70411
3.66774
3.64151
3.59449
9.89827
9.72615
9.53839
9.33635
9.1236
8.90726
8.69417
8.48173
8.25557
7.99943
7.74028
7.50563
7.31358
7.12229
6.87871
6.6041
6.36062
6.16976
5.98769
5.79874
5.6045
5.39628
5.19189
5.01093
4.84965
4.6983
4.54857
4.3935
4.23048
4.06975
3.92278
3.79314
3.67452
3.55806
3.43947
3.31705
3.19417
3.07706
2.97756
2.88579
2.83091
2.79498
2.85731
3.10646
3.50169
3.81894
3.85986
3.80899
3.70704
3.60622
3.55564
3.5199
3.48204
3.435
3.37835
3.33122
3.32754
3.37783
3.63221
4.04513
4.41886
4.57423
4.57029
4.52764
4.48814
4.4672
4.45169
4.44141
4.42849
4.41257
4.38769
4.35895
4.33627
4.31339
4.2893
4.26648
4.24412
4.21906
4.18923
4.1578
4.12667
4.09514
4.06402
4.03376
4.00278
3.96879
3.93198
3.89547
3.85923
3.82262
3.78681
3.75355
3.7228
3.69024
3.6577
3.59722
9.9196
9.7585
9.57079
9.37566
9.17327
8.96877
8.76185
8.54596
8.31062
8.06044
7.81561
7.60174
7.42143
7.20115
6.9372
6.67214
6.46001
6.28004
6.08936
5.8799
5.65679
5.44523
5.25894
5.09113
4.93238
4.7744
4.60886
4.43403
4.26249
4.10805
3.97231
3.84948
3.7315
3.60971
3.48006
3.34594
3.22185
3.11162
3.01622
2.92358
2.83593
2.7702
2.69592
2.72303
2.94072
3.30247
3.65174
3.76907
3.72716
3.60534
3.47996
3.42591
3.38122
3.35303
3.35447
3.35116
3.42092
3.70964
4.11494
4.40473
4.56702
4.58909
4.58214
4.54459
4.48772
4.46179
4.4482
4.4451
4.43825
4.42302
4.39615
4.35709
4.33058
4.31304
4.29789
4.28254
4.26232
4.23671
4.19698
4.15232
4.12029
4.09651
4.07454
4.05121
4.02365
3.9869
3.93955
3.89155
3.85218
3.82158
3.79576
3.77107
3.74339
3.70572
3.66073
3.59042
9.93737
9.78383
9.59795
9.40794
9.21084
9.00884
8.79911
8.57693
8.34242
8.11088
7.89435
7.69893
7.49117
7.22985
6.95431
6.73531
6.55738
6.37438
6.16099
5.92478
5.69128
5.49366
5.3209
5.15888
4.99867
4.83163
4.64935
4.46161
4.29067
4.1455
4.01877
3.89984
3.78058
3.65199
3.51027
3.36648
3.24313
3.14215
3.05411
2.96438
2.86983
2.77314
2.68364
2.60129
2.61692
2.79477
3.14322
3.50324
3.64361
3.59878
3.4759
3.37079
3.31728
3.31253
3.35036
3.48499
3.81102
4.26749
4.45892
4.55202
4.59038
4.59295
4.57637
4.54295
4.49087
4.46659
4.45511
4.44973
4.44001
4.42425
4.39724
4.36399
4.34242
4.3251
4.3097
4.29239
4.27003
4.23834
4.19262
4.15339
4.12955
4.10799
4.08614
4.06184
4.03073
3.98873
3.9406
3.89799
3.86399
3.83674
3.81192
3.78509
3.75118
3.70458
3.65841
3.59809
9.95952
9.80696
9.62364
9.43757
9.24263
9.03983
8.8279
8.6065
8.38295
8.16565
7.95825
7.75149
7.50058
7.23347
7.00591
6.81166
6.63531
6.42869
6.20129
5.95874
5.73412
5.54637
5.37548
5.21011
5.04298
4.86493
4.67428
4.48789
4.32423
4.18387
4.05819
3.93829
3.81541
3.68052
3.53373
3.3914
3.26759
3.16403
3.07964
3.00506
2.91766
2.81196
2.69747
2.59169
2.5337
2.54623
2.68384
2.98167
3.3342
3.4794
3.43406
3.33813
3.31124
3.33782
3.50844
3.87251
4.343
4.53699
4.57739
4.58457
4.5929
4.58383
4.56103
4.53012
4.49642
4.47856
4.46654
4.45634
4.44468
4.42806
4.40187
4.37608
4.35545
4.33382
4.3124
4.29099
4.26476
4.23027
4.19346
4.16414
4.13915
4.11364
4.08707
4.05828
4.02469
3.98676
3.94855
3.91342
3.88214
3.85234
3.8219
3.78782
3.74877
3.70402
3.66528
3.61204
9.9797
9.8255
9.64281
9.45805
9.26357
9.06115
8.85081
8.63482
8.41913
8.2056
7.99314
7.76669
7.52015
7.28195
7.06612
6.87038
6.67196
6.45072
6.21778
5.98666
5.78246
5.59722
5.41879
5.24387
5.06479
4.87602
4.68901
4.51822
4.366
4.22495
4.09081
3.9601
3.82319
3.68103
3.54535
3.42156
3.30741
3.19964
3.0946
2.9962
2.89855
2.80143
2.70963
2.61807
2.53764
2.47995
2.45868
2.5384
2.79854
3.14186
3.28482
3.29497
3.37169
3.58486
3.92752
4.32725
4.59398
4.67197
4.65189
4.61456
4.5859
4.56088
4.53509
4.51104
4.49801
4.48868
4.47761
4.46418
4.44877
4.42701
4.40308
4.38379
4.36406
4.34077
4.31383
4.28572
4.25494
4.22298
4.19512
4.17044
4.14523
4.11763
4.08638
4.05297
4.02018
3.98922
3.95941
3.92992
3.89831
3.86306
3.82472
3.78489
3.74548
3.70693
3.67759
3.62668
9.99158
9.83566
9.65336
9.46935
9.27595
9.07564
8.86871
8.65806
8.44497
8.22908
8.00682
7.77349
7.54044
7.31825
7.11177
6.90523
6.6771
6.44189
6.22006
6.01632
5.82646
5.6399
5.45242
5.2586
5.06102
4.87144
4.69965
4.54829
4.40737
4.26633
4.11822
3.96133
3.8087
3.67154
3.55188
3.4464
3.34465
3.23897
3.12355
3.00195
2.89067
2.79506
2.70647
2.63265
2.55394
2.46907
2.38732
2.34952
2.41688
2.65339
2.99307
3.28046
3.66046
4.09056
4.36456
4.53523
4.6424
4.66538
4.64845
4.61365
4.57502
4.53394
4.51077
4.50362
4.50359
4.50261
4.4926
4.47502
4.44674
4.42078
4.40365
4.38763
4.36946
4.34766
4.31813
4.27951
4.24405
4.21743
4.1948
4.17286
4.14934
4.12164
4.08715
4.04884
4.01706
3.9923
3.96905
3.9434
3.91185
3.87134
3.82519
3.78234
3.74517
3.71305
3.68746
3.63492
9.99977
9.84598
9.66364
9.47952
9.28672
9.08809
8.884
8.67576
8.46129
8.23947
8.00959
7.77996
7.56056
7.35403
7.1522
6.91763
6.67588
6.44222
6.23385
6.04719
5.8598
5.66996
5.4725
5.25973
5.04585
4.86165
4.71139
4.5764
4.44305
4.29923
4.13195
3.9474
3.78084
3.65632
3.55963
3.47279
3.38246
3.27417
3.13282
2.97956
2.85894
2.77832
2.71345
2.65335
2.58507
2.49299
2.3754
2.26119
2.25756
2.33549
2.6437
3.28087
3.95395
4.49467
4.80364
4.78539
4.72977
4.66664
4.63465
4.60997
4.57077
4.51793
4.49804
4.49382
4.4992
4.50462
4.49515
4.47591
4.44319
4.41947
4.40463
4.38905
4.37108
4.34894
4.31623
4.27126
4.2361
4.21458
4.19501
4.17454
4.15244
4.12503
4.08495
4.04328
4.01806
3.9974
3.97508
3.94918
3.91605
3.87148
3.82024
3.77891
3.74927
3.72183
3.69602
3.63942
)
;

boundaryField
{
    inlet
    {
        type            fixedValue;
        value           uniform 1;
    }
    outlet
    {
        type            zeroGradient;
    }
    bottom
    {
        type            symmetryPlane;
    }
    top
    {
        type            symmetryPlane;
    }
    obstacle
    {
        type            zeroGradient;
    }
    defaultFaces
    {
        type            empty;
    }
}


// ************************************************************************* //
