/*--------------------------------*- C++ -*----------------------------------*\
  =========                 |
  \\      /  F ield         | OpenFOAM: The Open Source CFD Toolbox
   \\    /   O peration     | Website:  https://openfoam.org
    \\  /    A nd           | Version:  7
     \\/     M anipulation  |
\*---------------------------------------------------------------------------*/
FoamFile
{
    version     2.0;
    format      ascii;
    class       volScalarField;
    location    "9";
    object      rho;
}
// * * * * * * * * * * * * * * * * * * * * * * * * * * * * * * * * * * * * * //

dimensions      [1 -3 0 0 0 0 0];

internalField   nonuniform List<scalar> 
4032
(
1.40001
1.40001
1.40001
1.40001
1.40001
1.40001
1.40001
1.40001
1.40001
1.40001
1.40001
1.58547
4.40208
5.46819
5.51425
5.58926
5.6562
5.72021
5.77906
5.83185
5.87854
5.91598
5.94458
5.96576
1.40001
1.40001
1.40001
1.40001
1.40001
1.40001
1.40001
1.40001
1.40001
1.40001
1.40001
1.56231
4.33212
5.45301
5.50897
5.58252
5.64815
5.71043
5.76739
5.81777
5.86169
5.89637
5.9218
5.94187
1.40001
1.40001
1.40001
1.40001
1.40001
1.40001
1.40001
1.40001
1.40001
1.40001
1.40001
1.50673
4.22295
5.44369
5.49399
5.56671
5.63233
5.69397
5.74987
5.79845
5.83973
5.87131
5.89182
5.90885
1.40001
1.40001
1.40001
1.40001
1.40001
1.40001
1.40001
1.40001
1.40001
1.40001
1.40001
1.41246
4.04268
5.43248
5.47634
5.54199
5.6036
5.66101
5.71367
5.76007
5.80017
5.83052
5.84788
5.86125
1.40001
1.40001
1.40001
1.40001
1.40001
1.40001
1.40001
1.40001
1.40001
1.40001
1.40001
1.40019
3.76644
5.3723
5.42915
5.49267
5.55516
5.61184
5.66225
5.70365
5.73604
5.76042
5.77389
5.79243
1.40001
1.40001
1.40001
1.40001
1.40001
1.40001
1.40001
1.40001
1.40001
1.40001
1.40001
1.4
3.40814
5.28861
5.38989
5.44844
5.50753
5.55696
5.59911
5.63375
5.66182
5.68539
5.69487
5.68594
1.40001
1.40001
1.40001
1.40001
1.40001
1.40001
1.40001
1.40001
1.40001
1.40001
1.40001
1.4
2.98691
5.17095
5.36083
5.41085
5.45824
5.49398
5.52112
5.54076
5.5478
5.53642
5.51833
5.51016
1.40001
1.40001
1.40001
1.40001
1.40001
1.40001
1.40001
1.40001
1.40001
1.40001
1.40001
1.40001
2.51231
5.01156
5.36885
5.39361
5.42122
5.43843
5.44392
5.44138
5.42276
5.3931
5.33739
5.3092
1.40001
1.40001
1.40001
1.40001
1.40001
1.40001
1.40001
1.40001
1.40001
1.40001
1.40001
1.40001
1.99212
4.77152
5.40033
5.37704
5.38768
5.38572
5.36947
5.33961
5.28
5.17701
4.86211
4.00286
1.40001
1.40001
1.40001
1.40001
1.40001
1.40001
1.40001
1.40001
1.40001
1.40001
1.40001
1.40001
1.50051
4.35543
5.42604
5.36795
5.34461
5.31633
5.27696
5.217
5.11595
4.92775
4.59781
3.703
1.40001
1.40001
1.40001
1.40001
1.40001
1.40001
1.40001
1.40001
1.40001
1.40001
1.40001
1.40001
1.40132
3.64372
5.18602
5.24218
5.25375
5.22608
5.17698
5.09253
4.96211
4.7296
4.38631
3.56744
1.40001
1.40001
1.40001
1.40001
1.40001
1.40001
1.40001
1.40001
1.40001
1.40001
1.40001
1.40001
1.39998
2.82539
4.99706
5.20109
5.19967
5.16677
5.10464
4.99641
4.83734
4.59334
4.21608
3.54762
1.40001
1.40001
1.40001
1.40001
1.40001
1.40001
1.40001
1.40001
1.40001
1.40001
1.40001
1.40001
1.4
2.00274
4.73559
5.20589
5.15699
5.10008
5.02338
4.90267
4.72796
4.48533
4.1016
3.5726
1.40001
1.40001
1.40001
1.40001
1.40001
1.40001
1.40001
1.40001
1.40001
1.40001
1.40001
1.40001
1.4
1.47852
4.01137
5.10719
5.07895
5.02637
4.94465
4.8209
4.64854
4.40343
4.04583
3.6224
1.40001
1.40001
1.40001
1.40001
1.40001
1.40001
1.40001
1.40001
1.40001
1.40001
1.40001
1.40001
1.4
1.40039
2.93948
4.94116
5.04082
4.98912
4.89926
4.75833
4.5862
4.33662
4.02127
3.66829
1.40001
1.40001
1.40001
1.40001
1.40001
1.40001
1.40001
1.40001
1.40001
1.40001
1.40001
1.40001
1.40001
1.4
1.831
4.68964
5.10039
4.97024
4.85094
4.70304
4.51607
4.29087
4.02028
3.71656
1.40001
1.40001
1.40001
1.40001
1.40001
1.40001
1.40001
1.40001
1.40001
1.40001
1.40001
1.40001
1.40001
1.4
1.42831
3.76732
4.95877
4.86976
4.77753
4.64119
4.46722
4.26095
4.02111
3.75394
1.40001
1.40001
1.40001
1.40001
1.40001
1.40001
1.40001
1.40001
1.40001
1.40001
1.40001
1.40001
1.40001
1.4
1.39995
2.47443
4.76241
4.84556
4.77294
4.64236
4.47005
4.26453
4.03334
3.78918
1.40001
1.40001
1.40001
1.40001
1.40001
1.40001
1.40001
1.40001
1.40001
1.40001
1.40001
1.40001
1.40001
1.40001
1.39999
1.57823
4.02231
4.86115
4.76946
4.63165
4.46201
4.26679
4.05057
3.82301
1.40001
1.40001
1.40001
1.40001
1.40001
1.40001
1.40001
1.40001
1.40001
1.40001
1.40001
1.40001
1.40001
1.40001
1.4
1.4034
2.71764
4.67552
4.7406
4.61016
4.45479
4.27269
4.07055
3.85435
1.40001
1.40001
1.40001
1.40001
1.40001
1.40001
1.40001
1.40001
1.40001
1.40001
1.40001
1.40001
1.40001
1.40001
1.4
1.4
1.66009
4.03413
4.77299
4.62448
4.46893
4.2858
4.08722
3.88111
1.40001
1.40001
1.40001
1.40001
1.40001
1.40001
1.40001
1.40001
1.40001
1.40001
1.40001
1.40001
1.40001
1.40001
1.40001
1.4
1.40798
2.68319
4.58769
4.61918
4.46346
4.28251
4.0911
3.92315
1.40001
1.40001
1.40001
1.40001
1.40001
1.40001
1.40001
1.40001
1.40001
1.40001
1.40001
1.40001
1.40001
1.40001
1.40001
1.40001
1.40003
1.63972
3.84797
4.68345
4.4737
4.29346
4.13972
4.06896
1.40001
1.40001
1.40001
1.40001
1.40001
1.40001
1.40001
1.40001
1.40001
1.40001
1.40001
1.40001
1.40001
1.40001
1.40001
1.40001
1.40001
1.40699
2.39097
4.42103
4.43553
4.31233
4.29122
4.46398
1.40001
1.40001
1.40001
1.40001
1.40001
1.40001
1.40001
1.40001
1.40001
1.40001
1.40001
1.40001
1.40001
1.40001
1.40001
1.40001
1.40001
1.40004
1.53439
3.41047
4.38825
4.57498
4.80827
5.04012
1.40001
1.40001
1.40001
1.40001
1.40001
1.40001
1.40001
1.40001
1.40001
1.40001
1.40001
1.40001
1.40001
1.40001
1.40001
1.40001
1.40001
1.40001
1.40271
2.00438
3.86173
5.20845
5.44483
5.47203
1.40001
1.40001
1.40001
1.40001
1.40001
1.40001
1.40001
1.40001
1.40001
1.40001
1.40001
1.40001
1.40001
1.40001
1.40001
1.40001
1.40001
1.40001
1.40002
1.44642
3.03561
5.65431
5.86368
5.68321
1.40001
1.40001
1.40001
1.40001
1.40001
1.40001
1.40001
1.40001
1.40001
1.40001
1.40001
1.40001
1.40001
1.40001
1.40001
1.40001
1.40001
1.40001
1.40001
1.40063
2.26302
5.50516
5.94828
5.71731
1.40001
1.40001
1.40001
1.40001
1.40001
1.40001
1.40001
1.40001
1.40001
1.40001
1.40001
1.40001
1.40001
1.40001
1.40001
1.40001
1.40001
1.40001
1.40001
1.40001
2.05906
5.00665
5.62177
5.4757
1.40001
1.40001
1.40001
1.40001
1.40001
1.40001
1.40001
1.40001
1.40001
1.40001
1.40001
1.40001
1.40001
1.40001
1.40001
1.40001
1.40001
1.40001
1.40001
1.40001
1.90182
4.6653
5.44862
5.33523
1.40001
1.40001
1.40001
1.40001
1.40001
1.40001
1.40001
1.40001
1.40001
1.40001
1.40001
1.40001
1.40001
1.40001
1.40001
1.40001
1.40001
1.40001
1.40001
1.40001
1.7207
4.54083
5.39924
5.26427
1.40001
1.40001
1.40001
1.40001
1.40001
1.40001
1.40001
1.40001
1.40001
1.40001
1.40001
1.40001
1.40001
1.40001
1.40001
1.40001
1.40001
1.40001
1.40001
1.40001
1.52285
4.34571
5.41387
5.29043
1.40001
1.40001
1.40001
1.40001
1.40001
1.40001
1.40001
1.40001
1.40001
1.40001
1.40001
1.40001
1.40001
1.40001
1.40001
1.40001
1.40001
1.40001
1.40001
1.40001
1.40615
4.13598
5.405
5.30221
1.40001
1.40001
1.40001
1.40001
1.40001
1.40001
1.40001
1.40001
1.40001
1.40001
1.40001
1.40001
1.40001
1.40001
1.40001
1.40001
1.40001
1.40001
1.40001
1.40001
1.40004
3.88901
5.36662
5.31208
1.40001
1.40001
1.40001
1.40001
1.40001
1.40001
1.40001
1.40001
1.40001
1.40001
1.40001
1.40001
1.40001
1.40001
1.40001
1.40001
1.40001
1.40001
1.40001
1.40001
1.40001
3.67622
5.34246
5.33929
1.40001
1.40001
1.40001
1.40001
1.40001
1.40001
1.40001
1.40001
1.40001
1.40001
1.40001
1.40001
1.40001
1.40001
1.40001
1.40001
1.40001
1.40001
1.40001
1.40001
1.40001
3.47774
5.33455
5.35983
1.40001
1.40001
1.40001
1.40001
1.40001
1.40001
1.40001
1.40001
1.40001
1.40001
1.40001
1.40001
1.40001
1.40001
1.40001
1.40001
1.40001
1.40001
1.40001
1.40001
1.40001
3.31322
5.33052
5.37873
1.40001
1.40001
1.40001
1.40001
1.40001
1.40001
1.40001
1.40001
1.40001
1.40001
1.40001
1.40001
1.40001
1.40001
1.40001
1.40001
1.40001
1.40001
1.40001
1.40001
1.40001
3.18646
5.32095
5.39161
1.40001
1.40001
1.40001
1.40001
1.40001
1.40001
1.40001
1.40001
1.40001
1.40001
1.40001
1.40001
1.40001
1.40001
1.40001
1.40001
1.40001
1.40001
1.40001
1.40001
1.40001
3.102
5.30417
5.39601
1.40001
1.40001
1.40001
1.40001
1.40001
1.40001
1.40001
1.40001
1.40001
1.40001
1.40001
1.40001
1.40001
1.40001
1.40001
1.40001
1.40001
1.40001
1.40001
1.40001
1.40001
3.06511
5.28614
5.395
1.30106
0.546971
0.241162
0.180538
0.203677
0.28064
0.385114
0.49054
0.621273
0.71339
0.770288
0.812388
0.867628
0.965144
1.00645
1.39846
2.34486
2.56226
2.59751
2.647
2.69046
2.72096
2.72701
2.72654
2.72272
2.72841
2.74609
2.75759
2.75509
2.74584
2.73813
2.73608
2.73528
2.72831
2.71482
2.70132
2.69208
2.68593
2.67879
2.66612
2.64713
2.62537
2.60757
2.59766
2.59247
2.58278
2.56025
2.53071
2.50237
2.47978
2.46582
2.45777
2.44576
2.42312
2.39495
2.36676
2.3418
2.32207
2.30661
2.28951
2.26439
2.23454
2.20529
2.17871
2.1559
2.13419
2.11051
2.08656
2.06292
2.04144
2.02171
2.00333
1.98383
1.96375
1.94193
1.91767
1.89308
1.87047
1.85003
1.83054
1.81072
1.78922
1.76615
1.74215
1.7249
1.73219
1.80542
2.14796
2.60069
2.62799
2.57102
2.53118
2.5041
2.48918
2.48683
2.49997
1.98434
1.24734
0.912002
0.664515
0.544268
0.555127
0.576598
0.56388
0.563562
0.596223
0.646629
0.70122
0.766629
0.851609
0.91316
1.28995
2.33657
2.60416
2.63466
2.6838
2.72896
2.74441
2.74312
2.73986
2.7356
2.74132
2.75902
2.77135
2.76861
2.75663
2.74534
2.74126
2.74291
2.74309
2.73534
2.71962
2.70159
2.68626
2.67569
2.6682
2.66076
2.64978
2.63176
2.61133
2.5935
2.57916
2.56477
2.54462
2.51928
2.49372
2.4722
2.45549
2.44188
2.42747
2.4086
2.38389
2.35661
2.33093
2.30779
2.28809
2.2697
2.24581
2.21788
2.19001
2.16487
2.14017
2.11631
2.09331
2.07028
2.04692
2.02428
2.00365
1.98446
1.96578
1.94625
1.92605
1.90468
1.88184
1.85825
1.8352
1.81333
1.79221
1.77152
1.75256
1.75033
1.77607
1.87529
2.1424
2.55433
2.60244
2.55887
2.53464
2.51498
2.49899
2.49225
2.49578
2.48299
1.79669
1.45468
1.18821
0.896979
0.794035
0.764896
0.721995
0.654128
0.644859
0.676143
0.731162
0.773921
0.815906
0.862035
1.04344
2.30231
2.77978
2.7355
2.7377
2.77418
2.79573
2.79399
2.78771
2.78718
2.79532
2.81343
2.82792
2.83043
2.82161
2.80731
2.79542
2.78944
2.78863
2.78944
2.78656
2.77369
2.75168
2.72821
2.70894
2.69836
2.69769
2.69788
2.68183
2.65296
2.62359
2.59843
2.57846
2.56268
2.54656
2.52482
2.49994
2.47546
2.4546
2.43798
2.42349
2.40566
2.38004
2.35036
2.322
2.29703
2.27465
2.25138
2.22636
2.19995
2.17135
2.1429
2.11888
2.09801
2.0772
2.05488
2.03021
2.00295
1.97615
1.95585
1.93934
1.9225
1.90444
1.8835
1.85736
1.82884
1.8054
1.79174
1.7891
1.8113
1.87964
1.99455
2.13959
2.47281
2.59292
2.57103
2.5642
2.55634
2.54599
2.53524
2.52077
2.83318
2.23613
1.85236
1.60003
1.33544
1.10453
1.01895
0.976258
0.90756
0.836248
0.803623
0.790891
0.768359
0.769105
0.791585
0.857331
1.79907
2.8899
2.93176
2.88576
2.89835
2.91059
2.90211
2.89255
2.89211
2.89691
2.90661
2.91313
2.9148
2.91295
2.90591
2.8942
2.8813
2.86994
2.86238
2.86018
2.85888
2.84734
2.82491
2.80109
2.78138
2.77013
2.76956
2.76254
2.73872
2.70779
2.67363
2.64614
2.62401
2.60881
2.59342
2.57073
2.54542
2.52025
2.4986
2.48011
2.46352
2.44138
2.41535
2.38599
2.35669
2.33002
2.30429
2.27924
2.25321
2.22452
2.19203
2.1607
2.13686
2.11741
2.09805
2.07747
2.05347
2.0252
1.99673
1.9738
1.95547
1.93743
1.91776
1.89341
1.86274
1.8351
1.82844
1.84506
1.90423
2.02411
2.13378
2.18139
2.36964
2.57306
2.61371
2.60078
2.58983
2.59291
2.59319
2.58097
3.04734
2.56023
2.18682
1.92959
1.67828
1.4313
1.26651
1.17682
1.11496
1.05161
0.96855
0.883648
0.822028
0.823441
0.868526
0.97476
1.2944
2.51037
3.13293
3.11724
3.06838
3.0318
3.02287
3.02696
3.03748
3.04742
3.04735
3.04079
3.03364
3.02847
3.02448
3.01774
3.00641
2.99264
2.97939
2.96947
2.96283
2.95316
2.93592
2.91564
2.89617
2.88131
2.87352
2.85969
2.8364
2.80849
2.77494
2.7451
2.72
2.69938
2.67809
2.65484
2.63133
2.60697
2.58496
2.56451
2.54254
2.51833
2.49153
2.46276
2.43405
2.40543
2.37778
2.35071
2.32365
2.29483
2.26264
2.22829
2.19775
2.17299
2.15147
2.13062
2.10904
2.08434
2.05566
2.0275
2.00459
1.9846
1.96386
1.94181
1.91854
1.89965
1.90697
1.95513
2.0524
2.16978
2.25516
2.25411
2.30337
2.4894
2.63943
2.67375
2.66296
2.65435
2.65779
2.65372
3.21548
2.81156
2.43755
2.18775
1.96456
1.72636
1.53996
1.37083
1.2639
1.22215
1.16246
1.07819
1.03084
1.05103
1.12488
1.25017
1.30655
1.69934
2.75182
3.26427
3.25221
3.20606
3.1555
3.16044
3.18423
3.19134
3.17949
3.16326
3.15215
3.14284
3.13561
3.12707
3.11448
3.09942
3.08398
3.07041
3.06037
3.04918
3.03151
3.01117
2.99114
2.97525
2.96322
2.94539
2.92274
2.89579
2.86213
2.83073
2.80642
2.78361
2.75913
2.73489
2.71023
2.68463
2.65961
2.63602
2.61218
2.58716
2.56054
2.53255
2.50308
2.47296
2.44341
2.41533
2.38772
2.35931
2.32858
2.29529
2.26195
2.23386
2.21094
2.1899
2.16817
2.14395
2.11515
2.08261
2.05245
2.0293
2.00804
1.9918
1.98314
1.98967
2.02836
2.12932
2.23249
2.30043
2.34214
2.33633
2.32556
2.4059
2.57638
2.69408
2.73928
2.72471
2.71344
2.71614
3.32423
2.98719
2.64836
2.38622
2.17693
1.94733
1.7564
1.60745
1.45977
1.34844
1.309
1.28011
1.3199
1.38676
1.44504
1.52819
1.51237
1.5358
1.90438
2.84396
3.29469
3.36725
3.32691
3.29791
3.30122
3.29634
3.28488
3.26886
3.25465
3.24212
3.22985
3.21701
3.20184
3.1846
3.16701
3.15152
3.13944
3.12587
3.10757
3.08764
3.0655
3.04549
3.02847
3.0095
2.98805
2.96273
2.93058
2.89625
2.87036
2.84641
2.8226
2.79941
2.77563
2.74977
2.72094
2.69094
2.66308
2.63745
2.61239
2.58636
2.55833
2.52781
2.4959
2.46531
2.437
2.40975
2.38182
2.35142
2.31797
2.28556
2.25973
2.23806
2.21699
2.19435
2.16772
2.13434
2.09737
2.0692
2.04992
2.04702
2.06223
2.10517
2.20192
2.33083
2.38526
2.39853
2.40255
2.40273
2.38131
2.39446
2.47608
2.62226
2.74647
2.79318
2.78731
2.78294
3.41331
3.1213
2.82126
2.54993
2.35008
2.1473
1.92041
1.76078
1.64921
1.5765
1.56017
1.56345
1.67594
1.72242
1.73398
1.75486
1.73253
1.68218
1.71364
2.04007
2.82299
3.3132
3.4802
3.44761
3.40957
3.36713
3.3517
3.33894
3.32534
3.30958
3.29319
3.27722
3.26141
3.24456
3.22714
3.21097
3.19503
3.17642
3.15692
3.13682
3.11461
3.09074
3.0701
3.05113
3.03047
3.00618
2.97611
2.94137
2.91067
2.88587
2.86354
2.84173
2.81885
2.79308
2.76209
2.72658
2.69439
2.66849
2.64487
2.62079
2.59467
2.5649
2.53129
2.49756
2.46828
2.44288
2.41847
2.39219
2.36135
2.3263
2.29451
2.27039
2.2492
2.22784
2.20316
2.17259
2.13615
2.10455
2.09652
2.11047
2.16737
2.26242
2.40498
2.49279
2.50349
2.47718
2.4556
2.447
2.43341
2.41907
2.43895
2.51281
2.6514
2.76935
2.82348
2.84047
3.48406
3.21933
2.95542
2.69274
2.47378
2.29584
2.11039
1.9461
1.85316
1.90329
1.93373
1.92058
1.99061
1.99208
1.94044
1.93739
1.91362
1.87375
1.84594
1.8691
2.1084
2.78683
3.36524
3.52883
3.49834
3.44302
3.4012
3.38392
3.37297
3.35715
3.33756
3.31903
3.30281
3.2883
3.27252
3.25359
3.23193
3.20946
3.18841
3.16776
3.14635
3.12283
3.09933
3.07908
3.05871
3.03501
3.00691
2.97428
2.94014
2.91217
2.8899
2.86845
2.84569
2.81992
2.78846
2.75032
2.71416
2.68717
2.66458
2.64205
2.61752
2.589
2.55469
2.51778
2.48656
2.46259
2.44071
2.41768
2.39038
2.35649
2.32001
2.2905
2.26771
2.2466
2.22315
2.19831
2.17069
2.14862
2.15686
2.21157
2.3203
2.43802
2.55591
2.58183
2.57525
2.54462
2.50481
2.48411
2.47122
2.45384
2.44855
2.46723
2.53217
2.65868
2.77486
2.85769
3.54033
3.29619
3.05581
2.81302
2.59454
2.43675
2.32234
2.23312
2.21888
2.3146
2.31813
2.23898
2.22528
2.21293
2.14419
2.12563
2.09594
2.05016
2.03434
1.99124
1.99945
2.17221
2.76859
3.38116
3.51717
3.5005
3.46236
3.43659
3.41767
3.39767
3.37311
3.35267
3.33547
3.32247
3.30541
3.28363
3.25713
3.23014
3.20828
3.18832
3.16861
3.14696
3.12169
3.09715
3.07462
3.05053
3.02476
2.99623
2.96353
2.93159
2.90575
2.88283
2.85944
2.8338
2.80377
2.76715
2.72846
2.69795
2.67506
2.65375
2.63102
2.60462
2.57172
2.53272
2.49754
2.47265
2.45232
2.43165
2.40803
2.37818
2.34138
2.30398
2.27579
2.25354
2.23398
2.2195
2.20794
2.21538
2.26628
2.38801
2.49178
2.57083
2.62252
2.62807
2.6146
2.59103
2.55861
2.5228
2.50301
2.48879
2.47441
2.47157
2.49092
2.54745
2.65073
2.80756
3.58557
3.3574
3.13676
2.92328
2.74477
2.66598
2.67333
2.62914
2.61751
2.65343
2.60981
2.4867
2.40447
2.39335
2.34533
2.31723
2.28328
2.21638
2.18973
2.16206
2.10726
2.11413
2.23727
2.74365
3.30375
3.46517
3.51566
3.50174
3.47294
3.43916
3.40227
3.37946
3.36239
3.35063
3.33249
3.30884
3.2776
3.24567
3.22431
3.2064
3.18905
3.16859
3.14247
3.11181
3.08279
3.05774
3.03461
3.01044
2.98263
2.95054
2.91862
2.89124
2.86612
2.84044
2.81248
2.77991
2.74244
2.70741
2.68135
2.66012
2.63888
2.61492
2.5853
2.5479
2.50855
2.47879
2.45718
2.4374
2.41625
2.39122
2.35821
2.31883
2.2825
2.25787
2.24737
2.24916
2.27188
2.33614
2.46949
2.59069
2.6255
2.64369
2.64853
2.65111
2.63854
2.62232
2.60287
2.57288
2.54097
2.52229
2.50793
2.4956
2.49349
2.51436
2.54988
2.69299
3.6282
3.41583
3.23216
3.09363
3.03344
3.08022
3.11
3.00403
2.93354
2.89762
2.82425
2.7095
2.59402
2.56528
2.53959
2.4979
2.45494
2.38364
2.34376
2.31871
2.28017
2.21774
2.22617
2.30754
2.68098
3.19367
3.45201
3.54523
3.53281
3.49511
3.4345
3.40308
3.38676
3.37716
3.35984
3.33485
3.29893
3.26138
3.23994
3.22389
3.20972
3.18986
3.16276
3.12626
3.08824
3.06224
3.04167
3.02097
2.99753
2.96806
2.93215
2.89792
2.86969
2.84389
2.81786
2.78941
2.75592
2.71846
2.68608
2.66248
2.64196
2.62068
2.5959
2.56433
2.52502
2.48631
2.45783
2.43586
2.41554
2.39385
2.36754
2.33505
2.29876
2.27283
2.27532
2.30888
2.39581
2.51699
2.66969
2.7202
2.715
2.69008
2.67177
2.66364
2.65672
2.64803
2.63558
2.61749
2.59049
2.56206
2.54454
2.53037
2.51702
2.51527
2.5316
2.59531
3.6782
3.52012
3.45825
3.47253
3.46678
3.48723
3.41769
3.25404
3.14942
3.08638
3.02184
2.92246
2.79559
2.74035
2.7213
2.67598
2.62093
2.53846
2.49219
2.46376
2.42767
2.38441
2.31649
2.30591
2.34618
2.6162
3.09415
3.42589
3.55367
3.54472
3.47923
3.43086
3.41228
3.40481
3.38914
3.3632
3.32424
3.2802
3.25733
3.24191
3.23017
3.21067
3.18314
3.14339
3.09748
3.07092
3.05237
3.03367
3.01213
2.98448
2.94722
2.90633
2.87369
2.84793
2.82409
2.79924
2.77026
2.734
2.6948
2.6645
2.64258
2.6229
2.6025
2.5781
2.54493
2.50252
2.46283
2.43379
2.41213
2.39241
2.37112
2.35172
2.32856
2.32461
2.35776
2.46113
2.57453
2.6894
2.77688
2.78219
2.7707
2.73957
2.70441
2.68577
2.67508
2.67045
2.66413
2.65198
2.63545
2.61238
2.58698
2.57031
2.55561
2.54065
2.53632
2.55866
3.778
3.79436
3.89914
3.90024
3.8471
3.7695
3.62731
3.46041
3.33601
3.2665
3.21531
3.12326
2.99244
2.91192
2.88311
2.84667
2.7888
2.70393
2.62839
2.60205
2.56598
2.53198
2.4748
2.393
2.36364
2.38301
2.56895
2.99198
3.37875
3.52682
3.51876
3.47129
3.44667
3.43775
3.42103
3.39411
3.35606
3.30687
3.28019
3.263
3.24994
3.22931
3.20184
3.16264
3.11307
3.08464
3.06703
3.04906
3.02781
3.00082
2.96375
2.91818
2.87894
2.85141
2.82892
2.80711
2.78291
2.75209
2.71251
2.67275
2.64323
2.62181
2.60265
2.58283
2.55804
2.52294
2.47876
2.43803
2.41018
2.38997
2.37852
2.37562
2.38906
2.43429
2.54992
2.67421
2.73719
2.79264
2.82033
2.8201
2.80661
2.78532
2.75582
2.72312
2.70502
2.69569
2.69149
2.68468
2.67289
2.658
2.63649
2.61251
2.59738
2.58238
2.56524
2.56088
4.14503
4.29543
4.31365
4.18634
4.08501
3.95756
3.80459
3.66135
3.53622
3.45491
3.40042
3.31284
3.18319
3.08548
3.04297
3.00758
2.94826
2.86296
2.77977
2.73971
2.70162
2.66201
2.61635
2.53942
2.45549
2.421
2.43172
2.54458
2.88445
3.27752
3.47181
3.48623
3.48766
3.48037
3.46047
3.42706
3.39092
3.33927
3.3067
3.28686
3.27046
3.2476
3.22048
3.18471
3.13516
3.10228
3.08389
3.06434
3.04051
3.01341
2.98004
2.93702
2.89276
2.85912
2.83387
2.81163
2.78966
2.76448
2.73263
2.69393
2.65545
2.62528
2.60223
2.58137
2.55971
2.53169
2.49455
2.45307
2.4169
2.40165
2.40692
2.43861
2.51394
2.6316
2.79141
2.84672
2.85303
2.85154
2.84633
2.84716
2.83667
2.82268
2.80533
2.77816
2.74902
2.73396
2.7252
2.71991
2.71099
2.69873
2.68246
2.65914
2.63695
2.62382
2.60822
2.58557
4.65299
4.7127
4.57477
4.38741
4.26268
4.12825
3.97298
3.84847
3.74306
3.6437
3.57289
3.49174
3.36899
3.25889
3.20324
3.16363
3.10085
3.01455
2.92594
2.882
2.84051
2.79107
2.74465
2.67651
2.5925
2.5284
2.48631
2.50534
2.56748
2.78566
3.14894
3.38732
3.45596
3.50899
3.50362
3.47346
3.42853
3.37073
3.33009
3.30595
3.28584
3.26338
3.23818
3.20678
3.16043
3.12274
3.0969
3.07092
3.0436
3.01578
2.98706
2.95252
2.91204
2.87328
2.84002
2.81188
2.78758
2.76496
2.74198
2.71395
2.67844
2.64093
2.60631
2.57416
2.54706
2.52465
2.50085
2.47732
2.44678
2.44746
2.48329
2.58819
2.70645
2.84326
2.9437
2.94954
2.93548
2.90057
2.88141
2.87265
2.8667
2.8586
2.84662
2.82947
2.80213
2.77699
2.76479
2.7561
2.74718
2.73532
2.72111
2.70249
2.67769
2.65752
2.64576
2.62012
5.07483
4.96826
4.75047
4.57064
4.45294
4.32541
4.16174
4.03344
3.95097
3.84351
3.74791
3.66636
3.55247
3.43666
3.36937
3.32434
3.25886
3.17052
3.07857
3.01962
2.97993
2.92762
2.87064
2.80844
2.72232
2.66168
2.60616
2.55468
2.5553
2.576
2.70182
2.99934
3.27205
3.44026
3.50236
3.50205
3.46394
3.40202
3.35474
3.32072
3.29423
3.27237
3.25316
3.2199
3.17569
3.13922
3.10585
3.07259
3.04325
3.0183
2.98899
2.9562
2.91968
2.8882
2.85466
2.81758
2.79079
2.77199
2.75015
2.72241
2.69079
2.65518
2.61648
2.5824
2.55265
2.52851
2.51423
2.50435
2.5127
2.56024
2.68123
2.80934
2.89365
2.97644
3.00737
3.00345
2.98812
2.95468
2.92329
2.90938
2.90084
2.89499
2.8847
2.8712
2.85099
2.82207
2.80084
2.78885
2.77809
2.76634
2.75289
2.73715
2.71612
2.68806
2.67071
2.64564
5.34509
5.13981
4.90052
4.74186
4.64342
4.52339
4.35869
4.22415
4.14955
4.05038
3.9265
3.83037
3.72799
3.61498
3.53802
3.48415
3.41836
3.32578
3.23264
3.15974
3.10844
3.05912
2.99681
2.93175
2.85668
2.7782
2.72874
2.66868
2.61053
2.5852
2.57753
2.63314
2.84168
3.13362
3.39365
3.46585
3.44594
3.41638
3.37135
3.33295
3.30351
3.27605
3.23645
3.19914
3.17091
3.14161
3.11379
3.08479
3.04647
2.99325
2.94919
2.92972
2.91728
2.898
2.87156
2.83599
2.78788
2.74528
2.7245
2.71116
2.69608
2.66931
2.62993
2.57488
2.53596
2.52592
2.5284
2.55889
2.64101
2.78646
2.94647
2.9934
3.01887
3.03375
3.03817
3.03489
3.02122
2.99891
2.96576
2.94027
2.92925
2.92259
2.91322
2.89974
2.88244
2.85693
2.82686
2.80722
2.79539
2.78548
2.77441
2.7605
2.74272
2.71546
2.68634
2.66056
5.50268
5.29778
5.07939
4.93721
4.84349
4.71922
4.55356
4.41591
4.33781
4.24803
4.11231
3.99138
3.90264
3.80138
3.71385
3.64455
3.57336
3.48052
3.37886
3.30266
3.23669
3.18134
3.12029
3.04931
2.9753
2.89706
2.83058
2.77576
2.71127
2.64106
2.59125
2.56498
2.57921
2.70649
2.99519
3.2652
3.33806
3.36234
3.36789
3.34649
3.30736
3.25725
3.19781
3.15069
3.12409
3.10396
3.08236
3.05369
3.01445
2.96013
2.9137
2.89037
2.87443
2.85847
2.83923
2.81264
2.77017
2.72407
2.69903
2.68162
2.66095
2.63663
2.6063
2.56563
2.54202
2.54364
2.58872
2.70977
2.85909
3.02785
3.09709
3.095
3.07622
3.06152
3.05687
3.05873
3.04473
3.02539
2.9989
2.96438
2.94468
2.93668
2.92914
2.91642
2.90106
2.8821
2.85399
2.82448
2.80954
2.80034
2.78987
2.77593
2.7587
2.73712
2.70992
2.67007
5.56613
5.37913
5.20377
5.09144
5.00931
4.88856
4.73034
4.59124
4.50784
4.41979
4.28745
4.14939
4.063
3.97561
3.8798
3.79389
3.70946
3.61768
3.51587
3.43034
3.35955
3.28985
3.22479
3.15351
3.07302
2.99345
2.91882
2.85487
2.79388
2.72405
2.64858
2.58668
2.53508
2.53294
2.60283
2.81473
3.04494
3.18793
3.28745
3.29857
3.27326
3.21914
3.15333
3.10706
3.0799
3.05724
3.03135
3.00088
2.96145
2.9146
2.87929
2.85685
2.83948
2.8218
2.8007
2.77246
2.73403
2.69315
2.66359
2.64329
2.62224
2.60205
2.5855
2.56332
2.56927
2.62857
2.77497
2.91753
3.03995
3.12397
3.13403
3.12735
3.101
3.07063
3.05732
3.04922
3.04666
3.0376
3.02002
2.99296
2.96041
2.93721
2.92857
2.92576
2.91655
2.90144
2.87985
2.85075
2.81895
2.79353
2.78173
2.77468
2.76593
2.75042
2.72852
2.68157
5.41408
5.34545
5.26366
5.1786
5.10656
4.99701
4.85012
4.72533
4.64714
4.56591
4.44247
4.30498
4.20849
4.12114
4.01683
3.91896
3.818
3.71704
3.62324
3.53821
3.46168
3.38664
3.30683
3.22227
3.13668
3.05511
2.98154
2.91429
2.84755
2.77632
2.69452
2.60959
2.53982
2.50465
2.47433
2.4974
2.6261
2.82769
3.05696
3.18992
3.18023
3.14114
3.09501
3.05888
3.02734
2.99792
2.96719
2.93499
2.90117
2.87057
2.84361
2.81572
2.78851
2.7663
2.7455
2.72311
2.69787
2.66816
2.63118
2.59275
2.56823
2.56064
2.5684
2.60334
2.69612
2.86172
3.00483
3.06608
3.10648
3.13716
3.13896
3.12942
3.10536
3.07045
3.04657
3.0369
3.03079
3.0265
3.01625
3.00222
2.97815
2.94558
2.92195
2.90919
2.89894
2.8877
2.87476
2.85714
2.82934
2.79871
2.77607
2.75994
2.74585
2.73105
2.71753
2.68753
5.31852
5.27444
5.21193
5.14339
5.08489
5.00944
4.88971
4.77701
4.69856
4.61803
4.50541
4.36992
4.27593
4.2113
4.11731
4.0096
3.90696
3.80469
3.71339
3.63135
3.55098
3.46845
3.38085
3.29051
3.20399
3.12446
3.04998
2.97755
2.90423
2.8283
2.74925
2.66728
2.5919
2.51753
2.45108
2.40768
2.41352
2.47619
2.64496
2.89001
2.99677
3.02759
3.02832
3.00659
2.96979
2.92625
2.88309
2.84864
2.82798
2.81095
2.79122
2.76287
2.72353
2.6898
2.67367
2.66011
2.6446
2.62239
2.58918
2.54789
2.53649
2.54277
2.59491
2.72864
2.90671
3.07175
3.12074
3.11664
3.11452
3.10809
3.10622
3.09693
3.08374
3.06397
3.03585
3.01583
3.00539
2.99832
2.99038
2.97868
2.96409
2.94112
2.91062
2.88988
2.87641
2.86353
2.8496
2.83327
2.81401
2.79025
2.76367
2.74157
2.72428
2.70787
2.69381
2.66563
5.22442
5.1684
5.1151
5.06628
5.01119
4.93184
4.83202
4.74359
4.67562
4.61232
4.5147
4.38757
4.28677
4.21282
4.12535
4.01168
3.89798
3.79535
3.70442
3.62089
3.53666
3.44837
3.3561
3.26395
3.1777
3.09943
3.02561
2.95211
2.87617
2.79788
2.71841
2.64183
2.56828
2.50369
2.44499
2.39046
2.34729
2.32092
2.34852
2.4849
2.69499
2.84118
2.94142
2.95196
2.91934
2.85734
2.79427
2.76708
2.75127
2.74301
2.72933
2.70409
2.66357
2.61507
2.59209
2.57971
2.57084
2.55603
2.53965
2.53074
2.53065
2.58367
2.73853
2.90268
3.04426
3.13299
3.14005
3.11868
3.07577
3.05342
3.04666
3.04732
3.04628
3.0389
3.01939
2.99116
2.97411
2.96366
2.95363
2.9431
2.93108
2.91395
2.88774
2.8629
2.84646
2.83255
2.81824
2.80321
2.7865
2.76575
2.74003
2.71516
2.69611
2.67958
2.66574
2.63831
5.23228
5.15842
5.0878
5.01922
4.94671
4.86467
4.78216
4.70909
4.64616
4.57123
4.46187
4.34651
4.25736
4.1896
4.10699
3.99929
3.8834
3.78936
3.70409
3.62182
3.5386
3.44986
3.35537
3.2618
3.17643
3.09952
3.02673
2.95442
2.87946
2.80093
2.72132
2.64672
2.57657
2.51365
2.45238
2.39535
2.33348
2.28317
2.23833
2.24968
2.35806
2.53839
2.72113
2.85325
2.85837
2.81164
2.73873
2.69738
2.67903
2.67282
2.66529
2.64468
2.61301
2.56251
2.51664
2.49741
2.48542
2.48331
2.50515
2.52949
2.60424
2.78209
2.93219
3.01323
3.09055
3.10914
3.09942
3.07364
3.03426
3.01328
3.00645
3.00468
3.00346
2.99537
2.98061
2.95821
2.93815
2.92546
2.91526
2.90474
2.8927
2.87704
2.85529
2.83102
2.81124
2.79594
2.78229
2.76849
2.75308
2.73456
2.71152
2.6867
2.6649
2.64656
2.63284
2.60701
5.23665
5.16608
5.09442
5.01506
4.92974
4.84249
4.75912
4.68259
4.60916
4.51884
4.41455
4.31692
4.23974
4.17448
4.08608
3.97472
3.85879
3.77227
3.69107
3.60926
3.52702
3.43793
3.34245
3.24998
3.16809
3.0943
3.02387
2.95297
2.87763
2.79736
2.71795
2.64651
2.58242
2.52169
2.46217
2.40139
2.33882
2.27428
2.22432
2.1842
2.18709
2.25267
2.40843
2.60497
2.75644
2.76588
2.72027
2.65805
2.62473
2.60732
2.59884
2.58275
2.56095
2.52329
2.47114
2.4414
2.43146
2.44672
2.49369
2.60604
2.80673
2.98667
3.02213
3.033
3.04227
3.04107
3.03119
3.01914
3.0031
2.98619
2.97557
2.96872
2.96233
2.95294
2.93976
2.92404
2.90812
2.89379
2.88177
2.87068
2.85806
2.84211
2.82279
2.80231
2.7829
2.76555
2.75053
2.73649
2.72123
2.70334
2.68239
2.66006
2.6388
2.61959
2.60547
2.58015
5.24372
5.17666
5.10411
5.02541
4.94255
4.85873
4.77695
4.6962
4.61035
4.51194
4.41122
4.31915
4.24378
4.16803
4.06938
3.95534
3.85238
3.77099
3.6926
3.60996
3.5235
3.42925
3.33554
3.25155
3.17568
3.10373
3.03191
2.95675
2.87664
2.79662
2.72264
2.65693
2.59653
2.5366
2.47487
2.41054
2.34551
2.28288
2.22937
2.18056
2.151
2.13008
2.16283
2.29287
2.49389
2.65079
2.678
2.65406
2.60394
2.55489
2.53121
2.51456
2.4964
2.47318
2.44545
2.42516
2.42572
2.45312
2.58323
2.78909
2.96895
3.04285
3.04101
3.02096
3.00226
2.99205
2.98446
2.97968
2.97381
2.96626
2.95407
2.94
2.92906
2.91815
2.90661
2.89557
2.88471
2.87249
2.85785
2.8423
2.82685
2.8112
2.79569
2.78057
2.7651
2.74814
2.72975
2.71139
2.6931
2.67464
2.65655
2.63964
2.62384
2.60702
2.59013
2.55869
5.2563
5.19407
5.12146
5.04551
4.96645
4.88636
4.80508
4.71988
4.62639
4.52679
4.42869
4.34266
4.2703
4.18115
4.07229
3.96041
3.87026
3.7941
3.7129
3.62227
3.52388
3.42916
3.34493
3.26861
3.19574
3.12243
3.0447
2.96141
2.87849
2.80297
2.73611
2.6751
2.61603
2.5545
2.4883
2.41902
2.3542
2.29613
2.24542
2.1957
2.14895
2.11327
2.07235
2.08673
2.20262
2.38865
2.56377
2.62523
2.60481
2.5445
2.48214
2.45567
2.43361
2.41996
2.42211
2.42336
2.45945
2.60391
2.80215
2.94125
3.01713
3.0273
3.02435
3.00735
2.98103
2.96871
2.96216
2.96075
2.95765
2.9506
2.93797
2.91943
2.90672
2.89831
2.89114
2.88389
2.8743
2.8621
2.84291
2.8212
2.80551
2.79384
2.78303
2.77156
2.75806
2.73999
2.71665
2.69296
2.67341
2.65811
2.64517
2.63278
2.61884
2.59982
2.57707
2.54166
5.26736
5.20864
5.13718
5.06377
4.98722
4.90826
4.82579
4.7379
4.64443
4.55115
4.46342
4.384
4.29917
4.1909
4.07514
3.98265
3.90779
3.83027
3.73851
3.63546
3.53243
3.44478
3.36754
3.29425
3.22093
3.14368
3.05849
2.9696
2.88782
2.81774
2.75591
2.69723
2.63788
2.57338
2.50163
2.42798
2.36405
2.31121
2.26481
2.21714
2.16614
2.11378
2.06487
2.01962
2.02804
2.12414
2.30601
2.48866
2.55986
2.53738
2.47588
2.42278
2.39547
2.39392
2.41391
2.48293
2.64542
2.86616
2.95634
3.0001
3.01924
3.02079
3.01323
2.99757
2.9731
2.96182
2.95643
2.95385
2.94915
2.94166
2.929
2.91336
2.90315
2.89485
2.88748
2.8793
2.8687
2.85351
2.83149
2.81248
2.80082
2.79021
2.77957
2.76778
2.75264
2.73211
2.70846
2.68742
2.67058
2.65703
2.64468
2.63136
2.61452
2.59124
2.56805
2.53798
5.2791
5.22104
5.15092
5.07936
5.00388
4.92485
4.84179
4.75448
4.66559
4.57837
4.49452
4.41024
4.30677
4.19551
4.10001
4.01885
3.94478
3.85646
3.75778
3.65182
3.55323
3.47013
3.39356
3.3187
3.24232
3.15986
3.0706
2.98255
2.90456
2.83702
2.77592
2.71706
2.656
2.58838
2.51414
2.44145
2.37755
2.32346
2.27894
2.23931
2.19257
2.13552
2.07309
2.01468
1.98248
1.98938
2.06445
2.22269
2.40499
2.47789
2.45465
2.40541
2.39153
2.40544
2.49182
2.67202
2.89865
2.99076