/*--------------------------------*- C++ -*----------------------------------*\
  =========                 |
  \\      /  F ield         | OpenFOAM: The Open Source CFD Toolbox
   \\    /   O peration     | Website:  https://openfoam.org
    \\  /    A nd           | Version:  7
     \\/     M anipulation  |
\*---------------------------------------------------------------------------*/
FoamFile
{
    version     2.0;
    format      ascii;
    class       volScalarField;
    location    "9";
    object      T;
}
// * * * * * * * * * * * * * * * * * * * * * * * * * * * * * * * * * * * * * //

dimensions      [0 0 0 1 0 0 0];

internalField   nonuniform List<scalar> 
4032
(
1
1
1
1
1
1
1
1
1
1
1
1.17294
2.4133
2.71606
2.7269
2.7424
2.75572
2.76823
2.77962
2.78979
2.79883
2.80614
2.81169
2.81568
1
1
1
1
1
1
1
1
1
1
1
1.15538
2.39924
2.71494
2.72628
2.74105
2.75414
2.76639
2.77746
2.78716
2.79563
2.80237
2.8073
2.81107
1
1
1
1
1
1
1
1
1
1
1
1.1019
2.36151
2.71209
2.72317
2.73807
2.75128
2.76351
2.77441
2.78375
2.79162
2.7977
2.80165
2.80485
1
1
1
1
1
1
1
1
1
1
1
1.00739
2.29358
2.7042
2.71826
2.73339
2.74622
2.75768
2.76794
2.77682
2.78439
2.79011
2.79337
2.79581
1
1
1
1
1
1
1
1
1
1
1
1.00006
2.21151
2.68836
2.70762
2.72334
2.73687
2.74843
2.75839
2.76643
2.77251
2.77669
2.77846
2.78128
1
1
1
1
1
1
1
1
1
1
1
1
2.09708
2.66961
2.69843
2.71294
2.72632
2.73715
2.74613
2.75336
2.75884
2.76207
2.76051
2.75495
1
1
1
1
1
1
1
1
1
1
1
1
1.93873
2.63421
2.68259
2.69849
2.71215
2.72227
2.7298
2.73484
2.7364
2.73292
2.72477
2.7175
1
1
1
1
1
1
1
1
1
1
1
1
1.72168
2.56427
2.6559
2.6795
2.6954
2.70564
2.71134
2.71326
2.71038
2.70516
2.69979
2.71086
1
1
1
1
1
1
1
1
1
1
1
1
1.41011
2.44036
2.62942
2.65514
2.67356
2.68504
2.68904
2.68788
2.67959
2.66101
2.60918
2.50859
1
1
1
1
1
1
1
1
1
1
1
1
1.0514
2.30786
2.62975
2.632
2.64265
2.65354
2.65803
2.65472
2.64156
2.60834
2.55033
2.38786
1
1
1
1
1
1
1
1
1
1
1
1
1.00061
2.13971
2.58866
2.59723
2.60844
2.61602
2.62035
2.61573
2.60051
2.56173
2.49726
2.3148
1
1
1
1
1
1
1
1
1
1
1
1
0.999994
1.8326
2.52379
2.5816
2.59011
2.58924
2.58774
2.57943
2.56041
2.52169
2.44896
2.29003
1
1
1
1
1
1
1
1
1
1
1
1
0.999998
1.37389
2.37961
2.56305
2.56351
2.56201
2.55678
2.5441
2.52106
2.4828
2.40896
2.28848
1
1
1
1
1
1
1
1
1
1
1
1
1
1.03845
2.1945
2.52228
2.53323
2.53239
2.52659
2.51231
2.48805
2.44779
2.37926
2.28741
1
1
1
1
1
1
1
1
1
1
1
1
1
1.00023
1.82787
2.43905
2.511
2.50812
2.50082
2.48371
2.45908
2.41658
2.35654
2.28286
1
1
1
1
1
1
1
1
1
1
1
1
1
0.999998
1.24032
2.27974
2.49115
2.47799
2.47019
2.45498
2.4289
2.39148
2.34003
2.27794
1
1
1
1
1
1
1
1
1
1
1
1
1
1
1.0134
2.08286
2.44099
2.43185
2.4307
2.42108
2.4005
2.3689
2.32508
2.27156
1
1
1
1
1
1
1
1
1
1
1
1
1
1
1.00001
1.58496
2.3242
2.41237
2.40601
2.39396
2.37465
2.3463
2.30883
2.26329
1
1
1
1
1
1
1
1
1
1
1
1
1
1
0.999998
1.08906
2.11567
2.39061
2.38274
2.36844
2.3482
2.32208
2.28958
2.25081
1
1
1
1
1
1
1
1
1
1
1
1
1
1
0.999999
1.00157
1.66571
2.2771
2.36053
2.34236
2.32311
2.29893
2.2695
2.2349
1
1
1
1
1
1
1
1
1
1
1
1
1
1
1
1
1.13021
2.07693
2.33502
2.31727
2.30107
2.27774
2.24901
2.21629
1
1
1
1
1
1
1
1
1
1
1
1
1
1
1
1
1.00356
1.62399
2.20929
2.29563
2.27444
2.25193
2.22505
2.19828
1
1
1
1
1
1
1
1
1
1
1
1
1
1
1
1
1.00001
1.1178
1.99418
2.2725
2.24532
2.2254
2.20686
2.21183
1
1
1
1
1
1
1
1
1
1
1
1
1
1
1
1
1
1.00299
1.47772
2.11204
2.21472
2.19892
2.21229
2.2678
1
1
1
1
1
1
1
1
1
1
1
1
1
1
1
1
1
1.00001
1.06321
1.8382
2.15055
2.22324
2.28394
2.34224
1
1
1
1
1
1
1
1
1
1
1
1
1
1
1
1
1
1
1.00105
1.29169
1.94506
2.27635
2.34794
2.38115
1
1
1
1
1
1
1
1
1
1
1
1
1
1
1
1
1
1
1
1.02131
1.71076
2.35607
2.41063
2.38921
1
1
1
1
1
1
1
1
1
1
1
1
1
1
1
1
1
1
1
1.00022
1.51983
2.52107
2.50843
2.44319
1
1
1
1
1
1
1
1
1
1
1
1
1
1
1
1
1
1
1
1
1.5407
2.61956
2.59309
2.51815
1
1
1
1
1
1
1
1
1
1
1
1
1
1
1
1
1
1
1
1
1.43472
2.5702
2.66747
2.61836
1
1
1
1
1
1
1
1
1
1
1
1
1
1
1
1
1
1
1
1
1.27179
2.46788
2.688
2.65444
1
1
1
1
1
1
1
1
1
1
1
1
1
1
1
1
1
1
1
1
1.1004
2.36044
2.68267
2.66014
1
1
1
1
1
1
1
1
1
1
1
1
1
1
1
1
1
1
1
1
1.00363
2.29524
2.67423
2.65638
1
1
1
1
1
1
1
1
1
1
1
1
1
1
1
1
1
1
1
1
1.00001
2.22984
2.66522
2.65508
1
1
1
1
1
1
1
1
1
1
1
1
1
1
1
1
1
1
1
1
1
2.16387
2.65843
2.65802
1
1
1
1
1
1
1
1
1
1
1
1
1
1
1
1
1
1
1
1
1
2.09471
2.65062
2.65955
1
1
1
1
1
1
1
1
1
1
1
1
1
1
1
1
1
1
1
1
1
2.03518
2.64365
2.66099
1
1
1
1
1
1
1
1
1
1
1
1
1
1
1
1
1
1
1
1
1
1.98953
2.63963
2.66303
1
1
1
1
1
1
1
1
1
1
1
1
1
1
1
1
1
1
1
1
1
1.96082
2.63872
2.66506
1
1
1
1
1
1
1
1
1
1
1
1
1
1
1
1
1
1
1
1
1
1.95113
2.6382
2.66573
1.69041
1.20406
0.999691
0.981974
1.05942
1.26451
1.41196
1.47609
1.53313
1.54871
1.56805
1.6229
1.70718
1.7409
1.72624
2.08378
2.72351
2.76685
2.76124
2.77204
2.78693
2.79407
2.78834
2.77561
2.76431
2.76054
2.762
2.7632
2.75889
2.75079
2.74304
2.73671
2.73015
2.72059
2.70873
2.69706
2.68747
2.67989
2.67239
2.66301
2.65126
2.63851
2.62739
2.61927
2.61311
2.60476
2.59082
2.57358
2.5565
2.54162
2.5304
2.52215
2.51238
2.49879
2.48341
2.46849
2.45527
2.44458
2.43618
2.42745
2.41533
2.40096
2.38673
2.37356
2.36193
2.3507
2.33851
2.32611
2.31379
2.30242
2.29188
2.28207
2.27174
2.26102
2.24944
2.2368
2.22413
2.2124
2.20157
2.19115
2.18058
2.16924
2.15707
2.14466
2.13539
2.1388
2.17479
2.3357
2.5352
2.53312
2.50609
2.48712
2.47426
2.46423
2.4589
2.46032
1.92876
1.65356
1.50292
1.31124
1.25069
1.28188
1.30864
1.29849
1.29143
1.31338
1.34767
1.40383
1.47596
1.53431
1.556
1.90847
2.6287
2.7403
2.7481
2.76727
2.78379
2.78492
2.77615
2.76208
2.75056
2.7462
2.74705
2.74783
2.7429
2.73362
2.72464
2.71763
2.71245
2.70605
2.69616
2.68368
2.67071
2.65901
2.64951
2.64179
2.63468
2.62649
2.61585
2.6046
2.59407
2.58437
2.57431
2.56161
2.54648
2.53104
2.5171
2.50501
2.49432
2.48383
2.47212
2.45857
2.4446
2.43182
2.42037
2.41055
2.40146
2.39018
2.3772
2.36418
2.35219
2.34021
2.32842
2.31693
2.30539
2.29367
2.2822
2.27146
2.26123
2.25133
2.24124
2.2308
2.21974
2.20799
2.19595
2.18415
2.17287
2.16203
2.15135
2.14199
2.14002
2.15287
2.20049
2.32035
2.50065
2.5082
2.48898
2.47672
2.46663
2.45698
2.44962
2.4469
2.02958
1.82037
1.69309
1.57587
1.42464
1.35725
1.33416
1.30438
1.25507
1.23762
1.25668
1.2923
1.32062
1.35197
1.38036
1.5308
2.42279
2.69984
2.70376
2.716
2.73135
2.73532
2.72886
2.71563
2.70541
2.70046
2.70005
2.69994
2.69624
2.6877
2.6781
2.669
2.66141
2.65525
2.64931
2.64143
2.62989
2.61514
2.60029
2.58781
2.57964
2.57627
2.57371
2.56533
2.55258
2.53919
2.52703
2.51661
2.50731
2.49726
2.48422
2.46913
2.45413
2.44082
2.42981
2.42034
2.41029
2.39789
2.38433
2.37163
2.36082
2.35159
2.34224
2.33223
2.32151
2.30958
2.29744
2.28703
2.27786
2.26856
2.25835
2.24677
2.23382
2.22103
2.21111
2.20284
2.19434
2.18535
2.17526
2.16294
2.14945
2.13838
2.13217
2.13156
2.1418
2.17286
2.22073
2.28027
2.41918
2.46296
2.45342
2.44913
2.44436
2.43785
2.43028
2.42036
2.10205
1.9298
1.80513
1.71469
1.60488
1.49286
1.44247
1.41422
1.37279
1.32551
1.2984
1.28334
1.26866
1.27111
1.28865
1.33646
2.06705
2.60159
2.64298
2.63426
2.64174
2.64748
2.64283
2.63294
2.62416
2.61818
2.61398
2.60984
2.60497
2.59922
2.5925
2.58456
2.57589
2.56704
2.55861
2.55122
2.54377
2.53285
2.51925
2.50602
2.49519
2.48844
2.48622
2.48208
2.47324
2.4625
2.45031
2.44002
2.43098
2.42335
2.41447
2.40199
2.38811
2.37406
2.36146
2.35056
2.34095
2.32994
2.3185
2.30683
2.29599
2.28676
2.27838
2.27051
2.26227
2.25283
2.24158
2.23041
2.22194
2.21492
2.20761
2.19957
2.18989
2.17794
2.16536
2.15504
2.14681
2.13887
2.13045
2.12041
2.10755
2.09599
2.0945
2.1021
2.12865
2.17889
2.21791
2.23248
2.3046
2.38149
2.39939
2.39326
2.38826
2.38758
2.38593
2.37905
2.1519
2.01255
1.89781
1.81418
1.72269
1.62061
1.54282
1.49713
1.46652
1.43525
1.38998
1.33325
1.29295
1.29408
1.32458
1.3888
1.59606
2.25444
2.53197
2.54494
2.53914
2.53262
2.52874
2.52764
2.52578
2.52323
2.51729
2.50957
2.50271
2.49689
2.49184
2.48621
2.4791
2.47065
2.46161
2.45312
2.44554
2.43701
2.42634
2.41532
2.40537
2.39784
2.39356
2.3882
2.3811
2.3731
2.36318
2.35411
2.34602
2.33862
2.33008
2.31996
2.30898
2.2971
2.28572
2.27491
2.26393
2.25296
2.24211
2.23156
2.22189
2.21301
2.20516
2.19799
2.1911
2.1836
2.17465
2.16443
2.15518
2.14778
2.14134
2.13486
2.12767
2.11875
2.10776
2.09664
2.08755
2.07975
2.07198
2.06422
2.05559
2.04968
2.05302
2.07428
2.11346
2.15871
2.18413
2.17785
2.19243
2.26031
2.31413
2.33042
2.32569
2.32269
2.32331
2.32085
2.1883
2.07867
1.96781
1.88962
1.81369
1.72597
1.65144
1.57608
1.52565
1.50757
1.47942
1.43687
1.41038
1.42014
1.45844
1.52319
1.54967
1.76484
2.24024
2.42165
2.4587
2.44675
2.43091
2.43161
2.43518
2.43396
2.42616
2.41805
2.41194
2.40626
2.40127
2.39602
2.38953
2.38199
2.37405
2.36654
2.36003
2.35297
2.34381
2.33404
2.32491
2.31786
2.31291
2.30699
2.30043
2.29298
2.28352
2.27459
2.26761
2.26072
2.25275
2.24426
2.235
2.22478
2.21424
2.20396
2.19374
2.18358
2.17349
2.16361
2.15394
2.14482
2.13658
2.1294
2.12277
2.11607
2.10853
2.09985
2.09077
2.08323
2.07726
2.0717
2.0656
2.05818
2.04857
2.03705
2.02615
2.01789
2.01066
2.0051
2.00276
2.0059
2.02398
2.0651
2.10043
2.12348
2.13051
2.12528
2.11546
2.14091
2.19764
2.2407
2.26188
2.25697
2.25383
2.2539
2.20372
2.11833
2.02371
1.94505
1.87783
1.79811
1.72733
1.66872
1.60732
1.558
1.53959
1.52893
1.55023
1.58156
1.60786
1.6439
1.63591
1.64501
1.82357
2.19163
2.34648
2.39054
2.37768
2.36987
2.36775
2.36326
2.35773
2.35169
2.34602
2.34048
2.33509
2.32974
2.32371
2.31686
2.30975
2.30324
2.29768
2.29153
2.28378
2.27556
2.267
2.25962
2.25369
2.24772
2.24146
2.23433
2.22526
2.21543
2.20796
2.20088
2.19368
2.18647
2.17878
2.17002
2.15991
2.14914
2.13897
2.12964
2.12076
2.11192
2.10288
2.09354
2.08425
2.07583
2.06858
2.06198
2.05531
2.04775
2.0389
2.03006
2.02325
2.01774
2.01233
2.00618
1.99829
1.98753
1.97496
1.96488
1.95879
1.95731
1.96418
1.98222
2.02064
2.06599
2.0815
2.08281
2.0785
2.07584
2.06676
2.06556
2.08965
2.13735
2.18183
2.19945
2.20024
2.1982
2.21119
2.14166
2.06326
1.98615
1.92595
1.86061
1.78161
1.72151
1.67848
1.64897
1.64862
1.65171
1.70338
1.71695
1.71845
1.7259
1.71713
1.69577
1.70706
1.84851
2.13212
2.29257
2.35118
2.34228
2.32978
2.31637
2.31075
2.30614
2.30099
2.29493
2.28891
2.28345
2.27813
2.27232
2.26616
2.26034
2.25462
2.24808
2.24118
2.23406
2.22646
2.21865
2.21205
2.20621
2.20013
2.1932
2.1847
2.17473
2.16569
2.15825
2.15155
2.14503
2.13812
2.13017
2.1204
2.10899
2.09843
2.08982
2.08205
2.0743
2.06611
2.05696
2.04682
2.03693
2.02881
2.02227
2.01629
2.00973
2.0015
1.99154
1.98243
1.97585
1.97027
1.9647
1.95795
1.94888
1.93659
1.92482
1.92327
1.92986
1.95171
1.98635
2.03345
2.06122
2.06135
2.05145
2.0408
2.0353
2.02868
2.0213
2.02603
2.04845
2.09132
2.13026
2.14773
2.1561
2.21308
2.1524
2.0873
2.01673
1.9538
1.90011
1.8403
1.7838
1.75265
1.77377
1.78824
1.78426
1.81187
1.81094
1.78931
1.78559
1.77519
1.75923
1.74589
1.75344
1.84759
2.08678
2.26717
2.31631
2.30931
2.29358
2.2818
2.27567
2.27076
2.26444
2.25756
2.25166
2.24661
2.24188
2.23662
2.23049
2.22371
2.21674
2.21012
2.20354
2.19679
2.18953
2.18239
2.1763
2.1703
2.16354
2.15562
2.14635
2.13644
2.12816
2.12154
2.11519
2.10847
2.10081
2.09137
2.07978
2.06865
2.06026
2.05327
2.0464
2.03897
2.03033
2.01992
2.00881
1.99974
1.99322
1.98757
1.98165
1.97427
1.9645
1.95358
1.94491
1.93856
1.93291
1.92661
1.91944
1.90959
1.90374
1.90758
1.92854
1.96579
2.00349
2.0394
2.04435
2.04137
2.03045
2.01552
2.00647
2.00071
1.99388
1.9903
1.99512
2.01479
2.05371
2.08789
2.11547
2.21155
2.1574
2.10036
2.03825
1.97851
1.93422
1.90064
1.87733
1.87533
1.91183
1.91314
1.88658
1.88117
1.87605
1.85157
1.84242
1.82974
1.8116
1.80312
1.78441
1.78638
1.84896
2.05701
2.23914
2.27801
2.27744
2.26669
2.25786
2.25055
2.24292
2.23472
2.22834
2.22311
2.21893
2.21354
2.2069
2.19913
2.19129
2.1848
2.17878
2.17281
2.16633
2.15887
2.15167
2.14512
2.13826
2.13102
2.12301
2.11375
2.10461
2.09717
2.09056
2.08378
2.07632
2.0675
2.0567
2.04522
2.03615
2.0294
2.02316
2.01652
2.00875
1.99894
1.98723
1.97684
1.96986
1.96438
1.95891
1.95251
1.94403
1.93304
1.92171
1.91343
1.90711
1.90164
1.8971
1.89598
1.89956
1.91809
1.95799
1.99086
2.01435
2.02688
2.02678
2.02134
2.01295
2.00137
1.98835
1.9807
1.97517
1.96982
1.96694
1.97199
1.98889
2.0198
2.06658
2.20529
2.15656
2.1065
2.05503
2.00975
1.99258
1.99994
1.9931
1.99126
2.00393
1.99047
1.95233
1.92526
1.92082
1.90464
1.8937
1.88027
1.85615
1.8439
1.83145
1.80977
1.81095
1.85178
2.02609
2.18799
2.23606
2.25117
2.24625
2.23651
2.22587
2.21484
2.20786
2.20259
2.19876
2.1932
2.18624
2.17737
2.16837
2.16216
2.15684
2.15164
2.14558
2.13799
2.12918
2.12087
2.11373
2.10726
2.10059
2.09294
2.08406
2.07519
2.06756
2.06052
2.05325
2.04525
2.03586
2.02499
2.01485
2.00743
2.00147
1.99548
1.98869
1.98016
1.96922
1.95765
1.94919
1.94342
1.93824
1.93254
1.92549
1.91593
1.90423
1.89275
1.88528
1.88222
1.88468
1.89545
1.91787
1.96167
1.99836
2.00664
2.01066
2.00839
2.00788
2.00292
1.9968
1.98947
1.97892
1.96803
1.96115
1.95559
1.95057
1.94791
1.95314
1.96279
2.00571
2.19408
2.15293
2.11579
2.08543
2.08006
2.09742
2.11085
2.08538
2.06824
2.05908
2.03853
2.00519
1.96988
1.95998
1.95126
1.93702
1.92135
1.89655
1.8807
1.86982
1.8546
1.83089
1.83231
1.85546
1.97989
2.13038
2.202
2.22744
2.22441
2.21319
2.19694
2.18761
2.18231
2.17893
2.17363
2.16642
2.15636
2.1459
2.13967
2.13486
2.13051
2.12462
2.11684
2.10656
2.09583
2.08844
2.08272
2.07712
2.07087
2.06302
2.05333
2.04404
2.03636
2.02932
2.02216
2.01425
2.00484
1.99422
1.98513
1.97873
1.97322
1.96746
1.96069
1.95195
1.94081
1.92976
1.92204
1.91647
1.91124
1.90537
1.89825
1.88875
1.8766
1.86992
1.87172
1.88493
1.9144
1.95475
2.00066
2.01178
2.00909
2.00032
1.99252
1.98819
1.98467
1.98084
1.97582
1.96912
1.95995
1.9503
1.94361
1.93774
1.93216
1.92953
1.93263
1.94986
2.182
2.15555
2.1567
2.16601
2.17396
2.18724
2.17128
2.13245
2.10759
2.09251
2.07614
2.04918
2.01293
1.99579
1.98941
1.975
1.95667
1.92941
1.91205
1.9007
1.88703
1.87023
1.84751
1.83824
1.84825
1.93466
2.07517
2.16443
2.19895
2.19739
2.18061
2.16699
2.16085
2.15771
2.15273
2.14531
2.13446
2.12223
2.11554
2.11083
2.10705
2.10125
2.09348
2.08257
2.06992
2.06244
2.05729
2.05227
2.04666
2.03955
2.02985
2.01901
2.01038
2.00365
1.99739
1.99083
1.98312
1.97332
1.96253
1.95435
1.94882
1.94399
1.93886
1.93252
1.92366
1.91205
1.90113
1.89352
1.88832
1.8835
1.87809
1.87229
1.86659
1.86721
1.87952
1.91298
1.94921
1.98293
2.00481
2.00509
2.00111
1.99079
1.97858
1.97088
1.96605
1.96328
1.96006
1.95514
1.94893
1.94076
1.93169
1.92493
1.91859
1.91266
1.90808
1.91205
2.18744
2.19753
2.23448
2.25057
2.24446
2.23276
2.20263
2.16483
2.13613
2.12053
2.10878
2.08536
2.05005
2.02693
2.0181
2.00688
1.9888
1.96198
1.93677
1.92616
1.91281
1.8994
1.8779
1.85159
1.83474
1.83815
1.89445
2.01969
2.1203
2.15905
2.158
2.147
2.13851
2.13462
2.12909
2.12138
2.11081
2.09724
2.08949
2.0843
2.08013
2.07404
2.06643
2.05604
2.04287
2.03504
2.03016
2.02535
2.0199
2.01313
2.00381
1.99219
1.9822
1.9754
1.96989
1.96447
1.95842
1.95066
1.94049
1.93011
1.92269
1.91773
1.91346
1.90888
1.90273
1.89362
1.88208
1.87121
1.864
1.85946
1.85618
1.858
1.86468
1.88067
1.91778
1.9552
1.97224
1.98563
1.99126
1.99047
1.98562
1.97799
1.96758
1.95596
1.94869
1.94432
1.94153
1.93791
1.93282
1.92672
1.91864
1.90976
1.90333
1.8968
1.89027
1.88468
2.24178
2.28589
2.30867
2.28832
2.27318
2.25029
2.22034
2.19107
2.16417
2.14665
2.13489
2.11395
2.08068
2.05419
2.04205
2.03152
2.01379
1.98786
1.96134
1.94702
1.93324
1.9182
1.90043
1.87331
1.84415
1.82777
1.8288
1.85922
1.95605
2.05831
2.10836
2.11293
2.11302
2.11061
2.10393
2.09473
2.08479
2.07071
2.06158
2.05594
2.05107
2.04445
2.03688
2.02745
2.01486
2.00644
2.00166
1.9967
1.99098
1.98444
1.97611
1.96532
1.95445
1.94654
1.94096
1.93613
1.93109
1.92507
1.91733
1.90789
1.89849
1.89133
1.88627
1.88202
1.8773
1.87044
1.86134
1.85045
1.84065
1.83825
1.84134
1.85378
1.87896
1.91675
1.96211
1.97473
1.97559
1.9743
1.97087
1.96952
1.9651
1.95965
1.95278
1.94286
1.93242
1.92628
1.9221
1.91883
1.91442
1.90899
1.90234
1.89372
1.88552
1.87991
1.8738
1.86433
2.32135
2.35407
2.33328
2.3024
2.2829
2.26049
2.23221
2.20913
2.18874
2.16808
2.1531
2.13471
2.10472
2.0764
2.06126
2.04988
2.03178
2.00642
1.97911
1.96365
1.9491
1.93155
1.91382
1.88939
1.86032
1.83669
1.81971
1.82158
1.83308
1.89235
1.99001
2.0486
2.06601
2.07959
2.07872
2.0711
2.05908
2.04394
2.03304
2.02662
2.0214
2.01524
2.00813
1.99947
1.98773
1.97894
1.97299
1.96682
1.96078
1.95481
1.94804
1.93927
1.92912
1.9199
1.91245
1.90665
1.90186
1.89694
1.89161
1.88509
1.87685
1.86804
1.86
1.85302
1.84735
1.84238
1.83677
1.83065
1.82528
1.82726
1.84078
1.87294
1.90896
1.94739
1.97162
1.97155
1.96778
1.95727
1.94969
1.94547
1.94244
1.9389
1.93401
1.92726
1.91762
1.90874
1.9037
1.89976
1.89577
1.89098
1.88548
1.87866
1.87013
1.86303
1.85859
1.84926
2.37385
2.36056
2.32843
2.30196
2.28782
2.27002
2.2424
2.21969
2.20581
2.18509
2.16515
2.14734
2.12098
2.09294
2.07555
2.06299
2.04468
2.01963
1.99249
1.97322
1.95909
1.94127
1.92147
1.89975
1.87125
1.84944
1.82902
1.81116
1.80552
1.80777
1.83992
1.91985
1.98774
2.02585
2.04466
2.04501
2.0368
2.02243
2.00986
2.00066
1.9945
1.98957
1.98446
1.97603
1.96549
1.95695
1.94916
1.94119
1.93384
1.92797
1.92182
1.91483
1.90626
1.89853
1.89036
1.88132
1.87525
1.87181
1.86785
1.86227
1.85495
1.84635
1.83707
1.82877
1.82215
1.81724
1.81327
1.81515
1.82048
1.83689
1.87202
1.90757
1.93097
1.95131
1.9573
1.95604
1.95142
1.94167
1.93164
1.92627
1.92277
1.92032
1.91684
1.91235
1.90574
1.89646
1.88914
1.88459
1.88062
1.87674
1.87262
1.8678
1.86125
1.85252
1.84682
1.83855
2.36943
2.34806
2.31677
2.29753
2.28763
2.27271
2.24684
2.22411
2.21278
2.1957
2.17127
2.15114
2.12883
2.10315
2.08446
2.07012
2.05217
2.02719
2.00131
1.97966
1.96308
1.94669
1.92655
1.90556
1.88181
1.85696
1.83975
1.81956
1.80024
1.79192
1.78517
1.80045
1.8572
1.9317
1.99433
2.01225
2.00989
2.00551
1.99576
1.986
1.97849
1.97206
1.9633
1.95541
1.94957
1.94268
1.93542
1.9279
1.91804
1.90445
1.89389
1.88993
1.88753
1.88329
1.87727
1.86825
1.85522
1.84458
1.84073
1.83883
1.83612
1.82988
1.81981
1.80458
1.79504
1.79525
1.79752
1.80987
1.83571
1.8765
1.91835
1.93024
1.93621
1.94044
1.94039
1.93935
1.9355
1.93004
1.9216
1.91413
1.9102
1.90772
1.90504
1.90165
1.89719
1.89045
1.88203
1.87591
1.87186
1.8687
1.86557
1.86205
1.85748
1.8498
1.84158
1.83363
2.3685
2.3426
2.3144
2.29875
2.28953
2.27386
2.24803
2.22568
2.21437
2.20021
2.17531
2.15144
2.13281
2.11088
2.09119
2.07438
2.05613
2.0324
2.00646
1.98599
1.96732
1.9509
1.93259
1.91171
1.89042
1.86798
1.84875
1.83254
1.81316
1.79331
1.77785
1.77269
1.77985
1.81865
1.89519
1.96169
1.98037
1.98857
1.99115
1.98636
1.97703
1.96558
1.95314
1.94314
1.9371
1.93212
1.92644
1.9193
1.91013
1.89667
1.88366
1.87658
1.87222
1.86854
1.86388
1.85722
1.84651
1.83397
1.82654
1.82172
1.81672
1.81056
1.8031
1.79305
1.78792
1.78918
1.80359
1.83749
1.87746
1.92118
1.93869
1.93817
1.93467
1.93285
1.93203
1.93267
1.92959
1.92499
1.91877
1.91069
1.90595
1.90355
1.90093
1.89708
1.89312
1.88856
1.88183
1.87488
1.87135
1.86868
1.86529
1.86126
1.85662
1.85095
1.84404
1.83365
2.40006
2.35922
2.32652
2.30894
2.29719
2.27845
2.25254
2.22982
2.2173
2.20298
2.17888
2.15165
2.13442
2.1171
2.09732
2.07837
2.05929
2.03794
2.01359
1.99285
1.97527
1.95772
1.94125
1.92302
1.90249
1.88235
1.86374
1.84856
1.83441
1.81754
1.79955
1.78487
1.77546
1.77793
1.80544
1.86796
1.9293
1.96689
1.99037
1.99302
1.98758
1.97536
1.9593
1.94709
1.93923
1.9329
1.9267
1.91958
1.90932
1.89603
1.8855
1.87897
1.87397
1.86849
1.86171
1.85344
1.84309
1.83174
1.82284
1.81639
1.80989
1.80406
1.79943
1.79358
1.7954
1.81189
1.85096
1.8874
1.91851
1.94136
1.94453
1.94325
1.93828
1.93305
1.93041
1.92871
1.92864
1.92691
1.92299
1.9165
1.90881
1.90345
1.90112
1.90025
1.89793
1.89439
1.88941
1.88235
1.87454
1.86816
1.86518
1.86341
1.8613
1.85773
1.85241
1.8405
2.46412
2.42018
2.38246
2.35276
2.33071
2.30489
2.27537
2.25144
2.23655
2.22075
2.19649
2.16925
2.15054
2.13308
2.11186
2.09132
2.06982
2.04785
2.02683
2.00793
1.9915
1.9755
1.95843
1.94014
1.92155
1.90425
1.88928
1.87652
1.86448
1.85108
1.83433
1.81596
1.80028
1.79516
1.7957
1.80789
1.85138
1.91119
1.97484
2.007
2.00286
1.9916
1.97742
1.96547
1.95513
1.9464
1.93775
1.92797
1.91665
1.90607
1.89729
1.88859
1.87978
1.8719
1.86444
1.85662
1.84806
1.83853
1.82742
1.81578
1.80705
1.80417
1.8042
1.81213
1.83738
1.88151
1.91809
1.93321
1.94611
1.95697
1.95756
1.95538
1.9501
1.94211
1.93646
1.93415
1.93324
1.9333
1.93172
1.92831
1.92215
1.91422
1.90906
1.90667
1.90468
1.90233
1.89932
1.89475
1.88766
1.88019
1.87513
1.87173
1.86885
1.86572
1.86257
1.85552
2.57063
2.52079
2.47369
2.43249
2.39943
2.36788
2.33229
2.30205
2.28058
2.26016
2.23469
2.20631
2.18679
2.17275
2.15238
2.13021
2.10933
2.08836
2.0697
2.05315
2.03746
2.02151
2.00434
1.98683
1.97055
1.95591
1.94236
1.92927
1.91599
1.90185
1.88648
1.8699
1.85441
1.83837
1.82123
1.81685
1.82202
1.84819
1.90457
1.97557
2.00502
2.0046
2.00391
1.99666
1.9845
1.9704
1.95591
1.94307
1.93406
1.92646
1.91817
1.90739
1.89356
1.88112
1.87365
1.86705
1.85977
1.85047
1.83839
1.82562
1.81685
1.81698
1.82973
1.86538
1.91228
1.95513
1.96922
1.97022
1.97227
1.97286
1.97274
1.97054
1.96757
1.96289
1.95584
1.95106
1.94911
1.94809
1.94684
1.94455
1.94115
1.93551
1.92839
1.92383
1.92095
1.91805
1.91489
1.9114
1.90714
1.90155
1.89527
1.89017
1.88634
1.88273
1.8796
1.87367
2.62775
2.59266
2.55562
2.51978
2.48408
2.4457
2.40749
2.37487
2.34902
2.32666
2.29942
2.26808
2.2443
2.22694
2.20626
2.18168
2.15848
2.13739
2.11838
2.10116
2.08421
2.06659
2.04806
2.02958
2.01259
1.99743
1.98305
1.9684
1.9528
1.93622
1.91892
1.90222
1.88606
1.87206
1.85875
1.84602
1.83367
1.83444
1.84776
1.89461
1.96222
2.00229
2.02583
2.02567
2.01538
1.99511
1.97362
1.96254
1.95559
1.9506
1.94324
1.93189
1.91612
1.89844
1.88818
1.88111
1.87464
1.86606
1.85761
1.84818
1.8434
1.8578
1.90086
1.94378
1.98173
2.00828
2.01136
2.00643
1.99623
1.99175
1.99066
1.99126
1.99147
1.99026
1.98577
1.97891
1.97502
1.97284
1.97086
1.96871
1.96607
1.96223
1.95601
1.94997
1.94614
1.94304
1.93996
1.93674
1.93299
1.9281
1.92181
1.91571
1.91128
1.90766
1.90474
1.89897
2.64624
2.62569
2.60261
2.57654
2.54718
2.51467
2.48238
2.45317
2.42762
2.40046
2.36771
2.33556
2.31044
2.29117
2.26954
2.24367
2.21744
2.1961
2.17643
2.15795
2.1398
2.12067
2.10028
2.07983
2.06119
2.04476
2.02931
2.01362
1.9967
1.97839
1.95924
1.94125
1.92439
1.90949
1.89485
1.88052
1.86346
1.84845
1.83838
1.84541
1.88444
1.94601
2.00199
2.03533
2.03393
2.01802
1.99375
1.97915
1.97208
1.96811
1.96293
1.95342
1.94047
1.92149
1.90376
1.89416
1.88683
1.88226
1.88357
1.88322
1.90226
1.95466
1.99488
2.01691
2.03938
2.04634
2.04365
2.03673
2.02679
2.02172
2.02055
2.02061
2.02073
2.01919
2.01586
2.01035
2.00536
2.00241
2.00022
1.99801
1.99543
1.99181
1.98637
1.98016
1.97521
1.97154
1.96835
1.96511
1.96143
1.95686
1.95098
1.9446
1.93916
1.93479
1.93169
1.92586
2.64472
2.63112
2.61577
2.59705
2.57556
2.55206
2.52797
2.50423
2.48051
2.45318
2.42312
2.39494
2.37194
2.35266
2.32865
2.29984
2.27065
2.24886
2.22864
2.20883
2.1893
2.16797
2.14487
2.12272
2.10336
2.08602
2.06936
2.0522
2.03342
2.01297
1.9926
1.97397
1.95689
1.9406
1.92456
1.90773
1.88976
1.87007
1.8535
1.84197
1.84451
1.86937
1.92491
1.98988
2.03184
2.03199
2.01497
1.994
1.98246
1.97487
1.96971
1.96276
1.9542
1.94026
1.92074
1.90777
1.90037
1.90275
1.91288
1.9438
2.00253
2.05381
2.06273
2.06745
2.07017
2.06985
2.06732
2.06418
2.05968
2.05525
2.05288
2.05144
2.04993
2.04751
2.04408
2.03997
2.03577
2.03205
2.02908
2.02644
2.02337
2.01932
2.01426
2.00883
2.00365
1.99901
1.99505
1.99139
1.98738
1.98261
1.97697
1.97093
1.9652
1.96018
1.95671
1.95039
2.64271
2.63039
2.61628
2.60097
2.58431
2.56656
2.54804
2.52853
2.50693
2.48213
2.45656
2.43287
2.41272
2.39231
2.36651
2.33754
2.31153
2.29057
2.27016
2.24885
2.22686
2.20306
2.17916
2.15753
2.13798
2.11927
2.10033
2.0803
2.05889
2.03734
2.01712
1.99871
1.98124
1.96377
1.94567
1.92649
1.90656
1.88704
1.86985
1.85279
1.84253
1.83702
1.84955
1.89678
1.96575
2.01695
2.01786
2.00923
1.99309
1.9761
1.96661
1.95974
1.95276
1.94447
1.93409
1.92306
1.92049
1.92773
1.96851
2.03049
2.08371
2.10459
2.10405
2.09824
2.0929
2.09024
2.08828
2.0868
2.08483
2.08263
2.07943
2.0757
2.07262
2.06938
2.06599
2.06284
2.05975
2.05631
2.05223
2.04797
2.04375
2.03942
2.03515
2.03098
2.02666
2.02185
2.0166
2.0114
2.00621
2.0009
1.99565
1.9908
1.98638
1.98171
1.97704
1.96824
2.64206
2.6303
2.61628
2.60151
2.58587
2.56967
2.55285
2.53489
2.5149
2.49286
2.47069
2.45068
2.43309
2.41122
2.38492
2.3586
2.3368
2.3173
2.29608
2.27258
2.24739
2.2231
2.20111
2.18062
2.1608
2.1407
2.11923
2.09618
2.07314
2.05185
2.03254
2.01461
1.99696
1.97832
1.958
1.93646
1.91598
1.89723
1.8806
1.86412
1.84756
1.83521
1.82127
1.82691
1.86915
1.9356
1.99412
2.01001
2.00323
1.98369
1.96281
1.95315
1.94514
1.93981
1.93891
1.93601
1.94731
1.99451
2.0559
2.09661
2.11918
2.12227
2.12112
2.11563
2.1076
2.10412
2.10235
2.10189
2.10084
2.09864
2.09486
2.08943
2.0858
2.08338
2.08121
2.07899
2.07608
2.0724
2.06682
2.06056
2.05611
2.05278
2.0497
2.0464
2.04243
2.03711
2.03022
2.02312
2.0173
2.01279
2.00897
2.0053
2.00118
1.99553
1.98871
1.97768
2.64124
2.62975
2.61567
2.60106
2.58565
2.56963
2.5527
2.5344
2.51472
2.49503
2.47616
2.45861
2.43946
2.41519
2.38913
2.36764
2.34924
2.3299
2.30718
2.28162
2.25562
2.2327
2.21209
2.19244
2.17272
2.15171
2.12821
2.10341
2.08011
2.05971
2.04154
2.02422
2.00647
1.9868
1.96447
1.94116
1.9206
1.90334
1.88791
1.87184
1.85482
1.83672
1.81954
1.80322
1.80652
1.84201
1.90828
1.97076
1.99271
1.98563
1.96547
1.94781
1.93874
1.93722
1.94313
1.96501
2.01686
2.0845
2.11157
2.12421
2.12854
2.12863
2.12627
2.12177
2.11471
2.11129
2.1097
2.10899
2.10774
2.10561
2.1018
2.0971
2.09407
2.0917
2.08957
2.0871
2.08389
2.07944
2.07301
2.06748
2.06418
2.06121
2.0581
2.05457
2.05004
2.04393
2.0369
2.03065
2.02563
2.0216
2.01791
2.01384
2.00866
2.00152
1.99442
1.98478
2.64124
2.62971
2.61567
2.60125
2.58594
2.56978
2.55259
2.53427
2.51547
2.49695
2.47893
2.46067
2.43822
2.41375
2.39226
2.37291
2.35488
2.3338
2.31036
2.28441
2.25929
2.23765
2.21764
2.1979
2.17751
2.15545
2.13118
2.10661
2.08429
2.06464
2.0467
2.02926
2.01114
1.99072
1.96777
1.94474
1.9241
1.90649
1.8919
1.87875
1.86299
1.84347
1.82166
1.80096
1.78927
1.79189
1.82005
1.87807
1.94092
1.96586
1.95861
1.94287
1.9384
1.94266
1.97118
2.029
2.09761
2.12381
2.12917
2.12976
2.13043
2.12903
2.12591
2.12183
2.11735
2.11497
2.1133
2.11189
2.11033
2.10819
2.10479
2.1013
2.09837
2.09529
2.09232
2.08934
2.08575
2.08106
2.076
2.07193
2.06843
2.06484
2.06105
2.0569
2.05211
2.04666
2.04114
2.03608
2.0315
2.02705
2.02244
2.01726
2.01134
2.00452
1.99858
1.99009
2.64233
2.63061
2.61655
2.60215
2.58677
2.5705
2.55333
2.53541
2.5173
2.49903
2.4805
2.46046
2.43822
2.41612
2.39557
2.3765
2.35685
2.33444
2.31028
2.28541
2.26276
2.2418
2.22122
2.2006
2.17899
2.15556
2.13175
2.10934
2.08881
2.06936
2.05043
2.03159
2.01134
1.98974
1.96854
1.94863
1.92981
1.91166
1.89362
1.87636
1.8586
1.84041
1.82299
1.80536
1.78946
1.77748
1.77337
1.79034
1.84262
1.90589
1.93157
1.93379
1.94719
1.98258
2.03596
2.09422
2.13057
2.14047
2.13786
2.13295
2.12935
2.12613
2.12264
2.11927
2.11745
2.11637
2.11499
2.11318
2.1111
2.10824
2.10518
2.10267
2.10002
2.09685
2.09318
2.0894
2.08523
2.08088
2.07712
2.07377
2.07028
2.06639
2.06196
2.05724
2.0526
2.04822
2.04397
2.03967
2.03502
2.0298
2.02405
2.01807
2.01212
2.00626
2.0017
1.99366
2.64401
2.63209
2.61796
2.6035
2.58809
2.5719
2.55494
2.53743
2.51943
2.50084
2.48133
2.46044
2.43919
2.41853
2.39894
2.37903
2.35656
2.33259
2.30923
2.28737
2.26661
2.24572
2.22422
2.20147
2.17768
2.15407
2.13213
2.11238
2.09359
2.07435
2.05364
2.0311
2.00842
1.98746
1.96874
1.95188
1.93525
1.91759
1.89785
1.87643
1.85625
1.83847
1.82164
1.80736
1.7919
1.77471
1.75754
1.74986
1.76447
1.81337
1.87839
1.92909
1.99175
2.05726
2.09585
2.11957
2.13389
2.13764
2.13563
2.13138
2.12646
2.12114
2.1182
2.11741
2.11757
2.11758
2.11645
2.11421
2.11046
2.10705
2.10483
2.1028
2.10051
2.09769
2.09377
2.08857
2.08374
2.08013
2.07709
2.07418
2.071
2.06717
2.06233
2.05693
2.05241
2.04892
2.0456
2.04191
2.03733
2.03139
2.02454
2.01812
2.01247
2.0075
2.00348
1.99551
2.6452
2.63339
2.61922
2.60472
2.58933
2.57326
2.55651
2.53915
2.52097
2.50183
2.48161
2.46099
2.44097
2.42175
2.40264
2.37996
2.35594
2.33208
2.31022
2.2904
2.27004
2.24885
2.22624
2.20121
2.1753
2.15243
2.13333
2.11581
2.09813
2.0786
2.05524
2.0286
2.00379
1.98476
1.96968
1.95588
1.94121
1.92322
1.89909
1.872
1.85003
1.83502
1.8227
1.81114
1.79775
1.77924
1.75484
1.73045
1.72974
1.74706
1.8115
1.92879
2.03534
2.11211
2.15245
2.15166
2.14486
2.13683
2.13289
2.12991
2.12488
2.11813
2.1159
2.11557
2.11656
2.11746
2.11637
2.114
2.10966
2.10655
2.10469
2.10275
2.1005
2.09766
2.09331
2.08721
2.08246
2.07963
2.07705
2.07434
2.07137
2.06762
2.06203
2.05612
2.05256
2.04963
2.04646
2.04276
2.03797
2.03145
2.02388
2.01767
2.01313
2.00886
2.00486
1.99647
)
;

boundaryField
{
    inlet
    {
        type            fixedValue;
        value           uniform 1;
    }
    outlet
    {
        type            inletOutlet;
        inletValue      uniform 1;
        value           nonuniform List<scalar> 
32
(
2.46085
2.44724
2.4196
2.37797
2.32057
2.25437
2.19919
2.15701
2.11561
2.06621
2.00486
1.94917
1.91199
1.88475
1.8645
1.84952
1.83885
1.83393
1.83329
1.83974
1.85527
1.8738
1.8991
1.92608
1.9506
1.96812
1.9775
1.9849
1.99036
1.99381
1.99556
1.99636
)
;
    }
    bottom
    {
        type            symmetryPlane;
    }
    top
    {
        type            symmetryPlane;
    }
    obstacle
    {
        type            zeroGradient;
    }
    defaultFaces
    {
        type            empty;
    }
}


// ************************************************************************* //
