/*--------------------------------*- C++ -*----------------------------------*\
  =========                 |
  \\      /  F ield         | OpenFOAM: The Open Source CFD Toolbox
   \\    /   O peration     | Website:  https://openfoam.org
    \\  /    A nd           | Version:  7
     \\/     M anipulation  |
\*---------------------------------------------------------------------------*/
FoamFile
{
    version     2.0;
    format      ascii;
    class       volVectorField;
    location    "9";
    object      U;
}
// * * * * * * * * * * * * * * * * * * * * * * * * * * * * * * * * * * * * * //

dimensions      [0 1 -1 0 0 0 0];

internalField   nonuniform List<vector> 
4032
(
(3 1.35175e-17 0)
(3 -1.3094e-16 0)
(3 -2.42541e-16 0)
(3 9.5504e-18 0)
(3 -6.57864e-17 0)
(3 -1.81308e-17 0)
(3 1.35704e-16 0)
(3 -1.75366e-16 0)
(3 -3.26606e-16 0)
(3 -4.41591e-16 0)
(3 -6.80788e-16 0)
(2.90023 0.00320024 0)
(0.98817 0.0160515 0)
(0.70949 0.0192975 0)
(0.657856 0.024163 0)
(0.598099 0.0256399 0)
(0.539187 0.0268284 0)
(0.478424 0.0281212 0)
(0.415891 0.0295884 0)
(0.350958 0.0313664 0)
(0.283099 0.033364 0)
(0.210708 0.036417 0)
(0.132041 0.0390737 0)
(0.0494559 0.0445429 0)
(3 -2.19195e-16 0)
(3 -3.17531e-16 0)
(3 -5.97928e-16 0)
(3 1.15354e-16 0)
(3 3.09573e-16 0)
(3 6.40331e-16 0)
(3 1.78075e-16 0)
(3 -7.3116e-16 0)
(3 -1.11108e-15 0)
(3 -6.39128e-16 0)
(3 -4.50761e-16 0)
(2.91033 0.0202646 0)
(0.994273 0.074267 0)
(0.695471 0.0665644 0)
(0.641467 0.0708852 0)
(0.582808 0.0754425 0)
(0.524147 0.0797881 0)
(0.46315 0.084342 0)
(0.4001 0.0890256 0)
(0.334897 0.0945086 0)
(0.267581 0.100467 0)
(0.197529 0.110163 0)
(0.122301 0.118852 0)
(0.0460117 0.134609 0)
(3 -8.96512e-17 0)
(3 -2.35522e-16 0)
(3 -9.67474e-17 0)
(3 -8.43152e-20 0)
(3 5.65099e-16 0)
(3 1.35872e-15 0)
(3 3.33764e-16 0)
(3 -2.93475e-16 0)
(3 -1.06836e-15 0)
(3 -9.14873e-16 0)
(3 -1.00155e-15 0)
(2.95432 0.0402188 0)
(1.03187 0.137653 0)
(0.710852 0.115681 0)
(0.65647 0.122504 0)
(0.595798 0.129955 0)
(0.535028 0.137418 0)
(0.471907 0.145351 0)
(0.406286 0.153224 0)
(0.337968 0.161861 0)
(0.267047 0.169979 0)
(0.194503 0.183507 0)
(0.117769 0.195142 0)
(0.043847 0.21755 0)
(3 1.48245e-16 0)
(3 -5.31266e-17 0)
(3 7.22754e-17 0)
(3 1.26853e-16 0)
(3 2.74183e-16 0)
(3 -8.60878e-17 0)
(3 -9.78921e-17 0)
(3 -3.08962e-16 0)
(3 -7.33548e-16 0)
(3 -7.98322e-16 0)
(3 -8.74931e-16 0)
(3.00835 0.00635295 0)
(1.10727 0.182129 0)
(0.743576 0.152579 0)
(0.692192 0.16677 0)
(0.63279 0.178703 0)
(0.571848 0.190109 0)
(0.508144 0.202753 0)
(0.440593 0.215967 0)
(0.368386 0.230972 0)
(0.290922 0.244225 0)
(0.211228 0.262807 0)
(0.126867 0.277082 0)
(0.0459098 0.302572 0)
(3 1.02853e-16 0)
(3 2.49173e-16 0)
(3 -4.04986e-17 0)
(3 1.57424e-16 0)
(3 -2.56793e-16 0)
(3 -3.84348e-16 0)
(3 2.19267e-16 0)
(3 1.42512e-15 0)
(3 1.07232e-15 0)
(3 9.49959e-16 0)
(3 6.06986e-16 0)
(3.0006 3.07741e-05 0)
(1.21587 0.224349 0)
(0.750175 0.19694 0)
(0.695816 0.217943 0)
(0.639766 0.234407 0)
(0.581393 0.249259 0)
(0.521083 0.266679 0)
(0.45722 0.285519 0)
(0.389347 0.307224 0)
(0.314719 0.325343 0)
(0.235691 0.348561 0)
(0.145594 0.367809 0)
(0.0549869 0.399437 0)
(3 2.63333e-16 0)
(3 7.36908e-16 0)
(3 3.78701e-16 0)
(3 2.28745e-16 0)
(3 1.04319e-15 0)
(3 1.80696e-15 0)
(3 2.27953e-15 0)
(3 2.7585e-15 0)
(3 2.62198e-15 0)
(3 1.97471e-15 0)
(3 1.53098e-15 0)
(3 -1.19925e-07 0)
(1.39556 0.274551 0)
(0.765582 0.245205 0)
(0.69713 0.262113 0)
(0.648137 0.281312 0)
(0.597919 0.298877 0)
(0.547457 0.320224 0)
(0.492126 0.344489 0)
(0.430427 0.374972 0)
(0.355214 0.405317 0)
(0.268334 0.443107 0)
(0.166159 0.478269 0)
(0.0561489 0.51717 0)
(3 5.61762e-17 0)
(3 -1.43822e-16 0)
(3 5.72125e-16 0)
(3 8.63501e-16 0)
(3 1.47838e-15 0)
(3 1.40326e-15 0)
(3 1.49643e-15 0)
(3 1.528e-15 0)
(3 1.52124e-15 0)
(3 1.77053e-15 0)
(3 2.74304e-15 0)
(3 -1.19359e-07 0)
(1.66954 0.325791 0)
(0.796007 0.30909 0)
(0.696779 0.30882 0)
(0.645987 0.325421 0)
(0.597916 0.343629 0)
(0.554529 0.369783 0)
(0.508271 0.402227 0)
(0.459104 0.444834 0)
(0.397831 0.491939 0)
(0.326514 0.543593 0)
(0.233315 0.594465 0)
(0.101397 0.660116 0)
(3 -5.63626e-17 0)
(3 4.57684e-16 0)
(3 9.62304e-16 0)
(3 6.26646e-16 0)
(3 -5.86356e-16 0)
(3 -1.3782e-15 0)
(3 -7.46364e-16 0)
(3 -4.42344e-16 0)
(3 -5.25366e-16 0)
(3 2.61707e-16 0)
(3 1.26515e-15 0)
(3 -2.49513e-08 0)
(2.07258 0.367338 0)
(0.852344 0.394228 0)
(0.716892 0.37021 0)
(0.667168 0.379232 0)
(0.620167 0.392434 0)
(0.579411 0.416671 0)
(0.540455 0.452179 0)
(0.501973 0.501116 0)
(0.457731 0.560477 0)
(0.395489 0.641423 0)
(0.275135 0.757305 0)
(0.151485 0.924008 0)
(3 1.48412e-16 0)
(3 2.00985e-16 0)
(3 2.12985e-16 0)
(3 -8.05751e-16 0)
(3 -2.66629e-15 0)
(3 -1.93039e-15 0)
(3 -1.19377e-15 0)
(3 -6.70591e-16 0)
(3 -3.07915e-16 0)
(3 -9.66282e-16 0)
(3 -1.45587e-15 0)
(3 -2.59361e-09 0)
(2.65644 0.302739 0)
(0.984606 0.477817 0)
(0.803368 0.406452 0)
(0.75155 0.415047 0)
(0.69394 0.43349 0)
(0.642509 0.459503 0)
(0.599781 0.496674 0)
(0.563667 0.549965 0)
(0.529843 0.626799 0)
(0.49674 0.751074 0)
(0.465273 0.923197 0)
(0.578292 1.20231 0)
(3 1.08562e-17 0)
(3 -3.66261e-16 0)
(3 -1.42796e-16 0)
(3 -6.08611e-17 0)
(3 2.70415e-16 0)
(3 6.72814e-16 0)
(3 4.49636e-16 0)
(3 2.61571e-16 0)
(3 7.58068e-16 0)
(3 -3.78282e-16 0)
(3 -1.31412e-15 0)
(3 -1.05265e-10 0)
(3.07667 0.0426162 0)
(1.21929 0.46946 0)
(0.882256 0.447655 0)
(0.838633 0.474131 0)
(0.785099 0.489911 0)
(0.730802 0.511246 0)
(0.682525 0.544782 0)
(0.643833 0.596991 0)
(0.624387 0.681621 0)
(0.623377 0.816663 0)
(0.686658 0.965853 0)
(0.970196 1.13885 0)
(3 -7.09581e-17 0)
(3 -2.04499e-16 0)
(3 2.01573e-16 0)
(3 6.23436e-16 0)
(3 2.41437e-15 0)
(3 2.06601e-15 0)
(3 2.10169e-15 0)
(3 2.84665e-16 0)
(3 7.11915e-16 0)
(3 6.35112e-16 0)
(3 1.67132e-15 0)
(3 -2.22644e-12 0)
(3.00862 8.02077e-05 0)
(1.43628 0.462054 0)
(0.884319 0.512323 0)
(0.836607 0.53166 0)
(0.800889 0.551042 0)
(0.77245 0.575587 0)
(0.744969 0.607634 0)
(0.720527 0.651649 0)
(0.723324 0.72553 0)
(0.751071 0.840065 0)
(0.87289 0.963166 0)
(1.18305 1.06746 0)
(3 2.87137e-17 0)
(3 5.07997e-17 0)
(3 -2.9927e-17 0)
(3 -3.26213e-17 0)
(3 2.8304e-16 0)
(3 2.7112e-16 0)
(3 1.88984e-16 0)
(3 5.38263e-16 0)
(3 7.42554e-16 0)
(3 1.52551e-15 0)
(3 2.26473e-15 0)
(3 -1.91122e-14 0)
(3.00006 -2.49284e-06 0)
(1.94305 0.494048 0)
(0.929216 0.57675 0)
(0.853497 0.560446 0)
(0.83398 0.582111 0)
(0.819526 0.607662 0)
(0.809492 0.642274 0)
(0.801902 0.682714 0)
(0.817656 0.746108 0)
(0.866935 0.837555 0)
(1.01006 0.940073 0)
(1.27561 1.00644 0)
(3 -2.57867e-16 0)
(3 -3.19993e-16 0)
(3 -6.60955e-16 0)
(3 -4.17713e-16 0)
(3 -5.90318e-16 0)
(3 -4.52103e-16 0)
(3 -4.50774e-16 0)
(3 6.4401e-16 0)
(3 1.46996e-15 0)
(3 1.6384e-15 0)
(3 1.27518e-15 0)
(3 1.74787e-15 0)
(3.00001 -3.18902e-06 0)
(2.74723 0.319286 0)
(1.0965 0.635074 0)
(0.920612 0.581005 0)
(0.891389 0.601844 0)
(0.873678 0.630753 0)
(0.869958 0.668966 0)
(0.876461 0.71098 0)
(0.901561 0.765494 0)
(0.966349 0.83465 0)
(1.10515 0.907251 0)
(1.31936 0.947702 0)
(3 -8.98626e-17 0)
(3 -1.19001e-16 0)
(3 -2.25902e-16 0)
(3 -4.34738e-18 0)
(3 -2.18565e-17 0)
(3 1.94559e-16 0)
(3 3.55083e-16 0)
(3 4.28117e-16 0)
(3 8.1831e-16 0)
(3 1.12131e-15 0)
(3 1.01449e-15 0)
(3 1.18191e-15 0)
(3 -6.74075e-07 0)
(3.07453 0.0260368 0)
(1.43606 0.631828 0)
(1.00204 0.65256 0)
(0.95064 0.652226 0)
(0.924831 0.666716 0)
(0.923056 0.694148 0)
(0.939385 0.730358 0)
(0.974535 0.773774 0)
(1.04802 0.82771 0)
(1.17477 0.879431 0)
(1.34767 0.906601 0)
(3 3.76414e-16 0)
(3 4.72589e-16 0)
(3 4.7666e-16 0)
(3 1.63085e-16 0)
(3 -4.94669e-17 0)
(3 -1.03076e-16 0)
(3 -2.81354e-17 0)
(3 -3.8078e-16 0)
(3 -8.25764e-16 0)
(3 -7.08387e-16 0)
(3 -4.66296e-17 0)
(3 -1.43943e-16 0)
(3 -6.85364e-08 0)
(3.00414 7.29167e-05 0)
(1.98987 0.600088 0)
(1.06356 0.724379 0)
(1.01115 0.701923 0)
(0.994851 0.699119 0)
(0.991139 0.715329 0)
(1.00602 0.74196 0)
(1.04435 0.777743 0)
(1.11533 0.816467 0)
(1.22283 0.84953 0)
(1.35964 0.865885 0)
(3 7.11126e-17 0)
(3 4.32815e-18 0)
(3 -1.88952e-16 0)
(3 -3.86605e-16 0)
(3 -2.77046e-16 0)
(3 -2.7226e-16 0)
(3 -3.75877e-16 0)
(3 -7.19158e-16 0)
(3 -6.44484e-16 0)
(3 -1.05086e-16 0)
(3 2.50827e-16 0)
(3 -1.4691e-16 0)
(3 -2.1735e-09 0)
(3.00001 -3.28338e-07 0)
(2.93334 0.221664 0)
(1.28195 0.698002 0)
(1.08272 0.719156 0)
(1.08715 0.720547 0)
(1.08149 0.740747 0)
(1.08669 0.762249 0)
(1.11471 0.788338 0)
(1.17575 0.817461 0)
(1.2648 0.839223 0)
(1.37695 0.8483 0)
(3 -2.813e-17 0)
(3 -7.76714e-17 0)
(3 2.16367e-17 0)
(3 1.97217e-16 0)
(3 2.76074e-16 0)
(3 1.00384e-16 0)
(3 -1.29104e-16 0)
(3 -8.21194e-16 0)
(3 -9.97717e-16 0)
(3 -8.37798e-16 0)
(3 -6.68247e-16 0)
(3 4.17614e-16 0)
(3 -4.82035e-12 0)
(3 -7.84116e-07 0)
(3.0412 0.00642545 0)
(1.57282 0.659798 0)
(1.10027 0.756548 0)
(1.1113 0.765424 0)
(1.11704 0.783405 0)
(1.13958 0.795414 0)
(1.17363 0.806221 0)
(1.22793 0.817711 0)
(1.30308 0.828061 0)
(1.3968 0.830988 0)
(3 1.74124e-17 0)
(3 7.48765e-16 0)
(3 1.25802e-15 0)
(3 1.07057e-15 0)
(3 8.76335e-16 0)
(3 6.72177e-16 0)
(3 5.2115e-16 0)
(3 7.53059e-16 0)
(3 1.89934e-16 0)
(3 -5.75103e-16 0)
(3 -7.61301e-16 0)
(3 8.01795e-16 0)
(3 -4.17283e-15 0)
(3 -1.50099e-07 0)
(3.0008 3.57785e-05 0)
(2.38978 0.510676 0)
(1.20594 0.789083 0)
(1.13555 0.791899 0)
(1.14882 0.795569 0)
(1.17682 0.805496 0)
(1.21677 0.817133 0)
(1.26947 0.827523 0)
(1.33819 0.833753 0)
(1.41771 0.832849 0)
(3 4.45714e-17 0)
(3 -8.07856e-17 0)
(3 -5.16114e-16 0)
(3 -3.60967e-16 0)
(3 -6.02752e-17 0)
(3 2.40903e-16 0)
(3 7.55159e-16 0)
(3 1.08379e-15 0)
(3 9.48987e-16 0)
(3 6.09565e-17 0)
(3 -2.67945e-16 0)
(3 -4.26664e-16 0)
(3 -4.32444e-17 0)
(3 -4.69753e-09 0)
(3.00002 -5.56976e-06 0)
(3.05778 0.072324 0)
(1.56697 0.776497 0)
(1.18524 0.786288 0)
(1.19847 0.794072 0)
(1.22109 0.806253 0)
(1.25869 0.817427 0)
(1.30801 0.826511 0)
(1.37089 0.830861 0)
(1.44169 0.829595 0)
(3 -1.51396e-16 0)
(3 -5.0729e-16 0)
(3 -3.56567e-16 0)
(3 -3.56383e-16 0)
(3 -2.21541e-17 0)
(3 1.49674e-16 0)
(3 4.98213e-17 0)
(3 -5.58979e-16 0)
(3 -7.3867e-16 0)
(3 -9.60918e-16 0)
(3 -1.02988e-15 0)
(3 -1.37379e-15 0)
(3 -1.22153e-15 0)
(3 -1.69931e-11 0)
(3 -1.39798e-06 0)
(3.00815 0.00137745 0)
(2.29494 0.630963 0)
(1.2638 0.848519 0)
(1.22288 0.83365 0)
(1.25538 0.833004 0)
(1.28911 0.837544 0)
(1.33587 0.841702 0)
(1.39429 0.843676 0)
(1.46005 0.842355 0)
(3 -1.71019e-16 0)
(3 -1.32775e-16 0)
(3 1.72924e-17 0)
(3 -1.06323e-17 0)
(3 2.07626e-16 0)
(3 2.04189e-16 0)
(3 -2.7046e-16 0)
(3 -1.11615e-15 0)
(3 -8.64913e-16 0)
(3 -3.43632e-16 0)
(3 -6.56897e-16 0)
(3 -8.22815e-16 0)
(3 -7.60899e-16 0)
(3 -7.79213e-15 0)
(3 -1.18762e-07 0)
(3.00003 9.4704e-06 0)
(3.03939 0.117555 0)
(1.62746 0.827592 0)
(1.26872 0.831076 0)
(1.30254 0.8324 0)
(1.32931 0.837353 0)
(1.371 0.841195 0)
(1.42469 0.843796 0)
(1.48495 0.844263 0)
(3 8.2748e-17 0)
(3 2.25841e-16 0)
(3 -1.84895e-16 0)
(3 -3.74033e-17 0)
(3 -3.18928e-16 0)
(3 -1.05546e-15 0)
(3 -8.75246e-16 0)
(3 -8.80719e-16 0)
(3 -6.28509e-16 0)
(3 6.24766e-17 0)
(3 -4.20867e-16 0)
(3 -6.02868e-16 0)
(3 -5.06e-16 0)
(3 1.83593e-16 0)
(3 -1.43024e-09 0)
(3 -1.07933e-07 0)
(3.01058 0.003448 0)
(2.37359 0.636923 0)
(1.35502 0.88588 0)
(1.32212 0.87267 0)
(1.35897 0.866251 0)
(1.39804 0.867318 0)
(1.44367 0.868712 0)
(1.49229 0.860252 0)
(3 -2.93026e-17 0)
(3 3.50065e-17 0)
(3 2.07692e-16 0)
(3 7.19028e-16 0)
(3 7.1891e-16 0)
(3 -4.58897e-17 0)
(3 -2.05554e-16 0)
(3 1.13718e-16 0)
(3 5.76332e-16 0)
(3 6.43137e-16 0)
(3 3.37818e-16 0)
(3 3.50884e-16 0)
(3 2.69745e-16 0)
(3 2.54828e-16 0)
(3 -3.21885e-12 0)
(3 -2.6458e-08 0)
(3.00005 4.21229e-05 0)
(3.03351 0.104639 0)
(1.75753 0.835558 0)
(1.35741 0.877124 0)
(1.40858 0.875387 0)
(1.44061 0.877356 0)
(1.46975 0.869349 0)
(1.4841 0.832748 0)
(3 -9.56866e-17 0)
(3 -1.13243e-16 0)
(3 -1.67867e-16 0)
(3 -1.14983e-16 0)
(3 3.06314e-16 0)
(3 6.25339e-16 0)
(3 3.50635e-17 0)
(3 2.7009e-16 0)
(3 1.29874e-15 0)
(3 1.72475e-15 0)
(3 1.39583e-15 0)
(3 1.21458e-15 0)
(3 5.45676e-16 0)
(3 3.5088e-16 0)
(3 -1.37948e-15 0)
(3 -2.44432e-09 0)
(3 2.4763e-08 0)
(3.00626 0.00419198 0)
(2.59355 0.524188 0)
(1.5152 0.911847 0)
(1.44602 0.9279 0)
(1.45984 0.913056 0)
(1.45794 0.863499 0)
(1.42543 0.761664 0)
(3 -1.16366e-16 0)
(3 -1.35712e-16 0)
(3 -5.76411e-16 0)
(3 -1.09055e-15 0)
(3 -1.08366e-15 0)
(3 -8.52346e-16 0)
(3 -3.44176e-16 0)
(3 1.96844e-16 0)
(3 4.11969e-16 0)
(3 3.45056e-16 0)
(3 1.03457e-15 0)
(3 1.26493e-15 0)
(3 2.05609e-16 0)
(3 -3.58248e-16 0)
(3 -8.22739e-16 0)
(3 -9.49061e-11 0)
(3 -9.2553e-11 0)
(3.00002 4.40843e-05 0)
(3.02593 0.0534907 0)
(2.01686 0.785579 0)
(1.50537 0.966915 0)
(1.44869 0.886137 0)
(1.40233 0.762423 0)
(1.34187 0.62237 0)
(3 2.82021e-18 0)
(3 -6.26942e-17 0)
(3 -1.79425e-16 0)
(3 -3.55624e-16 0)
(3 -6.21737e-16 0)
(3 -3.93452e-16 0)
(3 1.99588e-16 0)
(3 -1.0854e-16 0)
(3 -9.71877e-16 0)
(3 -1.10162e-15 0)
(3 -4.06124e-16 0)
(3 -5.90987e-16 0)
(3 -5.71777e-16 0)
(3 -4.91707e-16 0)
(3 -1.08798e-16 0)
(3 -8.15758e-13 0)
(3 -2.9152e-11 0)
(3 3.12477e-08 0)
(3.00135 0.00244538 0)
(2.90535 0.324725 0)
(1.69509 0.995572 0)
(1.34567 0.755714 0)
(1.30864 0.648901 0)
(1.30216 0.574107 0)
(3 3.27183e-16 0)
(3 3.76752e-16 0)
(3 5.48514e-16 0)
(3 6.88088e-16 0)
(3 5.30159e-16 0)
(3 8.22877e-16 0)
(3 5.39268e-16 0)
(3 1.07037e-16 0)
(3 -4.85817e-16 0)
(3 -2.82301e-16 0)
(3 -6.21705e-16 0)
(3 -1.16848e-15 0)
(3 -1.0547e-15 0)
(3 3.55759e-16 0)
(3 1.56496e-15 0)
(3 -3.33042e-16 0)
(3 -3.83992e-12 0)
(3 2.47197e-12 0)
(3 1.32286e-05 0)
(3.01923 0.022849 0)
(2.26733 0.63985 0)
(1.25124 0.645567 0)
(1.22164 0.570505 0)
(1.28335 0.535841 0)
(3 1.26326e-17 0)
(3 -3.12533e-17 0)
(3 3.64953e-16 0)
(3 4.54778e-16 0)
(3 6.4751e-16 0)
(3 5.03134e-16 0)
(3 6.02596e-16 0)
(3 9.11123e-16 0)
(3 1.17228e-15 0)
(3 5.88709e-16 0)
(3 3.28555e-16 0)
(3 -1.0788e-16 0)
(3 -1.03974e-17 0)
(3 -2.39413e-16 0)
(3 1.16655e-15 0)
(3 6.64338e-16 0)
(3 -2.20517e-13 0)
(3 -2.51506e-13 0)
(3 7.09426e-09 0)
(3.00013 0.000706346 0)
(2.56201 0.154676 0)
(1.11947 0.408695 0)
(1.13154 0.458572 0)
(1.25096 0.463646 0)
(3 -2.07895e-16 0)
(3 -3.38179e-16 0)
(3 -2.488e-16 0)
(3 -6.57318e-17 0)
(3 -2.75993e-16 0)
(3 -5.78385e-16 0)
(3 1.10326e-16 0)
(3 7.12542e-16 0)
(3 1.0613e-15 0)
(3 1.11494e-15 0)
(3 7.52033e-16 0)
(3 3.84345e-16 0)
(3 6.63463e-17 0)
(3 -6.21457e-16 0)
(3 -3.37423e-16 0)
(3 -6.09161e-16 0)
(3 -4.42225e-15 0)
(3 -8.34505e-14 0)
(3 2.15548e-12 0)
(3 1.79326e-06 0)
(2.47656 0.115316 0)
(0.932407 0.292023 0)
(0.940541 0.407049 0)
(1.10736 0.441399 0)
(3 -4.48895e-17 0)
(3 8.31147e-17 0)
(3 -1.45737e-16 0)
(3 -3.30737e-16 0)
(3 -7.35352e-16 0)
(3 -5.99197e-16 0)
(3 -5.82315e-16 0)
(3 -7.85237e-16 0)
(3 -1.17706e-15 0)
(3 -1.00626e-15 0)
(3 -1.06668e-15 0)
(3 -5.29376e-16 0)
(3 -1.94733e-16 0)
(3 -8.89209e-17 0)
(3 -4.00082e-16 0)
(3 -3.66693e-16 0)
(3 4.22467e-16 0)
(3 -1.04739e-14 0)
(3 -1.06166e-14 0)
(3 1.24889e-09 0)
(2.61216 0.146277 0)
(0.921602 0.233694 0)
(0.825271 0.302756 0)
(0.950604 0.323124 0)
(3 -8.37592e-17 0)
(3 2.80343e-16 0)
(3 1.52191e-16 0)
(3 -5.88878e-16 0)
(3 -2.60681e-16 0)
(3 -1.99125e-16 0)
(3 -8.88898e-16 0)
(3 -1.22598e-15 0)
(3 -1.87321e-15 0)
(3 -2.71504e-15 0)
(3 -2.62449e-15 0)
(3 -7.90856e-16 0)
(3 -8.16001e-17 0)
(3 3.09546e-16 0)
(3 2.7259e-16 0)
(3 6.37139e-16 0)
(3 1.78491e-15 0)
(3 8.77659e-16 0)
(3 -2.36301e-15 0)
(3 2.57218e-13 0)
(2.82069 0.129168 0)
(0.997753 0.232072 0)
(0.810073 0.248958 0)
(0.873363 0.253458 0)
(3 1.35934e-16 0)
(3 1.65834e-16 0)
(3 -3.48367e-17 0)
(3 -3.82195e-16 0)
(3 -1.25363e-16 0)
(3 -8.91208e-17 0)
(3 1.92867e-17 0)
(3 3.68939e-16 0)
(3 1.17871e-16 0)
(3 -1.66308e-16 0)
(3 -1.32295e-16 0)
(3 -1.06371e-17 0)
(3 8.31922e-17 0)
(3 6.39825e-16 0)
(3 5.56804e-16 0)
(3 -3.16091e-16 0)
(3 -3.37032e-17 0)
(3 5.37339e-16 0)
(3 4.7141e-16 0)
(3 2.88218e-16 0)
(2.97831 0.0291664 0)
(1.094 0.231677 0)
(0.825734 0.219873 0)
(0.87353 0.214576 0)
(3 1.16316e-16 0)
(3 -2.83006e-17 0)
(3 -2.34519e-16 0)
(3 2.08611e-16 0)
(3 -1.65509e-16 0)
(3 -4.68643e-17 0)
(3 2.51773e-16 0)
(3 6.6801e-16 0)
(3 1.36416e-15 0)
(3 2.03758e-15 0)
(3 2.14915e-15 0)
(3 8.34384e-16 0)
(3 8.72762e-16 0)
(3 3.74582e-16 0)
(3 -4.28135e-16 0)
(3 -1.55601e-15 0)
(3 -1.04806e-15 0)
(3 3.39694e-16 0)
(3 2.51388e-16 0)
(3 7.00791e-17 0)
(3.00466 0.00288994 0)
(1.14539 0.202264 0)
(0.828042 0.188764 0)
(0.867259 0.186983 0)
(3 -1.99365e-16 0)
(3 -1.95838e-16 0)
(3 2.49651e-16 0)
(3 7.967e-16 0)
(3 5.65016e-16 0)
(3 3.9424e-16 0)
(3 4.10907e-16 0)
(3 6.69261e-16 0)
(3 1.27017e-15 0)
(3 2.33554e-15 0)
(3 9.41218e-16 0)
(3 7.79351e-16 0)
(3 7.85481e-16 0)
(3 -1.51415e-17 0)
(3 1.00756e-18 0)
(3 -2.74854e-16 0)
(3 -3.83037e-16 0)
(3 1.09844e-16 0)
(3 9.37799e-17 0)
(3 -2.89478e-16 0)
(3.00009 5.76193e-06 0)
(1.20948 0.181499 0)
(0.817174 0.166773 0)
(0.845309 0.164154 0)
(3 -1.34266e-17 0)
(3 1.7315e-17 0)
(3 3.65681e-16 0)
(3 2.80283e-16 0)
(3 6.1382e-16 0)
(3 1.12013e-15 0)
(3 1.9577e-15 0)
(3 1.43358e-15 0)
(3 2.83527e-16 0)
(3 -1.94104e-16 0)
(3 -1.34247e-15 0)
(3 -8.71371e-16 0)
(3 -4.13403e-16 0)
(3 6.00792e-17 0)
(3 6.29778e-16 0)
(3 1.09484e-15 0)
(3 1.33615e-15 0)
(3 9.91699e-16 0)
(3 6.6111e-16 0)
(3 -1.08889e-16 0)
(3 -4.51129e-09 0)
(1.30964 0.166623 0)
(0.824812 0.143847 0)
(0.834319 0.13782 0)
(3 -2.92296e-17 0)
(3 3.90184e-17 0)
(3 1.85359e-17 0)
(3 -1.58606e-16 0)
(3 2.17464e-16 0)
(3 6.50613e-16 0)
(3 4.64382e-16 0)
(3 5.01506e-16 0)
(3 1.21793e-17 0)
(3 -1.56671e-15 0)
(3 -1.09797e-15 0)
(3 -6.8094e-16 0)
(3 -5.51397e-16 0)
(3 6.37221e-16 0)
(3 9.8319e-16 0)
(3 2.02502e-15 0)
(3 2.27061e-15 0)
(3 1.70284e-15 0)
(3 8.64341e-16 0)
(3 1.12004e-15 0)
(3 -2.98764e-09 0)
(1.42028 0.14595 0)
(0.828665 0.121337 0)
(0.833031 0.115202 0)
(3 -2.55152e-16 0)
(3 -8.50839e-17 0)
(3 -1.04906e-16 0)
(3 2.8565e-16 0)
(3 2.6254e-16 0)
(3 3.72124e-17 0)
(3 -3.58429e-16 0)
(3 -5.96524e-16 0)
(3 -8.82302e-16 0)
(3 -1.25796e-15 0)
(3 -1.48962e-16 0)
(3 6.9575e-17 0)
(3 9.11979e-17 0)
(3 6.78871e-16 0)
(3 1.21247e-15 0)
(3 5.68423e-16 0)
(3 3.88797e-16 0)
(3 2.97056e-17 0)
(3 -5.64743e-16 0)
(3 -4.11327e-16 0)
(3 -5.64419e-10 0)
(1.52045 0.115953 0)
(0.832208 0.0964527 0)
(0.833707 0.091232 0)
(3 -7.44299e-18 0)
(3 1.34172e-16 0)
(3 3.81092e-16 0)
(3 1.12708e-16 0)
(3 2.12784e-16 0)
(3 -3.27402e-16 0)
(3 -5.49422e-16 0)
(3 -1.94953e-15 0)
(3 -2.08333e-15 0)
(3 -6.86433e-16 0)
(3 -1.2316e-16 0)
(3 2.74779e-16 0)
(3 2.58903e-16 0)
(3 -1.60493e-16 0)
(3 -6.77425e-17 0)
(3 -1.67138e-16 0)
(3 -3.20392e-16 0)
(3 -4.06116e-16 0)
(3 -7.5455e-16 0)
(3 -1.37773e-15 0)
(3 -5.05469e-11 0)
(1.60223 0.0819091 0)
(0.835902 0.069324 0)
(0.834429 0.0658419 0)
(3 2.93233e-16 0)
(3 2.72388e-16 0)
(3 -2.30398e-16 0)
(3 -9.23288e-16 0)
(3 -7.91498e-16 0)
(3 -8.90041e-16 0)
(3 -1.59296e-15 0)
(3 -1.35838e-15 0)
(3 -4.93261e-17 0)
(3 5.00884e-16 0)
(3 6.30556e-16 0)
(3 8.25153e-16 0)
(3 3.12208e-16 0)
(3 -2.53411e-17 0)
(3 -4.37605e-16 0)
(3 4.33635e-16 0)
(3 1.03361e-15 0)
(3 9.53287e-16 0)
(3 -1.61682e-16 0)
(3 -2.46728e-16 0)
(3 -1.50552e-12 0)
(1.65656 0.0440114 0)
(0.838345 0.0402812 0)
(0.833587 0.0392283 0)
(3 1.59991e-16 0)
(3 -1.18631e-16 0)
(3 -7.16784e-16 0)
(3 -9.35555e-16 0)
(3 -8.83244e-16 0)
(3 -7.662e-16 0)
(3 -6.78746e-16 0)
(3 -1.24618e-17 0)
(3 4.70773e-16 0)
(3 7.17473e-16 0)
(3 8.14e-16 0)
(3 1.01699e-15 0)
(3 4.36183e-16 0)
(3 -1.62333e-16 0)
(3 -3.40233e-16 0)
(3 -3.16153e-16 0)
(3 5.82431e-16 0)
(3 5.99423e-16 0)
(3 -8.39278e-17 0)
(3 1.85027e-16 0)
(3 -1.28982e-14 0)
(1.67041 0.00964258 0)
(0.831831 0.0113714 0)
(0.824535 0.0130355 0)
(1.48952 1.2708 0)
(1.9616 1.23406 0)
(2.30095 1.39382 0)
(2.4342 0.808888 0)
(2.46841 0.471133 0)
(2.49713 0.00260512 0)
(2.59279 -0.266416 0)
(2.59167 -0.349109 0)
(2.49857 -0.409099 0)
(2.4289 -0.308297 0)
(2.41028 -0.27053 0)
(2.41464 -0.199454 0)
(2.43036 -0.150728 0)
(2.40427 -0.142703 0)
(2.39315 -0.117846 0)
(1.84202 -0.0222513 0)
(0.90946 0.0319677 0)
(0.739914 0.0308387 0)
(0.684272 0.0260998 0)
(0.663001 0.0133105 0)
(0.666331 0.00470819 0)
(0.671075 -0.00384603 0)
(0.670242 -0.00898731 0)
(0.671482 -0.0125456 0)
(0.678259 -0.0147128 0)
(0.695866 -0.0166389 0)
(0.723994 -0.0181253 0)
(0.750956 -0.0190346 0)
(0.772782 -0.0192696 0)
(0.791111 -0.0191959 0)
(0.811085 -0.0190287 0)
(0.835203 -0.0188274 0)
(0.860807 -0.0184311 0)
(0.883824 -0.017605 0)
(0.903167 -0.0164425 0)
(0.922153 -0.0156583 0)
(0.943626 -0.0158487 0)
(0.96829 -0.0168902 0)
(0.993981 -0.0182356 0)
(1.01936 -0.0189249 0)
(1.04315 -0.0184258 0)
(1.06543 -0.0164203 0)
(1.08846 -0.0141444 0)
(1.11439 -0.0130243 0)
(1.14322 -0.0130681 0)
(1.17021 -0.0134199 0)
(1.19137 -0.0127507 0)
(1.20837 -0.0112027 0)
(1.225 -0.00948206 0)
(1.24359 -0.00823187 0)
(1.2669 -0.00814257 0)
(1.29443 -0.00909717 0)
(1.31992 -0.0104749 0)
(1.34063 -0.0106819 0)
(1.35886 -0.00979333 0)
(1.37699 -0.00841237 0)
(1.39654 -0.00723598 0)
(1.41939 -0.00692038 0)
(1.44635 -0.0073152 0)
(1.47394 -0.00751971 0)
(1.49718 -0.00673162 0)
(1.51726 -0.00575725 0)
(1.53693 -0.0039374 0)
(1.55679 -0.00216379 0)
(1.57768 -0.000746067 0)
(1.59813 0.000219632 0)
(1.61618 0.000519028 0)
(1.63328 0.00115995 0)
(1.6496 0.00196276 0)
(1.66646 0.00226231 0)
(1.68388 0.00216722 0)
(1.70201 0.00172696 0)
(1.71919 0.00153109 0)
(1.73591 0.00156331 0)
(1.7511 0.00189507 0)
(1.76419 0.00276651 0)
(1.77643 0.00387867 0)
(1.78972 0.00478518 0)
(1.80453 0.00504075 0)
(1.82069 0.00523598 0)
(1.83828 0.00517054 0)
(1.85719 0.00581101 0)
(1.87629 0.0057486 0)
(1.89117 0.00740771 0)
(1.8997 0.00448175 0)
(1.89385 0.00147543 0)
(1.84275 -0.011708 0)
(1.61498 -0.0203776 0)
(1.33569 -0.020354 0)
(1.3336 -0.0187394 0)
(1.38329 -0.0145699 0)
(1.40544 -0.0107212 0)
(1.41698 -0.00549106 0)
(1.42583 -0.00186069 0)
(1.43179 -0.000467614 0)
(1.44063 -0.00227692 0)
(1.76042 1.11666 0)
(2.25947 0.808113 0)
(2.56231 0.387838 0)
(2.67694 0.159557 0)
(2.64636 -0.226042 0)
(2.67897 -0.400836 0)
(2.72958 -0.622365 0)
(2.77686 -0.657533 0)
(2.74241 -0.583181 0)
(2.64982 -0.520909 0)
(2.53772 -0.416795 0)
(2.50235 -0.296584 0)
(2.50855 -0.206662 0)
(2.49682 -0.134368 0)
(2.4962 -0.136472 0)
(2.03665 0.0818461 0)
(0.938965 0.165832 0)
(0.76732 0.10202 0)
(0.73252 0.042839 0)
(0.720353 -0.000657616 0)
(0.733098 -0.0175509 0)
(0.735276 -0.021284 0)
(0.732799 -0.0227202 0)
(0.731475 -0.0257021 0)
(0.737223 -0.0273349 0)
(0.754175 -0.0277639 0)
(0.781759 -0.0281059 0)
(0.808366 -0.0283797 0)
(0.828992 -0.0270975 0)
(0.844677 -0.0250422 0)
(0.861026 -0.0241094 0)
(0.881967 -0.0253083 0)
(0.90636 -0.027892 0)
(0.930683 -0.0287707 0)
(0.952331 -0.0258615 0)
(0.971051 -0.020035 0)
(0.989414 -0.0149765 0)
(1.00899 -0.0149831 0)
(1.03157 -0.0203799 0)
(1.05658 -0.0280464 0)
(1.08274 -0.0321625 0)
(1.10845 -0.0293964 0)
(1.13148 -0.0202508 0)
(1.15307 -0.0109857 0)
(1.17423 -0.00869589 0)
(1.1965 -0.0133032 0)
(1.21931 -0.0188776 0)
(1.23976 -0.0190746 0)
(1.25801 -0.0147785 0)
(1.27671 -0.007899 0)
(1.29688 -0.00268852 0)
(1.31816 -0.00336156 0)
(1.34073 -0.00904812 0)
(1.36366 -0.015269 0)
(1.38501 -0.0166784 0)
(1.40426 -0.0135916 0)
(1.42341 -0.00744425 0)
(1.44387 -0.00170634 0)
(1.4651 -0.000497868 0)
(1.48829 -0.00409643 0)
(1.51334 -0.00809943 0)
(1.53533 -0.00811847 0)
(1.55466 -0.00587642 0)
(1.57371 -0.00108201 0)
(1.59312 0.00319904 0)
(1.61112 0.00484664 0)
(1.62861 0.00495377 0)
(1.64608 0.00520328 0)
(1.66328 0.00683345 0)
(1.67972 0.00964959 0)
(1.69556 0.0116353 0)
(1.71148 0.0114399 0)
(1.72727 0.00865813 0)
(1.7431 0.00462395 0)
(1.75864 0.00178289 0)
(1.774 0.00120457 0)
(1.78907 0.00344025 0)
(1.8036 0.00782818 0)
(1.81753 0.0126679 0)
(1.83177 0.0159898 0)
(1.84782 0.0173408 0)
(1.86626 0.0170012 0)
(1.885 0.0171924 0)
(1.90034 0.0154273 0)
(1.89858 0.00122374 0)
(1.88562 -0.0202797 0)
(1.82002 -0.0808711 0)
(1.6594 -0.07064 0)
(1.38573 -0.0261805 0)
(1.36546 -0.0123364 0)
(1.40446 -0.00786809 0)
(1.42526 -0.00549644 0)
(1.43568 -0.00271423 0)
(1.44236 0.00299939 0)
(1.44445 0.00718956 0)
(1.44733 0.00507961 0)
(1.65397 1.06934 0)
(2.08195 0.856249 0)
(2.36493 0.51816 0)
(2.49031 0.423401 0)
(2.54611 0.331495 0)
(2.67435 -0.00441266 0)
(2.68181 -0.256202 0)
(2.73151 -0.269884 0)
(2.78882 -0.296248 0)
(2.75896 -0.36257 0)
(2.72628 -0.430458 0)
(2.69265 -0.493577 0)
(2.68263 -0.430818 0)
(2.70294 -0.371679 0)
(2.69238 -0.322229 0)
(2.6687 -0.158888 0)
(1.19435 0.177939 0)
(0.917534 0.106646 0)
(0.889511 0.0490299 0)
(0.886062 0.0339054 0)
(0.892912 0.0183758 0)
(0.895051 0.000650702 0)
(0.88931 -0.011871 0)
(0.884112 -0.0254568 0)
(0.888053 -0.0366313 0)
(0.901538 -0.0444741 0)
(0.923564 -0.0506353 0)
(0.945756 -0.0553037 0)
(0.963284 -0.0575522 0)
(0.977133 -0.0559893 0)
(0.989831 -0.0516213 0)
(1.00438 -0.0473813 0)
(1.02155 -0.0466573 0)
(1.04131 -0.0503058 0)
(1.06263 -0.0553054 0)
(1.08447 -0.0575606 0)
(1.10428 -0.054904 0)
(1.1209 -0.0490011 0)
(1.13684 -0.0443391 0)
(1.1532 -0.0437223 0)
(1.17295 -0.0475589 0)
(1.1981 -0.0527352 0)
(1.22527 -0.052743 0)
(1.24687 -0.045868 0)
(1.26302 -0.0372625 0)
(1.27899 -0.0307658 0)
(1.29495 -0.0297965 0)
(1.31284 -0.0327395 0)
(1.33362 -0.0350551 0)
(1.3554 -0.0333681 0)
(1.37489 -0.0281962 0)
(1.39245 -0.0229007 0)
(1.40978 -0.0208469 0)
(1.42666 -0.0225518 0)
(1.4452 -0.0272562 0)
(1.46575 -0.03056 0)
(1.48623 -0.0292368 0)
(1.50463 -0.0250011 0)
(1.52266 -0.0190422 0)
(1.54186 -0.0142171 0)
(1.56156 -0.0134193 0)
(1.58207 -0.0147903 0)
(1.60169 -0.0143201 0)
(1.62039 -0.0115639 0)
(1.63804 -0.00673755 0)
(1.65361 -0.00266928 0)
(1.66755 -0.000266769 0)
(1.68296 -0.000159116 0)
(1.69969 -0.000327586 0)
(1.71656 0.000815632 0)
(1.73302 0.00454305 0)
(1.74795 0.0100975 0)
(1.76003 0.015194 0)
(1.77075 0.0163703 0)
(1.78487 0.0139462 0)
(1.80078 0.0102556 0)
(1.81657 0.00762161 0)
(1.83292 0.0076819 0)
(1.84866 0.0108922 0)
(1.86273 0.0177544 0)
(1.87406 0.0233706 0)
(1.88798 0.022487 0)
(1.90285 0.0190192 0)
(1.91108 0.00811403 0)
(1.89892 -0.0172235 0)
(1.87186 -0.0585748 0)
(1.79087 -0.140943 0)
(1.72043 -0.131477 0)
(1.49632 -0.0529745 0)
(1.42948 -0.000191056 0)
(1.4488 -0.00689354 0)
(1.46713 -0.020747 0)
(1.48119 -0.0222367 0)
(1.48869 -0.0182526 0)
(1.48868 -0.0105891 0)
(1.48552 -0.00151817 0)
(1.61081 0.982113 0)
(1.8846 0.890392 0)
(2.12817 0.703259 0)
(2.33761 0.475561 0)
(2.46998 0.364865 0)
(2.52647 0.231617 0)
(2.60758 -0.0275396 0)
(2.6476 -0.175122 0)
(2.69835 -0.228834 0)
(2.76784 -0.336937 0)
(2.78643 -0.436157 0)
(2.75131 -0.46919 0)
(2.76083 -0.474501 0)
(2.77009 -0.476449 0)
(2.76887 -0.449497 0)
(2.77054 -0.496851 0)
(1.89614 0.0163327 0)
(1.14642 0.110193 0)
(1.10343 0.0678278 0)
(1.10839 0.0371403 0)
(1.10641 0.0120264 0)
(1.10241 -0.00992796 0)
(1.09851 -0.030163 0)
(1.09645 -0.0438691 0)
(1.10056 -0.0482156 0)
(1.10916 -0.0481376 0)
(1.12161 -0.0469815 0)
(1.13458 -0.0497977 0)
(1.14636 -0.0547923 0)
(1.15813 -0.0579548 0)
(1.16963 -0.0568407 0)
(1.18087 -0.0519354 0)
(1.19318 -0.0459327 0)
(1.20699 -0.0425102 0)
(1.22276 -0.043555 0)
(1.24137 -0.0483512 0)
(1.26096 -0.0530641 0)
(1.27697 -0.0536524 0)
(1.28867 -0.0508569 0)
(1.30046 -0.0448768 0)
(1.31448 -0.0387383 0)
(1.33264 -0.0357452 0)
(1.35605 -0.0367282 0)
(1.37711 -0.0380031 0)
(1.39142 -0.0373063 0)
(1.4039 -0.0326442 0)
(1.41539 -0.0252146 0)
(1.43037 -0.0209308 0)
(1.44781 -0.0194126 0)
(1.46825 -0.0200948 0)
(1.48806 -0.0208327 0)
(1.5035 -0.020614 0)
(1.51703 -0.0184828 0)
(1.52994 -0.0143782 0)
(1.54439 -0.0115864 0)
(1.56073 -0.0105181 0)
(1.5791 -0.0116354 0)
(1.59581 -0.0126417 0)
(1.61197 -0.0120816 0)
(1.62736 -0.0085092 0)
(1.64315 -0.00304656 0)
(1.66 0.0011438 0)
(1.6769 0.00315131 0)
(1.69383 0.00486131 0)
(1.71013 0.00685385 0)
(1.72439 0.0103571 0)
(1.73549 0.0147882 0)
(1.74583 0.0174327 0)
(1.7599 0.0166888 0)
(1.77562 0.014675 0)
(1.79097 0.0122925 0)
(1.80566 0.0114153 0)
(1.81846 0.0131621 0)
(1.82819 0.0186935 0)
(1.83674 0.0245004 0)
(1.84829 0.0266881 0)
(1.86297 0.0264654 0)
(1.87885 0.0263019 0)
(1.89527 0.0268392 0)
(1.91112 0.0309135 0)
(1.92013 0.0378769 0)
(1.92583 0.0373277 0)
(1.93103 0.0312929 0)
(1.92784 0.0140362 0)
(1.89298 -0.0375369 0)
(1.84901 -0.099394 0)
(1.77993 -0.182686 0)
(1.7757 -0.188852 0)
(1.66728 -0.11875 0)
(1.53484 -0.0262928 0)
(1.52394 0.0129923 0)
(1.53446 0.006913 0)
(1.55077 -0.00102494 0)
(1.56067 -0.00358237 0)
(1.56212 -0.00429122 0)
(1.56009 0.000585449 0)
(1.56943 0.925395 0)
(1.78628 0.859297 0)
(1.99588 0.736011 0)
(2.17562 0.583118 0)
(2.31506 0.479937 0)
(2.42743 0.336898 0)
(2.48264 0.172616 0)
(2.5478 0.0263889 0)
(2.61028 -0.0830105 0)
(2.66631 -0.119396 0)
(2.71333 -0.148406 0)
(2.7183 -0.214051 0)
(2.69775 -0.332186 0)
(2.68624 -0.402227 0)
(2.68731 -0.433468 0)
(2.57062 -0.615716 0)
(2.4609 -0.682829 0)
(1.57816 -0.0978033 0)
(1.28471 0.0877915 0)
(1.28361 0.0693944 0)
(1.28972 0.0351143 0)
(1.2806 0.000306285 0)
(1.2784 -0.0186086 0)
(1.28271 -0.0316045 0)
(1.29072 -0.0461474 0)
(1.30119 -0.0546684 0)
(1.30744 -0.058496 0)
(1.31263 -0.0613003 0)
(1.31902 -0.0637068 0)
(1.32746 -0.0656972 0)
(1.33785 -0.0665835 0)
(1.34837 -0.0656607 0)
(1.35857 -0.0636688 0)
(1.3694 -0.0615412 0)
(1.38155 -0.0601147 0)
(1.39557 -0.0603811 0)
(1.41106 -0.0627924 0)
(1.42501 -0.0651022 0)
(1.43559 -0.0653303 0)
(1.44558 -0.0637376 0)
(1.45695 -0.0596557 0)
(1.47152 -0.0543013 0)
(1.49001 -0.0493739 0)
(1.50583 -0.0474157 0)
(1.51806 -0.0471064 0)
(1.52942 -0.0447264 0)
(1.53972 -0.0396971 0)
(1.55318 -0.0351483 0)
(1.56948 -0.0313563 0)
(1.58735 -0.0279331 0)
(1.60347 -0.027345 0)
(1.6171 -0.0279762 0)
(1.62914 -0.0281107 0)
(1.64011 -0.0269026 0)
(1.6526 -0.0250769 0)
(1.66674 -0.0226184 0)
(1.68114 -0.0209614 0)
(1.69536 -0.0201465 0)
(1.70886 -0.0182097 0)
(1.72174 -0.0149296 0)
(1.73535 -0.0107083 0)
(1.74955 -0.00693296 0)
(1.76403 -0.00308159 0)
(1.77855 -0.000229042 0)
(1.79269 0.00256444 0)
(1.80544 0.00485272 0)
(1.81587 0.00863275 0)
(1.8246 0.0134638 0)
(1.83465 0.0179974 0)
(1.84711 0.0195132 0)
(1.86063 0.0196414 0)
(1.87413 0.0190646 0)
(1.8864 0.0191445 0)
(1.89644 0.0202603 0)
(1.90405 0.0239741 0)
(1.91236 0.0278742 0)
(1.92433 0.0299901 0)
(1.93879 0.0312977 0)
(1.95432 0.0319559 0)
(1.96897 0.0349861 0)
(1.97696 0.0387557 0)
(1.97601 0.0318561 0)
(1.9685 0.0214045 0)