/*--------------------------------*- C++ -*----------------------------------*\
  =========                 |
  \\      /  F ield         | OpenFOAM: The Open Source CFD Toolbox
   \\    /   O peration     | Website:  https://openfoam.org
    \\  /    A nd           | Version:  7
     \\/     M anipulation  |
\*---------------------------------------------------------------------------*/
FoamFile
{
    version     2.0;
    format      ascii;
    class       volScalarField;
    location    "175";
    object      p;
}
// * * * * * * * * * * * * * * * * * * * * * * * * * * * * * * * * * * * * * //

dimensions      [0 2 -2 0 0 0 0];

internalField   nonuniform List<scalar> 
31800
(
-0.361139
-0.362635
-0.363344
-0.363819
-0.364236
-0.364739
-0.365475
-0.366555
-0.368058
-0.370049
-0.37259
-0.375758
-0.379648
-0.384379
-0.390089
-0.396923
-0.405021
-0.414489
-0.425365
-0.437566
-0.450834
-0.464683
-0.478343
-0.490805
-0.500519
-0.361407
-0.362508
-0.363006
-0.36331
-0.363577
-0.363952
-0.364585
-0.365592
-0.367063
-0.369077
-0.371711
-0.375062
-0.379249
-0.384419
-0.390739
-0.398388
-0.407533
-0.418304
-0.430746
-0.444769
-0.460082
-0.476144
-0.492066
-0.506847
-0.518473
-0.361736
-0.362439
-0.362723
-0.362853
-0.362967
-0.363211
-0.363733
-0.364659
-0.366088
-0.368109
-0.370816
-0.374321
-0.378766
-0.384321
-0.391179
-0.399543
-0.409605
-0.421508
-0.435302
-0.450882
-0.467924
-0.485852
-0.503665
-0.520329
-0.533462
-0.362085
-0.362394
-0.362463
-0.362418
-0.362376
-0.362483
-0.362887
-0.363719
-0.365089
-0.367098
-0.369851
-0.373477
-0.378133
-0.384011
-0.391322
-0.400292
-0.411127
-0.423978
-0.438893
-0.455754
-0.474202
-0.493614
-0.512904
-0.531104
-0.545314
-0.362415
-0.362341
-0.362199
-0.361978
-0.361777
-0.361739
-0.362014
-0.362738
-0.36403
-0.366001
-0.368769
-0.372475
-0.377289
-0.38342
-0.391095
-0.400552
-0.412007
-0.425615
-0.441416
-0.459272
-0.478792
-0.499332
-0.519679
-0.539064
-0.553928
-0.362691
-0.362255
-0.361906
-0.36151
-0.361146
-0.360956
-0.36109
-0.361687
-0.362877
-0.36478
-0.367526
-0.371267
-0.376179
-0.38249
-0.390433
-0.400255
-0.412176
-0.426348
-0.442799
-0.461374
-0.48164
-0.502969
-0.523971
-0.544201
-0.559335
-0.362885
-0.362113
-0.361566
-0.360997
-0.360467
-0.360116
-0.360092
-0.360541
-0.361601
-0.363403
-0.366086
-0.36981
-0.374764
-0.381176
-0.38929
-0.399355
-0.41159
-0.426139
-0.443015
-0.462046
-0.482755
-0.504558
-0.525845
-0.546613
-0.561661
-0.362974
-0.361897
-0.361164
-0.360426
-0.359727
-0.359205
-0.359006
-0.359283
-0.360183
-0.361846
-0.364422
-0.368077
-0.373009
-0.379446
-0.387635
-0.397825
-0.410228
-0.424979
-0.442072
-0.461324
-0.482199
-0.504204
-0.525447
-0.546487
-0.561156
-0.36294
-0.361596
-0.360691
-0.359789
-0.35892
-0.358216
-0.357825
-0.357904
-0.35861
-0.360095
-0.362517
-0.36605
-0.370895
-0.377281
-0.385455
-0.39566
-0.4081
-0.422895
-0.440019
-0.459285
-0.48009
-0.502067
-0.522994
-0.544076
-0.558101
-0.362771
-0.361203
-0.360143
-0.359085
-0.358043
-0.357149
-0.356546
-0.356401
-0.356879
-0.358145
-0.360366
-0.363722
-0.368418
-0.374682
-0.382757
-0.392877
-0.405236
-0.419939
-0.436937
-0.456047
-0.476587
-0.498354
-0.518746
-0.539692
-0.552829
-0.362464
-0.360716
-0.35952
-0.358315
-0.357101
-0.356006
-0.355175
-0.354779
-0.354996
-0.356002
-0.357974
-0.3611
-0.365589
-0.371665
-0.379565
-0.389515
-0.401693
-0.416192
-0.432937
-0.451757
-0.471882
-0.493299
-0.512987
-0.533653
-0.545681
-0.362018
-0.360139
-0.358828
-0.357486
-0.356102
-0.3548
-0.353723
-0.35305
-0.352973
-0.353679
-0.355358
-0.358205
-0.362432
-0.368261
-0.375922
-0.38563
-0.397548
-0.411756
-0.428153
-0.446585
-0.466191
-0.487155
-0.506021
-0.526268
-0.536984
-0.36144
-0.359479
-0.358076
-0.356609
-0.355059
-0.353542
-0.352205
-0.351235
-0.350832
-0.351202
-0.352547
-0.35507
-0.358987
-0.364519
-0.371889
-0.3813
-0.392899
-0.406755
-0.422739
-0.440717
-0.459737
-0.480165
-0.498128
-0.51781
-0.527021
-0.360742
-0.35875
-0.357277
-0.355698
-0.353985
-0.352252
-0.350644
-0.349356
-0.348603
-0.348606
-0.34958
-0.351741
-0.355309
-0.360504
-0.367542
-0.376616
-0.387859
-0.401324
-0.416859
-0.434344
-0.45274
-0.472566
-0.489559
-0.508489
-0.516018
-0.359942
-0.357967
-0.356447
-0.354769
-0.3529
-0.350949
-0.349062
-0.347443
-0.346321
-0.345931
-0.346507
-0.348276
-0.351463
-0.356292
-0.362972
-0.371686
-0.382551
-0.39561
-0.41068
-0.427653
-0.445407
-0.464551
-0.48052
-0.498437
-0.504133
-0.359061
-0.357149
-0.355604
-0.353841
-0.351824
-0.349656
-0.347487
-0.345529
-0.344024
-0.343226
-0.343384
-0.344739
-0.347527
-0.351973
-0.358282
-0.366627
-0.377111
-0.389762
-0.40437
-0.420818
-0.437914
-0.456276
-0.471149
-0.487718
-0.491458
-0.358126
-0.35632
-0.35477
-0.352934
-0.350777
-0.348397
-0.345947
-0.343648
-0.341757
-0.340542
-0.340273
-0.341206
-0.343587
-0.347644
-0.353581
-0.361562
-0.371675
-0.383929
-0.39808
-0.413988
-0.430395
-0.447841
-0.461509
-0.476347
-0.478039
-0.357169
-0.355506
-0.353968
-0.352072
-0.349783
-0.347198
-0.344473
-0.341838
-0.339563
-0.337935
-0.337241
-0.337755
-0.339732
-0.343408
-0.348985
-0.356617
-0.366374
-0.37824
-0.391943
-0.407279
-0.422934
-0.43929
-0.451596
-0.46432
-0.463899
-0.356224
-0.354735
-0.353224
-0.351277
-0.348866
-0.346084
-0.343095
-0.340136
-0.33749
-0.335462
-0.334356
-0.334464
-0.336054
-0.339368
-0.344605
-0.35191
-0.361332
-0.372823
-0.38606
-0.400765
-0.415557
-0.430616
-0.441351
-0.451649
-0.449091
-0.355332
-0.354039
-0.352565
-0.350575
-0.348051
-0.345085
-0.341846
-0.33858
-0.335584
-0.333178
-0.331685
-0.331413
-0.332643
-0.335622
-0.340547
-0.347549
-0.356651
-0.36776
-0.380491
-0.394468
-0.408236
-0.421766
-0.430698
-0.438379
-0.433725
-0.354534
-0.353453
-0.352022
-0.349995
-0.347365
-0.344227
-0.340757
-0.337208
-0.333891
-0.33114
-0.329294
-0.328677
-0.329582
-0.33226
-0.336903
-0.343622
-0.352406
-0.363103
-0.375253
-0.38836
-0.400901
-0.412669
-0.419585
-0.424609
-0.417987
-0.353876
-0.353011
-0.351624
-0.349564
-0.346837
-0.343542
-0.339863
-0.336061
-0.332457
-0.329399
-0.327243
-0.326324
-0.326945
-0.329358
-0.333746
-0.340193
-0.348641
-0.358864
-0.370315
-0.38237
-0.393461
-0.403257
-0.408016
-0.410488
-0.402113
-0.353407
-0.35275
-0.351405
-0.349312
-0.346497
-0.343061
-0.339197
-0.335175
-0.331325
-0.328007
-0.325587
-0.324413
-0.324793
-0.326976
-0.331127
-0.337294
-0.34536
-0.355009
-0.365607
-0.376401
-0.385829
-0.393496
-0.396058
-0.396206
-0.386351
-0.353173
-0.352709
-0.351397
-0.349271
-0.346374
-0.342814
-0.338793
-0.334587
-0.330535
-0.327005
-0.324372
-0.322991
-0.323171
-0.32515
-0.329067
-0.334921
-0.342527
-0.35147
-0.36103
-0.37035
-0.377946
-0.3834
-0.383841
-0.381967
-0.370927
-0.353222
-0.352923
-0.351632
-0.34947
-0.346498
-0.342833
-0.338682
-0.334331
-0.330121
-0.326429
-0.323633
-0.322089
-0.322101
-0.323889
-0.327554
-0.333037
-0.340072
-0.348146
-0.356478
-0.364132
-0.369792
-0.373029
-0.371529
-0.367964
-0.356021
-0.353598
-0.353425
-0.352141
-0.349938
-0.346897
-0.343143
-0.338893
-0.334433
-0.330111
-0.326303
-0.323389
-0.321719
-0.321583
-0.323174
-0.326545
-0.331568
-0.337897
-0.344929
-0.35185
-0.357697
-0.361388
-0.362477
-0.359291
-0.354347
-0.341755
-0.35434
-0.354247
-0.352952
-0.350698
-0.347594
-0.343769
-0.339445
-0.334914
-0.33052
-0.326638
-0.323642
-0.321871
-0.321591
-0.322958
-0.325968
-0.330421
-0.335891
-0.341711
-0.347075
-0.351037
-0.352791
-0.351849
-0.347257
-0.341156
-0.328168
-0.35548
-0.355415
-0.354084
-0.351775
-0.348609
-0.344727
-0.340354
-0.335781
-0.33135
-0.327428
-0.324376
-0.322514
-0.322076
-0.323169
-0.32573
-0.329484
-0.333943
-0.338408
-0.342112
-0.344185
-0.344082
-0.341259
-0.335495
-0.328244
-0.31518
-0.357043
-0.356948
-0.355557
-0.35318
-0.349953
-0.346024
-0.341622
-0.337033
-0.332592
-0.328652
-0.325557
-0.323597
-0.322966
-0.323719
-0.325725
-0.328647
-0.331956
-0.334957
-0.336958
-0.337203
-0.335363
-0.330855
-0.324049
-0.31533
-0.302594
-0.359047
-0.358861
-0.357382
-0.354924
-0.351632
-0.347663
-0.343244
-0.338657
-0.334223
-0.330277
-0.327136
-0.325055
-0.32418
-0.324507
-0.325845
-0.327808
-0.329853
-0.331328
-0.331637
-0.330165
-0.326742
-0.320801
-0.313031
-0.302489
-0.290175
-0.361499
-0.361162
-0.359565
-0.35701
-0.353645
-0.349636
-0.345207
-0.340631
-0.33621
-0.332257
-0.329054
-0.326813
-0.325628
-0.325435
-0.325991
-0.326882
-0.327583
-0.327513
-0.326191
-0.323146
-0.318316
-0.311212
-0.302599
-0.290768
-0.278067
-0.364401
-0.363855
-0.362106
-0.359435
-0.355985
-0.351931
-0.347492
-0.342927
-0.338516
-0.334542
-0.331248
-0.328795
-0.32722
-0.326406
-0.326072
-0.325802
-0.325115
-0.323526
-0.320671
-0.316215
-0.310163
-0.30212
-0.292755
-0.280507
-0.267994
-0.367745
-0.366928
-0.36501
-0.362194
-0.358643
-0.354534
-0.350077
-0.345514
-0.341101
-0.337081
-0.333653
-0.330922
-0.328872
-0.327336
-0.326018
-0.324523
-0.322441
-0.319395
-0.315131
-0.309426
-0.302331
-0.293525
-0.283609
-0.2712
-0.258795
-0.371524
-0.370385
-0.368263
-0.36528
-0.361608
-0.357428
-0.35294
-0.348364
-0.343925
-0.339825
-0.336208
-0.333125
-0.330505
-0.328153
-0.325773
-0.32302
-0.31957
-0.315153
-0.309614
-0.30282
-0.294842
-0.285423
-0.275095
-0.262655
-0.250506
-0.375724
-0.374218
-0.37186
-0.368685
-0.36487
-0.3606
-0.356062
-0.351452
-0.346956
-0.342729
-0.338857
-0.335337
-0.332054
-0.328799
-0.325301
-0.321285
-0.316519
-0.310835
-0.304159
-0.29642
-0.287699
-0.277785
-0.26715
-0.25474
-0.242799
-0.380332
-0.378418
-0.375796
-0.372404
-0.368423
-0.364041
-0.359431
-0.354757
-0.350164
-0.345752
-0.34155
-0.337501
-0.333462
-0.329229
-0.324581
-0.319321
-0.313312
-0.306474
-0.298791
-0.290236
-0.280888
-0.270571
-0.259699
-0.247343
-0.235584
-0.385335
-0.382979
-0.380066
-0.376432
-0.372262
-0.367746
-0.363036
-0.358264
-0.353524
-0.348859
-0.344239
-0.339566
-0.334683
-0.329416
-0.323605
-0.317142
-0.309976
-0.302096
-0.293526
-0.284267
-0.274385
-0.263736
-0.252677
-0.240383
-0.228768
-0.390723
-0.387895
-0.384667
-0.38077
-0.376388
-0.371713
-0.366874
-0.361961
-0.357014
-0.352016
-0.346884
-0.341489
-0.335684
-0.32934
-0.322377
-0.314768
-0.306535
-0.29772
-0.288371
-0.2785
-0.268163
-0.257235
-0.246023
-0.233789
-0.222291
-0.396488
-0.393162
-0.389601
-0.38542
-0.380805
-0.375947
-0.370943
-0.365838
-0.360613
-0.35519
-0.349444
-0.343233
-0.33644
-0.328997
-0.320906
-0.312218
-0.303011
-0.29336
-0.283324
-0.272921
-0.26219
-0.251024
-0.239682
-0.227506
-0.216102
-0.402625
-0.398778
-0.394867
-0.390386
-0.385519
-0.380451
-0.375242
-0.369885
-0.364298
-0.35835
-0.351885
-0.34477
-0.336934
-0.328388
-0.319209
-0.309514
-0.29942
-0.289022
-0.27838
-0.267508
-0.256433
-0.245061
-0.233606
-0.221484
-0.210158
-0.40913
-0.404743
-0.400469
-0.395674
-0.390537
-0.385229
-0.379768
-0.374087
-0.368045
-0.361462
-0.354173
-0.346074
-0.33716
-0.327519
-0.317301
-0.306672
-0.295774
-0.284706
-0.273524
-0.262239
-0.25086
-0.239307
-0.227754
-0.215683
-0.204421
-0.415997
-0.411055
-0.406409
-0.40129
-0.395864
-0.390283
-0.384513
-0.378426
-0.371823
-0.364493
-0.356278
-0.347128
-0.337113
-0.3264
-0.315199
-0.303706
-0.292077
-0.280408
-0.268744
-0.257089
-0.245441
-0.233728
-0.222087
-0.210064
-0.198858
-0.423224
-0.417711
-0.412687
-0.407234
-0.401501
-0.395607
-0.389464
-0.382876
-0.375599
-0.367407
-0.358174
-0.347919
-0.336796
-0.325043
-0.312914
-0.300626
-0.288332
-0.27612
-0.264022
-0.252035
-0.240145
-0.228289
-0.216571
-0.204595
-0.193436
-0.430801
-0.424707
-0.419301
-0.413507
-0.407443
-0.401192
-0.394598
-0.387406
-0.379335
-0.370168
-0.359834
-0.348437
-0.336212
-0.323458
-0.310459
-0.297436
-0.284535
-0.271829
-0.259339
-0.247052
-0.234945
-0.222962
-0.211176
-0.199246
-0.18813
-0.438719
-0.432033
-0.426244
-0.420102
-0.413681
-0.407017
-0.399886
-0.391977
-0.382989
-0.372741
-0.361238
-0.348674
-0.335364
-0.321652
-0.307838
-0.294138
-0.280681
-0.267525
-0.254677
-0.242117
-0.229814
-0.217718
-0.205873
-0.193991
-0.182914
-0.446959
-0.439675
-0.433505
-0.427005
-0.420196
-0.413056
-0.40529
-0.396542
-0.386517
-0.375091
-0.362364
-0.348625
-0.334255
-0.319631
-0.305054
-0.290727
-0.276758
-0.26319
-0.250016
-0.237208
-0.224729
-0.212532
-0.200638
-0.188805
-0.177766
-0.4555
-0.447615
-0.441064
-0.434195
-0.42696
-0.419269
-0.410761
-0.401051
-0.389872
-0.377185
-0.363195
-0.348283
-0.332886
-0.317397
-0.302107
-0.287197
-0.272757
-0.258809
-0.245336
-0.232303
-0.219667
-0.207381
-0.195447
-0.183665
-0.172664
-0.46431
-0.455826
-0.448897
-0.441644
-0.433936
-0.425611
-0.416246
-0.405447
-0.393006
-0.378988
-0.363712
-0.347642
-0.331256
-0.314948
-0.29899
-0.28354
-0.268663
-0.254366
-0.24062
-0.227382
-0.214606
-0.202244
-0.190279
-0.178553
-0.16759
-0.473353
-0.464273
-0.456969
-0.449314
-0.441078
-0.432025
-0.421682
-0.409671
-0.395871
-0.38047
-0.363899
-0.346696
-0.329361
-0.312278
-0.295697
-0.279744
-0.264463
-0.249843
-0.235847
-0.222425
-0.209525
-0.1971
-0.185116
-0.173448
-0.162527
-0.482582
-0.472917
-0.46524
-0.457157
-0.44833
-0.438447
-0.427001
-0.413662
-0.39842
-0.381599
-0.363739
-0.345434
-0.327193
-0.309382
-0.292216
-0.275795
-0.26014
-0.245224
-0.231001
-0.217414
-0.204407
-0.19193
-0.179938
-0.168335
-0.157457
-0.491943
-0.481706
-0.473657
-0.465118
-0.455626
-0.444804
-0.432132
-0.417358
-0.400607
-0.382346
-0.363214
-0.343845
-0.324744
-0.306247
-0.288536
-0.27168
-0.255678
-0.240491
-0.226063
-0.212331
-0.199234
-0.186719
-0.174729
-0.163198
-0.152368
-0.501372
-0.490584
-0.482163
-0.473129
-0.462894
-0.451018
-0.437
-0.420695
-0.402387
-0.382682
-0.362306
-0.341917
-0.322002
-0.302862
-0.284641
-0.267382
-0.251062
-0.235629
-0.221017
-0.207159
-0.193989
-0.181449
-0.169475
-0.158021
-0.147245
-0.5108
-0.499485
-0.490689
-0.481118
-0.470051
-0.457005
-0.441528
-0.423613
-0.403715
-0.382578
-0.360996
-0.339635
-0.318953
-0.299211
-0.280518
-0.262886
-0.246275
-0.23062
-0.215847
-0.201883
-0.188656
-0.176106
-0.164161
-0.152791
-0.142076
-0.520148
-0.508333
-0.499158
-0.489001
-0.477009
-0.462678
-0.445639
-0.426052
-0.404552
-0.382007
-0.359265
-0.336982
-0.315581
-0.295279
-0.276149
-0.258175
-0.241301
-0.225449
-0.210538
-0.196487
-0.183223
-0.170677
-0.158774
-0.147497
-0.13685
-0.529329
-0.517049
-0.507487
-0.496689
-0.483675
-0.467948
-0.449258
-0.427955
-0.404856
-0.380942
-0.357091
-0.333941
-0.31187
-0.29105
-0.271517
-0.253234
-0.236124
-0.220101
-0.205075
-0.190959
-0.177675
-0.165148
-0.153303
-0.142127
-0.131557
-0.538253
-0.525544
-0.515584
-0.504084
-0.489952
-0.472725
-0.452309
-0.429266
-0.40459
-0.379355
-0.354455
-0.330494
-0.307802
-0.286505
-0.266607
-0.248046
-0.23073
-0.214561
-0.199444
-0.185284
-0.171999
-0.159509
-0.147736
-0.136671
-0.126189
-0.546821
-0.533723
-0.523352
-0.511087
-0.495739
-0.476919
-0.454722
-0.429934
-0.403716
-0.377219
-0.351334
-0.326621
-0.303358
-0.281629
-0.261402
-0.242595
-0.225103
-0.208817
-0.193632
-0.179452
-0.166186
-0.153749
-0.142063
-0.131119
-0.120736
-0.554931
-0.541486
-0.530688
-0.517591
-0.500935
-0.480443
-0.456429
-0.429909
-0.402202
-0.37451
-0.347706
-0.322302
-0.298521
-0.276402
-0.255886
-0.236868
-0.21923
-0.202854
-0.187629
-0.17345
-0.160223
-0.147858
-0.136276
-0.125463
-0.115192
-0.562478
-0.54873
-0.537485
-0.523489
-0.505441
-0.483212
-0.457364
-0.429147
-0.400014
-0.371202
-0.343552
-0.317518
-0.293271
-0.270809
-0.250042
-0.230849
-0.213098
-0.196662
-0.181422
-0.167269
-0.154103
-0.141828
-0.130367
-0.119695
-0.109551
-0.569351
-0.555348
-0.543634
-0.528675
-0.509158
-0.485146
-0.45747
-0.427605
-0.397121
-0.36727
-0.338848
-0.31225
-0.287592
-0.264833
-0.243857
-0.224525
-0.206695
-0.190229
-0.175002
-0.160899
-0.147816
-0.13565
-0.124328
-0.113811
-0.103809
-0.575443
-0.56123
-0.549027
-0.53304
-0.511992
-0.486171
-0.45669
-0.425243
-0.393495
-0.362691
-0.333576
-0.30648
-0.281467
-0.258459
-0.237317
-0.217885
-0.200009
-0.183545
-0.16836
-0.154333
-0.141354
-0.129319
-0.118153
-0.107805
-0.0979665
-0.580644
-0.566268
-0.553552
-0.536482
-0.513853
-0.486215
-0.454976
-0.422028
-0.389109
-0.357445
-0.327716
-0.300189
-0.274879
-0.251673
-0.230409
-0.210917
-0.193033
-0.176603
-0.161488
-0.147563
-0.134712
-0.122826
-0.111834
-0.101671
-0.0920223
-0.584847
-0.570354
-0.557103
-0.538901
-0.514658
-0.485216
-0.452281
-0.417927
-0.38394
-0.351511
-0.32125
-0.293363
-0.267815
-0.244462
-0.223123
-0.203612
-0.185756
-0.169393
-0.15438
-0.140584
-0.127884
-0.116168
-0.105365
-0.0954016
-0.0859671
-0.587946
-0.573384
-0.559577
-0.540201
-0.514328
-0.483117
-0.448567
-0.412913
-0.377967
-0.34487
-0.314163
-0.285987
-0.260262
-0.236816
-0.215448
-0.195961
-0.178171
-0.161911
-0.147029
-0.13339
-0.120866
-0.10934
-0.0987443
-0.0889909
-0.0797706
-0.589842
-0.575255
-0.560874
-0.540294
-0.512794
-0.479869
-0.443801
-0.406961
-0.371171
-0.337509
-0.306441
-0.278048
-0.252209
-0.228724
-0.207377
-0.187957
-0.170274
-0.154151
-0.139433
-0.125978
-0.113654
-0.102342
-0.0919795
-0.0824527
-0.0733873
-0.590439
-0.575872
-0.560902
-0.539101
-0.509995
-0.475428
-0.437953
-0.400053
-0.363537
-0.329412
-0.298071
-0.269536
-0.243646
-0.22018
-0.198903
-0.179596
-0.162058
-0.146109
-0.131587
-0.118344
-0.106247
-0.0951724
-0.085073
-0.0757948
-0.0668401
-0.589649
-0.575145
-0.559576
-0.53655
-0.505877
-0.469759
-0.431001
-0.392173
-0.355051
-0.32057
-0.289044
-0.260442
-0.234568
-0.211177
-0.190022
-0.170873
-0.153523
-0.137784
-0.123489
-0.110489
-0.0986424
-0.0878309
-0.0780114
-0.0689509
-0.0602644
-0.587393
-0.572993
-0.556821
-0.532579
-0.500396
-0.462835
-0.422928
-0.383308
-0.345707
-0.310974
-0.279354
-0.250761
-0.224969
-0.201712
-0.180731
-0.161786
-0.144665
-0.129173
-0.11514
-0.102412
-0.0908432
-0.0803189
-0.0707867
-0.0619634
-0.0535956
-0.583597
-0.569342
-0.552569
-0.527134
-0.493518
-0.454634
-0.413722
-0.373453
-0.335497
-0.30062
-0.268996
-0.24049
-0.214847
-0.191783
-0.171028
-0.152335
-0.135485
-0.120279
-0.106541
-0.0941137
-0.0828487
-0.0726344
-0.0634065
-0.054848
-0.0468089
-0.578199
-0.564128
-0.546763
-0.520174
-0.485215
-0.445144
-0.403379
-0.362604
-0.32442
-0.289507
-0.257969
-0.229627
-0.204201
-0.18139
-0.160915
-0.142522
-0.125988
-0.111103
-0.0976934
-0.0855963
-0.0746615
-0.0647796
-0.0558766
-0.047605
-0.0399023
-0.571147
-0.557298
-0.539358
-0.511666
-0.475473
-0.43436
-0.391896
-0.350763
-0.312479
-0.277636
-0.246274
-0.218175
-0.193033
-0.170537
-0.150397
-0.132352
-0.116172
-0.101648
-0.0886004
-0.0768634
-0.0662849
-0.0567585
-0.0482008
-0.0402333
-0.0328809
-0.5624
-0.548809
-0.530318
-0.50159
-0.464282
-0.422281
-0.379281
-0.337936
-0.299678
-0.265012
-0.233917
-0.206138
-0.181349
-0.159231
-0.139478
-0.121827
-0.106045
-0.0919199
-0.0792672
-0.0679197
-0.0577237
-0.0485758
-0.0403832
-0.0327353
-0.0257497
-0.551927
-0.53863
-0.51962
-0.489935
-0.451643
-0.408917
-0.365544
-0.324135
-0.286027
-0.251643
-0.220905
-0.193525
-0.16916
-0.147475
-0.128163
-0.110956
-0.0956137
-0.0819243
-0.0697
-0.0587712
-0.0489834
-0.0402371
-0.0324286
-0.0251149
-0.0185141
-0.539708
-0.526739
-0.507251
-0.476699
-0.437567
-0.394282
-0.350701
-0.309373
-0.27154
-0.237543
-0.207251
-0.180348
-0.156471
-0.13528
-0.116463
-0.0997456
-0.0848861
-0.0716694
-0.0599064
-0.0494251
-0.040071
-0.0317489
-0.0243425
-0.0173779
-0.01118
-0.525736
-0.513129
-0.493211
-0.461894
-0.422072
-0.378399
-0.334773
-0.293671
-0.256234
-0.222727
-0.192969
-0.166617
-0.143297
-0.122659
-0.104388
-0.0882079
-0.0738721
-0.0611648
-0.0498951
-0.0398897
-0.0309945
-0.0231187
-0.0161318
-0.00953094
-0.0037537
-0.510014
-0.497803
-0.477509
-0.445538
-0.405183
-0.361295
-0.317788
-0.277053
-0.240131
-0.207214
-0.178075
-0.152349
-0.129651
-0.109625
-0.091953
-0.0763548
-0.0625833
-0.0504211
-0.0396765
-0.0301746
-0.0217629
-0.0143548
-0.00780449
-0.00158185
0.00375754
-0.492558
-0.480774
-0.460167
-0.42766
-0.386935
-0.343005
-0.299778
-0.259547
-0.223257
-0.191026
-0.16259
-0.137564
-0.115552
-0.0961949
-0.0791717
-0.0642004
-0.0510327
-0.0394506
-0.0292618
-0.0202906
-0.0123865
-0.00546684
0.000630657
0.00646051
0.0113458
-0.473393
-0.462067
-0.441215
-0.408298
-0.367369
-0.323573
-0.280776
-0.241185
-0.205638
-0.174189
-0.146538
-0.122282
-0.10102
-0.0823868
-0.0660614
-0.0517604
-0.0392349
-0.0282669
-0.0186637
-0.0102496
-0.00287639
0.00353476
0.00916369
0.0145863
0.0190023
-0.452556
-0.441718
-0.420693
-0.387498
-0.34654
-0.303044
-0.26082
-0.222002
-0.187309
-0.156734
-0.129946
-0.106529
-0.0860763
-0.0682214
-0.0526411
-0.0390522
-0.027206
-0.0168848
-0.00789617
-6.45248e-05
0.00675511
0.0126385
0.0177838
0.0227845
0.0267171
-0.430095
-0.419772
-0.398654
-0.365322
-0.324499
-0.281446
-0.23997
-0.202042
-0.168305
-0.138691
-0.112843
-0.0903312
-0.0707465
-0.0537209
-0.0389313
-0.0260947
-0.0149634
-0.00532039
0.00302599
0.0102506
0.0164948
0.0218321
0.0264792
0.0310433
0.0344791
-0.406064
-0.396287
-0.375161
-0.341845
-0.301283
-0.258851
-0.218264
-0.181348
-0.148666
-0.120097
-0.0952603
-0.0737179
-0.0550571
-0.03891
-0.0249544
-0.0129085
-0.00252582
0.00640906
0.0140868
0.0206808
0.0263284
0.0311021
0.0352371
0.0393492
0.0422758
-0.380525
-0.371329
-0.350292
-0.317139
-0.276928
-0.235331
-0.19576
-0.159969
-0.128435
-0.100991
-0.0772343
-0.056721
-0.0390368
-0.0238148
-0.0107343
0.000484716
0.0100867
0.0182852
0.0252693
0.0312102
0.0362411
0.0404344
0.0440435
0.0476866
0.0500926
-0.353549
-0.344981
-0.324126
-0.291151
-0.25162
-0.210945
-0.172516
-0.137955
-0.107658
-0.0814134
-0.0588019
-0.0393742
-0.0227164
-0.00846334
0.00370349
0.0140616
0.022853
0.0302887
0.0365557
0.0418225
0.0462172
0.0498141
0.0528832
0.0560366
0.0579082
-0.325216
-0.317327
-0.296736
-0.264047
-0.225366
-0.185761
-0.148593
-0.115363
-0.0863839
-0.0614088
-0.0400028
-0.0217136
-0.00612866
0.00711469
0.018332
0.0277978
0.0357509
0.0423993
0.0479276
0.0525005
0.0562407
0.059226
0.061741
0.0643791
0.065694
-0.295607
-0.288455
-0.26809
-0.236035
-0.198253
-0.159853
-0.124058
-0.0922485
-0.0646645
-0.0410235
-0.0208788
-0.00377714
0.0106921
0.0228881
0.033123
0.0416676
0.0487569
0.0545958
0.0593658
0.0632266
0.0662948
0.0686549
0.0706037
0.0726992
0.0734316
-0.264796
-0.258477
-0.238428
-0.207108
-0.170366
-0.133296
-0.0989773
-0.068673
-0.0425536
-0.0203059
-0.00147398
0.0143955
0.0277098
0.0388244
0.0480469
0.0556442
0.061847
0.0668566
0.0708507
0.0739822
0.0763615
0.0780849
0.079462
0.080989
0.0811174
-0.232891
-0.227506
-0.207868
-0.177358
-0.141793
-0.106168
-0.073421
-0.0446987
-0.0201073
0.000693359
0.0181661
0.0327629
0.0448872
0.0548895
0.0630731
0.0696998
0.0749961
0.0791591
0.082362
0.0847485
0.086423
0.0875034
0.0883074
0.0892167
0.0886573
-0.200172
-0.19553
-0.176481
-0.14689
-0.112624
-0.0785517
-0.0474617
-0.0203904
0.00261616
0.0219218
0.0379939
0.0512823
0.0621853
0.0710485
0.0781698
0.0838059
0.0881785
0.0914804
0.0938789
0.0955068
0.0964662
0.0969078
0.0971282
0.097268
0.095731
-0.166654
-0.162715
-0.144368
-0.115806
-0.082953
-0.0505296
-0.0211739
0.00418528
0.025557
0.0433253
0.0579608
0.0699095
0.0795644
0.0872652
0.0933043
0.0979329
0.101368
0.103797
0.10538
0.10624
0.106485
0.106305
0.105905
0.104992
0.102081
-0.132409
-0.129216
-0.11164
-0.0842131
-0.0528752
-0.0221874
0.00536619
0.0289599
0.0486536
0.0648486
0.0780166
0.0885992
0.0969833
0.103503
0.108443
0.112051
0.114536
0.116083
0.116844
0.116931
0.116472
0.115688
0.114599
0.112426
0.108406
-0.0975662
-0.0951555
-0.0784122
-0.0522179
-0.0224884
0.00638768
0.0320807
0.0538638
0.0718434
0.086435
0.0981102
0.107305
0.1144
0.119723
0.123552
0.126128
0.127656
0.128314
0.128246
0.127562
0.126411
0.125013
0.123143
0.119764
0.116877
-0.0622555
-0.0606553
-0.0448046
-0.0199304
0.00810839
0.0351073
0.0588907
0.0788262
0.0950625
0.108027
0.11819
0.12598
0.131773
0.135887
0.138596
0.140133
0.140699
0.140464
0.139566
0.138115
0.136272
0.134221
0.131568
0.127508
0.125339
-0.0266075
-0.0258386
-0.0109372
0.0125386
0.0388152
0.0638821
0.0857164
0.103775
0.118246
0.129566
0.138202
0.144577
0.149058
0.151957
0.15354
0.154035
0.153635
0.152506
0.150779
0.148565
0.14603
0.143306
0.139941
0.135435
0.133359
0.00924728
0.00916922
0.0230691
0.0450776
0.0695317
0.0926224
0.112477
0.128639
0.14133
0.150994
0.158095
0.163048
0.166212
0.167892
0.168348
0.1678
0.166436
0.164414
0.161862
0.15889
0.15566
0.152263
0.148257
0.143378
0.141106
0.0451774
0.0442412
0.0570928
0.0775751
0.100157
0.121238
0.139093
0.153345
0.164249
0.172252
0.177814
0.181344
0.183191
0.183654
0.182984
0.181396
0.179071
0.176161
0.172789
0.169065
0.16514
0.16108
0.156477
0.151213
0.148595
0.0810514
0.0792498
0.0910126
0.10992
0.130592
0.14964
0.165483
0.177821
0.186936
0.19328
0.197307
0.199417
0.199952
0.199202
0.197413
0.194791
0.191511
0.18772
0.183535
0.179065
0.174451
0.169742
0.164566
0.158894
0.155847
0.116738
0.114068
0.124708
0.142001
0.160736
0.177738
0.191568
0.201995
0.209327
0.21402
0.216519
0.217218
0.21645
0.214498
0.211598
0.207952
0.203727
0.199064
0.194076
0.188868
0.183572
0.178227
0.172492
0.166394
0.162873
0.152107
0.148568
0.158059
0.173709
0.190492
0.205445
0.217267
0.225795
0.231358
0.234413
0.235399
0.234701
0.232644
0.229502
0.225505
0.220846
0.215689
0.210167
0.204387
0.198452
0.192484
0.186516
0.18023
0.173696
0.169674
0.187029
0.182626
0.190947
0.204936
0.219761
0.232673
0.242503
0.249151
0.252965
0.254401
0.253894
0.251817
0.248489
0.244174
0.239097
0.233443
0.227368
0.221
0.214444
0.207794
0.201167
0.194587
0.187761
0.180786
0.176248
0.221377
0.216118
0.223256
0.235576
0.248448
0.259336
0.267198
0.271992
0.274084
0.273929
0.271952
0.26852
0.263943
0.258478
0.25234
0.245709
0.238735
0.23154
0.224222
0.216872
0.209599
0.202422
0.195067
0.187653
0.18259
0.255026
0.248921
0.254873
0.265525
0.27646
0.285351
0.291277
0.294251
0.294654
0.292938
0.289523
0.284765
0.278966
0.272375
0.2652
0.257616
0.249763
0.24176
0.233699
0.225666
0.217763
0.210003
0.202132
0.194283
0.188694
0.287854
0.280918
0.285685
0.294681
0.303705
0.310635
0.314666
0.315861
0.314614
0.311376
0.306557
0.300506
0.293515
0.285828
0.277644
0.269131
0.260424
0.251635
0.242851
0.234155
0.22564
0.217313
0.20894
0.200666
0.194553
0.319741
0.311993
0.315586
0.322947
0.330096
0.335109
0.337292
0.336757
0.333907
0.329189
0.323006
0.315699
0.307553
0.298802
0.28964
0.280226
0.270691
0.261141
0.251658
0.242319
0.233211
0.224336
0.215479
0.20679
0.200158
0.350573
0.342035
0.34447
0.350228
0.355545
0.358696
0.359088
0.356876
0.352474
0.346324
0.338823
0.330303
0.32104
0.311262
0.301155
0.290872
0.280539
0.270255
0.260098
0.25014
0.240459
0.231056
0.221733
0.212643
0.2055
0.380238
0.370935
0.372236
0.37643
0.379972
0.381321
0.379985
0.376157
0.370261
0.362734
0.353964
0.344276
0.33394
0.323174
0.312159
0.301043
0.289943
0.278954
0.26815
0.257597
0.247368
0.237458
0.22769
0.218213
0.210573
0.40863
0.398589
0.398789
0.401468
0.403297
0.402914
0.399919
0.394543
0.387215
0.378368
0.368385
0.35758
0.346216
0.334507
0.322624
0.31071
0.298878
0.287216
0.275795
0.264675
0.253921
0.243528
0.233336
0.223489
0.215367
0.435646
0.4249
0.424036
0.425257
0.425444
0.423406
0.418829
0.411977
0.403286
0.393183
0.382044
0.370177
0.357836
0.345229
0.332522
0.31985
0.307322
0.295022
0.283014
0.271355
0.260104
0.249253
0.23866
0.228461
0.219874
0.46119
0.449774
0.44789
0.447718
0.446343
0.442733
0.436657
0.428408
0.418425
0.407135
0.394903
0.382031
0.368767
0.355311
0.341825
0.328438
0.315253
0.30235
0.289789
0.277623
0.265902
0.25462
0.24365
0.233118
0.224087
0.485169
0.473122
0.470268
0.468777
0.465925
0.460834
0.453347
0.443784
0.432589
0.420183
0.406924
0.393109
0.378978
0.364726
0.350509
0.336452
0.322651
0.309183
0.296104
0.283461
0.271301
0.259615
0.248295
0.237451
0.227997
0.5075
0.494861
0.491094
0.488363
0.484128
0.477653
0.468849
0.458061
0.445735
0.432288
0.418072
0.403378
0.388441
0.373448
0.358551
0.343869
0.329496
0.315503
0.301942
0.288858
0.276289
0.264229
0.252583
0.241449
0.231599
0.528102
0.514915
0.510297
0.506411
0.500894
0.493137
0.483114
0.471193
0.457823
0.443415
0.428316
0.412811
0.397129
0.381453
0.365929
0.350672
0.335771
0.321294
0.30729
0.293799
0.280854
0.268449
0.256505
0.245104
0.234886
0.546902
0.533213
0.52781
0.522863
0.516168
0.507237
0.496099
0.483142
0.468817
0.453531
0.437626
0.42138
0.405018
0.388718
0.372622
0.356841
0.34146
0.326542
0.312134
0.298272
0.284985
0.272267
0.260053
0.248407
0.237852
0.563834
0.54969
0.543574
0.537664
0.529902
0.519909
0.507764
0.493872
0.478684
0.462606
0.445974
0.42906
0.412086
0.395224
0.378613
0.36236
0.346546
0.331232
0.316461
0.302266
0.288672
0.275673
0.263217
0.251352
0.240491
0.578837
0.56429
0.557536
0.550765
0.542052
0.531113
0.518072
0.503349
0.487396
0.470614
0.453336
0.43583
0.418312
0.400952
0.383885
0.367214
0.351017
0.335352
0.32026
0.305771
0.291906
0.27866
0.26599
0.253932
0.242798
0.591859
0.57696
0.569647
0.562123
0.552579
0.540815
0.526993
0.511544
0.494924
0.47753
0.45969
0.441669
0.423679
0.405887
0.388424
0.37139
0.354861
0.338892
0.323523
0.308779
0.294679
0.281219
0.268366
0.256141
0.24477
0.602854
0.587658
0.579868
0.571701
0.56145
0.548983
0.534497
0.518434
0.501248
0.483335
0.465019
0.446561
0.428172
0.410014
0.392216
0.374876
0.358067
0.341843
0.326239
0.311281
0.296984
0.283345
0.270338
0.257973
0.246403
0.611784
0.596345
0.588163
0.579468
0.568636
0.555593
0.540563
0.523996
0.506348
0.48801
0.469305
0.450492
0.431777
0.413321
0.395251
0.377663
0.360627
0.344195
0.328402
0.313271
0.298815
0.285032
0.271902
0.259425
0.247694
0.618617
0.602991
0.594504
0.585399
0.574114
0.560624
0.545172
0.528215
0.510208
0.491542
0.472537
0.45345
0.434484
0.4158
0.397522
0.379743
0.362533
0.345944
0.330007
0.314745
0.300168
0.286276
0.273054
0.260492
0.24864
0.62333
0.607574
0.598871
0.589473
0.577868
0.56406
0.548309
0.531076
0.512816
0.49392
0.474705
0.455426
0.436286
0.417443
0.39902
0.38111
0.363781
0.347083
0.331049
0.315697
0.30104
0.287074
0.27379
0.261173
0.249241
0.625906
0.610078
0.601248
0.591679
0.579884
0.56589
0.549964
0.532571
0.514166
0.495137
0.475802
0.456414
0.437176
0.418244
0.399742
0.38176
0.364367
0.347611
0.331524
0.316126
0.301426
0.287424
0.274109
0.261467
0.249499
0.626337
0.610494
0.601629
0.592009
0.580158
0.566109
0.550133
0.532695
0.514251
0.495188
0.475824
0.456412
0.437152
0.418202
0.399684
0.38169