/*--------------------------------*- C++ -*----------------------------------*\
  =========                 |
  \\      /  F ield         | OpenFOAM: The Open Source CFD Toolbox
   \\    /   O peration     | Website:  https://openfoam.org
    \\  /    A nd           | Version:  7
     \\/     M anipulation  |
\*---------------------------------------------------------------------------*/
FoamFile
{
    version     2.0;
    format      ascii;
    class       volVectorField;
    location    "175";
    object      U;
}
// * * * * * * * * * * * * * * * * * * * * * * * * * * * * * * * * * * * * * //

dimensions      [0 1 -1 0 0 0 0];

internalField   nonuniform List<vector> 
31800
(
(-0.00083571 0.0249884 -1.31534e-20)
(-0.00417133 0.070989 9.06072e-21)
(-0.0104723 0.113242 -2.94785e-21)
(-0.0188476 0.15051 1.30606e-20)
(-0.0290108 0.182191 1.45648e-20)
(-0.0406305 0.208417 -4.76836e-21)
(-0.0532891 0.229938 -3.45208e-21)
(-0.0665326 0.247911 2.43877e-20)
(-0.0798965 0.263614 -2.78065e-21)
(-0.0929394 0.278181 4.01247e-21)
(-0.105266 0.292416 1.38239e-20)
(-0.116534 0.306707 1.36214e-20)
(-0.126434 0.321034 -8.6926e-21)
(-0.13467 0.33502 -1.09305e-20)
(-0.140928 0.34799 -3.95014e-22)
(-0.144849 0.359009 -1.43264e-20)
(-0.146027 0.366911 1.13234e-20)
(-0.144006 0.370315 1.94882e-20)
(-0.138306 0.367659 -7.61287e-21)
(-0.128473 0.357268 3.50272e-20)
(-0.114139 0.337481 2.23782e-21)
(-0.0951043 0.306824 -3.05126e-21)
(-0.0713621 0.264236 6.7203e-21)
(-0.0431914 0.209459 1.43355e-20)
(-0.0102475 0.142701 9.20039e-21)
(-0.00137267 0.025866 1.3543e-20)
(-0.00524565 0.0733304 7.38442e-21)
(-0.0113308 0.116882 -7.92234e-21)
(-0.0190423 0.155316 -3.0097e-20)
(-0.0282106 0.188002 2.21449e-20)
(-0.0385992 0.215024 -1.08155e-20)
(-0.0498694 0.237087 5.96918e-22)
(-0.0616176 0.25532 -1.86963e-20)
(-0.0734029 0.270997 3.85982e-21)
(-0.0847812 0.285271 2.59251e-21)
(-0.0953341 0.298978 -5.79678e-20)
(-0.10468 0.312539 -1.07914e-21)
(-0.112467 0.325953 6.58747e-20)
(-0.118353 0.33885 -3.33733e-20)
(-0.121979 0.350542 -6.39381e-21)
(-0.122953 0.360077 1.41973e-20)
(-0.120846 0.366266 -3.05843e-20)
(-0.115195 0.367719 -1.16914e-21)
(-0.105545 0.362886 3.2451e-20)
(-0.0914985 0.350134 -1.20094e-19)
(-0.0727811 0.327888 -3.88398e-20)
(-0.049331 0.294794 6.09704e-20)
(-0.0212463 0.249873 3.13759e-20)
(0.0108436 0.192988 5.72752e-21)
(0.0478734 0.124231 -1.24747e-20)
(-0.00193868 0.0264415 -2.80565e-20)
(-0.00639857 0.0749622 -7.70245e-22)
(-0.0122997 0.119558 -3.78752e-20)
(-0.0193518 0.159013 5.63801e-20)
(-0.0274954 0.192644 -6.37469e-20)
(-0.0365865 0.220461 -5.85745e-21)
(-0.0463664 0.243097 -5.74606e-21)
(-0.0564859 0.26163 1.04612e-20)
(-0.0665319 0.277313 3.49297e-20)
(-0.0760629 0.291307 -5.97895e-21)
(-0.0846401 0.304475 -1.04618e-20)
(-0.0918462 0.31727 3.82766e-20)
(-0.097285 0.329718 -7.02034e-21)
(-0.100569 0.341461 3.83098e-20)
(-0.1013 0.351811 -7.86292e-20)
(-0.0990569 0.359807 -3.28566e-20)
(-0.0933936 0.364254 5.54436e-21)
(-0.0838564 0.363766 -1.13361e-19)
(-0.0700259 0.356824 3.17757e-20)
(-0.0515713 0.341859 7.39792e-20)
(-0.0283161 0.31739 -4.93778e-20)
(-0.000346262 0.28219 -1.21747e-19)
(0.0321525 0.235357 -6.19507e-20)
(0.0681147 0.17688 -1.22073e-19)
(0.109417 0.106487 -6.89916e-20)
(-0.00251451 0.0267178 1.3074e-20)
(-0.00759383 0.075882 -2.16533e-20)
(-0.0133471 0.121251 6.87952e-20)
(-0.0197599 0.161565 -5.48892e-20)
(-0.0268714 0.196064 -1.4146e-20)
(-0.0346238 0.224659 -3.67717e-21)
(-0.0428365 0.247889 4.46244e-20)
(-0.0512178 0.266758 3.15211e-20)
(-0.0593872 0.282481 -5.60728e-20)
(-0.0669109 0.296213 2.35092e-20)
(-0.0733353 0.308838 1.66939e-21)
(-0.078211 0.32084 -1.07503e-19)
(-0.0811008 0.332278 -3.5475e-20)
(-0.0815751 0.342813 3.18136e-21)
(-0.0792002 0.351769 2.45105e-20)
(-0.073531 0.358188 1.14789e-19)
(-0.0641158 0.360884 1.33199e-20)
(-0.0505176 0.358491 1.14141e-19)
(-0.0323629 0.349536 1.18634e-19)
(-0.00939793 0.33253 -1.55395e-20)
(0.0184563 0.306094 5.73309e-20)
(0.0509608 0.269132 -2.37437e-20)
(0.0879319 0.220791 7.86085e-20)
(0.127643 0.161295 2.73474e-19)
(0.173461 0.0896959 4.38784e-20)
(-0.00308182 0.0267042 2.21667e-20)
(-0.00879613 0.0761011 -8.03558e-20)
(-0.0144412 0.121963 1.03221e-19)
(-0.0202501 0.162955 3.79055e-20)
(-0.0263443 0.198222 2.9726e-20)
(-0.0327426 0.22756 3.15725e-20)
(-0.0393384 0.251391 -1.67266e-19)
(-0.0458979 0.270627 6.19828e-20)
(-0.0520783 0.286423 6.48347e-20)
(-0.0574598 0.299917 -9.61273e-20)
(-0.0615806 0.312002 1.00257e-19)
(-0.0639656 0.323195 5.55121e-20)
(-0.0641417 0.333589 6.86477e-20)
(-0.0616423 0.342875 -4.78602e-20)
(-0.0560033 0.350399 -1.10448e-20)
(-0.046763 0.355221 2.40536e-19)
(-0.0334722 0.356176 -1.0583e-19)
(-0.015721 0.351936 8.52629e-20)
(0.00681174 0.341085 -2.13846e-19)
(0.034297 0.322223 -9.00402e-20)
(0.0667272 0.294077 9.00129e-20)
(0.103679 0.255709 1.63847e-19)
(0.145121 0.206252 2.98939e-20)
(0.188347 0.146254 -2.27251e-19)
(0.23891 0.0739638 -1.64514e-19)
(-0.00362344 0.0264172 -8.73071e-20)
(-0.00997192 0.0756461 -2.79497e-20)
(-0.0155512 0.121712 -6.13697e-20)
(-0.0208054 0.163184 -5.9108e-20)
(-0.0259194 0.199099 4.22469e-20)
(-0.0309747 0.229123 -7.49727e-20)
(-0.0359317 0.253546 -4.82177e-20)
(-0.040614 0.273168 -2.41823e-19)
(-0.0447201 0.289068 1.04444e-20)
(-0.0478513 0.30235 -2.19796e-21)
(-0.049546 0.313907 -1.87568e-19)
(-0.0493113 0.324285 -6.45275e-20)
(-0.0466454 0.333615 -8.17722e-20)
(-0.0410517 0.341625 1.59021e-19)
(-0.0320433 0.347695 4.70934e-20)
(-0.0191486 0.350916 -1.3085e-19)
(-0.00192979 0.350159 -1.49759e-19)
(0.0199882 0.344145 4.28356e-20)
(0.0468682 0.331529 1.78152e-19)
(0.0787921 0.31101 -3.82187e-20)
(0.115688 0.281412 -2.53486e-20)
(0.156891 0.241971 -1.25183e-19)
(0.202734 0.191764 -1.64082e-19)
(0.249122 0.131709 1.38163e-19)
(0.304716 0.0592495 9.5812e-20)
(-0.00412465 0.0258788 4.5394e-20)
(-0.0110911 0.0745569 5.28784e-20)
(-0.0166486 0.120536 -4.15552e-20)
(-0.0214101 0.162273 -8.53533e-20)
(-0.0256016 0.198692 1.32524e-20)
(-0.029351 0.229321 9.97179e-20)
(-0.0326763 0.254307 1.43257e-19)
(-0.0354554 0.274321 1.95002e-19)
(-0.0374312 0.29035 3.35487e-20)
(-0.038233 0.303446 4.51541e-20)
(-0.0374082 0.314495 5.52362e-20)
(-0.034456 0.324064 2.12202e-19)
(-0.0288564 0.332324 -1.23859e-20)
(-0.0200909 0.339047 -2.80214e-19)
(-0.00765758 0.343657 2.04653e-19)
(0.00891596 0.345289 8.30212e-20)
(0.030049 0.342863 2.74484e-19)
(0.056074 0.335164 -1.16099e-19)
(0.0871925 0.320925 -1.39523e-19)
(0.123388 0.298949 4.10677e-19)
(0.164557 0.268151 -1.45016e-19)
(0.209711 0.227941 -2.31038e-19)
(0.259827 0.17732 -6.59477e-20)
(0.308916 0.117558 -2.13009e-19)
(0.369751 0.0453484 3.59439e-20)
(-0.0045733 0.0251161 1.13616e-20)
(-0.012128 0.072886 -2.15473e-20)
(-0.0177087 0.118488 4.37167e-21)
(-0.0220504 0.160263 -1.54494e-19)
(-0.0253957 0.19702 -1.1965e-19)
(-0.0279015 0.228148 -2.25811e-20)
(-0.0296311 0.253642 -5.76222e-20)
(-0.0305116 0.274036 -1.05994e-19)
(-0.0303316 0.290208 -2.45384e-20)
(-0.0287551 0.303144 -1.15692e-20)
(-0.0253481 0.313711 -1.1274e-19)
(-0.0196132 0.322489 4.8336e-20)
(-0.011023 0.329687 3.76307e-20)
(0.00095175 0.335129 2.04671e-19)
(0.0168187 0.33829 -5.37941e-21)
(0.0370423 0.338362 -1.29446e-19)
(0.0620157 0.334326 -1.59428e-20)
(0.0920223 0.325041 5.78131e-20)
(0.127202 0.309326 2.53984e-19)
(0.167426 0.286091 -1.9887e-19)
(0.212615 0.254335 5.43878e-19)
(0.261335 0.213626 2.39225e-19)
(0.315564 0.162891 -1.88708e-19)
(0.366856 0.103673 3.75723e-19)
(0.433142 0.0319794 2.28165e-19)
(-0.00496031 0.0241603 1.36698e-20)
(-0.0130625 0.0706967 6.93922e-20)
(-0.0187113 0.115641 1.94193e-19)
(-0.0227148 0.157216 2.4124e-19)
(-0.0253073 0.194123 1.42593e-19)
(-0.0266549 0.225615 -9.95048e-20)
(-0.0268526 0.251538 2.42314e-19)
(-0.0258696 0.272277 2.72012e-20)
(-0.0235402 0.288593 -1.44829e-19)
(-0.0195682 0.30139 1.64049e-20)
(-0.0135479 0.311503 2.6938e-19)
(-0.00499716 0.319517 -2.90553e-19)
(0.00660639 0.325677 -1.67191e-19)
(0.0217906 0.329859 -3.46245e-20)
(0.0410579 0.3316 -2.84847e-19)
(0.064856 0.330156 -1.90881e-19)
(0.0935446 0.324584 3.41383e-20)
(0.127352 0.313821 -4.20612e-19)
(0.166361 0.29678 4.23143e-20)
(0.210315 0.272476 -2.22122e-19)
(0.259229 0.239992 -2.87036e-19)
(0.311094 0.199008 2.78079e-19)
(0.36929 0.148422 3.30349e-19)
(0.422335 0.089932 -2.61754e-19)
(0.49442 0.0188095 3.74341e-19)
(-0.00528001 0.0230457 -1.64223e-19)
(-0.013881 0.0680616 1.19329e-19)
(-0.0196422 0.112078 -9.24302e-21)
(-0.0233954 0.153208 4.68105e-20)
(-0.025342 0.190058 4.40747e-20)
(-0.0256375 0.221755 1.9876e-19)
(-0.0243933 0.247997 -1.44045e-19)
(-0.0216122 0.269023 -2.67192e-19)
(-0.0171718 0.285464 1.33715e-19)
(-0.0108196 0.298135 1.2526e-19)
(-0.00218715 0.307821 -4.24861e-19)
(0.00918052 0.315106 3.0165e-19)
(0.0237874 0.320265 4.62873e-19)
(0.0421472 0.323226 3.18286e-20)
(0.0647456 0.323591 -8.34656e-20)
(0.0920037 0.320694 2.48433e-19)
(0.124242 0.313668 -1.16764e-19)
(0.161629 0.301544 5.47609e-19)
(0.204197 0.283327 -5.02479e-19)
(0.251554 0.258134 9.81184e-20)
(0.303896 0.225138 -5.08314e-20)
(0.358508 0.184044 -1.7678e-19)
(0.42063 0.133814 -1.77656e-19)
(0.475125 0.0761371 1.55672e-19)
(0.553642 0.00548804 3.73568e-20)
(-0.00553037 0.0218089 1.06721e-19)
(-0.0145767 0.0650602 -7.63465e-20)
(-0.0204938 0.107897 6.21134e-20)
(-0.0240888 0.148336 -2.09769e-19)
(-0.0255065 0.184906 -4.63438e-20)
(-0.024873 0.216621 2.32358e-20)
(-0.0223002 0.243045 -5.20703e-20)
(-0.0178145 0.264271 -8.58035e-20)
(-0.0113328 0.280797 2.63665e-20)
(-0.00264846 0.293338 -1.45072e-19)
(0.00856226 0.302621 2.72816e-19)
(0.022716 0.309216 -6.31593e-20)
(0.0402853 0.313421 -1.63309e-19)
(0.0617563 0.315213 -1.68875e-19)
(0.0875861 0.314266 2.29751e-19)
(0.11816 0.309989 1.26047e-19)
(0.153755 0.301608 5.28729e-20)
(0.194477 0.288243 -4.52738e-19)
(0.240326 0.268998 4.91097e-19)
(0.290767 0.243075 -1.62745e-19)
(0.346278 0.209768 -8.15046e-20)
(0.403349 0.168662 -7.00295e-20)
(0.469516 0.118971 -8.02711e-20)
(0.525467 0.0620303 2.53234e-19)
(0.611484 -0.0082935 -4.37048e-19)
(-0.00571307 0.0204877 -3.9761e-20)
(-0.0151502 0.0617769 1.68623e-19)
(-0.0212659 0.103204 -2.40741e-19)
(-0.024796 0.14271 9.63431e-20)
(-0.0258082 0.178763 5.20236e-20)
(-0.0243814 0.210289 -7.94419e-20)
(-0.0206127 0.236728 2.30477e-19)
(-0.0145412 0.258038 5.66404e-20)
(-0.00611725 0.274583 2.47867e-20)
(0.0048194 0.286973 2.25359e-19)
(0.0185425 0.295867 -9.19489e-20)
(0.0354204 0.30181 9.84266e-20)
(0.0558821 0.305113 -1.05677e-19)
(0.0803737 0.305803 -6.02235e-21)
(0.109312 0.303618 -1.1886e-19)
(0.143041 0.298052 -4.25007e-19)
(0.181788 0.28842 8.98123e-20)
(0.225603 0.273939 3.62022e-19)
(0.274476 0.253812 -1.33578e-19)
(0.327747 0.227297 6.55587e-19)
(0.386276 0.19385 -3.7667e-19)
(0.445759 0.152765 -1.149e-19)
(0.516329 0.10375 -1.97234e-19)
(0.574135 0.047336 6.29191e-21)
(0.669163 -0.0227396 -1.87794e-19)
(-0.00583347 0.0191201 -1.17408e-19)
(-0.0156098 0.0582986 -1.74056e-19)
(-0.0219655 0.0981111 -9.16572e-20)
(-0.0255229 0.136449 8.69683e-20)
(-0.0262551 0.171744 2.65907e-20)
(-0.0241783 0.202854 1.52578e-20)
(-0.0193603 0.229116 5.86488e-20)
(-0.0118423 0.250363 -2.84267e-19)
(-0.00160126 0.266835 9.27582e-20)
(0.0114788 0.279031 -1.95199e-19)
(0.0276182 0.287534 -6.97903e-20)
(0.0471296 0.292856 -9.62701e-20)
(0.0703882 0.295314 -2.05702e-19)
(0.0977891 0.294973 4.28309e-19)
(0.129701 0.291638 2.4806e-19)
(0.166418 0.284884 6.75933e-20)
(0.208126 0.274116 2.16684e-19)
(0.254831 0.258644 -3.31327e-19)
(0.306544 0.237773 -9.05472e-20)
(0.362526 0.210777 -4.21348e-19)
(0.424114 0.177329 1.68278e-19)
(0.48631 0.136228 3.87874e-19)
(0.561958 0.0879759 1.9018e-19)
(0.622535 0.0317856 -3.60199e-19)
(0.728237 -0.0378755 4.70862e-19)
(-0.00590045 0.0177432 -4.0774e-20)
(-0.0159708 0.0547127 9.93781e-21)
(-0.0226068 0.0927361 1.17214e-19)
(-0.02628 0.129684 2.06805e-19)
(-0.0268551 0.163978 -1.37645e-19)
(-0.024273 0.19443 1.31287e-19)
(-0.0185604 0.220301 -1.02768e-19)
(-0.00974956 0.241314 3.88374e-19)
(0.00216336 0.257591 -2.71625e-19)
(0.0172538 0.269524 5.82492e-20)
(0.0356879 0.277617 2.52308e-19)
(0.057718 0.282338 -3.36577e-20)
(0.0836584 0.284002 2.87932e-20)
(0.113846 0.282707 -3.45459e-19)
(0.148596 0.278316 -2.98268e-19)
(0.188156 0.270481 -1.11466e-20)
(0.232681 0.258698 -3.42146e-19)
(0.282154 0.242362 1.34797e-19)
(0.336662 0.220876 -1.86831e-19)
(0.395464 0.193488 2.65184e-19)
(0.460434 0.160148 -3.56481e-19)
(0.52611 0.118949 2.23909e-19)
(0.607795 0.0715621 -1.95473e-19)
(0.672579 0.0152354 2.84307e-19)
(0.790218 -0.0534649 -1.94348e-20)
(-0.00592616 0.0163928 2.27368e-19)
(-0.016255 0.0511041 5.63956e-20)
(-0.0232105 0.0871954 -1.28242e-19)
(-0.0270814 0.12255 -1.53073e-19)
(-0.0276146 0.155603 1.03028e-19)
(-0.0246671 0.185151 -3.7441e-19)
(-0.0182146 0.210398 5.30635e-19)
(-0.00827091 0.23098 1.00907e-19)
(0.00515646 0.246915 1.69033e-19)
(0.0221079 0.258491 2.06116e-19)
(0.0426974 0.266132 1.29556e-19)
(0.0671164 0.270258 -9.72856e-20)
(0.0956155 0.271173 -1.56296e-21)
(0.128472 0.268998 -4.70342e-20)
(0.165949 0.263647 -1.47238e-19)
(0.208257 0.254846 3.39797e-19)
(0.255545 0.242173 7.20663e-19)
(0.307819 0.225099 4.69359e-20)
(0.365297 0.203121 2.65402e-19)
(0.427356 0.175422 -1.41293e-19)
(0.496396 0.142266 1.9005e-19)
(0.566811 0.100893 -1.11422e-18)
(0.655643 0.054511 5.53543e-19)
(0.726384 -0.00221347 3.51029e-19)
(0.856068 -0.0689695 -2.45401e-19)
(-0.00592555 0.0151021 -1.35246e-19)
(-0.0164902 0.0475538 -2.30494e-19)
(-0.0238024 0.0816033 2.19779e-19)
(-0.0279432 0.115181 1.43376e-19)
(-0.0285369 0.146766 7.5428e-20)
(-0.0253516 0.175162 2.69224e-19)
(-0.018305 0.199544 -2.78701e-19)
(-0.00738489 0.219482 -2.55396e-19)
(0.00739831 0.234904 -1.67502e-19)
(0.0260568 0.246006 -3.89822e-19)
(0.0486581 0.253133 7.4174e-20)
(0.0753361 0.256652 -3.04181e-20)
(0.106281 0.256851 5.59925e-19)
(0.141717 0.253864 2.32947e-19)
(0.181867 0.247652 1.72235e-19)
(0.226928 0.238003 -5.61764e-20)
(0.277081 0.22457 -3.22702e-19)
(0.332416 0.206887 -2.72063e-19)
(0.39335 0.184538 -3.33879e-19)
(0.459494 0.156611 2.45557e-19)
(0.533689 0.123701 4.83056e-19)
(0.610482 0.0821685 5.72168e-19)
(0.707432 0.0369971 -5.55357e-19)
(0.785737 -0.0201155 2.38e-19)
(0.925722 -0.0835883 3.42563e-19)
(-0.00591587 0.0139011 -3.52426e-19)
(-0.016708 0.0441362 1.95617e-19)
(-0.0244112 0.0760679 -3.30873e-19)
(-0.028881 0.107712 4.04096e-19)
(-0.029619 0.137616 -3.84598e-19)
(-0.0263034 0.164621 -1.14309e-19)
(-0.0187899 0.187895 -2.11252e-19)
(-0.00703366 0.206966 1.18104e-19)
(0.00895972 0.22169 -2.00669e-19)
(0.0291833 0.232181 2.19618e-19)
(0.0536669 0.238712 -2.87188e-19)
(0.0824967 0.241596 -2.12699e-19)
(0.115815 0.2411 2.51907e-21)
(0.153805 0.237366 -3.34315e-19)
(0.196679 0.230392 6.43287e-21)
(0.244657 0.220017 -3.51524e-19)
(0.298002 0.205962 -1.94882e-20)
(0.356962 0.18781 -4.05831e-19)
(0.422207 0.165225 1.44805e-19)
(0.493662 0.137187 6.66654e-19)
(0.574394 0.104615 -6.65697e-19)
(0.659269 0.0630953 3.42576e-19)
(0.764761 0.0194264 3.88087e-19)
(0.851445 -0.037675 -2.01807e-19)
(0.997831 -0.0963973 7.50779e-20)
(-0.00591588 0.0128159 1.82686e-19)
(-0.0169423 0.0409175 -5.16882e-20)
(-0.0250659 0.0706887 1.12255e-19)
(-0.029907 0.100271 -3.24626e-19)
(-0.0308484 0.128306 5.15327e-19)
(-0.0274812 0.153693 3.35517e-20)
(-0.0195976 0.175624 3.67056e-19)
(-0.00711536 0.193603 -1.90475e-19)
(0.00997317 0.207436 1.27916e-19)
(0.0316529 0.217169 1.66931e-19)
(0.0579299 0.223009 1.54648e-19)
(0.0888586 0.22522 4.84778e-19)
(0.124554 0.224042 -1.26958e-19)
(0.16519 0.219625 -1.23197e-19)
(0.211001 0.211989 -1.00837e-19)
(0.262282 0.201024 -5.81397e-21)
(0.319441 0.186502 -2.21192e-19)
(0.382939 0.168047 2.0175e-19)
(0.453713 0.14539 -2.80968e-19)
(0.531975 0.117424 1.12412e-19)
(0.620665 0.0853523 -1.70454e-19)
(0.714883 0.0442227 1.77474e-20)
(0.828362 0.00243875 -8.99247e-19)
(0.922809 -0.0538643 8.58374e-20)
(1.06988 -0.106548 -3.8681e-21)
(-0.00594499 0.011868 2.40338e-19)
(-0.0172272 0.0379533 -1.61526e-19)
(-0.0257929 0.065554 -1.12834e-19)
(-0.0310258 0.0929758 -6.84564e-20)
(-0.0321986 0.118979 -2.21994e-19)
(-0.0288204 0.142549 -3.70269e-19)
(-0.0206208 0.162917 -1.1995e-19)
(-0.00747589 0.179592 4.08333e-19)
(0.0106443 0.192344 -1.27767e-19)
(0.0337307 0.20117 -2.72096e-19)
(0.0617843 0.206219 -1.6169e-19)
(0.094853 0.207715 -4.95e-19)
(0.133055 0.205871 -5.37583e-19)
(0.176595 0.200837 4.0825e-19)
(0.225778 0.192657 8.71525e-20)
(0.28103 0.181255 7.08196e-20)
(0.342945 0.16645 7.46197e-19)
(0.412219 0.147899 1.19356e-19)
(0.489975 0.125387 7.67173e-19)
(0.576538 0.0977666 -9.60657e-19)
(0.674232 0.0664565 4.66807e-19)
(0.77804 0.026291 -4.40446e-19)
(0.897666 -0.0131693 7.15448e-19)
(0.997513 -0.0676445 -1.08431e-18)
(1.13871 -0.113456 2.31016e-19)
(-0.0060222 0.0110734 -6.16115e-20)
(-0.0175941 0.0352878 -1.27778e-19)
(-0.0266122 0.060738 -1.1644e-19)
(-0.032231 0.085933 3.94529e-20)
(-0.0336245 0.109776 -6.14496e-20)
(-0.030228 0.131356 2.34873e-19)
(-0.0217102 0.14997 -8.21571e-20)
(-0.00790131 0.165147 -1.73357e-19)
(0.0112621 0.176645 -7.16029e-20)
(0.0357948 0.184425 3.8718e-21)
(0.0657178 0.188596 4.48943e-19)
(0.101105 0.189342 -3.92142e-19)
(0.142118 0.186858 5.75376e-19)
(0.189039 0.181291 -1.69531e-19)
(0.242295 0.172704 -2.9613e-19)
(0.302479 0.161052 2.4723e-19)
(0.370379 0.146191 -2.8308e-19)
(0.446858 0.127802 -4.87781e-19)
(0.533022 0.105722 -1.94807e-19)
(0.628973 0.0788159 1.91743e-19)
(0.735856 0.0486271 3.06539e-19)
(0.848048 0.0101193 6.19761e-19)
(0.970671 -0.0265977 4.05059e-20)
(1.07204 -0.0782049 4.46457e-19)
(1.20119 -0.116915 -1.47383e-19)
(-0.00616488 0.010442 -2.98475e-20)
(-0.0180693 0.0329515 2.78917e-19)
(-0.0275341 0.0562992 2.87725e-19)
(-0.0335005 0.0792344 -1.2866e-19)
(-0.0350586 0.100824 9.00341e-20)
(-0.0315785 0.12028 -3.29766e-19)
(-0.0226701 0.136983 6.48915e-20)
(-0.00811223 0.150501 5.23411e-20)
(0.0122056 0.160599 -1.50448e-19)
(0.0383441 0.167221 -4.08548e-20)
(0.0703752 0.170444 -5.56119e-19)
(0.108437 0.170429 1.78976e-19)
(0.152781 0.167355 -2.81951e-20)
(0.20381 0.16137 -4.94665e-21)
(0.262106 0.152549 -2.54615e-20)
(0.32843 0.140874 -9.98429e-21)
(0.403691 0.126229 -2.65417e-20)
(0.488747 0.108319 3.37809e-19)
(0.584351 0.0870203 -3.16623e-19)
(0.689926 0.0612666 2.92374e-19)
(0.804933 0.0326117 -4.52101e-19)
(0.922746 -0.00354979 -2.23831e-19)
(1.04424 -0.0372206 6.62309e-20)
(1.14247 -0.0851279 -3.72407e-19)
(1.25489 -0.1171 -1.23387e-19)
(-0.00638748 0.00997706 -2.77829e-19)
(-0.0186709 0.0309606 -3.55384e-20)
(-0.0285555 0.0522787 -3.52048e-19)
(-0.0347935 0.0729539 -2.81877e-19)
(-0.0364071 0.0922355 3.71258e-19)
(-0.0327105 0.109476 2.52575e-19)
(-0.0232556 0.124154 -1.11001e-19)
(-0.00776229 0.135895 -9.72168e-20)
(0.0139437 0.144487 -7.18987e-20)
(0.0419952 0.149873 6.20978e-19)
(0.0765495 0.152118 2.40351e-19)
(0.117849 0.151366 3.35438e-19)
(0.166275 0.147788 -1.92462e-20)
(0.222379 0.141535 6.85905e-20)
(0.286891 0.132696 1.86357e-19)
(0.360673 0.121268 -4.45231e-19)
(0.444589 0.107155 7.18949e-19)
(0.539202 0.0900871 8.12778e-20)
(0.644487 0.069947 -2.48296e-19)
(0.75874 0.0457992 -3.87245e-19)
(0.879423 0.0190647 -2.1398e-19)
(0.998858 -0.0141969 5.00151e-19)
(1.11477 -0.0447187 -1.68489e-20)
(1.20537 -0.0884248 2.70036e-19)
(1.29843 -0.114476 3.20747e-19)
(-0.00670024 0.00967464 2.11355e-19)
(-0.0194066 0.0293163 2.20551e-20)
(-0.0296576 0.0486987 -4.60625e-20)
(-0.0360476 0.0671462 5.04972e-20)
(-0.0375484 0.0841064 -3.52021e-19)
(-0.0334262 0.0990852 4.63896e-19)
(-0.0231742 0.111673 -1.93837e-21)
(-0.00644274 0.121568 3.72406e-19)
(0.0170256 0.128598 1.65276e-20)
(0.0474637 0.132719 -1.27145e-19)
(0.0851481 0.134 1.97274e-19)
(0.13046 0.13258 -6.59534e-19)
(0.183929 0.12863 -4.07551e-19)
(0.24625 0.122304 -2.04347e-19)
(0.318236 0.1137 -9.14912e-20)
(0.400696 0.102825 9.60368e-21)
(0.494186 0.0895865 -4.61838e-19)
(0.598603 0.0737302 1.80125e-19)
(0.712729 0.0551099 7.15595e-19)
(0.833421 0.0329607 2.05074e-19)
(0.95617 0.00842104 5.11755e-19)
(1.07266 -0.0216113 -5.1979e-19)
(1.17892 -0.0491164 -1.25853e-19)
(1.25843 -0.088454 -2.03318e-19)
(1.3316 -0.109673 -1.11498e-18)
(-0.00710803 0.00952376 -1.96434e-19)
(-0.0202717 0.028004 9.97922e-20)
(-0.0308036 0.045562 1.77455e-19)
(-0.0371784 0.0618442 6.12054e-19)
(-0.0383339 0.07651 2.29209e-19)
(-0.0334947 0.0892286 -5.055e-19)
(-0.0220921 0.0997136 -1.2635e-19)
(-0.00369463 0.107749 -6.7223e-20)
(0.0220591 0.113215 -2.15131e-19)
(0.0555286 0.116099 -7.09164e-20)
(0.0971355 0.116483 -1.43707e-19)
(0.147415 0.114515 5.2401e-19)
(0.207036 0.11037 6.27717e-19)
(0.276772 0.104206 3.19126e-19)
(0.357382 0.096121 -1.6341e-19)
(0.449387 0.0861183 -1.17136e-19)
(0.552705 0.0740868 2.64391e-19)
(0.666195 0.0597753 -6.532e-20)
(0.787149 0.0429607 -9.3034e-21)
(0.910948 0.0230715 1.61134e-19)
(1.03152 0.000831526 -2.32061e-19)
(1.14071 -0.0258932 -4.12532e-19)
(1.23423 -0.050726 -2.77983e-19)
(1.30063 -0.0857783 3.56106e-19)
(1.3551 -0.103362 1.12482e-18)
(-0.00760948 0.00950633 1.56378e-19)
(-0.0212473 0.0269944 5.30101e-19)
(-0.0319388 0.0428517 2.11486e-19)
(-0.0380798 0.0570587 -1.87671e-19)
(-0.0385906 0.0694956 2.59421e-19)
(-0.0326581 0.0800029 2.83739e-19)
(-0.0196464 0.0884258 3.14981e-19)
(0.00097093 0.0946438 -1.87178e-20)
(0.0296782 0.098603 2.43355e-19)
(0.06698 0.100333 -7.45015e-19)
(0.113454 0.0999424 4.19511e-19)
(0.169774 0.0975946 -2.22979e-19)
(0.236693 0.0934719 -5.65143e-19)
(0.314937 0.0877311 -4.14335e-19)
(0.405001 0.0804584 6.8388e-19)
(0.506827 0.0716321 -2.38377e-19)
(0.619358 0.0610951 -1.20583e-19)
(0.740133 0.0485753 9.48263e-20)
(0.864894 0.0337328 -4.96421e-19)
(0.987825 0.0161886 4.12888e-19)
(1.10204 -0.0038249 -6.70124e-20)
(1.20044 -0.0273835 5.0483e-19)
(1.27944 -0.0500368 5.88004e-19)
(1.33219 -0.0810232 -2.03325e-19)
(1.37025 -0.0961755 -4.12112e-19)
(-0.00819635 0.00959791 -8.11348e-20)
(-0.0223005 0.0262443 -3.01163e-19)
(-0.0329904 0.040532 7.7156e-21)
(-0.038627 0.0527771 -1.50939e-19)
(-0.0381268 0.0630864 -4.41404e-19)
(-0.0306414 0.0714755 -2.26211e-19)
(-0.0154616 0.0779274 1.24052e-19)
(0.00804597 0.082425 -3.82684e-19)
(0.0405007 0.0849896 3.05063e-20)
(0.0825574 0.0857035 1.85915e-19)
(0.134933 0.0847099 -5.31257e-19)
(0.198391 0.0821919 -1.74407e-19)
(0.273652 0.0783368 4.52391e-19)
(0.361214 0.0732901 3.09135e-19)
(0.461048 0.0671063 -4.04402e-19)
(0.572212 0.059713 4.4257e-19)
(0.69241 0.050876 1.87068e-19)
(0.81776 0.0402727 -5.05992e-20)
(0.942677 0.0274272 -4.06058e-20)
(1.0607 0.0121307 -4.36964e-19)
(1.16504 -0.00586765 4.81252e-20)
(1.25038 -0.0265602 -8.57765e-20)
(1.31438 -0.0475956 -4.50983e-19)
(1.35417 -0.0747695 -3.25547e-19)
(1.37864 -0.0886732 -2.99961e-19)
(-0.00885338 0.00976887 -5.07761e-20)
(-0.0233847 0.0256987 -6.64891e-19)
(-0.0338701 0.038549 -4.10259e-19)
(-0.038681 0.0489648 -5.21345e-19)
(-0.0367401 0.0572779 4.59317e-19)
(-0.0271656 0.063681 3.74045e-20)
(-0.00916935 0.0682986 3.27385e-19)
(0.0179954 0.0712217 -2.98042e-19)
(0.0550842 0.0725538 4.90604e-19)
(0.102886 0.0724365 1.82713e-19)
(0.162211 0.0710518 1.48171e-20)
(0.233812 0.068602 -2.87359e-20)
(0.318219 0.0652717 -1.0109e-19)
(0.41547 0.0611784 -8.75841e-20)
(0.524738 0.05632 9.73202e-20)
(0.643942 0.0505421 1.39423e-19)
(0.769433 0.0435042 -8.95876e-19)
(0.896029 0.0348052 5.75564e-20)
(1.01731 0.0238451 -1.51683e-19)
(1.12687 0.0105482 -1.45445e-19)
(1.21887 -0.00571771 7.23929e-20)
(1.29015 -0.0239406 -4.80746e-19)
(1.33976 -0.0439037 2.25468e-19)
(1.36808 -0.0674723 2.76418e-19)
(1.38185 -0.0813234 -6.06843e-19)
(-0.0095588 0.00998585 1.18291e-19)
(-0.0244411 0.0252932 4.8064e-19)
(-0.034477 0.0368348 4.18275e-20)
(-0.0380933 0.0455667 7.56404e-19)
(-0.0342255 0.0520385 -4.77976e-19)
(-0.0219602 0.0566207 4.65476e-19)
(-0.000428734 0.0595788 -4.14673e-19)
(0.0312275 0.0611148 1.62574e-19)
(0.0738852 0.0614178 -2.07149e-19)
(0.128426 0.0606915 2.72272e-19)
(0.195668 0.0591566 4.49238e-19)
(0.276215 0.0570287 2.32589e-19)
(0.370204 0.0544758 9.30064e-20)
(0.476965 0.051565 1.0158e-19)
(0.594633 0.0482078 -7.94117e-20)
(0.719843 0.044136 -6.31786e-20)
(0.847655 0.0388806 7.31354e-19)
(0.971956 0.031945 2.43932e-19)
(1.08614 0.0226486 6.89076e-19)
(1.18457 0.0110079 1.78008e-20)
(1.26294 -0.00381451 -4.43241e-19)
(1.32023 -0.0200159 5.54798e-19)
(1.35682 -0.0393317 6.96864e-19)
(1.37547 -0.0593952 8.43699e-20)
(1.38118 -0.0745107 5.94711e-19)
(-0.0102852 0.0102137 -3.35353e-19)
(-0.0254009 0.0249578 1.8602e-19)
(-0.0347023 0.0353109 4.08457e-19)
(-0.0367114 0.0425096 -1.6054e-19)
(-0.0303842 0.0473125 -4.74445e-19)
(-0.0147763 0.050264 -3.44146e-20)
(0.0110564 0.0517679 2.52584e-20)
(0.0480708 0.0521367 4.50469e-20)
(0.0972292 0.0516457 -2.87641e-19)
(0.159436 0.0505598 -1.20435e-19)
(0.235398 0.0491332 -4.20584e-19)
(0.325394 0.0475834 -1.04526e-20)
(0.428948 0.0460422 -1.18379e-19)
(0.544449 0.0444984 -3.66731e-20)
(0.668827 0.0427448 3.20641e-19)
(0.797442 0.0403708 -4.74414e-19)
(0.924333 0.0367709 2.0103e-19)
(1.04299 0.0313565 -3.25724e-19)
(1.14732 0.0234287 -4.94579e-19)
(1.23296 0.0130675 8.82886e-20)
(1.2975 -0.000567549 9.29924e-19)
(1.3417 -0.0152173 -4.74214e-19)
(1.36705 -0.0340567 1.53477e-20)
(1.37773 -0.0506333 3.9158e-19)
(1.37755 -0.0686281 2.15073e-19)
(-0.0110009 0.0104174 1.57916e-19)
(-0.0261878 0.0246209 -2.24376e-19)
(-0.0344327 0.0338916 -4.74971e-19)
(-0.0343849 0.0397073 -2.51883e-19)
(-0.02503 0.0430246 2.74269e-19)
(-0.00539569 0.0445535 9.33087e-20)
(0.0255249 0.0448307 5.395e-19)
(0.0687584 0.0442769 2.17208e-19)
(0.125296 0.0432504 1.35945e-19)
(0.195964 0.0420722 6.38924e-20)
(0.281211 0.0410209 4.36324e-19)
(0.380793 0.0402981 1.97476e-19)
(0.493397 0.0399738 -1.63668e-19)
(0.616297 0.039926 2.34803e-19)
(0.745167 0.039798 -1.36827e-19)
(0.874266 0.039018 1.76387e-19)
(0.997055 0.0368534 -1.74094e-19)
(1.10724 0.0326528 -3.78794e-19)
(1.19982 0.0257647 5.57245e-19)
(1.27207 0.0163263 -5.90672e-19)
(1.32341 0.00365891 1.62623e-19)
(1.35594 -0.00988742 -1.93322e-19)
(1.37204 -0.0280693 -1.45356e-19)
(1.37608 -0.0414308 -1.16391e-18)
(1.37143 -0.0642323 1.7139e-19)
(-0.0116712 0.0105643 3.22475e-20)
(-0.026721 0.0242127 1.60735e-19)
(-0.0335536 0.0324894 5.32738e-19)
(-0.0309708 0.0370679 -1.2561e-19)
(-0.0179955 0.0390876 -5.44809e-20)
(0.00636316 0.039413 1.01404e-19)
(0.0431528 0.0387069 9.00003e-20)
(0.0934246 0.0374925 -3.48949e-19)
(0.158118 0.0362058 -1.61465e-19)
(0.23786 0.0352148 -4.95704e-19)
(0.332663 0.0348067 -3.72691e-19)
(0.441559 0.0351445 -2.65198e-19)
(0.562212 0.0362045 2.38201e-19)
(0.690676 0.037719 -3.48986e-19)
(0.821466 0.0391564 -1.69385e-19)
(0.948078 0.0397815 -7.43192e-20)
(1.06394 0.0387651 -5.58363e-20)
(1.16355 0.0354422 1.13178e-18)
(1.2434 0.0292672 6.77675e-20)
(1.3025 0.0204487 -9.9763e-20)
(1.34183 0.00854961 -5.65619e-19)
(1.36444 -0.00424328 1.8084e-19)
(1.37326 -0.0213498 1.99738e-20)
(1.37201 -0.032703 6.52554e-19)
(1.36322 -0.0615393 6.31212e-20)
(-0.0122605 0.0106255 2.54727e-19)
(-0.0269174 0.0236685 -2.45212e-19)
(-0.0319529 0.0310216 -3.7219e-19)
(-0.0263349 0.0344999 3.73188e-19)
(-0.00913396 0.0354097 -8.2514e-20)
(0.0206439 0.0347575 -7.10531e-20)
(0.0640539 0.0333227 6.26698e-20)
(0.12211 0.0317236 -8.84787e-20)
(0.195598 0.0304646 2.20217e-19)
(0.284797 0.0299473 1.4159e-19)
(0.389104 0.0304464 3.68069e-19)
(0.506628 0.0320556 -9.90735e-21)
(0.633878 0.0346203 3.02518e-19)
(0.765704 0.0376944 -2.05009e-20)
(0.895695 0.0405578 3.25811e-19)
(1.01705 0.0423313 9.60738e-20)
(1.12371 0.0421388 -6.19793e-19)
(1.21145 0.0393612 -3.06343e-19)
(1.27842 0.0336037 -7.86419e-20)
(1.32522 0.0251676 2.01484e-19)
(1.35407 0.0138537 -9.18336e-20)
(1.36854 0.00162607 -3.3407e-19)
(1.37174 -0.0142106 4.72104e-20)
(1.3667 -0.0254576 -3.047e-19)
(1.35711 -0.0482727 -1.4603e-19)
(-0.0127344 0.0105774 1.5608e-19)
(-0.0266969 0.0229361 1.6681e-19)
(-0.0295205 0.0294141 3.05413e-19)
(-0.0203535 0.0319184 -2.22207e-19)
(0.00168091 0.0319042 1.66233e-20)
(0.0375549 0.0305046 4.42384e-19)
(0.088286 0.0286048 -1.26183e-19)
(0.154771 0.0269086 -4.19427e-19)
(0.237524 0.0259757 -2.47176e-19)
(0.336311 0.0262222 3.29196e-19)
(0.449724 0.0278819 -6.84389e-19)
(0.574795 0.0309409 2.55747e-21)
(0.706818 0.0350746 -5.81061e-20)
(0.839581 0.0396324 4.35433e-19)
(0.966116 0.0437116 -2.38453e-19)
(1.07983 0.0463306 3.27913e-19)
(1.1757 0.0466296 3.33945e-19)
(1.25103 0.0440941 -5.89716e-19)
(1.30561 0.0385088 -2.49613e-19)
(1.34138 0.0302776 -2.04216e-19)
(1.36138 0.019403 3.11975e-19)
(1.36939 0.00767931 4.86626e-19)
(1.36832 -0.00717348 2.21931e-19)
(1.36095 -0.0175301 -1.96144e-19)
(1.35024 -0.0390212 -3.39408e-19)
(-0.0130593 0.0104037 -3.69226e-20)
(-0.0259836 0.021974 1.56539e-19)
(-0.0261534 0.0276055 -3.10699e-19)
(-0.0129119 0.0292539 -4.76362e-19)
(0.0145571 0.0284988 -7.03675e-19)
(0.057174 0.0265858 1.20329e-19)
(0.115859 0.0244941 -1.40176e-19)
(0.191298 0.0229993 2.04583e-19)
(0.283592 0.0226995 7.52932e-20)
(0.391822 0.0239987 1.46934e-19)
(0.513604 0.0270527 1.60424e-19)
(0.644783 0.0316962 -8.98114e-20)
(0.779484 0.0373969 -1.28494e-19)
(0.910701 0.0432892 -2.90239e-19)
(1.03136 0.0483167 8.86256e-20)
(1.13561 0.0514572 -3.48661e-19)
(1.21977 0.0519332 1.27915e-19)
(1.2828 0.0493828 8.64058e-20)
(1.32596 0.0437816 -3.4567e-19)
(1.35217 0.0356313 -3.68291e-19)
(1.36492 0.0251004 -1.97229e-19)
(1.3679 0.0137954 1.11451e-20)
(1.36374 -0.0001131 5.88293e-20)
(1.35479 -0.0100866 -1.88405e-19)
(1.3436 -0.0296001 1.43597e-19)
(-0.0132039 0.0100943 2.40139e-21)
(-0.024703 0.0207538 -4.3018e-19)
(-0.0217562 0.0255551 5.48781e-19)
(-0.00390608 0.0264573 5.86395e-19)
(0.0295869 0.0251437 3.49416e-19)
(0.0795533 0.0229571 -1.19197e-20)
(0.146745 0.0209563 -1.26428e-19)
(0.231523 0.0199725 -1.73469e-19)
(0.333423 0.0206178 3.15162e-19)
(0.450669 0.0232496 -7.62614e-19)
(0.579754 0.0278996 7.67995e-20)
(0.7153 0.0342044 7.04955e-19)
(0.850433 0.0413966 9.93991e-20)
(0.97772 0.0484071 -1.99949e-19)
(1.09048 0.054078 3.61734e-19)
(1.184 0.0574188 4.02498e-19)
(1.25619 0.0577949 1.01501e-19)
(1.30755 0.055028 7.43189e-19)
(1.34054 0.0492792 5.65154e-19)
(1.35869 0.0411323 3.25464e-19)