/*--------------------------------*- C++ -*----------------------------------*\
  =========                 |
  \\      /  F ield         | OpenFOAM: The Open Source CFD Toolbox
   \\    /   O peration     | Website:  https://openfoam.org
    \\  /    A nd           | Version:  7
     \\/     M anipulation  |
\*---------------------------------------------------------------------------*/
FoamFile
{
    version     2.0;
    format      ascii;
    class       volScalarField;
    location    "5";
    object      p;
}
// * * * * * * * * * * * * * * * * * * * * * * * * * * * * * * * * * * * * * //

dimensions      [0 2 -2 0 0 0 0];

internalField   nonuniform List<scalar> 
31800
(
-0.318859
-0.324295
-0.327243
-0.3299
-0.332783
-0.336126
-0.340157
-0.34501
-0.350754
-0.357415
-0.364979
-0.373395
-0.38257
-0.392361
-0.402564
-0.41291
-0.423053
-0.432571
-0.440963
-0.447662
-0.452051
-0.453488
-0.451284
-0.444799
-0.43385
-0.319455
-0.324793
-0.3277
-0.330334
-0.3332
-0.336534
-0.340561
-0.345414
-0.351163
-0.357833
-0.365412
-0.373851
-0.383056
-0.392887
-0.40314
-0.413549
-0.423767
-0.433375
-0.441872
-0.448689
-0.453208
-0.454791
-0.452745
-0.446389
-0.435581
-0.320628
-0.325772
-0.3286
-0.331185
-0.334019
-0.337333
-0.34135
-0.346202
-0.351959
-0.358646
-0.366254
-0.374734
-0.383996
-0.393901
-0.404249
-0.414775
-0.425137
-0.434914
-0.443609
-0.450651
-0.455417
-0.45727
-0.455525
-0.449416
-0.438844
-0.322341
-0.327201
-0.329913
-0.332425
-0.335209
-0.338493
-0.342493
-0.34734
-0.353103
-0.359811
-0.367455
-0.375989
-0.385327
-0.395331
-0.405808
-0.416493
-0.427049
-0.437057
-0.446022
-0.45337
-0.458474
-0.460694
-0.459359
-0.453603
-0.443278
-0.32454
-0.329035
-0.331594
-0.33401
-0.336727
-0.339966
-0.343939
-0.348774
-0.35454
-0.361267
-0.368947
-0.377539
-0.38696
-0.397077
-0.407699
-0.418567
-0.429347
-0.439623
-0.448901
-0.456607
-0.462107
-0.464753
-0.463894
-0.458595
-0.448431
-0.327158
-0.331217
-0.33359
-0.335886
-0.338517
-0.341697
-0.34563
-0.350441
-0.356199
-0.362935
-0.370645
-0.379289
-0.388788
-0.399014
-0.409782
-0.420835
-0.431844
-0.442397
-0.452
-0.460082
-0.466001
-0.469096
-0.468733
-0.463996
-0.45383
-0.330119
-0.333683
-0.33584
-0.337993
-0.340518
-0.343621
-0.347497
-0.352267
-0.358001
-0.36473
-0.372451
-0.381128
-0.390688
-0.401005
-0.411899
-0.423118
-0.434337
-0.445146
-0.455056
-0.463496
-0.469824
-0.473361
-0.473461
-0.469399
-0.459023
-0.333338
-0.336363
-0.338278
-0.340266
-0.342664
-0.345669
-0.349467
-0.354175
-0.359861
-0.366556
-0.374262
-0.382944
-0.392532
-0.402906
-0.413888
-0.425234
-0.436619
-0.44764
-0.457809
-0.466561
-0.473255
-0.477205
-0.477689
-0.474459
-0.46353
-0.336728
-0.339184
-0.340837
-0.342639
-0.344887
-0.347772
-0.351466
-0.356084
-0.361691
-0.368322
-0.375976
-0.384623
-0.394196
-0.404578
-0.415596
-0.427009
-0.438499
-0.449665
-0.460025
-0.469017
-0.476006
-0.480327
-0.481089
-0.478945
-0.467137
-0.340202
-0.342076
-0.343451
-0.345048
-0.347124
-0.349862
-0.353423
-0.357918
-0.363412
-0.369936
-0.377494
-0.386058
-0.395561
-0.405892
-0.416881
-0.428291
-0.439809
-0.451039
-0.461504
-0.470653
-0.477842
-0.482491
-0.483412
-0.481793
-0.470242
-0.34368
-0.344973
-0.346059
-0.347434
-0.349316
-0.351879
-0.355275
-0.359609
-0.364947
-0.371319
-0.378731
-0.387154
-0.396527
-0.406739
-0.417626
-0.428954
-0.440418
-0.451624
-0.462102
-0.471318
-0.478607
-0.483509
-0.484508
-0.483498
-0.471928
-0.347085
-0.347815
-0.348608
-0.349746
-0.351412
-0.353771
-0.356966
-0.361099
-0.366234
-0.372404
-0.379613
-0.387836
-0.397012
-0.407036
-0.417745
-0.42891
-0.440237
-0.45133
-0.461732
-0.470926
-0.478215
-0.483309
-0.484253
-0.48391
-0.472123
-0.350354
-0.350551
-0.351053
-0.351944
-0.353372
-0.355497
-0.358455
-0.362343
-0.367226
-0.373139
-0.380088
-0.388048
-0.396962
-0.406727
-0.417185
-0.428113
-0.439217
-0.45012
-0.460365
-0.469463
-0.476663
-0.481891
-0.482662
-0.482934
-0.470862
-0.353432
-0.353141
-0.35336
-0.353995
-0.355167
-0.35703
-0.359711
-0.36331
-0.367892
-0.373493
-0.380123
-0.38776
-0.396348
-0.405788
-0.415927
-0.426549
-0.437364
-0.44801
-0.458031
-0.466974
-0.474011
-0.479319
-0.47983
-0.480612
-0.468203
-0.356277
-0.355553
-0.355503
-0.35588
-0.35678
-0.358353
-0.360722
-0.363987
-0.368217
-0.373454
-0.379709
-0.386965
-0.395169
-0.404227
-0.413991
-0.42425
-0.434724
-0.445062
-0.454809
-0.463551
-0.470374
-0.475703
-0.475896
-0.477031
-0.464243
-0.358862
-0.357769
-0.357468
-0.357588
-0.358203
-0.359462
-0.361485
-0.364375
-0.368208
-0.373031
-0.378861
-0.385685
-0.393456
-0.402084
-0.411428
-0.421285
-0.431382
-0.441378
-0.450818
-0.459329
-0.465898
-0.471175
-0.471016
-0.47229
-0.459096
-0.361174
-0.35978
-0.359251
-0.359118
-0.359442
-0.360366
-0.362013
-0.364492
-0.367886
-0.372251
-0.377612
-0.383963
-0.391263
-0.399427
-0.408322
-0.417752
-0.427451
-0.437088
-0.446204
-0.454457
-0.460743
-0.465871
-0.465336
-0.466472
-0.452874
-0.363209
-0.361587
-0.360856
-0.36048
-0.360507
-0.361082
-0.36233
-0.364367
-0.367289
-0.371161
-0.376019
-0.381866
-0.388667
-0.396348
-0.404779
-0.413773
-0.423068
-0.432342
-0.441123
-0.449086
-0.455057
-0.459912
-0.458972
-0.459643
-0.445671
-0.364978
-0.3632
-0.362295
-0.361688
-0.36142
-0.361636
-0.362467
-0.364041
-0.366466
-0.36982
-0.374152
-0.379475
-0.385766
-0.392955
-0.400921
-0.409482
-0.418378
-0.427287
-0.435724
-0.443357
-0.448962
-0.453391
-0.451996
-0.451862
-0.437553
-0.366502
-0.364638
-0.363587
-0.362763
-0.362205
-0.362059
-0.362465
-0.363563
-0.365475
-0.368298
-0.372093
-0.376887
-0.382665
-0.389368
-0.39688
-0.405019
-0.413525
-0.422066
-0.430136
-0.437379
-0.442542
-0.446369
-0.444434
-0.4432
-0.428584
-0.367812
-0.365925
-0.364756
-0.363732
-0.362892
-0.362387
-0.362367
-0.362986
-0.364383
-0.366672
-0.369931
-0.374201
-0.379478
-0.38571
-0.392783
-0.400516
-0.408635
-0.416794
-0.424459
-0.431226
-0.435837
-0.438876
-0.436285
-0.43375
-0.418848
-0.368948
-0.367095
-0.365832
-0.364624
-0.363514
-0.362659
-0.36222
-0.362365
-0.363255
-0.36502
-0.367756
-0.371519
-0.376315
-0.382097
-0.388751
-0.396086
-0.403815
-0.411559
-0.418754
-0.424931
-0.428851
-0.430927
-0.427546
-0.423634
-0.408473
-0.369956
-0.368182
-0.366848
-0.365472
-0.364106
-0.362914
-0.362069
-0.361759
-0.362159
-0.36342
-0.365657
-0.368937
-0.373277
-0.378631
-0.384882
-0.391822
-0.399138
-0.406412
-0.413043
-0.418493
-0.421567
-0.422526
-0.418244
-0.412998
-0.397625
-0.37089
-0.369228
-0.367839
-0.366309
-0.364703
-0.363192
-0.361963
-0.36122
-0.361157
-0.361944
-0.363712
-0.36654
-0.370451
-0.3754
-0.381254
-0.387785
-0.394645
-0.401367
-0.407316
-0.411886
-0.413966
-0.413692
-0.408449
-0.402003
-0.386488
-0.371806
-0.370277
-0.368845
-0.367173
-0.365343
-0.363533
-0.361946
-0.3608
-0.360309
-0.360658
-0.361991
-0.3644
-0.367909
-0.372465
-0.377918
-0.384007
-0.390345
-0.39641
-0.401541
-0.405078
-0.406043
-0.404466
-0.398273
-0.390814
-0.375248
-0.372764
-0.371373
-0.369903
-0.3681
-0.366061
-0.363977
-0.362061
-0.360548
-0.359665
-0.359615
-0.360551
-0.362572
-0.3657
-0.369866
-0.374897
-0.380491
-0.386217
-0.391504
-0.395677
-0.398047
-0.397814
-0.394913
-0.387858
-0.379584
-0.364065
-0.373821
-0.372561
-0.371054
-0.369127
-0.366896
-0.36456
-0.362347
-0.360503
-0.35927
-0.35886
-0.359435
-0.361094
-0.363851
-0.367617
-0.372185
-0.377212
-0.38222
-0.3866
-0.389688
-0.390793
-0.389324
-0.385117
-0.377331
-0.368392
-0.353046
-0.375037
-0.373887
-0.372337
-0.37029
-0.36788
-0.365317
-0.362838
-0.360701
-0.359156
-0.358424
-0.358669
-0.359984
-0.362369
-0.365708
-0.369756
-0.374126
-0.378303
-0.381656
-0.383554
-0.383343
-0.380641
-0.375181
-0.366785
-0.357164
-0.342197
-0.376464
-0.375391
-0.373789
-0.371622
-0.369046
-0.366277
-0.363562
-0.361167
-0.359347
-0.358325
-0.358262
-0.359241
-0.361239
-0.364108
-0.367564
-0.371179
-0.374412
-0.376637
-0.377278
-0.375752
-0.371858
-0.365246
-0.356296
-0.345693
-0.331408
-0.378151
-0.377112
-0.375442
-0.373154
-0.370421
-0.367465
-0.364541
-0.361919
-0.359855
-0.358567
-0.358209
-0.358847
-0.360429
-0.362773
-0.365553
-0.368312
-0.370502
-0.371527
-0.370883
-0.36809
-0.36308
-0.355482
-0.346
-0.334053
-0.320498
-0.380137
-0.379082
-0.377327
-0.374912
-0.372026
-0.368899
-0.365789
-0.362965
-0.360679
-0.359142
-0.358492
-0.358771
-0.359895
-0.361646
-0.363663
-0.365472
-0.36654
-0.366324
-0.364411
-0.360431
-0.35441
-0.346023
-0.336071
-0.323196
-0.309582
-0.382454
-0.381329
-0.379465
-0.376915
-0.373879
-0.370592
-0.367312
-0.364304
-0.361812
-0.360031
-0.359081
-0.358971
-0.359585
-0.360667
-0.361835
-0.362613
-0.362504
-0.361042
-0.357909
-0.352845
-0.345936
-0.336928
-0.326544
-0.313509
-0.300274
-0.385125
-0.383875
-0.381877
-0.379179
-0.37599
-0.372548
-0.369109
-0.365929
-0.363237
-0.361209
-0.359937
-0.359398
-0.35944
-0.359777
-0.360015
-0.3597
-0.358389
-0.355706
-0.351428
-0.345391
-0.337722
-0.328224
-0.317557
-0.304584
-0.291639
-0.388167
-0.386734
-0.384576
-0.381715
-0.378366
-0.374771
-0.371177
-0.367826
-0.364932
-0.362644
-0.36102
-0.360002
-0.359404
-0.35892
-0.358159
-0.356708
-0.354197
-0.350344
-0.345011
-0.338117
-0.329806
-0.31993
-0.30908
-0.296261
-0.283725
-0.39159
-0.389917
-0.38757
-0.38453
-0.381011
-0.377257
-0.373506
-0.369982
-0.366875
-0.364303
-0.362286
-0.360731
-0.359422
-0.358044
-0.356231
-0.353625
-0.34994
-0.344985
-0.338697
-0.331053
-0.322204
-0.312034
-0.301075
-0.288448
-0.276257
-0.395396
-0.39343
-0.390867
-0.387627
-0.383925
-0.380004
-0.376088
-0.372381
-0.369042
-0.366151
-0.363693
-0.361535
-0.359442
-0.357107
-0.354204
-0.350446
-0.345632
-0.339655
-0.332511
-0.324215
-0.314914
-0.304516
-0.293491
-0.281056
-0.26917
-0.399584
-0.397275
-0.39447
-0.39101
-0.387109
-0.383009
-0.378916
-0.375008
-0.371408
-0.368157
-0.365197
-0.362365
-0.35942
-0.356075
-0.352062
-0.347173
-0.341291
-0.334377
-0.326468
-0.317606
-0.307923
-0.297343
-0.286279
-0.274025
-0.262394
-0.404149
-0.401455
-0.398381
-0.394681
-0.390564
-0.38627
-0.381983
-0.377849
-0.373951
-0.370286
-0.366756
-0.363178
-0.359314
-0.354919
-0.349794
-0.343813
-0.33693
-0.329164
-0.320576
-0.31122
-0.301209
-0.290481
-0.279391
-0.267301
-0.255885
-0.409087
-0.405968
-0.402602
-0.398642
-0.394293
-0.389787
-0.385283
-0.380891
-0.376648
-0.372505
-0.368331
-0.363931
-0.35909
-0.353621
-0.347398
-0.340373
-0.332563
-0.324024
-0.314832
-0.305043
-0.294747
-0.283893
-0.272783
-0.260841
-0.249606
-0.414391
-0.410813
-0.407135
-0.402897
-0.398298
-0.39356
-0.388813
-0.384121
-0.379475
-0.374781
-0.369882
-0.364587
-0.358722
-0.352166
-0.344872
-0.336861
-0.328197
-0.31896
-0.309228
-0.299054
-0.288508
-0.277543
-0.266415
-0.254605
-0.243523
-0.420056
-0.415989
-0.41198
-0.407448
-0.402582
-0.397591
-0.392565
-0.387523
-0.382404
-0.377077
-0.371369
-0.365113
-0.358188
-0.350548
-0.342221
-0.333284
-0.323835
-0.313966
-0.303751
-0.293232
-0.282462
-0.271398
-0.260252
-0.248559
-0.237607
-0.426073
-0.421492
-0.417139
-0.4123
-0.407149
-0.401877
-0.396531
-0.391078
-0.385407
-0.379357
-0.372758
-0.36548
-0.357471
-0.348762
-0.339446
-0.329646
-0.319478
-0.309035
-0.298383
-0.287553
-0.276579
-0.265425
-0.25426
-0.242673
-0.231831
-0.432434
-0.427319
-0.42261
-0.417452
-0.411998
-0.406414
-0.400697
-0.394761
-0.388449
-0.381583
-0.374012
-0.365662
-0.356558
-0.346805
-0.336551
-0.325948
-0.31512
-0.304155
-0.293105
-0.281991
-0.270832
-0.259594
-0.24841
-0.236917
-0.226173
-0.439131
-0.433463
-0.42839
-0.422902
-0.417125
-0.411192
-0.405045
-0.398543
-0.391493
-0.383715
-0.375098
-0.365639
-0.355441
-0.344677
-0.333536
-0.322187
-0.310752
-0.29931
-0.287896
-0.276522
-0.265193
-0.253877
-0.242673
-0.231269
-0.220608
-0.446149
-0.439915
-0.434473
-0.428646
-0.422522
-0.416196
-0.409549
-0.402387
-0.394496
-0.385713
-0.375986
-0.365391
-0.354113
-0.342376
-0.330401
-0.318359
-0.306365
-0.294483
-0.282736
-0.271122
-0.259636
-0.248247
-0.237026
-0.225703
-0.215117
-0.453471
-0.446662
-0.440848
-0.434671
-0.428174
-0.421401
-0.414173
-0.406251
-0.397414
-0.387539
-0.376647
-0.364905
-0.352566
-0.3399
-0.32714
-0.314455
-0.301945
-0.289658
-0.277602
-0.265767
-0.254137
-0.242681
-0.231444
-0.220199
-0.209681
-0.461076
-0.453684
-0.447498
-0.440961
-0.434056
-0.426775
-0.418876
-0.410086
-0.400199
-0.389152
-0.377056
-0.364165
-0.350794
-0.337243
-0.323748
-0.310465
-0.297477
-0.284814
-0.272473
-0.260435
-0.248672
-0.237156
-0.225906
-0.214737
-0.204282
-0.468934
-0.460959
-0.4544
-0.447489
-0.440139
-0.432278
-0.423609
-0.41384
-0.402803
-0.390515
-0.377189
-0.363159
-0.34879
-0.3344
-0.320215
-0.306375
-0.292943
-0.279933
-0.26733
-0.255103
-0.24322
-0.23165
-0.220393
-0.209299
-0.198903
-0.477011
-0.468454
-0.461525
-0.454224
-0.446381
-0.43786
-0.428314
-0.417456
-0.405176
-0.391593
-0.377022
-0.361872
-0.346546
-0.331361
-0.316531
-0.302172
-0.288328
-0.274996
-0.26215
-0.249751
-0.237761
-0.226145
-0.214887
-0.203869
-0.193531
-0.485265
-0.476134
-0.468835
-0.461123
-0.452733
-0.443464
-0.432931
-0.420874
-0.407269
-0.392351
-0.376534
-0.360293
-0.34405
-0.328115
-0.312682
-0.29784
-0.283613
-0.269984
-0.256915
-0.24436
-0.232275
-0.220622
-0.209369
-0.198429
-0.188149
-0.493645
-0.483951
-0.476286
-0.468137
-0.459137
-0.449023
-0.43739
-0.424032
-0.409034
-0.392754
-0.375703
-0.358406
-0.34129
-0.324651
-0.308653
-0.293362
-0.278781
-0.264878
-0.251606
-0.238912
-0.226745
-0.215065
-0.203826
-0.192967
-0.182746
-0.502094
-0.491855
-0.483822
-0.475207
-0.465527
-0.454465
-0.441621
-0.426869
-0.410424
-0.392772
-0.37451
-0.356196
-0.338254
-0.320954
-0.30443
-0.288722
-0.273814
-0.259661
-0.246205
-0.233388
-0.221155
-0.209457
-0.198242
-0.187468
-0.17731
-0.510546
-0.499784
-0.491384
-0.482264
-0.471827
-0.459713
-0.445551
-0.429324
-0.411395
-0.392374
-0.372932
-0.353647
-0.334927
-0.317008
-0.299994
-0.283901
-0.268693
-0.254313
-0.240695
-0.227774
-0.215487
-0.203784
-0.192603
-0.18192
-0.171829
-0.51893
-0.50767
-0.498899
-0.489233
-0.477957
-0.464684
-0.449104
-0.431336
-0.411902
-0.391529
-0.370949
-0.350742
-0.33129
-0.312796
-0.29533
-0.278883
-0.263403
-0.24882
-0.235061
-0.222052
-0.209729
-0.198033
-0.186898
-0.176311
-0.166294
-0.527164
-0.515438
-0.506292
-0.496032
-0.483829
-0.469293
-0.452206
-0.432849
-0.411904
-0.390211
-0.368539
-0.347463
-0.327329
-0.308302
-0.29042
-0.273651
-0.257926
-0.243165
-0.229286
-0.21621
-0.203867
-0.192191
-0.181114
-0.170632
-0.160694
-0.535163
-0.523005
-0.513476
-0.50257
-0.489351
-0.473454
-0.454785
-0.433806
-0.411363
-0.388389
-0.365682
-0.34379
-0.323024
-0.303507
-0.285247
-0.268187
-0.252246
-0.237333
-0.223356
-0.210233
-0.197887
-0.186247
-0.175242
-0.164871
-0.155022
-0.542836
-0.530283
-0.520361
-0.508752
-0.494429
-0.47708
-0.456768
-0.434154
-0.41024
-0.386039
-0.362354
-0.339706
-0.318358
-0.298394
-0.279793
-0.262476
-0.246349
-0.231309
-0.217259
-0.20411
-0.191779
-0.18019
-0.169272
-0.15902
-0.149271
-0.550084
-0.537178
-0.526851
-0.514479
-0.498966
-0.480085
-0.45809
-0.433845
-0.408501
-0.383133
-0.358536
-0.33519
-0.313312
-0.292946
-0.274042
-0.256503
-0.240219
-0.22508
-0.210982
-0.197828
-0.185532
-0.174011
-0.163194
-0.153072
-0.143433
-0.556808
-0.543592
-0.532844
-0.51965
-0.502865
-0.482388
-0.458684
-0.432831
-0.406113
-0.379646
-0.354205
-0.330223
-0.307868
-0.287146
-0.267978
-0.250251
-0.233843
-0.218634
-0.204513
-0.191377
-0.179136
-0.167701
-0.157
-0.147018
-0.137503
-0.562905
-0.549423
-0.538237
-0.524161
-0.506032
-0.483907
-0.458491
-0.43107
-0.403045
-0.375554
-0.349342
-0.324787
-0.302009
-0.280976
-0.261587
-0.243709
-0.227209
-0.21196
-0.197842
-0.184749
-0.172583
-0.161252
-0.150685
-0.140854
-0.131478
-0.568269
-0.554569
-0.542926
-0.52791
-0.508373
-0.48457
-0.457456
-0.428523
-0.399267
-0.370835
-0.343926
-0.318863
-0.295717
-0.274424
-0.254854
-0.236863
-0.220306
-0.205047
-0.19096
-0.177934
-0.165866
-0.154658
-0.144241
-0.134574
-0.125355
-0.572797
-0.558924
-0.546806
-0.530795
-0.509802
-0.484305
-0.455528
-0.425153
-0.394754
-0.365467
-0.337939
-0.312435
-0.288979
-0.267473
-0.247767
-0.229703
-0.213123
-0.197886
-0.183859
-0.170925
-0.158977
-0.147912
-0.137664
-0.128177
-0.119137
-0.576383
-0.562385
-0.549772
-0.53272
-0.510234
-0.483049
-0.452661
-0.420928
-0.389482
-0.359431
-0.331364
-0.305487
-0.281779
-0.260111
-0.240315
-0.222217
-0.205653
-0.19047
-0.176532
-0.163716
-0.15191
-0.141008
-0.130947
-0.12166
-0.112822
-0.578928
-0.56485
-0.551725
-0.533592
-0.509592
-0.480744
-0.448816
-0.415821
-0.383429
-0.352709
-0.324185
-0.298004
-0.274105
-0.252328
-0.232488
-0.214399
-0.197886
-0.182792
-0.168973
-0.156302
-0.144662
-0.133941
-0.124086
-0.115013
-0.10638
-0.580333
-0.566221
-0.552567
-0.533324
-0.507807
-0.47734
-0.443957
-0.409808
-0.376577
-0.345285
-0.316387
-0.289975
-0.265945
-0.244114
-0.224278
-0.20624
-0.189818
-0.174847
-0.161178
-0.148679
-0.137228
-0.126711
-0.117079
-0.108218
-0.0997412
-0.580505
-0.566404
-0.552209
-0.531836
-0.504817
-0.472793
-0.438055
-0.402867
-0.368911
-0.337146
-0.30796
-0.281389
-0.257291
-0.235461
-0.215678
-0.197735
-0.181443
-0.16663
-0.153143
-0.140844
-0.129606
-0.119316
-0.109928
-0.101274
-0.0928788
-0.579359
-0.565312
-0.550566
-0.529057
-0.500566
-0.467066
-0.431086
-0.394983
-0.360418
-0.328282
-0.298894
-0.272237
-0.248136
-0.226362
-0.206683
-0.188881
-0.172759
-0.15814
-0.144866
-0.132796
-0.121797
-0.111756
-0.10263
-0.0941963
-0.0860776
-0.576813
-0.562864
-0.547564
-0.524923
-0.49501
-0.46013
-0.423032
-0.386143
-0.351088
-0.318684
-0.289182
-0.262515
-0.238475
-0.216815
-0.19729
-0.179674
-0.163763
-0.149375
-0.136347
-0.124534
-0.113801
-0.104034
-0.0951848
-0.0869887
-0.0791883
-0.572797
-0.558987
-0.543134
-0.51938
-0.488112
-0.451962
-0.413881
-0.376341
-0.340916
-0.308348
-0.27882
-0.252218
-0.228305
-0.206817
-0.187499
-0.170115
-0.154456
-0.140335
-0.127588
-0.11606
-0.105617
-0.0961476
-0.0875941
-0.0796592
-0.0721833
-0.567249
-0.553616
-0.537219
-0.512385
-0.479844
-0.442548
-0.403626
-0.365572
-0.3299
-0.297273
-0.267807
-0.241345
-0.217626
-0.196369
-0.177308
-0.160204
-0.14484
-0.131024
-0.118588
-0.107376
-0.0972486
-0.0880993
-0.0798614
-0.0722067
-0.065061
-0.560115
-0.546699
-0.529771
-0.503905
-0.470187
-0.43188
-0.392264
-0.353837
-0.318042
-0.285459
-0.256143
-0.229898
-0.206439
-0.185472
-0.166723
-0.149946
-0.134917
-0.121443
-0.109351
-0.0984846
-0.0886988
-0.0798923
-0.0719898
-0.0646312
-0.0578276
-0.551352
-0.538191
-0.520756
-0.493914
-0.459131
-0.419957
-0.379801
-0.341142
-0.305345
-0.27291
-0.243833
-0.217881
-0.194749
-0.174134
-0.155749
-0.139344
-0.124693
-0.111598
-0.0998832
-0.0893899
-0.0799719
-0.071531
-0.0639829
-0.0569348
-0.0504892
-0.540929
-0.528058
-0.510145
-0.482401
-0.446674
-0.406787
-0.366245
-0.327496
-0.29182
-0.259636
-0.230884
-0.205299
-0.182569
-0.162359
-0.14439
-0.128404
-0.114173
-0.101494
-0.090189
-0.0800979
-0.0710732
-0.0630205
-0.0558451
-0.0491219
-0.0430516
-0.528825
-0.516279
-0.497926
-0.469363
-0.432824
-0.39238
-0.351611
-0.312915
-0.277479
-0.245647
-0.217308
-0.192172
-0.169898
-0.150156
-0.132656
-0.117136
-0.103365
-0.0911382
-0.0802761
-0.0706156
-0.0620094
-0.0543671
-0.0475821
-0.041198
-0.0355206
-0.515029
-0.502843
-0.484094
-0.454805
-0.417597
-0.376759
-0.33592
-0.297415
-0.262338
-0.230958
-0.203121
-0.178503
-0.156754
-0.137538
-0.120558
-0.10555
-0.0922794
-0.0805409
-0.0701531
-0.060951
-0.052788
-0.0455779
-0.0392005
-0.0331697
-0.0279029
-0.499543
-0.48775
-0.468656
-0.438745
-0.401015
-0.359948
-0.319197
-0.281021
-0.246419
-0.215591
-0.188335
-0.16431
-0.14315
-0.124517
-0.108108
-0.0936566
-0.080927
-0.0697121
-0.0598297
-0.0511134
-0.043418
-0.0366611
-0.0307079
-0.0250448
-0.0202054
-0.482379
-0.471011
-0.45163
-0.421209
-0.383111
-0.341981
-0.301473
-0.263757
-0.229745
-0.199563
-0.172972
-0.149611
-0.129104
-0.11111
-0.0953212
-0.0814703
-0.0693204
-0.0586637
-0.049317
-0.0411134
-0.0339091
-0.027626
-0.022113
-0.0168319
-0.0124361
-0.46356
-0.452649
-0.433045
-0.402231
-0.363923
-0.322899
-0.282787
-0.245653
-0.212343
-0.182901
-0.157055
-0.134427
-0.114636
-0.0973336
-0.0822138
-0.0690063
-0.0574739
-0.0474088
-0.0386273
-0.0309624
-0.0242724
-0.0184829
-0.0134257
-0.00854078
-0.00460363
-0.443121
-0.432696
-0.412938
-0.381855
-0.343501
-0.302742
-0.263162
-0.226755
-0.194246
-0.165633
-0.14061
-0.118783
-0.0997656
-0.0832089
-0.0688042
-0.0562814
-0.0454031
-0.0359619
-0.0277743
-0.0206731
-0.0145198
-0.00924292
-0.00465646
-0.000182165
0.00328221
-0.421105
-0.411194
-0.391357
-0.360137
-0.321899
-0.281546
-0.242658
-0.207093
-0.175489
-0.147791
-0.123664
-0.102703
-0.0845181
-0.0687573
-0.0551126
-0.0433141
-0.033125
-0.0243387
-0.0167723
-0.0102593
-0.00466427
8.17337e-05
0.00418309
0.00823217
0.0112104
-0.397565
-0.388196
-0.36836
-0.33715
-0.299165
-0.259367
-0.221317
-0.186712
-0.15611
-0.129409
-0.10625
-0.086218
-0.0689192
-0.0540028
-0.0411608
-0.0301243
-0.020658
-0.0125562
-0.00563715
0.000264505
0.00528026
0.00947796
0.0130804
0.016689
0.0191687
-0.37256
-0.363766
-0.34402
-0.312953
-0.275317
-0.236294
-0.199196
-0.165659
-0.136152
-0.110526
-0.0884019
-0.0693573
-0.0529971
-0.0389709
-0.0269723
-0.0167336
-0.00802156
-0.000632249
0.00561465
0.0108827
0.0152991
0.0189318
0.0220217
0.0251729
0.0271426
-0.346158
-0.337983
-0.318424
-0.287531
-0.250509
-0.21237
-0.176349
-0.143984
-0.115659
-0.0911815
-0.0701559
-0.0521545
-0.0367819
-0.0236892
-0.0125719
-0.00316466
0.00476349
0.0114141
0.0169657
0.0215791
0.0253769
0.0284286
0.0309918
0.0336653
0.0351109
-0.318435
-0.31093
-0.291658
-0.260986
-0.224778
-0.187661
-0.152838
-0.121742
-0.0946782
-0.0714184
-0.0515509
-0.0346448
-0.0203056
-0.00818664
0.00201396
0.0105586
0.0176753
0.023563
0.0283978
0.032337
0.035498
0.0379536
0.0399759
0.0421464
0.0430456
-0.289469
-0.282687
-0.263628
-0.233587
-0.198211
-0.16224
-0.128726
-0.0989877
-0.073261
-0.0512823
-0.0326281
-0.0168655
-0.00360199
0.00750615
0.0167574
0.0244108
0.030691
0.0357937
0.0398921
0.0431389
0.0456457
0.0474914
0.048961
0.0506014
0.0509287
-0.259333
-0.253369
-0.234611
-0.205285
-0.170887
-0.136182
-0.104078
-0.075781
-0.0514599
-0.0308208
-0.0134304
0.00114455
0.0132937
0.0233572
0.0316295
0.0383658
0.0437869
0.0480848
0.0514294
0.0539669
0.0558024
0.0570267
0.0579378
0.0590226
0.0587564
-0.228125
-0.223082
-0.204721
-0.176173
-0.142892
-0.109565
-0.0789637
-0.0521831
-0.0293301
-0.0100835
0.00599734
0.0193447
0.0303447
0.0393331
0.0466001
0.0523963
0.0569382
0.0604141
0.0629896
0.064802
0.0659506
0.0665468
0.0668977
0.0673779
0.0664332
-0.196121
-0.191816
-0.174024
-0.146355
-0.114313
-0.0824673
-0.0534533
-0.0282575
-0.00692854
0.0108781
0.0256085
0.0376928
0.0475128
0.0553994
0.0616379
0.066474
0.0701196
0.0727591
0.0745523
0.0756261
0.0760772
0.0760486
0.0758285
0.075552
0.0736378
-0.163339
-0.159732
-0.142617
-0.115934
-0.0852401
-0.0549717
-0.0276204
-0.00406969
0.0156858
0.0320109
0.0453551
0.0561455
0.0647588
0.0715206
0.0767107
0.0805698
0.083305
0.0850962
0.0860966
0.0864223
0.0861759
0.0855397
0.0847119
0.0833966
0.0801174
-0.129847
-0.12698
-0.11061
-0.0850136
-0.0557681
-0.0271618
-0.0015399
0.0203132
0.0384525
0.0532604
0.0651879
0.0746581
0.0820423
0.08766
0.0917855
0.0946539
0.0964674
0.0974012
0.0976006
0.0971738
0.0962406
0.0950148
0.093513
0.0909581
0.0865824
-0.0957727
-0.0936815
-0.0781143
-0.0536988
-0.0259929
0.000876763
0.0247116
0.0448224
0.0613099
0.0745707
0.0850564
0.0931852
0.0993221
0.10378
0.106828
0.108696
0.109579
0.109649
0.109042
0.107863
0.106254
0.104429
0.102167
0.0984342
0.095227
-0.0612433
-0.0599537
-0.0452479
-0.0220977
0.00398817
0.029057
0.0510564
0.0693884
0.0841951
0.0958854
0.10491
0.11168
0.116556
0.119844
0.121805
0.122664
0.122612
0.121813
0.120397
0.11847
0.116187
0.113724
0.110696
0.106303
0.103824
-0.0263866
-0.0259182
-0.0121284
0.00968055
0.0340769
0.0572909
0.0774159
0.0939404
0.107045
0.117147
0.124695
0.130097
0.133702
0.135812
0.136681
0.136528
0.135537
0.133868
0.131645
0.128974
0.126014
0.122894
0.119171
0.114345
0.111959
0.00866921
0.00830175
0.0211253
0.0415264
0.0641744
0.0854902
0.103711
0.118407
0.129794
0.138297
0.144361
0.148386
0.150717
0.151645
0.15142
0.150254
0.148326
0.145788
0.14276
0.13935
0.135711
0.131933
0.127584
0.122393
0.119811
0.043795
0.0425814
0.0543937
0.07333
0.0941815
0.113566
0.129862
0.142718
0.152379
0.159278
0.163855
0.166502
0.167557
0.167305
0.165988
0.163811
0.160948
0.157545
0.153719
0.149574
0.145257
0.140831
0.135896
0.130327
0.127401
0.0788615
0.0767953
0.0875575
0.104981
0.124
0.14143
0.155789
0.1668
0.174735
0.180031
0.183123
0.184396
0.18418
0.182752
0.180348
0.177167
0.173375
0.169114
0.164495
0.159622
0.154631
0.149571
0.144074
0.138104
0.134753
0.113739
0.110818
0.120498
0.136372
0.15353
0.168994
0.181414
0.190583
0.196798
0.200498
0.202113
0.202021
0.200542
0.197948
0.194466
0.190289
0.185578
0.180468
0.175066
0.169473
0.163815
0.158132
0.152087
0.145697
0.141878
0.1483
0.144525
0.153096
0.167393
0.182676
0.19617
0.206658
0.213996
0.218504
0.220622
0.220774
0.219329
0.216601
0.212853
0.208306
0.203146
0.197527
0.19158
0.185406
0.179103
0.172789
0.166495
0.159909
0.15309
0.148777
0.182417
0.177792
0.185236
0.197938
0.211341
0.222873
0.231444
0.23697
0.23979
0.240345
0.239052
0.236274
0.232314
0.227429
0.221833
0.215705
0.209194
0.202424
0.195492
0.18849
0.181531
0.174639
0.167523
0.16027
0.155447
0.215963
0.210497
0.216803
0.227903
0.239431
0.249018
0.255695
0.259434
0.260593
0.259611
0.256898
0.252809
0.24764
0.241639
0.235014
0.227937
0.220551
0.212974
0.205299
0.197614
0.190024
0.182545
0.17491
0.167225
0.161885
0.248817
0.24252
0.247684
0.257184
0.266853
0.274522
0.279336
0.281323
0.280853
0.278364
0.274261
0.268889
0.262536
0.255444
0.247813
0.239809
0.231569
0.223205
0.214805
0.206454
0.198247
0.190197
0.182054
0.173943
0.168083
0.280856
0.273745
0.277769
0.285681
0.293517
0.299303
0.302294
0.302569
0.300509
0.296551
0.291092
0.284469
0.276964
0.26881
0.2602
0.251293
0.242222
0.233092
0.223989
0.214988
0.206182
0.197578
0.188942
0.180412
0.174034
0.311964
0.304057
0.306952
0.313298
0.319336
0.323282
0.324499
0.323108
0.319504
0.314119
0.307344
0.299508
0.290884
0.281699
0.27214
0.262359
0.252483
0.242613
0.232827
0.223199
0.213812
0.20467
0.195559
0.186621
0.179731
0.342027
0.333345
0.335129
0.339939
0.344225
0.346385
0.345882
0.342879
0.337781
0.331017
0.32297
0.313962
0.304258
0.294079
0.283603
0.27298
0.262327
0.251742
0.241299
0.231066
0.22112
0.21146
0.201891
0.192558
0.185165
0.370934
0.361504
0.362201
0.365515
0.368101
0.368536
0.366375
0.361821
0.355286
0.347196
0.337926
0.327791
0.31705
0.305915
0.29456
0.283127
0.27173
0.260459
0.249385
0.238572
0.228088
0.217932
0.207926
0.198212
0.190328
0.398581
0.38843
0.388071
0.389939
0.390888
0.389665
0.385916
0.379877
0.371966
0.362608
0.352169
0.340957
0.329224
0.317176
0.304981
0.292775
0.280666
0.268741
0.257065
0.245698
0.234702
0.224072
0.21365
0.203573
0.195211
0.424865
0.414027
0.41265
0.413127
0.41251
0.409706
0.404444
0.396991
0.387773
0.377208
0.365657
0.353422
0.340747
0.327832
0.314839
0.301899
0.289115
0.276569
0.264322
0.252429
0.240947
0.229868
0.219052
0.208628
0.199807
0.449692
0.438201
0.435851
0.435002
0.432896
0.428595
0.421901
0.413112
0.402658
0.390953
0.378353
0.365151
0.351587
0.337853
0.324108
0.310475
0.297055
0.283922
0.271137
0.258749
0.246807
0.235306
0.22412
0.213369
0.204108
0.472971
0.460865
0.457592
0.455489
0.451981
0.446271
0.438233
0.42819
0.416577
0.403804
0.39022
0.376112
0.361714
0.347214
0.332763
0.318482
0.304464
0.290784
0.277494
0.264642
0.252271
0.240374
0.228843
0.217785
0.208107
0.494619
0.481938
0.477797
0.47452
0.469702
0.462678
0.453388
0.442179
0.429488
0.415721
0.401222
0.386272
0.371099
0.355887
0.340781
0.325897
0.311326
0.297136
0.283378
0.270095
0.257325
0.245061
0.233211
0.221867
0.211797
0.514555
0.501343
0.496396
0.49203
0.486
0.477765
0.467321
0.455037
0.441353
0.426671
0.411329
0.395604
0.379718
0.363849
0.34814
0.332702
0.317621
0.302962
0.288774
0.275095
0.261958
0.249357
0.237214
0.225606
0.215172
0.532709
0.519012
0.513325
0.507961
0.500824
0.491482
0.479987
0.466724
0.452135
0.43662
0.420511
0.40408
0.387545
0.371079
0.354821
0.338878
0.323334
0.308249
0.293669
0.279629
0.266159
0.253251
0.240842
0.228995
0.218226
0.549014
0.53488
0.528523
0.522258
0.514124
0.503788
0.491347
0.477204
0.461803
0.445539
0.428742
0.411677
0.394558
0.377557
0.360806
0.344411
0.32845
0.312982
0.298051
0.283688
0.269918
0.256735
0.244089
0.232026
0.220954
0.563412
0.548891
0.541939
0.534875
0.525858
0.514642
0.501366
0.486446
0.470327
0.453402
0.435996
0.418372
0.400739
0.383264
0.366079
0.349284
0.332956
0.317151
0.30191
0.287261
0.273226
0.259802
0.246947
0.234693
0.223352
0.575851
0.560994
0.553526
0.545769
0.535987
0.52401
0.510012
0.49442
0.477682
0.460186
0.442255
0.424147
0.406069
0.388186
0.370625
0.353485
0.33684
0.320744
0.305235
0.29034
0.276077
0.262444
0.249408
0.23699
0.225414
0.586286
0.571147
0.563244
0.554904
0.544479
0.531863
0.517259
0.501103
0.483845
0.46587
0.447498
0.428985
0.410534
0.392309
0.374433
0.357003
0.340092
0.323752
0.308018
0.292917
0.278463
0.264655
0.251468
0.238911
0.227138
0.59468
0.579314
0.571059
0.562248
0.551305
0.538175
0.523083
0.506475
0.488798
0.470438
0.451711
0.432872
0.414122
0.39562
0.377491
0.359829
0.342704
0.326167
0.310254
0.294986
0.280378
0.266429
0.253121
0.240454
0.228521
0.601001
0.585464
0.576944
0.567778
0.556445
0.542927
0.527468
0.510518
0.492526
0.473876
0.454882
0.435797
0.416821
0.398112
0.379792
0.361955
0.344669
0.327984
0.311935
0.296542
0.281819
0.267764
0.254365
0.241614
0.22956
0.605228
0.589576
0.580878
0.571475
0.55988
0.546103
0.530398
0.51322
0.495017
0.476173
0.457001
0.437751
0.418625
0.399777
0.38133
0.363375
0.345982
0.329198
0.313058
0.297582
0.282781
0.268656
0.255196
0.242388
0.230254
0.607345
0.591636
0.582849
0.573327
0.561601
0.547694
0.531866
0.514573
0.496265
0.477323
0.458062
0.43873
0.419528
0.400611
0.3821
0.364087
0.346639
0.329806
0.31362
0.298102
0.283263
0.269102
0.255611
0.242776
0.230601
0.607345
0.591636
0.582849
0.573327
0.561601
0.547694
0.531866
0.514573
0.496265
0.477323
0.458062
0.43873
0.419528
0.400611
0.3821