/*--------------------------------*- C++ -*----------------------------------*\
  =========                 |
  \\      /  F ield         | OpenFOAM: The Open Source CFD Toolbox
   \\    /   O peration     | Website:  https://openfoam.org
    \\  /    A nd           | Version:  7
     \\/     M anipulation  |
\*---------------------------------------------------------------------------*/
FoamFile
{
    version     2.0;
    format      ascii;
    class       surfaceScalarField;
    location    "5";
    object      phi;
}
// * * * * * * * * * * * * * * * * * * * * * * * * * * * * * * * * * * * * * //

dimensions      [0 3 -1 0 0 0 0];

internalField   nonuniform List<scalar> 
63130
(
-8.7675e-06
8.76791e-06
-4.02787e-10
-3.09041e-05
2.2137e-05
-4.27947e-10
-6.40923e-05
3.31885e-05
-2.16957e-10
-0.000106574
4.24818e-05
7.67055e-11
-0.000157066
5.04915e-05
4.10818e-10
-0.000214709
5.7642e-05
7.59279e-10
-0.000279001
6.42905e-05
1.05856e-09
-0.000349722
7.07199e-05
1.18634e-09
-0.00042685
7.71276e-05
9.08173e-10
-0.000510469
8.36187e-05
3.85973e-10
-0.000600678
9.02091e-05
-1.22919e-11
-0.000697515
9.6837e-05
-2.91405e-10
-0.00080089
0.000103375
-5.0331e-10
-0.000910531
0.000109642
-6.74925e-10
-0.00102594
0.000115408
-8.20455e-10
-0.00114634
0.000120398
-9.44938e-10
-0.00127063
0.000124293
-1.04784e-09
-0.00139736
0.000126737
-1.12522e-09
-0.0015247
0.000127341
-1.17132e-09
-0.0016504
0.000125696
-1.17934e-09
-0.0017718
0.000121403
-1.14217e-09
-0.00188592
0.000114119
-1.05289e-09
-0.00198938
0.000103459
-9.06296e-10
-0.0020783
8.89216e-05
-6.99876e-10
7.12702e-05
-4.32316e-10
-0.00214957
-8.58363e-06
1.73515e-05
-3.03052e-05
4.38586e-05
-6.2921e-05
6.58043e-05
-0.000104718
8.42783e-05
-0.000154431
0.000100205
-0.000211204
0.000114414
-0.000274519
0.000127605
-0.000344132
0.000140333
-0.000419988
0.000152984
-0.000502135
0.000165765
-0.000590631
0.000178705
-0.000685471
0.000191677
-0.000786518
0.000204423
-0.00089345
0.000216574
-0.00100571
0.000227666
-0.00112245
0.000237141
-0.00124251
0.000244354
-0.00136435
0.000248579
-0.00148604
0.000249026
-0.0016052
0.000244858
-0.00171905
0.000235254
-0.00182444
0.000219509
-0.0019179
0.000196911
-0.00199544
0.000166471
0.000129508
-0.00205368
-8.22257e-06
2.55741e-05
-2.91268e-05
6.47628e-05
-6.06132e-05
9.72907e-05
-0.000101055
0.00012472
-0.000149229
0.000148379
-0.000204278
0.000169464
-0.000265659
0.000188987
-0.00033308
0.000207753
-0.000406422
0.000226327
-0.000485661
0.000245004
-0.000570778
0.000263822
-0.000661683
0.000282582
-0.00075815
0.00030089
-0.000859758
0.000318182
-0.00096584
0.000333748
-0.00107544
0.000346737
-0.00118724
0.000356163
-0.00129958
0.000360914
-0.00141033
0.000359775
-0.00151693
0.00035146
-0.00161636
0.000334684
-0.00170519
0.000308337
-0.00177974
0.000271462
-0.00183594
0.000222676
0.000163291
-0.00186973
-7.69702e-06
3.32711e-05
-2.74064e-05
8.44722e-05
-5.72358e-05
0.00012712
-9.56848e-05
0.000163169
-0.000141589
0.000194284
-0.000194098
0.000221972
-0.000252628
0.000247517
-0.000316818
0.000271944
-0.000386462
0.000295971
-0.00046143
0.000319973
-0.000541593
0.000343984
-0.00062674
0.00036773
-0.00071652
0.000390669
-0.000810374
0.000412036
-0.000907489
0.000430863
-0.00100675
0.000445994
-0.00110667
0.000456088
-0.0012054
0.000459637
-0.00130061
0.000454985
-0.00138952
0.000440373
-0.00146885
0.000414018
-0.00153485
0.000374336
-0.00158357
0.000320176
-0.00161091
0.000250016
0.000164003
-0.00161162
-7.02524e-06
4.02964e-05
-2.51981e-05
0.000102645
-5.28866e-05
0.000154809
-8.8751e-05
0.000199033
-0.000131705
0.000237238
-0.000180905
0.000271172
-0.000235724
0.000302336
-0.000295716
0.000331935
-0.000360561
0.000360816
-0.000430002
0.000389413
-0.000503766
0.000417749
-0.000581499
0.000445462
-0.000662691
0.000471861
-0.000746621
0.000495966
-0.000832304
0.000516547
-0.000918443
0.000532133
-0.00100338
0.000541028
-0.00108507
0.000541322
-0.001161
0.000530921
-0.00122822
0.000507591
-0.00128325
0.000469043
-0.00132206
0.000413145
-0.00134036
0.000338484
-0.00133427
0.000243926
0.00012642
-0.00129669
-6.2303e-06
4.65267e-05
-2.25709e-05
0.000118986
-4.76909e-05
0.000179929
-8.04391e-05
0.000231782
-0.000119824
0.000276623
-0.000165016
0.000316364
-0.000215339
0.000352659
-0.000270252
0.000386848
-0.000329306
0.00041987
-0.000392094
0.000452201
-0.000458183
0.000483839
-0.000527049
0.000514328
-0.000598008
0.00054282
-0.000670163
0.000568121
-0.000742347
0.000588731
-0.000813083
0.000602869
-0.000880545
0.00060849
-0.000942522
0.000603299
-0.000996388
0.000584786
-0.00103908
0.000550279
-0.00106704
0.000497006
-0.00107617
0.000422271
-0.0010618
0.000324121
-0.00102055
0.000202676
4.877e-05
-0.000942902
-5.33902e-06
5.18657e-05
-1.96059e-05
0.000133252
-4.17972e-05
0.00020212
-7.09712e-05
0.000260956
-0.000106244
0.000311895
-0.000146809
0.000356929
-0.000191942
0.000397792
-0.000241001
0.000435906
-0.000293398
0.000472267
-0.000348565
0.000507368
-0.000405894
0.000541167
-0.000464679
0.000573113
-0.000524056
0.000602197
-0.000582944
0.000627009
-0.000640002
0.000645789
-0.00069359
0.000656457
-0.000741737
0.000656637
-0.000782121
0.000643684
-0.000812059
0.000614724
-0.000828486
0.000566705
-0.000827928
0.000496448
-0.000806438
0.000400782
-0.000759047
0.00027673
-0.000683101
0.00012673
-6.76049e-05
-0.000566726
-4.38084e-06
5.62465e-05
-1.63934e-05
0.000145265
-3.53732e-05
0.0002211
-6.05992e-05
0.000286182
-9.13073e-05
0.000342604
-0.000126721
0.000392342
-0.000166074
0.000437145
-0.000208622
0.000478455
-0.00025364
0.000517285
-0.00030039
0.000554118
-0.000348085
0.000588863
-0.000395836
0.000620864
-0.000442596
0.000648957
-0.000487113
0.000671526
-0.000527887
0.000686562
-0.000563138
0.000691708
-0.000590795
0.000684294
-0.000608482
0.000661371
-0.000613526
0.000619768
-0.000602962
0.000556141
-0.000573496
0.000466983
-0.000521612
0.000348898
-0.000442057
0.000197174
-0.00033334
1.80129e-05
-0.000217659
-0.000183286
-3.38655e-06
5.96331e-05
-1.30295e-05
0.000154908
-2.85993e-05
0.00023667
-4.95981e-05
0.00030718
-7.53883e-05
0.000368394
-0.000105233
0.000422186
-0.00013833
0.000470243
-0.000173846
0.00051397
-0.000210914
0.000554353
-0.000248637
0.000591841
-0.000286049
0.000626275
-0.000322083
0.000656899
-0.000355523
0.000682396
-0.000384958
0.000700961
-0.000408757
0.000710361
-0.000425041
0.000707992
-0.000431683
0.000690936
-0.00042631
0.000655997
-0.000406328
0.000599786
-0.000368949
0.000518762
-0.000311101
0.000409135
-0.000229932
0.000267729
-0.000119954
8.71958e-05
2.38725e-05
-0.000125813
-0.000394074
0.000200288
-2.38701e-06
6.20201e-05
-9.61256e-06
0.000162134
-2.1663e-05
0.00024872
-3.82571e-05
0.000323774
-5.88856e-05
0.000389022
-8.28587e-05
0.000446159
-0.000109353
0.000496738
-0.000137451
0.000542068
-0.000166164
0.000583067
-0.00019444
0.000620116
-0.000221149
0.000652984
-0.000245059
0.000680809
-0.0002648
0.000702137
-0.000278834
0.000714995
-0.000285428
0.000716955
-0.000282646
0.000705211
-0.00026836
0.00067665
-0.000240255
0.000627892
-0.00019587
0.000555401
-0.000132661
0.000455553
-4.78078e-05
0.000324282
6.11053e-05
0.000158816
0.000198734
-5.0433e-05
0.000365157
-0.000292236
-0.000605641
0.000576724
-1.41199e-06
6.34321e-05
-6.23933e-06
0.000166961
-1.47525e-05
0.000257233
-2.68707e-05
0.000335893
-4.221e-05
0.000404362
-6.01344e-05
0.000464084
-7.98103e-05
0.000516414
-0.000100255
0.000562512
-0.000120372
0.000603184
-0.000138976
0.00063872
-0.000154789
0.000668798
-0.000166436
0.000692456
-0.00017242
0.000708121
-0.000171103
0.000713678
-0.000160692
0.000706544
-0.000139237
0.000683756
-0.000104663
0.000642076
-5.47622e-05
0.000577992
1.27433e-05
0.000487896
0.00010017
0.000368126
0.000210093
0.000214359
0.00034434
2.45694e-05
0.000507763
-0.000213856
0.000698835
-0.000483308
-0.000843779
0.000936973
-4.89336e-07
6.39214e-05
-3.00181e-06
0.000169473
-8.05037e-06
0.000262282
-1.57298e-05
0.000343572
-2.57725e-05
0.000414404
-3.76001e-05
0.000475911
-5.03818e-05
0.000529195
-6.30882e-05
0.000575219
-7.45389e-05
0.000614635
-8.34358e-05
0.000647617
-8.83817e-05
0.000673743
-8.78837e-05
0.000691958
-8.03483e-05
0.000700586
-6.40731e-05
0.000697403
-3.7246e-05
0.000679717
2.03891e-06
0.000644471
5.58155e-05
0.000588299
0.000126096
0.000507711
0.000214987
0.000399005
0.000324524
0.000258589
0.000457153
8.17294e-05
0.000614486
-0.000132763
0.000801368
-0.000400738
0.00101543
-0.000697366
-0.00110686
0.00127851
3.59358e-07
6.35621e-05
1.77366e-08
0.000169815
-1.72678e-06
0.000264026
-5.11126e-06
0.000346957
-9.97108e-06
0.000419264
-1.57861e-05
0.000481726
-2.17398e-05
0.000535149
-2.67769e-05
0.000580256
-2.96569e-05
0.000617515
-2.89993e-05
0.000646959
-2.33157e-05
0.00066806
-1.10288e-05
0.000679671
9.51885e-06
0.000680038
4.00601e-05
0.000666861
8.23915e-05
0.000637386
0.000138364
0.000588498
0.000209847
0.000516817
0.000298735
0.000418823
0.000406951
0.000290789
0.000536365
0.000129175
0.000689326
-7.12317e-05
0.000867635
-0.000311072
0.00107625
-0.000609351
0.00131237
-0.000933487
-0.00139446
0.00159997
1.10885e-06
6.24532e-05
2.74199e-06
0.000168182
4.06468e-06
0.000262704
4.73065e-06
0.000346291
4.8222e-06
0.000419173
4.80491e-06
0.000481744
5.47129e-06
0.000534483
7.88331e-06
0.000577844
1.33148e-05
0.000612083
2.31982e-05
0.000637076
3.90801e-05
0.000652178
6.2589e-05
0.000656162
9.54117e-05
0.000647215
0.000139276
0.000622997
0.000195935
0.000580727
0.00026715
0.000517283
0.000354674
0.000429293
0.000460259
0.000313238
0.000585722
0.000165327
0.000732928
-1.80313e-05
0.000904237
-0.000242541
0.00110208
-0.000508916
0.00133153
-0.000838802
0.00159005
-0.001192
-0.0017068
0.00190238
1.74674e-06
6.07065e-05
5.11509e-06
0.000164813
9.19497e-06
0.000258624
1.3574e-05
0.000341912
1.82748e-05
0.000414472
2.37155e-05
0.000476303
3.06578e-05
0.00052754
4.01529e-05
0.000568349
5.34824e-05
0.000598754
7.20998e-05
0.000618458
9.75768e-05
0.000626701
0.00013156
0.000622179
0.000175734
0.000603041
0.000231799
0.000566932
0.000301447
0.000511078
0.000386356
0.000432374
0.00048819
0.000327458
0.000608641
0.000192787
0.000749531
2.44371e-05
0.000912968
-0.000181468
0.00110145
-0.000431027
0.00131845
-0.000725916
0.0015689
-0.00108925
0.00185132
-0.00147443
-0.00204392
0.00218845
2.26093e-06
5.84455e-05
7.09019e-06
0.000159984
1.35613e-05
0.000252153
2.12372e-05
0.000334236
3.01068e-05
0.000405602
4.05516e-05
0.000465858
5.32999e-05
0.000514792
6.93779e-05
0.000552271
9.00523e-05
0.000578079
0.000116769
0.000591741
0.000151096
0.000592374
0.000194668
0.000578608
0.000249147
0.000548562
0.000316192
0.000499887
0.000397446
0.000429825
0.000494535
0.000335285
0.000609113
0.000212881
0.000742937
5.89627e-05
0.000898038
-0.000130664
0.00107698
-0.00036041
0.00128262
-0.000636663
0.00151961
-0.000962913
0.00179215
-0.00136179
0.00210053
-0.0017828
-0.00240467
0.00246128
2.64488e-06
5.58007e-05
8.6378e-06
0.000153991
1.70916e-05
0.000243699
2.75856e-05
0.000323742
4.01025e-05
0.000393085
5.50007e-05
0.00045096
7.29768e-05
0.000496816
9.50222e-05
0.000530225
0.000122371
0.000550731
0.00015644
0.000557672
0.000198769
0.000550046
0.000250963
0.000526413
0.000314655
0.000484871
0.000391473
0.000423068
0.000483045
0.000338253
0.000591027
0.000227303
0.000717183
8.67242e-05
0.000863529
-8.73835e-05
0.00103248
-0.000299619
0.00122731
-0.00055524
0.0014513
-0.000860644
0.0017101
-0.00122172
0.00200623
-0.00165791
0.0023418
-0.00211837
-0.00278545
0.00272258
2.89682e-06
5.29038e-05
9.74464e-06
0.000147143
1.97468e-05
0.000233697
3.25376e-05
0.000310951
4.81209e-05
0.000377502
6.68486e-05
0.000432232
8.93906e-05
0.000474274
0.0001167
0.000502916
0.000149969
0.000517462
0.000190571
0.00051707
0.000240006
0.00050061
0.000299849
0.000466569
0.000371714
0.000413006
0.000457238
0.000337544
0.000558111
0.00023738
0.000676136
0.000109277
0.000813357
-5.04967e-05
0.000972239
-0.000246266
0.00115578
-0.000483157
0.00136799
-0.000767447
0.00161246
-0.00110512
0.00189513
-0.00150439
0.0022157
-0.00197848
0.00257734
-0.00248001
-0.00317946
0.00297135
3.01952e-06
4.98843e-05
1.04139e-05
0.000139749
2.1522e-05
0.000222588
3.60684e-05
0.000296404
5.41047e-05
0.000359466
7.59938e-05
0.000410343
0.000102389
0.000447878
0.00013421
0.000471095
0.000172604
0.000479068
0.000218903
0.000470772
0.000274573
0.000444941
0.000341175
0.000399967
0.000420345
0.000333836
0.000513805
0.000244084
0.000623414
0.000127771
0.000751278
-1.8586e-05
0.000899892
-0.000199111
0.00107233
-0.000418702
0.00127222
-0.00068305
0.0015041
-0.000999324
0.00177146
-0.00137249
0.00207917
-0.0018121
0.00242314
-0.00232245
0.00280601
-0.00286288
-0.00357693
0.00320347
3.0201e-06
4.68642e-05
1.06648e-05
0.000132104
2.24472e-05
0.000210806
3.82126e-05
0.000280639
5.80852e-05
0.000339593
8.24591e-05
0.000385969
0.000111986
0.000418351
0.000147563
0.000435518
0.000190306
0.000436326
0.000241518
0.000419559
0.000302659
0.0003838
0.000375322
0.000327304
0.000461236
0.000247921
0.000562311
0.00014301
0.000680711
9.37121e-06
0.000819002
-0.000156877
0.000980258
-0.000360367
0.00116819
-0.000606635
0.0013869
-0.000901765
0.00164085
-0.00125327
0.00193266
-0.00166429
0.00226444
-0.00214388
0.00262785
-0.00268585
0.00302306
-0.00325809
-0.00396631
0.00341245
2.90971e-06
4.39545e-05
1.0532e-05
0.000124482
2.25859e-05
0.000198752
3.90639e-05
0.000264161
6.0186e-05
0.000318471
8.63983e-05
0.000359757
0.000118372
0.000386377
0.000157003
0.000396887
0.000203401
0.000389928
0.000258877
0.000364083
0.000324934
0.000317743
0.000403266
0.000248972
0.000495797
0.00015539
0.000604741
3.40652e-05
0.000732716
-0.000118604
0.000882837
-0.000306998
0.00105878
-0.000536311
0.00126471
-0.00081256
0.00150472
-0.00114178
0.00178228
-0.00153083
0.00209805
-0.00198006
0.00244994
-0.00249577
0.00282547
-0.00306139
0.00322107
-0.00365369
-0.00433632
0.00359108
2.70328e-06
4.12512e-05
1.00645e-05
0.000117121
2.20342e-05
0.000186782
3.87736e-05
0.000247422
6.06205e-05
0.000296624
8.80968e-05
0.000332281
0.00012192
0.000352554
0.000163017
0.000355791
0.000212533
0.000340412
0.000271842
0.000304774
0.000342561
0.000247024
0.000426581
0.000164951
0.00052613
5.58421e-05
0.000643849
-8.36539e-05
0.000782882
-0.000257637
0.000946905
-0.00047102
0.00114001
-0.000729418
0.00136635
-0.0010389
0.00162925
-0.00140468
0.00193005
-0.00183163
0.00226644
-0.00231646
0.00263125
-0.00286057
0.00300892
-0.00343906
0.00339189
-0.00403666
-0.00467784
0.00373341
2.41912e-06
3.88321e-05
9.32455e-06
0.000110216
2.09172e-05
0.00017519
3.75455e-05
0.000230793
5.96867e-05
0.000274483
8.79648e-05
0.000304003
0.000123177
0.000317341
0.000166326
0.000312642
0.00021865
0.000288088
0.000281656
0.000241768
0.000357165
0.000171515
0.000447368
7.47482e-05
0.000554898
-5.16877e-05
0.000682893
-0.000211649
0.000835012
-0.000409756
0.00101531
-0.000651323
0.0012279
-0.000942001
0.00147617
-0.00128717
0.00176175
-0.00169025
0.00208281
-0.0021527
0.0024334
-0.00266705
0.00280145
-0.00322862
0.00317012
-0.00380773
0.00352877
-0.00439532
-0.00498527
0.0038362
2.07844e-06
3.67537e-05
8.38495e-06
0.000103909
1.93845e-05
0.00016419
3.56288e-05
0.000214549
5.77556e-05
0.000252356
8.65216e-05
0.000275237
0.000122846
0.000281017
0.000167859
0.000267628
0.000222962
0.000232986
0.000289878
0.000174851
0.000370728
9.06657e-05
0.00046809
-2.26142e-05
0.000585063
-0.00016866
0.000725261
-0.000351848
0.0008927
-0.000577194
0.00109145
-0.000850069
0.00132496
-0.00117552
0.00159506
-0.00155727
0.00190069
-0.00199588
0.00223628
-0.00248829
0.00259221
-0.00302298
0.0029528
-0.00358921
0.00330202
-0.00415695
0.00362789
-0.00472118
-0.0052568
0.00389942
1.70469e-06
3.5049e-05
7.32693e-06
9.82867e-05
1.76047e-05
0.000153912
3.33066e-05
0.000198847
5.52542e-05
0.000230408
8.43708e-05
0.00024612
0.000121744
0.000243644
0.000168696
0.000220676
0.000226863
0.000174819
0.000298273
0.000103441
0.000385421
3.51789e-06
0.000491327
-0.00012852
0.000619534
-0.000296867
0.000773991
-0.000506305
0.000958735
-0.000761939
0.00117728
-0.00106862
0.0014317
-0.00142993
0.00172135
-0.00184693
0.00204192
-0.00231644
0.00238407
-0.00283044
0.00273535
-0.00337426
0.00307846
-0.00393233
0.00340017
-0.00447866
0.00368879
-0.0050098
-0.00549399
0.00392598
1.32265e-06
3.37263e-05
6.23642e-06
9.3373e-05
1.57569e-05
0.000144392
3.08827e-05
0.000183721
5.26433e-05
0.000208648
8.21657e-05
0.000216598
0.000120757
0.000205053
0.000169997
0.000171436
0.00023183
0.000112986
0.000308654
2.66169e-05
0.000403388
-9.12157e-05
0.000519473
-0.000244606
0.000660777
-0.00043817
0.000831294
-0.000676822
0.0010346
-0.000965246
0.00127299
-0.00130701
0.00154638
-0.00170332
0.00185112
-0.00215167
0.00217948
-0.00264479
0.00251913
-0.00317009
0.00285617
-0.0037113
0.00317391
-0.00425007
0.00346325
-0.004768
0.00371396
-0.00526051
-0.00570069
0.00392066
9.57241e-07
3.27691e-05
5.19996e-06
8.91302e-05
1.40221e-05
0.00013557
2.8665e-05
0.000169079
5.03907e-05
0.000186922
8.0569e-05
0.000186419
0.000120779
0.000164843
0.000172915
0.0001193
0.00023929
4.66109e-05
0.000322712
-5.68052e-05
0.000426509
-0.000195012
0.000554444
-0.000372541
0.000710464
-0.000594191
0.000898202
-0.00086456
0.00112019
-0.00118723
0.00137683
-0.00156365
0.00166534
-0.00199183
0.0019789
-0.00246523
0.00230683
-0.00297272
0.00263513
-0.00349839
0.00295006
-0.00402623
0.00323743
-0.00453744
0.0034928
-0.00502337
0.0037078
-0.0054755
-0.00588195
0.00388906
6.32284e-07
3.21368e-05
4.30009e-06
8.54624e-05
1.25734e-05
0.000127297
2.69474e-05
0.000154705
4.89423e-05
0.000164927
8.02078e-05
0.000155154
0.000122641
0.00012241
0.000178499
6.34415e-05
0.000250495
-2.53852e-05
0.00034184
-0.000148149
0.000456187
-0.00030936
0.000597427
-0.000513781
0.000769241
-0.000766005
0.0009744
-0.00106972
0.00121381
-0.00142664
0.00148546
-0.0018353
0.00178364
-0.00229001
0.00209871
-0.00278031
0.00241804
-0.00329205
0.00272752
-0.00380787
0.00301499
-0.00431371
0.00326999
-0.00479244
0.0034923
-0.00524568
0.00367554
-0.00565874
-0.00604291
0.00383651
3.69113e-07
3.17677e-05
3.61065e-06
8.22209e-05
1.15654e-05
0.000119342
2.59927e-05
0.000140277
4.86937e-05
0.000142226
8.16309e-05
0.000122217
0.000127055
7.69861e-05
0.000187612
2.88461e-06
0.00026641
-0.000104183
0.000366998
-0.000248738
0.000493203
-0.000435565
0.000648753
-0.000669331
0.000836651
-0.000953904
0.00105829
-0.00129136
0.00131247
-0.00168081
0.00159449
-0.00211733
0.00189592
-0.00259144
0.00220508
-0.00308946
0.00250868
-0.00359565
0.00279399
-0.00409318
0.0030514
-0.00457113
0.00327469
-0.00501572
0.00346626
-0.00543726
0.00362206
-0.00581454
-0.00618891
0.00376806
1.85527e-07
3.15822e-05
3.19274e-06
7.92137e-05
1.11261e-05
0.000111408
2.60169e-05
0.000125386
4.99659e-05
0.000118277
8.52727e-05
8.69097e-05
0.00013456
2.76989e-05
0.00020086
-6.34158e-05
0.00028763
-0.000190953
0.000398635
-0.000359742
0.000537644
-0.000574574
0.000707883
-0.00083957
0.000911231
-0.00115725
0.00114726
-0.00152739
0.00141234
-0.00194589
0.00169918
-0.00240417
0.00199719
-0.00288944
0.00229374
-0.00338601
0.00257623
-0.00387814
0.00283437
-0.00435132
0.00306162
-0.00479839
0.0032559
-0.00521
0.0034201
-0.00560146
0.00355075
-0.00594519
-0.00632563
0.00368747
9.46014e-08
3.14876e-05
3.09125e-06
7.6217e-05
1.13501e-05
0.00010315
2.71782e-05
0.000109558
5.29885e-05
9.24669e-05
9.14293e-05
4.84689e-05
0.000145494
-2.63655e-05
0.000218566
-0.000136488
0.000314357
-0.000286744
0.000436672
-0.000482057
0.000588942
-0.000726845
0.000773514
-0.00102414
0.000990732
-0.00137447
0.00123802
-0.00177468
0.0015093
-0.00221717
0.00179508
-0.00268994
0.00208347
-0.00317784
0.00236208
-0.00366462
0.00262008
-0.00413614
0.0028502
-0.00458143
0.00304904
-0.00499723
0.00321801
-0.00537896
0.00336016
-0.00574361
0.00347788
-0.00606292
-0.00642611
0.00357836
1.01435e-07
3.13861e-05
3.33291e-06
7.29856e-05
1.22949e-05
9.41876e-05
2.95712e-05
9.22821e-05
5.7891e-05
6.41471e-05
0.000100249
6.11121e-06
0.000159982
-8.6099e-05
0.000240758
-0.000217264
0.000346407
-0.000392394
0.00048055
-0.000616199
0.000645969
-0.000892264
0.000843763
-0.00122194
0.00107242
-0.00160312
0.00132708
-0.00202934
0.00159945
-0.00248954
0.0018785
-0.00296899
0.00215209
-0.00345143
0.00240909
-0.00392162
0.00264118
-0.00436823
0.00284416
-0.00478442
0.00301752
-0.00517058
0.00316484
-0.00552628
0.00328897
-0.00586774
0.00339938
-0.00617333
-0.00651942
0.00349269
2.07606e-07
3.11785e-05
3.92689e-06
6.92663e-05
1.39814e-05
8.41332e-05
3.32276e-05
7.30359e-05
6.47056e-05
3.2669e-05
0.000111736
-4.09196e-05
0.000177953
-0.000152316
0.000267204
-0.000306515
0.000383267
-0.000508457
0.000529323
-0.000762255
0.000707185
-0.00107013
0.000916387
-0.00143114
0.00115336
-0.00184009
0.00141106
-0.00228705
0.00167946
-0.00275794
0.00194684
-0.00323637
0.00220178
-0.00370637
0.00243519
-0.00415503
0.00264156
-0.0045746
0.00281951
-0.00496236
0.00297079
-0.00532186
0.00310013
-0.00565563
0.0032114
-0.00597901
0.00331234
-0.00627427
-0.00660878
0.0034017
4.11994e-07
3.07665e-05
4.86655e-06
6.48117e-05
1.63971e-05
7.26026e-05
3.81225e-05
5.13104e-05
7.33775e-05
-2.58601e-06
0.000125774
-9.33159e-05
0.000199167
-0.000225709
0.000297457
-0.000404805
0.000424166
-0.000635166
0.000581766
-0.000919855
0.000770802
-0.00125916
0.000989003
-0.00164934
0.00123071
-0.0020818
0.00148702
-0.00254336
0.00174682
-0.00301774
0.00199861
-0.00348815
0.0022325
-0.00394026
0.00244185
-0.00436438
0.00262389
-0.00475665
0.00277958
-0.00511805
0.00291223
-0.00545451
0.00302713
-0.00577053
0.00312814
-0.00608002
0.00322254
-0.00636867
-0.00669557
0.00330932
7.07443e-07
3.00591e-05
6.13197e-06
5.93872e-05
1.95027e-05
5.9232e-05
4.41853e-05
2.66278e-05
8.37826e-05
-4.21833e-05
0.000142145
-0.000151679
0.000223256
-0.000306819
0.000330911
-0.00051246
0.000468158
-0.000772413
0.000636489
-0.00108819
0.000834925
-0.0014576
0.00105927
-0.00187368
0.00130193
-0.00232447
0.00155263
-0.00279406
0.00179995
-0.00326506
0.0020334
-0.0037216
0.00224517
-0.00415203
0.00243117
-0.00455039
0.00259106
-0.00491654
0.00272751
-0.0052545
0.00284476
-0.00557176
0.00294809
-0.00587386
0.00304118
-0.0061731
0.00313023
-0.00645771
-0.00677907
0.00321372
1.08419e-06
2.89749e-05
7.69415e-06
5.27772e-05
2.32395e-05
4.36866e-05
5.13126e-05
-1.44523e-06
9.57475e-05
-8.66183e-05
0.000160567
-0.000216498
0.000249765
-0.000396017
0.000366863
-0.000629558
0.000514198
-0.000919749
0.000692032
-0.00126602
0.000897679
-0.00166324
0.00112504
-0.00210104
0.0013649
-0.00256433
0.00160625
-0.0030354
0.00183813
-0.00349694
0.00205167
-0.00393514
0.00224138
-0.00434174
0.00240561
-0.00471461
0.0025459
-0.00505684
0.00266608
-0.00537468
0.00277074
-0.00567642
0.00286483
-0.00596795
0.00295157
-0.00625984
0.00303617
-0.00654231
-0.00685975
0.00311684
1.53154e-06
2.74434e-05
9.51939e-06
4.47894e-05
2.75385e-05
2.56675e-05
5.93822e-05
-3.3289e-05
0.00010907
-0.000136306
0.000180715
-0.000288142
0.000278191
-0.000493494
0.000404552
-0.000755918
0.000561196
-0.00107639
0.00074694
-0.00145176
0.000957306
-0.00187361
0.00118445
-0.00232818
0.00141804
-0.00279792
0.00164697
-0.00326433
0.00186142
-0.0037114
0.00205452
-0.00412824
0.00222313
-0.00451035
0.00236763
-0.0048591
0.00249098
-0.00518019
0.00259759
-0.00548129
0.002692
-0.00577084
0.00277863
-0.00605458
0.00286016
-0.00634138
0.00294088
-0.00662302
-0.00693761
0.00301874
2.03908e-06
2.54043e-05
1.15733e-05
3.52552e-05
3.23271e-05
4.91358e-06
6.8265e-05
-6.92268e-05
0.000123536
-0.000191577
0.000202247
-0.000366853
0.000308005
-0.000599252
0.000443198
-0.000891111
0.000608065
-0.00124126
0.000799825
-0.00164352
0.00101224
-0.00208602
0.00123603
-0.00255197
0.00146029
-0.00302218
0.00167451
-0.00347855
0.00187049
-0.00390737
0.0020435
-0.00430126
0.00219254
-0.00465939
0.00231959
-0.00498616
0.00242852
-0.00528912
0.00252389
-0.00557665
0.00260993
-0.00585688
0.00269041
-0.00613506
0.0027675
-0.00641847
0.00284466
-0.00670018
-0.0070127
0.00291975
2.59757e-06
2.28067e-05
1.38236e-05
2.40292e-05
3.75355e-05
-1.87984e-05
7.78333e-05
-0.000109525
0.00013893
-0.000252674
0.000224818
-0.000452741
0.000338676
-0.00071311
0.000482022
-0.00103446
0.000653751
-0.00141299
0.000849408
-0.00183918
0.00106114
-0.00229776
0.00127869
-0.00276952
0.00149116
-0.00323466
0.00168918
-0.00367657
0.00186644
-0.00408463
0.00202035
-0.00445516
0.00215168
-0.00479072
0.00226359
-0.00509807
0.00236037
-0.00538589
0.00244643
-0.00566271
0.00252554
-0.00593599
0.00260081
-0.00621033
0.00267394
-0.0064916
0.00274772
-0.00677395
-0.00708497
0.00281998
3.19956e-06
1.96072e-05
1.62423e-05
1.09865e-05
4.30997e-05
-4.56558e-05
8.79661e-05
-0.000154391
0.000155043
-0.000319751
0.000248086
-0.000545783
0.000369673
-0.000834698
0.000520261
-0.00118504
0.000697259
-0.00158999
0.00089456
-0.00203648
0.00110299
-0.00250618
0.00131176
-0.00297829
0.00151061
-0.00343351
0.00169168
-0.00385764
0.00185066
-0.00424361
0.00198687
-0.00459138
0.0021025
-0.00490635
0.00220141
-0.00519698
0.00228799
-0.00547247
0.00236629
-0.00574102
0.00243955
-0.00600924
0.00251026
-0.00628104
0.00257973
-0.00656107
0.00265019
-0.00684441
-0.00715432
0.00271953
3.83958e-06
1.57676e-05
1.88062e-05
-3.98016e-06
4.89631e-05
-7.58127e-05
9.85505e-05
-0.000203978
0.000171672
-0.000392873
0.000271712
-0.000645823
0.000400473
-0.000963459
0.000557179
-0.00134175
0.000737674
-0.00177048
0.000934331
-0.00223314
0.00113702
-0.00270887
0.00133498
-0.00317626
0.00151901
-0.00361753
0.00168301
-0.00402165
0.00182463
-0.00438523
0.0019448
-0.00471154
0.0020467
-0.00500825
0.00213454
-0.00528483
0.00221254
-0.00555047
0.00228429
-0.00581277
0.00235245
-0.00607741
0.00241903
-0.00634762
0.002485
-0.00662704
0.00255214
-0.00691154
-0.00722063
0.00261845
4.51392e-06
1.12537e-05
2.14965e-05
-2.09627e-05
5.5075e-05
-0.000109391
0.000109479
-0.000258383
0.000188618
-0.000472012
0.000295359
-0.000752563
0.000430559
-0.00109866
0.000592074
-0.00150326
0.000774187
-0.0019526
0.000967977
-0.00242693
0.00116279
-0.00290369
0.00134841
-0.00336187
0.00151701
-0.00378614
0.00166438
-0.00416901
0.00178989
-0.00451073
0.00189574
-0.00481739
0.00198574
-0.00509826
0.00206417
-0.00536325
0.00213489
-0.00562119
0.00220098
-0.00587885
0.00226461
-0.00614104
0.00232733
-0.00641034
0.00238985
-0.00668956
0.00245362
-0.00697531
-0.00728379
0.00251678
5.22023e-06
6.03343e-06
2.42972e-05
-4.00397e-05
6.13887e-05
-0.000146483
0.000120649
-0.000317643
0.000205682
-0.000557046
0.000318691
-0.000865572
0.000459429
-0.0012394
0.000624298
-0.00166813
0.000806111
-0.00213441
0.000994971
-0.00261579
0.00118017
-0.00308888
0.00135241
-0.00353411
0.00150551
-0.00393925
0.00163704
-0.00430054
0.00174786
-0.00462155
0.00184108
-0.00491062
0.00192084
-0.00517802
0.00199123
-0.00543364
0.00205569
-0.00568565
0.00211679
-0.00593995
0.00217624
-0.00620049
0.00223525
-0.00646935
0.00229434
-0.00674866
0.00235467
-0.00703563
-0.00734367
0.00241454
5.95681e-06
7.66158e-08
2.71942e-05
-6.12771e-05
6.78585e-05
-0.000187147
0.000131953
-0.000381738
0.000222661
-0.000647754
0.000341369
-0.00098428
0.000486597
-0.00138462
0.00065327
-0.00183481
0.000832908
-0.00231405
0.00101501
-0.00279789
0.00118924
-0.00326311
0.00134757
-0.00369244
0.00148551
-0.00407719
0.00160225
-0.00441728
0.00169986
-0.00471916
0.00178204
-0.00499281
0.00185297
-0.00524895
0.00191644
-0.00549711
0.00197541
-0.00574462
0.00203198
-0.00599652
0.0020875
-0.00625601
0.00214287
-0.00652472
0.00219851
-0.00680429
0.00225531
-0.00709244
-0.00740014
0.00231179
6.72199e-06
-6.64537e-06
3.01728e-05
-8.47278e-05
7.44368e-05
-0.000231411
0.000143282
-0.000450583
0.000239345
-0.000743817
0.000363057
-0.00110799
0.000511606
-0.00153317
0.000678492
-0.00200169
0.000854192
-0.00248975
0.001028
-0.00297169
0.00119033
-0.00342545
0.00133462
-0.00383672
0.00145804
-0.00420061
0.00156121
-0.00452044
0.00164705
-0.00480501
0.00171961
-0.00506536
0.00178291
-0.00531225
0.00184034
-0.00555454
0.0018944
-0.00579868
0.00194677
-0.00604889
0.00199849
-0.00630772
0.00205026
-0.00657649
0.00210238
-0.00685641
0.00215557
-0.00714563
-0.0074531
0.00220853
7.51415e-06
-1.41595e-05
3.32166e-05
-0.00011043
8.10716e-05
-0.000279266
0.000154517
-0.000524028
0.000255519
-0.000844818
0.000383423
-0.0012359
0.000534042
-0.00168379
0.000699567
-0.00216722
0.000869739
-0.00265992
0.00103403
-0.00313598
0.00118392
-0.00357534
0.00131439
-0.00396719
0.00142416
-0.00431039
0.001515
-0.00461128
0.00159045
-0.00488046
0.00165462
-0.00512953
0.00171126
-0.00536889
0.00176333
-0.00560661
0.00181289
-0.00584824
0.00186128
-0.00609727
0.00190928
-0.00635573
0.00195744
-0.00662465
0.00200597
-0.00690495
0.00205548
-0.00719514
-0.00750244
0.00210482
8.33031e-06
-2.24898e-05
3.63065e-05
-0.000138406
8.77051e-05
-0.000330665
0.000165534
-0.000601858
0.000270962
-0.000950246
0.000402152
-0.00136709
0.000553544
-0.00183519
0.000716206
-0.00232988
0.000879477
-0.00282319
0.00103336
-0.00328987
0.00117061
-0.00371259
0.00128774
-0.00408433
0.00138486
-0.00440751
0.00146462
-0.00469104
0.0015309
-0.00494674
0.00158772
-0.00518635
0.00163848
-0.00541966
0.0016857
-0.00565384
0.00173107
-0.0058936
0.0017756
-0.0061418
0.00181992
-0.00640005
0.00186444
-0.00666917
0.00190933
-0.00694984
0.00195507
-0.00724088
-0.00754804
0.00200067
9.16649e-06
-3.16563e-05
3.94198e-05
-0.00016866
9.42736e-05
-0.000385518
0.000176201
-0.000683786
0.000285457
-0.0010595
0.000418951
-0.00150058
0.000569817
-0.00198605
0.000728232
-0.00248829
0.000883477
-0.00297843
0.00102637
-0.00343276
0.00115106
-0.00383727
0.00125554
-0.0041888
0.00134105
-0.00449302
0.00141089
-0.00476088
0.00146909
-0.00500493
0.00151943
-0.00523669
0.00156492
-0.00546515
0.00160768
-0.0056966
0.00164905
-0.00593497
0.00168981
-0.00618257
0.00173045
-0.00644069
0.00177129
-0.00671001
0.00181246
-0.00699101
0.00185435
-0.00728277
-0.00758981
0.00189613
1.00176e-05
-4.16739e-05
4.25302e-05
-0.000201172
0.000100708
-0.000443696
0.000186382
-0.00076946
0.000298792
-0.00117191
0.000433564
-0.00163535
0.000582641
-0.00213513
0.000735582
-0.00264124
0.000881926
-0.00312478
0.00101354
-0.00356437
0.00112599
-0.00394972
0.0012186
-0.00428141
0.00129355
-0.00456798
0.00135455
-0.00482187
0.00140559
-0.00505597
0.00145015
-0.00528125
0.00149085
-0.00550585
0.00152942
-0.00573517