/*--------------------------------*- C++ -*----------------------------------*\
  =========                 |
  \\      /  F ield         | OpenFOAM: The Open Source CFD Toolbox
   \\    /   O peration     | Website:  https://openfoam.org
    \\  /    A nd           | Version:  7
     \\/     M anipulation  |
\*---------------------------------------------------------------------------*/
FoamFile
{
    version     2.0;
    format      ascii;
    class       volVectorField;
    location    "5";
    object      U;
}
// * * * * * * * * * * * * * * * * * * * * * * * * * * * * * * * * * * * * * //

dimensions      [0 1 -1 0 0 0 0];

internalField   nonuniform List<vector> 
31800
(
(-0.00213097 0.00198521 -1.16194e-20)
(-0.0122129 0.00469372 8.11407e-21)
(-0.031456 0.00653633 -2.65322e-21)
(-0.0554567 0.00776668 1.18593e-20)
(-0.0826487 0.00855764 1.33331e-20)
(-0.111938 0.00904508 -4.39681e-21)
(-0.1425 0.00933185 -3.23476e-21)
(-0.173813 0.00949074 2.29939e-20)
(-0.205551 0.00956836 -2.62481e-21)
(-0.237495 0.00958925 3.89374e-21)
(-0.269477 0.00956118 1.35887e-20)
(-0.301329 0.00948054 1.35786e-20)
(-0.332857 0.00933695 -8.79334e-21)
(-0.363821 0.0091165 -1.12097e-20)
(-0.393931 0.00880386 -4.21272e-22)
(-0.422842 0.00838354 -1.48992e-20)
(-0.450156 0.00784072 1.1804e-20)
(-0.475423 0.00716217 2.0296e-20)
(-0.498151 0.00633723 -7.81777e-21)
(-0.517813 0.00535894 3.56463e-20)
(-0.53387 0.00422602 2.26673e-21)
(-0.545801 0.0029454 -2.91077e-21)
(-0.553044 0.00152293 6.29781e-21)
(-0.555047 -4.02368e-05 1.26303e-20)
(-0.551865 -0.00165536 7.70728e-21)
(-0.00228979 0.00591075 1.19636e-20)
(-0.0124606 0.0139895 6.63097e-21)
(-0.0315638 0.0194981 -7.21144e-21)
(-0.0553132 0.0231849 -2.74219e-20)
(-0.0821856 0.025561 2.03666e-20)
(-0.111109 0.0270291 -1.00226e-20)
(-0.141269 0.0278948 6.19858e-22)
(-0.172145 0.028375 -1.76126e-20)
(-0.203404 0.028609 3.65252e-21)
(-0.234821 0.0286709 2.40864e-21)
(-0.266216 0.0285846 -5.7261e-20)
(-0.297414 0.02834 -1.16634e-21)
(-0.32821 0.0279062 6.67055e-20)
(-0.358357 0.0272419 -3.41048e-20)
(-0.387554 0.0263013 -6.58254e-21)
(-0.415447 0.025038 1.47684e-20)
(-0.441629 0.0234075 -3.1855e-20)
(-0.46564 0.0213701 -1.39582e-21)
(-0.486977 0.0188935 3.30358e-20)
(-0.505098 0.0159566 -1.21405e-19)
(-0.519451 0.012555 -3.80946e-20)
(-0.529502 0.00870997 5.77729e-20)
(-0.534683 0.00444562 2.85232e-20)
(-0.534383 -0.000230363 4.92399e-21)
(-0.528682 -0.0050653 -1.12318e-20)
(-0.0026006 0.00970449 -2.49754e-20)
(-0.0129463 0.0230144 -6.82294e-22)
(-0.0317744 0.0321309 -3.43842e-20)
(-0.0550289 0.0382599 5.15471e-20)
(-0.08127 0.0422293 -5.87045e-20)
(-0.10947 0.0446941 -5.62059e-21)
(-0.138834 0.0461542 -5.35515e-21)
(-0.168844 0.0469661 1.00372e-20)
(-0.199156 0.0473607 3.36128e-20)
(-0.229528 0.0474624 -5.79568e-21)
(-0.259765 0.0473127 -1.05844e-20)
(-0.289671 0.0468967 3.84079e-20)
(-0.319025 0.0461644 -7.0633e-21)
(-0.347561 0.045048 3.92142e-20)
(-0.374964 0.0434721 -8.14067e-20)
(-0.400862 0.0413598 -3.42585e-20)
(-0.424832 0.0386372 5.75349e-21)
(-0.446397 0.0352378 -1.1695e-19)
(-0.465037 0.0311072 3.24086e-20)
(-0.480193 0.0262091 7.42089e-20)
(-0.491285 0.0205346 -4.76749e-20)
(-0.497765 0.0141193 -1.1473e-19)
(-0.499064 0.00702182 -5.70515e-20)
(-0.494456 -0.000727551 -1.05419e-19)
(-0.483999 -0.00875858 -5.63346e-20)
(-0.00304991 0.0132841 1.15704e-20)
(-0.0136501 0.0315972 -1.95892e-20)
(-0.0320776 0.0442242 6.2482e-20)
(-0.0546081 0.0527702 -5.02574e-20)
(-0.0799221 0.0583445 -1.32839e-20)
(-0.107057 0.0618314 -3.63664e-21)
(-0.135248 0.0639105 4.20921e-20)
(-0.16398 0.0650712 3.04197e-20)
(-0.192894 0.0656338 -5.41245e-20)
(-0.221727 0.0657737 2.31392e-20)
(-0.250259 0.0655528 1.33801e-21)
(-0.278268 0.0649537 -1.08176e-19)
(-0.305508 0.06391 -3.57845e-20)
(-0.331692 0.0623293 3.35535e-21)
(-0.356481 0.0601078 2.53434e-20)
(-0.379483 0.0571394 1.19427e-19)
(-0.400257 0.0533215 1.39764e-20)
(-0.41831 0.0485611 1.17875e-19)
(-0.433107 0.0427813 1.20872e-19)
(-0.444074 0.0359294 -1.53161e-20)
(-0.450615 0.0279892 5.53447e-20)
(-0.452165 0.0190065 -2.18861e-20)
(-0.448178 0.00909092 7.10367e-20)
(-0.437792 -0.00166865 2.33408e-19)
(-0.42082 -0.0128782 3.49318e-20)
(-0.00361843 0.016575 1.99906e-20)
(-0.0145436 0.0395802 -7.30434e-20)
(-0.0324584 0.0555813 9.47919e-20)
(-0.0540566 0.0665053 3.51238e-20)
(-0.0781711 0.0736969 2.75861e-20)
(-0.103922 0.0782382 2.96642e-20)
(-0.130586 0.0809691 -1.59122e-19)
(-0.157652 0.0825019 5.99758e-20)
(-0.184746 0.0832431 6.34574e-20)
(-0.211579 0.0834201 -9.49118e-20)
(-0.237898 0.0831182 1.00303e-19)
(-0.263452 0.0823215 5.60653e-20)
(-0.287965 0.0809504 7.08128e-20)
(-0.311122 0.0788907 -5.01132e-20)
(-0.332563 0.0760128 -1.1731e-20)
(-0.351876 0.0721831 2.52164e-19)
(-0.368601 0.0672726 -1.10514e-19)
(-0.382238 0.061163 8.85488e-20)
(-0.392248 0.0537556 -2.17659e-19)
(-0.398058 0.0449807 -8.98199e-20)
(-0.399078 0.0348109 8.57834e-20)
(-0.394743 0.0232921 1.51274e-19)
(-0.384555 0.0105861 2.61867e-20)
(-0.367584 -0.00309667 -1.9458e-19)
(-0.342894 -0.0174919 -1.3524e-19)
(-0.00428205 0.0195134 -7.89123e-20)
(-0.0155911 0.0468241 -2.58108e-20)
(-0.032898 0.0660234 -5.60434e-20)
(-0.0533824 0.0792698 -5.46332e-20)
(-0.0760546 0.088088 3.94615e-20)
(-0.100133 0.0937198 -7.12792e-20)
(-0.124947 0.0971416 -4.69527e-20)
(-0.149991 0.0990756 -2.34753e-19)
(-0.174879 0.10001 1.02667e-20)
(-0.19929 0.100224 -2.58348e-21)
(-0.222938 0.0998304 -1.89896e-19)
(-0.245536 0.0988198 -6.71141e-20)
(-0.266779 0.0971036 -8.42148e-20)
(-0.286324 0.0945498 1.65946e-19)
(-0.303787 0.0910062 4.94697e-20)
(-0.318742 0.0863154 -1.3679e-19)
(-0.330721 0.0803246 -1.5786e-19)
(-0.339224 0.0728939 4.54939e-20)
(-0.343725 0.0639053 1.81236e-19)
(-0.343681 0.0532727 -3.97676e-20)
(-0.338534 0.0409549 -2.44312e-20)
(-0.327751 0.0269842 -1.15284e-19)
(-0.310903 0.0115456 -1.4612e-19)
(-0.287207 -0.00494217 1.17756e-19)
(-0.254113 -0.0225617 7.73573e-20)
(-0.00501314 0.0220478 4.06669e-20)
(-0.0167509 0.0532117 4.84314e-20)
(-0.0333744 0.0753946 -3.84436e-20)
(-0.0525951 0.0908875 -8.00336e-20)
(-0.0736183 0.101334 1.24609e-20)
(-0.0957741 0.108093 9.47552e-20)
(-0.11845 0.112248 1.3762e-19)
(-0.141157 0.114617 1.90696e-19)
(-0.163492 0.115761 3.34464e-20)
(-0.185109 0.116015 4.42085e-20)
(-0.205683 0.11552 5.51573e-20)
(-0.224895 0.114279 2.18468e-19)
(-0.242407 0.1122 -1.3057e-20)
(-0.25785 0.109138 -2.95465e-19)
(-0.270824 0.104923 2.17572e-19)
(-0.280893 0.0993784 8.89909e-20)
(-0.287592 0.0923319 2.89255e-19)
(-0.290437 0.0836267 -1.20148e-19)
(-0.288934 0.0731305 -1.4334e-19)
(-0.282593 0.0607445 4.14513e-19)
(-0.270926 0.0464136 -1.42174e-19)
(-0.253468 0.030149 -2.17734e-19)
(-0.229835 0.0120965 -5.91197e-20)
(-0.199854 -0.00702027 -1.82591e-19)
(-0.158066 -0.0279438 2.89698e-20)
(-0.00578198 0.024141 1.00952e-20)
(-0.0179779 0.0586517 -2.07989e-20)
(-0.0338637 0.0835658 4.24667e-21)
(-0.0517063 0.101205 -1.46907e-19)
(-0.0709144 0.113269 -1.14285e-19)
(-0.090938 0.121186 -2.17743e-20)
(-0.111232 0.126118 -5.68776e-20)
(-0.131329 0.128958 -1.03877e-19)
(-0.150816 0.130334 -2.36948e-20)
(-0.169318 0.130631 -1.23872e-20)
(-0.186481 0.130028 -1.17035e-19)
(-0.201949 0.128541 5.10731e-20)
(-0.215357 0.126083 3.94369e-20)
(-0.226316 0.122502 2.17111e-19)
(-0.234413 0.117615 -3.88563e-21)
(-0.239214 0.111231 -1.37877e-19)
(-0.240269 0.103165 -1.58394e-20)
(-0.237125 0.0932499 6.25726e-20)
(-0.22934 0.0813442 2.63727e-19)
(-0.216497 0.067343 -1.98759e-19)
(-0.198203 0.05118 5.33802e-19)
(-0.174114 0.0328561 2.24938e-19)
(-0.14375 0.0123971 -1.70886e-19)
(-0.108349 -0.00910504 3.25826e-19)
(-0.0579629 -0.0331588 1.84967e-19)
(-0.00655831 0.0257707 1.30367e-20)
(-0.0192253 0.0630808 6.42166e-20)
(-0.0343413 0.0904378 1.83984e-19)
(-0.050729 0.110097 2.29358e-19)
(-0.0680002 0.123748 1.37199e-19)
(-0.0857293 0.132846 -9.69693e-20)
(-0.103445 0.138594 2.38269e-19)
(-0.120708 0.141941 2.78602e-20)
(-0.137101 0.143572 -1.45316e-19)
(-0.15223 0.143922 1.63064e-20)
(-0.165709 0.143204 2.80033e-19)
(-0.177156 0.14146 -3.065e-19)
(-0.18618 0.138609 -1.78769e-19)
(-0.19238 0.134501 -3.66022e-20)
(-0.195339 0.128947 -3.07012e-19)
(-0.194636 0.121747 -2.06509e-19)
(-0.18985 0.11271 3.73987e-20)
(-0.180574 0.101662 -4.49595e-19)
(-0.166432 0.0884628 4.69375e-20)
(-0.147097 0.0730071 -2.25679e-19)
(-0.122275 0.0552203 -2.82975e-19)
(-0.0918209 0.0351191 2.67056e-19)
(-0.054838 0.0125108 3.00412e-19)
(-0.014847 -0.0115551 -2.34066e-19)
(0.043267 -0.0375469 3.16541e-19)
(-0.00731284 0.0269301 -1.5388e-19)
(-0.0204469 0.0664649 1.13197e-19)
(-0.0347831 0.0959439 -7.73917e-21)
(-0.0496778 0.117465 4.57352e-20)
(-0.0649373 0.132652 4.35336e-20)
(-0.0802594 0.142935 1.95017e-19)
(-0.0952524 0.149531 -1.42186e-19)
(-0.10951 0.15342 -2.69085e-19)
(-0.122621 0.155331 1.36338e-19)
(-0.134177 0.155744 1.29549e-19)
(-0.143771 0.15491 -4.45139e-19)
(-0.150998 0.152899 3.19851e-19)
(-0.155452 0.149647 4.97756e-19)
(-0.156725 0.14501 3.57121e-20)
(-0.154411 0.138799 -9.2693e-20)
(-0.148109 0.130814 2.71093e-19)
(-0.137441 0.120861 -1.27446e-19)
(-0.122062 0.108769 5.88796e-19)
(-0.101674 0.0944022 -5.3097e-19)
(-0.0760531 0.0776633 9.92679e-20)
(-0.0449769 0.0584691 -5.16906e-20)
(-0.0086274 0.0368671 -1.70493e-19)
(0.0345434 0.0124522 -1.6598e-19)
(0.07875 -0.0139848 1.36142e-19)
(0.144335 -0.041527 3.6795e-20)
(-0.00801874 0.0276271 1.01304e-19)
(-0.0215996 0.0687997 -7.26631e-20)
(-0.0351667 0.100051 6.07401e-20)
(-0.0485688 0.123245 -2.03332e-19)
(-0.0617893 0.139887 -4.51586e-20)
(-0.074644 0.151342 2.2987e-20)
(-0.0868226 0.158803 -5.2543e-20)
(-0.0979601 0.163261 -8.79609e-20)
(-0.107659 0.165475 2.82239e-20)
(-0.115507 0.165964 -1.51719e-19)
(-0.121084 0.165017 2.88153e-19)
(-0.123973 0.162735 -6.67929e-20)
(-0.123761 0.159078 -1.7553e-19)
(-0.120045 0.153913 -1.84156e-19)
(-0.112436 0.147062 2.52322e-19)
(-0.100571 0.138328 1.40673e-19)
(-0.0841269 0.127524 5.74846e-20)
(-0.0628282 0.114483 -4.90934e-19)
(-0.0364609 0.0990785 5.23863e-19)
(-0.00491686 0.0812249 -1.73192e-19)
(0.0320073 0.0608341 -8.23496e-20)
(0.0736826 0.0379825 -6.54408e-20)
(0.122758 0.0121852 -7.23282e-20)
(0.170184 -0.015914 2.32532e-19)
(0.243652 -0.0455946 -3.73734e-19)
(-0.00865294 0.0278832 -3.75289e-20)
(-0.0226452 0.0701095 1.63806e-19)
(-0.0354732 0.102762 -2.33398e-19)
(-0.0474196 0.127408 9.36072e-20)
(-0.0586205 0.145391 5.23474e-20)
(-0.0689999 0.157975 -7.88779e-20)
(-0.0783283 0.1663 2.32872e-19)
(-0.0862877 0.171344 5.70564e-20)
(-0.092504 0.17388 2.71658e-20)
(-0.096571 0.174458 2.37274e-19)
(-0.0980692 0.173404 -9.80154e-20)
(-0.096579 0.170852 1.08359e-19)
(-0.0916917 0.16679 -1.15445e-19)
(-0.0830196 0.161107 -7.03759e-21)
(-0.0702048 0.153637 -1.3229e-19)
(-0.0529285 0.144198 -4.72294e-19)
(-0.0309322 0.132609 9.95158e-20)
(-0.00402152 0.118716 3.96716e-19)
(0.027938 0.102405 -1.41051e-19)
(0.0649331 0.0835977 6.90185e-19)
(0.107239 0.0622085 -3.87998e-19)
(0.153612 0.0383029 -1.12879e-19)
(0.208439 0.0114709 -1.89777e-19)
(0.258286 -0.0179936 5.42283e-21)
(0.339964 -0.0496105 -1.69884e-19)
(-0.00919703 0.0277317 -1.14181e-19)
(-0.0235525 0.0704456 -1.6855e-19)
(-0.0356882 0.104111 -9.11152e-20)
(-0.046249 0.129958 8.5368e-20)
(-0.0554943 0.149136 2.70415e-20)
(-0.0634417 0.162776 1.55542e-20)
(-0.069939 0.171939 5.99375e-20)
(-0.07472 0.177568 -2.94693e-19)
(-0.0774429 0.180437 9.87983e-20)
(-0.0777206 0.181115 -2.0668e-19)
(-0.0751447 0.179961 -7.66807e-20)
(-0.0693066 0.177144 -1.04792e-19)
(-0.0598138 0.172683 -2.27941e-19)
(-0.0463051 0.166495 4.78703e-19)
(-0.0284626 0.158435 2.7922e-19)
(-0.0060237 0.148337 7.57401e-20)
(0.0212047 0.136032 2.43687e-19)
(0.0533358 0.121387 -3.6578e-19)
(0.0904364 0.104293 -9.48301e-20)
(0.132372 0.0846805 -4.47652e-19)
(0.179614 0.062481 1.74742e-19)
(0.230134 0.037641 3.8945e-19)
(0.290668 0.0100949 1.80313e-19)
(0.342531 -0.0206123 -3.38625e-19)
(0.432904 -0.0537903 4.18617e-19)
(-0.00963804 0.0272169 -4.14584e-20)
(-0.0242987 0.0698835 1.11309e-20)
(-0.0358027 0.104167 1.1523e-19)
(-0.0450772 0.130936 2.06329e-19)
(-0.0524707 0.151125 -1.3839e-19)
(-0.0580775 0.165713 1.34054e-19)
(-0.0618161 0.175659 -1.05706e-19)
(-0.0634746 0.181854 4.03688e-19)
(-0.0627523 0.185053 -2.86226e-19)
(-0.0592921 0.185836 6.16774e-20)
(-0.0527104 0.184589 2.73538e-19)
(-0.0426223 0.181514 -3.80618e-20)
(-0.0286636 0.176666 3.17996e-20)
(-0.0105095 0.169992 -3.87872e-19)
(0.0121094 0.161373 -3.37087e-19)
(0.0393966 0.150664 -1.24944e-20)
(0.0714797 0.137719 -3.87158e-19)
(0.108402 0.122416 1.48884e-19)
(0.150195 0.104657 -2.06522e-19)
(0.196613 0.0843667 2.8098e-19)
(0.248464 0.06154 -3.78219e-19)
(0.302815 0.0358285 2.29832e-19)
(0.369197 0.00786009 -1.93439e-19)
(0.423127 -0.0240144 2.66009e-19)
(0.522908 -0.0583493 -1.52653e-20)
(-0.00996945 0.0263907 2.2444e-19)
(-0.0248706 0.0685187 5.73605e-20)
(-0.0358143 0.103025 -1.28118e-19)
(-0.043925 0.130415 -1.53786e-19)
(-0.049605 0.151399 1.03806e-19)
(-0.0530052 0.166791 -3.83008e-19)
(-0.0541063 0.177433 5.48827e-19)
(-0.0527513 0.184146 1.07895e-19)
(-0.0486868 0.187655 1.79512e-19)
(-0.0415971 0.188539 2.22509e-19)
(-0.0311353 0.187202 1.43215e-19)
(-0.0169526 0.183878 -1.09406e-19)
(0.00127609 0.178658 -3.4074e-21)
(0.0238305 0.17152 -5.37883e-20)
(0.0509288 0.162379 -1.68893e-19)
(0.0827174 0.151113 3.89146e-19)
(0.119271 0.1376 8.18204e-19)
(0.160585 0.12173 5.20228e-20)
(0.206703 0.10342 2.94291e-19)
(0.257305 0.0825617 -1.54726e-19)
(0.313656 0.0592858 1.96242e-19)
(0.371902 0.0327437 -1.14409e-18)
(0.444495 0.00463197 5.46935e-19)
(0.501043 -0.0283645 3.37867e-19)
(0.610964 -0.0632922 -2.26356e-19)
(-0.0101908 0.0253102 -1.34733e-19)
(-0.0252655 0.0664625 -2.30605e-19)
(-0.0357276 0.100808 2.21214e-19)
(-0.0428137 0.128502 1.44749e-19)
(-0.0469452 0.150035 7.81045e-20)
(-0.0483085 0.16605 2.76927e-19)
(-0.0469354 0.177266 -2.88953e-19)
(-0.0427224 0.184421 -2.68472e-19)
(-0.0354682 0.188199 -1.77221e-19)
(-0.0249068 0.189164 -4.23032e-19)
(-0.0107389 0.187734 8.29391e-20)
(0.00733813 0.184169 -3.40366e-20)
(0.029602 0.178593 6.33766e-19)
(0.0562837 0.17102 2.657e-19)
(0.0875524 0.161396 1.96784e-19)
(0.12351 0.149631 -6.33002e-20)
(0.164202 0.135623 -3.69172e-19)
(0.209616 0.119277 -3.07641e-19)
(0.259869 0.100531 -3.70179e-19)
(0.314625 0.0792067 2.68493e-19)
(0.37567 0.0556562 5.14054e-19)
(0.43834 0.0283511 5.86368e-19)
(0.517674 0.000393613 -5.53821e-19)
(0.577839 -0.0336652 2.3481e-19)
(0.698163 -0.0683677 3.18447e-19)
(-0.0103079 0.0240355 -3.5623e-19)
(-0.0254907 0.0638374 1.97495e-19)
(-0.0355536 0.0976584 -3.35462e-19)
(-0.0417642 0.125331 4.12107e-19)
(-0.0445297 0.14714 -3.94037e-19)
(-0.0440516 0.163566 -1.18238e-19)
(-0.0404007 0.1752 -2.21176e-19)
(-0.0335226 0.182692 1.25624e-19)
(-0.0232706 0.186672 -2.16343e-19)
(-0.00943412 0.187683 2.40356e-19)
(0.00823137 0.186147 -3.18009e-19)
(0.0299753 0.182345 -2.3994e-19)
(0.0560252 0.176431 4.56378e-21)
(0.086566 0.168454 -3.8486e-19)
(0.12173 0.158395 6.92798e-21)
(0.161598 0.146193 -4.06514e-19)
(0.206226 0.131772 -2.3384e-20)
(0.255644 0.115049 -4.6229e-19)
(0.310109 0.0959874 1.63575e-19)
(0.369346 0.0743127 7.31915e-19)
(0.43562 0.0506725 -7.15296e-19)
(0.503675 0.0227535 3.56264e-19)
(0.590253 -0.00471259 3.92585e-19)
(0.65526 -0.0396703 -1.93397e-19)
(0.78512 -0.0731004 7.25784e-20)
(-0.0103319 0.0226272 1.84638e-19)
(-0.0255632 0.0607718 -5.19606e-20)
(-0.0353095 0.0937312 1.1375e-19)
(-0.0407956 0.121058 -3.31502e-19)
(-0.0423851 0.142857 5.31273e-19)
(-0.0402752 0.159454 3.47501e-20)
(-0.034563 0.171319 3.86673e-19)
(-0.0252376 0.179012 -2.0176e-19)
(-0.0122052 0.183102 1.38666e-19)
(0.00468697 0.184107 1.83015e-19)
(0.0256261 0.182441 1.72221e-19)
(0.0508078 0.178401 5.48937e-19)
(0.0804131 0.172167 -1.43955e-19)
(0.114593 0.163825 -1.43035e-19)
(0.153465 0.153387 -1.17343e-19)
(0.197127 0.140824 -8.01754e-21)
(0.245697 0.126087 -2.55374e-19)
(0.299306 0.109104 2.30995e-19)
(0.358402 0.0898724 -3.16241e-19)
(0.422826 0.0680089 1.25702e-19)
(0.49515 0.0444908 -1.85598e-19)
(0.569783 0.0162404 2.11347e-20)
(0.663778 -0.0103619 -9.13383e-19)
(0.734657 -0.0458591 9.1709e-20)
(0.871504 -0.0768839 -1.04113e-21)
(-0.0102791 0.0211443 2.46524e-19)
(-0.0255082 0.0573951 -1.65458e-19)
(-0.035017 0.0891914 -1.16231e-19)
(-0.0399231 0.11586 -7.02071e-20)
(-0.0405227 0.137352 -2.296e-19)
(-0.0369914 0.153861 -3.8763e-19)
(-0.0294398 0.165745 -1.27544e-19)
(-0.0178923 0.173478 4.36836e-19)
(-0.0023038 0.177567 -1.37772e-19)
(0.0174239 0.178494 -2.99924e-19)
(0.0414241 0.176663 -1.80636e-19)
(0.0698457 0.172381 -5.60369e-19)
(0.102836 0.165852 -6.18025e-19)
(0.140536 0.157193 4.72255e-19)
(0.183083 0.146449 1.00989e-19)
(0.230638 0.133625 8.23021e-20)
(0.283432 0.118698 8.6439e-19)
(0.341754 0.101608 1.36203e-19)
(0.406245 0.0823965 8.65607e-19)
(0.476867 0.0605795 -1.06151e-18)
(0.556175 0.0374413 5.05199e-19)
(0.638428 0.00930111 -4.61504e-19)
(0.739335 -0.0160578 7.29278e-19)
(0.816368 -0.0515054 -1.08612e-18)
(0.955862 -0.0791264 2.26153e-19)
(-0.0101697 0.0196415 -6.27828e-20)
(-0.0253574 0.0538326 -1.32241e-19)
(-0.0347002 0.0842052 -1.21193e-19)
(-0.0391562 0.109921 4.12021e-20)
(-0.0389357 0.130813 -6.47231e-20)
(-0.0341787 0.146966 2.45181e-19)
(-0.0249968 0.158644 -8.79788e-20)
(-0.0114396 0.166236 -1.86056e-19)
(0.00649778 0.170194 -7.64899e-20)
(0.0288681 0.170959 4.81991e-21)
(0.055762 0.168923 5.0267e-19)
(0.0872976 0.164398 -4.4657e-19)
(0.123613 0.157607 6.61426e-19)
(0.164872 0.148696 -1.96598e-19)
(0.211275 0.137747 -3.45465e-19)
(0.263094 0.124795 2.88386e-19)
(0.320716 0.10985 -3.28338e-19)
(0.384597 0.0928629 -5.60729e-19)
(0.455508 0.0739224 -2.20403e-19)
(0.533428 0.0524764 2.10076e-19)
(0.620455 0.0300329 3.31711e-19)
(0.710738 0.00258011 6.53596e-19)
(0.817104 -0.0211913 3.84129e-20)
(0.899333 -0.0558353 4.51106e-19)
(1.03586 -0.0794056 -1.43721e-19)
(-0.0100263 0.0181685 -3.06331e-20)
(-0.0251459 0.0502008 2.88825e-19)
(-0.0343823 0.078935 2.97499e-19)
(-0.0384946 0.103432 -1.33195e-19)
(-0.0375954 0.123444 9.3634e-20)
(-0.0317775 0.138977 -3.46677e-19)
(-0.0211417 0.150215 6.97119e-20)
(-0.00575061 0.15748 5.69784e-20)
(0.014374 0.161167 -1.63842e-19)
(0.0392546 0.161683 -4.50856e-20)
(0.0689593 0.159402 -6.24191e-19)
(0.103601 0.15464 2.03891e-19)
(0.143343 0.147638 -3.23614e-20)
(0.188409 0.138571 -5.25201e-21)
(0.23911 0.127555 -2.93156e-20)
(0.295861 0.114659 -1.1254e-20)
(0.359203 0.0999232 -2.95382e-20)
(0.429715 0.083316 3.89169e-19)
(0.508124 0.0649653 -3.56359e-19)
(0.594203 0.0442961 3.25603e-19)
(0.689099 0.0229059 -4.90634e-19)
(0.786747 -0.00322597 -2.37915e-19)
(0.896095 -0.0251514 6.65493e-20)
(0.981161 -0.0582201 -3.82606e-19)
(1.10882 -0.0775734 -1.23906e-19)
(-0.0098727 0.0167673 -2.89826e-19)
(-0.02491 0.0466041 -3.63826e-20)
(-0.0340825 0.0735326 -3.6681e-19)
(-0.0379257 0.0965796 -2.94169e-19)
(-0.0364477 0.115457 3.8934e-19)
(-0.0296863 0.130119 2.67185e-19)
(-0.017719 0.140692 -1.17653e-19)
(-0.000607091 0.147446 -1.04988e-19)
(0.0216192 0.150728 -7.90037e-20)
(0.0489748 0.150912 6.87162e-19)
(0.0815328 0.148358 2.7017e-19)
(0.119435 0.143385 3.82262e-19)
(0.162908 0.136252 -2.18421e-20)
(0.212277 0.127163 8.04743e-20)
(0.267985 0.116267 2.17085e-19)
(0.330591 0.103665 -5.17914e-19)
(0.400732 0.0894288 8.32445e-19)
(0.47896 0.073544 9.25135e-20)
(0.565691 0.0561549 -2.81509e-19)
(0.660172 0.0367111 -4.31199e-19)
(0.762157 0.0167343 -2.35192e-19)
(0.865216 -0.00750021 5.32327e-19)
(0.974219 -0.0274572 -1.82997e-20)
(1.05866 -0.0583224 2.77712e-19)
(1.17241 -0.0737736 3.28969e-19)
(-0.00973227 0.0154717 2.21001e-19)
(-0.0246829 0.0431307 2.29671e-20)
(-0.0338124 0.068135 -4.90367e-20)
(-0.0374207 0.0895425 5.22634e-20)
(-0.0354107 0.107063 -3.69551e-19)
(-0.0277589 0.120629 4.91591e-19)
(-0.0145077 0.130335 -1.16796e-21)
(0.00430069 0.13641 4.01786e-19)
(0.0286502 0.139167 1.70199e-20)
(0.0585771 0.138955 -1.41267e-19)
(0.0941931 0.136123 2.22362e-19)
(0.135707 0.130995 -7.50166e-19)
(0.183442 0.12385 -4.68697e-19)
(0.237849 0.114918 -2.36283e-19)
(0.299498 0.104381 -1.07092e-19)
(0.369028 0.0923714 1.14669e-20)
(0.447028 0.0789783 -5.34491e-19)
(0.533786 0.0642006 2.05853e-19)
(0.629068 0.0481601 8.09303e-19)
(0.731255 0.030369 2.2925e-19)
(0.838437 0.0121009 5.58705e-19)
(0.943797 -0.00982367 -5.57027e-19)
(1.0487 -0.0278647 -1.31097e-19)
(1.12867 -0.0561409 -2.1322e-19)
(1.22514 -0.068377 -1.14615e-18)
(-0.00962606 0.0143063 -2.06241e-19)
(-0.024492 0.0398506 1.04491e-19)
(-0.0335716 0.0628597 1.85271e-19)
(-0.0369313 0.0824833 6.41853e-19)
(-0.0343719 0.0984666 2.41365e-19)
(-0.0258042 0.110749 -5.35318e-19)
(-0.0112223 0.119416 -1.3475e-19)
(0.00937013 0.124675 -7.13357e-20)
(0.0359983 0.126817 -2.33719e-19)
(0.0687517 0.126176 -7.74923e-20)
(0.107817 0.123096 -1.60579e-19)
(0.1535 0.117909 5.94384e-19)
(0.206244 0.110914 7.19765e-19)
(0.266615 0.102369 3.69037e-19)
(0.335249 0.0924813 -1.89065e-19)
(0.41273 0.0814021 -1.3519e-19)
(0.499375 0.0692225 3.05597e-19)
(0.594901 0.0559359 -7.4973e-20)
(0.698087 0.0415907 -1.15751e-20)
(0.806199 0.0257834 1.78291e-19)
(0.91567 0.00938742 -2.55069e-19)
(1.01952 -0.0100414 -4.45137e-19)
(1.11669 -0.026403 -2.95056e-19)
(1.18875 -0.0519526 3.75324e-19)
(1.26659 -0.0618766 1.17378e-18)
(-0.00957126 0.0132859 1.6451e-19)
(-0.0243552 0.0368138 5.56482e-19)
(-0.0333453 0.0578011 2.21963e-19)
(-0.0363881 0.075544 -1.96906e-19)
(-0.0331886 0.089857 2.73448e-19)
(-0.0235883 0.100714 3.00941e-19)
(-0.00751972 0.108214 3.37388e-19)
(0.0150743 0.112561 -1.92842e-20)
(0.0442884 0.114039 2.66641e-19)
(0.0802974 0.112975 -8.22447e-19)
(0.123391 0.109719 4.67764e-19)
(0.173994 0.104615 -2.52819e-19)
(0.232655 0.0979801 -6.45562e-19)
(0.300001 0.090094 -4.76112e-19)
(0.376607 0.0811785 7.88543e-19)
(0.462798 0.0713836 -2.74293e-19)
(0.55833 0.0607726 -1.38367e-19)
(0.662043 0.0493059 1.06756e-19)
(0.77149 0.0369039 -5.6078e-19)
(0.882763 0.0232513 4.58168e-19)
(0.990962 0.00872029 -7.33707e-20)
(1.08944 -0.00825869 5.47515e-19)
(1.17591 -0.0233321 6.29772e-19)
(1.23768 -0.0461953 -2.15129e-19)
(1.29733 -0.0547907 -4.29444e-19)
(-0.0095797 0.0124153 -8.55579e-20)
(-0.0242784 0.0340495 -3.16019e-19)
(-0.0331016 0.0530289 8.2284e-21)
(-0.0356994 0.0688419 -1.58701e-19)
(-0.0316898 0.0814022 -4.66012e-19)
(-0.0208412 0.0907443 -2.40576e-19)
(-0.0030107 0.0969991 1.32335e-19)
(0.0219415 0.100388 -4.13123e-19)
(0.054206 0.101199 3.26637e-20)
(0.0940687 0.09977 2.0624e-19)
(0.141938 0.0964579 -5.9182e-19)
(0.198346 0.0916216 -1.95178e-19)
(0.263899 0.0855954 5.15654e-19)
(0.339167 0.0786674 3.55024e-19)
(0.42448 0.0710533 -4.65069e-19)
(0.51964 0.0628731 5.08019e-19)
(0.623561 0.0541242 2.13725e-19)
(0.733962 0.0446966 -5.772e-20)
(0.847115 0.0343422 -4.60146e-20)
(0.958133 0.0228226 -4.86787e-19)
(1.06139 0.00998639 5.30006e-20)
(1.15116 -0.00477756 -9.25082e-20)
(1.22501 -0.0190468 -4.85965e-19)
(1.2754 -0.0393429 -3.49436e-19)
(1.31862 -0.0476006 -3.20268e-19)
(-0.00965662 0.01169 -5.36245e-20)
(-0.0242536 0.0315665 -6.99265e-19)
(-0.0327902 0.0485866 -4.31256e-19)
(-0.0347524 0.0624658 -5.48739e-19)
(-0.0296801 0.0732427 4.8437e-19)
(-0.0172656 0.0810333 3.9344e-20)
(0.00272262 0.0860209 3.49864e-19)
(0.0305266 0.0884584 -3.19812e-19)
(0.0664532 0.088656 5.33398e-19)
(0.110911 0.086966 2.01034e-19)
(0.16442 0.0837627 1.78144e-20)
(0.227571 0.079418 -3.16383e-20)
(0.300929 0.0742729 -1.14414e-19)
(0.384838 0.0686058 -9.89846e-20)
(0.479148 0.0625965 1.10712e-19)
(0.582874 0.0562978 1.57925e-19)
(0.693855 0.0495991 -1.01919e-18)
(0.808599 0.0422827 6.4647e-20)
(0.92228 0.0339189 -1.70222e-19)
(1.02945 0.024326 -1.62139e-19)
(1.12452 0.0129035 7.99587e-20)
(1.20321 -4.53599e-06 -5.26665e-19)
(1.26368 -0.0139622 2.43018e-19)
(1.3028 -0.0317955 2.96995e-19)
(1.33207 -0.0407203 -6.5618e-19)
(-0.00979994 0.0110968 1.24768e-19)
(-0.0242579 0.0293544 5.05559e-19)
(-0.0323435 0.0444922 4.39365e-20)
(-0.033416 0.0564752 7.96215e-19)
(-0.026947 0.0654874 -5.04618e-19)
(-0.0125502 0.071744 4.93379e-19)
(0.0101055 0.0754969 -4.41873e-19)
(0.041378 0.0770453 1.74188e-19)
(0.0816986 0.076732 -2.25302e-19)
(0.131591 0.0749337 2.9725e-19)
(0.191644 0.0720425 4.96667e-19)
(0.262424 0.0684377 2.59616e-19)
(0.3443 0.0644508 1.04388e-19)
(0.437185 0.0603238 1.1514e-19)
(0.5402 0.0561642 -9.09272e-20)
(0.651349 0.0519152 -7.26747e-20)
(0.767292 0.0473215 8.29029e-19)
(0.883435 0.042029 2.74324e-19)
(0.994252 0.0354496 7.72268e-19)
(1.09432 0.027438 2.00903e-20)
(1.17879 0.0171092 -4.89831e-19)
(1.24512 0.00563285 6.10566e-19)
(1.29248 -0.00840694 7.61821e-19)
(1.32127 -0.0237881 9.24828e-20)
(1.33926 -0.034492 6.43488e-19)
(-0.00999992 0.0106153 -3.53498e-19)
(-0.0242535 0.027386 1.95589e-19)
(-0.0316774 0.0407391 4.29441e-19)
(-0.0315449 0.0508997 -1.69145e-19)
(-0.0232691 0.0582109 -5.00515e-19)
(-0.00638373 0.0630015 -3.67069e-20)
(0.0195476 0.0656044 2.71151e-20)
(0.0550026 0.0663765 4.83343e-20)
(0.100529 0.0657024 -3.10371e-19)
(0.156729 0.0639875 -1.32448e-19)
(0.224187 0.0616386 -4.62861e-19)
(0.303314 0.0590307 -1.19919e-20)
(0.394099 0.0564626 -1.33585e-19)
(0.495794 0.0541062 -4.02895e-20)
(0.606575 0.0519558 3.61369e-19)
(0.723311 0.0498047 -5.35234e-19)
(0.841543 0.0472284 2.25044e-19)
(0.955886 0.0437284 -3.66778e-19)
(1.06066 0.0386139 -5.54224e-19)
(1.15105 0.0317677 9.9041e-20)
(1.22354 0.0222335 1.0312e-18)
(1.27726 0.0117421 -5.23053e-19)
(1.31261 -0.00253915 1.86497e-20)
(1.3323 -0.0153843 4.32116e-19)
(1.34151 -0.0292559 2.37623e-19)
(-0.0102394 0.0102193 1.66523e-19)
(-0.0241893 0.0256202 -2.35858e-19)
(-0.0306948 0.0373 -4.98779e-19)
(-0.0289852 0.0457408 -2.64993e-19)
(-0.0184251 0.0514541 2.8902e-19)
(0.00153002 0.0548908 9.82814e-20)
(0.0314208 0.0564746 5.72527e-19)
(0.071835 0.0566282 2.31935e-19)
(0.123406 0.0557828 1.46958e-19)
(0.186753 0.0543724 6.83553e-20)
(0.262345 0.0528105 4.77731e-19)
(0.350269 0.0514489 2.1754e-19)
(0.449933 0.0505244 -1.82249e-19)
(0.559716 0.0500998 2.63121e-19)
(0.676707 0.0500159 -1.54178e-19)
(0.796648 0.0498843 1.98907e-19)
(0.914203 0.0491069 -1.97071e-19)
(1.02366 0.0470613 -4.23974e-19)
(1.11977 0.0430277 6.2283e-19)
(1.19883 0.0369303 -6.58373e-19)
(1.25892 0.0279377 1.81276e-19)
(1.30067 0.0180078 -2.13896e-19)
(1.32562 0.00367171 -1.60266e-19)
(1.33738 -0.00675165 -1.28475e-18)
(1.33972 -0.0255423 1.92551e-19)
(-0.0104945 0.00987925 3.42129e-20)
(-0.0240024 0.0240064 1.6859e-19)
(-0.029289 0.0341301 5.59215e-19)
(-0.0255802 0.0409759 -1.31789e-19)
(-0.0122028 0.0452258 -5.73398e-20)
(0.0114597 0.0474586 1.06342e-19)
(0.0460413 0.0481932 9.45509e-20)
(0.0922143 0.0479227 -3.72572e-19)
(0.150645 0.0471262 -1.73124e-19)
(0.221874 0.0462608 -5.35588e-19)
(0.306111 0.0457323 -4.06103e-19)
(0.402941 0.0458447 -2.91635e-19)
(0.510983 0.0467371 2.63643e-19)
(0.627587 0.0483231 -3.86714e-19)
(0.748719 0.0502545 -1.88523e-19)
(0.869158 0.0519465 -8.2444e-20)
(0.983084 0.052647 -6.38382e-20)
(1.08499 0.0516575 1.26614e-18)
(1.17059 0.048307 7.51007e-20)
(1.23761 0.0425951 -1.11475e-19)
(1.28571 0.0339316 -6.29814e-19)
(1.31672 0.0242367 2.01422e-19)
(1.33312 0.0103004 2.14972e-20)
(1.33829 0.00131222 7.2521e-19)
(1.33476 -0.0236473 7.30678e-20)
(-0.0107362 0.00956477 2.67588e-19)
(-0.023621 0.0224883 -2.57168e-19)
(-0.0273474 0.0311726 -3.89914e-19)
(-0.0211755 0.036563 3.91064e-19)
(-0.00440633 0.0395089 -8.70483e-20)
(0.0236367 0.0407173 -7.53791e-20)
(0.0636582 0.0408044 6.56392e-20)
(0.116371 0.0403337 -9.39694e-20)
(0.182395 0.0398284 2.3583e-19)
(0.262075 0.0397582 1.53109e-19)
(0.355197 0.0405009 3.98473e-19)
(0.46065 0.0422813 -1.11374e-20)
(0.576095 0.0451016 3.32002e-19)
(0.697779 0.0486874 -2.11884e-20)
(0.820634 0.0524785 3.62387e-19)
(0.938793 0.0557012 1.07645e-19)
(1.04643 0.0574938 -6.91333e-19)
(1.13878 0.0571491 -3.42784e-19)
(1.21286 0.0541142 -8.82224e-20)
(1.26791 0.048503 2.24812e-19)
(1.305 0.0399915 -1.02842e-19)
(1.32684 0.0303729 -3.72667e-19)
(1.3364 0.0171275 5.1991e-20)
(1.33654 0.00783837 -3.38792e-19)
(1.33131 -0.0122335 -1.61986e-19)
(-0.0109325 0.00924641 1.63587e-19)
(-0.0229671 0.0210078 1.74534e-19)
(-0.0247554 0.0283644 3.19642e-19)
(-0.0156233 0.0324478 -2.3289e-19)
(0.00513931 0.0342668 1.6913e-20)
(0.03825 0.034654 4.64607e-19)
(0.084448 0.0343199 -1.33105e-19)
(0.144424 0.0338952 -4.43867e-19)
(0.218653 0.0339386 -2.63382e-19)
(0.307136 0.034916 3.52596e-19)
(0.409063 0.0371499 -7.38214e-19)
(0.522452 0.040749 2.47994e-21)
(0.643894 0.0455378 -6.53553e-20)
(0.768555 0.0510224 4.77595e-19)
(0.890569 0.0564256 -2.6345e-19)
(1.00384 0.0608177 3.62726e-19)
(1.10305 0.0632926 3.71551e-19)
(1.18455 0.0632072 -6.56572e-19)
(1.24686 0.0601808 -2.78599e-19)
(1.29066 0.0544661 -2.27979e-19)
(1.31806 0.0459808 3.48277e-19)
(1.33236 0.0364243 5.44094e-19)
(1.33656 0.0236884 2.48636e-19)
(1.33341 0.0148478 -2.19704e-19)
(1.32653 -0.00419925 -3.83161e-19)
(-0.0110494 0.00889697 -3.85575e-20)
(-0.0219604 0.0195103 1.63104e-19)
(-0.0213994 0.0256423 -3.24157e-19)
(-0.00878566 0.028571 -4.97455e-19)
(0.0165854 0.0294531 -7.36493e-19)
(0.0554447 0.02924 1.25428e-19)
(0.108517 0.0287311 -1.47713e-19)
(0.176388 0.0286158 2.16457e-19)
(0.259267 0.0294749 8.04019e-20)
(0.356657 0.0317472 1.55652e-19)
(0.466972 0.0356663 1.73408e-19)
(0.587223 0.0411827 -9.65103e-20)
(0.712896 0.0479049 -1.40482e-19)
(0.838222 0.0551011 -3.18252e-19)
(0.956884 0.0617963 9.73973e-20)
(1.06303 0.0669612 -3.85579e-19)
(1.15227 0.0697208 1.40994e-19)
(1.22237 0.0695632 9.68276e-20)
(1.27331 0.0663121 -3.8518e-19)
(1.30694 0.0603626 -4.11252e-19)
(1.32616 0.0518408 -2.20658e-19)
(1.33442 0.0423212 1.24708e-20)
(1.33462 0.0301197 6.64079e-20)
(1.32919 0.0213818 -2.12662e-19)
(1.32128 0.00382 1.60936e-19)
(-0.0110521 0.00849341 2.46105e-21)
(-0.0205203 0.0179481 -4.48517e-19)
(-0.0171695 0.0229488 5.72145e-19)
(-0.000535889 0.0248762 6.11665e-19)
(0.0300596 0.0250206 3.64757e-19)
(0.0753246 0.024443 -1.29063e-20)
(0.135905 0.0240216 -1.32803e-19)
(0.212185 0.0244926 -1.82833e-19)
(0.303967 0.0264387 3.33102e-19)
(0.41009 0.0302412 -8.10117e-19)
(0.528042 0.0360038 8.29224e-20)
(0.653734 0.0434755 7.58077e-19)
(0.781616 0.0520175 1.07693e-19)