/*--------------------------------*- C++ -*----------------------------------*\
  =========                 |
  \\      /  F ield         | OpenFOAM: The Open Source CFD Toolbox
   \\    /   O peration     | Website:  https://openfoam.org
    \\  /    A nd           | Version:  7
     \\/     M anipulation  |
\*---------------------------------------------------------------------------*/
FoamFile
{
    version     2.0;
    format      ascii;
    class       volScalarField;
    location    "8.5";
    object      p;
}
// * * * * * * * * * * * * * * * * * * * * * * * * * * * * * * * * * * * * * //

dimensions      [1 -1 -2 0 0 0 0];

internalField   nonuniform List<scalar> 
4032
(
1
1
1
1
1
1
1
1
1
1
1
1.32835
7.58735
10.6065
10.74
10.9497
11.1357
11.3128
11.475
11.6206
11.75
11.8547
11.935
11.9941
1
1
1
1
1
1
1
1
1
1
1
1.28947
7.42364
10.5729
10.7275
10.931
11.1132
11.2854
11.4424
11.5813
11.703
11.7999
11.8715
11.9276
1
1
1
1
1
1
1
1
1
1
1
1.18616
7.12337
10.5441
10.686
10.8878
11.0699
11.2405
11.3946
11.5286
11.643
11.7313
11.789
11.8366
1
1
1
1
1
1
1
1
1
1
1
1.01641
6.62351
10.4923
10.6327
10.8207
10.9925
11.1509
11.2958
11.4238
11.5349
11.6194
11.6677
11.7048
1
1
1
1
1
1
1
1
1
1
1
1.00019
5.95069
10.3151
10.4992
10.684
10.8592
11.0159
11.155
11.2698
11.3594
11.4253
11.4592
11.5078
1
1
1
1
1
1
1
1
1
1
1
0.999999
5.10651
10.084
10.3878
10.5571
10.7239
10.8628
10.9815
11.0794
11.1575
11.2174
11.2299
11.1904
1
1
1
1
1
1
1
1
1
1
1
1
4.13801
9.72913
10.271
10.428
10.572
10.6808
10.764
10.8233
10.8439
10.8084
10.7419
10.699
1
1
1
1
1
1
1
1
1
1
1
1
3.09163
9.17934
10.1837
10.3213
10.4352
10.508
10.5415
10.5451
10.4993
10.423
10.296
10.2831
1
1
1
1
1
1
1
1
1
1
1
1
2.00786
8.31687
10.1415
10.1962
10.2866
10.3266
10.3117
10.2514
10.1071
9.84229
9.06386
7.18156
1
1
1
1
1
1
1
1
1
1
1
1
1.12721
7.18066
10.1918
10.0908
10.0865
10.0738
10.017
9.89255
9.65422
9.1835
8.3781
6.32089
1
1
1
1
1
1
1
1
1
1
1
1
1.00156
5.57025
9.58859
9.7239
9.78666
9.7627
9.68772
9.51483
9.21858
8.65617
7.82789
5.87921
1
1
1
1
1
1
1
1
1
1
1
1
0.999976
3.69933
9.00817
9.59038
9.61803
9.553
9.43296
9.20534
8.84792
8.27504
7.3768
5.80042
1
1
1
1
1
1
1
1
1
1
1
1
0.999994
1.9657
8.04905
9.53074
9.44146
9.33069
9.17141
8.90829
8.51465
7.95619
7.05929
5.83487
1
1
1
1
1
1
1
1
1
1
1
1
0.999999
1.09674
6.28812
9.20163
9.18908
9.08952
8.92075
8.64963
8.26138
7.70024
6.87873
5.92765
1
1
1
1
1
1
1
1
1
1
1
1
1
1.0005
3.83847
8.60885
9.0405
8.93586
8.74819
8.43969
8.05495
7.48667
6.77076
5.99462
1
1
1
1
1
1
1
1
1
1
1
1
1
0.999994
1.62243
7.63668
9.075
8.79604
8.55623
8.24486
7.83371
7.32975
6.71964
6.0548
1
1
1
1
1
1
1
1
1
1
1
1
1
0.999999
1.03391
5.60496
8.64609
8.45838
8.29258
8.02313
7.65686
7.20849
6.67508
6.09035
1
1
1
1
1
1
1
1
1
1
1
1
1
1
0.99997
2.80126
7.90709
8.34966
8.20145
7.93522
7.57768
7.14335
6.64541
6.12152
1
1
1
1
1
1
1
1
1
1
1
1
1
1
0.999988
1.22762
6.07848
8.301
8.11696
7.8324
7.47808
7.07002
6.61647
6.14564
1
1
1
1
1
1
1
1
1
1
1
1
1
1
0.999998
1.00399
3.23301
7.60474
7.99258
7.70807
7.38473
7.00735
6.59574
6.16128
1
1
1
1
1
1
1
1
1
1
1
1
1
1
1
1
1.33998
5.98521
7.96118
7.64421
7.33748
6.96725
6.57697
6.16506
1
1
1
1
1
1
1
1
1
1
1
1
1
1
1
1
1.00926
3.11563
7.23314
7.55359
7.25105
6.89482
6.53145
6.14846
1
1
1
1
1
1
1
1
1
1
1
1
1
1
1
1
1.00003
1.30988
5.47136
7.56792
7.19792
6.86692
6.52575
6.26557
1
1
1
1
1
1
1
1
1
1
1
1
1
1
1
1
1
1.00805
2.52095
6.57755
7.11368
6.83938
6.57739
6.78415
1
1
1
1
1
1
1
1
1
1
1
1
1
1
1
1
1
1.00004
1.1659
4.43593
6.93612
6.95126
7.25907
8.04653
1
1
1
1
1
1
1
1
1
1
1
1
1
1
1
1
1
1
1.00293
1.85587
5.42458
7.642
8.68419
9.22198
1
1
1
1
1
1
1
1
1
1
1
1
1
1
1
1
1
1
1.00001
1.0573
2.98897
8.51317
10.0893
9.78242
1
1
1
1
1
1
1
1
1
1
1
1
1
1
1
1
1
1
1
1.00077
1.59519
9.10588
10.9758
10.06
1
1
1
1
1
1
1
1
1
1
1
1
1
1
1
1
1
1
1
1
1.64309
8.58791
10.5532
9.8678
1
1
1
1
1
1
1
1
1
1
1
1
1
1
1
1
1
1
1
1
1.42336
7.80557
10.4776
10.0159
1
1
1
1
1
1
1
1
1
1
1
1
1
1
1
1
1
1
1
1
1.18948
7.24166
10.3832
10.0262
1
1
1
1
1
1
1
1
1
1
1
1
1
1
1
1
1
1
1
1
1.00982
6.53615
10.2754
10.0649
1
1
1
1
1
1
1
1
1
1
1
1
1
1
1
1
1
1
1
1
1.00006
5.86792
10.1381
10.0826
1
1
1
1
1
1
1
1
1
1
1
1
1
1
1
1
1
1
1
1
1
5.24249
10.0277
10.1262
1
1
1
1
1
1
1
1
1
1
1
1
1
1
1
1
1
1
1
1
1
4.67272
9.95671
10.181
1
1
1
1
1
1
1
1
1
1
1
1
1
1
1
1
1
1
1
1
1
4.20083
9.88474
10.2321
1
1
1
1
1
1
1
1
1
1
1
1
1
1
1
1
1
1
1
1
1
3.84254
9.80678
10.2762
1
1
1
1
1
1
1
1
1
1
1
1
1
1
1
1
1
1
1
1
1
3.5883
9.72776
10.3083
1
1
1
1
1
1
1
1
1
1
1
1
1
1
1
1
1
1
1
1
1
3.43296
9.65684
10.3217
1
1
1
1
1
1
1
1
1
1
1
1
1
1
1
1
1
1
1
1
1
3.37709
9.60256
10.3168
1.58826
0.432226
0.152665
0.152352
0.222325
0.279971
0.349547
0.458703
0.590788
0.730206
0.870253
1.01057
1.10213
1.2006
1.21785
1.2191
2.78252
4.91758
5.23508
5.31056
5.36329
5.4148
5.46594
5.5049
5.51309
5.49095
5.45951
5.43677
5.43552
5.44659
5.44588
5.41615
5.36919
5.32599
5.29867
5.28069
5.25014
5.19416
5.12431
5.06057
5.01584
4.98819
4.96205
4.92148
4.86281
4.79442
4.72861
4.67157
4.62285
4.57699
4.52445
4.45882
4.3891
4.327
4.27651
4.22881
4.16578
4.09368
4.02229
3.95593
3.9006
3.86112
3.81476
3.74987
3.68166
3.60868
3.53882
3.47994
3.42864
3.38998
3.34809
3.296
3.24089
3.17994
3.11626
3.06043
3.0159
2.97727
2.94164
2.90314
2.86068
2.81012
2.74886
2.68375
2.62839
2.58337
2.5666
2.59769
2.79216
3.41921
4.62978
4.76525
4.62493
4.53206
4.47065
4.43091
2.7883
1.4434
0.830377
0.624482
0.605737
0.576435
0.524453
0.486856
0.503691
0.551837
0.635741
0.728622
0.831758
0.928269
1.00872
1.04363
2.42457
4.80293
5.27707
5.42341
5.43649
5.43725
5.44759
5.47798
5.50029
5.49553
5.46907
5.43745
5.41298
5.4042
5.40289
5.39155
5.36156
5.32115
5.28185
5.25046
5.22223
5.18395
5.13174
5.07259
5.01529
4.96577
4.92531
4.89089
4.85308
4.79966
4.7301
4.65883
4.59478
4.54395
4.50488
4.46282
4.4022
4.33318
4.26758
4.20108
4.14082
4.0845
4.02513
3.96349
3.9052
3.85223
3.79499
3.73385
3.67144
3.60901
3.54368
3.47801
3.42123
3.37056
3.3255
3.28144
3.23317
3.18287
3.12683
3.06588
3.00797
2.96049
2.92119
2.88518
2.84572
2.80029
2.74587
2.68251
2.6225
2.59061
2.60268
2.68906
2.94131
3.43383
4.48161
4.68879
4.58809
4.50286
4.45525
4.41462
3.60746
2.44572
1.68884
1.14093
0.94996
0.867824
0.78347
0.668374
0.573095
0.581109
0.630247
0.687424
0.746605
0.78585
0.865807
0.921033
1.70632
4.63303
5.43392
5.46181
5.49559
5.4858
5.46913
5.47227
5.489
5.50108
5.50007
5.49078
5.47212
5.44462
5.41594
5.39057
5.36822
5.34619
5.31589
5.27032
5.21871
5.17051
5.12904
5.09227
5.05248
4.99921
4.93778
4.88182
4.83736
4.80238
4.75943
4.69172
4.61353
4.54088
4.48207
4.4423
4.41303
4.36455
4.29479
4.2114
4.12939
4.06546
4.00986
3.96558
3.92516
3.86616
3.79702
3.72349
3.65425
3.59765
3.54549
3.49362
3.4393
3.37923
3.31732
3.26119
3.21505
3.17428
3.13375
3.08932
3.03291
2.96631
2.90255
2.85343
2.81205
2.77034
2.72903
2.68447
2.63376
2.61808
2.6719
2.85902
3.13911
3.41311
4.10159
4.59741
4.57867
4.51269
4.47741
4.45192
4.21928
3.16301
2.45154
1.88894
1.41836
1.19451
1.12135
1.03069
0.88676
0.765969
0.741533
0.726848
0.698172
0.700392
0.737076
0.796527
1.10559
3.6529
5.5829
5.57385
5.53965
5.55229
5.54079
5.53407
5.51786
5.49201
5.46618
5.45125
5.45387
5.45081
5.42006
5.37838
5.33877
5.31
5.29645
5.27404
5.22273
5.16341
5.10818
5.06103
5.02467
4.9888
4.93626
4.8748
4.81723
4.76967
4.72954
4.67658
4.61124
4.54094
4.47535
4.4247
4.38947
4.34211
4.28189
4.21123
4.12715
4.0535
3.99607
3.9484
3.90808
3.85387
3.79384
3.7249
3.64664
3.57585
3.52237
3.47624
3.4299
3.38191
3.3294
3.2712
3.21077
3.1569
3.11494
3.07725
3.03581
2.98472
2.92444
2.86247
2.80709
2.75998
2.72542
2.70161
2.69036
2.73085
2.87352
3.12967
3.35772
3.4311
3.70184
4.26637
4.47856
4.43647
4.40712
4.43415
4.65186
3.73779
3.00807
2.45503
2.01175
1.62741
1.41517
1.32438
1.21632
1.04705
0.87769
0.816701
0.768019
0.766347
0.815005
0.950998
1.10694
2.02922
4.88166
5.78528
5.65255
5.57592
5.54551
5.56735
5.56783
5.53414
5.48772
5.45616
5.45345
5.46285
5.43904
5.39577
5.34956
5.3089
5.28137
5.26517
5.23075
5.17794
5.1222
5.06947
5.02269
4.98159
4.93409
4.87769
4.82273
4.77407
4.72386
4.66553
4.60062
4.53437
4.47747
4.43142
4.38649
4.33244
4.27447
4.20509
4.12021
4.04752
3.99442
3.94697
3.89637
3.84279
3.78608
3.72175
3.6475
3.57395
3.51389
3.46255
3.4146
3.36817
3.32107
3.27015
3.21448
3.15677
3.10286
3.05393
3.00757
2.96071
2.9094
2.85553
2.79941
2.75062
2.72237
2.72377
2.76191
2.90728
3.14621
3.36204
3.49687
3.47694
3.50214
3.8072
4.25596
4.39799
4.38335
4.40535
4.98358
4.17493
3.51479
2.92645
2.46791
2.10014
1.76933
1.57633
1.48738
1.3597
1.16492
1.00921
0.968244
1.01392
1.11926
1.27033
1.44704
1.54761
2.69089
5.00317
5.72942
5.73031
5.63834
5.56732
5.57396
5.57113
5.5325
5.48956
5.46386
5.45202
5.42477
5.38609
5.34422
5.30459
5.2725
5.24909
5.21459
5.16547
5.1113
5.05871
5.00957
4.96507
4.91487
4.8599
4.80867
4.75879
4.70478
4.64653
4.58326
4.52171
4.46882
4.4188
4.36605
4.31282
4.25625
4.18903
4.10942
4.03703
3.98013
3.92813
3.87636
3.82447
3.76964
3.70834
3.63851
3.56551
3.50136
3.44936
3.40336
3.35873
3.31318
3.2653
3.21377
3.15859
3.10195
3.04606
2.99497
2.94607
2.89738
2.84986
2.80176
2.76503
2.76051
2.7987
2.91878
3.16998
3.37775
3.48493
3.52622
3.51039
3.46183
3.53283
3.83883
4.20407
4.36469
4.38709
5.21073
4.49156
3.89262
3.33954
2.84606
2.49102
2.17774
1.86547
1.68523
1.57038
1.44432
1.32327
1.32113
1.46123
1.56743
1.66915
1.80031
1.791
1.86569
2.89627
4.89641
5.76079
5.79199
5.66646
5.56261
5.58092
5.58509
5.54358
5.49397
5.45071
5.41857
5.38597
5.34901
5.31097
5.27574
5.24375
5.20513
5.1578
5.10436
5.04856
4.99948
4.9547
4.90597
4.85501
4.8003
4.7397
4.67882
4.62219
4.56958
4.52006
4.46809
4.40946
4.34702
4.28571
4.22608
4.16537
4.10336
4.04002
3.97454
3.91087
3.85334
3.80041
3.74826
3.69344
3.63195
3.56213
3.49197
3.43425
3.38715
3.34437
3.30207
3.25858
3.21085
3.15833
3.09823
3.0362
2.9792
2.92695
2.88305
2.84317
2.816
2.81619
2.86138
2.98435
3.21635
3.45541
3.53916
3.53353
3.51163
3.5018
3.46218
3.44192
3.54422
3.83725
4.15663
4.35929
5.3899
4.73891
4.1724
3.68893
3.19455
2.776
2.49109
2.20224
1.94703
1.80502
1.75334
1.73427
1.8494
2.08905
2.12993
2.09856
2.0979
2.06642
2.01616
2.10644
3.00522
4.83577
5.73234
5.7686
5.64336
5.62825
5.62792
5.57497
5.51512
5.45767
5.41861
5.38849
5.35897
5.31944
5.27354
5.22961
5.18667
5.1414
5.09108
5.03567
4.98431
4.93724
4.88936
4.83967
4.78315
4.71537
4.64995
4.59874
4.55393
4.50893
4.45692
4.39634
4.32545
4.25305
4.19163
4.13875
4.08694
4.02995
3.9644
3.89384
3.82816
3.77211
3.72194
3.67266
3.61893
3.55511
3.48355
3.41997
3.37049
3.32783
3.28735
3.24594
3.2025
3.15214
3.09279
3.02688
2.96217
2.90894
2.86899
2.84714
2.85502
2.90396
3.0539
3.26693
3.53136
3.64371
3.64034
3.57394
3.51102
3.48138
3.46186
3.44121
3.4578
3.56269
3.79562
4.16533
5.51341
4.93127
4.38103
3.93457
3.5065
3.06338
2.71818
2.47838
2.26485
2.27282
2.30566
2.31363
2.47254
2.54974
2.55784
2.47091
2.38953
2.36534
2.28714
2.26002
2.3455
3.07944
4.65746
5.53075
5.71217
5.71141
5.69251
5.6024
5.51863
5.45631
5.41836
5.39374
5.3679
5.32571
5.27067
5.21304
5.16691
5.12396
5.07899
5.02749
4.97056
4.91586
4.86688
4.81791
4.76306
4.69742
4.63222
4.58084
4.536
4.48927
4.43772
4.37776
4.30333
4.22436
4.16259
4.11227
4.06237
4.00822
3.94656
3.87717
3.80758
3.74748
3.69645
3.64851
3.59781
3.53834
3.46975
3.40595
3.35613
3.31408
3.27329
3.23147
3.18641
3.13547
3.07459
3.00875
2.94727
2.90116
2.87708
2.89139
2.9449
3.10468
3.32556
3.54239
3.70666
3.71683
3.68815
3.61833
3.53601
3.49051
3.46613
3.45288
3.44158
3.46758
3.53702
3.85078
5.59718
5.08278
4.57591
4.10808
3.70754
3.33849
3.04466
2.84284
2.80593
3.00316
3.01622
2.94453
2.99137
2.91042
2.87006
2.80798
2.69979
2.67531
2.59902
2.52746
2.50069
2.54778
3.05617
4.38467
5.36624
5.70316
5.76448
5.68003
5.5393
5.45055
5.41299
5.39473
5.372
5.32616
5.26284
5.19432
5.14604
5.10481
5.06442
5.0137
4.95312
4.88906
4.83743
4.78984
4.73943
4.68349
4.62176
4.56049
4.50748
4.4585
4.40796
4.35081
4.2811
4.20368
4.13602
4.08058
4.02906
3.97641
3.91959
3.8567
3.78989
3.72681
3.67153
3.62086
3.56948
3.51253
3.44946
3.39034
3.34299
3.30175
3.26009
3.21461
3.16417
3.10596
3.04381
2.98254
2.93866
2.91815
2.93462
3.00176
3.16575
3.41814
3.58173
3.68612
3.73711
3.74032
3.70669
3.65939
3.59811
3.52865
3.48764
3.46405
3.44735
3.4339
3.44593
3.58067
5.6594
5.18532
4.72188
4.27613
3.90904
3.66178
3.58829
3.54315
3.60131
3.75317
3.64081
3.42323
3.3726
3.24765
3.16771
3.14551
3.03083
2.95719
2.89167
2.79452
2.75774
2.68804
2.7086
3.05264
4.13908
5.20788
5.66817
5.72127
5.5981
5.45925
5.40944
5.38972
5.36874
5.32069
5.25192
5.17559
5.1255
5.08532
5.04755
4.99732
4.93504
4.86193
4.80749
4.76268
4.71703
4.66718
4.60811
4.54018
4.47621
4.42243
4.37166
4.31768
4.25584
4.18512
4.11317
4.04966
3.99395
3.94097
3.88732
3.83048
3.76927
3.70691
3.64824
3.59381
3.5403
3.48428
3.42532
3.37019
3.3253
3.28573
3.24544
3.19866
3.14276
3.07494
3.00839
2.95948
2.95157
2.98329
3.0927
3.27548
3.56018
3.72679
3.74239
3.73079
3.71938
3.7284
3.71644
3.68757
3.65427
3.60227
3.53407
3.48446
3.45552
3.4258
3.412
3.45044
5.70528
5.26346
4.84958
4.50151
4.28264
4.3458
4.44824
4.32858
4.27702
4.27335
4.09786
3.81149
3.69801
3.59196
3.48863
3.45904
3.35992
3.21896
3.16558
3.06379
3.00845
2.95392
2.83807
2.84473
3.04281
3.89529
4.98385
5.55103
5.61683
5.49747
5.42841
5.39024
5.3643
5.31332
5.24256
5.15924
5.10572
5.06418
5.02721
4.97898
4.91791
4.83881
4.77946
4.73578
4.6914
4.64155
4.58353
4.51493
4.44488
4.38671
4.33489
4.28183
4.2234
4.1572
4.0861
4.01929
3.96085
3.90702
3.85378
3.79857
3.74004
3.67996
3.62221
3.56835
3.51608
3.46182
3.40296
3.3437
3.29536
3.257
3.22101
3.18025
3.12824
3.05948
2.98403
2.97088
2.9995
3.13952
3.37041
3.64029
3.8658
3.88727
3.84341
3.76028
3.71945
3.70263
3.70696
3.7073
3.68487
3.6517
3.60065
3.53115
3.47613
3.44184
3.4145
3.40492
5.737
5.37107
5.10782
5.06362
5.11651
5.3172
5.23485
4.91725
4.7315
4.62544
4.46945
4.21007
4.03544
3.96515
3.81521
3.73481
3.6524
3.48862
3.41923
3.33816
3.24593
3.20095
3.09783
2.95715
2.96844
3.07567
3.67105
4.68306
5.3626
5.46206
5.45504
5.4021
5.37074
5.3114
5.23748
5.14626
5.08455
5.04035
5.00306
4.95724
4.8994
4.81868
4.75352
4.70758
4.66005
4.60813
4.5511
4.48389
4.41297
4.35408
4.30117
4.24599
4.18543
4.11848
4.04848
3.98409
3.92891
3.87767
3.82503
3.76799
3.70595
3.64317
3.58687
3.5388
3.49449
3.448
3.39242
3.32493
3.26133
3.21829
3.18417
3.15004
3.11214
3.06375
3.02722
3.05435
3.18239
3.44839
3.66901
3.88003
3.96457
3.9514
3.90657
3.82562
3.74883
3.71382
3.69547
3.6982
3.69537
3.66912
3.63368
3.58336
3.51891
3.47367
3.44135
3.40353
5.81387
5.66549
5.84127
6.0006
6.0245
5.99019
5.71407
5.32651
5.08051
4.95239
4.83631
4.61256
4.36781
4.28987
4.15357
4.01404
3.93213
3.76979
3.66116
3.5967
3.48213
3.41449
3.32809
3.19175
3.06882
3.04298
3.09695
3.49428
4.37723
5.09422
5.30124
5.39118
5.38909
5.33216
5.24069
5.13633
5.05806
5.01286
4.97637
4.93203
4.8761
4.79548
4.7257
4.67421
4.62297
4.57064
4.51377
4.44624
4.37757
4.32101
4.26746
4.20973
4.14498
4.07263
3.99974
3.93997
3.89294
3.84845
3.80008
3.74347
3.67567
3.60272
3.54325
3.50128
3.46599
3.42914
3.38236
3.31679
3.23833
3.17578
3.13487
3.10895
3.09839
3.1078
3.16295
3.3098
3.58545
3.7761
3.87123
3.94856
3.97948
3.96825
3.9338
3.88627
3.81858
3.75008
3.71409
3.69427
3.68955
3.67604
3.64807
3.61416
3.56568
3.50848
3.47481
3.42749
6.27177
6.59385
6.93403
6.79157
6.59132
6.37041
6.05382
5.69503
5.43287
5.3005
5.19263
4.97961
4.69262
4.55904
4.4693
4.30828
4.21137
4.06747
3.89752
3.82828
3.71589
3.61729
3.52771
3.40476
3.28119
3.17192
3.11717
3.13477
3.35809
4.02323
4.7634
5.14005
5.32464
5.34393
5.26947
5.13639
5.02966
4.98251
4.94382
4.90181
4.84652
4.76665
4.69193
4.6351
4.58395
4.53261
4.4726
4.39874
4.32972
4.276
4.22537
4.17058
4.10565
4.02637
3.94446
3.88872
3.8503
3.81277
3.77101
3.71976
3.65129
3.56856
3.50288
3.4631
3.43091
3.39708
3.3564
3.29903
3.22076
3.14172
3.10174
3.09946
3.13794
3.26045
3.45937
3.74088
3.97457
4.00155
3.99059
3.97024
3.96326
3.96344
3.94031
3.91054
3.86977
3.80724
3.74889
3.71832
3.6986
3.68517
3.66313
3.63505
3.59767
3.54216
3.49779
3.44974
7.29019
7.71245
7.60471
7.22974
6.9358
6.64976
6.37527
6.07243
5.80104
5.64367
5.52014
5.30785
5.01802
4.82838
4.75736
4.60964
4.4761
4.34577
4.14851
4.04046
3.94481
3.82334
3.72748
3.60367
3.47851
3.36917
3.25681
3.17709
3.15798
3.25091
3.69155
4.40239
4.94816
5.2033
5.23948
5.13461
5.03207
4.9692
4.91314
4.86686
4.80843
4.72176
4.64468
4.59435
4.54994
4.50104
4.43617
4.35221
4.27814
4.2244
4.17554
4.12584
4.06663
3.98456
3.88854
3.83174
3.79985
3.76941
3.73521
3.69178
3.6297
3.54572
3.47121
3.42583
3.38893
3.35182
3.3113
3.26226
3.20175
3.13045
3.11938
3.15806
3.3159
3.56998
3.81256
4.07488
4.14125
4.12463
4.06447
3.99665
3.96765
3.95241
3.94172
3.92101
3.89253
3.85126
3.79307
3.74594
3.72011
3.69881
3.67628
3.64925
3.61675
3.57118
3.5224
3.46712
8.45958
8.37713
7.9359
7.52658
7.24861
6.95353
6.69135
6.43586
6.15754
5.95951
5.8189
5.61529
5.336
5.11967
5.02917
4.90599
4.73284
4.59043
4.40094
4.24526
4.15681
4.03802
3.92418
3.79896
3.6559
3.54672
3.43883
3.3207
3.22418
3.18675
3.20974
3.45099
4.03142
4.67821
5.01788
5.0365
5.01627
4.97496
4.91419
4.84889
4.76956
4.66095
4.58547
4.5477
4.51168
4.46357
4.39459
4.30329
4.2241
4.16494
4.11586
4.06875
4.01724
3.94974
3.86298
3.79788
3.76452
3.73445
3.69921
3.65476
3.59887
3.52554
3.44412
3.38592
3.34029
3.29753
3.25913
3.23
3.19593
3.18101
3.23083
3.3947
3.69481
3.90604
4.08056
4.18774
4.18918
4.15735
4.10265
4.03479
3.98899
3.96452
3.94918
3.93324
3.90929
3.87849
3.83544
3.78072
3.73811
3.71087
3.68638
3.66052
3.63266
3.59911
3.55889
3.49248
9.09448
8.66665
8.12671
7.78459
7.57091
7.29254
6.99997
6.77213
6.50721
6.26459
6.1003
5.91462
5.64613
5.41582
5.29271
5.17286
4.9908
4.8138
4.64243
4.46673
4.35544
4.24409
4.11122
3.98341
3.83501
3.70342
3.60429
3.50141
3.37769
3.26599
3.1873
3.16842
3.27879
3.6973
4.32888
4.76193
4.8633
4.92582
4.91124
4.83422
4.73379
4.61971
4.5523
4.51824
4.48509
4.43598
4.36687
4.27076
4.15649
4.09612
4.06397
4.02825
3.98577
3.93382
3.85776
3.76443
3.69584
3.65644
3.62883
3.60398
3.57025
3.51207
3.42274
3.33894
3.28727
3.25375
3.23301
3.22386
3.24667
3.34439
3.55356
3.87218
4.09058
4.14476
4.18522
4.19094
4.18342
4.16027
4.1281
4.08605
4.02977
3.99309
3.97155
3.94796
3.92365
3.8968
3.86439
3.81854
3.75993
3.71844
3.69377
3.67139
3.64683
3.61994
3.58819
3.52013
9.40111
8.90299
8.37472
8.09001
7.90908
7.63423
7.2996
7.06881
6.84274
6.5674
6.36794
6.20256
5.95212
5.70541
5.55653
5.4166
5.23872
5.03339
4.86126
4.69585
4.55171
4.43073
4.29289
4.14347
4.00369
3.86652
3.75357
3.65525
3.54414
3.41322
3.28112
3.16961
3.1454
3.18657
3.44353
3.97943
4.44912
4.72982
4.8181
4.78824
4.68362
4.55111
4.47875
4.43876
4.40031
4.35138
4.29189
4.21116
4.09948
4.01665
3.97061
3.93125
3.89408
3.85499
3.81081
3.7464
3.66807
3.60404
3.55971
3.52202
3.48486
3.44509
3.39725
3.32283
3.24419
3.21323
3.21212
3.25614
3.42784
3.70572
4.02108
4.2662
4.29235
4.24805
4.20558
4.18118
4.17451
4.17738
4.15575
4.12858
4.07897
4.00715
3.96274
3.94329
3.93077
3.91021
3.88597
3.85389
3.7985
3.73738
3.70751
3.68378
3.65783
3.63092
3.60588
3.54879
9.56929
9.05667
8.65009
8.40382
8.23069
7.94939
7.58959
7.34051
7.14895
6.87511
6.62417
6.45497
6.23869
5.97507
5.7972
5.64277
5.46518
5.26109
5.06436
4.90544
4.74731
4.60179
4.46301
4.30958
4.15551
4.02205
3.90139
3.79016
3.68417
3.56349
3.42894
3.28898
3.18704
3.13143
3.13172
3.26294
3.63536
4.09958
4.50294
4.66324
4.63628
4.53957
4.4588
4.39881
4.34144
4.28495
4.22484
4.14686
4.0499
3.97256
3.9209
3.87998
3.84227
3.79949
3.74645
3.68666
3.62488
3.56239
3.50877
3.46386
3.42274
3.37608
3.32323
3.27603
3.23387
3.2294
3.29123
3.51401
3.83678
4.09245
4.31605
4.36775
4.3463
4.28504
4.21632
4.19246
4.19628
4.21028
4.1951
4.16756
4.11871
4.03465
3.97287
3.95025
3.94156
3.94079
3.92165
3.89339
3.84724
3.78028
3.71887
3.6873
3.67271
3.6574
3.63709
3.58633
9.55991
9.28955
8.97388
8.71166
8.52058
8.22993
7.8693
7.63257
7.4625
7.20434
6.91821
6.71852
6.50816
6.24148
6.01981
5.85704
5.66987
5.4652
5.26145
5.08084
4.92488
4.77021
4.61241
4.4553
4.30215
4.16048
4.03318
3.91412
3.79611
3.67326
3.54602
3.41229
3.2876
3.1816
3.13418
3.07853
3.09926
3.32099
3.75797
4.28196
4.49313
4.4751
4.43497
4.36157
4.28111
4.21352
4.14965
4.07592
4.00314
3.94407
3.89041
3.83558
3.78036
3.73039
3.68434
3.63845
3.59093
3.53886
3.47515
3.40331
3.34167
3.29407
3.2667
3.26438
3.28899
3.40182
3.65609
4.00631
4.19672
4.30174
4.38982
4.40265
4.37808
4.32183
4.25387
4.21414
4.19445
4.187
4.18952
4.17135
4.13751
4.08067
4.0163
3.97512
3.94976
3.93031
3.91451
3.89296
3.86328
3.81643
3.75722
3.71094
3.67756
3.6487
3.62771
3.58488
9.82507
9.54043
9.22393
8.95706
8.76664
8.48999
8.13564
7.87559
7.68973
7.45278
7.1539
6.89421
6.74711
6.54464
6.29932
6.10748
5.91686
5.71057
5.51459
5.33352
5.16694
5.0064
4.84208
4.678
4.52153
4.3757
4.23904
4.10712
3.97459
3.842
3.71321
3.59501
3.47668
3.35602
3.22696
3.09798
3.00543
3.00684
3.13746
3.50295
3.98856
4.21847
4.32874
4.32132
4.24378
4.15312
4.07086
3.99901
3.95258
3.90869
3.85814
3.79382
3.7111
3.64623
3.61202
3.58077
3.54755
3.50432
3.43881
3.34316
3.26628
3.24142
3.25725
3.32068
3.52599
3.84022
4.19817
4.37427
4.3763
4.39506
4.40059
4.40078
4.38018
4.34944
4.30692
4.24716
4.20096
4.18075
4.16911
4.15548
4.13355
4.11073
4.07792
4.02267
3.97098
3.93818
3.91212
3.88521
3.85499
3.82143
3.78614
3.74414
3.70129
3.66651
3.64045
3.59223
9.84806
9.59444
9.34977
9.13303
8.91047
8.61569
8.3196
8.08031
7.90468
7.7016
7.39145
7.10328
6.91422
6.73473
6.49263
6.24684
6.04259
5.83308
5.63319
5.44771
5.26699
5.09075
4.91788
4.74963
4.59054
4.44195
4.29897
4.15593
4.00978
3.86459
3.72807
3.60928
3.49797
3.38525
3.27013
3.15082
3.04275
2.94178
2.91782
2.9897
3.27329
3.66258
3.99917
4.22198
4.20137
4.1124
4.00856
3.93592
3.89379
3.85958
3.81671
3.75555
3.66481
3.57469
3.53461
3.50755
3.48702
3.44832
3.39026
3.31121
3.25245
3.2633
3.32125
3.57678
3.95323
4.28692
4.49385
4.5244
4.47344
4.39919
4.36078
4.34686
4.3538
4.35221
4.33581
4.29755
4.23387
4.1899
4.16826
4.15137
4.13542
4.11713
4.09355
4.05314
3.99657
3.95184
3.91947
3.88917
3.8593
3.83097
3.80083
3.76298
3.71993
3.68251
3.65458
3.60343
9.88828
9.67825
9.4775
9.26768
9.0285
8.76338
8.51375
8.30132
8.10897
7.84109
7.52218
7.2648
7.08705
6.90817
6.6668
6.39297
6.17938
5.9865
5.79187
5.60753
5.41906
5.22349
5.03372
4.85937
4.70165
4.5558
4.41364
4.26619
4.10831
3.9488
3.80399
3.68082
3.57235
3.46377
3.35046
3.22329
3.09577
2.97954
2.9007
2.84681
2.88047
3.04509
3.38075
3.79364
4.06081
4.06427
3.97614
3.88632
3.83643
3.79848
3.7607
3.71237
3.64085
3.53695
3.45974
3.42337
3.39683
3.36618
3.33459
3.31435
3.30817
3.37543
3.66426
4.05997
4.31897
4.54552
4.59493
4.56967
4.488
4.38981
4.35415
4.34375
4.3495
4.35921
4.34437
4.31602
4.26597
4.20996
4.18116
4.16353
4.14613
4.12604
4.10063
4.0636
4.01225
3.96391
3.92977
3.90165
3.87471
3.84728
3.81614
3.7778
3.73314
3.69067
3.65902
3.60618
9.89165
9.71961
9.52817
9.32241
9.0953
8.85951
8.63457
8.42824
8.19775
7.91547
7.64258
7.42651
7.26908
7.06443
6.79233
6.50382
6.29074
6.1119
5.92272
5.73223
5.52729
5.31069
5.11027
4.93997
4.79033
4.649
4.5041
4.34487
4.17379
4.00964
3.86942
3.74867
3.63813
3.52617
3.40415
3.27344
3.14663
3.03632
2.94299
2.85841
2.78834
2.77105
2.85776
3.14549
3.58488
3.90876
3.93129
3.84875
3.78052
3.73376
3.69502
3.65414
3.60838
3.53116
3.4184
3.34631
3.30978
3.28244
3.30701
3.34129
3.47198
3.81739
4.24908
4.42957
4.51853
4.56559
4.55988
4.52429
4.47837
4.42493
4.38604
4.36975
4.35931
4.35446
4.33777
4.31167
4.27779
4.23396
4.19653
4.17404
4.1538
4.13027
4.10088
4.06416
4.02063
3.97752
3.9424
3.91506
3.88999
3.86331
3.83039
3.78754
3.73899
3.69341
3.66168
3.6131
9.90062
9.7498
9.56415
9.36427
9.15323
8.9387
8.72987
8.51255
8.26631
8.00721
7.76842
7.57455
7.39226
7.14011
6.85326
6.60252
6.41128
6.23794
6.03991
5.82456
5.59786
5.38447
5.20139
5.03918
4.88635
4.73187
4.56557
4.3894
4.22161
4.07386
3.94345
3.82161
3.69996
3.5709
3.43645
3.30904
3.19625
3.09674
3.00047
2.9027
2.79893
2.71206
2.66531
2.7222
2.97043
3.39374
3.73859
3.78265
3.72836
3.66636
3.62121
3.58426
3.54422
3.49217
3.40013
3.29637
3.25498
3.2577
3.30455
3.52525
3.94571
4.38228
4.58855
4.58599
4.54794
4.5184
4.50202
4.49482
4.4815
4.4625
4.42868
4.38774
4.36382
4.34744
4.33138
4.31036
4.28749
4.26
4.22182
4.18247
4.15152
4.12236
4.09151
4.06023
4.03005
4.00082
3.96967
3.9369
3.90298
3.86636
3.8256
3.78143
3.73913
3.70286
3.67664
3.62893
9.92966
9.77774
9.59162
9.40039
9.20331
9.00608
8.79987
8.57139
8.32772
8.09249
7.88542
7.69775
7.46526
7.18712
6.92103
6.71316
6.53927
6.34122
6.11202
5.86239
5.65284
5.46989
5.29916
5.13415
4.96371
4.77942
4.59155
4.41986
4.26898
4.13594
4.01101
3.88311
3.74401
3.5958
3.45611
3.33855
3.23945
3.14952
3.05586
2.95311
2.83141
2.71508
2.62769
2.59275
2.63596
2.837
3.18436
3.57471
3.65172
3.61082
3.55864
3.50998
3.46391
3.4149
3.35499
3.29056
3.25774
3.29715
3.53864
4.00674
4.41667
4.6405
4.65061
4.61379
4.54287
4.50397
4.48468
4.48335
4.48702
4.47296
4.44861
4.40516
4.37053
4.3519
4.33581
4.32065
4.30034
4.2733
4.22894
4.17567
4.139
4.11385
4.09223
4.07203
4.0507
4.02471
3.98736
3.94079
3.89565
3.85634
3.82349
3.79396
3.7626
3.72458
3.68841
3.62967
9.96227
9.8087
9.62366
9.43651
9.24238
9.04311
8.82772
8.60104
8.37495
8.16184
7.96389
7.74535
7.47131
7.20353
6.99769
6.82897
6.63144
6.39934
6.13899
5.90659
5.71945
5.54819
5.3785
5.20435
5.01193
4.80589
4.61573
4.45526
4.31811
4.19132
4.06556
3.92966
3.77573
3.61569
3.47694
3.36841
3.2763
3.18764
3.09321
2.98943
2.86326
2.7369
2.63905
2.57054
2.54566
2.56277
2.68403
2.99793
3.39162
3.5095
3.4905
3.44519
3.39116
3.33511
3.30865
3.29555
3.35028
3.60274
4.09647
4.41563
4.61874
4.68752
4.66863
4.63019
4.56337
4.51132
4.48983
4.47853
4.47681
4.46565
4.44842
4.4173
4.38268
4.36206
4.34365
4.3235
4.29883
4.26452
4.21735
4.17351
4.1464
4.12522
4.10607
4.08718
4.06302
4.02841
3.97846
3.93061
3.89638
3.86871
3.8421
3.81367
3.77798
3.72685
3.67765
3.62082
9.99358
9.83749
9.65334
9.4679
9.27336
9.06892
8.85415
8.63743
8.42515
8.2192
8.0057
7.75587
7.49724
7.27631
7.08939
6.90613
6.67934
6.42464
6.17294
5.96215
5.78124
5.60789
5.43099
5.2422
5.03633
4.8303
4.64865
4.49594
4.36159
4.23488
4.1048
3.95918
3.79818
3.64104
3.50601
3.39455
3.30237
3.2202
3.13075
3.02377
2.90071
2.77431
2.66638
2.58069
2.51626
2.47934
2.48036
2.55843
2.83059
3.18199
3.33395
3.37091
3.32728
3.29543
3.3146
3.41563
3.70794
4.20142
4.50249
4.59473
4.64255
4.66965
4.65365
4.62382
4.5729
4.52133
4.49802
4.48333
4.47602
4.4662
4.45113
4.42862
4.39695
4.36718
4.34273
4.31788
4.28949
4.25651
4.22124
4.1883
4.16292
4.14133
4.11953
4.09416
4.06019
4.0172
3.97278
3.93686
3.90903
3.88287
3.8543
3.81947
3.77671
3.72485
3.68053
3.62701
10.0185
9.86037
9.67563
9.48955
9.29387
9.0901
8.88122
8.6714
8.4625
8.24974
8.02061
7.77589
7.54278
7.336
7.14438
6.93552
6.69432
6.44348
6.21726
6.01968
5.83333
5.64741
5.45592
5.25274
5.0479
4.85896
4.69323
4.54212
4.39828
4.25752
4.10994
3.955
3.80664
3.67274
3.5518
3.43681
3.32385
3.21489
3.10904
3.00344
2.90761
2.81529
2.72279
2.62789
2.53298
2.44715
2.38356
2.36373
2.42829
2.66243
2.97205
3.20243
3.24702
3.30572
3.46978
3.79795
4.26065
4.60572
4.71763
4.68168
4.64233
4.62969
4.61917
4.60187
4.57367
4.53325
4.50809
4.49325
4.48088
4.46865
4.45312
4.43248
4.40392
4.37181
4.34243
4.31578
4.28892
4.26028
4.23194
4.20695
4.18141
4.1535
4.12263
4.08804
4.05011
4.01194
3.97713
3.94739
3.9183
3.88772
3.85393
3.81516
3.77391
3.73166
3.69737
3.64163
10.0314
9.87162
9.6869
9.50134
9.30682
9.1064
8.90163
8.69366
8.48111
8.2602
8.03052
7.80198
7.5844
7.38119
7.1677
6.9224
6.67873
6.46258
6.26408
6.06899
5.87151
5.66592
5.45311
5.24626
5.05602
4.88939
4.73732
4.58702
4.42983
4.26135
4.09442
3.94302
3.81239
3.69877
3.59082
3.47717
3.35309
3.21985
3.0957
2.99147
2.90472
2.82899
2.75367
2.66551
2.56194
2.44673
2.35212
2.28902
2.27011
2.32443
2.53286
2.8546
3.14391
3.47638
3.91022
4.25762
4.60597
4.72453
4.71632
4.66883
4.62625
4.60293
4.59196
4.58324
4.5701
4.55019
4.52315
4.50318
4.48775
4.47263
4.45492
4.43278
4.40537
4.37392
4.34342
4.3164
4.29122
4.26836
4.24724
4.22348
4.19388
4.15699
4.11752
4.0801
4.04529
4.01317
3.98419
3.95502
3.92239
3.88579
3.84777
3.81066
3.77497
3.74198
3.71411
3.65546
10.0369
9.88177
9.69774
9.5126
9.31968
9.12147
8.91764
8.70726
8.48899
8.26518
8.04306
7.83074
7.62571
7.4109
7.16217
6.91468
6.68899
6.4895
6.30644
6.10419
5.89474
5.67009
5.439
5.23478
5.06749
4.91829
4.77313
4.62059
4.44589
4.24986
4.06652
3.92699
3.82023
3.72407
3.62661
3.51381
3.37017
3.20394
3.06419
2.97123
2.90416
2.84359
2.77975
2.70032
2.5854
2.44326
2.3221
2.25185
2.21307
2.20647
2.26925
2.5037
3.04
3.72277
4.27155
4.71995
4.94218
4.89374
4.76964
4.66742
4.61159
4.59038
4.57818
4.57317
4.56622
4.55391
4.5338
4.50853
4.48949
4.4725
4.45327
4.43097
4.40574
4.37719
4.34641
4.31914
4.29784
4.27788
4.25583
4.22934
4.19601
4.15566
4.1126
4.07402
4.04259
4.01617
3.99016
3.96076
3.92451
3.88119
3.8387
3.80483
3.77874
3.75308
3.7259
3.65897
)
;

boundaryField
{
    inlet
    {
        type            fixedValue;
        value           uniform 1;
    }
    outlet
    {
        type            zeroGradient;
    }
    bottom
    {
        type            symmetryPlane;
    }
    top
    {
        type            symmetryPlane;
    }
    obstacle
    {
        type            zeroGradient;
    }
    defaultFaces
    {
        type            empty;
    }
}


// ************************************************************************* //
