/*--------------------------------*- C++ -*----------------------------------*\
  =========                 |
  \\      /  F ield         | OpenFOAM: The Open Source CFD Toolbox
   \\    /   O peration     | Website:  https://openfoam.org
    \\  /    A nd           | Version:  7
     \\/     M anipulation  |
\*---------------------------------------------------------------------------*/
FoamFile
{
    version     2.0;
    format      ascii;
    class       volScalarField;
    location    "8.5";
    object      rho;
}
// * * * * * * * * * * * * * * * * * * * * * * * * * * * * * * * * * * * * * //

dimensions      [1 -3 0 0 0 0 0];

internalField   nonuniform List<scalar> 
4032
(
1.40001
1.40001
1.40001
1.40001
1.40001
1.40001
1.40001
1.40001
1.40001
1.40001
1.40001
1.58556
4.40192
5.4674
5.51426
5.59001
5.65727
5.72104
5.77926
5.83135
5.87755
5.91474
5.94327
5.96439
1.40001
1.40001
1.40001
1.40001
1.40001
1.40001
1.40001
1.40001
1.40001
1.40001
1.40001
1.56245
4.33204
5.45229
5.50903
5.58323
5.6491
5.71107
5.7674
5.81715
5.8607
5.89529
5.92078
5.94087
1.40001
1.40001
1.40001
1.40001
1.40001
1.40001
1.40001
1.40001
1.40001
1.40001
1.40001
1.50691
4.22306
5.4431
5.49399
5.56725
5.63301
5.69435
5.7497
5.79782
5.83895
5.87064
5.89131
5.9084
1.40001
1.40001
1.40001
1.40001
1.40001
1.40001
1.40001
1.40001
1.40001
1.40001
1.40001
1.4125
4.04297
5.43223
5.47645
5.54241
5.604
5.66107
5.7133
5.75946
5.79967
5.83026
5.8478
5.86129
1.40001
1.40001
1.40001
1.40001
1.40001
1.40001
1.40001
1.40001
1.40001
1.40001
1.40001
1.40019
3.76695
5.37209
5.42907
5.49271
5.55511
5.61151
5.6617
5.70317
5.73582
5.76047
5.77403
5.79267
1.40001
1.40001
1.40001
1.40001
1.40001
1.40001
1.40001
1.40001
1.40001
1.40001
1.40001
1.4
3.4088
5.28848
5.38977
5.44831
5.50723
5.55645
5.59855
5.63341
5.66174
5.68553
5.69517
5.68656
1.40001
1.40001
1.40001
1.40001
1.40001
1.40001
1.40001
1.40001
1.40001
1.40001
1.40001
1.4
2.98767
5.17075
5.3606
5.41056
5.45772
5.49328
5.52056
5.54048
5.54775
5.53663
5.51902
5.51151
1.40001
1.40001
1.40001
1.40001
1.40001
1.40001
1.40001
1.40001
1.40001
1.40001
1.40001
1.40001
2.51323
5.01138
5.36844
5.39317
5.4206
5.43769
5.44329
5.44104
5.42295
5.39377
5.33867
5.31055
1.40001
1.40001
1.40001
1.40001
1.40001
1.40001
1.40001
1.40001
1.40001
1.40001
1.40001
1.40001
1.99279
4.77115
5.39998
5.37664
5.38707
5.38492
5.36881
5.33949
5.28029
5.1777
4.86301
4.0072
1.40001
1.40001
1.40001
1.40001
1.40001
1.40001
1.40001
1.40001
1.40001
1.40001
1.40001
1.40001
1.50076
4.35585
5.42605
5.3678
5.34402
5.31547
5.27629
5.21697
5.11632
4.92855
4.59865
3.70523
1.40001
1.40001
1.40001
1.40001
1.40001
1.40001
1.40001
1.40001
1.40001
1.40001
1.40001
1.40001
1.40132
3.64433
5.18599
5.24197
5.25316
5.22522
5.17631
5.09259
4.96258
4.73014
4.38762
3.55893
1.40001
1.40001
1.40001
1.40001
1.40001
1.40001
1.40001
1.40001
1.40001
1.40001
1.40001
1.40001
1.39998
2.8258
4.99718
5.20118
5.19928
5.16587
5.1038
4.99634
4.8377
4.59376
4.21653
3.54613
1.40001
1.40001
1.40001
1.40001
1.40001
1.40001
1.40001
1.40001
1.40001
1.40001
1.40001
1.40001
1.4
2.00292
4.73563
5.20615
5.15679
5.09927
5.02241
4.90234
4.72821
4.48593
4.10214
3.57035
1.40001
1.40001
1.40001
1.40001
1.40001
1.40001
1.40001
1.40001
1.40001
1.40001
1.40001
1.40001
1.4
1.47856
4.01154
5.10759
5.07888
5.02555
4.94352
4.82028
4.64855
4.40384
4.04703
3.62619
1.40001
1.40001
1.40001
1.40001
1.40001
1.40001
1.40001
1.40001
1.40001
1.40001
1.40001
1.40001
1.4
1.40039
2.93978
4.94169
5.04078
4.98834
4.89791
4.75752
4.5859
4.33703
4.02208
3.67382
1.40001
1.40001
1.40001
1.40001
1.40001
1.40001
1.40001
1.40001
1.40001
1.40001
1.40001
1.40001
1.40001
1.4
1.83116
4.69004
5.10034
4.96985
4.84981
4.70217
4.5155
4.29086
4.02011
3.71981
1.40001
1.40001
1.40001
1.40001
1.40001
1.40001
1.40001
1.40001
1.40001
1.40001
1.40001
1.40001
1.40001
1.4
1.42833
3.76756
4.95905
4.86969
4.77673
4.64004
4.46608
4.26035
4.0197
3.75361
1.40001
1.40001
1.40001
1.40001
1.40001
1.40001
1.40001
1.40001
1.40001
1.40001
1.40001
1.40001
1.40001
1.4
1.39995
2.47443
4.76296
4.84587
4.77266
4.64126
4.46833
4.26306
4.03066
3.78725
1.40001
1.40001
1.40001
1.40001
1.40001
1.40001
1.40001
1.40001
1.40001
1.40001
1.40001
1.40001
1.40001
1.40001
1.39999
1.57817
4.02242
4.86149
4.76952
4.63049
4.45958
4.26387
4.04716
3.82267
1.40001
1.40001
1.40001
1.40001
1.40001
1.40001
1.40001
1.40001
1.40001
1.40001
1.40001
1.40001
1.40001
1.40001
1.4
1.4034
2.71747
4.6758
4.74065
4.60802
4.45164
4.26881
4.06909
3.85817
1.40001
1.40001
1.40001
1.40001
1.40001
1.40001
1.40001
1.40001
1.40001
1.40001
1.40001
1.40001
1.40001
1.40001
1.4
1.4
1.65995
4.03449
4.77349
4.6201
4.46567
4.2834
4.0917
3.89052
1.40001
1.40001
1.40001
1.40001
1.40001
1.40001
1.40001
1.40001
1.40001
1.40001
1.40001
1.40001
1.40001
1.40001
1.40001
1.4
1.40797
2.68463
4.58553
4.6096
4.46349
4.28593
4.1038
3.91379
1.40001
1.40001
1.40001
1.40001
1.40001
1.40001
1.40001
1.40001
1.40001
1.40001
1.40001
1.40001
1.40001
1.40001
1.40001
1.40001
1.40003
1.64015
3.84495
4.66826
4.48485
4.31193
4.13846
3.98943
1.40001
1.40001
1.40001
1.40001
1.40001
1.40001
1.40001
1.40001
1.40001
1.40001
1.40001
1.40001
1.40001
1.40001
1.40001
1.40001
1.40001
1.40704
2.39074
4.37429
4.48195
4.34369
4.19466
4.26739
1.40001
1.40001
1.40001
1.40001
1.40001
1.40001
1.40001
1.40001
1.40001
1.40001
1.40001
1.40001
1.40001
1.40001
1.40001
1.40001
1.40001
1.40004
1.53484
3.38861
4.46673
4.4398
4.54724
4.86871
1.40001
1.40001
1.40001
1.40001
1.40001
1.40001
1.40001
1.40001
1.40001
1.40001
1.40001
1.40001
1.40001
1.40001
1.40001
1.40001
1.40001
1.40001
1.40265
2.00983
3.87414
4.83427
5.24502
5.43157
1.40001
1.40001
1.40001
1.40001
1.40001
1.40001
1.40001
1.40001
1.40001
1.40001
1.40001
1.40001
1.40001
1.40001
1.40001
1.40001
1.40001
1.40001
1.40002
1.44827
2.67373
5.30336
5.87603
5.72948
1.40001
1.40001
1.40001
1.40001
1.40001
1.40001
1.40001
1.40001
1.40001
1.40001
1.40001
1.40001
1.40001
1.40001
1.40001
1.40001
1.40001
1.40001
1.40001
1.40073
1.79378
5.27227
6.12413
5.77304
1.40001
1.40001
1.40001
1.40001
1.40001
1.40001
1.40001
1.40001
1.40001
1.40001
1.40001
1.40001
1.40001
1.40001
1.40001
1.40001
1.40001
1.40001
1.40001
1.40001
1.74361
4.78754
5.75351
5.5257
1.40001
1.40001
1.40001
1.40001
1.40001
1.40001
1.40001
1.40001
1.40001
1.40001
1.40001
1.40001
1.40001
1.40001
1.40001
1.40001
1.40001
1.40001
1.40001
1.40001
1.63317
4.44301
5.53482
5.3961
1.40001
1.40001
1.40001
1.40001
1.40001
1.40001
1.40001
1.40001
1.40001
1.40001
1.40001
1.40001
1.40001
1.40001
1.40001
1.40001
1.40001
1.40001
1.40001
1.40001
1.51304
4.26371
5.41923
5.29839
1.40001
1.40001
1.40001
1.40001
1.40001
1.40001
1.40001
1.40001
1.40001
1.40001
1.40001
1.40001
1.40001
1.40001
1.40001
1.40001
1.40001
1.40001
1.40001
1.40001
1.40739
4.00959
5.3652
5.28967
1.40001
1.40001
1.40001
1.40001
1.40001
1.40001
1.40001
1.40001
1.40001
1.40001
1.40001
1.40001
1.40001
1.40001
1.40001
1.40001
1.40001
1.40001
1.40001
1.40001
1.40006
3.74728
5.32232
5.30044
1.40001
1.40001
1.40001
1.40001
1.40001
1.40001
1.40001
1.40001
1.40001
1.40001
1.40001
1.40001
1.40001
1.40001
1.40001
1.40001
1.40001
1.40001
1.40001
1.40001
1.4
3.49386
5.30979
5.32489
1.40001
1.40001
1.40001
1.40001
1.40001
1.40001
1.40001
1.40001
1.40001
1.40001
1.40001
1.40001
1.40001
1.40001
1.40001
1.40001
1.40001
1.40001
1.40001
1.40001
1.40001
3.25267
5.30599
5.35759
1.40001
1.40001
1.40001
1.40001
1.40001
1.40001
1.40001
1.40001
1.40001
1.40001
1.40001
1.40001
1.40001
1.40001
1.40001
1.40001
1.40001
1.40001
1.40001
1.40001
1.40001
3.04073
5.28304
5.38661
1.40001
1.40001
1.40001
1.40001
1.40001
1.40001
1.40001
1.40001
1.40001
1.40001
1.40001
1.40001
1.40001
1.40001
1.40001
1.40001
1.40001
1.40001
1.40001
1.40001
1.40001
2.87205
5.24622
5.40508
1.40001
1.40001
1.40001
1.40001
1.40001
1.40001
1.40001
1.40001
1.40001
1.40001
1.40001
1.40001
1.40001
1.40001
1.40001
1.40001
1.40001
1.40001
1.40001
1.40001
1.40001
2.75048
5.20999
5.41163
1.40001
1.40001
1.40001
1.40001
1.40001
1.40001
1.40001
1.40001
1.40001
1.40001
1.40001
1.40001
1.40001
1.40001
1.40001
1.40001
1.40001
1.40001
1.40001
1.40001
1.40001
2.67475
5.17863
5.41032
1.40001
1.40001
1.40001
1.40001
1.40001
1.40001
1.40001
1.40001
1.40001
1.40001
1.40001
1.40001
1.40001
1.40001
1.40001
1.40001
1.40001
1.40001
1.40001
1.40001
1.40001
2.6446
5.15403
5.40583
1.31438
0.518833
0.230756
0.209179
0.249132
0.294858
0.357753
0.458228
0.574948
0.677297
0.751074
0.824077
0.892191
0.97357
0.998894
1.00355
1.70666
2.51359
2.62877
2.6658
2.69277
2.719
2.74413
2.76375
2.77257
2.77189
2.76752
2.76531
2.77029
2.77946
2.78382
2.77798
2.76534
2.75394
2.74848
2.74626
2.73918
2.72226
2.6999
2.67947
2.66573
2.65795
2.65031
2.637
2.61693
2.59317
2.57031
2.55069
2.53404
2.51825
2.49986
2.47638
2.45114
2.42886
2.41117
2.39441
2.37128
2.34431
2.31744
2.29235
2.27158
2.25715
2.23948
2.21361
2.18606
2.15613
2.12712
2.1025
2.08087
2.06446
2.04661
2.02424
2.00054
1.97428
1.94673
1.92256
1.90327
1.88649
1.87118
1.85464
1.83624
1.81396
1.78654
1.75715
1.73201
1.71161
1.7036
1.71831
1.80873
2.08908
2.59157
2.64434
2.589
2.55292
2.52958
2.51575
2.01062
1.24286
0.836627
0.652867
0.622308
0.597316
0.564832
0.543553
0.558172
0.594467
0.646757
0.703603
0.775481
0.852844
0.916368
0.940746
1.58345
2.50017
2.66962
2.72915
2.73897
2.74504
2.75449
2.7709
2.78467
2.78946
2.78675
2.78129
2.77787
2.77977
2.78431
2.78489
2.77851
2.7678
2.75749
2.75016
2.74385
2.73351
2.7176
2.69871
2.68
2.66384
2.65095
2.64026
2.62815
2.60986
2.58507
2.55938
2.53642
2.51859
2.50527
2.49063
2.46849
2.4428
2.41838
2.39362
2.37136
2.35054
2.32827
2.30487
2.28262
2.26233
2.24003
2.21577
2.19055
2.16492
2.13764
2.10981
2.08552
2.06374
2.04432
2.02518
2.0041
1.98217
1.95771
1.93091
1.90536
1.88459
1.86755
1.85178
1.83429
1.814
1.7895
1.76079
1.73345
1.71934
1.72514
1.76581
1.88224
2.10298
2.54187
2.62399
2.58474
2.55161
2.53309
2.51757
2.48542
1.86299
1.41625
1.05824
0.922165
0.864121
0.803368
0.717118
0.647219
0.656166
0.696365
0.736835
0.779677
0.811648
0.873624
0.91517
1.3208
2.53117
2.81035
2.81687
2.82887
2.82589
2.82222
2.82702
2.83804
2.84792
2.85348
2.85592
2.85473
2.84985
2.84398
2.83885
2.83448
2.83004
2.82249
2.80915
2.79329
2.77845
2.76598
2.75518
2.743
2.72543
2.70455
2.68552
2.67045
2.65867
2.64347
2.61823
2.58867
2.56117
2.53884
2.5238
2.51286
2.49405
2.46652
2.43357
2.40121
2.37617
2.35445
2.33746
2.32205
2.29874
2.27102
2.2411
2.21247
2.18881
2.16661
2.14415
2.1203
2.09374
2.06606
2.04072
2.01972
2.00104
1.98242
1.96203
1.93628
1.90594
1.87668
1.85405
1.83504
1.81591
1.79695
1.77622
1.75255
1.74632
1.77239
1.86088
1.99326
2.11874
2.41544
2.62077
2.61318
2.58695
2.5727
2.56144
2.81622
2.27923
1.88766
1.5569
1.2634
1.11789
1.06801
1.00534
0.904317
0.81909
0.802828
0.791774
0.766854
0.767893
0.796338
0.8428
1.05402
2.26754
2.99588
2.98231
2.96513
2.96594
2.95975
2.9578
2.95376
2.94717
2.94203
2.94173
2.94802
2.95148
2.94371
2.9306
2.91813
2.9102
2.90837
2.90295
2.88549
2.86454
2.84538
2.82966
2.81843
2.8074
2.78934
2.76708
2.74582
2.72816
2.7132
2.69271
2.66663
2.63797
2.6108
2.58952
2.57448
2.55437
2.52893
2.49904
2.46342
2.43231
2.40823
2.38848
2.37212
2.34988
2.32493
2.29572
2.26203
2.23119
2.20759
2.18688
2.1657
2.14334
2.11852
2.09088
2.06202
2.03588
2.01504
1.9962
1.97572
1.95067
1.92134
1.89151
1.86495
1.84232
1.82549
1.81338
1.8085
1.82843
1.89781
2.02112
2.13084
2.16858
2.29454
2.54107
2.62867
2.61169
2.59804
2.60813
3.03247
2.58787
2.20916
1.90494
1.64838
1.41445
1.27908
1.21858
1.14591
1.0294
0.91035
0.867202
0.828872
0.825959
0.861157
0.961636
1.07285
1.60564
2.88647
3.20224
3.14525
3.10767
3.09229
3.1003
3.10055
3.08831
3.07306
3.06507
3.06803
3.07551
3.0691
3.05395
3.03734
3.02338
3.01494
3.01078
2.99873
2.97869
2.95768
2.93835
2.92169
2.90732
2.89003
2.86861
2.84736
2.82836
2.8082
2.78392
2.75616
2.72733
2.70218
2.68149
2.66114
2.63664
2.6102
2.57865
2.5404
2.50771
2.48393
2.46291
2.44068
2.4171
2.39197
2.36325
2.32984
2.29647
2.26894
2.245
2.22211
2.19941
2.17598
2.15041
2.12224
2.09281
2.06498
2.0394
2.01499
1.99041
1.96386
1.93614
1.90733
1.88225
1.86706
1.86761
1.88654
1.95752
2.07387
2.17899
2.24892
2.24306
2.26217
2.40587
2.6066
2.66739
2.65933
2.66638
3.19587
2.81116
2.48194
2.17415
1.92201
1.71064
1.51248
1.3919
1.33407
1.25025
1.11912
1.01138
0.982463
1.01475
1.08769
1.18997
1.30693
1.37099
1.97761
3.00727
3.2891
3.28327
3.2429
3.21229
3.21567
3.21535
3.20154
3.18724
3.18072
3.17925
3.17058
3.15621
3.14036
3.12569
3.11427
3.10624
3.09312
3.0734
3.05166
3.03096
3.01193
2.99485
2.97515
2.95307
2.93224
2.91162
2.88865
2.86315
2.83486
2.80694
2.78261
2.75941
2.73477
2.70959
2.68267
2.65086
2.6135
2.57955
2.55287
2.52862
2.50452
2.48029
2.4546
2.42581
2.39291
2.35837
2.32777
2.30263
2.27997
2.25753
2.23419
2.20928
2.18221
2.15308
2.12298
2.09309
2.06546
2.03883
2.01218
1.98598
1.9597
1.93943
1.93611
1.95433
2.01321
2.13698
2.23932
2.29297
2.323
2.31884
2.30231
2.34043
2.48768
2.65542
2.72623
2.73246
3.31408
2.97367
2.67996
2.39882
2.13768
1.94176
1.76231
1.5771
1.46612
1.39365
1.3123
1.23061
1.22852
1.31742
1.38502
1.44932
1.53261
1.52846
1.5727
2.11069
3.02056
3.39128
3.38645
3.33543
3.29383
3.30318
3.30672
3.29262
3.27562
3.26033
3.24876
3.23658
3.22241
3.20776
3.19422
3.18182
3.16621
3.14657
3.12436
3.10141
3.08158
3.06357
3.04355
3.02217
2.99876
2.97235
2.94534
2.91974
2.89552
2.87243
2.84808
2.82051
2.79094
2.76162
2.73291
2.70364
2.67375
2.6433
2.61193
2.58145
2.55382
2.52827
2.50296
2.47622
2.44612
2.41187
2.37733
2.34866
2.32495
2.30306
2.28103
2.25805
2.23264
2.20452
2.17235
2.13895
2.10784
2.07892
2.05402
2.0312
2.01532
2.01376
2.03439
2.09464
2.20908
2.3286
2.37129
2.37378
2.37062
2.36994
2.35413
2.35075
2.40405
2.54756
2.69745
2.78691
3.41269
3.10459
2.82841
2.58551
2.32985
2.10554
1.94696
1.78158
1.63037
1.54483
1.51168
1.49653
1.56626
1.70797
1.73261
1.71484
1.71643
1.69982
1.67254
1.72489
2.19413
3.04911
3.43525
3.4408
3.38863
3.38415
3.38601
3.36619
3.34332
3.32078
3.3056
3.29423
3.28312
3.26747
3.24868
3.23047
3.2125
3.19346
3.17231
3.1491
3.12778
3.10825
3.08801
3.06652
3.04155
3.01104
2.98119
2.9575
2.93648
2.91518
2.89052
2.86172
2.82788
2.79311
2.76335
2.73757
2.71226
2.68449
2.65264
2.61834
2.58631
2.55881
2.534
2.50942
2.48246
2.45036
2.4143
2.38208
2.35672
2.33458
2.31333
2.2914
2.26823
2.24128
2.20938
2.17379
2.13854
2.10931
2.08649
2.07316
2.07585
2.09859
2.17257
2.27864
2.41159
2.46883
2.4686
2.44083
2.41581
2.40464
2.3973
2.38939
2.40314
2.45897
2.5746
2.74873
3.4864
3.2106
2.94345
2.7201
2.50073
2.26762
2.08008
1.94561
1.82243
1.82533
1.84064
1.84295
1.93166
1.97761
1.98317
1.93556
1.89135
1.87962
1.83684
1.82433
1.87294
2.25635
3.01174
3.39575
3.46703
3.46652
3.46083
3.42332
3.38787
3.36209
3.34699
3.3379
3.32832
3.31118
3.28786
3.26308
3.24337
3.22519
3.20626
3.18451
3.16028
3.13687
3.11571
3.09415
3.06946
3.03934
3.00901
2.98484
2.96356
2.9413
2.91668
2.88794
2.85212
2.81389
2.78371
2.75896
2.73438
2.70773
2.67738
2.64319
2.60882
2.579
2.5535
2.52935
2.5036
2.47327
2.43814
2.40525
2.37927
2.35714
2.33554
2.31332
2.28933
2.26212
2.22945
2.19369
2.16028
2.13559
2.12046
2.12641
2.15256
2.23308
2.34482
2.45411
2.53759
2.54367
2.53085
2.49947
2.46266
2.44311
2.43281
2.42799
2.42526
2.44138
2.47945
2.6339
3.54235
3.29757
3.05167
2.81934
2.615
2.42207
2.26486
2.15249
2.12925
2.23154
2.23766
2.19894
2.22443
2.18201
2.16217
2.13042
2.07272
2.06162
2.02165
1.98403
1.97183
1.9984
2.26732
2.91751
3.35903
3.50381
3.52875
3.4938
3.43165
3.39348
3.37862
3.37235
3.36406
3.34487
3.31734
3.28725
3.26631
3.24868
3.23158
3.20985
3.18351
3.15533
3.13256
3.11131
3.08835
3.06239
3.03333
3.00421
2.97888
2.95539
2.93109
2.90348
2.86961
2.83176
2.79843
2.77095
2.74533
2.71906
2.69066
2.65919
2.62572
2.59405
2.56619
2.54049
2.51422
2.48489
2.45217
2.42124
2.39618
2.37413
2.3518
2.32745
2.30047
2.2693
2.23578
2.2025
2.17883
2.16588
2.17357
2.20718
2.29118
2.41921
2.50226
2.55613
2.58298
2.58558
2.57035
2.54878
2.52077
2.48846
2.47002
2.4599
2.45339
2.44835
2.45755
2.52656
3.59082
3.36381
3.1377
2.91618
2.72889
2.60021
2.55755
2.52757
2.55472
2.62834
2.57208
2.4617
2.43625
2.3717
2.33132
2.32136
2.26199
2.22499
2.1921
2.1414
2.12382
2.0885
2.10061
2.28559
2.82498
3.31982
3.52313
3.54486
3.49025
3.42888
3.40853
3.40166
3.39394
3.37327
3.34278
3.30878
3.28676
3.26933
3.25309
3.23116
3.20354
3.17065
3.14618
3.12591
3.10492
3.08159
3.05357
3.02109
2.99036
2.9644
2.93977
2.91344
2.88308
2.84816
2.81241
2.78067
2.75264
2.7258
2.69846
2.66944
2.63824
2.60648
2.57656
2.5487
2.52113
2.49201
2.46104
2.43175
2.40765
2.38622
2.36431
2.3389
2.30863
2.27225
2.23633
2.21032
2.20385
2.21892
2.2754
2.37015
2.51385
2.59784
2.60806
2.60288
2.59951
2.60532
2.60025
2.58741
2.57263
2.54854
2.51597
2.49253
2.47956
2.46593
2.46133
2.48295
3.63637
3.42022
3.21564
3.04123
2.9254
2.95214
2.99421
2.9326
2.90373
2.90086
2.8149
2.67309
2.61649
2.56286
2.51099
2.49748
2.44777
2.37577
2.35032
2.29847
2.27135
2.24469
2.18471
2.18934
2.29799
2.72867
3.24876
3.50657
3.53221
3.478
3.44913
3.4334
3.42312
3.40087
3.36915
3.33163
3.3078
3.28943
3.27321
3.25176
3.22423
3.18803
3.16086
3.14084
3.12022
3.0967
3.06897
3.03592
3.002
2.97369
2.94833
2.92219
2.8932
2.86016
2.82447
2.79068
2.76087
2.73315
2.7055
2.67672
2.64625
2.61509
2.58514
2.55714
2.52982
2.50125
2.47
2.43819
2.41182
2.39057
2.37061
2.34803
2.31936
2.28229
2.24144
2.23265
2.247
2.31974
2.43883
2.57609
2.69031
2.70349
2.68172
2.64106
2.62282
2.6157
2.61875
2.62003
2.61055
2.59566
2.57156
2.53766
2.51108
2.49525
2.48253
2.48099
3.67974
3.49411
3.36026
3.32528
3.34214
3.42549
3.3845
3.23227
3.14099
3.08871
3.01313
2.8867
2.80101
2.76632
2.69177
2.65291
2.61284
2.53006
2.4968
2.457
2.41093
2.38993
2.33793
2.26527
2.27246
2.33491
2.64438
3.14047
3.45623
3.49956
3.49543
3.47208
3.45921
3.43299
3.3997
3.35819
3.33036
3.31054
3.29387
3.27318
3.24681
3.20938
3.17903
3.1576
3.13523
3.1105
3.083
3.05029
3.01557
2.98659
2.96036
2.93282
2.9024
2.8686
2.83303
2.79995
2.77123
2.74426
2.71637
2.68611
2.65326
2.62008
2.59027
2.56469
2.54096
2.51594
2.4859
2.44929
2.41437
2.39018
2.37079
2.35146
2.33017
2.30304
2.28082
2.29463
2.36205
2.50003
2.61267
2.71979
2.7665
2.76017
2.73793
2.69806
2.66087
2.64471
2.63686
2.6393
2.63912
2.62772
2.61156
2.58746
2.55582
2.53442
2.51941
2.50286
3.74959
3.65365
3.72499
3.78253
3.7766
3.75731
3.6284
3.44626
3.32775
3.26503
3.20878
3.10091
2.98241
2.94476
2.87798
2.80991
2.77087
2.69044
2.63763
2.60715
2.55034
2.51824
2.47615
2.40773
2.34145
2.33469
2.36754
2.58056
3.02449
3.36904
3.465
3.50563
3.50441
3.47949
3.43792
3.38987
3.35409
3.33362
3.31708
3.29679
3.27104
3.23329
3.20021
3.17562
3.15104
3.1258
3.09811
3.06489
3.03085
3.00255
2.97548
2.94604
2.9129
2.8758
2.83819
2.80688
2.78174
2.75765
2.73135
2.70069
2.66426
2.62519
2.59311
2.57013
2.55058
2.53005
2.50398
2.46754
2.42415
2.38949
2.36628
2.35102
2.34369
2.34633
2.37312
2.45035
2.59293
2.69123
2.74072
2.78219
2.79992
2.79472
2.7782
2.75547
2.72254
2.68898
2.67197
2.66321
2.66239
2.65738
2.6449
2.62935
2.60622
2.57859
2.56298
2.54168
3.98302
4.10787
4.23783
4.16289
4.06004
3.95597
3.81065
3.64255
3.51709
3.45256
3.40029
3.29846
3.16089
3.09717
3.05395
2.9758
2.92993
2.8603
2.77719
2.7452
2.69055
2.64319
2.60061
2.54019
2.47855
2.42203
2.39935
2.41164
2.5371
2.8824
3.25119
3.43302
3.51829
3.52633
3.49198
3.43065
3.3805
3.35891
3.34119
3.32164
3.29574
3.2579
3.22193
3.19424
3.16912
3.1438
3.11406
3.07719
3.04238
3.01491
2.98869
2.96006
2.92601
2.8846
2.84156
2.81143
2.79019
2.76932
2.74608
2.71767
2.6801
2.63507
2.59907
2.57677
2.55832
2.5387
2.51527
2.48259
2.4389
2.39485
2.372
2.36884
2.38725
2.45041
2.5543
2.69922
2.82028
2.83626
2.83112
2.82285
2.82121
2.82222
2.81166
2.79796
2.77871
2.74796
2.71918
2.70483
2.69623
2.69102
2.68147
2.66894
2.65177
2.62513
2.60381
2.58184
4.46463
4.62329
4.56881
4.39226
4.2517
4.11875
3.9899
3.8463
3.71717
3.64137
3.58175
3.48082
3.34293
3.25306
3.21959
3.14863
3.08544
3.02389
2.92817
2.87744
2.83233
2.77396
2.72909
2.66931
2.6082
2.55412
2.49827
2.45658
2.45418
2.50994
2.74751
3.11431
3.38575
3.50652
3.52339
3.47241
3.42295
3.39368
3.36705
3.34486
3.31655
3.27432
3.23687
3.21224
3.19004
3.16519
3.13203
3.08891
3.05038
3.02226
2.99654
2.97028
2.93896
2.89556
2.84422
2.81269
2.79425
2.77671
2.75717
2.73264
2.69804
2.65163
2.61003
2.58383
2.56219
2.54032
2.5167
2.4887
2.45486
2.41282
2.40404
2.42337
2.50673
2.64066
2.76658
2.90101
2.93949
2.93125
2.9012
2.86889
2.85621
2.84983
2.84556
2.836
2.82246
2.80247
2.77365
2.75042
2.73808
2.7281
2.71763
2.70511
2.69004
2.66827
2.64435
2.61799
5.00713
4.96298
4.76405
4.5739
4.43941
4.29926
4.17342
4.0502
3.91828
3.82414
3.75651
3.65981
3.52757
3.42529
3.38304
3.32464
3.24259
3.17616
3.08546
3.01111
2.97045
2.91408
2.86026
2.80001
2.72959
2.67639
2.62305
2.56356
2.51299
2.49883
2.51553
2.65126
2.96085
3.29164
3.46266
3.46716
3.45523
3.43326
3.40342
3.37167
3.33206
3.27719
3.23974
3.22117
3.20292
3.17802
3.14207
3.09437
3.05289
3.02113
2.99448
2.9693
2.94208
2.90621
2.85985
2.8245
2.80511
2.78695
2.76581
2.73996
2.70867
2.66812
2.62234
2.58828
2.56099
2.5356
2.51326
2.4966
2.47554
2.46268
2.48772
2.57522
2.73505
2.84574
2.93555
2.99448
2.9959
2.98064
2.95398
2.921
2.89973
2.88879
2.88163
2.87349
2.86106
2.84544
2.82376
2.79608
2.77457
2.7609
2.74856
2.73545
2.72152
2.70488
2.68465
2.65119
5.36395
5.16112
4.90842
4.74306
4.63615
4.50131
4.36124
4.25086
4.12467
4.00959
3.93116
3.84264
3.71559
3.6066
3.54886
3.49265
3.4064
3.32311
3.24212
3.1578
3.10549
3.05295
2.98904
2.92702
2.85343
2.78775
2.73861
2.68728
2.62335
2.5648
2.52126
2.51659
2.5784
2.8075
3.141
3.36276
3.41144
3.43656
3.42837
3.39006
3.33939
3.28024
3.24527
3.22778
3.2106
3.18501
3.14918
3.09957
3.04037
3.00829
2.99074
2.97121
2.94779
2.91876
2.8772
2.82756
2.79095
2.7684
2.75147
2.73591
2.71575
2.68243
2.63215
2.58509
2.55555
2.53455
2.52206
2.51286
2.52251
2.57358
2.68654
2.85546
2.97004
2.99909
3.02019
3.02564
3.02236
3.01096
2.99479
2.97348
2.94554
2.92806
2.9174
2.90467
2.89098
2.87601
2.8584
2.83388
2.803
2.78164
2.76916
2.75743
2.74423
2.72987
2.71286
2.67642
5.54852
5.31922
5.07488
4.93344
4.84079
4.70739
4.54905
4.43848
4.32981
4.19855
4.1034
4.02462
3.90624
3.78917
3.71912
3.65331
3.5688
3.47065
3.38852
3.30914
3.23948
3.18102
3.11383
3.03978
2.96942
2.89963
2.84181
2.79103
2.73277
2.66307
2.58914
2.52837
2.51183
2.53293
2.67277
2.9614
3.20591
3.34682
3.38845
3.37324
3.31953
3.25007
3.21163
3.19038
3.16992
3.14413
3.11344
3.07214
3.01399
2.97079
2.9467
2.92541
2.90463
2.88269
2.85825
2.82348
2.78178
2.74769
2.72396
2.70309
2.68136
2.65812
2.6309
2.58875
2.54537
2.5243
2.52254
2.54447
2.63724
2.7878
2.95587
3.0833
3.09685
3.0735
3.05045
3.03775
3.03455
3.03625
3.02518
3.01077
2.98436
2.94643
2.92322
2.91299
2.90612
2.8945
2.88064
2.86263
2.83218
2.79868
2.78261
2.77047
2.75715
2.74282
2.72917
2.69736
5.58941
5.38297
5.21179
5.10184
5.02119
4.89102
4.72485
4.60748
4.51597
4.38659
4.26837
4.18915
4.08639
3.96033
3.87624
3.80326
3.71773
3.6187
3.5227
3.44502
3.36746
3.29514
3.22538
3.14752
3.06791
2.99784
2.93356
2.8732
2.81461
2.74716
2.67106
2.59078
2.52968
2.49564
2.4912
2.55629
2.7552
3.00025
3.20462
3.28751
3.27318
3.22269
3.18163
3.15143
3.12224
3.0932
3.06237
3.02239
2.97235
2.93221
2.90528
2.88394
2.86463
2.84336
2.81644
2.78452
2.75076
2.71749
2.68954
2.66605
2.64433
2.61914
2.5894
2.56183
2.5372
2.53398
2.56794
2.6915
2.86674
3.00261
3.11771
3.14367
3.13254
3.09963
3.06102
3.04728
3.04924
3.05684
3.04914
3.03466
3.00887
2.96405
2.93033
2.91751
2.91229
2.91111
2.89977
2.88369
2.85813
2.82155
2.78796
2.77092
2.76322
2.75501
2.74403
2.71549
5.45849
5.3906
5.29003
5.19858
5.12911
5.01121
4.856
4.75092
4.6746
4.55858
4.42799
4.33549
4.23803
4.11251
4.00611
3.92865
3.83917
3.74039
3.6406
3.55046
3.47171
3.39269
3.31068
3.22786
3.14597
3.06865
2.99769
2.93003
2.86188
2.79032
2.7158
2.63709
2.56266
2.49861
2.46657
2.42719
2.43322
2.54845
2.77786
3.04768
3.15399
3.14916
3.13111
3.09553
3.05679
3.02371
2.99178
2.95513
2.91946
2.89067
2.86423
2.83704
2.80993
2.78552
2.76273
2.73964
2.7156
2.68911
2.65603
2.61812
2.58551
2.56006
2.54411
2.54605
2.56063
2.62389
2.76322
2.95095
3.05086
3.10351
3.14479
3.15075
3.13821
3.10816
3.07141
3.05067
3.04084
3.03694
3.03806
3.02832
3.01039
2.98022
2.94541
2.92204
2.90691
2.89499
2.88519
2.87256
2.85594
2.83037
2.79803
2.77257
2.75411
2.73828
2.72681
2.7033
5.3855
5.33254
5.25289
5.18163
5.13288
5.04233
4.90804
4.80614
4.73312
4.63549
4.50554
4.38894
4.32382
4.23285
4.11798
4.0259
3.93526
3.83636
3.74022
3.64934
3.5642
3.48144
3.39543
3.30783
3.22309
3.14321
3.06721
2.99282
2.91747
2.84157
2.76701
2.69756
2.62776
2.55601
2.48003
2.40643
2.34687
2.34355
2.40894
2.5999
2.84976
2.96622
3.02803
3.02586
2.98995
2.94679
2.90723
2.87333
2.85262
2.83302
2.80993
2.7796
2.7392
2.70776
2.69223
2.67834
2.66364
2.64364
2.61145
2.56161
2.52093
2.51101
2.52157
2.55938
2.67351
2.84276
3.03043
3.12013
3.11781
3.12462
3.12472
3.12445
3.11357
3.09704
3.0749
3.04497
3.02187
3.01114
3.00469
2.99717
2.98505
2.9724
2.9545
2.92427
2.89546
2.87658
2.86146
2.84611
2.82901
2.80991
2.79011
2.7671
2.74395
2.72525
2.71129
2.68519
5.26413
5.20663
5.15229
5.10524
5.05221
4.96272
4.86401
4.78351
4.72507
4.65144
4.52651
4.40527
4.32413
4.2475
4.14028
4.02602
3.9293
3.82968
3.73302
3.64143
3.5509
3.46156
3.37268
3.28489
3.20082
3.12144
3.04427
2.9664
2.8864
2.80642
2.73027
2.6628
2.59893
2.53392
2.46758
2.39896
2.33627
2.27816
2.25868
2.2932
2.44158
2.64057
2.81225
2.92828
2.92074
2.87916
2.83124
2.79774
2.77866
2.76394
2.74557
2.71817
2.67486
2.6309
2.61293
2.60185
2.59464
2.57836
2.55151
2.51167
2.48645
2.49529
2.52994
2.6694
2.86846
3.03918
3.14
3.15373
3.12755
3.08862
3.06768
3.06014
3.06329
3.06217
3.05347
3.03402
3.00175
2.97906
2.96761
2.9585
2.94975
2.93958
2.9261
2.9037
2.87292
2.84831
2.83016
2.81314
2.79635
2.78045
2.76375
2.74322
2.72041
2.70073
2.68605
2.6587
5.23205
5.16596
5.10735
5.04738
4.97678
4.8945
4.81591
4.74983
4.68902
4.5934
4.47097
4.37022
4.30065
4.2287
4.12697
4.00657
3.91006
3.82242
3.73272
3.64559
3.55492
3.45933
3.36538
3.27819
3.19814
3.12296
3.04907
2.9721
2.88918
2.80472
2.72727
2.66029
2.60042
2.54013
2.47707
2.40621
2.33476
2.26964
2.22557
2.19109
2.2072
2.29296
2.46597
2.67558
2.81163
2.81723
2.77867
2.73613
2.71223
2.69499
2.67883
2.65767
2.6245
2.57409
2.5371
2.52106
2.51031
2.49802
2.48485
2.48029
2.48405
2.52155
2.67422
2.87931
3.00851
3.11772
3.13928
3.12733
3.08784
3.03845
3.01979
3.01415
3.01659
3.02107
3.01354
2.99906
2.97365
2.94532
2.93052
2.92112
2.91151
2.90016
2.8859
2.86573
2.83838
2.81255
2.79392
2.77842
2.76358
2.7486
2.73194
2.71197
2.68906
2.66728
2.65102
2.62358
5.22902
5.16579
5.09569
5.02144
4.94077
4.85888
4.7823
4.71261
4.63208
4.52851
4.42592
4.34421
4.28509
4.20508
4.09407
3.97262
3.88143
3.80379
3.72018
3.63429
3.54034
3.43964
3.34463
3.26225
3.18886
3.1189
3.04684
2.96715
2.88078
2.79657
2.7238
2.66061
2.60227
2.54272
2.47741
2.40708
2.33819
2.2776
2.22638
2.17979
2.14193
2.12806
2.17385
2.32445
2.54782
2.7108
2.7286
2.68983
2.65734
2.63619
2.61853
2.59941
2.57809
2.54126
2.48634
2.4516
2.43492
2.42315
2.43894
2.46351
2.53593
2.71161
2.92673
3.01535
3.05706
3.07787
3.07543
3.05823
3.03606
3.01036
2.99109
2.98254
2.9771
2.97464
2.96648
2.95352
2.93651
2.91463
2.8958
2.88403
2.87311
2.86035
2.8446
2.82526
2.8026
2.78016
2.76167
2.74706
2.73369
2.71972
2.70282
2.68113
2.6568
2.63406
2.61823
2.59381
5.23874
5.18034
5.10805
5.03035
4.94941
4.86833
4.79024
4.70825
4.61451
4.51545
4.42347
4.34885
4.27879
4.17901
4.06182
3.95756
3.87788
3.80493
3.71979
3.62541
3.52419
3.42763
3.34381
3.2683
3.19634
3.12295
3.04313
2.95753
2.87481
2.80119
2.73569
2.67417
2.61227
2.54585
2.47574
2.40872
2.34902
2.29584
2.24373
2.19068
2.13497
2.08756
2.05969
2.09023
2.22209
2.4388
2.61193
2.6386
2.61283
2.58489
2.56392
2.5459
2.52652
2.5016
2.45635
2.40459
2.38606
2.38886
2.41555
2.53186
2.74334
2.95357
3.05197
3.05014
3.03195
3.01779
3.00951
3.00599
3.00015
2.99173
2.97549
2.95536
2.9437
2.93592
2.92833
2.91818
2.90695
2.8934
2.87456
2.85484
2.83899
2.824
2.80821
2.79225
2.77682
2.76184
2.74598
2.72939
2.71214
2.69364
2.6734
2.65159
2.6307
2.61278
2.59999
2.57653
5.26151
5.20108
5.12754
5.05218
4.97503
4.8975
4.81609
4.72582
4.62948
4.53627
4.45446
4.38094
4.28881
4.1753
4.0645
3.9777
3.90571
3.82285
3.72464
3.61522
3.52248
3.4408
3.36415
3.2895
3.21143
3.12567
3.03679
2.95453
2.88157
2.81696
2.75583
2.69256
2.62299
2.54788
2.47617
2.41541
2.36393
2.31675
2.26698
2.21183
2.14602
2.08308
2.0349
2.01495
2.0386
2.14662
2.32633
2.5238
2.56293
2.54439
2.52071
2.49706
2.47447
2.45069
2.42003
2.38854
2.37467
2.39571
2.51866
2.7502
2.94645
3.0505
3.05462
3.03788
3.00521
2.98689
2.97763
2.97713
2.97925
2.97311
2.9617
2.94098
2.92438
2.91553
2.90797
2.90085
2.89119
2.87818
2.8566
2.83062
2.81245
2.79979
2.78889
2.77875
2.76811
2.75526
2.73683
2.71385
2.69166
2.67226
2.65607
2.64167
2.62642
2.60775
2.58985
2.56085
5.28362
5.22273
5.14958
5.07563
4.99887
4.91999
4.83455
4.74471
4.65491
4.56973
4.49042
4.40216
4.28971
4.1781
4.09227
4.02247
3.9399
3.84099
3.72808
3.62632
3.54423
3.46857
3.39258
3.31379
3.22588
3.13047
3.04124
2.96523
2.89988
2.83883
2.77773
2.71096
2.63445
2.55403
2.48361
2.42806
2.38045
2.33429
2.28458
2.22936
2.16143
2.09262
2.03927
2.00114
1.98723
1.99651
2.06193
2.22755
2.42951
2.48836
2.47999
2.45765
2.43067
2.40247
2.38926
2.38448
2.41287
2.53956
2.78115
2.93284
3.02737
3.06064
3.05195
3.03404
3.00313
2.97894
2.96881
2.96358
2.96299
2.95796
2.9499
2.93528
2.91902
2.90924
2.9005
2.89099
2.87931
2.86298
2.84026
2.81895
2.80566
2.7952
2.78574
2.77654
2.76491
2.74813
2.72372
2.70019
2.68343
2.66999
2.65695
2.64313
2.62578
2.60076
2.57639
2.54831
5.29783
5.2371
5.1654
5.09309
5.01681
4.9363
4.85148
4.76563
4.68109
4.5984
4.51209
4.41018
4.30343
4.21205
4.13488
4.05839
3.96206
3.85255
3.74367
3.65229
3.57302
3.49608
3.41676
3.33106
3.23665
3.14133
3.05661
2.98478
2.92091
2.86002
2.79669
2.72525
2.64551
2.56687
2.49863
2.44163
2.39393
2.35106
2.30417
2.24763
2.1818
2.1133
2.05411
2.00667
1.97059
1.94978
1.95013
1.99301
2.13942
2.32296
2.40002
2.41825
2.39588
2.37946
2.38981
2.4413
2.58727
2.82682
2.96906