/*--------------------------------*- C++ -*----------------------------------*\
  =========                 |
  \\      /  F ield         | OpenFOAM: The Open Source CFD Toolbox
   \\    /   O peration     | Website:  https://openfoam.org
    \\  /    A nd           | Version:  7
     \\/     M anipulation  |
\*---------------------------------------------------------------------------*/
FoamFile
{
    version     2.0;
    format      ascii;
    class       volScalarField;
    location    "8.5";
    object      T;
}
// * * * * * * * * * * * * * * * * * * * * * * * * * * * * * * * * * * * * * //

dimensions      [0 0 0 1 0 0 0];

internalField   nonuniform List<scalar> 
4032
(
1
1
1
1
1
1
1
1
1
1
1
1.17289
2.41311
2.71593
2.72676
2.74233
2.75576
2.76837
2.77979
2.7899
2.79881
2.80598
2.81142
2.81535
1
1
1
1
1
1
1
1
1
1
1
1.1554
2.39913
2.71484
2.72616
2.74098
2.75416
2.7665
2.77759
2.78724
2.79561
2.80224
2.80708
2.81081
1
1
1
1
1
1
1
1
1
1
1
1.10201
2.3615
2.71201
2.72305
2.73798
2.75127
2.76357
2.7745
2.78382
2.79164
2.79764
2.80153
2.80469
1
1
1
1
1
1
1
1
1
1
1
1.00741
2.2936
2.70411
2.71814
2.7333
2.74617
2.75767
2.76797
2.77688
2.78446
2.79013
2.79333
2.79575
1
1
1
1
1
1
1
1
1
1
1
1.00006
2.2116
2.6882
2.70745
2.72319
2.73674
2.74833
2.75837
2.7665
2.77263
2.77677
2.77847
2.78127
1
1
1
1
1
1
1
1
1
1
1
1
2.09726
2.66951
2.69826
2.71276
2.72613
2.737
2.74608
2.75344
2.75897
2.76217
2.76056
2.75503
1
1
1
1
1
1
1
1
1
1
1
1
1.93905
2.63421
2.68243
2.69828
2.71191
2.72207
2.72973
2.7349
2.73651
2.73304
2.7249
2.71771
1
1
1
1
1
1
1
1
1
1
1
1
1.72221
2.56439
2.65575
2.67928
2.69514
2.70541
2.71125
2.71331
2.71052
2.70538
2.70001
2.71091
1
1
1
1
1
1
1
1
1
1
1
1
1.41059
2.44043
2.6293
2.65496
2.6733
2.68478
2.68894
2.68791
2.67976
2.66127
2.60938
2.50904
1
1
1
1
1
1
1
1
1
1
1
1
1.05153
2.30792
2.62964
2.63183
2.64241
2.65328
2.6579
2.65473
2.64173
2.60867
2.55061
2.38832
1
1
1
1
1
1
1
1
1
1
1
1
1.00062
2.13987
2.58853
2.59702
2.60821
2.61574
2.62018
2.61572
2.60068
2.56201
2.49773
2.31276
1
1
1
1
1
1
1
1
1
1
1
1
0.999994
1.83278
2.52372
2.58145
2.58984
2.58896
2.58752
2.57939
2.56054
2.52192
2.4493
2.28999
1
1
1
1
1
1
1
1
1
1
1
1
0.999998
1.37399
2.37956
2.56295
2.56324
2.56174
2.55654
2.54402
2.52115
2.48303
2.40924
2.28797
1
1
1
1
1
1
1
1
1
1
1
1
1
1.03847
2.19452
2.52219
2.53299
2.53213
2.52636
2.5122
2.48808
2.44795
2.37959
2.28856
1
1
1
1
1
1
1
1
1
1
1
1
1
1.00023
1.82798
2.43893
2.51087
2.5079
2.50056
2.48356
2.45905
2.41672
2.35677
2.28441
1
1
1
1
1
1
1
1
1
1
1
1
1
0.999998
1.24042
2.27959
2.49102
2.47784
2.46994
2.45479
2.4288
2.39152
2.34012
2.27881
1
1
1
1
1
1
1
1
1
1
1
1
1
1
1.01341
2.08277
2.4409
2.43173
2.43046
2.42076
2.40023
2.3688
2.32484
2.27155
1
1
1
1
1
1
1
1
1
1
1
1
1
1
1.00001
1.58492
2.32418
2.41228
2.4058
2.39361
2.37422
2.3459
2.30821
2.2629
1
1
1
1
1
1
1
1
1
1
1
1
1
1
0.999998
1.08903
2.11562
2.39051
2.38258
2.36809
2.34761
2.32138
2.28879
2.25076
1
1
1
1
1
1
1
1
1
1
1
1
1
1
0.999999
1.00157
1.6656
2.27697
2.36036
2.34186
2.32244
2.29814
2.26932
2.23573
1
1
1
1
1
1
1
1
1
1
1
1
1
1
1
1
1.13014
2.07692
2.33491
2.31638
2.30033
2.27721
2.25036
2.2185
1
1
1
1
1
1
1
1
1
1
1
1
1
1
1
1
1.00355
1.62477
2.20834
2.29414
2.27435
2.2522
2.22819
2.19937
1
1
1
1
1
1
1
1
1
1
1
1
1
1
1
1
1.00001
1.11809
1.9922
2.26961
2.24692
2.22957
2.2076
2.19877
1
1
1
1
1
1
1
1
1
1
1
1
1
1
1
1
1
1.00301
1.47625
2.10517
2.22206
2.20438
2.19526
2.22568
1
1
1
1
1
1
1
1
1
1
1
1
1
1
1
1
1
1.00001
1.06347
1.83271
2.17398
2.19194
2.23493
2.31379
1
1
1
1
1
1
1
1
1
1
1
1
1
1
1
1
1
1
1.00104
1.29276
1.96029
2.21312
2.31799
2.37699
1
1
1
1
1
1
1
1
1
1
1
1
1
1
1
1
1
1
1
1.02206
1.56507
2.24734
2.40384
2.39034
1
1
1
1
1
1
1
1
1
1
1
1
1
1
1
1
1
1
1
1.00025
1.24501
2.41798
2.50912
2.43963
1
1
1
1
1
1
1
1
1
1
1
1
1
1
1
1
1
1
1
1
1.31929
2.51134
2.56792
2.50013
1
1
1
1
1
1
1
1
1
1
1
1
1
1
1
1
1
1
1
1
1.22015
2.45956
2.65026
2.5986
1
1
1
1
1
1
1
1
1
1
1
1
1
1
1
1
1
1
1
1
1.10062
2.37782
2.68241
2.64923
1
1
1
1
1
1
1
1
1
1
1
1
1
1
1
1
1
1
1
1
1.00452
2.28219
2.68127
2.66384
1
1
1
1
1
1
1
1
1
1
1
1
1
1
1
1
1
1
1
1
1.00002
2.19229
2.66677
2.66313
1
1
1
1
1
1
1
1
1
1
1
1
1
1
1
1
1
1
1
1
1
2.10069
2.64396
2.66235
1
1
1
1
1
1
1
1
1
1
1
1
1
1
1
1
1
1
1
1
1
2.01122
2.62711
2.66041
1
1
1
1
1
1
1
1
1
1
1
1
1
1
1
1
1
1
1
1
1
1.93413
2.61946
2.65937
1
1
1
1
1
1
1
1
1
1
1
1
1
1
1
1
1
1
1
1
1
1.87308
2.61703
2.6617
1
1
1
1
1
1
1
1
1
1
1
1
1
1
1
1
1
1
1
1
1
1.82646
2.614
2.6668
1
1
1
1
1
1
1
1
1
1
1
1
1
1
1
1
1
1
1
1
1
1.79686
2.61066
2.67091
1
1
1
1
1
1
1
1
1
1
1
1
1
1
1
1
1
1
1
1
1
1.78778
2.60837
2.67186
1.69173
1.16631
0.926221
1.01967
1.24936
1.32932
1.36789
1.40146
1.43857
1.50937
1.62216
1.71684
1.72944
1.72648
1.70689
1.70071
2.28255
2.73896
2.78805
2.78896
2.78844
2.78807
2.78863
2.78856
2.78383
2.77333
2.7618
2.7525
2.74691
2.74342
2.73878
2.72955
2.71826
2.70754
2.69901
2.69202
2.68337
2.67125
2.65716
2.64412
2.63425
2.62739
2.62117
2.61285
2.60151
2.58841
2.57559
2.5641
2.55403
2.54455
2.53384
2.52076
2.50691
2.4941
2.48308
2.47258
2.45948
2.44472
2.42993
2.416
2.40399
2.39487
2.38479
2.37161
2.35783
2.34317
2.32914
2.31721
2.30679
2.2989
2.29029
2.27958
2.26802
2.25497
2.24108
2.2286
2.21843
2.20949
2.20092
2.19148
2.18107
2.16883
2.15412
2.13827
2.12455
2.11306
2.10921
2.11648
2.16121
2.2914
2.50108
2.52288
2.50094
2.48535
2.47429
2.46578
1.94151
1.62591
1.38955
1.33914
1.36273
1.35106
1.29992
1.25398
1.26336
1.29961
1.37616
1.44979
1.5016
1.52382
1.54109
1.55311
2.14368
2.68947
2.76741
2.78211
2.77882
2.77306
2.76881
2.76776
2.7653
2.75816
2.74754
2.73702
2.72807
2.72178
2.71668
2.71041
2.70152
2.69153
2.68164
2.67281
2.66455
2.65503
2.64367
2.6315
2.61994
2.60981
2.60113
2.59341
2.58522
2.57467
2.56169
2.54842
2.53613
2.52584
2.51744
2.5086
2.49671
2.48341
2.47051
2.45717
2.44466
2.43277
2.42034
2.40747
2.39518
2.38389
2.37184
2.35918
2.34645
2.33387
2.32086
2.3079
2.29666
2.28652
2.27739
2.26845
2.2586
2.24806
2.23607
2.22291
2.21018
2.19926
2.18987
2.18129
2.17197
2.1612
2.14822
2.13287
2.11804
2.10946
2.11216
2.132
2.18775
2.28599
2.46837
2.50166
2.48511
2.4706
2.46235
2.45495
2.03204
1.83792
1.66947
1.50941
1.4422
1.406
1.36533
1.30484
1.23967
1.23986
1.26708
1.30612
1.34062
1.35551
1.38748
1.40897
1.80865
2.56255
2.70697
2.71456
2.71976
2.71779
2.71305
2.71
2.70773
2.70426
2.6985
2.69164
2.68362
2.6747
2.6661
2.65841
2.65147
2.64474
2.63678
2.62659
2.61563
2.60531
2.59607
2.58756
2.57874
2.56801
2.55603
2.54497
2.53602
2.52884
2.52064
2.50873
2.4951
2.48217
2.47157
2.46424
2.45865
2.44999
2.43774
2.42277
2.4076
2.39531
2.38434
2.37516
2.36655
2.35461
2.34073
2.32605
2.31233
2.30113
2.29099
2.28113
2.27092
2.25956
2.24788
2.23729
2.22857
2.22085
2.21309
2.20438
2.19292
2.1789
2.1653
2.15464
2.14539
2.13583
2.12619
2.11588
2.10394
2.09889
2.11052
2.15095
2.20481
2.25529
2.37731
2.45592
2.45301
2.44217
2.43651
2.43329
2.0975
1.94286
1.81821
1.69858
1.57173
1.49597
1.46993
1.4353
1.37282
1.30921
1.29312
1.2852
1.27461
1.27694
1.29582
1.32314
1.4685
2.25534
2.60894
2.61657
2.61558
2.62083
2.62087
2.61942
2.61532
2.60889
2.60115
2.59432
2.59002
2.58554
2.57774
2.56936
2.56134
2.55447
2.54956
2.54351
2.53401
2.52355
2.51336
2.504
2.49591
2.48783
2.47757
2.46641
2.45615
2.44764
2.44043
2.43147
2.42094
2.40994
2.39984
2.39218
2.387
2.37983
2.37044
2.35921
2.34553
2.33314
2.32308
2.31435
2.30651
2.29604
2.28454
2.27156
2.25696
2.24374
2.23381
2.22544
2.21724
2.20902
2.2002
2.19032
2.17995
2.17089
2.16419
2.15818
2.15119
2.14215
2.13093
2.11866
2.10725
2.09734
2.09018
2.08576
2.08267
2.09098
2.11978
2.16788
2.20609
2.21508
2.25867
2.35056
2.38524
2.37818
2.37486
2.38019
2.14763
2.0221
1.9063
1.80428
1.70863
1.61079
1.54896
1.52157
1.48604
1.42402
1.34978
1.31848
1.29722
1.29896
1.32497
1.38452
1.44449
1.76934
2.36772
2.5293
2.51604
2.51195
2.51068
2.51405
2.51406
2.50876
2.50006
2.49216
2.48852
2.48674
2.48108
2.47355
2.46578
2.45833
2.45244
2.44829
2.44206
2.43367
2.42457
2.4154
2.40675
2.39886
2.39021
2.38052
2.37126
2.36311
2.35504
2.34625
2.33691
2.32761
2.31979
2.31364
2.30769
2.30044
2.29265
2.28303
2.27064
2.25965
2.25136
2.2436
2.23501
2.22577
2.21597
2.20479
2.19179
2.1788
2.16818
2.15928
2.15132
2.14396
2.13674
2.129
2.12053
2.11175
2.10367
2.09646
2.08965
2.08249
2.07406
2.06481
2.05481
2.0459
2.04135
2.0418
2.04962
2.07926
2.12391
2.16012
2.17688
2.17013
2.16739
2.21545
2.28587
2.30833
2.30761
2.31306
2.18314
2.07918
1.98261
1.88444
1.79764
1.71877
1.63775
1.58551
1.56089
1.52257
1.45731
1.397
1.37974
1.39887
1.44064
1.49456
1.55009
1.58037
1.90496
2.32917
2.43872
2.44344
2.43415
2.42639
2.42673
2.42574
2.41931
2.4113
2.40493
2.40084
2.39537
2.38912
2.38251
2.37594
2.37023
2.36581
2.36022
2.35299
2.34491
2.33663
2.32855
2.32102
2.31277
2.30401
2.29591
2.28819
2.28021
2.27203
2.26346
2.25528
2.24838
2.24191
2.2351
2.22837
2.22121
2.21236
2.20134
2.19102
2.18272
2.17486
2.16685
2.15873
2.15005
2.14019
2.12876
2.1166
2.10584
2.09722
2.08982
2.08292
2.07613
2.0692
2.0618
2.05383
2.04558
2.03741
2.03004
2.02298
2.01589
2.00899
2.00158
1.99598
1.99613
2.00488
2.02975
2.07676
2.11174
2.12778
2.12515
2.1194
2.1051
2.11327
2.16039
2.21649
2.24141
2.24778
2.20123
2.11463
2.0335
1.94903
1.86394
1.79603
1.73003
1.65599
1.60923
1.57754
1.54084
1.50543
1.50555
1.55282
1.58439
1.61236
1.64455
1.64048
1.66082
1.92108
2.26945
2.3782
2.39449
2.37843
2.36433
2.36539
2.36462
2.3571
2.34813
2.34057
2.33505
2.32974
2.32392
2.31794
2.31232
2.30726
2.30155
2.29486
2.28723
2.27897
2.27133
2.26423
2.2567
2.24906
2.24107
2.23244
2.22398
2.21633
2.20942
2.20305
2.19634
2.18871
2.18057
2.17264
2.16492
2.15692
2.14856
2.13977
2.13037
2.12099
2.1124
2.10444
2.09655
2.0882
2.0787
2.06769
2.05642
2.04711
2.03962
2.03301
2.02668
2.02034
2.01341
2.00573
1.99671
1.98728
1.97876
1.97109
1.96506
1.95965
1.95623
1.95787
1.96912
1.99467
2.03837
2.07747
2.08952
2.084
2.07384
2.06864
2.05896
2.04986
2.06399
2.10875
2.15733
2.18989
2.21113
2.13699
2.06525
1.99748
1.9196
1.84581
1.79128
1.73057
1.67192
1.63581
1.62381
1.62242
1.65308
1.71238
1.72105
1.71327
1.71115
1.70194
1.68763
1.70969
1.91754
2.22036
2.33616
2.34715
2.33154
2.32838
2.32696
2.31864
2.30944
2.3009
2.29492
2.29004
2.2852
2.27921
2.27261
2.26638
2.26035
2.25398
2.2468
2.23872
2.23099
2.22381
2.21668
2.20952
2.20165
2.19245
2.18368
2.17693
2.17115
2.1654
2.15868
2.15077
2.14141
2.13178
2.12361
2.11658
2.10958
2.10168
2.09233
2.08201
2.07224
2.06384
2.05633
2.04897
2.04093
2.0312
2.02004
2.01
2.00224
1.99563
1.98947
1.98321
1.97666
1.96897
1.95979
1.94943
1.9392
1.93074
1.92506
1.92267
1.9255
1.93728
1.96794
2.00722
2.05007
2.06625
2.06453
2.04993
2.0347
2.0269
2.0217
2.01629
2.01442
2.02841
2.06396
2.12152
2.21397
2.15031
2.08377
2.02508
1.96308
1.8913
1.82948
1.78337
1.73988
1.74323
1.7537
1.75756
1.79202
1.80503
1.80569
1.78722
1.76876
1.76178
1.74322
1.73436
1.75324
1.91071
2.16502
2.28023
2.3066
2.30664
2.30279
2.29117
2.28052
2.27206
2.26643
2.26228
2.25792
2.25177
2.2443
2.23662
2.2303
2.22423
2.21773
2.21023
2.20196
2.19398
2.18687
2.17995
2.17247
2.16376
2.15523
2.14859
2.14284
2.13681
2.1301
2.12223
2.11236
2.10176
2.09348
2.08673
2.07993
2.07241
2.06366
2.0536
2.04331
2.03431
2.02664
2.01946
2.01188
2.0029
1.99236
1.98248
1.9748
1.96837
1.96213
1.95566
1.9486
1.94051
1.93072
1.92018
1.91002
1.90188
1.89956
1.90366
1.91534
1.94644
1.98557
2.02084
2.04499
2.0457
2.04019
2.0267
2.0102
2.00021
1.99464
1.99097
1.98669
1.98848
1.99715
2.04682
2.21211
2.15793
2.09927
2.03996
1.98492
1.92971
1.88203
1.84902
1.84493
1.88409
1.88711
1.8747
1.8827
1.86736
1.85837
1.84527
1.82355
1.81676
1.79984
1.78347
1.7755
1.78488
1.8871
2.10404
2.23659
2.27879
2.28701
2.27605
2.25986
2.24866
2.24299
2.23958
2.23564
2.22928
2.22106
2.21221
2.20569
2.19989
2.19403
2.18677
2.17822
2.16925
2.16195
2.1553
2.14847
2.14111
2.13313
2.12525
2.11842
2.11205
2.10542
2.09788
2.08863
2.07828
2.06917
2.06168
2.05466
2.04739
2.03944
2.03047
2.02073
2.01136
2.00304
1.99537
1.9876
1.97899
1.96939
1.96036
1.9532
1.94701
1.94071
1.93365
1.92563
1.91617
1.90598
1.89583
1.88823
1.88626
1.8902
1.904
1.93441
1.97809
2.00397
2.01891
2.02556
2.02526
2.01894
2.01005
1.99835
1.98522
1.97679
1.9715
1.9672
1.96356
1.96306
1.9841
2.20652
2.15811
2.10685
2.05289
2.00546
1.97157
1.96423
1.96253
1.97354
1.99916
1.98172
1.94684
1.93809
1.91708
1.90227
1.89705
1.87586
1.86072
1.8468
1.827
1.81788
1.8019
1.80522
1.86985
2.05125
2.19622
2.25239
2.25955
2.2455
2.229
2.22185
2.21822
2.21461
2.20824
2.19958
2.18989
2.18322
2.17766
2.17227
2.16525
2.1567
2.14679
2.13926
2.13307
2.1269
2.12036
2.11273
2.10397
2.09564
2.08859
2.08191
2.07479
2.06661
2.05719
2.04752
2.03892
2.03134
2.02413
2.0168
2.00892
2.0002
1.99107
1.98231
1.97409
1.96596
1.95746
1.94856
1.94028
1.9336
1.92776
1.92176
1.91464
1.90584
1.89457
1.88334
1.87452
1.875
1.88228
1.90287
1.93477
1.98272
2.0084
2.00891
2.00667
2.00313
2.00351
2.00097
1.99528
1.98863
1.97886
1.96652
1.95715
1.95105
1.94496
1.94074
1.94553
2.19654
2.1545
2.11138
2.07223
2.04953
2.06092
2.07987
2.06644
2.06212
2.06239
2.03809
1.99623
1.97869
1.96217
1.94509
1.93902
1.92171
1.89688
1.88563
1.86616
1.85434
1.84235
1.8187
1.8191
1.85377
1.99856
2.14771
2.21626
2.22625
2.21291
2.20339
2.19793
2.19392
2.18729
2.17847
2.168
2.16097
2.15535
2.15022
2.14364
2.13542
2.12494
2.11691
2.11094
2.10497
2.09843
2.09092
2.08205
2.0729
2.06525
2.05841
2.0514
2.04368
2.03488
2.02536
2.01636
2.0085
2.0013
1.9942
1.98677
1.97867
1.97009
1.96163
1.95363
1.9458
1.93766
1.92881
1.91995
1.91288
1.90741
1.90223
1.89621
1.88826
1.87675
1.86383
1.86292
1.86885
1.89476
1.93478
1.97836
2.01172
2.01303
2.00647
1.9933
1.98536
1.98176
1.98178
1.98098
1.97615
1.96959
1.96026
1.94811
1.93805
1.93111
1.92558
1.92137
2.18272
2.15205
2.1281
2.13188
2.14328
2.17315
2.16541
2.12983
2.10893
2.09656
2.07666
2.04182
2.017
2.00672
1.98432
1.97095
1.95702
1.93042
1.91723
1.90209
1.88488
1.8751
1.85505
1.82761
1.82878
1.84416
1.94355
2.08769
2.17221
2.18511
2.18488
2.17823
2.17364
2.16604
2.15681
2.14544
2.13742
2.13153
2.12647
2.12031
2.1126
2.10202
2.09339
2.08723
2.0809
2.07407
2.06667
2.05799
2.04876
2.04104
2.03409
2.02686
2.01888
2.01
2.00065
1.99209
1.98486
1.97822
1.9714
1.96388
1.95546
1.94668
1.93866
1.93175
1.92538
1.91866
1.91054
1.90052
1.89112
1.88506
1.88033
1.87546
1.86983
1.86243
1.85815
1.86352
1.88623
1.93108
1.96605
1.99723
2.00629
2.00422
1.99758
1.98509
1.97243
1.96595
1.96206
1.9617
1.96033
1.95484
1.94795
1.93886
1.92756
1.91885
1.91232
1.90381
2.17076
2.1709
2.19539
2.22097
2.23331
2.23199
2.20475
2.16383
2.1374
2.12352
2.1101
2.08249
2.05034
2.0395
2.02052
1.99995
1.98674
1.96166
1.94327
1.93138
1.91151
1.89828
1.88169
1.85588
1.83492
1.82473
1.83133
1.89571
2.02617
2.1169
2.14192
2.15302
2.15293
2.14544
2.13414
2.12128
2.11125
2.10523
2.10033
2.09442
2.08697
2.07643
2.06737
2.06068
2.05398
2.04713
2.03973
2.03099
2.02208
2.01477
2.0079
2.00053
1.99217
1.98265
1.97296
1.96516
1.95925
1.95378
1.9478
1.94057
1.93148
1.92132
1.91299
1.90722
1.90247
1.89752
1.89112
1.88184
1.87022
1.86069
1.85473
1.85134
1.85082
1.85436
1.86596
1.89105
1.9359
1.96437
1.97749
1.98693
1.9898
1.98788
1.98234
1.97455
1.96362
1.95246
1.94604
1.94202
1.94014
1.93667
1.93101
1.92437
1.9154
1.90487
1.89808
1.88793
2.20449
2.24725
2.29072
2.28405
2.27285
2.25447
2.22413
2.18887
2.1626
2.14934
2.13797
2.11356
2.07843
2.06081
2.04884
2.02689
2.01232
1.99087
1.96477
1.95235
1.93353
1.91595
1.8991
1.87651
1.85337
1.83346
1.81885
1.8198
1.85304
1.95412
2.05118
2.09614
2.11879
2.12162
2.11264
2.0961
2.08299
2.07673
2.07153
2.06601
2.05877
2.04835
2.03875
2.03152
2.02503
2.01847
2.01077
2.00126
1.9924
1.98561
1.97931
1.97254
1.96443
1.95415
1.94339
1.93646
1.93193
1.92751
1.92254
1.91623
1.90733
1.89596
1.88685
1.88156
1.87752
1.87337
1.86818
1.86041
1.84882
1.83662
1.83072
1.83181
1.84025
1.86281
1.89607
1.94028
1.973
1.97521
1.97337
1.96906
1.96674
1.96612
1.96199
1.9567
1.94972
1.93968
1.93016
1.92458
1.92048
1.91722
1.91253
1.90678
1.8994
1.88907
1.88067
1.87063
2.28603
2.33545
2.33028
2.30443
2.28383
2.26032
2.237
2.21029
2.18486
2.16983
2.15766
2.13485
2.10152
2.07797
2.06869
2.04963
2.03101
2.01201
1.98347
1.96587
1.9499
1.92962
1.91217
1.89006
1.86716
1.84677
1.82508
1.81063
1.80149
1.81331
1.88105
1.97905
2.04606
2.07746
2.08189
2.07017
2.05814
2.04996
2.04286
2.03705
2.02977
2.01889
2.00891
2.00237
1.99682
1.99087
1.98295
1.97258
1.9635
1.95687
1.95084
1.94466
1.93718
1.92654
1.91405
1.90723
1.90384
1.90052
1.89663
1.8914
1.88344
1.87206
1.86194
1.85622
1.85175
1.84723
1.84203
1.83516
1.82595
1.8164
1.81659
1.82444
1.85192
1.89271
1.92931
1.9665
1.97237
1.96998
1.96135
1.95035
1.94479
1.94165
1.93931
1.93563
1.93079
1.92394
1.91456
1.90674
1.90213
1.89815
1.89386
1.88863
1.8823
1.87375
1.86487
1.85409
2.36532
2.3631
2.33211
2.30378
2.28591
2.26434
2.24466
2.22464
2.20009
2.18176
2.16863
2.14804
2.11773
2.09254
2.08122
2.06591
2.04343
2.02339
1.99689
1.97382
1.95915
1.93998
1.92076
1.89948
1.87511
1.85527
1.83541
1.81349
1.79622
1.78542
1.78636
1.82231
1.90622
1.98974
2.0288
2.03369
2.03251
2.02867
2.02147
2.01339
2.00399
1.99114
1.98154
1.97655
1.97207
1.96632
1.95809
1.94697
1.93711
1.93005
1.92428
1.91839
1.91162
1.9027
1.89108
1.88247
1.87884
1.87597
1.87248
1.86743
1.86011
1.84991
1.83873
1.83145
1.82602
1.8207
1.81549
1.81127
1.80741
1.80837
1.8182
1.84551
1.89128
1.92163
1.94608
1.95789
1.95763
1.9527
1.9444
1.93383
1.92591
1.92134
1.91866
1.91633
1.91294
1.90829
1.90159
1.89302
1.88619
1.88172
1.87769
1.87346
1.86871
1.86285
1.8559
1.84426
2.37368
2.35091
2.31794
2.29777
2.28623
2.26814
2.24706
2.23038
2.20869
2.18737
2.1725
2.1549
2.12742
2.1023
2.08794
2.0735
2.05118
2.02802
2.00469
1.98031
1.9635
1.94624
1.92561
1.90528
1.88161
1.85985
1.84255
1.82415
1.80257
1.78275
1.76984
1.76262
1.7803
1.84372
1.92946
1.98252
1.99583
2.0067
2.00555
1.9964
1.98459
1.97169
1.96385
1.95972
1.95576
1.94988
1.94134
1.92901
1.91395
1.90626
1.9024
1.89807
1.89298
1.88689
1.87713
1.86388
1.85392
1.84909
1.84643
1.84421
1.84051
1.83301
1.82051
1.80827
1.80086
1.79727
1.79466
1.79613
1.80191
1.81931
1.85182
1.8985
1.9282
1.93482
1.94005
1.93921
1.93783
1.9344
1.92981
1.92384
1.91534
1.90923
1.90587
1.90285
1.90009
1.89691
1.89272
1.88645
1.87796
1.8715
1.86746
1.86405
1.86048
1.85648
1.85173
1.84134
2.37209
2.34324
2.31033
2.29577
2.28739
2.27046
2.24651
2.22967
2.21254
2.1899
2.17262
2.15762
2.13325
2.10801
2.09167
2.07572
2.0551
2.03039
2.00848
1.98669
1.96711
1.95002
1.93012
1.90832
1.88763
1.86684
1.84918
1.8335
1.81567
1.79437
1.77417
1.75507
1.75314
1.76128
1.80373
1.88128
1.94291
1.97853
1.9907
1.98728
1.97531
1.96044
1.95237
1.94782
1.94341
1.93756
1.92991
1.91907
1.90422
1.89287
1.88647
1.88137
1.87691
1.87221
1.86658
1.85763
1.84605
1.83633
1.82955
1.82415
1.81954
1.81449
1.80781
1.797
1.78437
1.78209
1.78272
1.79158
1.8197
1.86098
1.90452
1.93711
1.94046
1.93502
1.93016
1.92697
1.92593
1.92618
1.92322
1.91978
1.9135
1.90401
1.89786
1.89517
1.89362
1.89128
1.8886
1.88479
1.87768
1.86957
1.86534
1.86153
1.85734
1.85331
1.84974
1.84192
2.39686
2.35546
2.32361
2.30611
2.29488
2.27543
2.24885
2.23045
2.21626
2.19423
2.17269
2.15724
2.13739
2.11223
2.09381
2.07714
2.05805
2.03541
2.0127
1.99349
1.97367
1.95517
1.93721
1.91688
1.89632
1.87832
1.86189
1.84681
1.83253
1.81602
1.79724
1.7773
1.76381
1.75667
1.75996
1.78701
1.84725
1.91299
1.9672
1.98586
1.98303
1.97208
1.962
1.95415
1.94669
1.9394
1.93145
1.92087
1.90754
1.89673
1.88941
1.88353
1.8778
1.87078
1.86229
1.85358
1.84489
1.83528
1.82644
1.81895
1.81213
1.80461
1.79676
1.7903
1.78442
1.78421
1.79433
1.82784
1.87373
1.90815
1.93812
1.94514
1.94247
1.93542
1.9284
1.92613
1.92665
1.92827
1.92617
1.92265
1.91641
1.90568
1.8981
1.89558
1.8948
1.8952
1.89337
1.89021
1.88451
1.87571
1.86747
1.86301
1.8608
1.85857
1.85564
1.84898
2.45195
2.41261
2.37494
2.34609
2.32572
2.29923
2.26875
2.24917
2.23496
2.21256
2.18734
2.16953
2.14993
2.12476
2.10373
2.0872
2.06759
2.04559
2.02331
2.00346
1.98601
1.96844
1.95048
1.93237
1.91453
1.89813
1.88361
1.87021
1.85702
1.84301
1.82799
1.81155
1.79604
1.7827
1.77894
1.7757
1.78322
1.8244
1.89397
1.96699
1.99443
1.98947
1.98299
1.97259
1.96074
1.9509
1.94183
1.93098
1.91967
1.91018
1.90159
1.89276
1.88351
1.8749
1.86703
1.85932
1.85128
1.8424
1.83177
1.81988
1.80945
1.80141
1.79764
1.79499
1.79823
1.81508
1.85238
1.9007
1.92582
1.94053
1.95427
1.95627
1.95313
1.94667
1.93899
1.93394
1.93113
1.93017
1.93062
1.92844
1.92418
1.91696
1.90902
1.90455
1.90225
1.90068
1.89947
1.89732
1.89381
1.88775
1.87994
1.87383
1.86942
1.86548
1.86255
1.85656
2.55411
2.50474
2.45837
2.42007
2.39112
2.35725
2.32067
2.29412
2.27454
2.25088
2.22293
2.19915
2.18464
2.16463
2.1416
2.12387
2.10498
2.08396
2.06417
2.04611
2.02956
2.01325
1.99649
1.97992
1.964
1.94896
1.93487
1.92126
1.90728
1.8929
1.87875
1.86578
1.85229
1.83819
1.82165
1.80233
1.79286
1.79625
1.8234
1.88628
1.95946
1.99104
2.00139
1.99939
1.9871
1.97312
1.96036
1.94848
1.93985
1.93157
1.92226
1.91084
1.89674
1.88522
1.87831
1.87172
1.86459
1.8558
1.84356
1.82715
1.81393
1.80725
1.80847
1.81645
1.84642
1.89124
1.93948
1.96274
1.96511
1.96923
1.97165
1.9719
1.96953
1.96615
1.96095
1.95275
1.94627
1.9438
1.94256
1.94106
1.93866
1.93616
1.93234
1.92587
1.92004
1.91668
1.91405
1.91114
1.90774
1.90398
1.89979
1.89434
1.88845
1.88354
1.87979
1.87292
2.61911
2.57984
2.54056
2.50454
2.46916
2.43052
2.39462
2.36489
2.3421
2.31805
2.2861
2.25744
2.23859
2.21982
2.19544
2.17227
2.15297
2.13238
2.11263
2.09446
2.07661
2.05892
2.04142
2.02427
2.00786
1.99227
1.97702
1.96141
1.94489
1.92789
1.91165
1.89763
1.8843
1.87037
1.85534
1.83879
1.82336
1.80782
1.80857
1.82522
1.87691
1.94187
1.99088
2.01852
2.01385
1.99968
1.98217
1.96956
1.96185
1.95497
1.94619
1.93431
1.91813
1.90224
1.89384
1.88734
1.88151
1.87238
1.86022
1.84567
1.83131
1.8309
1.8379
1.87589
1.92945
1.97478
2.00363
2.00847
2.00247
1.99406
1.99014
1.98868
1.98981
1.9898
1.98795
1.98304
1.97466
1.96904
1.96643
1.96449
1.96275
1.96082
1.95858
1.9542
1.94757
1.94241
1.93886
1.93551
1.93218
1.92896
1.92535
1.92044
1.91439
1.90894
1.90481
1.89748
2.64593
2.62286
2.59793
2.5706
2.53978
2.50664
2.47498
2.4468
2.4211
2.38986
2.35544
2.32729
2.30707
2.2871
2.2616
2.23388
2.21254
2.19263
2.17232
2.15344
2.13414
2.11397
2.09404
2.07528
2.05818
2.04234
2.02656
2.00959
1.99075
1.97108
1.95272
1.93707
1.92327
1.90907
1.89363
1.8754
1.85634
1.83791
1.8247
1.81899
1.82706
1.85923
1.91936
1.98504
2.02202
2.01971
2.00334
1.98853
1.9803
1.97325
1.96541
1.9556
1.94217
1.92369
1.90913
1.90108
1.89442
1.88656
1.87876
1.87079
1.86448
1.87409
1.91831
1.97407
2.00982
2.04115
2.04917
2.04569
2.03483
2.02266
2.01863
2.01758
2.01861
2.02012
2.01827
2.01478
2.00843
2.00113
1.99748
1.99545
1.99367
1.99178
1.9893
1.9852
1.97901
1.97312
1.96916
1.96598
1.96289
1.95962
1.95561
1.95022
1.94358
1.93716
1.93233
1.92435
2.64836
2.63416
2.6178
2.59914
2.57722
2.55272
2.52775
2.50383
2.4777
2.4471
2.4175
2.39334
2.37492
2.35197
2.3227
2.29203
2.26903
2.24951
2.22888
2.20818
2.18574
2.16156
2.13907
2.12001
2.1031
2.08683
2.06961
2.05006
2.02838
2.00729
1.98884
1.97254
1.95729
1.94149
1.92371
1.9039
1.88407
1.86638
1.85063
1.83586
1.82251
1.82301
1.84046
1.89451
1.96986
2.0187
2.01709
2.00321
1.99174
1.98289
1.97555
1.96807
1.95949
1.94535
1.92483
1.91094
1.90302
1.89647
1.89829
1.89885
1.91677
1.97092
2.03255
2.05662
2.0693
2.07671
2.07576
2.07114
2.0651
2.05787
2.05293
2.05116
2.05
2.04941
2.04717
2.04378
2.03947
2.03373
2.02886
2.02622
2.02405
2.02157
2.0183
2.01392
2.00846
2.00296
1.99856
1.99526
1.99218
1.98868
1.98406
1.97774
1.97027
1.96305
1.95795
1.95016
2.64585
2.63492
2.62132
2.60618
2.58911
2.57054
2.55141
2.53122
2.50793
2.48262
2.45867
2.43844
2.41872
2.392
2.36214
2.33567
2.31462
2.29522
2.27322
2.24924
2.22378
2.19927
2.17775
2.15858
2.14023
2.12127
2.10041
2.07781
2.05588
2.03607
2.01808
2.00073
1.98294
1.9637
1.94328
1.92329
1.90495
1.88839
1.87219
1.85504
1.8354
1.81882
1.81166
1.82329
1.87149
1.9482
2.0039
2.00702
1.99773
1.98574
1.97733
1.971
1.96394
1.95437
1.93791
1.91922
1.90984
1.90919
1.91525
1.94931
2.01361
2.07722
2.10487
2.10496
2.10001
2.09616
2.09431
2.09341
2.09127
2.08826
2.08375
2.07855
2.0754
2.07309
2.07079
2.0679
2.06488
2.06125
2.05616
2.05107
2.04726
2.04367
2.03979
2.03576
2.03185
2.02806
2.02389
2.01939
2.01472
2.00952
2.00339
1.99655
1.98989
1.98411
1.97975
1.97185
2.64213
2.63193
2.61886
2.60493
2.58987
2.57449
2.55806
2.53924
2.51839
2.49755
2.47833
2.45995
2.4369
2.40988
2.38393
2.36279
2.34401
2.32228
2.29737
2.27023
2.24671
2.22561
2.20527
2.18508
2.16391
2.14073
2.11677
2.09435
2.07408
2.05552
2.03766
2.01903
1.99834
1.97581
1.95405
1.93507
1.91852
1.90325
1.88719
1.86921
1.84714
1.82476
1.80785
1.80147
1.81024
1.85026
1.91638
1.98297
1.99476
1.98679
1.97647
1.96791
1.95981
1.95083
1.94089
1.92871
1.92063
1.92679
1.96696
2.03965
2.09858
2.12972
2.13149
2.12626
2.11634
2.11108
2.10858
2.10831
2.10853
2.10627
2.10287
2.09701
2.09233
2.08973
2.08742
2.08523
2.08236
2.07862
2.07258
2.06526
2.06035
2.05708
2.05428
2.05159
2.04869
2.04504
2.0397
2.03295
2.02623
2.02035
2.01535
2.01068
2.00564
1.99959
1.99386
1.98433
2.63971
2.62932
2.61637
2.60286
2.58846
2.57326
2.55636
2.53788
2.51884
2.5005
2.48295
2.46323
2.43836
2.41377
2.39398
2.3768
2.35641
2.3325
2.30537
2.28034
2.25924
2.23939
2.21953
2.19873
2.17514
2.14929
2.12481
2.10351
2.0847
2.067
2.04909
2.02937
2.0065
1.98196
1.95994
1.94221
1.92688
1.91181
1.89554
1.87732
1.8546
1.83104
1.81177
1.79836
1.79342
1.79708
1.8224
1.88418
1.95442
1.97452
1.97046
1.96256
1.95322
1.94349
1.93873
1.93492
1.94391
1.98611
2.06213
2.10782
2.13593
2.14417
2.14162
2.13652
2.12736
2.12018
2.11728
2.11567
2.11528
2.1136
2.11119
2.10687
2.102
2.09914
2.09658
2.09372
2.09022
2.08536
2.07879
2.07274
2.06902
2.06616
2.06355
2.06087
2.0573
2.05223
2.04495
2.03796
2.03283
2.02856
2.02449
2.02001
2.01433
2.00618
1.99843
1.98923
2.6409
2.6298
2.61639
2.60257
2.58785
2.57208
2.55507
2.53743
2.51977
2.50237
2.484
2.46209
2.43903
2.41851
2.40036
2.38237
2.36016
2.3347
2.30847
2.28543
2.26525
2.24568
2.22532
2.20323
2.17845
2.15273
2.1292
2.10881
2.09053
2.07301
2.05484
2.0339
2.01
1.98588
1.96445
1.9464
1.93127
1.91756
1.90223
1.88345
1.86131
1.83791
1.81731
1.80049
1.78767
1.78024
1.78066
1.79718
1.8523
1.91773
1.9448
1.95153
1.94426
1.93894
1.94176
1.95875
2.00642
2.08079
2.12307
2.13529
2.14149
2.14442
2.14222
2.1382
2.13137
2.12439
2.12122
2.11909
2.11791
2.1165
2.11452
2.11152
2.10705
2.10277
2.09933
2.09588
2.09195
2.08741
2.08254
2.07801
2.07445
2.07134
2.06814
2.06446
2.05957
2.05337
2.04692
2.04164
2.03752
2.03353
2.02905
2.02366
2.01707
2.00903
2.00203
1.9932
2.64509
2.63311
2.61896
2.6046
2.58935
2.57321
2.55634
2.53909
2.52174
2.50369
2.48382
2.46216
2.44109
2.42194
2.40388
2.38386
2.36027
2.33499
2.31122
2.28997
2.26963
2.24892
2.22707
2.20321
2.1785
2.15496
2.13369
2.11384
2.09455
2.0753
2.05464
2.03228
2.01022
1.98978
1.97087
1.95251
1.9341
1.91598
1.89778
1.87913
1.86185
1.8449
1.82757
1.80931
1.79053
1.77313
1.75977
1.75575
1.76981
1.81863
1.87894
1.92097
1.92954
1.93987
1.96784
2.02041
2.08894
2.1361
2.1511
2.14628
2.14081
2.13937
2.13799
2.1355
2.13165
2.12636
2.12293
2.12076
2.1189
2.11718
2.11514
2.11242
2.10853
2.104
2.09988
2.09623
2.09257
2.08868
2.08479
2.08126
2.07763
2.07363
2.06922
2.06434
2.059
2.05352
2.04849
2.04409
2.0397
2.03506
2.02996
2.02419
2.01798
2.01153
2.00618
1.99724
2.64915
2.63689
2.62251
2.60787
2.59227
2.57597
2.55911
2.54176
2.52374
2.50466
2.48445
2.46406
2.44435
2.42558
2.40552
2.38191
2.35773
2.33568
2.31508
2.29443
2.27303
2.25017
2.22587
2.20144
2.17836
2.1577
2.13841
2.11892
2.09804
2.07505
2.05148
2.02955
2.01019
1.99297
1.97626
1.9583
1.93821
1.916
1.89468
1.87632
1.86071
1.84685
1.83283
1.81606
1.79578
1.77233
1.75252
1.73905
1.73521
1.74731
1.79197
1.85599
1.90932
1.96624
2.03494
2.08558
2.13359
2.14927
2.14856
2.14303
2.13746
2.13436
2.133
2.13197
2.13036
2.12781
2.1242
2.12154
2.11949
2.11745
2.11505
2.11205
2.10835
2.1041
2.09994
2.09624
2.09279
2.08962
2.08667
2.08338
2.07931
2.0742
2.0687
2.06342
2.05842
2.05382
2.04962
2.04534
2.04054
2.03512
2.02949
2.02393
2.01854
2.0135
2.0092
2.00033
2.6509
2.63902
2.62472
2.61006
2.59449
2.57823
2.56128
2.54355
2.52488
2.50543
2.48586
2.46688
2.44823
2.42832
2.40477
2.38076
2.35832
2.3381
2.3193
2.29799
2.27529
2.25023
2.22367
2.19959
2.1794
2.161
2.14269
2.12298
2.09981
2.07294
2.04705
2.02683
2.01105
1.99656
1.98158
1.96386
1.94068
1.91292
1.88883
1.87241
1.86036
1.84935
1.83756
1.82255
1.80016
1.77129
1.74582
1.73075
1.72226
1.72107
1.73526
1.78606
1.89043
2.00451
2.08539
2.14621
2.17636
2.17044
2.15495
2.14198
2.13452
2.13173
2.13034
2.12995
2.12924
2.12767
2.12507
2.12183
2.1194
2.11718
2.11458
2.11156
2.10818
2.10438
2.10021
2.09646
2.0935
2.09072
2.0877
2.0841
2.07956
2.074
2.06797
2.06249
2.05798
2.05419
2.05045
2.04622
2.04096
2.03458
2.02822
2.02309
2.01914
2.01523
2.01112
2.00127
)
;

boundaryField
{
    inlet
    {
        type            fixedValue;
        value           uniform 1;
    }
    outlet
    {
        type            inletOutlet;
        inletValue      uniform 1;
        value           nonuniform List<scalar> 
32
(
2.46559
2.45429
2.43289
2.38111
2.31484
2.24891
2.18977
2.12055
2.04577
1.98365
1.94579
1.92182
1.90426
1.88821
1.8709
1.85422
1.84393
1.84082
1.84171
1.84895
1.85687
1.87296
1.89745
1.92435
1.95033
1.972
1.98428
1.98947
1.99352
1.99727
2.0002
2.00084
)
;
    }
    bottom
    {
        type            symmetryPlane;
    }
    top
    {
        type            symmetryPlane;
    }
    obstacle
    {
        type            zeroGradient;
    }
    defaultFaces
    {
        type            empty;
    }
}


// ************************************************************************* //
