/*--------------------------------*- C++ -*----------------------------------*\
  =========                 |
  \\      /  F ield         | OpenFOAM: The Open Source CFD Toolbox
   \\    /   O peration     | Website:  https://openfoam.org
    \\  /    A nd           | Version:  7
     \\/     M anipulation  |
\*---------------------------------------------------------------------------*/
FoamFile
{
    version     2.0;
    format      ascii;
    class       volVectorField;
    location    "8.5";
    object      U;
}
// * * * * * * * * * * * * * * * * * * * * * * * * * * * * * * * * * * * * * //

dimensions      [0 1 -1 0 0 0 0];

internalField   nonuniform List<vector> 
4032
(
(3 -1.43081e-16 0)
(3 -2.82823e-16 0)
(3 -3.67038e-16 0)
(3 -7.76139e-16 0)
(3 -5.21382e-16 0)
(3 1.72865e-16 0)
(3 8.4762e-16 0)
(3 6.30877e-16 0)
(3 5.16259e-16 0)
(3 5.41317e-16 0)
(3 1.96931e-16 0)
(2.9004 0.00319788 0)
(0.988536 0.0160484 0)
(0.709838 0.0193585 0)
(0.658013 0.0241749 0)
(0.598056 0.0256162 0)
(0.539024 0.0268035 0)
(0.478234 0.0281257 0)
(0.415733 0.0296259 0)
(0.350846 0.0314219 0)
(0.283032 0.0334166 0)
(0.210679 0.0364597 0)
(0.132043 0.0391109 0)
(0.0494474 0.0445806 0)
(3 -8.95136e-17 0)
(3 -5.28664e-16 0)
(3 -9.04269e-16 0)
(3 -1.03143e-15 0)
(3 -6.16287e-16 0)
(3 -2.44691e-16 0)
(3 2.87994e-16 0)
(3 -4.162e-17 0)
(3 -2.94157e-16 0)
(3 -2.98464e-16 0)
(3 -2.78098e-16 0)
(2.91041 0.0202446 0)
(0.994523 0.0742664 0)
(0.695685 0.0666784 0)
(0.641527 0.0708091 0)
(0.58272 0.0753206 0)
(0.523969 0.0797155 0)
(0.462965 0.084383 0)
(0.399964 0.0891775 0)
(0.334813 0.0947141 0)
(0.267528 0.100636 0)
(0.19749 0.110251 0)
(0.122282 0.118877 0)
(0.0460012 0.134613 0)
(3 1.17064e-16 0)
(3 9.67391e-18 0)
(3 1.40834e-17 0)
(3 1.04391e-16 0)
(3 1.65777e-16 0)
(3 2.44991e-16 0)
(3 8.66049e-17 0)
(3 -3.38881e-16 0)
(3 -4.8863e-16 0)
(3 -1.21447e-15 0)
(3 -1.55695e-15 0)
(2.95435 0.040296 0)
(1.03204 0.137791 0)
(0.711066 0.115887 0)
(0.656567 0.12241 0)
(0.595769 0.129807 0)
(0.534916 0.137357 0)
(0.471783 0.14544 0)
(0.406211 0.153442 0)
(0.337951 0.162133 0)
(0.267054 0.170181 0)
(0.194507 0.183582 0)
(0.117775 0.195118 0)
(0.0438553 0.217504 0)
(3 1.83613e-17 0)
(3 9.52356e-17 0)
(3 -1.8535e-17 0)
(3 7.62184e-17 0)
(3 1.12339e-16 0)
(3 1.27801e-16 0)
(3 2.77808e-16 0)
(3 6.87496e-16 0)
(3 8.0581e-16 0)
(3 3.87318e-16 0)
(3 -1.88798e-16 0)
(3.00841 0.00636353 0)
(1.10741 0.182254 0)
(0.743891 0.152724 0)
(0.692427 0.166588 0)
(0.632939 0.178498 0)
(0.571925 0.190046 0)
(0.508191 0.20286 0)
(0.440652 0.216177 0)
(0.368474 0.231199 0)
(0.291025 0.244353 0)
(0.211331 0.262812 0)
(0.126955 0.27701 0)
(0.0459736 0.30254 0)
(3 -2.46446e-16 0)
(3 -1.47875e-17 0)
(3 -1.98671e-17 0)
(3 1.42926e-16 0)
(3 2.11826e-16 0)
(3 4.96337e-16 0)
(3 3.96755e-16 0)
(3 1.10784e-16 0)
(3 -3.58944e-16 0)
(3 1.57423e-16 0)
(3 2.27684e-16 0)
(3.0006 3.0575e-05 0)
(1.21579 0.224429 0)
(0.750415 0.197123 0)
(0.69597 0.217791 0)
(0.639874 0.234261 0)
(0.581489 0.249282 0)
(0.521206 0.266852 0)
(0.457361 0.285721 0)
(0.389476 0.307377 0)
(0.314813 0.325389 0)
(0.235781 0.348532 0)
(0.145663 0.367761 0)
(0.055052 0.399485 0)
(3 5.83806e-17 0)
(3 -3.82459e-16 0)
(3 -3.96114e-16 0)
(3 -1.88389e-16 0)
(3 2.78737e-16 0)
(3 4.43632e-16 0)
(3 5.89142e-17 0)
(3 -4.13978e-16 0)
(3 -4.42499e-16 0)
(3 -4.52774e-16 0)
(3 -1.472e-16 0)
(3 -1.21647e-07 0)
(1.39524 0.274616 0)
(0.765751 0.245367 0)
(0.697244 0.261926 0)
(0.648291 0.281152 0)
(0.598152 0.29889 0)
(0.547745 0.320357 0)
(0.492377 0.344605 0)
(0.430598 0.375026 0)
(0.355311 0.405323 0)
(0.268383 0.443064 0)
(0.1662 0.478216 0)
(0.0561659 0.517172 0)
(3 6.628e-17 0)
(3 -3.975e-16 0)
(3 -8.83589e-17 0)
(3 3.87846e-16 0)
(3 2.83437e-16 0)
(3 -3.12313e-17 0)
(3 1.07965e-16 0)
(3 1.49238e-16 0)
(3 2.05836e-16 0)
(3 3.79931e-16 0)
(3 8.83958e-16 0)
(3 -1.23619e-07 0)
(1.669 0.325828 0)
(0.79609 0.309231 0)
(0.696865 0.308625 0)
(0.646112 0.32523 0)
(0.598176 0.343606 0)
(0.55488 0.369894 0)
(0.508558 0.402335 0)
(0.459222 0.444888 0)
(0.397914 0.491944 0)
(0.3265 0.54355 0)
(0.23317 0.59435 0)
(0.101332 0.659945 0)
(3 6.6374e-18 0)
(3 6.43506e-16 0)
(3 8.50667e-16 0)
(3 6.98301e-16 0)
(3 6.60138e-16 0)
(3 7.50495e-16 0)
(3 1.17856e-15 0)
(3 7.02057e-16 0)
(3 -3.19486e-16 0)
(3 -2.41784e-17 0)
(3 5.22471e-16 0)
(3 -2.58901e-08 0)
(2.07175 0.367445 0)
(0.852262 0.394392 0)
(0.716946 0.370083 0)
(0.667272 0.379019 0)
(0.62041 0.392324 0)
(0.579784 0.416725 0)
(0.540777 0.452256 0)
(0.50216 0.501166 0)
(0.457701 0.560455 0)
(0.395329 0.641409 0)
(0.274765 0.757113 0)
(0.151139 0.923601 0)
(3 -5.90162e-17 0)
(3 4.35648e-18 0)
(3 3.58333e-16 0)
(3 2.80829e-16 0)
(3 3.17777e-16 0)
(3 3.03057e-16 0)
(3 2.77056e-16 0)
(3 3.09147e-16 0)
(3 1.0942e-16 0)
(3 -1.87317e-16 0)
(3 1.98855e-16 0)
(3 -2.68803e-09 0)
(2.65562 0.303241 0)
(0.984321 0.477922 0)
(0.803445 0.406373 0)
(0.751694 0.414826 0)
(0.694171 0.433278 0)
(0.642896 0.459494 0)
(0.60012 0.496738 0)
(0.563806 0.550043 0)
(0.529716 0.626817 0)
(0.496604 0.751063 0)
(0.464765 0.923042 0)
(0.577115 1.20134 0)
(3 -3.23974e-17 0)
(3 -3.09002e-16 0)
(3 -2.79658e-16 0)
(3 -3.84045e-16 0)
(3 -5.56377e-16 0)
(3 -1.07863e-15 0)
(3 -1.20777e-15 0)
(3 -1.18631e-15 0)
(3 -7.82082e-16 0)
(3 -6.86802e-16 0)
(3 -2.38956e-16 0)
(3 -1.08411e-10 0)
(3.07677 0.0427674 0)
(1.21916 0.46955 0)
(0.882312 0.447545 0)
(0.838787 0.473916 0)
(0.785354 0.489701 0)
(0.731163 0.511205 0)
(0.682871 0.544822 0)
(0.643976 0.597036 0)
(0.624253 0.681616 0)
(0.623123 0.816669 0)
(0.686127 0.965928 0)
(0.968783 1.13921 0)
(3 2.44329e-16 0)
(3 6.61857e-17 0)
(3 -5.83906e-16 0)
(3 -1.04354e-15 0)
(3 -1.43747e-15 0)
(3 -1.74231e-15 0)
(3 -1.75117e-15 0)
(3 -2.21844e-15 0)
(3 -1.73182e-15 0)
(3 -1.29115e-15 0)
(3 -1.37048e-16 0)
(3 -2.25976e-12 0)
(3.00866 8.10446e-05 0)
(1.43607 0.462146 0)
(0.884391 0.512239 0)
(0.836747 0.531428 0)
(0.801076 0.550835 0)
(0.772759 0.575496 0)
(0.745289 0.607669 0)
(0.72063 0.651742 0)
(0.723167 0.725633 0)
(0.75087 0.840201 0)
(0.872856 0.964007 0)
(1.17879 1.0708 0)
(3 -4.22845e-19 0)
(3 1.03725e-16 0)
(3 -2.33205e-16 0)
(3 -1.63319e-16 0)
(3 -6.1286e-16 0)
(3 -9.42931e-16 0)
(3 -1.10225e-15 0)
(3 -9.85463e-16 0)
(3 -1.25513e-15 0)
(3 -6.86518e-16 0)
(3 8.11495e-17 0)
(3 -1.96965e-14 0)
(3.00006 -2.51063e-06 0)
(1.94277 0.494167 0)
(0.9292 0.576702 0)
(0.853505 0.560267 0)
(0.834125 0.581931 0)
(0.819798 0.607542 0)
(0.809803 0.642236 0)
(0.802013 0.682739 0)
(0.817499 0.746216 0)
(0.866935 0.837691 0)
(1.01043 0.939763 0)
(1.27526 1.0075 0)
(3 -2.94819e-16 0)
(3 -6.62197e-16 0)
(3 -5.44668e-16 0)
(3 -4.75304e-16 0)
(3 -2.04413e-16 0)
(3 -3.58033e-16 0)
(3 -9.8138e-16 0)
(3 -7.47879e-16 0)
(3 -3.63101e-16 0)
(3 2.91387e-16 0)
(3 3.99693e-16 0)
(3 2.52668e-16 0)
(3.00001 -3.20851e-06 0)
(2.74711 0.319452 0)
(1.09639 0.635085 0)
(0.920572 0.580891 0)
(0.891465 0.601673 0)
(0.873901 0.63062 0)
(0.870246 0.668883 0)
(0.876582 0.711026 0)
(0.901439 0.765672 0)
(0.966306 0.834793 0)
(1.10594 0.906665 0)
(1.31867 0.947522 0)
(3 -5.13561e-17 0)
(3 -2.85055e-16 0)
(3 -1.00602e-16 0)
(3 -6.01424e-16 0)
(3 -4.04746e-16 0)
(3 3.43468e-17 0)
(3 2.17385e-18 0)
(3 -9.46571e-18 0)
(3 6.42182e-16 0)
(3 3.89262e-16 0)
(3 -2.7184e-16 0)
(3 1.99514e-16 0)
(3 -6.78076e-07 0)
(3.07456 0.0260565 0)
(1.43603 0.631856 0)
(1.00201 0.652431 0)
(0.950706 0.652086 0)
(0.925051 0.666575 0)
(0.923339 0.694075 0)
(0.939579 0.730312 0)
(0.974425 0.773748 0)
(1.04759 0.827697 0)
(1.17502 0.879279 0)
(1.3487 0.905638 0)
(3 1.91494e-16 0)
(3 2.11207e-16 0)
(3 -1.4809e-16 0)
(3 -2.72179e-17 0)
(3 6.4279e-16 0)
(3 7.89284e-16 0)
(3 9.9041e-16 0)
(3 5.65425e-16 0)
(3 1.42025e-16 0)
(3 -2.55792e-16 0)
(3 -3.23744e-16 0)
(3 3.07125e-16 0)
(3 -6.89314e-08 0)
(3.00414 7.31449e-05 0)
(1.98971 0.600032 0)
(1.06359 0.724341 0)
(1.01114 0.701958 0)
(0.99507 0.699036 0)
(0.991485 0.715203 0)
(1.00623 0.741917 0)
(1.04433 0.777913 0)
(1.11487 0.816572 0)
(1.22265 0.84995 0)
(1.36115 0.865568 0)
(3 1.97021e-16 0)
(3 3.07761e-16 0)
(3 2.70764e-16 0)
(3 1.16237e-16 0)
(3 -4.76788e-17 0)
(3 -2.73557e-16 0)
(3 -2.9398e-17 0)
(3 -3.51636e-18 0)
(3 8.83054e-17 0)
(3 -1.88337e-16 0)
(3 1.3999e-16 0)
(3 4.50234e-16 0)
(3 -2.18574e-09 0)
(3.00001 -3.2797e-07 0)
(2.93315 0.221708 0)
(1.2819 0.698035 0)
(1.08266 0.719168 0)
(1.08735 0.720509 0)
(1.0819 0.740625 0)
(1.08703 0.762113 0)
(1.11485 0.788407 0)
(1.17552 0.817536 0)
(1.26462 0.839652 0)
(1.37807 0.848482 0)
(3 -1.68073e-16 0)
(3 8.8506e-17 0)
(3 1.2628e-16 0)
(3 1.15127e-16 0)
(3 -7.86649e-16 0)
(3 -8.32393e-16 0)
(3 -2.30212e-16 0)
(3 5.05908e-17 0)
(3 -1.27812e-16 0)
(3 -2.2671e-16 0)
(3 -2.2023e-16 0)
(3 -4.58945e-16 0)
(3 -4.85338e-12 0)
(3 -7.85834e-07 0)
(3.04119 0.00643141 0)
(1.57282 0.659828 0)
(1.10026 0.75652 0)
(1.11144 0.765428 0)
(1.11734 0.783274 0)
(1.13996 0.795303 0)
(1.17392 0.806249 0)
(1.2281 0.817852 0)
(1.30279 0.828603 0)
(1.39766 0.831531 0)
(3 -1.7093e-16 0)
(3 -1.01804e-16 0)
(3 -1.73451e-16 0)
(3 -6.65542e-18 0)
(3 -2.07608e-16 0)
(3 -4.79292e-17 0)
(3 8.68458e-17 0)
(3 -2.37584e-16 0)
(3 -5.42188e-16 0)
(3 1.47964e-16 0)
(3 -3.02239e-17 0)
(3 -2.06478e-16 0)
(3 -5.9892e-15 0)
(3 -1.50575e-07 0)
(3.0008 3.59003e-05 0)
(2.38979 0.51058 0)
(1.20598 0.788984 0)
(1.13557 0.791995 0)
(1.14899 0.795684 0)
(1.17726 0.805516 0)
(1.21718 0.81718 0)
(1.26998 0.827764 0)
(1.33811 0.834505 0)
(1.41811 0.83381 0)
(3 2.54948e-17 0)
(3 -3.68264e-17 0)
(3 2.43972e-16 0)
(3 -9.90568e-17 0)
(3 -1.56491e-17 0)
(3 -2.22077e-16 0)
(3 -3.14032e-16 0)
(3 -1.97913e-17 0)
(3 5.72985e-16 0)
(3 4.44574e-16 0)
(3 5.6962e-16 0)
(3 1.0675e-15 0)
(3 1.38047e-15 0)
(3 -4.72088e-09 0)
(3.00002 -5.56735e-06 0)
(3.05773 0.0722892 0)
(1.56695 0.776492 0)
(1.18502 0.786184 0)
(1.19862 0.794184 0)
(1.22173 0.80646 0)
(1.25937 0.817831 0)
(1.30907 0.827146 0)
(1.37106 0.831828 0)
(1.44153 0.829995 0)
(3 -1.24648e-16 0)
(3 -1.60774e-16 0)
(3 -3.25304e-16 0)
(3 -4.66041e-16 0)
(3 -1.86091e-16 0)
(3 -1.36484e-16 0)
(3 -8.25897e-17 0)
(3 8.54135e-16 0)
(3 9.87971e-16 0)
(3 8.43707e-16 0)
(3 8.90404e-16 0)
(3 9.19887e-16 0)
(3 1.45655e-15 0)
(3 -1.70995e-11 0)
(3 -1.39988e-06 0)
(3.00814 0.0013775 0)
(2.29508 0.630849 0)
(1.26382 0.848493 0)
(1.22301 0.833679 0)
(1.25636 0.833458 0)
(1.29008 0.83822 0)
(1.33738 0.842649 0)
(1.39454 0.844296 0)
(1.45862 0.841423 0)
(3 4.11834e-17 0)
(3 1.88812e-17 0)
(3 -3.13608e-17 0)
(3 3.34282e-16 0)
(3 4.08995e-16 0)
(3 8.54847e-16 0)
(3 1.00341e-15 0)
(3 1.28687e-15 0)
(3 1.21673e-15 0)
(3 8.86249e-16 0)
(3 3.58571e-16 0)
(3 -1.84312e-16 0)
(3 3.46648e-16 0)
(3 -6.44852e-15 0)
(3 -1.19039e-07 0)
(3.00003 9.46207e-06 0)
(3.03933 0.117468 0)
(1.62747 0.827322 0)
(1.26876 0.830966 0)
(1.30418 0.833134 0)
(1.33019 0.838281 0)
(1.37227 0.84162 0)
(1.42427 0.842474 0)
(1.48159 0.842247 0)
(3 5.55976e-18 0)
(3 1.68294e-16 0)
(3 4.02116e-16 0)
(3 9.91102e-16 0)
(3 1.29241e-15 0)
(3 8.20417e-16 0)
(3 7.33345e-16 0)
(3 3.74883e-16 0)
(3 2.16541e-16 0)
(3 4.9044e-16 0)
(3 3.73826e-16 0)
(3 -3.0796e-16 0)
(3 -5.29204e-17 0)
(3 -5.4532e-16 0)
(3 -1.44107e-09 0)
(3 -1.07684e-07 0)
(3.01057 0.0034418 0)
(2.37226 0.636748 0)
(1.35563 0.885965 0)
(1.32468 0.874771 0)
(1.35863 0.867119 0)
(1.39555 0.86625 0)
(1.44178 0.86533 0)
(1.49563 0.858394 0)
(3 -1.12408e-17 0)
(3 3.18954e-17 0)
(3 -3.10833e-17 0)
(3 1.20284e-16 0)
(3 3.25021e-16 0)
(3 1.1639e-16 0)
(3 -1.92902e-16 0)
(3 -8.84764e-16 0)
(3 -7.95081e-16 0)
(3 -2.24166e-16 0)
(3 1.86364e-16 0)
(3 5.54967e-17 0)
(3 8.07756e-17 0)
(3 5.41626e-18 0)
(3 -3.22876e-12 0)
(3 -2.66845e-08 0)
(3.00005 4.19436e-05 0)
(3.03253 0.104938 0)
(1.76039 0.836172 0)
(1.36052 0.879655 0)
(1.4043 0.875231 0)
(1.4308 0.874562 0)
(1.474 0.865146 0)
(1.50534 0.859401 0)
(3 2.61593e-17 0)
(3 -1.29984e-16 0)
(3 -1.92896e-16 0)
(3 -1.97421e-17 0)
(3 -1.81211e-16 0)
(3 -7.58484e-16 0)
(3 -6.79696e-16 0)
(3 -3.19568e-16 0)
(3 -3.18768e-16 0)
(3 -2.88726e-16 0)
(3 4.32884e-17 0)
(3 4.14247e-16 0)
(3 -1.52527e-16 0)
(3 -6.15949e-16 0)
(3 -2.78746e-15 0)
(3 -2.49759e-09 0)
(3 2.42524e-08 0)
(3.00616 0.00427804 0)
(2.60697 0.526477 0)
(1.51367 0.927264 0)
(1.43275 0.914227 0)
(1.46226 0.899307 0)
(1.48268 0.888292 0)
(1.47071 0.816029 0)
(3 1.20185e-16 0)
(3 2.46843e-16 0)
(3 2.57903e-16 0)
(3 1.88684e-16 0)
(3 2.81793e-16 0)
(3 2.89612e-16 0)
(3 1.15245e-16 0)
(3 -7.89754e-17 0)
(3 -2.76361e-17 0)
(3 -1.03728e-16 0)
(3 -4.08149e-16 0)
(3 -5.58574e-16 0)
(3 -8.68862e-16 0)
(3 -1.37366e-15 0)
(3 -8.75704e-16 0)
(3 -9.89564e-11 0)
(3 -9.68389e-11 0)
(3.00002 4.54766e-05 0)
(3.03159 0.0530274 0)
(2.02446 0.801449 0)
(1.48824 0.926995 0)
(1.48015 0.906173 0)
(1.4556 0.826993 0)
(1.37388 0.679434 0)
(3 2.42454e-17 0)
(3 2.2748e-17 0)
(3 -2.19595e-16 0)
(3 -3.16949e-16 0)
(3 -4.46807e-17 0)
(3 7.66314e-16 0)
(3 6.79817e-16 0)
(3 4.24008e-16 0)
(3 1.15673e-16 0)
(3 -4.85723e-16 0)
(3 -1.86949e-15 0)
(3 -2.69818e-15 0)
(3 -2.96735e-15 0)
(3 -2.53905e-15 0)
(3 -1.40404e-15 0)
(3 -8.69963e-13 0)
(3 -3.06377e-11 0)
(3 3.33581e-08 0)
(3.00151 0.00243049 0)
(2.90843 0.331146 0)
(1.68284 0.962438 0)
(1.4331 0.853092 0)
(1.34527 0.70301 0)
(1.30961 0.582408 0)
(3 -1.04555e-16 0)
(3 -2.37155e-16 0)
(3 1.76259e-16 0)
(3 3.45491e-16 0)
(3 5.72386e-16 0)
(3 4.48092e-17 0)
(3 4.02762e-16 0)
(3 6.132e-16 0)
(3 9.37281e-17 0)
(3 -1.47065e-16 0)
(3 -7.05704e-16 0)
(3 -1.75394e-15 0)
(3 -2.08741e-15 0)
(3 -2.28523e-15 0)
(3 -2.42956e-15 0)
(3 -3.53206e-15 0)
(3 -4.04703e-12 0)
(3 3.02757e-12 0)
(3 1.26465e-05 0)
(3.01905 0.02438 0)
(2.46992 0.634306 0)
(1.357 0.745707 0)
(1.2381 0.588029 0)
(1.29052 0.53646 0)
(3 5.66558e-18 0)
(3 2.37551e-17 0)
(3 4.12493e-16 0)
(3 2.01028e-16 0)
(3 -3.21013e-17 0)
(3 2.06589e-16 0)
(3 5.52397e-16 0)
(3 2.05489e-16 0)
(3 -2.5662e-16 0)
(3 -2.08193e-17 0)
(3 5.20703e-16 0)
(3 1.61058e-16 0)
(3 -5.44177e-16 0)
(3 -1.48066e-15 0)
(3 -8.78708e-16 0)
(3 4.29541e-17 0)
(3 -2.57315e-13 0)
(3 -2.58904e-13 0)
(3 5.04657e-09 0)
(3.00011 0.00095986 0)
(2.88703 0.0512015 0)
(1.25453 0.405552 0)
(1.14398 0.465347 0)
(1.26788 0.472234 0)
(3 1.85257e-16 0)
(3 -2.6545e-17 0)
(3 -2.12708e-16 0)
(3 -4.21047e-16 0)
(3 -5.23105e-16 0)
(3 2.6567e-16 0)
(3 5.32843e-16 0)
(3 1.90671e-16 0)
(3 2.2972e-17 0)
(3 -1.73235e-16 0)
(3 2.8288e-16 0)
(3 7.69833e-16 0)
(3 3.2106e-16 0)
(3 -3.12379e-16 0)
(3 -1.28267e-16 0)
(3 1.90986e-16 0)
(3 -4.25031e-15 0)
(3 -8.75234e-14 0)
(3 1.26237e-12 0)
(3 3.97735e-06 0)
(2.74975 0.0208077 0)
(1.00262 0.26074 0)
(0.938867 0.423887 0)
(1.13003 0.461218 0)
(3 -4.79172e-17 0)
(3 -2.96846e-17 0)
(3 -2.5643e-16 0)
(3 -7.92651e-16 0)
(3 -6.18266e-16 0)
(3 -6.46029e-16 0)
(3 -5.96799e-16 0)
(3 -5.54575e-16 0)
(3 -5.88164e-18 0)
(3 3.12398e-16 0)
(3 -8.61753e-17 0)
(3 -5.9699e-16 0)
(3 -6.35564e-17 0)
(3 7.61356e-16 0)
(3 4.71623e-16 0)
(3 -2.70079e-16 0)
(3 -4.32992e-16 0)
(3 -1.21672e-14 0)
(3 -1.26108e-14 0)
(3 3.84521e-09 0)
(2.85851 0.0805967 0)
(0.989476 0.19751 0)
(0.818247 0.296987 0)
(0.959971 0.326793 0)
(3 -1.35233e-16 0)
(3 -2.04125e-16 0)
(3 -4.17721e-16 0)
(3 -1.42369e-16 0)
(3 1.14769e-16 0)
(3 3.28474e-16 0)
(3 -2.1952e-17 0)
(3 -3.27773e-16 0)
(3 7.25037e-17 0)
(3 3.58086e-16 0)
(3 -2.51393e-16 0)
(3 -3.6329e-16 0)
(3 -2.31548e-16 0)
(3 5.64122e-16 0)
(3 1.16905e-15 0)
(3 9.99766e-17 0)
(3 -3.06637e-16 0)
(3 -1.08701e-15 0)
(3 -4.21388e-15 0)
(3 1.87873e-12 0)
(2.96865 0.0255037 0)
(1.07814 0.201603 0)
(0.794787 0.245516 0)
(0.862078 0.249855 0)
(3 1.84993e-16 0)
(3 2.90259e-16 0)
(3 1.95068e-16 0)
(3 7.84645e-16 0)
(3 1.56038e-15 0)
(3 1.7218e-15 0)
(3 7.34987e-16 0)
(3 4.18053e-16 0)
(3 2.13288e-16 0)
(3 -2.80275e-16 0)
(3 -8.54016e-16 0)
(3 -7.41124e-16 0)
(3 -5.97298e-16 0)
(3 -3.01171e-16 0)
(3 2.70892e-16 0)
(3 3.70709e-16 0)
(3 -6.7973e-16 0)
(3 -8.09081e-16 0)
(3 -1.70769e-15 0)
(3 -8.65202e-16 0)
(3.00477 0.0036678 0)
(1.17149 0.219068 0)
(0.808585 0.213706 0)
(0.842646 0.211034 0)
(3 -6.143e-18 0)
(3 1.66332e-16 0)
(3 1.85461e-16 0)
(3 -5.13332e-18 0)
(3 1.29907e-16 0)
(3 -3.73803e-17 0)
(3 5.19787e-16 0)
(3 7.50115e-16 0)
(3 -1.36015e-16 0)
(3 -8.05724e-16 0)
(3 -1.21314e-15 0)
(3 -1.78881e-15 0)
(3 -1.3676e-15 0)
(3 -4.26813e-16 0)
(3 -2.41155e-16 0)
(3 4.77209e-16 0)
(3 -6.60035e-16 0)
(3 -1.35196e-15 0)
(3 -1.62741e-15 0)
(3 -1.64905e-15 0)
(3.00014 8.80344e-06 0)
(1.26949 0.212343 0)
(0.821098 0.192229 0)
(0.835126 0.187905 0)
(3 -1.71933e-16 0)
(3 -2.10004e-16 0)
(3 -7.61574e-17 0)
(3 -2.8413e-16 0)
(3 -2.79785e-16 0)
(3 -4.8489e-16 0)
(3 -2.46626e-16 0)
(3 -2.01859e-17 0)
(3 -4.8314e-17 0)
(3 -8.37783e-17 0)
(3 1.62463e-16 0)
(3 -6.27514e-17 0)
(3 2.87616e-16 0)
(3 3.29513e-16 0)
(3 -1.8532e-16 0)
(3 -6.24711e-16 0)
(3 -7.35112e-16 0)
(3 -8.37852e-16 0)
(3 -1.14314e-15 0)
(3 -1.69157e-15 0)
(3 -1.14045e-08 0)
(1.40655 0.202456 0)
(0.826716 0.173863 0)
(0.831627 0.166734 0)
(3 -3.19787e-18 0)
(3 -6.15769e-17 0)
(3 -7.70811e-17 0)
(3 -2.45023e-16 0)
(3 -7.96673e-16 0)
(3 -1.576e-15 0)
(3 -1.90941e-15 0)
(3 -1.29617e-15 0)
(3 -6.6258e-16 0)
(3 8.92567e-17 0)
(3 7.56545e-16 0)
(3 7.91876e-16 0)
(3 -1.49757e-16 0)
(3 4.39508e-16 0)
(3 -1.19522e-17 0)
(3 -9.52067e-16 0)
(3 -9.08448e-16 0)
(3 -9.47965e-16 0)
(3 -1.59194e-15 0)
(3 -1.89807e-15 0)
(3 -5.45215e-09 0)
(1.55842 0.18081 0)
(0.834213 0.152009 0)
(0.83412 0.144689 0)
(3 -9.82011e-18 0)
(3 -3.80413e-17 0)
(3 -3.46345e-16 0)
(3 -5.84585e-16 0)
(3 -1.22527e-15 0)
(3 -1.57955e-15 0)
(3 -1.10749e-15 0)
(3 -6.01204e-16 0)
(3 -3.78849e-16 0)
(3 -1.1879e-16 0)
(3 -2.25011e-16 0)
(3 9.69456e-17 0)
(3 -2.06433e-16 0)
(3 -1.36404e-17 0)
(3 3.02618e-17 0)
(3 -4.06157e-16 0)
(3 -1.22407e-15 0)
(3 -1.07123e-15 0)
(3 -1.31475e-15 0)
(3 -2.26549e-15 0)
(3 -9.73619e-10 0)
(1.70048 0.148257 0)
(0.841613 0.127816 0)
(0.834058 0.120245 0)
(3 4.91399e-17 0)
(3 4.84198e-16 0)
(3 4.84975e-16 0)
(3 2.70479e-16 0)
(3 4.73777e-16 0)
(3 -2.22693e-17 0)
(3 -8.1102e-17 0)
(3 -2.54759e-16 0)
(3 -9.92214e-16 0)
(3 -6.69924e-16 0)
(3 -4.48833e-16 0)
(3 1.49059e-16 0)
(3 7.20471e-17 0)
(3 -4.44571e-16 0)
(3 -1.94502e-16 0)
(3 -2.59702e-16 0)
(3 -1.71228e-15 0)
(3 -1.7349e-15 0)
(3 -2.21919e-15 0)
(3 -1.90219e-15 0)
(3 -8.73249e-11 0)
(1.81819 0.112139 0)
(0.847387 0.100999 0)
(0.831383 0.0940797 0)
(3 8.60715e-17 0)
(3 1.72511e-16 0)
(3 1.43254e-16 0)
(3 1.53626e-17 0)
(3 1.78573e-16 0)
(3 1.41765e-16 0)
(3 -6.4248e-16 0)
(3 -1.02459e-15 0)
(3 -1.13942e-15 0)
(3 -1.47763e-15 0)
(3 -1.24518e-15 0)
(3 -3.4893e-16 0)
(3 -2.2628e-16 0)
(3 -2.35155e-16 0)
(3 -3.03957e-16 0)
(3 -1.08777e-15 0)
(3 -1.28878e-15 0)
(3 -1.79803e-15 0)
(3 -1.74139e-15 0)
(3 -6.9198e-16 0)
(3 -2.43632e-12 0)
(1.90917 0.0762388 0)
(0.853009 0.072019 0)
(0.82993 0.067065 0)
(3 3.5533e-17 0)
(3 -3.2994e-16 0)
(3 -3.5577e-16 0)
(3 -2.7729e-16 0)
(3 -4.76701e-16 0)
(3 -7.17867e-16 0)
(3 -1.08943e-15 0)
(3 -9.28251e-16 0)
(3 -2.87913e-16 0)
(3 -8.23771e-16 0)
(3 -1.10608e-15 0)
(3 -1.10765e-15 0)
(3 -5.50268e-16 0)
(3 -3.61416e-19 0)
(3 -2.94762e-16 0)
(3 -8.94955e-16 0)
(3 -1.17212e-15 0)
(3 -2.64467e-16 0)
(3 -3.88324e-16 0)
(3 -7.09189e-16 0)
(3 -2.14165e-14 0)
(1.96612 0.0388522 0)
(0.856254 0.041049 0)
(0.827774 0.0395426 0)
(3 5.70037e-17 0)
(3 -2.16047e-16 0)
(3 -4.32568e-17 0)
(3 1.06677e-16 0)
(3 5.09035e-18 0)
(3 -4.00244e-16 0)
(3 -5.07992e-16 0)
(3 -2.74761e-16 0)
(3 -4.62922e-17 0)
(3 -7.2824e-17 0)
(3 -3.05511e-16 0)
(3 -5.80264e-16 0)
(3 -2.95203e-16 0)
(3 -2.8581e-16 0)
(3 -4.43798e-16 0)
(3 -4.94126e-16 0)
(3 -8.3801e-16 0)
(3 -6.45475e-16 0)
(3 -8.80413e-16 0)
(3 -1.29947e-15 0)
(3 -1.44624e-15 0)
(1.97825 0.00828506 0)
(0.849513 0.011135 0)
(0.81777 0.0130851 0)
(1.50685 1.25881 0)
(1.95716 1.34806 0)
(2.18323 1.42638 0)
(2.41434 0.805057 0)
(2.62786 0.264112 0)
(2.69318 -0.0878489 0)
(2.62066 -0.21723 0)
(2.42564 -0.32025 0)
(2.32232 -0.34714 0)
(2.3846 -0.331791 0)
(2.44374 -0.201208 0)
(2.46795 -0.177621 0)
(2.44718 -0.151373 0)
(2.42579 -0.151784 0)
(2.38289 -0.123924 0)
(2.3792 -0.10349 0)
(1.42921 0.00783233 0)
(0.83393 0.0301588 0)
(0.74961 0.0294908 0)
(0.709729 0.0217435 0)
(0.684843 0.00878514 0)
(0.681846 0.000491581 0)
(0.690789 -0.00653953 0)
(0.704838 -0.00997077 0)
(0.716687 -0.0116939 0)
(0.725693 -0.0129031 0)
(0.735564 -0.0141258 0)
(0.75039 -0.0157305 0)
(0.772021 -0.0178501 0)
(0.799777 -0.0200344 0)
(0.826992 -0.0214506 0)
(0.851483 -0.0216486 0)
(0.873009 -0.0210087 0)
(0.89528 -0.0200603 0)
(0.920978 -0.0193796 0)
(0.948873 -0.019078 0)
(0.975679 -0.0187443 0)
(0.998189 -0.0180247 0)
(1.0176 -0.0167665 0)
(1.03758 -0.0153986 0)
(1.06076 -0.0146056 0)
(1.08754 -0.0147964 0)
(1.1156 -0.0153945 0)
(1.1416 -0.0156126 0)
(1.16462 -0.0150841 0)
(1.1853 -0.0138571 0)
(1.20565 -0.012772 0)
(1.22742 -0.0123584 0)
(1.25183 -0.0123994 0)
(1.27795 -0.0122999 0)
(1.30359 -0.0115365 0)
(1.32623 -0.00966692 0)
(1.3462 -0.00739869 0)
(1.36584 -0.00588512 0)
(1.38721 -0.00537906 0)
(1.40928 -0.00561742 0)
(1.42775 -0.00584292 0)
(1.44439 -0.00553262 0)
(1.46134 -0.00452051 0)
(1.47905 -0.00324215 0)
(1.49907 -0.00242624 0)
(1.52364 -0.00249999 0)
(1.54729 -0.00288915 0)
(1.56626 -0.00292654 0)
(1.58438 -0.00252666 0)
(1.60081 -0.00141687 0)
(1.61702 0.000122528 0)
(1.63519 0.000821389 0)
(1.6547 0.00112855 0)
(1.67779 0.00100479 0)
(1.69911 0.000443319 0)
(1.7177 0.000628739 0)
(1.73488 0.00150716 0)
(1.74923 0.00263022 0)
(1.76138 0.00364365 0)
(1.77466 0.00415132 0)
(1.79046 0.00429081 0)
(1.80681 0.00424077 0)
(1.82347 0.00368631 0)
(1.83991 0.00354092 0)
(1.85614 0.00383578 0)
(1.87035 0.00467247 0)
(1.88115 0.00581933 0)
(1.89099 0.00581789 0)
(1.90531 0.00522434 0)
(1.92326 0.00606549 0)
(1.93458 0.00333464 0)
(1.92899 -0.00345095 0)
(1.87228 -0.0224413 0)
(1.70164 -0.0343776 0)
(1.37407 -0.0311824 0)
(1.35527 -0.0215956 0)
(1.40765 -0.0159999 0)
(1.43926 -0.00953821 0)
(1.45099 -0.00703003 0)
(1.45484 -0.00274777 0)
(1.76302 1.09472 0)
(2.29513 0.809236 0)
(2.51639 0.515809 0)
(2.59964 0.10457 0)
(2.7238 -0.267294 0)
(2.77852 -0.500324 0)
(2.78769 -0.608498 0)
(2.71223 -0.641756 0)
(2.66867 -0.614536 0)
(2.5808 -0.503495 0)
(2.53542 -0.331138 0)
(2.55016 -0.215578 0)
(2.53819 -0.167522 0)
(2.52925 -0.179529 0)
(2.45263 -0.113176 0)
(2.45302 -0.102137 0)
(1.58332 0.146037 0)
(0.845583 0.132906 0)
(0.793592 0.0773367 0)
(0.776707 0.0182306 0)
(0.755618 -0.00307586 0)
(0.749289 -0.0102934 0)
(0.752324 -0.0118289 0)
(0.762203 -0.016357 0)
(0.774801 -0.0207585 0)
(0.785979 -0.0224348 0)
(0.797346 -0.021073 0)
(0.811276 -0.0184451 0)
(0.829872 -0.0168515 0)
(0.852767 -0.0191418 0)
(0.878695 -0.0246408 0)
(0.9036 -0.0287182 0)
(0.926104 -0.0285366 0)
(0.947264 -0.025267 0)
(0.969289 -0.0221742 0)
(0.99308 -0.0227561 0)
(1.01751 -0.0263099 0)
(1.04033 -0.0284853 0)
(1.06105 -0.0268111 0)
(1.08121 -0.0217124 0)
(1.10248 -0.0154327 0)
(1.12494 -0.0121681 0)
(1.14851 -0.0142637 0)
(1.17376 -0.0191711 0)
(1.19876 -0.0217753 0)
(1.22128 -0.0196138 0)
(1.24071 -0.0142841 0)
(1.25956 -0.00978445 0)
(1.27907 -0.00913141 0)
(1.30136 -0.0126734 0)
(1.32681 -0.0169653 0)
(1.35214 -0.0168717 0)
(1.37356 -0.0116353 0)
(1.39257 -0.0043192 0)
(1.41068 0.000881424 0)
(1.42649 0.000955687 0)
(1.44306 -0.00364295 0)
(1.46157 -0.00760779 0)
(1.48025 -0.00767642 0)
(1.49958 -0.00466871 0)
(1.52042 0.000843042 0)
(1.5419 0.0046984 0)
(1.56121 0.00367605 0)
(1.57927 0.00104143 0)
(1.5972 -0.00104232 0)
(1.61539 -0.0013286 0)
(1.63308 0.00163031 0)
(1.65029 0.00663137 0)
(1.66872 0.0104309 0)
(1.6872 0.0112751 0)
(1.7063 0.00869721 0)
(1.72549 0.00499586 0)
(1.7434 0.00331626 0)
(1.76085 0.00379777 0)
(1.77609 0.00795354 0)
(1.7884 0.0144525 0)
(1.7995 0.0189069 0)
(1.81304 0.0190741 0)
(1.82911 0.017097 0)
(1.84655 0.0128505 0)
(1.86349 0.00961178 0)
(1.87996 0.00787421 0)
(1.89479 0.010094 0)
(1.90529 0.0162351 0)
(1.91389 0.0157301 0)
(1.92767 0.00951168 0)
(1.9264 -0.00549711 0)
(1.91274 -0.0328607 0)
(1.83691 -0.107851 0)
(1.74229 -0.118931 0)
(1.45182 -0.0529171 0)
(1.39755 -0.0100498 0)
(1.42958 -0.000635231 0)
(1.45285 -0.000981128 0)
(1.46283 -0.00139705 0)
(1.46537 0.0036902 0)
(1.6815 1.02921 0)
(2.08647 0.813758 0)
(2.28685 0.713783 0)
(2.44783 0.497311 0)
(2.64124 0.0935551 0)
(2.68252 -0.123074 0)
(2.72727 -0.160459 0)
(2.76583 -0.160706 0)
(2.7499 -0.313334 0)
(2.72066 -0.416857 0)
(2.70632 -0.473067 0)
(2.71363 -0.442306 0)
(2.72114 -0.402257 0)
(2.72612 -0.389697 0)
(2.66773 -0.330051 0)
(2.63418 -0.290582 0)
(2.21709 0.0770615 0)
(1.04555 0.162025 0)
(0.93507 0.0759252 0)
(0.943966 0.020344 0)
(0.934245 0.00574151 0)
(0.922967 0.00321398 0)
(0.915757 -0.00205188 0)
(0.917235 -0.00910902 0)
(0.924443 -0.0214413 0)
(0.934423 -0.0347998 0)
(0.945704 -0.046761 0)
(0.959769 -0.0552651 0)
(0.976855 -0.0583772 0)
(0.994503 -0.057023 0)
(1.01178 -0.05569 0)
(1.02909 -0.0566981 0)
(1.04745 -0.0587041 0)
(1.0676 -0.0591086 0)
(1.08849 -0.0561655 0)
(1.10742 -0.0508433 0)
(1.12438 -0.0476272 0)
(1.14107 -0.0481176 0)
(1.15908 -0.0502603 0)
(1.17923 -0.0514259 0)
(1.20095 -0.0497248 0)
(1.22168 -0.0451346 0)
(1.24069 -0.040459 0)
(1.25927 -0.038692 0)
(1.27894 -0.0404969 0)
(1.3005 -0.0433066 0)
(1.32172 -0.0426676 0)
(1.33922 -0.0383419 0)
(1.35553 -0.0322691 0)
(1.37271 -0.0268659 0)
(1.39118 -0.025277 0)
(1.41282 -0.0272475 0)
(1.43657 -0.0277066 0)
(1.45642 -0.0239946 0)
(1.47241 -0.0197439 0)
(1.48555 -0.0140609 0)
(1.49802 -0.0106354 0)
(1.51321 -0.0110946 0)
(1.53015 -0.0138413 0)
(1.55056 -0.015458 0)
(1.57302 -0.0128182 0)
(1.59213 -0.00889226 0)
(1.60917 -0.00532495 0)
(1.62387 -0.00254786 0)
(1.63813 -0.00271509 0)
(1.65474 -0.00456959 0)
(1.6721 -0.00604167 0)
(1.68999 -0.00490864 0)
(1.70805 -0.000115639 0)
(1.72467 0.00587785 0)
(1.74037 0.0103794 0)
(1.75532 0.0112586 0)
(1.77138 0.00949229 0)
(1.78767 0.00650836 0)
(1.80366 0.00510283 0)
(1.81952 0.00738566 0)
(1.83299 0.0152836 0)
(1.84335 0.0253581 0)
(1.85323 0.0314312 0)
(1.86666 0.0313306 0)
(1.88248 0.0283791 0)
(1.89909 0.0255875 0)
(1.91639 0.0252655 0)
(1.93079 0.0284905 0)
(1.93625 0.027681 0)
(1.93388 0.0162282 0)
(1.91587 -0.0113699 0)
(1.87672 -0.0634899 0)
(1.78839 -0.156957 0)
(1.7615 -0.179359 0)
(1.58728 -0.0871878 0)
(1.4724 -0.00973553 0)
(1.47299 -0.00851513 0)
(1.48774 -0.0147166 0)
(1.49776 -0.021946 0)
(1.50301 -0.0181764 0)
(1.60239 0.98967 0)
(1.90348 0.868496 0)
(2.15768 0.678081 0)
(2.32344 0.533799 0)
(2.39582 0.40852 0)
(2.53116 0.173452 0)
(2.62831 -0.0302052 0)
(2.68684 -0.131414 0)
(2.74204 -0.208235 0)
(2.74396 -0.346839 0)
(2.73541 -0.44709 0)
(2.71756 -0.487643 0)
(2.78733 -0.485609 0)
(2.80154 -0.479194 0)
(2.77833 -0.471149 0)
(2.73265 -0.441859 0)
(2.68302 -0.504692 0)
(1.5622 0.0861792 0)
(1.13344 0.134289 0)
(1.13451 0.0699466 0)
(1.14887 0.00729099 0)
(1.13834 -0.0182576 0)
(1.12835 -0.0252257 0)
(1.12964 -0.0304665 0)
(1.13377 -0.0333726 0)
(1.1378 -0.0363355 0)
(1.14372 -0.041589 0)
(1.15349 -0.0503302 0)
(1.16839 -0.057993 0)
(1.18364 -0.0592172 0)
(1.1948 -0.0557532 0)
(1.20469 -0.0523236 0)
(1.21558 -0.0507866 0)
(1.22921 -0.0516209 0)
(1.2467 -0.0531817 0)
(1.26429 -0.0516114 0)
(1.27741 -0.0469143 0)
(1.28967 -0.0419642 0)
(1.3032 -0.0387727 0)
(1.31873 -0.0381019 0)
(1.33696 -0.0392798 0)
(1.35594 -0.0395327 0)
(1.37191 -0.0370823 0)
(1.38605 -0.0335308 0)
(1.40083 -0.0305499 0)
(1.41729 -0.0295167 0)
(1.43513 -0.0305808 0)
(1.45088 -0.0314558 0)
(1.46479 -0.0305253 0)
(1.47848 -0.0259975 0)
(1.49361 -0.0198104 0)
(1.51147 -0.0142092 0)
(1.53194 -0.0109454 0)
(1.54949 -0.0111772 0)
(1.5642 -0.0115291 0)
(1.57659 -0.00959547 0)
(1.58576 -0.00505558 0)
(1.5975 -0.00120768 0)
(1.61322 0.0010926 0)
(1.63123 0.00326763 0)
(1.65162 0.00315983 0)
(1.66903 0.00213045 0)
(1.68526 0.00264268 0)
(1.69878 0.00599851 0)
(1.70895 0.0107453 0)
(1.72006 0.0130334 0)
(1.73527 0.0126043 0)
(1.75184 0.0111958 0)
(1.76839 0.00923343 0)
(1.78473 0.00866989 0)
(1.80005 0.0107909 0)
(1.81306 0.0160047 0)
(1.82426 0.0209616 0)
(1.83595 0.0228441 0)
(1.85035 0.0212201 0)
(1.86516 0.0181369 0)
(1.87895 0.0155904 0)
(1.8911 0.0158931 0)
(1.9016 0.0206677 0)
(1.91208 0.0259135 0)
(1.92423 0.0304364 0)
(1.93861 0.0325075 0)
(1.95336 0.0325203 0)
(1.96434 0.0300835 0)
(1.96267 0.0166841 0)
(1.94887 -0.00579984 0)
(1.90246 -0.0538051 0)
(1.84039 -0.113588 0)
(1.78121 -0.184396 0)
(1.79931 -0.207252 0)
(1.73458 -0.159348 0)
(1.59627 -0.054398 0)
(1.54205 0.0103139 0)
(1.54608 0.00650921 0)
(1.55741 -0.00275 0)
(1.56742 -0.00883529 0)
(1.56192 0.928289 0)
(1.79303 0.854051 0)
(1.99839 0.745467 0)
(2.19222 0.585145 0)
(2.3093 0.436721 0)
(2.36412 0.346999 0)
(2.48361 0.198583 0)
(2.58169 0.028008 0)
(2.63502 -0.0605283 0)
(2.6643 -0.0732114 0)
(2.66098 -0.155552 0)
(2.67304 -0.286841 0)
(2.70129 -0.341832 0)
(2.72491 -0.364018 0)
(2.71402 -0.439385 0)
(2.69646 -0.510344 0)
(2.56485 -0.745695 0)
(2.28756 -0.543057 0)
(1.42813 -0.0383609 0)
(1.27341 0.0789151 0)
(1.29692 0.0463957 0)
(1.30718 0.00653484 0)
(1.3038 -0.0128258 0)
(1.30523 -0.0193596 0)
(1.31102 -0.0297287 0)
(1.3151 -0.0396514 0)
(1.31875 -0.0493273 0)
(1.32558 -0.056693 0)
(1.33649 -0.0636779 0)
(1.34955 -0.0680803 0)
(1.35826 -0.06906 0)
(1.36495 -0.0687247 0)
(1.37233 -0.0664797 0)
(1.38136 -0.0640556 0)
(1.39348 -0.0630956 0)
(1.40859 -0.0634081 0)
(1.42133 -0.0623813 0)
(1.43171 -0.060306 0)
(1.44274 -0.0573086 0)
(1.45511 -0.054408 0)
(1.46904 -0.0523243 0)
(1.48418 -0.0511925 0)
(1.49795 -0.05006 0)
(1.51005 -0.0488004 0)
(1.52249 -0.0467291 0)
(1.53627 -0.0432042 0)
(1.55016 -0.0402386 0)
(1.56294 -0.0392189 0)
(1.5748 -0.0375103 0)
(1.58674 -0.0346015 0)
(1.60099 -0.0305602 0)
(1.61755 -0.0246259 0)
(1.63447 -0.019586 0)
(1.64906 -0.0176176 0)
(1.66233 -0.0156203 0)
(1.67285 -0.0135751 0)
(1.68 -0.0114546 0)
(1.69055 -0.00892586 0)
(1.70589 -0.0067757 0)
(1.72305 -0.00348955 0)
(1.73995 -0.00165257 0)
(1.75591 -0.00105803 0)
(1.77044 0.000163141 0)
(1.78237 0.00179686 0)
(1.79122 0.00460364 0)
(1.79989 0.0081218 0)
(1.8117 0.0111417 0)
(1.82553 0.0124596 0)
(1.84 0.0134968 0)
(1.85438 0.0140157 0)
(1.86806 0.0147947 0)
(1.88034 0.0162053 0)
(1.89104 0.0200058 0)
(1.9011 0.0248305 0)
(1.91155 0.0295853 0)
(1.92275 0.0317265 0)
(1.93465 0.0311274 0)
(1.94647 0.0306453 0)
(1.95788 0.0306837 0)
(1.96857 0.034808 0)
(1.97973 0.0394505 0)
(1.99013 0.0448945 0)