/*--------------------------------*- C++ -*----------------------------------*\
  =========                 |
  \\      /  F ield         | OpenFOAM: The Open Source CFD Toolbox
   \\    /   O peration     | Website:  https://openfoam.org
    \\  /    A nd           | Version:  7
     \\/     M anipulation  |
\*---------------------------------------------------------------------------*/
FoamFile
{
    version     2.0;
    format      ascii;
    class       volScalarField;
    location    "40";
    object      p;
}
// * * * * * * * * * * * * * * * * * * * * * * * * * * * * * * * * * * * * * //

dimensions      [0 2 -2 0 0 0 0];

internalField   nonuniform List<scalar> 
31800
(
-0.262425
-0.263969
-0.264847
-0.26556
-0.266177
-0.266716
-0.267211
-0.267684
-0.268148
-0.268605
-0.269056
-0.269496
-0.269915
-0.270305
-0.270654
-0.270948
-0.271176
-0.271323
-0.271377
-0.271329
-0.271172
-0.270908
-0.270548
-0.2701
-0.26962
-0.262535
-0.264067
-0.264938
-0.265646
-0.266259
-0.266795
-0.267287
-0.267757
-0.268218
-0.268674
-0.269123
-0.269561
-0.269979
-0.270368
-0.270716
-0.27101
-0.271237
-0.271383
-0.271436
-0.271385
-0.271224
-0.270953
-0.270585
-0.270123
-0.269625
-0.262753
-0.264262
-0.26512
-0.265818
-0.266423
-0.266951
-0.267437
-0.267902
-0.268358
-0.268809
-0.269255
-0.269689
-0.270105
-0.270492
-0.270839
-0.271131
-0.271357
-0.271502
-0.271552
-0.271496
-0.271326
-0.271043
-0.270658
-0.270167
-0.26963
-0.263077
-0.264551
-0.265391
-0.266074
-0.266665
-0.267183
-0.267659
-0.268116
-0.268564
-0.269009
-0.269449
-0.269879
-0.270291
-0.270675
-0.271019
-0.271309
-0.271533
-0.271675
-0.271721
-0.271658
-0.271476
-0.271173
-0.270763
-0.270231
-0.26963
-0.263502
-0.264931
-0.265746
-0.26641
-0.266984
-0.267487
-0.26795
-0.268396
-0.268834
-0.26927
-0.269702
-0.270126
-0.270532
-0.270911
-0.271251
-0.271539
-0.27176
-0.271899
-0.27194
-0.271868
-0.271669
-0.271341
-0.270898
-0.270311
-0.269615
-0.264024
-0.265398
-0.266183
-0.266822
-0.267376
-0.26786
-0.268307
-0.268738
-0.269163
-0.269587
-0.270009
-0.270424
-0.270823
-0.271196
-0.271531
-0.271815
-0.272032
-0.272167
-0.272201
-0.272118
-0.271901
-0.271542
-0.271058
-0.270407
-0.269574
-0.264638
-0.265947
-0.266697
-0.267308
-0.267835
-0.268297
-0.268725
-0.269137
-0.269546
-0.269956
-0.270365
-0.270768
-0.271157
-0.271522
-0.271851
-0.272129
-0.272341
-0.27247
-0.272498
-0.272403
-0.272165
-0.271769
-0.271237
-0.270518
-0.269491
-0.265335
-0.266573
-0.267283
-0.26786
-0.268359
-0.268794
-0.269197
-0.269588
-0.269977
-0.270368
-0.270761
-0.27115
-0.271527
-0.271882
-0.272201
-0.272472
-0.272678
-0.272802
-0.272821
-0.272713
-0.272453
-0.272017
-0.271427
-0.270645
-0.269347
-0.266109
-0.267269
-0.267935
-0.268475
-0.26894
-0.269344
-0.26972
-0.270084
-0.270449
-0.270818
-0.271191
-0.271563
-0.271924
-0.272265
-0.272574
-0.272836
-0.273034
-0.273149
-0.273159
-0.273038
-0.272755
-0.272278
-0.271619
-0.270793
-0.269106
-0.266953
-0.26803
-0.268648
-0.269147
-0.269573
-0.269943
-0.270285
-0.270619
-0.270955
-0.271299
-0.271648
-0.271997
-0.27234
-0.272664
-0.272959
-0.273208
-0.273396
-0.273502
-0.273502
-0.273366
-0.273061
-0.272541
-0.271804
-0.270986
-0.268706
-0.267858
-0.268848
-0.269415
-0.269869
-0.270253
-0.270583
-0.270888
-0.271186
-0.271489
-0.271801
-0.272121
-0.272445
-0.272764
-0.273068
-0.273345
-0.273579
-0.273754
-0.273848
-0.273835
-0.273685
-0.273357
-0.272799
-0.271966
-0.271244
-0.268155
-0.268817
-0.269718
-0.270231
-0.270636
-0.270973
-0.271259
-0.271522
-0.271779
-0.272043
-0.272318
-0.272604
-0.272897
-0.273187
-0.273466
-0.273721
-0.273936
-0.274094
-0.274173
-0.274146
-0.273979
-0.273628
-0.273041
-0.272087
-0.271352
-0.267814
-0.269822
-0.270634
-0.27109
-0.271443
-0.27173
-0.271966
-0.27218
-0.27239
-0.272609
-0.272841
-0.273088
-0.273343
-0.273601
-0.27385
-0.274077
-0.274269
-0.274406
-0.274466
-0.274421
-0.274235
-0.273856
-0.273246
-0.272186
-0.271444
-0.267334
-0.270868
-0.27159
-0.271988
-0.272286
-0.272517
-0.272698
-0.272857
-0.273014
-0.273181
-0.273365
-0.273565
-0.273777
-0.273995
-0.274208
-0.274403
-0.274565
-0.274676
-0.274713
-0.274646
-0.274437
-0.274026
-0.273402
-0.2722
-0.271576
-0.266678
-0.271947
-0.272582
-0.27292
-0.273159
-0.27333
-0.273451
-0.273549
-0.273646
-0.273754
-0.273881
-0.274027
-0.27419
-0.274362
-0.274533
-0.27469
-0.274817
-0.274896
-0.274904
-0.274808
-0.274572
-0.27412
-0.273498
-0.272099
-0.27172
-0.265868
-0.273056
-0.273606
-0.273883
-0.27406
-0.274166
-0.27422
-0.274251
-0.27428
-0.274322
-0.274384
-0.27447
-0.274576
-0.274695
-0.274817
-0.274929
-0.275015
-0.275057
-0.275028
-0.274897
-0.27463
-0.274121
-0.273519
-0.271858
-0.27185
-0.264913
-0.27419
-0.274659
-0.274875
-0.274986
-0.275022
-0.275003
-0.274959
-0.274913
-0.27488
-0.274871
-0.274888
-0.274929
-0.274988
-0.275054
-0.275115
-0.275154
-0.275151
-0.27508
-0.274906
-0.274601
-0.274016
-0.273454
-0.271456
-0.271931
-0.263832
-0.275349
-0.275741
-0.275893
-0.275936
-0.275896
-0.275798
-0.275671
-0.275541
-0.275426
-0.275337
-0.275278
-0.275247
-0.275238
-0.275242
-0.275244
-0.275229
-0.275174
-0.275054
-0.274827
-0.274479
-0.273796
-0.273293
-0.270886
-0.271915
-0.262663
-0.276531
-0.27685
-0.276939
-0.276909
-0.276789
-0.276604
-0.276387
-0.276165
-0.275959
-0.275781
-0.275637
-0.275526
-0.275443
-0.275377
-0.275315
-0.275238
-0.275126
-0.274948
-0.27466
-0.274263
-0.273457
-0.273022
-0.270155
-0.27174
-0.26146
-0.277739
-0.27799
-0.278013
-0.277907
-0.2777
-0.277421
-0.277106
-0.276784
-0.276478
-0.276204
-0.275967
-0.275768
-0.275603
-0.275461
-0.275327
-0.275184
-0.275005
-0.274763
-0.274404
-0.273948
-0.273
-0.272623
-0.269287
-0.271333
-0.26028
-0.278976
-0.279162
-0.279119
-0.278931
-0.278631
-0.278251
-0.277829
-0.277399
-0.276985
-0.276606
-0.276268
-0.275975
-0.275721
-0.275496
-0.275285
-0.275067
-0.274817
-0.274502
-0.274059
-0.273533
-0.272427
-0.272069
-0.268314
-0.270617
-0.259162
-0.280247
-0.280372
-0.280259
-0.279986
-0.279587
-0.279098
-0.278561
-0.278014
-0.277484
-0.276991
-0.276546
-0.276151
-0.275801
-0.275488
-0.275193
-0.274895
-0.274564
-0.274167
-0.273629
-0.273012
-0.271744
-0.27133
-0.267263
-0.269535
-0.258105
-0.28156
-0.281626
-0.281441
-0.281077
-0.280571
-0.279965
-0.279306
-0.278633
-0.277979
-0.277365
-0.276805
-0.276302
-0.275852
-0.275443
-0.275059
-0.274673
-0.274253
-0.273762
-0.273114
-0.272378
-0.270949
-0.270378
-0.266141
-0.268062
-0.257056
-0.282924
-0.282931
-0.28267
-0.282209
-0.281589
-0.280859
-0.280069
-0.279263
-0.278477
-0.277736
-0.277055
-0.276437
-0.27588
-0.275371
-0.274891
-0.274409
-0.273889
-0.273288
-0.272512
-0.271623
-0.270033
-0.269193
-0.264926
-0.266213
-0.255932
-0.28435
-0.284297
-0.283955
-0.28339
-0.28265
-0.281787
-0.280857
-0.279911
-0.278987
-0.278112
-0.277303
-0.276567
-0.275898
-0.275283
-0.274698
-0.274111
-0.273476
-0.272744
-0.271819
-0.270734
-0.268977
-0.267767
-0.263575
-0.264035
-0.254643
-0.285852
-0.285736
-0.285305
-0.28463
-0.28376
-0.282756
-0.281681
-0.280587
-0.279517
-0.278503
-0.277563
-0.276702
-0.275915
-0.275187
-0.274489
-0.273783
-0.273016
-0.272128
-0.271023
-0.2697
-0.267756
-0.266098
-0.262032
-0.261581
-0.253119
-0.287443
-0.287256
-0.286733
-0.285937
-0.28493
-0.283778
-0.282548
-0.2813
-0.28008
-0.278922
-0.277845
-0.276855
-0.275945
-0.275095
-0.274272
-0.273429
-0.272506
-0.271431
-0.27011
-0.268505
-0.266339
-0.264188
-0.260246
-0.258882
-0.251304
-0.289138
-0.288872
-0.288247
-0.287323
-0.28617
-0.284862
-0.283471
-0.282063
-0.280688
-0.27938
-0.278162
-0.277037
-0.275997
-0.275015
-0.274052
-0.273051
-0.271942
-0.270643
-0.269063
-0.267135
-0.264701
-0.262039
-0.258183
-0.255916
-0.249162
-0.290956
-0.290599
-0.289862
-0.2888
-0.287491
-0.286019
-0.284461
-0.282888
-0.281352
-0.279892
-0.278528
-0.277263
-0.276082
-0.274955
-0.273831
-0.272644
-0.271314
-0.269749
-0.267865
-0.265576
-0.262826
-0.259662
-0.255818
-0.25261
-0.246732
-0.292913
-0.292449
-0.29159
-0.29038
-0.288906
-0.287262
-0.285531
-0.283787
-0.282087
-0.280469
-0.278954
-0.277541
-0.276209
-0.274918
-0.273608
-0.272201
-0.270609
-0.268734
-0.266501
-0.263821
-0.26071
-0.257085
-0.253149
-0.24897
-0.244191
-0.295025
-0.294439
-0.293445
-0.292075
-0.290427
-0.288603
-0.286693
-0.284773
-0.282905
-0.281125
-0.279453
-0.277882
-0.276383
-0.274906
-0.273378
-0.271711
-0.269812
-0.267582
-0.264959
-0.261866
-0.258364
-0.254334
-0.250187
-0.245314
-0.241506
-0.297311
-0.296584
-0.295439
-0.293898
-0.292067
-0.290055
-0.287959
-0.28586
-0.283819
-0.281873
-0.280035
-0.278292
-0.276607
-0.274914
-0.273131
-0.271161
-0.268908
-0.266281
-0.263235
-0.259715
-0.255812
-0.251423
-0.246966
-0.241853
-0.237698
-0.299788
-0.298896
-0.297588
-0.295864
-0.293839
-0.291632
-0.289345
-0.287061
-0.284842
-0.282722
-0.280708
-0.278777
-0.276878
-0.274936
-0.272855
-0.270535
-0.267882
-0.264821
-0.261329
-0.257379
-0.253082
-0.24836
-0.243615
-0.238298
-0.233779
-0.302473
-0.301392
-0.299905
-0.297984
-0.295755
-0.293345
-0.290861
-0.288388
-0.285986
-0.283683
-0.281478
-0.279336
-0.277193
-0.27496
-0.272535
-0.269816
-0.266722
-0.263199
-0.259248
-0.254873
-0.250201
-0.245175
-0.240166
-0.234689
-0.229941
-0.305381
-0.304086
-0.302403
-0.300273
-0.297829
-0.295209
-0.292522
-0.289854
-0.287261
-0.284763
-0.282348
-0.279967
-0.277542
-0.274972
-0.272153
-0.26899
-0.26542
-0.261415
-0.257004
-0.252218
-0.247193
-0.241892
-0.236653
-0.231042
-0.226118
-0.308529
-0.30699
-0.305095
-0.302742
-0.300073
-0.297236
-0.29434
-0.29147
-0.288675
-0.285967
-0.283318
-0.280663
-0.277911
-0.274955
-0.271692
-0.268043
-0.263969
-0.259473
-0.25461
-0.249433
-0.244082
-0.238532
-0.233091
-0.22736
-0.222316
-0.311929
-0.310119
-0.307994
-0.305406
-0.302502
-0.299438
-0.296327
-0.293247
-0.290238
-0.287298
-0.284383
-0.281414
-0.278286
-0.274891
-0.271136
-0.266965
-0.262369
-0.257382
-0.25208
-0.246536
-0.240885
-0.235109
-0.229489
-0.223649
-0.218505
-0.315595
-0.313483
-0.311112
-0.308275
-0.305126
-0.301829
-0.298494
-0.295192
-0.291952
-0.288754
-0.285537
-0.282204
-0.278646
-0.274759
-0.270469
-0.265749
-0.260622
-0.25515
-0.249429
-0.243541
-0.237614
-0.231634
-0.225851
-0.219907
-0.214677
-0.319537
-0.317094
-0.31446
-0.311361
-0.307958
-0.30442
-0.300851
-0.297314
-0.29382
-0.29033
-0.286765
-0.283015
-0.278971
-0.27454
-0.269678
-0.26439
-0.258731
-0.252789
-0.24667
-0.240462
-0.234279
-0.228109
-0.222175
-0.216134
-0.210821
-0.323766
-0.320961
-0.318048
-0.314677
-0.31101
-0.307221
-0.303408
-0.299616
-0.295839
-0.292017
-0.288051
-0.283826
-0.279237
-0.274217
-0.268752
-0.262885
-0.256701
-0.250306
-0.243812
-0.237304
-0.230884
-0.224537
-0.21846
-0.212324
-0.206929
-0.328288
-0.325093
-0.321886
-0.318231
-0.314291
-0.310242
-0.306169
-0.3021
-0.298004
-0.2938
-0.289374
-0.284611
-0.279421
-0.27377
-0.267682
-0.261234
-0.254538
-0.24771
-0.240862
-0.234073
-0.227429
-0.220915
-0.2147
-0.208473
-0.202994
-0.333108
-0.329496
-0.325982
-0.322033
-0.31781
-0.31349
-0.309139
-0.304761
-0.300303
-0.295659
-0.290709
-0.285344
-0.279502
-0.273186
-0.266462
-0.259439
-0.252245
-0.245005
-0.237822
-0.230768
-0.223913
-0.217239
-0.21089
-0.204575
-0.199012
-0.338231
-0.334174
-0.33034
-0.326089
-0.321575
-0.316969
-0.312315
-0.307592
-0.302718
-0.297571
-0.292027
-0.285997
-0.279457
-0.272452
-0.265086
-0.257498
-0.249826
-0.242193
-0.234694
-0.227389
-0.220331
-0.213504
-0.207025
-0.200624
-0.194976
-0.343655
-0.339129
-0.334965
-0.330404
-0.325588
-0.320678
-0.315693
-0.310578
-0.305227
-0.299505
-0.293297
-0.286544
-0.279266
-0.271555
-0.263551
-0.255412
-0.247282
-0.239275
-0.231474
-0.22393
-0.216679
-0.209703
-0.203097
-0.196614
-0.190881
-0.349378
-0.344361
-0.339858
-0.334979
-0.32985
-0.324615
-0.31926
-0.313699
-0.307801
-0.301428
-0.294485
-0.286956
-0.27891
-0.270485
-0.261852
-0.25318
-0.24461
-0.236247
-0.22816
-0.220386
-0.212949
-0.20583
-0.199101
-0.192539
-0.186722
-0.35539
-0.349863
-0.345016
-0.339812
-0.334356
-0.328769
-0.322999
-0.316928
-0.310406
-0.303303
-0.295559
-0.287208
-0.278373
-0.269234
-0.259985
-0.250799
-0.241809
-0.233106
-0.224744
-0.21675
-0.209134
-0.201877
-0.195029
-0.188393
-0.182493
-0.361681
-0.355628
-0.350431
-0.344897
-0.339097
-0.333123
-0.326884
-0.32023
-0.313002
-0.305092
-0.296484
-0.287274
-0.277638
-0.267792
-0.257944
-0.248263
-0.238871
-0.229843
-0.221219
-0.213013
-0.205226
-0.197836
-0.190874
-0.184169
-0.178189
-0.368233
-0.361642
-0.356093
-0.350221
-0.344055
-0.337655
-0.330883
-0.323565
-0.315546
-0.306751
-0.297227
-0.287131
-0.276691
-0.266151
-0.255722
-0.245567
-0.235791
-0.226453
-0.217577
-0.209168
-0.201216
-0.1937
-0.18663
-0.179862
-0.173806
-0.375022
-0.367886
-0.361984
-0.355765
-0.349208
-0.342331
-0.334956
-0.326888
-0.317991
-0.308241
-0.297756
-0.286757
-0.275518
-0.264299
-0.253312
-0.242703
-0.232559
-0.222924
-0.213808
-0.205205
-0.197098
-0.18946
-0.18229
-0.175466
-0.169337
-0.38202
-0.374336
-0.368081
-0.361504
-0.354525
-0.347115
-0.339056
-0.330147
-0.320286
-0.30952
-0.298039
-0.286131
-0.274104
-0.262227
-0.250703
-0.23966
-0.229166
-0.219248
-0.209903
-0.201116
-0.192861
-0.185111
-0.177848
-0.170975
-0.164778
-0.389192
-0.380961
-0.374355
-0.367407
-0.359966
-0.351957
-0.343128
-0.333285
-0.322383
-0.310545
-0.298047
-0.285232
-0.272434
-0.259923
-0.247886
-0.236429
-0.225601
-0.215413
-0.205852
-0.19689
-0.188498
-0.180644
-0.173297
-0.166383
-0.160125
-0.396493
-0.387722
-0.380767
-0.373432
-0.365485
-0.356804
-0.347112
-0.336246
-0.324228
-0.311279
-0.297752
-0.28404
-0.270494
-0.257375
-0.244847
-0.232997
-0.221853
-0.21141
-0.201644
-0.19252
-0.184001
-0.176052
-0.168632
-0.161685
-0.155372
-0.403876
-0.394577
-0.387275
-0.379531
-0.371026
-0.361593
-0.350945
-0.338967
-0.325773
-0.311683
-0.297126
-0.282537
-0.26827
-0.254568
-0.241575
-0.229352
-0.217909
-0.207227
-0.197269
-0.187995
-0.179361
-0.171328
-0.163846
-0.156876
-0.150516
-0.411284
-0.401472
-0.393826
-0.385648
-0.376527
-0.366255
-0.354558
-0.341387
-0.326967
-0.31172
-0.296145
-0.280703
-0.265743
-0.25149
-0.238056
-0.225482
-0.213758
-0.202852
-0.192718
-0.183308
-0.174572
-0.166467
-0.158934
-0.15195
-0.145552
-0.418651
-0.408351
-0.400361
-0.391718
-0.381915
-0.370718
-0.357879
-0.343447
-0.327764
-0.311355
-0.294781
-0.278517
-0.262899
-0.248123
-0.234276
-0.221373
-0.209388
-0.198276
-0.187982
-0.17845
-0.169626
-0.16146
-0.153891
-0.146904
-0.140478
-0.425909
-0.415146
-0.406811
-0.397669
-0.387116
-0.374902
-0.360838
-0.345085
-0.328116
-0.310556
-0.293011
-0.275962
-0.259721
-0.244455
-0.230221
-0.217012
-0.204787
-0.193487
-0.18305
-0.173412
-0.164516
-0.156304
-0.148712
-0.141733
-0.135289
-0.432981
-0.421785
-0.413104
-0.403423
-0.392046
-0.378729
-0.363362
-0.346243
-0.327982
-0.30929
-0.290812
-0.273017
-0.256191
-0.240468
-0.225876
-0.212387
-0.199943
-0.188476
-0.177914
-0.168189
-0.159235
-0.150992
-0.143392
-0.136432
-0.129983
-0.439784
-0.428191
-0.419159
-0.408895
-0.396619
-0.382114
-0.36538
-0.346867
-0.327319
-0.307529
-0.288159
-0.269663
-0.252293
-0.236147
-0.221227
-0.207484
-0.194845
-0.183232
-0.172566
-0.162771
-0.153778
-0.14552
-0.137928
-0.130999
-0.124558
-0.446229
-0.434278
-0.424889
-0.413996
-0.400746
-0.384977
-0.366823
-0.346903
-0.32609
-0.305242
-0.28503
-0.265881
-0.248009
-0.231477
-0.216261
-0.202292
-0.189484
-0.177748
-0.166998
-0.157154
-0.148139
-0.139883
-0.132315
-0.12543
-0.119012
-0.452227
-0.439958
-0.430204
-0.418632
-0.404336
-0.387235
-0.367627
-0.346302
-0.324258
-0.302404
-0.281405
-0.261653
-0.243323
-0.226444
-0.210964
-0.196798
-0.183847
-0.172014
-0.161204
-0.15133
-0.142314
-0.134077
-0.126551
-0.119722
-0.113344
-0.457681
-0.445138
-0.435008
-0.422708
-0.407299
-0.388812
-0.367729
-0.345019
-0.32179
-0.298989
-0.277262
-0.256961
-0.23822
-0.221032
-0.205325
-0.190993
-0.177928
-0.166023
-0.155176
-0.145296
-0.136298
-0.128099
-0.120633
-0.113874
-0.107554
-0.462495
-0.449722
-0.439206
-0.426127
-0.409545
-0.389631
-0.36707
-0.34301
-0.318656
-0.294973
-0.272581
-0.251788
-0.232683
-0.21523
-0.199331
-0.184867
-0.171718
-0.159768
-0.14891
-0.139046
-0.130087
-0.121946
-0.114559
-0.107885
-0.101642
-0.46657
-0.453615
-0.442699
-0.428796
-0.410988
-0.389622
-0.365599
-0.340238
-0.314826
-0.290335
-0.267345
-0.246118
-0.2267
-0.209025
-0.192973
-0.178411
-0.165209
-0.153243
-0.1424
-0.132576
-0.123679
-0.115616
-0.108326
-0.101754
-0.0956121
-0.469809
-0.456719
-0.445389
-0.430618
-0.411547
-0.388719
-0.363266
-0.336668
-0.310277
-0.285054
-0.261537
-0.239936
-0.220257
-0.202405
-0.186241
-0.171618
-0.158396
-0.146444
-0.135643
-0.125884
-0.117071
-0.109106
-0.10193
-0.0954806
-0.0894666
-0.472115
-0.458937
-0.447181
-0.431506
-0.411143
-0.386863
-0.36003
-0.33227
-0.304985
-0.279113
-0.255142
-0.233229
-0.213344
-0.195362
-0.179128
-0.164481
-0.151273
-0.139367
-0.128636
-0.118969
-0.110262
-0.102415
-0.0953709
-0.0890592
-0.0831961
-0.473396
-0.460177
-0.447983
-0.431374
-0.409707
-0.384001
-0.355851
-0.327017
-0.298931
-0.272497
-0.248146
-0.225987
-0.205951
-0.187888
-0.171627
-0.156996
-0.143838
-0.132009
-0.121377
-0.111828
-0.103251
-0.0955431
-0.0886501
-0.0824879
-0.0767616
-0.473562
-0.460348
-0.447706
-0.430142
-0.407174
-0.380086
-0.350699
-0.320889
-0.2921
-0.265192
-0.240539
-0.2182
-0.19807
-0.179977
-0.163733
-0.149159
-0.136087
-0.124368
-0.113867
-0.104462
-0.0960388
-0.0884933
-0.0817781
-0.07578
-0.0701173
-0.472529
-0.459365
-0.446269
-0.427738
-0.403488
-0.375078
-0.344546
-0.313866
-0.284478
-0.257188
-0.232311
-0.20986
-0.189694
-0.171623
-0.155444
-0.140968
-0.12802
-0.116446
-0.106105
-0.0968711
-0.0886269
-0.0812682
-0.074759
-0.0689509
-0.0633106
-0.470219
-0.45715
-0.443596
-0.424099
-0.398601
-0.368944
-0.337373
-0.305936
-0.276055
-0.248477
-0.223458
-0.200962
-0.180822
-0.162825
-0.146758
-0.132422
-0.119637
-0.108242
-0.0980918
-0.0890587
-0.0810183
-0.073871
-0.0675815
-0.0619176
-0.0565118
-0.466562
-0.45363
-0.439621
-0.419168
-0.392473
-0.36166
-0.329164
-0.29709
-0.266825
-0.239055
-0.213974
-0.191505
-0.171451
-0.153583
-0.137675
-0.123523
-0.110939
-0.0997587
-0.0898312
-0.0810279
-0.0732172
-0.0663052
-0.0602463
-0.0547575
-0.0496256
-0.461495
-0.448743
-0.434284
-0.4129
-0.385072
-0.353208
-0.319911
-0.287322
-0.256786
-0.22892
-0.20386
-0.181487
-0.161581
-0.143896
-0.128198
-0.114273
-0.10193
-0.0910012
-0.0813289
-0.0727813
-0.0652271
-0.0585732
-0.0527631
-0.0474811
-0.0426313
-0.454965
-0.442432
-0.427538
-0.405257
-0.376376
-0.343576
-0.309609
-0.276633
-0.245939
-0.218073
-0.193116
-0.170911
-0.151216
-0.13377
-0.11833
-0.104679
-0.0926171
-0.0819724
-0.0725878
-0.0643252
-0.0570532
-0.0506801
-0.0451401
-0.0400892
-0.0355282
-0.446928
-0.434654
-0.419342
-0.396213
-0.366372
-0.332762
-0.298261
-0.265027
-0.234288
-0.206521
-0.181748
-0.159783
-0.14036
-0.123209
-0.10808
-0.0947444
-0.0830036
-0.0726797
-0.0636145
-0.0556658
-0.0487015
-0.0426324
-0.0373835
-0.0325823
-0.0283228
-0.43735
-0.425372
-0.409668
-0.385751
-0.355054
-0.320768
-0.285874
-0.252513
-0.221843
-0.194269
-0.169763
-0.148109
-0.129024
-0.112223
-0.0974521
-0.0844779
-0.0730977
-0.0631307
-0.0544165
-0.0468103
-0.0401792
-0.0344373
-0.0294995
-0.0249643
-0.0210221
-0.426209
-0.414564
-0.398499
-0.373864
-0.342427
-0.307606
-0.272462
-0.239104
-0.208614
-0.181327
-0.157173
-0.135904
-0.117216
-0.100821
-0.0864573
-0.0738889
-0.062909
-0.0533343
-0.0450027
-0.0377673
-0.0314946
-0.0261026
-0.021495
-0.0172412
-0.0136335
-0.413491
-0.402214
-0.385828
-0.360555
-0.328502
-0.293291
-0.258042
-0.224817
-0.194617
-0.16771
-0.144
-0.123177
-0.104948
-0.0890149
-0.0751076
-0.0629887
-0.0524481
-0.0433007
-0.035383
-0.0285461
-0.0226568
-0.017637
-0.0133776
-0.00942056
-0.00616513
-0.399196
-0.38832
-0.371657
-0.345837
-0.3133
-0.277848
-0.242639
-0.209673
-0.179872
-0.153451
-0.130243
-0.109944
-0.0922368
-0.0768185
-0.0634164
-0.05179
-0.0417273
-0.0330417
-0.0255684
-0.0191572
-0.0136758
-0.00904988
-0.00515624
-0.00151122
0.0013748
-0.383332
-0.372891
-0.356002
-0.329732
-0.296848
-0.261308
-0.226282
-0.193701
-0.164411
-0.138554
-0.115932
-0.0962235
-0.0790984
-0.0642487
-0.0513991
-0.0403075
-0.0307603
-0.02257
-0.015571
-0.00961224
-0.00456276
-0.000351692
0.00315937
0.00647702
0.00897712
-0.36592
-0.355944
-0.338886
-0.31227
-0.279181
-0.243706
-0.209003
-0.176931
-0.148253
-0.12305
-0.10109
-0.0820379
-0.065553
-0.0513236
-0.0390729
-0.028557
-0.019562
-0.0118997
-0.00540425
7.62052e-05
0.00467043
0.0084463
0.0115586
0.0145334
0.0166318
-0.34699
-0.33751
-0.320343
-0.293492
-0.260344
-0.225084
-0.190841
-0.159397
-0.13143
-0.106966
-0.0857433
-0.0674108
-0.0516226
-0.0380639
-0.0264565
-0.0165562
-0.00814875
-0.00104613
0.00491773
0.00989463
0.0140108
0.0173319
0.0200298
0.0226461
0.0243276
-0.326584
-0.317627
-0.300418
-0.27345
-0.240395
-0.205476
-0.171836
-0.141136
-0.113977
-0.090335
-0.0699191
-0.0523683
-0.0373313
-0.0244917
-0.0135707
-0.00432417
0.00346175
0.00997441
0.0153796
0.0198286
0.0234447
0.0262922
0.0285605
0.0308021
0.0320522
-0.304749
-0.296341
-0.279163
-0.252209
-0.219392
-0.184922
-0.152033
-0.122191
-0.0959326
-0.07319
-0.053649
-0.0369391
-0.0227056
-0.0106312
-0.000437576
0.00811876
0.0152507
0.0211445
0.0259652
0.029863
0.0329576
0.0353132
0.0371371
0.0389859
0.0397909
-0.281545
-0.273714
-0.256645
-0.229825
-0.197319
-0.163545
-0.131492
-0.102608
-0.0773378
-0.0555687
-0.0369669
-0.0211541
-0.00777357
0.00349167
0.0129191
0.0207508
0.0271981
0.0324458
0.0366576
0.0399818
0.0425344
0.0443807
0.0457447
0.0471795
0.0475231
-0.257034
-0.24982
-0.232947
-0.206306
-0.17433
-0.141355
-0.110265
-0.0824363
-0.0582367
-0.0375112
-0.019909
-0.00504623
0.00743455
0.0178494
0.0264741
0.0335489
0.039283
0.043859
0.0474391
0.0501689
0.0521596
0.0534798
0.0543687
0.0553637
0.0552213
-0.231288
-0.224738
-0.208152
-0.18173
-0.150477
-0.118423
-0.08841
-0.0617292
-0.0386764
-0.0190597
-0.00251381
0.0113494
0.0228868
0.0324129
0.040201
0.0464889
0.0514832
0.055364
0.0582915
0.0604073
0.0618173
0.0625959
0.0629966
0.0635242
0.0628691
-0.204384
-0.198546
-0.182189
-0.156341
-0.125838
-0.0948193
-0.0659893
-0.0405415
-0.0187066
-0.000259268
0.015178
0.0279958
0.0385497
0.0471515
0.0540719
0.0595455
0.0637758
0.0669402
0.069196
0.0706793
0.07149
0.0717135
0.0716187
0.0716532
0.0704607
-0.176389
-0.171353
-0.155306
-0.130107
-0.100492
-0.0706178
-0.0430671
-0.0189312
0.00162071
0.0188432
0.033124
0.0448544
0.054388
0.0620334
0.0680579
0.0726924
0.076137
0.078566
0.0801331
0.0809668
0.0811607
0.0808201
0.0802257
0.0797169
0.0778972
-0.147407
-0.143261
-0.127604
-0.103119
-0.074518
-0.0458947
-0.0197107
0.00304169
0.0222513
0.0381988
0.0512796
0.0618849
0.0703652
0.0770254
0.0821288
0.0859023
0.0885423
0.0902197
0.0910833
0.0912521
0.0908167
0.0899124
0.0888044
0.0876008
0.084868
-0.117696
-0.114261
-0.0991521
-0.0754764
-0.0480027
-0.0207275
0.00401017
0.0253146
0.043129
0.0577567
0.069599
0.0790457
0.0864436
0.0920933
0.0962535
0.0991472
0.100966
0.101878
0.102026
0.101519
0.100452
0.0989975
0.097338
0.0951669
0.0911514
-0.0872574
-0.0845196
-0.0700485
-0.0472796
-0.0210348
0.00480374
0.0280238
0.0478234
0.0641959
0.0774647
0.0880349
0.0962939
0.102584
0.107202
0.1104
0.112398
0.113383
0.113518
0.112941
0.111751
0.11006
0.108071
0.105799
0.102481
0.0974434
-0.0561753
-0.0541737
-0.0403989
-0.0186287
0.006294
0.0306168
0.0522567
0.0705021
0.0853928
0.0972691
0.106539
0.113586
0.118747
0.122315
0.124536
0.125625
0.125766
0.125115
0.123804
0.121931
0.119625
0.117092
0.114128
0.109735
0.10583
-0.0245731
-0.0233371
-0.0103133
0.0103732
0.0338903
0.056628
0.076634
0.0932833
0.106659
0.117115
0.125061
0.130876
0.134892
0.137395
0.138628
0.138799
0.138086
0.136644
0.134596
0.132039
0.129119
0.126004
0.122342
0.117356
0.114166
0.00742543
0.00787525
0.0200957
0.0396213
0.0616591
0.0827523
0.101079
0.116099
0.127933
0.136947
0.143551
0.148119
0.150978
0.152406
0.152641
0.151887
0.150317
0.14808
0.145293
0.142056
0.138516
0.134802
0.130504
0.125131
0.122046
0.039697
0.0393457
0.0507135
0.0690097
0.0895047
0.108904
0.125516
0.13888
0.149152
0.156709
0.161958
0.165269
0.166962
0.167309
0.166542
0.16486
0.16243
0.159396
0.155871
0.151956
0.147794
0.143478
0.138607
0.132905
0.129648
0.0721174
0.0709544
0.0814249
0.0984319
0.117331
0.134997
0.149867
0.161556
0.170254
0.176344
0.180231
0.18228
0.182802
0.182066
0.180296
0.177686
0.174397
0.170568
0.166308
0.161717
0.156933
0.152022
0.146613
0.140567
0.136998
0.104562
0.10258
0.112114
0.127781
0.145041
0.160944
0.174055
0.184059
0.191175
0.195795
0.198319
0.199104
0.198458
0.196639
0.193869
0.190333
0.186188
0.181568
0.176579
0.171317
0.165912
0.160417
0.154491
0.148077
0.14412
0.136904
0.134102
0.142665
0.15695
0.172539
0.186659
0.198001
0.206317
0.211854
0.215006
0.216169
0.215696
0.213885
0.21099
0.207225
0.20277
0.197776
0.192372
0.186659
0.180732
0.174712
0.168643
0.162211
0.155412
0.151025
0.16902
0.165397
0.172963
0.185835
0.199729
0.212057
0.22163
0.228263
0.232227
0.233919
0.233732
0.232009
0.229043
0.225081
0.220331
0.214965
0.209132
0.202952
0.196525
0.189941
0.183314
0.176681
0.169749
0.162554
0.157714
0.200786
0.196346
0.202893
0.214329
0.226518
0.237053
0.244864
0.249827
0.252232
0.252479
0.250955
0.247997
0.24389
0.238875
0.233151
0.226888
0.220227
0.213284
0.206154
0.198923
0.191699
0.184511
0.177087
0.169493
0.164183
0.232077
0.226828
0.232343
0.242329
0.252811
0.261564
0.26763
0.270942
0.271808
0.27063
0.267789
0.263614
0.258384
0.252333
0.245653
0.238509
0.231034
0.223342
0.215522
0.207656
0.199846
0.192115
0.184209
0.176216
0.170429
0.262774
0.256727
0.261201
0.269735
0.278519
0.285507
0.289853
0.29154
0.290895
0.288318
0.284184
0.278817
0.272486
0.265419
0.257804
0.249796
0.241527
0.233102
0.224607
0.216121
0.207739
0.199477
0.191099
0.182711
0.176443
0.292757
0.285927
0.289361
0.296448
0.303551
0.308803
0.31146
0.311558
0.309434
0.30549
0.300093
0.293561
0.286156
0.278098
0.26957
0.260721
0.251677
0.242539
0.233388
0.224298
0.215357
0.206579
0.197743
0.188967
0.182219
0.321912
0.314315
0.316715
0.32237
0.327821
0.331372
0.332383
0.330931
0.327368
0.322093
0.315469
0.307804
0.299355
0.290335
0.280921
0.271256
0.26146
0.25163
0.241842
0.232167
0.222685
0.213406
0.204127
0.194973
0.187748
0.350124
0.341782
0.343162
0.34741
0.351244
0.353141
0.352552
0.349597
0.34464
0.338077
0.330264
0.321504
0.312046
0.302096
0.291825
0.281372
0.27085
0.260352
0.24995
0.23971
0.229706
0.219943
0.210238
0.200717
0.193023
0.377287
0.368223
0.368603
0.371477
0.373741
0.374035
0.371902
0.367498
0.361198
0.353394
0.344437
0.334622
0.324192
0.313348
0.302254
0.291043
0.279824
0.268684
0.257691
0.246909
0.236403
0.226176
0.216062
0.206189
0.198035
0.403294
0.393537
0.392944
0.394484
0.395233
0.393986
0.390369
0.384576
0.376988
0.367996
0.357944
0.347119
0.33576
0.32406
0.312178
0.300242
0.288357
0.276604
0.265047
0.253746
0.242761
0.232091
0.221588
0.211376
0.202777
0.428047
0.417627
0.416093
0.41635
0.415645
0.412925
0.407894
0.400777
0.391963
0.381839
0.370744
0.358959
0.346716
0.334202
0.321571
0.308946
0.296427
0.284091
0.272
0.260206
0.248765
0.237675
0.226804
0.21627
0.20724
0.45145
0.4404
0.437966
0.436996
0.434909
0.43079
0.424418
0.416049
0.406075
0.394881
0.3828
0.370107
0.357028
0.343745
0.330407
0.317131
0.304014
0.291128
0.278531
0.266272
0.254401
0.242915
0.231698
0.220859
0.211417
0.473413
0.461771
0.45848
0.456349
0.452956
0.447521
0.439889
0.430342
0.419279
0.407081
0.394074
0.38053
0.366666
0.352663
0.338661
0.324776
0.311097
0.297696
0.284626
0.271931
0.259657
0.2478
0.23626
0.225134
0.215301
0.493853
0.481657
0.477561
0.47434
0.469725
0.463061
0.454255
0.443612
0.431534
0.418401
0.404534
0.390196
0.375604
0.360929
0.346311
0.331858
0.317659
0.303779
0.290268
0.277169
0.26452
0.252319
0.240479
0.229087
0.218885
0.512692
0.499983
0.495138
0.490905
0.485159
0.477359
0.467469
0.455815
0.442802
0.428807
0.414146
0.399078
0.383814
0.368521
0.353335
0.33836
0.323681
0.309359
0.295444
0.281972
0.268978
0.25646
0.244346
0.232708
0.222163
0.529857
0.51668
0.511146
0.505984
0.499205
0.490367
0.479488
0.466912
0.453048
0.438267
0.422883
0.407149
0.391273
0.375417
0.359713
0.344263
0.329147
0.314424
0.30014
0.286329
0.273021
0.260216
0.247852
0.23599
0.22513
0.545283
0.531684
0.525526
0.519526
0.511813
0.502042
0.490273
0.476868
0.462238
0.446751
0.430717
0.414385
0.397959
0.381598
0.365429
0.349552
0.334043
0.31896
0.304345
0.290229
0.27664
0.263576
0.25099
0.238926
0.22778
0.558911
0.544939
0.538227
0.531481
0.522942
0.512344
0.499789
0.485651
0.470343
0.454233
0.437624
0.420765
0.403853
0.387045
0.370466
0.354212
0.338357
0.322955
0.308048
0.293664
0.279826
0.266534
0.253751
0.241509
0.230109
0.570691
0.556394
0.5492
0.541808
0.532552
0.521239
0.508003
0.493232
0.477339
0.46069
0.443585
0.426269
0.408937
0.391744
0.37481
0.35823
0.342076
0.326399
0.31124
0.296623
0.28257
0.269082
0.25613
0.243734
0.232113
0.580576
0.566007
0.558406
0.55047
0.540612
0.528698
0.514891
0.499587
0.483203
0.466101
0.44858
0.430881
0.413197
0.39568
0.378449
0.361596
0.34519
0.329283
0.313912
0.299101
0.284868
0.271215
0.258121
0.245596
0.233788
0.588529
0.573741
0.565812
0.557437
0.547093
0.534695
0.520428
0.504696
0.487917
0.470451
0.452595
0.434587
0.41662
0.398842
0.381372
0.364299
0.347692
0.3316
0.316058
0.30109
0.286713
0.272927
0.259719
0.24709
0.235132
0.594521
0.579568
0.571391
0.562683
0.551973
0.53921
0.524596
0.508542
0.491465
0.473725
0.455616
0.437377
0.419196
0.401222
0.383572
0.366333
0.349574
0.333342
0.317672
0.302587
0.2881
0.274215
0.260921
0.248214
0.236141
0.598528
0.583464
0.575121
0.566191
0.555236
0.542229
0.527383
0.511113
0.493837
0.475913
0.457636
0.439241
0.420918
0.402813
0.385042
0.367693
0.350832
0.334506
0.318751
0.303587
0.289027
0.275075
0.261724
0.248964
0.236816
0.600535
0.585416
0.576989
0.567949
0.55687
0.543741
0.528779
0.512401
0.495025
0.477009
0.458647
0.440175
0.42178
0.403609
0.385778
0.368373
0.351461
0.335089
0.319291
0.304087
0.289491
0.275506
0.262126
0.24934
0.237153
0.600535
0.585416
0.576989
0.567949
0.55687
0.543741
0.528779
0.512401
0.495025
0.477009
0.458647
0.440175
0.42178
0.403609
0.385778
0.368373