/*--------------------------------*- C++ -*----------------------------------*\
  =========                 |
  \\      /  F ield         | OpenFOAM: The Open Source CFD Toolbox
   \\    /   O peration     | Website:  https://openfoam.org
    \\  /    A nd           | Version:  7
     \\/     M anipulation  |
\*---------------------------------------------------------------------------*/
FoamFile
{
    version     2.0;
    format      ascii;
    class       volVectorField;
    location    "40";
    object      U;
}
// * * * * * * * * * * * * * * * * * * * * * * * * * * * * * * * * * * * * * //

dimensions      [0 1 -1 0 0 0 0];

internalField   nonuniform List<vector> 
31800
(
(-0.000523127 0.00051886 -9.55657e-21)
(-0.00324248 0.00130288 6.59819e-21)
(-0.00868069 0.00188733 -2.14881e-21)
(-0.0157138 0.00231251 9.54101e-21)
(-0.0239058 0.00260648 1.06542e-20)
(-0.0328969 0.002794 -3.48973e-21)
(-0.042371 0.00289684 -2.52137e-21)
(-0.0520819 0.00293362 1.78249e-20)
(-0.061839 0.00292 -2.02941e-21)
(-0.0714974 0.00286882 2.91381e-21)
(-0.0809497 0.00279018 9.98882e-21)
(-0.0901169 0.00269165 9.7758e-21)
(-0.0989413 0.0025785 -6.16883e-21)
(-0.107379 0.00245407 -7.66137e-21)
(-0.115395 0.00232019 -2.61357e-22)
(-0.122957 0.00217767 -9.76355e-21)
(-0.130035 0.00202695 7.57787e-21)
(-0.1366 0.00186886 1.27612e-20)
(-0.142627 0.00170562 -4.76638e-21)
(-0.148104 0.00154194 2.15755e-20)
(-0.153034 0.00138618 1.36473e-21)
(-0.157465 0.00125132 -1.73712e-21)
(-0.161493 0.00115369 3.78879e-21)
(-0.165247 0.00110762 7.70066e-21)
(-0.168965 0.00113854 4.78118e-21)
(-0.000572912 0.001548 9.83927e-21)
(-0.0033539 0.00388832 5.38377e-21)
(-0.00881492 0.00563402 -5.79647e-21)
(-0.0158446 0.00690482 -2.20187e-20)
(-0.0240123 0.00778414 1.62529e-20)
(-0.0329623 0.00834565 -7.95104e-21)
(-0.0423815 0.00865419 4.38124e-22)
(-0.0520261 0.00876524 -1.36704e-20)
(-0.0617069 0.00872557 2.84919e-21)
(-0.07128 0.0085735 1.93484e-21)
(-0.0806384 0.00833927 -4.19416e-20)
(-0.0897036 0.00804555 -7.07771e-22)
(-0.0984178 0.00770821 4.68823e-20)
(-0.106737 0.00733731 -2.35557e-20)
(-0.114625 0.00693837 -4.45874e-21)
(-0.122051 0.00651383 9.69052e-21)
(-0.128982 0.00606497 -2.03386e-20)
(-0.13539 0.00559418 -1.01659e-21)
(-0.141247 0.00510783 2.00406e-20)
(-0.146537 0.00461969 -7.34056e-20)
(-0.151259 0.0041545 -2.27295e-20)
(-0.155454 0.00375107 3.43345e-20)
(-0.159216 0.00345906 1.69102e-20)
(-0.16266 0.0033232 3.00291e-21)
(-0.166012 0.00342131 -6.79897e-21)
(-0.000671577 0.00256143 -2.03937e-20)
(-0.0035749 0.0064373 -5.58145e-22)
(-0.0090814 0.00933146 -2.7707e-20)
(-0.0161044 0.0114403 4.13272e-20)
(-0.024224 0.0129011 -4.67879e-20)
(-0.0330922 0.0138351 -4.37134e-21)
(-0.0424023 0.0143495 -4.24454e-21)
(-0.0519146 0.0145359 7.75784e-21)
(-0.0614431 0.0144719 2.56728e-20)
(-0.0708457 0.014221 -4.35865e-21)
(-0.0800165 0.0138334 -7.68879e-21)
(-0.0888775 0.0133469 2.76892e-20)
(-0.0973709 0.012788 -4.87321e-21)
(-0.105452 0.0121735 2.68883e-20)
(-0.113085 0.0115126 -5.43923e-20)
(-0.120237 0.0108093 -2.22203e-20)
(-0.126875 0.0100655 3.57854e-21)
(-0.132967 0.00928446 -7.27562e-20)
(-0.138482 0.00847591 1.98569e-20)
(-0.143397 0.00766143 4.47132e-20)
(-0.147703 0.00688085 -2.82182e-20)
(-0.151427 0.00619823 -6.78384e-20)
(-0.154656 0.00569829 -3.38166e-20)
(-0.157482 0.0054612 -6.30542e-20)
(-0.1601 0.00562156 -3.44659e-20)
(-0.000817421 0.00354906 9.49648e-21)
(-0.00390206 0.00892628 -1.58203e-20)
(-0.00947639 0.0129477 5.03295e-20)
(-0.01649 0.0158821 -4.02625e-20)
(-0.0245382 0.0179177 -1.04832e-20)
(-0.033285 0.0192216 -2.78505e-21)
(-0.0424324 0.0199419 3.2945e-20)
(-0.0517474 0.0202054 2.33545e-20)
(-0.0610481 0.0201196 -4.12453e-20)
(-0.0701954 0.0197731 1.7289e-20)
(-0.079085 0.0192358 1.05606e-21)
(-0.0876395 0.0185605 -7.78784e-20)
(-0.095801 0.0177842 -2.5556e-20)
(-0.103525 0.0169307 2.07115e-21)
(-0.110773 0.016013 1.70274e-20)
(-0.117512 0.0150364 7.75628e-20)
(-0.123707 0.014003 8.59886e-21)
(-0.129322 0.0129162 7.34221e-20)
(-0.134321 0.0117875 7.32909e-20)
(-0.138672 0.0106444 -9.03653e-21)
(-0.142353 0.00953952 3.29136e-20)
(-0.145372 0.00856075 -1.25861e-20)
(-0.147804 0.00783022 4.17372e-20)
(-0.149707 0.00747194 1.39065e-19)
(-0.151211 0.00768401 2.17001e-20)
(-0.00100796 0.00450135 1.61564e-20)
(-0.00433034 0.0113329 -5.87619e-20)
(-0.00999446 0.0164523 7.58166e-20)
(-0.0169963 0.0201944 2.79409e-20)
(-0.0249514 0.0227952 2.18981e-20)
(-0.0335382 0.0244652 2.32879e-20)
(-0.0424709 0.025391 -1.23865e-19)
(-0.0515244 0.0257335 4.60535e-20)
(-0.0605227 0.0256295 4.79044e-20)
(-0.0693304 0.0251916 -7.07759e-20)
(-0.0778453 0.0245094 7.32791e-20)
(-0.0859906 0.0236504 4.00682e-20)
(-0.0937083 0.0226625 4.95533e-20)
(-0.100953 0.0215764 -3.35605e-20)
(-0.107685 0.0204088 -7.44603e-21)
(-0.11387 0.0191665 1.62981e-19)
(-0.119469 0.0178512 -7.03594e-20)
(-0.124442 0.0164655 5.45014e-20)
(-0.128748 0.0150208 -1.31846e-19)
(-0.132343 0.0135476 -5.31612e-20)
(-0.135187 0.0121081 5.03898e-20)
(-0.137266 0.0108113 8.80021e-20)
(-0.138638 0.00981861 1.49102e-20)
(-0.139318 0.00930952 -1.14421e-19)
(-0.139313 0.00955341 -8.02342e-20)
(-0.00124002 0.00540953 -6.35559e-20)
(-0.00485328 0.0136362 -2.05133e-20)
(-0.0106285 0.0198162 -4.49711e-20)
(-0.0176173 0.0243433 -4.35193e-20)
(-0.0254585 0.0274968 3.12183e-20)
(-0.0338487 0.0295271 -5.57671e-20)
(-0.042516 0.0306574 -3.61714e-20)
(-0.0512453 0.031081 -1.79767e-19)
(-0.0598677 0.0309626 7.88463e-21)
(-0.0682521 0.0304383 -1.82852e-21)
(-0.0762987 0.0296168 -1.37797e-19)
(-0.0839318 0.0285805 -4.69908e-20)
(-0.0910929 0.027388 -5.83698e-20)
(-0.0977352 0.026077 1.12908e-19)
(-0.103818 0.0246682 3.25595e-20)
(-0.109302 0.0231698 -8.88774e-20)
(-0.114148 0.0215829 -9.91389e-20)
(-0.11831 0.019908 2.74905e-20)
(-0.121738 0.0181543 1.08794e-19)
(-0.124378 0.0163521 -2.35356e-20)
(-0.126171 0.0145686 -1.42173e-20)
(-0.127073 0.0129291 -6.70108e-20)
(-0.12712 0.0116347 -8.44592e-20)
(-0.126287 0.0109346 6.90249e-20)
(-0.124352 0.0111751 4.67414e-20)
(-0.00150982 0.00626575 3.29989e-20)
(-0.00546318 0.0158175 3.87939e-20)
(-0.0113702 0.0230132 -3.05899e-20)
(-0.0183451 0.0282971 -6.32512e-20)
(-0.0260537 0.0319872 9.84445e-21)
(-0.0342124 0.0343701 7.41889e-20)
(-0.0425656 0.0357029 1.06624e-19)
(-0.0509096 0.0362092 1.45584e-19)
(-0.0590837 0.0360802 2.53903e-20)
(-0.0669617 0.0354748 3.35321e-20)
(-0.0744468 0.0345204 4.06861e-20)
(-0.0814638 0.0333139 1.55729e-19)
(-0.0879539 0.0319246 -8.97878e-21)
(-0.0938683 0.0303976 -1.99715e-19)
(-0.0991636 0.0287579 1.43926e-19)
(-0.103798 0.0270149 5.72115e-20)
(-0.107726 0.025169 1.81221e-19)
(-0.110898 0.0232177 -7.41303e-20)
(-0.113256 0.0211663 -8.53791e-20)
(-0.114733 0.0190407 2.43503e-19)
(-0.115251 0.0169076 -8.17971e-20)
(-0.114732 0.0149019 -1.24837e-19)
(-0.113185 0.0132604 -3.33505e-20)
(-0.110561 0.0123184 -1.04836e-19)
(-0.106235 0.012496 1.74611e-20)
(-0.00181309 0.00706328 8.20822e-21)
(-0.0061513 0.01786 -1.61207e-20)
(-0.0122097 0.0260193 3.28844e-21)
(-0.0191711 0.0320268 -1.15194e-19)
(-0.0267297 0.0362337 -8.93789e-20)
(-0.0346243 0.0389591 -1.68719e-20)
(-0.0426167 0.0404907 -4.35816e-20)
(-0.0505161 0.0410803 -7.92826e-20)
(-0.0581706 0.0409443 -1.78604e-20)
(-0.0654599 0.0402632 -8.85034e-21)
(-0.0722898 0.0391824 -8.39713e-20)
(-0.0785863 0.0378132 3.63055e-20)
(-0.0842891 0.0362357 2.73213e-20)
(-0.0893469 0.0345024 1.46667e-19)
(-0.0937128 0.0326429 -2.98984e-21)
(-0.0973403 0.0306685 -8.87135e-20)
(-0.100179 0.0285785 -9.64562e-21)
(-0.102174 0.0263673 3.83419e-20)
(-0.103256 0.0240339 1.5718e-19)
(-0.103348 0.021597 -1.16706e-19)
(-0.102352 0.0191163 3.07278e-19)
(-0.100156 0.0167268 1.2811e-19)
(-0.0967303 0.0146921 -9.67012e-20)
(-0.092056 0.0134492 1.86873e-19)
(-0.0848225 0.0134659 1.08393e-19)
(-0.00214525 0.00779658 1.00501e-20)
(-0.00690811 0.0197496 5.0929e-20)
(-0.0131366 0.0288137 1.44411e-19)
(-0.0200853 0.0355064 1.79892e-19)
(-0.0274787 0.0402064 1.0693e-19)
(-0.0350785 0.043261 -7.50331e-20)
(-0.0426654 0.0449856 1.82664e-19)
(-0.0500626 0.0456578 2.06986e-20)
(-0.0571275 0.0455175 -1.0902e-19)
(-0.063746 0.0447657 1.19739e-20)
(-0.0698272 0.0435649 2.02086e-19)
(-0.0752971 0.0420405 -2.15879e-19)
(-0.0800938 0.0402835 -1.23207e-19)
(-0.0841627 0.0383542 -2.50201e-20)
(-0.0874518 0.0362869 -2.01924e-19)
(-0.0899088 0.0340953 -1.31564e-19)
(-0.0914768 0.0317783 2.33198e-20)
(-0.0920916 0.0293266 -2.73877e-19)
(-0.091677 0.0267327 2.73928e-20)
(-0.0901419 0.0240045 -1.3098e-19)
(-0.0873727 0.0211889 -1.62155e-19)
(-0.0832213 0.0184106 1.50957e-19)
(-0.0776038 0.0159435 1.69627e-19)
(-0.0706461 0.0143391 -1.3195e-19)
(-0.0599145 0.0140628 1.81454e-19)
(-0.0025015 0.00846143 -1.20856e-19)
(-0.00772361 0.0214751 8.86002e-20)
(-0.0141395 0.0313789 -6.475e-21)
(-0.0210772 0.0387129 3.54065e-20)
(-0.0282916 0.043878 3.35002e-20)
(-0.035568 0.0472453 1.50299e-19)
(-0.0427068 0.0491546 -1.09046e-19)
(-0.0495455 0.0499068 -2.032e-19)
(-0.0559518 0.0497635 1.01769e-19)
(-0.0618179 0.0489449 9.49615e-20)
(-0.0670557 0.04763 -3.20508e-19)
(-0.0715912 0.0459578 2.25321e-19)
(-0.0753601 0.04403 3.41994e-19)
(-0.0783027 0.0419148 2.3298e-20)
(-0.080361 0.039652 -6.02804e-20)
(-0.0814744 0.0372583 1.72977e-19)
(-0.0815773 0.0347326 -7.97557e-20)
(-0.0805955 0.0320629 3.57154e-19)
(-0.0784421 0.0292349 -3.14804e-19)
(-0.0750127 0.0262442 5.72148e-20)
(-0.0701789 0.02312 -2.96893e-20)
(-0.0637627 0.0199669 -9.65314e-20)
(-0.0555879 0.0170402 -9.36007e-20)
(-0.0461306 0.014999 7.70621e-20)
(-0.0312801 0.014394 1.98207e-20)
(-0.00287702 0.00905499 7.89217e-20)
(-0.00858754 0.0230278 -5.67957e-20)
(-0.0152066 0.0337008 4.68961e-20)
(-0.0221354 0.0416273 -1.57993e-19)
(-0.0291583 0.0472249 -3.49221e-20)
(-0.0360844 0.0508845 1.77462e-20)
(-0.042734 0.0529669 -4.01573e-20)
(-0.0489594 0.0537941 -6.64488e-20)
(-0.0546386 0.0536472 2.08962e-20)
(-0.0596702 0.0527646 -1.10993e-19)
(-0.0639687 0.0513406 2.0691e-19)
(-0.0674595 0.0495272 -4.75435e-20)
(-0.0700744 0.0474368 -1.21453e-19)
(-0.0717477 0.0451457 -1.24291e-19)
(-0.0724125 0.0426997 1.64537e-19)
(-0.0719983 0.0401191 8.91472e-20)
(-0.0704276 0.037404 3.5481e-20)
(-0.0676132 0.0345409 -2.978e-19)
(-0.0634544 0.0315097 3.10304e-19)
(-0.0578324 0.0282941 -1.01364e-19)
(-0.050603 0.0249023 -4.71643e-20)
(-0.0415735 0.021412 -3.65178e-20)
(-0.0304112 0.0180168 -4.04612e-20)
(-0.018138 0.015373 1.30415e-19)
(0.00132056 0.0147346 -2.13287e-19)
(-0.0032671 0.00957576 -2.93258e-20)
(-0.00948972 0.0244023 1.26686e-19)
(-0.016326 0.035769 -1.81119e-19)
(-0.0232478 0.0442341 7.26276e-20)
(-0.0300678 0.0502268 4.00587e-20)
(-0.0366181 0.0541541 -6.06982e-20)
(-0.0427386 0.0563945 1.7685e-19)
(-0.0482964 0.0572887 4.29613e-20)
(-0.0531799 0.0571356 2.01247e-20)
(-0.0572938 0.0561897 1.73585e-19)
(-0.0605547 0.0546603 -7.11302e-20)
(-0.0628866 0.0527116 7.52153e-20)
(-0.0642159 0.0504662 -7.99629e-20)
(-0.0644689 0.0480088 -5.07123e-21)
(-0.0635676 0.0453916 -8.71535e-20)
(-0.0614282 0.0426393 -3.01493e-19)
(-0.0579577 0.0397546 6.20915e-20)
(-0.0530522 0.0367241 2.40645e-19)
(-0.0465933 0.0335239 -8.30156e-20)
(-0.038444 0.0301282 4.01538e-19)
(-0.0284398 0.0265244 -2.227e-19)
(-0.0164036 0.0227596 -6.36386e-20)
(-0.00180796 0.0189472 -1.06909e-19)
(0.0138175 0.0156526 3.31539e-21)
(0.0384641 0.0149273 -9.56178e-20)
(-0.00366726 0.0100237 -8.77784e-20)
(-0.0104202 0.0255958 -1.30596e-19)
(-0.0174857 0.0375767 -7.01343e-20)
(-0.024402 0.0465216 6.5937e-20)
(-0.0310078 0.0528672 2.05914e-20)
(-0.0371572 0.0570328 1.18943e-20)
(-0.042709 0.0594123 4.54645e-20)
(-0.0475448 0.0603621 -2.2148e-19)
(-0.0515629 0.0601973 7.32222e-20)
(-0.0546738 0.0591874 -1.51647e-19)
(-0.0567954 0.0575547 -5.49646e-20)
(-0.0578486 0.0554754 -7.41992e-20)
(-0.0577533 0.0530819 -1.57108e-19)
(-0.0564249 0.0504675 3.22906e-19)
(-0.0537718 0.0476908 1.83148e-19)
(-0.0496929 0.0447821 4.92572e-20)
(-0.0440757 0.0417481 1.53699e-19)
(-0.0367944 0.038577 -2.22435e-19)
(-0.0277076 0.0352447 -5.48041e-20)
(-0.0166561 0.0317195 -2.60978e-19)
(-0.00344451 0.0279717 1.00581e-19)
(0.012063 0.0240257 2.21152e-19)
(0.0306537 0.0198975 1.01105e-19)
(0.049983 0.0161013 -1.90882e-19)
(0.0809516 0.014855 2.38498e-19)
(-0.00407344 0.0103998 -3.1267e-20)
(-0.0113696 0.0266086 8.16021e-21)
(-0.0186738 0.0391205 8.88287e-20)
(-0.0255849 0.0484819 1.58569e-19)
(-0.0319649 0.0551333 -1.06132e-19)
(-0.0376879 0.0595034 1.0233e-19)
(-0.0426307 0.0619985 -8.02807e-20)
(-0.0466886 0.0629892 3.03302e-19)
(-0.0497694 0.0628044 -2.12594e-19)
(-0.0517882 0.061727 4.57336e-20)
(-0.0526631 0.0599917 1.97327e-19)
(-0.0523106 0.0577856 -2.7221e-20)
(-0.0506414 0.0552506 2.11847e-20)
(-0.0475576 0.0524881 -2.62501e-19)
(-0.0429502 0.0495641 -2.22458e-19)
(-0.0366967 0.0465149 -8.49012e-21)
(-0.0286602 0.0433525 -2.45021e-19)
(-0.0186873 0.0400695 8.96448e-20)
(-0.00660706 0.036644 -1.2485e-19)
(0.00776559 0.0330438 1.63365e-19)
(0.0246754 0.0292298 -2.20583e-19)
(0.0441631 0.0252135 1.32489e-19)
(0.067478 0.0208974 -1.1071e-19)
(0.0907914 0.0167823 1.49944e-19)
(0.129406 0.014898 -8.71213e-21)
(-0.00448204 0.0107066 1.7135e-19)
(-0.0123292 0.0274434 4.34552e-20)
(-0.0198787 0.0404006 -9.83722e-20)
(-0.026783 0.050111 -1.18054e-19)
(-0.0329239 0.0570162 7.96648e-20)
(-0.0381933 0.061552 -2.92045e-19)
(-0.0424848 0.0641351 4.16273e-19)
(-0.0457061 0.0651479 8.09636e-20)
(-0.0477734 0.0649318 1.3419e-19)
(-0.0486053 0.0637815 1.63951e-19)
(-0.0481185 0.0619429 1.0332e-19)
(-0.0462227 0.0596129 -7.74132e-20)
(-0.0428169 0.0569427 -2.61042e-21)
(-0.0377865 0.0540419 -3.78541e-20)
(-0.0310009 0.050984 -1.13004e-19)
(-0.0223116 0.0478122 2.53214e-19)
(-0.0115518 0.044545 5.16242e-19)
(0.00146547 0.0411814 3.07706e-20)
(0.0169472 0.0377052 1.78127e-19)
(0.0351067 0.0340888 -9.26484e-20)
(0.0562657 0.0302933 1.12257e-19)
(0.0802777 0.0263233 -6.58959e-19)
(0.109173 0.0220117 3.12939e-19)
(0.136729 0.0177315 1.93205e-19)
(0.184479 0.0153951 -1.2866e-19)
(-0.00489005 0.0109475 -1.02745e-19)
(-0.0132911 0.0281054 -1.76618e-19)
(-0.0210891 0.0414202 1.69425e-19)
(-0.0279818 0.0514083 1.10977e-19)
(-0.0338674 0.0585108 5.96594e-20)
(-0.0386531 0.063169 2.11199e-19)
(-0.0422471 0.0658079 -2.1916e-19)
(-0.0445684 0.0668205 -2.02083e-19)
(-0.0455398 0.0665589 -1.32648e-19)
(-0.0450818 0.0653282 -3.1142e-19)
(-0.0431072 0.0633843 6.02116e-20)
(-0.0395165 0.0609334 -2.4559e-20)
(-0.0341936 0.0581353 4.43795e-19)
(-0.0270032 0.0551077 1.82742e-19)
(-0.0177883 0.051932 1.31348e-19)
(-0.00636947 0.0486592 -4.12716e-20)
(0.00745601 0.0453159 -2.36621e-19)
(0.0239139 0.0419092 -1.91624e-19)
(0.043254 0.0384321 -2.24205e-19)
(0.0657143 0.034865 1.60555e-19)
(0.0917327 0.0311814 3.02688e-19)
(0.120831 0.0273704 3.38527e-19)
(0.156262 0.0233153 -3.19112e-19)
(0.188249 0.0190079 1.37461e-19)
(0.246758 0.0166372 1.84488e-19)
(-0.0052951 0.0111267 -2.70502e-19)
(-0.0142483 0.0286016 1.50564e-19)
(-0.0222937 0.0421853 -2.56766e-19)
(-0.0291662 0.0523768 3.15516e-19)
(-0.0347759 0.059616 -3.01517e-19)
(-0.0390426 0.0643487 -9.02505e-20)
(-0.0418872 0.0670074 -1.68147e-19)
(-0.0432377 0.0679941 9.4548e-20)
(-0.0430218 0.0676701 -1.61873e-19)
(-0.0411592 0.06635 1.77033e-19)
(-0.0375564 0.0642984 -2.3219e-19)
(-0.0321008 0.0617301 -1.72223e-19)
(-0.0246573 0.0588134 5.99694e-21)
(-0.0150651 0.055674 -2.64363e-19)
(-0.00313587 0.0524018 5.60017e-21)
(0.0113465 0.0490566 -2.67559e-19)
(0.0286258 0.0456745 -1.64103e-20)
(0.0489708 0.0422729 -2.91838e-19)
(0.0726793 0.0388568 1.02012e-19)
(0.100001 0.035416 4.44072e-19)
(0.131541 0.031957 -4.27193e-19)
(0.166283 0.028402 2.09819e-19)
(0.209253 0.0249173 2.30511e-19)
(0.24574 0.0206712 -1.10579e-19)
(0.316611 0.0188922 4.44386e-20)
(-0.00569543 0.0112492 1.40183e-19)
(-0.0151943 0.0289408 -3.95513e-20)
(-0.0234814 0.0427044 8.70625e-20)
(-0.0303195 0.0530223 -2.53811e-19)
(-0.0356264 0.060334 4.06672e-19)
(-0.0393319 0.0650897 2.65192e-20)
(-0.0413668 0.0677286 2.93932e-19)
(-0.0416659 0.0686606 -1.53335e-19)
(-0.0401588 0.0682555 1.03907e-19)
(-0.0367618 0.0668361 1.36692e-19)
(-0.031371 0.0646749 1.25308e-19)
(-0.0238569 0.0619951 3.9645e-19)
(-0.0140602 0.0589727 -1.00327e-19)
(-0.00178931 0.0557424 -1.01032e-19)
(0.0131809 0.052403 -7.91251e-20)
(0.0311085 0.0490246 -7.02214e-21)
(0.0522824 0.0456544 -1.66565e-19)
(0.0770162 0.0423221 1.47108e-19)
(0.105657 0.0390484 -1.97408e-19)
(0.138443 0.0358288 8.1046e-20)
(0.176196 0.0327401 -1.1514e-19)
(0.217113 0.0295152 1.48446e-20)
(0.268571 0.0269821 -5.39847e-19)
(0.309505 0.0228051 5.75809e-20)
(0.394013 0.0223879 -1.78429e-21)
(-0.00608993 0.0113204 1.86862e-19)
(-0.0161238 0.029133 -1.26099e-19)
(-0.0246409 0.0429878 -8.88773e-20)
(-0.0314232 0.0533535 -5.37226e-20)
(-0.0363924 0.0606708 -1.75842e-19)
(-0.0394849 0.0653947 -2.96713e-19)
(-0.0406386 0.0679714 -9.68492e-20)
(-0.0397923 0.0688182 3.31285e-19)
(-0.0368742 0.0683122 -1.03459e-19)
(-0.031793 0.0667839 -2.23633e-19)
(-0.0244302 0.0645134 -1.3508e-19)
(-0.0146342 0.0617314 -4.05415e-19)
(-0.00221584 0.0586227 -4.41667e-19)
(0.0130529 0.0553309 3.3176e-19)
(0.0314394 0.0519654 6.82419e-20)
(0.053248 0.0486079 5.45386e-20)
(0.0788146 0.0453187 5.70301e-19)
(0.108494 0.0421421 8.67998e-20)
(0.142679 0.0391185 5.47213e-19)
(0.181555 0.0362386 -6.55538e-19)
(0.226202 0.0337093 3.06559e-19)
(0.273768 0.0308728 -2.77228e-19)
(0.334441 0.0297236 4.3475e-19)
(0.379685 0.0255605 -6.52738e-19)
(0.478367 0.0272903 1.35788e-19)
(-0.00647799 0.0113458 -4.73906e-20)
(-0.0170316 0.0291886 -1.00707e-19)
(-0.0257602 0.0430474 -9.27993e-20)
(-0.0324565 0.0533813 3.16062e-20)
(-0.0370425 0.0606354 -4.97925e-20)
(-0.039458 0.0652709 1.87843e-19)
(-0.0396448 0.0677413 -6.72695e-20)
(-0.037542 0.0684712 -1.42004e-19)
(-0.0330724 0.067845 -5.81565e-20)
(-0.0261325 0.0662002 2.92632e-21)
(-0.0165837 0.0638242 3.7288e-19)
(-0.0042462 0.0609559 -3.27173e-19)
(0.0111047 0.0577888 4.75845e-19)
(0.0297395 0.0544772 -1.37715e-19)
(0.0519723 0.0511423 -2.39756e-19)
(0.0781554 0.0478796 1.98581e-19)
(0.108669 0.0447649 -2.1782e-19)
(0.143898 0.0418581 -3.68087e-19)
(0.184262 0.0392245 -1.37137e-19)
(0.229847 0.0368299 1.28946e-19)
(0.28198 0.0350935 2.05921e-19)
(0.336585 0.0327111 3.99485e-19)
(0.406746 0.0333696 2.31758e-20)
(0.456151 0.0291763 2.7635e-19)
(0.56835 0.0336873 -8.96464e-20)
(-0.00685946 0.011331 -2.32136e-20)
(-0.0179127 0.0291186 2.203e-19)
(-0.026826 0.0428957 2.2752e-19)
(-0.0333956 0.0531185 -1.02038e-19)
(-0.0375399 0.0602397 7.16593e-20)
(-0.0391992 0.0647293 -2.66518e-19)
(-0.0383155 0.0670491 5.30433e-20)
(-0.0348238 0.0676312 4.28264e-20)
(-0.0286371 0.0668675 -1.2489e-19)
(-0.0196337 0.0651024 -3.43983e-20)
(-0.00764881 0.062631 -4.6741e-19)
(0.00753202 0.0597009 1.48735e-19)
(0.0261753 0.0565159 -2.24451e-20)
(0.0485987 0.0532421 -5.2905e-21)
(0.075165 0.0500149 -2.15996e-20)
(0.106272 0.0469454 -4.26655e-21)
(0.142332 0.0441271 -1.90735e-20)
(0.183739 0.0416363 2.55426e-19)
(0.230905 0.0395675 -2.26985e-19)
(0.283756 0.0378328 2.06768e-19)
(0.343771 0.0371478 -3.04886e-19)
(0.405664 0.0353321 -1.46903e-19)
(0.484886 0.0381112 4.23769e-20)
(0.538327 0.033948 -2.36854e-19)
(0.661829 0.0415696 -7.73947e-20)
(-0.00723439 0.0112813 -2.20405e-19)
(-0.0187621 0.0289334 -2.77574e-20)
(-0.0278237 0.0425457 -2.81086e-19)
(-0.0342128 0.0525791 -2.25985e-19)
(-0.0378415 0.0594986 2.99491e-19)
(-0.0386468 0.0637855 2.05227e-19)
(-0.0365672 0.0659115 -9.06282e-20)
(-0.031529 0.0663175 -8.12096e-20)
(-0.0234291 0.0654029 -6.05187e-20)
(-0.0121217 0.0635199 5.22952e-19)
(0.00259126 0.0609723 2.01217e-19)
(0.0209653 0.0580173 2.84249e-19)
(0.043314 0.0548706 -1.57287e-20)
(0.0700046 0.0517124 5.52344e-20)
(0.101446 0.0486944 1.53097e-19)
(0.13807 0.0459453 -3.59132e-19)
(0.180301 0.0435773 5.67418e-19)
(0.228501 0.0416816 5.996e-20)
(0.283014 0.0403839 -1.84884e-19)
(0.343547 0.0395132 -2.79084e-19)
(0.411518 0.0401198 -1.50883e-19)
(0.480705 0.0390691 3.36308e-19)
(0.567683 0.0440607 -1.11211e-20)
(0.625006 0.040143 1.76121e-19)
(0.755948 0.0508048 2.11826e-19)
(-0.00760293 0.0112013 1.68118e-19)
(-0.0195738 0.0286427 1.76035e-20)
(-0.028736 0.0420102 -3.79352e-20)
(-0.034876 0.0517781 3.99033e-20)
(-0.0378966 0.0584289 -2.84806e-19)
(-0.0377285 0.0624587 3.79481e-19)
(-0.0343021 0.0643512 -9.03205e-22)
(-0.0275294 0.0645572 3.09524e-19)
(-0.0172852 0.0634851 1.321e-20)
(-0.00339219 0.0614958 -1.06094e-19)
(0.0143876 0.058903 1.6717e-19)
(0.0363566 0.0559756 -5.61744e-19)
(0.0628786 0.0529433 -3.46561e-19)
(0.0943682 0.0500027 -1.72808e-19)
(0.13127 0.0473234 -7.45696e-20)
(0.174028 0.0450531 6.74773e-21)
(0.223039 0.0433218 -3.68007e-19)
(0.278575 0.0422305 1.39877e-19)
(0.340819 0.0419304 5.37913e-19)
(0.409198 0.0421513 1.47958e-19)
(0.484757 0.0442197 3.58149e-19)
(0.560852 0.0442206 -3.54174e-19)
(0.653379 0.0512322 -8.25755e-20)
(0.714229 0.0478961 -1.40243e-19)
(0.84739 0.0611114 -7.41467e-19)
(-0.00796501 0.0110948 -1.57532e-19)
(-0.0203407 0.0282549 7.99127e-20)
(-0.0295428 0.0413012 1.42154e-19)
(-0.0353477 0.050731 4.94522e-19)
(-0.0376465 0.0570496 1.8629e-19)
(-0.0363604 0.0607721 -4.13867e-19)
(-0.0314068 0.0623967 -1.04462e-19)
(-0.0226774 0.0623861 -5.4856e-20)
(-0.0100178 0.061159 -1.80791e-19)
(0.0067878 0.0590871 -5.92473e-20)
(0.0280235 0.0564957 -1.22663e-19)
(0.0540424 0.0536678 4.48235e-19)
(0.0852571 0.0508495 5.35554e-19)
(0.12212 0.0482557 2.69696e-19)
(0.165091 0.0460753 -1.37794e-19)
(0.214587 0.0444735 -9.66521e-20)
(0.270916 0.0435936 2.12711e-19)
(0.334179 0.0435373 -4.80852e-20)
(0.404275 0.0444619 -3.52728e-21)
(0.480294 0.0460077 1.1692e-19)
(0.562547 0.0495973 -1.6758e-19)
(0.64459 0.0509678 -2.90827e-19)
(0.739734 0.0595364 -1.94387e-19)
(0.803334 0.0571308 2.45731e-19)
(0.932803 0.0720569 7.79452e-19)
(-0.00832009 0.0109648 1.25717e-19)
(-0.021054 0.0277767 4.27641e-19)
(-0.0302203 0.0404298 1.71101e-19)
(-0.0355842 0.0494533 -1.51646e-19)
(-0.0370237 0.0553814 2.11656e-19)
(-0.0344466 0.0587527 2.33254e-19)
(-0.0277521 0.0600828 2.6169e-19)
(-0.0168053 0.0598486 -1.47201e-20)
(-0.00141552 0.0584814 2.06094e-19)
(0.0186779 0.0563658 -6.34994e-19)
(0.0438099 0.0538414 3.59537e-19)
(0.0743836 0.0512079 -1.9133e-19)
(0.110853 0.0487297 -4.83975e-19)
(0.153687 0.0466415 -3.51719e-19)
(0.203325 0.04515 5.74074e-19)
(0.260095 0.0444337 -1.97008e-19)
(0.324137 0.0446391 -9.71771e-20)
(0.395273 0.045854 7.49553e-20)
(0.472979 0.0482049 -3.79139e-19)
(0.555935 0.051278 3.08264e-19)
(0.643439 0.0563252 -4.97506e-20)
(0.729767 0.059307 3.61481e-19)
(0.824206 0.0687752 4.18953e-19)
(0.889224 0.0675446 -1.43479e-19)
(1.00927 0.0830972 -2.85346e-19)
(-0.0086669 0.0108132 -6.55422e-20)
(-0.021702 0.0272129 -2.42612e-19)
(-0.0307404 0.0394058 6.38199e-21)
(-0.0355354 0.0479599 -1.22589e-19)
(-0.0359511 0.0534463 -3.61383e-19)
(-0.0318783 0.0564309 -1.87055e-19)
(-0.0231929 0.0574501 1.02953e-19)
(-0.0097266 0.0569978 -3.21348e-19)
(0.00875421 0.0555208 2.53722e-20)
(0.0325599 0.0534191 1.58422e-19)
(0.0620769 0.0510496 -4.55767e-19)
(0.0977521 0.048731 -1.50081e-19)
(0.140062 0.0467476 3.8767e-19)
(0.18946 0.0453527 2.62396e-19)
(0.246303 0.0447669 -3.39849e-19)
(0.310755 0.0451718 3.65419e-19)
(0.382674 0.0466999 1.52338e-19)
(0.461483 0.0494037 -3.83975e-20)
(0.5461 0.053329 -3.31493e-20)
(0.634715 0.0580478 -3.27523e-19)
(0.72552 0.0643788 3.61609e-20)
(0.813771 0.0690286 -6.16896e-20)
(0.904212 0.0786415 -3.28019e-19)
(0.968814 0.0786634 -2.41491e-19)
(1.07469 0.0936551 -2.2473e-19)
(-0.00900332 0.0106404 -4.12226e-20)
(-0.0222706 0.0265669 -5.39207e-19)
(-0.0310694 0.038237 -3.33312e-19)
(-0.0351437 0.0462656 -4.25239e-19)
(-0.034342 0.0512675 3.76095e-19)
(-0.0285349 0.0538404 3.03193e-20)
(-0.0175694 0.0545452 2.72989e-19)
(-0.00123778 0.0538958 -2.49808e-19)
(0.0207415 0.0523574 4.16022e-19)
(0.0487307 0.050349 1.56054e-19)
(0.0831626 0.0482474 1.27534e-20)
(0.124512 0.0463917 -2.45348e-20)
(0.173248 0.0450861 -8.67164e-20)
(0.229751 0.0445985 -7.54417e-20)
(0.294223 0.0451535 8.08992e-20)
(0.366555 0.0469196 1.14568e-19)
(0.446198 0.0499895 -7.28775e-19)
(0.532047 0.0543512 4.56504e-20)
(0.622363 0.0599173 -1.20508e-19)
(0.714782 0.0662646 -1.11528e-19)
(0.806538 0.0736178 5.61054e-20)
(0.893839 0.079745 -3.6302e-19)
(0.977421 0.0887417 1.64797e-19)
(1.03952 0.0899524 2.09019e-19)
(1.12795 0.103214 -4.75082e-19)
(-0.00932576 0.0104462 9.63085e-20)
(-0.0227425 0.0258396 3.90268e-19)
(-0.0311686 0.0369289 3.36679e-20)
(-0.034344 0.0443843 6.17893e-19)
(-0.0320999 0.0488693 -3.92333e-19)
(-0.0242837 0.0510183 3.84659e-19)
(-0.0107083 0.0514202 -3.45102e-19)
(0.00887827 0.0506126 1.3603e-19)
(0.0348083 0.0490827 -1.75789e-19)
(0.0674927 0.0472713 2.32137e-19)
(0.107398 0.0455773 3.85273e-19)
(0.155 0.0443606 1.99754e-19)
(0.210707 0.0439418 8.00647e-20)
(0.274759 0.0445945 8.75144e-20)
(0.347096 0.0465314 -6.66624e-20)
(0.427214 0.0498827 -5.35998e-20)
(0.51403 0.054668 5.94654e-19)
(0.6058 0.060775 1.95723e-19)
(0.700088 0.0679416 5.42181e-19)
(0.793983 0.0757341 1.41166e-20)
(0.884106 0.083781 -3.41826e-19)
(0.967428 0.0909518 4.25808e-19)
(1.04205 0.0986611 5.36533e-19)
(1.09957 0.100949 6.94415e-20)
(1.16886 0.111372 4.67327e-19)
(-0.00962913 0.0102286 -2.73264e-19)
(-0.023096 0.0250295 1.51465e-19)
(-0.0309935 0.0354865 3.32986e-19)
(-0.0330633 0.0423296 -1.31063e-19)
(-0.0291191 0.0462773 -3.90236e-19)
(-0.0189816 0.0480047 -2.88317e-20)
(-0.00242561 0.0481328 2.11297e-20)
(0.020848 0.0472267 3.78931e-20)
(0.0512207 0.0457988 -2.43162e-19)
(0.0891421 0.0443143 -1.03101e-19)
(0.135088 0.0431949 -3.5982e-19)
(0.189492 0.0428193 -8.91969e-21)
(0.252635 0.0435164 -1.01287e-19)
(0.324517 0.0455506 -3.07142e-20)
(0.404698 0.0490984 2.68752e-19)
(0.492148 0.0542187 -3.9391e-19)
(0.585134 0.0608183 1.65936e-19)
(0.681215 0.0686474 -2.62439e-19)
(0.777311 0.0772491 -3.91938e-19)
(0.870079 0.0861428 7.24838e-20)
(0.955983 0.0945076 7.29373e-19)
(1.03257 0.102103 -3.6957e-19)
(1.09705 0.108069 1.61052e-20)
(1.14813 0.111346 3.20456e-19)
(1.19806 0.117762 1.79798e-19)
(-0.00990621 0.00998465 1.28695e-19)
(-0.0233053 0.0241341 -1.82782e-19)
(-0.0304935 0.0339129 -3.87476e-19)
(-0.0312215 0.0401148 -2.05982e-19)
(-0.0252853 0.0435179 2.25238e-19)
(-0.0124765 0.0448428 7.66878e-20)
(0.00747036 0.0447461 4.48445e-19)
(0.0349015 0.0438239 1.81989e-19)
(0.07024 0.0426169 1.15104e-19)
(0.113955 0.0416162 5.36627e-20)
(0.166493 0.041265 3.71988e-19)
(0.228183 0.0419541 1.68299e-19)
(0.299091 0.0440072 -1.39404e-19)
(0.37886 0.0476568 1.99496e-19)
(0.466539 0.0530103 -1.15035e-19)
(0.560452 0.0600157 1.46127e-19)
(0.658149 0.0684275 -1.41857e-19)
(0.756509 0.0778265 -3.0904e-19)
(0.851963 0.0875685 4.49472e-19)
(0.940986 0.0971001 -4.70037e-19)
(1.02034 0.105379 1.32974e-19)
(1.08811 0.112696 -1.53602e-19)
(1.14219 0.116819 -1.1605e-19)
(1.18515 0.120858 -9.56682e-19)
(1.21699 0.121829 1.52848e-19)
(-0.0101481 0.00971121 2.63035e-20)
(-0.0233399 0.0231494 1.30976e-19)
(-0.0296117 0.0322102 4.34732e-19)
(-0.0287308 0.037753 -1.02562e-19)
(-0.0204765 0.0406193 -4.46967e-20)
(-0.00460994 0.0415792 8.31524e-20)
(0.0191749 0.0413285 7.41472e-20)
(0.0512656 0.0404972 -2.92252e-19)
(0.0921119 0.0396564 -1.35793e-19)
(0.142169 0.0393229 -4.1928e-19)
(0.201804 0.0399564 -3.16699e-19)
(0.271156 0.041948 -2.25945e-19)
(0.349966 0.0455954 2.01925e-19)
(0.437392 0.0510675 -2.94882e-19)
(0.531848 0.058363 -1.42031e-19)
(0.630928 0.0672767 -6.21869e-20)
(0.731465 0.0773781 -4.49031e-20)
(0.829784 0.0880652 9.2521e-19)
(0.922083 0.0985405 5.89417e-20)
(1.005 0.108191 -8.14342e-20)
(1.07597 0.115971 -4.59561e-19)
(1.13376 0.122373 1.49393e-19)
(1.17783 0.124929 1.55555e-20)
(1.21139 0.128826 5.50057e-19)
(1.22831 0.123188 6.17986e-20)
(-0.0103448 0.00940418 2.07845e-19)
(-0.0231649 0.0220696 -1.99888e-19)
(-0.0282853 0.0303803 -3.03593e-19)
(-0.0254973 0.0352581 3.04934e-19)
(-0.0145648 0.0376118 -6.81319e-20)
(0.0047807 0.0382642 -5.90759e-20)
(0.032882 0.0379533 5.14806e-20)
(0.0701566 0.0373457 -7.37304e-20)
(0.117055 0.0370431 1.85039e-19)
(0.173973 0.0375844 1.20043e-19)
(0.241122 0.0394365 3.11056e-19)
(0.318353 0.0429721 -8.35784e-21)
(0.404956 0.0484334 2.55251e-19)
(0.499477 0.0558868 -1.7108e-20)
(0.599594 0.0651781 2.7273e-19)
(0.70215 0.0759114 7.94338e-20)
(0.803356 0.0874542 -5.12965e-19)
(0.899217 0.099036 -2.50141e-19)
(0.986033 0.109765 -6.08461e-20)
(1.06098 0.119028 1.65303e-19)
(1.12238 0.125917 -7.8541e-20)
(1.16996 0.130993 -2.79085e-19)
(1.20465 0.132309 3.66146e-20)
(1.22836 0.134389 -2.57936e-19)
(1.24154 0.128257 -1.24865e-19)
(-0.0104835 0.00905869 1.2728e-19)
(-0.0227414 0.0208899 1.35913e-19)
(-0.0264459 0.0284255 2.49115e-19)
(-0.0214212 0.0326455 -1.81507e-19)
(-0.0074181 0.0345283 1.32259e-20)
(0.0158585 0.0349522 3.63695e-19)
(0.0487791 0.0346996 -1.0427e-19)
(0.0917711 0.0344743 -3.48145e-19)
(0.145247 0.0349071 -2.06408e-19)
(0.209481 0.0365513 2.76117e-19)
(0.284436 0.0398649 -5.75597e-19)
(0.369558 0.0451758 2.2525e-21)
(0.463555 0.0526331 -4.94657e-20)
(0.564246 0.0621557 3.66085e-19)
(0.66853 0.0733948 -1.99287e-19)
(0.77256 0.0857387 2.73923e-19)
(0.87213 0.0983617 2.77224e-19)
(0.963238 0.110369 -4.89791e-19)
(1.04264 0.120856 -2.04441e-19)
(1.10836 0.129287 -1.69971e-19)
(1.15976 0.134969 2.59581e-19)
(1.19759 0.138577 4.11578e-19)
(1.22362 0.138597 1.9179e-19)
(1.23996 0.139149 -1.70564e-19)
(1.24891 0.132667 -3.0824e-19)
(-0.0105497 0.00867015 -3.00531e-20)
(-0.0220262 0.0196054 1.27187e-19)
(-0.0240201 0.0263494 -2.5282e-19)
(-0.0163982 0.0299327 -3.88311e-19)
(0.00109804 0.0314052 -5.75724e-19)
(0.0287836 0.0317022 9.80639e-20)
(0.0670413 0.0316515 -1.15803e-19)
(0.116278 0.0319931 1.69795e-19)
(0.176815 0.0333809 6.31598e-20)
(0.248723 0.0363699 1.21845e-19)
(0.33161 0.0413861 1.35545e-19)
(0.424383 0.0486772 -7.48525e-20)
(0.52505 0.0582547 -1.08357e-19)
(0.630631 0.0698442 -2.43583e-19)
(0.737271 0.08287 7.43213e-20)
(0.840599 0.0965023 -2.91273e-19)
(0.93628 0.10976 1.07453e-19)
(1.02066 0.121697 6.93096e-20)
(1.09129 0.131483 -2.89043e-19)
(1.1472 0.138736 -3.11953e-19)
(1.18884 0.143023 -1.67135e-19)
(1.21781 0.145138 9.48934e-21)
(1.23647 0.143945 5.2328e-20)
(1.24697 0.14323 -1.68584e-19)