/*--------------------------------*- C++ -*----------------------------------*\
  =========                 |
  \\      /  F ield         | OpenFOAM: The Open Source CFD Toolbox
   \\    /   O peration     | Website:  https://openfoam.org
    \\  /    A nd           | Version:  7
     \\/     M anipulation  |
\*---------------------------------------------------------------------------*/
FoamFile
{
    version     2.0;
    format      ascii;
    class       volScalarField;
    location    "80";
    object      p;
}
// * * * * * * * * * * * * * * * * * * * * * * * * * * * * * * * * * * * * * //

dimensions      [0 2 -2 0 0 0 0];

internalField   nonuniform List<scalar> 
1987
(
-0.403202
-0.391907
-0.41604
-0.404376
-0.388215
-0.427297
-0.4153
-0.399501
-0.375417
-0.344506
-0.436987
-0.424693
-0.409288
-0.385994
-0.355937
-0.322092
-0.445132
-0.432579
-0.417594
-0.39515
-0.366054
-0.333016
-0.298811
-0.265609
-0.451766
-0.438992
-0.424446
-0.402901
-0.374859
-0.342755
-0.309216
-0.276396
-0.245645
-0.217581
-0.456931
-0.443977
-0.429883
-0.409274
-0.382366
-0.351312
-0.318571
-0.28626
-0.255776
-0.227802
-0.202532
-0.179886
-0.460681
-0.447588
-0.433954
-0.414304
-0.388597
-0.358699
-0.326879
-0.295202
-0.265096
-0.23731
-0.212096
-0.189419
-0.169107
-0.150947
-0.134723
-0.463078
-0.449889
-0.436716
-0.418038
-0.393583
-0.364932
-0.334151
-0.303227
-0.273609
-0.246106
-0.22103
-0.198392
-0.178051
-0.159811
-0.143471
-0.12884
-0.115742
-0.10402
-0.464192
-0.450951
-0.438236
-0.420531
-0.397363
-0.370037
-0.340399
-0.310343
-0.28132
-0.254194
-0.229337
-0.206807
-0.186497
-0.168232
-0.151823
-0.13709
-0.123863
-0.111993
-0.101343
-0.0917909
-0.0832233
-0.4641
-0.450853
-0.438589
-0.421846
-0.399986
-0.374046
-0.345645
-0.316563
-0.28824
-0.261583
-0.237024
-0.21467
-0.19445
-0.176211
-0.15978
-0.144986
-0.131669
-0.119684
-0.1089
-0.099199
-0.0904727
-0.462887
-0.44968
-0.437858
-0.422056
-0.401506
-0.376997
-0.349914
-0.321905
-0.29438
-0.268282
-0.244099
-0.221988
-0.201914
-0.183753
-0.167345
-0.152531
-0.13916
-0.127093
-0.116205
-0.106382
-0.0975214
-0.460641
-0.447521
-0.436129
-0.421238
-0.401988
-0.378938
-0.353239
-0.32639
-0.299757
-0.274306
-0.250573
-0.22877
-0.208899
-0.190863
-0.174522
-0.159728
-0.146338
-0.134222
-0.123259
-0.113341
-0.104369
-0.457456
-0.44447
-0.433495
-0.419479
-0.401502
-0.37992
-0.355656
-0.330045
-0.304391
-0.279668
-0.25646
-0.235027
-0.215414
-0.197551
-0.181319
-0.166582
-0.153208
-0.141074
-0.130064
-0.120077
-0.111016
-0.453428
-0.440623
-0.430051
-0.416868
-0.400125
-0.380004
-0.357208
-0.332901
-0.308303
-0.284387
-0.261774
-0.240772
-0.221469
-0.203825
-0.187742
-0.173099
-0.159775
-0.147652
-0.136623
-0.12659
-0.448655
-0.436077
-0.425896
-0.413498
-0.397939
-0.379255
-0.357943
-0.334989
-0.311518
-0.288482
-0.266532
-0.24602
-0.227077
-0.209697
-0.193802
-0.179288
-0.166044
-0.153962
-0.14294
-0.132886
-0.443234
-0.430929
-0.421126
-0.409465
-0.395029
-0.377742
-0.357913
-0.33635
-0.314065
-0.291976
-0.270752
-0.250787
-0.232253
-0.215177
-0.199508
-0.185156
-0.172022
-0.160008
-0.149019
-0.138967
-0.437264
-0.425274
-0.41584
-0.404864
-0.391486
-0.375541
-0.357176
-0.337024
-0.315973
-0.294891
-0.274454
-0.25509
-0.237012
-0.220281
-0.204872
-0.190714
-0.177719
-0.165799
-0.154866
-0.144838
-0.430839
-0.419207
-0.410132
-0.399792
-0.387398
-0.37273
-0.355795
-0.337058
-0.317277
-0.297254
-0.277659
-0.258947
-0.241369
-0.225022
-0.209906
-0.195971
-0.183143
-0.171342
-0.160487
-0.150504
-0.141322
-0.424051
-0.412815
-0.404093
-0.394343
-0.382858
-0.369389
-0.353833
-0.3365
-0.318011
-0.29909
-0.280387
-0.262375
-0.245341
-0.229414
-0.214625
-0.200941
-0.188305
-0.176645
-0.165891
-0.155972
-0.146824
-0.416989
-0.406183
-0.397809
-0.388605
-0.377954
-0.365602
-0.351361
-0.335403
-0.318214
-0.300429
-0.282661
-0.265395
-0.248945
-0.233474
-0.219041
-0.205635
-0.193214
-0.181718
-0.171084
-0.161248
-0.152151
-0.409734
-0.399391
-0.391363
-0.382663
-0.372773
-0.361449
-0.348448
-0.333822
-0.317927
-0.301299
-0.284505
-0.268026
-0.252198
-0.237217
-0.223168
-0.210066
-0.197882
-0.18657
-0.176075
-0.16634
-0.15731
-0.402365
-0.39251
-0.384828
-0.376598
-0.367397
-0.357012
-0.345165
-0.331815
-0.317193
-0.301732
-0.285942
-0.270286
-0.255118
-0.240659
-0.227023
-0.214247
-0.202322
-0.191212
-0.180873
-0.171255
-0.162307
-0.394953
-0.385609
-0.378272
-0.37048
-0.361905
-0.352369
-0.341586
-0.329441
-0.316057
-0.301762
-0.286996
-0.272196
-0.257721
-0.243814
-0.230618
-0.218192
-0.206545
-0.195656
-0.185488
-0.176001
-0.16715
-0.38756
-0.378744
-0.371756
-0.364376
-0.356366
-0.347594
-0.337781
-0.326762
-0.314567
-0.301423
-0.287692
-0.273775
-0.260023
-0.246699
-0.233968
-0.221913
-0.210563
-0.199911
-0.18993
-0.180588
-0.171845
-0.380246
-0.37197
-0.365331
-0.358342
-0.350845
-0.342756
-0.333818
-0.323838
-0.312771
-0.30075
-0.288057
-0.275042
-0.262042
-0.249328
-0.237087
-0.225425
-0.21439
-0.203989
-0.194209
-0.185024
-0.176402
-0.373059
-0.36533
-0.359043
-0.352428
-0.345397
-0.337916
-0.329762
-0.32073
-0.31072
-0.299783
-0.288117
-0.276016
-0.263791
-0.251715
-0.239988
-0.22874
-0.218036
-0.207902
-0.198336
-0.189319
-0.180827
-0.366042
-0.358862
-0.352928
-0.346673
-0.34007
-0.333132
-0.325673
-0.317496
-0.308464
-0.298559
-0.2879
-0.276717
-0.265286
-0.253871
-0.242683
-0.231869
-0.221515
-0.211661
-0.20232
-0.193482
-0.185131
-0.177242
-0.359232
-0.352598
-0.347018
-0.341112
-0.334904
-0.32845
-0.321606
-0.314193
-0.306055
-0.29712
-0.287435
-0.277165
-0.266542
-0.25581
-0.245184
-0.234824
-0.224836
-0.215278
-0.206173
-0.197524
-0.189321
-0.181544
-0.352658
-0.346563
-0.341336
-0.335769
-0.329931
-0.32391
-0.317608
-0.310872
-0.303542
-0.295506
-0.286754
-0.277382
-0.267572
-0.257541
-0.247499
-0.237616
-0.228012
-0.218762
-0.209904
-0.201453
-0.193407
-0.185748
-0.346345
-0.340777
-0.335899
-0.330664
-0.325173
-0.319544
-0.31372
-0.30758
-0.300971
-0.29376
-0.285887
-0.277388
-0.26839
-0.259075
-0.249637
-0.240251
-0.231049
-0.222123
-0.213524
-0.205279
-0.197398
-0.189862
-0.340308
-0.335251
-0.330719
-0.32581
-0.320648
-0.315376
-0.309976
-0.304358
-0.298387
-0.291922
-0.284868
-0.277207
-0.269011
-0.26042
-0.251606
-0.242738
-0.233958
-0.22537
-0.217042
-0.209012
-0.201302
-0.193895
-0.334562
-0.329998
-0.325804
-0.321213
-0.316366
-0.311424
-0.3064
-0.301239
-0.295829
-0.290032
-0.28373
-0.276864
-0.269451
-0.261585
-0.253409
-0.24508
-0.236742
-0.22851
-0.220466
-0.21266
-0.205128
-0.197854
-0.190934
-0.329114
-0.32502
-0.321157
-0.316877
-0.312333
-0.307697
-0.303012
-0.298252
-0.293332
-0.288127
-0.282508
-0.276383
-0.269725
-0.26258
-0.255054
-0.247282
-0.239407
-0.231549
-0.223803
-0.216231
-0.208885
-0.201748
-0.194942
-0.323969
-0.32032
-0.316777
-0.312799
-0.308549
-0.304201
-0.299823
-0.295418
-0.290927
-0.286241
-0.281234
-0.275793
-0.269853
-0.263414
-0.256542
-0.249345
-0.241953
-0.234489
-0.227059
-0.219733
-0.21258
-0.205585
-0.198896
-0.319126
-0.315896
-0.312661
-0.308977
-0.30501
-0.300936
-0.296841
-0.292752
-0.288635
-0.284404
-0.27994
-0.275121
-0.269854
-0.264098
-0.257878
-0.251268
-0.24438
-0.237332
-0.230235
-0.223169
-0.21622
-0.209373
-0.202802
-0.19619
-0.314584
-0.311745
-0.308804
-0.305404
-0.30171
-0.297899
-0.294067
-0.290263
-0.286475
-0.28264
-0.278653
-0.274393
-0.269748
-0.264645
-0.259066
-0.253052
-0.246687
-0.240076
-0.233334
-0.226544
-0.21981
-0.213118
-0.206669
-0.200127
-0.310337
-0.307859
-0.305197
-0.30207
-0.298641
-0.295082
-0.291499
-0.287954
-0.284459
-0.28097
-0.277401
-0.273637
-0.269559
-0.265068
-0.260113
-0.254694
-0.248867
-0.242716
-0.236351
-0.229857
-0.223353
-0.216825
-0.210503
-0.204033
-0.306378
-0.304231
-0.301832
-0.298967
-0.295792
-0.292476
-0.28913
-0.285827
-0.282594
-0.279409
-0.276204
-0.272877
-0.269309
-0.265385
-0.261025
-0.256195
-0.250915
-0.245245
-0.239281
-0.233106
-0.22685
-0.220497
-0.214309
-0.207912
-0.202224
-0.302697
-0.300852
-0.298699
-0.296082
-0.293154
-0.290073
-0.286953
-0.283877
-0.280883
-0.277967
-0.275081
-0.272136
-0.26902
-0.265613
-0.261813
-0.257555
-0.252825
-0.247653
-0.242115
-0.236284
-0.230297
-0.224136
-0.218092
-0.211771
-0.206142
-0.299284
-0.297709
-0.295785
-0.293405
-0.290712
-0.287859
-0.284958
-0.282097
-0.279325
-0.276651
-0.274043
-0.271432
-0.268713
-0.26577
-0.262488
-0.258778
-0.254593
-0.249929
-0.24484
-0.239379
-0.233688
-0.227739
-0.221854
-0.215613
-0.210052
-0.296124
-0.294791
-0.29308
-0.290923
-0.288456
-0.285822
-0.283134
-0.28048
-0.277915
-0.275461
-0.273101
-0.27078
-0.268408
-0.265877
-0.263066
-0.259869
-0.256213
-0.252062
-0.24744
-0.242376
-0.237009
-0.231298
-0.225594
-0.219443
-0.213964
-0.293205
-0.292085
-0.29057
-0.288622
-0.286372
-0.283951
-0.281469
-0.279014
-0.276647
-0.274397
-0.272258
-0.270191
-0.268122
-0.26595
-0.263561
-0.260838
-0.257687
-0.254042
-0.2499
-0.245257
-0.240244
-0.234799
-0.229306
-0.223254
-0.217908
-0.290509
-0.289577
-0.288241
-0.286491
-0.284446
-0.282231
-0.279949
-0.277689
-0.275511
-0.273452
-0.271515
-0.269673
-0.267867
-0.266008
-0.26399
-0.261695
-0.259016
-0.255863
-0.252202
-0.248001
-0.24337
-0.238222
-0.232977
-0.22705
-0.221879
-0.288022
-0.287252
-0.286079
-0.284514
-0.282666
-0.280648
-0.278562
-0.276491
-0.274498
-0.27262
-0.27087
-0.269229
-0.267651
-0.266064
-0.264369
-0.262454
-0.260206
-0.257519
-0.254333
-0.250584
-0.246359
-0.241545
-0.236575
-0.23082
-0.225948
-0.285725
-0.285095
-0.284072
-0.282679
-0.281017
-0.27919
-0.277293
-0.275407
-0.273593
-0.27189
-0.270314
-0.268857
-0.267482
-0.266129
-0.264713
-0.26313
-0.261269
-0.259013
-0.256283
-0.252988
-0.249183
-0.244735
-0.24007
-0.234539
-0.229927
-0.283601
-0.283091
-0.282203
-0.280971
-0.279486
-0.277842
-0.27613
-0.274424
-0.272785
-0.271251
-0.269841
-0.268552
-0.267358
-0.266209
-0.265033
-0.263737
-0.262215
-0.260349
-0.258046
-0.255197
-0.251809
-0.247781
-0.243333
-0.238503
-0.232934
-0.28163
-0.281223
-0.280459
-0.279377
-0.278059
-0.276592
-0.275057
-0.273528
-0.272059
-0.270689
-0.269439
-0.268308
-0.267277
-0.266307
-0.265338
-0.264287
-0.263058
-0.261538
-0.259622
-0.257201
-0.254207
-0.250665
-0.246327
-0.242486
-0.235841
-0.279794
-0.279477
-0.278825
-0.277883
-0.276723
-0.275424
-0.274062
-0.272703
-0.271401
-0.270191
-0.269094
-0.268113
-0.267233
-0.266422
-0.265632
-0.26479
-0.263812
-0.262592
-0.261019
-0.258998
-0.25636
-0.253349
-0.249028
-0.246133
-0.238638
-0.278076
-0.277836
-0.277288
-0.276476
-0.275466
-0.274327
-0.27313
-0.271937
-0.270796
-0.269742
-0.268793
-0.267955
-0.267215
-0.26655
-0.265915
-0.265253
-0.264487
-0.263524
-0.262248
-0.260591
-0.258264
-0.255798
-0.25143
-0.249429
-0.241146
-0.276458
-0.276288
-0.275835
-0.275145
-0.274275
-0.273289
-0.27225
-0.271216
-0.270232
-0.269328
-0.268523
-0.267821
-0.267214
-0.26668
-0.266185
-0.265678
-0.265092
-0.264345
-0.263322
-0.261989
-0.259928
-0.257992
-0.253544
-0.25245
-0.243323
-0.274924
-0.274819
-0.274453
-0.273876
-0.273139
-0.272297
-0.271409
-0.270528
-0.269693
-0.268934
-0.268267
-0.267696
-0.267215
-0.266804
-0.266434
-0.266062
-0.26563
-0.265066
-0.264256
-0.263201
-0.261371
-0.259923
-0.255395
-0.255216
-0.245199
-0.27346
-0.273415
-0.273131
-0.272661
-0.272048
-0.271342
-0.270597
-0.269861
-0.269169
-0.268549
-0.268014
-0.267568
-0.267206
-0.266909
-0.266654
-0.266402
-0.266101
-0.265692
-0.265061
-0.264239
-0.262617
-0.261585
-0.257023
-0.257694
-0.246818
-0.272052
-0.272066
-0.271861
-0.271489
-0.270992
-0.270414
-0.269804
-0.269205
-0.268649
-0.26816
-0.267751
-0.267424
-0.267173
-0.266984
-0.266834
-0.266688
-0.266504
-0.266226
-0.265748
-0.265114
-0.26369
-0.262974
-0.258475
-0.259827
-0.24824
-0.270688
-0.270763
-0.270631
-0.270353
-0.269965
-0.269507
-0.269023
-0.268552
-0.268124
-0.267758
-0.267467
-0.267252
-0.267106
-0.267017
-0.266963
-0.266914
-0.266831
-0.266665
-0.26632
-0.265835
-0.264605
-0.264094
-0.259791
-0.261559
-0.24954
-0.269359
-0.269497
-0.269436
-0.269246
-0.26896
-0.268613
-0.268246
-0.267895
-0.267585
-0.267335
-0.267154
-0.267043
-0.266995
-0.266997
-0.267032
-0.26707
-0.267077
-0.267007
-0.266776
-0.266407
-0.265369
-0.264959
-0.26099
-0.262864
-0.250796
-0.268057
-0.268263
-0.26827
-0.268163
-0.267972
-0.267728
-0.26747
-0.267228
-0.267028
-0.266885
-0.266805
-0.266789
-0.266831
-0.266918
-0.267032
-0.267149
-0.267235
-0.267248
-0.267115
-0.266838
-0.265982
-0.265594
-0.262064
-0.263755
-0.252059
-0.266777
-0.267054
-0.267129
-0.2671
-0.266997
-0.266849
-0.26669
-0.26655
-0.266449
-0.266403
-0.266415
-0.266486
-0.266609
-0.266773
-0.266959
-0.267145
-0.2673
-0.267383
-0.267334
-0.267131
-0.266439
-0.266024
-0.262986
-0.264281
-0.253331
-0.265516
-0.265869
-0.266009
-0.266055
-0.266034
-0.265973
-0.265905
-0.265857
-0.265847
-0.265887
-0.265983
-0.266132
-0.266328
-0.266558
-0.266808
-0.267054
-0.267267
-0.267411
-0.26743
-0.267287
-0.266735
-0.266276
-0.263724
-0.26451
-0.254577
-0.264272
-0.264705
-0.26491
-0.265026
-0.265082
-0.265101
-0.265115
-0.265149
-0.265221
-0.265339
-0.265508
-0.265726
-0.265985
-0.266275
-0.266578
-0.266875
-0.267138
-0.267331
-0.267405
-0.267311
-0.266871
-0.266368
-0.264251
-0.264516
-0.25574
-0.263045
-0.263563
-0.263832
-0.264015
-0.264141
-0.264233
-0.264322
-0.264429
-0.264572
-0.26476
-0.264993
-0.265271
-0.265584
-0.265923
-0.266272
-0.266611
-0.266914
-0.267146
-0.267261
-0.267206
-0.266849
-0.266316
-0.26456
-0.264362
-0.256768
-0.261839
-0.262445
-0.262776
-0.263022
-0.263213
-0.263372
-0.263526
-0.263699
-0.263906
-0.264152
-0.264441
-0.26477
-0.265129
-0.265509
-0.265895
-0.266266
-0.266599
-0.26686
-0.267005
-0.26698
-0.266682
-0.266133
-0.264658
-0.264101
-0.257623
-0.260656
-0.261353
-0.261746
-0.26205
-0.262302
-0.26252
-0.262733
-0.262964
-0.263225
-0.263522
-0.263858
-0.264229
-0.264626
-0.265039
-0.265453
-0.265849
-0.266203
-0.266483
-0.266648
-0.266643
-0.266385
-0.265834
-0.264569
-0.263776
-0.258289
-0.259502
-0.260291
-0.260743
-0.261104
-0.26141
-0.261682
-0.261947
-0.262228
-0.262535
-0.262876
-0.263251
-0.263656
-0.264083
-0.264521
-0.264955
-0.265368
-0.265735
-0.266026
-0.266202
-0.266209
-0.265977
-0.265436
-0.264321
-0.263428
-0.258754
-0.258382
-0.259264
-0.259774
-0.260187
-0.260543
-0.260863
-0.261174
-0.261497
-0.261844
-0.26222
-0.262627
-0.263059
-0.263509
-0.263964
-0.264412
-0.264834
-0.265208
-0.265503
-0.265682
-0.265696
-0.265481
-0.264956
-0.263951
-0.263083
-0.258997
-0.257305
-0.258278
-0.258843
-0.259304
-0.259707
-0.260068
-0.260419
-0.260778
-0.261158
-0.261564
-0.261995
-0.262448
-0.262913
-0.263381
-0.263836
-0.264262
-0.264635
-0.264928
-0.265106
-0.265121
-0.264917
-0.264416
-0.263541
-0.262636
-0.259076
-0.256277
-0.25734
-0.257957
-0.258462
-0.258906
-0.259305
-0.259689
-0.260078
-0.260485
-0.260914
-0.261364
-0.261832
-0.262308
-0.262782
-0.263239
-0.263662
-0.264031
-0.264318
-0.264489
-0.264503
-0.264308
-0.263837
-0.263059
-0.262078
-0.259449
-0.255308
-0.256455
-0.25712
-0.257667
-0.258147
-0.258578
-0.258991
-0.259405
-0.259833
-0.26028
-0.260744
-0.261221
-0.261703
-0.262178
-0.262632
-0.26305
-0.26341
-0.263687
-0.263849
-0.26386
-0.263673
-0.263235
-0.262536
-0.26156
-0.259567
-0.254404
-0.255631
-0.256341
-0.256924
-0.257436
-0.257895
-0.258331
-0.258766
-0.259211
-0.25967
-0.260143
-0.260626
-0.261109
-0.261581
-0.262029
-0.262437
-0.262785
-0.263049
-0.263202
-0.263208
-0.263029
-0.262624
-0.261992
-0.261072
-0.259501
-0.253575
-0.254875
-0.255624
-0.25624
-0.256779
-0.257261
-0.257717
-0.258168
-0.258625
-0.259093
-0.259571
-0.260055
-0.260535
-0.261002
-0.261441
-0.261837
-0.26217
-0.26242
-0.26256
-0.262561
-0.26239
-0.262016
-0.261443
-0.2606
-0.259334
-0.252827
-0.254192
-0.254976
-0.25562
-0.256183
-0.256683
-0.257154
-0.257617
-0.258082
-0.258556
-0.259036
-0.259517
-0.259993
-0.26045
-0.260878
-0.261259
-0.261577
-0.261811
-0.261938
-0.261933
-0.261768
-0.261423
-0.2609
-0.26014
-0.2591
-0.252168
-0.253589
-0.254403
-0.255069
-0.255651
-0.256167
-0.256649
-0.25712
-0.257591
-0.258066
-0.258544
-0.259022
-0.259489
-0.259936
-0.260349
-0.260715
-0.261016
-0.261233
-0.261346
-0.261334
-0.261174
-0.260853
-0.260373
-0.259692
-0.258823
-0.251604
-0.253071
-0.253909
-0.254594
-0.25519
-0.255717
-0.256207
-0.256683
-0.257155
-0.257629
-0.258104
-0.258574
-0.259032
-0.259466
-0.259864
-0.260213
-0.260495
-0.260695
-0.260793
-0.260773
-0.260615
-0.260313
-0.259869
-0.259259
-0.25852
-0.251141
-0.252642
-0.253499
-0.254197
-0.254804
-0.255338
-0.255832
-0.25631
-0.256781
-0.257251
-0.25772
-0.258181
-0.258627
-0.259047
-0.259429
-0.25976
-0.260023
-0.260204
-0.260287
-0.260256
-0.260098
-0.259809
-0.259394
-0.258842
-0.258194
-0.250781
-0.252307
-0.253175
-0.253882
-0.254495
-0.255032
-0.255528
-0.256004
-0.256472
-0.256937
-0.257397
-0.257847
-0.25828
-0.258685
-0.259049
-0.259361
-0.259605
-0.259767
-0.259833
-0.25979
-0.259628
-0.259346
-0.258952
-0.258445
-0.257875
-0.256231
-0.256687
-0.257137
-0.257575
-0.257994
-0.258382
-0.258729
-0.259021
-0.259245
-0.259387
-0.259435
-0.259377
-0.259208
-0.258927
-0.258546
-0.258071
-0.257556
-0.205462
-0.209321
-0.213134
-0.207531
-0.216999
-0.211466
-0.220778
-0.215141
-0.208683
-0.225481
-0.219756
-0.213125
-0.229943
-0.231456
-0.231545
-0.231557
-0.231502
-0.231136
-0.230371
-0.229222
-0.227726
-0.225909
-0.223792
-0.221398
-0.218759
-0.224191
-0.226457
-0.226549
-0.226501
-0.226568
-0.226416
-0.225872
-0.224944
-0.223678
-0.222105
-0.220242
-0.218113
-0.215747
-0.218325
-0.221035
-0.221141
-0.22106
-0.221242
-0.221296
-0.220972
-0.220264
-0.219231
-0.217907
-0.216309
-0.214457
-0.21238
-0.215579
-0.215882
-0.216128
-0.216019
-0.215529
-0.214724
-0.213644
-0.212305
-0.210725
-0.208931
-0.257118
-0.256459
-0.255773
-0.254991
-0.254135
-0.253203
-0.2522
-0.25742
-0.256653
-0.255857
-0.254939
-0.253926
-0.252815
-0.251612
-0.257783
-0.25689
-0.255986
-0.254932
-0.253763
-0.252473
-0.25107
-0.258207
-0.25717
-0.256161
-0.254974
-0.253649
-0.252184
-0.250583
-0.248854
-0.258686
-0.257491
-0.256381
-0.255063
-0.253588
-0.251951
-0.250158
-0.248217
-0.259219
-0.257846
-0.256641
-0.255199
-0.253578
-0.251776
-0.249797
-0.247652
-0.259801
-0.258227
-0.256935
-0.255376
-0.253617
-0.251658
-0.249502
-0.247162
-0.26043
-0.258623
-0.257255
-0.255588
-0.2537
-0.251594
-0.249272
-0.246748
-0.261106
-0.259026
-0.257591
-0.255826
-0.253819
-0.251578
-0.249103
-0.246409
-0.261868
-0.259402
-0.25793
-0.256077
-0.253964
-0.251601
-0.248988
-0.246139
-0.262878
-0.259571
-0.258261
-0.25633
-0.254122
-0.251651
-0.248917
-0.24593
-0.263161
-0.26035
-0.258518
-0.25656
-0.254281
-0.251717
-0.248878
-0.245772
-0.263603
-0.260788
-0.258721
-0.256754
-0.254421
-0.251781
-0.248857
-0.245654
-0.264007
-0.261212
-0.258917
-0.256888
-0.254522
-0.251824
-0.248835
-0.245557
-0.242007
-0.264294
-0.261592
-0.259073
-0.256918
-0.254553
-0.251825
-0.248792
-0.245462
-0.241849
-0.264415
-0.261882
-0.259089
-0.256981
-0.254506
-0.251758
-0.248708
-0.245351
-0.241699
-0.264308
-0.262054
-0.259007
-0.256862
-0.254396
-0.251594
-0.248551
-0.245199
-0.241536
-0.263912
-0.262045
-0.258794
-0.256612
-0.254282
-0.251352
-0.24828
-0.24497
-0.241337
-0.26318
-0.261779
-0.258414
-0.256196
-0.253923
-0.251212
-0.247972
-0.244615
-0.241061
-0.237182
-0.26208
-0.261178
-0.25782
-0.2556
-0.253391
-0.250737
-0.247763
-0.244317
-0.240612
-0.236838
-0.260604
-0.260168
-0.256964
-0.254796
-0.252669
-0.250104
-0.247206
-0.244029
-0.240457
-0.236351
-0.258753
-0.258698
-0.255797
-0.253751
-0.251727
-0.249278
-0.246499
-0.24342
-0.240043
-0.236473
-0.256534
-0.256752
-0.254281
-0.252434
-0.250541
-0.248236
-0.245605
-0.242674
-0.239439
-0.235911
-0.232146
-0.253957
-0.254349
-0.2524
-0.250817
-0.249091
-0.246964
-0.244508
-0.241747
-0.238675
-0.235317
-0.231683
-0.251047
-0.251545
-0.25016
-0.248884
-0.247366
-0.245452
-0.243198
-0.240628
-0.237746
-0.234572
-0.231111
-0.247853
-0.248433
-0.247592
-0.246636
-0.245362
-0.243694
-0.241668
-0.239312
-0.23664
-0.233669
-0.230414
-0.226923
-0.244453
-0.245125
-0.24475
-0.244099
-0.243099
-0.241703
-0.239925
-0.2378
-0.235353
-0.232602
-0.229563
-0.226273
-0.240991
-0.241744
-0.241712
-0.241339
-0.240634
-0.239527
-0.238016
-0.23614
-0.233931
-0.231411
-0.228597
-0.225521
-0.237655
-0.238356
-0.238479
-0.238326
-0.237907
-0.237103
-0.235883
-0.234284
-0.232342
-0.230079
-0.227516
-0.22468
-0.234386
-0.234886
-0.234918
-0.234851
-0.23464
-0.234091
-0.233142
-0.231813
-0.230138
-0.22814
-0.22584
-0.223264
-0.220443
)
;

boundaryField
{
    inlet
    {
        type            zeroGradient;
    }
    outlet
    {
        type            fixedValue;
        value           nonuniform 0();
    }
    cylinder
    {
        type            zeroGradient;
    }
    top
    {
        type            symmetryPlane;
    }
    bottom
    {
        type            symmetryPlane;
    }
    defaultFaces
    {
        type            empty;
    }
    procBoundary5to0
    {
        type            processor;
        value           nonuniform List<scalar> 3(-0.084159 -0.0757745 -0.0755353);
    }
    procBoundary5to1
    {
        type            processor;
        value           nonuniform List<scalar> 
59
(
-0.0826177
-0.0895224
-0.0962467
-0.10279
-0.117463
-0.117463
-0.123714
-0.129772
-0.135639
-0.135639
-0.132873
-0.138385
-0.143737
-0.148936
-0.153986
-0.158895
-0.163667
-0.168311
-0.172834
-0.172834
-0.169812
-0.174205
-0.178506
-0.182724
-0.186863
-0.186863
-0.184117
-0.188191
-0.192213
-0.192213
-0.190321
-0.194321
-0.198287
-0.198287
-0.197626
-0.201565
-0.201565
-0.199932
-0.203761
-0.203761
-0.20111
-0.205023
-0.205023
-0.202802
-0.206993
-0.212406
-0.215384
-0.215608
-0.215608
-0.210081
-0.210506
-0.210927
-0.211024
-0.210747
-0.210163
-0.209319
-0.208231
-0.206914
-0.205394
)
;
    }
    procBoundary5to4
    {
        type            processor;
        value           nonuniform List<scalar> 
28
(
-0.388785
-0.377891
-0.375423
-0.375423
-0.363412
-0.363412
-0.331762
-0.309988
-0.309988
-0.287359
-0.287359
-0.253905
-0.234706
-0.234706
-0.206649
-0.192337
-0.192337
-0.169792
-0.159664
-0.159664
-0.141637
-0.125578
-0.120236
-0.120236
-0.107305
-0.0957663
-0.0935348
-0.0935348
)
;
    }
    procBoundary5to6
    {
        type            processor;
        value           nonuniform List<scalar> 
40
(
-0.215918
-0.213186
-0.210116
-0.206957
-0.251128
-0.250319
-0.249558
-0.249558
-0.247006
-0.24614
-0.245354
-0.244652
-0.244038
-0.243513
-0.243072
-0.242711
-0.24242
-0.242192
-0.242192
-0.238218
-0.237986
-0.237787
-0.237601
-0.237408
-0.237408
-0.233056
-0.23282
-0.232425
-0.232262
-0.232262
-0.228324
-0.227822
-0.227429
-0.227429
-0.223207
-0.222759
-0.222217
-0.221606
-0.221606
-0.217421
)
;
    }
    procBoundary5to9
    {
        type            processor;
        value           nonuniform List<scalar> 
33
(
-0.25606
-0.256506
-0.256944
-0.257368
-0.257771
-0.258142
-0.25847
-0.258742
-0.258945
-0.259066
-0.259095
-0.259021
-0.258839
-0.258553
-0.258177
-0.25772
-0.257241
-0.250529
-0.252067
-0.252941
-0.253651
-0.254266
-0.254803
-0.255297
-0.255769
-0.255769
-0.256876
-0.256308
-0.255732
-0.255083
-0.254383
-0.25363
-0.252826
)
;
    }
}


// ************************************************************************* //
