2 	-4.90934 	1.15829e-17 	-0.000188305
2 	-4.7312 	1.49656e-17 	-0.000451081
2 	-4.55927 	1.86952e-17 	-0.000950403
2 	-4.39335 	2.39861e-17 	-0.00166674
2 	-4.23322 	2.49402e-17 	-0.00258039
2 	-4.07868 	2.06034e-17 	-0.0036752
2 	-3.92954 	1.82615e-17 	-0.00493594
2 	-3.78561 	1.76544e-17 	-0.00634838
2 	-3.6467 	1.50523e-17 	-0.00789877
2 	-3.51265 	1.07155e-17 	-0.00957359
2 	-3.38328 	6.37868e-18 	-0.011359
2 	-3.25842 	5.77153e-18 	-0.0132405
2 	-3.13793 	7.15931e-18 	-0.015203
2 	-3.02164 	5.25111e-18 	-0.0172305
2 	-2.90941 	8.37362e-18 	-0.0193055
2 	-2.80111 	1.23635e-17 	-0.0214095
2 	-2.69658 	1.30574e-17 	-0.0235222
2 	-2.59571 	1.11492e-17 	-0.0256222
2 	-2.49835 	1.01083e-17 	-0.0276863
2 	-2.4044 	1.73942e-17 	-0.0296899
2 	-2.31373 	1.70472e-17 	-0.0316062
2 	-2.22623 	1.47054e-17 	-0.0334077
2 	-2.14178 	1.36645e-17 	-0.0350674
2 	-2.06028 	1.28839e-17 	-0.0365523
2 	-1.98162 	1.60931e-17 	-0.0378333
2 	-1.90572 	1.90422e-17 	-0.0388791
2 	-1.83246 	1.67003e-17 	-0.0396579
2 	-1.76176 	9.32771e-18 	-0.040138
2 	-1.69353 	5.25111e-18 	-0.0402878
2 	-1.62769 	6.8991e-18 	-0.0400764
2 	-1.56414 	1.02818e-17 	-0.0394738
2 	-1.50281 	1.16696e-17 	-0.0384517
2 	-1.44363 	9.32771e-18 	-0.0369839
2 	-1.38651 	6.72563e-18 	-0.035046
2 	-1.33138 	6.29195e-18 	-0.0326181
2 	-1.27818 	2.36535e-18 	-0.0296861
2 	-1.22684 	-1.60104e-18 	-0.026229
2 	-1.17729 	-1.94799e-18 	-0.0221889
2 	-1.12947 	1.8684e-18 	-0.0175491
2 	-1.08332 	1.69493e-18 	-0.0128222
2 	-1.04642 	3.06378e-18 	-0.00980138
2 	-1.02058 	-8.09353e-18 	-0.00694739
2 	-1.00602 	-1.28188e-17 	-0.00336709
2 	-0.988166 	-1.94388e-17 	8.87975e-05
2 	-0.958082 	-2.46438e-17 	0.00299801
2 	-0.927383 	-2.50436e-17 	0.00546178
2 	-0.910757 	-1.34411e-17 	0.00732528
2 	-0.894961 	-2.80226e-18 	0.0132391
2 	-0.864208 	-5.50908e-18 	0.0157862
2 	-0.831768 	-9.04894e-18 	0.0173027
2 	-0.803909 	1.92437e-18 	0.0175594
2 	-0.787284 	1.07235e-17 	0.0228771
2 	-0.765275 	9.83199e-18 	0.0225899
2 	-0.731263 	8.66268e-18 	0.0203488
2 	-0.696767 	6.96501e-18 	0.0159074
2 	-0.663997 	-4.39948e-19 	0.00906072
2 	-0.646405 	-5.76388e-18 	0.0123654
2 	-0.62641 	-6.61469e-18 	0.00291809
2 	-0.590594 	-6.53353e-18 	-0.00949406
2 	-0.554381 	-4.64056e-18 	-0.0248439
2 	-0.517797 	-4.75353e-18 	-0.0429382
2 	-0.480864 	4.89868e-18 	-0.0634024
2 	-0.457793 	6.57475e-18 	-0.0857263
2 	-0.439086 	1.2275e-18 	-0.0913257
2 	-0.406049 	1.79659e-19 	-0.116792
2 	-0.368216 	1.57118e-19 	-0.143813
2 	-0.330134 	-1.56969e-18 	-0.171771
2 	-0.291827 	-6.45776e-18 	-0.197809
2 	-0.253321 	-5.51023e-18 	-0.223216
2 	-0.214642 	-1.64319e-18 	-0.247801
2 	-0.175817 	1.05165e-19 	-0.271255
2 	-0.136871 	-5.86055e-19 	-0.293329
2 	-0.0978321 	-5.44367e-18 	-0.313841
2 	-0.0587261 	-4.76141e-18 	-0.33266
2 	-0.0195798 	-3.42279e-18 	-0.349673
2 	0.0195798 	-3.02637e-18 	-0.364756
2 	0.0587261 	7.03471e-18 	-0.37781
2 	0.0978321 	6.81235e-18 	-0.388773
2 	0.136871 	1.64286e-18 	-0.397616
2 	0.175817 	4.61545e-18 	-0.404342
2 	0.214642 	4.60181e-18 	-0.408981
2 	0.253321 	3.33686e-18 	-0.411594
2 	0.291827 	1.17411e-18 	-0.412263
2 	0.330134 	-1.73472e-18 	-0.411101
2 	0.368216 	-3.46945e-18 	-0.408245
2 	0.406049 	-3.1225e-18 	-0.403853
2 	0.439086 	3.46945e-19 	-0.398098
2 	0.457793 	-1.44984e-18 	-0.348904
2 	0.480864 	-3.93711e-18 	-0.343333
2 	0.517797 	1.16066e-17 	-0.337073
2 	0.554381 	1.17099e-17 	-0.330276
2 	0.590594 	1.11022e-17 	-0.323088
2 	0.62641 	1.14492e-17 	-0.315646
2 	0.646405 	9.19489e-18 	-0.308076
2 	0.663997 	-7.71325e-18 	-0.269894
2 	0.696767 	6.95076e-18 	-0.264474
2 	0.731263 	1.05141e-17 	-0.25915
2 	0.765275 	9.36751e-18 	-0.253966
2 	0.787284 	9.11309e-18 	-0.248955
2 	0.803909 	1.71855e-18 	-0.218988
2 	0.831768 	-6.25262e-18 	-0.215973
2 	0.864208 	-4.26807e-18 	-0.213128
2 	0.894961 	-3.1225e-18 	-0.210448
2 	0.910757 	-5.51072e-18 	-0.185274
2 	0.927383 	-1.50798e-18 	-0.184063
2 	0.958082 	3.37754e-18 	-0.182882
2 	0.988166 	2.42861e-18 	-0.182203
2 	1.00602 	5.84633e-19 	-0.182106
2 	1.02058 	-2.33141e-19 	-0.161542
2 	1.04642 	1.09242e-17 	-0.159576
2 	1.08332 	1.52656e-17 	-0.15263
2 	1.12947 	1.97758e-17 	-0.143387
2 	1.17729 	2.1834e-17 	-0.134663
2 	1.22684 	-1.38778e-18 	-0.126362
2 	1.27818 	-1.38778e-18 	-0.118436
2 	1.33138 	-9.02056e-18 	-0.110887
2 	1.38651 	-1.14492e-17 	-0.103701
2 	1.44363 	-1.249e-17 	-0.0968659
2 	1.50281 	-1.21431e-17 	-0.0903676
2 	1.56414 	-1.04083e-17 	-0.0841919
2 	1.62769 	-7.28584e-18 	-0.0783237
2 	1.69353 	-4.16334e-18 	-0.072748
2 	1.76176 	-6.245e-18 	-0.0674498
2 	1.83246 	-1.14492e-17 	-0.0624144
2 	1.90572 	-1.2837e-17 	-0.057628
2 	1.98162 	-1.00614e-17 	-0.0530773
2 	2.06028 	-6.245e-18 	-0.0487499
2 	2.14178 	-6.245e-18 	-0.0446343
2 	2.22623 	-7.28584e-18 	-0.04072
2 	2.31373 	-6.59195e-18 	-0.0369972
2 	2.4044 	-8.32667e-18 	-0.0334574
2 	2.49835 	-7.28584e-18 	-0.0300931
2 	2.59571 	-8.32667e-18 	-0.0268977
2 	2.69658 	-1.11022e-17 	-0.0238659
2 	2.80111 	-1.42247e-17 	-0.0209931
2 	2.90941 	-1.59595e-17 	-0.018276
2 	3.02164 	-1.76942e-17 	-0.0157123
2 	3.13793 	-2.08167e-17 	-0.0133008
2 	3.25842 	-1.9082e-17 	-0.0110409
2 	3.38328 	-1.83881e-17 	-0.00893357
2 	3.51265 	-2.39392e-17 	-0.00698034
2 	3.6467 	-2.81025e-17 	-0.00518406
2 	3.78561 	-2.91434e-17 	-0.00354865
2 	3.92954 	-3.05311e-17 	-0.00207936
2 	4.07868 	-3.33067e-17 	-0.000782774
2 	4.23322 	-3.747e-17 	0.000332787
2 	4.39335 	-3.747e-17 	0.00125697
2 	4.55927 	-3.46945e-17 	0.00197739
2 	4.7312 	-3.33067e-17 	0.00247805
2 	4.90934 	-3.02944e-17 	0.00274045
