/*--------------------------------*- C++ -*----------------------------------*\
  =========                 |
  \\      /  F ield         | OpenFOAM: The Open Source CFD Toolbox
   \\    /   O peration     | Website:  https://openfoam.org
    \\  /    A nd           | Version:  7
     \\/     M anipulation  |
\*---------------------------------------------------------------------------*/
FoamFile
{
    version     2.0;
    format      ascii;
    class       volScalarField;
    location    "7.5";
    object      p;
}
// * * * * * * * * * * * * * * * * * * * * * * * * * * * * * * * * * * * * * //

dimensions      [1 -1 -2 0 0 0 0];

internalField   nonuniform List<scalar> 
4032
(
1
1
1
1
1
1
1
1
1
1
1
1.33172
7.59649
10.6074
10.7398
10.9484
11.1339
11.3112
11.4741
11.6205
11.7506
11.8557
11.9362
11.9954
1
1
1
1
1
1
1
1
1
1
1
1.29269
7.43269
10.5737
10.7274
10.93
11.1117
11.2842
11.4419
11.5814
11.7036
11.8008
11.8723
11.9284
1
1
1
1
1
1
1
1
1
1
1
1.1891
7.13225
10.5451
10.6861
10.8871
11.0689
11.2397
11.3945
11.529
11.6435
11.7317
11.7892
11.8366
1
1
1
1
1
1
1
1
1
1
1
1.01681
6.63248
10.4944
10.6334
10.8206
10.9921
11.1508
11.2961
11.4241
11.5349
11.619
11.6672
11.704
1
1
1
1
1
1
1
1
1
1
1
1.0002
5.95961
10.3167
10.4992
10.6838
10.8591
11.0162
11.1555
11.27
11.359
11.4243
11.4577
11.5057
1
1
1
1
1
1
1
1
1
1
1
0.999999
5.11496
10.0858
10.3878
10.5571
10.7243
10.8636
10.9821
11.0794
11.1567
11.2155
11.2272
11.1867
1
1
1
1
1
1
1
1
1
1
1
1
4.14547
9.73163
10.2709
10.428
10.5726
10.6817
10.7646
10.8231
10.8427
10.8054
10.737
10.6926
1
1
1
1
1
1
1
1
1
1
1
1
3.09823
9.18289
10.1836
10.3215
10.436
10.509
10.5422
10.5449
10.4968
10.4183
10.2896
10.2746
1
1
1
1
1
1
1
1
1
1
1
1
2.01317
8.32131
10.141
10.1965
10.2873
10.3278
10.3125
10.2508
10.1042
9.83724
9.0589
7.16602
1
1
1
1
1
1
1
1
1
1
1
1
1.12835
7.18812
10.1924
10.0912
10.0872
10.0749
10.0178
9.89163
9.65123
9.17885
8.37517
6.32101
1
1
1
1
1
1
1
1
1
1
1
1
1.0016
5.57916
9.58952
9.72329
9.78657
9.76347
9.68846
9.51388
9.21594
8.65284
7.82538
5.88899
1
1
1
1
1
1
1
1
1
1
1
1
0.999976
3.70859
9.01135
9.58935
9.61736
9.5532
9.4335
9.20451
8.84595
8.27264
7.37471
5.80236
1
1
1
1
1
1
1
1
1
1
1
1
0.999994
1.97253
8.05374
9.52845
9.44072
9.33111
9.1723
8.90803
8.51325
7.9542
7.05828
5.83466
1
1
1
1
1
1
1
1
1
1
1
1
0.999999
1.09797
6.2943
9.20235
9.18939
9.09049
8.92208
8.65004
8.26069
7.69852
6.87822
5.92605
1
1
1
1
1
1
1
1
1
1
1
1
1
1.00052
3.84821
8.61191
9.03905
8.93552
8.74862
8.43989
8.05456
7.48497
6.76863
5.99126
1
1
1
1
1
1
1
1
1
1
1
1
1
0.999994
1.6287
7.64233
9.07316
8.79416
8.55638
8.24539
7.83411
7.3292
6.71712
6.05142
1
1
1
1
1
1
1
1
1
1
1
1
1
0.999999
1.03457
5.61341
8.64689
8.4571
8.2927
8.02378
7.65782
7.20857
6.67253
6.08713
1
1
1
1
1
1
1
1
1
1
1
1
1
1
0.999973
2.80929
7.907
8.34753
8.20087
7.93541
7.57804
7.14209
6.64166
6.116
1
1
1
1
1
1
1
1
1
1
1
1
1
1
0.999989
1.22947
6.0838
8.30008
8.11687
7.83145
7.47615
7.06601
6.61092
6.14028
1
1
1
1
1
1
1
1
1
1
1
1
1
1
0.999998
1.00406
3.24257
7.60606
7.99271
7.70395
7.37868
7.00016
6.5917
6.16743
1
1
1
1
1
1
1
1
1
1
1
1
1
1
1
1
1.34281
5.99216
7.96223
7.63378
7.32505
6.96223
6.58941
6.19168
1
1
1
1
1
1
1
1
1
1
1
1
1
1
1
1
1.00942
3.13124
7.23068
7.52742
7.23491
6.90995
6.57774
6.19888
1
1
1
1
1
1
1
1
1
1
1
1
1
1
1
1
1.00003
1.3139
5.46713
7.54023
7.22561
6.93503
6.59885
6.21238
1
1
1
1
1
1
1
1
1
1
1
1
1
1
1
1
1
1.00826
2.52207
6.51503
7.21153
6.92256
6.54632
6.23618
1
1
1
1
1
1
1
1
1
1
1
1
1
1
1
1
1
1.00004
1.1683
4.41886
7.17853
6.88105
6.53609
6.60109
1
1
1
1
1
1
1
1
1
1
1
1
1
1
1
1
1
1
1.00293
1.84814
5.88555
6.68605
6.98902
7.84281
1
1
1
1
1
1
1
1
1
1
1
1
1
1
1
1
1
1
1.00001
1.05533
3.14957
6.02854
8.65047
9.39171
1
1
1
1
1
1
1
1
1
1
1
1
1
1
1
1
1
1
1
1.00068
1.31174
5.47711
10.3655
10.2038
1
1
1
1
1
1
1
1
1
1
1
1
1
1
1
1
1
1
1
1
1.00951
4.98429
11.119
10.6395
1
1
1
1
1
1
1
1
1
1
1
1
1
1
1
1
1
1
1
1
1.00006
4.72588
10.7155
10.3738
1
1
1
1
1
1
1
1
1
1
1
1
1
1
1
1
1
1
1
1
1
4.50874
10.2084
10.3096
1
1
1
1
1
1
1
1
1
1
1
1
1
1
1
1
1
1
1
1
1
4.02929
9.77037
10.2134
1
1
1
1
1
1
1
1
1
1
1
1
1
1
1
1
1
1
1
1
1
3.52147
9.52424
10.2257
1
1
1
1
1
1
1
1
1
1
1
1
1
1
1
1
1
1
1
1
1
3.01557
9.27392
10.269
1
1
1
1
1
1
1
1
1
1
1
1
1
1
1
1
1
1
1
1
1
2.5794
9.04103
10.3365
1
1
1
1
1
1
1
1
1
1
1
1
1
1
1
1
1
1
1
1
1
2.2392
8.81816
10.3874
1
1
1
1
1
1
1
1
1
1
1
1
1
1
1
1
1
1
1
1
1
2.00825
8.62448
10.419
1
1
1
1
1
1
1
1
1
1
1
1
1
1
1
1
1
1
1
1
1
1.86589
8.47329
10.4253
1
1
1
1
1
1
1
1
1
1
1
1
1
1
1
1
1
1
1
1
1
1.77133
8.36575
10.4291
1
1
1
1
1
1
1
1
1
1
1
1
1
1
1
1
1
1
1
1
1
1.73136
8.29914
10.4129
1.55858
0.464897
0.204098
0.153193
0.166558
0.227862
0.365197
0.520331
0.665413
0.766814
0.850697
0.943756
1.09339
1.23989
1.26419
1.26955
1.24149
1.42542
3.99422
5.28473
5.41059
5.44246
5.50567
5.57954
5.64849
5.66341
5.62648
5.57689
5.54451
5.53788
5.53737
5.52895
5.51342
5.48871
5.43859
5.35803
5.27505
5.2121
5.17971
5.17618
5.17428
5.12815
5.04268
4.95297
4.87682
4.82481
4.79427
4.76628
4.71838
4.65203
4.58308
4.51848
4.46007
4.40533
4.34689
4.28043
4.21005
4.14238
4.08274
4.03021
3.96889
3.90199
3.83445
3.76667
3.70438
3.6476
3.60167
3.55819
3.50463
3.44897
3.38844
3.32418
3.26402
3.21003
3.15897
3.10918
3.0598
3.0094
2.95527
2.895
2.83529
2.7906
2.75475
2.71938
2.68288
2.64283
2.59504
2.53668
2.47629
2.43691
2.41794
2.44538
2.5858
3.04968
3.82969
4.46106
2.76855
1.39747
0.938591
0.705838
0.53922
0.482754
0.506561
0.522885
0.5266
0.558387
0.61601
0.688909
0.794836
0.955484
1.033
1.09589
1.1099
1.22462
3.70462
5.36466
5.49988
5.53325
5.58219
5.60917
5.62543
5.62472
5.6116
5.59088
5.56711
5.53762
5.50253
5.46843
5.44609
5.43888
5.42897
5.38056
5.2977
5.21573
5.15549
5.12497
5.118
5.10093
5.04394
4.96052
4.87773
4.80919
4.76393
4.73924
4.71034
4.65178
4.57796
4.50657
4.44103
4.38297
4.33158
4.27833
4.21828
4.15408
4.08729
4.01623
3.94756
3.8831
3.82437
3.76769
3.71174
3.65949
3.6122
3.55873
3.501
3.44033
3.37701
3.3143
3.25781
3.2064
3.15697
3.10843
3.0604
3.01202
2.96083
2.90323
2.84014
2.78704
2.74952
2.71609
2.6816
2.64377
2.60077
2.55195
2.49223
2.4493
2.44773
2.52954
2.75706
3.14708
3.64356
4.29064
3.65851
2.35681
1.64049
1.2787
1.01318
0.79197
0.680499
0.647171
0.620966
0.606725
0.623018
0.664225
0.679192
0.716643
0.824837
0.917498
0.992832
1.08859
3.15518
5.6188
5.66385
5.54643
5.60881
5.65458
5.64315
5.60992
5.59185
5.59739
5.61388
5.61302
5.5694
5.50556
5.44592
5.40534
5.38536
5.37015
5.33621
5.27666
5.20848
5.14802
5.10105
5.06507
5.02512
4.97229
4.90613
4.8364
4.7752
4.73106
4.69952
4.65694
4.59473
4.52578
4.45306
4.38421
4.32221
4.26453
4.21338
4.16719
4.10979
4.04049
3.96152
3.87691
3.80621
3.75022
3.70061
3.66004
3.62033
3.56863
3.51179
3.4463
3.37193
3.30041
3.24321
3.19373
3.14615
3.09859
3.05115
3.00498
2.95931
2.91079
2.85523
2.7946
2.73827
2.69392
2.65912
2.62427
2.59117
2.56164
2.52823
2.5151
2.56224
2.74931
3.01129
3.20061
3.42594
4.00295
4.25673
3.14432
2.3699
1.86309
1.54619
1.27636
1.00577
0.903611
0.883385
0.844234
0.788818
0.726254
0.675581
0.672758
0.703568
0.759624
0.882419
0.983277
1.99209
5.33793
5.95182
5.7256
5.67504
5.69619
5.67828
5.61749
5.58345
5.57071
5.57681
5.58864
5.56732
5.51967
5.46189
5.40491
5.35762
5.31996
5.29455
5.26616
5.21975
5.16354
5.10454
5.04647
4.991
4.94033
4.88971
4.83371
4.77701
4.72662
4.68358
4.63065
4.57112
4.50789
4.44178
4.37704
4.31377
4.25403
4.20106
4.14871
4.08992
4.02843
3.96049
3.88082
3.8003
3.73895
3.68993
3.64704
3.60242
3.55392
3.50277
3.44321
3.37113
3.29681
3.23783
3.19073
3.14633
3.10048
3.05076
2.99821
2.94696
2.89971
2.85375
2.80445
2.75202
2.69943
2.65134
2.60475
2.57211
2.55706
2.56789
2.62281
2.79311
3.04957
3.22168
3.26079
3.33611
3.66992
4.67182
3.736
2.98198
2.39707
2.02313
1.76387
1.4972
1.21124
1.0627
1.02472
0.979836
0.91054
0.81368
0.725698
0.729752
0.762869
0.856592
1.09166
1.3943
3.3415
5.59694
5.98986
5.84701
5.73214
5.68909
5.64633
5.61014
5.58442
5.56794
5.56369
5.56398
5.53458
5.48855
5.42505
5.36344
5.31357
5.27528
5.25651
5.22934
5.17722
5.1149
5.05063
4.9898
4.93391
4.88352
4.83038
4.77657
4.72843
4.68039
4.62591
4.56946
4.50597
4.43216
4.35978
4.30296
4.25297
4.20104
4.14368
4.08332
4.0208
3.95385
3.87759
3.79881
3.7383
3.68969
3.6423
3.59429
3.54541
3.49366
3.43466
3.3642
3.28759
3.22386
3.17728
3.1378
3.0987
3.05613
3.00731
2.95054
2.89052
2.83447
2.78708
2.74269
2.70128
2.65756
2.61591
2.58652
2.59407
2.65253
2.80404
3.09514
3.27915
3.32183
3.29364
3.29164
3.44357
4.99486
4.18081
3.52235
2.91929
2.40986
2.127
1.91286
1.67077
1.40022
1.19832
1.15581
1.12155
1.04306
0.943538
0.929996
1.00044
1.15416
1.44429
1.52189
1.8254
3.70581
5.60623
5.94533
5.83162
5.74853
5.69707
5.65205
5.60702
5.5694
5.53824
5.54169
5.5397
5.49733
5.43666
5.36122
5.30472
5.25942
5.2363
5.21927
5.17048
5.11049
5.0407
4.97816
4.92376
4.87321
4.82044
4.76597
4.71066
4.65663
4.60603
4.55478
4.49563
4.42231
4.34712
4.28714
4.23398
4.17997
4.12434
4.06721
4.00727
3.94138
3.86708
3.79301
3.73062
3.6758
3.62355
3.57377
3.52593
3.47738
3.42422
3.36113
3.28751
3.21649
3.16173
3.11964
3.08234
3.04493
3.00345
2.95445
2.89326
2.82796
2.77003
2.72358
2.68565
2.65098
2.63146
2.6408
2.70442
2.8604
3.12308
3.38162
3.40468
3.37156
3.32158
3.28273
3.32627
5.22438
4.49018
3.88339
3.36362
2.86381
2.43824
2.17001
1.99168
1.78107
1.54174
1.332
1.24498
1.22381
1.20438
1.25868
1.47236
1.64569
1.80685
1.80995
1.80566
2.08641
3.6958
5.49103
5.8694
5.82381
5.78391
5.71003
5.64431
5.58239
5.53367
5.51669
5.5308
5.50172
5.44595
5.36831
5.3007
5.25242
5.22288
5.21035
5.16641
5.10844
5.03532
4.96567
4.91205
4.8641
4.81664
4.76262
4.70211
4.64011
4.58394
4.53059
4.47399
4.41028
4.34315
4.27911
4.21918
4.16156
4.10468
4.04734
3.98756
3.92272
3.85338
3.78651
3.72544
3.66724
3.60977
3.55435
3.50258
3.45367
3.40426
3.34924
3.28474
3.21477
3.15318
3.10539
3.06668
3.02912
2.9903
2.944
2.88738
2.82158
2.75701
2.71037
2.67379
2.65708
2.67218
2.73824
2.92295
3.15809
3.41311
3.51934
3.49545
3.43178
3.35994
3.30689
3.27532
5.3952
4.74263
4.16053
3.67218
3.22296
2.81066
2.46833
2.19498
2.01805
1.83345
1.62386
1.48861
1.53798
1.61394
1.78755
2.03587
2.12347
2.09124
2.08029
2.03846
2.03486
2.25815
3.60887
5.24667
5.75213
5.88208
5.8243
5.70165
5.599
5.53114
5.49723
5.50631
5.49911
5.44771
5.37368
5.29153
5.24097
5.20608
5.19457
5.15608
5.09964
5.02333
4.94267
4.88778
4.84256
4.80175
4.75166
4.69275
4.6239
4.55653
4.49954
4.44694
4.39249
4.33259
4.2676
4.20273
4.14158
4.08321
4.02505
3.96402
3.89852
3.83191
3.76998
3.7127
3.65622
3.59763
3.53762
3.48003
3.42775
3.37913
3.32946
3.27366
3.21029
3.14653
3.09321
3.04972
3.01196
2.97287
2.92904
2.87647
2.81246
2.74939
2.70288
2.68453
2.70341
2.77393
2.97167
3.22467
3.42076
3.56354
3.57971
3.54693
3.48579
3.41073
3.33536
3.27939
5.51081
4.93235
4.38715
3.92711
3.48976
3.09944
2.76818
2.4629
2.2224
2.06917
1.94002
1.96178
2.15646
2.28472
2.37992
2.42341
2.40854
2.33634
2.31841
2.32687
2.27607
2.24413
2.39539
3.44423
4.99224
5.6974
5.89179
5.78523
5.63941
5.52418
5.47938
5.47715
5.49034
5.44727
5.38207
5.28856
5.22718
5.18828
5.17178
5.13978
5.08609
5.01114
4.91869
4.85818
4.81424
4.77931
4.73556
4.68196
4.61311
4.53539
4.47265
4.42126
4.36988
4.31353
4.25055
4.18462
4.12147
4.0618
4.00244
3.93991
3.8734
3.80764
3.74804
3.6936
3.64021
3.58411
3.52403
3.46248
3.40468
3.353
3.30428
3.25377
3.19803
3.13966
3.08447
3.03636
2.99355
2.95163
2.9073
2.85765
2.79897
2.74867
2.72363
2.74376
2.83051
3.02965
3.33607
3.49903
3.57219
3.58875
3.58312
3.54916
3.50623
3.45564
3.3881
3.31112
5.59426
5.08719
4.57199
4.13321
3.74583
3.34455
2.97181
2.70604
2.52235
2.48079
2.47978
2.66767
2.9035
2.93562
2.85944
2.73705
2.67896
2.60865
2.59133
2.60833
2.5789
2.47003
2.39717
2.5002
3.3155
4.74147
5.60131
5.81068
5.71521
5.55168
5.46263
5.44432
5.46784
5.44377
5.38805
5.29806
5.21127
5.16677
5.13928
5.11256
5.06336
4.99689
4.90143
4.82586
4.78013
4.74597
4.70761
4.66009
4.59993
4.52393
4.45205
4.39318
4.33862
4.28235
4.22198
4.15937
4.09838
4.03911
3.97864
3.91411
3.84569
3.77925
3.72034
3.66764
3.61736
3.56596
3.51064
3.4504
3.38812
3.32885
3.27468
3.22421
3.17537
3.12645
3.07838
3.02995
2.98191
2.93194
2.88178
2.83218
2.78825
2.76927
2.79312
2.90947
3.12481
3.44584
3.65766
3.66589
3.61559
3.57571
3.55602
3.53942
3.51664
3.48788
3.45151
3.36865
5.66128
5.20671
4.73843
4.28869
3.9178
3.57026
3.25539
3.02222
3.10377
3.21593
3.22579
3.36258
3.40425
3.3336
3.1935
3.02283
2.97851
2.90953
2.85228
2.84441
2.81792
2.7332
2.6036
2.55275
2.61826
3.18951
4.44415
5.4217
5.69451
5.60293
5.47652
5.42136
5.43048
5.43333
5.38756
5.31529
5.20817
5.14279
5.10322
5.07378
5.03062
4.97621
4.89597
4.80562
4.75057
4.71171
4.67122
4.62664
4.57531
4.51076
4.43794
4.36871
4.30547
4.24507
4.18573
4.12805
4.07189
4.01469
3.95369
3.88724
3.81715
3.75048
3.69198
3.63959
3.59029
3.54161
3.49095
3.43554
3.37483
3.31191
3.2509
3.19531
3.14694
3.10351
3.0625
3.01888
2.97234
2.91901
2.86355
2.81809
2.8074
2.83457
2.97583
3.23873
3.51949
3.75758
3.77607
3.74283
3.65405
3.57931
3.54485
3.52519
3.52468
3.51267
3.48854
3.42579
5.72624
5.30032
4.86666
4.43922
4.07929
3.84092
3.72671
3.74914
4.0443
4.08347
3.91761
3.84983
3.75731
3.65174
3.52149
3.34585
3.28578
3.23842
3.12259
3.06722
3.04078
2.97722
2.87163
2.7538
2.70028
2.74095
3.09561
4.11122
5.13631
5.49432
5.48673
5.42346
5.39896
5.41398
5.37702
5.32094
5.22189
5.12296
5.07008
5.02842
4.98936
4.94225
4.8814
4.80177
4.73374
4.68082
4.63185
4.58451
4.5351
4.47881
4.4137
4.34345
4.2732
4.20677
4.14708
4.09371
4.04185
3.9865
3.9245
3.85527
3.78394
3.71962
3.66404
3.61246
3.56148
3.51036
3.45952
3.40819
3.355
3.29879
3.23953
3.17847
3.11912
3.06896
3.02929
2.99445
2.95484
2.91566
2.87155
2.85175
2.8841
3.02539
3.32859
3.56454
3.75671
3.84313
3.82692
3.78394
3.71322
3.62276
3.55749
3.52684
3.51256
3.51358
3.50368
3.45407
5.77785
5.37312
4.9714
4.62329
4.39437
4.51049
4.5868
4.65637
4.77983
4.66368
4.38411
4.18018
4.05055
3.97526
3.87597
3.69719
3.55565
3.5111
3.40638
3.31089
3.26706
3.19638
3.0981
2.98715
2.89417
2.82766
2.84312
3.02487
3.7526
4.75639
5.3021
5.36333
5.39277
5.39846
5.36548
5.30616
5.22449
5.11412
5.04047
4.99151
4.94871
4.90129
4.84964
4.78994
4.72509
4.66192
4.60168
4.54338
4.48673
4.43021
4.37124
4.3076
4.23914
4.17074
4.11077
4.05967
4.01016
3.95605
3.89285
3.81935
3.74506
3.68437
3.63507
3.58819
3.53809
3.48263
3.42472
3.37053
3.32238
3.27611
3.2276
3.17267
3.1068
3.03932
2.99261
2.96055
2.93455
2.92318
2.93541
2.99795
3.16056
3.46389
3.68524
3.77472
3.83231
3.84988
3.83524
3.79877
3.75474
3.69091
3.60795
3.54732
3.51691
3.50005
3.50534
3.46931
5.81092
5.43983
5.14263
5.06299
5.24981
5.57568
5.47269
5.34792
5.25631
5.04754
4.76729
4.51332
4.36577
4.29123
4.20294
4.04378
3.83423
3.74134
3.67471
3.5685
3.50267
3.42124
3.31262
3.19646
3.11075
3.02655
2.92803
2.94432
3.01682
3.45243
4.35913
5.02382
5.23435
5.3694
5.36359
5.29826
5.20368
5.09263
5.01342
4.96451
4.91807
4.86532
4.80988
4.7547
4.70026
4.6448
4.58288
4.51211
4.43999
4.37566
4.31807
4.26095
4.19959
4.1344
4.0735
4.02171
3.97353
3.92201
3.86045
3.78362
3.70177
3.64091
3.59872
3.5603
3.51786
3.46531
3.3994
3.32885
3.27344
3.2339
3.19807
3.15889
3.10719
3.03621
2.96287
2.92703
2.92494
2.96433
3.09736
3.32268
3.61752
3.88776
3.92796
3.88647
3.84306
3.81873
3.81015
3.79298
3.7655
3.72656
3.66903
3.59848
3.54791
3.51964
3.50859
3.47933
5.87727
5.65749
5.80772
6.07886
6.37355
6.34446
5.99179
5.73699
5.56637
5.3816
5.14101
4.86705
4.68647
4.59786
4.50517
4.35901
4.14505
3.97309
3.91648
3.82186
3.72787
3.63477
3.51463
3.40163
3.29237
3.21716
3.12362
3.01999
2.96936
2.98963
3.23474
3.94679
4.6873
5.09845
5.30586
5.28547
5.17311
5.05597
4.9853
4.942
4.89928
4.83861
4.76482
4.70354
4.65681
4.61156
4.55632
4.48311
4.39715
4.32268
4.26553
4.21347
4.15854
4.09628
4.03032
3.97274
3.92432
3.87716
3.82277
3.75165
3.66456
3.59469
3.55393
3.52197
3.48865
3.44695
3.38583
3.30096
3.22771
3.1865
3.1572
3.12837
3.09368
3.04106
2.96431
2.94427
2.98222
3.14385
3.43526
3.70176
3.97216
4.04143
4.01868
3.95215
3.86441
3.81665
3.79016
3.77784
3.76722
3.74189
3.70654
3.65926
3.60112
3.55408
3.52925
3.48936
6.11583
6.44972
6.96721
7.09988
7.07959
6.79187
6.35785
6.04669
5.86818
5.71231
5.48653
5.20159
4.99446
4.88705
4.79489
4.65624
4.45605
4.23086
4.12862
4.0634
3.95665
3.84649
3.707
3.58321
3.48569
3.38895
3.30994
3.20684
3.09084
3.00347
2.98696
3.09161
3.56744
4.29785
4.93385
5.11319
5.08113
5.02356
4.97721
4.93864
4.88621
4.81565
4.71229
4.64047
4.60007
4.55833
4.50844
4.44273
4.35613
4.27709
4.22307
4.17588
4.1254
4.06409
3.98909
3.91866
3.86703
3.82316
3.77683
3.71913
3.64035
3.5564
3.50444
3.47306
3.44415
3.41187
3.36582
3.28859
3.19429
3.13601
3.10644
3.082
3.06231
3.0471
3.03495
3.08243
3.24607
3.56402
3.7886
3.95067
4.06747
4.07603
4.04621
3.9954
3.92845
3.85541
3.80749
3.78172
3.76692
3.75188
3.72666
3.69528
3.65415
3.59492
3.55149
3.50224
7.16747
7.80128
7.90094
7.65654
7.4094
7.06911
6.6794
6.37788
6.19956
6.03943
5.81226
5.52831
5.30795
5.1763
5.07182
4.93735
4.74199
4.50106
4.35111
4.28363
4.18948
4.06802
3.9182
3.74974
3.64543
3.55488
3.46422
3.37882
3.27346
3.14652
3.02269
2.99737
3.02808
3.28648
3.91426
4.59546
4.83426
4.89876
4.95636
4.93791
4.87232
4.78308
4.66927
4.58133
4.53656
4.49441
4.44761
4.38967
4.30548
4.22754
4.17648
4.13131
4.08374
4.02589
3.9493
3.86534
3.80457
3.76027
3.71841
3.67318
3.6142
3.53524
3.46384
3.42129
3.38962
3.36127
3.32741
3.27356
3.1878
3.09764
3.06025
3.04562
3.05295
3.1008
3.22344
3.44173
3.77021
3.99942
4.03436
4.0618
4.06574
4.06481
4.04014
4.00872
3.97242
3.91801
3.84835
3.79981
3.77424
3.75639
3.73768
3.71166
3.67992
3.63158
3.57672
3.5146
8.62588
8.75722
8.32393
7.94874
7.6494
7.33994
6.99304
6.70906
6.5199
6.34254
6.1198
5.8408
5.61808
5.46047
5.32281
5.18963
5.00497
4.7664
4.58467
4.48916
4.4042
4.27879
4.12856
3.94583
3.78585
3.70027
3.61745
3.53068
3.43925
3.32673
3.17905
3.03129
2.96968
2.98829
3.11367
3.55135
4.15898
4.57318
4.78057
4.83895
4.81449
4.73474
4.65182
4.56661
4.50619
4.45188
4.39363
4.3286
4.25551
4.20659
4.15791
4.10953
4.06052
4.00305
3.92795
3.83953
3.76711
3.72384
3.68664
3.64304
3.58772
3.51105
3.43715
3.39468
3.36914
3.33791
3.29703
3.241
3.16778
3.09273
3.05384
3.05832
3.11464
3.30783
3.59521
3.89868
4.16943
4.20211
4.17204
4.11016
4.0668
4.04462
4.03207
4.01438
3.99069
3.95725
3.89562
3.82423
3.78643
3.76353
3.74641
3.72573
3.69914
3.6636
3.61355
3.53584
9.52817
9.1197
8.55385
8.16885
7.91948
7.65537
7.31977
7.03496
6.8391
6.65226
6.42942
6.14395
5.91542
5.74814
5.56944
5.42162
5.2551
5.0303
4.81998
4.69477
4.59569
4.47539
4.32156
4.14333
3.96351
3.83742
3.75718
3.67321
3.58088
3.47562
3.34098
3.1807
3.03957
2.97114
2.96159
3.00739
3.2611
3.74229
4.29178
4.53721
4.63435
4.68164
4.6645
4.58674
4.48118
4.36623
4.27637
4.22465
4.18559
4.13546
4.07982
4.0242
3.96783
3.90813
3.84068
3.7663
3.69954
3.64259
3.5948
3.55107
3.50886
3.47428
3.42628
3.36393
3.29692
3.24261
3.19177
3.16189
3.14616
3.11623
3.11499
3.19223
3.4214
3.75618
3.97739
4.18418
4.26605
4.25818
4.22693
4.14938
4.08255
4.05562
4.03932
4.02864
4.00597
3.97485
3.9237
3.8504
3.79667
3.76824
3.74847
3.7361
3.71594
3.68787
3.64612
3.56158
9.81026
9.30594
8.80491
8.45113
8.23649
7.98415
7.63125
7.3217
7.12333
6.94014
6.71356
6.42291
6.17971
6.01906
5.82442
5.64041
5.48208
5.27881
5.05067
4.88503
4.76331
4.64566
4.50866
4.34152
4.15634
3.99329
3.87079
3.77821
3.68926
3.59546
3.4888
3.35275
3.20056
3.06734
2.97153
2.95437
2.95401
3.05022
3.38816
3.90356
4.23714
4.48053
4.57842
4.55797
4.47256
4.33748
4.22582
4.17963
4.13685
4.08513
4.03102
3.96932
3.89932
3.83096
3.77262
3.72234
3.66622
3.59394
3.52805
3.48878
3.45734
3.42202
3.38313
3.32764
3.25343
3.18048
3.13621
3.12836
3.13163
3.1823
3.3301
3.61182
3.96887
4.11223
4.19464
4.27379
4.30176
4.28426
4.24674
4.18188
4.10667
4.07393
4.05758
4.04369
4.01777
3.98471
3.94633
3.8903
3.82657
3.79349
3.77421
3.75719
3.73725
3.70731
3.66962
3.59052
10.0855
9.52437
9.01464
8.68211
8.51482
8.27062
7.92065
7.62274
7.4259
7.23422
6.98337
6.67672
6.42179
6.25871
6.08274
5.86854
5.68211
5.49103
5.27106
5.07489
4.92895
4.80014
4.6679
4.51237
4.34369
4.16915
4.02366
3.91045
3.81643
3.72126
3.60938
3.47446
3.34457
3.23836
3.13445
3.03689
2.94388
2.88757
2.92279
3.11768
3.52001
3.94256
4.3068
4.41819
4.40301
4.30143
4.19632
4.13381
4.08316
4.03437
3.97568
3.8979
3.81852
3.7664
3.72587
3.6824
3.62571
3.54663
3.47541
3.43906
3.40849
3.37305
3.32875
3.27236
3.20625
3.13371
3.12233
3.13639
3.24006
3.50049
3.81425
4.157
4.2994
4.29169
4.29684
4.30494
4.31187
4.29993
4.26674
4.21883
4.15252
4.08729
4.05
4.03255
4.02874
4.01291
3.98476
3.94453
3.88754
3.82223
3.7669
3.73558
3.71717
3.70403
3.68972
3.63244
9.90945
9.52755
9.21007
8.97952
8.83529
8.5589
8.17121
7.85707
7.68911
7.51425
7.24633
6.93574
6.69717
6.53416
6.36919
6.15787
5.92359
5.7208
5.49643
5.28059
5.09131
4.92944
4.80972
4.69789
4.54534
4.35422
4.18051
4.0327
3.89107
3.76237
3.66494
3.58509
3.47579
3.32887
3.19255
3.08667
2.99143
2.90663
2.85922
2.83879
2.92447
3.21174
3.66158
4.1168
4.24539
4.2064
4.14138
4.07471
4.02215
3.97314
3.90906
3.81528
3.73969
3.70361
3.67294
3.63392
3.58526
3.51525
3.43046
3.38431
3.35054
3.31183
3.26826
3.22622
3.18325
3.13881
3.15885
3.30244
3.64091
3.96937
4.22984
4.40171
4.41841
4.39617
4.34138
4.3021
4.28215
4.27063
4.25542
4.23246
4.19446
4.13366
4.07813
4.043
4.01951
4.00154
3.98281
3.95834
3.92141
3.86116
3.7979
3.75577
3.72671
3.69863
3.67615
3.62986
9.99501
9.75241
9.50284
9.26513
9.02643
8.7201
8.39244
8.11925
7.94215
7.75675
7.46385
7.13144
6.88177
6.70995
6.53597
6.33045
6.08156
5.84247
5.6781
5.51347
5.33923
5.16694
4.97715
4.77701
4.60979
4.48501
4.34709
4.19843
4.05514
3.9176
3.77601
3.64288
3.53717
3.4348
3.30937
3.1823
3.07543
2.99709
2.90065
2.82879
2.76461
2.78452
2.95897
3.35325
3.79351
4.00576
4.03681
4.04522
4.01128
3.94836
3.86145
3.74731
3.65947
3.62251
3.59668
3.5703
3.52931
3.47597
3.39735
3.32159
3.27116
3.23152
3.20324
3.19538
3.1885
3.25372
3.4556
3.81295
4.14909
4.28431
4.40465
4.48255
4.47586
4.43956
4.36651
4.29173
4.25844
4.24501
4.23973
4.22886
4.20699
4.17401
4.12416
4.06888
4.02901
4.00101
3.97586
3.94855
3.91643
3.87759
3.83343
3.78697
3.74725
3.71246
3.68434
3.63433
9.97578
9.80639
9.58318
9.36726
9.12618
8.84814
8.56854
8.31502
8.1124
7.90508
7.61761
7.31176
7.08069
6.91448
6.72931
6.50901
6.24772
5.98801
5.78822
5.60968
5.44516
5.28082
5.09743
4.89272
4.699
4.52678
4.37437
4.23735
4.11382
3.99271
3.85568
3.70422
3.56202
3.4419
3.3403
3.24199
3.13978
3.03178
2.92972
2.8254
2.73724
2.67438
2.68627
2.78715
3.10279
3.52754
3.79124
3.95575
3.97703
3.9183
3.81022
3.69494
3.60467
3.55442
3.52506
3.50312
3.46858
3.42523
3.36385
3.27125
3.19938
3.16944
3.17092
3.2167
3.35742
3.6628
4.03563
4.33095
4.40683
4.45686
4.47867
4.48018
4.45458
4.42368
4.38604
4.32132
4.27194
4.25064
4.23622
4.22207
4.20223
4.17954
4.14768
4.09898
4.05004
4.01241
3.97951
3.94712
3.9158
3.88515
3.8522
3.81166
3.76878
3.7296
3.69839
3.64508
9.97775
9.83958
9.65675
9.45916
9.22256
8.96212
8.70538
8.48348
8.28309
8.04332
7.75397
7.47604
7.25411
7.08528
6.87681
6.62535
6.34541
6.11063
5.93006
5.75221
5.57598
5.39614
5.19936
4.99124
4.79677
4.62839
4.48219
4.34825
4.21555
4.07257
3.91659
3.75837
3.61919
3.50523
3.40695
3.31072
3.21009
3.09763
2.98023
2.86034
2.76608
2.68475
2.63053
2.60169
2.65462
2.89151
3.26004
3.5949
3.81234
3.82991
3.774
3.68429
3.58881
3.50798
3.45433
3.42435
3.39875
3.35818
3.30515
3.23522
3.17875
3.18171
3.21372
3.39396
3.81029
4.18385
4.44731
4.56263
4.5253
4.48169
4.44842
4.42773
4.42093
4.41651
4.39922
4.35556
4.29604
4.26069
4.23982
4.22096
4.20192
4.1804
4.15385
4.11438
4.06443
4.02134
3.9866
3.95504
3.92543
3.8966
3.8662
3.82925
3.78441
3.73797
3.70342
3.65143
10.0072
9.87099
9.67638
9.46749
9.24026
9.01973
8.81431
8.61363
8.38836
8.1237
7.84663
7.59421
7.39329
7.21491
6.97791
6.70391
6.43657
6.23006
6.05264
5.87245
5.68314
5.48157
5.2652
5.05397
4.87159
4.71599
4.57303
4.43214
4.28484
4.12583
3.96037
3.80548
3.67398
3.56155
3.45863
3.35674
3.2507
3.13662
3.01781
2.90035
2.79756
2.71213
2.6358
2.57698
2.52813
2.55235
2.68174
3.01513
3.39951
3.64133
3.70686
3.67493
3.60065
3.49974
3.39282
3.34019
3.30855
3.27489
3.24471
3.21434
3.21864
3.23945
3.46159
3.93258
4.28676
4.48395
4.62076
4.61506
4.56383
4.49008
4.44853
4.42847
4.41823
4.4101
4.38907
4.35642
4.31064
4.2719
4.24935
4.22914
4.20867
4.18547
4.15707
4.11839
4.06765
4.02204
3.98979
3.96219
3.93521
3.90762
3.87761
3.84062
3.79415
3.74439
3.71179
3.66446
10.0358
9.88673
9.70203
9.51581
9.31904
9.11982
8.91404
8.68914
8.43806
8.17979
7.93466
7.71812
7.5312
7.30907
7.03813
6.76417
6.53425
6.34636
6.15837
5.95957
5.75057
5.53012
5.31269
5.11844
4.94889
4.79454
4.64545
4.49366
4.33426
4.16892
4.00524
3.85413
3.72137
3.60376
3.49492
3.38963
3.28322
3.1724
3.05652
2.93974
2.82948
2.7349
2.6529
2.58136
2.51148
2.47537
2.44752
2.52364
2.79507
3.17763
3.43117
3.57234
3.5568
3.48594
3.37267
3.27054
3.21854
3.19329
3.20283
3.21236
3.2868
3.59333
4.10837
4.43172
4.50902
4.56101
4.61435
4.60369
4.57607
4.52944
4.47011
4.4364
4.4163
4.40215
4.38401
4.36227
4.33415
4.29441
4.26033
4.23535
4.21035
4.18383
4.15484
4.1202
4.07501
4.02993
3.99802
3.97103
3.94387
3.9157
3.88527
3.84928
3.80511
3.75918
3.72922
3.68128
10.0643
9.91113
9.72622
9.541
9.34894
9.14971
8.93767
8.70976
8.47244
8.23812
8.01614
7.81433
7.60756
7.35159
7.07966
6.83742
6.63672
6.45015
6.24334
6.02741
5.79921
5.57485
5.37191
5.19057
5.02344
4.86233
4.70195
4.53938
4.37411
4.20853
4.04851
3.89954
3.76297
3.63788
3.52216
3.4137
3.30827
3.20223
3.09099
2.97586
2.86108
2.75897
2.6721
2.59933
2.52697
2.45904
2.41683
2.35939
2.38256
2.60556
2.98172
3.33007
3.464
3.44991
3.37151
3.25508
3.16483
3.15034
3.1775
3.33572
3.72346
4.25831
4.59183
4.62971
4.58398
4.56755
4.57427
4.58032
4.56497
4.53595
4.48396
4.44222
4.42286
4.40828
4.3931
4.37146
4.34229
4.30118
4.26018
4.23281
4.21035
4.18768
4.16303
4.13223
4.08853
4.04034
4.00501
3.97731
3.95045
3.92325
3.89414
3.85956
3.81604
3.77078
3.73903
3.6871
10.0892
9.93353
9.75085
9.56796
9.37423
9.171
8.95622
8.7332
8.50866
8.29016
8.08122
7.87211
7.63098
7.36591
7.11439
6.8972
6.71598
6.51175
6.29026
6.06075
5.83226
5.62226
5.42997
5.25004
5.07625
4.90492
4.73463
4.56608
4.4003
4.23926
4.08516
3.93939
3.80132
3.6705
3.54688
3.43221
3.32456
3.2201
3.11408
3.00632
2.89636
2.78882
2.68917
2.61312
2.55297
2.4859
2.41491
2.34207
2.27603
2.29476
2.46521
2.81679
3.15527
3.34312
3.33889
3.24046
3.16565
3.18448
3.36098
3.79291
4.30526
4.65202
4.67809
4.64074
4.59779
4.57261
4.56456
4.56528
4.5528
4.52924
4.49409
4.45458
4.43148
4.41409
4.39403
4.36965
4.34015
4.30609
4.27209
4.24399
4.21972
4.19474
4.16546
4.12857
4.08448
4.04306
4.01136
3.98452
3.95832
3.93083
3.89943
3.86065
3.81377
3.76808
3.73567
3.6834
10.1017
9.9499
9.77069
9.58889
9.39513
9.19186
8.9797
8.7641
8.54843
8.33592
8.12224
7.89252
7.64051
7.38482
7.14855
6.95222
6.76155
6.54155
6.30797
6.08072
5.86762
5.66787
5.47776
5.29287
5.11057
4.93058
4.75397
4.58242
4.41728
4.26044
4.11234
3.97208
3.83699
3.70513
3.575
3.4493
3.33126
3.22225
3.1195
3.02301
2.9275
2.8304
2.73266
2.63486
2.54094
2.45615
2.38424
2.31993
2.26845
2.22188
2.22198
2.34195
2.63221
3.00787
3.19285
3.17622
3.2459
3.47683
3.91468
4.34094
4.61135
4.75727
4.73162
4.66407
4.61232
4.584
4.56949
4.55683
4.54401
4.52447
4.50137
4.47295
4.44473
4.42209
4.39972
4.37491
4.34763
4.31825
4.28726
4.25462
4.22235
4.18999
4.15581
4.12114
4.08776
4.05611
4.02538
3.99496
3.96491
3.93322
3.89729
3.85678
3.81251
3.7694
3.73705
3.68525
10.1159
9.96344
9.78302
9.6007
9.4082
9.20829
9.00162
8.791
8.57672
8.35841
8.13098
7.89243
7.65223
7.42132
7.20721
7.00477
6.7761
6.53832
6.30782
6.10223
5.90117
5.70586
5.51353
5.32142
5.13064
4.94486
4.76569
4.59336
4.4284
4.27308
4.12843
3.99336
3.86366
3.73492
3.60324
3.46922
3.33654
3.21557
3.11037
3.01734
2.93241
2.84981
2.76154
2.66111
2.55671
2.46121
2.37981
2.30929
2.2509
2.19772
2.1559
2.13981
2.22658
2.49827
2.87307
3.17319
3.5942
4.08558
4.46796
4.5993
4.65693
4.69885
4.70119
4.66352
4.63087
4.59667
4.56999
4.55416
4.54011
4.5238
4.50528
4.48259
4.4537
4.42755
4.40363
4.37877
4.35302
4.32588
4.2938
4.25514
4.21672
4.1837
4.15312
4.12308
4.09409
4.06651
4.03699
4.00294
3.96607
3.93041
3.89453
3.85722
3.81665
3.77511
3.74228
3.68982
10.1124
9.96595
9.78822
9.60802
9.41785
9.22127
9.01826
8.80903
8.59122
8.36323
8.12752
7.8929
7.66908
7.45996
7.26143
7.02764
6.77997
6.53917
6.32133
6.1225
5.93115
5.73474
5.53785
5.33857
5.14113
4.95196
4.77187
4.59894
4.43271
4.27706
4.13528
4.00643
3.88478
3.7631
3.63161
3.48374
3.32969
3.19523
3.09246
3.01154
2.94154
2.87206
2.79147
2.68232
2.54958
2.43487
2.35771
2.30579
2.25762
2.20654
2.14972
2.07226
2.03752
2.12313
2.46351
3.18738
3.92397
4.58777
5.01697
4.93591
4.75352
4.68758
4.66912
4.65066
4.62931
4.59729
4.56259
4.54844
4.53604
4.52269
4.50629
4.48785
4.46277
4.4344
4.40806
4.38248
4.35621
4.32765
4.29372
4.25264
4.21224
4.18004
4.1528
4.12767
4.10311
4.07595
4.04202
4.0024
3.96332
3.9279
3.89322
3.85844
3.8212
3.78119
3.74748
3.6936
)
;

boundaryField
{
    inlet
    {
        type            fixedValue;
        value           uniform 1;
    }
    outlet
    {
        type            zeroGradient;
    }
    bottom
    {
        type            symmetryPlane;
    }
    top
    {
        type            symmetryPlane;
    }
    obstacle
    {
        type            zeroGradient;
    }
    defaultFaces
    {
        type            empty;
    }
}


// ************************************************************************* //
