/*--------------------------------*- C++ -*----------------------------------*\
  =========                 |
  \\      /  F ield         | OpenFOAM: The Open Source CFD Toolbox
   \\    /   O peration     | Website:  https://openfoam.org
    \\  /    A nd           | Version:  7
     \\/     M anipulation  |
\*---------------------------------------------------------------------------*/
FoamFile
{
    version     2.0;
    format      ascii;
    class       volScalarField;
    location    "7.5";
    object      rho;
}
// * * * * * * * * * * * * * * * * * * * * * * * * * * * * * * * * * * * * * //

dimensions      [1 -3 0 0 0 0 0];

internalField   nonuniform List<scalar> 
4032
(
1.40001
1.40001
1.40001
1.40001
1.40001
1.40001
1.40001
1.40001
1.40001
1.40001
1.40001
1.58738
4.40526
5.46795
5.51409
5.58928
5.65634
5.7203
5.77895
5.83148
5.87795
5.9152
5.94367
5.96476
1.40001
1.40001
1.40001
1.40001
1.40001
1.40001
1.40001
1.40001
1.40001
1.40001
1.40001
1.56417
4.33529
5.45274
5.50889
5.58259
5.64829
5.71047
5.76723
5.81739
5.86113
5.89568
5.92105
5.94106
1.40001
1.40001
1.40001
1.40001
1.40001
1.40001
1.40001
1.40001
1.40001
1.40001
1.40001
1.50849
4.22623
5.44353
5.49391
5.56673
5.63235
5.69392
5.74968
5.79811
5.8393
5.87084
5.89132
5.9083
1.40001
1.40001
1.40001
1.40001
1.40001
1.40001
1.40001
1.40001
1.40001
1.40001
1.40001
1.41281
4.04669
5.43318
5.47661
5.54212
5.6036
5.66088
5.71341
5.75973
5.79985
5.83023
5.84757
5.86092
1.40001
1.40001
1.40001
1.40001
1.40001
1.40001
1.40001
1.40001
1.40001
1.40001
1.40001
1.40019
3.77073
5.37292
5.42904
5.49245
5.55485
5.61148
5.66188
5.70336
5.73584
5.76018
5.77346
5.79184
1.40001
1.40001
1.40001
1.40001
1.40001
1.40001
1.40001
1.40001
1.40001
1.40001
1.40001
1.4
3.4124
5.28924
5.38972
5.4482
5.50723
5.55662
5.59879
5.63353
5.66159
5.68493
5.69419
5.68524
1.40001
1.40001
1.40001
1.40001
1.40001
1.40001
1.40001
1.40001
1.40001
1.40001
1.40001
1.4
2.99097
5.17155
5.36044
5.41043
5.45777
5.4935
5.52075
5.5405
5.54743
5.53561
5.51724
5.50921
1.40001
1.40001
1.40001
1.40001
1.40001
1.40001
1.40001
1.40001
1.40001
1.40001
1.40001
1.4
2.51634
5.01233
5.36815
5.39303
5.42069
5.43793
5.44353
5.44102
5.42216
5.39216
5.33619
5.30671
1.40001
1.40001
1.40001
1.40001
1.40001
1.40001
1.40001
1.40001
1.40001
1.40001
1.40001
1.40001
1.99547
4.77234
5.39949
5.37646
5.38709
5.38515
5.36907
5.33926
5.27931
5.17598
4.86104
3.99832
1.40001
1.40001
1.40001
1.40001
1.40001
1.40001
1.40001
1.40001
1.40001
1.40001
1.40001
1.40001
1.50162
4.35921
5.42623
5.36783
5.34416
5.31571
5.27647
5.21654
5.11524
4.92693
4.59757
3.70483
1.40001
1.40001
1.40001
1.40001
1.40001
1.40001
1.40001
1.40001
1.40001
1.40001
1.40001
1.40001
1.40135
3.64828
5.18629
5.24171
5.25316
5.22543
5.17646
5.09211
4.96154
4.72894
4.38675
3.56336
1.40001
1.40001
1.40001
1.40001
1.40001
1.40001
1.40001
1.40001
1.40001
1.40001
1.40001
1.40001
1.39998
2.82997
4.99797
5.20055
5.19897
5.16595
5.10397
4.9959
4.83685
4.59282
4.2158
3.54707
1.40001
1.40001
1.40001
1.40001
1.40001
1.40001
1.40001
1.40001
1.40001
1.40001
1.40001
1.40001
1.4
2.00654
4.73684
5.20485
5.15634
5.09946
5.02281
4.9022
4.72758
4.48508
4.10175
3.57033
1.40001
1.40001
1.40001
1.40001
1.40001
1.40001
1.40001
1.40001
1.40001
1.40001
1.40001
1.40001
1.4
1.47953
4.0144
5.10743
5.0789
5.02596
4.94414
4.82048
4.64822
4.40306
4.04676
3.62542
1.40001
1.40001
1.40001
1.40001
1.40001
1.40001
1.40001
1.40001
1.40001
1.40001
1.40001
1.40001
1.4
1.40041
2.94436
4.94227
5.04001
4.98814
4.89812
4.75763
4.58571
4.33625
4.02107
3.67233
1.40001
1.40001
1.40001
1.40001
1.40001
1.40001
1.40001
1.40001
1.40001
1.40001
1.40001
1.40001
1.40001
1.4
1.8349
4.69214
5.09945
4.96903
4.84985
4.70234
4.51559
4.29053
4.01894
3.71835
1.40001
1.40001
1.40001
1.40001
1.40001
1.40001
1.40001
1.40001
1.40001
1.40001
1.40001
1.40001
1.40001
1.4
1.42888
3.7713
4.95929
4.86915
4.7767
4.64015
4.46631
4.26023
4.01848
3.75213
1.40001
1.40001
1.40001
1.40001
1.40001
1.40001
1.40001
1.40001
1.40001
1.40001
1.40001
1.40001
1.40001
1.4
1.39995
2.47845
4.76242
4.84487
4.77228
4.64118
4.4683
4.26238
4.02894
3.78474
1.40001
1.40001
1.40001
1.40001
1.40001
1.40001
1.40001
1.40001
1.40001
1.40001
1.40001
1.40001
1.40001
1.40001
1.39999
1.5795
4.02486
4.861
4.76937
4.62992
4.45857
4.26199
4.04464
3.82025
1.40001
1.40001
1.40001
1.40001
1.40001
1.40001
1.40001
1.40001
1.40001
1.40001
1.40001
1.40001
1.40001
1.40001
1.4
1.40346
2.72206
4.67567
4.74059
4.606
4.44864
4.26535
4.06706
3.86077
1.40001
1.40001
1.40001
1.40001
1.40001
1.40001
1.40001
1.40001
1.40001
1.40001
1.40001
1.40001
1.40001
1.40001
1.4
1.4
1.6619
4.03769
4.77382
4.61523
4.46002
4.28071
4.09686
3.90123
1.40001
1.40001
1.40001
1.40001
1.40001
1.40001
1.40001
1.40001
1.40001
1.40001
1.40001
1.40001
1.40001
1.40001
1.40001
1.4
1.40811
2.69217
4.58389
4.59739
4.45597
4.29266
4.12462
3.93488
1.40001
1.40001
1.40001
1.40001
1.40001
1.40001
1.40001
1.40001
1.40001
1.40001
1.40001
1.40001
1.40001
1.40001
1.40001
1.40001
1.40003
1.64293
3.84423
4.65601
4.49615
4.34167
4.16889
3.97375
1.40001
1.40001
1.40001
1.40001
1.40001
1.40001
1.40001
1.40001
1.40001
1.40001
1.40001
1.40001
1.40001
1.40001
1.40001
1.40001
1.40001
1.40723
2.39264
4.34137
4.53051
4.38138
4.18569
4.02667
1.40001
1.40001
1.40001
1.40001
1.40001
1.40001
1.40001
1.40001
1.40001
1.40001
1.40001
1.40001
1.40001
1.40001
1.40001
1.40001
1.40001
1.40004
1.53665
3.37829
4.56883
4.41242
4.22212
4.23317
1.40001
1.40001
1.40001
1.40001
1.40001
1.40001
1.40001
1.40001
1.40001
1.40001
1.40001
1.40001
1.40001
1.40001
1.40001
1.40001
1.40001
1.40001
1.40264
2.00229
4.08006
4.38277
4.47786
4.83258
1.40001
1.40001
1.40001
1.40001
1.40001
1.40001
1.40001
1.40001
1.40001
1.40001
1.40001
1.40001
1.40001
1.40001
1.40001
1.40001
1.40001
1.40001
1.40002
1.44752
2.74221
4.17327
5.30602
5.58559
1.40001
1.40001
1.40001
1.40001
1.40001
1.40001
1.40001
1.40001
1.40001
1.40001
1.40001
1.40001
1.40001
1.40001
1.40001
1.40001
1.40001
1.40001
1.40001
1.40065
1.64292
3.92251
5.99893
5.92522
1.40001
1.40001
1.40001
1.40001
1.40001
1.40001
1.40001
1.40001
1.40001
1.40001
1.40001
1.40001
1.40001
1.40001
1.40001
1.40001
1.40001
1.40001
1.40001
1.40001
1.40855
3.52758
6.05101
5.91113
1.40001
1.40001
1.40001
1.40001
1.40001
1.40001
1.40001
1.40001
1.40001
1.40001
1.40001
1.40001
1.40001
1.40001
1.40001
1.40001
1.40001
1.40001
1.40001
1.40001
1.40007
3.27544
5.66644
5.58913
1.40001
1.40001
1.40001
1.40001
1.40001
1.40001
1.40001
1.40001
1.40001
1.40001
1.40001
1.40001
1.40001
1.40001
1.40001
1.40001
1.40001
1.40001
1.40001
1.40001
1.40001
3.13539
5.3301
5.41511
1.40001
1.40001
1.40001
1.40001
1.40001
1.40001
1.40001
1.40001
1.40001
1.40001
1.40001
1.40001
1.40001
1.40001
1.40001
1.40001
1.40001
1.40001
1.40001
1.40001
1.40001
2.9172
5.13311
5.33508
1.40001
1.40001
1.40001
1.40001
1.40001
1.40001
1.40001
1.40001
1.40001
1.40001
1.40001
1.40001
1.40001
1.40001
1.40001
1.40001
1.40001
1.40001
1.40001
1.40001
1.40001
2.7019
5.0784
5.33465
1.40001
1.40001
1.40001
1.40001
1.40001
1.40001
1.40001
1.40001
1.40001
1.40001
1.40001
1.40001
1.40001
1.40001
1.40001
1.40001
1.40001
1.40001
1.40001
1.40001
1.40001
2.47131
5.03292
5.36434
1.40001
1.40001
1.40001
1.40001
1.40001
1.40001
1.40001
1.40001
1.40001
1.40001
1.40001
1.40001
1.40001
1.40001
1.40001
1.40001
1.40001
1.40001
1.40001
1.40001
1.40001
2.25821
4.97465
5.4122
1.40001
1.40001
1.40001
1.40001
1.40001
1.40001
1.40001
1.40001
1.40001
1.40001
1.40001
1.40001
1.40001
1.40001
1.40001
1.40001
1.40001
1.40001
1.40001
1.40001
1.40001
2.08341
4.898
5.44383
1.40001
1.40001
1.40001
1.40001
1.40001
1.40001
1.40001
1.40001
1.40001
1.40001
1.40001
1.40001
1.40001
1.40001
1.40001
1.40001
1.40001
1.40001
1.40001
1.40001
1.40001
1.95879
4.8175
5.45308
1.40001
1.40001
1.40001
1.40001
1.40001
1.40001
1.40001
1.40001
1.40001
1.40001
1.40001
1.40001
1.40001
1.40001
1.40001
1.40001
1.40001
1.40001
1.40001
1.40001
1.40001
1.88022
4.7519
5.44562
1.40001
1.40001
1.40001
1.40001
1.40001
1.40001
1.40001
1.40001
1.40001
1.40001
1.40001
1.40001
1.40001
1.40001
1.40001
1.40001
1.40001
1.40001
1.40001
1.40001
1.40001
1.82962
4.70993
5.44037
1.40001
1.40001
1.40001
1.40001
1.40001
1.40001
1.40001
1.40001
1.40001
1.40001
1.40001
1.40001
1.40001
1.40001
1.40001
1.40001
1.40001
1.40001
1.40001
1.40001
1.40001
1.80696
4.68283
5.43233
1.28894
0.543939
0.275189
0.199195
0.208763
0.262881
0.379271
0.508852
0.625114
0.69701
0.749262
0.809095
0.911676
1.00726
1.01829
1.02152
1.01113
1.10119
2.19345
2.65936
2.71611
2.7363
2.7679
2.80324
2.83574
2.84706
2.84037
2.82728
2.81973
2.82184
2.82674
2.82859
2.82788
2.82367
2.81022
2.78574
2.76082
2.74388
2.73836
2.74297
2.74861
2.73764
2.71008
2.67966
2.6536
2.63599
2.62585
2.61609
2.59815
2.5726
2.54583
2.52067
2.49796
2.47681
2.45446
2.42924
2.40264
2.37722
2.35512
2.33581
2.31245
2.28635
2.25973
2.23272
2.20766
2.18459
2.16591
2.14819
2.12606
2.10304
2.07788
2.05107
2.02603
2.00366
1.98248
1.96172
1.94095
1.91952
1.89614
1.86964
1.84309
1.82323
1.80726
1.7913
1.77453
1.75577
1.73295
1.70467
1.67499
1.6559
1.64587
1.65883
1.72522
1.93892
2.28007
2.54097
1.99954
1.21184
0.887018
0.705028
0.573378
0.537411
0.560967
0.577928
0.576765
0.595287
0.634946
0.689158
0.768676
0.883696
0.929355
0.959622
0.96916
1.03639
2.13522
2.7272
2.78313
2.80052
2.82393
2.84017
2.85286
2.85913
2.85981
2.85649
2.85134
2.84428
2.83565
2.82772
2.82423
2.82604
2.82696
2.81397
2.78789
2.76245
2.74557
2.74019
2.74354
2.74304
2.72647
2.6982
2.66923
2.64497
2.62911
2.62073
2.6102
2.58736
2.55801
2.52945
2.50327
2.48029
2.46028
2.4398
2.41683
2.39234
2.36679
2.33936
2.31272
2.2876
2.26454
2.24197
2.21936
2.19803
2.17856
2.15625
2.132
2.10642
2.07968
2.05315
2.02933
2.00772
1.98695
1.96648
1.94613
1.92547
1.90336
1.87803
1.84982
1.82599
1.80923
1.79407
1.77811
1.76033
1.7398
1.71608
1.68654
1.6658
1.6645
1.70316
1.80969
1.99005
2.20949
2.4804
2.51132
1.81114
1.38102
1.14429
0.961911
0.808058
0.731151
0.707747
0.684567
0.673671
0.68755
0.719764
0.733802
0.765943
0.846536
0.907344
0.954944
1.02044
2.00606
2.92685
2.94212
2.89631
2.91963
2.93976
2.93885
2.93144
2.92835
2.93281
2.94133
2.9429
2.92955
2.90875
2.88963
2.87778
2.87365
2.87119
2.86162
2.84233
2.82028
2.80194
2.78891
2.78003
2.76905
2.75223
2.72931
2.70415
2.68172
2.66544
2.65341
2.63617
2.61025
2.58117
2.55047
2.5215
2.49553
2.47154
2.45061
2.43212
2.4092
2.38144
2.34973
2.31545
2.28665
2.26367
2.24309
2.22612
2.2093
2.18701
2.16222
2.13345
2.10061
2.06891
2.04355
2.02166
2.00068
1.97978
1.95898
1.93877
1.91873
1.89725
1.87229
1.84461
1.8186
1.79796
1.78162
1.76499
1.74887
1.73418
1.71736
1.71047
1.73306
1.82175
1.94717
2.03712
2.14147
2.38977
2.83456
2.26873
1.84055
1.53988
1.34162
1.16787
0.986094
0.91679
0.904463
0.877181
0.836637
0.789103
0.750205
0.74824
0.772556
0.816386
0.907473
0.978799
1.55446
3.00867
3.18218
3.09542
3.07202
3.08061
3.07468
3.05287
3.04121
3.03729
3.04049
3.04623
3.03933
3.02227
3.00102
2.98025
2.96345
2.95043
2.94223
2.93301
2.91694
2.89735
2.87695
2.85719
2.8385
2.82148
2.804
2.78362
2.76216
2.74249
2.72509
2.70275
2.67673
2.64842
2.61842
2.58884
2.55994
2.53282
2.509
2.48597
2.46075
2.43474
2.40604
2.37211
2.33757
2.31114
2.28981
2.27087
2.25088
2.22879
2.20511
2.17728
2.14347
2.10847
2.08044
2.05792
2.03676
2.01512
1.9919
1.96756
1.94396
1.92228
1.90114
1.8782
1.85342
1.82835
1.80512
1.78222
1.76583
1.75826
1.76382
1.78992
1.87144
1.99577
2.08083
2.10247
2.14108
2.29309
3.04183
2.58702
2.19527
1.87257
1.6543
1.49597
1.32718
1.14052
1.04252
1.01705
0.984914
0.933847
0.860659
0.794455
0.798531
0.824617
0.894378
1.06287
1.26251
2.26334
3.19833
3.31443
3.2587
3.21405
3.19802
3.18168
3.16804
3.1586
3.15272
3.15157
3.15229
3.14107
3.12305
3.09804
3.07392
3.05468
3.04022
3.03366
3.02357
3.0032
2.97903
2.95462
2.932
2.91141
2.89275
2.87235
2.85103
2.83156
2.81157
2.78803
2.76267
2.73328
2.69858
2.66407
2.63635
2.61188
2.58699
2.56025
2.53266
2.50435
2.47415
2.4398
2.40427
2.37684
2.35459
2.33262
2.30996
2.28643
2.26106
2.23186
2.19693
2.15889
2.12679
2.10279
2.08228
2.06216
2.04067
2.01655
1.98893
1.9599
1.93281
1.9099
1.88833
1.868
1.84618
1.82536
1.81045
1.81458
1.84336
1.91786
2.06017
2.15108
2.17573
2.16653
2.17044
2.24554
3.20105
2.81419
2.48588
2.17041
1.89032
1.72628
1.59742
1.44811
1.2761
1.14392
1.11449
1.09018
1.03475
0.963007
0.953959
1.00408
1.11057
1.30339
1.35576
1.53636
2.46883
3.27185
3.38964
3.34391
3.31171
3.29197
3.27461
3.25728
3.24288
3.23093
3.23304
3.23303
3.21668
3.19255
3.16202
3.13929
3.12123
3.11253
3.10625
3.08623
3.0616
3.03333
3.00853
2.98716
2.96715
2.9458
2.9233
2.90009
2.87707
2.85496
2.83178
2.80418
2.76937
2.73311
2.70354
2.6772
2.65077
2.62398
2.59678
2.56847
2.53748
2.50262
2.46777
2.4382
2.41199
2.38671
2.3622
2.3382
2.31343
2.28602
2.25347
2.21556
2.17872
2.14966
2.1268
2.1064
2.08617
2.06423
2.0389
2.00782
1.97491
1.94566
1.92211
1.90279
1.88531
1.87602
1.88083
1.91231
1.9896
2.12032
2.24965
2.26447
2.25117
2.23249
2.21809
2.24351
3.32041
2.97327
2.6756
2.41139
2.14726
1.91226
1.75812
1.65229
1.52445
1.3743
1.23851
1.18055
1.1661
1.15048
1.18573
1.32266
1.43261
1.53452
1.53884
1.53745
1.69691
2.49749
3.28415
3.42769
3.40724
3.39367
3.36344
3.33639
3.3118
3.29283
3.28683
3.2939
3.28311
3.26122
3.22952
3.20168
3.18199
3.1705
3.16625
3.14804
3.12351
3.09278
3.06388
3.0419
3.0221
3.00222
2.97918
2.95308
2.92611
2.90141
2.87741
2.85121
2.82094
2.7885
2.75722
2.72785
2.69972
2.67216
2.64459
2.61597
2.58494
2.55166
2.51932
2.48952
2.46083
2.43221
2.40428
2.37781
2.35242
2.32646
2.29743
2.26344
2.22653
2.19362
2.1675
2.14595
2.12504
2.10362
2.07861
2.04862
2.0141
1.98029
1.95592
1.93673
1.92897
1.93645
1.97013
2.06352
2.18193
2.30962
2.36716
2.35777
2.32991
2.29931
2.27623
2.26582
3.41516
3.10633
2.82274
2.57744
2.34478
2.12395
1.93442
1.77813
1.67343
1.5618
1.43084
1.3444
1.37534
1.42146
1.52659
1.67384
1.72958
1.71218
1.70749
1.68399
1.6842
1.81013
2.48914
3.22432
3.43278
3.4843
3.46238
3.41051
3.36774
3.34058
3.32743
3.33237
3.33052
3.31016
3.27962
3.24508
3.22408
3.21006
3.20625
3.19025
3.1659
3.133
3.09842
3.07516
3.05586
3.03825
3.01629
2.99031
2.95982
2.92983
2.90416
2.8799
2.85412
2.82523
2.79362
2.762
2.73223
2.70396
2.67595
2.64664
2.61512
2.58283
2.55248
2.52406
2.49568
2.46596
2.43527
2.40554
2.37821
2.35248
2.32602
2.29625
2.26247
2.22831
2.19933
2.1753
2.15419
2.13241
2.10823
2.07955
2.04484
2.01124
1.98645
1.97628
1.9853
2.0214
2.12326
2.25226
2.3521
2.42674
2.43794
2.42427
2.39755
2.36401
2.32895
2.3052
3.48524
3.21115
2.94632
2.71662
2.49267
2.28703
2.10724
1.93691
1.7987
1.70879
1.62917
1.64076
1.75255
1.82592
1.87857
1.90618
1.89954
1.86108
1.85334
1.85949
1.83156
1.81634
1.90115
2.43623
3.15118
3.45892
3.53564
3.49039
3.42821
3.37949
3.36131
3.36109
3.36783
3.35016
3.32278
3.2826
3.25645
3.24031
3.2341
3.22073
3.1972
3.16424
3.12358
3.09711
3.07775
3.0622
3.0425
3.01835
2.98732
2.95213
2.92353
2.89971
2.87535
2.84816
2.81747
2.78524
2.75437
2.72527
2.69646
2.66621
2.634
2.60193
2.57254
2.54531
2.5182
2.48938
2.45827
2.42619
2.39582
2.36836
2.34226
2.31515
2.28526
2.25381
2.22382
2.19741
2.17374
2.15051
2.12593
2.09838
2.06628
2.0393
2.0239
2.03372
2.078
2.18098
2.33706
2.42097
2.45981
2.47355
2.47271
2.45835
2.43975
2.41716
2.38513
2.34986
3.54083
3.29958
3.04982
2.83148
2.6341
2.42526
2.2263
2.07962
1.97696
1.94915
1.94573
2.04558
2.17309
2.19355
2.15308
2.08773
2.05835
2.02194
2.01564
2.02654
2.0119
1.95288
1.91528
1.9723
2.39509
3.0773
3.45852
3.54402
3.50148
3.43058
3.39126
3.38418
3.39538
3.38539
3.36145
3.32205
3.28408
3.26507
3.25361
3.24231
3.22049
3.19078
3.1479
3.11392
3.09318
3.07747
3.05971
3.03781
3.0102
2.97517
2.94178
2.9141
2.888
2.86067
2.83105
2.80016
2.76996
2.74062
2.71082
2.67915
2.64561
2.6129
2.58363
2.55709
2.53137
2.50471
2.47571
2.44394
2.41095
2.37939
2.35032
2.32306
2.29664
2.27008
2.2437
2.21697
2.19048
2.16301
2.13543
2.10793
2.08487
2.07095
2.08242
2.1426
2.25454
2.41698
2.52446
2.53168
2.50916
2.4931
2.48614
2.48007
2.47064
2.45814
2.44143
2.40193
3.59169
3.37323
3.14507
2.92224
2.73379
2.55346
2.38664
2.25811
2.29903
2.35505
2.35696
2.42434
2.44815
2.41349
2.3426
2.25264
2.23108
2.19648
2.16819
2.16625
2.15405
2.11001
2.03877
2.01689
2.05319
2.35455
2.96919
3.41461
3.53226
3.48961
3.43242
3.40897
3.41368
3.41562
3.39586
3.36383
3.31602
3.28726
3.27004
3.25723
3.23789
3.21324
3.17663
3.13512
3.10964
3.09139
3.07221
3.05114
3.02708
2.99679
2.96232
2.92919
2.89855
2.86891
2.83946
2.81055
2.78221
2.75333
2.72267
2.68945
2.6545
2.62117
2.59173
2.56507
2.53959
2.51407
2.48723
2.45768
2.42514
2.39131
2.35842
2.32826
2.30176
2.27777
2.25503
2.23079
2.2048
2.17539
2.1454
2.12071
2.11239
2.12543
2.19873
2.33447
2.47688
2.59773
2.60994
2.59381
2.55188
2.51802
2.50335
2.49542
2.49686
2.49267
2.48199
2.45182
3.64604
3.43804
3.22447
3.01159
2.82785
2.70466
2.63859
2.64595
2.78585
2.80466
2.7212
2.68677
2.6408
2.58918
2.5247
2.43443
2.4054
2.38297
2.32416
2.29732
2.28557
2.25395
2.19904
2.13765
2.11209
2.1349
2.32641
2.83567
3.31755
3.47864
3.47287
3.44309
3.4331
3.4408
3.42527
3.40052
3.35577
3.31123
3.28772
3.26907
3.25135
3.22972
3.20161
3.1645
3.13254
3.10743
3.08394
3.06112
3.03735
3.01032
2.97889
2.94464
2.91008
2.87706
2.847
2.81974
2.79301
2.76446
2.73266
2.69737
2.66109
2.62828
2.59975
2.57305
2.54638
2.51929
2.492
2.46424
2.43532
2.40459
2.3721
2.33869
2.3061
2.27811
2.25568
2.236
2.21354
2.19174
2.16735
2.15417
2.17061
2.24505
2.40195
2.52165
2.619
2.6663
2.65852
2.63777
2.60419
2.56148
2.53121
2.5178
2.51231
2.51432
2.51083
2.48757
3.69711
3.49651
3.29542
3.11927
2.99668
3.04926
3.07825
3.10296
3.15705
3.10287
2.96853
2.86823
2.80413
2.76766
2.7194
2.62977
2.55936
2.53881
2.48656
2.43887
2.41856
2.38398
2.33427
2.27735
2.23027
2.19672
2.20636
2.30937
2.68473
3.17326
3.42808
3.45402
3.46581
3.46918
3.45523
3.4289
3.39188
3.3416
3.30825
3.28592
3.26619
3.24411
3.21996
3.19184
3.161
3.13071
3.10156
3.07313
3.04535
3.01751
2.98834
2.95666
2.92235
2.8878
2.85711
2.8305
2.80441
2.77587
2.7428
2.70467
2.66616
2.63446
2.60847
2.58354
2.55677
2.52701
2.49568
2.46594
2.43923
2.41344
2.38628
2.35553
2.31884
2.28127
2.25483
2.23647
2.22147
2.21387
2.21844
2.24944
2.3351
2.49131
2.605
2.65106
2.68224
2.69314
2.68637
2.66929
2.64898
2.61891
2.57898
2.55019
2.53644
2.52955
2.53377
2.51793
3.74143
3.5541
3.40274
3.34699
3.42489
3.56547
3.51265
3.44703
3.4012
3.30407
3.17167
3.04886
2.9771
2.94131
2.89893
2.82091
2.71704
2.67262
2.64054
2.58785
2.55669
2.51748
2.46335
2.40468
2.3624
2.32104
2.26954
2.28199
2.32873
2.56085
3.01591
3.3372
3.43476
3.49581
3.49253
3.46277
3.41967
3.36896
3.33273
3.31
3.28816
3.26327
3.23697
3.21058
3.18439
3.15752
3.12723
3.09228
3.05635
3.02398
2.99474
2.96557
2.93412
2.90055
2.86883
2.84135
2.81536
2.78748
2.75453
2.71396
2.67083
2.63829
2.61529
2.59408
2.57058
2.54164
2.50561
2.46688
2.43569
2.41298
2.39232
2.36964
2.33968
2.29966
2.25913
2.23857
2.23586
2.25497
2.32416
2.44147
2.59283
2.73076
2.75434
2.73388
2.7133
2.70281
2.69994
2.69266
2.6803
2.66232
2.63483
2.60051
2.57629
2.56369
2.56012
2.54867
3.80519
3.67774
3.74002
3.84651
3.95841
3.94005
3.7748
3.65345
3.57203
3.48498
3.37118
3.24013
3.15352
3.1112
3.06692
2.99645
2.89197
2.80869
2.78263
2.73658
2.69139
2.64722
2.58852
2.53254
2.47809
2.4425
2.39683
2.34336
2.32177
2.33623
2.47388
2.84565
3.21573
3.41548
3.51071
3.50064
3.44698
3.39298
3.36001
3.3395
3.31916
3.29013
3.25442
3.22437
3.2014
3.17925
3.15204
3.11538
3.07164
3.03317
3.00329
2.97598
2.94717
2.91445
2.87951
2.84843
2.82172
2.79555
2.76559
2.72703
2.68029
2.64228
2.61929
2.60089
2.58163
2.55776
2.52348
2.4765
2.43518
2.41076
2.39307
2.37556
2.35456
2.32434
2.2806
2.26722
2.28672
2.37219
2.52503
2.66259
2.80031
2.84057
2.82926
2.79575
2.75222
2.72983
2.71809
2.71342
2.70952
2.69817
2.6819
2.65966
2.63165
2.60953
2.59885
2.58188
3.94129
4.07468
4.2857
4.32182
4.30542
4.1716
3.9717
3.82622
3.74093
3.66643
3.55953
3.4245
3.32624
3.27515
3.23119
3.1651
3.0691
2.96046
2.91271
2.8824
2.83125
2.77913
2.71186
2.65185
2.60441
2.55745
2.52051
2.46998
2.41102
2.36386
2.36437
2.42684
2.68598
3.06531
3.38287
3.46822
3.45128
3.4213
3.39815
3.3801
3.35515
3.32081
3.26998
3.23374
3.21271
3.19137
3.1665
3.13356
3.08894
3.04703
3.01771
2.99214
2.96505
2.93226
2.89195
2.85339
2.82432
2.79942
2.77323
2.74103
2.69773
2.65135
2.62162
2.60292
2.58552
2.56619
2.53936
2.49556
2.44203
2.40781
2.38938
2.37393
2.36142
2.35088
2.33967
2.36406
2.45132
2.61868
2.73603
2.81989
2.88282
2.88806
2.87388
2.84914
2.81621
2.78073
2.75827
2.7467
2.74047
2.73418
2.72291
2.70885
2.68987
2.66138
2.6408
2.6185
4.45806
4.71394
4.72151
4.61033
4.49687
4.33968
4.15765
4.01497
3.92886
3.85174
3.74407
3.61042
3.50674
3.44454
3.39499
3.3314
3.23891
3.12356
3.05271
3.02237
2.9783
2.92087
2.84894
2.7666
2.71693
2.6737
2.63021
2.58944
2.53711
2.47209
2.40291
2.40025
2.42134
2.56681
2.90504
3.25721
3.37795
3.40521
3.43037
3.42041
3.38722
3.34302
3.28682
3.24234
3.21791
3.19444
3.16966
3.14058
3.0977
3.05644
3.02822
3.003
2.97674
2.94527
2.90364
2.8573
2.82271
2.797
2.77291
2.7472
2.71398
2.66945
2.62842
2.60286
2.58325
2.56569
2.54522
2.51367
2.46411
2.41258
2.38902
2.37935
2.38165
2.40424
2.46769
2.5835
2.7556
2.87593
2.89631
2.91121
2.91621
2.91679
2.90529
2.89029
2.87301
2.84693
2.81303
2.7893
2.77695
2.76857
2.76001
2.74799
2.73332
2.7101
2.6831
2.65329
5.15243
5.17552
4.98083
4.80247
4.65729
4.50951
4.3458
4.21031
4.11852
4.03291
3.92709
3.79614
3.69169
3.61749
3.55257
3.49002
3.40315
3.28945
3.20298
3.15915
3.12036
3.06123
2.98909
2.89927
2.82069
2.78048
2.74116
2.69926
2.65399
2.59675
2.51769
2.4377
2.40547
2.41898
2.49337
2.73776
3.06299
3.27532
3.38101
3.4043
3.39005
3.34673
3.30413
3.26118
3.23071
3.20203
3.17003
3.13491
3.09701
3.07229
3.04683
3.02023
2.99284
2.96121
2.92044
2.87224
2.8317
2.80632
2.78439
2.75893
2.72659
2.68249
2.64024
2.61486
2.59869
2.57942
2.55481
2.52143
2.47874
2.43589
2.40907
2.4101
2.43877
2.54224
2.69557
2.85451
2.99543
3.0168
3.00182
2.9711
2.95095
2.94123
2.93587
2.92722
2.91517
2.8986
2.86785
2.83167
2.81241
2.80072
2.79201
2.78165
2.76844
2.75055
2.72503
2.68572
5.60914
5.41985
5.15058
4.96194
4.83636
4.70628
4.54585
4.40938
4.31388
4.22341
4.11766
3.98394
3.87673
3.79769
3.71287
3.64336
3.56547
3.45858
3.35749
3.29848
3.25277
3.19634
3.12208
3.03382
2.94374
2.88135
2.84272
2.8018
2.75539
2.70058
2.62859
2.54065
2.46117
2.42187
2.41677
2.44251
2.58488
2.84822
3.13831
3.26528
3.31162
3.33024
3.32048
3.27984
3.22636
3.16658
3.11729
3.0883
3.06778
3.0427
3.01475
2.98614
2.95634
2.92398
2.88714
2.84675
2.81065
2.77948
2.75235
2.72646
2.701
2.68029
2.65295
2.61798
2.57992
2.54805
2.51809
2.49944
2.48915
2.468
2.46386
2.50397
2.62869
2.80962
2.92699
3.0344
3.08001
3.07617
3.06022
3.02015
2.98642
2.97363
2.96576
2.96038
2.94792
2.93073
2.9032
2.86429
2.83599
2.8211
2.81057
2.8041
2.79365
2.77868
2.75593
2.71064
5.74856
5.52708
5.29886
5.12963
5.02334
4.90224
4.73694
4.59134
4.49509
4.40616
4.29844
4.16193
4.04724
3.97089
3.87827
3.79051
3.71598
3.61954
3.50898
3.42876
3.37115
3.31536
3.24866
3.16496
3.07025
2.98629
2.92363
2.87643
2.83022
2.77914
2.71949
2.64298
2.55782
2.48106
2.42328
2.40976
2.40534
2.45271
2.63536
2.91211
3.08663
3.20989
3.26214
3.25145
3.20673
3.13602
3.07789
3.05432
3.03255
3.00586
2.97829
2.94745
2.91206
2.87646
2.84527
2.81834
2.78873
2.75031
2.7145
2.69272
2.67562
2.65661
2.63514
2.60438
2.56312
2.52191
2.49577
2.49158
2.49179
2.51696
2.59721
2.75143
2.94313
3.01939
3.06233
3.10207
3.11639
3.10729
3.08773
3.05328
3.01287
2.99555
2.98714
2.97989
2.96611
2.94798
2.92675
2.89593
2.86061
2.84177
2.83113
2.82212
2.81163
2.79577
2.77556
2.73195
5.74653
5.55679
5.3633
5.22713
5.15586
5.04963
4.8947
4.75904
4.66703
4.5772
4.46044
4.31809
4.19884
4.12174
4.03865
3.93647
3.84735
3.75524
3.64641
3.54828
3.47549
3.4121
3.34725
3.26841
3.17953
3.08519
3.00601
2.94363
2.89118
2.83755
2.77434
2.69718
2.62076
2.55673
2.49313
2.43266
2.37622
2.33519
2.35127
2.45303
2.66919
2.89037
3.07669
3.14275
3.13461
3.08402
3.03398
3.00431
2.9792
2.95492
2.92629
2.8881
2.84877
2.82352
2.80414
2.78284
2.75366
2.71141
2.67339
2.65511
2.64007
2.6221
2.59895
2.56838
2.53184
2.49185
2.48537
2.49366
2.5521
2.69759
2.86894
3.05096
3.12509
3.1192
3.1191
3.12136
3.12474
3.1186
3.10112
3.07544
3.04002
3.00488
2.98446
2.97454
2.97183
2.96252
2.94671
2.92462
2.8937
2.85796
2.82748
2.81004
2.79969
2.79234
2.78449
2.75199
5.482
5.39609
5.31731
5.25835
5.2236
5.1262
4.96969
4.83697
4.76657
4.69233
4.57486
4.43521
4.32636
4.25082
4.17362
4.07416
3.96118
3.862
3.75297
3.64654
3.55026
3.46579
3.40191
3.34226
3.2615
3.15958
3.06479
2.98238
2.90239
2.82907
2.77188
2.72339
2.65793
2.57234
2.49221
2.42739
2.3677
2.31403
2.2842
2.26586
2.30795
2.46096
2.69482
2.93069
3.00207
2.98623
2.95938
2.92965
2.90473
2.88234
2.85362
2.80971
2.77464
2.75963
2.7473
2.73032
2.7075
2.67248
2.62904
2.60683
2.59092
2.57193
2.54991
2.52819
2.50571
2.48379
2.49613
2.57736
2.76502
2.9428
3.08006
3.16528
3.17122
3.15889
3.12858
3.10795
3.09826
3.09265
3.08445
3.07181
3.05165
3.01947
2.98967
2.96973
2.95536
2.94412
2.93302
2.91972
2.90047
2.86849
2.83406
2.81057
2.79393
2.77768
2.7644
2.73764
5.3404
5.30084
5.25581
5.20939
5.15379
5.06147
4.949
4.85231
4.79102
4.72299
4.6037
4.46071
4.35146
4.27543
4.19663
4.10142
3.98307
3.86893
3.7912
3.71152
3.62384
3.53458
3.43603
3.33304
3.24586
3.17869
3.10356
3.02224
2.94318
2.86698
2.78772
2.71185
2.65038
2.5909
2.51882
2.44432
2.37918
2.33019
2.27234
2.22949
2.18798
2.19589
2.28749
2.49302
2.72265
2.83056
2.85927
2.86721
2.85096
2.82248
2.78389
2.73108
2.69072
2.67607
2.66711
2.65825
2.64172
2.61818
2.58042
2.54335
2.51936
2.50104
2.48884
2.48817
2.49023
2.52817
2.63986
2.83327
3.01136
3.08038
3.13796
3.17349
3.16989
3.15126
3.11385
3.07542
3.05862
3.05177
3.04884
3.04301
3.03132
3.01405
2.98762
2.95734
2.93481
2.91883
2.90491
2.89034
2.87315
2.85229
2.82843
2.80292
2.7806
2.7607
2.74446
2.71561
5.25504
5.21215
5.15444
5.1026
5.04049
4.96096
4.8765
4.79811
4.73536
4.66606
4.5573
4.43462
4.34076
4.273
4.19483
4.09785
3.9797
3.86017
3.76651
3.6814
3.60141
3.52069
3.43054
3.32904
3.23112
3.14198
3.06143
2.9882
2.9218
2.85675
2.78305
2.7008
2.62246
2.55463
2.49624
2.43964
2.38078
2.31855
2.25868
2.19716
2.14655
2.10801
2.11299
2.16512
2.33196
2.5509
2.68884
2.77664
2.79309
2.76649
2.71624
2.66237
2.62083
2.59939
2.58842
2.58165
2.56889
2.55175
2.52472
2.47966
2.44459
2.43274
2.43856
2.46838
2.55081
2.71737
2.91172
3.06333
3.09866
3.12203
3.12973
3.13027
3.11787
3.10246
3.08298
3.04979
3.02449
3.01339
3.0059
2.99871
2.9887
2.97682
2.9594
2.93316
2.90709
2.88696
2.86936
2.85212
2.83552
2.81927
2.80154
2.77943
2.75581
2.73385
2.7161
2.68552
5.24316
5.19622
5.13498
5.07085
4.99443
4.90941
4.82487
4.75285
4.68818
4.60564
4.49939
4.39409
4.30886
4.24405
4.16064
4.05568
3.93549
3.83228
3.75159
3.67113
3.59022
3.50631
3.41298
3.31288
3.21855
3.13566
3.06203
2.99362
2.92555
2.85184
2.77087
2.68794
2.61376
2.55156
2.49713
2.44396
2.38858
2.32651
2.26068
2.1927
2.13893
2.09281
2.06144
2.04301
2.07111
2.19801
2.38898
2.56019
2.67863
2.69156
2.66574
2.62263
2.57824
2.54134
2.51712
2.50506
2.49574
2.47932
2.45652
2.42342
2.39888
2.40525
2.42593
2.52559
2.74613
2.9387
3.06738
3.12278
3.10381
3.08207
3.06577
3.05543
3.05191
3.04958
3.04072
3.01857
2.98849
2.97066
2.96023
2.95086
2.94118
2.92981
2.91564
2.89507
2.86936
2.84704
2.82885
2.81229
2.79682
2.78174
2.76571
2.74605
2.72196
2.69668
2.67753
2.64844
5.26475
5.21335
5.14089
5.0636
4.9791
4.89756
4.82225
4.7488
4.66647
4.56791
4.46285
4.3665
4.29023
4.22237
4.12828
4.01636
3.90475
3.81756
3.74198
3.6637
3.57976
3.48896
3.38998
3.29182
3.20584
3.13167
3.06272
2.99408
2.92163
2.84258
2.75923
2.67996
2.61166
2.55253
2.49801
2.44382
2.38713
2.3257
2.26121
2.19682
2.13975
2.09205
2.04939
2.01668
1.98862
2.00176
2.07118
2.2471
2.44611
2.56877
2.60861
2.59459
2.56032
2.51213
2.45974
2.43539
2.42199
2.40733
2.39475
2.38168
2.39194
2.40555
2.52169
2.76099
2.93866
3.03331
3.09786
3.09542
3.07224
3.03745
3.0172
3.00729
3.00228
2.99843
2.98832
2.97223
2.94953
2.93051
2.91958
2.90971
2.89944
2.88759
2.87313
2.85369
2.82824
2.80512
2.78853
2.77429
2.76042
2.74629
2.73083
2.71161
2.68729
2.66101
2.64343
2.61769
5.29643
5.2357
5.16217
5.08883
5.01118
4.93292
4.85288
4.76596
4.66834
4.5671
4.47056
4.3854
4.31255
4.22489
4.11513
4.00235
3.90671
3.8283
3.74935
3.66428
3.5731
3.47514
3.37715
3.28867
3.21053
3.13874
3.0688
2.99679
2.92027
2.83994
2.75934
2.68384
2.61674
2.55671
2.50056
2.44577
2.39002
2.33159
2.27007
2.20752
2.14765
2.09566
2.05028
2.01069
1.97201
1.95181
1.9355
1.97697
2.12293
2.32202
2.45186
2.5297
2.52337
2.48869
2.43211
2.38195
2.35711
2.34534
2.35173
2.36076
2.40267
2.55961
2.81364
2.97069
3.00694
3.0293
3.05583
3.05116
3.03896
3.0177
2.98929
2.97293
2.96348
2.9571
2.94874
2.93831
2.92463
2.90538
2.88897
2.87692
2.8647
2.85164
2.83736
2.8203
2.79801
2.7756
2.75953
2.74589
2.73219
2.71799
2.70257
2.68422
2.66162
2.63794
2.62224
2.59686
5.32067
5.25872
5.18428
5.10954
5.03281
4.95357
4.86947
4.77904
4.68409
4.59059
4.50214
4.42147
4.33811
4.23348
4.12122
4.02033
3.93672
3.85866
3.77078
3.67795
3.57833
3.4788
3.38786
3.30616
3.23039
3.15648
3.082
3.00559
2.92702
2.84738
2.76962
2.69651
2.62871
2.56587
2.50707
2.45142
2.39689
2.34164
2.28323
2.22218
2.16064
2.10525
2.05761
2.01728
1.977
1.9389
1.91533
1.88261
1.89508
2.01728
2.217
2.39501
2.46687
2.46083
2.4218
2.36338
2.31678
2.31145
2.32625
2.40962
2.60471
2.86435
3.02214
3.04
3.0177
3.01067
3.01385
3.01668
3.00974
2.99655
2.97217
2.95231
2.94319
2.93655
2.9296
2.91934
2.90528
2.88549
2.86575
2.8525
2.84158
2.83053
2.81858
2.80364
2.78226
2.75857
2.74106
2.72726
2.71385
2.70023
2.68562
2.66824
2.64635
2.62344
2.60719
2.58036
5.32903
5.26863
5.19747
5.12577
5.04927
4.96866
4.88333
4.79455
4.705
4.61749
4.5335
4.44901
4.35073
4.24153
4.13729
4.047
3.97128
3.88478
3.78934
3.68955
3.58927
3.49646
3.41097
3.33029
3.25156
3.17308
3.09417
3.01517
2.93659
2.85945
2.7849
2.71365
2.64543
2.58013
2.51781
2.45945
2.40416
2.34997
2.29441
2.2374
2.17871
2.12081
2.06653
2.02451
1.99084
1.95322
1.9134
1.87211
1.83417
1.84459
1.93952
2.12838
2.30502
2.40119
2.39966
2.34935
2.31245