/*--------------------------------*- C++ -*----------------------------------*\
  =========                 |
  \\      /  F ield         | OpenFOAM: The Open Source CFD Toolbox
   \\    /   O peration     | Website:  https://openfoam.org
    \\  /    A nd           | Version:  7
     \\/     M anipulation  |
\*---------------------------------------------------------------------------*/
FoamFile
{
    version     2.0;
    format      ascii;
    class       volScalarField;
    location    "7.5";
    object      T;
}
// * * * * * * * * * * * * * * * * * * * * * * * * * * * * * * * * * * * * * //

dimensions      [0 0 0 1 0 0 0];

internalField   nonuniform List<scalar> 
4032
(
1
1
1
1
1
1
1
1
1
1
1
1.17453
2.41419
2.71589
2.72679
2.74237
2.75577
2.76833
2.77971
2.78981
2.79876
2.806
2.81152
2.81548
1
1
1
1
1
1
1
1
1
1
1
1.15702
2.40025
2.71483
2.72622
2.74104
2.75419
2.76648
2.77753
2.78717
2.79556
2.80225
2.80715
2.81092
1
1
1
1
1
1
1
1
1
1
1
1.10359
2.36267
2.71205
2.72313
2.73806
2.75133
2.76359
2.77448
2.78377
2.79159
2.79762
2.80156
2.80474
1
1
1
1
1
1
1
1
1
1
1
1.00759
2.29459
2.70417
2.71824
2.73341
2.74627
2.75774
2.76799
2.77684
2.78438
2.79007
2.79332
2.79575
1
1
1
1
1
1
1
1
1
1
1
1.00006
2.2127
2.68818
2.70747
2.72326
2.73684
2.74843
2.75841
2.76645
2.77252
2.77666
2.77838
2.78116
1
1
1
1
1
1
1
1
1
1
1
1
2.09851
2.66959
2.69828
2.71283
2.72625
2.73713
2.74614
2.75339
2.75883
2.76201
2.76038
2.75475
1
1
1
1
1
1
1
1
1
1
1
1
1.9404
2.63448
2.68249
2.69836
2.71203
2.7222
2.72978
2.73484
2.73636
2.73279
2.72453
2.7172
1
1
1
1
1
1
1
1
1
1
1
1
1.72375
2.5649
2.65587
2.67941
2.6953
2.70556
2.71131
2.71325
2.71029
2.70497
2.69959
2.71061
1
1
1
1
1
1
1
1
1
1
1
1
1.41242
2.44113
2.6294
2.65512
2.67348
2.68496
2.68903
2.68787
2.6795
2.66079
2.60901
2.50917
1
1
1
1
1
1
1
1
1
1
1
1
1.05199
2.30854
2.62972
2.63191
2.64253
2.65344
2.65802
2.6547
2.64148
2.6082
2.55032
2.38862
1
1
1
1
1
1
1
1
1
1
1
1
1.00063
2.14097
2.58863
2.59699
2.60819
2.61584
2.6203
2.61571
2.60048
2.56168
2.49743
2.31372
1
1
1
1
1
1
1
1
1
1
1
1
0.999993
1.83466
2.52421
2.58148
2.58981
2.58898
2.58758
2.57939
2.56042
2.5217
2.44904
2.29015
1
1
1
1
1
1
1
1
1
1
1
1
0.999998
1.37627
2.38034
2.56297
2.56326
2.56176
2.55659
2.54402
2.52108
2.48288
2.40913
2.2879
1
1
1
1
1
1
1
1
1
1
1
1
1
1.03895
2.19511
2.52247
2.53307
2.5322
2.52642
2.51222
2.48805
2.44784
2.37957
2.28842
1
1
1
1
1
1
1
1
1
1
1
1
1
1.00024
1.82977
2.43951
2.51085
2.50791
2.50058
2.48357
2.45904
2.41661
2.35662
2.28405
1
1
1
1
1
1
1
1
1
1
1
1
1
0.999998
1.24267
2.28026
2.49095
2.47772
2.46997
2.45486
2.42887
2.39153
2.33992
2.27844
1
1
1
1
1
1
1
1
1
1
1
1
1
1
1.01366
2.08384
2.44101
2.43163
2.43051
2.4209
2.40041
2.3689
2.32465
2.27125
1
1
1
1
1
1
1
1
1
1
1
1
1
1
1.00001
1.58689
2.32442
2.41216
2.40582
2.39371
2.37435
2.34586
2.30789
2.26236
1
1
1
1
1
1
1
1
1
1
1
1
1
1
0.999998
1.08975
2.11618
2.39049
2.38264
2.36809
2.34753
2.32109
2.28829
2.25023
1
1
1
1
1
1
1
1
1
1
1
1
1
1
0.999999
1.00159
1.66772
2.27743
2.36043
2.34163
2.3221
2.29765
2.26906
2.23645
1
1
1
1
1
1
1
1
1
1
1
1
1
1
1
1
1.1312
2.07769
2.33506
2.31566
2.29934
2.27699
2.25178
2.22196
1
1
1
1
1
1
1
1
1
1
1
1
1
1
1
1
1.00361
1.62833
2.20838
2.29227
2.27311
2.25361
2.23266
2.20552
1
1
1
1
1
1
1
1
1
1
1
1
1
1
1
1
1.00001
1.11963
1.99104
2.26726
2.2499
2.23625
2.21604
2.18871
1
1
1
1
1
1
1
1
1
1
1
1
1
1
1
1
1
1.00309
1.47574
2.10096
2.22848
2.212
2.18958
2.16822
1
1
1
1
1
1
1
1
1
1
1
1
1
1
1
1
1
1.00001
1.06441
1.83123
2.19968
2.18327
2.16729
2.18313
1
1
1
1
1
1
1
1
1
1
1
1
1
1
1
1
1
1
1.00105
1.29222
2.01953
2.13575
2.18512
2.27207
1
1
1
1
1
1
1
1
1
1
1
1
1
1
1
1
1
1
1
1.02069
1.60798
2.02239
2.28244
2.35399
1
1
1
1
1
1
1
1
1
1
1
1
1
1
1
1
1
1
1
1.00022
1.11779
1.95487
2.41905
2.41095
1
1
1
1
1
1
1
1
1
1
1
1
1
1
1
1
1
1
1
1
1.00339
1.97813
2.57257
2.51989
1
1
1
1
1
1
1
1
1
1
1
1
1
1
1
1
1
1
1
1
1.00002
2.01996
2.64747
2.59851
1
1
1
1
1
1
1
1
1
1
1
1
1
1
1
1
1
1
1
1
1
2.01323
2.68134
2.66541
1
1
1
1
1
1
1
1
1
1
1
1
1
1
1
1
1
1
1
1
1
1.93371
2.66477
2.68016
1
1
1
1
1
1
1
1
1
1
1
1
1
1
1
1
1
1
1
1
1
1.82467
2.62563
2.68359
1
1
1
1
1
1
1
1
1
1
1
1
1
1
1
1
1
1
1
1
1
1.70833
2.57972
2.68003
1
1
1
1
1
1
1
1
1
1
1
1
1
1
1
1
1
1
1
1
1
1.59913
2.5444
2.67381
1
1
1
1
1
1
1
1
1
1
1
1
1
1
1
1
1
1
1
1
1
1.50469
2.52051
2.67135
1
1
1
1
1
1
1
1
1
1
1
1
1
1
1
1
1
1
1
1
1
1.43536
2.50635
2.67494
1
1
1
1
1
1
1
1
1
1
1
1
1
1
1
1
1
1
1
1
1
1.38933
2.4964
2.68022
1
1
1
1
1
1
1
1
1
1
1
1
1
1
1
1
1
1
1
1
1
1.3554
2.48668
2.68378
1
1
1
1
1
1
1
1
1
1
1
1
1
1
1
1
1
1
1
1
1
1.34144
2.48116
2.68358
1.69287
1.19656
1.03833
1.07669
1.11697
1.21351
1.34805
1.43159
1.49026
1.54021
1.58954
1.63301
1.67906
1.72333
1.73808
1.73994
1.71896
1.81222
2.54937
2.78211
2.78886
2.78459
2.78477
2.78656
2.78866
2.78491
2.77326
2.76155
2.75287
2.74752
2.7425
2.73655
2.72954
2.72136
2.70941
2.69274
2.67497
2.65936
2.64816
2.64191
2.63552
2.62249
2.60501
2.58771
2.57294
2.56251
2.55612
2.55068
2.54248
2.53163
2.52034
2.5096
2.49968
2.49009
2.47943
2.46687
2.45317
2.43955
2.42699
2.41557
2.40284
2.38932
2.37562
2.36185
2.34917
2.33759
2.32805
2.31893
2.30778
2.296
2.28302
2.269
2.25546
2.24292
2.23083
2.21891
2.20703
2.19491
2.18201
2.1678
2.15368
2.14282
2.13398
2.12535
2.11664
2.10732
2.09646
2.08332
2.06976
2.06033
2.05674
2.06383
2.09836
2.20203
2.3515
2.45793
1.93844
1.61447
1.4814
1.40161
1.3166
1.25762
1.26422
1.26667
1.27824
1.31322
1.35825
1.3995
1.44765
1.51374
1.55614
1.59881
1.60331
1.65427
2.42901
2.75394
2.76662
2.76612
2.76745
2.76492
2.76061
2.7542
2.74713
2.74016
2.73344
2.72572
2.71669
2.70742
2.69969
2.69439
2.6886
2.67694
2.66036
2.64332
2.62886
2.61843
2.61167
2.60344
2.59
2.57385
2.55836
2.54554
2.5368
2.53172
2.52644
2.51705
2.50553
2.49431
2.48374
2.47398
2.46486
2.45499
2.44354
2.43098
2.41772
2.40354
2.38965
2.37645
2.36434
2.35275
2.34142
2.33087
2.3213
2.3106
2.29898
2.28657
2.27335
2.25995
2.24751
2.23585
2.22441
2.21299
2.20158
2.19003
2.17783
2.16426
2.14951
2.13685
2.12761
2.1195
2.11138
2.10262
2.09282
2.08192
2.06881
2.0585
2.05878
2.07929
2.1329
2.21398
2.30868
2.42175
2.03954
1.82181
1.66304
1.56445
1.47463
1.37213
1.30302
1.28018
1.26993
1.26088
1.2686
1.29198
1.29581
1.30989
1.36412
1.41567
1.45555
1.49351
2.20197
2.68765
2.69514
2.68101
2.68951
2.69289
2.68827
2.6792
2.67339
2.67196
2.67208
2.67024
2.66157
2.64987
2.63851
2.62963
2.62368
2.61851
2.61066
2.59905
2.58552
2.57224
2.56067
2.55073
2.54066
2.52931
2.51661
2.50392
2.49292
2.48496
2.47958
2.47319
2.46438
2.45475
2.44437
2.43423
2.42479
2.41565
2.40705
2.39877
2.38823
2.37533
2.36034
2.34411
2.33036
2.31938
2.30971
2.3018
2.29415
2.28445
2.27383
2.26151
2.24731
2.23335
2.22188
2.21166
2.20156
2.19118
2.18053
2.16992
2.15926
2.14791
2.135
2.12102
2.10799
2.09766
2.08955
2.08159
2.07428
2.06802
2.06103
2.05859
2.06984
2.11283
2.1651
2.19961
2.23973
2.34506
2.10242
1.94032
1.80265
1.69386
1.61348
1.53006
1.42795
1.37988
1.36738
1.34742
1.31999
1.2885
1.26075
1.25877
1.27499
1.30267
1.36135
1.40641
1.79416
2.48387
2.61851
2.58959
2.58627
2.58868
2.58552
2.57611
2.57031
2.56776
2.56786
2.56846
2.56447
2.55688
2.54802
2.53901
2.53107
2.52437
2.51931
2.51368
2.50525
2.49504
2.48401
2.47274
2.46167
2.45136
2.44137
2.43108
2.42124
2.41287
2.40617
2.39864
2.39082
2.38296
2.37491
2.36704
2.35915
2.3514
2.34416
2.3364
2.3269
2.3164
2.30449
2.29043
2.27606
2.26492
2.25605
2.24842
2.24064
2.23238
2.22388
2.21401
2.20185
2.18905
2.17885
2.17065
2.16268
2.15406
2.14423
2.13336
2.12235
2.11187
2.10151
2.09043
2.07877
2.06701
2.05632
2.04613
2.03925
2.03604
2.03823
2.05145
2.08949
2.13923
2.16758
2.17131
2.18141
2.2406
2.15022
2.0218
1.90172
1.79215
1.71214
1.65072
1.57935
1.48681
1.4271
1.41057
1.39279
1.36506
1.32358
1.27884
1.27942
1.29517
1.34086
1.43793
1.54615
2.06691
2.44995
2.53009
2.512
2.49685
2.49053
2.4845
2.4792
2.47522
2.47252
2.47153
2.47109
2.46682
2.46041
2.45158
2.44276
2.43529
2.42924
2.42583
2.42135
2.41347
2.40376
2.39317
2.38259
2.37256
2.36348
2.35436
2.34554
2.33788
2.33058
2.32289
2.31561
2.30799
2.29938
2.29112
2.28503
2.27965
2.27349
2.26586
2.25717
2.24774
2.2373
2.22504
2.21205
2.20193
2.19383
2.18606
2.1784
2.17089
2.1632
2.1545
2.14385
2.13195
2.12218
2.11538
2.10968
2.10372
2.09666
2.08785
2.07688
2.06477
2.05311
2.04301
2.03343
2.02452
2.01529
2.00633
2.00013
2.0014
2.01455
2.0469
2.10333
2.13419
2.13749
2.12834
2.12322
2.14693
2.18454
2.07988
1.98373
1.88306
1.78479
1.72499
1.67646
1.61528
1.53617
1.46659
1.45192
1.44029
1.41124
1.3717
1.36484
1.39494
1.45495
1.55135
1.57156
1.66339
2.10147
2.39887
2.45556
2.44155
2.43015
2.42284
2.41644
2.40994
2.4044
2.39979
2.39972
2.39887
2.39262
2.3841
2.37372
2.36571
2.35908
2.35527
2.35236
2.34548
2.33692
2.32649
2.31656
2.30764
2.29935
2.29094
2.28248
2.27405
2.26595
2.25869
2.25184
2.24447
2.23562
2.22676
2.22005
2.2141
2.20765
2.20051
2.19276
2.18426
2.17458
2.16331
2.15184
2.1421
2.13356
2.12552
2.11807
2.11116
2.10439
2.09706
2.08816
2.07736
2.06686
2.05913
2.05356
2.04865
2.04342
2.03701
2.02866
2.0174
2.00473
1.99318
1.98377
1.976
1.96858
1.96377
1.96569
1.97991
2.01275
2.06211
2.10446
2.10494
2.09678
2.08298
2.07198
2.07567
2.20279
2.11427
2.03198
1.95285
1.86719
1.78509
1.72799
1.68757
1.63568
1.57058
1.50568
1.47641
1.46929
1.46559
1.48613
1.55846
1.60824
1.64846
1.64665
1.64424
1.72136
2.07174
2.34078
2.3973
2.39295
2.38606
2.37676
2.36845
2.35986
2.35274
2.3498
2.35075
2.34608
2.33788
2.32718
2.31785
2.31095
2.30628
2.30384
2.29762
2.28968
2.27933
2.269
2.26072
2.25332
2.24611
2.23809
2.22919
2.22007
2.21187
2.20436
2.19683
2.18877
2.18054
2.17276
2.16539
2.15808
2.15054
2.1426
2.13405
2.12454
2.11422
2.10419
2.09504
2.08635
2.07782
2.06969
2.06225
2.0554
2.0486
2.04095
2.03171
2.0214
2.01241
2.00579
2.00069
1.99563
1.99011
1.98287
1.97321
1.96128
1.94913
1.94002
1.93281
1.92845
1.93192
1.94583
1.9831
2.02634
2.0689
2.08143
2.07554
2.0621
2.0458
2.03392
2.02375
2.2117
2.13747
2.06352
1.99464
1.92434
1.85265
1.78642
1.72822
1.68831
1.64351
1.58887
1.55018
1.56556
1.58958
1.63933
1.7028
1.71884
1.70995
1.70567
1.6947
1.69149
1.74652
2.0298
2.27811
2.34591
2.36344
2.35504
2.34052
2.32756
2.31805
2.31294
2.31333
2.31158
2.30407
2.29392
2.28289
2.27581
2.27053
2.2682
2.26268
2.25513
2.24472
2.23332
2.22522
2.21856
2.21261
2.20547
2.19706
2.18712
2.17732
2.16909
2.16179
2.15461
2.14696
2.13868
2.13029
2.12216
2.11413
2.10583
2.09687
2.08708
2.07706
2.06779
2.05931
2.05104
2.0425
2.03373
2.02535
2.01785
2.01098
2.00396
1.99592
1.98652
1.9769
1.96901
1.96277
1.95747
1.9518
1.94508
1.93651
1.92555
1.91383
1.90493
1.90173
1.90641
1.9212
1.95941
2.00446
2.03608
2.05583
2.05567
2.04833
2.03547
2.01988
2.00499
1.99165
2.21367
2.15042
2.08464
2.02383
1.96001
1.89732
1.83913
1.7802
1.72979
1.69527
1.66713
1.67391
1.72267
1.75179
1.77364
1.77989
1.77515
1.75752
1.75132
1.7519
1.73978
1.72973
1.76396
1.97926
2.21795
2.30604
2.33297
2.32047
2.30301
2.28848
2.2822
2.28142
2.28234
2.27637
2.26766
2.25553
2.24725
2.24164
2.2388
2.23419
2.22712
2.21716
2.20459
2.19607
2.1899
2.18505
2.17906
2.17164
2.16193
2.15084
2.14184
2.13462
2.12769
2.12031
2.1121
2.1034
2.09489
2.0866
2.07807
2.06881
2.05877
2.04875
2.03972
2.0316
2.02379
2.01567
2.00696
1.99798
1.98954
1.98206
1.97502
1.9676
1.95919
1.95027
1.94183
1.93451
1.92801
1.92154
1.91456
1.90658
1.89644
1.887
1.88404
1.88879
1.907
1.94478
1.99846
2.02343
2.03312
2.0312
2.0287
2.02121
2.01199
2.00148
1.98872
1.9727
2.21191
2.15849
2.09875
2.04364
1.99088
1.93067
1.86882
1.82171
1.78623
1.78186
1.78427
1.82576
1.87057
1.87362
1.8593
1.83543
1.82212
1.80625
1.79986
1.80192
1.79455
1.77075
1.75225
1.77472
1.93801
2.15712
2.26741
2.29541
2.28513
2.26562
2.25512
2.25227
2.25453
2.25123
2.24406
2.23275
2.22157
2.21542
2.21139
2.20757
2.20113
2.19247
2.17987
2.16969
2.16354
2.15904
2.15402
2.14765
2.13937
2.12879
2.11875
2.11059
2.10322
2.09577
2.08784
2.07957
2.07142
2.06332
2.05477
2.04534
2.03506
2.02494
2.01596
2.00803
2.00063
1.99319
1.98525
1.97655
1.96743
1.95865
1.95061
1.94309
1.93567
1.92815
1.92082
1.91339
1.90583
1.89769
1.88932
1.88102
1.87233
1.87208
1.87781
1.90109
1.94041
1.99596
2.02845
2.02722
2.01735
2.00794
2.00248
1.99801
1.99273
1.98648
1.97922
1.96347
2.20671
2.16096
2.10928
2.05465
2.00635
1.95749
1.90961
1.87374
1.89005
1.91177
1.91608
1.94182
1.94676
1.93374
1.90852
1.87867
1.86902
1.85449
1.84172
1.83829
1.83148
1.81349
1.78787
1.77197
1.78531
1.89647
2.09546
2.22292
2.25701
2.24785
2.23374
2.22646
2.22712
2.22703
2.22112
2.21219
2.19886
2.19026
2.18485
2.18079
2.17515
2.16813
2.15775
2.14598
2.13877
2.1338
2.12868
2.12291
2.11605
2.10728
2.09739
2.08803
2.07955
2.07156
2.06379
2.05629
2.04897
2.04137
2.033
2.02352
2.0132
2.00318
1.99434
1.98648
1.97922
1.97221
1.96498
1.95704
1.94825
1.93897
1.9298
1.92137
1.91407
1.90753
1.90131
1.8946
1.88737
1.87858
1.86864
1.86038
1.86063
1.86711
1.89481
1.9423
1.98932
2.02509
2.02553
2.02019
2.00467
1.99008
1.98247
1.97774
1.97631
1.97288
1.96777
1.95614
2.19876
2.15835
2.11301
2.06367
2.01957
1.98817
1.97735
1.98372
2.03243
2.03835
2.01554
2.00605
1.99192
1.97455
1.95275
1.92415
1.91241
1.90258
1.88096
1.86919
1.86261
1.84926
1.82821
1.80354
1.78989
1.79744
1.8629
2.02976
2.16752
2.21123
2.21185
2.20525
2.20168
2.20285
2.19774
2.19065
2.17854
2.16602
2.15898
2.15346
2.14838
2.14234
2.13455
2.12435
2.11562
2.10888
2.1027
2.09673
2.09036
2.08295
2.07433
2.06506
2.05579
2.04705
2.03931
2.03253
2.02599
2.01888
2.01061
2.00099
1.99074
1.98133
1.97314
1.96556
1.95811
1.95076
1.94355
1.93629
1.9287
1.92063
1.91196
1.90272
1.89358
1.88602
1.88015
1.87489
1.86886
1.86242
1.85489
1.85336
1.86019
1.88662
1.94011
1.97901
2.00817
2.01793
2.01529
2.00834
1.99621
1.98006
1.96764
1.96107
1.9574
1.9564
1.95361
1.94395
2.18793
2.1514
2.11202
2.07504
2.05299
2.0709
2.0861
2.10088
2.11963
2.10424
2.06762
2.04038
2.0223
2.01086
1.99543
1.96826
1.94499
1.93616
1.91789
1.90057
1.89117
1.87709
1.85812
1.83636
1.81675
1.80211
1.80404
1.83376
1.95687
2.09846
2.16534
2.1739
2.17839
2.17857
2.17401
2.16648
2.15642
2.14262
2.13306
2.12669
2.1212
2.11516
2.10857
2.10097
2.09274
2.08474
2.07714
2.06979
2.06264
2.05544
2.04788
2.03969
2.03084
2.02198
2.01431
2.00797
2.00193
1.99523
1.98702
1.97699
1.96654
1.95795
1.951
1.94442
1.93734
1.92943
1.92117
1.91358
1.9069
1.90043
1.8936
1.88567
1.87574
1.86521
1.85809
1.85327
1.8494
1.84856
1.85247
1.86586
1.8949
1.94655
1.98056
1.9934
2.00029
2.00132
1.99874
1.9924
1.98441
1.97307
1.95859
1.94741
1.94119
1.93714
1.93683
1.92899
2.17438
2.14282
2.11586
2.11779
2.14598
2.18932
2.1812
2.17205
2.16361
2.13875
2.10433
2.07247
2.05304
2.04254
2.02976
2.00691
1.97565
1.95984
1.94832
1.93053
1.91801
1.9026
1.88267
1.86098
1.84349
1.82555
1.80621
1.80635
1.81368
1.88743
2.02354
2.10757
2.13351
2.15034
2.15003
2.1421
2.13038
2.11629
2.10602
2.0998
2.09398
2.08731
2.0803
2.07334
2.06645
2.05944
2.05167
2.04283
2.03381
2.02579
2.01864
2.01154
2.00382
1.99555
1.98789
1.9816
1.97593
1.96982
1.9621
1.95179
1.94041
1.93205
1.92645
1.92146
1.91592
1.90879
1.8994
1.88919
1.88153
1.8763
1.87153
1.8663
1.85927
1.8484
1.83612
1.83057
1.83148
1.84041
1.86576
1.90531
1.95329
1.99317
1.99655
1.99024
1.98294
1.97803
1.97568
1.9721
1.96684
1.95965
1.94952
1.93727
1.928
1.92204
1.91868
1.91122
2.16236
2.15364
2.17401
2.21251
2.25418
2.25435
2.22225
2.19842
2.18166
2.16193
2.13499
2.10297
2.08056
2.06898
2.05654
2.03662
2.00662
1.98041
1.97047
1.95522
1.93916
1.92228
1.90089
1.88045
1.86003
1.84403
1.82452
1.80424
1.7905
1.79156
1.83058
1.94174
2.04067
2.08986
2.11587
2.11381
2.10108
2.08618
2.07721
2.07182
2.06649
2.05891
2.04976
2.04226
2.03647
2.03073
2.02373
2.01464
2.00415
1.9952
1.98841
1.98216
1.97545
1.96771
1.95952
1.9526
1.94706
1.94168
1.93517
1.92602
1.91412
1.90463
1.89957
1.89581
1.89188
1.88671
1.87843
1.86609
1.85563
1.8505
1.84704
1.84366
1.83948
1.8317
1.81972
1.81808
1.82581
1.85542
1.90468
1.9464
1.98587
1.99186
1.98857
1.97908
1.96576
1.95738
1.95219
1.94919
1.94651
1.94156
1.93489
1.92618
1.91575
1.90676
1.90121
1.89208
2.17243
2.21603
2.27597
2.29993
2.30209
2.27938
2.24111
2.21247
2.19611
2.18121
2.15792
2.12651
2.10216
2.08904
2.07752
2.05957
2.03268
2.00078
1.98444
1.97363
1.9565
1.93769
1.91375
1.8917
1.87374
1.85519
1.83849
1.81766
1.79476
1.77881
1.76866
1.7835
1.85945
1.96294
2.04188
2.06402
2.06115
2.05566
2.05056
2.04554
2.03887
2.03021
2.01751
2.00903
2.00458
1.99967
1.99331
1.98492
1.97434
1.96518
1.9592
1.95387
1.94789
1.9404
1.93114
1.92267
1.91688
1.91198
1.90665
1.89958
1.88918
1.8779
1.87145
1.86801
1.86494
1.86137
1.85565
1.84489
1.83127
1.82342
1.82015
1.81758
1.81554
1.81461
1.81605
1.82543
1.8539
1.9054
1.9386
1.96141
1.97531
1.97588
1.9711
1.96325
1.95293
1.94107
1.93255
1.92756
1.92438
1.92111
1.91609
1.90982
1.90189
1.89109
1.8828
1.8725
2.25087
2.31692
2.34276
2.32504
2.30676
2.28053
2.24915
2.22394
2.20914
2.19517
2.17336
2.1437
2.1191
2.10386
2.09149
2.0749
2.0497
2.01742
1.99546
1.98424
1.96934
1.94985
1.92545
1.89751
1.87845
1.86141
1.84393
1.82679
1.80633
1.78195
1.76111
1.74829
1.75082
1.79253
1.88637
1.97521
2.00358
2.01406
2.02279
2.02113
2.01383
2.00308
1.98885
1.97816
1.97371
1.96973
1.96446
1.95683
1.94586
1.93643
1.93086
1.92602
1.92064
1.91367
1.90417
1.89392
1.88699
1.88215
1.87737
1.8719
1.86438
1.85407
1.84498
1.84021
1.83702
1.83413
1.83025
1.82323
1.81118
1.79754
1.79336
1.79204
1.79461
1.80562
1.82877
1.86508
1.91549
1.94692
1.95012
1.95333
1.95187
1.95103
1.94686
1.94175
1.93574
1.92672
1.91527
1.9072
1.90279
1.89952
1.89593
1.89096
1.88486
1.87603
1.86628
1.85447
2.34381
2.36888
2.33968
2.3172
2.29945
2.27873
2.25282
2.23088
2.2163
2.20178
2.18171
2.15407
2.13055
2.11326
2.09763
2.08179
2.05897
2.0286
2.00393
1.98941
1.97602
1.95683
1.9337
1.90537
1.87904
1.86313
1.84755
1.83124
1.81424
1.79356
1.76777
1.74091
1.72838
1.7295
1.74829
1.81605
1.90095
1.95476
1.97953
1.99
1.98827
1.98064
1.97104
1.96042
1.95272
1.94647
1.94039
1.93309
1.9237
1.9169
1.91054
1.90494
1.89945
1.89257
1.88298
1.87148
1.86248
1.85774
1.85366
1.84864
1.84216
1.83244
1.82257
1.81752
1.81507
1.81168
1.80673
1.79954
1.78918
1.77752
1.77471
1.77655
1.78799
1.82161
1.86726
1.91212
1.94871
1.95007
1.94578
1.93674
1.92939
1.92521
1.92274
1.91996
1.91652
1.91132
1.90174
1.89074
1.88487
1.88129
1.87857
1.87516
1.87066
1.86474
1.85649
1.84315
2.37817
2.35572
2.32506
2.30483
2.29249
2.27729
2.2543
2.23364
2.21953
2.20514
2.186
2.15906
2.13624
2.11903
2.10006
2.08332
2.06345
2.03623
2.00983
1.99264
1.978
1.96023
1.93788
1.91201
1.88499
1.86455
1.85036
1.83543
1.81944
1.80179
1.77943
1.7527
1.72902
1.71752
1.71561
1.72378
1.76625
1.83947
1.91457
1.94535
1.9592
1.96812
1.96668
1.95786
1.9445
1.93039
1.92056
1.91514
1.91012
1.90281
1.89461
1.88668
1.87901
1.87122
1.86239
1.85223
1.84277
1.83475
1.82852
1.82343
1.81874
1.81473
1.80811
1.79891
1.78909
1.78163
1.77455
1.77106
1.76954
1.76772
1.76999
1.78482
1.8222
1.87167
1.90242
1.93049
1.93911
1.93795
1.93376
1.92346
1.91386
1.90941
1.90678
1.9052
1.90249
1.89878
1.89212
1.882
1.87425
1.87004
1.86719
1.86532
1.8622
1.85809
1.85222
1.8395
2.38919
2.35719
2.32634
2.30652
2.29551
2.28015
2.25542
2.23256
2.21858
2.20515
2.18661
2.16056
2.13766
2.12212
2.10254
2.08326
2.06539
2.04179
2.0151
1.99462
1.97815
1.96176
1.943
1.92045
1.89525
1.8721
1.85356
1.83892
1.82494
1.81123
1.79605
1.77598
1.7518
1.73083
1.71675
1.7164
1.71935
1.74107
1.79992
1.87665
1.92184
1.9542
1.96491
1.96256
1.95265
1.93637
1.92215
1.91581
1.90982
1.90268
1.89486
1.88538
1.87464
1.86457
1.85631
1.84906
1.84052
1.82944
1.8196
1.81389
1.80904
1.80337
1.7974
1.7888
1.77707
1.7656
1.75926
1.7578
1.7595
1.77008
1.79506
1.83779
1.88794
1.90672
1.91766
1.92882
1.93252
1.93029
1.92551
1.9175
1.90827
1.904
1.90169
1.8998
1.89639
1.89235
1.88772
1.88072
1.87276
1.86887
1.86636
1.86388
1.8609
1.85646
1.85098
1.83999
2.4571
2.39962
2.35313
2.32537
2.31209
2.29302
2.2655
2.24244
2.2276
2.21269
2.19188
2.16472
2.1412
2.12586
2.10859
2.08714
2.06765
2.04713
2.02377
2.00234
1.98549
1.96953
1.95237
1.93285
1.91261
1.89189
1.87396
1.85983
1.84804
1.83601
1.82139
1.80347
1.78667
1.77325
1.76013
1.74774
1.73445
1.73117
1.7403
1.77934
1.84627
1.90965
1.95975
1.96818
1.96651
1.95266
1.93636
1.92635
1.91879
1.91144
1.90206
1.88951
1.87658
1.86752
1.86019
1.85256
1.84337
1.83126
1.82001
1.81337
1.80749
1.80096
1.79314
1.78374
1.77292
1.76062
1.7588
1.76085
1.7774
1.8167
1.86131
1.90753
1.92608
1.92626
1.92863
1.93087
1.93189
1.93033
1.92623
1.9205
1.91234
1.90431
1.89985
1.89797
1.89791
1.89639
1.89319
1.88824
1.88083
1.87236
1.86515
1.86112
1.8588
1.85711
1.85514
1.84791
2.5307
2.4719
2.42494
2.39075
2.36799
2.3375
2.3019
2.27414
2.25839
2.24195
2.21753
2.18931
2.1672
2.15202
2.13649
2.11603
2.09359
2.07383
2.05038
2.02736
2.0077
1.99125
1.97937
1.96785
1.95109
1.92935
1.90967
1.89305
1.87691
1.86186
1.85106
1.84298
1.83079
1.81174
1.79342
1.78025
1.76881
1.75854
1.75244
1.754
1.77398
1.82711
1.90226
1.96662
1.97982
1.97204
1.95918
1.9472
1.93857
1.92983
1.91782
1.90105
1.88695
1.8789
1.87171
1.86334
1.85388
1.8415
1.82677
1.81755
1.81047
1.80276
1.79441
1.78654
1.77857
1.76921
1.77171
1.79386
1.8435
1.88839
1.92262
1.94688
1.9506
1.94836
1.94272
1.93792
1.93497
1.93326
1.9315
1.92898
1.92429
1.91661
1.90971
1.90597
1.90411
1.90283
1.90109
1.89802
1.89279
1.88449
1.87613
1.87083
1.86741
1.86418
1.86175
1.85628
2.62023
2.57571
2.5313
2.48997
2.45199
2.41198
2.37411
2.3426
2.32081
2.29928
2.26979
2.23822
2.21409
2.1972
2.18041
2.16087
2.1376
2.11415
2.0968
2.07971
2.06271
2.04656
2.02793
2.00653
1.9883
1.97535
1.96096
1.94485
1.92894
1.91304
1.89633
1.88065
1.86843
1.85601
1.83941
1.82269
1.8097
1.80069
1.78711
1.77633
1.76897
1.7753
1.81097
1.88309
1.95065
1.98127
1.97657
1.9752
1.9698
1.95846
1.94191
1.92094
1.90405
1.89515
1.88795
1.88035
1.87039
1.85868
1.84323
1.8284
1.81778
1.8089
1.80186
1.79793
1.79257
1.80179
1.83262
1.88409
1.92895
1.94718
1.96514
1.97751
1.9768
1.97236
1.96321
1.9537
1.94919
1.94741
1.94685
1.94558
1.94298
1.9388
1.93259
1.92621
1.92197
1.91907
1.91614
1.91258
1.90837
1.90326
1.89746
1.89152
1.88671
1.88266
1.87946
1.87364
2.65766
2.63404
2.6029
2.57011
2.53481
2.49698
2.45996
2.42618
2.39842
2.37184
2.34014
2.30832
2.28371
2.26546
2.24588
2.22376
2.19786
2.17173
2.15147
2.13331
2.11674
2.09992
2.08026
2.0576
2.03602
2.01704
2.00042
1.98524
1.97118
1.9567
1.93959
1.92014
1.90159
1.88625
1.87339
1.86044
1.84633
1.83067
1.81594
1.80031
1.78526
1.77615
1.77984
1.80222
1.86277
1.93601
1.97399
1.99452
1.99344
1.98288
1.96386
1.94298
1.92556
1.91438
1.90661
1.89972
1.89032
1.87924
1.86532
1.84693
1.83227
1.82396
1.82046
1.82444
1.84271
1.8871
1.9404
1.97933
1.99105
1.99858
2.00342
2.00375
2.00022
1.99622
1.99174
1.9837
1.97743
1.97482
1.97303
1.97115
1.96846
1.96565
1.96215
1.95645
1.95043
1.94578
1.94166
1.9375
1.93338
1.9293
1.92505
1.91994
1.91461
1.90993
1.90633
1.90024
2.66421
2.65105
2.63283
2.61157
2.5852
2.5557
2.52599
2.49891
2.47353
2.44498
2.41268
2.38195
2.35696
2.33726
2.31396
2.28704
2.25731
2.23233
2.21296
2.19363
2.17436
2.15458
2.13278
2.10927
2.0865
2.06648
2.04932
2.03352
2.01732
1.99928
1.97889
1.95754
1.93854
1.92327
1.9101
1.89652
1.88151
1.86403
1.84561
1.82628
1.8105
1.79599
1.7865
1.78284
1.79444
1.84172
1.91047
1.96582
1.99255
1.99212
1.98204
1.96674
1.94876
1.93252
1.92127
1.91376
1.90655
1.89628
1.88365
1.86898
1.85514
1.85195
1.85464
1.88137
1.94253
1.9932
2.02983
2.04552
2.04119
2.03577
2.0314
2.0288
2.02801
2.02754
2.02549
2.0201
2.01255
2.00797
2.00517
2.00259
2.00012
1.9976
1.99456
1.98965
1.9831
1.97746
1.97298
1.96888
1.96496
1.96109
1.95707
1.95225
1.94646
1.9406
1.93641
1.9302
2.66112
2.65078
2.63514
2.61761
2.59814
2.57836
2.55899
2.5394
2.51662
2.48981
2.4615
2.43489
2.41261
2.39224
2.36638
2.33682
2.30776
2.28474
2.2645
2.24403
2.22261
2.19957
2.17444
2.14945
2.12745
2.10827
2.09039
2.07243
2.05324
2.03203
2.00945
1.98798
1.96947
1.95343
1.93838
1.923
1.90647
1.88816
1.86845
1.84836
1.8304
1.81496
1.8006
1.78897
1.77982
1.78508
1.81272
1.87851
1.94567
1.98457
1.98942
1.98294
1.96887
1.9504
1.93108
1.92014
1.91247
1.90454
1.8969
1.88946
1.88388
1.88533
1.92182
1.99408
2.04225
2.06954
2.08825
2.08731
2.07972
2.06954
2.06415
2.06162
2.06029
2.05913
2.05624
2.052
2.04606
2.04084
2.03766
2.03485
2.03217
2.02926
2.02563
2.02046
2.01352
2.00735
2.00311
1.99946
1.99582
1.99203
1.98792
1.98292
1.97665
1.96999
1.96582
1.95984
2.65275
2.64367
2.63124
2.61793
2.60352
2.58828
2.57161
2.55244
2.53052
2.50744
2.48483
2.46395
2.44489
2.42201
2.39443
2.36608
2.34161
2.32086
2.29953
2.27696
2.25318
2.22788
2.20239
2.17895
2.15805
2.13856
2.11928
2.09929
2.07789
2.05515
2.03214
2.01048
1.991
1.97335
1.95672
1.94029
1.92321
1.90487
1.88503
1.86438
1.84448
1.82705
1.81149
1.79735
1.78299
1.77555
1.77037
1.78713
1.84326
1.91588
1.95919
1.97703
1.97337
1.96101
1.94142
1.92228
1.91165
1.90617
1.90667
1.90503
1.91517
1.96541
2.04424
2.08855
2.09935
2.10789
2.11403
2.11238
2.10813
2.10134
2.09353
2.08918
2.08635
2.08414
2.08145
2.07847
2.07474
2.06933
2.06457
2.06106
2.05763
2.05404
2.05008
2.04528
2.03896
2.03269
2.02833
2.02465
2.02089
2.01693
2.01268
2.00766
2.00148
1.99507
1.99102
1.98463
2.64818
2.63859
2.62655
2.61422
2.60065
2.58594
2.56964
2.5515
2.53229
2.5124
2.49273
2.47431
2.45513
2.43116
2.405
2.38101
2.3602
2.34026
2.31801
2.29432
2.26891
2.24353
2.2199
2.19796
2.17709
2.15661
2.13587
2.11445
2.09215
2.06926
2.04647
2.02461
2.00409
1.98492
1.96686
1.94956
1.93234
1.91453
1.8953
1.87483
1.85386
1.83474
1.8181
1.80395
1.78946
1.77557
1.76657
1.75456
1.76013
1.80828
1.88291
1.9466
1.9659
1.96271
1.94902
1.92823
1.91247
1.9081
1.91231
1.93808
2.00132
2.08133
2.12716
2.13211
2.12666
2.12398
2.12485
2.12567
2.12343
2.11922
2.11212
2.10653
2.10385
2.10166
2.09939
2.09639
2.09248
2.08688
2.08123
2.07746
2.07438
2.07126
2.0678
2.06344
2.05731
2.05052
2.04557
2.0417
2.03794
2.03411
2.03
2.02508
2.01881
2.01228
2.00778
2.00048
2.65057
2.63958
2.62651
2.6133
2.59918
2.58409
2.56766
2.55009
2.53181
2.51354
2.49559
2.47718
2.45554
2.43127
2.40742
2.38599
2.3676
2.34672
2.32399
2.29976
2.27489
2.25119
2.22869
2.20704
2.18565
2.16412
2.14225
2.12012
2.09782
2.07557
2.05366
2.03238
2.01172
1.99165
1.97221
1.95373
1.93598
1.91838
1.90015
1.88114
1.86115
1.84097
1.82182
1.80704
1.79531
1.78181
1.76695
1.75145
1.73727
1.74167
1.77947
1.85283
1.91642
1.94919
1.94797
1.93103
1.91655
1.91913
1.94925
2.01973
2.09647
2.14348
2.14705
2.14255
2.13641
2.13249
2.13134
2.13151
2.12992
2.12674
2.12191
2.11653
2.11333
2.11091
2.10815
2.10486
2.10092
2.09636
2.09177
2.088
2.08472
2.0813
2.07722
2.07199
2.0657
2.05984
2.05543
2.05175
2.04814
2.0443
2.03985
2.03426
2.02738
2.02068
2.01598
2.00834
2.65573
2.64375
2.62964
2.61555
2.60064
2.58491
2.56821
2.55089
2.53322
2.51555
2.49732
2.47723
2.45462
2.43099
2.40857
2.3895
2.37064
2.34855
2.32471
2.30083
2.27761
2.25513
2.23317
2.21127
2.18913
2.16671
2.14414
2.12166
2.09948
2.07789
2.05699
2.03671
2.01669
1.99664
1.97631
1.95616
1.93678
1.91843
1.9007
1.88365
1.86637
1.84838
1.82984
1.81083
1.79218
1.77491
1.75992
1.74628
1.73523
1.72469
1.72544
1.75316
1.81568
1.88943
1.92348
1.92058
1.93252
1.97188
2.04106
2.10323
2.14082
2.1596
2.15625
2.14778
2.14088
2.13689
2.13489
2.13324
2.13168
2.12928
2.12632
2.1225
2.1186
2.11558
2.11264
2.10939
2.1058
2.10191
2.09776
2.09335
2.08902
2.08465
2.07997
2.07512
2.07041
2.06596
2.06166
2.05742
2.05323
2.04883
2.04376
2.03793
2.03146
2.02514
2.02043
2.01271
2.66013
2.6479
2.63345
2.61882
2.60332
2.58717
2.57039
2.55314
2.53536
2.51691
2.4973
2.47624
2.4545
2.43313
2.41304
2.39368
2.37132
2.34746
2.32356
2.30175
2.27985
2.25805
2.23606
2.21355
2.19057
2.16755
2.14472
2.12218
2.10006
2.07874
2.05841
2.03899
2.01989
2.00046
1.98008
1.95879
1.93712
1.91676
1.89853
1.88199
1.86658
1.85135
1.83474
1.8154
1.79471
1.77517
1.75821
1.74327
1.73067
1.71897
1.70957
1.70657
1.72681
1.78707
1.86271
1.91708
1.98854
2.06487
2.11877
2.13701
2.14538
2.15144
2.15182
2.14706
2.14327
2.13908
2.13571
2.13368
2.13191
2.12994
2.1277
2.1248
2.121
2.11759
2.1145
2.11127
2.10789
2.10426
2.09993
2.09474
2.08964
2.0853
2.0812
2.07709
2.07307
2.06914
2.06492
2.06006
2.05487
2.04992
2.04494
2.03967
2.03384
2.02779
2.023
2.01514
2.6609
2.64928
2.63511
2.62058
2.60512
2.58905
2.57235
2.555
2.53672
2.51728
2.49681
2.47601
2.45579
2.43659
2.41802
2.39564
2.37134
2.34707
2.32446
2.30339
2.28262
2.26077
2.23836
2.21511
2.19142
2.16803
2.14512
2.12253
2.10027
2.07892
2.05903
2.04054
2.02268
2.00442
1.98419
1.96078
1.93557
1.91285
1.89502
1.88067
1.86801
1.85523
1.84012
1.8192
1.79292
1.76937
1.75322
1.74222
1.73183
1.72068
1.70803
1.69046
1.68266
1.70346
1.78003
1.91853
2.03729
2.13232
2.18976
2.18027
2.15775
2.14961
2.1473
2.14513
2.14276
2.13901
2.13473
2.133
2.13145
2.12985
2.12792
2.12565
2.12242
2.11872
2.11531
2.11201
2.10855
2.10475
2.1002
2.09473
2.08939
2.08516
2.08159
2.0782
2.07472
2.07079
2.0659
2.06028
2.05482
2.04991
2.04512
2.0403
2.03501
2.0292
2.02427
2.0162
)
;

boundaryField
{
    inlet
    {
        type            fixedValue;
        value           uniform 1;
    }
    outlet
    {
        type            inletOutlet;
        inletValue      uniform 1;
        value           nonuniform List<scalar> 
32
(
2.45715
2.42107
2.34482
2.24028
2.14754
2.07696
2.02471
1.99206
1.97257
1.96252
1.95563
1.94405
1.92933
1.91176
1.89242
1.87268
1.85453
1.84278
1.83877
1.83939
1.84768
1.85658
1.87372
1.90026
1.93034
1.96015
1.98492
2.00063
2.00849
2.01295
2.0154
2.01642
)
;
    }
    bottom
    {
        type            symmetryPlane;
    }
    top
    {
        type            symmetryPlane;
    }
    obstacle
    {
        type            zeroGradient;
    }
    defaultFaces
    {
        type            empty;
    }
}


// ************************************************************************* //
