/*--------------------------------*- C++ -*----------------------------------*\
  =========                 |
  \\      /  F ield         | OpenFOAM: The Open Source CFD Toolbox
   \\    /   O peration     | Website:  https://openfoam.org
    \\  /    A nd           | Version:  7
     \\/     M anipulation  |
\*---------------------------------------------------------------------------*/
FoamFile
{
    version     2.0;
    format      ascii;
    class       volVectorField;
    location    "7.5";
    object      U;
}
// * * * * * * * * * * * * * * * * * * * * * * * * * * * * * * * * * * * * * //

dimensions      [0 1 -1 0 0 0 0];

internalField   nonuniform List<vector> 
4032
(
(3 -2.79076e-16 0)
(3 -1.51037e-16 0)
(3 2.28913e-16 0)
(3 2.24599e-16 0)
(3 1.38958e-16 0)
(3 1.79697e-16 0)
(3 1.17663e-16 0)
(3 -2.51757e-16 0)
(3 2.62929e-16 0)
(3 7.09808e-16 0)
(3 5.5367e-16 0)
(2.89893 0.00321383 0)
(0.987618 0.0160141 0)
(0.709617 0.0193705 0)
(0.6579 0.0242231 0)
(0.598045 0.0256669 0)
(0.53906 0.0268438 0)
(0.478259 0.0281451 0)
(0.415728 0.0296194 0)
(0.350827 0.0313928 0)
(0.283021 0.033379 0)
(0.210684 0.0364232 0)
(0.132055 0.0390801 0)
(0.0494569 0.0445541 0)
(3 -3.87616e-16 0)
(3 -2.77031e-16 0)
(3 -2.00183e-16 0)
(3 7.81688e-17 0)
(3 -2.48576e-17 0)
(3 7.86671e-17 0)
(3 5.2852e-17 0)
(3 -8.56907e-17 0)
(3 2.37164e-16 0)
(3 1.14187e-15 0)
(3 1.22382e-15 0)
(2.90889 0.0202724 0)
(0.99345 0.0741893 0)
(0.695326 0.0666553 0)
(0.641284 0.070853 0)
(0.582603 0.0753764 0)
(0.523924 0.0797554 0)
(0.462926 0.084374 0)
(0.399901 0.0891002 0)
(0.334737 0.0945776 0)
(0.267468 0.100493 0)
(0.197461 0.110142 0)
(0.122274 0.11881 0)
(0.0460007 0.134571 0)
(3 -1.55423e-17 0)
(3 -1.97031e-16 0)
(3 -3.06726e-18 0)
(3 5.5809e-17 0)
(3 5.17829e-17 0)
(3 2.77981e-16 0)
(3 2.91143e-16 0)
(3 1.06915e-15 0)
(3 1.25821e-15 0)
(3 1.35871e-15 0)
(3 1.13143e-15 0)
(2.95308 0.0412729 0)
(1.03094 0.137813 0)
(0.710671 0.115905 0)
(0.656307 0.122509 0)
(0.595647 0.129902 0)
(0.534874 0.137416 0)
(0.471749 0.145428 0)
(0.406151 0.153344 0)
(0.337873 0.161967 0)
(0.266986 0.170018 0)
(0.194462 0.183463 0)
(0.117748 0.195049 0)
(0.0438345 0.217451 0)
(3 1.17585e-16 0)
(3 -9.86098e-17 0)
(3 2.47151e-16 0)
(3 2.65385e-16 0)
(3 4.21302e-16 0)
(3 4.08317e-16 0)
(3 3.21038e-16 0)
(3 2.47347e-16 0)
(3 5.72764e-16 0)
(3 7.44916e-16 0)
(3 4.63442e-16 0)
(3.00861 0.00653126 0)
(1.1062 0.182319 0)
(0.743805 0.152622 0)
(0.692451 0.166602 0)
(0.633002 0.178538 0)
(0.572002 0.190058 0)
(0.508243 0.202802 0)
(0.440677 0.216049 0)
(0.368491 0.231029 0)
(0.291046 0.244216 0)
(0.211342 0.262727 0)
(0.126953 0.276972 0)
(0.0459479 0.302487 0)
(3 -1.97546e-16 0)
(3 8.51078e-17 0)
(3 -9.16856e-17 0)
(3 5.80338e-18 0)
(3 -2.18013e-16 0)
(3 -7.51957e-16 0)
(3 -7.83884e-16 0)
(3 -5.26577e-16 0)
(3 -2.83406e-16 0)
(3 -3.29347e-16 0)
(3 7.34479e-16 0)
(3.00063 3.20807e-05 0)
(1.21417 0.224382 0)
(0.750312 0.197059 0)
(0.69606 0.21793 0)
(0.639931 0.2344 0)
(0.581487 0.249357 0)
(0.521131 0.266839 0)
(0.457257 0.285648 0)
(0.389389 0.307285 0)
(0.314769 0.325346 0)
(0.235754 0.348537 0)
(0.145652 0.367804 0)
(0.055006 0.39949 0)
(3 -1.66984e-17 0)
(3 3.66985e-16 0)
(3 4.08196e-16 0)
(3 2.96478e-16 0)
(3 -1.93114e-16 0)
(3 -5.18311e-16 0)
(3 -1.11267e-15 0)
(3 -3.20821e-16 0)
(3 -1.53379e-16 0)
(3 7.90726e-17 0)
(3 7.99016e-16 0)
(3 -1.27443e-07 0)
(1.3932 0.274571 0)
(0.765572 0.245182 0)
(0.697378 0.262067 0)
(0.648428 0.281329 0)
(0.598227 0.298996 0)
(0.547737 0.320367 0)
(0.492344 0.344563 0)
(0.430591 0.374971 0)
(0.355374 0.405296 0)
(0.268505 0.443137 0)
(0.166294 0.4784 0)
(0.056195 0.517367 0)
(3 -8.39574e-17 0)
(3 -4.58774e-16 0)
(3 4.03955e-17 0)
(3 2.93161e-16 0)
(3 8.49791e-17 0)
(3 2.84182e-16 0)
(3 3.8606e-16 0)
(3 -2.42872e-16 0)
(3 -3.32878e-16 0)
(3 -2.37715e-16 0)
(3 3.91996e-16 0)
(3 -1.2807e-07 0)
(1.66659 0.325787 0)
(0.795859 0.308934 0)
(0.696891 0.308672 0)
(0.64617 0.325383 0)
(0.598177 0.34373 0)
(0.554821 0.369958 0)
(0.508497 0.402357 0)
(0.459251 0.444896 0)
(0.397951 0.492008 0)
(0.326759 0.543775 0)
(0.233539 0.594742 0)
(0.101486 0.660441 0)
(3 -7.47934e-17 0)
(3 -3.763e-16 0)
(3 -3.77958e-16 0)
(3 -2.82833e-16 0)
(3 -4.11584e-16 0)
(3 -2.53065e-16 0)
(3 1.39588e-16 0)
(3 1.59104e-16 0)
(3 2.50057e-17 0)
(3 -9.64674e-17 0)
(3 -1.29326e-16 0)
(3 -2.67726e-08 0)
(2.06883 0.367625 0)
(0.851843 0.394076 0)
(0.716766 0.370104 0)
(0.66716 0.379122 0)
(0.620313 0.392451 0)
(0.579668 0.416808 0)
(0.54071 0.452315 0)
(0.502142 0.501204 0)
(0.457949 0.560553 0)
(0.395871 0.64158 0)
(0.275656 0.757675 0)
(0.151683 0.924854 0)
(3 2.88345e-16 0)
(3 1.0903e-15 0)
(3 5.42505e-16 0)
(3 3.58426e-16 0)
(3 5.43292e-16 0)
(3 2.85202e-16 0)
(3 5.0324e-17 0)
(3 -1.55432e-16 0)
(3 8.91083e-17 0)
(3 6.74659e-16 0)
(3 5.7231e-16 0)
(3 -2.77952e-09 0)
(2.65242 0.304378 0)
(0.983445 0.477852 0)
(0.803151 0.406316 0)
(0.751476 0.414819 0)
(0.69403 0.433345 0)
(0.642734 0.459564 0)
(0.600014 0.496822 0)
(0.563834 0.550114 0)
(0.530092 0.626904 0)
(0.497192 0.751072 0)
(0.465857 0.923309 0)
(0.579653 1.20431 0)
(3 -3.28036e-17 0)
(3 -1.11892e-16 0)
(3 -6.14885e-17 0)
(3 -2.03922e-17 0)
(3 7.48121e-16 0)
(3 6.58939e-16 0)
(3 8.84396e-16 0)
(3 6.89126e-16 0)
(3 7.7609e-16 0)
(3 1.31616e-15 0)
(3 1.30115e-15 0)
(3 -1.1245e-10 0)
(3.07698 0.0432858 0)
(1.21816 0.469502 0)
(0.882319 0.44745 0)
(0.838765 0.473748 0)
(0.785281 0.489666 0)
(0.731039 0.511221 0)
(0.682771 0.544892 0)
(0.644045 0.597113 0)
(0.624696 0.681688 0)
(0.623673 0.81658 0)
(0.686891 0.96559 0)
(0.970395 1.13835 0)
(3 1.80466e-16 0)
(3 -7.56165e-16 0)
(3 -7.67099e-16 0)
(3 -5.33623e-16 0)
(3 1.23209e-16 0)
(3 1.22162e-16 0)
(3 3.82374e-16 0)
(3 6.06422e-16 0)
(3 3.51686e-16 0)
(3 2.20081e-16 0)
(3 1.46581e-16 0)
(3 -2.36155e-12 0)
(3.00879 8.41242e-05 0)
(1.43441 0.462044 0)
(0.884584 0.512118 0)
(0.83686 0.531417 0)
(0.801043 0.550849 0)
(0.772598 0.575552 0)
(0.74514 0.607764 0)
(0.720665 0.651834 0)
(0.723572 0.725704 0)
(0.751382 0.840133 0)
(0.873094 0.963305 0)
(1.1792 1.06962 0)
(3 4.57588e-17 0)
(3 -8.46745e-17 0)
(3 1.80349e-16 0)
(3 3.68534e-16 0)
(3 3.77364e-17 0)
(3 1.86267e-16 0)
(3 -3.91043e-18 0)
(3 2.19591e-16 0)
(3 2.43424e-16 0)
(3 -1.63886e-16 0)
(3 -2.67746e-16 0)
(3 -2.19154e-14 0)
(3.00006 -2.56995e-06 0)
(1.9395 0.49416 0)
(0.928982 0.576388 0)
(0.853571 0.560321 0)
(0.834012 0.581965 0)
(0.819558 0.607555 0)
(0.809549 0.64228 0)
(0.801948 0.682767 0)
(0.817754 0.74615 0)
(0.867186 0.837512 0)
(1.01038 0.939696 0)
(1.27429 1.00703 0)
(3 -4.02719e-16 0)
(3 -2.01245e-16 0)
(3 1.24874e-16 0)
(3 2.4221e-16 0)
(3 -2.95013e-16 0)
(3 -1.13558e-16 0)
(3 3.31819e-16 0)
(3 3.32058e-16 0)
(3 8.14174e-16 0)
(3 1.02422e-15 0)
(3 8.01978e-16 0)
(3 1.73334e-15 0)
(3.00001 -3.28117e-06 0)
(2.74323 0.321085 0)
(1.09545 0.635093 0)
(0.920306 0.58117 0)
(0.891085 0.60188 0)
(0.873441 0.630732 0)
(0.869831 0.668976 0)
(0.876358 0.711059 0)
(0.901511 0.765616 0)
(0.966403 0.834742 0)
(1.10552 0.906821 0)
(1.31779 0.947916 0)
(3 -4.74267e-17 0)
(3 -1.58923e-18 0)
(3 -1.09298e-16 0)
(3 1.39531e-17 0)
(3 6.53538e-17 0)
(3 2.37718e-16 0)
(3 2.0966e-16 0)
(3 3.58962e-16 0)
(3 2.46645e-16 0)
(3 2.5915e-16 0)
(3 6.10396e-16 0)
(3 1.15527e-15 0)
(3 -6.93099e-07 0)
(3.07486 0.0264852 0)
(1.43526 0.632167 0)
(1.00243 0.652198 0)
(0.950933 0.651934 0)
(0.924995 0.666382 0)
(0.923113 0.693935 0)
(0.939319 0.730231 0)
(0.974375 0.773692 0)
(1.04768 0.827644 0)
(1.17477 0.879454 0)
(1.34795 0.906187 0)
(3 1.22134e-16 0)
(3 1.35072e-16 0)
(3 6.78848e-17 0)
(3 -9.22665e-17 0)
(3 8.87122e-17 0)
(3 2.44561e-16 0)
(3 1.81935e-16 0)
(3 3.32318e-16 0)
(3 4.52679e-16 0)
(3 7.72102e-16 0)
(3 1.16819e-15 0)
(3 9.31114e-16 0)
(3 -7.03774e-08 0)
(3.00422 7.50726e-05 0)
(1.98665 0.600219 0)
(1.06368 0.724186 0)
(1.01133 0.702024 0)
(0.995012 0.699252 0)
(0.991264 0.71538 0)
(1.00596 0.74201 0)
(1.04418 0.777884 0)
(1.11498 0.816525 0)
(1.22235 0.84989 0)
(1.36049 0.865738 0)
(3 -2.68705e-16 0)
(3 -1.90765e-16 0)
(3 9.01573e-17 0)
(3 2.85057e-16 0)
(3 7.21294e-16 0)
(3 1.20789e-15 0)
(3 1.13736e-15 0)
(3 9.26614e-16 0)
(3 1.4526e-15 0)
(3 2.86578e-15 0)
(3 3.23955e-15 0)
(3 2.11473e-15 0)
(3 -2.22712e-09 0)
(3.00001 -3.35084e-07 0)
(2.93017 0.223523 0)
(1.28084 0.698361 0)
(1.08264 0.719302 0)
(1.08727 0.720534 0)
(1.08161 0.740677 0)
(1.08673 0.762152 0)
(1.11464 0.788361 0)
(1.17559 0.817602 0)
(1.26443 0.839618 0)
(1.37791 0.84868 0)
(3 1.25163e-16 0)
(3 -7.07018e-16 0)
(3 -6.96394e-16 0)
(3 -3.63732e-16 0)
(3 2.17127e-16 0)
(3 5.07087e-16 0)
(3 7.90951e-16 0)
(3 8.84693e-16 0)
(3 1.21349e-15 0)
(3 1.22313e-15 0)
(3 8.64255e-16 0)
(3 1.88533e-15 0)
(3 -4.92988e-12 0)
(3 -8.09045e-07 0)
(3.04158 0.00658942 0)
(1.57161 0.660103 0)
(1.10032 0.756416 0)
(1.11169 0.765376 0)
(1.11744 0.783306 0)
(1.13987 0.795311 0)
(1.17386 0.806225 0)
(1.22806 0.81779 0)
(1.30308 0.828534 0)
(1.39761 0.831988 0)
(3 3.28834e-16 0)
(3 1.5574e-16 0)
(3 -5.44467e-16 0)
(3 -7.01236e-16 0)
(3 -5.23491e-16 0)
(3 -3.40962e-16 0)
(3 1.64606e-17 0)
(3 -6.16755e-17 0)
(3 -6.96036e-16 0)
(3 -1.11086e-15 0)
(3 -1.34179e-15 0)
(3 1.50745e-16 0)
(3 -5.72005e-15 0)
(3 -1.5483e-07 0)
(3.00081 3.69091e-05 0)
(2.38667 0.512117 0)
(1.20542 0.789319 0)
(1.13575 0.791864 0)
(1.14921 0.79564 0)
(1.17725 0.805587 0)
(1.21736 0.81725 0)
(1.26988 0.828011 0)
(1.33868 0.834859 0)
(1.41789 0.8346 0)
(3 1.31181e-16 0)
(3 2.6574e-16 0)
(3 -1.85434e-16 0)
(3 2.32525e-16 0)
(3 5.12016e-16 0)
(3 2.01077e-16 0)
(3 2.14335e-16 0)
(3 -4.05432e-16 0)
(3 -9.32009e-16 0)
(3 -1.03356e-15 0)
(3 -7.12433e-16 0)
(3 -2.12285e-16 0)
(3 -1.78728e-16 0)
(3 -4.82778e-09 0)
(3.00002 -5.23376e-06 0)
(3.05756 0.0730404 0)
(1.56613 0.776954 0)
(1.1852 0.786023 0)
(1.19875 0.793938 0)
(1.22192 0.806494 0)
(1.25974 0.818283 0)
(1.30932 0.827879 0)
(1.37186 0.832624 0)
(1.44116 0.830804 0)
(3 -1.23708e-16 0)
(3 -2.42716e-16 0)
(3 8.34782e-17 0)
(3 3.57669e-16 0)
(3 7.3328e-16 0)
(3 1.40169e-16 0)
(3 9.71996e-17 0)
(3 -3.83359e-16 0)
(3 -1.47498e-15 0)
(3 -1.25046e-15 0)
(3 -5.61969e-16 0)
(3 -6.15406e-16 0)
(3 1.68712e-16 0)
(3 -1.74468e-11 0)
(3 -1.31256e-06 0)
(3.00824 0.00139079 0)
(2.29192 0.632384 0)
(1.26302 0.848088 0)
(1.22311 0.833262 0)
(1.25714 0.833541 0)
(1.29112 0.838866 0)
(1.33832 0.843991 0)
(1.3948 0.845446 0)
(1.4576 0.841327 0)
(3 -5.61031e-17 0)
(3 1.48597e-16 0)
(3 4.1411e-16 0)
(3 4.93184e-17 0)
(3 -1.46603e-16 0)
(3 2.09008e-16 0)
(3 -1.13178e-16 0)
(3 -4.36914e-16 0)
(3 5.93532e-17 0)
(3 -4.43679e-16 0)
(3 -5.12061e-16 0)
(3 -5.35492e-16 0)
(3 1.93156e-16 0)
(3 -5.66937e-15 0)
(3 -1.11612e-07 0)
(3.00003 9.66658e-06 0)
(3.03874 0.118688 0)
(1.62607 0.827092 0)
(1.26869 0.830512 0)
(1.30583 0.833547 0)
(1.33151 0.839793 0)
(1.37363 0.842396 0)
(1.42265 0.841548 0)
(1.47925 0.837903 0)
(3 2.03286e-16 0)
(3 1.05841e-15 0)
(3 8.97934e-16 0)
(3 5.63278e-16 0)
(3 1.73045e-16 0)
(3 -9.55823e-18 0)
(3 -6.11729e-16 0)
(3 -3.05184e-16 0)
(3 2.81997e-16 0)
(3 4.15944e-16 0)
(3 1.93511e-16 0)
(3 -2.64058e-16 0)
(3 -5.97409e-16 0)
(3 1.21347e-15 0)
(3 -1.34591e-09 0)
(3 -1.02945e-07 0)
(3.0107 0.00347331 0)
(2.36616 0.638047 0)
(1.3556 0.885446 0)
(1.32798 0.876961 0)
(1.35908 0.86935 0)
(1.39348 0.865641 0)
(1.43746 0.859181 0)
(1.49063 0.854237 0)
(3 8.07241e-17 0)
(3 4.09625e-16 0)
(3 5.52364e-16 0)
(3 3.16661e-16 0)
(3 1.97387e-16 0)
(3 -8.80832e-16 0)
(3 -5.79509e-16 0)
(3 -2.45066e-16 0)
(3 -2.11775e-16 0)
(3 1.01248e-16 0)
(3 8.14591e-17 0)
(3 -5.7951e-16 0)
(3 -7.58026e-16 0)
(3 -2.20963e-16 0)
(3 -3.04322e-12 0)
(3 -2.52877e-08 0)
(3.00005 4.26648e-05 0)
(3.03088 0.106595 0)
(1.76086 0.836468 0)
(1.36447 0.882696 0)
(1.40041 0.874848 0)
(1.42656 0.865624 0)
(1.46513 0.858405 0)
(1.51513 0.854644 0)
(3 -2.98943e-16 0)
(3 -6.94554e-16 0)
(3 -4.32069e-16 0)
(3 -6.4213e-16 0)
(3 -9.89851e-16 0)
(3 -6.98041e-16 0)
(3 -2.59372e-17 0)
(3 1.66971e-16 0)
(3 7.66197e-16 0)
(3 4.94378e-16 0)
(3 -1.85801e-16 0)
(3 -3.0445e-16 0)
(3 -6.87038e-16 0)
(3 -1.48941e-15 0)
(3 -3.1326e-15 0)
(3 -2.36059e-09 0)
(3 2.48609e-08 0)
(3.00617 0.00440543 0)
(2.61929 0.532625 0)
(1.50195 0.935988 0)
(1.41922 0.898164 0)
(1.45229 0.889083 0)
(1.49305 0.88436 0)
(1.52354 0.876517 0)
(3 -1.09077e-16 0)
(3 -4.42518e-16 0)
(3 -2.69484e-16 0)
(3 -2.36916e-16 0)
(3 -3.72874e-16 0)
(3 3.40012e-17 0)
(3 3.92476e-16 0)
(3 7.85996e-16 0)
(3 9.91666e-16 0)
(3 1.17474e-16 0)
(3 -2.44122e-16 0)
(3 -1.05612e-16 0)
(3 -4.67789e-16 0)
(3 -7.62519e-16 0)
(3 -6.56053e-17 0)
(3 -9.43851e-11 0)
(3 -9.25567e-11 0)
(3.00002 4.76814e-05 0)
(3.03702 0.053751 0)
(2.01739 0.797408 0)
(1.47103 0.910066 0)
(1.5032 0.904923 0)
(1.52931 0.908096 0)
(1.50973 0.841337 0)
(3 1.46e-16 0)
(3 -2.93865e-16 0)
(3 -5.29602e-16 0)
(3 -6.42252e-16 0)
(3 -2.83984e-17 0)
(3 -2.03128e-16 0)
(3 -1.1838e-16 0)
(3 3.65901e-16 0)
(3 6.1239e-16 0)
(3 1.91796e-16 0)
(3 -1.39037e-17 0)
(3 2.28461e-16 0)
(3 2.93035e-16 0)
(3 3.16451e-16 0)
(3 9.2353e-16 0)
(3 -8.44097e-13 0)
(3 -2.95634e-11 0)
(3 3.83847e-08 0)
(3.00175 0.00230903 0)
(2.82073 0.317061 0)
(1.7461 0.88467 0)
(1.52726 0.959367 0)
(1.50142 0.892084 0)
(1.41883 0.734184 0)
(3 -7.0899e-17 0)
(3 7.86609e-17 0)
(3 -4.54038e-16 0)
(3 -3.41827e-16 0)
(3 -4.16934e-16 0)
(3 -4.6707e-16 0)
(3 -2.98341e-16 0)
(3 -1.49498e-16 0)
(3 -1.33891e-16 0)
(3 -7.50533e-17 0)
(3 2.15742e-16 0)
(3 5.67468e-16 0)
(3 5.29695e-16 0)
(3 8.10933e-16 0)
(3 7.38383e-16 0)
(3 -2.03436e-15 0)
(3 -3.96901e-12 0)
(3 4.21676e-12 0)
(3 1.21504e-05 0)
(3.00744 0.021664 0)
(2.40422 0.63729 0)
(1.64678 1.01249 0)
(1.33332 0.729909 0)
(1.29689 0.580058 0)
(3 3.39277e-17 0)
(3 1.93598e-16 0)
(3 -3.86374e-17 0)
(3 1.36588e-16 0)
(3 4.23175e-16 0)
(3 5.77801e-16 0)
(3 7.57238e-16 0)
(3 7.40633e-16 0)
(3 4.14248e-16 0)
(3 2.22128e-16 0)
(3 7.91781e-17 0)
(3 7.48766e-18 0)
(3 5.17156e-16 0)
(3 3.75789e-16 0)
(3 5.76781e-18 0)
(3 5.82967e-16 0)
(3 -2.57097e-13 0)
(3 -2.59348e-13 0)
(3 6.64232e-09 0)
(3.00005 0.000625245 0)
(2.97926 0.117004 0)
(1.85604 0.753669 0)
(1.23599 0.557765 0)
(1.25653 0.520609 0)
(3 2.76921e-16 0)
(3 2.90666e-16 0)
(3 1.20597e-16 0)
(3 3.53097e-16 0)
(3 6.14759e-16 0)
(3 7.70925e-16 0)
(3 5.89343e-16 0)
(3 1.05903e-15 0)
(3 8.73865e-16 0)
(3 3.64554e-16 0)
(3 1.77408e-16 0)
(3 -1.20439e-15 0)
(3 -9.69126e-16 0)
(3 -3.01367e-16 0)
(3 -9.06861e-17 0)
(3 2.73943e-16 0)
(3 -3.97803e-15 0)
(3 -8.67903e-14 0)
(3 1.8241e-12 0)
(3 1.53093e-06 0)
(3.00113 0.00612318 0)
(1.78334 0.278552 0)
(1.06492 0.390341 0)
(1.19104 0.421933 0)
(3 -4.5367e-17 0)
(3 -8.25117e-17 0)
(3 7.54483e-17 0)
(3 -5.83095e-17 0)
(3 -1.80956e-16 0)
(3 1.05191e-16 0)
(3 -5.62048e-17 0)
(3 -2.46129e-16 0)
(3 -5.16964e-16 0)
(3 -1.06813e-15 0)
(3 -1.16751e-15 0)
(3 -1.15295e-15 0)
(3 -1.12736e-15 0)
(3 -7.16663e-16 0)
(3 5.31228e-17 0)
(3 4.32286e-17 0)
(3 -2.05498e-16 0)
(3 -1.22948e-14 0)
(3 -1.22215e-14 0)
(3 1.3187e-09 0)
(3 3.52222e-05 0)
(1.58616 0.141087 0)
(0.85698 0.288788 0)
(0.996087 0.374242 0)
(3 -1.2249e-16 0)
(3 -3.05239e-18 0)
(3 5.93084e-16 0)
(3 2.29264e-16 0)
(3 1.24149e-16 0)
(3 3.59999e-18 0)
(3 -2.61327e-16 0)
(3 -9.20185e-16 0)
(3 -4.50997e-16 0)
(3 2.62093e-17 0)
(3 -1.04316e-16 0)
(3 -1.49595e-16 0)
(3 -5.32985e-16 0)
(3 -6.94501e-16 0)
(3 -5.26874e-16 0)
(3 1.15188e-16 0)
(3 5.59097e-18 0)
(3 -6.06397e-16 0)
(3 -4.03958e-15 0)
(3 2.98915e-13 0)
(3 2.68443e-08 0)
(1.58299 0.160139 0)
(0.815237 0.216505 0)
(0.85047 0.258459 0)
(3 1.53061e-16 0)
(3 1.05024e-15 0)
(3 8.96886e-16 0)
(3 9.34292e-16 0)
(3 6.28521e-16 0)
(3 -1.941e-16 0)
(3 -5.8493e-16 0)
(3 -1.21826e-15 0)
(3 -5.43202e-16 0)
(3 2.26356e-16 0)
(3 1.27954e-17 0)
(3 1.16308e-16 0)
(3 -1.91689e-16 0)
(3 3.25155e-16 0)
(3 1.51774e-16 0)
(3 -1.38897e-16 0)
(3 -5.17602e-16 0)
(3 -3.97914e-16 0)
(3 -8.13917e-16 0)
(3 -8.95926e-16 0)
(3 5.58399e-12 0)
(1.72108 0.191061 0)
(0.818616 0.194533 0)
(0.79775 0.206707 0)
(3 -7.99985e-18 0)
(3 -2.07204e-16 0)
(3 -6.60119e-16 0)
(3 -1.86025e-16 0)
(3 4.23924e-16 0)
(3 7.0083e-16 0)
(3 7.78315e-16 0)
(3 2.59056e-16 0)
(3 -7.56736e-16 0)
(3 -9.18698e-16 0)
(3 -6.3294e-16 0)
(3 -3.99849e-16 0)
(3 3.16719e-17 0)
(3 8.86375e-16 0)
(3 9.85423e-16 0)
(3 -2.11187e-16 0)
(3 -2.04515e-16 0)
(3 -3.49206e-16 0)
(3 -4.90183e-16 0)
(3 -1.01143e-15 0)
(3 -1.51854e-15 0)
(1.90917 0.195498 0)
(0.836612 0.192392 0)
(0.800573 0.183747 0)
(3 -2.09267e-16 0)
(3 -1.23731e-15 0)
(3 -6.22521e-16 0)
(3 -2.54613e-16 0)
(3 -1.25309e-16 0)
(3 1.33991e-16 0)
(3 6.65536e-17 0)
(3 6.58705e-16 0)
(3 2.76852e-16 0)
(3 -2.36395e-16 0)
(3 3.7313e-17 0)
(3 -8.41997e-17 0)
(3 -2.20659e-16 0)
(3 -1.78417e-16 0)
(3 -7.11156e-16 0)
(3 -2.80732e-16 0)
(3 2.46481e-16 0)
(3 3.46641e-16 0)
(3 -2.61236e-16 0)
(3 -9.27039e-16 0)
(3 -2.8761e-15 0)
(2.12061 0.183134 0)
(0.861401 0.184241 0)
(0.810199 0.164354 0)
(3 -4.18359e-17 0)
(3 -2.25392e-16 0)
(3 6.22012e-18 0)
(3 -4.87628e-17 0)
(3 -1.5885e-16 0)
(3 1.81127e-17 0)
(3 3.14145e-16 0)
(3 5.52893e-16 0)
(3 8.98964e-16 0)
(3 9.91609e-16 0)
(3 1.02256e-15 0)
(3 3.49359e-16 0)
(3 3.10357e-16 0)
(3 -2.71237e-16 0)
(3 -5.14819e-16 0)
(3 8.07463e-16 0)
(3 9.68402e-16 0)
(3 1.12915e-15 0)
(3 1.58018e-16 0)
(3 -5.15618e-16 0)
(3 -1.89394e-15 0)
(2.32562 0.153879 0)
(0.891897 0.164503 0)
(0.821797 0.142443 0)
(3 -1.39578e-17 0)
(3 -5.58088e-18 0)
(3 2.60765e-18 0)
(3 -2.67837e-16 0)
(3 -8.47128e-16 0)
(3 -7.29301e-16 0)
(3 -6.5989e-17 0)
(3 3.87937e-16 0)
(3 5.18201e-16 0)
(3 5.72777e-16 0)
(3 5.27054e-16 0)
(3 3.93883e-16 0)
(3 1.78923e-16 0)
(3 -3.06368e-17 0)
(3 1.9386e-16 0)
(3 -4.17694e-16 0)
(3 -1.13618e-15 0)
(3 -3.01837e-16 0)
(3 3.47024e-16 0)
(3 5.80653e-16 0)
(3 -1.01387e-15 0)
(2.49602 0.112427 0)
(0.923807 0.132171 0)
(0.832932 0.116626 0)
(3 -3.71696e-18 0)
(3 1.4039e-16 0)
(3 -3.80484e-16 0)
(3 -8.37288e-16 0)
(3 -1.65834e-15 0)
(3 -1.96378e-15 0)
(3 -1.87076e-15 0)
(3 -1.24966e-15 0)
(3 -7.98467e-16 0)
(3 -3.39872e-16 0)
(3 -7.28691e-16 0)
(3 -3.02343e-16 0)
(3 -8.46777e-16 0)
(3 -1.30833e-15 0)
(3 -1.37312e-15 0)
(3 -1.25087e-15 0)
(3 -1.11275e-15 0)
(3 -7.58474e-17 0)
(3 1.14118e-15 0)
(3 2.03417e-15 0)
(3 2.0993e-15 0)
(2.606 0.0685338 0)
(0.940243 0.0886969 0)
(0.828962 0.0878342 0)
(3 1.81304e-17 0)
(3 2.81372e-16 0)
(3 2.48166e-16 0)
(3 1.83708e-16 0)
(3 -1.55865e-16 0)
(3 -7.6394e-16 0)
(3 -8.13522e-16 0)
(3 -1.09708e-15 0)
(3 -3.57398e-16 0)
(3 -3.17727e-16 0)
(3 -2.30419e-16 0)
(3 2.05029e-16 0)
(3 -6.09186e-16 0)
(3 -8.73246e-16 0)
(3 -9.78384e-16 0)
(3 -9.24261e-16 0)
(3 1.23905e-16 0)
(3 9.02032e-16 0)
(3 1.86998e-15 0)
(3 2.65542e-15 0)
(3 2.88192e-15 0)
(2.66734 0.0405512 0)
(0.94468 0.0537356 0)
(0.811877 0.0642605 0)
(3 2.5128e-16 0)
(3 5.43072e-16 0)
(3 2.37958e-16 0)
(3 6.61105e-17 0)
(3 -1.44132e-16 0)
(3 -6.1999e-16 0)
(3 -1.2016e-15 0)
(3 -2.0267e-15 0)
(3 -1.30339e-15 0)
(3 -3.79661e-16 0)
(3 8.8999e-17 0)
(3 -3.8009e-17 0)
(3 -1.1739e-16 0)
(3 -2.42684e-16 0)
(3 -6.18001e-16 0)
(3 -2.40738e-16 0)
(3 1.79768e-16 0)
(3 7.50226e-16 0)
(3 1.17203e-15 0)
(3 1.63588e-15 0)
(3 1.79273e-15 0)
(2.71072 0.020491 0)
(0.954873 0.0280233 0)
(0.805253 0.037611 0)
(3 2.8515e-16 0)
(3 3.66192e-16 0)
(3 -4.71664e-16 0)
(3 -5.04907e-16 0)
(3 -5.70285e-16 0)
(3 -7.70379e-16 0)
(3 -1.05312e-15 0)
(3 -1.63743e-15 0)
(3 -1.22499e-15 0)
(3 -6.16585e-16 0)
(3 -2.95601e-16 0)
(3 -1.29859e-16 0)
(3 -1.30559e-16 0)
(3 -3.42854e-16 0)
(3 -3.74854e-16 0)
(3 1.39339e-16 0)
(3 3.39729e-16 0)
(3 4.04237e-16 0)
(3 6.53003e-16 0)
(3 5.28996e-16 0)
(3 7.24796e-16 0)
(2.72501 0.00358179 0)
(0.955581 0.00525676 0)
(0.796807 0.0121678 0)
(1.4802 1.29275 0)
(1.9559 1.23082 0)
(2.3237 1.26329 0)
(2.44772 0.797349 0)
(2.48655 0.375029 0)
(2.52097 0.0179073 0)
(2.5285 -0.27022 0)
(2.52145 -0.375947 0)
(2.46627 -0.33209 0)
(2.4258 -0.317992 0)
(2.39599 -0.262451 0)
(2.38323 -0.17775 0)
(2.39125 -0.156459 0)
(2.43975 -0.152825 0)
(2.43217 -0.14037 0)
(2.40473 -0.0989709 0)
(2.36574 -0.0535131 0)
(2.26353 -0.0187136 0)
(1.02242 0.0342094 0)
(0.778009 0.034731 0)
(0.722771 0.0255816 0)
(0.685663 0.00907992 0)
(0.679912 -7.64411e-06 0)
(0.695478 -0.0100579 0)
(0.721359 -0.0180917 0)
(0.74307 -0.0222989 0)
(0.761146 -0.0235101 0)
(0.778861 -0.0226457 0)
(0.801488 -0.0208027 0)
(0.828265 -0.0195149 0)
(0.856308 -0.0197645 0)
(0.883833 -0.0207321 0)
(0.911334 -0.0218708 0)
(0.93883 -0.022152 0)
(0.963597 -0.0209649 0)
(0.981985 -0.0182527 0)
(0.997827 -0.0157914 0)
(1.01575 -0.0143553 0)
(1.0401 -0.0141975 0)
(1.07131 -0.0150769 0)
(1.1031 -0.0166124 0)
(1.12875 -0.0170544 0)
(1.14697 -0.0163072 0)
(1.16377 -0.0153094 0)
(1.1829 -0.0144896 0)
(1.20694 -0.0142302 0)
(1.2365 -0.0144369 0)
(1.26742 -0.0142645 0)
(1.29431 -0.0131142 0)
(1.31592 -0.0114245 0)
(1.33528 -0.0101109 0)
(1.3546 -0.00922465 0)
(1.37523 -0.00862201 0)
(1.39725 -0.00802059 0)
(1.41893 -0.00703334 0)
(1.43908 -0.00565418 0)
(1.45828 -0.004006 0)
(1.47753 -0.00232633 0)
(1.49786 -0.00121007 0)
(1.51943 -0.00125809 0)
(1.53868 -0.00185316 0)
(1.55618 -0.00208881 0)
(1.57301 -0.00206415 0)
(1.5894 -0.00148021 0)
(1.60681 -0.000698786 0)
(1.62501 0.000431207 0)
(1.64546 0.00170491 0)
(1.66603 0.00223349 0)
(1.68363 0.00232201 0)
(1.70061 0.00226573 0)
(1.71616 0.00246395 0)
(1.73028 0.00318089 0)
(1.74526 0.00384564 0)
(1.76164 0.00428399 0)
(1.77832 0.00464026 0)
(1.79469 0.0049659 0)
(1.81043 0.00524095 0)
(1.82505 0.00547316 0)
(1.83762 0.00571303 0)
(1.84711 0.00602722 0)
(1.85578 0.00616589 0)
(1.86933 0.00593446 0)
(1.88566 0.00570137 0)
(1.90238 0.00552572 0)
(1.9194 0.00542987 0)
(1.93586 0.00549617 0)
(1.95092 0.00596273 0)
(1.96313 0.00787686 0)
(1.97276 0.00844798 0)
(1.98538 0.00855407 0)
(1.99994 0.00764244 0)
(1.99586 0.00101085 0)
(1.95622 -0.0164272 0)
(1.82703 -0.0473115 0)
(1.63133 -0.0639172 0)
(1.48742 -0.0362116 0)
(1.75838 1.1151 0)
(2.27449 0.822605 0)
(2.54584 0.380735 0)
(2.64957 0.101944 0)
(2.68303 -0.184029 0)
(2.67183 -0.445605 0)
(2.71972 -0.597893 0)
(2.71571 -0.683551 0)
(2.70204 -0.637776 0)
(2.64346 -0.523154 0)
(2.55963 -0.364079 0)
(2.50056 -0.204037 0)
(2.4887 -0.146871 0)
(2.51308 -0.147881 0)
(2.48321 -0.119256 0)
(2.4561 -0.0988453 0)
(2.4322 -0.0451906 0)
(2.45033 0.0130008 0)
(1.13912 0.186493 0)
(0.827308 0.116291 0)
(0.784861 0.0339704 0)
(0.769257 -0.0118305 0)
(0.776262 -0.0257479 0)
(0.792098 -0.0258087 0)
(0.807621 -0.0273223 0)
(0.822155 -0.0343004 0)
(0.837927 -0.0399087 0)
(0.855976 -0.0388045 0)
(0.876594 -0.0311889 0)
(0.898488 -0.0206992 0)
(0.91941 -0.0136921 0)
(0.939289 -0.0141049 0)
(0.961686 -0.0200908 0)
(0.987992 -0.0289982 0)
(1.01416 -0.0344265 0)
(1.03498 -0.0320319 0)
(1.04934 -0.0240492 0)
(1.06448 -0.0142816 0)
(1.08338 -0.00818961 0)
(1.1077 -0.00923178 0)
(1.13684 -0.0162721 0)
(1.1653 -0.0239006 0)
(1.18675 -0.0253781 0)
(1.20312 -0.022259 0)
(1.22007 -0.0172154 0)
(1.24026 -0.013436 0)
(1.26511 -0.0135499 0)
(1.2946 -0.0165844 0)
(1.3232 -0.0173711 0)
(1.3449 -0.0140407 0)
(1.36234 -0.00970552 0)
(1.37954 -0.00606624 0)
(1.39689 -0.00464445 0)
(1.4154 -0.00586334 0)
(1.43611 -0.00813839 0)
(1.45727 -0.00891959 0)
(1.47785 -0.00729992 0)
(1.4984 -0.00283993 0)
(1.51822 0.00364575 0)
(1.53551 0.0072638 0)
(1.55149 0.00713649 0)
(1.56712 0.00374389 0)
(1.58402 -0.000581558 0)
(1.60153 -0.00278662 0)
(1.61945 -0.00291531 0)
(1.63883 -0.000765323 0)
(1.65983 0.00425107 0)
(1.67861 0.00780501 0)
(1.69579 0.00972291 0)
(1.71139 0.011321 0)
(1.72529 0.0111189 0)
(1.73894 0.00967965 0)
(1.75439 0.00882365 0)
(1.7712 0.00881473 0)
(1.78817 0.00915417 0)
(1.80476 0.00959722 0)
(1.82078 0.0098867 0)
(1.83606 0.0100643 0)
(1.84992 0.010698 0)
(1.86087 0.0125529 0)
(1.86867 0.0151158 0)
(1.87896 0.0151405 0)
(1.8941 0.0130354 0)
(1.91021 0.0103991 0)
(1.92663 0.00828669 0)
(1.9437 0.00738716 0)
(1.96095 0.00856423 0)
(1.97615 0.0144045 0)
(1.98449 0.023328 0)
(1.99141 0.0230884 0)
(1.99227 0.0114171 0)
(1.97274 -0.0231074 0)
(1.91521 -0.0895309 0)
(1.82482 -0.175195 0)
(1.72797 -0.138593 0)
(1.55193 -0.0415333 0)
(1.68108 1.03182 0)
(2.04853 0.893273 0)
(2.32245 0.644331 0)
(2.52305 0.333975 0)
(2.61664 0.158551 0)
(2.65876 0.0398096 0)
(2.70427 -0.159822 0)
(2.72543 -0.305305 0)
(2.75151 -0.342466 0)
(2.78814 -0.42563 0)
(2.77995 -0.444886 0)
(2.73598 -0.415567 0)
(2.69269 -0.419419 0)
(2.67371 -0.430304 0)
(2.63994 -0.340819 0)
(2.629 -0.254621 0)
(2.60661 -0.141726 0)
(2.64465 -0.172643 0)
(1.60314 0.204387 0)
(1.00719 0.139995 0)
(0.963223 0.0297728 0)
(0.985193 -0.00932373 0)
(0.992759 -0.0129006 0)
(1.00048 -0.0200278 0)
(1.002 -0.026997 0)
(1.0025 -0.0373477 0)
(1.00875 -0.0484866 0)
(1.0211 -0.0574814 0)
(1.03858 -0.0628741 0)
(1.0567 -0.0622733 0)
(1.07043 -0.056915 0)
(1.08182 -0.0501568 0)
(1.09471 -0.044456 0)
(1.10986 -0.0427775 0)
(1.1276 -0.0469866 0)
(1.14613 -0.0538229 0)
(1.1629 -0.0562256 0)
(1.17731 -0.0526922 0)
(1.19273 -0.045317 0)
(1.21101 -0.0376786 0)
(1.23198 -0.0347411 0)
(1.25305 -0.0380258 0)
(1.27267 -0.0440957 0)
(1.29056 -0.0471688 0)
(1.30734 -0.0459962 0)
(1.32487 -0.0420465 0)
(1.34471 -0.0373555 0)
(1.36727 -0.0344651 0)
(1.39096 -0.0340226 0)
(1.41133 -0.0335233 0)
(1.42748 -0.0318879 0)
(1.4427 -0.0283849 0)
(1.45746 -0.0228056 0)
(1.47307 -0.0176498 0)
(1.48996 -0.0151477 0)
(1.50774 -0.0149858 0)
(1.52705 -0.0153886 0)
(1.54757 -0.0143531 0)
(1.56612 -0.0125599 0)
(1.58307 -0.0100892 0)
(1.59766 -0.0050482 0)
(1.60929 -0.000922886 0)
(1.62274 -0.000671567 0)
(1.6388 -0.00196934 0)
(1.65587 -0.00361003 0)
(1.67516 -0.0037333 0)
(1.69514 -0.00214056 0)
(1.71299 -0.000478984 0)
(1.73006 0.00320758 0)
(1.74468 0.00828033 0)
(1.75597 0.0132631 0)
(1.76694 0.0159964 0)
(1.78159 0.0165486 0)
(1.79818 0.0167243 0)
(1.81485 0.0171781 0)
(1.83082 0.01779 0)
(1.84579 0.0179957 0)
(1.86003 0.0172508 0)
(1.87361 0.0162152 0)
(1.886 0.0163123 0)
(1.89636 0.0191757 0)
(1.90502 0.0246877 0)
(1.91426 0.028296 0)
(1.92721 0.0276333 0)
(1.9434 0.0248105 0)
(1.9601 0.0223222 0)
(1.97774 0.0211356 0)
(1.99428 0.0220929 0)
(2.00543 0.0262253 0)
(2.00115 0.0151068 0)
(1.98303 -0.0107017 0)
(1.92803 -0.072065 0)
(1.84281 -0.156584 0)
(1.80889 -0.232273 0)
(1.77969 -0.213576 0)
(1.65052 -0.0909678 0)
(1.6044 0.988991 0)
(1.908 0.872493 0)
(2.14042 0.713485 0)
(2.3232 0.527011 0)
(2.47149 0.323441 0)
(2.56499 0.191782 0)
(2.60829 0.0627293 0)
(2.6848 -0.131962 0)
(2.72514 -0.288766 0)
(2.74021 -0.390104 0)
(2.77551 -0.471983 0)
(2.81265 -0.505745 0)
(2.78237 -0.493993 0)
(2.75602 -0.482538 0)
(2.72668 -0.446673 0)
(2.70738 -0.393819 0)
(2.68122 -0.345465 0)
(2.64266 -0.379986 0)
(2.37269 -0.233119 0)
(1.27829 0.0447558 0)
(1.16749 0.0663435 0)
(1.20035 0.0179578 0)
(1.21745 -0.0177048 0)
(1.21739 -0.0343396 0)
(1.21181 -0.0423331 0)
(1.20651 -0.0484889 0)
(1.20686 -0.0481148 0)
(1.21187 -0.0469186 0)
(1.2228 -0.0484128 0)
(1.23737 -0.0518772 0)
(1.24788 -0.0532803 0)
(1.2548 -0.0515849 0)
(1.26156 -0.04591 0)
(1.26972 -0.0395932 0)
(1.28012 -0.0362792 0)
(1.29251 -0.0364698 0)
(1.30789 -0.0397878 0)
(1.32407 -0.0417688 0)
(1.33821 -0.0400111 0)
(1.35185 -0.036374 0)
(1.36603 -0.032869 0)
(1.38045 -0.0312741 0)
(1.39506 -0.0320916 0)
(1.41063 -0.0344118 0)
(1.42656 -0.0355251 0)
(1.44184 -0.0340781 0)
(1.45736 -0.0309027 0)
(1.47429 -0.0265343 0)
(1.49239 -0.0220337 0)
(1.50789 -0.0201572 0)
(1.52152 -0.0197325 0)
(1.53383 -0.0179029 0)
(1.5455 -0.0149299 0)
(1.55829 -0.011772 0)
(1.57245 -0.008242 0)
(1.58804 -0.0039233 0)
(1.60528 0.000498711 0)
(1.62294 0.00298739 0)
(1.63944 0.00288124 0)
(1.65499 0.00246226 0)
(1.66851 0.00333087 0)
(1.6786 0.00628613 0)
(1.68762 0.00959188 0)
(1.70087 0.0116841 0)
(1.71657 0.0133155 0)
(1.73392 0.0153264 0)
(1.75132 0.0157376 0)
(1.7681 0.0155552 0)
(1.78417 0.0157137 0)
(1.79795 0.0170428 0)
(1.80768 0.0196838 0)
(1.81599 0.0226807 0)
(1.82838 0.0244387 0)
(1.84386 0.0257533 0)
(1.85983 0.0273152 0)
(1.87514 0.0296684 0)
(1.88881 0.0324592 0)
(1.90046 0.0342301 0)
(1.91131 0.0335771 0)
(1.92233 0.0305509 0)
(1.93307 0.0274932 0)
(1.94341 0.0263533 0)
(1.954 0.0293983 0)
(1.9653 0.0344219 0)
(1.97785 0.0395322 0)
(1.99184 0.0432615 0)
(2.00676 0.0431745 0)
(2.01883 0.0404445 0)
(2.01976 0.0268276 0)
(2.00102 -0.00846408 0)
(1.95762 -0.0673765 0)
(1.88003 -0.141012 0)
(1.81651 -0.201248 0)
(1.82621 -0.237031 0)
(1.83775 -0.230775 0)
(1.77897 -0.149167 0)
(1.56399 0.928177 0)
(1.79561 0.855958 0)
(2.00121 0.742761 0)
(2.17536 0.607798 0)
(2.3254 0.44817 0)
(2.43698 0.288274 0)
(2.51228 0.194086 0)
(2.54295 0.12541 0)
(2.61386 -0.0122596 0)
(2.67027 -0.153244 0)
(2.68602 -0.258528 0)
(2.72316 -0.297358 0)
(2.75554 -0.283904 0)
(2.73497 -0.348177 0)
(2.70969 -0.375572 0)
(2.6964 -0.390142 0)
(2.64023 -0.480073 0)
(2.56892 -0.569354 0)
(2.50351 -0.812179 0)
(1.82906 -0.307642 0)
(1.32244 -0.0302385 0)
(1.30632 0.0435048 0)
(1.33528 0.0144275 0)
(1.35114 -0.0178074 0)
(1.35002 -0.0378245 0)
(1.34762 -0.0418197 0)
(1.34934 -0.0445709 0)
(1.35312 -0.0482686 0)
(1.36016 -0.0525794 0)
(1.37167 -0.057133 0)
(1.38405 -0.0609629 0)
(1.39239 -0.0606423 0)
(1.39949 -0.0580493 0)
(1.40535 -0.0536692 0)
(1.41236 -0.0509119 0)
(1.42185 -0.0504525 0)
(1.43406 -0.0509482 0)
(1.45061 -0.0520968 0)
(1.46649 -0.0510413 0)
(1.47848 -0.0494726 0)
(1.48948 -0.0481584 0)
(1.50059 -0.0474167 0)
(1.51242 -0.0475127 0)
(1.5252 -0.0472832 0)
(1.53894 -0.0462469 0)
(1.55199 -0.044395 0)
(1.56482 -0.0417765 0)
(1.57873 -0.0382285 0)
(1.59285 -0.0351277 0)
(1.60565 -0.033065 0)
(1.61757 -0.0294338 0)
(1.62785 -0.0245694 0)
(1.63629 -0.0199851 0)
(1.64555 -0.0166296 0)
(1.65887 -0.0137122 0)
(1.67437 -0.0100008 0)
(1.69036 -0.00600017 0)
(1.70592 -0.0034557 0)
(1.72064 -0.0013949 0)
(1.73408 0.00024384 0)
(1.74562 0.00130396 0)
(1.75422 0.00221145 0)
(1.76181 0.00419422 0)
(1.77389 0.00717469 0)
(1.78871 0.00967839 0)
(1.80408 0.0115104 0)
(1.81949 0.0130442 0)
(1.8347 0.0149682 0)
(1.84914 0.0174094 0)
(1.86155 0.0202113 0)
(1.87023 0.0242373 0)
(1.87635 0.028557 0)
(1.88544 0.0313924 0)
(1.89895 0.0321703 0)
(1.91395 0.0323391 0)
(1.92898 0.0325102 0)
(1.94318 0.033906 0)
(1.95528 0.0368765 0)
(1.96461 0.0405725 0)
(1.97149 0.0434742 0)
(1.9789 0.0421349 0)
(1.98836 0.0399123 0)
(1.99967 0.0377125 0)
(2.01216 0.039809 0)
(2.02582 0.0424517 0)
(2.03956 0.049389 0)
(2.04757 0.0504386 0)