/*--------------------------------*- C++ -*----------------------------------*\
  =========                 |
  \\      /  F ield         | OpenFOAM: The Open Source CFD Toolbox
   \\    /   O peration     | Website:  https://openfoam.org
    \\  /    A nd           | Version:  7
     \\/     M anipulation  |
\*---------------------------------------------------------------------------*/
FoamFile
{
    version     2.0;
    format      ascii;
    class       volVectorField;
    location    "140";
    object      U;
}
// * * * * * * * * * * * * * * * * * * * * * * * * * * * * * * * * * * * * * //

dimensions      [0 1 -1 0 0 0 0];

internalField   nonuniform List<vector> 
1989
(
(1.21966 -0.00612908 5.46588e-19)
(1.22022 0.00198988 -7.86579e-21)
(1.2339 0.0131273 7.26427e-20)
(1.22041 0.00986568 6.88049e-20)
(1.23334 0.0210268 -2.19744e-20)
(1.22026 0.0175202 -1.11803e-20)
(1.2325 0.0287104 2.60683e-20)
(1.2198 0.0249719 7.13456e-20)
(1.23141 0.0361973 1.31681e-19)
(1.21905 0.0322367 -1.55813e-19)
(1.24256 0.0458028 1.54808e-19)
(1.23007 0.0435034 4.20892e-20)
(1.21801 0.0393277 6.37552e-20)
(1.24072 0.0533942 -7.08065e-21)
(1.22849 0.0506423 -1.08025e-19)
(1.21671 0.0462564 7.24295e-20)
(1.23867 0.06082 6.74833e-20)
(1.22668 0.0576252 1.67812e-19)
(1.21514 0.0530319 -9.08381e-20)
(1.2364 0.0680908 -3.03352e-19)
(1.22463 0.0644613 -1.66175e-19)
(1.21333 0.0596621 1.11773e-19)
(1.246 0.0799178 2.07098e-20)
(1.23393 0.0752151 1.16743e-19)
(1.22237 0.071158 2.73788e-20)
(1.21128 0.0661531 -1.02196e-19)
(1.24309 0.0872284 -1.64274e-20)
(1.23123 0.0821995 5.70831e-20)
(1.21988 0.0777214 1.45187e-19)
(1.20899 0.0725096 -2.85706e-20)
(1.23997 0.0944114 6.31292e-20)
(1.22833 0.089049 4.25455e-20)
(1.21717 0.0841559 -1.9963e-19)
(1.20647 0.0787351 -2.36231e-20)
(1.23665 0.10147 -3.71366e-20)
(1.22521 0.095767 -6.18359e-20)
(1.21424 0.0904645 5.85719e-20)
(1.20373 0.0848317 9.54835e-20)
(1.23312 0.108407 -1.02259e-19)
(1.22188 0.102355 2.12197e-20)
(1.2111 0.0966494 7.79692e-20)
(1.20077 0.0908007 -5.31131e-20)
(1.22937 0.115223 -8.52434e-20)
(1.21833 0.108815 3.17963e-20)
(1.20774 0.102711 -2.52069e-20)
(1.19759 0.0966419 8.62701e-20)
(1.22541 0.121916 1.07303e-19)
(1.21457 0.115145 -1.04624e-19)
(1.20417 0.10865 -5.8985e-20)
(1.19419 0.102354 -1.54874e-20)
(1.22122 0.128484 8.36871e-20)
(1.21058 0.121345 -2.47589e-20)
(1.20039 0.114464 6.58354e-20)
(1.19059 0.107936 -1.21467e-20)
(1.21682 0.134925 -6.26384e-20)
(1.20639 0.127411 2.60497e-20)
(1.1964 0.120152 -7.03526e-20)
(1.18677 0.113385 2.48893e-20)
(1.22293 0.149517 2.32324e-20)
(1.21218 0.141233 2.60801e-20)
(1.20197 0.133341 -1.48117e-21)
(1.19219 0.125709 2.86524e-20)
(1.18275 0.118697 -1.44676e-20)
(1.21784 0.156076 -9.75922e-21)
(1.20733 0.147404 1.15499e-21)
(1.19734 0.13913 3.26255e-21)
(1.18778 0.131133 8.68354e-21)
(1.17853 0.123868 -5.08746e-21)
(1.21251 0.162495 -1.91424e-21)
(1.20224 0.153432 1.4148e-22)
(1.19249 0.144773 2.80162e-21)
(1.18317 0.136419 -4.21316e-21)
(1.17411 0.128893 2.1316e-21)
(1.20694 0.168767 6.39646e-22)
(1.19693 0.159309 1.02379e-21)
(1.18743 0.150266 -2.15128e-21)
(1.17835 0.14156 -3.85207e-21)
(1.1695 0.133768 5.72136e-21)
(1.20112 0.174883 -2.28275e-20)
(1.19138 0.165029 1.82023e-20)
(1.18215 0.1556 6.71006e-21)
(1.17332 0.146548 2.92189e-21)
(1.16471 0.138484 -4.74478e-21)
(1.19506 0.180834 1.22963e-20)
(1.18561 0.170583 1.33609e-20)
(1.17666 0.160769 7.0085e-21)
(1.1681 0.151373 2.07737e-20)
(1.15973 0.143034 -1.39506e-20)
(1.17961 0.175964 -5.4746e-20)
(1.17095 0.165764 1.77086e-20)
(1.16268 0.156028 -4.72303e-20)
(1.15455 0.147409 5.10879e-21)
(1.17338 0.181162 6.14483e-21)
(1.16504 0.170581 -7.76311e-21)
(1.15706 0.160515 6.48287e-20)
(1.14913 0.151611 -2.09615e-20)
(1.16692 0.186167 6.47779e-20)
(1.15893 0.17521 -4.98736e-20)
(1.15126 0.164845 -1.48757e-20)
(1.17389 -0.0442012 0)
(1.16154 -0.0473718 0)
(1.14568 -0.0478766 0)
(1.1306 -0.0460295 0)
(1.11694 -0.0418965 0)
(1.10426 -0.0353386 0)
(1.09264 -0.0263306 0)
(1.08262 -0.0150464 0)
(1.07468 -0.00178548 0)
(1.0692 0.0132888 0)
(1.06676 0.0298574 0)
(1.06779 0.0471626 0)
(1.07244 0.0644774 0)
(1.1712 -0.034591 0)
(1.16052 -0.0376407 0)
(1.14646 -0.038293 0)
(1.13304 -0.0367457 0)
(1.12104 -0.0331318 0)
(1.11007 -0.0273765 0)
(1.10012 -0.0194569 0)
(1.09167 -0.00951514 0)
(1.08517 0.0021986 0)
(1.08102 0.0154648 0)
(1.07966 0.0299483 0)
(1.08145 0.0450506 0)
(1.08659 0.0601211 0)
(1.16844 -0.0257969 0)
(1.15925 -0.0287565 0)
(1.14687 -0.029571 0)
(1.13499 -0.0283567 0)
(1.12447 -0.0252698 0)
(1.11499 -0.0202919 0)
(1.10649 -0.0134118 0)
(1.09936 -0.00474881 0)
(1.09404 0.00547593 0)
(1.0909 0.017022 0)
(1.0903 0.0295582 0)
(1.09255 0.0425839 0)
(1.09782 0.0555279 0)
(1.16562 -0.017868 0)
(1.1578 -0.0207188 0)
(1.14698 -0.0216715 0)
(1.13654 -0.0207853 0)
(1.12737 -0.0182147 0)
(1.11921 -0.0139805 0)
(1.11199 -0.00808648 0)
(1.10601 -0.00063735 0)
(1.10167 0.00816875 0)
(1.09931 0.0180907 0)
(1.09924 0.0288146 0)
(1.10172 0.0399118 0)
(1.10689 0.0508829 0)
(1.16278 -0.0107311 0)
(1.15619 -0.0134771 0)
(1.14681 -0.014555 0)
(1.13771 -0.0139872 0)
(1.12977 -0.0119176 0)
(1.1228 -0.00839096 0)
(1.11671 -0.00342609 0)
(1.11173 0.00288492 0)
(1.10823 0.0103605 0)
(1.1065 0.0187719 0)
(1.10681 0.0278285 0)
(1.10937 0.037157 0)
(1.11431 0.0463209 0)
(1.15987 -0.00435252 0)
(1.1544 -0.00700838 0)
(1.14633 -0.00820419 0)
(1.13847 -0.00794085 0)
(1.13166 -0.00634985 0)
(1.12577 -0.00348925 0)
(1.12068 0.000611426 0)
(1.11659 0.00586597 0)
(1.11381 0.0121119 0)
(1.1126 0.0191362 0)
(1.11319 0.0266734 0)
(1.11575 0.034396 0)
(1.12039 0.0419227 0)
(1.15687 0.0012765 0)
(1.15241 -0.00129764 0)
(1.14556 -0.00260171 0)
(1.13882 -0.00262326 0)
(1.13305 -0.00148066 0)
(1.12812 0.000761227 0)
(1.12394 0.0040652 0)
(1.12063 0.00834955 0)
(1.11847 0.0134703 0)
(1.11769 0.0192323 0)
(1.11849 0.0253959 0)
(1.12099 0.0316734 0)
(1.12529 0.0377324 0)
(1.15381 0.00618519 0)
(1.15026 0.00368513 0)
(1.1445 0.00228185 0)
(1.1388 0.00199738 0)
(1.13395 0.00272542 0)
(1.12989 0.00439807 0)
(1.1265 0.00697283 0)
(1.12388 0.010375 0)
(1.12225 0.0144753 0)
(1.12183 0.0190984 0)
(1.12278 0.02403 0)
(1.12519 0.0290179 0)
(1.12915 0.0337736 0)
(1.15074 0.0104104 0)
(1.14799 0.00797735 0)
(1.14322 0.00648397 0)
(1.13844 0.00595921 0)
(1.13443 0.00630789 0)
(1.13112 0.0074617 0)
(1.12842 0.00937615 0)
(1.1264 0.0119824 0)
(1.12523 0.0151655 0)
(1.1251 0.0187693 0)
(1.12615 0.0226046 0)
(1.12845 0.0264508 0)
(1.13207 0.0300586 0)
(1.14772 0.0139915 0)
(1.14566 0.0116206 0)
(1.14176 0.0100475 0)
(1.13781 0.00930581 0)
(1.13452 0.00931132 0)
(1.13189 0.00999739 0)
(1.12979 0.0113191 0)
(1.12827 0.0132135 0)
(1.12748 0.0155791 0)
(1.12759 0.0182786 0)
(1.12869 0.0211458 0)
(1.13087 0.0239892 0)
(1.13415 0.0265942 0)
(1.14476 0.0169743 0)
(1.14331 0.0146616 0)
(1.14016 0.0130195 0)
(1.13694 0.0120845 0)
(1.1343 0.0117833 0)
(1.13224 0.0120521 0)
(1.13065 0.0128469 0)
(1.12956 0.0141106 0)
(1.1291 0.0157544 0)
(1.12938 0.0176584 0)
(1.13051 0.019678 0)
(1.13254 0.021648 0)
(1.1355 0.0233844 0)
(1.14187 0.0194048 0)
(1.14093 0.0171468 0)
(1.13846 0.0154469 0)
(1.13587 0.0143428 0)
(1.13379 0.0137711 0)
(1.13223 0.0136722 0)
(1.13107 0.0140037 0)
(1.13034 0.0147144 0)
(1.13013 0.0157271 0)
(1.13055 0.0169381 0)
(1.13168 0.0182225 0)
(1.13355 0.0194388 0)
(1.1362 0.0204303 0)
(1.13902 0.021326 0)
(1.13853 0.0191207 0)
(1.13663 0.0173746 0)
(1.13461 0.0161257 0)
(1.13301 0.0153195 0)
(1.13187 0.0149011 0)
(1.13108 0.0148305 0)
(1.13065 0.0150621 0)
(1.13064 0.0155293 0)
(1.13116 0.0161432 0)
(1.13226 0.0167969 0)
(1.13398 0.0173697 0)
(1.13634 0.0177293 0)
(1.1362 0.022779 0)
(1.13607 0.0206258 0)
(1.13468 0.0188458 0)
(1.13314 0.0174763 0)
(1.13196 0.0164709 0)
(1.13117 0.0157795 0)
(1.13069 0.0153651 0)
(1.13051 0.0151873 0)
(1.13067 0.0151893 0)
(1.13125 0.0152952 0)
(1.13231 0.0154145 0)
(1.13388 0.015445 0)
(1.13596 0.0152755 0)
(1.13337 0.0238041 0)
(1.13355 0.0217037 0)
(1.13259 0.0199025 0)
(1.13146 0.0184362 0)
(1.13064 0.0172657 0)
(1.13015 0.0163457 0)
(1.12993 0.0156423 0)
(1.12994 0.0151204 0)
(1.13023 0.0147316 0)
(1.13086 0.014412 0)
(1.13187 0.0140852 0)
(1.13329 0.0136655 0)
(1.13512 0.01306 0)
(1.13052 0.0244412 0)
(1.13096 0.0223958 0)
(1.13035 0.0205859 0)
(1.12958 0.0190459 0)
(1.12906 0.0177426 0)
(1.12882 0.016636 0)
(1.12881 0.0156951 0)
(1.12898 0.0148894 0)
(1.12937 0.0141784 0)
(1.13002 0.0135086 0)
(1.13098 0.0128161 0)
(1.13225 0.0120297 0)
(1.13385 0.0110722 0)
(1.12765 0.0247301 0)
(1.12828 0.0227425 0)
(1.12799 0.0209366 0)
(1.12751 0.0193448 0)
(1.12724 0.0179395 0)
(1.12721 0.0166851 0)
(1.12736 0.0155542 0)
(1.12766 0.0145204 0)
(1.12812 0.0135498 0)
(1.12878 0.0125982 0)
(1.12968 0.0116127 0)
(1.13082 0.0105343 0)
(1.1322 0.00929994 0)
(1.12476 0.0247096 0)
(1.12554 0.0227836 0)
(1.1255 0.0209939 0)
(1.12527 0.019371 0)
(1.12521 0.0178923 0)
(1.12534 0.0165263 0)
(1.12562 0.0152488 0)
(1.12601 0.0140373 0)
(1.12652 0.0128638 0)
(1.12718 0.0116921 0)
(1.12801 0.0104788 0)
(1.12903 0.00917548 0)
(1.13022 0.00773061 0)
(1.12184 0.0244175 0)
(1.12275 0.0225573 0)
(1.1229 0.0207955 0)
(1.12288 0.019161 0)
(1.12298 0.0176351 0)
(1.12325 0.0161905 0)
(1.12363 0.0148059 0)
(1.12409 0.0134624 0)
(1.12463 0.0121369 0)
(1.12527 0.0108002 0)
(1.12604 0.00941688 0)
(1.12693 0.00794784 0)
(1.12795 0.00635122 0)
(1.11892 0.0238895 0)
(1.1199 0.0220995 0)
(1.12022 0.020377 0)
(1.12036 0.0187487 0)
(1.1206 0.0171997 0)
(1.12097 0.0157065 0)
(1.12142 0.0142504 0)
(1.12192 0.0128156 0)
(1.12248 0.0113835 0)
(1.1231 0.00993051 0)
(1.1238 0.00842834 0)
(1.12459 0.00684548 0)
(1.12546 0.00514851 0)
(1.11599 0.0231594 0)
(1.11703 0.0214441 0)
(1.11747 0.0197713 0)
(1.11774 0.0181657 0)
(1.11808 0.0166154 0)
(1.11853 0.0151004 0)
(1.11903 0.0136045 0)
(1.11956 0.0121146 0)
(1.12012 0.0106159 0)
(1.12071 0.00908956 0)
(1.12135 0.00751323 0)
(1.12204 0.00586183 0)
(1.12277 0.00410917 0)
(1.11308 0.0222582 0)
(1.11414 0.0206222 0)
(1.11468 0.0190088 0)
(1.11505 0.0174408 0)
(1.11547 0.0159088 0)
(1.11597 0.0143959 0)
(1.1165 0.0128882 0)
(1.11705 0.011375 0)
(1.1176 0.0098446 0)
(1.11816 0.00828233 0)
(1.11873 0.00667059 0)
(1.11933 0.00498981 0)
(1.11995 0.00321945 0)
(1.11019 0.0212146 0)
(1.11125 0.0196622 0)
(1.11186 0.018117 0)
(1.11231 0.0165998 0)
(1.11279 0.0151036 0)
(1.11332 0.0136138 0)
(1.11387 0.0121189 0)
(1.11442 0.0106101 0)
(1.11495 0.00907832 0)
(1.11548 0.00751228 0)
(1.116 0.00589844 0)
(1.11652 0.00422172 0)
(1.11703 0.00246618 0)
(1.10733 0.0200541 0)
(1.10839 0.0185895 0)
(1.10904 0.0171206 0)
(1.10955 0.015666 0)
(1.11007 0.0142207 0)
(1.11062 0.0127725 0)
(1.11118 0.0113116 0)
(1.11172 0.00983109 0)
(1.11223 0.00832393 0)
(1.11272 0.00678167 0)
(1.11319 0.00519408 0)
(1.11364 0.00354966 0)
(1.11405 0.00183638 0)
(1.10453 0.0187996 0)
(1.10556 0.0174268 0)
(1.10625 0.0160411 0)
(1.1068 0.0146595 0)
(1.10734 0.0132783 0)
(1.1079 0.0118876 0)
(1.10846 0.010479 0)
(1.10898 0.00904713 0)
(1.10947 0.0075867 0)
(1.10993 0.00609153 0)
(1.11035 0.00455402 0)
(1.11073 0.00296569 0)
(1.11107 0.00131753 0)
(1.1018 0.0174711 0)
(1.1028 0.0161936 0)
(1.1035 0.0148974 0)
(1.10408 0.0135977 0)
(1.10463 0.0122921 0)
(1.10519 0.0109723 0)
(1.10574 0.00963156 0)
(1.10625 0.0082655 0)
(1.10671 0.00687038 0)
(1.10713 0.00544178 0)
(1.10751 0.00397425 0)
(1.10783 0.00246158 0)
(1.10811 0.000897541 0)
(1.09916 0.0160855 0)
(1.10013 0.0149066 0)
(1.10083 0.0137052 0)
(1.10142 0.0124952 0)
(1.10198 0.0112748 0)
(1.10253 0.0100374 0)
(1.10306 0.00877754 0)
(1.10355 0.00749172 0)
(1.10399 0.00617737 0)
(1.10438 0.00483146 0)
(1.10471 0.00345025 0)
(1.10499 0.00202937 0)
(1.1052 0.000564459 0)
(1.09663 0.0146569 0)
(1.09755 0.0135795 0)
(1.09825 0.0124777 0)
(1.09884 0.0113638 0)
(1.0994 0.0102368 0)
(1.09995 0.0090915 0)
(1.10046 0.0079233 0)
(1.10093 0.00672963 0)
(1.10134 0.00550876 0)
(1.1017 0.00425877 0)
(1.10199 0.00297716 0)
(1.10223 0.00166107 0)
(1.1024 0.000307591 0)
(1.09423 0.0131966 0)
(1.09511 0.0122231 0)
(1.0958 0.0112249 0)
(1.09639 0.0102127 0)
(1.09694 0.00918607 0)
(1.09747 0.00814077 0)
(1.09797 0.00707322 0)
(1.09841 0.00598148 0)
(1.0988 0.00486449 0)
(1.09912 0.00372111 0)
(1.09939 0.00254985 0)
(1.09959 0.00134892 0)
(1.09972 0.00011655 0)
(1.09199 0.0117133 0)
(1.09282 0.0108461 0)
(1.09349 0.00995494 0)
(1.09408 0.00904901 0)
(1.09462 0.0081284 0)
(1.09514 0.00718975 0)
(1.09561 0.00623019 0)
(1.09603 0.00524834 0)
(1.09639 0.00424361 0)
(1.09669 0.00321546 0)
(1.09693 0.0021631 0)
(1.0971 0.00108559 0)
(1.0972 -1.80788e-05 0)
(1.08992 0.0102121 0)
(1.0907 0.0094534 0)
(1.09136 0.00867224 0)
(1.09194 0.00787663 0)
(1.09247 0.00706688 0)
(1.09297 0.00624039 0)
(1.09342 0.00539493 0)
(1.09382 0.00452951 0)
(1.09417 0.00364386 0)
(1.09444 0.00273789 0)
(1.09466 0.00181127 0)
(1.0948 0.00086362 0)
(1.09488 -0.000105452 0)
(1.08805 0.0086975 0)
(1.08879 0.00804908 0)
(1.08943 0.00738057 0)
(1.09 0.00669866 0)
(1.09052 0.00600381 0)
(1.09101 0.00529405 0)
(1.09144 0.00456768 0)
(1.09182 0.00382399 0)
(1.09215 0.00306299 0)
(1.0924 0.00228476 0)
(1.0926 0.00148938 0)
(1.09272 0.000676726 0)
(1.09278 -0.000153151 0)
(1.08641 0.00716776 0)
(1.08712 0.00663174 0)
(1.08774 0.0060785 0)
(1.0883 0.00551351 0)
(1.08881 0.00493728 0)
(1.08928 0.00434836 0)
(1.0897 0.00374546 0)
(1.09006 0.00312813 0)
(1.09037 0.00249647 0)
(1.09061 0.00185075 0)
(1.09079 0.00119119 0)
(1.0909 0.000518014 0)
(1.09093 -0.000168716 0)
(1.08503 0.00562335 0)
(1.08571 0.00520161 0)
(1.08631 0.00476599 0)
(1.08686 0.00432073 0)
(1.08737 0.00386634 0)
(1.08782 0.00340179 0)
(1.08823 0.00292614 0)
(1.08858 0.0024391 0)
(1.08887 0.0019408 0)
(1.0891 0.00143158 0)
(1.08926 0.000911676 0)
(1.08936 0.000381355 0)
(1.08938 -0.000159062 0)
(1.08394 0.00405813 0)
(1.08459 0.00375321 0)
(1.08519 0.00343805 0)
(1.08573 0.00311574 0)
(1.08622 0.00278668 0)
(1.08667 0.00245019 0)
(1.08706 0.00210562 0)
(1.0874 0.00175279 0)
(1.08768 0.00139187 0)
(1.0879 0.0010231 0)
(1.08805 0.000646783 0)
(1.08814 0.000263149 0)
(1.08816 -0.000127553 0)
(1.08318 0.00245916 0)
(1.08381 0.00227361 0)
(1.08439 0.00208189 0)
(1.08493 0.00188578 0)
(1.08542 0.00168557 0)
(1.08586 0.00148084 0)
(1.08624 0.00127123 0)
(1.08657 0.00105662 0)
(1.08685 0.000837129 0)
(1.08706 0.000612922 0)
(1.08721 0.000384196 0)
(1.08729 0.000151165 0)
(1.0873 -8.60483e-05 0)
(1.08277 0.000837995 0)
(1.0834 0.000774788 0)
(1.08398 0.00070958 0)
(1.08451 0.000642916 0)
(1.08499 0.000574885 0)
(1.08543 0.000505362 0)
(1.08581 0.000434225 0)
(1.08614 0.000361438 0)
(1.08641 0.000287021 0)
(1.08661 0.000211042 0)
(1.08676 0.000133543 0)
(1.08684 5.45477e-05 0)
(1.08685 -2.5752e-05 0)
(1.16705 0.122699 2.34859e-21)
(1.1617 0.11824 -1.21134e-21)
(1.15658 0.113823 -1.997e-23)
(1.15179 0.109516 2.29669e-21)
(1.14733 0.105361 -2.2346e-21)
(1.14311 0.101346 2.19763e-21)
(1.13907 0.0974479 -3.09766e-21)
(1.13517 0.0936568 2.2004e-21)
(1.13141 0.089966 -2.26515e-21)
(1.12778 0.086371 1.50703e-21)
(1.12427 0.082865 -1.35512e-21)
(1.12089 0.0794459 5.72902e-22)
(1.11762 0.0761057 1.12945e-21)
(1.11447 0.0728377 -7.15057e-22)
(1.11143 0.0696435 -5.45813e-22)
(1.10851 0.0665166 3.45082e-22)
(1.10569 0.0634515 -1.10531e-23)
(1.10298 0.0604441 -4.22547e-22)
(1.10037 0.0574903 4.97259e-22)
(1.09786 0.0545859 -1.35375e-22)
(1.09544 0.0517272 -1.51237e-22)
(1.09312 0.0489105 1.82159e-22)
(1.09088 0.0461327 5.89466e-23)
(1.08873 0.0433905 -1.46207e-22)
(1.08667 0.040681 1.14339e-22)
(1.0847 0.038002 -1.10829e-22)
(1.0828 0.0353494 8.67403e-23)
(1.081 0.0327194 -1.8034e-23)
(1.07928 0.0301112 4.35363e-23)
(1.07766 0.0275216 -2.29086e-23)
(1.07613 0.0249464 -2.59097e-23)
(1.0747 0.0223814 5.81504e-24)
(1.07339 0.0198218 2.8689e-24)
(1.07218 0.0172619 -1.40757e-25)
(1.07111 0.014695 1.19399e-23)
(1.07017 0.0121119 9.06084e-24)
(1.06939 0.00950658 -1.65177e-23)
(1.06877 0.00685568 1.37751e-23)
(1.06834 0.00417441 -1.50752e-23)
(1.06811 0.00138312 1.16832e-23)
(1.17125 0.118261 2.49747e-21)
(1.16571 0.11409 -2.36653e-21)
(1.16033 0.109943 5.04738e-21)
(1.15529 0.1059 -1.31125e-21)
(1.15059 0.101995 -5.35586e-22)
(1.14614 0.098215 1.24597e-21)
(1.1419 0.0945419 -4.15621e-21)
(1.13783 0.0909647 4.78063e-23)
(1.13391 0.0874766 1.04823e-21)
(1.13013 0.0840726 -1.31213e-21)
(1.12648 0.0807468 8.22476e-22)
(1.12296 0.0774962 -8.03228e-22)
(1.11958 0.0743143 -1.47256e-22)
(1.11632 0.0711953 5.9407e-23)
(1.11318 0.0681387 1.51549e-21)
(1.11016 0.0651399 -6.8646e-22)
(1.10725 0.0621935 -7.1663e-22)
(1.10446 0.059296 6.77203e-22)
(1.10177 0.0564435 9.31312e-22)
(1.09919 0.0536326 -6.20038e-22)
(1.09671 0.0508599 4.84188e-23)
(1.09432 0.0481224 -6.36659e-22)
(1.09203 0.0454172 3.34718e-22)
(1.08982 0.0427418 5.93266e-22)
(1.08771 0.0400937 -6.48993e-23)
(1.08569 0.0374709 -1.55747e-22)
(1.08375 0.0348702 -9.68801e-23)
(1.08191 0.0322887 1.19567e-23)
(1.08015 0.0297253 -1.26704e-22)
(1.07849 0.0271773 4.7513e-23)
(1.07693 0.0246411 7.49963e-23)
(1.07547 0.0221128 -1.67935e-23)
(1.07412 0.0195881 3.47922e-23)
(1.07289 0.0170616 -1.74297e-24)
(1.07179 0.0145269 -1.02123e-23)
(1.07084 0.0119751 -1.76669e-23)
(1.07003 0.00940062 -5.58621e-25)
(1.0694 0.00678006 -7.21542e-24)
(1.06896 0.00412898 -2.92623e-23)
(1.06872 0.00137006 -2.38309e-24)
(1.17527 0.113677 7.47495e-21)
(1.16954 0.109807 -7.31226e-22)
(1.16394 0.105944 2.17324e-21)
(1.15866 0.102179 -1.61935e-20)
(1.15372 0.0985367 1.37586e-20)
(1.14907 0.0950026 -5.48168e-21)
(1.14464 0.0915637 -2.04884e-21)
(1.1404 0.0882093 2.44732e-21)
(1.13632 0.0849321 1.8963e-21)
(1.13239 0.0817265 2.09971e-21)
(1.12861 0.0785875 -6.82709e-21)
(1.12498 0.0755114 4.09887e-21)
(1.12148 0.0724931 1.971e-21)
(1.11811 0.0695275 5.64599e-22)
(1.11488 0.0666126 -5.43321e-21)
(1.11177 0.0637451 3.6963e-21)
(1.10878 0.0609205 7.86502e-22)
(1.1059 0.0581353 -8.47209e-22)
(1.10315 0.0553864 -1.25059e-21)
(1.10049 0.0526707 1.04215e-21)
(1.09795 0.0499854 -1.0307e-21)
(1.0955 0.0473281 7.50393e-22)
(1.09315 0.0446966 6.1978e-22)
(1.0909 0.0420886 -1.00771e-21)
(1.08874 0.0395024 5.69625e-23)
(1.08667 0.0369364 1.34975e-22)
(1.08469 0.0343881 1.58719e-22)
(1.0828 0.0318553 -3.90766e-23)
(1.08101 0.0293368 5.65016e-23)
(1.07931 0.0268306 9.58613e-23)
(1.07772 0.0243336 -8.48302e-24)
(1.07623 0.0218423 -9.54958e-24)
(1.07485 0.0193528 -5.22479e-23)
(1.07359 0.0168598 1.11271e-24)
(1.07247 0.0143576 -2.42542e-24)
(1.07149 0.0118372 2.75021e-23)
(1.07067 0.00929377 3.40441e-23)
(1.07003 0.00670382 -5.3048e-23)
(1.06957 0.00408311 5.47407e-24)
(1.06933 0.00135694 1.35196e-23)
(1.1791 0.108949 -2.49121e-21)
(1.17321 0.10539 -9.48028e-21)
(1.1674 0.101826 1.65819e-20)
(1.1619 0.0983559 -6.42146e-21)
(1.15673 0.0949874 -6.80449e-21)
(1.15188 0.0917102 6.47539e-21)
(1.14727 0.0885149 -2.3736e-21)
(1.14287 0.085392 5.49627e-21)
(1.13864 0.0823338 -1.35268e-20)
(1.13458 0.0793342 9.20033e-21)
(1.13068 0.0763885 4.25267e-21)
(1.12692 0.0734929 -2.63007e-21)
(1.12332 0.0706432 2.77508e-21)
(1.11985 0.0678352 -2.27136e-21)
(1.11653 0.0650662 -3.78017e-22)
(1.11333 0.0623335 2.73602e-21)
(1.11026 0.0596334 -1.79571e-21)
(1.10732 0.0569629 2.32336e-21)
(1.10449 0.0543195 -3.34858e-21)
(1.10178 0.0517007 2.58046e-21)
(1.09917 0.0491042 -1.16555e-21)
(1.09667 0.0465283 3.9288e-23)
(1.09427 0.0439712 -4.92222e-22)
(1.09196 0.0414314 -9.56941e-22)
(1.08975 0.0389076 2.60193e-22)
(1.08764 0.0363988 1.58321e-22)
(1.08562 0.0339033 2.06777e-22)
(1.08369 0.0314193 2.05153e-22)
(1.08186 0.028946 -2.44613e-22)
(1.08013 0.0264818 -6.21629e-23)
(1.0785 0.0240241 -2.77329e-23)
(1.07698 0.02157 -1.42081e-22)
(1.07557 0.0191157 -5.5633e-23)
(1.07429 0.0166565 -3.27507e-23)
(1.07314 0.0141869 6.79482e-25)
(1.07214 0.0116982 -3.97863e-23)
(1.0713 0.00918602 2.02843e-23)
(1.07064 0.00662695 4.37573e-23)
(1.07018 0.00403677 9.23762e-24)
(1.06992 0.00134371 -5.46214e-24)
(1.18274 0.10408 8.49028e-21)
(1.1767 0.100843 -4.56944e-21)
(1.17071 0.0975928 -1.26421e-20)
(1.165 0.0944309 -8.53593e-21)
(1.15962 0.0913494 1.82339e-20)
(1.15457 0.0883397 6.98832e-21)
(1.14979 0.0853974 -1.18729e-20)
(1.14524 0.0825146 -2.66596e-21)
(1.14087 0.0796833 5.05336e-22)
(1.13669 0.0768969 7.75795e-21)
(1.13267 0.0741511 -2.69351e-21)
(1.12881 0.0714419 9.51693e-21)
(1.1251 0.068766 -9.62028e-21)
(1.12154 0.0661197 -5.02493e-21)
(1.11813 0.0635005 8.93998e-22)
(1.11486 0.0609059 2.42131e-21)
(1.11171 0.0583331 4.10957e-21)
(1.1087 0.0557797 -6.28519e-21)
(1.10581 0.0532437 2.10182e-21)
(1.10303 0.0507234 -1.66753e-21)
(1.10037 0.048217 2.78519e-21)
(1.09781 0.0457234 -9.44207e-22)
(1.09536 0.0432415 -2.69193e-22)
(1.09301 0.0407705 7.9308e-22)
(1.09075 0.0383097 -3.55823e-22)
(1.0886 0.0358584 -5.94774e-22)
(1.08653 0.0334159 4.28933e-22)
(1.08457 0.030981 -8.50613e-22)
(1.0827 0.028553 2.65678e-22)
(1.08093 0.0261309 2.14946e-22)
(1.07927 0.0237127 1.16036e-22)
(1.07772 0.0212958 -4.311e-23)
(1.07628 0.0188769 1.40198e-22)
(1.07498 0.0164516 -1.15987e-23)
(1.07381 0.0140148 1.24063e-24)
(1.07278 0.0115581 1.39961e-23)
(1.07193 0.00907734 -5.51315e-24)
(1.07125 0.00654943 -5.63671e-23)
(1.07078 0.00398995 1.03305e-23)
(1.07051 0.00133035 -3.73553e-23)
(1.18618 0.0990722 2.97492e-20)
(1.18 0.0961669 -1.53747e-20)
(1.17386 0.0932439 -2.91343e-20)
(1.16796 0.0904054 3.95896e-20)
(1.16239 0.087624 -1.76803e-21)
(1.15715 0.0848927 -2.29931e-20)
(1.15221 0.0822128 -7.70421e-21)
(1.1475 0.0795787 2.82418e-20)
(1.14301 0.076982 -1.46917e-20)
(1.13871 0.0744162 -7.72003e-21)
(1.13458 0.0718766 7.48483e-21)
(1.13062 0.0693598 3.90483e-21)
(1.12682 0.0668627 1.02033e-21)
(1.12318 0.0643824 4.56187e-21)
(1.11969 0.0619165 -7.81882e-21)
(1.11634 0.0594633 -3.04342e-21)
(1.11313 0.0570206 4.36417e-21)
(1.11005 0.0545866 2.37077e-21)
(1.1071 0.0521599 -3.28958e-21)
(1.10426 0.0497394 4.36587e-21)
(1.10155 0.0473243 -2.63835e-21)
(1.09894 0.044914 -1.26883e-21)
(1.09644 0.0425081 -2.52062e-22)
(1.09404 0.0401064 4.77278e-22)
(1.09174 0.0377089 8.57594e-22)
(1.08954 0.0353156 -1.42927e-23)
(1.08744 0.0329262 6.87993e-22)
(1.08544 0.0305404 2.6914e-22)
(1.08353 0.0281579 -1.15156e-22)
(1.08173 0.0257781 -7.60973e-22)
(1.08003 0.0233994 4.53902e-22)
(1.07845 0.0210199 3.2791e-22)
(1.07699 0.0186365 -2.6085e-22)
(1.07565 0.0162453 8.82737e-23)
(1.07446 0.0138414 -1.82143e-23)
(1.07342 0.0114167 -4.80135e-24)
(1.07254 0.00896771 2.76988e-23)
(1.07185 0.00647122 1.31489e-22)
(1.07137 0.00394264 9.54463e-23)
(1.0711 0.00131683 3.82077e-23)
(1.18943 0.0939271 1.16395e-20)
(1.18313 0.0913621 -4.80401e-20)
(1.17684 0.0887804 8.56219e-21)
(1.17077 0.08628 3.19153e-20)
(1.16502 0.0838122 -2.47454e-20)
(1.15961 0.0813706 7.93742e-21)
(1.15451 0.0789626 4.47165e-21)
(1.14967 0.0765857 1.004e-20)
(1.14506 0.0742315 -2.09273e-21)
(1.14064 0.0718933 -1.16073e-20)
(1.13642 0.0695664 8.40018e-21)
(1.13236 0.0672477 -2.95709e-21)
(1.12848 0.0649344 -7.47952e-21)
(1.12476 0.0626243 4.55458e-21)
(1.12119 0.0603156 -8.37948e-21)
(1.11778 0.0580069 6.17187e-21)
(1.1145 0.0556968 -5.38863e-21)
(1.11136 0.0533843 -5.07653e-22)
(1.10835 0.0510687 1.13049e-21)
(1.10547 0.0487496 5.5228e-21)
(1.1027 0.0464269 -4.4163e-21)
(1.10005 0.0441007 2.52542e-21)
(1.0975 0.0417714 -2.65471e-22)
(1.09506 0.0394395 -2.34566e-21)
(1.09272 0.0371056 2.55684e-21)
(1.09048 0.0347704 -1.90746e-21)
(1.08833 0.0324344 -8.1192e-22)
(1.08629 0.0300978 -5.50504e-22)
(1.08435 0.0277608 1.71835e-22)
(1.08252 0.0254233 2.49313e-22)
(1.08079 0.0230843 5.9753e-23)
(1.07917 0.0207422 -1.01699e-22)
(1.07768 0.0183944 8.78727e-23)
(1.07632 0.0160374 -1.57382e-22)
(1.07511 0.0136667 5.69564e-23)
(1.07404 0.0112742 5.71137e-24)
(1.07315 0.00885709 -7.55099e-23)
(1.07245 0.00639229 -9.92748e-23)
(1.07195 0.0038948 1.44337e-24)
(1.07167 0.00130312 -5.78297e-23)
(1.19247 0.0886461 -7.80059e-20)
(1.18605 0.0864296 3.72976e-20)
(1.17965 0.0842032 1.69002e-20)
(1.17344 0.0820556 -4.18212e-20)
(1.16753 0.079915 1.13629e-20)
(1.16195 0.0777745 5.54599e-22)
(1.1567 0.0756483 -1.74579e-20)
(1.15173 0.073537 1.3431e-20)
(1.14701 0.0714331 -2.08442e-20)
(1.14249 0.0693296 -6.46451e-22)
(1.13817 0.0672218 2.25725e-20)
(1.13404 0.0651068 -9.38955e-21)
(1.13008 0.0629823 1.27554e-20)
(1.12629 0.0608467 -4.66982e-21)
(1.12265 0.0586987 3.93955e-21)
(1.11917 0.0565376 -4.34278e-21)
(1.11584 0.0543628 8.22584e-21)
(1.11265 0.0521739 -2.88239e-21)
(1.10959 0.0499711 -4.26971e-21)
(1.10665 0.0477547 2.31683e-21)
(1.10383 0.0455253 8.5673e-22)
(1.10113 0.043284 -1.15416e-21)
(1.09854 0.0410319 -1.94014e-21)
(1.09606 0.0387702 -4.06087e-23)
(1.09368 0.0365002 1.73756e-21)
(1.0914 0.0342233 5.17642e-24)
(1.08922 0.0319407 -3.28372e-22)
(1.08714 0.0296533 1.14158e-21)
(1.08516 0.0273619 3.10123e-22)
(1.08329 0.0250667 -1.00116e-22)
(1.08153 0.0227674 1.16208e-23)
(1.07989 0.0204627 5.71066e-22)
(1.07837 0.0181507 1.74469e-22)
(1.07698 0.0158279 6.92021e-23)
(1.07574 0.0134905 7.06408e-24)
(1.07466 0.0111305 -4.44907e-23)
(1.07375 0.00874544 1.94791e-23)
(1.07303 0.00631262 6.16367e-23)
(1.07252 0.00384643 -1.28609e-22)
(1.07224 0.00128919 -5.16811e-24)
(1.19531 0.0832301 -1.64784e-20)
(1.18878 0.08137 2.77658e-20)
(1.18228 0.0795128 -6.47123e-20)
(1.17595 0.0777325 8.36034e-21)
(1.16989 0.0759328 7.39607e-20)
(1.16417 0.0741053 -2.6188e-20)
(1.15878 0.0722709 -3.32241e-20)
(1.15369 0.070434 -1.00597e-20)
(1.14886 0.0685882 3.86883e-20)
(1.14425 0.0667264 -3.62022e-20)
(1.13985 0.0648441 2.4223e-20)
(1.13564 0.0629384 -3.60551e-21)
(1.13161 0.0610077 -5.16286e-21)
(1.12776 0.0590507 2.007e-21)
(1.12406 0.0570671 5.32809e-21)
(1.12053 0.0550566 -1.21098e-20)
(1.11714 0.0530194 9.98415e-21)
(1.1139 0.0509562 -2.47644e-21)
(1.11079 0.0488677 2.49721e-22)
(1.10781 0.0467553 -1.66261e-21)
(1.10495 0.0446203 -1.24171e-21)
(1.1022 0.0424646 1.95295e-21)
(1.09957 0.0402901 -3.11049e-21)
(1.09705 0.0380988 2.11445e-21)
(1.09463 0.035893 9.25467e-22)
(1.09231 0.0336745 -1.21939e-21)
(1.09009 0.0314454 1.74435e-22)
(1.08798 0.0292072 2.04755e-22)
(1.08597 0.0269612 -2.00586e-22)
(1.08406 0.0247084 9.03409e-22)
(1.08227 0.0224487 -5.4797e-22)
(1.0806 0.0201816 -3.0114e-22)
(1.07905 0.0179053 3.03666e-23)
(1.07764 0.0156169 -5.9514e-23)
(1.07637 0.0133129 1.68523e-22)
(1.07527 0.0109855 -3.14811e-23)
(1.07434 0.00863273 -5.61972e-24)
(1.07361 0.00623217 -2.2421e-24)
(1.07309 0.0037975 6.99138e-23)
(1.0728 0.00127501 4.06787e-23)
(1.19793 0.0776793 -5.40246e-20)
(1.19131 0.0761832 5.2796e-20)
(1.18472 0.0747092 2.228e-20)
(1.17829 0.0733109 -4.32118e-20)
(1.17212 0.0718659 -7.01253e-21)
(1.16627 0.0703637 1.76407e-20)
(1.16075 0.0688313 -1.04463e-20)
(1.15554 0.0672778 6.70113e-21)
(1.15061 0.0656979 3.39793e-20)
(1.14593 0.064085 -3.94295e-20)
(1.14145 0.0624344 2.88239e-20)
(1.13717 0.0607437 -2.18103e-20)
(1.13308 0.0590116 1.00586e-20)
(1.12917 0.0572376 8.4704e-21)
(1.12542 0.0554217 -1.23941e-21)
(1.12184 0.0535648 -2.17863e-20)
(1.1184 0.0516678 1.16959e-20)
(1.11511 0.0497321 -1.28234e-20)
(1.11196 0.0477596 1.48164e-20)
(1.10894 0.0457522 -5.51276e-21)
(1.10603 0.0437125 -2.62799e-22)
(1.10325 0.0416429 2.00543e-21)
(1.10058 0.0395465 -1.76857e-21)
(1.09802 0.0374259 -1.21597e-21)
(1.09556 0.0352843 1.53726e-22)
(1.09321 0.0331243 -5.8538e-22)
(1.09095 0.0309486 1.00505e-22)
(1.0888 0.0287595 -6.01416e-22)
(1.08676 0.026559 -1.3753e-22)
(1.08482 0.0243484 5.70362e-22)
(1.083 0.0221283 6.00146e-22)
(1.0813 0.0198987 -2.58643e-22)
(1.07972 0.0176582 -5.143e-22)
(1.07828 0.0154042 7.52482e-23)
(1.07699 0.0131337 -2.20398e-23)
(1.07587 0.0108392 -1.97535e-23)
(1.07492 0.00851891 -8.44713e-24)
(1.07417 0.00615089 -1.18844e-23)
(1.07364 0.00374798 -4.08374e-23)
(1.07334 0.00126056 -1.29621e-23)
(1.20033 0.0719929 -8.97549e-20)
(1.19362 0.0708687 -2.56888e-20)
(1.18696 0.0697925 5.66439e-20)
(1.18047 0.0687909 1.3403e-21)
(1.1742 0.0677145 3.7933e-21)
(1.16823 0.0665499 -4.85934e-20)
(1.16259 0.0653304 2.66166e-20)
(1.15729 0.0640695 1.29757e-20)
(1.15227 0.0627635 2.13718e-21)
(1.1475 0.0614065 4.69871e-22)
(1.14297 0.059994 -2.32174e-20)
(1.13863 0.0585239 3.32558e-20)
(1.13449 0.0569953 -1.48927e-20)
(1.13052 0.0554083 1.53741e-20)
(1.12673 0.0537639 -2.83689e-21)
(1.1231 0.0520634 4.11834e-21)
(1.11962 0.0503089 -1.44479e-20)
(1.11629 0.0485027 7.44482e-22)
(1.1131 0.0466474 4.71851e-22)
(1.11004 0.0447462 7.32552e-21)
(1.1071 0.0428025 -2.39679e-21)
(1.10428 0.0408197 -4.42997e-21)
(1.10157 0.0388015 6.63936e-21)
(1.09898 0.0367519 -2.28272e-21)
(1.09648 0.0346745 1.21401e-21)
(1.09409 0.0325729 1.81198e-22)
(1.0918 0.0304506 -1.70275e-21)
(1.08962 0.0283105 1.21553e-21)
(1.08754 0.0261552 -1.55518e-21)
(1.08557 0.0239867 -6.85758e-22)
(1.08372 0.0218063 -4.52318e-22)
(1.08198 0.0196141 -5.09538e-23)
(1.08038 0.0174094 7.46834e-22)
(1.07892 0.0151899 -9.68185e-23)
(1.0776 0.0129531 1.6167e-22)
(1.07646 0.0106915 1.53095e-22)
(1.07549 0.00840392 -1.28164e-23)
(1.07473 0.00606874 -2.81791e-24)
(1.07419 0.00369785 1.9633e-23)
(1.07388 0.00124581 1.25811e-23)
(1.20251 0.0661696 -2.49163e-20)
(1.19571 0.0654253 5.81145e-21)
(1.18901 0.0647623 -6.19342e-20)
(1.18247 0.0641723 -1.60408e-20)
(1.17613 0.0634782 5.35985e-20)
(1.17006 0.0626639 1.41138e-20)
(1.16432 0.0617687 -3.68432e-20)
(1.15892 0.0608099 1.54754e-20)
(1.15382 0.0597862 -2.13219e-20)
(1.14899 0.0586922 3.54495e-20)
(1.1444 0.0575241 -3.62797e-20)
(1.14001 0.0562801 1.12372e-20)
(1.13582 0.0549599 4.40848e-21)
(1.13182 0.0535642 -9.23754e-21)
(1.12799 0.0520946 1.91727e-20)
(1.12432 0.0505534 -1.22052e-20)
(1.12081 0.0489437 7.58961e-21)
(1.11744 0.0472687 -1.55056e-20)
(1.11421 0.0455322 1.43593e-20)
(1.11112 0.0437382 -3.30646e-22)
(1.10815 0.041891 -8.65832e-21)
(1.10529 0.0399954 7.22105e-21)
(1.10255 0.0380558 -1.50804e-21)
(1.09992 0.0360771 -2.88249e-21)
(1.09739 0.0340639 -1.50047e-22)
(1.09497 0.0320206 4.19638e-22)
(1.09264 0.0299515 1.99344e-21)
(1.09043 0.0278602 -2.04032e-21)
(1.08832 0.02575 -1.54591e-22)
(1.08631 0.0236236 3.29926e-22)
(1.08443 0.0214825 4.35808e-22)
(1.08266 0.0193277 -3.86553e-22)
(1.08103 0.0171588 -2.82276e-22)
(1.07954 0.014974 -1.37121e-22)
(1.07821 0.0127708 -8.0152e-23)
(1.07704 0.0105424 9.26549e-23)
(1.07606 0.00828772 4.66851e-23)