/*--------------------------------*- C++ -*----------------------------------*\
  =========                 |
  \\      /  F ield         | OpenFOAM: The Open Source CFD Toolbox
   \\    /   O peration     | Website:  https://openfoam.org
    \\  /    A nd           | Version:  7
     \\/     M anipulation  |
\*---------------------------------------------------------------------------*/
FoamFile
{
    version     2.0;
    format      ascii;
    class       volVectorField;
    location    "180";
    object      U;
}
// * * * * * * * * * * * * * * * * * * * * * * * * * * * * * * * * * * * * * //

dimensions      [0 1 -1 0 0 0 0];

internalField   nonuniform List<vector> 
1987
(
(1.28586 -0.000898218 0)
(1.29509 0.0159155 0)
(1.30245 0.0353728 0)
(1.30728 0.057062 0)
(1.30904 0.0804212 0)
(1.30736 0.104815 0)
(1.30201 0.129538 0)
(1.29293 0.153859 0)
(1.28025 0.177082 0)
(1.26427 0.198595 0)
(1.24538 0.217899 0)
(1.22406 0.234625 0)
(1.20084 0.248541 0)
(1.17621 0.259536 0)
(1.15064 0.267607 0)
(1.12455 0.272832 0)
(1.09827 0.275346 0)
(1.07208 0.275315 0)
(1.04615 0.272913 0)
(1.02064 0.268302 0)
(0.995606 0.261617 0)
(0.97109 0.252965 0)
(0.947102 0.242388 0)
(0.923667 0.229868 0)
(0.900775 0.215391 0)
(0.878385 0.198902 0)
(0.856618 0.180098 0)
(0.835794 0.158535 0)
(0.815922 0.134256 0)
(0.796245 0.108154 0)
(0.776 0.0811455 0)
(0.756041 0.0528526 0)
(0.739527 0.0214515 0)
(0.730654 -0.0148517 0)
(0.732361 -0.0560323 0)
(0.744972 -0.100063 0)
(0.766595 -0.143891 0)
(1.27819 0.00502577 0)
(1.28586 0.0207958 0)
(1.29179 0.038826 0)
(1.29543 0.0587829 0)
(1.29632 0.0801928 0)
(1.29413 0.102506 0)
(1.28868 0.125115 0)
(1.27992 0.147388 0)
(1.26793 0.168721 0)
(1.25296 0.188571 0)
(1.23533 0.206485 0)
(1.21545 0.222119 0)
(1.19376 0.235238 0)
(1.1707 0.245715 0)
(1.14667 0.253514 0)
(1.12206 0.258675 0)
(1.09717 0.261289 0)
(1.07226 0.261481 0)
(1.04753 0.259387 0)
(1.02312 0.255139 0)
(0.99911 0.248846 0)
(0.975569 0.240596 0)
(0.952527 0.230428 0)
(0.930026 0.218322 0)
(0.908103 0.20425 0)
(0.886746 0.188172 0)
(0.866038 0.169881 0)
(0.846313 0.14895 0)
(0.827861 0.125202 0)
(0.810311 0.099266 0)
(0.792758 0.0722583 0)
(0.775074 0.0446097 0)
(0.75915 0.0153501 0)
(0.748571 -0.0171668 0)
(0.746759 -0.0536952 0)
(0.755192 -0.0932795 0)
(0.773013 -0.133679 0)
(0.797814 -0.172581 0)
(0.826754 -0.208748 0)
(0.85748 -0.242465 0)
(0.888721 -0.275014 0)
(0.920684 -0.307145 0)
(0.954957 -0.337277 0)
(0.993184 -0.361104 0)
(1.0351 -0.373095 0)
(1.07826 -0.367556 0)
(1.1196 -0.337879 0)
(1.1571 -0.276851 0)
(1.19007 -0.181875 0)
(1.21636 -0.062435 0)
(1.23063 0.0602775 0)
(1.22831 0.164277 0)
(1.20963 0.237474 0)
(1.17903 0.279664 0)
(1.14223 0.297649 0)
(1.10394 0.299679 0)
(1.26964 0.0101464 0)
(1.27593 0.0249117 0)
(1.28064 0.0416126 0)
(1.28328 0.0599671 0)
(1.28348 0.0795769 0)
(1.28094 0.0999713 0)
(1.2755 0.120629 0)
(1.2671 0.141008 0)
(1.25582 0.160581 0)
(1.24183 0.178868 0)
(1.22542 0.195459 0)
(1.20692 0.210032 0)
(1.18669 0.222357 0)
(1.16513 0.232292 0)
(1.1426 0.239779 0)
(1.11943 0.244825 0)
(1.09592 0.247484 0)
(1.0723 0.247847 0)
(1.04877 0.246016 0)
(1.02548 0.242094 0)
(1.00252 0.236168 0)
(0.979993 0.228307 0)
(0.95793 0.218546 0)
(0.936397 0.206868 0)
(0.91546 0.193232 0)
(0.895153 0.177603 0)
(0.875539 0.159846 0)
(0.856906 0.139621 0)
(0.839685 0.116626 0)
(0.823894 0.0911764 0)
(0.808818 0.0643055 0)
(0.793759 0.0369596 0)
(0.779394 0.00903075 0)
(0.768272 -0.0206181 0)
(0.763707 -0.0530514 0)
(0.768021 -0.0882206 0)
(0.781511 -0.124825 0)
(0.802626 -0.161099 0)
(0.828894 -0.195849 0)
(0.857962 -0.229015 0)
(0.888446 -0.261281 0)
(0.920465 -0.292754 0)
(0.955399 -0.321597 0)
(0.994433 -0.343961 0)
(1.03697 -0.35515 0)
(1.08059 -0.349968 0)
(1.12252 -0.321599 0)
(1.16145 -0.262311 0)
(1.19681 -0.169729 0)
(1.2252 -0.0543289 0)
(1.24005 0.0625264 0)
(1.23689 0.160073 0)
(1.21685 0.227933 0)
(1.18509 0.266851 0)
(1.14758 0.283583 0)
(1.10898 0.285755 0)
(1.2607 0.0145211 0)
(1.26579 0.0283315 0)
(1.26943 0.0437932 0)
(1.27123 0.0606677 0)
(1.27086 0.078621 0)
(1.26806 0.0972527 0)
(1.26267 0.116117 0)
(1.25465 0.134746 0)
(1.24405 0.152682 0)
(1.231 0.169499 0)
(1.21573 0.184829 0)
(1.19852 0.198373 0)
(1.17969 0.209906 0)
(1.15957 0.219281 0)
(1.13847 0.226421 0)
(1.11671 0.231306 0)
(1.09455 0.233962 0)
(1.07221 0.234448 0)
(1.04989 0.232837 0)
(1.02773 0.229205 0)
(1.00586 0.223621 0)
(0.984358 0.216136 0)
(0.963303 0.20678 0)
(0.942764 0.195539 0)
(0.92283 0.18237 0)
(0.903577 0.167229 0)
(0.885076 0.150034 0)
(0.867552 0.130545 0)
(0.851454 0.108446 0)
(0.837091 0.0837881 0)
(0.824114 0.0573365 0)
(0.811691 0.030213 0)
(0.79959 0.00300108 0)
(0.789145 -0.0247174 0)
(0.783006 -0.0538788 0)
(0.783805 -0.0850061 0)
(0.792837 -0.117693 0)
(0.809613 -0.150892 0)
(0.832362 -0.18368 0)
(0.85902 -0.21578 0)
(0.888243 -0.247303 0)
(0.920026 -0.27775 0)
(0.955374 -0.3051 0)
(0.994938 -0.325973 0)
(1.03779 -0.336404 0)
(1.08156 -0.331538 0)
(1.12408 -0.304222 0)
(1.16483 -0.24636 0)
(1.20286 -0.156219 0)
(1.23312 -0.0454188 0)
(1.2481 0.064759 0)
(1.24382 0.155259 0)
(1.2224 0.217565 0)
(1.1897 0.253252 0)
(1.1518 0.268864 0)
(1.1132 0.271313 0)
(1.25165 0.0182013 0)
(1.25568 0.031108 0)
(1.2584 0.0454186 0)
(1.25948 0.0609316 0)
(1.25862 0.0773658 0)
(1.25561 0.0943812 0)
(1.2503 0.111596 0)
(1.24265 0.128609 0)
(1.23269 0.145021 0)
(1.22051 0.160458 0)
(1.20631 0.174588 0)
(1.19032 0.187135 0)
(1.17281 0.197886 0)
(1.15405 0.206689 0)
(1.13434 0.213453 0)
(1.11394 0.218139 0)
(1.09309 0.220749 0)
(1.07202 0.221314 0)
(1.0509 0.219883 0)
(1.02989 0.216509 0)
(1.00911 0.211244 0)
(0.988662 0.204123 0)
(0.968635 0.195169 0)
(0.949112 0.184372 0)
(0.930196 0.171691 0)
(0.911993 0.157079 0)
(0.894602 0.140478 0)
(0.878203 0.121741 0)
(0.863187 0.100606 0)
(0.850009 0.076967 0)
(0.838697 0.0512719 0)
(0.828625 0.0245332 0)
(0.819094 -0.00227045 0)
(0.81036 -0.0288596 0)
(0.804049 -0.0557141 0)
(0.802497 -0.0835092 0)
(0.807561 -0.112497 0)
(0.819768 -0.142385 0)
(0.838306 -0.172695 0)
(0.861746 -0.203108 0)
(0.889017 -0.233291 0)
(0.920019 -0.262248 0)
(0.955304 -0.287867 0)
(0.994951 -0.307219 0)
(1.0377 -0.316933 0)
(1.0814 -0.312278 0)
(1.12476 -0.28563 0)
(1.16781 -0.228814 0)
(1.20857 -0.141268 0)
(1.24018 -0.0358363 0)
(1.25463 0.0667919 0)
(1.24886 0.149727 0)
(1.2261 0.206369 0)
(1.19273 0.238943 0)
(1.1548 0.253598 0)
(1.11654 0.256451 0)
(1.24261 0.0212369 0)
(1.24572 0.0332919 0)
(1.24765 0.0465359 0)
(1.24809 0.0607975 0)
(1.24683 0.0758396 0)
(1.24365 0.0913734 0)
(1.23845 0.107073 0)
(1.23115 0.122595 0)
(1.22178 0.137591 0)
(1.21042 0.151733 0)
(1.19722 0.164725 0)
(1.18236 0.176313 0)
(1.16609 0.186294 0)
(1.14863 0.194519 0)
(1.13023 0.200887 0)
(1.11114 0.205343 0)
(1.09159 0.207869 0)
(1.07176 0.208475 0)
(1.05183 0.207188 0)
(1.03197 0.204042 0)
(1.01229 0.199072 0)
(0.992902 0.192303 0)
(0.973916 0.183748 0)
(0.955423 0.173401 0)
(0.937534 0.161227 0)
(0.920376 0.14718 0)
(0.904077 0.131211 0)
(0.888799 0.113236 0)
(0.874858 0.0930826 0)
(0.862724 0.0705943 0)
(0.852696 0.0459586 0)
(0.844509 0.019918 0)
(0.837436 -0.00647147 0)
(0.831032 -0.0324394 0)
(0.82586 -0.0578886 0)
(0.823488 -0.0832758 0)
(0.825755 -0.109152 0)
(0.833865 -0.135822 0)
(0.847994 -0.163312 0)
(0.867606 -0.191429 0)
(0.892163 -0.219601 0)
(0.921604 -0.246532 0)
(0.95608 -0.270135 0)
(0.995141 -0.287902 0)
(1.0373 -0.296866 0)
(1.08088 -0.292125 0)
(1.12552 -0.265567 0)
(1.17124 -0.209463 0)
(1.21436 -0.124948 0)
(1.24638 -0.0258657 0)
(1.25943 0.0683585 0)
(1.2518 0.143357 0)
(1.2278 0.194371 0)
(1.19409 0.224031 0)
(1.15653 0.237914 0)
(1.11897 0.241285 0)
(1.23367 0.0236804 0)
(1.23598 0.0349337 0)
(1.23721 0.047189 0)
(1.23713 0.0602999 0)
(1.23552 0.0740661 0)
(1.23222 0.0882425 0)
(1.22712 0.102552 0)
(1.22016 0.116698 0)
(1.21135 0.130381 0)
(1.20075 0.143313 0)
(1.18847 0.155228 0)
(1.17468 0.165896 0)
(1.15956 0.175127 0)
(1.14333 0.182774 0)
(1.12619 0.188731 0)
(1.10837 0.192932 0)
(1.09006 0.195343 0)
(1.07144 0.195957 0)
(1.0527 0.194782 0)
(1.03397 0.191837 0)
(1.01539 0.187141 0)
(0.997074 0.180711 0)
(0.979134 0.172553 0)
(0.961677 0.16266 0)
(0.94482 0.151007 0)
(0.9287 0.137552 0)
(0.913466 0.122253 0)
(0.899286 0.105061 0)
(0.886415 0.0858836 0)
(0.875263 0.0645927 0)
(0.866254 0.0412216 0)
(0.859462 0.0162236 0)
(0.854418 -0.00950693 0)
(0.850441 -0.0349982 0)
(0.847301 -0.0596726 0)
(0.845634 -0.0835679 0)
(0.846752 -0.107172 0)
(0.852017 -0.131084 0)
(0.862326 -0.155726 0)
(0.878056 -0.181123 0)
(0.899368 -0.206679 0)
(0.926436 -0.231042 0)
(0.959192 -0.252302 0)
(0.996845 -0.268332 0)
(1.03794 -0.276303 0)
(1.08153 -0.2709 0)
(1.12788 -0.243763 0)
(1.17615 -0.188299 0)
(1.22054 -0.107611 0)
(1.25153 -0.0159812 0)
(1.2622 0.0691235 0)
(1.25242 0.136043 0)
(1.22737 0.181637 0)
(1.19374 0.208664 0)
(1.15698 0.221969 0)
(1.12047 0.225948 0)
(1.22485 0.0255845 0)
(1.22648 0.0360829 0)
(1.22713 0.0474205 0)
(1.2266 0.0594725 0)
(1.22471 0.072069 0)
(1.22133 0.0850023 0)
(1.21634 0.0980358 0)
(1.20971 0.110916 0)
(1.20142 0.123383 0)
(1.19152 0.135185 0)
(1.1801 0.146085 0)
(1.1673 0.155876 0)
(1.15327 0.16438 0)
(1.1382 0.171454 0)
(1.12225 0.176991 0)
(1.10564 0.180919 0)
(1.08853 0.18319 0)
(1.0711 0.183783 0)
(1.05351 0.182693 0)
(1.03591 0.179924 0)
(1.01842 0.175484 0)
(1.00117 0.169381 0)
(0.984279 0.161616 0)
(0.967857 0.152182 0)
(0.952028 0.14106 0)
(0.936935 0.128218 0)
(0.92274 0.11362 0)
(0.909618 0.0972365 0)
(0.897793 0.0790297 0)
(0.887601 0.0589297 0)
(0.879466 0.0369189 0)
(0.873681 0.0132335 0)
(0.870115 -0.0114903 0)
(0.868214 -0.0363376 0)
(0.867387 -0.0604804 0)
(0.867516 -0.083548 0)
(0.869159 -0.105732 0)
(0.873356 -0.127596 0)
(0.881253 -0.149718 0)
(0.893865 -0.172302 0)
(0.912017 -0.194874 0)
(0.936244 -0.216252 0)
(0.966516 -0.234847 0)
(1.00204 -0.248835 0)
(1.04177 -0.255283 0)
(1.0855 -0.248426 0)
(1.13348 -0.220177 0)
(1.18322 -0.165709 0)
(1.22699 -0.0899557 0)
(1.25519 -0.00683111 0)
(1.26255 0.068732 0)
(1.25051 0.127731 0)
(1.22477 0.168294 0)
(1.19171 0.193026 0)
(1.15617 0.20594 0)
(1.12106 0.210584 0)
(1.21623 0.0270001 0)
(1.21727 0.0367867 0)
(1.21743 0.0472719 0)
(1.21653 0.0583485 0)
(1.21442 0.0698723 0)
(1.21098 0.0816667 0)
(1.20612 0.0935303 0)
(1.19979 0.105246 0)
(1.19199 0.116588 0)
(1.18274 0.127338 0)
(1.17213 0.137285 0)
(1.16025 0.146242 0)
(1.14724 0.154044 0)
(1.13325 0.160556 0)
(1.11844 0.165672 0)
(1.10298 0.169313 0)
(1.08702 0.171424 0)
(1.07074 0.171974 0)
(1.05428 0.170945 0)
(1.03779 0.168331 0)
(1.02138 0.164131 0)
(1.00519 0.158344 0)
(0.989336 0.150969 0)
(0.973941 0.141997 0)
(0.959132 0.131414 0)
(0.945052 0.119199 0)
(0.931866 0.105324 0)
(0.919758 0.0897734 0)
(0.908938 0.0725391 0)
(0.899682 0.0536057 0)
(0.89236 0.032969 0)
(0.887339 0.0107459 0)
(0.88476 -0.0126615 0)
(0.884356 -0.0365341 0)
(0.885566 -0.0600324 0)
(0.887886 -0.082539 0)
(0.891237 -0.103905 0)
(0.896103 -0.124435 0)
(0.903434 -0.144601 0)
(0.914436 -0.164634 0)
(0.930315 -0.184211 0)
(0.951941 -0.202444 0)
(0.979517 -0.218129 0)
(1.01262 -0.229647 0)
(1.05087 -0.233844 0)
(1.09455 -0.224762 0)
(1.14314 -0.195256 0)
(1.19221 -0.142603 0)
(1.23289 -0.0730014 0)
(1.25659 0.000865092 0)
(1.26005 0.0669004 0)
(1.24595 0.118465 0)
(1.22005 0.154538 0)
(1.18808 0.177339 0)
(1.15419 0.19002 0)
(1.12079 0.195344 0)
(1.20784 0.0279748 0)
(1.20838 0.0370901 0)
(1.20813 0.0467822 0)
(1.20692 0.0569593 0)
(1.20464 0.0674984 0)
(1.20117 0.0782492 0)
(1.19645 0.0890399 0)
(1.19042 0.0996842 0)
(1.18307 0.109988 0)
(1.17443 0.11976 0)
(1.16456 0.128814 0)
(1.15354 0.136982 0)
(1.14148 0.144112 0)
(1.12851 0.150078 0)
(1.11476 0.154774 0)
(1.1004 0.158121 0)
(1.08556 0.160059 0)
(1.07039 0.160548 0)
(1.05502 0.159562 0)
(1.03961 0.157085 0)
(1.02426 0.15311 0)
(1.00912 0.147629 0)
(0.994292 0.140639 0)
(0.97991 0.13213 0)
(0.966104 0.122093 0)
(0.953017 0.110514 0)
(0.940812 0.0973775 0)
(0.929672 0.0826772 0)
(0.919804 0.0664214 0)
(0.911445 0.0486333 0)
(0.904903 0.0293396 0)
(0.900533 0.00862037 0)
(0.898608 -0.0132772 0)
(0.899137 -0.035846 0)
(0.901788 -0.0583853 0)
(0.906042 -0.0802255 0)
(0.911496 -0.100981 0)
(0.918147 -0.12064 0)
(0.926529 -0.1394 0)
(0.937644 -0.157358 0)
(0.952694 -0.174259 0)
(0.972678 -0.189495 0)
(0.998081 -0.202194 0)
(1.02902 -0.210839 0)
(1.06579 -0.212128 0)
(1.10866 -0.200404 0)
(1.15588 -0.170043 0)
(1.20151 -0.120321 0)
(1.23675 -0.057875 0)
(1.25483 0.00651056 0)
(1.25438 0.0635284 0)
(1.23878 0.108429 0)
(1.21338 0.140637 0)
(1.18303 0.161851 0)
(1.15115 0.174403 0)
(1.11971 0.180374 0)
(1.1997 0.028553 0)
(1.19983 0.0370342 0)
(1.19923 0.0459878 0)
(1.19778 0.0553342 0)
(1.19537 0.0649684 0)
(1.1919 0.0747622 0)
(1.18732 0.0845692 0)
(1.18157 0.0942293 0)
(1.17465 0.103576 0)
(1.16658 0.11244 0)
(1.1574 0.12066 0)
(1.14717 0.128084 0)
(1.13599 0.134574 0)
(1.12398 0.140012 0)
(1.11125 0.144297 0)
(1.09792 0.147349 0)
(1.08414 0.149105 0)
(1.07004 0.149521 0)
(1.05574 0.148563 0)
(1.04137 0.146209 0)
(1.02707 0.142446 0)
(1.01295 0.137263 0)
(0.999131 0.130652 0)
(0.985745 0.122606 0)
(0.97292 0.113118 0)
(0.9608 0.102182 0)
(0.949544 0.0897914 0)
(0.939329 0.0759502 0)
(0.930355 0.0606782 0)
(0.922841 0.044018 0)
(0.917045 0.0260253 0)
(0.913272 0.00678348 0)
(0.911826 -0.0135317 0)
(0.912881 -0.0345752 0)
(0.916357 -0.0558223 0)
(0.921924 -0.0766834 0)
(0.929162 -0.096684 0)
(0.93783 -0.115569 0)
(0.948087 -0.13324 0)
(0.96055 -0.14957 0)
(0.976124 -0.164269 0)
(0.995687 -0.176885 0)
(1.01988 -0.186732 0)
(1.04927 -0.192327 0)
(1.08444 -0.190448 0)
(1.12525 -0.176267 0)
(1.16877 -0.14594 0)
(1.20853 -0.10025 0)
(1.23691 -0.0454592 0)
(1.24923 0.00984452 0)
(1.24552 0.0587774 0)
(1.22928 0.0979446 0)
(1.20505 0.126908 0)
(1.17679 0.146809 0)
(1.14722 0.159272 0)
(1.11794 0.165811 0)
(1.19183 0.0287761 0)
(1.19162 0.036658 0)
(1.19074 0.0449225 0)
(1.18909 0.0535007 0)
(1.18658 0.0623025 0)
(1.18314 0.0712184 0)
(1.1787 0.0801232 0)
(1.17323 0.0888795 0)
(1.16671 0.0973432 0)
(1.15917 0.105368 0)
(1.15062 0.112812 0)
(1.14114 0.119538 0)
(1.13079 0.125422 0)
(1.11967 0.130354 0)
(1.10789 0.13424 0)
(1.09555 0.137 0)
(1.08278 0.138571 0)
(1.0697 0.138905 0)
(1.05643 0.137964 0)
(1.04308 0.135722 0)
(1.02979 0.132161 0)
(1.01667 0.127268 0)
(1.00384 0.121032 0)
(0.991424 0.113447 0)
(0.979555 0.104509 0)
(0.968372 0.0942169 0)
(0.958028 0.0825748 0)
(0.948695 0.0695945 0)
(0.940562 0.0553051 0)
(0.933832 0.0397577 0)
(0.928732 0.0230268 0)
(0.925521 0.00521303 0)
(0.924475 -0.0135336 0)
(0.925829 -0.032961 0)
(0.929673 -0.052686 0)
(0.935896 -0.0722408 0)
(0.944235 -0.091169 0)
(0.954443 -0.109094 0)
(0.966482 -0.125697 0)
(0.980621 -0.140645 0)
(0.997379 -0.153551 0)
(1.01735 -0.163984 0)
(1.04115 -0.17129 0)
(1.06943 -0.174007 0)
(1.1027 -0.169273 0)
(1.14012 -0.15341 0)
(1.17817 -0.124223 0)
(1.21084 -0.0833318 0)
(1.2323 -0.0360753 0)
(1.2397 0.0110546 0)
(1.23387 0.0530596 0)
(1.21792 0.0874256 0)
(1.19549 0.113672 0)
(1.16966 0.13244 0)
(1.14257 0.144783 0)
(1.11556 0.151771 0)
(1.18422 0.0286835 0)
(1.18372 0.0359981 0)
(1.18262 0.0436188 0)
(1.18082 0.0514856 0)
(1.17826 0.0595209 0)
(1.17486 0.0676308 0)
(1.17057 0.075708 0)
(1.16537 0.0836348 0)
(1.15923 0.0912865 0)
(1.15218 0.0985363 0)
(1.14423 0.105259 0)
(1.13544 0.111333 0)
(1.12587 0.116647 0)
(1.11559 0.121099 0)
(1.1047 0.124601 0)
(1.09329 0.127077 0)
(1.08149 0.128463 0)
(1.06938 0.128711 0)
(1.0571 0.127781 0)
(1.04474 0.125643 0)
(1.03243 0.122276 0)
(1.02028 0.117664 0)
(1.0084 0.111797 0)
(0.996929 0.10467 0)
(0.985984 0.09628 0)
(0.975703 0.0866315 0)
(0.966233 0.0757351 0)
(0.957737 0.0636106 0)
(0.950391 0.0502947 0)
(0.944387 0.0358448 0)
(0.939927 0.0203437 0)
(0.937232 0.00390359 0)
(0.936543 -0.0133303 0)
(0.938092 -0.0311472 0)
(0.942042 -0.0492527 0)
(0.948435 -0.067282 0)
(0.957188 -0.0848377 0)
(0.968164 -0.101514 0)
(0.98129 -0.116886 0)
(0.99663 -0.130486 0)
(1.01439 -0.141836 0)
(1.03485 -0.150446 0)
(1.05844 -0.15561 0)
(1.08563 -0.155944 0)
(1.11648 -0.149131 0)
(1.14963 -0.132671 0)
(1.18154 -0.105599 0)
(1.20734 -0.0697751 0)
(1.22297 -0.0294262 0)
(1.22691 0.0106925 0)
(1.2202 0.0469218 0)
(1.20535 0.0772867 0)
(1.18514 0.101203 0)
(1.16192 0.118918 0)
(1.13739 0.131056 0)
(1.11268 0.13835 0)
(1.17686 0.0283129 0)
(1.17614 0.03509 0)
(1.17486 0.0421084 0)
(1.17296 0.0493154 0)
(1.17036 0.0566439 0)
(1.16702 0.0640134 0)
(1.1629 0.0713316 0)
(1.15795 0.0784973 0)
(1.15219 0.085403 0)
(1.1456 0.0919383 0)
(1.13821 0.0979932 0)
(1.13006 0.103461 0)
(1.12121 0.108241 0)
(1.11172 0.112241 0)
(1.10167 0.115377 0)
(1.09115 0.11758 0)
(1.08026 0.118787 0)
(1.06909 0.118949 0)
(1.05774 0.118025 0)
(1.04633 0.115985 0)
(1.03497 0.112805 0)
(1.02375 0.108468 0)
(1.0128 0.102965 0)
(1.00224 0.0962899 0)
(0.992185 0.0884436 0)
(0.982768 0.0794339 0)
(0.97413 0.0692763 0)
(0.966425 0.0579976 0)
(0.959815 0.0456398 0)
(0.954478 0.0322657 0)
(0.950597 0.0179631 0)
(0.948368 0.00284393 0)
(0.947997 -0.0129431 0)
(0.949688 -0.0292048 0)
(0.953618 -0.0456941 0)
(0.959902 -0.0621117 0)
(0.968575 -0.0781161 0)
(0.979619 -0.0933188 0)
(0.992997 -0.107269 0)
(1.00869 -0.119456 0)
(1.02672 -0.129348 0)
(1.04716 -0.136388 0)
(1.07014 -0.139828 0)
(1.09581 -0.138434 0)
(1.12377 -0.130484 0)
(1.15237 -0.114442 0)
(1.17853 -0.0900837 0)
(1.19866 -0.0591423 0)
(1.21009 -0.0248104 0)
(1.21205 0.00944973 0)
(1.20547 0.0408846 0)
(1.19225 0.0678558 0)
(1.17444 0.0896906 0)
(1.15385 0.106356 0)
(1.13185 0.118171 0)
(1.10941 0.125614 0)
(1.16975 0.0277005 0)
(1.16885 0.0339681 0)
(1.16744 0.0404222 0)
(1.16547 0.0470165 0)
(1.16287 0.0536927 0)
(1.15961 0.0603814 0)
(1.15565 0.0670033 0)
(1.15097 0.0734712 0)
(1.14555 0.0796922 0)
(1.1394 0.0855706 0)
(1.13254 0.0910099 0)
(1.125 0.0959158 0)
(1.11682 0.100199 0)
(1.10807 0.103774 0)
(1.09881 0.106567 0)
(1.08913 0.108511 0)
(1.0791 0.109546 0)
(1.06881 0.109624 0)
(1.05837 0.108706 0)
(1.04787 0.106759 0)
(1.03741 0.103761 0)
(1.02709 0.0996939 0)
(1.01703 0.0945476 0)
(1.00734 0.0883182 0)
(0.998137 0.0810085 0)
(0.989543 0.0726291 0)
(0.981694 0.0631997 0)
(0.97473 0.0527519 0)
(0.968805 0.0413321 0)
(0.964079 0.0290057 0)
(0.960721 0.0158624 0)
(0.958903 0.00201508 0)
(0.958803 -0.0123898 0)
(0.960597 -0.0271691 0)
(0.964449 -0.0421 0)
(0.970488 -0.0569197 0)
(0.978805 -0.0713247 0)
(0.989446 -0.0849565 0)
(1.00242 -0.0973847 0)
(1.01769 -0.10811 0)
(1.03519 -0.116595 0)
(1.05484 -0.122257 0)
(1.07657 -0.124361 0)
(1.10018 -0.121881 0)
(1.12496 -0.113609 0)
(1.14927 -0.0986764 0)
(1.17066 -0.077217 0)
(1.18658 -0.0506862 0)
(1.19529 -0.0214486 0)
(1.19638 0.00792929 0)
(1.19055 0.035322 0)
(1.17917 0.0593273 0)
(1.16374 0.0792255 0)
(1.14567 0.094803 0)
(1.12609 0.106169 0)
(1.10585 0.113609 0)
(1.16288 0.0268809 0)
(1.16185 0.0326651 0)
(1.16035 0.0385901 0)
(1.15834 0.0446148 0)
(1.15577 0.0506884 0)
(1.15261 0.056751 0)
(1.14882 0.062734 0)
(1.14439 0.0685623 0)
(1.1393 0.0741558 0)
(1.13357 0.0794311 0)
(1.1272 0.0843042 0)
(1.12023 0.0886919 0)
(1.11269 0.0925142 0)
(1.10464 0.0956959 0)
(1.09612 0.0981677 0)
(1.08722 0.0998675 0)
(1.07801 0.100741 0)
(1.06857 0.100741 0)
(1.05898 0.0998293 0)
(1.04934 0.097975 0)
(1.03974 0.0951543 0)
(1.03029 0.0913507 0)
(1.02108 0.0865543 0)
(1.01222 0.0807624 0)
(1.00382 0.0739797 0)
(0.996009 0.0662191 0)
(0.9889 0.0575034 0)
(0.98263 0.0478674 0)
(0.977338 0.0373603 0)
(0.97317 0.0260496 0)
(0.970277 0.0140227 0)
(0.968815 0.00139691 0)
(0.968938 -0.0116911 0)
(0.970797 -0.0250653 0)
(0.974532 -0.0385183 0)
(0.980266 -0.0518088 0)
(0.988095 -0.0646579 0)
(0.998085 -0.0767364 0)
(1.01026 -0.0876497 0)
(1.02458 -0.0969382 0)
(1.04095 -0.104095 0)
(1.05922 -0.10856 0)
(1.07915 -0.109665 0)
(1.10033 -0.106603 0)
(1.12192 -0.0985601 0)
(1.14247 -0.0850688 0)
(1.16012 -0.0664002 0)
(1.17305 -0.0437072 0)
(1.18009 -0.0187587 0)
(1.18095 0.00650945 0)
(1.1761 0.0304215 0)
(1.16651 0.0517647 0)
(1.1533 0.0698175 0)
(1.13756 0.0842606 0)
(1.12023 0.0950605 0)
(1.10209 0.102361 0)
(1.15625 0.0258866 0)
(1.15512 0.0312123 0)
(1.15357 0.0366407 0)
(1.15155 0.0421354 0)
(1.14903 0.047652 0)
(1.14598 0.0531382 0)
(1.14237 0.0585351 0)
(1.13819 0.0637777 0)
(1.13343 0.0687966 0)
(1.12809 0.0735197 0)
(1.12219 0.0778733 0)
(1.11576 0.0817847 0)
(1.10881 0.0851828 0)
(1.10141 0.0880003 0)
(1.09359 0.0901746 0)
(1.08543 0.0916488 0)
(1.07699 0.0923724 0)
(1.06834 0.0923015 0)
(1.05956 0.0913995 0)
(1.05074 0.0896367 0)
(1.04197 0.0869902 0)
(1.03333 0.0834444 0)
(1.02493 0.0789903 0)
(1.01686 0.0736264 0)
(1.00923 0.0673588 0)
(1.00215 0.0602025 0)
(0.995731 0.0521823 0)
(0.990105 0.0433351 0)
(0.985394 0.0337115 0)
(0.981732 0.02338 0)
(0.979252 0.0124263 0)
(0.978092 0.000962644 0)
(0.97839 -0.0108728 0)
(0.980272 -0.0229199 0)
(0.983859 -0.0349829 0)
(0.989253 -0.0468362 0)
(0.996539 -0.0582207 0)
(1.00577 -0.0688337 0)
(1.01697 -0.078319 0)
(1.0301 -0.0862657 0)
(1.04503 -0.0922164 0)
(1.06156 -0.0956673 0)
(1.0794 -0.0960504 0)
(1.09804 -0.0927542 0)
(1.11665 -0.0852362 0)
(1.13403 -0.073261 0)
(1.14875 -0.0571273 0)
(1.15952 -0.0377273 0)
(1.16548 -0.0164104 0)
(1.16637 0.00535681 0)
(1.1625 0.0262213 0)
(1.15452 0.0451382 0)
(1.14328 0.0614201 0)
(1.12964 0.0746945 0)
(1.11439 0.0848344 0)
(1.09819 0.0918786 0)
(1.14987 0.0247482 0)
(1.14868 0.029639 0)
(1.1471 0.0346013 0)
(1.1451 0.0396025 0)
(1.14265 0.0446037 0)
(1.13972 0.0495595 0)
(1.13629 0.0544186 0)
(1.13236 0.059125 0)
(1.12791 0.0636185 0)
(1.12295 0.0678366 0)
(1.11749 0.0717152 0)
(1.11156 0.0751904 0)
(1.10518 0.0781996 0)
(1.09838 0.0806829 0)
(1.09122 0.082584 0)
(1.08375 0.0838513 0)
(1.07604 0.0844385 0)
(1.06814 0.0843052 0)
(1.06012 0.083417 0)
(1.05208 0.0817461 0)
(1.04408 0.0792711 0)
(1.03622 0.0759774 0)
(1.02857 0.0718573 0)
(1.02125 0.0669104 0)
(1.01433 0.061144 0)
(1.00794 0.0545747 0)
(1.00217 0.0472285 0)
(0.997138 0.0391435 0)
(0.992958 0.0303709 0)
(0.98975 0.0209781 0)
(0.987634 0.0110513 0)
(0.986728 0.00069367 0)
(0.987153 -0.00996094 0)
(0.989022 -0.0207611 0)
(0.992429 -0.0315247 0)
(0.99746 -0.0420417 0)
(1.00418 -0.0520718 0)
(1.01263 -0.0613382 0)
(1.0228 -0.0695223 0)
(1.03465 -0.0762619 0)
(1.04803 -0.0811573 0)
(1.06275 -0.0837759 0)
(1.07846 -0.083655 0)
(1.09465 -0.0803416 0)
(1.11059 -0.0734768 0)
(1.1253 -0.0629524 0)
(1.13769 -0.0490526 0)
(1.1468 -0.0324726 0)
(1.15196 -0.0142429 0)
(1.15294 0.00450531 0)
(1.1499 0.0226726 0)
(1.1433 0.0393677 0)
(1.13377 0.0539575 0)
(1.122 0.0660513 0)
(1.10862 0.0754639 0)
(1.09425 0.082159 0)
(1.14374 0.0234938 0)
(1.14252 0.0279725 0)
(1.14094 0.0324972 0)
(1.13897 0.0370388 0)
(1.1366 0.0415631 0)
(1.13381 0.0460304 0)
(1.13057 0.0503962 0)
(1.12688 0.0546119 0)
(1.12273 0.0586257 0)
(1.11813 0.062383 0)
(1.1131 0.0658283 0)
(1.10763 0.0689056 0)
(1.10177 0.0715599 0)
(1.09555 0.0737383 0)
(1.08901 0.0753905 0)
(1.08219 0.0764702 0)
(1.07515 0.0769353 0)
(1.06795 0.076749 0)
(1.06066 0.0758798 0)
(1.05334 0.074302 0)
(1.04607 0.071996 0)
(1.03893 0.0689486 0)
(1.032 0.0651533 0)
(1.02537 0.0606109 0)
(1.01914 0.05533 0)
(1.01338 0.0493278 0)
(1.00821 0.0426313 0)
(1.00372 0.0352787 0)
(1.00002 0.0273211 0)
(0.997216 0.018824 0)
(0.995415 0.00987034 0)
(0.99472 0.000561216 0)
(0.995234 -0.00898444 0)
(0.997051 -0.018619 0)
(1.00025 -0.0281747 0)
(1.0049 -0.0374582 0)
(1.01105 -0.046249 0)
(1.01871 -0.0542967 0)
(1.02786 -0.0613182 0)
(1.03845 -0.0669984 0)
(1.05032 -0.0709952 0)
(1.06327 -0.0729478 0)
(1.07696 -0.072491 0)
(1.09092 -0.0692898 0)
(1.10452 -0.0631124 0)
(1.11697 -0.0539205 0)
(1.12745 -0.0419654 0)
(1.13521 -0.0277967 0)
(1.13971 -0.0121981 0)
(1.14073 0.00392254 0)
(1.13836 0.0196907 0)
(1.13291 0.0343548 0)
(1.12485 0.0473425 0)
(1.1147 0.0582676 0)
(1.10302 0.0669125 0)
(1.09031 0.0731888 0)
(1.13788 0.0221496 0)
(1.13664 0.026238 0)
(1.13508 0.0303519 0)
(1.13317 0.0344655 0)
(1.13089 0.0385483 0)
(1.12824 0.0425657 0)
(1.12519 0.0464791 0)
(1.12174 0.0502462 0)
(1.11788 0.0538222 0)
(1.11363 0.0571599 0)
(1.10898 0.0602109 0)
(1.10397 0.0629266 0)
(1.0986 0.0652587 0)
(1.09291 0.0671606 0)
(1.08694 0.0685879 0)
(1.08073 0.0694992 0)
(1.07432 0.0698568 0)
(1.06778 0.0696276 0)
(1.06116 0.068783 0)
(1.05452 0.0672998 0)
(1.04794 0.0651603 0)
(1.04147 0.0623531 0)
(1.03522 0.0588728 0)
(1.02924 0.0547214 0)
(1.02362 0.0499082 0)
(1.01846 0.0444511 0)
(1.01383 0.0383774 0)
(1.00984 0.0317247 0)
(1.00657 0.024543 0)
(1.00413 0.0168953 0)
(1.0026 0.00886038 0)
(1.00207 0.000533573 0)
(1.00264 -0.00797206 0)
(1.00437 -0.0165222 0)
(1.00734 -0.0249619 0)
(1.0116 -0.0331145 0)
(1.01718 -0.0407802 0)
(1.02407 -0.0477351 0)
(1.03224 -0.0537302 0)
(1.04162 -0.0584945 0)
(1.05207 -0.0617397 0)
(1.06337 -0.0631706 0)
(1.07521 -0.062503 0)
(1.08719 -0.0594924 0)
(1.09876 -0.0539889 0)
(1.10931 -0.0459981 0)
(1.11817 -0.0357319 0)
(1.12478 -0.0236291 0)
(1.12869 -0.0103016 0)
(1.12971 0.00353656 0)
(1.12786 0.0171806 0)
(1.12335 0.0299994 0)
(1.11652 0.0414867 0)
(1.1078 0.0512763 0)
(1.09762 0.0591368 0)
(1.08642 0.0649467 0)
(1.13227 0.0207392 0)
(1.13104 0.0244584 0)
(1.12952 0.028187 0)
(1.12768 0.0319019 0)
(1.12551 0.035576 0)
(1.123 0.0391792 0)
(1.12014 0.0426776 0)
(1.11692 0.0460349 0)
(1.11335 0.049212 0)
(1.10942 0.0521682 0)
(1.10515 0.0548615 0)
(1.10055 0.0572496 0)
(1.09564 0.0592904 0)
(1.09045 0.0609432 0)
(1.08502 0.0621687 0)
(1.07937 0.0629305 0)
(1.07355 0.0631953 0)
(1.06762 0.0629332 0)
(1.06163 0.062119 0)
(1.05562 0.060732 0)
(1.04967 0.0587566 0)
(1.04384 0.0561829 0)
(1.0382 0.053007 0)
(1.03283 0.0492318 0)
(1.02779 0.0448673 0)
(1.02317 0.0399314 0)
(1.01904 0.0344512 0)
(1.0155 0.0284636 0)
(1.01262 0.0220163 0)
(1.01049 0.0151699 0)
(1.00919 0.00799818 0)
(1.00879 0.000589846 0)
(1.00938 -0.0069496 0)
(1.01101 -0.0144974 0)
(1.01373 -0.0219123 0)
(1.0176 -0.0290349 0)
(1.02261 -0.0356861 0)
(1.02876 -0.041668 0)
(1.036 -0.0467644 0)
(1.04426 -0.0507442 0)
(1.05339 -0.0533677 0)
(1.06319 -0.0543965 0)
(1.07338 -0.053611 0)
(1.08361 -0.0508347 0)
(1.09343 -0.0459725 0)
(1.10235 -0.0390511 0)
(1.10984 -0.030255 0)
(1.11545 -0.0199323 0)
(1.11883 -0.00856301 0)
(1.11979 0.00329177 0)
(1.11833 0.0150582 0)
(1.11459 0.0262099 0)
(1.1088 0.0363064 0)
(1.10131 0.0450101 0)
(1.09247 0.0520898 0)
(1.08265 0.0574048 0)
(1.12694 0.0192842 0)
(1.12574 0.0226546 0)
(1.12426 0.0260219 0)
(1.1225 0.0293655 0)
(1.12044 0.0326614 0)
(1.11808 0.0358831 0)
(1.11541 0.0390013 0)
(1.11242 0.0419843 0)
(1.10911 0.0447983 0)
(1.10549 0.0474082 0)
(1.10158 0.0497777 0)
(1.09737 0.05187 0)
(1.09289 0.0536487 0)
(1.08817 0.0550781 0)
(1.08323 0.0561242 0)
(1.0781 0.0567548 0)
(1.07284 0.0569408 0)
(1.06747 0.0566559 0)
(1.06205 0.0558777 0)
(1.05664 0.0545883 0)
(1.05128 0.0527741 0)
(1.04603 0.0504268 0)
(1.04096 0.047544 0)
(1.03614 0.0441292 0)
(1.03163 0.0401928 0)
(1.0275 0.0357528 0)
(1.02384 0.0308355 0)
(1.0207 0.0254761 0)
(1.01816 0.0197204 0)
(1.0163 0.0136252 0)
(1.01519 0.00725924 0)
(1.01489 0.000704867 0)
(1.01547 -0.00594161 0)
(1.01698 -0.0125683 0)
(1.01945 -0.0190481 0)
(1.02292 -0.0252382 0)
(1.02738 -0.0309803 0)
(1.03283 -0.0361014 0)
(1.0392 -0.0404157 0)
(1.04642 -0.0437281 0)
(1.05434 -0.0458411 0)
(1.06279 -0.0465645 0)
(1.07152 -0.0457288 0)
(1.08023 -0.0432082 0)
(1.08854 -0.0389436 0)
(1.09606 -0.0329733 0)
(1.10238 -0.0254555 0)
(1.10713 -0.0166639 0)
(1.11002 -0.00698124 0)
(1.1109 0.00314446 0)
(1.10973 0.0132523 0)
(1.1066 0.0229054 0)
(1.1017 0.0317242 0)
(1.09527 0.0394037 0)
(1.08761 0.0457219 0)
(1.07901 0.0505301 0)
(1.12189 0.0178037 0)
(1.12072 0.0208449 0)
(1.1193 0.0238738 0)
(1.11763 0.0268717 0)
(1.11569 0.0298175 0)
(1.11348 0.0326881 0)
(1.11099 0.0354578 0)
(1.10822 0.0380992 0)
(1.10517 0.0405832 0)
(1.10185 0.0428794 0)
(1.09826 0.0449563 0)
(1.09441 0.0467824 0)
(1.09034 0.048326 0)
(1.08604 0.0495565 0)
(1.08156 0.0504441 0)
(1.07693 0.0509609 0)
(1.07217 0.0510815 0)
(1.06732 0.0507831 0)
(1.06244 0.0500463 0)
(1.05756 0.0488555 0)
(1.05275 0.0471992 0)
(1.04804 0.0450709 0)
(1.04349 0.042469 0)
(1.03918 0.0393979 0)
(1.03515 0.0358682 0)
(1.03147 0.0318975 0)
(1.02821 0.027511 0)
(1.02544 0.0227422 0)
(1.0232 0.0176339 0)
(1.02158 0.0122391 0)
(1.02062 0.006621 0)
(1.0204 0.000855475 0)
(1.02095 -0.00497008 0)
(1.02232 -0.0107553 0)
(1.02453 -0.0163866 0)
(1.02762 -0.0217377 0)
(1.03156 -0.0266699 0)
(1.03634 -0.0310336 0)
(1.0419 -0.0346707 0)
(1.04817 -0.0374182 0)
(1.055 -0.0391147 0)
(1.06225 -0.0396089 0)
(1.06969 -0.0387718 0)
(1.07707 -0.0365131 0)
(1.08409 -0.0327982 0)
(1.09041 -0.0276714 0)
(1.09572 -0.0212619 0)
(1.09972 -0.0137931 0)
(1.10217 -0.00557038 0)
(1.10294 0.00305148 0)
(1.10199 0.0117005 0)
(1.09936 0.0200143 0)
(1.0952 0.027669 0)
(1.08968 0.034394 0)
(1.08305 0.0399825 0)
(1.07556 0.0442858 0)
(1.11712 0.0163145 0)
(1.116 0.0190456 0)
(1.11465 0.0217576 0)
(1.11307 0.0244338 0)
(1.11125 0.0270558 0)
(1.10919 0.0296031 0)
(1.10688 0.0320536 0)
(1.10432 0.0343835 0)
(1.10151 0.0365676 0)
(1.09846 0.0385798 0)
(1.09518 0.040393 0)
(1.09168 0.0419801 0)
(1.08797 0.0433139 0)
(1.08408 0.0443679 0)
(1.08002 0.0451165 0)
(1.07583 0.0455358 0)
(1.07154 0.0456036 0)
(1.06718 0.0453004 0)
(1.06278 0.0446096 0)
(1.0584 0.0435179 0)
(1.05408 0.0420158 0)
(1.04986 0.0400982 0)
(1.0458 0.0377646 0)
(1.04194 0.0350198 0)
(1.03835 0.0318746 0)
(1.03508 0.0283457 0)
(1.03219 0.0244572 0)
(1.02973 0.0202404 0)
(1.02776 0.0157351 0)
(1.02633 0.0109897 0)
(1.02551 0.0060627 0)
(1.02533 0.00102191 0)
(1.02583 -0.00405373 0)
(1.02705 -0.00907463 0)
(1.02902 -0.0139406 0)
(1.03173 -0.0185408 0)
(1.03518 -0.0227554 0)
(1.03934 -0.026456 0)
(1.04416 -0.0295095 0)
(1.04956 -0.0317807 0)
(1.05542 -0.0331387 0)
(1.0616 -0.0334638 0)
(1.06792 -0.0326586 0)
(1.07415 -0.0306582 0)
(1.08004 -0.0274448 0)
(1.08534 -0.0230608 0)
(1.08978 -0.0176158 0)
(1.09313 -0.0112932 0)
(1.09519 -0.00433076 0)
(1.09584 0.002985 0)
(1.09505 0.0103532 0)
(1.09283 0.0174752 0)
(1.08928 0.0240769 0)
(1.08455 0.0299216 0)
(1.07882 0.0348209 0)
(1.0723 0.0386321 0)
(1.11264 0.0148314 0)
(1.11157 0.0172705 0)
(1.1103 0.0196859 0)
(1.10881 0.0220629 0)
(1.10711 0.0243852 0)
(1.1052 0.0266351 0)
(1.10306 0.0287931 0)