/*--------------------------------*- C++ -*----------------------------------*\
  =========                 |
  \\      /  F ield         | OpenFOAM: The Open Source CFD Toolbox
   \\    /   O peration     | Website:  https://openfoam.org
    \\  /    A nd           | Version:  7
     \\/     M anipulation  |
\*---------------------------------------------------------------------------*/
FoamFile
{
    version     2.0;
    format      ascii;
    class       volScalarField;
    location    "85";
    object      p;
}
// * * * * * * * * * * * * * * * * * * * * * * * * * * * * * * * * * * * * * //

dimensions      [0 2 -2 0 0 0 0];

internalField   nonuniform List<scalar> 
1989
(
-0.151013
-0.161276
-0.171095
-0.17987
-0.186946
-0.191783
-0.193884
-0.192941
-0.188825
-0.181615
-0.171601
-0.159235
-0.145059
-0.129641
-0.113516
-0.0971491
-0.0809177
-0.0651062
-0.049915
-0.035475
-0.0218648
-0.0091271
0.00271372
0.0136365
0.0236136
0.032606
0.0405503
0.04732
0.0526407
-0.208053
-0.204016
-0.199346
-0.194062
-0.188199
-0.181815
-0.174984
-0.167798
-0.160363
-0.152802
-0.14525
-0.137852
-0.130762
-0.124142
-0.118152
-0.112968
-0.108751
-0.105667
-0.103848
-0.103395
-0.104387
-0.106873
-0.110851
-0.116264
-0.122987
-0.130818
-0.139476
-0.148596
-0.157734
-0.166403
-0.174059
-0.180135
-0.184139
-0.185643
-0.184379
-0.180238
-0.173296
-0.163804
-0.152156
-0.138824
-0.124308
-0.109084
-0.0935751
-0.0781275
-0.0630106
-0.0484204
-0.0344908
-0.0213078
-0.00892407
0.00262656
0.0133157
0.0231101
0.0319664
0.0398207
0.0465523
0.0519183
-0.202225
-0.198501
-0.194195
-0.189324
-0.183923
-0.178043
-0.171755
-0.165141
-0.158299
-0.15134
-0.144388
-0.137578
-0.13105
-0.124953
-0.119437
-0.114656
-0.110762
-0.107898
-0.106188
-0.105723
-0.106574
-0.108779
-0.112332
-0.117173
-0.12318
-0.130164
-0.137859
-0.14593
-0.153974
-0.161539
-0.168139
-0.173282
-0.176527
-0.177504
-0.175977
-0.171855
-0.165202
-0.156234
-0.145289
-0.132777
-0.119136
-0.10479
-0.0901188
-0.0754427
-0.0610158
-0.0470288
-0.0336178
-0.0208753
-0.00886263
0.00237727
0.0128087
0.0223922
0.0310787
0.0388005
0.0454384
0.0507719
-0.196484
-0.193072
-0.189123
-0.184655
-0.179702
-0.17431
-0.168546
-0.162483
-0.15621
-0.14983
-0.143456
-0.13721
-0.131221
-0.125625
-0.120559
-0.116162
-0.11257
-0.109912
-0.108296
-0.107808
-0.108508
-0.110426
-0.11355
-0.117821
-0.123121
-0.129273
-0.136032
-0.143091
-0.150087
-0.156611
-0.162227
-0.166509
-0.169067
-0.169578
-0.167837
-0.163761
-0.157403
-0.148947
-0.138679
-0.126954
-0.114154
-0.100653
-0.0867949
-0.0728735
-0.059128
-0.0457434
-0.0328566
-0.0205654
-0.00893882
0.00197193
0.0121237
0.0214707
0.0299579
0.0375111
0.04401
0.0492512
-0.190837
-0.187731
-0.184131
-0.180055
-0.175535
-0.170616
-0.165352
-0.159816
-0.154088
-0.148261
-0.142438
-0.13673
-0.131254
-0.126133
-0.121492
-0.117457
-0.114147
-0.111678
-0.110146
-0.109627
-0.110171
-0.111803
-0.114506
-0.11822
-0.122837
-0.128188
-0.134053
-0.140153
-0.146161
-0.151712
-0.156421
-0.159915
-0.161852
-0.161952
-0.160032
-0.156019
-0.149952
-0.141985
-0.132361
-0.121382
-0.109381
-0.0966894
-0.0836153
-0.0704282
-0.0573524
-0.0445665
-0.032207
-0.0203756
-0.0091481
0.00141706
0.0112694
0.020357
0.0286184
0.0359732
0.0422985
0.0474026
-0.185285
-0.182481
-0.17922
-0.175523
-0.17142
-0.166951
-0.162167
-0.157134
-0.151924
-0.146623
-0.141322
-0.136123
-0.131132
-0.12646
-0.122219
-0.118522
-0.115476
-0.113181
-0.111722
-0.111166
-0.111556
-0.112909
-0.115206
-0.118389
-0.122354
-0.12695
-0.131973
-0.137177
-0.142265
-0.146917
-0.150796
-0.153573
-0.154951
-0.154686
-0.152615
-0.148671
-0.142883
-0.135377
-0.126355
-0.116078
-0.104832
-0.092911
-0.080589
-0.0681131
-0.0556928
-0.0434993
-0.0316678
-0.0203028
-0.00948512
0.00072009
0.0102556
0.0190633
0.0270761
0.034208
0.0403336
0.0452688
-0.179831
-0.177321
-0.17439
-0.171058
-0.167354
-0.163315
-0.158988
-0.154432
-0.149713
-0.144909
-0.140101
-0.135382
-0.130848
-0.126597
-0.122731
-0.119348
-0.116546
-0.11441
-0.113017
-0.112422
-0.112663
-0.113749
-0.115661
-0.118343
-0.121698
-0.125588
-0.129831
-0.134204
-0.138447
-0.142277
-0.1454
-0.147529
-0.148405
-0.147815
-0.145615
-0.141741
-0.136215
-0.129136
-0.120676
-0.111054
-0.100518
-0.0893258
-0.0777225
-0.0659327
-0.0541515
-0.0425421
-0.0312373
-0.0203428
-0.00994377
-0.00011069
0.00909307
0.0176037
0.0253487
0.0322375
0.0381436
0.0428892
-0.174477
-0.172251
-0.169638
-0.166657
-0.163335
-0.159705
-0.155811
-0.151707
-0.147452
-0.143115
-0.138771
-0.134503
-0.130396
-0.126539
-0.123022
-0.119932
-0.117355
-0.115366
-0.11403
-0.113396
-0.113494
-0.11433
-0.115882
-0.118097
-0.120887
-0.124126
-0.127651
-0.131265
-0.134738
-0.137823
-0.140262
-0.141808
-0.142233
-0.141354
-0.139041
-0.135237
-0.129952
-0.123269
-0.115327
-0.106314
-0.0964434
-0.0859389
-0.07502
-0.0638902
-0.0527302
-0.0416947
-0.0309129
-0.0204911
-0.0105172
-0.00106614
0.00779353
0.015993
0.0234549
0.0300849
0.0357572
0.0403004
-0.169223
-0.167273
-0.164966
-0.16232
-0.15936
-0.156118
-0.152634
-0.148955
-0.145136
-0.141238
-0.13733
-0.133483
-0.129775
-0.126285
-0.123092
-0.120274
-0.117904
-0.11605
-0.114766
-0.114094
-0.114058
-0.114661
-0.11588
-0.117666
-0.119938
-0.122582
-0.125453
-0.128377
-0.131154
-0.133567
-0.135393
-0.136416
-0.136439
-0.135302
-0.132892
-0.129154
-0.124092
-0.117771
-0.110308
-0.10186
-0.0926094
-0.0827526
-0.0724838
-0.0619871
-0.051429
-0.0409555
-0.0306915
-0.0207424
-0.0111978
-0.00213626
0.00636954
0.0142466
0.0214139
0.0277741
0.0332033
0.0375376
-0.164071
-0.162385
-0.16037
-0.158043
-0.155428
-0.152553
-0.149455
-0.146176
-0.142766
-0.139279
-0.135777
-0.132323
-0.128987
-0.125837
-0.122944
-0.120377
-0.118199
-0.116468
-0.115232
-0.114524
-0.114365
-0.114753
-0.115668
-0.117062
-0.118862
-0.120966
-0.123247
-0.125551
-0.127702
-0.129513
-0.130791
-0.131347
-0.131014
-0.12965
-0.127156
-0.123481
-0.118624
-0.112636
-0.105613
-0.0976871
-0.0890151
-0.0797668
-0.0701144
-0.0602236
-0.0502474
-0.0403225
-0.030569
-0.0210904
-0.0119773
-0.0033103
0.00483459
0.0123809
0.0192455
0.0253297
0.030511
0.0346343
-0.159021
-0.157589
-0.155852
-0.153828
-0.151538
-0.149009
-0.146273
-0.143369
-0.140341
-0.137238
-0.134113
-0.131025
-0.128033
-0.125199
-0.122584
-0.120248
-0.118247
-0.116629
-0.115436
-0.114696
-0.114424
-0.114618
-0.115256
-0.116296
-0.11767
-0.119289
-0.12104
-0.122788
-0.124381
-0.125656
-0.126447
-0.126592
-0.125943
-0.124381
-0.121816
-0.118201
-0.113533
-0.107851
-0.101233
-0.0937907
-0.0856572
-0.07698
-0.0679111
-0.058599
-0.0491837
-0.0397929
-0.0305408
-0.0215287
-0.0128467
-0.00457675
0.0032029
0.0104133
0.0169703
0.0227752
0.0277081
0.031623
-0.154075
-0.152884
-0.151411
-0.149673
-0.147689
-0.145485
-0.143088
-0.140534
-0.137862
-0.135116
-0.132342
-0.129592
-0.126919
-0.124376
-0.122018
-0.119895
-0.118056
-0.116544
-0.115391
-0.114623
-0.11425
-0.114269
-0.114658
-0.115379
-0.116372
-0.117557
-0.118836
-0.12009
-0.121188
-0.12199
-0.122351
-0.122133
-0.121209
-0.119474
-0.11685
-0.113295
-0.108803
-0.103402
-0.0971579
-0.0901628
-0.0825306
-0.074389
-0.0658716
-0.0571112
-0.0482354
-0.0393627
-0.0306015
-0.0220497
-0.0137962
-0.00592343
0.00148933
0.00836197
0.0146095
0.0201347
0.0248219
0.0285346
-0.149235
-0.148271
-0.147048
-0.145579
-0.143883
-0.141981
-0.139902
-0.137674
-0.135333
-0.132917
-0.130468
-0.128031
-0.125651
-0.123377
-0.121255
-0.119329
-0.11764
-0.116224
-0.11511
-0.114318
-0.113856
-0.113718
-0.113886
-0.114323
-0.114977
-0.115778
-0.116638
-0.117456
-0.118118
-0.118503
-0.118488
-0.117954
-0.116791
-0.114908
-0.112239
-0.108744
-0.104415
-0.0992744
-0.0933752
-0.0867945
-0.0796292
-0.0719895
-0.0639927
-0.0557573
-0.0473991
-0.0390278
-0.0307452
-0.0226455
-0.0148157
-0.0073376
-0.000290656
0.00624487
0.0121841
0.0174324
0.0218796
0.0253987
-0.144502
-0.143753
-0.142763
-0.141547
-0.140119
-0.138501
-0.136716
-0.13479
-0.132755
-0.130645
-0.128496
-0.126347
-0.124239
-0.122211
-0.120306
-0.11856
-0.117009
-0.115684
-0.114608
-0.113796
-0.113256
-0.112981
-0.112953
-0.113139
-0.113494
-0.113956
-0.114449
-0.114885
-0.115165
-0.115188
-0.114846
-0.114037
-0.112669
-0.110663
-0.107961
-0.104526
-0.100351
-0.0954522
-0.0898723
-0.083676
-0.0769456
-0.0697762
-0.0622703
-0.0545336
-0.0466708
-0.0387827
-0.0309651
-0.0233075
-0.0158943
-0.00880609
-0.00212134
0.00408036
0.00971547
0.0146924
0.0189075
0.0222435
-0.139879
-0.139331
-0.13856
-0.137579
-0.136401
-0.135046
-0.133533
-0.131887
-0.130135
-0.128306
-0.126433
-0.124549
-0.12269
-0.120889
-0.119183
-0.117603
-0.11618
-0.114939
-0.113899
-0.113074
-0.112467
-0.112072
-0.111873
-0.111841
-0.111935
-0.112101
-0.112273
-0.112375
-0.112325
-0.112033
-0.11141
-0.110367
-0.108826
-0.106718
-0.103995
-0.100623
-0.0965933
-0.0919196
-0.0866362
-0.080797
-0.0744718
-0.0677427
-0.0606992
-0.0534353
-0.0460453
-0.0386218
-0.0312539
-0.0240266
-0.0170211
-0.0103154
-0.00398682
0.00188691
0.00722447
0.011938
0.0159307
0.0190954
-0.13537
-0.135009
-0.134442
-0.133679
-0.132733
-0.13162
-0.130359
-0.128971
-0.127479
-0.125909
-0.124289
-0.122648
-0.121016
-0.119424
-0.1179
-0.116473
-0.115167
-0.114005
-0.113001
-0.112167
-0.111505
-0.111007
-0.110661
-0.110441
-0.110308
-0.110217
-0.110112
-0.109928
-0.109593
-0.109032
-0.108168
-0.106927
-0.105242
-0.103054
-0.100321
-0.0970135
-0.0931237
-0.0886611
-0.0836536
-0.0781466
-0.0721992
-0.065882
-0.0592736
-0.0524571
-0.0455172
-0.0385387
-0.0316041
-0.0247936
-0.0181844
-0.011852
-0.0058712
-0.000317313
0.00473142
0.00919147
0.012973
0.015979
-0.130979
-0.130792
-0.130412
-0.12985
-0.129118
-0.128229
-0.127199
-0.126047
-0.124794
-0.123461
-0.122072
-0.120653
-0.11923
-0.117827
-0.116471
-0.115184
-0.113988
-0.112899
-0.111933
-0.111095
-0.110387
-0.109804
-0.109333
-0.108951
-0.108624
-0.108313
-0.107971
-0.107542
-0.106964
-0.106175
-0.105109
-0.103703
-0.101901
-0.0996523
-0.0969203
-0.0936808
-0.0899253
-0.0856611
-0.0809112
-0.0757135
-0.0701184
-0.0641867
-0.057987
-0.0515928
-0.0450802
-0.0385264
-0.0320076
-0.0255986
-0.0193729
-0.0134024
-0.00775886
-0.00251462
0.00225586
0.00647398
0.0100568
0.012917
-0.126711
-0.126683
-0.126476
-0.126099
-0.125562
-0.124878
-0.12406
-0.123125
-0.122089
-0.120972
-0.119795
-0.118579
-0.117345
-0.116116
-0.114913
-0.113755
-0.112659
-0.111641
-0.110711
-0.109875
-0.109133
-0.10848
-0.107904
-0.107385
-0.106894
-0.106397
-0.105854
-0.105218
-0.104437
-0.103457
-0.102223
-0.100683
-0.0987875
-0.0964959
-0.0937759
-0.090607
-0.0869813
-0.0829045
-0.0783956
-0.0734864
-0.0682199
-0.0626485
-0.0568321
-0.0508358
-0.0447277
-0.0385777
-0.0324559
-0.0264321
-0.0205751
-0.0149532
-0.00963464
-0.00468809
-0.000183795
0.00380508
0.00720235
0.00993
-0.122572
-0.122689
-0.122639
-0.122431
-0.122073
-0.121575
-0.12095
-0.120212
-0.119374
-0.118454
-0.117469
-0.116437
-0.115376
-0.114306
-0.113242
-0.112203
-0.111201
-0.11025
-0.109357
-0.108528
-0.107761
-0.107052
-0.10639
-0.105757
-0.105129
-0.104477
-0.103767
-0.102959
-0.102009
-0.100872
-0.0995012
-0.0978534
-0.0958877
-0.0935693
-0.0908711
-0.0877756
-0.0842761
-0.0803768
-0.0760937
-0.0714538
-0.0664937
-0.0612588
-0.0558014
-0.0501789
-0.0444523
-0.0386848
-0.0329406
-0.0272842
-0.0217798
-0.0164917
-0.0114841
-0.00682173
-0.00257029
0.00120283
0.00442812
0.00703617
-0.118567
-0.118815
-0.118909
-0.118853
-0.118657
-0.118329
-0.117879
-0.117319
-0.116661
-0.115919
-0.115108
-0.114243
-0.11334
-0.112413
-0.111478
-0.110547
-0.109633
-0.108746
-0.107891
-0.107072
-0.10629
-0.105538
-0.104807
-0.104082
-0.103342
-0.102563
-0.101716
-0.100766
-0.0996783
-0.0984141
-0.0969351
-0.0952046
-0.0931885
-0.090858
-0.0881904
-0.0851711
-0.0817943
-0.0780637
-0.0739927
-0.0696042
-0.0649298
-0.0600088
-0.0548869
-0.0496147
-0.0442468
-0.0388402
-0.0334532
-0.0281453
-0.0229762
-0.0180056
-0.0132936
-0.00890073
-0.00488769
-0.00131643
0.00175041
0.00425143
-0.114702
-0.115069
-0.115291
-0.115374
-0.115324
-0.115149
-0.114857
-0.114458
-0.113962
-0.113381
-0.112727
-0.112013
-0.111252
-0.110456
-0.109638
-0.108808
-0.107975
-0.107148
-0.106332
-0.105529
-0.104738
-0.103956
-0.103172
-0.102374
-0.101545
-0.100663
-0.0997055
-0.0986428
-0.0974452
-0.0960809
-0.0945184
-0.0927268
-0.0906783
-0.0883488
-0.0857197
-0.0827789
-0.0795218
-0.0759515
-0.0720797
-0.0679261
-0.0635179
-0.0588893
-0.0540802
-0.0491354
-0.0441035
-0.0390358
-0.0339853
-0.0290064
-0.024154
-0.0194836
-0.0150508
-0.0109117
-0.00712212
-0.00373824
-0.000816327
0.00158951
-0.110986
-0.111458
-0.111796
-0.112002
-0.112083
-0.112045
-0.111895
-0.11164
-0.11129
-0.110854
-0.110342
-0.109764
-0.109132
-0.108455
-0.107743
-0.107004
-0.106248
-0.105479
-0.104703
-0.103919
-0.103128
-0.102325
-0.101502
-0.100648
-0.0997493
-0.098788
-0.0977435
-0.0965924
-0.0953097
-0.0938693
-0.0922451
-0.0904118
-0.0883465
-0.0860296
-0.0834458
-0.0805854
-0.0774448
-0.0740272
-0.0703427
-0.0664084
-0.062248
-0.0578911
-0.053373
-0.0487331
-0.0440148
-0.039264
-0.0345287
-0.0298585
-0.0253036
-0.0209151
-0.0167443
-0.0128425
-0.00926092
-0.00604999
-0.00326003
-0.000938329
-0.107426
-0.107991
-0.10843
-0.108747
-0.108945
-0.109029
-0.109005
-0.108879
-0.10866
-0.108353
-0.107968
-0.107513
-0.106997
-0.106427
-0.105812
-0.105159
-0.104473
-0.10376
-0.103023
-0.102262
-0.101477
-0.100663
-0.0998134
-0.0989193
-0.0979687
-0.096947
-0.0958368
-0.0946189
-0.0932729
-0.0917773
-0.0901106
-0.0882524
-0.0861839
-0.0838894
-0.0813567
-0.078578
-0.0755508
-0.0722785
-0.0687699
-0.0650401
-0.0611098
-0.0570051
-0.0527568
-0.0483999
-0.0439729
-0.039517
-0.0350755
-0.0306933
-0.0264162
-0.0222909
-0.0183641
-0.0146829
-0.0112935
-0.00824121
-0.00557067
-0.00332289
-0.10403
-0.104677
-0.105206
-0.105619
-0.10592
-0.106112
-0.106201
-0.10619
-0.106086
-0.105895
-0.105624
-0.105279
-0.104867
-0.104394
-0.103867
-0.103292
-0.102673
-0.102013
-0.101315
-0.10058
-0.0998059
-0.0989891
-0.0981239
-0.0972028
-0.0962158
-0.0951506
-0.093993
-0.0927273
-0.0913367
-0.0898038
-0.0881112
-0.0862424
-0.0841824
-0.0819186
-0.0794414
-0.076745
-0.073828
-0.0706935
-0.0673499
-0.0638105
-0.0600936
-0.0562221
-0.0522232
-0.0481279
-0.0439704
-0.0397876
-0.0356183
-0.0315032
-0.0274838
-0.0236023
-0.0199014
-0.0164237
-0.0132109
-0.0103033
-0.00774028
-0.00555705
-0.100806
-0.101524
-0.102131
-0.102629
-0.103021
-0.103309
-0.103496
-0.103587
-0.103586
-0.103498
-0.103327
-0.10308
-0.102761
-0.102376
-0.101929
-0.101425
-0.100868
-0.100259
-0.0996007
-0.0988929
-0.0981345
-0.097322
-0.0964506
-0.0955139
-0.0945036
-0.0934095
-0.0922201
-0.0909227
-0.0895036
-0.0879488
-0.0862443
-0.0843771
-0.0823351
-0.0801087
-0.0776904
-0.0750761
-0.0722654
-0.0692615
-0.0660724
-0.0627098
-0.05919
-0.0555334
-0.0517641
-0.0479095
-0.044
-0.0400686
-0.0361501
-0.0322811
-0.028499
-0.024842
-0.0213486
-0.0180574
-0.0150058
-0.0122295
-0.00976285
-0.00763545
-0.097765
-0.0985437
-0.0992185
-0.0997904
-0.100261
-0.100632
-0.100906
-0.101086
-0.101175
-0.101178
-0.101097
-0.100936
-0.100701
-0.100394
-0.10002
-0.0995816
-0.0990812
-0.0985208
-0.0979014
-0.0972227
-0.0964835
-0.0956809
-0.0948109
-0.093868
-0.0928454
-0.0917348
-0.0905269
-0.0892113
-0.0877771
-0.0862131
-0.0845084
-0.0826525
-0.0806363
-0.0784523
-0.0760951
-0.0735619
-0.0708532
-0.0679726
-0.0649273
-0.0617283
-0.0583901
-0.0549307
-0.0513716
-0.0477373
-0.0440548
-0.0403534
-0.0366644
-0.0330205
-0.0294555
-0.0260037
-0.0226996
-0.0195777
-0.0166721
-0.0140142
-0.0116341
-0.00955424
-0.0949167
-0.0957471
-0.0964798
-0.0971149
-0.0976535
-0.0980966
-0.098446
-0.0987038
-0.0988722
-0.0989539
-0.0989516
-0.0988684
-0.0987071
-0.0984706
-0.0981616
-0.0977824
-0.0973349
-0.0968203
-0.0962391
-0.0955903
-0.0948729
-0.0940846
-0.0932221
-0.0922809
-0.0912551
-0.0901381
-0.0889224
-0.0875998
-0.0861615
-0.0845987
-0.082903
-0.0810663
-0.0790817
-0.0769436
-0.0746483
-0.0721944
-0.0695829
-0.0668178
-0.0639059
-0.0608574
-0.0576854
-0.054406
-0.0510384
-0.0476044
-0.0441282
-0.0406358
-0.0371553
-0.0337159
-0.0303478
-0.0270819
-0.023949
-0.0209798
-0.0182051
-0.0156529
-0.0133509
-0.0113104
-0.0922725
-0.0931463
-0.0939279
-0.0946169
-0.0952136
-0.0957188
-0.0961332
-0.0964581
-0.0966952
-0.096846
-0.0969125
-0.0968968
-0.0968008
-0.0966266
-0.096376
-0.0960505
-0.0956515
-0.0951799
-0.0946367
-0.0940166
-0.0933227
-0.0925522
-0.0917021
-0.0907685
-0.0897467
-0.0886314
-0.0874166
-0.0860956
-0.0846619
-0.0831085
-0.0814289
-0.0796171
-0.0776681
-0.0755778
-0.0733441
-0.0709666
-0.0684469
-0.0657892
-0.0630002
-0.0600892
-0.0570683
-0.053952
-0.0507576
-0.0475044
-0.0442141
-0.04091
-0.0376172
-0.0343619
-0.0311709
-0.0280719
-0.0250925
-0.0222599
-0.0196009
-0.0171397
-0.0148931
-0.0129008
-0.0898448
-0.0907545
-0.0915769
-0.0923112
-0.0929572
-0.093515
-0.0939849
-0.0943674
-0.0946635
-0.094874
-0.0950001
-0.0950431
-0.0950044
-0.094885
-0.0946862
-0.0944088
-0.0940534
-0.0936201
-0.0931081
-0.092521
-0.0918529
-0.0911029
-0.0902686
-0.0893472
-0.0883349
-0.0872273
-0.0860198
-0.0847073
-0.0832846
-0.0817465
-0.0800881
-0.0783051
-0.0763938
-0.0743519
-0.0721781
-0.0698731
-0.067439
-0.0648802
-0.0622032
-0.0594168
-0.056532
-0.0535622
-0.0505228
-0.0474312
-0.0443069
-0.0411709
-0.0380454
-0.0349539
-0.0319205
-0.0289699
-0.0261268
-0.0234151
-0.0208586
-0.0184797
-0.0162972
-0.014332
-0.0876473
-0.0885863
-0.0894423
-0.0902143
-0.0909014
-0.0915034
-0.09202
-0.0924513
-0.0927975
-0.0930589
-0.0932362
-0.0933299
-0.0933406
-0.0932691
-0.0931158
-0.0928812
-0.0925654
-0.0921684
-0.0916899
-0.0911298
-0.0904861
-0.089757
-0.0889405
-0.0880342
-0.0870349
-0.0859393
-0.0847438
-0.0834443
-0.082037
-0.0805181
-0.078884
-0.0771316
-0.0752588
-0.0732641
-0.0711474
-0.0689099
-0.0665544
-0.0640854
-0.0615092
-0.0588342
-0.0560707
-0.0532307
-0.0503283
-0.0473795
-0.0444016
-0.0414135
-0.0384352
-0.0354877
-0.0325928
-0.0297722
-0.0270484
-0.0244426
-0.0219758
-0.0196684
-0.017538
-0.015599
-0.0856955
-0.0866579
-0.0875411
-0.0883437
-0.0890647
-0.0897032
-0.0902587
-0.0907306
-0.0911188
-0.091423
-0.0916435
-0.0917801
-0.0918331
-0.0918027
-0.0916888
-0.0914916
-0.0912108
-0.0908463
-0.0903974
-0.0898634
-0.0892431
-0.0885348
-0.0877367
-0.0868469
-0.0858627
-0.0847816
-0.0836007
-0.0823171
-0.0809277
-0.07943
-0.0778214
-0.0761
-0.0742645
-0.0723145
-0.0702507
-0.0680748
-0.0657899
-0.0634009
-0.0609139
-0.0583368
-0.0556793
-0.0529525
-0.0501694
-0.0473445
-0.0444935
-0.0416334
-0.0387824
-0.0359594
-0.0331839
-0.0304756
-0.0278545
-0.0253397
-0.0229499
-0.0207034
-0.0186161
-0.0166997
-0.0840067
-0.0849875
-0.0858922
-0.0867194
-0.0874675
-0.0881356
-0.0887225
-0.0892276
-0.0896502
-0.0899897
-0.0902458
-0.0904182
-0.0905065
-0.0905105
-0.09043
-0.0902647
-0.090014
-0.0896776
-0.0892547
-0.0887445
-0.0881457
-0.0874571
-0.0866771
-0.0858038
-0.0848353
-0.0837696
-0.0826043
-0.0813374
-0.0799668
-0.0784904
-0.0769068
-0.0752148
-0.0734141
-0.0715049
-0.0694884
-0.067367
-0.065144
-0.0628244
-0.0604142
-0.0579211
-0.0553541
-0.0527237
-0.050042
-0.047322
-0.0445784
-0.0418266
-0.0390831
-0.0363651
-0.0336903
-0.0310765
-0.0285416
-0.0261033
-0.0237781
-0.0215821
-0.0195301
-0.0176327
-0.082601
-0.0835957
-0.084517
-0.0853631
-0.0861324
-0.0868236
-0.0874354
-0.0879667
-0.0884166
-0.0887842
-0.0890688
-0.0892698
-0.0893866
-0.0894186
-0.0893653
-0.0892261
-0.0890004
-0.0886876
-0.0882867
-0.0877969
-0.087217
-0.0865459
-0.0857822
-0.0849244
-0.0839708
-0.0829198
-0.0817696
-0.0805188
-0.0791658
-0.0777094
-0.0761486
-0.0744831
-0.0727129
-0.0708391
-0.0688631
-0.0667879
-0.0646169
-0.0623552
-0.0600088
-0.057585
-0.0550926
-0.0525414
-0.0499426
-0.0473085
-0.0446526
-0.0419891
-0.0393332
-0.0367007
-0.0341077
-0.0315707
-0.0291059
-0.0267294
-0.0244564
-0.0223013
-0.0202774
-0.018395
-0.0815007
-0.0825055
-0.0834389
-0.0842989
-0.0850839
-0.0857923
-0.0864227
-0.0869736
-0.0874441
-0.0878329
-0.0881391
-0.0883619
-0.0885004
-0.0885539
-0.0885215
-0.0884026
-0.0881964
-0.087902
-0.0875186
-0.0870452
-0.0864807
-0.0858241
-0.0850741
-0.0842293
-0.0832884
-0.0822502
-0.0811132
-0.0798763
-0.0785385
-0.0770989
-0.0755573
-0.0739136
-0.0721684
-0.0703231
-0.0683797
-0.066341
-0.0642111
-0.0619948
-0.0596981
-0.0573284
-0.0548937
-0.0524038
-0.049869
-0.0473012
-0.0447127
-0.0421171
-0.0395285
-0.0369617
-0.0344315
-0.0319533
-0.0295422
-0.027213
-0.0249798
-0.0228558
-0.0208531
-0.0189817
-0.0807349
-0.0817461
-0.0826873
-0.0835565
-0.0843519
-0.0850717
-0.0857145
-0.0862786
-0.0867628
-0.087166
-0.0874868
-0.0877244
-0.0878777
-0.0879459
-0.0879279
-0.087823
-0.0876303
-0.0873489
-0.0869777
-0.0865159
-0.0859625
-0.0853163
-0.0845762
-0.0837411
-0.0828097
-0.0817809
-0.0806537
-0.0794272
-0.0781007
-0.0766736
-0.0751459
-0.0735181
-0.0717909
-0.0699659
-0.0680455
-0.0660326
-0.0639315
-0.0617469
-0.0594849
-0.0571526
-0.054758
-0.0523104
-0.0498199
-0.0472976
-0.0447557
-0.0422068
-0.0396646
-0.0371428
-0.0346558
-0.0322179
-0.0298436
-0.0275467
-0.0253407
-0.0232379
-0.0212494
-0.0193845
-0.0803315
-0.0813462
-0.0822915
-0.0831655
-0.0839663
-0.0846921
-0.0853413
-0.0859123
-0.0864037
-0.0868143
-0.0871428
-0.087388
-0.0875491
-0.0876249
-0.0876145
-0.0875169
-0.0873313
-0.0870566
-0.086692
-0.0862364
-0.0856888
-0.0850482
-0.0843136
-0.0834836
-0.0825574
-0.0815338
-0.080412
-0.0791912
-0.0778708
-0.0764505
-0.0749304
-0.073311
-0.0715934
-0.0697793
-0.0678711
-0.0658719
-0.0637859
-0.061618
-0.0593742
-0.0570614
-0.0546878
-0.0522623
-0.0497948
-0.0472964
-0.0447786
-0.0422541
-0.0397359
-0.0372375
-0.0347729
-0.032356
-0.0300007
-0.0277206
-0.0255287
-0.0234368
-0.021456
-0.019596
)
;

boundaryField
{
    inlet
    {
        type            zeroGradient;
    }
    outlet
    {
        type            fixedValue;
        value           nonuniform 0();
    }
    cylinder
    {
        type            zeroGradient;
    }
    top
    {
        type            symmetryPlane;
    }
    bottom
    {
        type            symmetryPlane;
    }
    defaultFaces
    {
        type            empty;
    }
    procBoundary14to10
    {
        type            processor;
        value           nonuniform List<scalar> 
57
(
-0.153102
-0.164503
-0.175497
-0.185451
-0.193584
-0.199327
-0.202098
-0.201545
-0.197508
-0.190067
-0.17955
-0.166468
-0.151438
-0.135102
-0.118059
-0.100823
-0.0838012
-0.0672948
-0.0515087
-0.0365699
-0.0225482
-0.00947599
0.00263216
0.0137621
0.0238909
0.0329814
0.0409639
0.0476951
0.0528881
-0.21396
-0.209609
-0.20457
-0.198863
-0.192527
-0.185624
-0.178235
-0.17046
-0.162415
-0.154234
-0.146062
-0.138057
-0.130389
-0.123229
-0.116745
-0.111137
-0.106579
-0.103259
-0.101319
-0.100863
-0.10198
-0.10473
-0.109118
-0.115091
-0.12252
-0.131197
-0.140826
-0.140826
)
;
    }
    procBoundary14to11
    {
        type            processor;
        value           uniform 0.0561212;
    }
    procBoundary14to13
    {
        type            processor;
        value           nonuniform List<scalar> 
35
(
-0.211459
-0.205361
-0.199352
-0.193437
-0.187622
-0.181909
-0.176303
-0.170804
-0.165415
-0.160138
-0.154975
-0.149928
-0.145
-0.140195
-0.135516
-0.130968
-0.126555
-0.122284
-0.118159
-0.114188
-0.110377
-0.106733
-0.103264
-0.0999771
-0.0968824
-0.0939889
-0.0913072
-0.0888488
-0.0866266
-0.0846553
-0.0829516
-0.0815348
-0.0804266
-0.0796558
-0.0792497
)
;
    }
    procBoundary14to15
    {
        type            processor;
        value           nonuniform List<scalar> 
35
(
0.0555616
0.0544745
0.0529318
0.0510028
0.0487494
0.0462267
0.0434829
0.0405612
0.0375011
0.0343389
0.0311087
0.0278421
0.0245685
0.0213149
0.018106
0.0149642
0.0119095
0.0089591
0.00612811
0.00342901
0.000871963
-0.00153503
-0.00378595
-0.00587648
-0.00780375
-0.00956603
-0.0111628
-0.0125954
-0.0138629
-0.0149643
-0.015898
-0.016661
-0.0172484
-0.0176528
-0.0178639
)
;
    }
}


// ************************************************************************* //
