/*--------------------------------*- C++ -*----------------------------------*\
  =========                 |
  \\      /  F ield         | OpenFOAM: The Open Source CFD Toolbox
   \\    /   O peration     | Website:  https://openfoam.org
    \\  /    A nd           | Version:  7
     \\/     M anipulation  |
\*---------------------------------------------------------------------------*/
FoamFile
{
    version     2.0;
    format      ascii;
    class       surfaceScalarField;
    location    "35";
    object      phi;
}
// * * * * * * * * * * * * * * * * * * * * * * * * * * * * * * * * * * * * * //

dimensions      [0 3 -1 0 0 0 0];

internalField   nonuniform List<scalar> 
3876
(
-0.000782484
-8.11519e-08
-0.000791816
-6.94373e-08
-0.000800301
-5.39582e-08
-3.43769e-08
0.00525083
0.000343359
-0.000314949
0.00522312
0.000305051
-0.000277344
0.00519623
0.000266921
-0.000240027
0.00517023
0.000228939
-0.000202939
0.0051452
0.000191101
-0.000166071
0.00512118
0.000153369
-0.00012935
0.00509825
0.000115724
-9.27983e-05
0.00507622
7.82092e-05
-5.61756e-05
0.00505536
4.08427e-05
-1.99845e-05
0.00503517
5.12358e-06
1.50696e-05
0.00501716
-3.18768e-05
4.98877e-05
0.0050001
-6.84601e-05
8.55119e-05
0.00498416
-0.000105168
0.000121109
0.00496932
-0.000141887
0.00015673
0.00495554
-0.000178589
0.000192372
0.00494278
-0.000215279
0.000228031
0.00493103
-0.000251957
0.000263714
0.00492022
-0.000288619
0.000299427
0.00491031
-0.000325255
0.000335165
0.00490124
-0.000361851
0.000370919
0.00489296
-0.000398386
0.00040667
0.00488539
-0.00043483
0.000442392
0.00487849
-0.000471147
0.000478051
0.00487218
-0.000507294
0.000513604
0.0048664
-0.000543219
0.000549
0.00486108
-0.00057886
0.000584178
0.00485616
-0.00061415
0.000619068
0.00485158
-0.000649012
0.000653593
0.00484728
-0.000683362
0.000687666
0.00484319
-0.00071711
0.000721195
0.00483927
-0.00075016
0.000754079
0.00483547
-0.000782413
0.000786216
0.00483174
-0.000813764
0.000817496
0.00482804
-0.00084411
0.000847811
0.00482433
-0.000873344
0.00087705
0.00482059
-0.000901365
0.000905106
0.00481679
-0.000928072
0.000931874
0.00481291
-0.000953374
0.000957254
0.00480893
-0.000977182
0.000981156
0.00480485
-0.000999419
0.0010035
0.00480067
-0.00102002
0.00102421
0.00479636
-0.00103892
0.00104322
0.00479195
-0.00105608
0.0010605
0.00478743
-0.00107147
0.00107599
0.0047828
-0.00108507
0.00108969
0.00477808
-0.00109685
0.00110158
0.00477326
-0.00110684
0.00111165
0.00476837
-0.00111503
0.00111992
0.0047634
-0.00112144
0.00112641
0.00475836
-0.0011261
0.00113113
0.00475327
-0.00112903
0.00113412
0.00474812
-0.00113027
0.00113541
0.00474293
-0.00112985
0.00113504
0.00473771
-0.0011278
0.00113303
0.00473246
-0.00112417
0.00112942
-0.00111898
0.00561154
0.000367957
0.00558709
0.000329506
0.0055629
0.000291109
0.00553908
0.000252758
0.00551573
0.000214451
0.00549291
0.000176189
0.00547067
0.000137961
0.00544899
9.98931e-05
0.00542786
6.19761e-05
0.00540817
2.48105e-05
0.00538908
-1.27928e-05
0.0053709
-5.02788e-05
0.00535356
-8.78274e-05
0.00533706
-0.000125381
0.00532137
-0.000162907
0.0053065
-0.000200407
0.00529242
-0.000237874
0.0052791
-0.000275296
0.0052665
-0.000312658
0.00525459
-0.000349941
0.00524332
-0.000387118
0.00523265
-0.000424157
0.00522252
-0.000461021
0.00521289
-0.000497663
0.0052037
-0.00053403
0.0051949
-0.000570061
0.00518644
-0.000605689
0.00517827
-0.000640837
0.00517033
-0.000675423
0.00516258
-0.000709361
0.00515498
-0.000742557
0.00514748
-0.000774915
0.00514005
-0.000806335
0.00513266
-0.000836717
0.00512527
-0.000865961
0.00511788
-0.000893968
0.00511045
-0.000920644
0.00510298
-0.0009459
0.00509545
-0.000969654
0.00508786
-0.000991832
0.00508022
-0.00101237
0.00507251
-0.00103122
0.00506475
-0.00104832
0.00505694
-0.00106366
0.0050491
-0.00107722
0.00504122
-0.00108898
0.00503332
-0.00109894
0.00502541
-0.00110712
0.00501749
-0.00111352
0.00500958
-0.00111819
0.00500169
-0.00112114
0.00499382
-0.0011224
0.00498598
-0.00112201
0.00497818
-0.00112
0.00497044
-0.00111642
-0.00111128
0.00594633
0.000387716
0.00592622
0.000349619
0.00590588
0.000311448
0.00588542
0.000273214
0.00586496
0.000234918
0.00584455
0.000196594
0.00582428
0.000158232
0.0058042
0.000119973
0.00578443
8.1745e-05
0.00576539
4.38528e-05
0.00574669
5.90826e-06
0.0057285
-3.20968e-05
0.00571084
-7.01635e-05
0.0056937
-0.00010824
0.0056771
-0.000146302
0.00566103
-0.000184342
0.0056455
-0.000222345
0.0056305
-0.000260293
0.005616
-0.000298163
0.00560199
-0.000335932
0.00558844
-0.000373568
0.00557532
-0.000411036
0.0055626
-0.000448294
0.00555023
-0.000485294
0.00553818
-0.000521981
0.00552641
-0.000558294
0.00551489
-0.000594163
0.00550356
-0.000629515
0.00549241
-0.000664268
0.00548139
-0.000698337
0.00547046
-0.000731632
0.00545961
-0.000764059
0.00544879
-0.000795522
0.005438
-0.000825924
0.00542721
-0.000855169
0.0054164
-0.000883164
0.00540558
-0.000909818
0.00539472
-0.000935046
0.00538384
-0.000958769
0.00537292
-0.000980918
0.00536198
-0.00100143
0.00535103
-0.00102026
0.00534006
-0.00103736
0.0053291
-0.0010527
0.00531815
-0.00106627
0.00530723
-0.00107805
0.00529634
-0.00108805
0.0052855
-0.00109628
0.00527473
-0.00110275
0.00526403
-0.00110749
0.00525341
-0.00111052
0.00524289
-0.00111187
0.00523247
-0.00111159
0.00522216
-0.00110969
0.00521197
-0.00110623
-0.00110122
0.00625464
0.00623939
0.00622351
0.00620712
0.00619032
0.00617317
0.00615578
0.00613824
0.00612064
0.00610318
0.00608581
0.00606858
0.00605155
0.00603471
0.00601811
0.00600175
0.00598564
0.00596981
0.00595423
0.00593891
0.00592384
0.005909
0.00589437
0.00587993
0.00586566
0.00585154
0.00583754
0.00582363
0.00580979
0.005796
0.00578223
0.00576848
0.00575472
0.00574094
0.00572713
0.0057133
0.00569943
0.00568553
-0.000921149
0.00567161
-0.000944849
0.00565768
-0.000966982
0.00564374
-0.000987491
0.0056298
-0.00100633
0.00561589
-0.00102345
0.00560202
-0.00103883
0.00558821
-0.00105245
0.00557446
-0.00106431
0.0055608
-0.00107439
0.00554724
-0.00108272
0.0055338
-0.00108931
0.00552049
-0.00109417
0.00550732
-0.00109735
0.0054943
-0.00109886
0.00548145
-0.00109873
0.00546877
-0.00109701
0.00545627
-0.00109373
-0.00108892
0.00597355
0.005957
0.00594043
0.00592387
0.00590732
0.00589081
0.00587436
0.00585799
0.00584173
0.00582558
0.00580958
0.00579373
0.00577805
0.00576257
0.00574729
0.00573222
0.00571738
0.00570277
-0.000782489
1.01252e-05
-0.00079182
9.26226e-06
-0.000800305
8.43101e-06
-0.000807965
7.62508e-06
-0.000814813
6.83792e-06
-0.000820858
6.06306e-06
-0.000826101
5.29476e-06
-0.000830541
4.5288e-06
-0.000834172
3.76311e-06
-0.000836992
2.99775e-06
-0.000838996
2.23185e-06
-0.000840175
1.46301e-06
-0.000840521
6.90955e-07
-0.000840059
-1.0608e-07
-0.000838805
-8.46601e-07
-0.000836702
-1.64181e-06
-0.000833721
-2.4735e-06
-0.000829833
-3.3404e-06
-0.000825006
-4.24619e-06
-0.000819206
-5.19507e-06
-0.000812397
-6.19167e-06
-0.000804539
-7.24061e-06
-0.000795588
-8.34626e-06
-0.0007855
-9.51269e-06
-0.000774228
-1.07434e-05
-0.000761723
-1.204e-05
-0.000747934
-1.34071e-05
-0.000732808
-1.48456e-05
-0.000716291
-1.63561e-05
-0.000698329
-1.79381e-05
-0.000678869
-1.95892e-05
-0.000657856
-2.13071e-05
-0.000635244
-2.30823e-05
-0.000610982
-2.4914e-05
-0.000585025
-2.67926e-05
-0.00055733
-2.87095e-05
-0.00052786
-3.06555e-05
-0.000496587
-3.26138e-05
-0.000463484
-3.45778e-05
-0.000428531
-3.65334e-05
-0.000391716
-3.84671e-05
-0.000353038
-4.03645e-05
-0.000312499
-4.22159e-05
-0.00027011
-4.40092e-05
-0.000225895
-4.57322e-05
-0.000179871
-4.73854e-05
-0.000132088
-4.89452e-05
-8.25811e-05
-5.0424e-05
-3.14038e-05
-5.18115e-05
2.13876e-05
-5.31107e-05
7.57293e-05
-5.43235e-05
0.000131552
-5.54542e-05
0.00018878
-5.65087e-05
0.000247335
-5.7494e-05
0.000307131
-5.84174e-05
0.000368079
-5.92865e-05
0.000430085
-6.01078e-05
0.000493052
-6.08868e-05
0.000556879
-6.16271e-05
-6.23299e-05
-0.000767369
2.01339e-05
-0.000776507
1.84007e-05
-0.000784803
1.67262e-05
-0.000792275
1.50974e-05
-0.000798938
1.35011e-05
-0.000804799
1.19242e-05
-0.000809859
1.0355e-05
-0.000814116
8.78502e-06
-0.000817563
7.21047e-06
-0.000820197
5.63204e-06
-0.000822014
4.04837e-06
-0.000823005
2.45454e-06
-0.000823148
8.33605e-07
-0.00082252
-7.33821e-07
-0.000821072
-2.29507e-06
-0.000818773
-3.94083e-06
-0.000815594
-5.65256e-06
-0.000811505
-7.42919e-06
-0.000806475
-9.27606e-06
-0.00080047
-1.12e-05
-0.000793453
-1.32086e-05
-0.000785385
-1.53091e-05
-0.000776222
-1.75087e-05
-0.000765921
-1.9814e-05
-0.000754434
-2.22308e-05
-0.000741713
-2.47605e-05
-0.000727708
-2.74125e-05
-0.000712365
-3.01879e-05
-0.000695633
-3.30885e-05
-0.000677457
-3.6114e-05
-0.000657785
-3.92616e-05
-0.000636563
-4.25292e-05
-0.000613745
-4.58998e-05
-0.000589283
-4.93766e-05
-0.00056313
-5.29447e-05
-0.000535248
-5.6592e-05
-0.000505598
-6.03059e-05
-0.000474153
-6.40581e-05
-0.000440889
-6.78423e-05
-0.000405786
-7.16364e-05
-0.000368834
-7.5419e-05
-0.000330032
-7.91663e-05
-0.000289384
-8.2864e-05
-0.000246902
-8.64908e-05
-0.000202611
-9.00233e-05
-0.000156529
-9.34675e-05
-0.000108706
-9.67679e-05
-5.91799e-05
-9.99505e-05
-8.00257e-06
-0.000102989
4.4767e-05
-0.00010588
9.90657e-05
-0.000108622
0.000154823
-0.000111212
0.000211964
-0.00011365
0.000270408
-0.000115938
0.000330071
-0.00011808
0.000390861
-0.000120077
0.000452687
-0.000121934
0.00051545
-0.00012365
0.000579049
-0.000125226
-0.000126659
-0.000737233
-0.000745993
2.71604e-05
-0.000753916
2.46495e-05
-0.000761022
2.22034e-05
-0.000767323
1.98021e-05
-0.000772825
1.74261e-05
-0.000777527
1.50576e-05
-0.000781426
1.26836e-05
-0.000784514
1.02986e-05
-0.000786787
7.90447e-06
-0.000788237
5.49885e-06
-0.000788858
3.07535e-06
-0.000788638
6.13945e-07
-0.000787649
-1.72337e-06
-0.000785831
-4.11322e-06
-0.000783153
-6.61845e-06
-0.000779589
-9.21611e-06
-0.000775111
-1.19074e-05
-0.000769687
-1.47e-05
-0.000763284
-1.76036e-05
-0.000755864
-2.06284e-05
-0.000747388
-2.37846e-05
-0.000737815
-2.70819e-05
-0.0007271
-3.05292e-05
-0.000715196
-3.41348e-05
-0.000702057
-3.78991e-05
-0.000687633
-4.18368e-05
-0.000671872
-4.59489e-05
-0.000654722
-5.02383e-05
-0.000636132
-5.47047e-05
-0.000616048
-5.93447e-05
-0.000594421
-6.41571e-05
-0.000571205
-6.91157e-05
-0.000546353
-7.42285e-05
-0.000519822
-7.94753e-05
-0.000491574
-8.48401e-05
-0.000461573
-9.03074e-05
-0.000429795
-9.58362e-05
-0.000396216
-0.000101421
-0.00036082
-0.000107032
-0.000323599
-0.00011264
-0.000284554
-0.000118211
-0.000243691
-0.000123727
-0.000201026
-0.000129156
-0.000156584
-0.000134465
-0.000110386
-0.000139666
-6.2484e-05
-0.00014467
-1.29161e-05
-0.000149518
3.82597e-05
-0.000154165
9.09869e-05
-0.000158607
0.0001452
-0.000162835
0.000200826
-0.000166838
0.000257791
-0.000170614
0.000316011
-0.000174159
0.000375402
-0.000177471
0.000435874
-0.000180549
0.000497332
-0.000183392
0.000559679
-0.000185997
0.000622814
-0.000188361
-0.000190476
-0.000700496
3.53706e-05
-0.000707881
3.20341e-05
-0.000714457
2.87791e-05
-0.000720234
2.55794e-05
-0.000725217
2.2409e-05
-0.000729403
1.92437e-05
-0.000732786
1.60661e-05
-0.000735355
1.28684e-05
-0.000737105
9.65413e-06
-0.000738029
6.42247e-06
-0.000738137
3.18383e-06
-0.000737359
-1.64328e-07
-0.000735871
-3.21072e-06
-0.000733519
-6.4659e-06
-0.000730296
-9.84149e-06
-0.00072618
-1.33321e-05
-0.000721142
-1.69447e-05
-0.000715153
-2.06896e-05
-0.000708177
-2.45791e-05
-0.00070018
-2.8626e-05
-0.000691121
-3.28434e-05
-0.00068096
-3.72432e-05
-0.000669652
-4.18369e-05
-0.000657152
-4.66351e-05
-0.000643415
-5.16358e-05
-0.000628392
-5.68599e-05
-0.000612033
-6.2308e-05
-0.000594287
-6.79837e-05
-0.000575105
-7.38869e-05
-0.000554437
-8.00132e-05
-0.000532231
-8.63631e-05
-0.000508448
-9.28982e-05
-0.000483043
-9.96336e-05
-0.000455975
-0.000106543
-0.000427209
-0.000113606
-0.00039671
-0.000120806
-0.000364461
-0.000128086
-0.000330438
-0.000135443
-0.000294631
-0.00014284
-0.000257032
-0.000150239
-0.000217648
-0.000157595
-0.000176487
-0.000164887
-0.000133569
-0.000172075
-8.89231e-05
-0.000179111
-4.25687e-05
-0.00018602
5.44055e-06
-0.000192679
5.50433e-05
-0.000199121
0.000106203
-0.000205325
0.000158853
-0.000211257
0.000212924
-0.000216906
0.000268343
-0.000222258
0.000325033
-0.000227303
0.00038291
-0.000232035
0.000441887
-0.000236448
0.000501875
-0.000240536
0.000562778
-0.000244295
0.000624499
-0.000247718
0.000686937
-0.000250798
-0.000253526
-0.000640329
4.28826e-05
-0.00064703
3.87354e-05
-0.000652934
3.46831e-05
-0.000658048
3.06941e-05
-0.000662375
2.67357e-05
-0.000665909
2.27777e-05
-0.00066864
1.87972e-05
-0.000670556
1.4784e-05
-0.000671646
1.07438e-05
-0.000671902
6.67904e-06
-0.000671291
2.57219e-06
-0.00066998
-1.47536e-06
-0.000667788
-5.40183e-06
-0.000664756
-9.49831e-06
-0.000660848
-1.37492e-05
-0.000656039
-1.81412e-05
-0.000650301
-2.26832e-05
-0.000643602
-2.73882e-05
-0.00063591
-3.2271e-05
-0.000627189
-3.73472e-05
-0.000617401
-4.26319e-05
-0.000606504
-4.81399e-05
-0.000594456
-5.38849e-05
-0.000581211
-5.988e-05
-0.000566728
-6.61185e-05
-0.000550959
-7.26292e-05
-0.000533855
-7.94117e-05
-0.000515369
-8.647e-05
-0.000495452
-9.38035e-05
-0.000474058
-0.000101407
-0.000451137
-0.000109285
-0.000426654
-0.000117381
-0.000400566
-0.000125721
-0.000372838
-0.000134271
-0.000343436
-0.000143008
-0.000312329
-0.000151913
-0.000279504
-0.000160911
-0.000244943
-0.000170004
-0.000208638
-0.000179145
-0.000170587
-0.00018829
-0.0001308
-0.000197382
-8.92889e-05
-0.000206398
-4.60744e-05
-0.000215289
-1.1568e-06
-0.000224029
4.53183e-05
-0.000232495
9.3413e-05
-0.000240774
0.000143045
-0.000248753
0.000194152
-0.000256431
0.000246669
-0.000263774
0.000300525
-0.000270762
0.000355645
-0.000277378
0.000411949
-0.000283607
0.000469352
-0.000289439
0.000527767
-0.000294863
0.000587101
-0.000299871
0.000647261
-0.000304455
0.000708148
-0.000308605
0.000769662
-0.000312312
-0.000315564
-0.000565862
4.95774e-05
-0.000571765
4.46385e-05
-0.000576886
3.98039e-05
-0.000581229
3.50371e-05
-0.000584793
3.02995e-05
-0.000587569
2.55541e-05
-0.000589544
2.07722e-05
-0.0005907
1.59402e-05
-0.000591024
1.10674e-05
-0.000590518
6.1734e-06
-0.000589142
1.19639e-06
-0.000587068
-3.54922e-06
-0.000584131
-8.33973e-06
-0.000580319
-1.33102e-05
-0.00057562
-1.84475e-05
-0.000570012
-2.37499e-05
-0.000563465
-2.92302e-05
-0.000555949
-3.49038e-05
-0.000547432
-4.07882e-05
-0.000537878
-4.69011e-05
-0.00052725
-5.326e-05
-0.000515508
-5.98817e-05
-0.00050261
-6.67826e-05
-0.000488511
-7.39791e-05
-0.000473174
-8.14559e-05
-0.000456551
-8.92524e-05
-0.000438596
-9.73663e-05
-0.000419265
-0.000105801
-0.000398512
-0.000114556
-0.000376294
-0.000123625
-0.000352561
-0.000133018
-0.000327286
-0.000142656
-0.00030043
-0.000152578
-0.000271959
-0.000162742
-0.000241846
-0.000173121
-0.000210062
-0.000183698
-0.0001766
-0.000194373
-0.000141449
-0.000205155
-0.000104602
-0.000215992
-6.60607e-05
-0.000226831
-2.58395e-05
-0.000237603
1.60387e-05
-0.000248276
5.95333e-05
-0.000258784
0.000104626
-0.000269121
0.000151284
-0.000279153
0.000199441
-0.000288931
0.000249045
-0.000298358
0.000300034
-0.00030742
0.000352338
-0.000316078
0.000405884
-0.000324309
0.000460595
-0.000332088
0.000516387
-0.000339399
0.000573174
-0.000346226
0.000630868
-0.000352556
0.000689375
-0.000358378
0.000748601
-0.000363681
0.000808449
-0.000368453
0.000868819
-0.000372682
-0.000376353
-0.000477503
5.53732e-05
-0.000482531
4.9666e-05
-0.000486794
4.40672e-05
-0.000490294
3.85365e-05
-0.000493024
3.30301e-05
-0.000494974
2.7504e-05
-0.000496125
2.19228e-05
-0.000496452
1.62676e-05
-0.000495941
1.05559e-05
-0.000494591
4.82325e-06
-0.000492424
-9.70654e-07
-0.000489536
-6.43726e-06
-0.000485759
-1.21167e-05
-0.0004811
-1.79691e-05
-0.000475545
-2.40025e-05
-0.00046907
-3.0225e-05
-0.000461647
-3.66528e-05
-0.000453247
-4.3304e-05
-0.000443837
-5.01982e-05
-0.000433383
-5.73553e-05
-0.000421848
-6.47948e-05
-0.000409194
-7.25352e-05
-0.000395381
-8.05957e-05
-0.000380362
-8.89979e-05
-0.000364106
-9.77122e-05
-0.000346567
-0.000106792
-0.000327701
-0.000116232
-0.000307466
-0.000126036
-0.000285822
-0.0001362
-0.000262728
-0.000146719
-0.000238136
-0.00015761
-0.000212025
-0.000168767
-0.000184359
-0.000180243
-0.000155113
-0.000191989
-0.000124262
-0.000203972
-9.17764e-05
-0.000216183
-5.76603e-05
-0.000228489
-2.18991e-05
-0.000240916
1.54933e-05
-0.000253385
5.44922e-05
-0.00026583
9.5111e-05
-0.000278222
0.000137317
-0.000290482
0.000181077
-0.000302544
0.000226344
-0.000314389
0.000273082
-0.000325891
0.000321226
-0.000337075
0.00037072
-0.000347851
0.000421495
-0.000358195
0.00047348
-0.000368063
0.000526597
-0.000377426
0.000580766
-0.000386258
0.000635903
-0.000394536
0.000691918
-0.000402242
0.000748723
-0.000409361
0.000806223
-0.000415878
0.000864324
-0.000421782
0.00092293
-0.000427058
0.000981941
-0.000431694
-0.000435671
-0.000375662
6.02337e-05
-0.000379781
5.37855e-05
-0.000383157
4.74434e-05
-0.000385786
4.11649e-05
-0.000387657
3.49015e-05
-0.000388755
2.86024e-05
-0.000389057
2.22242e-05
-0.000388528
1.57382e-05
-0.000387145
9.17358e-06
-0.000384896
2.57401e-06
-0.00038202
-3.84687e-06
-0.000378243
-1.02144e-05
-0.000373602
-1.6757e-05
-0.000368073
-2.3498e-05
-0.000361639
-3.04372e-05
-0.000354274
-3.75894e-05
-0.000345953
-4.49739e-05
-0.000336646
-5.26113e-05
-0.000326321
-6.05235e-05
-0.000314944
-6.8732e-05
-0.000302481
-7.72578e-05
-0.000288895
-8.61207e-05
-0.000274148
-9.53434e-05
-0.000258191
-0.000104954
-0.000240999
-0.000114904
-0.000222529
-0.000125263
-0.000202739
-0.000136022
-0.000181591
-0.000147184
-0.000159049
-0.000158742
-0.000135078
-0.00017069
-0.000109624
-0.000183064
-8.26806e-05
-0.000195711
-5.42129e-05
-0.000208711
-2.41908e-05
-0.000222011
7.41073e-06
-0.000235573
4.05201e-05
-0.000249292
7.52394e-05
-0.000263208
0.000111542
-0.000277219
0.000149418
-0.000291261
0.000188854
-0.000305266
0.000229821
-0.000319189
0.000272291
-0.000332951
0.000316225
-0.000346478
0.000361574
-0.000359738
0.000408294
-0.000372611
0.000456318
-0.0003851
0.000505584
-0.000397117
0.000556019
-0.00040863
0.000607549
-0.000419593
0.000660093
-0.00042997
0.000713567
-0.000439732
0.000767886
-0.000448854
0.000822959
-0.000457315
0.000878696
-0.000465097
0.000935003
-0.000472185
0.000991785
-0.000478565
0.00104895
-0.000484221
0.00110639
-0.00048914
-0.000493304
-0.000260715
6.41774e-05
-0.000263948
5.70179e-05
-0.00026646
4.99553e-05
-0.000268241
4.2946e-05
-0.000269277
3.59381e-05
-0.000269549
2.88737e-05
-0.000269024
2.16992e-05
-0.000267661
1.43756e-05
-0.000265479
6.99203e-06
-0.000262366
-5.39377e-07
-0.000258696
-7.51725e-06
-0.00025411
-1.47997e-05
-0.000248632
-2.22356e-05
-0.000242256
-2.98736e-05
-0.000234966
-3.77277e-05
-0.000226736
-4.58189e-05
-0.000217541
-5.41692e-05
-0.00020735
-6.28016e-05
-0.000196135
-7.17395e-05
-0.00018386
-8.1006e-05
-0.000170495
-9.06232e-05
-0.000156005
-0.000100611
-0.000140353
-0.000110996
-0.000123486
-0.000121821
-0.00010539
-0.000133001
-8.60209e-05
-0.000144631
-6.53412e-05
-0.000156702
-4.33132e-05
-0.000169212
-1.98955e-05
-0.00018216
4.95978e-06
-0.000195546
3.11538e-05
-0.000209258
5.88548e-05
-0.000223412
8.80495e-05
-0.000237905
0.000118748
-0.00025271
0.000150961
-0.000267786
0.000184706
-0.000283037
0.000219968
-0.00029847
0.000256743
-0.000313993
0.000295018
-0.000329536
0.000334773
-0.000345022
0.000375977
-0.000360393
0.000418593
-0.000375568
0.000462579
-0.000390464
0.00050788
-0.000405038
0.000554445
-0.000419176
0.000602205
-0.000432859
0.000651092
-0.000446004
0.000701031
-0.000458569
0.000751942
-0.000470504
0.000803744
-0.000481772
0.000856349
-0.000492338
0.000909671
-0.000502175
0.000963617
-0.000511261
0.0010181
-0.000519577
0.00107302
-0.000527105
0.00112828
-0.000533832
0.00118381
-0.000539742
0.00123949
-0.00054482
-0.00054905
-0.000132985
6.72878e-05
-0.000135415
5.94477e-05
-0.000137146
5.16869e-05
-0.000138163
4.39629e-05
-0.000138447
3.62218e-05
-0.000137972
2.83988e-05
-0.000136698
2.04249e-05
-0.000134552
1.22295e-05
-0.000131504
3.94402e-06
-0.000127946
-4.09681e-06
-0.000123426
-1.20373e-05
-0.000118071
-2.01546e-05
-0.000111826
-2.84807e-05
-0.000104676
-3.70234e-05
-9.6602e-05
-4.58019e-05
-8.75791e-05
-5.48418e-05
-7.75809e-05
-6.41674e-05
-6.65789e-05
-7.38036e-05
-5.45426e-05
-8.37757e-05
-4.14399e-05
-9.41087e-05
-2.7236e-05
-0.000104827
-1.18884e-05
-0.000115958
4.63232e-06
-0.000127517
2.22677e-05
-0.000139456
4.11683e-05
-0.000151901
6.13412e-05
-0.000164804
8.28142e-05
-0.000178175
0.000105617
-0.000192014
0.000129775
-0.000206318
0.000155313
-0.000221084
0.000182277
-0.000236222
0.000210665
-0.000251799
0.000240495
-0.000267736
0.000271781
-0.000283996
0.000304527
-0.000300532
0.000338743
-0.000317253
0.000374413
-0.00033414
0.000411524
-0.000351104
0.000450057
-0.000368069
0.000489987
-0.000384952
0.000531276
-0.000401682
0.000573883
-0.000418174
0.000617759
-0.00043434
0.000662845
-0.000450124
0.000709084
-0.000465415
0.000756403
-0.000480179
0.000804731
-0.000494332
0.000853988
-0.000507826
0.000904093
-0.000520609
0.00095496
-0.000532639
0.0010065
-0.00054388
0.00105863
-0.000554303
0.00111125
-0.000563884
0.00116428
-0.000572602
0.00121761
-0.000580442
0.00127117
-0.000587388
0.00132485
-0.000593425
0.00137857
-0.000598541
-0.000602717
7.31067e-06
6.97189e-05
5.53408e-06
6.12243e-05
4.43632e-06
5.27846e-05
4.03772e-06
4.43615e-05
4.35991e-06
3.58996e-05
5.43259e-06
2.73261e-05
7.31002e-06
1.85475e-05
1.00194e-05
9.52012e-06
1.37362e-05
2.27215e-07
1.78971e-05
-8.25768e-06
2.29808e-05
-1.71211e-05
2.89639e-05
-2.61377e-05
3.5847e-05
-3.53638e-05
4.36439e-05
-4.48203e-05
5.23756e-05
-5.45336e-05
6.20662e-05
-6.45324e-05
7.27417e-05
-7.48429e-05
8.44293e-05
-8.54913e-05
9.71577e-05
-9.65041e-05
0.000110956
-0.000107907
0.000125855
-0.000119726
0.000141882
-0.000131985
0.000159068
-0.000144703
0.000177463
-0.000157852
0.000197077
-0.000171515
0.000217943
-0.00018567
0.000240091
-0.000200323
0.000263548
-0.000215471
0.000288337
-0.000231108
0.000314479
-0.000247225
0.000342005
-0.000263749
0.000370919
-0.000280712
0.00040123
-0.000298048
0.000432946
-0.000315711
0.000466065
-0.000333651
0.000500588
-0.000351776
0.000536496
-0.000370048
0.000573769
-0.000388378
0.000612383
-0.000406683
0.000652305
-0.000424874
0.000693492
-0.000442869
0.000735898
-0.00046058
0.000779468
-0.000477911
0.00082414
-0.000494795
0.000869849
-0.000511125
0.000916522
-0.000526851
0.000964083
-0.000541892
0.00101245
-0.000556192
0.00106154
-0.000569697
0.00111126
-0.000582362
0.00116153
-0.000594149
0.00121225
-0.000605028
0.00126334
-0.000614975
0.00131471
-0.000623969
0.00136626
-0.000631994
0.00141791
-0.000639035
0.00146957
-0.00064508
0.00152114
-0.000650116
-0.000654128
0.000159916
7.17356e-05
0.000158535
6.26058e-05
0.000157822
5.34974e-05
0.000157806
4.43771e-05
0.000158515
3.51905e-05
0.000159983
2.58578e-05
0.000162278
1.62529e-05
0.000165574
6.22462e-06
0.000169319
-3.51782e-06
0.000174052
-1.29913e-05
0.000179602
-2.26712e-05
0.000186043
-3.25785e-05
0.000193392
-4.27124e-05
0.000201666
-5.30943e-05
0.000210886
-6.37543e-05
0.000221078
-7.47237e-05
0.000232265
-8.60301e-05
0.000244474
-9.77005e-05
0.000257733
-0.000109762
0.000272068
-0.000122242
0.000287507
-0.000135165
0.000304077
-0.000148555
0.000321807
-0.000162433
0.000340735
-0.00017678
0.000360876
-0.000191657
0.000382259
-0.000207052
0.000404907
-0.000222971
0.000428842
-0.000239407
0.000454084
-0.00025635
0.000480647
-0.000273788
0.000508556
-0.000291657
0.000537809
-0.000309965
0.000568413
-0.000328652
0.000600366
-0.000347664
0.00063366
-0.000366946
0.00066829
-0.000386406
0.000704231
-0.000405989
0.000741459
-0.000425605
0.000779941
-0.000445165
0.000819639
-0.000464572
0.000860505
-0.000483736
0.000902487
-0.000502562
0.000945527
-0.000520951
0.000989557
-0.000538825
0.00103451
-0.000556077
0.00108031
-0.000572649
0.00112687
-0.000588455
0.00117412
-0.000603438
0.00122196
-0.00061754
0.00127031
-0.000630715
0.00131909
-0.000642923
0.00136819
-0.000654133
0.00141754
-0.000664322
0.00146704
-0.000673469
0.0015166
-0.000681559
0.00156615
-0.000688581
0.00161559
-0.000694521
0.00166484
-0.00069937
-0.000703114
0.000324816
0.000323499
6.3922e-05
0.000322857
5.41401e-05
0.00032292
4.43139e-05
0.000323719
3.43921e-05
0.000325289
2.42872e-05
0.000327709
1.38332e-05
0.000331098
2.83586e-06
0.000335068
-7.48774e-06
0.000339913
-1.78366e-05
0.000345661
-2.84191e-05
0.000352319
-3.92363e-05
0.0003599
-5.02934e-05
0.000368423
-6.16172e-05
0.000377908
-7.32399e-05
0.00038838
-8.51954e-05
0.000399862
-9.7512e-05
0.000412378
-0.000110217
0.000425955
-0.000123339
0.000440616
-0.000136904
0.000456388
-0.000150936
0.000473293
-0.000165461
0.000491357
-0.000180497
0.000510613
-0.000196035
0.000531075
-0.000212119
0.000552766
-0.000228743
0.000575704
-0.000245909
0.000599908
-0.00026361
0.00062539
-0.000281832
0.000652161
-0.000300559
0.000680235
-0.000319731
0.000709609
-0.00033934
0.000740282
-0.000359325
0.000772247
-0.000379629
0.000805489
-0.000400188
0.000839995
-0.000420911
0.000875735
-0.00044173
0.00091268
-0.00046255
0.000950789
-0.000483274
0.000990021
-0.000503803
0.00103032
-0.000524036
0.00107163
-0.000543875
0.00111389
-0.000563212
0.00115703
-0.000581964
0.00120098
-0.000600024
0.00124566
-0.000617323
0.00129098
-0.000633777
0.00133686
-0.000649322
0.00138322
-0.0006639
0.00142997
-0.000677463
0.00147702
-0.000689971
0.00152428
-0.000701395
0.00157167
-0.000711709
0.00161909
-0.000720896
0.00166648
-0.000728943
0.00171373
-0.000735838
0.00176079
-0.000741572
0.00180755
-0.000746138
-0.000749524
0.000500199
6.56141e-05
0.000499209
5.513e-05
0.000498954
4.4568e-05
0.000499466
3.38801e-05
0.000500777
2.2977e-05
0.000502903
1.17066e-05
0.000506158
-4.19179e-07
0.000509908
-1.12378e-05
0.000514634
-2.25624e-05
0.000520284
-3.40688e-05
0.000526867
-4.5819e-05
0.000534398
-5.78247e-05
0.000542895
-7.01139e-05
0.000552376
-8.27214e-05
0.000562864
-9.56837e-05
0.000574382
-0.000109029
0.000586951
-0.000122786
0.000600594
-0.000136982
0.000615333
-0.000151643
0.000631191
-0.000166794
0.000648188
-0.000182458
0.000666345
-0.000198654
0.000685688
-0.000215378
0.00070623
-0.000232661
0.000727988
-0.000250501
0.000750977
-0.000268898
0.000775207
-0.000287841
0.000800688
-0.000307312
0.000827422
-0.000327293
0.000855416
-0.000347726
0.000884664
-0.000368588
0.000915158
-0.000389818
0.000946883
-0.000411354
0.000979819
-0.000433124
0.00101394
-0.000455037
0.00104923
-0.000477012
0.00108563
-0.00049895
0.0011231
-0.00052075
0.0011616
-0.000542304
0.00120108
-0.000563507
0.00124145
-0.000584253
0.00128267
-0.000604431
0.00132466
-0.000623951
0.00136734
-0.000642705
0.00141063
-0.000660617
0.00145446
-0.000677601
0.00149873
-0.000693593
0.00154336
-0.000708532
0.00158827
-0.000722369
0.00163336
-0.000735067
0.00167856
-0.000746593
0.00172378
-0.000756927
0.00176893
-0.000766052
0.00181395
-0.000773956
0.00185874
-0.000780631
0.00190324
-0.000786072
0.00194737
-0.000790273
-0.000793226
0.00068837
6.82291e-05
0.000686519
5.69808e-05
0.000685463
4.56239e-05
0.000685229
3.41145e-05
0.000685852
2.23541e-05
0.000687459
1.00991e-05
0.000689766
-2.72594e-06
0.00069312
-1.45923e-05
0.000697359
-2.6801e-05
0.000702558
-3.92678e-05
0.000708727
-5.19884e-05
0.00071588
-6.49775e-05
0.000724031
-7.8265e-05
0.000733197
-9.18873e-05
0.000743398
-0.000105885
0.000754654
-0.000120285
0.000766984
-0.000135116
0.000780407
-0.000150405
0.000794943
-0.000166179
0.00081061
-0.000182461
0.000827424
-0.000199272
0.000845401
-0.000216631
0.000864562
-0.000234539
0.000884917
-0.000253015
0.000906476
-0.000272061
0.000929248
-0.00029167
0.000953239
-0.000311832
0.000978452
-0.000332525
0.00100488
-0.000353723
0.00103253
-0.000375374
0.00106138
-0.000397441
0.00109143
-0.000419862
0.00112264
-0.000442567
0.001155
-0.000465481
0.00118847
-0.000488509
0.00122302
-0.00051156
0.0012586
-0.000534531
0.00129516
-0.000557315
0.00133266
-0.000579799
0.00137102
-0.000601872
0.00141019
-0.000623421
0.0014501
-0.000644335
0.00149066
-0.000664515
0.00153181
-0.000683853
0.00157346
-0.000702267
0.00161553
-0.000719673
0.00165794
-0.000736002
0.0017006
-0.000751194
0.00174343
-0.000765201
0.00178635
-0.000777985
0.00182927
-0.000789516
0.00187212
-0.000799775
0.00191482
-0.000808748
0.00195729
-0.000816425
0.00199946
-0.000822802
0.00204126
-0.000827876
0.00208264
-0.000831646
-0.000834108
0.000887578
7.24122e-05
0.000884265
6.02946e-05
0.000881842
4.8046e-05
0.00088033
3.56273e-05
0.000879742
2.29421e-05
0.000880125
9.71572e-06
0.000881474
-4.07448e-06
0.000883789
-1.69071e-05
0.000887122
-3.01342e-05
0.000891473
-4.36194e-05
0.000896846
-5.7361e-05
0.000903251
-7.13828e-05
0.0009107
-8.57134e-05
0.000919204
-0.000100391
0.00092878
-0.000115461
0.000939446
-0.000130951
0.000951217
-0.000146886
0.000964107
-0.000163296
0.000978132
-0.000180204
0.000993305
-0.000197634
0.00100964
-0.000215605
0.00102714
-0.000234136
0.00104583
-0.000253227
0.00106571
-0.000272894
0.00108678
-0.000293134
0.00110906
-0.000313941
0.00113252
-0.0003353
0.00115718
-0.000357185
0.00118303
-0.000379567
0.00121005
-0.000402393
0.00123822
-0.000425616
0.00126753
-0.000449171
0.00129795
-0.000472985
0.00132944
-0.000496974
0.00136197
-0.000521041
0.0013955
-0.000545088
0.00142998
-0.000569007
0.00146535
-0.000592685
0.00150155
-0.000616004
0.00153853
-0.000638848
0.00157621
-0.000661102
0.00161452
-0.000682647
0.00165339
-0.000703383
0.00169274
-0.000723201
0.00173249
-0.000742015
0.00177256
-0.000759739
0.00181286
-0.000776306
0.00185332
-0.000791654
0.00189386
-0.000805737
0.00193439
-0.000818517
0.00197484
-0.000829968
0.00201513
-0.000840071
0.0020552
-0.000848817
0.00209498
-0.000856198
0.00213439
-0.000862215
0.00217338
-0.000866867
0.00221189
-0.000870157
-0.000872084
0.00109707
7.88833e-05
0.00109163
6.57411e-05
0.00108721
5.24604e-05
0.00108383
3.90068e-05
0.00108148
2.52944e-05
0.00108017
1.10266e-05
0.00107994
-3.8428e-06
0.00108081
-1.77791e-05
0.00108278
-3.21051e-05
0.00108585
-4.66881e-05
0.00109001
-6.15232e-05
0.00109527
-7.66437e-05
0.00110164
-9.20767e-05
0.00110911
-0.000107864
0.0011177
-0.000124055
0.00112743
-0.000140679