/*--------------------------------*- C++ -*----------------------------------*\
  =========                 |
  \\      /  F ield         | OpenFOAM: The Open Source CFD Toolbox
   \\    /   O peration     | Website:  https://openfoam.org
    \\  /    A nd           | Version:  7
     \\/     M anipulation  |
\*---------------------------------------------------------------------------*/
FoamFile
{
    version     2.0;
    format      ascii;
    class       surfaceScalarField;
    location    "170";
    object      phi;
}
// * * * * * * * * * * * * * * * * * * * * * * * * * * * * * * * * * * * * * //

dimensions      [0 3 -1 0 0 0 0];

internalField   nonuniform List<scalar> 
3882
(
0.00578742
0.000588508
0.00586158
0.000686145
0.00595179
0.000766956
0.00605612
0.000823891
0.00617174
0.000849845
0.00629487
0.000838156
0.00642074
0.000783163
0.00654367
0.000680814
0.00665729
0.000529514
0.00675492
0.000330931
0.0068305
8.99445e-05
0.00687887
-0.000185668
0.00689597
-0.000486264
0.00688086
-0.000798813
0.00683485
-0.00111091
0.00676101
-0.00141167
0.00666371
-0.00169213
0.00654788
-0.00194571
0.00641843
-0.00216821
0.00627984
-0.00235751
0.00613594
-0.00251315
0.00598978
-0.00263589
0.00584366
-0.00272726
0.00569916
-0.00278927
0.00555729
-0.002824
0.00541857
-0.00283334
0.0052831
-0.00281893
0.00515075
-0.00278199
0.00502135
-0.00272277
0.00489449
-0.0026408
0.00476952
-0.00253584
0.00464638
-0.00240676
0.00452618
-0.00224845
0.00440923
-0.00205381
0.00429287
-0.00182221
0.00417425
-0.00156184
-0.00127705
0.00605296
0.000531762
0.00612573
0.000613374
0.0062133
0.000679394
0.00631358
0.000723607
0.00642362
0.000739807
0.00653954
0.000722232
0.00665662
0.000666084
0.00676937
0.000568062
0.00687187
0.000427018
0.00695823
0.000244565
0.00702326
2.49206e-05
0.00706252
-0.000224933
0.00707311
-0.000496849
0.00705432
-0.000780025
0.0070074
-0.00106399
0.00693504
-0.00133932
0.00684099
-0.00159807
0.00672946
-0.00183418
0.00660474
-0.00204348
0.00647077
-0.00222355
0.00633103
-0.00237341
0.00618835
-0.0024932
0.00604493
-0.00258385
0.00590239
-0.00264672
0.00576179
-0.0026834
0.00562378
-0.00269533
0.00548863
-0.00268378
0.00535633
-0.00264969
0.00522686
-0.0025933
0.00510006
-0.00251401
0.00497548
-0.00241126
0.00485297
-0.00228425
0.00473368
-0.00212916
0.00461898
-0.00193911
0.00450765
-0.00171088
0.00439632
-0.00145052
0.00428575
-0.00116648
0.00418685
-0.000854719
0.0041189
-0.000494554
0.00410011
-6.34721e-05
0.00413865
0.000441821
0.00422963
0.000997463
0.00436012
0.00156476
0.00451502
0.00210855
0.00468161
0.00261275
0.00485211
0.00308603
0.00502507
0.00355424
0.0052054
0.00403809
0.00540108
0.00452391
0.0056158
0.00494873
0.00584283
0.00521414
0.00606494
0.00521434
0.00626005
0.00485283
0.00641178
0.00404497
0.0065143
0.00275108
0.00106418
0.00631574
0.000476786
0.00638539
0.000543725
0.00646844
0.000596341
0.00656283
0.000629222
0.00666562
0.000637013
0.00677306
0.000614796
0.00688063
0.00055851
0.00698325
0.00046545
0.00707547
0.000334792
0.00715219
0.000167849
0.00720854
-3.1433e-05
0.00724116
-0.000257555
0.00724753
-0.000503219
0.00722711
-0.000759601
0.00718094
-0.00101781
0.0071113
-0.00126968
0.00702136
-0.00150814
0.00691475
-0.00172758
0.0067952
-0.00192393
0.00666623
-0.00209458
0.00653099
-0.00223817
0.00639214
-0.00235436
0.00625183
-0.00244353
0.00611165
-0.00250655
0.00597275
-0.0025445
0.0058359
-0.00255848
0.00570149
-0.00254937
0.00556969
-0.00251788
0.00544057
-0.00246418
0.00531421
-0.00238764
0.0051904
-0.00228746
0.00506901
-0.00216285
0.00495102
-0.00201117
0.00483841
-0.0018265
0.00473149
-0.00160396
0.00462749
-0.00134652
0.00452456
-0.00106355
0.00442862
-0.000758783
0.00435533
-0.000421263
0.00432358
-3.17161e-05
0.00434575
0.000419644
0.00442206
0.000921158
0.00454254
0.00144428
0.00469267
0.00195842
0.00485881
0.00244661
0.00503199
0.00291285
0.00521014
0.00337609
0.00539816
0.00385007
0.00560381
0.00431826
0.00583014
0.0047224
0.00606965
0.00497463
0.00630379
0.0049802
0.00651015
0.00464648
0.00667408
0.00388104
0.00678974
0.00263542
0.00100514
0.00657884
0.000424537
0.00664432
0.000478242
0.00672178
0.000518881
0.00680922
0.000541785
0.00690385
0.000542377
0.00700216
0.000516484
0.00709997
0.000460701
0.00719261
0.000372808
0.00727525
0.00025216
0.0073433
9.97929e-05
0.00739253
-8.06566e-05
0.00741995
-0.000284976
0.00742347
-0.000506746
0.00740255
-0.000738684
0.00735799
-0.000973253
0.00729166
-0.00120335
0.00720623
-0.0014227
0.00710479
-0.00162614
0.0069906
-0.00180974
0.00686681
-0.00197079
0.00673631
-0.00210767
0.00660158
-0.00221963
0.00646469
-0.00230664
0.00632726
-0.00236911
0.00619047
-0.00240772
0.00605519
-0.0024232
0.00592196
-0.00241614
0.00579108
-0.002387
0.00566276
-0.00233585
0.00553722
-0.00226211
0.00541455
-0.00216479
0.00529471
-0.00204301
0.00517849
-0.00189495
0.00506802
-0.00171603
0.0049649
-0.00150084
0.00486771
-0.00124933
0.00477347
-0.000969307
0.00468375
-0.000669068
0.00460929
-0.000346804
0.00456732
1.02591e-05
0.004573
0.000413957
0.00463177
0.000862392
0.00473806
0.00133799
0.00487933
0.00181715
0.00504184
0.0022841
0.0052157
0.002739
0.00539807
0.00319372
0.00559337
0.00365478
0.00580863
0.004103
0.00604607
0.00448496
0.006297
0.00472369
0.00654177
0.00473544
0.00675895
0.00442929
0.00693624
0.00370375
0.00706683
0.00250483
0.000934575
0.00684422
0.000375526
0.00690502
0.000417445
0.00697639
0.000447513
0.00705644
0.000461735
0.0071426
0.000456218
0.00723164
0.000427445
0.00731976
0.000372579
0.00740279
0.000289774
0.00747647
0.000178487
0.0075365
3.97635e-05
0.0075795
-0.000123665
0.0076026
-0.00030807
0.007604
-0.000508144
0.0075831
-0.00071779
0.00754047
-0.000930623
0.00747761
-0.00114048
0.00739672
-0.00134181
0.00730045
-0.00152987
0.00719164
-0.00170093
0.00707311
-0.00185226
0.00694748
-0.00198204
0.00681708
-0.00208923
0.0066839
-0.00217346
0.00654954
-0.00223475
0.00641525
-0.00227343
0.00628195
-0.0022899
0.00615032
-0.00228451
0.00602079
-0.00225748
0.0058937
-0.00220876
0.00576939
-0.0021378
0.00564821
-0.0020436
0.00553031
-0.00192511
0.00541633
-0.00178097
0.00530824
-0.00160794
0.00520845
-0.00140105
0.00511717
-0.00115805
0.00503172
-0.000883859
0.00495066
-0.00058801
0.0048795
-0.00027564
0.00483165
5.81026e-05
0.00482278
0.00042283
0.0048626
0.000822571
0.00495077
0.00124982
0.00507835
0.00168957
0.00523291
0.00212954
0.00540438
0.00256752
0.00558925
0.00300885
0.0057909
0.00345314
0.00601514
0.00387875
0.00626281
0.00423729
0.00652362
0.00446288
0.00677744
0.00448162
0.00700531
0.00420142
0.00719755
0.00351151
0.00734513
0.00235725
0.000851334
0.00711306
0.000329971
0.007169
0.000361506
0.00723416
0.000382348
0.0073068
0.000389096
0.00738456
0.00037846
0.00746453
0.000347479
0.00754329
0.000293813
0.00761716
0.000215907
0.00768235
0.000113297
0.00773509
-1.29717e-05
0.00777237
-0.000160949
0.00779162
-0.000327318
0.0077912
-0.000507723
0.00777047
-0.000697062
0.00772977
-0.000889921
0.00767026
-0.00108098
0.00759376
-0.00126531
0.00750251
-0.00143862
0.00739899
-0.00159741
0.00728568
-0.00173896
0.00716499
-0.00186134
0.00703907
-0.00196332
0.00690984
-0.00204422
0.00677886
-0.00210377
0.0066474
-0.00214197
0.00651648
-0.00215898
0.00638686
-0.00215489
0.0062591
-0.00212972
0.00613366
-0.00208331
0.006011
-0.00201515
0.00589165
-0.00192425
0.00577601
-0.00180948
0.0056647
-0.00166966
0.00555937
-0.0015026
0.0054627
-0.00130438
0.00537635
-0.00107169
0.00529893
-0.000806439
0.00522773
-0.000516809
0.0051638
-0.000211716
0.00511547
0.000106438
0.00509626
0.000442038
0.00511814
0.000800686
0.00518571
0.00118225
0.00529488
0.00158041
0.00543633
0.00198809
0.00560115
0.00240269
0.00578557
0.00282443
0.00599171
0.00324699
0.00622361
0.00364685
0.00647991
0.00398099
0.00674843
0.00419436
0.00700975
0.00422029
0.00724888
0.00396229
0.00745844
0.00330195
0.00762509
0.0021906
0.000754901
0.00738604
0.000287923
0.00743715
0.000310396
0.00749623
0.000323267
0.00756168
0.000323654
0.00763135
0.000308785
0.00770264
0.000276192
0.00777254
0.000223911
0.00783778
0.000150667
0.00789499
5.60902e-05
0.00794095
-5.89356e-05
0.0079729
-0.000192898
0.00798857
-0.000342988
0.00798644
-0.000505594
0.00796583
-0.000676453
0.00792689
-0.000850981
0.0078705
-0.00102459
0.00779813
-0.00119294
0.00771168
-0.00135216
0.00761326
-0.00149899
0.0075051
-0.00163079
0.00738935
-0.00174559
0.00726803
-0.001842
0.00714292
-0.00191911
0.00701558
-0.00197643
0.0068873
-0.00201369
0.00675911
-0.00203079
0.00663188
-0.00202766
0.00650629
-0.00200413
0.00638291
-0.00195993
0.00626232
-0.00189455
0.00614515
-0.00180709
0.00603207
-0.0016964
0.00592376
-0.00156135
0.00582161
-0.00140045
0.00572814
-0.00121091
0.00564591
-0.000989465
0.00557522
-0.000735752
0.00551371
-0.000455297
0.00545961
-0.000157614
0.00541615
0.000149896
0.00539266
0.00046553
0.0054006
0.000792747
0.00544788
0.00113497
0.00553556
0.00149273
0.00565894
0.00186471
0.00581196
0.00224967
0.00599158
0.00264481
0.00619894
0.00303964
0.00643577
0.00341003
0.00669779
0.00371897
0.00697122
0.00392093
0.00723904
0.00395246
0.00749126
0.00371007
0.00772114
0.00307207
0.00790832
0.00200342
0.000646113
0.00766372
0.000249347
0.00771013
0.000263985
0.00776336
0.000270039
0.00782194
0.000265073
0.00788396
0.000246768
0.00794708
0.000213066
0.00800868
0.000162315
0.00806581
9.35398e-05
0.00811565
6.25095e-06
0.00815524
-9.8533e-05
0.0081822
-0.000219854
0.00819448
-0.000355264
0.00819066
-0.000501779
0.00817005
-0.000655841
0.00813264
-0.000813572
0.00807908
-0.000971025
0.00801054
-0.0011244
0.0079286
-0.00127022
0.00783508
-0.00140547
0.00773193
-0.00152765
0.0076211
-0.00163476
0.00750442
-0.00172532
0.00738359
-0.00179829
0.00726012
-0.00185295
0.00713528
-0.00188885
0.00701017
-0.00190568
0.0068857
-0.00190319
0.00676267
-0.0018811
0.00664174
-0.00183901
0.0065236
-0.0017764
0.00640898
-0.00169247
0.00629873
-0.00158614
0.00619368
-0.00145631
0.00609506
-0.00130183
0.00600506
-0.00112091
0.00592652
-0.000910931
0.0058612
-0.000670425
0.0058081
-0.000402197
0.00576458
-0.000114094
0.00573009
0.000184379
0.00570894
0.000486685
0.00570956
0.000792125
0.00574061
0.00110392
0.00580707
0.00142626
0.00590941
0.00176238
0.00604583
0.00211325
0.00621543
0.00247521
0.00641905
0.00283602
0.00665607
0.00317301
0.00691927
0.00345577
0.00719451
0.0036457
0.00746902
0.00367795
0.00773742
0.00344167
0.0079903
0.00281919
0.0081975
0.00179623
0.000528073
0.00794664
0.000214168
0.00798854
0.000222094
0.0080362
0.000222377
0.0080883
0.000212969
0.00814314
0.000191931
0.00819866
0.000157547
0.00825251
0.000108467
0.0083022
4.38467e-05
0.00834503
-3.65753e-05
0.00837875
-0.000132254
0.00840102
-0.000242129
0.00841006
-0.000364301
0.00840456
-0.000496278
0.00838381
-0.000635089
0.00834769
-0.000777455
0.00829665
-0.000919988
0.00823162
-0.00105937
0.0081539
-0.0011925
0.00806504
-0.00131662
0.00796674
-0.00142935
0.00786075
-0.00152876
0.00774874
-0.00161331
0.0076323
-0.00168185
0.00751288
-0.00173353
0.00739174
-0.00176771
0.00727001
-0.00178395
0.00714865
-0.00178183
0.00702853
-0.00176097
0.00691042
-0.00172091
0.0067951
-0.00166108
0.00668338
-0.00158076
0.00657623
-0.00147899
0.00647464
-0.00135472
0.00637982
-0.001207
0.00629361
-0.00103469
0.00621871
-0.000836034
0.00615768
-0.000609396
0.00611119
-0.000355711
0.00607732
-8.02215e-05
0.00605368
0.00020802
0.00604035
0.000500018
0.00604142
0.00079105
0.00606366
0.00108168
0.00611364
0.00137628
0.00619596
0.00168006
0.00631345
0.00199576
0.00646845
0.00232022
0.00666245
0.00264201
0.00689323
0.00294223
0.00715195
0.00319706
0.00742634
0.0033713
0.007709
0.00339529
0.00799662
0.00315406
0.00827265
0.00254316
0.00849553
0.00157335
0.000406865
0.00823539
0.000182285
0.00827297
0.00018452
0.00831537
0.000179976
0.0083614
0.000166936
0.00840954
0.000143787
0.00845798
0.000109109
0.00850468
6.1773e-05
0.0085474
1.1223e-06
0.00858391
-7.30796e-05
0.00861208
-0.000160431
0.00862995
-0.000259999
0.00863589
-0.000370241
0.00862871
-0.000489091
0.00860768
-0.000614066
0.00857262
-0.000742397
0.00852382
-0.000871183
0.00846198
-0.000997533
0.00838818
-0.0011187
0.00830373
-0.00123216
0.0082101
-0.00133572
0.00810884
-0.0014275
0.00800148
-0.00150596
0.00788951
-0.00156988
0.00777429
-0.00161831
0.00765708
-0.0016505
0.007539
-0.00166587
0.00742106
-0.00166389
0.00730418
-0.0016441
0.00718924
-0.00160597
0.00707708
-0.00154892
0.00696859
-0.00147227
0.00686481
-0.0013752
0.00676685
-0.00125677
0.00667599
-0.00111614
0.00659383
-0.000952539
0.00652274
-0.000764939
0.00646549
-0.000552152
0.00642392
-0.000314138
0.00639769
-5.39936e-05
0.00638442
0.000221289
0.00638184
0.000502601
0.00639005
0.000782839
0.00641237
0.00105936
0.00645442
0.00133423
0.00652265
0.00161183
0.0066234
0.001895
0.00676219
0.00218144
0.00694194
0.00246226
0.00716034
0.00272382
0.00740957
0.00294783
0.00768169
0.00309918
0.007974
0.00310297
0.00828085
0.00284721
0.00857468
0.00224933
0.00880376
0.00134428
0.000291364
0.00853054
0.000153576
0.00856402
0.000151044
0.00860147
0.000142519
0.00864184
0.000126573
0.00868377
0.000101856
0.00872567
6.7204e-05
0.00876574
2.17062e-05
0.00880207
-3.52057e-05
0.00883269
-0.000103703
0.00885573
-0.000183476
0.00886948
-0.000273741
0.00887246
-0.000373228
0.0088636
-0.000480225
0.00884219
-0.000592657
0.00880798
-0.000708187
0.00876113
-0.000824334
0.00870218
-0.000938587
0.008632
-0.00104852
0.0085517
-0.00115185
0.00846254
-0.00124656
0.00836589
-0.00133085
0.00826315
-0.00140322
0.00815568
-0.00146241
0.00804479
-0.00150742
0.00793169
-0.0015374
0.0078175
-0.00155168
0.00770326
-0.00154966
0.00758995
-0.00153079
0.00747848
-0.0014945
0.00736979
-0.00144022
0.00726483
-0.00136731
0.00716467
-0.00127504
0.00707052
-0.00116262
0.00698371
-0.00102932
0.00690576
-0.000874585
0.00683869
-0.000697873
0.00678508
-0.000498542
0.00674738
-0.000276434
0.00672662
-3.32335e-05
0.00672162
0.000226281
0.00672976
0.000494462
0.00674879
0.000763812
0.00677871
0.00102944
0.0068226
0.00129035
0.00688629
0.00154813
0.00697733
0.00180396
0.00710306
0.00205571
0.00726788
0.00229744
0.00747113
0.00252056
0.00770875
0.00271022
0.00797838
0.00282955
0.0082794
0.00280195
0.00859924
0.00252737
0.00889847
0.0019501
0.00911983
0.00112291
0.000191519
0.00883257
0.000127899
0.00886219
0.00012143
0.00889503
0.000109679
0.00893013
9.1473e-05
0.00896632
6.56666e-05
0.00900219
3.13308e-05
0.00903618
-1.22844e-05
0.00906662
-6.56486e-05
0.00909181
-0.000128894
0.00911011
-0.000201769
0.00911999
-0.000283625
0.00912018
-0.000373411
0.00910965
-0.000469705
0.00908777
-0.000570772
0.00905422
-0.00067464
0.00900908
-0.000779191
0.00895274
-0.000882251
0.00888591
-0.000981679
0.00880949
-0.00107544
0.0087246
-0.00116167
0.00863244
-0.00123868
0.00853425
-0.00130503
0.00843131
-0.00135947
0.00832483
-0.00140094
0.00821599
-0.00142856
0.00810591
-0.00144159
0.00799562
-0.00143938
0.00788614
-0.0014213
0.00777844
-0.0013868
0.00767349
-0.00133527
0.00757231
-0.00126613
0.00747601
-0.00117874
0.00738583
-0.00107244
0.00730314
-0.000946631
0.00722944
-0.000800886
0.00716653
-0.000634968
0.00711667
-0.000448677
0.00708233
-0.000242091
0.00706542
-1.6329e-05
0.00706615
0.000225555
0.00708284
0.000477768
0.00711283
0.000733827
0.00715419
0.000988076
0.00720744
0.00123709
0.00727631
0.00147927
0.0073672
0.00171307
0.00748724
0.00193567
0.00764156
0.00214312
0.00783212
0.00233001
0.00805979
0.00248255
0.00832684
0.0025625
0.00863102
0.00249777
0.00895067
0.00220772
0.00923792
0.00166285
0.00943676
0.000924075
0.000115298
0.00914192
0.000105087
0.00916791
9.54349e-05
0.00919645
8.11398e-05
0.00922671
6.12192e-05
0.00925761
3.47655e-05
0.00928796
9.83386e-07
0.00931638
-4.07062e-05
0.00934143
-9.0696e-05
0.00936162
-0.00014909
0.00937553
-0.000215679
0.00938183
-0.000289922
0.00937937
-0.000370948
0.00936724
-0.000457574
0.00934481
-0.000548348
0.00931178
-0.000641607
0.00926813
-0.000735541
0.00921415
-0.000828274
0.0091504
-0.000917928
0.00907764
-0.00100269
0.00899683
-0.00108085
0.008909
-0.00115086
0.0088153
-0.00121133
0.00871687
-0.00126104
0.00861487
-0.00129894
0.00851042
-0.00132412
0.00840461
-0.00133579
0.00829849
-0.00133326
0.00819309
-0.0013159
0.00808939
-0.00128311
0.00798844
-0.00123432
0.00789127
-0.00116896
0.00779902
-0.0010865
0.00771295
-0.000986372
0.00763444
-0.000868118
0.00756499
-0.000731435
0.00750627
-0.000576244
0.00746024
-0.000402647
0.00742919
-0.000211041
0.0074152
-2.34203e-06
0.00741959
0.000221158
0.00744196
0.000455403
0.00748049
0.000695293
0.00753303
0.000935538
0.00759863
0.0011715
0.00767879
0.0013991
0.00777756
0.00161431
0.0079002
0.00181303
0.00805153
0.00199179
0.00823564
0.0021459
0.00845723
0.00226096
0.00872014
0.00229959
0.00901772
0.00220019
0.00932073
0.00190471
0.00957924
0.00140435
0.00974488
0.00075843
6.5762e-05
0.00945893
8.49722e-05
0.00948157
7.27926e-05
0.00950615
5.65579e-05
0.00953194
3.54344e-05
0.00955801
8.69666e-06
0.00958331
-2.43195e-05
0.00960665
-6.40462e-05
0.00962677
-0.000110822
0.00964241
-0.000164721
0.00965229
-0.000225566
0.00965528
-0.000292905
0.00965034
-0.000366012
0.00963667
-0.000443902
0.00961368
-0.000525357
0.00958104
-0.000608973
0.00953871
-0.000693208
0.00948688
-0.000776442
0.00942598
-0.000857034
0.00935667
-0.000933371
0.00927973
-0.00100391
0.00919611
-0.00106723
0.0091068
-0.00112202
0.00901286
-0.0011671
0.00891538
-0.00120145
0.00881541
-0.00122415
0.00871402
-0.0012344
0.00861225
-0.00123148
0.00851112
-0.00121476
0.00841165
-0.00118364
0.00831489
-0.00113756
0.00822192
-0.00107599
0.00813388
-0.000998465
0.00805204
-0.00090453
0.00797776
-0.000793837
0.00791252
-0.000666192
0.00785792
-0.000521645
0.00781572
-0.000360449
0.00778793
-0.000183252
0.00777659
9.00502e-06
0.00778339
0.000214353
0.00780899
0.000429804
0.00785282
0.00065146
0.00791354
0.000874826
0.00799
0.00109503
0.00808234
0.00130677
0.00819229
0.00150435
0.00832278
0.00168254
0.00847747
0.0018371
0.0086611
0.00196226
0.00887942
0.00204264
0.00913449
0.00204453
0.00941462
0.00192006
0.00968722
0.00163211
0.00990695
0.00118462
0.0100364
0.000629
4.0223e-05
0.00978398
6.73638e-05
0.00980351
5.32638e-05
0.00982446
3.5603e-05
0.00984617
1.37253e-05
0.00986787
-1.30008e-05
0.00988858
-4.5028e-05
0.0099073
-8.27729e-05
0.00992296
-0.000126479
0.00993444
-0.000176202
0.00994066
-0.000231786
0.00994061
-0.000292851
0.00993339
-0.000358791
0.00991827
-0.000428782
0.00989471
-0.000501802
0.0098624
-0.000576664
0.00982125
-0.000652053
0.00977138
-0.000726576
0.00971315
-0.000798799
0.00964708
-0.000867298
0.00957385
-0.000930691
0.00949429
-0.000987668
0.00940928
-0.00103702
0.0093198
-0.00107762
0.00922685
-0.00110849
0.00913143
-0.00112873
0.00903456
-0.00113753
0.00893727
-0.00113419
0.00884057
-0.00111806
0.0087455
-0.00108856
0.0086531
-0.00104516
0.00856448
-0.000987369
0.00848078
-0.000914767
0.00840325
-0.000826998
0.00833323
-0.000723814
0.00827216
-0.000605123
0.00822156
-0.000471048
0.00818309
-0.000321978
0.00815854
-0.000158702
0.0081497
1.78417e-05
0.00815835
0.000205708
0.00818565
0.0004025
0.00823203
0.000605082
0.00829718
0.000809671
0.00838054
0.00101168
0.00848178
0.00120553
0.00860118
0.00138495
0.00873978
0.00154394
0.00889979
0.00167709
0.00908503
0.00177702
0.00929954
0.00182814
0.0095417
0.00180236
0.00979619
0.00166557
0.0100319
0.00139645
0.0102118
0.0010047
0.0103093
0.000531459
3.17826e-05
0.0101175
5.20877e-05
0.0101342
3.65762e-05
0.0101518
1.79743e-05
0.0101698
-4.3146e-06
0.0101875
-3.06969e-05
0.0102041
-6.15998e-05
0.0102187
-9.73414e-05
0.0102303
-0.000138109
0.010238
-0.000183938
0.0102409
-0.00023469
0.0102381
-0.000290043
0.0102288
-0.000349487
0.0102124
-0.000412332
0.0101883
-0.000477717
0.0101563
-0.000544639
0.0101162
-0.000611977
0.0100681
-0.000678531
0.0100124
-0.000743055
0.0099494
-0.000804294
0.00987973
-0.000861014
0.00980409
-0.000912028
0.00972329
-0.000956217
0.0096382
-0.000992542
0.00954976
-0.00102005
0.00945892
-0.00103789
0.00936665
-0.00104526
0.00927395
-0.00104149
0.00918181
-0.00102593
0.00909126
-0.000998017
0.00900335
-0.000957255
0.00891919
-0.0009032
0.0088399
-0.000835482
0.00876672
-0.00075382
0.00870096
-0.000658048
0.00864399
-0.000548157
0.00859729
-0.000424347
0.00856241
-0.0002871
0.00854091
-0.000137198
0.00853449
2.42552e-05
0.00854473
0.000195477
0.00857295
0.000374276
0.0086201
0.000557936
0.00868663
0.000743135
0.00877263
0.00092568
0.00887788
0.00110028
0.00900205
0.00126078
0.00914508
0.00140091
0.00930784
0.00151434
0.00949229
0.00159257
0.00969939
0.00162103
0.00992387
0.00157787
0.0101493
0.00144018
0.0103488
0.0011969
0.0104947
0.000858806
0.0105689
0.000457313
3.2821e-05
0.0104599
3.89434e-05
0.010474
2.24906e-05
0.0104886
3.34483e-06
0.0105033
-1.90064e-05
0.0105174
-4.48111e-05
0.0105303
-7.44558e-05
0.0105411
-0.000108182
0.0105492
-0.000146131
0.0105535
-0.000188319
0.0105535
-0.000234621
0.0105482
-0.000284761
0.010537
-0.000338311
0.0105194
-0.000394686
0.0104948
-0.000453162
0.0104631
-0.000512887
0.010424
-0.000572908
0.0103777
-0.000632193
0.0103243
-0.000689659
0.0102642
-0.000744206
0.0101979
-0.000794736
0.010126
-0.00084018
0.0100493
-0.000879518
0.00996859
-0.000911787
0.00988463
-0.000936096
0.00979837
-0.000951624
0.00971073
-0.000957626
0.00962267
-0.000953429
0.00953517
-0.000938428
0.00944924
-0.000912084
0.00936591
-0.000873927
0.00928627
-0.000823556
0.00921144
-0.000760654
0.00914262
-0.000685004
0.00908107
-0.000596497
0.00902813
-0.000495218
0.00898519
-0.000381401
0.00895368
-0.000255591
0.00893508
-0.000118597
0.00893088
2.84522e-05
0.00894251
0.000183852
0.00897124
0.000345538
0.00901818
0.000511004
0.00908412
0.000677193
0.00916953
0.000840268
0.00927442
0.000995387
0.00939834
0.00113685
0.00954072
0.00125853
0.00970136
0.00135371
0.00988021
0.00141371
0.0100754
0.00142589
0.0102792
0.001374
0.0104762
0.00124321
0.0106449
0.00102823
0.0107648
0.000738856
0.0108238
0.000398312
3.66405e-05
0.0108118
2.77683e-05
0.0108235
1.07775e-05
0.0108355
-8.62061e-06
0.0108472
-3.06785e-05
0.0108581
-5.57159e-05
0.0108676
-8.3994e-05
0.0108751
-0.000115702
0.0108799
-0.000150943
0.0108813
-0.000189718
0.0108786
-0.000231912
0.0108712
-0.000277287
0.0108583
-0.000325478
0.0108396
-0.000375991
0.0108147
-0.000428213
0.0107832
-0.000481422
0.0107451
-0.000534805
0.0107004
-0.000587473
0.0106492
-0.000638491
0.0105919
-0.000686895
0.0105289
-0.000731715
0.0104607
-0.000771994
0.010388
-0.000806807
0.0103115
-0.000835274
0.010232
-0.000856566
0.0101503
-0.000869917
0.0100672
-0.000874622
0.00998386
-0.000870043
0.00990104
-0.000855607
0.00981977
-0.00083081
0.00974105
-0.000795215
0.00966596
-0.000748465
0.0095956
-0.000690287
0.00953111
-0.000620516
0.00947372
-0.000539107
0.00942468
-0.000446183
0.00938534
-0.000342056
0.009357
-0.000227255
0.00934105
-0.000102649
0.00933883
3.06737e-05
0.00935162
0.000171069
0.00938057
0.000316583
0.00942673
0.000464843
0.00949096
0.00061297
0.0095738
0.000757421
0.00967537
0.000893814
0.00979524
0.00101699
0.00993257
0.00112119
0.0100864
0.00119988
0.0102551
0.001245
0.0104348
0.00124615
0.0106173
0.00119157
0.0107888
0.00107169
0.0109327
0.000884343
0.0110341
0.000637448
0.0110839
0.000348542
3.97774e-05
0.0111738
1.83813e-05
0.0111834
1.17257e-06
0.0111929
-1.81256e-05
0.0112019
-3.96808e-05
0.01121
-6.37713e-05
0.0112166
-9.05928e-05
0.0112211
-0.000120287
0.0112231
-0.000152923
0.0112219
-0.000188491
0.0112169
-0.000226883
0.0112075
-0.000267892
0.0111932
-0.000311204
0.0111736
-0.000356402
0.0111484
-0.000402963
0.0111172
-0.000450275
0.0110801
-0.000497643
0.0110369
-0.000544305
0.0109878
-0.000589451
0.0109332
-0.000632242
0.0108733
-0.000671822
0.0108086
-0.000707341
0.0107398
-0.000737968
0.0106674
-0.000762904
0.0105923
-0.000781388
0.0105151
-0.000792711
0.0104366
-0.000796219
0.0103579
-0.000791315
0.0102798
-0.000777464
0.0102032
-0.000754199
0.0101291
-0.000721121
0.0100585
-0.000677913
0.00999258
-0.000624346
0.00993236
-0.000560297
0.00987902
-0.000485769
0.00983378
-0.000400935
0.00979783
-0.00030611
0.00977246
-0.000201884
0.00975891
-8.9098e-05
0.00975838
3.11967e-05
0.00977204
0.000157412
0.00980091
0.000287717
0.0098459
0.000419855
0.00990775
0.000551119
0.00998694
0.000678229
0.0100835
0.000797226
0.010197
0.000903482
0.0103265
0.000991742
0.0104703
0.00105605
0.010626
0.00108934
0.0107887
0.00108338
0.0109506
0.00102973
0.0111001
0.000922208
0.0112243
0.000760115
0.0113119
0.000549796
0.0113561
0.000304424
4.09359e-05
0.0115465
1.06271e-05
0.0115542
-6.54959e-06
0.0115615
-2.5449e-05
0.0115681
-4.63076e-05
0.0115737
-6.93097e-05
0.0115777
-9.46044e-05
0.0115797
-0.000122295
0.0115792
-0.000152425
0.0115757
-0.000184973
0.0115686
-0.000219839
0.0115576
-0.000256839
0.0115421
-0.000295704
0.0115218
-0.000336077
0.0114963
-0.000377513
0.0114655
-0.000419491
0.0114293
-0.000461417
0.0113876
-0.000502638
0.0113406
-0.000542454
0.0112885
-0.000580135
0.0112316
-0.000614932
0.0111704
-0.000646094
0.0111053
-0.000672878
0.011037
-0.000694564
0.010966
-0.000710463
0.0108933
-0.000719928
0.0108194
-0.000722355
0.0107453
-0.000717196
0.0106718
-0.000703958
0.0105998
-0.000682213
0.0105303
-0.000651603
0.0104642
-0.000611847
0.0104026
-0.000562757
0.0103466
-0.000504247
0.0102972
-0.000436363
0.0102555
-0.000359293
0.0102228
-0.000273392
0.0102002
-0.000179243
0.0101887
-7.76632e-05
0.0101896
3.03058e-05
0.0102038
0.000143191
0.0102323
0.000259261
0.0102757
0.000376401
0.0103348
0.000492083
0.0104097
0.000603293
0.0105005
0.000706463
0.0106065
0.000797472
0.0107266
0.000871645
0.0108589
0.00092375
0.0110004
0.000947852
0.0111462
0.00093758
0.0112891
0.000886834
0.0114196
0.000791646
0.0115277
0.000652026
0.0116046
0.000472929
0.0116445
0.000264551
3.97862e-05
0.0119306
4.29019e-06
0.0119366
-1.25393e-05
0.011942
-3.08565e-05
0.0119465
-5.08447e-05
0.0119499
-7.26419e-05
0.0119516
-9.63575e-05
0.0119514
-0.000122062
0.0119487
-0.000149781
0.0119432
-0.000179481
0.0119345
-0.000211068
0.011922
-0.000244381
0.0119055
-0.000279185
0.0118846
-0.000315174
0.0118591
-0.000351969
0.0118287
-0.000389124
0.0117934
-0.000426132
0.0117532
-0.000462434
0.0117082
-0.000497426
0.0116585
-0.000530476
0.0116045
-0.000560929
0.0115465
-0.000588125
0.0114851
-0.000611406
0.0114206
-0.000630129
0.0113538
-0.000643677
0.0112854
-0.000651461
0.011216
-0.000652936
0.0111464
-0.000647602
0.0110774
-0.00063501
0.01101
-0.000614775
0.010945
-0.000586578
0.0108833
-0.000550174
0.0108259
-0.000505412
0.0107739
-0.00045224
0.0107283
-0.000390723
0.0106901
-0.000321085
0.0106604
-0.000243674
0.0106402
-0.000159082
0.0106306
-6.80955e-05
0.0106326
2.82995e-05
0.0106471
0.000128715
0.0106748
0.000231541
0.0107164
0.000334815
0.0107723
0.000436208
0.0108426
0.000532978
0.0109271
0.000621934
0.0110252
0.000699438
0.0111354
0.000761412
0.0112558
0.000803383
0.0113831
0.000820489
0.0115129
0.000807811
0.0116387
0.00076101
0.0117529
0.000677464
0.0118474
0.000557547
0.0119151
0.000405227
0.0119514
0.000228286
3.68977e-05
0.0123268
-7.48417e-07
0.0123313
-1.70158e-05
0.012335
-3.45764e-05
0.0123377
-5.3556e-05
0.0123392
-7.40568e-05
0.012339
-9.61564e-05
0.0123368
-0.000119901
0.0123323
-0.000145297
0.0123251
-0.000172306
0.0123149
-0.000200841
0.0123013
-0.000230755
0.0122839
-0.000261845
0.0122626
-0.000293847
0.0122371
-0.000326436
0.0122072
-0.000359232
0.0121729
-0.000391801
0.0121341
-0.000423665
0.012091
-0.000454303
0.0120437
-0.000483169
0.0119924
-0.000509696
0.0119376
-0.000533304
0.0118796
-0.000553416
0.011819
-0.000569463
0.0117562
-0.000580893
0.0116919
-0.000587182
0.0116268
-0.000587839
0.0115616
-0.000582414
0.0114971
-0.000570507
0.0114341
-0.000551771
0.0113734
-0.000525928
0.011316
-0.000492768
0.0112628
-0.00045217
0.0112147
-0.00040411
0.0111726
-0.000348677
0.0111376
-0.000286097
0.0111107
-0.000216738
0.0110928
-0.000141156
0.0110848
-6.01121e-05
0.0110876
2.54585e-05
0.0111021
0.000114277
0.0111288
0.000204853
0.0111682
0.00029539
0.0112206
0.000383768
0.0112861
0.00046752
0.0113642
0.000543824
0.0114541
0.0006095
0.0115545
0.000661048
0.0116632
0.000694708
0.0117771
0.000706567
0.0118921
0.000692837
0.0120027
0.00065041
0.0121025
0.000577589
0.0121852
0.000474891
0.0122449
0.000345556
0.0122776
0.000195524
3.2784e-05
0.012736
-4.62743e-06
0.0127391
-2.01689e-05
0.0127414
-3.68265e-05
0.0127425
-5.46861e-05
0.0127423
-7.38201e-05
0.0127404
-9.4281e-05
0.0127366
-0.000116095
0.0127306
-0.000139256
0.012722
-0.000163721
0.0127106
-0.000189407
0.012696
-0.000216183
0.012678
-0.00024387
0.0126564
-0.000272241
0.012631
-0.000301018
0.0126016
-0.000329874
0.0125683
-0.00035844
0.0125309
-0.000386305
0.0124896
-0.000413024
0.0124446
-0.000438126
0.012396
-0.000461118
0.0123442
-0.0004815
0.0122895
-0.000498765
0.0122325
-0.000512413
0.0121736
-0.000521959
0.0121133
-0.000526938
0.0120524
-0.000526913
0.0119915
-0.000521485
0.0119313
-0.000510299
0.0118725
-0.000493051
0.0118161
-0.000469498
0.0117628
-0.000439464
0.0117135
-0.000402856
0.0116691
-0.000359671
0.0116304
-0.000310015
0.0115984
-0.000254114
0.011574
-0.000192338
0.0115581
-0.000125213
0.0115514
-5.3451e-05
0.0115548
2.20531e-05
0.0115689
0.000100148
0.0115943
0.000179464
0.0116313
0.000258372
0.0116801
0.000334967
0.0117406
0.00040706
0.0118122
0.000472177
0.0118942
0.000527574
0.0119849
0.000570283
0.0120825
0.000597188
0.0121839
0.000605163
0.0122854
0.000591313
0.0123824
0.000553386
0.0124697
0.0004903
0.012542
0.000402624
0.0125945
0.000293059
0.0126239
0.000166107
2.80822e-05
0.0131589
-7.48452e-06
0.0131609
-2.21685e-05
0.0131619
-3.78059e-05
0.0131617
-5.44582e-05
0.01316
-7.21742e-05
0.0131567
-9.09864e-05
0.0131515
-0.000110905
0.0131442
-0.000131916
0.0131344
-0.000153972
0.013122
-0.000176995
0.0131067
-0.000200868
0.0130883
-0.000225433
0.0130665
-0.000250494
0.0130413
-0.000275811
0.0130126
-0.000301106
0.0129802
-0.000326063
0.0129442
-0.000350331
0.0129047
-0.000373529
0.0128618
-0.000395253
0.0128158
-0.000415079
0.0127669
-0.000432574
0.0127154
-0.000447298
0.0126618
-0.000458816
0.0126066
-0.000466704
0.0125502
-0.000470553
0.0124932
-0.000469981
0.0124364
-0.000464636
0.0123803
-0.000454209
0.0123257
-0.000438433
0.0122733
-0.000417102
0.0122239
-0.00039007
0.0121783
-0.000357268