/*--------------------------------*- C++ -*----------------------------------*\
  =========                 |
  \\      /  F ield         | OpenFOAM: The Open Source CFD Toolbox
   \\    /   O peration     | Website:  https://openfoam.org
    \\  /    A nd           | Version:  7
     \\/     M anipulation  |
\*---------------------------------------------------------------------------*/
FoamFile
{
    version     2.0;
    format      ascii;
    class       volVectorField;
    location    "145";
    object      U;
}
// * * * * * * * * * * * * * * * * * * * * * * * * * * * * * * * * * * * * * //

dimensions      [0 1 -1 0 0 0 0];

internalField   nonuniform List<vector> 
1987
(
(0.784212 -0.333636 -1.41289e-22)
(0.804878 -0.391256 4.21847e-22)
(0.823253 -0.423677 -6.00956e-23)
(0.837423 -0.438424 -4.29824e-22)
(0.845742 -0.444525 1.6328e-22)
(0.846756 -0.449712 5.56476e-23)
(0.839905 -0.456658 -3.63368e-23)
(0.826099 -0.460909 2.71341e-23)
(0.807429 -0.45284 2.74602e-22)
(0.786345 -0.422455 -4.38454e-24)
(0.765326 -0.363654 -3.58096e-22)
(0.747077 -0.276073 7.23311e-23)
(0.734425 -0.165272 8.52034e-23)
(0.729636 -0.0418533 2.07413e-22)
(0.733661 0.0806173 -9.03008e-24)
(0.745822 0.189074 -4.53781e-23)
(0.763746 0.274674 -2.81116e-22)
(0.783477 0.335445 5.67896e-23)
(0.800341 0.375793 2.26818e-22)
(0.810462 0.402555 -2.23266e-22)
(0.812061 0.419963 1.33889e-22)
(0.805503 0.426976 3.94604e-23)
(0.79259 0.418487 -9.71646e-23)
(0.775811 0.388108 6.98912e-23)
(0.758142 0.331576 6.26244e-23)
(0.7429 0.248296 -2.17774e-22)
(0.733214 0.143532 2.59497e-22)
(0.731284 0.0270591 -2.56388e-23)
(0.737499 -0.0874692 4.24604e-23)
(0.750071 -0.188376 4.2225e-23)
(0.765248 -0.267719 -7.78358e-23)
(0.778167 -0.32483 -6.44157e-23)
(0.785116 -0.362016 4.41772e-23)
(0.784214 -0.381492 8.00137e-23)
(0.776639 -0.382354 2.10075e-23)
(0.764454 -0.359437 -4.77811e-23)
(0.750912 -0.310913 -4.03258e-23)
(0.738837 -0.233193 2.83065e-23)
(0.731543 -0.135917 3.26732e-23)
(0.731013 -0.0230529 -2.95303e-23)
(0.737583 0.0845207 8.4704e-23)
(0.747961 0.183927 -4.54672e-24)
(0.758528 0.25952 4.52093e-23)
(0.76394 0.316168 -4.1468e-23)
(0.764666 0.347682 -4.44063e-23)
(0.759103 0.349806 -5.69794e-23)
(0.751708 0.329014 -1.37144e-23)
(0.741767 0.263169 1.82304e-23)
(0.734949 0.191009 6.86522e-23)
(0.730799 0.0703993 7.69015e-23)
(0.733502 -0.020943 -1.95199e-23)
(0.736612 -0.142227 -2.20225e-23)
(0.74221 -0.212575 8.71952e-24)
(0.740098 -0.275264 1.70211e-23)
(0.739643 -0.313431 8.8854e-24)
(0.730118 -0.26717 -1.94773e-24)
(0.72622 -0.280635 9.07871e-25)
(0.713574 -0.102262 -3.69649e-24)
(0.791981 -0.338696 1.28924e-22)
(0.811352 -0.396101 -8.67182e-22)
(0.828315 -0.427688 5.21908e-22)
(0.841065 -0.441139 1.35001e-21)
(0.848062 -0.445564 -1.5573e-21)
(0.847869 -0.448851 3.51062e-22)
(0.83985 -0.453991 -1.26078e-23)
(0.824853 -0.456868 3.76318e-22)
(0.80501 -0.448038 -6.96099e-22)
(0.782891 -0.417527 2.04167e-22)
(0.76106 -0.359222 8.53235e-22)
(0.742247 -0.272759 -6.93631e-22)
(0.729296 -0.163615 8.67094e-22)
(0.724517 -0.0421573 -3.03006e-22)
(0.728888 0.0783994 -4.10647e-23)
(0.741689 0.185366 8.53274e-23)
(0.760427 0.270241 8.09902e-23)
(0.781005 0.331254 3.44426e-22)
(0.79869 0.372735 -2.38145e-22)
(0.809653 0.401169 -4.3753e-23)
(0.812168 0.42034 2.42881e-22)
(0.806592 0.428862 -4.45159e-22)
(0.794643 0.421438 2.00587e-22)
(0.778717 0.391576 -2.92536e-22)
(0.761706 0.334942 2.71302e-22)
(0.746889 0.250927 2.84023e-22)
(0.737338 0.14491 -4.61066e-22)
(0.735252 0.0269278 5.96608e-22)
(0.741054 -0.088985 -3.69458e-23)
(0.753084 -0.19075 -4.05951e-22)
(0.767702 -0.270151 5.94185e-22)
(0.780084 -0.326523 -1.02012e-22)
(0.786487 -0.362485 1.5406e-22)
(0.784948 -0.380698 1.17679e-22)
(0.776725 -0.380621 -1.76992e-22)
(0.763921 -0.357251 4.88832e-22)
(0.749994 -0.308804 -1.88406e-22)
(0.737676 -0.231664 -5.37002e-23)
(0.730373 -0.135387 1.13404e-22)
(0.729859 -0.0236588 1.224e-22)
(0.736545 0.0830289 -1.14355e-22)
(0.747008 0.18217 -2.04136e-22)
(0.757758 0.258159 -1.31037e-22)
(0.763558 0.315621 1.26518e-22)
(0.76479 0.347977 5.61105e-23)
(0.759875 0.35075 -1.46947e-23)
(0.752839 0.330306 1.40977e-22)
(0.743235 0.264445 -1.18607e-22)
(0.736408 0.191849 -1.78236e-22)
(0.732416 0.0705921 -1.44389e-22)
(0.735125 -0.0213621 -2.68548e-23)
(0.738355 -0.142733 1.56212e-23)
(0.743822 -0.212873 2.21096e-23)
(0.741446 -0.274971 -2.37256e-23)
(0.740378 -0.312836 -6.13568e-24)
(0.730825 -0.266175 -2.79571e-23)
(0.726486 -0.279674 -8.70298e-24)
(0.714751 -0.101416 2.20722e-24)
(0.800408 -0.343123 -2.85341e-21)
(0.81839 -0.400415 -2.41853e-21)
(0.833865 -0.431258 4.74618e-22)
(0.845138 -0.443493 1.06389e-21)
(0.850789 -0.446299 -2.57913e-22)
(0.849403 -0.447714 1.70188e-22)
(0.840267 -0.451056 -1.55639e-22)
(0.824149 -0.452587 -7.2605e-22)
(0.803203 -0.443077 9.46829e-22)
(0.780111 -0.412568 -5.35145e-22)
(0.757526 -0.354903 -8.47601e-22)
(0.738196 -0.26969 1.17407e-21)
(0.72497 -0.162305 -6.15604e-22)
(0.720189 -0.0428708 -9.25848e-22)
(0.724858 0.0757426 -5.16118e-23)
(0.738223 0.181237 -4.1817e-22)
(0.757681 0.265444 4.55369e-22)
(0.779019 0.326762 -1.27531e-22)
(0.797475 0.369419 1.0982e-22)
(0.809268 0.399543 -3.74361e-22)
(0.812719 0.420489 4.75141e-22)
(0.808164 0.430551 -1.23476e-22)
(0.797228 0.424253 -6.43045e-22)
(0.782209 0.394998 9.23881e-22)
(0.76591 0.338364 -6.31171e-22)
(0.751562 0.253717 -3.69679e-22)
(0.742167 0.146532 4.73869e-22)
(0.739914 0.027094 8.43428e-23)
(0.745259 -0.0901962 -1.35563e-21)
(0.756678 -0.192855 1.21424e-21)
(0.770669 -0.272366 -6.97647e-22)
(0.782466 -0.328048 3.41966e-22)
(0.788303 -0.362816 2.42839e-22)
(0.786131 -0.379787 -3.03941e-22)
(0.777268 -0.378806 1.28268e-22)
(0.763856 -0.355038 -2.40765e-22)
(0.749555 -0.306734 -3.08628e-23)
(0.737006 -0.230228 -7.56781e-23)
(0.729699 -0.134985 1.75704e-22)
(0.729189 -0.0243969 1.74062e-22)
(0.735967 0.081417 4.32087e-24)
(0.746489 0.180308 1.50662e-22)
(0.757412 0.256697 -9.23559e-23)
(0.763597 0.314965 2.46733e-22)
(0.765336 0.348176 -2.45385e-22)
(0.761063 0.351624 3.77224e-22)
(0.754383 0.331582 8.39644e-23)
(0.74512 0.265737 -2.35726e-22)
(0.738288 0.192736 4.85883e-23)
(0.734454 0.0708266 -1.32102e-22)
(0.737164 -0.0217471 1.08386e-22)
(0.740512 -0.143198 -2.04761e-22)
(0.745857 -0.213133 -1.46519e-22)
(0.743212 -0.274599 -1.56965e-23)
(0.741515 -0.312204 -6.7226e-23)
(0.731907 -0.265151 6.70152e-23)
(0.727092 -0.278738 1.27511e-23)
(0.716257 -0.100644 1.31123e-24)
(0.809488 -0.346885 -1.04243e-21)
(0.825993 -0.404178 -1.23632e-21)
(0.839908 -0.434377 -6.94068e-23)
(0.849651 -0.445486 -1.98786e-21)
(0.853928 -0.446743 9.97806e-22)
(0.851363 -0.446322 5.27383e-22)
(0.84116 -0.447882 1.8269e-22)
(0.82399 -0.448094 5.39041e-22)
(0.802011 -0.437977 -1.39935e-21)
(0.778005 -0.407589 -6.76024e-22)
(0.754718 -0.350702 -9.48974e-23)
(0.734913 -0.266862 2.56412e-21)
(0.721434 -0.16133 -6.30977e-22)
(0.716636 -0.0439822 9.23318e-22)
(0.721553 0.0726715 8.89308e-22)
(0.7354 0.176716 -1.38573e-21)
(0.755484 0.260304 6.50886e-22)
(0.777503 0.321979 -6.09438e-22)
(0.796681 0.365843 9.46736e-22)
(0.809295 0.397665 8.71562e-22)
(0.813703 0.420394 -5.19906e-22)
(0.81021 0.432024 -1.15162e-22)
(0.800336 0.426917 -4.98562e-23)
(0.786281 0.398359 -7.07747e-22)
(0.770752 0.341833 8.82577e-22)
(0.756921 0.25666 2.92083e-22)
(0.747708 0.148402 7.6585e-22)
(0.745281 0.0275691 -1.90514e-21)
(0.750125 -0.0910877 1.41606e-21)
(0.760866 -0.194673 -8.85426e-22)
(0.774158 -0.274355 -3.68521e-22)
(0.785317 -0.329401 -3.97467e-22)
(0.790564 -0.363011 2.50538e-22)
(0.787758 -0.378766 2.93906e-22)
(0.778265 -0.376913 3.81447e-23)
(0.76425 -0.3528 7.30417e-23)
(0.749582 -0.304703 1.65341e-22)
(0.736808 -0.228885 -2.2452e-22)
(0.729499 -0.134705 3.2105e-22)
(0.728981 -0.0252618 -2.39361e-22)
(0.73583 0.0796902 -2.51123e-22)
(0.746391 0.178343 2.4672e-22)
(0.757481 0.255135 -1.09601e-24)
(0.764052 0.3142 4.71786e-23)
(0.7663 0.348279 -1.9428e-22)
(0.762665 0.352425 -3.08882e-23)
(0.756345 0.332841 -4.06609e-22)
(0.74743 0.267044 4.81487e-22)
(0.740599 0.193669 2.75428e-22)
(0.736922 0.0711038 -6.07617e-23)
(0.739626 -0.022097 8.88282e-23)
(0.743087 -0.143623 1.86093e-22)
(0.748318 -0.213355 -6.10121e-23)
(0.745398 -0.274145 1.6463e-22)
(0.743052 -0.311532 9.71135e-23)
(0.733361 -0.264093 -3.4117e-23)
(0.728033 -0.277824 -3.43908e-24)
(0.718083 -0.0999455 4.56767e-24)
(0.819213 -0.34995 -3.30088e-21)
(0.834157 -0.407369 3.86851e-21)
(0.846445 -0.437036 -2.42633e-21)
(0.854608 -0.447118 2.54034e-22)
(0.857485 -0.446907 2.61871e-21)
(0.853749 -0.444699 -1.20955e-21)
(0.842527 -0.444495 -9.79211e-22)
(0.824377 -0.443413 6.40285e-22)
(0.801433 -0.432754 1.80695e-22)
(0.776569 -0.4026 3.30473e-22)
(0.752626 -0.346622 1.03233e-21)
(0.732383 -0.26427 -5.99135e-22)
(0.718665 -0.160677 -1.10614e-21)
(0.713836 -0.0454699 -5.1633e-22)
(0.718948 0.0692124 -1.23212e-21)
(0.733196 0.171828 1.79056e-21)
(0.753814 0.25484 -1.97104e-21)
(0.776435 0.316916 1.25027e-21)
(0.796292 0.362007 -4.68625e-22)
(0.809721 0.395527 6.70943e-23)
(0.815108 0.420039 -3.57076e-22)
(0.812717 0.433266 3.47277e-22)
(0.803958 0.429411 -1.06638e-21)
(0.790925 0.401645 1.98759e-21)
(0.776226 0.345336 -8.86109e-22)
(0.762963 0.259752 -1.72438e-21)
(0.753961 0.150519 -4.0558e-22)
(0.751356 0.028358 1.38307e-21)
(0.755662 -0.0916456 -2.4307e-21)
(0.765658 -0.19619 9.17391e-22)
(0.778177 -0.276106 1.14696e-22)
(0.788641 -0.330578 1.67845e-22)
(0.793271 -0.363072 -2.52866e-22)
(0.789825 -0.377636 -1.45535e-22)
(0.779708 -0.374946 -5.19825e-23)
(0.765093 -0.350537 -1.41503e-22)
(0.750059 -0.302711 -1.28037e-22)
(0.737063 -0.227631 5.01385e-22)
(0.729751 -0.134545 -3.57736e-22)
(0.729214 -0.0262487 -9.41548e-23)
(0.736115 0.0778529 -1.84276e-22)
(0.7467 0.176277 4.74186e-22)
(0.757954 0.253471 -3.13155e-22)
(0.764915 0.313322 1.27097e-23)
(0.767678 0.348283 2.03823e-22)
(0.764681 0.353152 -9.44151e-23)
(0.758728 0.334081 8.17298e-23)
(0.750174 0.268365 2.08343e-23)
(0.743352 0.194649 -2.96307e-22)
(0.739834 0.0714247 5.65634e-22)
(0.742521 -0.0224107 -3.89586e-22)
(0.746085 -0.144009 -6.26728e-22)
(0.751204 -0.21354 4.28544e-22)
(0.748004 -0.27361 -4.0733e-22)
(0.744988 -0.310815 1.01633e-22)
(0.735184 -0.262997 1.0057e-22)
(0.729303 -0.276928 3.48534e-23)
(0.720219 -0.099319 -4.93482e-24)
(0.829565 -0.35229 -6.05293e-21)
(0.842875 -0.409968 7.91905e-21)
(0.853475 -0.439224 -8.11713e-21)
(0.860009 -0.448387 4.70278e-21)
(0.861459 -0.446802 -1.24323e-21)
(0.856561 -0.442866 8.68125e-22)
(0.844365 -0.440924 -2.16943e-21)
(0.825302 -0.438569 9.12416e-22)
(0.801461 -0.427425 -5.09109e-22)
(0.775792 -0.39761 -1.32992e-22)
(0.751233 -0.342663 3.05055e-22)
(0.730584 -0.261908 1.76338e-21)
(0.71664 -0.160331 -2.21639e-21)
(0.711761 -0.0473027 -2.677e-22)
(0.717016 0.065393 1.41999e-22)
(0.731583 0.166599 -1.60549e-22)
(0.752644 0.249074 -1.25384e-21)
(0.775793 0.31158 1.29431e-21)
(0.796287 0.357908 -2.01622e-22)
(0.810526 0.393118 5.7183e-22)
(0.816916 0.419411 -2.98935e-22)
(0.815668 0.434259 -2.17588e-22)
(0.808075 0.431718 -3.51038e-22)
(0.796126 0.404837 -5.36446e-22)
(0.78232 0.34886 1.78307e-21)
(0.76968 0.262983 -2.15663e-24)
(0.760921 0.152883 -1.4447e-21)
(0.758141 0.0294686 -3.84719e-22)
(0.761875 -0.0918563 8.52023e-22)
(0.771061 -0.197391 1.53139e-22)
(0.782732 -0.277606 1.14227e-21)
(0.79244 -0.331574 7.97221e-23)
(0.79642 -0.363 1.42822e-21)
(0.792328 -0.376402 -1.34815e-21)
(0.781589 -0.372907 7.44636e-22)
(0.766375 -0.348251 1.29008e-22)
(0.750971 -0.300756 1.05938e-22)
(0.73775 -0.226464 -4.73664e-22)
(0.730432 -0.134501 3.1856e-23)
(0.729865 -0.0273525 -2.03967e-22)
(0.736803 0.0759089 -7.56848e-23)
(0.7474 0.174111 -7.43268e-22)
(0.75882 0.251704 2.86067e-22)
(0.766177 0.312331 3.90708e-23)
(0.769462 0.348187 3.13562e-23)
(0.767108 0.353804 -3.0436e-22)
(0.761533 0.3353 -2.3145e-22)
(0.753357 0.269696 3.30061e-22)
(0.746557 0.195674 -2.80633e-23)
(0.743198 0.0717906 -7.99685e-22)
(0.745855 -0.0226866 4.21387e-22)
(0.74951 -0.144354 2.25186e-22)
(0.754515 -0.213688 -7.14134e-22)
(0.75103 -0.272992 2.5433e-22)
(0.747321 -0.310052 -2.14689e-22)
(0.737371 -0.261859 -8.56913e-23)
(0.730895 -0.276046 -5.02319e-23)
(0.722654 -0.0987633 2.03136e-24)
(0.840523 -0.353873 5.37928e-21)
(0.852135 -0.411955 8.66664e-23)
(0.860993 -0.44093 -4.19601e-21)
(0.865854 -0.449292 -6.29354e-22)
(0.86585 -0.446435 2.32206e-21)
(0.859793 -0.440843 -1.38031e-21)
(0.846665 -0.437195 2.08446e-21)
(0.826757 -0.433587 -1.3104e-21)
(0.802087 -0.422007 3.28062e-22)
(0.775662 -0.392622 2.47243e-21)
(0.750523 -0.338823 -3.79002e-21)
(0.729492 -0.259767 8.61939e-22)
(0.71533 -0.160275 2.41069e-21)
(0.710381 -0.0494621 -3.01886e-21)
(0.715724 0.0612396 -2.09403e-22)
(0.730531 0.161056 1.48083e-21)
(0.751947 0.243022 -1.53608e-22)
(0.775554 0.305981 1.46797e-22)
(0.796648 0.353543 1.41949e-21)
(0.811694 0.390427 3.26444e-22)
(0.819108 0.418492 -4.56023e-22)
(0.819043 0.434984 1.21119e-21)
(0.81267 0.43382 -8.57819e-22)
(0.801865 0.407919 4.04668e-23)
(0.789018 0.35239 -2.63022e-23)
(0.777057 0.266346 9.11456e-22)
(0.768578 0.155493 -1.53227e-22)
(0.765629 0.0309187 -5.1448e-22)
(0.768764 -0.0917061 -1.10156e-21)
(0.777078 -0.19826 -9.02178e-22)
(0.787826 -0.278845 2.28113e-21)
(0.796713 -0.332381 -6.21806e-22)
(0.800007 -0.362793 -3.86655e-22)
(0.795257 -0.375067 1.76977e-22)
(0.783899 -0.370798 -1.08474e-22)
(0.768083 -0.34594 4.01881e-22)
(0.752302 -0.298836 -8.76452e-22)
(0.738848 -0.225382 2.82119e-22)
(0.731517 -0.134568 4.53582e-22)
(0.730909 -0.0285683 -1.64135e-22)
(0.737872 0.0738616 -1.93613e-23)
(0.748475 0.171846 -5.81562e-23)
(0.760067 0.249833 -1.47913e-22)
(0.767828 0.311222 -2.86798e-22)
(0.771646 0.347989 1.87009e-22)
(0.769942 0.354376 3.21e-22)
(0.764762 0.336493 5.02272e-22)
(0.756985 0.271036 -6.29698e-22)
(0.750223 0.196744 6.77946e-22)
(0.747025 0.0722029 2.51202e-22)
(0.749636 -0.0229225 -6.92814e-22)
(0.753365 -0.144658 2.63836e-22)
(0.75825 -0.213798 2.41339e-22)
(0.754475 -0.272291 -3.213e-22)
(0.750048 -0.309237 2.81926e-23)
(0.739919 -0.260675 -7.87477e-23)
(0.732803 -0.275173 9.8516e-24)
(0.725378 -0.0982768 2.84848e-24)
(0.852061 -0.354674 -8.64578e-21)
(0.861918 -0.413312 8.35035e-21)
(0.868989 -0.442144 -4.85439e-21)
(0.872137 -0.449831 2.03869e-21)
(0.870652 -0.445815 -2.63162e-21)
(0.863438 -0.438647 8.50113e-22)
(0.849417 -0.433333 1.32996e-22)
(0.828728 -0.42849 2.18294e-22)
(0.803295 -0.416513 -6.72468e-22)
(0.776164 -0.387641 2.67934e-21)
(0.750472 -0.335096 -6.39502e-22)
(0.729078 -0.257835 5.96072e-23)
(0.714703 -0.160492 -3.89e-21)
(0.709662 -0.051928 5.07149e-21)
(0.715039 0.0567784 -1.1255e-21)
(0.730007 0.155222 5.82665e-22)
(0.751695 0.236705 -2.60752e-22)
(0.775693 0.300126 -3.30796e-21)
(0.797352 0.348912 2.05158e-21)
(0.813201 0.387444 -1.43677e-22)
(0.821662 0.41727 1.18434e-21)
(0.822819 0.435425 4.05156e-22)
(0.817718 0.435697 -1.9354e-21)
(0.808121 0.41087 -5.92165e-22)
(0.796299 0.35591 -8.24423e-22)
(0.785075 0.269828 1.7204e-21)
(0.776917 0.158347 -1.89941e-21)
(0.77381 0.0326948 1.34849e-22)
(0.776322 -0.0911854 1.08471e-21)
(0.783711 -0.198782 -8.81615e-22)
(0.793459 -0.279807 2.19626e-21)
(0.801458 -0.332993 -2.18777e-21)
(0.804026 -0.362451 -9.86255e-23)
(0.798605 -0.373631 -3.31286e-22)
(0.786627 -0.368619 8.2573e-22)
(0.770205 -0.343603 -1.23206e-22)
(0.754036 -0.296946 1.49195e-22)
(0.740337 -0.224378 -6.18171e-22)
(0.732984 -0.134741 1.07652e-22)
(0.732325 -0.0298922 5.31521e-22)
(0.739303 0.0717139 6.77484e-22)
(0.749909 0.169482 -1.06621e-22)
(0.761682 0.247855 -1.91798e-22)
(0.769857 0.309994 6.93862e-23)
(0.77422 0.347684 6.00452e-23)
(0.773177 0.354866 -6.23878e-22)
(0.768414 0.337656 5.21579e-22)
(0.761063 0.272381 1.41994e-22)
(0.754356 0.197857 -1.02365e-21)
(0.751324 0.0726634 6.93621e-22)
(0.75387 -0.0231159 8.00599e-22)
(0.757652 -0.14492 8.7285e-22)
(0.762406 -0.21387 2.11902e-23)
(0.758338 -0.271504 5.77311e-22)
(0.753164 -0.308366 1.00788e-22)
(0.742823 -0.259441 -4.9127e-23)
(0.73502 -0.274304 2.33528e-23)
(0.728379 -0.0978575 3.52939e-24)
(0.864143 -0.354667 -4.95083e-21)
(0.872205 -0.41402 5.70234e-21)
(0.87745 -0.442856 -6.21582e-21)
(0.878852 -0.449999 3.25666e-21)
(0.87586 -0.444947 -9.57025e-22)
(0.867488 -0.436296 -1.49137e-21)
(0.852608 -0.429361 3.15555e-21)
(0.831199 -0.423301 -7.67689e-22)
(0.805067 -0.410956 -2.03339e-22)
(0.777277 -0.382668 2.12854e-21)
(0.751058 -0.331475 2.12811e-22)
(0.729312 -0.256099 -3.27978e-21)
(0.714723 -0.160964 1.77447e-21)
(0.709565 -0.0546731 1.62443e-21)
(0.714924 0.0520364 -1.37072e-21)
(0.729978 0.149124 1.41179e-21)
(0.751857 0.23014 -7.52149e-22)
(0.776184 0.294024 -2.33157e-21)
(0.798376 0.344011 1.47802e-22)
(0.815025 0.384161 1.8845e-21)
(0.824554 0.415729 -1.82208e-23)
(0.82697 0.435564 -1.62506e-21)
(0.823193 0.437329 -4.91536e-22)
(0.814867 0.413673 1.93885e-21)
(0.804135 0.359402 1.8076e-21)
(0.793709 0.273419 1.28576e-21)
(0.785914 0.161439 3.37973e-21)
(0.782666 0.0347966 -2.14595e-21)
(0.784543 -0.0902843 -2.83848e-22)
(0.790954 -0.198943 1.24683e-21)
(0.79963 -0.280479 -1.36742e-21)
(0.806671 -0.333402 2.02983e-21)
(0.808471 -0.361972 -2.16895e-21)
(0.802362 -0.372097 2.22926e-22)
(0.78976 -0.366373 -3.6309e-22)
(0.772728 -0.341239 7.50744e-22)
(0.756157 -0.295083 -5.34198e-23)
(0.742195 -0.223449 -6.59683e-23)
(0.734809 -0.135015 -4.9774e-22)
(0.734087 -0.0313203 9.66058e-23)
(0.741075 0.0694681 -3.94562e-22)
(0.751684 0.167018 -2.07501e-22)
(0.763649 0.245768 5.30586e-22)
(0.772252 0.308643 -8.79707e-23)
(0.777174 0.347271 2.19345e-23)
(0.776809 0.35527 1.76965e-22)
(0.772487 0.338785 6.99985e-22)
(0.765595 0.273726 -2.11098e-22)
(0.758965 0.19901 2.02066e-21)
(0.756102 0.0731735 -1.09102e-21)
(0.758562 -0.0232638 4.40397e-22)
(0.762373 -0.145136 -4.30655e-22)
(0.766978 -0.213903 -3.68018e-22)
(0.762613 -0.270631 -4.19709e-23)
(0.756664 -0.307436 2.19005e-22)
(0.746079 -0.258151 3.83226e-22)
(0.737539 -0.273434 -4.25712e-24)
(0.731647 -0.0975031 2.90064e-23)
(0.876732 -0.35383 1.31641e-22)
(0.882969 -0.414064 7.61675e-21)
(0.886361 -0.443056 -1.2031e-21)
(0.885989 -0.449794 -2.30554e-21)
(0.881465 -0.443834 -1.28209e-21)
(0.871931 -0.433804 3.03112e-21)
(0.856222 -0.425302 -1.77372e-21)
(0.83415 -0.418041 4.1619e-22)
(0.807385 -0.405351 -1.52646e-22)
(0.778979 -0.377703 -3.83928e-22)
(0.752255 -0.327951 2.72717e-22)
(0.730162 -0.254544 -6.57917e-22)
(0.715354 -0.16167 -2.35907e-21)
(0.710054 -0.0576697 1.3426e-21)
(0.715342 0.0470404 1.93599e-21)
(0.730409 0.142784 -1.21508e-21)
(0.752404 0.223343 -5.6138e-22)
(0.777001 0.287682 -1.13699e-21)
(0.799694 0.338839 -8.2856e-23)
(0.817141 0.380568 5.80994e-22)
(0.827756 0.413856 3.32268e-22)
(0.831468 0.435383 2.51937e-21)
(0.829065 0.438698 -3.41281e-21)
(0.822071 0.416306 -8.71982e-22)
(0.812498 0.362849 2.09216e-23)
(0.802929 0.277104 9.92483e-22)
(0.795542 0.164761 1.30746e-21)
(0.792174 0.0372458 1.39652e-21)
(0.793411 -0.0889932 3.65632e-21)
(0.798802 -0.198729 -1.49165e-21)
(0.806334 -0.280848 -2.38791e-21)
(0.812346 -0.333598 1.71419e-21)
(0.813333 -0.361353 -1.79317e-22)
(0.806517 -0.370466 6.31767e-22)
(0.793287 -0.364059 -4.68446e-22)
(0.775636 -0.338844 7.16548e-23)
(0.758647 -0.293242 -2.75999e-22)
(0.744403 -0.222587 3.62978e-22)
(0.736967 -0.135385 -3.47958e-22)
(0.736173 -0.0328477 8.38584e-22)
(0.743168 0.0671262 -2.29292e-22)
(0.753784 0.164454 -1.60486e-22)
(0.765955 0.243569 9.23536e-23)
(0.774998 0.307165 -2.35059e-22)
(0.780498 0.346744 -1.93525e-22)
(0.780828 0.355582 -6.9294e-22)
(0.776978 0.339873 -1.15202e-21)
(0.77058 0.275067 4.11415e-22)
(0.764053 0.200202 -6.26913e-22)
(0.761366 0.0737337 -7.58994e-22)
(0.763718 -0.0233629 3.2804e-22)
(0.767529 -0.145304 -1.89738e-21)
(0.771963 -0.213896 1.28468e-25)
(0.767299 -0.26967 -3.45402e-22)
(0.760542 -0.306441 2.83923e-23)
(0.749681 -0.256801 -3.49974e-23)
(0.740352 -0.272557 -2.02318e-23)
(0.73517 -0.0972109 2.85128e-24)
(0.889783 -0.352142 2.26415e-20)
(0.894179 -0.413427 -1.37418e-20)
(0.8957 -0.442735 -1.1536e-21)
(0.893535 -0.44921 1.69146e-21)
(0.887456 -0.442481 -3.44106e-22)
(0.876754 -0.431184 -1.66419e-21)
(0.860241 -0.421177 7.90972e-22)
(0.837561 -0.412732 2.09451e-21)
(0.810222 -0.399708 -1.99376e-21)
(0.781248 -0.372747 4.69949e-22)
(0.754035 -0.324513 -1.05988e-21)
(0.731596 -0.253152 1.67928e-21)
(0.716559 -0.162589 -7.15979e-22)
(0.711088 -0.0609018 -6.24005e-22)
(0.716254 0.0418148 1.42103e-21)
(0.731265 0.136227 -2.31112e-21)
(0.753304 0.216331 2.74825e-21)
(0.778115 0.281107 -6.65898e-22)
(0.80128 0.333396 -1.2687e-21)
(0.819522 0.376658 8.71078e-22)
(0.831239 0.411638 7.3364e-22)
(0.83628 0.434867 -2.05345e-21)
(0.835299 0.439784 1.23818e-21)
(0.829699 0.418748 1.95541e-21)
(0.82135 0.366232 -2.93169e-21)
(0.8127 0.28087 -3.69367e-21)
(0.805768 0.168304 -1.33662e-21)
(0.802308 0.0400366 1.7791e-21)
(0.802904 -0.0873067 -1.31457e-21)
(0.807242 -0.198127 -4.56792e-21)
(0.813565 -0.280899 3.48246e-21)
(0.818477 -0.333571 -1.74249e-21)
(0.818602 -0.360591 -1.07545e-21)
(0.811057 -0.368737 1.7539e-21)
(0.797192 -0.361677 -5.23316e-22)
(0.778916 -0.336416 3.673e-22)
(0.76149 -0.291415 -1.07437e-22)
(0.746941 -0.221787 -5.25917e-22)
(0.739437 -0.135844 6.29521e-22)
(0.73856 -0.0344699 -9.77462e-23)
(0.745559 0.0646902 -2.30148e-22)
(0.756189 0.161789 2.44272e-22)
(0.768582 0.241257 -7.20707e-24)
(0.778083 0.305559 3.10501e-23)
(0.784179 0.346099 5.71139e-22)
(0.785228 0.355797 -2.88768e-22)
(0.781882 0.340914 5.61534e-23)
(0.776018 0.276399 -7.15256e-22)
(0.769623 0.20143 2.51773e-22)
(0.767121 0.0743454 8.8199e-22)
(0.769342 -0.0234096 3.2181e-22)
(0.773121 -0.14542 2.74492e-21)
(0.777355 -0.213847 1.02926e-21)
(0.772388 -0.26862 -4.70088e-22)
(0.764792 -0.305378 -5.90877e-22)
(0.753624 -0.255385 -8.17505e-23)
(0.743451 -0.271666 1.32122e-23)
(0.738935 -0.096978 -5.39267e-23)
(0.903246 -0.349589 7.04266e-21)
(0.905802 -0.412097 -7.41986e-21)
(0.905445 -0.441885 8.08408e-22)
(0.901474 -0.448244 6.78696e-21)
(0.893821 -0.440887 9.62736e-22)
(0.881941 -0.428447 2.24895e-21)
(0.864645 -0.417005 6.00965e-22)
(0.841406 -0.407394 -4.16365e-21)
(0.813554 -0.39404 5.04999e-22)
(0.784055 -0.367797 3.33321e-22)
(0.75637 -0.321147 1.42887e-21)
(0.73358 -0.251904 -2.06483e-21)
(0.718297 -0.1637 2.7191e-21)
(0.712627 -0.0643466 -4.51004e-22)
(0.717622 0.0363844 -1.32858e-22)
(0.732511 0.129474 1.81222e-22)
(0.754527 0.209121 -2.72979e-22)
(0.7795 0.274308 1.22545e-21)
(0.803108 0.327681 -1.52154e-21)
(0.822138 0.372425 7.83959e-22)
(0.834973 0.409065 3.86153e-22)
(0.841373 0.434 5.55792e-22)
(0.84186 0.440567 -2.92009e-22)
(0.837712 0.42098 -2.55804e-21)
(0.830652 0.369531 -1.33348e-21)
(0.822982 0.284699 3.55986e-21)
(0.816555 0.172059 3.54861e-21)
(0.813034 0.0431553 -2.39348e-21)
(0.812997 -0.0852215 2.12539e-21)
(0.816258 -0.197128 9.91896e-22)
(0.821313 -0.280619 -4.92288e-22)
(0.825054 -0.333313 -6.55537e-22)
(0.824267 -0.359681 2.3006e-21)
(0.815969 -0.366911 -1.39762e-22)
(0.801462 -0.359227 -3.86633e-22)
(0.782552 -0.333952 -3.28546e-22)
(0.764669 -0.289598 6.95367e-22)
(0.749788 -0.22104 -5.31044e-22)
(0.742196 -0.136386 4.11858e-23)
(0.741225 -0.0361832 2.68551e-22)
(0.748228 0.0621615 -7.51114e-23)
(0.758881 0.159022 1.39319e-22)
(0.771514 0.238827 1.87291e-23)
(0.781489 0.303819 3.43711e-23)
(0.788203 0.345332 3.97643e-22)
(0.789997 0.35591 -7.56146e-22)
(0.787193 0.3419 -1.12189e-23)
(0.781908 0.277714 3.06455e-21)
(0.775678 0.20269 -3.32962e-21)
(0.773371 0.0750109 -3.85266e-22)
(0.775437 -0.0233997 -3.22073e-22)
(0.779148 -0.14548 1.90473e-22)
(0.783146 -0.213755 -7.96107e-22)
(0.777874 -0.267481 -5.46779e-22)
(0.769406 -0.304241 2.16416e-22)
(0.757901 -0.253899 -2.04607e-22)
(0.746829 -0.270755 -5.58113e-23)
(0.742932 -0.096801 4.76101e-23)
(0.917066 -0.346159 1.67712e-20)
(0.917799 -0.41006 -2.00529e-20)
(0.915569 -0.440499 7.48768e-21)
(0.909788 -0.446892 9.13553e-21)
(0.900546 -0.439053 -5.9276e-21)
(0.887476 -0.425599 -4.52938e-22)
(0.869414 -0.412804 -2.64531e-22)
(0.845662 -0.402046 3.13074e-21)
(0.817353 -0.388358 -1.03123e-21)
(0.787373 -0.362853 -1.20008e-21)
(0.759232 -0.317841 -2.48277e-23)
(0.736081 -0.25078 1.22958e-21)
(0.720532 -0.164981 -2.35033e-21)
(0.71463 -0.0679716 2.7094e-21)
(0.719407 0.0307749 5.05598e-22)
(0.734113 0.122547 -2.71397e-21)
(0.756042 0.201727 3.47283e-22)
(0.781127 0.267292 1.90571e-23)
(0.80515 0.321695 1.66519e-22)
(0.824961 0.367865 -6.0503e-23)
(0.838923 0.406126 -9.87858e-22)
(0.84671 0.432767 2.72733e-21)
(0.848708 0.44103 -3.13335e-21)
(0.846069 0.422981 4.33661e-21)
(0.84036 0.372725 -2.54637e-21)
(0.833731 0.288575 1.10794e-21)
(0.82786 0.176014 -2.08559e-21)
(0.824313 0.0465912 1.77238e-21)
(0.823662 -0.0827365 -8.79095e-22)
(0.825831 -0.195721 5.27621e-22)
(0.829566 -0.279994 -3.10146e-21)
(0.832065 -0.33281 -5.57018e-22)
(0.830314 -0.358619 -3.2058e-22)
(0.82124 -0.364987 4.11172e-22)
(0.806081 -0.35671 6.15456e-23)
(0.786528 -0.331448 8.41926e-23)
(0.768169 -0.287782 -4.66381e-22)
(0.752926 -0.220339 -7.75177e-23)
(0.745222 -0.137004 -3.92592e-22)
(0.744146 -0.0379838 4.432e-24)
(0.751154 0.0595415 6.16024e-23)
(0.76184 0.156151 2.06272e-22)
(0.774732 0.236278 -1.9023e-22)
(0.785201 0.301942 -1.90394e-22)
(0.792556 0.344437 -3.39064e-22)
(0.795123 0.355914 6.72942e-23)
(0.792902 0.342824 1.94569e-21)
(0.788245 0.279007 -2.23009e-21)
(0.782217 0.203978 2.72569e-21)
(0.780118 0.0757317 3.23622e-21)
(0.782004 -0.0233289 -1.57202e-22)
(0.785608 -0.14548 -1.8578e-21)
(0.789329 -0.213616 -3.79324e-23)
(0.78375 -0.266249 1.21393e-21)
(0.774375 -0.303025 -3.10495e-22)
(0.762505 -0.252337 3.26868e-22)
(0.750478 -0.269816 2.4594e-23)
(0.747147 -0.0966763 -3.69376e-23)
(0.931185 -0.341844 1.83579e-20)
(0.930129 -0.407309 1.37552e-21)
(0.926041 -0.438571 -6.15903e-21)
(0.918456 -0.445149 4.88875e-22)
(0.907615 -0.436976 -1.84421e-21)
(0.893343 -0.422649 9.13704e-21)
(0.874526 -0.408588 -5.39455e-21)
(0.850302 -0.396706 6.44436e-22)
(0.821589 -0.382675 -2.95125e-22)
(0.791171 -0.357913 2.55675e-21)
(0.762591 -0.314581 8.39879e-22)
(0.739069 -0.249759 -4.79259e-21)
(0.723227 -0.166406 7.4279e-22)
(0.717059 -0.0717535 -5.75412e-22)
(0.721571 0.0250099 3.41543e-22)
(0.736035 0.115467 2.76555e-22)
(0.757819 0.194166 6.97074e-22)
(0.782969 0.260069 9.87029e-22)
(0.807378 0.315442 -1.71183e-21)
(0.827961 0.362973 1.61004e-21)
(0.843057 0.402814 1.26259e-23)
(0.852253 0.431154 1.4225e-21)
(0.855802 0.441154 2.19737e-21)
(0.854724 0.424729 -1.49244e-21)
(0.850428 0.375795 -3.76787e-21)
(0.844899 0.292479 5.71147e-21)
(0.839636 0.180155 -1.80296e-22)
(0.836104 0.0503449 -2.72926e-22)
(0.834864 -0.0798516 -7.04177e-21)
(0.835937 -0.193901 5.78748e-21)
(0.838308 -0.279014 1.20033e-21)
(0.839498 -0.332054 1.54124e-21)
(0.836729 -0.3574 -2.63509e-21)
(0.826854 -0.362965 -4.5858e-22)
(0.811033 -0.354123 -6.27186e-22)
(0.790828 -0.3289 5.35738e-23)
(0.771972 -0.285961 4.50366e-23)
(0.756338 -0.219676 -2.01628e-22)
(0.748495 -0.137691 3.72e-22)
(0.7473 -0.0398675 -2.42522e-22)
(0.754316 0.0568316 1.429e-23)
(0.765047 0.153176 -1.45046e-22)
(0.778219 0.233607 2.89231e-22)
(0.789201 0.299924 1.44971e-22)
(0.797222 0.34341 -3.58104e-22)
(0.800595 0.355802 4.91211e-22)
(0.799 0.343677 -2.0581e-21)
(0.795021 0.28027 8.6872e-22)
(0.789236 0.205289 2.44918e-24)
(0.787362 0.0765084 -4.82436e-22)
(0.789043 -0.0231926 3.98236e-22)
(0.7925 -0.145413 1.67412e-21)
(0.795894 -0.213427 -1.41751e-21)
(0.790007 -0.264925 4.85434e-22)
(0.779688 -0.301728 7.95395e-22)
(0.767429 -0.250695 1.10195e-22)
(0.754389 -0.268842 3.14828e-23)
(0.751569 -0.0966001 4.33626e-23)
(0.945541 -0.336642 2.15944e-20)
(0.942748 -0.403835 -2.34774e-20)
(0.936828 -0.436094 1.1764e-20)
(0.927455 -0.443012 -1.26658e-20)
(0.915011 -0.434656 1.61821e-21)
(0.899523 -0.419599 8.94603e-21)
(0.879957 -0.404371 -1.76133e-21)
(0.855299 -0.391392 -4.12805e-21)
(0.826233 -0.377002 -1.52959e-21)
(0.795419 -0.352976 2.29618e-21)
(0.766416 -0.311352 -1.70649e-21)
(0.74251 -0.248819 -7.03275e-22)
(0.726347 -0.167949 1.50222e-21)
(0.719877 -0.0756699 9.48359e-22)
(0.724078 0.0191127 -1.01918e-21)
(0.738246 0.108255 -3.88637e-22)
(0.759827 0.186453 -8.95446e-22)
(0.784998 0.252647 2.5514e-21)
(0.809763 0.308923 -3.47364e-21)
(0.831105 0.357748 2.03415e-21)
(0.847339 0.399121 -1.20161e-21)
(0.857963 0.429151 -1.25772e-21)
(0.863098 0.440923 3.73662e-22)
(0.863631 0.426206 4.0783e-22)
(0.860806 0.378719 -3.35119e-22)
(0.856435 0.296394 -7.38947e-22)
(0.851832 0.184467 -2.80922e-21)
(0.848361 0.0544161 1.62145e-21)
(0.846564 -0.0765689 6.31312e-22)
(0.846547 -0.191661 3.28069e-21)
(0.847521 -0.277665 -8.74183e-22)
(0.847339 -0.331032 -4.05903e-22)
(0.843497 -0.356017 2.23259e-21)
(0.832795 -0.360842 -5.36703e-22)
(0.816302 -0.351466 2.56595e-22)
(0.795435 -0.326306 1.04534e-21)
(0.776062 -0.284127 -5.7753e-22)
(0.760007 -0.21904 3.66312e-22)
(0.751996 -0.138439 -3.7938e-23)
(0.750667 -0.0418277 -6.65744e-23)
(0.757693 0.0540335 -2.37092e-23)
(0.768482 0.150096 -4.66027e-23)
(0.781956 0.230811 -3.75127e-22)
(0.79347 0.297762 -9.11907e-23)
(0.802184 0.342245 -2.88623e-22)
(0.806396 0.355567 -3.99465e-22)
(0.805475 0.344451 1.23361e-22)
(0.802228 0.281495 1.68814e-21)
(0.796729 0.206619 -2.86664e-21)
(0.795099 0.0773399 -3.8371e-22)
(0.796554 -0.0229867 -1.27303e-21)
(0.79982 -0.145273 -1.33701e-21)
(0.80283 -0.213186 2.4924e-21)
(0.796635 -0.263506 3.78129e-22)
(0.785334 -0.300344 -5.13908e-23)
(0.772664 -0.248968 -3.82506e-22)
(0.758554 -0.267826 -4.82836e-23)
(0.756185 -0.096568 -1.36251e-22)
(0.960067 -0.330555 -1.71108e-22)
(0.955607 -0.399633 -3.71787e-22)
(0.947897 -0.433065 -8.0121e-21)
(0.936759 -0.440479 -2.11594e-22)
(0.922715 -0.432087 9.492e-22)
(0.905997 -0.416451 3.30472e-21)
(0.885684 -0.400164 -1.84357e-21)
(0.860625 -0.38612 1.01754e-21)
(0.831254 -0.371351 -1.82138e-21)
(0.800085 -0.348043 -1.26069e-21)
(0.770676 -0.308142 -4.74888e-22)
(0.746376 -0.247937 -1.31654e-21)
(0.729861 -0.169587 1.60586e-22)
(0.723047 -0.0796945 7.32787e-22)
(0.726892 0.0131073 -1.40932e-21)
(0.740712 0.100932 2.63781e-21)
(0.76204 0.178603 3.18022e-22)
(0.787187 0.245038 -1.41029e-21)
(0.812279 0.302146 5.15194e-22)
(0.834364 0.352191 1.84517e-21)