/*--------------------------------*- C++ -*----------------------------------*\
  =========                 |
  \\      /  F ield         | OpenFOAM: The Open Source CFD Toolbox
   \\    /   O peration     | Website:  https://openfoam.org
    \\  /    A nd           | Version:  7
     \\/     M anipulation  |
\*---------------------------------------------------------------------------*/
FoamFile
{
    version     2.0;
    format      ascii;
    class       volScalarField;
    location    "110";
    object      p;
}
// * * * * * * * * * * * * * * * * * * * * * * * * * * * * * * * * * * * * * //

dimensions      [0 2 -2 0 0 0 0];

internalField   nonuniform List<scalar> 
31800
(
-0.339011
-0.34127
-0.342406
-0.343231
-0.343885
-0.344422
-0.344914
-0.345402
-0.34591
-0.346442
-0.346994
-0.347555
-0.348114
-0.348668
-0.349229
-0.349827
-0.350524
-0.351416
-0.352652
-0.354431
-0.357008
-0.360693
-0.365829
-0.37265
-0.381391
-0.335975
-0.338078
-0.339106
-0.339813
-0.340328
-0.3407
-0.340998
-0.341266
-0.341529
-0.341798
-0.342074
-0.342357
-0.342651
-0.342975
-0.343366
-0.343891
-0.344655
-0.345806
-0.347547
-0.350138
-0.353886
-0.359139
-0.36626
-0.375467
-0.386876
-0.333154
-0.335079
-0.335991
-0.336577
-0.336953
-0.337162
-0.337273
-0.337328
-0.337357
-0.337374
-0.337388
-0.337409
-0.337456
-0.337567
-0.337804
-0.338268
-0.339102
-0.340499
-0.342713
-0.34605
-0.350862
-0.35752
-0.366394
-0.377684
-0.391285
-0.330534
-0.332266
-0.333056
-0.333519
-0.333756
-0.333807
-0.333735
-0.333585
-0.333388
-0.333164
-0.332929
-0.332703
-0.332519
-0.332431
-0.332527
-0.332937
-0.333837
-0.335461
-0.338103
-0.342109
-0.347861
-0.355745
-0.36612
-0.379189
-0.394515
-0.3281
-0.329629
-0.330293
-0.330632
-0.330731
-0.330626
-0.330377
-0.330029
-0.329615
-0.32916
-0.328687
-0.328227
-0.327823
-0.327549
-0.327513
-0.327869
-0.328825
-0.330649
-0.333666
-0.338252
-0.344812
-0.353734
-0.365348
-0.379871
-0.396506
-0.325834
-0.327155
-0.327691
-0.327907
-0.32787
-0.327614
-0.327192
-0.326651
-0.326026
-0.325348
-0.324647
-0.323962
-0.323349
-0.322897
-0.322732
-0.323031
-0.324029
-0.326017
-0.329349
-0.334421
-0.341648
-0.351417
-0.364008
-0.379709
-0.397201
-0.323718
-0.324831
-0.325242
-0.325335
-0.325165
-0.324761
-0.324171
-0.323441
-0.322611
-0.321715
-0.320792
-0.319889
-0.319074
-0.318448
-0.318155
-0.318391
-0.319409
-0.321524
-0.325105
-0.330564
-0.338316
-0.348747
-0.36205
-0.378677
-0.39663
-0.321735
-0.322647
-0.322934
-0.322907
-0.322608
-0.322058
-0.321303
-0.320388
-0.319355
-0.318246
-0.317105
-0.315988
-0.314975
-0.314177
-0.313753
-0.313913
-0.314928
-0.317128
-0.320894
-0.326641
-0.334777
-0.345694
-0.359454
-0.376772
-0.394847
-0.319868
-0.32059
-0.320758
-0.320616
-0.320191
-0.319498
-0.31858
-0.317481
-0.316247
-0.314925
-0.313568
-0.312239
-0.311027
-0.310056
-0.309495
-0.309567
-0.310555
-0.312798
-0.316683
-0.322625
-0.331011
-0.342255
-0.356234
-0.374027
-0.391942
-0.318103
-0.31865
-0.318706
-0.318454
-0.317906
-0.317073
-0.315992
-0.31471
-0.313275
-0.31174
-0.310165
-0.308623
-0.307211
-0.306063
-0.305358
-0.305328
-0.306263
-0.308509
-0.312451
-0.318503
-0.327016
-0.338451
-0.352435
-0.370513
-0.388035
-0.316425
-0.316818
-0.316772
-0.316415
-0.315748
-0.314776
-0.313534
-0.312067
-0.310429
-0.308678
-0.306883
-0.305125
-0.30351
-0.302179
-0.301321
-0.301174
-0.302033
-0.304246
-0.308192
-0.314282
-0.322814
-0.334328
-0.348132
-0.366343
-0.383279
-0.314826
-0.315088
-0.31495
-0.314494
-0.313712
-0.312603
-0.3112
-0.309547
-0.307702
-0.305733
-0.303713
-0.301733
-0.29991
-0.298391
-0.297371
-0.297094
-0.297858
-0.300007
-0.303913
-0.309982
-0.318444
-0.329953
-0.343427
-0.361659
-0.377839
-0.313298
-0.313455
-0.313237
-0.31269
-0.311796
-0.310552
-0.308987
-0.307146
-0.305092
-0.302898
-0.300649
-0.298443
-0.296406
-0.294693
-0.293503
-0.293086
-0.293739
-0.295802
-0.299632
-0.30564
-0.313963
-0.325413
-0.338436
-0.356628
-0.371884
-0.311838
-0.311919
-0.311633
-0.311001
-0.31
-0.308622
-0.306894
-0.304862
-0.302596
-0.300174
-0.297691
-0.295255
-0.292999
-0.291087
-0.289723
-0.289159
-0.28969
-0.291653
-0.295385
-0.301305
-0.309442
-0.320804
-0.333287
-0.351416
-0.365579
-0.310448
-0.310481
-0.310139
-0.30943
-0.308326
-0.306815
-0.304923
-0.3027
-0.300218
-0.297565
-0.294845
-0.292175
-0.289697
-0.287584
-0.286045
-0.285331
-0.285737
-0.287594
-0.291218
-0.29704
-0.304966
-0.316229
-0.328108
-0.34617
-0.359073
-0.309131
-0.309146
-0.308759
-0.30798
-0.306776
-0.305134
-0.303079
-0.300663
-0.297965
-0.29508
-0.292121
-0.289217
-0.286519
-0.284205
-0.282492
-0.281633
-0.281917
-0.283671
-0.287189
-0.292914
-0.300623
-0.311781
-0.323022
-0.340987
-0.352501
-0.307898
-0.30792
-0.307501
-0.306657
-0.305357
-0.303585
-0.301368
-0.298761
-0.295847
-0.292732
-0.289537
-0.286401
-0.283486
-0.280979
-0.2791
-0.278104
-0.278278
-0.279942
-0.283365
-0.289002
-0.2965
-0.307538
-0.318135
-0.335893
-0.345964
-0.306761
-0.306815
-0.306372
-0.30547
-0.304076
-0.302176
-0.299799
-0.297004
-0.293879
-0.290538
-0.287113
-0.283755
-0.280632
-0.277943
-0.275911
-0.274794
-0.274875
-0.276467
-0.279814
-0.285375
-0.292678
-0.303547
-0.313521
-0.330839
-0.339512
-0.305738
-0.305844
-0.305385
-0.304428
-0.302943
-0.300919
-0.298385
-0.295406
-0.292078
-0.288521
-0.284877
-0.281308
-0.277993
-0.275138
-0.272973
-0.271756
-0.271768
-0.273311
-0.276603
-0.282093
-0.289212
-0.299823
-0.309205
-0.325719
-0.33309
-0.304848
-0.305022
-0.304553
-0.303543
-0.30197
-0.299824
-0.297139
-0.293985
-0.290464
-0.286704
-0.282857
-0.279095
-0.275609
-0.272611
-0.270338
-0.269048
-0.269015
-0.270532
-0.273786
-0.279195
-0.286125
-0.296341
-0.305146
-0.320419
-0.326572
-0.304117
-0.304367
-0.30389
-0.302829
-0.30117
-0.298906
-0.296078
-0.29276
-0.289059
-0.285114
-0.281086
-0.277155
-0.273523
-0.27041
-0.268056
-0.266721
-0.266669
-0.268175
-0.271395
-0.276691
-0.283395
-0.293043
-0.301231
-0.31485
-0.31982
-0.303571
-0.3039
-0.303414
-0.302302
-0.300559
-0.298181
-0.295219
-0.291749
-0.287888
-0.28378
-0.279594
-0.275523
-0.271775
-0.268577
-0.266172
-0.264818
-0.264765
-0.266264
-0.269434
-0.274554
-0.280951
-0.28984
-0.2973
-0.308974
-0.312775
-0.303237
-0.30364
-0.303142
-0.301977
-0.300153
-0.297665
-0.29458
-0.290975
-0.286974
-0.282727
-0.278414
-0.274232
-0.270399
-0.267147
-0.26472
-0.263365
-0.263319
-0.264794
-0.267869
-0.27272
-0.278684
-0.286626
-0.293188
-0.302785
-0.305396
-0.303145
-0.303608
-0.303091
-0.301871
-0.29997
-0.297371
-0.294179
-0.290457
-0.286338
-0.28198
-0.277569
-0.273309
-0.269423
-0.266144
-0.263714
-0.262368
-0.262317
-0.263728
-0.266632
-0.271089
-0.276463
-0.283286
-0.288768
-0.296298
-0.297693
-0.303322
-0.303825
-0.303279
-0.301997
-0.300011
-0.297328
-0.294033
-0.290212
-0.285999
-0.281558
-0.277078
-0.27277
-0.268858
-0.265575
-0.263153
-0.261808
-0.26172
-0.263
-0.265626
-0.269544
-0.27416
-0.279719
-0.283977
-0.289546
-0.289723
-0.303793
-0.304309
-0.303722
-0.302371
-0.300302
-0.297537
-0.294153
-0.290252
-0.285968
-0.281471
-0.276951
-0.272621
-0.268704
-0.265428
-0.26301
-0.261641
-0.261459
-0.262516
-0.264738
-0.267961
-0.271664
-0.275848
-0.278815
-0.282575
-0.28158
-0.30458
-0.305076
-0.304432
-0.303005
-0.300853
-0.298007
-0.294549
-0.290584
-0.286252
-0.28172
-0.277183
-0.272851
-0.268942
-0.265671
-0.263238
-0.261798
-0.261446
-0.262171
-0.263851
-0.266234
-0.268893
-0.271629
-0.273311
-0.275422
-0.273388
-0.305703
-0.30614
-0.305421
-0.303908
-0.301669
-0.298745
-0.295222
-0.291209
-0.286845
-0.282299
-0.277762
-0.273438
-0.269538
-0.266259
-0.263773
-0.262199
-0.261583
-0.261856
-0.262861
-0.264283
-0.265804
-0.267059
-0.267496
-0.268027
-0.265195
-0.307173
-0.307511
-0.306696
-0.305084
-0.302753
-0.299752
-0.296171
-0.292119
-0.287737
-0.28319
-0.278661
-0.274348
-0.270444
-0.267128
-0.264538
-0.262752
-0.261769
-0.261473
-0.261684
-0.262063
-0.262391
-0.262189
-0.261406
-0.260227
-0.256903
-0.309
-0.309194
-0.308262
-0.306536
-0.304104
-0.301024
-0.297386
-0.293303
-0.288909
-0.284366
-0.279847
-0.275536
-0.271606
-0.26821
-0.26545
-0.263364
-0.261909
-0.260937
-0.260263
-0.259559
-0.258685
-0.257123
-0.255139
-0.252036
-0.248264
-0.311186
-0.311192
-0.310121
-0.30826
-0.305718
-0.302552
-0.298857
-0.294742
-0.290339
-0.285797
-0.28128
-0.276952
-0.272963
-0.269432
-0.266428
-0.263949
-0.261922
-0.260188
-0.258571
-0.256782
-0.25474
-0.251962
-0.248844
-0.244137
-0.23921
-0.313731
-0.313506
-0.312266
-0.31026
-0.307589
-0.304327
-0.300568
-0.296417
-0.291999
-0.287452
-0.28292
-0.278546
-0.274452
-0.270723
-0.267393
-0.26443
-0.261745
-0.259185
-0.256601
-0.253758
-0.250621
-0.246774
-0.24259
-0.236867
-0.231144
-0.31663
-0.316132
-0.314701
-0.312525
-0.30971
-0.306339
-0.302505
-0.29831
-0.293867
-0.289298
-0.284727
-0.280269
-0.276014
-0.272015
-0.268275
-0.264744
-0.261332
-0.25791
-0.254366
-0.250527
-0.24639
-0.241608
-0.23653
-0.230067
-0.223694
-0.319877
-0.319068
-0.317421
-0.315052
-0.312074
-0.308578
-0.304657
-0.300404
-0.29592
-0.291307
-0.286664
-0.282074
-0.277595
-0.273248
-0.269016
-0.264844
-0.260657
-0.256361
-0.251891
-0.247129
-0.242098
-0.236511
-0.23069
-0.223662
-0.216902
-0.323467
-0.32231
-0.320422
-0.317838
-0.314676
-0.311038
-0.307013
-0.302685
-0.298139
-0.293453
-0.288696
-0.283917
-0.279142
-0.274368
-0.269567
-0.264696
-0.259707
-0.254551
-0.249207
-0.243604
-0.237784
-0.231507
-0.225071
-0.217608
-0.210541
-0.327391
-0.325856
-0.323702
-0.320881
-0.317515
-0.313716
-0.309569
-0.305147
-0.300513
-0.295717
-0.290794
-0.28576
-0.280612
-0.275331
-0.269894
-0.264282
-0.258485
-0.252501
-0.246345
-0.239986
-0.233474
-0.226606
-0.219658
-0.211842
-0.204535
-0.331646
-0.329704
-0.327262
-0.324182
-0.320593
-0.316615
-0.312326
-0.307786
-0.30303
-0.298079
-0.29293
-0.287566
-0.281963
-0.2761
-0.269973
-0.263595
-0.257003
-0.250234
-0.243335
-0.236302
-0.229183
-0.221809
-0.214426
-0.20632
-0.198806
-0.336228
-0.333853
-0.331104
-0.327746
-0.323914
-0.319738
-0.315288
-0.3106
-0.305684
-0.300522
-0.295075
-0.2893
-0.283161
-0.276649
-0.26979
-0.262641
-0.255279
-0.247778
-0.240204
-0.23257
-0.224919
-0.217107
-0.209351
-0.201001
-0.193303
-0.341137
-0.338306
-0.335231
-0.331578
-0.327488
-0.323096
-0.318459
-0.313592
-0.308467
-0.303028
-0.297204
-0.290931
-0.284178
-0.27696
-0.269343
-0.26143
-0.253334
-0.245156
-0.236971
-0.228801
-0.220683
-0.212489
-0.204409
-0.19585
-0.187987
-0.346373
-0.343065
-0.33965
-0.335687
-0.331323
-0.326697
-0.321848
-0.31676
-0.311368
-0.305577
-0.299288
-0.29243
-0.28499
-0.277021
-0.268635
-0.259977
-0.251189
-0.242387
-0.233651
-0.225003
-0.21647
-0.207941
-0.199576
-0.190837
-0.182824
-0.351939
-0.348133
-0.344365
-0.340083
-0.335431
-0.330552
-0.325459
-0.320102
-0.314374
-0.308146
-0.301299
-0.293771
-0.28558
-0.276828
-0.267674
-0.258298
-0.248862
-0.239488
-0.230253
-0.221177
-0.212274
-0.203447
-0.194829
-0.185935
-0.177786
-0.357836
-0.353515
-0.349384
-0.344772
-0.339821
-0.334666
-0.329293
-0.323608
-0.317466
-0.310706
-0.303207
-0.294929
-0.285936
-0.276382
-0.266471
-0.25641
-0.246369
-0.236471
-0.226782
-0.21732
-0.208084
-0.198993
-0.190149
-0.18112
-0.172849
-0.364064
-0.359211
-0.354711
-0.349763
-0.3445
-0.339044
-0.333344
-0.327264
-0.320619
-0.313229
-0.304983
-0.295883
-0.286048
-0.275687
-0.265038
-0.254325
-0.243723
-0.233342
-0.22324
-0.213426
-0.203891
-0.194562
-0.185517
-0.176371
-0.167989
-0.370622
-0.365222
-0.360348
-0.355058
-0.349469
-0.343682
-0.337602
-0.331048
-0.323802
-0.31568
-0.306599
-0.296616
-0.285912
-0.274746
-0.263384
-0.252056
-0.24093
-0.230105
-0.219624
-0.209489
-0.199683
-0.19014
-0.180914
-0.171668
-0.163188
-0.377504
-0.371544
-0.366294
-0.360657
-0.354724
-0.348568
-0.342046
-0.334929
-0.326979
-0.318023
-0.308026
-0.297111
-0.285524
-0.273565
-0.261517
-0.24961
-0.237995
-0.226758
-0.215929
-0.205501
-0.195448
-0.185712
-0.176325
-0.166995
-0.158426
-0.384699
-0.378168
-0.372541
-0.366552
-0.360255
-0.353686
-0.346647
-0.338871
-0.330108
-0.32022
-0.309237
-0.297355
-0.284881
-0.272147
-0.259444
-0.24699
-0.234919
-0.2233
-0.212149
-0.201451
-0.191174
-0.181264
-0.171734
-0.162334
-0.153687
-0.392191
-0.385082
-0.379078
-0.372731
-0.366044
-0.359007
-0.351368
-0.342827
-0.333145
-0.322235
-0.310206
-0.297335
-0.28398
-0.270495
-0.257167
-0.244197
-0.231699
-0.219724
-0.208275
-0.197329
-0.186848
-0.176783
-0.167127
-0.157671
-0.148957
-0.399957
-0.392265
-0.385887
-0.379172
-0.372063
-0.364495
-0.356163
-0.346748
-0.336041
-0.324028
-0.31091
-0.29704
-0.282817
-0.268607
-0.254685
-0.241229
-0.228331
-0.216023
-0.204298
-0.193124
-0.18246
-0.172256
-0.162491
-0.152992
-0.14422
-0.407966
-0.399691
-0.392942
-0.385847
-0.378276
-0.370105
-0.360979
-0.350578
-0.338746
-0.325563
-0.311326
-0.296456
-0.281387
-0.266482
-0.251995
-0.23808
-0.224806
-0.212189
-0.200208
-0.188827
-0.177997
-0.16767
-0.157812
-0.148283
-0.139466
-0.416179
-0.407327
-0.40021
-0.392719
-0.384637
-0.37578
-0.365754
-0.354257
-0.341211
-0.326804
-0.311431
-0.295573
-0.279683
-0.264112
-0.249091
-0.234743
-0.221118
-0.208212
-0.195995
-0.184425
-0.173448
-0.163015
-0.15308
-0.143534
-0.13468
-0.424552
-0.415131
-0.407649
-0.399741
-0.391094
-0.38146
-0.370422
-0.357723
-0.343386
-0.327716
-0.311202
-0.294376
-0.277696
-0.261491
-0.245964
-0.23121
-0.217254
-0.204081
-0.191649
-0.179908
-0.168801
-0.158278
-0.148283
-0.138733
-0.129853
-0.433029
-0.423055
-0.41521
-0.406859
-0.397581
-0.387073
-0.374913
-0.360915
-0.345222
-0.328266
-0.31062
-0.292852
-0.275414
-0.258608
-0.242604
-0.227468
-0.213206
-0.199786
-0.187158
-0.175265
-0.164047
-0.15345
-0.14341
-0.133868
-0.124974
-0.441549
-0.431041
-0.422833
-0.414007
-0.404027
-0.392544
-0.379153
-0.363768
-0.346672
-0.32842
-0.309662
-0.290985
-0.272825
-0.255452
-0.238999
-0.223508
-0.208961
-0.195315
-0.182511
-0.170486
-0.159175
-0.148521
-0.138453
-0.128932
-0.120034
-0.450042
-0.439024
-0.430454
-0.421115
-0.410355
-0.397791
-0.383067
-0.366221
-0.347689
-0.328147
-0.308306
-0.288759
-0.269916
-0.252009
-0.235137
-0.219315
-0.204508
-0.190658
-0.177699
-0.16556
-0.154175
-0.14348
-0.133402
-0.123914
-0.115025
-0.458431
-0.446933
-0.437997
-0.428101
-0.416477
-0.402729
-0.386578
-0.368213
-0.348231
-0.327418
-0.306531
-0.286157
-0.266671
-0.248264
-0.231004
-0.214878
-0.199834
-0.185803
-0.17271
-0.160479
-0.149039
-0.13832
-0.128249
-0.118806
-0.109939
-0.466632
-0.454687
-0.445381
-0.434879
-0.422304
-0.407271
-0.389612
-0.369687
-0.348255
-0.326203
-0.304316
-0.283161
-0.263073
-0.244204
-0.226586
-0.210184
-0.194928
-0.18074
-0.167535
-0.155232
-0.143756
-0.133032
-0.122985
-0.1136
-0.104769
-0.474555
-0.462201
-0.452516
-0.441354
-0.427741
-0.411329
-0.392095
-0.370587
-0.347723
-0.324473
-0.301637
-0.279751
-0.259106
-0.239812
-0.221869
-0.205219
-0.189779
-0.175457
-0.162164
-0.149812
-0.13832
-0.127609
-0.117604
-0.10829
-0.0995089
-0.482105
-0.469383
-0.459308
-0.44743
-0.432691
-0.414817
-0.393956
-0.37086
-0.346596
-0.322202
-0.298474
-0.27591
-0.254753
-0.235073
-0.216838
-0.199971
-0.184374
-0.169946
-0.156588
-0.144209
-0.132722
-0.122044
-0.112099
-0.10287
-0.0941533
-0.489183
-0.476135
-0.465658
-0.453004
-0.437057
-0.41765
-0.39513
-0.370458
-0.344841
-0.319363
-0.294805
-0.271618
-0.249997
-0.229971
-0.211481
-0.194429
-0.178704
-0.164196
-0.150799
-0.138416
-0.126956
-0.11633
-0.106463
-0.0973321
-0.0886975
-0.495686
-0.482357
-0.471463
-0.457973
-0.440743
-0.419744
-0.395552
-0.369336
-0.342423
-0.315931
-0.290608
-0.266857
-0.244821
-0.224492
-0.205784
-0.18858
-0.172758
-0.158199
-0.14479
-0.132427
-0.121016
-0.110462
-0.100693
-0.091673
-0.0831381
-0.501508
-0.487946
-0.476617
-0.462235
-0.443653
-0.421024
-0.395165
-0.36745
-0.339313
-0.311881
-0.285865
-0.26161
-0.239211
-0.218622
-0.199735
-0.182415
-0.166528
-0.151947
-0.138552
-0.126235
-0.114895
-0.104435
-0.0947837
-0.0858896
-0.0774747
-0.506546
-0.492797
-0.481015
-0.465685
-0.445698
-0.421415
-0.393914
-0.364764
-0.335483
-0.307193
-0.280556
-0.255859
-0.23315
-0.212348
-0.193322
-0.175923
-0.160005
-0.145433
-0.132081
-0.119835
-0.10859
-0.0982453
-0.0887306
-0.0799809
-0.0717124
-0.510694
-0.496806
-0.484553
-0.468226
-0.44679
-0.42085
-0.391751
-0.361243
-0.330907
-0.301845
-0.274663
-0.249589
-0.226625
-0.205659
-0.186536
-0.169096
-0.153182
-0.138651
-0.125371
-0.113223
-0.102096
-0.0918877
-0.0825293
-0.0739445
-0.0658537
-0.513849
-0.49987
-0.487127
-0.469761
-0.44685
-0.41927
-0.388634
-0.356857
-0.325562
-0.29582
-0.268171
-0.242786
-0.219624
-0.198542
-0.179368
-0.161927
-0.146053
-0.131596
-0.118418
-0.106394
-0.0954106
-0.0853596
-0.0761763
-0.0677727
-0.0598753
-0.515912
-0.501889
-0.48864
-0.4702
-0.445805
-0.416619
-0.384525
-0.351579
-0.319429
-0.289099
-0.261064
-0.235438
-0.212136
-0.190991
-0.171811
-0.15441
-0.138614
-0.124264
-0.111218
-0.0993468
-0.0885306
-0.0786592
-0.0696711
-0.0614575
-0.0537189
-0.516788
-0.502766
-0.488998
-0.469461
-0.443587
-0.412851
-0.379391
-0.345387
-0.312491
-0.28167
-0.253332
-0.227533
-0.204152
-0.182997
-0.163859
-0.14654
-0.13086
-0.116653
-0.10377
-0.0920794
-0.0814551
-0.0717856
-0.0630143
-0.0550021
-0.0473631
-0.516386
-0.502411
-0.488114
-0.467469
-0.44014
-0.407926
-0.373207
-0.338264
-0.304735
-0.273521
-0.244964
-0.219064
-0.195666
-0.174555
-0.155507
-0.138315
-0.12279
-0.108761
-0.0960737
-0.0845913
-0.0741843
-0.0647398
-0.0562045
-0.0484101
-0.040933
-0.514625
-0.500741
-0.485909
-0.464155
-0.435414
-0.40181
-0.365952
-0.330195
-0.296149
-0.264644
-0.235952
-0.210025
-0.186673
-0.165661
-0.146753
-0.129732
-0.114403
-0.100587
-0.088128
-0.0768837
-0.0667196
-0.0575266
-0.0492514
-0.041661
-0.0344487
-0.511431
-0.497679
-0.482312
-0.459463
-0.429369
-0.39448
-0.357611
-0.321171
-0.286726
-0.255032
-0.226293
-0.200411
-0.17717
-0.156314
-0.137597
-0.120792
-0.105698
-0.0921339
-0.0799351
-0.0689589
-0.0590642
-0.0501464
-0.0421472
-0.0347851
-0.0278696
-0.506736
-0.493158
-0.477261
-0.453345
-0.421974
-0.385917
-0.348174
-0.311187
-0.276465
-0.244684
-0.215983
-0.190222
-0.167156
-0.146514
-0.128039
-0.111497
-0.0966796
-0.0834047
-0.0714989
-0.0608181
-0.05122
-0.0426011
-0.0348958
-0.0277874
-0.0211819
-0.500485
-0.48712
-0.470706
-0.445764
-0.413205
-0.376111
-0.33764
-0.300243
-0.265364
-0.2336
-0.205026
-0.179459
-0.156633
-0.136264
-0.118081
-0.101852
-0.0873527
-0.0744003
-0.0628218
-0.0524662
-0.0431908
-0.0348943
-0.0275028
-0.0206686
-0.0143852
-0.492631
-0.479517
-0.462606
-0.436691
-0.403051
-0.365059
-0.326009
-0.288343
-0.253429
-0.221785
-0.193423
-0.168125
-0.145607
-0.125569
-0.107734
-0.0918581
-0.0777199
-0.0651279
-0.0539091
-0.0439082
-0.0349815
-0.0270308
-0.0199729
-0.0134299
-0.00748399
-0.483138
-0.470314
-0.452932
-0.426111
-0.391506
-0.352764
-0.313289
-0.275494
-0.240666
-0.209243
-0.181179
-0.156231
-0.134086
-0.114436
-0.0969995
-0.0815246
-0.0677882
-0.055594
-0.0447674
-0.0351503
-0.0265982
-0.0190163
-0.0123114
-0.00607512
-0.000483925
-0.471982
-0.459482
-0.441665
-0.414017
-0.378575
-0.339239
-0.299494
-0.261711
-0.227088
-0.195984
-0.168302
-0.14379
-0.122079
-0.102875
-0.0858876
-0.07086
-0.0575661
-0.0458064
-0.0354044
-0.0261998
-0.0180479
-0.0108575
-0.00452407
0.00139025
0.00660881
-0.45915
-0.447009
-0.428797
-0.400412
-0.364271
-0.3245
-0.284643
-0.24701
-0.212709
-0.182025
-0.154826
-0.1308
-0.109595
-0.0908959
-0.0744092
-0.0598748
-0.0470638
-0.0357747
-0.0258291
-0.0170653
-0.00933857
-0.00256193
0.00338209
0.00895952
0.0137876
-0.444639
-0.432891
-0.414333
-0.38531
-0.348615
-0.308573
-0.268759
-0.231412
-0.197549
-0.167391
-0.140745
-0.117285
-0.0966498
-0.0785127
-0.0625771
-0.0485808
-0.0362927
-0.0255094
-0.0160518
-0.00775632
-0.000479433
0.00586186
0.0113993
0.0166249
0.0210451
-0.428458
-0.417136
-0.398288
-0.368733
-0.331636
-0.291488
-0.251872
-0.214945
-0.181638
-0.152094
-0.126086
-0.103263
-0.0832603
-0.0657409
-0.0504062
-0.036992
-0.0252656
-0.0150229
-0.00608369
0.00171636
0.00851933
0.0144044
0.0195185
0.0243775
0.0283734
-0.410628
-0.399763
-0.380685
-0.350714
-0.313368
-0.273285
-0.234018
-0.197641
-0.164996
-0.13616
-0.11087
-0.0887559
-0.0694458
-0.0525986
-0.0379131
-0.0251236
-0.013997
-0.0043285
0.00406253
0.0113409
0.0176465
0.0230552
0.02773
0.0322077
0.0357638
-0.391179
-0.380802
-0.361562
-0.331294
-0.29386
-0.254003
-0.215231
-0.179532
-0.147656
-0.119618
-0.0951227
-0.0737858
-0.055228
-0.0391057
-0.025116
-0.0129928
-0.00250267
0.00655911
0.0143732
0.0211044
0.02689
0.0318028
0.036023
0.0401046
0.0432065
-0.370153
-0.360292
-0.340963
-0.31053
-0.273181
-0.233669
-0.195552
-0.160656
-0.129651
-0.102499
-0.0788734
-0.0583787
-0.0406307
-0.0252841
-0.0120352
-0.00061815
0.00920023
0.017624
0.0248335
0.030993
0.0362367
0.0406351
0.0443859
0.0480564
0.0506905
-0.347602
-0.338283
-0.318942
-0.288493
-0.251404
-0.212312
-0.175023
-0.141056
-0.111021
-0.0848367
-0.0621529
-0.042563
-0.0256799
-0.0111575
0.00130744
0.0119803
0.0210932
0.0288492
0.0354276
0.0409918
0.0456724
0.0495387
0.052806
0.0560499
0.0582037
-0.323581
-0.314836
-0.295569
-0.265231
-0.228442
-0.19012
-0.153713
-0.120779
-0.0918074
-0.0666693
-0.044995
-0.0263695
-0.0104036
0.00324824
0.0148885
0.0247811
0.0331567
0.0402165
0.0461388
0.0510853
0.0551824
0.0584996
0.0612695
0.0640699
0.0657317
-0.298158
-0.290027
-0.270932
-0.240766
-0.204498
-0.167054
-0.131674
-0.0998745
-0.0720538
-0.0480367
-0.027436
-0.00983102
0.00516807
0.0179059
0.028683
0.0377615
0.0453697
0.0517069
0.0569496
0.061257
0.0647512
0.0675032
0.0697614
0.072098
0.0732539
-0.271407
-0.263941
-0.245121
-0.215146
-0.179643
-0.143189
-0.108963
-0.0783965
-0.0518079
-0.0289814
-0.00951453
0.0070172
0.0210033
0.0327863
0.0426645
0.0508973
0.0577103
0.0633004
0.0678418
0.0714902
0.074363
0.0765344
0.0782666
0.0801148
0.0807432
-0.243406
-0.236653
-0.218049
-0.188647
-0.153944
-0.118599
-0.0856433
-0.0564009
-0.03112
-0.0095486
0.00872849
0.0241382
0.0370684
0.047859
0.0568052
0.0641633
0.0701557
0.0749762
0.0787963
0.0817674
0.0840012
0.085578
0.0867722
0.0881055
0.0881825
-0.21423
-0.208281
-0.189956
-0.16124
-0.127479
-0.093361
-0.0617796
-0.0339461
-0.0100427
0.0102142
0.0272502
0.041493
0.0533281
0.0630919
0.0710762
0.0775333
0.082682
0.0867127
0.0897938
0.0920703
0.0936479
0.0946184
0.0952684
0.0960619
0.095567
-0.183969
-0.178914
-0.160981
-0.133013
-0.100331
-0.0675536
-0.0374405
-0.0110931
0.0113692
0.0302576
0.0460059
0.0590411
0.0697457
0.0784519
0.0854472
0.0909799
0.0952645
0.0984879
0.100814
0.10238
0.103286
0.103643
0.103746
0.103952
0.102803
-0.152856
-0.14859
-0.131188
-0.104067
-0.0725868
-0.0412559
-0.012697
0.0120947
0.0330587
0.0505303
0.064949
0.0767406
0.0862831
0.0939043
0.099887
0.104475
0.107878
0.110279
0.111837
0.112678
0.112901
0.112647
0.112192
0.111664
0.109588
-0.120981
-0.117418
-0.100672
-0.0745056
-0.0443378
-0.0145496
0.0123778
0.035552
0.0549669
0.070979
0.0840317
0.094548
0.102901
0.109414
0.114363
0.117989
0.120496
0.122063
0.122841
0.122948
0.122487
0.121637
0.120586
0.119057
0.115696
-0.0883862
-0.0855606
-0.0695408
-0.0444308
-0.0156777
0.0124813
0.0377089
0.0592115
0.0770336
0.0915495
0.103205
0.112419
0.119559
0.124943
0.128844
0.131493
0.133092
0.133814
0.133805
0.133173
0.132038
0.130606
0.128894
0.126174
0.121784
-0.0551925
-0.0531408
-0.0379074
-0.0139486
0.0132975
0.0397511
0.0632196
0.0830048
0.099197
0.112186
0.122418
0.130307
0.136216
0.140456
0.143293
0.144955
0.145637
0.145509
0.144706
0.143335
0.141535
0.139513
0.137058
0.133202
0.129874
-0.0215289
-0.0202775
-0.0058883
0.0168333
0.0424906
0.0671728
0.0888323
0.106862
0.121394
0.132832
0.141619
0.148167
0.152831
0.155914
0.157679
0.158345
0.158105
0.157121
0.155522
0.153415
0.150951
0.148302
0.145102
0.140603
0.137933
0.0124769
0.0129082
0.0263984
0.0478057
0.071803
0.0946583
0.114468
0.130712
0.143562
0.153429
0.160758
0.165951
0.169359
0.171279
0.171964
0.171632
0.170466
0.168624
0.16623
0.16339
0.160261
0.156967
0.153087
0.148162
0.14556
0.0466965
0.046293
0.0588336
0.0788588
0.101136
0.122119
0.140048
0.154484
0.165635
0.17392
0.17978
0.183613
0.185759
0.186511
0.186116
0.184783
0.182691
0.179992
0.176805
0.173238
0.169441
0.165501
0.161009
0.15572
0.152917
0.0810006
0.0797519
0.0912975
0.109882
0.130389
0.149466
0.165491
0.178107
0.18755
0.194247
0.198634
0.201103
0.201988
0.201572
0.200097
0.197765
0.194751
0.191199
0.187225
0.182934
0.178469
0.173894
0.168828
0.163166
0.16002
0.115259
0.113159
0.12367
0.140766
0.159464
0.17661
0.190719
0.201508
0.209241
0.21435
0.217267
0.218375
0.218001
0.216422
0.213872
0.210548
0.206616
0.202217
0.197463
0.192455
0.187328
0.182129
0.176512
0.170455
0.166892
0.149344
0.146389
0.155833
0.171401
0.188263
0.203463
0.215653
0.224616
0.230645
0.234172
0.235626
0.235381
0.233757
0.231023
0.227406
0.223098
0.218258
0.213021
0.207495
0.201778
0.195995
0.190186
0.184031
0.177562
0.173539
0.183124
0.179316
0.187666
0.201678
0.216686
0.229937
0.240212
0.247361
0.251696
0.253655
0.253658
0.252073
0.249211
0.245335
0.240664
0.235383
0.229647
0.223584
0.217297
0.210881
0.204453
0.198044
0.19136
0.18447
0.179964
0.216473
0.211816
0.219053
0.23149
0.244638
0.255946
0.26432
0.269671
0.272332
0.272741
0.271311
0.268404
0.264322
0.25932
0.253611
0.247373
0.240755
0.23388
0.226845
0.219742
0.21268
0.205684
0.198481
0.191167
0.186162
0.249264
0.243766
0.249878
0.260732
0.272024
0.281404
0.287899
0.291478
0.292491
0.291374
0.288535
0.284328
0.279047
0.272939
0.266212
0.259036
0.251554
0.243882
0.236116
0.22834
0.220658
0.213087
0.205376
0.197639
0.192129
0.281373
0.275046
0.280028
0.2893
0.298751
0.306228
0.310875
0.312714
0.31211
0.309497
0.305279
0.299799
0.293345
0.286157
0.278434
0.270341
0.262014
0.253567
0.245086
0.236654
0.228367
0.220236
0.212029
0.203875
0.197858
0.312679
0.305538
0.309393
0.317093
0.324727
0.330336
0.333174
0.333312
0.331129
0.327058
0.321494
0.314774
0.307176
0.298935
0.290243
0.281258
0.272111
0.262908
0.253733
0.244664
0.235789
0.227114
0.218427
0.209864
0.203342
0.343064
0.335126
0.337864
0.344013
0.349866
0.353649
0.354725
0.353208
0.349491
0.344003
0.337132
0.329208
0.320501
0.311239
0.301607
0.291758
0.281816
0.271882
0.262036
0.25235
0.242905
0.233705
0.224553
0.215593
0.208572
0.372412
0.363701
0.365338
0.369966
0.37408
0.37609
0.375457
0.372339
0.367138
0.36028
0.352147
0.343059
0.333282
0.323034
0.312496
0.301813
0.291104
0.280466
0.269973
0.259693
0.2497
0.239994
0.230396
0.22105
0.213541
0.400613
0.391153
0.391714
0.39486
0.397288
0.397585
0.395305
0.390645
0.384016
0.37584
0.366493
0.356287
0.345481
0.334287
0.322878
0.311395
0.299952
0.288638
0.277525
0.266675
0.256156
0.245965
0.235941
0.226226
0.218239
0.42756
0.417381
0.416895
0.418608
0.419412
0.418062
0.414204
0.408067
0.400071
0.390635
0.380127
0.368853
0.357064
0.344966
0.332726
0.320479
0.308334
0.296376
0.284671
0.273278
0.262258
0.251605
0.241176
0.231107
0.222658
0.453152
0.442285
0.440791
0.441126
0.440375
0.437455
0.432092
0.424551
0.415255
0.404621
0.393009
0.380719
0.367996
0.355039
0.34201
0.329039
0.316228
0.303659
0.291393
0.279486
0.26799
0.2569
0.246089
0.235684
0.226791
0.477292
0.465772
0.463313
0.462334
0.460106
0.455698
0.448912
0.440043
0.429519
0.417752
0.405098
0.39185
0.378245
0.364479
0.350706
0.337051
0.323613
0.310468
0.297674
0.285282
0.273339
0.261838
0.250669
0.239947
0.23063
0.499889
0.487753
0.48438
0.482158
0.478538
0.47273
0.464608
0.454493
0.442817
0.42999
0.416359
0.402212
0.387782
0.373257
0.358787
0.344493
0.330468
0.316785
0.303498
0.290652
0.27829
0.266406
0.254903
0.243885
0.234167
0.520857
0.508147
0.503915
0.500528
0.495608
0.488496
0.47913
0.467855
0.455109
0.441294
0.426756
0.411774
0.396577
0.381348
0.366231
0.351344
0.336774
0.322592
0.308847
0.295582
0.282832
0.270593
0.258782
0.247489
0.237396
0.540117
0.526875
0.521845
0.51738
0.511257
0.502941
0.492429
0.480087
0.466353
0.451631
0.436257
0.420508
0.404605
0.388728
0.373017
0.357583
0.342514
0.327873
0.313708
0.300058
0.286953
0.274388
0.262296
0.25075
0.24031
0.557595
0.543868
0.538106
0.532652
0.525432
0.516018
0.504461
0.491146
0.476515
0.460966
0.444832
0.428384
0.41184
0.395374
0.379123
0.363194
0.347671
0.332614
0.318068
0.304068
0.290641
0.277782
0.265436
0.253661
0.242904
0.573225
0.55906
0.552636
0.546292
0.538083
0.527682
0.515187
0.500999
0.485562
0.469271
0.452455
0.43538
0.418261
0.401267
0.384532
0.36816
0.35223
0.336801
0.321914
0.307602
0.293887
0.280766
0.268194
0.256214
0.245172
0.586947
0.572395
0.565383
0.558249
0.549166
0.537893
0.524569
0.509611
0.493463
0.476518
0.4591
0.441473
0.423847
0.406388
0.389227
0.372465
0.356178
0.340421
0.325236
0.31065
0.296683
0.283332
0.270562
0.258403
0.24711
0.598708
0.58382
0.576299
0.568482
0.558642
0.546616
0.532577
0.516954
0.500192
0.482683
0.464747
0.446644
0.428581
0.410722
0.393195
0.376097
0.359502
0.343465
0.328023
0.313202
0.299019
0.285472
0.272533
0.260221
0.248712
0.608461
0.593291
0.585343
0.576951
0.566478
0.55382
0.539182
0.523002
0.505727
0.487746
0.469376
0.450875
0.432448
0.414255
0.396422
0.379044
0.362194
0.345923
0.330268
0.315252
0.30089
0.28718
0.274103
0.261664
0.249977
0.616169
0.600772
0.592479
0.583627
0.572644
0.55948
0.544362
0.527735
0.510049
0.491689
0.472972
0.454153
0.435434
0.416974
0.398897
0.381297
0.364243
0.347787
0.331963
0.316793
0.30229
0.288452
0.275266
0.262727
0.2509
0.621799
0.60623
0.597681
0.588483
0.577119
0.563575
0.548097
0.531135
0.513141
0.494498
0.475522
0.456466
0.437529
0.418871
0.400613
0.382847
0.365644
0.349051
0.333103
0.31782
0.303214
0.289283
0.276018
0.263407
0.251479
0.625328
0.609644
0.600925
0.591499
0.579883
0.566089
0.550372
0.53319
0.514992
0.496163
0.477016
0.457804
0.438726
0.419938
0.401562
0.38369
0.36639
0.34971
0.333683
0.318329
0.303658
0.28967
0.276357
0.263702
0.251713
0.626739
0.610998
0.602198
0.592663
0.580926
0.56701
0.551179
0.53389
0.515594
0.496676
0.477448
0.458162
0.439017
0.42017
0.40174
0.38382
0.366477
0.34976
0.3337
0.318317
0.30362
0.289611
0.27628
0.26361
0.251602
0.626024
0.610283
0.601491
0.591968
0.58024
0.566334
0.550511
0.53323
0.514943
0.496033
0.476814
0.457537
0.438402
0.419564
0.401145
0.383237
0.365905
0.3492
0.333152
0.317782
0.3031
0.289104