/*--------------------------------*- C++ -*----------------------------------*\
  =========                 |
  \\      /  F ield         | OpenFOAM: The Open Source CFD Toolbox
   \\    /   O peration     | Website:  https://openfoam.org
    \\  /    A nd           | Version:  7
     \\/     M anipulation  |
\*---------------------------------------------------------------------------*/
FoamFile
{
    version     2.0;
    format      ascii;
    class       volVectorField;
    location    "110";
    object      U;
}
// * * * * * * * * * * * * * * * * * * * * * * * * * * * * * * * * * * * * * //

dimensions      [0 1 -1 0 0 0 0];

internalField   nonuniform List<vector> 
31800
(
(-0.000774488 -0.00531826 -1.22922e-20)
(-0.00492165 -0.00546504 8.49532e-21)
(-0.0130914 0.00187422 -2.77211e-21)
(-0.0235063 0.0141477 1.227e-20)
(-0.0355389 0.0292102 1.36978e-20)
(-0.0487273 0.0454661 -4.48822e-21)
(-0.0626801 0.0619204 -3.25803e-21)
(-0.0770865 0.0781557 2.29069e-20)
(-0.0916768 0.094227 -2.62051e-21)
(-0.106206 0.110498 3.73502e-21)
(-0.120445 0.127468 1.2796e-20)
(-0.134182 0.145617 1.25036e-20)
(-0.14721 0.165315 -7.92074e-21)
(-0.159324 0.186769 -9.7974e-21)
(-0.1703 0.210014 -3.15155e-22)
(-0.179883 0.234904 -1.24991e-20)
(-0.187775 0.261104 9.68182e-21)
(-0.193623 0.288064 1.63807e-20)
(-0.197024 0.314981 -6.14188e-21)
(-0.197524 0.340767 2.80014e-20)
(-0.194631 0.364032 1.78093e-21)
(-0.18785 0.383101 -2.32907e-21)
(-0.176727 0.396105 5.14835e-21)
(-0.16069 0.401092 1.07509e-20)
(-0.139291 0.396168 6.87332e-21)
(-0.000644481 -0.00374956 1.26473e-20)
(-0.00460422 -0.00167682 6.76091e-21)
(-0.0124848 0.00724057 -7.3689e-21)
(-0.0225587 0.0206393 -2.81309e-20)
(-0.0341886 0.0364957 2.05509e-20)
(-0.0469066 0.0532971 -1.00326e-20)
(-0.060322 0.0700991 5.41917e-22)
(-0.0741251 0.0865118 -1.75496e-20)
(-0.0880465 0.102604 3.55955e-21)
(-0.101836 0.118747 2.39409e-21)
(-0.115254 0.135449 -5.31265e-20)
(-0.128069 0.153197 -1.03377e-21)
(-0.140052 0.172365 5.92335e-20)
(-0.150966 0.193157 -2.95281e-20)
(-0.160557 0.215597 -5.58256e-21)
(-0.168537 0.239522 1.23647e-20)
(-0.174571 0.264571 -2.58154e-20)
(-0.178272 0.290167 -1.39762e-21)
(-0.179194 0.315481 2.57126e-20)
(-0.176843 0.339405 -9.45178e-20)
(-0.170684 0.360541 -2.95364e-20)
(-0.160173 0.377216 4.55239e-20)
(-0.144821 0.387589 2.2855e-20)
(-0.124049 0.389777 4.21792e-21)
(-0.0971541 0.382056 -9.33869e-21)
(-0.00058055 -0.00229359 -2.57411e-20)
(-0.00442023 0.00183393 -8.28568e-22)
(-0.0120155 0.0122118 -3.48705e-20)
(-0.0217114 0.0266533 5.22332e-20)
(-0.0328693 0.0432497 -5.92348e-20)
(-0.0450199 0.0605644 -5.21388e-21)
(-0.0577757 0.0776962 -5.2913e-21)
(-0.0708304 0.0942742 9.49589e-21)
(-0.0839155 0.110373 3.20412e-20)
(-0.0967773 0.126367 -5.52983e-21)
(-0.109166 0.142765 -9.07168e-21)
(-0.12083 0.16006 3.42782e-20)
(-0.131515 0.17863 -6.62416e-21)
(-0.140957 0.198678 3.39936e-20)
(-0.148867 0.22022 -6.74583e-20)
(-0.154925 0.243076 -2.73591e-20)
(-0.158761 0.266866 4.71418e-21)
(-0.159952 0.290988 -9.074e-20)
(-0.158019 0.314592 2.4724e-20)
(-0.152435 0.336557 5.73343e-20)
(-0.142637 0.355477 -3.61068e-20)
(-0.128055 0.369693 -8.93699e-20)
(-0.108187 0.377392 -4.53992e-20)
(-0.0825231 0.376796 -8.80677e-20)
(-0.0499013 0.366308 -5.03145e-20)
(-0.000574658 -0.000966785 1.20844e-20)
(-0.00435634 0.00503002 -1.98998e-20)
(-0.0116759 0.016737 6.33865e-20)
(-0.0209684 0.0321292 -5.06733e-20)
(-0.0315995 0.0494044 -1.27999e-20)
(-0.0431016 0.0671946 -3.13661e-21)
(-0.0550924 0.0846342 4.0999e-20)
(-0.0672701 0.101364 2.85402e-20)
(-0.0793686 0.117455 -5.13166e-20)
(-0.0911316 0.133279 2.12206e-20)
(-0.102299 0.149341 1.97368e-21)
(-0.112604 0.166136 -9.59028e-20)
(-0.121767 0.184044 -3.17358e-20)
(-0.129492 0.203271 2.71904e-21)
(-0.135461 0.223827 2.12613e-20)
(-0.139319 0.245521 9.56061e-20)
(-0.140665 0.267955 1.0277e-20)
(-0.139044 0.290508 9.11477e-20)
(-0.133951 0.312316 9.00176e-20)
(-0.124836 0.332248 -1.13142e-20)
(-0.111125 0.348905 4.27638e-20)
(-0.0922444 0.360645 -1.61153e-20)
(-0.0677041 0.365687 5.60824e-20)
(-0.037151 0.362373 1.95538e-19)
(0.00119021 0.349203 3.23917e-20)
(-0.000617838 0.000218896 2.00738e-20)
(-0.00439743 0.00788355 -7.28891e-20)
(-0.011457 0.0207768 9.38211e-20)
(-0.0203326 0.0370178 3.45379e-20)
(-0.0303974 0.0549021 2.73636e-20)
(-0.0411873 0.0731225 2.90317e-20)
(-0.0523259 0.0908421 -1.52535e-19)
(-0.0635163 0.107705 5.59784e-20)
(-0.0744959 0.123776 5.85503e-20)
(-0.0850077 0.13941 -8.64753e-20)
(-0.0947845 0.155106 8.95091e-20)
(-0.103543 0.171358 4.92913e-20)
(-0.110981 0.188548 5.93035e-20)
(-0.116777 0.206884 -4.00966e-20)
(-0.120579 0.226375 -8.76532e-21)
(-0.122002 0.246821 1.95551e-19)
(-0.120615 0.267813 -8.52564e-20)
(-0.11594 0.288719 6.54642e-20)
(-0.10745 0.308664 -1.62401e-19)
(-0.0945873 0.32652 -6.54412e-20)
(-0.0767815 0.340899 6.48053e-20)
(-0.0534844 0.350196 1.15475e-19)
(-0.0242276 0.352658 2.02618e-20)
(0.0110665 0.346761 -1.60107e-19)
(0.0550941 0.330962 -1.16421e-19)
(-0.000700634 0.00125633 -7.81524e-20)
(-0.0045274 0.0103767 -2.47558e-20)
(-0.0113487 0.0243038 -5.58309e-20)
(-0.0198058 0.0412824 -5.38242e-20)
(-0.0292812 0.0596966 3.84335e-20)
(-0.0393133 0.0782932 -6.77523e-20)
(-0.0495316 0.0962575 -4.30542e-20)
(-0.059644 0.113232 -2.18277e-19)
(-0.0693923 0.129263 9.26288e-21)
(-0.0785206 0.144689 -1.62706e-21)
(-0.0867569 0.159993 -1.6524e-19)
(-0.0938053 0.175665 -5.53068e-20)
(-0.0993443 0.192087 -7.06368e-20)
(-0.103026 0.20947 1.34479e-19)
(-0.104471 0.227824 3.8793e-20)
(-0.103266 0.246948 -1.07314e-19)
(-0.0989562 0.266426 -1.16787e-19)
(-0.0910429 0.285621 3.11159e-20)
(-0.0789892 0.303657 1.32145e-19)
(-0.0622387 0.319417 -2.73342e-20)
(-0.0402411 0.33154 -1.78743e-20)
(-0.0125013 0.338469 -8.80224e-20)
(0.0214502 0.338473 -1.14033e-19)
(0.0612014 0.330228 9.69563e-20)
(0.110861 0.311912 6.87373e-20)
(-0.000813695 0.00214316 4.10119e-20)
(-0.00473017 0.012502 4.78969e-20)
(-0.0113405 0.0273032 -3.74007e-20)
(-0.01939 0.0448994 -7.6911e-20)
(-0.0282685 0.0637543 1.19665e-20)
(-0.037516 0.0826626 9.01158e-20)
(-0.0467659 0.100827 1.29481e-19)
(-0.0557304 0.117881 1.75023e-19)
(-0.0641562 0.133851 2.97491e-20)
(-0.0717901 0.149048 4.0685e-20)
(-0.0783584 0.163938 4.92015e-20)
(-0.0835567 0.178997 1.84113e-19)
(-0.0870476 0.194607 -1.05287e-20)
(-0.0884615 0.210984 -2.33713e-19)
(-0.0873958 0.228142 1.67169e-19)
(-0.0834133 0.245881 6.56153e-20)
(-0.0760387 0.263787 2.13409e-19)
(-0.0647616 0.281223 -8.92796e-20)
(-0.0490434 0.297324 -1.01665e-19)
(-0.0283404 0.310992 2.93754e-19)
(-0.00213165 0.320903 -1.00713e-19)
(0.0299881 0.325574 -1.59616e-19)
(0.0685672 0.323278 -4.48443e-20)
(0.112407 0.312964 -1.47558e-19)
(0.167613 0.29235 2.57973e-20)
(-0.000948234 0.00288168 1.01867e-20)
(-0.00499058 0.0142617 -1.88686e-20)
(-0.0114227 0.0297729 3.85822e-21)
(-0.019087 0.0478586 -1.37742e-19)
(-0.0273772 0.0670546 -1.07192e-19)
(-0.0358316 0.0861984 -2.03099e-20)
(-0.0440853 0.104506 -5.11664e-20)
(-0.0518536 0.1216 -9.48858e-20)
(-0.0588876 0.13748 -2.22491e-20)
(-0.064939 0.152427 -9.82219e-21)
(-0.0697353 0.166878 -9.73483e-20)
(-0.0729681 0.181297 4.11399e-20)
(-0.0742891 0.196061 3.19373e-20)
(-0.0733129 0.211389 1.69944e-19)
(-0.0696178 0.227301 -5.73068e-21)
(-0.0627489 0.243605 -1.03014e-19)
(-0.0522173 0.259893 -1.22378e-20)
(-0.037507 0.275539 4.29006e-20)
(-0.0180877 0.289695 1.84512e-19)
(0.00655954 0.301295 -1.42271e-19)
(0.0369273 0.309058 3.77847e-19)
(0.0732774 0.311603 1.6398e-19)
(0.116373 0.307188 -1.29014e-19)
(0.163866 0.295095 2.59886e-19)
(0.224503 0.272463 1.62894e-19)
(-0.00109651 0.00347854 1.16851e-20)
(-0.00529526 0.0156681 6.1626e-20)
(-0.0115872 0.0317232 1.7241e-19)
(-0.0188995 0.0501637 2.15433e-19)
(-0.0266247 0.0695906 1.27238e-19)
(-0.0342955 0.0888815 -8.85596e-20)
(-0.0415454 0.107264 2.1584e-19)
(-0.0480906 0.124347 2.38268e-20)
(-0.0536865 0.140099 -1.28132e-19)
(-0.0580907 0.154767 1.45437e-20)
(-0.0610354 0.168757 2.33034e-19)
(-0.0622129 0.182513 -2.47384e-19)
(-0.0612697 0.196402 -1.3988e-19)
(-0.0578112 0.210647 -2.90258e-20)
(-0.0514032 0.225276 -2.29622e-19)
(-0.0415792 0.240108 -1.48763e-19)
(-0.0278448 0.254749 2.56717e-20)
(-0.00968681 0.268588 -3.12046e-19)
(0.0134099 0.280805 2.91319e-20)
(0.0419251 0.290375 -1.55608e-19)
(0.0763337 0.296068 -1.98116e-19)
(0.116679 0.29663 1.89189e-19)
(0.164134 0.29028 2.25501e-19)
(0.21479 0.276702 -1.79659e-19)
(0.280679 0.252328 2.6328e-19)
(-0.00125226 0.0039444 -1.44164e-19)
(-0.00563348 0.0167423 1.05154e-19)
(-0.011828 0.0331764 -8.57381e-21)
(-0.0188312 0.0518313 4.11779e-20)
(-0.0260283 0.0713692 3.88104e-20)
(-0.0329418 0.0907058 1.76564e-19)
(-0.0391994 0.10908 -1.2789e-19)
(-0.0445158 0.126087 -2.3574e-19)
(-0.0486502 0.141664 1.17366e-19)
(-0.0513668 0.156018 1.09043e-19)
(-0.0524054 0.169522 -3.66015e-19)
(-0.0514639 0.182592 2.56261e-19)
(-0.0481903 0.195586 3.85502e-19)
(-0.0421869 0.208725 2.51016e-20)
(-0.033016 0.222046 -6.56043e-20)
(-0.0202067 0.235383 1.93177e-19)
(-0.00326714 0.24836 -8.88479e-20)
(0.0183043 0.260391 4.02676e-19)
(0.0450003 0.270689 -3.59753e-19)
(0.0772454 0.278282 6.81243e-20)
(0.115521 0.281992 -3.50541e-20)
(0.15955 0.280714 -1.20308e-19)
(0.211171 0.27261 -1.20824e-19)
(0.264458 0.257836 1.07338e-19)
(0.335369 0.231924 2.67416e-20)
(-0.00141104 0.00429339 9.31621e-20)
(-0.00599776 0.0175133 -6.72563e-20)
(-0.0121417 0.0341654 5.42094e-20)
(-0.0188872 0.0528909 -1.85408e-19)
(-0.025605 0.072411 -4.12566e-20)
(-0.0318019 0.0916796 2.03599e-20)
(-0.0370963 0.109948 -4.57697e-20)
(-0.0411988 0.126801 -7.51323e-20)
(-0.0438704 0.142143 2.27587e-20)
(-0.0448829 0.15614 -1.25758e-19)
(-0.0439863 0.169127 2.34084e-19)
(-0.0408884 0.181489 -5.39962e-20)
(-0.0352455 0.193571 -1.36629e-19)
(-0.0266646 0.205588 -1.38175e-19)
(-0.0147117 0.217589 1.82054e-19)
(0.00107846 0.229422 9.618e-20)
(0.0211876 0.240733 3.96506e-20)
(0.0460964 0.250971 -3.31445e-19)
(0.0762698 0.259386 3.49535e-19)
(0.112058 0.265067 -1.13802e-19)
(0.153991 0.266894 -5.60423e-20)
(0.201339 0.263915 -4.73047e-20)
(0.256935 0.254219 -5.49192e-20)
(0.312317 0.238547 1.73265e-19)
(0.388085 0.211179 -3.07657e-19)
(-0.00157051 0.00454252 -3.47717e-20)
(-0.00638438 0.0180169 1.47243e-19)
(-0.0125284 0.0347327 -2.11567e-19)
(-0.0190741 0.0533838 8.48901e-20)
(-0.0253704 0.0727497 4.55448e-20)
(-0.0309039 0.0918252 -6.99786e-20)
(-0.0352795 0.109878 2.0286e-19)
(-0.0382007 0.126483 4.99738e-20)
(-0.0394291 0.141515 2.1252e-20)
(-0.0387441 0.155102 1.94941e-19)
(-0.0359079 0.167534 -7.91117e-20)
(-0.0306422 0.179166 8.18947e-20)
(-0.0226175 0.19032 -8.79552e-20)
(-0.0114534 0.201209 -5.06733e-21)
(0.00327215 0.211887 -9.44906e-20)
(0.0220102 0.22222 -3.27506e-19)
(0.0452236 0.231882 6.74074e-20)
(0.0733637 0.240354 2.63273e-19)
(0.106866 0.246938 -9.47356e-20)
(0.145987 0.250784 4.55243e-19)
(0.191365 0.250837 -2.58043e-19)
(0.241664 0.246293 -7.77635e-20)
(0.301118 0.235152 -1.3417e-19)
(0.358102 0.218882 5.04734e-21)
(0.438877 0.190033 -1.29893e-19)
(-0.00173056 0.00471099 -1.01635e-19)
(-0.00679365 0.0182945 -1.52295e-19)
(-0.0129913 0.034929 -8.023e-20)
(-0.0193994 0.0533614 7.6137e-20)
(-0.0253386 0.0724317 2.32277e-20)
(-0.0302708 0.0911791 1.34255e-20)
(-0.0337837 0.108893 5.13513e-20)
(-0.0355713 0.125142 -2.48301e-19)
(-0.0353943 0.139778 8.0277e-20)
(-0.033039 0.152887 -1.68772e-19)
(-0.0282811 0.164719 -5.91282e-20)
(-0.0208599 0.175592 -8.13679e-20)
(-0.0104647 0.185806 -1.69685e-19)
(0.00326508 0.195565 3.46566e-19)
(0.0207318 0.204927 1.95215e-19)
(0.0423647 0.213778 5.29937e-20)
(0.0686006 0.22182 1.63286e-19)
(0.0998555 0.228574 -2.40371e-19)
(0.136539 0.233393 -6.29802e-20)
(0.178795 0.235492 -2.91262e-19)
(0.227455 0.233901 1.15252e-19)
(0.280409 0.227919 2.63108e-19)
(0.343799 0.215479 1.29286e-19)
(0.402009 0.198877 -2.48286e-19)
(0.488568 0.168509 3.34281e-19)
(-0.00189343 0.00481943 -3.49065e-20)
(-0.00722991 0.018391 8.27156e-21)
(-0.0135365 0.0348109 1.02248e-19)
(-0.0198713 0.0528837 1.80652e-19)
(-0.0255208 0.0715142 -1.2043e-19)
(-0.0299185 0.0897913 1.14738e-19)
(-0.0326325 0.107031 -8.99028e-20)
(-0.033345 0.122806 3.39078e-19)
(-0.031814 0.136944 -2.35946e-19)
(-0.027832 0.149497 5.05949e-20)
(-0.0211888 0.160673 2.15311e-19)
(-0.0116431 0.170754 -2.82416e-20)
(0.00109262 0.180013 2.32247e-20)
(0.0173545 0.188643 -2.79678e-19)
(0.0375191 0.196706 -2.35447e-19)
(0.0619882 0.204105 -9.20252e-21)
(0.0911693 0.210573 -2.57497e-19)
(0.125441 0.215672 9.60732e-20)
(0.165199 0.218813 -1.33928e-19)
(0.210466 0.219267 1.82749e-19)
(0.26237 0.216183 -2.44695e-19)
(0.317863 0.208879 1.52459e-19)
(0.385592 0.195327 -1.33697e-19)
(0.444887 0.178564 1.96362e-19)
(0.538858 0.146751 -1.41298e-20)
(-0.00206357 0.00488912 1.96019e-19)
(-0.00770124 0.0183533 4.83544e-20)
(-0.0141727 0.0344391 -1.11685e-19)
(-0.0204975 0.0520175 -1.33623e-19)
(-0.0259234 0.0700643 8.99824e-20)
(-0.0298537 0.0877246 -3.27435e-19)
(-0.0318347 0.104349 4.63512e-19)
(-0.0315353 0.119518 8.75543e-20)
(-0.0287094 0.133047 1.46871e-19)
(-0.0231545 0.144954 1.77607e-19)
(-0.0146736 0.155409 1.09963e-19)
(-0.00304559 0.164657 -8.11499e-20)
(0.0119923 0.172945 -9.60524e-22)
(0.0307491 0.180451 -3.89045e-20)
(0.053573 0.18724 -1.16365e-19)
(0.0808372 0.193231 2.61213e-19)
(0.112922 0.198187 5.36663e-19)
(0.150175 0.201715 3.16861e-20)
(0.192999 0.203288 1.87655e-19)
(0.241308 0.202217 -9.85367e-20)
(0.296628 0.197825 1.29399e-19)
(0.354864 0.1893 -7.59006e-19)
(0.427743 0.174912 3.7825e-19)
(0.488364 0.158001 2.441e-19)
(0.592164 0.125075 -1.72651e-19)
(-0.00224743 0.00494114 -1.16648e-19)
(-0.00821883 0.0182287 -1.99815e-19)
(-0.01491 0.033876 1.90723e-19)
(-0.0212838 0.050834 1.24945e-19)
(-0.0265468 0.0681567 6.56127e-20)
(-0.030071 0.0850533 2.35044e-19)
(-0.0313806 0.100917 -2.43304e-19)
(-0.0301301 0.115344 -2.2246e-19)
(-0.0260676 0.128143 -1.45661e-19)
(-0.0189939 0.139305 -3.35369e-19)
(-0.00872342 0.148967 6.28361e-20)
(0.00494633 0.157338 -2.56429e-20)
(0.0222548 0.164636 4.6264e-19)
(0.0434852 0.171027 1.89261e-19)
(0.06896 0.176575 1.36283e-19)
(0.099029 0.181216 -4.4514e-20)
(0.134056 0.184744 -2.43528e-19)
(0.174375 0.18681 -1.98667e-19)
(0.220429 0.186954 -2.36328e-19)
(0.272055 0.184505 1.71414e-19)
(0.331265 0.179033 3.3189e-19)
(0.392893 0.169385 3.90372e-19)
(0.472105 0.154563 -3.81129e-19)
(0.534821 0.137345 1.67953e-19)
(0.651108 0.104011 2.47522e-19)
(-0.00245307 0.00499551 -3.03082e-19)
(-0.00879604 0.0180626 1.68799e-19)
(-0.0157585 0.0331838 -2.86925e-19)
(-0.0222322 0.0494062 3.50883e-19)
(-0.027382 0.0658718 -3.34896e-19)
(-0.0305497 0.0818618 -9.96686e-20)
(-0.0312374 0.0968197 -1.84033e-19)
(-0.0290849 0.110368 1.02613e-19)
(-0.0238329 0.122312 -1.7371e-19)
(-0.0152824 0.132628 1.88536e-19)
(-0.00325602 0.141419 -2.44861e-19)
(0.0124348 0.148865 -1.78567e-19)
(0.0320115 0.155158 3.08776e-21)
(0.0557382 0.160448 -2.6922e-19)
(0.0839211 0.164802 6.47748e-21)
(0.116901 0.16817 -2.69528e-19)
(0.155045 0.170379 -1.55232e-20)
(0.198703 0.171123 -2.96388e-19)
(0.2484 0.170018 1.04052e-19)
(0.303948 0.166378 4.6583e-19)
(0.367869 0.160103 -4.59718e-19)
(0.434039 0.149461 2.35761e-19)
(0.520911 0.134723 2.68656e-19)
(0.587045 0.116943 -1.41128e-19)
(0.717691 0.0842751 5.72595e-20)
(-0.00268966 0.00507038 1.5709e-19)
(-0.00944715 0.0178971 -4.4562e-20)
(-0.0167266 0.0324217 9.73228e-20)
(-0.0233389 0.047807 -2.82011e-19)
(-0.0284089 0.0632932 4.47924e-19)
(-0.0312506 0.0782424 2.92632e-20)
(-0.0313451 0.0921568 3.19453e-19)
(-0.0283171 0.104691 -1.65738e-19)
(-0.0218979 0.115661 1.10701e-19)
(-0.0118848 0.125028 1.43929e-19)
(0.00189803 0.132875 1.31349e-19)
(0.0196332 0.139352 4.07404e-19)
(0.0415343 0.14463 -1.04752e-19)
(0.0678601 0.148847 -1.00102e-19)
(0.0989182 0.15207 -7.85384e-20)
(0.135063 0.154269 -3.9863e-21)
(0.176696 0.155304 -1.64853e-19)
(0.224219 0.154909 1.48667e-19)
(0.278275 0.152782 -2.00683e-19)
(0.338712 0.148199 8.02116e-20)
(0.408476 0.141442 -1.19703e-19)
(0.480738 0.130013 1.34957e-20)
(0.576318 0.115922 -6.25526e-19)
(0.647541 0.0973921 6.1838e-20)
(0.792394 0.0666592 -6.62429e-21)
(-0.00296684 0.0051812 2.06311e-19)
(-0.0101858 0.0177687 -1.39237e-19)
(-0.0178188 0.0316437 -9.74864e-20)
(-0.0245915 0.0461062 -5.9463e-20)
(-0.0295927 0.0605053 -1.92941e-19)
(-0.0321121 0.0742928 -3.21881e-19)
(-0.0316115 0.0870379 -1.04299e-19)
(-0.0277001 0.0984364 3.5463e-19)
(-0.0200962 0.108319 -1.10644e-19)
(-0.00858725 0.116646 -2.34087e-19)
(0.00701024 0.123482 -1.38624e-19)
(0.0268854 0.128958 -4.16224e-19)
(0.0512608 0.133227 -4.44262e-19)
(0.0804099 0.136418 3.31901e-19)
(0.114667 0.138603 6.85473e-20)
(0.15443 0.139773 5.53206e-20)
(0.200169 0.139821 5.63026e-19)
(0.252371 0.138522 8.68961e-20)
(0.311808 0.135656 5.50013e-19)
(0.378396 0.130445 -6.7587e-19)
(0.455269 0.123559 3.24333e-19)
(0.535255 0.111684 -3.06717e-19)
(0.639808 0.0987326 5.01884e-19)
(0.717631 0.079494 -7.80492e-19)
(0.873619 0.0518834 1.71221e-19)
(-0.00329388 0.00533989 -5.27797e-20)
(-0.0110234 0.017707 -1.09917e-19)
(-0.0190339 0.0308969 -1.00509e-19)
(-0.0259669 0.0443681 3.39619e-20)
(-0.0308818 0.0575903 -5.32975e-20)
(-0.0330479 0.0701137 2.0415e-19)
(-0.0319094 0.081582 -7.14305e-20)
(-0.0270585 0.0917393 -1.50601e-19)
(-0.0181956 0.100441 -6.23336e-20)
(-0.0050893 0.107653 3.08743e-21)
(0.0124645 0.113431 3.83292e-19)
(0.0346793 0.117894 -3.30059e-19)
(0.0618081 0.121183 4.76858e-19)
(0.0941657 0.123426 -1.37094e-19)
(0.132143 0.124703 -2.33427e-19)
(0.17621 0.125026 1.94043e-19)
(0.22693 0.124326 -2.13505e-19)
(0.284886 0.122414 -3.60642e-19)
(0.350937 0.119147 -1.39185e-19)
(0.425039 0.113691 1.34197e-19)
(0.510117 0.107032 2.15669e-19)
(0.599023 0.0951907 4.36707e-19)
(0.711624 0.0836937 3.03377e-20)
(0.796674 0.0640901 3.26e-19)
(0.95781 0.0404125 -1.15349e-19)
(-0.00367889 0.00555416 -2.56245e-20)
(-0.0119673 0.0177334 2.40105e-19)
(-0.0203623 0.0302188 2.48408e-19)
(-0.0274293 0.0426493 -1.11384e-19)
(-0.0322053 0.054626 7.82084e-20)
(-0.0339443 0.0658051 -2.86263e-19)
(-0.0320738 0.0759126 5.64229e-20)
(-0.0261658 0.0847483 4.53552e-20)
(-0.0158958 0.0922004 -1.30344e-19)
(-0.00100128 0.0982478 -3.53156e-20)
(0.0187595 0.102949 -4.75236e-19)
(0.0436457 0.106416 1.50475e-19)
(0.0739667 0.10879 -2.3241e-20)
(0.110106 0.1102 -5.63341e-21)
(0.152537 0.110742 -2.03956e-20)
(0.201822 0.110453 -4.57353e-21)
(0.258609 0.109297 -1.80444e-20)
(0.323544 0.107118 2.5035e-19)
(0.397454 0.103828 -2.27064e-19)
(0.480207 0.098556 2.08662e-19)
(0.574039 0.0924523 -3.18468e-19)
(0.672048 0.0811979 -1.5832e-19)
(0.790446 0.0712403 5.10201e-20)
(0.881805 0.0518367 -2.70987e-19)
(1.04028 0.032331 -9.3736e-20)
(-0.00412783 0.00582703 -2.38456e-19)
(-0.0130188 0.0178594 -3.06437e-20)
(-0.0217847 0.0296364 -3.03646e-19)
(-0.0289279 0.0409963 -2.43718e-19)
(-0.0334723 0.0516821 3.21852e-19)
(-0.0346598 0.0614629 2.19438e-19)
(-0.031902 0.0701546 -9.63652e-20)
(-0.0247457 0.0776184 -8.44301e-20)
(-0.012831 0.0837834 -6.21577e-20)
(0.00415066 0.088651 5.35488e-19)
(0.0264982 0.0922901 2.0504e-19)
(0.0545404 0.0948194 2.82949e-19)
(0.0886679 0.0963831 -1.64712e-20)
(0.129355 0.0971233 5.37155e-20)
(0.177168 0.0971535 1.4673e-19)
(0.232749 0.0965341 -3.46064e-19)
(0.296784 0.0952589 5.47004e-19)
(0.369872 0.0931914 5.89945e-20)
(0.452609 0.0902688 -1.81404e-19)
(0.544551 0.0856132 -2.79462e-19)
(0.646768 0.0803269 -1.53764e-19)
(0.752639 0.07017 3.62104e-19)
(0.873449 0.0616298 -1.10695e-20)
(0.968423 0.043014 2.048e-19)
(1.11636 0.0273296 2.55157e-19)
(-0.00464366 0.00615649 1.81342e-19)
(-0.014172 0.0180866 1.90338e-20)
(-0.0232703 0.0291645 -3.9647e-20)
(-0.0303965 0.0394439 4.37678e-20)
(-0.0345709 0.048818 -3.04838e-19)
(-0.0350262 0.0571754 4.02629e-19)
(-0.0311567 0.0644283 -1.65059e-21)
(-0.0224766 0.0705048 3.2339e-19)
(-0.00857829 0.0753827 1.45487e-20)
(0.0109097 0.0790949 -1.09471e-19)
(0.0363642 0.0817302 1.68256e-19)
(0.0682048 0.083422 -5.57235e-19)
(0.106921 0.0843283 -3.38584e-19)
(0.153083 0.0846073 -1.66264e-19)
(0.207334 0.0843924 -7.22216e-20)
(0.270337 0.0837636 6.80812e-21)
(0.342705 0.0827306 -3.53233e-19)
(0.424811 0.0811608 1.34841e-19)
(0.516755 0.0789674 5.26344e-19)
(0.617492 0.0752991 1.4748e-19)
(0.726596 0.0709956 3.6904e-19)
(0.83761 0.0622806 -3.7701e-19)
(0.95676 0.0548793 -9.33702e-20)
(1.0513 0.0374784 -1.56409e-19)
(1.18238 0.0248489 -8.81382e-19)
(-0.00522559 0.00653545 -1.6871e-19)
(-0.0154122 0.018406 8.58321e-20)
(-0.024776 0.0288051 1.53068e-19)
(-0.0317531 0.0380128 5.29043e-19)
(-0.0353694 0.0460787 1.98627e-19)
(-0.0348523 0.0530199 -4.38528e-19)
(-0.0295711 0.0588445 -1.0973e-19)
(-0.0190018 0.0635559 -5.84992e-20)
(-0.00267424 0.0671874 -1.86623e-19)
(0.019863 0.0698115 -6.16044e-20)
(0.0490821 0.071546 -1.23145e-19)
(0.0855063 0.072547 4.4365e-19)
(0.129725 0.072993 5.23103e-19)
(0.182383 0.0730615 2.60983e-19)
(0.244139 0.0729016 -1.32306e-19)
(0.315572 0.072603 -9.24892e-20)
(0.397039 0.0721696 2.03575e-19)
(0.488455 0.0714491 -4.70364e-20)
(0.589139 0.0702729 -3.88136e-21)
(0.697187 0.0678428 1.17676e-19)
(0.810561 0.0645642 -1.7052e-19)
(0.922887 0.0574009 -3.06358e-19)
(1.0362 0.0507524 -2.13344e-19)
(1.12583 0.0347715 2.71382e-19)
(1.23631 0.0242523 9.02666e-19)
(-0.00586852 0.00695201 1.3426e-19)
(-0.0167156 0.0187984 4.56412e-19)
(-0.0262467 0.0285472 1.8252e-19)
(-0.0329022 0.0367092 -1.62207e-19)
(-0.0357201 0.0434963 2.24538e-19)
(-0.0339263 0.0490575 2.46118e-19)
(-0.026859 0.0534984 2.73499e-19)
(-0.0139439 0.0569055 -1.63144e-20)
(0.00536346 0.0593727 2.10617e-19)
(0.031608 0.0610193 -6.42635e-19)
(0.0653668 0.0619998 3.59731e-19)
(0.107265 0.0624999 -1.88505e-19)
(0.157966 0.0627215 -4.71395e-19)
(0.218133 0.0628595 -3.38748e-19)
(0.288332 0.0630699 5.50249e-19)
(0.36889 0.0634336 -1.88201e-19)
(0.459691 0.0639186 -9.2984e-20)
(0.559936 0.0643237 7.25584e-20)
(0.667931 0.0643417 -3.69445e-19)
(0.780764 0.0632389 3.07804e-19)
(0.894954 0.0608901 -5.10685e-20)
(1.0043 0.0551594 3.77402e-19)
(1.10809 0.0488127 4.52166e-19)
(1.18894 0.0342798 -1.60047e-19)
(1.27773 0.0248525 -3.33668e-19)
(-0.00656271 0.00739002 -6.96739e-20)
(-0.0180486 0.0192356 -2.59297e-19)
(-0.0276153 0.0283675 6.55548e-21)
(-0.0337349 0.0355254 -1.305e-19)
(-0.0354642 0.0410862 -3.82225e-19)
(-0.0320258 0.0453294 -1.9627e-19)
(-0.0227237 0.0484658 1.07628e-19)
(-0.0069215 0.0506661 -3.32058e-19)
(0.0160092 0.0520903 2.65063e-20)
(0.0467133 0.0529106 1.60311e-19)
(0.085868 0.0533238 -4.55415e-19)
(0.134175 0.0535483 -1.48516e-19)
(0.192319 0.0538089 3.76897e-19)
(0.260875 0.0543103 2.52465e-19)
(0.340167 0.055199 -3.25656e-19)
(0.430066 0.0565209 3.4925e-19)
(0.529748 0.0581727 1.45711e-19)
(0.637484 0.0598704 -3.71068e-20)
(0.750457 0.0611254 -3.17783e-20)
(0.86479 0.0612651 -3.25046e-19)
(0.975982 0.0596277 3.66357e-20)
(1.07833 0.0550395 -6.55425e-20)
(1.16983 0.0485276 -3.50307e-19)
(1.23934 0.0353731 -2.59092e-19)
(1.30756 0.0260932 -2.47794e-19)
(-0.00729383 0.00782999 -4.3624e-20)
(-0.0193686 0.0196816 -5.72551e-19)
(-0.0288047 0.0282314 -3.53771e-19)
(-0.0341327 0.0344388 -4.50428e-19)
(-0.0344342 0.0388446 3.97437e-19)
(-0.0289256 0.0418587 3.23673e-20)
(-0.0168726 0.0437995 2.84061e-19)
(0.00243105 0.0449239 -2.58588e-19)
(0.0297018 0.0454616 4.24746e-19)
(0.0656789 0.045642 1.57714e-19)
(0.111116 0.0457068 1.26693e-20)
(0.166741 0.0459068 -2.41107e-20)
(0.233164 0.0464837 -8.43152e-20)
(0.310737 0.0476379 -7.34823e-20)
(0.399351 0.0494829 7.74559e-20)
(0.498204 0.0519976 1.10052e-19)
(0.605565 0.0549689 -6.99148e-19)
(0.718656 0.0579967 4.43637e-20)
(0.833601 0.0603951 -1.17364e-19)
(0.945807 0.0615371 -1.10297e-19)
(1.05038 0.0603133 5.65525e-20)
(1.14252 0.0564828 -3.72656e-19)
(1.22021 0.049384 1.75892e-19)
(1.27731 0.037536 2.24909e-19)
(1.32745 0.0275237 -5.09489e-19)
(-0.00804325 0.00825021 1.01743e-19)
(-0.0206251 0.0200948 4.14009e-19)
(-0.0297295 0.0280953 3.61062e-20)
(-0.0339709 0.0334139 6.53539e-19)
(-0.0324601 0.0367518 -4.13688e-19)
(-0.0244049 0.0386482 4.03383e-19)
(-0.0090288 0.0395281 -3.59665e-19)
(0.0144461 0.0397358 1.41131e-19)
(0.0468191 0.0395733 -1.79386e-19)
(0.0889032 0.0393286 2.34612e-19)
(0.141483 0.0392877 3.85172e-19)
(0.205227 0.0397291 1.97265e-19)
(0.280549 0.0408996 7.85257e-20)
(0.367403 0.0429745 8.51867e-20)
(0.465049 0.0460046 -6.3759e-20)
(0.57182 0.0498654 -5.10969e-20)
(0.684958 0.0541991 5.7171e-19)
(0.800657 0.0584624 1.89811e-19)
(0.914241 0.0617897 5.29845e-19)
(1.02083 0.0635828 1.35347e-20)
(1.11581 0.0624565 -3.43956e-19)
(1.19569 0.058969 4.32562e-19)
(1.25923 0.0509854 5.55568e-19)
(1.3041 0.04043 7.20971e-20)
(1.33934 0.0287935 5.01234e-19)
(-0.00878875 0.00862807 -2.88525e-19)
(-0.0217607 0.0204303 1.60235e-19)
(-0.0302983 0.0279086 3.52364e-19)
(-0.0331219 0.0324047 -1.38705e-19)
(-0.0293752 0.0347746 -4.10553e-19)
(-0.0182549 0.0356818 -2.98897e-20)
(0.00105811 0.0356566 2.19347e-20)
(0.0294079 0.0351306 3.9024e-20)
(0.0676593 0.034478 -2.48739e-19)
(0.116659 0.0340445 -1.04026e-19)
(0.177151 0.0341563 -3.60005e-19)
(0.249636 0.0351095 -8.41697e-21)
(0.334174 0.0371382 -9.84618e-20)
(0.430137 0.0403658 -3.01866e-20)
(0.535968 0.0447452 2.597e-19)
(0.649005 0.050012 -3.79961e-19)
(0.76546 0.0556373 1.60959e-19)
(0.880693 0.0609234 -2.5398e-19)
(0.989643 0.0648745 -3.82614e-19)
(1.08768 0.0669164 7.01168e-20)
(1.17106 0.065606 7.27962e-19)
(1.23779 0.0620631 -3.739e-19)
(1.28785 0.0531165 1.30912e-20)
(1.32143 0.0438966 3.24933e-19)
(1.34501 0.0296276 1.83113e-19)
(-0.00950537 0.00894151 1.35876e-19)
(-0.0227131 0.0206428 -1.93268e-19)
(-0.0304167 0.0276175 -4.09635e-19)
(-0.0314589 0.0313589 -2.17565e-19)
(-0.0250194 0.0328688 2.37228e-19)
(-0.0102844 0.0329284 8.07486e-20)
(0.0136048 0.0321709 4.67341e-19)
(0.0475433 0.031113 1.87969e-19)
(0.0924293 0.0301992 1.17666e-19)
(0.149084 0.0298287 5.49149e-20)
(0.218114 0.0303599 3.73096e-19)
(0.299716 0.0320911 1.67222e-19)
(0.393424 0.0352195 -1.36835e-19)
(0.497851 0.0397836 1.94397e-19)
(0.610478 0.0456013 -1.11208e-19)
(0.727614 0.0522352 1.40947e-19)
(0.84459 0.058975 -1.36477e-19)
(0.956275 0.0649806 -3.00288e-19)
(1.05773 0.0691983 4.39001e-19)
(1.14509 0.0710977 -4.62965e-19)
(1.2159 0.0693811 1.30783e-19)
(1.26966 0.0654417 -1.54263e-19)
(1.3076 0.0557471 -1.1759e-19)
(1.33113 0.0477568 -9.69234e-19)
(1.34589 0.0297661 1.47397e-19)
(-0.0101665 0.00917029 2.77449e-20)
(-0.0234173 0.0206889 1.38486e-19)
(-0.0299873 0.0271677 4.59484e-19)
(-0.0288592 0.0302228 -1.08393e-19)
(-0.019243 0.0309841 -4.70801e-20)
(-0.000322876 0.0303479 8.76189e-20)
(0.0287902 0.0290444 7.76994e-20)
(0.0690175 0.0276715 -3.02016e-19)
(0.121242 0.0267401 -1.39151e-19)
(0.186178 0.0266957 -4.26335e-19)
(0.264179 0.0279155 -3.18836e-19)
(0.354979 0.0306791 -2.2498e-19)
(0.457417 0.0351161 1.98979e-19)
(0.569189 0.0411422 -2.89812e-19)
(0.686752 0.0484039 -1.38658e-19)
(0.805476 0.056269 -6.07977e-20)
(0.920092 0.0638558 -4.28605e-20)
(1.02544 0.0702226 8.99265e-19)
(1.1172 0.0743401 5.73691e-20)
(1.19268 0.0757663 -7.93161e-20)
(1.25088 0.0734783 -4.5291e-19)
(1.29264 0.0689167 1.47235e-19)
(1.32023 0.0589096 1.70669e-20)
(1.33531 0.0514395 5.47392e-19)
(1.34313 0.0290732 5.45255e-20)
(-0.0107449 0.00929715 2.19326e-19)
(-0.0238076 0.0205302 -2.11216e-19)
(-0.0289152 0.0265116 -3.20926e-19)
(-0.0252014 0.0289433 3.22064e-19)
(-0.0119086 0.0290698 -7.14101e-20)
(0.0117773 0.0278978 -6.15929e-20)
(0.0467553 0.0262457 5.39996e-20)
(0.0939354 0.0247881 -7.65193e-20)
(0.15412 0.0240952 1.90155e-19)
(0.227819 0.0246476 1.22164e-19)
(0.314989 0.0268231 3.14776e-19)
(0.414743 0.0308543 -8.01956e-21)
(0.525061 0.0367662 2.53413e-19)
(0.642629 0.0443117 -1.79568e-20)
(0.762913 0.0529355 2.66328e-19)
(0.880562 0.0618071 7.69159e-20)
(0.990112 0.0699087 -4.99021e-19)
(1.08685 0.0762617 -2.43129e-19)
(1.16752 0.0799426 -5.97252e-20)
(1.2308 0.0806507 1.61592e-19)
(1.27708 0.077678 -7.5769e-20)
(1.30829 0.0724328 -2.73677e-19)
(1.32733 0.0624277 3.73038e-20)
(1.33584 0.0542939 -2.56527e-19)
(1.33978 0.0356185 -1.2484e-19)
(-0.0112139 0.00930895 1.34381e-19)
(-0.0238177 0.0201365 1.4374e-19)
(-0.0271086 0.0256082 2.63383e-19)
(-0.0203711 0.0274728 -1.91743e-19)
(-0.00288858 0.0270829 1.42435e-20)
(0.0261431 0.0255414 3.82131e-19)
(0.0676052 0.0237488 -1.09259e-19)
(0.122346 0.0224489 -3.61979e-19)
(0.191006 0.0222614 -2.12568e-19)
(0.273767 0.0236863 2.82773e-19)
(0.370044 0.0270766 -5.83734e-19)
(0.478162 0.0325825 2.64227e-21)
(0.595123 0.0400818 -4.78252e-20)
(0.71658 0.0491265 3.63063e-19)
(0.837162 0.0589435 -1.95667e-19)
(0.951137 0.0685247 2.68546e-19)
(1.0533 0.0767754 2.70191e-19)
(1.13984 0.082759 -4.7686e-19)
(1.2088 0.0857281 -1.99368e-19)
(1.26026 0.0855618 -1.65447e-19)
(1.29581 0.0818529 2.53076e-19)
(1.31814 0.075997 4.00451e-19)
(1.33031 0.0659413 1.86052e-19)
(1.3341 0.0578978 -1.65878e-19)
(1.335 0.0400972 -2.93248e-19)
(-0.0115478 0.00919694 -3.17815e-20)
(-0.0233835 0.0194857 1.34823e-19)
(-0.0244753 0.0244253 -2.67758e-19)
(-0.0142606 0.0257786 -4.10774e-19)
(0.00793329 0.0249923 -6.07336e-19)
(0.0428822 0.0232551 1.03688e-19)
(0.0914134 0.0215411 -1.2107e-19)
(0.154249 0.0206539 1.76575e-19)
(0.231766 0.0212487 6.50576e-20)
(0.323686 0.0238226 1.26085e-19)
(0.428722 0.0286709 1.37378e-19)
(0.544271 0.0358185 -7.59188e-20)
(0.666286 0.0449513 -1.0802e-19)
(0.789476 0.0553916 -2.41478e-19)
(0.907896 0.0661535 7.35035e-20)
(1.01586 0.0760986 -2.85359e-19)
(1.10886 0.0841329 1.05435e-19)
(1.18429 0.0894407 6.7659e-20)
(1.24163 0.0915 -2.80887e-19)
(1.2822 0.0903838 -3.01771e-19)
(1.30846 0.085954 -1.61971e-19)
(1.32354 0.0795565 8.83201e-21)
(1.33041 0.0695624 4.93978e-20)
(1.3308 0.0614265 -1.60281e-19)
(1.32946 0.0448934 1.23282e-19)
(-0.0117223 0.00895658 2.07142e-21)
(-0.0224436 0.0185659 -3.70543e-19)
(-0.0209276 0.0229459 4.72871e-19)
(-0.00676594 0.0238434 5.05536e-19)
(0.0206641 0.022785 3.01343e-19)
(0.0620857 0.0210353 -1.0439e-20)
(0.118224 0.0196316 -1.08996e-19)
(0.189596 0.0194247 -1.49092e-19)
(0.276199 0.021086 2.70987e-19)
(0.377147 0.0250799 -6.53036e-19)
(0.490298 0.0316023 6.5638e-20)
(0.612014 0.040504 5.96936e-19)
(0.737217 0.0512388 8.3144e-20)
(0.859859 0.062887 -1.6677e-19)