/*--------------------------------*- C++ -*----------------------------------*\
  =========                 |
  \\      /  F ield         | OpenFOAM: The Open Source CFD Toolbox
   \\    /   O peration     | Website:  https://openfoam.org
    \\  /    A nd           | Version:  7
     \\/     M anipulation  |
\*---------------------------------------------------------------------------*/
FoamFile
{
    version     2.0;
    format      ascii;
    class       volScalarField;
    location    "4.5";
    object      p;
}
// * * * * * * * * * * * * * * * * * * * * * * * * * * * * * * * * * * * * * //

dimensions      [1 -1 -2 0 0 0 0];

internalField   nonuniform List<scalar> 
4032
(
1
1
1
1
1
1
1
1
1
1
1
1.30411
7.52374
10.6055
10.7394
10.9483
11.134
11.311
11.4734
11.6197
11.7494
11.8542
11.9337
11.992
1
1
1
1
1
1
1
1
1
1
1
1.26583
7.3593
10.5719
10.7253
10.9282
11.1104
11.283
11.4405
11.5802
11.702
11.7988
11.8696
11.9244
1
1
1
1
1
1
1
1
1
1
1
1.16339
7.05638
10.5403
10.6825
10.8841
11.0666
11.2375
11.3921
11.5263
11.6403
11.7284
11.7865
11.833
1
1
1
1
1
1
1
1
1
1
1
1.01332
6.55431
10.4784
10.6243
10.8136
10.9873
11.1471
11.2928
11.4211
11.5317
11.6159
11.665
11.7006
1
1
1
1
1
1
1
1
1
1
1
1.00014
5.87935
10.305
10.4979
10.6817
10.8572
11.0136
11.1522
11.2664
11.3558
11.4224
11.4585
11.5057
1
1
1
1
1
1
1
1
1
1
1
0.999999
5.03632
10.0701
10.3867
10.5546
10.7208
10.8594
10.9776
11.0753
11.1541
11.2148
11.2286
11.1871
1
1
1
1
1
1
1
1
1
1
1
1
4.07338
9.70789
10.2709
10.4275
10.5713
10.6793
10.7614
10.8201
10.8416
10.8065
10.7396
10.6951
1
1
1
1
1
1
1
1
1
1
1
1
3.03171
9.1471
10.1839
10.3203
10.4338
10.5066
10.5398
10.5423
10.4974
10.4194
10.2933
10.2829
1
1
1
1
1
1
1
1
1
1
1
1
1.95954
8.27992
10.1451
10.1939
10.2853
10.3253
10.3095
10.2485
10.1046
9.83748
9.06195
7.18715
1
1
1
1
1
1
1
1
1
1
1
1
1.11671
7.1138
10.1826
10.0842
10.0828
10.0726
10.0162
9.89125
9.65335
9.18198
8.38123
6.31676
1
1
1
1
1
1
1
1
1
1
1
1
1.00126
5.48847
9.57835
9.72749
9.79063
9.76392
9.68778
9.51419
9.21841
8.65683
7.82975
5.89238
1
1
1
1
1
1
1
1
1
1
1
1
0.999981
3.61687
8.97632
9.59206
9.62436
9.55865
9.43697
9.20751
8.84945
8.27642
7.37517
5.79482
1
1
1
1
1
1
1
1
1
1
1
1
0.999995
1.90692
8.00339
9.54188
9.44586
9.33206
9.17277
8.90902
8.51505
7.95766
7.05662
5.83773
1
1
1
1
1
1
1
1
1
1
1
1
0.999999
1.08655
6.23194
9.18552
9.18072
9.08494
8.91904
8.64907
8.26071
7.70028
6.87529
5.91813
1
1
1
1
1
1
1
1
1
1
1
1
1
1.00036
3.75426
8.57603
9.04496
8.93891
8.75458
8.44395
8.05498
7.48652
6.76858
5.98299
1
1
1
1
1
1
1
1
1
1
1
1
1
0.999996
1.56984
7.58379
9.08454
8.8051
8.55978
8.24379
7.83017
7.32604
6.71573
6.04778
1
1
1
1
1
1
1
1
1
1
1
1
1
0.999999
1.0287
5.53124
8.6316
8.46115
8.2932
8.02188
7.65531
7.20603
6.67088
6.08537
1
1
1
1
1
1
1
1
1
1
1
1
1
1
0.999949
2.73312
7.89179
8.35911
8.20239
7.93116
7.57442
7.13988
6.63914
6.11822
1
1
1
1
1
1
1
1
1
1
1
1
1
1
0.999984
1.21295
6.03074
8.29653
8.10691
7.82394
7.47292
7.06453
6.60828
6.14232
1
1
1
1
1
1
1
1
1
1
1
1
1
1
0.999997
1.00346
3.15997
7.57688
7.98252
7.70343
7.3806
7.00101
6.59115
6.16549
1
1
1
1
1
1
1
1
1
1
1
1
1
1
1
0.999999
1.32006
5.9252
7.95019
7.63934
7.33148
6.96315
6.58209
6.18456
1
1
1
1
1
1
1
1
1
1
1
1
1
1
1
1
1.00821
3.01996
7.19052
7.5486
7.24436
6.90522
6.55667
6.19796
1
1
1
1
1
1
1
1
1
1
1
1
1
1
1
1
1.00002
1.28492
5.40065
7.55738
7.21291
6.90657
6.58066
6.24421
1
1
1
1
1
1
1
1
1
1
1
1
1
1
1
1
1
1.00687
2.45311
6.51098
7.16993
6.88715
6.58672
6.27262
1
1
1
1
1
1
1
1
1
1
1
1
1
1
1
1
1
1.00003
1.15218
4.32718
7.10333
6.91329
6.62802
6.32057
1
1
1
1
1
1
1
1
1
1
1
1
1
1
1
1
1
1
1.00251
1.79475
5.7209
6.91494
6.62
6.3119
1
1
1
1
1
1
1
1
1
1
1
1
1
1
1
1
1
1
1.00001
1.04863
3.00861
6.27554
6.63119
6.36135
1
1
1
1
1
1
1
1
1
1
1
1
1
1
1
1
1
1
1
1.00056
1.28467
4.33588
6.50565
6.42907
1
1
1
1
1
1
1
1
1
1
1
1
1
1
1
1
1
1
1
1
1.00815
1.85406
5.21532
6.40012
1
1
1
1
1
1
1
1
1
1
1
1
1
1
1
1
1
1
1
1
1.00006
1.05717
2.63954
5.75587
1
1
1
1
1
1
1
1
1
1
1
1
1
1
1
1
1
1
1
1
1
1.00078
1.2004
3.65499
1
1
1
1
1
1
1
1
1
1
1
1
1
1
1
1
1
1
1
1
1
1
1.00549
1.51732
1
1
1
1
1
1
1
1
1
1
1
1
1
1
1
1
1
1
1
1
1
1
1.00004
1.02521
1
1
1
1
1
1
1
1
1
1
1
1
1
1
1
1
1
1
1
1
1
1
1
1.0005
1
1
1
1
1
1
1
1
1
1
1
1
1
1
1
1
1
1
1
1
1
1
1
1
1
1
1
1
1
1
1
1
1
1
1
1
1
1
1
1
1
1
1
1
1
1
1
1
1
1
1
1
1
1
1
1
1
1
1
1
1
1
1
1
1
1
1
1
1
1
1
1
1
1
1
1
1
1
1
1
1
1
1
1
1
1
1
1
1
1
1
1
1
1
1
1
1
1
1
1
1
1
1
1
1
1
1
1
1
1
1
1
1
1
1
1
1
1
1
1
1
1
1
1
1
1
1
1
1
1
1
1
1
1
1
1
1
1
1
1
1
1
1
1
1.61426
0.425154
0.142716
0.159245
0.190194
0.233284
0.323252
0.468504
0.697746
0.886167
1.00282
1.00473
0.980865
1.01902
1.13379
1.24621
1.33045
1.35411
1.32585
1.29216
1.25297
1.26179
1.28028
1.31957
1.33806
3.21242
5.49171
5.69201
5.79568
5.85015
5.85002
5.82813
5.81813
5.83334
5.84394
5.81224
5.72541
5.61767
5.5351
5.492
5.47844
5.4602
5.39206
5.27692
5.1553
5.05491
4.99575
4.9882
4.99946
4.94279
4.82838
4.70546
4.60738
4.53954
4.51493
4.49864
4.43707
4.3488
4.24537
4.14306
4.06761
4.01475
3.99204
3.95734
3.89392
3.82222
3.7429
3.6682
3.60777
3.5557
3.51154
3.46912
3.42028
3.36627
3.30585
3.24808
3.19802
3.15034
3.10036
3.04416
2.98034
2.9166
2.86411
2.82307
2.7891
2.76501
2.74499
2.71639
2.67704
2.61095
2.52439
2.46214
2.42806
2.40293
2.38997
2.34982
2.7483
1.42572
0.874047
0.697478
0.588331
0.512729
0.472554
0.486428
0.520756
0.578724
0.651571
0.735229
0.810438
0.877124
0.961419
1.06589
1.15769
1.22367
1.24655
1.25424
1.24726
1.26322
1.27352
1.28769
1.30572
2.96146
5.50163
5.86717
5.91357
5.90573
5.88926
5.86741
5.83092
5.78707
5.75305
5.74022
5.72111
5.64896
5.54461
5.45385
5.38902
5.35708
5.33945
5.30273
5.2164
5.10231
4.99844
4.9187
4.87884
4.86686
4.83214
4.7571
4.66207
4.56382
4.47983
4.41071
4.36384
4.32336
4.26561
4.19135
4.10952
4.02944
3.95935
3.90039
3.85793
3.81527
3.76019
3.69977
3.63236
3.56229
3.49971
3.44936
3.4012
3.34968
3.2945
3.23554
3.17886
3.13149
3.08817
3.04226
2.99408
2.9444
2.89113
2.83923
2.79422
2.75769
2.72223
2.68644
2.65271
2.60837
2.55207
2.49468
2.44345
2.4061
2.38344
2.33995
3.61994
2.36159
1.63206
1.25248
1.05108
0.883055
0.711245
0.583802
0.54732
0.562791
0.606546
0.679316
0.776492
0.837268
0.859814
0.904693
0.985395
1.08171
1.17501
1.23713
1.26612
1.29721
1.3042
1.28902
1.28549
2.44817
5.63191
6.21733
6.0098
5.90051
5.88173
5.90847
5.92506
5.85865
5.75471
5.68132
5.66416
5.67593
5.64232
5.54472
5.42312
5.31719
5.24342
5.222
5.22264
5.1878
5.10066
4.9815
4.85856
4.7791
4.7445
4.73894
4.71258
4.6481
4.54293
4.40121
4.29906
4.23933
4.21109
4.19838
4.15596
4.08946
3.99803
3.89377
3.82435
3.77628
3.74142
3.70752
3.66274
3.60579
3.528
3.44683
3.39191
3.34688
3.30118
3.25055
3.18678
3.10961
3.04197
2.9996
2.97126
2.9489
2.91785
2.88062
2.83202
2.76737
2.69921
2.64448
2.59944
2.56981
2.54974
2.52433
2.48928
2.43768
2.38274
2.32465
4.24449
3.18548
2.40207
1.80653
1.49175
1.31967
1.16058
0.963555
0.785865
0.747518
0.747255
0.742064
0.745343
0.745144
0.743643
0.748311
0.788875
0.876998
0.997389
1.10467
1.15994
1.19887
1.23629
1.25817
1.30973
1.89133
5.42603
6.68683
6.249
5.91606
5.87696
5.89976
5.93632
5.87453
5.77209
5.65009
5.59037
5.57273
5.57282
5.53991
5.4634
5.35341
5.24274
5.16804
5.12298
5.10596
5.06746
5.00059
4.91246
4.80577
4.73763
4.69811
4.66022
4.6083
4.536
4.43677
4.32837
4.25186
4.20251
4.17179
4.12806
4.06921
3.99619
3.90784
3.83023
3.77572
3.72993
3.68572
3.64189
3.59273
3.52537
3.43696
3.3651
3.32273
3.28633
3.24751
3.20079
3.1384
3.06386
3.00115
2.96158
2.93133
2.90535
2.87671
2.84071
2.78594
2.70784
2.62596
2.57546
2.55121
2.5325
2.51758
2.49697
2.46321
2.41078
2.32239
4.66588
3.72547
3.03139
2.47394
1.96382
1.63972
1.50038
1.35011
1.17134
0.981044
0.874418
0.842023
0.823717
0.808773
0.790753
0.773557
0.748156
0.754598
0.795593
0.88437
0.996063
1.07309
1.13925
1.24602
1.5648
2.06436
4.03974
6.38592
6.4906
6.09143
5.89585
5.84131
5.8805
5.876
5.82136
5.71255
5.58939
5.53311
5.49631
5.48196
5.45805
5.39406
5.29849
5.17746
5.09407
5.03838
5.00725
4.97856
4.93197
4.86705
4.77634
4.68937
4.62025
4.55562
4.48932
4.41856
4.34301
4.27415
4.21737
4.16157
4.10258
4.03661
3.96587
3.89598
3.83468
3.78236
3.73345
3.68555
3.63644
3.58196
3.51509
3.43093
3.35053
3.29736
3.25619
3.21589
3.17324
3.1272
3.07871
3.02674
2.97317
2.92755
2.88949
2.85055
2.80554
2.75227
2.69321
2.63773
2.59215
2.55554
2.52986
2.50836
2.48514
2.45208
2.40815
2.326
5.00733
4.16685
3.47075
2.96119
2.49566
2.08028
1.77064
1.60939
1.48617
1.33956
1.15663
1.00713
0.97537
0.968192
0.932845
0.882615
0.82737
0.783488
0.781528
0.791734
0.822136
0.878872
0.962844
1.27432
1.96362
2.30847
2.76908
4.5827
6.13081
6.17814
6.05207
5.87596
5.8395
5.85199
5.81053
5.72185
5.55942
5.43955
5.39014
5.37584
5.40481
5.37753
5.30404
5.1856
5.06497
5.0044
4.97175
4.96746
4.93583
4.87587
4.77994
4.65781
4.57167
4.5133
4.46078
4.40979
4.35658
4.29429
4.22173
4.1488
4.08047
4.01568
3.95461
3.89545
3.83292
3.76778
3.71168
3.66554
3.62131
3.57387
3.51727
3.44294
3.35588
3.28926
3.24455
3.20384
3.16298
3.12419
3.08743
3.04561
2.98978
2.92377
2.86694
2.81947
2.774
2.73134
2.6945
2.66052
2.62098
2.57322
2.5284
2.4935
2.46079
2.42248
2.38625
2.32802
5.22104
4.49503
3.85384
3.31334
2.8693
2.50486
2.17525
1.85639
1.67732
1.59151
1.46716
1.31187
1.15481
1.07565
1.03681
0.99449
0.953344
0.905294
0.831409
0.811803
0.817994
0.860112
1.11919
1.59236
2.05611
2.19899
2.27195
2.7028
4.39454
5.95863
6.05275
5.91405
5.82209
5.8394
5.7915
5.70707
5.56896
5.41694
5.34478
5.31868
5.34723
5.33995
5.2778
5.18695
5.06502
4.98468
4.94142
4.92229
4.8835
4.82612
4.747
4.63821
4.55595
4.50564
4.46328
4.41471
4.36049
4.29479
4.20857
4.12179
4.05453
3.9989
3.94602
3.89031
3.82453
3.74811
3.6871
3.64541
3.60594
3.5645
3.51681
3.45006
3.35477
3.26645
3.21597
3.18039
3.14818
3.11779
3.08759
3.0522
2.99643
2.90751
2.82439
2.77611
2.74422
2.71889
2.69635
2.67292
2.64244
2.59553
2.52623
2.4613
2.41836
2.38498
2.36211
2.32335
5.38695
4.74138
4.16971
3.65666
3.16731
2.80469
2.53361
2.23287
1.94088
1.76859
1.66283
1.55683
1.43481
1.29558
1.1621
1.1089
1.09354
1.05587
0.975707
0.926703
0.961122
1.16359
1.62397
1.94669
2.01838
2.05901
2.08282
2.12402
2.48511
4.0912
5.59071
5.81194
5.76951
5.7527
5.73256
5.67282
5.59078
5.47996
5.36281
5.30762
5.28023
5.27398
5.2366
5.17317
5.08563
4.98031
4.90909
4.85718
4.81689
4.77521
4.71948
4.64524
4.56719
4.50729
4.45091
4.39352
4.33476
4.26708
4.18233
4.09759
4.03698
3.98811
3.9391
3.88466
3.81707
3.73301
3.66407
3.62297
3.58651
3.54825
3.50448
3.44511
3.3593
3.26402
3.20179
3.16737
3.14171
3.12343
3.09602
3.05622
2.99483
2.90109
2.80678
2.75341
2.72603
2.7045
2.68971
2.67474
2.65153
2.60957
2.52378
2.43038
2.38266
2.35762
2.34279
2.31148
5.50731
4.92971
4.39111
3.9294
3.48668
3.0803
2.77705
2.51233
2.2477
2.04763
1.85965
1.69853
1.61479
1.52647
1.39883
1.2428
1.17384
1.15091
1.11344
1.14877
1.37042
1.86258
2.19309
2.18837
2.11721
2.07502
2.07782
2.10403
2.14904
2.39157
3.55769
5.16483
5.68503
5.67993
5.62616
5.60368
5.57062
5.52058
5.42393
5.30818
5.23743
5.19349
5.17059
5.13936
5.08279
4.99863
4.89141
4.81964
4.77277
4.73546
4.69611
4.64362
4.57687
4.4984
4.42532
4.36252
4.30167
4.23624
4.1615
4.08346
4.02099
3.97242
3.92609
3.87592
3.81528
3.73903
3.65675
3.59303
3.55054
3.51166
3.47035
3.42381
3.36701
3.30158
3.23158
3.1713
3.12763
3.08825
3.04528
2.99886
2.94665
2.8879
2.82286
2.76763
2.73231
2.71167
2.7002
2.67824
2.64114
2.58173
2.50166
2.42524
2.37739
2.35127
2.3403
2.32165
5.59314
5.07289
4.59079
4.14145
3.71818
3.34747
3.03437
2.74662
2.48288
2.28442
2.10104
1.90586
1.74453
1.67143
1.5867
1.44747
1.31761
1.28214
1.35023
1.61726
2.09569
2.48512
2.47642
2.39999
2.29486
2.22187
2.2037
2.20019
2.20821
2.22649
2.33017
3.08584
4.50952
5.34777
5.49072
5.52229
5.52144
5.51511
5.44548
5.3327
5.19816
5.13239
5.09413
5.08052
5.05107
4.99385
4.90087
4.80506
4.7507
4.71073
4.67406
4.62338
4.56044
4.47722
4.39055
4.32557
4.26936
4.21265
4.1516
4.08194
4.00751
3.94534
3.89806
3.8545
3.8079
3.74979
3.6702
3.58248
3.51621
3.47041
3.42916
3.39061
3.35568
3.31643
3.25927
3.18218
3.11066
3.05455
3.00439
2.95459
2.90345
2.8611
2.82926
2.79631
2.75926
2.71874
2.67432
2.62701
2.57615
2.52176
2.4734
2.44187
2.41401
2.37876
2.34224
2.29156
5.66109
5.18783
4.7479
4.31951
3.91802
3.57779
3.25762
2.96169
2.71627
2.48874
2.29573
2.12761
1.95045
1.79325
1.6882
1.61075
1.55313
1.653
1.97954
2.37521
2.71593
2.73549
2.67772
2.60613
2.52827
2.44225
2.39818
2.38296
2.35563
2.31638
2.28986
2.31855
2.68084
3.74724
4.86516
5.29535
5.47922
5.50602
5.45113
5.33058
5.17434
5.08713
5.04623
5.03469
5.01739
4.96695
4.89098
4.79337
4.73434
4.69245
4.65189
4.59893
4.53376
4.44333
4.34175
4.27665
4.23077
4.18616
4.13876
4.08251
4.00904
3.92872
3.87062
3.82993
3.79074
3.74502
3.67773
3.5781
3.48568
3.43258
3.3956
3.3626
3.33254
3.29882
3.2534
3.18092
3.09227
3.02183
2.96802
2.9193
2.88202
2.85564
2.83081
2.80288
2.76806
2.71759
2.64873
2.58069
2.52746
2.486
2.4633
2.44818
2.4286
2.4007
2.35643
2.27827
5.72244
5.29496
4.88247
4.47321
4.10787
3.77886
3.4603
3.16271
2.92678
2.69737
2.46756
2.29274
2.14738
1.97192
1.83043
1.83235
1.99016
2.5012
2.86452
3.01661
3.00949
2.93354
2.88302
2.83867
2.76767
2.66755
2.59524
2.55324
2.52251
2.48234
2.42238
2.36064
2.33243
2.44748
3.14064
4.28626
5.06902
5.3598
5.42135
5.32431
5.15947
5.04338
5.00564
5.00049
4.98776
4.93609
4.85849
4.75253
4.68408
4.64375
4.60774
4.56224
4.50579
4.42357
4.31512
4.23545
4.19048
4.15195
4.1122
4.06771
4.00976
3.93193
3.854
3.7974
3.75445
3.71248
3.6598
3.58151
3.48265
3.40744
3.36541
3.33213
3.29885
3.26325
3.22183
3.15984
3.06828
2.98774
2.93919
2.90689
2.88074
2.85607
2.83125
2.80577
2.76896
2.70317
2.62109
2.55106
2.5018
2.47714
2.46453
2.46025
2.44336
2.4136
2.36396
2.26457
5.77942
5.38869
4.99516
4.61403
4.27722
3.95302
3.6306
3.35489
3.10831
2.88555
2.65164
2.44145
2.29024
2.14526
2.18001
2.42398
2.94038
3.42571
3.44105
3.319
3.17642
3.10667
3.08539
3.05662
2.99034
2.89325
2.79969
2.73965
2.68927
2.64416
2.58875
2.51505
2.42696
2.36046
2.38651
2.73034
3.64904
4.61608
5.10219
5.23315
5.1525
5.03108
4.97352
4.95644
4.94356
4.89999
4.83055
4.71974
4.62316
4.57869
4.54186
4.50062
4.45431
4.39358
4.31153
4.22859
4.16295
4.11167
4.06798
4.02593
3.9781
3.91602
3.84191
3.77104
3.71228
3.66298
3.61573
3.56088
3.48798
3.40553
3.34304
3.30103
3.26444
3.2262
3.17993
3.11567
3.02998
2.96048
2.93056
2.90966
2.88785
2.86085
2.82625
2.77657
2.71049
2.64264
2.58293
2.54051
2.51613
2.49282
2.46454
2.43061
2.39707
2.36789
2.32522
2.25251
5.83639
5.47175
5.09774
4.75208
4.42509
4.10011
3.7944
3.53128
3.2772
3.03435
2.79783
2.62961
2.49135
2.57875
2.97644
3.42891
3.8296
3.90139
3.78358
3.58129
3.39713
3.32527
3.2999
3.26632
3.20105
3.1053
2.99069
2.9042
2.84767
2.79042
2.73142
2.67098
2.59006
2.47937
2.38509
2.38795
2.50632
3.05886
3.97721
4.728
4.94737
4.992
4.95797
4.92729
4.89853
4.85289
4.7974
4.70457
4.58893
4.51846
4.47425
4.43109
4.38618
4.33854
4.28652
4.22601
4.15691
4.08771
4.02747
3.97513
3.92395
3.86885
3.8075
3.74059
3.67512
3.62012
3.57435
3.5293
3.47519
3.4028
3.32212
3.26237
3.22115
3.18243
3.13655
3.07906
3.013
2.95517
2.92402
2.90359
2.88183
2.8548
2.81793
2.75322
2.66014
2.58516
2.55144
2.53688
2.52425
2.50154
2.46665
2.41649
2.36327
2.32094
2.2893
2.27009
5.9029
5.55223
5.19582
4.87119
4.55374
4.22946
3.95054
3.67969
3.42629
3.15366
2.97456
2.93406
3.12834
3.70364
4.10595
4.17905
4.17975
4.09264
3.9667
3.83105
3.66993
3.57998
3.52912
3.46955
3.39512
3.29529
3.16785
3.0593
2.9865
2.93403
2.87395
2.80906
2.73439
2.63074
2.51594
2.43544
2.415
2.44203
2.67858
3.34756
4.15452
4.65454
4.75641
4.85635
4.86666
4.81305
4.75198
4.67693
4.58499
4.48179
4.41211
4.36755
4.32813
4.28888
4.24836
4.2021
4.14456
4.07231
3.99359
3.92519
3.86876
3.81654
3.76249
3.702
3.63635
3.578
3.53487
3.49796
3.45614
3.39821
3.31509
3.2263
3.16612
3.12613
3.0897
3.05364
3.01623
2.97012
2.91651
2.87975
2.85891
2.83794
2.80132
2.72471
2.6136
2.55085
2.53319
2.52075
2.50768
2.48824
2.46222
2.41119
2.33844
2.28363
2.27612
2.36719
5.93657
5.60067
5.28269
4.96821
4.64773
4.35195
4.07797
3.80532
3.55592
3.32129
3.41764
3.80196
4.39953
4.91894
4.856
4.63245
4.383
4.24619
4.18406
4.09595
3.95696
3.83377
3.7546
3.6724
3.58418
3.48487
3.35715
3.23555
3.13635
3.06191
2.99978
2.92933
2.85497
2.77068
2.66225
2.56462
2.48569
2.43526
2.42334
2.48688
2.8255
3.50077
4.14155
4.54527
4.67405
4.75086
4.72055
4.64797
4.57593
4.46492
4.35948
4.30067
4.26733
4.23646
4.20097
4.15993
4.11327
4.04738
3.95662
3.87511
3.81783
3.76965
3.72124
3.66797
3.60651
3.54158
3.49001
3.45323
3.41868
3.37627
3.31181
3.21714
3.12657
3.07553
3.0479
3.02754
3.00581
2.97399
2.92354
2.86601
2.81934
2.77903
2.73715
2.6817
2.61213
2.55057
2.51812
2.50336
2.49464
2.47746
2.45157
2.40621
2.32858
2.30629
2.34929
2.67547
5.99293
5.6657
5.36536
5.06387
4.74086
4.46825
4.17928
3.95234
3.79033
3.99054
4.63549
5.10712
5.36603
5.36205
5.14683
4.85528
4.62777
4.52
4.46817
4.374
4.22632
4.0548
3.93566
3.84703
3.75421
3.65671
3.54543
3.41212
3.29772
3.19923
3.11829
3.0455
2.96612
2.88596
2.79496
2.69235
2.60602
2.53018
2.45833
2.42096
2.41286
2.50973
2.89284
3.54474
4.10796
4.44401
4.56429
4.60081
4.55457
4.45224
4.32692
4.24433
4.21228
4.18532
4.14855
4.10608
4.06243
3.99998
3.9052
3.82853
3.77702
3.73164
3.6865
3.63898
3.58337
3.51548
3.44772
3.39876
3.36223
3.32578
3.27824
3.20919
3.1223
3.05685
3.02625
3.0049
2.98231
2.95415
2.91
2.84298
2.77415
2.7198
2.67539
2.64057
2.61041
2.57432
2.52707
2.47438
2.43349
2.4161
2.40486
2.39733
2.42702
2.54528
2.78322
3.2175
6.01223
5.71777
5.42791
5.11788
4.82422
4.55498
4.32037
4.32964
4.72611
5.53689
5.9156
5.93101
5.85514
5.60107
5.35932
5.1197
4.91879
4.81406
4.7384
4.62505
4.4714
4.28235
4.11631
4.01262
3.92333
3.82445
3.72064
3.59599
3.45483
3.34645
3.25452
3.17199
3.09034
3.00212
2.90551
2.80199
2.70203
2.62543
2.55613
2.47847
2.41732
2.38142
2.38171
2.50071
2.91924
3.53576
4.07661
4.34228
4.42586
4.40507
4.28171
4.20288
4.17714
4.1394
4.10107
4.05795
4.00935
3.92934
3.84312
3.78981
3.74531
3.70317
3.66032
3.614
3.55932
3.49261
3.4145
3.34592
3.29607
3.25624
3.21974
3.17776
3.12386
3.06488
3.01364
2.97771
2.94878
2.91738
2.8736
2.80005
2.71451
2.66411
2.64072
2.6236
2.60204
2.57288
2.52207
2.45309
2.39573
2.38378
2.40387
2.51984
2.76776
3.12745
3.41682
3.58603
6.0772
5.7912
5.51082
5.18412
4.93383
4.72752
4.95735
5.63733
6.45833
6.74375
6.44958
6.21769
6.07459
5.86852
5.66317
5.44829
5.20711
5.06542
4.96827
4.84928
4.69962
4.5101
4.32692
4.19202
4.0881
3.9838
3.86836
3.74761
3.60965
3.47979
3.38151
3.29374
3.20794
3.11695
3.016
2.90488
2.79816
2.70661
2.63558
2.57021
2.49777
2.41465
2.35898
2.30099
2.31609
2.48629
2.96434
3.54292
4.05414
4.21671
4.17618
4.17442
4.14821
4.10507
4.07576
4.01896
3.90472
3.81171
3.77534
3.73639
3.70747
3.67599
3.63583
3.58758
3.5356
3.46821
3.37937
3.3048
3.24757
3.19873
3.15718
3.12272
3.09233
3.05947
3.01354
2.95732
2.91122
2.87411
2.82798
2.74332
2.65967
2.63532
2.61945
2.60143
2.58256
2.55997
2.51957
2.44864
2.42641
2.47244
2.65344
2.98019
3.34481
3.64663
3.77809
3.75148
6.1558
5.87275
5.541
5.28401
5.22652
5.68644
6.62422
7.17907
7.44917
7.2277
6.76624
6.41401
6.26549
6.14528
5.95338
5.74004
5.48559
5.29311
5.18114
5.06393
4.91668
4.73203
4.53172
4.37801
4.25022
4.13554
4.01568
3.88531
3.75417
3.6257
3.51098
3.41335
3.32005
3.22347
3.12027
3.00923
2.8986
2.79929
2.71393
2.64069
2.57238
2.49503
2.4098
2.33255
2.27613
2.23198
2.27228
2.50851
3.01651
3.57869
3.86778
4.00455
4.07692
4.09287
4.06783
3.98094
3.83524
3.70458
3.67321
3.67767
3.6845
3.65437
3.6093
3.55362
3.46864
3.36854
3.30433
3.2547
3.21262
3.1665
3.11647
3.07941
3.05845
3.03733
2.99817
2.94203
2.89277
2.83892
2.7706
2.69488
2.62894
2.58329
2.56397
2.55263
2.54879
2.54555
2.54425
2.56976
2.67293
2.92836
3.26481
3.5558
3.79065
3.82214
3.79378
3.72943
6.19634
5.88455
5.58138
5.76325
6.62006
7.70489
8.03629
7.90854
7.75805
7.45964
7.05998
6.69147
6.53878
6.43676
6.21587
5.98561
5.7683
5.54585
5.39751
5.26914
5.113
4.93534
4.73
4.55133
4.41121
4.28227
4.15875
4.02686
3.88771
3.75335
3.62875
3.51704
3.41623
3.31652
3.21407
3.10695
2.99651
2.88871
2.79156
2.70709
2.63033
2.55616
2.47785
2.39808
2.31195
2.23444
2.2005
2.18348
2.252
2.54565
3.04728
3.4667
3.79643
3.93728
3.95779
3.92229
3.81005
3.67582
3.59243
3.5742
3.57197
3.56964
3.54953
3.50659
3.41623
3.29374
3.23724
3.22192
3.19321
3.15097
3.10956
3.06296
2.99826
2.93613
2.91985
2.91306
2.88131
2.82057
2.73557
2.6639
2.6064
2.55727
2.53817
2.53526
2.53608
2.58504
2.72835
2.99296
3.29981
3.64883
3.82994
3.8395
3.81107
3.77567
3.74311
3.70533
6.13411
6.00205
6.45554
7.70383
8.77661
9.00498
8.5538
8.20046
7.93624
7.68103
7.36807
7.0233
6.83131
6.70464
6.49068
6.2229
6.01247
5.79804
5.6079
5.45634
5.28784
5.10412
4.91319
4.72524
4.56695
4.42934
4.29595
4.1599
4.01494
3.86616
3.72789
3.60537
3.49636
3.3941
3.29538
3.19728
3.09495
2.9878
2.88035
2.78109
2.69145
2.60483
2.51873
2.44799
2.39008
2.31892
2.23335
2.17438
2.13629
2.13912
2.24699
2.5397
3.01177
3.42395
3.68915
3.79246
3.77529
3.70123
3.58636
3.50781
3.48011
3.46785
3.44926
3.42018
3.37605
3.27744
3.16806
3.12455
3.11299
3.11218
3.09023
3.0438
2.97428
2.90456
2.84221
2.80769
2.78126
2.7431
2.69202
2.64483
2.61036
2.57098
2.54404
2.56316
2.66751
2.94057
3.29586
3.61055
3.84534
3.98488
3.98453
3.93797
3.82524
3.76765
3.76133
3.75203
5.34027
7.07082
8.97322
9.61228
9.75135
9.38703
8.82752
8.40258
8.13626
7.92773
7.66018
7.34745
7.12498
6.96359
6.75617
6.4831
6.2369
6.03466
5.83152
5.64868
5.46982
5.27868
5.08694
4.90111
4.72964
4.57553
4.43241
4.28871
4.13279
3.96926
3.82022
3.69067
3.57601
3.46901
3.3647
3.26225
3.1639
3.06729
2.96621
2.86554
2.76995
2.68229
2.5962
2.49039
2.37945
2.33626
2.30956
2.25571
2.18601
2.13206
2.08023
2.07311
2.1871
2.52168
2.97032
3.37951
3.65167
3.68033
3.62489
3.49406
3.37465
3.34511
3.33728
3.33417
3.30904
3.2593
3.15693
3.06795
3.03833
3.01888
3.00407
2.9937
2.96968
2.91382
2.81902
2.72724
2.67973
2.65571
2.64268
2.64263
2.63765
2.64989
2.71788
2.91666
3.22264
3.55985
3.81321
3.9872
4.04459
4.04705
4.0133
3.93573
3.8583
3.82093
3.81655
3.78627
4.07342
9.81325
10.78
10.3225
9.98126
9.54331
9.10559
8.71001
8.44463
8.23529
7.9634
7.64538
7.39259
7.19863
6.97596
6.70632
6.43362
6.21604
6.02066
5.83205
5.63835
5.4337
5.22885
5.03549
4.86704
4.71669
4.55713
4.39566
4.24217
4.0776
3.91654
3.78549
3.66753
3.54671
3.41955
3.29777
3.18963
3.09299
3.00119
2.9147
2.83641
2.75887
2.66475
2.55061
2.44257
2.35896
2.2946
2.24008
2.1813
2.12901
2.07311
2.02604
1.96911
1.99872
2.18077
2.56694
3.03201
3.42741
3.54248
3.50358
3.35717
3.26446
3.24722
3.25482
3.24575
3.20411
3.1411
3.03433
2.96183
2.94087
2.92821
2.91109
2.88991
2.86115
2.79517
2.6891
2.61853
2.59724
2.60284
2.62715
2.73277
2.96689
3.30917
3.61542
3.86086
4.00803
4.03166
4.05568
4.0583
4.02857
3.97412
3.92863
3.90042
3.86462
3.83141
3.76758
4.55564
11.5399
11.4597
10.6698
10.1671
9.75898
9.37258
8.98406
8.692
8.48316
8.23797
7.91541
7.65682
7.46039
7.23798
6.97364
6.70081
6.4763
6.27507
6.08664
5.88553
5.63232
5.37086
5.20221
5.06544
4.91433
4.74182
4.53102
4.33332
4.20073
4.08357
3.95081
3.8194
3.68817
3.54065
3.38189
3.23918
3.12757
3.05393
2.99673
2.93118
2.85614
2.76742
2.65449
2.52411
2.4
2.31455
2.26624
2.23096
2.19074
2.13669
2.06137
1.99563
1.90959
1.88571
1.95332
2.23394
2.67176
3.1132
3.37458
3.34291
3.23804
3.18301
3.15695
3.15141
3.12379
3.08213
3.01682
2.92797
2.87861
2.85902
2.84207
2.81921
2.78928
2.74328
2.67076
2.61354
2.60877
2.65088
2.83691
3.24489
3.6482
3.95108
4.09063
4.1446
4.12605
4.07644
4.05773
4.03776
4.02031
3.99972
3.98041
3.95682
3.91382
3.85348
3.75931
5.09812
11.1212
10.9562
10.3991
10.1105
9.80641
9.48269
9.17862
8.95093
8.79083
8.51262
8.15907
7.86925
7.64257
7.40778
7.13344
6.84088
6.60727
6.39021
6.17377
5.98031
5.80299
5.58335
5.33375
5.10373
4.92602
4.79471
4.66923
4.50002
4.3007
4.10981
3.94363
3.80088
3.68403
3.59154
3.49296
3.35538
3.19779
3.05454
2.94935
2.87218
2.80937
2.75385
2.69889
2.61359
2.49294
2.37254
2.2821
2.21695
2.16335
2.11565
2.07341
2.0261
1.95836
1.87665
1.80629
1.82716
1.97571
2.30205
2.74996
3.1203
3.16548
3.10571
3.07217
3.05722
3.05122
3.02501
2.98319
2.91436
2.83585
2.78807
2.76268
2.73399
2.70847
2.69435
2.66173
2.6728
2.79043
3.13365
3.54434
3.95942
4.09379
4.1837
4.21746
4.20334
4.16044
4.09224
4.04476
4.02361
4.00979
3.99481
3.98041
3.95987
3.91901
3.85441
3.77697
5.50266
10.6991
10.7934
10.4503
10.2313
9.96436
9.69906
9.44972
9.21746
8.95216
8.6058
8.27685
8.00223
7.7757
7.56458
7.29908
6.99696
6.74644
6.53618
6.30403
6.0698
5.8517
5.6477
5.43179
5.21458
5.02682
4.8592
4.69243
4.52774
4.35004
4.16025
3.99119
3.85667
3.74224
3.63042
3.51334
3.39036
3.25591
3.12336
3.0101
2.91792
2.83803
2.75987
2.67707
2.58808
2.49752
2.407
2.32473
2.2542
2.19143
2.13166
2.07141
2.01225
1.95149
1.88647
1.83041
1.77117
1.76027
1.81273
2.02019
2.41052
2.81797
2.9725
3.00197
2.98584
2.96964
2.95753
2.92681
2.88166
2.81615
2.73341
2.6835
2.65457
2.65907
2.67718
2.78623
3.0717
3.54659
3.95382
4.17044
4.25864
4.25468
4.27005
4.26477
4.2303
4.16521
4.09693
4.06146
4.05005
4.03764
4.02328
3.99996
3.96427
3.90815
3.84423
3.77683
5.45222
10.4096
10.5982
10.3844
10.2355
10.0105
9.7786
9.55496
9.30921
9.01712
8.70466
8.42724
8.18596
7.96529
7.72155
7.42289
7.11742
6.85839
6.64351
6.41864
6.18198
5.94332
5.70564
5.48835
5.29491
5.11753
4.94543
4.77332
4.59629
4.40821
4.21799
4.04842
3.90876
3.78835
3.67321
3.5566
3.43419
3.3071
3.18169
3.06294
2.95294
2.85367
2.76431
2.68127
2.60181
2.52543
2.44878
2.36692
2.27958
2.19573
2.12375
2.06669
2.01903
1.97808
1.93586
1.87858
1.79881
1.7034
1.65876
1.68131
1.80487
2.10958
2.5429
2.83613
2.86603
2.88039
2.87324
2.8563
2.82187
2.7659
2.69453
2.65557
2.65301
2.69067
2.89264
3.37559
3.86096
4.24681
4.36604
4.40823
4.36883
4.3154
4.26823
4.23015
4.19772
4.16526
4.12857
4.10109
4.08302
4.06072
4.0312
3.99602
3.95419
3.90487
3.86279
3.80253
5.32224
10.3178
10.5508
10.3368
10.2027
10.0231
9.83571
9.6255
9.36996
9.07728
8.78851
8.5323
8.30047
8.06313
7.77489
7.46372
7.17863
6.9331
6.73074
6.5361
6.30286
6.05506
5.78213
5.53251
5.32884
5.14889
4.98341
4.82629
4.6634
4.48221
4.28814
4.10338
3.94223
3.80694
3.69077
3.58229
3.47134
3.35085
3.2211
3.08973
2.96567
2.85516
2.76366
2.68919
2.62151
2.55066
2.46999
2.38047
2.28775
2.19902
2.12542
2.07607
2.03792
1.99857
1.94886
1.88593
1.80275
1.71123
1.64014
1.62045
1.62812
1.69757
1.91446
2.28936
2.60253
2.76208
2.778
2.7847
2.77176
2.7429
2.69689
2.69524
2.80976
3.16521
3.71176
4.18581
4.3548
4.52141
4.52414
4.45993
4.35077
4.27608
4.24736
4.23985
4.22783
4.20598
4.16857
4.1214
4.0798
4.04519
4.01446
3.98113
3.94693
3.91512
3.88558
3.82346
5.15098
10.3092
10.5446
10.3309
10.215
10.044
9.84702
9.61172
9.34745
9.08291
8.84068
8.61171
8.3699
8.09648
7.79793
7.5084
7.2551
7.03583
6.83017
6.60297
6.34844
6.07592
5.8054
5.57388
5.38033
5.20879
5.04666
4.88006
4.6943
4.49469
4.30398
4.13699
3.98989
3.85582
3.7315
3.61117
3.4857
3.35399
3.22409
3.10312
2.99221
2.88843
2.79237
2.70675
2.6263
2.54479
2.46148
2.38009
2.30189
2.22545
2.15168
2.08627
2.03192
1.98323
1.93246
1.87639
1.81031
1.73711
1.67281
1.62473
1.59568
1.58233
1.61036
1.73144
2.00712
2.36444
2.54785
2.64727
2.69436
2.73657
2.8614
3.13223
3.58617
4.07466
4.4001
4.5736
4.56239
4.53344
4.47104
4.39214
4.33265
4.27917
4.25495
4.24778
4.23811
4.22283
4.19084
4.14213
4.09171
4.0514
4.01956
3.98687
3.95516
3.92406
3.89306
3.82992
5.00395
10.3179
10.5552
10.3269
10.2026
10.0263
9.8333
9.61637
9.38402
9.14537
8.89976
8.63734
8.35988
8.07976
7.81094
7.56252
7.32405
7.08578
6.82491
6.55647
6.30824
6.08606
5.88315
5.68193
5.48133
5.27715
5.0646
4.85138
4.65503
4.48294
4.33092
4.19058
4.05363
3.90883
3.74976
3.59274
3.45419
3.33503
3.22826
3.12663
3.02714
2.92739
2.82345
2.71321
2.60961
2.52367
2.45204
2.38701
2.32167
2.25219
2.17654
2.0965
2.0192
1.9594
1.91286
1.86855
1.81998
1.76953
1.71483
1.65044
1.59389
1.54957
1.52697
1.52796
1.58638
1.78518
2.15155
2.44589
2.66056
3.00622
3.44107
3.8146
4.25072
4.48588
4.5293
4.52829
4.50076
4.47705
4.43831
4.40733
4.37675
4.32776
4.28501
4.25888
4.23515
4.20831
4.17643
4.13645
4.0953
4.06365
4.0369
4.01086
3.97904
3.944
3.90855
3.83795
4.94268
10.3241
10.5667
10.3314
10.2049
10.0261
9.83356
9.62044
9.3944
9.15318
8.89628
8.62689
8.36126
8.10633
7.8646
7.61245
7.34583
7.06662
6.79413
6.5437
6.31953
6.13078
5.95903
5.75243
5.53371
5.2964
5.04912
4.82704
4.64439
4.49208
4.35759
4.2296
4.09193
3.92814
3.74332
3.57065
3.43249
3.3232
3.23089
3.14735
3.06529
2.96774
2.84289
2.7065
2.59109
2.50471
2.43886
2.38566
2.33661
2.28091
2.20212
2.09741
2.00205
1.93727
1.89308
1.85805
1.82911
1.79634
1.73943
1.65501
1.58451
1.53601
1.49849
1.48143
1.47214
1.50888
1.68413
2.11081
2.81236
3.54323
4.16809
4.70682
5.02897
4.93746
4.71541
4.54498
4.48506
4.44191
4.41036
4.40025
4.38603
4.35006
4.31937
4.29187
4.25688
4.21927
4.1825
4.13767
4.09105
4.0588
4.03162
4.00939
3.98078
3.94638
3.91146
3.83946
)
;

boundaryField
{
    inlet
    {
        type            fixedValue;
        value           uniform 1;
    }
    outlet
    {
        type            zeroGradient;
    }
    bottom
    {
        type            symmetryPlane;
    }
    top
    {
        type            symmetryPlane;
    }
    obstacle
    {
        type            zeroGradient;
    }
    defaultFaces
    {
        type            empty;
    }
}


// ************************************************************************* //
