/*--------------------------------*- C++ -*----------------------------------*\
  =========                 |
  \\      /  F ield         | OpenFOAM: The Open Source CFD Toolbox
   \\    /   O peration     | Website:  https://openfoam.org
    \\  /    A nd           | Version:  7
     \\/     M anipulation  |
\*---------------------------------------------------------------------------*/
FoamFile
{
    version     2.0;
    format      ascii;
    class       volScalarField;
    location    "4.5";
    object      rho;
}
// * * * * * * * * * * * * * * * * * * * * * * * * * * * * * * * * * * * * * //

dimensions      [1 -3 0 0 0 0 0];

internalField   nonuniform List<scalar> 
4032
(
1.40001
1.40001
1.40001
1.40001
1.40001
1.40001
1.40001
1.40001
1.40001
1.40001
1.40001
1.57211
4.37754
5.46611
5.51464
5.59081
5.65785
5.72098
5.77846
5.83013
5.87595
5.91261
5.94023
5.9607
1.40001
1.40001
1.40001
1.40001
1.40001
1.40001
1.40001
1.40001
1.40001
1.40001
1.40001
1.54955
4.30807
5.45151
5.50904
5.58355
5.64931
5.71079
5.76651
5.81591
5.85901
5.89296
5.91754
5.93682
1.40001
1.40001
1.40001
1.40001
1.40001
1.40001
1.40001
1.40001
1.40001
1.40001
1.40001
1.49447
4.19857
5.44177
5.49367
5.56725
5.63302
5.69392
5.74863
5.79622
5.83671
5.86772
5.88786
5.90418
1.40001
1.40001
1.40001
1.40001
1.40001
1.40001
1.40001
1.40001
1.40001
1.40001
1.40001
1.41013
4.01383
5.42579
5.47387
5.54107
5.60335
5.6604
5.71217
5.75781
5.79734
5.82721
5.84431
5.85692
1.40001
1.40001
1.40001
1.40001
1.40001
1.40001
1.40001
1.40001
1.40001
1.40001
1.40001
1.40014
3.73626
5.36598
5.42852
5.49277
5.55547
5.6114
5.66072
5.70135
5.73347
5.75774
5.77133
5.78907
1.40001
1.40001
1.40001
1.40001
1.40001
1.40001
1.40001
1.40001
1.40001
1.40001
1.40001
1.4
3.37843
5.28199
5.38942
5.4481
5.50702
5.55583
5.59721
5.63137
5.65944
5.68307
5.69254
5.68263
1.40001
1.40001
1.40001
1.40001
1.40001
1.40001
1.40001
1.40001
1.40001
1.40001
1.40001
1.4
2.95889
5.1636
5.3615
5.41135
5.45839
5.49336
5.51969
5.53878
5.54589
5.5346
5.51618
5.50752
1.40001
1.40001
1.40001
1.40001
1.40001
1.40001
1.40001
1.40001
1.40001
1.40001
1.40001
1.40001
2.48503
5.00249
5.37062
5.39453
5.42152
5.43803
5.44283
5.43964
5.42142
5.39113
5.33581
5.30837
1.40001
1.40001
1.40001
1.40001
1.40001
1.40001
1.40001
1.40001
1.40001
1.40001
1.40001
1.40001
1.96843
4.7614
5.4032
5.37809
5.38866
5.38582
5.36853
5.3384
5.27881
5.17476
4.86079
4.01036
1.40001
1.40001
1.40001
1.40001
1.40001
1.40001
1.40001
1.40001
1.40001
1.40001
1.40001
1.40001
1.49281
4.32548
5.42156
5.36581
5.34422
5.31665
5.27701
5.217
5.11585
4.92719
4.5987
3.70314
1.40001
1.40001
1.40001
1.40001
1.40001
1.40001
1.40001
1.40001
1.40001
1.40001
1.40001
1.40001
1.40107
3.60803
5.18088
5.24281
5.25484
5.22665
5.1774
5.09314
4.9628
4.73009
4.3876
3.5641
1.40001
1.40001
1.40001
1.40001
1.40001
1.40001
1.40001
1.40001
1.40001
1.40001
1.40001
1.40001
1.39999
2.78853
4.98726
5.20259
5.20154
5.16831
5.10595
4.99795
4.83891
4.59451
4.21562
3.54294
1.40001
1.40001
1.40001
1.40001
1.40001
1.40001
1.40001
1.40001
1.40001
1.40001
1.40001
1.40001
1.4
1.97158
4.72189
5.21199
5.1589
5.09979
5.02304
4.903
4.72889
4.48693
4.10116
3.57149
1.40001
1.40001
1.40001
1.40001
1.40001
1.40001
1.40001
1.40001
1.40001
1.40001
1.40001
1.40001
1.4
1.47048
3.98541
5.10205
5.07559
5.02391
4.94296
4.82025
4.64861
4.40424
4.04585
3.62234
1.40001
1.40001
1.40001
1.40001
1.40001
1.40001
1.40001
1.40001
1.40001
1.40001
1.40001
1.40001
1.4
1.40027
2.90007
4.93018
5.04377
4.99041
4.90106
4.75962
4.58623
4.3373
4.0215
3.66898
1.40001
1.40001
1.40001
1.40001
1.40001
1.40001
1.40001
1.40001
1.40001
1.40001
1.40001
1.40001
1.40001
1.4
1.79967
4.66681
5.10445
4.97376
4.85169
4.70222
4.51451
4.28972
4.0187
3.71687
1.40001
1.40001
1.40001
1.40001
1.40001
1.40001
1.40001
1.40001
1.40001
1.40001
1.40001
1.40001
1.40001
1.4
1.42402
3.73348
4.95252
4.87004
4.777
4.63996
4.46602
4.2599
4.01837
3.75167
1.40001
1.40001
1.40001
1.40001
1.40001
1.40001
1.40001
1.40001
1.40001
1.40001
1.40001
1.40001
1.40001
1.4
1.39993
2.44016
4.75972
4.84961
4.77296
4.63965
4.46728
4.2621
4.0285
3.78628
1.40001
1.40001
1.40001
1.40001
1.40001
1.40001
1.40001
1.40001
1.40001
1.40001
1.40001
1.40001
1.40001
1.40001
1.39999
1.56756
3.99974
4.85914
4.76512
4.62697
4.45761
4.26188
4.04408
3.82175
1.40001
1.40001
1.40001
1.40001
1.40001
1.40001
1.40001
1.40001
1.40001
1.40001
1.40001
1.40001
1.40001
1.40001
1.4
1.40294
2.68171
4.6681
4.73653
4.60607
4.44994
4.26616
4.06733
3.86041
1.40001
1.40001
1.40001
1.40001
1.40001
1.40001
1.40001
1.40001
1.40001
1.40001
1.40001
1.40001
1.40001
1.40001
1.4
1.4
1.64614
4.00638
4.76935
4.61834
4.46345
4.28169
4.09426
3.89861
1.40001
1.40001
1.40001
1.40001
1.40001
1.40001
1.40001
1.40001
1.40001
1.40001
1.40001
1.40001
1.40001
1.40001
1.40001
1.4
1.40707
2.6367
4.5729
4.60951
4.46203
4.29162
4.11577
3.93537
1.40001
1.40001
1.40001
1.40001
1.40001
1.40001
1.40001
1.40001
1.40001
1.40001
1.40001
1.40001
1.40001
1.40001
1.40001
1.4
1.40003
1.62243
3.81158
4.66498
4.49255
4.33077
4.16119
3.98839
1.40001
1.40001
1.40001
1.40001
1.40001
1.40001
1.40001
1.40001
1.40001
1.40001
1.40001
1.40001
1.40001
1.40001
1.40001
1.40001
1.40001
1.40603
2.35289
4.34154
4.51198
4.36675
4.20555
4.03845
1.40001
1.40001
1.40001
1.40001
1.40001
1.40001
1.40001
1.40001
1.40001
1.40001
1.40001
1.40001
1.40001
1.40001
1.40001
1.40001
1.40001
1.40003
1.52423
3.33537
4.53613
4.42879
4.27165
4.10383
1.40001
1.40001
1.40001
1.40001
1.40001
1.40001
1.40001
1.40001
1.40001
1.40001
1.40001
1.40001
1.40001
1.40001
1.40001
1.40001
1.40001
1.40001
1.40228
1.96923
4.0126
4.47157
4.31739
4.14741
1.40001
1.40001
1.40001
1.40001
1.40001
1.40001
1.40001
1.40001
1.40001
1.40001
1.40001
1.40001
1.40001
1.40001
1.40001
1.40001
1.40001
1.40001
1.40002
1.4418
2.67756
4.28045
4.35271
4.21175
1.40001
1.40001
1.40001
1.40001
1.40001
1.40001
1.40001
1.40001
1.40001
1.40001
1.40001
1.40001
1.40001
1.40001
1.40001
1.40001
1.40001
1.40001
1.40001
1.40054
1.62502
3.3881
4.34241
4.28872
1.40001
1.40001
1.40001
1.40001
1.40001
1.40001
1.40001
1.40001
1.40001
1.40001
1.40001
1.40001
1.40001
1.40001
1.40001
1.40001
1.40001
1.40001
1.40001
1.40001
1.40736
2.01595
3.83074
4.31463
1.40001
1.40001
1.40001
1.40001
1.40001
1.40001
1.40001
1.40001
1.40001
1.40001
1.40001
1.40001
1.40001
1.40001
1.40001
1.40001
1.40001
1.40001
1.40001
1.40001
1.40006
1.44943
2.49702
4.11362
1.40001
1.40001
1.40001
1.40001
1.40001
1.40001
1.40001
1.40001
1.40001
1.40001
1.40001
1.40001
1.40001
1.40001
1.40001
1.40001
1.40001
1.40001
1.40001
1.40001
1.40001
1.40075
1.56422
3.07283
1.40001
1.40001
1.40001
1.40001
1.40001
1.40001
1.40001
1.40001
1.40001
1.40001
1.40001
1.40001
1.40001
1.40001
1.40001
1.40001
1.40001
1.40001
1.40001
1.40001
1.40001
1.40001
1.40511
1.79396
1.40001
1.40001
1.40001
1.40001
1.40001
1.40001
1.40001
1.40001
1.40001
1.40001
1.40001
1.40001
1.40001
1.40001
1.40001
1.40001
1.40001
1.40001
1.40001
1.40001
1.40001
1.40001
1.40004
1.42247
1.40001
1.40001
1.40001
1.40001
1.40001
1.40001
1.40001
1.40001
1.40001
1.40001
1.40001
1.40001
1.40001
1.40001
1.40001
1.40001
1.40001
1.40001
1.40001
1.40001
1.40001
1.40001
1.40001
1.4005
1.40001
1.40001
1.40001
1.40001
1.40001
1.40001
1.40001
1.40001
1.40001
1.40001
1.40001
1.40001
1.40001
1.40001
1.40001
1.40001
1.40001
1.40001
1.40001
1.40001
1.40001
1.40001
1.40001
1.40001
1.40001
1.40001
1.40001
1.40001
1.40001
1.40001
1.40001
1.40001
1.40001
1.40001
1.40001
1.40001
1.40001
1.40001
1.40001
1.40001
1.40001
1.40001
1.40001
1.40001
1.40001
1.40001
1.40001
1.40001
1.40001
1.40001
1.40001
1.40001
1.40001
1.40001
1.40001
1.40001
1.40001
1.40001
1.40001
1.40001
1.40001
1.40001
1.40001
1.40001
1.40001
1.40001
1.40001
1.40001
1.40001
1.40001
1.40001
1.40001
1.40001
1.40001
1.40001
1.40001
1.40001
1.40001
1.40001
1.40001
1.40001
1.40001
1.40001
1.40001
1.40001
1.40001
1.40001
1.40001
1.40001
1.40001
1.40001
1.40001
1.40001
1.40001
1.40001
1.40001
1.40001
1.40001
1.40001
1.40001
1.40001
1.40001
1.40001
1.40001
1.40001
1.40001
1.40001
1.40001
1.40001
1.40001
1.40001
1.40001
1.40001
1.40001
1.40001
1.40001
1.40001
1.40001
1.40001
1.40001
1.40001
1.40001
1.40001
1.40001
1.40001
1.40001
1.40001
1.40001
1.40001
1.40001
1.40001
1.40001
1.40001
1.40001
1.40001
1.40001
1.40001
1.40001
1.40001
1.40001
1.40001
1.40001
1.40001
1.40001
1.33596
0.507499
0.210675
0.214266
0.239282
0.276784
0.348032
0.450858
0.604863
0.752349
0.854642
0.870549
0.857308
0.870482
0.918577
0.992894
1.06306
1.09256
1.08844
1.06453
1.0309
1.03072
1.04616
1.08127
1.09987
1.92042
2.73945
2.83651
2.88805
2.92024
2.93285
2.93635
2.94148
2.95312
2.96091
2.953
2.92542
2.8909
2.86719
2.85908
2.86188
2.86407
2.8478
2.81159
2.77059
2.73592
2.71534
2.71306
2.71805
2.69723
2.65343
2.60656
2.57058
2.54781
2.54293
2.54161
2.52257
2.49126
2.45238
2.4127
2.38322
2.36235
2.3533
2.33877
2.31184
2.2811
2.24714
2.21521
2.18972
2.16841
2.15105
2.13495
2.11649
2.09589
2.07228
2.04952
2.02967
2.01043
1.98969
1.96542
1.93693
1.90777
1.88337
1.86401
1.84763
1.83562
1.82548
1.81159
1.79272
1.76106
1.71939
1.68993
1.67465
1.66408
1.65955
1.64283
1.99716
1.22216
0.836293
0.707435
0.638226
0.572131
0.526375
0.53073
0.554768
0.603202
0.665132
0.733156
0.785324
0.821476
0.866413
0.931213
0.999504
1.05397
1.07261
1.07392
1.05966
1.06097
1.07117
1.08938
1.10439
1.83768
2.7737
2.93381
2.96414
2.9741
2.98008
2.98318
2.97946
2.97046
2.96257
2.96136
2.95761
2.93444
2.89985
2.87171
2.85486
2.85134
2.85283
2.84665
2.81985
2.77966
2.74121
2.71111
2.69628
2.69181
2.67781
2.64841
2.61212
2.57543
2.54546
2.52251
2.50839
2.49593
2.47567
2.44803
2.41599
2.38333
2.35401
2.3289
2.31033
2.29135
2.26701
2.2406
2.21141
2.18137
2.15514
2.13494
2.11613
2.09605
2.07438
2.05085
2.02806
2.00912
1.99116
1.97122
1.94989
1.92757
1.90299
1.87834
1.85647
1.83848
1.82086
1.80283
1.78603
1.7645
1.73754
1.71039
1.68628
1.66938
1.66001
1.64138
2.49258
1.81049
1.37373
1.13313
1.00105
0.879136
0.74695
0.649019
0.624757
0.638827
0.67599
0.733222
0.807782
0.851804
0.866132
0.895077
0.950242
1.01881
1.08273
1.11942
1.12855
1.14065
1.14757
1.14152
1.14004
1.69777
2.9524
3.18375
3.11139
3.08002
3.08204
3.10172
3.11672
3.09965
3.06485
3.03897
3.03326
3.03842
3.02657
2.99114
2.94825
2.91262
2.89034
2.88859
2.89493
2.88637
2.85453
2.80799
2.75819
2.7242
2.70798
2.70392
2.69135
2.66419
2.62221
2.5664
2.52696
2.50554
2.4977
2.49601
2.48082
2.45358
2.41461
2.36899
2.33746
2.31481
2.29765
2.28094
2.25962
2.23324
2.19827
2.16257
2.13907
2.1204
2.10181
2.08112
2.05438
2.0209
1.99113
1.97276
1.96061
1.95094
1.93667
1.91878
1.89489
1.86278
1.82856
1.80046
1.77704
1.76148
1.75126
1.73879
1.72195
1.69744
1.67143
1.64511
2.8272
2.28773
1.85678
1.50917
1.31396
1.20093
1.09384
0.956406
0.828669
0.802865
0.803511
0.800967
0.80403
0.80426
0.802631
0.805905
0.837246
0.903836
0.991277
1.06596
1.10098
1.12587
1.15117
1.1659
1.19744
1.53168
3.11431
3.54742
3.37831
3.24665
3.23841
3.25274
3.27268
3.25346
3.21552
3.16651
3.1412
3.13281
3.13207
3.11813
3.08703
3.0437
3.00169
2.9754
2.96143
2.95861
2.94594
2.91913
2.8811
2.83383
2.80188
2.78111
2.76063
2.73496
2.70213
2.65891
2.61344
2.58348
2.56573
2.55553
2.53906
2.51494
2.48324
2.44305
2.4065
2.37964
2.35606
2.3327
2.30943
2.28411
2.25104
2.20897
2.17519
2.15562
2.13937
2.12249
2.1021
2.07419
2.04052
2.01227
1.9944
1.98029
1.96772
1.95346
1.93512
1.90685
1.86648
1.82399
1.79666
1.78248
1.7713
1.7623
1.75124
1.73447
1.70853
1.66573
3.03848
2.58146
2.22149
1.91501
1.61929
1.42258
1.33392
1.2352
1.11413
0.982158
0.906999
0.884812
0.870255
0.85801
0.844149
0.832384
0.813564
0.818486
0.850597
0.918221
1.00024
1.05677
1.10433
1.17654
1.37323
1.66202
2.64556
3.63139
3.62184
3.45741
3.3804
3.36045
3.37933
3.37934
3.35735
3.31131
3.25845
3.23285
3.21582
3.20851
3.19739
3.17023
3.13057
3.08091
3.04765
3.0259
3.01401
3.0024
2.98184
2.95191
2.90961
2.86816
2.83407
2.8018
2.76907
2.73542
2.70135
2.67171
2.64826
2.62553
2.60111
2.57272
2.54095
2.50835
2.47862
2.45216
2.4265
2.4007
2.37398
2.34463
2.30962
2.267
2.2269
2.20039
2.1802
2.16101
2.14124
2.12018
2.09789
2.07351
2.0479
2.02579
2.0069
1.98698
1.96347
1.93533
1.9036
1.87291
1.84692
1.82539
1.80955
1.79615
1.78226
1.76392
1.74092
1.69894
3.20673
2.80756
2.45991
2.19211
1.93692
1.69866
1.51323
1.41246
1.33307
1.23651
1.11273
1.00947
0.987256
0.982192
0.956947
0.920666
0.878996
0.845173
0.843642
0.851421
0.875336
0.918674
0.980263
1.19195
1.60728
1.80341
2.05623
2.9283
3.58297
3.57593
3.51889
3.44189
3.42931
3.43584
3.41889
3.38158
3.31226
3.25945
3.23653
3.22956
3.24169
3.23046
3.19952
3.14865
3.09656
3.07038
3.05626
3.05452
3.04088
3.01414
2.97054
2.91452
2.87393
2.84549
2.81959
2.79464
2.76931
2.7407
2.70823
2.67603
2.64581
2.61674
2.58876
2.56096
2.5308
2.49863
2.47004
2.4456
2.42162
2.39578
2.36545
2.32677
2.28244
2.24846
2.22565
2.20535
2.18545
2.1668
2.1492
2.12902
2.10158
2.06856
2.03968
2.0151
1.99113
1.96803
1.94731
1.92752
1.90435
1.87651
1.85012
1.82908
1.8095
1.78738
1.767
1.735
3.31878
2.97524
2.66068
2.38505
2.14976
1.94892
1.76048
1.57169
1.46184
1.40688
1.3263
1.22355
1.11782
1.06375
1.03655
1.00589
0.975453
0.939856
0.884548
0.870392
0.87516
0.906385
1.09047
1.39472
1.6658
1.75164
1.79738
2.03087
2.84733
3.52217
3.54662
3.48719
3.44749
3.45462
3.43522
3.40109
3.34326
3.27766
3.24604
3.23457
3.24728
3.24472
3.21894
3.18026
3.12678
3.09138
3.07222
3.06382
3.04686
3.02154
2.98614
2.9368
2.89903
2.87555
2.85548
2.83248
2.80702
2.77657
2.73693
2.69717
2.66642
2.64087
2.61629
2.58997
2.55843
2.52127
2.49094
2.46964
2.44919
2.42757
2.40268
2.36823
2.31985
2.27498
2.24885
2.23061
2.21447
2.19928
2.18426
2.16676
2.13887
2.09351
2.05052
2.02498
2.00774
1.99371
1.98084
1.96727
1.94964
1.92263
1.88322
1.84606
1.82073
1.80076
1.78693
1.76419
3.41142
3.10558
2.8267
2.56909
2.31585
2.12108
1.97055
1.79892
1.62718
1.52246
1.45657
1.38904
1.30968
1.21748
1.12751
1.09074
1.07967
1.05292
0.995205
0.959205
0.983062
1.11998
1.41519
1.61072
1.65265
1.68135
1.69914
1.72537
1.92203
2.70296
3.35918
3.45356
3.43399
3.42717
3.42009
3.3974
3.36487
3.31848
3.26782
3.24416
3.23281
3.23097
3.2162
3.18981
3.15192
3.10557
3.07433
3.05132
3.03322
3.01468
2.98997
2.95674
2.92147
2.89421
2.86832
2.84185
2.81473
2.78353
2.74433
2.70498
2.67683
2.65408
2.63101
2.60503
2.57248
2.5317
2.49796
2.47755
2.45945
2.44041
2.41849
2.38866
2.34518
2.29659
2.26465
2.24691
2.23375
2.22445
2.2106
2.19041
2.15901
2.11059
2.06126
2.03291
2.01792
2.00602
1.99753
1.98873
1.97549
1.95216
1.90495
1.85296
1.82515
1.80957
1.80023
1.78169
3.48383
3.21
2.94818
2.71753
2.49088
2.2767
2.11181
1.9645
1.81325
1.69527
1.58212
1.48298
1.42989
1.37312
1.28971
1.18575
1.13887
1.12288
1.09606
1.11917
1.2611
1.56016
1.75395
1.75771
1.72098
1.69921
1.70188
1.71972
1.74856
1.88453
2.46319
3.18687
3.40753
3.40879
3.38621
3.37877
3.36839
3.34959
3.30825
3.25754
3.22711
3.20888
3.20015
3.18782
3.1639
3.12714
3.07963
3.0475
3.02629
3.00949
2.992
2.96887
2.93926
2.90387
2.87048
2.84157
2.8134
2.78301
2.74821
2.71169
2.68234
2.65933
2.63724
2.61317
2.58384
2.54667
2.50646
2.47526
2.45445
2.43541
2.41509
2.39207
2.36348
2.33004
2.29422
2.26324
2.24066
2.22042
2.19832
2.17419
2.14683
2.11605
2.08168
2.05243
2.03334
2.02195
2.01546
2.00325
1.98275
1.95025
1.90638
1.86381
1.83658
1.82101
1.81408
1.80288
3.54063
3.29302
3.05865
2.83548
2.62031
2.42666
2.25915
2.10185
1.9539
1.83935
1.73171
1.61477
1.51575
1.46961
1.4155
1.32524
1.2398
1.21501
1.25881
1.42624
1.70772
1.92813
1.92528
1.88626
1.83027
1.79232
1.78507
1.78492
1.79227
1.80535
1.86694
2.25121
2.9198
3.29379
3.35166
3.3658
3.36689
3.36689
3.33835
3.28926
3.2305
3.20205
3.18553
3.18006
3.16765
3.14279
3.10127
3.05802
3.03303
3.01435
2.99754
2.975
2.94736
2.90999
2.86991
2.83937
2.81282
2.7861
2.75741
2.72447
2.68895
2.65899
2.63603
2.61493
2.59231
2.56382
2.52459
2.48144
2.44852
2.42572
2.4053
2.38606
2.36865
2.34904
2.31994
2.28009
2.24296
2.21371
2.18739
2.16123
2.1342
2.11158
2.09453
2.07676
2.05687
2.03502
2.01101
1.98544
1.95759
1.92744
1.90018
1.88204
1.86619
1.84637
1.82548
1.7963
3.59197
3.36466
3.14975
2.93705
2.73361
2.557
2.38765
2.22788
2.09193
1.96321
1.85202
1.75297
1.64646
1.55018
1.48446
1.43552
1.3967
1.45644
1.64936
1.87367
2.06174
2.07655
2.04693
2.01097
1.97066
1.92596
1.90471
1.89891
1.88648
1.86692
1.85525
1.8721
2.06551
2.59664
3.11591
3.30597
3.38403
3.39492
3.37214
3.32013
3.24991
3.21078
3.19237
3.18717
3.17971
3.15717
3.12256
3.07759
3.0498
3.02978
3.01066
2.98634
2.95677
2.91521
2.86755
2.83618
2.81374
2.79211
2.76932
2.7422
2.70642
2.66699
2.63818
2.61777
2.59812
2.57539
2.54196
2.49215
2.44564
2.4186
2.39962
2.38276
2.36749
2.35054
2.32757
2.29024
2.24397
2.20684
2.1783
2.15224
2.13211
2.11768
2.10418
2.08898
2.07013
2.04294
2.00571
1.96855
1.93909
1.91582
1.90301
1.89447
1.88337
1.86726
1.84158
1.79659
3.6447
3.43596
3.23231
3.02794
2.84221
2.67212
2.50483
2.34561
2.21611
2.08818
1.95783
1.85625
1.77011
1.66408
1.57798
1.57795
1.6668
1.95321
2.15266
2.23273
2.2316
2.19374
2.16958
2.14892
2.11315
2.06123
2.02505
2.0052
1.99138
1.97218
1.94098
1.90988
1.89592
1.96189
2.32509
2.88606
3.24749
3.3756
3.40258
3.35742
3.2815
3.22715
3.20999
3.208
3.20241
3.17847
3.14195
3.09215
3.05954
3.03985
3.02213
3.00004
2.973
2.93381
2.88188
2.84292
2.82023
2.80059
2.78048
2.75824
2.7293
2.69019
2.65068
2.62148
2.59908
2.57733
2.55026
2.51019
2.45973
2.42094
2.3988
2.38129
2.36397
2.34547
2.3239
2.29173
2.2437
2.20064
2.17425
2.15635
2.14178
2.12807
2.11424
2.10006
2.07995
2.04422
1.99931
1.96056
1.93296
1.91881
1.91159
1.90893
1.8992
1.88192
1.85323
1.79621
3.69846
3.50398
3.30782
3.11561
2.9432
2.77542
2.60648
2.45904
2.32485
2.2016
2.07011
1.94973
1.86129
1.77377
1.79252
1.9267
2.1995
2.45296
2.46487
2.40532
2.3323
2.29779
2.29014
2.27829
2.24603
2.19681
2.14977
2.12063
2.09627
2.07477
2.04736
2.00966
1.96224
1.92773
1.9451
2.13429
2.60833
3.07786
3.30919
3.36214
3.32256
3.26368
3.23704
3.2296
3.22384
3.2031
3.16951
3.11631
3.06989
3.04791
3.02936
3.00837
2.98477
2.9543
2.91365
2.87236
2.83896
2.81216
2.78906
2.76696
2.74213
2.71004
2.67149
2.63426
2.60301
2.57642
2.5509
2.52161
2.48301
2.43953
2.40643
2.3838
2.36403
2.34354
2.31893
2.28465
2.23853
2.2005
2.18345
2.17144
2.15881
2.1433
2.12371
2.0961
2.05975
2.02203
1.98851
1.96428
1.95013
1.93677
1.92031
1.90047
1.88097
1.86399
1.83949
1.79697
3.7536
3.56955
3.38051
3.20444
3.03625
2.86738
2.70619
2.56499
2.42716
2.29373
2.16152
2.06554
1.98342
2.02873
2.23916
2.46967
2.66814
2.70964
2.65299
2.55375
2.46109
2.42709
2.41727
2.40321
2.37249
2.32529
2.26766
2.22458
2.19717
2.16915
2.14029
2.11059
2.06918
2.0092
1.9586
1.9628
2.0346
2.3354
2.80871
3.17491
3.27508
3.29309
3.27541
3.25972
3.2465
3.22482
3.19764
3.15183
3.09498
3.06027
3.03813
3.01589
2.99206
2.96673
2.93962
2.90848
2.87266
2.8362
2.80396
2.77574
2.74821
2.71872
2.68584
2.64974
2.61407
2.58372
2.55818
2.53289
2.50274
2.46315
2.41945
2.38673
2.36368
2.34222
2.31694
2.28502
2.24812
2.21568
2.19752
2.18511
2.17204
2.15612
2.135
2.09888
2.04672
2.0038
1.98387
1.97488
1.9671
1.95364
1.93311
1.90376
1.87261
1.84777
1.82998
1.81523
3.81432
3.63556
3.4534
3.28645
3.12216
2.95254
2.80397
2.65856
2.52094
2.37105
2.27204
2.24181
2.3407
2.62964
2.82632
2.85876
2.86349
2.82275
2.76261
2.69698
2.61805
2.57583
2.55303
2.52579
2.49094
2.44254
2.37892
2.32454
2.28865
2.26374
2.23478
2.20332
2.16615
2.11186
2.05007
2.00723
2.00055
2.0199
2.15803
2.52039
2.93312
3.1807
3.2281
3.27321
3.27693
3.25043
3.22068
3.18278
3.13591
3.08425
3.04944
3.02627
3.00468
2.98269
2.96033
2.93566
2.90532
2.86682
2.82429
2.78683
2.75563
2.72666
2.69668
2.66319
2.62683
2.5941
2.56924
2.54758
2.52307
2.48977
2.44325
2.39424
2.3605
2.33735
2.31602
2.29481
2.27276
2.24575
2.21454
2.19253
2.17952
2.1665
2.1448
2.10099
2.03775
2.00078
1.98912
1.98082
1.97224
1.96026
1.94447
1.91446
1.8728
1.8391
1.83301
1.88164
3.8626
3.68806
3.52257
3.35849
3.19087
3.03492
2.88901
2.74238
2.6064
2.47361
2.52038
2.70906
2.99436
3.23517
3.20663
3.10243
2.98431
2.91931
2.89058
2.84921
2.78299
2.72513
2.68864
2.64995
2.60821
2.5607
2.49782
2.43757
2.3882
2.35182
2.32238
2.28841
2.25209
2.20964
2.15256
2.1013
2.05988
2.03259
2.03407
2.07425
2.26744
2.63436
2.96767
3.1697
3.23272
3.26702
3.25043
3.212
3.17505
3.11845
3.06464
3.03371
3.01474
2.99642
2.97572
2.95289
2.92782
2.89255
2.84318
2.79773
2.7649
2.73704
2.70922
2.67895
2.64429
2.60758
2.57763
2.55538
2.53422
2.50878
2.47136
2.41773
2.36671
2.33682
2.31975
2.30679
2.29284
2.27303
2.24285
2.20903
2.18125
2.15694
2.1313
2.09745
2.05571
2.0191
1.99863
1.98831
1.98164
1.97031
1.95444
1.92762
1.88055
1.86461
1.88764
2.06371
3.92739
3.75305
3.59312
3.43299
3.26196
3.11693
2.96197
2.8382
2.74299
2.83706
3.14402
3.35896
3.47272
3.47165
3.37291
3.23752
3.12954
3.07844
3.05469
3.01094
2.94133
2.8599
2.8039
2.76225
2.71815
2.67191
2.61827
2.55268
2.49659
2.44788
2.40855
2.37374
2.33508
2.29568
2.24947
2.19569
2.15092
2.11049
2.07236
2.0529
2.0558
2.11409
2.33438
2.69354
2.99175
3.16426
3.21984
3.23199
3.20736
3.15415
3.08883
3.04475
3.02609
3.00962
2.98748
2.96271
2.93819
2.90467
2.85331
2.80953
2.77857
2.75109
2.72416
2.69641
2.66445
2.62568
2.58641
2.55684
2.5341
2.5117
2.48335
2.44312
2.39265
2.35407
2.33495
2.32102
2.30626
2.28836
2.26167
2.2224
2.18198
2.14902
2.12093
2.09792
2.07758
2.05385
2.02418
1.99206
1.96651
1.95552
1.94719
1.93814
1.95121
2.01496
2.14604
2.37396
3.98045
3.81744
3.65847
3.49042
3.33177
3.18512
3.055
3.05019
3.22854
3.59927
3.76286
3.76627
3.73204
3.61593
3.50367
3.39223
3.29859
3.25005
3.21554
3.163
3.09058
3.00057
2.92158
2.87319
2.83153
2.78503
2.73593
2.6752
2.60539
2.55276
2.50803
2.46799
2.42816
2.38419
2.33489
2.28075
2.2277
2.1876
2.15112
2.10822
2.07521
2.05563
2.06396
2.13687
2.37915
2.72352
3.01119
3.14937
3.18428
3.17173
3.10474
3.06063
3.04565
3.02394
3.00063
2.97456
2.94638
2.90249
2.85486
2.82352
2.79589
2.7692
2.7426
2.71492
2.683
2.64433
2.59896
2.55823
2.52767
2.5027
2.47991
2.45458
2.42223
2.3867
2.35531
2.33247
2.31367
2.29366
2.26723
2.22438
2.174
2.14236
2.12593
2.11321
2.09731
2.07673
2.04431
2.00318
1.96705
1.95637
1.96554
2.02728
2.16308
2.35485
2.50938
2.60005
4.055
3.89499
3.73827
3.55887
3.4201
3.29409
3.39729
3.70491
4.06136
4.17644
4.04444
3.9404
3.87508
3.77911
3.68272
3.58219
3.46997
3.40521
3.36151
3.30674
3.23632
3.14599
3.05882
2.99535
2.94699
2.89792
2.84281
2.78439
2.71628
2.65224
2.60459
2.56174
2.51938
2.47356
2.42134
2.36255
2.30537
2.25616
2.21838
2.1833
2.143
2.09578
2.06377
2.0322
2.04383
2.14869
2.42944
2.75619
3.03109
3.11257
3.08673
3.08076
3.06434
3.03963
3.0217
2.98832
2.9247
2.87228
2.85017
2.82647
2.80762
2.78667
2.76087
2.73126
2.70015
2.66053
2.60865
2.56415
2.52908
2.4987
2.47266
2.45067
2.43143
2.41073
2.38211
2.34735
2.31848
2.29503
2.26678
2.21674
2.1661
2.14925
2.13786
2.12472
2.11048
2.094
2.06718
2.02128
2.00373
2.02703
2.12715
2.30681
2.50336
2.66356
2.73111
2.7178
4.13542
3.97757
3.79399
3.64866
3.59585
3.79502
4.20255
4.438
4.54321
4.44366
4.23682
4.07458
4.00502
3.94935
3.86049
3.76173
3.64279
3.55377
3.50326
3.44982
3.38127
3.29374
3.19752
3.12423
3.06375
3.0095
2.95209
2.88861
2.82397
2.76035
2.70356
2.65524
2.60835
2.55881
2.50482
2.44549
2.3854
2.331
2.28406
2.24382
2.20583
2.16168
2.11178
2.06676
2.03198
2.00772
2.03375
2.17786
2.47667
2.79371
2.94958
3.02003
3.05304
3.05877
3.04442
2.99488
2.91391
2.84153
2.82236
2.82293
2.82426
2.80428
2.77508
2.74089
2.69121
2.63251
2.59299
2.56214
2.5358
2.50721
2.47625
2.45248
2.43794
2.4234
2.3985
2.36369
2.3331
2.30002
2.25826
2.21169
2.17072
2.14206
2.12851
2.1195
2.11566
2.11048
2.10261
2.11194
2.16702
2.30925
2.49268
2.64877
2.77062
2.79264
2.77816
2.74362
4.20045
4.02951
3.85009
3.92155
4.29824
4.76288
4.87927
4.81894
4.7487
4.61165
4.42721
4.25516
4.18275
4.13496
4.03254
3.92598
3.82502
3.72086
3.65192
3.59276
3.51994
3.43558
3.33628
3.24978
3.18278
3.12133
3.06202
2.99711
2.92731
2.85956
2.79664
2.74009
2.68856
2.63666
2.58235
2.52452
2.46365
2.40326
2.34823
2.30001
2.2557
2.21211
2.16593
2.11883
2.06699
2.01917
1.99694
1.98296
2.02457
2.20176
2.49546
2.73352
2.91457
2.98904
2.99857
2.97831
2.91529
2.84152
2.79638
2.786
2.78303
2.77937
2.76502
2.7381
2.68555
2.61488
2.57899
2.56705
2.54783
2.5212
2.49593
2.46818
2.42902
2.38955
2.37707
2.37092
2.34991
2.31222
2.26032
2.21575
2.17966
2.14957
2.13692
2.13341
2.13091
2.15548
2.23243
2.37891
2.54683
2.73498
2.83278
2.84108
2.82483
2.80532
2.78941
2.77021
4.1969
4.11395
4.31266
4.86846
5.33346
5.4005
5.20099
5.03085
4.90363
4.78189
4.63228
4.4685
4.3774
4.31675
4.21587
4.09056
3.99336
3.89296
3.80283
3.73146
3.65193
3.56415
3.47137
3.37872
3.30085
3.23378
3.16868
3.10128
3.02729
2.94949
2.87673
2.81254
2.75578
2.70227
2.64975
2.59628
2.53919
2.47824
2.41616
2.35809
2.30485
2.25235
2.19835
2.15262
2.11599
2.07136
2.01626
1.97617
1.94968
1.94791
2.00975
2.1835
2.46074
2.69666
2.84472
2.90507
2.89617
2.8552
2.79428
2.75311
2.73914
2.73264
2.72146
2.70331
2.67659
2.62007
2.55732
2.52924
2.51996
2.5177
2.50387
2.4765
2.43545
2.39274
2.35327
2.32976
2.31134
2.28646
2.25433
2.22526
2.20358
2.1791
2.15945
2.16947
2.22731
2.38257
2.58156
2.75273
2.87929
2.95506
2.95555
2.93068
2.87023
2.83765
2.83365
2.82835
3.8808
4.67746
5.52297
5.77775
5.82138
5.65628
5.39626
5.19333
5.06345
4.96017
4.82908
4.67824
4.57094
4.4934
4.39536
4.26753
4.15316
4.05847
3.96162
3.8738
3.78757
3.6952
3.6017
3.50873
3.42126
3.34252
3.27011
3.19824
3.11848
3.03077
2.94932
2.87884
2.8165
2.75797
2.70043
2.64314
2.58711
2.53091
2.47119
2.41126
2.35351
2.29905
2.24373
2.17526
2.10205
2.07025
2.0498
2.01143
1.9634
1.92598
1.89135
1.87957
1.94473
2.14693
2.41401
2.64526
2.8046
2.82725
2.80086
2.73206
2.67016
2.6567
2.65314
2.65184
2.63752
2.60893
2.55165
2.50168
2.48564
2.47491
2.46586
2.45914
2.44421
2.41059
2.35399
2.29768
2.26742
2.25136
2.24225
2.24171
2.23782
2.24168
2.27764
2.39206
2.56837
2.75645
2.8951
2.98643
3.01724
3.01763
2.99891
2.95691
2.91404
2.89198
2.88915
2.87138
3.3105
5.93854
6.27033
6.06933
5.9158
5.72799
5.53757
5.35907
5.23625
5.13729
5.0088
4.85853
4.73903
4.64844
4.54537
4.42034
4.29316
4.19063
4.09771
4.0064
3.91002
3.8064
3.70483
3.60973
3.52353
3.44452
3.35953
3.2731
3.19292
3.10698
3.0185
2.94365
2.87542
2.80526
2.7307
2.65874
2.59479
2.53675
2.48062
2.42723
2.37845
2.32938
2.26921
2.19548
2.12302
2.06424
2.01773
1.97744
1.93485
1.89802
1.86052
1.83005
1.7892
1.80342
1.91295
2.14491
2.41637
2.64529
2.72386
2.70597
2.62993
2.58646
2.58162
2.58779
2.58463
2.56492
2.53281
2.47434
2.43548
2.42586
2.42083
2.41277
2.40045
2.3833
2.34452
2.28168
2.23965
2.22597
2.22902
2.24245
2.30361
2.43862
2.63393
2.80698
2.94129
3.01674
3.0268
3.03746
3.03688
3.02012
2.99086
2.9664
2.94983
2.92843
2.90864
2.87195
3.37733
6.2839
6.27203
6.00705
5.85057
5.71536
5.57749
5.4285
5.31136
5.22362
5.11731
4.97453
4.8597
4.77234
4.67235
4.55112
4.42264
4.31544
4.21906
4.12775
4.02899
3.90438
3.77397
3.68855
3.61908
3.54174
3.45191
3.34016
3.23259
3.15877
3.09268
3.01654
2.94031
2.86383
2.77767
2.68506
2.60073
2.53319
2.48646
2.44905
2.40666
2.35801
2.30007
2.22663
2.14243
2.06079
2.00197
1.96626
1.93913
1.90942
1.87177
1.82193
1.77958
1.72429
1.70347
1.74327
1.91428
2.17412
2.42983
2.58917
2.57792
2.53068
2.5107
2.50167
2.50295
2.49315
2.47665
2.44628
2.39894
2.3736
2.36587
2.3594
2.34939
2.33455
2.3088
2.26602
2.23325
2.23105
2.25615
2.36643
2.60358
2.82864
2.99273
3.06564
3.08684
3.07332
3.04214
3.02993
3.01831
3.00904
2.9986
2.98929
2.97704
2.95326
2.91939
2.86728
3.4188
5.76201
5.75713
5.61485
5.56892
5.51063
5.432
5.34762
5.28278
5.23795
5.13705
4.997
4.87941
4.78594
4.68591
4.56395
4.42924
4.31952
4.21658
4.11374
4.02256
3.93919
3.83202
3.7078
3.5943
3.50584
3.43868
3.37201
3.27871
3.16709
3.06062
2.96741
2.88584
2.81776
2.76332
2.70547
2.6254
2.53353
2.4486
2.38354
2.33328
2.29071
2.25211
2.21373
2.15699
2.07918
2.00137
1.94187
1.89769
1.86044
1.82723
1.79838
1.76721
1.72489
1.67387
1.62743
1.63885
1.72968
1.92521
2.18898
2.40167
2.44094
2.41734
2.41063
2.41118
2.41457
2.40819
2.39462
2.36458
2.32578
2.3031
2.29309
2.28146
2.2712
2.26635
2.25158
2.25967
2.33065
2.53017
2.76283
2.98919
3.05248
3.09238
3.09751
3.08678
3.06035
3.02068
2.99368
2.98258
2.97643
2.97033
2.9653
2.95711
2.93761
2.9041
2.8635
3.54244
5.44496
5.51389
5.42018
5.38326
5.33347
5.28326
5.23389
5.18457
5.11553
5.00416
4.89083
4.79357
4.71088
4.63002
4.521
4.39155
4.2821
4.18912
4.08538
3.97969
3.87918
3.78466
3.68435
3.58103
3.48841
3.40269
3.31438
3.22534
3.1284
3.02404
2.92999
2.85371
2.78813
2.72434
2.65743
2.58724
2.51043
2.43379
2.36605
2.30872
2.2578
2.20769
2.15446
2.09672
2.03831
1.98052
1.92809
1.8828
1.8423
1.80406
1.76631
1.72923
1.69099
1.65103
1.61853
1.58104
1.57088
1.60389
1.73177
1.96077
2.19721
2.29118
2.32314
2.32636
2.32631
2.32766
2.3208
2.30715
2.28102
2.24125
2.21949
2.20974
2.21848
2.23493
2.30504
2.47197
2.73904
2.95682
3.06504
3.09978
3.08465
3.08022
3.07057
3.04899
3.01114
2.97328
2.95462
2.94975
2.9452
2.94091
2.93306
2.91896
2.8933
2.86162
2.82876
3.53954
5.33977
5.40268
5.32798
5.28652
5.22301
5.16183
5.10739
5.04548
4.96315
4.86795
4.7816
4.70466
4.631
4.54332
4.42839
4.30672
4.20251
4.1161
4.02381
3.92402
3.82139
3.71771
3.62062
3.53073
3.44489
3.35897
3.27107
3.17888
3.07938
2.97752
2.88561
2.80895
2.74253
2.67918
2.61517
2.54783
2.4774
2.40698
2.33894
2.27451
2.21525
2.16113
2.11021
2.06109
2.01396
1.96713
1.91751
1.86469
1.81416
1.77093
1.73675
1.70812
1.68385
1.65914
1.62551
1.57743
1.5172
1.49002
1.50429
1.58133
1.76419
2.01434
2.18554
2.21599
2.23631
2.24261
2.24052
2.23009
2.20971
2.17864
2.17115
2.17751
2.20393
2.32539
2.59884
2.86043
3.05852
3.10339
3.10963
3.08072
3.04428
3.01247
2.98709
2.96517
2.94458
2.92545
2.91388
2.90723
2.89879
2.88775
2.87475
2.85832
2.83718
2.81842
2.79158
3.50756
5.35449
5.38852
5.30893
5.26106
5.19895
5.13764
5.07004
4.98775
4.89178
4.79551
4.71005
4.63254
4.55065
4.44536
4.32779
4.21899
4.12511
4.04817
3.97376
3.88083
3.77832
3.66135
3.55157
3.4592
3.37473
3.29422
3.21572
3.13325
3.04053
2.94041
2.84462
2.76058
2.68941
2.62793
2.57048
2.51192
2.44801
2.37824
2.30645
2.2376
2.17507
2.12229
2.07886
2.03931
1.99819
1.95163
1.90003
1.84658
1.7951
1.75235
1.72408
1.70257