/*--------------------------------*- C++ -*----------------------------------*\
  =========                 |
  \\      /  F ield         | OpenFOAM: The Open Source CFD Toolbox
   \\    /   O peration     | Website:  https://openfoam.org
    \\  /    A nd           | Version:  7
     \\/     M anipulation  |
\*---------------------------------------------------------------------------*/
FoamFile
{
    version     2.0;
    format      ascii;
    class       volScalarField;
    location    "4.5";
    object      T;
}
// * * * * * * * * * * * * * * * * * * * * * * * * * * * * * * * * * * * * * //

dimensions      [0 0 0 1 0 0 0];

internalField   nonuniform List<scalar> 
4032
(
1
1
1
1
1
1
1
1
1
1
1
1.16134
2.40621
2.71632
2.72641
2.74158
2.75504
2.76795
2.77978
2.79026
2.79942
2.80686
2.81256
2.81659
1
1
1
1
1
1
1
1
1
1
1
1.14367
2.39157
2.71499
2.72559
2.74011
2.75337
2.76603
2.77756
2.78759
2.79619
2.80308
2.80818
2.81199
1
1
1
1
1
1
1
1
1
1
1
1.08985
2.35294
2.71171
2.72231
2.73704
2.75043
2.76305
2.7744
2.78405
2.79207
2.79834
2.80258
2.80584
1
1
1
1
1
1
1
1
1
1
1
1.00604
2.28611
2.70371
2.71727
2.73217
2.74519
2.75705
2.76778
2.77702
2.78479
2.79075
2.79436
2.79685
1
1
1
1
1
1
1
1
1
1
1
1.00005
2.20304
2.68861
2.70739
2.72257
2.73606
2.74783
2.75816
2.76654
2.77288
2.77737
2.77959
2.78249
1
1
1
1
1
1
1
1
1
1
1
1
2.08703
2.6691
2.69814
2.71224
2.72547
2.73645
2.74577
2.7534
2.75925
2.76273
2.76152
2.75611
1
1
1
1
1
1
1
1
1
1
1
1
1.92733
2.6321
2.68196
2.69776
2.71139
2.72166
2.7295
2.73495
2.73686
2.73357
2.7257
2.71869
1
1
1
1
1
1
1
1
1
1
1
1
1.70799
2.55992
2.65474
2.67835
2.69434
2.70489
2.71105
2.71329
2.7108
2.70577
2.70075
2.71196
1
1
1
1
1
1
1
1
1
1
1
1
1.39368
2.43456
2.62865
2.65365
2.67217
2.68398
2.6885
2.68768
2.67987
2.66148
2.61002
2.50901
1
1
1
1
1
1
1
1
1
1
1
1
1.04729
2.30249
2.62945
2.6311
2.64135
2.65237
2.65732
2.65436
2.64174
2.60895
2.55154
2.38811
1
1
1
1
1
1
1
1
1
1
1
1
1.0005
2.12966
2.58831
2.59756
2.60844
2.61536
2.61964
2.61527
2.60051
2.56224
2.49833
2.31457
1
1
1
1
1
1
1
1
1
1
1
1
0.999995
1.81588
2.5198
2.5812
2.59042
2.58927
2.58753
2.57917
2.56035
2.52193
2.44929
2.28984
1
1
1
1
1
1
1
1
1
1
1
1
0.999999
1.35409
2.37295
2.56307
2.56339
2.56186
2.5566
2.54389
2.52091
2.48294
2.4089
2.28836
1
1
1
1
1
1
1
1
1
1
1
1
1
1.03447
2.18917
2.52051
2.53233
2.53168
2.52616
2.51206
2.48785
2.44774
2.37909
2.28731
1
1
1
1
1
1
1
1
1
1
1
1
1
1.00017
1.81237
2.4353
2.51062
2.50772
2.50077
2.48372
2.45889
2.41652
2.35635
2.28298
1
1
1
1
1
1
1
1
1
1
1
1
1
0.999999
1.22122
2.27507
2.49163
2.47845
2.47001
2.45444
2.42823
2.39095
2.33957
2.27797
1
1
1
1
1
1
1
1
1
1
1
1
1
1
1.01135
2.07414
2.44003
2.43235
2.4305
2.42043
2.39978
2.36824
2.32415
2.27087
1
1
1
1
1
1
1
1
1
1
1
1
1
1
1
1.56808
2.32126
2.41314
2.40593
2.39321
2.37376
2.34529
2.30727
2.26225
1
1
1
1
1
1
1
1
1
1
1
1
1
1
0.999997
1.0833
2.11091
2.39038
2.38183
2.36733
2.34703
2.32066
2.2877
2.25009
1
1
1
1
1
1
1
1
1
1
1
1
1
1
0.999999
1.00136
1.64968
2.27237
2.35944
2.34144
2.32203
2.29749
2.26873
2.23596
1
1
1
1
1
1
1
1
1
1
1
1
1
1
1
1
1.12268
2.07052
2.33372
2.31579
2.29959
2.27677
2.2507
2.2209
1
1
1
1
1
1
1
1
1
1
1
1
1
1
1
1
1.00314
1.6035
2.2014
2.29267
2.27299
2.25261
2.23029
2.20492
1
1
1
1
1
1
1
1
1
1
1
1
1
1
1
1
1.00001
1.10876
1.98368
2.26804
2.24774
2.23268
2.21402
2.19184
1
1
1
1
1
1
1
1
1
1
1
1
1
1
1
1
1
1.00256
1.45964
2.09958
2.22473
2.20806
2.19269
2.17452
1
1
1
1
1
1
1
1
1
1
1
1
1
1
1
1
1
1.00001
1.05828
1.81631
2.19233
2.18539
2.17229
2.15624
1
1
1
1
1
1
1
1
1
1
1
1
1
1
1
1
1
1
1.00089
1.27596
1.99603
2.165
2.14668
2.13065
1
1
1
1
1
1
1
1
1
1
1
1
1
1
1
1
1
1
1
1.01823
1.5731
2.05254
2.13286
2.11454
1
1
1
1
1
1
1
1
1
1
1
1
1
1
1
1
1
1
1
1.00018
1.10678
1.79164
2.09744
2.0987
1
1
1
1
1
1
1
1
1
1
1
1
1
1
1
1
1
1
1
1
1.00288
1.28758
1.90602
2.0767
1
1
1
1
1
1
1
1
1
1
1
1
1
1
1
1
1
1
1
1
1.00002
1.02112
1.47991
1.95892
1
1
1
1
1
1
1
1
1
1
1
1
1
1
1
1
1
1
1
1
1
1.00025
1.07437
1.66524
1
1
1
1
1
1
1
1
1
1
1
1
1
1
1
1
1
1
1
1
1
1
1.00184
1.18412
1
1
1
1
1
1
1
1
1
1
1
1
1
1
1
1
1
1
1
1
1
1
1.00001
1.00902
1
1
1
1
1
1
1
1
1
1
1
1
1
1
1
1
1
1
1
1
1
1
1
1.00015
1
1
1
1
1
1
1
1
1
1
1
1
1
1
1
1
1
1
1
1
1
1
1
1
1
1
1
1
1
1
1
1
1
1
1
1
1
1
1
1
1
1
1
1
1
1
1
1
1
1
1
1
1
1
1
1
1
1
1
1
1
1
1
1
1
1
1
1
1
1
1
1
1
1
1
1
1
1
1
1
1
1
1
1
1
1
1
1
1
1
1
1
1
1
1
1
1
1
1
1
1
1
1
1
1
1
1
1
1
1
1
1
1
1
1
1
1
1
1
1
1
1
1
1
1
1
1
1
1
1
1
1
1
1
1
1
1
1
1
1
1
1
1
1
1.69165
1.17284
0.948395
1.0405
1.11279
1.17997
1.30032
1.4548
1.61499
1.64902
1.64274
1.61579
1.60178
1.63891
1.72801
1.75719
1.75214
1.73515
1.70537
1.69937
1.70158
1.71387
1.71331
1.70855
1.70319
2.34188
2.80655
2.80938
2.8095
2.80465
2.79252
2.77876
2.76916
2.76545
2.76319
2.75556
2.73998
2.72052
2.7027
2.68927
2.68
2.66903
2.65078
2.6276
2.60502
2.58666
2.57577
2.57403
2.57511
2.56557
2.54756
2.52734
2.5093
2.49445
2.48569
2.478
2.46254
2.44388
2.42358
2.40408
2.38949
2.37927
2.37491
2.3689
2.35808
2.34585
2.33188
2.31829
2.30664
2.2957
2.28548
2.2749
2.26242
2.24859
2.23339
2.21872
2.2059
2.1938
2.18151
2.16841
2.15418
2.14032
2.12904
2.12033
2.11339
2.10884
2.1052
2.09923
2.09061
2.07564
2.05547
2.03974
2.02985
2.0216
2.01619
2.0025
1.92655
1.63319
1.46321
1.3803
1.29056
1.25465
1.25686
1.28314
1.31417
1.34319
1.37146
1.40396
1.44478
1.49484
1.55352
1.60248
1.62157
1.62543
1.62703
1.63507
1.64786
1.66688
1.66448
1.65486
1.65522
2.25614
2.7769
2.79979
2.79307
2.78002
2.76671
2.75357
2.73986
2.7275
2.71869
2.71373
2.70813
2.69509
2.67686
2.65884
2.64274
2.63032
2.62029
2.60793
2.58985
2.56984
2.55283
2.54
2.53326
2.53124
2.52632
2.51471
2.49871
2.4809
2.46391
2.44796
2.43558
2.42504
2.41223
2.397
2.38136
2.36695
2.35476
2.34469
2.33781
2.33112
2.32213
2.31175
2.29959
2.28629
2.27345
2.26194
2.2502
2.23734
2.22347
2.20873
2.19442
2.18211
2.17132
2.16068
2.14973
2.13853
2.12697
2.11619
2.10718
2.09998
2.09305
2.08618
2.07937
2.06956
2.0563
2.04197
2.02863
2.01784
2.01012
1.99585
2.03321
1.82616
1.66327
1.54747
1.46997
1.40625
1.33308
1.25932
1.22648
1.23337
1.25618
1.29708
1.34577
1.37611
1.38979
1.41505
1.4518
1.48644
1.51933
1.54722
1.57066
1.59216
1.59109
1.5809
1.57862
2.01879
2.67061
2.73398
2.70417
2.68205
2.67176
2.66687
2.66149
2.64615
2.62872
2.61729
2.6143
2.61529
2.60998
2.59521
2.57522
2.55581
2.53978
2.53093
2.5257
2.51629
2.50162
2.48367
2.46612
2.45605
2.45287
2.45367
2.45142
2.44253
2.42549
2.40091
2.38179
2.36879
2.3604
2.35486
2.34534
2.33343
2.31808
2.30111
2.29057
2.28391
2.27973
2.27561
2.26934
2.26045
2.24686
2.23141
2.21998
2.20979
2.1989
2.1867
2.1717
2.15423
2.13887
2.12872
2.12167
2.11614
2.10929
2.1018
2.09239
2.07986
2.0666
2.0563
2.04791
2.04246
2.03834
2.03249
2.02387
2.01053
1.9958
1.9783
2.10184
1.94939
1.81115
1.67585
1.58944
1.53843
1.48542
1.41047
1.32769
1.30349
1.30199
1.29705
1.29782
1.2971
1.29711
1.29995
1.31912
1.35843
1.40864
1.45084
1.47499
1.49078
1.50353
1.5108
1.53128
1.72874
2.43922
2.63898
2.58965
2.55109
2.54068
2.5393
2.53947
2.52789
2.51311
2.49807
2.49158
2.49037
2.491
2.48736
2.47771
2.4624
2.44525
2.4317
2.42187
2.41612
2.40821
2.39827
2.3871
2.37421
2.36723
2.36502
2.36335
2.35895
2.35016
2.33611
2.31869
2.30411
2.29313
2.28545
2.27616
2.26523
2.25298
2.23941
2.22828
2.22136
2.21637
2.21205
2.20775
2.20211
2.19256
2.17828
2.16586
2.15801
2.15058
2.14208
2.13174
2.11832
2.10213
2.088
2.07893
2.07236
2.06711
2.06168
2.05517
2.04543
2.03109
2.01555
2.00687
2.00378
2.00164
2.00001
1.99617
1.98822
1.97544
1.95192
2.14985
2.02043
1.91041
1.80862
1.69788
1.6137
1.57472
1.53025
1.47188
1.39842
1.34971
1.3323
1.32514
1.31966
1.31145
1.30106
1.28745
1.29073
1.30947
1.34839
1.39416
1.42163
1.44428
1.48269
1.59532
1.73891
2.1378
2.46196
2.50891
2.46659
2.44179
2.43356
2.4362
2.43433
2.42749
2.41523
2.4015
2.39614
2.39282
2.39201
2.38986
2.38207
2.36951
2.3527
2.34007
2.33113
2.32586
2.32148
2.31561
2.3083
2.29821
2.28897
2.28236
2.27635
2.26974
2.26144
2.25082
2.2397
2.22952
2.21906
2.20814
2.19662
2.1851
2.17449
2.16595
2.15945
2.15407
2.14928
2.14451
2.13883
2.13071
2.1188
2.10641
2.09795
2.09095
2.08341
2.07476
2.06496
2.05454
2.04361
2.03255
2.02321
2.01569
2.00847
2.00042
1.99098
1.98072
1.97171
1.96491
1.96
1.95729
1.95513
1.95214
1.94618
1.93657
1.91674
2.18611
2.07782
1.97531
1.89119
1.80386
1.71453
1.63816
1.5952
1.56079
1.51668
1.45525
1.39676
1.38315
1.38005
1.36474
1.34214
1.31778
1.29782
1.29693
1.30186
1.31492
1.33935
1.37513
1.49675
1.71039
1.79208
1.88536
2.19097
2.39554
2.41879
2.40784
2.39007
2.38396
2.38452
2.37936
2.3689
2.34982
2.33641
2.33158
2.33042
2.3342
2.33049
2.32087
2.30571
2.28995
2.28187
2.27745
2.27678
2.27243
2.26474
2.25277
2.2374
2.22704
2.22058
2.2149
2.20913
2.20244
2.19361
2.1824
2.1705
2.15914
2.14846
2.13866
2.12954
2.12032
2.11112
2.10376
2.09837
2.09358
2.08843
2.08172
2.0716
2.05843
2.04806
2.04093
2.03387
2.02622
2.01859
2.01118
2.00274
1.9917
1.97881
1.96783
1.95885
1.95046
1.943
1.93719
1.9324
1.92685
1.9198
1.91326
1.90856
1.90391
1.89746
1.89064
1.87853
2.20246
2.11515
2.02783
1.9449
1.86859
1.79937
1.72985
1.65361
1.60638
1.58373
1.54869
1.50107
1.44632
1.41567
1.40035
1.38414
1.36827
1.34852
1.3159
1.30577
1.30856
1.32853
1.43688
1.5984
1.72804
1.75755
1.76965
1.86321
2.16075
2.36846
2.38928
2.37432
2.36431
2.36645
2.36029
2.34922
2.33203
2.31377
2.30518
2.30206
2.30536
2.30404
2.29546
2.28339
2.26784
2.25743
2.2518
2.24923
2.24393
2.23615
2.22556
2.21109
2.20017
2.19364
2.18828
2.18205
2.1748
2.16552
2.15278
2.13947
2.12883
2.11993
2.11156
2.1029
2.09283
2.08124
2.07229
2.06654
2.06123
2.05569
2.04919
2.03954
2.02457
2.01015
2.00207
1.99611
1.9903
1.98471
1.979
1.97212
1.96132
1.94436
1.92837
1.91931
1.91355
1.90923
1.9057
1.90218
1.89749
1.88999
1.87802
1.86658
1.85953
1.85421
1.85064
1.84374
2.21074
2.13742
2.06517
1.99267
1.91474
1.85122
1.80004
1.73773
1.66991
1.62633
1.59826
1.56912
1.53377
1.48982
1.44295
1.42331
1.41799
1.40393
1.37258
1.35257
1.36876
1.45452
1.60654
1.69202
1.70982
1.71447
1.71614
1.72348
1.81015
2.11905
2.33004
2.35605
2.35218
2.34999
2.34661
2.33766
2.32613
2.31189
2.29754
2.29048
2.28667
2.28526
2.27948
2.2705
2.25891
2.24515
2.23553
2.22857
2.22327
2.21758
2.20982
2.1995
2.18865
2.1803
2.17245
2.16442
2.15604
2.14617
2.13359
2.12077
2.11138
2.10369
2.09607
2.08771
2.07734
2.06432
2.05356
2.04726
2.04157
2.03555
2.02866
2.01919
2.00541
1.98975
1.97935
1.97353
1.96907
1.96579
1.96075
1.95339
1.94199
1.92437
1.90637
1.89619
1.89129
1.88747
1.88513
1.88294
1.87911
1.87148
1.85481
1.83627
1.82765
1.82401
1.82194
1.8163
2.21316
2.15004
2.08521
2.02433
1.95969
1.89416
1.84102
1.79041
1.73545
1.69099
1.64559
1.60349
1.58105
1.55636
1.51846
1.46736
1.44299
1.43495
1.4222
1.43704
1.52137
1.67138
1.75053
1.74303
1.72234
1.70964
1.70927
1.71287
1.72066
1.77668
2.02209
2.26893
2.33573
2.33278
2.32609
2.32191
2.31532
2.3074
2.29534
2.28132
2.27214
2.26587
2.26203
2.25707
2.2491
2.23786
2.22364
2.21412
2.20795
2.20293
2.19739
2.18975
2.18002
2.16876
2.15834
2.14935
2.1406
2.13106
2.11997
2.10823
2.0987
2.09128
2.08421
2.07652
2.06724
2.05549
2.04251
2.03222
2.02521
2.01869
2.01173
2.00385
1.99444
1.98376
1.97201
1.96172
1.9542
1.94718
1.93939
1.93102
1.92159
1.91067
1.89848
1.88786
1.88127
1.87757
1.87564
1.87173
1.86489
1.85333
1.83717
1.82173
1.81226
1.80768
1.80611
1.80285
2.21159
2.1567
2.1013
2.04482
1.98659
1.93124
1.88041
1.82948
1.77902
1.73877
1.69859
1.65237
1.61131
1.59226
1.56933
1.52914
1.48788
1.47736
1.50169
1.58751
1.71807
1.80443
1.80078
1.7813
1.75538
1.73554
1.72833
1.72572
1.72491
1.72659
1.74738
1.91905
2.16225
2.27303
2.2935
2.297
2.2959
2.29327
2.28367
2.26975
2.25273
2.24399
2.23881
2.23667
2.23242
2.22458
2.2124
2.19982
2.19286
2.18788
2.18302
2.17572
2.16622
2.154
2.1418
2.1328
2.12496
2.11684
2.10787
2.09756
2.08651
2.07729
2.07027
2.06366
2.0565
2.04762
2.03531
2.0212
2.01049
2.00295
1.99594
1.98942
1.98339
1.97656
1.96685
1.9539
1.94161
1.93177
1.92291
1.91393
1.90462
1.89695
1.8911
1.88508
1.87808
1.87038
1.86178
1.8524
1.84237
1.83169
1.82234
1.81645
1.81098
1.80369
1.79633
1.786
2.20647
2.15861
2.11036
2.05898
2.00659
1.9589
1.91011
1.86113
1.81785
1.77478
1.73542
1.69921
1.65849
1.61953
1.59215
1.5709
1.55681
1.58896
1.68026
1.77476
1.84423
1.84426
1.83144
1.81434
1.79614
1.7753
1.76272
1.75688
1.74818
1.73705
1.72797
1.73388
1.81708
2.02036
2.18596
2.24247
2.26681
2.27058
2.26314
2.24776
2.22902
2.21815
2.21301
2.21155
2.20912
2.20253
2.19288
2.18052
2.17329
2.16829
2.16321
2.15599
2.1467
2.13387
2.11975
2.11105
2.10506
2.099
2.09231
2.08429
2.07384
2.06233
2.05403
2.04828
2.04265
2.03582
2.02554
2.01005
1.99538
1.98695
1.98109
1.97571
1.97068
1.96481
1.95688
1.94447
1.92926
1.91703
1.90756
1.89897
1.89242
1.88788
1.88347
1.87845
1.87201
1.86234
1.84883
1.83535
1.8248
1.81667
1.8122
1.8092
1.8053
1.79996
1.7914
1.77536
2.19811
2.15747
2.11474
2.06824
2.02344
1.97986
1.93404
1.8877
1.84896
1.80843
1.7645
1.72922
1.69839
1.659
1.62399
1.62571
1.6716
1.79279
1.86297
1.89152
1.88802
1.87213
1.86038
1.84937
1.83363
1.81182
1.7942
1.78264
1.77341
1.76215
1.74724
1.73043
1.72234
1.74652
1.89107
2.07923
2.18527
2.22294
2.23064
2.22017
2.20122
2.18793
2.18316
2.18227
2.18051
2.17417
2.16487
2.15176
2.14337
2.13868
2.13454
2.12902
2.12181
2.11092
2.09627
2.08576
2.08021
2.07555
2.07054
2.06466
2.05682
2.04622
2.03556
2.02801
2.02235
2.01662
2.0091
1.99751
1.98222
1.97049
1.96415
1.95903
1.95367
1.94783
1.94095
1.93033
1.91452
1.90074
1.89255
1.88729
1.88303
1.87893
1.8748
1.87046
1.86378
1.8513
1.8354
1.82167
1.812
1.80737
1.80497
1.80434
1.80113
1.79554
1.78583
1.76506
2.18772
2.15304
2.11416
2.07332
2.03456
1.99403
1.95008
1.91004
1.8718
1.83493
1.79329
1.75308
1.72264
1.69322
1.70264
1.76134
1.87158
1.95519
1.95445
1.93181
1.9067
1.89284
1.88616
1.87829
1.86395
1.84384
1.82326
1.80868
1.79604
1.78422
1.77021
1.75208
1.73157
1.71427
1.71771
1.79099
1.9586
2.09968
2.15856
2.1791
2.17107
2.15816
2.15102
2.14858
2.14682
2.14168
2.13371
2.12035
2.10837
2.10314
2.099
2.09445
2.08929
2.08206
2.07169
2.06104
2.05292
2.04695
2.04198
2.037
2.03103
2.02301
2.01337
2.00416
1.99662
1.99043
1.98441
1.97701
1.96664
1.95438
1.9449
1.93869
1.93324
1.92729
1.91982
1.90925
1.89499
1.88353
1.87904
1.87596
1.8728
1.8687
1.86314
1.8545
1.84231
1.82969
1.81851
1.8107
1.80634
1.80195
1.79678
1.79054
1.78414
1.77847
1.76969
1.75491
2.17683
2.14606
2.11118
2.07616
2.04039
2.00189
1.96297
1.92742
1.89031
1.85205
1.81214
1.78233
1.75853
1.77956
1.86098
1.94377
2.00944
2.01576
1.99662
1.96332
1.93247
1.9181
1.9112
1.90282
1.88894
1.86963
1.84638
1.82771
1.81449
1.80099
1.78667
1.77172
1.75244
1.72762
1.70486
1.70326
1.72459
1.8337
1.98244
2.08485
2.11486
2.12227
2.11918
2.1162
2.11242
2.10681
2.10042
2.08971
2.07579
2.06709
2.06178
2.05695
2.05232
2.04736
2.04147
2.0342
2.02589
2.01777
2.0109
2.00494
1.99895
1.99226
1.98467
1.97636
1.96827
1.96158
1.95612
1.95075
1.94398
1.93409
1.92233
1.91364
1.90788
1.90222
1.89525
1.88651
1.87633
1.86726
1.86285
1.86034
1.85751
1.85367
1.84783
1.83646
1.81961
1.80618
1.80054
1.79841
1.79654
1.79264
1.78641
1.77707
1.76683
1.75852
1.75141
1.75082
2.1666
2.13809
2.10638
2.0751
2.04194
2.00549
1.97248
1.93773
1.90279
1.86211
1.83289
1.83231
1.8711
1.9718
2.03387
2.04658
2.04355
2.02983
2.0102
1.9887
1.9625
1.94578
1.93527
1.92312
1.90819
1.88878
1.86429
1.84253
1.82689
1.81454
1.80042
1.7849
1.76726
1.74398
1.71815
1.69867
1.69004
1.69259
1.73771
1.85947
1.98299
2.04872
2.06282
2.07714
2.07919
2.07305
2.06565
2.05723
2.04694
2.03438
2.02561
2.02051
2.01666
2.0131
2.00914
2.00397
1.99717
1.9887
1.97963
1.97188
1.96553
1.9596
1.95333
1.94609
1.93804
1.93101
1.92619
1.92228
1.91775
1.91082
1.89957
1.88654
1.87782
1.87246
1.86769
1.86295
1.85798
1.85158
1.84378
1.83882
1.83641
1.83389
1.82855
1.81563
1.79563
1.7849
1.78294
1.78162
1.78009
1.77709
1.77278
1.76325
1.7481
1.7384
1.73843
1.76127
2.15172
2.12604
2.09954
2.07103
2.03921
2.00755
1.97617
1.94264
1.91003
1.87977
1.89841
1.9648
2.05699
2.12865
2.12011
2.09045
2.05616
2.03633
2.02648
2.01261
1.99058
1.96956
1.95506
1.94018
1.92388
1.90527
1.88165
1.85832
1.83858
1.82271
1.80836
1.7921
1.77478
1.75547
1.73151
1.70869
1.68941
1.67736
1.66793
1.6785
1.74457
1.86045
1.95378
2.00757
2.02421
2.03587
2.0332
2.0259
2.0177
2.00449
1.99152
1.98469
1.98169
1.97938
1.97646
1.97228
1.96685
1.95894
1.94828
1.93914
1.93316
1.92819
1.92297
1.91687
1.90945
1.90147
1.89555
1.8919
1.88861
1.8841
1.87611
1.86291
1.84949
1.84257
1.83945
1.83743
1.83534
1.83174
1.8249
1.81638
1.80955
1.80379
1.79798
1.78998
1.77894
1.76852
1.7639
1.76266
1.76244
1.76036
1.75611
1.74759
1.73355
1.73162
1.7424
1.81501
2.13631
2.11348
2.09053
2.0651
2.03474
2.00697
1.97537
1.94958
1.93456
1.96922
2.06415
2.12863
2.16328
2.16234
2.13631
2.09958
2.07024
2.05559
2.04782
2.03379
2.01163
1.98494
1.9651
1.94981
1.93364
1.91601
1.89576
1.87136
1.84926
1.82972
1.81255
1.7962
1.77834
1.75998
1.7395
1.71668
1.69622
1.67841
1.66076
1.65101
1.64316
1.66201
1.73494
1.84243
1.92234
1.96622
1.98458
1.99294
1.98805
1.97618
1.96117
1.95159
1.94879
1.94691
1.94411
1.9403
1.93569
1.92793
1.91613
1.90778
1.90308
1.899
1.89457
1.8894
1.88284
1.87444
1.86622
1.861
1.85752
1.85377
1.84813
1.839
1.82695
1.81796
1.8145
1.81251
1.8104
1.80733
1.80133
1.79094
1.77996
1.77184
1.766
1.76214
1.75906
1.75478
1.74782
1.73898
1.73246
1.72975
1.72906
1.7317
1.7414
1.76847
1.81568
1.89748
2.11463
2.09693
2.07712
2.05277
2.02713
2.00212
1.97988
1.98726
2.0494
2.15368
2.20095
2.20468
2.19645
2.16861
2.14149
2.11295
2.08766
2.07373
2.06303
2.04714
2.02551
1.99806
1.97251
1.95521
1.93983
1.92251
1.90389
1.88188
1.85645
1.83529
1.8167
1.79936
1.7818
1.76285
1.74215
1.71996
1.6981
1.6802
1.66359
1.64587
1.6308
1.62189
1.61554
1.63838
1.71782
1.81753
1.89536
1.9303
1.94588
1.94441
1.93073
1.9225
1.92012
1.91644
1.91344
1.90991
1.90508
1.8953
1.88464
1.87913
1.87542
1.87219
1.86847
1.86363
1.85727
1.84911
1.83932
1.83107
1.8256
1.82153
1.81767
1.81249
1.80553
1.79782
1.79132
1.78729
1.78431
1.78072
1.77444
1.76233
1.74808
1.74096
1.73902
1.73814
1.73693
1.73448
1.72719
1.71444
1.70511
1.70586
1.71222
1.74016
1.79137
1.85934
1.90627
1.93091
2.09818
2.08158
2.06383
2.03935
2.01964
2.00922
2.0429
2.13022
2.22627
2.26061
2.23256
2.20911
2.19465
2.17405
2.15288
2.12932
2.10088
2.08258
2.06919
2.05309
2.03302
2.00705
1.98041
1.95932
1.9421
1.9246
1.90506
1.88432
1.86046
1.83683
1.81761
1.80004
1.78263
1.76415
1.74383
1.72138
1.69927
1.67952
1.6633
1.6481
1.63177
1.61302
1.60027
1.58518
1.5865
1.61997
1.70825
1.79963
1.87254
1.89664
1.89413
1.897
1.89519
1.89073
1.88837
1.88285
1.86912
1.8579
1.85445
1.85071
1.84871
1.8468
1.84369
1.83894
1.83318
1.82502
1.81363
1.80439
1.79774
1.79223
1.78758
1.78393
1.78055
1.77675
1.7711
1.7638
1.75793
1.75326
1.74661
1.73257
1.71901
1.71662
1.71538
1.71411
1.71316
1.71154
1.70639
1.696
1.69533
1.70764
1.74638
1.80868
1.87059
1.91672
1.9367
1.93248
2.08398
2.06706
2.04466
2.0275
2.03489
2.09776
2.20674
2.2647
2.29549
2.27714
2.23582
2.20382
2.19018
2.17844
2.15899
2.13627
2.10823
2.08522
2.07053
2.05504
2.03574
2.01135
1.98417
1.96183
1.94217
1.92384
1.90441
1.88307
1.86116
1.8389
1.81812
1.79973
1.782
1.76366
1.74399
1.72274
1.7012
1.68126
1.66349
1.64763
1.63265
1.61589
1.59758
1.58005
1.56822
1.55639
1.5642
1.61255
1.70517
1.79338
1.83582
1.8564
1.86951
1.87331
1.87063
1.86096
1.84266
1.82523
1.82206
1.8239
1.82643
1.82441
1.82086
1.81514
1.80443
1.79144
1.78407
1.77844
1.77367
1.76815
1.76197
1.75789
1.75634
1.75467
1.75003
1.74256
1.73585
1.72803
1.71763
1.70587
1.69553
1.68838
1.68642
1.6861
1.68662
1.68861
1.69406
1.70349
1.72685
1.77535
1.83367
1.87942
1.91543
1.91612
1.91181
1.90304
2.06523
2.04452
2.02955
2.0575
2.15626
2.26478
2.30585
2.2976
2.28722
2.2646
2.23256
2.20158
2.18859
2.17934
2.15801
2.13447
2.11127
2.08667
2.0692
2.05325
2.03362
2.01116
1.98485
1.96071
1.94036
1.92072
1.90145
1.88102
1.85932
1.83759
1.81656
1.79698
1.77892
1.761
1.74249
1.723
1.70281
1.6828
1.66432
1.64779
1.63252
1.61775
1.60162
1.58452
1.56592
1.54926
1.54272
1.54157
1.55728
1.61867
1.70959
1.77551
1.8236
1.84414
1.84786
1.84374
1.8297
1.81106
1.79855
1.79608
1.79688
1.79808
1.79722
1.79294
1.78092
1.76346
1.75734
1.75715
1.75463
1.74971
1.74419
1.73737
1.72809
1.72024
1.71969
1.72013
1.71659
1.7078
1.69437
1.68316
1.6741
1.66554
1.66289
1.66372
1.6662
1.67901
1.71101
1.76138
1.81392
1.86779
1.89282
1.89199
1.88879
1.88426
1.87866
1.87259
2.04622
2.04254
2.09564
2.21536
2.30382
2.33442
2.30252
2.28205
2.26583
2.24879
2.22684
2.20044
2.18483
2.17444
2.15542
2.1298
2.10787
2.08512
2.06454
2.04716
2.02715
2.00491
1.98149
1.95795
1.937
1.9176
1.89806
1.87789
1.85676
1.83511
1.81423
1.79465
1.77624
1.75843
1.74112
1.72409
1.70643
1.68787
1.66897
1.65114
1.63483
1.6191
1.60404
1.59211
1.58135
1.56733
1.55074
1.54043
1.534
1.53743
1.56527
1.62839
1.71351
1.77759
1.81558
1.82766
1.82497
1.81484
1.79686
1.78378
1.77872
1.77667
1.77441
1.77126
1.76586
1.75126
1.73436
1.72953
1.72947
1.73057
1.72786
1.7207
1.70975
1.69947
1.69088
1.68721
1.68464
1.67961
1.67182
1.66397
1.65845
1.65177
1.64934
1.65406
1.6767
1.72789
1.78738
1.83628
1.86973
1.8879
1.88742
1.88119
1.86583
1.85884
1.85834
1.85722
1.92651
2.11636
2.2746
2.32915
2.34514
2.32342
2.29021
2.26515
2.24961
2.2376
2.22077
2.19879
2.18226
2.16964
2.15196
2.12684
2.10242
2.08171
2.06081
2.04145
2.02182
1.99994
1.97733
1.95557
1.93541
1.91645
1.89761
1.87735
1.85537
1.83352
1.81341
1.79481
1.77754
1.76095
1.74439
1.72793
1.71213
1.69671
1.68045
1.66376
1.64773
1.63338
1.61993
1.60282
1.58476
1.57989
1.57742
1.57003
1.55874
1.5498
1.53982
1.54416
1.57449
1.64438
1.72264
1.78861
1.82284
1.82244
1.81189
1.79048
1.76938
1.76278
1.76101
1.76023
1.75645
1.74901
1.7321
1.71691
1.7113
1.70772
1.70558
1.70433
1.70098
1.69227
1.67658
1.66174
1.65459
1.65145
1.65002
1.65039
1.65014
1.65495
1.67061
1.70704
1.75665
1.80805
1.84398
1.86916
1.8767
1.8776
1.87356
1.86345
1.85366
1.84971
1.8494
1.84608
1.72265
2.31346
2.40689
2.38108
2.36212
2.33252
2.30207
2.27541
2.25782
2.24427
2.22584
2.20305
2.18392
2.16807
2.14864
2.12402
2.09801
2.07666
2.05699
2.03796
2.01885
1.99853
1.97591
1.95297
1.93382
1.91707
1.89908
1.88016
1.86008
1.83737
1.81652
1.80038
1.78568
1.77004
1.75317
1.7365
1.72095
1.70699
1.6938
1.68117
1.66957
1.65814
1.64403
1.62647
1.61073
1.59988
1.59211
1.58595
1.57833
1.57039
1.55997
1.54994
1.54079
1.55162
1.59601
1.67547
1.7567
1.81394
1.82076
1.81267
1.78714
1.767
1.76096
1.76087
1.75812
1.74889
1.73624
1.71685
1.70257
1.69723
1.69343
1.68915
1.68548
1.68071
1.6691
1.64999
1.63684
1.63352
1.6348
1.64018
1.66082
1.70329
1.75891
1.80322
1.83771
1.86004
1.86479
1.86932
1.87088
1.86749
1.86027
1.85413
1.85116
1.84757
1.84416
1.8366
1.88845
2.571
2.55797
2.48671
2.43293
2.39051
2.35261
2.31698
2.2911
2.27361
2.25376
2.22767
2.20581
2.18857
2.16876
2.14521
2.12117
2.10103
2.08225
2.0644
2.04512
2.0196
1.99239
1.97452
1.95951
1.94257
1.92316
1.89915
1.87672
1.86181
1.84857
1.83361
1.81858
1.80299
1.78456
1.76333
1.74369
1.72849
1.71952
1.71308
1.70513
1.69575
1.68447
1.66902
1.64942
1.63045
1.6186
1.6136
1.6107
1.60627
1.59816
1.584
1.56998
1.55046
1.54978
1.56869
1.63378
1.72046
1.79375
1.82469
1.81545
1.79133
1.7749
1.76672
1.76272
1.75414
1.74227
1.72652
1.70874
1.69787
1.69183
1.68641
1.67997
1.6727
1.66346
1.65006
1.63841
1.63703
1.64494
1.67835
1.74486
1.80564
1.84832
1.8681
1.87974
1.87956
1.87599
1.87491
1.87286
1.87051
1.86741
1.86419
1.86077
1.85536
1.84796
1.83556
2.08769
2.70214
2.66429
2.59292
2.54173
2.49137
2.444
2.40296
2.37211
2.34962
2.31995
2.28592
2.25785
2.23564
2.21321
2.1882
2.16228
2.14149
2.1217
2.10108
2.08138
2.06241
2.03984
2.01394
1.98794
1.96713
1.95209
1.93859
1.9215
1.90112
1.87993
1.86058
1.84392
1.83041
1.81962
1.80751
1.78927
1.76707
1.74646
1.73234
1.72335
1.71699
1.71191
1.70683
1.69636
1.67861
1.65965
1.64529
1.63553
1.62795
1.62098
1.61411
1.60511
1.5895
1.5696
1.55387
1.56087
1.59915
1.67405
1.7588
1.81891
1.81557
1.79868
1.78421
1.77511
1.76914
1.7586
1.74411
1.72552
1.70704
1.6948
1.68671
1.67769
1.66954
1.6644
1.65503
1.65596
1.67619
1.73393
1.79602
1.85442
1.87759
1.89408
1.9062
1.90642
1.90326
1.89664
1.89155
1.88866
1.88606
1.88287
1.87927
1.87475
1.86772
1.85813
1.84661
2.1747
2.75094
2.7405
2.69926
2.66083
2.61559
2.57014
2.52769
2.48902
2.45
2.40763
2.36925
2.33712
2.31082
2.28734
2.26029
2.23059
2.2057
2.18439
2.16031
2.13528
2.11189
2.08917
2.06401
2.03865
2.01742
1.99927
1.9821
1.96533
1.94671
1.92602
1.90707
1.89205
1.87909
1.86563
1.85092
1.83459
1.81574
1.79667
1.78109
1.76942
1.75979
1.75017
1.7396
1.72809
1.71541
1.70148
1.688
1.67617
1.66532
1.65423
1.64183
1.62914
1.61568
1.59965
1.58327
1.56837
1.5688
1.5823
1.63317
1.72113
1.79554
1.81632
1.80909
1.79689
1.78717
1.77885
1.76558
1.74863
1.72845
1.70744
1.69269
1.68183
1.67805
1.67704
1.69227
1.73966
1.81277
1.87207
1.90491
1.9234
1.93104
1.9408
1.94449
1.94243
1.93658
1.92909
1.92447
1.92223
1.9193
1.91526
1.90926
1.90136
1.89107
1.88073
1.86922
2.15653
2.72923
2.74632
2.72865
2.71062
2.68327
2.65218
2.61914
2.5831
2.54355
2.50343
2.46741
2.43596
2.408
2.37936
2.3467
2.31369
2.28477
2.25965
2.23324
2.2056
2.1774
2.14861
2.12221
2.09954
2.07977
2.06123
2.04296
2.02424
2.00414
1.98327
1.96416
1.94816
1.93388
1.91944
1.90399
1.88705
1.86888
1.85061
1.83336
1.81759
1.80348
1.79075
1.77887
1.76729
1.75555
1.74279
1.72813
1.7115
1.69447
1.67893
1.66597
1.65483
1.64463
1.6335
1.61797
1.59649
1.57182
1.55855
1.56476
1.59791
1.6741
1.76737
1.81676
1.81068
1.80322
1.79369
1.78478
1.77151
1.75239
1.73152
1.71237
1.70572
1.7092
1.74152
1.81844
1.8897
1.94394
1.96961
1.98465
1.98537
1.98457
1.9836
1.98261
1.98196
1.98038
1.97577
1.97041
1.96621
1.96117
1.95436
1.94607
1.93676
1.92686
1.91878
1.90701
2.12431
2.69772
2.74122
2.72589
2.71502
2.69909
2.68023
2.65792
2.63004
2.59788
2.56572
2.53612
2.5085
2.48062
2.44859
2.41445
2.38211
2.353
2.32774
2.30275
2.27375
2.24362
2.21094
2.18088
2.15669
2.13601
2.1179
2.10118
2.08371
2.06382
2.0417
2.01952
1.99927
1.98175
1.96622
1.95109
1.93473
1.91633
1.89617
1.87545
1.85554
1.83775
1.82309
1.81103
1.79969
1.78709
1.77185
1.754
1.73448
1.71502
1.69805
1.68584
1.67576
1.66512
1.65177
1.63506
1.61299
1.58715
1.56554
1.56021
1.5623
1.58084
1.63892
1.72925
1.79141
1.81605
1.80762
1.79955
1.79299
1.78158
1.76374
1.75109
1.76865
1.83204
1.91777
1.98196
2.00918
2.03837
2.04626
2.04289
2.03462
2.0296
2.03
2.0325
2.03335
2.03183
2.02589
2.01655
2.00769
1.99978
1.99202
1.98358
1.97516
1.96741
1.96055
1.94763
2.09203
2.67989
2.73096
2.71682
2.71009
2.69761
2.68131
2.66124
2.63811
2.61402
2.59089
2.56808
2.54335
2.51506
2.48389
2.45312
2.42498
2.3992
2.37421
2.34692
2.31668
2.28456
2.25314
2.226
2.20331
2.18376
2.16583
2.1476
2.12678
2.10343
2.08019
2.05933
2.04034
2.02223
2.00461
1.98665
1.96705
1.94573
1.92409
1.90348
1.8845
1.86659
1.84969
1.83408
1.81873
1.80275
1.78584
1.76845
1.751
1.7334
1.71582
1.69924
1.68446
1.67123
1.65779
1.64273
1.62453
1.60395
1.5848
1.56999
1.56159
1.55632
1.56387
1.59849
1.67294
1.75644
1.78918
1.79884
1.80484
1.80824
1.82581
1.87014
1.94492
2.01958
2.06599
2.08697
2.09224
2.09176
2.08703
2.08118
2.07865
2.07527
2.07479
2.07529
2.0745
2.0715
2.06459
2.05423
2.04329
2.03364
2.02511
2.01652
2.00842
2.0006
1.99317
1.97957
2.06985
2.67658
2.72202
2.70657
2.69997
2.68901
2.67577
2.65931
2.64096
2.62133
2.59997
2.57623
2.55039
2.52335
2.49627
2.47028
2.44467
2.41846
2.38952
2.35963
2.33158
2.30595
2.28257
2.25972
2.23707
2.21424
2.19021
2.16576
2.14305
2.12266
2.10404
2.08635
2.06835
2.04814
2.02463
2.00028
1.97805
1.95821
1.93976
1.92176
1.9039
1.88559
1.86603
1.84486
1.82441
1.80695
1.79181
1.7775
1.76267
1.74624
1.72778
1.70767
1.68768
1.67158
1.65855
1.64585
1.63192
1.61724
1.6013
1.58241
1.56556
1.55203
1.54438
1.54351
1.56098
1.61867
1.71288
1.77703
1.81845
1.88292
1.95797
2.01443
2.07843
2.11127
2.12568
2.12472
2.1212
2.11992
2.11681
2.11568
2.11477
2.11058
2.10564
2.10178
2.09706
2.09054
2.08241
2.07283
2.06287
2.05403
2.04591
2.03816
2.03
2.02149
2.01323
1.99839
2.06314
2.67845
2.71915
2.70284
2.69575
2.68468
2.67214
2.6572
2.64029
2.62112
2.59952
2.57591
2.55175
2.52759
2.50358
2.47748
2.44941
2.41997
2.39097
2.36355
2.3385
2.31711
2.29728
2.27402
2.24988
2.22344
2.19529
2.16959
2.14826
2.13036
2.11431
2.09822
2.07979
2.05659
2.02901
2.00203
1.97954
1.96107
1.94498
1.93002
1.91474
1.89632
1.87265
1.84636
1.82346
1.80557
1.79138
1.77951
1.76802
1.75453
1.73541
1.70988
1.68579
1.66819
1.65526
1.6446
1.63555
1.62537
1.6089
1.58502
1.5645
1.54953
1.53743
1.53135
1.52761
1.53883
1.59204
1.70584
1.85443
1.98217
2.07871
2.15324
2.19955
2.18949
2.16534
2.14411
2.13567
2.12963
2.1259
2.12675
2.12703
2.12361
2.11928
2.11452
2.10747
2.09867
2.08933
2.07891
2.06811
2.05904
2.05072
2.0435
2.03575
2.02727
2.01904
2.00396
)
;

boundaryField
{
    inlet
    {
        type            fixedValue;
        value           uniform 1;
    }
    outlet
    {
        type            inletOutlet;
        inletValue      uniform 1;
        value           nonuniform List<scalar> 
32
(
2.00289
1.99614
1.97829
1.95081
1.91564
1.87837
1.84429
1.81711
1.80413
1.78626
1.77459
1.76357
1.75386
1.75064
1.76182
1.81511
1.89635
1.93031
1.93208
1.90302
1.87343
1.85863
1.84644
1.83617
1.83488
1.84668
1.86935
1.90689
1.94729
1.97911
1.99786
2.00342
)
;
    }
    bottom
    {
        type            symmetryPlane;
    }
    top
    {
        type            symmetryPlane;
    }
    obstacle
    {
        type            zeroGradient;
    }
    defaultFaces
    {
        type            empty;
    }
}


// ************************************************************************* //
