/*--------------------------------*- C++ -*----------------------------------*\
  =========                 |
  \\      /  F ield         | OpenFOAM: The Open Source CFD Toolbox
   \\    /   O peration     | Website:  https://openfoam.org
    \\  /    A nd           | Version:  7
     \\/     M anipulation  |
\*---------------------------------------------------------------------------*/
FoamFile
{
    version     2.0;
    format      ascii;
    class       volVectorField;
    location    "4.5";
    object      U;
}
// * * * * * * * * * * * * * * * * * * * * * * * * * * * * * * * * * * * * * //

dimensions      [0 1 -1 0 0 0 0];

internalField   nonuniform List<vector> 
4032
(
(3 7.99653e-18 0)
(3 3.9589e-17 0)
(3 -3.87488e-17 0)
(3 -4.40398e-16 0)
(3 -4.04196e-16 0)
(3 -3.12106e-16 0)
(3 -7.30743e-16 0)
(3 -1.39587e-15 0)
(3 -6.33934e-16 0)
(3 -2.89002e-16 0)
(3 2.68182e-16 0)
(2.91004 0.00308461 0)
(0.993835 0.0163064 0)
(0.710176 0.0190949 0)
(0.658435 0.0238115 0)
(0.598681 0.02534 0)
(0.539725 0.0266459 0)
(0.478908 0.0280516 0)
(0.416259 0.0296204 0)
(0.351128 0.0314469 0)
(0.282989 0.0334995 0)
(0.210287 0.0365491 0)
(0.131429 0.0391443 0)
(0.0489253 0.0442237 0)
(3 -1.32366e-16 0)
(3 -6.70394e-17 0)
(3 -1.5742e-16 0)
(3 -2.26377e-16 0)
(3 -2.07478e-16 0)
(3 -1.84516e-16 0)
(3 -6.2391e-16 0)
(3 -1.8682e-15 0)
(3 -1.56143e-15 0)
(3 -9.48766e-16 0)
(3 -9.05526e-16 0)
(2.92057 0.0202155 0)
(1.00127 0.0748786 0)
(0.69754 0.066494 0)
(0.643376 0.0708481 0)
(0.58441 0.0754328 0)
(0.525422 0.0798909 0)
(0.464169 0.084587 0)
(0.400887 0.0894515 0)
(0.335425 0.0950132 0)
(0.267783 0.101132 0)
(0.197329 0.110721 0)
(0.121863 0.119154 0)
(0.0454026 0.133667 0)
(3 1.25357e-16 0)
(3 3.23431e-16 0)
(3 2.21563e-16 0)
(3 6.43742e-17 0)
(3 -5.34106e-17 0)
(3 1.83938e-16 0)
(3 -1.9772e-16 0)
(3 -5.37667e-16 0)
(3 -7.86912e-16 0)
(3 -1.04128e-15 0)
(3 -1.27485e-15 0)
(2.96311 0.0330836 0)
(1.0396 0.137158 0)
(0.713543 0.114887 0)
(0.658708 0.122071 0)
(0.597505 0.129793 0)
(0.536244 0.137505 0)
(0.472802 0.14563 0)
(0.407 0.153743 0)
(0.338564 0.162505 0)
(0.267498 0.170982 0)
(0.194629 0.184391 0)
(0.117739 0.195747 0)
(0.0432162 0.216062 0)
(3 2.24889e-16 0)
(3 1.60351e-16 0)
(3 -1.0357e-17 0)
(3 -1.34906e-16 0)
(3 -2.68268e-16 0)
(3 -1.16725e-16 0)
(3 -3.97873e-16 0)
(3 4.60081e-17 0)
(3 2.87825e-16 0)
(3 -8.34441e-17 0)
(3 -6.47072e-16 0)
(3.00681 0.00513456 0)
(1.11615 0.181208 0)
(0.743505 0.152812 0)
(0.691749 0.16725 0)
(0.632485 0.179276 0)
(0.571543 0.190765 0)
(0.507839 0.203442 0)
(0.440331 0.216794 0)
(0.368184 0.231812 0)
(0.290835 0.245477 0)
(0.211052 0.263833 0)
(0.126863 0.27792 0)
(0.0452626 0.300641 0)
(3 -2.25034e-16 0)
(3 -7.19364e-16 0)
(3 -8.74951e-16 0)
(3 -4.79278e-16 0)
(3 -2.11579e-16 0)
(3 -6.63001e-16 0)
(3 -4.29535e-16 0)
(3 -1.55232e-17 0)
(3 2.9671e-16 0)
(3 4.22062e-16 0)
(3 5.10963e-17 0)
(3.00043 2.15297e-05 0)
(1.22856 0.224543 0)
(0.750469 0.196903 0)
(0.695053 0.217381 0)
(0.639597 0.234091 0)
(0.581662 0.249273 0)
(0.521641 0.266872 0)
(0.457931 0.285969 0)
(0.390028 0.307702 0)
(0.315431 0.326343 0)
(0.236146 0.349333 0)
(0.146162 0.368708 0)
(0.0544753 0.397195 0)
(3 4.344e-17 0)
(3 -7.10001e-18 0)
(3 -1.98857e-17 0)
(3 -1.46885e-16 0)
(3 -2.96385e-16 0)
(3 -1.12067e-15 0)
(3 -8.67085e-16 0)
(3 -3.43812e-16 0)
(3 2.13861e-16 0)
(3 7.51103e-16 0)
(3 7.58666e-16 0)
(3 -7.94118e-08 0)
(1.41232 0.274817 0)
(0.766815 0.246281 0)
(0.696101 0.261621 0)
(0.647089 0.280722 0)
(0.597083 0.298709 0)
(0.546922 0.320398 0)
(0.491949 0.345036 0)
(0.430352 0.375547 0)
(0.355331 0.406387 0)
(0.268427 0.443883 0)
(0.166587 0.479372 0)
(0.0558909 0.515153 0)
(3 2.35363e-17 0)
(3 1.48708e-16 0)
(3 2.16139e-16 0)
(3 -3.00719e-16 0)
(3 -7.81234e-16 0)
(3 -6.11628e-16 0)
(3 -1.71284e-16 0)
(3 -1.52191e-17 0)
(3 3.07546e-16 0)
(3 3.74662e-16 0)
(3 1.2872e-15 0)
(3 -7.96012e-08 0)
(1.69009 0.326173 0)
(0.798017 0.311291 0)
(0.696678 0.309151 0)
(0.645563 0.325073 0)
(0.597559 0.343428 0)
(0.554242 0.369622 0)
(0.508314 0.40231 0)
(0.459073 0.444996 0)
(0.398147 0.492601 0)
(0.326625 0.544065 0)
(0.234129 0.595269 0)
(0.101452 0.65843 0)
(3 -2.08599e-16 0)
(3 -1.06735e-16 0)
(3 3.25198e-17 0)
(3 -3.28836e-16 0)
(3 -3.30029e-16 0)
(3 2.93049e-16 0)
(3 4.51913e-16 0)
(3 -3.60472e-17 0)
(3 -2.783e-16 0)
(3 -3.04907e-16 0)
(3 -2.63511e-16 0)
(3 -1.67295e-08 0)
(2.09845 0.36563 0)
(0.856515 0.396759 0)
(0.718807 0.370595 0)
(0.668353 0.379205 0)
(0.620791 0.392377 0)
(0.579588 0.416504 0)
(0.54045 0.452139 0)
(0.502032 0.501153 0)
(0.457822 0.560982 0)
(0.395534 0.641836 0)
(0.275895 0.75774 0)
(0.151215 0.922863 0)
(3 3.54774e-17 0)
(3 -4.90993e-17 0)
(3 7.43368e-17 0)
(3 6.93932e-16 0)
(3 6.12668e-16 0)
(3 8.0917e-16 0)
(3 7.26546e-16 0)
(3 -1.49732e-16 0)
(3 -5.95194e-17 0)
(3 -6.34148e-17 0)
(3 -1.02705e-15 0)
(3 -1.74597e-09 0)
(2.68492 0.291771 0)
(0.993278 0.478288 0)
(0.806436 0.407542 0)
(0.75366 0.415777 0)
(0.695051 0.434184 0)
(0.642926 0.459628 0)
(0.600037 0.496603 0)
(0.563566 0.549752 0)
(0.529913 0.626863 0)
(0.496915 0.751082 0)
(0.465541 0.923015 0)
(0.577054 1.19994 0)
(3 8.18043e-17 0)
(3 1.00372e-17 0)
(3 -6.88394e-17 0)
(3 4.37799e-17 0)
(3 5.96239e-16 0)
(3 7.97869e-16 0)
(3 3.95748e-16 0)
(3 4.76864e-17 0)
(3 -2.35899e-18 0)
(3 -4.29079e-16 0)
(3 -5.42473e-16 0)
(3 -7.10258e-11 0)
(3.07444 0.0380802 0)
(1.22842 0.469509 0)
(0.883026 0.448996 0)
(0.839216 0.476289 0)
(0.785542 0.491488 0)
(0.730817 0.511912 0)
(0.682564 0.545064 0)
(0.643388 0.596927 0)
(0.62411 0.681689 0)
(0.623255 0.816839 0)
(0.686349 0.966289 0)
(0.970002 1.13683 0)
(3 -1.18332e-16 0)
(3 -1.69124e-16 0)
(3 -4.16721e-16 0)
(3 -3.96324e-16 0)
(3 -2.56303e-16 0)
(3 -3.92594e-16 0)
(3 -7.76126e-16 0)
(3 -1.07256e-15 0)
(3 -2.36414e-15 0)
(3 -2.10252e-15 0)
(3 -8.89777e-16 0)
(3 -1.5027e-12 0)
(3.00752 5.53449e-05 0)
(1.45146 0.462504 0)
(0.883529 0.513772 0)
(0.836078 0.532774 0)
(0.801393 0.552303 0)
(0.773164 0.576068 0)
(0.745644 0.607636 0)
(0.720687 0.651045 0)
(0.723103 0.724672 0)
(0.750796 0.839256 0)
(0.872655 0.962979 0)
(1.18187 1.068 0)
(3 -2.71219e-16 0)
(3 -7.7028e-17 0)
(3 -4.04371e-17 0)
(3 -1.89943e-16 0)
(3 -6.34034e-16 0)
(3 -6.07083e-16 0)
(3 -5.84641e-16 0)
(3 -7.88811e-16 0)
(3 -1.90718e-15 0)
(3 -2.17667e-15 0)
(3 -9.55447e-16 0)
(3 -1.44012e-14 0)
(3.00005 -2.01451e-06 0)
(1.97201 0.493238 0)
(0.932043 0.579553 0)
(0.854155 0.560687 0)
(0.835707 0.582863 0)
(0.821526 0.608543 0)
(0.811235 0.642969 0)
(0.802965 0.682845 0)
(0.817907 0.745988 0)
(0.867247 0.837067 0)
(1.01085 0.939427 0)
(1.27493 1.00708 0)
(3 5.363e-17 0)
(3 4.75791e-16 0)
(3 7.4938e-16 0)
(3 3.41688e-17 0)
(3 -5.2532e-16 0)
(3 -5.61974e-16 0)
(3 -7.35634e-17 0)
(3 5.22731e-17 0)
(3 -1.16096e-16 0)
(3 -1.29098e-15 0)
(3 -1.87833e-15 0)
(3 -1.69339e-15 0)
(3.00001 -2.57718e-06 0)
(2.78002 0.304756 0)
(1.10542 0.634741 0)
(0.924476 0.578614 0)
(0.895944 0.601209 0)
(0.878186 0.630966 0)
(0.873566 0.66939 0)
(0.878979 0.711002 0)
(0.902707 0.765174 0)
(0.966991 0.833934 0)
(1.10611 0.906077 0)
(1.31973 0.94711 0)
(3 2.83738e-16 0)
(3 1.49757e-16 0)
(3 1.03276e-16 0)
(3 -5.65246e-17 0)
(3 6.75823e-17 0)
(3 -6.5165e-16 0)
(3 -6.52561e-16 0)
(3 -7.14921e-16 0)
(3 -4.05476e-16 0)
(3 -1.40451e-16 0)
(3 -4.36945e-16 0)
(3 -3.02963e-16 0)
(3 -5.45043e-07 0)
(3.07175 0.0225328 0)
(1.44289 0.628461 0)
(1.00011 0.654407 0)
(0.949784 0.653794 0)
(0.925727 0.669403 0)
(0.925027 0.696727 0)
(0.941767 0.732375 0)
(0.976545 0.775186 0)
(1.0493 0.828209 0)
(1.17571 0.879133 0)
(1.34835 0.905607 0)
(3 -4.57547e-17 0)
(3 8.36982e-17 0)
(3 -2.1684e-16 0)
(3 -3.40802e-17 0)
(3 2.89296e-16 0)
(3 3.12807e-16 0)
(3 2.98313e-16 0)
(3 3.09037e-16 0)
(3 3.60216e-16 0)
(3 1.12728e-15 0)
(3 2.4974e-15 0)
(3 1.61221e-15 0)
(3 -5.55641e-08 0)
(3.00353 5.58906e-05 0)
(2.01558 0.597893 0)
(1.06396 0.725483 0)
(1.01025 0.700963 0)
(0.995214 0.697729 0)
(0.992355 0.714992 0)
(1.00813 0.742114 0)
(1.04671 0.778526 0)
(1.11725 0.817442 0)
(1.22412 0.850646 0)
(1.36191 0.866059 0)
(3 -2.45655e-16 0)
(3 -1.44905e-16 0)
(3 -2.59993e-16 0)
(3 -4.48783e-16 0)
(3 -1.94138e-16 0)
(3 5.63194e-16 0)
(3 8.08172e-16 0)
(3 1.12367e-15 0)
(3 1.46328e-15 0)
(3 2.05819e-15 0)
(3 1.73862e-15 0)
(3 1.54684e-15 0)
(3 -1.76977e-09 0)
(3.00001 -2.78874e-07 0)
(2.95789 0.206621 0)
(1.29158 0.695512 0)
(1.08361 0.717675 0)
(1.08759 0.720257 0)
(1.08272 0.740932 0)
(1.08854 0.76319 0)
(1.11691 0.789652 0)
(1.17785 0.818851 0)
(1.2663 0.84059 0)
(1.3795 0.849343 0)
(3 1.62047e-16 0)
(3 -4.65341e-16 0)
(3 -7.52798e-16 0)
(3 -5.50809e-16 0)
(3 -1.84773e-18 0)
(3 2.89157e-16 0)
(3 3.93992e-16 0)
(3 1.07783e-15 0)
(3 2.21092e-15 0)
(3 2.37799e-15 0)
(3 1.392e-15 0)
(3 1.30662e-15 0)
(3 -3.93397e-12 0)
(3 -6.06473e-07 0)
(3.03811 0.00517483 0)
(1.58425 0.657975 0)
(1.10054 0.757467 0)
(1.10996 0.765237 0)
(1.11685 0.783152 0)
(1.14035 0.796007 0)
(1.17502 0.807539 0)
(1.22984 0.819344 0)
(1.30457 0.830052 0)
(1.39904 0.833199 0)
(3 -4.25672e-17 0)
(3 -1.19498e-16 0)
(3 -2.15289e-16 0)
(3 -3.32827e-16 0)
(3 -1.73089e-16 0)
(3 -2.72081e-16 0)
(3 -2.75915e-16 0)
(3 4.26214e-17 0)
(3 9.13302e-16 0)
(3 4.34694e-16 0)
(3 8.22214e-17 0)
(3 -8.28498e-17 0)
(3 -5.39221e-15 0)
(3 -1.16307e-07 0)
(3.00068 2.7287e-05 0)
(2.41746 0.498793 0)
(1.21103 0.787725 0)
(1.13477 0.79108 0)
(1.14863 0.794793 0)
(1.17723 0.805168 0)
(1.21752 0.817389 0)
(1.27081 0.828606 0)
(1.33934 0.835743 0)
(1.42017 0.834777 0)
(3 -4.44401e-17 0)
(3 1.5313e-16 0)
(3 5.17193e-16 0)
(3 5.83718e-16 0)
(3 7.35027e-16 0)
(3 5.66529e-16 0)
(3 3.01029e-16 0)
(3 -4.09178e-16 0)
(3 -8.87944e-16 0)
(3 -9.92272e-16 0)
(3 -1.47552e-15 0)
(3 -1.2928e-15 0)
(3 -6.19283e-16 0)
(3 -3.69135e-09 0)
(3.00002 -7.63845e-06 0)
(3.05969 0.0663987 0)
(1.57448 0.774154 0)
(1.18442 0.786588 0)
(1.1986 0.794907 0)
(1.22113 0.80727 0)
(1.25881 0.81862 0)
(1.3086 0.828386 0)
(1.37132 0.833114 0)
(1.44329 0.830985 0)
(3 5.14383e-17 0)
(3 -3.52764e-17 0)
(3 -1.91436e-17 0)
(3 5.9555e-16 0)
(3 8.58625e-16 0)
(3 9.15876e-16 0)
(3 6.21493e-16 0)
(3 7.49291e-19 0)
(3 -8.86944e-16 0)
(3 -1.18741e-15 0)
(3 -7.12634e-16 0)
(3 -3.85537e-16 0)
(3 -1.37465e-16 0)
(3 -1.34471e-11 0)
(3 -1.91274e-06 0)
(3.00742 0.00126428 0)
(2.32125 0.621224 0)
(1.26872 0.850249 0)
(1.22389 0.834905 0)
(1.25595 0.833974 0)
(1.2895 0.838455 0)
(1.33685 0.843167 0)
(1.39449 0.844333 0)
(1.45801 0.841905 0)
(3 1.25415e-16 0)
(3 -1.22934e-16 0)
(3 -5.97304e-16 0)
(3 -5.35904e-16 0)
(3 -6.8871e-16 0)
(3 -5.21639e-16 0)
(3 -1.88738e-16 0)
(3 -3.1438e-16 0)
(3 -8.35421e-16 0)
(3 -7.69771e-16 0)
(3 3.77459e-16 0)
(3 4.84545e-16 0)
(3 4.58864e-16 0)
(3 -5.15652e-15 0)
(3 -1.61914e-07 0)
(3.00003 7.87788e-06 0)
(3.0438 0.109121 0)
(1.63957 0.826637 0)
(1.26999 0.83274 0)
(1.30425 0.834057 0)
(1.32939 0.839253 0)
(1.372 0.841409 0)
(1.42268 0.841594 0)
(1.47796 0.83918 0)
(3 8.65952e-17 0)
(3 2.27139e-16 0)
(3 1.20552e-16 0)
(3 -6.47318e-16 0)
(3 -8.75666e-16 0)
(3 -1.10852e-15 0)
(3 -1.16285e-15 0)
(3 -2.80451e-16 0)
(3 1.79338e-16 0)
(3 6.7492e-16 0)
(3 6.3959e-16 0)
(3 5.65261e-16 0)
(3 3.32913e-16 0)
(3 -1.54313e-16 0)
(3 -1.96215e-09 0)
(3 -1.37704e-07 0)
(3.00965 0.00323029 0)
(2.4091 0.624645 0)
(1.36296 0.888908 0)
(1.32725 0.87617 0)
(1.35971 0.868427 0)
(1.39521 0.865428 0)
(1.43825 0.861693 0)
(1.48813 0.854368 0)
(3 -1.72198e-17 0)
(3 1.70776e-16 0)
(3 1.62359e-16 0)
(3 -3.47363e-16 0)
(3 -6.4233e-16 0)
(3 -7.9233e-16 0)
(3 -8.74437e-16 0)
(3 -1.03849e-16 0)
(3 5.11335e-16 0)
(3 1.99908e-16 0)
(3 -5.16128e-16 0)
(3 -1.00332e-15 0)
(3 -1.01268e-15 0)
(3 -7.985e-16 0)
(3 -4.39887e-12 0)
(3 -3.38806e-08 0)
(3.00004 3.66297e-05 0)
(3.03793 0.0950767 0)
(1.77643 0.831315 0)
(1.3651 0.883022 0)
(1.40519 0.876067 0)
(1.43184 0.869904 0)
(1.46658 0.861328 0)
(1.5099 0.850213 0)
(3 -7.54218e-18 0)
(3 -1.09894e-16 0)
(3 3.47102e-16 0)
(3 4.97664e-16 0)
(3 -1.85491e-18 0)
(3 -2.10311e-16 0)
(3 -2.00275e-17 0)
(3 5.26776e-16 0)
(3 4.91153e-16 0)
(3 4.90908e-17 0)
(3 -3.15599e-16 0)
(3 -5.73572e-16 0)
(3 -5.68209e-16 0)
(3 1.1948e-16 0)
(3 -5.52242e-16 0)
(3 -3.12158e-09 0)
(3 1.8846e-08 0)
(3.00547 0.00385919 0)
(2.63545 0.509495 0)
(1.52224 0.933208 0)
(1.42586 0.905771 0)
(1.45703 0.895379 0)
(1.48755 0.883758 0)
(1.52639 0.868891 0)
(3 1.67333e-17 0)
(3 -2.47476e-16 0)
(3 -1.36884e-16 0)
(3 2.61829e-16 0)
(3 4.78505e-16 0)
(3 -2.19582e-17 0)
(3 -5.72617e-16 0)
(3 -4.26311e-16 0)
(3 -6.65672e-16 0)
(3 -8.40212e-16 0)
(3 -1.13427e-15 0)
(3 -3.92514e-16 0)
(3 -2.04065e-16 0)
(3 6.58439e-16 0)
(3 2.88947e-16 0)
(3 -1.19103e-10 0)
(3 -1.16699e-10 0)
(3.00001 3.72441e-05 0)
(3.03303 0.0481073 0)
(2.04208 0.792713 0)
(1.48211 0.916605 0)
(1.49707 0.90619 0)
(1.52403 0.89119 0)
(1.55487 0.878636 0)
(3 1.2244e-16 0)
(3 -6.0228e-17 0)
(3 -3.25011e-16 0)
(3 -2.20764e-16 0)
(3 1.43365e-16 0)
(3 1.07309e-16 0)
(3 -4.83906e-16 0)
(3 -7.92832e-16 0)
(3 -1.24308e-15 0)
(3 -1.38082e-15 0)
(3 -1.63966e-15 0)
(3 -1.59583e-15 0)
(3 -1.25492e-15 0)
(3 -8.52304e-16 0)
(3 -7.69626e-16 0)
(3 -9.89577e-13 0)
(3 -3.62839e-11 0)
(3 2.62508e-08 0)
(3.00139 0.00208113 0)
(2.85531 0.296168 0)
(1.75421 0.898448 0)
(1.51511 0.929345 0)
(1.55138 0.917294 0)
(1.57918 0.906739 0)
(3 2.00015e-16 0)
(3 -8.25462e-17 0)
(3 2.6391e-16 0)
(3 7.29531e-16 0)
(3 7.85374e-16 0)
(3 9.34727e-16 0)
(3 2.20284e-16 0)
(3 -5.14196e-16 0)
(3 -3.50334e-16 0)
(3 -1.60758e-16 0)
(3 -7.70991e-17 0)
(3 -4.29402e-16 0)
(3 -6.46867e-16 0)
(3 -2.34582e-16 0)
(3 3.34151e-16 0)
(3 -2.549e-15 0)
(3 -4.62868e-12 0)
(3 3.43743e-13 0)
(3 1.00871e-05 0)
(3.00906 0.01955 0)
(2.44002 0.626076 0)
(1.62126 0.951618 0)
(1.56509 0.942563 0)
(1.59683 0.927063 0)
(3 -3.43075e-17 0)
(3 -4.67047e-18 0)
(3 2.21977e-16 0)
(3 4.82078e-16 0)
(3 4.48104e-16 0)
(3 8.52921e-17 0)
(3 6.42077e-18 0)
(3 -5.90417e-16 0)
(3 -4.59044e-16 0)
(3 3.94814e-16 0)
(3 1.10368e-15 0)
(3 1.35265e-15 0)
(3 1.40916e-15 0)
(3 8.62306e-16 0)
(3 2.35644e-16 0)
(3 4.61716e-16 0)
(3 -2.41441e-13 0)
(3 -2.73399e-13 0)
(3 5.29209e-09 0)
(3.00005 0.000537699 0)
(2.99031 0.10317 0)
(2.06728 0.804757 0)
(1.62411 0.944795 0)
(1.62123 0.938909 0)
(3 -3.12644e-16 0)
(3 -1.63072e-16 0)
(3 2.85328e-16 0)
(3 1.91554e-16 0)
(3 3.32903e-17 0)
(3 8.79852e-17 0)
(3 6.0745e-16 0)
(3 4.88828e-16 0)
(3 -9.41083e-18 0)
(3 2.24814e-16 0)
(3 5.58209e-16 0)
(3 8.5329e-16 0)
(3 8.57111e-16 0)
(3 -5.0499e-16 0)
(3 -8.82694e-16 0)
(3 2.71525e-16 0)
(3 -2.81002e-15 0)
(3 -9.07239e-14 0)
(3 1.47357e-12 0)
(3 1.15469e-06 0)
(3.00118 0.00558585 0)
(2.8057 0.319938 0)
(1.88039 0.890325 0)
(1.65048 0.954577 0)
(3 7.05989e-17 0)
(3 6.58645e-18 0)
(3 -6.06643e-17 0)
(3 -6.14947e-17 0)
(3 7.01379e-17 0)
(3 4.74018e-17 0)
(3 -1.57731e-16 0)
(3 -6.81195e-16 0)
(3 -7.0741e-16 0)
(3 -4.09728e-16 0)
(3 -6.86083e-16 0)
(3 -6.45097e-16 0)
(3 -5.20501e-16 0)
(3 -4.98449e-16 0)
(3 -6.28554e-16 0)
(3 -2.47403e-16 0)
(3 -2.82172e-16 0)
(3 -1.14277e-14 0)
(3 -1.42138e-14 0)
(3 6.58849e-10 0)
(2.99999 4.87091e-05 0)
(3.00133 0.0246224 0)
(2.51086 0.552582 0)
(1.79745 0.926493 0)
(3 3.72776e-17 0)
(3 -4.01321e-17 0)
(3 -5.21039e-16 0)
(3 -1.00451e-15 0)
(3 -8.23983e-16 0)
(3 -8.10601e-16 0)
(3 -8.67053e-16 0)
(3 -4.25631e-16 0)
(3 -6.15989e-16 0)
(3 -6.34269e-16 0)
(3 -7.53454e-16 0)
(3 -4.24198e-16 0)
(3 2.68323e-16 0)
(3 3.99998e-16 0)
(3 3.21921e-17 0)
(3 -6.30332e-16 0)
(3 -6.88193e-16 0)
(3 -5.38605e-16 0)
(3 -4.74412e-15 0)
(3 1.29367e-13 0)
(3 5.10623e-08 0)
(2.99996 0.000655862 0)
(2.96681 0.0824909 0)
(2.29387 0.69919 0)
(3 -7.35815e-17 0)
(3 6.72628e-18 0)
(3 1.26676e-16 0)
(3 1.62072e-16 0)
(3 -1.71875e-16 0)
(3 -6.68331e-19 0)
(3 -2.74901e-16 0)
(3 9.19302e-17 0)
(3 2.6672e-16 0)
(3 1.33522e-16 0)
(3 1.66503e-16 0)
(3 4.54434e-16 0)
(3 1.58717e-16 0)
(3 -3.64394e-16 0)
(3 -2.54074e-16 0)
(3 -1.05021e-16 0)
(3 -1.81703e-16 0)
(3 2.45703e-16 0)
(3 2.98977e-16 0)
(3 2.17641e-16 0)
(3 2.73627e-11 0)
(3 1.46465e-06 0)
(2.99929 0.00414134 0)
(2.91433 0.195349 0)
(3 -7.72678e-17 0)
(3 1.76826e-16 0)
(3 4.02017e-16 0)
(3 8.0352e-16 0)
(3 5.40545e-16 0)
(3 1.72365e-17 0)
(3 -3.13414e-16 0)
(3 5.84474e-17 0)
(3 6.71681e-16 0)
(3 6.77737e-16 0)
(3 1.38741e-15 0)
(3 1.08503e-15 0)
(3 -3.83763e-16 0)
(3 -3.31175e-16 0)
(3 1.93595e-17 0)
(3 2.81085e-16 0)
(3 3.80565e-16 0)
(3 2.75277e-16 0)
(3 2.573e-16 0)
(3 1.55912e-16 0)
(3 2.3701e-15 0)
(3 1.79077e-09 0)
(3 1.36195e-05 0)
(2.99618 0.0249196 0)
(3 -1.71863e-16 0)
(3 -1.42776e-16 0)
(3 -9.02535e-17 0)
(3 -3.59052e-16 0)
(3 -4.75618e-17 0)
(3 2.35237e-17 0)
(3 7.70998e-16 0)
(3 1.00921e-15 0)
(3 8.61213e-16 0)
(3 7.19709e-16 0)
(3 5.01134e-16 0)
(3 -4.03259e-16 0)
(3 -4.67994e-16 0)
(3 -6.66445e-16 0)
(3 -6.23119e-16 0)
(3 -7.15089e-16 0)
(3 -2.55162e-16 0)
(3 6.35674e-16 0)
(3 4.25887e-16 0)
(3 5.67146e-16 0)
(3 1.14084e-15 0)
(3 3.44012e-13 0)
(3 1.57582e-08 0)
(2.99995 0.000613738 0)
(3 -5.6617e-18 0)
(3 -1.37294e-16 0)
(3 -2.41989e-16 0)
(3 -3.02893e-16 0)
(3 -3.07409e-16 0)
(3 5.51549e-16 0)
(3 1.86914e-15 0)
(3 1.65432e-15 0)
(3 7.28631e-16 0)
(3 5.15881e-16 0)
(3 -8.2436e-16 0)
(3 -2.24105e-15 0)
(3 -1.82476e-15 0)
(3 -1.38777e-15 0)
(3 -1.83676e-15 0)
(3 -1.0859e-15 0)
(3 -6.82106e-16 0)
(3 3.92443e-16 0)
(3 1.68255e-15 0)
(3 1.93676e-15 0)
(3 2.19397e-15 0)
(3 8.68179e-16 0)
(3 4.13178e-12 0)
(3 3.06053e-06 0)
(3 3.79287e-17 0)
(3 4.378e-19 0)
(3 -2.62191e-16 0)
(3 -5.16626e-17 0)
(3 1.07562e-16 0)
(3 5.02478e-16 0)
(3 5.07954e-16 0)
(3 7.29862e-17 0)
(3 1.21057e-16 0)
(3 -2.94207e-16 0)
(3 -1.21124e-15 0)
(3 -1.60728e-15 0)
(3 -1.52783e-15 0)
(3 -9.65742e-16 0)
(3 -4.1507e-16 0)
(3 -4.03227e-16 0)
(3 -6.77085e-16 0)
(3 2.12408e-16 0)
(3 5.53131e-16 0)
(3 8.35232e-16 0)
(3 7.63394e-16 0)
(3 -1.74693e-16 0)
(3 -3.52706e-16 0)
(3 3.84339e-09 0)
(3 1.54996e-16 0)
(3 -1.22787e-16 0)
(3 -5.85601e-18 0)
(3 -4.05426e-16 0)
(3 4.20104e-16 0)
(3 3.13391e-16 0)
(3 -4.98937e-16 0)
(3 -2.47626e-16 0)
(3 -9.05889e-18 0)
(3 1.94003e-16 0)
(3 5.00033e-16 0)
(3 6.22352e-16 0)
(3 9.38893e-16 0)
(3 1.41539e-15 0)
(3 1.73465e-15 0)
(3 1.93801e-16 0)
(3 -6.64878e-16 0)
(3 -4.31674e-16 0)
(3 -4.89044e-16 0)
(3 -4.27869e-16 0)
(3 -7.88044e-16 0)
(3 -5.87109e-16 0)
(3 -7.10549e-16 0)
(3 1.3864e-12 0)
(3 2.13777e-16 0)
(3 5.1241e-16 0)
(3 2.44977e-16 0)
(3 -1.88406e-16 0)
(3 -3.81485e-16 0)
(3 -1.00475e-15 0)
(3 -8.84852e-16 0)
(3 -1.29775e-16 0)
(3 2.98128e-16 0)
(3 9.92267e-16 0)
(3 2.28919e-15 0)
(3 2.31026e-15 0)
(3 2.56233e-15 0)
(3 2.22463e-15 0)
(3 1.84801e-15 0)
(3 9.04915e-16 0)
(3 7.64606e-16 0)
(3 5.78343e-16 0)
(3 4.34398e-16 0)
(3 6.98955e-16 0)
(3 -3.66689e-16 0)
(3 -2.1127e-16 0)
(3 -4.16685e-16 0)
(3 9.65418e-16 0)
(3 -1.44757e-17 0)
(3 2.36922e-16 0)
(3 2.30233e-17 0)
(3 -2.50656e-16 0)
(3 -1.13377e-15 0)
(3 -1.38013e-15 0)
(3 -5.96136e-16 0)
(3 3.31672e-16 0)
(3 1.61317e-15 0)
(3 1.81891e-15 0)
(3 1.26219e-15 0)
(3 1.66913e-15 0)
(3 1.7882e-15 0)
(3 1.67226e-15 0)
(3 1.38309e-15 0)
(3 1.85465e-15 0)
(3 2.3037e-15 0)
(3 2.13679e-15 0)
(3 2.59973e-15 0)
(3 2.47312e-15 0)
(3 5.25692e-16 0)
(3 4.24608e-17 0)
(3 -3.5611e-16 0)
(3 5.58233e-16 0)
(3 -2.26274e-16 0)
(3 -1.41832e-16 0)
(3 1.36408e-16 0)
(3 3.24679e-17 0)
(3 -5.17983e-16 0)
(3 -5.30668e-16 0)
(3 -2.10472e-16 0)
(3 4.22925e-16 0)
(3 1.02038e-15 0)
(3 1.94611e-15 0)
(3 8.20838e-16 0)
(3 4.53346e-16 0)
(3 2.17738e-16 0)
(3 1.28831e-15 0)
(3 1.45055e-15 0)
(3 2.02129e-15 0)
(3 2.01806e-15 0)
(3 1.41135e-15 0)
(3 1.11396e-15 0)
(3 7.86172e-16 0)
(3 5.01467e-16 0)
(3 4.54105e-16 0)
(3 4.54446e-16 0)
(3 1.58214e-15 0)
(1.53432 1.2433 0)
(1.94316 1.42296 0)
(2.14725 1.48472 0)
(2.37641 0.684698 0)
(2.6072 0.260294 0)
(2.64788 0.048726 0)
(2.54462 -0.178074 0)
(2.45861 -0.281286 0)
(2.44905 -0.279296 0)
(2.47965 -0.381621 0)
(2.48906 -0.321768 0)
(2.45894 -0.276971 0)
(2.41223 -0.168412 0)
(2.37832 -0.0905936 0)
(2.32664 -0.0788889 0)
(2.32021 -0.0659595 0)
(2.36057 -0.0522352 0)
(2.40884 -0.053946 0)
(2.41711 -0.0511657 0)
(2.40706 -0.0311565 0)
(2.37001 -0.00527432 0)
(2.3585 -0.00379429 0)
(2.35784 -0.0111515 0)
(2.38333 -0.0154125 0)
(2.40286 -0.0171976 0)
(1.36427 0.021743 0)
(0.788768 0.0335707 0)
(0.697231 0.0322082 0)
(0.683554 0.0124302 0)
(0.687835 -0.0066545 0)
(0.703552 -0.0170394 0)
(0.726865 -0.0238203 0)
(0.76092 -0.028218 0)
(0.804864 -0.0321882 0)
(0.851478 -0.0353787 0)
(0.896648 -0.035689 0)
(0.932848 -0.0319412 0)
(0.961013 -0.0256878 0)
(0.988332 -0.0204902 0)
(1.02017 -0.0178927 0)
(1.05649 -0.0180383 0)
(1.09117 -0.0205879 0)
(1.11925 -0.0220298 0)
(1.14028 -0.0206238 0)
(1.15952 -0.0175513 0)
(1.18117 -0.0145197 0)
(1.20948 -0.0124363 0)
(1.2487 -0.0127135 0)
(1.29097 -0.0160709 0)
(1.3221 -0.0182373 0)
(1.34362 -0.0165618 0)
(1.36082 -0.00983306 0)
(1.3781 -0.00363433 0)
(1.39818 -0.000712867 0)
(1.42704 -0.000660818 0)
(1.45685 -0.00467153 0)
(1.47653 -0.00893963 0)
(1.49465 -0.00951963 0)
(1.51076 -0.00705427 0)
(1.52502 -0.00217386 0)
(1.5427 0.000663335 0)
(1.56414 0.00163786 0)
(1.59347 8.30746e-05 0)
(1.61924 -0.00348502 0)
(1.63939 -0.00471442 0)
(1.65911 -0.00373033 0)
(1.67575 -0.000601832 0)
(1.69106 0.00321414 0)
(1.70755 0.00531479 0)
(1.7246 0.00571158 0)
(1.7427 0.00533178 0)
(1.76024 0.00441007 0)
(1.77582 0.0039292 0)
(1.79046 0.00372907 0)
(1.80301 0.00359119 0)
(1.81615 0.00309136 0)
(1.83168 0.00243171 0)
(1.84801 0.00181687 0)
(1.86466 0.00141674 0)
(1.88051 0.00178583 0)
(1.89366 0.0034579 0)
(1.90563 0.00593507 0)
(1.91977 0.00761396 0)
(1.93681 0.00804734 0)
(1.95498 0.00803833 0)
(1.97526 0.00765534 0)
(1.99537 0.0059474 0)
(2.01195 0.0042004 0)
(2.02726 0.0032747 0)
(2.03355 0.00439102 0)
(2.03055 0.0078849 0)
(2.03415 0.0104363 0)
(2.04657 0.010767 0)
(2.06072 0.0105813 0)
(2.07695 0.00930322 0)
(2.09883 0.00845025 0)
(1.78015 1.05453 0)
(2.2824 0.849853 0)
(2.4728 0.566678 0)
(2.67209 0.00493114 0)
(2.71565 -0.298365 0)
(2.71837 -0.464009 0)
(2.69255 -0.578865 0)
(2.67705 -0.571019 0)
(2.66477 -0.525413 0)
(2.65854 -0.487343 0)
(2.63441 -0.451888 0)
(2.566 -0.374783 0)
(2.46357 -0.252823 0)
(2.42846 -0.147691 0)
(2.42259 -0.0785947 0)
(2.42154 -0.0199752 0)
(2.42938 0.00586156 0)
(2.45362 -0.0252082 0)
(2.45781 -0.032298 0)
(2.44357 -0.0215252 0)
(2.40891 0.00151428 0)
(2.39177 0.00362173 0)
(2.38623 -0.00528367 0)
(2.40851 -0.0117116 0)
(2.43501 -0.0175754 0)
(1.49224 0.143983 0)
(0.819684 0.114663 0)
(0.757308 0.0478401 0)
(0.759411 -0.00748817 0)
(0.780119 -0.0389399 0)
(0.808776 -0.0511784 0)
(0.839925 -0.0506891 0)
(0.872142 -0.0412032 0)
(0.904981 -0.0341292 0)
(0.940161 -0.0380876 0)
(0.979352 -0.0473934 0)
(1.01734 -0.0487778 0)
(1.0457 -0.0373695 0)
(1.06692 -0.0194144 0)
(1.08829 -0.00634931 0)
(1.1113 -0.00653356 0)
(1.14004 -0.0177827 0)
(1.17258 -0.0327104 0)
(1.20304 -0.039179 0)
(1.22626 -0.0345454 0)
(1.24551 -0.0208473 0)
(1.26671 -0.00530427 0)
(1.28978 -0.000149777 0)
(1.3186 -0.00947377 0)
(1.35323 -0.0259572 0)
(1.38239 -0.0324556 0)
(1.40332 -0.0279177 0)
(1.42173 -0.0124369 0)
(1.43866 0.00609985 0)
(1.45494 0.0143857 0)
(1.47097 0.00926353 0)
(1.49241 -0.00613062 0)
(1.51622 -0.0190442 0)
(1.53666 -0.022415 0)
(1.55556 -0.0175775 0)
(1.57466 -0.00360268 0)
(1.5932 0.00978109 0)
(1.61138 0.0140631 0)
(1.62974 0.00975518 0)
(1.65184 -0.000394 0)
(1.67414 -0.00690848 0)
(1.69319 -0.00700625 0)
(1.71193 -0.000954746 0)
(1.72854 0.00942979 0)
(1.74203 0.0186875 0)
(1.75491 0.0227793 0)
(1.77039 0.0219895 0)
(1.78647 0.0183096 0)
(1.80186 0.015632 0)
(1.81632 0.0150207 0)
(1.82892 0.0155342 0)
(1.84116 0.0138232 0)
(1.85565 0.00945488 0)
(1.87123 0.00376785 0)
(1.88671 -0.00139319 0)
(1.90253 -0.00318022 0)
(1.91904 0.000478314 0)
(1.93482 0.00925537 0)
(1.94954 0.0191048 0)
(1.96377 0.0261557 0)
(1.97911 0.0278345 0)
(1.99524 0.0247424 0)
(2.01155 0.0181659 0)
(2.02608 0.00812228 0)
(2.03717 -1.91363e-05 0)
(2.04501 0.00309017 0)
(2.05196 0.0157291 0)
(2.05892 0.0284474 0)
(2.06926 0.0336686 0)
(2.08182 0.0326893 0)
(2.10464 0.026621 0)
(1.67493 1.03413 0)
(2.05111 0.896491 0)
(2.33721 0.650197 0)
(2.52609 0.33007 0)
(2.61012 0.0978578 0)
(2.67198 -0.0142161 0)
(2.71892 -0.0712315 0)
(2.71056 -0.184168 0)
(2.71453 -0.323011 0)
(2.74388 -0.396199 0)
(2.76427 -0.47419 0)
(2.75532 -0.518469 0)
(2.6893 -0.438306 0)
(2.65259 -0.344221 0)
(2.64681 -0.274483 0)
(2.64993 -0.224799 0)
(2.63318 -0.153843 0)
(2.59211 -0.123907 0)
(2.54092 -0.108238 0)
(2.51018 -0.0685739 0)
(2.49809 -0.0130902 0)
(2.48582 -0.00179101 0)
(2.47486 -0.0090263 0)
(2.47565 -0.00193474 0)
(2.47658 0.00588166 0)
(1.91711 0.220749 0)
(0.997173 0.127378 0)
(0.930422 0.0097727 0)
(0.9905 -0.0430321 0)
(1.0155 -0.0417634 0)
(1.03942 -0.0558791 0)
(1.07454 -0.0733538 0)
(1.10806 -0.0821236 0)
(1.13084 -0.0780849 0)
(1.14589 -0.0702468 0)
(1.16249 -0.0664128 0)
(1.18619 -0.0698408 0)
(1.21386 -0.0728342 0)
(1.2372 -0.0670841 0)
(1.25301 -0.0538893 0)
(1.26668 -0.0372673 0)
(1.2824 -0.0289804 0)
(1.29971 -0.0318518 0)
(1.32432 -0.0453407 0)
(1.35199 -0.0576459 0)
(1.37521 -0.0595391 0)
(1.39285 -0.0527741 0)
(1.40792 -0.0360523 0)
(1.42298 -0.0203504 0)
(1.44101 -0.0171155 0)
(1.46212 -0.0238086 0)
(1.48799 -0.029671 0)
(1.51008 -0.0272117 0)
(1.5275 -0.0196591 0)
(1.53994 -0.00649784 0)
(1.54588 0.0061597 0)
(1.55827 0.0088008 0)
(1.57436 0.0023874 0)
(1.59651 -0.0102611 0)
(1.62233 -0.0168788 0)
(1.64211 -0.0162144 0)
(1.65948 -0.0126791 0)
(1.67304 -0.00415491 0)
(1.68412 0.00373203 0)
(1.70099 0.00540243 0)
(1.71872 0.00316314 0)
(1.73844 -0.000806626 0)
(1.75748 -0.00212761 0)
(1.77415 -0.000552758 0)
(1.78896 0.00611998 0)
(1.7985 0.0153181 0)
(1.80588 0.0193503 0)
(1.81987 0.0169591 0)
(1.83561 0.0138972 0)
(1.85133 0.0129615 0)
(1.86689 0.0151877 0)
(1.87899 0.0219762 0)
(1.88584 0.0281596 0)
(1.89376 0.0266836 0)
(1.90815 0.0213849 0)
(1.92605 0.0146438 0)
(1.94571 0.0105627 0)
(1.96266 0.0111012 0)
(1.97968 0.0164365 0)
(1.99472 0.0264946 0)
(2.00493 0.0366623 0)
(2.01133 0.0408163 0)
(2.02009 0.0359959 0)
(2.03138 0.0283224 0)
(2.04622 0.0223821 0)
(2.06266 0.0177285 0)
(2.07752 0.0190154 0)
(2.09133 0.0292969 0)
(2.10037 0.0430557 0)
(2.10443 0.0507942 0)
(2.12205 0.0438273 0)
(1.60657 0.982391 0)
(1.90659 0.869492 0)
(2.12715 0.745563 0)
(2.30412 0.566873 0)
(2.48009 0.316555 0)
(2.57959 0.100866 0)
(2.64176 -0.0124648 0)
(2.68883 -0.0899058 0)
(2.69983 -0.231573 0)
(2.73575 -0.334859 0)
(2.74436 -0.423349 0)
(2.75416 -0.486075 0)
(2.77923 -0.48921 0)
(2.79106 -0.474433 0)
(2.77225 -0.446205 0)
(2.7496 -0.404295 0)
(2.71337 -0.356699 0)
(2.66055 -0.283507 0)
(2.61693 -0.239602 0)
(2.62301 -0.19339 0)
(2.606 -0.108552 0)
(2.59925 -0.0871653 0)
(2.57032 -0.0782658 0)
(2.54402 -0.0442059 0)
(2.51531 -0.0474919 0)
(2.39983 -0.161941 0)
(1.34763 0.0811626 0)
(1.18807 0.0436666 0)
(1.25427 -0.0295865 0)
(1.28226 -0.0701018 0)
(1.29328 -0.0787635 0)
(1.31968 -0.0794535 0)
(1.34884 -0.0818108 0)
(1.36182 -0.0843197 0)
(1.36904 -0.0794211 0)
(1.37125 -0.0633419 0)
(1.38058 -0.0521586 0)
(1.39601 -0.0486619 0)
(1.41584 -0.0508521 0)
(1.43345 -0.0515259 0)
(1.44698 -0.0466459 0)
(1.45672 -0.0355519 0)
(1.46551 -0.0242017 0)
(1.47856 -0.0208045 0)
(1.49566 -0.0262845 0)
(1.51763 -0.0389304 0)
(1.53548 -0.0480162 0)
(1.54906 -0.0488773 0)
(1.5606 -0.0400726 0)
(1.56783 -0.021059 0)
(1.58099 -0.00590805 0)
(1.59896 -0.00134063 0)
(1.61802 -0.00453049 0)
(1.63463 -0.0116083 0)
(1.64772 -0.0176901 0)
(1.65668 -0.0172891 0)
(1.66376 -0.00898633 0)
(1.67683 -0.000670499 0)
(1.69354 0.00498634 0)
(1.71417 0.00563439 0)
(1.73202 0.00161036 0)
(1.74713 -0.00194551 0)
(1.75942 -0.00494839 0)
(1.76832 -0.00297098 0)
(1.77909 0.0038643 0)
(1.79442 0.0112803 0)
(1.81053 0.017251 0)
(1.82639 0.0200091 0)
(1.84212 0.020868 0)
(1.85642 0.0211896 0)
(1.86601 0.022928 0)
(1.86947 0.0262706 0)
(1.87673 0.0263022 0)
(1.89139 0.0239269 0)
(1.90683 0.0198009 0)
(1.92139 0.0152811 0)
(1.93466 0.0126346 0)
(1.94512 0.0139352 0)
(1.9522 0.0213767 0)
(1.96082 0.0300598 0)
(1.9746 0.0341724 0)
(1.98962 0.0341799 0)
(2.00606 0.0313213 0)
(2.0216 0.02878 0)
(2.036 0.0271516 0)
(2.0458 0.0274984 0)
(2.04924 0.0315773 0)
(2.05064 0.0376723 0)
(2.0611 0.0425094 0)
(2.07677 0.0451517 0)
(2.09185 0.0458255 0)
(2.10972 0.043588 0)
(2.12593 0.0419181 0)
(2.14053 0.0422579 0)
(2.14675 0.0497487 0)
(2.15433 0.0523183 0)
(1.56355 0.930582 0)
(1.79325 0.861969 0)
(2.0136 0.72334 0)
(2.17611 0.594432 0)
(2.27682 0.506727 0)
(2.41046 0.339652 0)
(2.52573 0.146234 0)
(2.58361 0.0116447 0)
(2.62338 -0.0375755 0)
(2.62697 -0.072316 0)
(2.64726 -0.161746 0)
(2.68745 -0.257512 0)
(2.72168 -0.339261 0)
(2.75038 -0.380505 0)
(2.77705 -0.409571 0)
(2.76339 -0.42478 0)
(2.71967 -0.410156 0)
(2.69895 -0.399116 0)
(2.67428 -0.372253 0)
(2.67118 -0.32718 0)
(2.67998 -0.239885 0)
(2.69239 -0.212631 0)
(2.65286 -0.175521 0)
(2.59335 -0.157678 0)
(2.49245 -0.210954 0)
(2.30678 -0.552281 0)
(1.79481 -0.25967 0)
(1.39752 -0.0449104 0)
(1.3782 -0.00652964 0)
(1.42654 -0.0306706 0)
(1.44086 -0.0714311 0)
(1.46601 -0.0890093 0)
(1.49125 -0.0917415 0)
(1.50313 -0.0872347 0)
(1.51042 -0.0783904 0)
(1.5126 -0.0613944 0)
(1.51094 -0.045235 0)
(1.51978 -0.0415316 0)
(1.53233 -0.0428275 0)
(1.55111 -0.0482644 0)
(1.56944 -0.051236 0)
(1.58258 -0.0485885 0)
(1.59219 -0.0409295 0)
(1.597 -0.0341271 0)
(1.60761 -0.0341608 0)
(1.62138 -0.0379207 0)
(1.6384 -0.0430026 0)
(1.65442 -0.0427728 0)
(1.66675 -0.0372021 0)
(1.67742 -0.0247841 0)
(1.6852 -0.0103134 0)
(1.69494 -0.00231545 0)
(1.70894 -0.00112937 0)
(1.72351 -0.0023975 0)
(1.73685 -0.00478523 0)
(1.74845 -0.00647699 0)
(1.75876 -0.00424706 0)
(1.7708 0.000917367 0)
(1.78553 0.004551 0)
(1.80077 0.00546099 0)
(1.8153 0.0039995 0)
(1.82743 0.00127387 0)
(1.83706 -0.000302229 0)
(1.84543 0.00200091 0)
(1.85545 0.00800233 0)
(1.86814 0.0136945 0)
(1.88268 0.017529 0)
(1.89813 0.0207297 0)
(1.91327 0.0238227 0)
(1.92668 0.0266646 0)
(1.93611 0.0295615 0)
(1.9398 0.0337427 0)
(1.94348 0.0378345 0)
(1.95447 0.0383245 0)
(1.96874 0.0366888 0)
(1.9831 0.0337567 0)
(1.99645 0.0297496 0)
(2.00824 0.0269589 0)
(2.01896 0.0287737 0)
(2.02851 0.0359158 0)
(2.03707 0.0442542 0)
(2.04739 0.0489188 0)
(2.06006 0.0494931 0)
(2.07329 0.0471799 0)
(2.0849 0.0419396 0)
(2.09319 0.0356844 0)
(2.09871 0.0333814 0)
(2.1046 0.0392391 0)
(2.11237 0.0505292 0)