/*--------------------------------*- C++ -*----------------------------------*\
  =========                 |
  \\      /  F ield         | OpenFOAM: The Open Source CFD Toolbox
   \\    /   O peration     | Website:  https://openfoam.org
    \\  /    A nd           | Version:  7
     \\/     M anipulation  |
\*---------------------------------------------------------------------------*/
FoamFile
{
    version     2.0;
    format      ascii;
    class       volScalarField;
    location    "155";
    object      p;
}
// * * * * * * * * * * * * * * * * * * * * * * * * * * * * * * * * * * * * * //

dimensions      [0 2 -2 0 0 0 0];

internalField   nonuniform List<scalar> 
1987
(
-0.0827347
-0.0711301
-0.116126
-0.100854
-0.0870568
-0.0745849
-0.063301
-0.162252
-0.141728
-0.123282
-0.106691
-0.091758
-0.0783071
-0.0661824
-0.0552449
-0.199086
-0.173932
-0.151398
-0.131215
-0.113128
-0.0969099
-0.0823527
-0.0692801
-0.0575326
-0.0469678
-0.245661
-0.214774
-0.187029
-0.162217
-0.14006
-0.120273
-0.102593
-0.0867859
-0.0726433
-0.0599826
-0.048642
-0.0384761
-0.302851
-0.266169
-0.232324
-0.201735
-0.174361
-0.149961
-0.128246
-0.108906
-0.0916802
-0.0763282
-0.0626376
-0.0504223
-0.0395182
-0.0297774
-0.0210653
-0.326821
-0.288355
-0.251772
-0.218211
-0.188015
-0.161094
-0.137181
-0.115961
-0.0971247
-0.080401
-0.0655461
-0.0523449
-0.0406082
-0.0301701
-0.0208804
-0.012604
-0.384725
-0.349759
-0.311342
-0.272855
-0.236504
-0.203338
-0.17363
-0.147244
-0.123883
-0.10322
-0.0849404
-0.0687663
-0.0544507
-0.0417759
-0.0305508
-0.0206076
-0.0117946
-0.00397679
-0.414826
-0.396833
-0.368747
-0.333327
-0.294733
-0.256375
-0.220385
-0.187725
-0.158597
-0.132823
-0.110083
-0.0900372
-0.0723672
-0.0567895
-0.0430546
-0.0309428
-0.0202616
-0.010842
-0.00253086
0.00480602
-0.408951
-0.398132
-0.379899
-0.351367
-0.315638
-0.277027
-0.238944
-0.203442
-0.171395
-0.142937
-0.117852
-0.0957993
-0.0764304
-0.0594214
-0.0444859
-0.0313721
-0.0198592
-0.00975364
-0.000885574
0.00689911
0.0137332
0.01969
-0.390255
-0.379897
-0.361485
-0.332619
-0.29673
-0.25826
-0.220595
-0.185703
-0.154374
-0.126674
-0.102353
-0.0810534
-0.0624185
-0.046121
-0.0318723
-0.0194192
-0.00854012
0.000958963
0.0092483
0.0164825
0.0227924
0.0282481
-0.37002
-0.360152
-0.341626
-0.312543
-0.27665
-0.238473
-0.201361
-0.167206
-0.136693
-0.109836
-0.0863513
-0.0658684
-0.0480232
-0.0324862
-0.0189676
-0.00721345
0.00299807
0.0118608
0.0195451
0.0262056
0.0319707
0.0369076
-0.348286
-0.338936
-0.320368
-0.291194
-0.255448
-0.217701
-0.181293
-0.147986
-0.118387
-0.0924544
-0.069876
-0.0502702
-0.0332683
-0.0185391
-0.00579219
0.00522622
0.0147377
0.0229354
0.0299893
0.0360538
0.0412541
0.0456552
0.0494424
-0.325103
-0.316301
-0.297768
-0.268639
-0.233162
-0.196002
-0.160433
-0.128087
-0.0994934
-0.0745623
-0.0529574
-0.0342873
-0.01818
-0.0043037
0.00763174
0.0178793
0.0266597
0.034165
0.0405645
0.0460114
0.0506276
0.054477
0.0577615
-0.30053
-0.292309
-0.273895
-0.244945
-0.209823
-0.173446
-0.138834
-0.107553
-0.0800526
-0.056197
-0.0356292
-0.0179502
-0.00278619
0.0101943
0.0212805
0.0307241
0.0387441
0.0455311
0.0512533
0.0560621
0.0600758
0.0633582
0.0661274
-0.274631
-0.267033
-0.248822
-0.220078
-0.185597
-0.150089
-0.11655
-0.0864336
-0.0601087
-0.0373981
-0.0179274
-0.00129182
0.012883
0.0249275
0.035129
0.0437374
0.0509695
0.0570142
0.0620375
0.0661889
0.0695825
0.0722832
0.0745243
0.0768467
-0.247481
-0.240553
-0.222609
-0.194193
-0.160497
-0.125995
-0.0936418
-0.0647816
-0.0397086
-0.0182079
0.000109787
0.015653
0.0287959
0.0398667
0.0491506
0.0568949
0.0633138
0.0685936
0.0728985
0.0763745
0.0791312
0.0812364
0.0829365
0.0847569
-0.219154
-0.212956
-0.195267
-0.167445
-0.134604
-0.101232
-0.0701702
-0.0426518
-0.0189017
0.00132899
0.0184417
0.0328475
0.0449188
0.0549814
0.0633174
0.0701711
0.0757537
0.0802483
0.0838167
0.0866008
0.0887048
0.090202
0.0913505
0.0926443
-0.189721
-0.184339
-0.166993
-0.139857
-0.107999
-0.0758743
-0.0461999
-0.0201021
0.00226017
0.0211657
0.037026
0.0502529
0.0612166
0.0702396
0.0776004
0.0835396
0.0882649
0.0919564
0.0947724
0.096849
0.0982849
0.0991639
0.0997554
0.1005
0.100007
-0.159295
-0.154812
-0.137886
-0.111517
-0.0807654
-0.0499961
-0.0217981
0.00280746
0.0237227
0.0412532
0.0558183
0.0678291
0.0776529
0.0856081
0.0919693
0.096973
0.100823
0.103695
0.105745
0.1071
0.107854
0.108108
0.108141
0.108291
0.107144
-0.128134
-0.124361
-0.108022
-0.082523
-0.0529905
-0.0236759
0.00296534
0.0260143
0.0454298
0.0615409
0.0747725
0.0855344
0.0941897
0.101052
0.106393
0.110443
0.113402
0.115442
0.116714
0.117335
0.117397
0.11703
0.116493
0.115909
0.113845
-0.0962301
-0.093162
-0.0774984
-0.0529731
-0.024764
0.00300598
0.0280186
0.049454
0.0673234
0.0819763
0.0938413
0.103326
0.110788
0.116537
0.120839
0.12392
0.125975
0.127173
0.127657
0.127536
0.126906
0.125932
0.124791
0.123214
0.119889
-0.0636721
-0.0613517
-0.0464242
-0.0229686
0.00382183
0.0299669
0.053288
0.0730603
0.089344
0.102506
0.112976
0.121159
0.127408
0.132026
0.135274
0.137374
0.138516
0.138863
0.138553
0.137686
0.136374
0.13481
0.133003
0.130256
0.125918
-0.0305857
-0.0290445
-0.0149105
0.00738683
0.0326728
0.0571227
0.078698
0.0967658
0.111431
0.123074
0.132126
0.138989
0.144008
0.147482
0.149666
0.150775
0.150997
0.150488
0.149379
0.147768
0.145784
0.143621
0.141074
0.137219
0.133928
0.00290418
0.00364311
0.0169285
0.0379874
0.0616932
0.0843876
0.104172
0.120502
0.133521
0.143624
0.151242
0.156769
0.160547
0.162867
0.163979
0.164092
0.163389
0.162021
0.160112
0.15776
0.155107
0.152311
0.149023
0.144533
0.14187
0.0366727
0.036592
0.0489768
0.0687259
0.0907864
0.111675
0.129633
0.144198
0.155553
0.164101
0.170272
0.174454
0.176983
0.178143
0.178178
0.177294
0.175664
0.173437
0.17073
0.167642
0.164318
0.160873
0.156908
0.151987
0.14936
0.0705938
0.0696806
0.0811176
0.0994946
0.119855
0.138898
0.155002
0.167785
0.177463
0.184447
0.189164
0.191996
0.193272
0.193271
0.19223
0.190347
0.187792
0.184708
0.181207
0.177389
0.173393
0.1693
0.16472
0.159428
0.156573
0.10454
0.102786
0.113233
0.130185
0.148801
0.165968
0.180201
0.191192
0.199187
0.204603
0.207865
0.209348
0.209373
0.208213
0.206098
0.203221
0.199746
0.195809
0.19152
0.186977
0.182311
0.17758
0.172424
0.166746
0.16353
0.138385
0.135784
0.145206
0.160689
0.177527
0.192799
0.205151
0.214347
0.220661
0.224513
0.226324
0.226462
0.225242
0.222929
0.219747
0.215882
0.211494
0.206713
0.201644
0.196383
0.191053
0.185697
0.179986
0.173903
0.170255
0.172001
0.168552
0.176919
0.190899
0.205937
0.219304
0.229775
0.237182
0.241821
0.244119
0.244488
0.243292
0.240836
0.237381
0.233142
0.2283
0.223009
0.217394
0.211555
0.205584
0.199598
0.19363
0.187377
0.180874
0.176755
0.20526
0.200966
0.208254
0.220709
0.233933
0.245395
0.253994
0.259624
0.262605
0.263362
0.262306
0.25979
0.256114
0.25153
0.246248
0.240443
0.234262
0.227824
0.221227
0.214559
0.207928
0.201359
0.194575
0.187643
0.183032
0.238037
0.232903
0.239098
0.250012
0.261421
0.270988
0.277732
0.281607
0.28295
0.282188
0.279726
0.275909
0.271032
0.265338
0.25903
0.252278
0.245223
0.237979
0.230638
0.223285
0.216021
0.208865
0.20156
0.194198
0.189083
0.270209
0.264244
0.269336
0.278705
0.288308
0.295999
0.300914
0.30306
0.302793
0.30054
0.296697
0.291605
0.28555
0.278767
0.271455
0.263775
0.255865
0.247832
0.239764
0.231742
0.223859
0.216129
0.208315
0.200526
0.194901
0.301652
0.294869
0.298857
0.306687
0.314501
0.320345
0.323465
0.323918
0.322075
0.318363
0.313171
0.306833
0.299626
0.291781
0.283488
0.274904
0.26616
0.257358
0.248582
0.239908
0.231422
0.223134
0.214824
0.206614
0.20048
0.332248
0.324663
0.327553
0.333857
0.339912
0.343946
0.345312
0.344114
0.340736
0.335603
0.329098
0.321547
0.31322
0.304342
0.295097
0.285635
0.276081
0.266533
0.25707
0.247763
0.238693
0.229864
0.221073
0.212452
0.205812
0.36188
0.353512
0.355316
0.36012
0.364453
0.366724
0.366386
0.363586
0.358719
0.352208
0.344431
0.335705
0.326295
0.316417
0.30625
0.295939
0.285602
0.275333
0.265206
0.255289
0.245653
0.236301
0.227047
0.218028
0.210888
0.390435
0.381307
0.382045
0.385383
0.388041
0.388603
0.386617
0.38227
0.375967
0.368128
0.359123
0.349266
0.338811
0.327971
0.316916
0.305787
0.294697
0.283735
0.27297
0.262465
0.252286
0.242431
0.232734
0.223329
0.215701
0.417805
0.407943
0.407642
0.409555
0.410594
0.409511
0.40594
0.400108
0.392427
0.383313
0.373132
0.362189
0.350733
0.33897
0.327066
0.315154
0.303342
0.291716
0.280341
0.269273
0.258575
0.24824
0.238119
0.228344
0.220241
0.443883
0.433317
0.43201
0.43255
0.432035
0.429376
0.424292
0.417042
0.408046
0.397716
0.386414
0.374436
0.362026
0.349384
0.33667
0.324012
0.311514
0.299256
0.2873
0.275698
0.264504
0.253713
0.243191
0.233063
0.224501
0.46857
0.457333
0.45506
0.454285
0.452289
0.448132
0.441612
0.433018
0.422775
0.411293
0.398928
0.385969
0.372656
0.359182
0.345701
0.332338
0.31919
0.306335
0.293828
0.28172
0.270059
0.258837
0.247936
0.237474
0.228472
0.491771
0.479898
0.476706
0.474684
0.471286
0.465717
0.457843
0.447983
0.436566
0.424001
0.410636
0.396755
0.382592
0.368335
0.354133
0.340106
0.326349
0.312932
0.299909
0.287326
0.275225
0.263598
0.252344
0.241567
0.232147
0.513397
0.500927
0.496867
0.493671
0.48896
0.482069
0.472931
0.461888
0.449377
0.4358
0.421501
0.406759
0.391804
0.376816
0.361942
0.347297
0.33297
0.319029
0.305526
0.2925
0.279989
0.267986
0.256404
0.245333
0.235518
0.533363
0.520337
0.515467
0.511179
0.505249
0.497133
0.486824
0.474689
0.461164
0.446651
0.431489
0.415952
0.400263
0.3846
0.369104
0.353887
0.339035
0.324611
0.310663
0.297228
0.284339
0.271989
0.260104
0.248761
0.238578
0.55159
0.538053
0.532436
0.527144
0.520095
0.510856
0.499477
0.486341
0.471889
0.456521
0.440568
0.424303
0.407943
0.391663
0.375599
0.359859
0.344526
0.32966
0.315306
0.301498
0.288263
0.275596
0.263436
0.251844
0.241321
0.568008
0.554005
0.54771
0.541506
0.533444
0.523192
0.510845
0.496806
0.481517
0.465375
0.44871
0.431787
0.414821
0.397983
0.381406
0.365195
0.349427
0.334162
0.319442
0.305297
0.291751
0.278798
0.26639
0.254574
0.243742
0.58255
0.568131
0.561229
0.554213
0.54525
0.534096
0.52089
0.506047
0.490015
0.473186
0.455886
0.438379
0.420875
0.403541
0.386508
0.369877
0.353724
0.338104
0.323058
0.308614
0.294792
0.281586
0.268958
0.256943
0.245835
0.595158
0.580373
0.57294
0.565216
0.555468
0.54353
0.529575
0.514034
0.497354
0.479927
0.462075
0.444058
0.426085
0.408319
0.390889
0.373892
0.357403
0.341475
0.326146
0.311441
0.297378
0.283952
0.271134
0.258945
0.247596
0.60578
0.590682
0.582798
0.574473
0.564061
0.551458
0.53687
0.520737
0.503508
0.485574
0.467253
0.448805
0.430434
0.412301
0.394534
0.377227
0.360453
0.344263
0.328694
0.313768
0.299501
0.28589
0.272911
0.260574
0.24902
0.614371
0.599013
0.590761
0.581947
0.570995
0.557851
0.542748
0.526132
0.508456
0.490107
0.471404
0.452603
0.433906
0.415474
0.397431
0.37987
0.362863
0.34646
0.330694
0.315588
0.301155
0.287392
0.274282
0.261826
0.250104
0.620893
0.605331
0.596797
0.587609
0.576242
0.562685
0.547185
0.530198
0.512177
0.493509
0.474511
0.455437
0.43649
0.417826
0.39957
0.381813
0.364626
0.348057
0.33214
0.316896
0.302334
0.288455
0.275244
0.262696
0.250847
0.625316
0.609606
0.600877
0.591432
0.57978
0.565937
0.550163
0.532919
0.514658
0.495768
0.476563
0.457298
0.438174
0.419348
0.400942
0.383048
0.365735
0.34905
0.333027
0.317685
0.303034
0.289073
0.275793
0.263183
0.25125
0.627617
0.611816
0.602981
0.593399
0.581593
0.567594
0.551669
0.534282
0.515887
0.496871
0.47755
0.458177
0.438952
0.420033
0.401542
0.383569
0.366184
0.349433
0.33335
0.317953
0.303251
0.289245
0.275926
0.263282
0.251303
0.551694
0.534279
0.515857
0.496813
0.477466
0.458067
0.438819
0.419877
0.401365
0.383373
0.36597
0.349204
0.333106
0.317696
0.302984
0.288968
0.275641
0.262988
0.251002
0.108876
0.115381
0.111152
0.121751
0.117738
0.13062
0.139582
0.143987
0.147133
0.148026
0.148083
0.146775
0.144929
0.142292
0.139393
0.136101
0.132771
0.12932
0.125993
0.122722
0.119678
0.116795
0.114198
0.111823
0.109769
0.107977
0.106526
0.105371
0.104588
0.104162
0.124213
0.132404
0.137871
0.141616
0.143295
0.143948
0.143254
0.141919
0.139762
0.137268
0.134339
0.131313
0.128127
0.125019
0.121935
0.119043
0.116289
0.113794
0.111506
0.109519
0.107781
0.10637
0.105246
0.104484
0.104069
0.238608
0.226279
0.214475
0.203575
0.193254
0.183767
0.174862
0.166701
0.159109
0.152167
0.145765
0.139964
0.134636
0.129853
0.125488
0.121623
0.11813
0.115093
0.112386
0.110101
0.108127
0.106565
0.105313
0.104483
0.104026
0.238897
0.226552
0.214739
0.20382
0.19348
0.184001
0.175097
0.166929
0.15933
0.152371
0.14596
0.140146
0.134807
0.130011
0.125635
0.12176
0.118256
0.11521
0.112495
0.110203
0.108224
0.106657
0.1054
0.104568
0.104108
0.23895
0.226685
0.214913
0.204046
0.193756
0.184223
0.175292
0.167085
0.159485
0.152525
0.146121
0.140298
0.134953
0.130149
0.125764
0.121881
0.118371
0.115317
0.112595
0.110298
0.108313
0.106742
0.105482
0.104646
0.104185
0.23867
0.22651
0.214813
0.204002
0.193747
0.184278
0.1754
0.16726
0.159633
0.152606
0.146246
0.140421
0.135077
0.130268
0.125877
0.121989
0.118473
0.115414
0.112687
0.110385
0.108395
0.10682
0.105557
0.104718
0.104256
0.238115
0.226116
0.214536
0.203825
0.193642
0.184239
0.175399
0.16728
0.159699
0.152862
0.146305
0.14052
0.135178
0.130367
0.125974
0.122083
0.118563
0.1155
0.112769
0.110463
0.10847
0.106891
0.105626
0.104785
0.104322
0.237281
0.225494
0.214071
0.203495
0.193414
0.184098
0.175321
0.167251
0.159707
0.152844
0.146481
0.140592
0.135256
0.130447
0.126054
0.122162
0.118641
0.115576
0.112842
0.110534
0.108538
0.106956
0.105688
0.104846
0.104382
0.236165
0.224641
0.213415
0.203008
0.193058
0.183853
0.17516
0.167157
0.159664
0.152824
0.146455
0.140589
0.135317
0.130508
0.126117
0.122228
0.118708
0.115641
0.112906
0.110596
0.108599
0.107014
0.105745
0.104901
0.104436
0.234768
0.22356
0.21257
0.202367
0.192576
0.183505
0.174914
0.166994
0.159565
0.15277
0.14644
0.140742
0.135363
0.130549
0.126164
0.12228
0.118762
0.115696
0.112961
0.11065
0.108652
0.107066
0.105796
0.104951
0.104485
0.233093
0.222251
0.211536
0.201573
0.191968
0.183055
0.174584
0.166764
0.15941
0.152672
0.146385
0.14069
0.135344
0.130572
0.126196
0.122319
0.118805
0.115741
0.113007
0.110696
0.108698
0.107111
0.105841
0.104995
0.104528
0.231143
0.220717
0.210316
0.200627
0.191235
0.182503
0.174173
0.166468
0.159201
0.152531
0.146296
0.140631
0.13533
0.130583
0.126212
0.122344
0.118836
0.115776
0.113044
0.110734
0.108737
0.10715
0.105879
0.105033
0.104566
0.228921
0.21896
0.20891
0.199529
0.190379
0.181851
0.173679
0.166105
0.158938
0.152347
0.146171
0.140547
0.135311
0.130571
0.126211
0.122355
0.118856
0.115801
0.113073
0.110765
0.108768
0.107182
0.105912
0.105065
0.104599
0.226429
0.216982
0.207321
0.198283
0.189399
0.1811
0.173104
0.165676
0.158621
0.15212
0.146011
0.140438
0.135255
0.130522
0.126196
0.122354
0.118864
0.115816
0.113092
0.110787
0.108793
0.107207
0.105938
0.105092
0.104626
0.22367
0.214786
0.205551
0.196888
0.188298
0.18025
0.172449
0.165183
0.158251
0.15185
0.145816
0.140301
0.135162
0.130437
0.126169
0.122341
0.118861
0.11582
0.113103
0.110802
0.108811
0.107226
0.105959
0.105113
0.104647
0.22065
0.212374
0.203602
0.195348
0.187077
0.179303
0.171714
0.164626
0.157829
0.151538
0.145587
0.140136
0.135044
0.130461
0.126129
0.122315
0.118847
0.115816
0.113106
0.110809
0.108822
0.107239
0.105974
0.105128
0.104664
0.217372
0.20975
0.201475
0.193663
0.185737
0.178259
0.1709
0.164005
0.157355
0.151184
0.145324
0.139945
0.134904
0.130356
0.126059
0.122277
0.118822
0.115801
0.1131
0.110808
0.108826
0.107246
0.105983
0.105138
0.104675
0.21384
0.206917
0.199173
0.191835
0.184279
0.17712
0.170008
0.163321
0.15683
0.15079
0.145027
0.139726
0.134743
0.130238
0.125924
0.12223
0.118787
0.115777
0.113086
0.1108
0.108823
0.107246
0.105986
0.105143
0.10468
0.21006
0.203878
0.196699
0.189867
0.182705
0.175888
0.16904
0.162575
0.156254
0.150354
0.144697
0.139481
0.13456
0.130099
0.126005
0.12218
0.118742
0.115744
0.113063
0.110784
0.108813
0.10724
0.105983
0.105142
0.104681
0.206037
0.200636
0.194055
0.187761
0.181017
0.174563
0.167996
0.161768
0.155629
0.149878
0.144334
0.139209
0.134355
0.129942
0.125858
0.122104
0.118684
0.115702
0.113032
0.110761
0.108797
0.107228
0.105975
0.105136
0.104676
0.201776
0.197197
0.191244
0.185518
0.179216
0.173147
0.166877
0.160901
0.154955
0.149363
0.143939
0.138911
0.13413
0.129771
0.125723
0.121949
0.118621
0.115652
0.112994
0.110731
0.108774
0.10721
0.105962
0.105124
0.104666
0.197283
0.193564
0.188268
0.183142
0.177304
0.17164
0.165685
0.159975
0.154233
0.148809
0.143513
0.138587
0.133883
0.129582
0.12557
0.121975
0.118554
0.115592
0.112947
0.110694
0.108745
0.107186
0.105942
0.105107
0.104651
0.192562
0.189742
0.18513
0.180634
0.175282
0.170046
0.16442
0.15899
0.153463
0.148216
0.143056
0.138237
0.133616
0.129377
0.125403
0.121806
0.118455
0.115525
0.112894
0.11065
0.10871
0.107156
0.105918
0.105085
0.104631
0.187619
0.185734
0.181833
0.177998
0.173152
0.168364
0.163084
0.157947
0.152647
0.147585
0.142567
0.137863
0.133328
0.129155
0.125228
0.121672
0.118364
0.115452
0.112832
0.110599
0.108668
0.107121
0.105888
0.105058
0.104606
0.182457
0.181545
0.178379
0.175234
0.170918
0.166597
0.161679
0.156848
0.151785
0.146917
0.142049
0.137464
0.13302
0.128917
0.125041
0.121526
0.118283
0.115362
0.112765
0.110542
0.108621
0.10708
0.105853
0.105027
0.104576
0.177079
0.177179
0.174771
0.172346
0.16858
0.164745
0.160206
0.155693
0.150878
0.146213
0.141502
0.137041
0.132692
0.128663
0.124842
0.121369
0.118154
0.115261
0.11269
0.110478
0.108567
0.107033
0.105812
0.10499
0.104541
0.171484
0.172639
0.171011
0.169335
0.166141
0.16281
0.158665
0.154483
0.149928
0.145473
0.140925
0.136594
0.132345
0.128393
0.12463
0.121202
0.118017
0.115205
0.1126
0.110409
0.108508
0.106982
0.105767
0.104948
0.104502
0.165667
0.167925
0.167103
0.166201
0.163602
0.160793
0.157058
0.153218
0.148933
0.144697
0.14032
0.136124
0.131979
0.128107
0.124405
0.121024
0.117873
0.115076
0.11253
0.110332
0.108443
0.106925
0.105717
0.104902
0.104458
0.159621
0.163041
0.163053
0.162947
0.160966
0.158692
0.155383
0.151898
0.147892
0.143883
0.139684
0.135628
0.131592
0.127805
0.124166
0.120835
0.117721
0.114948
0.112433
0.110244
0.108371
0.106862
0.105662
0.104851
0.10441
0.153351
0.157994
0.158874
0.15959
0.158253
0.15653
0.153662
0.15054
0.146824
0.143049
0.139032
0.135121
0.131197
0.127495
0.123922
0.12064
0.117565
0.114819
0.112322
0.110188
0.108293
0.106795
0.105601
0.104796
0.104357
0.146742
0.152704
0.154528
0.156118
0.15546
0.154316
0.151907
0.149166
0.145748
0.142214
0.138384
0.134619
0.130806
0.12719
0.123681
0.120449
0.11741
0.114691
0.112215
0.110087
0.108238
0.106727
0.105535
0.104736
0.1043
0.139473
0.14696
0.149848
0.152302
0.152353
0.151805
0.149886
0.147551
0.144462
0.141195
0.137576
0.133982
0.130302
0.12679
0.123363
0.120193
0.117205
0.114524
0.112078
0.10997
0.108136
0.106652
0.105472
0.104672
0.104238
)
;

boundaryField
{
    inlet
    {
        type            zeroGradient;
    }
    outlet
    {
        type            fixedValue;
        value           nonuniform 0();
    }
    cylinder
    {
        type            zeroGradient;
    }
    top
    {
        type            symmetryPlane;
    }
    bottom
    {
        type            symmetryPlane;
    }
    defaultFaces
    {
        type            empty;
    }
    procBoundary8to4
    {
        type            processor;
        value           nonuniform List<scalar> 
51
(
0.62778
0.611947
0.603096
0.593496
0.581669
0.567645
0.567645
0.550231
0.532905
0.514562
0.49559
0.476307
0.456966
0.437771
0.418877
0.400409
0.382458
0.365092
0.34836
0.332294
0.316915
0.30223
0.288241
0.274936
0.262301
0.250344
0.238029
0.225755
0.213996
0.203139
0.19286
0.183403
0.174527
0.166391
0.158822
0.15191
0.145528
0.139749
0.134438
0.129673
0.125323
0.121472
0.117991
0.114965
0.112267
0.10999
0.108023
0.106467
0.10522
0.104394
0.103938
)
;
    }
    procBoundary8to9
    {
        type            processor;
        value           nonuniform List<scalar> 
29
(
-0.0906281
-0.0787289
-0.12521
-0.109635
-0.0955258
-0.0955258
-0.172615
-0.151804
-0.133046
-0.133046
-0.210526
-0.185099
-0.185099
-0.25821
-0.227121
-0.227121
-0.316324
-0.279676
-0.279676
-0.341146
-0.341146
-0.399278
-0.364907
-0.364907
-0.429958
-0.41226
-0.41226
-0.426073
-0.426073
)
;
    }
    procBoundary8to12
    {
        type            processor;
        value           nonuniform List<scalar> 
55
(
-0.0605892
-0.0530785
-0.0453648
-0.0374536
-0.0293513
-0.0293513
-0.013294
-0.0052566
0.00292653
0.0112456
0.0112456
0.0249064
0.0330018
0.0411847
0.0411847
0.0531498
0.0610237
0.0689289
0.0689289
0.0780286
0.0854011
0.0927292
0.0927292
0.0956974
0.102473
0.102473
0.10399
0.10399
0.106579
0.113031
0.118825
0.126339
0.132176
0.136306
0.138596
0.139763
0.139622
0.138771
0.137078
0.13499
0.132429
0.129721
0.126813
0.12394
0.121058
0.118333
0.11572
0.113341
0.111148
0.109237
0.107561
0.106196
0.105107
0.104367
0.103964
)
;
    }
}


// ************************************************************************* //
