/*--------------------------------*- C++ -*----------------------------------*\
  =========                 |
  \\      /  F ield         | OpenFOAM: The Open Source CFD Toolbox
   \\    /   O peration     | Website:  https://openfoam.org
    \\  /    A nd           | Version:  7
     \\/     M anipulation  |
\*---------------------------------------------------------------------------*/
FoamFile
{
    version     2.0;
    format      ascii;
    class       volScalarField;
    location    "65";
    object      p;
}
// * * * * * * * * * * * * * * * * * * * * * * * * * * * * * * * * * * * * * //

dimensions      [0 2 -2 0 0 0 0];

internalField   nonuniform List<scalar> 
31800
(
-0.248362
-0.249902
-0.250778
-0.251489
-0.252104
-0.252642
-0.253135
-0.253606
-0.254067
-0.254521
-0.254969
-0.255405
-0.255821
-0.256207
-0.256551
-0.256841
-0.257064
-0.257206
-0.257256
-0.257204
-0.257043
-0.256776
-0.256414
-0.255965
-0.255484
-0.248461
-0.249989
-0.250858
-0.251564
-0.252175
-0.252709
-0.253198
-0.253666
-0.254124
-0.254576
-0.255021
-0.255454
-0.255868
-0.256252
-0.256594
-0.256882
-0.257103
-0.257244
-0.257292
-0.257236
-0.257071
-0.256799
-0.25643
-0.25597
-0.255476
-0.248668
-0.250173
-0.251029
-0.251725
-0.252327
-0.252853
-0.253336
-0.253798
-0.25425
-0.254697
-0.255138
-0.255567
-0.255977
-0.256358
-0.256697
-0.256983
-0.257201
-0.257339
-0.257384
-0.257323
-0.25715
-0.256865
-0.256482
-0.255997
-0.255469
-0.24898
-0.25045
-0.251288
-0.251969
-0.252558
-0.253073
-0.253546
-0.253999
-0.254443
-0.254883
-0.255317
-0.25574
-0.256145
-0.256522
-0.256857
-0.25714
-0.257355
-0.257489
-0.257529
-0.25746
-0.257275
-0.256971
-0.256566
-0.256042
-0.255456
-0.249394
-0.250818
-0.251632
-0.252293
-0.252865
-0.253365
-0.253825
-0.254266
-0.254699
-0.255129
-0.255555
-0.255971
-0.256369
-0.256739
-0.25707
-0.257348
-0.25756
-0.25769
-0.257723
-0.257645
-0.257443
-0.257115
-0.256678
-0.256104
-0.255428
-0.249904
-0.251274
-0.252057
-0.252694
-0.253244
-0.253725
-0.254169
-0.254595
-0.255014
-0.255432
-0.255846
-0.256253
-0.256642
-0.257006
-0.25733
-0.257603
-0.25781
-0.257934
-0.25796
-0.257871
-0.25765
-0.257292
-0.256815
-0.25618
-0.255373
-0.250505
-0.251811
-0.252559
-0.253167
-0.253692
-0.25415
-0.254573
-0.254981
-0.255383
-0.255786
-0.256186
-0.25658
-0.256959
-0.257313
-0.25763
-0.257896
-0.258096
-0.258215
-0.258232
-0.25813
-0.257889
-0.257495
-0.256971
-0.256271
-0.255276
-0.251189
-0.252425
-0.253133
-0.253708
-0.254203
-0.254635
-0.255034
-0.255419
-0.255801
-0.256184
-0.256568
-0.256946
-0.257312
-0.257654
-0.257961
-0.258219
-0.258412
-0.258523
-0.258531
-0.258415
-0.258151
-0.257718
-0.257138
-0.256377
-0.255117
-0.251951
-0.253109
-0.253773
-0.25431
-0.254772
-0.255173
-0.255543
-0.255902
-0.256259
-0.25662
-0.256983
-0.257343
-0.257693
-0.25802
-0.258315
-0.258562
-0.258746
-0.258848
-0.258846
-0.258716
-0.258429
-0.257954
-0.257307
-0.256505
-0.254861
-0.252782
-0.253857
-0.254473
-0.25497
-0.255393
-0.255759
-0.256097
-0.256424
-0.256753
-0.257087
-0.257425
-0.257763
-0.258092
-0.258402
-0.258681
-0.258915
-0.259088
-0.259179
-0.259166
-0.259021
-0.258711
-0.258194
-0.257469
-0.256676
-0.254447
-0.253674
-0.254663
-0.255229
-0.25568
-0.256061
-0.256388
-0.256687
-0.256979
-0.257274
-0.257576
-0.257885
-0.258196
-0.2585
-0.258789
-0.25905
-0.259267
-0.259425
-0.259504
-0.259477
-0.259316
-0.258983
-0.258428
-0.25761
-0.256913
-0.253885
-0.254621
-0.255522
-0.256033
-0.256436
-0.256771
-0.257053
-0.257309
-0.25756
-0.257815
-0.25808
-0.258354
-0.258633
-0.258909
-0.259172
-0.259409
-0.259607
-0.259747
-0.259809
-0.259768
-0.259589
-0.259232
-0.258648
-0.25771
-0.256999
-0.253531
-0.255614
-0.256426
-0.256881
-0.257232
-0.257516
-0.257749
-0.257957
-0.25816
-0.25837
-0.258591
-0.258825
-0.259067
-0.259308
-0.25954
-0.25975
-0.259923
-0.260041
-0.260084
-0.260023
-0.259825
-0.259441
-0.258832
-0.25779
-0.257072
-0.253037
-0.256647
-0.257371
-0.257768
-0.258064
-0.258292
-0.25847
-0.258624
-0.258773
-0.258931
-0.259103
-0.25929
-0.259488
-0.25969
-0.259885
-0.260061
-0.260204
-0.260296
-0.260314
-0.26023
-0.260009
-0.259593
-0.258971
-0.257788
-0.257186
-0.25237
-0.257715
-0.258351
-0.25869
-0.258927
-0.259095
-0.259212
-0.259305
-0.259395
-0.259493
-0.259609
-0.259742
-0.25989
-0.260045
-0.260197
-0.260335
-0.260442
-0.260502
-0.26049
-0.260378
-0.260129
-0.259671
-0.259051
-0.257674
-0.257316
-0.251551
-0.258813
-0.259365
-0.259643
-0.259818
-0.259922
-0.259972
-0.259998
-0.260019
-0.260052
-0.260103
-0.260175
-0.260266
-0.260367
-0.260471
-0.260563
-0.260629
-0.26065
-0.260602
-0.260454
-0.260174
-0.25966
-0.259059
-0.257423
-0.257434
-0.250589
-0.259937
-0.260408
-0.260624
-0.260735
-0.260769
-0.260747
-0.260697
-0.260643
-0.260601
-0.260581
-0.260584
-0.26061
-0.260651
-0.260699
-0.260739
-0.260757
-0.260733
-0.260643
-0.260452
-0.260135
-0.259546
-0.258986
-0.257016
-0.257508
-0.249504
-0.261086
-0.26148
-0.261634
-0.261676
-0.261635
-0.261533
-0.261401
-0.261264
-0.26114
-0.261039
-0.260966
-0.26092
-0.260893
-0.260878
-0.26086
-0.260824
-0.260748
-0.260608
-0.260366
-0.260006
-0.25932
-0.25882
-0.256444
-0.257491
-0.248333
-0.262259
-0.262581
-0.262671
-0.262641
-0.26252
-0.262332
-0.26211
-0.261881
-0.261666
-0.261477
-0.261319
-0.261193
-0.261092
-0.261007
-0.260924
-0.260827
-0.260694
-0.260497
-0.260194
-0.259785
-0.258979
-0.258548
-0.255715
-0.257323
-0.247129
-0.263458
-0.263713
-0.263738
-0.263631
-0.263423
-0.263142
-0.262822
-0.262494
-0.262179
-0.261893
-0.261643
-0.261429
-0.261246
-0.261085
-0.260932
-0.260767
-0.260569
-0.260309
-0.259934
-0.25947
-0.258522
-0.258152
-0.254852
-0.256929
-0.245952
-0.264686
-0.264877
-0.264836
-0.264649
-0.264348
-0.263966
-0.26354
-0.263103
-0.262681
-0.262291
-0.26194
-0.261632
-0.26136
-0.261117
-0.260886
-0.260648
-0.260378
-0.260046
-0.25959
-0.259056
-0.257954
-0.257606
-0.253887
-0.256233
-0.244841
-0.26595
-0.26608
-0.265969
-0.265697
-0.265298
-0.264807
-0.264267
-0.263714
-0.263176
-0.262672
-0.262214
-0.261804
-0.261438
-0.261106
-0.260792
-0.260475
-0.260126
-0.259712
-0.259162
-0.25854
-0.257278
-0.25688
-0.252847
-0.255177
-0.243797
-0.267256
-0.267327
-0.267145
-0.266782
-0.266276
-0.265669
-0.265007
-0.264329
-0.263667
-0.263044
-0.262471
-0.261954
-0.261487
-0.261061
-0.260657
-0.260253
-0.259816
-0.25931
-0.258652
-0.257915
-0.256494
-0.255945
-0.251741
-0.253732
-0.242769
-0.268613
-0.268626
-0.268369
-0.267908
-0.26729
-0.266559
-0.265766
-0.264955
-0.264163
-0.263412
-0.262719
-0.262088
-0.261515
-0.260989
-0.26049
-0.259992
-0.259456
-0.258841
-0.258059
-0.257171
-0.255593
-0.254782
-0.250549
-0.251915
-0.241672
-0.270034
-0.269987
-0.269647
-0.269085
-0.268345
-0.267482
-0.266551
-0.265601
-0.26467
-0.263787
-0.262967
-0.262217
-0.261533
-0.260901
-0.2603
-0.259696
-0.259048
-0.258305
-0.257376
-0.256297
-0.254556
-0.25338
-0.249225
-0.24977
-0.240418
-0.27153
-0.27142
-0.270991
-0.270319
-0.269452
-0.268449
-0.267372
-0.266274
-0.265199
-0.264177
-0.263226
-0.262353
-0.261552
-0.260808
-0.260094
-0.259373
-0.258594
-0.257699
-0.256594
-0.255281
-0.253358
-0.251739
-0.247714
-0.24735
-0.238933
-0.273115
-0.272934
-0.272415
-0.271623
-0.270618
-0.269467
-0.268237
-0.266986
-0.265761
-0.264595
-0.263508
-0.262506
-0.261583
-0.260718
-0.259881
-0.259026
-0.258094
-0.257014
-0.255698
-0.254107
-0.251968
-0.24986
-0.245966
-0.244685
-0.237162
-0.274806
-0.274546
-0.273925
-0.273005
-0.271854
-0.270547
-0.269157
-0.267747
-0.266367
-0.265053
-0.263826
-0.26269
-0.261637
-0.260642
-0.259666
-0.258655
-0.25754
-0.25624
-0.25467
-0.252761
-0.25036
-0.247745
-0.243942
-0.241756
-0.235065
-0.276619
-0.276268
-0.275535
-0.274477
-0.273172
-0.271702
-0.270145
-0.26857
-0.26703
-0.265564
-0.264192
-0.262917
-0.261725
-0.260586
-0.259452
-0.258257
-0.256924
-0.255363
-0.253493
-0.251229
-0.248516
-0.245404
-0.24162
-0.23849
-0.232684
-0.278571
-0.278113
-0.277259
-0.276053
-0.274583
-0.272942
-0.271212
-0.269467
-0.267764
-0.266141
-0.264619
-0.263197
-0.261855
-0.260554
-0.259236
-0.257824
-0.256233
-0.254367
-0.252152
-0.249503
-0.246434
-0.242863
-0.238992
-0.234891
-0.230198
-0.280678
-0.280099
-0.279109
-0.277744
-0.276101
-0.27428
-0.272371
-0.270452
-0.268581
-0.266797
-0.265118
-0.263539
-0.262032
-0.260547
-0.259014
-0.257346
-0.255452
-0.253236
-0.250636
-0.247578
-0.244122
-0.240149
-0.236069
-0.231276
-0.227568
-0.282959
-0.282238
-0.281099
-0.279563
-0.277737
-0.275729
-0.273635
-0.271537
-0.269494
-0.267544
-0.2657
-0.263951
-0.262259
-0.260561
-0.258776
-0.256809
-0.254565
-0.251957
-0.248939
-0.245458
-0.241604
-0.237274
-0.232884
-0.227852
-0.223788
-0.285431
-0.284545
-0.283243
-0.281524
-0.279504
-0.277301
-0.275017
-0.272735
-0.270515
-0.268392
-0.266373
-0.264437
-0.262534
-0.260589
-0.25851
-0.256196
-0.253558
-0.250521
-0.247061
-0.243153
-0.238907
-0.234245
-0.229567
-0.224327
-0.219892
-0.28811
-0.287036
-0.285555
-0.28364
-0.281416
-0.279011
-0.27653
-0.274059
-0.271656
-0.269352
-0.267143
-0.264998
-0.262853
-0.260621
-0.258201
-0.255493
-0.252419
-0.248923
-0.245009
-0.240678
-0.236058
-0.231092
-0.226149
-0.220746
-0.216075
-0.291013
-0.289724
-0.288047
-0.285923
-0.283485
-0.28087
-0.278187
-0.275522
-0.272929
-0.27043
-0.268014
-0.265631
-0.263207
-0.260641
-0.257831
-0.254684
-0.251137
-0.247164
-0.242792
-0.238052
-0.23308
-0.227839
-0.222663
-0.217124
-0.212272
-0.294154
-0.292622
-0.290733
-0.288387
-0.285725
-0.282892
-0.280001
-0.277134
-0.274341
-0.271633
-0.268983
-0.26633
-0.263582
-0.260634
-0.257384
-0.253755
-0.249709
-0.245247
-0.240425
-0.235295
-0.229998
-0.224506
-0.219128
-0.213465
-0.20849
-0.297548
-0.295744
-0.293626
-0.291044
-0.288147
-0.28509
-0.281983
-0.278906
-0.275899
-0.272961
-0.270049
-0.267083
-0.263963
-0.260579
-0.256842
-0.252696
-0.248131
-0.24318
-0.237921
-0.232425
-0.226827
-0.221109
-0.21555
-0.209775
-0.204698
-0.301206
-0.299101
-0.296737
-0.293907
-0.290765
-0.287475
-0.284145
-0.280847
-0.27761
-0.274416
-0.271202
-0.267877
-0.26433
-0.260459
-0.256191
-0.251499
-0.246405
-0.240973
-0.235296
-0.229456
-0.223582
-0.217657
-0.211933
-0.206054
-0.200887
-0.30514
-0.302705
-0.300078
-0.296987
-0.293591
-0.290059
-0.286496
-0.282964
-0.279474
-0.27599
-0.272431
-0.268692
-0.264662
-0.260252
-0.255415
-0.250158
-0.244536
-0.238634
-0.232561
-0.2264
-0.22027
-0.214154
-0.208278
-0.202299
-0.197046
-0.30936
-0.306564
-0.303659
-0.300295
-0.296635
-0.292854
-0.289047
-0.285261
-0.28149
-0.277675
-0.273719
-0.269508
-0.264937
-0.259941
-0.254505
-0.248672
-0.242527
-0.236174
-0.229725
-0.223265
-0.216896
-0.210602
-0.204581
-0.198506
-0.193169
-0.313873
-0.310688
-0.307489
-0.303841
-0.299909
-0.295867
-0.291801
-0.287739
-0.283651
-0.279457
-0.275044
-0.270298
-0.265132
-0.259508
-0.253452
-0.247041
-0.240384
-0.233599
-0.226796
-0.220055
-0.213461
-0.206999
-0.200839
-0.19467
-0.189248
-0.318685
-0.315082
-0.311576
-0.307635
-0.303421
-0.299108
-0.294764
-0.290395
-0.285946
-0.281316
-0.276382
-0.271038
-0.265223
-0.258938
-0.252248
-0.245263
-0.238111
-0.230914
-0.223776
-0.21677
-0.209964
-0.203341
-0.197046
-0.190787
-0.185279
-0.323798
-0.319751
-0.315925
-0.311682
-0.307177
-0.302579
-0.297934
-0.293221
-0.288359
-0.283227
-0.277704
-0.271699
-0.265189
-0.258217
-0.250889
-0.243341
-0.235711
-0.228121
-0.220667
-0.213409
-0.2064
-0.199623
-0.193196
-0.186849
-0.181255
-0.329212
-0.324697
-0.320541
-0.315988
-0.311181
-0.306281
-0.301305
-0.296202
-0.290865
-0.285162
-0.278978
-0.272254
-0.265009
-0.257335
-0.24937
-0.241272
-0.233184
-0.225221
-0.217466
-0.209968
-0.202764
-0.195838
-0.189283
-0.182852
-0.177171
-0.334924
-0.329918
-0.325425
-0.320554
-0.315435
-0.31021
-0.304866
-0.299319
-0.293438
-0.287088
-0.280173
-0.272676
-0.264666
-0.25628
-0.247688
-0.239057
-0.23053
-0.222211
-0.214168
-0.20644
-0.19905
-0.191979
-0.1853
-0.178789
-0.173023
-0.340926
-0.335411
-0.330572
-0.325378
-0.319932
-0.314355
-0.308598
-0.302543
-0.296042
-0.288966
-0.281253
-0.272937
-0.264141
-0.255043
-0.245836
-0.236692
-0.227745
-0.219086
-0.210769
-0.202819
-0.19525
-0.18804
-0.181241
-0.174654
-0.168804
-0.347206
-0.341166
-0.335978
-0.330453
-0.324663
-0.318702
-0.312478
-0.305843
-0.298639
-0.290759
-0.282186
-0.273014
-0.263419
-0.253616
-0.24381
-0.234172
-0.224823
-0.215839
-0.207259
-0.199098
-0.191356
-0.184012
-0.177098
-0.170441
-0.164509
-0.353747
-0.34717
-0.34163
-0.335767
-0.329613
-0.323226
-0.316472
-0.309176
-0.301185
-0.292424
-0.282937
-0.272882
-0.262485
-0.251988
-0.241603
-0.231491
-0.221758
-0.212463
-0.203632
-0.195267
-0.18736
-0.179888
-0.172865
-0.166144
-0.160135
-0.360526
-0.353404
-0.347511
-0.341302
-0.334757
-0.327896
-0.320541
-0.312498
-0.303632
-0.29392
-0.283475
-0.27252
-0.261325
-0.250151
-0.239207
-0.228642
-0.218541
-0.208949
-0.199877
-0.191318
-0.183254
-0.175661
-0.168536
-0.161757
-0.155674
-0.367515
-0.359844
-0.353599
-0.347033
-0.340066
-0.332673
-0.324637
-0.315757
-0.305932
-0.295206
-0.283768
-0.271906
-0.259924
-0.248093
-0.236613
-0.225613
-0.215163
-0.205287
-0.195985
-0.187241
-0.179029
-0.171323
-0.164104
-0.157275
-0.151123
-0.374676
-0.366459
-0.359863
-0.352926
-0.3455
-0.337511
-0.328707
-0.318897
-0.308033
-0.29624
-0.283787
-0.271019
-0.258268
-0.245803
-0.233809
-0.222396
-0.211611
-0.201466
-0.191947
-0.183028
-0.174678
-0.166866
-0.159563
-0.152692
-0.146477
-0.381969
-0.373211
-0.366267
-0.358943
-0.351013
-0.342353
-0.332691
-0.32186
-0.309886
-0.296983
-0.283504
-0.26984
-0.256342
-0.243268
-0.230785
-0.218978
-0.207876
-0.197476
-0.187751
-0.178669
-0.170192
-0.162285
-0.154907
-0.148002
-0.141731
-0.389343
-0.380057
-0.372767
-0.365035
-0.356548
-0.347139
-0.336524
-0.324586
-0.311438
-0.297396
-0.28289
-0.26835
-0.25413
-0.240475
-0.227526
-0.215346
-0.203946
-0.193305
-0.183389
-0.174156
-0.165563
-0.157571
-0.15013
-0.1432
-0.136882
-0.396743
-0.386945
-0.37931
-0.371145
-0.362044
-0.351801
-0.340139
-0.327012
-0.312641
-0.297444
-0.28192
-0.266528
-0.251617
-0.237409
-0.224021
-0.211489
-0.199808
-0.188943
-0.17885
-0.16948
-0.160784
-0.152719
-0.145226
-0.138282
-0.131924
-0.404104
-0.393817
-0.385838
-0.37721
-0.36743
-0.356263
-0.343464
-0.329079
-0.313447
-0.297091
-0.28057
-0.264356
-0.248787
-0.234057
-0.220254
-0.207393
-0.19545
-0.184378
-0.174124
-0.164632
-0.155848
-0.147721
-0.140191
-0.133243
-0.126856
-0.411356
-0.400606
-0.392283
-0.383157
-0.372629
-0.36045
-0.346428
-0.330725
-0.31381
-0.296304
-0.278813
-0.261814
-0.245622
-0.230401
-0.216211
-0.203045
-0.190861
-0.179602
-0.169204
-0.159605
-0.150747
-0.142574
-0.13502
-0.128078
-0.121673
-0.418424
-0.407241
-0.398572
-0.388909
-0.377559
-0.364279
-0.348959
-0.331894
-0.313688
-0.295052
-0.276627
-0.258883
-0.242106
-0.226428
-0.211879
-0.198433
-0.18603
-0.174602
-0.164079
-0.154392
-0.145476
-0.13727
-0.129708
-0.122784
-0.116372
-0.425223
-0.413644
-0.404624
-0.39438
-0.382134
-0.36767
-0.350985
-0.332528
-0.313038
-0.293304
-0.273988
-0.255543
-0.238221
-0.22212
-0.207244
-0.193542
-0.180944
-0.16937
-0.158742
-0.148984
-0.140028
-0.131806
-0.124251
-0.117357
-0.110953
-0.431668
-0.419729
-0.410353
-0.399481
-0.386265
-0.370539
-0.352439
-0.332577
-0.311822
-0.291032
-0.270874
-0.251775
-0.233951
-0.217464
-0.20229
-0.188362
-0.175594
-0.163897
-0.153185
-0.143377
-0.134398
-0.126177
-0.118645
-0.111794
-0.105412
-0.437666
-0.425409
-0.415669
-0.40412
-0.38986
-0.372807
-0.353254
-0.331989
-0.310005
-0.288208
-0.267263
-0.247562
-0.229279
-0.212444
-0.197007
-0.182881
-0.169969
-0.158174
-0.1474
-0.137563
-0.128582
-0.120379
-0.112888
-0.106093
-0.0997491
-0.443122
-0.43059
-0.420476
-0.4082
-0.39283
-0.374393
-0.353368
-0.33072
-0.307552
-0.284808
-0.263135
-0.242884
-0.224189
-0.207046
-0.19138
-0.177089
-0.164062
-0.152193
-0.141383
-0.131538
-0.122574
-0.114409
-0.106976
-0.10025
-0.0939637
-0.44794
-0.435179
-0.424677
-0.411626
-0.395085
-0.375224
-0.352724
-0.328726
-0.304433
-0.280808
-0.258469
-0.237726
-0.218667
-0.201257
-0.185399
-0.170975
-0.157863
-0.145949
-0.135126
-0.125297
-0.116372
-0.108264
-0.100908
-0.0942666
-0.0880563
-0.452021
-0.439077
-0.428176
-0.414303
-0.39654
-0.375229
-0.351269
-0.32597
-0.30062
-0.276186
-0.253249
-0.23207
-0.212698
-0.195066
-0.179054
-0.164531
-0.151366
-0.139435
-0.128626
-0.118836
-0.109972
-0.101941
-0.0946813
-0.0881411
-0.0820303
-0.455268
-0.442188
-0.430875
-0.416136
-0.397111
-0.374342
-0.348953
-0.322418
-0.296088
-0.270922
-0.247457
-0.225904
-0.20627
-0.18846
-0.172335
-0.15775
-0.144564
-0.132647
-0.121879
-0.112153
-0.103372
-0.0954383
-0.0882921
-0.0818723
-0.0758893
-0.457584
-0.444416
-0.432678
-0.417037
-0.396723
-0.372503
-0.345733
-0.318038
-0.290814
-0.264998
-0.241078
-0.219213
-0.199372
-0.181431
-0.165235
-0.150626
-0.137453
-0.12558
-0.114882
-0.105246
-0.0965703
-0.0887538
-0.0817378
-0.0754555
-0.0696243
-0.458877
-0.445667
-0.433492
-0.416918
-0.395303
-0.369659
-0.341574
-0.312804
-0.284778
-0.258399
-0.234098
-0.211986
-0.191993
-0.173971
-0.157747
-0.143153
-0.130029
-0.118233
-0.107633
-0.0981144
-0.0895675
-0.0818887
-0.0750222
-0.0688891
-0.0631961
-0.459057
-0.445851
-0.43323
-0.415703
-0.392789
-0.365763
-0.336441
-0.306695
-0.277965
-0.251112
-0.226508
-0.204214
-0.184127
-0.166073
-0.149867
-0.135328
-0.12229
-0.110603
-0.100133
-0.0907571
-0.0823636
-0.074846
-0.0681571
-0.0621899
-0.0565539
-0.45804
-0.444884
-0.431809
-0.413318
-0.389123
-0.360775
-0.330309
-0.299693
-0.270362
-0.243126
-0.218298
-0.19589
-0.175767
-0.157734
-0.141591
-0.127149
-0.114234
-0.102691
-0.0923798
-0.0831755
-0.0749596
-0.067628
-0.0611467
-0.0553756
-0.0497399
-0.455748
-0.442686
-0.429155
-0.409698
-0.384257
-0.354664
-0.323158
-0.291783
-0.261959
-0.234433
-0.209461
-0.187009
-0.166909
-0.14895
-0.132918
-0.118615
-0.105862
-0.0944973
-0.0843766
-0.0753716
-0.0673586
-0.0602378
-0.0539763
-0.0483427
-0.042949
-0.45211
-0.439186
-0.4252
-0.404789
-0.378151
-0.347403
-0.314972
-0.282958
-0.252749
-0.22503
-0.199995
-0.177568
-0.157553
-0.139722
-0.123849
-0.109729
-0.0971759
-0.0860245
-0.0761255
-0.0673492
-0.0595652
-0.0526791
-0.0466468
-0.0411839
-0.0360701
-0.447065
-0.434319
-0.419885
-0.398544
-0.370774
-0.338974
-0.305741
-0.273212
-0.24273
-0.214914
-0.189898
-0.167567
-0.147699
-0.13005
-0.114385
-0.100491
-0.0881783
-0.0772773
-0.0676325
-0.0591111
-0.0515826
-0.0449537
-0.0391687
-0.0339107
-0.0290816
-0.440558
-0.428031
-0.413162
-0.390926
-0.362103
-0.329367
-0.295463
-0.262545
-0.231904
-0.204087
-0.179173
-0.157008
-0.137349
-0.119937
-0.10453
-0.0909089
-0.0788762
-0.0682589
-0.0589007
-0.0506634
-0.0434161
-0.0370672
-0.0315508
-0.0265229
-0.0219832
-0.432545
-0.420278
-0.404991
-0.381908
-0.352125
-0.318578
-0.284139
-0.250962
-0.220275
-0.192553
-0.167823
-0.145895
-0.126509
-0.10939
-0.0942935
-0.0809868
-0.0692738
-0.0589764
-0.0499365
-0.0420123
-0.0350718
-0.0290259
-0.0237995
-0.0190205
-0.0147821
-0.422994
-0.411022
-0.395344
-0.371473
-0.340834
-0.30661
-0.271776
-0.238471
-0.207851
-0.180321
-0.155855
-0.134238
-0.115188
-0.0984197
-0.0836786
-0.0707326
-0.0593791
-0.0494375
-0.0407478
-0.0331652
-0.0265569
-0.0208372
-0.015921
-0.0114072
-0.00748541
-0.41188
-0.400241
-0.384203
-0.359614
-0.328234
-0.293474
-0.258389
-0.225084
-0.194644
-0.167398
-0.143285
-0.12205
-0.103396
-0.0870321
-0.0726971
-0.0601557
-0.0492015
-0.0396512
-0.0313431
-0.0241303
-0.0178796
-0.0125088
-0.00792188
-0.00368886
-0.000100905
-0.399191
-0.38792
-0.37156
-0.346334
-0.314338
-0.279186
-0.243994
-0.210821
-0.180667
-0.153797
-0.130133
-0.109341
-0.091144
-0.0752402
-0.0613606
-0.0492676
-0.0387517
-0.0296277
-0.0217325
-0.0149172
-0.00904896
-0.00404949
0.000189999
0.004127
0.00736355
-0.384926
-0.374056
-0.35742
-0.331646
-0.299164
-0.263771
-0.228617
-0.1957
-0.165943
-0.139561
-0.116392
-0.0961247
-0.0784481
-0.0630582
-0.0496826
-0.038081
-0.0280419
-0.0193787
-0.0119269
-0.00553641
-7.51602e-05
0.00453133
0.0084059
0.0120316
0.0148995
-0.369093
-0.358657
-0.341795
-0.315571
-0.282741
-0.247258
-0.212284
-0.179752
-0.150503
-0.124685
-0.102099
-0.0824216
-0.0653254
-0.0505027
-0.0376784
-0.0266105
-0.0170858
-0.00891691
-0.0019385
0.0040005
0.00903078
0.0132233
0.016716
0.0200151
0.0224979
-0.351713
-0.341742
-0.32471
-0.29814
-0.265104
-0.229684
-0.195032
-0.163005
-0.134367
-0.109201
-0.0872752
-0.0682528
-0.0517955
-0.0375919
-0.0253652
-0.0148719
-0.00589832
0.00174352
0.00821942
0.013681
0.0182569
0.022015
0.0251098
0.0280668
0.0301486
-0.332815
-0.32334
-0.3062
-0.279392
-0.246296
-0.21109
-0.176895
-0.145494
-0.117566
-0.0931376
-0.0719462
-0.0536424
-0.0378806
-0.0243463
-0.0127618
-0.00288301
0.00550412
0.0125873
0.0185326
0.0234915
0.0275903
0.0308944
0.0335756
0.0361748
0.0378405
-0.312441
-0.303489
-0.286307
-0.259381
-0.226378
-0.191508
-0.157916
-0.127257
-0.100135
-0.076526
-0.0561401
-0.0386166
-0.0236047
-0.0107882
0.00011115
0.00933731
0.0171039
0.0235982
0.0289857
0.0334176
0.0370172
0.0398485
0.0421009
0.0443261
0.0455612
-0.290641
-0.282237
-0.265084
-0.238173
-0.205409
-0.17098
-0.138138
-0.108335
-0.082112
-0.0594007
-0.0398881
-0.023204
-0.00899414
0.00305832
0.0132315
0.0217686
0.0288823
0.0347587
0.0395626
0.0434442
0.0465231
0.0488635
0.0506721
0.0525052
0.053296
-0.26747
-0.259643
-0.242599
-0.21582
-0.183364
-0.149632
-0.117622
-0.0887755
-0.0635386
-0.0417991
-0.023224
-0.00743541
0.00592278
0.0171674
0.0265755
0.0343891
0.0408192
0.0460505
0.0502464
0.0535554
0.056093
0.0579248
0.0592744
0.0606942
0.0610242
-0.242993
-0.235782
-0.218935
-0.192333
-0.160403
-0.127471
-0.0964201
-0.0686271
-0.0444586
-0.0237609
-0.00618384
0.00865612
0.021116
0.0315114
0.0401181
0.0471758
0.0528937
0.0574543
0.0610195
0.0637349
0.0657115
0.067018
0.0678931
0.0688737
0.0687186
-0.217282
-0.210734
-0.194177
-0.167784
-0.136579
-0.104566
-0.0745904
-0.0479428
-0.0249193
-0.00532868
0.0111938
0.0250356
0.0365535
0.0460614
0.0538326
0.0601045
0.0650837
0.06895
0.0718635
0.0739657
0.0753624
0.076128
0.0765157
0.0770297
0.0763625
-0.190411
-0.184575
-0.168244
-0.142429
-0.111969
-0.0809893
-0.0521944
-0.0267777
-0.00497018
0.0134528
0.0288682
0.0416661
0.0522017
0.0607867
0.0676913
0.07315
0.0773662
0.080517
0.0827597
0.0842302
0.0850284
0.0852397
0.0851326
0.0851542
0.0839503
-0.162451
-0.157415
-0.141392
-0.116227
-0.0866512
-0.0568144
-0.0292966
-0.00518967
0.0153367
0.0325366
0.046797
0.0585089
0.0680257
0.0756554
0.0816652
0.086286
0.0897174
0.0921338
0.0936887
0.0945103
0.0946925
0.0943405
0.0937344
0.0932134
0.0913829
-0.133502
-0.129357
-0.113722
-0.0892699
-0.060706
-0.0321174
-0.00596426
0.0167612
0.0359472
0.0518737
0.0649357
0.075524
0.0839887
0.0906345
0.0957243
0.0994851
0.102113
0.103779
0.104631
0.104788
0.104342
0.103427
0.102308
0.101093
0.09835
-0.103823
-0.10039
-0.0853025
-0.0616582
-0.0342188
-0.00697597
0.017733
0.0390126
0.0568051
0.0714135
0.0832385
0.0926696
0.100053
0.10569
0.109837
0.112719
0.114527
0.115428
0.115566
0.115048
0.113971
0.112506
0.110836
0.108655
0.10463
-0.0734173
-0.0706813
-0.0562303
-0.0334911
-0.0072785
0.0185299
0.0417235
0.0615001
0.0778526
0.0911037
0.101658
0.109903
0.11618
0.120785
0.123973
0.12596
0.126935
0.12706
0.126472
0.125273
0.123573
0.121574
0.119292
0.115964
0.110919
-0.0423675
-0.0403673
-0.0266115
-0.00486941
0.0200233
0.0443182
0.0659338
0.084158
0.0990304
0.110891
0.120146
0.12718
0.13233
0.135886
0.138097
0.139177
0.139308
0.138648
0.137328
0.135446
0.133131
0.130589
0.127616
0.123215
0.119302
-0.0107971
-0.00956212
0.00344385
0.0241039
0.0475932
0.0703052
0.0902888
0.106919
0.120278
0.13072
0.138652
0.144456
0.148462
0.150955
0.152178
0.15234
0.151619
0.150169
0.148113
0.145548
0.142619
0.139496
0.135825
0.130832
0.127633
0.0211704
0.0216196
0.0338232
0.0533242
0.0753362
0.0964059
0.114713
0.129715
0.141534
0.150535
0.157127
0.161685
0.164534
0.165953
0.166181
0.165419
0.163841
0.161596
0.158802
0.155557
0.15201
0.148288
0.143983
0.138603
0.135509
0.0534116
0.05306
0.0644121
0.0826855
0.103157
0.122534
0.139128
0.152476
0.162735
0.170281
0.17552
0.178822
0.180506
0.180845
0.180071
0.178382
0.175946
0.172905
0.169373
0.165451
0.161283
0.156959
0.152081
0.146373
0.143107
0.0858024
0.0846394
0.0950954
0.112081
0.130958
0.148605
0.163459
0.175134
0.18382
0.1899
0.193778
0.195819
0.196334
0.195591
0.193815
0.191198
0.187904
0.184069
0.179803
0.175206
0.170415
0.165498
0.160083
0.15403
0.150452
0.118218
0.116237
0.125757
0.141405
0.158645
0.17453
0.187626
0.197618
0.204725
0.209336
0.211852
0.21263
0.211978
0.210154
0.207378
0.203836
0.199687
0.195061
0.190066
0.184799
0.179388
0.173888
0.167956
0.161536
0.157571
0.150532
0.14773
0.156282
0.170549
0.18612
0.200225
0.211553
0.219859
0.225387
0.228531
0.229689
0.22921
0.227394
0.224494
0.220724
0.216264
0.211266
0.205858
0.20014
0.194208
0.188183
0.182109
0.175671
0.168866
0.164472
0.182621
0.178999
0.186554
0.199409
0.213288
0.225602
0.235163
0.241788
0.245744
0.24743
0.247237
0.24551
0.242541
0.238575
0.23382
0.228451
0.222614
0.216431
0.209999
0.203411
0.19678
0.190142
0.183205
0.176005
0.171158
0.21436
0.209922
0.216459
0.22788
0.240055
0.250579
0.25838
0.263335
0.265734
0.265976
0.264448
0.261486
0.257376
0.252358
0.246632
0.240366
0.233702
0.226756
0.219622
0.212387
0.205159
0.197967
0.190539
0.18294
0.177624
0.245627
0.240379
0.245885
0.255859
0.266328
0.275071
0.281128
0.284434
0.285296
0.284114
0.281269
0.277092
0.27186
0.265807
0.259125
0.251978
0.244502
0.236807
0.228984
0.221115
0.213301
0.205567
0.197656
0.189659
0.183865
0.276299
0.270254
0.274721
0.283243
0.292016
0.298995
0.303334
0.305017
0.304368
0.301789
0.297653
0.292284
0.285952
0.278884
0.271267
0.263258
0.254987
0.24656
0.238063
0.229575
0.221189
0.212924
0.204542
0.19615
0.189876
0.306259
0.299431
0.302858
0.309935
0.317029
0.322274
0.324926
0.32502
0.322894
0.318948
0.313551
0.307017
0.299612
0.291554
0.283025
0.274176
0.265131
0.255991
0.246838
0.237746
0.228803
0.220021
0.211182
0.202403
0.195649
0.335391
0.327797
0.330191
0.335838
0.341281
0.344827
0.345833
0.344379
0.340815
0.335539
0.328915
0.32125
0.312802
0.303783
0.294368
0.284703
0.274907
0.265076
0.255287
0.24561
0.236126
0.226844
0.217562
0.208405
0.201175
0.363583
0.355243
0.356618
0.360859
0.364687
0.366579
0.365988
0.363032
0.358075
0.351512
0.3437
0.334941
0.325484
0.315535
0.305265
0.294812
0.284291
0.273792
0.263389
0.253148
0.243142
0.233377
0.223669
0.214146
0.206447
0.390725
0.381665
0.38204
0.384908
0.387168
0.387459
0.385324
0.38092
0.37462
0.366818
0.357863
0.34805
0.337622
0.326779
0.315686
0.304476
0.293258
0.282118
0.271125
0.260342
0.249835
0.239606
0.22949
0.219614
0.211456
0.416713
0.40696
0.406363
0.407899
0.408644
0.407395
0.403778
0.397986
0.3904
0.38141
0.37136
0.360538
0.349181
0.337484
0.325604
0.313669
0.301785
0.290032
0.278476
0.267174
0.256188
0.245517
0.235013
0.224798
0.216195
0.441448
0.431032
0.429495
0.429749
0.429042
0.42632
0.42129
0.414175
0.405364
0.395243
0.384151
0.37237
0.360129
0.347618
0.33499
0.322367
0.309849
0.297515
0.285424
0.27363
0.262188
0.251097
0.240225
0.229689
0.220655
0.464834
0.453788
0.451352
0.45038
0.448291
0.444173
0.437803
0.429436
0.419465
0.408275
0.396198
0.383509
0.370434
0.357155
0.343819
0.330547
0.317431
0.304547
0.291951
0.279692
0.267821
0.256334
0.245116
0.234275
0.224829
0.486781
0.475143
0.471851
0.469719
0.466325
0.460891
0.453262
0.443719
0.43266
0.420466
0.407465
0.393924
0.380066
0.366066
0.352067
0.338185
0.324509
0.31111
0.298041
0.285347
0.273073
0.261215
0.249675
0.238547
0.228711
0.507206
0.495014
0.490918
0.487696
0.483083
0.47642
0.467618
0.456979
0.444907
0.431779
0.417916
0.403584
0.388996
0.374326
0.359711
0.345262
0.331066
0.317188
0.303679
0.29058
0.277932
0.265731
0.253891
0.242497
0.232292
0.526031
0.513327
0.508482
0.504249
0.498505
0.490708
0.480822
0.469173
0.456166
0.442177
0.427522
0.412459
0.3972
0.381912
0.36673
0.351759
0.337083
0.322764
0.30885
0.29538
0.282387
0.269869
0.257755
0.246116
0.235568
0.543183
0.530011
0.524478
0.519318
0.51254
0.503707
0.492833
0.480262
0.466404
0.45163
0.436251
0.420524
0.404653
0.388803
0.373104
0.357658
0.342545
0.327825
0.313543
0.299734
0.286427
0.273621
0.261258
0.249395
0.238533
0.558598
0.545004
0.538847
0.532849
0.525139
0.515373
0.50361
0.490211
0.475587
0.460107
0.444079
0.427755
0.411334
0.394979
0.378815
0.362942
0.347437
0.332357
0.317744
0.303631
0.290043
0.276979
0.264393
0.252328
0.241181
0.572216
0.558248
0.551538
0.544795
0.536259
0.525667
0.513117
0.498986
0.483686
0.467583
0.450982
0.434129
0.417223
0.400421
0.383848
0.367598
0.351747
0.336349
0.321444
0.307062
0.293225
0.279934
0.267151
0.254909
0.243508
0.583985
0.569694
0.562502
0.555113
0.545862
0.534555
0.521325
0.506561
0.490676
0.474034
0.456937
0.439628
0.422303
0.405116
0.388187
0.371613
0.355462
0.33979
0.324633
0.310019
0.295967
0.28248
0.269528
0.257132
0.24551
0.593862
0.579299
0.571701
0.563768
0.553914
0.542007
0.528207
0.512911
0.496535
0.479441
0.461927
0.444236
0.426559
0.409048
0.391823
0.374975
0.358574
0.342671
0.327302
0.312494
0.298262
0.28461
0.271517
0.258991
0.247183
0.601808
0.587026
0.5791
0.570728
0.560389
0.547998
0.533738
0.518015
0.501244
0.483786
0.465938
0.447938
0.429978
0.412207
0.394743
0.377675
0.361072
0.344984
0.329446
0.314481
0.300105
0.28632
0.273113
0.260484
0.248525
0.607793
0.592846
0.584672
0.575969
0.565264
0.552508
0.537902
0.521857
0.504788
0.487056
0.468956
0.450724
0.432551
0.414584
0.396939
0.379706
0.362952
0.346724
0.331057
0.315975
0.30149
0.287606
0.274313
0.261606
0.249533
0.611795
0.596737
0.588397
0.579472
0.568522
0.555523
0.540685
0.524424
0.507156
0.489241
0.470972
0.452585
0.434269
0.416171
0.398406
0.381063
0.364207
0.347886
0.332134
0.316972
0.302415
0.288464
0.275114
0.262354
0.250205
0.613799
0.598685
0.590262
0.581226
0.570153
0.557031
0.542077
0.525708
0.508341
0.490334
0.471981
0.453516
0.435129
0.416965
0.39914
0.381741
0.364834
0.348467
0.332672
0.317471
0.302877
0.288893
0.275514
0.262728
0.250541
0.613796
0.598682
0.590259
0.581223
0.57015
0.557028
0.542075
0.525706
0.508339
0.490332
0.471978
0.453514
0.435127
0.416963
0.399138
0.381739
0.364832