/*--------------------------------*- C++ -*----------------------------------*\
  =========                 |
  \\      /  F ield         | OpenFOAM: The Open Source CFD Toolbox
   \\    /   O peration     | Website:  https://openfoam.org
    \\  /    A nd           | Version:  7
     \\/     M anipulation  |
\*---------------------------------------------------------------------------*/
FoamFile
{
    version     2.0;
    format      ascii;
    class       volVectorField;
    location    "65";
    object      U;
}
// * * * * * * * * * * * * * * * * * * * * * * * * * * * * * * * * * * * * * //

dimensions      [0 1 -1 0 0 0 0];

internalField   nonuniform List<vector> 
31800
(
(-0.000520983 0.000471757 -9.04436e-21)
(-0.00323215 0.0012009 6.24659e-21)
(-0.00865551 0.00176028 -2.03458e-21)
(-0.0156703 0.00218356 9.03534e-21)
(-0.0238413 0.00249284 1.00908e-20)
(-0.0328096 0.00270779 -3.30551e-21)
(-0.0422597 0.00284622 -2.38868e-21)
(-0.0519457 0.00292395 1.68872e-20)
(-0.0616771 0.00295505 -1.92272e-21)
(-0.0713092 0.0029518 2.76102e-21)
(-0.0807342 0.0029246 9.46569e-21)
(-0.0898734 0.00288189 9.26446e-21)
(-0.0986688 0.00283015 -5.84668e-21)
(-0.107076 0.00277404 -7.26166e-21)
(-0.11506 0.00271663 -2.47722e-22)
(-0.122589 0.00265986 -9.25487e-21)
(-0.129633 0.00260502 7.18315e-21)
(-0.136162 0.00255354 1.20967e-20)
(-0.142153 0.00250786 -4.51809e-21)
(-0.14759 0.0024725 2.04514e-20)
(-0.152481 0.00245519 1.29363e-21)
(-0.156869 0.0024678 -1.6464e-21)
(-0.160854 0.00252515 3.59078e-21)
(-0.164563 0.0026398 7.29714e-21)
(-0.168231 0.00283523 4.53021e-21)
(-0.000569413 0.00149799 9.31189e-21)
(-0.00334051 0.00377932 5.09625e-21)
(-0.0087856 0.005497 -5.4891e-21)
(-0.0157962 0.0067638 -2.0852e-20)
(-0.0239426 0.00765695 1.53928e-20)
(-0.0328694 0.00824486 -7.53091e-21)
(-0.0422644 0.00858824 4.15375e-22)
(-0.0518836 0.00873967 -1.29511e-20)
(-0.0615382 0.00874421 2.69906e-21)
(-0.0710841 0.00863956 1.83264e-21)
(-0.0804144 0.0084562 -3.97442e-20)
(-0.0894503 0.00821764 -6.71488e-22)
(-0.098134 0.00794093 4.44314e-20)
(-0.106421 0.00763746 -2.23247e-20)
(-0.114276 0.00731401 -4.22588e-21)
(-0.121666 0.00697417 9.18554e-21)
(-0.12856 0.00662012 -1.92787e-20)
(-0.134928 0.00625485 -9.64172e-22)
(-0.140744 0.00588501 1.89959e-20)
(-0.14599 0.00552421 -6.9578e-20)
(-0.150668 0.00519648 -2.15427e-20)
(-0.154816 0.00493946 3.25397e-20)
(-0.158529 0.0048011 1.60247e-20)
(-0.161921 0.00482412 2.84546e-21)
(-0.165219 0.00508382 -6.4428e-21)
(-0.000666602 0.00250855 -1.93016e-20)
(-0.00355825 0.00632129 -5.28913e-22)
(-0.00904784 0.0091844 -2.62339e-20)
(-0.0160513 0.0112871 3.91365e-20)
(-0.0241493 0.01276 -4.4313e-20)
(-0.0329945 0.0137193 -4.14072e-21)
(-0.0422803 0.0142676 -4.02031e-21)
(-0.0517673 0.0144937 7.34916e-21)
(-0.0612695 0.0144733 2.43225e-20)
(-0.0706448 0.0142691 -4.12987e-21)
(-0.0797872 0.0139316 -7.28494e-21)
(-0.0886184 0.0134995 2.62385e-20)
(-0.0970806 0.0130002 -4.61963e-21)
(-0.105129 0.0124519 2.54842e-20)
(-0.112728 0.0118652 -5.15514e-20)
(-0.119842 0.0112452 -2.10601e-20)
(-0.126441 0.0105948 3.39251e-21)
(-0.132492 0.00991781 -6.89594e-20)
(-0.137964 0.00922436 1.88199e-20)
(-0.142833 0.00853587 4.23801e-20)
(-0.147092 0.00789151 -2.67417e-20)
(-0.150767 0.00735403 -6.42891e-20)
(-0.153945 0.00700626 -3.20465e-20)
(-0.156717 0.00692609 -5.97458e-20)
(-0.159278 0.00724499 -3.26547e-20)
(-0.000810858 0.00349341 8.98742e-21)
(-0.00388196 0.00880342 -1.49779e-20)
(-0.00943852 0.0127908 4.76541e-20)
(-0.0164323 0.0157166 -3.81279e-20)
(-0.0244592 0.0177627 -9.92913e-21)
(-0.0331832 0.0190906 -2.63818e-21)
(-0.0423069 0.0198437 3.12074e-20)
(-0.051597 0.020146 2.21249e-20)
(-0.0608718 0.0201031 -3.90763e-20)
(-0.0699923 0.0198025 1.63809e-20)
(-0.0788538 0.0193144 1.00124e-21)
(-0.0873788 0.0186923 -7.37977e-20)
(-0.0955094 0.0179745 -2.42179e-20)
(-0.1032 0.0171859 1.96362e-21)
(-0.110414 0.0163407 1.61383e-20)
(-0.117116 0.0154458 7.35127e-20)
(-0.123272 0.0145039 8.14949e-21)
(-0.128846 0.0135194 6.95896e-20)
(-0.133802 0.012504 6.94597e-20)
(-0.138107 0.0114853 -8.56365e-21)
(-0.14174 0.0105151 3.11933e-20)
(-0.14471 0.00968015 -1.19245e-20)
(-0.147092 0.00910031 3.95488e-20)
(-0.148943 0.00889702 1.31762e-19)
(-0.150392 0.00926471 2.05596e-20)
(-0.000999712 0.0044431 1.52932e-20)
(-0.00430665 0.0112035 -5.56311e-20)
(-0.00995225 0.0162857 7.1791e-20)
(-0.0169343 0.0200169 2.64612e-20)
(-0.0248684 0.0226264 2.07402e-20)
(-0.0334333 0.0243189 2.20589e-20)
(-0.042343 0.0252764 -1.17335e-19)
(-0.0513726 0.0256568 4.36291e-20)
(-0.0603461 0.0255946 4.53865e-20)
(-0.0691279 0.0252017 -6.70589e-20)
(-0.0776157 0.0245677 6.94354e-20)
(-0.0857327 0.0237607 3.79693e-20)
(-0.0934206 0.0228299 4.69583e-20)
(-0.100634 0.021807 -3.18053e-20)
(-0.107333 0.0207102 -7.05686e-21)
(-0.113482 0.0195476 1.54462e-19)
(-0.119043 0.0183217 -6.66832e-20)
(-0.123977 0.0170362 5.16518e-20)
(-0.128241 0.0157027 -1.24955e-19)
(-0.131792 0.014352 -5.0378e-20)
(-0.134591 0.0130455 4.77507e-20)
(-0.136624 0.011891 8.33861e-20)
(-0.137949 0.0110477 1.41249e-20)
(-0.138583 0.0106919 -1.08407e-19)
(-0.138531 0.0110888 -7.60081e-20)
(-0.00123 0.00534891 -6.01568e-20)
(-0.00482589 0.0135008 -1.94214e-20)
(-0.010582 0.0196406 -4.25802e-20)
(-0.0175511 0.0241543 -4.12128e-20)
(-0.0253722 0.0273145 2.95673e-20)
(-0.0337416 0.0293657 -5.28251e-20)
(-0.0423872 0.0305265 -3.42677e-20)
(-0.0510941 0.0309869 -1.70308e-19)
(-0.0596932 0.0309092 7.46968e-21)
(-0.0680533 0.0304289 -1.73293e-21)
(-0.0760746 0.0296544 -1.3057e-19)
(-0.0836812 0.0286688 -4.453e-20)
(-0.0908145 0.0275317 -5.53146e-20)
(-0.0974275 0.0262822 1.07e-19)
(-0.103479 0.0249422 3.08569e-20)
(-0.108931 0.0235212 -8.42323e-20)
(-0.113742 0.0220214 -9.3954e-20)
(-0.117868 0.0204441 2.60499e-20)
(-0.121258 0.0187994 1.03101e-19)
(-0.123858 0.0171174 -2.23018e-20)
(-0.12561 0.0154651 -1.34717e-20)
(-0.126472 0.0139665 -6.3495e-20)
(-0.126479 0.0128202 -8.00203e-20)
(-0.125608 0.012272 6.5395e-20)
(-0.123638 0.0126635 4.42828e-20)
(-0.00149797 0.00620306 3.12321e-20)
(-0.00543202 0.0156766 3.67313e-20)
(-0.0113194 0.0228292 -2.89664e-20)
(-0.0182751 0.0280974 -5.99063e-20)
(-0.0259646 0.0317921 9.32442e-21)
(-0.034104 0.0341942 7.0275e-20)
(-0.0424372 0.0355561 1.01007e-19)
(-0.0507608 0.0360978 1.37927e-19)
(-0.0589136 0.0360085 2.40567e-20)
(-0.0667696 0.0354459 3.17692e-20)
(-0.0742317 0.0345372 3.85505e-20)
(-0.081225 0.03338 1.47569e-19)
(-0.0876902 0.0320445 -8.50903e-21)
(-0.0935786 0.030577 -1.89264e-19)
(-0.0988467 0.0290038 1.36396e-19)
(-0.103452 0.0273359 5.42182e-20)
(-0.107351 0.0255744 1.71743e-19)
(-0.110492 0.0237181 -7.02541e-20)
(-0.112817 0.0217728 -8.09081e-20)
(-0.114261 0.0197649 2.30743e-19)
(-0.114745 0.017761 -7.75037e-20)
(-0.114194 0.0158946 -1.18279e-19)
(-0.112617 0.0144002 -3.15921e-20)
(-0.109966 0.0136091 -9.93102e-20)
(-0.105622 0.0139363 1.6546e-20)
(-0.00179939 0.00699886 7.76719e-21)
(-0.00611634 0.0177143 -1.5272e-20)
(-0.0121548 0.0258278 3.11555e-21)
(-0.0190976 0.0318171 -1.09114e-19)
(-0.0266385 0.0360266 -8.46661e-20)
(-0.0345156 0.0387693 -1.59832e-20)
(-0.0424902 0.0403284 -4.12922e-20)
(-0.0503715 0.0409521 -7.51131e-20)
(-0.0580073 0.0408545 -1.69199e-20)
(-0.0652774 0.0402151 -8.38768e-21)
(-0.0720877 0.0391786 -7.95718e-20)
(-0.0783637 0.0378571 3.44044e-20)
(-0.0840455 0.0363316 2.58909e-20)
(-0.0890817 0.0346559 1.38992e-19)
(-0.0934253 0.0328607 -2.83359e-21)
(-0.0970298 0.0309587 -8.40732e-20)
(-0.0998452 0.0289503 -9.14113e-21)
(-0.101815 0.026831 3.63339e-20)
(-0.102873 0.0246009 1.48947e-19)
(-0.102941 0.0222788 -1.10591e-19)
(-0.101922 0.0199248 2.91148e-19)
(-0.0997044 0.0176728 1.21374e-19)
(-0.0962608 0.0157844 -9.16048e-20)
(-0.0915739 0.0146918 1.77025e-19)
(-0.084344 0.0148577 1.02675e-19)
(-0.00212969 0.00773083 9.51701e-21)
(-0.00686941 0.0196001 4.8221e-20)
(-0.0130777 0.0286157 1.3678e-19)
(-0.0200088 0.0352878 1.70399e-19)
(-0.027386 0.0399882 1.01298e-19)
(-0.0349704 0.0430583 -7.10878e-20)
(-0.0425421 0.0448088 1.73064e-19)
(-0.049924 0.0455137 1.96143e-20)
(-0.0569735 0.0454104 -1.03297e-19)
(-0.0635763 0.0446987 1.13446e-20)
(-0.0696415 0.043541 1.91499e-19)
(-0.0750952 0.0420628 -2.04578e-19)
(-0.0798757 0.0403559 -1.1676e-19)
(-0.0839283 0.038482 -2.37106e-20)
(-0.0872012 0.0364767 -1.91361e-19)
(-0.0896421 0.0343548 -1.2468e-19)
(-0.0911945 0.0321164 2.20989e-20)
(-0.091794 0.0297536 -2.59538e-19)
(-0.0913652 0.0272596 2.59547e-20)
(-0.0898171 0.024643 -1.24108e-19)
(-0.0870374 0.0219512 -1.53638e-19)
(-0.0828789 0.0193083 1.4301e-19)
(-0.0772595 0.0169867 1.60684e-19)
(-0.0703059 0.0155325 -1.24985e-19)
(-0.0596051 0.0154063 1.71841e-19)
(-0.00248413 0.00839479 -1.14441e-19)
(-0.00768128 0.0213225 8.39166e-20)
(-0.0140769 0.0311757 -6.12389e-21)
(-0.020998 0.0384868 3.3548e-20)
(-0.0281981 0.0436501 3.17433e-20)
(-0.0354616 0.047031 1.42403e-19)
(-0.0425881 0.0489643 -1.03319e-19)
(-0.0494148 0.0497476 -1.92544e-19)
(-0.0558093 0.0496399 9.64358e-20)
(-0.0616637 0.0488601 8.99873e-20)
(-0.06689 0.0475867 -3.03728e-19)
(-0.0714144 0.0459591 2.13528e-19)
(-0.0751726 0.0440796 3.24103e-19)
(-0.0781054 0.0420178 2.20805e-20)
(-0.0801548 0.0398146 -5.71282e-20)
(-0.0812605 0.0374878 1.63928e-19)
(-0.0813573 0.0350378 -7.5582e-20)
(-0.0803713 0.0324536 3.38449e-19)
(-0.078216 0.029722 -2.98304e-19)
(-0.0747879 0.0268395 5.4211e-20)
(-0.0699592 0.0238357 -2.8129e-20)
(-0.0635533 0.0208153 -9.14527e-20)
(-0.0553964 0.0180328 -8.86684e-20)
(-0.0459621 0.0161416 7.2993e-20)
(-0.031177 0.0156894 1.87404e-20)
(-0.00285792 0.00898791 7.47441e-20)
(-0.00854178 0.0228733 -5.37959e-20)
(-0.0151407 0.0334937 4.44355e-20)
(-0.022054 0.0413951 -1.49686e-19)
(-0.0290647 0.0469887 -3.30845e-20)
(-0.0359807 0.0506598 1.68169e-20)
(-0.0426213 0.0527645 -3.80573e-20)
(-0.0488384 0.0536211 -6.29754e-20)
(-0.0545099 0.0535083 1.98075e-20)
(-0.0595344 0.0526629 -1.05185e-19)
(-0.0638265 0.051279 1.96083e-19)
(-0.0673119 0.0495086 -4.50554e-20)
(-0.0699227 0.0474648 -1.15099e-19)
(-0.0715935 0.045225 -1.17791e-19)
(-0.072258 0.0428362 1.55931e-19)
(-0.0718459 0.0403199 8.44834e-20)
(-0.0702803 0.0376775 3.36238e-20)
(-0.0674746 0.0348966 -2.82201e-19)
(-0.0633289 0.0319581 2.94033e-19)
(-0.057725 0.0288469 -9.60432e-20)
(-0.0505197 0.0255718 -4.46847e-20)
(-0.0415215 0.0222108 -3.4588e-20)
(-0.0304013 0.0189575 -3.83197e-20)
(-0.0181712 0.0164616 1.23528e-19)
(0.00118012 0.0159777 -2.01954e-19)
(-0.00324637 0.00950875 -2.77712e-20)
(-0.00944076 0.024247 1.20028e-19)
(-0.0162571 0.0355594 -1.71598e-19)
(-0.0231648 0.0439974 6.88112e-20)
(-0.0299749 0.049984 3.79669e-20)
(-0.036518 0.0539206 -5.75197e-20)
(-0.042633 0.0561814 1.67591e-19)
(-0.0481867 0.0571033 4.07069e-20)
(-0.0530671 0.0569827 1.90802e-20)
(-0.057179 0.0560727 1.64509e-19)
(-0.0604393 0.0545818 -6.74133e-20)
(-0.0627721 0.0526745 7.12864e-20)
(-0.0641047 0.050474 -7.57835e-20)
(-0.0643637 0.048066 -4.80693e-21)
(-0.0634717 0.0455037 -8.2597e-20)
(-0.0613456 0.0428132 -2.85721e-19)
(-0.0578932 0.0399983 5.88413e-20)
(-0.0530114 0.0370467 2.28036e-19)
(-0.0465826 0.0339358 -7.86622e-20)
(-0.0384711 0.0306405 3.80446e-19)
(-0.0285135 0.0271492 -2.10986e-19)
(-0.0165332 0.0235093 -6.02787e-20)
(-0.00200975 0.0198352 -1.01251e-19)
(0.0135491 0.0166873 3.12791e-21)
(0.0380463 0.0161161 -9.04916e-20)
(-0.00364505 0.00995718 -8.31603e-20)
(-0.0103684 0.0254408 -1.23726e-19)
(-0.0174143 0.037366 -6.64716e-20)
(-0.024318 0.046282 6.24824e-20)
(-0.0309164 0.0526194 1.95175e-20)
(-0.0370617 0.0567924 1.12745e-20)
(-0.042612 0.0591902 4.30906e-20)
(-0.047448 0.060166 -2.09919e-19)
(-0.051468 0.0600321 6.94068e-20)
(-0.0545825 0.0590565 -1.43726e-19)
(-0.0567098 0.0574609 -5.20985e-20)
(-0.0577712 0.0554215 -7.03233e-20)
(-0.0576873 0.0530714 -1.48901e-19)
(-0.0563743 0.0505044 3.06034e-19)
(-0.0537413 0.0477807 1.73574e-19)
(-0.0496882 0.0449314 4.66819e-20)
(-0.0441036 0.0419645 1.45655e-19)
(-0.0368628 0.0388694 -2.10778e-19)
(-0.0278256 0.0356228 -5.19271e-20)
(-0.0168343 0.0321942 -2.47259e-19)
(-0.00369534 0.0285547 9.52889e-20)
(0.0117282 0.0247286 2.09484e-19)
(0.0302119 0.0207343 9.5762e-20)
(0.0494472 0.0170836 -1.80773e-19)
(0.0802155 0.0159895 2.25783e-19)
(-0.00404992 0.0103344 -2.96435e-20)
(-0.0113153 0.026455 7.74993e-21)
(-0.0186004 0.0389104 8.41778e-20)
(-0.0255006 0.0482412 1.50292e-19)
(-0.0318757 0.0548824 -1.00595e-19)
(-0.037598 0.0592578 9.70025e-20)
(-0.0425433 0.0617694 -7.60973e-20)
(-0.0466063 0.0627842 2.87477e-19)
(-0.0496943 0.0626287 -2.01501e-19)
(-0.0517228 0.0615842 4.33478e-20)
(-0.0526103 0.0598846 1.8703e-19)
(-0.0522738 0.057717 -2.58037e-20)
(-0.0506249 0.0552237 2.00765e-20)
(-0.0475668 0.0525071 -2.48789e-19)
(-0.0429914 0.0496342 -2.10831e-19)
(-0.0367776 0.0466424 -8.04702e-21)
(-0.0287898 0.0435447 -2.32196e-19)
(-0.018876 0.0403349 8.49418e-20)
(-0.00686715 0.0369921 -1.18303e-19)
(0.00742037 0.0334849 1.54775e-19)
(0.0242286 0.0297752 -2.08967e-19)
(0.0436011 0.0258738 1.25484e-19)
(0.0667691 0.0216861 -1.04838e-19)
(0.0899606 0.0177124 1.41994e-19)
(0.128315 0.0159766 -8.29837e-21)
(-0.00445743 0.0106427 1.62374e-19)
(-0.0122729 0.0272923 4.12027e-20)
(-0.0198039 0.0401925 -9.32444e-20)
(-0.0266989 0.0498709 -1.11905e-19)
(-0.0328376 0.0567642 7.5517e-20)
(-0.03811 0.0613034 -2.76838e-19)
(-0.0424082 0.0639009 3.94603e-19)
(-0.0456396 0.0649361 7.67609e-20)
(-0.0477199 0.0647477 1.27205e-19)
(-0.048568 0.0636288 1.55413e-19)
(-0.0481012 0.0618246 9.79374e-20)
(-0.0462298 0.0595318 -7.33784e-20)
(-0.0428541 0.0569021 -2.47677e-21)
(-0.0378606 0.0540458 -3.588e-20)
(-0.0311201 0.0510373 -1.07099e-19)
(-0.0224856 0.047921 2.39969e-19)
(-0.011792 0.0447166 4.89204e-19)
(0.00114569 0.0414239 2.91488e-20)
(0.0165325 0.0380278 1.68768e-19)
(0.0345798 0.0345013 -8.77732e-20)
(0.0556057 0.030806 1.06344e-19)
(0.0794695 0.0269469 -6.2416e-19)
(0.108173 0.0227572 2.96342e-19)
(0.135582 0.0186135 1.82968e-19)
(0.183002 0.0164172 -1.21674e-19)
(-0.00486458 0.0108855 -9.7381e-20)
(-0.0132332 0.0279579 -1.67423e-19)
(-0.0210134 0.0412157 1.60621e-19)
(-0.0278988 0.0511708 1.05205e-19)
(-0.033785 0.0582598 5.65741e-20)
(-0.0385772 0.0629194 2.00223e-19)
(-0.0421825 0.065571 -2.07758e-19)
(-0.044519 0.0666042 -1.91568e-19)
(-0.0455095 0.0663687 -1.25743e-19)
(-0.0450746 0.0651681 -2.9521e-19)
(-0.043128 0.0632573 5.70797e-20)
(-0.0395709 0.0608424 -2.32805e-20)
(-0.0342886 0.0580836 4.2065e-19)
(-0.0271472 0.0550993 1.73204e-19)
(-0.0179914 0.0519718 1.24485e-19)
(-0.00664374 0.0487531 -3.91173e-20)
(0.00709652 0.0454709 -2.24235e-19)
(0.0234528 0.0421333 -1.81576e-19)
(0.0426726 0.0387341 -2.12426e-19)
(0.064992 0.0352544 1.52109e-19)
(0.0908439 0.0316679 2.86722e-19)
(0.119761 0.0279646 3.20632e-19)
(0.154953 0.0240238 -3.02186e-19)
(0.186769 0.0198497 1.30151e-19)
(0.24488 0.0176047 1.74526e-19)
(-0.00526901 0.0110671 -2.56456e-19)
(-0.0141893 0.0284587 1.4275e-19)
(-0.0222179 0.0419858 -2.4346e-19)
(-0.0290849 0.0521435 2.99183e-19)
(-0.034698 0.0593679 -2.85888e-19)
(-0.038975 0.0641004 -8.55709e-20)
(-0.0418355 0.06677 -1.5943e-19)
(-0.0432068 0.0677756 8.96387e-20)
(-0.0430162 0.0674762 -1.53469e-19)
(-0.0411842 0.0661848 1.67827e-19)
(-0.0376177 0.0641652 -2.2011e-19)
(-0.0322056 0.061632 -1.63255e-19)
(-0.0248139 0.0587536 5.69207e-21)
(-0.0152837 0.0556565 -2.50562e-19)
(-0.00342878 0.0524315 5.31135e-21)
(0.0109649 0.0491394 -2.53556e-19)
(0.0281386 0.0458171 -1.55513e-20)
(0.0483587 0.0424833 -2.7652e-19)
(0.0719201 0.0391436 9.66502e-20)
(0.0990714 0.0357884 4.20666e-19)
(0.13041 0.0324242 -4.04636e-19)
(0.16494 0.0289749 1.98713e-19)
(0.207624 0.0255959 2.18233e-19)
(0.243923 0.0214831 -1.04689e-19)
(0.314335 0.019811 4.21221e-20)
(-0.00566899 0.0111923 1.32903e-19)
(-0.0151349 0.0288035 -3.74938e-20)
(-0.0234061 0.0425113 8.25504e-20)
(-0.0302407 0.0527951 -2.40671e-19)
(-0.0355539 0.0600909 3.85658e-19)
(-0.0392735 0.0648448 2.51439e-20)
(-0.041329 0.067493 2.78711e-19)
(-0.0416545 0.0684425 -1.45398e-19)
(-0.0401796 0.0680606 9.85164e-20)
(-0.0368208 0.0666686 1.29601e-19)
(-0.0314753 0.0645385 1.18788e-19)
(-0.024015 0.0618928 3.75816e-19)
(-0.0142822 0.058908 -9.50945e-20)
(-0.00208728 0.0557193 -9.57608e-20)
(0.0127924 0.0524265 -7.49858e-20)
(0.0306126 0.0491003 -6.64674e-21)
(0.0516594 0.0457892 -1.57823e-19)
(0.0762438 0.0425236 1.39391e-19)
(0.10471 0.0393252 -1.87018e-19)
(0.137295 0.0361902 7.67503e-20)
(0.174814 0.0331936 -1.09034e-19)
(0.215488 0.0300748 1.40534e-20)
(0.26662 0.0276381 -5.11063e-19)
(0.307352 0.0235977 5.45945e-20)
(0.391363 0.0232683 -1.66896e-21)
(-0.00606339 0.0112665 1.77225e-19)
(-0.0160645 0.029002 -1.19601e-19)
(-0.0245669 0.0428024 -8.43108e-20)
(-0.0313476 0.0531341 -5.09425e-20)
(-0.0363261 0.0604346 -1.66766e-19)
(-0.0394365 0.0651556 -2.81418e-19)
(-0.0406158 0.0677402 -9.18367e-20)
(-0.0398017 0.0686029 3.14147e-19)
(-0.0369226 0.0681189 -9.80942e-20)
(-0.0318878 0.066617 -2.12032e-19)
(-0.0245799 0.0643766 -1.28075e-19)
(-0.0148486 0.0616281 -3.84319e-19)
(-0.00250698 0.0585564 -4.18652e-19)
(0.0126708 0.0553058 3.14451e-19)
(0.0309496 0.0519863 6.4675e-20)
(0.052631 0.0486807 5.16898e-20)
(0.0780479 0.0454501 5.4039e-19)
(0.107553 0.0423397 8.22371e-20)
(0.141535 0.0393905 5.1838e-19)
(0.180181 0.0365945 -6.20938e-19)
(0.224562 0.0341549 2.90347e-19)
(0.271861 0.0314263 -2.6252e-19)
(0.33218 0.0303647 4.11576e-19)
(0.377213 0.0263425 -6.18039e-19)
(0.475397 0.0281459 1.28405e-19)
(-0.00645162 0.0112952 -4.49335e-20)
(-0.016973 0.0290647 -9.55483e-20)
(-0.0256881 0.0428708 -8.80611e-20)
(-0.032385 0.0531712 3.00019e-20)
(-0.0369831 0.060408 -4.7247e-20)
(-0.0394206 0.0650396 1.78166e-19)
(-0.0396378 0.0675167 -6.38027e-20)
(-0.0375733 0.0682614 -1.34679e-19)
(-0.03315 0.0676561 -5.51505e-20)
(-0.0262651 0.0660367 2.76725e-21)
(-0.0167811 0.0636901 3.53526e-19)
(-0.00452012 0.0608547 -3.1016e-19)
(0.0107405 0.0577243 4.51057e-19)
(0.0292685 0.0544536 -1.30527e-19)
(0.0513754 0.0511646 -2.27209e-19)
(0.0774104 0.0479535 1.88187e-19)
(0.107751 0.0448971 -2.06389e-19)
(0.142779 0.0420563 -3.4872e-19)
(0.182914 0.0394965 -1.29931e-19)
(0.228243 0.0371856 1.22131e-19)
(0.280084 0.0355365 1.94981e-19)
(0.334402 0.033264 3.78242e-19)
(0.404202 0.0340044 2.19048e-20)
(0.453387 0.0299534 2.61731e-19)
(0.565137 0.034533 -8.48209e-20)
(-0.0068335 0.0112839 -2.20162e-20)
(-0.0178553 0.0290024 2.09032e-19)
(-0.0267566 0.042729 2.15859e-19)
(-0.0333288 0.052919 -9.67977e-20)
(-0.0374884 0.060023 6.79608e-20)
(-0.0391736 0.0645081 -2.52855e-19)
(-0.0383254 0.0668335 5.02983e-20)
(-0.0348784 0.0674295 4.06012e-20)
(-0.0287454 0.0666856 -1.18446e-19)
(-0.019806 0.0649453 -3.26218e-20)
(-0.00789659 0.0625027 -4.43177e-19)
(0.00719529 0.0596052 1.40998e-19)
(0.0257338 0.0564566 -2.12755e-20)
(0.0480336 0.0532236 -5.02193e-21)
(0.0744548 0.0500422 -2.04678e-20)
(0.105392 0.0470244 -4.03208e-21)
(0.141255 0.0442643 -1.80537e-20)
(0.182437 0.0418392 2.41997e-19)
(0.229349 0.0398438 -2.15005e-19)
(0.28192 0.0381928 1.95833e-19)
(0.341628 0.0375933 -2.88704e-19)
(0.40322 0.035888 -1.39108e-19)
(0.482102 0.0387491 4.01292e-20)
(0.535316 0.0347238 -2.24303e-19)
(0.658478 0.0424203 -7.32588e-20)
(-0.00720908 0.0112377 -2.09173e-19)
(-0.0187065 0.0288254 -2.63291e-20)
(-0.0277576 0.0423898 -2.6678e-19)
(-0.0341516 0.0523916 -2.14465e-19)
(-0.0377986 0.0592941 2.84177e-19)
(-0.038634 0.0635762 1.94684e-19)
(-0.0365952 0.0657073 -8.5988e-20)
(-0.0316081 0.0661263 -7.70485e-20)
(-0.02357 0.0652309 -5.74005e-20)
(-0.012336 0.0633721 4.95936e-19)
(0.00229024 0.0608528 1.90778e-19)
(0.0205621 0.0579301 2.69479e-19)
(0.0427906 0.0548197 -1.49134e-20)
(0.06934 0.0517024 5.23404e-20)
(0.100616 0.0487301 1.4507e-19)
(0.137049 0.0460327 -3.4029e-19)
(0.17906 0.043723 5.37579e-19)
(0.227011 0.0418929 5.67961e-20)
(0.281249 0.0406683 -1.75112e-19)
(0.341486 0.0398811 -2.64285e-19)
(0.409145 0.0405732 -1.42843e-19)
(0.478032 0.0396302 3.18348e-19)
(0.564719 0.0447116 -1.05787e-20)
(0.621815 0.0409213 1.66614e-19)
(0.752577 0.051674 1.99905e-19)
(-0.00757846 0.0111613 1.59568e-19)
(-0.0195204 0.0285431 1.67061e-20)
(-0.0286741 0.0418657 -3.60545e-20)
(-0.0348212 0.0516035 3.78352e-20)
(-0.0378632 0.0582382 -2.7031e-19)
(-0.0377296 0.0622632 3.60105e-19)
(-0.0343495 0.0641604 -8.6496e-22)
(-0.0276347 0.0643789 2.93633e-19)
(-0.0174606 0.0633255 1.25364e-20)
(-0.00365106 0.0613599 -1.00595e-19)
(0.0140301 0.0587952 1.58502e-19)
(0.0358828 0.0558999 -5.3257e-19)
(0.0622684 0.0529039 -3.28507e-19)
(0.0935984 0.0500041 -1.63775e-19)
(0.130315 0.0473707 -7.06661e-20)
(0.17286 0.0451521 6.39514e-21)
(0.221629 0.043479 -3.48645e-19)
(0.276897 0.0424532 1.32484e-19)
(0.33885 0.0422259 5.09428e-19)
(0.406928 0.0425301 1.40127e-19)
(0.482186 0.0446861 3.39062e-19)
(0.557996 0.0447897 -3.3526e-19)
(0.650307 0.0519053 -7.80907e-20)
(0.710947 0.0486828 -1.32762e-19)
(0.84412 0.0620113 -7.00381e-19)
(-0.00794155 0.0110585 -1.49572e-19)
(-0.0202901 0.028164 7.5865e-20)
(-0.0294855 0.0411683 1.34937e-19)
(-0.0353002 0.0505705 4.69459e-19)
(-0.0376238 0.0568741 1.76811e-19)
(-0.0363766 0.0605921 -3.92788e-19)
(-0.031475 0.0622214 -9.91377e-20)
(-0.0228107 0.062223 -5.20457e-20)
(-0.01023 0.0610143 -1.71517e-19)
(0.0064814 0.0589658 -5.61956e-20)
(0.0276057 0.0564022 -1.16322e-19)
(0.0534935 0.0536064 4.24971e-19)
(0.0845547 0.0508244 5.07666e-19)
(0.121239 0.0482714 2.55611e-19)
(0.164005 0.0461367 -1.30583e-19)
(0.213266 0.0445865 -9.15756e-20)
(0.269335 0.0437646 2.01517e-19)
(0.332315 0.0437737 -4.55538e-20)
(0.402116 0.0447713 -3.37599e-21)
(0.477839 0.0464001 1.10692e-19)
(0.559818 0.0500816 -1.58619e-19)
(0.641615 0.0515493 -2.75226e-19)
(0.736634 0.060239 -1.83843e-19)
(0.800068 0.0579351 2.32586e-19)
(0.929745 0.0729985 7.36081e-19)
(-0.00829778 0.0109321 1.1938e-19)
(-0.0210068 0.0276945 4.06152e-19)
(-0.0301681 0.0403089 1.62484e-19)
(-0.0355448 0.0493077 -1.43953e-19)
(-0.0370127 0.055222 2.00964e-19)
(-0.0344792 0.0585895 2.21407e-19)
(-0.0278428 0.0599246 2.48341e-19)
(-0.0169689 0.0597026 -1.39716e-20)
(-0.0016674 0.0583537 1.95502e-19)
(0.0183205 0.0562613 -6.02299e-19)
(0.0433275 0.0537647 3.40967e-19)
(0.0737545 0.051163 -1.81397e-19)
(0.110052 0.048721 -4.58773e-19)
(0.15269 0.0466734 -3.33333e-19)
(0.202102 0.0452275 5.4399e-19)
(0.258621 0.0445625 -1.86648e-19)
(0.322388 0.0448256 -9.20501e-20)
(0.393235 0.0461058 7.09675e-20)
(0.470651 0.0485305 -3.59022e-19)
(0.553334 0.0516868 2.91784e-19)
(0.640608 0.0568314 -4.70778e-20)
(0.726753 0.0599082 3.42063e-19)
(0.821162 0.0695132 3.96138e-19)
(0.886086 0.0683774 -1.3561e-19)
(1.00651 0.0840891 -2.69303e-19)
(-0.00864579 0.0107839 -6.22558e-20)
(-0.0216583 0.027139 -2.30387e-19)
(-0.0306945 0.0392977 6.08667e-21)
(-0.0355048 0.0478297 -1.16398e-19)
(-0.0359531 0.0533039 -3.43154e-19)
(-0.0319291 0.0562858 -1.77575e-19)
(-0.0233082 0.0573106 9.77305e-20)
(-0.00992292 0.0568707 -3.04944e-19)
(0.00845941 0.0554119 2.40807e-20)
(0.0321474 0.0533334 1.50247e-19)
(0.0615251 0.0509915 -4.32233e-19)
(0.0970373 0.0487046 -1.42312e-19)
(0.139158 0.046757 3.67475e-19)
(0.188339 0.0454024 2.48673e-19)
(0.24494 0.0448617 -3.22033e-19)
(0.309127 0.0453174 3.46189e-19)
(0.380764 0.0469032 1.44292e-19)
(0.459288 0.0496725 -3.63655e-20)
(0.543636 0.0536731 -3.13822e-20)
(0.632016 0.0584768 -3.10052e-19)
(0.722653 0.064911 3.42075e-20)
(0.810803 0.0696584 -5.83432e-20)
(0.901303 0.0794193 -3.10071e-19)
(0.965906 0.0795355 -2.28379e-19)
(1.07227 0.0947022 -2.1223e-19)
(-0.00898363 0.0106144 -3.91706e-20)
(-0.0222306 0.0265014 -5.12347e-19)
(-0.0310303 0.0381418 -3.167e-19)
(-0.0351232 0.0461509 -4.03975e-19)
(-0.0343583 0.0511426 3.57228e-19)
(-0.0286055 0.0537143 2.87851e-20)
(-0.0177117 0.0544254 2.59161e-19)
(-0.00146997 0.0537888 -2.37126e-19)
(0.0204 0.0522688 3.94754e-19)
(0.0482584 0.0502835 1.48033e-19)
(0.0825361 0.0482093 1.20815e-20)
(0.123706 0.0463849 -2.3264e-20)
(0.172234 0.0451147 -8.21988e-20)
(0.228505 0.0446667 -7.15157e-20)
(0.292719 0.0452663 7.66367e-20)
(0.364777 0.0470828 1.08514e-19)
(0.444141 0.0502104 -6.90236e-19)
(0.529722 0.0546386 4.32148e-20)
(0.619803 0.0602825 -1.14061e-19)
(0.712044 0.0667183 -1.05553e-19)
(0.803703 0.0741801 5.30556e-20)
(0.890998 0.0804123 -3.43292e-19)
(0.974715 0.0895624 1.55824e-19)
(1.03692 0.090872 1.97543e-19)
(1.12588 0.104316 -4.48414e-19)
(-0.00930759 0.0104233 9.15498e-20)
(-0.0227068 0.0257826 3.70859e-19)
(-0.0311367 0.0368463 3.19374e-20)
(-0.0343346 0.0442852 5.87096e-19)
(-0.0321322 0.0487625 -3.72667e-19)
(-0.0243764 0.0509117 3.65323e-19)
(-0.0108804 0.0513209 -3.27679e-19)
(0.00860666 0.0505267 1.2913e-19)
(0.0344157 0.0490154 -1.66799e-19)
(0.0669555 0.0472271 2.20246e-19)
(0.106691 0.04556 3.65423e-19)
(0.154096 0.0443741 1.89412e-19)
(0.209579 0.0439899 7.59088e-20)
(0.273384 0.0446814 8.29652e-20)
(0.345454 0.0466622 -6.31603e-20)
(0.425298 0.0500638 -5.0797e-20)
(0.511847 0.0549074 5.63154e-19)
(0.603379 0.061083 1.85286e-19)
(0.697483 0.0683311 5.13157e-19)
(0.791269 0.0762176 1.33652e-20)
(0.881376 0.0843784 -3.2326e-19)
(0.964783 0.0916634 4.02621e-19)
(1.0396 0.0995259 5.06953e-19)
(1.09732 0.10192 6.5492e-20)
(1.16712 0.112525 4.40938e-19)
(-0.00961249 0.0102088 -2.59809e-19)
(-0.0230649 0.0249808 1.44013e-19)
(-0.0309696 0.0354161 3.16511e-19)
(-0.0330663 0.0422461 -1.24501e-19)
(-0.0291691 0.0461885 -3.70801e-19)
(-0.0190987 0.0479179 -2.73763e-20)
(-0.00263074 0.0480545 2.00521e-20)
(0.0205329 0.0471624 3.59741e-20)
(0.0507721 0.0457533 -2.30796e-19)
(0.0885344 0.0442916 -9.7803e-20)
(0.134295 0.0431987 -3.41301e-19)
(0.188485 0.0428531 -8.44763e-21)
(0.25139 0.0435838 -9.60052e-20)
(0.323014 0.0456559 -2.91048e-20)
(0.402925 0.049247 2.54622e-19)
(0.49011 0.0544178 -3.73124e-19)
(0.582856 0.0610775 1.57119e-19)
(0.678743 0.0689785 -2.48462e-19)
(0.774716 0.0776667 -3.7094e-19)
(0.86745 0.0866611 6.85569e-20)
(0.953418 0.0951446 6.89657e-19)
(1.03017 0.102862 -3.49339e-19)
(1.09489 0.108976 1.51759e-20)
(1.14624 0.112365 3.02394e-19)
(1.19661 0.118957 1.69476e-19)
(-0.00989117 0.00996763 1.22346e-19)
(-0.0232792 0.0240932 -1.73816e-19)
(-0.0304784 0.0338545 -3.68474e-19)
(-0.0312381 0.0400467 -1.95778e-19)
(-0.025355 0.0434471 2.14046e-19)
(-0.012621 0.0447759 7.28809e-20)
(0.00722858 0.044689 4.25982e-19)
(0.0345384 0.0437813 1.72817e-19)
(0.06973 0.0425932 1.09242e-19)
(0.113271 0.0416149 5.0943e-20)
(0.165608 0.0412895 3.52871e-19)
(0.22707 0.0420075 1.59602e-19)
(0.297728 0.0440931 -1.32153e-19)
(0.377233 0.0477798 1.89081e-19)
(0.464648 0.0531764 -1.08993e-19)
(0.558317 0.0602335 1.38406e-19)
(0.65581 0.0687083 -1.34347e-19)
(0.754032 0.0781839 -2.92481e-19)
(0.849433 0.0880186 4.25218e-19)
(0.938497 0.0976575 -4.44556e-19)
(1.01799 0.106059 1.2564e-19)
(1.08598 0.113503 -1.45139e-19)
(1.14032 0.117765 -1.09578e-19)
(1.18359 0.121918 -9.02597e-19)
(1.21574 0.123048 1.44014e-19)
(-0.0101348 0.00969679 2.49718e-20)
(-0.0233191 0.0231157 1.24612e-19)
(-0.0296064 0.0321634 4.13459e-19)
(-0.0287627 0.0376999 -9.75443e-20)
(-0.0205682 0.0405663 -4.24901e-20)
(-0.00478478 0.0415319 7.9077e-20)
(0.0188924 0.0412921 7.04979e-20)
(0.0508497 0.0404759 -2.77523e-19)
(0.091535 0.0396539 -1.28918e-19)
(0.141403 0.0393422 -3.97916e-19)
(0.200822 0.0400005 -3.00459e-19)
(0.269933 0.0420198 -2.14283e-19)
(0.348486 0.0456986 1.91423e-19)
(0.43565 0.0512073 -2.79498e-19)
(0.529858 0.0585466 -1.34567e-19)
(0.628726 0.0675144 -5.89031e-20)
(0.729108 0.077683 -4.25426e-20)
(0.827352 0.0884528 8.75607e-19)
(0.919669 0.0990272 5.56435e-20)
(1.0027 0.108791 -7.70165e-20)
(1.07385 0.116695 -4.34215e-19)
(1.1319 0.123223 1.41027e-19)
(1.17623 0.125907 1.46761e-20)
(1.2101 0.129915 5.1855e-19)
(1.22722 0.124412 5.80736e-20)
(-0.0103332 0.00939213 1.97762e-19)
(-0.02315 0.022043 -1.90213e-19)
(-0.0282907 0.0303446 -2.88879e-19)
(-0.0255462 0.0352195 2.90099e-19)
(-0.0146811 0.0375759 -6.4745e-20)
(0.00457199 0.0382359 -5.61051e-20)
(0.0325545 0.037937 4.89625e-20)
(0.0696826 0.0373449 -7.00379e-20)
(0.116405 0.0370608 1.75685e-19)
(0.17312 0.0376232 1.13928e-19)
(0.240039 0.0394988 2.95155e-19)
(0.31702 0.0430608 -7.91372e-21)
(0.403365 0.0485527 2.42005e-19)
(0.497635 0.0560427 -1.62397e-20)
(0.597529 0.0653797 2.58374e-19)
(0.699915 0.0761708 7.52049e-20)
(0.801024 0.0877864 -4.85625e-19)
(0.896876 0.0994574 -2.36758e-19)
(0.983774 0.110292 -5.76476e-20)
(1.05888 0.119671 1.56222e-19)
(1.12051 0.126683 -7.41039e-20)
(1.16834 0.131879 -2.63326e-19)
(1.2033 0.133313 3.46473e-20)
(1.22728 0.135488 -2.43155e-19)
(1.24065 0.129452 -1.17731e-19)
(-0.0104737 0.00904886 1.21168e-19)
(-0.0227329 0.02087 1.29379e-19)
(-0.0264632 0.0284004 2.37076e-19)
(-0.0214889 0.0326207 -1.72679e-19)
(-0.00756169 0.0345088 1.26391e-20)
(0.0156122 0.0349421 3.45854e-19)
(0.048402 0.0347024 -9.91056e-20)
(0.0912339 0.0344928 -3.30793e-19)
(0.14452 0.0349435 -1.96013e-19)
(0.208536 0.0366077 2.62135e-19)
(0.283251 0.0399436 -5.46203e-19)
(0.368119 0.0452798 2.15499e-21)
(0.461863 0.0527673 -4.68589e-20)
(0.562322 0.0623276 3.47025e-19)
(0.66642 0.0736155 -1.8877e-19)
(0.77033 0.0860223 2.59424e-19)
(0.869864 0.0987245 2.62417e-19)
(0.961025 0.110828 -4.63334e-19)
(1.04057 0.121423 -1.93382e-19)
(1.10648 0.129971 -1.60559e-19)
(1.15813 0.135772 2.45127e-19)
(1.19621 0.139491 3.88195e-19)
(1.22248 0.139616 1.80666e-19)
(1.23903 0.140245 -1.60646e-19)
(1.24816 0.133851 -2.8982e-19)
(-0.0105417 0.00866241 -2.86323e-20)
(-0.0220245 0.0195918 1.2118e-19)
(-0.0240506 0.0263343 -2.40769e-19)
(-0.0164868 0.0299212 -3.69673e-19)
(0.000924139 0.0314012 -5.47786e-19)
(0.0284959 0.0317092 9.33524e-20)
(0.06661 0.031672 -1.10073e-19)
(0.115672 0.0320292 1.61333e-19)
(0.176006 0.0334342 5.99744e-20)
(0.247685 0.0364421 1.15739e-19)
(0.330324 0.0414792 1.28626e-19)
(0.422844 0.0487948 -7.10173e-20)
(0.523272 0.0584029 -1.0275e-19)
(0.62865 0.0700325 -2.30877e-19)
(0.735148 0.0831115 7.04487e-20)
(0.838411 0.0968129 -2.75772e-19)
(0.934116 0.110157 1.01709e-19)
(1.01861 0.122194 6.56769e-20)
(1.08941 0.132091 -2.73193e-19)
(1.14554 0.139458 -2.94505e-19)
(1.18741 0.143857 -1.57671e-19)
(1.21661 0.146071 8.98035e-21)
(1.23548 0.144969 4.92314e-20)
(1.24617 0.144318 -1.58536e-19)