/*--------------------------------*- C++ -*----------------------------------*\
  =========                 |
  \\      /  F ield         | OpenFOAM: The Open Source CFD Toolbox
   \\    /   O peration     | Website:  https://openfoam.org
    \\  /    A nd           | Version:  7
     \\/     M anipulation  |
\*---------------------------------------------------------------------------*/
FoamFile
{
    version     2.0;
    format      ascii;
    class       volScalarField;
    location    "115";
    object      p;
}
// * * * * * * * * * * * * * * * * * * * * * * * * * * * * * * * * * * * * * //

dimensions      [0 2 -2 0 0 0 0];

internalField   nonuniform List<scalar> 
1987
(
-0.397182
-0.361663
-0.324705
-0.288769
-0.0153882
-0.0205032
-0.0286119
-0.0393241
-0.0520778
-0.0661369
-0.0806554
-0.094672
-0.107184
-0.117501
-0.124663
-0.128484
-0.128858
-0.12595
-0.120192
-0.112147
-0.102428
-0.0916323
-0.0802946
-0.0688615
-0.0576792
-0.0469972
-0.0369804
-0.0277235
-0.0192661
-0.0116097
-0.00473085
0.00140986
0.00685754
0.0116471
0.0157978
0.0193162
0.0221826
0.0243352
0.0257124
0.0263526
0.0264281
0.0262615
0.0247227
0.0230239
0.0206211
0.0172896
0.0129029
0.00739208
0.00066266
-0.00754218
-0.0177764
-0.0308928
-0.0476567
-0.0679701
-0.0903144
-0.111767
-0.128412
-0.13617
-0.132803
-0.119773
-0.0200404
-0.0242433
-0.0311401
-0.0403797
-0.0514463
-0.0636506
-0.0762318
-0.0883697
-0.0990036
-0.107952
-0.114151
-0.117375
-0.117571
-0.114896
-0.109706
-0.102471
-0.0937068
-0.0839213
-0.0735779
-0.0630701
-0.0527105
-0.0427324
-0.0332958
-0.0244995
-0.016393
-0.00898987
-0.00227927
0.0037664
0.00917965
0.0139874
0.0182129
0.0218732
0.0249468
0.0273446
0.0289521
0.0297394
0.0297793
0.0290675
0.0281838
0.0265788
0.0242135
0.0209387
0.0166517
0.0113041
0.00481807
-0.00305245
-0.0128579
-0.0254588
-0.041642
-0.061379
-0.0832675
-0.104408
-0.12069
-0.128129
-0.125175
-0.112818
-0.0246636
-0.0280291
-0.0337523
-0.0415161
-0.0508607
-0.0611868
-0.071842
-0.082149
-0.0912883
-0.0987948
-0.104011
-0.106704
-0.106807
-0.104421
-0.0998161
-0.0933693
-0.0855067
-0.0766601
-0.0672322
-0.0575734
-0.0479699
-0.0386414
-0.029745
-0.0213833
-0.0136139
-0.00646104
7.52116e-05
0.00601165
0.0113709
0.0161726
0.0204372
0.0241824
0.0273873
0.0299549
0.0317433
0.0326742
0.0327991
0.032203
0.0311931
0.029536
0.0271731
0.0239484
0.0197472
0.0145139
0.00818164
0.000540338
-0.00890487
-0.0209501
-0.0363354
-0.0550555
-0.0757992
-0.0958215
-0.111374
-0.119019
-0.116737
-0.105206
-0.0287062
-0.0312797
-0.0359091
-0.0423143
-0.0500951
-0.0587433
-0.0677064
-0.0763914
-0.0840932
-0.0903708
-0.0947469
-0.0969773
-0.0969763
-0.0948081
-0.0906806
-0.0848977
-0.077813
-0.0697926
-0.0611851
-0.0523
-0.0433963
-0.0346781
-0.0262965
-0.018355
-0.0109169
-0.00401477
0.00234209
0.00816083
0.0134558
0.0182398
0.022526
0.0263278
0.0296283
0.0323391
0.0343153
0.0354502
0.0357458
0.0352544
0.0341838
0.0324953
0.0301212
0.0269247
0.0227957
0.0176794
0.0115205
0.00413956
-0.0049121
-0.0163668
-0.030904
-0.0485156
-0.0680126
-0.086978
-0.102093
-0.109888
-0.107987
-0.0972709
0.0380259
0.0370051
0.0353387
0.032988
0.0298508
0.0258332
0.0208878
0.0149713
0.00792527
-0.00066725
-0.0114889
-0.0251666
-0.041699
-0.0600516
-0.0780888
-0.0926672
-0.100296
-0.0987922
-0.0889027
-0.379257
-0.346413
-0.312331
-0.279304
-0.249268
-0.223602
-0.203108
-0.188139
-0.178826
-0.17529
-0.177676
-0.185869
-0.199027
-0.215264
-0.231784
-0.245438
-0.253385
-0.253587
-0.245224
-0.228907
-0.206697
-0.1816
-0.156693
-0.134339
-0.115855
-0.101646
-0.0915487
-0.0851768
-0.0821304
-0.0820959
-0.0849161
-0.0906826
-0.099758
-0.112512
-0.128704
-0.146865
-0.164224
-0.177371
-0.183349
-0.180681
-0.17003
-0.153787
-0.135131
-0.116888
-0.10089
-0.0879592
-0.0782546
-0.0716392
-0.0678909
-0.0668268
-0.068454
-0.0730808
-0.0811316
-0.092574
-0.106309
-0.120043
-0.130831
-0.136035
-0.134301
-0.126161
-0.359318
-0.32931
-0.29824
-0.268251
-0.241115
-0.218111
-0.200014
-0.187219
-0.179952
-0.178451
-0.182915
-0.193166
-0.20818
-0.225857
-0.243258
-0.257215
-0.264949
-0.264512
-0.255156
-0.237575
-0.213948
-0.187424
-0.161196
-0.137681
-0.118192
-0.1031
-0.0922039
-0.0850785
-0.081294
-0.0805119
-0.0825461
-0.0874466
-0.09553
-0.107155
-0.122144
-0.139165
-0.155613
-0.168236
-0.174181
-0.171991
-0.162266
-0.14722
-0.129839
-0.1128
-0.0978564
-0.0858206
-0.0768808
-0.07094
-0.0678137
-0.0673535
-0.0696089
-0.0749382
-0.0838022
-0.0961646
-0.110868
-0.125508
-0.136991
-0.142535
-0.140692
-0.13201
-0.337519
-0.310467
-0.282476
-0.255598
-0.231422
-0.211126
-0.195473
-0.184907
-0.179762
-0.180379
-0.186985
-0.199305
-0.21612
-0.235132
-0.253308
-0.267501
-0.275018
-0.274009
-0.263772
-0.245069
-0.220184
-0.192393
-0.164992
-0.140439
-0.120043
-0.104142
-0.0924976
-0.0846543
-0.0801556
-0.0786403
-0.079896
-0.0839322
-0.0910187
-0.1015
-0.115261
-0.131112
-0.146629
-0.158725
-0.164658
-0.162974
-0.154205
-0.140376
-0.124287
-0.108462
-0.0945804
-0.0834458
-0.0752747
-0.0700107
-0.0675055
-0.0676453
-0.0705212
-0.0765399
-0.0861986
-0.0994616
-0.115122
-0.130669
-0.142867
-0.148787
-0.146877
-0.137694
-0.289983
-0.26507
-0.241336
-0.220136
-0.202568
-0.189392
-0.181116
-0.178177
-0.180999
-0.189804
-0.204185
-0.222726
-0.242965
-0.261816
-0.276195
-0.28351
-0.282009
-0.271019
-0.251353
-0.225384
-0.1965
-0.168084
-0.142629
-0.121431
-0.104798
-0.0924614
-0.0839398
-0.0787546
-0.0765252
-0.0770153
-0.0801963
-0.0862909
-0.095625
-0.108144
-0.122805
-0.137375
-0.148937
-0.154865
-0.153703
-0.145903
-0.133297
-0.118501
-0.103891
-0.091072
-0.0808381
-0.0734348
-0.068845
-0.0669561
-0.0676877
-0.0711711
-0.0778597
-0.0882867
-0.102422
-0.119018
-0.135469
-0.148401
-0.154736
-0.152809
-0.143175
-0.267971
-0.246066
-0.225476
-0.207236
-0.192399
-0.181733
-0.175814
-0.175172
-0.180286
-0.191329
-0.207744
-0.227921
-0.249273
-0.268709
-0.283236
-0.290386
-0.288476
-0.276869
-0.256408
-0.22954
-0.199748
-0.170486
-0.14427
-0.122381
-0.105098
-0.0921287
-0.0829716
-0.0771311
-0.0742108
-0.0739534
-0.0762951
-0.0814119
-0.0896071
-0.100881
-0.11434
-0.127949
-0.138969
-0.144886
-0.14425
-0.137415
-0.126024
-0.112512
-0.0991077
-0.0873428
-0.078003
-0.0713616
-0.0674392
-0.0661576
-0.0674684
-0.0715412
-0.0788734
-0.0900346
-0.105005
-0.122508
-0.139852
-0.153534
-0.160326
-0.158441
-0.148418
-0.244575
-0.225545
-0.208075
-0.192751
-0.18064
-0.172522
-0.169036
-0.170784
-0.178263
-0.191563
-0.209959
-0.231669
-0.254017
-0.273952
-0.288602
-0.295626
-0.293404
-0.281318
-0.260234
-0.232657
-0.202148
-0.172216
-0.145387
-0.122921
-0.105074
-0.091534
-0.0817867
-0.0753252
-0.0717409
-0.0707587
-0.072283
-0.0764443
-0.0835194
-0.0935574
-0.105811
-0.118449
-0.128914
-0.134808
-0.134692
-0.128797
-0.118597
-0.10635
-0.0941327
-0.0834065
-0.0749484
-0.0690579
-0.0657918
-0.0651046
-0.0669778
-0.0716169
-0.0795601
-0.0914135
-0.107174
-0.125545
-0.143767
-0.15821
-0.165502
-0.163725
-0.153386
-0.219953
-0.203661
-0.189254
-0.17678
-0.167387
-0.161859
-0.160883
-0.165104
-0.175001
-0.190548
-0.210846
-0.233967
-0.257195
-0.277551
-0.292304
-0.299243
-0.29681
-0.284384
-0.262847
-0.234753
-0.203725
-0.173303
-0.14601
-0.123084
-0.104759
-0.0907123
-0.080422
-0.0733761
-0.0691577
-0.0674776
-0.0682113
-0.0714468
-0.0774302
-0.0862513
-0.0973048
-0.108963
-0.118858
-0.124709
-0.125104
-0.1201
-0.111058
-0.100046
-0.0889893
-0.0792794
-0.0716845
-0.0665292
-0.0639041
-0.0637942
-0.066209
-0.0713865
-0.0799025
-0.0923988
-0.108896
-0.128089
-0.147164
-0.162376
-0.170211
-0.168615
-0.158044
-0.194117
-0.180684
-0.169208
-0.159506
-0.152824
-0.149924
-0.151523
-0.15828
-0.170612
-0.188358
-0.210449
-0.234848
-0.258838
-0.279544
-0.294385
-0.301285
-0.298733
-0.286099
-0.264277
-0.23586
-0.204508
-0.173776
-0.14617
-0.122902
-0.104188
-0.0896981
-0.0789133
-0.0713213
-0.0665015
-0.0641535
-0.0641283
-0.0664732
-0.0714018
-0.0790348
-0.0889006
-0.0995755
-0.108884
-0.114665
-0.115649
-0.111365
-0.103447
-0.0936334
-0.0837022
-0.0749793
-0.0682239
-0.0637834
-0.0617797
-0.0622265
-0.0651584
-0.0708421
-0.079887
-0.0929702
-0.110141
-0.130103
-0.149998
-0.165984
-0.174406
-0.173066
-0.162357
-0.167491
-0.15701
-0.148227
-0.141212
-0.13722
-0.13697
-0.141184
-0.150498
-0.165239
-0.185092
-0.208841
-0.234373
-0.259007
-0.279995
-0.294916
-0.30182
-0.299232
-0.286513
-0.264568
-0.236015
-0.204535
-0.173673
-0.145904
-0.12241
-0.103392
-0.088525
-0.077295
-0.0691965
-0.0638097
-0.0608268
-0.0600777
-0.0615722
-0.06549
-0.0719722
-0.0806706
-0.0903616
-0.0990657
-0.104738
-0.106066
-0.102619
-0.0958055
-0.0871462
-0.0782975
-0.0705261
-0.0645813
-0.0608307
-0.0594253
-0.0604044
-0.0638255
-0.0699794
-0.0795046
-0.0931127
-0.110889
-0.131555
-0.152231
-0.168989
-0.178042
-0.177039
-0.166293
-0.141078
-0.133041
-0.126707
-0.122282
-0.120928
-0.123314
-0.130138
-0.141979
-0.159045
-0.18087
-0.206113
-0.23262
-0.257781
-0.278992
-0.293988
-0.300933
-0.298381
-0.285688
-0.263771
-0.235265
-0.203848
-0.173033
-0.145248
-0.121641
-0.102406
-0.0872249
-0.0755992
-0.0670348
-0.0611169
-0.0575338
-0.0560986
-0.0567869
-0.0597432
-0.0651199
-0.0726782
-0.0813889
-0.0894695
-0.0949884
-0.0966019
-0.0939272
-0.0881773
-0.0806175
-0.072802
-0.0659414
-0.0607734
-0.0576839
-0.0568499
-0.058334
-0.0622132
-0.0687981
-0.078751
-0.0928169
-0.111122
-0.132422
-0.153832
-0.171354
-0.18108
-0.180496
-0.169821
-0.115661
-0.10925
-0.105149
-0.103176
-0.104363
-0.109317
-0.118685
-0.132957
-0.152205
-0.175821
-0.202368
-0.229687
-0.255256
-0.276636
-0.29173
-0.298727
-0.296263
-0.283693
-0.261949
-0.233666
-0.202497
-0.171899
-0.144239
-0.12063
-0.101261
-0.085828
-0.0738558
-0.0648664
-0.058454
-0.054307
-0.0522251
-0.0521541
-0.0542026
-0.0585253
-0.064978
-0.0727164
-0.080155
-0.085477
-0.0873455
-0.0853536
-0.0806044
-0.0740804
-0.0672434
-0.0612478
-0.0568188
-0.0543578
-0.0540652
-0.056024
-0.0603278
-0.0673017
-0.0776269
-0.0920794
-0.110832
-0.132689
-0.154778
-0.173049
-0.183484
-0.183399
-0.172911
-0.0919929
-0.0862462
-0.084109
-0.0843981
-0.0879684
-0.0953557
-0.107129
-0.123663
-0.144892
-0.170079
-0.197721
-0.225681
-0.25154
-0.273021
-0.288292
-0.295316
-0.292966
-0.280606
-0.259169
-0.231277
-0.200534
-0.170316
-0.142916
-0.119409
-0.0999847
-0.0843622
-0.072092
-0.0627184
-0.0558488
-0.0511747
-0.0484865
-0.0477045
-0.048902
-0.0522276
-0.0576154
-0.0643942
-0.0711746
-0.076262
-0.0783527
-0.0769322
-0.0731247
-0.0675676
-0.0616495
-0.0564692
-0.0527378
-0.0508694
-0.0510853
-0.0534862
-0.0581788
-0.065498
-0.0761378
-0.0909029
-0.110018
-0.132348
-0.155053
-0.174054
-0.185226
-0.185722
-0.175538
-0.0680322
-0.0645479
-0.0641428
-0.0664556
-0.0721834
-0.0817958
-0.0957588
-0.114317
-0.137271
-0.163775
-0.192286
-0.220714
-0.246745
-0.26825
-0.283655
-0.290764
-0.288571
-0.276506
-0.255505
-0.228164
-0.198014
-0.168328
-0.141315
-0.118009
-0.0986061
-0.0828527
-0.0703321
-0.0606149
-0.0533252
-0.048161
-0.0449072
-0.0434627
-0.043868
-0.0462572
-0.050627
-0.0564639
-0.0625731
-0.0673916
-0.0696551
-0.0686872
-0.065776
-0.0611104
-0.0560484
-0.0516304
-0.0485517
-0.0472373
-0.0479264
-0.0507347
-0.0557789
-0.0633983
-0.0742941
-0.0892961
-0.108684
-0.131398
-0.15465
-0.174351
-0.186287
-0.187446
-0.177681
-0.0448039
-0.0457806
-0.0498121
-0.0574078
-0.068964
-0.0848288
-0.105114
-0.129492
-0.157033
-0.186178
-0.214899
-0.240994
-0.262474
-0.277639
-0.285102
-0.283159
-0.271481
-0.251036
-0.224394
-0.194994
-0.165983
-0.139473
-0.116461
-0.0971499
-0.081322
-0.0685973
-0.0585766
-0.0509036
-0.0452863
-0.0415073
-0.0394481
-0.0391197
-0.0406368
-0.0440404
-0.0489585
-0.0543866
-0.0589031
-0.0612887
-0.0606211
-0.0585955
-0.0547387
-0.0504678
-0.0467562
-0.0442833
-0.043482
-0.0446069
-0.0477862
-0.0531436
-0.0610176
-0.0721105
-0.0872735
-0.106845
-0.129849
-0.153573
-0.173936
-0.186659
-0.188562
-0.17932
-0.0274439
-0.0294586
-0.0348491
-0.0439693
-0.0571273
-0.0745481
-0.096214
-0.121685
-0.149968
-0.179509
-0.208355
-0.234415
-0.255823
-0.270897
-0.27849
-0.27684
-0.265621
-0.245842
-0.220039
-0.191531
-0.163324
-0.137424
-0.11479
-0.0956387
-0.07979
-0.0669059
-0.0566207
-0.048601
-0.042567
-0.0383024
-0.0356753
-0.0346703
-0.0353807
-0.0378748
-0.0419029
-0.0466432
-0.0508273
-0.0533052
-0.0527478
-0.0516167
-0.0484797
-0.0449344
-0.0418718
-0.0399557
-0.0396249
-0.0411465
-0.0446595
-0.0502909
-0.0583743
-0.0696063
-0.0848552
-0.104518
-0.127718
-0.151831
-0.172813
-0.186343
-0.189094
-0.180439
-0.0127553
-0.0154672
-0.0218361
-0.032103
-0.0464793
-0.0650719
-0.0877439
-0.113961
-0.142685
-0.172386
-0.201193
-0.22712
-0.24839
-0.263413
-0.271075
-0.269718
-0.259016
-0.240005
-0.215167
-0.187682
-0.160395
-0.135201
-0.113022
-0.0940922
-0.0782737
-0.0652732
-0.0547618
-0.0464309
-0.0400157
-0.0353039
-0.0321544
-0.0305283
-0.0304958
-0.032141
-0.0353133
-0.0393628
-0.0431838
-0.0457709
-0.0473331
-0.0448845
-0.0423579
-0.0394741
-0.0370018
-0.0355926
-0.0356884
-0.0375667
-0.0413749
-0.0472412
-0.0554893
-0.0668043
-0.0820661
-0.101732
-0.125029
-0.149447
-0.170994
-0.185344
-0.189494
-0.181021
-0.000864968
-0.00394615
-0.0109205
-0.0219445
-0.0371379
-0.0565012
-0.0797949
-0.106409
-0.135279
-0.164913
-0.193523
-0.219219
-0.240299
-0.255264
-0.262961
-0.261893
-0.251758
-0.233609
-0.209851
-0.183504
-0.157238
-0.132835
-0.11118
-0.0925279
-0.0767872
-0.0637116
-0.0530109
-0.0444037
-0.0376418
-0.03252
-0.0288913
-0.0266971
-0.0259842
-0.0268419
-0.0291982
-0.0325583
-0.0359784
-0.0385184
-0.039874
-0.0382597
-0.0363931
-0.0341102
-0.0321702
-0.0312176
-0.0316956
-0.0338897
-0.0379543
-0.0440165
-0.052386
-0.0637303
-0.0789352
-0.0985169
-0.121816
-0.146448
-0.1685
-0.183636
-0.188647
-0.181034
0.00823755
0.00509004
-0.00213674
-0.0135365
-0.02915
-0.0488877
-0.0724264
-0.0991
-0.127836
-0.157186
-0.185447
-0.210818
-0.231671
-0.246536
-0.254238
-0.253455
-0.243937
-0.226735
-0.204161
-0.179051
-0.153893
-0.130353
-0.109282
-0.0909604
-0.0753422
-0.062231
-0.0513766
-0.0425267
-0.0354516
-0.0299554
-0.0258885
-0.0231765
-0.0218433
-0.021975
-0.023559
-0.0262371
-0.0292194
-0.0316132
-0.0328601
-0.0318237
-0.0306089
-0.0288648
-0.0273998
-0.0268541
-0.0276697
-0.0301384
-0.0344206
-0.0406402
-0.0490896
-0.0604127
-0.0754952
-0.0949097
-0.118115
-0.14287
-0.165357
-0.181234
-0.187065
-0.180488
0.011724
0.00457105
-0.00684628
-0.0225041
-0.0422414
-0.065671
-0.0920895
-0.120429
-0.149294
-0.17706
-0.202021
-0.222606
-0.237313
-0.244989
-0.244496
-0.23564
-0.219465
-0.198164
-0.174376
-0.150397
-0.12778
-0.107347
-0.089402
-0.073948
-0.0608385
-0.0498649
-0.0408048
-0.0334487
-0.0276118
-0.0231455
-0.0199627
-0.0180662
-0.017533
-0.0183918
-0.020401
-0.0229165
-0.0251054
-0.0263142
-0.0256045
-0.0250304
-0.0237585
-0.0227125
-0.0225247
-0.0236337
-0.0263362
-0.0307974
-0.0371368
-0.0456266
-0.0568818
-0.0717813
-0.0909508
-0.113971
-0.138757
-0.161604
-0.178178
-0.184873
-0.179395
0.0161036
0.00932129
-0.00178643
-0.0171455
-0.0365406
-0.0595389
-0.0854171
-0.113122
-0.141315
-0.168448
-0.192917
-0.213231
-0.227686
-0.235299
-0.2351
-0.226956
-0.211879
-0.191927
-0.169526
-0.146784
-0.125141
-0.10539
-0.0878625
-0.0726111
-0.0595389
-0.048479
-0.0392401
-0.0316338
-0.0254883
-0.0206589
-0.0170492
-0.0146429
-0.0135038
-0.013687
-0.0150467
-0.0170759
-0.0190228
-0.0202166
-0.0195626
-0.0196851
-0.0188104
-0.0181285
-0.018251
-0.0196103
-0.0225063
-0.0271084
-0.033531
-0.042024
-0.0531689
-0.0678306
-0.086683
-0.109431
-0.134156
-0.157285
-0.174514
-0.182108
-0.177772
0.0184188
0.0122716
0.00176502
-0.01299
-0.0317397
-0.0540219
-0.0791068
-0.105966
-0.133315
-0.159679
-0.18357
-0.203761
-0.217743
-0.225241
-0.225351
-0.217968
-0.204055
-0.185511
-0.164549
-0.143085
-0.122453
-0.103421
-0.0863488
-0.0713356
-0.0583343
-0.0472197
-0.0378322
-0.0300052
-0.0235816
-0.0184228
-0.0144269
-0.0115606
-0.00987203
-0.00943065
-0.0101662
-0.0116978
-0.0133763
-0.0145761
-0.0136722
-0.0146029
-0.0140364
-0.0136663
-0.0140534
-0.0156213
-0.0186716
-0.0233773
-0.029848
-0.0383095
-0.0493056
-0.0636809
-0.0821512
-0.104545
-0.129119
-0.152452
-0.170284
-0.178796
-0.175642
-0.161683
0.0188906
0.0136058
0.0039518
-0.0099347
-0.0277763
-0.0490956
-0.0731676
-0.098994
-0.125346
-0.150804
-0.17401
-0.194391
-0.207523
-0.214877
-0.215327
-0.20876
-0.196066
-0.178977
-0.159488
-0.139329
-0.119735
-0.101452
-0.0848668
-0.0701245
-0.0572259
-0.0460868
-0.0365795
-0.0285603
-0.0218873
-0.0164304
-0.0120856
-0.00880516
-0.00662043
-0.00560533
-0.00574677
-0.00677647
-0.00816161
-0.00944497
-0.0114538
-0.00984393
-0.00945055
-0.00934197
-0.00995042
-0.0116876
-0.0148544
-0.0196276
-0.0261124
-0.0345102
-0.0453237
-0.0593704
-0.077401
-0.0993663
-0.123703
-0.147157
-0.16554
-0.174986
-0.173026
-0.160167
0.0135255
0.00493403
-0.00786417
-0.0245765
-0.0447234
-0.0675952
-0.0922283
-0.117447
-0.141872
-0.16422
-0.184009
-0.196939
-0.204253
-0.205111
-0.199418
-0.187987
-0.172382
-0.154381
-0.135542
-0.117004
-0.0994948
-0.0834242
-0.0689828
-0.0562167
-0.0450819
-0.0354824
-0.0272975
-0.020402
-0.0146757
-0.0100156
-0.0063629
-0.00373154
-0.00219245
-0.00177327
-0.00230246
-0.00335992
-0.00454261
-0.00599707
-0.00520657
-0.00505787
-0.00516734
-0.00595893
-0.00782867
-0.0110758
-0.0158819
-0.0223483
-0.0306527
-0.0412541
-0.0549363
-0.0724774
-0.0939469
-0.117966
-0.141462
-0.16034
-0.170711
-0.169946
-0.158256
0.0122368
0.00487322
-0.00665597
-0.0220601
-0.0408619
-0.0623776
-0.0856828
-0.109652
-0.132947
-0.154313
-0.172331
-0.185986
-0.193442
-0.194793
-0.190021
-0.179884
-0.165776
-0.149267
-0.13175
-0.114277
-0.0975582
-0.0820267
-0.0679134
-0.0553077
-0.0442042
-0.0345382
-0.026213
-0.0191199
-0.0131505
-0.00820558
-0.00421827
-0.00118603
0.000829091
0.00177322
0.00173814
0.00104214
6.44849e-05
-0.0010339
-0.000788302
-0.000861668
-0.00115311
-0.00209405
-0.00406236
-0.00735607
-0.0121619
-0.0185791
-0.0267626
-0.0371264
-0.0504148
-0.0674247
-0.0883391
-0.111966
-0.135425
-0.154737
-0.166007
-0.166434
-0.155956
0.00994777
0.00393041
-0.00619323
-0.0201471
-0.037468
-0.057502
-0.0793704
-0.101999
-0.124103
-0.14447
-0.161481
-0.174947
-0.182574
-0.184462
-0.180641
-0.171812
-0.159194
-0.144162
-0.127956
-0.111548
-0.0956302
-0.0806568
-0.0668958
-0.0544765
-0.0434306
-0.0337239
-0.0252834
-0.0180177
-0.0118309
-0.00662991
-0.00234329
0.00104658
0.00349084
0.00492198
0.00536875
0.00505697
0.00433009
0.00345859
0.00338114
0.00313124
0.00269081
0.00163054
-0.000405163
-0.0037139
-0.00848816
-0.014827
-0.0228643
-0.0329689
-0.0458401
-0.062285
-0.0825935
-0.10576
-0.129107
-0.14879
-0.160921
-0.162512
-0.153278
0.00225445
-0.00637192
-0.0187716
-0.03451
-0.0529657
-0.0733126
-0.0945295
-0.115395
-0.134746
-0.151012
-0.16403
-0.171793
-0.174229
-0.171368
-0.163833
-0.152674
-0.139081
-0.124155
-0.108796
-0.0936801
-0.079278
-0.0658902
-0.0536829
-0.0427216
-0.0330014
-0.0244725
-0.017061
-0.0106833
-0.00525467
-0.000702515
0.00300358
0.00583081
0.00770881
0.00861927
0.00870383
0.0082534
0.00756069
0.00728213
0.0069199
0.00635847
0.00520491
0.0031292
-0.000166362
-0.00488005
-0.0111128
-0.0189808
-0.028808
-0.0412444
-0.057098
-0.0767584
-0.099404
-0.122569
-0.142559
-0.155501
-0.158212
-0.150248
-1.08251e-05
-0.00709886
-0.0178867
-0.0319794
-0.0487937
-0.0675613
-0.0873173
-0.106912
-0.125226
-0.14081
-0.153356
-0.161253
-0.164247
-0.162341
-0.156069
-0.146321
-0.134115
-0.120431
-0.106101
-0.0917852
-0.0779653
-0.0649698
-0.0529967
-0.042143
-0.0324318
-0.023836
-0.0162993
-0.0097514
-0.00411666
0.000675031
0.00466356
0.00783352
0.0101209
0.0114759
0.0119658
0.0118166
0.0113005
0.0107268
0.0105098
0.00984698
0.0086244
0.00653294
0.00327455
-0.00135329
-0.0074551
-0.0151329
-0.0246678
-0.0366569
-0.0519005
-0.0708789
-0.092951
-0.115867
-0.136101
-0.14981
-0.153641
-0.146903
-0.00271651
-0.0082519
-0.0174065
-0.0298267
-0.0449715
-0.0621337
-0.0804073
-0.0987274
-0.116014
-0.130997
-0.14288
-0.150918
-0.154508
-0.153587
-0.14859
-0.140249
-0.129431
-0.116994
-0.10371
-0.0902143
-0.076998
-0.0644126
-0.0526867
-0.0419487
-0.0322503
-0.0235891
-0.015928
-0.00921115
-0.0033734
0.00164978
0.00590311
0.00938849
0.0120578
0.0138455
0.014754
0.0149327
0.0146271
0.0141906
0.0138593
0.0131048
0.0118535
0.00978312
0.00659359
0.00207919
-0.00386772
-0.0113363
-0.0205668
-0.0321009
-0.0467233
-0.0649947
-0.0864472
-0.109047
-0.129442
-0.143829
-0.149791
-0.143169
-0.00595653
-0.00986039
-0.0172964
-0.02796
-0.0413534
-0.0568282
-0.0735458
-0.090524
-0.106766
-0.121273
-0.132365
-0.140366
-0.144534
-0.144642
-0.140967
-0.134078
-0.124687
-0.113543
-0.101348
-0.0887163
-0.0761425
-0.0640001
-0.0525478
-0.0419459
-0.0322762
-0.0235616
-0.0157862
-0.00891003
-0.0028787
0.00236408
0.00686122
0.0106297
0.0136484
0.0158547
0.01719
0.0177017
0.0175853
0.0172594
0.0167952
0.016015
0.0147831
0.012783
0.00971191
0.00535785
-0.000396415
-0.00763059
-0.0165422
-0.0276097
-0.0415939
-0.0591305
-0.0799151
-0.102111
-0.122519
-0.137314
-0.143662
-0.138663
-0.0125268
-0.0183511
-0.0272837
-0.0389013
-0.0526091
-0.0676334
-0.0830538
-0.0979472
-0.110677
-0.1228
-0.130674
-0.134965
-0.135658
-0.132865
-0.127016
-0.118707
-0.108594
-0.0973242
-0.08548
-0.0735474
-0.061903
-0.0508173
-0.0404666
-0.0309498
-0.0223061
-0.0145344
-0.00760688
-0.00147803
0.00390017
0.00856334
0.0125355
0.0158243
0.0183871
0.0201239
0.0209707
0.0210137
0.0205645
0.0197318
0.0189906
0.0176729
0.0156427
0.0126213
0.00839771
0.00284359
-0.00413966
-0.0127368
-0.023371
-0.0367515
-0.0535441
-0.0735966
-0.0953156
-0.115735
-0.131015
-0.137538
-0.134079
)
;

boundaryField
{
    inlet
    {
        type            zeroGradient;
    }
    outlet
    {
        type            fixedValue;
        value           nonuniform 0();
    }
    cylinder
    {
        type            zeroGradient;
    }
    top
    {
        type            symmetryPlane;
    }
    bottom
    {
        type            symmetryPlane;
    }
    defaultFaces
    {
        type            empty;
    }
    procBoundary6to2
    {
        type            processor;
        value           nonuniform List<scalar> 
57
(
-0.032181
-0.0340278
-0.0376634
-0.042845
-0.0492279
-0.0563753
-0.0637918
-0.0710142
-0.0774326
-0.0826448
-0.0862598
-0.0880475
-0.0879187
-0.0859116
-0.0821832
-0.0769753
-0.0705779
-0.0632984
-0.0554358
-0.0472616
-0.0390086
-0.0308648
-0.0229743
-0.0154398
-0.00832837
-0.00167881
0.00449143
0.010181
0.0153969
0.0201455
0.0244322
0.0282638
0.0316261
0.0344451
0.0365853
0.0379171
0.0383832
0.0383832
0.0404911
0.0395699
0.0379658
0.035677
0.032638
0.0287756
0.0240518
0.0184332
0.0117759
0.00368755
-0.00647131
-0.019282
-0.0347548
-0.0519794
-0.0690078
-0.0828891
-0.0903192
-0.0892076
-0.0801721
)
;
    }
    procBoundary6to3
    {
        type            processor;
        value           uniform -0.073679;
    }
    procBoundary6to5
    {
        type            processor;
        value           nonuniform List<scalar> 
40
(
-0.0134807
-0.0187244
-0.0238331
-0.0283483
-0.408703
-0.386372
-0.362093
-0.314007
-0.314007
-0.288918
-0.262192
-0.234213
-0.205751
-0.177261
-0.148812
-0.120785
-0.0936196
-0.0707837
-0.046846
-0.046846
-0.028688
-0.0136063
-0.00161635
0.00735412
0.0146605
0.0146605
0.0185764
0.0202035
0.0197914
0.0177613
0.0177613
0.0152856
0.0117221
0.00685515
0.00685515
0.0031542
-0.000992335
-0.00571742
-0.0100455
-0.0100455
)
;
    }
    procBoundary6to7
    {
        type            processor;
        value           nonuniform List<scalar> 
36
(
-0.100706
-0.121865
-0.0944841
-0.0878851
-0.0809625
-0.113637
-0.118629
-0.12348
-0.128164
-0.132658
-0.136936
-0.140976
-0.144753
-0.148245
-0.151431
-0.154289
-0.1568
-0.158948
-0.160717
-0.162093
-0.163064
-0.163623
-0.163764
-0.163486
-0.162791
-0.162791
-0.139838
-0.139049
-0.137963
-0.13658
-0.1349
-0.132939
-0.130727
-0.128219
-0.125197
-0.121865
)
;
    }
    procBoundary6to9
    {
        type            processor;
        value           uniform -0.428874;
    }
    procBoundary6to10
    {
        type            processor;
        value           nonuniform List<scalar> 
61
(
-0.41295
-0.374968
-0.33533
-0.255943
-0.296669
-0.255943
-0.227702
-0.204879
-0.187799
-0.176508
-0.171017
-0.171393
-0.177553
-0.188813
-0.203516
-0.219045
-0.232315
-0.24045
-0.241331
-0.234051
-0.219123
-0.19847
-0.174942
-0.151487
-0.130407
-0.113017
-0.099755
-0.0905034
-0.0849161
-0.0826269
-0.0833497
-0.0869572
-0.0935837
-0.103635
-0.11749
-0.134847
-0.154113
-0.172359
-0.186034
-0.192074
-0.188969
-0.177437
-0.160035
-0.140133
-0.12071
-0.103674
-0.0898601
-0.0794001
-0.0721163
-0.0677494
-0.0660817
-0.067078
-0.0709958
-0.078223
-0.0887344
-0.101496
-0.114331
-0.124445
-0.129342
-0.127752
-0.12018
)
;
    }
}


// ************************************************************************* //
