/*--------------------------------*- C++ -*----------------------------------*\
  =========                 |
  \\      /  F ield         | OpenFOAM: The Open Source CFD Toolbox
   \\    /   O peration     | Website:  https://openfoam.org
    \\  /    A nd           | Version:  7
     \\/     M anipulation  |
\*---------------------------------------------------------------------------*/
FoamFile
{
    version     2.0;
    format      ascii;
    class       volScalarField;
    location    "145";
    object      p;
}
// * * * * * * * * * * * * * * * * * * * * * * * * * * * * * * * * * * * * * //

dimensions      [0 2 -2 0 0 0 0];

internalField   nonuniform List<scalar> 
31800
(
-0.359905
-0.361842
-0.362785
-0.363448
-0.364024
-0.364648
-0.365463
-0.36657
-0.368034
-0.369905
-0.372226
-0.375049
-0.37844
-0.382486
-0.387287
-0.392955
-0.399601
-0.407314
-0.416132
-0.426005
-0.436742
-0.447963
-0.459055
-0.469122
-0.476994
-0.360117
-0.362412
-0.36355
-0.364376
-0.365099
-0.365853
-0.366776
-0.367961
-0.369462
-0.371314
-0.373541
-0.376172
-0.379244
-0.382808
-0.386924
-0.391662
-0.397089
-0.403257
-0.410179
-0.417798
-0.425946
-0.43431
-0.442383
-0.449352
-0.454372
-0.360529
-0.363157
-0.364478
-0.365461
-0.366329
-0.367212
-0.368244
-0.369507
-0.371047
-0.37288
-0.375012
-0.377446
-0.380188
-0.38325
-0.386652
-0.390414
-0.394556
-0.399085
-0.403982
-0.409177
-0.414518
-0.41976
-0.424499
-0.428004
-0.429754
-0.361181
-0.364109
-0.3656
-0.366732
-0.367743
-0.368755
-0.369897
-0.371243
-0.372824
-0.374642
-0.376682
-0.37892
-0.38133
-0.383883
-0.386554
-0.389312
-0.392124
-0.39495
-0.397729
-0.400371
-0.402735
-0.404637
-0.405772
-0.405478
-0.403575
-0.362107
-0.365298
-0.366942
-0.368217
-0.369366
-0.370507
-0.371761
-0.373194
-0.374822
-0.376632
-0.378587
-0.380637
-0.382719
-0.384767
-0.386704
-0.388447
-0.38991
-0.390995
-0.3916
-0.391606
-0.390873
-0.389272
-0.386592
-0.382217
-0.376331
-0.363337
-0.366747
-0.368528
-0.369935
-0.371218
-0.372488
-0.373858
-0.375382
-0.377065
-0.378877
-0.380758
-0.38263
-0.384398
-0.38595
-0.387163
-0.387899
-0.388013
-0.387351
-0.385762
-0.383093
-0.3792
-0.373995
-0.367357
-0.358702
-0.34856
-0.364895
-0.368477
-0.370375
-0.371903
-0.373315
-0.374713
-0.376201
-0.377823
-0.379569
-0.381392
-0.383212
-0.384922
-0.386393
-0.38747
-0.387979
-0.387729
-0.386514
-0.384124
-0.380355
-0.375018
-0.367957
-0.359116
-0.348458
-0.33543
-0.320825
-0.366796
-0.370499
-0.372493
-0.37413
-0.375665
-0.377189
-0.378797
-0.380521
-0.382338
-0.384185
-0.385958
-0.387526
-0.38872
-0.389347
-0.389182
-0.387978
-0.385472
-0.381395
-0.375493
-0.367538
-0.357357
-0.344916
-0.330262
-0.31289
-0.293684
-0.369046
-0.37282
-0.374886
-0.37662
-0.37827
-0.379917
-0.381646
-0.383476
-0.385372
-0.387252
-0.388995
-0.390438
-0.391381
-0.391587
-0.390783
-0.388669
-0.384923
-0.37922
-0.371257
-0.360769
-0.347568
-0.331631
-0.31309
-0.291539
-0.267661
-0.371646
-0.375436
-0.377552
-0.379367
-0.381122
-0.382888
-0.384737
-0.386676
-0.388657
-0.390581
-0.392307
-0.393644
-0.39436
-0.394177
-0.392774
-0.389798
-0.384873
-0.377621
-0.367691
-0.354789
-0.338712
-0.319445
-0.2972
-0.271777
-0.243224
-0.374585
-0.378337
-0.38048
-0.38236
-0.384209
-0.386086
-0.388053
-0.390102
-0.392171
-0.394148
-0.395868
-0.397117
-0.39763
-0.397088
-0.395127
-0.391342
-0.385305
-0.376589
-0.364803
-0.349627
-0.330858
-0.308484
-0.28278
-0.253924
-0.220772
-0.377845
-0.381508
-0.383651
-0.38558
-0.38751
-0.38949
-0.391568
-0.393724
-0.395883
-0.397916
-0.39964
-0.400816
-0.401145
-0.400273
-0.397792
-0.393249
-0.386169
-0.376081
-0.36256
-0.345272
-0.324021
-0.298814
-0.26994
-0.238203
-0.200562
-0.381401
-0.384925
-0.387044
-0.389002
-0.390998
-0.393069
-0.39525
-0.397508
-0.399754
-0.401844
-0.403576
-0.404686
-0.404847
-0.403669
-0.400702
-0.39545
-0.387394
-0.376026
-0.360897
-0.341668
-0.318164
-0.290442
-0.258721
-0.224757
-0.182564
-0.385219
-0.388557
-0.390628
-0.392595
-0.394639
-0.396788
-0.399059
-0.40141
-0.403735
-0.405878
-0.407616
-0.408664
-0.408667
-0.407199
-0.403773
-0.397852
-0.388881
-0.376323
-0.359713
-0.338722
-0.313207
-0.283318
-0.249073
-0.213728
-0.166767
-0.389262
-0.392371
-0.394369
-0.396323
-0.398397
-0.400605
-0.402952
-0.405381
-0.407774
-0.409959
-0.411696
-0.412678
-0.412522
-0.410773
-0.406906
-0.40035
-0.390518
-0.376853
-0.358887
-0.336316
-0.309038
-0.277352
-0.240857
-0.204908
-0.154798
-0.393486
-0.39633
-0.39823
-0.40015
-0.402231
-0.404478
-0.406881
-0.409369
-0.411814
-0.414024
-0.415746
-0.41665
-0.416329
-0.414295
-0.409996
-0.402828
-0.392181
-0.377485
-0.358284
-0.334318
-0.305523
-0.272433
-0.234483
-0.197371
-0.146348
-0.397846
-0.400393
-0.402172
-0.404034
-0.406098
-0.40836
-0.410796
-0.413322
-0.415794
-0.418009
-0.419694
-0.420501
-0.419996
-0.417669
-0.412935
-0.405169
-0.393743
-0.378087
-0.35777
-0.33259
-0.302534
-0.268389
-0.229372
-0.191801
-0.140654
-0.402296
-0.40452
-0.406157
-0.407937
-0.409958
-0.412209
-0.414651
-0.417184
-0.419656
-0.421847
-0.423468
-0.42415
-0.423439
-0.420798
-0.415621
-0.407262
-0.395086
-0.378538
-0.35722
-0.33101
-0.299951
-0.265104
-0.225401
-0.187983
-0.137415
-0.40679
-0.408672
-0.410148
-0.41182
-0.413771
-0.415979
-0.418394
-0.420906
-0.423345
-0.425479
-0.427002
-0.427526
-0.426578
-0.423597
-0.41796
-0.409008
-0.396109
-0.378732
-0.35653
-0.329475
-0.297674
-0.262453
-0.222499
-0.185612
-0.136348
-0.411284
-0.412813
-0.414108
-0.415648
-0.417499
-0.419632
-0.421987
-0.42444
-0.426809
-0.428849
-0.430236
-0.430565
-0.429343
-0.425993
-0.419874
-0.410326
-0.396727
-0.378586
-0.355619
-0.327905
-0.295624
-0.260321
-0.22057
-0.184429
-0.137111
-0.415739
-0.416909
-0.418007
-0.419391
-0.42111
-0.423135
-0.425392
-0.427748
-0.430007
-0.431911
-0.433121
-0.433215
-0.431681
-0.427927
-0.421304
-0.411155
-0.396882
-0.378044
-0.354434
-0.32624
-0.293739
-0.25861
-0.219489
-0.184215
-0.139321
-0.42012
-0.420935
-0.421821
-0.423024
-0.424581
-0.426461
-0.428581
-0.430798
-0.432905
-0.434632
-0.435621
-0.435437
-0.433551
-0.42936
-0.42221
-0.411456
-0.396537
-0.37707
-0.35294
-0.324443
-0.291965
-0.257235
-0.219102
-0.18478
-0.142578
-0.424402
-0.424866
-0.425529
-0.426528
-0.427892
-0.42959
-0.431533
-0.43357
-0.435483
-0.436987
-0.437713
-0.437208
-0.434931
-0.430269
-0.422572
-0.411213
-0.395676
-0.375653
-0.351126
-0.322492
-0.290257
-0.256117
-0.219238
-0.185943
-0.146504
-0.428564
-0.42869
-0.429119
-0.429892
-0.431032
-0.432512
-0.434239
-0.436054
-0.43773
-0.438969
-0.439389
-0.438523
-0.435817
-0.430653
-0.422389
-0.410427
-0.394305
-0.373799
-0.348993
-0.320376
-0.288574
-0.255183
-0.219726
-0.187527
-0.150767
-0.432595
-0.432398
-0.432585
-0.433112
-0.434
-0.435227
-0.436699
-0.43825
-0.439648
-0.440581
-0.440655
-0.439388
-0.436217
-0.430522
-0.421674
-0.409113
-0.392442
-0.371526
-0.346554
-0.318094
-0.286877
-0.25436
-0.220408
-0.189358
-0.155092
-0.436491
-0.435991
-0.43593
-0.436192
-0.436801
-0.437742
-0.438922
-0.440172
-0.441253
-0.441841
-0.441531
-0.439826
-0.436156
-0.429901
-0.420454
-0.407301
-0.390118
-0.368864
-0.343832
-0.315651
-0.285137
-0.253581
-0.221147
-0.191271
-0.159256
-0.44026
-0.439474
-0.43916
-0.439142
-0.439448
-0.440074
-0.440928
-0.441843
-0.44257
-0.442778
-0.442047
-0.439869
-0.435666
-0.428825
-0.418766
-0.405028
-0.387372
-0.365851
-0.340854
-0.313057
-0.283329
-0.252784
-0.221833
-0.193104
-0.163053
-0.443914
-0.442863
-0.442293
-0.441981
-0.441963
-0.442247
-0.442746
-0.443293
-0.443635
-0.443429
-0.442243
-0.439558
-0.434788
-0.427334
-0.416649
-0.402338
-0.384249
-0.36253
-0.337654
-0.310326
-0.281438
-0.251924
-0.222394
-0.194702
-0.166281
-0.447477
-0.446176
-0.445348
-0.444731
-0.444371
-0.444291
-0.44441
-0.444562
-0.444489
-0.443839
-0.442165
-0.438936
-0.433567
-0.425472
-0.41415
-0.399278
-0.380797
-0.358946
-0.334266
-0.307477
-0.27946
-0.250981
-0.222794
-0.195949
-0.168915
-0.450976
-0.449439
-0.448351
-0.44742
-0.446705
-0.446244
-0.445962
-0.445695
-0.445181
-0.444057
-0.441861
-0.438052
-0.432046
-0.423282
-0.411313
-0.395896
-0.377065
-0.355146
-0.330728
-0.304529
-0.277394
-0.249955
-0.223032
-0.196885
-0.171404
-0.454445
-0.452682
-0.451332
-0.45008
-0.449
-0.448143
-0.447444
-0.446739
-0.445759
-0.44413
-0.441377
-0.436948
-0.430268
-0.420808
-0.408184
-0.392241
-0.373105
-0.351175
-0.327073
-0.301499
-0.275245
-0.248843
-0.223108
-0.197804
-0.174115
-0.457922
-0.455936
-0.454323
-0.452745
-0.451293
-0.450031
-0.448901
-0.44774
-0.446272
-0.444107
-0.440758
-0.435667
-0.428272
-0.41809
-0.404808
-0.388362
-0.368966
-0.347079
-0.323334
-0.298405
-0.273014
-0.247626
-0.222985
-0.198824
-0.176612
-0.461448
-0.459237
-0.457357
-0.455451
-0.453622
-0.451949
-0.450378
-0.448745
-0.446763
-0.44403
-0.440042
-0.434243
-0.426093
-0.415164
-0.401225
-0.384304
-0.364694
-0.342895
-0.31954
-0.295259
-0.270706
-0.246282
-0.222668
-0.199608
-0.178519
-0.465063
-0.462619
-0.460469
-0.458232
-0.456024
-0.453935
-0.451915
-0.449794
-0.447272
-0.443932
-0.439259
-0.432703
-0.42376
-0.412065
-0.397475
-0.380111
-0.36033
-0.338659
-0.315712
-0.292071
-0.268317
-0.244798
-0.222128
-0.200056
-0.17991
-0.468807
-0.466116
-0.463691
-0.461121
-0.458534
-0.456028
-0.45355
-0.450922
-0.447831
-0.443841
-0.438432
-0.43107
-0.421296
-0.408821
-0.393596
-0.375822
-0.355912
-0.3344
-0.311869
-0.288848
-0.265849
-0.243167
-0.221354
-0.200155
-0.180793
-0.472718
-0.46976
-0.467053
-0.464151
-0.461184
-0.458257
-0.455311
-0.452156
-0.448461
-0.443775
-0.437577
-0.429359
-0.418721
-0.40546
-0.389619
-0.371472
-0.351469
-0.330138
-0.308022
-0.285593
-0.263297
-0.241385
-0.220345
-0.199915
-0.181236
-0.476828
-0.47358
-0.470585
-0.467347
-0.464001
-0.460649
-0.457224
-0.453517
-0.449177
-0.443742
-0.436699
-0.427578
-0.41605
-0.402005
-0.385572
-0.367089
-0.347024
-0.325889
-0.304177
-0.282307
-0.260661
-0.239451
-0.219106
-0.199361
-0.181283
-0.481168
-0.477601
-0.47431
-0.470734
-0.467006
-0.463224
-0.459304
-0.455014
-0.449984
-0.443744
-0.435799
-0.425731
-0.413295
-0.398474
-0.381479
-0.362694
-0.342593
-0.32166
-0.300337
-0.278987
-0.257937
-0.237365
-0.217646
-0.198512
-0.180974
-0.48576
-0.481844
-0.478247
-0.474331
-0.470218
-0.465997
-0.461559
-0.45665
-0.450879
-0.443773
-0.43487
-0.423819
-0.410464
-0.394882
-0.377356
-0.358302
-0.338186
-0.317454
-0.296497
-0.275628
-0.255122
-0.235128
-0.215971
-0.19739
-0.18034
-0.490622
-0.486325
-0.482413
-0.478151
-0.473647
-0.468973
-0.463992
-0.45842
-0.451849
-0.443816
-0.433903
-0.421837
-0.40756
-0.39124
-0.373216
-0.353923
-0.333805
-0.313269
-0.292653
-0.272223
-0.252212
-0.232741
-0.214092
-0.196012
-0.179404
-0.495763
-0.491055
-0.486816
-0.482204
-0.4773
-0.472155
-0.466597
-0.460311
-0.452877
-0.443854
-0.432882
-0.419779
-0.404587
-0.387555
-0.369066
-0.349558
-0.329448
-0.309096
-0.288794
-0.268765
-0.249201
-0.230204
-0.212013
-0.19439
-0.178186
-0.501187
-0.496039
-0.491464
-0.486493
-0.481177
-0.475537
-0.46936
-0.462302
-0.45394
-0.443864
-0.431789
-0.417635
-0.401542
-0.383828
-0.364907
-0.345205
-0.325107
-0.304927
-0.284911
-0.265244
-0.246084
-0.227516
-0.209741
-0.192537
-0.176703
-0.506893
-0.501276
-0.496356
-0.491018
-0.485274
-0.479107
-0.472262
-0.464368
-0.455006
-0.443817
-0.430606
-0.415396
-0.398421
-0.380058
-0.360734
-0.340857
-0.320772
-0.300748
-0.28099
-0.261651
-0.242856
-0.224676
-0.20728
-0.190462
-0.174967
-0.512871
-0.506762
-0.501488
-0.495772
-0.489578
-0.482847
-0.475277
-0.466475
-0.456042
-0.443686
-0.42931
-0.413048
-0.395218
-0.376239
-0.356541
-0.336502
-0.316428
-0.296544
-0.277019
-0.257974
-0.239509
-0.221683
-0.204632
-0.188172
-0.17299
-0.519107
-0.512486
-0.50685
-0.500744
-0.494074
-0.486733
-0.478373
-0.468587
-0.457012
-0.443437
-0.427879
-0.410578
-0.391923
-0.372362
-0.352314
-0.332126
-0.312059
-0.292299
-0.272982
-0.254202
-0.236037
-0.218534
-0.2018
-0.185674
-0.170781
-0.525579
-0.51843
-0.512426
-0.505916
-0.498739
-0.490734
-0.481511
-0.470661
-0.457874
-0.443039
-0.426291
-0.40797
-0.388524
-0.368415
-0.348041
-0.327712
-0.307647
-0.287997
-0.268865
-0.250324
-0.232432
-0.215226
-0.198785
-0.182972
-0.168348
-0.532259
-0.524573
-0.518196
-0.511264
-0.503542
-0.494812
-0.484647
-0.472651
-0.458587
-0.442459
-0.424522
-0.405207
-0.385006
-0.364382
-0.343703
-0.32324
-0.303173
-0.283618
-0.264653
-0.24633
-0.228688
-0.211755
-0.195587
-0.180069
-0.165698
-0.539115
-0.530886
-0.524131
-0.516758
-0.508446
-0.498922
-0.48773
-0.474507
-0.459108
-0.441664
-0.422549
-0.402271
-0.381354
-0.360245
-0.339281
-0.318691
-0.298618
-0.279147
-0.260332
-0.242207
-0.224796
-0.208118
-0.192207
-0.176969
-0.162835
-0.546106
-0.537334
-0.530197
-0.52236
-0.513408
-0.503013
-0.490706
-0.476176
-0.459392
-0.44062
-0.420346
-0.399143
-0.377548
-0.355986
-0.334755
-0.314045
-0.293962
-0.274566
-0.255887
-0.237945
-0.22075
-0.20431
-0.188642
-0.173673
-0.159765
-0.553184
-0.543876
-0.536354
-0.528025
-0.518375
-0.507028
-0.493516
-0.477605
-0.459397
-0.439296
-0.417891
-0.395803
-0.373568
-0.351583
-0.330104
-0.309279
-0.289185
-0.269856
-0.251305
-0.233533
-0.216541
-0.200328
-0.184892
-0.170183
-0.156489
-0.560296
-0.550462
-0.542551
-0.5337
-0.523289
-0.510903
-0.496097
-0.47874
-0.45908
-0.437658
-0.415157
-0.392228
-0.369394
-0.347014
-0.325304
-0.304373
-0.284269
-0.265003
-0.24657
-0.228961
-0.212163
-0.196166
-0.180956
-0.166498
-0.153013
-0.567383
-0.557039
-0.548735
-0.539325
-0.528085
-0.514569
-0.498384
-0.479525
-0.458397
-0.435677
-0.412121
-0.388397
-0.365003
-0.342258
-0.320333
-0.299305
-0.279193
-0.259989
-0.241671
-0.224219
-0.207608
-0.191821
-0.176832
-0.162619
-0.149337
-0.574376
-0.563544
-0.554841
-0.544833
-0.532688
-0.517954
-0.500312
-0.479906
-0.457308
-0.43332
-0.408756
-0.384285
-0.360372
-0.33729
-0.315171
-0.294056
-0.273941
-0.254798
-0.236595
-0.219296
-0.202869
-0.187289
-0.172518
-0.158547
-0.145463
-0.581203
-0.569908
-0.5608
-0.550148
-0.537023
-0.520983
-0.501813
-0.47983
-0.455773
-0.430557
-0.405038
-0.37987
-0.355478
-0.332089
-0.309793
-0.288604
-0.268493
-0.249417
-0.231328
-0.214183
-0.197941
-0.182565
-0.168011
-0.15428
-0.141395
-0.587786
-0.576057
-0.566535
-0.555192
-0.541008
-0.523577
-0.502822
-0.479246
-0.453754
-0.427359
-0.40094
-0.375126
-0.350296
-0.32663
-0.30418
-0.282931
-0.262833
-0.24383
-0.225861
-0.208873
-0.192815
-0.177645
-0.163311
-0.14982
-0.137132
-0.594039
-0.581909
-0.571963
-0.559877
-0.544556
-0.52566
-0.503274
-0.478103
-0.451214
-0.423696
-0.396437
-0.370031
-0.344805
-0.320892
-0.298311
-0.277018
-0.256947
-0.238025
-0.220182
-0.203356
-0.187488
-0.172526
-0.158416
-0.145164
-0.132677
-0.599873
-0.587379
-0.576997
-0.564114
-0.54758
-0.527152
-0.503106
-0.476356
-0.448116
-0.41954
-0.391505
-0.36456
-0.33898
-0.314854
-0.292166
-0.270848
-0.250817
-0.231989
-0.214282
-0.197625
-0.181952
-0.167204
-0.153323
-0.140313
-0.128032
-0.605196
-0.592376
-0.581544
-0.567811
-0.549993
-0.527978
-0.502258
-0.473958
-0.444429
-0.414864
-0.386118
-0.35869
-0.3328
-0.308495
-0.285725
-0.264404
-0.244431
-0.22571
-0.208151
-0.191673
-0.176204
-0.161676
-0.148031
-0.135267
-0.123197
-0.609912
-0.596807
-0.585509
-0.570873
-0.551707
-0.528065
-0.500674
-0.470869
-0.440118
-0.40964
-0.380252
-0.352397
-0.326244
-0.301795
-0.278973
-0.257672
-0.237777
-0.21918
-0.201782
-0.185494
-0.170239
-0.15594
-0.142539
-0.130026
-0.118175
-0.613924
-0.600576
-0.588796
-0.573204
-0.552637
-0.527341
-0.4983
-0.46705
-0.435156
-0.403844
-0.373885
-0.345662
-0.31929
-0.294735
-0.271893
-0.250637
-0.230841
-0.212387
-0.195166
-0.179083
-0.164053
-0.149994
-0.136847
-0.12459
-0.11297
-0.617133
-0.603585
-0.591306
-0.574712
-0.552699
-0.525742
-0.495088
-0.462463
-0.429514
-0.397451
-0.366994
-0.338463
-0.311922
-0.287301
-0.26447
-0.243288
-0.223615
-0.205324
-0.188298
-0.172435
-0.157643
-0.143836
-0.130954
-0.118961
-0.107585
-0.619442
-0.605738
-0.592944
-0.575304
-0.551815
-0.523206
-0.490992
-0.457078
-0.423166
-0.390441
-0.35956
-0.330782
-0.304122
-0.279475
-0.256692
-0.235613
-0.216089
-0.197983
-0.181171
-0.165546
-0.151008
-0.137465
-0.12486
-0.113143
-0.102027
-0.620754
-0.606939
-0.593614
-0.574894
-0.549912
-0.519677
-0.485974
-0.450865
-0.416088
-0.382791
-0.351563
-0.322601
-0.295873
-0.271245
-0.248546
-0.227603
-0.208256
-0.190359
-0.173783
-0.158413
-0.144144
-0.130879
-0.118563
-0.107133
-0.0962974
-0.620977
-0.607094
-0.593225
-0.573398
-0.546922
-0.515106
-0.479998
-0.443798
-0.408262
-0.374485
-0.342988
-0.313905
-0.287163
-0.262599
-0.240022
-0.219249
-0.200108
-0.182447
-0.166129
-0.151034
-0.137051
-0.124079
-0.112065
-0.100931
-0.0903741
-0.620023
-0.606115
-0.59169
-0.57074
-0.542785
-0.509448
-0.473033
-0.435855
-0.399668
-0.365507
-0.333819
-0.304681
-0.277981
-0.253527
-0.231114
-0.210545
-0.191642
-0.174244
-0.158208
-0.143408
-0.129729
-0.117066
-0.105372
-0.0945403
-0.0842197
-0.617805
-0.603916
-0.588929
-0.56685
-0.537447
-0.502667
-0.465054
-0.427017
-0.390292
-0.355842
-0.324044
-0.294919
-0.268316
-0.244021
-0.221814
-0.201487
-0.182854
-0.165747
-0.150018
-0.135535
-0.122179
-0.109843
-0.0984882
-0.0879711
-0.0778462
-0.614249
-0.600419
-0.584868
-0.561665
-0.530861
-0.494732
-0.456041
-0.417271
-0.380122
-0.345481
-0.313655
-0.28461
-0.258162
-0.234076
-0.212118
-0.192072
-0.173742
-0.156956
-0.141559
-0.127417
-0.114403
-0.102414
-0.0914091
-0.0811829
-0.0713945
-0.609282
-0.595552
-0.579439
-0.555132
-0.522991
-0.485618
-0.44598
-0.406607
-0.369149
-0.334417
-0.302643
-0.273748
-0.247514
-0.223688
-0.202025
-0.182298
-0.164306
-0.147871
-0.132833
-0.119057
-0.106406
-0.0947812
-0.0841366
-0.0742206
-0.0648019
-0.602842
-0.589253
-0.572586
-0.547206
-0.513806
-0.475308
-0.43486
-0.395017
-0.357368
-0.322643
-0.291005
-0.262329
-0.236369
-0.212856
-0.191532
-0.172165
-0.154546
-0.138496
-0.123845
-0.110455
-0.0981893
-0.0869487
-0.0766785
-0.0670938
-0.0580552
-0.594875
-0.581465
-0.56426
-0.537851
-0.503284
-0.463793
-0.422677
-0.3825
-0.344779
-0.310159
-0.27874
-0.250352
-0.224727
-0.201579
-0.180642
-0.161677
-0.144468
-0.128831
-0.114596
-0.101618
-0.0897586
-0.0789209
-0.069042
-0.0598056
-0.0511555
-0.585338
-0.572145
-0.554423
-0.52704
-0.491413
-0.451067
-0.409432
-0.369058
-0.331382
-0.296967
-0.265849
-0.23782
-0.212591
-0.189862
-0.169361
-0.150837
-0.134075
-0.118883
-0.105092
-0.09255
-0.0811194
-0.0707041
-0.0612333
-0.052359
-0.0441097
-0.574194
-0.561255
-0.543045
-0.514757
-0.478187
-0.437133
-0.395131
-0.354697
-0.317184
-0.283071
-0.252336
-0.224738
-0.199967
-0.177711
-0.15769
-0.139651
-0.123372
-0.108659
-0.0953389
-0.0832589
-0.0722785
-0.0623051
-0.0532588
-0.0447592
-0.0369253
-0.56142
-0.548771
-0.530109
-0.500995
-0.46361
-0.422002
-0.379785
-0.339428
-0.302194
-0.268478
-0.23821
-0.211116
-0.186862
-0.165133
-0.14564
-0.128126
-0.112368
-0.0981651
-0.0853452
-0.0737516
-0.0632435
-0.0537315
-0.0451255
-0.0370127
-0.0296104
-0.547002
-0.534677
-0.515605
-0.485756
-0.447693
-0.405688
-0.36341
-0.323266
-0.286423
-0.253199
-0.22349
-0.196961
-0.173286
-0.152137
-0.133219
-0.116273
-0.10107
-0.0874111
-0.0751195
-0.0640372
-0.054023
-0.0449919
-0.0368413
-0.0291276
-0.0221729
-0.530936
-0.51897
-0.499538
-0.469053
-0.430454
-0.388213
-0.346028
-0.30623
-0.269889
-0.237265
-0.208174
-0.182286
-0.159251
-0.138735
-0.120439
-0.104102
-0.0894917
-0.0764075
-0.064672
-0.0541254
-0.0446269
-0.0360954
-0.0284151
-0.0211126
-0.0146217
-0.513229
-0.501655
-0.48192
-0.450906
-0.411921
-0.369606
-0.327665
-0.288345
-0.252621
-0.220676
-0.192289
-0.167109
-0.144772
-0.124941
-0.107314
-0.0916254
-0.0776439
-0.0651661
-0.0540142
-0.0440273
-0.0350657
-0.0270523
-0.0198566
-0.0129776
-0.00696584
-0.493899
-0.48275
-0.462772
-0.431343
-0.392126
-0.349902
-0.308354
-0.269637
-0.234637
-0.20346
-0.175853
-0.151447
-0.129868
-0.110773
-0.0938588
-0.078859
-0.0655406
-0.0537
-0.0431586
-0.0337549
-0.0253509
-0.0178737
-0.0111764
-0.00473314
0.000784755
-0.472973
-0.462281
-0.442128
-0.410404
-0.371112
-0.329139
-0.288125
-0.250139
-0.215964
-0.185644
-0.158892
-0.135323
-0.114558
-0.0962485
-0.0800912
-0.0658187
-0.0531974
-0.0420236
-0.0321189
-0.0233214
-0.0154953
-0.00857149
-0.00238603
0.00360913
0.00861953
-0.450491
-0.440285
-0.420028
-0.388138
-0.348934
-0.307354
-0.267019
-0.229885
-0.196634
-0.167255
-0.14143
-0.118761
-0.0988636
-0.0813885
-0.0660304
-0.0525222
-0.0406308
-0.0301528
-0.0209101
-0.0127408
-0.0055124
0.000841391
0.00650217
0.0120368
0.016527
-0.426498
-0.416807
-0.396524
-0.364605
-0.325646
-0.284581
-0.245085
-0.208915
-0.176684
-0.148326
-0.123496
-0.101788
-0.0828105
-0.0662154
-0.0516972
-0.0389891
-0.0278589
-0.0181043
-0.00954777
-0.00202827
0.0045835
0.0103513
0.0154751
0.0205365
0.0244944
-0.401048
-0.391905
-0.37168
-0.339867
-0.301243
-0.260925
-0.22237
-0.187273
-0.156153
-0.128891
-0.105123
-0.0844316
-0.0664248
-0.0507538
-0.037114
-0.0252401
-0.014901
-0.00589614
0.00195107
0.00880033
0.0147771
0.0199438
0.0245188
0.0290934
0.032508
-0.374203
-0.365649
-0.345576
-0.313965
-0.275836
-0.23641
-0.198928
-0.165006
-0.135082
-0.108989
-0.0863444
-0.0667242
-0.0497353
-0.03503
-0.0223051
-0.0112974
-0.00177769
0.00645271
0.0135688
0.0197283
0.0250524
0.0296034
0.0336179
0.0376907
0.0405519
-0.346032
-0.338115
-0.318284
-0.286909
-0.249541
-0.211105
-0.174813
-0.142165
-0.113516
-0.0886603
-0.067197
-0.0486988
-0.0327724
-0.0190717
-0.00729612
0.0028155
0.0114895
0.0189223
0.0252869
0.0307382
0.0353929
0.0393145
0.0427563
0.0463086
0.0486039
-0.316613
-0.30939
-0.289783
-0.258918
-0.222392
-0.185078
-0.150087
-0.118802
-0.0915027
-0.0679472
-0.04772
-0.0303911
-0.0155685
-0.00290875
0.00788604
0.0170738
0.0248779
0.0314919
0.0370863
0.0418125
0.0457818
0.0490609
0.0519177
0.054926
0.0566344
-0.286021
-0.279588
-0.260202
-0.230029
-0.194468
-0.158399
-0.124812
-0.0949731
-0.0690928
-0.0468954
-0.0279544
-0.0118385
0.00184229
0.013428
0.023213
0.0314517
0.0383639
0.0441399
0.0489472
0.0529326
0.0562015
0.0588265
0.0610882
0.0635268
0.0646234
-0.254332
-0.248726
-0.229764
-0.20032
-0.165851
-0.131142
-0.0990528
-0.0707372
-0.0463386
-0.0255524
-0.00794337
0.00692003
0.0194244
0.0299061
0.0386553
0.0459223
0.051923
0.056844
0.0608494
0.0640796
0.0666334
0.0685947
0.0702573
0.0721024
0.072567
-0.221719
-0.216953
-0.198494
-0.169884
-0.136625
-0.103384
-0.0728785
-0.046155
-0.0232949
-0.00396779
0.0122683
0.0258436
0.0371409
0.0464919
0.0541822
0.0604578
0.0655299
0.0695815
0.0727722
0.0752338
0.077059
0.0783518
0.0794154
0.0806207
0.0803731
-0.188369
-0.184288
-0.166479
-0.138816
-0.10688
-0.0752026
-0.0463593
-0.0212898
-1.86138e-05
0.0178072
0.0326342
0.0448902
0.0549534
0.0631505
0.0697622
0.0750294
0.0791587
0.0823291
0.0846945
0.0863763
0.0874643
0.088094
0.0885502
0.0889658
0.0877116
-0.15428
-0.15091
-0.133825
-0.107216
-0.076705
-0.0466796
-0.0195675
0.0037936
0.0234319
0.0397196
0.0531062
0.0640162
0.0728225
0.0798461
0.0853626
0.0896075
0.0927827
0.0950625
0.0965946
0.0974892
0.0978425
0.0978289
0.0976447
0.0969864
0.094302
-0.119558
-0.116943
-0.100642
-0.0751849
-0.0461937
-0.017898
0.00742259
0.0290286
0.0469966
0.0617153
0.0736354
0.0831772
0.0907076
0.0965421
0.10095
0.104162
0.106374
0.107757
0.10845
0.108555
0.108187
0.107551
0.106664
0.104728
0.100885
-0.0843328
-0.0825034
-0.0670446
-0.0428278
-0.0154404
0.0110577
0.0345354
0.0543473
0.0706144
0.0837389
0.0941716
0.102328
0.108568
0.113201
0.116491
0.118662
0.119906
0.120386
0.120237
0.119556
0.118478
0.117214
0.115539
0.1124
0.10978
-0.0487281
-0.0477079
-0.0331471
-0.0102507
0.0154587
0.0401016
0.061694
0.0796806
0.0942228
0.105734
0.114664
0.121421
0.126361
0.129784
0.13195
0.133075
0.133348
0.132925
0.131933
0.130471
0.128688
0.126756
0.124287
0.12047
0.118605
-0.0128697
-0.0126767
0.000933776
0.0224388
0.046407
0.0691469
0.0888208
0.104959
0.117759
0.127644
0.13506
0.140411
0.144044
0.146254
0.147292
0.147371
0.146672
0.145346
0.143514
0.141277
0.138788
0.13617
0.132979
0.128712
0.126926
0.0231157
0.0224681
0.0350806
0.0551328
0.0773068
0.0981064
0.115838
0.130111
0.141159
0.149411
0.155309
0.15925
0.161575
0.162571
0.162483
0.161517
0.159848
0.157623
0.154956
0.15195
0.148754
0.145451
0.141608
0.136954
0.134944
0.0591008
0.0576034
0.0691757
0.087723
0.108061
0.126893
0.142666
0.155068
0.16436
0.170977
0.175357
0.177891
0.17891
0.178696
0.177486
0.17548
0.172847
0.169728
0.166234
0.162466
0.158564
0.154587
0.150134
0.145078
0.142694
0.0949579
0.0926052
0.103101
0.120101
0.138571
0.155419
0.169227
0.179758
0.187297
0.192284
0.195154
0.196286
0.196007
0.19459
0.192266
0.189228
0.18564
0.181636
0.177323
0.172801
0.168199
0.163562
0.158523
0.15304
0.150203
0.13056
0.12735
0.13674
0.15216
0.168742
0.183597
0.195444
0.20411
0.209907
0.213276
0.214645
0.214388
0.212823
0.210215
0.206788
0.202729
0.198197
0.193319
0.188198
0.182931
0.177638
0.172354
0.166742
0.160816
0.157482
0.165779
0.161714
0.169976
0.183794
0.198477
0.211343
0.221238
0.228056
0.232127
0.233895
0.23378
0.23215
0.229314
0.22553
0.221016
0.215952
0.210488
0.20475
0.198835
0.192834
0.186861
0.180944
0.174769
0.168389
0.164536
0.200491
0.195576
0.202695
0.214897
0.227681
0.23857
0.246534
0.251525
0.253894
0.254083
0.252508
0.249526
0.245439
0.2405
0.234916
0.228864
0.222487
0.215904
0.209208
0.202488
0.195849
0.189311
0.182584
0.175747
0.171361
0.234572
0.228816
0.234782
0.245366
0.256263
0.265196
0.271256
0.274451
0.275148
0.273787
0.270777
0.26647
0.261157
0.255084
0.248454
0.241434
0.234163
0.226754
0.219296
0.211872
0.204581
0.197437
0.190169
0.182878
0.177954
0.2679
0.261315
0.266128
0.2751
0.28413
0.291138
0.295331
0.296767
0.295827
0.29295
0.288539
0.282936
0.276426
0.269248
0.261595
0.253632
0.245489
0.237275
0.229074
0.220964
0.213038
0.205304
0.197509
0.189771
0.184307
0.300357
0.292959
0.296625
0.304002
0.311194
0.316317
0.318686
0.318407
0.315872
0.31152
0.305745
0.298881
0.291208
0.282953
0.274308
0.265428
0.256439
0.247443
0.238521
0.229745
0.221202
0.212895
0.204589
0.196413
0.190412
0.331826
0.323635
0.326167
0.331974
0.337369
0.340655
0.341252
0.339308
0.335227
0.329444
0.322347
0.314263
0.305462
0.296167
0.286561
0.276793
0.266985
0.257234
0.247614
0.238195
0.229055
0.220194
0.211395
0.202793
0.196263
0.362196
0.353234
0.354653
0.358925
0.362572
0.364078
0.362961
0.359409
0.353836
0.346673
0.338301
0.329039
0.319151
0.308853
0.298322
0.2877
0.277103
0.266624
0.256333
0.246295
0.23658
0.227185
0.217913
0.2089
0.20185
0.391359
0.381652
0.381985
0.384766
0.386722
0.386513
0.383747
0.37865
0.371645
0.363157
0.353562
0.343171
0.332241
0.320981
0.309561
0.29812
0.286768
0.275592
0.264658
0.254026
0.24376
0.233855
0.22413
0.214722
0.207165
0.41921
0.408789
0.408069
0.409411
0.409743
0.40789
0.403548
0.396976
0.388602
0.378851
0.368088
0.356619
0.344694
0.332517
0.320251
0.308029
0.295957
0.284116
0.272569
0.261371
0.25058
0.240188
0.230034
0.220247
0.212199
0.445651
0.434547
0.432816
0.432779
0.431561
0.428144
0.422304
0.414332
0.40466
0.393708
0.381838
0.369347
0.356479
0.343432
0.330364
0.317402
0.304646
0.292176
0.280048
0.268313
0.257025
0.246172
0.235612
0.225465
0.216945
0.470588
0.458837
0.456141
0.454794
0.452107
0.447212
0.43996
0.430666
0.419771
0.407689
0.394775
0.381321
0.367565
0.353698
0.339874
0.326214
0.312816
0.299752
0.287077
0.274838
0.26308
0.251793
0.240852
0.230366
0.221394
0.493932
0.481573
0.477964
0.475382
0.471315
0.465036
0.45646
0.445931
0.433891
0.420752
0.406861
0.392507
0.37792
0.363287
0.348756
0.334445
0.320446
0.306827
0.293641
0.280929
0.268733
0.257041
0.245744
0.23494
0.22554
0.515599
0.502674
0.498211
0.494476
0.489125
0.481559
0.471756
0.460081
0.44698
0.43286
0.418065
0.402876
0.387518
0.372175
0.356989
0.342074
0.327517
0.313384
0.299723
0.286574
0.27397
0.261902
0.250277
0.239178
0.229375
0.535515
0.522067
0.516814
0.512014
0.50548
0.496731
0.485801
0.473074
0.458999
0.443979
0.428354
0.412398
0.396333
0.380338
0.36455
0.34908
0.334012
0.319407
0.30531
0.291759
0.278781
0.266368
0.254441
0.24307
0.232893
0.553607
0.539683
0.533707
0.527937
0.520329
0.510506
0.498553
0.484872
0.469913
0.454077
0.437699
0.421048
0.404342
0.387754
0.371421
0.355448
0.339914
0.324881
0.310389
0.296472
0.283154
0.270428
0.258228
0.246609
0.236088
0.569811
0.55546
0.548835
0.542194
0.533623
0.52284
0.509973
0.49544
0.479691
0.463126
0.446074
0.428801
0.411522
0.394405
0.377584
0.36116
0.34521
0.329793
0.314947
0.300703
0.28708
0.274074
0.261629
0.249787
0.238956
0.584071
0.569343
0.562145
0.554738
0.545321
0.533695
0.520027
0.504746
0.488305
0.4711
0.453456
0.435638
0.417855
0.400273
0.383022
0.366202
0.349887
0.334132
0.318975
0.304442
0.290551
0.277298
0.264637
0.252599
0.241491
0.596336
0.581283
0.573592
0.565528
0.555386
0.543039
0.528684
0.512763
0.495729
0.477975
0.459825
0.441539
0.423324
0.405343
0.387723
0.370563
0.353933
0.337888
0.322462
0.30768
0.293559
0.280092
0.267246
0.255038
0.243689
0.606561
0.591238
0.583138
0.574528
0.563785
0.550841
0.535918
0.519467
0.501942
0.483733
0.465163
0.446488
0.427913
0.409601
0.391674
0.37423
0.357338
0.341051
0.325401
0.310411
0.296096
0.282451
0.26945
0.257099
0.245547
0.614711
0.599173
0.590749
0.581708
0.570493
0.557078
0.541708
0.524838
0.506925
0.488358
0.469454
0.450472
0.431612
0.413036
0.394866
0.377195
0.360095
0.343613
0.327784
0.312629
0.298158
0.28437
0.271245
0.258778
0.247063
0.620757
0.605061
0.5964
0.587047
0.575488
0.561731
0.546035
0.528861
0.510665
0.491835
0.472688
0.453479
0.43441
0.415639
0.397289
0.379452
0.362196
0.345571
0.329608
0.314328
0.299741
0.285845
0.272626
0.260074
0.248237
0.624678
0.60888
0.600072
0.590525
0.578754
0.564786
0.548888
0.531525
0.513151
0.494156
0.474855
0.455503
0.436301
0.417405
0.398939
0.380994
0.363637
0.346917
0.330867
0.315505
0.300841
0.286873
0.273591
0.260982
0.249065
0.626459
0.610617
0.601752
0.592132
0.580281
0.566233
0.550258
0.53282
0.514376
0.495314
0.47595
0.456538
0.437278
0.418329
0.399812
0.381817
0.364415
0.347651
0.331559
0.316157
0.301455
0.287452
0.274137
0.261498
0.249535
0.626094
0.610265
0.601434
0.591862
0.580065
0.566068
0.55014
0.532744
0.514337
0.495307
0.47597
0.456581
0.437342
0.418409
0.399905
0.381922
0.364528
0.347771