/*--------------------------------*- C++ -*----------------------------------*\
  =========                 |
  \\      /  F ield         | OpenFOAM: The Open Source CFD Toolbox
   \\    /   O peration     | Website:  https://openfoam.org
    \\  /    A nd           | Version:  7
     \\/     M anipulation  |
\*---------------------------------------------------------------------------*/
FoamFile
{
    version     2.0;
    format      ascii;
    class       volVectorField;
    location    "145";
    object      U;
}
// * * * * * * * * * * * * * * * * * * * * * * * * * * * * * * * * * * * * * //

dimensions      [0 1 -1 0 0 0 0];

internalField   nonuniform List<vector> 
31800
(
(-0.000392112 -0.022356 -1.31075e-20)
(-0.00338936 -0.0644671 9.04878e-21)
(-0.0101235 -0.103824 -2.94491e-21)
(-0.0193413 -0.138998 1.30726e-20)
(-0.0306213 -0.169264 1.45887e-20)
(-0.0435351 -0.194658 -4.77689e-21)
(-0.057593 -0.215853 -3.4501e-21)
(-0.0723012 -0.233934 2.44424e-20)
(-0.0871824 -0.250119 -2.77992e-21)
(-0.101805 -0.265487 4.02262e-21)
(-0.115802 -0.2808 1.38488e-20)
(-0.128865 -0.296425 1.36321e-20)
(-0.14073 -0.312341 -8.67056e-21)
(-0.151144 -0.328193 -1.08759e-20)
(-0.159832 -0.343342 -3.85707e-22)
(-0.166477 -0.356905 -1.41353e-20)
(-0.1707 -0.367762 1.10863e-20)
(-0.172061 -0.374569 1.8977e-20)
(-0.17007 -0.375766 -7.30053e-21)
(-0.164224 -0.369639 3.35007e-20)
(-0.154062 -0.354423 2.14289e-21)
(-0.139249 -0.328482 -2.89179e-21)
(-0.119638 -0.29058 6.47112e-21)
(-0.095219 -0.240204 1.32005e-20)
(-0.066052 -0.177423 8.12429e-21)
(-7.43075e-06 -0.0208541 1.34953e-20)
(-0.00265366 -0.0606944 7.40832e-21)
(-0.00965902 -0.0982799 -7.96192e-21)
(-0.0194904 -0.132056 -3.02105e-20)
(-0.03162 -0.161251 2.23501e-20)
(-0.0455352 -0.185885 -1.09397e-20)
(-0.0606807 -0.206619 6.11082e-22)
(-0.0765238 -0.224524 -1.87484e-20)
(-0.0925737 -0.240789 3.93101e-21)
(-0.108407 -0.256457 2.65777e-21)
(-0.123681 -0.272254 -5.83358e-20)
(-0.138122 -0.288519 -1.01181e-21)
(-0.151507 -0.305221 6.59431e-20)
(-0.163623 -0.322013 -3.33084e-20)
(-0.174238 -0.338278 -6.34012e-21)
(-0.183077 -0.353171 1.40063e-20)
(-0.189801 -0.365615 -2.97777e-20)
(-0.193999 -0.374304 -1.44618e-21)
(-0.195197 -0.377709 3.05574e-20)
(-0.192877 -0.374116 -1.12542e-19)
(-0.186528 -0.36172 -3.52546e-20)
(-0.175733 -0.338797 5.44636e-20)
(-0.160231 -0.303995 2.66561e-20)
(-0.139784 -0.2566 4.80999e-21)
(-0.114692 -0.196438 -1.18013e-20)
(0.000291404 -0.0190916 -2.79972e-20)
(-0.00209744 -0.0563252 -7.54462e-22)
(-0.0093849 -0.0919465 -3.81458e-20)
(-0.019783 -0.124232 5.68496e-20)
(-0.0326672 -0.152334 -6.43242e-20)
(-0.0474497 -0.176228 -6.11334e-21)
(-0.0635162 -0.196538 -5.85938e-21)
(-0.0803009 -0.214301 1.07893e-20)
(-0.097303 -0.230664 3.55669e-20)
(-0.114108 -0.246627 -6.02669e-21)
(-0.130396 -0.262878 -1.08757e-20)
(-0.145927 -0.279732 3.88129e-20)
(-0.160509 -0.297152 -6.83404e-21)
(-0.173969 -0.314799 3.81169e-20)
(-0.186116 -0.332088 -7.76772e-20)
(-0.196714 -0.348211 -3.19578e-20)
(-0.205469 -0.362142 5.3935e-21)
(-0.212011 -0.372626 -1.0659e-19)
(-0.215898 -0.378179 2.90631e-20)
(-0.216624 -0.377107 6.80769e-20)
(-0.213656 -0.36759 -4.17001e-20)
(-0.206533 -0.347832 -1.04443e-19)
(-0.194912 -0.316362 -5.3402e-20)
(-0.178336 -0.272258 -9.76395e-20)
(-0.157258 -0.214991 -5.33102e-20)
(0.000489802 -0.0170943 1.30274e-20)
(-0.00174547 -0.0514206 -2.17738e-20)
(-0.00931882 -0.0849067 6.92785e-20)
(-0.0202222 -0.115624 -5.54411e-20)
(-0.0337491 -0.142619 -1.45651e-20)
(-0.0492468 -0.165793 -3.96699e-21)
(-0.0660513 -0.185715 4.55607e-20)
(-0.0835695 -0.203365 3.2546e-20)
(-0.101293 -0.219838 -5.72175e-20)
(-0.118817 -0.236086 2.41482e-20)
(-0.135842 -0.252758 1.27093e-21)
(-0.152153 -0.270149 -1.0934e-19)
(-0.16759 -0.288215 -3.58921e-20)
(-0.182011 -0.306633 3.00333e-21)
(-0.19526 -0.324848 2.42982e-20)
(-0.207141 -0.342093 1.11527e-19)
(-0.217406 -0.357396 1.23551e-20)
(-0.225733 -0.36956 1.07161e-19)
(-0.231726 -0.377155 1.05766e-19)
(-0.234916 -0.37853 -1.30793e-20)
(-0.234782 -0.371867 5.03455e-20)
(-0.230859 -0.355327 -1.62469e-20)
(-0.222765 -0.327319 6.20904e-20)
(-0.209824 -0.286713 2.08105e-19)
(-0.192576 -0.23262 3.39968e-20)
(0.000575951 -0.0148938 2.2239e-20)
(-0.00161712 -0.046052 -8.10582e-20)
(-0.00947308 -0.0772552 1.04819e-19)
(-0.0208073 -0.106338 3.86718e-20)
(-0.0348492 -0.132216 3.02191e-20)
(-0.0508951 -0.154693 3.21764e-20)
(-0.0682406 -0.174256 -1.71981e-19)
(-0.0862712 -0.191816 6.43216e-20)
(-0.104474 -0.208406 6.69192e-20)
(-0.122451 -0.224924 -9.90375e-20)
(-0.139921 -0.241983 1.02843e-19)
(-0.156689 -0.259856 5.63269e-20)
(-0.17262 -0.278499 7.02774e-20)
(-0.187596 -0.297604 -4.78646e-20)
(-0.201491 -0.316646 -1.0685e-20)
(-0.214146 -0.3349 2.33049e-19)
(-0.225356 -0.351447 -1.01023e-19)
(-0.234852 -0.365151 7.77817e-20)
(-0.242297 -0.374645 -1.90786e-19)
(-0.247273 -0.378332 -7.5148e-20)
(-0.249303 -0.374422 7.32019e-20)
(-0.247955 -0.361047 1.25325e-19)
(-0.242854 -0.336516 1.83652e-20)
(-0.233112 -0.299502 -1.61644e-19)
(-0.219302 -0.248831 -1.07771e-19)
(0.00054128 -0.0125269 -8.7494e-20)
(-0.00172557 -0.0403007 -2.84496e-20)
(-0.00985371 -0.0690971 -6.20867e-20)
(-0.0215325 -0.0964914 -6.02003e-20)
(-0.035949 -0.121245 4.32792e-20)
(-0.0523629 -0.143042 -7.77677e-20)
(-0.0700406 -0.162271 -5.09125e-20)
(-0.0883513 -0.179758 -2.51324e-19)
(-0.106779 -0.196465 1.11529e-20)
(-0.124933 -0.213236 -2.83339e-21)
(-0.142544 -0.230645 -1.94642e-19)
(-0.159432 -0.248946 -6.69891e-20)
(-0.17548 -0.268097 -8.26764e-20)
(-0.190588 -0.287807 1.6074e-19)
(-0.204653 -0.307578 4.64645e-20)
(-0.217547 -0.326727 -1.27172e-19)
(-0.229106 -0.344384 -1.40974e-19)
(-0.239112 -0.359471 3.77696e-20)
(-0.24729 -0.370691 1.54283e-19)
(-0.253292 -0.376509 -3.12963e-20)
(-0.256699 -0.375177 -1.95025e-20)
(-0.257142 -0.364822 -9.44383e-20)
(-0.254295 -0.343666 -1.14141e-19)
(-0.247081 -0.31021 9.46939e-20)
(-0.236018 -0.263119 6.73052e-20)
(0.000380924 -0.0100342 4.5333e-20)
(-0.00207717 -0.0342553 5.36273e-20)
(-0.0104602 -0.0605454 -4.24157e-20)
(-0.0223873 -0.0862063 -8.80622e-20)
(-0.037027 -0.109829 1.37178e-20)
(-0.0536185 -0.130959 1.03467e-19)
(-0.0714094 -0.149871 1.48865e-19)
(-0.0897588 -0.167296 2.04437e-19)
(-0.108148 -0.184116 3.60834e-20)
(-0.126193 -0.201117 4.69408e-20)
(-0.143628 -0.218837 5.7196e-20)
(-0.160288 -0.237513 2.21421e-19)
(-0.176062 -0.257106 -1.28525e-20)
(-0.190863 -0.27734 -2.85279e-19)
(-0.204605 -0.297745 2.05708e-19)
(-0.217185 -0.317675 8.14921e-20)
(-0.22847 -0.336303 2.57546e-19)
(-0.238296 -0.352611 -1.0587e-19)
(-0.246448 -0.365364 -1.18535e-19)
(-0.25265 -0.373096 3.33988e-19)
(-0.256556 -0.374114 -1.07896e-19)
(-0.257868 -0.366561 -1.63588e-19)
(-0.256341 -0.348582 -3.77148e-20)
(-0.250756 -0.318518 -1.24266e-19)
(-0.241391 -0.275022 2.56745e-20)
(9.39882e-05 -0.0074595 1.12289e-20)
(-0.00267103 -0.0280099 -2.27394e-20)
(-0.0112851 -0.0517184 4.64309e-21)
(-0.0233564 -0.07561 -1.61485e-19)
(-0.0380594 -0.0980942 -1.25294e-19)
(-0.0546298 -0.118566 -2.36407e-20)
(-0.0723074 -0.137171 -6.1861e-20)
(-0.0904459 -0.154535 -1.11536e-19)
(-0.108526 -0.171458 -2.46366e-20)
(-0.126163 -0.188665 -1.29521e-20)
(-0.143099 -0.206655 -1.20323e-19)
(-0.159168 -0.225653 5.2484e-20)
(-0.174264 -0.245622 3.90382e-20)
(-0.188306 -0.266303 2.10034e-19)
(-0.201217 -0.28725 -3.86624e-21)
(-0.21291 -0.307848 -1.26506e-19)
(-0.223284 -0.327312 -1.35792e-20)
(-0.232217 -0.344671 5.30717e-20)
(-0.239555 -0.358752 2.16401e-19)
(-0.245095 -0.368162 -1.61089e-19)
(-0.248566 -0.371271 4.02993e-19)
(-0.249737 -0.366255 1.61834e-19)
(-0.248458 -0.35119 -1.10956e-19)
(-0.243436 -0.324248 2.23066e-19)
(-0.234351 -0.284193 1.16004e-19)
(-0.000316334 -0.00484823 1.40341e-20)
(-0.00349888 -0.021662 7.0624e-20)
(-0.0123141 -0.0427382 2.02308e-19)
(-0.0244193 -0.0648328 2.5211e-19)
(-0.03902 -0.0861695 1.50503e-19)
(-0.0553649 -0.105983 -1.06151e-19)
(-0.0726964 -0.124284 2.58528e-19)
(-0.0903679 -0.141585 2.97654e-20)
(-0.107859 -0.158595 -1.54952e-19)
(-0.124784 -0.175978 1.67155e-20)
(-0.140883 -0.194198 2.90456e-19)
(-0.155987 -0.213465 -3.11046e-19)
(-0.169987 -0.233747 -1.77997e-19)
(-0.182802 -0.254798 -3.58568e-20)
(-0.194358 -0.276195 -2.89768e-19)
(-0.204579 -0.297351 -1.8736e-19)
(-0.213388 -0.317513 3.27109e-20)
(-0.2207 -0.335754 -3.81023e-19)
(-0.22642 -0.350955 3.50296e-20)
(-0.230419 -0.361791 -1.72538e-19)
(-0.232502 -0.36671 -2.07692e-19)
(-0.232493 -0.363942 1.77997e-19)
(-0.23033 -0.351512 1.91845e-19)
(-0.224772 -0.327376 -1.3813e-19)
(-0.214239 -0.290463 1.69731e-19)
(-0.000842807 -0.00224636 -1.68244e-19)
(-0.00454527 -0.0153102 1.24194e-19)
(-0.0135265 -0.0337281 -8.5192e-21)
(-0.0255512 -0.0540059 5.03888e-20)
(-0.0398805 -0.0741846 4.78469e-20)
(-0.0557917 -0.093336 2.13275e-19)
(-0.0725402 -0.111327 -1.54957e-19)
(-0.0894834 -0.128552 -2.90876e-19)
(-0.106099 -0.14563 1.4625e-19)
(-0.121998 -0.163158 1.36837e-19)
(-0.136912 -0.181566 -4.6309e-19)
(-0.150665 -0.20105 3.25875e-19)
(-0.163138 -0.221581 4.95502e-19)
(-0.174242 -0.242927 3.41159e-20)
(-0.1839 -0.264684 -8.73184e-20)
(-0.192045 -0.286288 2.46964e-19)
(-0.198616 -0.307011 -1.12854e-19)
(-0.203566 -0.32596 4.93713e-19)
(-0.206852 -0.342064 -4.24044e-19)
(-0.208422 -0.354063 7.36373e-20)
(-0.208166 -0.360493 -3.66908e-20)
(-0.205959 -0.359663 -1.16913e-19)
(-0.2018 -0.349598 -1.06938e-19)
(-0.194732 -0.327982 8.14979e-20)
(-0.180856 -0.29385 -7.29257e-22)
(-0.00147436 0.000300885 1.10446e-19)
(-0.00578789 -0.00905164 -7.97406e-20)
(-0.014895 -0.0248099 6.68224e-20)
(-0.026723 -0.0432597 -2.23816e-19)
(-0.0406105 -0.0622683 -4.93594e-20)
(-0.0558786 -0.0807463 2.54974e-20)
(-0.071805 -0.0984158 -5.81196e-20)
(-0.0877545 -0.115549 -9.67105e-20)
(-0.103203 -0.132668 3.11587e-20)
(-0.117754 -0.150309 -1.61282e-19)
(-0.131126 -0.168862 3.00536e-19)
(-0.143128 -0.188511 -6.88901e-20)
(-0.153625 -0.209229 -1.76313e-19)
(-0.162517 -0.230795 -1.80718e-19)
(-0.169718 -0.252822 2.37369e-19)
(-0.175162 -0.274761 1.2763e-19)
(-0.178804 -0.295905 4.97856e-20)
(-0.18063 -0.315384 -4.10145e-19)
(-0.180652 -0.332165 4.13166e-19)
(-0.178898 -0.345047 -1.3031e-19)
(-0.175358 -0.352657 -5.75682e-20)
(-0.169975 -0.353418 -3.62418e-20)
(-0.162755 -0.345441 -3.5916e-20)
(-0.153468 -0.326144 1.25104e-19)
(-0.134361 -0.294485 -1.82934e-19)
(-0.0021964 0.00275025 -4.09176e-20)
(-0.00719827 -0.00298028 1.79787e-19)
(-0.0163871 -0.0161026 -2.56836e-19)
(-0.027902 -0.0327218 1.03058e-19)
(-0.0411787 -0.050548 5.79979e-20)
(-0.0555951 -0.0683365 -8.71171e-20)
(-0.0704596 -0.0856658 2.54993e-19)
(-0.0851475 -0.102684 6.13396e-20)
(-0.0991328 -0.119819 3.06609e-20)
(-0.112006 -0.137537 2.53708e-19)
(-0.123468 -0.156194 -1.04617e-19)
(-0.133307 -0.175956 1.11306e-19)
(-0.141368 -0.196799 -1.17501e-19)
(-0.147529 -0.218511 -7.86564e-21)
(-0.151693 -0.240716 -1.27097e-19)
(-0.153793 -0.262877 -4.3261e-19)
(-0.153796 -0.284298 8.75113e-20)
(-0.151719 -0.304123 3.2938e-19)
(-0.147633 -0.321343 -1.09717e-19)
(-0.141652 -0.334806 5.05234e-19)
(-0.133883 -0.343227 -2.65456e-19)
(-0.124382 -0.345165 -6.5143e-20)
(-0.113054 -0.338923 -9.90194e-20)
(-0.101173 -0.321802 -1.63703e-21)
(-0.0751123 -0.292393 -7.31351e-20)
(-0.00299131 0.00506155 -1.243e-19)
(-0.00874238 0.0028151 -1.8499e-19)
(-0.0179656 -0.00771969 -1.01039e-19)
(-0.0290525 -0.0225156 9.42371e-20)
(-0.0415525 -0.0391477 2.9992e-20)
(-0.0549116 -0.056227 1.73844e-20)
(-0.0684758 -0.0731927 6.62626e-20)
(-0.0816337 -0.0900706 -3.24691e-19)
(-0.0938553 -0.10719 1.08992e-19)
(-0.104716 -0.124952 -2.23113e-19)
(-0.113893 -0.14367 -8.24422e-20)
(-0.121148 -0.163497 -1.09785e-19)
(-0.126297 -0.184405 -2.32814e-19)
(-0.129196 -0.20619 4.76875e-19)
(-0.129731 -0.228481 2.68078e-19)
(-0.127829 -0.250749 7.18415e-20)
(-0.12347 -0.2723 2.18803e-19)
(-0.116705 -0.292282 -3.0364e-19)
(-0.107667 -0.309696 -6.94672e-20)
(-0.0965599 -0.323423 -3.21006e-19)
(-0.0836199 -0.332249 1.19015e-19)
(-0.0690944 -0.334873 2.33562e-19)
(-0.0525657 -0.329871 9.86096e-20)
(-0.0379771 -0.314747 -1.56692e-19)
(-0.00367434 -0.287039 1.62158e-19)
(-0.00383928 0.00719882 -4.54496e-20)
(-0.010382 0.00825348 1.26524e-20)
(-0.0195889 0.000233097 1.27072e-19)
(-0.0301366 -0.012758 2.29065e-19)
(-0.0416996 -0.028187 -1.5398e-19)
(-0.0538006 -0.0445355 1.49977e-19)
(-0.0658293 -0.0611111 -1.17854e-19)
(-0.0771894 -0.0778196 4.45656e-19)
(-0.0873462 -0.0948934 -3.13814e-19)
(-0.0958554 -0.112664 6.77098e-20)
(-0.102367 -0.131404 2.93654e-19)
(-0.106609 -0.151249 -4.17194e-20)
(-0.108366 -0.172165 3.07669e-20)
(-0.107464 -0.193951 -3.89455e-19)
(-0.103771 -0.216241 -3.27228e-19)
(-0.0972086 -0.238501 -1.28317e-20)
(-0.087771 -0.260036 -3.49848e-19)
(-0.0755485 -0.279986 1.19311e-19)
(-0.0607411 -0.29735 -1.67934e-19)
(-0.0436562 -0.311021 1.97848e-19)
(-0.0246521 -0.319839 -2.56575e-19)
(-0.00428381 -0.322622 1.29106e-19)
(0.0185877 -0.318181 -9.57192e-20)
(0.0361647 -0.304946 1.2078e-19)
(0.0789599 -0.277217 -1.02118e-20)
(-0.00471875 0.00913137 2.44731e-19)
(-0.0120759 0.0132635 6.34564e-20)
(-0.0212136 0.00765929 -1.4234e-19)
(-0.0311152 -0.00355846 -1.71495e-19)
(-0.0415877 -0.0177798 1.15977e-19)
(-0.0522365 -0.033376 -4.28236e-19)
(-0.0624995 -0.0495334 6.13841e-19)
(-0.0717973 -0.0660422 1.22111e-19)
(-0.0795889 -0.083039 2.00428e-19)
(-0.0854079 -0.100785 2.4615e-19)
(-0.0888716 -0.119512 1.56375e-19)
(-0.0896708 -0.139331 -1.17563e-19)
(-0.0875529 -0.160203 -5.43584e-21)
(-0.082314 -0.181924 -5.79567e-20)
(-0.0738028 -0.204125 -1.685e-19)
(-0.0619384 -0.226267 3.70051e-19)
(-0.046737 -0.247643 7.3047e-19)
(-0.0283379 -0.267378 3.72616e-20)
(-0.00702262 -0.284458 2.30468e-19)
(0.0167834 -0.297776 -1.13901e-19)
(0.0426166 -0.306197 1.25368e-19)
(0.069455 -0.308649 -6.75769e-19)
(0.0995178 -0.303863 2.74676e-19)
(0.121209 -0.292629 1.45849e-19)
(0.172051 -0.263339 -7.77704e-20)
(-0.00560729 0.0108343 -1.47832e-19)
(-0.013781 0.0177839 -2.55775e-19)
(-0.0227942 0.0144736 2.46617e-19)
(-0.0319484 0.00498349 1.61863e-19)
(-0.0411853 -0.00803275 8.88222e-20)
(-0.0501962 -0.0228576 3.11556e-19)
(-0.0584701 -0.0385689 -3.23949e-19)
(-0.0654456 -0.054848 -3.00644e-19)
(-0.0705748 -0.0717376 -1.97648e-19)
(-0.0733665 -0.0894293 -4.69529e-19)
(-0.0734022 -0.108109 9.23643e-20)
(-0.070332 -0.127864 -3.75227e-20)
(-0.0638649 -0.148644 6.73531e-19)
(-0.0537668 -0.170237 2.762e-19)
(-0.039871 -0.192269 1.9533e-19)
(-0.0221035 -0.214188 -6.11553e-20)
(-0.000515097 -0.23527 -3.40706e-19)
(0.0246863 -0.254618 -2.64094e-19)
(0.0531158 -0.271201 -2.90095e-19)
(0.0841989 -0.283902 1.98842e-19)
(0.117397 -0.291584 3.38456e-19)
(0.151125 -0.29334 3.35869e-19)
(0.188596 -0.287518 -2.77136e-19)
(0.214943 -0.277518 9.7159e-20)
(0.274973 -0.246872 9.82327e-20)
(-0.0064825 0.0122892 -3.93398e-19)
(-0.0154535 0.0217658 2.19304e-19)
(-0.0242853 0.0206032 -3.76178e-19)
(-0.0325968 0.0127793 4.64654e-19)
(-0.0404619 0.000956292 -4.4515e-19)
(-0.0476586 -0.0130829 -1.34017e-19)
(-0.0537283 -0.0283225 -2.51569e-19)
(-0.0581281 -0.0443435 1.42265e-19)
(-0.060303 -0.0610979 -2.45468e-19)
(-0.0597353 -0.0787072 2.69046e-19)
(-0.055969 -0.0973102 -3.54482e-19)
(-0.0486127 -0.116967 -2.64271e-19)
(-0.0373374 -0.137611 1.27739e-20)
(-0.0218833 -0.159019 -4.01197e-19)
(-0.00207748 -0.180805 9.40905e-21)
(0.0221323 -0.202402 -3.93213e-19)
(0.0506378 -0.223061 -2.55451e-20)
(0.0831332 -0.241864 -4.01249e-19)
(0.119098 -0.257757 1.35398e-19)
(0.157762 -0.269617 5.33404e-19)
(0.198515 -0.276285 -4.76494e-19)
(0.239109 -0.277137 2.03428e-19)
(0.284094 -0.269832 1.92116e-19)
(0.314257 -0.259995 -7.75374e-20)
(0.384008 -0.228621 2.28117e-20)
(-0.00732282 0.0134845 2.03827e-19)
(-0.0170509 0.0251729 -5.7301e-20)
(-0.0256419 0.0259896 1.27492e-19)
(-0.0330215 0.019753 -3.74178e-19)
(-0.0393883 0.00909965 6.0462e-19)
(-0.0446044 -0.00414687 3.94127e-20)
(-0.0482639 -0.0188938 4.42333e-19)
(-0.0498428 -0.0346309 -2.31835e-19)
(-0.0487783 -0.0512242 1.5851e-19)
(-0.0445268 -0.068726 2.10088e-19)
(-0.0365941 -0.0872262 1.91793e-19)
(-0.0245492 -0.106754 6.12308e-19)
(-0.00802939 -0.127221 -1.52104e-19)
(0.0132419 -0.14839 -1.56154e-19)
(0.0394287 -0.169857 -1.18507e-19)
(0.0705378 -0.191034 -1.08126e-20)
(0.106372 -0.211147 -2.36525e-19)
(0.146485 -0.229254 2.05695e-19)
(0.190181 -0.244281 -2.56189e-19)
(0.236434 -0.255117 9.42095e-20)
(0.284555 -0.26055 -1.24252e-19)
(0.33152 -0.260385 1.52452e-20)
(0.383437 -0.251283 -4.46447e-19)
(0.416587 -0.24133 4.80201e-20)
(0.494513 -0.209077 9.68988e-21)
(-0.00810828 0.0144153 2.75275e-19)
(-0.0185326 0.0279826 -1.86207e-19)
(-0.0268211 0.0305889 -1.3224e-19)
(-0.033185 0.0258426 -7.94777e-20)
(-0.0379362 0.0163214 -2.62368e-19)
(-0.0410154 0.00386512 -4.47359e-19)
(-0.042068 -0.0103741 -1.46841e-19)
(-0.0405889 -0.0258053 5.04556e-19)
(-0.0360084 -0.0422144 -1.57386e-19)
(-0.0277574 -0.0595857 -3.44914e-19)
(-0.0153059 -0.0779585 -2.10983e-19)
(0.00181217 -0.0973259 -6.26594e-19)
(0.0239853 -0.117577 -6.84792e-19)
(0.0514922 -0.138451 5.10819e-19)
(0.0844654 -0.159524 1.02355e-19)
(0.122835 -0.180182 8.21482e-20)
(0.16627 -0.199625 8.23662e-19)
(0.214135 -0.216888 1.17935e-19)
(0.2655 -0.230882 7.07807e-19)
(0.319034 -0.240544 -7.85916e-19)
(0.373927 -0.244568 3.40231e-19)
(0.426408 -0.243349 -2.61125e-19)
(0.483864 -0.232369 3.53142e-19)
(0.519187 -0.222202 -4.5235e-19)
(0.602194 -0.189169 7.41607e-20)
(-0.00882126 0.0150838 -6.91458e-20)
(-0.0198615 0.0301853 -1.50155e-19)
(-0.0277825 0.0343727 -1.39641e-19)
(-0.0330513 0.0310009 4.78488e-20)
(-0.0360775 0.0225591 -7.59444e-20)
(-0.0368728 0.0108792 2.82769e-19)
(-0.0351307 -0.00284469 -1.03305e-19)
(-0.0303648 -0.0179529 -2.18128e-19)
(-0.0219994 -0.0341574 -8.8646e-20)
(-0.00944254 -0.0513758 4.26982e-21)
(0.00786785 -0.0695961 5.80458e-19)
(0.0304247 -0.0887714 -5.11605e-19)
(0.0586296 -0.108762 7.40411e-19)
(0.0927436 -0.129282 -2.11728e-19)
(0.132836 -0.149877 -3.63949e-19)
(0.178718 -0.169907 3.0009e-19)
(0.229875 -0.188546 -3.14662e-19)
(0.285418 -0.204811 -5.10086e-19)
(0.344124 -0.217614 -1.81104e-19)
(0.404307 -0.225965 1.4822e-19)
(0.464967 -0.228468 2.18293e-19)
(0.521792 -0.226149 3.72642e-19)
(0.582755 -0.21349 6.64922e-21)
(0.619371 -0.202964 1.88675e-19)
(0.703508 -0.169653 -3.84358e-20)
(-0.009447 0.015498 -3.42044e-20)
(-0.0210048 0.031785 3.29051e-19)
(-0.028489 0.0373286 3.39858e-19)
(-0.0325855 0.0351966 -1.52686e-19)
(-0.0337833 0.0277647 1.07415e-19)
(-0.0321552 0.0168346 -4.05341e-19)
(-0.027438 0.00362485 8.12731e-20)
(-0.0191632 -0.0111481 6.5656e-20)
(-0.00675048 -0.0271291 -1.9397e-19)
(0.0104108 -0.0441716 -5.40024e-20)
(0.0329085 -0.06221 -7.33479e-19)
(0.0612527 -0.081157 2.32023e-19)
(0.0958362 -0.100834 -3.42343e-20)
(0.136878 -0.120926 -9.90421e-21)
(0.184345 -0.140945 -3.28351e-20)
(0.237877 -0.160222 -1.01197e-21)
(0.296709 -0.177906 -2.17347e-20)
(0.359635 -0.193011 3.57329e-19)
(0.425071 -0.204461 -2.87808e-19)
(0.490956 -0.211375 2.50291e-19)
(0.556006 -0.212316 -3.28279e-19)
(0.615716 -0.20883 -1.40595e-19)
(0.677784 -0.194894 2.21115e-20)
(0.714672 -0.183866 -1.7647e-19)
(0.795857 -0.150949 -4.4568e-20)
(-0.00997409 0.0156721 -3.30886e-19)
(-0.0219346 0.0327976 -4.09982e-20)
(-0.0289069 0.0394593 -4.2381e-19)
(-0.031754 0.0384152 -3.41756e-19)
(-0.0310231 0.0319066 4.55019e-19)
(-0.0268362 0.0216859 3.13404e-19)
(-0.018968 0.0089799 -1.39046e-19)
(-0.00696644 -0.00545034 -1.2688e-19)
(0.00975208 -0.0211893 -9.5036e-20)
(0.0318128 -0.0380302 8.21296e-19)
(0.0598168 -0.0558516 3.14944e-19)
(0.0942792 -0.0745211 4.48422e-19)
(0.13556 -0.093817 -2.45487e-20)
(0.183799 -0.113387 8.35134e-20)
(0.238809 -0.132709 2.32273e-19)
(0.299997 -0.151083 -5.35551e-19)
(0.366276 -0.167643 8.19798e-19)
(0.436049 -0.181411 7.89786e-20)
(0.507316 -0.191355 -2.41191e-19)
(0.577649 -0.196718 -3.33657e-19)
(0.64541 -0.196127 -1.67873e-19)
(0.706295 -0.191425 3.06578e-19)
(0.766993 -0.176698 -1.38485e-20)
(0.802956 -0.165137 1.15649e-19)
(0.877584 -0.13326 1.14472e-19)
(-0.0103947 0.0156246 2.5304e-19)
(-0.0226283 0.0332501 2.65289e-20)
(-0.029006 0.0407826 -5.88444e-20)
(-0.030523 0.0406583 5.9483e-20)
(-0.0277623 0.0349701 -4.34082e-19)
(-0.0208821 0.0254051 5.83389e-19)
(-0.00968747 0.0131835 -5.73471e-22)
(0.00625975 -0.000900911 4.815e-19)
(0.0275425 -0.0163787 1.99273e-20)
(0.0547961 -0.0329857 -1.655e-19)
(0.0886228 -0.0505431 2.63733e-19)
(0.129519 -0.0688679 -8.88529e-19)
(0.177785 -0.0876933 -5.4617e-19)
(0.23343 -0.106623 -2.69204e-19)
(0.296056 -0.1251 -1.13671e-19)
(0.364757 -0.142395 9.32775e-21)
(0.438047 -0.157639 -5.34161e-19)
(0.513873 -0.16989 1.91198e-19)
(0.58978 -0.178189 6.95073e-19)
(0.66302 -0.181918 1.81227e-19)
(0.731605 -0.179888 3.82787e-19)
(0.791775 -0.173997 -3.34985e-19)
(0.84881 -0.158962 -6.16222e-20)
(0.882549 -0.146991 -9.88868e-20)
(0.947891 -0.116699 -4.20275e-19)
(-0.0107044 0.015378 -2.38816e-19)
(-0.0230686 0.0331796 1.20925e-19)
(-0.0287591 0.0413302 2.14979e-19)
(-0.0288578 0.0419444 7.53257e-19)
(-0.0239608 0.036959 2.85014e-19)
(-0.0142478 0.0279831 -6.3692e-19)
(0.000453289 0.0162181 -1.62012e-19)
(0.02057 0.00248048 -8.4129e-20)
(0.0466826 -0.0127133 -2.83674e-19)
(0.079426 -0.0290429 -9.25567e-20)
(0.11939 -0.0462732 -1.9438e-19)
(0.167024 -0.0641653 7.10648e-19)
(0.222525 -0.0824026 8.45396e-19)
(0.285716 -0.100543 4.21448e-19)
(0.355911 -0.117993 -2.13795e-19)
(0.431806 -0.134008 -1.44952e-19)
(0.511434 -0.147735 3.10416e-19)
(0.59224 -0.158292 -6.41752e-20)
(0.671317 -0.164843 -7.67436e-21)
(0.745683 -0.166909 1.33486e-19)
(0.81311 -0.163596 -1.82043e-19)
(0.870628 -0.156648 -2.72881e-19)
(0.922079 -0.141749 -1.50065e-19)
(0.952351 -0.129618 1.84513e-19)
(1.00674 -0.101342 4.65014e-19)
(-0.0109019 0.0149575 1.91037e-19)
(-0.0232428 0.0326305 6.51243e-19)
(-0.0281411 0.0411459 2.61048e-19)
(-0.0267214 0.0423079 -2.31009e-19)
(-0.0195703 0.0378952 3.25071e-19)
(-0.0068745 0.0294317 3.60268e-19)
(0.0115247 0.0180895 4.07371e-19)
(0.0360464 0.00470011 -2.19134e-20)
(0.0672657 -0.0101798 3.25146e-19)
(0.105805 -0.0261753 -1.00603e-18)
(0.152221 -0.0429936 5.7132e-19)
(0.206879 -0.0603375 -3.03679e-19)
(0.26982 -0.0778369 -7.64514e-19)
(0.340605 -0.0950043 -5.48012e-19)
(0.41817 -0.111217 8.81392e-19)
(0.500724 -0.125732 -2.94379e-19)
(0.585752 -0.137742 -1.39536e-19)
(0.670182 -0.146462 9.86417e-20)
(0.750717 -0.151217 -4.90351e-19)
(0.824276 -0.15167 3.53932e-19)
(0.888596 -0.147284 -4.99423e-20)
(0.941651 -0.139512 3.4663e-19)
(0.986095 -0.125151 3.42329e-19)
(1.0119 -0.113168 -1.00683e-19)
(1.05471 -0.0872266 -1.62457e-19)
(-0.0109892 0.0143899 -1.00033e-19)
(-0.023142 0.0316527 -3.68992e-19)
(-0.0271278 0.0402841 9.97409e-21)
(-0.0240726 0.041798 -1.87587e-19)
(-0.0145324 0.0378198 -5.56643e-19)
(0.00131397 0.0297846 -2.90335e-19)
(0.023621 0.0188289 1.60232e-19)
(0.052802 0.00579222 -5.04308e-19)
(0.089422 -0.00873294 3.95321e-20)
(0.134076 -0.0243193 2.50848e-19)
(0.187256 -0.0406149 -7.24699e-19)
(0.249198 -0.0572629 -2.38699e-19)
(0.319714 -0.0738398 6.11576e-19)
(0.398016 -0.0898185 4.08219e-19)
(0.482563 -0.104563 -5.20883e-19)
(0.57099 -0.117358 5.43233e-19)
(0.660196 -0.127476 2.19449e-19)
(0.746632 -0.134267 -5.07005e-20)
(0.826739 -0.137252 -4.50373e-20)
(0.897531 -0.136234 -3.87668e-19)
(0.95697 -0.131035 3.7789e-20)
(1.00405 -0.122744 -5.35095e-20)
(1.04063 -0.109283 -2.72148e-19)
(1.06137 -0.0977379 -1.80231e-19)
(1.09282 -0.0743431 -1.42395e-19)
(-0.0109704 0.013702 -6.31989e-20)
(-0.0227602 0.0302998 -8.25046e-19)
(-0.0256945 0.0388078 -5.10573e-19)
(-0.0208642 0.0404778 -6.53305e-19)
(-0.008776 0.0367923 5.79539e-19)
(0.0104134 0.0290986 4.62983e-20)
(0.0368632 0.0184944 4.26545e-19)
(0.0709829 0.00582237 -3.91812e-19)
(0.113318 -0.00829216 6.5759e-19)
(0.164416 -0.0233711 2.47703e-19)
(0.224663 -0.0390036 2.02597e-20)
(0.294102 -0.0547743 -3.84749e-20)
(0.372231 -0.0702112 -1.36648e-19)
(0.457808 -0.0847613 -1.196e-19)
(0.548713 -0.0977993 1.20217e-19)
(0.641946 -0.108672 1.65274e-19)
(0.733828 -0.116775 -1.03794e-18)
(0.820445 -0.121625 5.91746e-20)
(0.898181 -0.122953 -1.52983e-19)
(0.964368 -0.120694 -1.31582e-19)
(1.01747 -0.114981 5.75144e-20)
(1.05751 -0.106502 -3.46526e-19)
(1.08594 -0.0942558 1.3509e-19)
(1.10143 -0.0833429 1.45511e-19)
(1.1223 -0.062624 -3.10406e-19)
(-0.0108508 0.0129195 1.47999e-19)
(-0.0220925 0.0286266 5.9776e-19)
(-0.0238141 0.0367859 5.11149e-20)
(-0.0170415 0.0384221 9.50545e-19)
(-0.00221599 0.0348897 -6.05792e-19)
(0.0205408 0.0274533 5.97126e-19)
(0.0514005 0.0171719 -5.38593e-19)
(0.0907674 0.00488903 2.13091e-19)
(0.139155 -0.00873932 -2.78019e-19)
(0.197031 -0.023186 3.68234e-19)
(0.264621 -0.0379831 6.12553e-19)
(0.341696 -0.0526624 3.16718e-19)
(0.427335 -0.0667158 1.27144e-19)
(0.519732 -0.0795866 1.39203e-19)
(0.616099 -0.090695 -1.01289e-19)
(0.712781 -0.0994916 -8.42754e-20)
(0.805604 -0.105532 8.37171e-19)
(0.890471 -0.10852 2.58579e-19)
(0.963969 -0.108392 6.76436e-19)
(1.02399 -0.105191 1.89704e-20)
(1.06972 -0.0992723 -3.55413e-19)
(1.10214 -0.0909311 4.17866e-19)
(1.12267 -0.0801451 4.62293e-19)
(1.13309 -0.0698914 4.71575e-20)
(1.14439 -0.0519489 3.01742e-19)
(-0.0106362 0.0120664 -4.20247e-19)
(-0.0211336 0.0266869 2.32607e-19)
(-0.0214555 0.0342914 5.11583e-19)
(-0.0125407 0.0357156 -2.01507e-19)
(0.00524805 0.0322049 -6.03769e-19)
(0.0318345 0.0249505 -4.52712e-20)
(0.067408 0.0149753 3.30668e-20)
(0.112362 0.00312379 5.96488e-20)
(0.167157 -0.00991895 -3.83953e-19)
(0.232136 -0.0235791 -1.63915e-19)
(0.307295 -0.0373377 -5.7091e-19)
(0.392032 -0.0506846 -1.37338e-20)
(0.484892 -0.063097 -1.58671e-19)
(0.583395 -0.0740476 -4.60436e-20)
(0.684038 -0.0830438 4.02525e-19)
(0.782549 -0.0896819 -5.75753e-19)
(0.874424 -0.0937044 2.31457e-19)
(0.955637 -0.0950095 -3.52214e-19)
(1.02326 -0.0936994 -4.91411e-19)
(1.07594 -0.0898954 9.0352e-20)
(1.11375 -0.0840616 7.7512e-19)
(1.13849 -0.0761555 -3.60327e-19)
(1.1518 -0.0669628 2.24731e-20)
(1.15753 -0.0571854 2.56171e-19)
(1.16033 -0.0422662 1.29175e-19)
(-0.0103317 0.0111637 1.97913e-19)
(-0.0198754 0.0245319 -2.80843e-19)
(-0.0185817 0.0313985 -5.95739e-19)
(-0.00728763 0.0324501 -3.17215e-19)
(0.0137318 0.0288451 3.48056e-19)
(0.0444528 0.0217126 1.18596e-19)
(0.0850833 0.0120452 6.99942e-19)
(0.135994 0.000689747 2.85839e-19)
(0.197559 -0.0116407 1.81914e-19)
(0.269937 -0.0243308 8.4387e-20)
(0.352805 -0.0368204 5.88722e-19)
(0.445071 -0.0485776 2.64874e-19)
(0.544628 -0.0590958 -2.1745e-19)
(0.648242 -0.0679193 3.08735e-19)
(0.751691 -0.0746875 -1.73548e-19)
(0.850216 -0.0791772 2.11851e-19)
(0.939223 -0.0813279 -2.00313e-19)
(1.01505 -0.0812102 -4.05736e-19)
(1.07549 -0.0790424 5.5255e-19)
(1.12014 -0.0749768 -5.4108e-19)
(1.14996 -0.0694796 1.42513e-19)
(1.1674 -0.0622663 -1.49361e-19)
(1.17449 -0.0546301 -1.02674e-19)
(1.17595 -0.0450681 -7.55802e-19)
(1.17147 -0.0340405 1.16999e-19)
(-0.00994071 0.0102289 4.04417e-20)
(-0.0183062 0.0222085 2.01275e-19)
(-0.0151487 0.028181 6.68568e-19)
(-0.00119743 0.0287229 -1.57779e-19)
(0.0233649 0.0249287 -6.90251e-20)
(0.0585701 0.0178799 1.28481e-19)
(0.104639 0.00854562 1.15141e-19)
(0.161896 -0.00222207 -4.58813e-19)
(0.230583 -0.0136848 -2.13869e-19)
(0.310598 -0.0251938 -6.61963e-19)
(0.401188 -0.0361654 -5.00306e-19)
(0.500649 -0.0460747 -3.55867e-19)
(0.606111 -0.0544724 3.1254e-19)
(0.713548 -0.0610212 -4.51497e-19)
(0.818101 -0.065534 -2.11152e-19)
(0.914735 -0.0679866 -9.02529e-20)
(0.999057 -0.0685028 -6.48948e-20)
(1.06805 -0.0672832 1.21459e-18)
(1.12047 -0.0645989 6.64318e-20)
(1.15685 -0.060584 -9.98339e-20)
(1.17901 -0.055626 -4.89476e-19)
(1.18988 -0.0493019 1.46921e-19)
(1.19188 -0.0430062 5.34071e-21)
(1.18951 -0.0338133 4.44595e-19)
(1.17935 -0.0283236 5.4624e-20)
(-0.00946398 0.00927573 3.20051e-19)
(-0.0164082 0.0197582 -3.07393e-19)
(-0.0111044 0.0247101 -4.66779e-19)
(0.00582496 0.0246336 4.69459e-19)
(0.0342888 0.0205829 -1.05838e-19)
(0.0743711 0.013607 -9.22513e-20)
(0.126291 0.00466024 7.98568e-20)
(0.190293 -0.00539834 -1.15402e-19)
(0.266422 -0.0158096 2.91244e-19)
(0.354216 -0.0259052 1.90029e-19)
(0.452372 -0.0351037 4.89533e-19)
(0.558447 -0.0429255 -1.25031e-20)
(0.668736 -0.0490268 3.92908e-19)
(0.778448 -0.0532354 -2.63549e-20)
(0.882258 -0.0555655 4.01686e-19)
(0.975132 -0.0561897 1.10565e-19)
(1.05319 -0.0553791 -7.06529e-19)
(1.11432 -0.0534066 -3.30956e-19)
(1.1583 -0.0505326 -7.80249e-20)
(1.18662 -0.0468282 1.88382e-19)
(1.20177 -0.0425601 -8.5093e-20)
(1.207 -0.0372291 -2.71395e-19)
(1.20495 -0.0320354 3.73013e-20)
(1.19925 -0.0240942 -2.05119e-19)
(1.18889 -0.0199164 -9.06848e-20)
(-0.00889881 0.00831382 1.95974e-19)
(-0.0141573 0.0172165 2.08845e-19)
(-0.00638808 0.0210531 3.82968e-19)
(0.0138836 0.0202819 -2.79338e-19)
(0.0466524 0.0159401 1.99445e-20)
(0.0920433 0.00905898 5.63349e-19)
(0.150248 0.000586556 -1.62033e-19)
(0.221382 -0.00861083 -5.43704e-19)
(0.305207 -0.0177621 -3.23505e-19)
(0.400789 -0.0262 4.33565e-19)
(0.50614 -0.0333799 -9.00921e-19)
(0.61798 -0.0389149 4.48774e-21)
(0.731745 -0.0426167 -7.55511e-20)
(0.841994 -0.0445158 5.55348e-19)
(0.94318 -0.0448365 -2.87799e-19)
(1.03059 -0.0439208 3.90966e-19)
(1.10116 -0.042132 3.78827e-19)
(1.15381 -0.0397518 -6.35335e-19)
(1.18938 -0.0369745 -2.54243e-19)
(1.21018 -0.0337768 -1.93107e-19)
(1.21918 -0.030294 2.83538e-19)
(1.21975 -0.0259634 4.08548e-19)
(1.21452 -0.0218335 1.69629e-19)
(1.2067 -0.0151162 -1.42202e-19)
(1.19583 -0.0121588 -2.38711e-19)
(-0.00823846 0.00734913 -4.62245e-20)
(-0.0115216 0.0146128 1.94923e-19)
(-0.000931009 0.0172723 -3.87853e-19)
(0.0230893 0.0157661 -5.96695e-19)
(0.0606071 0.0111348 -8.87876e-19)
(0.111768 0.00440682 1.50886e-19)
(0.176697 -0.00347021 -1.80198e-19)
(0.25531 -0.011625 2.65171e-19)
(0.346987 -0.0192891 9.94145e-20)
(0.45019 -0.0258255 1.89897e-19)
(0.562127 -0.0307699 2.1386e-19)
(0.67861 -0.0338797 -1.14641e-19)
(0.794272 -0.0351679 -1.67674e-19)
(0.903221 -0.0348887 -3.66128e-19)
(0.999996 -0.0334609 1.12617e-19)
(1.08053 -0.031347 -4.0626e-19)
(1.14277 -0.028938 1.48272e-19)
(1.18677 -0.0264642 9.46748e-20)
(1.21432 -0.0240138 -3.53875e-19)
(1.22836 -0.0214546 -3.58503e-19)
(1.23215 -0.0187954 -1.74359e-19)
(1.22903 -0.0154379 1.68555e-20)