/*--------------------------------*- C++ -*----------------------------------*\
  =========                 |
  \\      /  F ield         | OpenFOAM: The Open Source CFD Toolbox
   \\    /   O peration     | Website:  https://openfoam.org
    \\  /    A nd           | Version:  7
     \\/     M anipulation  |
\*---------------------------------------------------------------------------*/
FoamFile
{
    version     2.0;
    format      ascii;
    class       volVectorField;
    location    "125";
    object      U;
}
// * * * * * * * * * * * * * * * * * * * * * * * * * * * * * * * * * * * * * //

dimensions      [0 1 -1 0 0 0 0];

internalField   nonuniform List<vector> 
1989
(
(1.28929 -0.0320781 6.39525e-19)
(1.28589 -0.0223564 -8.19409e-21)
(1.29789 -0.00300986 8.20468e-20)
(1.28248 -0.0129827 7.7592e-20)
(1.29401 0.00565052 -2.60143e-20)
(1.27905 -0.00392441 -1.29157e-20)
(1.29013 0.0140813 2.76941e-20)
(1.27559 0.00484644 7.83765e-20)
(1.28625 0.0223014 1.42175e-19)
(1.27208 0.0133538 -1.698e-19)
(1.29604 0.0366081 1.63058e-19)
(1.28235 0.0303265 4.39069e-20)
(1.26853 0.0216184 7.08181e-20)
(1.29185 0.0446121 -8.70267e-21)
(1.27842 0.0381703 -1.15489e-19)
(1.26491 0.0296578 7.83193e-20)
(1.28763 0.0524628 6.98725e-20)
(1.27443 0.0458441 1.77847e-19)
(1.26123 0.037487 -9.80574e-20)
(1.28335 0.0601681 -3.16654e-19)
(1.27039 0.0533571 -1.75735e-19)
(1.25746 0.0451187 1.18257e-19)
(1.29188 0.0754107 2.11155e-20)
(1.27902 0.0677345 1.2208e-19)
(1.26627 0.0607173 2.89563e-20)
(1.2536 0.0525636 -1.0822e-19)
(1.28727 0.0829577 -1.65743e-20)
(1.2746 0.0751669 5.9205e-20)
(1.26207 0.0679306 1.51031e-19)
(1.24965 0.0598303 -2.96557e-20)
(1.28258 0.090402 6.41268e-20)
(1.27009 0.0824686 4.32264e-20)
(1.25777 0.0750021 -2.0756e-19)
(1.24559 0.0669259 -2.44204e-20)
(1.27778 0.0977438 -3.78269e-20)
(1.26548 0.0896417 -6.3506e-20)
(1.25337 0.081935 6.06353e-20)
(1.24141 0.0738557 9.94741e-20)
(1.27287 0.104982 -1.03804e-19)
(1.26076 0.096687 2.13886e-20)
(1.24885 0.0887319 8.03036e-20)
(1.23712 0.0806237 -5.47773e-20)
(1.26784 0.112114 -8.58671e-20)
(1.25592 0.103604 3.21261e-20)
(1.24421 0.0953937 -2.57786e-20)
(1.23271 0.0872325 8.89715e-20)
(1.26267 0.119138 1.08403e-19)
(1.25094 0.110393 -1.06151e-19)
(1.23945 0.101921 -6.01639e-20)
(1.22816 0.0936835 -1.61471e-20)
(1.25735 0.126048 8.40689e-20)
(1.24582 0.11705 -2.49171e-20)
(1.23455 0.108312 6.6912e-20)
(1.22348 0.0999769 -1.25191e-20)
(1.25188 0.13284 -6.28644e-20)
(1.24056 0.123573 2.62988e-20)
(1.22951 0.114566 -7.13301e-20)
(1.21865 0.106112 2.53057e-20)
(1.25773 0.149435 2.31323e-20)
(1.24624 0.139509 2.61504e-20)
(1.23514 0.129959 -1.47095e-21)
(1.22433 0.12068 2.89766e-20)
(1.21369 0.112087 -1.47248e-20)
(1.2517 0.156277 -9.71351e-21)
(1.24044 0.146047 1.17682e-21)
(1.22957 0.136202 3.26547e-21)
(1.21899 0.12665 8.72824e-21)
(1.20858 0.117899 -5.14658e-21)
(1.24548 0.162994 -1.90148e-21)
(1.23445 0.152448 1.39477e-22)
(1.22383 0.142298 2.80375e-21)
(1.2135 0.132472 -4.23005e-21)
(1.20332 0.123545 2.15803e-21)
(1.23907 0.169574 6.34381e-22)
(1.22829 0.158704 1.01945e-21)
(1.21792 0.14824 -2.14792e-21)
(1.20786 0.138139 -3.85706e-21)
(1.19792 0.12902 5.74238e-21)
(1.23245 0.17601 -2.26005e-20)
(1.22194 0.164805 1.80516e-20)
(1.21184 0.154022 6.68135e-21)
(1.20206 0.143644 2.92888e-21)
(1.19239 0.134317 -4.75467e-21)
(1.22563 0.18229 1.21763e-20)
(1.21539 0.170745 1.32017e-20)
(1.20559 0.159635 6.94682e-21)
(1.1961 0.148973 2.06604e-20)
(1.18671 0.13943 -1.39094e-20)
(1.20866 0.176514 -5.41252e-20)
(1.19916 0.165071 1.75136e-20)
(1.18997 0.154121 -4.68896e-20)
(1.18084 0.144349 5.11567e-21)
(1.20172 0.182102 6.08698e-21)
(1.19255 0.170326 -7.72446e-21)
(1.18367 0.159099 6.42057e-20)
(1.17475 0.149088 -2.07579e-20)
(1.19459 0.187499 6.37107e-20)
(1.18576 0.175392 -4.91386e-20)
(1.17721 0.163925 -1.47245e-20)
(1.26217 -0.109772 0)
(1.2522 -0.126984 0)
(1.23484 -0.142234 0)
(1.21605 -0.15587 0)
(1.19701 -0.168008 0)
(1.17678 -0.178233 0)
(1.15486 -0.186119 0)
(1.13154 -0.191408 0)
(1.1073 -0.193923 0)
(1.08256 -0.193511 0)
(1.05766 -0.190055 0)
(1.03297 -0.183497 0)
(1.00884 -0.173832 0)
(1.25016 -0.100999 0)
(1.24109 -0.116817 0)
(1.22506 -0.130995 0)
(1.20747 -0.143545 0)
(1.18967 -0.154614 0)
(1.17091 -0.163933 0)
(1.15066 -0.171119 0)
(1.12913 -0.175911 0)
(1.10674 -0.178145 0)
(1.0839 -0.177683 0)
(1.06093 -0.174417 0)
(1.03816 -0.168282 0)
(1.01592 -0.159262 0)
(1.23866 -0.0925641 0)
(1.23033 -0.107059 0)
(1.21554 -0.120158 0)
(1.19916 -0.131701 0)
(1.18258 -0.141792 0)
(1.16521 -0.150258 0)
(1.14655 -0.156781 0)
(1.12672 -0.161109 0)
(1.1061 -0.163081 0)
(1.08507 -0.162576 0)
(1.06394 -0.159493 0)
(1.04299 -0.153765 0)
(1.02256 -0.145371 0)
(1.2276 -0.0844342 0)
(1.21994 -0.0976963 0)
(1.20632 -0.109732 0)
(1.19113 -0.120317 0)
(1.17574 -0.129508 0)
(1.15972 -0.137186 0)
(1.14256 -0.143091 0)
(1.12434 -0.14699 0)
(1.10541 -0.148727 0)
(1.08611 -0.148191 0)
(1.06673 -0.145289 0)
(1.04753 -0.139958 0)
(1.02882 -0.13217 0)
(1.21695 -0.076616 0)
(1.20991 -0.0887267 0)
(1.1974 -0.09974 0)
(1.18337 -0.109415 0)
(1.16916 -0.117776 0)
(1.15441 -0.124731 0)
(1.13868 -0.130065 0)
(1.12201 -0.133569 0)
(1.10468 -0.135095 0)
(1.08703 -0.13454 0)
(1.06931 -0.13182 0)
(1.05178 -0.126874 0)
(1.03471 -0.119675 0)
(1.20668 -0.0691128 0)
(1.20025 -0.0801546 0)
(1.18879 -0.0902033 0)
(1.17589 -0.0990211 0)
(1.16282 -0.106614 0)
(1.1493 -0.112905 0)
(1.13493 -0.117715 0)
(1.11972 -0.120857 0)
(1.10392 -0.122196 0)
(1.08783 -0.121633 0)
(1.0717 -0.119095 0)
(1.05575 -0.114524 0)
(1.04024 -0.107894 0)
(1.19683 -0.0619486 0)
(1.19098 -0.0719964 0)
(1.18052 -0.0811417 0)
(1.16871 -0.0891566 0)
(1.15674 -0.0960372 0)
(1.14439 -0.101719 0)
(1.13132 -0.106048 0)
(1.11749 -0.108861 0)
(1.10314 -0.110034 0)
(1.08853 -0.109476 0)
(1.0739 -0.10712 0)
(1.05946 -0.102915 0)
(1.04542 -0.096835 0)
(1.18743 -0.055145 0)
(1.18213 -0.0642665 0)
(1.17264 -0.0725688 0)
(1.16187 -0.0798354 0)
(1.15095 -0.0860568 0)
(1.13973 -0.0911787 0)
(1.12787 -0.0950693 0)
(1.11535 -0.0975852 0)
(1.10237 -0.098613 0)
(1.08916 -0.0980709 0)
(1.07595 -0.0958975 0)
(1.06292 -0.0920479 0)
(1.05027 -0.0864987 0)
(1.17855 -0.0487131 0)
(1.17378 -0.0569732 0)
(1.16519 -0.0644916 0)
(1.15541 -0.0710641 0)
(1.1455 -0.0766778 0)
(1.13533 -0.081287 0)
(1.12462 -0.084779 0)
(1.11334 -0.0870274 0)
(1.10164 -0.0879304 0)
(1.08974 -0.087414 0)
(1.07785 -0.0854234 0)
(1.06615 -0.081919 0)
(1.05481 -0.0768807 0)
(1.17023 -0.0426592 0)
(1.16594 -0.0501204 0)
(1.15821 -0.0569126 0)
(1.14937 -0.0628442 0)
(1.1404 -0.0678995 0)
(1.13123 -0.0720407 0)
(1.1216 -0.0751716 0)
(1.11146 -0.0771812 0)
(1.10096 -0.0779785 0)
(1.09029 -0.0774972 0)
(1.07964 -0.0756887 0)
(1.06917 -0.072519 0)
(1.05904 -0.067971 0)
(1.16245 -0.0369862 0)
(1.15863 -0.0437092 0)
(1.15169 -0.0498309 0)
(1.14373 -0.0551729 0)
(1.13565 -0.0597173 0)
(1.12742 -0.0634331 0)
(1.11879 -0.0662383 0)
(1.10972 -0.0680362 0)
(1.10034 -0.0687456 0)
(1.09081 -0.0683078 0)
(1.08131 -0.0666802 0)
(1.07198 -0.0638338 0)
(1.06298 -0.059755 0)
(1.15521 -0.0316951 0)
(1.15181 -0.0377386 0)
(1.14562 -0.0432436 0)
(1.13849 -0.0480452 0)
(1.13124 -0.0521241 0)
(1.12388 -0.0554546 0)
(1.11618 -0.0579676 0)
(1.10811 -0.059579 0)
(1.09976 -0.0602172 0)
(1.09129 -0.0598302 0)
(1.08286 -0.0583813 0)
(1.07459 -0.0558462 0)
(1.06663 -0.0522146 0)
(1.14845 -0.026787 0)
(1.14546 -0.0322075 0)
(1.13996 -0.0371473 0)
(1.1336 -0.0414553 0)
(1.12714 -0.0451113 0)
(1.12058 -0.0480943 0)
(1.11376 -0.0503463 0)
(1.1066 -0.0517946 0)
(1.09921 -0.0523766 0)
(1.09172 -0.0520466 0)
(1.08427 -0.0507731 0)
(1.07698 -0.0485363 0)
(1.06997 -0.0453288 0)
(1.14214 -0.0222624 0)
(1.13953 -0.0271134 0)
(1.13468 -0.0315371 0)
(1.12904 -0.0353957 0)
(1.1233 -0.0386688 0)
(1.1175 -0.0413396 0)
(1.11147 -0.0433595 0)
(1.10517 -0.0446663 0)
(1.09866 -0.0452053 0)
(1.09207 -0.0449369 0)
(1.08552 -0.0438343 0)
(1.07913 -0.0418818 0)
(1.07299 -0.0390746 0)
(1.13625 -0.01812 0)
(1.13398 -0.022452 0)
(1.12973 -0.0264059 0)
(1.12476 -0.0298567 0)
(1.1197 -0.0327846 0)
(1.1146 -0.0351758 0)
(1.10931 -0.0369902 0)
(1.10378 -0.0381747 0)
(1.09808 -0.0386823 0)
(1.09232 -0.0384786 0)
(1.0866 -0.0375413 0)
(1.08102 -0.0358579 0)
(1.07568 -0.0334263 0)
(1.13073 -0.014356 0)
(1.12879 -0.0182167 0)
(1.12509 -0.0217444 0)
(1.12074 -0.0248265 0)
(1.11631 -0.0274439 0)
(1.11185 -0.0295856 0)
(1.10723 -0.0312187 0)
(1.10242 -0.0322984 0)
(1.09746 -0.0327842 0)
(1.09245 -0.0326468 0)
(1.08749 -0.0318677 0)
(1.08265 -0.0304374 0)
(1.07803 -0.0283559 0)
(1.12558 -0.0109643 0)
(1.12394 -0.0143984 0)
(1.12074 -0.0175408 0)
(1.11696 -0.0202905 0)
(1.11311 -0.0226296 0)
(1.10923 -0.0245494 0)
(1.10524 -0.0260231 0)
(1.10107 -0.0270132 0)
(1.09679 -0.0274851 0)
(1.09246 -0.027414 0)
(1.08817 -0.0267849 0)
(1.08401 -0.0255908 0)
(1.08004 -0.0238331 0)
(1.12077 -0.00793642 0)
(1.11939 -0.0109856 0)
(1.11666 -0.0137808 0)
(1.1134 -0.016232 0)
(1.11007 -0.0183224 0)
(1.10673 -0.0200452 0)
(1.1033 -0.021379 0)
(1.09972 -0.0222925 0)
(1.09605 -0.0227566 0)
(1.09233 -0.0227505 0)
(1.08866 -0.0222619 0)
(1.0851 -0.0212861 0)
(1.08171 -0.0198259 0)
(1.11627 -0.00526165 0)
(1.11514 -0.00796431 0)
(1.11282 -0.0104474 0)
(1.11004 -0.0126312 0)
(1.10719 -0.0145 0)
(1.10434 -0.0160485 0)
(1.10141 -0.0172596 0)
(1.09837 -0.0181077 0)
(1.09523 -0.0185684 0)
(1.09207 -0.0186244 0)
(1.08895 -0.018266 0)
(1.08593 -0.0174902 0)
(1.08306 -0.0163006 0)
(1.11207 -0.00292743 0)
(1.11116 -0.00531934 0)
(1.10922 -0.00752314 0)
(1.10686 -0.00946788 0)
(1.10445 -0.0111392 0)
(1.10204 -0.0125333 0)
(1.09956 -0.0136368 0)
(1.09699 -0.0144287 0)
(1.09435 -0.0148888 0)
(1.09168 -0.0150029 0)
(1.08905 -0.0147633 0)
(1.0865 -0.0141686 0)
(1.08409 -0.0132227 0)
(1.10815 -0.000917754 0)
(1.10744 -0.00303367 0)
(1.10583 -0.00498802 0)
(1.10386 -0.00671963 0)
(1.10184 -0.0082153 0)
(1.09982 -0.0094725 0)
(1.09775 -0.0104811 0)
(1.0956 -0.0112243 0)
(1.09339 -0.0116851 0)
(1.09116 -0.0118521 0)
(1.08896 -0.0117193 0)
(1.08684 -0.0112864 0)
(1.08483 -0.0105578 0)
(1.10449 0.000776952 0)
(1.10395 -0.00108942 0)
(1.10265 -0.00282102 0)
(1.10102 -0.00436229 0)
(1.09935 -0.00570192 0)
(1.09768 -0.006838 0)
(1.09597 -0.00776258 0)
(1.0942 -0.00846221 0)
(1.09237 -0.00892358 0)
(1.09052 -0.00913726 0)
(1.0887 -0.00909885 0)
(1.08695 -0.00880864 0)
(1.08529 -0.00827131 0)
(1.10108 0.00217264 0)
(1.1007 0.000528512 0)
(1.09965 -0.00100238 0)
(1.09833 -0.00237383 0)
(1.09697 -0.00357317 0)
(1.09561 -0.00460057 0)
(1.09422 -0.00544985 0)
(1.09277 -0.00611019 0)
(1.09128 -0.00657085 0)
(1.08977 -0.00682427 0)
(1.08828 -0.0068673 0)
(1.08685 -0.00670076 0)
(1.0855 -0.00632926 0)
(1.0979 0.00329174 0)
(1.09765 0.00184274 0)
(1.09684 0.000490474 0)
(1.09579 -0.00072685 0)
(1.0947 -0.00180128 0)
(1.09361 -0.00273125 0)
(1.0925 -0.00351229 0)
(1.09134 -0.00413607 0)
(1.09014 -0.00459369 0)
(1.08892 -0.00487928 0)
(1.08772 -0.00499063 0)
(1.08657 -0.00492902 0)
(1.08548 -0.00469895 0)
(1.09493 0.00414995 0)
(1.0948 0.00287661 0)
(1.0942 0.00168165 0)
(1.09338 0.00060095 0)
(1.09253 -0.000360468 0)
(1.09168 -0.00120125 0)
(1.09081 -0.00191911 0)
(1.0899 -0.00250706 0)
(1.08895 -0.00295833 0)
(1.08799 -0.00326831 0)
(1.08704 -0.0034353 0)
(1.08612 -0.00346075 0)
(1.08525 -0.00334882 0)
(1.09217 0.00476533 0)
(1.09214 0.00364873 0)
(1.09171 0.00259571 0)
(1.09111 0.00163576 0)
(1.09047 0.00077706 0)
(1.08982 1.80878e-05 0)
(1.08916 -0.000639887 0)
(1.08846 -0.00119219 0)
(1.08773 -0.00163347 0)
(1.08699 -0.00195968 0)
(1.08625 -0.00216961 0)
(1.08553 -0.00226475 0)
(1.08486 -0.00224892 0)
(1.08962 0.00515617 0)
(1.08967 0.00418022 0)
(1.08939 0.00325538 0)
(1.08897 0.00240682 0)
(1.08851 0.00164047 0)
(1.08804 0.000955655 0)
(1.08755 0.000353691 0)
(1.08704 -0.000162572 0)
(1.08649 -0.000588933 0)
(1.08593 -0.000922655 0)
(1.08537 -0.00116299 0)
(1.08483 -0.00131127 0)
(1.08432 -0.001371 0)
(1.08725 0.00534057 0)
(1.08738 0.00449126 0)
(1.08723 0.00368243 0)
(1.08696 0.00293528 0)
(1.08665 0.00225473 0)
(1.08634 0.0016401 0)
(1.086 0.00109176 0)
(1.08564 0.00061256 0)
(1.08525 0.00020556 0)
(1.08485 -0.00012754 0)
(1.08444 -0.000386418 0)
(1.08404 -0.00057239 0)
(1.08367 -0.000688499 0)
(1.08509 0.00533625 0)
(1.08527 0.00460169 0)
(1.08523 0.00389866 0)
(1.08509 0.00324494 0)
(1.08491 0.00264466 0)
(1.08472 0.00209708 0)
(1.08452 0.00160223 0)
(1.08429 0.00116195 0)
(1.08403 0.00077852 0)
(1.08376 0.000453596 0)
(1.08348 0.000187207 0)
(1.0832 -2.20747e-05 0)
(1.08293 -0.000176753 0)
(1.08311 0.00516087 0)
(1.08334 0.0045311 0)
(1.08339 0.00392545 0)
(1.08336 0.00335868 0)
(1.08329 0.00283424 0)
(1.08321 0.0023514 0)
(1.08312 0.00190989 0)
(1.08299 0.00151096 0)
(1.08284 0.00115633 0)
(1.08268 0.000847132 0)
(1.0825 0.000583374 0)
(1.08232 0.000363914 0)
(1.08215 0.000186501 0)
(1.08133 0.00483071 0)
(1.0816 0.00429759 0)
(1.08173 0.00378255 0)
(1.08179 0.00329766 0)
(1.08181 0.00284581 0)
(1.08182 0.00242627 0)
(1.08181 0.00203864 0)
(1.08178 0.00168372 0)
(1.08172 0.00136275 0)
(1.08164 0.00107657 0)
(1.08155 0.000825109 0)
(1.08145 0.000607382 0)
(1.08135 0.000421549 0)
(1.07976 0.00436311 0)
(1.08006 0.00392007 0)
(1.08025 0.00349021 0)
(1.08038 0.00308332 0)
(1.08048 0.00270171 0)
(1.08056 0.00234475 0)
(1.08062 0.00201195 0)
(1.08066 0.00170381 0)
(1.08067 0.00142119 0)
(1.08066 0.0011647 0)
(1.08064 0.000934247 0)
(1.08061 0.000728997 0)
(1.08057 0.000547468 0)
(1.07841 0.00377168 0)
(1.07872 0.00341379 0)
(1.07896 0.00306524 0)
(1.07915 0.00273371 0)
(1.07931 0.00242104 0)
(1.07945 0.0021267 0)
(1.07957 0.00185019 0)
(1.07966 0.00159179 0)
(1.07973 0.0013521 0)
(1.07978 0.00113154 0)
(1.07981 0.000930002 0)
(1.07983 0.000746829 0)
(1.07984 0.000580851 0)
(1.07728 0.00307415 0)
(1.07761 0.00279765 0)
(1.07789 0.0025275 0)
(1.07812 0.00226948 0)
(1.07833 0.00202504 0)
(1.07851 0.00179371 0)
(1.07867 0.00157506 0)
(1.07881 0.00136923 0)
(1.07892 0.00117661 0)
(1.07902 0.000997482 0)
(1.07909 0.000831749 0)
(1.07915 0.000678912 0)
(1.07919 0.000538087 0)
(1.07639 0.00228291 0)
(1.07674 0.00208574 0)
(1.07704 0.00189258 0)
(1.07731 0.00170753 0)
(1.07755 0.00153157 0)
(1.07777 0.00136439 0)
(1.07796 0.00120564 0)
(1.07813 0.00105535 0)
(1.07828 0.000913776 0)
(1.0784 0.000781093 0)
(1.07851 0.00065723 0)
(1.07859 0.000541832 0)
(1.07866 0.000434288 0)
(1.07578 0.00141104 0)
(1.07613 0.00129215 0)
(1.07645 0.00117556 0)
(1.07674 0.00106363 0)
(1.07701 0.000956976 0)
(1.07724 0.000855377 0)
(1.07746 0.000758608 0)
(1.07765 0.000666669 0)
(1.07782 0.000579689 0)
(1.07796 0.000497761 0)
(1.07809 0.000420837 0)
(1.07819 0.000348704 0)
(1.07828 0.000281 0)
(1.07545 0.000486658 0)
(1.07581 0.000446081 0)
(1.07614 0.000406358 0)
(1.07644 0.000368237 0)
(1.07672 0.000331903 0)
(1.07697 0.000297282 0)
(1.07719 0.000264286 0)
(1.07739 0.000232906 0)
(1.07757 0.000203174 0)
(1.07773 0.000175114 0)
(1.07786 0.000148705 0)
(1.07798 0.000123872 0)
(1.07807 0.000100487 0)
(1.19528 0.116282 2.37666e-21)
(1.18913 0.111067 -1.22672e-21)
(1.18319 0.1059 -2.06326e-23)
(1.17755 0.100881 2.34709e-21)
(1.17218 0.0960493 -2.28582e-21)
(1.16699 0.0913881 2.26114e-21)
(1.16193 0.0868912 -3.19275e-21)
(1.15697 0.0825487 2.2755e-21)
(1.15212 0.0783538 -2.35245e-21)
(1.14737 0.0743168 1.5677e-21)
(1.14273 0.0704334 -1.4175e-21)
(1.13818 0.066701 5.97807e-22)
(1.13374 0.0631186 1.18932e-21)
(1.12942 0.0596833 -7.5338e-22)
(1.12521 0.0563904 -5.78694e-22)
(1.12112 0.053238 3.66097e-22)
(1.11715 0.0502193 -1.16696e-23)
(1.1133 0.0473241 -4.51925e-22)
(1.10959 0.0445512 5.3296e-22)
(1.10601 0.0418958 -1.45121e-22)
(1.10256 0.0393483 -1.62908e-22)
(1.09925 0.0369016 1.96436e-22)
(1.09608 0.0345484 6.36492e-23)
(1.09305 0.0322805 -1.58138e-22)
(1.09016 0.03009 1.23771e-22)
(1.08741 0.0279686 -1.19969e-22)
(1.08481 0.0259085 9.38707e-23)
(1.08235 0.0239013 -1.93589e-23)
(1.08005 0.0219392 4.68085e-23)
(1.07789 0.0200142 -2.45835e-23)
(1.07589 0.0181182 -2.71591e-23)
(1.07404 0.0162434 5.83003e-24)
(1.07236 0.0143821 2.95674e-24)
(1.07085 0.0125261 -9.79381e-25)
(1.06951 0.0106675 1.51342e-23)
(1.06836 0.00879707 1.10244e-23)
(1.06741 0.00690956 -1.97827e-23)
(1.06666 0.00498413 1.63398e-23)
(1.06614 0.00303911 -1.775e-23)
(1.06587 0.00100203 1.37212e-23)
(1.20026 0.111195 2.53401e-21)
(1.19388 0.106245 -2.4104e-21)
(1.18763 0.101332 5.15908e-21)
(1.18168 0.0965592 -1.33367e-21)
(1.17601 0.0919631 -5.42533e-22)
(1.17055 0.0875298 1.29586e-21)
(1.16524 0.0832525 -4.29581e-21)
(1.16005 0.0791235 4.86135e-23)
(1.15498 0.0751372 1.0921e-21)
(1.15002 0.0713004 -1.37297e-21)
(1.14518 0.0676097 8.62266e-22)
(1.14045 0.0640632 -8.4756e-22)
(1.13584 0.0606595 -1.5746e-22)
(1.13135 0.0573958 6.05699e-23)
(1.12699 0.0542675 1.61018e-21)
(1.12276 0.0512717 -7.30292e-22)
(1.11866 0.0484029 -7.66901e-22)
(1.1147 0.045652 7.24247e-22)
(1.11088 0.0430158 1.00086e-21)
(1.1072 0.0404898 -6.66893e-22)
(1.10367 0.0380643 5.20383e-23)
(1.10028 0.0357329 -6.88182e-22)
(1.09703 0.0334881 3.61917e-22)
(1.09393 0.0313218 6.42515e-22)
(1.09098 0.0292264 -7.02676e-23)
(1.08818 0.0271938 -1.68672e-22)
(1.08553 0.0252163 -1.04825e-22)
(1.08303 0.0232859 1.27988e-23)
(1.08069 0.021395 -1.35475e-22)
(1.0785 0.0195358 5.1014e-23)
(1.07646 0.0177008 7.83306e-23)
(1.0746 0.0158826 -1.62816e-23)
(1.07289 0.0140735 3.19019e-23)
(1.07136 0.0122661 9.84784e-25)
(1.07001 0.010453 -1.31551e-23)
(1.06884 0.00862504 -2.24573e-23)
(1.06787 0.00677799 -1.38277e-24)
(1.06712 0.00489125 -8.18959e-24)
(1.06659 0.00298364 -3.56183e-23)
(1.06631 0.000985631 -2.5485e-24)
(1.20511 0.105943 7.62703e-21)
(1.1985 0.101267 -7.24652e-22)
(1.19198 0.0966172 2.25174e-21)
(1.18573 0.0921037 -1.66639e-20)
(1.17976 0.0877547 1.41943e-20)
(1.17403 0.0835588 -5.67217e-21)
(1.16847 0.0795105 -2.13466e-21)
(1.16305 0.0756039 2.54919e-21)
(1.15776 0.0718343 1.98672e-21)
(1.1526 0.0682057 2.21531e-21)
(1.14756 0.0647155 -7.18874e-21)
(1.14265 0.0613621 4.32727e-21)
(1.13788 0.0581439 2.09598e-21)
(1.13323 0.055058 6.09915e-22)
(1.12873 0.0521003 -5.79363e-21)
(1.12436 0.0492669 3.9503e-21)
(1.12014 0.0465532 8.46561e-22)
(1.11606 0.0439507 -9.07213e-22)
(1.11214 0.0414551 -1.34568e-21)
(1.10836 0.039062 1.1252e-21)
(1.10474 0.036762 -1.11391e-21)
(1.10127 0.0345488 8.1171e-22)
(1.09795 0.0324149 6.71586e-22)
(1.09479 0.0303526 -1.09201e-21)
(1.09178 0.0283543 6.18312e-23)
(1.08893 0.0264122 1.46211e-22)
(1.08623 0.0245187 1.71357e-22)
(1.08369 0.0226663 -4.25583e-23)
(1.08131 0.0208476 6.03678e-23)
(1.07909 0.0190552 1.02152e-22)
(1.07703 0.0172818 -9.27435e-24)
(1.07513 0.0155205 -1.18233e-23)
(1.07341 0.0137642 -4.88603e-23)
(1.07186 0.0120057 -5.16466e-24)
(1.07049 0.0102382 -2.84118e-24)
(1.06931 0.00845296 3.73821e-23)
(1.06833 0.00664644 4.27753e-23)
(1.06757 0.00479843 -6.57432e-23)
(1.06704 0.00292817 5.1159e-24)
(1.06675 0.000969313 1.69521e-23)
(1.20983 0.100527 -2.53854e-21)
(1.203 0.0961318 -9.74225e-21)
(1.19621 0.091755 1.7075e-20)
(1.18967 0.087514 -6.61069e-21)
(1.18343 0.0834233 -7.05786e-21)
(1.17743 0.0794743 6.72394e-21)
(1.17162 0.0756642 -2.48113e-21)
(1.16598 0.0719889 5.76011e-21)
(1.16048 0.0684442 -1.42247e-20)
(1.15511 0.065032 9.67935e-21)
(1.14989 0.0617502 4.50139e-21)
(1.1448 0.0585972 -2.78141e-21)
(1.13986 0.0555713 2.95896e-21)
(1.13506 0.0526696 -2.41719e-21)
(1.13041 0.0498883 -4.05824e-22)
(1.12592 0.0472231 2.93561e-21)
(1.12157 0.0446695 -1.9287e-21)
(1.11739 0.0422199 2.50485e-21)
(1.11336 0.039869 -3.61468e-21)
(1.10949 0.0376125 2.79017e-21)
(1.10578 0.0354414 -1.26158e-21)
(1.10223 0.0333494 4.28544e-23)
(1.09885 0.0313291 -5.33975e-22)
(1.09562 0.0293731 -1.03801e-21)
(1.09256 0.0274738 2.82505e-22)
(1.08966 0.0256239 1.7187e-22)
(1.08692 0.023816 2.2347e-22)
(1.08434 0.0220428 2.20055e-22)
(1.08192 0.0202972 -2.62445e-22)
(1.07967 0.0185724 -6.66225e-23)
(1.07758 0.0168614 -2.87357e-23)
(1.07566 0.0151576 -1.41472e-22)
(1.07392 0.0134544 -5.16723e-23)
(1.07235 0.0117451 -2.54884e-23)
(1.07096 0.0100233 1.37834e-23)
(1.06977 0.00828091 -5.80447e-23)
(1.06878 0.00651496 2.82819e-23)
(1.06801 0.00470572 5.54053e-23)
(1.06747 0.00287272 9.69329e-24)
(1.06718 0.000953048 -5.85014e-24)
(1.21442 0.0949473 8.7254e-21)
(1.20739 0.0908398 -4.7008e-21)
(1.20034 0.0867455 -1.30972e-20)
(1.19353 0.082789 -8.90842e-21)
(1.187 0.0789679 1.89552e-20)
(1.18074 0.0752754 7.31381e-21)
(1.17469 0.0717127 -1.24385e-20)
(1.16882 0.0682776 -2.81821e-21)
(1.16311 0.0649661 5.09976e-22)
(1.15755 0.0617785 8.20489e-21)
(1.15215 0.0587128 -2.85991e-21)
(1.14689 0.0557676 1.01487e-20)
(1.14178 0.052941 -1.02587e-20)
(1.13684 0.0502302 -5.38443e-21)
(1.13205 0.0476313 9.51047e-22)
(1.12743 0.0451399 2.60475e-21)
(1.12296 0.0427516 4.43719e-21)
(1.11867 0.0404594 -6.78767e-21)
(1.11454 0.0382576 2.27397e-21)
(1.11058 0.0361414 -1.80684e-21)
(1.10679 0.0341027 3.02311e-21)
(1.10317 0.0321349 -1.02493e-21)
(1.09972 0.0302309 -2.92963e-22)
(1.09643 0.0283834 8.60525e-22)
(1.09332 0.0265853 -3.8684e-22)
(1.09037 0.0248292 -6.4442e-22)
(1.08758 0.0231083 4.61998e-22)
(1.08497 0.0214155 -9.1392e-22)
(1.08252 0.0197441 2.85131e-22)
(1.08023 0.0180876 2.2852e-22)
(1.07812 0.0164396 1.2027e-22)
(1.07618 0.0147938 -4.65476e-23)
(1.07441 0.0131441 1.31537e-22)
(1.07282 0.0114842 -1.30152e-23)
(1.07142 0.00980843 -2.6773e-24)
(1.07022 0.00810893 2.09746e-23)
(1.06922 0.00638359 -3.45856e-24)
(1.06844 0.00461314 -7.79288e-23)
(1.06789 0.00281728 1.19301e-23)
(1.0676 0.000936806 -4.80875e-23)
(1.21888 0.0892047 3.07312e-20)
(1.21164 0.0853901 -1.58521e-20)
(1.20437 0.0815874 -3.02859e-20)
(1.19729 0.0779273 4.12648e-20)
(1.19049 0.074387 -1.78486e-21)
(1.18397 0.0709609 -2.41099e-20)
(1.17768 0.0676548 -8.14216e-21)
(1.17159 0.0644687 2.98358e-20)
(1.16568 0.0613988 -1.55503e-20)
(1.15993 0.058444 -8.21774e-21)
(1.15434 0.0556025 7.96601e-21)
(1.14891 0.0528726 4.17785e-21)
(1.14365 0.0502525 1.10062e-21)
(1.13856 0.0477391 4.91484e-21)
(1.13364 0.0453288 -8.41648e-21)
(1.12889 0.043017 -3.29158e-21)
(1.12431 0.0407993 4.7177e-21)
(1.11991 0.0386692 2.57264e-21)
(1.11569 0.0366206 -3.57023e-21)
(1.11164 0.0346488 4.74177e-21)
(1.10777 0.0327458 -2.86744e-21)
(1.10408 0.0309053 -1.3802e-21)
(1.10056 0.0291203 -2.74067e-22)
(1.09722 0.0273838 5.19917e-22)
(1.09405 0.0256887 9.3073e-22)
(1.09105 0.0240283 -1.52872e-23)
(1.08823 0.0223958 7.43275e-22)
(1.08558 0.0207846 2.89748e-22)
(1.08309 0.0191884 -1.2227e-22)
(1.08078 0.0176011 -8.00505e-22)
(1.07864 0.0160167 4.73129e-22)
(1.07668 0.0144293 3.27561e-22)
(1.07489 0.0128334 -2.52304e-22)
(1.07329 0.0112233 7.55437e-23)
(1.07187 0.00959359 -1.13304e-23)
(1.07066 0.00793709 -1.48805e-23)
(1.06965 0.00625237 5.63945e-23)
(1.06886 0.00452071 1.90722e-22)
(1.06831 0.00276188 1.34259e-22)
(1.068 0.000920565 5.18521e-23)
(1.22321 0.0832992 1.21335e-20)
(1.21578 0.0797816 -4.99619e-20)
(1.20828 0.076279 8.8623e-21)
(1.20095 0.0729268 3.34288e-20)
(1.19389 0.0696788 -2.59859e-20)
(1.18712 0.066529 8.34778e-21)
(1.18059 0.0634889 4.73391e-21)
(1.17429 0.0605607 1.06787e-20)
(1.16817 0.0577408 -2.19962e-21)
(1.16223 0.0550272 -1.23837e-20)
(1.15647 0.052418 9.00222e-21)
(1.15088 0.0499112 -3.15393e-21)
(1.14546 0.0475047 -8.04481e-21)
(1.14023 0.0451956 4.9146e-21)
(1.13517 0.0429802 -9.06232e-21)
(1.1303 0.0408539 6.6843e-21)
(1.12562 0.0388122 -5.84768e-21)
(1.12111 0.0368491 -5.52878e-22)
(1.1168 0.0349581 1.22725e-21)
(1.11267 0.0331346 6.01355e-21)
(1.10872 0.0313709 -4.81168e-21)
(1.10496 0.0296608 2.75172e-21)
(1.10138 0.0279975 -2.88718e-22)
(1.09798 0.0263743 -2.55029e-21)
(1.09476 0.0247844 2.77693e-21)
(1.09172 0.0232213 -2.06699e-21)
(1.08886 0.0216787 -8.75848e-22)
(1.08617 0.0201504 -5.89707e-22)
(1.08366 0.0186303 1.84383e-22)
(1.08132 0.017113 2.63682e-22)
(1.07915 0.0155927 6.45176e-23)
(1.07717 0.0140643 -1.03818e-22)
(1.07536 0.0125226 7.77232e-23)
(1.07374 0.0109623 -1.39527e-22)
(1.07231 0.0093789 4.01302e-23)
(1.07108 0.00776546 5.42604e-24)
(1.07006 0.00612135 -1.54723e-22)
(1.06927 0.00442847 -1.57718e-22)
(1.06871 0.00270653 1.21469e-23)
(1.06841 0.000904311 -8.38164e-23)
(1.22741 0.0772301 -8.11488e-20)
(1.2198 0.0740127 3.89603e-20)
(1.21209 0.0708183 1.78026e-20)
(1.20452 0.0677849 -4.39803e-20)
(1.19721 0.0648408 1.19932e-20)
(1.19018 0.0619776 6.00703e-22)
(1.18342 0.0592128 -1.85579e-20)
(1.1769 0.0565516 1.43121e-20)
(1.17059 0.0539905 -2.23213e-20)
(1.16446 0.0515267 -7.49026e-22)
(1.15853 0.0491579 2.42496e-20)
(1.15278 0.046882 -1.01297e-20)
(1.14721 0.0446967 1.37843e-20)
(1.14184 0.0425989 -5.05386e-21)
(1.13666 0.040585 4.27271e-21)
(1.13167 0.0386502 -4.72357e-21)
(1.12687 0.03679 8.95918e-21)
(1.12227 0.0349987 -3.13408e-21)
(1.11787 0.0332699 -4.65725e-21)
(1.11365 0.0315987 2.52922e-21)
(1.10963 0.029978 9.34347e-22)
(1.10581 0.0284014 -1.25979e-21)
(1.10217 0.0268627 -2.11443e-21)
(1.09872 0.0253551 -4.19889e-23)
(1.09545 0.0238725 1.88972e-21)
(1.09237 0.0224085 5.64432e-24)
(1.08947 0.0209573 -3.50851e-22)
(1.08674 0.0195129 1.22607e-21)
(1.0842 0.0180701 3.29005e-22)
(1.08184 0.0166234 -1.05976e-22)
(1.07965 0.0151679 1.0039e-23)
(1.07765 0.0136989 5.7329e-22)
(1.07582 0.0122116 1.65041e-22)
(1.07419 0.0107015 5.89943e-23)
(1.07274 0.00916444 4.48987e-24)
(1.0715 0.00759409 -1.24798e-23)
(1.07047 0.00599057 6.64139e-23)
(1.06967 0.00433644 1.20398e-22)
(1.06911 0.00265125 -2.10865e-22)
(1.0688 0.000888027 -1.39809e-23)
(1.23149 0.0709963 -1.71847e-20)
(1.22369 0.0680814 2.92522e-20)
(1.21579 0.0652024 -6.82678e-20)
(1.208 0.0624987 8.71566e-21)
(1.20045 0.0598698 7.85493e-20)
(1.19317 0.057304 -2.78083e-20)
(1.18618 0.0548243 -3.55018e-20)
(1.17944 0.0524393 -1.08415e-20)
(1.17293 0.0501459 4.15609e-20)
(1.16663 0.0479407 -3.90217e-20)
(1.16052 0.0458209 2.61473e-20)
(1.15462 0.043784 -3.90497e-21)
(1.14891 0.0418275 -5.60137e-21)
(1.1434 0.0399482 2.17909e-21)
(1.13809 0.0381423 5.81018e-21)
(1.13299 0.0364052 -1.32104e-20)
(1.12809 0.0347322 1.09052e-20)
(1.12339 0.0331178 -2.70207e-21)
(1.1189 0.0315559 2.73059e-22)
(1.11461 0.0300411 -1.81796e-21)
(1.11052 0.028567 -1.35893e-21)
(1.10662 0.0271273 2.13546e-21)
(1.10293 0.0257158 -3.39589e-21)
(1.09943 0.0243265 2.30536e-21)
(1.09611 0.0229532 1.00266e-21)
(1.09299 0.0215901 -1.32507e-21)
(1.09005 0.0202316 1.88037e-22)
(1.0873 0.0188725 2.21467e-22)
(1.08473 0.0175078 -2.0918e-22)
(1.08234 0.0161326 9.49995e-22)
(1.08013 0.0147425 -5.69125e-22)
(1.07811 0.0133332 -3.03482e-22)
(1.07627 0.0119007 2.90342e-23)
(1.07462 0.0104409 -5.40131e-23)
(1.07316 0.00895029 1.35328e-22)
(1.07191 0.00742306 -2.27039e-23)
(1.07087 0.00586008 -2.01686e-23)
(1.07006 0.00424465 2.35573e-23)
(1.06949 0.00259607 1.35504e-22)
(1.06918 0.000871698 6.79386e-23)
(1.23546 0.0645956 -5.69375e-20)
(1.22747 0.0619848 5.57245e-20)
(1.21938 0.0594281 2.37169e-20)
(1.21138 0.0570644 -4.59489e-20)
(1.2036 0.0547625 -7.53053e-21)
(1.19608 0.0525049 1.88661e-20)
(1.18886 0.0503204 -1.12463e-20)
(1.18191 0.0482212 7.18966e-21)
(1.1752 0.0462048 3.6737e-20)
(1.16872 0.0442672 -4.26781e-20)
(1.16245 0.042405 3.12977e-20)
(1.15639 0.0406155 -2.37083e-20)
(1.15054 0.0388957 1.09601e-20)
(1.1449 0.0372422 9.2615e-21)
(1.13947 0.0356513 -1.33773e-21)
(1.13426 0.0341183 -2.38469e-20)
(1.12925 0.0326384 1.28111e-20)
(1.12447 0.0312061 -1.40628e-20)
(1.11989 0.0298157 1.62484e-20)
(1.11552 0.0284617 -6.04842e-21)
(1.11136 0.0271379 -2.88369e-22)
(1.10741 0.0258384 2.1958e-21)
(1.10366 0.0245572 -1.93947e-21)
(1.10011 0.0232885 -1.32959e-21)
(1.09676 0.0220266 1.65575e-22)
(1.09359 0.0207662 -6.34281e-22)
(1.09062 0.019502 1.10327e-22)
(1.08784 0.0182294 -6.40791e-22)
(1.08524 0.0169437 -1.3967e-22)
(1.08283 0.0156407 6.04942e-22)
(1.0806 0.0143165 6.2724e-22)
(1.07856 0.0129674 -2.52676e-22)
(1.0767 0.01159 -4.94144e-22)
(1.07504 0.0101806 7.573e-23)
(1.07357 0.00873653 -7.45195e-24)
(1.07231 0.00725243 -1.22665e-23)
(1.07126 0.00572992 -4.3815e-24)
(1.07044 0.00415312 -6.90241e-23)
(1.06987 0.00254099 -1.10438e-22)
(1.06955 0.000855313 -3.40054e-23)
(1.23931 0.0580248 -9.49606e-20)
(1.23113 0.0557195 -2.74887e-20)
(1.22286 0.0534916 6.03593e-20)
(1.21467 0.051478 1.4466e-21)
(1.20666 0.0495147 4.07942e-21)
(1.19891 0.0475766 -5.24086e-20)
(1.19146 0.0456979 2.86812e-20)
(1.1843 0.0438945 1.40475e-20)
(1.1774 0.0421646 2.32469e-21)
(1.17074 0.0405039 5.14723e-22)
(1.16431 0.0389084 -2.53643e-20)
(1.1581 0.0373748 3.63571e-20)
(1.15211 0.0358999 -1.63019e-20)
(1.14634 0.03448 1.68584e-20)
(1.1408 0.0331112 -3.1066e-21)
(1.13547 0.0317887 4.53681e-21)
(1.13037 0.0305078 -1.58866e-20)
(1.1255 0.0292632 8.2038e-22)
(1.12084 0.0280492 5.19705e-22)
(1.1164 0.0268604 8.05476e-21)
(1.11218 0.0256908 -2.63527e-21)
(1.10817 0.0245348 -4.8561e-21)
(1.10436 0.0233868 7.27531e-21)
(1.10077 0.0222413 -2.49365e-21)
(1.09737 0.021093 1.32468e-21)
(1.09417 0.019937 1.96878e-22)
(1.09117 0.0187687 -1.83546e-21)
(1.08836 0.0175836 1.29992e-21)
(1.08574 0.0163779 -1.65072e-21)
(1.0833 0.0151479 -7.13676e-22)
(1.08106 0.0138902 -4.60068e-22)
(1.079 0.0126017 -4.24542e-23)
(1.07712 0.0112795 7.294e-22)
(1.07545 0.00992073 -8.67732e-23)
(1.07397 0.00852324 1.35598e-22)
(1.07269 0.00708226 9.07398e-23)
(1.07164 0.00560013 -1.21813e-23)
(1.07081 0.00406189 1.98818e-23)
(1.07024 0.00248604 -2.16612e-23)
(1.06992 0.000838862 2.97768e-23)
(1.24305 0.05128 -2.63051e-20)
(1.23468 0.049281 6.38601e-21)
(1.22623 0.047388 -6.64928e-20)
(1.21786 0.0457346 -1.73762e-20)
(1.20964 0.0441216 5.7902e-20)
(1.20167 0.0425147 1.53752e-20)
(1.19399 0.040953 -4.0021e-20)
(1.18661 0.0394558 1.68794e-20)
(1.17952 0.0380225 -2.33095e-20)
(1.17269 0.0366483 3.88195e-20)
(1.1661 0.0353288 -3.97901e-20)
(1.15974 0.0340601 1.23365e-20)
(1.15362 0.0328385 4.84903e-21)
(1.14773 0.0316601 -1.01799e-20)
(1.14207 0.0305207 2.11346e-20)
(1.13664 0.0294156 -1.34676e-20)
(1.13145 0.02834 8.37145e-21)
(1.12648 0.0272887 -1.7113e-20)
(1.12175 0.026256 1.58464e-20)
(1.11724 0.0252369 -3.69778e-22)
(1.11295 0.0242255 -9.53786e-21)
(1.10889 0.0232166 7.93649e-21)
(1.10504 0.0222047 -1.66449e-21)
(1.1014 0.021185 -3.15738e-21)
(1.09796 0.0201525 -1.60622e-22)
(1.09473 0.0191028 4.59109e-22)
(1.0917 0.0180317 2.14744e-21)
(1.08886 0.0169355 -2.18672e-21)