/*--------------------------------*- C++ -*----------------------------------*\
  =========                 |
  \\      /  F ield         | OpenFOAM: The Open Source CFD Toolbox
   \\    /   O peration     | Website:  https://openfoam.org
    \\  /    A nd           | Version:  7
     \\/     M anipulation  |
\*---------------------------------------------------------------------------*/
FoamFile
{
    version     2.0;
    format      ascii;
    class       surfaceScalarField;
    location    "140";
    object      phi;
}
// * * * * * * * * * * * * * * * * * * * * * * * * * * * * * * * * * * * * * //

dimensions      [0 3 -1 0 0 0 0];

internalField   nonuniform List<scalar> 
3886
(
0.00591374
0.00299731
0.00587595
0.00065266
0.00578132
-0.0016702
0.00564079
-0.00364371
0.00547165
-0.00502479
0.00529413
-0.0057974
0.00512013
-0.00597324
0.00494924
-0.00578746
0.00478127
-0.00533231
0.00462604
-0.00479187
0.00450996
-0.00399947
0.0044504
-0.00293805
0.0044583
-0.00149896
0.00451949
0.000276512
0.00462888
0.00209343
0.00476086
0.00412691
0.00491392
0.00562162
0.00506038
0.00722946
0.0051952
0.00764698
0.0053108
0.00784479
0.00537862
0.00646848
0.00543527
0.00434804
0.00541961
0.00169682
0.00538223
-0.00169169
0.00529551
-0.00328253
0.00516966
-0.00578573
0.00504808
-0.00511044
0.00485256
-0.00652029
-0.00465091
0.00655241
-0.000435115
0.00648118
-0.00211607
0.0063477
-0.00340416
0.00617068
-0.00421721
0.00597283
-0.00461378
0.00577172
-0.00471578
0.0055778
-0.00464035
0.00539662
-0.00446237
0.00522866
-0.00421881
0.00506872
-0.00393501
0.00491142
-0.00363076
0.00476046
-0.00329556
0.00463104
-0.00287762
0.00454176
-0.00231549
0.0045042
-0.00158538
0.00451964
-0.000716797
0.00458267
0.000236717
0.00468598
0.00122992
0.00482283
0.00224964
0.0049876
0.00329363
0.00517452
0.004354
0.00537696
0.00536959
0.00558558
0.00623095
0.00578821
0.0067661
0.00596935
0.00680261
0.00611111
0.00619404
0.00619962
0.00488812
0.00622556
0.00297137
0.00618572
0.000692497
0.00608219
-0.00156666
0.00592804
-0.00348956
0.00574293
-0.00483968
0.00554931
-0.00560377
0.00536156
-0.00578549
0.00518046
-0.00560635
0.00500475
-0.0051566
0.00484178
-0.0046289
0.00471767
-0.00387536
0.00465147
-0.00287185
0.00465714
-0.00150463
0.00472085
0.00021281
0.00483802
0.00197626
0.00498084
0.00398409
0.00514824
0.00545422
0.00531081
0.00706689
0.00546162
0.00749617
0.00559379
0.00771261
0.00567292
0.00638935
0.00573852
0.00428245
0.00572381
0.00171153
0.00567847
-0.00164635
0.00557964
-0.00318369
0.00543684
-0.00564293
0.00530479
-0.0049784
0.00509497
-0.00631047
-0.00453726
0.00684164
-0.000436462
0.00676746
-0.00204188
0.0066254
-0.0032621
0.00643725
-0.00402907
0.00622826
-0.00440479
0.00601737
-0.00450489
0.00581516
-0.00443814
0.00562689
-0.00427411
0.00545351
-0.00404544
0.00529062
-0.00377211
0.00513231
-0.00347246
0.00498019
-0.00314343
0.00484748
-0.00274491
0.00475285
-0.00222086
0.00470968
-0.00154222
0.0047211
-0.000728212
0.00478253
0.000175279
0.0048869
0.00112555
0.00502756
0.00210897
0.00519928
0.00312192
0.00539657
0.00415671
0.00561274
0.00515343
0.00583798
0.0060057
0.00605903
0.00654505
0.00625836
0.00660328
0.00641597
0.00603644
0.00651644
0.00478765
0.00654809
0.00293971
0.00650618
0.00073441
0.00639357
-0.00145405
0.00622573
-0.00332172
0.00602471
-0.00463867
0.00581496
-0.00539402
0.00561329
-0.00558382
0.00542186
-0.00541492
0.00523867
-0.00497341
0.00506831
-0.00445854
0.00493609
-0.00374314
0.00486255
-0.00279831
0.0048651
-0.00150719
0.00493076
0.00014715
0.00505576
0.00185126
0.00521003
0.00382982
0.00539272
0.00527154
0.00557285
0.00688675
0.00574081
0.00732822
0.00589094
0.00756248
0.0059825
0.00629779
0.00605765
0.0042073
0.00604438
0.00172479
0.00599048
-0.00159245
0.00587871
-0.00307192
0.00571739
-0.00548161
0.00557402
-0.00483503
0.00534982
-0.00608626
-0.00441189
0.00713439
-0.00044315
0.00705751
-0.001965
0.00690724
-0.00311184
0.00670868
-0.00383051
0.00648947
-0.00418557
0.00626975
-0.00428518
0.00606018
-0.00422856
0.0058656
-0.00407953
0.00568724
-0.00386708
0.0055216
-0.00360647
0.00536271
-0.00331357
0.00521019
-0.00299091
0.00507496
-0.00260968
0.00497518
-0.00212107
0.00492583
-0.00149287
0.0049322
-0.000734587
0.004991
0.000116479
0.00509558
0.00102098
0.00523944
0.00196511
0.00541765
0.00294371
0.00562496
0.00394939
0.00585468
0.00492371
0.0060967
0.00576368
0.00633647
0.00630528
0.00655444
0.00638532
0.00672866
0.00586221
0.00684187
0.00467445
0.00687964
0.00290194
0.0068357
0.000778345
0.00671405
-0.0013324
0.00653273
-0.0031404
0.00631622
-0.00442215
0.00609068
-0.00516848
0.00587517
-0.00536832
0.00567346
-0.00521321
0.00548313
-0.00478308
0.0053059
-0.00428131
0.00516569
-0.00360292
0.00508416
-0.00271678
0.00508255
-0.00150557
0.00514936
8.03443e-05
0.00528198
0.00171864
0.00544819
0.0036636
0.00564705
0.00507267
0.00584619
0.00668761
0.00603242
0.00714198
0.00620184
0.00739307
0.00630701
0.00619261
0.0063922
0.00412212
0.0063809
0.00173608
0.00631788
-0.00152943
0.00619247
-0.0029465
0.0060112
-0.00530034
0.00585564
-0.00467947
0.00561718
-0.0058478
-0.00427432
0.00742968
-0.000455537
0.00735012
-0.00188544
0.00719204
-0.00295376
0.00698399
-0.00362246
0.00675576
-0.00395735
0.00652845
-0.00405786
0.00631265
-0.00401276
0.00611271
-0.00387959
0.00592995
-0.00368432
0.00576183
-0.00343835
0.00560272
-0.00315446
0.00545061
-0.00283879
0.00531382
-0.00247289
0.00520934
-0.0020166
0.0051534
-0.00143693
0.00515366
-0.000734849
0.00520857
6.15726e-05
0.00531224
0.000917304
0.00545842
0.00181894
0.00564237
0.00275976
0.00585906
0.0037327
0.0061019
0.00468087
0.00636054
0.00550504
0.006619
0.00604682
0.00685583
0.00614848
0.00704729
0.00567076
0.00717384
0.0045479
0.00721803
0.00285774
0.00717222
0.00082416
0.00704184
-0.00120202
0.00684765
-0.00294621
0.00661649
-0.00419099
0.0063759
-0.00492789
0.00614696
-0.00513938
0.00593516
-0.00500141
0.00573818
-0.0045861
0.00555478
-0.00409792
0.00540692
-0.00345506
0.00531689
-0.00262676
0.00530992
-0.0014986
0.00537677
1.34933e-05
0.00551648
0.00157894
0.00569496
0.00348512
0.00591071
0.00485693
0.00613024
0.00646808
0.00633583
0.00693639
0.00652581
0.00720308
0.0066458
0.00607263
0.0067414
0.00402651
0.00673258
0.0017449
0.00665995
-0.0014568
0.00652037
-0.00280692
0.00631791
-0.00509788
0.00614934
-0.0045109
0.00589702
-0.00559548
-0.00412428
0.00772674
-0.000473253
0.00764408
-0.00180277
0.00747854
-0.00278822
0.00726216
-0.00340609
0.00702646
-0.00372164
0.00679303
-0.00382443
0.00657233
-0.00379206
0.00636815
-0.00367541
0.00618173
-0.0034979
0.00601146
-0.00326808
0.00585243
-0.00299544
0.00570148
-0.00268784
0.00556423
-0.00233564
0.00545586
-0.00190823
0.00539321
-0.00137427
0.00538631
-0.000727953
0.00543589
1.19988e-05
0.00553724
0.000815949
0.0056845
0.00167168
0.00587309
0.00257117
0.00609817
0.00350763
0.00635337
0.00442566
0.00662806
0.00523034
0.00690481
0.00577007
0.00716049
0.00589281
0.00736953
0.00546172
0.00750978
0.00440765
0.00756062
0.0028069
0.00751326
0.000871518
0.00737478
-0.00106354
0.00716879
-0.00274022
0.00692433
-0.00394653
0.00666992
-0.00467348
0.00642831
-0.00489777
0.00620685
-0.00477995
0.00600377
-0.00438302
0.00581508
-0.00390923
0.00566019
-0.00330017
0.00556132
-0.00252788
0.00554772
-0.001485
0.00561319
-5.19808e-05
0.00575901
0.00143312
0.00594986
0.00329427
0.00618294
0.00462385
0.00642411
0.00622691
0.00665006
0.00671045
0.0068618
0.00699134
0.00699783
0.0059366
0.0071041
0.00392024
0.00709821
0.00175078
0.00701556
-0.00137414
0.0068615
-0.00265286
0.00663693
-0.0048733
0.00645461
-0.00432858
0.00618912
-0.00532999
-0.00396176
0.00802486
-0.000494761
0.00793812
-0.00171603
0.00776548
-0.00261558
0.00754222
-0.00318282
0.00730088
-0.00348031
0.00706309
-0.00358664
0.00683899
-0.00356796
0.00663185
-0.00346827
0.00644267
-0.00330872
0.00627066
-0.00309607
0.00611196
-0.00283674
0.00596281
-0.00253869
0.0058263
-0.00219913
0.00571515
-0.00179708
0.00564603
-0.00130516
0.00563114
-0.000713061
0.00567381
-3.06703e-05
0.00577109
0.000718664
0.00591777
0.00152501
0.00610946
0.00237949
0.00634155
0.00327553
0.00660795
0.00415927
0.00689768
0.00494061
0.00719189
0.00547586
0.00746602
0.00561867
0.00769268
0.00523507
0.00784672
0.00425362
0.00790428
0.00274933
0.00785592
0.000919884
0.0077104
-0.000918026
0.00749425
-0.00252407
0.00723839
-0.00369067
0.00697189
-0.00440698
0.0067188
-0.00464468
0.0064883
-0.00454944
0.00627979
-0.00417451
0.00608685
-0.00371629
0.00592585
-0.00313916
0.00581806
-0.00242009
0.00579652
-0.00146347
0.00585888
-0.000114337
0.00600934
0.00128265
0.00621228
0.00309133
0.00646276
0.00437337
0.00672659
0.00596308
0.00697378
0.00646326
0.00720829
0.00675682
0.00736163
0.00578327
0.00747867
0.0038032
0.00747612
0.00175334
0.00738308
-0.0012811
0.00721451
-0.00248429
0.00696735
-0.00462614
0.00677072
-0.00413195
0.00649308
-0.00505235
-0.00378704
0.00832325
-0.000516937
0.0082309
-0.00162369
0.00805162
-0.0024363
0.00782324
-0.00295444
0.00757846
-0.00323553
0.0073383
-0.00334647
0.00711244
-0.00334211
0.0069037
-0.00325953
0.00671281
-0.00311783
0.0065396
-0.00292286
0.00638144
-0.00267858
0.00623459
-0.00239184
0.00609998
-0.00206452
0.00598744
-0.00168454
0.0059126
-0.00123031
0.00588921
-0.000689673
0.00592341
-6.48739e-05
0.00601456
0.000627519
0.00615851
0.00138105
0.00635125
0.00218675
0.00658853
0.00303825
0.00686445
0.00388335
0.00716764
0.00463742
0.00747798
0.00516552
0.00776981
0.00532685
0.00801371
0.00499116
0.00818126
0.00408607
0.00824561
0.00268498
0.0081968
0.000968696
0.00804597
-0.000767193
0.00782194
-0.00230004
0.0075572
-0.00342594
0.00728089
-0.00413067
0.00701793
-0.00438172
0.00677929
-0.0043108
0.00656611
-0.00396134
0.00637005
-0.00352022
0.00620413
-0.00297325
0.00608771
-0.00230367
0.00605701
-0.00143277
0.00611425
-0.00017157
0.00626728
0.00112962
0.00648154
0.00287707
0.00674896
0.00410595
0.00703607
0.00567597
0.00730521
0.00619413
0.00756332
0.00649871
0.00773521
0.00561138
0.00786302
0.00367539
0.00786407
0.00175229
0.00776041
-0.00117744
0.0075776
-0.00230149
0.00730797
-0.00435651
0.00709671
-0.0039207
0.00680831
-0.00476395
-0.00360073
0.00862068
-0.000535025
0.00852091
-0.00152392
0.00833579
-0.00225118
0.00810448
-0.00272313
0.00785875
-0.00298979
0.0076184
-0.00310613
0.00739254
-0.00311624
0.00718365
-0.00305064
0.0069922
-0.00292639
0.00681846
-0.00274911
0.00666103
-0.00252115
0.0065168
-0.00224761
0.00638511
-0.00193283
0.00627279
-0.00157222
0.00619347
-0.00115099
0.00616161
-0.00065782
0.006186
-8.92553e-05
0.00626871
0.000544807
0.00640729
0.00124247
0.00659848
0.00199556
0.00683855
0.00279818
0.00712172
0.00360019
0.00743617
0.00432297
0.00776081
0.00484088
0.00806907
0.00501859
0.00832935
0.00473088
0.00850969
0.00390573
0.00858063
0.00261404
0.00853251
0.00101682
0.00837862
-0.000613304
0.00814974
-0.00207116
0.00787926
-0.00315546
0.00759592
-0.00384732
0.00732514
-0.00411094
0.00707953
-0.00406519
0.00686253
-0.00374434
0.00666454
-0.00332224
0.00649517
-0.00280388
0.00637082
-0.00217932
0.00632997
-0.00139192
0.0063799
-0.000221507
0.0065328
0.000976725
0.00675693
0.00265294
0.00704012
0.00382276
0.00735058
0.0053655
0.00764209
0.00590262
0.00792433
0.00621647
0.008116
0.0054197
0.00825441
0.00353698
0.00825922
0.00174748
0.00814484
-0.00106307
0.0079485
-0.00210514
0.00765725
-0.00406526
0.00743142
-0.00369487
0.00713402
-0.00446655
-0.00340386
0.00891519
-0.000543302
0.00880654
-0.00141527
0.00861702
-0.00206166
0.00838543
-0.00249155
0.0081415
-0.00274587
0.0079033
-0.00286793
0.00767923
-0.00289217
0.00747164
-0.00284305
0.00728085
-0.0027356
0.00710738
-0.00257564
0.00695096
-0.00236473
0.00680948
-0.00210613
0.00668148
-0.00180483
0.00657099
-0.00146173
0.00648894
-0.00106894
0.00644934
-0.000618225
0.00646302
-0.000102929
0.00653498
0.00047284
0.00666515
0.0011123
0.00685158
0.00180913
0.00709136
0.0025584
0.00737875
0.00331279
0.00770159
0.00400013
0.00803815
0.00450432
0.00836105
0.00469569
0.00863622
0.00445571
0.00882809
0.00371386
0.00890537
0.00253676
0.00885946
0.00106273
0.0087056
-0.000459442
0.00847567
-0.00184123
0.00820318
-0.00288297
0.00791604
-0.00356018
0.00763988
-0.00383478
0.00738875
-0.00381406
0.00716883
-0.00352442
0.00697012
-0.00312353
0.00679896
-0.00263272
0.00666787
-0.00204823
0.00661624
-0.00134029
0.00665672
-0.000261983
0.00680614
0.000827306
0.00703788
0.00242119
0.00733472
0.00352593
0.0076678
0.00503243
0.00798168
0.00558874
0.00828822
0.00590994
0.0085008
0.00520712
0.00864946
0.00338832
0.00865811
0.00173883
0.00853313
-0.000938084
0.00832445
-0.00189646
0.00801336
-0.00375417
0.00777351
-0.00345503
0.00746928
-0.00416232
-0.00319788
0.00920406
-0.000536604
0.00908628
-0.00129749
0.00889474
-0.00187012
0.00866599
-0.00226279
0.00842676
-0.00250663
0.00819304
-0.00263421
0.00797255
-0.00267167
0.00776767
-0.00263817
0.00757879
-0.00254672
0.00740651
-0.00240337
0.00725145
-0.00220966
0.00711274
-0.00196742
0.00698888
-0.00168096
0.00688168
-0.00135453
0.00679895
-0.000986205
0.0067531
-0.00057238
0.00675595
-0.000105771
0.0068152
0.000413582
0.0069337
0.000993808
0.00711159
0.00163123
0.0073472
0.00232279
0.007635
0.003025
0.00796266
0.00367247
0.00830815
0.00415883
0.00864323
0.00436062
0.00893099
0.00416795
0.00913259
0.00351225
0.00921605
0.00245331
0.00917438
0.0011044
0.00902456
-0.000309627
0.00879809
-0.00161475
0.00852778
-0.00261266
0.0082404
-0.0032728
0.00796161
-0.00355599
0.00770668
-0.00355913
0.00748482
-0.00330255
0.00728653
-0.00292524
0.00711534
-0.00246153
0.00697917
-0.00191206
0.00691673
-0.00127785
0.00694582
-0.000291073
0.00708793
0.000685195
0.00732404
0.00218508
0.0076313
0.00321867
0.00798515
0.00467857
0.00832082
0.00525308
0.00865132
0.00557943
0.00888569
0.00497275
0.00904412
0.0032299
0.00905658
0.00172636
0.00892148
-0.00080298
0.00870227
-0.00167725
0.00837419
-0.00342609
0.00812152
-0.00320236
0.007813
-0.00385379
-0.00298466
0.00948441
-0.000512266
0.00935923
-0.00117231
0.00916905
-0.00167994
0.00894653
-0.00204028
0.00871484
-0.00227494
0.00848786
-0.00240723
0.00827265
-0.00245645
0.00807183
-0.00243736
0.00788602
-0.00236091
0.00771595
-0.0022333
0.00756275
-0.00205647
0.0074268
-0.00183147
0.00730718
-0.00156135
0.00720434
-0.00125169
0.00712305
-0.00090492
0.00707314
-0.000522468
0.00706605
-9.86749e-05
0.00711144
0.00036819
0.00721527
0.00088998
0.00738046
0.00146604
0.00760726
0.002096
0.00789075
0.00274151
0.0082189
0.00334431
0.00856968
0.00380805
0.00891358
0.00401672
0.00921067
0.00387085
0.00941963
0.00330329
0.00950932
0.00236362
0.00947486
0.00113885
0.00933392
-0.000168682
0.00911598
-0.00139681
0.00885229
-0.00234897
0.00856838
-0.00298889
0.00828989
-0.0032775
0.00803311
-0.00330236
0.00781034
-0.00307979
0.0076135
-0.0027284
0.007444
-0.00229203
0.00730486
-0.00177292
0.00723229
-0.00120527
0.00724859
-0.000307375
0.00737931
0.000554474
0.00761552
0.00194887
0.00792864
0.00290555
0.00830006
0.00430715
0.00865605
0.00489709
0.00900954
0.00522594
0.00926619
0.0047161
0.00943362
0.00306246
0.00944991
0.00171007
0.00930568
-0.000658748
0.0090785
-0.00145008
0.0087375
-0.00308508
0.00847397
-0.00293883
0.00816403
-0.00354385
-0.00276646
0.00975443
-0.000471478
0.00962565
-0.00104353
0.0094409
-0.00149518
0.00922797
-0.00182735
0.00900642
-0.00205338
0.00878817
-0.00218899
0.00857978
-0.00224807
0.00838425
-0.00224183
0.00820262
-0.00217928
0.00803575
-0.00206642
0.00788508
-0.0019058
0.00775194
-0.00169833
0.00763642
-0.00144582
0.00753849
-0.00115376
0.00746049
-0.000826922
0.00740911
-0.000471085
0.00739407
-8.36352e-05
0.00742572
0.000336538
0.00751274
0.000802962
0.00766122
0.00131756
0.00787404
0.00188317
0.00814777
0.00246778
0.00847135
0.00302073
0.0088228
0.00345659
0.00917092
0.0036686
0.00947295
0.00356883
0.00968658
0.00308966
0.0097832
0.00226699
0.00975992
0.00116213
0.00963333
-4.20847e-05
0.00942918
-0.00119266
0.00917645
-0.00209625
0.00889958
-0.00271202
0.00862435
-0.00300227
0.00836785
-0.00304586
0.0081453
-0.00285724
0.00795078
-0.00253387
0.00778454
-0.00212579
0.00764483
-0.00163322
0.0075636
-0.00112404
0.00756653
-0.000310311
0.00768192
0.000439091
0.00791301
0.00171778
0.00822606
0.0025925
0.0086102
0.00392301
0.00898396
0.00452333
0.00935859
0.00485131
0.0096373
0.00443739
0.00981275
0.00288701
0.00983292
0.0016899
0.0096813
-0.000507122
0.0094496
-0.00121838
0.00910103
-0.00273652
0.00882946
-0.00266727
0.00852127
-0.00323566
-0.00254591
0.0100146
-0.000419021
0.0098874
-0.000916285
0.00971215
-0.00131993
0.00951173
-0.00162694
0.0093024
-0.00184405
0.00909452
-0.00198111
0.00889431
-0.00204786
0.00870517
-0.00205268
0.00852869
-0.0020028
0.00836598
-0.00190371
0.0082186
-0.00175843
0.00808849
-0.00156822
0.0079768
-0.00133413
0.00788381
-0.00106077
0.00781036
-0.000753467
0.00776007
-0.000420794
0.00773997
-6.35405e-05
0.00775958
0.000316927
0.00782922
0.000733327
0.00795793
0.00118885
0.00815185
0.00168925
0.00841002
0.00220961
0.00872312
0.00270763
0.0090693
0.00311041
0.0094154
0.0033225
0.00971689
0.00326733
0.00993273
0.00287382
0.010038
0.00216171
0.0100307
0.00116942
0.00992409
6.4547e-05
0.00973859
-0.00100717
0.00950062
-0.00185828
0.00923395
-0.00244534
0.00896477
-0.00273309
0.00871079
-0.00279188
0.00848967
-0.00263611
0.00829819
-0.00234239
0.00813646
-0.00196406
0.00799871
-0.00149547
0.00791107
-0.00103641
0.00790113
-0.000300364
0.00799786
0.000342361
0.00821797
0.00149766
0.00852375
0.00228673
0.00891402
0.00353274
0.00930165
0.0041357
0.00969442
0.00445855
0.00999399
0.00413781
0.010176
0.00270498
0.0102005
0.00166546
0.0100441
-0.000350747
0.00981228
-0.000986566
0.00946276
-0.002387
0.0091869
-0.00239141
0.00888376
-0.00293252
-0.00232586
0.0102684
-0.000361563
0.0101478
-0.000795645
0.00998537
-0.00115751
0.00979954
-0.00144111
0.00960389
-0.00164839
0.0094076
-0.00178483
0.00921667
-0.00185693
0.00903486
-0.00187088
0.00886438
-0.00183232
0.00870669
-0.00174602
0.0085634
-0.00161514
0.00843674
-0.00144156
0.00832868
-0.00122607
0.00824027
-0.000972366
0.00817183
-0.000685031
0.00812469
-0.000373649
0.00810281
-4.1663e-05
0.00811355
0.000306188
0.00816733
0.000679552
0.00827521
0.00108097
0.00844661
0.00151784
0.00868382
0.00197241
0.00897983
0.00241162
0.00931311
0.00277713
0.00964925
0.00298636
0.00994428
0.00297231
0.0101607
0.00265738
0.0102776
0.00204485
0.0102912
0.00115577
0.0102094
0.000146438
0.0100462
-0.000843982
0.00982574
-0.00163784
0.00957174
-0.00219135
0.00931109
-0.00247244
0.00906188
-0.00254266
0.0088435
-0.00241773
0.00865567
-0.00215457
0.00849931
-0.0018077
0.00836589
-0.00136205
0.00827474
-0.000945251
0.00825355
-0.00027918
0.00832947
0.000266442
0.0085326
0.00129453
0.0088231
0.00199623
0.00921135
0.00314448
0.00960742
0.00373964
0.0100139
0.00405208
0.0103317
0.00382
0.0105184
0.00251824
0.0105478
0.00163607
0.0103905
-0.000193421
0.0101639
-0.000760021
0.00982116
-0.00204421
0.0095456
-0.00211585
0.00925086
-0.00263778
-0.00210923
0.0105211
-0.000305269
0.0104109
-0.000685427
0.0102634
-0.00100997
0.0100933
-0.00127101
0.00991208
-0.00146721
0.00972816
-0.0016009
0.00954733
-0.00167611
0.00937369
-0.00169723
0.00920994
-0.00166857
0.00905799
-0.00159406
0.00891955
-0.0014767
0.00879689
-0.0013189
0.00869245
-0.00112163
0.00860812
-0.000888033
0.00854449
-0.000621403
0.00850163
-0.000330792
0.00848091
-2.09427e-05
0.00848684
0.000300261
0.00852839
0.000638
0.00861712
0.000992235
0.00876487
0.00137009
0.00897702
0.00176026
0.00924908
0.00213955
0.00956063
0.00246559
0.00987814
0.00266885
0.0101614
0.00268903
0.0103783
0.00244053
0.01051
0.0019131
0.0105485
0.00111733
0.0104939
0.000200985
0.0103547
-0.00070475
0.0101531
-0.00143628
0.00991346
-0.00195169
0.00966337
-0.00222235
0.0094211
-0.0023004
0.00920691
-0.00220354
0.00902332
-0.00197098
0.00887277
-0.00165714
0.00874563
-0.00123492
0.00865413
-0.000853748
0.00862441
-0.000249462
0.00867898
0.000211873
0.00885977
0.00111374
0.00912702
0.00172898
0.00950408
0.00276741
0.00990163
0.0033421
0.0103155
0.00363817
0.0106471
0.00348843
0.0108362
0.00232915
0.0108716
0.00160063
0.0107184
-4.0126e-05
0.0105032
-0.000544911
0.0101755
-0.00171648
0.00990549
-0.00184583
0.00962231
-0.0023546
-0.00189882
0.0107786
-0.000254494
0.0106808
-0.000587608
0.0105488
-0.000878002
0.0103947
-0.00111683
0.0102282
-0.00130071
0.010057
-0.00142973
0.00988686
-0.00150598
0.00972205
-0.00153242
0.00956567
-0.00151219
0.00942005
-0.00144844
0.0092871
-0.00134376
0.00916904
-0.00120083
0.00906846
-0.00102105
0.0089878
-0.000807376
0.00892834
-0.000561944
0.00888993
-0.000292382
0.00887235
-3.36434e-06
0.00887746
0.000295149
0.0089118
0.00060366
0.00898571
0.000918328
0.00911165
0.00124416
0.00929689
0.00157501
0.00953919
0.00189726
0.00982074
0.00218404
0.0101123
0.0023773
0.0103805
0.00242077
0.0105986
0.00222242
0.0107473
0.00176446
0.0108112
0.00105338
0.0107833
0.000228876
0.0106671
-0.000588537
0.0104843
-0.00125342
0.0102598
-0.00172718
0.0100218
-0.00198438
0.00978852
-0.00206712
0.00958007
-0.0019951
0.00940136
-0.00179227
0.00925668
-0.00151246
0.00913717
-0.0011154
0.00904832
-0.000764905
0.00901353
-0.000214668
0.00904807
0.00017733
0.00920275
0.000959063
0.00944009
0.00149164
0.00979673
0.00241078
0.0101874
0.0029514
0.0106005
0.00322507
0.0109393
0.00314966
0.0111278
0.00214061
0.011171
0.00155751
0.0110277
0.000103142
0.0108306
-0.000347791
0.0105262
-0.0014121
0.0102672
-0.00158688
0.00999843
-0.00208579
-0.00169712
0.0110459
-0.00021099
0.0109608
-0.000502487
0.010844
-0.000761211
0.0107053
-0.000978136
0.0105533
-0.00114868
0.0103949
-0.0012714
0.0102359
-0.00134689
0.0100804
-0.00137694
0.0099319
-0.00136372
0.0097931
-0.00130964
0.00966616
-0.00121681
0.00955326
-0.00108793
0.00945691
-0.000924701
0.0093798
-0.000730261
0.00932382
-0.000505965
0.0092893
-0.000257863
0.00927563
1.03077e-05
0.0092829
0.000287878
0.00931507
0.000571492
0.00937991
0.000853483
0.00948837
0.0011357
0.00964769
0.00141569
0.00985734
0.00168761
0.0101041
0.00193731
0.010366
0.00211536
0.0106185
0.0021683
0.0108381
0.0020028
0.0110024
0.00160013
0.0110883
0.000967507
0.0110823
0.000234831
0.010986
-0.000492224
0.0108205
-0.00108788
0.0106113
-0.00151803
0.0103867
-0.00175973
0.0101643
-0.00184468
0.00996318
-0.00179402
0.00979013
-0.00161921
0.00965118
-0.00137352
0.00953984
-0.00100406
0.00945612
-0.000681185
0.00941986
-0.000178412
0.00943756
0.000159635
0.00956487
0.000831752
0.00976831
0.0012882
0.0100964
0.00208271
0.010471
0.0025768
0.010873
0.00282304
0.0112104
0.00281227
0.0113953
0.00195571
0.0114482
0.00150461
0.0113212
0.000230091
0.0111485
-0.000175026
0.0108748
-0.00113843
0.0106322
-0.0013443
0.0103801
-0.00183363
-0.00150612
0.0113266
-0.00017494
0.0112534
-0.000429272
0.0111507
-0.000658538
0.0110266
-0.000854033
0.0108885
-0.00101059
0.0107429
-0.00112575
0.010595
-0.001199
0.0104492
-0.00123115
0.010309
-0.00122358
0.0101775
-0.00117808
0.0100569
-0.00109625
0.00994959
-0.000980622
0.00985791
-0.000833021
0.00978446
-0.000656804
0.0097315
-0.000453011
0.00970008
-0.000226438
0.00969005
2.03341e-05
0.0097009
0.000277031
0.00973457
0.000537825
0.00979571
0.00079234
0.00989208
0.00103932
0.0100292
0.00127856
0.0102078
0.00150898
0.0104205
0.00172466
0.010654
0.00188181
0.0108916
0.00193077
0.0111109
0.00178342
0.0112852
0.00142588
0.011385
0.000867712
0.011394
0.000225827
0.0113129
-0.000411167
0.0111628
-0.000937768
0.010969
-0.00132421
0.0107586
-0.00154933
0.0105486
-0.00163465
0.0103565
-0.00160192
0.01019
-0.00145277
0.0100566
-0.00124015
0.00995333
-0.00090074
0.00987622
-0.000604075
0.00984173
-0.000143923
0.00984719
0.000154172
0.0099489
0.000730045
0.0101181
0.00111901
0.0104116
0.00178915
0.0107607
0.00222773
0.0111403
0.00244349
0.0114666
0.00248595
0.011645
0.00177733
0.0117096
0.00144
0.0116052
0.000334451
0.0114618
-3.16235e-05
0.0112243
-0.000900893
0.0110025
-0.00112252
0.0107685
-0.00159966
-0.00132719
0.0116229
-0.000145578
0.0115603
-0.000366654
0.0114704
-0.000568635
0.0113598
-0.000743436
0.0112349
-0.000885717
0.0111016
-0.000992429
0.0109649
-0.00106226
0.010829
-0.00109525
0.0106975
-0.00109209
0.0105735
-0.00105408
0.0104596
-0.000982364
0.0103582
-0.000879203
0.0102715
-0.000746359
0.010202
-0.000587268
0.0101519
-0.00040297
0.010123
-0.000197468
0.0101158
2.74908e-05
0.0101302
0.00026265
0.0101669
0.000501109
0.0102278
0.000731465
0.0103169
0.000950218
0.0104373
0.00115811
0.0105908
0.00135552
0.0107753
0.00154013
0.0109852
0.00167196
0.0112087
0.00170724
0.0114233
0.00156886
0.0115985
0.00125069
0.0117023
0.000763867
0.0117185
0.000209644
0.0116483
-0.00034101
0.011512
-0.000801461
0.0113336
-0.00114573
0.0111381
-0.00135392
0.0109418
-0.00143832
0.0107601
-0.00142025
0.0106014
-0.00129405
0.0104736
-0.00111233
0.0103777
-0.000804832
0.0103076
-0.000533974
0.0102772
-0.000113528
0.0102757
0.000155626
0.0103564
0.000649439
0.0104946
0.000980756
0.0107506
0.00153319
0.0110657
0.00191258
0.0114119
0.00209734
0.0117179
0.00217995
0.0118876
0.00160756
0.0119655
0.00136213
0.0118884
0.000411546
0.0117772
7.95582e-05
0.0115784
-0.000702047
0.0113805
-0.000924602
0.0111655
-0.00138471
-0.00116104
0.0119362
-0.000121862
0.0118828
-0.000313195
0.0118042
-0.00049008
0.011706
-0.000645179
0.0115935
-0.000773261
0.0114721
-0.000870986
0.0113463
-0.000936506
0.0112203
-0.000969282
0.0110977
-0.000969446
0.0109815
-0.00093788
0.0108745
-0.000875366
0.0107792
-0.000783866
0.0106978
-0.000664937
0.0106324
-0.000521922
0.0105854
-0.000355956
0.0105586
-0.000170693
0.0105535
3.25732e-05
0.0105705
0.000245665
0.0106099
0.000461709
0.0106716
0.000669792
0.0107566
0.000865205
0.010866
0.00104866
0.0110021
0.00121944
0.0111667
0.00137552
0.0113584
0.00148028
0.0115678
0.00149783
0.0117714
0.00136525
0.0119382
0.00108388
0.0120374
0.000664729
0.0120548
0.000192272
0.0119925
-0.000278732
0.0118691
-0.000678047
0.0117061
-0.000982806
0.0115263
-0.00117412
0.0113446
-0.00125657
0.0111746
-0.00125022
0.0110247
-0.00114415
0.0109027
-0.000990351
0.0108133
-0.000715463
0.0107498
-0.000470478
0.0107246
-8.83572e-05
0.0107213
0.000158952
0.0107869
0.00058387
0.0109001
0.000867528
0.0111184
0.00131495
0.0113938
0.0016371
0.0116985
0.00179265
0.0119773
0.00190122
0.0121374
0.00144738
0.0122289
0.00127063
0.0121812
0.000459302
0.012102
0.00015872
0.0119412
-0.000541269
0.0117685
-0.000751879
0.0115727
-0.00118889
-0.00100781
0.0122675
-0.00010268
0.0122218
-0.000267536
0.0121533
-0.000421519
0.0120662
-0.000558105
0.0119653
-0.000672351
0.0118552
-0.000760848
0.0117401
-0.000821433
0.011624
-0.000853157
0.0115102
-0.000855713
0.011402
-0.000829633
0.011302
-0.000775413
0.0112129
-0.000694714
0.0111368
-0.000588864
0.0110758
-0.00046095
0.0110321
-0.000312208
0.0110074
-0.000146052
0.0110039
3.60905e-05
0.0110224
0.000227235
0.0110631
0.000421016
0.0111249
0.000607955
0.0112072
0.000782912
0.0113099
0.000945946
0.0114354
0.00109398
0.011587
0.00122391
0.0117643
0.00130295
0.0119582
0.0013039
0.0121455
0.001178
0.0122971
0.00093221
0.0123861
0.000575748
0.0124016
0.000176749
0.0123459
-0.000223018
0.0122352
-0.000567331
0.0120881
-0.00083571
0.0119243
-0.00101033
0.0117577
-0.00108995
0.0116001
-0.00109265
0.01146
-0.00100405
0.0113444
-0.000874687
0.0112609
-0.000631946
0.0112031
-0.000412672
0.0111832
-6.84778e-05
0.0111818
0.000160335
0.0112383
0.000527388
0.0113332
0.000772582
0.0115164
0.00113182
0.0117504
0.00140305
0.0120104
0.00153263
0.0122586
0.00165302
0.0124093
0.00129667
0.0125128
0.00116715
0.0124932
0.000478873
0.0124431
0.000208822
0.0123166
-0.000414746
0.0121687
-0.000603935
0.0119916
-0.0010118
-0.000867258
0.0126174
-8.70864e-05
0.0125783
-0.00022847
0.0125185
-0.000361708
0.0124415
-0.000481098
0.0123512
-0.000582095
0.0122518
-0.000661377
0.012147
-0.00071664
0.0120405
-0.000746668
0.0119356
-0.000750833
0.0118354
-0.000729379
0.0117425
-0.000682569
0.0116596
-0.000611804
0.0115889
-0.00051817
0.0115324
-0.000404427
0.011492
-0.000271844
0.0114697
-0.000123718
0.0114674
3.83471e-05
0.0114864
0.000208296
0.0115269
0.000380519
0.0115876
0.000547229
0.0116673
0.000703236
0.0117655
0.000847699
0.0118843
0.000975224
0.0120266
0.00108163
0.0121909
0.00113862
0.0123678
0.001127
0.0125354
0.00101037
0.0126691
0.000798575
0.0127464
0.000498392
0.0127594
0.000163789
0.0127103
-0.000173911
0.0126123
-0.000469406
0.0124812
-0.000704539
0.0123335
-0.000862649
0.0121821
-0.000938554
0.0120374
-0.00094798
0.0119078
-0.000874433
0.0117991
-0.000765995
0.011721
-0.000553876
0.011668
-0.000359661
0.0116527
-5.31701e-05
0.0116553
0.000157733
0.0117071
0.000475584
0.0117898
0.000689959
0.0119424
0.000979142
0.0121378
0.00120766
0.0123554
0.00131502
0.0125736
0.00143482
0.0127155
0.00115477
0.0128274
0.00105528
0.0128318
0.000474504
0.0128055
0.000235137
0.0127073
-0.000316612
0.0125824
-0.000479
0.0124233
-0.000852729
-0.00073897
0.0129865
-7.43034e-05
0.012953
-0.000194954
0.0129008
-0.000309526
0.0128328
-0.000413104
0.0127523
-0.0005016
0.0126628
-0.000571882
0.0125678
-0.000621638
0.0124707
-0.000649503
0.0123745
-0.000654635
0.0122821
-0.000637048
0.0121964
-0.00059683
0.0121197
-0.000535123
0.0120544
-0.000452827
0.0120023
-0.000352342
0.0119654
-0.000234941
0.0119454
-0.00010372
0.0119443
3.94687e-05
0.0119631
0.000189434
0.0120024
0.000341266
0.0120609
0.000488711
0.0121375
0.000626655
0.0122317
0.000753428
0.0123449
0.000862068
0.0124786
0.000947942
0.0126297
0.000987504
0.0127886
0.000968089
0.0129361
0.00086291
0.013052
0.00068264
0.0131187
0.000431702
0.0131299
0.000152533
0.0130878
-0.000131784
0.0130026
-0.0003842
0.0128871
-0.000589
0.0127552
-0.000730795
0.0126188
-0.000802149
0.0124871
-0.000816241
0.0123683
-0.000755648
0.0122672
-0.000664877
0.0121945
-0.000481208
0.0121457
-0.000310835
0.0121339
-4.13771e-05
0.0121408
0.000150857
0.0121902
0.00042617
0.0122648
0.000615387
0.0123928
0.000851081
0.0125558
0.00104468
0.0127374
0.0011334
0.0129288
0.00124339
0.0130625
0.00102116
0.0131779
0.000939878
0.0132
0.00045233
0.0131911
0.000244026
0.0131149
-0.000240383
0.0130104
-0.000374532
0.0128686
-0.000710904
-0.000622548
0.0133754
-6.36932e-05
0.0133466
-0.000166099
0.013301
-0.000263975
0.0132411
-0.000353141
0.0131695
-0.000429986
0.0130892