/*--------------------------------*- C++ -*----------------------------------*\
  =========                 |
  \\      /  F ield         | OpenFOAM: The Open Source CFD Toolbox
   \\    /   O peration     | Website:  https://openfoam.org
    \\  /    A nd           | Version:  7
     \\/     M anipulation  |
\*---------------------------------------------------------------------------*/
FoamFile
{
    version     2.0;
    format      ascii;
    class       volScalarField;
    location    "110";
    object      p;
}
// * * * * * * * * * * * * * * * * * * * * * * * * * * * * * * * * * * * * * //

dimensions      [0 2 -2 0 0 0 0];

internalField   nonuniform List<scalar> 
1987
(
0.0637309
0.055526
0.0472737
0.0364567
0.0389769
0.0275658
0.030656
0.013851
0.0186944
0.0223412
0.00453354
0.00986232
0.0140551
-0.00471401
0.00108616
0.00581337
-0.0203195
-0.013878
-0.00761961
-0.00237041
-0.0298969
-0.0229457
-0.016242
-0.0104838
-0.0393523
-0.0319053
-0.0247689
-0.0185158
-0.0486744
-0.0407458
-0.0331892
-0.0264562
-0.067145
-0.0578525
-0.0494571
-0.0414929
-0.0342956
-0.0766453
-0.0668771
-0.0580302
-0.0496708
-0.0420254
-0.0859634
-0.0757397
-0.0664569
-0.0577147
-0.0496376
-0.0950916
-0.0844326
-0.0747301
-0.0656176
-0.0571247
-0.104023
-0.0929489
-0.0828438
-0.0733737
-0.0644794
-0.112752
-0.101283
-0.0907925
-0.0809793
-0.0716948
-0.134152
-0.121273
-0.109428
-0.0985708
-0.0884333
-0.0787638
-0.117382
-0.106172
-0.095735
-0.0856856
0.0880656
0.0979659
0.106114
0.112365
0.116633
0.119635
0.121192
0.121906
0.121655
0.120884
0.119529
0.117912
0.115997
0.114014
0.111936
0.109927
0.107955
0.106134
0.10443
0.102936
0.101611
0.10053
0.0996586
0.0990687
0.0987392
0.0825454
0.0920935
0.100327
0.106801
0.111562
0.115009
0.117088
0.118268
0.118485
0.118128
0.117162
0.115883
0.114273
0.112551
0.110702
0.108886
0.107079
0.105396
0.103808
0.102409
0.101161
0.10014
0.099315
0.0987553
0.0984422
0.0771046
0.0864826
0.0947469
0.101408
0.106571
0.110416
0.112979
0.114598
0.115269
0.115316
0.114735
0.113793
0.11249
0.111033
0.109417
0.107799
0.106163
0.104622
0.103156
0.101854
0.100688
0.0997295
0.0989519
0.0984238
0.098128
0.0719593
0.0811595
0.0894027
0.0962167
0.101695
0.105891
0.108889
0.110918
0.11202
0.112457
0.112254
0.111646
0.11065
0.10946
0.108081
0.106665
0.105204
0.103811
0.10247
0.101271
0.100189
0.099296
0.0985687
0.0980738
0.097796
0.0671507
0.0761432
0.0843138
0.0912329
0.0969516
0.101451
0.104832
0.107239
0.108747
0.109558
0.109723
0.109443
0.108755
0.107831
0.106694
0.105483
0.104203
0.102962
0.101751
0.100658
0.099664
0.0988392
0.0981646
0.0977044
0.0974455
0.0626586
0.0714267
0.0794872
0.0864604
0.092354
0.09711
0.100823
0.103577
0.105461
0.106628
0.107149
0.107191
0.106807
0.106151
0.105257
0.104255
0.10316
0.102073
0.100997
0.100014
0.099112
0.0983583
0.0977388
0.0973149
0.0970759
0.0584682
0.0670001
0.0749238
0.0819037
0.0879161
0.0928817
0.0968773
0.099944
0.102174
0.103679
0.104541
0.104896
0.104811
0.104421
0.103772
0.102981
0.102074
0.101147
0.100209
0.099339
0.0985324
0.0978527
0.0972907
0.0969048
0.0966865
0.0545744
0.062858
0.0706225
0.0775671
0.0836498
0.0887794
0.0930112
0.0963559
0.0989
0.100721
0.101906
0.102565
0.102773
0.102646
0.10224
0.101662
0.100946
0.100182
0.0993862
0.0986329
0.097925
0.097322
0.0968198
0.0964733
0.0962766
0.0509743
0.0589977
0.066582
0.0734542
0.0795648
0.0848145
0.0892386
0.0928258
0.0956508
0.0977648
0.0992537
0.100205
0.100697
0.100829
0.100666
0.100301
0.0997779
0.0991788
0.0985286
0.0978955
0.0972892
0.0967656
0.0963255
0.0960201
0.0958459
0.0476635
0.0554161
0.0628005
0.069568
0.0756688
0.0809974
0.0855727
0.0893665
0.0924396
0.0948221
0.0965943
0.0978232
0.0985893
0.0989759
0.0990515
0.0988996
0.0985707
0.098139
0.0976367
0.0971266
0.096625
0.0961832
0.0958075
0.0955446
0.0953939
0.0446362
0.0521089
0.0592755
0.0659104
0.0719676
0.0773371
0.0820251
0.0859901
0.0892787
0.0919041
0.0939375
0.0954291
0.0964572
0.0970909
0.0974012
0.097461
0.0973262
0.0970634
0.0967112
0.0963267
0.0959322
0.0955748
0.0952655
0.0950465
0.0949201
0.0418849
0.0490702
0.0560036
0.0624823
0.0684658
0.0738414
0.0786061
0.082708
0.0861802
0.0890217
0.0912933
0.0930309
0.0943076
0.09518
0.0957192
0.0959883
0.0960466
0.0959535
0.0957529
0.0954961
0.0952112
0.0949403
0.0946993
0.0945256
0.0944244
0.039401
0.0462931
0.0529806
0.0592832
0.0651661
0.0705167
0.0753249
0.0795306
0.0831551
0.0861857
0.0886719
0.0906373
0.0921479
0.0932493
0.0940103
0.094485
0.0947345
0.0948113
0.0947631
0.0946358
0.0944623
0.0942799
0.094109
0.0939819
0.0939067
0.0371746
0.0437694
0.050201
0.056311
0.0620702
0.0673678
0.0721889
0.0764673
0.080214
0.0834067
0.0860835
0.0882575
0.0899862
0.0913054
0.0922799
0.0929554
0.0933931
0.093639
0.0937433
0.0937468
0.0936861
0.093594
0.0934947
0.0934154
0.0933669
0.0351946
0.0414898
0.0476584
0.0535624
0.059178
0.0643982
0.0692042
0.0735263
0.0773665
0.0806944
0.0835379
0.0859005
0.0878306
0.0893553
0.0905336
0.0914041
0.0920259
0.0924392
0.0926955
0.0928305
0.0928836
0.0928833
0.0928568
0.0928264
0.0928053
0.0334488
0.0394443
0.0453451
0.0510328
0.0564884
0.0616099
0.0663758
0.0707146
0.074621
0.0780583
0.0810446
0.0835752
0.0856893
0.087406
0.0887776
0.0898359
0.0906368
0.0912152
0.091622
0.0918887
0.0920561
0.0921487
0.092196
0.0922155
0.0922222
0.0319242
0.0376217
0.0432526
0.0487167
0.0539989
0.0590035
0.0637071
0.0680381
0.0719853
0.075507
0.0786127
0.0812906
0.0835708
0.085465
0.0870184
0.0882565
0.0892304
0.0899704
0.0905256
0.0909234
0.0912051
0.0913914
0.0915131
0.0915834
0.0916184
0.0306073
0.0360101
0.0413714
0.046607
0.0517055
0.056578
0.0612001
0.0655014
0.0694658
0.0730483
0.0762507
0.0790552
0.0814832
0.08354
0.0852627
0.0866714
0.0878116
0.0887088
0.0894094
0.0899372
0.0903326
0.090613
0.0908095
0.0909312
0.0909948
0.0294837
0.0345973
0.0396913
0.0446961
0.0496034
0.0543315
0.0588556
0.0631078
0.0670679
0.0706891
0.0739665
0.0768772
0.0794349
0.0816385
0.0835177
0.0850869
0.0863855
0.0874348
0.0882771
0.088933
0.0894409
0.0898153
0.0900865
0.0902601
0.0903525
0.0285389
0.0333701
0.0382012
0.0429752
0.0476865
0.0522607
0.0566733
0.0608592
0.0647958
0.0684353
0.0717672
0.0747645
0.0774338
0.0797683
0.0817905
0.0835093
0.0849578
0.0861531
0.0871327
0.087914
0.0885328
0.0890006
0.0893463
0.089572
0.0896931
0.0277582
0.0323154
0.0368897
0.0414349
0.0459478
0.0503613
0.0546513
0.0587567
0.0626529
0.066292
0.0696592
0.0727243
0.0754874
0.077937
0.0800884
0.0819453
0.0835346
0.0848688
0.0859807
0.0868842
0.0876114
0.0881716
0.0885909
0.0888688
0.0890184
0.0271267
0.0314197
0.0357448
0.0400653
0.0443797
0.048628
0.0527871
0.0568
0.060641
0.0642633
0.0676481
0.0707633
0.0736031
0.0761521
0.0784186
0.0804019
0.0821221
0.0835878
0.0848259
0.0858476
0.0866805
0.0873315
0.0878233
0.088153
0.0883308
0.0266297
0.0306693
0.0347543
0.0388557
0.0429735
0.0470545
0.0510768
0.0549878
0.0587614
0.0623522
0.0657387
0.0688875
0.0717878
0.0744207
0.0767886
0.078886
0.0807269
0.0823158
0.0836739
0.084809
0.0857441
0.0864837
0.0870466
0.0874276
0.0876331
0.0262525
0.0300508
0.0339059
0.0377953
0.0417204
0.045634
0.0495159
0.0533179
0.0570141
0.0605608
0.063935
0.0671022
0.0700479
0.07275
0.0752054
0.0774048
0.079356
0.0810593
0.0825304
0.0837735
0.0848068
0.0856323
0.0862645
0.0866958
0.0869284
0.0259809
0.0295506
0.0331872
0.0368731
0.0406108
0.044359
0.0480991
0.0517872
0.0553981
0.0588906
0.0622401
0.0654123
0.0683893
0.0711466
0.0736764
0.0759655
0.0780163
0.0798249
0.0814015
0.0827468
0.0838739
0.0847821
0.0854814
0.0859617
0.0862205
0.0258011
0.0291557
0.0325857
0.0360778
0.0396351
0.0432216
0.0468204
0.0503919
0.053912
0.0573419
0.0606566
0.0638218
0.0668173
0.0696169
0.0722084
0.0745754
0.0767151
0.0786197
0.080294
0.0817351
0.082951
0.0839381
0.0847018
0.0852296
0.0855137
0.0256996
0.0288532
0.0320894
0.0353983
0.0387833
0.0422134
0.0456733
0.0491276
0.0525534
0.0559145
0.059186
0.0623342
0.0653371
0.068167
0.0708084
0.0732418
0.0754599
0.077451
0.0792149
0.0807449
0.0820442
0.0831061
0.0839313
0.0845046
0.0848128
0.0256636
0.0286306
0.0316864
0.0348235
0.0380457
0.0413261
0.0446512
0.0479895
0.0513195
0.0546077
0.0578296
0.0609525
0.063953
0.0668027
0.069483
0.0719721
0.0742582
0.0763265
0.0781716
0.0797835
0.0811604
0.0822924
0.0831758
0.0837924
0.0841235
0.0256806
0.028476
0.0313652
0.0343427
0.0374123
0.0405511
0.0437471
0.0469724
0.0502071
0.0534203
0.0565881
0.0596792
0.0626693
0.0655295
0.0682389
0.0707735
0.0731179
0.075254
0.0771721
0.0788584
0.0803068
0.081504
0.082442
0.0830992
0.0834518
0.0257391
0.0283778
0.0311147
0.0339454
0.0368737
0.0398801
0.0429541
0.0460711
0.0492127
0.0523507
0.055462
0.0585166
0.0614899
0.0643529
0.0670826
0.0696535
0.072047
0.0742419
0.0762246
0.077978
0.0794914
0.0807486
0.081737
0.082432
0.0828047
0.0258277
0.0283253
0.0309244
0.0336217
0.0364207
0.039305
0.0422655
0.0452804
0.0483329
0.0513973
0.0544514
0.0574667
0.0604187
0.0632781
0.0660208
0.0686198
0.0710537
0.073299
0.0753381
0.0771509
0.0787228
0.0800343
0.0810688
0.0817985
0.0821897
0.0259359
0.028308
0.0307843
0.0333621
0.0360447
0.0388183
0.0416748
0.0445953
0.0475645
0.0505586
0.0535567
0.0565318
0.0594594
0.0623106
0.0650602
0.0676801
0.0701466
0.0724342
0.0745218
0.0763866
0.0780101
0.0793701
0.0804461
0.0812071
0.081615
0.0260539
0.0283163
0.030685
0.0331577
0.0357376
0.0384127
0.0411763
0.0440115
0.0469044
0.0498334
0.0527786
0.0557142
0.0586162
0.0614561
0.0642078
0.0668426
0.0693349
0.0716572
0.0737857
0.0756949
0.0773632
0.0787658
0.0798783
0.080667
0.0810898
0.0261722
0.0283411
0.030618
0.0330008
0.0354922
0.0380822
0.0407648
0.0435253
0.0463508
0.0492214
0.0521183
0.055017
0.0578939
0.0607208
0.0634714
0.0661162
0.0686282
0.0709782
0.0731403
0.0750866
0.0767928
0.0782315
0.0793755
0.080188
0.0806237
0.026282
0.0283742
0.0305756
0.0328841
0.0353023
0.0378215
0.0404365
0.0431341
0.0459024
0.048723
0.0515781
0.0544442
0.057298
0.060112
0.0628594
0.0655104
0.0680369
0.0704084
0.072597
0.0745732
0.0763102
0.0777786
0.0789486
0.0797809
0.0802272
0.0263753
0.0284082
0.0305511
0.0328019
0.0351629
0.0376268
0.0401887
0.0428366
0.0455596
0.0483403
0.0511617
0.0540009
0.0568354
0.0596378
0.0623814
0.0650359
0.0675724
0.0699596
0.0721681
0.0741669
0.0759275
0.0774189
0.0786091
0.0794569
0.0799117
0.0264449
0.0284367
0.0305387
0.0327493
0.0350706
0.0374959
0.0400207
0.0426338
0.0453249
0.0480774
0.0508745
0.0536945
0.0565147
0.0593084
0.0620484
0.0647047
0.0672475
0.069645
0.0718669
0.0738812
0.0756579
0.0771652
0.0783694
0.0792281
0.0796889
0.026484
0.0284534
0.0305338
0.0327234
0.0350238
0.0374289
0.0399341
0.042529
0.0452032
0.0479407
0.050725
0.0535347
0.0563472
0.0591359
0.0618738
0.0645307
0.0670766
0.0694794
0.0717081
0.0737304
0.0755155
0.0770311
0.0782428
0.0791074
0.0795712
-0.0861644
-0.082128
-0.0780766
-0.0740692
-0.0701703
-0.0663501
-0.062567
-0.0588602
-0.0798036
-0.0761531
-0.0724949
-0.0688445
-0.0652688
-0.0617506
-0.0582737
-0.0548511
-0.0514904
-0.0481939
-0.0449641
-0.0418037
-0.0387157
-0.0357046
-0.0327704
-0.0299124
-0.0271349
-0.0244422
-0.0218366
-0.0193202
-0.016895
-0.0145631
-0.0123263
-0.0101864
-0.00814527
-0.00620462
-0.00436629
-0.00263232
-0.00100521
0.000514508
0.00192393
0.00321945
0.00439749
0.005454
0.00638396
0.00718099
0.00783862
0.00834304
0.00869608
0.00884944
-0.0733266
-0.0700568
-0.066791
-0.0635059
-0.060266
-0.0570634
-0.0538938
-0.0507616
-0.0476733
-0.0446329
-0.0416436
-0.0387088
-0.0358321
-0.0330178
-0.0302671
-0.027582
-0.0249658
-0.0224227
-0.0199558
-0.0175679
-0.0152615
-0.0130393
-0.0109036
-0.00885676
-0.00690099
-0.00503856
-0.00327171
-0.00160285
-3.4574e-05
0.00143156
0.00279257
0.00404479
0.00518436
0.00620698
0.00710746
0.00787936
0.00851601
0.00900396
0.00934466
0.00948985
-0.0667246
-0.0638469
-0.0609726
-0.0580586
-0.0551653
-0.0522896
-0.0494317
-0.0465952
-0.0437852
-0.0410064
-0.0382628
-0.0355585
-0.0328978
-0.0302847
-0.0277221
-0.0252131
-0.0227613
-0.0203708
-0.0180455
-0.0157886
-0.0136035
-0.0114931
-0.00946041
-0.0075083
-0.00563947
-0.00385664
-0.0021625
-0.000559825
0.000948529
0.00236027
0.00367219
0.0048805
0.00598108
0.00696937
0.00784003
0.00858652
0.009202
0.00967338
0.0100016
0.0101389
-0.0599976
-0.0575259
-0.0550461
-0.0525088
-0.0499701
-0.0474297
-0.0448896
-0.042354
-0.0398278
-0.0373159
-0.0348232
-0.0323542
-0.0299137
-0.0275064
-0.025136
-0.0228065
-0.0205222
-0.0182873
-0.0161063
-0.0139831
-0.0119214
-0.009925
-0.00799729
-0.00614164
-0.0043613
-0.00265945
-0.00103923
0.000496183
0.0019436
0.00330014
0.0045623
0.00572609
0.00678717
0.00774073
0.00858123
0.00930207
0.0098962
0.0103509
0.0106667
0.0107962
-0.0531489
-0.0510952
-0.0490151
-0.0468603
-0.0446833
-0.0424852
-0.0402691
-0.0380399
-0.0358027
-0.033563
-0.0313259
-0.0290968
-0.026881
-0.0246837
-0.0225094
-0.020363
-0.0182492
-0.016173
-0.014139
-0.0121519
-0.0102161
-0.00833574
-0.00651488
-0.0047574
-0.00306707
-0.00144756
9.75263e-05
0.00156461
0.00295012
0.00425065
0.00546238
0.00658109
0.00760217
0.0085206
0.00933063
0.0100256
0.0105982
0.0110362
0.0113395
0.0114615
-0.0461837
-0.0445578
-0.0428829
-0.0411168
-0.0393078
-0.0374582
-0.0355719
-0.0336545
-0.0317115
-0.0297488
-0.0277722
-0.0257876
-0.0238007
-0.0218174
-0.0198431
-0.0178833
-0.0159433
-0.0140286
-0.0121444
-0.010296
-0.00848822
-0.00672599
-0.00501384
-0.00335623
-0.00175743
-0.0002216
0.00124718
0.00264488
0.00396754
0.00521128
0.00637192
0.00744498
0.0084256
0.00930851
0.0100878
0.0107566
0.0113077
0.0117289
0.0120196
0.0121344
-0.0391072
-0.0379174
-0.0366529
-0.0352814
-0.0338462
-0.0323509
-0.0307999
-0.0291995
-0.0275557
-0.0258749
-0.0241633
-0.0224275
-0.0206739
-0.0189087
-0.0171381
-0.0153683
-0.0136052
-0.0118549
-0.0101232
-0.00841586
-0.00673849
-0.00509644
-0.00349487
-0.00193879
-0.000432997
0.00101782
0.00240911
0.0037364
0.0049953
0.00618147
0.00729039
0.00831726
0.00925696
0.010104
0.0108522
0.0114948
0.0120241
0.0124286
0.0127068
0.0128147
-0.0319253
-0.0311786
-0.0303291
-0.0293575
-0.0283014
-0.0271655
-0.025955
-0.0246765
-0.0233367
-0.0219424
-0.0205005
-0.0190179
-0.0175015
-0.0159584
-0.0143953
-0.0128188
-0.0112358
-0.00965277
-0.0080762
-0.00651244
-0.00496766
-0.00344782
-0.00195866
-0.000505752
0.000905552
0.00227005
0.00358271
0.00483858
0.00603283
0.00716068
0.00821723
0.00919739
0.0100957
0.0109066
0.0116235
0.0122396
0.0127471
0.0131348
0.0134006
0.0135019
-0.0246443
-0.0243462
-0.0239155
-0.0233485
-0.022676
-0.0219043
-0.021039
-0.0200872
-0.0190562
-0.0179531
-0.0167852
-0.0155601
-0.0142851
-0.0129678
-0.0116156
-0.0102359
-0.00883598
-0.00742306
-0.00600424
-0.00458646
-0.00317647
-0.00178084
-0.000405914
0.000942192
0.00225756
0.00353445
0.00476734
0.00595079
0.00707952
0.00814832
0.00915191
0.0100848
0.0109415
0.0117157
0.0124012
0.0129906
0.0134763
0.0138472
0.0141006
0.0141957
-0.0172707
-0.0174257
-0.0174164
-0.0172578
-0.016973
-0.0165699
-0.0160544
-0.0154341
-0.0147164
-0.0139089
-0.0130192
-0.0120554
-0.0110255
-0.00993768
-0.00879987
-0.00762014
-0.00640638
-0.00516642
-0.00390797
-0.00263858
-0.0013656
-9.62045e-05
0.00116269
0.00240436
0.00362234
0.00481036
0.00596235
0.00707242
0.0081348
0.00914383
0.0100939
0.0109791
0.0117936
0.012531
0.0131847
0.0137474
0.0142112
0.0145654
0.0148065
0.0148959
-0.00981175
-0.0104224
-0.0108365
-0.0110895
-0.0111962
-0.0111659
-0.0110045
-0.0107198
-0.0103192
-0.00981084
-0.00920303
-0.00850427
-0.00772318
-0.00686837
-0.00594847
-0.00497203
-0.00394756
-0.00288348
-0.00178808
-0.000669531
0.000464206
0.00160537
0.00274641
0.00388005
0.00499922
0.00609711
0.00716712
0.00820284
0.00919804
0.0101466
0.0110425
0.0118796
0.0126515
0.0133519
0.0139737
0.0145096
0.0149514
0.0152889
0.0155179
0.0156019
-0.00227488
-0.00334264
-0.00418158
-0.00484881
-0.00535016
-0.00569571
-0.00589121
-0.00594465
-0.00586421
-0.0056585
-0.00533634
-0.00490662
-0.00437832
-0.00376048
-0.00306217
-0.0022925
-0.00146052
-0.000575242
0.000354425
0.00131971
0.00231203
0.00332298
0.00434443
0.00536847
0.00638745
0.00739399
0.00838095
0.00934141
0.0102687
0.0111561
0.0119973
0.0127858
0.0135149
0.0141779
0.0147676
0.0152765
0.0156964
0.0160174
0.0162344
0.0163135
0.00533118
0.00380598
0.00254142
0.00145927
0.000562767
-0.000159248
-0.0007131
-0.00110752
-0.00135112
-0.00145262
-0.00142083
-0.00126473
-0.000993502
-0.000616559
-0.00014345
0.000416189
0.0010527
0.00175647
0.00251796
0.00332775
0.00417663
0.00505556
0.00595577
0.00686873
0.00778621
0.00870025
0.00960314
0.0104875
0.011346
0.0121717
0.0129577
0.0136971
0.0143831
0.0150084
0.0155659
0.0160479
0.0164459
0.0167504
0.0169556
0.0170302
0.0129968
0.0110164
0.00932859
0.00783476
0.00654434
0.0054443
0.00452795
0.00378697
0.00321352
0.0027995
0.00253635
0.00241496
0.00242574
0.00255877
0.00280394
0.003151
0.00358967
0.00410969
0.00470091
0.00535325
0.00605686
0.00680207
0.00757949
0.00837997
0.00919468
0.0100151
0.0108329
0.0116402
0.0124293
0.0131927
0.013923
0.014613
0.0152555
0.015843
0.0163682
0.0168231
0.0171993
0.0174875
0.0176811
0.0177518
0.0207141
0.018286
0.0161796
0.0142758
0.0125875
0.0111025
0.00981645
0.00872337
0.00781648
0.00708775
0.00652814
0.00612787
0.0058767
0.00576412
0.00577943
0.00591185
0.00615053
0.00648464
0.00690342
0.00739623
0.00795258
0.00856223
0.00921515
0.00990162
0.0106122
0.0113378
0.0120696
0.012799
0.013518
0.0142184
0.0148925
0.0155328
0.0161315
0.0166811
0.0171739
0.0176018
0.0179563
0.0182282
0.0184105
0.0184778
0.0284749
0.0256083
0.0230802
0.02076
0.0186667
0.0167934
0.0151388
0.0136972
0.0124606
0.0114197
0.0105645
0.00988471
0.00936973
0.00900887
0.00879118
0.00870555
0.00874076
0.00888554
0.00912864
0.00945888
0.00986524
0.0103369
0.0108632
0.0114338
0.0120386
0.0126681
0.0133127
0.0139634
0.0146114
0.0152483
0.0158658
0.016456
0.0170108
0.0175223
0.0179826
0.0183834
0.0187163
0.0189723
0.0191435
0.0192078
0.0362574
0.0329555
0.029998
0.0272651
0.0247805
0.0225365
0.0205285
0.0187476
0.0171846
0.0158301
0.0146748
0.0137093
0.0129237
0.0123077
0.0118502
0.0115403
0.0113662
0.0113165
0.0113793
0.011543
0.011796
0.0121267
0.0125239
0.0129766
0.0134741
0.014006
0.0145623
0.0151333
0.0157096
0.0162824
0.0168428
0.0173825
0.017893
0.0183662
0.0187939
0.0191678
0.0194792
0.0197192
0.0198798
0.0199414
0.0440293
0.040312
0.0369506
0.0338439
0.0310003
0.0284021
0.0260416
0.0239125
0.0220094
0.0203269
0.0188582
0.0175953
0.0165292
0.0156495
0.0149453
0.0144052
0.0140172
0.0137691
0.0136486
0.0136432
0.0137407
0.0139287
0.0141954
0.014529
0.0149179
0.0153513
0.0158183
0.0163088
0.0168128
0.0173207
0.0178235
0.0183122
0.0187781
0.0192128
0.0196077
0.0199545
0.0202444
0.0204687
0.0206188
0.0206783
0.051806
0.0477463
0.0440248
0.0405549
0.037332
0.0343443
0.0315957
0.0290903
0.0268286
0.0248073
0.02302
0.0214584
0.0201126
0.0189716
0.0180238
0.0172569
0.0166584
0.0162152
0.0159141
0.0157421
0.0156861
0.015733
0.0158701
0.0160851
0.0163659
0.0167008
0.0170784
0.0174881
0.0179193
0.0183621
0.0188068
0.0192442
0.0196653
0.0200612
0.0204233
0.0207429
0.0210114
0.02122
0.02136
0.0214178
0.0596253
0.0552653
0.0511168
0.0471862
0.0435077
0.0400896
0.0369423
0.0340694
0.031468
0.0291305
0.0270476
0.0252086
0.0236026
0.0222175
0.0210411
0.0200604
0.019262
0.0186325
0.018158
0.0178249
0.0176196
0.0175285
0.0175384
0.0176365
0.0178102
0.0180473
0.0183361
0.0186653
0.0190241
0.0194019
0.0197889
0.0201752
0.0205517
0.0209091
0.0212387
0.0215316
0.021779
0.0219725
0.0221029
0.0221595
0.0672925
0.0625525
0.0578871
0.0534818
0.0493987
0.0456268
0.0421548
0.0389739
0.0360755
0.0334507
0.0310905
0.0289851
0.0271242
0.0254966
0.0240902
0.0228923
0.0218897
0.0210689
0.0204159
0.0199168
0.0195577
0.0193247
0.0192042
0.0191829
0.0192477
0.0193859
0.0195852
0.0198339
0.0201205
0.020434
0.020764
0.0211003
0.0214333
0.0217534
0.0220516
0.0223188
0.0225463
0.0227255
0.0228474
0.0229035
0.0744853
0.069603
0.0647592
0.0601604
0.0558592
0.0518328
0.0480674
0.0445641
0.0413283
0.0383622
0.0356646
0.0332309
0.0310542
0.0291257
0.0274348
0.0259698
0.0247181
0.0236663
0.0228003
0.0221058
0.0215683
0.0211732
0.0209061
0.0207526
0.0206987
0.0207308
0.0208357
0.0210004
0.0212128
0.0214611
0.021734
0.0220206
0.0223108
0.0225946
0.0228625
0.0231053
0.023314
0.0234799
0.0235942
0.0236504
0.0774492
0.0729048
0.0682436
0.063683
0.0592932
0.0551068
0.0511559
0.0474665
0.0440537
0.0409232
0.0380749
0.0355046
0.0332051
0.0311671
0.0293793
0.0278291
0.0265029
0.025386
0.0244633
0.0237192
0.023138
0.0227039
0.0224011
0.0222143
0.0221283
0.0221287
0.0222013
0.0223327
0.0225102
0.0227214
0.0229547
0.0231992
0.0234443
0.0236801
0.0238971
0.024086
0.0242381
0.0243448
0.0244006
0.0803803
0.0753741
0.0703866
0.0655772
0.0610023
0.0566904
0.0526605
0.0489237
0.0454838
0.0423395
0.0394863
0.0369169
0.034622
0.0325905
0.0308099
0.0292665
0.0279457
0.0268323
0.0259105
0.0251643
0.0245775
0.024134
0.023818
0.0236138
0.0235065
0.0234815
0.0235249
0.0236232
0.0237639
0.023935
0.0241249
0.0243231
0.0245192
0.0247037
0.0248673
0.0250015
0.025098
0.0251512
)
;

boundaryField
{
    inlet
    {
        type            zeroGradient;
    }
    outlet
    {
        type            fixedValue;
        value           nonuniform 0();
    }
    cylinder
    {
        type            zeroGradient;
    }
    top
    {
        type            symmetryPlane;
    }
    bottom
    {
        type            symmetryPlane;
    }
    defaultFaces
    {
        type            empty;
    }
    procBoundary0to1
    {
        type            processor;
        value           nonuniform List<scalar> 
46
(
-0.125144
-0.113588
-0.102876
-0.0924745
-0.0924745
-0.0924173
-0.0879444
-0.0835282
-0.0791761
-0.0749747
-0.0708542
-0.0667656
-0.0627853
-0.0552339
-0.0552339
-0.0516875
-0.0482228
-0.044842
-0.0415471
-0.0383443
-0.0352319
-0.0322033
-0.0292676
-0.0264285
-0.023687
-0.0210448
-0.0185032
-0.0160637
-0.0137278
-0.0114967
-0.00937174
-0.00735429
-0.00544571
-0.00364771
-0.00196292
-0.000390403
0.00106678
0.00240495
0.00362091
0.00471085
0.00566992
0.0064918
0.00717021
0.00769096
0.00805626
0.00821792
)
;
    }
    procBoundary0to4
    {
        type            processor;
        value           nonuniform List<scalar> 
56
(
0.0793709
0.0717942
0.0717942
0.0630644
0.0542179
0.045346
0.045346
0.032635
0.0232235
0.0232235
0.00901619
-0.000849277
-0.0106325
-0.0106325
-0.0275187
-0.037647
-0.0476353
-0.0574717
-0.0574717
-0.0774414
-0.0874288
-0.0972114
-0.106781
-0.116131
-0.125256
-0.125256
-0.148167
0.093515
0.104309
0.112153
0.118078
0.121745
0.124247
0.125244
0.125469
0.12474
0.12355
0.121809
0.119857
0.117644
0.115407
0.113109
0.110915
0.108785
0.106832
0.105016
0.103433
0.102034
0.100897
0.0999828
0.0993647
0.0990197
0.0816261
0.0816261
0.0850338
0.0850338
)
;
    }
    procBoundary0to5
    {
        type            processor;
        value           nonuniform List<scalar> 3(-0.142812 -0.129583 -0.129583);
    }
}


// ************************************************************************* //
