/*--------------------------------*- C++ -*----------------------------------*\
  =========                 |
  \\      /  F ield         | OpenFOAM: The Open Source CFD Toolbox
   \\    /   O peration     | Website:  https://openfoam.org
    \\  /    A nd           | Version:  7
     \\/     M anipulation  |
\*---------------------------------------------------------------------------*/
FoamFile
{
    version     2.0;
    format      ascii;
    class       volVectorField;
    location    "110";
    object      U;
}
// * * * * * * * * * * * * * * * * * * * * * * * * * * * * * * * * * * * * * //

dimensions      [0 1 -1 0 0 0 0];

internalField   nonuniform List<vector> 
1987
(
(0.207915 -0.0924005 2.15118e-19)
(0.543567 -0.251736 -1.7587e-19)
(0.204597 -0.0849071 -5.1895e-19)
(0.539068 -0.234526 4.67334e-19)
(0.802813 -0.362314 -7.3509e-20)
(0.200646 -0.0774909 1.593e-19)
(0.532971 -0.217248 -4.97633e-19)
(0.798931 -0.340244 -1.64802e-19)
(0.994395 -0.432071 7.4788e-20)
(1.12235 -0.48916 1.55059e-19)
(0.196088 -0.0701983 -1.08594e-19)
(0.525301 -0.200008 4.18964e-20)
(0.792863 -0.317926 1.76203e-19)
(0.992879 -0.408568 -1.57003e-19)
(1.12636 -0.467073 2.07295e-19)
(1.20323 -0.495636 -1.44287e-19)
(0.190956 -0.0630734 1.01969e-20)
(0.516096 -0.182911 7.31329e-20)
(0.784611 -0.295489 4.63551e-19)
(0.988908 -0.384643 2.4769e-19)
(1.12799 -0.444342 -4.68613e-20)
(1.2101 -0.475477 -2.27701e-21)
(1.24922 -0.483566 -1.09613e-19)
(1.26021 -0.475895 7.6104e-20)
(0.185283 -0.0561583 2.58799e-19)
(0.505402 -0.166061 1.55504e-20)
(0.774191 -0.273065 -3.69721e-19)
(0.982448 -0.360423 -3.37078e-19)
(1.12717 -0.421075 -1.6988e-19)
(1.21482 -0.45466 2.15141e-19)
(1.25826 -0.465633 3.33134e-19)
(1.27201 -0.460626 -2.56592e-19)
(1.26857 -0.446009 -1.19983e-19)
(1.25681 -0.426596 2.46017e-19)
(0.17911 -0.0494923 2.30541e-19)
(0.493282 -0.149558 -8.66652e-20)
(0.761633 -0.250783 3.24937e-19)
(0.973477 -0.336038 2.42357e-19)
(1.12383 -0.397381 9.42614e-20)
(1.21727 -0.433268 -4.36282e-19)
(1.26543 -0.447088 -2.60987e-20)
(1.28235 -0.444782 3.84125e-20)
(1.28063 -0.432411 2.78957e-19)
(1.26952 -0.41476 -6.9325e-20)
(1.25475 -0.39495 1.34721e-19)
(1.23932 -0.374708 -2.43777e-19)
(0.172482 -0.0431115 -2.55761e-19)
(0.479806 -0.133499 -2.41728e-19)
(0.746985 -0.228771 -1.50631e-19)
(0.961988 -0.311619 -3.7959e-19)
(1.1179 -0.373373 4.50299e-20)
(1.21737 -0.411389 2.51832e-19)
(1.27065 -0.427999 -1.05934e-19)
(1.29116 -0.428411 9.9898e-20)
(1.29152 -0.418343 1.61864e-19)
(1.28133 -0.40251 6.1439e-21)
(1.26674 -0.384118 -2.15564e-19)
(1.2511 -0.365008 2.76399e-19)
(1.23593 -0.346088 -1.06166e-19)
(1.2218 -0.327737 5.74499e-20)
(1.20881 -0.310087 -2.15711e-20)
(0.165446 -0.0370485 2.23733e-19)
(0.46506 -0.117975 -1.53213e-20)
(0.730309 -0.207157 7.80869e-20)
(0.947987 -0.287297 1.74275e-19)
(1.10935 -0.349168 -1.3074e-19)
(1.21504 -0.389114 4.54807e-20)
(1.27381 -0.408429 -1.26167e-19)
(1.29834 -0.411566 1.75843e-19)
(1.30117 -0.403845 -2.46284e-19)
(1.2922 -0.389884 4.90907e-20)
(1.27799 -0.372951 9.03187e-22)
(1.26227 -0.355002 1.97916e-20)
(1.24679 -0.337042 1.72398e-19)
(1.23226 -0.319517 -1.30971e-19)
(1.21884 -0.302593 1.40971e-19)
(1.20653 -0.286325 7.49079e-20)
(1.19526 -0.270727 3.25853e-20)
(1.18493 -0.255795 1.29199e-19)
(0.158053 -0.0313319 -2.02586e-19)
(0.449139 -0.103071 3.76918e-20)
(0.711686 -0.186062 -6.05373e-20)
(0.931502 -0.263206 -8.3013e-20)
(1.09812 -0.324883 1.51573e-19)
(1.21018 -0.366535 1.41471e-20)
(1.27481 -0.388449 -1.50559e-19)
(1.30381 -0.394295 -2.85329e-19)
(1.30951 -0.388957 6.80467e-20)
(1.30207 -0.376917 6.88857e-20)
(1.28847 -0.361484 -8.49636e-20)
(1.27281 -0.344722 -2.13323e-19)
(1.25713 -0.327737 -9.59149e-20)
(1.24226 -0.311044 3.67108e-20)
(1.22847 -0.294852 -9.4727e-20)
(1.21577 -0.279237 -2.48169e-20)
(1.20411 -0.264226 -1.05403e-19)
(1.1934 -0.249824 -8.38848e-20)
(1.1836 -0.236035 -2.40293e-20)
(1.17463 -0.222855 1.39039e-19)
(1.16642 -0.210285 2.45423e-20)
(0.150358 -0.0259863 2.42649e-19)
(0.432147 -0.0888645 8.89678e-21)
(0.691213 -0.165604 2.36875e-19)
(0.912574 -0.239477 6.48391e-20)
(1.0842 -0.300638 -1.82359e-20)
(1.20272 -0.343747 1.48949e-19)
(1.27356 -0.368125 5.40272e-20)
(1.30747 -0.376647 1.2754e-19)
(1.31646 -0.373719 -1.62535e-19)
(1.3109 -0.363645 -1.16799e-19)
(1.29815 -0.349751 4.73886e-20)
(1.28271 -0.334201 1.08159e-19)
(1.26692 -0.318203 -3.9541e-20)
(1.2518 -0.302347 1.00523e-19)
(1.23769 -0.286889 -5.19803e-20)
(1.22465 -0.271928 -4.82501e-20)
(1.21263 -0.257505 9.37477e-20)
(1.20157 -0.243636 5.1121e-20)
(1.19142 -0.23033 -5.13791e-21)
(1.1821 -0.217589 -7.99945e-20)
(1.17354 -0.205419 3.19518e-20)
(0.142416 -0.0210319 -6.08944e-20)
(0.4142 -0.0754262 1.23465e-19)
(0.669002 -0.145894 -1.74302e-19)
(0.891266 -0.216237 -2.19265e-19)
(1.06757 -0.276553 -2.01476e-19)
(1.1926 -0.320846 -9.13846e-20)
(1.26995 -0.34753 -5.0683e-20)
(1.3092 -0.358674 -4.05222e-20)
(1.32195 -0.358169 1.25108e-19)
(1.31863 -0.350098 9.86407e-20)
(1.307 -0.337781 -7.60246e-20)
(1.29196 -0.323467 -4.51254e-20)
(1.27618 -0.308468 1.48226e-20)
(1.26088 -0.293454 -7.36591e-20)
(1.2465 -0.278728 2.31609e-20)
(1.23315 -0.26442 4.98704e-21)
(1.22082 -0.250585 6.10214e-20)
(1.20944 -0.237248 -9.10247e-20)
(1.19896 -0.224425 1.10731e-20)
(1.18932 -0.212125 1.41426e-20)
(1.18043 -0.200357 -2.20151e-20)
(0.134284 -0.0164842 1.16968e-20)
(0.395423 -0.0628173 6.96863e-20)
(0.645185 -0.127037 -7.21385e-20)
(0.867661 -0.193613 2.01253e-19)
(1.04824 -0.25275 3.06099e-20)
(1.17974 -0.297933 1.00354e-21)
(1.26388 -0.326735 7.26959e-20)
(1.30892 -0.340424 3.47145e-22)
(1.32587 -0.34234 -5.41836e-20)
(1.32519 -0.336307 -4.18133e-20)
(1.31497 -0.325603 -2.1125e-21)
(1.30054 -0.31255 1.00369e-19)
(1.28489 -0.298561 2.14648e-20)
(1.26949 -0.28439 -2.62361e-20)
(1.2549 -0.270394 4.66333e-20)
(1.24129 -0.256735 -4.77862e-20)
(1.22868 -0.243483 -4.17505e-20)
(1.21701 -0.230676 -1.35424e-20)
(1.20623 -0.218336 -1.04267e-20)
(1.19628 -0.206478 1.85176e-20)
(1.18709 -0.195113 2.18552e-20)
(0.126023 -0.012354 -8.45002e-20)
(0.375945 -0.0510898 6.31942e-21)
(0.619907 -0.109127 8.3047e-20)
(0.841862 -0.171727 2.3611e-21)
(1.02624 -0.229351 6.11975e-20)
(1.16411 -0.275109 4.65762e-20)
(1.25525 -0.305815 3.77245e-20)
(1.30649 -0.321949 1.5737e-20)
(1.32812 -0.32627 9.03735e-20)
(1.33051 -0.3223 9.74598e-21)
(1.32203 -0.313242 -5.78272e-22)
(1.30842 -0.301475 -2.13455e-20)
(1.29305 -0.288507 -1.48571e-20)
(1.27763 -0.27518 4.98457e-20)
(1.26289 -0.26191 -3.1978e-20)
(1.24907 -0.248893 5.6991e-20)
(1.23621 -0.23622 -6.81711e-21)
(1.22428 -0.223937 1.81238e-20)
(1.21322 -0.212077 -8.4882e-21)
(1.203 -0.200659 -2.39497e-20)
(1.19352 -0.189697 8.19884e-21)
(0.117689 -0.00864744 -1.71092e-20)
(0.355904 -0.0402853 4.00276e-20)
(0.593329 -0.0922497 -5.74772e-20)
(0.813993 -0.150693 -2.78427e-20)
(1.00162 -0.206476 -6.29993e-20)
(1.14565 -0.252477 1.72825e-20)
(1.24396 -0.284845 -8.12716e-22)
(1.30181 -0.303298 1.95936e-20)
(1.3286 -0.309991 -1.18506e-20)
(1.3345 -0.308101 -1.70378e-20)
(1.32811 -0.300722 6.85326e-20)
(1.31557 -0.290265 3.13541e-20)
(1.30064 -0.278331 -2.70375e-20)
(1.28531 -0.265847 -7.79927e-21)
(1.27048 -0.253298 -4.54737e-20)
(1.25649 -0.240915 1.64035e-20)
(1.24342 -0.228812 1.62871e-20)
(1.23125 -0.217048 4.30065e-20)
(1.21995 -0.205662 4.63181e-20)
(1.20946 -0.19468 3.23129e-20)
(0.109341 -0.0053658 1.33001e-20)
(0.335441 -0.030435 -1.08031e-20)
(0.565626 -0.0764798 5.21131e-21)
(0.784202 -0.130622 -2.04652e-20)
(0.974447 -0.184244 1.51267e-20)
(1.12436 -0.230142 7.98442e-21)
(1.22993 -0.263906 -6.68289e-21)
(1.29474 -0.284525 -1.78017e-20)
(1.32718 -0.293535 -3.87818e-21)
(1.33707 -0.293733 1.551e-21)
(1.33316 -0.288061 -1.27121e-20)
(1.32196 -0.27894 1.48151e-20)
(1.30764 -0.268052 1.24762e-21)
(1.29251 -0.256414 -1.2505e-20)
(1.27767 -0.244578 -6.46433e-22)
(1.26356 -0.23282 -2.77234e-21)
(1.25031 -0.221277 -1.11544e-20)
(1.23793 -0.210022 -8.23585e-21)
(1.2264 -0.199104 -1.43607e-20)
(1.21567 -0.188553 -1.74562e-20)
(0.101035 -0.00250573 2.94429e-20)
(0.314699 -0.0215588 -1.56058e-20)
(0.536982 -0.0618794 -9.25018e-22)
(0.752657 -0.111612 -2.13034e-20)
(0.944812 -0.162771 2.08265e-20)
(1.10023 -0.208212 2.71914e-21)
(1.21307 -0.243078 4.69932e-21)
(1.28517 -0.265682 -2.58347e-20)
(1.32374 -0.276937 3.20639e-21)
(1.33811 -0.279217 -9.95517e-21)
(1.33709 -0.275276 -1.45703e-20)
(1.32755 -0.267518 1.82298e-20)
(1.31405 -0.257691 7.64258e-21)
(1.29924 -0.2469 -1.46904e-20)
(1.28446 -0.23577 5.04631e-21)
(1.27027 -0.224625 -1.20379e-20)
(1.25689 -0.213631 -7.16202e-21)
(1.24433 -0.202876 -1.4208e-20)
(1.23259 -0.192415 -1.79913e-20)
(1.22164 -0.182289 -1.35797e-20)
(0.0928261 -5.94112e-05 -2.37473e-20)
(0.293823 -0.013666 1.24646e-20)
(0.507595 -0.0484976 -9.83503e-21)
(0.719545 -0.093755 -5.73451e-20)
(0.912839 -0.142169 -5.40086e-20)
(1.07328 -0.186793 1.65396e-20)
(1.1933 -0.222446 1.47972e-20)
(1.27295 -0.246828 1.08259e-20)
(1.31811 -0.260228 -1.71222e-20)
(1.33748 -0.264572 6.93788e-21)
(1.33982 -0.262382 4.36038e-20)
(1.33227 -0.256012 4.92272e-20)
(1.31983 -0.247262 -5.98614e-20)
(1.30549 -0.237321 4.3046e-21)
(1.29085 -0.226891 -2.638e-20)
(1.27665 -0.216348 -1.01049e-20)
(1.26315 -0.205889 2.70233e-20)
(1.25045 -0.195621 2.75073e-20)
(1.23853 -0.185608 5.15907e-20)
(1.22737 -0.175897 5.56272e-20)
(0.084766 0.00198519 -2.74074e-20)
(0.272956 -0.00675446 -4.82808e-20)
(0.477666 -0.0363701 1.31581e-19)
(0.685076 -0.0771298 -2.74604e-20)
(0.878677 -0.122546 9.97243e-20)
(1.04356 -0.165995 8.5568e-21)
(1.17058 -0.202099 8.84027e-21)
(1.25797 -0.228021 9.66516e-20)
(1.31016 -0.243444 5.28436e-20)
(1.33506 -0.249815 7.02138e-21)
(1.34123 -0.249389 1.20872e-20)
(1.33607 -0.244432 -6.98212e-20)
(1.32494 -0.236778 3.41177e-20)
(1.31124 -0.227693 1.62462e-20)
(1.29685 -0.217957 1.81073e-20)
(1.28269 -0.208004 2.32684e-20)
(1.26912 -0.198066 -2.80272e-21)
(1.25629 -0.188271 2.65932e-20)
(1.2442 -0.178694 -4.03696e-21)
(1.23286 -0.169389 -3.3994e-20)
(1.22221 -0.160392 -1.55072e-20)
(0.0769028 0.00364402 1.27873e-19)
(0.252236 -0.000811393 -6.2102e-20)
(0.447405 -0.0255182 -6.76602e-20)
(0.649476 -0.0618033 2.56222e-19)
(0.842502 -0.104001 5.96923e-20)
(1.01115 -0.145924 -6.44035e-20)
(1.14487 -0.182128 6.19701e-20)
(1.2401 -0.209325 -1.41219e-20)
(1.29973 -0.22662 -2.58771e-20)
(1.33067 -0.234964 -2.84654e-20)
(1.34121 -0.236305 3.57093e-20)
(1.33885 -0.232785 1.2749e-20)
(1.32934 -0.226247 3.51967e-20)
(1.31647 -0.218027 -1.3812e-21)
(1.30245 -0.208981 4.47536e-20)
(1.28839 -0.199606 -2.6614e-20)
(1.2748 -0.190174 -4.13358e-20)
(1.26186 -0.180836 1.47235e-20)
(1.24964 -0.171682 -6.27155e-20)
(1.23812 -0.162772 2.8154e-20)
(1.22728 -0.154147 1.08699e-20)
(0.0692808 0.0049365 -8.68253e-20)
(0.231798 0.00418634 1.33096e-19)
(0.417021 -0.0159486 -1.67744e-19)
(0.612986 -0.0478283 -1.86619e-19)
(0.80452 -0.0866267 -2.37552e-19)
(0.976144 -0.126688 -1.85409e-19)
(1.11615 -0.162629 1.15591e-19)
(1.21923 -0.19081 -3.11384e-20)
(1.28663 -0.209796 1.12912e-19)
(1.32416 -0.220037 7.16665e-20)
(1.3396 -0.223135 -1.1217e-19)
(1.34051 -0.221074 -5.62817e-20)
(1.33296 -0.215675 -7.41161e-21)
(1.32115 -0.208331 -8.75262e-21)
(1.30763 -0.199974 7.91921e-21)
(1.29376 -0.191165 1.09733e-20)
(1.28019 -0.182225 3.85833e-20)
(1.26718 -0.173328 -1.3533e-19)
(1.25483 -0.164582 4.44364e-20)
(1.24315 -0.156054 6.46485e-20)
(1.23213 -0.147792 -1.27923e-19)
(0.0619398 0.00588514 1.45614e-19)
(0.211769 0.00827155 4.52266e-20)
(0.386722 -0.00765375 1.00822e-19)
(0.57586 -0.0352429 1.77196e-19)
(0.764964 -0.0705049 8.74344e-20)
(0.938697 -0.108391 -2.50353e-20)
(1.08443 -0.1437 1.33619e-19)
(1.19527 -0.172547 1.64881e-19)
(1.27071 -0.193016 -1.6264e-19)
(1.31532 -0.205053 -1.72507e-19)
(1.33623 -0.209886 2.12206e-19)
(1.34092 -0.209299 6.62585e-20)
(1.33573 -0.205063 -4.02363e-20)
(1.32525 -0.19861 6.05491e-20)
(1.31239 -0.190942 5.20086e-21)
(1.2988 -0.182692 -5.80226e-20)
(1.2853 -0.174227 6.99e-20)
(1.27225 -0.165756 8.78791e-20)
(1.2598 -0.157401 -9.67665e-20)
(1.24797 -0.149242 -6.37983e-20)
(1.23678 -0.141331 8.36058e-20)
(0.0549146 0.00651501 -2.69543e-19)
(0.192268 0.0114859 -8.64523e-20)
(0.35671 -0.000611687 6.68657e-20)
(0.538361 -0.0240696 5.03813e-20)
(0.724093 -0.0557064 -1.99807e-20)
(0.898986 -0.0911329 -9.873e-21)
(1.04979 -0.125442 -1.42793e-19)
(1.16812 -0.154619 -2.68096e-19)
(1.2518 -0.17633 5.56927e-20)
(1.30395 -0.190035 2.07927e-19)
(1.33091 -0.196561 -2.97088e-19)
(1.33994 -0.197458 -2.26803e-19)
(1.33754 -0.194408 -1.66717e-19)
(1.32869 -0.188863 1.04271e-19)
(1.3167 -0.181891 -1.74567e-19)
(1.3035 -0.174192 -6.44526e-20)
(1.29014 -0.166189 -1.54694e-19)
(1.27708 -0.158126 -4.51401e-20)
(1.26454 -0.150146 7.83283e-20)
(1.25258 -0.14234 -1.68004e-19)
(1.24122 -0.13477 -1.04901e-20)
(0.0482349 0.00685319 1.73204e-19)
(0.173401 0.013879 1.27622e-19)
(0.327182 0.00521303 -6.52501e-21)
(0.500755 -0.0143142 2.39125e-19)
(0.68219 -0.0422881 -1.15219e-19)
(0.85723 -0.0750078 -3.43415e-20)
(1.0123 -0.10796 -4.07581e-20)
(1.13776 -0.137112 -1.99507e-20)
(1.22973 -0.159795 -6.72286e-20)
(1.28984 -0.175009 1.4101e-20)
(1.32343 -0.183167 1.29385e-19)
(1.33738 -0.185544 1.03476e-20)
(1.33827 -0.183704 1.40043e-19)
(1.33142 -0.179089 -1.91888e-19)
(1.32052 -0.172822 1.87063e-19)
(1.30785 -0.16567 1.01839e-19)
(1.2947 -0.158116 8.18686e-21)
(1.28167 -0.150444 -4.19484e-20)
(1.26906 -0.142822 -1.48698e-19)
(1.25699 -0.135354 2.81164e-19)
(1.24547 -0.128111 5.71213e-20)
(0.041925 0.00692831 -4.00219e-19)
(0.155264 0.015507 -1.85436e-20)
(0.298322 0.00986852 -2.17788e-19)
(0.463308 -0.00596654 -3.74467e-19)
(0.639556 -0.0302923 6.81168e-21)
(0.813687 -0.0601023 1.47639e-19)
(0.972102 -0.0913563 -9.91503e-20)
(1.10416 -0.120119 2.96857e-19)
(1.20438 -0.143476 9.03386e-20)
(1.27278 -0.160009 -1.91043e-20)
(1.31356 -0.169711 -1.63638e-19)
(1.33303 -0.173553 3.21681e-19)
(1.33776 -0.17294 1.74701e-19)
(1.33332 -0.169279 3.37043e-20)
(1.32379 -0.16373 -3.07655e-20)
(1.31183 -0.157126 -9.51195e-20)
(1.29898 -0.150011 4.16528e-20)
(1.28604 -0.142714 -2.69219e-20)
(1.27339 -0.135432 1.86236e-19)
(1.2612 -0.128287 -6.58174e-20)
(1.24953 -0.121357 -2.20798e-20)
(0.0360035 0.00676991 2.61329e-19)
(0.137941 0.0164315 -1.86823e-19)
(0.270301 0.0134143 4.40417e-19)
(0.426282 0.00100011 8.63638e-20)
(0.596507 -0.0197453 8.95915e-21)
(0.76865 -0.046493 -1.58896e-19)
(0.929391 -0.0757356 -4.09037e-20)
(1.06736 -0.10374 -7.57352e-20)
(1.17561 -0.127448 3.23973e-19)
(1.25254 -0.145076 -2.46218e-19)
(1.30103 -0.156207 3.50456e-19)
(1.32667 -0.16148 -1.28267e-19)
(1.33583 -0.162105 -1.15087e-19)
(1.33427 -0.159422 7.67953e-20)
(1.32645 -0.154609 2.65844e-19)
(1.31541 -0.148558 2.0666e-19)
(1.30298 -0.141874 -2.75322e-19)
(1.29018 -0.134938 6.71743e-20)
(1.27751 -0.127979 2.02159e-19)
(1.26522 -0.121139 -9.86982e-20)
(1.25341 -0.114509 2.64149e-20)
(0.0304838 0.00640797 1.0655e-19)
(0.121501 0.0167185 1.19006e-19)
(0.243272 0.0159199 -5.16712e-19)
(0.389927 0.00662792 -2.29957e-19)
(0.553365 -0.0106558 6.88223e-20)
(0.722447 -0.0342441 -3.48527e-20)
(0.884401 -0.0611977 4.41408e-19)
(1.02744 -0.0880814 -4.34887e-19)
(1.14335 -0.111796 -4.37391e-19)
(1.22891 -0.130263 -1.74095e-19)
(1.28558 -0.142675 -1.00084e-20)
(1.31802 -0.149322 -2.0897e-19)
(1.33225 -0.151185 -7.33552e-20)
(1.33411 -0.149502 -4.85475e-20)
(1.3284 -0.145446 -2.07941e-19)
(1.31852 -0.139957 6.49779e-20)
(1.30666 -0.133702 1.81191e-19)
(1.29408 -0.127114 1.91269e-19)
(1.28144 -0.120463 -1.42591e-19)
(1.26907 -0.113911 -2.15067e-21)
(1.25711 -0.107565 -4.42978e-20)
(0.0253739 0.00587237 5.77417e-20)
(0.106 0.0164362 1.86359e-19)
(0.21737 0.0174628 1.17213e-19)
(0.354479 0.0109734 1.68195e-19)
(0.510458 -0.00301526 6.92178e-20)
(0.675433 -0.0234052 2.47904e-19)
(0.837427 -0.0478375 -3.30803e-19)
(0.984549 -0.0732529 2.53336e-19)
(1.10757 -0.0966156 -3.47411e-20)
(1.20172 -0.115633 6.86767e-20)
(1.26695 -0.129143 2.73946e-19)
(1.3068 -0.137081 -2.57846e-19)
(1.32677 -0.140167 2.40803e-19)
(1.33265 -0.139502 2.28848e-21)
(1.3295 -0.136227 1.37062e-20)
(1.3211 -0.131314 2.7773e-20)
(1.31 -0.125487 -7.19968e-20)
(1.29774 -0.119239 -2.59517e-19)
(1.28518 -0.112879 8.52197e-20)
(1.27274 -0.1066 -9.35847e-20)
(1.26064 -0.100523 -1.38627e-19)
(1.24898 -0.0947222 7.76488e-20)
(0.0206769 0.0051924 -9.21352e-20)
(0.0914777 0.0156545 8.63375e-20)
(0.192711 0.0181269 1.37415e-19)
(0.320155 0.0141058 2.37956e-20)
(0.468104 0.0032025 -3.81979e-20)
(0.627984 -0.0140098 1.09505e-19)
(0.788809 -0.0357412 1.57603e-19)
(0.9389 -0.0593667 1.75673e-19)
(1.0683 -0.0820126 3.7519e-19)
(1.17082 -0.101264 2.56e-19)
(1.24485 -0.115652 -2.35843e-19)
(1.29269 -0.124765 -1.74144e-19)
(1.31909 -0.129038 -2.66411e-20)
(1.32965 -0.1294 -4.49666e-19)
(1.32959 -0.126929 -2.39466e-19)
(1.32304 -0.122611 2.87573e-19)
(1.31294 -0.11722 1.22412e-19)
(1.30114 -0.111305 2.42823e-19)
(1.28872 -0.105224 -2.88751e-19)
(1.27625 -0.0992022 3.54528e-19)
(1.26402 -0.0933795 7.84464e-20)
(1.25217 -0.0878475 1.10934e-19)
(0.0163907 0.00439625 -2.92218e-20)
(0.0779627 0.0144427 -3.62639e-19)
(0.169389 0.0179999 -3.37275e-19)
(0.28715 0.0161047 -1.55519e-21)
(0.426612 0.00804019 5.89993e-20)
(0.580491 -0.00607332 -4.49759e-19)
(0.738936 -0.0249834 1.46136e-19)
(0.890771 -0.0465344 -1.02937e-19)
(1.02562 -0.0681028 -3.12013e-20)
(1.1361 -0.0872463 -2.55863e-19)
(1.21904 -0.102257 4.94647e-19)
(1.27536 -0.112393 3.31794e-19)
(1.30888 -0.117792 3.53534e-19)
(1.32483 -0.119176 -2.06949e-19)
(1.32846 -0.11753 2.95254e-19)
(1.32422 -0.113827 -3.38465e-19)
(1.31541 -0.108883 -3.22016e-19)
(1.30425 -0.103301 3.07314e-19)
(1.29206 -0.0974892 1.35018e-20)
(1.27958 -0.0917104 -1.55928e-19)
(1.26723 -0.0861272 2.95609e-19)
(1.2552 -0.0808548 -1.90055e-19)
(0.0125092 0.00351062 -2.54435e-19)
(0.0654681 0.0128689 2.59699e-19)
(0.147474 0.0171711 -1.30694e-19)
(0.255631 0.0170578 -2.23029e-19)
(0.386269 0.0115555 4.05751e-19)
(0.533345 0.000406939 2.53157e-20)
(0.688234 -0.0156243 -4.03301e-20)
(0.840513 -0.0348635 -6.87089e-19)
(0.979724 -0.0550091 1.64847e-19)
(1.09753 -0.0736882 8.52797e-20)
(1.1893 -0.0890286 -4.91821e-21)
(1.25448 -0.0999977 -1.7255e-19)
(1.29579 -0.106428 1.36726e-19)
(1.31786 -0.108812 1.64719e-19)
(1.32586 -0.108003 -4.93659e-20)
(1.32445 -0.104939 1.27363e-19)
(1.3173 -0.100457 1.62045e-19)
(1.307 -0.0952104 -3.10291e-19)
(1.29516 -0.0896619 -7.31574e-20)
(1.28275 -0.0841149 9.55906e-20)
(1.27029 -0.0787576 -3.75299e-19)
(1.25807 -0.0737359 2.01807e-19)
(0.009022 0.00256025 2.86185e-20)
(0.0539946 0.0109977 -2.31606e-21)
(0.127018 0.0157293 -1.23123e-21)
(0.225738 0.0170579 3.84037e-19)
(0.347338 0.0138187 -5.23456e-19)
(0.486934 0.00545206 4.01195e-22)
(0.637156 -0.00770729 -7.92873e-20)
(0.788543 -0.0244534 3.55969e-19)
(0.93087 -0.0428588 2.93614e-20)
(1.05516 -0.0607101 -5.62426e-19)
(1.15547 -0.0760576 2.30586e-19)
(1.22973 -0.0876272 -2.54095e-19)
(1.27942 -0.0949588 -5.81272e-21)
(1.30837 -0.0982934 6.67636e-19)
(1.32147 -0.0983221 -5.93319e-19)
(1.32351 -0.0959155 5.92015e-20)
(1.31847 -0.0919144 -2.28086e-20)
(1.30931 -0.0870134 2.21771e-19)
(1.29799 -0.0817261 -1.77936e-22)
(1.28572 -0.0764025 -1.65483e-19)
(1.27319 -0.071259 6.9316e-20)
(1.26078 -0.0664802 -3.00541e-19)
(0.00591488 0.00156754 3.45011e-19)
(0.0435305 0.00888948 4.80573e-20)
(0.108048 0.0137601 9.80647e-21)
(0.197583 0.0161996 -1.43889e-19)
(0.310052 0.0149102 7.13571e-21)
(0.441625 0.00910024 2.87813e-19)
(0.586174 -0.00125652 1.7938e-19)
(0.735336 -0.0153916 2.66177e-19)
(0.879419 -0.0317796 8.00546e-20)
(1.00913 -0.0484453 4.2806e-19)
(1.11745 -0.063452 -4.43176e-19)
(1.20084 -0.0753494 2.69226e-19)
(1.25939 -0.0834097 -1.00167e-20)
(1.29595 -0.0876135 -2.05142e-19)
(1.31495 -0.0884619 5.10661e-19)
(1.32113 -0.0867262 -1.70335e-20)
(1.31873 -0.083226 1.8108e-19)
(1.31107 -0.0786838 1.98682e-19)
(1.30049 -0.0736607 -1.16217e-19)
(1.28847 -0.0685558 -4.65017e-19)
(1.27592 -0.0636165 4.23375e-19)
(1.26334 -0.0590746 -1.15613e-19)
(1.251 -0.0547337 -2.65534e-19)
(0.00317031 0.000552125 -4.3385e-19)
(0.0340527 0.00659896 -4.24014e-19)
(0.0905725 0.0113441 -4.51302e-21)
(0.171247 0.0145767 2.7917e-20)
(0.27461 0.0149165 -5.41146e-20)
(0.397763 0.0114049 -1.73792e-19)
(0.53576 0.00372357 -5.14624e-19)
(0.681414 -0.00774916 4.88801e-20)
(0.825816 -0.0218944 1.88163e-20)
(0.959697 -0.0370363 -2.28e-19)
(1.07524 -0.0513393 1.25757e-19)
(1.16757 -0.0632539 -6.2183e-19)
(1.23531 -0.0718259 -3.8038e-19)
(1.28017 -0.076779 1.49751e-19)
(1.30587 -0.0784028 1.07541e-19)
(1.31696 -0.0773386 -3.64534e-19)
(1.31783 -0.0743569 4.91906e-20)
(1.31213 -0.0701901 -1.6928e-19)
(1.30257 -0.0654392 2.30465e-19)
(1.29097 -0.060553 5.66049e-19)
(1.27846 -0.0558112 2.27762e-20)
(1.26574 -0.0515022 -1.77944e-20)
(1.25313 -0.0473684 1.92562e-19)
(0.000767675 -0.000469468 3.18784e-19)
(0.0255278 0.00417406 2.30812e-19)
(0.0745811 0.00855463 -1.46121e-19)
(0.146782 0.0122792 5.26129e-19)
(0.241174 0.0139279 4.48078e-19)
(0.355659 0.012432 3.95185e-19)
(0.486375 0.00724841 5.44709e-20)
(0.627334 -0.00157752 -3.53183e-19)
(0.770592 -0.013316 -1.99335e-20)
(0.907233 -0.0266295 1.92146e-19)
(1.02897 -0.0398637 -2.74326e-19)
(1.12978 -0.0514535 4.86301e-19)
(1.20685 -0.0602746 5.40376e-19)
(1.26057 -0.0658128 1.15581e-19)
(1.29377 -0.0681344 1.15101e-19)
(1.31059 -0.0677226 -7.55799e-20)
(1.31545 -0.0652697 -5.63376e-19)
(1.31226 -0.0614957 3.90407e-20)
(1.30409 -0.0570292 -2.46245e-19)
(1.29313 -0.0523667 -1.81208e-19)
(1.28078 -0.0478199 -3.12034e-19)
(1.26795 -0.0437429 1.81047e-19)
(1.25509 -0.039811 -2.85734e-20)
(-0.0013164 -0.00148413 2.49198e-19)
(0.0179133 0.00165509 -3.0535e-19)
(0.0600449 0.0054566 -1.37658e-19)
(0.124214 0.00939096 -5.95795e-20)
(0.209869 0.012035 -4.71819e-20)
(0.315582 0.0122574 -4.50425e-19)
(0.438456 0.00935245 -1.12019e-19)
(0.573663 0.00309425 4.51552e-19)
(0.714346 -0.00614101 -2.95403e-19)
(0.852222 -0.0173695 -1.85083e-19)
(0.978889 -0.0291826 -1.09991e-19)
(1.08744 -0.040084 6.8507e-20)
(1.17371 -0.0488488 -8.62208e-19)
(1.23669 -0.0547596 -1.57511e-19)
(1.27814 -0.0576602 3.39489e-19)
(1.30158 -0.0578546 -2.77945e-19)
(1.31123 -0.055927 2.8224e-19)
(1.3112 -0.05256 4.60917e-19)
(1.30488 -0.0483929 -3.59675e-19)
(1.29484 -0.0439637 4.21562e-19)
(1.28282 -0.0396137 -3.14878e-19)
(1.26995 -0.0357715 -3.84988e-19)
(1.25685 -0.0320396 1.23195e-19)
(1.24413 -0.0301904 -2.60938e-19)
(-0.00310763 -0.00248243 -2.83396e-19)
(0.0111587 -0.000925818 2.50078e-19)
(0.0469195 0.00210529 2.00825e-19)
(0.10354 0.00598838 -3.85151e-19)
(0.180782 0.00932601 -1.26925e-19)
(0.277759 0.0109641 7.00828e-19)
(0.392402 0.0100876 1.37165e-19)
(0.520964 0.0062613 1.36827e-19)
(0.657726 -0.000444242 -3.77125e-19)
(0.795259 -0.009391 5.72414e-20)
(0.925387 -0.0194601 9.87107e-20)
(1.04065 -0.029302 3.64885e-19)
(1.1357 -0.0376686 3.35089e-20)
(1.20815 -0.0436901 -2.39339e-19)
(1.25848 -0.0470037 -4.04711e-19)
(1.28937 -0.0477218 1.95577e-19)
(1.3047 -0.0462948 -1.46337e-19)
(1.30858 -0.0433402 -1.65874e-19)
(1.3047 -0.039487 2.62033e-19)
(1.29597 -0.0353046 -2.33662e-19)
(1.28449 -0.031158 3.18849e-19)
(1.2717 -0.0275577 -2.0038e-19)
(1.25839 -0.0240274 1.07943e-19)
(1.24537 -0.0226042 1.99035e-19)
(-0.00463365 -0.00345873 -2.51724e-19)
(0.00520664 -0.00354489 4.91025e-20)
(0.0351464 -0.00145383 3.37157e-19)
(0.0847337 0.00213929 5.28116e-19)
(0.153962 0.00588596 -6.44171e-19)
(0.242366 0.00863974 -5.93171e-19)
(0.348564 0.00952173 -7.38718e-20)
(0.469776 0.00794386 -2.84484e-19)
(0.601405 0.00372647 1.00854e-19)
(0.737029 -0.00281078 -4.99733e-19)
(0.869005 -0.0108592 -3.26194e-19)
(0.989671 -0.0192799 -4.51304e-19)
(1.09278 -0.0268812 1.59839e-19)
(1.1746 -0.0327049 2.89199e-19)
(1.23427 -0.0362134 -2.20594e-19)
(1.27342 -0.0373286 -8.72335e-20)
(1.29534 -0.0363469 -6.4247e-20)
(1.30399 -0.0337941 -8.01745e-20)
(1.30321 -0.0302642 8.86064e-20)
(1.29628 -0.0263438 -1.47326e-19)
(1.28566 -0.0224116 -2.39228e-19)
(1.27312 -0.0190651 1.77768e-19)
(1.25967 -0.0157418 1.5692e-19)
(1.24638 -0.0147674 1.02145e-19)
(-0.00592349 -0.00441118 2.52908e-20)
(-5.28649e-06 -0.00618651 1.2627e-19)
(0.0246552 -0.0051848 -8.81878e-20)
(0.0677469 -0.00209672 -7.19807e-20)
(0.129423 0.00179551 9.58575e-20)
(0.209529 0.00537578 2.06863e-19)
(0.307235 0.00773672 2.40106e-21)
(0.420589 0.00818751 3.20506e-19)
(0.546052 0.00635438 3.6518e-19)
(0.678285 0.00228077 3.53008e-19)
(0.810418 -0.00353144 2.23586e-19)
(0.93495 -0.0101981 1.39866e-19)
(1.04505 -0.0166574 6.80385e-19)
(1.13583 -0.0219357 -4.82123e-19)
(1.20505 -0.0253685 3.33877e-19)
(1.25314 -0.0267029 3.90429e-19)
(1.28255 -0.0260714 -3.08036e-20)
(1.29689 -0.0238848 1.32497e-19)
(1.30003 -0.0206761 -5.30706e-19)
(1.29551 -0.0170307 2.98421e-19)
(1.28614 -0.0133262 2.14943e-19)
(1.2741 -0.0102502 5.34564e-19)
(1.26063 -0.00714365 -5.28909e-19)
(1.2471 -0.00664691 -1.29321e-19)
(1.23314 -0.00202802 -1.36433e-19)
(-0.00700689 -0.00534152 1.13618e-19)
(-0.0045432 -0.00884252 -1.37253e-19)
(0.0153657 -0.00906015 -2.4397e-19)
(0.0525104 -0.00666746 -6.9743e-19)
(0.107142 -0.00286834 7.3024e-20)
(0.179322 0.0012666 -2.86328e-20)
(0.268641 0.00482789 3.97018e-19)
(0.373833 0.00706296 -1.16919e-19)
(0.492307 0.007457 2.95679e-19)
(0.619807 0.00582768 9.64986e-20)
(0.750411 0.00239419 3.28195e-20)
(0.877097 -0.00223399 -1.1148e-19)
(0.992816 -0.00718515 -2.85795e-19)
(1.09178 -0.0115446 8.75748e-20)
(1.17046 -0.0145822 2.09917e-19)
(1.22796 -0.0159025 1.41936e-19)
(1.2657 -0.0154775 -1.16305e-19)
(1.28669 -0.0135866 -4.10305e-19)
(1.29465 -0.0106768 1.30913e-19)
(1.29327 -0.00731121 -1.43511e-19)
(1.28569 -0.00384751 8.32525e-20)
(1.27448 -0.00106164 -5.86397e-19)
(1.26116 0.00181422 5.03799e-19)
(1.24747 0.00179777 -9.26074e-20)
(1.233 0.0062776 -6.83648e-19)
(-0.00791355 -0.00625466 9.96126e-20)
(-0.00847506 -0.0115111 -1.00256e-19)
(0.0071902 -0.0130592 -1.40505e-19)
(0.0389376 -0.0115263 1.1945e-19)
(0.0870654 -0.00803097 -3.49994e-19)
(0.15177 -0.00358983 -3.85671e-19)
(0.232943 0.000903281 -2.09615e-19)
(0.32986 0.00466569 2.31046e-19)
(0.440747 0.00708804 -1.45201e-19)
(0.562371 0.00781522 8.5448e-19)
(0.689845 0.00682334 7.85788e-20)
(0.816884 0.00445125 -4.54585e-19)
(0.936583 0.00134116 -2.09101e-19)
(1.04259 -0.0017192 -2.14492e-19)
(1.13027 -0.00400316 -6.38793e-19)
(1.19737 -0.00502114 -1.2154e-19)
(1.24412 -0.00460321 -5.98716e-19)
(1.27271 -0.00289233 -1.04291e-19)
(1.28647 -0.000228895 -8.19107e-20)
(1.28909 0.00286792 2.40306e-19)
(1.28396 0.00608351 -4.82385e-19)
(1.27402 0.00855891 -2.65903e-20)
(1.26112 0.0111887 -1.04911e-19)
(1.24741 0.0106158 1.33076e-19)
(1.23242 0.0149364 2.47875e-19)
(-0.00867229 -0.00715804 1.09891e-19)
(-0.0118688 -0.0141952 -3.60183e-19)
(3.59038e-05 -0.0171662 7.10962e-19)
(0.0269275 -0.0166301 7.43827e-19)
(0.0691092 -0.0136183 5.93175e-19)
(0.126844 -0.00909099 -4.02959e-19)
(0.200224 -0.00391628 2.74401e-19)
(0.288932 0.00111541 -9.56875e-20)
(0.391864 0.00533831 -4.15669e-20)
(0.506703 0.0082749 -7.94497e-19)
(0.629609 0.00970701 -8.89478e-20)
(0.755207 0.00972802 8.52596e-19)
(0.877064 0.0087356 -5.55728e-20)
(0.988639 0.00733751 3.54906e-19)
(1.08445 0.00618744 2.84111e-19)
(1.161 0.00580871 2.89501e-19)
(1.21722 0.00647747 5.13594e-19)
(1.25425 0.00817817 8.69735e-19)
(1.2748 0.0106891 6.11075e-19)
(1.28238 0.0135542 4.05324e-19)
(1.28049 0.0165273 2.74087e-19)
(1.27241 0.0186762 6.34502e-20)
(1.2603 0.0210459 -2.97651e-19)
(1.24678 0.0198725 2.31717e-19)
(1.2313 0.0239893 2.01507e-19)
(-0.0093101 -0.00806088 6.78724e-20)
(-0.0147903 -0.0169009 4.28585e-19)
(-0.00619227 -0.0213676 -7.46971e-19)
(0.0163673 -0.0219365 -5.18903e-19)
(0.053163 -0.0195547 -4.84504e-19)
(0.104471 -0.0151285 -4.83625e-20)
(0.170498 -0.00949719 -4.41949e-19)
(0.251216 -0.00344487 4.03989e-19)
(0.346041 0.00233515 2.83018e-19)
(0.453445 0.00728724 2.8158e-19)
(0.570569 0.0110504 1.4445e-19)
(0.693037 0.0135132 -2.66486e-19)
(0.815145 0.0148381 -2.84793e-19)
(0.930529 0.0154218 -1.40874e-19)
(1.0332 0.0157843 3.4071e-19)
(1.11863 0.0164162 -5.9986e-19)
(1.18445 0.0176491 3.04433e-19)
(1.23059 0.0195695 -2.23653e-19)
(1.2589 0.0220736 -4.22538e-19)
(1.27246 0.0247814 -3.62483e-19)
(1.27473 0.0275403 1.44473e-19)
(1.26923 0.029358 -1.66796e-19)
(1.2584 0.0314622 -1.68393e-20)
(1.24539 0.0296459 -3.36586e-19)
(1.22944 0.0335439 4.3446e-19)
(-0.00985131 -0.00897318 -4.34386e-21)
(-0.0173018 -0.0196352 -2.91732e-20)
(-0.0115891 -0.0256499 5.12816e-19)
(0.00713649 -0.0274018 -4.59839e-19)
(0.0390949 -0.025761 6.34287e-19)
(0.0845347 -0.0215873 8.48794e-20)
(0.14371 -0.0156933 -3.20782e-19)
(0.216778 -0.0088505 -1.47064e-20)
(0.303544 -0.00175959 -2.89916e-19)
(0.403116 0.00498169 1.59429e-19)
(0.513511 0.0109182 -6.24176e-19)
(0.631356 0.0157831 -1.69823e-19)
(0.751839 0.0195333 2.93534e-19)
(0.869094 0.0223486 3.7806e-19)
(0.977019 0.0245722 -1.34539e-19)
(1.07032 0.0265984 7.709e-20)
(1.14545 0.0287535 4.55728e-19)
(1.20107 0.0311834 -9.56096e-19)
(1.23796 0.0338865 -1.51363e-19)
(1.25854 0.0365604 -2.05458e-20)
(1.26598 0.0391675 4.1643e-19)
(1.26395 0.0406673 2.70574e-19)
(1.25503 0.0425221 7.33593e-20)
(1.24297 0.0400364 6.51237e-20)
(1.22674 0.0436509 -5.4763e-19)
(-0.0103167 -0.00990469 -1.64737e-20)
(-0.0194595 -0.0224041 -2.40682e-19)
(-0.0162464 -0.0299974 -2.49734e-19)
(-0.000889505 -0.0329788 6.1051e-19)
(0.0267563 -0.0321533 1.23297e-19)
(0.0668826 -0.0283451 -4.20243e-19)
(0.119741 -0.0223472 -3.30886e-20)
(0.185591 -0.0149179 -6.06582e-20)
(0.264508 -0.0067534 3.9059e-19)
(0.356092 0.00153348 3.45203e-19)
(0.459099 0.00943581 4.16591e-19)
(0.571087 0.016582 1.44411e-20)
(0.688212 0.0227678 -1.20816e-19)
(0.805346 0.0279735 3.14408e-19)
(0.91663 0.0323467 5.50352e-20)
(1.01638 0.0361343 4.01077e-19)
(1.10009 0.0395936 -8.34116e-19)
(1.16519 0.0428755 -3.12705e-19)
(1.21125 0.046046 -6.71239e-20)
(1.23978 0.0488687 1.69677e-19)
(1.25346 0.0514299 -1.66884e-21)
(1.25587 0.0526627 -1.53872e-19)
(1.2497 0.0542762 -2.35107e-20)
(1.23914 0.0512552 -3.37505e-19)
(1.22276 0.0544637 -2.87236e-19)
(-0.0107231 -0.0108639 -2.06963e-19)
(-0.021313 -0.0252104 4.38533e-19)
(-0.0202505 -0.0343899 4.6815e-19)