/*--------------------------------*- C++ -*----------------------------------*\
  =========                 |
  \\      /  F ield         | OpenFOAM: The Open Source CFD Toolbox
   \\    /   O peration     | Website:  https://openfoam.org
    \\  /    A nd           | Version:  7
     \\/     M anipulation  |
\*---------------------------------------------------------------------------*/
FoamFile
{
    version     2.0;
    format      ascii;
    class       volScalarField;
    location    "130";
    object      p;
}
// * * * * * * * * * * * * * * * * * * * * * * * * * * * * * * * * * * * * * //

dimensions      [0 2 -2 0 0 0 0];

internalField   nonuniform List<scalar> 
1987
(
0.0170828
0.0204234
0.0229049
0.0245273
0.0254164
0.025741
0.025603
0.0249828
0.0237382
0.021682
0.0185396
0.0138792
0.00706962
-0.00269966
-0.0161737
-0.0335428
-0.053796
0.0192036
0.022464
0.0249247
0.0265585
0.0274527
0.0277545
0.0275783
0.0269195
0.0256649
0.0236407
0.0205881
0.016099
0.00957965
0.000267279
-0.012545
-0.0290543
-0.0483369
-0.0679863
-0.0844226
-0.093941
-0.0942805
-0.0854802
-0.0701665
-0.0518629
-0.0338113
-0.017836
-0.00468086
0.00582163
0.0139147
0.0199587
0.0243348
0.0272923
0.0293092
0.0298792
0.0291215
0.0254574
0.0189056
0.0073641
-0.00845649
-0.029349
-0.0519739
-0.0728885
-0.086514
-0.0882777
-0.0792951
-0.0605601
-0.0409436
-0.019967
-0.00477321
0.00941059
0.0184053
0.0240962
0.0289389
0.0259109
0.0240286
0.0111751
0.0212226
0.0243828
0.0268045
0.0284393
0.0293375
0.0296234
0.0294123
0.0287207
0.0274619
0.0254785
0.0225288
0.0182311
0.0120331
0.00322448
-0.00886111
-0.0244276
-0.0426358
-0.0612393
-0.0768788
-0.0860729
-0.0866744
-0.0786293
-0.0643831
-0.0471967
-0.0301266
-0.014929
-0.00235257
0.00773146
0.0155359
0.0213829
0.0256204
0.0284604
0.0303867
0.0309083
0.030186
0.0266549
0.0203491
0.00917726
-0.00620586
-0.026563
-0.0487196
-0.0692028
-0.0826374
-0.0844609
-0.0757971
-0.0576588
-0.0385681
-0.018233
-0.00343482
0.0102979
0.0190476
0.0244215
0.029148
0.0259784
0.0239535
0.0113135
0.0231339
0.0261758
0.0285412
0.0301666
0.0310687
0.0313445
0.0311057
0.0303869
0.0291286
0.0271916
0.0243529
0.0202601
0.0144061
0.00613839
-0.00516448
-0.0197092
-0.0367398
-0.0541856
-0.0689378
-0.0777507
-0.0786083
-0.0713633
-0.0582699
-0.0422955
-0.0262942
-0.0119469
-5.47256e-06
0.00961715
0.0171016
0.0227292
0.0268141
0.0295271
0.0313543
0.0318191
0.0311278
0.0277422
0.0217121
0.0109737
-0.00388234
-0.0235785
-0.0451288
-0.0650577
-0.078221
-0.0801015
-0.0718159
-0.0543987
-0.035964
-0.0163917
-0.00206962
0.0111475
0.0196154
0.0246523
0.0292312
0.0259398
0.0237493
0.0113979
0.0249319
0.0278401
0.0301325
0.031737
0.0326415
0.0329135
0.0326558
0.0319174
0.0306643
0.028778
0.0260568
0.0221795
0.016688
0.0089915
-0.00148274
-0.0149415
-0.0307155
-0.0469195
-0.0607034
-0.0690705
-0.0700733
-0.063764
-0.0518933
-0.0372075
-0.0223478
-0.00891249
0.00234476
0.0114675
0.0186032
0.0239906
0.0279107
0.0304889
0.0322094
0.0326104
0.0319439
0.0287142
0.0229852
0.0127409
-0.00150089
-0.0204121
-0.0412181
-0.060471
-0.0732798
-0.0752143
-0.0673676
-0.050794
-0.0331451
-0.0144547
-0.000688841
0.011951
0.0201014
0.0247881
0.029184
0.0257949
0.0234114
0.0114231
0.026612
0.0293737
0.0315777
0.033149
0.0340527
0.0343272
0.0340605
0.033311
0.032068
0.0302359
0.0276365
0.0239823
0.0188669
0.0117633
0.00214904
-0.0101818
-0.0246461
-0.0395419
-0.0522856
-0.0601566
-0.0613872
-0.0559394
-0.0453328
-0.0319898
-0.018326
-0.00585153
0.00468116
0.013271
0.0200323
0.025161
0.028905
0.0313428
0.0329504
0.0332819
0.032632
0.029566
0.0241583
0.0144631
0.000917542
-0.0170905
-0.0370158
-0.0554715
-0.0678426
-0.0698298
-0.0624825
-0.0468697
-0.0301323
-0.012437
0.000694784
0.0126999
0.020499
0.0248294
0.0290025
0.0255447
0.0229373
0.0113843
0.0281704
0.0307759
0.0328779
0.0344032
0.0353012
0.0355835
0.0353184
0.0345674
0.0333401
0.0315648
0.0290892
0.0256621
0.0209297
0.0144291
0.00568851
-0.00549519
-0.0186184
-0.0321594
-0.0438095
-0.0511445
-0.0525858
-0.0480038
-0.0386785
-0.0267064
-0.0142718
-0.00279201
0.00698581
0.0150163
0.0213814
0.0262347
0.0297928
0.0320867
0.0335767
0.0338346
0.0331916
0.0302934
0.0252207
0.0161212
0.00334579
-0.0136493
-0.0325615
-0.0501032
-0.0619567
-0.0639965
-0.057207
-0.0426633
-0.0269544
-0.0103573
0.00206721
0.0133858
0.0208019
0.0247774
0.0286848
0.0251917
0.0223276
0.011278
0.0296043
0.0320472
0.0340359
0.0355024
0.0363881
0.0366813
0.0364282
0.0356869
0.0344822
0.0327663
0.0304148
0.0272145
0.0228647
0.016965
0.00909355
-0.00094587
-0.0127212
-0.0248873
-0.035413
-0.0421831
-0.0438103
-0.0400823
-0.0320276
-0.0214259
-0.010231
0.000236477
0.00924021
0.0166923
0.0226438
0.0272077
0.0305709
0.0327193
0.0340888
0.0342708
0.0336241
0.0308944
0.0261626
0.0176944
0.00575247
-0.010132
-0.0279073
-0.044427
-0.055689
-0.0577819
-0.0516044
-0.0382249
-0.0236481
-0.00823819
0.00341341
0.014001
0.0210048
0.024634
0.0282307
0.0247396
0.0215859
0.0111018
0.0309122
0.033189
0.0350557
0.0364521
0.037317
0.0376217
0.03739
0.0366706
0.0354974
0.0338442
0.0316161
0.0286391
0.0246642
0.0193508
0.0123261
0.00340453
-0.00704447
-0.0178441
-0.0272392
-0.0334281
-0.0352128
-0.032305
-0.0254804
-0.016219
-0.00625082
0.0032038
0.0114258
0.0182885
0.0238137
0.0280768
0.0312372
0.0332398
0.0344879
0.0345917
0.0339334
0.0313689
0.026976
0.019162
0.0081033
-0.00658973
-0.0231189
-0.0385221
-0.0491269
-0.0512733
-0.0457545
-0.0336171
-0.0202577
-0.00610538
0.0047178
0.0145385
0.0211039
0.024401
0.0276421
0.0241932
0.0207203
0.0108552
0.0320935
0.0342033
0.0359428
0.0372592
0.038094
0.0384078
0.0382048
0.0375197
0.0363887
0.0348037
0.0326987
0.0299389
0.0263246
0.0215712
0.0153525
0.0074979
-0.0016745
-0.0111444
-0.0194276
-0.0250336
-0.0269444
-0.0247999
-0.019135
-0.0111549
-0.00237726
0.00608039
0.0135248
0.0197953
0.0248866
0.0288406
0.0317913
0.0336487
0.0347762
0.0348083
0.0341257
0.0317192
0.0276552
0.0205038
0.010362
-0.00308
-0.0182749
-0.0324852
-0.0423771
-0.0445773
-0.0397536
-0.0289137
-0.0168343
-0.00398749
0.00596467
0.014993
0.0210967
0.0240799
0.0269236
0.023558
0.0197436
0.0105398
0.033149
0.0350934
0.0367032
0.0379324
0.0387278
0.0390459
0.0388756
0.0382358
0.0371593
0.0356505
0.0336696
0.0311195
0.0278457
0.0236144
0.0181437
0.0112832
0.00331307
-0.00488989
-0.0121056
-0.0171427
-0.0191447
-0.0176849
-0.0130814
-0.00629767
0.00134639
0.00883847
0.0155202
0.021204
0.0258596
0.0294994
0.0322345
0.0339479
0.0349565
0.0349231
0.0342086
0.0319497
0.0281975
0.0217018
0.012492
0.000335196
-0.0134644
-0.0264279
-0.0355641
-0.0378158
-0.0337109
-0.0241977
-0.0134343
-0.00191504
0.00713882
0.0153608
0.020983
0.0236721
0.0260824
0.0228397
0.0186736
0.0101588
0.0340808
0.0358631
0.0373436
0.0384811
0.039229
0.0395446
0.0394075
0.0388212
0.0378112
0.0363888
0.0345352
0.0321865
0.0292286
0.0254721
0.0206774
0.0147215
0.00785996
0.000837076
-0.00538046
-0.00987761
-0.011932
-0.0110584
-0.00739567
-0.00170271
0.00488182
0.0114531
0.0173972
0.0225075
0.026731
0.0300552
0.0325698
0.0341408
0.0350335
0.034941
0.0341901
0.0320665
0.0286037
0.0227418
0.0144593
0.00359238
-0.00878371
-0.0204735
-0.0288295
-0.0311238
-0.0277416
-0.0195567
-0.0101161
8.08056e-05
0.0082261
0.0156404
0.0207643
0.0231789
0.0251287
0.0220441
0.0175334
0.00971714
0.0348927
0.0365173
0.0378708
0.0389151
0.0396095
0.0399155
0.0398085
0.0392793
0.038346
0.0370204
0.0352985
0.0331432
0.0304736
0.0271385
0.0229403
0.0177908
0.0119314
0.0059806
0.000668724
-0.00332868
-0.00539187
-0.00499186
-0.00213489
0.00258588
0.00819717
0.0139034
0.0191433
0.0237001
0.0275005
0.0305116
0.0328023
0.0342321
0.0350124
0.0348679
0.0340797
0.0320781
0.0288787
0.0236156
0.0162347
0.00663068
-0.00433067
-0.0147523
-0.0223201
-0.0246409
-0.0219658
-0.0150796
-0.00693775
0.00196988
0.00921403
0.0158322
0.0204449
0.0226021
0.0240757
0.0211763
0.0163504
0.00922112
0.0355894
0.0370618
0.0382921
0.0392439
0.0398815
0.0401714
0.0400895
0.0396165
0.0387654
0.0375447
0.0359585
0.0339883
0.0315787
0.0286114
0.0249314
0.020491
0.0155207
0.0105167
0.00599879
0.00245519
0.000431552
0.000475163
0.00266531
0.006537
0.0112681
0.0161728
0.0207489
0.0247781
0.0281693
0.0308734
0.0329391
0.0342282
0.0348992
0.0347103
0.0338876
0.0319947
0.0290322
0.0243222
0.017797
0.00939632
-0.000199089
-0.00939084
-0.0161771
-0.0185048
-0.0165016
-0.0108503
-0.00395231
0.00372493
0.0100925
0.0159384
0.0200311
0.0219448
0.02294
0.0202419
0.0151547
0.00867762
0.036177
0.0375034
0.0386152
0.0394769
0.0400567
0.0403252
0.0402633
0.0398412
0.0390729
0.0379607
0.036511
0.0347167
0.0325406
0.0298938
0.0266644
0.0228444
0.018648
0.0144538
0.0106085
0.0074718
0.00553665
0.00533696
0.00699117
0.0101324
0.0140779
0.0182497
0.0222078
0.0257397
0.0287399
0.0311468
0.0329886
0.0341372
0.0347018
0.0344749
0.0336236
0.031828
0.0290782
0.0248688
0.0191348
0.0118468
0.0035296
-0.00450029
-0.0105281
-0.01284
-0.0114527
-0.00694153
-0.00120435
0.00532367
0.0108542
0.0159629
0.0195321
0.021212
0.0217407
0.0192474
0.0139774
0.00809376
0.0366626
0.0378499
0.0388483
0.0396236
0.040146
0.0403892
0.040332
0.0399637
0.0392748
0.0382689
0.0369524
0.0353235
0.0333588
0.030996
0.0281642
0.0248869
0.0213502
0.0178254
0.0145362
0.011766
0.00996197
0.0096149
0.0108462
0.0133652
0.0166176
0.0201277
0.0235172
0.0265853
0.0292159
0.0313383
0.0329605
0.0339692
0.0344296
0.0341689
0.0332977
0.0315908
0.0290338
0.0252693
0.0202465
0.0139542
0.0067955
-0.000165716
-0.00547418
-0.00774372
-0.00689864
-0.00340841
0.00127378
0.0067506
0.0114955
0.0159108
0.0189589
0.0204116
0.0204995
0.018202
0.0128462
0.00747686
0.0370536
0.0381096
0.0390002
0.039693
0.0401601
0.0403771
0.0403248
0.0399977
0.0393808
0.0384746
0.0372838
0.0358094
0.0340387
0.0319337
0.0294584
0.0266534
0.0236664
0.020682
0.0178504
0.0154144
0.013773
0.0133492
0.0142464
0.0162376
0.0188847
0.0218049
0.0246775
0.0273176
0.0296023
0.0314555
0.032865
0.0337352
0.0340936
0.0338013
0.0329194
0.0312958
0.0289162
0.0255411
0.0211392
0.0157087
0.00956765
0.00356385
-0.00107812
-0.00327839
-0.00289103
-0.000282521
0.00346456
0.00799818
0.0120165
0.0157881
0.0183249
0.0195543
0.0192398
0.017118
0.0117832
0.00683515
0.0373582
0.0382912
0.03908
0.0396945
0.0401085
0.0402999
0.0402517
0.0399569
0.0394029
0.0385873
0.0375129
0.0361823
0.0345917
0.0327238
0.0305678
0.0281678
0.0256315
0.0230822
0.0206344
0.0185055
0.0170426
0.0165859
0.0172141
0.0187591
0.0208833
0.0232843
0.0256925
0.0279414
0.0299052
0.0315058
0.0327124
0.0334467
0.033706
0.0333827
0.0324987
0.030955
0.0287404
0.0257013
0.0218269
0.0171207
0.0118501
0.00668432
0.0026445
0.000536105
0.000552938
0.00242917
0.00536596
0.00906715
0.0124212
0.0156012
0.0176452
0.0186533
0.0179855
0.016011
0.0108028
0.00617896
0.0375844
0.0384032
0.039097
0.0396376
0.0400008
0.0401671
0.0401207
0.0398529
0.0393536
0.0386193
0.0376518
0.0364548
0.0350318
0.0333803
0.0315056
0.0294468
0.0272788
0.0250872
0.0229704
0.0211224
0.0198338
0.0193651
0.0197742
0.0209447
0.022623
0.0245728
0.0265687
0.0284633
0.0301318
0.0314973
0.0325128
0.0331151
0.0332793
0.0329248
0.0320454
0.0305785
0.0285172
0.0257655
0.0223307
0.0182218
0.0136825
0.00923575
0.00572563
0.00372586
0.00346474
0.00474002
0.00698955
0.00996578
0.0127175
0.0153575
0.0169358
0.0177238
0.0167593
0.0148986
0.00990972
0.00552184
0.0377406
0.0384546
0.0390601
0.0395315
0.0398469
0.0399884
0.0399413
0.0396963
0.039245
0.0385838
0.037714
0.0366406
0.035372
0.0339151
0.0322832
0.0305089
0.0286445
0.026754
0.0249264
0.0233304
0.0221965
0.0217222
0.0219541
0.0228155
0.0241186
0.0256812
0.0273149
0.0288914
0.0302901
0.031438
0.0322756
0.0327517
0.032826
0.0324399
0.0315693
0.0301755
0.0282552
0.0257485
0.0226789
0.0190613
0.0151316
0.0112912
0.00823466
0.00634997
0.00588295
0.00668154
0.00835756
0.010708
0.0129161
0.0150653
0.0162129
0.0167828
0.0155818
0.0137992
0.0090989
0.00488076
0.0378353
0.0384536
0.038978
0.0393854
0.0396559
0.0397728
0.0397231
0.0394976
0.0390887
0.0384932
0.0377124
0.0367525
0.0356242
0.0343393
0.0329146
0.0313768
0.0297648
0.0281304
0.0265534
0.0251749
0.0241725
0.0236966
0.0237875
0.0243976
0.0253894
0.0266231
0.0279416
0.0292348
0.0303888
0.0313363
0.0320096
0.0323667
0.0323576
0.0319396
0.03108
0.0297546
0.0279628
0.0256671
0.022905
0.0196972
0.0162754
0.0129393
0.0102602
0.00848685
0.00787091
0.00829837
0.00949851
0.0113108
0.0130298
0.0147337
0.0154922
0.0158468
0.0144695
0.0127304
0.00835936
0.00427464
0.0378768
0.0384086
0.038859
0.0392076
0.0394362
0.0395295
0.0394759
0.0392668
0.0388954
0.0383587
0.0376586
0.0368016
0.035799
0.0346645
0.0334154
0.0320747
0.0306734
0.0292558
0.0278916
0.0266958
0.0258044
0.0253318
0.0253124
0.0257212
0.0264574
0.027414
0.0284604
0.029503
0.0304366
0.0312005
0.0317234
0.0319693
0.0318837
0.031435
0.0305874
0.0293251
0.0276505
0.0255398
0.0230429
0.0201835
0.0171854
0.0142654
0.0118928
0.0102226
0.00949901
0.00963752
0.0104421
0.011792
0.0130725
0.0143731
0.0147881
0.0149308
0.0134333
0.0117088
0.00767918
0.00372137
0.0378729
0.0383273
0.038711
0.0390057
0.0391957
0.0392672
0.039209
0.0390135
0.0386749
0.0381908
0.0375631
0.0367981
0.0359067
0.0349026
0.0338023
0.0326261
0.0314008
0.0301652
0.0289794
0.0279355
0.0271369
0.0266711
0.0265685
0.0268181
0.027346
0.0280706
0.0288834
0.0297057
0.0304422
0.031039
0.0314247
0.0315676
0.0314124
0.0309359
0.0301006
0.0288964
0.0273293
0.0253843
0.0231206
0.0205614
0.0179172
0.0153387
0.0132123
0.0116359
0.0108329
0.0107438
0.0112166
0.0121687
0.013058
0.0139942
0.014112
0.0140483
0.0124794
0.0107483
0.00704964
0.00323443
0.0378314
0.0382172
0.0385412
0.0387875
0.0389422
0.0389931
0.0389302
0.0387462
0.0384364
0.0379989
0.0374355
0.0367518
0.0359579
0.0350662
0.0340921
0.0330539
0.0319761
0.0308926
0.0298551
0.0289364
0.0282151
0.0277596
0.0275953
0.0277198
0.0280785
0.0286094
0.0292225
0.0298525
0.0304139
0.0308595
0.0311207
0.0311693
0.0309517
0.0304495
0.0296269
0.0284773
0.0270096
0.0252146
0.0231575
0.0208582
0.0185087
0.016211
0.0142828
0.01279
0.0119269
0.0116564
0.0118474
0.0124561
0.0129995
0.013608
0.0134727
0.0132111
0.0116088
0.00985957
0.0064672
0.00282029
0.0377598
0.0380852
0.0383565
0.0385597
0.0386826
0.0387145
0.0386466
0.0384725
0.038188
0.0377915
0.0372846
0.0366721
0.035963
0.0351682
0.0343017
0.0333802
0.0324262
0.0314696
0.0305543
0.0297388
0.0290831
0.02864
0.0284295
0.0284556
0.0286769
0.0290464
0.0294895
0.0299523
0.0303592
0.0306692
0.0308184
0.0307811
0.0305076
0.0299828
0.0291732
0.0280748
0.0266992
0.0250402
0.0231656
0.0210905
0.0189857
0.0169201
0.0151534
0.013734
0.0128232
0.012405
0.0123553
0.0126677
0.012909
0.0132244
0.0128761
0.0124291
0.0108192
0.00904994
0.00593226
0.0024777
0.0376648
0.0379378
0.038163
0.0383282
0.0384228
0.0384376
0.0383651
0.0381994
0.0379369
0.0375762
0.0371187
0.0365683
0.0359327
0.0352213
0.0344469
0.0336247
0.0327749
0.0319243
0.0311099
0.0303794
0.0297786
0.0293488
0.0291033
0.0290515
0.0291612
0.0293964
0.0296954
0.0300137
0.0302853
0.0304746
0.0305235
0.0304088
0.0300854
0.029539
0.0287444
0.0276943
0.0264035
0.0248672
0.0231522
0.0212695
0.0193677
0.0174943
0.0158596
0.0145036
0.0135535
0.0130145
0.0127585
0.0128162
0.012797
0.0128527
0.012326
0.0117102
0.0101063
0.00832326
0.00544676
0.00219907
0.0372928
0.0375529
0.037781
0.0379661
0.0380982
0.0381683
0.0381682
0.0380913
0.0379328
0.0376895
0.03736
0.0369453
0.0364487
0.0358766
0.0352372
0.0345417
0.033804
0.0330423
0.0322806
0.0315499
0.0308886
0.0303331
0.0299168
0.029644
0.0295304
0.0295494
0.0296731
0.0298502
0.0300444
0.0301983
0.0302811
0.0302413
0.0300576
0.0296903
0.0291248
0.0283451
0.0273398
0.0261259
0.024699
0.0231223
0.0214038
0.01967
0.0179558
0.0164289
0.0151258
0.0141427
0.013506
0.0130727
0.0129132
0.0126725
0.0125004
0.0118246
0.0110597
0.00946569
0.00768042
0.00501218
0.00197347
0.0372104
0.0374302
0.0376201
0.0377712
0.0378749
0.0379237
0.0379107
0.0378303
0.0376779
0.0374511
0.0371486
0.036771
0.0363209
0.0358035
0.0352259
0.0345981
0.0339324
0.0332453
0.0325581
0.0318963
0.031291
0.030772
0.0303686
0.0300741
0.0299119
0.0298573
0.0298885
0.0299632
0.0300514
0.0301038
0.0300937
0.029976
0.0297316
0.0293261
0.0287462
0.0279789
0.0270141
0.0258686
0.0245383
0.0230801
0.0215008
0.0199058
0.0183229
0.0168841
0.0156241
0.0146101
0.0138517
0.0133108
0.0129696
0.0125427
0.0121734
0.0113731
0.0104813
0.0088929
0.00712039
0.0046287
0.00178972
0.037116
0.0373023
0.0374604
0.0375828
0.0376626
0.0376933
0.0376693
0.0375858
0.037439
0.0372265
0.0369471
0.0366014
0.0361911
0.0357207
0.035196
0.034626
0.0340215
0.0333974
0.032772
0.0321669
0.0316073
0.0311152
0.0307041
0.0304114
0.0302128
0.0300987
0.0300537
0.0300427
0.0300411
0.0300067
0.0299164
0.0297313
0.029434
0.0289955
0.0284036
0.0276478
0.0267192
0.0256335
0.024387
0.0230296
0.0215673
0.0200867
0.0186115
0.0172445
0.0160197
0.0149836
0.0141636
0.0134941
0.0129961
0.0124138
0.0118762
0.0109722
0.00997663
0.00842574
0.00664192
0.00429536
0.00163856
0.0370155
0.0371746
0.0373065
0.0374052
0.0374651
0.0374807
0.0374476
0.0373616
0.0372197
0.0370195
0.03676
0.0364413
0.036065
0.0356345
0.0351548
0.0346337
0.034081
0.0335095
0.0329352
0.0323766
0.0318549
0.0313872
0.0309872
0.0306789
0.0304487
0.0302857
0.0301779
0.0300959
0.0300189
0.0299112
0.0297527
0.0295099
0.0291673
0.0287007
0.0280987
0.0273533
0.0264563
0.0254221
0.0242474
0.0229746
0.0216097
0.0202227
0.0188354
0.0175268
0.0163303
0.0152774
0.0144016
0.0136308
0.0130013
0.0122907
0.0116117
0.0106212
0.00953848
0.007991
0.00623374
0.00400963
0.00151345
0.0369147
0.0370519
0.0371627
0.0372422
0.0372858
0.0372893
0.0372488
0.0371611
0.0370233
0.0368336
0.0365908
0.036295
0.0359471
0.0355501
0.0351082
0.034628
0.0341182
0.0335903
0.0330582
0.0325377
0.0320465
0.0315994
0.0312097
0.030888
0.0306312
0.0304285
0.0302694
0.0301291
0.0299899
0.0298212
0.0296054
0.0293141
0.0289334
0.0284431
0.0278329
0.0270965
0.0262266
0.0252357
0.0241214
0.0229187
0.0216338
0.0203229
0.0190063
0.0177449
0.0165706
0.0155046
0.0145806
0.0137298
0.0129923
0.0121772
0.0113816
0.0103197
0.00916641
0.00762223
0.00589157
0.0037691
0.00141017
0.0368189
0.0369391
0.0370332
0.0370975
0.0371283
0.0371221
0.0370759
0.0369868
0.0368526
0.0366716
0.0364428
0.0361658
0.0358414
0.035472
0.035061
0.0346144
0.0341398
0.0336472
0.0331492
0.0326593
0.0321925
0.0317616
0.0313783
0.0310476
0.0307698
0.0305353
0.0303352
0.0301479
0.0299581
0.0297397
0.029477
0.0291459
0.0287339
0.0282241
0.0276072
0.0268783
0.026031
0.0250758
0.024011
0.0228652
0.0216448
0.0203948
0.0191342
0.0179102
0.0167529
0.0156763
0.0147129
0.0137994
0.012975
0.0120766
0.0111869
0.0100669
0.00885858
0.00731753
0.0056112
0.00357148
0.00132613
0.0367333
0.0368405
0.036922
0.0369746
0.0369955
0.036982
0.0369314
0.0368415
0.0367103
0.0365364
0.0363187
0.0360567
0.0357512
0.0354037
0.0350174
0.0345975
0.0341507
0.033686
0.0332147
0.0327486
0.0323007
0.0318821
0.0315029
0.0311659
0.030872
0.030613
0.0303808
0.0301568
0.0299273
0.0296697
0.0293698
0.0290071
0.0285701
0.0280447
0.0274228
0.0266999
0.0258707
0.0249439
0.0239184
0.0228173
0.0216474
0.0204447
0.0192271
0.0180321
0.0168875
0.0158026
0.014808
0.0138458
0.0129544
0.0119914
0.0110285
0.00986271
0.00861262
0.00707435
0.00538896
0.00341471
0.00125967
0.0366626
0.0367605
0.0368328
0.036877
0.0368908
0.0368719
0.0368182
0.0367278
0.0365991
0.0364306
0.0362212
0.0359707
0.0356793
0.0353484
0.0349808
0.0345809
0.034155
0.0337113
0.0332598
0.0328112
0.0323773
0.0319677
0.031591
0.0312495
0.0309439
0.0306668
0.030411
0.0301597
0.0299006
0.0296136
0.0292859
0.0288993
0.0284437
0.0279065
0.0272807
0.0265624
0.025747
0.0248416
0.0238454
0.0227779
0.0216453
0.0204776
0.0192916
0.0181179
0.0169825
0.0158914
0.0148733
0.0138757
0.0129346
0.0119241
0.010907
0.00970738
0.00842674
0.00689091
0.00522214
0.00329728
0.00120972
0.0366114
0.0367033
0.0367696
0.0368082
0.0368173
0.0367949
0.0367392
0.0366486
0.0365215
0.0363568
0.0361532
0.0359105
0.0356287
0.0353091
0.0349541
0.0345678
0.034156
0.0337263
0.0332881
0.0328512
0.0324267
0.0320231
0.031648
0.0313033
0.03099
0.0307009
0.0304292
0.0301596
0.0298807
0.0295739
0.0292274
0.0288247
0.0283564
0.0278114
0.027183
0.0264678
0.0256617
0.0247707
0.0237944
0.0227494
0.0216418
0.0204975
0.0193323
0.0181729
0.0170434
0.0159481
0.0149145
0.0138936
0.0129191
0.0118768
0.0108235
0.00960138
0.00830052
0.00676684
0.00510941
0.00321877
0.0011756
0.0365838
0.0366727
0.036736
0.0367719
0.0367786
0.0367544
0.0366978
0.0366071
0.0364809
0.0363181
0.0361176
0.0358789
0.035602
0.0352882
0.0349398
0.0345605
0.034156
0.0337334
0.033302
0.0328712
0.0324513
0.0320506
0.0316764
0.0313303
0.0310129
0.0307176
0.0304378
0.0301589
0.0298697
0.0295528
0.0291966
0.0287858
0.0283109
0.0277618
0.0271321
0.0264186
0.0256173
0.0247338
0.0237677
0.0227342
0.0216394
0.020507
0.0193525
0.0182002
0.0170737
0.0159763
0.0149346
0.0139019
0.0129101
0.0118521
0.0107796
0.00954682
0.0082346
0.0067044
0.00505045
0.00318007
0.00115731
)
;

boundaryField
{
    inlet
    {
        type            zeroGradient;
    }
    outlet
    {
        type            fixedValue;
        value           uniform 0;
    }
    cylinder
    {
        type            zeroGradient;
    }
    top
    {
        type            symmetryPlane;
    }
    bottom
    {
        type            symmetryPlane;
    }
    defaultFaces
    {
        type            empty;
    }
    procBoundary3to2
    {
        type            processor;
        value           nonuniform List<scalar> 
36
(
0.0152067
0.0173891
0.0194787
0.0214666
0.0233451
0.0251073
0.0267476
0.028262
0.0296479
0.0309043
0.0320322
0.0330338
0.0339127
0.034674
0.0353234
0.0358676
0.0363141
0.0366709
0.0369462
0.0371484
0.0372861
0.0373678
0.0374015
0.0373953
0.0373566
0.0373566
0.037012
0.0369703
0.0369092
0.0368356
0.0367561
0.0366768
0.0366035
0.0365416
0.0364961
0.0364714
)
;
    }
    procBoundary3to6
    {
        type            processor;
        value           uniform 0.0129406;
    }
    procBoundary3to7
    {
        type            processor;
        value           nonuniform List<scalar> 
57
(
0.0148674
0.0182663
0.0207507
0.0223514
0.0232298
0.0235788
0.0234891
0.0229196
0.0216961
0.0196248
0.0164168
0.0116189
0.00456599
-0.00559809
-0.0196595
-0.0378088
-0.0589557
-0.0743638
-0.0743638
-0.0914773
-0.101264
-0.101349
-0.0918495
-0.0755673
-0.0562551
-0.0373208
-0.0206484
-0.0069762
0.00389846
0.0122466
0.0184636
0.0229627
0.0260255
0.0281244
0.028734
0.0279385
0.0241572
0.017394
0.00555062
-0.0106175
-0.0319234
-0.0548861
-0.0761102
-0.0898467
-0.0915487
-0.0823056
-0.0630982
-0.0430831
-0.0215855
-0.00607519
0.00849354
0.0176958
0.023678
0.0286096
0.025739
0.0239807
0.010988
)
;
    }
}


// ************************************************************************* //
