/*--------------------------------*- C++ -*----------------------------------*\
  =========                 |
  \\      /  F ield         | OpenFOAM: The Open Source CFD Toolbox
   \\    /   O peration     | Website:  https://openfoam.org
    \\  /    A nd           | Version:  7
     \\/     M anipulation  |
\*---------------------------------------------------------------------------*/
FoamFile
{
    version     2.0;
    format      ascii;
    class       volScalarField;
    location    "15";
    object      p;
}
// * * * * * * * * * * * * * * * * * * * * * * * * * * * * * * * * * * * * * //

dimensions      [1 -1 -2 0 0 0 0];

internalField   nonuniform List<scalar> 
4032
(
1
1
1
1
1
1
1
1
1
1
1
1.06846
6.7751
10.576
10.7308
10.9335
11.1227
11.303
11.4699
11.6201
11.7521
11.8579
11.9374
11.9937
1
1
1
1
1
1
1
1
1
1
1
1.01583
6.62019
10.5305
10.6995
10.9007
11.0909
11.2702
11.4354
11.5822
11.7085
11.8061
11.8753
11.9241
1
1
1
1
1
1
1
1
1
1
1
1.00046
6.27234
10.4651
10.649
10.8439
11.0313
11.2048
11.3641
11.5059
11.6297
11.7279
11.7978
11.8511
1
1
1
1
1
1
1
1
1
1
1
1
5.74433
10.3542
10.5788
10.765
10.9482
11.1138
11.2659
11.4011
11.5181
11.6055
11.6596
11.6951
1
1
1
1
1
1
1
1
1
1
1
1
5.05964
10.1698
10.4894
10.6655
10.8413
10.9931
11.1275
11.2406
11.3341
11.4056
11.4517
11.5066
1
1
1
1
1
1
1
1
1
1
1
1
4.24178
9.87011
10.3797
10.5443
10.7059
10.8376
10.9506
11.0456
11.1241
11.1826
11.1986
11.1567
1
1
1
1
1
1
1
1
1
1
1
1
3.33487
9.40884
10.3005
10.4457
10.5845
10.6853
10.7568
10.8052
10.8186
10.7731
10.6993
10.6476
1
1
1
1
1
1
1
1
1
1
1
1
2.35052
8.68325
10.2349
10.3412
10.4516
10.5184
10.5453
10.5383
10.477
10.3801
10.2357
10.1915
1
1
1
1
1
1
1
1
1
1
1
1
1.40628
7.73089
10.2323
10.1975
10.2793
10.3093
10.2904
10.2237
10.0686
9.78484
9.02249
7.0167
1
1
1
1
1
1
1
1
1
1
1
1
1.02193
6.41199
9.92265
9.8838
9.98282
10.0207
9.98441
9.8647
9.6229
9.14152
8.3479
6.30722
1
1
1
1
1
1
1
1
1
1
1
1
0.999969
4.62831
9.41019
9.7672
9.83964
9.80448
9.71314
9.52596
9.21689
8.65218
7.85001
5.97987
1
1
1
1
1
1
1
1
1
1
1
1
0.99999
2.77586
8.59727
9.62457
9.61949
9.57887
9.45863
9.2169
8.84407
8.27575
7.42731
5.8713
1
1
1
1
1
1
1
1
1
1
1
1
0.999998
1.31033
7.44155
9.72568
9.47598
9.34402
9.1877
8.91498
8.51836
7.97152
7.08742
5.9369
1
1
1
1
1
1
1
1
1
1
1
1
1
1.01046
5.61684
9.03269
9.10288
9.07264
8.91475
8.64426
8.25053
7.68637
6.87874
5.98251
1
1
1
1
1
1
1
1
1
1
1
1
1
0.99989
3.10881
8.23995
8.99965
8.93049
8.73929
8.43412
8.04954
7.48374
6.78163
6.04027
1
1
1
1
1
1
1
1
1
1
1
1
1
0.999972
1.33189
6.93916
9.02862
8.78684
8.54433
8.21119
7.83136
7.30465
6.70633
6.07727
1
1
1
1
1
1
1
1
1
1
1
1
1
0.999995
1.00989
4.67059
8.43676
8.52292
8.32131
8.02021
7.64451
7.18249
6.67661
6.14077
1
1
1
1
1
1
1
1
1
1
1
1
1
1
0.999945
1.97956
7.50474
8.51244
8.19205
7.874
7.50915
7.1045
6.69804
6.35477
1
1
1
1
1
1
1
1
1
1
1
1
1
1
0.999986
1.07815
5.46337
8.22743
7.93563
7.69211
7.38987
7.1025
6.91117
6.8889
1
1
1
1
1
1
1
1
1
1
1
1
1
1
0.999998
1.00035
2.43876
7.31825
7.86276
7.6167
7.44837
7.4288
7.51731
7.62044
1
1
1
1
1
1
1
1
1
1
1
1
1
1
1
0.999999
1.15025
5.29456
7.73951
7.67067
7.77381
8.05297
8.23349
8.13276
1
1
1
1
1
1
1
1
1
1
1
1
1
1
1
1
1.00184
2.2658
6.56712
7.94551
8.51405
8.86789
8.76184
8.47915
1
1
1
1
1
1
1
1
1
1
1
1
1
1
1
1
1
1.12031
4.62311
8.56688
9.51382
9.46197
9.05873
8.722
1
1
1
1
1
1
1
1
1
1
1
1
1
1
1
1
1
1.00142
2.14542
8.88619
10.2932
9.75251
9.31373
9.00596
1
1
1
1
1
1
1
1
1
1
1
1
1
1
1
1
1
1
1.4431
8.56049
10.6393
9.94243
9.48565
9.17515
1
1
1
1
1
1
1
1
1
1
1
1
1
1
1
1
1
1
1.24156
7.55485
10.5105
9.87108
9.58571
9.4201
1
1
1
1
1
1
1
1
1
1
1
1
1
1
1
1
1
1
1.01522
6.54983
10.502
10.0142
9.8326
9.64452
1
1
1
1
1
1
1
1
1
1
1
1
1
1
1
1
1
1
1.00018
5.65414
10.2222
10.0715
9.90473
9.71426
1
1
1
1
1
1
1
1
1
1
1
1
1
1
1
1
1
1
1
4.72283
9.95541
10.1377
9.94118
9.79916
1
1
1
1
1
1
1
1
1
1
1
1
1
1
1
1
1
1
1
3.94136
9.70219
10.2169
9.99603
9.8668
1
1
1
1
1
1
1
1
1
1
1
1
1
1
1
1
1
1
1
3.22919
9.43945
10.3015
10.044
9.91594
1
1
1
1
1
1
1
1
1
1
1
1
1
1
1
1
1
1
1
2.63698
9.15623
10.3982
10.1016
9.95994
1
1
1
1
1
1
1
1
1
1
1
1
1
1
1
1
1
1
1
2.17159
8.84766
10.4647
10.145
9.99689
1
1
1
1
1
1
1
1
1
1
1
1
1
1
1
1
1
1
1
1.85483
8.55263
10.4978
10.1819
10.0339
1
1
1
1
1
1
1
1
1
1
1
1
1
1
1
1
1
1
1
1.66095
8.27091
10.4897
10.1938
10.0514
1
1
1
1
1
1
1
1
1
1
1
1
1
1
1
1
1
1
1
1.53116
8.0353
10.4736
10.2089
10.0724
1
1
1
1
1
1
1
1
1
1
1
1
1
1
1
1
1
1
1
1.44327
7.85199
10.4508
10.2063
10.0749
1
1
1
1
1
1
1
1
1
1
1
1
1
1
1
1
1
1
1
1.38641
7.72388
10.4374
10.2025
10.0744
1
1
1
1
1
1
1
1
1
1
1
1
1
1
1
1
1
1
1
1.35395
7.64874
10.43
10.2012
10.0771
1
1
1
1
1
1
1
1
1
1
1
1
1
1
1
1
1
1
1
1.34538
7.62572
10.4319
10.2104
10.0872
2.18002
2.52726
3.08489
3.53559
3.77735
3.89756
3.93089
3.91919
3.88176
3.84044
3.80387
3.78037
3.75204
3.72492
3.69911
3.67857
3.67771
3.69238
3.72729
3.77068
3.82725
3.89215
3.9618
4.02934
4.09226
4.15086
4.21396
4.28773
4.37146
4.46053
4.54515
4.61542
4.66768
4.7066
4.73709
4.76268
4.7848
4.80431
4.824
4.84778
4.87661
4.90655
4.93027
4.94099
4.93641
4.91874
4.8918
4.85716
4.81567
4.76901
4.72187
4.67884
4.64071
4.60481
4.56789
4.52874
4.4862
4.43798
4.38276
4.32305
4.2625
4.20247
4.14226
4.08009
4.01755
3.95995
3.91136
3.87296
3.83937
3.80032
3.75266
3.70328
3.65737
3.61644
3.57678
3.53362
3.48673
3.43424
3.37045
3.30196
3.2458
3.20186
3.16503
3.14685
3.13531
3.10766
3.06999
3.02042
2.95379
2.89366
2.85619
2.8286
2.80474
2.77425
2.73875
2.66912
3.52429
3.7794
3.64619
3.7483
3.85522
3.89895
3.88556
3.84353
3.8015
3.76902
3.75203
3.75118
3.73926
3.71953
3.69772
3.68331
3.68527
3.70323
3.73102
3.76333
3.8033
3.85368
3.9161
3.98874
4.06668
4.14384
4.21261
4.27368
4.33546
4.40651
4.48847
4.57197
4.64208
4.6893
4.71693
4.74126
4.77295
4.80851
4.83647
4.8489
4.85173
4.85757
4.86943
4.87962
4.87763
4.86149
4.83858
4.81484
4.78854
4.75559
4.71565
4.67384
4.63499
4.59949
4.56449
4.5276
4.48752
4.4421
4.38685
4.32251
4.25554
4.19315
4.13984
4.09095
4.03771
3.97881
3.92188
3.87042
3.82416
3.77681
3.7296
3.67824
3.62468
3.57045
3.51544
3.4672
3.42831
3.38879
3.34536
3.30266
3.25082
3.19079
3.13844
3.10236
3.07218
3.05473
3.03345
2.99855
2.95396
2.89401
2.83579
2.79884
2.77381
2.75477
2.73576
2.68492
4.26923
4.33916
3.73087
3.65483
3.72101
3.74691
3.74457
3.73962
3.7543
3.75933
3.75924
3.78699
3.80725
3.80532
3.78863
3.77077
3.7614
3.76558
3.78787
3.82598
3.8735
3.91918
3.95658
3.99893
4.06121
4.14731
4.24617
4.33528
4.4013
4.44705
4.49289
4.55654
4.63615
4.71259
4.75977
4.77655
4.79113
4.82266
4.8693
4.91154
4.92953
4.92525
4.91581
4.91061
4.90463
4.88724
4.85366
4.81649
4.78474
4.75704
4.72588
4.68717
4.64491
4.60451
4.56626
4.52879
4.49093
4.45237
4.40577
4.34466
4.274
4.19779
4.13207
4.07938
4.03886
4.00286
3.95873
3.91065
3.86086
3.81231
3.76493
3.7171
3.66792
3.61251
3.5435
3.4599
3.37357
3.31447
3.28273
3.26539
3.25037
3.22262
3.1822
3.1138
3.03334
2.98489
2.95934
2.94768
2.93763
2.91292
2.87176
2.80537
2.7499
2.72464
2.71884
2.69944
4.65195
4.72883
4.04025
3.90419
3.93954
3.87908
3.81171
3.7986
3.81903
3.85281
3.83535
3.82169
3.81538
3.81075
3.80085
3.78226
3.75838
3.73678
3.73468
3.76529
3.82842
3.90289
3.96627
4.00442
4.0345
4.08333
4.16698
4.28008
4.39005
4.46098
4.49141
4.51633
4.56293
4.63966
4.72496
4.77224
4.77831
4.77601
4.78783
4.81773
4.84595
4.85056
4.83832
4.82667
4.82277
4.8207
4.8066
4.77635
4.74627
4.72063
4.69523
4.66429
4.62909
4.59466
4.55373
4.50566
4.45566
4.40753
4.36056
4.3116
4.25967
4.19809
4.12573
4.05919
4.01046
3.9675
3.92444
3.8807
3.83583
3.78878
3.73923
3.6889
3.64292
3.59984
3.55173
3.49064
3.41422
3.34236
3.29693
3.26824
3.24563
3.22545
3.20045
3.15924
3.0934
3.0196
2.97836
2.95704
2.94025
2.9244
2.89913
2.85115
2.77483
2.71658
2.69789
2.66975
4.9462
5.0168
4.37547
4.12088
4.12371
4.01248
3.93525
3.96122
3.93014
3.93424
3.91141
3.82599
3.7668
3.72902
3.72005
3.73355
3.75006
3.75433
3.7453
3.74158
3.76546
3.83478
3.93844
4.03026
4.08123
4.10993
4.14909
4.22293
4.33175
4.43915
4.50169
4.52172
4.53657
4.57046
4.64075
4.72121
4.76254
4.77198
4.77907
4.79717
4.83102
4.85938
4.86359
4.8557
4.84931
4.84889
4.84275
4.81092
4.76574
4.72743
4.70127
4.68458
4.6596
4.62033
4.57376
4.52063
4.46455
4.41441
4.36741
4.32103
4.27235
4.21699
4.15004
4.07773
4.01474
3.96316
3.91702
3.87204
3.82641
3.77866
3.7281
3.67397
3.6179
3.56366
3.51229
3.46079
3.40448
3.34468
3.29667
3.26296
3.23304
3.20283
3.17081
3.13525
3.08982
3.03037
2.97635
2.94797
2.92674
2.90519
2.8802
2.84427
2.78329
2.71566
2.68774
2.65361
5.20107
5.17317
4.58987
4.26406
4.29514
4.30553
4.34813
4.50361
4.37802
4.1636
4.04717
3.94501
3.86024
3.80012
3.75865
3.74185
3.75933
3.80094
3.82493
3.81216
3.79782
3.81961
3.89711
4.00345
4.07535
4.10562
4.12771
4.16913
4.24869
4.36022
4.45052
4.49199
4.52028
4.56302
4.62874
4.71667
4.75218
4.74756
4.73934
4.7558
4.80303
4.83682
4.82994
4.80742
4.7934
4.79343
4.77843
4.73948
4.68304
4.63262
4.60327
4.58242
4.5537
4.52052
4.48456
4.44154
4.38967
4.33259
4.28134
4.23857
4.19581
4.14466
4.08104
4.01075
3.95105
3.90524
3.86518
3.82631
3.78542
3.73932
3.68528
3.62528
3.56967
3.52656
3.49245
3.45944
3.41921
3.36253
3.29828
3.25239
3.21932
3.18846
3.15871
3.12856
3.09475
3.04985
2.9882
2.93818
2.91469
2.89436
2.87164
2.84247
2.79841
2.73477
2.68361
2.6401
5.39017
5.29699
4.81916
4.45139
4.55082
4.75794
5.01212
5.26712
5.06244
4.67929
4.37975
4.19702
4.09158
4.02485
3.94681
3.8906
3.87427
3.90617
3.93358
3.91238
3.88839
3.88879
3.9304
4.0167
4.08889
4.11645
4.14243
4.18357
4.24825
4.34528
4.43158
4.4642
4.48311
4.5056
4.53973
4.60316
4.64388
4.65278
4.66068
4.68712
4.72456
4.73414
4.72576
4.70514
4.69628
4.6977
4.68074
4.65166
4.62491
4.59852
4.56037
4.52466
4.49665
4.47022
4.44242
4.40781
4.35962
4.29766
4.23954
4.1937
4.14985
4.10381
4.05311
3.99512
3.9372
3.89425
3.85997
3.82494
3.78701
3.74272
3.68552
3.61756
3.56339
3.53366
3.51094
3.48707
3.4569
3.40645
3.32755
3.25602
3.2153
3.18566
3.1583
3.13292
3.10774
3.07694
3.02773
2.96007
2.91373
2.88709
2.86131
2.833
2.79877
2.75495
2.69714
2.63028
5.5467
5.49966
5.17471
4.92166
5.1163
5.42936
5.64088
5.82812
5.68344
5.28287
4.89879
4.60101
4.36601
4.24103
4.15281
4.07235
4.03699
4.03116
4.04512
4.03965
4.01041
3.98295
3.97859
4.01447
4.06402
4.08683
4.1108
4.14382
4.18642
4.24925
4.32197
4.35709
4.38056
4.40427
4.44082
4.50257
4.56546
4.58983
4.60113
4.61698
4.64748
4.67137
4.67186
4.66262
4.656
4.65277
4.64464
4.64218
4.64454
4.62202
4.57271
4.51698
4.48904
4.47237
4.45794
4.42267
4.36983
4.30125
4.23691
4.19585
4.1587
4.11809
4.07346
4.01921
3.95407
3.90658
3.87277
3.83906
3.80487
3.76438
3.71102
3.64513
3.58614
3.54929
3.51901
3.48672
3.44734
3.39744
3.32664
3.24392
3.19033
3.16017
3.13557
3.11497
3.09682
3.07562
3.04187
2.97655
2.90192
2.86341
2.83973
2.81642
2.79084
2.75996
2.72006
2.65285
5.77313
5.91742
5.7869
5.57418
5.74472
5.95969
6.01066
6.11569
6.03932
5.7397
5.3865
5.07479
4.72954
4.48285
4.3818
4.29345
4.18961
4.12067
4.11117
4.12267
4.09503
4.04439
4.00772
4.00966
4.04113
4.06524
4.07969
4.10088
4.12904
4.17184
4.23031
4.28101
4.31679
4.34641
4.38075
4.43263
4.50056
4.54093
4.55527
4.56839
4.59443
4.62795
4.64794
4.65109
4.63743
4.61832
4.61189
4.62058
4.63292
4.61332
4.56804
4.50214
4.46441
4.44845
4.43608
4.40408
4.35671
4.28524
4.21499
4.17593
4.14322
4.11162
4.07499
4.02205
3.94872
3.8873
3.85086
3.82109
3.78858
3.75179
3.70652
3.64485
3.56466
3.49371
3.4529
3.42138
3.38989
3.35339
3.30671
3.24169
3.17088
3.13279
3.11614
3.10586
3.08735
3.06368
3.03129
2.97491
2.89353
2.83716
2.81528
2.79689
2.77718
2.75506
2.7288
2.68876
6.30015
6.58329
6.43771
6.20098
6.256
6.3137
6.28195
6.37709
6.38058
6.13254
5.76153
5.44308
5.10145
4.77129
4.60592
4.51448
4.38292
4.24193
4.18572
4.18246
4.16404
4.11504
4.06561
4.04833
4.05942
4.08172
4.0883
4.09487
4.11113
4.14041
4.1843
4.23087
4.26741
4.29636
4.32516
4.36734
4.42411
4.4774
4.50343
4.51448
4.53566
4.57029
4.60389
4.61781
4.60498
4.57148
4.55611
4.55943
4.56546
4.54979
4.51734
4.46154
4.41129
4.39131
4.37401
4.34351
4.30237
4.23977
4.16803
4.12589
4.09625
4.06736
4.03275
3.98836
3.92724
3.85386
3.79572
3.757
3.72688
3.69933
3.66684
3.6187
3.53975
3.45386
3.39988
3.36537
3.33369
3.30285
3.27431
3.24133
3.19617
3.13845
3.08924
3.06061
3.03859
3.01583
2.99041
2.95571
2.90702
2.84787
2.80169
2.78074
2.76629
2.74762
2.72079
2.74084
7.0164
7.12013
6.93109
6.70126
6.58392
6.5571
6.56889
6.70276
6.7398
6.4897
6.08611
5.73297
5.45244
5.13511
4.84372
4.69862
4.58886
4.44426
4.3091
4.25181
4.23897
4.20763
4.16383
4.1311
4.11976
4.12704
4.12783
4.12158
4.12458
4.13564
4.15889
4.18637
4.21451
4.24216
4.26369
4.29127
4.33266
4.38124
4.42299
4.44155
4.45913
4.4916
4.52936
4.5472
4.53871
4.50688
4.48038
4.47384
4.47429
4.4632
4.43923
4.39556
4.33781
4.31118
4.29112
4.26386
4.23037
4.18198
4.11037
4.05857
4.03247
4.0051
3.9735
3.9385
3.89122
3.81852
3.74423
3.70003
3.66807
3.63803
3.60887
3.5751
3.52114
3.44117
3.36625
3.32231
3.29493
3.27305
3.25381
3.2342
3.20903
3.16357
3.09179
3.03725
3.00804
2.98256
2.95539
2.93176
2.90914
2.87778
2.82753
2.77776
2.74605
2.72335
2.71852
2.86084
7.56563
7.53505
7.32288
7.01857
6.80174
6.80951
6.91353
7.04345
7.03344
6.77554
6.39699
6.04569
5.77347
5.50254
5.17598
4.89983
4.76955
4.66849
4.53133
4.38712
4.30984
4.29897
4.28436
4.24963
4.2083
4.1803
4.16933
4.16436
4.15086
4.14192
4.14086
4.14576
4.15336
4.17179
4.19317
4.21115
4.2317
4.26389
4.3085
4.33941
4.3558
4.38048
4.41742
4.44392
4.44208
4.41624
4.38641
4.37427
4.37476
4.37161
4.35408
4.32035
4.26573
4.22957
4.21132
4.18953
4.16132
4.1235
4.06393
4.00066
3.96966
3.9425
3.91428
3.8849
3.8488
3.79664
3.72478
3.65917
3.61769
3.58555
3.55509
3.5249
3.49318
3.44919
3.38631
3.32073
3.28454
3.26458
3.2496
3.23407
3.21296
3.17942
3.11612
3.03651
2.98738
2.96072
2.94164
2.92906
2.91515
2.89453
2.85677
2.78857
2.73266
2.72826
2.77026
3.15272
7.95116
7.84467
7.58001
7.23233
7.04263
7.12503
7.24741
7.29192
7.23701
7.03385
6.71754
6.39736
6.10183
5.80977
5.49593
5.18299
4.98202
4.87454
4.75526
4.58862
4.44411
4.39589
4.39334
4.36286
4.30691
4.23817
4.20551
4.19672
4.17611
4.1467
4.12111
4.10666
4.09854
4.10332
4.11668
4.13155
4.14189
4.15257
4.18152
4.21796
4.23651
4.25757
4.29051
4.32685
4.33651
4.32256
4.29502
4.28231
4.28476
4.29211
4.2849
4.25841
4.20946
4.16399
4.14647
4.13101
4.10662
4.07571
4.03564
3.97426
3.92109
3.89407
3.86879
3.83911
3.80687
3.77205
3.72536
3.65839
3.59366
3.5543
3.52477
3.49968
3.47677
3.44987
3.41266
3.36088
3.30623
3.26518
3.24149
3.22173
3.2001
3.17115
3.1279
3.06583
2.99831
2.9591
2.94146
2.92948
2.91887
2.90005
2.86715
2.80722
2.77092
2.81575
3.01637
3.58328
8.27354
8.1017
7.79497
7.45391
7.34622
7.42853
7.48645
7.44937
7.42122
7.2961
7.02096
6.70539
6.39438
6.07744
5.77714
5.5014
5.25324
5.08632
4.95913
4.79478
4.61686
4.52784
4.49487
4.45378
4.383
4.29854
4.25039
4.22463
4.19579
4.15019
4.10762
4.08017
4.05962
4.048
4.04662
4.04917
4.05506
4.06122
4.08025
4.11229
4.12785
4.14259
4.17227
4.21172
4.24037
4.24105
4.22055
4.20673
4.21064
4.2261
4.23059
4.21031
4.16581
4.11166
4.08931
4.07959
4.0686
4.04846
4.01834
3.97044
3.90422
3.85782
3.83213
3.80724
3.78308
3.75684
3.72319
3.67061
3.59377
3.54059
3.51528
3.49329
3.47064
3.44481
3.41565
3.37841
3.32542
3.26507
3.22446
3.19605
3.16903
3.14273
3.11627
3.08467
3.04141
2.98924
2.94614
2.92219
2.90054
2.8807
2.85633
2.84886
2.90737
3.14065
3.56561
3.95936
8.51909
8.31764
7.99156
7.71834
7.66494
7.68998
7.66906
7.59041
7.61315
7.54508
7.27301
6.93261
6.62933
6.33672
6.04185
5.79669
5.54252
5.30059
5.14033
4.99291
4.8174
4.66565
4.58671
4.52882
4.45135
4.37153
4.3054
4.25224
4.20373
4.15654
4.11745
4.08396
4.05064
4.01488
3.99394
3.9845
3.98314
3.99144
4.01277
4.03298
4.03618
4.03514
4.05486
4.09487
4.13507
4.15128
4.14118
4.1282
4.13762
4.15822
4.17291
4.16122
4.12237
4.06475
4.03356
4.03109
4.03825
4.02105
3.994
3.95886
3.90397
3.83512
3.79715
3.78114
3.76415
3.7396
3.708
3.65851
3.60143
3.54339
3.48508
3.44682
3.42705
3.4146
3.39394
3.36578
3.32242
3.2578
3.19245
3.15653
3.13449
3.11651
3.09873
3.07982
3.05633
3.0164
2.95613
2.90832
2.88028
2.8621
2.87538
2.9782
3.26602
3.74044
4.1176
4.14179
8.76766
8.51808
8.20501
8.01907
7.95718
7.9023
7.80653
7.75378
7.82767
7.79436
7.49614
7.11815
6.82846
6.58873
6.30436
6.03571
5.78621
5.51648
5.31566
5.17923
5.02365
4.83293
4.67976
4.6053
4.54322
4.46879
4.38582
4.28604
4.21468
4.17882
4.1511
4.1141
4.0749
4.02268
3.97076
3.94762
3.93632
3.94149
3.95483
3.95431
3.94805
3.93865
3.94026
3.9708
4.02088
4.04351
4.04014
4.02667
4.03352
4.05904
4.08203
4.07821
4.04857
4.00444
3.96703
3.95106
3.94965
3.95056
3.93765
3.90889
3.86406
3.80297
3.75599
3.72105
3.68874
3.66134
3.63498
3.60821
3.56899
3.5152
3.45177
3.40693
3.37928
3.35585
3.3323
3.30883
3.28029
3.23746
3.17169
3.11887
3.09966
3.08708
3.07556
3.06172
3.04547
3.02272
2.97496
2.9004
2.87099
2.88398
3.01096
3.34037
3.79818
4.21577
4.28951
4.21231
8.9553
8.71859
8.51654
8.35727
8.20021
8.05429
7.9773
7.98601
8.04671
7.96799
7.64712
7.3049
7.04878
6.82597
6.5516
6.23579
5.98478
5.74757
5.51742
5.35566
5.20922
5.01738
4.81092
4.69744
4.64015
4.56943
4.47322
4.34726
4.2518
4.2096
4.18349
4.14844
4.10544
4.04599
3.97495
3.93355
3.91222
3.907
3.89559
3.88018
3.86489
3.84822
3.83164
3.84119
3.88312
3.91756
3.92871
3.91674
3.90365
3.92454
3.95734
3.96691
3.95334
3.92698
3.89537
3.86731
3.86249
3.85829
3.84192
3.81945
3.78737
3.74278
3.69951
3.65935
3.62411
3.59279
3.56367
3.5351
3.50479
3.46768
3.42465
3.37447
3.31903
3.28916
3.27173
3.25278
3.2326
3.20636
3.16808
3.11723
3.07684
3.06171
3.0576
3.05668
3.04247
3.02154
2.97946
2.91999
2.92535
3.05392
3.42433
3.82954
4.2018
4.31854
4.30797
4.21226
9.20656
8.94607
8.76021
8.60132
8.38584
8.23815
8.24064
8.20627
8.1658
8.07403
7.82023
7.54264
7.26543
7.0143
6.74696
6.42401
6.17309
5.9869
5.76122
5.54022
5.37275
5.19895
5.00344
4.84103
4.74238
4.66521
4.57003
4.45123
4.33885
4.26823
4.22211
4.18494
4.13702
4.0733
4.00567
3.95269
3.90934
3.87195
3.83006
3.79339
3.76912
3.74679
3.723
3.71798
3.74121
3.77549
3.79601
3.79929
3.77939
3.78395
3.82032
3.83092
3.8249
3.83316
3.82621
3.79305
3.77707
3.76105
3.73988
3.72148
3.69652
3.66756
3.63882
3.60612
3.56906
3.52319
3.48575
3.4669
3.44977
3.42713
3.39641
3.35555
3.30024
3.24818
3.22896
3.21703
3.20985
3.19539
3.1769
3.1494
3.10171
3.05031
3.02634
3.01286
3.00345
2.9956
2.98192
3.01162
3.17381
3.58675
3.98969
4.19466
4.29896
4.31736
4.2816
4.20901
9.3918
9.16929
9.03809
8.84207
8.57464
8.43797
8.42775
8.36595
8.28272
8.20463
8.03195
7.78145
7.4733
7.18493
6.92653
6.64066
6.3751
6.19129
5.99214
5.74641
5.51701
5.36051
5.20808
5.0505
4.8878
4.74714
4.64643
4.54898
4.45516
4.37683
4.28647
4.19
4.1306
4.08603
4.04795
4.00004
3.93992
3.8613
3.78153
3.72989
3.69885
3.66817
3.62943
3.60564
3.60864
3.62895
3.65383
3.66892
3.65406
3.64575
3.68623
3.70041
3.70054
3.7262
3.74051
3.71868
3.6997
3.67885
3.64707
3.62506
3.61395
3.60836
3.59699
3.57218
3.53416
3.47788
3.42994
3.41322
3.40317
3.40125
3.38907
3.36014
3.306
3.24489
3.21632
3.20786
3.20264
3.20214
3.19716
3.17587
3.13455
3.07048
3.02112
3.00117
2.99631
3.00525
3.08103
3.3133
3.76078
4.22386
4.34507
4.33119
4.29549
4.28137
4.29329
4.25113
9.51575
9.33695
9.18098
8.95704
8.73666
8.64431
8.65285
8.52936
8.39952
8.32096
8.17433
7.92102
7.60248
7.32781
7.12752
6.91043
6.64871
6.41112
6.21662
5.95935
5.69972
5.53472
5.42989
5.28613
5.08763
4.87873
4.72406
4.653
4.60051
4.51304
4.39577
4.25413
4.15542
4.09283
4.03955
3.98679
3.91831
3.82666
3.75256
3.70972
3.67214
3.62751
3.57063
3.52439
3.51331
3.51459
3.52392
3.54428
3.54555
3.53321
3.57017
3.5917
3.59068
3.62306
3.64875
3.63891
3.63142
3.61312
3.57503
3.54543
3.53556
3.53812
3.54807
3.53902
3.51024
3.46102
3.39856
3.36736
3.35576
3.35359
3.35533
3.34353
3.32369
3.28191
3.22557
3.19506
3.18179
3.1731
3.16481
3.15029
3.12817
3.0845
3.03466
3.01824
3.02645
3.11493
3.39145
3.82561
4.30668
4.47682
4.47538
4.38387
4.29019
4.26139
4.25292
4.22357
9.63547
9.47666
9.30023
9.09382
8.92656
8.84492
8.75963
8.58605
8.45742
8.36752
8.24309
8.02653
7.74012
7.47701
7.27118
7.06406
6.81287
6.55346
6.34774
6.17072
5.96601
5.76141
5.55291
5.38178
5.238
5.07241
4.92536
4.79018
4.65321
4.52702
4.41535
4.32552
4.24362
4.16389
4.0759
3.97444
3.86622
3.7896
3.74554
3.70746
3.66429
3.60803
3.53592
3.47614
3.45365
3.44112
3.4307
3.43754
3.44445
3.44003
3.46965
3.49562
3.48498
3.50589
3.53057
3.53656
3.54784
3.54803
3.52086
3.4804
3.46022
3.46124
3.47549
3.48579
3.47418
3.44397
3.38807
3.33278
3.31325
3.30589
3.31412
3.32478
3.31449
3.287
3.23542
3.17629
3.14977
3.13592
3.12672
3.12785
3.1245
3.11126
3.09386
3.10961
3.2034
3.49198
3.89395
4.26504
4.51361
4.55671
4.52713
4.42786
4.31294
4.25439
4.23712
4.2036
9.70718
9.54714
9.37526
9.19932
9.06383
8.94923
8.80487
8.65121
8.55131
8.48231
8.35419
8.12363
7.84034
7.59072
7.40033
7.20481
6.96429
6.70182
6.4869
6.29821
6.10708
5.90986
5.69139
5.48613
5.31282
5.16691
5.03652
4.89907
4.74151
4.58269
4.45251
4.35921
4.28637
4.20842
4.10715
3.9788
3.86568
3.80068
3.75374
3.7069
3.65238
3.58381
3.50242
3.44377
3.41762
3.3929
3.36614
3.35464
3.34926
3.34698
3.36793
3.39244
3.38303
3.37812
3.39464
3.41576
3.44676
3.47197
3.46838
3.43583
3.39418
3.38235
3.38872
3.40545
3.41696
3.40587
3.37315
3.31757
3.2769
3.2633
3.26152
3.27533
3.28181
3.26481
3.23314
3.17682
3.13223
3.11775
3.11132
3.11971
3.14648
3.18856
3.25366
3.37795
3.64058
4.0324
4.28857
4.47209
4.55441
4.54288
4.50153
4.44509
4.36712
4.27098
4.23063
4.19005
9.75961
9.6003
9.44222
9.28899
9.1512
8.99738
8.84335
8.71348
8.62602
8.54499
8.37744
8.14204
7.9033
7.70167
7.53881
7.32921
7.06682
6.81005
6.61462
6.43665
6.23845
6.02862
5.80832
5.60588
5.43951
5.29272
5.1463
4.98752
4.81527
4.6533
4.52741
4.42687
4.33208
4.23108
4.11328
3.98992
3.89719
3.82857
3.7664
3.7024
3.63102
3.55296
3.48304
3.44033
3.40338
3.36005
3.31616
3.27815
3.25815
3.2504
3.26005
3.28022
3.28088
3.26426
3.26133
3.28268
3.3229
3.37238
3.39156
3.38122
3.34198
3.30666
3.30255
3.31282
3.33434
3.34656
3.3368
3.30423
3.25339
3.22281
3.21214
3.21261
3.22555
3.22753
3.21003
3.18328
3.14804
3.13329
3.13854
3.15601
3.22842
3.3789
3.56321
3.77284
4.12112
4.38292
4.48576
4.51154
4.513
4.49215
4.46334
4.43801
4.4004
4.32042
4.23968
4.1805
9.80121
9.64804
9.49878
9.35479
9.20348
9.04939
8.91004
8.79992
8.6937
8.56122
8.37426
8.17059
7.97716
7.81174
7.62824
7.38536
7.12767
6.90742
6.7332
6.55695
6.34985
6.12303
5.90762
5.72002
5.55554
5.39838
5.23615
5.06324
4.88826
4.73466
4.6084
4.49547
4.38278
4.26316
4.14045
4.02893
3.93521
3.85253
3.77309
3.69354
3.61445
3.54419
3.49131
3.44377
3.38986
3.33336
3.27556
3.21433
3.17919
3.16576
3.166
3.17694
3.18045
3.16954
3.14849
3.15121
3.18477
3.24215
3.29213
3.30504
3.29073
3.2479
3.22677
3.23293
3.25244
3.28039
3.28841
3.27642
3.24272
3.19638
3.1754
3.16734
3.17301
3.19209
3.20332
3.20577
3.19044
3.1803
3.207
3.30737
3.46273
3.67768
3.85586
4.07878
4.40173
4.54506
4.5458
4.51776
4.49654
4.47277
4.4491
4.4253
4.39449
4.33921
4.25955
4.17968
9.83864
9.68615
9.5358
9.38495
9.22908
9.08068
8.94955
8.83781
8.70676
8.55361
8.38238
8.21067
8.05079
7.88446
7.6683
7.42486
7.1947
7.00364
6.83888
6.64607
6.42639
6.2015
6.00741
5.82853
5.6587
5.49069
5.31529
5.136
4.96775
4.82035
4.68704
4.55867
4.43082
4.3024
4.17857
4.06685
3.96837
3.87656
3.78556
3.69564
3.61292
3.54347
3.48352
3.42251
3.35987
3.29981
3.23669
3.17396
3.12735
3.09675
3.08399
3.08031
3.08066
3.07731
3.06316
3.04959
3.06547
3.10963
3.16935
3.2141
3.22635
3.21101
3.17713
3.17284
3.18636
3.21241
3.23807
3.24117
3.2265
3.18996
3.16115
3.15453
3.15977
3.18819
3.22422
3.24352
3.29737
3.3796
3.50414
3.6249
3.76821
3.92526
4.04626
4.28083
4.52201
4.57873
4.57532
4.54322
4.50273
4.46992
4.44072
4.41063
4.379
4.34107
4.29407
4.20873
9.87583
9.72328
9.56907
9.41329
9.25887
9.11597
8.98466
8.85349
8.70449
8.55024
8.39678
8.25201
8.10446
7.91708
7.69425
7.47002
7.26916
7.09789
6.92345
6.71681
6.48846
6.28322
6.10797
5.92973
5.75032
5.56832
5.38354
5.20695
5.04661
4.8997
4.75922
4.6198
4.47922
4.34164
4.21431
4.1009
3.99851
3.90149
3.80598
3.71081
3.61763
3.53262
3.45764
3.38727
3.32587
3.26877
3.21074
3.1582
3.10125
3.03554
3.00187
2.98827
2.98435
2.99142
2.99628
2.9881
2.98231
3.00212
3.04378
3.09761
3.14685
3.1635
3.14908
3.13305
3.14099
3.15667
3.18
3.20062
3.20272
3.1878
3.16433
3.16443
3.17832
3.21491
3.28049
3.39399
3.51285
3.65371
3.77934
3.87104
3.98647
4.06077
4.16939
4.37974
4.5516
4.59058
4.58951
4.55954
4.51007
4.46374
4.4318
4.4055
4.37929
4.3473
4.30903
4.22631
9.89701
9.74767
9.59357
9.44023
9.28941
9.14782
9.00718
8.85837
8.70296
8.55246
8.41368
8.2798
8.12127
7.92532
7.71583
7.51266
7.332
7.16928
6.97868
6.76201
6.54301
6.36754
6.20008
6.01979
5.83125
5.63588
5.44553
5.27311
5.11735
4.97
4.82505
4.67826
4.5279
4.38005
4.24579
4.12868
4.02382
3.92549
3.82899
3.73038
3.62541
3.52059
3.42895
3.35472
3.29783
3.24659
3.19874
3.14754
3.07848
2.99663
2.94235
2.9219
2.91599
2.92467
2.93809
2.94004
2.9276
2.91904
2.93872
2.9788
3.03636
3.09473
3.11623
3.11009
3.10614
3.11433
3.12888
3.15601
3.18522
3.1972
3.21425
3.23896
3.27932
3.34473
3.44982
3.57987
3.69751
3.82918
3.91675
4.01408
4.09659
4.14345
4.253
4.43348
4.56139
4.58616
4.58085
4.55391
4.51154
4.46573
4.42677
4.39823
4.36921
4.33391
4.29788
4.22956
9.91939
9.77033
9.61509
9.4625
9.31274
9.16705
9.01448
8.85719
8.70467
8.56356
8.43058
8.28599
8.11498
7.92679
7.73753
7.56172
7.40601
7.22665
7.01024
6.78658
6.59571
6.43031
6.26987
6.0906
5.89711
5.69414
5.50186
5.33343
5.1793
5.03068
4.88273
4.73097
4.57291
4.41554
4.27318
4.15142
4.04474
3.94575
3.84797
3.7452
3.63395
3.5193
3.41536
3.33691
3.2808
3.23204
3.18442
3.13077
3.0616
2.98334
2.92073
2.88379
2.86873
2.86638
2.87233
2.87512
2.86939
2.85373
2.85332
2.87963
2.92582
2.99666
3.05128
3.07043
3.08044
3.08161
3.09641
3.12956
3.17501
3.23036
3.29973
3.38529
3.47251
3.56219
3.6772
3.74588
3.81865
3.90645
3.98906
4.08785
4.14734
4.18973
4.30633
4.46337
4.54834
4.56899
4.56706
4.54815
4.51506
4.47525
4.42984
4.38377
4.34538
4.31158
4.28424
4.23222
9.92486
9.78028
9.63217
9.48526
9.33556
9.18292
9.02548
8.87088
8.72344
8.58295
8.43775
8.27388
8.09661
7.91989
7.75324
7.5984
7.44262
7.25454
7.04236
6.83539
6.6497
6.48535
6.32171
6.14084
5.9452
5.74261
5.55541
5.38727
5.2292
5.07634
4.92503
4.76943
4.60719
4.44775
4.30341
4.17577
4.06091
3.95605
3.85717
3.7559
3.64604
3.53063
3.42099
3.33225
3.26762
3.21676
3.1695
3.1165
3.05113
2.97598
2.91456
2.86983
2.83721
2.82232
2.81053
2.80272
2.80003
2.79674
2.7916
2.80778
2.84303
2.89827
2.96744
3.00873
3.03576
3.06942
3.10948
3.14657
3.20538
3.29286
3.4059
3.52699
3.62373
3.73225
3.79397
3.83896
3.91283
3.97153
4.03575
4.10773
4.15096
4.21244
4.33608
4.48423
4.54508
4.55645
4.56058
4.54662
4.52013
4.48641
4.43559
4.3732
4.32672
4.29504
4.2736
4.23371
9.92787
9.78789
9.64461
9.49832
9.34569
9.1894
9.03263
8.88067
8.73268
8.58496
8.42842
8.2629
8.09598
7.93216
7.7758
7.62159
7.45472
7.26431
7.06662
6.87468
6.69644
6.52539
6.34784
6.16407
5.97151
5.78096
5.60261
5.43382
5.26985
5.10866
4.94669
4.78324
4.6234
4.47353
4.33466
4.2041
4.08085
3.96596
3.85451
3.74037
3.6327
3.53624
3.44559
3.3621
3.27873
3.1981
3.13212
3.06941
3.01614
2.97405
2.92917
2.88033
2.83106
2.78816
2.75796
2.74342
2.73685
2.741
2.74587
2.75129
2.77406
2.81354
2.87177
2.93623
2.99387
3.05817
3.12446
3.19878
3.29355
3.39727
3.51093
3.60982
3.70977
3.80991
3.86807
3.92319
3.9788
4.01405
4.0654
4.12663
4.17911
4.24927
4.37304
4.50905
4.55846
4.56528
4.5666
4.54887
4.51905
4.4834
4.43615
4.3792
4.33349
4.29939
4.27614
4.23397
9.9309
9.78937
9.64697
9.50201
9.35052
9.19527
9.04017
8.88702
8.7338
8.57724
8.41624
8.25603
8.09965
7.94609
7.79136
7.62796
7.44901
7.26101
7.07642
6.90476
6.7372
6.55077
6.36031
6.1687
5.9839
5.80684
5.63734
5.47
5.30049
5.12622
4.95084
4.78338
4.6298
4.49112
4.36222
4.23594
4.10704
3.97237
3.8388
3.72038
3.61919
3.53279
3.46097
3.39031
3.30852
3.21234
3.11778
3.04374
2.99193
2.95676
2.93069
2.89767
2.84374
2.76764
2.72417
2.70782
2.69873
2.70156
2.71071
2.71595
2.72183
2.74737
2.79269
2.8599
2.94587
3.04721
3.1569
3.27022
3.37406
3.48069
3.5565
3.63734
3.73928
3.82703
3.89916
3.95967
4.00217
4.03976
4.08416
4.13496
4.19711
4.27763
4.41173
4.54555
4.58647
4.57965
4.56847
4.54529
4.51352
4.4785
4.43781
4.39636
4.35762
4.32068
4.2914
4.2425
9.93536
9.78728
9.64388
9.50199
9.35392
9.20072
9.04536
8.88888
8.72959
8.56866
8.41074
8.25868
8.11091
7.96069
7.79823
7.62155
7.43821
7.26013
7.09363
6.93746
6.76151
6.56751
6.3668
6.17206
5.99598
5.82868
5.66297
5.49576
5.3207
5.13347
4.94457
4.77526
4.63331
4.50874
4.39045
4.26855
4.1304
3.9698
3.81027
3.68945
3.60711
3.54268
3.48171
3.41345
3.32105
3.19462
3.07678
3.01938
2.98517
2.95688
2.92758
2.89213
2.83249
2.74468
2.70055
2.68247
2.67252
2.67417
2.67743
2.67943
2.67928
2.69085
2.72959
2.80061
2.90729
3.03608
3.175
3.3099
3.4307
3.53192
3.62712
3.72175
3.81376
3.8944
3.96713
4.01358
4.04624
4.08373
4.11949
4.15995
4.22295
4.30592
4.44292
4.57852
4.60877
4.58899
4.56824
4.54138
4.5078
4.47401
4.4393
4.39862
4.35611
4.31854
4.28862
4.23839
)
;

boundaryField
{
    inlet
    {
        type            fixedValue;
        value           uniform 1;
    }
    outlet
    {
        type            zeroGradient;
    }
    bottom
    {
        type            symmetryPlane;
    }
    top
    {
        type            symmetryPlane;
    }
    obstacle
    {
        type            zeroGradient;
    }
    defaultFaces
    {
        type            empty;
    }
}


// ************************************************************************* //
