/*--------------------------------*- C++ -*----------------------------------*\
  =========                 |
  \\      /  F ield         | OpenFOAM: The Open Source CFD Toolbox
   \\    /   O peration     | Website:  https://openfoam.org
    \\  /    A nd           | Version:  7
     \\/     M anipulation  |
\*---------------------------------------------------------------------------*/
FoamFile
{
    version     2.0;
    format      ascii;
    class       volScalarField;
    location    "15";
    object      rho;
}
// * * * * * * * * * * * * * * * * * * * * * * * * * * * * * * * * * * * * * //

dimensions      [1 -3 0 0 0 0 0];

internalField   nonuniform List<scalar> 
4032
(
1.40001
1.40001
1.40001
1.40001
1.40001
1.40001
1.40001
1.40001
1.40001
1.40001
1.40001
1.43973
4.09465
5.45684
5.51008
5.58241
5.65029
5.71528
5.77592
5.83067
5.87833
5.91574
5.94353
5.96338
1.40001
1.40001
1.40001
1.40001
1.40001
1.40001
1.40001
1.40001
1.40001
1.40001
1.40001
1.40915
4.03344
5.43937
5.49846
5.57047
5.6387
5.70337
5.76345
5.81707
5.86277
5.89733
5.92151
5.9387
1.40001
1.40001
1.40001
1.40001
1.40001
1.40001
1.40001
1.40001
1.40001
1.40001
1.40001
1.40035
3.89347
5.41464
5.47934
5.54921
5.61657
5.6793
5.73745
5.78948
5.83448
5.86934
5.89368
5.91244
1.40001
1.40001
1.40001
1.40001
1.40001
1.40001
1.40001
1.40001
1.40001
1.40001
1.40001
1.40001
3.67582
5.37439
5.4523
5.51887
5.58507
5.64533
5.70121
5.75122
5.79412
5.82537
5.84423
5.8568
1.40001
1.40001
1.40001
1.40001
1.40001
1.40001
1.40001
1.40001
1.40001
1.40001
1.40001
1.40001
3.3875
5.31136
5.41888
5.48132
5.54491
5.60036
5.65006
5.69231
5.72711
5.75355
5.77082
5.79142
1.40001
1.40001
1.40001
1.40001
1.40001
1.40001
1.40001
1.40001
1.40001
1.40001
1.40001
1.40001
3.0322
5.2146
5.3873
5.44168
5.49746
5.54404
5.58518
5.62044
5.64988
5.6733
5.68397
5.6744
1.40001
1.40001
1.40001
1.40001
1.40001
1.40001
1.40001
1.40001
1.40001
1.40001
1.40001
1.40001
2.62271
5.07669
5.38564
5.42065
5.46113
5.49224
5.51561
5.53288
5.53847
5.52395
5.50388
5.49345
1.40001
1.40001
1.40001
1.40001
1.40001
1.40001
1.40001
1.40001
1.40001
1.40001
1.40001
1.40001
2.15642
4.87407
5.40795
5.40857
5.42906
5.44128
5.44348
5.43815
5.41436
5.37819
5.31522
5.27104
1.40001
1.40001
1.40001
1.40001
1.40001
1.40001
1.40001
1.40001
1.40001
1.40001
1.40001
1.40001
1.669
4.58338
5.4494
5.39436
5.398
5.38631
5.36347
5.33049
5.26635
5.15629
4.84302
3.90895
1.40001
1.40001
1.40001
1.40001
1.40001
1.40001
1.40001
1.40001
1.40001
1.40001
1.40001
1.40001
1.41782
4.00149
5.32434
5.30093
5.32197
5.3094
5.2732
5.21318
5.10804
4.91381
4.5839
3.6717
1.40001
1.40001
1.40001
1.40001
1.40001
1.40001
1.40001
1.40001
1.40001
1.40001
1.40001
1.40001
1.39996
3.21838
5.10716
5.26757
5.2849
5.25506
5.1993
5.10767
4.96955
4.73296
4.39804
3.59247
1.40001
1.40001
1.40001
1.40001
1.40001
1.40001
1.40001
1.40001
1.40001
1.40001
1.40001
1.40001
1.39999
2.39164
4.85374
5.22968
5.21442
5.18717
5.12602
5.01311
4.84694
4.60206
4.24327
3.58119
1.40001
1.40001
1.40001
1.40001
1.40001
1.40001
1.40001
1.40001
1.40001
1.40001
1.40001
1.40001
1.4
1.62978
4.50097
5.28458
5.17493
5.11031
5.03735
4.91571
4.74122
4.50279
4.12271
3.62046
1.40001
1.40001
1.40001
1.40001
1.40001
1.40001
1.40001
1.40001
1.40001
1.40001
1.40001
1.40001
1.4
1.40865
3.6968
5.02361
5.03491
5.01636
4.94434
4.82541
4.65396
4.40896
4.05711
3.65714
1.40001
1.40001
1.40001
1.40001
1.40001
1.40001
1.40001
1.40001
1.40001
1.40001
1.40001
1.40001
1.40001
1.39989
2.58948
4.79476
5.02061
4.9833
4.89337
4.75766
4.5895
4.34426
4.03663
3.70232
1.40001
1.40001
1.40001
1.40001
1.40001
1.40001
1.40001
1.40001
1.40001
1.40001
1.40001
1.40001
1.40001
1.39998
1.65031
4.36375
5.07295
4.95719
4.83885
4.68608
4.51652
4.28537
4.0211
3.73662
1.40001
1.40001
1.40001
1.40001
1.40001
1.40001
1.40001
1.40001
1.40001
1.40001
1.40001
1.40001
1.40001
1.4
1.4083
3.34559
4.89235
4.87371
4.77466
4.63215
4.45931
4.25118
4.02552
3.78197
1.40001
1.40001
1.40001
1.40001
1.40001
1.40001
1.40001
1.40001
1.40001
1.40001
1.40001
1.40001
1.40001
1.4
1.39994
2.04633
4.66849
4.91644
4.76419
4.60634
4.43144
4.24341
4.05484
3.89517
1.40001
1.40001
1.40001
1.40001
1.40001
1.40001
1.40001
1.40001
1.40001
1.40001
1.40001
1.40001
1.40001
1.40001
1.39999
1.46465
3.74787
4.84134
4.70105
4.57104
4.4185
4.27615
4.16861
4.14744
1.40001
1.40001
1.40001
1.40001
1.40001
1.40001
1.40001
1.40001
1.40001
1.40001
1.40001
1.40001
1.40001
1.40001
1.4
1.40028
2.31078
4.60254
4.70438
4.58513
4.48033
4.44657
4.46229
4.48493
1.40001
1.40001
1.40001
1.40001
1.40001
1.40001
1.40001
1.40001
1.40001
1.40001
1.40001
1.40001
1.40001
1.40001
1.4
1.4
1.52158
3.71114
4.69488
4.64203
4.66135
4.75168
4.79669
4.73984
1.40001
1.40001
1.40001
1.40001
1.40001
1.40001
1.40001
1.40001
1.40001
1.40001
1.40001
1.40001
1.40001
1.40001
1.40001
1.4
1.40161
2.23392
4.31882
4.82572
5.02929
5.14085
5.07435
4.93231
1.40001
1.40001
1.40001
1.40001
1.40001
1.40001
1.40001
1.40001
1.40001
1.40001
1.40001
1.40001
1.40001
1.40001
1.40001
1.40001
1.40001
1.49873
3.42546
5.14396
5.5094
5.45813
5.26361
5.096
1.40001
1.40001
1.40001
1.40001
1.40001
1.40001
1.40001
1.40001
1.40001
1.40001
1.40001
1.40001
1.40001
1.40001
1.40001
1.40001
1.40001
1.40127
2.15737
5.29788
5.85142
5.62064
5.42101
5.27262
1.40001
1.40001
1.40001
1.40001
1.40001
1.40001
1.40001
1.40001
1.40001
1.40001
1.40001
1.40001
1.40001
1.40001
1.40001
1.40001
1.40001
1.40001
1.65958
4.92722
5.87744
5.63157
5.47246
5.3519
1.40001
1.40001
1.40001
1.40001
1.40001
1.40001
1.40001
1.40001
1.40001
1.40001
1.40001
1.40001
1.40001
1.40001
1.40001
1.40001
1.40001
1.40001
1.53265
4.4047
5.65106
5.44945
5.4007
5.38134
1.40001
1.40001
1.40001
1.40001
1.40001
1.40001
1.40001
1.40001
1.40001
1.40001
1.40001
1.40001
1.40001
1.40001
1.40001
1.40001
1.40001
1.40001
1.41032
3.98849
5.49809
5.3464
5.3415
5.32978
1.40001
1.40001
1.40001
1.40001
1.40001
1.40001
1.40001
1.40001
1.40001
1.40001
1.40001
1.40001
1.40001
1.40001
1.40001
1.40001
1.40001
1.40001
1.40017
3.62499
5.33454
5.29137
5.25715
5.22373
1.40001
1.40001
1.40001
1.40001
1.40001
1.40001
1.40001
1.40001
1.40001
1.40001
1.40001
1.40001
1.40001
1.40001
1.40001
1.40001
1.40001
1.40001
1.40001
3.2363
5.22179
5.2987
5.22968
5.18987
1.40001
1.40001
1.40001
1.40001
1.40001
1.40001
1.40001
1.40001
1.40001
1.40001
1.40001
1.40001
1.40001
1.40001
1.40001
1.40001
1.40001
1.40001
1.40001
2.904
5.15812
5.32982
5.24746
5.20267
1.40001
1.40001
1.40001
1.40001
1.40001
1.40001
1.40001
1.40001
1.40001
1.40001
1.40001
1.40001
1.40001
1.40001
1.40001
1.40001
1.40001
1.40001
1.40001
2.57591
5.09561
5.38027
5.28192
5.2328
1.40001
1.40001
1.40001
1.40001
1.40001
1.40001
1.40001
1.40001
1.40001
1.40001
1.40001
1.40001
1.40001
1.40001
1.40001
1.40001
1.40001
1.40001
1.40001
2.28492
5.01098
5.43662
5.32319
5.26624
1.40001
1.40001
1.40001
1.40001
1.40001
1.40001
1.40001
1.40001
1.40001
1.40001
1.40001
1.40001
1.40001
1.40001
1.40001
1.40001
1.40001
1.40001
1.40001
2.04647
4.90415
5.46928
5.34835
5.29052
1.40001
1.40001
1.40001
1.40001
1.40001
1.40001
1.40001
1.40001
1.40001
1.40001
1.40001
1.40001
1.40001
1.40001
1.40001
1.40001
1.40001
1.40001
1.40001
1.87654
4.78799
5.47573
5.35816
5.30279
1.40001
1.40001
1.40001
1.40001
1.40001
1.40001
1.40001
1.40001
1.40001
1.40001
1.40001
1.40001
1.40001
1.40001
1.40001
1.40001
1.40001
1.40001
1.40001
1.7686
4.67168
5.46096
5.35153
5.29993
1.40001
1.40001
1.40001
1.40001
1.40001
1.40001
1.40001
1.40001
1.40001
1.40001
1.40001
1.40001
1.40001
1.40001
1.40001
1.40001
1.40001
1.40001
1.40001
1.69709
4.58038
5.44747
5.3505
5.30139
1.40001
1.40001
1.40001
1.40001
1.40001
1.40001
1.40001
1.40001
1.40001
1.40001
1.40001
1.40001
1.40001
1.40001
1.40001
1.40001
1.40001
1.40001
1.40001
1.649
4.51528
5.43917
5.34928
5.30122
1.40001
1.40001
1.40001
1.40001
1.40001
1.40001
1.40001
1.40001
1.40001
1.40001
1.40001
1.40001
1.40001
1.40001
1.40001
1.40001
1.40001
1.40001
1.40001
1.61798
4.47297
5.43756
5.34976
5.30175
1.40001
1.40001
1.40001
1.40001
1.40001
1.40001
1.40001
1.40001
1.40001
1.40001
1.40001
1.40001
1.40001
1.40001
1.40001
1.40001
1.40001
1.40001
1.40001
1.60001
4.44708
5.43628
5.35025
5.3032
1.40001
1.40001
1.40001
1.40001
1.40001
1.40001
1.40001
1.40001
1.40001
1.40001
1.40001
1.40001
1.40001
1.40001
1.40001
1.40001
1.40001
1.40001
1.40001
1.59447
4.43642
5.43642
5.35334
5.3068
1.60219
1.67089
1.8294
1.96202
2.01237
2.025
2.01686
2.00339
1.98658
1.97117
1.9592
1.95304
1.94548
1.93776
1.93002
1.924
1.92494
1.93212
1.94689
1.96439
1.98707
2.0136
2.04283
2.0721
2.10006
2.12631
2.15442
2.18681
2.22314
2.26197
2.29968
2.33241
2.35826
2.3792
2.39756
2.41439
2.43014
2.44508
2.46021
2.47697
2.49562
2.51447
2.53062
2.54162
2.54671
2.54682
2.54322
2.5361
2.52607
2.51383
2.50117
2.4898
2.47992
2.47037
2.45982
2.44787
2.43419
2.41795
2.39867
2.37739
2.35555
2.33372
2.31159
2.28837
2.26462
2.24253
2.22385
2.20914
2.19629
2.18128
2.16272
2.14318
2.12455
2.10753
2.091
2.07312
2.05367
2.03169
2.00459
1.97551
1.95244
1.93526
1.92083
1.91424
1.91076
1.90048
1.88521
1.8644
1.83629
1.81147
1.79641
1.78542
1.77639
1.765
1.75141
1.72409
2.30362
2.29362
2.1184
2.08518
2.06834
2.04108
2.00895
1.98087
1.96092
1.948
1.94268
1.94443
1.94267
1.93754
1.93129
1.92749
1.92986
1.93873
1.95119
1.96512
1.98217
2.00376
2.03063
2.06202
2.09586
2.12984
2.16116
2.19004
2.21973
2.25339
2.29138
2.3302
2.36413
2.3897
2.40868
2.42661
2.44711
2.469
2.48809
2.50144
2.51122
2.52198
2.53479
2.54674
2.55379
2.55522
2.55373
2.55113
2.54696
2.53973
2.52942
2.51814
2.50769
2.49805
2.48799
2.47657
2.46336
2.4476
2.42754
2.40354
2.3783
2.35475
2.33462
2.31599
2.29531
2.27198
2.24912
2.22826
2.20941
2.19007
2.17077
2.14959
2.12721
2.10433
2.0811
2.06082
2.0443
2.02689
2.0075
1.98867
1.96647
1.94128
1.9197
1.90547
1.89362
1.88665
1.87786
1.86291
1.84406
1.81893
1.79462
1.77962
1.76968
1.76278
1.75625
1.73703
2.74711
2.67853
2.30309
2.17372
2.10737
2.04354
1.99521
1.96811
1.96181
1.95871
1.95678
1.9674
1.97628
1.97737
1.9733
1.96862
1.96745
1.97219
1.98446
2.00337
2.02669
2.0502
2.07137
2.09515
2.12707
2.1687
2.21581
2.25991
2.29581
2.32484
2.35394
2.38958
2.43148
2.47206
2.50167
2.52005
2.53718
2.56024
2.58891
2.61564
2.6328
2.64136
2.64764
2.65505
2.66163
2.66307
2.65797
2.65009
2.64319
2.63714
2.62926
2.61799
2.60493
2.59211
2.57955
2.56661
2.55283
2.53812
2.51955
2.49454
2.4653
2.43361
2.40611
2.38386
2.36654
2.35092
2.33157
2.31023
2.28792
2.26586
2.24413
2.2222
2.19988
2.17507
2.14422
2.10663
2.06742
2.03988
2.02447
2.01549
2.00744
1.99359
1.97453
1.94363
1.90712
1.88472
1.87323
1.86837
1.8645
1.85412
1.83629
1.80683
1.78215
1.77187
1.77073
1.76425
2.98877
2.96635
2.60046
2.45484
2.36623
2.23794
2.1296
2.07099
2.04517
2.03854
2.0233
2.01482
2.01187
2.01131
2.00984
2.00645
2.00275
2.00148
2.00908
2.03138
2.06804
2.11051
2.1498
2.18025
2.20829
2.24418
2.29409
2.35609
2.41648
2.46089
2.4896
2.51537
2.54891
2.5944
2.64299
2.67473
2.68992
2.70149
2.71797
2.74152
2.76384
2.77558
2.77983
2.78333
2.78909
2.79514
2.79561
2.78903
2.78086
2.77382
2.76663
2.75684
2.74456
2.73179
2.71568
2.69601
2.67499
2.65415
2.63304
2.61036
2.58589
2.55707
2.5236
2.49263
2.46937
2.4486
2.42764
2.40604
2.38347
2.35941
2.33382
2.30785
2.28409
2.26182
2.23709
2.20614
2.16834
2.13334
2.11056
2.09499
2.08105
2.06765
2.0517
2.02819
1.99435
1.95871
1.93901
1.92903
1.92096
1.91279
1.8999
1.87651
1.84068
1.81401
1.80547
1.79239
3.15767
3.16264
2.86094
2.68261
2.62136
2.4871
2.36318
2.2968
2.22385
2.18452
2.15441
2.10993
2.08181
2.0666
2.06573
2.07623
2.09162
2.10538
2.1164
2.13181
2.16036
2.20924
2.27369
2.33317
2.3758
2.40993
2.44803
2.49938
2.56496
2.62881
2.67172
2.69629
2.71723
2.74541
2.78886
2.83565
2.86283
2.87709
2.89009
2.90707
2.93015
2.94923
2.95707
2.95954
2.96131
2.96494
2.96625
2.95691
2.93991
2.92502
2.91553
2.91011
2.90061
2.88394
2.86336
2.83952
2.81412
2.79092
2.76839
2.74528
2.72055
2.69266
2.65974
2.62452
2.59341
2.56738
2.54364
2.52002
2.49556
2.46955
2.44182
2.41228
2.38188
2.3523
2.32397
2.29566
2.26544
2.23407
2.20834
2.18889
2.17028
2.15041
2.12902
2.1059
2.07906
2.04709
2.01876
2.00313
1.99096
1.97832
1.96381
1.94437
1.9136
1.87974
1.86495
1.84661
3.29923
3.27136
2.99729
2.81158
2.80512
2.76799
2.72671
2.71669
2.60676
2.46577
2.38478
2.32345
2.27651
2.24785
2.23155
2.2299
2.24516
2.27592
2.30236
2.31584
2.32969
2.35932
2.41442
2.48302
2.5347
2.56774
2.59619
2.63154
2.68364
2.74952
2.80305
2.83274
2.85591
2.88371
2.92274
2.97073
2.99319
2.99731
3.00037
3.01301
3.0402
3.05887
3.05841
3.0524
3.04884
3.05047
3.04606
3.03136
3.00697
2.98424
2.97151
2.96279
2.95021
2.93517
2.91851
2.89834
2.87394
2.84681
2.82184
2.80026
2.77825
2.752
2.71988
2.68484
2.65487
2.63135
2.61032
2.58948
2.56716
2.54179
2.5122
2.4796
2.44908
2.42463
2.40461
2.38519
2.36227
2.3314
2.29705
2.27155
2.25173
2.23194
2.21184
2.19134
2.16922
2.14217
2.10782
2.07989
2.06541
2.05255
2.03833
2.02098
1.99644
1.96223
1.93438
1.90967
3.40721
3.35125
3.12425
2.92867
2.96425
3.03963
3.12629
3.17826
3.06716
2.86823
2.70991
2.6114
2.55345
2.51822
2.48133
2.45886
2.45753
2.48028
2.50434
2.50879
2.51379
2.52914
2.56251
2.61814
2.6663
2.69233
2.71548
2.74457
2.78611
2.84085
2.88856
2.91066
2.92585
2.94127
2.96197
2.99568
3.01973
3.02787
3.03494
3.05052
3.07096
3.07717
3.07499
3.06769
3.06544
3.06721
3.06056
3.04833
3.03641
3.02432
3.00675
2.99028
2.97729
2.96499
2.95202
2.93562
2.91255
2.88271
2.85439
2.83164
2.80956
2.78608
2.76017
2.73087
2.70192
2.68027
2.66257
2.64417
2.624
2.60025
2.56974
2.53369
2.5045
2.48743
2.4741
2.46024
2.44324
2.41596
2.37424
2.33618
2.31329
2.29539
2.27792
2.26104
2.24425
2.22477
2.19631
2.15882
2.13214
2.1157
2.09969
2.08234
2.06207
2.03704
2.00477
1.96709
3.49453
3.46298
3.30632
3.17381
3.25757
3.38949
3.47333
3.52049
3.44472
3.25094
3.06486
2.91947
2.8047
2.74391
2.70107
2.66334
2.65096
2.65419
2.66772
2.67256
2.6686
2.66662
2.6726
2.69702
2.72987
2.74908
2.76571
2.78677
2.81334
2.84881
2.88736
2.90779
2.92223
2.93653
2.95673
2.98832
3.02079
3.03549
3.04327
3.05279
3.06851
3.08165
3.083
3.07992
3.07791
3.07716
3.07379
3.07271
3.07417
3.06473
3.04252
3.01597
3.00251
2.9947
2.98809
2.97156
2.94627
2.91293
2.88143
2.8611
2.84255
2.82222
2.7999
2.77281
2.74027
2.7164
2.69912
2.68179
2.66417
2.64331
2.61576
2.58139
2.55027
2.53049
2.51414
2.49669
2.47548
2.44898
2.41176
2.36817
2.33922
2.32182
2.30722
2.2944
2.28277
2.26961
2.25
2.21381
2.17243
2.14965
2.13499
2.12065
2.10511
2.08679
2.06378
2.02548
3.60785
3.66537
3.60202
3.49288
3.56359
3.65163
3.66912
3.70078
3.66166
3.52251
3.35805
3.21006
3.04668
2.92931
2.88096
2.83843
2.78981
2.76286
2.76372
2.77329
2.76502
2.7463
2.73414
2.73798
2.75769
2.77424
2.78489
2.79796
2.81466
2.83923
2.87024
2.89658
2.91569
2.93194
2.95043
2.97723
3.01159
3.03302
3.04193
3.04994
3.06352
3.08046
3.09164
3.09375
3.08841
3.08056
3.07776
3.08201
3.08837
3.08012
3.05984
3.02854
3.0104
3.00291
2.99729
2.98223
2.95936
2.92432
2.88985
2.87059
2.85432
2.83854
2.82027
2.79391
2.75737
2.72639
2.70781
2.69257
2.67591
2.6571
2.63399
2.60241
2.56095
2.52394
2.50238
2.4855
2.46843
2.44871
2.42364
2.38872
2.35082
2.33032
2.32078
2.31447
2.30375
2.29007
2.27153
2.24017
2.1955
2.16417
2.15103
2.13975
2.12781
2.11447
2.099
2.07478
3.85636
3.96864
3.90204
3.7902
3.80781
3.82581
3.80935
3.84611
3.8439
3.73365
3.56642
3.42172
3.26492
3.10951
3.03074
2.98732
2.92526
2.85862
2.83408
2.83595
2.82986
2.80805
2.7861
2.78013
2.78775
2.80161
2.80769
2.813
2.82265
2.83932
2.86308
2.88749
2.90696
2.92284
2.93863
2.96095
2.9903
3.01774
3.03185
3.0386
3.05027
3.06873
3.08672
3.0942
3.08885
3.0743
3.0679
3.06985
3.07318
3.06639
3.05193
3.02577
3.00171
2.99239
2.98447
2.97009
2.95006
2.91904
2.88349
2.86276
2.84812
2.83364
2.81614
2.79381
2.76327
2.72623
2.69646
2.67652
2.66086
2.64641
2.62943
2.60454
2.5638
2.51934
2.49074
2.47206
2.45501
2.43815
2.42207
2.40351
2.37866
2.34796
2.32173
2.30615
2.29389
2.28102
2.26641
2.24664
2.21934
2.18694
2.16138
2.14919
2.14048
2.12956
2.11379
2.12278
4.18813
4.21323
4.1281
4.02628
3.967
3.95005
3.95181
4.00441
4.01723
3.90833
3.73008
3.57283
3.44707
3.30265
3.16739
3.10042
3.04985
2.98101
2.91653
2.8904
2.88538
2.87112
2.85043
2.83621
2.83286
2.838
2.8403
2.84006
2.84257
2.8496
2.86328
2.87877
2.89458
2.91031
2.92284
2.93808
2.96006
2.98564
3.00783
3.01873
3.02905
3.04714
3.06811
3.07775
3.07399
3.05967
3.04838
3.04597
3.04653
3.04179
3.03151
3.01159
2.98372
2.97091
2.96147
2.94862
2.9325
2.90861
2.87278
2.84661
2.83354
2.81988
2.80386
2.78587
2.76145
2.72417
2.68615
2.66306
2.64611
2.63026
2.61479
2.59672
2.56807
2.52604
2.48627
2.46262
2.4476
2.43553
2.4249
2.41398
2.39988
2.37465
2.33568
2.30625
2.29002
2.27572
2.26046
2.24699
2.23405
2.21621
2.18815
2.16054
2.14272
2.12975
2.12553
2.20279
4.44578
4.41435
4.31783
4.18563
4.07913
4.07828
4.11631
4.16646
4.16008
4.04612
3.88012
3.72518
3.60408
3.48259
3.33433
3.20764
3.14791
3.10135
3.03739
2.96902
2.93274
2.9283
2.92193
2.90667
2.88864
2.87709
2.87378
2.87352
2.8691
2.86698
2.86894
2.87407
2.88045
2.89231
2.9058
2.91702
2.92908
2.94686
2.97122
2.98903
2.99923
3.01371
3.03475
3.04943
3.04882
3.03707
3.02402
3.01929
3.02005
3.01894
3.01151
2.9967
2.97067
2.95269
2.9438
2.9333
2.91959
2.90076
2.87051
2.83816
2.82222
2.80826
2.79366
2.77814
2.75885
2.73137
2.69403
2.65953
2.63737
2.62013
2.6037
2.58727
2.56986
2.54563
2.51152
2.47605
2.45603
2.44488
2.43654
2.42787
2.41606
2.39722
2.36195
2.31799
2.29071
2.27553
2.2647
2.25778
2.25006
2.23822
2.21645
2.17828
2.14624
2.1429
2.16567
2.37171
4.6445
4.5861
4.46229
4.30604
4.20705
4.23765
4.28222
4.29618
4.26887
4.17717
4.03908
3.89824
3.76725
3.63684
3.49498
3.35222
3.26021
3.21071
3.15513
3.07716
3.00957
2.98833
2.98945
2.97669
2.95137
2.92031
2.907
2.90535
2.89837
2.88711
2.87775
2.8741
2.87371
2.87913
2.88942
2.90033
2.90814
2.91555
2.93292
2.95425
2.96603
2.9789
2.99818
3.0188
3.02428
3.01782
3.00533
3.00034
3.00229
3.00666
3.0035
2.99166
2.96862
2.94592
2.93692
2.92908
2.91683
2.90122
2.88061
2.8489
2.82111
2.80662
2.79305
2.77712
2.75978
2.74102
2.71574
2.67983
2.64506
2.62355
2.60744
2.59354
2.58073
2.56548
2.54454
2.51562
2.48531
2.46229
2.44852
2.43688
2.42436
2.40782
2.38334
2.34831
2.31032
2.28794
2.27766
2.27063
2.26434
2.25344
2.23475
2.20035
2.17834
2.20322
2.31443
2.61287
4.82845
4.74003
4.59361
4.43708
4.37501
4.40284
4.41684
4.39569
4.37713
4.32048
4.20041
4.06168
3.92327
3.78164
3.64615
3.52028
3.4069
3.3304
3.27114
3.19399
3.11103
3.07145
3.05812
3.04033
3.00825
2.97026
2.95023
2.94094
2.9304
2.91167
2.89436
2.88462
2.87815
2.87643
2.8795
2.88443
2.89066
2.89674
2.90933
2.92907
2.93988
2.94959
2.96711
2.98981
3.00575
3.00628
2.99657
2.99067
2.99353
3.00224
3.00439
2.9946
2.97347
2.94679
2.93488
2.92942
2.92362
2.91353
2.8984
2.87366
2.83879
2.81355
2.79907
2.78512
2.77161
2.75702
2.73856
2.71023
2.6687
2.63905
2.62439
2.61173
2.59859
2.58352
2.56682
2.5461
2.51671
2.48264
2.45902
2.44201
2.4258
2.41007
2.39436
2.37588
2.35086
2.32103
2.29606
2.28149
2.26854
2.25691
2.24353
2.23663
2.26883
2.39665
2.6211
2.82781
4.98897
4.88478
4.72804
4.59796
4.5617
4.5578
4.53677
4.49649
4.49871
4.46698
4.34688
4.19682
4.06217
3.93144
3.79889
3.68766
3.57104
3.45947
3.38513
3.31615
3.23388
3.16343
3.12775
3.10222
3.06728
3.0316
3.00321
2.98142
2.96145
2.94166
2.92578
2.91281
2.90007
2.88596
2.8791
2.87804
2.88017
2.88699
2.90113
2.91523
2.91993
2.92103
2.93274
2.95568
2.97814
2.98697
2.98205
2.97613
2.98183
2.99332
3.00095
2.99527
2.97657
2.94821
2.93213
2.93057
2.93395
2.92484
2.91081
2.89268
2.86388
2.82733
2.80652
2.79704
2.78676
2.77226
2.75415
2.72682
2.69577
2.66417
2.63163
2.60914
2.5967
2.58874
2.5766
2.5606
2.53614
2.49971
2.46239
2.44066
2.42666
2.41521
2.40397
2.39211
2.3779
2.35464
2.32001
2.29217
2.27612
2.26344
2.26975
2.32594
2.48241
2.73264
2.92537
2.9455
5.1521
5.02705
4.87628
4.78134
4.74052
4.70006
4.647
4.61797
4.63908
4.62081
4.48811
4.32051
4.19186
4.08456
3.9563
3.83464
3.72027
3.59511
3.50135
3.43794
3.36502
3.27405
3.20203
3.16937
3.14215
3.10865
3.07101
3.02548
2.99423
2.98037
2.9701
2.95455
2.93741
2.91384
2.89049
2.88142
2.87836
2.88256
2.89206
2.89404
2.89364
2.89048
2.89183
2.9091
2.9367
2.94916
2.94758
2.94132
2.94568
2.95991
2.97211
2.97029
2.95565
2.93423
2.91603
2.908
2.90708
2.90739
2.90052
2.88525
2.86137
2.82915
2.80428
2.7853
2.76705
2.75091
2.73519
2.71937
2.69737
2.66814
2.63322
2.60732
2.59061
2.57648
2.56242
2.54835
2.53137
2.50643
2.46858
2.43774
2.42522
2.41665
2.40904
2.40019
2.39004
2.37634
2.34869
2.30587
2.28575
2.29202
2.36185
2.54237
2.78344
3.00007
3.04178
3.00265
5.25685
5.14938
5.05355
4.97415
4.89507
4.81685
4.77348
4.76961
4.78483
4.74675
4.60251
4.44957
4.33428
4.23349
4.10855
3.96418
3.8497
3.74011
3.63183
3.55552
3.48711
3.39608
3.29662
3.243
3.21849
3.18736
3.14195
3.08012
3.03519
3.01811
3.00883
2.99408
2.97336
2.94325
2.90751
2.88763
2.87846
2.87804
2.87377
2.86646
2.85917
2.8511
2.84268
2.84807
2.87095
2.88968
2.89579
2.88984
2.88382
2.89559
2.91308
2.91793
2.91099
2.89802
2.8826
2.86895
2.86703
2.86532
2.85705
2.84523
2.82793
2.80343
2.77985
2.75833
2.73958
2.72269
2.70646
2.69026
2.67298
2.65164
2.62709
2.59935
2.56897
2.55182
2.54106
2.52929
2.5168
2.50066
2.47775
2.44846
2.42532
2.41613
2.41307
2.41177
2.40279
2.39006
2.36468
2.32766
2.32926
2.40074
2.60462
2.82133
3.01334
3.07659
3.07097
3.02087
5.32691
5.2344
5.1613
5.09524
5.0011
4.93004
4.92527
4.90339
4.87714
4.83193
4.71785
4.59378
4.46945
4.35557
4.23436
4.08712
3.97157
3.88541
3.77951
3.67419
3.59503
3.51383
3.42006
3.34033
3.29294
3.25774
3.21359
3.15536
3.09931
3.06429
3.04159
3.02363
2.99991
2.96739
2.93219
2.90423
2.88126
2.8618
2.8397
2.81993
2.80656
2.79434
2.78126
2.77851
2.79125
2.8097
2.81999
2.82153
2.81101
2.81389
2.83336
2.83879
2.83569
2.84021
2.83691
2.82038
2.81283
2.80497
2.79433
2.7851
2.77218
2.75674
2.74128
2.72397
2.7046
2.68042
2.66044
2.65019
2.64083
2.62826
2.61107
2.58897
2.55967
2.53104
2.51952
2.51205
2.50737
2.49848
2.48738
2.47154
2.44516
2.4167
2.40253
2.39407
2.38784
2.38244
2.37256
2.3884
2.47861
2.70414
2.91853
3.0257
3.0782
3.08635
3.06779
3.02962
5.28217
5.23112
5.20854
5.15152
5.05485
5.00471
5.00235
4.97616
4.93658
4.90166
4.82738
4.71775
4.58112
4.45331
4.33981
4.21165
4.08868
4.00301
3.91054
3.79414
3.68431
3.61051
3.53862
3.46145
3.37953
3.3097
3.26157
3.21519
3.16784
3.12624
3.07821
3.02701
2.99527
2.97081
2.94947
2.92317
2.89088
2.84844
2.80523
2.77681
2.75904
2.74126
2.71901
2.70423
2.70536
2.71547
2.7277
2.73461
2.72603
2.72113
2.7422
2.75004
2.75058
2.76493
2.77324
2.76225
2.75316
2.74282
2.72664
2.71602
2.71128
2.70955
2.70459
2.6922
2.67247
2.64267
2.61778
2.61001
2.60561
2.60564
2.60018
2.58548
2.55617
2.52254
2.50733
2.5033
2.50087
2.50056
2.49762
2.48582
2.46307
2.42667
2.39859
2.38701
2.38394
2.38887
2.43197
2.56137
2.80298
3.04534
3.10892
3.09752
3.07628
3.06742
3.07295
3.05015
5.19055
5.16536
5.14428
5.08983
5.02596
5.01052
5.03136
4.99492
4.9501
4.92186
4.86443
4.75991
4.62384
4.50646
4.42074
4.32564
4.20811
4.09909
4.01027
3.89206
3.76856
3.68703
3.6354
3.56667
3.47095
3.3669
3.2874
3.24982
3.22201
3.17682
3.11603
3.04178
2.9885
2.95346
2.92332
2.89387
2.85684
2.80777
2.76746
2.74346
2.72227
2.69719
2.66565
2.63903
2.63107
2.63104
2.6345
2.64325
2.6429
2.63549
2.6546
2.66593
2.66584
2.68379
2.69844
2.69382
2.69132
2.68313
2.66422
2.65024
2.64661
2.64893
2.6557
2.6519
2.63865
2.61466
2.58302
2.56791
2.56306
2.56314
2.56568
2.56106
2.55163
2.53006
2.50052
2.48532
2.47925
2.47558
2.47207
2.46456
2.45218
2.42783
2.40075
2.39252
2.39723
2.44724
2.60066
2.83392
3.08351
3.16713
3.16522
3.11447
3.06302
3.04713
3.04206
3.0252
5.14877
5.11485
5.07598
5.02419
4.98511
4.97927
4.96975
4.92124
4.88638
4.86225
4.82332
4.74367
4.62922
4.52118
4.43531
4.34788
4.23943
4.12378
4.03088
3.95101
3.85584
3.75763
3.65694
3.57546
3.50656
3.42454
3.34959
3.28012
3.21046
3.14601
3.08792
3.04072
2.99724
2.9545
2.90714
2.85263
2.79469
2.75328
2.72879
2.70744
2.68361
2.65312
2.61443
2.58177
2.56839
2.56072
2.55306
2.55565
2.55792
2.55531
2.57075
2.58431
2.57897
2.59047
2.60448
2.60874
2.61613
2.61719
2.60487
2.58604
2.5775
2.57912
2.58878
2.59574
2.59143
2.57884
2.55214
2.52457
2.51604
2.5137
2.51999
2.52805
2.5251
2.51319
2.48712
2.45627
2.44359
2.43806
2.43513
2.43727
2.43699
2.43108
2.42337
2.4328
2.48514
2.64255
2.85595
3.04732
3.16753
3.18525
3.16952
3.11654
3.05519
3.02421
3.01438
2.9954
5.14975
5.09826
5.04417
4.99115
4.95577
4.92903
4.8901
4.84631
4.82349
4.81119
4.77545
4.6947
4.58791
4.49169
4.41804
4.34011
4.24002
4.12752
4.03286
3.94827
3.86217
3.7722
3.67073
3.57349
3.48965
3.41834
3.35478
3.28762
3.20974
3.13007
3.06369
3.01519
2.97696
2.93604
2.88295
2.81605
2.75672
2.72165
2.69605
2.67063
2.64129
2.60473
2.56154
2.53001
2.51523
2.50115
2.48588
2.47871
2.4749
2.47373
2.48503
2.49845
2.49391
2.4921
2.50178
2.51454
2.53285
2.54745
2.54622
2.5312
2.51217
2.50825
2.51326
2.52464
2.53235
2.52856
2.51502
2.4887
2.46942
2.46445
2.46529
2.47553
2.48153
2.47601
2.46221
2.43344
2.411
2.40637
2.40563
2.4121
2.43015
2.45561
2.49285
2.5609
2.70079
2.90422
3.03471
3.12384
3.15668
3.14988
3.12796
3.09703
3.05495
3.0047
2.98284
2.96032
5.17347
5.1141
5.05686
5.00308
4.95624
4.90347
4.85176
4.81031
4.78613
4.76453
4.70838
4.62304
4.53492
4.46028
4.4002
4.31869
4.2123
4.10589
4.02342
3.94703
3.86059
3.76738
3.66789
3.57491
3.49742
3.42853
3.35944
3.28383
3.20085
3.12182
3.05966
3.0092
2.96108
2.90981
2.85021
2.78759
2.73966
2.70358
2.67083
2.63729
2.60003
2.5592
2.52228
2.49932
2.4794
2.45611
2.43244
2.41183
2.40078
2.39699
2.40233
2.4136
2.41443
2.40643
2.40529
2.41801
2.44158
2.46984
2.48108
2.47623
2.4576
2.44204
2.442
2.44973
2.46321
2.47101
2.46795
2.45465
2.43095
2.41712
2.41368
2.41586
2.42564
2.42908
2.42341
2.41236
2.39632
2.39286
2.39698
2.40865
2.45056
2.53362
2.63222
2.74146
2.91861
3.04919
3.09976
3.10632
3.10371
3.09224
3.07602
3.06083
3.03908
2.99654
2.95449
2.92326
5.20316
5.14353
5.0867
5.03156
4.97329
4.91479
4.86314
4.82383
4.7866
4.73855
4.66852
4.59121
4.51739
4.45442
4.38364
4.28741
4.18292
4.09233
4.02044
3.94687
3.85859
3.75976
3.66454
3.58105
3.50715
3.43561
3.36095
3.28061
3.19843
3.12552
3.06496
3.0103
2.95524
2.8964
2.83578
2.7804
2.73337
2.69138
2.65066
2.60984
2.56935
2.53321
2.50575
2.48085
2.45252
2.4228
2.39242
2.36014
2.34192
2.33504
2.33512
2.34103
2.34336
2.33838
2.3279
2.32973
2.34863
2.38101
2.40958
2.41733
2.41062
2.3901
2.38152
2.38652
2.3997
2.41605
2.42123
2.41699
2.40278
2.38111
2.37224
2.36975
2.3742
2.38715
2.3961
2.40176
2.39788
2.39507
2.40956
2.46386
2.54789
2.66153
2.75299
2.86505
3.0237
3.09418
3.09121
3.07545
3.06294
3.04994
3.03676
3.02277
3.0049
2.97487
2.93391
2.893
5.22863
5.1686
5.10934
5.05014
4.98938
4.93187
4.88086
4.83741
4.78626
4.72626
4.65893
4.59089
4.52721
4.46116
4.37439
4.2754
4.18075
4.10137
4.033
3.95236
3.85907
3.76202
3.67752
3.59948
3.52455
3.44942
3.37012
3.28829
3.21077
3.14224
3.07951
3.01851
2.95744
2.89553
2.83526
2.78053
2.73211
2.68675
2.64144
2.5961
2.55406
2.51879
2.48848
2.45729
2.4247
2.39327
2.36039
2.3278
2.30359
2.28735
2.28059
2.27897
2.27977
2.27886
2.27215
2.26517
2.27382
2.29785
2.33052
2.3561
2.36377
2.35657
2.34039
2.33966
2.3492
2.36535
2.38028
2.38269
2.37691
2.36043
2.34789
2.34614
2.35005
2.36771
2.3895
2.40244
2.43314
2.47676
2.54146
2.60499
2.68025
2.76052
2.82068
2.93573
3.05193
3.07815
3.07588
3.05902
3.03821
3.02147
3.00613
2.98981
2.9724
2.95192
2.92758
2.88408
5.24294
5.18434
5.1246
5.06409
5.00415
4.94832
4.89619
4.8438
4.78435
4.72267
4.66097
4.6025
4.54299
4.46713
4.37599
4.28333
4.20001
4.12903
4.05615
3.96898
3.87171
3.78369
3.70816
3.6306
3.55167
3.47081
3.3879
3.30791
3.23462
3.16678
3.10127
3.03576
2.96919
2.90351
2.84215
2.78695
2.7368
2.68922
2.64223
2.59498
2.54817
2.50526
2.46731
2.43148
2.39995
2.37036
2.34017
2.31298
2.28311
2.24846
2.2311
2.22452
2.22321
2.22736
2.23047
2.22658
2.22362
2.23428
2.25689
2.28638
2.31375
2.32374
2.31675
2.30935
2.31466
2.3249
2.33931
2.35163
2.35336
2.34755
2.33787
2.3391
2.34826
2.36984
2.40551
2.46521
2.5273
2.59948
2.66371
2.71128
2.77032
2.80724
2.86042
2.96178
3.04395
3.06211
3.06144
3.04661
3.02231
2.99951
2.98348
2.96984
2.95609
2.93948
2.91989
2.87783
5.24312
5.18759
5.12955
5.07111
5.01302
4.95797
4.90282
4.84409
4.78231
4.72194
4.66596
4.61184
4.54771
4.46803
4.3823
4.29893
4.22456
4.15709
4.07739
3.98611
3.89306
3.81796
3.74559
3.66685
3.58375
3.49696
3.41168
3.33371
3.2626
3.19473
3.12748
3.05889
2.98806
2.91779
2.85332
2.79649
2.74519
2.69683
2.6492
2.60041
2.54815
2.49524
2.44852
2.4107
2.38171
2.35533
2.33048
2.30383
2.26774
2.22493
2.19667
2.18618
2.18352
2.18832
2.19597
2.19755
2.1917
2.18736
2.19812
2.22014
2.25169
2.28341
2.29568
2.29275
2.29127
2.29667
2.30565
2.32129
2.33812
2.34603
2.35597
2.36973
2.39216
2.42755
2.48283
2.55015
2.6102
2.67647
2.72081
2.77022
2.81162
2.83469
2.88814
2.97484
3.03577
3.04753
3.04498
3.03204
3.01165
2.98949
2.97055
2.95656
2.94203
2.92416
2.90592
2.87142
5.24522
5.18993
5.13157
5.07355
5.01618
4.96012
4.90124
4.84003
4.77985
4.72349
4.67014
4.61199
4.54298
4.46692
4.3902
4.31866
4.25503
4.18112
4.09108
3.99709
3.91617
3.84542
3.77608
3.69785
3.61268
3.52267
3.43668
3.36062
3.29038
3.2221
3.15363
3.08288
3.00856
2.93387
2.86563
2.8067
2.7546
2.7059
2.65753
2.60641
2.55079
2.49307
2.44018
2.39995
2.37113
2.34612
2.3216
2.29375
2.25769
2.21665
2.18375
2.1643
2.15642
2.15554
2.15914
2.16129
2.15922
2.15154
2.1515
2.16618
2.1918
2.23045
2.25995
2.27064
2.2765
2.27777
2.28645
2.30489
2.33004
2.35981
2.39627
2.44096
2.48663
2.53337
2.59268
2.62815
2.6651
2.70923
2.75082
2.80031
2.82991
2.85069
2.90747
2.98324
3.02384
3.03358
3.03267
3.02361
3.0078
2.98876
2.96691
2.94455
2.92561
2.90864
2.89485
2.86872
5.2456
5.19155
5.13568
5.07986
5.02253
4.96362
4.90246
4.84188
4.7835
4.7276
4.66976
4.60435
4.53325
4.46225
4.3951
4.33242
4.26898
4.19199
4.10411
4.01735
3.93876
3.8686
3.7982
3.71974
3.63405
3.54454
3.46108
3.3854
3.31362
3.24361
3.17375
3.10131
3.02511
2.94951
2.88039
2.8187
2.76272
2.71116
2.66213
2.61161
2.55653
2.49845
2.44276
2.39715
2.36377
2.33758
2.3133
2.28588
2.25179
2.21231
2.17997
2.15636
2.13913
2.13152
2.12565
2.12208
2.12137
2.12039
2.11821
2.12731
2.14713