/*--------------------------------*- C++ -*----------------------------------*\
  =========                 |
  \\      /  F ield         | OpenFOAM: The Open Source CFD Toolbox
   \\    /   O peration     | Website:  https://openfoam.org
    \\  /    A nd           | Version:  7
     \\/     M anipulation  |
\*---------------------------------------------------------------------------*/
FoamFile
{
    version     2.0;
    format      ascii;
    class       volScalarField;
    location    "15";
    object      T;
}
// * * * * * * * * * * * * * * * * * * * * * * * * * * * * * * * * * * * * * //

dimensions      [0 0 0 1 0 0 0];

internalField   nonuniform List<scalar> 
4032
(
1
1
1
1
1
1
1
1
1
1
1
1.03898
2.31648
2.71339
2.72649
2.74199
2.75594
2.76877
2.78015
2.7901
2.79893
2.80626
2.81187
2.81572
1
1
1
1
1
1
1
1
1
1
1
1.00923
2.29787
2.71037
2.72428
2.73963
2.7537
2.7665
2.77778
2.78751
2.79594
2.80272
2.80765
2.81101
1
1
1
1
1
1
1
1
1
1
1
1.00022
2.25539
2.70584
2.72088
2.7358
2.74969
2.7621
2.77298
2.78233
2.79058
2.79743
2.80248
2.80622
1
1
1
1
1
1
1
1
1
1
1
1
2.18784
2.69721
2.71635
2.73082
2.74438
2.75615
2.76648
2.77535
2.78307
2.78915
2.79311
2.7956
1
1
1
1
1
1
1
1
1
1
1
1
2.09108
2.68062
2.71001
2.72411
2.73725
2.74811
2.75724
2.7646
2.77064
2.77531
2.77819
2.78158
1
1
1
1
1
1
1
1
1
1
1
1
1.95849
2.64991
2.69739
2.71279
2.7264
2.73675
2.74493
2.75137
2.75648
2.75954
2.75829
2.75261
1
1
1
1
1
1
1
1
1
1
1
1
1.78015
2.59469
2.67762
2.69783
2.71343
2.72375
2.73034
2.73407
2.73471
2.73038
2.72155
2.71354
1
1
1
1
1
1
1
1
1
1
1
1
1.52602
2.49413
2.64961
2.67682
2.69519
2.70632
2.71214
2.713
2.70906
2.70206
2.69603
2.7069
1
1
1
1
1
1
1
1
1
1
1
1
1.17963
2.36142
2.62878
2.64657
2.66599
2.67959
2.68606
2.68517
2.67665
2.65672
2.60819
2.51306
1
1
1
1
1
1
1
1
1
1
1
1
1.00909
2.24337
2.60911
2.61037
2.6261
2.64231
2.65081
2.64918
2.63743
2.60453
2.5496
2.40492
1
1
1
1
1
1
1
1
1
1
1
1
1
2.01333
2.57958
2.59591
2.60659
2.61202
2.61544
2.61105
2.59655
2.55931
2.49885
2.33039
1
1
1
1
1
1
1
1
1
1
1
1
0.999998
1.62492
2.47979
2.57653
2.58271
2.58531
2.58331
2.57399
2.55455
2.51759
2.45053
2.29528
1
1
1
1
1
1
1
1
1
1
1
1
0.999999
1.1256
2.31466
2.57655
2.56359
2.55986
2.55349
2.53901
2.51533
2.4785
2.40677
2.29576
1
1
1
1
1
1
1
1
1
1
1
1
1
1.00425
2.12714
2.51727
2.53114
2.53206
2.52424
2.50797
2.48193
2.4407
2.37368
2.29019
1
1
1
1
1
1
1
1
1
1
1
1
1
0.999974
1.68078
2.40595
2.50957
2.50893
2.50033
2.48185
2.45548
2.41175
2.35204
2.28408
1
1
1
1
1
1
1
1
1
1
1
1
1
0.999993
1.12988
2.22626
2.49167
2.48157
2.4721
2.45316
2.42752
2.38639
2.33491
2.27698
1
1
1
1
1
1
1
1
1
1
1
1
1
0.999999
1.00395
1.95447
2.41428
2.44826
2.43994
2.424
2.4
2.36535
2.32201
2.27318
1
1
1
1
1
1
1
1
1
1
1
1
1
1
0.999989
1.35432
2.25055
2.424
2.40731
2.39315
2.37233
2.34395
2.31262
2.28403
1
1
1
1
1
1
1
1
1
1
1
1
1
1
0.999996
1.03056
2.04083
2.37918
2.36328
2.35592
2.34149
2.32535
2.32108
2.32541
1
1
1
1
1
1
1
1
1
1
1
1
1
1
0.999999
1.00015
1.47754
2.22607
2.33993
2.32565
2.32745
2.33896
2.35849
2.37878
1
1
1
1
1
1
1
1
1
1
1
1
1
1
1
1
1.05835
1.99734
2.30791
2.31342
2.33481
2.37268
2.4031
2.40217
1
1
1
1
1
1
1
1
1
1
1
1
1
1
1
1
1.0007
1.41998
2.12882
2.3051
2.37006
2.41499
2.41738
2.40675
1
1
1
1
1
1
1
1
1
1
1
1
1
1
1
1
1
1.04651
1.88949
2.3316
2.41758
2.42699
2.40942
2.39616
1
1
1
1
1
1
1
1
1
1
1
1
1
1
1
1
1
1.00052
1.39225
2.34824
2.46274
2.42918
2.40532
2.39129
1
1
1
1
1
1
1
1
1
1
1
1
1
1
1
1
1
1
1.21738
2.43235
2.53428
2.47168
2.42669
2.40013
1
1
1
1
1
1
1
1
1
1
1
1
1
1
1
1
1
1
1.13411
2.40126
2.6039
2.53596
2.48487
2.45072
1
1
1
1
1
1
1
1
1
1
1
1
1
1
1
1
1
1
1.0078
2.29907
2.67419
2.62232
2.57712
2.53338
1
1
1
1
1
1
1
1
1
1
1
1
1
1
1
1
1
1
1.00006
2.18368
2.68272
2.66476
2.63768
2.60351
1
1
1
1
1
1
1
1
1
1
1
1
1
1
1
1
1
1
1
2.04307
2.66913
2.67856
2.66129
2.64339
1
1
1
1
1
1
1
1
1
1
1
1
1
1
1
1
1
1
1
1.90011
2.63335
2.68371
2.66691
2.65509
1
1
1
1
1
1
1
1
1
1
1
1
1
1
1
1
1
1
1
1.75506
2.59346
2.68056
2.66221
2.65295
1
1
1
1
1
1
1
1
1
1
1
1
1
1
1
1
1
1
1
1.61572
2.55814
2.67768
2.65673
2.6478
1
1
1
1
1
1
1
1
1
1
1
1
1
1
1
1
1
1
1
1.4856
2.52577
2.67872
2.65559
2.64543
1
1
1
1
1
1
1
1
1
1
1
1
1
1
1
1
1
1
1
1.3838
2.50078
2.68403
2.66038
2.64908
1
1
1
1
1
1
1
1
1
1
1
1
1
1
1
1
1
1
1
1.31479
2.47862
2.68921
2.66677
2.65513
1
1
1
1
1
1
1
1
1
1
1
1
1
1
1
1
1
1
1
1.26313
2.45601
2.69172
2.67124
2.65995
1
1
1
1
1
1
1
1
1
1
1
1
1
1
1
1
1
1
1
1.22534
2.43458
2.68997
2.67117
2.66068
1
1
1
1
1
1
1
1
1
1
1
1
1
1
1
1
1
1
1
1.19963
2.41752
2.68732
2.66995
2.66029
1
1
1
1
1
1
1
1
1
1
1
1
1
1
1
1
1
1
1
1.1847
2.40794
2.68604
2.66936
2.66027
1
1
1
1
1
1
1
1
1
1
1
1
1
1
1
1
1
1
1
1.1813
2.40645
2.68645
2.67024
2.66115
1.90492
2.11753
2.3608
2.52283
2.6279
2.69463
2.72863
2.73879
2.73559
2.72764
2.71817
2.70989
2.70003
2.69121
2.68327
2.67672
2.67479
2.67548
2.68029
2.68733
2.69652
2.70611
2.71513
2.72241
2.72811
2.73301
2.73835
2.74503
2.75289
2.76077
2.76701
2.77035
2.77102
2.76953
2.76613
2.76168
2.75653
2.75085
2.74514
2.74001
2.7357
2.73187
2.72755
2.72166
2.7137
2.70386
2.69287
2.6813
2.66895
2.65596
2.64302
2.63089
2.61985
2.60963
2.59981
2.59011
2.58021
2.56962
2.55803
2.54578
2.53338
2.52107
2.50875
2.49616
2.48368
2.47219
2.46237
2.45442
2.44737
2.43915
2.42923
2.41912
2.41007
2.40235
2.39479
2.3863
2.37693
2.36647
2.35392
2.34003
2.32741
2.31628
2.30684
2.30149
2.29723
2.28929
2.27986
2.26807
2.252
2.23638
2.22593
2.21799
2.21047
2.20054
2.18925
2.1674
2.14186
2.30691
2.40969
2.51664
2.6095
2.67434
2.70779
2.71646
2.7141
2.70875
2.70392
2.70088
2.69473
2.68762
2.6805
2.67532
2.67346
2.6742
2.67705
2.6811
2.68627
2.69253
2.69993
2.70814
2.71648
2.72386
2.72895
2.73199
2.73441
2.73771
2.7424
2.74689
2.74897
2.74722
2.74164
2.73542
2.73063
2.72659
2.72141
2.71383
2.70483
2.69654
2.68946
2.68244
2.67395
2.66361
2.65261
2.64228
2.63215
2.62148
2.61005
2.59851
2.58765
2.57773
2.56846
2.55946
2.5504
2.54084
2.52998
2.51776
2.50506
2.49302
2.48254
2.47296
2.46277
2.45176
2.44124
2.43177
2.42321
2.41433
2.40535
2.3956
2.38555
2.37541
2.36492
2.35542
2.34782
2.34069
2.33301
2.32505
2.31438
2.30113
2.28881
2.2794
2.27135
2.26679
2.26153
2.25346
2.24265
2.22747
2.21224
2.20181
2.19437
2.18786
2.18084
2.16399
2.17573
2.26797
2.26792
2.35393
2.47201
2.56696
2.6275
2.66015
2.67918
2.68701
2.6896
2.69484
2.69707
2.69422
2.68793
2.68162
2.67654
2.67308
2.67228
2.67369
2.67575
2.67626
2.67418
2.67213
2.67303
2.6773
2.68283
2.68569
2.68395
2.67799
2.67214
2.66958
2.66942
2.66888
2.6637
2.6536
2.64372
2.63716
2.63317
2.62887
2.62131
2.61054
2.59936
2.58936
2.57982
2.56928
2.55652
2.54449
2.53431
2.52541
2.5164
2.50652
2.49639
2.4869
2.47826
2.47032
2.46289
2.45588
2.44809
2.43834
2.42714
2.4149
2.40426
2.39576
2.38932
2.38376
2.37704
2.36986
2.3625
2.35551
2.34876
2.34181
2.33427
2.32522
2.31362
2.29935
2.2845
2.27478
2.27014
2.26821
2.26683
2.2631
2.25628
2.24289
2.22676
2.21724
2.21174
2.20876
2.20579
2.19948
2.18946
2.17371
2.16024
2.15281
2.14962
2.14212
2.17908
2.23183
2.17514
2.22657
2.33087
2.42667
2.50583
2.56788
2.61429
2.64599
2.65383
2.65552
2.65502
2.65254
2.64758
2.63909
2.62727
2.61383
2.60246
2.595
2.59172
2.58898
2.58293
2.57136
2.55778
2.54734
2.54296
2.54325
2.54341
2.53786
2.52571
2.5137
2.50623
2.50368
2.50283
2.49788
2.48694
2.4751
2.46617
2.46026
2.45469
2.44663
2.43672
2.42779
2.42082
2.41455
2.40708
2.39758
2.38948
2.3826
2.37594
2.36867
2.36131
2.3547
2.34757
2.33973
2.33195
2.32488
2.31854
2.31243
2.30619
2.29847
2.28881
2.27988
2.27372
2.26845
2.2632
2.25807
2.25309
2.24815
2.24307
2.23779
2.23288
2.22821
2.22273
2.21515
2.20441
2.19343
2.18697
2.18405
2.18346
2.18395
2.18387
2.18074
2.17153
2.15829
2.15044
2.14609
2.14287
2.14043
2.13632
2.12715
2.11051
2.09658
2.09201
2.0853
2.19298
2.22078
2.14114
2.15062
2.20237
2.25865
2.33134
2.41455
2.47419
2.52136
2.54176
2.53867
2.53315
2.52621
2.52119
2.51753
2.51007
2.4965
2.47753
2.45718
2.44017
2.43012
2.42506
2.41834
2.40497
2.38759
2.37283
2.36543
2.36435
2.36413
2.35892
2.34783
2.33739
2.33068
2.32966
2.33093
2.32902
2.32207
2.31506
2.31025
2.30823
2.30676
2.30264
2.29698
2.29259
2.28959
2.28567
2.27782
2.26948
2.26269
2.2575
2.25368
2.249
2.24293
2.23629
2.22886
2.22108
2.2144
2.20865
2.20358
2.19856
2.19255
2.18445
2.17519
2.16729
2.16113
2.15591
2.15112
2.14661
2.14214
2.13749
2.13225
2.12651
2.12097
2.11587
2.11056
2.10391
2.09598
2.08996
2.08697
2.08557
2.08517
2.08507
2.08432
2.08064
2.07247
2.06409
2.06036
2.05802
2.05593
2.0533
2.04796
2.03628
2.02259
2.01766
2.01183
2.20704
2.2139
2.14389
2.12326
2.14366
2.17767
2.23251
2.32087
2.35129
2.36399
2.37593
2.37708
2.37397
2.36679
2.35807
2.34926
2.34418
2.3381
2.32584
2.30458
2.28226
2.26653
2.25975
2.25728
2.25096
2.2385
2.22588
2.21802
2.21646
2.22015
2.22285
2.22004
2.2159
2.21529
2.21718
2.22281
2.22274
2.21753
2.21143
2.2098
2.21178
2.21376
2.21093
2.20495
2.20109
2.19993
2.19622
2.18888
2.18036
2.17332
2.16879
2.16533
2.16093
2.15618
2.15124
2.14543
2.13838
2.13069
2.12411
2.11909
2.11434
2.10848
2.10063
2.0914
2.08353
2.07778
2.07303
2.0687
2.06439
2.0596
2.05374
2.04687
2.04058
2.03627
2.03336
2.03054
2.0264
2.0192
2.01024
2.00452
2.0016
1.99999
1.99934
1.99878
1.99734
1.99321
1.98475
1.97774
1.97567
1.97419
1.97236
1.96908
1.96239
1.9512
1.94226
1.93549
2.21479
2.21285
2.15951
2.12792
2.14933
2.19143
2.24451
2.32014
2.31075
2.284
2.26268
2.25008
2.24333
2.23762
2.22685
2.2152
2.2071
2.20485
2.199
2.18326
2.16557
2.15264
2.14734
2.14786
2.14697
2.14055
2.13569
2.13404
2.13472
2.14141
2.14786
2.14725
2.14515
2.14461
2.14575
2.15125
2.15299
2.15132
2.14995
2.1511
2.15386
2.15387
2.15158
2.14729
2.14482
2.14423
2.14113
2.13637
2.13242
2.12872
2.1234
2.11838
2.11445
2.11074
2.10683
2.10209
2.09559
2.08718
2.07939
2.07343
2.06788
2.06217
2.05581
2.04814
2.04007
2.03411
2.02961
2.02518
2.02052
2.01512
2.00789
1.9989
1.99192
1.98885
1.98672
1.98433
1.98085
1.97398
1.96214
1.95124
1.94591
1.943
1.94108
1.93986
1.93867
1.93626
1.92999
1.91962
1.91321
1.91045
1.90783
1.90468
1.90017
1.89341
1.88351
1.87201
2.22216
2.22339
2.19114
2.171
2.19883
2.24256
2.27369
2.31768
2.30987
2.27505
2.23773
2.20637
2.17936
2.16387
2.15246
2.14066
2.13198
2.12631
2.12285
2.11615
2.10395
2.09109
2.08413
2.08389
2.08422
2.08127
2.0809
2.08175
2.08329
2.08823
2.09561
2.0978
2.09867
2.09975
2.10272
2.10942
2.1159
2.11689
2.11667
2.11734
2.12041
2.12222
2.12151
2.11944
2.11781
2.11686
2.11547
2.1151
2.11516
2.11139
2.10412
2.09677
2.09314
2.09081
2.08867
2.08367
2.07645
2.06725
2.0586
2.05313
2.04824
2.04284
2.03681
2.02932
2.02013
2.01341
2.00877
2.00415
1.99944
1.99377
1.98621
1.97692
1.96865
1.96366
1.95957
1.95516
1.94964
1.94221
1.93108
1.91773
1.90939
1.90551
1.90264
1.90071
1.89925
1.89719
1.89273
1.88236
1.87012
1.86486
1.86213
1.85934
1.85605
1.85162
1.84521
1.83364
2.24023
2.26018
2.24921
2.23423
2.25689
2.28489
2.29345
2.31357
2.30908
2.28122
2.24569
2.21327
2.17331
2.14248
2.12934
2.11767
2.10247
2.08804
2.08258
2.0812
2.07342
2.06175
2.05214
2.05025
2.05157
2.0515
2.05092
2.05194
2.05378
2.0571
2.0634
2.06915
2.07276
2.07542
2.0787
2.08439
2.09219
2.09604
2.0965
2.09701
2.09962
2.10331
2.10476
2.10475
2.10219
2.09886
2.09785
2.0989
2.10017
2.09689
2.09007
2.08121
2.07621
2.07394
2.07205
2.06749
2.06106
2.05154
2.04198
2.03663
2.03219
2.02791
2.02286
2.01541
2.00489
1.99613
1.99099
1.98678
1.98214
1.97679
1.97007
1.9608
1.94871
1.93793
1.93179
1.92716
1.92262
1.91724
1.9101
1.89992
1.88838
1.88211
1.8798
1.87871
1.8762
1.87295
1.86827
1.85918
1.84511
1.83536
1.83233
1.82996
1.82726
1.82414
1.82007
1.81431
2.28719
2.32237
2.30977
2.29048
2.30012
2.31041
2.30873
2.3213
2.3239
2.29951
2.2617
2.22705
2.18751
2.1482
2.12763
2.1157
2.09763
2.07748
2.0677
2.06473
2.06006
2.05162
2.04295
2.03864
2.03863
2.0397
2.03856
2.03798
2.03908
2.04155
2.04607
2.05134
2.05521
2.0579
2.06056
2.06498
2.07129
2.07718
2.07953
2.08
2.08177
2.08504
2.08813
2.08938
2.08718
2.08181
2.07913
2.07932
2.07982
2.07728
2.07223
2.06433
2.05744
2.0545
2.05183
2.04739
2.04177
2.03344
2.02368
2.01773
2.01353
2.00955
2.00483
1.9986
1.98972
1.97908
1.97075
1.96517
1.96089
1.95702
1.95236
1.94514
1.93294
1.91932
1.91101
1.90591
1.90108
1.89652
1.89261
1.88802
1.88116
1.87135
1.86281
1.85802
1.85451
1.851
1.84723
1.84187
1.83381
1.82311
1.81475
1.8114
1.80933
1.80633
1.80204
1.80763
2.34544
2.36593
2.35061
2.33014
2.32355
2.32401
2.32715
2.34339
2.34882
2.32468
2.28429
2.24645
2.21447
2.17679
2.14096
2.12167
2.10647
2.08721
2.06847
2.05942
2.05678
2.05171
2.04508
2.03918
2.03599
2.03589
2.03464
2.03173
2.03141
2.03183
2.0335
2.03592
2.03841
2.04069
2.04226
2.04481
2.0492
2.05442
2.05869
2.05987
2.06098
2.06366
2.06679
2.06843
2.06709
2.0622
2.05767
2.05629
2.05612
2.05421
2.05011
2.04338
2.03537
2.03159
2.02858
2.02448
2.01962
2.01292
2.00313
1.99607
1.99238
1.98844
1.98402
1.97925
1.97278
1.96242
1.95147
1.94516
1.9407
1.93641
1.93226
1.92749
1.91958
1.90719
1.89551
1.88875
1.88467
1.88143
1.87857
1.8757
1.87204
1.86512
1.85321
1.84375
1.83896
1.83485
1.83041
1.82666
1.82307
1.81792
1.80909
1.79996
1.79421
1.79021
1.79059
1.81823
2.38247
2.38973
2.37436
2.34756
2.33444
2.33759
2.35137
2.36672
2.36698
2.34442
2.30813
2.27211
2.2427
2.21203
2.17327
2.13857
2.12121
2.10744
2.0886
2.06869
2.05739
2.05532
2.0528
2.04684
2.03959
2.03415
2.03115
2.02891
2.02545
2.02258
2.02068
2.01946
2.01869
2.01933
2.02026
2.02112
2.02261
2.0257
2.03011
2.0325
2.03323
2.03493
2.03786
2.04022
2.03978
2.03576
2.03074
2.02829
2.02801
2.0273
2.02415
2.01839
2.01033
2.00543
2.00281
1.99958
1.99544
1.99014
1.98206
1.97344
1.96921
1.96546
1.96159
1.95774
1.95311
1.94603
1.93565
1.92623
1.92039
1.91586
1.91157
1.90737
1.90301
1.89693
1.88765
1.8776
1.87228
1.86939
1.86718
1.86489
1.86178
1.85682
1.84702
1.83397
1.82578
1.82156
1.81847
1.81625
1.81383
1.81052
1.80446
1.79224
1.78253
1.78244
1.79085
1.86103
2.39674
2.39475
2.37816
2.35142
2.34362
2.35392
2.36943
2.37623
2.37343
2.35744
2.3284
2.29753
2.26759
2.23647
2.20154
2.1646
2.13938
2.1255
2.11002
2.08767
2.06733
2.05943
2.05747
2.05195
2.04302
2.03179
2.02537
2.02228
2.01719
2.0108
2.00489
2.0004
1.99672
1.99528
1.99465
1.99432
1.99394
1.994
1.99601
1.99887
1.99969
2.00095
2.00346
2.00663
2.00747
2.00529
2.00079
1.99819
1.99804
1.99855
1.9973
1.99281
1.98518
1.97887
1.97659
1.97449
1.97108
1.96677
1.96136
1.95303
1.94588
1.94245
1.93922
1.93538
1.93118
1.92661
1.92048
1.91123
1.90209
1.89668
1.89254
1.88915
1.88609
1.88263
1.87765
1.87041
1.86244
1.85651
1.8534
1.8509
1.84798
1.84384
1.83737
1.82777
1.81692
1.8107
1.80802
1.80624
1.80469
1.80173
1.79618
1.78613
1.78085
1.78923
1.82461
1.91996
2.39891
2.3929
2.37569
2.35189
2.3508
2.36211
2.37298
2.37258
2.37364
2.36422
2.3401
2.31126
2.28181
2.24993
2.21824
2.18789
2.15873
2.13815
2.12244
2.10167
2.07765
2.06385
2.05774
2.05087
2.0398
2.02608
2.01699
2.01109
2.00455
1.99552
1.98686
1.98025
1.9747
1.97022
1.96746
1.96533
1.96395
1.9628
1.96346
1.96555
1.96574
1.96626
1.96865
1.97218
1.97506
1.97502
1.97185
1.96927
1.96922
1.97071
1.9714
1.96836
1.9614
1.95343
1.9507
1.94969
1.94829
1.94536
1.94097
1.93434
1.92544
1.91963
1.91671
1.9138
1.91092
1.90771
1.90337
1.89611
1.88529
1.87827
1.87526
1.87256
1.86983
1.86674
1.86298
1.85766
1.84988
1.84124
1.8358
1.83229
1.82895
1.8256
1.82212
1.81766
1.81125
1.80306
1.79639
1.79316
1.79003
1.78696
1.7824
1.78322
1.79403
1.83462
1.90449
1.96022
2.39063
2.38388
2.36636
2.35011
2.3524
2.3621
2.3666
2.36331
2.36922
2.36472
2.34243
2.31263
2.28476
2.25654
2.2266
2.20069
2.17291
2.14508
2.12592
2.10789
2.08554
2.06483
2.05304
2.04382
2.03174
2.01879
2.00705
1.99676
1.98728
1.9782
1.97022
1.96291
1.95544
1.94765
1.94211
1.93823
1.93614
1.9356
1.93646
1.93679
1.93521
1.93399
1.93567
1.9396
1.94387
1.94572
1.94419
1.94195
1.94266
1.94484
1.94675
1.94498
1.93892
1.93021
1.92591
1.92575
1.92695
1.92472
1.92098
1.91601
1.90846
1.89903
1.89417
1.89258
1.89102
1.88851
1.88487
1.87836
1.87035
1.86203
1.85404
1.84948
1.84769
1.84663
1.84411
1.84024
1.83405
1.82459
1.81508
1.81064
1.80837
1.80652
1.80462
1.8025
1.79944
1.79347
1.78387
1.77633
1.77162
1.77029
1.77356
1.79261
1.84194
1.91633
1.97058
1.96861
2.38248
2.37224
2.3557
2.34803
2.34997
2.35386
2.35188
2.35067
2.36228
2.36152
2.33832
2.30654
2.28058
2.25832
2.23091
2.2036
2.17745
2.14823
2.12545
2.1091
2.09008
2.06659
2.04611
2.03429
2.02427
2.01255
1.9994
1.98331
1.97065
1.96297
1.95669
1.94946
1.94214
1.93276
1.92323
1.91805
1.91458
1.9143
1.91448
1.91292
1.91015
1.90769
1.90757
1.91095
1.91686
1.91951
1.91893
1.91661
1.91703
1.91988
1.92283
1.92221
1.91769
1.91064
1.90459
1.90216
1.90209
1.90232
1.9006
1.8967
1.8906
1.8819
1.87513
1.87035
1.86634
1.86335
1.86056
1.85761
1.8524
1.84446
1.83521
1.82936
1.82621
1.8235
1.82064
1.81779
1.8142
1.80833
1.79876
1.79118
1.78934
1.78839
1.78735
1.78587
1.78393
1.78082
1.77331
1.76097
1.75846
1.76159
1.78477
1.83944
1.91039
1.96732
1.97428
1.96402
2.38498
2.3704
2.35937
2.35221
2.34528
2.34096
2.33965
2.3441
2.35441
2.35007
2.32612
2.2984
2.27681
2.25733
2.23249
2.20225
2.17646
2.15144
2.12686
2.10882
2.0914
2.06837
2.0431
2.02789
2.01841
2.00706
1.9932
1.97595
1.96118
1.9527
1.94657
1.93978
1.93304
1.92454
1.91399
1.9071
1.9028
1.90053
1.8978
1.89512
1.89246
1.88963
1.88706
1.88819
1.89359
1.898
1.89938
1.8975
1.8951
1.8975
1.90187
1.9033
1.90131
1.89709
1.89188
1.88719
1.8861
1.88517
1.88261
1.87937
1.87499
1.86911
1.86317
1.85732
1.85203
1.84741
1.84342
1.83966
1.83568
1.83086
1.82503
1.81748
1.80876
1.80453
1.80257
1.80047
1.79818
1.7951
1.79006
1.7824
1.77609
1.77409
1.77395
1.77437
1.77272
1.7699
1.76398
1.75627
1.75828
1.78091
1.8406
1.9003
1.95217
1.96516
1.96393
1.95214
2.41964
2.39274
2.37621
2.36336
2.34753
2.33942
2.3424
2.34304
2.34403
2.33937
2.32063
2.2987
2.27581
2.25459
2.23074
2.20049
2.17605
2.15722
2.13407
2.11103
2.0923
2.0714
2.04816
2.02898
2.01624
2.00486
1.99094
1.97497
1.95992
1.95006
1.94338
1.93772
1.93067
1.92177
1.91255
1.90542
1.89955
1.89417
1.88826
1.8833
1.88016
1.8772
1.87405
1.87338
1.87648
1.88123
1.88456
1.88516
1.8823
1.88264
1.88768
1.8893
1.88839
1.88946
1.88823
1.88283
1.87993
1.8772
1.87374
1.8707
1.86681
1.86256
1.85839
1.85339
1.84749
1.84019
1.83431
1.83144
1.82885
1.82554
1.82108
1.81453
1.80506
1.79668
1.79421
1.7929
1.79224
1.79051
1.7881
1.78398
1.77592
1.76706
1.76351
1.76186
1.76094
1.76032
1.75957
1.76531
1.79268
1.85696
1.91384
1.94089
1.95523
1.95841
1.95394
1.94501
2.48924
2.45398
2.42935
2.40297
2.37486
2.36042
2.35867
2.35369
2.34897
2.34339
2.32938
2.30917
2.28387
2.25876
2.23447
2.20744
2.1829
2.16533
2.14524
2.12038
2.09641
2.07858
2.0605
2.04271
2.02482
2.00804
1.99445
1.98078
1.96893
1.96005
1.94954
1.93789
1.93066
1.92555
1.92142
1.91576
1.90804
1.89782
1.88725
1.88052
1.87689
1.87339
1.86878
1.86667
1.86745
1.87097
1.87535
1.87833
1.87661
1.87572
1.88197
1.88383
1.88352
1.88674
1.88831
1.88476
1.88133
1.87778
1.8726
1.86858
1.86611
1.86441
1.86195
1.85761
1.85141
1.84248
1.83435
1.83085
1.82854
1.82749
1.82476
1.81947
1.81068
1.80091
1.79588
1.79404
1.79286
1.7928
1.79212
1.78864
1.78167
1.77143
1.76336
1.76022
1.75963
1.76124
1.77364
1.81099
1.87839
1.94179
1.95666
1.95759
1.95486
1.95407
1.95598
1.95125
2.56661
2.53066
2.49859
2.46372
2.43364
2.41533
2.40771
2.39066
2.37558
2.36687
2.35261
2.32976
2.30188
2.2765
2.25721
2.23658
2.21198
2.18966
2.17025
2.14363
2.11742
2.10159
2.09107
2.07493
2.05209
2.02864
2.01183
2.00449
1.99898
1.98887
1.97498
1.958
1.94666
1.94009
1.93458
1.92874
1.92018
1.90804
1.89835
1.8931
1.88851
1.88289
1.8753
1.86968
1.86945
1.87015
1.87266
1.87724
1.87816
1.87688
1.88287
1.88617
1.8857
1.88998
1.89304
1.89118
1.88904
1.88526
1.87862
1.87289
1.87024
1.86996
1.87044
1.86834
1.86245
1.85318
1.84203
1.83586
1.833
1.83175
1.83089
1.82774
1.82362
1.81604
1.80595
1.7998
1.79672
1.79447
1.79232
1.78954
1.78594
1.77867
1.76967
1.76615
1.76748
1.78197
1.82571
1.88991
1.95536
1.97894
1.9795
1.97062
1.9609
1.95789
1.95726
1.95459
2.61999
2.59389
2.5651
2.53402
2.50691
2.4869
2.46764
2.44258
2.42315
2.40929
2.39262
2.36888
2.34083
2.31529
2.29515
2.27461
2.24984
2.22487
2.2047
2.18654
2.16618
2.14657
2.12585
2.10729
2.09129
2.07368
2.05862
2.04453
2.02916
2.01457
2.00184
1.99155
1.98219
1.97308
1.96285
1.95056
1.93679
1.92696
1.92165
1.91711
1.91161
1.90389
1.89346
1.88499
1.88256
1.88134
1.88127
1.88311
1.88523
1.88473
1.88954
1.89369
1.89183
1.89474
1.89782
1.89793
1.8986
1.89794
1.89232
1.88418
1.87947
1.87884
1.87954
1.88005
1.8769
1.86967
1.85856
1.8482
1.8436
1.84122
1.84119
1.84123
1.83767
1.83107
1.82122
1.8104
1.8046
1.80074
1.79761
1.79668
1.79496
1.79171
1.78735
1.78949
1.80464
1.85003
1.90884
1.95945
1.99496
2.0028
1.99967
1.98907
1.97636
1.96949
1.9679
1.9647
2.63898
2.62169
2.60209
2.58039
2.56053
2.54187
2.52078
2.49917
2.48199
2.46826
2.44917
2.42255
2.39248
2.36593
2.34504
2.32408
2.29953
2.27318
2.25192
2.23326
2.21376
2.19337
2.17068
2.14933
2.13144
2.11615
2.10182
2.08623
2.06812
2.04973
2.03465
2.02406
2.01579
2.00672
1.99449
1.97807
1.9632
1.95505
1.94924
1.94324
1.93593
1.92625
1.91424
1.90564
1.90229
1.89916
1.89575
1.89474
1.89462
1.89422
1.89741
1.90095
1.89913
1.89775
1.89965
1.90177
1.90516
1.90809
1.90704
1.90036
1.89154
1.8879
1.88768
1.88845
1.88906
1.88575
1.87769
1.86628
1.8578
1.85381
1.85217
1.85232
1.8515
1.84601
1.83836
1.82769
1.8188
1.81388
1.8107
1.81071
1.81268
1.81788
1.82728
1.84668
1.88716
1.94385
1.97845
2.00425
2.0199
2.01915
2.01478
2.0094
2.00134
1.99001
1.98566
1.98157
2.64107
2.62812
2.6141
2.59933
2.58497
2.56887
2.5518
2.53599
2.52322
2.51085
2.49097
2.46567
2.43988
2.41742
2.39861
2.37594
2.34874
2.32205
2.30165
2.28307
2.26231
2.24031
2.21699
2.19537
2.17741
2.16123
2.14466
2.12634
2.10613
2.08681
2.0716
2.05956
2.04822
2.03571
2.02042
2.00385
1.99152
1.98256
1.97429
1.96542
1.95515
1.94364
1.93328
1.92712
1.92174
1.91526
1.90864
1.90288
1.89997
1.89845
1.89986
1.90269
1.90241
1.89907
1.89826
1.90065
1.90535
1.91161
1.91377
1.91167
1.90381
1.89569
1.89336
1.89326
1.89513
1.89607
1.89288
1.88456
1.87365
1.86666
1.86314
1.86173
1.86169
1.86019
1.85443
1.84741
1.83918
1.83322
1.83313
1.8344
1.8444
1.86708
1.89517
1.92671
1.97683
2.01237
2.02599
2.03333
2.0357
2.03381
2.03142
2.02992
2.02712
2.01853
2.009
2.00212
2.63719
2.62608
2.61433
2.60292
2.59082
2.57777
2.56503
2.55397
2.54277
2.52941
2.51129
2.49147
2.47223
2.45519
2.43624
2.41161
2.3856
2.36306
2.34465
2.32583
2.3039
2.28
2.25696
2.23623
2.2177
2.19983
2.18112
2.16075
2.13967
2.12078
2.10501
2.09072
2.07628
2.06064
2.04411
2.02867
2.01557
2.00401
1.99284
1.98134
1.96946
1.95873
1.95065
1.9434
1.93508
1.92617
1.9168
1.9067
1.90053
1.89807
1.89816
1.8999
1.90011
1.89762
1.89351
1.89365
1.89842
1.90635
1.91278
1.91413
1.91114
1.90246
1.8969
1.89654
1.8975
1.90086
1.90143
1.89782
1.88941
1.87935
1.874
1.87121
1.87104
1.87208
1.87165
1.86867
1.86274
1.859
1.86333
1.8793
1.90269
1.93451
1.96086
1.99309
2.03805
2.05648
2.05879
2.05657
2.05527
2.05313
2.05112
2.04959
2.04742
2.04208
2.03258
2.02266
2.63437
2.62366
2.6129
2.60171
2.58965
2.57772
2.56705
2.55777
2.54677
2.53373
2.5189
2.50387
2.48965
2.47431
2.45421
2.43131
2.40929
2.3907
2.37403
2.35417
2.33139
2.30784
2.28698
2.26699
2.24772
2.22849
2.20806
2.18667
2.16611
2.14767
2.13082
2.11434
2.09748
2.08023
2.06331
2.04767
2.0335
2.01999
2.0064
1.99296
1.98042
1.96955
1.95981
1.94993
1.93997
1.93031
1.91976
1.90891
1.90065
1.89541
1.8932
1.89228
1.89183
1.89053
1.88739
1.88482
1.88743
1.8946
1.90392
1.90983
1.9109
1.90762
1.90054
1.89856
1.89891
1.90137
1.90453
1.90442
1.90042
1.89201
1.88494
1.88239
1.88238
1.88515
1.88906
1.89014
1.89728
1.91034
1.93032
1.94814
1.96829
1.9907
2.0083
2.04147
2.07437
2.0825
2.08248
2.07927
2.07485
2.07115
2.06811
2.06532
2.06252
2.05884
2.05347
2.04303
2.63711
2.62572
2.6142
2.60238
2.59034
2.57914
2.56905
2.55892
2.54713
2.53466
2.52212
2.51012
2.49754
2.48123
2.46161
2.44157
2.42306
2.40664
2.38967
2.36927
2.34622
2.32486
2.30604
2.28658
2.26667
2.24607
2.22468
2.20374
2.18427
2.16611
2.14845
2.13052
2.112
2.09344
2.07591
2.06006
2.04543
2.03111
2.01663
2.002
1.98758
1.97413
1.96193
1.95033
1.94014
1.93064
1.92082
1.91161
1.90169
1.89009
1.88366
1.88067
1.87931
1.88025
1.88069
1.87883
1.87769
1.88114
1.88814
1.89674
1.9041
1.90594
1.90298
1.89936
1.89981
1.90088
1.90313
1.90544
1.90528
1.9011
1.89493
1.89399
1.89487
1.89923
1.90925
1.92747
1.94596
1.96778
1.98636
1.99887
2.0146
2.02515
2.04067
2.07026
2.09342
2.09883
2.0988
2.09524
2.08917
2.08343
2.07963
2.07679
2.07404
2.07052
2.06606
2.05602
2.64268
2.63066
2.61837
2.60621
2.59429
2.58311
2.57201
2.56018
2.54776
2.53571
2.5245
2.51348
2.50012
2.4833
2.46496
2.4466
2.4298
2.41444
2.39619
2.37496
2.35296
2.33491
2.31743
2.29836
2.278
2.25632
2.23461
2.21446
2.19589
2.17797
2.15991
2.14116
2.12147
2.10162
2.08323
2.06694
2.05209
2.03784
2.02348
2.00836
1.99188
1.9753
1.96059
1.94825
1.93852
1.92976
1.9216
1.91272
1.90052
1.88558
1.87525
1.87115
1.86965
1.8711
1.87313
1.87303
1.87008
1.86831
1.8717
1.87841
1.88788
1.89744
1.90041
1.89909
1.8979
1.89844
1.89988
1.90344
1.90722
1.90794
1.91003
1.91353
1.91921
1.92895
1.94527
1.96531
1.98319
2.00296
2.01538
2.02862
2.03984
2.04638
2.06161
2.08646
2.10358
2.10684
2.10616
2.10271
2.09725
2.09134
2.08632
2.08268
2.07914
2.07495
2.07062
2.06219
2.64759
2.63559
2.62321
2.6111
2.59916
2.58742
2.57492
2.56199
2.54957
2.53817
2.5273
2.51528
2.50079
2.48438
2.46745
2.45133
2.43675
2.41977
2.39897
2.37704
2.35792
2.34108
2.32459
2.3059
2.28528
2.26301
2.2413
2.22186
2.20371
2.18583
2.16761
2.14844
2.12796
2.10704
2.08766
2.07077
2.05571
2.04149
2.02714
2.0117
1.9945
1.97629
1.95949
1.94658
1.93711
1.92866
1.92032
1.91089
1.89852
1.88423
1.87248
1.86542
1.86245
1.86169
1.86245
1.8624
1.86047
1.85692
1.85669
1.86111
1.86886
1.88094
1.89022
1.89313
1.89441
1.89408
1.89595
1.90092
1.90771
1.91648
1.92784
1.94163
1.95507
1.96856
1.98563
1.99542
2.00598
2.01867
2.0302
2.0437
2.05176
2.05762
2.07358
2.09462
2.10583
2.1086
2.10834
2.1059
2.10157
2.09631
2.09032
2.08429
2.07942
2.07528
2.07194
2.06542
2.64886
2.63745
2.62577
2.61413
2.60224
2.59008
2.57742
2.56497
2.55312
2.54171
2.52966
2.51577
2.50048
2.48482
2.4697
2.45539
2.44079
2.42281
2.40231
2.38206
2.36359
2.34698
2.33016
2.31124
2.29037
2.26819
2.24716
2.22786
2.20934
2.19105
2.17253
2.15303
2.13218
2.11116
2.09166
2.07404
2.05786
2.04285
2.02847
2.01342
1.99664
1.97838
1.96065
1.94613
1.93534
1.92655
1.91818
1.90872
1.89699
1.88327
1.87177
1.86323
1.85688
1.85372
1.85109
1.84905
1.84788
1.84656
1.84508
1.84783
1.85375
1.86324
1.87527
1.88217
1.88646
1.8918
1.89817
1.90394
1.91342
1.92771
1.94599
1.96508
1.97982
1.99604
2.0047
2.01093
2.02147
2.02952
2.03831
2.04839
2.05427
2.06256
2.07921
2.09892
2.10673
2.10813
2.10866
2.10683
2.10341
2.09902
2.09235
2.08421
2.07817
2.07411
2.07146
2.06638
2.64896
2.63788
2.62638
2.61466
2.60259
2.59044
2.57837
2.56672
2.55527
2.54348
2.53058
2.51639
2.50166
2.48706
2.47279
2.45846
2.44279
2.42467
2.40559
2.38684
2.36912
2.3518
2.33346
2.3141
2.29343
2.27253
2.25254
2.23321
2.21403
2.19476
2.17495
2.15448
2.13399
2.11433
2.09569
2.07779
2.06053
2.04412
2.02787
2.0108
1.9943
1.97918
1.96466
1.95102
1.93712
1.92332
1.91172
1.90053
1.89085
1.88299
1.87452
1.86521
1.85568
1.84716
1.84098
1.83766
1.83582
1.83621
1.83639
1.83691
1.8407
1.84756
1.85782
1.86901
1.87878
1.8896
1.90062
1.91282
1.92827
1.94481
1.96265
1.97783
1.99293
2.00769
2.01577
2.02337
2.03094
2.03553
2.04252
2.05119
2.0584
2.06772
2.08419
2.10221
2.10849
2.10927
2.10945
2.10709
2.10319
2.09863
2.09256
2.08508
2.07912
2.0748
2.07196
2.06652
2.64899
2.63759
2.62596
2.61429
2.60237
2.59049
2.5789
2.56759
2.55608
2.54388
2.53071
2.51696
2.5031
2.48921
2.475
2.45985
2.44308
2.42532
2.40753
2.39068
2.37397
2.35504
2.33534
2.31511
2.29516
2.27569
2.25669
2.23755
2.21774
2.19689
2.17541
2.15441
2.13472
2.11657
2.09936
2.08216
2.0642
2.04495
2.02534
2.00754
1.992
1.97847
1.96702
1.95555
1.942
1.92564
1.90913
1.8959
1.88642
1.87982
1.87479
1.86839
1.85798
1.84316
1.83434
1.83072
1.82838
1.82861
1.82977
1.82993
1.83055
1.83498
1.8431
1.85503
1.87005
1.88754
1.90613
1.92489
1.94155
1.95823
1.96972
1.98189
1.99714
2.00986
2.01993
2.02816
2.03375
2.03871
2.04468
2.05157
2.06003
2.07093
2.08895
2.10664
2.11177
2.11084
2.10938
2.10634
2.10224
2.09783
2.09268
2.08737
2.08242
2.07777
2.07415
2.06783
2.64927
2.63713
2.62535
2.61393
2.60235
2.59073
2.57927
2.56784
2.55599
2.54353
2.53063
2.5176
2.50447
2.49082
2.47596
2.45969
2.4426
2.4257
2.40962
2.39427
2.37672
2.35703
2.33629
2.31571
2.29668
2.27827
2.25973
2.24065
2.22021
2.19781
2.17463
2.15337
2.13518
2.11893
2.10322
2.0867
2.06751
2.04452
2.02098
2.0027
1.99005
1.98001
1.97035
1.95931
1.94402
1.92254
1.90186
1.89147
1.88514
1.8798
1.87417
1.86732
1.85584
1.83874
1.8297
1.82578
1.82333
1.82322
1.8234
1.82297
1.82208
1.82413
1.83121
1.84404
1.86304
1.88553
1.90921
1.93151
1.95079
1.96637
1.98072
1.99484
2.00831
2.01978
2.02979
2.03579
2.03988
2.04477
2.04944
2.05474
2.06327
2.07452
2.09295
2.11083
2.11447
2.11185
2.10914
2.10564
2.10133
2.09711
2.09277
2.0876
2.08217
2.07745
2.07376
2.06732
)
;

boundaryField
{
    inlet
    {
        type            fixedValue;
        value           uniform 1;
    }
    outlet
    {
        type            inletOutlet;
        inletValue      uniform 1;
        value           nonuniform List<scalar> 
32
(
2.1664
2.16333
2.14274
2.08615
2.01234
1.93592
1.87186
1.8328
1.81345
1.80734
1.81877
1.86246
1.92136
1.95995
1.96649
1.96196
1.95089
1.94528
1.95208
1.95579
1.96545
1.98197
2.00241
2.02273
2.04259
2.05545
2.06201
2.06562
2.06699
2.067
2.06813
2.06757
)
;
    }
    bottom
    {
        type            symmetryPlane;
    }
    top
    {
        type            symmetryPlane;
    }
    obstacle
    {
        type            zeroGradient;
    }
    defaultFaces
    {
        type            empty;
    }
}


// ************************************************************************* //
