/*--------------------------------*- C++ -*----------------------------------*\
  =========                 |
  \\      /  F ield         | OpenFOAM: The Open Source CFD Toolbox
   \\    /   O peration     | Website:  https://openfoam.org
    \\  /    A nd           | Version:  7
     \\/     M anipulation  |
\*---------------------------------------------------------------------------*/
FoamFile
{
    version     2.0;
    format      ascii;
    class       volVectorField;
    location    "15";
    object      U;
}
// * * * * * * * * * * * * * * * * * * * * * * * * * * * * * * * * * * * * * //

dimensions      [0 1 -1 0 0 0 0];

internalField   nonuniform List<vector> 
4032
(
(3 -6.03697e-18 0)
(3 3.722e-16 0)
(3 2.41947e-16 0)
(3 3.25096e-16 0)
(3 6.83251e-17 0)
(3 -5.14516e-17 0)
(3 -2.07028e-16 0)
(3 -2.88804e-16 0)
(3 6.24617e-17 0)
(3 -3.20305e-17 0)
(3 8.15566e-17 0)
(2.9787 -0.0078559 0)
(1.05958 0.01961 0)
(0.714734 0.0177402 0)
(0.6631 0.0220964 0)
(0.604638 0.0242491 0)
(0.544826 0.0260367 0)
(0.482603 0.0277171 0)
(0.418091 0.0294181 0)
(0.350955 0.0313391 0)
(0.280902 0.0334566 0)
(0.206894 0.0363239 0)
(0.128185 0.0384292 0)
(0.0472524 0.0429481 0)
(3 6.60692e-17 0)
(3 7.5186e-16 0)
(3 8.85463e-16 0)
(3 6.41147e-16 0)
(3 3.64208e-16 0)
(3 -2.58619e-16 0)
(3 -4.24911e-16 0)
(3 -1.33233e-16 0)
(3 4.12191e-16 0)
(3 5.22608e-17 0)
(3 -9.57518e-17 0)
(2.9948 0.00253287 0)
(1.08206 0.0745883 0)
(0.716149 0.0628547 0)
(0.66212 0.0707262 0)
(0.603272 0.076992 0)
(0.542752 0.08241 0)
(0.479631 0.0879528 0)
(0.413721 0.093551 0)
(0.344897 0.099536 0)
(0.273341 0.105558 0)
(0.198912 0.113527 0)
(0.121035 0.119063 0)
(0.0436373 0.130003 0)
(3 1.67739e-17 0)
(3 -8.75886e-17 0)
(3 -1.02248e-16 0)
(3 -3.77529e-16 0)
(3 -3.99966e-16 0)
(3 -3.8948e-16 0)
(3 -4.79043e-16 0)
(3 -4.60475e-16 0)
(3 -6.39974e-16 0)
(3 -7.76711e-16 0)
(3 -1.29055e-15 0)
(3.00008 0.000169972 0)
(1.14417 0.12469 0)
(0.72666 0.105882 0)
(0.670889 0.117689 0)
(0.613523 0.127814 0)
(0.554395 0.136842 0)
(0.492944 0.146586 0)
(0.428111 0.156733 0)
(0.35926 0.167555 0)
(0.286008 0.177916 0)
(0.208672 0.190918 0)
(0.126288 0.199064 0)
(0.0454729 0.213766 0)
(3 -1.34974e-16 0)
(3 -5.51593e-16 0)
(3 -6.83736e-16 0)
(3 -6.55135e-16 0)
(3 -7.27829e-16 0)
(3 -5.15124e-16 0)
(3 -4.87399e-16 0)
(3 -1.08724e-15 0)
(3 -1.79173e-15 0)
(3 -2.04502e-15 0)
(3 -2.01406e-15 0)
(3 2.60735e-07 0)
(1.24636 0.176336 0)
(0.737899 0.152174 0)
(0.67541 0.165378 0)
(0.618799 0.178508 0)
(0.560683 0.190591 0)
(0.501265 0.20468 0)
(0.438189 0.220348 0)
(0.369983 0.23791 0)
(0.295592 0.254653 0)
(0.216585 0.274366 0)
(0.131167 0.286485 0)
(0.046126 0.30374 0)
(3 8.59797e-17 0)
(3 9.15617e-17 0)
(3 -4.32992e-16 0)
(3 -7.61731e-16 0)
(3 -8.42202e-16 0)
(3 -7.52798e-16 0)
(3 -6.95269e-16 0)
(3 -9.67326e-16 0)
(3 -9.96281e-16 0)
(3 -4.72358e-16 0)
(3 -5.03873e-16 0)
(3 -2.50981e-10 0)
(1.40353 0.228094 0)
(0.755352 0.203919 0)
(0.681663 0.2141 0)
(0.627138 0.228379 0)
(0.571589 0.242423 0)
(0.516034 0.260353 0)
(0.457333 0.281781 0)
(0.393947 0.30704 0)
(0.322938 0.330975 0)
(0.245192 0.35872 0)
(0.153553 0.37921 0)
(0.0572563 0.403678 0)
(3 1.76532e-17 0)
(3 2.10509e-16 0)
(3 -2.31461e-16 0)
(3 -6.74644e-16 0)
(3 -6.10557e-16 0)
(3 -8.41634e-16 0)
(3 -8.7511e-16 0)
(3 -7.64038e-16 0)
(3 -6.11324e-16 0)
(3 -1.30001e-16 0)
(3 -1.73055e-16 0)
(3 -1.29817e-10 0)
(1.63361 0.27788 0)
(0.782112 0.264623 0)
(0.686475 0.262826 0)
(0.63222 0.276343 0)
(0.579111 0.291235 0)
(0.528759 0.312331 0)
(0.476516 0.339252 0)
(0.419481 0.373687 0)
(0.349768 0.410005 0)
(0.268169 0.453969 0)
(0.168942 0.493238 0)
(0.057022 0.527656 0)
(3 -7.88986e-17 0)
(3 -1.94887e-16 0)
(3 -5.43383e-16 0)
(3 -3.6811e-16 0)
(3 -3.60912e-16 0)
(3 -7.80895e-16 0)
(3 -6.40775e-16 0)
(3 -2.71871e-16 0)
(3 -4.46016e-16 0)
(3 -7.35827e-16 0)
(3 -4.09536e-16 0)
(3 -2.58222e-11 0)
(1.96026 0.328056 0)
(0.823235 0.341587 0)
(0.694844 0.32438 0)
(0.640775 0.329579 0)
(0.589638 0.341607 0)
(0.543376 0.362995 0)
(0.496894 0.393731 0)
(0.45003 0.437845 0)
(0.391961 0.489815 0)
(0.326217 0.549423 0)
(0.2365 0.607891 0)
(0.103171 0.673535 0)
(3 3.73458e-17 0)
(3 -6.95655e-17 0)
(3 4.24634e-16 0)
(3 3.18918e-16 0)
(3 -2.48011e-16 0)
(3 -1.224e-16 0)
(3 -3.99215e-16 0)
(3 -3.54774e-16 0)
(3 -7.66055e-16 0)
(3 -7.82308e-16 0)
(3 -5.10875e-16 0)
(3 -2.74589e-12 0)
(2.4411 0.328231 0)
(0.919547 0.431234 0)
(0.756214 0.377103 0)
(0.700755 0.381847 0)
(0.641792 0.391724 0)
(0.589949 0.412116 0)
(0.54226 0.444907 0)
(0.499396 0.493918 0)
(0.454746 0.556543 0)
(0.396943 0.644112 0)
(0.283441 0.770472 0)
(0.156056 0.94587 0)
(3 4.27769e-17 0)
(3 5.46252e-16 0)
(3 1.10157e-15 0)
(3 7.00716e-16 0)
(3 4.57806e-16 0)
(3 1.86006e-16 0)
(3 -5.93426e-16 0)
(3 -6.2649e-16 0)
(3 -6.05186e-16 0)
(3 -7.30346e-16 0)
(3 -7.26191e-16 0)
(3 -1.13698e-13 0)
(2.98745 0.124265 0)
(1.11631 0.460879 0)
(0.852573 0.409225 0)
(0.798021 0.42797 0)
(0.728916 0.444301 0)
(0.667003 0.463145 0)
(0.614006 0.494182 0)
(0.56959 0.543815 0)
(0.533567 0.620514 0)
(0.501652 0.747597 0)
(0.479077 0.932293 0)
(0.593011 1.2459 0)
(3 2.56048e-16 0)
(3 4.1447e-16 0)
(3 6.44446e-16 0)
(3 6.0961e-16 0)
(3 9.06294e-16 0)
(3 8.81734e-16 0)
(3 4.95737e-16 0)
(3 2.8461e-16 0)
(3 6.81267e-16 0)
(3 6.81551e-16 0)
(3 4.91427e-16 0)
(3 -1.94356e-15 0)
(3.03093 0.00514117 0)
(1.3053 0.434487 0)
(0.878868 0.471815 0)
(0.838066 0.501291 0)
(0.781581 0.514992 0)
(0.728979 0.530321 0)
(0.683967 0.5567 0)
(0.644469 0.601168 0)
(0.628152 0.679644 0)
(0.629841 0.811307 0)
(0.700518 0.96755 0)
(0.972069 1.15772 0)
(3 2.53871e-17 0)
(3 -3.03649e-17 0)
(3 -5.98699e-17 0)
(3 4.12111e-16 0)
(3 8.53734e-17 0)
(3 5.36722e-16 0)
(3 8.00693e-16 0)
(3 7.36267e-16 0)
(3 6.52811e-16 0)
(3 6.55063e-16 0)
(3 8.02417e-16 0)
(3 1.0027e-15 0)
(3.00068 -1.16948e-05 0)
(1.63297 0.466058 0)
(0.871253 0.511043 0)
(0.836236 0.540871 0)
(0.809668 0.565745 0)
(0.782406 0.583108 0)
(0.755601 0.608639 0)
(0.729678 0.645232 0)
(0.730912 0.7138 0)
(0.757647 0.825917 0)
(0.882416 0.952862 0)
(1.1649 1.07288 0)
(3 1.89091e-16 0)
(3 -2.32182e-16 0)
(3 -5.55408e-16 0)
(3 -7.37001e-16 0)
(3 -8.88076e-16 0)
(3 -6.93628e-16 0)
(3 -6.25326e-16 0)
(3 -5.71436e-16 0)
(3 -4.82229e-16 0)
(3 -3.48065e-16 0)
(3 -2.23903e-16 0)
(3 1.5973e-16 0)
(3.00001 -4.88086e-06 0)
(2.30632 0.461916 0)
(0.970022 0.59021 0)
(0.865458 0.551645 0)
(0.861226 0.580788 0)
(0.845173 0.613475 0)
(0.830429 0.648848 0)
(0.819109 0.684758 0)
(0.830161 0.743269 0)
(0.877475 0.827248 0)
(1.01286 0.918946 0)
(1.24108 0.986252 0)
(3 1.66915e-16 0)
(3 3.29353e-17 0)
(3 1.3074e-16 0)
(3 -5.19762e-16 0)
(3 -3.35103e-16 0)
(3 -8.17951e-16 0)
(3 -6.97021e-16 0)
(3 -1.12033e-15 0)
(3 -1.04148e-15 0)
(3 -7.12887e-16 0)
(3 -5.84204e-16 0)
(3 -6.36415e-16 0)
(3 -1.22103e-06 0)
(3.07082 0.119932 0)
(1.23595 0.601011 0)
(0.947169 0.559866 0)
(0.93784 0.612195 0)
(0.917804 0.64406 0)
(0.906356 0.679907 0)
(0.90665 0.715277 0)
(0.922171 0.763826 0)
(0.981151 0.827908 0)
(1.11311 0.898835 0)
(1.30851 0.939758 0)
(3 -1.89948e-16 0)
(3 -6.80104e-17 0)
(3 -2.02578e-16 0)
(3 6.39867e-16 0)
(3 7.11874e-16 0)
(3 3.01514e-16 0)
(3 2.31236e-16 0)
(3 1.80649e-16 0)
(3 -4.61064e-17 0)
(3 -2.39116e-16 0)
(3 6.95685e-17 0)
(3 -4.98164e-17 0)
(3 -1.16356e-07 0)
(3.02725 0.00133495 0)
(1.50484 0.584901 0)
(0.971849 0.646244 0)
(0.950541 0.660125 0)
(0.938366 0.681691 0)
(0.949986 0.712751 0)
(0.970246 0.748751 0)
(1.00259 0.784078 0)
(1.06763 0.827193 0)
(1.18193 0.871632 0)
(1.34286 0.89463 0)
(3 2.70723e-17 0)
(3 1.68041e-16 0)
(3 -6.9369e-17 0)
(3 6.41286e-17 0)
(3 7.78694e-16 0)
(3 8.87382e-16 0)
(3 2.87279e-16 0)
(3 8.77412e-16 0)
(3 1.0464e-15 0)
(3 1.43122e-15 0)
(3 1.29282e-15 0)
(3 9.19751e-16 0)
(3 -3.68685e-09 0)
(3.00039 -8.7474e-06 0)
(2.22811 0.551837 0)
(1.06501 0.719738 0)
(0.989284 0.679577 0)
(0.978079 0.692806 0)
(0.994462 0.717944 0)
(1.02232 0.754271 0)
(1.06808 0.793248 0)
(1.1397 0.831239 0)
(1.23858 0.862954 0)
(1.37141 0.878357 0)
(3 1.32672e-16 0)
(3 1.04816e-16 0)
(3 2.51759e-16 0)
(3 -2.72763e-16 0)
(3 -2.20793e-16 0)
(3 7.51182e-17 0)
(3 4.28145e-16 0)
(3 6.67428e-16 0)
(3 4.97173e-16 0)
(3 5.65388e-16 0)
(3 1.1795e-15 0)
(3 1.67334e-15 0)
(3 -9.82838e-12 0)
(3.00003 -1.50691e-05 0)
(3.05943 0.124356 0)
(1.38201 0.704203 0)
(1.07722 0.702704 0)
(1.06183 0.705661 0)
(1.0602 0.730075 0)
(1.07994 0.761726 0)
(1.1225 0.792498 0)
(1.191 0.824394 0)
(1.27745 0.846001 0)
(1.3881 0.856422 0)
(3 2.04483e-17 0)
(3 1.74742e-16 0)
(3 5.09778e-16 0)
(3 7.54661e-17 0)
(3 -4.14475e-16 0)
(3 -1.42352e-16 0)
(3 5.13188e-16 0)
(3 3.03223e-16 0)
(3 -2.34019e-17 0)
(3 -4.25709e-16 0)
(3 2.30593e-16 0)
(3 8.3512e-16 0)
(3 -1.06388e-14 0)
(3 -3.27059e-06 0)
(3.02164 0.0013954 0)
(1.78962 0.667525 0)
(1.1081 0.769686 0)
(1.09319 0.765916 0)
(1.10831 0.770329 0)
(1.1315 0.787185 0)
(1.17183 0.807784 0)
(1.23369 0.827794 0)
(1.31027 0.842401 0)
(1.39974 0.845001 0)
(3 -1.32061e-17 0)
(3 -1.21991e-16 0)
(3 2.73284e-17 0)
(3 3.21989e-16 0)
(3 3.80362e-16 0)
(3 4.67366e-16 0)
(3 3.52698e-16 0)
(3 7.53435e-16 0)
(3 1.23131e-15 0)
(3 1.09539e-15 0)
(3 1.94428e-16 0)
(3 -3.50076e-17 0)
(3 4.98108e-17 0)
(3 -2.72739e-07 0)
(3.00023 9.28408e-06 0)
(2.78202 0.35191 0)
(1.28748 0.785489 0)
(1.14455 0.767714 0)
(1.17012 0.770858 0)
(1.19075 0.792094 0)
(1.22352 0.809045 0)
(1.27259 0.822284 0)
(1.33203 0.825999 0)
(1.39255 0.808283 0)
(3 -5.92112e-17 0)
(3 -3.74292e-16 0)
(3 -5.01826e-16 0)
(3 -1.092e-16 0)
(3 6.5152e-16 0)
(3 1.13967e-15 0)
(3 6.1171e-16 0)
(3 7.57793e-16 0)
(3 7.85101e-16 0)
(3 6.3664e-16 0)
(3 1.45437e-16 0)
(3 -1.2331e-16 0)
(3 -3.34911e-17 0)
(3 -1.51952e-09 0)
(3.00002 -7.5685e-06 0)
(3.05762 0.0180351 0)
(1.66861 0.735042 0)
(1.18439 0.811825 0)
(1.21108 0.810941 0)
(1.22592 0.825357 0)
(1.25538 0.833526 0)
(1.29281 0.830137 0)
(1.32809 0.802415 0)
(1.3659 0.745003 0)
(3 1.97151e-16 0)
(3 5.54604e-16 0)
(3 6.18944e-16 0)
(3 2.91922e-16 0)
(3 2.63009e-16 0)
(3 -1.01576e-16 0)
(3 -3.18562e-16 0)
(3 -5.31691e-16 0)
(3 -7.66175e-16 0)
(3 -1.25765e-15 0)
(3 -1.05425e-15 0)
(3 -1.00341e-15 0)
(3 -8.52739e-16 0)
(3 -2.34371e-12 0)
(3 -1.65761e-06 0)
(3.00181 0.000322708 0)
(2.59037 0.48335 0)
(1.33072 0.852775 0)
(1.24886 0.841722 0)
(1.26714 0.832589 0)
(1.27999 0.821907 0)
(1.28667 0.783898 0)
(1.29525 0.720207 0)
(1.31717 0.655797 0)
(3 6.92614e-17 0)
(3 2.74792e-16 0)
(3 5.21548e-16 0)
(3 5.26363e-16 0)
(3 3.0203e-16 0)
(3 -2.9484e-16 0)
(3 -3.30422e-16 0)
(3 -6.28049e-16 0)
(3 -1.48512e-15 0)
(3 -1.41838e-15 0)
(3 -1.35029e-15 0)
(3 -1.20607e-15 0)
(3 -1.1766e-15 0)
(3 -1.56985e-15 0)
(3 -1.3916e-07 0)
(3 4.06019e-07 0)
(3.05625 0.0423229 0)
(1.76026 0.792016 0)
(1.29521 0.860946 0)
(1.29497 0.850865 0)
(1.27735 0.806719 0)
(1.25635 0.731473 0)
(1.26282 0.659439 0)
(1.28239 0.595857 0)
(3 -5.17006e-17 0)
(3 -2.06487e-16 0)
(3 -2.63169e-16 0)
(3 3.08295e-17 0)
(3 1.08762e-16 0)
(3 -2.24203e-16 0)
(3 -4.73742e-17 0)
(3 -6.72357e-16 0)
(3 -1.01682e-15 0)
(3 -9.91935e-16 0)
(3 -1.15476e-15 0)
(3 -1.73716e-15 0)
(3 -1.74319e-15 0)
(3 -1.77197e-15 0)
(3 -8.59584e-10 0)
(3 -9.62541e-08 0)
(3.00316 0.00132629 0)
(2.71374 0.469173 0)
(1.45529 0.933564 0)
(1.2849 0.830045 0)
(1.23532 0.738911 0)
(1.21918 0.652119 0)
(1.23928 0.597464 0)
(1.27773 0.555345 0)
(3 -1.40289e-16 0)
(3 -2.15323e-16 0)
(3 3.71876e-17 0)
(3 -1.55561e-16 0)
(3 -4.62302e-16 0)
(3 -9.4466e-16 0)
(3 -1.09761e-15 0)
(3 -1.0584e-15 0)
(3 -8.20663e-16 0)
(3 -5.64771e-16 0)
(3 -4.91915e-16 0)
(3 -8.77502e-16 0)
(3 -9.63931e-16 0)
(3 -9.45157e-16 0)
(3 -1.68316e-12 0)
(3 -2.07229e-08 0)
(3.00001 6.25697e-06 0)
(3.05068 0.0337792 0)
(1.96751 0.821069 0)
(1.24367 0.796724 0)
(1.18159 0.672914 0)
(1.20525 0.612132 0)
(1.2515 0.566037 0)
(1.29976 0.535322 0)
(3 5.63817e-17 0)
(3 -2.80977e-16 0)
(3 -5.56087e-16 0)
(3 -4.05359e-16 0)
(3 9.67826e-17 0)
(3 4.35018e-16 0)
(3 8.80226e-17 0)
(3 9.13992e-18 0)
(3 1.23126e-16 0)
(3 3.71293e-16 0)
(3 6.37401e-16 0)
(3 1.66279e-15 0)
(3 1.11706e-15 0)
(3 1.03004e-15 0)
(3 7.13393e-16 0)
(3 -2.03723e-09 0)
(3 -3.45476e-10 0)
(3.00165 0.00136424 0)
(2.7921 0.348793 0)
(1.26615 0.669408 0)
(1.14863 0.592242 0)
(1.21335 0.576763 0)
(1.26721 0.552426 0)
(1.32015 0.530062 0)
(3 -1.73781e-16 0)
(3 -7.00812e-16 0)
(3 -6.89966e-16 0)
(3 -6.40769e-16 0)
(3 -1.03409e-16 0)
(3 3.99721e-16 0)
(3 -5.39934e-18 0)
(3 -5.2535e-17 0)
(3 -4.07132e-16 0)
(3 -1.87745e-16 0)
(3 2.58244e-16 0)
(3 5.1369e-16 0)
(3 7.03568e-16 0)
(3 8.01938e-16 0)
(3 1.09901e-15 0)
(3 -3.62047e-11 0)
(3 -1.80862e-10 0)
(3 6.52256e-06 0)
(2.90231 0.0192225 0)
(1.15176 0.435891 0)
(1.06782 0.512245 0)
(1.19072 0.513235 0)
(1.26121 0.518288 0)
(1.31276 0.505852 0)
(3 -2.83631e-16 0)
(3 -3.39675e-16 0)
(3 -2.60912e-16 0)
(3 -4.88731e-16 0)
(3 -7.36365e-16 0)
(3 -1.1004e-15 0)
(3 -6.9833e-16 0)
(3 -8.67859e-16 0)
(3 -7.07554e-16 0)
(3 -6.06029e-16 0)
(3 -3.27962e-16 0)
(3 3.42458e-17 0)
(3 6.79831e-16 0)
(3 6.81576e-16 0)
(3 1.16471e-16 0)
(3 -1.52883e-13 0)
(3 -2.50701e-11 0)
(3 5.141e-09 0)
(2.91955 0.0239476 0)
(1.0594 0.301675 0)
(0.896225 0.442864 0)
(1.06555 0.471537 0)
(1.17931 0.493035 0)
(1.2584 0.473288 0)
(3 1.39848e-18 0)
(3 3.54864e-16 0)
(3 1.63327e-16 0)
(3 4.92253e-16 0)
(3 4.6952e-16 0)
(3 6.28776e-17 0)
(3 -4.14708e-16 0)
(3 -5.49103e-16 0)
(3 -6.97319e-16 0)
(3 -7.58587e-16 0)
(3 -8.61102e-16 0)
(3 -3.1349e-16 0)
(3 6.96728e-17 0)
(3 1.99057e-16 0)
(3 5.33837e-16 0)
(3 8.68423e-16 0)
(3 -1.83395e-12 0)
(3 -1.04605e-12 0)
(2.99848 0.0068564 0)
(1.17518 0.243064 0)
(0.827077 0.342099 0)
(0.93111 0.357732 0)
(1.03673 0.38789 0)
(1.13776 0.39804 0)
(3 2.25398e-16 0)
(3 7.50187e-16 0)
(3 7.9583e-16 0)
(3 5.76385e-16 0)
(3 4.82531e-16 0)
(3 1.85379e-16 0)
(3 -5.9052e-16 0)
(3 -1.91891e-16 0)
(3 4.70526e-16 0)
(3 1.16378e-16 0)
(3 -2.19484e-16 0)
(3 -3.73501e-16 0)
(3 -4.3214e-16 0)
(3 -3.57907e-16 0)
(3 -2.05845e-16 0)
(3 -1.13217e-16 0)
(3 -3.15893e-14 0)
(3 -3.23381e-13 0)
(3.00013 3.41228e-05 0)
(1.33047 0.258038 0)
(0.80396 0.294984 0)
(0.844977 0.294879 0)
(0.909887 0.314333 0)
(0.99095 0.325919 0)
(3 2.08043e-17 0)
(3 1.20585e-16 0)
(3 3.31161e-16 0)
(3 2.81211e-16 0)
(3 2.99088e-16 0)
(3 7.4188e-16 0)
(3 9.97104e-16 0)
(3 8.62712e-16 0)
(3 7.45323e-16 0)
(3 7.01172e-16 0)
(3 2.89179e-16 0)
(3 -5.55543e-17 0)
(3 -2.03006e-16 0)
(3 -2.85441e-16 0)
(3 -8.33847e-17 0)
(3 -2.5383e-16 0)
(3 -3.02656e-19 0)
(3 -5.2517e-14 0)
(3 8.42156e-09 0)
(1.52605 0.288185 0)
(0.820966 0.268647 0)
(0.815663 0.262894 0)
(0.855493 0.265931 0)
(0.900926 0.271196 0)
(3 2.44533e-17 0)
(3 -1.40166e-16 0)
(3 5.19611e-17 0)
(3 2.14e-16 0)
(3 1.16967e-16 0)
(3 1.99074e-16 0)
(3 4.14642e-16 0)
(3 3.28337e-16 0)
(3 -3.47831e-16 0)
(3 -2.92099e-16 0)
(3 1.66318e-16 0)
(3 6.11106e-16 0)
(3 5.8761e-16 0)
(3 7.99576e-16 0)
(3 7.36855e-16 0)
(3 6.42785e-16 0)
(3 4.83388e-16 0)
(3 -3.07603e-15 0)
(3 -7.09579e-12 0)
(1.77294 0.27917 0)
(0.838403 0.257806 0)
(0.816166 0.240695 0)
(0.853271 0.234581 0)
(0.883654 0.231085 0)
(3 1.01486e-16 0)
(3 7.41056e-16 0)
(3 3.89746e-16 0)
(3 -4.46444e-16 0)
(3 -8.51462e-16 0)
(3 -9.34789e-16 0)
(3 -2.80305e-16 0)
(3 4.05603e-16 0)
(3 9.25456e-16 0)
(3 5.68203e-16 0)
(3 3.49265e-16 0)
(3 7.66496e-16 0)
(3 8.66526e-16 0)
(3 1.06003e-15 0)
(3 5.8937e-16 0)
(3 6.81763e-16 0)
(3 9.01024e-16 0)
(3 8.92801e-16 0)
(3 -5.36401e-12 0)
(2.0443 0.25125 0)
(0.861107 0.242603 0)
(0.819888 0.218234 0)
(0.863131 0.212661 0)
(0.892734 0.205319 0)
(3 -2.00879e-16 0)
(3 -3.84825e-16 0)
(3 -8.98846e-16 0)
(3 -1.33742e-15 0)
(3 -1.11036e-15 0)
(3 -2.38268e-16 0)
(3 4.13213e-16 0)
(3 8.65814e-16 0)
(3 8.83759e-16 0)
(3 9.14749e-16 0)
(3 5.13527e-16 0)
(3 2.14553e-16 0)
(3 5.39239e-16 0)
(3 7.24814e-16 0)
(3 1.1307e-15 0)
(3 1.19973e-15 0)
(3 1.60236e-15 0)
(3 1.74859e-15 0)
(3 -2.35683e-12 0)
(2.31007 0.207823 0)
(0.894689 0.219082 0)
(0.829114 0.193124 0)
(0.876594 0.189094 0)
(0.907971 0.184942 0)
(3 1.45639e-17 0)
(3 -1.99341e-16 0)
(3 -3.32537e-16 0)
(3 -1.38136e-16 0)
(3 4.17422e-16 0)
(3 7.63546e-16 0)
(3 4.19976e-16 0)
(3 1.74859e-16 0)
(3 2.46633e-16 0)
(3 7.33613e-16 0)
(3 9.39384e-16 0)
(3 7.89379e-16 0)
(3 3.50411e-16 0)
(3 1.37577e-16 0)
(3 3.91571e-16 0)
(3 8.33742e-16 0)
(3 8.16715e-16 0)
(3 6.19891e-16 0)
(3 -1.11345e-12 0)
(2.54012 0.148507 0)
(0.934556 0.179118 0)
(0.837883 0.166379 0)
(0.882088 0.164194 0)
(0.91183 0.161112 0)
(3 2.43749e-16 0)
(3 3.64335e-16 0)
(3 8.40158e-16 0)
(3 1.56599e-15 0)
(3 1.69652e-15 0)
(3 9.22268e-16 0)
(3 4.8587e-16 0)
(3 1.92298e-16 0)
(3 4.06102e-16 0)
(3 2.17835e-16 0)
(3 1.95685e-16 0)
(3 1.64373e-16 0)
(3 -1.15055e-15 0)
(3 -1.31993e-15 0)
(3 -6.42962e-16 0)
(3 -4.11874e-16 0)
(3 -8.87768e-16 0)
(3 -8.4598e-16 0)
(3 -3.16522e-13 0)
(2.68826 0.0883555 0)
(0.95665 0.130726 0)
(0.823215 0.138874 0)
(0.867487 0.138375 0)
(0.897354 0.13882 0)
(3 -1.58785e-17 0)
(3 9.7007e-17 0)
(3 2.24865e-16 0)
(3 1.95494e-16 0)
(3 4.40263e-16 0)
(3 2.22869e-17 0)
(3 2.07498e-16 0)
(3 3.55142e-16 0)
(3 -4.27412e-16 0)
(3 -4.78241e-16 0)
(3 -5.73342e-16 0)
(3 -1.06512e-15 0)
(3 -1.32476e-15 0)
(3 -6.66987e-16 0)
(3 -5.28474e-17 0)
(3 -6.85747e-17 0)
(3 -7.4834e-16 0)
(3 -8.90401e-16 0)
(3 -3.34882e-14 0)
(2.7669 0.0531342 0)
(0.966495 0.0984009 0)
(0.798511 0.117754 0)
(0.840961 0.118171 0)
(0.871358 0.120027 0)
(3 -2.86908e-17 0)
(3 1.54389e-16 0)
(3 -1.55186e-16 0)
(3 -1.62488e-16 0)
(3 -1.82407e-16 0)
(3 -5.34621e-18 0)
(3 1.9086e-16 0)
(3 4.65646e-16 0)
(3 -2.79523e-16 0)
(3 -1.11335e-16 0)
(3 -6.61472e-16 0)
(3 -1.21897e-15 0)
(3 -4.47657e-16 0)
(3 -4.03947e-16 0)
(3 -5.48864e-16 0)
(3 2.26932e-16 0)
(3 7.09416e-17 0)
(3 -3.51095e-16 0)
(3 -3.44869e-16 0)
(2.81992 0.0353312 0)
(0.981777 0.0784747 0)
(0.785569 0.0932789 0)
(0.823558 0.0950065 0)
(0.85162 0.0987862 0)
(3 -2.61411e-17 0)
(3 -5.57446e-17 0)
(3 -1.46211e-16 0)
(3 1.07218e-16 0)
(3 9.8357e-19 0)
(3 5.13411e-17 0)
(3 -2.26188e-16 0)
(3 -3.67095e-16 0)
(3 -5.41015e-16 0)
(3 -7.25282e-16 0)
(3 -1.06755e-15 0)
(3 -1.06235e-15 0)
(3 -1.01604e-15 0)
(3 -1.07765e-15 0)
(3 -1.38461e-15 0)
(3 -1.07886e-15 0)
(3 -5.58912e-16 0)
(3 7.86996e-17 0)
(3 8.54618e-16 0)
(2.85668 0.023783 0)
(0.997155 0.0626938 0)
(0.782773 0.0712029 0)
(0.817074 0.0735917 0)
(0.842889 0.0781171 0)
(3 -1.52282e-16 0)
(3 -3.57302e-16 0)
(3 -5.39907e-17 0)
(3 -7.48028e-17 0)
(3 -3.43935e-16 0)
(3 -1.23554e-15 0)
(3 -1.48335e-15 0)
(3 -1.33441e-15 0)
(3 -7.19722e-16 0)
(3 -1.08125e-15 0)
(3 -1.18296e-15 0)
(3 -8.5916e-16 0)
(3 -1.01504e-15 0)
(3 -1.31378e-15 0)
(3 -1.39129e-15 0)
(3 -1.7234e-15 0)
(3 -1.24468e-15 0)
(3 -2.91407e-16 0)
(3 -1.72116e-17 0)
(2.88023 0.015 0)
(1.00775 0.0451274 0)
(0.785005 0.0507932 0)
(0.818066 0.0538905 0)
(0.843721 0.0580756 0)
(3 -1.72003e-16 0)
(3 -6.45551e-16 0)
(3 -5.93697e-16 0)
(3 -6.81603e-16 0)
(3 -1.05842e-15 0)
(3 -1.62208e-15 0)
(3 -2.06233e-15 0)
(3 -1.67902e-15 0)
(3 -8.54736e-16 0)
(3 -9.79055e-16 0)
(3 -7.80821e-16 0)
(3 -6.71498e-16 0)
(3 -8.10861e-16 0)
(3 -1.05367e-15 0)
(3 -8.01579e-16 0)
(3 -4.59206e-16 0)
(3 -8.05003e-17 0)
(3 -1.25606e-16 0)
(3 1.38108e-16 0)
(2.89262 0.00607751 0)
(1.0123 0.0239886 0)
(0.786721 0.0298538 0)
(0.820056 0.0333542 0)
(0.846704 0.0370568 0)
(3 3.53866e-17 0)
(3 -4.49897e-16 0)
(3 -6.7461e-16 0)
(3 -6.1042e-16 0)
(3 -5.34852e-16 0)
(3 -7.99589e-16 0)
(3 -9.10528e-16 0)
(3 -8.73065e-16 0)
(3 -9.87939e-16 0)
(3 -9.12175e-16 0)
(3 -3.79321e-16 0)
(3 -4.47906e-16 0)
(3 -2.43905e-16 0)
(3 -3.5976e-16 0)
(3 -8.34959e-17 0)
(3 1.59442e-16 0)
(3 5.10595e-16 0)
(3 5.70294e-16 0)
(3 5.47729e-16 0)
(2.89331 0.000940121 0)
(1.0081 0.00613885 0)
(0.78083 0.0100221 0)
(0.814822 0.0120061 0)
(0.8431 0.0133551 0)
(1.1437 1.3531 0)
(0.178603 0.610129 0)
(-0.0341735 0.0929302 0)
(-0.0446883 -0.00259666 0)
(-0.0563811 0.00283948 0)
(-0.0900845 0.0151191 0)
(-0.128982 0.0128667 0)
(-0.153632 0.00360242 0)
(-0.170006 0.00427008 0)
(-0.179767 0.0152015 0)
(-0.195143 0.0229006 0)
(-0.214686 0.0243118 0)
(-0.235677 0.0247951 0)
(-0.258115 0.0237421 0)
(-0.27958 0.022172 0)
(-0.298258 0.019752 0)
(-0.308146 0.0160879 0)
(-0.313279 0.0125655 0)
(-0.31239 0.00700638 0)
(-0.302936 0.000475446 0)
(-0.286939 -0.00723242 0)
(-0.264457 -0.0148283 0)
(-0.237594 -0.0225931 0)
(-0.207391 -0.0292443 0)
(-0.174624 -0.0341323 0)
(-0.139548 -0.0365901 0)
(-0.101061 -0.0382702 0)
(-0.0581981 -0.0399542 0)
(-0.0112525 -0.0420666 0)
(0.0384234 -0.0449835 0)
(0.0887563 -0.0480414 0)
(0.137813 -0.0500813 0)
(0.184453 -0.0505908 0)
(0.229953 -0.0502692 0)
(0.274937 -0.0495145 0)
(0.320058 -0.0483978 0)
(0.365292 -0.0468029 0)
(0.41026 -0.0446361 0)
(0.45493 -0.0421636 0)
(0.499762 -0.0401031 0)
(0.545021 -0.0391207 0)
(0.59091 -0.0391384 0)
(0.636533 -0.0395796 0)
(0.680341 -0.0399227 0)
(0.721393 -0.0399895 0)
(0.760068 -0.0398389 0)
(0.79774 -0.0393762 0)
(0.834788 -0.0382457 0)
(0.871061 -0.0364675 0)
(0.906583 -0.0340881 0)
(0.941863 -0.0313871 0)
(0.977468 -0.0287578 0)
(1.01343 -0.0265021 0)
(1.04918 -0.0246273 0)
(1.08407 -0.0229096 0)
(1.11775 -0.0213677 0)
(1.15002 -0.0198976 0)
(1.18022 -0.0182186 0)
(1.20762 -0.016382 0)
(1.23251 -0.0148301 0)
(1.25588 -0.0137244 0)
(1.27865 -0.0128549 0)
(1.30097 -0.0117754 0)
(1.32234 -0.0099693 0)
(1.3426 -0.00756242 0)
(1.36264 -0.00539755 0)
(1.38393 -0.00366397 0)
(1.40701 -0.00208456 0)
(1.43006 -0.00098456 0)
(1.45094 -0.00042518 0)
(1.46983 -6.8779e-05 0)
(1.4874 0.000285934 0)
(1.50505 0.000290006 0)
(1.5233 -0.000359775 0)
(1.54033 -0.0020927 0)
(1.55535 -0.00414294 0)
(1.56974 -0.005407 0)
(1.58319 -0.00588813 0)
(1.59399 -0.00478388 0)
(1.60213 -0.00128357 0)
(1.61147 0.00242102 0)
(1.62426 0.00388163 0)
(1.6398 0.00463862 0)
(1.65936 0.00441187 0)
(1.6764 0.0014186 0)
(1.68813 -0.00126602 0)
(1.69977 -0.00130071 0)
(1.70755 0.000443842 0)
(1.70868 0.0034914 0)
(1.7119 0.00530269 0)
(1.72317 0.00544963 0)
(1.73558 0.00511467 0)
(1.74825 0.00437475 0)
(1.7599 0.00424978 0)
(1.76963 0.00501506 0)
(1.77973 0.00633573 0)
(1.61474 1.2117 0)
(1.07575 0.693555 0)
(0.733257 0.167916 0)
(0.382207 0.0217347 0)
(0.160749 0.0255547 0)
(0.0355288 0.0421764 0)
(-0.0368358 0.0359907 0)
(-0.0808808 0.0261865 0)
(-0.112944 0.032732 0)
(-0.132711 0.055413 0)
(-0.152012 0.07128 0)
(-0.1701 0.0705043 0)
(-0.185017 0.0654816 0)
(-0.202112 0.0572801 0)
(-0.218836 0.0475132 0)
(-0.231477 0.0380168 0)
(-0.2361 0.0290946 0)
(-0.232618 0.0200845 0)
(-0.221774 0.0110041 0)
(-0.203802 0.00188376 0)
(-0.18088 -0.0083565 0)
(-0.151687 -0.017288 0)
(-0.116699 -0.0273975 0)
(-0.0761415 -0.0378541 0)
(-0.0317294 -0.0466828 0)
(0.014423 -0.0534323 0)
(0.0603989 -0.0541906 0)
(0.105629 -0.0517693 0)
(0.151917 -0.050708 0)
(0.201153 -0.0523394 0)
(0.253455 -0.0568782 0)
(0.306413 -0.062594 0)
(0.356016 -0.0675849 0)
(0.400733 -0.0694488 0)
(0.441092 -0.0692139 0)
(0.48094 -0.0689675 0)
(0.522972 -0.0681727 0)
(0.566681 -0.0648121 0)
(0.609638 -0.0575778 0)
(0.649904 -0.0475438 0)
(0.688577 -0.0382667 0)
(0.727547 -0.0334087 0)
(0.767551 -0.0332537 0)
(0.807501 -0.0352753 0)
(0.845193 -0.0374282 0)
(0.879755 -0.039632 0)
(0.912864 -0.0428449 0)
(0.945857 -0.0460082 0)
(0.97862 -0.0472015 0)
(1.01028 -0.0458243 0)
(1.04066 -0.0421856 0)
(1.07072 -0.0375434 0)
(1.10146 -0.0332884 0)
(1.13272 -0.0300283 0)
(1.16367 -0.0274918 0)
(1.19365 -0.0254873 0)
(1.2224 -0.0238118 0)
(1.24926 -0.0217366 0)
(1.27305 -0.0187219 0)
(1.29376 -0.0156859 0)
(1.3128 -0.0141797 0)
(1.33186 -0.014657 0)
(1.35249 -0.0158635 0)
(1.37408 -0.0153867 0)
(1.39482 -0.0116889 0)
(1.41416 -0.00527638 0)
(1.43335 0.00184283 0)
(1.45286 0.00808046 0)
(1.47246 0.0115149 0)
(1.49133 0.0146151 0)
(1.50928 0.016174 0)
(1.52569 0.0180502 0)
(1.5411 0.019848 0)
(1.55522 0.0207171 0)
(1.56704 0.018958 0)
(1.57877 0.013537 0)
(1.59248 0.00501223 0)
(1.60659 -0.00380145 0)
(1.61924 -0.00916374 0)
(1.63285 -0.00791537 0)
(1.6461 0.00342612 0)
(1.65623 0.0173701 0)
(1.66552 0.0251748 0)
(1.67624 0.0264782 0)
(1.688 0.0216853 0)
(1.7039 0.0120725 0)
(1.71708 0.00263871 0)
(1.72852 -0.000714562 0)
(1.73836 0.00444012 0)
(1.74237 0.0174654 0)
(1.74348 0.0250385 0)
(1.74978 0.0249646 0)
(1.76024 0.0215528 0)
(1.77317 0.01382 0)
(1.78432 0.00699414 0)
(1.80003 0.00797052 0)
(1.60567 1.10438 0)
(1.44863 0.996128 0)
(1.36904 0.741876 0)
(0.989634 0.530157 0)
(0.614231 0.376761 0)
(0.377864 0.263104 0)
(0.233937 0.178137 0)
(0.133039 0.118755 0)
(0.0654012 0.084647 0)
(0.016582 0.0830236 0)
(-0.0130656 0.0828012 0)
(-0.0272583 0.0646915 0)
(-0.0265138 0.0435167 0)
(-0.0256683 0.026165 0)
(-0.0227959 0.011113 0)
(-0.0162018 -0.00299712 0)
(-0.00159108 -0.016821 0)
(0.0236007 -0.0297083 0)
(0.0597839 -0.0428796 0)
(0.104247 -0.0562044 0)
(0.153654 -0.06657 0)
(0.20294 -0.0806568 0)
(0.251517 -0.0933466 0)
(0.30106 -0.106549 0)
(0.354025 -0.121231 0)
(0.411153 -0.134744 0)
(0.470472 -0.145245 0)
(0.526926 -0.149097 0)
(0.577265 -0.146264 0)
(0.622261 -0.141095 0)
(0.666142 -0.13884 0)
(0.711856 -0.141347 0)
(0.75866 -0.145433 0)
(0.803063 -0.147039 0)
(0.839414 -0.142542 0)
(0.867671 -0.134583 0)
(0.894591 -0.128974 0)
(0.924838 -0.127664 0)
(0.958965 -0.128623 0)
(0.993672 -0.12777 0)
(1.02483 -0.122824 0)
(1.05256 -0.115689 0)
(1.07986 -0.109798 0)
(1.10829 -0.10644 0)
(1.13693 -0.104278 0)
(1.16286 -0.100999 0)
(1.18512 -0.096348 0)
(1.20562 -0.0925112 0)
(1.22681 -0.0894095 0)
(1.24896 -0.0860718 0)
(1.27088 -0.0817623 0)
(1.29186 -0.076972 0)
(1.31308 -0.0728097 0)
(1.33512 -0.0688492 0)
(1.35709 -0.0644712 0)
(1.37833 -0.060448 0)
(1.39876 -0.0568027 0)
(1.41858 -0.0535081 0)
(1.43677 -0.0500021 0)
(1.45237 -0.04644 0)
(1.46635 -0.0413683 0)
(1.47842 -0.0351595 0)
(1.4916 -0.031648 0)
(1.50634 -0.0315381 0)
(1.52293 -0.0325523 0)
(1.5404 -0.0319692 0)
(1.5562 -0.0294086 0)
(1.57157 -0.0255727 0)
(1.58708 -0.0208472 0)
(1.60165 -0.0171361 0)
(1.61507 -0.0148924 0)
(1.62789 -0.0132831 0)
(1.64072 -0.0101295 0)
(1.65287 -0.00340056 0)
(1.66314 0.00759248 0)
(1.6693 0.020116 0)
(1.67168 0.0269225 0)
(1.67883 0.0243588 0)
(1.69125 0.0194427 0)
(1.70687 0.011613 0)
(1.72296 0.00663665 0)
(1.73605 0.00808448 0)
(1.74727 0.0193094 0)
(1.75154 0.0352751 0)
(1.75192 0.0455031 0)
(1.75954 0.0440069 0)
(1.77034 0.0371867 0)
(1.78432 0.0268087 0)
(1.79811 0.018476 0)
(1.80784 0.0175442 0)
(1.8142 0.0258631 0)
(1.81183 0.0371362 0)
(1.81141 0.0376046 0)
(1.81942 0.0299581 0)
(1.83053 0.017351 0)
(1.84933 0.00769588 0)
(1.55171 1.00556 0)
(1.52378 0.983061 0)
(1.66671 0.884458 0)
(1.55031 0.760791 0)
(1.29439 0.582049 0)
(1.04588 0.403031 0)
(0.81044 0.281635 0)
(0.598927 0.189696 0)
(0.449939 0.113203 0)
(0.363323 0.0719554 0)
(0.31891 0.047333 0)
(0.307618 0.0272165 0)
(0.321547 0.00766079 0)
(0.34682 -0.0120475 0)
(0.378434 -0.0279725 0)
(0.413531 -0.0387205 0)
(0.451787 -0.0466981 0)
(0.496468 -0.0569465 0)
(0.548251 -0.0729151 0)
(0.609295 -0.095328 0)
(0.67862 -0.121303 0)
(0.751926 -0.139447 0)
(0.818784 -0.145962 0)
(0.873731 -0.14292 0)
(0.920855 -0.138172 0)
(0.966934 -0.138919 0)
(1.01737 -0.146638 0)
(1.07193 -0.156097 0)
(1.12353 -0.1611 0)
(1.1639 -0.157704 0)
(1.19221 -0.147879 0)
(1.21573 -0.13867 0)
(1.24095 -0.134987 0)
(1.27091 -0.136997 0)
(1.30201 -0.13886 0)
(1.32482 -0.133895 0)
(1.33899 -0.124602 0)
(1.35199 -0.116499 0)
(1.36835 -0.112715 0)
(1.38907 -0.112621 0)
(1.40998 -0.112598 0)
(1.42626 -0.109982 0)
(1.43921 -0.106243 0)
(1.45226 -0.103473 0)
(1.46667 -0.101764 0)
(1.48159 -0.0992427 0)
(1.49393 -0.093362 0)
(1.5032 -0.0852589 0)
(1.51337 -0.0776704 0)
(1.52576 -0.0716511 0)
(1.53971 -0.0668933 0)
(1.5529 -0.0613287 0)
(1.56497 -0.0531567 0)
(1.57811 -0.04301 0)
(1.59112 -0.0336117 0)
(1.60345 -0.027587 0)
(1.61544 -0.0248228 0)
(1.62777 -0.0245203 0)
(1.64001 -0.0252539 0)
(1.65156 -0.0255624 0)
(1.66208 -0.0233351 0)
(1.67051 -0.0177593 0)
(1.67639 -0.00961553 0)
(1.68368 -0.00231249 0)
(1.69525 0.00163647 0)
(1.7081 0.00254354 0)
(1.72071 0.00269966 0)
(1.73285 0.00371038 0)
(1.74475 0.00555613 0)
(1.75593 0.00793998 0)
(1.76543 0.010285 0)
(1.77329 0.0110317 0)
(1.78107 0.00886862 0)
(1.78946 0.00454554 0)
(1.79725 0.000251746 0)
(1.80256 -0.00119379 0)
(1.80425 0.00259575 0)
(1.80625 0.00971299 0)
(1.81474 0.0150469 0)
(1.8267 0.0173177 0)
(1.83897 0.0168492 0)
(1.85071 0.0130049 0)
(1.86059 0.00777435 0)
(1.86743 0.00489165 0)
(1.8689 0.00931044 0)
(1.86745 0.0177758 0)
(1.87574 0.0217717 0)
(1.88637 0.0229147 0)
(1.89717 0.0208368 0)
(1.90762 0.0151016 0)
(1.91634 0.0110388 0)
(1.91953 0.0117443 0)
(1.91346 0.0208492 0)
(1.91297 0.0288565 0)
(1.92117 0.0308772 0)
(1.93635 0.0274556 0)
(1.50482 0.938236 0)
(1.52441 0.927213 0)
(1.67807 0.8953 0)
(1.73664 0.839842 0)
(1.64066 0.789688 0)
(1.52445 0.683695 0)
(1.35427 0.555969 0)
(1.14984 0.4054 0)
(0.984048 0.264103 0)
(0.902563 0.135722 0)
(0.870069 0.061694 0)
(0.853428 0.0296395 0)
(0.860223 0.0060167 0)
(0.886076 -0.0140231 0)
(0.925818 -0.0378785 0)
(0.973869 -0.0644619 0)
(1.02804 -0.0901013 0)
(1.08276 -0.110501 0)
(1.13429 -0.124662 0)
(1.18396 -0.138011 0)
(1.23597 -0.156483 0)
(1.2932 -0.183428 0)
(1.35214 -0.210116 0)
(1.40114 -0.225304 0)
(1.43442 -0.226924 0)
(1.4579 -0.222036 0)
(1.47974 -0.217947 0)
(1.50636 -0.218209 0)
(1.53897 -0.222067 0)
(1.56869 -0.223725 0)
(1.58573 -0.217051 0)
(1.59187 -0.20555 0)
(1.59685 -0.195811 0)
(1.60588 -0.190637 0)
(1.62206 -0.189082 0)
(1.63875 -0.183059 0)
(1.64621 -0.170972 0)
(1.6485 -0.158123 0)
(1.65158 -0.147817 0)
(1.65824 -0.141452 0)
(1.66921 -0.134835 0)
(1.6782 -0.124247 0)
(1.6833 -0.113251 0)
(1.68783 -0.104598 0)
(1.69384 -0.0985125 0)
(1.70185 -0.0925062 0)
(1.70968 -0.0849468 0)
(1.71426 -0.0779988 0)
(1.7182 -0.0701725 0)
(1.72453 -0.0641863 0)
(1.73303 -0.0589649 0)
(1.74337 -0.0516177 0)
(1.75298 -0.0456665 0)
(1.76166 -0.043408 0)
(1.76996 -0.0401767 0)
(1.77727 -0.0343996 0)
(1.78417 -0.0274353 0)
(1.79242 -0.0205574 0)
(1.80142 -0.0159148 0)
(1.81068 -0.0129849 0)
(1.81966 -0.0111043 0)
(1.8275 -0.00879002 0)
(1.83303 -0.00616255 0)
(1.83765 -0.00396025 0)
(1.84491 -0.00283341 0)
(1.85473 -0.00113248 0)
(1.8653 0.00138035 0)
(1.87563 0.00432751 0)
(1.88543 0.00769837 0)
(1.89442 0.0117005 0)
(1.90205 0.0164687 0)
(1.90833 0.020252 0)
(1.91417 0.0205323 0)
(1.92033 0.018307 0)
(1.92644 0.0162935 0)
(1.93139 0.0156346 0)