/*--------------------------------*- C++ -*----------------------------------*\
  =========                 |
  \\      /  F ield         | OpenFOAM: The Open Source CFD Toolbox
   \\    /   O peration     | Website:  https://openfoam.org
    \\  /    A nd           | Version:  7
     \\/     M anipulation  |
\*---------------------------------------------------------------------------*/
FoamFile
{
    version     2.0;
    format      ascii;
    class       volScalarField;
    location    "50";
    object      p;
}
// * * * * * * * * * * * * * * * * * * * * * * * * * * * * * * * * * * * * * //

dimensions      [0 2 -2 0 0 0 0];

internalField   nonuniform List<scalar> 
31800
(
-0.255198
-0.256739
-0.257615
-0.258327
-0.258943
-0.259481
-0.259975
-0.260447
-0.260909
-0.261364
-0.261813
-0.262251
-0.262668
-0.263056
-0.263401
-0.263693
-0.263918
-0.264062
-0.264114
-0.264063
-0.263903
-0.263637
-0.263275
-0.262825
-0.262343
-0.255306
-0.256836
-0.257705
-0.258412
-0.259024
-0.259558
-0.260049
-0.260519
-0.260978
-0.261431
-0.261879
-0.262314
-0.26273
-0.263117
-0.263462
-0.263753
-0.263977
-0.26412
-0.26417
-0.264117
-0.263953
-0.26368
-0.26331
-0.262847
-0.262347
-0.255523
-0.257029
-0.257886
-0.258583
-0.259186
-0.259713
-0.260198
-0.260662
-0.261116
-0.261565
-0.262009
-0.262441
-0.262855
-0.263239
-0.263582
-0.263872
-0.264095
-0.264236
-0.264284
-0.264225
-0.264053
-0.263767
-0.263381
-0.262889
-0.262351
-0.255845
-0.257316
-0.258155
-0.258837
-0.259427
-0.259943
-0.260419
-0.260874
-0.261321
-0.261763
-0.262201
-0.262629
-0.263038
-0.263419
-0.26376
-0.264048
-0.264268
-0.264407
-0.26445
-0.264385
-0.2642
-0.263895
-0.263484
-0.262951
-0.26235
-0.256268
-0.257695
-0.258509
-0.259171
-0.259744
-0.260246
-0.260708
-0.261152
-0.261589
-0.262023
-0.262453
-0.262874
-0.263277
-0.263654
-0.263991
-0.264275
-0.264493
-0.264628
-0.264666
-0.264591
-0.264391
-0.26406
-0.263617
-0.26303
-0.262335
-0.256788
-0.25816
-0.258944
-0.259582
-0.260134
-0.260617
-0.261063
-0.261492
-0.261916
-0.262338
-0.262758
-0.26317
-0.263566
-0.263936
-0.264268
-0.264548
-0.264762
-0.264893
-0.264925
-0.264839
-0.264619
-0.264258
-0.263774
-0.263124
-0.262293
-0.257399
-0.258707
-0.259456
-0.260065
-0.260592
-0.261053
-0.261479
-0.26189
-0.262297
-0.262704
-0.263111
-0.263511
-0.263898
-0.26426
-0.264585
-0.264859
-0.265068
-0.265194
-0.265218
-0.265121
-0.26488
-0.264483
-0.26395
-0.263232
-0.26221
-0.258094
-0.25933
-0.260039
-0.260616
-0.261113
-0.261547
-0.261949
-0.262338
-0.262726
-0.263115
-0.263505
-0.263891
-0.264265
-0.264617
-0.264933
-0.2652
-0.265403
-0.265523
-0.265538
-0.265428
-0.265165
-0.264728
-0.264138
-0.263357
-0.262066
-0.258866
-0.260024
-0.260689
-0.261228
-0.261692
-0.262096
-0.26247
-0.262833
-0.263196
-0.263563
-0.263933
-0.264302
-0.26466
-0.264998
-0.265303
-0.265561
-0.265756
-0.265868
-0.265874
-0.26575
-0.265465
-0.264986
-0.264327
-0.263503
-0.261825
-0.259706
-0.260782
-0.2614
-0.261898
-0.262323
-0.262692
-0.263033
-0.263366
-0.2637
-0.264041
-0.264388
-0.264734
-0.265074
-0.265395
-0.265686
-0.265932
-0.266116
-0.266218
-0.266214
-0.266076
-0.265768
-0.265247
-0.26451
-0.263693
-0.261426
-0.260609
-0.261598
-0.262164
-0.262617
-0.263001
-0.26333
-0.263634
-0.263931
-0.264232
-0.264542
-0.264859
-0.26518
-0.265496
-0.265797
-0.26607
-0.2663
-0.266471
-0.266562
-0.266545
-0.266392
-0.266061
-0.265502
-0.264671
-0.263945
-0.260875
-0.261565
-0.262466
-0.262978
-0.263383
-0.263719
-0.264005
-0.264266
-0.264521
-0.264783
-0.265057
-0.26534
-0.26563
-0.265918
-0.266193
-0.266444
-0.266656
-0.26681
-0.266885
-0.266855
-0.266684
-0.26633
-0.265742
-0.26479
-0.264055
-0.260532
-0.262567
-0.263379
-0.263835
-0.264188
-0.264474
-0.264709
-0.264922
-0.265131
-0.265348
-0.265578
-0.265822
-0.266075
-0.266329
-0.266575
-0.266799
-0.266987
-0.26712
-0.267176
-0.267128
-0.266938
-0.266557
-0.265945
-0.264888
-0.264145
-0.260052
-0.26361
-0.264333
-0.264731
-0.265028
-0.265258
-0.265439
-0.265598
-0.265754
-0.265919
-0.2661
-0.266298
-0.266508
-0.266722
-0.266932
-0.267124
-0.267282
-0.267389
-0.267422
-0.267351
-0.267139
-0.266726
-0.266101
-0.264901
-0.264274
-0.259397
-0.264687
-0.265322
-0.26566
-0.265899
-0.26607
-0.26619
-0.266288
-0.266383
-0.26649
-0.266615
-0.266759
-0.26692
-0.267088
-0.267256
-0.267409
-0.267533
-0.267609
-0.267612
-0.267513
-0.267274
-0.26682
-0.266195
-0.264801
-0.264417
-0.258587
-0.265793
-0.266344
-0.266621
-0.266798
-0.266904
-0.266958
-0.266988
-0.267016
-0.267056
-0.267118
-0.267201
-0.267305
-0.267421
-0.267539
-0.267648
-0.267731
-0.267769
-0.267736
-0.267602
-0.267332
-0.266821
-0.266216
-0.264561
-0.264546
-0.257633
-0.266925
-0.267395
-0.267611
-0.267722
-0.267758
-0.267739
-0.267695
-0.267647
-0.267614
-0.267603
-0.267618
-0.267657
-0.267713
-0.267777
-0.267834
-0.267869
-0.267863
-0.267788
-0.267611
-0.267303
-0.266717
-0.266152
-0.264161
-0.264627
-0.256553
-0.268081
-0.268474
-0.268627
-0.26867
-0.268631
-0.268533
-0.268406
-0.268275
-0.268159
-0.268069
-0.268007
-0.267974
-0.267963
-0.267964
-0.267963
-0.267945
-0.267887
-0.267763
-0.267534
-0.267183
-0.266499
-0.265993
-0.263594
-0.264614
-0.255385
-0.269262
-0.269582
-0.269671
-0.269642
-0.269522
-0.269337
-0.26912
-0.268898
-0.268691
-0.268512
-0.268367
-0.268254
-0.268168
-0.268099
-0.268034
-0.267955
-0.267839
-0.267658
-0.267367
-0.266968
-0.266162
-0.265724
-0.262866
-0.264444
-0.254182
-0.270467
-0.270719
-0.270744
-0.270638
-0.270431
-0.270153
-0.269838
-0.269516
-0.26921
-0.268934
-0.268696
-0.268496
-0.268328
-0.268183
-0.268047
-0.2679
-0.267719
-0.267475
-0.267112
-0.266655
-0.265707
-0.265328
-0.262001
-0.264043
-0.253003
-0.271702
-0.27189
-0.271847
-0.271661
-0.271362
-0.270982
-0.270561
-0.270131
-0.269717
-0.269336
-0.268998
-0.268703
-0.268447
-0.268219
-0.268006
-0.267785
-0.267532
-0.267215
-0.26677
-0.266242
-0.265137
-0.264778
-0.261032
-0.263337
-0.251887
-0.272971
-0.273098
-0.272986
-0.272714
-0.272316
-0.271828
-0.271292
-0.270745
-0.270215
-0.269721
-0.269275
-0.268879
-0.268528
-0.268212
-0.267915
-0.267614
-0.267281
-0.266882
-0.266341
-0.265724
-0.264457
-0.264045
-0.259985
-0.262267
-0.250834
-0.274282
-0.27435
-0.274166
-0.273803
-0.273298
-0.272694
-0.272035
-0.271363
-0.270709
-0.270096
-0.269535
-0.26903
-0.268578
-0.268168
-0.267781
-0.267394
-0.266972
-0.266478
-0.265829
-0.265094
-0.263667
-0.2631
-0.258868
-0.260806
-0.249792
-0.275645
-0.275653
-0.275394
-0.274933
-0.274316
-0.273587
-0.272797
-0.271993
-0.271207
-0.270466
-0.269784
-0.269166
-0.268608
-0.268097
-0.267614
-0.267131
-0.266609
-0.266006
-0.265231
-0.264343
-0.262756
-0.261923
-0.257661
-0.25897
-0.248678
-0.277069
-0.277018
-0.276677
-0.276113
-0.275374
-0.274513
-0.273585
-0.27264
-0.271716
-0.270842
-0.270033
-0.269296
-0.268626
-0.268009
-0.267423
-0.266834
-0.266198
-0.265466
-0.264541
-0.26346
-0.261708
-0.260507
-0.256319
-0.256806
-0.247404
-0.278569
-0.278454
-0.278025
-0.277351
-0.276483
-0.275482
-0.274408
-0.273315
-0.272247
-0.271233
-0.270293
-0.269431
-0.268644
-0.267914
-0.267215
-0.266507
-0.26574
-0.264853
-0.26375
-0.262432
-0.260495
-0.258848
-0.254789
-0.254366
-0.245898
-0.280157
-0.279972
-0.279451
-0.278657
-0.277652
-0.276502
-0.275275
-0.274028
-0.272809
-0.271652
-0.270575
-0.269584
-0.268673
-0.267823
-0.266999
-0.266156
-0.265234
-0.26416
-0.262843
-0.261244
-0.259088
-0.25695
-0.253019
-0.251681
-0.244103
-0.281851
-0.281586
-0.280963
-0.280041
-0.27889
-0.277584
-0.276196
-0.27479
-0.273416
-0.27211
-0.270892
-0.269767
-0.268726
-0.267744
-0.26678
-0.26578
-0.264673
-0.263377
-0.261803
-0.259883
-0.257461
-0.254814
-0.250972
-0.24873
-0.241983
-0.283666
-0.283311
-0.282576
-0.281516
-0.28021
-0.27874
-0.277185
-0.275614
-0.274079
-0.27262
-0.271257
-0.269992
-0.268812
-0.267684
-0.266561
-0.265375
-0.264048
-0.262488
-0.260613
-0.258335
-0.255598
-0.252452
-0.248626
-0.245442
-0.239577
-0.285621
-0.285158
-0.284302
-0.283094
-0.281623
-0.279981
-0.278253
-0.276511
-0.274813
-0.273197
-0.271683
-0.27027
-0.268939
-0.267649
-0.26634
-0.264935
-0.263348
-0.26148
-0.259257
-0.256591
-0.253496
-0.24989
-0.245976
-0.241821
-0.237065
-0.28773
-0.287146
-0.286154
-0.284787
-0.283142
-0.281321
-0.279413
-0.277496
-0.27563
-0.273852
-0.272181
-0.27061
-0.269113
-0.267637
-0.266112
-0.264449
-0.262556
-0.260336
-0.257725
-0.254648
-0.251164
-0.247156
-0.243032
-0.238186
-0.234412
-0.290012
-0.289287
-0.288146
-0.286608
-0.28478
-0.282771
-0.280678
-0.278582
-0.276542
-0.274598
-0.272762
-0.27102
-0.269336
-0.267646
-0.265867
-0.263903
-0.261658
-0.259043
-0.256011
-0.25251
-0.248627
-0.244261
-0.239829
-0.234744
-0.230623
-0.292486
-0.291597
-0.290292
-0.28857
-0.286548
-0.284345
-0.282061
-0.27978
-0.277564
-0.275446
-0.273433
-0.271504
-0.269608
-0.267669
-0.265594
-0.263282
-0.26064
-0.257593
-0.254117
-0.250186
-0.245912
-0.241214
-0.236494
-0.231206
-0.226719
-0.295167
-0.294089
-0.292605
-0.290688
-0.288462
-0.286056
-0.283575
-0.281105
-0.278705
-0.276405
-0.274202
-0.272063
-0.269923
-0.267695
-0.265278
-0.262569
-0.259488
-0.25598
-0.252048
-0.247694
-0.243045
-0.238044
-0.233061
-0.227613
-0.222895
-0.298072
-0.296779
-0.2951
-0.292973
-0.290533
-0.287917
-0.285233
-0.282569
-0.279978
-0.277483
-0.275071
-0.272694
-0.270273
-0.26771
-0.2649
-0.261749
-0.258194
-0.254207
-0.249816
-0.245052
-0.240051
-0.234776
-0.229562
-0.223981
-0.219085
-0.301215
-0.29968
-0.297788
-0.295439
-0.292774
-0.28994
-0.287048
-0.284182
-0.28139
-0.278685
-0.276039
-0.27339
-0.270644
-0.267696
-0.264445
-0.260809
-0.256753
-0.252275
-0.247433
-0.24228
-0.236953
-0.231429
-0.226014
-0.220312
-0.215296
-0.304611
-0.302804
-0.300683
-0.298098
-0.295199
-0.292139
-0.289032
-0.285955
-0.28295
-0.280014
-0.277104
-0.27414
-0.27102
-0.267636
-0.263894
-0.259739
-0.255162
-0.250195
-0.244916
-0.239395
-0.233769
-0.228019
-0.222426
-0.216614
-0.211498
-0.308272
-0.306164
-0.303797
-0.300963
-0.297819
-0.294526
-0.291195
-0.287897
-0.284661
-0.281468
-0.278256
-0.274931
-0.271383
-0.267508
-0.263234
-0.258531
-0.253424
-0.247974
-0.242276
-0.236412
-0.23051
-0.224555
-0.218799
-0.212884
-0.207682
-0.312209
-0.30977
-0.30714
-0.304046
-0.300647
-0.297113
-0.293549
-0.290016
-0.286526
-0.283042
-0.279483
-0.275743
-0.27171
-0.267295
-0.262449
-0.25718
-0.251543
-0.245623
-0.239528
-0.233344
-0.227187
-0.221042
-0.215135
-0.209122
-0.203836
-0.316431
-0.313632
-0.310723
-0.307357
-0.303694
-0.29991
-0.296101
-0.292314
-0.288543
-0.284727
-0.280769
-0.276555
-0.27198
-0.266976
-0.26153
-0.255684
-0.249523
-0.243151
-0.236681
-0.230198
-0.223803
-0.217481
-0.21143
-0.205323
-0.199955
-0.320947
-0.317758
-0.314556
-0.310906
-0.30697
-0.302926
-0.298858
-0.294794
-0.290705
-0.286508
-0.282093
-0.277342
-0.272169
-0.266536
-0.260468
-0.254042
-0.247369
-0.240565
-0.233741
-0.226977
-0.220358
-0.213869
-0.207681
-0.201482
-0.19603
-0.325762
-0.322155
-0.318646
-0.314702
-0.310485
-0.306169
-0.301823
-0.297452
-0.293001
-0.288367
-0.283428
-0.278078
-0.272254
-0.265958
-0.259256
-0.252255
-0.245086
-0.237869
-0.230711
-0.223682
-0.216852
-0.210204
-0.203881
-0.197593
-0.192057
-0.330878
-0.326828
-0.322999
-0.318753
-0.314244
-0.309643
-0.304995
-0.300279
-0.295413
-0.290277
-0.284748
-0.278735
-0.272214
-0.26523
-0.257888
-0.250323
-0.242676
-0.235067
-0.227592
-0.220312
-0.21328
-0.206478
-0.200025
-0.193651
-0.188029
-0.336296
-0.331777
-0.327618
-0.323062
-0.318252
-0.313348
-0.308369
-0.303262
-0.297921
-0.292211
-0.286019
-0.279286
-0.272029
-0.26434
-0.256361
-0.248246
-0.24014
-0.232158
-0.224382
-0.216863
-0.209637
-0.202686
-0.196106
-0.18965
-0.183943
-0.342012
-0.337002
-0.332505
-0.327631
-0.322508
-0.31728
-0.311932
-0.30638
-0.300493
-0.294135
-0.287211
-0.279702
-0.271679
-0.263278
-0.25467
-0.246023
-0.237478
-0.229139
-0.221077
-0.213327
-0.205915
-0.198822
-0.192118
-0.185583
-0.179791
-0.348018
-0.342498
-0.337656
-0.332458
-0.327008
-0.321428
-0.315666
-0.309606
-0.303097
-0.296012
-0.288288
-0.279959
-0.271148
-0.262035
-0.252811
-0.24365
-0.234684
-0.226006
-0.21767
-0.2097
-0.202109
-0.194876
-0.188054
-0.181444
-0.17557
-0.354301
-0.348257
-0.343065
-0.337537
-0.331743
-0.325777
-0.319548
-0.312906
-0.305693
-0.297802
-0.289216
-0.28003
-0.27042
-0.2606
-0.250778
-0.241122
-0.231755
-0.222752
-0.214153
-0.205972
-0.198209
-0.190843
-0.183907
-0.177227
-0.171273
-0.360846
-0.354264
-0.34872
-0.342854
-0.336696
-0.330304
-0.323543
-0.316239
-0.308238
-0.299464
-0.289964
-0.279893
-0.26948
-0.258966
-0.248564
-0.238434
-0.228683
-0.21937
-0.210519
-0.202134
-0.194207
-0.186715
-0.17967
-0.172927
-0.166896
-0.367629
-0.360501
-0.354605
-0.348392
-0.341843
-0.334976
-0.327613
-0.319561
-0.310683
-0.300957
-0.290497
-0.279525
-0.268314
-0.257122
-0.246161
-0.235577
-0.225459
-0.215849
-0.206758
-0.198179
-0.190096
-0.182483
-0.175337
-0.168538
-0.162433
-0.37462
-0.366944
-0.360696
-0.354126
-0.347154
-0.339755
-0.33171
-0.322819
-0.312981
-0.302239
-0.290786
-0.278906
-0.266906
-0.255057
-0.24356
-0.232543
-0.222074
-0.21218
-0.20286
-0.194097
-0.185866
-0.17814
-0.170902
-0.164053
-0.157881
-0.381785
-0.373562
-0.366963
-0.360022
-0.352591
-0.344594
-0.33578
-0.325958
-0.31508
-0.303269
-0.2908
-0.278013
-0.265244
-0.252761
-0.24075
-0.229319
-0.218517
-0.208354
-0.198816
-0.189879
-0.18151
-0.17368
-0.166357
-0.159467
-0.153233
-0.38908
-0.380318
-0.37337
-0.366042
-0.358105
-0.349437
-0.339764
-0.32892
-0.316929
-0.304008
-0.290511
-0.276829
-0.263312
-0.25022
-0.237719
-0.225895
-0.214776
-0.204357
-0.194615
-0.185515
-0.17702
-0.169094
-0.161698
-0.154774
-0.148485
-0.396457
-0.387167
-0.379872
-0.372136
-0.363642
-0.354224
-0.343597
-0.331643
-0.318478
-0.304417
-0.289892
-0.275333
-0.261094
-0.247421
-0.234455
-0.222257
-0.21084
-0.200181
-0.190248
-0.180997
-0.172387
-0.164377
-0.156918
-0.149971
-0.143634
-0.403859
-0.394057
-0.386418
-0.378248
-0.369139
-0.358885
-0.34721
-0.334067
-0.319677
-0.30446
-0.288917
-0.273506
-0.258576
-0.24435
-0.230943
-0.218395
-0.206696
-0.195814
-0.185704
-0.176317
-0.167604
-0.159521
-0.152011
-0.14505
-0.138675
-0.411222
-0.400931
-0.392948
-0.384314
-0.374526
-0.363347
-0.350533
-0.33613
-0.320478
-0.304102
-0.287561
-0.271328
-0.255739
-0.240991
-0.227171
-0.214293
-0.202333
-0.191244
-0.180974
-0.171465
-0.162664
-0.154521
-0.146974
-0.140009
-0.133605
-0.418476
-0.407722
-0.399394
-0.390262
-0.379725
-0.367532
-0.353494
-0.337772
-0.320837
-0.30331
-0.285798
-0.26878
-0.252569
-0.23733
-0.223123
-0.20994
-0.197739
-0.186463
-0.176048
-0.166434
-0.157559
-0.14937
-0.1418
-0.134842
-0.12842
-0.425545
-0.414358
-0.405684
-0.396014
-0.384654
-0.37136
-0.356022
-0.338936
-0.320709
-0.302052
-0.283606
-0.265843
-0.249047
-0.233351
-0.218785
-0.205322
-0.192902
-0.181458
-0.170919
-0.161216
-0.152285
-0.144063
-0.136485
-0.129546
-0.123119
-0.432345
-0.420761
-0.411737
-0.401485
-0.389228
-0.374748
-0.358044
-0.339566
-0.320054
-0.300298
-0.280961
-0.262497
-0.245156
-0.229038
-0.214144
-0.200426
-0.187811
-0.176222
-0.165578
-0.155805
-0.146833
-0.138596
-0.131025
-0.124117
-0.117697
-0.438789
-0.426846
-0.417466
-0.406585
-0.393356
-0.377614
-0.359494
-0.339609
-0.318833
-0.29802
-0.277841
-0.258724
-0.24088
-0.224376
-0.209185
-0.195241
-0.182456
-0.170744
-0.160016
-0.150193
-0.1412
-0.132964
-0.125418
-0.118552
-0.112155
-0.444786
-0.432525
-0.42278
-0.411222
-0.396949
-0.379878
-0.360304
-0.339016
-0.317009
-0.29519
-0.274224
-0.254504
-0.236203
-0.21935
-0.203896
-0.189755
-0.176827
-0.165016
-0.154228
-0.144376
-0.13538
-0.127163
-0.119658
-0.112849
-0.106491
-0.450241
-0.437705
-0.427585
-0.4153
-0.399916
-0.38146
-0.360413
-0.337741
-0.31455
-0.291784
-0.27009
-0.24982
-0.231107
-0.213947
-0.198264
-0.183957
-0.170915
-0.159031
-0.148206
-0.138347
-0.129369
-0.12119
-0.113744
-0.107005
-0.100704
-0.455057
-0.442292
-0.431785
-0.418723
-0.402167
-0.382286
-0.359763
-0.335741
-0.311425
-0.287778
-0.265418
-0.244656
-0.225579
-0.208152
-0.192278
-0.177838
-0.164712
-0.152783
-0.141946
-0.132102
-0.123164
-0.115042
-0.107674
-0.101019
-0.0947956
-0.459135
-0.446187
-0.435281
-0.421396
-0.403617
-0.382285
-0.358301
-0.332978
-0.307605
-0.283149
-0.260192
-0.238994
-0.219604
-0.201955
-0.185928
-0.17139
-0.15821
-0.146265
-0.135442
-0.125638
-0.116761
-0.108717
-0.101445
-0.0948918
-0.0887683
-0.462378
-0.449295
-0.437975
-0.423225
-0.404182
-0.381391
-0.355978
-0.329419
-0.303066
-0.277878
-0.254393
-0.232821
-0.21317
-0.195344
-0.179204
-0.164604
-0.151403
-0.139472
-0.128691
-0.118952
-0.110157
-0.102212
-0.0950533
-0.0886214
-0.0826259
-0.46469
-0.451518
-0.439774
-0.42412
-0.403788
-0.379545
-0.352751
-0.325031
-0.297784
-0.271947
-0.248007
-0.226124
-0.206266
-0.188309
-0.172098
-0.157474
-0.144288
-0.132401
-0.12169
-0.112042
-0.103353
-0.0955245
-0.0884971
-0.082203
-0.0763589
-0.465978
-0.452764
-0.440582
-0.423996
-0.402361
-0.376694
-0.348584
-0.31979
-0.291742
-0.265341
-0.241021
-0.218891
-0.198881
-0.180843
-0.164605
-0.149996
-0.136859
-0.12505
-0.114437
-0.104906
-0.0963472
-0.0886568
-0.0817796
-0.0756348
-0.0699284
-0.466152
-0.452943
-0.440314
-0.422773
-0.399839
-0.37279
-0.343444
-0.313673
-0.284921
-0.258047
-0.233424
-0.211113
-0.191009
-0.17294
-0.156719
-0.142166
-0.129115
-0.117416
-0.106933
-0.0975454
-0.0891401
-0.0816113
-0.0749119
-0.0689322
-0.0632856
-0.465128
-0.45197
-0.438887
-0.420381
-0.396165
-0.367794
-0.337304
-0.306663
-0.27731
-0.250054
-0.225207
-0.202783
-0.182643
-0.164595
-0.148438
-0.133982
-0.121055
-0.109499
-0.0991763
-0.0899603
-0.0817331
-0.0743906
-0.067898
-0.0621118
-0.0564748
-0.462829
-0.449765
-0.436225
-0.416753
-0.391291
-0.361674
-0.330143
-0.298745
-0.268899
-0.241354
-0.216364
-0.193895
-0.17378
-0.155806
-0.13976
-0.125444
-0.112679
-0.101302
-0.0911693
-0.0821531
-0.0741291
-0.0669977
-0.0607249
-0.055079
-0.0496807
-0.459183
-0.446256
-0.432262
-0.411836
-0.385176
-0.354404
-0.321948
-0.289912
-0.259682
-0.231943
-0.206891
-0.184447
-0.164417
-0.146572
-0.130685
-0.116553
-0.103988
-0.0928247
-0.0829144
-0.0741274
-0.0663327
-0.0594361
-0.0533932
-0.0479199
-0.0427989
-0.454129
-0.441381
-0.426938
-0.405581
-0.377789
-0.345966
-0.312709
-0.280157
-0.249655
-0.22182
-0.196787
-0.17444
-0.154557
-0.136894
-0.121216
-0.107311
-0.0949856
-0.0840734
-0.0744177
-0.0658859
-0.0583471
-0.0517082
-0.0459131
-0.0406455
-0.0358082
-0.447613
-0.435085
-0.420206
-0.397953
-0.369109
-0.336349
-0.302421
-0.269482
-0.23882
-0.210985
-0.186054
-0.163874
-0.144201
-0.126776
-0.111356
-0.0977231
-0.085679
-0.0750509
-0.0656822
-0.0574348
-0.0501776
-0.043819
-0.0382932
-0.0332561
-0.028708
-0.439591
-0.427321
-0.412025
-0.388925
-0.35912
-0.32555
-0.291088
-0.257889
-0.227183
-0.199444
-0.174697
-0.152755
-0.133355
-0.116223
-0.101114
-0.0877961
-0.0760722
-0.0657643
-0.0567143
-0.0487804
-0.0418304
-0.0357752
-0.0305398
-0.025752
-0.0215051
-0.430029
-0.418056
-0.402368
-0.37848
-0.347819
-0.313572
-0.278716
-0.245389
-0.21475
-0.187204
-0.162723
-0.141092
-0.122028
-0.105247
-0.090494
-0.077537
-0.066173
-0.0562213
-0.0475219
-0.0399299
-0.0333125
-0.0275839
-0.0226591
-0.0181368
-0.0142068
-0.418905
-0.407264
-0.391216
-0.36661
-0.335209
-0.300426
-0.265319
-0.231994
-0.201535
-0.174274
-0.150144
-0.128897
-0.110229
-0.0938536
-0.0795072
-0.0669553
-0.0559909
-0.046431
-0.0381135
-0.0308917
-0.0246322
-0.019253
-0.0146578
-0.0104165
-0.00682069
-0.406205
-0.394931
-0.378562
-0.353319
-0.321301
-0.286128
-0.250914
-0.217721
-0.18755
-0.160666
-0.136984
-0.11618
-0.0979712
-0.0820559
-0.0681655
-0.0560623
-0.0455367
-0.0364034
-0.0284992
-0.0216753
-0.0157987
-0.0107911
-0.00654364
-0.00259867
0.000645417
-0.391928
-0.381056
-0.36441
-0.338619
-0.306117
-0.270702
-0.235527
-0.202592
-0.172818
-0.146421
-0.123237
-0.102957
-0.0852691
-0.0698682
-0.0564822
-0.0448709
-0.0348224
-0.0261503
-0.01869
-0.0122912
-0.00682194
-0.00220766
0.00167453
0.00530791
0.00818306
-0.376084
-0.365645
-0.348774
-0.322532
-0.289683
-0.254178
-0.219185
-0.186634
-0.15737
-0.131537
-0.108937
-0.0892476
-0.0721402
-0.057307
-0.0444728
-0.0333955
-0.0238619
-0.0156845
-0.00869794
-0.00275102
0.00228694
0.00648686
0.00998696
0.0132934
0.0157831
-0.358691
-0.348718
-0.331677
-0.30509
-0.272034
-0.236594
-0.201923
-0.169878
-0.141225
-0.116045
-0.0941063
-0.0750722
-0.0586042
-0.0443905
-0.0321544
-0.0216522
-0.0126701
-0.00502011
0.00146361
0.00693274
0.011516
0.0152812
0.018383
0.0213471
0.0234356
-0.339781
-0.330304
-0.313154
-0.28633
-0.253215
-0.217989
-0.183776
-0.152358
-0.124416
-0.0999739
-0.0787702
-0.0604552
-0.0446831
-0.0311393
-0.0195458
-0.00965849
-0.00126326
0.0058277
0.0117804
0.0167465
0.0208523
0.0241633
0.0268511
0.0294572
0.0311292
-0.319395
-0.310441
-0.293249
-0.266308
-0.233286
-0.198397
-0.164786
-0.134112
-0.106976
-0.0833545
-0.062957
-0.0454229
-0.0304012
-0.0175756
-0.00666767
0.00256657
0.0103409
0.0168425
0.0222371
0.0266759
0.0302821
0.03312
0.0353788
0.0376105
0.0388516
-0.297581
-0.289176
-0.272014
-0.245087
-0.212303
-0.177859
-0.145
-0.115181
-0.0889449
-0.0662215
-0.0466979
-0.0300037
-0.0157846
-0.00372349
0.00645781
0.0150026
0.0221236
0.028007
0.0328177
0.0367058
0.039791
0.0421375
0.0439523
0.0457917
0.0465882
-0.274398
-0.26657
-0.249516
-0.222722
-0.190247
-0.1565
-0.124474
-0.0956127
-0.0703631
-0.0486122
-0.0300267
-0.0142287
-0.000861677
0.0103911
0.0198069
0.0276278
0.0340648
0.0393027
0.043505
0.0468202
0.0493638
0.0512015
0.0525569
0.0539827
0.0543182
-0.249908
-0.242696
-0.22584
-0.199223
-0.167276
-0.134328
-0.103262
-0.0754554
-0.051275
-0.0305665
-0.0129796
0.00186932
0.0143374
0.0247406
0.0333545
0.0404191
0.0461435
0.0507104
0.0542816
0.0570029
0.0589852
0.0602973
0.061178
0.0621644
0.0620144
-0.224184
-0.217636
-0.201067
-0.174664
-0.14344
-0.111413
-0.0814226
-0.0547623
-0.0317275
-0.0121267
0.0044049
0.0182552
0.0297808
0.039296
0.0470741
0.0533524
0.0583377
0.06221
0.0651292
0.0672369
0.068639
0.0694099
0.0698029
0.0703224
0.0696601
-0.1973
-0.191464
-0.175123
-0.149296
-0.11882
-0.0878254
-0.0590172
-0.0335885
-0.0117704
0.00666216
0.0220862
0.034892
0.0454349
0.0540267
0.0609377
0.0664025
0.0706244
0.0737808
0.0760288
0.0775047
0.078308
0.0785243
0.0784222
0.0784489
0.0772497
-0.169328
-0.164291
-0.14826
-0.123082
-0.0934911
-0.0636403
-0.03611
-0.0119918
0.00854448
0.0257533
0.0400217
0.0517411
0.0612646
0.0689008
0.0749165
0.0795429
0.0829798
0.0854014
0.0869613
0.0877879
0.087975
0.0876276
0.0870263
0.0865103
0.0846841
-0.140366
-0.136221
-0.120577
-0.0961128
-0.0675351
-0.0389333
-0.0127684
0.00996755
0.0291628
0.0450977
0.0581671
0.0687623
0.0772334
0.0838851
0.0889804
0.0927465
0.0953794
0.0970499
0.0979069
0.0980691
0.0976274
0.0967167
0.0956022
0.0943917
0.091653
-0.110675
-0.107241
-0.0921456
-0.0684895
-0.0410372
-0.013782
0.010938
0.0322273
0.0500284
0.0646446
0.0764765
0.085914
0.0933035
0.0989453
0.103098
0.105985
0.107798
0.108704
0.108845
0.108332
0.107259
0.105799
0.104133
0.101956
0.0979347
-0.0802569
-0.0775201
-0.0630616
-0.0403112
-0.0140864
0.0117336
0.0349374
0.0547231
0.0710836
0.0843418
0.0949026
0.103153
0.109436
0.114046
0.117238
0.11923
0.120209
0.120339
0.119755
0.11856
0.116864
0.114869
0.112591
0.109267
0.104225
-0.049195
-0.0471941
-0.0334312
-0.0116784
0.0132257
0.0375314
0.0591564
0.077389
0.0922688
0.104136
0.113397
0.120436
0.125591
0.129152
0.131368
0.132451
0.132586
0.131931
0.130615
0.128736
0.126425
0.123887
0.120918
0.11652
0.11261
-0.0176125
-0.0163771
-0.00336432
0.0173058
0.0408056
0.0635276
0.0835201
0.100158
0.113524
0.123971
0.13191
0.137718
0.141728
0.144225
0.145453
0.145619
0.144902
0.143455
0.141402
0.138841
0.135915
0.132796
0.129129
0.124138
0.120944
0.0143666
0.0148162
0.0270262
0.0465366
0.0685586
0.0896374
0.107952
0.122961
0.134786
0.143793
0.150391
0.154953
0.157806
0.159229
0.15946
0.158702
0.157128
0.154886
0.152095
0.148854
0.14531
0.141591
0.137289
0.131912
0.128821
0.0466193
0.046268
0.0576262
0.0759083
0.0963887
0.115775
0.132376
0.145731
0.155995
0.163546
0.168789
0.172095
0.173783
0.174126
0.173355
0.171669
0.169236
0.166198
0.162669
0.15875
0.154585
0.150264
0.145389
0.139684
0.136422
0.0790213
0.0778585
0.0883201
0.105314
0.1242
0.141854
0.156715
0.168396
0.177086
0.183171
0.187054
0.189098
0.189616
0.188876
0.187103
0.184489
0.181197
0.177365
0.173102
0.168508
0.16372
0.158806
0.153393
0.147344
0.143769
0.111448
0.109467
0.118992
0.134647
0.151895
0.167788
0.18089
0.190887
0.197998
0.202613
0.205133
0.205914
0.205265
0.203443
0.20067
0.197131
0.192984
0.188361
0.183369
0.178104
0.172696
0.167198
0.161269
0.154852
0.15089
0.143773
0.140971
0.149527
0.163802
0.179379
0.19349
0.204825
0.213135
0.218667
0.221815
0.222975
0.222499
0.220686
0.217788
0.214021
0.209563
0.204567
0.199161
0.193445
0.187516
0.181493
0.175421
0.168986
0.162184
0.157793
0.175872
0.17225
0.179809
0.192671
0.206556
0.218876
0.228442
0.235071
0.23903
0.240719
0.240529
0.238804
0.235837
0.231874
0.227121
0.221754
0.215919
0.209737
0.203308
0.196722
0.190093
0.183457
0.176522
0.169325
0.16448
0.207621
0.203183
0.209724
0.221151
0.233332
0.24386
0.251666
0.256625
0.259026
0.259271
0.257745
0.254785
0.250678
0.245661
0.239936
0.233672
0.22701
0.220065
0.212933
0.2057
0.198474
0.191284
0.183858
0.176261
0.170948
0.238897
0.23365
0.239159
0.249138
0.259613
0.26836
0.274421
0.27773
0.278594
0.277414
0.274572
0.270396
0.265166
0.259114
0.252434
0.245288
0.237813
0.23012
0.222298
0.214431
0.206619
0.198886
0.190978
0.182982
0.177192
0.269579
0.263534
0.268003
0.276531
0.285308
0.292292
0.296634
0.298319
0.297673
0.295095
0.290961
0.285593
0.279262
0.272195
0.264579
0.256571
0.248302
0.239876
0.23138
0.222893
0.214509
0.206246
0.197866
0.189476
0.183204
0.299548
0.292719
0.296149
0.303231
0.310329
0.315577
0.318232
0.318328
0.316204
0.312259
0.306863
0.300331
0.292926
0.284869
0.276341
0.267493
0.258448
0.24931
0.240158
0.231067
0.222126
0.213346
0.204508
0.19573
0.188979
0.328689
0.321094
0.323491
0.329142
0.334588
0.338137
0.339145
0.337693
0.33413
0.328855
0.322232
0.314568
0.30612
0.297101
0.287688
0.278023
0.268228
0.258398
0.24861
0.238934
0.229451
0.220171
0.21089
0.201735
0.194507
0.356889
0.348549
0.349926
0.35417
0.358001
0.359896
0.359306
0.356351
0.351395
0.344833
0.337022
0.328263
0.318806
0.308858
0.298588
0.288136
0.277615
0.267117
0.256715
0.246474
0.23647
0.226706
0.216999
0.207477
0.19978
0.384039
0.374978
0.375356
0.378226
0.380488
0.380781
0.378648
0.374245
0.367946
0.360144
0.351189
0.341376
0.330948
0.320106
0.309013
0.297803
0.286585
0.275446
0.264454
0.253671
0.243164
0.232937
0.222822
0.212947
0.204791
0.410035
0.400281
0.399686
0.401224
0.401971
0.400723
0.397107
0.391316
0.38373
0.37474
0.36469
0.353868
0.342511
0.330814
0.318933
0.306999
0.295115
0.283363
0.271807
0.260506
0.24952
0.23885
0.228347
0.218133
0.209532
0.434777
0.42436
0.422825
0.42308
0.422375
0.419655
0.414625
0.40751
0.398699
0.388578
0.377486
0.365704
0.353463
0.340952
0.328323
0.3157
0.303182
0.290848
0.278757
0.266964
0.255523
0.244433
0.233561
0.223026
0.213994
0.45817
0.447124
0.444688
0.443718
0.44163
0.437512
0.431143
0.422776
0.412805
0.401614
0.389537
0.376847
0.363771
0.350491
0.337155
0.323882
0.310767
0.297882
0.285286
0.273028
0.261157
0.249671
0.238454
0.227614
0.21817
0.480124
0.468485
0.465194
0.463063
0.45967
0.454236
0.446607
0.437064
0.426004
0.413809
0.400807
0.387266
0.373406
0.359405
0.345407
0.331524
0.317848
0.304448
0.291379
0.278685
0.266412
0.254555
0.243014
0.231888
0.222053
0.500556
0.488363
0.484267
0.481046
0.476433
0.469771
0.460967
0.450328
0.438255
0.425126
0.411262
0.396929
0.38234
0.367669
0.353053
0.338604
0.324407
0.310528
0.297019
0.283921
0.271273
0.259072
0.247232
0.235839
0.225636
0.519386
0.506681
0.501836
0.497604
0.491861
0.484063
0.474176
0.462526
0.449518
0.435528
0.420871
0.405808
0.390547
0.375258
0.360075
0.345103
0.330426
0.316107
0.302193
0.288723
0.27573
0.263212
0.251098
0.23946
0.228913
0.536544
0.523371
0.517838
0.512678
0.5059
0.497066
0.486191
0.473619
0.45976
0.444984
0.429604
0.413876
0.398003
0.382152
0.366451
0.351005
0.335891
0.321171
0.306888
0.293078
0.279772
0.266966
0.254603
0.242741
0.23188
0.551964
0.538369
0.532212
0.526214
0.518504
0.508736
0.496972
0.483572
0.468946
0.453465
0.437435
0.421109
0.404687
0.38833
0.372165
0.356292
0.340786
0.325705
0.311091
0.296978
0.283389
0.270326
0.25774
0.245676
0.234529
0.565587
0.551618
0.544908
0.538164
0.529628
0.519034
0.506484
0.492351
0.477049
0.460944
0.444341
0.427486
0.410579
0.393775
0.3772
0.36095
0.345098
0.329699
0.314793
0.300411
0.286574
0.273283
0.2605
0.248258
0.236857
0.577361
0.563069
0.555877
0.548487
0.539235
0.527926
0.514695
0.499929
0.484042
0.467398
0.450299
0.432988
0.415661
0.398472
0.381543
0.364967
0.348815
0.333142
0.317984
0.303369
0.289318
0.27583
0.262878
0.250482
0.238861
0.587242
0.572678
0.565079
0.557146
0.547291
0.535382
0.52158
0.506282
0.489904
0.472808
0.455292
0.437599
0.419919
0.402407
0.38518
0.368331
0.351929
0.336025
0.320655
0.305846
0.291615
0.277962
0.264869
0.252344
0.240535
0.595193
0.580409
0.572482
0.56411
0.553769
0.541376
0.527114
0.511389
0.494616
0.477156
0.459305
0.441303
0.423341
0.405568
0.388102
0.371033
0.354429
0.33834
0.322801
0.307835
0.293459
0.279674
0.266466
0.253837
0.241879
0.601182
0.586233
0.578058
0.569354
0.558647
0.54589
0.531281
0.515234
0.498163
0.480428
0.462326
0.444092
0.425916
0.407947
0.390301
0.373067
0.356311
0.340082
0.324414
0.309331
0.294845
0.280961
0.267668
0.254961
0.242888
0.605187
0.590127
0.581786
0.57286
0.561909
0.548907
0.534067
0.517803
0.500533
0.482616
0.464344
0.445955
0.427637
0.409537
0.39177
0.374425
0.357568
0.341246
0.325492
0.31033
0.295772
0.281821
0.268471
0.255711
0.243562
0.607193
0.592078
0.583654
0.574617
0.563542
0.550418
0.535462
0.51909
0.501721
0.483711
0.465355
0.446888
0.428499
0.410333
0.392506
0.375105
0.358197
0.341828
0.326032
0.31083
0.296235
0.282251
0.268872
0.256086
0.243899
0.607193
0.592078
0.583654
0.574616
0.563542
0.550418
0.535462
0.51909
0.501721
0.483711
0.465355
0.446888
0.428498
0.410333
0.392506
0.375105
0.358197
0.341828
0.326032