/*--------------------------------*- C++ -*----------------------------------*\
  =========                 |
  \\      /  F ield         | OpenFOAM: The Open Source CFD Toolbox
   \\    /   O peration     | Website:  https://openfoam.org
    \\  /    A nd           | Version:  7
     \\/     M anipulation  |
\*---------------------------------------------------------------------------*/
FoamFile
{
    version     2.0;
    format      ascii;
    class       volVectorField;
    location    "50";
    object      U;
}
// * * * * * * * * * * * * * * * * * * * * * * * * * * * * * * * * * * * * * //

dimensions      [0 1 -1 0 0 0 0];

internalField   nonuniform List<vector> 
31800
(
(-0.000522021 0.000513991 -9.2934e-21)
(-0.00323623 0.00129232 6.41752e-21)
(-0.00866457 0.00187411 -2.0901e-21)
(-0.0156853 0.00229895 9.28116e-21)
(-0.0238631 0.00259427 1.03647e-20)
(-0.0328387 0.00278433 -3.39505e-21)
(-0.0422965 0.0028905 -2.45315e-21)
(-0.0519905 0.00293111 1.73429e-20)
(-0.0617303 0.00292166 -1.97456e-21)
(-0.0713709 0.00287494 2.83529e-21)
(-0.0808049 0.00280107 9.71996e-21)
(-0.0899534 0.00270769 9.51302e-21)
(-0.0987585 0.00260021 -6.00323e-21)
(-0.107176 0.00248207 -7.45594e-21)
(-0.115171 0.00235523 -2.54374e-22)
(-0.122712 0.0022206 -9.5021e-21)
(-0.129767 0.00207869 7.37503e-21)
(-0.136309 0.00193041 1.24197e-20)
(-0.142313 0.00177797 -4.63878e-21)
(-0.147764 0.00162606 2.09977e-20)
(-0.15267 0.00148295 1.32817e-21)
(-0.157074 0.00136148 -1.69046e-21)
(-0.161076 0.00127774 3.68688e-21)
(-0.164801 0.00124584 7.49306e-21)
(-0.168489 0.00129081 4.65206e-21)
(-0.000571616 0.00154116 9.56832e-21)
(-0.00334725 0.00387302 5.23626e-21)
(-0.00879836 0.00561411 -5.63864e-21)
(-0.0158157 0.00688321 -2.14194e-20)
(-0.0239693 0.00776296 1.58113e-20)
(-0.0329039 0.00832639 -7.73537e-21)
(-0.0423071 0.00863783 4.26452e-22)
(-0.0519349 0.0087524 -1.33007e-20)
(-0.0615986 0.00871664 2.77215e-21)
(-0.0711542 0.00856879 1.88243e-21)
(-0.0804946 0.00833905 -4.0813e-20)
(-0.0895413 0.00805017 -6.88959e-22)
(-0.0982364 0.00771813 4.56236e-20)
(-0.106536 0.0073531 -2.29238e-20)
(-0.114404 0.00696074 -4.33922e-21)
(-0.121808 0.00654361 9.43103e-21)
(-0.128718 0.00610308 -1.97942e-20)
(-0.135103 0.00564162 -9.89431e-22)
(-0.140937 0.00516562 1.95041e-20)
(-0.146202 0.00468884 -7.14397e-20)
(-0.150901 0.00423588 -2.21202e-20)
(-0.15507 0.00384535 3.34126e-20)
(-0.158806 0.00356656 1.64556e-20)
(-0.162224 0.00344384 2.92201e-21)
(-0.165548 0.00355426 -6.61575e-21)
(-0.000670009 0.00255267 -1.98333e-20)
(-0.00356773 0.00641736 -5.42975e-22)
(-0.00906431 0.009305 -2.69511e-20)
(-0.0160751 0.0114108 4.02026e-20)
(-0.0241808 0.0128711 -4.55172e-20)
(-0.0330341 0.0138064 -4.25333e-21)
(-0.0423285 0.0143232 -4.12951e-21)
(-0.0518246 0.0145129 7.54839e-21)
(-0.0613364 0.0144525 2.498e-20)
(-0.0707221 0.0142055 -4.24114e-21)
(-0.0798756 0.0138222 -7.48222e-21)
(-0.0887188 0.0133402 2.69451e-20)
(-0.0971939 0.0127862 -4.74237e-21)
(-0.105257 0.0121772 2.61672e-20)
(-0.11287 0.0115224 -5.29352e-20)
(-0.120002 0.010826 -2.16256e-20)
(-0.126619 0.01009 3.48275e-21)
(-0.13269 0.00931786 -7.08094e-20)
(-0.138184 0.00851922 1.93255e-20)
(-0.143077 0.0077157 4.35156e-20)
(-0.147361 0.00694699 -2.74619e-20)
(-0.151063 0.00627688 -6.60174e-20)
(-0.15427 0.00578964 -3.29078e-20)
(-0.157073 0.00556483 -6.13558e-20)
(-0.159668 0.005736 -3.35352e-20)
(-0.000815506 0.00353846 9.23511e-21)
(-0.00389422 0.0089019 -1.5388e-20)
(-0.00945871 0.0129149 4.89566e-20)
(-0.0164604 0.0158449 -3.9167e-20)
(-0.0244952 0.0178791 -1.01993e-20)
(-0.0332276 0.0191837 -2.71013e-21)
(-0.04236 0.0199059 3.20536e-20)
(-0.0516594 0.0201723 2.27244e-20)
(-0.0609443 0.02009 -4.01326e-20)
(-0.0700756 0.0197471 1.68235e-20)
(-0.0789489 0.0192138 1.02708e-21)
(-0.0874868 0.0185426 -7.5786e-20)
(-0.0956314 0.017771 -2.48695e-20)
(-0.103338 0.0169226 2.0158e-21)
(-0.110569 0.0160105 1.65711e-20)
(-0.11729 0.0150403 7.54866e-20)
(-0.123466 0.0140143 8.36914e-21)
(-0.129063 0.0129359 7.14577e-20)
(-0.134043 0.0118168 7.13304e-20)
(-0.138376 0.0106842 -8.79459e-21)
(-0.142038 0.00959098 3.20309e-20)
(-0.14504 0.00862451 -1.22486e-20)
(-0.147455 0.00790639 4.06155e-20)
(-0.149342 0.00755984 1.35318e-19)
(-0.150831 0.00778165 2.11136e-20)
(-0.00100563 0.00448904 1.57139e-20)
(-0.00432174 0.0113043 -5.71569e-20)
(-0.00997612 0.0164135 7.3753e-20)
(-0.0169665 0.0201499 2.71823e-20)
(-0.0249087 0.0227484 2.13041e-20)
(-0.0334819 0.0244184 2.26574e-20)
(-0.0424004 0.0253457 -1.20517e-19)
(-0.0514394 0.0256909 4.48115e-20)
(-0.060423 0.02559 4.6614e-20)
(-0.0692159 0.0251555 -6.88709e-20)
(-0.0777159 0.024477 7.13092e-20)
(-0.0858462 0.0236219 3.89921e-20)
(-0.0935489 0.0226383 4.82251e-20)
(-0.100778 0.0215569 -3.26624e-20)
(-0.107496 0.0203945 -7.24717e-21)
(-0.113665 0.0191583 1.58622e-19)
(-0.119248 0.0178499 -6.84776e-20)
(-0.124207 0.0164722 5.30447e-20)
(-0.128498 0.0150367 -1.28319e-19)
(-0.132079 0.0135738 -5.17389e-20)
(-0.13491 0.0121458 4.90387e-20)
(-0.136977 0.0108613 8.56399e-20)
(-0.138339 0.00988108 1.45093e-20)
(-0.139012 0.0093836 -1.11339e-19)
(-0.139003 0.00963679 -7.80678e-20)
(-0.00123722 0.00539567 -6.18144e-20)
(-0.00484382 0.0136038 -1.99545e-20)
(-0.0106095 0.0197719 -4.37452e-20)
(-0.0175872 0.024292 -4.23369e-20)
(-0.0254164 0.0274423 3.03721e-20)
(-0.0337939 0.0294719 -5.42602e-20)
(-0.0424481 0.0306034 -3.51974e-20)
(-0.0511642 0.0310292 -1.74922e-19)
(-0.0597732 0.0309136 7.67248e-21)
(-0.0681444 0.0303926 -1.78032e-21)
(-0.0761779 0.0295746 -1.34097e-19)
(-0.0837979 0.0285419 -4.57325e-20)
(-0.0909463 0.0273534 -5.6805e-20)
(-0.097576 0.0260468 1.09885e-19)
(-0.103646 0.0246429 3.16886e-20)
(-0.109119 0.0231502 -8.64995e-20)
(-0.113953 0.0215698 -9.64907e-20)
(-0.118104 0.0199025 2.67576e-20)
(-0.121523 0.0181578 1.05885e-19)
(-0.124154 0.0163658 -2.29076e-20)
(-0.12594 0.0145938 -1.38365e-20)
(-0.126838 0.0129669 -6.5212e-20)
(-0.126884 0.0116854 -8.21888e-20)
(-0.126053 0.0109972 6.71655e-20)
(-0.124127 0.0112475 4.54792e-20)
(-0.00150651 0.00625052 3.20931e-20)
(-0.00545279 0.0157817 3.77368e-20)
(-0.0113504 0.0229638 -2.97583e-20)
(-0.0183149 0.0282397 -6.15381e-20)
(-0.0260123 0.0319256 9.57812e-21)
(-0.0341595 0.0343073 7.21842e-20)
(-0.0425008 0.0356407 1.03747e-19)
(-0.0508331 0.0361489 1.41664e-19)
(-0.0589954 0.0360225 2.47085e-20)
(-0.0668621 0.0354202 3.2629e-20)
(-0.0743361 0.0344691 3.95923e-20)
(-0.0813426 0.033266 1.51555e-19)
(-0.0878225 0.0318805 -8.73864e-21)
(-0.0937274 0.0303576 -1.94374e-19)
(-0.099014 0.0287225 1.4008e-19)
(-0.10364 0.0269849 5.56847e-20)
(-0.107562 0.0251453 1.7638e-19)
(-0.110728 0.0232014 -7.21485e-20)
(-0.113082 0.0211586 -8.30985e-20)
(-0.114557 0.0190431 2.36995e-19)
(-0.115076 0.0169218 -7.96088e-20)
(-0.114561 0.0149291 -1.2149e-19)
(-0.113022 0.0133014 -3.24542e-20)
(-0.110411 0.0123723 -1.02011e-19)
(-0.106111 0.0125612 1.6991e-20)
(-0.00180924 0.00704688 7.98216e-21)
(-0.00613993 0.0178212 -1.56871e-20)
(-0.0121892 0.0259655 3.20008e-21)
(-0.0191408 0.0319638 -1.12084e-19)
(-0.0266893 0.0361657 -8.6967e-20)
(-0.0345735 0.0388892 -1.64169e-20)
(-0.0425555 0.040421 -4.24112e-20)
(-0.0504448 0.0410122 -7.71485e-20)
(-0.0580895 0.0408786 -1.73778e-20)
(-0.0653696 0.0402005 -8.61453e-21)
(-0.0721909 0.0391228 -8.17236e-20)
(-0.0784794 0.0377569 3.53356e-20)
(-0.0841752 0.036183 2.65902e-20)
(-0.0892271 0.0344537 1.42747e-19)
(-0.0935883 0.0325986 -2.90653e-21)
(-0.0972124 0.0306294 -8.63447e-20)
(-0.10005 0.0285455 -9.38686e-21)
(-0.102044 0.0263415 3.73208e-20)
(-0.10313 0.0240167 1.52984e-19)
(-0.103227 0.0215899 -1.13585e-19)
(-0.10224 0.0191212 2.99058e-19)
(-0.100057 0.0167453 1.24676e-19)
(-0.0966507 0.0147258 -9.4103e-20)
(-0.0920006 0.0134972 1.81841e-19)
(-0.0848099 0.0135283 1.05463e-19)
(-0.00214085 0.00777923 9.77795e-21)
(-0.00689575 0.0197083 4.95429e-20)
(-0.0131154 0.0287561 1.40507e-19)
(-0.0200551 0.0354385 1.75034e-19)
(-0.0274394 0.0401328 1.04049e-19)
(-0.0350302 0.0431849 -7.30157e-20)
(-0.0426083 0.0449093 1.77754e-19)
(-0.0499972 0.0455829 2.01448e-20)
(-0.0570545 0.0454448 -1.06094e-19)
(-0.0636661 0.0446957 1.16515e-20)
(-0.0697413 0.043498 1.96679e-19)
(-0.0752063 0.0419769 -2.1011e-19)
(-0.0799995 0.0402234 -1.19918e-19)
(-0.0840663 0.0382979 -2.43512e-20)
(-0.0873552 0.0362351 -1.96537e-19)
(-0.0898139 0.0340486 -1.28057e-19)
(-0.0913861 0.0317375 2.26994e-20)
(-0.0920078 0.029293 -2.66578e-19)
(-0.0916034 0.0267077 2.66659e-20)
(-0.0900822 0.0239898 -1.27482e-19)
(-0.0873314 0.0211864 -1.57819e-19)
(-0.0832036 0.0184226 1.46915e-19)
(-0.0776169 0.0159721 1.65069e-19)
(-0.0706944 0.0143837 -1.28399e-19)
(-0.0600246 0.0141267 1.76543e-19)
(-0.00249656 0.00844336 -1.17575e-19)
(-0.00771027 0.0214318 8.62054e-20)
(-0.0141176 0.0313182 -6.29433e-21)
(-0.021047 0.0386411 3.44571e-20)
(-0.0282534 0.0437997 3.26028e-20)
(-0.0355223 0.047164 1.46262e-19)
(-0.0426541 0.0490726 -1.06118e-19)
(-0.0494866 0.0498259 -1.97756e-19)
(-0.0558875 0.0496847 9.90451e-20)
(-0.0617493 0.0488687 9.24214e-20)
(-0.066984 0.0475569 -3.11942e-19)
(-0.071518 0.045888 2.19303e-19)
(-0.075287 0.0439637 3.32871e-19)
(-0.0782319 0.0418524 2.26792e-20)
(-0.0802947 0.0395941 -5.86777e-20)
(-0.0814154 0.0372056 1.6837e-19)
(-0.0815289 0.034686 -7.76324e-20)
(-0.0805612 0.0320236 3.47642e-19)
(-0.0784261 0.0292043 -3.06416e-19)
(-0.0750198 0.0262241 5.56869e-20)
(-0.0702145 0.0231125 -2.88969e-20)
(-0.0638332 0.0199745 -9.39473e-20)
(-0.0557028 0.017066 -9.109e-20)
(-0.0462911 0.015043 7.49856e-20)
(-0.0315215 0.0144617 1.92736e-20)
(-0.00287155 0.00903642 7.67866e-20)
(-0.00857326 0.022983 -5.5262e-20)
(-0.0151841 0.0336378 4.56397e-20)
(-0.0221054 0.0415523 -1.53747e-19)
(-0.0291215 0.0471428 -3.39824e-20)
(-0.0360417 0.0507988 1.72718e-20)
(-0.0426862 0.0528803 -3.90855e-20)
(-0.0489074 0.0537083 -6.46767e-20)
(-0.0545837 0.0535634 2.03419e-20)
(-0.0596137 0.0526834 -1.0803e-19)
(-0.0639122 0.0512624 2.01386e-19)
(-0.067405 0.0494525 -4.62738e-20)
(-0.0700241 0.0473657 -1.18213e-19)
(-0.0717042 0.0450788 -1.2098e-19)
(-0.0723788 0.0426375 1.60157e-19)
(-0.0719779 0.0400622 8.67789e-20)
(-0.0704244 0.0373535 3.45364e-20)
(-0.0676319 0.034498 -2.89875e-19)
(-0.0635002 0.0314758 3.02043e-19)
(-0.0579113 0.0282711 -9.86661e-20)
(-0.0507216 0.0248923 -4.5905e-20)
(-0.0417392 0.0214179 -3.55373e-20)
(-0.0306362 0.0180426 -3.93714e-20)
(-0.0184213 0.0154235 1.26911e-19)
(0.000940037 0.0148076 -2.07502e-19)
(-0.00326113 0.00955693 -2.85311e-20)
(-0.00947454 0.0243566 1.23286e-19)
(-0.016303 0.0357044 -1.76255e-19)
(-0.0232181 0.0441568 7.06775e-20)
(-0.0300325 0.0501418 3.89913e-20)
(-0.0365784 0.0540651 -5.9075e-20)
(-0.0426957 0.0563043 1.72123e-19)
(-0.0482516 0.0571991 4.18092e-20)
(-0.0531347 0.0570479 1.95937e-20)
(-0.05725 0.0561047 1.68956e-19)
(-0.0605143 0.0545785 -6.92355e-20)
(-0.0628518 0.0526333 7.32156e-20)
(-0.0641896 0.0503919 -7.78346e-20)
(-0.0644542 0.047939 -4.93732e-21)
(-0.0635683 0.0453268 -8.48368e-20)
(-0.0614485 0.0425803 -2.93479e-19)
(-0.0580025 0.0397025 6.04414e-20)
(-0.0531272 0.03668 2.34248e-19)
(-0.0467047 0.0334894 -8.08039e-20)
(-0.0385991 0.0301052 3.90844e-19)
(-0.0286469 0.026515 -2.16762e-19)
(-0.0166707 0.0227669 -6.19354e-20)
(-0.00214893 0.0189761 -1.0404e-19)
(0.0134018 0.0157103 3.22036e-21)
(0.0379275 0.0150097 -9.30098e-20)
(-0.00366085 0.0100048 -8.54208e-20)
(-0.0104042 0.0255498 -1.27087e-19)
(-0.0174622 0.0375112 -6.82649e-20)
(-0.0243726 0.0464429 6.41731e-20)
(-0.0309742 0.0527803 2.00436e-20)
(-0.0371208 0.0569416 1.15781e-20)
(-0.0426714 0.0593195 4.42535e-20)
(-0.0475076 0.0602699 -2.15585e-19)
(-0.051528 0.060107 7.12788e-20)
(-0.0546433 0.0590998 -1.47609e-19)
(-0.0567717 0.0574705 -5.35065e-20)
(-0.0578345 0.0553951 -7.22254e-20)
(-0.0577521 0.053006 -1.52933e-19)
(-0.0564405 0.0503964 3.1433e-19)
(-0.0538086 0.0476254 1.78286e-19)
(-0.0497559 0.0447231 4.79487e-20)
(-0.0441709 0.0416966 1.4962e-19)
(-0.0369284 0.0385344 -2.16526e-19)
(-0.027888 0.0352124 -5.33437e-20)
(-0.0168915 0.0316993 -2.54033e-19)
(-0.00374499 0.0279661 9.79004e-20)
(0.0116885 0.0240376 2.15243e-19)
(0.0301881 0.0199316 9.83917e-20)
(0.0494298 0.0161635 -1.8575e-19)
(0.0802475 0.0149516 2.32018e-19)
(-0.00406663 0.0103811 -3.04398e-20)
(-0.0113529 0.0265627 7.95219e-21)
(-0.0186499 0.0390548 8.64545e-20)
(-0.025556 0.0484026 1.54346e-19)
(-0.031933 0.0550455 -1.03307e-19)
(-0.0376549 0.0594109 9.96133e-20)
(-0.0425985 0.0619044 -7.81476e-20)
(-0.0466592 0.0628955 2.95233e-19)
(-0.049745 0.0627126 -2.0694e-19)
(-0.0517713 0.0616382 4.45178e-20)
(-0.0526567 0.0599067 1.92084e-19)
(-0.0523179 0.0577048 -2.65014e-20)
(-0.0506663 0.0551746 2.06208e-20)
(-0.0476046 0.0524176 -2.55534e-19)
(-0.0430244 0.0495 -2.16556e-19)
(-0.0368042 0.046458 -8.26452e-21)
(-0.0288079 0.043304 -2.38521e-19)
(-0.018883 0.0400308 8.72643e-20)
(-0.00685975 0.0366167 -1.21535e-19)
(0.00744587 0.0330297 1.59017e-19)
(0.0242767 0.0292315 -2.14712e-19)
(0.0436755 0.0252331 1.28951e-19)
(0.0668795 0.0209398 -1.0774e-19)
(0.0900937 0.0168526 1.45907e-19)
(0.128525 0.015009 -8.49863e-21)
(-0.00447489 0.0106882 1.66771e-19)
(-0.012312 0.027398 4.23076e-20)
(-0.0198546 0.0403354 -9.57563e-20)
(-0.0267546 0.050032 -1.14917e-19)
(-0.0328938 0.0569284 7.75492e-20)
(-0.0381637 0.0614594 -2.8429e-19)
(-0.0424581 0.0640407 4.05227e-19)
(-0.0456847 0.065054 7.88243e-20)
(-0.0477598 0.06484 1.30632e-19)
(-0.0486025 0.0636929 1.59605e-19)
(-0.0481298 0.0618584 1.00583e-19)
(-0.046252 0.0595332 -7.53637e-20)
(-0.0428687 0.0568685 -2.545e-21)
(-0.037866 0.053974 -3.68525e-20)
(-0.0311141 0.0509232 -1.10011e-19)
(-0.0224655 0.0477596 2.46504e-19)
(-0.0117543 0.0445019 5.02555e-19)
(0.00120518 0.0411493 2.99541e-20)
(0.0166188 0.0376859 1.73399e-19)
(0.0346986 0.0340841 -9.0187e-20)
(0.0557638 0.0303053 1.09264e-19)
(0.0796718 0.0263546 -6.4137e-19)
(0.108434 0.022066 3.04541e-19)
(0.135881 0.0178143 1.88017e-19)
(0.18341 0.0155208 -1.25109e-19)
(-0.00488263 0.0109296 -1.00009e-19)
(-0.0132734 0.0280609 -1.71929e-19)
(-0.0210648 0.0413561 1.64936e-19)
(-0.0279542 0.0513303 1.08034e-19)
(-0.0338393 0.058424 5.80877e-20)
(-0.0386271 0.0630773 2.05605e-19)
(-0.042226 0.0657145 -2.13349e-19)
(-0.0445551 0.0667277 -1.96726e-19)
(-0.0455372 0.0664684 -1.2913e-19)
(-0.0450933 0.0652413 -3.03171e-19)
(-0.0431368 0.0633019 5.86207e-20)
(-0.0395686 0.0608564 -2.39097e-20)
(-0.0342733 0.0580645 4.32044e-19)
(-0.0271165 0.0550441 1.77903e-19)
(-0.0179421 0.0518765 1.27867e-19)
(-0.00657176 0.0486131 -4.01763e-20)
(0.00719607 0.0452805 -2.30351e-19)
(0.0235858 0.0418863 -1.86543e-19)
(0.0428459 0.0384235 -2.18254e-19)
(0.0652131 0.0348726 1.56289e-19)
(0.091122 0.0312073 2.94628e-19)
(0.120101 0.0274175 3.29485e-19)
(0.155375 0.0233851 -3.10553e-19)
(0.187244 0.0191075 1.33761e-19)
(0.245496 0.0167787 1.79422e-19)
(-0.00528747 0.0111094 -2.63343e-19)
(-0.0142302 0.0285585 1.46581e-19)
(-0.0222695 0.0421228 -2.49983e-19)
(-0.0291394 0.0523006 3.07192e-19)
(-0.0347498 0.0595311 -2.93551e-19)
(-0.0390203 0.064259 -8.78661e-20)
(-0.0418719 0.0669161 -1.63707e-19)
(-0.0432327 0.0679035 9.20486e-20)
(-0.0430305 0.0675821 -1.57597e-19)
(-0.0411856 0.066266 1.72351e-19)
(-0.0376048 0.0642195 -2.2605e-19)
(-0.0321764 0.0616574 -1.6767e-19)
(-0.024766 0.0587477 5.84569e-21)
(-0.0152136 0.0556164 -2.57368e-19)
(-0.00333217 0.0523535 5.45176e-21)
(0.0110934 0.049019 -2.60476e-19)
(0.0283053 0.045649 -1.59766e-20)
(0.0485711 0.0422614 -2.84102e-19)
(0.0721869 0.0388614 9.93059e-20)
(0.0994018 0.0354387 4.32268e-19)
(0.130815 0.0319999 -4.15816e-19)
(0.165424 0.0284685 2.04215e-19)
(0.208213 0.0250055 2.2431e-19)
(0.244576 0.0207922 -1.07593e-19)
(0.315155 0.0190513 4.32603e-20)
(-0.00568766 0.0112327 1.36473e-19)
(-0.0151761 0.0288993 -3.85023e-20)
(-0.0234574 0.0426441 8.47626e-20)
(-0.0302936 0.0529486 -2.47115e-19)
(-0.0356025 0.0602518 3.95967e-19)
(-0.0393135 0.0650029 2.58184e-20)
(-0.0413575 0.0676404 2.86182e-19)
(-0.0416694 0.0685735 -1.49295e-19)
(-0.0401792 0.0681714 1.01165e-19)
(-0.0368035 0.0667565 1.33088e-19)
(-0.031439 0.0646011 1.21995e-19)
(-0.023957 0.0619281 3.85977e-19)
(-0.0141992 0.0589138 -9.76701e-20)
(-0.00197489 0.0556926 -9.83636e-20)
(0.0129397 0.0523637 -7.70318e-20)
(0.0308014 0.0489973 -6.83703e-21)
(0.0518975 0.0456407 -1.62152e-19)
(0.0765403 0.0423241 1.4321e-19)
(0.105075 0.0390681 -1.92168e-19)
(0.137739 0.0358687 7.88859e-20)
(0.175349 0.0328016 -1.12066e-19)
(0.216118 0.0296037 1.44479e-20)
(0.267372 0.0270909 -5.25312e-19)
(0.308178 0.0229512 5.6076e-20)
(0.39237 0.0225675 -1.71876e-21)
(-0.00608207 0.0113046 1.81954e-19)
(-0.0161054 0.0290933 -1.22789e-19)
(-0.0246171 0.0429301 -8.65517e-20)
(-0.0313984 0.0532829 -5.23061e-20)
(-0.0363707 0.0605921 -1.71219e-19)
(-0.0394704 0.0653117 -2.88926e-19)
(-0.0406355 0.0678874 -9.42982e-20)
(-0.0398046 0.0687356 3.22565e-19)
(-0.0369066 0.0682332 -1.0073e-19)
(-0.0318506 0.06671 -2.17738e-19)
(-0.0245187 0.0644459 -1.31524e-19)
(-0.0147601 0.0616717 -3.94709e-19)
(-0.00238688 0.0585719 -4.30002e-19)
(0.0128279 0.0552904 3.22993e-19)
(0.0311503 0.0519367 6.64366e-20)
(0.0528832 0.0485925 5.30959e-20)
(0.0783607 0.0453186 5.55197e-19)
(0.107936 0.0421592 8.4498e-20)
(0.142 0.0391549 5.32679e-19)
(0.18074 0.0362971 -6.38101e-19)
(0.225227 0.0337904 2.98388e-19)
(0.272633 0.030985 -2.69811e-19)
(0.333085 0.0298545 4.23047e-19)
(0.378197 0.0257337 -6.3518e-19)
(0.476557 0.0274939 1.3204e-19)
(-0.00647009 0.0113309 -4.61388e-20)
(-0.0170133 0.0291511 -9.80806e-20)
(-0.0257368 0.0429926 -9.03877e-20)
(-0.0324329 0.0533144 3.07899e-20)
(-0.0370234 0.0605608 -4.84974e-20)
(-0.0394478 0.0651926 1.82917e-19)
(-0.0396482 0.0676624 -6.55063e-20)
(-0.0375636 0.0683943 -1.38279e-19)
(-0.0331175 0.0677722 -5.66269e-20)
(-0.0262069 0.0661331 2.84556e-21)
(-0.0166939 0.0637645 3.63054e-19)
(-0.00439966 0.0609048 -3.18546e-19)
(0.0108993 0.0577477 4.63283e-19)
(0.0294722 0.0544475 -1.34075e-19)
(0.0516315 0.0511256 -2.33415e-19)
(0.077728 0.0478775 1.93327e-19)
(0.10814 0.0447794 -2.1205e-19)
(0.143251 0.0418913 -3.58322e-19)
(0.183481 0.0392785 -1.33503e-19)
(0.228915 0.0369078 1.25512e-19)
(0.280873 0.0351948 2.00411e-19)
(0.335307 0.0328472 3.88774e-19)
(0.40524 0.033524 2.25305e-20)
(0.454509 0.0293765 2.68952e-19)
(0.566406 0.0339185 -8.71883e-20)
(-0.00685156 0.0113171 -2.26038e-20)
(-0.0178945 0.0290833 2.14563e-19)
(-0.0268033 0.0428441 2.21583e-19)
(-0.0333735 0.0530557 -9.93696e-20)
(-0.0375235 0.06017 6.9776e-20)
(-0.0391935 0.0646564 -2.59566e-19)
(-0.0383258 0.0669762 5.16471e-20)
(-0.0348554 0.0675609 4.16949e-20)
(-0.0286958 0.0668019 -1.21616e-19)
(-0.0197262 0.0650433 -3.34962e-20)
(-0.00778241 0.0625801 -4.55113e-19)
(0.00734877 0.0596596 1.44811e-19)
(0.0259326 0.0564855 -2.18516e-20)
(0.0482852 0.0532243 -5.15279e-21)
(0.0747678 0.0500112 -2.10284e-20)
(0.105776 0.0469576 -4.15059e-21)
(0.141722 0.044157 -1.85622e-20)
(0.182997 0.0416862 2.48653e-19)
(0.230015 0.0396393 -2.20949e-19)
(0.282701 0.0379303 2.0126e-19)
(0.342531 0.0372693 -2.96735e-19)
(0.404244 0.0354909 -1.42974e-19)
(0.483247 0.038291 4.12363e-20)
(0.536546 0.0341736 -2.30511e-19)
(0.659801 0.0418322 -7.52958e-20)
(-0.00722653 0.0112682 -2.14689e-19)
(-0.0187441 0.0289004 -2.70298e-20)
(-0.0278017 0.0424976 -2.73806e-19)
(-0.0341924 0.0525207 -2.20122e-19)
(-0.0378282 0.0594341 2.91698e-19)
(-0.0386462 0.0637186 1.99863e-19)
(-0.0365851 0.0658454 -8.8268e-20)
(-0.0315714 0.0662546 -7.90952e-20)
(-0.0235027 0.0653455 -5.89352e-20)
(-0.0122339 0.0634699 5.09236e-19)
(0.00243205 0.0609312 1.95919e-19)
(0.0207493 0.0579866 2.76763e-19)
(0.0430303 0.0548519 -1.53143e-20)
(0.0696404 0.0517072 5.37721e-20)
(0.100987 0.0487043 1.49043e-19)
(0.1375 0.0459721 -3.49619e-19)
(0.179603 0.043623 5.52365e-19)
(0.227658 0.0417482 5.8366e-20)
(0.282009 0.0404734 -1.79961e-19)
(0.342366 0.0396297 -2.71631e-19)
(0.410148 0.0402617 -1.46834e-19)
(0.479152 0.0392485 3.2725e-19)
(0.565937 0.0442679 -1.08489e-20)
(0.623115 0.0403928 1.71304e-19)
(0.753898 0.0511025 2.0576e-19)
(-0.00759514 0.011189 1.63767e-19)
(-0.0195562 0.028612 1.71468e-20)
(-0.028715 0.0419657 -3.69793e-20)
(-0.0348576 0.0517244 3.885e-20)
(-0.0378868 0.0583701 -2.77431e-19)
(-0.0377336 0.0623984 3.69627e-19)
(-0.0343285 0.0642924 -8.83009e-22)
(-0.0275839 0.0645025 3.01448e-19)
(-0.0173752 0.0634367 1.28667e-20)
(-0.00352623 0.0614555 -1.03301e-19)
(0.0142 0.0588725 1.62774e-19)
(0.0361044 0.0559564 -5.46959e-19)
(0.0625494 0.0529369 -3.37422e-19)
(0.0939478 0.0500106 -1.68241e-19)
(0.130743 0.0473473 -7.25972e-20)
(0.173377 0.0450948 6.56991e-21)
(0.222247 0.043383 -3.5824e-19)
(0.277625 0.0423134 1.36151e-19)
(0.339697 0.0420371 5.23564e-19)
(0.407895 0.0422858 1.44015e-19)
(0.483269 0.0443822 3.48534e-19)
(0.559186 0.0444193 -3.44637e-19)
(0.651561 0.0514692 -8.03084e-20)
(0.712273 0.0481702 -1.36456e-19)
(0.845383 0.0614482 -7.20577e-19)
(-0.00795729 0.0110834 -1.53483e-19)
(-0.0203236 0.0282266 7.78534e-20)
(-0.029523 0.0412604 1.38482e-19)
(-0.0353317 0.0506823 4.81771e-19)
(-0.0376409 0.0569969 1.81468e-19)
(-0.036372 0.0607189 -4.03147e-19)
(-0.0314427 0.0623459 -1.01755e-19)
(-0.0227454 0.0623402 -5.34263e-20)
(-0.0101262 0.0611202 -1.7608e-19)
(0.0066293 0.0590572 -5.76966e-20)
(0.0278042 0.0564763 -1.19447e-19)
(0.0537498 0.0536605 4.36446e-19)
(0.0848774 0.0508558 5.21435e-19)
(0.121638 0.048277 2.62572e-19)
(0.16449 0.0461131 -1.34149e-19)
(0.213848 0.0445295 -9.40888e-20)
(0.270024 0.0436697 2.07064e-19)
(0.333119 0.0436358 -4.68104e-20)
(0.403038 0.0445849 -3.45267e-21)
(0.478877 0.0461593 1.13783e-19)
(0.560958 0.0497808 -1.63064e-19)
(0.642843 0.0511856 -2.82955e-19)
(0.737886 0.059805 -1.89052e-19)
(0.801369 0.0574321 2.39082e-19)
(0.930904 0.072437 7.57394e-19)
(-0.00831247 0.0109543 1.22494e-19)
(-0.0210375 0.0277507 4.1671e-19)
(-0.0302019 0.0403927 1.66718e-19)
(-0.035571 0.0494097 -1.47732e-19)
(-0.0370229 0.055335 2.06218e-19)
(-0.0344656 0.0587068 2.2723e-19)
(-0.027799 0.0600403 2.54905e-19)
(-0.0168887 0.0598119 -1.43386e-20)
(-0.00154487 0.0584526 2.00716e-19)
(0.0184918 0.0563466 -6.18401e-19)
(0.0435548 0.0538335 3.50119e-19)
(0.0740457 0.0512127 -1.86298e-19)
(0.110417 0.0487486 -4.71217e-19)
(0.153137 0.0466758 -3.42422e-19)
(0.202642 0.0452012 5.58872e-19)
(0.259264 0.0445035 -1.91778e-19)
(0.323143 0.0447292 -9.45909e-20)
(0.394105 0.0459669 7.29445e-20)
(0.471635 0.0483435 -3.69003e-19)
(0.554422 0.0514463 2.99958e-19)
(0.641777 0.0565301 -4.84015e-20)
(0.727982 0.0595464 3.51683e-19)
(0.822375 0.0690771 4.07413e-19)
(0.887315 0.0678777 -1.39487e-19)
(1.00753 0.0835245 -2.77177e-19)
(-0.00865936 0.0108034 -6.3871e-20)
(-0.0216862 0.0271892 -2.36393e-19)
(-0.0307238 0.0393726 6.23198e-21)
(-0.0355255 0.0479216 -1.1944e-19)
(-0.0359559 0.0534063 -3.52113e-19)
(-0.0319061 0.0563926 -1.82236e-19)
(-0.0232524 0.0574162 1.00299e-19)
(-0.00982754 0.0569706 -3.13014e-19)
(0.00860107 0.0555022 2.47158e-20)
(0.0323425 0.0534109 1.54273e-19)
(0.0617816 0.0510533 -4.43832e-19)
(0.0973637 0.0487478 -1.46143e-19)
(0.139564 0.0467788 3.77448e-19)
(0.188835 0.0453996 2.55457e-19)
(0.245534 0.0448307 -3.30846e-19)
(0.309828 0.0452542 3.5571e-19)
(0.381578 0.046803 1.48278e-19)
(0.460214 0.0495302 -3.73743e-20)
(0.544664 0.0534829 -3.22577e-20)
(0.633131 0.0582333 -3.18719e-19)
(0.723822 0.0646059 3.51753e-20)
(0.811997 0.0692935 -5.99983e-20)
(0.902444 0.0789782 -3.18938e-19)
(0.967023 0.0790338 -2.34846e-19)
(1.07314 0.0941317 -2.18368e-19)
(-0.00899591 0.0106313 -4.01793e-20)
(-0.0222556 0.0265454 -5.25546e-19)
(-0.0310549 0.0382076 -3.24863e-19)
(-0.0351378 0.0462324 -4.14424e-19)
(-0.0343534 0.051234 3.66501e-19)
(-0.0285727 0.0538098 2.95388e-20)
(-0.0176434 0.05452 2.65961e-19)
(-0.00135892 0.0538781 -2.43364e-19)
(0.0205613 0.0523492 4.05223e-19)
(0.0484779 0.0503517 1.51984e-19)
(0.0828222 0.0482623 1.24129e-20)
(0.124068 0.04642 -2.38911e-20)
(0.172682 0.0451289 -8.44296e-20)
(0.229047 0.0446569 -7.34538e-20)
(0.293365 0.0452289 7.87464e-20)
(0.365532 0.0470135 1.11511e-19)
(0.445005 0.0501046 -7.09326e-19)
(0.530689 0.0544909 4.44218e-20)
(0.620857 0.0600867 -1.17255e-19)
(0.71316 0.066469 -1.08515e-19)
(0.804843 0.0738688 5.45649e-20)
(0.892123 0.0800402 -3.53052e-19)
(0.975759 0.0891144 1.60256e-19)
(1.03789 0.0903647 2.03192e-19)
(1.1266 0.103739 -4.61501e-19)
(-0.00931851 0.0104377 9.38888e-20)
(-0.0227285 0.0258204 3.80397e-19)
(-0.0311566 0.0369033 3.27876e-20)
(-0.0343428 0.0443563 6.02231e-19)
(-0.0321191 0.0488425 -3.82333e-19)
(-0.0243333 0.0509954 3.74829e-19)
(-0.0107992 0.0514037 -3.36247e-19)
(0.00873398 0.0506045 1.32524e-19)
(0.0345972 0.0490846 -1.71224e-19)
(0.0672 0.0472846 2.26103e-19)
(0.107007 0.045603 3.75206e-19)
(0.154494 0.0443998 1.94513e-19)
(0.210068 0.0439953 7.79594e-20)
(0.273972 0.0446634 8.52111e-20)
(0.346148 0.0466171 -6.48931e-20)
(0.426099 0.0499873 -5.21833e-20)
(0.512751 0.0547945 5.78756e-19)
(0.604372 0.0609281 1.90456e-19)
(0.698542 0.0681276 5.27541e-19)
(0.79236 0.0759598 1.37379e-20)
(0.882459 0.0840583 -3.3245e-19)
(0.965813 0.0912813 4.14093e-19)
(1.04052 0.0990703 5.21555e-19)
(1.09814 0.101406 6.74303e-20)
(1.1677 0.111943 4.53882e-19)
(-0.00962206 0.0102209 -2.66423e-19)
(-0.0230832 0.0250125 1.47675e-19)
(-0.0309845 0.0354646 3.24608e-19)
(-0.0330678 0.0423069 -1.27726e-19)
(-0.0291474 0.0462569 -3.80354e-19)
(-0.0190448 0.0479895 -2.80921e-20)
(-0.00253591 0.0481249 2.05821e-20)
(0.0206773 0.0472279 3.69182e-20)
(0.0509748 0.0458105 -2.36882e-19)
(0.0888048 0.0443376 -1.00413e-19)
(0.134642 0.0432308 -3.50427e-19)
(0.188919 0.0428684 -8.68124e-21)
(0.25192 0.0435795 -9.86138e-20)
(0.323645 0.0456288 -2.98996e-20)
(0.403662 0.0491933 2.61608e-19)
(0.490949 0.054333 -3.83408e-19)
(0.583786 0.0609563 1.61481e-19)
(0.679744 0.0688147 -2.55385e-19)
(0.775757 0.0774536 -3.81344e-19)
(0.868493 0.0863927 7.05009e-20)
(0.954421 0.094814 7.09312e-19)
(1.03109 0.102469 -3.59342e-19)
(1.09569 0.108513 1.56364e-20)
(1.14691 0.111846 3.11288e-19)
(1.19707 0.118373 1.74543e-19)
(-0.00989936 0.00997754 1.25467e-19)
(-0.0232941 0.0241193 -1.78223e-19)
(-0.0304881 0.0338948 -3.77812e-19)
(-0.0312326 0.0400973 -2.00793e-19)
(-0.0253242 0.043504 2.19547e-19)
(-0.0125556 0.0448351 7.4752e-20)
(0.00733788 0.0447466 4.37028e-19)
(0.0347009 0.0438341 1.77329e-19)
(0.0699551 0.0426379 1.12127e-19)
(0.113568 0.0416489 5.22816e-20)
(0.165987 0.0413101 3.62291e-19)
(0.227541 0.042012 1.6389e-19)
(0.298297 0.0440787 -1.35732e-19)
(0.377905 0.0477432 1.94225e-19)
(0.465421 0.0531137 -1.1198e-19)
(0.559183 0.0601397 1.42226e-19)
(0.656751 0.0685776 -1.38066e-19)
(0.755021 0.0780099 -3.00677e-19)
(0.850434 0.0877942 4.37226e-19)
(0.939472 0.0973769 -4.57171e-19)
(1.01889 0.105717 1.29266e-19)
(1.08678 0.113099 -1.49321e-19)
(1.141 0.117296 -1.12772e-19)
(1.18413 0.121398 -9.2922e-19)
(1.21612 0.122467 1.48357e-19)
(-0.0101415 0.00970474 2.56265e-20)
(-0.0233305 0.0231367 1.27739e-19)
(-0.0296106 0.0321958 4.23913e-19)
(-0.0287497 0.0377406 -1.0001e-19)
(-0.0205277 0.0406118 -4.35746e-20)
(-0.00470706 0.0415789 8.10798e-20)
(0.0190172 0.041337 7.22918e-20)
(0.0510314 0.0405159 -2.84768e-19)
(0.0917838 0.0396861 -1.32302e-19)
(0.141729 0.0393641 -4.08435e-19)
(0.201234 0.0400096 -3.0846e-19)
(0.27044 0.0420136 -2.20033e-19)
(0.349093 0.0456741 1.96606e-19)
(0.436358 0.0511611 -2.87093e-19)
(0.53066 0.0584745 -1.38255e-19)
(0.629607 0.0674109 -6.05256e-20)
(0.730045 0.0775418 -4.3713e-20)
(0.828312 0.088267 9.00156e-19)
(0.920613 0.09879 5.72714e-20)
(1.00359 0.108497 -7.92029e-20)
(1.07465 0.116341 -4.46748e-19)
(1.13259 0.12281 1.45159e-19)
(1.1768 0.125436 1.51061e-20)
(1.21052 0.129399 5.34061e-19)
(1.22753 0.123839 5.99112e-20)
(-0.0103386 0.00939836 2.02718e-19)
(-0.0231576 0.0220592 -1.94968e-19)
(-0.0282893 0.0303696 -2.9611e-19)
(-0.0255252 0.0352507 2.97389e-19)
(-0.0146303 0.0376105 -6.641e-20)
(0.00466301 0.0382709 -5.75659e-20)
(0.032696 0.0379695 5.02002e-20)
(0.0698851 0.0373723 -7.18539e-20)
(0.116679 0.0370807 1.80288e-19)
(0.173475 0.0376332 1.16939e-19)
(0.240485 0.0394967 3.02987e-19)
(0.317563 0.0430441 -8.13334e-21)
(0.404008 0.0485184 2.48539e-19)
(0.498372 0.0559871 -1.66662e-20)
(0.598351 0.0652979 2.65467e-19)
(0.700798 0.0760569 7.72971e-20)
(0.80194 0.0876337 -4.99147e-19)
(0.89779 0.0992588 -2.43381e-19)
(0.984647 0.110041 -5.9234e-20)
(1.05968 0.119364 1.60714e-19)
(1.12121 0.126319 -7.62956e-20)
(1.16893 0.13146 -2.71106e-19)
(1.20376 0.132842 3.56205e-20)
(1.22762 0.13498 -2.50429e-19)
(1.24089 0.128905 -1.21235e-19)
(-0.0104778 0.00905355 1.24172e-19)
(-0.0227368 0.0208817 1.3259e-19)
(-0.0264557 0.0284184 2.42991e-19)
(-0.0214595 0.032643 -1.77017e-19)
(-0.00749966 0.0345329 1.2927e-20)
(0.0157177 0.0349656 3.54623e-19)
(0.0485617 0.0347229 -1.01644e-19)
(0.0914588 0.0345082 -3.39326e-19)
(0.144821 0.0349516 -2.01128e-19)
(0.208922 0.0366065 2.69017e-19)
(0.283731 0.0399309 -5.6068e-19)
(0.368696 0.0452532 2.20224e-21)
(0.462536 0.0527236 -4.81471e-20)
(0.563083 0.0622627 3.56429e-19)
(0.667249 0.0735238 -1.93965e-19)
(0.771202 0.0858974 2.66587e-19)
(0.870745 0.0985592 2.69738e-19)
(0.961879 0.110615 -4.76417e-19)
(1.04136 0.121159 -1.98854e-19)
(1.10719 0.129652 -1.65212e-19)
(1.15873 0.135399 2.52271e-19)
(1.1967 0.139069 3.9974e-19)
(1.22286 0.139149 1.86149e-19)
(1.23931 0.139749 -1.65529e-19)
(1.24835 0.133321 -2.98879e-19)
(-0.0105446 0.00866572 -2.93304e-20)
(-0.0220247 0.0195995 1.24131e-19)
(-0.0240368 0.026346 -2.4669e-19)
(-0.0164484 0.0299352 -3.7883e-19)
(0.000998295 0.0314156 -5.61515e-19)
(0.0286169 0.0317221 9.56673e-20)
(0.0667894 0.0316815 -1.1289e-19)
(0.115921 0.0320334 1.65494e-19)
(0.176335 0.0334314 6.15416e-20)
(0.248103 0.0364305 1.18743e-19)
(0.330837 0.0414569 1.32034e-19)
(0.423453 0.0487592 -7.29067e-20)
(0.523971 0.0583504 -1.05515e-19)
(0.629424 0.0699582 -2.37147e-19)
(0.735974 0.0830095 7.236e-20)
(0.839258 0.0966761 -2.83431e-19)
(0.934949 0.109978 1.04546e-19)
(1.01939 0.121968 6.7476e-20)
(1.09012 0.131813 -2.81029e-19)
(1.14615 0.139129 -3.03128e-19)
(1.18793 0.143478 -1.62346e-19)
(1.21703 0.145649 9.23352e-21)
(1.2358 0.144509 5.07597e-20)