/*--------------------------------*- C++ -*----------------------------------*\
  =========                 |
  \\      /  F ield         | OpenFOAM: The Open Source CFD Toolbox
   \\    /   O peration     | Website:  https://openfoam.org
    \\  /    A nd           | Version:  7
     \\/     M anipulation  |
\*---------------------------------------------------------------------------*/
FoamFile
{
    version     2.0;
    format      ascii;
    class       volScalarField;
    location    "5";
    object      p;
}
// * * * * * * * * * * * * * * * * * * * * * * * * * * * * * * * * * * * * * //

dimensions      [0 2 -2 0 0 0 0];

internalField   nonuniform List<scalar> 
5650
(
-0.352214
-0.359115
-0.361034
-0.36096
-0.359077
-0.355455
-0.353186
-0.359906
-0.361723
-0.361564
-0.359611
-0.355934
-0.355118
-0.361478
-0.363094
-0.362766
-0.360673
-0.356885
-0.357985
-0.363813
-0.365129
-0.36455
-0.362248
-0.358293
-0.352812
-0.361754
-0.366886
-0.367807
-0.366894
-0.364314
-0.360135
-0.354477
-0.36638
-0.370663
-0.371099
-0.369772
-0.366845
-0.362387
-0.356504
-0.371814
-0.375108
-0.37497
-0.373151
-0.36981
-0.365016
-0.358863
-0.377999
-0.380176
-0.379383
-0.377
-0.373178
-0.367991
-0.361519
-0.384876
-0.385824
-0.3843
-0.38128
-0.376914
-0.371279
-0.364441
-0.392388
-0.392006
-0.389682
-0.385958
-0.380986
-0.374848
-0.367597
-0.400475
-0.398674
-0.395489
-0.390999
-0.385362
-0.37867
-0.37096
-0.362231
-0.409075
-0.405792
-0.401684
-0.396371
-0.390016
-0.382719
-0.374505
-0.365361
-0.418143
-0.413314
-0.408234
-0.402046
-0.394922
-0.386975
-0.378215
-0.368617
-0.427629
-0.421202
-0.415106
-0.407997
-0.400059
-0.39142
-0.382076
-0.371986
-0.437491
-0.429422
-0.422273
-0.414203
-0.405413
-0.396044
-0.386078
-0.375462
-0.364093
-0.447689
-0.437942
-0.429708
-0.420645
-0.410969
-0.400837
-0.390217
-0.37904
-0.367183
-0.458187
-0.446731
-0.437387
-0.427305
-0.416717
-0.405795
-0.39449
-0.382718
-0.370335
-0.468952
-0.455761
-0.445289
-0.434169
-0.422647
-0.410911
-0.398894
-0.386493
-0.373541
-0.35982
-0.479951
-0.465002
-0.453391
-0.441219
-0.42875
-0.41618
-0.403424
-0.390357
-0.37679
-0.362487
-0.491147
-0.474424
-0.461667
-0.448438
-0.435012
-0.421593
-0.408071
-0.394299
-0.380065
-0.365116
-0.349194
-0.502504
-0.483993
-0.47009
-0.455806
-0.441417
-0.427135
-0.412819
-0.398297
-0.383334
-0.367664
-0.351041
-0.513976
-0.49367
-0.478629
-0.463295
-0.447944
-0.432785
-0.417644
-0.40232
-0.386555
-0.370076
-0.352649
-0.334107
-0.525512
-0.503409
-0.487244
-0.470873
-0.454562
-0.438512
-0.42251
-0.406325
-0.389676
-0.372285
-0.353938
-0.334519
-0.31456
-0.53705
-0.513158
-0.495889
-0.478498
-0.461232
-0.444274
-0.427369
-0.410255
-0.39263
-0.374218
-0.354829
-0.334397
-0.313483
-0.548519
-0.522854
-0.504509
-0.486121
-0.467904
-0.450017
-0.432162
-0.41404
-0.39534
-0.375792
-0.355242
-0.333681
-0.311666
-0.287729
-0.559832
-0.532426
-0.513039
-0.493678
-0.474514
-0.455676
-0.436813
-0.4176
-0.397718
-0.376921
-0.355101
-0.332315
-0.309114
-0.284253
-0.267074
-0.570894
-0.541788
-0.521401
-0.501097
-0.480989
-0.461168
-0.441234
-0.420838
-0.399668
-0.377514
-0.354329
-0.330252
-0.30583
-0.280094
-0.261094
-0.581593
-0.550846
-0.529508
-0.50829
-0.487239
-0.4664
-0.445325
-0.42365
-0.401086
-0.377476
-0.352854
-0.327448
-0.301817
-0.275271
-0.25467
-0.591806
-0.559493
-0.537259
-0.51516
-0.493162
-0.471264
-0.448972
-0.425923
-0.401864
-0.376716
-0.350608
-0.323867
-0.297072
-0.2698
-0.247848
-0.601396
-0.56761
-0.544542
-0.521595
-0.498645
-0.475641
-0.452053
-0.427535
-0.401893
-0.375144
-0.347528
-0.319474
-0.291592
-0.263688
-0.240633
-0.610215
-0.575067
-0.551232
-0.527472
-0.50356
-0.479399
-0.454438
-0.428361
-0.401064
-0.372675
-0.343557
-0.314243
-0.28537
-0.256936
-0.233006
-0.618102
-0.581724
-0.557195
-0.532654
-0.50777
-0.4824
-0.455988
-0.428278
-0.39927
-0.369229
-0.338644
-0.308148
-0.278399
-0.249545
-0.224943
-0.624889
-0.58743
-0.562286
-0.536999
-0.511128
-0.484497
-0.456565
-0.427159
-0.396412
-0.364734
-0.332747
-0.301169
-0.270673
-0.241511
-0.216416
-0.630401
-0.592027
-0.566351
-0.540352
-0.513481
-0.48554
-0.456028
-0.424886
-0.392396
-0.359128
-0.325829
-0.293291
-0.262185
-0.232834
-0.207402
-0.634455
-0.595352
-0.56923
-0.542554
-0.514669
-0.485377
-0.454242
-0.421344
-0.387138
-0.352355
-0.317862
-0.284502
-0.252931
-0.223509
-0.197881
-0.636868
-0.597236
-0.570758
-0.54344
-0.514534
-0.483857
-0.451075
-0.41643
-0.380564
-0.344372
-0.308824
-0.274795
-0.242911
-0.213535
-0.187839
-0.637455
-0.597508
-0.570767
-0.542846
-0.512916
-0.480836
-0.446402
-0.410048
-0.372611
-0.335143
-0.2987
-0.264167
-0.232123
-0.202913
-0.177268
-0.636033
-0.596
-0.569091
-0.540608
-0.509659
-0.476174
-0.440112
-0.402117
-0.363229
-0.324644
-0.287482
-0.252618
-0.220571
-0.191645
-0.166161
-0.632427
-0.592544
-0.565565
-0.536566
-0.504615
-0.469743
-0.432105
-0.39257
-0.35238
-0.312858
-0.275169
-0.240153
-0.20826
-0.179735
-0.154521
-0.626468
-0.58698
-0.560031
-0.530567
-0.497645
-0.461429
-0.422295
-0.381353
-0.340037
-0.29978
-0.261767
-0.226782
-0.1952
-0.167192
-0.142351
-0.617998
-0.579157
-0.55234
-0.522469
-0.488624
-0.451131
-0.410613
-0.368427
-0.326187
-0.285414
-0.247285
-0.212517
-0.181401
-0.154025
-0.12966
-0.606876
-0.568934
-0.542353
-0.512144
-0.477442
-0.438766
-0.397008
-0.353769
-0.31083
-0.269771
-0.231742
-0.197376
-0.166879
-0.140248
-0.116462
-0.592975
-0.556187
-0.529948
-0.49948
-0.464007
-0.42427
-0.381445
-0.337372
-0.293976
-0.252872
-0.215161
-0.181381
-0.151654
-0.125878
-0.102772
-0.57619
-0.540809
-0.51502
-0.484384
-0.448247
-0.407599
-0.363909
-0.319245
-0.275649
-0.234746
-0.197572
-0.16456
-0.135747
-0.110935
-0.0885975
-0.556437
-0.522712
-0.497485
-0.466782
-0.430112
-0.388731
-0.344404
-0.299409
-0.255882
-0.215432
-0.179009
-0.146942
-0.119187
-0.0954498
-0.0739381
-0.533659
-0.501831
-0.47728
-0.446627
-0.409575
-0.367664
-0.322952
-0.277905
-0.234722
-0.194974
-0.159515
-0.128565
-0.102009
-0.0794622
-0.058863
-0.507823
-0.478126
-0.454368
-0.423893
-0.386634
-0.34442
-0.299593
-0.254783
-0.212223
-0.173426
-0.139137
-0.109469
-0.0842438
-0.0629418
-0.043443
-0.478925
-0.451584
-0.428738
-0.398584
-0.361311
-0.319041
-0.274387
-0.23011
-0.188453
-0.150848
-0.117928
-0.0897039
-0.0659317
-0.0459727
-0.0276551
-0.446992
-0.422218
-0.400405
-0.370728
-0.333653
-0.291592
-0.247409
-0.203967
-0.163488
-0.127309
-0.0959497
-0.0693172
-0.0471165
-0.028594
-0.011537
-0.412079
-0.390071
-0.369416
-0.34038
-0.30373
-0.262159
-0.218753
-0.176444
-0.137412
-0.102886
-0.0732663
-0.0483673
-0.0278475
-0.0108461
0.0048685
-0.374274
-0.355215
-0.335842
-0.307624
-0.27164
-0.230849
-0.188526
-0.147645
-0.11032
-0.0776607
-0.0499492
-0.0269159
-0.00817805
0.00722513
0.0215162
-0.333694
-0.317752
-0.299786
-0.272571
-0.237511
-0.197778
-0.156847
-0.117685
-0.0823137
-0.051722
-0.0260758
-0.0050296
0.0118344
0.0255692
0.0383567
-0.290488
-0.277812
-0.26138
-0.235363
-0.201495
-0.163071
-0.123858
-0.0866883
-0.0535042
-0.0251656
-0.00172852
0.0172201
0.0321283
0.0441316
0.0553352
-0.244835
-0.235555
-0.220782
-0.196153
-0.163675
-0.12696
-0.0897068
-0.0547889
-0.0240082
0.00190719
0.0230052
0.039757
0.0526381
0.0628538
0.0723893
-0.196936
-0.19117
-0.178173
-0.155116
-0.124321
-0.0895568
-0.0545518
-0.0221289
0.00605068
0.02939
0.0480335
0.062501
0.0732945
0.0816727
0.0894487
-0.147
-0.144889
-0.133763
-0.112476
-0.0836098
-0.0510568
-0.0185631
0.0111424
0.0365435
0.0571718
0.0732602
0.0853677
0.0940256
0.100526
0.106439
-0.0953144
-0.0969317
-0.0877869
-0.0684528
-0.0417512
-0.0116633
0.0180806
0.0448696
0.0673364
0.0851379
0.098586
0.10827
0.114762
0.119359
0.123255
-0.0421927
-0.0475366
-0.0404962
-0.023289
0.00102473
0.0284139
0.0551944
0.0788919
0.0982916
0.11317
0.123908
0.13112
0.135447
0.138121
0.13967
0.0120998
0.00299146
0.00783698
0.0227561
0.0444771
0.0689573
0.0925872
0.113045
0.129268
0.141148
0.149122
0.153832
0.156018
0.156684
0.155365
0.0672457
0.0543525
0.056926
0.0694109
0.0883556
0.109743
0.130063
0.14716
0.160123
0.168947
0.174122
0.176321
0.176377
0.174753
0.170313
0.122908
0.106235
0.106471
0.116393
0.132403
0.150542
0.167425
0.181067
0.19071
0.196446
0.198806
0.198501
0.196385
0.192009
0.185211
0.178739
0.158313
0.156162
0.163414
0.176355
0.191122
0.20447
0.214596
0.220885
0.22352
0.223068
0.220269
0.215972
0.209483
0.20135
0.234383
0.210254
0.205681
0.210177
0.219948
0.23125
0.241
0.247575
0.250503
0.250044
0.246801
0.241523
0.235022
0.2266
0.217225
0.28948
0.261717
0.254704
0.256385
0.262915
0.270694
0.276815
0.279836
0.279418
0.275896
0.269898
0.262172
0.253478
0.243171
0.232513
0.343667
0.31236
0.302909
0.301741
0.304991
0.309224
0.311716
0.311209
0.307489
0.300955
0.292254
0.282128
0.271282
0.259144
0.247119
0.396582
0.36184
0.349972
0.345949
0.345913
0.346612
0.345512
0.341533
0.334577
0.325102
0.31377
0.301305
0.288367
0.274461
0.26103
0.447866
0.40982
0.395576
0.388721
0.385426
0.382638
0.378014
0.370646
0.360547
0.348223
0.334346
0.319623
0.304663
0.289058
0.274224
0.49717
0.455967
0.439408
0.429772
0.423282
0.417087
0.40904
0.398395
0.385268
0.370207
0.35389
0.337001
0.320107
0.302879
0.286663
0.544153
0.499959
0.481168
0.468831
0.45924
0.449754
0.438414
0.424632
0.408615
0.390949
0.372312
0.353364
0.334634
0.315869
0.298315
0.588489
0.541488
0.520565
0.505636
0.493073
0.480443
0.465972
0.449217
0.430469
0.410347
0.389525
0.368641
0.348186
0.327978
0.309143
0.629867
0.580259
0.557327
0.539942
0.524565
0.50897
0.491556
0.472017
0.450719
0.428306
0.40545
0.382763
0.360704
0.339158
0.319116
0.667997
0.615996
0.591195
0.571516
0.553515
0.535162
0.51502
0.492909
0.469259
0.444737
0.420011
0.395667
0.372136
0.349362
0.328199
0.702608
0.648444
0.621932
0.600146
0.579738
0.558861
0.536231
0.511778
0.485993
0.459559
0.433138
0.407294
0.382432
0.35855
0.336361
0.733456
0.677369
0.649321
0.625638
0.603065
0.579924
0.555067
0.528523
0.500834
0.472697
0.444768
0.41759
0.391545
0.36668
0.343574
0.760319
0.702563
0.673169
0.647819
0.623346
0.598221
0.571418
0.543051
0.513704
0.484086
0.454845
0.426507
0.399436
0.373717
0.349808
0.783007
0.723844
0.693306
0.666539
0.640451
0.613643
0.585192
0.555283
0.524535
0.493666
0.46332
0.434004
0.406068
0.379632
0.355042
0.801356
0.741057
0.709591
0.681671
0.654269
0.626096
0.596308
0.56515
0.533269
0.501391
0.470151
0.440045
0.41141
0.384396
0.359255
0.815234
0.754077
0.721907
0.69311
0.664712
0.635502
0.604702
0.572599
0.539861
0.507219
0.475304
0.444601
0.41544
0.387988
0.362429
0.824542
0.762811
0.730167
0.70078
0.671711
0.641805
0.610325
0.577588
0.544276
0.511121
0.478753
0.447651
0.418136
0.390392
0.364552
0.829213
0.767194
0.734311
0.704629
0.675222
0.644966
0.613145
0.580089
0.546489
0.513077
0.480483
0.449179
0.419488
0.391597
0.365616
0.829213
0.767194
0.734311
0.704629
0.675222
0.644966
0.613145
0.580089
0.546489
0.513077
0.480483
0.449179
0.419488
0.391597
0.365616
0.824542
0.762811
0.730167
0.70078
0.671711
0.641805
0.610325
0.577588
0.544276
0.511121
0.478753
0.447651
0.418136
0.390392
0.364552
0.815234
0.754077
0.721907
0.69311
0.664712
0.635502
0.604702
0.572599
0.539861
0.507219
0.475304
0.444601
0.41544
0.387988
0.362429
0.801356
0.741057
0.709591
0.681671
0.654269
0.626096
0.596308
0.56515
0.533269
0.501391
0.470151
0.440045
0.41141
0.384396
0.359255
0.783007
0.723844
0.693306
0.666539
0.640451
0.613643
0.585192
0.555283
0.524535
0.493666
0.46332
0.434004
0.406068
0.379632
0.355042
0.760319
0.702563
0.673169
0.647819
0.623346
0.598221
0.571418
0.543051
0.513704
0.484086
0.454845
0.426507
0.399436
0.373717
0.349808
0.733456
0.677369
0.649321
0.625638
0.603065
0.579924
0.555067
0.528523
0.500834
0.472697
0.444768
0.41759
0.391545
0.36668
0.343574
0.702609
0.648444
0.621932
0.600146
0.579738
0.558861
0.536231
0.511778
0.485993
0.459559
0.433138
0.407294
0.382432
0.35855
0.336361
0.667997
0.615996
0.591195
0.571516
0.553515
0.535162
0.51502
0.492909
0.469259
0.444737
0.420011
0.395667
0.372136
0.349362
0.328199
0.629867
0.580259
0.557327
0.539942
0.524565
0.50897
0.491556
0.472017
0.450719
0.428306
0.40545
0.382763
0.360704
0.339158
0.319116
0.588489
0.541488
0.520565
0.505636
0.493073
0.480443
0.465972
0.449217
0.430469
0.410347
0.389525
0.368641
0.348186
0.327978
0.309143
0.544153
0.499959
0.481168
0.468831
0.45924
0.449754
0.438414
0.424632
0.408615
0.390949
0.372312
0.353364
0.334634
0.315869
0.298315
0.49717
0.455967
0.439408
0.429772
0.423282
0.417087
0.40904
0.398395
0.385268
0.370207
0.35389
0.337001
0.320107
0.302879
0.286663
0.447866
0.40982
0.395576
0.388721
0.385426
0.382638
0.378014
0.370646
0.360547
0.348223
0.334346
0.319623
0.304663
0.289058
0.274224
0.396582
0.36184
0.349972
0.345949
0.345913
0.346612
0.345512
0.341533
0.334577
0.325102
0.31377
0.301305
0.288367
0.274461
0.26103
0.343667
0.31236
0.302909
0.301741
0.30499
0.309224
0.311716
0.311209
0.307489
0.300955
0.292254
0.282128
0.271282
0.259144
0.247119
0.28948
0.261717
0.254704
0.256385
0.262915
0.270694
0.276814
0.279836
0.279418
0.275896
0.269898
0.262171
0.253478
0.243171
0.232513
0.234383
0.210254
0.205681
0.210177
0.219948
0.23125
0.241
0.247575
0.250503
0.250044
0.246801
0.241523
0.235022
0.2266
0.217225
0.178738
0.158313
0.156162
0.163414
0.176355
0.191122
0.20447
0.214596
0.220885
0.22352
0.223068
0.220269
0.215972
0.209483
0.20135
0.122908
0.106235
0.106471
0.116393
0.132403
0.150542
0.167425
0.181067
0.19071
0.196446
0.198806
0.198501
0.196385
0.192009
0.185211
0.0672456
0.0543524
0.056926
0.0694109
0.0883555
0.109743
0.130063
0.14716
0.160123
0.168947
0.174122
0.176321
0.176377
0.174753
0.170313
0.0120997
0.00299143
0.00783695
0.0227561
0.044477
0.0689573
0.0925872
0.113045
0.129268
0.141148
0.149122
0.153832
0.156018
0.156684
0.155365
-0.0421927
-0.0475366
-0.0404962
-0.0232891
0.0010247
0.0284139
0.0551944
0.0788919
0.0982916
0.11317
0.123908
0.13112
0.135446
0.138121
0.13967
-0.0953144
-0.0969318
-0.0877869
-0.0684528
-0.0417512
-0.0116633
0.0180806
0.0448695
0.0673364
0.0851379
0.098586
0.10827
0.114762
0.119359
0.123255
-0.147
-0.144889
-0.133763
-0.112476
-0.0836098
-0.0510568
-0.0185632
0.0111424
0.0365435
0.0571718
0.0732602
0.0853676
0.0940256
0.100525
0.106439
-0.196936
-0.19117
-0.178174
-0.155116
-0.124321
-0.0895568
-0.0545518
-0.0221289
0.00605064
0.0293899
0.0480334
0.0625009
0.0732945
0.0816727
0.0894487
-0.244835
-0.235555
-0.220782
-0.196153
-0.163675
-0.12696
-0.0897068
-0.054789
-0.0240083
0.00190716
0.0230052
0.039757
0.0526381
0.0628537
0.0723893
-0.290488
-0.277812
-0.26138
-0.235363
-0.201495
-0.163071
-0.123858
-0.0866883
-0.0535042
-0.0251656
-0.00172855
0.01722
0.0321282
0.0441316
0.0553352
-0.333694
-0.317752
-0.299786
-0.272571
-0.237511
-0.197778
-0.156847
-0.117685
-0.0823138
-0.051722
-0.0260759
-0.00502963
0.0118344
0.0255692
0.0383566
-0.374274
-0.355215
-0.335842
-0.307624
-0.27164
-0.230849
-0.188526
-0.147645
-0.11032
-0.0776608
-0.0499493
-0.0269159
-0.00817808
0.0072251
0.0215161
-0.412079
-0.390071
-0.369416
-0.34038
-0.30373
-0.262159
-0.218753
-0.176444
-0.137412
-0.102886
-0.0732663
-0.0483674
-0.0278476
-0.0108461
0.00486847
-0.446992
-0.422218
-0.400405
-0.370728
-0.333653
-0.291592
-0.247409
-0.203967
-0.163488
-0.127309
-0.0959498
-0.0693173
-0.0471166
-0.0285941
-0.011537
-0.478925
-0.451584
-0.428738
-0.398584
-0.361311
-0.319041
-0.274387
-0.23011
-0.188453
-0.150848
-0.117928
-0.0897039
-0.0659317
-0.0459727
-0.0276551
-0.507823
-0.478126
-0.454368
-0.423893
-0.386635
-0.34442
-0.299593
-0.254783
-0.212223
-0.173426
-0.139137
-0.109469
-0.0842438
-0.0629418
-0.043443
-0.533659
-0.501831
-0.47728
-0.446627
-0.409576
-0.367664
-0.322952
-0.277905
-0.234722
-0.194974
-0.159515
-0.128565
-0.102009
-0.0794622
-0.0588631
-0.556437
-0.522712
-0.497485
-0.466782
-0.430112
-0.388731
-0.344404
-0.299409
-0.255882
-0.215432
-0.179009
-0.146942
-0.119187
-0.0954498
-0.0739381
-0.57619
-0.540809
-0.51502
-0.484384
-0.448247
-0.407599
-0.363909
-0.319245
-0.275649
-0.234746
-0.197572
-0.16456
-0.135747
-0.110935
-0.0885976
-0.592975
-0.556187
-0.529948
-0.49948
-0.464007
-0.42427
-0.381445
-0.337372
-0.293976
-0.252872
-0.215161
-0.181382
-0.151654
-0.125878
-0.102772
-0.606876
-0.568934
-0.542353
-0.512144
-0.477442
-0.438766
-0.397008
-0.353769
-0.31083
-0.269771
-0.231742
-0.197376
-0.16688
-0.140248
-0.116462
-0.617998
-0.579157
-0.55234
-0.522469
-0.488624
-0.451131
-0.410613
-0.368427
-0.326187
-0.285414
-0.247285
-0.212517
-0.181401
-0.154025
-0.12966
-0.626468
-0.58698
-0.560031
-0.530567
-0.497645
-0.461429
-0.422295
-0.381353
-0.340037
-0.299781
-0.261767
-0.226782
-0.1952
-0.167192
-0.142351
-0.632427
-0.592544
-0.565565
-0.536566
-0.504615
-0.469743
-0.432105
-0.39257
-0.35238
-0.312858
-0.275169
-0.240153
-0.20826
-0.179735
-0.154521
-0.636034
-0.596
-0.569091
-0.540608
-0.509659
-0.476174
-0.440112
-0.402117
-0.363229
-0.324644
-0.287482
-0.252618
-0.220571
-0.191645
-0.166162
-0.637455
-0.597508
-0.570767
-0.542847
-0.512916
-0.480836
-0.446402
-0.410048
-0.372611
-0.335143
-0.2987
-0.264167
-0.232123
-0.202913
-0.177268
-0.636868
-0.597236
-0.570758
-0.54344
-0.514534
-0.483857
-0.451075
-0.41643
-0.380564
-0.344372
-0.308824
-0.274795
-0.242911
-0.213535
-0.187839
-0.634455
-0.595352
-0.56923
-0.542554
-0.51467
-0.485377
-0.454242
-0.421344
-0.387138
-0.352355
-0.317862
-0.284502
-0.252931
-0.223509
-0.197881
-0.630401
-0.592027
-0.566351
-0.540352
-0.513481
-0.48554
-0.456029
-0.424886
-0.392396
-0.359128
-0.325829
-0.293291
-0.262185
-0.232834
-0.207402
-0.624889
-0.58743
-0.562286
-0.536999
-0.511128
-0.484497
-0.456565
-0.427159
-0.396412
-0.364734
-0.332747
-0.301169
-0.270673
-0.241512
-0.216416
-0.618102
-0.581724
-0.557195
-0.532654
-0.50777
-0.4824
-0.455988
-0.428278
-0.39927
-0.369229
-0.338644
-0.308148
-0.278399
-0.249545
-0.224943
-0.610215
-0.575067
-0.551232
-0.527472
-0.50356
-0.479399
-0.454438
-0.428362
-0.401064
-0.372675
-0.343557
-0.314243
-0.28537
-0.256936
-0.233006
-0.601396
-0.56761
-0.544542
-0.521595
-0.498645
-0.475641
-0.452054
-0.427535
-0.401893
-0.375144
-0.347528
-0.319474
-0.291592
-0.263688
-0.240633
-0.591806
-0.559493
-0.537259
-0.51516
-0.493162
-0.471264
-0.448972
-0.425923
-0.401864
-0.376716
-0.350608
-0.323867
-0.297072
-0.2698
-0.247848
-0.581593
-0.550846
-0.529508
-0.50829
-0.487239
-0.4664
-0.445325
-0.42365
-0.401086
-0.377476
-0.352854
-0.327448
-0.301817
-0.275271
-0.25467
-0.570894
-0.541788
-0.521401
-0.501097
-0.480989
-0.461168
-0.441234
-0.420838
-0.399668
-0.377514
-0.354329
-0.330252
-0.30583
-0.280094
-0.261094
-0.559832
-0.532426
-0.513039
-0.493678
-0.474514
-0.455676
-0.436813
-0.4176
-0.397718
-0.376921
-0.355101
-0.332315
-0.309114
-0.284253
-0.267074
-0.548519
-0.522855
-0.504509
-0.486121
-0.467904
-0.450017
-0.432162
-0.41404
-0.39534
-0.375792
-0.355242
-0.333681
-0.311666
-0.287729
-0.537051
-0.513158
-0.495889
-0.478499
-0.461232
-0.444274
-0.427369
-0.410255
-0.39263
-0.374218
-0.354829
-0.334397
-0.313483
-0.525512
-0.503409
-0.487244
-0.470873
-0.454562
-0.438512
-0.42251
-0.406325
-0.389676
-0.372285
-0.353938
-0.334519
-0.513976
-0.49367
-0.478629
-0.463295
-0.447944
-0.432785
-0.417644
-0.40232
-0.386555
-0.370076
-0.352649
-0.334107
-0.502504
-0.483993
-0.47009
-0.455806
-0.441417
-0.427135
-0.412819
-0.398297
-0.383334
-0.367664
-0.351041
-0.491147
-0.474424
-0.461667
-0.448438
-0.435012
-0.421593
-0.408071
-0.394299
-0.380065
-0.365116
-0.349194
-0.479951
-0.465002
-0.453391
-0.441219
-0.42875
-0.41618
-0.403424
-0.390357
-0.37679
-0.362487
-0.468952
-0.455761
-0.44529
-0.434169
-0.422647
-0.410911
-0.398894
-0.386493
-0.373541
-0.35982
-0.458187
-0.446731
-0.437388
-0.427305
-0.416717
-0.405795
-0.39449
-0.382718
-0.370335
-0.447689
-0.437942
-0.429708
-0.420645
-0.410969
-0.400837
-0.390217
-0.37904
-0.367183
-0.437491
-0.429422
-0.422273
-0.414203
-0.405413
-0.396044
-0.386078
-0.375462
-0.364093
-0.427629
-0.421202
-0.415106
-0.407997
-0.40006
-0.39142
-0.382076
-0.371986
-0.418143
-0.413314
-0.408234
-0.402046
-0.394922
-0.386975
-0.378215
-0.368617
-0.409075
-0.405792
-0.401684
-0.396371
-0.390016
-0.382719
-0.374505
-0.365361
-0.400475
-0.398674
-0.395489
-0.390999
-0.385362
-0.37867
-0.37096
-0.362231
-0.392388
-0.392006
-0.389682
-0.385958
-0.380986
-0.374848
-0.367597
-0.384877
-0.385824
-0.3843
-0.38128
-0.376914
-0.371279
-0.364441
-0.377999
-0.380176
-0.379383
-0.377
-0.373178
-0.367991
-0.361519
-0.371814
-0.375108
-0.37497
-0.373152
-0.36981
-0.365016
-0.358863
-0.366381
-0.370663
-0.371099
-0.369772
-0.366845
-0.362387
-0.356504
-0.361754
-0.366886
-0.367807
-0.366894
-0.364314
-0.360135
-0.354477
-0.357985
-0.363813
-0.365129
-0.36455
-0.362248
-0.358293
-0.352812
-0.355118
-0.361478
-0.363094
-0.362766
-0.360673
-0.356885
-0.353186
-0.359906
-0.361723
-0.361564
-0.359611
-0.355934
-0.352214
-0.359115
-0.361034
-0.36096
-0.359077
-0.355455
-0.127862
-0.120743
-0.113853
-0.107158
-0.100667
-0.0943879
-0.088319
-0.082459
-0.0768067
-0.0713608
-0.0661203
-0.0610855
-0.0562572
-0.0516364
-0.0472255
-0.0430262
-0.0390412
-0.0352736
-0.031727
-0.028406
-0.0253158
-0.0224626
-0.0198541
-0.0175004
-0.0154095
-0.0135965
-0.012084
-0.0108987
-0.010057
-0.00962307
-0.139034
-0.13141
-0.124043
-0.116894
-0.109958
-0.10324
-0.0967436
-0.0904679
-0.0844123
-0.0785761
-0.0729588
-0.067561
-0.0623839
-0.0574291
-0.0526992
-0.0481967
-0.0439245
-0.0398863
-0.0360861
-0.0325286
-0.0292192
-0.0261645
-0.0233722
-0.0208523
-0.0186143
-0.0166752
-0.0150536
-0.0137787
-0.0128709
-0.0123879
-0.149723
-0.141631
-0.13384
-0.126287
-0.118946
-0.111826
-0.104933
-0.0982689
-0.0918336
-0.0856273
-0.0796505
-0.0739044
-0.068391
-0.0631129
-0.058073
-0.0532749
-0.0487221
-0.0444189
-0.0403698
-0.0365799
-0.033055
-0.029802
-0.0268287
-0.0241454
-0.0217627
-0.0196978
-0.0179692
-0.0166065
-0.0156342
-0.0151031
-0.159916
-0.151396
-0.143239
-0.135331
-0.127628
-0.120142
-0.112885
-0.10586
-0.0990688
-0.0925124
-0.0861931
-0.0801131
-0.0742757
-0.0686844
-0.0633434
-0.058257
-0.0534299
-0.0488671
-0.0445737
-0.0405555
-0.0368186
-0.0333703
-0.030219
-0.0273749
-0.0248496
-0.0226606
-0.0208269
-0.0193782
-0.0183429
-0.0177652
-0.169603
-0.160695
-0.152234
-0.144025
-0.136003
-0.128188
-0.120599
-0.113241
-0.106117
-0.0992307
-0.0925854
-0.0861855
-0.0800357
-0.074141
-0.068507
-0.0631394
-0.058044
-0.0532267
-0.0486936
-0.044451
-0.0405056
-0.0368652
-0.0335386
-0.0305364
-0.0278708
-0.0255597
-0.0236227
-0.02209
-0.0209934
-0.0203711
-0.178773
-0.169524
-0.160822
-0.152368
-0.144071
-0.135966
-0.128078
-0.120414
-0.11298
-0.105783
-0.0988273
-0.0921207
-0.0856695
-0.0794807
-0.0735616
-0.0679193
-0.0625612
-0.0574943
-0.0527257
-0.0482625
-0.0441121
-0.0402826
-0.0367835
-0.0336257
-0.0308223
-0.0283912
-0.0263531
-0.0247383
-0.0235823
-0.0229176
-0.187419
-0.177876
-0.169006
-0.160364
-0.151837
-0.143479
-0.135324
-0.127382
-0.119661
-0.112171
-0.10492
-0.0979191
-0.0911767
-0.0847022
-0.0785051
-0.0725943
-0.0669787
-0.0616668
-0.0566667
-0.0519865
-0.0476343
-0.0436188
-0.03995
-0.0366393
-0.0337004
-0.0311515
-0.0290145
-0.0273198
-0.0261065
-0.0254017
-0.195535
-0.185753
-0.176792
-0.168022
-0.159309
-0.150736
-0.142346
-0.134152
-0.126165
-0.118398
-0.110866
-0.103582
-0.0965577
-0.0898051
-0.0833363
-0.0771624
-0.071294
-0.0657413
-0.0605136
-0.0556198
-0.051069
-0.0468705
-0.0430347
-0.0395737
-0.0365017
-0.0338376
-0.0316038
-0.0298314
-0.0285629
-0.0278208
-0.20312
-0.193159
-0.184193
-0.175354
-0.1665
-0.157747
-0.149154
-0.140732
-0.132498
-0.124471
-0.11667
-0.109113
-0.101814
-0.0947897
-0.0880546
-0.0816223
-0.0755055
-0.0697157
-0.0642638
-0.0591597
-0.0544133
-0.0500347
-0.0460347
-0.0424259
-0.0392234
-0.0364463
-0.0341182
-0.0322704
-0.0309489
-0.0301723
-0.210177
-0.20011
-0.191229
-0.182383
-0.173428
-0.164531
-0.155763
-0.147137
-0.138673
-0.130398
-0.122338
-0.114515
-0.106948
-0.099657
-0.0926601
-0.0859734
-0.0796116
-0.0735881
-0.0679152
-0.0626038
-0.0576648
-0.0531088
-0.0489473
-0.0451934
-0.0418627
-0.038975
-0.036555
-0.0346341
-0.0332619
-0.0324538
-0.216717
-0.206633
-0.197935
-0.189138
-0.180119
-0.171111
-0.162194
-0.153382
-0.144701
-0.136189
-0.127878
-0.119794
-0.111963
-0.104409
-0.0971536
-0.0902154
-0.0836115
-0.0773572
-0.0714661
-0.0659502
-0.0608213
-0.0560905
-0.0517701
-0.0478737
-0.0444174
-0.0414216
-0.0389119
-0.0369205
-0.0354998
-0.0346632
-0.222765
-0.212773
-0.204361
-0.195661
-0.186609
-0.177517
-0.168474
-0.15949
-0.150602
-0.141859
-0.133299
-0.124957
-0.116864
-0.109049
-0.101537
-0.0943486
-0.0875048
-0.081022
-0.0749151
-0.0691973
-0.063881
-0.0589781
-0.0545013
-0.0504648
-0.0468854
-0.0437839
-0.041187
-0.0391274
-0.0376605
-0.0367986
-0.228363
-0.218603
-0.210577
-0.20201
-0.192946
-0.183792
-0.174637
-0.165489
-0.156397
-0.147423
-0.138615
-0.130014
-0.121658
-0.113581
-0.105811
-0.098374
-0.0912915
-0.0845819
-0.0782613
-0.0723439
-0.0668426
-0.06177
-0.0571393
-0.0529653
-0.0492651
-0.0460604
-0.0433787
-0.0412532
-0.0397423
-0.0388582
-0.233579
-0.224237
-0.216686
-0.208259
-0.199191
-0.18999
-0.18073
-0.171414
-0.162114
-0.152903
-0.14384
-0.134975
-0.126351
-0.118008
-0.10998
-0.102293
-0.094972
-0.0880367
-0.0815041
-0.0753891
-0.069705
-0.0644651
-0.059683
-0.0553737
-0.0515552
-0.0482496
-0.0454854
-0.0432966
-0.0417437
-0.0408406
-0.0846432
-0.0783323
-0.0724676
-0.0670626
-0.0621313
-0.0576892
-0.0537547
-0.0503505
-0.0475062
-0.0452562
-0.0436635
-0.0427442
-0.116219
-0.109642
-0.10328
-0.0970851
-0.0910803
-0.0852738
-0.0796632
-0.0742459
-0.0690205
-0.0639856
-0.0591396
-0.0544816
-0.0500135
-0.0457373
-0.0416553
-0.0377675
-0.0340765
-0.0305853
-0.0272974
-0.0242171
-0.0213497
-0.0187012
-0.0162792
-0.0140944
-0.012153
-0.0104667
-0.00906495
-0.0079709
-0.00719632
-0.00681238
-0.104122
-0.0981216
-0.0923351
-0.0866838
-0.0812024
-0.0759029
-0.0707808
-0.0658329
-0.0610582
-0.0564556
-0.0520217
-0.0477535
-0.0436561
-0.0397354
-0.0359929
-0.0324254
-0.0290354
-0.0258265
-0.0228022
-0.019967
-0.0173259
-0.014885
-0.0126522
-0.010638
-0.00884605
-0.00729432
-0.00600274
-0.00500032
-0.0042932
-0.00396021
-0.0915937
-0.0862019
-0.0810311
-0.0759596
-0.0710367
-0.0662779
-0.0616745
-0.057222
-0.0529203
-0.0487685
-0.0447605
-0.0409022
-0.0372002
-0.0336426
-0.0302468
-0.0270068
-0.0239242
-0.0210031
-0.0182473
-0.0156612
-0.0132499
-0.0110196
-0.00897794
-0.00713497
-0.00549069
-0.00408795
-0.0029036
-0.00199201
-0.00135196
-0.00107084
-0.0786408
-0.0738858
-0.069377
-0.0649345
-0.0606
-0.056411
-0.0523529
-0.0484182
-0.0446074
-0.0409174
-0.0373385
-0.0339274
-0.030676
-0.0274761
-0.0244282
-0.0215202
-0.0187506
-0.0161226
-0.0136398
-0.0113069
-0.00912894
-0.00711235
-0.00526481
-0.00359565
-0.00210942
-0.000834453
0.000232575
0.00105223
0.00162285
0.00185441
-0.065241
-0.0611189
-0.0573811
-0.0536965
-0.0499506
-0.0463417
-0.0428477
-0.0394524
-0.0361555
-0.0329562
-0.0298538
-0.0268657
-0.0239912
-0.0212018
-0.0185246
-0.0159615
-0.0135141
-0.0111863
-0.00898251
-0.00690745
-0.00496677
-0.00316703
-0.001516
-2.267e-05
0.00130553
0.00244742
0.00339797
0.00412548
0.00462684
0.00480966
-0.0515302
-0.0481462
-0.0450956
-0.042033
-0.0389903
-0.0360242
-0.0331299
-0.0303021
-0.0275419
-0.0248512
-0.0222326
-0.0196933
-0.017235
-0.014852
-0.0125527
-0.0103421
-0.00822384
-0.00620242
-0.00428262
-0.00246979
-0.000769963
0.000810008
0.00226217
0.00357758
0.00474735
0.00575344
0.00658796
0.007223
0.00765541
0.00779072
-0.0374295
-0.0347767
-0.0325004
-0.0301579
-0.0278098
-0.0255008
-0.0232278
-0.0209881
-0.0187841
-0.016619
-0.0144968
-0.0124227
-0.0104003
-0.00843004
-0.00651734
-0.00466764
-0.00288577
-0.0011768
0.000453772
0.00200003
0.00345545
0.00481275
0.00606373
0.0071993
0.00820969
0.00907901
0.00979742
0.0103399
0.0107038
0.0107934
-0.0230036
-0.0210959
-0.0196277
-0.018042
-0.0164076
-0.0147779
-0.013149
-0.0115182
-0.00988932
-0.00826689
-0.00665579
-0.00506157
-0.00348893
-0.00194156
-0.000424746
0.0010557
0.00249406
0.00388443
0.00522061
0.00649598
0.00770344
0.00883523
0.00988282
0.0108368
0.0116869
0.0124187
0.0130211
0.0134713
0.0137674
0.0138134
-0.00827789
-0.0071314
-0.00649849
-0.00569612
-0.00479841
-0.00386941
-0.00290476
-0.00190193
-0.000865869
0.000197666
0.00128282
0.00238336
0.00349331
0.00460715
0.0057188
0.00682178
0.0079095
0.00897517
0.0100118
0.011012
0.011968
0.0128715
0.0137136
0.0144844
0.0151735
0.0157671
0.0162536
0.0166121
0.0168413
0.0168463
0.00671838
0.00709032
0.00686476
0.006862
0.00700271
0.00721172
0.00749368
0.00785106
0.00827775
0.00876695
0.00931187
0.00990538
0.0105404
0.01121
0.0119072
0.0126245
0.0133544
0.0140893
0.0148212
0.015542
0.0162431
0.0169157
0.0175502
0.0181365
0.0186637
0.0191189
0.0194899
0.0197575
0.0199209
0.0198879
0.0219521
0.0215412
0.0204387
0.0196135
0.0189804
0.0184526
0.0180355
0.0177314
0.0175332
0.0174334
0.0174242
0.0174978
0.017646
0.0178609
0.0181342
0.0184577
0.0188227
0.0192207
0.0196428
0.02008
0.0205229
0.0209619
0.0213869
0.0217874
0.0221523
0.0224688
0.0227248
0.0229025
0.0230016
0.0229338
0.0373872
0.0361917
0.0341991
0.032539
0.0311188
0.02984
0.0287091
0.0277287
0.0268912
0.0261883
0.0256118
0.025153
0.0248031
0.0245529
0.0243933
0.0243149
0.0243081
0.0243632
0.0244705
0.0246199
0.0248013
0.0250042
0.025218
0.0254317
0.0256336
0.0258115
0.0259532
0.0260422
0.0260786
0.0259796
0.0529837
0.0510095
0.0481193
0.045616
0.0433987
0.0413572
0.0394999
0.0378305
0.0363409
0.0350226
0.0338669
0.0328645
0.0320058
0.0312808
0.0306794
0.0301911
0.0298054
0.0295117
0.029299
0.0291566
0.0290731
0.0290375
0.0290383
0.029064
0.0291027
0.0291422
0.0291704
0.0291722
0.0291476
0.0290213
0.0686941
0.0659561
0.0621673
0.0588185
0.0557999
0.0529896
0.0503987
0.0480317
0.0458803
0.0439359
0.0421899
0.0406327
0.0392543
0.038044
0.036991
0.0360841
0.0353119
0.0346627
0.0341246
0.0336857
0.0333339
0.0330571
0.0328431
0.0326798
0.0325549
0.0324562
0.0323718
0.0322878
0.0322043
0.0320546
0.0844696
0.0809991
0.0763262
0.0721425
0.0683281
0.064749
0.0614194
0.0583452
0.0555196
0.0529354
0.0505847
0.0484585
0.0465469
0.0448391
0.0433238
0.0419889
0.0408221
0.0398107
0.0389417
0.0382019
0.0375784
0.0370579