/*--------------------------------*- C++ -*----------------------------------*\
  =========                 |
  \\      /  F ield         | OpenFOAM: The Open Source CFD Toolbox
   \\    /   O peration     | Website:  https://openfoam.org
    \\  /    A nd           | Version:  7
     \\/     M anipulation  |
\*---------------------------------------------------------------------------*/
FoamFile
{
    version     2.0;
    format      ascii;
    class       volScalarField;
    location    "5";
    object      p;
}
// * * * * * * * * * * * * * * * * * * * * * * * * * * * * * * * * * * * * * //

dimensions      [0 2 -2 0 0 0 0];

internalField   nonuniform List<scalar> 
5650
(
-0.350238
-0.343512
-0.335349
-0.325825
-0.315039
-0.303121
-0.290308
-0.277024
-0.262651
-0.350674
-0.343914
-0.335724
-0.326176
-0.315367
-0.303418
-0.290564
-0.277244
-0.262552
-0.351537
-0.344709
-0.336464
-0.32687
-0.316014
-0.304003
-0.291068
-0.277682
-0.262357
-0.34588
-0.337553
-0.327889
-0.316962
-0.304857
-0.291806
-0.278329
-0.262066
-0.347405
-0.338967
-0.329208
-0.318187
-0.305961
-0.292752
-0.279174
-0.261685
-0.349255
-0.340674
-0.330795
-0.319657
-0.307285
-0.293879
-0.280202
-0.261219
-0.351397
-0.342643
-0.332617
-0.32134
-0.308797
-0.295157
-0.281394
-0.260675
-0.353798
-0.344839
-0.334638
-0.323197
-0.310464
-0.296552
-0.282726
-0.260061
-0.356424
-0.347225
-0.336822
-0.325193
-0.31225
-0.298032
-0.284169
-0.259391
-0.359245
-0.349771
-0.339137
-0.327296
-0.314123
-0.299566
-0.285689
-0.258679
-0.352449
-0.341553
-0.329473
-0.316053
-0.301123
-0.287248
-0.257946
-0.355235
-0.344046
-0.331699
-0.318009
-0.30268
-0.288797
-0.257214
-0.358112
-0.346596
-0.333952
-0.319966
-0.304212
-0.290281
-0.256505
-0.361067
-0.349191
-0.336215
-0.3219
-0.305701
-0.291637
-0.255844
-0.351819
-0.338473
-0.323789
-0.307133
-0.292798
-0.25527
-0.354472
-0.340712
-0.325612
-0.308499
-0.293697
-0.254836
-0.357143
-0.342922
-0.327349
-0.309788
-0.294218
-0.254484
-0.345087
-0.328992
-0.311011
-0.294158
-0.253948
-0.347189
-0.330549
-0.312229
-0.293545
-0.253947
-0.331999
-0.313472
-0.293323
-0.259641
-0.333232
-0.314473
-0.29424
-0.277938
-0.31489
-0.293917
-0.281652
-0.292559
-0.280328
-0.290497
-0.277039
-0.272479
-0.272479
-0.290497
-0.277039
-0.31456
-0.292559
-0.280328
-0.31489
-0.293917
-0.281652
-0.333232
-0.314473
-0.29424
-0.277938
-0.331999
-0.313472
-0.293323
-0.259641
-0.347189
-0.330549
-0.312229
-0.293545
-0.253947
-0.345087
-0.328992
-0.311011
-0.294158
-0.253948
-0.357143
-0.342922
-0.327349
-0.309788
-0.294217
-0.254484
-0.354472
-0.340712
-0.325612
-0.308499
-0.293697
-0.254836
-0.351819
-0.338473
-0.323789
-0.307133
-0.292798
-0.25527
-0.361067
-0.349191
-0.336215
-0.3219
-0.305701
-0.291637
-0.255844
-0.358112
-0.346596
-0.333952
-0.319966
-0.304212
-0.290281
-0.256505
-0.355235
-0.344046
-0.331699
-0.318009
-0.30268
-0.288797
-0.257214
-0.352449
-0.341553
-0.329473
-0.316053
-0.301123
-0.287248
-0.257946
-0.359245
-0.349771
-0.339137
-0.327296
-0.314123
-0.299566
-0.285689
-0.258679
-0.356424
-0.347225
-0.336822
-0.325193
-0.31225
-0.298032
-0.284169
-0.259391
-0.353798
-0.344839
-0.334638
-0.323197
-0.310464
-0.296552
-0.282726
-0.260061
-0.351397
-0.342643
-0.332617
-0.32134
-0.308797
-0.295157
-0.281394
-0.260675
-0.349255
-0.340674
-0.330795
-0.319657
-0.307285
-0.293879
-0.280202
-0.261219
-0.347405
-0.338967
-0.329208
-0.318187
-0.305961
-0.292752
-0.279174
-0.261685
-0.34588
-0.337553
-0.327889
-0.316962
-0.304857
-0.291806
-0.278329
-0.262066
-0.351537
-0.344709
-0.336464
-0.32687
-0.316014
-0.304003
-0.291068
-0.277682
-0.262357
-0.350674
-0.343914
-0.335724
-0.326176
-0.315367
-0.303418
-0.290564
-0.277244
-0.262552
-0.350238
-0.343512
-0.335349
-0.325825
-0.315039
-0.303121
-0.290308
-0.277024
-0.262651
-0.252934
-0.243555
-0.233569
-0.223221
-0.212403
-0.201114
-0.189376
-0.1772
-0.164617
-0.15167
-0.138425
-0.124967
-0.111403
-0.0978624
-0.0844889
-0.0714405
-0.058881
-0.0469725
-0.0358676
-0.025701
-0.016583
-0.00859391
-0.00178045
0.00384553
0.00830657
0.0116573
0.0139809
0.0153843
0.0159924
0.0159419
0.015374
0.0144268
0.0132286
0.0118919
0.0105089
0.00915059
0.0078658
0.00668685
0.0056266
0.00469432
0.00387754
0.00318335
0.0025733
0.00208288
0.0016195
0.00130173
0.000901152
0.000764715
0.000292254
0.000434332
-0.253593
-0.244113
-0.234051
-0.223699
-0.212882
-0.201596
-0.189863
-0.177695
-0.165117
-0.152175
-0.138932
-0.125474
-0.111907
-0.0983588
-0.0849748
-0.0719124
-0.0593356
-0.0474066
-0.0362784
-0.0260862
-0.0169406
-0.00892244
-0.00207894
0.00357752
0.00806891
0.0114493
0.0138014
0.0152315
0.0158642
0.0158358
0.0152873
0.0143567
0.0131726
0.0118474
0.0104738
0.00912303
0.00784421
0.00666996
0.00561339
0.00468398
0.00386945
0.00317702
0.00256833
0.00207903
0.00161655
0.00129942
0.00089956
0.000763368
0.000291764
0.000433404
-0.254889
-0.245216
-0.234999
-0.224641
-0.213824
-0.202542
-0.19082
-0.178665
-0.1661
-0.153167
-0.139929
-0.126471
-0.112897
-0.0993362
-0.0859322
-0.0728429
-0.0602324
-0.0482637
-0.0370902
-0.0268478
-0.0176482
-0.00957295
-0.00267036
0.00304613
0.00759742
0.0110365
0.0134448
0.0149278
0.0156092
0.0156246
0.0151146
0.0142171
0.0130608
0.0117587
0.0104038
0.00906803
0.00780111
0.00663622
0.00558699
0.00466332
0.00385329
0.00316436
0.00255841
0.00207134
0.00161067
0.0012948
0.000896378
0.000760677
0.000290784
0.000431553
-0.256782
-0.246838
-0.236389
-0.226015
-0.215199
-0.203921
-0.192214
-0.180077
-0.16753
-0.154611
-0.141382
-0.127924
-0.114343
-0.100764
-0.0873328
-0.0742058
-0.0615478
-0.0495224
-0.0382838
-0.027969
-0.018691
-0.0105327
-0.00354389
0.00226043
0.00689953
0.0104247
0.0129159
0.0144769
0.0152302
0.0153104
0.0148573
0.014009
0.0128941
0.0116263
0.0102992
0.00898581
0.00773664
0.00658574
0.00554749
0.00463239
0.0038291
0.00314542
0.00254342
0.00205984
0.00160186
0.00128789
0.000891613
0.000756647
0.000289316
0.000428786
-0.259207
-0.248938
-0.238179
-0.227782
-0.216962
-0.205686
-0.193996
-0.181883
-0.169358
-0.156459
-0.143242
-0.129788
-0.116199
-0.102601
-0.0891368
-0.0759643
-0.063248
-0.051152
-0.0398318
-0.0294256
-0.0200479
-0.0117835
-0.00468403
0.0012334
0.00598594
0.00962272
0.0122215
0.0138841
0.0147311
0.014896
0.0145177
0.0137339
0.0126734
0.0114507
0.0101605
0.00887667
0.00765102
0.00651868
0.00549498
0.00459127
0.00379693
0.00312026
0.00252333
0.00204452
0.00159013
0.00127869
0.000885272
0.000751286
0.000287362
0.000425119
-0.262087
-0.251465
-0.240321
-0.229887
-0.219059
-0.20778
-0.196108
-0.184021
-0.171524
-0.15865
-0.14545
-0.132004
-0.11841
-0.104793
-0.0912953
-0.078073
-0.0652913
-0.053115
-0.0417004
-0.0311875
-0.0216926
-0.0133026
-0.00607142
-1.86799e-05
0.00487011
0.00864138
0.0113702
0.013156
0.0141171
0.0143852
0.0140983
0.0133936
0.0124001
0.0112331
0.00998826
0.00874105
0.00754455
0.00643523
0.00542961
0.00454006
0.00375685
0.00308898
0.00250324
0.00202539
0.00157551
0.00126722
0.000877367
0.000744605
0.000284923
0.000420568
-0.265324
-0.254355
-0.242756
-0.232269
-0.221427
-0.21014
-0.198483
-0.186425
-0.17396
-0.161116
-0.14794
-0.134507
-0.120915
-0.107283
-0.0937527
-0.0804804
-0.0676305
-0.0553683
-0.0438512
-0.0332207
-0.0235952
-0.015064
-0.00768376
-0.001477
0.00356765
0.00749342
0.0103722
0.0123005
0.0133941
0.0137826
0.0136025
0.0129905
0.0120758
0.0109744
0.00978329
0.00857946
0.00741757
0.00633563
0.00535155
0.00447888
0.00370894
0.00305147
0.00247281
0.0020024
0.001558
0.00125349
0.000867913
0.000736618
0.000282003
0.000415156
-0.268812
-0.257527
-0.245416
-0.234861
-0.223997
-0.212693
-0.20105
-0.189022
-0.176593
-0.163785
-0.150641
-0.13723
-0.123646
-0.110006
-0.0964502
-0.0831319
-0.0702154
-0.0578663
-0.0462429
-0.0354884
-0.0257233
-0.0170395
-0.00949679
-0.00312099
0.00209569
0.00619286
0.00923883
0.0113266
0.012569
0.0130931
0.0130339
0.0125272
0.0117023
0.0106759
0.00954645
0.0083925
0.00727049
0.00622017
0.005261
0.00440788
0.00365329
0.00300781
0.0024377
0.00197575
0.00153766
0.00123755
0.000856925
0.00072734
0.000278606
0.000408908
-0.272434
-0.26089
-0.248227
-0.23759
-0.226697
-0.215369
-0.203735
-0.191738
-0.17935
-0.166585
-0.153482
-0.140103
-0.126538
-0.112902
-0.0993286
-0.085972
-0.0729948
-0.0605622
-0.0488334
-0.0379529
-0.0280435
-0.0191999
-0.0114853
-0.00492918
0.000472263
0.00475456
0.00798196
0.0102436
0.011649
0.0123223
0.0123966
0.0120066
0.0112817
0.0103391
0.00927872
0.00818084
0.00710379
0.00608917
0.00515818
0.00432721
0.00359004
0.00295816
0.00239842
0.00194548
0.00151452
0.0012194
0.000844422
0.000716789
0.000274736
0.000401855
-0.276071
-0.26434
-0.251108
-0.24038
-0.229451
-0.218093
-0.206466
-0.194502
-0.182159
-0.169446
-0.156394
-0.14306
-0.129528
-0.115907
-0.10233
-0.0889472
-0.0759191
-0.0634106
-0.0515812
-0.0405769
-0.0305226
-0.0215161
-0.0136239
-0.00687983
-0.00128429
0.00319374
0.00661403
0.0090615
0.0106418
0.011476
0.0116949
0.011432
0.0108162
0.00996552
0.00898117
0.00794522
0.00691797
0.005943
0.00504337
0.00423707
0.00351932
0.00290264
0.0023549
0.0019114
0.00148859
0.00119909
0.000830428
0.000704987
0.000270397
0.00039403
-0.279588
-0.267757
-0.253972
-0.243152
-0.232186
-0.220794
-0.209173
-0.197244
-0.184953
-0.172302
-0.159314
-0.146039
-0.132555
-0.118967
-0.105402
-0.0920071
-0.0789414
-0.0663682
-0.054447
-0.0433249
-0.0331288
-0.0239597
-0.015888
-0.00895159
-0.00315579
0.0015256
0.00514751
0.00779025
0.00955527
0.0105603
0.0109333
0.0108065
0.0103081
0.00955684
0.00865499
0.00768646
0.0067136
0.00578205
0.00491683
0.00413766
0.00344129
0.00284139
0.002307
0.00187374
0.00145987
0.00117664
0.000814967
0.000691955
0.000265595
0.000385469
-0.282847
-0.271014
-0.256729
-0.245827
-0.234824
-0.223401
-0.21179
-0.199902
-0.187673
-0.175095
-0.162185
-0.148985
-0.135567
-0.122029
-0.108495
-0.0951063
-0.0820193
-0.0693956
-0.0573944
-0.0461636
-0.0358322
-0.0265042
-0.0182539
-0.011124
-0.00512473
-0.000235078
0.00359466
0.00643982
0.00839737
0.00958121
0.0101166
0.0101336
0.00976007
0.00911481
0.00830139
0.00740542
0.00649127
0.00560675
0.00477887
0.00402921
0.00335611
0.0027745
0.00225473
0.00183295
0.00142843
0.00115211
0.000798067
0.000677721
0.000260334
0.000376214
-0.285711
-0.273972
-0.259282
-0.248322
-0.237291
-0.225849
-0.214258
-0.202421
-0.190264
-0.177774
-0.164958
-0.151852
-0.138519
-0.125052
-0.111569
-0.0982056
-0.0851157
-0.0724582
-0.0603914
-0.0490637
-0.0386061
-0.0291254
-0.0207004
-0.0133783
-0.00717483
-0.00207444
0.00196703
0.00501966
0.00717562
0.00854472
0.00924903
0.00941664
0.00917434
0.00864112
0.00792155
0.0071029
0.00625156
0.00541748
0.00462978
0.00391191
0.00326395
0.00270209
0.0021981
0.0017881
0.00139438
0.00112551
0.000779755
0.000662309
0.000254622
0.000366305
-0.288042
-0.276486
-0.261532
-0.250555
-0.239516
-0.228076
-0.216523
-0.204752
-0.192684
-0.180298
-0.167595
-0.154601
-0.141375
-0.128
-0.114588
-0.101272
-0.088199
-0.0755261
-0.06341
-0.0519993
-0.0414266
-0.0318019
-0.0232081
-0.0156975
-0.00929124
-0.00397978
0.000275327
0.00353858
0.0058971
0.00745634
0.00833495
0.00865869
0.00855319
0.00813733
0.00751654
0.00677964
0.00599497
0.00521461
0.00446982
0.00378597
0.00316495
0.00262428
0.00213723
0.00174022
0.00135825
0.00109684
0.000760055
0.000645748
0.000248464
0.000355789
-0.289713
-0.278411
-0.26338
-0.252439
-0.241421
-0.23002
-0.218533
-0.20685
-0.194891
-0.18263
-0.170059
-0.1572
-0.144101
-0.13084
-0.117523
-0.104275
-0.0912403
-0.0785715
-0.0664236
-0.0549452
-0.0442703
-0.034512
-0.0257572
-0.0180636
-0.0114581
-0.00593716
-0.00146843
0.0020068
0.00457032
0.00632303
0.00737991
0.00786415
0.00789998
0.007606
0.00708828
0.00643706
0.00572254
0.00499891
0.00429954
0.0036518
0.00305941
0.00254129
0.00207231
0.00168943
0.00131938
0.00106617
0.000738996
0.000628073
0.000241868
0.000344715
-0.290588
-0.279575
-0.264706
-0.253876
-0.242928
-0.231621
-0.22024
-0.208677
-0.196854
-0.184741
-0.172326
-0.159622
-0.146673
-0.133549
-0.120348
-0.10719
-0.0942139
-0.0815685
-0.0694066
-0.0578762
-0.0471127
-0.0372321
-0.0283255
-0.0204558
-0.013656
-0.00792882
-0.00324816
0.000438664
0.00320793
0.00515576
0.00639328
0.00704088
0.00722122
0.00705239
0.00664097
0.00607844
0.00543681
0.0047723
0.0041204
0.00351046
0.00294812
0.0024537
0.00200375
0.00163574
0.00127816
0.00103452
0.000716672
0.000609335
0.000234853
0.000333135
-0.290454
-0.279793
-0.265427
-0.254818
-0.244015
-0.232879
-0.221657
-0.210251
-0.198594
-0.186654
-0.174416
-0.161889
-0.149109
-0.136141
-0.123075
-0.110027
-0.0971269
-0.0845219
-0.0723616
-0.0607932
-0.0499532
-0.0399604
-0.0309103
-0.022871
-0.0158816
-0.0099513
-0.00506049
-0.00116269
0.00181269
0.0039568
0.00537679
0.00619014
0.00651773
0.00647701
0.00617487
0.00570392
0.00513783
0.00453479
0.00393239
0.00336197
0.00283109
0.00236151
0.00193156
0.00157911
0.00123476
0.00100029
0.000693214
0.000589562
0.000227431
0.000321091
-0.289362
-0.279141
-0.265635
-0.255332
-0.244745
-0.233857
-0.222845
-0.211632
-0.200169
-0.188425
-0.176384
-0.164052
-0.15146
-0.138668
-0.125758
-0.112838
-0.100035
-0.0874889
-0.0753475
-0.0637566
-0.0528533
-0.0427589
-0.0335732
-0.0253698
-0.0181939
-0.0120617
-0.00696025
-0.00284958
0.000335
0.00267958
0.00428722
0.0052724
0.00575415
0.00584898
0.00566377
0.00529186
0.00480826
0.00427288
0.00372528
0.00319876
0.00270286
0.00226089
0.00185308
0.00151777
0.00118801
0.000963575
0.000668008
0.000568578
0.000219524
0.000308579
-0.28797
-0.277386
-0.264901
-0.2549
-0.244613
-0.234088
-0.223381
-0.212437
-0.20123
-0.189735
-0.177938
-0.165846
-0.153487
-0.140913
-0.128202
-0.115455
-0.102791
-0.0903467
-0.0782643
-0.0666879
-0.0557547
-0.045588
-0.0362916
-0.0279443
-0.020598
-0.0142757
-0.00897164
-0.00465282
-0.00126064
0.00128577
0.00308524
0.00424906
0.00489393
0.00513495
0.00507831
0.00481733
0.00442762
0.00397029
0.0034865
0.00301139
0.00255655
0.00214691
0.0017649
0.00144944
0.00113636
0.000923469
0.000640538
0.000545986
0.000210934
0.000295656
-0.28239
-0.271634
-0.261618
-0.252224
-0.242542
-0.232638
-0.222427
-0.211905
-0.201073
-0.189918
-0.178436
-0.166637
-0.154553
-0.142232
-0.129751
-0.117206
-0.104713
-0.0924026
-0.0804157
-0.0688944
-0.0579757
-0.0477843
-0.0384265
-0.0299855
-0.0225182
-0.0160534
-0.0105918
-0.00610644
-0.00254495
0.000168048
0.00212657
0.00343807
0.00421652
0.00457548
0.00462071
0.00444601
0.00412818
0.00372988
0.00329411
0.00285771
0.00243407
0.00204934
0.00168768
0.00138813
0.00108902
0.000885811
0.000614257
0.00052393
0.000202148
0.000282968
-0.262461
-0.265672
-0.260689
-0.251897
-0.242686
-0.233138
-0.223175
-0.212854
-0.202189
-0.191169
-0.179795
-0.168078
-0.156048
-0.143757
-0.131279
-0.118713
-0.106176
-0.0938014
-0.0817319
-0.0701122
-0.0590819
-0.0487683
-0.0392802
-0.030703
-0.0230959
-0.0164901
-0.010889
-0.00626977
-0.00258488
0.000235242
0.00227913
0.0036501
0.00446062
0.00482585
0.00485604
0.00465136
0.00429546
0.0038571
0.00338389
0.00291532
0.00246621
0.00206234
0.00168784
0.00137961
0.00107676
0.000870657
0.000601552
0.000509827
0.000196368
0.000272365
-0.253126
-0.257595
-0.25441
-0.246469
-0.238035
-0.22913
-0.219689
-0.209818
-0.199555
-0.188907
-0.177881
-0.166499
-0.154792
-0.142813
-0.130638
-0.11836
-0.106095
-0.093971
-0.0821263
-0.0707018
-0.059834
-0.049648
-0.0402518
-0.0317313
-0.0241473
-0.0175339
-0.0118983
-0.00722227
-0.00346326
-0.000557193
0.00157892
0.00304315
0.00394343
0.00439146
0.00449533
0.0043543
0.00405216
0.00365842
0.00322198
0.00278344
0.00235911
0.00197531
0.00161792
0.00132306
0.00103282
0.000835018
0.000576901
0.000488517
0.000188321
0.00026029
-0.246939
-0.249426
-0.246534
-0.239373
-0.231661
-0.223408
-0.214539
-0.205178
-0.195383
-0.185175
-0.174573
-0.163604
-0.152305
-0.140732
-0.128958
-0.117074
-0.105189
-0.0934281
-0.0819217
-0.0708048
-0.0602087
-0.0502544
-0.0410471
-0.0326719
-0.0251902
-0.0186381
-0.0130264
-0.00834076
-0.00454357
-0.00157596
0.000639499
0.00219521
0.00319349
0.00374087
0.00394097
0.00388954
0.00366812
0.00334495
0.00296885
0.0025807
0.00219817
0.00184808
0.00151864
0.00124531
0.000974153
0.000789039
0.000545869
0.000462653
0.000178802
0.000246547
-0.240923
-0.241513
-0.238618
-0.232191
-0.22512
-0.217472
-0.209167
-0.200323
-0.19101
-0.181259
-0.171096
-0.160555
-0.149678
-0.138521
-0.127156
-0.115672
-0.104175
-0.0927812
-0.0816179
-0.0708138
-0.0604948
-0.0507781
-0.0417662
-0.033543
-0.0261705
-0.0196868
-0.0141056
-0.00941665
-0.00558716
-0.00256354
-0.000273971
0.00136819
0.00245969
0.00310191
0.00339415
0.00342879
0.00328522
0.00303043
0.00271318
0.00237449
0.00203335
0.00171689
0.00141564
0.00116413
0.000912607
0.000740534
0.000513027
0.000435151
0.0001687
0.000231766
-0.234395
-0.233557
-0.230536
-0.224781
-0.218317
-0.21125
-0.203512
-0.195203
-0.186395
-0.177125
-0.167427
-0.157338
-0.146904
-0.136182
-0.125243
-0.114173
-0.103075
-0.09206
-0.0812491
-0.0707659
-0.0607314
-0.0512587
-0.0424482
-0.0343825
-0.0271241
-0.020713
-0.0151659
-0.0104769
-0.00661777
-0.00354051
-0.00117903
0.00054749
0.00173015
0.0024652
0.0028477
0.00296674
0.00289964
0.00271223
0.00245319
0.00216369
0.00186394
0.00158131
0.00130866
0.00107939
0.000848064
0.000689453
0.0004783
0.000406
0.000157929
0.000215965
-0.227051
-0.225372
-0.22216
-0.217
-0.211126
-0.204628
-0.19746
-0.189702
-0.181422
-0.17266
-0.163454
-0.153846
-0.143882
-0.133621
-0.123133
-0.112501
-0.101824
-0.0912084
-0.0807694
-0.0706253
-0.0608922
-0.0516795
-0.0430848
-0.0351898
-0.0280574
-0.0217292
-0.0162251
-0.0115432
-0.00766035
-0.00453389
-0.00210359
-0.000294611
0.000978373
0.00180635
0.00227991
0.00248473
0.00249586
0.00237778
0.002179
0.00194067
0.00168422
0.00143714
0.00119463
0.000988919
0.000779037
0.000634798
0.000441046
0.000374813
0.000146284
0.000199102
-0.218879
-0.216874
-0.213502
-0.208873
-0.20358
-0.197642
-0.191041
-0.183843
-0.176108
-0.167875
-0.159185
-0.15008
-0.140611
-0.130834
-0.12082
-0.110648
-0.100413
-0.0902165
-0.0801684
-0.0703815
-0.0609672
-0.0520309
-0.0436674
-0.0359574
-0.0289638
-0.0227301
-0.0172792
-0.0126131
-0.00871357
-0.00554344
-0.00304837
-0.00115957
0.000202398
0.00112306
0.0016884
0.0019804
0.00207166
0.00202512
0.00188889
0.00170401
0.001493
0.00128341
0.00107282
0.000892156
0.000705085
0.000576261
0.000401028
0.000341456
0.000133643
0.000181197
-0.209968
-0.208025
-0.204594
-0.200456
-0.195735
-0.190352
-0.184314
-0.177679
-0.170498
-0.162809
-0.154652
-0.146071
-0.137115
-0.127842
-0.11832
-0.108627
-0.098851
-0.0890905
-0.0794496
-0.0700358
-0.0609555
-0.0523102
-0.0441921
-0.0366802
-0.0298377
-0.0237098
-0.018322
-0.0136804
-0.00977151
-0.00656364
-0.00400834
-0.00204292
-0.000593957
0.00041853
0.00107571
0.00145572
0.0016285
0.00165524
0.00158352
0.00145408
0.00129048
0.00112021
0.000943206
0.000789042
0.000626115
0.000513765
0.000358143
0.000305894
0.000119906
0.000162302
-0.20044
-0.19883
-0.195474
-0.191803
-0.187643
-0.182811
-0.17733
-0.171258
-0.164637
-0.1575
-0.149888
-0.141844
-0.133417
-0.124664
-0.115649
-0.106449
-0.0971471
-0.0878368
-0.078617
-0.0695899
-0.0608571
-0.0525161
-0.044656
-0.0373546
-0.030675
-0.0246636
-0.0193489
-0.0147405
-0.0108298
-0.00759049
-0.00497994
-0.00294162
-0.00140813
-0.00030519
0.000443439
0.000911872
0.0011672
0.00126868
0.00126319
0.00119103
0.00107667
0.000947477
0.000805684
0.000679471
0.000542002
0.000447223
0.000312279
0.000268092
0.000104963
0.00014248
-0.190449
-0.189337
-0.186187
-0.18297
-0.179358
-0.175073
-0.170142
-0.16463
-0.158568
-0.151989
-0.144929
-0.137431
-0.129543
-0.12132
-0.112824
-0.104128
-0.0953112
-0.0864624
-0.0776751
-0.0690462
-0.0606724
-0.0526472
-0.0450569
-0.0379774
-0.0314718
-0.0255876
-0.0203556
-0.0157894
-0.0118847
-0.00862051
-0.00596012
-0.00385307
-0.00223803
-0.00104646
-0.000207199
0.000349702
0.000688305
0.000865749
0.000928037
0.000914881
0.000851522
0.000765106
0.000660122
0.000563319
0.000452613
0.000376544
0.000263323
0.000228022
8.8701e-05
0.000121807
-0.180164
-0.179623
-0.176792
-0.174024
-0.170943
-0.167197
-0.162808
-0.157847
-0.152341
-0.146318
-0.139812
-0.132865
-0.125521
-0.117834
-0.109864
-0.101679
-0.0933557
-0.0849765
-0.0766302
-0.0684084
-0.0604031
-0.0527035
-0.045393
-0.0385458
-0.0322244
-0.0264774
-0.0213378
-0.0168226
-0.0129318
-0.00964979
-0.00694542
-0.00477429
-0.00308116
-0.0018033
-0.000874664
-0.000229646
0.000192622
0.000446988
0.000578384
0.000625789
0.000615072
0.000573084
0.000506459
0.000440517
0.000357855
0.00030167
0.000211179
0.000185675
7.10119e-05
0.000100369
-0.169749
-0.169785
-0.167356
-0.165033
-0.162462
-0.159242
-0.155385
-0.150964
-0.146006
-0.140534
-0.134579
-0.12818
-0.121381
-0.114233
-0.106791
-0.0991213
-0.0912948
-0.08339
-0.0754901
-0.0676815
-0.0600517
-0.0526856
-0.0456634
-0.0390575
-0.0329296
-0.027329
-0.022291
-0.0178354
-0.0139668
-0.0106741
-0.00793193
-0.00570184
-0.0039346
-0.00257325
-0.001557
-0.000824655
-0.000318717
1.32037e-05
0.000214784
0.000324116
0.000367536
0.000371525
0.000344733
0.000311072
0.000257693
0.000222588
0.000155784
0.000141066
5.17957e-05
7.82685e-05
-0.159356
-0.159928
-0.157954
-0.15607
-0.153982
-0.151271
-0.147931
-0.144034
-0.139611
-0.13468
-0.129269
-0.123414
-0.117156
-0.110543
-0.103629
-0.0964732
-0.0891443
-0.081715
-0.0742638
-0.0668719
-0.059622
-0.0525949
-0.0458676
-0.0395104
-0.0335842
-0.0281387
-0.0232108
-0.0188234
-0.0149848
-0.0116888
-0.00891541
-0.00663189
-0.00479497
-0.00335348
-0.00225186
-0.00143346
-0.000844263
-0.00043451
-0.000161967
1.04255e-05
0.000109295
0.000160682
0.000175093
0.000175084
0.000152163
0.000139337
9.7112e-05
9.42392e-05
3.09678e-05
5.56192e-05
-0.149116
-0.150155
-0.148658
-0.147203
-0.14557
-0.143344
-0.140501
-0.137112
-0.133208
-0.128803
-0.123923
-0.118602
-0.112877
-0.106793
-0.1004
-0.0937551
-0.0869203
-0.0799646
-0.0729612
-0.0659866
-0.0591184
-0.0524337
-0.046006
-0.0399033
-0.0341855
-0.0289026
-0.0240928
-0.0197816
-0.015981
-0.0126892
-0.00989129
-0.00756025
-0.00565856
-0.00414076
-0.00295654
-0.00205382
-0.00138223
-0.000894759
-0.000550807
-0.000314491
-0.000159076
-5.90323e-05
-2.17819e-06
3.27532e-05
4.13839e-05
5.20204e-05
3.51856e-05
4.52703e-05
8.46569e-06
3.25457e-05
-0.139142
-0.140566
-0.139543
-0.138499
-0.137289
-0.135519
-0.13315
-0.130247
-0.126841
-0.122945
-0.118582
-0.11378
-0.108576
-0.103011
-0.0971302
-0.0909871
-0.0846399
-0.0781524
-0.071593
-0.0650333
-0.0585463
-0.0522049
-0.0460794
-0.0402353
-0.0347314
-0.0296175
-0.0249329
-0.0207055
-0.0169505
-0.0136702
-0.0108548
-0.0084824
-0.00652125
-0.00493144
-0.00366788
-0.00268311
-0.00193045
-0.00136581
-0.000950371
-0.000649578
-0.000436778
-0.000287019
-0.000186644
-0.000115594
-7.4426e-05
-3.91853e-05
-2.99138e-05
-5.72521e-06
-1.57437e-05
9.18338e-06
-0.129522
-0.131248
-0.130676
-0.130018
-0.129197
-0.127851
-0.125929
-0.123488
-0.120557
-0.117149
-0.113282
-0.108983
-0.104284
-0.0992231
-0.093842
-0.0881897
-0.0823201
-0.0762925
-0.0701703
-0.0640205
-0.0579115
-0.0519121
-0.0460893
-0.0405062
-0.03522
-0.0302803
-0.0257272
-0.0215905
-0.0178882
-0.0146268
-0.0118007
-0.00939347
-0.00737854
-0.00572148
-0.00438234
-0.00331826
-0.00248637
-0.00184555
-0.00135896
-0.000993484
-0.000722755
-0.000522461
-0.000377687
-0.000269485
-0.000194928
-0.000134012
-9.80323e-05
-5.8587e-05
-4.16556e-05
-1.43225e-05
-0.120325
-0.122273
-0.122116
-0.121816
-0.121349
-0.120392
-0.118887
-0.116879
-0.114398
-0.111453
-0.108061
-0.104244
-0.100031
-0.0954566
-0.0905592
-0.0853832
-0.0799784
-0.0743993
-0.0687049
-0.0629572
-0.0572206
-0.0515597
-0.0460381
-0.0407164
-0.0356502
-0.0308885
-0.026472
-0.022432
-0.0187893
-0.0155537
-0.0127239
-0.0102883
-0.00822556
-0.00650639
-0.0050959
-0.00395578
-0.00304697
-0.00233145
-0.00177448
-0.00134452
-0.00101566
-0.000764291
-0.000574477
-0.000428278
-0.000319644
-0.000232088
-0.00016893
-0.000113101
-6.92186e-05
-3.78172e-05
-0.111599
-0.113703
-0.113915
-0.113941
-0.113793
-0.113189
-0.112067
-0.110464
-0.108404
-0.105896
-0.102953
-0.0995942
-0.0958459
-0.0917379
-0.0873052
-0.0825883
-0.0776325
-0.0724879
-0.067209
-0.0618535
-0.0564811
-0.0511528
-0.0459289
-0.0408671
-0.0360215
-0.0314401
-0.0271642
-0.0232261
-0.0196489
-0.0164457
-0.013619
-0.0111616
-0.00905713
-0.00728132
-0.00580412
-0.0045917
-0.00360881
-0.00282057
-0.00219447
-0.00170063
-0.00131381
-0.00101116
-0.000775947
-0.000591132
-0.000447932
-0.000332915
-0.000242266
-0.000168992
-9.83258e-05
-6.11355e-05
-0.10338
-0.105585
-0.106119
-0.106436
-0.106571
-0.106285
-0.105513
-0.104282
-0.102613
-0.100513
-0.0979919
-0.0950662
-0.0917577
-0.0880931
-0.0841037
-0.0798259
-0.0753007
-0.0705741
-0.0656961
-0.0607199
-0.0557014
-0.0506977
-0.0457655
-0.0409603
-0.036334
-0.0319339
-0.0278011
-0.0239689
-0.0204625
-0.0172976
-0.0144804
-0.0120077
-0.00986773
-0.008041
-0.00650211
-0.00522157
-0.00416793
-0.00330946
-0.00261597
-0.00205936
-0.00161518
-0.00126141
-0.000980757
-0.000756984
-0.000578965
-0.000435857
-0.000317582
-0.000225911
-0.000128806
-8.41011e-05
-0.0956934
-0.0979544
-0.0987651
-0.0993385
-0.0997242
-0.0997196
-0.0992633
-0.0983722
-0.0970626
-0.0953402
-0.0932119
-0.0906909
-0.0877957
-0.0845492
-0.0809791
-0.0771178
-0.0730024
-0.0686747
-0.0641803
-0.0595686
-0.0548912
-0.0502015
-0.0455532
-0.040999
-0.036589
-0.0323692
-0.0283806
-0.0246573
-0.0212259
-0.0181045
-0.0153026
-0.0128209
-0.0106516
-0.0087798
-0.00718452
-0.00584047
-0.00471989
-0.0037942
-0.00303559
-0.00241778
-0.00191732
-0.00151302
-0.00118726
-0.000924518
-0.000711704
-0.000540111
-0.000394287
-0.000283425
-0.000160415
-0.000106524
-0.0885594
-0.090843
-0.0918868
-0.0926837
-0.0932873
-0.0935298
-0.0933557
-0.0927713
-0.091789
-0.0904126
-0.0886463
-0.0865003
-0.0839895
-0.0811337
-0.0779566
-0.074487
-0.0707582
-0.0668078
-0.0626776
-0.0584128
-0.0540613
-0.049673
-0.0452984
-0.0409876
-0.0367886
-0.0327465
-0.0289015
-0.0252884
-0.021935
-0.0188616
-0.0160803
-0.0135952
-0.0114027
-0.00949171
-0.00784557
-0.00644295
-0.00525971
-0.00427032
-0.00344939
-0.00277253
-0.00221735
-0.00176359
-0.00139349
-0.00109213
-0.000844873
-0.000644691
-0.000471637
-0.000341002
-0.000192829
-0.0001282
-0.0819948
-0.0842761
-0.0855142
-0.0865035
-0.0872963
-0.087757
-0.087828
-0.0875163
-0.0868286
-0.0857657
-0.0843295
-0.0825272
-0.0803705
-0.0778757
-0.0750633
-0.0719584
-0.0685905
-0.0649936
-0.0612054
-0.0572676
-0.0532244
-0.0491223
-0.0450089
-0.0409314
-0.0369363
-0.033067
-0.0293633
-0.0258602
-0.0225865
-0.0195642
-0.0168079
-0.0143248
-0.0121146
-0.0101704
-0.00847902
-0.00702309
-0.00578186
-0.0047328
-0.0038529
-0.00311968
-0.00251191
-0.00201029
-0.00159708
-0.00125792
-0.000976934
-0.000748406
-0.000548724
-0.000398001
-0.000225634
-0.000148903
-0.0760164
-0.0782778
-0.0796756
-0.080828
-0.0817812
-0.0824262
-0.0827141
-0.0826437
-0.0822181
-0.0814359
-0.0802971
-0.0788059
-0.0769713
-0.0748063
-0.0723282
-0.0695587
-0.0665238
-0.0632539
-0.0597834
-0.0561501
-0.052395
-0.0485614
-0.0446939
-0.0408375
-0.0370365
-0.033333
-0.0297663
-0.0263712
-0.0231773
-0.020208
-0.0174801
-0.0150035
-0.012781
-0.010809
-0.00907817
-0.0075744
-0.00628024
-0.00517603
-0.00424109
-0.00345479
-0.00279716
-0.00224984
-0.00179528
-0.00141961
-0.00110606
-0.000849833
-0.000624455
-0.000453658
-0.000258324
-0.000168386
-0.0706429
-0.0728725
-0.0744
-0.0756891
-0.0767773
-0.0775795
-0.0780529
-0.078192
-0.0779961
-0.0774617
-0.0765867
-0.0753732
-0.0738271
-0.0719589
-0.0697827
-0.0673171
-0.0645849
-0.0616133
-0.0584332
-0.0550793
-0.0515894
-0.0480038
-0.0443645
-0.0407142
-0.037095
-0.0335481
-0.0301117
-0.0268205
-0.0237047
-0.0207889
-0.0180917
-0.0156251
-0.013395
-0.0114006
-0.00963581
-0.00808984
-0.00674815
-0.00559378
-0.00460828
-0.00377282
-0.00306868
-0.00247846
-0.0019849
-0.00157459
-0.00123012
-0.000947304
-0.000697539
-0.000507069
-0.000290291
-0.000186372
-0.0658966
-0.0680875
-0.0697187
-0.0711206
-0.0723208
-0.073254
-0.0738839
-0.074202
-0.0742037
-0.0738839
-0.0732388
-0.0722684
-0.0709762
-0.06937
-0.0674613
-0.0652659
-0.0628037
-0.0600988
-0.0571793
-0.0540768
-0.0508263
-0.0474653
-0.0440335
-0.0405712
-0.037119
-0.0337165
-0.0304013
-0.0272078
-0.0241665
-0.0213029
-0.0186371
-0.0161833
-0.0139493
-0.0119374
-0.0101442
-0.00856173
-0.00717823
-0.00597916
-0.00494816
-0.0040681
-0.0033215
-0.00269184
-0.00216231
-0.00171983
-0.00134664
-0.00103888
-0.000766473
-0.000557183
-0.000320827
-0.000202558
-0.061805
-0.0639546
-0.0656669
-0.0671601
-0.0684511
-0.0694914
-0.0702498
-0.0707177
-0.0708856
-0.0707472
-0.0702975
-0.0695346
-0.0684602
-0.0670795
-0.0654019
-0.0634406
-0.061213
-0.0587406
-0.0560487
-0.0531664
-0.0501263
-0.0469634
-0.043715
-0.0404197
-0.0371164
-0.0338435
-0.0306376
-0.0275331
-0.0245605
-0.021746
-0.019111
-0.0166711
-0.0144364
-0.0124113
-0.0105949
-0.00898173
-0.0075624
-0.00632455
-0.00525371
-0.00433431
-0.00355001
-0.00288516
-0.00232337
-0.0018519
-0.0014528
-0.00112234
-0.000829535
-0.000602789
-0.000349114
-0.000216606
-0.0584034
-0.0605131
-0.0622868
-0.0638517
-0.0652146
-0.0663402
-0.0672037
-0.0677897
-0.0680918
-0.0681013
-0.0678118
-0.0672199
-0.0663254
-0.0651319
-0.0636465
-0.0618806
-0.0598493
-0.0575718
-0.0550713
-0.0523748
-0.0495125
-0.0465174
-0.043425
-0.0402721
-0.0370963
-0.0339348
-0.0308237
-0.0277966
-0.0248845
-0.022114
-0.0195072
-0.0170813
-0.014848
-0.0128134
-0.0109788
-0.00934067
-0.00789177
-0.00662155
-0.00551718
-0.00456442
-0.00374799
-0.00305298
-0.00246346
-0.00196693
-0.00154543
-0.00119518
-0.000884773
-0.000642525
-0.000374209
-0.000228148
-0.0557357
-0.0578111
-0.0596293
-0.0612479
-0.0626644
-0.0638535
-0.0647942
-0.0654726
-0.0658785
-0.0660026
-0.0658373
-0.0653783
-0.0646241
-0.0635769
-0.0622422
-0.0606298
-0.058753
-0.0566294
-0.0542804
-0.051731
-0.0490099
-0.0461485
-0.0431806
-0.0401417
-0.0370683
-0.0339966
-0.0309621
-0.0279982
-0.0251357
-0.0224017
-0.019819
-0.0174057
-0.0151747
-0.0131337
-0.0112856
-0.00962841
-0.00815651
-0.00686087
-0.00572997
-0.00475066
-0.00390853
-0.00318929
-0.00257743
-0.00206063
-0.00162101
-0.00125461
-0.000930012
-0.000674886
-0.000395073
-0.000236744
-0.0538688
-0.055917
-0.0577638
-0.0594181
-0.0608705
-0.0621025
-0.0630962
-0.0638375
-0.0643148
-0.064518