/*--------------------------------*- C++ -*----------------------------------*\
  =========                 |
  \\      /  F ield         | OpenFOAM: The Open Source CFD Toolbox
   \\    /   O peration     | Website:  https://openfoam.org
    \\  /    A nd           | Version:  7
     \\/     M anipulation  |
\*---------------------------------------------------------------------------*/
FoamFile
{
    version     2.0;
    format      ascii;
    class       volScalarField;
    location    "125";
    object      p;
}
// * * * * * * * * * * * * * * * * * * * * * * * * * * * * * * * * * * * * * //

dimensions      [0 2 -2 0 0 0 0];

internalField   nonuniform List<scalar> 
1987
(
-0.00532684
0.00175034
0.00747914
0.0120214
0.0154293
0.0177849
0.0193023
0.0202285
0.0207452
0.0205901
0.0197935
0.0181681
0.015352
0.010864
0.0039931
-0.00617759
-0.0205729
-0.0395552
-0.0622535
-0.0859888
-0.106619
-0.119562
-0.12191
-0.111997
-0.0941397
-0.0721072
-0.0500389
-0.0305433
-0.0144693
-0.00188876
0.00783519
0.0148721
0.0201726
0.0236877
0.0262212
0.026824
0.0256255
0.0210068
0.0127887
-0.000466702
-0.0186142
-0.0406669
-0.0647051
-0.0842383
-0.0970056
-0.0950356
-0.0841745
-0.0633104
-0.0423221
-0.0227194
-0.00509448
0.00483309
0.0158739
0.0167739
0.0176927
0.0105259
-0.00260081
0.00427263
0.00989692
0.0144128
0.0178441
0.0202348
0.0217642
0.0226671
0.023061
0.0229238
0.0221778
0.0205804
0.0178385
0.0134883
0.00682812
-0.00305926
-0.0171187
-0.0357609
-0.0581886
-0.0817869
-0.10242
-0.115373
-0.117158
-0.1083
-0.0908424
-0.0692172
-0.0475303
-0.0283522
-0.0125188
-0.000104719
0.00951382
0.0164873
0.0217396
0.0252132
0.0277163
0.0283297
0.0272013
0.0226699
0.0145299
0.00133375
-0.0168616
-0.0390353
-0.0633387
-0.0831394
-0.0961233
-0.0942817
-0.0833938
-0.062546
-0.0414655
-0.0219475
-0.0043984
0.00540563
0.0163048
0.0171008
0.0177701
0.0106437
0.000143155
0.0067839
0.0122633
0.0167035
0.0201101
0.0224963
0.024003
0.0248474
0.0251851
0.025008
0.0242043
0.0225941
0.0198801
0.0156059
0.00909206
-0.00054743
-0.0142295
-0.0323616
-0.0541917
-0.0771961
-0.0973516
-0.110078
-0.112234
-0.10381
-0.0869277
-0.0659247
-0.0447723
-0.0260106
-0.0104854
0.00170811
0.0111744
0.0180423
0.0232065
0.0265954
0.0290384
0.0296214
0.0285128
0.0240487
0.0160013
0.00291316
-0.015225
-0.0373586
-0.0617212
-0.0815921
-0.0946842
-0.0930017
-0.0821665
-0.06147
-0.0404079
-0.0210663
-0.00366445
0.00597345
0.0166746
0.0173632
0.0177593
0.0107094
0.00289622
0.00928044
0.0145888
0.0189303
0.0223003
0.0246865
0.0261921
0.0270161
0.0273187
0.0270666
0.0262106
0.0245821
0.021889
0.0176894
0.0113285
0.00195794
-0.0112988
-0.0288314
-0.0499295
-0.0721904
-0.0917863
-0.104357
-0.10683
-0.098797
-0.0825882
-0.0622963
-0.0417765
-0.0235203
-0.00837321
0.00354819
0.0128261
0.0195653
0.0246291
0.0279308
0.0303108
0.0308563
0.0297641
0.0253767
0.0174428
0.00451091
-0.0134947
-0.0354848
-0.0597904
-0.0796469
-0.0927997
-0.0912909
-0.0805553
-0.060105
-0.0391626
-0.0200804
-0.00289808
0.00653588
0.0169864
0.0175725
0.0176669
0.0107316
-0.0250199
-0.0453091
-0.0667736
-0.0857814
-0.0981206
-0.100753
-0.0932133
-0.077768
-0.0583077
-0.03854
-0.0208877
-0.00619285
0.00540246
0.0144537
0.0210381
0.025985
0.0291899
0.031492
0.0320069
0.0309449
0.0266649
0.0188874
0.00618095
-0.0116087
-0.0333589
-0.0575106
-0.0772824
-0.0904307
-0.0891009
-0.0785193
-0.0584247
-0.0377185
-0.0189876
-0.00210351
0.00708905
0.0172326
0.0177232
0.0174885
0.0107071
-0.0590993
-0.0584223
-0.0607299
-0.0662363
-0.0746424
-0.0847568
-0.0945448
-0.101627
-0.104034
-0.100978
-0.0932517
-0.0828057
-0.0719339
-0.0624383
-0.0552464
-0.0506399
-0.0487442
-0.0497501
-0.0536862
-0.0600283
-0.0674765
-0.0740952
-0.0778596
-0.0774055
-0.0728311
-0.0653713
-0.056985
-0.0493414
-0.0434415
-0.0398171
-0.0387006
-0.0400616
-0.0432862
-0.0471906
-0.0502369
-0.0510365
-0.0491124
-0.0448891
-0.0396797
-0.0347378
-0.0310461
-0.0293526
-0.0296554
-0.0317645
-0.0344684
-0.0364698
-0.036728
-0.0343644
-0.0302982
-0.0249651
-0.0198891
-0.0160905
-0.0588328
-0.0574936
-0.0590811
-0.0637788
-0.0712996
-0.0805155
-0.0895033
-0.0960224
-0.098222
-0.0953652
-0.0881979
-0.0785547
-0.0685913
-0.059998
-0.0536483
-0.0498314
-0.0487158
-0.0505353
-0.0553368
-0.0625754
-0.0708855
-0.0782223
-0.0824375
-0.0820622
-0.0771938
-0.0691157
-0.0599246
-0.0514111
-0.044645
-0.0401667
-0.0381967
-0.0387046
-0.0411021
-0.0442786
-0.0467775
-0.0473269
-0.045476
-0.041659
-0.0370618
-0.0328868
-0.030014
-0.0292001
-0.0303899
-0.0333526
-0.0368389
-0.0393831
-0.03998
-0.037504
-0.0331613
-0.0271652
-0.0214364
-0.016801
-0.0134166
-0.0117018
-0.0101518
-0.00859376
-0.00518624
-0.00238705
-0.0584125
-0.0564172
-0.0572922
-0.0611904
-0.0678384
-0.0761734
-0.0843833
-0.0903626
-0.0923737
-0.0897258
-0.0831163
-0.0742627
-0.0651863
-0.0574715
-0.0519436
-0.0489026
-0.0485598
-0.0511908
-0.0568607
-0.0650044
-0.0741917
-0.082267
-0.0869554
-0.0866752
-0.0815232
-0.0728224
-0.0628139
-0.0534168
-0.0457769
-0.040446
-0.0376325
-0.0373049
-0.038898
-0.0413709
-0.0433431
-0.0436528
-0.0418711
-0.0384434
-0.0344345
-0.031005
-0.0289368
-0.0289984
-0.0310793
-0.0349086
-0.0391938
-0.0422971
-0.0432397
-0.040648
-0.0360151
-0.0293452
-0.0229543
-0.0174863
-0.0133345
-0.0109848
-0.00886373
-0.00719382
-0.00383362
-0.00166851
-0.0578504
-0.055209
-0.0553835
-0.0584962
-0.0642888
-0.0717644
-0.0792208
-0.0846833
-0.0865226
-0.0840876
-0.0780282
-0.0699448
-0.0617286
-0.0548641
-0.0501339
-0.0478511
-0.0482696
-0.0517054
-0.0582415
-0.0672947
-0.0773708
-0.086203
-0.0913876
-0.0912213
-0.085801
-0.0764788
-0.0656456
-0.0553554
-0.0468375
-0.0406585
-0.0370146
-0.0358714
-0.0366845
-0.0384793
-0.0399454
-0.040025
-0.0383069
-0.0352498
-0.0318032
-0.0290955
-0.0278152
-0.0287455
-0.031719
-0.0364257
-0.041525
-0.0452031
-0.0464989
-0.0437891
-0.0388533
-0.0315005
-0.0244397
-0.0181455
-0.0132324
-0.0102669
-0.0075874
-0.00581814
-0.00250679
-0.000963873
-0.0571587
-0.0538847
-0.0533748
-0.0557208
-0.0606794
-0.0673206
-0.0740495
-0.0790173
-0.0806988
-0.0784764
-0.0729539
-0.0656157
-0.0582282
-0.0521819
-0.0482216
-0.0466757
-0.0478396
-0.0520685
-0.0594638
-0.0694256
-0.080398
-0.0900033
-0.0957075
-0.0956774
-0.0900088
-0.0800717
-0.068412
-0.057224
-0.0478274
-0.0408079
-0.0363491
-0.0344124
-0.0344715
-0.0356146
-0.0365952
-0.0364535
-0.0347921
-0.032085
-0.0291733
-0.0271617
-0.0266501
-0.0284395
-0.0323043
-0.0378969
-0.0438241
-0.048092
-0.0497488
-0.0469196
-0.0416694
-0.0336265
-0.0258897
-0.0187779
-0.0131112
-0.00955026
-0.00632537
-0.00446916
-0.00120809
-0.000274189
-0.0563503
-0.0524603
-0.0512858
-0.0528874
-0.0570373
-0.0628716
-0.0689006
-0.073395
-0.07493
-0.0729161
-0.0679122
-0.0612897
-0.0546951
-0.0494314
-0.0462101
-0.045376
-0.0472651
-0.0522704
-0.0605124
-0.0713769
-0.0832489
-0.0936408
-0.0998883
-0.10002
-0.0941273
-0.0835878
-0.0711058
-0.0590199
-0.0487473
-0.0408976
-0.035642
-0.0329359
-0.0322684
-0.0327864
-0.0333021
-0.0329473
-0.0313346
-0.0289558
-0.0265499
-0.0252069
-0.0254426
-0.0280784
-0.0328307
-0.0393151
-0.0460821
-0.0509541
-0.0529799
-0.0500315
-0.0444568
-0.0357183
-0.0273012
-0.0193827
-0.0129719
-0.00883694
-0.00508009
-0.0031492
6.02167e-05
0.00039956
-0.0554379
-0.0509515
-0.049135
-0.0500181
-0.0533876
-0.0584448
-0.0638023
-0.0678443
-0.0692411
-0.067428
-0.0629209
-0.0569802
-0.0511397
-0.0466199
-0.0441033
-0.0439524
-0.0465422
-0.0523024
-0.0613734
-0.0731292
-0.0858992
-0.0970883
-0.103903
-0.104235
-0.0981365
-0.0870132
-0.0737192
-0.0607401
-0.0495981
-0.0409313
-0.034899
-0.0314492
-0.0300834
-0.0300038
-0.030075
-0.0295144
-0.0279416
-0.0258682
-0.0239381
-0.0232345
-0.0241936
-0.0276606
-0.0332936
-0.040673
-0.0482901
-0.0537795
-0.0561824
-0.0531163
-0.0472087
-0.0377712
-0.0286713
-0.0199591
-0.0128152
-0.00812883
-0.00385388
-0.00186045
0.001296
0.00105645
-0.0544345
-0.0493733
-0.0469403
-0.0471335
-0.0497534
-0.0540651
-0.0587797
-0.0623901
-0.0636541
-0.0620317
-0.0579962
-0.0527005
-0.047572
-0.043755
-0.0419063
-0.0424067
-0.0456685
-0.0521572
-0.0620337
-0.0746641
-0.0883257
-0.100319
-0.107726
-0.108478
-0.102016
-0.090334
-0.0762447
-0.0623821
-0.0503806
-0.0409124
-0.0341256
-0.0299591
-0.0279243
-0.0272746
-0.0269213
-0.0261621
-0.0246196
-0.0228282
-0.0213427
-0.0212478
-0.0229046
-0.0271845
-0.0336885
-0.0419633
-0.0504385
-0.0565578
-0.0593461
-0.0561652
-0.0499181
-0.0397802
-0.0299969
-0.020506
-0.0126419
-0.00742771
-0.00264899
-0.000604961
0.00249722
0.00169563
-0.0533528
-0.0477405
-0.0447182
-0.0442525
-0.0461557
-0.0497545
-0.0538553
-0.057054
-0.0581892
-0.0567448
-0.0531532
-0.048463
-0.0440025
-0.040845
-0.039625
-0.0407416
-0.0446428
-0.0518286
-0.062482
-0.0759643
-0.0905062
-0.103307
-0.111323
-0.112359
-0.105741
-0.0935358
-0.0786745
-0.0639434
-0.051096
-0.0408444
-0.0333268
-0.028472
-0.0257979
-0.0246058
-0.023848
-0.0228966
-0.0213746
-0.0198412
-0.0187687
-0.0192502
-0.0215768
-0.0266486
-0.0340111
-0.0431786
-0.0525177
-0.0592781
-0.0624604
-0.0591694
-0.0525779
-0.0417404
-0.031275
-0.0210225
-0.0124526
-0.00673523
-0.00146753
0.000615336
0.00366196
0.00231629
-0.0522051
-0.0460669
-0.0424843
-0.0413923
-0.0426131
-0.0455327
-0.0490486
-0.0518544
-0.0528641
-0.051583
-0.0484055
-0.0442795
-0.0404414
-0.0378985
-0.037266
-0.0389609
-0.0434652
-0.0513122
-0.0627085
-0.0770146
-0.09242
-0.106028
-0.114665
-0.115994
-0.109289
-0.0966044
-0.0810008
-0.0654213
-0.0517451
-0.0407305
-0.0325075
-0.0269937
-0.0237105
-0.0220035
-0.0208608
-0.0197234
-0.0182117
-0.0169122
-0.0162207
-0.0172453
-0.0202118
-0.0260518
-0.0342573
-0.0443118
-0.0545182
-0.0619293
-0.0655145
-0.0621196
-0.055181
-0.043647
-0.0325028
-0.0215077
-0.0122482
-0.00605294
-0.000311533
0.00179866
0.0047884
0.00291769
-0.0510033
-0.0443657
-0.0402527
-0.0385682
-0.0391422
-0.0414165
-0.0443765
-0.0468069
-0.0476939
-0.0465604
-0.0437655
-0.0401609
-0.0368987
-0.0349246
-0.0348367
-0.0370696
-0.0421372
-0.0506051
-0.0627051
-0.0778014
-0.0940482
-0.108459
-0.117731
-0.119388
-0.112642
-0.0995258
-0.083216
-0.0668133
-0.052329
-0.040574
-0.0316721
-0.0255292
-0.0216674
-0.0194729
-0.0179646
-0.0166472
-0.0151357
-0.014046
-0.0137032
-0.0152364
-0.0188114
-0.025393
-0.0344231
-0.0453556
-0.05643
-0.0644999
-0.0684975
-0.0650063
-0.0577199
-0.045495
-0.0336771
-0.0219605
-0.0120291
-0.00538223
0.000817101
0.00294338
0.00587485
0.00349918
-0.049759
-0.0426491
-0.0380364
-0.0357937
-0.0357571
-0.0374204
-0.0398528
-0.0419246
-0.0426913
-0.0416891
-0.0392441
-0.0361177
-0.0333845
-0.0319327
-0.0323454
-0.0350738
-0.0406619
-0.0497065
-0.0624661
-0.0783133
-0.0953742
-0.110579
-0.120498
-0.122517
-0.115781
-0.102286
-0.0853121
-0.0681168
-0.0528487
-0.0403778
-0.0308248
-0.0240832
-0.0196732
-0.0170185
-0.0151634
-0.0136719
-0.0121506
-0.0112469
-0.0112205
-0.0132272
-0.0173774
-0.0246717
-0.0345048
-0.0463032
-0.0582435
-0.0669785
-0.0713978
-0.0678195
-0.0601873
-0.0472795
-0.0347953
-0.0223798
-0.011796
-0.00472439
0.00191656
0.004048
0.00691971
0.00406013
-0.0484829
-0.0409285
-0.0358468
-0.0330807
-0.0324697
-0.0335563
-0.0354889
-0.0372184
-0.0378661
-0.0369794
-0.0348507
-0.0321593
-0.0299085
-0.0289324
-0.0298007
-0.0329805
-0.0390436
-0.048617
-0.0619876
-0.0785413
-0.0963837
-0.112369
-0.122947
-0.125358
-0.118686
-0.104872
-0.0872817
-0.0693295
-0.0533051
-0.0401448
-0.0299694
-0.0226598
-0.017732
-0.0146438
-0.0124605
-0.0108005
-0.00926003
-0.008519
-0.00877698
-0.0112212
-0.015912
-0.0238873
-0.0344993
-0.0471478
-0.0599489
-0.0693535
-0.0742033
-0.0705492
-0.0625756
-0.0489957
-0.0358544
-0.0227647
-0.0115494
-0.00408053
0.00298516
0.00511119
0.00792152
0.0046
-0.0471849
-0.0392143
-0.0336943
-0.0304392
-0.02929
-0.0298336
-0.0312935
-0.0326969
-0.0332256
-0.0324406
-0.0305933
-0.0282944
-0.0264801
-0.0259334
-0.027212
-0.0307978
-0.0372884
-0.0473395
-0.0612684
-0.0784793
-0.0970653
-0.113813
-0.125059
-0.127894
-0.121341
-0.107271
-0.0891171
-0.0704486
-0.0536991
-0.0398778
-0.0291092
-0.0212626
-0.0158471
-0.0123517
-0.00985856
-0.00803551
-0.00646679
-0.00586589
-0.00637663
-0.00922197
-0.0144174
-0.02304
-0.0344035
-0.0478831
-0.0615369
-0.0716133
-0.0769019
-0.0731851
-0.0648773
-0.0506386
-0.0368519
-0.0231142
-0.0112898
-0.00345167
0.00402132
0.00613178
0.00887893
0.00511832
-0.0458746
-0.0375159
-0.031588
-0.0278778
-0.0262259
-0.0262599
-0.0272733
-0.028366
-0.028775
-0.0280815
-0.0264784
-0.0245307
-0.0231082
-0.0229453
-0.0245892
-0.0285348
-0.0354035
-0.0458786
-0.0603092
-0.0781234
-0.0974102
-0.114899
-0.126816
-0.130107
-0.123732
-0.10947
-0.0908109
-0.0714717
-0.0540316
-0.0395793
-0.0282475
-0.0198946
-0.014021
-0.0101444
-0.00735942
-0.00537887
-0.00377337
-0.00329091
-0.00402337
-0.00723311
-0.0128963
-0.0221299
-0.0342151
-0.0485032
-0.0629983
-0.0737466
-0.0794817
-0.075717
-0.0670848
-0.0522037
-0.037785
-0.0234271
-0.0110177
-0.00283865
0.00502358
0.00710877
0.00979071
0.00561467
-0.0445602
-0.0358418
-0.0295357
-0.0254035
-0.0232836
-0.0228405
-0.0234331
-0.02423
-0.0245179
-0.0239073
-0.0225102
-0.0208752
-0.0198014
-0.0199779
-0.0219422
-0.0262013
-0.0333976
-0.0442409
-0.0591135
-0.077473
-0.0974131
-0.115616
-0.128207
-0.131992
-0.125846
-0.111459
-0.0923559
-0.0723961
-0.0543033
-0.0392516
-0.027387
-0.0185583
-0.012256
-0.0080234
-0.0049642
-0.00283209
-0.00118183
-0.00079704
-0.00172095
-0.00525825
-0.0113514
-0.0211578
-0.0339319
-0.0490027
-0.0643243
-0.075742
-0.0819309
-0.0781344
-0.0691904
-0.0536862
-0.0386515
-0.0237027
-0.0107336
-0.0022422
0.00599058
0.00804131
0.0106557
0.00608869
-0.0432496
-0.0341996
-0.027544
-0.0230218
-0.0204677
-0.0195791
-0.0197756
-0.0202911
-0.0204576
-0.0199391
-0.0186893
-0.0173338
-0.0165677
-0.0170406
-0.0192815
-0.0238078
-0.0312805
-0.0424346
-0.0576871
-0.07653
-0.0970713
-0.115957
-0.129219
-0.133537
-0.127672
-0.113226
-0.0937453
-0.0732192
-0.0545147
-0.0388969
-0.0265301
-0.0172561
-0.0105534
-0.00598962
-0.00267344
-0.000396281
0.00130619
0.00161307
0.000527096
-0.003301
-0.00978562
-0.0201247
-0.0335526
-0.0493767
-0.0655068
-0.077589
-0.0842377
-0.0804272
-0.0711868
-0.0550816
-0.0394489
-0.0239399
-0.0104378
-0.00166289
0.00692109
0.00892874
0.011473
0.0065401
-0.0419494
-0.0325956
-0.0256188
-0.0207373
-0.0177812
-0.0164776
-0.016302
-0.0165495
-0.0165949
-0.0161555
-0.015016
-0.0139121
-0.0134145
-0.0141424
-0.0166174
-0.0213652
-0.0290632
-0.0404698
-0.0560379
-0.0752994
-0.0963858
-0.115919
-0.129846
-0.134728
-0.129198
-0.114762
-0.0949725
-0.0739385
-0.0546664
-0.0385172
-0.0256792
-0.0159895
-0.00891445
-0.00404342
-0.000487173
0.00192825
0.0036895
0.00393712
0.00271742
-0.00136498
-0.00820211
-0.0190322
-0.0330761
-0.0496211
-0.0665381
-0.0792771
-0.0863907
-0.0825851
-0.0730665
-0.0563854
-0.0401751
-0.024138
-0.0101309
-0.00110118
0.00781402
0.00977055
0.0122416
0.00696869
-0.0406656
-0.0310356
-0.0237646
-0.018553
-0.0152257
-0.0135363
-0.0130118
-0.0130042
-0.0129239
-0.0124719
-0.0114971
-0.0106151
-0.0103482
-0.0112921
-0.0139602
-0.018885
-0.0267575
-0.038358
-0.0541762
-0.073789
-0.0953605
-0.115501
-0.130085
-0.135557
-0.130414
-0.116057
-0.0960314
-0.0745515
-0.0547587
-0.0381143
-0.0248362
-0.01476
-0.00733957
-0.00218464
0.00159502
0.00414187
0.0059673
0.00617314
0.00484689
0.000546269
-0.00660425
-0.017882
-0.0325023
-0.0497324
-0.0674114
-0.0807968
-0.0883788
-0.0845983
-0.0748222
-0.0575935
-0.0408282
-0.0242962
-0.00981307
-0.000557363
0.00866837
0.0105664
0.0129607
0.0073743
-0.0394032
-0.029524
-0.021985
-0.0164711
-0.0128018
-0.0107542
-0.00990316
-0.00965258
-0.00944337
-0.00897565
-0.00813939
-0.00744638
-0.0073748
-0.0084979
-0.0113202
-0.0163788
-0.024376
-0.0361122
-0.0521144
-0.0720091
-0.0940027
-0.114707
-0.129934
-0.136015
-0.13131
-0.117105
-0.0969163
-0.0750555
-0.0547918
-0.0376897
-0.0240026
-0.0135685
-0.00582889
-0.000412618
0.00357403
0.00624525
0.00813947
0.00831954
0.0069126
0.00242921
-0.00499555
-0.0166765
-0.0318313
-0.049708
-0.0681207
-0.0821394
-0.0901916
-0.086457
-0.0764469
-0.0587018
-0.0414064
-0.0244139
-0.00948485
-3.16353e-05
0.00948327
0.0113162
0.0136299
0.00775687
-0.0280644
-0.0202827
-0.0144931
-0.010509
-0.00812928
-0.00697304
-0.00649176
-0.00615428
-0.00566898
-0.00494219
-0.00440839
-0.00449926
-0.00576738
-0.00870726
-0.0138584
-0.021932
-0.0337464
-0.0498665
-0.0699728
-0.0923227
-0.113543
-0.129395
-0.136101
-0.131885
-0.117899
-0.0976222
-0.0754482
-0.0547659
-0.037245
-0.0231801
-0.0124159
-0.00438216
0.00127372
0.00545122
0.00823921
0.0102026
0.0103752
0.00891192
0.00428038
-0.00337971
-0.0154184
-0.031064
-0.0495458
-0.0686608
-0.0832968
-0.0918194
-0.0881521
-0.0779339
-0.0597064
-0.0419082
-0.0244906
-0.00914662
0.00047594
0.010258
0.0120199
0.0142485
0.00811639
-0.0266603
-0.0186602
-0.0126198
-0.00834647
-0.00565877
-0.00421756
-0.00351799
-0.00305481
-0.00254444
-0.00190473
-0.00150281
-0.00172589
-0.00310753
-0.00613069
-0.0113353
-0.0194391
-0.0312759
-0.0474483
-0.0676951
-0.0903338
-0.112019
-0.128474
-0.135816
-0.132136
-0.118434
-0.0981449
-0.0757277
-0.0546812
-0.0367815
-0.02237
-0.0113027
-0.00299895
0.00287571
0.00722836
0.0101248
0.0120828
0.0123394
0.0108424
0.00609642
-0.00176054
-0.0141108
-0.030202
-0.049245
-0.0690276
-0.0842622
-0.0932536
-0.0896753
-0.0792767
-0.0606036
-0.0423324
-0.024526
-0.00879881
0.000965377
0.0109919
0.0126777
0.0148161
0.00845292
-0.0253154
-0.0171201
-0.0108523
-0.00631321
-0.00333952
-0.0016322
-0.000726869
-0.000141954
0.000400342
0.000973488
0.00126942
0.000941801
-0.000524633
-0.00359943
-0.00882111
-0.016911
-0.0287164
-0.044877
-0.0651936
-0.088052
-0.110147
-0.127179
-0.135165
-0.132061
-0.118706
-0.0984804
-0.075892
-0.0545381
-0.0363007
-0.0215739
-0.0102296
-0.00167864
0.00439493
0.00890744
0.0119055
0.0139427
0.0142129
0.012702
0.00787405
-0.000142004
-0.012757
-0.0292474
-0.0488054
-0.069218
-0.0850296
-0.0944863
-0.0910187
-0.0804693
-0.0613902
-0.0426777
-0.0245198
-0.00844188
0.00143679
0.0116845
0.0132899
0.0153325
0.00876659
-0.0240296
-0.0156615
-0.00918891
-0.00440607
-0.00116637
0.00078964
0.00188785
0.00258908
0.00316817
0.00369203
0.0039077
0.00350088
0.00197572
-0.00112177
-0.00632669
-0.0143614
-0.0260841
-0.0421708
-0.0624871
-0.0854955
-0.107944
-0.125521
-0.134151
-0.131662
-0.118713
-0.0986254
-0.0759385
-0.0543353
-0.0358026
-0.0207916
-0.00919584
-0.000419546
0.00583389
0.0104912
0.0135834
0.0157009
0.0159947
0.0144885
0.0096101
0.00147188
-0.011361
-0.0282031
-0.0482277
-0.0692299
-0.0855944
-0.0955107
-0.092175
-0.081506
-0.0620629
-0.0429434
-0.0244717
-0.00807614
0.00189054
0.0123355
0.0138571
0.0157976
0.00905763
-0.0227929
-0.0142755
-0.00762108
-0.00261646
0.000870421
0.0030592
0.00433743
0.00514743
0.00576326
0.00625063
0.00641263
0.00594923
0.00438862
0.00129463
-0.00386266
-0.0118041
-0.0233957
-0.0393489
-0.0595964
-0.0826848
-0.105427
-0.123515
-0.132784
-0.130944
-0.118452
-0.0985765
-0.0758629
-0.0540684
-0.0352831
-0.0200198
-0.00819808
0.000782213
0.00719713
0.0119842
0.0151616
0.0173559
0.0176846
0.0162005
0.0113015
0.00307697
-0.00992694
-0.0270724
-0.0475137
-0.0690625
-0.0859536
-0.0963208
-0.0931379
-0.0823819
-0.0626186
-0.0431281
-0.0243812
-0.00770158
0.00232745
0.0129449
0.0143801
0.0162113
0.0093263
-0.0215971
-0.0129547
-0.00614222
-0.000938121
0.00277777
0.00518549
0.00663294
0.00754503
0.00819688
0.00865094
0.00878725
0.00828681
0.0067109
0.00364337
-0.00143873
-0.00925202
-0.0206677
-0.0364308
-0.0565433
-0.0796423
-0.102617
-0.121177
-0.131078
-0.129922
-0.117928
-0.0983343
-0.0756639
-0.053736
-0.0347415
-0.0192578
-0.00723517
0.00192881
0.00848815
0.0133909
0.0166448
0.018911
0.0192838
0.0178371
0.0129456
0.00466922
-0.00845922
-0.0258594
-0.0466661
-0.0687162
-0.0861054
-0.0969129
-0.0939034
-0.0830931
-0.0630552
-0.0432317
-0.0242484
-0.00731866
0.00274798
0.0135127
0.0148599
0.016574
0.00957299
-0.0204942
-0.011742
-0.00478731
0.000600198
0.00453172
0.00714856
0.00875816
0.00977063
0.0104676
0.010897
0.0110329
0.0105128
0.00894032
0.00591987
0.000937264
-0.006717
-0.0179161
-0.0334363
-0.0533502
-0.0763919
-0.099537
-0.118526
-0.129047
-0.128621
-0.117146
-0.0979065
-0.0753576
-0.0533617
-0.0342036
-0.0185287
-0.00632559
0.00300634
0.00969668
0.014704
0.0180283
0.0203672
0.0207912
0.019397
0.0145403
0.00624497
-0.00696232
-0.0245685
-0.0456882
-0.0681923
-0.0860487
-0.097283
-0.0944666
-0.0836366
-0.0633731
-0.043258
-0.0240782
-0.00693087
0.00314947
0.0140375
0.0152965
0.0168857
0.00979811
-0.0196003
-0.0107331
-0.00363476
0.00193562
0.00608179
0.00890388
0.0106659
0.0117695
0.0125167
0.01291
0.0131225
0.0126019
0.0110585
0.00811025
0.00325329
-0.00421114
-0.0151547
-0.0303827
-0.0500376
-0.0729544
-0.0962033
-0.115564
-0.126659
-0.127037
-0.116078
-0.097293
-0.0749728
-0.0529911
-0.033719
-0.0178774
-0.00550626
0.00398575
0.0107982
0.0159002
0.0192877
0.0217058
0.0221901
0.0208682
0.0160777
0.00779879
-0.0054406
-0.0232033
-0.044582
-0.0674889
-0.0857756
-0.0974168
-0.0948134
-0.0840062
-0.0635741
-0.0432146
-0.0238793
-0.00654434
0.00352642
0.014516
0.0156882
0.0171453
0.0100019
-0.0187615
-0.0097935
-0.00256647
0.00317577
0.00753317
0.0105576
0.0124539
0.0136096
0.0143599
0.0148227
0.0150195
0.0145136
0.0130243
0.010174
0.00547039
-0.00177051
-0.0124144
-0.0272941
-0.0466232
-0.0693385
-0.092605
-0.112253
-0.123854
-0.124905
-0.114648
-0.0964475
-0.0744529
-0.0525542
-0.0332147
-0.0172374
-0.0047193
0.00491758
0.0118376
0.0170159
0.0204441
0.0229176
0.0234705
0.0222337
0.0175398
0.00931528
-0.00390462
-0.0217696
-0.0433482
-0.0666001
-0.0852757
-0.0973017
-0.0949293
-0.084193
-0.0636479
-0.0430902
-0.0236395
-0.00615079
0.00388845
0.0149525
0.0160386
0.0173528
0.0101848
-0.0170842
-0.00815909
-0.000930771
0.00487623
0.00937516
0.0125836
0.0146284
0.0158383
0.016541
0.0168965
0.0170285
0.0164805
0.0149934
0.0122022
0.00762563
0.000590249
-0.00976076
-0.0242768
-0.0432378
-0.065697
-0.0889482
-0.108907
-0.121084
-0.122321
-0.113031
-0.0953223
-0.0735244
-0.0516512
-0.0322634
-0.0162174
-0.00362946
0.00608583
0.0130737
0.0183
0.021742
0.0242113
0.024796
0.0236066
0.0189841
0.0108068
-0.002375
-0.02031
-0.0420478
-0.065612
-0.084666
-0.0970619
-0.0949094
-0.0842167
-0.0635587
-0.0428173
-0.0232837
-0.00569882
0.00429152
0.0153775
0.0163753
0.0175206
0.0103507
)
;

boundaryField
{
    inlet
    {
        type            zeroGradient;
    }
    outlet
    {
        type            fixedValue;
        value           uniform 0;
    }
    cylinder
    {
        type            zeroGradient;
    }
    top
    {
        type            symmetryPlane;
    }
    bottom
    {
        type            symmetryPlane;
    }
    defaultFaces
    {
        type            empty;
    }
    procBoundary7to3
    {
        type            processor;
        value           nonuniform List<scalar> 
57
(
0.00563145
0.0117373
0.0168517
0.0210721
0.0243873
0.0267645
0.0282713
0.0290769
0.0293254
0.0290308
0.0281497
0.0265223
0.0238747
0.0197849
0.0136255
0.00458675
-0.00816899
-0.00816899
-0.0210006
-0.0403938
-0.0609727
-0.0792808
-0.0912718
-0.0940315
-0.0870547
-0.0724779
-0.053976
-0.0350778
-0.018125
-0.00395477
0.00726133
0.0160476
0.0224507
0.0272619
0.0303555
0.0325665
0.0330489
0.0320209
0.0278749
0.0202989
0.00789224
-0.00958825
-0.0309897
-0.054871
-0.0744623
-0.0875298
-0.0863914
-0.0760311
-0.0564139
-0.0360712
-0.0177888
-0.00128561
0.00762878
0.0174079
0.0178112
0.0172217
0.0106325
)
;
    }
    procBoundary7to6
    {
        type            processor;
        value           nonuniform List<scalar> 
36
(
-0.0140384
-0.0140384
-0.0109915
-0.00790472
-0.00478543
-0.0625487
-0.0629404
-0.063174
-0.0632576
-0.0632003
-0.0630115
-0.0627015
-0.0622803
-0.0617586
-0.0611466
-0.0604546
-0.0596926
-0.05887
-0.057996
-0.0570791
-0.0561273
-0.0551476
-0.0541469
-0.053131
-0.0521049
-0.0381662
-0.0381662
-0.0369589
-0.0357858
-0.0346476
-0.033533
-0.032433
-0.0314089
-0.0306
-0.0298319
-0.0280663
)
;
    }
    procBoundary7to11
    {
        type            processor;
        value           nonuniform List<scalar> 
59
(
-0.0592011
-0.059188
-0.0622184
-0.0685372
-0.0778358
-0.088862
-0.09947
-0.107139
-0.109775
-0.106535
-0.098255
-0.0869999
-0.0752041
-0.0647874
-0.056737
-0.051331
-0.048652
-0.0488468
-0.051925
-0.0573838
-0.0639886
-0.0699112
-0.0732467
-0.0727267
-0.0684521
-0.0616012
-0.0540023
-0.0472111
-0.0421661
-0.0393938
-0.039138
-0.0413668
-0.0454389
-0.0500945
-0.0537083
-0.0547697
-0.0527701
-0.0481258
-0.0422825
-0.0365546
-0.0320323
-0.0294579
-0.0288803
-0.0301507
-0.0320901
-0.0335654
-0.0334917
-0.0312362
-0.0274319
-0.0227496
-0.0183151
-0.0153554
-0.013478
-0.013478
-0.0124158
-0.011449
-0.0100154
-0.00656218
-0.00311839
)
;
    }
}


// ************************************************************************* //
