/*--------------------------------*- C++ -*----------------------------------*\
  =========                 |
  \\      /  F ield         | OpenFOAM: The Open Source CFD Toolbox
   \\    /   O peration     | Website:  https://openfoam.org
    \\  /    A nd           | Version:  7
     \\/     M anipulation  |
\*---------------------------------------------------------------------------*/
FoamFile
{
    version     2.0;
    format      ascii;
    class       volScalarField;
    location    "150";
    object      p;
}
// * * * * * * * * * * * * * * * * * * * * * * * * * * * * * * * * * * * * * //

dimensions      [0 2 -2 0 0 0 0];

internalField   nonuniform List<scalar> 
1989
(
-0.152966
-0.152212
-0.16437
-0.151167
-0.162864
-0.149847
-0.161113
-0.148269
-0.159125
-0.146445
-0.170594
-0.156912
-0.144385
-0.167981
-0.15448
-0.1421
-0.16516
-0.151836
-0.139596
-0.162136
-0.148984
-0.13688
-0.172581
-0.158911
-0.145929
-0.133957
-0.169009
-0.155487
-0.142674
-0.130832
-0.16524
-0.151865
-0.139221
-0.127508
-0.161272
-0.148046
-0.135571
-0.123988
-0.157105
-0.144029
-0.131726
-0.120276
-0.152735
-0.139815
-0.127688
-0.116373
-0.148163
-0.135404
-0.123456
-0.112281
-0.143385
-0.130795
-0.119031
-0.108003
-0.1384
-0.125988
-0.114414
-0.103541
-0.146284
-0.133207
-0.120983
-0.109605
-0.0988969
-0.140696
-0.127804
-0.115779
-0.104605
-0.0940719
-0.134885
-0.12219
-0.110376
-0.0994149
-0.0890691
-0.128848
-0.116366
-0.104776
-0.0940365
-0.0838941
-0.122586
-0.11033
-0.0989772
-0.0884743
-0.0785559
-0.116096
-0.104081
-0.0929809
-0.0827313
-0.0730604
-0.0976206
-0.0867872
-0.0768039
-0.0673888
-0.0909497
-0.0803994
-0.0706836
-0.0614859
-0.0840719
-0.0738233
-0.0643727
-0.121036
-0.113444
-0.10406
-0.0955796
-0.0885297
-0.0827187
-0.0781339
-0.0749459
-0.0733085
-0.0732753
-0.0747908
-0.0776973
-0.0817428
-0.117038
-0.11062
-0.102197
-0.0945022
-0.0881456
-0.0829064
-0.0787028
-0.075664
-0.0739321
-0.0735599
-0.0745015
-0.0766238
-0.0797166
-0.112759
-0.10741
-0.099931
-0.0929803
-0.0872523
-0.0825343
-0.0786895
-0.0758046
-0.0740086
-0.0733557
-0.0738091
-0.0752557
-0.077518
-0.108205
-0.103847
-0.0972724
-0.0910301
-0.0858807
-0.0816405
-0.0781353
-0.0754114
-0.0735821
-0.072703
-0.0727466
-0.0736181
-0.07517
-0.103461
-0.0999844
-0.0942549
-0.0886838
-0.0840708
-0.0802696
-0.0770848
-0.0745268
-0.0726921
-0.0716369
-0.0713438
-0.071735
-0.0726881
-0.098565
-0.0958627
-0.0909152
-0.0859755
-0.081861
-0.0784639
-0.0755806
-0.073192
-0.0713773
-0.0701927
-0.06963
-0.0696266
-0.070081
-0.093546
-0.0915244
-0.087293
-0.0829425
-0.0792908
-0.0762669
-0.0736672
-0.07145
-0.0696781
-0.068406
-0.0676338
-0.0673122
-0.0673576
-0.0884444
-0.0870122
-0.0834305
-0.0796257
-0.0764028
-0.0737235
-0.0713906
-0.0693453
-0.0676355
-0.0663129
-0.0653843
-0.064812
-0.0645287
-0.0832966
-0.0823671
-0.0793702
-0.0760677
-0.0732407
-0.0708794
-0.0687969
-0.0669225
-0.0652906
-0.0639496
-0.0629117
-0.0621484
-0.0616061
-0.0781345
-0.0776293
-0.0751546
-0.0723111
-0.0698482
-0.0677798
-0.0659318
-0.0642257
-0.0626841
-0.0613515
-0.0602437
-0.0593423
-0.0586023
-0.0729889
-0.0728372
-0.0708244
-0.0683976
-0.0662678
-0.0644683
-0.0628393
-0.0612977
-0.059856
-0.0585545
-0.0574113
-0.056415
-0.0555306
-0.0678871
-0.0680255
-0.0664179
-0.0643667
-0.0625402
-0.060987
-0.0595617
-0.0581792
-0.0568442
-0.055592
-0.0544417
-0.0533882
-0.0524049
-0.0628523
-0.0632255
-0.0619707
-0.0602558
-0.0587044
-0.0573759
-0.0561391
-0.0549092
-0.0536842
-0.0524948
-0.0513625
-0.0502836
-0.0492394
-0.0579056
-0.0584652
-0.0575155
-0.0561002
-0.0547968
-0.0536724
-0.0526096
-0.0515254
-0.0504124
-0.049297
-0.0481998
-0.0471217
-0.0460488
-0.053066
-0.05377
-0.0530823
-0.0519324
-0.0508518
-0.0499121
-0.049009
-0.0480626
-0.0470612
-0.0460268
-0.0449797
-0.0439234
-0.0428483
-0.0483506
-0.0491625
-0.0486984
-0.0477827
-0.0469011
-0.0461279
-0.0453706
-0.0445534
-0.0436615
-0.042713
-0.0417271
-0.0407094
-0.0396532
-0.0437745
-0.0446633
-0.0443884
-0.0436782
-0.0429739
-0.0423499
-0.0417252
-0.0410283
-0.0402424
-0.0393824
-0.0384657
-0.0374991
-0.0364787
-0.0393509
-0.0402902
-0.0401743
-0.0396436
-0.0390964
-0.0386056
-0.0381007
-0.0375154
-0.0368311
-0.0360598
-0.0352176
-0.0343116
-0.0333398
-0.0350911
-0.0360589
-0.0360753
-0.0357007
-0.0352921
-0.0349198
-0.0345227
-0.0340399
-0.0334521
-0.0327684
-0.0320034
-0.0311644
-0.0302507
-0.0310047
-0.031983
-0.0321084
-0.0318688
-0.031582
-0.0313146
-0.031014
-0.0306248
-0.0301276
-0.0295292
-0.0288423
-0.0280743
-0.0272253
-0.0270995
-0.0280738
-0.0282881
-0.0281647
-0.0279844
-0.0278094
-0.0275949
-0.0272907
-0.0268779
-0.0263613
-0.025752
-0.0250567
-0.0242765
-0.0233822
-0.024341
-0.0246269
-0.024603
-0.0245154
-0.0244215
-0.0242831
-0.0240558
-0.0237211
-0.0232821
-0.0227483
-0.0221261
-0.0214167
-0.019858
-0.0207927
-0.0211354
-0.0211962
-0.0211889
-0.0211658
-0.0210948
-0.0209363
-0.0206732
-0.0203071
-0.019846
-0.0192956
-0.0186573
-0.0165313
-0.0174355
-0.0178226
-0.0179551
-0.0180172
-0.0180555
-0.0180434
-0.0179464
-0.0177486
-0.0174503
-0.0170582
-0.0165773
-0.016009
-0.0134058
-0.014275
-0.0146962
-0.0148891
-0.0150108
-0.0151023
-0.0151415
-0.0150978
-0.0149595
-0.0147242
-0.0143972
-0.0139827
-0.0134821
-0.0104845
-0.0113161
-0.0117626
-0.0120062
-0.012179
-0.0123166
-0.0124008
-0.0124054
-0.0123194
-0.012141
-0.0118742
-0.0115221
-0.0110861
-0.00777024
-0.00856296
-0.00902787
-0.00931363
-0.00952982
-0.00970694
-0.00983032
-0.00987848
-0.00983872
-0.00971148
-0.0094995
-0.00920534
-0.00883004
-0.00526579
-0.00601956
-0.00649709
-0.00681764
-0.00707047
-0.00728109
-0.00743778
-0.00752258
-0.00752495
-0.00744414
-0.00728232
-0.00704155
-0.00672264
-0.00297421
-0.00368996
-0.00417557
-0.0045246
-0.00480818
-0.00504708
-0.00523209
-0.00534855
-0.00538778
-0.00534837
-0.00523181
-0.00503965
-0.00477247
-0.000899037
-0.00157857
-0.00206876
-0.00244091
-0.00275011
-0.0030128
-0.00322178
-0.00336533
-0.00343638
-0.00343344
-0.00335725
-0.00320876
-0.00298837
0.000955105
0.000309285
-0.000182847
-0.000573535
-0.000903859
-0.00118627
-0.00141535
-0.00158201
-0.00168047
-0.00170913
-0.00166824
-0.00155832
-0.00137957
0.00258265
0.00196735
0.00147511
0.00106976
0.000722211
0.000423562
0.000177823
-8.11642e-06
-0.000129673
-0.000185321
-0.000174867
-9.84357e-05
4.39887e-05
0.00397585
0.00338739
0.00289625
0.00247949
0.00211814
0.00180641
0.0015472
0.00134552
0.00120484
0.00112668
0.00111155
0.00115966
0.0012712
0.00512507
0.0045592
0.00406976
0.00364437
0.00327227
0.0029502
0.00268025
0.00246593
0.00231009
0.00221385
0.00217798
0.00220299
0.00228924
0.00601833
0.00547001
0.00498231
0.0045507
0.00417065
0.00384101
0.00356326
0.00333964
0.00317192
0.00306166
0.00300981
0.00301702
0.00308372
0.00663601
0.00610058
0.00561429
0.0051784
0.00479284
0.00445786
0.00417461
0.00394465
0.0037697
0.00365028
0.00358756
0.00358255
0.00363584
0.00696524
0.00643458
0.00594835
0.00551
0.00512141
0.00478358
0.00449738
0.00426385
0.00408418
0.00395952
0.00389101
0.00387955
0.00392572
-0.0816201
-0.0762975
-0.0711209
-0.0660991
-0.0612515
-0.0565738
-0.0520613
-0.04771
-0.0435163
-0.0394812
-0.0356025
-0.0318744
-0.028295
-0.0248612
-0.0215697
-0.0184181
-0.0154013
-0.0125173
-0.00976197
-0.00713705
-0.00463653
-0.00225795
7.86162e-07
0.00214188
0.00416727
0.00607854
0.00787699
0.00956347
0.0111383
0.0126027
0.0139562
0.0151955
0.0163194
0.0173266
0.0182129
0.0189732
0.019603
0.0200889
0.0204336
0.0206
-0.0863622
-0.0807838
-0.0753464
-0.0700833
-0.0650094
-0.0601172
-0.0554007
-0.0508559
-0.0464799
-0.0422716
-0.0382288
-0.0343461
-0.0306205
-0.0270488
-0.0236273
-0.0203529
-0.0172213
-0.0142299
-0.011374
-0.00865344
-0.00606328
-0.00360086
-0.00126377
0.000950474
0.00304404
0.00501874
0.00687608
0.0086171
0.0102423
0.011753
0.0131479
0.0144257
0.0155845
0.0166226
0.0175361
0.0183198
0.0189693
0.0194711
0.0198273
0.0200025
-0.090945
-0.0851229
-0.079437
-0.0739455
-0.068657
-0.0635606
-0.0586496
-0.0539202
-0.0493695
-0.0449953
-0.040795
-0.0367636
-0.0328974
-0.0291927
-0.0256457
-0.0222529
-0.0190098
-0.0159132
-0.012959
-0.0101455
-0.00746802
-0.00492377
-0.00251004
-0.000224109
0.00193638
0.00397342
0.0058887
0.00768344
0.00935834
0.0109146
0.0123508
0.0136666
0.0148597
0.0159284
0.0168688
0.0176757
0.0183447
0.0188622
0.0192298
0.0194136
-0.095365
-0.0893117
-0.0833901
-0.0776832
-0.0721923
-0.0669024
-0.0618067
-0.0569019
-0.0521848
-0.0476523
-0.0433013
-0.0391271
-0.0351257
-0.031293
-0.0276249
-0.0241176
-0.0207665
-0.0175678
-0.0145176
-0.0116135
-0.00885094
-0.00622674
-0.00373799
-0.00138178
0.000844403
0.00294272
0.00491503
0.00676269
0.0084865
0.0100877
0.011565
0.0129183
0.0141453
0.0152442
0.0162113
0.0170411
0.0177294
0.0182624
0.0186412
0.0188336
-0.0996193
-0.0933477
-0.0872034
-0.0812945
-0.0756136
-0.0701414
-0.0648712
-0.0598002
-0.054925
-0.0502419
-0.0457472
-0.0414365
-0.0373053
-0.0333496
-0.0295648
-0.0259468
-0.0224911
-0.0191936
-0.0160501
-0.0130578
-0.0102121
-0.00750977
-0.00494756
-0.00252243
-0.000231743
0.00192683
0.00395526
0.00585506
0.00762713
0.00927268
0.0107908
0.0121811
0.0134416
0.0145704
0.0155638
0.0164163
0.0171237
0.017672
0.0180618
0.0182627
-0.103705
-0.0972279
-0.0908748
-0.0847776
-0.0789194
-0.0732765
-0.0678423
-0.0626145
-0.0575897
-0.0527636
-0.0481323
-0.0436913
-0.0394361
-0.0353622
-0.0314652
-0.0277406
-0.0241838
-0.0207905
-0.0175564
-0.0144782
-0.0115515
-0.00877279
-0.00613866
-0.00364596
-0.00129192
0.000925903
0.0030096
0.00496078
0.00678047
0.00846986
0.0100282
0.0114551
0.0127488
0.0139072
0.0149266
0.0158016
0.0165279
0.0170913
0.0174919
0.0177012
-0.107619
-0.100949
-0.0944018
-0.0881306
-0.0821084
-0.0763066
-0.070719
-0.0653441
-0.0601783
-0.0552171
-0.0504564
-0.0458915
-0.0415179
-0.0373311
-0.0333263
-0.029499
-0.0258446
-0.0223585
-0.0190365
-0.0158748
-0.0128691
-0.0100157
-0.00731122
-0.00475227
-0.00233602
-5.99166e-05
0.00207821
0.00408005
0.00594673
0.00767943
0.0092775
0.0107407
0.0120672
0.0132548
0.0143
0.0151972
0.015942
0.0165205
0.0169317
0.0171491
-0.111358
-0.104509
-0.0977818
-0.0913515
-0.0851791
-0.0792304
-0.0735004
-0.0679882
-0.0626904
-0.0576022
-0.0527193
-0.048037
-0.0435508
-0.0392561
-0.0351481
-0.0312221
-0.0274736
-0.0238978
-0.0204905
-0.0172476
-0.0141649
-0.0112386
-0.00846522
-0.0058413
-0.00336394
-0.00103052
0.00116121
0.00321301
0.00512607
0.00690155
0.00853893
0.0100379
0.0113969
0.0126134
0.0136842
0.0146033
0.0153665
0.0159598
0.0163813
0.0166067
-0.114919
-0.107902
-0.101012
-0.0944382
-0.0881297
-0.0820468
-0.0761855
-0.0705462
-0.0651255
-0.0599186
-0.0549209
-0.0501279
-0.0455349
-0.0411375
-0.0369308
-0.0329101
-0.0290709
-0.0254085
-0.0219184
-0.0185967
-0.015439
-0.0124415
-0.00960066
-0.00691304
-0.00437565
-0.00198583
0.000258717
0.00235979
0.00431864
0.00613639
0.00781264
0.00934712
0.0107381
0.0119833
0.0130793
0.0140202
0.0148015
0.0154094
0.015841
0.0160741
-0.118297
-0.111126
-0.104089
-0.0973885
-0.0909585
-0.0847543
-0.0787733
-0.0730173
-0.0674833
-0.062166
-0.0570611
-0.052164
-0.0474702
-0.0429752
-0.0386744
-0.0345632
-0.0306368
-0.0268907
-0.0233205
-0.0199222
-0.0166914
-0.0136244
-0.0107176
-0.00796749
-0.00537112
-0.0029258
-0.000629201
0.00152049
0.00352457
0.00538411
0.00709882
0.00866839
0.0100912
0.0113647
0.0124857
0.013448
0.0142473
0.0148695
0.0153109
0.0155516
-0.121489
-0.114176
-0.10701
-0.1002
-0.0936639
-0.0873516
-0.0812626
-0.0754008
-0.069763
-0.0643442
-0.0591397
-0.0541453
-0.0493567
-0.0447696
-0.0403793
-0.0361814
-0.0321714
-0.0283447
-0.024697
-0.0212243
-0.0179224
-0.0147875
-0.0118161
-0.00900469
-0.00635036
-0.0038504
-0.00150249
0.00069519
0.00274396
0.00464483
0.0063976
0.0080019
0.00945611
0.0107577
0.0119034
0.0128869
0.0137039
0.0143403
0.0147914
0.0150393
-0.124491
-0.117048
-0.10977
-0.10287
-0.096244
-0.0898372
-0.0836524
-0.0776957
-0.0719643
-0.0664528
-0.0611567
-0.056072
-0.0511947
-0.0465207
-0.0420456
-0.0377652
-0.0336749
-0.0297706
-0.0260481
-0.0225032
-0.0191321
-0.0159309
-0.0128962
-0.0100247
-0.00731341
-0.00475963
-0.00236112
-0.000116051
0.00197689
0.00391865
0.0057091
0.00734779
0.00883313
0.0101626
0.0113326
0.0123372
0.0131715
0.0138219
0.0142824
0.0145373
-0.127296
-0.119735
-0.112367
-0.105396
-0.0986967
-0.0922095
-0.0859414
-0.0799012
-0.0740864
-0.0684915
-0.0631118
-0.0579438
-0.0529841
-0.0482287
-0.0436736
-0.0393146
-0.0351478
-0.0311689
-0.027374
-0.0237592
-0.0203206
-0.0170548
-0.0139582
-0.0110277
-0.00826033
-0.00565354
-0.00320509
-0.000913202
0.00122342
0.00320566
0.00503342
0.00670618
0.00822236
0.00957932
0.0107736
0.0117989
0.0126505
0.0133146
0.0137843
0.0140458
-0.129899
-0.122233
-0.114796
-0.107775
-0.10102
-0.0944668
-0.088128
-0.0820162
-0.0761289
-0.07046
-0.065005
-0.059761
-0.0547252
-0.049894
-0.0452636
-0.0408302
-0.0365902
-0.0325397
-0.028675
-0.0249924
-0.0214884
-0.0181594
-0.0150022
-0.0120137
-0.00919121
-0.00653217
-0.00403442
-0.00169625
0.000483589
0.00250591
0.00437064
0.00607717
0.00762391
0.00900815
0.0102264
0.0112723
0.0121408
0.0128184
0.0132971
0.0135649
-0.132294
-0.124535
-0.117052
-0.110004
-0.103212
-0.096607
-0.0902108
-0.0840397
-0.0780911
-0.0723579
-0.066836
-0.0615234
-0.056418
-0.0515166
-0.0468157
-0.0423122
-0.0380026
-0.0338835
-0.0299516
-0.0262034
-0.0226355
-0.0192448
-0.0160283
-0.0129829
-0.0101062
-0.0073956
-0.00484916
-0.00246522
-0.000242589
0.00181946
0.00372082
0.00546084
0.00703789
0.00844917
0.00969116
0.0107573
0.0116426
0.0123335
0.0128209
0.0130948
-0.134472
-0.126633
-0.11913
-0.11208
-0.105269
-0.098628
-0.0921878
-0.0859705
-0.0799724
-0.0741849
-0.0686046
-0.0632311
-0.0580628
-0.0530969
-0.0483305
-0.0437609
-0.0393853
-0.0352007
-0.031204
-0.0273923
-0.0237624
-0.0203115
-0.0170368
-0.0139356
-0.0110054
-0.00824395
-0.00564938
-0.00322014
-0.000955122
0.00114631
0.00308402
0.00485726
0.00646436
0.00790247
0.00916797
0.0102543
0.011156
0.0118601
0.012356
0.0126355
-0.136424
-0.128519
-0.121025
-0.114
-0.10719
-0.100527
-0.0940571
-0.0878073
-0.081772
-0.0759404
-0.0703105
-0.064884
-0.0596598
-0.0546352
-0.0498081
-0.0451768
-0.0407388
-0.0364916
-0.0324327
-0.0285595
-0.0248694
-0.0213597
-0.018028
-0.0148719
-0.011889
-0.00907735
-0.00643518
-0.00396108
-0.00165404
0.000486464
0.00246024
0.00426646
0.00590341
0.00736812
0.00865693
0.00976313
0.0106812
0.0113981
0.0119023
0.0121872
-0.138139
-0.130184
-0.122731
-0.115761
-0.108971
-0.102301
-0.0958163
-0.0895491
-0.0834893
-0.0776239
-0.0719535
-0.0664821
-0.061209
-0.0561317
-0.051249
-0.0465602
-0.0420634
-0.0377567
-0.0336381
-0.0297055
-0.0259568
-0.0223897
-0.0190022
-0.015792
-0.0127572
-0.00989595
-0.00720667
-0.00468811
-0.00233938
-0.00016009
0.00184951
0.00368849
0.00535507
0.00684619
0.00815812
0.00928404
0.0102182
0.0109478
0.0114601
0.0117501
-0.139607
-0.131617
-0.124242
-0.117358
-0.110608
-0.103947
-0.0974629
-0.0911946
-0.0851235
-0.0792345
-0.073533
-0.0680256
-0.0627108
-0.0575865
-0.0526536
-0.0479117
-0.0433597
-0.0389964
-0.0348206
-0.0308307
-0.0270251
-0.023402
-0.0199596
-0.0166963
-0.0136102
-0.0106999
-0.00796399
-0.00540133
-0.00301122
-0.000793395
0.00125181
0.00312335
0.00481937
0.00633673
0.0076716
0.00881707
0.0097671
0.0105092
0.0110295
0.011324
-0.140811
-0.132806
-0.125553
-0.11879
-0.112099
-0.105459
-0.0989945
-0.092743
-0.0866736
-0.0807712
-0.0750489
-0.0695145
-0.064165
-0.0590001
-0.0540222
-0.0492317
-0.0446282
-0.0402114
-0.0359808
-0.0319355
-0.0280746
-0.0243967
-0.0209007
-0.017585
-0.0144484
-0.0114895
-0.00870731
-0.00610087
-0.00366965
-0.0014135
0.000667104
0.00257103
0.00429634
0.00583977
0.00719741
0.00836227
0.00932802
0.0100825
0.0106104
0.0109093
-0.141736
-0.133741
-0.126658
-0.120051
-0.113435
-0.106833
-0.100408
-0.094193
-0.0881377
-0.0822326
-0.0765007
-0.0709487
-0.0655718
-0.0603726
-0.0553553
-0.0505206
-0.0458692
-0.041402
-0.0371191
-0.0330205
-0.0291059
-0.0253745
-0.0218257
-0.0184585
-0.0152718
-0.0122649
-0.0094368
-0.00678688
-0.00431476
-0.0020205
9.5355e-05
0.00203152
0.00378597
0.00535533
0.0067356
0.00791969
0.00890099
0.00966754
0.0102031
0.0105059
-0.142362
-0.134407
-0.127551
-0.121139
-0.114613
-0.108063
-0.101704
-0.0955445
-0.0895142
-0.0836179
-0.0778888
-0.072328
-0.066931
-0.0617043
-0.0566532
-0.0517789
-0.0470834
-0.0425688
-0.0382361
-0.0340862
-0.0301193
-0.0263357
-0.0227351
-0.019317
-0.016081
-0.0130264
-0.0101527
-0.0074595
-0.00494669
-0.00261445
-0.000463495
0.00150478
0.00328825
0.00488342
0.00628619
0.00748937
0.00848606
0.00926454
0.00980751
0.0101139
-0.142668
-0.13479
-0.128227
-0.122047
-0.115619
-0.109141
-0.102879
-0.0967935
-0.0907987
-0.0849257
-0.0792126
-0.0736519
-0.0682425
-0.0629957
-0.0579165
-0.0530071
-0.0482714
-0.0437125
-0.0393325
-0.0351331
-0.0311156
-0.0272809
-0.0236293
-0.0201611
-0.0168761
-0.0137742
-0.0108552
-0.00811895
-0.00556559
-0.0031955
-0.00100954
0.000990753
0.00280314
0.00442402
0.00584917
0.00707132
0.00808327
0.0088735
0.00942376
0.00973347
-0.142627
-0.134876
-0.128689
-0.122774
-0.116446
-0.110068
-0.103938
-0.0979399
-0.0919902
-0.0861573
-0.0804724
-0.0749198
-0.0695066
-0.064247
-0.0591453
-0.0542055
-0.0494335
-0.0448335
-0.0404085
-0.0361616
-0.032095
-0.0282103
-0.0245087
-0.0209909
-0.0176574
-0.0145085
-0.0115444
-0.00876535
-0.00617157
-0.00376372
-0.00154284
0.000489398
0.00233063
0.00397713
0.00542455
0.00666557
0.00769264
0.00849447
0.00905191
0.00936454
-0.142208
-0.13465
-0.128931
-0.123295
-0.117064
-0.110833
-0.104872
-0.0989703
-0.0930825
-0.0873109
-0.0816659
-0.0761306
-0.0707236
-0.0654589
-0.0603404
-0.0553753
-0.0505711
-0.0459329
-0.0414655
-0.037173
-0.0330587
-0.029125
-0.0253741
-0.0218072
-0.0184256
-0.01523
-0.012221
-0.00939912
-0.00676496
-0.00431938
-0.0020636
5.49188e-07
0.00187058
0.00354265
0.00501229
0.00627208
0.00731418
0.00812745
0.008692
0.00900721
-0.134121
-0.128987
-0.123618
-0.117488
-0.111465
-0.105696
-0.099889
-0.0940843
-0.0883918
-0.082794
-0.0772856
-0.0718944
-0.0666312
-0.0615017
-0.0565164
-0.0516838
-0.0470106
-0.0425032
-0.038167
-0.0340063
-0.0300248
-0.0262252
-0.02261
-0.0191806
-0.0159385
-0.0128847
-0.0100201
-0.00734565
-0.00486239
-0.00257174
-0.000475718
0.00142307
0.00312066
0.00461243
0.00589091
0.00694793
0.00777248
0.00834406
0.00866153
-0.128812
-0.123643
-0.11766
-0.111934
-0.106366
-0.100672
-0.0949871
-0.0893921
-0.0838526
-0.0783858
-0.0730216
-0.0677675
-0.0626337
-0.0576335
-0.0527765
-0.0480713
-0.0435262
-0.0391478
-0.0349419
-0.0309132
-0.0270656
-0.023402
-0.0199249
-0.0166362
-0.0135375
-0.01063
-0.007915
-0.00539386
-0.00306818
-0.000940134
0.000987523
0.0027107
0.00422465
0.00552183
0.00659376
0.0074295
0.00800812
0.00832751
-0.128537
-0.123467
-0.117725
-0.112336
-0.106936
-0.101371
-0.0958302
-0.0903342
-0.0848596
-0.0794445
-0.0741126
-0.0688726
-0.0637398
-0.0587286
-0.0538501
-0.0491153
-0.0445341
-0.0401147
-0.0358644
-0.031789
-0.0278935
-0.0241818
-0.0206571
-0.0173218
-0.0141781
-0.0112276
-0.00847206
-0.00591299
-0.00355223
-0.00139214
0.000564387
0.00231314
0.00384921
0.00516502
0.00625179
0.00709857
0.00768422
0.00800521
-0.122878
-0.117584
-0.11256
-0.107345
-0.101975
-0.0966086
-0.0912272
-0.0858404
-0.0804926
-0.0752023
-0.0699838
-0.0648569
-0.0598374
-0.0549391
-0.0501752
-0.0455577
-0.0410965
-0.0368003
-0.0326765
-0.0287312
-0.0249692
-0.0213946
-0.0180106
-0.0148198
-0.0118244
-0.00902646
-0.0064278
-0.00403049
-0.00183705
0.00014947
0.00192476
0.00348376
0.00481886
0.005921
0.00677911
0.00737213
0.00769454
-0.122667
-0.117818
-0.113019
-0.10797
-0.102792
-0.0975642
-0.0922756
-0.0869624
-0.0816645
-0.0764018
-0.0711949
-0.0660644
-0.0610273
-0.0561
-0.0512982
-0.0466357
-0.0421245
-0.037775
-0.033596
-0.0295946
-0.0257768
-0.0221474
-0.0187103
-0.0154687
-0.0124251
-0.00958183
-0.0069411
-0.0045051
-0.00227649
-0.000258446
0.00154467
0.00312765
0.00448288
0.00560108
0.00647094
0.00707178
0.0073955
-0.0767238
-0.0716687
-0.0667634
-0.061995
-0.057385
-0.0529323
-0.0486338
-0.0444844
-0.040478
-0.0366222
-0.0329146
-0.0293477
-0.0259203
-0.0226296
-0.0194729
-0.0164486
-0.0135503
-0.010775
-0.00812262
-0.00559628
-0.00318789
-0.000895205
0.00128347
0.00334994
0.00530588
0.00715263
0.00889124
0.0105224
0.012046
0.0134637
0.0147747
0.0159753
0.017064
0.01804
0.0188989
0.0196356
0.0202454
0.0207153
0.0210483
0.0212059
-0.0716811
-0.0669014
-0.0622739
-0.0577696
-0.0534092
-0.0491935
-0.0451203
-0.0411798
-0.0373631
-0.0336922
-0.0301637
-0.0267653
-0.0234958
-0.0203534
-0.017336
-0.0144432
-0.0116664
-0.00900442
-0.00645804
-0.00403271
-0.0017184
0.000486656
0.00258371
0.00457421
0.00645949
0.00824067
0.00991857
0.0114937
0.0129658
0.0143372
0.0156014
0.0167641
0.0178177
0.0187623
0.0195936
0.0203064
0.0208963
0.02135
0.0216714
0.0218198
-0.0664943
-0.0619925
-0.0576463
-0.0534174
-0.0493201
-0.0453541
-0.0415169
-0.0377922
-0.0341743
-0.0306958
-0.0273534
-0.0241297
-0.0210231
-0.018033
-0.0151583
-0.0123983
-0.00974121
-0.00721544
-0.00477395
-0.00244942
-0.000229958
0.00188632
0.00390053
0.00581386
0.00762741
0.00934206
0.0109584
0.0124768
0.0138972
0.0152235
0.0164353
0.0175615
0.0185802
0.0194932
0.0202967
0.0209855
0.0215552
0.0219926
0.0223023
0.0224415
-0.0611439
-0.0569352
-0.0528797
-0.0489383
-0.0451158
-0.041408
-0.0378116
-0.0343174
-0.0309286
-0.0276491
-0.0244942
-0.0214476
-0.0185068
-0.0156719
-0.0129421
-0.0103147
-0.00776838
-0.00541834
-0.00307215
-0.000847189
0.0012767
0.00330307
0.00523323
0.00706822
0.00880894
0.0104561
0.0120099
0.0134707
0.0148384
0.0161145
0.0172843
0.0183689
0.0193518
0.0202328
0.0210081
0.0216726
0.0222219
0.022643
0.0229407
0.0230711
-0.0555949
-0.0517565
-0.0480055
-0.0443553
-0.0408111
-0.0373619
-0.0340045
-0.030768
-0.0276428
-0.0245623
-0.0215937
-0.0187251
-0.0159529
-0.0132769
-0.0106963
-0.00820806
-0.00580827
-0.0035518
-0.00133706
0.000781414
0.00280592
0.00473958
0.0065835
0.00833838
0.0100048
0.0115831
0.0130735
0.0144757
0.0157896
0.0170152
0.0181428
0.0191854
0.020132
0.0209805
0.0217274
0.0223675
0.0228962
0.0233009
0.0235864
0.023708
0.00435608
0.00619482
0.00795061
0.00962378
0.0112145
0.0127228
0.0141486
0.0154914
0.0167507
0.0179255
0.0190099
0.0200104
0.0209202
0.0217359
0.0224541
0.0230696
0.0235775
0.0239658
0.024239
0.0243521
)
;

boundaryField
{
    inlet
    {
        type            zeroGradient;
    }
    outlet
    {
        type            fixedValue;
        value           nonuniform 0();
    }
    cylinder
    {
        type            zeroGradient;
    }
    top
    {
        type            symmetryPlane;
    }
    bottom
    {
        type            symmetryPlane;
    }
    defaultFaces
    {
        type            empty;
    }
    procBoundary13to9
    {
        type            processor;
        value           nonuniform List<scalar> 
58
(
-0.153241
-0.153508
-0.153406
-0.153406
-0.166583
-0.165615
-0.165615
-0.178865
-0.17714
-0.17518
-0.172996
-0.172996
-0.184904
-0.182119
-0.179136
-0.175956
-0.175956
-0.187025
-0.183306
-0.179393
-0.175284
-0.170973
-0.166458
-0.161735
-0.156801
-0.151652
-0.151652
-0.160274
-0.154514
-0.148518
-0.142281
-0.135803
-0.12908
-0.109378
-0.109378
-0.102433
-0.0952627
-0.124777
-0.115923
-0.105577
-0.0962467
-0.0884167
-0.0819712
-0.0769721
-0.0736231
-0.0720944
-0.0724498
-0.0746269
-0.0784396
-0.0835808
-0.141376
-0.141376
-0.133279
-0.133279
-0.132305
-0.127853
-0.127853
-0.127468
)
;
    }
    procBoundary13to10
    {
        type            processor;
        value           nonuniform List<scalar> 2(-0.0866133 -0.0835088);
    }
    procBoundary13to12
    {
        type            processor;
        value           nonuniform List<scalar> 
46
(
-0.0553314
-0.0769917
-0.0670604
-0.0553314
-0.0578832
-0.0498726
-0.0465162
-0.0430679
-0.0397057
-0.0364428
-0.0332613
-0.0301609
-0.0271572
-0.0242507
-0.0213961
-0.0186271
-0.0159456
-0.0133495
-0.0108384
-0.00841218
-0.00606921
-0.00381237
-0.00166247
0.000426422
0.00243372
0.00243372
0.00592643
0.00766818
0.00933404
0.0109239
0.0124376
0.0138748
0.0152349
0.0165174
0.0177214
0.0188452
0.0198849
0.0208435
0.021716
0.0224987
0.023188
0.0237786
0.0242657
0.0246375
0.0248984
0.0250031
)
;
    }
    procBoundary13to14
    {
        type            processor;
        value           nonuniform List<scalar> 
35
(
-0.0803674
-0.0772121
-0.0740445
-0.0708617
-0.0676619
-0.064445
-0.0612123
-0.0579666
-0.0547124
-0.051455
-0.0482012
-0.0449589
-0.0417371
-0.0385456
-0.0353947
-0.0322951
-0.0292573
-0.0262918
-0.0234089
-0.0206185
-0.0179301
-0.0153527
-0.0128953
-0.0105661
-0.00837351
-0.00632551
-0.00443019
-0.00269599
-0.00113183
0.000252594
0.00144641
0.00243701
0.00321023
0.00374774
0.00402988
)
;
    }
}


// ************************************************************************* //
