/*--------------------------------*- C++ -*----------------------------------*\
  =========                 |
  \\      /  F ield         | OpenFOAM: The Open Source CFD Toolbox
   \\    /   O peration     | Website:  https://openfoam.org
    \\  /    A nd           | Version:  7
     \\/     M anipulation  |
\*---------------------------------------------------------------------------*/
FoamFile
{
    version     2.0;
    format      ascii;
    class       volScalarField;
    location    "70";
    object      p;
}
// * * * * * * * * * * * * * * * * * * * * * * * * * * * * * * * * * * * * * //

dimensions      [0 2 -2 0 0 0 0];

internalField   nonuniform List<scalar> 
1989
(
-0.196846
-0.192938
-0.194454
-0.188989
-0.190543
-0.184993
-0.18658
-0.180946
-0.18256
-0.176842
-0.185021
-0.178477
-0.172674
-0.180941
-0.174323
-0.168438
-0.17678
-0.170092
-0.164128
-0.172531
-0.16578
-0.159738
-0.175337
-0.168186
-0.161379
-0.155265
-0.170984
-0.16374
-0.156883
-0.150701
-0.166513
-0.159185
-0.152287
-0.146044
-0.161919
-0.154517
-0.147586
-0.141288
-0.157193
-0.149728
-0.142774
-0.136429
-0.152329
-0.144814
-0.137846
-0.131463
-0.147321
-0.139769
-0.132798
-0.126386
-0.142164
-0.134588
-0.127624
-0.121195
-0.136851
-0.129267
-0.122322
-0.115887
-0.139619
-0.131378
-0.123802
-0.116887
-0.110461
-0.133981
-0.12574
-0.118188
-0.111317
-0.104913
-0.128156
-0.119934
-0.112424
-0.105609
-0.0992444
-0.12214
-0.113956
-0.106505
-0.0997597
-0.0934531
-0.11593
-0.107804
-0.10043
-0.0937696
-0.0875401
-0.109522
-0.101474
-0.0941964
-0.0876382
-0.0815086
-0.0949642
-0.0878009
-0.0813636
-0.0753623
-0.0882731
-0.0812407
-0.0749413
-0.0690916
-0.0814014
-0.0745194
-0.0683694
-0.212171
-0.215499
-0.216366
-0.217064
-0.218142
-0.219256
-0.220131
-0.220741
-0.221141
-0.221359
-0.221397
-0.221249
-0.220914
-0.206497
-0.210066
-0.211104
-0.211882
-0.213048
-0.214291
-0.21531
-0.216059
-0.216592
-0.216943
-0.217116
-0.217105
-0.216908
-0.200714
-0.204503
-0.205746
-0.206636
-0.207888
-0.209246
-0.210401
-0.211285
-0.211947
-0.212427
-0.21273
-0.212853
-0.212791
-0.194899
-0.198858
-0.200314
-0.201335
-0.202678
-0.204143
-0.205427
-0.206443
-0.207232
-0.207836
-0.208267
-0.208519
-0.208589
-0.189077
-0.193165
-0.194829
-0.195995
-0.197435
-0.199002
-0.200409
-0.201553
-0.202467
-0.203193
-0.203748
-0.204126
-0.204325
-0.183269
-0.187455
-0.189315
-0.190631
-0.192173
-0.19384
-0.195362
-0.196631
-0.197666
-0.198513
-0.199188
-0.199689
-0.200015
-0.177496
-0.181752
-0.183793
-0.18526
-0.186905
-0.188668
-0.1903
-0.191687
-0.192842
-0.193805
-0.194598
-0.19522
-0.195669
-0.171778
-0.176077
-0.178283
-0.179897
-0.181645
-0.1835
-0.185235
-0.186735
-0.188005
-0.189082
-0.189989
-0.190728
-0.191296
-0.166132
-0.170452
-0.172806
-0.17456
-0.176408
-0.17835
-0.180181
-0.181787
-0.183167
-0.184354
-0.185371
-0.186223
-0.186907
-0.16058
-0.164896
-0.167381
-0.169267
-0.17121
-0.173232
-0.175151
-0.176856
-0.178339
-0.179631
-0.180754
-0.181715
-0.182511
-0.155139
-0.15943
-0.162028
-0.164034
-0.166065
-0.16816
-0.170159
-0.171955
-0.173535
-0.174926
-0.176149
-0.177213
-0.178116
-0.149825
-0.154072
-0.156761
-0.158876
-0.160987
-0.163147
-0.165217
-0.167095
-0.168764
-0.170248
-0.171566
-0.172727
-0.173732
-0.14465
-0.148836
-0.151598
-0.153807
-0.155988
-0.158206
-0.160338
-0.162289
-0.16404
-0.165608
-0.167015
-0.168268
-0.169368
-0.139624
-0.143736
-0.146551
-0.148839
-0.151081
-0.153348
-0.155533
-0.157548
-0.159372
-0.161019
-0.162507
-0.163845
-0.165034
-0.134755
-0.138781
-0.141633
-0.143985
-0.146279
-0.148585
-0.150814
-0.152884
-0.154772
-0.156489
-0.158051
-0.159468
-0.16074
-0.130051
-0.133983
-0.136853
-0.139257
-0.141591
-0.143929
-0.146193
-0.148309
-0.150252
-0.15203
-0.15366
-0.155147
-0.156495
-0.125519
-0.129348
-0.132223
-0.134665
-0.13703
-0.13939
-0.141681
-0.143833
-0.145822
-0.147655
-0.149343
-0.150895
-0.152311
-0.121163
-0.124883
-0.127751
-0.130219
-0.132605
-0.134979
-0.137288
-0.139467
-0.141494
-0.143372
-0.145112
-0.14672
-0.148198
-0.116989
-0.120596
-0.123445
-0.125927
-0.128325
-0.130706
-0.133024
-0.135223
-0.13728
-0.139195
-0.140978
-0.142635
-0.144167
-0.112999
-0.116491
-0.119312
-0.121797
-0.124199
-0.12658
-0.1289
-0.131111
-0.133188
-0.135133
-0.136953
-0.138651
-0.140231
-0.109199
-0.112573
-0.115356
-0.117837
-0.120236
-0.122609
-0.124925
-0.127139
-0.129231
-0.131198
-0.133046
-0.13478
-0.136399
-0.105588
-0.108845
-0.111585
-0.114053
-0.116441
-0.118801
-0.121107
-0.123319
-0.125417
-0.127399
-0.129269
-0.131031
-0.132684
-0.102171
-0.10531
-0.108001
-0.11045
-0.112822
-0.115163
-0.117453
-0.119657
-0.121756
-0.123747
-0.125633
-0.127416
-0.129096
-0.0989466
-0.101972
-0.10461
-0.107034
-0.109384
-0.111703
-0.113973
-0.116163
-0.118258
-0.120252
-0.122147
-0.123946
-0.125647
-0.0959178
-0.0988317
-0.101415
-0.103809
-0.106134
-0.108427
-0.110673
-0.112846
-0.11493
-0.116922
-0.118823
-0.120632
-0.122349
-0.0930857
-0.0958923
-0.0984183
-0.10078
-0.103077
-0.105341
-0.10756
-0.109712
-0.111783
-0.113769
-0.115669
-0.117484
-0.119212
-0.0904519
-0.0931561
-0.0956249
-0.0979518
-0.100219
-0.102452
-0.104642
-0.106771
-0.108826
-0.110801
-0.112698
-0.114514
-0.116248
-0.0880186
-0.0906258
-0.0930382
-0.0953292
-0.0975644
-0.0997661
-0.101927
-0.10403
-0.106066
-0.108029
-0.109918
-0.111732
-0.11347
-0.0857885
-0.0883052
-0.0906629
-0.0929176
-0.095121
-0.0972909
-0.0994211
-0.101499
-0.103514
-0.105462
-0.107342
-0.109151
-0.110889
-0.0837653
-0.0861983
-0.088504
-0.0907232
-0.0928953
-0.095034
-0.0971344
-0.0991858
-0.10118
-0.103112
-0.104981
-0.106784
-0.108518
-0.081954
-0.084311
-0.086568
-0.0887534
-0.0908954
-0.0930043
-0.095076
-0.0971021
-0.0990753
-0.100991
-0.102848
-0.104642
-0.106372
-0.0803606
-0.0826499
-0.0848628
-0.0870167
-0.0891308
-0.091212
-0.0932571
-0.0952591
-0.0972122
-0.0991122
-0.100956
-0.102742
-0.104466
-0.0789938
-0.0812242
-0.0833981
-0.0855239
-0.087613
-0.0896694
-0.0916904
-0.0936708
-0.0956053
-0.0974902
-0.0993224
-0.101099
-0.102818
-0.0778641
-0.0800454
-0.0821863
-0.0842882
-0.0863559
-0.088391
-0.0903915
-0.0923531
-0.0942715
-0.096143
-0.0979646
-0.0997332
-0.101446
-0.0769827
-0.0791263
-0.0812414
-0.0833242
-0.0853749
-0.0873933
-0.0893774
-0.0913239
-0.0932293
-0.09509
-0.0969027
-0.0986646
-0.100372
-0.0763753
-0.0784906
-0.0805874
-0.0826571
-0.0846959
-0.0867023
-0.0886746
-0.0906103
-0.0925062
-0.0943589
-0.0961651
-0.0979217
-0.0996257
-0.0760404
-0.0781467
-0.0802362
-0.0822999
-0.0843334
-0.0863344
-0.0883014
-0.090232
-0.0921234
-0.0939724
-0.0957755
-0.0975297
-0.0992319
-0.0947758
-0.091687
-0.0887029
-0.0858192
-0.0830648
-0.0804376
-0.0779297
-0.0755334
-0.0732453
-0.0710613
-0.0689774
-0.0669889
-0.0650914
-0.0632832
-0.0615623
-0.0599238
-0.0583642
-0.0568809
-0.0554709
-0.0541313
-0.052859
-0.0516533
-0.0505095
-0.0494243
-0.0484019
-0.0474408
-0.0465355
-0.0456875
-0.0448955
-0.0441591
-0.0434785
-0.0428541
-0.0422868
-0.0417782
-0.0413299
-0.0409456
-0.0406253
-0.0403833
-0.0402024
-0.0401321
-0.100305
-0.0970244
-0.0938261
-0.0907428
-0.0877982
-0.0849854
-0.0822955
-0.0797225
-0.077263
-0.0749128
-0.0726681
-0.0705242
-0.0684771
-0.0665244
-0.0646641
-0.0628915
-0.0612034
-0.0595968
-0.0580686
-0.0566162
-0.0552362
-0.0539278
-0.0526869
-0.0515103
-0.0504007
-0.0493567
-0.0483736
-0.0474526
-0.0465924
-0.0457925
-0.045053
-0.0443745
-0.0437579
-0.0432047
-0.0427165
-0.0422974
-0.0419473
-0.0416808
-0.0414814
-0.0413966
-0.105734
-0.102273
-0.0988694
-0.0955957
-0.0924694
-0.0894785
-0.0866137
-0.08387
-0.0812442
-0.0787324
-0.0763308
-0.0740351
-0.0718413
-0.0697469
-0.0677495
-0.0658449
-0.0640298
-0.0623013
-0.0606564
-0.0590922
-0.0576056
-0.0561955
-0.0548579
-0.05359
-0.0523936
-0.0512673
-0.0502068
-0.0492132
-0.048285
-0.0474218
-0.0466237
-0.0458913
-0.0452254
-0.0446276
-0.0440998
-0.0436459
-0.043266
-0.0429752
-0.0427574
-0.0426576
-0.111063
-0.107435
-0.103834
-0.100379
-0.0970795
-0.0939179
-0.0908848
-0.0879762
-0.0851893
-0.0825205
-0.0799659
-0.0775217
-0.0751843
-0.0729507
-0.0708185
-0.0687838
-0.0668434
-0.0649945
-0.0632339
-0.0615591
-0.0599668
-0.0584556
-0.0570221
-0.0556633
-0.0543805
-0.0531723
-0.0520349
-0.0509688
-0.0499728
-0.0490466
-0.0481901
-0.0474038
-0.0466888
-0.0460466
-0.0454791
-0.0449906
-0.0445811
-0.0442658
-0.0440299
-0.0439151
-0.116294
-0.112509
-0.108721
-0.105094
-0.10163
-0.0983046
-0.0951095
-0.0920418
-0.089099
-0.0862774
-0.0835737
-0.0809845
-0.0785062
-0.0761359
-0.073871
-0.0717081
-0.069644
-0.067676
-0.065801
-0.0640164
-0.0623192
-0.0607077
-0.0591789
-0.0577298
-0.0563612
-0.0550713
-0.0538572
-0.052719
-0.0516555
-0.0506663
-0.0497516
-0.0489116
-0.0481476
-0.0474611
-0.0468541
-0.0463311
-0.045892
-0.0455524
-0.0452986
-0.0451686
-0.121426
-0.117499
-0.113533
-0.109741
-0.106121
-0.10264
-0.0992891
-0.0960678
-0.0929738
-0.0900039
-0.0871549
-0.0844237
-0.0818071
-0.0793024
-0.076907
-0.0746176
-0.0724314
-0.0703456
-0.0683574
-0.0664641
-0.0646627
-0.0629517
-0.0613281
-0.0597891
-0.0583349
-0.0569639
-0.0556734
-0.0544633
-0.0533325
-0.0522806
-0.0513077
-0.0504142
-0.0496013
-0.0488707
-0.0482242
-0.0476668
-0.0471983
-0.0468345
-0.0465631
-0.046418
-0.126462
-0.122404
-0.118269
-0.114323
-0.110554
-0.106924
-0.103424
-0.100055
-0.0968146
-0.0937005
-0.0907097
-0.0878397
-0.0850875
-0.0824507
-0.0799267
-0.0775126
-0.0752057
-0.0730034
-0.0709029
-0.0689018
-0.0669971
-0.0651871
-0.0634692
-0.0618408
-0.0603014
-0.0588496
-0.0574829
-0.0562012
-0.0550032
-0.0538888
-0.0528579
-0.0519111
-0.0510494
-0.0502747
-0.0495891
-0.0489973
-0.0484997
-0.0481118
-0.0478229
-0.0476629
-0.131405
-0.127228
-0.122932
-0.118839
-0.114931
-0.111159
-0.107516
-0.104004
-0.100622
-0.0973677
-0.0942387
-0.0912328
-0.0883476
-0.0855808
-0.0829301
-0.0803929
-0.0779668
-0.0756491
-0.0734374
-0.0713293
-0.069322
-0.0674137
-0.0656021
-0.0638844
-0.0622602
-0.0607279
-0.0592853
-0.0579322
-0.0566673
-0.0554905
-0.0544018
-0.0534017
-0.0524915
-0.0516729
-0.0509481
-0.0503223
-0.0497956
-0.0493838
-0.0490777
-0.0489031
-0.136257
-0.131971
-0.127524
-0.123292
-0.119252
-0.115346
-0.111566
-0.107916
-0.104397
-0.101006
-0.0977423
-0.0946035
-0.0915877
-0.088693
-0.0859175
-0.0832588
-0.0807147
-0.0782828
-0.0759608
-0.0737465
-0.0716372
-0.0696312
-0.0677262
-0.0659197
-0.064211
-0.0625985
-0.0610802
-0.0596558
-0.0583243
-0.0570852
-0.0559388
-0.0548857
-0.053927
-0.0530647
-0.052301
-0.0516412
-0.0510857
-0.0506501
-0.0503272
-0.0501381
-0.141021
-0.136638
-0.132046
-0.127684
-0.12352
-0.119487
-0.115575
-0.111792
-0.10814
-0.104616
-0.101221
-0.0979521
-0.0948081
-0.0917876
-0.088889
-0.0861102
-0.0834494
-0.0809044
-0.078473
-0.0761532
-0.0739426
-0.0718393
-0.0698414
-0.0679464
-0.0661533
-0.0644609
-0.0628672
-0.0613718
-0.0599736
-0.0586725
-0.0574686
-0.0563625
-0.0553555
-0.0544496
-0.0536471
-0.0529536
-0.0523695
-0.0519105
-0.051571
-0.0513678
-0.145699
-0.141229
-0.1365
-0.132016
-0.127736
-0.123582
-0.119544
-0.115632
-0.111851
-0.108199
-0.104676
-0.101279
-0.0980093
-0.0948649
-0.0918448
-0.0889474
-0.086171
-0.0835138
-0.0809739
-0.0785493
-0.0762378
-0.0740378
-0.0719473
-0.069964
-0.068087
-0.0663149
-0.0646459
-0.0630796
-0.061615
-0.0602519
-0.0589906
-0.0578317
-0.0567766
-0.0558273
-0.0549862
-0.0542591
-0.0536467
-0.0531644
-0.0528088
-0.0525918
-0.150296
-0.145747
-0.14089
-0.13629
-0.131902
-0.127633
-0.123474
-0.119439
-0.115533
-0.111756
-0.108106
-0.104585
-0.101192
-0.0979251
-0.0947851
-0.0917704
-0.0888795
-0.0861111
-0.0834633
-0.0809346
-0.0785228
-0.0762264
-0.0740436
-0.0719724
-0.0700116
-0.06816
-0.0664158
-0.0647788
-0.0632479
-0.0618231
-0.0605045
-0.059293
-0.0581898
-0.0571973
-0.0563178
-0.0555574
-0.054917
-0.0544116
-0.0540402
-0.0538098
-0.154816
-0.150197
-0.145216
-0.140508
-0.136019
-0.131642
-0.127367
-0.123212
-0.119185
-0.115286
-0.111514
-0.107871
-0.104355
-0.100969
-0.0977102
-0.0945794
-0.0915751
-0.0886963
-0.0859414
-0.083309
-0.0807974
-0.078405
-0.0761303
-0.0739713
-0.0719269
-0.0699959
-0.0681768
-0.0664691
-0.0648721
-0.0633856
-0.0620099
-0.0607458
-0.0595947
-0.0585592
-0.0576416
-0.056848
-0.0561798
-0.0556517
-0.0552648
-0.0550217
-0.159261
-0.154579
-0.149482
-0.144672
-0.14009
-0.13561
-0.131223
-0.126954
-0.122809
-0.118791
-0.1149
-0.111136
-0.107501
-0.103996
-0.10062
-0.0973746
-0.0942578
-0.0912693
-0.088408
-0.0856725
-0.0830614
-0.0805734
-0.0782069
-0.0759604
-0.0738325
-0.0718223
-0.0699283
-0.0681502
-0.0664871
-0.064939
-0.0635063
-0.0621898
-0.060991
-0.0599126
-0.058957
-0.0581306
-0.0574349
-0.0568844
-0.0564825
-0.0562271
-0.163636
-0.158898
-0.153689
-0.148784
-0.144115
-0.139539
-0.135046
-0.130664
-0.126406
-0.122272
-0.118264
-0.114382
-0.110629
-0.107007
-0.103516
-0.100156
-0.0969278
-0.0938304
-0.0908631
-0.088025
-0.0853148
-0.0827314
-0.0802734
-0.0779394
-0.0757283
-0.0736389
-0.0716702
-0.0698216
-0.0680925
-0.066483
-0.0649933
-0.0636246
-0.0623783
-0.0612572
-0.0602638
-0.0594048
-0.0586819
-0.0581094
-0.0576928
-0.0574257
-0.167944
-0.163156
-0.15784
-0.152847
-0.148099
-0.143431
-0.138835
-0.134345
-0.129976
-0.12573
-0.121607
-0.117609
-0.11374
-0.110002
-0.106397
-0.102924
-0.0995852
-0.0963796
-0.0933069
-0.0903665
-0.0875575
-0.0848789
-0.0823296
-0.0799083
-0.0776139
-0.0754456
-0.0734021
-0.0714832
-0.0696882
-0.0680172
-0.0664707
-0.0650498
-0.0637561
-0.0625925
-0.0615616
-0.0606702
-0.0599205
-0.0593262
-0.0588954
-0.0586174
-0.172191
-0.167357
-0.161937
-0.156862
-0.152042
-0.147288
-0.142592
-0.137997
-0.133521
-0.129165
-0.124929
-0.120818
-0.116834
-0.112983
-0.109264
-0.105679
-0.10223
-0.0989169
-0.0957393
-0.092697
-0.0897895
-0.0870159
-0.0843754
-0.0818668
-0.0794892
-0.0772419
-0.0751237
-0.0731345
-0.0712736
-0.0695413
-0.0679381
-0.0664652
-0.0651242
-0.0639182
-0.06285
-0.0619265
-0.0611504
-0.0605347
-0.0600902
-0.0598019
-0.17638
-0.171503
-0.165984
-0.160833
-0.155947
-0.151112
-0.14632
-0.141622
-0.137042
-0.132579
-0.128233
-0.124009
-0.119913
-0.115948
-0.112117
-0.108422
-0.104863
-0.101443
-0.0981604
-0.0950165
-0.0920106
-0.0891421
-0.0864105
-0.0838147
-0.081354
-0.0790277
-0.0768349
-0.0747753
-0.0728486
-0.071055
-0.0693952
-0.0678703
-0.0664822
-0.065234
-0.0641287
-0.0631734
-0.0623712
-0.0617346
-0.0612767
-0.0609789
-0.180514
-0.175597
-0.169982
-0.164762
-0.159816
-0.154904
-0.150017
-0.145221
-0.140541
-0.135973
-0.131517
-0.127183
-0.122976
-0.118899
-0.114957
-0.111151
-0.107484
-0.103957
-0.10057
-0.0973251
-0.0942209
-0.0912577
-0.0884349
-0.0857519
-0.0832081
-0.0808027
-0.0785352
-0.0764054
-0.0744128
-0.072558
-0.0708416
-0.0692649
-0.0678298
-0.0665396
-0.0653975
-0.0644106
-0.0635826
-0.0629254
-0.0624547
-0.0621482
-0.184597
-0.179641
-0.173933
-0.168652
-0.163654
-0.158667
-0.153688
-0.148796
-0.144018
-0.139346
-0.134784
-0.130341
-0.126024
-0.121837
-0.117784
-0.113869
-0.110093
-0.10646
-0.102969
-0.0996227
-0.0964204
-0.0933624
-0.0904486
-0.0876783
-0.0850512
-0.0825669
-0.0802246
-0.0780244
-0.0759661
-0.07405
-0.072277
-0.0706486
-0.0691666
-0.0678347
-0.0666559
-0.0656378
-0.0647844
-0.0641071
-0.063624
-0.0633097
-0.188631
-0.183638
-0.177842
-0.172507
-0.167461
-0.1624
-0.157332
-0.152348
-0.147474
-0.142702
-0.138034
-0.133483
-0.129057
-0.124761
-0.120599
-0.116574
-0.112691
-0.108952
-0.105357
-0.10191
-0.0986092
-0.0954564
-0.0924514
-0.0895938
-0.0868834
-0.0843199
-0.0819029
-0.0796323
-0.0775081
-0.0755308
-0.0737013
-0.0720212
-0.0704925
-0.0691189
-0.0679037
-0.0668546
-0.0659762
-0.0652792
-0.0647842
-0.064463
-0.19262
-0.187589
-0.181713
-0.176333
-0.171242
-0.166108
-0.160952
-0.155879
-0.150912
-0.14604
-0.141268
-0.136611
-0.132077
-0.127672
-0.123401
-0.119268
-0.115278
-0.111432
-0.107735
-0.104186
-0.100787
-0.0975396
-0.0944433
-0.0914983
-0.0887045
-0.0860618
-0.0835698
-0.0812287
-0.0790386
-0.0770001
-0.0751141
-0.0733823
-0.0718071
-0.070392
-0.0691407
-0.0680609
-0.0671578
-0.0664417
-0.0659352
-0.065608
-0.196562
-0.191494
-0.185547
-0.18013
-0.174995
-0.169788
-0.164547
-0.15939
-0.154332
-0.149361
-0.144486
-0.139724
-0.135085
-0.130572
-0.126192
-0.121951
-0.117854
-0.113903
-0.110101
-0.106451
-0.102955
-0.0996121
-0.0964244
-0.0933918
-0.0905144
-0.0877922
-0.0852252
-0.0828136
-0.0805575
-0.0784577
-0.0765152
-0.0747319
-0.0731101
-0.0716537
-0.0703665
-0.0692563
-0.0683289
-0.0675941
-0.0670766
-0.0667445
-0.20046
-0.195359
-0.189358
-0.183913
-0.178733
-0.17345
-0.168127
-0.162886
-0.157738
-0.152668
-0.14769
-0.142825
-0.138079
-0.133459
-0.128971
-0.124623
-0.120419
-0.116363
-0.112458
-0.108707
-0.105111
-0.101674
-0.0983945
-0.0952741
-0.0923129
-0.0895112
-0.086869
-0.0843866
-0.0820645
-0.0799033
-0.0779044
-0.0760696
-0.0744014
-0.0729039
-0.071581
-0.0704406
-0.0694893
-0.0687363
-0.0682082
-0.0678723
-0.204312
-0.199182
-0.193138
-0.187664
-0.182434
-0.177079
-0.171679
-0.166362
-0.161126
-0.155959
-0.150882
-0.145914
-0.141063
-0.136336
-0.131741
-0.127286
-0.122975
-0.118813
-0.114804
-0.110952
-0.107258
-0.103725
-0.100354
-0.0971454
-0.0941002
-0.0912187
-0.0885011
-0.0859478
-0.0835595
-0.0813369
-0.0792815
-0.0773952
-0.0756807
-0.0741422
-0.0727838
-0.0716136
-0.0706388
-0.0698681
-0.0693299
-0.0689912
-0.202993
-0.196939
-0.191439
-0.186149
-0.180711
-0.17523
-0.169832
-0.164505
-0.159239
-0.154062
-0.148992
-0.144035
-0.139201
-0.1345
-0.129937
-0.12552
-0.121253
-0.11714
-0.113186
-0.109394
-0.105765
-0.102302
-0.0990054
-0.0958759
-0.0929143
-0.0901211
-0.0874968
-0.0850422
-0.0827581
-0.0806462
-0.0787085
-0.0769477
-0.0753684
-0.0739748
-0.072775
-0.0717771
-0.0709892
-0.0704412
-0.070101
-0.200665
-0.195135
-0.189798
-0.184293
-0.17875
-0.173284
-0.167869
-0.162508
-0.157235
-0.152063
-0.147001
-0.142061
-0.137253
-0.132583
-0.128058
-0.123685
-0.119469
-0.115413
-0.111522
-0.107797
-0.104241
-0.100855
-0.0976411
-0.0945991
-0.0917299
-0.0890343
-0.0865131
-0.0841674
-0.0819988
-0.0800096
-0.0782026
-0.0765825
-0.0751538
-0.0739248
-0.072904
-0.0720995
-0.0715421
-0.0712016
-0.204568
-0.198981
-0.19354
-0.187921
-0.182295
-0.176745
-0.171233
-0.165775
-0.160401
-0.155125
-0.149957
-0.144911
-0.139995
-0.135219
-0.130588
-0.126109
-0.121788
-0.11763
-0.113639
-0.109817
-0.106168
-0.102693
-0.0993941
-0.0962714
-0.093326
-0.0905589
-0.0879709
-0.0855635
-0.0833383
-0.0812976
-0.0794446
-0.0777839
-0.0763205
-0.0750625
-0.0740192
-0.0731987
-0.0726321
-0.0722929
-0.202653
-0.197171
-0.191502
-0.185836
-0.180215
-0.174615
-0.169065
-0.163593
-0.158212
-0.152937
-0.147782
-0.142757
-0.13787
-0.133129
-0.128541
-0.124114
-0.119851
-0.115758
-0.111838
-0.108095
-0.104529
-0.101143
-0.0979385
-0.0949158
-0.0920761
-0.0894206
-0.0869507
-0.0846681
-0.0825756
-0.080676
-0.0789745
-0.077476
-0.0761891
-0.0751233
-0.0742873
-0.0737117
-0.073375
-0.20683
-0.201098
-0.195285
-0.189518
-0.183788
-0.178082
-0.172426
-0.166841
-0.161343
-0.155953
-0.150683
-0.145544
-0.140543
-0.135689
-0.13099
-0.126451
-0.12208
-0.117882
-0.11386
-0.110019
-0.10636
-0.102886
-0.0995971
-0.0964956
-0.0935824
-0.0908585
-0.0883256
-0.0859854
-0.0838407
-0.0818947
-0.0801524
-0.0786192
-0.0773036
-0.0762158
-0.075365
-0.0747804
-0.0744477
-0.0891456
-0.0862606
-0.0834986
-0.0808235
-0.0782686
-0.0758353
-0.0735165
-0.0713028
-0.0691914
-0.0671781
-0.0652591
-0.0634294
-0.0616843
-0.0600228
-0.0584437
-0.0569413
-0.0555121
-0.0541538
-0.0528633
-0.0516378
-0.0504744
-0.0493728
-0.048327
-0.0473318
-0.0463968
-0.0455197
-0.0446929
-0.0439182
-0.0431948
-0.0425221
-0.0419005
-0.0413303
-0.0408126
-0.0403487
-0.0399403
-0.0395909
-0.0393005
-0.0390829
-0.0389206
-0.0388648
-0.0834148
-0.0807462
-0.0782139
-0.0757563
-0.0734099
-0.071178
-0.0690552
-0.06703
-0.0651007
-0.0632633
-0.0615142
-0.059847
-0.0582556
-0.0567416
-0.0553064
-0.0539428
-0.0526465
-0.0514151
-0.0502458
-0.0491358
-0.0480826
-0.0470868
-0.0461398
-0.045233
-0.0443859
-0.0435938
-0.0428463
-0.0421455
-0.0414909
-0.0408822
-0.0403197
-0.039804
-0.0393359
-0.0389168
-0.0385483
-0.0382339
-0.0379733
-0.0377803
-0.0376364
-0.0375952
-0.0775875
-0.0751482
-0.0728535
-0.0706216
-0.0684879
-0.0664613
-0.0645414
-0.0627116
-0.0609708
-0.0593156
-0.0577427
-0.0562424
-0.0548037
-0.0534373
-0.052149
-0.0509278
-0.0497671
-0.0486647
-0.0476182
-0.0466249
-0.0456831
-0.0447939
-0.0439456
-0.0431314
-0.0423723
-0.0416654
-0.0409973
-0.0403704
-0.0397848
-0.0392403
-0.0387371
-0.0382758
-0.0378574
-0.0374832
-0.0371547
-0.0368753
-0.0366444
-0.0364764
-0.0363499
-0.0363247
-0.0716675
-0.0694705
-0.0674224
-0.0654237
-0.0634956
-0.0616751
-0.0599672
-0.0583421
-0.0567973
-0.0553306
-0.0539396
-0.0526099
-0.0513285
-0.0501137
-0.0489757
-0.0478994
-0.0468761
-0.045904
-0.0449811
-0.0441053
-0.0432751
-0.0424915
-0.0417386
-0.0410357
-0.0403615
-0.0397376
-0.0391481
-0.0385948
-0.038078
-0.0375975
-0.0371536
-0.0367468
-0.036378
-0.0360486
-0.0357601
-0.0355156
-0.0353143
-0.0351714
-0.0350618
-0.0350535
-0.0656394
-0.0636998
-0.0619081
-0.0601483
-0.0584271
-0.0568197
-0.0553352
-0.053923
-0.0525794
-0.0513044
-0.0500959
-0.0489362
-0.0478375
-0.0467876
-0.0457992
-0.0448661
-0.0439793
-0.0431373
-0.0423382
-0.0415799
-0.040861
-0.0401809
-0.0395188
-0.0389498
-0.0383552
-0.0378116
-0.0372997
-0.0368196
-0.0363714
-0.0359547
-0.0355699
-0.0352175
-0.0348983
-0.0346136
-0.0343649
-0.0341552
-0.0339836
-0.033865
-0.0337732
-0.0337799
-0.0384487
-0.0378737
-0.0373198
-0.036837
-0.0363403
-0.03588
-0.0354476
-0.0350418
-0.0346629
-0.0343106
-0.0339853
-0.0336875
-0.033418
-0.0331782
-0.0329694
-0.0327944
-0.0326526
-0.0325578
-0.0324843
-0.0325048
)
;

boundaryField
{
    inlet
    {
        type            zeroGradient;
    }
    outlet
    {
        type            fixedValue;
        value           nonuniform 0();
    }
    cylinder
    {
        type            zeroGradient;
    }
    top
    {
        type            symmetryPlane;
    }
    bottom
    {
        type            symmetryPlane;
    }
    defaultFaces
    {
        type            empty;
    }
    procBoundary13to9
    {
        type            processor;
        value           nonuniform List<scalar> 
58
(
-0.208406
-0.204571
-0.200722
-0.200722
-0.202146
-0.198319
-0.198319
-0.200662
-0.19684
-0.192963
-0.189026
-0.189026
-0.191729
-0.187769
-0.183722
-0.17958
-0.17958
-0.182952
-0.178712
-0.174347
-0.169847
-0.165206
-0.160416
-0.155469
-0.150358
-0.145077
-0.145077
-0.148595
-0.142978
-0.137155
-0.131122
-0.124872
-0.118404
-0.102915
-0.102915
-0.0961062
-0.0890965
-0.217664
-0.220732
-0.221511
-0.222181
-0.223169
-0.224135
-0.224855
-0.225322
-0.225583
-0.225662
-0.225559
-0.22527
-0.224794
-0.208123
-0.208123
-0.206744
-0.206744
-0.210661
-0.208192
-0.208192
-0.212595
)
;
    }
    procBoundary13to10
    {
        type            processor;
        value           nonuniform List<scalar> 2(-0.220393 -0.216527);
    }
    procBoundary13to12
    {
        type            processor;
        value           nonuniform List<scalar> 
46
(
-0.0626575
-0.0743522
-0.0676479
-0.0626575
-0.0616632
-0.0594504
-0.0578041
-0.0562699
-0.0547376
-0.0533232
-0.0519365
-0.0506748
-0.0494741
-0.0483309
-0.047246
-0.0462161
-0.0452206
-0.0443432
-0.0434712
-0.042627
-0.0418335
-0.041082
-0.0403699
-0.0396949
-0.039055
-0.039055
-0.0360307
-0.0355634
-0.0351181
-0.03472
-0.0343208
-0.0339458
-0.0335936
-0.0332629
-0.0329538
-0.0326662
-0.0324006
-0.0321576
-0.0319379
-0.0317429
-0.031574
-0.0314337
-0.0313215
-0.0312503
-0.0311954
-0.0312287
)
;
    }
    procBoundary13to14
    {
        type            processor;
        value           nonuniform List<scalar> 
35
(
-0.212546
-0.208479
-0.204346
-0.200165
-0.195944
-0.191695
-0.187425
-0.183143
-0.178858
-0.174579
-0.170314
-0.166074
-0.161866
-0.157702
-0.153591
-0.149545
-0.145574
-0.14169
-0.137903
-0.134227
-0.130672
-0.12725
-0.123972
-0.120851
-0.117899
-0.115128
-0.112551
-0.110182
-0.108035
-0.106127
-0.104476
-0.1031
-0.102024
-0.101274
-0.100879
)
;
    }
}


// ************************************************************************* //
