/*--------------------------------*- C++ -*----------------------------------*\
  =========                 |
  \\      /  F ield         | OpenFOAM: The Open Source CFD Toolbox
   \\    /   O peration     | Website:  https://openfoam.org
    \\  /    A nd           | Version:  7
     \\/     M anipulation  |
\*---------------------------------------------------------------------------*/
FoamFile
{
    version     2.0;
    format      ascii;
    class       surfaceScalarField;
    location    "80";
    object      phi;
}
// * * * * * * * * * * * * * * * * * * * * * * * * * * * * * * * * * * * * * //

dimensions      [0 3 -1 0 0 0 0];

internalField   nonuniform List<scalar> 
3878
(
0.0060051
-0.00176821
0.0061233
-0.00168578
0.00623751
-0.00160149
-0.00140526
0.00609475
0.00634754
-0.00151529
-0.00132158
0.00619703
0.00645331
-0.00142735
-0.00113837
0.006045
-0.0012363
0.00629496
0.00655476
-0.00133776
-0.00105594
0.00613476
-0.00114948
0.0063885
0.00665185
-0.00124657
-0.000972065
0.00622023
-0.00106118
0.00647761
0.00674451
-0.00115383
-0.00080568
0.00605237
-0.000886807
0.00630136
-0.000971443
0.00656225
0.00683268
-0.00105961
-0.000723496
0.00612566
-0.000800222
0.00637808
-0.000880339
0.00664237
0.00691628
-0.000963947
-0.000640088
0.00619468
-0.000712367
0.00645036
-0.000787922
0.00671792
0.00699527
-0.000866909
-0.000555512
0.00625935
-0.000623299
0.00651815
-0.000694249
0.00678887
0.00706957
-0.00076855
-0.000409527
0.00607122
-0.00046982
0.00631965
-0.000533076
0.00658141
-0.000599376
0.00685517
0.00713913
-0.000668928
-0.000327199
0.00612429
-0.000383066
0.00637551
-0.000441753
0.00664009
-0.000503363
0.00691678
0.00720387
-0.000568105
-0.000243903
0.00617306
-0.000295305
0.00642692
-0.000349386
0.00669417
-0.000406273
0.00697367
0.00726374
-0.000466142
-0.000159691
0.00621748
-0.00020659
0.00647382
-0.00025603
0.00674361
-0.00030817
0.00702581
0.00731868
-0.000363109
-7.46153e-05
0.00625752
-0.000116978
0.00651618
-0.000161732
0.00678837
-0.000209121
0.0070732
0.00736863
-0.000259077
1.12663e-05
0.00629316
-2.65391e-05
0.00655398
-6.65421e-05
0.00682837
-0.000109152
0.00711581
0.00741366
-0.000154177
0.000129122
9.79183e-05
6.47033e-05
0.0065872
2.94597e-05
0.00686361
-7.78143e-06
0.00715305
0.00745461
-4.87293e-05
0.000156671
0.000126154
9.34371e-05
5.82431e-05
-0.00471733
0.00162103
0.00475808
-0.00469422
0.00152287
-0.00467622
0.0015214
-0.00466676
0.00142773
-0.00466441
0.00138855
-0.00466616
0.00129896
-0.00467304
0.00123993
-0.00468233
0.00115286
-0.00469472
0.0010847
-0.00470832
0.00100044
-0.00472343
0.000929661
-0.00473882
0.000849414
-0.00475457
0.000779938
-0.00476988
0.000704793
-0.00478478
0.000638851
-0.00479876
0.000569382
-0.00481185
0.000507949
-0.00482371
0.000443995
-0.00483439
0.000386852
-0.00484366
0.000327363
-0.00485158
0.000273106
-0.00485793
0.000215616
-0.00486272
0.000160731
-0.00486573
9.9754e-05
3.61907e-05
-0.00492083
0.00158055
0.0049613
-0.00489593
0.00149797
-0.00487479
0.00150026
-0.00486276
0.00141571
-0.00485698
0.00138277
-0.00485618
0.00129816
-0.00486046
0.00124421
-0.00486763
0.00116003
-0.00487812
0.00109519
-0.00489016
0.00101248
-0.00490396
0.000943464
-0.00491827
0.000863726
-0.00493317
0.000794837
-0.0049478
0.000719426
-0.0049622
0.000653242
-0.00497578
0.000582966
-0.00498858
0.000520748
-0.00500022
0.00045564
-0.00501076
0.000397389
-0.00501993
0.000336532
-0.00502778
0.000280953
-0.00503409
0.000221924
-0.00503885
0.000165499
-0.00504184
0.000102742
3.72821e-05
-0.0051321
0.00154088
0.00517177
-0.00510472
0.00147059
-0.00508111
0.00147665
-0.00506662
0.00140122
-0.00505762
0.00137377
-0.00505429
0.00129483
-0.00505586
0.00124578
-0.00506083
0.001165
-0.00506927
0.00110363
-0.0050796
0.0010228
-0.00509192
0.000955793
-0.00510502
0.000876818
-0.00511892
0.000808737
-0.00513274
0.000733248
-0.0051465
0.000666998
-0.00515958
0.000596047
-0.005172
0.000533169
-0.00518335
0.000466995
-0.00519368
0.000407715
-0.00520269
0.000345544
-0.00521043
0.000288691
-0.00521666
0.000228153
-0.00522138
0.000170218
-0.00522433
0.000105699
3.83627e-05
-0.00535079
0.00150159
0.00539009
-0.00532122
0.00144102
-0.00529549
0.00145091
-0.00527851
0.00138425
-0.00526652
0.00136178
-0.00526064
0.00128894
-0.00525945
0.00124459
-0.00526214
0.00116769
-0.00526837
0.00110987
-0.00527686
0.00103129
-0.00528755
0.000966486
-0.00529928
0.000888549
-0.00531204
0.000821494
-0.00532492
0.000746131
-0.00533792
0.000679998
-0.00535039
0.00060852
-0.00536234
0.000545118
-0.00537333
0.000477978
-0.00538337
0.000417765
-0.00539217
0.000354343
-0.00539976
0.000296277
-0.00540587
0.000234268
-0.00541052
0.000174865
-0.00541343
0.00010861
3.94283e-05
-0.00557705
0.00146207
0.00561656
-0.00554568
0.00140966
-0.00551807
0.0014233
-0.00549862
0.00136479
-0.00548385
0.00134701
-0.00547538
0.00128047
-0.00547141
0.00124063
-0.00547174
0.00116802
-0.00547564
0.00111377
-0.00548217
0.00103782
-0.00549107
0.00097539
-0.00550131
0.000898785
-0.00551278
0.000832962
-0.0055246
0.00075795
-0.00553672
0.000692121
-0.00554848
0.000620278
-0.00555986
0.000556502
-0.00557039
0.00048851
-0.0055801
0.000427467
-0.00558863
0.000362871
-0.00559601
0.000303664
-0.00560198
0.000240234
-0.00560653
0.000179414
-0.00560938
0.000111459
4.04738e-05
-0.0058112
0.00142201
0.00585126
-0.00577829
0.00137675
-0.00574897
0.00139398
-0.00572712
0.00134294
-0.00570975
0.00132963
-0.00569867
0.0012694
-0.00569196
0.00123392
-0.00568984
0.0011659
-0.00569132
0.00111525
-0.00569578
0.00104228
-0.00570275
0.000982365
-0.00571137
0.000907402
-0.00572141
0.000843001
-0.00573204
0.000768583
-0.00574317
0.000703244
-0.00575411
0.000631219
-0.00576483
0.000567222
-0.00577482
0.000498508
-0.00578411
0.000436751
-0.00579231
0.000371068
-0.00579944
0.000310804
-0.00580522
0.000246013
-0.00580965
0.000183838
-0.00581242
0.000114229
4.14934e-05
-0.00605354
0.0013813
0.00609425
-0.00601926
0.00134247
-0.00598832
0.00136304
-0.0059642
0.00131883
-0.00594437
0.0013098
-0.0059307
0.00125572
-0.00592128
0.0012245
-0.00591666
0.00116128
-0.00591565
0.00111424
-0.00591794
0.00104457
-0.00592286
0.000987289
-0.00592974
0.000914278
-0.00593821
0.000851475
-0.00594754
0.000777911
-0.00595754
0.000713243
-0.00596755
0.000641236
-0.00597751
0.000577176
-0.00598689
0.000507886
-0.00599568
0.000445539
-0.00600348
0.000378873
-0.00601032
0.000317643
-0.00601587
0.000251564
-0.00602014
0.000188107
-0.00602281
0.000116901
4.24808e-05
-0.0063043
0.00133993
0.00634566
-0.00626878
0.00130695
-0.00623629
0.00133055
-0.00621005
0.00129258
-0.00618789
0.00128765
-0.00617166
0.00123949
-0.00615959
0.00121244
-0.00615242
0.00115411
-0.00614888
0.00111069
-0.0061489
0.00104459
-0.00615167
0.000990057
-0.00615669
0.000919298
-0.00616347
0.000858257
-0.00617138
0.000785815
-0.00618013
0.000721995
-0.00618912
0.000650223
-0.0061982
0.00058626
-0.00620687
0.000516557
-0.00621508
0.000453751
-0.00622243
0.000386218
-0.00622891
0.000324125
-0.00623419
0.000256844
-0.00623827
0.000192188
-0.00624082
0.000119455
4.34286e-05
-0.00656365
0.00129795
0.00660563
-0.00652703
0.00127032
-0.00649307
0.00129659
-0.00646484
0.00126436
-0.00644048
0.00126328
-0.00642176
0.00122077
-0.00640711
0.00119779
-0.00639737
0.00114438
-0.00639128
0.0011046
-0.00638896
0.00104227
-0.00638948
0.000990581
-0.00639253
0.000922352
-0.0063975
0.000863226
-0.00640387
0.000792178
-0.00641125
0.000729377
-0.00641909
0.000658069
-0.0064272
0.000594365
-0.00643507
0.000524428
-0.00644262
0.000461299
-0.00644944
0.000393034
-0.0064555
0.000330188
-0.00646046
0.000261806
-0.00646432
0.000196044
-0.00646673
0.000121869
4.4329e-05
-0.00683183
0.00125541
0.00687437
-0.0067942
0.0012327
-0.00675886
0.00126125
-0.00672881
0.00123431
-0.00670233
0.0012368
-0.00668122
0.00119965
-0.00666406
0.00118063
-0.00665176
0.00113208
-0.0066431
0.00109595
-0.00663837
0.00103753
-0.00663658
0.000988787
-0.00663756
0.000923335
-0.00664061
0.000866271
-0.00664531
0.000796885
-0.0066512
0.000735269
-0.0066578
0.000664665
-0.00666482
0.000601382
-0.00667179
0.000531405
-0.00667859
0.000468095
-0.0066848
0.000399248
-0.00669038
0.000335768
-0.00669498
0.000266401
-0.00669857
0.000199636
-0.00670082
0.000124121
4.5173e-05
-0.00710904
0.00121237
0.00715207
-0.00707052
0.00119418
-0.00703389
0.00122463
-0.00700215
0.00120256
-0.00697368
0.00120833
-0.00695028
0.00117625
-0.00693067
0.00116102
-0.00691584
0.00111724
-0.00690463
0.00108474
-0.00689744
0.00103034
-0.00689327
0.000984616
-0.00689208
0.000922152
-0.0068931
0.000867291
-0.00689604
0.000799819
-0.00690032
0.000739553
-0.00690555
0.000669897
-0.00691137
0.000607198
-0.00691735
0.000537389
-0.0069233
0.000474044
-0.00692884
0.000404783
-0.00693386
0.000340793
-0.00693804
0.000270577
-0.00694132
0.000202923
-0.00694339
0.000126186
4.5951e-05
-0.00739552
0.00116892
0.00743897
-0.0073562
0.00115486
-0.0073184
0.00118684
-0.00728511
0.00116927
-0.00725475
0.00117798
-0.00722918
0.00115068
-0.0072072
0.00113905
-0.00718988
0.00109991
-0.00717613
0.001071
-0.00716645
0.00102065
-0.00715985
0.000978019
-0.00715641
0.000918717
-0.00715532
0.000866192
-0.00715637
0.00080087
-0.00715893
0.000742116
-0.00716268
0.000673651
-0.00716719
0.0006117
-0.00717208
0.000542279
-0.00717708
0.00047905
-0.00718185
0.000409556
-0.00718625
0.000345192
-0.00718995
0.000274278
-0.00719289
0.00020586
-0.00719474
0.000128038
4.66526e-05
-0.00769152
0.00112513
0.00773531
-0.0076515
0.00111483
-0.00761264
0.00114798
-0.00757791
0.00113454
-0.0075458
0.00114587
-0.00751816
0.00112304
-0.00749391
0.00111479
-0.00747414
0.00108015
-0.00745789
0.00105474
-0.00744569
0.00100846
-0.00743663
0.000968961
-0.00743088
0.000912958
-0.00742757
0.00086289
-0.00742664
0.000799933
-0.00742737
0.000742849
-0.00742953
0.000675814
-0.00743261
0.000614777
-0.0074363
0.000545968
-0.00744026
0.000483012
-0.00744419
0.000413483
-0.00744788
0.000348887
-0.00745105
0.000277445
-0.00745359
0.000208399
-0.0074552
0.00012965
4.72664e-05
-0.00799732
0.00108108
0.00804138
-0.00795668
0.00107419
-0.00791687
0.00110818
-0.00788083
0.00109849
-0.00784707
0.0011121
-0.00781749
0.00109346
-0.00779104
0.00108835
-0.00776891
0.00105801
-0.00775018
0.00103601
-0.00773548
0.000993762
-0.00772393
0.000957415
-0.00771579
0.000904812
-0.00771021
0.00085731
-0.00770718
0.000796908
-0.00770598
0.000741648
-0.00770644
0.000676271
-0.00770798
0.000616317
-0.00771036
0.00054835
-0.00771318
0.00048583
-0.00771617
0.000416475
-0.00771908
0.0003518
-0.00772166
0.000280016
-0.00772375
0.00021049
-0.00772509
0.000130994
4.77806e-05
-0.00831321
0.00103684
0.00835745
-0.00827202
0.00103301
-0.00823137
0.00106752
-0.00819413
0.00106125
-0.00815884
0.00107682
-0.00812742
0.00106204
-0.00809889
0.00105982
-0.00807446
0.00103359
-0.0080533
0.00101485
-0.00803611
0.00097657
-0.00802206
0.000943368
-0.00801148
0.000894232
-0.00800356
0.000849385
-0.00799835
0.000791702
-0.00799512
0.000738413
-0.00799376
0.000674914
-0.00799365
0.00061621
-0.00799462
0.000549318
-0.00799619
0.000487403
-0.00799816
0.000418442
-0.00800021
0.000353848
-0.00800212
0.000281927
-0.00800371
0.000212081
-0.00800476
0.000132039
4.81826e-05
-0.00863947
0.00099247
0.00868384
-0.00859783
0.00099136
-0.00855643
0.00102612
-0.00851808
0.00102291
-0.00848139
0.00104012
-0.00844824
0.0010289
-0.00841772
0.0010293
-0.00839108
0.00100695
-0.00836755
0.000991315
-0.00834789
0.00095691
-0.00833134
0.000926817
-0.00831829
0.000881182
-0.00830796
0.000839061
-0.0083005
0.000784234
-0.00829514
0.000733056
-0.00829186
0.000671634
-0.00829
0.000614352
-0.00828944
0.000548761
-0.00828967
0.000487627
-0.00829051
0.000419289
-0.00829162
0.000354949
-0.0082928
0.000283111
-0.00829384
0.000213119
-0.00829455
0.000132753
4.84592e-05
-0.00897644
0.000948034
0.00902088
-0.0089344
0.000949319
-0.00889234
0.000984064
-0.008853
0.000983564
-0.008815
0.00100212
-0.00878024
0.000994142
-0.00874783
0.000996883
-0.00871906
0.000978181
-0.00869322
0.000965472
-0.00867113
0.000934818
-0.00865208
0.00090777
-0.00863654
0.00086564
-0.00862377
0.000826291
-0.00861397
0.000774432
-0.0086064
0.00072549
-0.0086011
0.000666331
-0.00859739
0.000610638
-0.0085952
0.000546573
-0.00859397
0.000486402
-0.00859361
0.000418921
-0.00859367
0.000355018
-0.00859406
0.000283498
-0.00859449
0.000213548
-0.00859484
0.000133103
4.85971e-05
-0.00932444
0.000903577
0.0093689
-0.00928207
0.000906945
-0.00923943
0.00094143
-0.00919918
0.000943315
-0.00915999
0.000962921
-0.00912371
0.00095787
-0.00908952
0.000962685
-0.00905871
0.000947376
-0.00903063
0.000937391
-0.00900615
0.000910338
-0.00898463
0.000886248
-0.00896658
0.000847594
-0.00895133
0.000811042
-0.00893913
0.000762234
-0.00892928
0.00071564
-0.00892186
0.000658911
-0.0089162
0.000604973
-0.00891227
0.000542648
-0.0089095
0.000483627
-0.00890782
0.000417242
-0.00890677
0.00035397
-0.00890629
0.000283015
-0.00890605
0.000213313
-0.00890601
0.000133055
4.85826e-05
-0.00968382
0.000859137
0.00972826
-0.00964117
0.00086429
-0.00959803
0.000898291
-0.00955696
0.000902241
-0.00951666
0.000922627
-0.00947898
0.000920184
-0.00944309
0.000926802
-0.00941034
0.000914618
-0.00938009
0.000907148
-0.00935328
0.000883523
-0.00932931
0.000862278
-0.00930876
0.000827044
-0.00929101
0.00079329
-0.00927636
0.000747589
-0.00926416
0.000703439
-0.00925453
0.000649285
-0.00924682
0.000597262
-0.00924106
0.000536883
-0.00923664
0.000479206
-0.00923355
0.000414155
-0.0092313
0.000351721
-0.00922988
0.00028159
-0.00922892
0.000212356
-0.00922844
0.000132572
4.84019e-05
-0.010055
0.000814745
0.0100993
-0.0100121
0.000821399
-0.00996849
0.000854713
-0.00992666
0.000860419
-0.00988536
0.000881326
-0.00984636
0.000881177
-0.00980888
0.000889331
-0.00977426
0.000879997
-0.00974194
0.00087482
-0.00971284
0.00085443
-0.00968646
0.000835899
-0.00966342
0.000804001
-0.00964315
0.000773021
-0.00962602
0.000730457
-0.00961141
0.000688828
-0.0095995
0.000637377
-0.00958966
0.000587419
-0.00958196
0.000529182
-0.0095758
0.000473044
-0.00957121
0.000409565
-0.00956767
0.000348189
-0.00956523
0.000279149
-0.0095635
0.000210623
-0.00956254
0.000131618
4.80414e-05
-0.0104382
0.000770423
0.0104825
-0.0103951
0.000778309
-0.0103512
0.000810749
-0.0103087
0.000817916
-0.0102664
0.000839097
-0.0102262
0.000840937
-0.0101872
0.000850364
-0.0101508
0.000843601
-0.0101165
0.000840488
-0.0100852
0.000823121
-0.0100564
0.000807156
-0.0100309
0.000778484
-0.0100081
0.000750233
-0.0099885
0.000710809
-0.00997143
0.000671761
-0.00995717
0.000623116
-0.00994511
0.000575366
-0.00993539
0.000519453
-0.00992739
0.000465051
-0.00992121
0.00040338
-0.00991631
0.00034329
-0.00991278
0.000275616
-0.00991021
0.000208058
-0.00990875
0.000130155
4.74879e-05
-0.010834
0.000726184
0.0108783
-0.0107908
0.000735045
-0.0107465
0.000766442
-0.0107033
0.000774789
-0.0106603
0.000796012
-0.0106189
0.000799542
-0.0105785
0.000809988
-0.0105404
0.000805512
-0.0105041
0.000804232
-0.0104707
0.000789663
-0.0104396
0.000776098
-0.0104117
0.000750522
-0.0103864
0.000724932
-0.0103642
0.000688627
-0.0103446
0.000652198
-0.0103279
0.000606443
-0.0103136
0.000561031
-0.0103018
0.000507612
-0.0102919
0.000455142
-0.010284
0.000395511
-0.0102776
0.000336947
-0.0102729
0.00027092
-0.0102695
0.000204606
-0.0102675
0.000128146
4.67285e-05
-0.0112428
0.000682032
0.011287
-0.0111994
0.000691627
-0.0111548
0.000721827
-0.0111111
0.000731085
-0.0110672
0.000752133
-0.0110247
0.000757065
-0.010983
0.000768281
-0.0109433
0.000765811
-0.0109052
0.000766128
-0.0108697
0.000754123
-0.0108364
0.000742781
-0.010806
0.000720148
-0.0107782
0.000697135
-0.0107535
0.000663902
-0.0107314
0.000630111
-0.0107122
0.000587309
-0.0106956
0.000544352
-0.0106815
0.000493581
-0.0106696
0.000443236
-0.01066
0.000385873
-0.0106521
0.000329084
-0.0106462
0.00026499
-0.0106418
0.000200216
-0.0106392
0.000125551
4.57509e-05
-0.011665
0.000637961
0.0117091
-0.0116215
0.000648064
-0.0115766
0.000676925
-0.0115323
0.000686843
-0.0114877
0.000707511
-0.0114442
0.000713567
-0.0114012
0.000725314
-0.01136
0.000724572
-0.0113201
0.000726252
-0.0112826
0.000716567
-0.011247
0.00070726
-0.0112143
0.000687402
-0.011184
0.000666862
-0.0111568
0.000636636
-0.0111321
0.000605482
-0.0111105
0.000565675
-0.0110914
0.000525275
-0.0110751
0.000477294
-0.0110612
0.000429262
-0.0110497
0.000374389
-0.0110402
0.000319628
-0.011033
0.000257757
-0.0110276
0.000194837
-0.0110244
0.000122334
4.45437e-05
-0.0121011
0.000593958
0.0121451
-0.0120574
0.000604356
-0.0120122
0.000631749
-0.0119675
0.000642088
-0.0119222
0.000662184
-0.0118777
0.0006691
-0.0118335
0.000681148
-0.0117908
0.000681861
-0.0117492
0.00068467
-0.0117097
0.00067706
-0.0116721
0.000669594
-0.011637
0.000652329
-0.0116043
0.000634142
-0.0115745
0.000606836
-0.0115473
0.000578302
-0.0115231
0.000541512
-0.0115016
0.000503757
-0.011483
0.000458692
-0.0114669
0.000413155
-0.0114535
0.000360988
-0.0114424
0.000308514
-0.0114338
0.000249159
-0.0114274
0.000188421
-0.0114235
0.000118459
4.3096e-05
-0.0125516
0.000549999
0.0125956
-0.0125078
0.000560492
-0.0124623
0.000586301
-0.0124171
0.000596836
-0.0123711
0.000616182
-0.0123257
0.000623704
-0.0122804
0.000635834
-0.0122362
0.000637737
-0.012193
0.000641445
-0.0121516
0.000635663
-0.0121119
0.000629836
-0.0120745
0.000614974
-0.0120394
0.000599009
-0.0120071
0.00057452
-0.0119773
0.000548569
-0.0119506
0.000514802
-0.0119266
0.000479763
-0.0119057
0.000437728
-0.0118874
0.000394859
-0.011872
0.000345608
-0.0118591
0.000295682
-0.0118491
0.000239139
-0.0118416
0.000180925
-0.0118371
0.000113893
4.1398e-05
-0.0130171
0.00050605
0.013061
-0.0129731
0.000516451
-0.0129273
0.000540568
-0.0128816
0.000551088
-0.0128349
0.000569518
-0.0127886
0.000577406
-0.0127422
0.000589408
-0.0126967
0.000592245
-0.0126519
0.000596629
-0.0126086
0.000592429
-0.0125669
0.000588041
-0.0125273
0.000575383
-0.0124897
0.000561497
-0.0124549
0.000539708
-0.0124227
0.000516291
-0.0123934
0.000485534
-0.0123669
0.000453269
-0.0123435
0.000414364
-0.012323
0.000374328
-0.0123056
0.000328196
-0.012291
0.000281078
-0.0122795
0.000227646
-0.0122709
0.000172309
-0.0122656
0.000108607
3.94408e-05
-0.0134981
0.000462067
0.013542
-0.0134538
0.0004722
-0.0134078
0.000494527
-0.0133615
0.000504836
-0.0133142
0.000522193
-0.013267
0.000530221
-0.0132195
0.000541898
-0.0131727
0.000545422
-0.0131263
0.000550265
-0.0130813
0.000547407
-0.0130375
0.000544254
-0.0129957
0.000533599
-0.0129559
0.000521644
-0.0129186
0.000502428
-0.0128838
0.000481483
-0.0128519
0.000453709
-0.0128229
0.000424262
-0.0127971
0.000388573
-0.0127743
0.000351526
-0.0127549
0.000308709
-0.0127384
0.000264659
-0.0127254
0.000214636
-0.0127157
0.000162538
-0.0127096
0.000102573
3.72167e-05
-0.0139951
0.000417994
0.0140392
-0.0139506
0.000427695
-0.0139042
0.00044814
-0.0138574
0.000458054
-0.0138094
0.000474193
-0.0137614
0.000482149
-0.0137128
0.000493312
-0.0136646
0.000497291
-0.0136168
0.000502384
-0.01357
0.000500635
-0.0135243
0.000498518
-0.0134803
0.000489663
-0.0134382
0.000479486
-0.0133984
0.000462709
-0.0133611
0.000444162
-0.0133267
0.000419335
-0.0132952
0.000392739
-0.013267
0.000360341
-0.0132419
0.000326427
-0.0132203
0.000287115
-0.013202
0.000246391
-0.0131875
0.000200077
-0.0131765
0.000151583
-0.0131697
9.577e-05
3.47192e-05
-0.0145089
0.000373762
0.0145531
-0.0144641
0.000382877
-0.0144173
0.000401356
-0.01437
0.000410702
-0.0143213
0.000425489
-0.0142723
0.000433171
-0.0142226
0.000443646
-0.0141732
0.000447858
-0.0141238
0.000453002
-0.0140753
0.000452137
-0.0140276
0.000450863
-0.0139816
0.000443611
-0.0139372
0.000435056
-0.013895
0.000420581
-0.0138552
0.000404353
-0.0138183
0.000382426
-0.0137843
0.000358703
-0.0137536
0.000329663
-0.0137262
0.000299021
-0.0137025
0.000263396
-0.0136823
0.00022625
-0.0136662
0.000183943
-0.013654
0.000139424
-0.0136465
8.81823e-05
3.19436e-05
-0.0150401
0.000329286
0.0150846
-0.0149949
0.000337672
-0.0149477
0.000354104
-0.0148997
0.000362724
-0.0148502
0.000376031
-0.0148003
0.000383256
-0.0147495
0.000392877
-0.0146988
0.000397114
-0.0146479
0.000402122
-0.0145977
0.000401928
-0.0145482
0.00040131
-0.0145
0.000395469
-0.0144533
0.000388386
-0.0144088
0.000376074
-0.0143666
0.000362083
-0.0143272
0.000343007
-0.0142906
0.000322171
-0.0142575
0.000296546
-0.0142278
0.000269307
-0.0142019
0.000237545
-0.0141799
0.000204226
-0.0141622
0.000166222
-0.0141488
0.000126048
-0.0141404
7.98003e-05
2.88869e-05
-0.0155895
0.000284468
0.0156343
-0.0155438
0.00029199
-0.015496
0.0003063
-0.0154473
0.000314045
-0.015397
0.000325754
-0.0153461
0.000332348
-0.0152942
0.000340962
-0.0152421
0.000345032
-0.0151897
0.000349728
-0.0151378
0.000350005
-0.0150863
0.000349868
-0.0150361
0.000345255
-0.0149872
0.000339498
-0.0149404
0.000329218
-0.0148957
0.000317382
-0.0148538
0.000301104
-0.0148148
0.000283168
-0.0147792
0.000261012
-0.0147472
0.000237298
-0.0147193
0.000209572
-0.0146954
0.000180324
-0.0146761
0.000146916
-0.0146615
0.000111452
-0.0146523
7.06216e-05
2.55484e-05
-0.0161577
0.000239188
0.0162029
-0.0161114
0.000245722
-0.0160629
0.000257834
-0.0160134
0.000264568
-0.0159623
0.000274567
-0.0159103
0.000280373
-0.0158572
0.000287837
-0.0158037
0.000291563
-0.0157497
0.000295785
-0.0156961
0.000296349
-0.0156428
0.00029653
-0.0155905
0.000292978
-0.0155394
0.000288411
-0.0154902
0.000280039
-0.0154431
0.000270281
-0.0153988
0.000256753
-0.0153573
0.000241728
-0.0153194
0.000223093
-0.0152851
0.000203024
-0.0152551
0.000179501
-0.0152293
0.000154563
-0.0152084
0.000126038
-0.0151926
9.56482e-05
-0.0151826
6.06524e-05
2.19303e-05
-0.0167455
0.000193308
0.0167914
-0.0166985
0.000198735
-0.0166493
0.000208577
-0.0165989
0.000214172
-0.0165467
0.000222359
-0.0164935
0.000227231
-0.0164391
0.000233416
-0.0163842
0.000236637
-0.0163286
0.000240237
-0.0162732
0.000240923
-0.0162179
0.000241275
-0.0161636
0.000238632
-0.0161103
0.000235133
-0.0160588
0.000228559
-0.0160094
0.000220812
-0.0159626
0.000209994
-0.0159188
0.000197896
-0.0158785
0.000182835
-0.015842
0.000166531
-0.0158099
0.000147375
-0.0157823
0.00012698
-0.0157599
0.000103622
-0.0157429
7.86587e-05
-0.0157322
4.99083e-05
1.80377e-05
-0.0173538
0.00014666
0.0174005
-0.017306
0.000150871
-0.0172558
0.000158371
-0.0172043
0.000162712
-0.0171509
0.000168988
-0.0170965
0.000172798
-0.0170407
0.000177583
-0.0169842
0.000180157
-0.016927
0.000183004
-0.0168697
0.000183667
-0.0168125
0.000184062
-0.0167561
0.0001822
-0.0167006
0.000179666
-0.0166468
0.000174799
-0.016595
0.00016901
-0.0165459
0.000160877
-0.0164997
0.000151727
-0.0164572
0.000140304
-0.0164186
0.000127883
-0.0163844
0.000113259
-0.0163551
9.76344e-05
-0.0163312
7.97185e-05
-0.0163131
6.05242e-05
-0.0163016
3.84163e-05
1.38799e-05
-0.0179835
9.90449e-05
0.0180311
-0.0179345
0.000101942
-0.0178832
0.000107027
-0.0178305
0.000110012
-0.0177758
0.000114285
-0.0177199
0.000116916
-0.0176625
0.000120195
-0.0176044
0.000121999
-0.0175453
0.000123982
-0.0174862
0.000124502
-0.017427
0.000124834
-0.0173684
0.000123649
-0.0173107
0.000122
-0.0172547
0.000118776
-0.0172006
0.000114912
-0.0171492
0.000109457
-0.0171008
0.000103295
-0.017056
9.55808e-05
-0.0170153
8.71661e-05
-0.0169793
7.72415e-05
-0.0169483
6.66092e-05
-0.016923
5.44034e-05
-0.0169037
4.13041e-05
-0.0168915
2.62166e-05
9.47043e-06
-0.0186353
5.02074e-05
0.0186841
-0.0185851
5.17383e-05
-0.0185324
5.43333e-05
-0.0184782
5.58603e-05
-0.018422
5.80418e-05
-0.0183644
5.93922e-05
-0.0183053
6.10738e-05
-0.0182453
6.20089e-05
-0.0181844
6.30363e-05
-0.0181232
6.33227e-05
-0.0180619
6.3515e-05
-0.0180012
6.29365e-05
-0.0179413
6.21228e-05
-0.017883
6.0506e-05
-0.0178267
5.85635e-05
-0.017773
5.58064e-05
-0.0177224
5.26876e-05
-0.0176756
4.87718e-05
-0.0176329
4.44954e-05
-0.0175951
3.94391e-05
-0.0175625
3.40168e-05
-0.0175359
2.77789e-05
-0.0175157
2.10821e-05
-0.0175028
1.33645e-05
4.82889e-06
-0.0193101
0.0193603
-0.0192584
-0.019204
-0.0191482
-0.0190901
-0.0190307
-0.0189697
-0.0189077
-0.0188446
-0.0187813
-0.0187178
-0.0186548
-0.0185927
-0.0185322
-0.0184737
-0.0184178
-0.0183652
-0.0183164
-0.0182719
-0.0182325
-0.0181984
-0.0181707
-0.0181496
-0.0181362
0.000149018
-0.00452484
0.000132057
-0.00468211
0.000115896
-0.00484703
0.000100439
-0.00501915
8.54112e-05
-0.00519788
7.11032e-05
-0.00538377
5.74535e-05
-0.00557639
-0.00577592
4.12463e-05
-0.00450784
2.50549e-05
-0.00466592
9.48112e-06
-0.00483145
-5.04628e-06
-0.00500463
-1.80146e-05
-0.00518491
-3.05103e-05
-0.00537127
-4.24052e-05
-0.0055645
-5.36651e-05
-0.00576466
-6.42632e-05
-0.00597196
-7.41759e-05
-0.00618664
-8.33835e-05
-0.00640892
-9.17871e-05
-0.00663909
-9.97405e-05
-0.00687761
-0.00010681
-0.00712426
-0.000113131
-0.0073796
-0.000118683
-0.00764392
-0.000123456
-0.00791751
-0.000127443
-0.0082007
-0.000130632
-0.00849382
-0.000133013
-0.00879722
-0.000134573
-0.00911124
-0.000135286
-0.00943626
-0.0001352
-0.00977276
-0.000134269
-0.010121
-0.000132468
-0.0104815
-0.000129799
-0.0108547
-0.000126256
-0.0112411
-0.000121833
-0.0116411
-0.000116524
-0.0120554
-0.000110324
-0.0124845
-0.000103231
-0.0129291
-9.52425e-05
-0.0133897
-8.63607e-05
-0.0138671
-7.65887e-05
-0.014362
-6.59331e-05
-0.0148752
-5.44066e-05
-0.0154076
-4.20223e-05
-0.0159601
-2.88094e-05
-0.0165337
-1.47954e-05
-0.0171294
-0.0177487
-6.44307e-05
-0.00449214
-7.91385e-05
-0.00465121
-9.29015e-05
-0.00481769
-0.000105848
-0.00499168
-0.000118261
-0.0051725
-0.000129772
-0.00535976
-0.000140519
-0.00555375
-0.000150492
-0.00575468
-0.000159683
-0.00596277
-0.000168084
-0.00617824
-0.000175674
-0.00640133
-0.000182427
-0.00663234
-0.000188497
-0.00687154
-0.000193686
-0.00711907
-0.000198018
-0.00737527
-0.000201491
-0.00764044
-0.000204093
-0.00791491
-0.000205813
-0.00819898
-0.000206639
-0.008493
-0.00020656
-0.00879729
-0.00020556
-0.00911223
-0.000203623
-0.0094382
-0.000200766
-0.00977561
-0.000196959
-0.0101248
-0.000192181
-0.0104863
-0.000186425
-0.0108605
-0.000179681
-0.0112478
-0.000171941
-0.0116489
-0.000163196
-0.0120642
-0.000153439
-0.0124943
-0.000142664
-0.0129399
-0.000130865
-0.0134015
-0.000118039
-0.0138799
-0.000104187
-0.0143758
-8.93111e-05
-0.01489
-7.34186e-05
-0.0154235
-5.65188e-05
-0.015977
-3.86354e-05
-0.0165516
-1.97898e-05
-0.0171482
-0.0177685
-0.000168792
-0.00447753
-0.000182667
-0.00463734
-0.000195476
-0.00480488
-0.00020739
-0.00497976
-0.00021856
-0.00516133
-0.000228862
-0.00534946
-0.000238305
-0.00554431
-0.000246894
-0.00574609
-0.000254621
-0.00595504
-0.000261474
-0.00617139
-0.000267438
-0.00639537
-0.000272512
-0.00662726
-0.000276729
-0.00686732
-0.000280023
-0.00711578
-0.000282374
-0.00737291
-0.000283777
-0.00763904
-0.000284218
-0.00791447
-0.000283684
-0.00819952
-0.000282162
-0.00849452
-0.000279637
-0.00879982
-0.000276094
-0.00911578
-0.000271518
-0.00944278
-0.00026591
-0.00978122
-0.000259247
-0.0101315
-0.00025151
-0.010494
-0.000242684
-0.0108693
-0.000232759
-0.0112577
-0.000221722
-0.0116599
-0.000209563
-0.0120763
-0.000196271
-0.0125076
-0.000181835
-0.0129543
-0.000166248
-0.0134171
-0.000149504
-0.0138966
-0.000131597
-0.0143937
-0.000112528
-0.0149091
-9.22979e-05
-0.0154437
-7.09125e-05
-0.0159984
-4.83907e-05
-0.0165741
-2.47479e-05
-0.0171719
-0.0177932
-0.000272752
-0.00446385
-0.000285613
-0.00462447
-0.000297409
-0.00479309
-0.000308246
-0.00496893
-0.0003182
-0.00515138
-0.000327254
-0.00534041
-0.000335389
-0.00553617
-0.000342595
-0.00573889
-0.000348863
-0.00594878
-0.000354178
-0.00616607
-0.000358526
-0.00639102
-0.000361906
-0.00662388
-0.000364317
-0.00686491
-0.000365728
-0.00711437
-0.000366115
-0.00737253
-0.000365464
-0.00763969
-0.000363761
-0.00791617
-0.000360991
-0.00820229
-0.000357139
-0.00849837
-0.000352187
-0.00880477
-0.00034612
-0.00912185
-0.000338922
-0.00944998
-0.000330585
-0.00978956
-0.000321089
-0.010141
-0.000310412
-0.0105047
-0.000298538
-0.0108812
-0.000285454
-0.0112708
-0.000271143
-0.0116742
-0.000255593
-0.0120919
-0.000238789
-0.0125244
-0.000220718
-0.0129724
-0.000201369
-0.0134364
-0.000180733
-0.0139173
-0.000158801
-0.0144156
-0.000135567
-0.0149323
-0.000111031
-0.0154682
-8.5194e-05
-0.0160242
-5.80687e-05
-0.0166013
-2.96661e-05
-0.0172003
-0.0178229
-0.000375884
-0.00445108
-0.000387729
-0.00461263
-0.000398477
-0.00478234
-0.000408217
-0.00495919
-0.000417
-0.00514259
-0.000424821
-0.00533259
-0.000431657
-0.00552934
-0.000437493
-0.00573305
-0.000442315
-0.00594395
-0.000446108
-0.00616228
-0.000448856
-0.00638827
-0.000450553
-0.00662219
-0.000451186
-0.00686428
-0.000450735
-0.00711482
-0.000449176
-0.00737409
-0.000446492
-0.00764238
-0.000442666
-0.00792
-0.00043768
-0.00820727
-0.000431518
-0.00850453
-0.000424162
-0.00881213
-0.000415592
-0.00913041
-0.000405793
-0.00945977
-0.000394749
-0.0098006
-0.000382442
-0.0101533
-0.000368849
-0.0105183
-0.000353951
-0.010896
-0.000337731
-0.011287
-0.000320171
-0.0116918
-0.000301255
-0.0121108
-0.000280966
-0.0125447
-0.000259287
-0.012994
-0.000236205
-0.0134595
-0.000211707
-0.0139418
-0.000185779
-0.0144416
-0.000158415
-0.0149597
-0.000129607
-0.015497
-9.93537e-05
-0.0160544
-6.7663e-05
-0.0166329
-3.4541e-05
-0.0172334
-0.0178574
-0.000478025
-0.00443919
-0.000488879
-0.00460177
-0.000498587
-0.00477263
-0.000507241
-0.00495053
-0.000514874
-0.00513496
-0.000521477
-0.00532598
-0.00052703
-0.00552378
-0.000531513
-0.00572857
-0.000534908
-0.00594056
-0.000537196
-0.00615999
-0.000538363
-0.00638711
-0.000538394
-0.00662215
-0.000537275
-0.0068654
-0.000534985
-0.00711711
-0.000531502
-0.00737757
-0.000526806
-0.00764707
-0.000520879
-0.00792592
-0.0005137
-0.00821445
-0.000505252
-0.00851298
-0.000495513
-0.00882187
-0.000484464
-0.00914146
-0.000472087
-0.00947215
-0.000458362
-0.00981433
-0.000443268
-0.0101684
-0.000426784
-0.0105348
-0.000408887
-0.0109139
-0.000389557
-0.0113064
-0.000368775
-0.0117126
-0.000346521
-0.0121331
-0.000322775
-0.0125684
-0.000297518
-0.0130193
-0.000270734
-0.0134863
-0.000242405
-0.0139701
-0.000212516
-0.0144715
-0.000181056
-0.0149912
-0.000148013
-0.0155301
-0.000113382
-0.0160891
-7.71674e-05
-0.0166692
-3.93695e-05
-0.0172712
-0.0178968
-0.000579101
-0.0044282
-0.00058898
-0.0045919
-0.00059766