/*--------------------------------*- C++ -*----------------------------------*\
  =========                 |
  \\      /  F ield         | OpenFOAM: The Open Source CFD Toolbox
   \\    /   O peration     | Website:  https://openfoam.org
    \\  /    A nd           | Version:  7
     \\/     M anipulation  |
\*---------------------------------------------------------------------------*/
FoamFile
{
    version     2.0;
    format      ascii;
    class       volScalarField;
    location    "20";
    object      p;
}
// * * * * * * * * * * * * * * * * * * * * * * * * * * * * * * * * * * * * * //

dimensions      [0 2 -2 0 0 0 0];

internalField   nonuniform List<scalar> 
5650
(
-0.313003
-0.319241
-0.320958
-0.32085
-0.319086
-0.315737
-0.313876
-0.319957
-0.321584
-0.321399
-0.319569
-0.316165
-0.315613
-0.321383
-0.322829
-0.32249
-0.320529
-0.317016
-0.318195
-0.323503
-0.324682
-0.324112
-0.321953
-0.318278
-0.313219
-0.321597
-0.326299
-0.327124
-0.326248
-0.323827
-0.319934
-0.314693
-0.325785
-0.329745
-0.330132
-0.328875
-0.326128
-0.321963
-0.316494
-0.330721
-0.333809
-0.333678
-0.331969
-0.328832
-0.324341
-0.318597
-0.336361
-0.338459
-0.337734
-0.335502
-0.331912
-0.327041
-0.320977
-0.342659
-0.343658
-0.342266
-0.339444
-0.335341
-0.330036
-0.323605
-0.349568
-0.349369
-0.347242
-0.343765
-0.339089
-0.333299
-0.326457
-0.357038
-0.355554
-0.352629
-0.348437
-0.343131
-0.336805
-0.329507
-0.32125
-0.365026
-0.362175
-0.358395
-0.35343
-0.347442
-0.340532
-0.332734
-0.324051
-0.373485
-0.369199
-0.36451
-0.358719
-0.351998
-0.344458
-0.336121
-0.326975
-0.382373
-0.376591
-0.370945
-0.364281
-0.356781
-0.34857
-0.339654
-0.33001
-0.391652
-0.38432
-0.377673
-0.370094
-0.361774
-0.352853
-0.343324
-0.333149
-0.322244
-0.401286
-0.392354
-0.384672
-0.376139
-0.366964
-0.357299
-0.347124
-0.336386
-0.324985
-0.41124
-0.400667
-0.391917
-0.3824
-0.372339
-0.361901
-0.35105
-0.339719
-0.32779
-0.421482
-0.409229
-0.399387
-0.388861
-0.37789
-0.366654
-0.3551
-0.343145
-0.330656
-0.317455
-0.431977
-0.418012
-0.407058
-0.395506
-0.383606
-0.371551
-0.359269
-0.346661
-0.333576
-0.319823
-0.44269
-0.426986
-0.414908
-0.402317
-0.389476
-0.376584
-0.363551
-0.350257
-0.336536
-0.322186
-0.307016
-0.453584
-0.436117
-0.422909
-0.409276
-0.395485
-0.381742
-0.367933
-0.353918
-0.339512
-0.32451
-0.308734
-0.464613
-0.445369
-0.431032
-0.416357
-0.401613
-0.387007
-0.372396
-0.357617
-0.342469
-0.326744
-0.310282
-0.292989
-0.475728
-0.454697
-0.439238
-0.423531
-0.407834
-0.392353
-0.37691
-0.361319
-0.345363
-0.32883
-0.31158
-0.293567
-0.275388
-0.486868
-0.464051
-0.447486
-0.430759
-0.414114
-0.397743
-0.381435
-0.364977
-0.348134
-0.330699
-0.312551
-0.293686
-0.274718
-0.497965
-0.473371
-0.455724
-0.437996
-0.420407
-0.403132
-0.385918
-0.368527
-0.350712
-0.332273
-0.313116
-0.293278
-0.273357
-0.251848
-0.508936
-0.482589
-0.463889
-0.445184
-0.426657
-0.408459
-0.390294
-0.371897
-0.353017
-0.333468
-0.313194
-0.29228
-0.271295
-0.248946
-0.234715
-0.519689
-0.491626
-0.471911
-0.452257
-0.432797
-0.413653
-0.394482
-0.374999
-0.354955
-0.334194
-0.312704
-0.290633
-0.268526
-0.245354
-0.2292
-0.530118
-0.50039
-0.479707
-0.459133
-0.438745
-0.418625
-0.398388
-0.377734
-0.356428
-0.334355
-0.311568
-0.288284
-0.26504
-0.241082
-0.223215
-0.540104
-0.50878
-0.487181
-0.465722
-0.444406
-0.423278
-0.401908
-0.379993
-0.357328
-0.333857
-0.309711
-0.285186
-0.260826
-0.236139
-0.216808
-0.549515
-0.516682
-0.494227
-0.471917
-0.449674
-0.427498
-0.404925
-0.381659
-0.357545
-0.332606
-0.307061
-0.281297
-0.255871
-0.230524
-0.209982
-0.558208
-0.523972
-0.500728
-0.477603
-0.454428
-0.43116
-0.407311
-0.38261
-0.35697
-0.33051
-0.303555
-0.276579
-0.250162
-0.224239
-0.202717
-0.566028
-0.530513
-0.506553
-0.482649
-0.458537
-0.434132
-0.408934
-0.38272
-0.355492
-0.327484
-0.299133
-0.271
-0.243687
-0.217281
-0.194987
-0.572811
-0.536162
-0.511563
-0.486919
-0.46186
-0.43627
-0.409655
-0.381863
-0.353007
-0.32345
-0.293744
-0.264535
-0.236436
-0.209648
-0.186763
-0.578386
-0.540764
-0.51561
-0.490261
-0.464248
-0.437427
-0.409337
-0.379917
-0.349416
-0.318336
-0.287347
-0.257163
-0.2284
-0.201337
-0.178023
-0.582573
-0.544158
-0.518537
-0.492523
-0.465545
-0.437453
-0.40784
-0.376765
-0.344629
-0.312082
-0.279906
-0.248868
-0.219574
-0.192348
-0.168748
-0.585191
-0.546181
-0.520182
-0.493542
-0.465593
-0.436198
-0.40503
-0.372297
-0.338565
-0.304638
-0.271394
-0.23964
-0.209957
-0.18268
-0.158924
-0.586057
-0.546663
-0.520382
-0.493155
-0.464235
-0.433514
-0.400782
-0.366413
-0.331157
-0.295961
-0.261793
-0.229474
-0.199547
-0.172337
-0.148546
-0.584989
-0.545436
-0.518971
-0.4912
-0.461314
-0.429262
-0.394978
-0.359027
-0.322346
-0.286023
-0.251092
-0.21837
-0.188351
-0.161324
-0.137609
-0.581812
-0.542336
-0.515784
-0.487517
-0.45668
-0.42331
-0.387512
-0.350063
-0.312088
-0.274802
-0.239286
-0.206332
-0.176373
-0.149647
-0.126119
-0.576355
-0.5372
-0.510663
-0.481953
-0.450193
-0.415537
-0.378294
-0.339462
-0.300353
-0.262289
-0.226379
-0.193369
-0.163625
-0.137317
-0.11408
-0.568459
-0.529876
-0.503458
-0.474362
-0.441723
-0.405839
-0.367248
-0.32718
-0.287121
-0.248484
-0.21238
-0.179496
-0.150121
-0.124346
-0.101506
-0.557979
-0.520223
-0.494028
-0.464614
-0.431155
-0.394127
-0.354317
-0.313187
-0.272387
-0.233397
-0.197307
-0.164731
-0.135876
-0.11075
-0.0884098
-0.544785
-0.508113
-0.482249
-0.452592
-0.418393
-0.380331
-0.339459
-0.297471
-0.256159
-0.217046
-0.181182
-0.149095
-0.120913
-0.0965493
-0.0748102
-0.528767
-0.493433
-0.468009
-0.438198
-0.403359
-0.364401
-0.322654
-0.280034
-0.238456
-0.199458
-0.164035
-0.132618
-0.105254
-0.0817644
-0.0607217
-0.509838
-0.476094
-0.451221
-0.421354
-0.385996
-0.346306
-0.303898
-0.260895
-0.219308
-0.18067
-0.1459
-0.11533
-0.0889313
-0.0664254
-0.0461525
-0.487933
-0.456024
-0.431817
-0.402005
-0.366271
-0.32604
-0.283208
-0.240088
-0.198759
-0.160726
-0.12682
-0.0972702
-0.0719762
-0.0505683
-0.0311382
-0.463013
-0.433177
-0.409752
-0.38012
-0.344174
-0.303616
-0.26062
-0.217661
-0.176863
-0.139679
-0.106843
-0.0784794
-0.0544221
-0.0341913
-0.0157808
-0.435069
-0.407534
-0.385009
-0.355695
-0.319721
-0.279072
-0.236186
-0.193677
-0.153683
-0.117588
-0.0860212
-0.0590065
-0.0363171
-0.0173514
-5.69123e-05
-0.404121
-0.379102
-0.357599
-0.32875
-0.292951
-0.252466
-0.209979
-0.168212
-0.129294
-0.0945224
-0.0644177
-0.0389023
-0.0177004
-9.6132e-05
0.0159995
-0.370216
-0.347918
-0.327558
-0.299337
-0.26393
-0.223878
-0.182087
-0.141357
-0.103781
-0.0705587
-0.0420948
-0.0182245
0.00137772
0.0175323
0.032345
-0.333436
-0.314046
-0.294953
-0.267529
-0.232747
-0.193409
-0.152613
-0.113211
-0.0772358
-0.0457773
-0.0191262
0.00296464
0.020863
0.0354872
0.0489335
-0.293892
-0.277582
-0.25988
-0.233433
-0.199518
-0.161178
-0.121677
-0.0838876
-0.0497604
-0.0202676
0.0044111
0.024598
0.0406973
0.0537179
0.0657153
-0.251726
-0.238649
-0.222462
-0.19718
-0.164375
-0.127319
-0.0894138
-0.05351
-0.021464
0.00587495
0.0284344
0.0466037
0.0608186
0.0721693
0.0826351
-0.20711
-0.197401
-0.182854
-0.158928
-0.127466
-0.0919947
-0.055969
-0.0222103
0.00753687
0.0325492
0.0528562
0.0689053
0.0811612
0.0907823
0.09963
-0.160242
-0.154019
-0.141232
-0.118825
-0.0889989
-0.0553728
-0.0214995
0.00987069
0.0371192
0.0596488
0.0775844
0.0914224
0.101655
0.109494
0.11663
-0.111331
-0.108724
-0.0977886
-0.0771115
-0.0491466
-0.0176362
0.0138265
0.0425847
0.0671542
0.0870629
0.102523
0.114071
0.122229
0.128241
0.13356
-0.0606278
-0.0617542
-0.0527664
-0.0339949
-0.00812242
0.0210178
0.0498325
0.0757769
0.0975085
0.114677
0.127572
0.136763
0.142813
0.146971
0.150315
-0.00847851
-0.0133158
-0.00640771
0.0102867
0.033846
0.0603822
0.0863342
0.109287
0.128044
0.142372
0.15263
0.159411
0.163349
0.165627
0.166663
0.0448692
0.036281
0.0410194
0.0554774
0.0765201
0.100241
0.123142
0.142952
0.158621
0.170029
0.177591
0.18193
0.183775
0.184079
0.18229
0.0991034
0.0867395
0.0892321
0.101309
0.119652
0.140373
0.16006
0.176602
0.189096
0.197523
0.20235
0.204234
0.203994
0.202047
0.197203
0.153889
0.137752
0.137934
0.147502
0.162986
0.180548
0.196892
0.210069
0.219323
0.224732
0.226805
0.226238
0.223869
0.219233
0.212144
0.208882
0.188996
0.186818
0.193768
0.20626
0.220538
0.233436
0.243181
0.249158
0.251531
0.250851
0.247839
0.24333
0.236629
0.228279
0.263729
0.240142
0.235567
0.239815
0.249211
0.260108
0.269494
0.275768
0.278454
0.277797
0.274379
0.268934
0.262261
0.253669
0.244125
0.31807
0.29085
0.283862
0.285347
0.291572
0.299028
0.304864
0.30766
0.307067
0.303405
0.297282
0.289433
0.280606
0.270164
0.259371
0.371546
0.34078
0.331379
0.330066
0.333079
0.337066
0.339351
0.338689
0.334856
0.328236
0.319457
0.309248
0.298304
0.286063
0.273929
0.423793
0.389591
0.377798
0.373678
0.373471
0.373996
0.372761
0.368692
0.361681
0.35217
0.340802
0.328292
0.315288
0.301308
0.287791
0.474456
0.436946
0.422801
0.415895
0.412491
0.409597
0.404904
0.397507
0.387407
0.375093
0.361221
0.346486
0.33149
0.315836
0.300934
0.523184
0.482514
0.466076
0.456434
0.449892
0.443654
0.435599
0.424982
0.411903
0.396894
0.380618
0.363748
0.346846
0.329591
0.313326
0.569638
0.525973
0.507323
0.495021
0.485432
0.475962
0.464671
0.450968
0.435044
0.417467
0.398904
0.380005
0.361291
0.342519
0.324931
0.613491
0.567014
0.546253
0.531396
0.518885
0.506324
0.491953
0.475324
0.45671
0.436712
0.415994
0.395183
0.374767
0.354571
0.335716
0.654432
0.605343
0.58259
0.565313
0.550033
0.534555
0.517289
0.497917
0.476789
0.454532
0.431806
0.409216
0.387216
0.365698
0.345649
0.69217
0.640684
0.616078
0.596539
0.578676
0.560483
0.540531
0.518624
0.495176
0.470838
0.446266
0.42204
0.398586
0.375854
0.354695
0.726435
0.67278
0.646479
0.624861
0.604627
0.583949
0.561545
0.53733
0.511775
0.48555
0.459304
0.433595
0.408826
0.384998
0.362825
0.756981
0.7014
0.673575
0.650085
0.627717
0.604809
0.58021
0.553932
0.526499
0.498592
0.470856
0.443829
0.41789
0.39309
0.370008
0.783587
0.726332
0.697173
0.672037
0.647797
0.622934
0.596416
0.568339
0.539269
0.509898
0.480867
0.452692
0.425739
0.400095
0.376219
0.806061
0.747396
0.717102
0.690567
0.664735
0.638213
0.610069
0.58047
0.550016
0.51941
0.489286
0.460145
0.432336
0.405982
0.381432
0.824239
0.764436
0.733221
0.705547
0.67842
0.650551
0.621089
0.590257
0.558684
0.52708
0.496072
0.46615
0.437651
0.410724
0.385627
0.83799
0.777327
0.745414
0.716874
0.688762
0.659871
0.62941
0.597646
0.565227
0.532867
0.501192
0.47068
0.441659
0.4143
0.388789
0.847213
0.785974
0.753591
0.724469
0.695696
0.666118
0.634986
0.602595
0.569608
0.536742
0.504619
0.473711
0.444341
0.416693
0.390904
0.851842
0.790314
0.757694
0.728279
0.699174
0.66925
0.637781
0.605076
0.571804
0.538685
0.506337
0.475231
0.445686
0.417892
0.391964
0.851842
0.790314
0.757694
0.728279
0.699174
0.66925
0.637781
0.605076
0.571804
0.538685
0.506337
0.475231
0.445686
0.417892
0.391964
0.847213
0.785974
0.753591
0.724469
0.695696
0.666118
0.634986
0.602595
0.569608
0.536742
0.504619
0.473711
0.444341
0.416693
0.390904
0.83799
0.777327
0.745414
0.716874
0.688762
0.659871
0.62941
0.597646
0.565227
0.532867
0.501192
0.47068
0.441659
0.4143
0.388789
0.824239
0.764436
0.733221
0.705547
0.67842
0.650551
0.621089
0.590257
0.558684
0.52708
0.496072
0.46615
0.437651
0.410724
0.385627
0.806061
0.747396
0.717102
0.690567
0.664735
0.638213
0.610069
0.58047
0.550016
0.51941
0.489286
0.460145
0.432336
0.405982
0.381432
0.783587
0.726332
0.697173
0.672037
0.647797
0.622934
0.596416
0.568339
0.539269
0.509898
0.480867
0.452692
0.425739
0.400095
0.376219
0.756981
0.7014
0.673575
0.650085
0.627717
0.604809
0.58021
0.553932
0.526499
0.498592
0.470856
0.443829
0.41789
0.39309
0.370008
0.726435
0.67278
0.646479
0.624861
0.604627
0.583949
0.561545
0.53733
0.511775
0.48555
0.459304
0.433595
0.408826
0.384998
0.362825
0.69217
0.640684
0.616078
0.596539
0.578676
0.560483
0.540531
0.518624
0.495176
0.470838
0.446266
0.42204
0.398586
0.375854
0.354695
0.654432
0.605343
0.58259
0.565313
0.550033
0.534555
0.517289
0.497917
0.476789
0.454532
0.431806
0.409216
0.387216
0.365698
0.345649
0.613491
0.567014
0.546253
0.531396
0.518885
0.506324
0.491953
0.475324
0.45671
0.436712
0.415994
0.395183
0.374767
0.354571
0.335716
0.569638
0.525973
0.507323
0.495021
0.485432
0.475962
0.464671
0.450968
0.435044
0.417467
0.398904
0.380005
0.361291
0.342519
0.324931
0.523184
0.482514
0.466076
0.456434
0.449892
0.443654
0.435599
0.424982
0.411903
0.396894
0.380618
0.363748
0.346846
0.329591
0.313326
0.474456
0.436946
0.422801
0.415895
0.412491
0.409597
0.404904
0.397507
0.387407
0.375093
0.361221
0.346486
0.33149
0.315836
0.300934
0.423793
0.389591
0.377798
0.373678
0.373471
0.373996
0.372761
0.368692
0.361681
0.35217
0.340802
0.328292
0.315288
0.301308
0.287791
0.371546
0.34078
0.331379
0.330066
0.333079
0.337066
0.339351
0.338689
0.334856
0.328236
0.319457
0.309248
0.298304
0.286063
0.273929
0.31807
0.29085
0.283862
0.285347
0.291572
0.299028
0.304864
0.30766
0.307067
0.303405
0.297282
0.289433
0.280606
0.270164
0.259371
0.263729
0.240142
0.235567
0.239815
0.249211
0.260108
0.269494
0.275768
0.278454
0.277797
0.274379
0.268934
0.262261
0.253669
0.244125
0.208882
0.188996
0.186818
0.193768
0.20626
0.220538
0.233436
0.243181
0.249158
0.251531
0.250851
0.247839
0.24333
0.236629
0.228279
0.153889
0.137752
0.137934
0.147502
0.162986
0.180548
0.196892
0.210069
0.219323
0.224732
0.226805
0.226238
0.223869
0.219233
0.212144
0.0991034
0.0867395
0.0892321
0.101309
0.119652
0.140373
0.16006
0.176602
0.189096
0.197523
0.20235
0.204234
0.203994
0.202047
0.197203
0.0448692
0.036281
0.0410194
0.0554774
0.0765201
0.100241
0.123142
0.142952
0.158621
0.170029
0.177591
0.18193
0.183775
0.184079
0.18229
-0.00847851
-0.0133158
-0.0064077
0.0102867
0.033846
0.0603822
0.0863342
0.109287
0.128044
0.142372
0.15263
0.159411
0.163349
0.165627
0.166663
-0.0606278
-0.0617542
-0.0527664
-0.0339949
-0.00812241
0.0210178
0.0498325
0.0757769
0.0975085
0.114677
0.127572
0.136763
0.142813
0.146971
0.150315
-0.111331
-0.108724
-0.0977886
-0.0771115
-0.0491466
-0.0176362
0.0138265
0.0425847
0.0671542
0.0870629
0.102523
0.114071
0.122229
0.128242
0.13356
-0.160242
-0.154019
-0.141232
-0.118825
-0.0889989
-0.0553728
-0.0214995
0.00987069
0.0371192
0.0596488
0.0775844
0.0914224
0.101655
0.109494
0.11663
-0.20711
-0.197401
-0.182854
-0.158928
-0.127466
-0.0919947
-0.055969
-0.0222103
0.00753688
0.0325492
0.0528562
0.0689053
0.0811612
0.0907824
0.09963
-0.251726
-0.238649
-0.222462
-0.19718
-0.164375
-0.127319
-0.0894138
-0.05351
-0.021464
0.00587496
0.0284344
0.0466037
0.0608186
0.0721693
0.0826351
-0.293892
-0.277582
-0.25988
-0.233433
-0.199518
-0.161178
-0.121677
-0.0838876
-0.0497604
-0.0202676
0.0044111
0.024598
0.0406973
0.0537179
0.0657153
-0.333436
-0.314046
-0.294953
-0.267529
-0.232747
-0.193409
-0.152613
-0.113211
-0.0772358
-0.0457773
-0.0191262
0.00296464
0.020863
0.0354872
0.0489335
-0.370216
-0.347918
-0.327558
-0.299337
-0.26393
-0.223878
-0.182087
-0.141357
-0.103781
-0.0705587
-0.0420948
-0.0182245
0.00137773
0.0175323
0.032345
-0.404121
-0.379102
-0.357599
-0.32875
-0.292951
-0.252466
-0.209979
-0.168212
-0.129294
-0.0945224
-0.0644177
-0.0389023
-0.0177004
-9.61274e-05
0.0159995
-0.435069
-0.407534
-0.385009
-0.355695
-0.319721
-0.279072
-0.236186
-0.193677
-0.153683
-0.117588
-0.0860212
-0.0590065
-0.0363171
-0.0173514
-5.69079e-05
-0.463013
-0.433177
-0.409752
-0.38012
-0.344174
-0.303616
-0.26062
-0.217661
-0.176863
-0.139679
-0.106843
-0.0784794
-0.0544221
-0.0341913
-0.0157808
-0.487933
-0.456024
-0.431817
-0.402005
-0.366271
-0.32604
-0.283208
-0.240088
-0.198759
-0.160726
-0.12682
-0.0972702
-0.0719762
-0.0505683
-0.0311382
-0.509838
-0.476094
-0.451221
-0.421354
-0.385996
-0.346306
-0.303898
-0.260895
-0.219308
-0.18067
-0.1459
-0.11533
-0.0889313
-0.0664254
-0.0461525
-0.528767
-0.493433
-0.468009
-0.438198
-0.403359
-0.364401
-0.322654
-0.280034
-0.238456
-0.199458
-0.164035
-0.132618
-0.105254
-0.0817644
-0.0607216
-0.544785
-0.508113
-0.482249
-0.452592
-0.418393
-0.380331
-0.339459
-0.297471
-0.256159
-0.217046
-0.181182
-0.149095
-0.120913
-0.0965493
-0.0748102
-0.557979
-0.520223
-0.494028
-0.464614
-0.431155
-0.394127
-0.354317
-0.313187
-0.272387
-0.233397
-0.197307
-0.164731
-0.135876
-0.11075
-0.0884098
-0.568459
-0.529876
-0.503458
-0.474362
-0.441723
-0.405839
-0.367248
-0.32718
-0.287121
-0.248484
-0.21238
-0.179496
-0.150121
-0.124346
-0.101506
-0.576355
-0.5372
-0.510663
-0.481953
-0.450193
-0.415537
-0.378294
-0.339462
-0.300353
-0.262289
-0.226379
-0.193369
-0.163625
-0.137317
-0.11408
-0.581812
-0.542336
-0.515784
-0.487517
-0.45668
-0.42331
-0.387512
-0.350063
-0.312088
-0.274802
-0.239286
-0.206332
-0.176373
-0.149647
-0.126119
-0.584989
-0.545436
-0.518971
-0.4912
-0.461314
-0.429262
-0.394978
-0.359027
-0.322346
-0.286023
-0.251092
-0.21837
-0.188351
-0.161324
-0.137609
-0.586057
-0.546663
-0.520382
-0.493155
-0.464235
-0.433514
-0.400782
-0.366413
-0.331157
-0.295961
-0.261793
-0.229474
-0.199547
-0.172337
-0.148546
-0.585191
-0.546181
-0.520182
-0.493542
-0.465593
-0.436198
-0.40503
-0.372297
-0.338565
-0.304638
-0.271394
-0.23964
-0.209957
-0.18268
-0.158924
-0.582573
-0.544158
-0.518537
-0.492523
-0.465545
-0.437453
-0.40784
-0.376765
-0.344629
-0.312082
-0.279906
-0.248868
-0.219574
-0.192348
-0.168748
-0.578386
-0.540764
-0.51561
-0.490261
-0.464248
-0.437427
-0.409337
-0.379917
-0.349416
-0.318336
-0.287347
-0.257163
-0.2284
-0.201337
-0.178023
-0.572811
-0.536162
-0.511563
-0.486919
-0.46186
-0.43627
-0.409655
-0.381863
-0.353007
-0.32345
-0.293744
-0.264535
-0.236436
-0.209648
-0.186763
-0.566028
-0.530513
-0.506553
-0.482649
-0.458537
-0.434132
-0.408934
-0.38272
-0.355492
-0.327484
-0.299133
-0.271
-0.243687
-0.217281
-0.194987
-0.558208
-0.523972
-0.500728
-0.477603
-0.454428
-0.43116
-0.407311
-0.38261
-0.35697
-0.33051
-0.303555
-0.276579
-0.250162
-0.224239
-0.202717
-0.549515
-0.516682
-0.494227
-0.471917
-0.449674
-0.427498
-0.404925
-0.381659
-0.357545
-0.332606
-0.307061
-0.281297
-0.255871
-0.230524
-0.209982
-0.540104
-0.50878
-0.487181
-0.465722
-0.444406
-0.423278
-0.401908
-0.379993
-0.357328
-0.333857
-0.309711
-0.285186
-0.260826
-0.236139
-0.216808
-0.530118
-0.50039
-0.479707
-0.459133
-0.438745
-0.418625
-0.398388
-0.377734
-0.356428
-0.334355
-0.311568
-0.288284
-0.26504
-0.241082
-0.223215
-0.519689
-0.491626
-0.471911
-0.452257
-0.432797
-0.413653
-0.394482
-0.374999
-0.354955
-0.334194
-0.312704
-0.290633
-0.268526
-0.245354
-0.2292
-0.508936
-0.482589
-0.463889
-0.445184
-0.426657
-0.408459
-0.390294
-0.371897
-0.353017
-0.333468
-0.313194
-0.29228
-0.271295
-0.248946
-0.234715
-0.497965
-0.473371
-0.455724
-0.437996
-0.420407
-0.403132
-0.385918
-0.368527
-0.350712
-0.332273
-0.313116
-0.293278
-0.273357
-0.251848
-0.486868
-0.464051
-0.447486
-0.430759
-0.414114
-0.397743
-0.381435
-0.364977
-0.348134
-0.330699
-0.312551
-0.293686
-0.274718
-0.475728
-0.454697
-0.439238
-0.423531
-0.407834
-0.392353
-0.37691
-0.361319
-0.345363
-0.32883
-0.31158
-0.293567
-0.464613
-0.445369
-0.431032
-0.416357
-0.401613
-0.387007
-0.372396
-0.357617
-0.342469
-0.326744
-0.310282
-0.292989
-0.453584
-0.436117
-0.422909
-0.409276
-0.395485
-0.381742
-0.367933
-0.353918
-0.339512
-0.32451
-0.308734
-0.44269
-0.426986
-0.414908
-0.402317
-0.389476
-0.376584
-0.363551
-0.350257
-0.336535
-0.322186
-0.307016
-0.431977
-0.418012
-0.407058
-0.395506
-0.383606
-0.371551
-0.359269
-0.346661
-0.333576
-0.319823
-0.421482
-0.409229
-0.399387
-0.388861
-0.37789
-0.366654
-0.3551
-0.343145
-0.330656
-0.317455
-0.41124
-0.400667
-0.391917
-0.3824
-0.372339
-0.361901
-0.35105
-0.339719
-0.32779
-0.401286
-0.392354
-0.384672
-0.376139
-0.366964
-0.357299
-0.347124
-0.336386
-0.324985
-0.391652
-0.38432
-0.377673
-0.370094
-0.361774
-0.352853
-0.343324
-0.333149
-0.322244
-0.382373
-0.376591
-0.370945
-0.364281
-0.356781
-0.34857
-0.339654
-0.33001
-0.373485
-0.369199
-0.36451
-0.358719
-0.351998
-0.344458
-0.336121
-0.326975
-0.365026
-0.362175
-0.358395
-0.35343
-0.347442
-0.340532
-0.332734
-0.324051
-0.357038
-0.355554
-0.352629
-0.348437
-0.343131
-0.336805
-0.329507
-0.32125
-0.349568
-0.349369
-0.347242
-0.343765
-0.339089
-0.333299
-0.326457
-0.342659
-0.343658
-0.342266
-0.339444
-0.335341
-0.330036
-0.323605
-0.336361
-0.338459
-0.337734
-0.335502
-0.331912
-0.327041
-0.320977
-0.330721
-0.333809
-0.333678
-0.331969
-0.328832
-0.324341
-0.318597
-0.325785
-0.329745
-0.330132
-0.328875
-0.326128
-0.321963
-0.316494
-0.321597
-0.326299
-0.327124
-0.326248
-0.323827
-0.319934
-0.314693
-0.318195
-0.323503
-0.324682
-0.324112
-0.321953
-0.318278
-0.313219
-0.315613
-0.321383
-0.322829
-0.32249
-0.320529
-0.317016
-0.313876
-0.319957
-0.321584
-0.321399
-0.319569
-0.316165
-0.313003
-0.319241
-0.320958
-0.32085
-0.319086
-0.315737
-0.100575
-0.0939523
-0.0875555
-0.0813539
-0.0753571
-0.0695706
-0.0639935
-0.0586241
-0.0534608
-0.0485014
-0.0437441
-0.0391878
-0.0348317
-0.0306758
-0.0267203
-0.0229648
-0.0194123
-0.0160626
-0.0129206
-0.00998714
-0.00726536
-0.00475947
-0.00247458
-0.00041734
0.00140363
0.00297707
0.00428919
0.00531779
0.00604845
0.00642222
-0.111724
-0.104632
-0.0977872
-0.0911617
-0.0847486
-0.0785523
-0.0725745
-0.0668149
-0.0612722
-0.0559446
-0.0508308
-0.0459302
-0.0412424
-0.0367679
-0.0325073
-0.0284615
-0.0246329
-0.0210227
-0.017635
-0.0144717
-0.0115363
-0.00883333
-0.00636814
-0.00414773
-0.00218111
-0.000480004
0.000941065
0.0020593
0.00285712
0.00328279
-0.122373
-0.114854
-0.107617
-0.100618
-0.0938324
-0.0872642
-0.0809192
-0.0747987
-0.0689018
-0.0632278
-0.0577763
-0.0525474
-0.0475417
-0.0427601
-0.0382045
-0.0338764
-0.0297787
-0.0259139
-0.0222856
-0.018897
-0.015752
-0.0128552
-0.0102126
-0.00783154
-0.00572144
-0.0038946
-0.00236625
-0.00115979
-0.000296126
0.000180506
-0.132507
-0.124604
-0.117035
-0.109717
-0.102603
-0.0957015
-0.0890237
-0.0825719
-0.0763464
-0.070348
-0.0645775
-0.0590362
-0.0537258
-0.0486486
-0.0438075
-0.0392052
-0.0348454
-0.0307316
-0.026868
-0.0232585
-0.0199075
-0.0168203
-0.0140032
-0.0114641
-0.00921282
-0.00726228
-0.0056285
-0.00433546
-0.00340751
-0.00288132
-0.142111
-0.133868
-0.126033
-0.118451
-0.111055
-0.103861
-0.0968857
-0.0901327
-0.0836044
-0.0773033
-0.0712321
-0.0653939
-0.0597919
-0.0544301
-0.0493127
-0.044444
-0.0398288
-0.0354717
-0.0313777
-0.0275515
-0.0239983
-0.020724
-0.0177354
-0.0150409
-0.0126509
-0.0105788
-0.00884167
-0.00746388
-0.0064734
-0.00589951
-0.15117
-0.142637
-0.134605
-0.126819
-0.119189
-0.111743
-0.104505
-0.0974812
-0.0906755
-0.0840931
-0.0777392
-0.071619
-0.0657379
-0.0601019
-0.054717
-0.0495894
-0.0447251
-0.0401301
-0.0358104
-0.0317717
-0.0280201
-0.024562
-0.021405
-0.0185578
-0.0160315
-0.0138403
-0.0120019
-0.0105414
-0.00949038
-0.00887099
-0.15967
-0.1509
-0.142748
-0.13482
-0.127004
-0.119348
-0.111884
-0.104619
-0.0975612
-0.0907183
-0.0840987
-0.0777108
-0.0715625
-0.0656621
-0.060018
-0.0546383
-0.0495309
-0.0447032
-0.0401624
-0.0359153
-0.0319689
-0.0283304
-0.0250078
-0.0220108
-0.0193508
-0.0170429
-0.0151056
-0.0135646
-0.0124552
-0.0117929
-0.167602
-0.158654
-0.150467
-0.14246
-0.134507
-0.126682
-0.119027
-0.111551
-0.104265
-0.0971812
-0.0903122
-0.0836697
-0.077265
-0.0711093
-0.0652136
-0.0595884
-0.0542433
-0.0491878
-0.0444302
-0.0399787
-0.0358411
-0.0320253
-0.0285403
-0.0253962
-0.0226053
-0.0201832
-0.0181495
-0.0165304
-0.0153649
-0.0146624
-0.174957
-0.1659
-0.157769
-0.149749
-0.141707
-0.133754
-0.125943
-0.118284
-0.110793
-0.103486
-0.0963827
-0.0894974
-0.082846
-0.076443
-0.0703025
-0.0644374
-0.0588599
-0.053581
-0.0486108
-0.0439586
-0.0396332
-0.0356436
-0.0319991
-0.0287109
-0.0257917
-0.023258
-0.0211304
-0.0194357
-0.0182166
-0.0174771
-0.181735
-0.172647
-0.164673
-0.156706
-0.14862
-0.140578
-0.132644
-0.12483
-0.117154
-0.109641
-0.102315
-0.0951969
-0.0883069
-0.0816634
-0.0752838
-0.069184
-0.0633786
-0.0578805
-0.0527015
-0.0478522
-0.0433424
-0.039182
-0.0353812
-0.0319516
-0.028907
-0.0262644
-0.0240456
-0.0222779
-0.0210076
-0.0202346
-0.187944
-0.178922
-0.17121
-0.163358
-0.155269
-0.147176
-0.13915
-0.131203
-0.123359
-0.115653
-0.108115
-0.100772
-0.0936502
-0.0867714
-0.0801574
-0.0738271
-0.0677976
-0.0620841
-0.0566998
-0.0516568
-0.0469659
-0.0426378
-0.0386837
-0.0351157
-0.0319484
-0.0291998
-0.0268925
-0.0250545
-0.0237358
-0.0229326
-0.193605
-0.184767
-0.17743
-0.169745
-0.161689
-0.153576
-0.145486
-0.137424
-0.129425
-0.121535
-0.113792
-0.10623
-0.0988795
-0.091769
-0.0849237
-0.078366
-0.0721158
-0.06619
-0.0606038
-0.0553702
-0.0505014
-0.0460088
-0.0419042
-0.0382008
-0.0349137
-0.0320617
-0.0296688
-0.0277633
-0.0263987
-0.0255692
-0.198761
-0.190257
-0.183403
-0.175923
-0.167924
-0.159819
-0.151684
-0.143519
-0.135372
-0.127303
-0.119358
-0.111577
-0.104
-0.0966587
-0.0895838
-0.0828008
-0.0763321
-0.0701969
-0.0644116
-0.0589906
-0.0539469
-0.0492927
-0.0450407
-0.0412047
-0.0378007
-0.0348483
-0.0323724
-0.0304023
-0.0289947
-0.0281426
-0.203482
-0.195509
-0.189233
-0.181968
-0.174036
-0.165959
-0.157789
-0.149522
-0.141227
-0.132976
-0.124825
-0.116824
-0.109017
-0.101444
-0.0941393
-0.0871317
-0.0804462
-0.0741037
-0.0681219
-0.0625163
-0.0573006
-0.0524879
-0.0480915
-0.0441258
-0.0406077
-0.0375576
-0.0350018
-0.0329699
-0.0315218
-0.0306511
-0.0717335
-0.065946
-0.0605612
-0.0555928
-0.0510549
-0.0469625
-0.0433332
-0.0401883
-0.0375553
-0.0354647
-0.0339787
-0.0330933
-0.0889452
-0.0828293
-0.0769334
-0.0712041
-0.0656652
-0.0603254
-0.0551815
-0.0502309
-0.0454719
-0.0409023
-0.0365202
-0.0323243
-0.0283139
-0.0244886
-0.020849
-0.0173924
-0.0141211
-0.0110372
-0.00814684
-0.00544818
-0.00294402
-0.000638603
0.00146314
0.00335477
0.00502799
0.00647202
0.00767371
0.00861145
0.00927393
0.00959523
-0.0768517
-0.07128
-0.0659348
-0.0607242
-0.0556833
-0.0508246
-0.0461437
-0.0416393
-0.0373095
-0.0331514
-0.0291632
-0.025344
-0.0216933
-0.0182112
-0.0148988
-0.0117494
-0.00876455
-0.00595153
-0.00331899
-0.000860292
0.00142224
0.0035239
0.00543971
0.00716341
0.00868696
0.00999998
0.01109
0.0119359
0.0125296
0.0127978
-0.0643148
-0.0593229
-0.0545769
-0.0499313
-0.0454265
-0.0410765
-0.0368836
-0.0328519
-0.0289769
-0.0252524
-0.0216769
-0.0182503
-0.0149726
-0.011845
-0.00886765
-0.00602804
-0.00335667
-0.000819212
0.00155326
0.0037689
0.00582672
0.00772183
0.00944929
0.011003
0.0123752
0.0135558
0.0145331
0.0152863
0.0158112
0.0160255
-0.05135
-0.0469709
-0.0428674
-0.0388251
-0.0348834
-0.0310929
-0.0274222
-0.0238851
-0.020486
-0.0172144
-0.0140683
-0.0110487
-0.00815609
-0.00539154
-0.00275157
-0.000212628
0.00207971
0.00434344
0.00645961
0.00843166
0.0102626
0.0119489
0.0134859
0.0148678
0.0160872
0.0171344
0.0179981
0.0186586
0.019114
0.0192762
-0.0379744
-0.0342352
-0.0308007
-0.0273687
-0.0239804
-0.0209139
-0.0178238
-0.0147795
-0.0118638
-0.00905794
-0.00635575
-0.00375766
-0.00126449
0.00112258
0.00340508
0.00558641
0.00761981
0.00957441
0.0114129
0.0131317
0.0147296
0.0162027
0.0175461
0.0187539
0.0198186
0.0207312
0.0214807
0.0220481
0.0224338
0.0225456
-0.0242526
-0.0211884
-0.0184705
-0.0157277
-0.0130285
-0.0104492
-0.00792706
-0.00546284
-0.00307475
-0.000762397
0.00147413
0.00363301
0.00571227
0.00771003
0.00962556
0.0114562
0.0131866
0.0148368
0.0163955
0.0178572
0.0192187
0.0204757
0.0216231
0.0226548
0.0235637
0.0243407
0.0249755
0.02545
0.0257662
0.0258293
-0.0101292
-0.00776983
-0.00581676
-0.00379163
-0.00177089
0.000193647
0.00211546
0.00400212
0.00584852
0.00765056
0.00940558
0.0111108
0.0127632
0.0143601
0.0158991
0.0173762
0.0187839
0.0201278
0.0214026
0.0226028
0.0237242
0.0247621
0.0257111
0.0265651
0.0273169
0.0279576
0.0284775
0.0288594
0.0291068
0.0291233
0.00430795
0.00594482
0.00710599
0.00838928
0.00971459
0.0110227
0.012321
0.013615
0.0149012
0.0161749
0.0174323
0.0186693
0.019882
0.0210666
0.0222193
0.0233357
0.0244102
0.0254425
0.0264284
0.0273626
0.0282403
0.0290562
0.0298046
0.0304793
0.0310729
0.0315768
0.0319817
0.0322716
0.032451
0.0324234
0.01904
0.0199375
0.0202811
0.0207983
0.0214048
0.0220313
0.0226836
0.023366
0.0240741
0.0248029
0.0255472
0.0263021
0.0270625
0.0278235
0.0285803
0.0293278
0.0300604
0.030775
0.031467
0.0321309
0.0327612
0.0333523
0.033898
0.0343918
0.0348262
0.0351931
0.0354832
0.0356817
0.0357944
0.0357256
0.0340383
0.034182
0.0336853
0.0334153
0.0332823
0.0332063
0.0331928
0.0332454
0.0333587
0.0335266
0.0337432
0.0340025
0.0342984
0.0346249
0.0349762
0.0353462
0.035729
0.0361195
0.0365124
0.0369016
0.0372812
0.0376447
0.0379856
0.0382972
0.0385717
0.0388012
0.038977
0.0390852
0.0391324
0.0390258
0.0492698
0.0486505
0.0472949
0.0462203
0.0453307
0.0445345
0.0438378
0.043244
0.0427466
0.0423386
0.0420134
0.041764
0.0415833
0.0414645
0.0414006
0.0413848
0.0414101
0.0414703
0.0415589
0.0416692
0.0417945
0.0419278
0.0420621
0.0421901
0.0423042
0.0423963
0.0424583
0.0424774
0.0424606
0.0423198
0.0646985
0.0633133
0.0610854
0.0591934
0.0575335
0.0560022
0.0546071
0.0533516
0.0522286
0.0512304
0.0503498
0.0495791
0.0489103
0.0483357
0.0478474
0.0474374
0.047098
0.0468216
0.0466007
0.0464279
0.0462956
0.0461961
0.0461219
0.0460653
0.0460185
0.0459734
0.0459223
0.0458537
0.0457749
0.0456038
0.080284
0.0781381
0.0750298
0.0723118
0.0698711
0.0675926
0.065486
0.0635558
0.061794
0.060193
0.0587449
0.0574414
0.0562738
0.0552335
0.0543116
0.0534993
0.0527879
0.0521686
0.0516331
0.0511729
0.0507796
0.0504448
0.0501603
0.049918
0.0497099
0.0495279
0.0493646
0.0492099
0.0490709
0.0488736
0.095979
0.0930862
0.0890963
0.0855494
0.0823232
0.0792912
0.0764656
0.0738516
0.0714412
0.0692265
0.0671997
0.065352
0.0636744
0.0621577
0.0607924
0.0595689
0.0584775
0.0575086
0.0566527
0.0559004
0.0552425
0.0546696
0.054173
0.0537439
0.053374
0.0530554
0.0527809
0.0525417
0.0523447
0.0521255
0.111735
0.108126
0.103268
0.0989026
0.094896
0.0911099
0.0875598
0.0842522
0.0811806
0.0783382
0.0757179
0.0733116
0.0711104
0.069105
0.0672852
0.0656407
0.0641611
0.0628356
0.0616537
0.0606048
0.0596787
0.0588653
0.0581548
0.0575381
0.0570063