/*--------------------------------*- C++ -*----------------------------------*\
  =========                 |
  \\      /  F ield         | OpenFOAM: The Open Source CFD Toolbox
   \\    /   O peration     | Website:  https://openfoam.org
    \\  /    A nd           | Version:  7
     \\/     M anipulation  |
\*---------------------------------------------------------------------------*/
FoamFile
{
    version     2.0;
    format      ascii;
    class       surfaceScalarField;
    location    "20";
    object      phi;
}
// * * * * * * * * * * * * * * * * * * * * * * * * * * * * * * * * * * * * * //

dimensions      [0 3 -1 0 0 0 0];

internalField   nonuniform List<scalar> 
11054
(
-5.19464e-06
5.19464e-06
-1.62624e-12
-1.75027e-05
1.23081e-05
-4.89966e-12
-3.48129e-05
1.73102e-05
-8.67559e-12
-5.50471e-05
2.02342e-05
-1.29075e-11
-7.61296e-05
2.10826e-05
-1.75071e-11
1.98185e-05
-2.20747e-11
-5.08891e-06
1.02836e-05
-1.7103e-05
2.43222e-05
-3.39236e-05
3.41308e-05
-5.34574e-05
3.97679e-05
-7.36054e-05
4.12306e-05
3.84375e-05
-4.87932e-06
1.51629e-05
-1.63097e-05
3.57526e-05
-3.21577e-05
4.99787e-05
-5.02987e-05
5.79089e-05
-6.85879e-05
5.95198e-05
5.46699e-05
-4.56948e-06
1.97324e-05
-1.5135e-05
4.63181e-05
-2.95395e-05
6.43832e-05
-4.56118e-05
7.39813e-05
-6.11377e-05
7.50456e-05
-7.38205e-05
6.73526e-05
5.04361e-05
-4.16459e-06
2.38969e-05
-1.3596e-05
5.57496e-05
-2.61045e-05
7.68917e-05
-3.94557e-05
8.73325e-05
-5.13431e-05
8.6933e-05
-5.93486e-05
7.53582e-05
5.19701e-05
-3.67119e-06
2.75681e-05
-1.17149e-05
6.37933e-05
-2.18976e-05
8.70744e-05
-3.19052e-05
9.73401e-05
-3.93164e-05
9.43442e-05
-4.15631e-05
7.76049e-05
4.62775e-05
-3.09686e-06
3.0665e-05
-9.51714e-06
7.02136e-05
-1.69712e-05
9.45284e-05
-2.30483e-05
0.000103417
-2.51902e-05
9.64861e-05
-2.06515e-05
7.30661e-05
3.20658e-05
-2.44981e-06
3.31148e-05
-7.03058e-06
7.47944e-05
-1.13831e-05
9.88809e-05
-1.29827e-05
0.000105017
-9.11289e-06
9.26162e-05
3.1749e-06
6.07783e-05
8.12119e-06
-1.73856e-06
3.48534e-05
-4.28446e-06
7.73403e-05
-5.19421e-06
9.97907e-05
-1.81199e-06
0.000101635
8.75691e-06
8.20473e-05
2.96874e-05
3.98478e-05
-2.66827e-05
-9.71532e-07
3.58249e-05
-1.30777e-06
7.76765e-05
1.53385e-06
9.69491e-05
1.03574e-05
9.28111e-05
2.82548e-05
6.41499e-05
5.86472e-05
9.45539e-06
-7.33756e-05
-1.57649e-07
3.59825e-05
1.87009e-06
7.56488e-05
8.74038e-06
9.00788e-05
2.34205e-05
7.8131e-05
4.92156e-05
3.83548e-05
8.98101e-05
-3.11391e-05
0.000149318
-0.000132883
-0.000270082
6.98943e-07
3.52836e-05
5.22477e-06
7.11229e-05
1.63688e-05
7.89347e-05
3.72757e-05
5.72241e-05
7.14772e-05
4.15332e-06
0.000122932
-8.25939e-05
0.000196071
-0.000206022
-0.00036984
1.58861e-06
3.3695e-05
8.73208e-06
6.39795e-05
2.43668e-05
6.33e-05
5.18278e-05
2.97631e-05
9.48833e-05
-3.89022e-05
0.000157772
-0.000145483
0.000245241
-0.000293491
-0.000487157
2.50798e-06
3.1187e-05
1.23722e-05
5.41153e-05
3.26875e-05
4.29847e-05
6.69887e-05
-4.53815e-06
0.000119286
-9.11989e-05
0.000194096
-0.000220293
0.00029647
-0.000395865
-0.000622667
3.45318e-06
2.77338e-05
1.61287e-05
4.14398e-05
4.12905e-05
1.78229e-05
8.26784e-05
-4.59261e-05
0.000144543
-0.000153064
0.000231672
-0.000307422
0.000349394
-0.000513587
0.000503543
-0.000776815
-0.00110288
4.4217e-06
2.33121e-05
1.99887e-05
2.58728e-05
5.01406e-05
-1.2329e-05
9.88237e-05
-9.46092e-05
0.000170522
-0.000224763
0.000270273
-0.000407173
0.000403647
-0.00064696
0.00057667
-0.000949838
-0.00132188
5.41212e-06
1.79e-05
2.3942e-05
7.34286e-06
5.92077e-05
-4.75946e-05
0.000115357
-0.000150758
0.000197093
-0.000306498
0.00030967
-0.00051975
0.000458844
-0.000796134
0.000650751
-0.00114175
-0.00156282
6.42386e-06
1.14761e-05
2.79808e-05
-1.42141e-05
6.84643e-05
-8.80781e-05
0.000132212
-0.000214506
0.000224123
-0.000398409
0.000349623
-0.000645251
0.000514584
-0.000961095
0.000725138
-0.0013523
0.000987391
-0.00182507
-0.00238482
7.45692e-06
4.01922e-06
3.20984e-05
-3.88556e-05
7.78842e-05
-0.000133864
0.000149324
-0.000285946
0.000251476
-0.00050056
0.000389882
-0.000783658
0.000570434
-0.00114165
0.000799128
-0.00158099
0.0010817
-0.00210765
-0.00272627
8.51145e-06
-4.49222e-06
3.6288e-05
-6.66321e-05
8.744e-05
-0.000185016
0.000166622
-0.000365128
0.000279004
-0.000612943
0.000430172
-0.000934825
0.000625926
-0.0013374
0.000871967
-0.00182703
0.00117346
-0.00240914
0.00153449
-0.0030873
-0.00386218
9.58742e-06
-1.40796e-05
4.05416e-05
-9.75863e-05
9.71003e-05
-0.000241575
0.000184026
-0.000452054
0.000306545
-0.000735461
0.000470193
-0.00109847
0.00068055
-0.00154776
0.000942846
-0.00208933
0.00126144
-0.00272774
0.00163926
-0.00346511
-0.00430014
1.06842e-05
-2.47639e-05
4.48488e-05
-0.000131751
0.000106828
-0.000303554
0.000201445
-0.000546671
0.000333912
-0.000867928
0.000509611
-0.00127417
0.000733755
-0.0017719
0.00101091
-0.00236648
0.0013444
-0.00306123
0.0017357
-0.00385642
0.00218397
-0.00474841
-0.00572916
1.18002e-05
-3.65641e-05
4.91956e-05
-0.000169146
0.000116577
-0.000370935
0.000218773
-0.000648867
0.000360898
-0.00101005
0.000548062
-0.00146134
0.00078495
-0.00200879
0.00107526
-0.00265679
0.00142106
-0.00340703
0.00182218
-0.00425753
0.00227576
-0.00520199
0.00277632
-0.00622972
-0.00732704
1.29327e-05
-4.94968e-05
5.35634e-05
-0.000209777
0.000126292
-0.000443664
0.000235887
-0.000758462
0.000387268
-0.00116143
0.000585146
-0.00165921
0.000833511
-0.00225716
0.001135
-0.00295829
0.00149024
-0.00376227
0.00189722
-0.00466451
0.00235101
-0.00565579
0.00284398
-0.00672268
-0.0078496
1.40772e-05
-6.35739e-05
5.79285e-05
-0.000253628
0.000135907
-0.000521642
0.000252644
-0.000875199
0.000412763
-0.00132155
0.000620435
-0.00186689
0.000878792
-0.00251551
0.00118924
-0.00326873
0.00155078
-0.00412381
0.00195952
-0.00507325
0.00240854
-0.00610481
0.00288831
-0.00720246
0.00338764
-0.00834893
-0.00952589
1.52277e-05
-7.88017e-05
6.22615e-05
-0.000300662
0.000145345
-0.000604725
0.000268887
-0.000998741
0.000437101
-0.00148977
0.00065348
-0.00208327
0.000920137
-0.00278217
0.00123709
-0.00358569
0.00160164
-0.00448836
0.00200801
-0.00547962
0.00244749
-0.00654429
0.00290913
-0.00766409
0.00338088
-0.00882068
0.00385059
-0.0099956
-0.0111949
1.63766e-05
-9.51782e-05
6.65274e-05
-0.000350813
0.000154516
-0.000692714
0.000284438
-0.00112866
0.00045998
-0.00166531
0.000683817
-0.0023071
0.000956899
-0.00305525
0.00127775
-0.00390653
0.00164192
-0.00485253
0.00204188
-0.00587958
0.00246742
-0.00696983
0.00290668
-0.00810335
0.00334753
-0.00926153
0.00377905
-0.0104271
-0.0116056
0.00418977
1.75144e-05
-0.000112693
7.06859e-05
-0.000403984
0.000163322
-0.00078535
0.000299109
-0.00126445
0.000481087
-0.00184729
0.00071098
-0.002537
0.000988457
-0.00333273
0.00131047
-0.00422855
0.00167087
-0.00521294
0.00206057
-0.00626927
0.00246822
-0.00737748
0.00288161
-0.00851674
0.00328918
-0.0096691
0.00368176
-0.0108197
-0.0119741
0.00405029
1.86301e-05
-0.000131323
7.46917e-05
-0.000460046
0.000171656
-0.000882314
0.000312701
-0.00140549
0.000500103
-0.00203469
0.000734517
-0.00277141
0.00101424
-0.00361245
0.00133463
-0.00454894
0.00168796
-0.00556627
0.00206381
-0.00664513
0.00245016
-0.00776383
0.00283495
-0.00890154
0.00320774
-0.0100419
0.00356136
-0.0111733
-0.0123024
0.00388961
1.97113e-05
-0.000151034
7.84958e-05
-0.000518831
0.000179406
-0.000983225
0.00032501
-0.0015511
0.000516712
-0.00222639
0.000753997
-0.00300869
0.00103373
-0.00389218
0.00134972
-0.00486493
0.00169283
-0.00590937
0.00205163
-0.00700393
0.00241384
-0.00812604
0.00276805
-0.00925574
0.0031053
-0.0103791
0.00342055
-0.0114886
-0.0125923
0.00371043
2.07446e-05
-0.000171779
8.2046e-05
-0.000580132
0.000186456
-0.00108763
0.000335834
-0.00170048
0.000530612
-0.00242117
0.000769031
-0.00324711
0.00104651
-0.00416966
0.0013554
-0.00517382
0.00168534
-0.00623931
0.0020243
-0.00734288
0.00236013
-0.00846188
0.00268246
-0.00957807
0.00298406
-0.0106807
0.00326199
-0.0117665
-0.0128457
0.00351543
2.17154e-05
-0.000193494
8.52884e-05
-0.000643705
0.000192687
-0.00119503
0.000344973
-0.00185276
0.000541523
-0.00261772
0.000779279
-0.00348487
0.00105224
-0.00444262
0.00135145
-0.00547303
0.00166559
-0.00655345
0.00198235
-0.00765964
0.00229014
-0.00876967
0.0025799
-0.00986783
0.00284627
-0.0109471
0.00308826
-0.0120085
-0.0130646
0.00330716
2.26089e-05
-0.000216103
8.81688e-05
-0.000709265
0.000197986
-0.00130485
0.000352243
-0.00200702
0.000549191
-0.00281467
0.000784463
-0.00372014
0.00105071
-0.00470887
0.00133782
-0.00576014
0.00163384
-0.00684947
0.00192652
-0.00795232
0.00220515
-0.00904831
0.0024622
-0.0101249
0.00269414
-0.0111791
0.00290175
-0.0122161
-0.0132508
0.00308796
2.341e-05
-0.000239513
9.06336e-05
-0.000776488
0.000202244
-0.00141646
0.000357472
-0.00216225
0.000553404
-0.0030106
0.000784374
-0.00395111
0.00104179
-0.00496628
0.00131461
-0.00603295
0.00159053
-0.00712539
0.0018577
-0.00821949
0.00210655
-0.00929716
0.00233117
-0.0103495
0.00252979
-0.0113777
0.00270466
-0.012391
-0.0134061
0.00285991
2.41038e-05
-0.000263617
9.26315e-05
-0.000845016
0.000205359
-0.00152919
0.000360511
-0.0023174
0.000553988
-0.00320408
0.000778874
-0.004176
0.00102547
-0.00521288
0.00128205
-0.00628953
0.00153626
-0.00737959
0.00177693
-0.00846016
0.0019958
-0.00951603
0.0021886
-0.0105423
0.00235518
-0.0115443
0.00249897
-0.0125348
-0.013532
0.00262487
2.46757e-05
-0.000288292
9.41142e-05
-0.000914455
0.00020724
-0.00164231
0.000361236
-0.0024714
0.00055082
-0.00339366
0.000767905
-0.00439308
0.00100186
-0.00544684
0.00124052
-0.00652819
0.00147175
-0.00761082
0.0016853
-0.00867372
0.00187434
-0.00970508
0.0020362
-0.0107041
0.00217213
-0.0116802
0.00228643
-0.0126491
-0.01363
0.00238442
2.5112e-05
-0.000313404
9.50382e-05
-0.000984381
0.000207811
-0.00175509
0.00035955
-0.00262313
0.000543823
-0.00357793
0.000751482
-0.00460074
0.000971157
-0.00566651
0.00119048
-0.00674751
0.0013978
-0.00781814
0.00158397
-0.00885989
0.00174363
-0.00986473
0.00187558
-0.0108361
0.00198226
-0.0117869
0.00206856
-0.0127354
-0.0137013
0.00213995
2.54002e-05
-0.000338805
9.53651e-05
-0.00105435
0.000207007
-0.00186673
0.000355384
-0.00277151
0.000532973
-0.00375552
0.000729693
-0.00479746
0.000933637
-0.00587046
0.00113248
-0.00694635
0.00131529
-0.00800094
0.00147411
-0.00901872
0.00160504
-0.00999567
0.00170823
-0.0109393
0.00178703
-0.0118657
0.00184671
-0.012795
-0.0137472
0.00189262
2.55291e-05
-0.000364334
9.50628e-05
-0.00112388
0.000204781
-0.00197645
0.000348704
-0.00291544
0.000518295
-0.00392511
0.000702694
-0.00498186
0.000889666
-0.00605743
0.00106716
-0.00712385
0.00122511
-0.00815889
0.00135686
-0.00915047
0.00145988
-0.0100987
0.00153549
-0.0110149
0.00158774
-0.0119179
0.00162203
-0.0128293
-0.0137687
0.00164344
2.54889e-05
-0.000389823
9.41062e-05
-0.0011925
0.000201104
-0.00208344
0.000339504
-0.00305384
0.00049986
-0.00408547
0.000670699
-0.0051527
0.000839667
-0.0062264
0.000995191
-0.00727938
0.0011282
-0.0082919
0.00123334
-0.00925561
0.00130937
-0.0101747
0.00135858
-0.0110641
0.0013855
-0.0119448
0.00139551
-0.0128393
-0.0137664
0.00139328
2.52716e-05
-0.000415094
9.24774e-05
-0.0012597
0.000195961
-0.00218693
0.000327808
-0.00318568
0.000477784
-0.00423545
0.000633978
-0.00530889
0.000784114
-0.00637654
0.000917264
-0.00741253
0.00102545
-0.00840008
0.00110459
-0.00933475
0.00115462
-0.0102247
0.00117858
-0.0110881
0.00118132
-0.0119476
0.00116801
-0.012826
-0.0137413
0.00114288
2.48714e-05
-0.000439966
9.01663e-05
-0.001325
0.000189356
-0.00228612
0.000313673
-0.00331
0.000452226
-0.004374
0.000592843
-0.00544951
0.000723514
-0.00650721
0.000834098
-0.00752311
0.00091775
-0.00848373
0.000971627
-0.00938863
0.00099665
-0.0102498
0.000996471
-0.0110879
0.000976042
-0.0119271
0.00094028
-0.0127903
-0.0136939
0.000892897
2.42842e-05
-0.00046425
8.71702e-05
-0.00138788
0.00018131
-0.00238026
0.000297179
-0.00342587
0.000423374
-0.00450019
0.000547641
-0.00557378
0.000658401
-0.00661797
0.000746404
-0.00761111
0.000805962
-0.00854329
0.000835367
-0.00941803
0.000836389
-0.0102508
0.0008131
-0.0110646
0.000770434
-0.0118845
0.000712963
-0.0127328
-0.0136248
0.000643893
2.35079e-05
-0.000487758
8.34945e-05
-0.00144787
0.00017186
-0.00246862
0.000278432
-0.00353244
0.000391452
-0.00461321
0.000498748
-0.00568107
0.000589318
-0.00670854
0.000654882
-0.00767668
0.000690891
-0.0085793
0.000696664
-0.00942381
0.000674667
-0.0102288
0.000629229
-0.0110192
0.000565157
-0.0118204
0.000486629
-0.0126543
-0.0135346
0.00039637
2.25429e-05
-0.000510301
7.91519e-05
-0.00150448
0.000161058
-0.00255053
0.000257562
-0.00362894
0.000356704
-0.00471235
0.000446555
-0.00577092
0.000516812
-0.00677879
0.000560211
-0.00772008
0.000573298
-0.00859238
0.000556302
-0.00940681
0.00051223
-0.0101847
0.000445533
-0.0109525
0.000360802
-0.0117357
0.000261781
-0.0125553
-0.0134235
0.000150727
2.13912e-05
-0.000531692
7.41622e-05
-0.00155725
0.000148968
-0.00262533
0.000234716
-0.00371469
0.000319394
-0.00479703
0.000391466
-0.005843
0.000441424
-0.00682875
0.00046304
-0.0077417
0.000453891
-0.00858323
0.000414992
-0.00936791
0.000349748
-0.0101195
0.000262609
-0.0108653
0.000157896
-0.011631
3.9046e-05
-0.0124364
-0.0132919
-9.25867e-05
2.00571e-05
-0.000551749
6.85519e-05
-0.00160574
0.000135669
-0.00269245
0.000210055
-0.00378908
0.0002798
-0.00486678
0.000333888
-0.00589708
0.000363681
-0.00685854
0.000363985
-0.007742
0.000333326
-0.00855257
0.000273382
-0.00930797
0.000187822
-0.0100339
8.09882e-05
-0.0107585
-4.31454e-05
-0.0115068
-0.000181586
-0.012298
-0.0131406
-0.000332842
1.85467e-05
-0.000570296
6.23539e-05
-0.00164955
0.000121248
-0.00275135
0.000183755
-0.00385159
0.00023821
-0.00492123
0.000274228
-0.0059331
0.000284094
-0.00686841
0.000263623
-0.00772153
0.000212206
-0.00850116
0.000132058
-0.00922782
2.69881e-05
-0.00992885
-9.88365e-05
-0.0106327
-0.000241801
-0.0113639
-0.00039935
-0.0121404
-0.0129698
-0.000570152
1.68681e-05
-0.000587164
5.56062e-05
-0.00168829
0.000105802
-0.00280154
0.000156
-0.00390178
0.000194912
-0.00496015
0.000212882
-0.00595107
0.000203149
-0.00685868
0.000162497
-0.00768088
9.10843e-05
-0.00842974
-8.45579e-06
-0.00912828
-0.000132258
-0.00980505
-0.000276433
-0.0104885
-0.000437751
-0.0112026
-0.000613995
-0.0119642
-0.0127798
-0.000804032
1.50309e-05
-0.000602195
4.83519e-05
-0.00172161
8.94356e-05
-0.00284262
0.000126981
-0.00393933
0.000150199
-0.00498336
0.00015024
-0.00595111
0.000121309
-0.00682975
6.11068e-05
-0.00762067
-2.95344e-05
-0.0083391
-0.000147665
-0.00901015
-0.000289484
-0.00966323
-0.000451403
-0.0103266
-0.000630605
-0.0110233
-0.000825196
-0.0117696
-0.0125708
-0.00103416
1.30463e-05
-0.000615241
4.06382e-05
-0.0017492
7.22584e-05
-0.00287425
9.68912e-05
-0.00396396
0.000104358
-0.00499083
8.66737e-05
-0.00593343
3.90077e-05
-0.00678208
-4.00843e-05
-0.00754158
-0.000149192
-0.00822999
-0.000285153
-0.00887419
-0.000444291
-0.00950409
-0.000623374
-0.0101475
-0.000820013
-0.0108267
-0.00103263
-0.011557
-0.0123432
-0.00126022
1.09269e-05
-0.000626168
3.25155e-05
-0.00177079
5.43842e-05
-0.00289611
6.59267e-05
-0.0039755
5.76701e-05
-0.00498257
2.2543e-05
-0.0058983
-4.33483e-05
-0.00671619
-0.000140652
-0.00744428
-0.000267475
-0.00810317
-0.000420525
-0.00872114
-0.000596314
-0.0093283
-0.000792001
-0.0099518
-0.00100564
-0.0106131
-0.00123597
-0.0113266
-0.0120973
-0.00148193
8.68678e-06
-0.000634855
2.40372e-05
-0.00178614
3.59296e-05
-0.00290801
3.42806e-05
-0.00397385
1.04169e-05
-0.00495871
-4.182e-05
-0.00584607
-0.000125382
-0.00663263
-0.000240207
-0.00732945
-0.000384005
-0.00795937
-0.000553429
-0.00855172
-0.000745223
-0.00913651
-0.00095696
-0.00974006
-0.00118715
-0.0103829
-0.0014349
-0.0110789
-0.0118332
-0.001699
6.3413e-06
-0.000641196
1.52586e-05
-0.00179506
1.70126e-05
-0.00290976
2.17311e-06
-0.00395901
-3.71572e-05
-0.00491938
-0.000106094
-0.00577713
-0.000206742
-0.00653198
-0.000338396
-0.0071978
-0.000498443
-0.00779933
-0.000683547
-0.00836661
-0.000890716
-0.00892934
-0.00111794
-0.00951283
-0.00136423
-0.0101366
-0.00162908
-0.010814
-0.0115511
-0.00191114
3.90987e-06
-0.000645106
6.23617e-06
-0.00179739
-2.24506e-06
-0.00290128
-3.02921e-05
-0.00393097
-8.47906e-05
-0.00486488
-0.000169979
-0.00569194
-0.000287108
-0.00641485
-0.000434896
-0.00705001
-0.000610485
-0.00762374
-0.000810595
-0.0081665
-0.00103252
-0.00870742
-0.00127467
-0.00927068
-0.00153655
-0.00987472
-0.00181819
-0.0105324
-0.0112512
-0.00211808
1.3947e-06
-0.0006465
-2.9772e-06
-0.00179301
-2.17552e-05
-0.0028825
-6.28535e-05
-0.00388987
-0.000132242
-0.00479549
-0.000233196
-0.00559099
-0.000366183
-0.00628186
-0.000529417
-0.00688678
-0.000719855
-0.0074333
-0.000934318
-0.00795204
-0.00117039
-0.00847135
-0.00142687
-0.00901419
-0.00170379
-0.0095978
-0.00200186
-0.0102343
-0.0109336
-0.00231948
-1.21646e-06
-0.000645284
-1.23248e-05
-0.00178191
-4.13707e-05
-0.00285346
-9.53636e-05
-0.00383588
-0.000179288
-0.00471157
-0.000295488
-0.00547479
-0.000443698
-0.00613365
-0.000621693
-0.00670878
-0.000826308
-0.00722868
-0.00105449
-0.00772386
-0.0013041
-0.00822174
-0.00157432
-0.00874398
-0.00186565
-0.00930647
-0.0021797
-0.00992029
-0.0105982
-0.00251511
-3.81e-06
-0.000641474
-2.17398e-05
-0.00176398
-6.09933e-05
-0.0028142
-0.000127656
-0.00376921
-0.000225718
-0.00461351
-0.000356615
-0.00534389
-0.000519404
-0.00597086
-0.000711487
-0.0065167
-0.000929622
-0.00701055
-0.0011709
-0.00748258
-0.00143347
-0.00795917
-0.0017168
-0.00846065
-0.00202187
-0.00900139
-0.00235132
-0.00959084
-0.0102449
-0.00270458
-6.45045e-06
-0.000635024
-3.11739e-05
-0.00173925
-8.05157e-05
-0.00276486
-0.000159574
-0.00369016
-0.000271334
-0.00450175
-0.000416358
-0.00519887
-0.000593079
-0.00579414
-0.000798583
-0.0063112
-0.0010296
-0.00677953
-0.00128339
-0.00722879
-0.00155833
-0.00768423
-0.00185415
-0.00816482
-0.00217222
-0.00868332
-0.00251608
-0.00924698
-0.00987414
-0.00288688
-9.10277e-06
-0.000625921
-4.05721e-05
-0.00170778
-9.98352e-05
-0.0027056
-0.000190967
-0.00359902
-0.000315952
-0.00437676
-0.000474513
-0.00504031
-0.000664517
-0.00560414
-0.000882787
-0.00609293
-0.00112606
-0.00653626
-0.00139177
-0.00696308
-0.00167853
-0.00739747
-0.00198627
-0.00785708
-0.00231648
-0.00835311
-0.00267349
-0.00888997
-0.00948461
-0.00306302
-1.17486e-05
-0.000614172
-4.98804e-05
-0.00166965
-0.000118853
-0.00263662
-0.000221695
-0.00349618
-0.000359401
-0.00423906
-0.000530896
-0.00486881
-0.000733532
-0.0054015
-0.000963921
-0.00586254
-0.00121883
-0.00628135
-0.0014959
-0.00668601
-0.00179397
-0.00709941
-0.00211314
-0.00753791
-0.00245456
-0.00801169
-0.00281804
-0.00852649
-0.00908992
-0.00321272
-1.43714e-05
-0.000599801
-5.90475e-05
-0.00162497
-0.000137477
-0.00255819
-0.000251627
-0.00338203
-0.000401523
-0.00408916
-0.000585337
-0.004685
-0.000799957
-0.00518688
-0.00104183
-0.00562067
-0.00130778
-0.0060154
-0.00159565
-0.00639814
-0.0019045
-0.00679055
-0.00223464
-0.00720777
-0.00258723
-0.00765911
-0.00296328
-0.00815043
-0.00868535
-0.00336786
-1.69553e-05
-0.000582846
-6.80242e-05
-0.00157391
-0.000155616
-0.0024706
-0.000280639
-0.00325701
-0.000442172
-0.00392763
-0.00063768
-0.00448949
-0.000863638
-0.00496093
-0.00111636
-0.00536795
-0.00139276
-0.005739
-0.00169087
-0.00610003
-0.00200999
-0.00647143
-0.00235058
-0.00686718
-0.00271388
-0.00729581
-0.00310145
-0.00776286
-0.00827029
-0.00351651
-1.9485e-05
-0.00056336
-7.67633e-05
-0.00151663
-0.000173189
-0.00237418
-0.000308616
-0.00312158
-0.000481215
-0.00375503
-0.000687786
-0.00428292
-0.000924437
-0.00472427
-0.00118738
-0.005105
-0.00147364
-0.00545274
-0.00178145
-0.00579223
-0.0021103
-0.00614258
-0.0024608
-0.00651668
-0.00283428
-0.00692234
-0.00323247
-0.00736468
-0.00784478
-0.00365798
-2.1946e-05
-0.000541415
-8.52202e-05
-0.00145335
-0.000190117
-0.00226928
-0.000335454
-0.00297624
-0.000518529
-0.00357195
-0.000735527
-0.00406592
-0.000982229
-0.00447757
-0.00125478
-0.00483245
-0.00155032
-0.0051572
-0.00186727
-0.00547528
-0.00220532
-0.00580453
-0.00256521
-0.00615678
-0.00294836
-0.00653919
-0.00335657
-0.00695646
-0.00740922
-0.00379213
-2.43241e-05
-0.00051709
-9.33529e-05
-0.00138432
-0.000206326
-0.00215631
-0.000361055
-0.00282152
-0.000554002
-0.00337901
-0.000780785
-0.00383913
-0.0010369
-0.00422146
-0.00131845
-0.00455089
-0.0016227
-0.00485295
-0.00194824
-0.00514974
-0.00229496
-0.0054578
-0.00266373
-0.00578801
-0.00305604
-0.00614688
-0.00347378
-0.00653872
-0.00696395
-0.00391905
-2.66061e-05
-0.000490484
-0.000101122
-0.00130981
-0.00022175
-0.00203568
-0.000385328
-0.00265794
-0.000587531
-0.0031768
-0.000823457
-0.00360321
-0.00108835
-0.00395656
-0.0013783
-0.00426095
-0.00169067
-0.00454058
-0.00202427
-0.00481615
-0.00237913
-0.00510294
-0.00275626
-0.00541088
-0.00315724
-0.00574591
-0.00358401
-0.00611195
-0.00650932
-0.00403864
-2.87793e-05
-0.000461705
-0.00010849
-0.0012301
-0.000236326
-0.00190784
-0.000408191
-0.00248607
-0.000619025
-0.00296597
-0.000863447
-0.00335879
-0.00113649
-0.00368352
-0.00143423
-0.00396321
-0.00175417
-0.00422064
-0.00209527
-0.00447504
-0.00245775
-0.00474046
-0.00284272
-0.00502591
-0.00325186
-0.00533678
-0.00368717
-0.00567664
-0.00604575
-0.00415074
-3.0832e-05
-0.000430873
-0.000115423
-0.00114551
-0.000249996
-0.00177327
-0.00042957
-0.0023065
-0.000648399
-0.00274714
-0.000900669
-0.00310652
-0.00118122
-0.00340297
-0.00148616
-0.00365827
-0.00181309
-0.00389371
-0.00216116
-0.00412698
-0.00253072
-0.0043709
-0.00292301
-0.00463362
-0.00333978
-0.00492001
-0.00378312
-0.0052333
-0.0055737
-0.00425517
-3.27532e-05
-0.00039812
-0.000121889
-0.00105637
-0.000262707
-0.00163245
-0.000449396
-0.00211981
-0.000675578
-0.00252096
-0.000935046
-0.00284705
-0.00122249
-0.00311552
-0.00153402
-0.00334674
-0.00186738
-0.00356034
-0.00222186
-0.0037725
-0.00259796
-0.00399479
-0.00299703
-0.00423455
-0.0034209
-0.00449614
-0.00387174
-0.00478246
-0.00509369
-0.00435174
-3.45326e-05
-0.000363587
-0.000127859
-0.000963046
-0.000274411
-0.0014859
-0.000467608
-0.00192661
-0.000700492
-0.00228807
-0.000966509
-0.00258103
-0.00126021
-0.00282182
-0.00157774
-0.00302921
-0.00191696
-0.00322112
-0.0022773
-0.00341216
-0.00265939
-0.0036127
-0.00306468
-0.00382926
-0.00349509
-0.00406573
-0.00395286
-0.00432469
-0.0046063
-0.00444026
-3.6161e-05
-0.000327426
-0.000133307
-0.0008659
-0.000285066
-0.00133414
-0.000484151
-0.00172753
-0.000723082
-0.00204914
-0.000994995
-0.00230912
-0.00129433
-0.00252248
-0.00161727
-0.00270628
-0.00196178
-0.00287662
-0.00232741
-0.00304652
-0.00271494
-0.00322518
-0.00312588
-0.00341832
-0.00356225
-0.00362936
-0.00402635
-0.00386059
-0.00411213
-0.00452051
-3.763e-05
-0.000289796
-0.000138209
-0.000765322
-0.000294632
-0.00117772
-0.000498976
-0.00152318
-0.000743293
-0.00180483
-0.00102045
-0.00203196
-0.0013248
-0.00221813
-0.00165254
-0.00237854
-0.00200176
-0.0025274
-0.00237213
-0.00267615
-0.00276451
-0.0028328
-0.00318052
-0.0030023
-0.00362225
-0.00318764
-0.00409205
-0.00339079
-0.00361185
-0.00459233
-3.89319e-05
-0.000250864
-0.000142544
-0.00066171
-0.000303077
-0.00101718
-0.00051204
-0.00131422
-0.000761079
-0.00155579
-0.00104283
-0.00175021
-0.00135156
-0.0019094
-0.00168351
-0.00204658
-0.00203686
-0.00217405
-0.00241139
-0.00230162
-0.00280805
-0.00243614
-0.00322854
-0.00258182
-0.00367499
-0.00274119
-0.00414984
-0.00291594
-0.00310614
-0.00465555
-4.00603e-05
-0.000210804
-0.000146294
-0.000555476
-0.000310369
-0.000853108
-0.000523306
-0.00110128
-0.000776398
-0.0013027
-0.00106208
-0.00146453
-0.00137457
-0.00159691
-0.00171014
-0.00171101
-0.00206704
-0.00181715
-0.00244515
-0.00192352
-0.00284549
-0.00203579
-0.00326984
-0.00215747
-0.00372038
-0.00229065
-0.0041996
-0.00243672
-0.00259574
-0.00471001
-4.10093e-05
-0.000169795
-0.000149443
-0.000447043
-0.000316484
-0.000686066
-0.000532742
-0.000885025
-0.000789217
-0.00104622
-0.00107818
-0.00117556
-0.0013938
-0.00128129
-0.00173239
-0.00137243
-0.00209225
-0.00145729
-0.00247335
-0.00154242
-0.00287678
-0.00163236
-0.00330436
-0.00172989
-0.00375834
-0.00183667
-0.00424123
-0.00195382
-0.00208138
-0.00475559
-4.17743e-05
-0.00012802
-0.000151978
-0.000336839
-0.000321402
-0.000516642
-0.000540322
-0.000666104
-0.000799505
-0.000787038
-0.0010911
-0.000883971
-0.00140923
-0.000963162
-0.00175022
-0.00103144
-0.00211246
-0.00109505
-0.00249596
-0.00115892
-0.00290187
-0.00122645
-0.00333205
-0.0012997
-0.00378879
-0.00137993
-0.00427464
-0.00146797
-0.00156384
-0.00479218
-4.23514e-05
-8.5669e-05
-0.000153888
-0.000225303
-0.000325104
-0.000345426
-0.000546026
-0.000445182
-0.000807241
-0.000525822
-0.0011008
-0.000590409
-0.00142081
-0.000643153
-0.00176362
-0.000688631
-0.00212764
-0.000731024
-0.00251294
-0.000773618
-0.00292072
-0.00081867
-0.00335286
-0.00086756
-0.00381168
-0.000921117
-0.00429976
-0.000979892
-0.0010439
-0.0048197
-4.27377e-05
-4.29313e-05
-0.000155166
-0.000112875
-0.000327579
-0.000173013
-0.000549836
-0.000222925
-0.000812408
-0.00026325
-0.00110728
-0.000295533
-0.00142855
-0.00032189
-0.00177256
-0.000344618
-0.00213777
-0.00036581
-0.00252428
-0.000387111
-0.00293331
-0.000409647
-0.00336676
-0.000434108
-0.00382697
-0.000460907
-0.00431654
-0.00049032
-0.000522352
-0.00483809
-4.29313e-05
-1.18473e-12
-0.000155806
-2.90435e-12
-0.000328819
-4.07647e-12
-0.000551744
-4.82799e-12
-0.000814994
-5.28442e-12
-0.00111053
-5.53773e-12
-0.00143242
-5.68895e-12
-0.00177703
-5.8154e-12
-0.00214284
-5.99039e-12
-0.00252996
-6.24937e-12
-0.0029396
-6.61573e-12
-0.00337371
-7.09177e-12
-0.00383462
-7.68158e-12
-0.00432494
-8.35747e-12
-9.10265e-12
-0.00484729
-4.29313e-05
4.29313e-05
-0.000155806
0.000112875
-0.000328819
0.000173013
-0.000551744
0.000222925
-0.000814994
0.00026325
-0.00111053
0.000295533
-0.00143242
0.00032189
-0.00177703
0.000344618
-0.00214284
0.00036581
-0.00252996
0.000387111
-0.0029396
0.000409647
-0.00337371
0.000434108
-0.00383462
0.000460907
-0.00432494
0.00049032
0.000522352
-0.00484729
-4.27377e-05
8.5669e-05
-0.000155166
0.000225303
-0.000327579
0.000345426
-0.000549836
0.000445182
-0.000812408
0.000525822
-0.00110728
0.000590409
-0.00142855
0.000643153
-0.00177256
0.000688631
-0.00213777
0.000731024
-0.00252428
0.000773618
-0.00293331
0.00081867
-0.00336676
0.00086756
-0.00382697
0.000921117
-0.00431654
0.000979892
0.0010439
-0.00483809
-4.23514e-05
0.00012802
-0.000153888
0.000336839
-0.000325104
0.000516642
-0.000546026
0.000666104
-0.000807241
0.000787038
-0.0011008
0.000883971
-0.00142081
0.000963162
-0.00176362
0.00103144
-0.00212764
0.00109505
-0.00251294
0.00115892
-0.00292072
0.00122645
-0.00335286
0.0012997
-0.00381168
0.00137993
-0.00429976
0.00146797
0.00156384
-0.0048197
-4.17743e-05
0.000169795
-0.000151978
0.000447043
-0.000321402
0.000686066
-0.000540322
0.000885025
-0.000799505
0.00104622
-0.0010911
0.00117556
-0.00140923
0.00128129
-0.00175022
0.00137243
-0.00211246
0.00145729
-0.00249596
0.00154242
-0.00290187
0.00163236
-0.00333205
0.00172989
-0.00378879
0.00183667
-0.00427464
0.00195382
0.00208138
-0.00479218
-4.10093e-05
0.000210804
-0.000149443
0.000555476
-0.000316484
0.000853108
-0.000532742
0.00110128
-0.000789217
0.0013027
-0.00107818
0.00146453
-0.0013938
0.00159691
-0.00173239
0.00171101
-0.00209225
0.00181715
-0.00247335
0.00192352
-0.00287678
0.00203579
-0.00330436
0.00215747
-0.00375834
0.00229065
-0.00424123
0.00243672
0.00259574
-0.00475559
-4.00603e-05
0.000250864
-0.000146294
0.00066171
-0.000310369
0.00101718
-0.000523306
0.00131422
-0.000776398
0.00155579
-0.00106208
0.00175021
-0.00137457
0.0019094
-0.00171014
0.00204658
-0.00206704
0.00217405
-0.00244515
0.00230162
-0.00284549
0.00243614
-0.00326984
0.00258182
-0.00372038
0.00274119
-0.0041996
0.00291594
0.00310614
-0.00471001
-3.89319e-05
0.000289796
-0.000142544
0.000765322
-0.000303077
0.00117772
-0.00051204
0.00152318
-0.000761079
0.00180483
-0.00104283
0.00203196
-0.00135156
0.00221813
-0.00168351
0.00237854
-0.00203686
0.0025274
-0.00241139
0.00267615
-0.00280805
0.0028328
-0.00322854
0.0030023
-0.00367499
0.00318764
-0.00414984
0.00339079
0.00361184
-0.00465555
-3.763e-05
0.000327426
-0.000138209
0.0008659
-0.000294632
0.00133414
-0.000498976
0.00172753
-0.000743293
0.00204914
-0.00102045
0.00230912
-0.0013248
0.00252248
-0.00165254
0.00270628
-0.00200176
0.00287662
-0.00237213
0.00304652
-0.00276451
0.00322518
-0.00318052
0.00341832
-0.00362225
0.00362936
-0.00409205
0.00386059
0.00411213
-0.00459233
-3.6161e-05
0.000363587
-0.000133307
0.000963046
-0.000285066
0.0014859
-0.000484151
0.00192661
-0.000723082
0.00228807
-0.000994995
0.00258103
-0.00129433
0.00282182
-0.00161727
0.00302921
-0.00196178
0.00322112
-0.00232741
0.00341216
-0.00271494
0.0036127
-0.00312588
0.00382926
-0.00356225
0.00406573
-0.00402635
0.00432469
0.0046063
-0.00452051
-3.45326e-05
0.00039812
-0.000127859
0.00105637
-0.000274411
0.00163245
-0.000467608
0.00211981
-0.000700492
0.00252096
-0.000966509
0.00284705
-0.00126021
0.00311552
-0.00157774
0.00334674
-0.00191696
0.00356034
-0.0022773
0.0037725
-0.00265939
0.00399479
-0.00306468
0.00423455
-0.00349509
0.00449614
-0.00395286
0.00478246
0.00509369
-0.00444026
-3.27532e-05
0.000430873
-0.000121889
0.00114551
-0.000262707
0.00177327
-0.000449396
0.0023065
-0.000675578
0.00274714
-0.000935046
0.00310652
-0.00122249
0.00340297
-0.00153402
0.00365827
-0.00186738
0.00389371
-0.00222186
0.00412698
-0.00259796
0.0043709
-0.00299703
0.00463362
-0.0034209
0.00492001
-0.00387174
0.0052333
0.0055737
-0.00435174
-3.0832e-05
0.000461705
-0.000115423
0.0012301
-0.000249996
0.00190784
-0.00042957
0.00248607
-0.000648399
0.00296597
-0.000900669
0.00335879
-0.00118122
0.00368352
-0.00148616
0.00396321
-0.00181309
0.00422064
-0.00216116
0.00447504
-0.00253072
0.00474046
-0.00292301
0.00502591
-0.00333978
0.00533678
-0.00378312
0.00567664
0.00604575
-0.00425517
-2.87793e-05
0.000490484
-0.00010849
0.00130981
-0.000236326
0.00203568
-0.000408191
0.00265794
-0.000619025
0.0031768
-0.000863447
0.00360321
-0.00113649
0.00395656
-0.00143423
0.00426095
-0.00175417
0.00454058
-0.00209527
0.00481615
-0.00245775
0.00510294
-0.00284272
0.00541088