/*--------------------------------*- C++ -*----------------------------------*\
  =========                 |
  \\      /  F ield         | OpenFOAM: The Open Source CFD Toolbox
   \\    /   O peration     | Website:  https://openfoam.org
    \\  /    A nd           | Version:  7
     \\/     M anipulation  |
\*---------------------------------------------------------------------------*/
FoamFile
{
    version     2.0;
    format      ascii;
    class       volScalarField;
    location    "85";
    object      p;
}
// * * * * * * * * * * * * * * * * * * * * * * * * * * * * * * * * * * * * * //

dimensions      [0 2 -2 0 0 0 0];

internalField   nonuniform List<scalar> 
31800
(
-0.25854
-0.260061
-0.260924
-0.261625
-0.262232
-0.262763
-0.263252
-0.263722
-0.264185
-0.264645
-0.265102
-0.26555
-0.265984
-0.266393
-0.266766
-0.267092
-0.267359
-0.267553
-0.267664
-0.267681
-0.267597
-0.267413
-0.26714
-0.266786
-0.2664
-0.258944
-0.260431
-0.261277
-0.261967
-0.262565
-0.263092
-0.263582
-0.264057
-0.264529
-0.265005
-0.265484
-0.265963
-0.266436
-0.266893
-0.267327
-0.267727
-0.268082
-0.268382
-0.268616
-0.268775
-0.268853
-0.268852
-0.268783
-0.268652
-0.268502
-0.259452
-0.260893
-0.261716
-0.262388
-0.262975
-0.263494
-0.263981
-0.264457
-0.264937
-0.265426
-0.265926
-0.266433
-0.266942
-0.267447
-0.26794
-0.268411
-0.268853
-0.269256
-0.26961
-0.269907
-0.270141
-0.270313
-0.270436
-0.270509
-0.270569
-0.260056
-0.261441
-0.262236
-0.262886
-0.263456
-0.263964
-0.264444
-0.264919
-0.265403
-0.265903
-0.26642
-0.266952
-0.267496
-0.268045
-0.268594
-0.269136
-0.269662
-0.270164
-0.270634
-0.271064
-0.271446
-0.271781
-0.272081
-0.272337
-0.272572
-0.260752
-0.262071
-0.262831
-0.263455
-0.264004
-0.264496
-0.264966
-0.265437
-0.265922
-0.266429
-0.26696
-0.267514
-0.268089
-0.26868
-0.269282
-0.269889
-0.270495
-0.271093
-0.271674
-0.27223
-0.272752
-0.273237
-0.2737
-0.274118
-0.274479
-0.261531
-0.262776
-0.263496
-0.264089
-0.264613
-0.265086
-0.265542
-0.266003
-0.266485
-0.266995
-0.267537
-0.26811
-0.268712
-0.269341
-0.269992
-0.270661
-0.271342
-0.27203
-0.272716
-0.27339
-0.274043
-0.274665
-0.275274
-0.275833
-0.276256
-0.262386
-0.263549
-0.264224
-0.264783
-0.265276
-0.265726
-0.266163
-0.266612
-0.267086
-0.267595
-0.268143
-0.26873
-0.269355
-0.270016
-0.270711
-0.271437
-0.272188
-0.272959
-0.273743
-0.274528
-0.2753
-0.276046
-0.276781
-0.277467
-0.277867
-0.263308
-0.264382
-0.265009
-0.265528
-0.265988
-0.266409
-0.266823
-0.267254
-0.267716
-0.268219
-0.268768
-0.269363
-0.270006
-0.270695
-0.271428
-0.272203
-0.273018
-0.273866
-0.274739
-0.275625
-0.276507
-0.277361
-0.278201
-0.279013
-0.279268
-0.264287
-0.265269
-0.265844
-0.266319
-0.266741
-0.267129
-0.267515
-0.267923
-0.268367
-0.268858
-0.269402
-0.27
-0.270654
-0.271364
-0.272128
-0.272947
-0.273816
-0.274732
-0.275686
-0.276663
-0.277642
-0.278591
-0.279512
-0.28047
-0.280381
-0.265316
-0.266201
-0.266721
-0.267149
-0.267529
-0.267879
-0.268231
-0.26861
-0.26903
-0.269504
-0.270036
-0.27063
-0.271288
-0.272011
-0.272799
-0.273652
-0.274568
-0.275542
-0.276566
-0.277622
-0.278686
-0.279717
-0.280686
-0.281832
-0.281162
-0.266384
-0.267172
-0.267634
-0.268012
-0.268344
-0.268651
-0.268965
-0.269308
-0.269697
-0.270146
-0.270659
-0.271242
-0.271896
-0.272624
-0.273427
-0.274305
-0.275257
-0.276279
-0.27736
-0.278483
-0.279619
-0.28072
-0.281691
-0.282969
-0.281957
-0.267484
-0.268175
-0.268577
-0.268901
-0.269182
-0.26944
-0.269708
-0.270009
-0.27036
-0.270776
-0.271262
-0.271825
-0.272467
-0.273191
-0.273999
-0.274892
-0.275869
-0.276926
-0.278052
-0.279228
-0.280418
-0.281581
-0.282547
-0.283885
-0.282486
-0.268608
-0.269203
-0.269544
-0.269811
-0.270036
-0.27024
-0.270455
-0.270706
-0.271012
-0.271386
-0.271837
-0.27237
-0.272991
-0.273702
-0.274505
-0.275401
-0.276391
-0.27747
-0.278627
-0.27984
-0.281065
-0.282281
-0.283195
-0.284677
-0.282665
-0.26975
-0.270252
-0.270531
-0.270738
-0.270902
-0.271046
-0.271201
-0.271394
-0.271645
-0.271969
-0.272375
-0.27287
-0.273459
-0.274146
-0.274933
-0.275821
-0.276812
-0.277899
-0.27907
-0.280305
-0.281543
-0.282807
-0.283604
-0.285328
-0.282506
-0.270904
-0.271317
-0.271533
-0.271677
-0.271776
-0.271853
-0.271942
-0.272068
-0.272256
-0.272519
-0.27287
-0.273317
-0.273864
-0.274516
-0.275275
-0.276144
-0.277122
-0.278203
-0.279373
-0.280612
-0.281837
-0.283149
-0.283751
-0.285811
-0.282017
-0.272066
-0.272395
-0.272549
-0.272627
-0.272655
-0.272659
-0.272673
-0.272724
-0.272838
-0.273032
-0.273318
-0.273706
-0.274201
-0.274807
-0.275528
-0.276365
-0.277317
-0.278377
-0.279529
-0.280756
-0.281938
-0.2833
-0.283619
-0.286103
-0.281209
-0.273234
-0.273485
-0.273576
-0.273586
-0.273539
-0.273463
-0.273393
-0.27336
-0.273391
-0.273505
-0.273716
-0.274034
-0.274466
-0.275016
-0.275687
-0.276481
-0.277395
-0.27842
-0.279537
-0.280737
-0.28184
-0.283257
-0.283201
-0.286174
-0.28011
-0.274407
-0.274588
-0.274615
-0.274553
-0.274426
-0.274262
-0.274101
-0.273975
-0.273913
-0.273937
-0.274063
-0.274301
-0.27466
-0.275143
-0.275754
-0.276493
-0.277357
-0.278334
-0.279399
-0.280557
-0.281547
-0.283019
-0.282504
-0.285982
-0.27877
-0.275588
-0.275703
-0.275668
-0.275532
-0.275317
-0.27506
-0.274798
-0.27457
-0.274405
-0.274329
-0.27436
-0.274508
-0.274784
-0.275191
-0.275732
-0.276406
-0.277208
-0.278125
-0.279122
-0.280221
-0.281064
-0.282579
-0.281554
-0.285471
-0.277251
-0.276779
-0.276836
-0.276738
-0.276523
-0.276216
-0.275857
-0.275487
-0.275147
-0.27487
-0.274685
-0.27461
-0.27466
-0.274844
-0.275166
-0.275628
-0.276227
-0.276957
-0.277801
-0.278712
-0.279737
-0.280404
-0.281923
-0.280387
-0.284578
-0.275613
-0.277986
-0.277991
-0.277829
-0.277531
-0.277127
-0.276658
-0.276171
-0.27571
-0.275313
-0.275009
-0.274821
-0.274763
-0.274847
-0.275075
-0.27545
-0.275967
-0.276613
-0.277373
-0.278181
-0.279107
-0.279577
-0.281033
-0.279038
-0.283241
-0.273886
-0.279218
-0.279176
-0.278947
-0.278562
-0.278055
-0.277469
-0.276857
-0.276267
-0.27574
-0.275309
-0.274999
-0.274827
-0.274803
-0.274932
-0.275212
-0.275637
-0.27619
-0.276849
-0.277537
-0.278332
-0.278591
-0.279883
-0.277531
-0.281423
-0.272058
-0.280485
-0.280397
-0.280101
-0.279624
-0.279006
-0.278297
-0.277552
-0.276824
-0.27616
-0.275595
-0.275157
-0.274863
-0.274726
-0.274747
-0.274926
-0.27525
-0.275698
-0.27624
-0.276787
-0.277411
-0.277448
-0.278452
-0.275862
-0.279122
-0.270074
-0.281799
-0.281667
-0.281299
-0.280725
-0.27999
-0.279149
-0.278263
-0.277392
-0.276583
-0.275878
-0.275305
-0.274885
-0.274628
-0.274537
-0.274607
-0.27482
-0.275148
-0.275551
-0.27593
-0.276335
-0.276134
-0.276725
-0.274
-0.276377
-0.267863
-0.283173
-0.282996
-0.282552
-0.281875
-0.281015
-0.280035
-0.279003
-0.27798
-0.277021
-0.27617
-0.275458
-0.274906
-0.274525
-0.274316
-0.274267
-0.274357
-0.274547
-0.274784
-0.274962
-0.275093
-0.274629
-0.274698
-0.271899
-0.273247
-0.265362
-0.284624
-0.284398
-0.283872
-0.283084
-0.282093
-0.280967
-0.279781
-0.278601
-0.277487
-0.276486
-0.27563
-0.274943
-0.274433
-0.274098
-0.273921
-0.273871
-0.273898
-0.273935
-0.27387
-0.27367
-0.272903
-0.272371
-0.269513
-0.269793
-0.262535
-0.286168
-0.285887
-0.285271
-0.284365
-0.283235
-0.281956
-0.28061
-0.279269
-0.277996
-0.27684
-0.275838
-0.275011
-0.274366
-0.273896
-0.273576
-0.273365
-0.273199
-0.272995
-0.272638
-0.272051
-0.270929
-0.269745
-0.266806
-0.266049
-0.259362
-0.287825
-0.287477
-0.286764
-0.285731
-0.284453
-0.283015
-0.281504
-0.279996
-0.27856
-0.277248
-0.276096
-0.275125
-0.274338
-0.27372
-0.273239
-0.272839
-0.272443
-0.27195
-0.271247
-0.27022
-0.268685
-0.266827
-0.263761
-0.261984
-0.255837
-0.289612
-0.289184
-0.288364
-0.287194
-0.285761
-0.284157
-0.282475
-0.280798
-0.279196
-0.277725
-0.276419
-0.275298
-0.274359
-0.273578
-0.272911
-0.272288
-0.271617
-0.270785
-0.269678
-0.268165
-0.266163
-0.263636
-0.260374
-0.257507
-0.252001
-0.291549
-0.291025
-0.290085
-0.288769
-0.287172
-0.285396
-0.283538
-0.281688
-0.279918
-0.278284
-0.27682
-0.275541
-0.274437
-0.273472
-0.272589
-0.271701
-0.270706
-0.26948
-0.267918
-0.265885
-0.263371
-0.26022
-0.256666
-0.252626
-0.247953
-0.293654
-0.293015
-0.291943
-0.290469
-0.288699
-0.286744
-0.284707
-0.28268
-0.280739
-0.278938
-0.277311
-0.275863
-0.274576
-0.2734
-0.272263
-0.271064
-0.269692
-0.268021
-0.265958
-0.263383
-0.260335
-0.256626
-0.25269
-0.247762
-0.243634
-0.295947
-0.295171
-0.293952
-0.292309
-0.290357
-0.288215
-0.285993
-0.283787
-0.281671
-0.279701
-0.2779
-0.276269
-0.274775
-0.273355
-0.271921
-0.27036
-0.268557
-0.266395
-0.263797
-0.260672
-0.25709
-0.252886
-0.248495
-0.243173
-0.238619
-0.298445
-0.297507
-0.296125
-0.294301
-0.292157
-0.289823
-0.287412
-0.285022
-0.282728
-0.280579
-0.278595
-0.276761
-0.275031
-0.273326
-0.271545
-0.26957
-0.267287
-0.264595
-0.261443
-0.257772
-0.253677
-0.249022
-0.244226
-0.238601
-0.233633
-0.301165
-0.300038
-0.298478
-0.29646
-0.294114
-0.29158
-0.288975
-0.286396
-0.283918
-0.281582
-0.279397
-0.277335
-0.275333
-0.273298
-0.271119
-0.268676
-0.26587
-0.262621
-0.258909
-0.254708
-0.250132
-0.245076
-0.239923
-0.234066
-0.228843
-0.304123
-0.302779
-0.301024
-0.298797
-0.296239
-0.293498
-0.290693
-0.287921
-0.285251
-0.282714
-0.280307
-0.277985
-0.275669
-0.273253
-0.270621
-0.267663
-0.264298
-0.260477
-0.256211
-0.251507
-0.246487
-0.241074
-0.235618
-0.229577
-0.224158
-0.307334
-0.305743
-0.303774
-0.301326
-0.298546
-0.29559
-0.292579
-0.289606
-0.286733
-0.283978
-0.281321
-0.278701
-0.276022
-0.273171
-0.270034
-0.266518
-0.262569
-0.258173
-0.25337
-0.248193
-0.24277
-0.23704
-0.231324
-0.225125
-0.219569
-0.31081
-0.308941
-0.306742
-0.304058
-0.301045
-0.297867
-0.294642
-0.29146
-0.288368
-0.285372
-0.282432
-0.279468
-0.276372
-0.27303
-0.269338
-0.26523
-0.260684
-0.25572
-0.250403
-0.244788
-0.238999
-0.232988
-0.227045
-0.22071
-0.215039
-0.314563
-0.312385
-0.309937
-0.307005
-0.303749
-0.30034
-0.296894
-0.293489
-0.29016
-0.286893
-0.283628
-0.280268
-0.276698
-0.272809
-0.26852
-0.263795
-0.258648
-0.253131
-0.24733
-0.24131
-0.235189
-0.228926
-0.222781
-0.216322
-0.210551
-0.318603
-0.316086
-0.313372
-0.310178
-0.306669
-0.30302
-0.299341
-0.295698
-0.292107
-0.288533
-0.284893
-0.281079
-0.276976
-0.272489
-0.267566
-0.26221
-0.256468
-0.25042
-0.244163
-0.23777
-0.231346
-0.224855
-0.218526
-0.211955
-0.206088
-0.322939
-0.320051
-0.317055
-0.313587
-0.309815
-0.305917
-0.301992
-0.29809
-0.294205
-0.290278
-0.286208
-0.281878
-0.277182
-0.27205
-0.266467
-0.260474
-0.254151
-0.247596
-0.240914
-0.234176
-0.227473
-0.220773
-0.214275
-0.207597
-0.201638
-0.327575
-0.324288
-0.320994
-0.317242
-0.313196
-0.309037
-0.30485
-0.300663
-0.296445
-0.292111
-0.287548
-0.282638
-0.277292
-0.271476
-0.265216
-0.25859
-0.251704
-0.24467
-0.237589
-0.230532
-0.223571
-0.216676
-0.210018
-0.203241
-0.197191
-0.332518
-0.328803
-0.325197
-0.321149
-0.316821
-0.312389
-0.307918
-0.303413
-0.298813
-0.294012
-0.288887
-0.283331
-0.277284
-0.270753
-0.263808
-0.25656
-0.249133
-0.241645
-0.234193
-0.226836
-0.219634
-0.212557
-0.205747
-0.198875
-0.192736
-0.337767
-0.333598
-0.329669
-0.325316
-0.320694
-0.315973
-0.311193
-0.306328
-0.30129
-0.295954
-0.290195
-0.28393
-0.277137
-0.26987
-0.26224
-0.254385
-0.246442
-0.238526
-0.230724
-0.223087
-0.215658
-0.208408
-0.201453
-0.194492
-0.188264
-0.343323
-0.338675
-0.334412
-0.329746
-0.32482
-0.31979
-0.314668
-0.309393
-0.30385
-0.297904
-0.29144
-0.284406
-0.276831
-0.268816
-0.260509
-0.252067
-0.243632
-0.235311
-0.22718
-0.219278
-0.211634
-0.20422
-0.197126
-0.190081
-0.183766
-0.349179
-0.344032
-0.339426
-0.33444
-0.329197
-0.323834
-0.318328
-0.312585
-0.306465
-0.299829
-0.292588
-0.284734
-0.27635
-0.267584
-0.258613
-0.249606
-0.240702
-0.231998
-0.223556
-0.215402
-0.207554
-0.199983
-0.192758
-0.185634
-0.179234
-0.355328
-0.349663
-0.344708
-0.339395
-0.333818
-0.328093
-0.322155
-0.315875
-0.309097
-0.301691
-0.293606
-0.284888
-0.275677
-0.266164
-0.256546
-0.246998
-0.237649
-0.228582
-0.219843
-0.211452
-0.203409
-0.195689
-0.188338
-0.181141
-0.174661
-0.361756
-0.355558
-0.35025
-0.344602
-0.338674
-0.332549
-0.326121
-0.319227
-0.311706
-0.30345
-0.29446
-0.284845
-0.274799
-0.264549
-0.254306
-0.24424
-0.234466
-0.225054
-0.216036
-0.207416
-0.19919
-0.191329
-0.183859
-0.176596
-0.170038
-0.368445
-0.361702
-0.356039
-0.350048
-0.343745
-0.337177
-0.330192
-0.322601
-0.314247
-0.305065
-0.295117
-0.284581
-0.273702
-0.262731
-0.251886
-0.241325
-0.231148
-0.221408
-0.212122
-0.203287
-0.194886
-0.186892
-0.179311
-0.171989
-0.165358
-0.375369
-0.368076
-0.362057
-0.355713
-0.349008
-0.341944
-0.334325
-0.325947
-0.316672
-0.306494
-0.295547
-0.284077
-0.272372
-0.260701
-0.249278
-0.238245
-0.227685
-0.217633
-0.208093
-0.199053
-0.190488
-0.182369
-0.174687
-0.167313
-0.160614
-0.3825
-0.374653
-0.368279
-0.361571
-0.354429
-0.346809
-0.338473
-0.329213
-0.318933
-0.307696
-0.29572
-0.283312
-0.270797
-0.258449
-0.246472
-0.23499
-0.224066
-0.213718
-0.203938
-0.194705
-0.185987
-0.177752
-0.169977
-0.16256
-0.155799
-0.389798
-0.381401
-0.374673
-0.367587
-0.359968
-0.351721
-0.342578
-0.332343
-0.320977
-0.308632
-0.295607
-0.282268
-0.268962
-0.255964
-0.243459
-0.23155
-0.22028
-0.209652
-0.199647
-0.190233
-0.181373
-0.173032
-0.165175
-0.157723
-0.150907
-0.397222
-0.388282
-0.381202
-0.373718
-0.365574
-0.356625
-0.346581
-0.335277
-0.322755
-0.309262
-0.29518
-0.280924
-0.266853
-0.253233
-0.240226
-0.227913
-0.216317
-0.205425
-0.195208
-0.185626
-0.176637
-0.168201
-0.160274
-0.152796
-0.145932
-0.404718
-0.395249
-0.387819
-0.379915
-0.371191
-0.361456
-0.350414
-0.337954
-0.324216
-0.30955
-0.294415
-0.279262
-0.264457
-0.250244
-0.236761
-0.224066
-0.212162
-0.201024
-0.19061
-0.180875
-0.171769
-0.163251
-0.155265
-0.147771
-0.140868
-0.412229
-0.402248
-0.39447
-0.386119
-0.376754
-0.366145
-0.354009
-0.340314
-0.325312
-0.309459
-0.293284
-0.277264
-0.261756
-0.246981
-0.23305
-0.219996
-0.207805
-0.196438
-0.185844
-0.17597
-0.166763
-0.158174
-0.150142
-0.142643
-0.13571
-0.41969
-0.40922
-0.401093
-0.392263
-0.382189
-0.370615
-0.357294
-0.342295
-0.325995
-0.308956
-0.291765
-0.274911
-0.258735
-0.24343
-0.229079
-0.21569
-0.203233
-0.191656
-0.180899
-0.170903
-0.161608
-0.152962
-0.1449
-0.137405
-0.130453
-0.427027
-0.416096
-0.40762
-0.398274
-0.387419
-0.374788
-0.360197
-0.343837
-0.326221
-0.308008
-0.289832
-0.272183
-0.255377
-0.239576
-0.224833
-0.211135
-0.198434
-0.186666
-0.175765
-0.165664
-0.156299
-0.147611
-0.139531
-0.132053
-0.125093
-0.434164
-0.422803
-0.413974
-0.40407
-0.392359
-0.378583
-0.362646
-0.344884
-0.325947
-0.306585
-0.287463
-0.269061
-0.251665
-0.235403
-0.220298
-0.206317
-0.193395
-0.181459
-0.170434
-0.160246
-0.150827
-0.142112
-0.134032
-0.126582
-0.119626
-0.441015
-0.42926
-0.420073
-0.409566
-0.396921
-0.381915
-0.36457
-0.34538
-0.325133
-0.304657
-0.284635
-0.265527
-0.247583
-0.230895
-0.21546
-0.201223
-0.188105
-0.176024
-0.164895
-0.15464
-0.145186
-0.136462
-0.128397
-0.120987
-0.114049
-0.447491
-0.435381
-0.425829
-0.41467
-0.401016
-0.384704
-0.365901
-0.345273
-0.323741
-0.302196
-0.281326
-0.261561
-0.243112
-0.226037
-0.210305
-0.195841
-0.182554
-0.170352
-0.159142
-0.148841
-0.13937
-0.130653
-0.122622
-0.115264
-0.108359
-0.453499
-0.441075
-0.43115
-0.419288
-0.404552
-0.386868
-0.366574
-0.344515
-0.321735
-0.299176
-0.277514
-0.257145
-0.238238
-0.220815
-0.20482
-0.19016
-0.176732
-0.164433
-0.153167
-0.142841
-0.133374
-0.124683
-0.116702
-0.10941
-0.102556
-0.458943
-0.44625
-0.435939
-0.423323
-0.407437
-0.388328
-0.366527
-0.34306
-0.319084
-0.295571
-0.27318
-0.252262
-0.232944
-0.215215
-0.198993
-0.184169
-0.170629
-0.158262
-0.146962
-0.136635
-0.127192
-0.118547
-0.110634
-0.103422
-0.0966365
-0.463724
-0.450807
-0.440098
-0.426678
-0.409582
-0.38901
-0.365703
-0.340867
-0.315756
-0.291359
-0.268303
-0.246894
-0.227215
-0.209222
-0.192811
-0.177858
-0.164237
-0.151829
-0.140523
-0.130218
-0.120821
-0.112243
-0.104417
-0.0972996
-0.0906024
-0.467744
-0.45465
-0.443529
-0.429258
-0.410902
-0.388844
-0.364049
-0.337898
-0.311725
-0.286518
-0.262867
-0.241026
-0.221037
-0.202825
-0.186265
-0.171218
-0.157549
-0.14513
-0.133844
-0.123586
-0.114258
-0.105765
-0.0980463
-0.0910421
-0.0844574
-0.470905
-0.45768
-0.446134
-0.430968
-0.411314
-0.387765
-0.361519
-0.334121
-0.306965
-0.281029
-0.256854
-0.234643
-0.214398
-0.196013
-0.179345
-0.164241
-0.150558
-0.138158
-0.126921
-0.116735
-0.107499
-0.099113
-0.0915193
-0.0846474
-0.0782034
-0.473109
-0.459801
-0.447815
-0.431718
-0.410742
-0.385713
-0.35807
-0.329504
-0.301455
-0.274874
-0.250249
-0.227733
-0.207286
-0.188777
-0.172044
-0.156922
-0.143259
-0.130912
-0.119752
-0.109664
-0.100542
-0.0922835
-0.0848331
-0.0781092
-0.0718238
-0.474263
-0.460919
-0.448482
-0.431425
-0.409116
-0.382638
-0.353666
-0.324024
-0.295175
-0.268037
-0.243039
-0.220283
-0.199692
-0.181108
-0.164355
-0.149256
-0.135649
-0.123386
-0.112333
-0.102371
-0.0933874
-0.085277
-0.0779893
-0.0714221
-0.0652719
-0.474278
-0.460944
-0.448045
-0.430008
-0.406372
-0.378493
-0.348276
-0.317657
-0.288111
-0.260507
-0.235215
-0.212286
-0.191608
-0.173002
-0.156273
-0.141238
-0.127725
-0.115581
-0.104665
-0.0948561
-0.0860349
-0.0780959
-0.0709938
-0.0645923
-0.0585187
-0.473069
-0.45979
-0.446424
-0.427397
-0.402455
-0.37324
-0.341874
-0.310388
-0.28025
-0.252273
-0.226767
-0.203734
-0.183029
-0.164452
-0.147797
-0.132867
-0.119486
-0.107494
-0.0967481
-0.0871191
-0.078485
-0.0707433
-0.063849
-0.057629
-0.0516584
-0.47056
-0.45738
-0.443543
-0.423528
-0.397319
-0.366847
-0.33444
-0.302204
-0.271582
-0.243328
-0.217689
-0.194622
-0.173951
-0.155458
-0.138923
-0.124143
-0.110933
-0.0991285
-0.0885822
-0.0791622
-0.0707396
-0.0632235
-0.0565547
-0.0505038
-0.0447612
-0.466681
-0.453643
-0.439337
-0.418347
-0.390925
-0.35929
-0.325961
-0.293095
-0.262102
-0.233667
-0.207978
-0.184948
-0.164373
-0.146018
-0.129653
-0.115065
-0.102066
-0.0904856
-0.0801708
-0.0709903
-0.0628083
-0.055534
-0.0491093
-0.0432528
-0.0377777
-0.46137
-0.448514
-0.433748
-0.411809
-0.383241
-0.350553
-0.316429
-0.283059
-0.251807
-0.223289
-0.197633
-0.174711
-0.154295
-0.136134
-0.119988
-0.105638
-0.0928882
-0.0815706
-0.07152
-0.0626047
-0.0546898
-0.047682
-0.0415192
-0.0358832
-0.0306914
-0.454574
-0.441941
-0.426728
-0.403878
-0.374249
-0.340625
-0.305839
-0.272096
-0.2407
-0.212197
-0.186657
-0.163915
-0.143721
-0.12581
-0.109932
-0.0958676
-0.0834088
-0.0723847
-0.0626323
-0.0540118
-0.0463894
-0.0396721
-0.0337912
-0.0283969
-0.0235011
-0.446251
-0.43388
-0.418239
-0.394529
-0.363935
-0.329505
-0.294197
-0.26021
-0.228785
-0.200395
-0.175054
-0.152564
-0.132656
-0.115051
-0.0994947
-0.0857565
-0.07363
-0.0629366
-0.053514
-0.0452176
-0.0379131
-0.0315101
-0.0259313
-0.0207964
-0.0162114
-0.436368
-0.424297
-0.408254
-0.383747
-0.352295
-0.317196
-0.281509
-0.247412
-0.216071
-0.187891
-0.162832
-0.140668
-0.12111
-0.103868
-0.0886807
-0.0753144
-0.06356
-0.0532338
-0.0441727
-0.0362292
-0.0292682
-0.0232028
-0.0179455
-0.013086
-0.00882863
-0.424904
-0.413168
-0.396758
-0.371526
-0.339336
-0.303712
-0.26779
-0.233714
-0.202572
-0.174696
-0.15
-0.128241
-0.109091
-0.0922673
-0.0775003
-0.064551
-0.053208
-0.043285
-0.0346172
-0.0270549
-0.0204626
-0.0147576
-0.00984066
-0.00527201
-0.00135983
-0.411848
-0.400482
-0.383744
-0.357871
-0.325069
-0.289068
-0.253059
-0.219135
-0.188303
-0.160828
-0.136584
-0.115286
-0.0966125
-0.0802631
-0.0659654
-0.0534773
-0.0425851
-0.0331005
-0.0248573
-0.0177039
-0.0115055
-0.00618306
-0.00162443
0.00263808
0.00618738
-0.397199
-0.386237
-0.369218
-0.342796
-0.309517
-0.273291
-0.237341
-0.203698
-0.173286
-0.146307
-0.122589
-0.101827
-0.0836898
-0.0678693
-0.0540897
-0.0421062
-0.0317036
-0.0226919
-0.014904
-0.00818695
-0.00240683
0.00251142
0.00669442
0.0106355
0.0138048
-0.380968
-0.370442
-0.353194
-0.326324
-0.292708
-0.256411
-0.220665
-0.187429
-0.157546
-0.131152
-0.108038
-0.0878814
-0.0703405
-0.0551026
-0.0418886
-0.0304523
-0.020577
-0.012072
-0.00476937
0.00148461
0.00682244
0.0113155
0.0151062
0.0187106
0.0214834
-0.363177
-0.353119
-0.3357
-0.308488
-0.27468
-0.238466
-0.203066
-0.170359
-0.141109
-0.115388
-0.0929561
-0.0734706
-0.0565848
-0.0419815
-0.0293795
-0.0185316
-0.0092204
-0.00125495
0.00553324
0.0112982
0.0161704
0.0202181
0.0236002
0.0268526
0.0292132
-0.343858
-0.334297
-0.316769
-0.28933
-0.255478
-0.219499
-0.184579
-0.152525
-0.124008
-0.0990456
-0.0773681
-0.0586187
-0.0424449
-0.0285266
-0.0165815
-0.00636189
0.00234973
0.00974404
0.0159896
0.0212404
0.0256242
0.029207
0.0321651
0.0350498
0.0369833
-0.323053
-0.314018
-0.296449
-0.268901
-0.235157
-0.199545
-0.165251
-0.133964
-0.106276
-0.0821553
-0.0613033
-0.0433523
-0.0279451
-0.0147603
-0.0035152
0.00603782
0.0141157
0.0209086
0.0265844
0.0312967
0.0351701
0.0382693
0.0407883
0.0432891
0.0447811
-0.300813
-0.292329
-0.274794
-0.24727
-0.213762
-0.178657
-0.145127
-0.114719
-0.0879535
-0.0647521
-0.0447933
-0.0277
-0.0131119
-0.000706991
0.00979702
0.018647
0.0260588
0.0322212
0.0373015
0.041452
0.0447936
0.0473911
0.0494563
0.0515553
0.0525923
-0.277195
-0.269294
-0.251873
-0.224496
-0.191315
-0.156921
-0.124263
-0.0948366
-0.0690812
-0.0468735
-0.0278724
-0.0116932
0.00202619
0.0136073
0.0233313
0.0314437
0.0381587
0.0436635
0.048124
0.0516905
0.0544798
0.0565581
0.0581542
0.0598301
0.060396
-0.252266
-0.244987
-0.227763
-0.200578
-0.167964
-0.134379
-0.102714
-0.0743672
-0.049704
-0.02856
-0.0105771
0.00463498
0.0174388
0.0281548
0.0370623
0.0444049
0.0503945
0.0552162
0.0590341
0.0619957
0.0642132
0.0657557
0.0668674
0.0680944
0.0681647
-0.226099
-0.219487
-0.202531
-0.175631
-0.143746
-0.111099
-0.0805377
-0.0533635
-0.0298692
-0.00985437
0.00705372
0.0212491
0.0330938
0.0429062
0.0509635
0.0575063
0.062744
0.0668591
0.0700136
0.0723509
0.0739777
0.0749691
0.0755835
0.076334
0.0758815
-0.19877
-0.19288
-0.17617
-0.149834
-0.118739
-0.0871501
-0.0577979
-0.0318813
-0.00962699
0.00919827
0.0249792
0.0381121
0.0489574
0.0578309
0.0650067
0.0707225
0.0751842
0.0785716
0.0810437
0.0827383
0.0837559
0.0841829
0.0842929
0.084541
0.0835414
-0.170349
-0.165268
-0.148886
-0.1232
-0.0930246
-0.0626067
-0.0345593
-0.00997892
0.0109703
0.0285506
0.0431564
0.0551849
0.0649942
0.0728967
0.079163
0.084027
0.0876913
0.0903321
0.0921049
0.0931397
0.0935309
0.0933847
0.0929865
0.092682
0.0910456
-0.140947
-0.136757
-0.120778
-0.095819
-0.0666851
-0.0375445
-0.0108897
0.012283
0.0318679
0.0481532
0.0615407
0.0724272
0.0811676
0.0880704
0.0934021
0.0973926
0.10024
0.102119
0.103178
0.103538
0.10329
0.102571
0.101652
0.100642
0.09808
-0.110821
-0.107336
-0.0919214
-0.0677888
-0.0398075
-0.012042
0.0131407
0.0348416
0.0530095
0.0679552
0.080086
0.0897971
0.0974396
0.103317
0.107693
0.110791
0.112806
0.113908
0.114241
0.113915
0.113027
0.111751
0.110271
0.108281
0.104415
-0.079965
-0.0771798
-0.0624154
-0.0392085
-0.0124817
0.0138204
0.0374599
0.0576323
0.0743369
0.0879039
0.0987446
0.107251
0.113771
0.118603
0.122003
0.124193
0.125363
0.125678
0.125275
0.124257
0.122736
0.120918
0.118817
0.115663
0.110757
-0.0484681
-0.0464235
-0.0323672
-0.0101792
0.0152001
0.0399598
0.0619939
0.0805887
0.0957902
0.107945
0.117468
0.124746
0.130122
0.133889
0.1363
0.137569
0.137883
0.137402
0.136256
0.134545
0.132401
0.130031
0.127229
0.122983
0.119224
-0.0164558
-0.0151809
-0.00188798
0.0191956
0.0431439
0.0662922
0.0866673
0.103643
0.117309
0.128025
0.136206
0.142236
0.146452
0.149141
0.15055
0.150889
0.15034
0.149056
0.147163
0.14476
0.141993
0.139034
0.135523
0.130674
0.127643
0.0159475
0.0164322
0.0289089
0.0488107
0.0712543
0.0927322
0.111404
0.126727
0.13883
0.148086
0.154908
0.159676
0.162719
0.16432
0.164719
0.164122
0.162704
0.160615
0.157974
0.154882
0.151488
0.14792
0.143765
0.138524
0.135599
0.0486179
0.0482974
0.0599082
0.0785594
0.0994351
0.119193
0.136126
0.149772
0.160293
0.168073
0.173523
0.177018
0.178881
0.179388
0.178773
0.177236
0.174948
0.172052
0.168665
0.164886
0.160861
0.156684
0.151947
0.146373
0.143274
0.0814305
0.080294
0.0909941
0.108335
0.12759
0.145589
0.160757
0.172706
0.181633
0.187928
0.192
0.194218
0.194897
0.194307
0.192677
0.190201
0.187043
0.183343
0.179211
0.174748
0.170093
0.165314
0.160033
0.15411
0.150694
0.114259
0.1123
0.12205
0.13803
0.155621
0.171833
0.185218
0.195461
0.202788
0.207595
0.210287
0.211227
0.210723
0.209039
0.206396
0.202984
0.19896
0.19446
0.189589
0.184447
0.179164
0.173793
0.167988
0.161693
0.157884
0.146979
0.144194
0.15296
0.167537
0.183433
0.197838
0.209431
0.217967
0.223695
0.227016
0.228333
0.227999
0.226318
0.223545
0.219896
0.215554
0.210671
0.205378
0.199775
0.19396
0.188055
0.182103
0.175785
0.169099
0.164855
0.179464
0.175854
0.183608
0.196751
0.210929
0.223519
0.233321
0.240153
0.24429
0.246135
0.246086
0.244488
0.241639
0.237787
0.233142
0.22788
0.222148
0.21607
0.209745
0.203265
0.196746
0.190222
0.183398
0.176312
0.171608
0.211589
0.207158
0.21388
0.225566
0.238016
0.24879
0.256809
0.261951
0.264512
0.264896
0.263494
0.260648
0.256645
0.251728
0.2461
0.23993
0.233361
0.226511
0.219475
0.212341
0.205217
0.198133
0.190811
0.18332
0.17814
0.243231
0.237987
0.243662
0.253879
0.264599
0.273569
0.279822
0.283294
0.284299
0.283242
0.280509
0.276433
0.271295
0.265331
0.258736
0.251675
0.244284
0.236677
0.228943
0.221167
0.21345
0.205815
0.198006
0.19011
0.184447
0.274268
0.268222
0.272844
0.281588
0.290588
0.297771
0.302284
0.304114
0.303591
0.30112
0.297081
0.291799
0.285548
0.278558
0.271017
0.263083
0.254889
0.246541
0.238125
0.229722
0.221425
0.213254
0.204967
0.196671
0.190521
0.304582
0.297748
0.301316
0.308594
0.315892
0.321319
0.324125
0.324347
0.322329
0.318476
0.31316
0.306701
0.299365
0.291373
0.28291
0.274126
0.265149
0.25608
0.247
0.237986
0.229126
0.220431
0.211681
0.202992
0.196355
0.334057
0.326452
0.328974
0.334802
0.340426
0.344132
0.345272
0.343927
0.340455
0.335257
0.328701
0.321098
0.312707
0.303743
0.294384
0.284775
0.275038
0.26527
0.255547
0.245941
0.236533
0.227332
0.218133
0.209062
0.201942
0.362579
0.354225
0.355714
0.360116
0.364105
0.366136
0.365659
0.362795
0.357914
0.351414
0.343657
0.334947
0.325536
0.315632
0.305408
0.295003
0.284532
0.274089
0.263745
0.253567
0.243631
0.233941
0.22431
0.214868
0.207274
0.390041
0.380961
0.381437
0.384447
0.386847
0.387258
0.385218
0.38089
0.374651
0.366898
0.357985
0.348209
0.337816
0.327009
0.315952
0.304782
0.293606
0.282514
0.271573
0.260847
0.250404
0.240245
0.2302
0.2204
0.212341
0.416336
0.406559
0.40605
0.40771
0.408575
0.407427
0.403888
0.398156
0.390615
0.381661
0.371641
0.360845
0.349513
0.337842
0.325989
0.314086
0.302237
0.290525
0.279014
0.267764
0.256836
0.246228
0.23579
0.225647
0.217137
0.441366
0.430921
0.42946
0.42982
0.429215
0.426576
0.421607
0.414537
0.405757
0.395659
0.384585
0.372819
0.360594
0.3481
0.335491
0.322891
0.310402
0.298101
0.286049
0.274301
0.262911
0.251879
0.241068
0.230599
0.221653
0.465034
0.453956
0.451583
0.450701
0.448696
0.444642
0.438318
0.429981
0.420029
0.40885
0.39678
0.384096
0.371026
0.357755
0.344431
0.331174
0.31808
0.305223
0.292661
0.280442
0.268618
0.257184
0.246023
0.235245
0.225882
0.487251
0.475577
0.472337
0.470279
0.466952
0.461566
0.453967
0.44444
0.433387
0.421193
0.408187
0.394643
0.38078
0.36678
0.352786
0.338913
0.325252
0.311874
0.298832
0.286173
0.273941
0.262132
0.250644
0.239576
0.229817
0.507933
0.495701
0.491646
0.488483
0.48392
0.477291
0.468504
0.457868
0.445789
0.43265
0.418774
0.404428
0.389829
0.37515
0.360533
0.346086
0.331898
0.318036
0.304549
0.291481
0.27887
0.266712
0.254921
0.243583
0.233451
0.527002
0.514255
0.50944
0.505252
0.499543
0.491764
0.481881
0.470222
0.457198
0.443187
0.428508
0.413424
0.398145
0.382842
0.36765
0.352675
0.338002
0.323694
0.309797
0.296352
0.283392
0.270914
0.258844
0.247257
0.236778
0.544386
0.531167
0.525654
0.520525
0.513768
0.504939
0.494054
0.481463
0.467577
0.452771
0.437361
0.421603
0.405706
0.389833
0.374118
0.358663
0.343547
0.328833
0.314563
0.300775
0.287497
0.274727
0.262405
0.250591
0.239792
0.560018
0.546375
0.54023
0.53425
0.526547
0.516772
0.504986
0.491555
0.476893
0.461373
0.445305
0.428943
0.412489
0.396105
0.379919
0.364032
0.348519
0.33344
0.318835
0.304738
0.291175
0.278143
0.265595
0.253576
0.242489
0.573842
0.559822
0.553114
0.546378
0.537836
0.527223
0.51464
0.500466
0.485119
0.468967
0.452318
0.435421
0.418475
0.401639
0.385037
0.368768
0.352905
0.337503
0.322603
0.308233
0.294418
0.281156
0.268408
0.256208
0.244863
0.585804
0.571458
0.56426
0.556867
0.547598
0.536258
0.522985
0.508169
0.492228
0.47553
0.458378
0.441018
0.423646
0.406419
0.389459
0.372859
0.356693
0.341012
0.325856
0.311251
0.297218
0.283756
0.270837
0.258481
0.24691
0.59586
0.581239
0.573628
0.565681
0.555798
0.543848
0.529994
0.514638
0.498199
0.481041
0.463466
0.445717
0.427989
0.410433
0.393171
0.376294
0.359873
0.343959
0.328587
0.313785
0.299569
0.285939
0.272876
0.260388
0.248628
0.603972
0.58913
0.581184
0.572788
0.562411
0.549967
0.535645
0.519853
0.503012
0.485484
0.467568
0.449506
0.431489
0.413669
0.396164
0.379063
0.362437
0.346334
0.33079
0.315828
0.301464
0.2877
0.274521
0.261927
0.250013
0.61011
0.5951
0.586901
0.578165
0.567413
0.554596
0.53992
0.523798
0.506653
0.488845
0.470672
0.452373
0.434138
0.416118
0.398429
0.38116
0.364378
0.348133
0.332458
0.317376
0.302901
0.289035
0.275768
0.263093
0.251063
0.614252
0.599129
0.590758
0.581793
0.570788
0.557719
0.542804
0.526461
0.50911
0.491114
0.472767
0.454309
0.435928
0.417773
0.39996
0.382578
0.365692
0.349351
0.333588
0.318425
0.303874
0.28994
0.276614
0.263885
0.251776
0.616382
0.601202
0.592743
0.58366
0.572525
0.559327
0.544289
0.527832
0.510377
0.492284
0.473849
0.455309
0.436853
0.41863
0.400753
0.383313
0.366374
0.349984
0.334176
0.318971
0.304383
0.290413
0.277057
0.264301
0.252152
0.616492
0.601311
0.592848
0.583759
0.572618
0.559414
0.544371
0.527909
0.510449
0.492352
0.473913
0.45537
0.436912
0.418685
0.400807
0.383364
0.366423
0.350031
0.334221
0.319016