/*--------------------------------*- C++ -*----------------------------------*\
  =========                 |
  \\      /  F ield         | OpenFOAM: The Open Source CFD Toolbox
   \\    /   O peration     | Website:  https://openfoam.org
    \\  /    A nd           | Version:  7
     \\/     M anipulation  |
\*---------------------------------------------------------------------------*/
FoamFile
{
    version     2.0;
    format      ascii;
    class       volVectorField;
    location    "85";
    object      U;
}
// * * * * * * * * * * * * * * * * * * * * * * * * * * * * * * * * * * * * * //

dimensions      [0 1 -1 0 0 0 0];

internalField   nonuniform List<vector> 
31800
(
(-0.00055282 0.00346376 -9.42007e-21)
(-0.0032901 0.00885198 6.50338e-21)
(-0.00869677 0.0130628 -2.11744e-21)
(-0.0156703 0.0162545 9.40414e-21)
(-0.0237832 0.018583 1.05009e-20)
(-0.0326818 0.0202076 -3.43924e-21)
(-0.0420541 0.0212831 -2.48378e-21)
(-0.0516565 0.0219526 1.75669e-20)
(-0.0612997 0.0223403 -1.99927e-21)
(-0.0708391 0.0225455 2.87232e-21)
(-0.0801673 0.0226394 9.84758e-21)
(-0.0892054 0.0226648 9.63965e-21)
(-0.0978953 0.0226387 -6.08163e-21)
(-0.106193 0.0225557 -7.55727e-21)
(-0.114063 0.0223934 -2.59584e-22)
(-0.121473 0.0221163 -9.63491e-21)
(-0.128393 0.0216797 7.48341e-21)
(-0.134793 0.0210318 1.26023e-20)
(-0.140647 0.0201161 -4.71228e-21)
(-0.145937 0.0188728 2.13268e-20)
(-0.150665 0.0172402 1.34846e-21)
(-0.154874 0.0151559 -1.71739e-21)
(-0.158658 0.0125575 3.7399e-21)
(-0.16215 0.0093742 7.63256e-21)
(-0.165596 0.00550534 4.75813e-21)
(-0.000669729 0.0044662 9.69953e-21)
(-0.0035463 0.0113759 5.32074e-21)
(-0.00899335 0.0167271 -5.71988e-21)
(-0.0159443 0.0207534 -2.1716e-20)
(-0.0239881 0.0236626 1.6043e-20)
(-0.0327836 0.0256605 -7.84886e-21)
(-0.0420291 0.0269431 4.32925e-22)
(-0.0514878 0.0276889 -1.34737e-20)
(-0.0609752 0.0280525 2.81417e-21)
(-0.0703502 0.0281582 1.91228e-21)
(-0.079507 0.0280974 -4.13873e-20)
(-0.0883674 0.0279282 -6.90187e-22)
(-0.0968741 0.0276783 4.6287e-20)
(-0.104983 0.0273495 -2.32788e-20)
(-0.112659 0.0269233 -4.40844e-21)
(-0.119871 0.0263661 9.56613e-21)
(-0.126588 0.0256336 -2.01062e-20)
(-0.132781 0.0246756 -9.81574e-22)
(-0.138422 0.0234393 1.98505e-20)
(-0.143492 0.0218731 -7.27261e-20)
(-0.14799 0.0199313 -2.25761e-20)
(-0.151949 0.0175777 3.41355e-20)
(-0.155461 0.0147851 1.68843e-20)
(-0.158655 0.0115168 3.00188e-21)
(-0.161762 0.00773513 -6.72203e-21)
(-0.000833279 0.00543493 -2.01479e-20)
(-0.00390745 0.0138222 -5.40773e-22)
(-0.00941683 0.020288 -2.73707e-20)
(-0.016342 0.0251349 4.08004e-20)
(-0.0242932 0.0286196 -4.61776e-20)
(-0.0329455 0.0309911 -4.33462e-21)
(-0.0420098 0.0324844 -4.19395e-21)
(-0.0512585 0.033312 7.67495e-21)
(-0.0605134 0.0336576 2.53601e-20)
(-0.0696372 0.0336703 -4.30002e-21)
(-0.0785264 0.0334612 -7.63e-21)
(-0.087104 0.0331038 2.7378e-20)
(-0.0953129 0.032637 -4.77977e-21)
(-0.103109 0.03207 2.65533e-20)
(-0.110457 0.0313885 -5.38453e-20)
(-0.117325 0.0305609 -2.20348e-20)
(-0.123681 0.0295437 3.52427e-21)
(-0.129496 0.0282876 -7.22342e-20)
(-0.13474 0.0267424 1.97608e-20)
(-0.139387 0.0248637 4.43827e-20)
(-0.143427 0.02262 -2.82315e-20)
(-0.14688 0.0200003 -6.77057e-20)
(-0.149828 0.0170145 -3.37245e-20)
(-0.152381 0.013666 -6.32933e-20)
(-0.154734 0.00999002 -3.47152e-20)
(-0.00104059 0.00636042 9.37298e-21)
(-0.00436767 0.0161686 -1.56306e-20)
(-0.00996073 0.0237145 4.97145e-20)
(-0.0168576 0.0293632 -3.97652e-20)
(-0.024694 0.0334151 -1.03786e-20)
(-0.0331642 0.036159 -2.77395e-21)
(-0.0419944 0.0378661 3.25547e-20)
(-0.050968 0.0387812 2.31083e-20)
(-0.0599142 0.0391157 -4.07525e-20)
(-0.0687006 0.0390427 1.71008e-20)
(-0.0772263 0.0386927 1.00203e-21)
(-0.0854155 0.0381548 -7.70356e-20)
(-0.0932109 0.0374791 -2.5263e-20)
(-0.100568 0.0366826 2.04275e-21)
(-0.107451 0.0357558 1.68402e-20)
(-0.113826 0.0346691 7.69132e-20)
(-0.119661 0.0333798 8.58192e-21)
(-0.124924 0.0318388 7.29358e-20)
(-0.129578 0.0299971 7.31824e-20)
(-0.133592 0.0278154 -9.05542e-21)
(-0.136942 0.0252737 3.27893e-20)
(-0.139627 0.022384 -1.28211e-20)
(-0.141714 0.0191951 4.19526e-20)
(-0.143282 0.01576 1.40202e-19)
(-0.144442 0.0121971 2.18573e-20)
(-0.00128807 0.00723396 1.59889e-20)
(-0.00491966 0.0183941 -5.81477e-20)
(-0.010617 0.0269781 7.50155e-20)
(-0.0174838 0.0334043 2.76395e-20)
(-0.0251846 0.0380116 2.16361e-20)
(-0.0334357 0.0411248 2.30095e-20)
(-0.0419808 0.0430482 -1.22496e-19)
(-0.0506158 0.0440562 4.55856e-20)
(-0.0591785 0.0443868 4.73961e-20)
(-0.067542 0.0442358 -7.00302e-20)
(-0.0756084 0.0437532 7.25202e-20)
(-0.083303 0.0430431 3.96424e-20)
(-0.0905683 0.0421674 4.91503e-20)
(-0.0973589 0.0411513 -3.33345e-20)
(-0.103637 0.0399901 -7.42251e-21)
(-0.109367 0.038657 1.62121e-19)
(-0.114514 0.0371097 -6.99818e-20)
(-0.119042 0.0352983 5.44412e-20)
(-0.122909 0.0331739 -1.31618e-19)
(-0.126074 0.0306989 -5.33797e-20)
(-0.128493 0.0278612 5.05787e-20)
(-0.130143 0.0246919 8.87562e-20)
(-0.131069 0.0212795 1.53014e-20)
(-0.131306 0.0177386 -1.16009e-19)
(-0.130807 0.0142784 -8.19011e-20)
(-0.00157152 0.00804779 -6.29844e-20)
(-0.00555484 0.0204802 -2.03581e-20)
(-0.0113762 0.0300522 -4.44894e-20)
(-0.0182121 0.0372262 -4.30517e-20)
(-0.0257585 0.0423738 3.08872e-20)
(-0.0337558 0.045851 -5.52188e-20)
(-0.0419669 0.0479917 -3.58614e-20)
(-0.0502016 0.0490974 -1.77948e-19)
(-0.0583074 0.0494312 7.82314e-21)
(-0.0661633 0.0492104 -1.84438e-21)
(-0.0736749 0.0486035 -1.36564e-19)
(-0.0807685 0.0477301 -4.66608e-20)
(-0.0873858 0.0466638 -5.78607e-20)
(-0.0934798 0.0454384 1.12124e-19)
(-0.0990098 0.0440548 3.23767e-20)
(-0.103938 0.0424887 -8.83246e-20)
(-0.108225 0.0406986 -9.90169e-20)
(-0.111829 0.0386332 2.7706e-20)
(-0.114703 0.0362414 1.09024e-19)
(-0.116791 0.0334844 -2.37834e-20)
(-0.118033 0.0303529 -1.43612e-20)
(-0.118372 0.0268913 -6.76617e-20)
(-0.117828 0.0232256 -8.58272e-20)
(-0.116396 0.0195464 7.01977e-20)
(-0.113732 0.0161514 4.74585e-20)
(-0.00188628 0.00879534 3.26621e-20)
(-0.00626364 0.0224104 3.83976e-20)
(-0.0122278 0.0329133 -3.03031e-20)
(-0.019033 0.0408001 -6.26559e-20)
(-0.0264083 0.0464688 9.75017e-21)
(-0.0341194 0.0503019 7.34613e-20)
(-0.0419501 0.0526589 1.05557e-19)
(-0.049725 0.0538663 1.44209e-19)
(-0.0573021 0.0542095 2.51904e-20)
(-0.064567 0.0539266 3.31916e-20)
(-0.0714288 0.0532041 4.029e-20)
(-0.0778144 0.0521764 1.54529e-19)
(-0.0836647 0.0509291 -8.91951e-21)
(-0.0889298 0.049505 -1.98645e-19)
(-0.0935654 0.0479109 1.4338e-19)
(-0.0975291 0.046126 5.71612e-20)
(-0.100777 0.0441091 1.81051e-19)
(-0.10326 0.0418074 -7.40263e-20)
(-0.104922 0.0391661 -8.58693e-20)
(-0.105696 0.0361415 2.45508e-19)
(-0.1055 0.0327215 -8.29729e-20)
(-0.104244 0.0289555 -1.26893e-19)
(-0.101912 0.0250002 -3.4415e-20)
(-0.0984847 0.0211369 -1.07934e-19)
(-0.093094 0.0177272 1.77129e-20)
(-0.00222734 0.00947131 8.13137e-21)
(-0.00703575 0.024171 -1.60268e-20)
(-0.0131605 0.0355409 3.26602e-21)
(-0.0199361 0.0441 -1.14262e-19)
(-0.0271256 0.0502664 -8.86015e-20)
(-0.034521 0.0544439 -1.67139e-20)
(-0.0419275 0.0570142 -4.32409e-20)
(-0.0491855 0.0583252 -7.85601e-20)
(-0.0561639 0.0586832 -1.76531e-20)
(-0.0627556 0.0583453 -8.81176e-21)
(-0.0688729 0.0575151 -8.34137e-20)
(-0.0744435 0.0563417 3.61229e-20)
(-0.0794062 0.0549228 2.71513e-20)
(-0.0837077 0.0533103 1.45982e-19)
(-0.0872985 0.0515176 -2.81105e-21)
(-0.0901301 0.0495278 -8.85314e-20)
(-0.0921515 0.0473007 -9.61523e-21)
(-0.0933057 0.0447818 3.86006e-20)
(-0.0935258 0.0419113 1.58288e-19)
(-0.0927312 0.0386378 -1.17587e-19)
(-0.0908219 0.0349404 3.11867e-19)
(-0.0876701 0.0308636 1.3071e-19)
(-0.083211 0.026581 -9.96057e-20)
(-0.0774926 0.0224767 1.92179e-19)
(-0.0687338 0.0189207 1.12648e-19)
(-0.0025895 0.0100718 1.00208e-20)
(-0.0078604 0.0257514 5.05329e-20)
(-0.0141621 0.037918 1.43314e-19)
(-0.0209105 0.0471035 1.784e-19)
(-0.0279018 0.0537396 1.06053e-19)
(-0.0349546 0.0582463 -7.44385e-20)
(-0.0418958 0.0610236 1.81157e-19)
(-0.0485821 0.062438 2.05558e-20)
(-0.0548939 0.0628144 -1.08145e-19)
(-0.0607312 0.0624274 1.18597e-20)
(-0.0660098 0.0614967 2.00765e-19)
(-0.0706576 0.0601855 -2.14677e-19)
(-0.0746108 0.0586035 -1.22678e-19)
(-0.077811 0.0568122 -2.48866e-20)
(-0.0802022 0.0548322 -2.01519e-19)
(-0.0817276 0.0526509 -1.31684e-19)
(-0.0823269 0.05023 2.34582e-20)
(-0.0819325 0.0475135 -2.75427e-19)
(-0.0804656 0.0444365 2.79456e-20)
(-0.0778309 0.040938 -1.3278e-19)
(-0.0739096 0.0369827 -1.64989e-19)
(-0.0685396 0.0325999 1.54887e-19)
(-0.0615827 0.0279557 1.74877e-19)
(-0.0533126 0.0235429 -1.36843e-19)
(-0.0404651 0.0197564 1.89633e-19)
(-0.00296757 0.0105943 -1.20097e-19)
(-0.00872668 0.0271438 8.80085e-20)
(-0.0152206 0.0400317 -6.3851e-21)
(-0.0219447 0.0497922 3.51803e-20)
(-0.0287275 0.0568648 3.32793e-20)
(-0.0354132 0.0616813 1.49136e-19)
(-0.0418507 0.0646557 -1.08199e-19)
(-0.0479128 0.0661705 -2.0171e-19)
(-0.0534918 0.0665666 1.01055e-19)
(-0.0584946 0.0661347 9.43317e-20)
(-0.0628406 0.0651092 -3.18581e-19)
(-0.066457 0.0636669 2.2415e-19)
(-0.0692767 0.0619294 3.407e-19)
(-0.0712348 0.0599679 2.33236e-20)
(-0.0722665 0.0578105 -6.03709e-20)
(-0.0723045 0.05545 1.73254e-19)
(-0.0712764 0.0528507 -8.00545e-20)
(-0.0691011 0.0499562 3.5977e-19)
(-0.0656847 0.0466972 -3.1825e-19)
(-0.0609156 0.0430024 5.8155e-20)
(-0.0546563 0.0388184 -3.03058e-20)
(-0.0467198 0.0341518 -9.88079e-20)
(-0.036845 0.0291255 -9.63464e-20)
(-0.0257352 0.0242979 7.99283e-20)
(-0.00821346 0.0205394 2.18161e-20)
(-0.00335649 0.011038 7.84882e-20)
(-0.00962383 0.0283438 -5.64194e-20)
(-0.0163235 0.0418725 4.66422e-20)
(-0.0230269 0.0521515 -1.56888e-19)
(-0.0295926 0.0596225 -3.46432e-20)
(-0.0358893 0.0647243 1.76418e-20)
(-0.0417868 0.067882 -3.99008e-20)
(-0.0471744 0.0694906 -6.60385e-20)
(-0.0519555 0.069905 2.07961e-20)
(-0.0560446 0.06943 -1.10321e-19)
(-0.0593636 0.0683137 2.05765e-19)
(-0.0618389 0.0667456 -4.72814e-20)
(-0.0633983 0.0648588 -1.20967e-19)
(-0.0639691 0.0627342 -1.24012e-19)
(-0.0634755 0.060408 1.64588e-19)
(-0.0618368 0.057879 8.95548e-20)
(-0.0589649 0.0551153 3.56632e-20)
(-0.0547615 0.0520615 -3.00351e-19)
(-0.0491141 0.0486453 3.14311e-19)
(-0.0418911 0.0447866 -1.03095e-19)
(-0.0329337 0.0404132 -4.82044e-20)
(-0.0220521 0.0355068 -3.79516e-20)
(-0.00880797 0.030125 -4.23443e-20)
(0.00564976 0.0247793 1.35821e-19)
(0.0280909 0.0210145 -2.23826e-19)
(-0.00375152 0.0114034 -2.91572e-20)
(-0.0105415 0.0293501 1.25994e-19)
(-0.0174589 0.0434351 -1.79982e-19)
(-0.0241455 0.0541711 7.21482e-20)
(-0.0304867 0.0619967 3.98225e-20)
(-0.0363739 0.0673546 -6.02971e-20)
(-0.0416971 0.0706768 1.75651e-19)
(-0.046361 0.0723687 4.26431e-20)
(-0.0502804 0.0727967 2.0045e-20)
(-0.0533763 0.0722779 1.72589e-19)
(-0.055573 0.0710727 -7.07518e-20)
(-0.0567949 0.0693824 7.49961e-20)
(-0.0569636 0.0673509 -7.97157e-20)
(-0.0559964 0.0650689 -5.06293e-21)
(-0.053804 0.062581 -8.72064e-20)
(-0.0502891 0.0598924 -3.02522e-19)
(-0.045344 0.0569764 6.24911e-20)
(-0.0388485 0.0537803 2.43131e-19)
(-0.0306665 0.0502312 -8.41264e-20)
(-0.0206428 0.046243 4.09263e-19)
(-0.00858752 0.0417271 -2.28086e-19)
(0.00566884 0.0366443 -6.5929e-20)
(0.0227771 0.0309572 -1.11414e-19)
(0.0409785 0.0251286 3.73438e-21)
(0.0693664 0.0209536 -1.00595e-19)
(-0.00414838 0.0116924 -8.73992e-20)
(-0.0114702 0.0301646 -1.29848e-19)
(-0.0186153 0.0447183 -6.97271e-20)
(-0.0252884 0.0558447 6.55547e-20)
(-0.0313984 0.0639761 2.04739e-20)
(-0.0368567 0.069555 1.18165e-20)
(-0.0415721 0.0730181 4.51863e-20)
(-0.0454639 0.0747784 -2.20141e-19)
(-0.0484574 0.0752117 7.28345e-20)
(-0.0504796 0.0746454 -1.50807e-19)
(-0.0514564 0.0733509 -5.47533e-20)
(-0.0513088 0.0715401 -7.38961e-20)
(-0.0499508 0.0693671 -1.56777e-19)
(-0.0472873 0.066932 3.22721e-19)
(-0.0432125 0.064288 1.83489e-19)
(-0.0376089 0.0614475 4.93412e-20)
(-0.0303448 0.05839 1.54695e-19)
(-0.021273 0.0550669 -2.24936e-19)
(-0.010228 0.0514078 -5.57821e-20)
(0.00297367 0.0473248 -2.66605e-19)
(0.0185675 0.0427175 1.03076e-19)
(0.0366613 0.0375325 2.28538e-19)
(0.0582717 0.0316154 1.05125e-19)
(0.0804896 0.0254572 -2.00205e-19)
(0.116043 0.0206544 2.52335e-19)
(-0.00454337 0.0119083 -3.11774e-20)
(-0.0124012 0.0307919 8.15904e-21)
(-0.0197816 0.0457243 8.83535e-20)
(-0.0264437 0.0571704 1.57684e-19)
(-0.0323153 0.0655531 -1.05513e-19)
(-0.0373253 0.0713127 1.01737e-19)
(-0.0413993 0.0748878 -7.97989e-20)
(-0.0444699 0.0766969 3.01481e-19)
(-0.0464717 0.0771232 -2.1138e-19)
(-0.0473373 0.0765027 4.54705e-20)
(-0.0469924 0.075116 1.96433e-19)
(-0.0453534 0.0731846 -2.71411e-20)
(-0.0423243 0.0708721 2.11754e-20)
(-0.0377953 0.0682876 -2.62366e-19)
(-0.0316408 0.0654925 -2.22841e-19)
(-0.0237187 0.0625075 -8.45539e-21)
(-0.0138688 0.0593186 -2.46687e-19)
(-0.00191128 0.0558837 9.09474e-20)
(0.0123553 0.0521371 -1.2652e-19)
(0.0291454 0.0479939 1.67096e-19)
(0.0487642 0.043349 -2.26298e-19)
(0.0711846 0.0381457 1.37456e-19)
(0.0980514 0.0321278 -1.15578e-19)
(0.124533 0.0257625 1.57403e-19)
(0.168587 0.0203861 -9.13536e-21)
(-0.00493349 0.0120557 1.70705e-19)
(-0.013327 0.0312395 4.33148e-20)
(-0.0209476 0.046459 -9.78594e-20)
(-0.0275994 0.0581501 -1.174e-19)
(-0.033224 0.0667248 7.9217e-20)
(-0.0377647 0.072619 -2.90321e-19)
(-0.0411619 0.0762719 4.13825e-19)
(-0.0433598 0.0781055 8.05202e-20)
(-0.0443012 0.0785085 1.33432e-19)
(-0.0439222 0.0778239 1.63118e-19)
(-0.0421473 0.07634 1.02903e-19)
(-0.038886 0.0742868 -7.72052e-20)
(-0.0340299 0.071836 -2.63461e-21)
(-0.0274511 0.0691057 -3.77776e-20)
(-0.0190004 0.0661656 -1.13229e-19)
(-0.00850694 0.0630445 2.54416e-19)
(0.00422329 0.0597365 5.20635e-19)
(0.0194082 0.0562072 3.15416e-20)
(0.0372917 0.0523984 1.81237e-19)
(0.0581188 0.0482319 -9.46447e-20)
(0.0822992 0.0436074 1.15551e-19)
(0.109553 0.0384679 -6.81692e-19)
(0.142532 0.0325265 3.26444e-19)
(0.173473 0.026066 2.03136e-19)
(0.227515 0.0203721 -1.36231e-19)
(-0.0053165 0.0121399 -1.02347e-19)
(-0.0142411 0.0315171 -1.758e-19)
(-0.0221039 0.0469317 1.6861e-19)
(-0.0287428 0.0587899 1.10381e-19)
(-0.0341089 0.0674921 5.9337e-20)
(-0.0381565 0.0734697 2.09985e-19)
(-0.0408379 0.0771611 -2.17883e-19)
(-0.0421073 0.0789903 -2.00919e-19)
(-0.0419136 0.07935 -1.31893e-19)
(-0.0401947 0.0785886 -3.09866e-19)
(-0.0368716 0.0770007 5.99766e-20)
(-0.0318442 0.0748234 -2.44753e-20)
(-0.0249887 0.0722363 4.42903e-19)
(-0.016155 0.0693654 1.82627e-19)
(-0.00516625 0.066289 1.31584e-19)
(0.00818235 0.0630444 -4.12959e-20)
(0.0241237 0.0596347 -2.38244e-19)
(0.0429185 0.0560347 -1.93843e-19)
(0.06486 0.0521966 -2.28104e-19)
(0.0902155 0.0480511 1.63927e-19)
(0.119547 0.0435173 3.11231e-19)
(0.152147 0.0385119 3.50793e-19)
(0.192174 0.0328781 -3.32912e-19)
(0.227675 0.0264093 1.44547e-19)
(0.293269 0.0208446 1.96063e-19)
(-0.00569098 0.0121672 -2.69541e-19)
(-0.0151384 0.0316362 1.49952e-19)
(-0.0232413 0.0471542 -2.55532e-19)
(-0.0298608 0.0590988 3.13924e-19)
(-0.0349523 0.0678602 -2.9988e-19)
(-0.0384777 0.0738653 -8.97379e-20)
(-0.0403986 0.077551 -1.67185e-19)
(-0.0406766 0.0793427 9.40158e-20)
(-0.0392645 0.0796357 -1.6099e-19)
(-0.0360994 0.0787825 1.7617e-19)
(-0.0310958 0.0770828 -2.31161e-19)
(-0.0241408 0.0747797 -1.71649e-19)
(-0.0150908 0.07206 5.88088e-21)
(-0.00376952 0.0690574 -2.64401e-19)
(0.0100329 0.0658588 5.4722e-21)
(0.0265602 0.0625108 -2.68932e-19)
(0.0460892 0.0590266 -1.64098e-20)
(0.0689271 0.0553919 -2.9534e-19)
(0.095421 0.0515722 1.03546e-19)
(0.125843 0.047506 4.54134e-19)
(0.160965 0.0431588 -4.39023e-19)
(0.199418 0.0383411 2.17413e-19)
(0.247446 0.0333131 2.40483e-19)
(0.287503 0.0268632 -1.16594e-19)
(0.366083 0.0220493 4.72171e-20)
(-0.00605628 0.0121444 1.39688e-19)
(-0.0160148 0.03161 -3.93995e-20)
(-0.0243512 0.0471405 8.6647e-20)
(-0.030939 0.0590892 -2.52511e-19)
(-0.0357332 0.0678381 4.04506e-19)
(-0.0387 0.0738106 2.63675e-20)
(-0.0398071 0.0774426 2.92251e-19)
(-0.0390206 0.0791602 -1.52448e-19)
(-0.0362944 0.0793607 1.03331e-19)
(-0.0315615 0.0783994 1.35957e-19)
(-0.024726 0.0765802 1.24789e-19)
(-0.0156579 0.0741515 3.95045e-19)
(-0.0041891 0.0713067 -1.0015e-19)
(0.0098883 0.0681874 -1.0094e-19)
(0.0268226 0.0648896 -7.93861e-20)
(0.0469016 0.0614701 -7.08936e-21)
(0.0704501 0.0579538 -1.68053e-19)
(0.0978222 0.0543391 1.48657e-19)
(0.12942 0.0506084 -2.00683e-19)
(0.165492 0.0467018 8.28102e-20)
(0.207072 0.0426787 -1.18276e-19)
(0.251867 0.0380882 1.51631e-20)
(0.308752 0.0340355 -5.63084e-19)
(0.353275 0.0275664 5.97566e-20)
(0.445818 0.0242321 -2.46782e-21)
(-0.00641248 0.0120786 1.86215e-19)
(-0.0168671 0.0314521 -1.25579e-19)
(-0.0254247 0.0469065 -8.84693e-20)
(-0.0319614 0.0587762 -5.34459e-20)
(-0.036427 0.0674382 -1.74895e-19)
(-0.0387885 0.0733152 -2.95045e-19)
(-0.0390167 0.0768425 -9.62898e-20)
(-0.0370787 0.078447 3.29373e-19)
(-0.0329259 0.0785277 -1.02891e-19)
(-0.0264831 0.077442 -2.22447e-19)
(-0.0176392 0.0754974 -1.34354e-19)
(-0.00624188 0.0729473 -4.03964e-19)
(0.00790729 0.0699916 -4.40608e-19)
(0.0250538 0.0667801 3.31443e-19)
(0.0454898 0.0634189 6.84178e-20)
(0.0695514 0.0599767 5.4689e-20)
(0.0976127 0.0564919 5.74375e-19)
(0.13007 0.0529773 8.79079e-20)
(0.167376 0.0494375 5.56103e-19)
(0.209711 0.0457995 -6.69873e-19)
(0.258399 0.0422896 3.14846e-19)
(0.309986 0.0379682 -2.8723e-19)
(0.376302 0.0353047 4.53568e-19)
(0.425171 0.0287562 -6.85304e-19)
(0.531769 0.0276191 1.43758e-19)
(-0.00676028 0.0119768 -4.72495e-20)
(-0.0176928 0.0311768 -1.00304e-19)
(-0.0264525 0.0464689 -9.23628e-20)
(-0.0329091 0.0581762 3.14625e-20)
(-0.0370038 0.0666766 -4.95105e-20)
(-0.0387001 0.0723931 1.86797e-19)
(-0.0379689 0.075763 -6.68592e-20)
(-0.0347743 0.0772146 -1.41148e-19)
(-0.0290609 0.0771483 -5.78097e-20)
(-0.0207398 0.0759239 2.93569e-21)
(-0.00967952 0.073852 3.71024e-19)
(0.00430146 0.0711912 -3.25838e-19)
(0.021438 0.0681482 4.74534e-19)
(0.0420192 0.0648824 -1.37648e-19)
(0.0663858 0.0615112 -2.40149e-19)
(0.0949238 0.0581172 1.99012e-19)
(0.128053 0.0547545 -2.19347e-19)
(0.166201 0.051452 -3.71853e-19)
(0.209847 0.0482425 -1.39338e-19)
(0.259054 0.0450155 1.32108e-19)
(0.315398 0.0422552 2.11583e-19)
(0.374151 0.0382796 4.13484e-19)
(0.449947 0.0373917 2.47602e-20)
(0.503068 0.0307626 2.89762e-19)
(0.622484 0.0323842 -9.52949e-20)
(-0.00710082 0.0118458 -2.3133e-20)
(-0.0184894 0.0307979 2.19385e-19)
(-0.0274242 0.0458448 2.2648e-19)
(-0.0337604 0.0573082 -1.01531e-19)
(-0.0374276 0.0655717 7.12732e-20)
(-0.0383826 0.0710625 -2.64996e-19)
(-0.0365921 0.0742224 5.27242e-20)
(-0.0320132 0.0754822 4.25848e-20)
(-0.0245778 0.0752443 -1.24123e-19)
(-0.0141779 0.0738708 -3.41789e-20)
(-0.000654168 0.0716763 -4.64884e-19)
(0.0162104 0.068925 1.48163e-19)
(0.0366941 0.065832 -2.24252e-20)
(0.0611348 0.0625672 -5.12071e-21)
(0.0899239 0.0592619 -2.15911e-20)
(0.123494 0.0560144 -4.68409e-21)
(0.162298 0.0528969 -1.94884e-20)
(0.206769 0.0499545 2.5791e-19)
(0.257373 0.047254 -2.3083e-19)
(0.313996 0.0446176 2.10808e-19)
(0.378324 0.0428629 -3.13052e-19)
(0.444467 0.0393863 -1.51743e-19)
(0.52903 0.0405281 4.46451e-20)
(0.586316 0.0339518 -2.4716e-19)
(0.715695 0.0386025 -8.15151e-20)
(-0.0074355 0.0116917 -2.19571e-19)
(-0.0192542 0.0303281 -2.76414e-20)
(-0.0283274 0.0450515 -2.79776e-19)
(-0.0344895 0.0561915 -2.24835e-19)
(-0.0376555 0.0641441 2.97831e-19)
(-0.0377731 0.0693461 2.04015e-19)
(-0.0347998 0.0722455 -9.00849e-20)
(-0.0286809 0.0732775 -8.06645e-20)
(-0.0193295 0.0728477 -6.01272e-20)
(-0.00661123 0.0713219 5.19693e-19)
(0.00966818 0.0690191 2.00195e-19)
(0.0297688 0.066211 2.82881e-19)
(0.0540177 0.0631224 -1.5664e-20)
(0.0828046 0.0599362 5.53686e-20)
(0.116568 0.0567997 1.53257e-19)
(0.155776 0.0538289 -3.60179e-19)
(0.20089 0.0511151 5.70648e-19)
(0.252302 0.048718 6.07839e-20)
(0.310396 0.0467399 -1.8734e-19)
(0.374821 0.0449107 -2.84254e-19)
(0.447111 0.044391 -1.54249e-19)
(0.520576 0.0416683 3.47351e-19)
(0.6123 0.0448681 -1.13644e-20)
(0.673543 0.0386283 1.84324e-19)
(0.808433 0.0462004 2.23097e-19)
(-0.00776573 0.0115197 1.67482e-19)
(-0.0199835 0.0297792 1.75199e-20)
(-0.0291467 0.0441047 -3.77408e-20)
(-0.0350652 0.0548455 3.97049e-20)
(-0.0376366 0.0624169 -2.83233e-19)
(-0.0367966 0.0672701 3.7718e-19)
(-0.0324894 0.069863 -9.19539e-22)
(-0.0246419 0.0706369 3.07506e-19)
(-0.013142 0.0700026 1.31265e-20)
(0.00217893 0.0683309 -1.05505e-19)
(0.0215577 0.0659477 1.66238e-19)
(0.0453039 0.0631333 -5.58824e-19)
(0.0737969 0.0601248 -3.45154e-19)
(0.107475 0.0571216 -1.72362e-19)
(0.146814 0.0542877 -7.46725e-20)
(0.19229 0.0517578 6.87095e-21)
(0.244331 0.0496417 -3.69762e-19)
(0.303224 0.0480083 1.41053e-19)
(0.36916 0.046987 5.44759e-19)
(0.441492 0.0462103 1.50577e-19)
(0.521246 0.0470798 3.66879e-19)
(0.601496 0.0454448 -3.65034e-19)
(0.697914 0.0504672 -8.59853e-20)
(0.762563 0.0449326 -1.45678e-19)
(0.897361 0.0549255 -7.79005e-19)
(-0.00809248 0.011334 -1.56887e-19)
(-0.0206723 0.0291608 7.9569e-20)
(-0.0298637 0.043019 1.41478e-19)
(-0.0354502 0.0532894 4.91916e-19)
(-0.0373108 0.0604144 1.85221e-19)
(-0.0353657 0.0648648 -4.11353e-19)
(-0.0295409 0.0671116 -1.03782e-19)
(-0.0197387 0.0676055 -5.45261e-20)
(-0.00581411 0.0667647 -1.79545e-19)
(0.0124437 0.0649672 -5.88686e-20)
(0.0353207 0.0625481 -1.21873e-19)
(0.0631799 0.0597994 4.45711e-19)
(0.0964525 0.0569733 5.33148e-19)
(0.135615 0.0542865 2.68936e-19)
(0.181155 0.0519212 -1.3748e-19)
(0.233514 0.0500302 -9.67147e-20)
(0.293019 0.048736 2.13508e-19)
(0.359761 0.0481073 -4.8786e-20)
(0.433603 0.0482765 -3.86554e-21)
(0.51353 0.0488011 1.19169e-19)
(0.599701 0.0511073 -1.71123e-19)
(0.68554 0.0508916 -2.98961e-19)
(0.783549 0.057269 -2.01256e-19)
(0.850495 0.0527757 2.54779e-19)
(0.979241 0.0643536 8.15035e-19)
(-0.00841612 0.0111374 1.25204e-19)
(-0.0213131 0.0284801 4.25662e-19)
(-0.0304553 0.0418068 1.70231e-19)
(-0.0356006 0.0515418 -1.50849e-19)
(-0.0366081 0.0581621 2.10437e-19)
(-0.0333794 0.0621634 2.31799e-19)
(-0.0258171 0.064034 2.59946e-19)
(-0.0137921 0.0642373 -1.46544e-20)
(0.00288146 0.0632018 2.04649e-19)
(0.0244633 0.0613157 -6.30511e-19)
(0.0512937 0.0589262 3.57067e-19)
(0.0837888 0.05634 -1.90217e-19)
(0.122422 0.0538268 -4.81579e-19)
(0.167686 0.0516206 -3.50539e-19)
(0.220038 0.0499224 5.73082e-19)
(0.279823 0.0488969 -1.97071e-19)
(0.347167 0.0486682 -9.753e-20)
(0.421851 0.0492897 7.5467e-20)
(0.50326 0.0508545 -3.83339e-19)
(0.58993 0.0528884 3.13269e-19)
(0.680902 0.0565653 -5.08145e-20)
(0.770387 0.0579854 3.70832e-19)
(0.866605 0.0650928 4.32278e-19)
(0.934129 0.0618406 -1.49001e-19)
(1.05141 0.0739457 -2.98952e-19)
(-0.00873602 0.0109314 -6.52669e-20)
(-0.0218957 0.0277417 -2.41495e-19)
(-0.0308936 0.0404784 6.36258e-21)
(-0.0354649 0.0496201 -1.21919e-19)
(-0.0354482 0.0556859 -3.59235e-19)
(-0.0307232 0.059202 -1.85834e-19)
(-0.0211637 0.0606785 1.02267e-19)
(-0.0066022 0.060595 -3.19072e-19)
(0.0131948 0.0593936 2.52024e-20)
(0.0385415 0.0574767 1.57349e-19)
(0.0698332 0.0552063 -4.52577e-19)
(0.107532 0.0529067 -1.49045e-19)
(0.152132 0.0508663 3.85701e-19)
(0.204105 0.0493368 2.61516e-19)
(0.263816 0.0485314 -3.39185e-19)
(0.331417 0.0486161 3.65547e-19)
(0.40672 0.0496979 1.52653e-19)
(0.48906 0.0517925 -3.88491e-20)
(0.577205 0.0549 -3.32311e-20)
(0.669155 0.0585542 -3.32458e-19)
(0.7628 0.0634335 3.68162e-20)
(0.853316 0.0664979 -6.34777e-20)
(0.944488 0.0736327 -3.37617e-19)
(1.01044 0.0716509 -2.48709e-19)
(1.11211 0.0831376 -2.32676e-19)
(-0.00905031 0.0107159 -4.10432e-20)
(-0.022406 0.0269475 -5.36647e-19)
(-0.0311449 0.0390417 -3.31629e-19)
(-0.0349835 0.0475401 -4.22898e-19)
(-0.0337401 0.053012 3.73886e-19)
(-0.0272693 0.0560194 3.01587e-20)
(-0.0154105 0.0570984 2.71092e-19)
(0.00204835 0.0567491 -2.4801e-19)
(0.0253941 0.0554314 4.12904e-19)
(0.0549969 0.0535646 1.54897e-19)
(0.091302 0.0515298 1.27299e-20)
(0.134799 0.0496703 -2.43619e-20)
(0.18597 0.0482927 -8.62229e-20)
(0.245203 0.0476618 -7.49638e-20)
(0.312683 0.0479926 8.08042e-20)
(0.388258 0.0494341 1.14613e-19)
(0.471289 0.0520487 -7.3035e-19)
(0.560531 0.0557839 4.59382e-20)
(0.654038 0.0604944 -1.21314e-19)
(0.749223 0.0657338 -1.12936e-19)
(0.84303 0.0715609 5.69713e-20)
(0.931549 0.0760339 -3.70455e-19)
(1.01493 0.0824923 1.69637e-19)
(1.07708 0.0816888 2.15308e-19)
(1.16064 0.0914322 -4.8878e-19)
(-0.00935553 0.0104893 9.58682e-20)
(-0.0228262 0.0260967 3.88385e-19)
(-0.031169 0.0375016 3.34966e-20)
(-0.0340885 0.0453163 6.14455e-19)
(-0.0313824 0.0501667 -3.89975e-19)
(-0.0228774 0.0526563 3.82167e-19)
(-0.0083737 0.0533518 -3.42723e-19)
(0.0123907 0.0527779 1.35061e-19)
(0.0397582 0.0514162 -1.74462e-19)
(0.0741516 0.0497071 2.30336e-19)
(0.116051 0.0480525 3.82401e-19)
(0.165943 0.0468156 1.98381e-19)
(0.224241 0.0463169 7.952e-20)
(0.291169 0.0468249 8.69828e-20)
(0.366623 0.0485384 -6.65279e-20)
(0.450011 0.0515631 -5.34084e-20)
(0.540109 0.0558809 5.95917e-19)
(0.634982 0.061335 1.96613e-19)
(0.731956 0.0675969 5.46604e-19)
(0.827882 0.0742175 1.41728e-20)
(0.91916 0.0806697 -3.47073e-19)
(1.00264 0.0860962 4.33307e-19)
(1.07628 0.0912628 5.48053e-19)
(1.13264 0.0915277 7.08655e-20)
(1.19718 0.0984486 4.80706e-19)
(-0.00964633 0.0102484 -2.72002e-19)
(-0.0231339 0.0251859 1.50734e-19)
(-0.0309194 0.0358609 3.31257e-19)
(-0.0327036 0.0429614 -1.30338e-19)
(-0.0282641 0.0471762 -3.87847e-19)
(-0.0173969 0.0491554 -2.86133e-20)
(0.000141039 0.049501 2.09811e-20)
(0.024664 0.0487661 3.76072e-20)
(0.0565681 0.0474583 -2.41291e-19)
(0.0963169 0.0460419 -1.02318e-19)
(0.144398 0.0449409 -3.57098e-19)
(0.201248 0.0445351 -8.8829e-21)
(0.267134 0.045151 -1.00723e-19)
(0.342013 0.0470438 -3.05463e-20)
(0.425359 0.0503702 2.67942e-19)
(0.516008 0.0551578 -3.93338e-19)
(0.612035 0.0612682 1.65829e-19)
(0.710772 0.0684023 -2.63412e-19)
(0.808894 0.0760356 -3.94727e-19)
(0.902856 0.0836785 7.26277e-20)
(0.988994 0.090388 7.38583e-19)
(1.0648 0.0961592 -3.755e-19)
(1.1277 0.099635 1.55255e-20)
(1.17665 0.100906 3.25346e-19)
(1.22266 0.103849 1.82627e-19)
(-0.00991511 0.00998887 1.28095e-19)
(-0.0233018 0.0242098 -1.81904e-19)
(-0.0303429 0.0341202 -3.85494e-19)
(-0.0307446 0.0404869 -2.04839e-19)
(-0.0242653 0.0440669 2.23891e-19)
(-0.0106682 0.0455615 7.62201e-20)
(0.0103347 0.0456119 4.45333e-19)
(0.0391092 0.0448043 1.80633e-19)
(0.0760959 0.0436751 1.14215e-19)
(0.121777 0.0427147 5.32429e-20)
(0.176606 0.0423671 3.69145e-19)
(0.240899 0.043022 1.67085e-19)
(0.314683 0.044997 -1.38535e-19)
(0.397519 0.0485094 1.98423e-19)
(0.488327 0.0536394 -1.14634e-19)
(0.585245 0.0602956 1.45964e-19)
(0.685595 0.0681804 -1.42122e-19)
(0.78602 0.0768238 -3.09626e-19)
(0.882737 0.0855208 4.51703e-19)
(0.972097 0.0937193 -4.74037e-19)
(1.05084 0.100298 1.33868e-19)
(1.11712 0.10575 -1.55687e-19)
(1.16919 0.107494 -1.17834e-19)
(1.20944 0.109577 -9.70907e-19)
(1.23857 0.107144 1.53245e-19)
(-0.0101522 0.00970571 2.61726e-20)
(-0.0232977 0.0231611 1.30349e-19)
(-0.0293796 0.0322784 4.32504e-19)
(-0.0281198 0.0379035 -1.02023e-19)
(-0.0192587 0.0408655 -4.44382e-20)
(-0.00252627 0.0419209 8.26583e-20)
(0.02241 0.0417542 7.36652e-20)
(0.0559605 0.0409879 -2.90086e-19)
(0.098593 0.0401897 -1.34747e-19)
(0.150772 0.0398753 -4.16016e-19)
(0.212859 0.0405037 -3.1426e-19)
(0.284957 0.0424616 -2.24294e-19)
(0.366735 0.0460349 2.00661e-19)
(0.457227 0.0513702 -2.93181e-19)
(0.554667 0.0584301 -1.41424e-19)
(0.656425 0.066962 -6.19263e-20)
(0.759092 0.0764795 -4.51153e-20)
(0.85878 0.0863335 9.26658e-19)
(0.951547 0.0956812 5.86566e-20)
(1.03401 0.103928 -8.16754e-20)
(1.10368 0.109989 -4.62995e-19)
(1.15953 0.114542 1.50478e-19)
(1.20134 0.114879 1.6175e-20)
(1.23208 0.116898 5.55493e-19)
(1.24738 0.108014 6.0604e-20)
(-0.010346 0.00939316 2.06875e-19)
(-0.0230843 0.0220314 -1.9895e-19)
(-0.0279635 0.030334 -3.02078e-19)
(-0.024731 0.0352218 3.03311e-19)
(-0.0131116 0.0375996 -6.76848e-20)
(0.00719676 0.0382824 -5.86548e-20)
(0.036566 0.038001 5.1152e-20)
(0.0754376 0.0374167 -7.31989e-20)
(0.124277 0.0371289 1.83626e-19)
(0.183481 0.0376747 1.19095e-19)
(0.253235 0.0395179 3.08671e-19)
(0.333326 0.0430219 -8.31776e-21)
(0.42293 0.0484105 2.53587e-19)
(0.52042 0.0557182 -1.69226e-20)
(0.623256 0.0647465 2.71631e-19)
(0.728035 0.0750458 7.93498e-20)
(0.830744 0.0859296 -5.12236e-19)
(0.927235 0.0965909 -2.50557e-19)
(1.01376 0.106115 -6.15513e-20)
(1.08759 0.113927 1.65974e-19)
(1.14722 0.119115 -7.84324e-20)
(1.19264 0.122415 -2.80625e-19)
(1.22503 0.121693 3.72541e-20)
(1.2463 0.122039 -2.6048e-19)
(1.25776 0.11349 -1.26295e-19)
(-0.0104828 0.00904498 1.26706e-19)
(-0.0226201 0.0208124 1.35273e-19)
(-0.0260228 0.0282852 2.47864e-19)
(-0.0204747 0.0324534 -1.80556e-19)
(-0.0056879 0.0342988 1.31887e-20)
(0.0186676 0.0346978 3.61458e-19)
(0.0529923 0.0344292 -1.0359e-19)
(0.097736 0.0341941 -3.45691e-19)
(0.153319 0.0346212 -2.04872e-19)
(0.220002 0.0362611 2.74023e-19)
(0.297695 0.0395649 -5.71275e-19)
(0.385741 0.044845 2.21288e-21)
(0.482691 0.0522234 -4.92072e-20)
(0.586149 0.0615779 3.63822e-19)
(0.692766 0.0725075 -1.98403e-19)
(0.79846 0.084346 2.72796e-19)
(0.898851 0.096222 2.76658e-19)
(0.989871 0.107222 -4.89186e-19)
(1.06835 0.116445 -2.04918e-19)
(1.13247 0.123412 -1.70258e-19)
(1.18185 0.127452 2.60298e-19)
(1.21751 0.1294 4.12692e-19)
(1.24137 0.127574 1.92248e-19)
(1.25561 0.126656 -1.71152e-19)
(1.26297 0.118014 -3.07524e-19)
(-0.0105465 0.00865513 -2.99272e-20)
(-0.0218588 0.0194961 1.26642e-19)
(-0.0234808 0.0261318 -2.51646e-19)
(-0.0152432 0.0296117 -3.86366e-19)
(0.00314986 0.0309957 -5.72508e-19)
(0.0320481 0.0312224 9.75426e-20)
(0.0718631 0.0311196 -1.15029e-19)
(0.123019 0.0314265 1.68597e-19)
(0.185832 0.0327951 6.26754e-20)
(0.260339 0.0357755 1.20972e-19)
(0.346059 0.0407814 1.34494e-19)
(0.441757 0.0480375 -7.43269e-20)
(0.545236 0.0575184 -1.07617e-19)
(0.65327 0.0689 -2.42129e-19)
(0.761757 0.0815506 7.38899e-20)
(0.866124 0.0945909 -2.90109e-19)
(0.961946 0.10701 1.06888e-19)
(1.04561 0.117866 6.96693e-20)
(1.11481 0.126357 -2.88695e-19)
(1.16885 0.132172 -3.11334e-19)
(1.20841 0.13491 -1.67279e-19)
(1.23532 0.135507 9.27134e-21)
(1.25206 0.132679 5.19435e-20)
(1.26081 0.130694 -1.67982e-19)
(1.26468 0.121991 1.27548e-19)
(-0.0105196 0.00821814 1.9185e-21)