/*--------------------------------*- C++ -*----------------------------------*\
  =========                 |
  \\      /  F ield         | OpenFOAM: The Open Source CFD Toolbox
   \\    /   O peration     | Website:  https://openfoam.org
    \\  /    A nd           | Version:  7
     \\/     M anipulation  |
\*---------------------------------------------------------------------------*/
FoamFile
{
    version     2.0;
    format      ascii;
    class       volScalarField;
    location    "35";
    object      p;
}
// * * * * * * * * * * * * * * * * * * * * * * * * * * * * * * * * * * * * * //

dimensions      [0 2 -2 0 0 0 0];

internalField   nonuniform List<scalar> 
1987
(
0.0685286
0.0609349
0.0532851
0.0452331
0.0455848
0.037037
0.0378506
0.0265991
0.0288506
0.0301096
0.0180653
0.020692
0.0223829
0.00959094
0.0125766
0.0146849
-0.00233348
0.00118861
0.00451751
0.00702805
-0.0110354
-0.00713019
-0.00347347
-0.000576516
-0.0196262
-0.0153548
-0.0113856
-0.00811873
-0.0280956
-0.0234754
-0.019209
-0.0155895
-0.0421894
-0.0364341
-0.0314832
-0.0269349
-0.0229804
-0.050716
-0.044633
-0.0393705
-0.0345558
-0.0302836
-0.0590721
-0.0526846
-0.0471303
-0.0420656
-0.0374916
-0.0672506
-0.0605816
-0.0547566
-0.0494602
-0.0445975
-0.0752453
-0.0683177
-0.0622431
-0.0567388
-0.051595
-0.083051
-0.0758878
-0.0695818
-0.0639005
-0.0584852
-0.0989256
-0.0906643
-0.0832892
-0.0767635
-0.0709349
-0.0652881
-0.0905186
-0.0837875
-0.0777714
-0.0720921
0.0869937
0.0946804
0.100765
0.105134
0.10764
0.108996
0.109009
0.108272
0.106658
0.104607
0.102053
0.0993131
0.0963523
0.0933974
0.0904218
0.0875873
0.084867
0.0823758
0.0800805
0.0780674
0.076302
0.0748565
0.0737034
0.0729164
0.0724879
0.0809182
0.0883665
0.0946195
0.0992872
0.102328
0.104172
0.104735
0.104492
0.103368
0.101752
0.0996026
0.0972177
0.0945753
0.0918951
0.0891598
0.0865295
0.0839841
0.0816387
0.0794664
0.0775534
0.0758701
0.0744882
0.0733836
0.0726288
0.0722171
0.0748716
0.0822507
0.0886225
0.0935549
0.0970509
0.0993412
0.100423
0.100652
0.100007
0.098819
0.0970751
0.0950464
0.0927274
0.0903269
0.0878386
0.0854183
0.0830543
0.0808606
0.0788166
0.0770083
0.0754113
0.0740963
0.0730427
0.0723218
0.071928
0.0690403
0.0763469
0.0827939
0.0879599
0.0918352
0.0945316
0.0960908
0.0967681
0.0965855
0.0958157
0.0944738
0.0928007
0.0908084
0.0886918
0.0864564
0.0842521
0.082076
0.0800395
0.0781295
0.0764308
0.0749242
0.0736796
0.0726798
0.0719947
0.0716198
0.0634615
0.0706692
0.0771474
0.0825058
0.086694
0.0897558
0.0917482
0.0928486
0.0931083
0.0927456
0.0918001
0.090481
0.0888177
0.0869886
0.0850117
0.0830292
0.0810471
0.079174
0.0774037
0.0758194
0.0744078
0.073237
0.072294
0.0716465
0.0712915
0.058118
0.0652123
0.0716897
0.0771954
0.0816394
0.0850263
0.0874085
0.0889056
0.0895847
0.0896165
0.0890593
0.0880913
0.0867575
0.0852186
0.0835048
0.0817492
0.0799672
0.078263
0.076638
0.0751732
0.0738608
0.0727676
0.0718841
0.0712763
0.0709424
0.0529968
0.0599685
0.0664228
0.0720337
0.0766845
0.0803561
0.0830861
0.0849522
0.0860257
0.0864375
0.086258
0.0856366
0.084631
0.0833839
0.0819368
0.0804126
0.0788361
0.077306
0.0758317
0.0744911
0.0732825
0.0722703
0.0714495
0.0708833
0.0705715
0.0480942
0.0549344
0.0613469
0.0670256
0.0718409
0.0757575
0.0787953
0.0810014
0.0824428
0.0832183
0.0834038
0.0831226
0.0824422
0.0814871
0.0803091
0.0790201
0.0776538
0.0763029
0.0749844
0.0737726
0.0726721
0.0717445
0.0709892
0.0704665
0.070178
0.0434094
0.0501095
0.0564622
0.0621757
0.0671184
0.0712417
0.0745494
0.0770654
0.0788476
0.0799686
0.0805045
0.0805557
0.0801954
0.0795316
0.0786237
0.0775728
0.0764207
0.0752535
0.0740955
0.0730171
0.0720288
0.0711893
0.0705025
0.0700254
0.0697614
0.0389411
0.0454933
0.051769
0.0574884
0.0625253
0.066819
0.070361
0.0731565
0.0752519
0.0766986
0.0775686
0.0779425
0.0778959
0.077521
0.0768832
0.0760724
0.0751378
0.0741582
0.0731651
0.0722242
0.0713522
0.0706042
0.0699887
0.0695592
0.0693207
0.0346874
0.0410849
0.0472675
0.0529679
0.0580688
0.0624991
0.0662418
0.0692862
0.0716673
0.0734186
0.0746051
0.0752906
0.0755494
0.0754597
0.0750904
0.074521
0.0738061
0.0730176
0.0721932
0.0713939
0.0706418
0.0699887
0.0694474
0.0690673
0.0688556
0.0306453
0.0368824
0.0429577
0.0486173
0.0537549
0.0582909
0.0622026
0.065466
0.0681054
0.0701392
0.0716235
0.0726076
0.0731621
0.0733527
0.0732491
0.0729211
0.0724273
0.0718328
0.0711803
0.0705261
0.0698977
0.0693426
0.068878
0.0685493
0.0683654
0.0268116
0.0328835
0.0388392
0.0444394
0.049589
0.0542024
0.0582533
0.0617068
0.0645774
0.0668708
0.0686336
0.0699021
0.0707412
0.0712055
0.0713634
0.0712758
0.0710036
0.0706051
0.0701273
0.0696215
0.0691197
0.0686657
0.0682804
0.0680049
0.06785
0.0231821
0.0290852
0.0349108
0.0404357
0.0455754
0.0502405
0.054403
0.0580187
0.0610943
0.0636241
0.0656451
0.0671825
0.0682939
0.0690241
0.0694381
0.0695889
0.0695376
0.0693365
0.0690353
0.0686806
0.0683083
0.0679581
0.0676545
0.0674338
0.0673089
0.0197523
0.025484
0.0311712
0.0366073
0.0417176
0.0464115
0.0506598
0.0544115
0.0576665
0.0604093
0.0626681
0.0644579
0.0658283
0.0668151
0.0674786
0.0678644
0.0680324
0.0680292
0.0679059
0.0677047
0.0674642
0.0672203
0.0670004
0.0668363
0.0667424
0.0165171
0.0220761
0.0276183
0.0329544
0.0380184
0.0427206
0.0470309
0.050894
0.0543038
0.0572367
0.0597127
0.0617374
0.0633527
0.0645856
0.0654909
0.0661072
0.0664919
0.0666861
0.0667412
0.0666951
0.0665883
0.066453
0.0663185
0.0662125
0.0661505
0.0134711
0.018857
0.0242497
0.0294764
0.0344798
0.039172
0.043523
0.0474745
0.0510155
0.0541162
0.0567886
0.0590306
0.0608755
0.0623431
0.0634813
0.0643226
0.0649202
0.0653104
0.0655436
0.0656537
0.065682
0.0656571
0.0656097
0.0655631
0.0655337
0.0106087
0.0158222
0.0210622
0.0261725
0.031103
0.0357693
0.0401417
0.0441604
0.0478106
0.0510573
0.0539058
0.0563467
0.0584059
0.0600956
0.061457
0.0625163
0.0633221
0.0639062
0.0643164
0.064583
0.0647471
0.064834
0.0648749
0.064889
0.0648929
0.00792392
0.0129668
0.0180526
0.0230411
0.0278887
0.0325154
0.0368919
0.0409585
0.0446971
0.0480691
0.0510737
0.0536955
0.0559528
0.0578513
0.0594252
0.0606947
0.0617032
0.0624777
0.063063
0.0634858
0.0637859
0.0639855
0.0641156
0.0641914
0.064229
0.00541088
0.0102857
0.0152173
0.0200801
0.0248369
0.0294122
0.0337778
0.0378748
0.0416826
0.0451604
0.0483016
0.0510862
0.0535254
0.0556189
0.0573938
0.0588648
0.0600694
0.0610301
0.0617876
0.0623655
0.0628011
0.0631139
0.0633335
0.0634718
0.0635436
0.00306358
0.00777385
0.0125522
0.0172872
0.021947
0.0264612
0.0308028
0.0349146
0.0387742
0.0423391
0.0455986
0.0485282
0.051133
0.0534073
0.0553711
0.057034
0.0584271
0.0595688
0.0604949
0.0612259
0.061796
0.0622219
0.0625312
0.0627324
0.0628384
0.000876095
0.00542604
0.0100534
0.0146597
0.0192182
0.0236635
0.0279699
0.0320827
0.0359781
0.0396132
0.0429733
0.0460309
0.0487851
0.0512256
0.0533658
0.0552101
0.0567836
0.0581
0.0591904
0.0600716
0.0607744
0.0613126
0.0617113
0.0619756
0.062116
-0.0011574
0.00323714
0.0077167
0.0121949
0.0166491
0.0210193
0.0252814
0.0293832
0.0333003
0.0369898
0.0404341
0.0436031
0.046491
0.0490831
0.0513868
0.0534015
0.0551463
0.0566305
0.0578799
0.0589078
0.0597409
0.0603901
0.0608772
0.0612045
0.061379
-0.00304257
0.00120211
0.00553798
0.00988963
0.0142382
0.018529
0.0227392
0.0268198
0.0307461
0.0344758
0.037989
0.0412538
0.04426
0.0469892
0.0494433
0.0516171
0.0535236
0.0551678
0.0565701
0.0577402
0.0587004
0.0594586
0.0600329
0.0604227
0.0606309
-0.00478484
-0.000683919
0.00351315
0.00774093
0.0119838
0.0161922
0.0203448
0.0243956
0.0283203
0.0320777
0.0356457
0.0389917
0.0421015
0.0449537
0.0475449
0.0498659
0.0519239
0.0537197
0.0552682
0.0565754
0.0576587
0.0585233
0.0591832
0.0596345
0.0598758
-0.00638939
-0.0024256
0.0016383
0.00574583
0.00988419
0.0140086
0.0180994
0.0221138
0.0260277
0.0298014
0.0334117
0.0368252
0.0400247
0.0429861
0.0457014
0.0481577
0.0503567
0.052295
0.0539822
0.0554204
0.0566225
0.0575901
0.0583331
0.0588447
0.0591182
-0.00786107
-0.00402729
-9.0293e-05
0.0039015
0.00793766
0.011978
0.0160043
0.0199769
0.0238725
0.027653
0.0312944
0.0347629
0.0380389
0.0410963
0.043923
0.0465024
0.0488316
0.0509028
0.0527206
0.0542833
0.0555987
0.0566655
0.0574889
0.0580588
0.0583637
-0.00920434
-0.00549299
-0.00167599
0.00220536
0.00614267
0.0101
0.0140605
0.0179877
0.021859
0.0256382
0.0293007
0.0328132
0.0361536
0.0392944
0.04222
0.0449107
0.0473588
0.049553
0.0514928
0.0531726
0.0545956
0.0557568
0.0566573
0.0572834
0.0576184
-0.0104232
-0.00682622
-0.00312177
0.000655206
0.00449798
0.00837451
0.0122693
0.0161489
0.0199915
0.0237627
0.0274381
0.0309844
0.0343782
0.0375907
0.0406032
0.0433934
0.0459494
0.0482563
0.0503089
0.0520978
0.0536217
0.0548722
0.0558458
0.0565255
0.0568891
-0.0115211
-0.00803001
-0.00443008
-0.000750681
0.00300279
0.00680187
0.0106322
0.0144633
0.0182743
0.0220325
0.0257137
0.0292852
0.0327225
0.0359957
0.0390837
0.0419619
0.0446146
0.0470237
0.0491796
0.0510692
0.0526868
0.0540207
0.055063
0.0557932
0.0561838
-0.0125008
-0.00910669
-0.00560268
-0.00201339
0.0016569
0.00538292
0.00915146
0.0129345
0.0167122
0.0204538
0.0241352
0.0277245
0.0311964
0.0345205
0.0376733
0.0406283
0.0433668
0.0458673
0.0481165
0.0500978
0.0518014
0.0532122
0.0543182
0.0550952
0.055511
-0.0133645
-0.0100578
-0.00664056
-0.00313318
0.000460895
0.00411926
0.00782968
0.0115665
0.0153108
0.0190335
0.0227109
0.026312
0.0298108
0.0331766
0.0363841
0.0394054
0.0422186
0.0447999
0.0471321
0.0491957
0.0509768
0.0524574
0.0536215
0.0544414
0.0548802
-0.0141131
-0.0108839
-0.00754368
-0.00410931
-0.000583607
0.00301351
0.00667066
0.0103643
0.0140762
0.0177792
0.0214497
0.0250577
0.0285769
0.0319762
0.0352293
0.0383065
0.0411837
0.0438349
0.0462396
0.0483755
0.0502253
0.051768
0.0529841
0.0538425
0.0543019
-0.0147468
-0.0115845
-0.00831077
-0.00493974
-0.00147369
0.00206958
0.0056794
0.00933404
0.0130161
0.0166996
0.0203617
0.0239731
0.0275071
0.0309329
0.0342227
0.0373461
0.0402769
0.0429871
0.0454535
0.0476513
0.0495602
0.0511567
0.0524179
0.0533098
0.0537874
-0.0152641
-0.0121573
-0.00893894
-0.00562079
-0.00220479
0.00129303
0.00486257
0.00848362
0.0121394
0.0158052
0.0194585
0.0230707
0.0266153
0.0300611
0.0333797
0.0365399
0.0395139
0.0422721
0.044789
0.0470378
0.0489957
0.0506369
0.0519359
0.052856
0.0533487
-0.0156618
-0.0125983
-0.00942337
-0.00614681
-0.0027703
0.00069151
0.00422895
0.00782301
0.0114574
0.0151083
0.0187536
0.0223653
0.0259167
0.029377
0.032717
0.0359049
0.0389118
0.0417067
0.0442626
0.0465509
0.0485469
0.0502231
0.0515518
0.0524941
0.0529989
-0.0159343
-0.0129012
-0.00975704
-0.00650982
-0.00316114
0.000275308
0.00379005
0.00736491
0.0109839
0.0146239
0.018263
0.0218737
0.0254293
0.0288989
0.0322532
0.0354598
0.0384891
0.0413092
0.043892
0.0462077
0.0482301
0.0499308
0.0512802
0.0522383
0.0527516
-0.016074
-0.0130583
-0.0099307
-0.00669894
-0.00336497
5.81229e-05
0.00356082
0.00712549
0.0107362
0.0143703
0.0180059
0.0216159
0.0251734
0.0286477
0.0320092
0.0352255
0.0382663
0.0410996
0.0436963
0.0460263
0.0480626
0.0497761
0.0511366
0.0521032
0.052621
-0.0755122
-0.0738527
-0.0722945
-0.0707532
-0.0693175
-0.0679256
-0.0666444
-0.0654256
-0.0691247
-0.0678369
-0.0665283
-0.065218
-0.0642415
-0.063055
-0.0619842
-0.0609726
-0.0600133
-0.0591052
-0.0582406
-0.057408
-0.0566993
-0.0559562
-0.0552533
-0.0545892
-0.053959
-0.0533609
-0.052793
-0.0522535
-0.0517404
-0.0512523
-0.0507943
-0.0503622
-0.0499435
-0.0495472
-0.049173
-0.0488204
-0.0484895
-0.0481806
-0.0478941
-0.0476309
-0.047392
-0.047179
-0.0469935
-0.0468385
-0.0467137
-0.0466324
-0.0465702
-0.0465994
-0.0627019
-0.061784
-0.0607751
-0.0597806
-0.0589655
-0.0580832
-0.0572474
-0.0564601
-0.0557148
-0.0550096
-0.0543387
-0.0537056
-0.0531401
-0.0525759
-0.052035
-0.0515228
-0.0510368
-0.0505754
-0.050137
-0.0497203
-0.0493236
-0.0489463
-0.0485909
-0.0482542
-0.0479292
-0.0476198
-0.0473267
-0.0470499
-0.0467895
-0.0465459
-0.0463196
-0.0461116
-0.0459229
-0.045755
-0.0456096
-0.0454892
-0.0453943
-0.0453363
-0.0452927
-0.0453341
-0.0562362
-0.0556129
-0.0549359
-0.0542477
-0.0536428
-0.053037
-0.0524516
-0.0518976
-0.0513735
-0.0508777
-0.0504077
-0.0499687
-0.0495656
-0.0491752
-0.0487993
-0.048442
-0.0481027
-0.0477801
-0.0474733
-0.0471809
-0.0469021
-0.0466364
-0.0463848
-0.0461454
-0.0459138
-0.0456919
-0.0454805
-0.0452799
-0.0450903
-0.0449121
-0.0447462
-0.0445935
-0.0444549
-0.0443321
-0.0442267
-0.044141
-0.0440756
-0.0440409
-0.0440156
-0.0440686
-0.0496965
-0.0493658
-0.0490129
-0.0486241
-0.0482721
-0.0479326
-0.0476025
-0.0472884
-0.0469914
-0.0467107
-0.0464461
-0.0462009
-0.045974
-0.0457572
-0.045548
-0.0453482
-0.0451578
-0.0449762
-0.0448026
-0.0446363
-0.0444765
-0.0443233
-0.0441769
-0.044036
-0.0438982
-0.0437643
-0.043635
-0.0435109
-0.0433924
-0.04328
-0.0431746
-0.0430771
-0.0429888
-0.0429111
-0.0428455
-0.0427944
-0.0427583
-0.0427466
-0.0427394
-0.0428033
-0.0430681
-0.0430469
-0.0430117
-0.0429235
-0.0428483
-0.0427767
-0.042705
-0.0426359
-0.042571
-0.0425104
-0.0424549
-0.0424063
-0.0423632
-0.0423225
-0.042282
-0.042242
-0.0422028
-0.0421641
-0.0421256
-0.0420868
-0.0420475
-0.0420077
-0.0419676
-0.0419265
-0.041883
-0.0418376
-0.0417909
-0.0417437
-0.0416965
-0.04165
-0.0416053
-0.0415632
-0.0415251
-0.0414923
-0.0414666
-0.0414498
-0.0414428
-0.0414538
-0.0414645
-0.0415387
-0.0363512
-0.036656
-0.0369387
-0.0371557
-0.0373679
-0.0375705
-0.0377613
-0.0379418
-0.0381135
-0.0382774
-0.0384347
-0.0385866
-0.0387326
-0.0388715
-0.0390019
-0.0391241
-0.0392382
-0.0393444
-0.0394427
-0.0395331
-0.0396155
-0.0396903
-0.0397577
-0.0398174
-0.0398689
-0.0399124
-0.0399488
-0.0399788
-0.0400032
-0.0400229
-0.0400389
-0.0400523
-0.0400643
-0.0400765
-0.0400903
-0.0401077
-0.0401296
-0.0401631
-0.0401912
-0.0402752
-0.029549
-0.0301925
-0.030797
-0.0313251
-0.0318321
-0.0323149
-0.0327727
-0.0332074
-0.0336202
-0.0340128
-0.0343867
-0.0347431
-0.0350823
-0.0354041
-0.0357083
-0.035995
-0.0362646
-0.0365177
-0.0367547
-0.0369757
-0.0371812
-0.0373718
-0.0375478
-0.0377093
-0.0378563
-0.0379894
-0.0381092
-0.0382168
-0.0383131
-0.0383992
-0.038476
-0.0385449
-0.0386071
-0.0386641
-0.0387174
-0.0387688
-0.0388192
-0.038875
-0.0389202
-0.0390131
-0.0226668
-0.0236587
-0.0245899
-0.0254347
-0.0262423
-0.0270107
-0.0277405
-0.0284336
-0.0290919
-0.0297173
-0.0303116
-0.0308764
-0.0314126
-0.0319209
-0.0324015
-0.0328552
-0.0332826
-0.0336846
-0.0340619
-0.0344152
-0.0347452
-0.0350527
-0.0353383
-0.0356026
-0.035846
-0.0360691
-0.0362729
-0.0364584
-0.0366269
-0.0367794
-0.0369172
-0.0370416
-0.0371539
-0.0372556
-0.0373483
-0.0374335
-0.0375121
-0.0375897
-0.0376517
-0.0377528
-0.0157098
-0.0170578
-0.0183202
-0.019487
-0.0206001
-0.0216592
-0.0226655
-0.0236215
-0.0245296
-0.025392
-0.0262107
-0.0269876
-0.0277244
-0.0284222
-0.0290821
-0.0297052
-0.0302926
-0.0308455
-0.0313649
-0.0318521
-0.0323079
-0.0327335
-0.0331299
-0.0334979
-0.0338383
-0.034152
-0.0344402
-0.0347041
-0.034945
-0.0351643
-0.0353631
-0.035543
-0.0357054
-0.0358517
-0.0359835
-0.0361022
-0.0362088
-0.0363079
-0.0363862
-0.0364948
-0.00868402
-0.010394
-0.0119912
-0.0134845
-0.0149075
-0.0162619
-0.0175493
-0.0187729
-0.0199349
-0.0210381
-0.0220848
-0.0230774
-0.024018
-0.0249084
-0.0257503
-0.0265452
-0.0272948
-0.0280006
-0.028664
-0.0292866
-0.0298697
-0.0304147
-0.0309229
-0.0313956
-0.0318338
-0.0322388
-0.0326119
-0.0329545
-0.0332681
-0.0335542
-0.0338142
-0.0340497
-0.0342621
-0.0344529
-0.0346236
-0.0347755
-0.0349098
-0.0350299
-0.0351242
-0.0352394
-0.00159545
-0.00367167
-0.00560658
-0.00743017
-0.0091675
-0.0108216
-0.0123945
-0.0138894
-0.0153089
-0.0166562
-0.0179341
-0.0191455
-0.020293
-0.021379
-0.0224057
-0.0233751
-0.0242892
-0.02515
-0.0259593
-0.026719
-0.0274309
-0.0280967
-0.0287179
-0.0292963
-0.0298331
-0.03033
-0.0307885
-0.0312102
-0.0315968
-0.0319499
-0.0322712
-0.0325621
-0.0328244
-0.0330596
-0.033269
-0.033454
-0.0336155
-0.0337563
-0.033866
-0.033987
0.00554921
0.00310399
0.00082884
-0.00132857
-0.00338376
-0.00534088
-0.00720204
-0.00897078
-0.0106506
-0.012245
-0.0137574
-0.015191
-0.0165489
-0.0178338
-0.0190484
-0.020195
-0.0212763
-0.0222944
-0.0232516
-0.0241503
-0.0249925
-0.0257803
-0.0265157
-0.0272007
-0.027837
-0.0284263
-0.0289707
-0.0294719
-0.0299317
-0.030352
-0.0307345
-0.031081
-0.0313931
-0.0316724
-0.0319203
-0.032138
-0.0323263
-0.0324874
-0.032612
-0.032738
0.0127422
0.00992639
0.00730927
0.00481663
0.00244255
0.00018137
-0.00196975
-0.00401517
-0.00595886
-0.00780457
-0.0095558
-0.0112159
-0.012788
-0.0142754
-0.0156809
-0.0170077
-0.0182584
-0.0194359
-0.020543
-0.0215822
-0.022556
-0.0234671
-0.0243177
-0.02511
-0.0258464
-0.0265288
-0.0271594
-0.0277403
-0.0282735
-0.0287611
-0.0292049
-0.0296069
-0.0299687
-0.0302919
-0.030578
-0.030828
-0.0310428
-0.0312237
-0.0313627
-0.0314928
0.019975
0.0167897
0.0138319
0.0110061
0.00831345
0.00574611
0.0033007
0.000973079
-0.00124019
-0.00334237
-0.00533683
-0.00722704
-0.00901659
-0.0107091
-0.012308
-0.0138167
-0.0152387
-0.0165772
-0.0178354
-0.0190163
-0.0201228
-0.021158
-0.0221245
-0.023025
-0.0238619
-0.0246378
-0.025355
-0.0260159
-0.0266227
-0.0271777
-0.0276828
-0.0281402
-0.0285515
-0.0289185
-0.0292426
-0.0295246
-0.0297654
-0.0299657
-0.0301185
-0.0302519
0.0272408
0.0236919
0.0203963
0.0172375
0.0142216
0.0113408
0.00859385
0.00597845
0.00349194
0.00113105
-0.00110807
-0.00322952
-0.0052375
-0.00713615
-0.0089295
-0.0106215
-0.012216
-0.0137166
-0.0151271
-0.0164508
-0.0176912
-0.0188515
-0.0199349
-0.0209444
-0.0218828
-0.0227528
-0.0235572
-0.0242985
-0.0249792
-0.0256017
-0.0261684
-0.0266811
-0.027142
-0.0275526
-0.0279143
-0.028228
-0.0284944
-0.0287136
-0.0288797
-0.0290155
0.0345318
0.0306263
0.0269883
0.023489
0.0201426
0.0169452
0.0138977
0.0109979
0.00824197
0.00562531
0.00314314
0.000790784
-0.00143632
-0.00354258
-0.00553234
-0.00740984
-0.00917923
-0.0108446
-0.0124098
-0.0138789
-0.0152554
-0.016543
-0.0177453
-0.0188654
-0.0199067
-0.0208721
-0.0217647
-0.0225872
-0.0233425
-0.0240331
-0.0246614
-0.0252298
-0.0257401
-0.0261942
-0.0265934
-0.0269386
-0.0272302
-0.0274678
-0.0276466
-0.027784
0.0418273
0.0375671
0.03358
0.0297446
0.026081
0.0225838
0.0192503
0.0160756
0.0130544
0.0101818
0.00745349
0.00486548
0.00241363
9.37227e-05
-0.00209853
-0.00416746
-0.00611741
-0.00795269
-0.00967754
-0.0112961
-0.0128126
-0.0142308
-0.0155546
-0.0167878
-0.0179338
-0.0189962
-0.0199781
-0.0208829
-0.0217134
-0.0224725
-0.0231629
-0.0237869
-0.0243468
-0.0248442
-0.0252807
-0.0256569
-0.0259733
-0.0262289
-0.0264196
-0.0265579
0.0491011
0.0445068
0.040197
0.0360628
0.0321118
0.0283295
0.0247106
0.0212523
0.0179527
0.0148102
0.0118225
0.00898676
0.00629949
0.00375663
0.00135387
-0.000913326
-0.00304956
-0.00505948
-0.00694773
-0.0087189
-0.0103775
-0.011928
-0.0133747
-0.0147217
-0.0159731
-0.0171327
-0.0182041
-0.0191909
-0.0200964
-0.0209237
-0.0216757
-0.022355
-0.0229639
-0.0235041
-0.0239772
-0.0243839
-0.0247244
-0.0249973
-0.0251992
-0.0253377
0.0563732
0.0515128
0.0469175
0.0424887
0.0382264
0.0341221
0.0301813
0.0264098
0.0228109
0.0193849
0.0161297
0.013042
0.0101177
0.0073523
0.00474078
0.00227809
-4.0977e-05
-0.00222166
-0.0042692
-0.00618879
-0.00798554
-0.00966442
-0.0112303
-0.0126877
-0.0140413
-0.0152952
-0.0164536
-0.0175202
-0.0184987
-0.0193924
-0.0202045
-0.0209376
-0.0215942
-0.0221761
-0.0226848
-0.023121
-0.0234846
-0.023774
-0.0239861
-0.0241239
0.0636638
0.0585609
0.0536039
0.048782
0.0441326
0.039665
0.035389
0.0313096
0.0274266
0.0237366
0.0202345
0.0169154
0.0137738
0.0108042
0.00800101
0.00535846
0.00287071
0.000531931
-0.00166368
-0.00372185
-0.00564816
-0.00744805
-0.00912676
-0.0106893
-0.0121406
-0.0134851
-0.0147271
-0.0158709
-0.0169201
-0.0178783
-0.0187488
-0.0195344
-0.0202375
-0.02086
-0.0214034
-0.0218681
-0.022254
-0.0225591
-0.0227805
-0.0229168
0.0707672
0.0653379
0.0599413
0.0547239
0.0497426
0.0449884
0.0404509
0.036124
0.0320023
0.0280812
0.0243557
0.0208213
0.0174731
0.014306
0.0113145
0.00849295
0.00583544
0.00333604
0.000988779
-0.00121224
-0.00327282
-0.00519861
-0.00699509
-0.00866753
-0.010221
-0.0116602
-0.0129899
-0.0142142
-0.0153372
-0.0163626
-0.0172938
-0.0181337
-0.0188848
-0.0195492
-0.0201281
-0.0206219
-0.0210304
-0.0213512
-0.0215816
-0.0217159
0.0774723
0.0719885
0.0665037
0.0611748
0.0560487
0.0511106
0.0463508
0.0417724
0.0373825
0.0331863
0.029186
0.0253813
0.0217704
0.0183499
0.0151158
0.0120631
0.00918643
0.00648019
0.00393846
0.00155527
-0.00067536
-0.00275937
-0.00470259
-0.00651068
-0.00818911
-0.00974313
-0.0111778
-0.0124977
-0.0137075
-0.0148111
-0.0158123
-0.0167143
-0.01752
-0.0182314
-0.01885
-0.0193762
-0.0198095
-0.0201477
-0.0203874
-0.0205201
0.0795829
0.0744399
0.0691101
0.0637966
0.0585728
0.0534721
0.0485253
0.043758
0.0391866
0.0348194
0.0306598
0.0267082
0.0229627
0.0194202
0.0160764
0.012926
0.0099634
0.00718252
0.004577
0.00214036
-0.00013392
-0.00225231
-0.00422116
-0.00604668
-0.00773483
-0.00929132
-0.0107216
-0.0120307
-0.0132233
-0.0143038
-0.0152757
-0.0161423
-0.0169061
-0.0175686
-0.0181305
-0.018591
-0.0189481
-0.0191978
-0.0193299
0.0812147
0.0755836
0.069906
0.0643285
0.0589046
0.0536613
0.0486172
0.0437843
0.0391685
0.0347719
0.030594
0.0266328
0.0228848
0.0193454
0.0160096
0.0128714
0.00992473
0.00716306
0.00457974
0.00216804
-7.87185e-05
-0.00216714
-0.00410367
-0.00589454
-0.00754572
-0.00906286
-0.0104513
-0.0117159
-0.0128611
-0.0138908
-0.0148083
-0.0156159
-0.0163154
-0.0169072
-0.0173905
-0.0177628
-0.0180195
-0.0181508
)
;

boundaryField
{
    inlet
    {
        type            zeroGradient;
    }
    outlet
    {
        type            fixedValue;
        value           nonuniform 0();
    }
    cylinder
    {
        type            zeroGradient;
    }
    top
    {
        type            symmetryPlane;
    }
    bottom
    {
        type            symmetryPlane;
    }
    defaultFaces
    {
        type            empty;
    }
    procBoundary0to1
    {
        type            processor;
        value           nonuniform List<scalar> 
46
(
-0.0975728
-0.0906636
-0.0844841
-0.0787385
-0.0787385
-0.0817041
-0.079749
-0.0779343
-0.0761534
-0.0744259
-0.0728085
-0.0713044
-0.0698739
-0.0642647
-0.0642647
-0.0631625
-0.0621158
-0.0610798
-0.0602395
-0.0593093
-0.0584513
-0.0576392
-0.056868
-0.0561358
-0.0554405
-0.0547799
-0.0541522
-0.053554
-0.0529943
-0.0524682
-0.0519557
-0.0514733
-0.0510185
-0.0505906
-0.0501896
-0.0498156
-0.049469
-0.0491507
-0.0488618
-0.0486036
-0.0483781
-0.0481882
-0.0480336
-0.0479285
-0.0478477
-0.0478641
)
;
    }
    procBoundary0to4
    {
        type            processor;
        value           nonuniform List<scalar> 
56
(
0.0829398
0.075967
0.075967
0.0697142
0.0615828
0.0534198
0.0534198
0.0437893
0.0351787
0.0351787
0.0243212
0.0153574
0.00646814
0.00646814
-0.00655575
-0.015673
-0.0246583
-0.0335004
-0.0335004
-0.0488342
-0.0576946
-0.0663591
-0.0748203
-0.0830721
-0.0911079
-0.0911079
-0.108177
0.092979
0.101376
0.107079
0.111053
0.112929
0.113752
0.113188
0.111942
0.109835
0.107348
0.104395
0.101307
0.0980381
0.0948179
0.0916121
0.0885826
0.0856962
0.0830669
0.0806556
0.0785482
0.0767058
0.0752005
0.0740021
0.0731853
0.0727412
0.0843045
0.0843045
0.0864716
0.0864716
)
;
    }
    procBoundary0to5
    {
        type            processor;
        value           nonuniform List<scalar> 3(-0.106521 -0.098081 -0.098081);
    }
}


// ************************************************************************* //
