/*--------------------------------*- C++ -*----------------------------------*\
  =========                 |
  \\      /  F ield         | OpenFOAM: The Open Source CFD Toolbox
   \\    /   O peration     | Website:  https://openfoam.org
    \\  /    A nd           | Version:  7
     \\/     M anipulation  |
\*---------------------------------------------------------------------------*/
FoamFile
{
    version     2.0;
    format      ascii;
    class       volScalarField;
    location    "100";
    object      p;
}
// * * * * * * * * * * * * * * * * * * * * * * * * * * * * * * * * * * * * * //

dimensions      [0 2 -2 0 0 0 0];

internalField   nonuniform List<scalar> 
1989
(
0.0397553
0.0456619
0.0505649
0.054216
0.0563553
0.0571296
0.0561523
0.053509
0.0493492
0.0437768
0.0368103
0.0283299
0.0179944
0.00519653
-0.0107856
-0.030393
-0.0532979
-0.0779555
-0.10128
-0.119052
-0.127628
-0.125382
-0.114891
-0.0995407
-0.0824707
-0.0657953
-0.0505971
-0.0372478
-0.0257454
-0.183967
-0.185907
-0.187065
-0.187206
-0.186112
-0.1836
-0.179539
-0.173869
-0.166603
-0.157828
-0.147698
-0.136419
-0.124233
-0.111399
-0.0981743
-0.0847991
-0.0714882
-0.0584225
-0.0457475
-0.0335737
-0.0219805
-0.0110214
-0.00072998
0.00887358
0.0177765
0.0259684
0.0334384
0.040166
0.0460962
0.0511102
0.0549955
0.0575546
0.0587615
0.0583586
0.0563423
0.0527907
0.0477554
0.0412077
0.0329899
0.0227595
0.00997964
-0.00593085
-0.0252577
-0.0475622
-0.071229
-0.0931723
-0.109421
-0.116765
-0.114353
-0.104489
-0.0903408
-0.0747085
-0.0594257
-0.0454222
-0.0330242
-0.0222452
-0.175646
-0.176963
-0.177558
-0.17723
-0.175796
-0.1731
-0.169033
-0.163543
-0.156636
-0.148384
-0.138913
-0.128396
-0.117038
-0.105061
-0.0926879
-0.0801321
-0.0675867
-0.0552179
-0.0431627
-0.0315288
-0.0203968
-0.0098243
0.00014932
0.00949753
0.0182016
0.0262457
0.0336125
0.0402758
0.0461848
0.051239
0.0552912
0.0581536
0.0597353
0.0598441
0.0584241
0.0554867
0.0510202
0.0449331
0.0370212
0.0269474
0.0142607
-0.0014707
-0.0203758
-0.0418883
-0.0643108
-0.0846358
-0.0992685
-0.105449
-0.10293
-0.0938303
-0.0810025
-0.0668767
-0.0530181
-0.0402233
-0.0287859
-0.0187396
-0.167506
-0.168293
-0.168413
-0.167696
-0.165987
-0.163155
-0.159108
-0.1538
-0.147235
-0.13947
-0.13061
-0.120798
-0.110208
-0.0990299
-0.0874569
-0.0756771
-0.0638634
-0.0521679
-0.0407189
-0.02962
-0.0189519
-0.00877489
0.000866963
0.00994179
0.0184254
0.0262966
0.0335327
0.0401027
0.0459574
0.0510131
0.0551512
0.0582163
0.0600927
0.0606225
0.059721
0.057347
0.053429
0.0478109
0.0402411
0.0303931
0.0179081
0.00250556
-0.0157847
-0.0362661
-0.057191
-0.0757111
-0.0886938
-0.0937798
-0.0912711
-0.0830699
-0.0716502
-0.0590666
-0.0466366
-0.035045
-0.0245643
-0.0152517
-0.159554
-0.159898
-0.159624
-0.158589
-0.156663
-0.153737
-0.149733
-0.14461
-0.138372
-0.131063
-0.122769
-0.113611
-0.103734
-0.0933013
-0.0824797
-0.0714343
-0.0603196
-0.0492739
-0.0384166
-0.0278466
-0.0176437
-0.00786966
0.001428
0.0102129
0.018456
0.0261313
0.0332117
0.0396624
0.0454342
0.0504535
0.054621
0.0578087
0.0598973
0.0607488
0.0602633
0.0583634
0.0549313
0.0497602
0.0425629
0.0330285
0.0208872
0.00600065
-0.0114496
-0.0306502
-0.0498437
-0.0664074
-0.0778027
-0.0818975
-0.0795642
-0.0723785
-0.0624154
-0.0513715
-0.0403454
-0.0299315
-0.0203908
-0.0118046
-0.151798
-0.151775
-0.151179
-0.14989
-0.1478
-0.144817
-0.140876
-0.135942
-0.130016
-0.123135
-0.115369
-0.106818
-0.097605
-0.0878682
-0.0777526
-0.0674024
-0.056955
-0.0465358
-0.0362551
-0.026207
-0.016469
-0.00710369
0.00183905
0.0103193
0.0183038
0.0257624
0.0326643
0.0389717
0.044635
0.0495873
0.0537427
0.0569914
0.0592197
0.0603023
0.0601312
0.0586048
0.0555768
0.0508129
0.0440126
0.0348899
0.0232551
0.00909476
-0.00727565
-0.0249521
-0.0422247
-0.0567463
-0.0661733
-0.0699842
-0.068022
-0.0619333
-0.0534276
-0.0438807
-0.034206
-0.0249258
-0.0162959
-0.00842111
-0.144241
-0.14392
-0.143066
-0.14158
-0.139373
-0.136367
-0.132507
-0.127766
-0.122141
-0.115662
-0.108389
-0.100403
-0.0918082
-0.0827225
-0.0732704
-0.0635782
-0.0537676
-0.0439518
-0.0342324
-0.0246979
-0.0154232
-0.0064707
0.00210823
0.010271
0.0179809
0.0252043
0.0319071
0.0380499
0.0435824
0.0484424
0.0525529
0.0558167
0.0581278
0.0593699
0.0594304
0.0581927
0.0554969
0.0511049
0.0447287
0.0361194
0.0251589
0.0119368
-0.00312628
-0.0190833
-0.0343504
-0.0469402
-0.0551003
-0.0583543
-0.0568714
-0.0519047
-0.0448055
-0.0366752
-0.0282741
-0.0200674
-0.0123086
-0.00512279
-0.136887
-0.136328
-0.135273
-0.133642
-0.131358
-0.128358
-0.124597
-0.12005
-0.114716
-0.108619
-0.101806
-0.0943479
-0.0863307
-0.0778545
-0.0690267
-0.0599574
-0.0507543
-0.0415192
-0.0323452
-0.023315
-0.0145005
-0.00596315
0.00224502
0.0100795
0.017501
0.0244731
0.0309588
0.0369177
0.0423005
0.0470469
0.0510859
0.0543302
0.0566819
0.0580318
0.058266
0.0572606
0.0548536
0.0508214
0.0449084
0.0369136
0.0267829
0.0146829
0.00109855
-0.0130429
-0.0263489
-0.0372052
-0.0443012
-0.0472527
-0.0463214
-0.0424404
-0.0366492
-0.0298231
-0.022598
-0.0153918
-0.00845537
-0.00192986
-0.129737
-0.128994
-0.127789
-0.126056
-0.123732
-0.120765
-0.117117
-0.112767
-0.107715
-0.101979
-0.0956003
-0.0886356
-0.0811584
-0.0732537
-0.0650137
-0.0565343
-0.0479106
-0.0392338
-0.0305889
-0.0220528
-0.013694
-0.00557236
0.00226012
0.00975775
0.0168794
0.0235865
0.0298401
0.0355984
0.0408146
0.0454294
0.0493752
0.0525738
0.0549351
0.0563565
0.0567272
0.0559231
0.0537894
0.0501281
0.0447269
0.0374369
0.0282572
0.0174028
0.00537492
-0.00697335
-0.0184704
-0.02784
-0.0340916
-0.0369137
-0.0365416
-0.0336535
-0.0290342
-0.0233774
-0.017217
-0.0109292
-0.00475976
0.00113937
-0.122794
-0.121914
-0.120603
-0.118807
-0.116474
-0.113562
-0.110039
-0.105889
-0.10111
-0.0957196
-0.0897494
-0.0832479
-0.0762771
-0.0689089
-0.061223
-0.0533024
-0.045231
-0.0370905
-0.028958
-0.020905
-0.0129959
-0.00528864
0.00216532
0.00931986
0.0161327
0.0225638
0.0285728
0.0341176
0.0391521
0.0436188
0.0474546
0.0505878
0.0529356
0.0544031
0.0548858
0.0542665
0.0524047
0.0491333
0.0442859
0.0377621
0.0295999
0.0200339
0.00954132
-0.00113237
-0.0110289
-0.0191508
-0.0247346
-0.0275114
-0.0276445
-0.025615
-0.0220087
-0.0173743
-0.0121604
-0.00670411
-0.00124197
0.00406875
-0.11606
-0.115083
-0.113704
-0.111878
-0.109563
-0.106726
-0.103339
-0.0993904
-0.0948784
-0.0898168
-0.084233
-0.0781673
-0.0716721
-0.0648086
-0.0576452
-0.0502541
-0.0427092
-0.0350833
-0.0274463
-0.0198641
-0.0123973
-0.00510143
0.00197328
0.00878079
0.0152784
0.021425
0.0271799
0.0325007
0.037341
0.0416468
0.0453596
0.0484124
0.0507293
0.0522241
0.0528016
0.0523555
0.0507645
0.0478934
0.0436186
0.0378796
0.0307391
0.0224281
0.0133751
0.00420768
-0.00430198
-0.0113706
-0.0163978
-0.0191384
-0.0196801
-0.0183546
-0.0155952
-0.0118347
-0.00744841
-0.00273539
0.00208144
0.00684458
-0.109536
-0.108496
-0.107082
-0.105254
-0.102982
-0.100235
-0.0969941
-0.0932476
-0.0889955
-0.084249
-0.0790314
-0.0733767
-0.0673291
-0.0609408
-0.0542707
-0.0473815
-0.0403381
-0.0332054
-0.0260466
-0.0189222
-0.0118889
-0.00499948
0.00169737
0.00815628
0.0143346
0.0201911
0.0256848
0.0307733
0.035411
0.039547
0.0431266
0.0460875
0.0483608
0.0498691
0.0505277
0.0502438
0.0489165
0.0464407
0.0427292
0.0377527
0.031586
0.0244426
0.016693
0.00885443
0.00154676
-0.00461314
-0.00914169
-0.0118092
-0.0126441
-0.0118668
-0.00979435
-0.00676579
-0.00309257
0.000963811
0.0051976
0.00945569
-0.103223
-0.102151
-0.100728
-0.0989243
-0.0967128
-0.094071
-0.0909826
-0.0874388
-0.0834399
-0.0789959
-0.0741262
-0.0688597
-0.063234
-0.0572937
-0.0510895
-0.0446759
-0.0381099
-0.0314493
-0.0247511
-0.0180707
-0.0114607
-0.00497103
0.00135142
0.00746248
0.01332
0.0188831
0.0241111
0.0289624
0.033392
0.0373522
0.0407915
0.0436529
0.0458737
0.0473854
0.048114
0.047981
0.0469046
0.0448061
0.0416279
0.0373632
0.032091
0.026002
0.0194081
0.012733
0.0064748
0.00112121
-0.00293392
-0.00547694
-0.00649297
-0.00612132
-0.00459075
-0.00216414
0.00090305
0.00438553
0.00809738
0.0118936
-0.0971245
-0.0960446
-0.0946365
-0.0928761
-0.090742
-0.0882162
-0.0852858
-0.0819442
-0.0781923
-0.0740385
-0.0694998
-0.0646007
-0.0593732
-0.0538556
-0.0480915
-0.0421285
-0.0360167
-0.0298073
-0.0235517
-0.0173004
-0.0111022
-0.00500402
0.000949524
0.00671573
0.0122534
0.0175225
0.022483
0.0270942
0.0313135
0.0350946
0.0383895
0.0411465
0.0433094
0.0448177
0.0456078
0.0456145
0.0447734
0.0430276
0.0403421
0.036726
0.0322577
0.0271045
0.0215263
0.0158686
0.0105294
0.00590496
0.00231126
-5.90668e-05
-0.00116048
-0.00107247
4.21762e-05
0.00198211
0.00454059
0.00752655
0.0107752
0.0141524
-0.0912422
-0.0901749
-0.0888006
-0.0871002
-0.0850564
-0.0826553
-0.0798869
-0.0767462
-0.0732346
-0.0693597
-0.0651361
-0.0605849
-0.0557336
-0.0506149
-0.0452668
-0.0397305
-0.0340501
-0.0282711
-0.0224399
-0.0166022
-0.0108031
-0.00508633
0.00050573
0.00593224
0.0111534
0.0161303
0.0208239
0.0251951
0.0292032
0.0328044
0.0359539
0.0386048
0.0407069
0.0422076
0.0430528
0.0431892
0.0425672
0.0411474
0.0389115
0.0358792
0.0321259
0.0277963
0.0231071
0.0183401
0.0138137
0.0098449
0.00669523
0.00453706
0.00342932
0.00333345
0.00413785
0.00569081
0.00782734
0.0103879
0.013229
0.016229
-0.085579
-0.0845409
-0.0832159
-0.0815884
-0.0796452
-0.0773752
-0.0747709
-0.0718288
-0.0685508
-0.0649437
-0.0610202
-0.0567987
-0.0523027
-0.0475607
-0.0426053
-0.0374727
-0.0322017
-0.0268327
-0.0214071
-0.0159667
-0.0105528
-0.00520603
3.37628e-05
0.00512775
0.0100379
0.0147266
0.0191565
0.0232899
0.0270881
0.0305108
0.0335161
0.0360614
0.0381022
0.039593
0.0404884
0.0407455
0.0403271
0.039207
0.0373792
0.0348695
0.0317492
0.0281428
0.0242305
0.0202423
0.0164342
0.0130591
0.0103334
0.00841055
0.00735393
0.00715266
0.00773344
0.00898405
0.0107748
0.0129743
0.0154597
0.0181227
-0.0801379
-0.0791422
-0.0778783
-0.0763339
-0.0744986
-0.072364
-0.0699245
-0.0671779
-0.0641263
-0.060776
-0.0571383
-0.0532291
-0.0490689
-0.0446822
-0.0400976
-0.0353465
-0.0304633
-0.0254837
-0.020445
-0.0153849
-0.0103412
-0.00535159
-0.000453233
0.00431728
0.00892382
0.0133306
0.017502
0.0214021
0.0249941
0.0282416
0.0311054
0.033547
0.0355274
0.0370074
0.0379493
0.0383189
0.0380891
0.0372437
0.0357851
0.0337427
0.0311818
0.0282096
0.0249764
0.0216678
0.0184919
0.0156589
0.0133349
0.0116549
0.0106878
0.010441
0.0108679
0.0118869
0.0133976
0.0152936
0.0174711
0.0198352
-0.0749217
-0.0739784
-0.0727847
-0.0713308
-0.0696086
-0.0676118
-0.0653363
-0.062781
-0.0599481
-0.0568438
-0.0534779
-0.0498644
-0.0460211
-0.0419695
-0.0377344
-0.0333435
-0.0288268
-0.0242164
-0.0195454
-0.014848
-0.0101587
-0.00551217
-0.000942931
0.00351479
0.00782698
0.0119599
0.0158798
0.019553
0.022945
0.0260217
0.0287479
0.0310891
0.033011
0.03448
0.0354651
0.0359396
0.0358839
0.0352894
0.0341642
0.0325385
0.0304715
0.0280557
0.0254155
0.022702
0.0200869
0.0177376
0.0157846
0.0143501
0.0135002
0.0132526
0.0135804
0.0144261
0.0157133
0.0173565
0.0192695
0.0213706
-0.0699332
-0.0690498
-0.0679327
-0.0665742
-0.064968
-0.0631095
-0.0609959
-0.0586268
-0.0560048
-0.0531354
-0.0500276
-0.0466938
-0.0431494
-0.0394133
-0.0355073
-0.0314555
-0.0272847
-0.0230232
-0.0187006
-0.0143479
-0.00999639
-0.00567782
-0.00142407
0.00273299
0.00676165
0.0106303
0.0143073
0.0177614
0.0209603
0.0238726
0.0264665
0.0287114
0.0305772
0.0320355
0.0330608
0.0336324
0.0337368
0.0333707
0.0325453
0.0312906
0.0296596
0.027731
0.0256083
0.0234165
0.0212955
0.0193808
0.0177661
0.0165714
0.0158546
0.0156383
0.0159098
0.0166297
0.0177408
0.0191757
0.0208634
0.0227345
-0.0651752
-0.0643567
-0.0633204
-0.0620601
-0.060571
-0.0588498
-0.0568947
-0.0547059
-0.0522862
-0.0496406
-0.0467775
-0.0437075
-0.0404446
-0.0370052
-0.0334083
-0.0296754
-0.02583
-0.0218973
-0.0179038
-0.0138773
-0.00984627
-0.00583965
-0.00188671
0.00198311
0.0057404
0.00935571
0.0127999
0.0160437
0.0190578
0.0218128
0.0242805
0.0264336
0.0282462
0.0296941
0.0307565
0.0314175
0.0316681
0.0315087
0.0309521
0.0300269
0.0287799
0.0272777
0.0256064
0.0238689
0.0221799
0.0206672
0.0193516
0.018385
0.0178084
0.0176459
0.0178937
0.0185259
0.0195007
0.0207657
0.0222631
0.0239346
-0.0606501
-0.0598997
-0.0589463
-0.0577852
-0.0564126
-0.0548263
-0.0530252
-0.05101
-0.0487835
-0.0463506
-0.0437186
-0.0408972
-0.0378987
-0.0347375
-0.0314305
-0.0279966
-0.0244565
-0.0208326
-0.0171487
-0.0134298
-0.00970142
-0.00599002
-0.00232233
0.00127466
0.00477384
0.00814805
0.0113702
0.0144136
0.0172519
0.0198577
0.0222057
0.024272
0.0260342
0.0274718
0.028568
0.0293105
0.0296937
0.0297202
0.0294035
0.0287698
0.0278601
0.0267308
0.0254534
0.0241105
0.0227912
0.0215726
0.0205877
0.0198463
0.0194138
0.0193199
0.0195681
0.0201429
0.0210143
0.0221421
0.02348
0.0249796
-0.0563607
-0.0556796
-0.0548097
-0.0537471
-0.052489
-0.0510339
-0.0493812
-0.0475321
-0.0454894
-0.0432576
-0.0408434
-0.0382554
-0.0355046
-0.0326038
-0.0295678
-0.0264133
-0.0231587
-0.0198239
-0.0164302
-0.0129999
-0.00955607
-0.00612266
-0.00272398
0.000615346
0.00387044
0.00701654
0.0100289
0.0128827
0.0155542
0.018019
0.0202543
0.022239
0.0239536
0.025381
0.0265073
0.0273233
0.0278256
0.0280182
0.0279143
0.0275376
0.0269236
0.0261199
0.0251855
0.0241877
0.0231991
0.0222891
0.0215495
0.0210105
0.0207185
0.0207014
0.0209674
0.0215082
0.022303
0.0233215
0.0245269
0.0258795
-0.0523095
-0.0516976
-0.0509102
-0.049944
-0.0487971
-0.0474684
-0.0459579
-0.0442668
-0.0423979
-0.0403555
-0.0381456
-0.0357762
-0.0332567
-0.0305986
-0.0278151
-0.0249209
-0.0219323
-0.0188671
-0.0157441
-0.0125834
-0.0094058
-0.00623275
-0.00308632
1.10758e-05
0.00303687
0.00596846
0.00878329
0.0114591
0.0139739
0.0163061
0.0184357
0.0203437
0.0220134
0.0234302
0.0245828
0.0254642
0.0260724
0.0264123
0.0264961
0.0263448
0.0259891
0.025469
0.0248327
0.0241355
0.0234371
0.0227963
0.02228
0.0219238
0.0217649
0.0218282
0.0221237
0.0226485
0.0233883
0.0243208
0.0254171
0.026645
-0.0484991
-0.0479551
-0.047248
-0.0463752
-0.0453351
-0.0441271
-0.0427515
-0.0412097
-0.0395043
-0.0376394
-0.0356205
-0.0334546
-0.0311503
-0.0287177
-0.0261685
-0.0235158
-0.0207741
-0.017959
-0.0150875
-0.0121775
-0.00924749
-0.00631694
-0.0034057
-0.000534025
0.0022777
0.00500883
0.00763892
0.0101482
0.012517
0.0147256
0.0167562
0.0185924
0.0202194
0.0216251
0.0228
0.0237386
0.0244402
0.0249095
0.0251577
0.0252032
0.0250718
0.0247972
0.0244195
0.0239842
0.0235389
0.0231324
0.0228165
0.0226256
0.022591
0.0227347
0.0230673
0.0235892
0.0242913
0.0251572
0.0261645
0.0272874
-0.0449324
-0.0444541
-0.043824
-0.0430403
-0.0421018
-0.041008
-0.0397595
-0.0383578
-0.0368053
-0.0351058
-0.0332643
-0.0312872
-0.0291821
-0.026958
-0.0246253
-0.0221956
-0.0196818
-0.0170978
-0.0144587
-0.0117803
-0.00907943
-0.0063734
-0.00368007
-0.00101769
0.00159533
0.00414049
0.00659932
0.00895373
0.0111864
0.0132801
0.0152191
0.0169881
0.0185747
0.0199685
0.0211616
0.0221496
0.0229324
0.0235144
0.0239056
0.0241216
0.0241844
0.0241216
0.0239666
0.0237575
0.0235341
0.0233316
0.023193
0.0231502
0.0232301
0.0234519
0.0238259
0.0243546
0.0250325
0.0258477
0.0267832
0.0278183
-0.0416129
-0.0411969
-0.0406399
-0.0399404
-0.0390973
-0.0381106
-0.0369808
-0.0357095
-0.0342989
-0.0327526
-0.031075
-0.0292719
-0.0273502
-0.0253178
-0.023184
-0.0209591
-0.0186546
-0.0162827
-0.013857
-0.0113915
-0.00890129
-0.0064018
-0.00390903
-0.00143938
0.000990591
0.00336431
0.00566514
0.0078768
0.00998383
0.0119712
0.0138253
0.0155319
0.0170801
0.0184611
0.0196684
0.0206983
0.0215508
0.02223
0.0227444
0.0231072
0.0233368
0.0234563
0.0234928
0.0234778
0.0234481
0.02342
0.0234378
0.0235274
0.0237121
0.0240081
0.0244254
0.0249674
0.0256314
0.0264089
0.027287
0.0282494
-0.0385444
-0.0381868
-0.0376981
-0.037077
-0.0363228
-0.0354354
-0.0344155
-0.0332645
-0.0319846
-0.030579
-0.0290518
-0.0274081
-0.025654
-0.0237968
-0.0218445
-0.0198065
-0.0176927
-0.0155144
-0.0132833
-0.0110121
-0.00871412
-0.0064032
-0.00409368
-0.00180018
0.000462431
0.00267924
0.00483549
0.00691653
0.0089085
0.0107986
0.0125743
0.0142227
0.0157344
0.0171019
0.0183195
0.0193842
0.0202958
0.0210578
0.0216774
0.0221657
0.0225378
0.0228127
0.0230123
0.0231617
0.0232856
0.0234184
0.0235759
0.0237841
0.0240636
0.0244288
0.0248892
0.0254489
0.0261067
0.0268569
0.0276897
0.0285924
-0.0357319
-0.0354277
-0.0350019
-0.034453
-0.0337804
-0.0329842
-0.032065
-0.031024
-0.0298634
-0.0285859
-0.0271954
-0.0256964
-0.0240944
-0.0223958
-0.020608
-0.018739
-0.0167979
-0.0147946
-0.0127396
-0.0106442
-0.00852022
-0.00638004
-0.00423647
-0.00210258
8.3495e-06
0.00208297
0.00410801
0.00607029
0.00795787
0.0097604
0.0114634
0.0130576
0.0145347
0.0158882
0.0171127
0.0182056
0.0191665
0.0199983
0.0207069
0.0213015
0.0217944
0.0222008
0.0225393
0.0228303
0.0230939
0.0233554
0.0236324
0.0239444
0.0243084
0.0247371
0.0252391
0.0258187
0.026476
0.0272071
0.0280047
0.0288589
-0.0331784
-0.0329236
-0.0325553
-0.0320722
-0.031474
-0.0307605
-0.0299323
-0.0289908
-0.0279377
-0.0267757
-0.0255082
-0.0241392
-0.0226738
-0.0211175
-0.019477
-0.0177595
-0.0159731
-0.0141266
-0.0122293
-0.0102913
-0.00832313
-0.00633594
-0.0043411
-0.00235031
-0.000375479
0.00157152
0.00347876
0.00533456
0.00712811
0.00884932
0.0104868
0.0120322
0.0134775
0.0148167
0.0160451
0.0171602
0.0181616
0.0190514
0.0198344
0.0205179
0.0211122
0.0216296
0.0220851
0.0224958
0.022877
0.0232491
0.023628
0.0240297
0.024468
0.0249538
0.0254948
0.0260953
0.0267559
0.0274742
0.0282449
0.0290601
-0.0308913
-0.030681
-0.0303644
-0.0299404
-0.0294086
-0.028769
-0.0280222
-0.0271692
-0.0262119
-0.0251525
-0.0239941
-0.0227405
-0.021396
-0.0199658
-0.0184556
-0.0168722
-0.0152225
-0.0135145
-0.0117566
-0.0099578
-0.00812748
-0.00627558
-0.00441232
-0.00254816
-0.000693797
0.00114013
0.00294302
0.00470424
0.00641366
0.00806207
0.00964106
0.0111426
0.0125585
0.0138834
0.0151133
0.0162455
0.0172795
0.0182167
0.0190609
0.0198181
0.0204965
0.0211061
0.0216591
0.0221695
0.0226492
0.023115
0.0235805
0.0240588
0.0245614
0.0250977
0.0256743
0.0262952
0.0269616
0.027672
0.0284224
0.0292067
-0.0288795
-0.0287084
-0.0284372
-0.0280651
-0.0275917
-0.0270169
-0.0263412
-0.0255658
-0.0246921
-0.0237222
-0.0226591
-0.0215059
-0.0202667
-0.0189461
-0.0175494
-0.0160825
-0.0145517
-0.0129641
-0.0113273
-0.00964943
-0.00793887
-0.00620455
-0.00445567
-0.00270165
-0.00095207
0.000783397
0.00249527
0.004174
0.00581009
0.0073952
0.00892233
0.0103846
0.0117739
0.0130848
0.014314
0.0154588
0.0165185
0.0174939
0.0183879
0.0192051
0.0199519
0.0206368
0.0212697
0.0218607
0.0224232
0.0229673
0.0235053
0.0240482
0.0246056
0.0251855
0.0257937
0.0264339
0.0271074
0.0278134
0.0285488
0.029309
-0.027154
-0.0270164
-0.0267841
-0.0264564
-0.0260328
-0.0255133
-0.0248984
-0.024189
-0.0233866
-0.022493
-0.0215109
-0.0204431
-0.0192934
-0.018066
-0.0167655
-0.0153974
-0.0139675
-0.012482
-0.010948
-0.00937265
-0.00776366
-0.00612908
-0.00447725
-0.00281671
-0.00115612
0.000495726
0.00213016
0.00373864
0.00531249
0.00684383
0.00832617
0.00975433
0.0111198
0.0124176
0.0136446
0.0147984
0.0158777
0.016883
0.0178164
0.0186815
0.0194835
0.0202291
0.0209264
0.0215837
0.0222116
0.0228193
0.0234165
0.0240126
0.0246156
0.0252323
0.0258677
0.0265252
0.0272061
0.02791
0.0286347
0.0293764
-0.0257287
-0.0256186
-0.0254183
-0.0251271
-0.0247445
-0.0242705
-0.0237056
-0.0230505
-0.0223065
-0.0214755
-0.0205597
-0.019562
-0.0184856
-0.0173344
-0.0161128
-0.0148256
-0.0134781
-0.0120762
-0.0106262
-0.00913477
-0.00760887
-0.0060559
-0.00448348
-0.00289944
-0.00131173
0.000271619
0.0018426
0.00339344
0.00491641
0.00640426
0.0078515
0.0092488
0.0105932
0.0118793
0.0131034
0.0142632
0.0153571
0.0163851
0.0173487
0.0182509
0.0190957
0.0198886
0.0206365
0.0213455
0.0220248
0.0226824
0.0233266
0.023965
0.0246046
0.0252511
0.025909
0.0265813
0.0272692
0.0279726
0.0286897
0.0294177
-0.0246203
-0.0245315
-0.024356
-0.0240931
-0.0237423
-0.0233035
-0.0227772
-0.0221641
-0.0214655
-0.0206828
-0.0198184
-0.0188747
-0.0178549
-0.0167626
-0.0156017
-0.0143769
-0.0130931
-0.0117557
-0.0103704
-0.00894365
-0.00748182
-0.00599177
-0.0044806
-0.00295559
-0.00142413
0.000106316
0.00162828
0.00313448
0.00461782
0.00607127
0.00748846
0.00886372
0.0101922
0.011469
0.0126903
0.0138538
0.0149579
0.0160024
0.0169882
0.0179175
0.0187937
0.0196214
0.0204061
0.0211541
0.021872
0.0225671
0.0232465
0.0239168
0.0245841
0.0252534
0.0259288
0.0266127
0.0273066
0.0280103
0.0287225
0.0294408
-0.0238517
-0.0237775
-0.0236192
-0.0233758
-0.0230469
-0.0226325
-0.0221329
-0.0215488
-0.0208813
-0.0201321
-0.019303
-0.0183967
-0.0174159
-0.0163642
-0.0152453
-0.0140635
-0.0128235
-0.0115305
-0.01019
-0.00880777
-0.0073901
-0.00594344
-0.00447451
-0.0029902
-0.00149755
-3.62439e-06
0.00148449
0.0029598
0.00441556
0.00584511
0.00724214
0.00860153
0.00991853
0.0111885
0.0124076
0.0135733
0.014684
0.0157393
0.0167397
0.017687
0.0185841
0.0194351
0.0202445
0.0210183
0.0217621
0.0224824
0.0231856
0.0238775
0.0245637
0.0252487
0.0259361
0.0266283
0.0273265
0.0280308
0.02874
0.0294519
-0.023449
-0.0233826
-0.0232332
-0.0230001
-0.0226828
-0.0222811
-0.0217955
-0.0212266
-0.0205754
-0.0198436
-0.0190331
-0.0181462
-0.0171858
-0.0161553
-0.0150582
-0.0138988
-0.0126817
-0.0114118
-0.0100946
-0.00873558
-0.00734091
-0.00591685
-0.00446991
-0.00300681
-0.00153436
-5.94701e-05
0.00141099
0.00287021
0.00431156
0.00572864
0.00711528
0.00846637
0.00977715
0.0110434
0.0122612
0.0134279
0.0145419
0.0156025
0.0166103
0.0175668
0.0184746
0.0193374
0.0201595
0.0209464
0.0217035
0.0224367
0.0231521
0.0238552
0.0245511
0.0252441
0.0259378
0.0266343
0.0273349
0.0280396
0.0287473
0.0294561
)
;

boundaryField
{
    inlet
    {
        type            zeroGradient;
    }
    outlet
    {
        type            fixedValue;
        value           nonuniform 0();
    }
    cylinder
    {
        type            zeroGradient;
    }
    top
    {
        type            symmetryPlane;
    }
    bottom
    {
        type            symmetryPlane;
    }
    defaultFaces
    {
        type            empty;
    }
    procBoundary14to10
    {
        type            processor;
        value           nonuniform List<scalar> 
57
(
0.0390213
0.0448479
0.0495691
0.0529007
0.0544933
0.0548487
0.0532829
0.0500475
0.0453527
0.0393299
0.0320226
0.0233364
0.0129376
0.000169058
-0.0158186
-0.0356268
-0.0590412
-0.0845455
-0.109005
-0.128082
-0.137968
-0.135872
-0.124889
-0.108485
-0.0900775
-0.0720659
-0.0557054
-0.0414262
-0.0292181
-0.192449
-0.195113
-0.196929
-0.197626
-0.196946
-0.194671
-0.190647
-0.184804
-0.17716
-0.167824
-0.156981
-0.144879
-0.131801
-0.118048
-0.103916
-0.0896758
-0.0755648
-0.0617789
-0.048471
-0.0357537
-0.0237035
-0.0123684
-0.00177474
0.00806456
0.0171429
0.0254555
0.0329984
0.0329984
)
;
    }
    procBoundary14to11
    {
        type            processor;
        value           uniform -0.0159128;
    }
    procBoundary14to13
    {
        type            processor;
        value           nonuniform List<scalar> 
35
(
-0.181491
-0.173816
-0.166227
-0.15874
-0.151372
-0.144133
-0.137036
-0.130089
-0.123302
-0.116683
-0.110239
-0.103976
-0.0979021
-0.0920236
-0.0863473
-0.0808794
-0.0756259
-0.0705921
-0.0657832
-0.0612038
-0.056858
-0.0527499
-0.0488832
-0.045262
-0.0418902
-0.0387728
-0.0359165
-0.0333214
-0.0309967
-0.0289519
-0.0271984
-0.0257501
-0.0246236
-0.0238429
-0.0234335
)
;
    }
    procBoundary14to15
    {
        type            processor;
        value           nonuniform List<scalar> 
35
(
-0.0129479
-0.00998908
-0.00705363
-0.00415905
-0.00132263
0.00143893
0.00410991
0.00667592
0.00912421
0.0114438
0.0136259
0.0156634
0.0175517
0.0192878
0.0208711
0.0223027
0.0235854
0.0247238
0.0257239
0.0265928
0.0273388
0.0279705
0.0284976
0.0289299
0.0292773
0.0295498
0.0297576
0.0299103
0.0300173
0.0300878
0.0301302
0.0301524
0.0301616
0.0301636
0.0301632
)
;
    }
}


// ************************************************************************* //
