/*--------------------------------*- C++ -*----------------------------------*\
  =========                 |
  \\      /  F ield         | OpenFOAM: The Open Source CFD Toolbox
   \\    /   O peration     | Website:  https://openfoam.org
    \\  /    A nd           | Version:  7
     \\/     M anipulation  |
\*---------------------------------------------------------------------------*/
FoamFile
{
    version     2.0;
    format      ascii;
    class       volScalarField;
    location    "90";
    object      p;
}
// * * * * * * * * * * * * * * * * * * * * * * * * * * * * * * * * * * * * * //

dimensions      [0 2 -2 0 0 0 0];

internalField   nonuniform List<scalar> 
31800
(
-0.278113
-0.279699
-0.280593
-0.281315
-0.281936
-0.282477
-0.282972
-0.283443
-0.283902
-0.284352
-0.284791
-0.285211
-0.285603
-0.285953
-0.286248
-0.286471
-0.286607
-0.286639
-0.286551
-0.286333
-0.285978
-0.285492
-0.284892
-0.2842
-0.283489
-0.278834
-0.280424
-0.281323
-0.282054
-0.282689
-0.283248
-0.283768
-0.28427
-0.284767
-0.28526
-0.285748
-0.286222
-0.286673
-0.287084
-0.287441
-0.287723
-0.287911
-0.287982
-0.287913
-0.287683
-0.287273
-0.286674
-0.285891
-0.284921
-0.283813
-0.279671
-0.28125
-0.282147
-0.282882
-0.283526
-0.284101
-0.284642
-0.285173
-0.285705
-0.28624
-0.286776
-0.287304
-0.287813
-0.288287
-0.288706
-0.289049
-0.289291
-0.289403
-0.289355
-0.289113
-0.288646
-0.287931
-0.286956
-0.28569
-0.28416
-0.280619
-0.282175
-0.283064
-0.283796
-0.284445
-0.285031
-0.285591
-0.286148
-0.286713
-0.287288
-0.287871
-0.288452
-0.289019
-0.289555
-0.290039
-0.290444
-0.290742
-0.290898
-0.290872
-0.290621
-0.290098
-0.289263
-0.288091
-0.286517
-0.284539
-0.281675
-0.283194
-0.284068
-0.284793
-0.285441
-0.286035
-0.28661
-0.28719
-0.287785
-0.288399
-0.289027
-0.28966
-0.290285
-0.290883
-0.291431
-0.291901
-0.292257
-0.29246
-0.29246
-0.292202
-0.291625
-0.290671
-0.289298
-0.287408
-0.284951
-0.282834
-0.284304
-0.285155
-0.285867
-0.28651
-0.287107
-0.287694
-0.288294
-0.288917
-0.289566
-0.290237
-0.290921
-0.291602
-0.292262
-0.292875
-0.293409
-0.293826
-0.294078
-0.294108
-0.293848
-0.293221
-0.292148
-0.290574
-0.288365
-0.285391
-0.284088
-0.285497
-0.286319
-0.287012
-0.287645
-0.288241
-0.288836
-0.289451
-0.290098
-0.29078
-0.291491
-0.292223
-0.29296
-0.29368
-0.294357
-0.294957
-0.295436
-0.29574
-0.295804
-0.295547
-0.294875
-0.293687
-0.291912
-0.28939
-0.285842
-0.28543
-0.286767
-0.287554
-0.288223
-0.28884
-0.28943
-0.290028
-0.290654
-0.291322
-0.292032
-0.29278
-0.293557
-0.294346
-0.295125
-0.295865
-0.296529
-0.29707
-0.297429
-0.297529
-0.29728
-0.296569
-0.295272
-0.293296
-0.290481
-0.286278
-0.286851
-0.288106
-0.288851
-0.28949
-0.290087
-0.290666
-0.291261
-0.291894
-0.292577
-0.293311
-0.294092
-0.29491
-0.295747
-0.296581
-0.297381
-0.298108
-0.29871
-0.299123
-0.299262
-0.299024
-0.298281
-0.296881
-0.294703
-0.291632
-0.286655
-0.288341
-0.289506
-0.290203
-0.290807
-0.291378
-0.291939
-0.292526
-0.29316
-0.293853
-0.294605
-0.295414
-0.296267
-0.297148
-0.298032
-0.298888
-0.299674
-0.300335
-0.300799
-0.300977
-0.300752
-0.299981
-0.298487
-0.296098
-0.29284
-0.286885
-0.28989
-0.290957
-0.291602
-0.292165
-0.292703
-0.293242
-0.293815
-0.294443
-0.295138
-0.295903
-0.296732
-0.297614
-0.298532
-0.29946
-0.300366
-0.301205
-0.301919
-0.302432
-0.302644
-0.302431
-0.301634
-0.300052
-0.29743
-0.294118
-0.286867
-0.291487
-0.292451
-0.293039
-0.293556
-0.294056
-0.294565
-0.295116
-0.295731
-0.296422
-0.297191
-0.298033
-0.298936
-0.299883
-0.300848
-0.301795
-0.302679
-0.303438
-0.303991
-0.304231
-0.304025
-0.303196
-0.301535
-0.29863
-0.295399
-0.286868
-0.293123
-0.29398
-0.294506
-0.294972
-0.295427
-0.295899
-0.296421
-0.297015
-0.297693
-0.298457
-0.299303
-0.300218
-0.301185
-0.302176
-0.303155
-0.304073
-0.304866
-0.305447
-0.305704
-0.305493
-0.30462
-0.302895
-0.299764
-0.296344
-0.286887
-0.294788
-0.295536
-0.295996
-0.296405
-0.296809
-0.297236
-0.29772
-0.298284
-0.298939
-0.299689
-0.300528
-0.301445
-0.30242
-0.303426
-0.304424
-0.305364
-0.306176
-0.306771
-0.307029
-0.306797
-0.305861
-0.30407
-0.300657
-0.297196
-0.286639
-0.296473
-0.297111
-0.297502
-0.297849
-0.298194
-0.298569
-0.299006
-0.299529
-0.300151
-0.300874
-0.301696
-0.302602
-0.303573
-0.304581
-0.305585
-0.30653
-0.307347
-0.307936
-0.308174
-0.307901
-0.306872
-0.305015
-0.301236
-0.2979
-0.286085
-0.29817
-0.298698
-0.299018
-0.299297
-0.299577
-0.29989
-0.30027
-0.300741
-0.301318
-0.302004
-0.302795
-0.303677
-0.304631
-0.305626
-0.306619
-0.307554
-0.308354
-0.308918
-0.309111
-0.308774
-0.307613
-0.30569
-0.301455
-0.298359
-0.28523
-0.299872
-0.300294
-0.300539
-0.300745
-0.300952
-0.301194
-0.301506
-0.301914
-0.302433
-0.303068
-0.303815
-0.30466
-0.305582
-0.306548
-0.307514
-0.30842
-0.309183
-0.309697
-0.309818
-0.309389
-0.308052
-0.306057
-0.301281
-0.29849
-0.284091
-0.301575
-0.301893
-0.302062
-0.30219
-0.302316
-0.302477
-0.30271
-0.303042
-0.303491
-0.304061
-0.304749
-0.305542
-0.306416
-0.307337
-0.308259
-0.309115
-0.309819
-0.310259
-0.310277
-0.309728
-0.308169
-0.306087
-0.300708
-0.298213
-0.282703
-0.303277
-0.303495
-0.303585
-0.303629
-0.303666
-0.303736
-0.303878
-0.304122
-0.304486
-0.304977
-0.305592
-0.306317
-0.307128
-0.307987
-0.308845
-0.309632
-0.310255
-0.310593
-0.310478
-0.309777
-0.307952
-0.305752
-0.299751
-0.297456
-0.281109
-0.304976
-0.3051
-0.305108
-0.305063
-0.305002
-0.304971
-0.305009
-0.305151
-0.305417
-0.305815
-0.306342
-0.306984
-0.307715
-0.308495
-0.309271
-0.309968
-0.310485
-0.310695
-0.310414
-0.309526
-0.3074
-0.305027
-0.298439
-0.296161
-0.279343
-0.306674
-0.306708
-0.306633
-0.306492
-0.306326
-0.306181
-0.306105
-0.306132
-0.306285
-0.306575
-0.306999
-0.307543
-0.308178
-0.308863
-0.309538
-0.310123
-0.310511
-0.310565
-0.310084
-0.30897
-0.306515
-0.303894
-0.296806
-0.294304
-0.277417
-0.308375
-0.308325
-0.308164
-0.30792
-0.307639
-0.307371
-0.307167
-0.307066
-0.307093
-0.307261
-0.307568
-0.307998
-0.308523
-0.309095
-0.309652
-0.310104
-0.310336
-0.310204
-0.309491
-0.308105
-0.305303
-0.302339
-0.294878
-0.291911
-0.275341
-0.310088
-0.309955
-0.309705
-0.309353
-0.308948
-0.308546
-0.308202
-0.307959
-0.307847
-0.307879
-0.308055
-0.308359
-0.308757
-0.309202
-0.309621
-0.309919
-0.309969
-0.309616
-0.308635
-0.306928
-0.303764
-0.300362
-0.292655
-0.289032
-0.273145
-0.311819
-0.311607
-0.311265
-0.310798
-0.310259
-0.309712
-0.309216
-0.30882
-0.308556
-0.30844
-0.308472
-0.308635
-0.308894
-0.309194
-0.309456
-0.309576
-0.309415
-0.308807
-0.307519
-0.305439
-0.301899
-0.297974
-0.290126
-0.285726
-0.270689
-0.313582
-0.313292
-0.312853
-0.312263
-0.311581
-0.310879
-0.31022
-0.309659
-0.309231
-0.308956
-0.308832
-0.308843
-0.308948
-0.309086
-0.309172
-0.309088
-0.308683
-0.307779
-0.306142
-0.303638
-0.299703
-0.295197
-0.287274
-0.282071
-0.267911
-0.31539
-0.315022
-0.31448
-0.313759
-0.312926
-0.312057
-0.311226
-0.310489
-0.309887
-0.309441
-0.309151
-0.308997
-0.308935
-0.308895
-0.308781
-0.308463
-0.307778
-0.306534
-0.304503
-0.301527
-0.297173
-0.292057
-0.284093
-0.278131
-0.264812
-0.31726
-0.31681
-0.316159
-0.315299
-0.314304
-0.313261
-0.312246
-0.311324
-0.310539
-0.309914
-0.309448
-0.309117
-0.308872
-0.308635
-0.308296
-0.307711
-0.306704
-0.305073
-0.3026
-0.299111
-0.294314
-0.28858
-0.280588
-0.273937
-0.261395
-0.31921
-0.318672
-0.317905
-0.316896
-0.315731
-0.314503
-0.313297
-0.312182
-0.311206
-0.310392
-0.30974
-0.309221
-0.308778
-0.308321
-0.307727
-0.306836
-0.305462
-0.303395
-0.300435
-0.2964
-0.291138
-0.284799
-0.276774
-0.269449
-0.257637
-0.32126
-0.320625
-0.319732
-0.318566
-0.317221
-0.3158
-0.314395
-0.313079
-0.311905
-0.310895
-0.310048
-0.309328
-0.308668
-0.307965
-0.30708
-0.30584
-0.304049
-0.301498
-0.29801
-0.293415
-0.287672
-0.280766
-0.27268
-0.264561
-0.253542
-0.323431
-0.322686
-0.321657
-0.320324
-0.31879
-0.317168
-0.315557
-0.314035
-0.312656
-0.311443
-0.31039
-0.309454
-0.308554
-0.307574
-0.306358
-0.304721
-0.302463
-0.299385
-0.295338
-0.29018
-0.283957
-0.276558
-0.268364
-0.259316
-0.249254
-0.325744
-0.324874
-0.323697
-0.322186
-0.320455
-0.318625
-0.316802
-0.315068
-0.313478
-0.312055
-0.310784
-0.309612
-0.308447
-0.307152
-0.30556
-0.303475
-0.300702
-0.29706
-0.292436
-0.286728
-0.280039
-0.272245
-0.263899
-0.254223
-0.244959
-0.328222
-0.327207
-0.32587
-0.324171
-0.322233
-0.320188
-0.318148
-0.316197
-0.31439
-0.312747
-0.311243
-0.309814
-0.30835
-0.306699
-0.30468
-0.302096
-0.298765
-0.294533
-0.289327
-0.283093
-0.275972
-0.267868
-0.259324
-0.249575
-0.240478
-0.330885
-0.329703
-0.328192
-0.326293
-0.32414
-0.321875
-0.319611
-0.317439
-0.315409
-0.313534
-0.31178
-0.310065
-0.308264
-0.306209
-0.303712
-0.300581
-0.296655
-0.291817
-0.28604
-0.279314
-0.271806
-0.26345
-0.254764
-0.24505
-0.236002
-0.333754
-0.332382
-0.330682
-0.328572
-0.326194
-0.323701
-0.321211
-0.31881
-0.316549
-0.314428
-0.3124
-0.310367
-0.308185
-0.305674
-0.302646
-0.298923
-0.294376
-0.288932
-0.282605
-0.275426
-0.26758
-0.259026
-0.250238
-0.240602
-0.231669
-0.336849
-0.335259
-0.333354
-0.331021
-0.328411
-0.325685
-0.322961
-0.320327
-0.317822
-0.315437
-0.313108
-0.310717
-0.308103
-0.305083
-0.301473
-0.297123
-0.29194
-0.285898
-0.27905
-0.271463
-0.263324
-0.254613
-0.245759
-0.236216
-0.227387
-0.340189
-0.338351
-0.336226
-0.333658
-0.330807
-0.32784
-0.324878
-0.322001
-0.319239
-0.316567
-0.313901
-0.311104
-0.308006
-0.304421
-0.300185
-0.29518
-0.289358
-0.282737
-0.275404
-0.267452
-0.259061
-0.250224
-0.241329
-0.231872
-0.223155
-0.343789
-0.341674
-0.339311
-0.336496
-0.333395
-0.330182
-0.326974
-0.323842
-0.320805
-0.317816
-0.314771
-0.311519
-0.307878
-0.303676
-0.298775
-0.293098
-0.286643
-0.279469
-0.27169
-0.263411
-0.254804
-0.245865
-0.236941
-0.227565
-0.218946
-0.347665
-0.34524
-0.342623
-0.33955
-0.336189
-0.332722
-0.329259
-0.325859
-0.322522
-0.31918
-0.315709
-0.311942
-0.307702
-0.302834
-0.297237
-0.290881
-0.283809
-0.276115
-0.267926
-0.259356
-0.25056
-0.241535
-0.232588
-0.223284
-0.21475
-0.351827
-0.349062
-0.346175
-0.342831
-0.339203
-0.335473
-0.331743
-0.328056
-0.324388
-0.32065
-0.316697
-0.312355
-0.307459
-0.301882
-0.295568
-0.288537
-0.28087
-0.272688
-0.264125
-0.255294
-0.24633
-0.23723
-0.228262
-0.219019
-0.210557
-0.356286
-0.353149
-0.349976
-0.346351
-0.342445
-0.338443
-0.334431
-0.330432
-0.326397
-0.322211
-0.317715
-0.312736
-0.307128
-0.300808
-0.293767
-0.286072
-0.277838
-0.2692
-0.260295
-0.251227
-0.242111
-0.232942
-0.223952
-0.21476
-0.206356
-0.361049
-0.357509
-0.354035
-0.350118
-0.345927
-0.34164
-0.337327
-0.332984
-0.328536
-0.323844
-0.318739
-0.313059
-0.306692
-0.299602
-0.291833
-0.283492
-0.274719
-0.265658
-0.256438
-0.247152
-0.237896
-0.228662
-0.219646
-0.210498
-0.202138
-0.36612
-0.362149
-0.35836
-0.354141
-0.349653
-0.345068
-0.340429
-0.335705
-0.330789
-0.325525
-0.319741
-0.313301
-0.306133
-0.298257
-0.289766
-0.280802
-0.27152
-0.262065
-0.252553
-0.243066
-0.233678
-0.224379
-0.215335
-0.206222
-0.197897
-0.371499
-0.367069
-0.362954
-0.358425
-0.353629
-0.348726
-0.343732
-0.338578
-0.333133
-0.327225
-0.320693
-0.313435
-0.305434
-0.296765
-0.287566
-0.278004
-0.268243
-0.25842
-0.248636
-0.238959
-0.229445
-0.220083
-0.211006
-0.201922
-0.193623
-0.377184
-0.372271
-0.36782
-0.362971
-0.357855
-0.352612
-0.347223
-0.341586
-0.335541
-0.328912
-0.321563
-0.313438
-0.30458
-0.295119
-0.285231
-0.2751
-0.264887
-0.254718
-0.244679
-0.234822
-0.225187
-0.215761
-0.20665
-0.197591
-0.18931
-0.383168
-0.377751
-0.372954
-0.367778
-0.362327
-0.356716
-0.350887
-0.3447
-0.337978
-0.330551
-0.322319
-0.313286
-0.303557
-0.293313
-0.282759
-0.272086
-0.261447
-0.250953
-0.240673
-0.230644
-0.220892
-0.211402
-0.202255
-0.193218
-0.184949
-0.38944
-0.3835
-0.378353
-0.372841
-0.367036
-0.361023
-0.354699
-0.34789
-0.340407
-0.332103
-0.322929
-0.312956
-0.302352
-0.291341
-0.280146
-0.268958
-0.257917
-0.247115
-0.236606
-0.226413
-0.216548
-0.206995
-0.197812
-0.188794
-0.180533
-0.395984
-0.389507
-0.384005
-0.378148
-0.371967
-0.365511
-0.358627
-0.351115
-0.342786
-0.33353
-0.323363
-0.312427
-0.300952
-0.289194
-0.277385
-0.265708
-0.254287
-0.243195
-0.232467
-0.222116
-0.212143
-0.202529
-0.19331
-0.184312
-0.176056
-0.402779
-0.395755
-0.389895
-0.383684
-0.3771
-0.37015
-0.362635
-0.354332
-0.345069
-0.334791
-0.323589
-0.31168
-0.299345
-0.286864
-0.274469
-0.262329
-0.250547
-0.239179
-0.228244
-0.217742
-0.207665
-0.197993
-0.188741
-0.179763
-0.171511
-0.409798
-0.402221
-0.396001
-0.389424
-0.382406
-0.374904
-0.366676
-0.357491
-0.347209
-0.335846
-0.323578
-0.310694
-0.297518
-0.284341
-0.271388
-0.258809
-0.246686
-0.235055
-0.223923
-0.213279
-0.203104
-0.193377
-0.184094
-0.175139
-0.16689
-0.417006
-0.408876
-0.402297
-0.39534
-0.387847
-0.379727
-0.370699
-0.360537
-0.349156
-0.336656
-0.323304
-0.309452
-0.295457
-0.281613
-0.268131
-0.255135
-0.242689
-0.23081
-0.219491
-0.208712
-0.198447
-0.18867
-0.179362
-0.170432
-0.162189
-0.424364
-0.415685
-0.408748
-0.401392
-0.39338
-0.384567
-0.374646
-0.363414
-0.35086
-0.337184
-0.322738
-0.307934
-0.293149
-0.278669
-0.264684
-0.251295
-0.238543
-0.22643
-0.214936
-0.204032
-0.193684
-0.183863
-0.174536
-0.165636
-0.1574
-0.431824
-0.422605
-0.415311
-0.407535
-0.398952
-0.389365
-0.378454
-0.366063
-0.352273
-0.337391
-0.321855
-0.306123
-0.290578
-0.275493
-0.261033
-0.247273
-0.234234
-0.221902
-0.210245
-0.199226
-0.188805
-0.178946
-0.169609
-0.160744
-0.152518
-0.439332
-0.429588
-0.421938
-0.413716
-0.404501
-0.394053
-0.382056
-0.368423
-0.353346
-0.337243
-0.32063
-0.303998
-0.287728
-0.272071
-0.257163
-0.243056
-0.229748
-0.217212
-0.205406
-0.194283
-0.183799
-0.173912
-0.164572
-0.155748
-0.147539
-0.446826
-0.436577
-0.42857
-0.419871
-0.409959
-0.398559
-0.385383
-0.370433
-0.354032
-0.336706
-0.319039
-0.301542
-0.284584
-0.268388
-0.25306
-0.238627
-0.225071
-0.212347
-0.200406
-0.189193
-0.178657
-0.168751
-0.15942
-0.150643
-0.142456
-0.454238
-0.443508
-0.435144
-0.425932
-0.415251
-0.402808
-0.388362
-0.372036
-0.354286
-0.335747
-0.317057
-0.298734
-0.281126
-0.264426
-0.248707
-0.233973
-0.220187
-0.207294
-0.195233
-0.183944
-0.173369
-0.163457
-0.154145
-0.145424
-0.137267
-0.461493
-0.45031
-0.441586
-0.431822
-0.420297
-0.406718
-0.390923
-0.373173
-0.354065
-0.334335
-0.31466
-0.295555
-0.277339
-0.260168
-0.244088
-0.229078
-0.215085
-0.202041
-0.189878
-0.178529
-0.167929
-0.158021
-0.148741
-0.140084
-0.131965
-0.468509
-0.456908
-0.447818
-0.437457
-0.425011
-0.410208
-0.392995
-0.373787
-0.353328
-0.33244
-0.311827
-0.291986
-0.273203
-0.255599
-0.239188
-0.223928
-0.20975
-0.196577
-0.18433
-0.172937
-0.162328
-0.152439
-0.143203
-0.134619
-0.12655
-0.475202
-0.463217
-0.453756
-0.442748
-0.429303
-0.413196
-0.394508
-0.373827
-0.352037
-0.330033
-0.308533
-0.288007
-0.268701
-0.2507
-0.23399
-0.218508
-0.20417
-0.190889
-0.178579
-0.16716
-0.156558
-0.146702
-0.137526
-0.129025
-0.121016
-0.481479
-0.469151
-0.459309
-0.447604
-0.433084
-0.4156
-0.395396
-0.373243
-0.350155
-0.327088
-0.304757
-0.283598
-0.263816
-0.245457
-0.228481
-0.212805
-0.198334
-0.184969
-0.172616
-0.161191
-0.150613
-0.140807
-0.131705
-0.123297
-0.115363
-0.487245
-0.474617
-0.464382
-0.451929
-0.436262
-0.417341
-0.395597
-0.371986
-0.347648
-0.323579
-0.300478
-0.278741
-0.258529
-0.239852
-0.222645
-0.206808
-0.19223
-0.178806
-0.166434
-0.155023
-0.144488
-0.134748
-0.125736
-0.117433
-0.109588
-0.492404
-0.479518
-0.468879
-0.455625
-0.438746
-0.418342
-0.39505
-0.370016
-0.344485
-0.31948
-0.295674
-0.273417
-0.252824
-0.233872
-0.216471
-0.200504
-0.185849
-0.172391
-0.160024
-0.148649
-0.138177
-0.128521
-0.119617
-0.11143
-0.103691
-0.496856
-0.483759
-0.472701
-0.458596
-0.440449
-0.41853
-0.393701
-0.367291
-0.340636
-0.31477
-0.290327
-0.267609
-0.246686
-0.227503
-0.209946
-0.193882
-0.179181
-0.165719
-0.153381
-0.142065
-0.131676
-0.122123
-0.113343
-0.105287
-0.0976737
-0.500503
-0.487241
-0.475749
-0.460746
-0.441285
-0.417837
-0.3915
-0.363776
-0.336076
-0.309426
-0.284419
-0.261301
-0.240101
-0.220731
-0.203058
-0.186934
-0.172219
-0.158781
-0.146499
-0.135265
-0.124981
-0.115551
-0.106912
-0.0990059
-0.0915427
-0.503245
-0.489865
-0.477925
-0.461984
-0.441176
-0.416202
-0.388402
-0.359439
-0.33078
-0.303431
-0.277933
-0.254479
-0.233055
-0.213546
-0.195799
-0.179652
-0.164957
-0.151573
-0.139374
-0.128247
-0.118089
-0.1088
-0.100322
-0.0925855
-0.0853016
-0.504988
-0.491536
-0.479134
-0.46222
-0.440047
-0.413568
-0.384367
-0.354252
-0.324727
-0.296767
-0.270853
-0.247128
-0.225538
-0.205939
-0.188159
-0.172029
-0.157388
-0.14409
-0.132003
-0.121008
-0.110999
-0.10187
-0.0935701
-0.0860181
-0.0789232
-0.505638
-0.49216
-0.479285
-0.461371
-0.437831
-0.409886
-0.379361
-0.348191
-0.3179
-0.289418
-0.263169
-0.23924
-0.217539
-0.1979
-0.180134
-0.16406
-0.149509
-0.136329
-0.124382
-0.113547
-0.103708
-0.0947613
-0.0866577
-0.0792922
-0.072337
-0.505108
-0.49165
-0.478292
-0.459363
-0.434467
-0.405112
-0.373354
-0.341237
-0.310284
-0.281374
-0.254868
-0.230803
-0.209051
-0.189424
-0.171718
-0.155741
-0.141317
-0.128289
-0.116513
-0.105862
-0.0962184
-0.0874754
-0.0795898
-0.0724107
-0.0655201
-0.503315
-0.489922
-0.476076
-0.456126
-0.429904
-0.399211
-0.366324
-0.333372
-0.301866
-0.272624
-0.245942
-0.221811
-0.200069
-0.180506
-0.162907
-0.14707
-0.132812
-0.119969
-0.108394
-0.0979555
-0.0885312
-0.0800148
-0.0723656
-0.0653832
-0.0586797
-0.500186
-0.486899
-0.472563
-0.4516
-0.424096
-0.392154
-0.358252
-0.324587
-0.292639
-0.263161
-0.236387
-0.212259
-0.190588
-0.171144
-0.1537
-0.138046
-0.123992
-0.111369
-0.100027
-0.0898283
-0.0806493
-0.0723838
-0.0649884
-0.0582083
-0.0517762
-0.495651
-0.482514
-0.467692
-0.445733
-0.41701
-0.383919
-0.349127
-0.314873
-0.282597
-0.252981
-0.226198
-0.202147
-0.180608
-0.161338
-0.144098
-0.12867
-0.11486
-0.102492
-0.0914151
-0.0814851
-0.0725751
-0.064584
-0.0574591
-0.0509064
-0.0447715
-0.489652
-0.476705
-0.461407
-0.438484
-0.408616
-0.374493
-0.338941
-0.304229
-0.27174
-0.242085
-0.215377
-0.191472
-0.17013
-0.151089
-0.134102
-0.118945
-0.10542
-0.0933431
-0.0825609
-0.0729281
-0.0643131
-0.0566189
-0.0497836
-0.043481
-0.0376541
-0.48214
-0.469423
-0.453665
-0.429821
-0.398899
-0.363867
-0.327695
-0.292656
-0.260069
-0.230474
-0.203924
-0.180239
-0.159156
-0.140401
-0.123718
-0.108879
-0.0956751
-0.0839257
-0.0734703
-0.0641628
-0.0558684
-0.0484935
-0.0419676
-0.0359338
-0.0304266
-0.473076
-0.460625
-0.44443
-0.419722
-0.387848
-0.352043
-0.315393
-0.280159
-0.247592
-0.218154
-0.191846
-0.168453
-0.147691
-0.129283
-0.112953
-0.0984734
-0.0856328
-0.0742461
-0.0641496
-0.0551953
-0.0472469
-0.040214
-0.0340169
-0.0282676
-0.0230949
-0.462429
-0.450283
-0.433679
-0.408174
-0.375463
-0.339026
-0.302044
-0.26675
-0.234317
-0.205134
-0.179151
-0.156123
-0.135751
-0.117738
-0.101813
-0.0877383
-0.0753007
-0.0643119
-0.0546061
-0.046033
-0.0384556
-0.0317871
-0.0259374
-0.0204877
-0.0156661
-0.450182
-0.438376
-0.4214
-0.395176
-0.361751
-0.32483
-0.287664
-0.252443
-0.220258
-0.191427
-0.165852
-0.143261
-0.123338
-0.105779
-0.0903084
-0.0766833
-0.064688
-0.0541324
-0.0448485
-0.0366843
-0.0295026
-0.0232207
-0.0177361
-0.0126006
-0.00814765
-0.436326
-0.424894
-0.407589
-0.380735
-0.346728
-0.309476
-0.272275
-0.237258
-0.205433
-0.177049
-0.151965
-0.12988
-0.110469
-0.0934189
-0.0784514
-0.0653197
-0.0538058
-0.043718
-0.0348869
-0.0271588
-0.0203972
-0.0145233
-0.00942118
-0.00461447
-0.000547347
-0.420865
-0.409841
-0.392255
-0.364868
-0.330418
-0.29299
-0.255901
-0.221218
-0.189863
-0.162021
-0.137505
-0.115997
-0.0971582
-0.0806721
-0.066256
-0.0536606
-0.0426664
-0.0330804
-0.0247323
-0.0174671
-0.0111494
-0.00570445
-0.00100143
0.00346183
0.00712634
-0.403812
-0.393229
-0.375418
-0.347602
-0.312853
-0.275404
-0.238574
-0.204352
-0.173574
-0.146362
-0.122494
-0.10163
-0.0834246
-0.0675555
-0.0537379
-0.0417208
-0.0312837
-0.0222326
-0.0143969
-0.00762077
-0.00177042
0.00322531
0.00751316
0.0116183
0.0148642
-0.385194
-0.375082
-0.357106
-0.328972
-0.294072
-0.256761
-0.220326
-0.18669
-0.156594
-0.130101
-0.106955
-0.0868025
-0.0692882
-0.0540879
-0.0409147
-0.0295167
-0.0196728
-0.011189
-0.00389433
0.00236746
0.00772773
0.0122546
0.0161118
0.0198439
0.0226563
-0.365044
-0.355432
-0.337354
-0.30902
-0.274129
-0.237107
-0.201193
-0.168267
-0.138955
-0.113266
-0.0909158
-0.0715381
-0.0547716
-0.0402901
-0.0278057
-0.0170661
-0.00785047
3.49738e-05
0.0067611
0.0124839
0.017332
0.0213712
0.0247827
0.0281268
0.0304911
-0.343407
-0.334323
-0.316211
-0.287802
-0.25307
-0.216467
-0.181238
-0.149126
-0.120692
-0.0958888
-0.0744054
-0.055864
-0.0398998
-0.026185
-0.0144318
-0.00438848
0.00416547
0.0114228
0.0175539
0.022714
0.0270285
0.0305618
0.0335134
0.0364537
0.0383562
-0.320338
-0.311809
-0.293746
-0.265411
-0.230907
-0.194908
-0.160495
-0.129309
-0.101846
-0.0780058
-0.057456
-0.0398097
-0.0246994
-0.0117971
-0.000815778
0.00849552
0.0163559
0.0229568
0.0284677
0.0330424
0.0368026
0.0398126
0.0422899
0.044809
0.0462369
-0.295893
-0.287955
-0.270035
-0.241936
-0.207665
-0.172484
-0.139018
-0.108865
-0.0824582
-0.0596548
-0.0401022
-0.0234066
-0.00919929
0.00284708
0.0130184
0.0215638
0.0287006
0.0346185
0.0394854
0.0434532
0.0466391
0.049109
0.0510973
0.0531744
0.0541121
-0.270142
-0.262836
-0.245129
-0.217195
-0.183655
-0.149279
-0.116865
-0.0878436
-0.0625743
-0.0408767
-0.022381
-0.0066886
0.0065697
0.0177196
0.027045
0.0347929
0.0411781
0.0463882
0.0505891
0.0539297
0.0565224
0.0584362
0.0599207
0.0615303
0.0619539
-0.24316
-0.236536
-0.219076
-0.191507
-0.158765
-0.125353
-0.094097
-0.0662982
-0.0422424
-0.0217149
-0.00433188
0.0103087
0.0225751
0.0327909
0.0412372
0.0481584
0.0537663
0.0582457
0.0617603
0.0644549
0.0664361
0.0677791
0.0687476
0.0698623
0.0697449
-0.215025
-0.209156
-0.191938
-0.164957
-0.133084
-0.100776
-0.0707781
-0.0442852
-0.021513
-0.00221499
0.0140039
0.0275478
0.0387829
0.0480299
0.0555668
0.0616346
0.0664417
0.07017
0.0729801
0.0750108
0.0763629
0.0771225
0.0775683
0.0781625
0.0774803
-0.185807
-0.180757
-0.163915
-0.137595
-0.106705
-0.0756176
-0.0469738
-0.0218637
-0.00043897
0.0175752
0.0325832
0.0449893
0.0551573
0.0634043
0.0700045
0.0751949
0.0791805
0.0821394
0.0842288
0.0855793
0.0862854
0.0864535
0.0863736
0.0863978
0.0850627
-0.155645
-0.151473
-0.135072
-0.109507
-0.0797134
-0.0499552
-0.0227522
0.000905298
0.0209246
0.037606
0.0513608
0.0625925
0.0716614
0.0788804
0.0845197
0.0888118
0.0919576
0.0941319
0.0954866
0.0961424
0.0961909
0.0957692
0.0951512
0.0944529
0.0921735
-0.12478
-0.121291
-0.105493
-0.0807906
-0.0522001
-0.0238675
0.00181621
0.0239584
0.0425208
0.057826
0.0702903
0.0803152
0.088257
0.0944238
0.099081
0.102457
0.104748
0.106124
0.106733
0.106683
0.106073
0.105077
0.103884
0.102186
0.098572
-0.093187
-0.090403
-0.0752808
-0.0515432
-0.0242558
0.00256423
0.0266589
0.0472304
0.0642911
0.0781823
0.0893237
0.0981141
0.104905
0.109999
0.113656
0.116101
0.117524
0.118093
0.117946
0.117186
0.115927
0.114374
0.112543
0.109656
0.104974
-0.0609715
-0.0589357
-0.0445459
-0.0218663
0.00402651
0.0292566
0.0517014
0.0706549
0.0861753
0.0986207
0.108412
0.115945
0.121564
0.125568
0.128212
0.129713
0.13026
0.130013
0.129104
0.127633
0.125734
0.123615
0.121065
0.117061
0.113547
-0.028262
-0.0270026
-0.0134002
0.00813607
0.0325521
0.0561251
0.0768682
0.0941637
0.108112
0.119086
0.127505
0.133762
0.138195
0.141096
0.142715
0.143265
0.142927
0.141859
0.140185
0.138005
0.135466
0.132743
0.129467
0.124845
0.122068
0.00481703
0.00527979
0.0180419
0.0383581
0.0612252
0.0830837
0.102082
0.117688
0.13004
0.139522
0.146553
0.151519
0.154754
0.156544
0.157131
0.156723
0.155498
0.153605
0.151165
0.14828
0.1451
0.141752
0.137817
0.132791
0.130117
0.038141
0.0377922
0.0496646
0.0686928
0.0899493
0.110046
0.127267
0.141158
0.151896
0.159871
0.165503
0.169171
0.171201
0.171874
0.171425
0.170058
0.167943
0.165226
0.162023
0.158435
0.154609
0.150637
0.146106
0.140737
0.137881
0.0715843
0.0704134
0.0813514
0.0990328
0.118627
0.136925
0.152343
0.164504
0.173616
0.180078
0.184304
0.186669
0.187493
0.187047
0.185563
0.183237
0.180234
0.176696
0.172732
0.168445
0.163974
0.159386
0.154298
0.14857
0.145386
0.105021
0.103021
0.112985
0.129271
0.147162
0.163634
0.177233
0.187656
0.195138
0.200084
0.202905
0.203968
0.203586
0.202025
0.199509
0.196228
0.192343
0.187988
0.18327
0.178289
0.173176
0.167983
0.162358
0.156248
0.152659
0.138324
0.135493
0.14445
0.159299
0.175457
0.190086
0.201859
0.210543
0.216398
0.219832
0.221254
0.221021
0.21944
0.216771
0.21323
0.209001
0.20424
0.199076
0.193612
0.187944
0.182195
0.176407
0.170257
0.163746
0.159711
0.171368
0.167706
0.17563
0.189012
0.203417
0.216195
0.226145
0.233096
0.237333
0.239267
0.239298
0.23778
0.235012
0.231244
0.226689
0.221524
0.215897
0.209934
0.203733
0.197387
0.19101
0.184639
0.177972
0.17105
0.166542
0.204027
0.199539
0.206409
0.218303
0.230946
0.241876
0.250013
0.255247
0.257882
0.25833
0.256988
0.254201
0.25026
0.245409
0.239853
0.233765
0.227286
0.220536
0.213611
0.206597
0.199604
0.19266
0.185484
0.178146
0.173152
0.236179
0.230873
0.236676
0.247071
0.257952
0.267045
0.273389
0.276926
0.277982
0.276967
0.274273
0.270237
0.265142
0.259227
0.252689
0.245693
0.238379
0.230858
0.223221
0.215553
0.207956
0.20045
0.192775
0.185023
0.179534
0.267702
0.261588
0.266318
0.275212
0.284342
0.291621
0.296198
0.298068
0.297573
0.295123
0.291103
0.285843
0.279619
0.272661
0.265162
0.25728
0.249148
0.240873
0.232543
0.224235
0.216047
0.207993
0.199831
0.191669
0.185683
0.298477
0.291569
0.295227
0.302629
0.310029
0.315523
0.318367
0.318608
0.316596
0.312745
0.307431
0.300976
0.29365
0.285676
0.27724
0.268495
0.259567
0.250559
0.241552
0.232623
0.22386
0.215273
0.206637
0.198074
0.19159
0.328387
0.320705
0.323298
0.329224
0.334924
0.338673
0.339828
0.33848
0.334995
0.329781
0.323208
0.315593
0.307197
0.298237
0.288892
0.279309
0.269609
0.25989
0.25023
0.240698
0.231377
0.222274
0.21318
0.204224
0.197249
0.35732
0.348884
0.350427
0.354904
0.358944
0.360995
0.360511
0.357625
0.352712
0.346179
0.33839
0.329653
0.320223
0.31031
0.300087
0.289695
0.27925
0.268846
0.258553
0.24844
0.238581
0.22898
0.219446
0.21011
0.20265
0.385167
0.376002
0.376517
0.37958
0.382008
0.382417
0.380351
0.375982
0.369695
0.361892
0.352932
0.343116
0.332691
0.321862
0.310795
0.299626
0.288466
0.277402
0.266504
0.255832
0.245457
0.235377
0.225421
0.21572
0.207786
0.411824
0.401957
0.401472
0.403166
0.404038
0.402868
0.399284
0.393495
0.385891
0.376873
0.366792
0.355943
0.344567
0.332862
0.320988
0.309077
0.297233
0.285539
0.274062
0.262857
0.251988
0.241452
0.231094
0.221043
0.212649
0.43719
0.426653
0.425203
0.425578
0.42496
0.422281
0.417251
0.410108
0.401251
0.391076
0.37993
0.368098
0.355818
0.343279
0.330639
0.318021
0.305528
0.293237
0.281209
0.269498
0.25816
0.247191
0.236454
0.226068
0.217231
0.461171
0.449998
0.447623
0.446739
0.444704
0.440595
0.434194
0.42577
0.415728
0.40446
0.392306
0.379546
0.366411
0.353086
0.339721
0.326437
0.313331
0.300475
0.287929
0.27574
0.263959
0.252581
0.241487
0.230786
0.221523
0.483677
0.471904
0.468651
0.466576
0.463204
0.457747
0.450059
0.440433
0.429278
0.416984
0.403884
0.390254
0.376317
0.362254
0.348211
0.334303
0.320621
0.307237
0.294204
0.281568
0.269372
0.257612
0.246184
0.235187
0.22552
0.504624
0.492291
0.488213
0.48502
0.480398
0.473684
0.464796
0.45405
0.44186
0.428611
0.414631
0.400191
0.385509
0.37076
0.356085
0.341596
0.32738
0.313505
0.30002
0.286968
0.274386
0.262271
0.250534
0.239261
0.229215
0.523934
0.511084
0.506237
0.502007
0.496227
0.488353
0.478358
0.46658
0.453434
0.439305
0.424516
0.409329
0.39396
0.378579
0.363323
0.348299
0.333591
0.319264
0.305363
0.291927
0.278991
0.266549
0.254528
0.243001
0.232601
0.541536
0.528213
0.522661
0.517479
0.51064
0.501706
0.490701
0.477982
0.463967
0.449036
0.433508
0.417641
0.401646
0.38569
0.369905
0.354394
0.339238
0.324498
0.310219
0.296434
0.283174
0.270436
0.258157
0.246397
0.235672
0.557364
0.543615
0.537424
0.531382
0.523589
0.513701
0.501787
0.488222
0.473425
0.457773
0.441581
0.425104
0.408547
0.392073
0.375812
0.359864
0.344306
0.329196
0.314576
0.300478
0.286928
0.273923
0.261413
0.249444
0.238424
0.57136
0.557234
0.550474
0.543669
0.53503
0.524298
0.511581
0.497267
0.481779
0.465491
0.448712
0.431695
0.414642
0.397711
0.38103
0.364695
0.348782
0.333345
0.318425
0.30405
0.290243
0.277003
0.264289
0.252135
0.240851
0.583473
0.569019
0.561766
0.554299
0.544926
0.533462
0.520051
0.50509
0.489005
0.472166
0.45488
0.437397
0.419914
0.402589
0.385544
0.368875
0.352655
0.336935
0.321755
0.30714
0.293112
0.279668
0.266778
0.254464
0.242951
0.593657
0.578929
0.571259
0.563233
0.553245
0.541166
0.527171
0.511667
0.49508
0.477778
0.460067
0.442192
0.424349
0.406692
0.389342
0.372393
0.355914
0.339957
0.324558
0.309743
0.295527
0.281912
0.268875
0.256426
0.244719
0.601877
0.586928
0.57892
0.570444
0.559957
0.547384
0.532918
0.516977
0.499986
0.482312
0.464258
0.446067
0.427934
0.410009
0.392414
0.375239
0.358552
0.342403
0.326829
0.311851
0.297485
0.283731
0.270575
0.258016
0.246152
0.608101
0.592985
0.584723
0.575905
0.565043
0.552095
0.537275
0.521004
0.503708
0.485753
0.46744
0.449011
0.430658
0.412533
0.394752
0.377405
0.360561
0.344268
0.32856
0.313459
0.298979
0.285121
0.271875
0.259233
0.247248
0.612308
0.59708
0.588647
0.5796
0.568485
0.555286
0.540228
0.523735
0.506235
0.488091
0.469605
0.451016
0.432516
0.414255
0.396349
0.378888
0.361937
0.345547
0.329749
0.314565
0.300007
0.286079
0.272771
0.260072
0.248006
0.614482
0.599199
0.590679
0.581515
0.570272
0.556947
0.541768
0.525163
0.507559
0.489321
0.470746
0.452077
0.433502
0.415171
0.397202
0.379682
0.362677
0.346236
0.330392
0.315165
0.300567
0.286601
0.273261
0.260533
0.248423
0.614617
0.599335
0.590812
0.581646
0.5704
0.557072
0.541891
0.525284
0.507678
0.489438
0.470861
0.452189
0.433612
0.41528
0.397308
0.379785