/*--------------------------------*- C++ -*----------------------------------*\
  =========                 |
  \\      /  F ield         | OpenFOAM: The Open Source CFD Toolbox
   \\    /   O peration     | Website:  https://openfoam.org
    \\  /    A nd           | Version:  7
     \\/     M anipulation  |
\*---------------------------------------------------------------------------*/
FoamFile
{
    version     2.0;
    format      ascii;
    class       volVectorField;
    location    "90";
    object      U;
}
// * * * * * * * * * * * * * * * * * * * * * * * * * * * * * * * * * * * * * //

dimensions      [0 1 -1 0 0 0 0];

internalField   nonuniform List<vector> 
31800
(
(-0.000567666 0.00251561 -1.0138e-20)
(-0.00339363 0.00512539 6.99788e-21)
(-0.00898776 0.00592388 -2.27772e-21)
(-0.0161936 0.00537754 1.01185e-20)
(-0.0245668 0.0038886 1.12972e-20)
(-0.0337438 0.00178608 -3.69938e-21)
(-0.043406 -0.000684106 -2.66922e-21)
(-0.0533065 -0.00336232 1.88912e-20)
(-0.063254 -0.00616925 -2.14853e-21)
(-0.0731023 -0.00909245 3.08873e-21)
(-0.0827422 -0.0121683 1.05885e-20)
(-0.0920921 -0.0154623 1.03647e-20)
(-0.10109 -0.0190518 -6.53377e-21)
(-0.109687 -0.0230133 -8.1205e-21)
(-0.117841 -0.0274138 -2.80448e-22)
(-0.125511 -0.0323064 -1.03445e-20)
(-0.132653 -0.0377269 8.03299e-21)
(-0.139222 -0.043691 1.35146e-20)
(-0.145172 -0.0501904 -5.04748e-21)
(-0.150462 -0.0571873 2.28215e-20)
(-0.15507 -0.0646102 1.44194e-21)
(-0.159014 -0.0723504 -1.8318e-21)
(-0.162375 -0.0802681 3.98822e-21)
(-0.165275 -0.0882059 8.11007e-21)
(-0.167971 -0.0959823 5.03152e-21)
(-0.000675433 0.00358113 1.04396e-20)
(-0.00363738 0.00779567 5.74265e-21)
(-0.00931418 0.00978734 -6.16353e-21)
(-0.0165654 0.0101073 -2.33849e-20)
(-0.0249594 0.0092166 1.72974e-20)
(-0.0341421 0.00749604 -8.4642e-21)
(-0.043802 0.00523654 4.6729e-22)
(-0.0536969 0.00263586 -1.44915e-20)
(-0.0636388 -0.000194603 3.03818e-21)
(-0.0734837 -0.00321669 2.06769e-21)
(-0.0831241 -0.00644646 -4.45668e-20)
(-0.0924802 -0.00993452 -7.26317e-22)
(-0.101492 -0.0137483 4.98333e-20)
(-0.110114 -0.0179584 -2.5081e-20)
(-0.118305 -0.0226297 -4.74876e-21)
(-0.126027 -0.0278156 1.02753e-20)
(-0.133238 -0.0335538 -2.15973e-20)
(-0.139896 -0.0398616 -1.04972e-21)
(-0.145952 -0.0467298 2.12647e-20)
(-0.151364 -0.0541144 -7.78625e-20)
(-0.156103 -0.061928 -2.41235e-20)
(-0.160181 -0.0700334 3.63764e-20)
(-0.163678 -0.0782492 1.79233e-20)
(-0.166706 -0.0863762 3.17237e-21)
(-0.169519 -0.094163 -7.16484e-21)
(-0.000833943 0.00463802 -2.17298e-20)
(-0.00399324 0.0104495 -5.71074e-22)
(-0.00977257 0.0136332 -2.95341e-20)
(-0.0170613 0.0148222 4.39981e-20)
(-0.025446 0.0145348 -4.978e-20)
(-0.0345864 0.013202 -4.70847e-21)
(-0.0441812 0.0111596 -4.53046e-21)
(-0.0539951 0.00864329 8.30899e-21)
(-0.0638446 0.0057966 2.73773e-20)
(-0.0735889 0.00268426 -4.63064e-21)
(-0.0831223 -0.000689185 -8.29397e-21)
(-0.092367 -0.004359 2.95686e-20)
(-0.101265 -0.00838223 -5.09005e-21)
(-0.109771 -0.0128236 2.8573e-20)
(-0.117848 -0.0177459 -5.80627e-20)
(-0.125459 -0.0232032 -2.37687e-20)
(-0.132565 -0.0292358 3.76437e-21)
(-0.139121 -0.0358639 -7.76893e-20)
(-0.145077 -0.0430795 2.12415e-20)
(-0.150386 -0.0508346 4.75209e-20)
(-0.155008 -0.0590287 -3.01722e-20)
(-0.158941 -0.0674966 -7.21171e-20)
(-0.162255 -0.076013 -3.58487e-20)
(-0.16504 -0.0843293 -6.6764e-20)
(-0.167518 -0.0921184 -3.63405e-20)
(-0.0010418 0.00567474 1.00991e-20)
(-0.00445814 0.01306 -1.68669e-20)
(-0.0103588 0.0174255 5.36387e-20)
(-0.0176762 0.0194809 -4.29054e-20)
(-0.0260208 0.0197987 -1.1243e-20)
(-0.0350702 0.0188586 -3.03568e-21)
(-0.0445361 0.0170395 3.517e-20)
(-0.0541922 0.014615 2.50231e-20)
(-0.063861 0.0117605 -4.40133e-20)
(-0.0734053 0.00856752 1.85012e-20)
(-0.0827218 0.00506172 9.9987e-22)
(-0.0917341 0.00122363 -8.32638e-20)
(-0.100386 -0.00299307 -2.72694e-20)
(-0.108633 -0.00764699 2.18117e-21)
(-0.116439 -0.0127986 1.81447e-20)
(-0.123768 -0.0185032 8.29516e-20)
(-0.130583 -0.0248042 9.28272e-21)
(-0.136836 -0.0317266 7.84929e-20)
(-0.142476 -0.0392657 7.87781e-20)
(-0.147446 -0.0473731 -9.70813e-21)
(-0.151693 -0.0559388 3.5004e-20)
(-0.155191 -0.0647726 -1.36249e-20)
(-0.157997 -0.0736031 4.44561e-20)
(-0.160161 -0.0821203 1.47427e-19)
(-0.161835 -0.0899123 2.28074e-20)
(-0.00129667 0.00667999 1.72784e-20)
(-0.00502712 0.0156011 -6.28585e-20)
(-0.0110668 0.0211286 8.11254e-20)
(-0.0184036 0.0240423 2.98946e-20)
(-0.0266771 0.0249644 2.33647e-20)
(-0.0355863 0.0244205 2.48519e-20)
(-0.044859 0.0228308 -1.3253e-19)
(-0.0542797 0.0205057 4.94063e-20)
(-0.0636781 0.0176526 5.13169e-20)
(-0.0729212 0.0143894 -7.58154e-20)
(-0.0819082 0.0107634 7.84925e-20)
(-0.0905639 0.00677139 4.28465e-20)
(-0.0988321 0.00237814 5.33256e-20)
(-0.10667 -0.00246842 -3.61426e-20)
(-0.11404 -0.00782641 -8.05507e-21)
(-0.120909 -0.0137522 1.75506e-19)
(-0.127236 -0.0202933 -7.56177e-20)
(-0.132974 -0.0274806 5.88347e-20)
(-0.138066 -0.0353157 -1.4163e-19)
(-0.142446 -0.0437538 -5.73648e-20)
(-0.146043 -0.0526812 5.39687e-20)
(-0.148805 -0.0618876 9.42826e-20)
(-0.150767 -0.0710543 1.6057e-20)
(-0.151928 -0.0797953 -1.2173e-19)
(-0.152296 -0.0876026 -8.50443e-20)
(-0.00159533 0.00764289 -6.81451e-20)
(-0.00569346 0.0180472 -2.2085e-20)
(-0.0118886 0.0247078 -4.80913e-20)
(-0.0192353 0.0284658 -4.65595e-20)
(-0.0274068 0.0299882 3.34242e-20)
(-0.0361268 0.0298424 -5.98662e-20)
(-0.0451418 0.0284878 -3.89924e-20)
(-0.0542492 0.0262701 -1.92896e-19)
(-0.0632865 0.0234278 8.52279e-21)
(-0.0721256 0.0201054 -2.07955e-21)
(-0.080668 0.016372 -1.48212e-19)
(-0.0888391 0.0122408 -5.0758e-20)
(-0.0965825 0.00768847 -6.26545e-20)
(-0.103854 0.00266977 1.21671e-19)
(-0.110617 -0.00287062 3.51046e-20)
(-0.116834 -0.00899 -9.55326e-20)
(-0.122464 -0.0157404 -1.07407e-19)
(-0.127457 -0.0231597 3.01903e-20)
(-0.131751 -0.0312586 1.17497e-19)
(-0.13527 -0.0400006 -2.57764e-20)
(-0.137923 -0.0492749 -1.53569e-20)
(-0.139627 -0.0588594 -7.18252e-20)
(-0.140389 -0.0683907 -9.04941e-20)
(-0.140158 -0.0773886 7.34944e-20)
(-0.13867 -0.0852408 4.93628e-20)
(-0.00193376 0.00855331 3.52886e-20)
(-0.00644877 0.0203743 4.15358e-20)
(-0.0128143 0.02813 -3.28237e-20)
(-0.0201615 0.0327126 -6.79273e-20)
(-0.0282006 0.0348275 1.05717e-20)
(-0.0366831 0.0350799 7.96481e-20)
(-0.0453766 0.0339652 1.14436e-19)
(-0.0540923 0.0318626 1.5656e-19)
(-0.062677 0.0290407 2.74584e-20)
(-0.0710077 0.0256703 3.59771e-20)
(-0.0789878 0.0218423 4.36763e-20)
(-0.0865427 0.017587 1.68042e-19)
(-0.0936145 0.0128929 -9.70805e-21)
(-0.100157 0.00772261 -2.16139e-19)
(-0.106129 0.0020241 1.5612e-19)
(-0.111492 -0.00426051 6.23205e-20)
(-0.1162 -0.0111875 1.96394e-19)
(-0.1202 -0.0188025 -7.99579e-20)
(-0.123422 -0.0271275 -9.2806e-20)
(-0.12578 -0.0361389 2.64578e-19)
(-0.127167 -0.0457366 -8.8971e-20)
(-0.127463 -0.0556977 -1.35061e-19)
(-0.126642 -0.0656225 -3.60808e-20)
(-0.124625 -0.0749181 -1.12211e-19)
(-0.12066 -0.0828708 1.84332e-20)
(-0.0023072 0.00940207 8.78405e-21)
(-0.00728325 0.0225603 -1.74689e-20)
(-0.0138325 0.0313643 3.55868e-21)
(-0.0211708 0.0367455 -1.24178e-19)
(-0.0290482 0.0394415 -9.62505e-20)
(-0.037246 0.0400897 -1.81445e-20)
(-0.0455545 0.0392185 -4.7124e-20)
(-0.0538005 0.0372379 -8.53471e-20)
(-0.0618406 0.0344457 -1.90436e-20)
(-0.0695569 0.0310384 -9.68057e-21)
(-0.0768545 0.0271284 -9.10104e-20)
(-0.0836576 0.0227632 3.95535e-20)
(-0.0899055 0.0179443 2.95638e-20)
(-0.0955472 0.0126424 1.591e-19)
(-0.100537 0.00680957 -2.70955e-21)
(-0.10483 0.000388157 -9.63312e-20)
(-0.108373 -0.00668174 -1.02737e-20)
(-0.111108 -0.0144536 4.21994e-20)
(-0.112957 -0.0229613 1.71489e-19)
(-0.113823 -0.0321987 -1.26481e-19)
(-0.113582 -0.0420835 3.3445e-19)
(-0.112081 -0.0524054 1.38937e-19)
(-0.10925 -0.0627456 -1.04621e-19)
(-0.105051 -0.0723814 2.00335e-19)
(-0.0978928 -0.0805293 1.14622e-19)
(-0.00271037 0.0101812 1.09236e-20)
(-0.00818586 0.0245855 5.48048e-20)
(-0.0149307 0.0343822 1.5578e-19)
(-0.0222509 0.0405303 1.93844e-19)
(-0.0299381 0.0437913 1.15349e-19)
(-0.0378052 0.0448302 -8.10648e-20)
(-0.0456664 0.0442039 1.97229e-19)
(-0.0533651 0.0423513 2.24666e-20)
(-0.0607681 0.0395972 -1.1781e-19)
(-0.0677625 0.0361632 1.28405e-20)
(-0.0742545 0.032183 2.1928e-19)
(-0.0801661 0.0277217 -2.3462e-19)
(-0.0854316 0.0227937 -1.34229e-19)
(-0.0899933 0.0173788 -2.71224e-20)
(-0.0937975 0.0114341 -2.2019e-19)
(-0.096789 0.0049033 -1.43904e-19)
(-0.0989072 -0.00227609 2.57352e-20)
(-0.100081 -0.0101643 -3.00193e-19)
(-0.100223 -0.0188073 3.07585e-20)
(-0.0992254 -0.0282176 -1.43353e-19)
(-0.0969496 -0.0383375 -1.77043e-19)
(-0.0932137 -0.0489826 1.64984e-19)
(-0.0878822 -0.0597416 1.83709e-19)
(-0.0811121 -0.0697493 -1.42542e-19)
(-0.0699212 -0.0782327 1.93496e-19)
(-0.00313754 0.0108839 -1.30504e-19)
(-0.00914465 0.0264327 9.57371e-20)
(-0.016095 0.0371586 -6.82124e-21)
(-0.0233881 0.0440352 3.83991e-20)
(-0.0308581 0.0478407 3.63466e-20)
(-0.0383498 0.0492616 1.62531e-19)
(-0.0457025 0.0488795 -1.17943e-19)
(-0.0527767 0.0471588 -2.20239e-19)
(-0.0594493 0.04445 1.10432e-19)
(-0.0656128 0.0409983 1.03134e-19)
(-0.0711732 0.0369586 -3.48531e-19)
(-0.0760489 0.0324133 2.45294e-19)
(-0.0801672 0.0273903 3.73223e-19)
(-0.0834608 0.0218791 2.57211e-20)
(-0.0858641 0.015843 -6.64555e-20)
(-0.0873089 0.00922799 1.89762e-19)
(-0.08772 0.00197084 -8.76756e-20)
(-0.0870112 -0.00599373 3.92801e-19)
(-0.0850807 -0.0147222 -3.46338e-19)
(-0.0818061 -0.0242443 6.27203e-20)
(-0.077036 -0.0345317 -3.27049e-20)
(-0.0705694 -0.0454349 -1.0547e-19)
(-0.0621601 -0.0565865 -1.0189e-19)
(-0.0524463 -0.0669726 8.28575e-20)
(-0.0362652 -0.0758953 2.14678e-20)
(-0.00358274 0.0115051 8.54259e-20)
(-0.010147 0.0280879 -6.13968e-20)
(-0.0173108 0.0396718 5.09523e-20)
(-0.0245681 0.0472321 -1.71007e-19)
(-0.0317948 0.0515564 -3.77196e-20)
(-0.0388679 0.0533467 1.93005e-20)
(-0.0456519 0.0532047 -4.37037e-20)
(-0.0520245 0.0516176 -7.2423e-20)
(-0.0578732 0.0489594 2.29459e-20)
(-0.0630946 0.0454976 -1.20893e-19)
(-0.0675942 0.0414073 2.25465e-19)
(-0.0712846 0.0367883 -5.17632e-20)
(-0.0740838 0.0316824 -1.32578e-19)
(-0.0759116 0.0260892 -1.36129e-19)
(-0.0766867 0.0199791 1.80671e-19)
(-0.0763228 0.0133021 9.86773e-20)
(-0.074725 0.00599583 3.90203e-20)
(-0.0717862 -0.00200742 -3.28685e-19)
(-0.0673839 -0.0107712 3.42901e-19)
(-0.0613771 -0.0203403 -1.12461e-19)
(-0.0535985 -0.030714 -5.19387e-20)
(-0.0438504 -0.0417798 -3.99281e-20)
(-0.0316768 -0.0532574 -4.38862e-20)
(-0.0186063 -0.0640544 1.4186e-19)
(0.00348356 -0.0731941 -2.2769e-19)
(-0.00403995 0.0120412 -3.17109e-20)
(-0.0111802 0.0295403 1.37513e-19)
(-0.018563 0.0419039 -1.96307e-19)
(-0.0257756 0.0500969 7.86881e-20)
(-0.032734 0.0549085 4.36314e-20)
(-0.0393463 0.0570508 -6.59173e-20)
(-0.0455022 0.0571414 1.92173e-19)
(-0.0510963 0.0556867 4.65335e-20)
(-0.0560263 0.0530818 2.22337e-20)
(-0.0601924 0.0496153 1.89423e-19)
(-0.0634978 0.0454815 -7.77766e-20)
(-0.0658477 0.0407971 8.268e-20)
(-0.0671479 0.0356179 -8.77207e-20)
(-0.0673019 0.0299543 -5.66868e-21)
(-0.0662083 0.0237845 -9.61028e-20)
(-0.0637573 0.0170639 -3.33002e-19)
(-0.0598283 0.00973315 6.87509e-20)
(-0.0542866 0.00172482 2.66885e-19)
(-0.0469822 -0.00702747 -9.15266e-20)
(-0.0377496 -0.0165783 4.45387e-19)
(-0.0263967 -0.0269484 -2.46841e-19)
(-0.012772 -0.0380527 -7.0279e-20)
(0.00391252 -0.0497056 -1.17582e-19)
(0.0210019 -0.0610795 3.42936e-21)
(0.0497443 -0.0699965 -1.03342e-19)
(-0.00450328 0.0124901 -9.54193e-20)
(-0.0122312 0.0307824 -1.41644e-19)
(-0.0198363 0.0438411 -7.6319e-20)
(-0.0269949 0.0526092 7.1636e-20)
(-0.0336604 0.0578709 2.24619e-20)
(-0.0397705 0.0603429 1.29662e-20)
(-0.0452392 0.060654 4.95676e-20)
(-0.0499775 0.0593271 -2.41785e-19)
(-0.0538923 0.0567755 8.02937e-20)
(-0.0568864 0.0533071 -1.6579e-19)
(-0.0588595 0.0491346 -6.05292e-20)
(-0.0597069 0.044391 -8.13984e-20)
(-0.0593192 0.0391458 -1.73064e-19)
(-0.0575796 0.0334206 3.5648e-19)
(-0.0543621 0.0272023 2.02802e-19)
(-0.049528 0.0204528 5.44335e-20)
(-0.0429246 0.0131178 1.70905e-19)
(-0.0343826 0.00513314 -2.47465e-19)
(-0.0237177 -0.00356555 -6.05491e-20)
(-0.0107346 -0.0130363 -2.90868e-19)
(0.00480233 -0.02331 1.11773e-19)
(0.0229535 -0.0343226 2.45182e-19)
(0.0448669 -0.0459914 1.10721e-19)
(0.0666562 -0.0577958 -2.08697e-19)
(0.103338 -0.0665194 2.55388e-19)
(-0.00496711 0.0128516 -3.42436e-20)
(-0.0132877 0.0318103 9.09519e-21)
(-0.0211153 0.0454738 9.65928e-20)
(-0.0282096 0.0547532 1.72707e-19)
(-0.0345576 0.0604215 -1.15653e-19)
(-0.0401243 0.0631951 1.11748e-19)
(-0.0448462 0.0637102 -8.76715e-20)
(-0.0486498 0.0625022 3.31287e-19)
(-0.0514503 0.0600008 -2.32541e-19)
(-0.0531518 0.0565308 5.00504e-20)
(-0.0536481 0.0523221 2.16644e-19)
(-0.0528225 0.0475231 -3.01935e-20)
(-0.050547 0.0422171 2.3295e-20)
(-0.0466805 0.036437 -2.90208e-19)
(-0.0410674 0.0301789 -2.46639e-19)
(-0.0335348 0.0234124 -9.32549e-21)
(-0.0238917 0.01609 -2.73082e-19)
(-0.011928 0.00815355 1.00154e-19)
(0.00258126 -0.00045545 -1.3934e-19)
(0.0198629 -0.00979023 1.82145e-19)
(0.0402156 -0.0198823 -2.46763e-19)
(0.0635344 -0.0306795 1.48017e-19)
(0.091584 -0.0421775 -1.22539e-19)
(0.118376 -0.0540056 1.63663e-19)
(0.164653 -0.0627231 -9.12861e-21)
(-0.0054263 0.0131268 1.86743e-19)
(-0.0143377 0.0326234 4.76071e-20)
(-0.0223851 0.0467967 -1.07239e-19)
(-0.0294032 0.0565175 -1.28732e-19)
(-0.0354079 0.0625427 8.68971e-20)
(-0.0403888 0.065584 -3.18898e-19)
(-0.044303 0.0662811 4.55103e-19)
(-0.0470907 0.0651792 8.90004e-20)
(-0.0486738 0.062721 1.4717e-19)
(-0.0489559 0.059247 1.80199e-19)
(-0.0478231 0.0550023 1.13992e-19)
(-0.0451435 0.0501503 -8.57201e-20)
(-0.0407668 0.0447873 -3.2566e-21)
(-0.0345236 0.0389575 -4.20847e-20)
(-0.0262239 0.0326672 -1.2596e-19)
(-0.0156551 0.0258944 2.82746e-19)
(-0.00258302 0.0186001 5.77332e-19)
(0.0132474 0.0107357 3.49171e-20)
(0.032108 0.00224931 2.00076e-19)
(0.0542505 -0.00689838 -1.0417e-19)
(0.0800676 -0.0167289 1.24951e-19)
(0.109151 -0.0271925 -7.35097e-19)
(0.1443 -0.0382657 3.46186e-19)
(0.17625 -0.0499265 2.12032e-19)
(0.233697 -0.0582929 -1.38892e-19)
(-0.00587633 0.0133186 -1.12118e-19)
(-0.0153703 0.0332244 -1.92744e-19)
(-0.0236309 0.0478083 1.8503e-19)
(-0.0305583 0.057895 1.21145e-19)
(-0.0361921 0.0642212 6.53926e-20)
(-0.0405427 0.0674903 2.30953e-19)
(-0.0435852 0.0683422 -2.39741e-19)
(-0.0452714 0.0673287 -2.21394e-19)
(-0.0455283 0.0649036 -1.45388e-19)
(-0.0442567 0.0614203 -3.42668e-19)
(-0.0413319 0.0571382 6.66745e-20)
(-0.0366036 0.0522342 -2.72035e-20)
(-0.0298959 0.0468174 4.92127e-19)
(-0.0210061 0.0409437 2.0308e-19)
(-0.00970515 0.0346293 1.46179e-19)
(0.00426334 0.0278628 -4.55453e-20)
(0.0211813 0.0206147 -2.64768e-19)
(0.0413498 0.0128471 -2.14921e-19)
(0.0650884 0.00452181 -2.51783e-19)
(0.0926601 -0.00438621 1.80336e-19)
(0.124589 -0.0138685 3.39583e-19)
(0.159966 -0.0239148 3.77601e-19)
(0.203138 -0.0342519 -3.53577e-19)
(0.24024 -0.0456904 1.50994e-19)
(0.310202 -0.053067 1.97944e-19)
(-0.00631339 0.0134309 -2.9594e-19)
(-0.0163753 0.0336189 1.64643e-19)
(-0.0248385 0.0485115 -2.80777e-19)
(-0.0316571 0.0588833 3.45252e-19)
(-0.0368888 0.0654484 -3.29916e-19)
(-0.0405606 0.0688994 -9.88335e-20)
(-0.0426627 0.0698734 -1.84426e-19)
(-0.0431561 0.0689265 1.03859e-19)
(-0.0419697 0.0665207 -1.78188e-19)
(-0.0389992 0.0630207 1.95203e-19)
(-0.0341059 0.0586984 -2.56537e-19)
(-0.0271174 0.0537435 -1.90993e-19)
(-0.0178278 0.0482773 7.1786e-21)
(-0.00599704 0.0423675 -2.94847e-19)
(0.0086476 0.0360412 5.9815e-21)
(0.0264099 0.0292986 -3.00139e-19)
(0.0476207 0.0221216 -1.85339e-20)
(0.0726267 0.0144852 -3.28609e-19)
(0.10179 0.00637074 1.15017e-19)
(0.135355 -0.00223626 5.00522e-19)
(0.174019 -0.0112632 -4.80408e-19)
(0.216129 -0.0208437 2.34733e-19)
(0.268103 -0.0300818 2.55761e-19)
(0.310184 -0.0413222 -1.20995e-19)
(0.393525 -0.0469878 4.74183e-20)
(-0.00673446 0.013469 1.53364e-19)
(-0.017344 0.0338152 -4.32193e-20)
(-0.0259941 0.0489126 9.52003e-20)
(-0.0326809 0.0594842 -2.7776e-19)
(-0.037474 0.0662206 4.45666e-19)
(-0.0404129 0.0698017 2.90445e-20)
(-0.0414989 0.0708601 3.22791e-19)
(-0.0406991 0.0699536 -1.68545e-19)
(-0.0379417 0.0675505 1.14519e-19)
(-0.0331131 0.0640247 1.5098e-19)
(-0.0260574 0.0596593 1.38624e-19)
(-0.0165758 0.0546558 4.40286e-19)
(-0.00442764 0.0491477 -1.11238e-19)
(0.0106686 0.0432147 -1.13139e-19)
(0.0290326 0.0368964 -8.88634e-20)
(0.0510178 0.0302053 -8.5072e-21)
(0.0770021 0.0231376 -1.87951e-19)
(0.10737 0.0156842 1.65613e-19)
(0.142518 0.00784804 -2.22884e-19)
(0.182624 -0.00037939 9.19197e-20)
(0.228587 -0.0088073 -1.29819e-19)
(0.277758 -0.0178951 1.68134e-20)
(0.33903 -0.0256392 -5.9885e-19)
(0.385805 -0.036735 6.39938e-20)
(0.482565 -0.0400248 -2.7976e-22)
(-0.00713737 0.0134392 2.04976e-19)
(-0.0182686 0.0338238 -1.38249e-19)
(-0.0270839 0.049021 -9.75174e-20)
(-0.0336095 0.0597035 -5.88311e-20)
(-0.0379205 0.0665386 -1.92823e-19)
(-0.040064 0.0701931 -3.2597e-19)
(-0.0400486 0.0712935 -1.06527e-19)
(-0.0378437 0.0703976 3.64772e-19)
(-0.0333728 0.0679783 -1.13955e-19)
(-0.0265093 0.0644171 -2.47274e-19)
(-0.0170752 0.0600069 -1.49867e-19)
(-0.00484091 0.0549606 -4.50309e-19)
(0.0104735 0.0494238 -4.92741e-19)
(0.0291951 0.0434892 3.70869e-19)
(0.0516927 0.0372099 7.64398e-20)
(0.0783679 0.0306132 6.09997e-20)
(0.10964 0.0237121 6.42916e-19)
(0.145915 0.0165158 9.80104e-20)
(0.187601 0.00905456 6.18608e-19)
(0.234755 0.00131003 -7.40097e-19)
(0.288463 -0.00633109 3.4531e-19)
(0.344899 -0.0148897 -3.10014e-19)
(0.415493 -0.0207648 4.81657e-19)
(0.466635 -0.0317182 -7.14936e-19)
(0.575703 -0.0321386 1.46247e-19)
(-0.00752073 0.0133481 -5.19257e-20)
(-0.0191423 0.0336571 -1.10641e-19)
(-0.0280943 0.0488493 -1.02031e-19)
(-0.034421 0.0595508 3.47995e-20)
(-0.038197 0.066408 -5.48231e-20)
(-0.0394718 0.0700747 2.06303e-19)
(-0.0382569 0.0711711 -7.41565e-20)
(-0.0345196 0.0702536 -1.56585e-19)
(-0.0281742 0.0677981 -6.40102e-20)
(-0.0190763 0.0641927 3.24833e-21)
(-0.00702077 0.0597392 4.13687e-19)
(0.00825791 0.0546616 -3.64381e-19)
(0.0270832 0.0491183 5.31073e-19)
(0.0498303 0.0432158 -1.54135e-19)
(0.076917 0.0370231 -2.69794e-19)
(0.108787 0.0305845 2.23412e-19)
(0.145887 0.0239328 -2.45816e-19)
(0.188619 0.0170972 -4.16229e-19)
(0.237363 0.0101422 -1.54938e-19)
(0.291989 0.00301466 1.45468e-19)
(0.353686 -0.00361923 2.31601e-19)
(0.417424 -0.0115575 4.46116e-19)
(0.49671 -0.0152905 2.45468e-20)
(0.55188 -0.0259743 3.01664e-19)
(0.670768 -0.0232836 -9.43066e-20)
(-0.00788393 0.013203 -2.54646e-20)
(-0.0199589 0.0333285 2.4206e-19)
(-0.0290113 0.0484118 2.49839e-19)
(-0.0350913 0.0590391 -1.12021e-19)
(-0.038267 0.0658388 7.86558e-20)
(-0.0385859 0.0694536 -2.93272e-19)
(-0.0360571 0.0704973 5.84629e-20)
(-0.0306408 0.0695247 4.72508e-20)
(-0.0222367 0.0670137 -1.38087e-19)
(-0.0106772 0.0633581 -3.81345e-20)
(0.00427538 0.0588684 -5.19391e-19)
(0.0229277 0.05378 1.65595e-19)
(0.0456502 0.0482647 -2.49394e-20)
(0.0728668 0.0424452 -5.70893e-21)
(0.105039 0.0364081 -2.43865e-20)
(0.142641 0.0302178 -5.06231e-21)
(0.186121 0.0239291 -2.1822e-20)
(0.235835 0.0175921 2.88781e-19)
(0.292073 0.0113106 -2.56707e-19)
(0.354449 0.00496972 2.33594e-19)
(0.424068 -0.000435813 -3.43047e-19)
(0.494907 -0.00756974 -1.64222e-19)
(0.581483 -0.00906924 4.52281e-20)
(0.640259 -0.0192082 -2.59804e-19)
(0.765115 -0.0134649 -8.30047e-20)
(-0.00822719 0.0130115 -2.42555e-19)
(-0.0207128 0.0328517 -3.04305e-20)
(-0.0298195 0.0477249 -3.09189e-19)
(-0.0355926 0.0581843 -2.48575e-19)
(-0.0380883 0.0648454 3.29547e-19)
(-0.0373465 0.0683426 2.25986e-19)
(-0.0333691 0.0692843 -9.9881e-20)
(-0.0261033 0.0682236 -8.98092e-20)
(-0.0154284 0.0656405 -6.70826e-20)
(-0.00114722 0.061934 5.80075e-19)
(0.0170163 0.0574237 2.23557e-19)
(0.0394141 0.052357 3.1714e-19)
(0.0664651 0.0469213 -1.73979e-20)
(0.0986387 0.0412569 6.21973e-20)
(0.136429 0.035471 1.72633e-19)
(0.180315 0.0296502 -4.05123e-19)
(0.230708 0.0238727 6.41167e-19)
(0.287857 0.0182078 6.78681e-20)
(0.351872 0.012798 -2.09092e-19)
(0.422042 0.007449 -3.148e-19)
(0.499109 0.0034515 -1.69675e-19)
(0.576475 -0.00260077 3.7337e-19)
(0.668172 -0.00199562 -1.27659e-20)
(0.729905 -0.0112327 1.90166e-19)
(0.855863 -0.00280762 2.24495e-19)
(-0.00855097 0.01278 1.85108e-19)
(-0.0213988 0.0322411 1.93593e-20)
(-0.030502 0.0468058 -4.19367e-20)
(-0.0358932 0.0570045 4.3777e-20)
(-0.0376111 0.0634464 -3.13589e-19)
(-0.0356831 0.0667606 4.18342e-19)
(-0.0300979 0.0675521 -8.82534e-22)
(-0.0207836 0.0663734 3.42062e-19)
(-0.00759242 0.0637065 1.44612e-20)
(0.00970877 0.0599567 -1.17579e-19)
(0.0314397 0.0554533 1.86061e-19)
(0.0580004 0.0504573 -6.26954e-19)
(0.0898563 0.0451735 -3.88109e-19)
(0.127512 0.0397625 -1.94228e-19)
(0.171473 0.0343541 -8.39656e-20)
(0.222184 0.029058 7.64812e-21)
(0.27996 0.0239747 -4.15801e-19)
(0.344861 0.0191872 1.58108e-19)
(0.416694 0.0148647 6.07624e-19)
(0.494361 0.010737 1.6723e-19)
(0.577918 0.00825107 4.01496e-19)
(0.660716 0.00359698 -3.93827e-19)
(0.754751 0.00597327 -9.03059e-20)
(0.818383 -0.00203558 -1.50865e-19)
(0.940271 0.00852384 -7.87235e-19)
(-0.00885523 0.012515 -1.73617e-19)
(-0.0220104 0.0315105 8.80129e-20)
(-0.0310397 0.0456721 1.56438e-19)
(-0.0359565 0.05552 5.44603e-19)
(-0.0367777 0.0616639 2.05224e-19)
(-0.0335131 0.0647322 -4.56329e-19)
(-0.0261321 0.0653292 -1.15323e-19)
(-0.0145371 0.0640078 -6.04215e-20)
(0.00145392 0.0612539 -2.00163e-19)
(0.0221161 0.0574799 -6.5531e-20)
(0.0478169 0.0530265 -1.36508e-19)
(0.0790039 0.0481706 5.00318e-19)
(0.116181 0.0431364 5.99607e-19)
(0.15987 0.0381069 3.02779e-19)
(0.210547 0.0332352 -1.54955e-19)
(0.268571 0.028653 -1.08928e-19)
(0.334073 0.0244769 2.40244e-19)
(0.406821 0.0207938 -5.45904e-20)
(0.48618 0.0177705 -4.73275e-21)
(0.570595 0.0150878 1.31258e-19)
(0.659172 0.0141246 -1.87318e-19)
(0.745689 0.011131 -3.21292e-19)
(0.83893 0.0147896 -2.10643e-19)
(0.902909 0.00823234 2.66072e-19)
(1.01554 0.0199353 8.24319e-19)
(-0.00914068 0.0122225 1.38621e-19)
(-0.0225399 0.0306718 4.71334e-19)
(-0.0314101 0.044341 1.88531e-19)
(-0.0357399 0.0537524 -1.67013e-19)
(-0.0355212 0.0595239 2.33338e-19)
(-0.030741 0.0622884 2.57332e-19)
(-0.0213433 0.0626526 2.89128e-19)
(-0.00719749 0.0611727 -1.61115e-20)
(0.0119191 0.05834 2.28563e-19)
(0.036329 0.0545762 -7.05407e-19)
(0.0664484 0.0502356 4.00255e-19)
(0.102767 0.0456134 -2.1371e-19)
(0.145811 0.0409551 -5.41968e-19)
(0.196083 0.0364672 -3.95021e-19)
(0.253981 0.0323243 6.45913e-19)
(0.319693 0.028674 -2.21997e-19)
(0.39306 0.0256374 -1.09645e-19)
(0.473436 0.0232881 8.41887e-20)
(0.559605 0.0217463 -4.2749e-19)
(0.64949 0.0206802 3.44594e-19)
(0.741132 0.0211571 -5.4801e-20)
(0.829058 0.0199384 3.99088e-19)
(0.918367 0.0242978 4.54925e-19)
(0.980721 0.0192419 -1.53552e-19)
(1.08009 0.0310751 -3.00693e-19)
(-0.00940729 0.0119069 -7.23188e-20)
(-0.0229778 0.0297358 -2.67349e-19)
(-0.0315862 0.0428293 7.08211e-21)
(-0.035194 0.0517244 -1.35092e-19)
(-0.0337645 0.0570555 -3.98551e-19)
(-0.0272577 0.0594658 -2.06521e-19)
(-0.0155853 0.0595684 1.13732e-19)
(0.00142267 0.0579259 -3.55656e-19)
(0.0240358 0.0550377 2.80305e-20)
(0.0526265 0.0513375 1.76014e-19)
(0.0876565 0.0471961 -5.0747e-19)
(0.129644 0.0429287 -1.67409e-19)
(0.179106 0.0388036 4.34229e-19)
(0.23648 0.0350488 2.94741e-19)
(0.302006 0.0318549 -3.82304e-19)
(0.375596 0.0293736 4.11647e-19)
(0.456678 0.0277092 1.71606e-19)
(0.54406 0.0268985 -4.34918e-20)
(0.635841 0.0269625 -3.71185e-20)
(0.729377 0.0275812 -3.6708e-19)
(0.821739 0.029326 3.99299e-20)
(0.908349 0.0297961 -6.73059e-20)
(0.990911 0.0342305 -3.55156e-19)
(1.04959 0.0305822 -2.57004e-19)
(1.13304 0.0415701 -2.34537e-19)
(-0.00965418 0.0115716 -4.5513e-20)
(-0.0233121 0.0287112 -5.94708e-19)
(-0.0315365 0.0411524 -3.67544e-19)
(-0.0342616 0.0494589 -4.68929e-19)
(-0.0314202 0.0542905 4.14818e-19)
(-0.0229401 0.0563067 3.33964e-20)
(-0.00869517 0.0561315 3.01761e-19)
(0.0115304 0.0543375 -2.76361e-19)
(0.0380568 0.051436 4.61327e-19)
(0.0713051 0.0478757 1.73369e-19)
(0.111772 0.0440462 1.42348e-20)
(0.159979 0.0402846 -2.74083e-20)
(0.21639 0.0368804 -9.7099e-20)
(0.281301 0.0340779 -8.44193e-20)
(0.354699 0.0320718 9.09771e-20)
(0.436096 0.0309978 1.28725e-19)
(0.524372 0.0309145 -8.19841e-19)
(0.617674 0.0317894 5.10814e-20)
(0.713374 0.0334969 -1.34456e-19)
(0.808281 0.0357274 -1.24341e-19)
(0.898801 0.0384865 6.13372e-20)
(0.981256 0.0403589 -3.95846e-19)
(1.05487 0.0442467 1.77962e-19)
(1.10808 0.0418547 2.19716e-19)
(1.17445 0.0510539 -4.9153e-19)
(-0.00987924 0.0112182 1.06335e-19)
(-0.0235273 0.0276046 4.3047e-19)
(-0.0312238 0.0393243 3.70731e-20)
(-0.0328778 0.0469793 6.81483e-19)
(-0.0283899 0.0512634 -4.32851e-19)
(-0.017652 0.0528587 4.24689e-19)
(-0.000494365 0.0524053 -3.81366e-19)
(0.0233489 0.05049 1.5043e-19)
(0.0542491 0.0476396 -1.94944e-19)
(0.0926687 0.0443211 2.57882e-19)
(0.139119 0.0409452 4.28877e-19)
(0.194083 0.03787 2.2292e-19)
(0.257908 0.0354018 8.94673e-20)
(0.330657 0.0337899 9.7978e-20)
(0.411937 0.0332136 -7.49895e-20)
(0.500728 0.0337639 -6.04063e-20)
(0.595242 0.0354169 6.6798e-19)
(0.692901 0.0380335 2.18807e-19)
(0.790395 0.0413121 6.04882e-19)
(0.884114 0.0449283 1.5894e-20)
(0.970235 0.0483843 -3.74678e-19)
(1.04594 0.0512114 4.63979e-19)
(1.10924 0.0540103 5.7504e-19)
(1.15565 0.0527731 7.11734e-20)
(1.205 0.059257 4.82357e-19)
(-0.0100789 0.0108473 -3.01716e-19)
(-0.0236039 0.0264201 1.67124e-19)
(-0.0306043 0.0373574 3.67291e-19)
(-0.0309688 0.044309 -1.44553e-19)
(-0.0245649 0.048011 -4.30633e-19)
(-0.0112448 0.0491746 -3.18794e-20)
(0.00920852 0.0484614 2.33658e-20)
(0.0371127 0.0464768 4.19549e-20)
(0.0728855 0.0437673 -2.69549e-19)
(0.117015 0.0408209 -1.14556e-19)
(0.169991 0.0380695 -4.00506e-19)
(0.232203 0.0358889 -1.00459e-20)
(0.303793 0.0345919 -1.13413e-19)
(0.384474 0.0344146 -3.42761e-20)
(0.473342 0.0354923 3.01243e-19)
(0.568716 0.037835 -4.41575e-19)
(0.66806 0.0412959 1.85104e-19)
(0.768085 0.0455946 -2.93639e-19)
(0.864957 0.0502491 -4.36703e-19)
(0.954894 0.0548922 7.99857e-20)
(1.03433 0.0586921 7.98026e-19)
(1.10128 0.0619237 -4.00742e-19)
(1.15378 0.0632909 1.7209e-20)
(1.19247 0.0632209 3.34762e-19)
(1.22584 0.065918 1.84357e-19)
(-0.0102475 0.0104578 1.42093e-19)
(-0.0235178 0.0251596 -2.01694e-19)
(-0.029628 0.0352624 -4.27429e-19)
(-0.0284527 0.0414711 -2.27215e-19)
(-0.0198264 0.0445721 2.48517e-19)
(-0.00355954 0.0453121 8.46086e-20)
(0.020614 0.0443791 4.95545e-19)
(0.053061 0.0424024 2.01409e-19)
(0.0942336 0.0399511 1.27601e-19)
(0.144616 0.0375359 5.95009e-20)
(0.20463 0.0356077 4.13894e-19)
(0.274491 0.0345515 1.87602e-19)
(0.354024 0.0346699 -1.5576e-19)
(0.442464 0.0361585 2.23249e-19)
(0.538261 0.0390723 -1.28937e-19)
(0.63898 0.043298 1.63758e-19)
(0.74133 0.0485303 -1.59355e-19)
(0.841426 0.0543249 -3.43325e-19)
(0.935178 0.0600438 4.96945e-19)
(1.01897 0.0652705 -5.17416e-19)
(1.08992 0.0690554 1.43939e-19)
(1.1469 0.0721139 -1.65617e-19)
(1.18894 0.0720429 -1.23543e-19)
(1.21932 0.0730674 -9.96572e-19)
(1.23846 0.0704834 1.54949e-19)
(-0.0103777 0.0100474 2.90485e-20)
(-0.0232402 0.0238229 1.445e-19)
(-0.0282377 0.0330484 4.79553e-19)
(-0.0252393 0.0384887 -1.1312e-19)
(-0.0140474 0.0409876 -4.93181e-20)
(0.00557018 0.0413331 9.17265e-20)
(0.0339267 0.0402449 8.18708e-20)
(0.0714294 0.03838 -3.23407e-19)
(0.118543 0.0363331 -1.50518e-19)
(0.175706 0.0346364 -4.65363e-19)
(0.2432 0.0337537 -3.5215e-19)
(0.320968 0.0340642 -2.51756e-19)
(0.408394 0.0358356 2.25389e-19)
(0.504095 0.0391869 -3.2919e-19)
(0.605769 0.0440502 -1.58582e-19)
(0.710189 0.0501486 -6.92319e-20)
(0.813399 0.0569943 -5.09334e-20)
(0.91115 0.0639808 1.02702e-18)
(0.99944 0.0703641 6.29391e-20)
(1.0752 0.0757088 -8.96862e-20)
(1.1365 0.0791359 -4.97912e-19)
(1.18318 0.0815242 1.59479e-19)
(1.21566 0.0803542 1.5503e-20)
(1.23754 0.0816918 5.7034e-19)
(1.24519 0.072517 6.22224e-20)
(-0.0104594 0.00961258 2.29446e-19)
(-0.0227369 0.0224082 -2.20571e-19)
(-0.0263697 0.0307237 -3.34859e-19)
(-0.0212312 0.0353855 3.36315e-19)
(-0.00709376 0.0373005 -7.52191e-20)
(0.0163151 0.0373038 -6.52724e-20)
(0.0493496 0.0361511 5.68421e-20)
(0.0924402 0.0345305 -8.15362e-20)
(0.146029 0.0330628 2.04981e-19)
(0.210451 0.0322974 1.33199e-19)
(0.285759 0.0326987 3.45579e-19)
(0.3715 0.0346181 -9.36542e-21)
(0.466484 0.0382541 2.84396e-19)
(0.568589 0.0436069 -1.8789e-20)
(0.674698 0.0504414 3.04274e-19)
(0.780846 0.0582866 8.85454e-20)
(0.882606 0.0664699 -5.70128e-19)
(0.97569 0.0742538 -2.78078e-19)
(1.05656 0.0808585 -6.86465e-20)
(1.12299 0.0858912 1.80062e-19)
(1.1742 0.0886557 -8.39345e-20)
(1.21099 0.0900759 -2.96514e-19)
(1.23498 0.0881555 4.00401e-20)
(1.24883 0.0881779 -2.66631e-19)
(1.25363 0.0798622 -1.27342e-19)
(-0.0104805 0.0091493 1.40496e-19)
(-0.0219688 0.0209128 1.49917e-19)
(-0.023954 0.028296 2.74729e-19)
(-0.0163247 0.0321856 -2.00189e-19)
(0.00117281 0.0335562 1.45342e-20)
(0.0288459 0.0332944 4.01393e-19)
(0.0670766 0.0321956 -1.1511e-19)
(0.116292 0.0309806 -3.84943e-19)
(0.176862 0.0302936 -2.28633e-19)
(0.248939 0.0306923 3.06128e-19)
(0.332237 0.0326225 -6.39239e-19)
(0.425779 0.0363766 2.45647e-21)
(0.527665 0.0420423 -5.5377e-20)
(0.63495 0.0494545 4.07555e-19)
(0.743715 0.0581744 -2.21474e-19)
(0.849413 0.0675246 3.04135e-19)
(0.947439 0.0766734 3.07311e-19)
(1.03383 0.0848112 -5.39484e-19)
(1.10585 0.0912036 -2.25238e-19)
(1.16235 0.0955687 -1.84198e-19)
(1.20366 0.0974408 2.80024e-19)
(1.23147 0.0978161 4.36664e-19)
(1.24805 0.0950927 1.99437e-19)
(1.25611 0.0941662 -1.75834e-19)
(1.25781 0.0858214 -3.11176e-19)
(-0.0104264 0.00865292 -3.31661e-20)
(-0.0208918 0.0193334 1.40223e-19)
(-0.0209147 0.0257736 -2.78727e-19)
(-0.0104111 0.0289148 -4.2813e-19)
(0.0108926 0.0298028 -6.34995e-19)
(0.0433285 0.0293792 1.08124e-19)
(0.0872859 0.028481 -1.27916e-19)
(0.143148 0.0278605 1.87735e-19)
(0.211147 0.0281791 6.99414e-20)
(0.291155 0.029987 1.34864e-19)
(0.382422 0.033684 1.50582e-19)
(0.48331 0.0394641 -8.30391e-20)
(0.591104 0.0472568 -1.20682e-19)
(0.70201 0.0566889 -2.70997e-19)
(0.811416 0.0670961 8.28621e-20)
(0.914443 0.0776089 -3.22434e-19)
(1.00667 0.0872905 1.18444e-19)
(1.08481 0.0953369 7.79571e-20)