/*--------------------------------*- C++ -*----------------------------------*\
  =========                 |
  \\      /  F ield         | OpenFOAM: The Open Source CFD Toolbox
   \\    /   O peration     | Website:  https://openfoam.org
    \\  /    A nd           | Version:  7
     \\/     M anipulation  |
\*---------------------------------------------------------------------------*/
FoamFile
{
    version     2.0;
    format      ascii;
    class       volScalarField;
    location    "170";
    object      p;
}
// * * * * * * * * * * * * * * * * * * * * * * * * * * * * * * * * * * * * * //

dimensions      [0 2 -2 0 0 0 0];

internalField   nonuniform List<scalar> 
31800
(
-0.354885
-0.357365
-0.358565
-0.3594
-0.360049
-0.360592
-0.361127
-0.361722
-0.362412
-0.363216
-0.364141
-0.365191
-0.366382
-0.367746
-0.369342
-0.371266
-0.373655
-0.376693
-0.38061
-0.385666
-0.392119
-0.400178
-0.409948
-0.421244
-0.433595
-0.351641
-0.353872
-0.35491
-0.35558
-0.35604
-0.35637
-0.356667
-0.357002
-0.357419
-0.357946
-0.358604
-0.359419
-0.360431
-0.361706
-0.363346
-0.365497
-0.368351
-0.372151
-0.37718
-0.383737
-0.392098
-0.402449
-0.414821
-0.428957
-0.444087
-0.348647
-0.350606
-0.351475
-0.351975
-0.352249
-0.352371
-0.352439
-0.352525
-0.352681
-0.352946
-0.353353
-0.353948
-0.354794
-0.35599
-0.357676
-0.36004
-0.363325
-0.36782
-0.373851
-0.381747
-0.391787
-0.404129
-0.418723
-0.435262
-0.452601
-0.345877
-0.347549
-0.348243
-0.348575
-0.348665
-0.348586
-0.348432
-0.348278
-0.348185
-0.348199
-0.348369
-0.348755
-0.349446
-0.350566
-0.35229
-0.354844
-0.358511
-0.36362
-0.370527
-0.379579
-0.39105
-0.405064
-0.421493
-0.44
-0.458988
-0.343307
-0.344683
-0.3452
-0.345364
-0.345274
-0.345
-0.344631
-0.344247
-0.343912
-0.343685
-0.343626
-0.343812
-0.344351
-0.345392
-0.347139
-0.349851
-0.353842
-0.359471
-0.367116
-0.377128
-0.38977
-0.405132
-0.422986
-0.443074
-0.46318
-0.340908
-0.341988
-0.342329
-0.342327
-0.342063
-0.341598
-0.341021
-0.340412
-0.339842
-0.33938
-0.339098
-0.339086
-0.339472
-0.340426
-0.342174
-0.345003
-0.349251
-0.355299
-0.363533
-0.374306
-0.387855
-0.40425
-0.423125
-0.444422
-0.465167
-0.338653
-0.339445
-0.339614
-0.339451
-0.339017
-0.338367
-0.337586
-0.336755
-0.335954
-0.335259
-0.334754
-0.334543
-0.334769
-0.335621
-0.337345
-0.340246
-0.344678
-0.351038
-0.359714
-0.371049
-0.385247
-0.402377
-0.42189
-0.444035
-0.465008
-0.336518
-0.337036
-0.33704
-0.336721
-0.336122
-0.335292
-0.334309
-0.33326
-0.332227
-0.331297
-0.330565
-0.33015
-0.330206
-0.330937
-0.332604
-0.335527
-0.340073
-0.346639
-0.355612
-0.367321
-0.381925
-0.399519
-0.419315
-0.44198
-0.462833
-0.334478
-0.334743
-0.334592
-0.334125
-0.333367
-0.33236
-0.331178
-0.329908
-0.32864
-0.327471
-0.326506
-0.325876
-0.325747
-0.326335
-0.327913
-0.330809
-0.335395
-0.342068
-0.351203
-0.363115
-0.377903
-0.395724
-0.415493
-0.438394
-0.458836
-0.332513
-0.332552
-0.332259
-0.331654
-0.330742
-0.329561
-0.32818
-0.326687
-0.325179
-0.323762
-0.322554
-0.321695
-0.321364
-0.321785
-0.32324
-0.32606
-0.330621
-0.33731
-0.346485
-0.358453
-0.373233
-0.391085
-0.410571
-0.433474
-0.453267
-0.330609
-0.330453
-0.330033
-0.329298
-0.32824
-0.326888
-0.325307
-0.323587
-0.321832
-0.320157
-0.318692
-0.317589
-0.317035
-0.317266
-0.318565
-0.321266
-0.325741
-0.332368
-0.341482
-0.353384
-0.368
-0.385731
-0.404732
-0.427469
-0.446415
-0.328751
-0.328439
-0.327907
-0.327054
-0.325856
-0.324335
-0.322553
-0.320601
-0.31859
-0.316645
-0.314909
-0.313545
-0.312751
-0.312766
-0.31388
-0.316425
-0.320764
-0.327265
-0.336238
-0.347982
-0.362317
-0.379817
-0.398186
-0.42065
-0.438578
-0.326933
-0.326504
-0.32588
-0.324919
-0.323588
-0.321901
-0.319917
-0.317727
-0.315451
-0.313225
-0.311203
-0.309562
-0.308508
-0.308287
-0.309191
-0.311549
-0.315715
-0.322045
-0.330818
-0.342341
-0.356315
-0.373516
-0.391153
-0.413286
-0.430024
-0.325153
-0.324648
-0.32395
-0.322895
-0.321437
-0.319587
-0.317399
-0.314967
-0.312418
-0.3099
-0.307581
-0.305647
-0.304317
-0.303844
-0.304519
-0.306668
-0.310636
-0.316766
-0.325304
-0.336569
-0.35014
-0.367004
-0.383851
-0.405617
-0.420963
-0.323414
-0.322874
-0.322122
-0.320983
-0.319406
-0.317396
-0.315003
-0.312327
-0.3095
-0.306682
-0.304055
-0.301818
-0.300201
-0.299463
-0.299898
-0.301828
-0.305586
-0.311503
-0.319794
-0.330788
-0.343944
-0.360447
-0.376479
-0.397817
-0.411603
-0.321724
-0.32119
-0.320401
-0.31919
-0.3175
-0.315333
-0.312738
-0.309816
-0.306709
-0.303588
-0.300647
-0.298102
-0.296193
-0.295186
-0.295378
-0.297087
-0.300637
-0.306344
-0.314394
-0.32512
-0.337873
-0.353989
-0.369205
-0.389978
-0.402161
-0.320096
-0.319606
-0.318797
-0.317524
-0.315729
-0.313409
-0.310614
-0.307449
-0.304063
-0.30064
-0.297387
-0.294535
-0.292336
-0.291064
-0.29102
-0.292519
-0.295873
-0.301388
-0.309216
-0.319686
-0.332057
-0.347739
-0.36215
-0.382109
-0.392626
-0.318549
-0.318137
-0.317323
-0.315996
-0.314102
-0.311634
-0.308644
-0.305242
-0.301584
-0.297866
-0.29431
-0.29116
-0.288681
-0.287158
-0.286894
-0.288203
-0.291386
-0.296732
-0.304366
-0.314591
-0.326597
-0.34176
-0.355364
-0.374148
-0.382981
-0.317107
-0.316801
-0.315993
-0.31462
-0.312631
-0.310022
-0.306845
-0.303215
-0.299297
-0.295299
-0.291455
-0.288025
-0.285288
-0.283537
-0.283078
-0.284225
-0.287266
-0.292474
-0.299938
-0.309915
-0.321547
-0.336064
-0.34882
-0.366036
-0.373277
-0.315798
-0.315619
-0.314825
-0.313411
-0.311333
-0.308589
-0.305235
-0.301391
-0.297232
-0.292973
-0.288867
-0.285184
-0.282217
-0.280268
-0.279649
-0.280668
-0.283601
-0.288694
-0.295999
-0.305704
-0.316911
-0.330611
-0.34241
-0.357674
-0.363327
-0.314656
-0.314616
-0.31384
-0.312387
-0.310226
-0.307354
-0.303836
-0.299796
-0.295418
-0.290928
-0.28659
-0.282689
-0.279529
-0.277421
-0.27668
-0.277606
-0.280459
-0.28545
-0.292585
-0.301955
-0.312632
-0.325315
-0.335972
-0.348992
-0.352997
-0.313714
-0.313816
-0.313059
-0.311569
-0.309328
-0.306338
-0.302671
-0.298458
-0.293889
-0.289202
-0.28467
-0.280591
-0.277281
-0.275056
-0.274231
-0.275096
-0.277886
-0.282766
-0.289685
-0.298619
-0.308606
-0.320055
-0.329342
-0.339966
-0.342244
-0.313011
-0.313249
-0.312506
-0.310978
-0.308661
-0.305564
-0.301766
-0.297404
-0.292677
-0.28783
-0.283147
-0.278937
-0.275521
-0.273222
-0.272348
-0.273172
-0.275897
-0.280627
-0.287243
-0.295595
-0.304698
-0.314703
-0.322405
-0.330625
-0.331173
-0.312584
-0.312941
-0.312205
-0.310636
-0.308247
-0.305054
-0.301144
-0.296662
-0.291812
-0.286847
-0.282059
-0.277763
-0.274285
-0.271948
-0.27105
-0.271836
-0.274466
-0.278974
-0.285164
-0.292756
-0.300768
-0.309149
-0.315118
-0.321051
-0.31996
-0.31247
-0.31292
-0.312178
-0.310564
-0.308106
-0.304829
-0.300829
-0.296256
-0.29132
-0.286278
-0.281428
-0.27709
-0.27359
-0.271242
-0.270327
-0.271055
-0.273533
-0.277711
-0.283322
-0.28996
-0.296698
-0.30332
-0.307511
-0.311356
-0.308782
-0.312702
-0.313209
-0.312446
-0.310781
-0.308257
-0.304908
-0.300838
-0.296204
-0.291216
-0.286138
-0.281268
-0.276925
-0.27343
-0.271084
-0.270141
-0.270766
-0.273003
-0.276718
-0.281579
-0.287081
-0.292399
-0.297189
-0.299662
-0.301655
-0.297793
-0.313308
-0.313829
-0.313028
-0.311303
-0.308713
-0.305304
-0.301184
-0.296515
-0.291509
-0.28643
-0.281573
-0.277252
-0.273778
-0.271429
-0.270423
-0.270875
-0.272758
-0.275863
-0.279808
-0.284022
-0.287829
-0.290769
-0.291659
-0.292011
-0.287098
-0.314311
-0.314797
-0.313936
-0.312141
-0.309486
-0.306024
-0.301871
-0.29719
-0.292193
-0.28714
-0.282321
-0.278038
-0.274584
-0.272208
-0.271085
-0.27127
-0.272675
-0.275021
-0.277904
-0.280727
-0.282983
-0.284108
-0.283562
-0.282349
-0.276708
-0.315724
-0.316124
-0.315179
-0.313302
-0.310577
-0.307068
-0.302894
-0.298219
-0.293251
-0.288244
-0.283475
-0.279232
-0.275781
-0.273335
-0.272021
-0.271836
-0.272631
-0.274085
-0.275794
-0.277183
-0.277897
-0.277306
-0.275426
-0.272466
-0.266487
-0.317557
-0.317816
-0.316762
-0.314787
-0.311985
-0.30843
-0.304242
-0.299583
-0.294656
-0.289703
-0.284987
-0.280771
-0.277291
-0.274717
-0.273125
-0.272456
-0.272519
-0.272974
-0.273441
-0.273406
-0.272635
-0.2705
-0.26736
-0.262397
-0.256165
-0.31981
-0.319874
-0.318684
-0.316593
-0.313703
-0.310096
-0.305895
-0.301256
-0.296374
-0.291475
-0.286801
-0.282587
-0.279031
-0.276258
-0.274291
-0.27303
-0.272254
-0.271634
-0.270835
-0.269429
-0.267272
-0.263807
-0.259519
-0.252962
-0.245765
-0.322478
-0.322297
-0.32094
-0.318713
-0.31572
-0.312053
-0.307833
-0.30321
-0.298368
-0.293512
-0.288859
-0.284609
-0.280918
-0.277864
-0.275425
-0.273469
-0.271772
-0.270037
-0.26799
-0.265298
-0.261885
-0.257284
-0.251945
-0.244501
-0.236841
-0.325551
-0.325077
-0.323524
-0.321137
-0.318023
-0.314281
-0.310032
-0.305416
-0.3006
-0.295769
-0.291105
-0.286771
-0.282876
-0.279453
-0.276447
-0.273709
-0.271034
-0.268177
-0.264935
-0.261063
-0.256535
-0.250967
-0.244776
-0.236734
-0.228663
-0.329016
-0.328202
-0.326432
-0.323859
-0.320601
-0.316767
-0.312472
-0.307848
-0.30304
-0.298205
-0.293489
-0.28901
-0.284833
-0.280952
-0.277288
-0.273702
-0.270021
-0.266067
-0.261704
-0.256768
-0.251266
-0.244883
-0.237998
-0.229528
-0.221268
-0.332862
-0.33167
-0.329652
-0.326868
-0.323444
-0.319498
-0.31514
-0.310486
-0.305661
-0.300785
-0.295965
-0.291272
-0.286728
-0.2823
-0.277902
-0.273419
-0.268732
-0.263728
-0.258335
-0.252452
-0.246105
-0.239035
-0.231588
-0.222803
-0.21439
-0.337075
-0.335472
-0.333179
-0.33016
-0.326547
-0.322468
-0.318024
-0.313317
-0.308442
-0.30348
-0.298493
-0.293507
-0.288508
-0.283447
-0.278253
-0.27285
-0.267178
-0.261187
-0.25486
-0.24814
-0.241064
-0.233415
-0.225504
-0.216472
-0.20794
-0.341644
-0.339603
-0.337011
-0.333734
-0.32991
-0.325675
-0.321124
-0.316334
-0.311368
-0.306265
-0.301038
-0.295672
-0.290128
-0.284359
-0.278323
-0.271996
-0.265377
-0.258475
-0.251307
-0.243852
-0.236145
-0.228005
-0.219705
-0.210473
-0.201833
-0.346564
-0.344059
-0.341147
-0.33759
-0.333535
-0.329124
-0.324439
-0.319533
-0.314428
-0.309117
-0.303567
-0.297727
-0.291552
-0.28501
-0.278104
-0.270868
-0.263355
-0.255617
-0.247699
-0.239597
-0.231343
-0.22278
-0.214149
-0.204752
-0.19601
-0.35183
-0.348839
-0.34559
-0.341736
-0.33743
-0.332822
-0.327976
-0.322913
-0.317611
-0.312014
-0.306047
-0.29964
-0.292751
-0.285387
-0.277601
-0.269484
-0.261135
-0.252637
-0.244049
-0.235378
-0.226645
-0.217718
-0.2088
-0.199262
-0.190426
-0.357441
-0.353945
-0.350343
-0.346177
-0.341605
-0.336778
-0.331739
-0.32647
-0.320902
-0.314931
-0.308449
-0.30138
-0.293707
-0.285484
-0.276823
-0.267863
-0.25874
-0.249553
-0.240368
-0.231192
-0.222039
-0.212792
-0.203622
-0.193965
-0.185041
-0.363396
-0.359377
-0.355412
-0.350924
-0.346071
-0.341003
-0.335733
-0.3302
-0.324285
-0.317842
-0.310743
-0.302923
-0.294406
-0.285304
-0.275784
-0.266027
-0.256188
-0.246378
-0.236657
-0.227032
-0.217506
-0.207978
-0.198586
-0.188826
-0.179821
-0.369696
-0.36514
-0.360803
-0.355983
-0.350835
-0.345501
-0.339956
-0.334091
-0.327738
-0.320717
-0.312898
-0.304246
-0.29484
-0.284852
-0.2745
-0.263992
-0.253496
-0.243119
-0.232916
-0.22289
-0.213031
-0.203254
-0.193664
-0.183816
-0.174736
-0.376342
-0.371233
-0.366518
-0.361361
-0.355905
-0.350274
-0.344402
-0.338126
-0.331233
-0.323525
-0.314887
-0.305332
-0.295005
-0.284138
-0.272985
-0.261774
-0.250672
-0.239781
-0.229142
-0.218753
-0.208596
-0.198595
-0.18883
-0.178907
-0.169759
-0.383329
-0.377655
-0.37256
-0.36706
-0.361279
-0.355317
-0.349055
-0.342278
-0.334737
-0.326231
-0.316682
-0.306168
-0.294903
-0.28317
-0.271252
-0.259384
-0.247724
-0.236361
-0.225326
-0.214608
-0.204183
-0.193982
-0.184061
-0.174076
-0.164868
-0.390652
-0.384402
-0.378925
-0.373078
-0.366954
-0.360617
-0.353892
-0.346513
-0.33821
-0.328799
-0.318258
-0.306742
-0.294532
-0.281956
-0.269312
-0.25683
-0.244654
-0.232858
-0.22146
-0.210444
-0.199776
-0.189396
-0.179336
-0.169301
-0.160039
-0.398298
-0.391463
-0.385606
-0.379406
-0.372914
-0.366151
-0.35888
-0.350792
-0.34161
-0.331192
-0.319591
-0.307044
-0.293896
-0.280503
-0.267171
-0.254114
-0.241459
-0.229264
-0.217534
-0.206244
-0.195357
-0.184818
-0.174636
-0.164562
-0.155255
-0.406248
-0.398823
-0.392588
-0.386028
-0.379139
-0.371888
-0.363977
-0.355065
-0.34489
-0.333374
-0.320659
-0.307066
-0.292992
-0.278815
-0.264831
-0.251236
-0.238136
-0.225572
-0.213535
-0.201997
-0.190912
-0.18023
-0.169942
-0.159842
-0.150496
-0.414477
-0.40646
-0.39985
-0.39292
-0.385597
-0.377787
-0.369134
-0.359279
-0.348002
-0.335308
-0.32144
-0.306798
-0.291821
-0.276892
-0.262291
-0.248192
-0.234678
-0.221771
-0.209453
-0.197687
-0.186426
-0.175618
-0.16524
-0.155123
-0.145746
-0.422952
-0.414345
-0.407363
-0.400049
-0.392248
-0.383797
-0.374292
-0.363377
-0.350896
-0.336959
-0.321914
-0.306232
-0.290378
-0.274731
-0.259548
-0.244976
-0.231076
-0.217851
-0.205274
-0.193302
-0.181882
-0.170965
-0.160512
-0.15039
-0.140992
-0.431631
-0.422442
-0.415092
-0.407375
-0.399041
-0.38986
-0.379387
-0.367297
-0.353522
-0.338294
-0.322062
-0.305356
-0.288657
-0.272327
-0.256596
-0.24158
-0.227319
-0.2138
-0.200987
-0.188828
-0.177269
-0.166258
-0.155746
-0.14563
-0.136217
-0.440465
-0.430705
-0.42299
-0.414847
-0.405918
-0.395908
-0.384351
-0.370976
-0.355833
-0.339279
-0.321863
-0.304159
-0.28665
-0.269673
-0.253425
-0.237994
-0.223396
-0.209606
-0.196577
-0.184252
-0.172572
-0.161484
-0.150928
-0.140828
-0.131412
-0.449397
-0.439082
-0.431003
-0.422404
-0.41281
-0.401866
-0.389109
-0.374351
-0.357779
-0.339883
-0.321298
-0.302628
-0.284346
-0.266757
-0.250023
-0.234204
-0.219296
-0.205257
-0.192034
-0.179562
-0.16778
-0.15663
-0.146046
-0.135974
-0.126562
-0.45836
-0.447513
-0.43907
-0.429979
-0.419641
-0.407655
-0.393585
-0.377359
-0.359315
-0.340075
-0.320346
-0.300749
-0.281733
-0.263568
-0.24638
-0.2302
-0.215004
-0.20074
-0.187344
-0.174745
-0.162879
-0.151684
-0.141089
-0.131055
-0.121659
-0.46728
-0.455928
-0.44712
-0.437494
-0.426328
-0.41319
-0.397703
-0.379938
-0.360396
-0.339824
-0.318986
-0.298504
-0.278796
-0.260091
-0.24248
-0.225967
-0.21051
-0.196043
-0.182495
-0.169791
-0.15786
-0.146636
-0.136045
-0.126062
-0.116693
-0.476078
-0.464251
-0.455073
-0.444864
-0.432781
-0.418383
-0.401387
-0.382029
-0.360981
-0.339102
-0.317198
-0.295878
-0.27552
-0.256312
-0.23831
-0.221492
-0.205799
-0.191154
-0.177476
-0.164687
-0.152711
-0.141476
-0.130906
-0.120985
-0.111654
-0.484665
-0.472399
-0.462844
-0.451999
-0.438907
-0.423146
-0.40456
-0.383573
-0.361028
-0.337881
-0.314961
-0.292852
-0.271889
-0.252216
-0.233855
-0.216761
-0.200859
-0.18606
-0.172277
-0.159424
-0.147422
-0.136194
-0.125662
-0.115815
-0.106535
-0.492948
-0.480281
-0.47034
-0.4588
-0.444608
-0.427389
-0.40715
-0.384518
-0.360499
-0.336132
-0.312252
-0.289407
-0.267885
-0.247786
-0.229101
-0.211762
-0.195677
-0.18075
-0.166886
-0.153992
-0.141984
-0.130781
-0.120306
-0.110544
-0.101329
-0.500828
-0.487802
-0.477461
-0.465167
-0.449784
-0.431025
-0.409086
-0.384811
-0.359358
-0.333829
-0.309049
-0.285524
-0.263491
-0.243007
-0.224033
-0.206479
-0.190242
-0.175215
-0.161293
-0.148381
-0.13639
-0.125231
-0.114829
-0.105166
-0.0960305
-0.508203
-0.494862
-0.484106
-0.470994
-0.454336
-0.433967
-0.410302
-0.384404
-0.357571
-0.330946
-0.305332
-0.281185
-0.258689
-0.237863
-0.218636
-0.200902
-0.184543
-0.169443
-0.155491
-0.142584
-0.13063
-0.119535
-0.109225
-0.0996739
-0.0906334
-0.514966
-0.501357
-0.490169
-0.476177
-0.458168
-0.436134
-0.410737
-0.383254
-0.355105
-0.327458
-0.30108
-0.276371
-0.253464
-0.232338
-0.212898
-0.195018
-0.178569
-0.163425
-0.149469
-0.136593
-0.124699
-0.113688
-0.103488
-0.0940625
-0.0851348
-0.521012
-0.507181
-0.495541
-0.48061
-0.461182
-0.437449
-0.410332
-0.38132
-0.351932
-0.323342
-0.296272
-0.271063
-0.247798
-0.226419
-0.206806
-0.188816
-0.17231
-0.157153
-0.143222
-0.130402
-0.11859
-0.107684
-0.0976139
-0.0883285
-0.0795339
-0.526233
-0.512228
-0.500116
-0.484188
-0.463289
-0.437841
-0.409036
-0.378563
-0.348022
-0.318575
-0.29089
-0.265245
-0.241677
-0.220092
-0.200348
-0.182287
-0.165759
-0.15062
-0.136741
-0.124003
-0.112297
-0.101518
-0.0915965
-0.0824696
-0.0738311
-0.530522
-0.51639
-0.503786
-0.486813
-0.464403
-0.437242
-0.406802
-0.374952
-0.343353
-0.313138
-0.284915
-0.258902
-0.235087
-0.213345
-0.193514
-0.175421
-0.158906
-0.143819
-0.130022
-0.117393
-0.105817
-0.0951846
-0.0854317
-0.0764824
-0.0680225
-0.533775
-0.519564
-0.506449
-0.488387
-0.464445
-0.435594
-0.403587
-0.370457
-0.337901
-0.307012
-0.278332
-0.252019
-0.228015
-0.206168
-0.186295
-0.168212
-0.151748
-0.136745
-0.123061
-0.110567
-0.0991446
-0.0886812
-0.0791164
-0.0703593
-0.0620837
-0.535893
-0.521649
-0.508005
-0.488823
-0.463341
-0.432843
-0.399355
-0.365053
-0.331647
-0.300181
-0.271127
-0.244583
-0.220451
-0.198552
-0.178684
-0.160652
-0.144277
-0.129393
-0.115853
-0.103523
-0.0922786
-0.0820062
-0.0726504
-0.0640897
-0.0559639
-0.536779
-0.522547
-0.508361
-0.488036
-0.461029
-0.428946
-0.394077
-0.358717
-0.324575
-0.292631
-0.263287
-0.236585
-0.212387
-0.190489
-0.170675
-0.152738
-0.136491
-0.121761
-0.108396
-0.0962585
-0.0852174
-0.0751597
-0.0660348
-0.0576738
-0.0496512
-0.536344
-0.52217
-0.507431
-0.485955
-0.457451
-0.423862
-0.387727
-0.351434
-0.316672
-0.284352
-0.254804
-0.228016
-0.203814
-0.181974
-0.162263
-0.144466
-0.128386
-0.113847
-0.10069
-0.0887723
-0.0779616
-0.0681421
-0.0592671
-0.0511151
-0.0433373
-0.534508
-0.520433
-0.505136
-0.482512
-0.45256
-0.417563
-0.380286
-0.34319
-0.307928
-0.275334
-0.245669
-0.218869
-0.19473
-0.173003
-0.153447
-0.135834
-0.119963
-0.10565
-0.092734
-0.0810656
-0.0705127
-0.0609566
-0.0523466
-0.0444207
-0.0369333
-0.531195
-0.517261
-0.501407
-0.477653
-0.446319
-0.410023
-0.371741
-0.333978
-0.298336
-0.265573
-0.235879
-0.209143
-0.18513
-0.163575
-0.144224
-0.126843
-0.111221
-0.0971714
-0.0845312
-0.0731424
-0.0628703
-0.0536021
-0.0452764
-0.0375995
-0.030416
-0.526341
-0.512589
-0.496184
-0.471332
-0.438697
-0.401229
-0.362083
-0.323792
-0.287895
-0.255067
-0.225433
-0.198836
-0.175015
-0.153691
-0.134597
-0.117493
-0.102164
-0.0884163
-0.0760815
-0.0650026
-0.0550382
-0.046081
-0.0380602
-0.0306519
-0.0237827
-0.519891
-0.50636
-0.489418
-0.463513
-0.429675
-0.391171
-0.351312
-0.312634
-0.276604
-0.243816
-0.21433
-0.187949
-0.164387
-0.143352
-0.124569
-0.107791
-0.092795
-0.0793857
-0.0673902
-0.0566502
-0.0470204
-0.0383971
-0.0307016
-0.0235788
-0.0170383
-0.511802
-0.498528
-0.481072
-0.454172
-0.419243
-0.379848
-0.33943
-0.300508
-0.26447
-0.231826
-0.202576
-0.176485
-0.153251
-0.132567
-0.114147
-0.0977394
-0.0831185
-0.0700851
-0.0584623
-0.0480902
-0.0388213
-0.0305554
-0.0232048
-0.0163831
-0.010188
-0.502039
-0.48906
-0.471117
-0.443295
-0.407397
-0.367265
-0.326446
-0.287424
-0.2515
-0.219104
-0.190177
-0.164452
-0.14162
-0.12134
-0.103335
-0.0873457
-0.0731418
-0.0605211
-0.0493043
-0.039329
-0.030447
-0.0225615
-0.0155747
-0.00906915
-0.0032376
-0.490579
-0.47793
-0.459538
-0.430877
-0.394145
-0.353437
-0.312376
-0.273396
-0.237708
-0.20566
-0.177145
-0.151869
-0.129492
-0.10968
-0.0921436
-0.0766187
-0.0628733
-0.050702
-0.0399237
-0.030374
-0.0219043
-0.0144219
-0.00781711
-0.00164276
0.00380697
-0.477413
-0.465128
-0.446331
-0.416925
-0.379502
-0.338382
-0.297238
-0.258442
-0.223108
-0.191512
-0.163496
-0.138739
-0.116886
-0.0976004
-0.0805833
-0.0655692
-0.0523229
-0.0406372
-0.0303295
-0.0212335
-0.0132013
-0.00614412
6.09768e-05
0.00588923
0.0109392
-0.462541
-0.450653
-0.431502
-0.401456
-0.363491
-0.322126
-0.281059
-0.242585
-0.207724
-0.176678
-0.149245
-0.125079
-0.103816
-0.0851137
-0.0686674
-0.0542092
-0.0415021
-0.0303377
-0.0205319
-0.0119174
-0.00434722
0.0022633
0.00805164
0.013519
0.0181519
-0.445973
-0.434515
-0.415068
-0.384494
-0.346144
-0.304702
-0.26387
-0.225852
-0.191578
-0.161178
-0.13441
-0.11091
-0.0903005
-0.0722366
-0.0564108
-0.0425527
-0.0304241
-0.0198155
-0.0105424
-0.00243633
0.0046478
0.0107908
0.0161459
0.0212376
0.0254372
-0.427733
-0.416736
-0.397058
-0.366074
-0.327499
-0.28615
-0.245705
-0.208274
-0.174699
-0.145038
-0.119016
-0.0962507
-0.0763575
-0.0589872
-0.0438304
-0.0306154
-0.0191032
-0.00908431
-0.000373572
0.00719776
0.0137725
0.019428
0.024334
0.0290353
0.0327862
-0.407855
-0.397348
-0.377509
-0.346241
-0.307605
-0.266513
-0.226599
-0.189889
-0.157117
-0.128287
-0.103089
-0.0811267
-0.0620095
-0.0453857
-0.0309448
-0.0184144
-0.00755561
0.00184114
0.00996075
0.0169719
0.0230147
0.0281635
0.032605
0.0369013
0.0401893
-0.386383
-0.376394
-0.356468
-0.325052
-0.286521
-0.245826
-0.206602
-0.170734
-0.138869
-0.110957
-0.0866579
-0.0655638
-0.0472805
-0.0314543
-0.0177745
-0.00596867
0.0042015
0.0129448
0.0204457
0.0268722
0.0323612
0.0369847
0.0409472
0.0448237
0.0476355
-0.36337
-0.353926
-0.333994
-0.302579
-0.2643
-0.22414
-0.185759
-0.150853
-0.119994
-0.0930817
-0.0697537
-0.0495911
-0.032197
-0.0172172
-0.00434147
0.00670166
0.0161495
0.0242095
0.0310653
0.0368837
0.0417978
0.0458786
0.0493481
0.0527893
0.0551126
-0.338874
-0.330007
-0.310159
-0.278881
-0.240946
-0.201561
-0.164127
-0.130292
-0.100533
-0.0747001
-0.0524111
-0.0332398
-0.0167873
-0.00270032
0.00933047
0.0195748
0.0282684
0.035617
0.0418028
0.0469907
0.0513097
0.054831
0.0577937
0.0607828
0.0626062
-0.312966
-0.30472
-0.285063
-0.253939
-0.216612
-0.178116
-0.141762
-0.109104
-0.0805314
-0.0558526
-0.0346671
-0.0165432
-0.00108199
0.0120687
0.0232161
0.0326279
0.0405374
0.0471481
0.0526404
0.0571767
0.0608813
0.063827
0.0662688
0.0687857
0.0700957
-0.28572
-0.278152
-0.25881
-0.227826
-0.19134
-0.153878
-0.118726
-0.087342
-0.0600379
-0.0365826
-0.0165607
0.000463049
0.0148868
0.0270605
0.0372887
0.0458365
0.0529342
0.0587826
0.0635598
0.0674248
0.0704967
0.0728517
0.0747583
0.0767784
0.0775538
-0.257216
-0.250372
-0.231218
-0.200905
-0.165228
-0.128917
-0.0950813
-0.0650629
-0.0391031
-0.0169358
0.00186666
0.0177415
0.0310849
0.0422441
0.0515203
0.0591752
0.0654357
0.0704996
0.074542
0.0777173
0.080139
0.0818896
0.0832493
0.0847461
0.0849633
-0.227527
-0.221507
-0.202636
-0.17306
-0.138352
-0.103313
-0.070895
-0.0423263
-0.0177803
0.00303974
0.0205716
0.0352528
0.0474769
0.0575874
0.0658817
0.0726175
0.0780179
0.0822773
0.0855673
0.0880358
0.0897905
0.0909252
0.0917318
0.0926805
0.0923196
-0.196747
-0.191659
-0.173178
-0.144388
-0.110797
-0.0771417
-0.0462363
-0.0191938
0.0038749
0.0232941
0.0395088
0.052956
0.0640256
0.0730566
0.0803423
0.0861358
0.090656
0.0940935
0.0966155
0.0983615
0.0994335
0.0999454
0.100197
0.10055
0.0995295
-0.165158
-0.160821
-0.142904
-0.114998
-0.0826494
-0.0504846
-0.0211767
0.00427036
0.025805
0.0437752
0.0586315
0.0708088
0.0806925
0.0886171
0.0948707
0.0997017
0.103324
0.105925
0.107666
0.108676
0.109054
0.108947
0.108631
0.108243
0.106292
-0.132785
-0.129149
-0.11191
-0.0849945
-0.0540013
-0.0234237
0.00420994
0.0280003
0.0479507
0.0644297
0.0778913
0.0887673
0.0974382
0.104233
0.109434
0.113286
0.115997
0.117749
0.118698
0.118961
0.118646
0.117934
0.117015
0.115617
0.112378
-0.0996922
-0.0967989
-0.0803068
-0.054483
-0.0249475
0.00395647
0.029848
0.0519282
0.0702511
0.0852025
0.0972385
0.106787
0.114222
0.119867
0.124
0.126858
0.128646
0.12954
0.129689
0.129202
0.128202
0.1269
0.125311
0.122711
0.118439
-0.0660059
-0.0638924
-0.0482074
-0.0235705
0.00441503
0.0315695
0.0556602
0.075985
0.0926439
0.106038
0.116622
0.124821
0.131002
0.135483
0.138534
0.140388
0.141244
0.141274
0.140616
0.139379
0.137705
0.135803
0.13346
0.12971
0.126486
-0.0318563
-0.030549
-0.0157296
0.00763419
0.0339881
0.0593276
0.0815683
0.1001
0.115066
0.126878
0.135991
0.142824
0.147737
0.151041
0.153002
0.153844
0.153763
0.152923
0.151458
0.149474
0.147127
0.144589
0.141491
0.137085
0.134512
0.00262783
0.0031089
0.0170074
0.0390211
0.0636725
0.0871421
0.107493
0.124203
0.137453
0.147665
0.155293
0.160747
0.164383
0.166503
0.167367
0.167195
0.166173
0.164463
0.16219
0.159464
0.156442
0.15325
0.149464
0.144622
0.142113
0.037317
0.0369569
0.0498836
0.0704794
0.0933684
0.114924
0.133354
0.148221
0.15974
0.168341
0.174474
0.178544
0.180897
0.181831
0.181596
0.180407
0.178446
0.175866
0.17279
0.169326
0.165627
0.161781
0.157373
0.152163
0.14945
0.072081
0.0708692
0.0827783
0.101898
0.122976
0.142583
0.159072
0.172083
0.181863
0.188848
0.193483
0.196166
0.197236
0.196983
0.195652
0.19345
0.190552
0.187107
0.183232
0.179035
0.17466
0.17017
0.165182
0.159593
0.156535
0.106789
0.104719
0.115571
0.133167
0.152395
0.170031
0.184566
0.195717
0.203756
0.209125
0.212265
0.213564
0.213356
0.211922
0.2095
0.20629
0.202462
0.198159
0.193492
0.188568
0.183522
0.178401
0.172855
0.166867
0.163388
0.141311
0.13838
0.148141
0.164175
0.181527
0.197178
0.209757
0.21905
0.225355
0.229116
0.230768
0.230693
0.229215
0.226608
0.223103
0.218895
0.214146
0.208993
0.203545
0.197903
0.192193
0.186453
0.180363
0.173959
0.170016
0.175516
0.171725
0.180371
0.194814
0.210273
0.223937
0.234566
0.242011
0.246594
0.248761
0.248939
0.247502
0.244768
0.241002
0.236428
0.231233
0.225576
0.219585
0.213366
0.207016
0.200653
0.194307
0.187682
0.180853
0.176421
0.209277
0.204631
0.212141
0.224975
0.238537
0.25022
0.258914
0.26453
0.267412
0.268003
0.266725
0.263946
0.259973
0.255064
0.249437
0.243273
0.236721
0.229908
0.222932
0.215886
0.208882
0.201942
0.194793
0.187534
0.182599
0.242467
0.236973
0.243336
0.254554
0.266223
0.275943
0.282724
0.286538
0.287744
0.286785
0.284077
0.279978
0.274788
0.268758
0.262098
0.254982
0.247555
0.239935
0.232219
0.224492
0.21686
0.209339
0.201676
0.193991
0.188546
0.274961
0.268631
0.273842
0.283445
0.293238
0.30102
0.305921
0.307966
0.307528
0.305051
0.300942
0.295551
0.289171
0.282045
0.274376
0.26633
0.258048
0.249642
0.241203
0.232813
0.224568
0.216482
0.208318
0.200212
0.194254
0.306637
0.299486
0.303549
0.311549
0.319491
0.32537
0.328432
0.328748
0.326706
0.322747
0.317272
0.310623
0.303083
0.294889
0.286237
0.277288
0.268174
0.259004
0.249862
0.240827
0.231988
0.223352
0.214703
0.206184
0.199717
0.337377
0.329423
0.332347
0.338767
0.344893
0.348915
0.350183
0.348818
0.345218
0.33982
0.333019
0.325147
0.316483
0.307254
0.29765
0.287825
0.277907
0.267996
0.258175
0.248516
0.239102
0.229934
0.220816
0.211895
0.204925
0.367065
0.358331
0.360134
0.365003
0.369358
0.371575
0.371107
0.368115
0.363007
0.356218
0.348136
0.339084
0.329333
0.319106
0.308583
0.297914
0.287219
0.276596
0.26612
0.255861
0.245891
0.236213
0.226645
0.217335
0.209872
0.39559
0.386101
0.386808
0.390167
0.392805
0.393279
0.391135
0.386576
0.380018
0.371892
0.362577
0.352391
0.341598
0.33041
0.319006
0.307526
0.296087
0.284781
0.273677
0.262842
0.252341
0.242173
0.232175
0.222491
0.214547
0.422845
0.412631
0.412273
0.41417
0.415154
0.413953
0.410204
0.404145
0.396199
0.386793
0.3763
0.36503
0.35324
0.341136
0.328889
0.316636
0.304487
0.292528
0.280827
0.269442
0.258435
0.2478
0.237393
0.227353
0.218943
0.448729
0.437821
0.436436
0.436929
0.436329
0.43353
0.428252
0.420765
0.411499
0.400876
0.389263
0.376964
0.364226
0.351252
0.338206
0.325218
0.312395
0.299818
0.28755
0.275645
0.264157
0.253081
0.242289
0.23191
0.223052
0.473145
0.461577
0.45921
0.458363
0.456259
0.451946
0.445221
0.436384
0.42587
0.414098
0.401428
0.388155
0.374523
0.360728
0.346928
0.333249
0.319791
0.306632
0.293829
0.281434
0.269494
0.258003
0.246849
0.23615
0.226866
0.496
0.483812
0.480513
0.4784
0.474877
0.469139
0.461055
0.450952
0.439268
0.426418
0.412756
0.398572
0.384103
0.369539
0.355033
0.340706
0.326654
0.312949
0.299648
0.286795
0.274432
0.262554
0.251064
0.240065
0.230377
0.51721
0.504442
0.500267
0.496967
0.49212
0.485053
0.475704
0.464421
0.451649
0.437797
0.423213
0.408182
0.392934
0.377656
0.362495
0.347567
0.332964
0.318754
0.30499
0.291712
0.278959
0.266722
0.254921
0.243645
0.23358
0.536694
0.52339
0.518402
0.514001
0.507928
0.499635
0.489118
0.476749
0.462974
0.448199
0.432766
0.416956
0.400993
0.385057
0.369294
0.353813
0.338704
0.32403
0.309841
0.296174
0.283062
0.270497
0.258412
0.246882
0.236466
0.55438
0.540585
0.53485
0.529441
0.522248
0.512836
0.501255
0.487896
0.473208
0.457592
0.441387
0.424867
0.408252
0.39172
0.375408
0.359426
0.343857
0.328762
0.314188
0.300168
0.28673
0.273869
0.261527
0.249766
0.239032
0.5702
0.555963
0.549553
0.543233
0.53503
0.524611
0.512074
0.497825
0.482316
0.465946
0.449047
0.43189
0.414692
0.397624
0.380821
0.364389
0.348408
0.332937
0.318018
0.303683
0.289954
0.276828
0.264259
0.252291
0.24127
0.584095
0.569466
0.562455
0.555328
0.546231
0.534921
0.521538
0.506504
0.49027
0.473233
0.455722
0.438004
0.42029
0.40275
0.385515
0.368688
0.352345
0.336542
0.321321
0.306708
0.292725
0.279367
0.266599
0.254451
0.243177
0.596011
0.581042
0.57351
0.565682
0.555811
0.54373
0.529616
0.513903
0.497042
0.47943
0.461391
0.443188
0.42503
0.407083
0.389476
0.372308
0.355654
0.339567
0.324086
0.309236
0.295035
0.281479
0.268541
0.256239
0.244749
0.605902
0.590647
0.582677
0.574259
0.563736
0.551008
0.53628
0.519996
0.502611
0.484516
0.466035
0.447426
0.428896
0.410609
0.392691
0.375239
0.358325
0.342002
0.326305
0.311259
0.296877
0.283157
0.270079
0.25765
0.245981
0.613729
0.598243
0.589919
0.581026
0.569979
0.556728
0.541506
0.524764
0.506957
0.488474
0.469637
0.450703
0.431876
0.413316
0.39515
0.377471
0.360351
0.343839
0.327972
0.312769
0.298245
0.284396
0.271209
0.258679
0.24687
0.61946
0.6038
0.595209
0.585957
0.574515
0.560871
0.545276
0.528189
0.510063
0.491289
0.472185
0.453007
0.433957
0.415195
0.396843
0.378996
0.361723
0.345073
0.329079
0.313763
0.299134
0.285193
0.271926
0.259324
0.247414
0.623073
0.607295
0.598525
0.589034
0.577327
0.563419
0.547575
0.530257
0.511919
0.492951
0.47367
0.45433
0.435133
0.416237
0.397765
0.379809
0.362437
0.345697
0.329624
0.314235
0.299542
0.285542
0.272227
0.259582
0.247613
0.624549
0.608711
0.599853
0.590243
0.578402
0.564363
0.548393
0.530959
0.512516
0.493452
0.474084
0.454665
0.435398
0.416439
0.39791
0.379904
0.362488
0.345709
0.329602
0.314184
0.299464
0.285444
0.272112
0.259452
0.247465
0.62388
0.608039
0.599184
0.589575
0.577735
0.563695
0.547724
0.530291
0.511849
0.492787
0.473423
0.45401
0.434749
0.415797
0.397277
0.37928
0.361874
0.345107
0.329012
0.313607