/*--------------------------------*- C++ -*----------------------------------*\
  =========                 |
  \\      /  F ield         | OpenFOAM: The Open Source CFD Toolbox
   \\    /   O peration     | Website:  https://openfoam.org
    \\  /    A nd           | Version:  7
     \\/     M anipulation  |
\*---------------------------------------------------------------------------*/
FoamFile
{
    version     2.0;
    format      ascii;
    class       volVectorField;
    location    "170";
    object      U;
}
// * * * * * * * * * * * * * * * * * * * * * * * * * * * * * * * * * * * * * //

dimensions      [0 1 -1 0 0 0 0];

internalField   nonuniform List<vector> 
31800
(
(-0.000944406 -0.000745797 -1.28667e-20)
(-0.00567942 0.00831303 8.89443e-21)
(-0.0148283 0.0246666 -2.90257e-21)
(-0.0264438 0.0452882 1.2844e-20)
(-0.0398716 0.0677486 1.43367e-20)
(-0.0546279 0.0903907 -4.69746e-21)
(-0.0702771 0.11236 -3.41209e-21)
(-0.0864388 0.13352 2.39815e-20)
(-0.102751 0.154249 -2.74478e-21)
(-0.118863 0.175183 3.91461e-21)
(-0.134441 0.196966 1.34237e-20)
(-0.149165 0.220079 1.31336e-20)
(-0.162726 0.244748 -8.3389e-21)
(-0.174799 0.270927 -1.03402e-20)
(-0.185032 0.298301 -3.37205e-22)
(-0.193014 0.326296 -1.32747e-20)
(-0.198269 0.35406 1.03297e-20)
(-0.20025 0.380438 1.75725e-20)
(-0.198348 0.403948 -6.67294e-21)
(-0.191914 0.422783 3.05655e-20)
(-0.180306 0.434857 1.94909e-21)
(-0.16296 0.437938 -2.60559e-21)
(-0.139497 0.429909 5.77434e-21)
(-0.109637 0.409105 1.22459e-20)
(-0.0731161 0.374408 7.89222e-21)
(-0.000904322 0.000978738 1.32381e-20)
(-0.00553172 0.0124462 7.07168e-21)
(-0.0143174 0.0305168 -7.70885e-21)
(-0.025433 0.0523871 -2.94336e-20)
(-0.0382391 0.0757582 2.14836e-20)
(-0.0522658 0.0990476 -1.04842e-20)
(-0.0670942 0.121433 5.66088e-22)
(-0.0823546 0.142788 -1.83705e-20)
(-0.0976872 0.163491 3.7155e-21)
(-0.112731 0.184182 2.49257e-21)
(-0.127129 0.205515 -5.56984e-20)
(-0.14053 0.22798 -1.10732e-21)
(-0.152581 0.251808 6.2311e-20)
(-0.16292 0.276944 -3.1119e-20)
(-0.171146 0.303055 -5.90037e-21)
(-0.176808 0.329535 1.31286e-20)
(-0.17939 0.355498 -2.76007e-20)
(-0.178309 0.379758 -1.38905e-21)
(-0.172931 0.400815 2.80829e-20)
(-0.162606 0.416861 -1.03564e-19)
(-0.146714 0.42585 -3.28396e-20)
(-0.124742 0.425625 5.12267e-20)
(-0.0963825 0.414172 2.60945e-20)
(-0.0615735 0.39006 4.83771e-21)
(-0.0196963 0.352317 -1.06133e-20)
(-0.000933161 0.00251988 -2.69364e-20)
(-0.00551981 0.0161392 -8.71745e-22)
(-0.0139391 0.035754 -3.64667e-20)
(-0.0245056 0.0587616 5.46167e-20)
(-0.0366025 0.0829803 -6.19281e-20)
(-0.049778 0.106888 -5.42427e-21)
(-0.0636331 0.129682 -5.52311e-21)
(-0.0778117 0.151229 9.8981e-21)
(-0.0919582 0.171897 3.34736e-20)
(-0.105704 0.192322 -5.78902e-21)
(-0.118672 0.213159 -9.46446e-21)
(-0.130476 0.234909 3.5925e-20)
(-0.140728 0.257807 -7.00468e-21)
(-0.149018 0.281798 3.58683e-20)
(-0.154908 0.306533 -7.14618e-20)
(-0.157906 0.331384 -2.91702e-20)
(-0.157462 0.35544 5.06781e-21)
(-0.152972 0.377496 -9.82e-20)
(-0.143794 0.396044 2.70057e-20)
(-0.129294 0.409298 6.31107e-20)
(-0.108897 0.415267 -4.06286e-20)
(-0.0821757 0.411892 -1.01098e-19)
(-0.0488883 0.397272 -5.16319e-20)
(-0.00929041 0.370121 -1.01693e-19)
(0.0378228 0.329586 -5.83633e-20)
(-0.0010185 0.0038604 1.26464e-20)
(-0.0056231 0.019352 -2.08134e-20)
(-0.0136816 0.0403215 6.62891e-20)
(-0.0236666 0.0643419 -5.29731e-20)
(-0.034988 0.0893336 -1.3349e-20)
(-0.0472137 0.113822 -3.24978e-21)
(-0.0599665 0.137011 4.27976e-20)
(-0.0729057 0.158747 2.97567e-20)
(-0.085683 0.179375 -5.36e-20)
(-0.0979257 0.199514 2.21602e-20)
(-0.109238 0.219818 2.1156e-21)
(-0.119205 0.240793 -1.0048e-19)
(-0.1274 0.262684 -3.32885e-20)
(-0.133375 0.285437 2.9185e-21)
(-0.136649 0.308699 2.249e-20)
(-0.1367 0.331827 1.01967e-19)
(-0.132952 0.353895 1.11454e-20)
(-0.124788 0.373689 9.86198e-20)
(-0.111577 0.389713 9.89216e-20)
(-0.0927128 0.400218 -1.26878e-20)
(-0.0676855 0.403285 4.79049e-20)
(-0.036167 0.396969 -1.8721e-20)
(0.00197907 0.379479 6.44895e-20)
(0.0461121 0.349693 2.26851e-19)
(0.0984139 0.306635 3.75504e-20)
(-0.00114708 0.00498964 2.09987e-20)
(-0.00581934 0.0220581 -7.62146e-20)
(-0.0135314 0.0441787 9.80364e-20)
(-0.0229199 0.0690737 3.60657e-20)
(-0.0334218 0.0947514 2.85795e-20)
(-0.0446244 0.119773 3.03096e-20)
(-0.0561714 0.143334 -1.59103e-19)
(-0.0677391 0.165252 5.8336e-20)
(-0.0789891 0.185835 6.10841e-20)
(-0.0895487 0.205675 -9.02813e-20)
(-0.0990083 0.225415 9.35949e-20)
(-0.106929 0.245566 5.16838e-20)
(-0.112849 0.266383 6.22139e-20)
(-0.116283 0.287821 -4.23924e-20)
(-0.116717 0.309528 -9.38366e-21)
(-0.113599 0.330858 2.08825e-19)
(-0.106338 0.35088 -9.15022e-20)
(-0.0943179 0.368385 7.12796e-20)
(-0.0769251 0.381903 -1.78535e-19)
(-0.0536019 0.389738 -7.31917e-20)
(-0.0239106 0.390057 7.34909e-20)
(0.0123522 0.381043 1.32752e-19)
(0.0552905 0.360982 2.3858e-20)
(0.103622 0.329093 -1.86616e-19)
(0.161071 0.283852 -1.36279e-19)
(-0.00130548 0.00590381 -8.17727e-20)
(-0.00608567 0.0242453 -2.58714e-20)
(-0.0134741 0.0473026 -5.83643e-20)
(-0.0222687 0.0729206 -5.6215e-20)
(-0.0319303 0.0991826 4.01114e-20)
(-0.0420623 0.124675 -7.06132e-20)
(-0.0523277 0.148576 -4.47865e-20)
(-0.0624194 0.170663 -2.27456e-19)
(-0.0720118 0.191194 9.62098e-21)
(-0.0807361 0.210724 -1.64539e-21)
(-0.0881753 0.229879 -1.72612e-19)
(-0.0938714 0.249168 -5.79221e-20)
(-0.0973344 0.268859 -7.42871e-20)
(-0.0980475 0.288919 1.41734e-19)
(-0.0954672 0.309005 4.1198e-20)
(-0.0890206 0.32848 -1.14438e-19)
(-0.0781093 0.346419 -1.25935e-19)
(-0.0621263 0.361634 3.41441e-20)
(-0.04049 0.372692 1.46164e-19)
(-0.0127009 0.377963 -3.03877e-20)
(0.0216032 0.37571 -2.03515e-20)
(0.0624621 0.364274 -1.01308e-19)
(0.11008 0.341979 -1.32688e-19)
(0.162192 0.308463 1.13246e-19)
(0.224746 0.261513 8.02613e-20)
(-0.0014808 0.00660565 4.29118e-20)
(-0.00639993 0.0259156 5.00543e-20)
(-0.0134955 0.0496874 -3.90655e-20)
(-0.021716 0.0758645 -8.02393e-20)
(-0.0305397 0.102594 1.24792e-20)
(-0.0395805 0.128478 9.39213e-20)
(-0.048517 0.152674 1.34909e-19)
(-0.0570576 0.174905 1.82227e-19)
(-0.0648912 0.195374 3.089e-20)
(-0.0716576 0.214587 4.23939e-20)
(-0.0769392 0.233142 5.13534e-20)
(-0.0802659 0.251543 1.92443e-19)
(-0.0811273 0.270068 -1.10423e-20)
(-0.078982 0.288702 -2.46337e-19)
(-0.0732642 0.30712 1.77006e-19)
(-0.0633876 0.324702 7.00267e-20)
(-0.0487545 0.340544 2.30367e-19)
(-0.0287775 0.353489 -9.7207e-20)
(-0.00291692 0.362153 -1.12783e-19)
(0.0292564 0.364989 3.29381e-19)
(0.0680392 0.360357 -1.1493e-19)
(0.113243 0.346783 -1.84076e-19)
(0.16536 0.322586 -5.25971e-20)
(0.220734 0.287885 -1.73132e-19)
(0.288275 0.239748 3.01265e-20)
(-0.0016614 0.0071042 1.06701e-20)
(-0.00674194 0.0270846 -1.96668e-20)
(-0.0135831 0.051345 4.01488e-21)
(-0.0212654 0.0779061 -1.43563e-19)
(-0.0292759 0.104969 -1.11658e-19)
(-0.0372316 0.13115 -2.11465e-20)
(-0.0448212 0.155576 -5.31571e-20)
(-0.0517662 0.177915 -9.87562e-20)
(-0.0577708 0.198304 -2.32643e-20)
(-0.062488 0.217191 -1.01828e-20)
(-0.065506 0.235137 -1.01461e-19)
(-0.0663518 0.252634 4.28302e-20)
(-0.0645035 0.269969 3.34906e-20)
(-0.0594039 0.287147 1.78976e-19)
(-0.0504734 0.303868 -6.1216e-21)
(-0.0371208 0.319539 -1.0998e-19)
(-0.0187582 0.333288 -1.34711e-20)
(0.00517267 0.344001 4.66296e-20)
(0.0351621 0.350358 2.04345e-19)
(0.071553 0.350903 -1.59853e-19)
(0.1146 0.344091 4.31053e-19)
(0.163791 0.328657 1.89833e-19)
(0.220152 0.30288 -1.50712e-19)
(0.278172 0.267396 3.04447e-19)
(0.350437 0.218548 1.90404e-19)
(-0.00183745 0.0074142 1.22283e-20)
(-0.00709458 0.0277809 6.44197e-20)
(-0.0137264 0.0523043 1.7982e-19)
(-0.0209216 0.079065 2.24525e-19)
(-0.0281647 0.106314 1.32455e-19)
(-0.035067 0.132675 -9.20857e-20)
(-0.0413207 0.157249 2.24368e-19)
(-0.0466567 0.179643 2.47199e-20)
(-0.0507944 0.199922 -1.33198e-19)
(-0.0534035 0.218469 1.52021e-20)
(-0.0540852 0.2358 2.42522e-19)
(-0.0523725 0.252388 -2.58148e-19)
(-0.0477422 0.268523 -1.4638e-19)
(-0.0396321 0.284232 -3.04854e-20)
(-0.0274588 0.299245 -2.43067e-19)
(-0.0106357 0.313005 -1.591e-19)
(0.011406 0.324685 2.76769e-20)
(0.039186 0.333223 -3.40515e-19)
(0.0731392 0.337373 3.23523e-20)
(0.113502 0.335781 -1.75569e-19)
(0.160528 0.326994 -2.26403e-19)
(0.213253 0.309967 2.1884e-19)
(0.273538 0.282914 2.6343e-19)
(0.333533 0.247019 -2.10126e-19)
(0.410137 0.197799 3.07593e-19)
(-0.00200153 0.00755535 -1.50687e-19)
(-0.00744493 0.0280446 1.09735e-19)
(-0.0139187 0.0526099 -9.01693e-21)
(-0.020691 0.0793792 4.2828e-20)
(-0.0272313 0.10665 4.0314e-20)
(-0.0331359 0.133057 1.83492e-19)
(-0.0380926 0.157674 -1.3286e-19)
(-0.0418372 0.18005 -2.44649e-19)
(-0.0441029 0.200177 1.21777e-19)
(-0.0445787 0.218363 1.13233e-19)
(-0.0428853 0.235073 -3.80573e-19)
(-0.0385708 0.250752 2.67165e-19)
(-0.031122 0.26569 4.03366e-19)
(-0.0199831 0.279933 2.64549e-20)
(-0.00457848 0.293246 -6.94095e-20)
(0.0156633 0.305115 2.06246e-19)
(0.0412825 0.314766 -9.55647e-20)
(0.0727503 0.321203 4.40095e-19)
(0.110443 0.323259 -3.9879e-19)
(0.154468 0.319689 7.72183e-20)
(0.205133 0.309137 -3.98084e-20)
(0.26087 0.290767 -1.38994e-19)
(0.324739 0.262718 -1.40601e-19)
(0.386038 0.226766 1.25802e-19)
(0.466649 0.177331 3.02495e-20)
(-0.00214886 0.0075512 9.73278e-20)
(-0.00778512 0.0279261 -7.01635e-20)
(-0.0141575 0.0523209 5.64291e-20)
(-0.0205821 0.0789041 -1.92949e-19)
(-0.0265004 0.10602 -4.28979e-20)
(-0.0314841 0.13232 2.11421e-20)
(-0.0352084 0.156853 -4.7411e-20)
(-0.0374088 0.179117 -7.77441e-20)
(-0.0378299 0.199029 2.34457e-20)
(-0.0361815 0.216822 -1.30385e-19)
(-0.0321089 0.2329 2.43191e-19)
(-0.0251845 0.247674 -5.61813e-20)
(-0.0149159 0.261427 -1.42714e-19)
(-0.00076597 0.274223 -1.44927e-19)
(0.0178209 0.285862 1.92744e-19)
(0.0413895 0.295879 1.02696e-19)
(0.0704417 0.30356 4.29097e-20)
(0.105391 0.307984 -3.62014e-19)
(0.146556 0.30807 3.87432e-19)
(0.193889 0.302685 -1.27102e-19)
(0.247831 0.29058 -6.38176e-20)
(0.306043 0.271093 -5.52468e-20)
(0.373209 0.242294 -6.42594e-20)
(0.435211 0.206613 2.0195e-19)
(0.519858 0.15695 -3.58664e-19)
(-0.00227749 0.0074289 -3.63378e-20)
(-0.00811253 0.0274838 1.53414e-19)
(-0.0144452 0.0515082 -2.20296e-19)
(-0.0206055 0.0777107 8.8344e-20)
(-0.0259954 0.104485 4.72152e-20)
(-0.0301525 0.130505 -7.26288e-20)
(-0.0327317 0.154808 2.10256e-19)
(-0.0334621 0.176844 5.18756e-20)
(-0.032097 0.196458 2.18028e-20)
(-0.028367 0.213809 2.0188e-19)
(-0.0219461 0.229235 -8.18676e-20)
(-0.0124385 0.243107 8.51261e-20)
(0.000616738 0.255693 -9.16077e-20)
(0.017726 0.267072 -5.1557e-21)
(0.0394126 0.27708 -9.95342e-20)
(0.0661834 0.285302 -3.48925e-19)
(0.0984929 0.291089 7.25441e-20)
(0.136688 0.293601 2.87446e-19)
(0.181036 0.291853 -1.05432e-19)
(0.231317 0.284815 5.1123e-19)
(0.288195 0.271371 -2.92972e-19)
(0.34841 0.250963 -8.9763e-20)
(0.41876 0.22163 -1.55245e-19)
(0.481035 0.186472 5.55952e-21)
(0.570445 0.13646 -1.51068e-19)
(-0.00238909 0.00721794 -1.06042e-19)
(-0.00843065 0.0267817 -1.58693e-19)
(-0.0147889 0.0502528 -8.33014e-20)
(-0.0207743 0.0758832 7.91865e-20)
(-0.0257381 0.102123 2.40534e-20)
(-0.0291756 0.127678 1.38814e-20)
(-0.0307148 0.151583 5.31444e-20)
(-0.0300727 0.17325 -2.56658e-19)
(-0.0270076 0.192462 8.27803e-20)
(-0.02127 0.209303 -1.74514e-19)
(-0.0125651 0.224045 -6.10386e-20)
(-0.000534812 0.237011 -8.4337e-20)
(0.0152413 0.248452 -1.76576e-19)
(0.0352279 0.258453 3.62297e-19)
(0.0599047 0.266884 2.05673e-19)
(0.0897306 0.273382 5.59848e-20)
(0.125106 0.277367 1.74717e-19)
(0.166307 0.278083 -2.62125e-19)
(0.213564 0.274646 -7.07988e-20)
(0.266476 0.266114 -3.26892e-19)
(0.326038 0.251549 1.30603e-19)
(0.387968 0.230365 3.0186e-19)
(0.461701 0.200712 1.50116e-19)
(0.524145 0.166187 -2.87186e-19)
(0.619971 0.115709 3.85978e-19)
(-0.00248839 0.00694866 -3.62894e-20)
(-0.00874889 0.025888 8.50175e-21)
(-0.0152008 0.0486424 1.06379e-19)
(-0.0211029 0.073517 1.87515e-19)
(-0.0257467 0.0990268 -1.24847e-19)
(-0.0285793 0.123921 1.18694e-19)
(-0.0291956 0.147244 -9.29251e-20)
(-0.027296 0.168382 3.50344e-19)
(-0.0226398 0.187065 -2.43652e-19)
(-0.0149955 0.203307 5.22062e-20)
(-0.00410028 0.217316 2.2247e-19)
(0.0103624 0.229363 -2.90208e-20)
(0.0287655 0.239676 2.43975e-20)
(0.0515237 0.248342 -2.91909e-19)
(0.0790644 0.25526 -2.47472e-19)
(0.111791 0.260118 -9.5522e-21)
(0.15005 0.262409 -2.75094e-19)
(0.194049 0.261457 1.05427e-19)
(0.244004 0.256486 -1.46625e-19)
(0.299361 0.246618 2.05508e-19)
(0.36154 0.231148 -2.75412e-19)
(0.425242 0.209282 1.73668e-19)
(0.502988 0.179556 -1.53337e-19)
(0.56603 0.145562 2.27147e-19)
(0.67077 0.0946933 -1.64956e-20)
(-0.00258311 0.00665161 2.04302e-19)
(-0.00908198 0.0248721 5.0219e-20)
(-0.0156969 0.046769 -1.15953e-19)
(-0.0216061 0.0707152 -1.3856e-19)
(-0.0260349 0.0953017 9.32579e-20)
(-0.028378 0.119333 -3.38633e-19)
(-0.0281934 0.141878 4.78751e-19)
(-0.0251611 0.162311 9.00387e-20)
(-0.0190378 0.180317 1.51292e-19)
(-0.00960701 0.195854 1.82893e-19)
(0.003363 0.209062 1.13233e-19)
(0.0201458 0.220164 -8.37021e-20)
(0.0410638 0.229358 -7.28123e-22)
(0.0664766 0.236732 -4.00497e-20)
(0.0967557 0.242208 -1.21637e-19)
(0.132249 0.245523 2.75861e-19)
(0.173254 0.246238 5.74725e-19)
(0.21993 0.243759 3.53892e-20)
(0.272514 0.237423 2.06165e-19)
(0.330361 0.226376 -1.09207e-19)
(0.395394 0.210222 1.47232e-19)
(0.461446 0.187723 -8.6432e-19)
(0.544284 0.15823 4.34138e-19)
(0.609084 0.124458 2.80077e-19)
(0.725565 0.0736302 -1.98783e-19)
(-0.0026837 0.00635649 -1.21405e-19)
(-0.00944917 0.0238023 -2.07568e-19)
(-0.016296 0.0447251 1.97891e-19)
(-0.0222974 0.0675855 1.29492e-19)
(-0.0266089 0.091063 6.77294e-20)
(-0.0285715 0.114031 2.42872e-19)
(-0.0277043 0.135595 -2.51204e-19)
(-0.0236643 0.155134 -2.29351e-19)
(-0.0162021 0.172303 -1.50119e-19)
(-0.00511301 0.187007 -3.45084e-19)
(0.00980693 0.199331 6.45028e-20)
(0.0287902 0.209448 -2.63647e-20)
(0.0521095 0.217527 4.77914e-19)
(0.0800708 0.223649 1.96244e-19)
(0.112993 0.227757 1.42601e-19)
(0.151179 0.229635 -4.68383e-20)
(0.194895 0.228909 -2.58906e-19)
(0.244288 0.225061 -2.14453e-19)
(0.299671 0.217542 -2.59548e-19)
(0.360408 0.20549 1.90007e-19)
(0.428948 0.188875 3.72889e-19)
(0.49856 0.165788 4.44429e-19)
(0.587883 0.136891 -4.35768e-19)
(0.656325 0.102962 1.9066e-19)
(0.786634 0.0530039 2.81914e-19)
(-0.00280279 0.00609104 -3.14942e-19)
(-0.00987289 0.0227433 1.75272e-19)
(-0.0170178 0.0426012 -2.97369e-19)
(-0.0231866 0.0642369 3.63199e-19)
(-0.0274647 0.0864321 -3.46265e-19)
(-0.0291412 0.108142 -1.02883e-19)
(-0.0276958 0.128526 -1.89635e-19)
(-0.0227612 0.146978 1.05574e-19)
(-0.014079 0.163138 -1.78443e-19)
(-0.00145148 0.176873 1.93685e-19)
(0.0153028 0.188217 -2.51446e-19)
(0.0363814 0.197299 -1.83464e-19)
(0.0620141 0.204258 2.26175e-21)
(0.0924626 0.209167 -2.79048e-19)
(0.128008 0.211989 6.39688e-21)
(0.168928 0.212548 -2.83674e-19)
(0.215496 0.210534 -1.58813e-20)
(0.267901 0.205498 -3.18811e-19)
(0.32659 0.197004 1.12851e-19)
(0.391066 0.184151 5.14953e-19)
(0.464227 0.167311 -5.13805e-19)
(0.539194 0.143742 2.66383e-19)
(0.636377 0.115848 3.05155e-19)
(0.710728 0.0814871 -1.61735e-19)
(0.854695 0.0335187 6.36504e-20)
(-0.00295443 0.00588006 1.63246e-19)
(-0.010377 0.0217539 -4.63222e-20)
(-0.0178802 0.0404823 1.00878e-19)
(-0.0242764 0.060776 -2.91821e-19)
(-0.0285848 0.0815335 4.6266e-19)
(-0.0300453 0.101805 3.01995e-20)
(-0.0281008 0.120817 3.28813e-19)
(-0.022359 0.137995 -1.70411e-19)
(-0.0125488 0.152976 1.13561e-19)
(0.00152631 0.1656 1.47414e-19)
(0.020034 0.175864 1.34854e-19)
(0.0431481 0.183857 4.17733e-19)
(0.07107 0.18969 -1.08269e-19)
(0.104036 0.193432 -1.0293e-19)
(0.142316 0.19506 -8.19523e-20)
(0.186201 0.194439 -3.8037e-21)
(0.23602 0.191317 -1.75e-19)
(0.292068 0.185308 1.59137e-19)
(0.35498 0.176083 -2.18225e-19)
(0.424497 0.162687 8.71578e-20)
(0.503767 0.145876 -1.32265e-19)
(0.586147 0.122068 1.41125e-20)
(0.692037 0.0955751 -7.08691e-19)
(0.774283 0.0607915 6.84648e-20)
(0.929314 0.0163477 -6.46832e-21)
(-0.00315347 0.00574463 2.1392e-19)
(-0.0109848 0.0208845 -1.4422e-19)
(-0.0188967 0.038445 -1.00794e-19)
(-0.02556 0.0573037 -6.14879e-20)
(-0.0299338 0.0764909 -1.99154e-19)
(-0.0312152 0.0951656 -3.31464e-19)
(-0.0288127 0.112633 -1.07176e-19)
(-0.0223085 0.128362 3.64053e-19)
(-0.0114153 0.142004 -1.13593e-19)
(0.00407116 0.153385 -2.39587e-19)
(0.0243175 0.162473 -1.41425e-19)
(0.0494914 0.169327 -4.26664e-19)
(0.079789 0.174039 -4.55761e-19)
(0.115452 0.176673 3.41823e-19)
(0.156776 0.177223 7.14484e-20)
(0.204114 0.17559 5.78404e-20)
(0.257904 0.171579 5.94368e-19)
(0.318602 0.164859 9.33948e-20)
(0.38704 0.155193 5.96214e-19)
(0.463212 0.14158 -7.43063e-19)
(0.550165 0.125082 3.60673e-19)
(0.641706 0.101447 -3.44315e-19)
(0.756082 0.0766858 5.66512e-19)
(0.847003 0.0418498 -8.77391e-19)
(1.00729 0.00212145 1.91682e-19)
(-0.00341434 0.00570022 -5.48413e-20)
(-0.0117166 0.0201757 -1.13671e-19)
(-0.0200732 0.0365551 -1.03702e-19)
(-0.0270168 0.0539118 3.50186e-20)
(-0.0314556 0.0714233 -5.47923e-20)
(-0.0325507 0.0883691 2.1033e-19)
(-0.0296798 0.104144 -7.32176e-20)
(-0.0223987 0.118277 -1.54343e-19)
(-0.0103973 0.130442 -6.39709e-20)
(0.0065476 0.140465 3.19945e-21)
(0.0286196 0.1483 3.91546e-19)
(0.0560046 0.153987 -3.37096e-19)
(0.0889255 0.157604 4.88455e-19)
(0.127668 0.159217 -1.41303e-19)
(0.172599 0.158838 -2.41731e-19)
(0.22418 0.156403 2.01374e-19)
(0.282995 0.151769 -2.25144e-19)
(0.349673 0.144654 -3.83778e-19)
(0.425169 0.134889 -1.51137e-19)
(0.509602 0.121452 1.48247e-19)
(0.605436 0.105579 2.38715e-19)
(0.706861 0.0826632 4.8737e-19)
(0.828075 0.0598527 3.42638e-20)
(0.926485 0.0256241 3.6402e-19)
(1.08427 -0.00872202 -1.26898e-19)
(-0.00374919 0.00575666 -2.6568e-20)
(-0.0125873 0.0196561 2.48195e-19)
(-0.0214054 0.0348644 2.56666e-19)
(-0.02861 0.0506799 -1.14997e-19)
(-0.0330697 0.0664415 8.06548e-20)
(-0.0339175 0.0815598 -2.94394e-19)
(-0.0305028 0.0955313 5.78353e-20)
(-0.0223524 0.107951 4.64586e-20)
(-0.00912482 0.118534 -1.33205e-19)
(0.00943822 0.127118 -3.59796e-20)
(0.0335601 0.133656 -4.84359e-19)
(0.0634757 0.13818 1.53807e-19)
(0.0994717 0.140764 -2.39824e-20)
(0.141919 0.141481 -5.32258e-21)
(0.191298 0.140366 -2.09428e-20)
(0.248203 0.137391 -6.08715e-21)
(0.313357 0.132452 -1.98637e-20)
(0.38749 0.125306 2.66063e-19)
(0.471497 0.115826 -2.46134e-19)
(0.565329 0.102998 2.27361e-19)
(0.670345 0.0880663 -3.51987e-19)
(0.780793 0.06645 -1.75996e-19)
(0.905753 0.0456784 5.61396e-20)
(1.00836 0.0128199 -3.01715e-19)
(1.15569 -0.0160891 -1.03509e-19)
(-0.00416764 0.00591778 -2.46335e-19)
(-0.0136036 0.0193409 -3.17379e-20)
(-0.0228758 0.0334095 -3.13208e-19)
(-0.0302839 0.0476728 -2.51152e-19)
(-0.0346699 0.0616438 3.31178e-19)
(-0.0351461 0.0748741 2.25382e-19)
(-0.0310346 0.0869702 -9.8897e-20)
(-0.0218284 0.0976056 -8.622e-20)
(-0.00714225 0.106544 -6.33485e-20)
(0.0133367 0.113651 5.45574e-19)
(0.0398989 0.118891 2.09144e-19)
(0.0728616 0.1223 2.88101e-19)
(0.112612 0.12396 -1.68409e-20)
(0.159639 0.123957 5.5704e-20)
(0.214551 0.122351 1.51644e-19)
(0.278062 0.119141 -3.59788e-19)
(0.350945 0.114256 5.73762e-19)
(0.433867 0.107474 6.33893e-20)
(0.527353 0.0986716 -1.94555e-19)
(0.630794 0.0868751 -3.03179e-19)
(0.743988 0.0731619 -1.68014e-19)
(0.860848 0.0533319 3.99585e-19)
(0.985383 0.0345462 -1.24238e-20)
(1.08744 0.00370328 2.25061e-19)
(1.21787 -0.020279 2.76512e-19)
(-0.00467524 0.00618036 1.87244e-19)
(-0.0147626 0.019231 1.96336e-20)
(-0.0244521 0.0322098 -4.06642e-20)
(-0.0319629 0.0449374 4.52098e-20)
(-0.0361241 0.0571122 -3.13544e-19)
(-0.0360331 0.0684348 4.13101e-19)
(-0.0309844 0.0786292 -1.86343e-21)
(-0.0204286 0.0874559 3.30544e-19)
(-0.00392154 0.0947388 1.49897e-20)
(0.0189264 0.100383 -1.11703e-19)
(0.0485008 0.104376 1.71226e-19)
(0.0852313 0.106773 -5.66835e-19)
(0.129631 0.10767 -3.45019e-19)
(0.182315 0.107174 -1.70088e-19)
(0.243995 0.105364 -7.46518e-20)
(0.315416 0.102262 7.3492e-21)
(0.397238 0.0978078 -3.69575e-19)
(0.489784 0.0917803 1.42723e-19)
(0.59285 0.084009 5.63365e-19)
(0.704861 0.07359 1.59907e-19)
(0.823809 0.061278 4.03817e-19)
(0.943061 0.0435266 -4.14776e-19)
(1.06258 0.026527 -1.03083e-19)
(1.15901 -0.00189751 -1.70098e-19)
(1.26868 -0.0218108 -9.55882e-19)
(-0.00527241 0.00653428 -1.73923e-19)
(-0.0160496 0.0193133 8.85017e-20)
(-0.0260858 0.0312667 1.57793e-19)
(-0.0335516 0.0425011 5.44403e-19)
(-0.0372763 0.0529092 2.04103e-19)
(-0.0363465 0.0623462 -4.49909e-19)
(-0.0300258 0.07066 -1.12335e-19)
(-0.0177122 0.0777053 -6.00306e-20)
(0.00111476 0.0833758 -1.90319e-19)
(0.0269435 0.0876268 -6.28565e-20)
(0.0602779 0.0904815 -1.25167e-19)
(0.101678 0.0920227 4.50918e-19)
(0.151784 0.0923701 5.32633e-19)
(0.211309 0.0916493 2.66774e-19)
(0.280978 0.0899555 -1.35526e-19)
(0.361408 0.0873137 -9.56207e-20)
(0.452892 0.083648 2.12411e-19)
(0.555093 0.0787142 -5.05518e-20)
(0.666719 0.0722397 -5.0786e-21)
(0.784966 0.0634108 1.27495e-19)
(0.906075 0.052542 -1.84961e-19)
(1.02302 0.0369326 -3.33809e-19)
(1.13328 0.0213849 -2.31469e-19)
(1.21983 -0.00446334 2.95659e-19)
(1.30759 -0.0213362 9.69688e-19)
(-0.00595372 0.00696289 1.38346e-19)
(-0.0174378 0.0195607 4.69948e-19)
(-0.027713 0.0305636 1.87801e-19)
(-0.0349368 0.0403708 -1.66911e-19)
(-0.0379505 0.0490741 2.30602e-19)
(-0.0358327 0.0566883 2.52313e-19)
(-0.0278103 0.0631891 2.79689e-19)
(-0.0132168 0.0685315 -1.68721e-20)
(0.00856078 0.0726869 2.14425e-19)
(0.0381268 0.0756698 -6.534e-19)
(0.0761154 0.0775488 3.65382e-19)
(0.123213 0.0784411 -1.91531e-19)
(0.180153 0.0784921 -4.79776e-19)
(0.24766 0.0778429 -3.46286e-19)
(0.326327 0.0765896 5.65076e-19)
(0.416415 0.0747387 -1.94626e-19)
(0.517559 0.0721645 -9.71208e-20)
(0.628445 0.0685694 7.65528e-20)
(0.746476 0.0635303 -3.93748e-19)
(0.867584 0.0563366 3.3078e-19)
(0.986645 0.0468008 -5.48549e-20)
(1.09677 0.0331933 4.0955e-19)
(1.1945 0.0186687 4.88772e-19)
(1.26842 -0.00461405 -1.72294e-19)
(1.33536 -0.0195115 -3.57574e-19)
(-0.0067076 0.00744385 -7.17283e-20)
(-0.0188879 0.0199337 -2.67052e-19)
(-0.0292549 0.0300667 6.72639e-21)
(-0.0359903 0.0385318 -1.34156e-19)
(-0.0379574 0.0456216 -3.9227e-19)
(-0.0342272 0.0515128 -2.0097e-19)
(-0.0239835 0.0563114 1.10116e-19)
(-0.00648395 0.0600768 -3.38795e-19)
(0.0189887 0.0628641 2.71004e-20)
(0.0531614 0.0647538 1.62958e-19)
(0.096791 0.0658655 -4.6253e-19)
(0.150656 0.0663542 -1.50835e-19)
(0.215504 0.066388 3.83719e-19)
(0.291935 0.0661126 2.58161e-19)
(0.380204 0.0656046 -3.34447e-19)
(0.479953 0.0648224 3.6144e-19)
(0.589882 0.0635537 1.51755e-19)
(0.707489 0.061417 -3.9621e-20)
(0.82885 0.0578104 -3.31847e-20)
(0.948879 0.052127 -3.48852e-19)
(1.06175 0.0436923 3.92758e-20)
(1.1614 0.0318048 -7.08153e-20)
(1.24468 0.01784 -3.76632e-19)
(1.30491 -0.00296285 -2.76578e-19)
(1.35355 -0.0169198 -2.61543e-19)
(-0.0075164 0.00795036 -4.4868e-20)
(-0.0203493 0.0203825 -5.88973e-19)
(-0.0306207 0.0297267 -3.63768e-19)
(-0.0365737 0.0369489 -4.62734e-19)
(-0.0371014 0.0425411 4.07929e-19)
(-0.0312662 0.0468408 3.32846e-20)
(-0.0182031 0.0500851 2.90352e-19)
(0.00291389 0.0524403 -2.64013e-19)
(0.0329093 0.0540485 4.32506e-19)
(0.0726238 0.0550601 1.60314e-19)
(0.122903 0.055648 1.27875e-20)
(0.184546 0.0560025 -2.4617e-20)
(0.258193 0.056306 -8.58724e-20)
(0.344134 0.0566915 -7.47136e-20)
(0.442052 0.0571891 8.00446e-20)
(0.550717 0.0576757 1.14308e-19)
(0.667694 0.0578181 -7.28757e-19)
(0.789241 0.0571231 4.6764e-20)
(0.910336 0.0548141 -1.23696e-19)
(1.02536 0.0503762 -1.17578e-19)
(1.12857 0.04275 6.00537e-20)
(1.21535 0.0322244 -3.98229e-19)
(1.28362 0.0183903 1.88782e-19)
(1.3305 -1.62792e-05 2.3821e-19)
(1.36405 -0.0140527 -5.32583e-19)
(-0.00835702 0.00845278 1.04591e-19)
(-0.0217614 0.0208496 4.25784e-19)
(-0.0317104 0.0294815 3.7178e-20)
(-0.0365432 0.0355689 6.71224e-19)
(-0.0351883 0.0397975 -4.24396e-19)
(-0.0266984 0.0426624 4.13204e-19)
(-0.0101561 0.0445302 -3.67828e-19)
(0.0153487 0.0456745 1.4414e-19)
(0.0507387 0.0463255 -1.82629e-19)
(0.0969379 0.0467038 2.38731e-19)
(0.154819 0.0470335 3.91426e-19)
(0.225092 0.047533 2.00588e-19)
(0.308127 0.0483843 7.98211e-20)
(0.403695 0.0496844 8.65756e-20)
(0.510673 0.0513859 -6.55801e-20)
(0.626763 0.0532499 -5.22887e-20)
(0.74833 0.0547947 5.96364e-19)
(0.870544 0.0553983 1.99235e-19)
(0.987725 0.0541473 5.60193e-19)
(1.09433 0.0506022 1.43023e-20)
(1.18547 0.0434962 -3.65888e-19)
(1.25829 0.0339457 4.60469e-19)
(1.3121 0.0199312 5.88926e-19)
(1.34689 0.00389373 7.46243e-20)
(1.36869 -0.0113155 5.23209e-19)
(-0.00920188 0.00892048 -2.96564e-19)
(-0.0230558 0.0212737 1.64724e-19)
(-0.0324185 0.0292599 3.62104e-19)
(-0.0357544 0.0343238 -1.42465e-19)
(-0.0320325 0.0373346 -4.21057e-19)
(-0.0202948 0.0389396 -3.05269e-20)
(0.000427041 0.0396309 2.24005e-20)
(0.0311186 0.0397877 3.98225e-20)
(0.072775 0.0397267 -2.53572e-19)
(0.12635 0.0397359 -1.05689e-19)
(0.192651 0.0400839 -3.66233e-19)
(0.272158 0.0410052 -8.62344e-21)
(0.364782 0.042661 -1.00422e-19)
(0.469562 0.0450841 -3.10864e-20)
(0.584373 0.0481158 2.67456e-19)
(0.705759 0.0513692 -3.93019e-19)
(0.828985 0.0542 1.67149e-19)
(0.948478 0.0558578 -2.6614e-19)
(1.05847 0.0553574 -4.03618e-19)
(1.15412 0.0523249 7.32965e-20)
(1.23194 0.0454985 7.70785e-19)
(1.29084 0.0365373 -3.96187e-19)
(1.33155 0.0222545 1.29876e-20)
(1.35585 0.00860153 3.38825e-19)
(1.36895 -0.00907134 1.89282e-19)
(-0.0100203 0.00932377 1.39654e-19)
(-0.0241595 0.021593 -1.98672e-19)
(-0.032637 0.0289864 -4.20957e-19)
(-0.0340671 0.0331357 -2.23427e-19)
(-0.0274623 0.0350805 2.43389e-19)
(-0.0118557 0.0356117 8.28326e-20)
(0.0137642 0.0353419 4.7821e-19)
(0.0504377 0.0347512 1.92026e-19)
(0.0991892 0.0342392 1.19892e-19)
(0.160925 0.0341547 5.61249e-20)
(0.236265 0.0348005 3.8e-19)
(0.325296 0.0364094 1.70528e-19)
(0.427272 0.0390967 -1.39752e-19)
(0.540306 0.0427976 1.98876e-19)
(0.661159 0.0472087 -1.14373e-19)
(0.785256 0.0517707 1.45961e-19)
(0.907033 0.0556786 -1.42253e-19)
(1.02066 0.0580789 -3.13664e-19)
(1.12089 0.0579919 4.60824e-19)
(1.20407 0.0551198 -4.88236e-19)
(1.26836 0.0483885 1.36898e-19)
(1.31426 0.039666 -1.62605e-19)
(1.34368 0.0253312 -1.23653e-19)
(1.35907 0.0138709 -1.00937e-18)
(1.36581 -0.00769119 1.50998e-19)
(-0.0107799 0.00963574 2.85e-20)
(-0.0249968 0.021749 1.4237e-19)
(-0.0322587 0.0285857 4.7217e-19)
(-0.0313484 0.0319231 -1.11373e-19)
(-0.0213232 0.0329543 -4.83194e-20)
(-0.00121388 0.0326041 8.99498e-20)
(0.0300188 0.0315981 7.97007e-20)
(0.0734361 0.0305114 -3.08554e-19)
(0.130029 0.0298196 -1.421e-19)
(0.200557 0.0299233 -4.34859e-19)
(0.285309 0.031144 -3.25021e-19)
(0.383798 0.0336901 -2.29401e-19)
(0.494435 0.0375994 2.03587e-19)
(0.614268 0.0426741 -2.97077e-19)
(0.738931 0.0484351 -1.42781e-19)
(0.862924 0.0541395 -6.27286e-20)
(0.980261 0.0588452 -4.48309e-20)
(1.08541 0.0616448 9.38704e-19)
(1.17415 0.0616411 5.90401e-20)
(1.24433 0.0586416 -8.30106e-20)
(1.29571 0.051861 -4.75064e-19)
(1.3301 0.0431251 1.53733e-19)
(1.35023 0.02917 1.7844e-20)
(1.35842 0.0189771 5.67409e-19)
(1.35997 -0.00734347 5.52735e-20)
(-0.0114482 0.00983378 2.25421e-19)
(-0.0254921 0.02169 -2.17135e-19)
(-0.0311798 0.0279886 -3.29865e-19)
(-0.0274736 0.030607 3.30898e-19)
(-0.0134791 0.0308744 -7.31858e-20)
(0.0117657 0.0298382 -6.30189e-20)
(0.0493028 0.0283274 5.54387e-20)
(0.100166 0.0270047 -7.82743e-20)
(0.165233 0.0264124 1.9418e-19)
(0.244994 0.0269898 1.24486e-19)
(0.339249 0.0290568 3.21371e-19)
(0.446758 0.0327682 -8.2552e-21)
(0.564929 0.0380472 2.59615e-19)
(0.689688 0.0445263 -1.83897e-20)
(0.815654 0.051529 2.74525e-19)
(0.936731 0.0581372 7.98594e-20)
(1.04701 0.0633172 -5.1799e-19)
(1.14177 0.0661749 -2.5381e-19)
(1.21816 0.065962 -6.33831e-20)
(1.27561 0.0626262 1.69014e-19)
(1.31529 0.0556823 -7.84568e-20)
(1.33991 0.0468346 -2.85063e-19)
(1.3526 0.0335199 3.94985e-20)
(1.35548 0.0231066 -2.65553e-19)
(1.35426 0.0016748 -1.28644e-19)
(-0.0119938 0.00990065 1.38152e-19)
(-0.0255714 0.0213737 1.47796e-19)
(-0.0293016 0.0271363 2.70733e-19)
(-0.0223278 0.0291179 -1.97015e-19)
(-0.00381054 0.0287675 1.47351e-20)
(0.0271899 0.0272421 3.92101e-19)
(0.0716835 0.0254637 -1.11954e-19)
(0.130615 0.0241729 -3.707e-19)
(0.204648 0.0239671 -2.17492e-19)
(0.293868 0.0253058 2.89072e-19)
(0.397416 0.0284808 -5.96935e-19)
(0.513131 0.0335567 2.59942e-21)
(0.637322 0.0403011 -4.89848e-20)
(0.764826 0.0481437 3.72718e-19)
(0.889494 0.0562047 -2.01931e-19)
(1.00507 0.0634234 2.77372e-19)
(1.10621 0.0687391 2.80269e-19)
(1.18942 0.0713436 -4.95604e-19)
(1.2534 0.0706879 -2.08276e-19)
(1.299 0.0668801 -1.724e-19)
(1.32848 0.0597023 2.63862e-19)
(1.3451 0.0507678 4.15997e-19)
(1.35197 0.0379332 1.92246e-19)
(1.35119 0.0280765 -1.70994e-19)
(1.34772 0.00780729 -2.99638e-19)
(-0.0123881 0.00982511 -3.26931e-20)
(-0.025165 0.0207718 1.38741e-19)
(-0.0265287 0.0259841 -2.7542e-19)
(-0.0158046 0.0274016 -4.22338e-19)
(0.0077875 0.0265766 -6.2388e-19)
(0.0451422 0.0247614 1.06624e-19)
(0.0971921 0.0229594 -1.24103e-19)
(0.164715 0.0219777 1.80833e-19)
(0.248046 0.0224524 6.64564e-20)
(0.346713 0.0248395 1.29256e-19)
(0.459032 0.0293677 1.4023e-19)
(0.581788 0.0359676 -7.79514e-20)
(0.710159 0.0442095 -1.10617e-19)
(0.838054 0.0532989 -2.48172e-19)
(0.958913 0.0621691 7.55464e-20)
(1.06679 0.0696728 -2.9508e-19)
(1.15738 0.0747982 1.089e-19)
(1.22862 0.0768892 7.08772e-20)
(1.28071 0.0756245 -2.91909e-19)
(1.31572 0.0712726 -3.13052e-19)
(1.33662 0.0638432 -1.68184e-19)
(1.34686 0.054827 9.15463e-21)
(1.34936 0.0425156 5.08095e-20)
(1.34599 0.0328573 -1.64486e-19)
(1.34101 0.0142768 1.26474e-19)
(-0.0126042 0.00960237 2.13822e-21)
(-0.0242088 0.019868 -3.8125e-19)
(-0.0227719 0.0245039 4.86475e-19)
(-0.00780398 0.0254252 5.19894e-19)
(0.0214092 0.0242685 3.09776e-19)
(0.0656881 0.0223677 -1.06084e-20)
(0.125831 0.0207955 -1.11848e-19)
(0.202355 0.0204101 -1.52958e-19)
(0.295138 0.0218654 2.77816e-19)
(0.402989 0.0255813 -6.69441e-19)
(0.523245 0.03168 6.70515e-20)
(0.651553 0.0399097 6.12455e-19)
(0.782033 0.0496072 8.55905e-20)
(0.907939 0.0597518 -1.71558e-19)
(1.02273 0.0691321 3.09837e-19)
(1.12125 0.0765891 3.4243e-19)
(1.2005 0.081235 8.76753e-20)
(1.25995 0.0826151 6.29907e-19)
(1.30114 0.0806418 4.80343e-19)