/*--------------------------------*- C++ -*----------------------------------*\
  =========                 |
  \\      /  F ield         | OpenFOAM: The Open Source CFD Toolbox
   \\    /   O peration     | Website:  https://openfoam.org
    \\  /    A nd           | Version:  7
     \\/     M anipulation  |
\*---------------------------------------------------------------------------*/
FoamFile
{
    version     2.0;
    format      ascii;
    class       volVectorField;
    location    "5";
    object      U;
}
// * * * * * * * * * * * * * * * * * * * * * * * * * * * * * * * * * * * * * //

dimensions      [0 1 -1 0 0 0 0];

internalField   nonuniform List<vector> 
1987
(
(-0.00593762 -0.0182679 -2.62276e-22)
(0.0647137 -0.0178361 1.86891e-22)
(0.134101 -0.017157 1.04865e-22)
(0.201297 -0.0162856 -1.34543e-22)
(0.265555 -0.0152798 6.40769e-22)
(0.326341 -0.0141947 -8.94559e-22)
(0.383317 -0.0130784 2.44429e-22)
(0.436319 -0.0119697 1.98064e-22)
(0.485326 -0.0108982 4.92838e-22)
(0.530428 -0.00988446 2.99502e-22)
(0.571793 -0.00894105 -1.45706e-21)
(0.609643 -0.0080747 -2.32825e-22)
(0.644234 -0.00728742 7.6924e-22)
(0.675836 -0.00657776 -3.22494e-22)
(0.704718 -0.00594181 3.47814e-22)
(0.731141 -0.00537411 2.17629e-22)
(0.755347 -0.00486822 -8.42439e-23)
(0.777559 -0.00441727 -6.93682e-22)
(0.797973 -0.0040143 -1.61334e-23)
(0.816762 -0.00365249 5.08362e-22)
(0.83407 -0.00332539 2.85451e-22)
(0.85002 -0.0030271 1.00252e-22)
(0.864709 -0.00275248 -3.24152e-22)
(0.878214 -0.00249731 1.0298e-22)
(0.890597 -0.00225843 1.16307e-22)
(0.901909 -0.00203378 -3.24803e-22)
(0.912195 -0.00182228 -1.50578e-22)
(0.921497 -0.00162373 3.42528e-22)
(0.929863 -0.00143845 -7.84578e-23)
(0.937342 -0.00126708 -2.40713e-22)
(0.943993 -0.00111033 1.17467e-22)
(0.949879 -0.000968804 -4.22627e-23)
(0.955068 -0.000842826 1.06994e-22)
(0.959635 -0.000732341 -4.06132e-23)
(0.963652 -0.000636825 7.08117e-23)
(0.967192 -0.000555271 -6.66757e-23)
(0.970323 -0.000486249 1.37883e-23)
(0.973106 -0.000428045 -7.11215e-24)
(0.975594 -0.000378844 3.91351e-23)
(0.977828 -0.000336915 -1.44833e-23)
(0.979844 -0.000300757 2.12487e-23)
(0.981668 -0.00026917 1.06549e-23)
(0.983322 -0.000241266 -3.35236e-23)
(0.984823 -0.000216421 3.37505e-23)
(0.986185 -0.000194214 -8.52752e-24)
(0.987422 -0.000174343 2.13556e-25)
(0.988546 -0.000156582 -9.04462e-24)
(0.989567 -0.000140748 2.53092e-24)
(0.990496 -0.000126601 -1.17597e-23)
(0.991341 -0.000114086 -4.76434e-24)
(0.992109 -0.000102619 1.36089e-23)
(0.992808 -9.23476e-05 1.01182e-23)
(0.993448 -8.32354e-05 -6.09308e-24)
(0.994033 -7.51061e-05 2.99013e-24)
(0.994567 -6.78124e-05 -7.39889e-24)
(0.995056 -6.12541e-05 1.10715e-23)
(-0.2541 -0.0497348 -4.89293e-21)
(-0.191349 -0.0525038 1.58722e-21)
(-0.125014 -0.0542375 9.72597e-22)
(-0.0563118 -0.0549232 -3.39531e-22)
(0.0134363 -0.0545134 -8.01131e-22)
(0.0829586 -0.0532195 7.06792e-23)
(0.151165 -0.0511839 -9.19396e-23)
(0.217156 -0.048573 2.40747e-23)
(0.280206 -0.0455628 -7.16025e-22)
(0.3398 -0.0423183 8.8523e-24)
(0.395616 -0.0389824 3.09788e-22)
(0.447506 -0.0356713 1.85164e-21)
(0.495458 -0.032473 -1.63026e-21)
(0.539568 -0.0294484 -1.16613e-21)
(0.58001 -0.0266348 1.7412e-21)
(0.617005 -0.024052 -9.20021e-22)
(0.65081 -0.0217056 7.23333e-22)
(0.68169 -0.0195911 -1.6146e-21)
(0.709913 -0.0176968 1.31667e-21)
(0.735734 -0.016006 -4.69427e-22)
(0.759392 -0.0144997 -1.15168e-22)
(0.781104 -0.0131572 1.46043e-22)
(0.801065 -0.0119577 -6.5133e-22)
(0.819441 -0.010881 -1.53915e-23)
(0.836376 -0.00990774 8.81138e-22)
(0.851989 -0.0090204 -7.30189e-22)
(0.866375 -0.00820363 8.28384e-23)
(0.879609 -0.00744482 3.52098e-22)
(0.891753 -0.0067345 5.16742e-23)
(0.902856 -0.00606646 -4.99189e-22)
(0.912961 -0.00543752 6.1524e-22)
(0.922109 -0.00484693 -3.3768e-22)
(0.930346 -0.00429564 6.40263e-23)
(0.937719 -0.00378555 -9.65704e-23)
(0.944284 -0.00331876 3.09992e-22)
(0.950101 -0.00289706 -5.01045e-22)
(0.955237 -0.00252146 1.01503e-22)
(0.959763 -0.00219184 9.32274e-23)
(0.963748 -0.00190671 -7.60439e-23)
(0.967265 -0.00166309 2.16557e-23)
(0.970379 -0.00145679 -2.93072e-23)
(0.973149 -0.00128273 -1.24179e-23)
(0.975627 -0.00113552 1.50431e-22)
(0.977854 -0.00101001 9.97539e-23)
(0.979864 -0.000901735 -1.95418e-24)
(0.981684 -0.000807119 -1.80102e-22)
(0.983334 -0.000723514 1.40659e-22)
(0.984832 -0.000649059 -1.69836e-22)
(0.986193 -0.000582495 3.92602e-23)
(0.987428 -0.000522928 2.72303e-24)
(0.988551 -0.000469673 3.56863e-23)
(0.989571 -0.000422194 -4.36954e-23)
(0.990499 -0.000379772 4.76801e-23)
(0.991344 -0.000342232 -4.0532e-23)
(0.992111 -0.000307919 2.50111e-23)
(0.99281 -0.000277055 5.51314e-25)
(0.993449 -0.000249713 -1.33803e-23)
(0.994034 -0.000225327 1.79433e-23)
(0.994568 -0.000203446 -8.6961e-25)
(0.995057 -0.00018377 -5.10953e-24)
(-0.210133 -0.0821279 -3.2749e-21)
(-0.148921 -0.0866812 -3.22787e-21)
(-0.0843317 -0.0895628 2.48511e-21)
(-0.017506 -0.090668 -2.47018e-21)
(0.0502209 -0.0899241 1.28114e-21)
(0.117566 -0.0877682 8.51304e-22)
(0.183523 -0.0843799 -8.65631e-22)
(0.247224 -0.0800423 9.5703e-22)
(0.307983 -0.07505 -1.49506e-21)
(0.36532 -0.069677 3.77466e-21)
(0.418945 -0.0641598 -9.27487e-23)
(0.468733 -0.0586895 -4.80257e-21)
(0.514694 -0.0534106 1.29123e-21)
(0.556934 -0.0484228 -2.49474e-21)
(0.595633 -0.0437868 3.04032e-22)
(0.631016 -0.0395339 8.90677e-22)
(0.663335 -0.0356727 3.99524e-21)
(0.692853 -0.0321949 -2.89641e-21)
(0.719829 -0.0290806 5.95825e-22)
(0.744511 -0.0263023 2.1928e-22)
(0.76713 -0.0238279 8.57237e-23)
(0.787896 -0.0216236 2.39964e-22)
(0.806994 -0.0196548 -1.98819e-21)
(0.824587 -0.0178881 2.93505e-21)
(0.840811 -0.0162918 -9.59602e-22)
(0.85578 -0.0148371 -5.12898e-22)
(0.869587 -0.0134985 -6.26106e-22)
(0.882304 -0.0122554 3.80165e-22)
(0.89399 -0.0110918 -4.36673e-22)
(0.90469 -0.00999761 1.84311e-21)
(0.914447 -0.00896723 -1.5205e-21)
(0.923298 -0.00799931 4.62906e-22)
(0.931286 -0.00709529 -3.52652e-22)
(0.938453 -0.00625817 2.41626e-22)
(0.944852 -0.00549138 7.1299e-22)
(0.950536 -0.00479791 2.23512e-22)
(0.955569 -0.00417953 -3.61718e-22)
(0.960014 -0.00363617 -1.4682e-22)
(0.963939 -0.00316553 2.0295e-22)
(0.96741 -0.00276294 -2.11519e-22)
(0.97049 -0.0024216 -1.54555e-22)
(0.973234 -0.00213329 8.54832e-23)
(0.975693 -0.00188921 3.95999e-22)
(0.977905 -0.00168095 -2.10657e-22)
(0.979904 -0.00150115 2.06088e-22)
(0.981715 -0.00134393 -2.51441e-22)
(0.983359 -0.00120494 9.0523e-23)
(0.984852 -0.00108111 1.2688e-22)
(0.986208 -0.000970366 -2.68904e-22)
(0.98744 -0.000871229 -3.13739e-23)
(0.98856 -0.000782572 -3.35555e-23)
(0.989579 -0.000703509 1.75695e-22)
(0.990505 -0.000632871 -9.81494e-23)
(0.991349 -0.000570321 1.41936e-23)
(0.992115 -0.000513489 1.0927e-22)
(0.992813 -0.000461813 -9.78727e-23)
(0.993452 -0.000416229 -6.5759e-23)
(0.994036 -0.00037559 9.58786e-23)
(0.99457 -0.00033912 2.96191e-23)
(0.995059 -0.000306325 3.04605e-23)
(-0.0900368 -0.119713 -8.14438e-22)
(-0.0279574 -0.123763 -1.17068e-21)
(0.036209 -0.125019 -5.63756e-21)
(0.101074 -0.124022 3.24011e-22)
(0.16535 -0.121011 2.40142e-22)
(0.228163 -0.116281 -4.52002e-21)
(0.28868 -0.110243 7.04975e-21)
(0.346266 -0.103308 1.28304e-22)
(0.400487 -0.0958584 -1.55349e-21)
(0.451096 -0.088221 -1.16016e-21)
(0.497999 -0.0806596 7.17081e-22)
(0.541227 -0.0733719 1.85841e-21)
(0.580906 -0.0664943 1.08639e-21)
(0.617221 -0.0601087 -5.17671e-21)
(0.650398 -0.0542564 4.36895e-21)
(0.680685 -0.0489476 -5.54523e-21)
(0.708337 -0.0441695 2.86858e-21)
(0.733605 -0.0398937 1.71887e-21)
(0.756725 -0.0360815 -7.12815e-22)
(0.777918 -0.0326883 -5.59708e-21)
(0.797382 -0.029667 2.91069e-21)
(0.815293 -0.02697 -1.93183e-22)
(0.831804 -0.0245514 2.67844e-21)
(0.847044 -0.0223673 -7.33671e-22)
(0.861122 -0.0203782 4.44974e-22)
(0.874124 -0.0185491 7.57038e-22)
(0.886119 -0.0168511 -1.298e-21)
(0.897163 -0.0152626 -3.58962e-22)
(0.9073 -0.0137687 2.78471e-22)
(0.916567 -0.0123618 -3.56345e-22)
(0.924999 -0.0110395 -8.48708e-22)
(0.932634 -0.00980355 1.08645e-21)
(0.93951 -0.0086578 -1.03518e-21)
(0.945671 -0.0076069 1.41149e-21)
(0.951166 -0.00665498 -7.43631e-22)
(0.95605 -0.00580464 2.93258e-24)
(0.96038 -0.00505611 -8.25646e-23)
(0.964218 -0.00440656 1.55045e-22)
(0.967623 -0.00384991 3.8739e-22)
(0.970652 -0.00337714 -8.32068e-22)
(0.97336 -0.00297717 5.07955e-22)
(0.97579 -0.00263808 -1.29076e-22)
(0.977981 -0.00234838 1.8803e-22)
(0.979963 -0.00209801 1.84636e-22)
(0.981762 -0.00187889 -3.19565e-22)
(0.983395 -0.00168503 2.42577e-22)
(0.984881 -0.00151221 -7.66635e-23)
(0.986231 -0.00135756 -1.82705e-22)
(0.987458 -0.00121906 1.59873e-22)
(0.988575 -0.00109515 -2.31427e-22)
(0.98959 -0.000984606 2.19433e-23)
(0.990514 -0.000885847 8.2287e-23)
(0.991356 -0.000798303 -3.18347e-24)
(0.992122 -0.00072017 1.30988e-22)
(0.992819 -0.000646656 -6.22704e-23)
(0.993457 -0.000582809 -3.45896e-23)
(0.99404 -0.000525924 6.10664e-23)
(0.994574 -0.000474862 -8.26086e-23)
(0.995062 -0.000428943 8.56219e-23)
(-0.0189038 -0.151317 5.43795e-21)
(0.0401167 -0.156119 6.03733e-21)
(0.10096 -0.157641 -1.44553e-21)
(0.162139 -0.156426 -1.85698e-21)
(0.222655 -0.152565 -7.77599e-22)
(0.281615 -0.146522 -1.70583e-21)
(0.338249 -0.138827 8.10663e-22)
(0.391987 -0.13001 -4.28611e-22)
(0.442451 -0.120557 -1.30431e-22)
(0.489438 -0.110883 -6.05393e-21)
(0.532892 -0.10132 1.44253e-20)
(0.572867 -0.0921161 -1.12279e-20)
(0.609504 -0.0834421 -1.38403e-21)
(0.642993 -0.0753987 9.42922e-21)
(0.67356 -0.0680351 -5.21278e-21)
(0.701447 -0.0613619 -4.98181e-21)
(0.726896 -0.0553612 4.26156e-21)
(0.750146 -0.0499956 -3.97336e-22)
(0.771421 -0.0452152 9.22437e-22)
(0.790927 -0.0409633 4.6401e-21)
(0.808848 -0.0371801 1.32139e-21)
(0.82535 -0.0338054 -3.9369e-21)
(0.840574 -0.0307811 -1.45493e-21)
(0.854641 -0.0280525 -2.3137e-21)
(0.867651 -0.0255696 3.25857e-21)
(0.879686 -0.0232884 4.95242e-22)
(0.890813 -0.0211724 1.13193e-21)
(0.901081 -0.0191938 8.836e-22)
(0.910533 -0.0173337 -3.33522e-21)
(0.919203 -0.0155817 2.72568e-21)
(0.927122 -0.0139342 -1.87109e-21)
(0.934323 -0.0123928 -2.59994e-22)
(0.940839 -0.0109621 -1.87336e-22)
(0.946706 -0.00964754 1.34668e-21)
(0.951965 -0.00845443 -5.56623e-22)
(0.956663 -0.00738627 -3.76315e-22)
(0.960849 -0.00644378 -4.18963e-22)
(0.964576 -0.00562395 1.46847e-21)
(0.967897 -0.00491972 -9.94615e-22)
(0.970864 -0.00432027 8.28334e-22)
(0.973523 -0.00381207 -7.87223e-22)
(0.975917 -0.00338043 9.4789e-22)
(0.97808 -0.00301105 -1.04094e-21)
(0.980042 -0.00269139 4.72964e-22)
(0.981824 -0.0024113 -3.3131e-22)
(0.983444 -0.00216327 3.89384e-22)
(0.984919 -0.00194198 1.02235e-22)
(0.986261 -0.00174382 1.85053e-22)
(0.987483 -0.00156625 -6.68086e-22)
(0.988594 -0.0014073 2.08585e-22)
(0.989606 -0.0012654 1.16088e-22)
(0.990526 -0.00113865 -9.3012e-23)
(0.991366 -0.00102606 7.76511e-23)
(0.99213 -0.0009267 -7.17453e-23)
(0.992827 -0.000831592 4.22355e-23)
(0.993463 -0.000749483 7.59289e-25)
(0.994045 -0.000676356 -1.84749e-24)
(0.994578 -0.000610698 2.71787e-23)
(0.995066 -0.000551649 -1.54716e-23)
(0.0607673 -0.180765 4.09108e-21)
(0.116179 -0.186326 -9.42402e-21)
(0.172957 -0.188334 6.36951e-21)
(0.229927 -0.186825 -1.5073e-21)
(0.286105 -0.182129 -1.10471e-22)
(0.340641 -0.174819 -1.49537e-21)
(0.39285 -0.165537 5.85437e-21)
(0.442233 -0.154923 -9.99897e-21)
(0.488475 -0.143564 3.50844e-21)
(0.531422 -0.131959 8.06795e-21)
(0.571051 -0.120505 -6.83355e-21)
(0.60744 -0.109497 4.32558e-21)
(0.64074 -0.0991365 -1.60964e-21)
(0.671146 -0.089541 3.0785e-21)
(0.698875 -0.0807664 -3.80399e-21)
(0.724158 -0.0728225 -4.88646e-21)
(0.747224 -0.0656855 2.33622e-21)
(0.768296 -0.0593092 -1.98932e-21)
(0.787578 -0.0536329 1.50281e-21)
(0.805263 -0.0485879 5.01633e-23)
(0.821518 -0.0441024 -1.81569e-21)
(0.836496 -0.0401046 2.80898e-21)
(0.850324 -0.0365251 -3.4005e-21)
(0.863116 -0.0332987 3.38459e-21)
(0.874962 -0.030366 -6.27711e-22)
(0.88594 -0.0276746 -6.98947e-22)
(0.89611 -0.0251808 2.17782e-21)
(0.905522 -0.0228509 -8.05637e-22)
(0.914214 -0.0206616 2.26367e-22)
(0.922218 -0.0185996 1.24762e-22)
(0.929563 -0.0166599 1.0748e-21)
(0.936275 -0.0148433 -1.60513e-21)
(0.942382 -0.0131546 -5.70985e-22)
(0.947914 -0.0116 -4.71559e-22)
(0.952904 -0.0101857 1.31402e-21)
(0.957388 -0.00891622 -1.27233e-21)
(0.961407 -0.00779292 3.33056e-22)
(0.965005 -0.00681299 1.10768e-21)
(0.968228 -0.00596885 -6.16425e-22)
(0.971119 -0.00524836 -6.44991e-22)
(0.973722 -0.00463603 2.59134e-22)
(0.976073 -0.00411478 1.41521e-22)
(0.978203 -0.00366787 7.20279e-22)
(0.980138 -0.00328046 -2.51872e-22)
(0.9819 -0.00294056 -3.08341e-22)
(0.983505 -0.00263921 1.81958e-22)
(0.984967 -0.00237009 -1.512e-22)
(0.9863 -0.0021289 1.64184e-22)
(0.987513 -0.00191262 1.68913e-24)
(0.988618 -0.00171888 -3.75802e-23)
(0.989625 -0.0015458 -1.08949e-23)
(0.990542 -0.0013912 -2.96358e-23)
(0.991378 -0.00125352 -1.61444e-23)
(0.992141 -0.0011315 -1.13511e-22)
(0.992836 -0.00101658 2.89384e-22)
(0.99347 -0.000916291 -1.82685e-22)
(0.994052 -0.00082691 1.68877e-22)
(0.994584 -0.000746653 -9.33827e-23)
(0.99507 -0.000674466 2.53547e-23)
(0.145709 -0.207773 -2.04806e-21)
(0.196978 -0.214411 3.83663e-21)
(0.249302 -0.216745 6.86778e-21)
(0.301602 -0.214941 -3.0968e-21)
(0.352958 -0.209457 -2.728e-21)
(0.40261 -0.200954 3.56584e-22)
(0.449964 -0.190179 2.22425e-22)
(0.494606 -0.177881 -4.90309e-21)
(0.536288 -0.164741 -6.28564e-22)
(0.574906 -0.151336 -4.31911e-22)
(0.610472 -0.138125 1.16867e-20)
(0.643081 -0.125443 -9.62919e-22)
(0.672891 -0.11352 -2.72186e-21)
(0.700092 -0.10249 -4.12781e-21)
(0.724891 -0.0924142 -5.67027e-21)
(0.747502 -0.0833 3.03049e-21)
(0.768133 -0.0751182 2.12224e-21)
(0.786985 -0.0678138 -3.22709e-21)
(0.804245 -0.0613159 7.63907e-21)
(0.820083 -0.0555449 -2.86706e-21)
(0.834651 -0.0504176 1.58744e-21)
(0.848084 -0.0458515 -3.1613e-21)
(0.860497 -0.041767 2.74578e-21)
(0.871991 -0.0380895 2.2056e-22)
(0.882651 -0.034751 6.4934e-22)
(0.892546 -0.0316913 3.09946e-22)
(0.901733 -0.02886 -1.03759e-21)
(0.91026 -0.0262178 9.66975e-22)
(0.918162 -0.0237371 -2.03549e-21)
(0.92547 -0.0214013 -1.71467e-21)
(0.93221 -0.0192034 1.01821e-21)
(0.938405 -0.0171433 6.97762e-22)
(0.944077 -0.0152252 -9.14915e-22)
(0.94925 -0.0134558 1.76966e-23)
(0.953948 -0.0118419 1.30752e-21)
(0.9582 -0.0103889 -2.07323e-22)
(0.962036 -0.00909912 -8.49003e-22)
(0.965492 -0.00797026 7.93223e-22)
(0.968606 -0.00699467 -3.05514e-22)
(0.971414 -0.00615941 2.45648e-22)
(0.973953 -0.00544751 -1.29997e-21)
(0.976254 -0.00483996 6.99274e-22)
(0.978347 -0.0043179 -5.41101e-22)
(0.980252 -0.00386451 -1.12794e-22)
(0.981991 -0.0034661 2.92469e-22)
(0.983577 -0.00311242 -5.06065e-22)
(0.985025 -0.00279623 6.85495e-22)
(0.986346 -0.00251258 -6.78347e-22)
(0.98755 -0.002258 4.70781e-22)
(0.988648 -0.00202979 8.23631e-23)
(0.989649 -0.00182574 -1.01217e-22)
(0.990561 -0.00164346 1.29908e-22)
(0.991394 -0.00148073 -1.46805e-22)
(0.992155 -0.00133592 -1.47462e-22)
(0.992848 -0.00120174 1.57007e-23)
(0.99348 -0.00108328 -9.82486e-24)
(0.994059 -0.000977611 3.2468e-22)
(0.99459 -0.000882751 -1.86849e-22)
(0.995076 -0.000797418 -2.91148e-23)
(0.233345 -0.232491 1.77307e-20)
(0.280222 -0.240017 -4.58703e-20)
(0.327764 -0.242627 1.83973e-20)
(0.375014 -0.240561 -6.30065e-22)
(0.421161 -0.234351 -2.80093e-21)
(0.465555 -0.22475 3.80003e-22)
(0.507713 -0.212606 3.95436e-21)
(0.547315 -0.198765 -3.70886e-21)
(0.584188 -0.183997 -1.0092e-21)
(0.618281 -0.16895 1.49424e-20)
(0.649638 -0.154136 -1.80556e-20)
(0.678367 -0.13993 -3.58648e-21)
(0.704625 -0.126585 6.80935e-21)
(0.728595 -0.11425 -5.52769e-21)
(0.750465 -0.10299 7.45573e-21)
(0.770425 -0.0928116 -1.97009e-21)
(0.788659 -0.0836796 3.54323e-21)
(0.80534 -0.0755312 3.01322e-21)
(0.820631 -0.0682863 -1.36488e-20)
(0.834678 -0.0618552 4.66852e-21)
(0.847615 -0.0561449 -4.31332e-22)
(0.859555 -0.0510631 2.75705e-21)
(0.870603 -0.0465213 8.94566e-21)
(0.880844 -0.0424366 -1.34154e-20)
(0.890354 -0.0387332 4.82905e-21)
(0.899197 -0.0353443 3.0042e-22)
(0.907425 -0.0322134 4.16025e-21)
(0.915083 -0.0292958 -3.31015e-21)
(0.922205 -0.0265596 1.18001e-21)
(0.928822 -0.0239848 -1.93285e-21)
(0.934957 -0.021562 2.24984e-22)
(0.940631 -0.0192893 -3.36667e-22)
(0.945862 -0.0171703 2.59414e-21)
(0.950668 -0.0152114 -2.04216e-21)
(0.955066 -0.0134197 9.44053e-22)
(0.959076 -0.0118014 1.53501e-22)
(0.962721 -0.0103599 3.9375e-22)
(0.966027 -0.00909368 -1.56775e-21)
(0.969024 -0.00799546 1.08148e-21)
(0.971743 -0.00705201 -1.02075e-21)
(0.974212 -0.00624537 1.30809e-22)
(0.97646 -0.00555503 6.66819e-22)
(0.97851 -0.00496041 -2.2497e-22)
(0.980383 -0.00444295 9.99432e-23)
(0.982095 -0.00398747 4.20776e-22)
(0.983661 -0.00358255 -5.87614e-22)
(0.985092 -0.00322011 -5.27759e-23)
(0.986399 -0.00289463 2.36515e-22)
(0.987593 -0.00260224 -5.53829e-23)
(0.988682 -0.00233992 2.83486e-22)
(0.989676 -0.00210515 1.94824e-24)
(0.990584 -0.00189534 -4.12393e-23)
(0.991412 -0.00170776 -6.54899e-23)
(0.992171 -0.00154074 -1.58493e-22)
(0.992861 -0.00138727 9.3716e-23)
(0.993491 -0.00125052 2.95002e-23)
(0.994069 -0.00112849 -1.90558e-24)
(0.994598 -0.00101902 6.7275e-23)
(0.995083 -0.000920524 -4.3844e-23)
(0.321853 -0.254658 1.18718e-20)
(0.364151 -0.262955 -3.27192e-22)
(0.406664 -0.265816 -7.34865e-22)
(0.448575 -0.263516 -2.23419e-21)
(0.489209 -0.256656 4.60542e-22)
(0.528055 -0.246073 1.3179e-21)
(0.564756 -0.232707 -4.45633e-21)
(0.599097 -0.217492 7.20801e-21)
(0.630988 -0.201274 2.43389e-21)
(0.66043 -0.184766 -9.10522e-22)
(0.687499 -0.168526 -2.81605e-21)
(0.712313 -0.152964 -8.0837e-21)
(0.735023 -0.138351 2.59261e-21)
(0.755795 -0.124852 3.90966e-21)
(0.774796 -0.112534 -1.22668e-20)
(0.792184 -0.101403 4.85661e-21)
(0.808112 -0.0914183 8.57696e-21)
(0.822724 -0.0825108 -1.02358e-20)
(0.836152 -0.0745924 -7.78022e-22)
(0.848517 -0.0675654 6.32053e-21)
(0.859927 -0.061328 -3.23641e-21)
(0.870479 -0.0557799 1.04058e-20)
(0.880257 -0.0508247 -1.02084e-20)
(0.889335 -0.0463724 5.30231e-21)
(0.897777 -0.042341 4.47396e-21)
(0.905639 -0.0386577 -4.5018e-21)
(0.912971 -0.0352606 3.13455e-21)
(0.919812 -0.0321005 -5.85861e-22)
(0.926197 -0.029141 -5.99834e-21)
(0.932155 -0.0263588 3.34512e-21)
(0.93771 -0.0237415 -6.12182e-22)
(0.942881 -0.0212853 2.90619e-21)
(0.947682 -0.0189921 -2.99741e-21)
(0.952126 -0.0168677 -2.16892e-21)
(0.956226 -0.0149191 3.28021e-21)
(0.959994 -0.0131533 -1.3936e-21)
(0.963445 -0.0115746 -5.59517e-22)
(0.966598 -0.0101825 3.13839e-21)
(0.969476 -0.00897045 -1.84463e-21)
(0.972101 -0.00792542 -9.65077e-22)
(0.974497 -0.00702893 6.12859e-22)
(0.976688 -0.00625941 5.12871e-22)
(0.978693 -0.00559487 -7.59091e-22)
(0.98053 -0.00501532 2.14501e-23)
(0.982213 -0.00450428 4.59938e-22)
(0.983756 -0.00404928 -3.54963e-22)
(0.985168 -0.00364149 5.96625e-23)
(0.986461 -0.00327488 -1.3258e-22)
(0.987642 -0.0029452 1.88776e-22)
(0.988722 -0.00264915 2.1872e-22)
(0.989709 -0.00238394 -4.05616e-22)
(0.99061 -0.00214681 2.74024e-23)
(0.991434 -0.00193461 2.13811e-22)
(0.992189 -0.00174563 6.1564e-23)
(0.992877 -0.00157333 -1.46098e-22)
(0.993505 -0.001418 -7.39182e-23)
(0.99408 -0.00127957 4.43883e-23)
(0.994608 -0.00115547 8.61159e-23)
(0.995092 -0.0010438 -1.0069e-22)
(0.409811 -0.274167 -3.06556e-20)
(0.447407 -0.283124 3.57539e-20)
(0.484715 -0.286194 -3.2115e-20)
(0.521076 -0.283684 7.12359e-21)
(0.55598 -0.276257 7.37997e-21)
(0.589071 -0.264825 -5.15299e-21)
(0.620136 -0.250405 3.54384e-21)
(0.649077 -0.234007 3.46211e-21)
(0.675886 -0.216542 -1.14864e-20)
(0.700622 -0.198776 -2.22342e-21)
(0.723385 -0.181307 3.18353e-23)
(0.744303 -0.164572 -5.63034e-21)
(0.763515 -0.148861 2.05147e-20)
(0.781165 -0.134346 -1.28652e-20)
(0.797391 -0.121103 -3.33419e-21)
(0.812319 -0.109135 1.15709e-20)
(0.826065 -0.0983973 -6.64281e-21)
(0.838738 -0.0888161 1.6102e-21)
(0.850437 -0.0802974 2.41589e-21)
(0.861254 -0.0727364 -2.59198e-21)
(0.871272 -0.0660251 4.22632e-21)
(0.880563 -0.0600562 -3.109e-21)
(0.889194 -0.0547273 -5.27765e-21)
(0.897224 -0.0499427 7.26542e-21)
(0.904706 -0.0456152 8.44594e-22)
(0.911685 -0.0416673 -4.2383e-21)
(0.918207 -0.0380327 -2.51079e-21)
(0.924307 -0.0346578 3.55036e-21)
(0.93002 -0.0315026 3.03452e-22)
(0.935374 -0.0285401 -4.41529e-21)
(0.940391 -0.025755 4.85631e-21)
(0.945091 -0.0231408 -4.25931e-21)
(0.949487 -0.0206974 5.66783e-21)
(0.953587 -0.0184293 -4.09e-21)
(0.9574 -0.0163433 2.53384e-21)
(0.960933 -0.0144465 -1.8006e-21)
(0.964194 -0.0127442 1.46085e-22)
(0.967196 -0.0112371 -3.58034e-22)
(0.969952 -0.00991969 2.64575e-21)
(0.972482 -0.00877949 -8.18168e-22)
(0.974804 -0.00779792 -8.00287e-22)
(0.976935 -0.00695276 8.52599e-23)
(0.978893 -0.00622095 -3.50496e-22)
(0.980692 -0.00558132 1.24419e-21)
(0.982345 -0.00501624 2.11331e-22)
(0.983862 -0.00451236 -1.90299e-22)
(0.985255 -0.00406017 -6.69315e-22)
(0.986531 -0.00365315 6.82408e-22)
(0.987699 -0.00328674 -4.91813e-22)
(0.988768 -0.0029574 -4.62528e-22)
(0.989746 -0.00266206 1.12605e-21)
(0.990641 -0.0023978 -5.47937e-22)
(0.991459 -0.00216125 7.93995e-23)
(0.99221 -0.00195025 1.4331e-22)
(0.992896 -0.00176512 -1.08266e-22)
(0.99352 -0.00158615 -8.58493e-23)
(0.994094 -0.00143089 -5.40772e-24)
(0.99462 -0.00129213 1.33528e-22)
(0.995102 -0.00116727 -1.10117e-22)
(0.496109 -0.290978 6.98091e-20)
(0.528918 -0.300457 -2.20706e-20)
(0.560898 -0.303683 -5.41433e-21)
(0.591568 -0.300987 -7.96806e-22)
(0.620603 -0.293085 1.00482e-20)
(0.647822 -0.280949 -6.87277e-21)
(0.673163 -0.265662 -2.06254e-21)
(0.696648 -0.248292 3.18086e-21)
(0.718356 -0.229801 3.16857e-21)
(0.738399 -0.210997 5.15348e-21)
(0.756901 -0.192509 -2.43446e-21)
(0.773994 -0.174797 -6.4681e-22)
(0.7898 -0.158165 3.46646e-21)
(0.804436 -0.142793 -1.97558e-21)
(0.81801 -0.128762 -5.14888e-21)
(0.830609 -0.116075 -9.91051e-21)
(0.842311 -0.104686 1.14894e-20)
(0.853188 -0.0945165 -1.22378e-20)
(0.863303 -0.085469 1.00306e-20)
(0.872716 -0.0774343 4.91201e-21)
(0.881481 -0.0702993 -4.13117e-21)
(0.889649 -0.063952 3.11643e-21)
(0.897266 -0.0582853 -2.45809e-21)
(0.904373 -0.0531995 -1.27806e-21)
(0.911011 -0.0486032 8.32152e-22)
(0.917217 -0.0444156 -2.26577e-21)
(0.923027 -0.0405668 5.35956e-21)
(0.928475 -0.0369999 -2.63134e-21)
(0.933593 -0.0336715 3.45167e-21)
(0.938408 -0.0305511 -3.30136e-21)
(0.942943 -0.0276203 -1.18398e-21)
(0.947216 -0.0248696 -3.2216e-21)
(0.95124 -0.0222966 3.60236e-21)
(0.955023 -0.019904 -2.76476e-21)
(0.958568 -0.0176975 4.58871e-23)
(0.961877 -0.0156845 1.02647e-21)
(0.964956 -0.013871 1.25711e-21)
(0.96781 -0.0122589 -2.75961e-22)
(0.970448 -0.010844 5.44797e-22)
(0.972883 -0.00961459 8.69291e-22)
(0.975129 -0.00855246 -1.11687e-21)
(0.977199 -0.00763503 7.17414e-22)
(0.979108 -0.00683851 -1.0397e-21)
(0.980868 -0.00614074 3.57082e-22)
(0.982488 -0.00552317 5.08009e-22)
(0.98398 -0.00497161 -1.27762e-21)
(0.98535 -0.00447597 7.6723e-22)
(0.986609 -0.0040293 -7.19316e-24)
(0.987763 -0.00362676 -6.86803e-22)
(0.98882 -0.00326458 7.06675e-22)
(0.989789 -0.00293944 -3.02895e-22)
(0.990676 -0.00264826 -1.08898e-22)
(0.991488 -0.00238761 2.05256e-22)
(0.992233 -0.00215458 4.13753e-22)
(0.992917 -0.00195212 -1.87326e-22)
(0.99354 -0.00175438 -5.24454e-22)
(0.994109 -0.00158255 3.90546e-22)
(0.994633 -0.00142903 -2.96079e-22)
(0.995113 -0.00129095 8.30145e-23)
(0.579866 -0.305068 2.36708e-20)
(0.607811 -0.314922 -4.61867e-20)
(0.634379 -0.318242 2.20332e-20)
(0.65928 -0.315386 4.09981e-21)
(0.682387 -0.307111 -1.40525e-21)
(0.703705 -0.294433 6.14798e-22)
(0.723326 -0.278481 -1.10261e-22)
(0.741392 -0.260364 2.71716e-21)
(0.758062 -0.241082 2.13456e-21)
(0.773498 -0.22147 -1.05741e-20)
(0.787847 -0.202183 1.25698e-21)
(0.801234 -0.183697 1.22733e-20)
(0.813766 -0.166328 -1.21577e-20)
(0.825528 -0.150259 5.71302e-21)
(0.836592 -0.135579 6.26351e-21)
(0.847008 -0.122293 -2.52258e-21)
(0.856813 -0.110354 -3.1112e-21)
(0.866039 -0.0996807 -6.41459e-21)
(0.874713 -0.0901747 7.7343e-22)
(0.882862 -0.081724 4.60133e-21)
(0.890513 -0.074213 1.01219e-22)
(0.897691 -0.0675266 -9.6313e-22)
(0.904421 -0.0615548 3.55559e-22)
(0.910728 -0.056195 -2.03783e-21)
(0.916639 -0.0513534 2.54522e-21)
(0.922179 -0.0469466 -2.95455e-22)
(0.927379 -0.0429026 6.91418e-22)
(0.932266 -0.0391616 1.43091e-21)
(0.93687 -0.0356775 -5.01785e-21)
(0.941216 -0.0324168 1.36197e-21)
(0.945328 -0.0293578 4.36172e-22)
(0.949224 -0.0264881 -3.87591e-21)
(0.952917 -0.0238023 4.40657e-21)
(0.956411 -0.021301 1.40402e-21)
(0.959711 -0.0189887 -1.28691e-21)
(0.962814 -0.0168723 -9.92089e-22)
(0.965721 -0.0149583 4.81736e-22)
(0.968434 -0.0132501 1.34978e-21)
(0.970957 -0.0117447 -2.88347e-21)
(0.973299 -0.0104315 1.56178e-21)
(0.97547 -0.00929298 5.53973e-22)
(0.97748 -0.00830643 -6.05268e-22)
(0.979339 -0.00744759 -1.65616e-21)
(0.981057 -0.00669355 2.34608e-21)
(0.982644 -0.00602496 -1.5359e-21)
(0.984108 -0.00542691 3.13293e-22)
(0.985456 -0.00488876 -1.57063e-22)
(0.986695 -0.00440322 2.24049e-22)
(0.987834 -0.00396514 3.13201e-22)
(0.988878 -0.00357058 -7.52143e-22)
(0.989837 -0.00321603 1.40644e-22)
(0.990716 -0.00289817 6.64558e-22)
(0.991521 -0.00261356 -2.18772e-22)
(0.99226 -0.00235839 -4.59362e-22)
(0.992941 -0.00213161 2.04058e-22)
(0.993562 -0.00192287 -2.77935e-22)
(0.994128 -0.00173455 4.94762e-22)
(0.994649 -0.00156617 -2.86347e-22)
(0.995127 -0.00141484 -1.15264e-22)
(0.660357 -0.316427 5.31819e-20)
(0.68336 -0.326502 -4.79174e-20)
(0.704464 -0.329861 1.47042e-20)
(0.72358 -0.326882 1.17178e-20)
(0.740784 -0.318348 -4.42578e-21)
(0.756265 -0.305304 -2.92415e-21)
(0.770264 -0.288901 8.55075e-22)
(0.783034 -0.270274 1.08075e-21)
(0.794811 -0.250442 -1.62057e-21)
(0.805798 -0.230261 1.69327e-21)
(0.816156 -0.210399 -1.10035e-22)
(0.826007 -0.191344 6.67912e-21)
(0.835434 -0.173421 -1.36856e-21)
(0.844488 -0.156818 -3.71848e-21)
(0.853203 -0.141628 -1.41102e-21)
(0.861591 -0.12786 5.29862e-21)
(0.869649 -0.115469 -8.98563e-21)
(0.877368 -0.104375 7.24588e-21)
(0.884739 -0.0944775 1.48401e-22)
(0.891758 -0.0856661 -8.01393e-21)
(0.898421 -0.0778239 6.88959e-21)
(0.90473 -0.0708349 -4.53803e-21)
(0.91069 -0.0645876 1.63929e-21)
(0.916308 -0.058978 -7.6619e-22)
(0.921597 -0.0539111 7.19466e-21)
(0.926573 -0.0493023 -4.77167e-21)
(0.931255 -0.045078 5.66803e-21)
(0.935667 -0.0411768 -5.15982e-21)
(0.939834 -0.0375503 -5.54705e-22)
(0.943781 -0.0341626 -1.52718e-22)
(0.94753 -0.0309889 4.03007e-21)
(0.951099 -0.0280135 2.47816e-22)
(0.954501 -0.0252282 -5.22955e-21)
(0.95774 -0.022631 1.15215e-21)
(0.960818 -0.0202246 1.85628e-21)
(0.963733 -0.0180153 -3.55764e-21)
(0.966481 -0.0160102 2.59604e-21)
(0.969062 -0.0142134 -8.25038e-22)
(0.971476 -0.0126237 -4.29939e-22)
(0.973728 -0.0112315 1.15621e-21)
(0.975825 -0.0100202 3.60728e-22)
(0.977774 -0.00896734 -1.24074e-21)
(0.979583 -0.00804837 8.0694e-22)
(0.98126 -0.0072398 -8.09908e-22)
(0.982813 -0.00652157 8.54046e-22)
(0.984247 -0.00587817 1.31197e-22)
(0.985571 -0.00529847 -4.28741e-22)
(0.986791 -0.00477481 -1.67098e-23)
(0.987912 -0.00430181 1.35809e-22)
(0.988944 -0.00387535 5.01757e-22)
(0.989891 -0.00349174 1.32491e-22)
(0.990761 -0.00314747 -4.49689e-22)
(0.991559 -0.002839 -4.55888e-22)
(0.992292 -0.00256207 3.35454e-22)
(0.992968 -0.00231477 2.90729e-22)
(0.993586 -0.00209646 -5.57218e-22)
(0.994149 -0.00188728 2.76483e-22)
(0.994667 -0.00170359 2.7077e-22)
(0.995143 -0.00153895 -3.12001e-22)
(0.754939 -0.335202 2.45945e-20)
(0.770568 -0.338561 1.12348e-20)
(0.783953 -0.335513 -6.17632e-21)
(0.795366 -0.326852 -9.92594e-21)
(0.805166 -0.313629 1.8434e-21)
(0.813732 -0.297001 1.36002e-21)
(0.821415 -0.278105 -1.82144e-21)
(0.828519 -0.25797 -2.88268e-21)
(0.835279 -0.237457 -3.19353e-22)
(0.841867 -0.217243 8.70893e-22)
(0.848393 -0.197822 -4.4867e-23)
(0.854916 -0.179525 -7.20478e-21)
(0.861451 -0.162547 9.52108e-21)
(0.867993 -0.146981 4.32181e-21)
(0.874515 -0.132845 -6.48667e-21)
(0.880975 -0.120097 -5.68915e-21)
(0.887325 -0.108659 1.37478e-20)
(0.893523 -0.098435 -4.18606e-21)
(0.899531 -0.0893147 -3.76815e-21)
(0.90532 -0.0811832 -6.97165e-21)
(0.910867 -0.0739251 3.20987e-21)
(0.916157 -0.0674292 3.24531e-21)
(0.921182 -0.0615914 5.64726e-21)
(0.925941 -0.0563166 -8.0578e-21)
(0.930438 -0.0515199 -3.22764e-23)
(0.934684 -0.0471273 1.2494e-21)
(0.938697 -0.0430765 1.98753e-21)
(0.942497 -0.0393176 5.15483e-22)
(0.946107 -0.0358125 -5.11339e-21)
(0.949548 -0.0325338 1.71993e-21)
(0.952838 -0.0294626 3.95934e-21)
(0.955988 -0.0265878 -5.44695e-23)
(0.959003 -0.0239044 -6.48966e-22)
(0.961885 -0.0214133 1.09154e-22)
(0.96463 -0.0191198 1.10445e-21)
(0.967232 -0.0170309 -2.42333e-21)
(0.96969 -0.0151519 -8.7543e-22)
(0.972001 -0.0134829 1.60802e-21)
(0.974167 -0.0120159 -1.4983e-22)
(0.976192 -0.010735 -4.35727e-22)
(0.978081 -0.00961834 -5.7758e-22)
(0.97984 -0.00864119 4.97593e-22)
(0.981476 -0.00777965 -7.07957e-22)
(0.982993 -0.00701308 5.62219e-22)
(0.984398 -0.0063254 -8.30107e-22)
(0.985697 -0.00570504 5.52973e-22)
(0.986895 -0.005144 -3.15589e-22)
(0.988 -0.00463669 -1.90712e-22)
(0.989016 -0.00417881 6.03266e-22)
(0.989952 -0.00376652 1.70283e-24)
(0.990812 -0.00339613 -1.1163e-22)
(0.991602 -0.00306394 -4.63951e-22)
(0.992328 -0.00276564 3.49672e-23)
(0.992998 -0.00249878 2.94207e-22)
(0.993613 -0.0022666 2.88885e-22)
(0.994175 -0.0020406 8.78522e-23)
(0.994688 -0.0018414 -2.41599e-22)
(0.995161 -0.00166332 -1.50593e-22)
(0.822006 -0.34105 -2.25315e-20)
(0.832209 -0.344398 9.42025e-21)
(0.839997 -0.341359 1.21385e-20)
(0.84582 -0.332719 1.35813e-20)
(0.850188 -0.319516 -3.75384e-20)
(0.853596 -0.302891 1.43103e-20)
(0.856481 -0.283971 -1.60492e-21)
(0.859198 -0.263775 -1.70893e-21)
(0.86201 -0.243164 7.36183e-22)
(0.865092 -0.222815 8.52358e-21)
(0.868539 -0.203224 -2.13389e-21)
(0.872384 -0.184727 -3.52528e-21)
(0.876607 -0.167524 -1.39374e-21)
(0.881161 -0.151712 -2.27454e-21)
(0.885982 -0.137314 -2.4745e-21)
(0.89099 -0.124298 1.13099e-20)
(0.896103 -0.11259 -9.5182e-21)
(0.901245 -0.102098 1.68973e-21)
(0.906349 -0.0927169 -5.56906e-21)
(0.91136 -0.0843343 1.23158e-20)
(0.916235 -0.0768377 -7.69768e-21)
(0.920939 -0.0701176 -2.91581e-21)
(0.92545 -0.0640709 3.95149e-22)
(0.929752 -0.0586035 4.31024e-21)
(0.933841 -0.053631 -5.98949e-22)
(0.937719 -0.0490798 1.5171e-21)