/*--------------------------------*- C++ -*----------------------------------*\
  =========                 |
  \\      /  F ield         | OpenFOAM: The Open Source CFD Toolbox
   \\    /   O peration     | Website:  https://openfoam.org
    \\  /    A nd           | Version:  7
     \\/     M anipulation  |
\*---------------------------------------------------------------------------*/
FoamFile
{
    version     2.0;
    format      ascii;
    class       surfaceScalarField;
    location    "130";
    object      phi;
}
// * * * * * * * * * * * * * * * * * * * * * * * * * * * * * * * * * * * * * //

dimensions      [0 3 -1 0 0 0 0];

internalField   nonuniform List<scalar> 
3869
(
-3.28209e-05
-0.00610001
-0.00631923
1.05716e-05
-0.00547436
-2.64063e-05
-0.00565866
-6.52115e-05
-0.00585349
-0.000105877
-0.00605934
-0.00627672
5.89233e-05
-0.0049478
2.41684e-05
-0.00510104
-1.24901e-05
-0.00526355
-5.10388e-05
-0.00543582
-9.15126e-05
-0.00561818
-0.000133927
-0.00581107
-0.000178316
-0.00601495
-0.00623034
7.76933e-05
-0.00463335
4.38704e-05
-0.00476917
7.87478e-06
-0.00491181
-3.01067e-05
-0.00506305
-7.00637e-05
-0.0052236
-0.00011201
-0.00539387
-0.000155972
-0.00557422
-0.000201985
-0.00576506
-0.000250091
-0.00596685
-0.00618011
9.93414e-05
-0.0043351
6.81741e-05
-0.00446914
3.36743e-05
-0.00459885
-3.34912e-06
-0.00473214
-4.24972e-05
-0.00487266
-8.37148e-05
-0.00502184
-0.000126975
-0.00518034
-0.000172305
-0.00534854
-0.000219745
-0.00552678
-0.000269344
-0.00571546
-0.000321157
-0.00591503
-0.00612603
0.000115594
-0.00397149
9.25453e-05
-0.00415863
6.25652e-05
-0.00430512
2.80084e-05
-0.00443458
-9.70792e-06
-0.00456114
-4.98588e-05
-0.00469199
-9.21989e-05
-0.00483032
-0.000136638
-0.0049774
-0.000183189
-0.00513379
-0.000231891
-0.00529984
-0.000282797
-0.00547588
-0.000335968
-0.00566229
-0.000391471
-0.00585953
-0.000449372
-0.00606813
-0.00628858
0.000104759
-0.00370577
8.70915e-05
-0.00395383
5.994e-05
-0.00413148
2.63377e-05
-0.00427152
-1.15406e-05
-0.0043967
-5.24179e-05
-0.00452026
-9.57116e-05
-0.0046487
-0.000141205
-0.00478483
-0.000188851
-0.00492975
-0.000238678
-0.00508396
-0.000290738
-0.00524778
-0.000345093
-0.00542152
-0.000401816
-0.00560557
-0.000460989
-0.00580036
-0.000522693
-0.00600642
-0.00622428
8.67827e-05
-0.00286816
9.11657e-05
-0.00335325
8.11211e-05
-0.00369572
5.89224e-05
-0.00393163
2.78109e-05
-0.00410037
-9.3152e-06
-0.00423439
-5.04414e-05
-0.00435558
-9.4459e-05
-0.00447624
-0.000140864
-0.00460229
-0.000189492
-0.0047362
-0.000240329
-0.00487891
-0.000293415
-0.00503087
-0.000348814
-0.00519238
-0.000406598
-0.00536374
-0.000466853
-0.00554531
-0.00052967
-0.00573754
-0.000595149
-0.00594095
-0.00615607
3.71105e-05
-0.00144936
6.03068e-05
-0.00224506
7.35428e-05
-0.00288139
7.266e-05
-0.00335237
5.76953e-05
-0.00368076
3.11295e-05
-0.00390506
-3.8106e-06
-0.00406543
-4.43613e-05
-0.00419384
-8.86892e-05
-0.00431125
-0.000135807
-0.00442912
-0.000185297
-0.0045528
-0.000237041
-0.00468446
-0.000291048
-0.00482491
-0.000347374
-0.00497455
-0.00040609
-0.00513366
-0.000467281
-0.00530255
-0.00053104
-0.00548155
-0.000597475
-0.0056711
-0.000666697
-0.00587172
-0.00608396
1.18341e-05
-0.000540489
3.31734e-05
-0.0014707
5.20617e-05
-0.00226395
6.02512e-05
-0.00288958
5.42466e-05
-0.00334636
3.45267e-05
-0.00366104
3.75586e-06
-0.00387429
-3.48921e-05
-0.00402678
-7.8791e-05
-0.00414994
-0.000126263
-0.00426378
-0.000176445
-0.00437894
-0.000228993
-0.00450026
-0.000283831
-0.00462962
-0.000340986
-0.00476775
-0.000400528
-0.00491501
-0.000462538
-0.00507165
-0.000527109
-0.00523798
-0.000594344
-0.00541432
-0.000664362
-0.00560109
-0.000737292
-0.00579879
-0.000813249
-0.00600801
-0.00622928
1.07465e-05
-0.000551235
2.91381e-05
-0.00148909
4.37258e-05
-0.00227854
4.69545e-05
-0.00289281
3.59668e-05
-0.00333538
1.16636e-05
-0.00363674
-2.31782e-05
-0.00383945
-6.54162e-05
-0.00398454
-0.000112583
-0.00410278
-0.000163148
-0.00421321
-0.000216357
-0.00432573
-0.000271937
-0.00444468
-0.000329842
-0.00457171
-0.000390121
-0.00470747
-0.000452852
-0.00485227
-0.000518128
-0.00500638
-0.000586049
-0.00517006
-0.000656728
-0.00534364
-0.000730294
-0.00552752
-0.000806891
-0.0057222
-0.000886655
-0.00592824
-0.00614627
9.62078e-06
-0.000560856
2.50234e-05
-0.00150449
3.53335e-05
-0.00228885
3.37059e-05
-0.00289118
1.78432e-05
-0.00331951
-1.08617e-05
-0.00360803
-4.96324e-05
-0.00380068
-9.53609e-05
-0.00393881
-0.000145722
-0.00405242
-0.000199329
-0.00415961
-0.000255531
-0.00426953
-0.000314111
-0.0043861
-0.000375056
-0.00451077
-0.00043843
-0.0046441
-0.000504322
-0.00478638
-0.000572832
-0.00493786
-0.000644071
-0.00509882
-0.000718159
-0.00526955
-0.000795234
-0.00545045
-0.000875454
-0.00564198
-0.000958974
-0.00584472
-0.00605935
8.46103e-06
-0.000569317
2.08441e-05
-0.00151687
2.69105e-05
-0.00229492
2.05543e-05
-0.00288483
2.98538e-07
-0.00329926
-3.299e-05
-0.00357474
-7.55977e-05
-0.00375807
-0.000124713
-0.0038897
-0.000178195
-0.00399893
-0.000234795
-0.00410301
-0.000293952
-0.00421037
-0.0003555
-0.00432455
-0.000419454
-0.00444681
-0.000485891
-0.00457766
-0.000554912
-0.00471736
-0.000626624
-0.00486615
-0.000701145
-0.0050243
-0.000778604
-0.00519209
-0.000859146
-0.0053699
-0.00094294
-0.00555818
-0.00103016
-0.0057575
-0.00112095
-0.00596856
-0.00619179
7.27229e-06
-0.00057659
1.66182e-05
-0.00152622
1.84862e-05
-0.00229679
7.48447e-06
-0.00287383
-1.76827e-05
-0.00327409
-5.48021e-05
-0.00353762
-0.000101048
-0.00371183
-0.000153454
-0.00383729
-0.00020999
-0.0039424
-0.000269533
-0.00404346
-0.000331606
-0.0041483
-0.000396089
-0.00426006
-0.000463018
-0.00437988
-0.000532485
-0.0045082
-0.000604598
-0.00464525
-0.000679476
-0.00479127
-0.000757242
-0.00494653
-0.000838031
-0.0051113
-0.000921996
-0.00528594
-0.00100931
-0.00547086
-0.00110018
-0.00566664
-0.00119476
-0.00587397
-0.0060934
6.0616e-06
-0.000582651
1.237e-05
-0.00153253
1.00828e-05
-0.0022945
-5.45484e-06
-0.00285829
-3.50183e-05
-0.00324453
-7.61817e-05
-0.00349646
-0.000125965
-0.00366204
-0.00018157
-0.00378169
-0.000241095
-0.00388287
-0.000303533
-0.00398103
-0.000368481
-0.00408335
-0.000435861
-0.00419268
-0.000505729
-0.00431002
-0.000578189
-0.00443574
-0.000653358
-0.00457008
-0.000731362
-0.00471327
-0.000812331
-0.00486556
-0.000896408
-0.00502723
-0.000983751
-0.0051986
-0.00107454
-0.00538007
-0.00116899
-0.00557219
-0.0012673
-0.00577567
-0.00599109
4.83123e-06
-0.000587482
8.11746e-06
-0.00153581
1.89186e-06
-0.00228827
-1.83189e-05
-0.00283808
-5.20838e-05
-0.00321076
-9.71182e-05
-0.00345143
-0.000150334
-0.00360883
-0.000209049
-0.00372297
-0.0002715
-0.00382042
-0.000336783
-0.00391574
-0.000404565
-0.00401557
-0.000474802
-0.00412245
-0.00054757
-0.00423725
-0.000622983
-0.00436032
-0.000701167
-0.00449189
-0.000782255
-0.00463218
-0.000866386
-0.00478143
-0.000953706
-0.00493991
-0.00104438
-0.00510792
-0.00113859
-0.00528586
-0.00123655
-0.00547423
-0.0013385
-0.00567372
-0.00144466
-0.00588494
-0.00610813
3.58499e-06
-0.000591067
3.82196e-06
-0.00153605
-6.57371e-06
-0.00227788
-3.09562e-05
-0.0028137
-6.88345e-05
-0.00317288
-0.0001176
-0.00340266
-0.000174139
-0.00355229
-0.000235883
-0.00366123
-0.000301195
-0.00375511
-0.000369273
-0.00384766
-0.000439845
-0.003945
-0.000512898
-0.00404939
-0.000588524
-0.00416162
-0.000666847
-0.004282
-0.000748003
-0.00441074
-0.000832131
-0.00454805
-0.000919377
-0.00469418
-0.00100989
-0.00484939
-0.00110385
-0.00501397
-0.00120143
-0.00518828
-0.00130285
-0.00537281
-0.00140836
-0.0055682
-0.00151827
-0.00577503
-0.00599393
2.32305e-06
-0.00059339
-3.05828e-07
-0.00153342
-1.48218e-05
-0.00226336
-4.33892e-05
-0.00278513
-8.52476e-05
-0.00313103
-0.000137612
-0.0033503
-0.00019737
-0.00349253
-0.00026206
-0.00359654
-0.000330172
-0.003687
-0.000400995
-0.00377684
-0.00047431
-0.00387168
-0.000550134
-0.00397357
-0.000628573
-0.00408318
-0.000709762
-0.00420081
-0.000793843
-0.00432666
-0.000880964
-0.00446093
-0.000971278
-0.00460387
-0.00106494
-0.00475572
-0.00116213
-0.00491678
-0.00126303
-0.00508738
-0.00136784
-0.005268
-0.00147684
-0.0054592
-0.00159041
-0.00566145
-0.0058758
9.53627e-07
-0.000594344
-4.73019e-06
-0.00152774
-2.29603e-05
-0.00224513
-5.55941e-05
-0.00275249
-0.000101304
-0.00308532
-0.000157142
-0.00329446
-0.000220015
-0.00342966
-0.000287574
-0.00352898
-0.000358423
-0.00361615
-0.000431937
-0.00370333
-0.000507948
-0.00379567
-0.000586496
-0.00389502
-0.000667702
-0.00400198
-0.000751708
-0.00411681
-0.000838665
-0.0042397
-0.000928729
-0.00437087
-0.00102206
-0.00451054
-0.00111882
-0.00465896
-0.00121919
-0.00481641
-0.00132336
-0.00498322
-0.00143151
-0.00515984
-0.00154393
-0.00534679
-0.00166107
-0.00554431
-0.00178298
-0.0057539
-0.00597961
-4.5747e-07
-0.000593887
-8.97978e-06
-0.00151921
-3.09694e-05
-0.00222314
-6.75533e-05
-0.00271591
-0.000116987
-0.00303588
-0.000176177
-0.00323527
-0.000242067
-0.00336377
-0.000312416
-0.00345863
-0.00038594
-0.00354262
-0.000462092
-0.00362717
-0.000540748
-0.00371702
-0.000621971
-0.0038138
-0.000705892
-0.00391806
-0.000792665
-0.00403003
-0.000882447
-0.00414992
-0.000975402
-0.00427791
-0.0010717
-0.00441424
-0.00117151
-0.00455915
-0.00127501
-0.00471291
-0.00138239
-0.00487584
-0.00149383
-0.0050484
-0.0016096
-0.00523101
-0.00173022
-0.00542369
-0.00185584
-0.00562828
-0.00585109
-1.59768e-06
-0.000592289
-1.31487e-05
-0.00150766
-3.8838e-05
-0.00219745
-7.92524e-05
-0.0026755
-0.000132281
-0.00298285
-0.000194707
-0.00317284
-0.000263517
-0.00329495
-0.00033658
-0.00338557
-0.000412716
-0.00346649
-0.000491451
-0.00354844
-0.000572699
-0.00363577
-0.000656544
-0.00372995
-0.000743129
-0.00383147
-0.000832615
-0.00394055
-0.000925167
-0.00405737
-0.00102096
-0.00418212
-0.00112016
-0.00431504
-0.00122296
-0.00445635
-0.00132954
-0.00460632
-0.00144009
-0.00476529
-0.00155479
-0.00493371
-0.0016739
-0.0051119
-0.00179792
-0.00529967
-0.00192711
-0.00549909
-0.00571872
-0.00205948
-2.84354e-06
-0.000589445
-1.72626e-05
-0.00149324
-4.65558e-05
-0.00216816
-9.06793e-05
-0.00263137
-0.000147175
-0.00292636
-0.000212723
-0.0031073
-0.000284359
-0.00322332
-0.000360059
-0.00330987
-0.000438744
-0.0033878
-0.000520004
-0.00346718
-0.00060379
-0.00355198
-0.000690203
-0.00364354
-0.000779396
-0.00374228
-0.000871539
-0.0038484
-0.000966805
-0.0039621
-0.00106537
-0.00408356
-0.00116742
-0.00421299
-0.00127316
-0.00435062
-0.00138276
-0.00449672
-0.00149643
-0.00465162
-0.00161437
-0.00481577
-0.00173689
-0.00498938
-0.00186439
-0.00517217
-0.00199653
-0.00536695
-0.00558331
-0.00213194
-4.10395e-06
-0.000585341
-2.13174e-05
-0.00147603
-5.41123e-05
-0.00213536
-0.000101822
-0.00258366
-0.00016166
-0.00286652
-0.000230217
-0.00303874
-0.000304587
-0.00314895
-0.000382849
-0.00323161
-0.000464018
-0.00330663
-0.000547744
-0.00338345
-0.00063401
-0.00346572
-0.000722934
-0.00355462
-0.000814678
-0.00365053
-0.000909419
-0.00375366
-0.00100734
-0.00386418
-0.00110862
-0.00398227
-0.00121346
-0.00410815
-0.00132206
-0.00424202
-0.00143462
-0.00438416
-0.00155135
-0.00453489
-0.00167252
-0.0046946
-0.00179853
-0.00486337
-0.00192974
-0.00504096
-0.0020662
-0.0052305
-0.00545187
-0.00219763
-5.35703e-06
-0.000579984
-2.53038e-05
-0.00145608
-6.14975e-05
-0.00209917
-0.00011267
-0.00253249
-0.000175726
-0.00280346
-0.000247183
-0.00296728
-0.000324196
-0.00307194
-0.000404944
-0.00315086
-0.000488532
-0.00322305
-0.000574663
-0.00329732
-0.00066335
-0.00337703
-0.000754725
-0.00346324
-0.000848959
-0.0035563
-0.000946236
-0.00365639
-0.00104675
-0.00376367
-0.00115068
-0.00387834
-0.00125824
-0.00400059
-0.00136963
-0.00413063
-0.00148507
-0.00426872
-0.00160479
-0.00441517
-0.00172911
-0.00457027
-0.00185846
-0.00473403
-0.00199251
-0.0049069
-0.00212977
-0.00509324
-0.00529439
-0.00228725
-6.59494e-06
-0.000573389
-2.92131e-05
-0.00143347
-6.87015e-05
-0.00205968
-0.000123214
-0.00247798
-0.000189366
-0.00273731
-0.000263615
-0.00289303
-0.00034318
-0.00299237
-0.000426339
-0.0030677
-0.000512278
-0.00313711
-0.000600752
-0.00320885
-0.000691798
-0.00328598
-0.000785563
-0.00336948
-0.000882225
-0.00345964
-0.000981975
-0.00355664
-0.00108501
-0.00366064
-0.00119153
-0.00377182
-0.00130174
-0.00389038
-0.00141586
-0.00401651
-0.00153411
-0.00415047
-0.00165673
-0.00429254
-0.00178406
-0.00444295
-0.0019163
-0.00460178
-0.00205316
-0.00477004
-0.00219615
-0.00495025
-0.00513831
-0.00235222
-7.81343e-06
-0.000565576
-3.30376e-05
-0.00140824
-7.57151e-05
-0.002017
-0.000133444
-0.00242025
-0.000202572
-0.00266818
-0.000279507
-0.0028161
-0.000361535
-0.00291034
-0.00044703
-0.0029822
-0.000535252
-0.00304889
-0.000626004
-0.0031181
-0.000719346
-0.00319264
-0.000815436
-0.00327339
-0.00091446
-0.00336061
-0.00101662
-0.00345448
-0.00112211
-0.00355515
-0.00123114
-0.00366279
-0.00134393
-0.00377759
-0.0014607
-0.00389974
-0.00158168
-0.00402949
-0.00170714
-0.00416709
-0.00183737
-0.00431271
-0.00197256
-0.00446659
-0.00211288
-0.00462973
-0.00226007
-0.00480306
-0.0049824
-0.00241599
-9.00948e-06
-0.000556567
-3.67705e-05
-0.00138048
-8.253e-05
-0.00197124
-0.000143352
-0.00235943
-0.000215337
-0.0025962
-0.000294855
-0.00273658
-0.000379257
-0.00282594
-0.000467011
-0.00289445
-0.000557448
-0.00295845
-0.000650412
-0.00302513
-0.000745984
-0.00309707
-0.000844333
-0.00317504
-0.000945652
-0.00325929
-0.00105015
-0.00334999
-0.00115802
-0.00344727
-0.00126949
-0.00355132
-0.00138479
-0.00366229
-0.00150413
-0.0037804
-0.00162776
-0.00390586
-0.00175594
-0.0040389
-0.00188897
-0.00417969
-0.00202703
-0.00432853
-0.00217053
-0.00448623
-0.00232072
-0.00465287
-0.00482512
-0.002478
-1.01805e-05
-0.000546386
-4.04054e-05
-0.00135026
-8.91382e-05
-0.00192251
-0.000152932
-0.00229563
-0.000227657
-0.00252147
-0.000309654
-0.00265458
-0.000396343
-0.00273925
-0.000486279
-0.00280451
-0.00057886
-0.00286587
-0.000673968
-0.00293003
-0.000771702
-0.00299934
-0.000872241
-0.0030745
-0.000975787
-0.00315575
-0.00108255
-0.00324323
-0.00119274
-0.00333709
-0.00130657
-0.00343748
-0.00142429
-0.00354458
-0.00154612
-0.00365857
-0.00167231
-0.00377967
-0.00180314
-0.00390808
-0.00193886
-0.00404397
-0.00207972
-0.00418766
-0.00222619
-0.00433976
-0.00237906
-0.0045
-0.00466585
-0.00253833
-1.13241e-05
-0.000535062
-4.39366e-05
-0.00131764
-9.55328e-05
-0.00187092
-0.000162177
-0.00222899
-0.000239527
-0.00244413
-0.0003239
-0.00257021
-0.000412789
-0.00265036
-0.00050483
-0.00271247
-0.000599483
-0.00277122
-0.000696664
-0.00283284
-0.000796492
-0.00289951
-0.000899151
-0.00297184
-0.00100485
-0.00305005
-0.0011138
-0.00313427
-0.00122623
-0.00322466
-0.00134236
-0.00332135
-0.00146242
-0.00342452
-0.00158666
-0.00353433
-0.00171532
-0.003651
-0.00184869
-0.00377471
-0.00198701
-0.00390564
-0.00213058
-0.0040441
-0.00227981
-0.00419053
-0.00243524
-0.00434457
-0.00450428
-0.0025968
-1.24381e-05
-0.000522624
-4.73587e-05
-0.00128272
-0.000101707
-0.00181657
-0.000171082
-0.00215961
-0.000250941
-0.00236427
-0.000337591
-0.00248356
-0.000428591
-0.00255936
-0.00052266
-0.0026184
-0.000619311
-0.00267456
-0.000718495
-0.00273366
-0.000820344
-0.00279766
-0.000925052
-0.00286713
-0.00103283
-0.00294227
-0.0011439
-0.0030232
-0.00125849
-0.00311007
-0.00137683
-0.00320301
-0.00149915
-0.00330219
-0.00162571
-0.00340778
-0.00175676
-0.00351995
-0.00189257
-0.0036389
-0.00203341
-0.00376481
-0.00217957
-0.00389794
-0.00233142
-0.00403868
-0.00248937
-0.00418662
-0.00434028
-0.00265337
-1.35202e-05
-0.000509104
-5.0667e-05
-0.00124558
-0.000107656
-0.00175958
-0.000179639
-0.00208763
-0.000261896
-0.00228201
-0.000350723
-0.00239473
-0.000443748
-0.00246634
-0.000539764
-0.00252239
-0.00063834
-0.00257599
-0.000739454
-0.00263255
-0.00084325
-0.00269386
-0.000949932
-0.00276045
-0.00105972
-0.00283248
-0.00117283
-0.00291009
-0.0012895
-0.0029934
-0.00140997
-0.00308255
-0.00153447
-0.00317769
-0.00166327
-0.00327898
-0.00179661
-0.00338661
-0.00193477
-0.00350074
-0.00207803
-0.00362155
-0.00222667
-0.0037493
-0.00238104
-0.00388431
-0.00254146
-0.0040262
-0.00417379
-0.00270795
-1.45683e-05
-0.000494535
-5.38569e-05
-0.00120629
-0.000113373
-0.00170006
-0.000187846
-0.00201316
-0.000272388
-0.00219747
-0.000363292
-0.00230383
-0.000458255
-0.00237137
-0.00055614
-0.0024245
-0.000656565
-0.00247556
-0.000759533
-0.00252958
-0.000865203
-0.00258819
-0.000973783
-0.00265187
-0.0010855
-0.00272077
-0.00120057
-0.00279501
-0.00131925
-0.00287472
-0.00144176
-0.00296003
-0.00156836
-0.00305109
-0.0016993
-0.00314804
-0.00183485
-0.00325106
-0.00197527
-0.00336031
-0.00212085
-0.00347597
-0.00227187
-0.00359828
-0.00242865
-0.00372752
-0.0025915
-0.00386336
-0.00400482
-0.00276048
-1.55806e-05
-0.000478955
-5.69243e-05
-0.00116494
-0.000118854
-0.00163813
-0.000195698
-0.00193631
-0.000282414
-0.00211075
-0.000375297
-0.00221095
-0.000472111
-0.00227456
-0.000571784
-0.00232483
-0.000673981
-0.00237337
-0.000778728
-0.00242483
-0.000886194
-0.00248073
-0.000996595
-0.00254147
-0.00111016
-0.00260721
-0.00122712
-0.00267805
-0.00134771
-0.00275413
-0.00147219
-0.00283556
-0.00160079
-0.00292248
-0.00173379
-0.00301504
-0.00187145
-0.0031134
-0.00201404
-0.00321772
-0.00216185
-0.00332817
-0.00231515
-0.00344498
-0.00247426
-0.00356841
-0.00263947
-0.00369814
-0.0038334
-0.00281089
-1.65551e-05
-0.0004624
-5.98653e-05
-0.00112163
-0.000124095
-0.0015739
-0.000203191
-0.00185722
-0.00029197
-0.00202197
-0.000386736
-0.00211618
-0.000485312
-0.00217598
-0.000586693
-0.00222345
-0.000690583
-0.00226948
-0.000797031
-0.00231838
-0.000906217
-0.00237154
-0.00101836
-0.00242933
-0.00113369
-0.00249187
-0.00125245
-0.00255929
-0.00137488
-0.0026317
-0.00150123
-0.00270921
-0.00163176
-0.00279195
-0.00176673
-0.00288007
-0.00190641
-0.00297373
-0.00205107
-0.00307306
-0.002201
-0.00317823
-0.00235649
-0.00328949
-0.00251784
-0.00340706
-0.00268535
-0.00353064
-0.0036596
-0.00285914
-1.74902e-05
-0.000444909
-6.26765e-05
-0.00107645
-0.00012909
-0.00150749
-0.000210321
-0.00177599
-0.000301055
-0.00193124
-0.000397604
-0.00201963
-0.000497856
-0.00207573
-0.000600863
-0.00212044
-0.000706367
-0.00216397
-0.000814438
-0.00221031
-0.000925263
-0.00226072
-0.00103907
-0.00231552
-0.00115609
-0.00237485
-0.00127657
-0.00243882
-0.00140075
-0.00250751
-0.00152889
-0.00258106
-0.00166125
-0.00265959
-0.00179809
-0.00274323
-0.0019397
-0.00283212
-0.00208634
-0.00292642
-0.0022383
-0.00302627
-0.00239588
-0.00313191
-0.00255937
-0.00324357
-0.00272908
-0.00336093
-0.00348351
-0.00290518
-1.83843e-05
-0.000426525
-6.53544e-05
-0.00102948
-0.000133838
-0.001439
-0.000217085
-0.00169274
-0.000309665
-0.00183866
-0.000407902
-0.00192139
-0.000509741
-0.00197389
-0.000614291
-0.00201589
-0.000721329
-0.00205693
-0.000830942
-0.0021007
-0.000943326
-0.00214833
-0.00105871
-0.00220014
-0.00117734
-0.00225623
-0.00129945
-0.0023167
-0.0014253
-0.00238167
-0.00155514
-0.00245122
-0.00168924
-0.00252549
-0.00182787
-0.0026046
-0.0019713
-0.00268869
-0.00211982
-0.0027779
-0.00227372
-0.00287237
-0.00243329
-0.00297234
-0.00259883
-0.00307802
-0.00277066
-0.0031891
-0.00330521
-0.00294896
-1.92358e-05
-0.000407289
-6.78963e-05
-0.000980817
-0.000138333
-0.00136857
-0.00022348
-0.00160759
-0.000317798
-0.00174434
-0.000417626
-0.00182157
-0.000520964
-0.00187056
-0.000626974
-0.00190988
-0.000735465
-0.00194844
-0.000846539
-0.00198963
-0.000960399
-0.00203447
-0.00107728
-0.00208326
-0.00119743
-0.00213608
-0.00132109
-0.00219305
-0.00144851
-0.00225424
-0.00157997
-0.00231977
-0.00171572
-0.00238974
-0.00185604
-0.00246428
-0.00200121
-0.00254352
-0.00215151
-0.00262759
-0.00230724
-0.00271664
-0.0024687
-0.00281089
-0.0026362
-0.00291053
-0.00281004
-0.00301526
-0.00312481
-0.00299044
-2.00433e-05
-0.000387246
-7.02992e-05
-0.000930561
-0.000142574
-0.00129629
-0.000229504
-0.00152066
-0.000325453
-0.00164839
-0.000426775
-0.00172024
-0.000531524
-0.00176581
-0.00063891
-0.0018025
-0.000748771
-0.00183858
-0.000861223
-0.00187717
-0.000976477
-0.00191922
-0.00109477
-0.00196496
-0.00121635
-0.0020145
-0.00134147
-0.00206793
-0.00147039
-0.00212532
-0.00160337
-0.00218679
-0.00174067
-0.00225243
-0.00188259
-0.00232237
-0.0020294
-0.00239671
-0.00218139
-0.0024756
-0.00233885
-0.00255917
-0.0025021
-0.00264764
-0.00267144
-0.00274118
-0.0028472
-0.0028395
-0.00294241
-0.0030296
-2.08056e-05
-0.00036644
-7.25606e-05
-0.000878806
-0.000146556
-0.0012223
-0.000235153
-0.00143207
-0.000332627
-0.00155092
-0.000435347
-0.00161752
-0.000541419
-0.00165973
-0.000650095
-0.00169382
-0.000761242
-0.00172743
-0.000874989
-0.00176343
-0.000991553
-0.00180265
-0.00111117
-0.00184534
-0.0012341
-0.00189157
-0.0013606
-0.00194143
-0.00149091
-0.00199501
-0.00162532
-0.00205238
-0.00176409
-0.00211366
-0.00190751
-0.00217895
-0.00205586
-0.00224837
-0.00220943
-0.00232203
-0.00236853
-0.00240008
-0.00253346
-0.00248271
-0.00270454
-0.0025701
-0.00288211
-0.00266194
-0.00275813
-0.00306639
-2.15213e-05
-0.000344919
-7.46781e-05
-0.00082565
-0.000150278
-0.0011467
-0.000240427
-0.00134192
-0.000339319
-0.00145203
-0.000443341
-0.0015135
-0.000550645
-0.00155243
-0.000660527
-0.00158394
-0.000772877
-0.00161508
-0.000887834
-0.00164847
-0.00100562
-0.00168487
-0.00112648
-0.00172448
-0.00125068
-0.00176738
-0.00137845
-0.00181366
-0.00151008
-0.00186338
-0.00164582
-0.00191664
-0.00178596
-0.00197352
-0.00193078
-0.00203413
-0.00208057
-0.00209858
-0.00223563
-0.00216697
-0.00239625
-0.00223945
-0.00256276
-0.0023162
-0.00273548
-0.00239738
-0.00291474
-0.00248268
-0.00257209
-0.00310079
-2.21895e-05
-0.00032273
-7.66497e-05
-0.000771189
-0.000153738
-0.00106961
-0.000245323
-0.00125033
-0.000345527
-0.00135182
-0.000450755
-0.00140827
-0.000559203
-0.00144398
-0.000670204
-0.00147294
-0.00078367
-0.00150162
-0.000899753
-0.00153239
-0.00101868
-0.00156594
-0.0011407
-0.00160246
-0.00126606
-0.00164202
-0.00139503
-0.00168469
-0.00152787
-0.00173054
-0.00166486
-0.00177965
-0.00180627
-0.0018321
-0.0019524
-0.001888
-0.00210353
-0.00194745
-0.00225997
-0.00201054
-0.00242202
-0.0020774
-0.00258999
-0.00214823
-0.00276424
-0.00222313
-0.00294507
-0.00230185
-0.00238439
-0.00313277
-2.28091e-05
-0.000299921
-7.84734e-05
-0.000715525
-0.000156932
-0.000991151
-0.000249838
-0.00115743
-0.00035125
-0.00125041
-0.000457587
-0.00130194
-0.000567089
-0.00133448
-0.000679122
-0.00136091
-0.00079362
-0.00138712
-0.000910742
-0.00141527
-0.00103072
-0.00144597
-0.0011538
-0.00147938
-0.00128025
-0.00151557
-0.00141032
-0.00155462
-0.00154429
-0.00159657
-0.00168242
-0.00164151
-0.00182502
-0.00168951
-0.00197235
-0.00174067
-0.00212472
-0.00179508
-0.00228243
-0.00185283
-0.0024458
-0.00191404
-0.00261514
-0.00197888
-0.00279079
-0.00204748
-0.00297308
-0.00211956
-0.00219517
-0.0031623
-2.33791e-05
-0.000276541
-8.01474e-05
-0.000658757
-0.00015986
-0.000911438
-0.000253973
-0.00106331
-0.000356486
-0.0011479
-0.000463837
-0.00119458
-0.000574303
-0.00122402
-0.000687281
-0.00124793
-0.000802723
-0.00127168
-0.000920797
-0.00129719
-0.00104174
-0.00132503
-0.00116579
-0.00135532
-0.00129323
-0.00138814
-0.00142431
-0.00142353
-0.00155931
-0.00146157
-0.00169851
-0.00150231
-0.00184218
-0.00154584
-0.00199062
-0.00159223
-0.00214412
-0.00164157
-0.00230301
-0.00169394
-0.00246758
-0.00174946
-0.00263817
-0.00180829
-0.00281512
-0.00187053
-0.00299876
-0.00193592
-0.00200455
-0.00318938
-2.38987e-05
-0.000252643
-8.16701e-05
-0.000600986
-0.000162519
-0.000830589
-0.000257724
-0.000968109
-0.000361234
-0.00104439
-0.000469503
-0.00108632
-0.000580842
-0.00111268
-0.000694678
-0.00113409
-0.000810977
-0.00115538
-0.000929914
-0.00117826
-0.00105173
-0.00120321
-0.00117667
-0.00123037
-0.00130501
-0.0012598
-0.00143701
-0.00129153
-0.00157295
-0.00132563
-0.0017131
-0.00136217
-0.00185775
-0.00140119
-0.00200719
-0.00144278
-0.00216174
-0.00148702
-0.00232168
-0.00153399
-0.00248736
-0.00158379
-0.00265909
-0.00163656
-0.00283722
-0.0016924
-0.00302207
-0.00175106
-0.00181266
-0.00321397
-2.43672e-05
-0.000228275
-8.30401e-05
-0.000542313
-0.000164908
-0.000748721
-0.00026109
-0.000871927
-0.000365492
-0.000939984
-0.000474584
-0.000977224
-0.000586706
-0.00100055
-0.000701311
-0.00101949
-0.000818379
-0.00103831
-0.000938091
-0.00105854
-0.00106069
-0.00108061
-0.00118643
-0.00110463
-0.00131558
-0.00113065
-0.0014484
-0.00115871
-0.00158518
-0.00118886
-0.00172619
-0.00122116
-0.00187172
-0.00125566
-0.00202207
-0.00129243
-0.00217754
-0.00133155
-0.00233845
-0.00137309
-0.00250511
-0.00141713
-0.00267787
-0.00146381
-0.00285706
-0.00151321
-0.00304302
-0.0015651
-0.00161962
-0.00323606
-2.47838e-05
-0.000203492
-8.4256e-05
-0.000482841
-0.000167026
-0.000665951
-0.000264071
-0.000774881
-0.000369261
-0.000834794
-0.000479078
-0.000867407
-0.000591893
-0.00088774
-0.000707177
-0.000904202
-0.000824926
-0.00092056
-0.000945325
-0.000938144
-0.00106862
-0.000957321
-0.00119506
-0.000978187
-0.00132493
-0.00100078
-0.00145848
-0.00102515
-0.00159601
-0.00105134
-0.00173778
-0.00107938
-0.00188409
-0.00110935
-0.00203524
-0.00114128
-0.00219154
-0.00117525
-0.0023533
-0.00121133
-0.00252084
-0.00124959
-0.0026945
-0.00129015
-0.00287464
-0.00133307
-0.00306157
-0.00137817
-0.00142555
-0.00325563
-2.5148e-05
-0.000178344
-8.53168e-05
-0.000422672
-0.00016887
-0.000582397
-0.000266666
-0.000677086
-0.000372539
-0.000728921
-0.000482986
-0.00075696
-0.000596401
-0.000774325
-0.000712277
-0.000788326
-0.000830617
-0.00080222
-0.000951613
-0.000817148
-0.00107551
-0.000833424
-0.00120257
-0.000851127
-0.00133306
-0.000870295
-0.00146725
-0.000890962
-0.00160542
-0.000913165
-0.00174786
-0.000936947
-0.00189485
-0.000962352
-0.0020467
-0.000989431
-0.00220372
-0.00101824
-0.00236622
-0.00104883
-0.00253452
-0.00108128
-0.00270898
-0.00111569
-0.00288994
-0.00115212
-0.00307773
-0.00119038
-0.0012306
-0.00327268
-2.54592e-05
-0.000152884
-8.62215e-05
-0.00036191
-0.000170441
-0.000498177
-0.000268873
-0.000578654
-0.000375325
-0.000622469
-0.000486306
-0.000645979
-0.000600231
-0.0006604
-0.000716608
-0.000671949
-0.00083545
-0.000683378
-0.000956952
-0.000695646
-0.00108136
-0.000709013
-0.00120894
-0.000723546
-0.00133996
-0.000739276
-0.00147469
-0.000756231
-0.00161342
-0.000774442
-0.00175642
-0.000793945
-0.00190399
-0.000814779
-0.00205644
-0.000836984
-0.00221407
-0.000860608
-0.0023772
-0.000885699
-0.00254616
-0.000912319
-0.00272129
-0.000940558
-0.00290295
-0.000970458
-0.00309147
-0.00100186
-0.00103489
-0.00328718
-2.5717e-05
-0.000127167
-8.69692e-05
-0.000300657
-0.000171737
-0.000413409
-0.000270691
-0.0004797
-0.000377619
-0.000515541
-0.000489038
-0.00053456
-0.00060338
-0.000546058
-0.000720169
-0.00055516
-0.000839423
-0.000564124
-0.000961341
-0.000573727
-0.00108617
-0.000584181
-0.00121418
-0.000595537
-0.00134564
-0.000607821
-0.00148081
-0.000621055
-0.00161999
-0.000635265
-0.00176346
-0.000650478
-0.00191151
-0.000666727
-0.00206445
-0.000684046
-0.00222258
-0.000702472
-0.00238624
-0.000722045
-0.00255574
-0.000742818
-0.00273143
-0.000764864
-0.00291367
-0.000788217
-0.00310279
-0.000812743
-0.000838543
-0.00329914
-2.59211e-05
-0.000101246
-8.75593e-05
-0.000239019
-0.000172758
-0.00032821
-0.000272121
-0.000380337
-0.00037942
-0.000408242
-0.00049118
-0.0004228
-0.000605848
-0.000431389
-0.000722958
-0.00043805
-0.000842535
-0.000444547
-0.000964779
-0.000451483
-0.00108994
-0.000459018
-0.00121829
-0.000467192
-0.00135008
-0.000476024
-0.00148561
-0.00048553
-0.00162514
-0.00049573
-0.00176898
-0.000506645
-0.0019174
-0.0005183
-0.00207073
-0.000530721
-0.00222926
-0.000543937
-0.00239333
-0.00055798
-0.00256326
-0.00057289
-0.00273939
-0.000588727
-0.00292209
-0.000605517
-0.00311169
-0.000623149
-0.0006417
-0.00330853
-2.60711e-05
-7.51752e-05
-8.79913e-05
-0.000177099
-0.000173503
-0.000242699
-0.000273161
-0.000280679
-0.000380727
-0.000300677
-0.000492732
-0.000310794
-0.000607635
-0.000316486
-0.000724976
-0.00032071
-0.000844784
-0.000324739
-0.000967262
-0.000329005
-0.00109266
-0.000333618
-0.00122125
-0.000338605
-0.00135329
-0.000343979
-0.00148907
-0.000349752
-0.00162887
-0.000355936
-0.00177296
-0.000362546
-0.00192167
-0.000369599
-0.00207527
-0.000377114
-0.0022341
-0.000385111
-0.00239846
-0.000393613
-0.00256871
-0.000402649
-0.00274517
-0.000412265
-0.0029282
-0.000422479
-0.00311815
-0.000433206
-0.000444491
-0.00331536
-2.61668e-05
-8.82647e-05
-0.000173971
-0.000273811
-0.00038154
-0.000493694
-0.000608739
-0.000201441
-0.00072622
-0.000203229
-0.00084617
-0.00020479
-0.000968791
-0.000206383
-0.00109434
-0.000208071
-0.00122307
-0.000209869
-0.00135527
-0.000211783
-0.0014912
-0.000213818
-0.00163116
-0.000215982
-0.00177542
-0.000218282
-0.00192429
-0.000220728
-0.00207808
-0.00022333
-0.00223709
-0.000226102
-0.00240164
-0.000229056
-0.00257208
-0.000232211
-0.00274875
-0.000235597
-0.002932
-0.000239227
-0.00312217
-0.000243042
-0.000247051
-0.00331961
-0.000609161
-0.000726692
-0.000846691
-0.000969365
-0.00109496
-0.00122376
-0.00135601
-0.001492
-0.00163202
-0.00177635
-0.00192529
-0.00207914
-0.00223823
-0.00240287
-0.00257339
-0.00275014
-0.00293349
-0.00312374
-0.00332124
-0.00450388
-0.0021291
-0.00450672
-0.00469757
-0.0021881
-0.00451626
-0.00470072
-0.00445178
0.00158096
-0.00164543
-0.00441629
0.00143802
-0.00147352
-0.00440067
0.00143142
-0.00144704
-0.00438666
0.00131805
-0.00133206
-0.00438274
0.00126902
-0.00127293
-0.00438129
0.00117043
-0.00117189
-0.00438551
0.0011048
-0.00110058
-0.00439168
0.00101384
-0.00100767
-0.00440094
0.000943674
-0.000934416
-0.00441129
0.000860306
-0.000849955
-0.00442308
0.000792568
-0.000780784
-0.00443514
0.00071846
-0.000706394
-0.00444756
0.000657601
-0.000645185
-0.00445962
0.000594364
-0.000582298
-0.00447134
0.000542936
-0.000531222
-0.00448226
0.000491065
-0.000480142
-0.0044924
0.000449323
-0.000439186
-0.00450146
0.000406888
-0.000397823
-0.00450951
0.000371468
-0.00036342
-0.00451636
0.000332324
-0.000325473
-0.00452211
0.000294913
-0.000289164
-0.00452662
0.000248036
-0.00024353
-0.00452999
0.000195674
-0.000192305
-0.00453206