/*--------------------------------*- C++ -*----------------------------------*\
  =========                 |
  \\      /  F ield         | OpenFOAM: The Open Source CFD Toolbox
   \\    /   O peration     | Website:  https://openfoam.org
    \\  /    A nd           | Version:  7
     \\/     M anipulation  |
\*---------------------------------------------------------------------------*/
FoamFile
{
    version     2.0;
    format      ascii;
    class       volVectorField;
    location    "50";
    object      U;
}
// * * * * * * * * * * * * * * * * * * * * * * * * * * * * * * * * * * * * * //

dimensions      [0 1 -1 0 0 0 0];

internalField   nonuniform List<vector> 
1987
(
(0.98521 -0.212394 1.98992e-20)
(0.992524 -0.214407 -7.7709e-20)
(0.999823 -0.216152 1.88649e-19)
(1.00455 -0.230157 8.5369e-20)
(1.00712 -0.217654 -1.41447e-19)
(1.01245 -0.231433 -6.3065e-20)
(1.01441 -0.218927 6.61326e-20)
(1.01869 -0.245296 -1.08497e-20)
(1.02031 -0.232448 -1.32506e-20)
(1.02168 -0.219976 -1.50938e-20)
(1.02694 -0.246009 1.13889e-20)
(1.02809 -0.233211 4.86866e-21)
(1.02892 -0.220805 -8.86222e-21)
(1.03511 -0.246466 -1.77936e-20)
(1.03581 -0.233731 2.39551e-20)
(1.03613 -0.221418 1.78828e-21)
(1.04263 -0.26061 -7.05458e-21)
(1.04318 -0.246675 -2.46834e-21)
(1.04345 -0.234016 -2.10026e-21)
(1.04331 -0.221822 -5.09676e-21)
(1.05105 -0.260423 2.24347e-22)
(1.05115 -0.246646 5.16921e-21)
(1.05101 -0.234076 1.0744e-21)
(1.05043 -0.222023 3.44404e-21)
(1.05934 -0.25999 -1.44297e-20)
(1.05902 -0.246387 4.21457e-21)
(1.05848 -0.233919 5.92905e-21)
(1.05749 -0.222026 -4.1048e-21)
(1.0675 -0.259319 1.7768e-20)
(1.06676 -0.245908 -1.77138e-21)
(1.06585 -0.233554 -3.89536e-21)
(1.0645 -0.221837 2.48147e-21)
(1.07707 -0.272175 -1.93024e-20)
(1.07552 -0.258424 -2.25146e-20)
(1.07439 -0.245217 1.44033e-20)
(1.07313 -0.232991 1.58557e-20)
(1.07143 -0.221464 -4.23192e-21)
(1.08532 -0.270801 1.46483e-20)
(1.0834 -0.257313 1.74527e-20)
(1.08189 -0.244327 -4.49362e-20)
(1.0803 -0.232239 -1.84353e-20)
(1.07828 -0.220911 1.59786e-20)
(1.0934 -0.269212 -4.38889e-21)
(1.09112 -0.256 6.0488e-21)
(1.08926 -0.243246 1.6655e-20)
(1.08736 -0.231307 5.2633e-21)
(1.08505 -0.220187 -1.35174e-20)
(1.1013 -0.267423 -2.77368e-20)
(1.09868 -0.254497 1.14146e-20)
(1.09649 -0.241987 1.15923e-20)
(1.09431 -0.230204 3.43833e-20)
(1.09173 -0.219295 -6.31328e-21)
(1.10901 -0.265446 -1.70045e-21)
(1.10608 -0.252814 2.68547e-20)
(1.10359 -0.240562 1.27396e-20)
(1.10115 -0.22894 -4.70645e-20)
(1.09831 -0.218244 -7.42838e-21)
(1.11653 -0.263294 -1.91361e-20)
(1.11332 -0.250966 1.37527e-21)
(1.11053 -0.238982 -1.57916e-20)
(1.10788 -0.227526 1.47961e-20)
(1.10478 -0.217037 2.66134e-20)
(1.12794 -0.273449 2.5337e-20)
(1.12387 -0.260982 4.83891e-20)
(1.12038 -0.248961 -5.34989e-20)
(1.11732 -0.237265 9.88481e-21)
(1.11445 -0.225964 2.60233e-20)
(1.11121 -0.215696 -1.7614e-20)
(1.12727 -0.246811 -3.69298e-20)
(1.12395 -0.235399 1.52834e-20)
(1.12086 -0.224305 -9.17406e-21)
(1.11759 -0.214242 3.34111e-20)
(0.970157 -0.181365 0)
(0.966881 -0.1603 0)
(0.961091 -0.150786 0)
(0.959698 -0.133174 0)
(0.957673 -0.121948 0)
(0.958411 -0.107503 0)
(0.958807 -0.0966557 0)
(0.961008 -0.0847209 0)
(0.962908 -0.0751138 0)
(0.965962 -0.0653254 0)
(0.968684 -0.0572233 0)
(0.972098 -0.049309 0)
(0.975128 -0.0426927 0)
(0.97853 -0.0363896 0)
(0.981505 -0.0311094 0)
(0.984636 -0.0261554 0)
(0.987311 -0.0220095 0)
(0.990003 -0.0181487 0)
(0.99223 -0.0149159 0)
(0.994387 -0.0119066 0)
(0.996077 -0.00936916 0)
(0.997634 -0.00697699 0)
(0.998714 -0.00490547 0)
(0.999597 -0.00287162 0)
(0.999958 -0.000982559 0)
(0.976746 -0.176667 0)
(0.973247 -0.157661 0)
(0.9672 -0.148816 0)
(0.965288 -0.132195 0)
(0.962723 -0.121621 0)
(0.962857 -0.107583 0)
(0.962723 -0.0971399 0)
(0.964384 -0.0853748 0)
(0.965817 -0.0759574 0)
(0.968429 -0.0662105 0)
(0.970765 -0.0581593 0)
(0.973834 -0.0502123 0)
(0.976561 -0.0435692 0)
(0.979703 -0.0371954 0)
(0.982449 -0.0318515 0)
(0.985389 -0.0268128 0)
(0.987897 -0.0225908 0)
(0.990453 -0.0186458 0)
(0.992562 -0.0153387 0)
(0.994625 -0.0122528 0)
(0.996235 -0.00964778 0)
(0.997732 -0.00718786 0)
(0.998763 -0.00505549 0)
(0.999615 -0.00296014 0)
(0.999958 -0.001013 0)
(0.983085 -0.172431 0)
(0.979374 -0.154944 0)
(0.973163 -0.146633 0)
(0.970815 -0.131007 0)
(0.967787 -0.121003 0)
(0.96737 -0.107444 0)
(0.966741 -0.0973943 0)
(0.967873 -0.0858447 0)
(0.968852 -0.0766351 0)
(0.971012 -0.0669603 0)
(0.972963 -0.0589825 0)
(0.975669 -0.0510248 0)
(0.978089 -0.0443734 0)
(0.980952 -0.0379444 0)
(0.983461 -0.0325501 0)
(0.986195 -0.027437 0)
(0.988528 -0.0231478 0)
(0.990936 -0.0191251 0)
(0.99292 -0.015749 0)
(0.99488 -0.0125903 0)
(0.996405 -0.0099209 0)
(0.997836 -0.00739532 0)
(0.998816 -0.00520372 0)
(0.999634 -0.00304786 0)
(0.999958 -0.00104322 0)
(0.989183 -0.168208 0)
(0.985304 -0.152008 0)
(0.978995 -0.144229 0)
(0.976264 -0.12957 0)
(0.972839 -0.120098 0)
(0.971922 -0.10708 0)
(0.970824 -0.0974205 0)
(0.971447 -0.0861369 0)
(0.971983 -0.0771534 0)
(0.973689 -0.0675842 0)
(0.975257 -0.0597013 0)
(0.977589 -0.0517551 0)
(0.979695 -0.0451131 0)
(0.982266 -0.0386434 0)
(0.984533 -0.0332109 0)
(0.987046 -0.0280327 0)
(0.989198 -0.0236839 0)
(0.991447 -0.0195891 0)
(0.993301 -0.0161485 0)
(0.99515 -0.0129201 0)
(0.996587 -0.0101888 0)
(0.997946 -0.0075992 0)
(0.998872 -0.00534981 0)
(0.999653 -0.00313435 0)
(0.999959 -0.00107307 0)
(0.995055 -0.163907 0)
(0.991031 -0.148856 0)
(0.984682 -0.141629 0)
(0.981611 -0.127895 0)
(0.977851 -0.118938 0)
(0.976476 -0.106501 0)
(0.974941 -0.0972302 0)
(0.975079 -0.0862586 0)
(0.975183 -0.0775148 0)
(0.976442 -0.0680849 0)
(0.977627 -0.0603155 0)
(0.97958 -0.0524033 0)
(0.98137 -0.0457871 0)
(0.983639 -0.0392914 0)
(0.985657 -0.0338327 0)
(0.98794 -0.0285985 0)
(0.989905 -0.0241981 0)
(0.991984 -0.0200366 0)
(0.993704 -0.0165363 0)
(0.995434 -0.0132412 0)
(0.996779 -0.0104508 0)
(0.99806 -0.00779883 0)
(0.998933 -0.00549329 0)
(0.999672 -0.00321924 0)
(0.99996 -0.00110243 0)
(1.00071 -0.159539 0)
(0.996548 -0.145523 0)
(0.990203 -0.138852 0)
(0.98683 -0.125994 0)
(0.982795 -0.117544 0)
(0.981 -0.105708 0)
(0.979064 -0.0968259 0)
(0.978743 -0.0862049 0)
(0.97843 -0.0777122 0)
(0.979252 -0.0684548 0)
(0.980058 -0.0608156 0)
(0.981632 -0.0529616 0)
(0.983104 -0.0463869 0)
(0.985064 -0.0398815 0)
(0.986829 -0.0344089 0)
(0.988873 -0.0291292 0)
(0.990645 -0.0246857 0)
(0.992547 -0.020464 0)
(0.994127 -0.0169093 0)
(0.995732 -0.0135514 0)
(0.996981 -0.0107052 0)
(0.998181 -0.00799302 0)
(0.998996 -0.00563337 0)
(0.999693 -0.00330209 0)
(0.999962 -0.00113116 0)
(1.00613 -0.155106 0)
(1.00185 -0.14204 0)
(0.99554 -0.13591 0)
(0.991901 -0.123876 0)
(0.987647 -0.11593 0)
(0.985466 -0.104699 0)
(0.98317 -0.0962089 0)
(0.982416 -0.085969 0)
(0.981705 -0.0777387 0)
(0.982104 -0.0686857 0)
(0.982537 -0.0611924 0)
(0.983736 -0.0534216 0)
(0.984888 -0.0469041 0)
(0.986536 -0.0404068 0)
(0.988043 -0.0349329 0)
(0.989842 -0.0296195 0)
(0.991417 -0.0251421 0)
(0.993135 -0.0208675 0)
(0.99457 -0.0172646 0)
(0.996043 -0.0138483 0)
(0.997194 -0.01095 0)
(0.998307 -0.00818042 0)
(0.999064 -0.00576912 0)
(0.999713 -0.00338236 0)
(0.999964 -0.00115909 0)
(1.01132 -0.150603 0)
(1.00692 -0.138421 0)
(1.00068 -0.132811 0)
(0.996808 -0.121553 0)
(0.992383 -0.114106 0)
(0.989851 -0.103476 0)
(0.987236 -0.0953827 0)
(0.986075 -0.0855464 0)
(0.984991 -0.0775901 0)
(0.984983 -0.0687707 0)
(0.985053 -0.0614384 0)
(0.985882 -0.0537764 0)
(0.986715 -0.0473312 0)
(0.988051 -0.0408608 0)
(0.989297 -0.0353986 0)
(0.990845 -0.0300644 0)
(0.992219 -0.0255625 0)
(0.993746 -0.0212436 0)
(0.995033 -0.0175989 0)
(0.996369 -0.0141295 0)
(0.997418 -0.0111835 0)
(0.998438 -0.00835963 0)
(0.999135 -0.00589957 0)
(0.999735 -0.00345947 0)
(0.999966 -0.00118604 0)
(1.01625 -0.146028 0)
(1.01177 -0.13468 0)
(1.0056 -0.129562 0)
(1.00154 -0.119039 0)
(0.996982 -0.112083 0)
(0.994137 -0.102043 0)
(0.991243 -0.094352 0)
(0.989703 -0.0849345 0)
(0.988273 -0.0772645 0)
(0.987875 -0.068704 0)
(0.987594 -0.0615479 0)
(0.988061 -0.0540192 0)
(0.988579 -0.0476613 0)
(0.989603 -0.0412376 0)
(0.990586 -0.0357997 0)
(0.991882 -0.0304589 0)
(0.993048 -0.0259425 0)
(0.994381 -0.0215885 0)
(0.995514 -0.017909 0)
(0.996708 -0.0143925 0)
(0.997651 -0.0114034 0)
(0.998576 -0.00852918 0)
(0.999209 -0.00602363 0)
(0.999757 -0.0035328 0)
(0.999969 -0.00121178 0)
(1.02093 -0.141384 0)
(1.01637 -0.130828 0)
(1.0103 -0.126171 0)
(1.00608 -0.116347 0)
(1.00143 -0.109869 0)
(0.998309 -0.100407 0)
(0.995174 -0.0931218 0)
(0.993283 -0.084133 0)
(0.991535 -0.0767609 0)
(0.990766 -0.0684808 0)
(0.990151 -0.0615158 0)
(0.990265 -0.0541439 0)
(0.990473 -0.0478882 0)
(0.991188 -0.041531 0)
(0.991907 -0.0361305 0)
(0.992948 -0.0307979 0)
(0.993904 -0.0262771 0)
(0.995038 -0.0218983 0)
(0.996014 -0.0181914 0)
(0.99706 -0.0146347 0)
(0.997893 -0.0116077 0)
(0.998719 -0.00868749 0)
(0.999287 -0.00614013 0)
(0.999781 -0.00360172 0)
(0.999972 -0.00123609 0)
(1.02535 -0.13668 0)
(1.02073 -0.126876 0)
(1.01478 -0.122647 0)
(1.01043 -0.113491 0)
(1.00571 -0.107475 0)
(1.00235 -0.0985773 0)
(0.999012 -0.0916973 0)
(0.996803 -0.0831428 0)
(0.994764 -0.0760791 0)
(0.993644 -0.0680973 0)
(0.992712 -0.061338 0)
(0.992485 -0.0541444 0)
(0.992391 -0.0480059 0)
(0.9928 -0.0417349 0)
(0.993256 -0.036385 0)
(0.994041 -0.0310761 0)
(0.994785 -0.0265614 0)
(0.995716 -0.0221691 0)
(0.99653 -0.0184426 0)
(0.997426 -0.0148532 0)
(0.998145 -0.0117939 0)
(0.998868 -0.00883288 0)
(0.999368 -0.00624782 0)
(0.999806 -0.00366551 0)
(0.999975 -0.00125871 0)
(1.0295 -0.131924 0)
(1.02484 -0.122833 0)
(1.01902 -0.119 0)
(1.01458 -0.110484 0)
(1.00982 -0.104909 0)
(1.00626 -0.0965618 0)
(1.00274 -0.0900842 0)
(1.00025 -0.0819664 0)
(0.997947 -0.0752198 0)
(0.996499 -0.0675508 0)
(0.995269 -0.0610111 0)
(0.994713 -0.0540154 0)
(0.994325 -0.048009 0)
(0.994435 -0.0418435 0)
(0.99463 -0.0365574 0)
(0.995159 -0.0312883 0)
(0.995687 -0.0267906 0)
(0.996414 -0.0223967 0)
(0.997062 -0.0186588 0)
(0.997804 -0.0150451 0)
(0.998406 -0.0119595 0)
(0.999024 -0.00896357 0)
(0.999452 -0.00634533 0)
(0.999831 -0.00372345 0)
(0.999978 -0.00127936 0)
(1.03339 -0.127123 0)
(1.02871 -0.11871 0)
(1.02303 -0.115242 0)
(1.01852 -0.107336 0)
(1.01375 -0.102182 0)
(1.01002 -0.0943701 0)
(1.00636 -0.0882888 0)
(1.00361 -0.0806077 0)
(1.00107 -0.0741842 0)
(0.999319 -0.0668395 0)
(0.997809 -0.0605324 0)
(0.996939 -0.0537523 0)
(0.996269 -0.0478925 0)
(0.996085 -0.041851 0)
(0.996023 -0.0366424 0)
(0.996298 -0.0314291 0)
(0.99661 -0.0269597 0)
(0.99713 -0.0225767 0)
(0.997609 -0.0188362 0)
(0.998195 -0.0152074 0)
(0.998676 -0.012102 0)
(0.999185 -0.00907767 0)
(0.999539 -0.00643123 0)
(0.999858 -0.00377476 0)
(0.999981 -0.00129773 0)
(1.03701 -0.122286 0)
(1.03234 -0.114516 0)
(1.02681 -0.111384 0)
(1.02225 -0.104059 0)
(1.0175 -0.0993044 0)
(1.01363 -0.0920115 0)
(1.00984 -0.0863178 0)
(1.00687 -0.079071 0)
(1.00412 -0.0729744 0)
(1.00209 -0.0659631 0)
(1.00032 -0.0598998 0)
(0.999155 -0.0533509 0)
(0.998214 -0.047652 0)
(0.997744 -0.041752 0)
(0.99743 -0.0366345 0)
(0.997453 -0.0314932 0)
(0.997549 -0.0270637 0)
(0.997862 -0.0227049 0)
(0.99817 -0.0189708 0)
(0.998596 -0.0153368 0)
(0.998953 -0.0122186 0)
(0.999351 -0.0091732 0)
(0.999629 -0.006504 0)
(0.999887 -0.0038186 0)
(0.999984 -0.00131352 0)
(1.04038 -0.117422 0)
(1.03573 -0.110259 0)
(1.03035 -0.107434 0)
(1.02578 -0.100663 0)
(1.02105 -0.096286 0)
(1.01707 -0.0894953 0)
(1.01319 -0.0841785 0)
(1.01003 -0.0773617 0)
(1.00709 -0.0715932 0)
(1.00481 -0.0649218 0)
(1.0028 -0.0591122 0)
(1.00135 -0.0528081 0)
(1.00015 -0.0472835 0)
(0.999407 -0.0415414 0)
(0.998846 -0.0365289 0)
(0.998622 -0.0314754 0)
(0.998502 -0.0270977 0)
(0.998608 -0.0227765 0)
(0.998743 -0.0190586 0)
(0.999008 -0.01543 0)
(0.999237 -0.0123064 0)
(0.999522 -0.00924808 0)
(0.999721 -0.00656205 0)
(0.999916 -0.00385411 0)
(0.999986 -0.00132637 0)
(1.0435 -0.112537 0)
(1.03888 -0.105947 0)
(1.03366 -0.103404 0)
(1.02909 -0.0971592 0)
(1.0244 -0.0931372 0)
(1.02034 -0.0868304 0)
(1.0164 -0.0818784 0)
(1.01307 -0.0754853 0)
(1.00997 -0.0700439 0)
(1.00746 -0.0637169 0)
(1.00523 -0.0581687 0)
(1.00352 -0.0521212 0)
(1.00207 -0.0467836 0)
(1.00107 -0.0412147 0)
(1.00027 -0.0363207 0)
(0.999798 -0.0313706 0)
(0.999466 -0.0270572 0)
(0.999365 -0.0227873 0)
(0.999325 -0.0190956 0)
(0.999428 -0.0154836 0)
(0.999528 -0.0123627 0)
(0.999698 -0.00930012 0)
(0.999815 -0.00660372 0)
(0.999947 -0.00388038 0)
(0.999989 -0.00133593 0)
(1.04637 -0.107639 0)
(1.04181 -0.101588 0)
(1.03674 -0.0993028 0)
(1.0322 -0.0935558 0)
(1.02756 -0.0898677 0)
(1.02345 -0.0840258 0)
(1.01945 -0.0794256 0)
(1.01598 -0.0734478 0)
(1.01275 -0.0683308 0)
(1.01003 -0.0623502 0)
(1.0076 -0.0570696 0)
(1.00565 -0.0512886 0)
(1.00397 -0.0461495 0)
(1.00271 -0.0407679 0)
(1.00168 -0.0360056 0)
(1.00098 -0.0311739 0)
(1.00044 -0.0269373 0)
(1.00013 -0.0227326 0)
(0.999915 -0.0190778 0)
(0.999855 -0.015494 0)
(0.999824 -0.0123844 0)
(0.999878 -0.00932706 0)
(0.999912 -0.00662732 0)
(0.999978 -0.00389645 0)
(0.999991 -0.00134183 0)
(1.04901 -0.102732 0)
(1.04451 -0.0971894 0)
(1.0396 -0.0951383 0)
(1.03509 -0.0898619 0)
(1.03052 -0.086487 0)
(1.02638 -0.08109 0)
(1.02235 -0.0768278 0)
(1.01877 -0.0712554 0)
(1.01541 -0.0664583 0)
(1.01252 -0.0608244 0)
(1.00991 -0.0558156 0)
(1.00773 -0.0503092 0)
(1.00584 -0.0453788 0)
(1.00434 -0.0401972 0)
(1.00309 -0.0355797 0)
(1.00216 -0.0308808 0)
(1.00141 -0.0267338 0)
(1.0009 -0.022608 0)
(1.00051 -0.0190013 0)
(1.00029 -0.0154578 0)
(1.00012 -0.0123686 0)
(1.00006 -0.00932655 0)
(1.00001 -0.00663112 0)
(1.00001 -0.00390133 0)
(0.999994 -0.00134369 0)
(1.05142 -0.0978226 0)
(1.04699 -0.0927559 0)
(1.04224 -0.0909183 0)
(1.03778 -0.0860854 0)
(1.03329 -0.0830038 0)
(1.02913 -0.0780314 0)
(1.02508 -0.0740928 0)
(1.02141 -0.0689145 0)
(1.01796 -0.0644315 0)
(1.01491 -0.0591424 0)
(1.01214 -0.0544081 0)
(1.00976 -0.0491826 0)
(1.00767 -0.04447 0)
(1.00595 -0.0394998 0)
(1.00448 -0.0350393 0)
(1.00333 -0.0304869 0)
(1.00238 -0.0264423 0)
(1.00167 -0.0224091 0)
(1.00111 -0.0188623 0)
(1.00073 -0.0153713 0)
(1.00043 -0.0123124 0)
(1.00025 -0.00929619 0)
(1.00011 -0.00661336 0)
(1.00004 -0.00389398 0)
(0.999996 -0.00134114 0)
(1.0536 -0.0929138 0)
(1.04926 -0.0882929 0)
(1.04466 -0.0866494 0)
(1.04027 -0.0822338 0)
(1.03586 -0.0794262 0)
(1.0317 -0.0748578 0)
(1.02766 -0.0712284 0)
(1.02392 -0.0664315 0)
(1.02039 -0.0622557 0)
(1.01721 -0.0573078 0)
(1.01428 -0.0528491 0)
(1.01173 -0.0479089 0)
(1.00945 -0.0434218 0)
(1.00752 -0.0386733 0)
(1.00585 -0.0343813 0)
(1.00448 -0.0299884 0)
(1.00334 -0.026059 0)
(1.00244 -0.0221319 0)
(1.00171 -0.0186568 0)
(1.00116 -0.0152309 0)
(1.00073 -0.0122128 0)
(1.00044 -0.00923355 0)
(1.00021 -0.00657229 0)
(1.00008 -0.00387332 0)
(0.999997 -0.00133379 0)
(1.05557 -0.0880086 0)
(1.05132 -0.0838047 0)
(1.04688 -0.0823375 0)
(1.04256 -0.0783136 0)
(1.03823 -0.0757617 0)
(1.0341 -0.0715767 0)
(1.03006 -0.0682419 0)
(1.02628 -0.0638129 0)
(1.02268 -0.0599362 0)
(1.01939 -0.0553244 0)
(1.01634 -0.0511411 0)
(1.01362 -0.046489 0)
(1.01117 -0.0422337 0)
(1.00905 -0.0377157 0)
(1.00719 -0.033603 0)
(1.00562 -0.0293818 0)
(1.00429 -0.0255801 0)
(1.00321 -0.0217723 0)
(1.00231 -0.0183813 0)
(1.0016 -0.0150332 0)
(1.00104 -0.0120669 0)
(1.00062 -0.00913617 0)
(1.00031 -0.00650618 0)
(1.00011 -0.00383827 0)
(0.999999 -0.00132127 0)
(1.05734 -0.0831089 0)
(1.05319 -0.0792946 0)
(1.04889 -0.0779873 0)
(1.04466 -0.0743306 0)
(1.04042 -0.072017 0)
(1.03631 -0.0681948 0)
(1.0323 -0.0651401 0)
(1.02849 -0.0610649 0)
(1.02484 -0.0574786 0)
(1.02146 -0.0531964 0)
(1.0183 -0.0492869 0)
(1.01544 -0.0449242 0)
(1.01283 -0.0409059 0)
(1.01053 -0.0366257 0)
(1.00849 -0.0327023 0)
(1.00674 -0.028664 0)
(1.00522 -0.0250023 0)
(1.00396 -0.0213267 0)
(1.0029 -0.0180324 0)
(1.00204 -0.0147748 0)
(1.00134 -0.0118719 0)
(1.00081 -0.0090016 0)
(1.00041 -0.00641332 0)
(1.00015 -0.0037877 0)
(1 -0.00130322 0)
(1.05892 -0.0782158 0)
(1.05487 -0.074765 0)
(1.05071 -0.0736027 0)
(1.04656 -0.0702897 0)
(1.04242 -0.0681979 0)
(1.03835 -0.0647186 0)
(1.03437 -0.0619296 0)
(1.03054 -0.0581933 0)
(1.02687 -0.0548882 0)
(1.02341 -0.0509281 0)
(1.02016 -0.0472897 0)
(1.01717 -0.0432163 0)
(1.01443 -0.0394388 0)
(1.01196 -0.0354027 0)
(1.00976 -0.0316774 0)
(1.00783 -0.0278325 0)
(1.00614 -0.0243227 0)
(1.0047 -0.0207917 0)
(1.00348 -0.0176067 0)
(1.00247 -0.0144525 0)
(1.00165 -0.0116252 0)
(1.001 -0.00882748 0)
(1.00051 -0.00629205 0)
(1.00018 -0.0037205 0)
(1 -0.00127929 0)
(1.06031 -0.0733293 0)
(1.05636 -0.0702176 0)
(1.05234 -0.0691865 0)
(1.04829 -0.0661948 0)
(1.04423 -0.0643093 0)
(1.04022 -0.0611533 0)
(1.03628 -0.058616 0)
(1.03245 -0.055204 0)
(1.02875 -0.0521703 0)
(1.02523 -0.0485238 0)
(1.02191 -0.0451529 0)
(1.01881 -0.0413672 0)
(1.01594 -0.0378334 0)
(1.01333 -0.0340463 0)
(1.01097 -0.0305272 0)
(1.00888 -0.0268852 0)
(1.00703 -0.0235386 0)
(1.00542 -0.0201643 0)
(1.00405 -0.0171013 0)
(1.0029 -0.0140633 0)
(1.00194 -0.011324 0)
(1.00119 -0.00861151 0)
(1.00061 -0.00614077 0)
(1.00022 -0.00363555 0)
(1 -0.00124915 0)
(1.06153 -0.0684485 0)
(1.05769 -0.0656528 0)
(1.0538 -0.0647405 0)
(1.04983 -0.062049 0)
(1.04588 -0.0603552 0)
(1.04192 -0.0575039 0)
(1.03802 -0.0552045 0)
(1.0342 -0.052102 0)
(1.0305 -0.0493298 0)
(1.02693 -0.0459877 0)
(1.02355 -0.04288 0)
(1.02035 -0.0393795 0)
(1.01738 -0.0360911 0)
(1.01464 -0.0325566 0)
(1.01214 -0.0292509 0)
(1.00989 -0.0258204 0)
(1.00788 -0.0226478 0)
(1.00613 -0.0194418 0)
(1.0046 -0.0165134 0)
(1.00331 -0.0136044 0)
(1.00223 -0.010966 0)
(1.00137 -0.00835153 0)
(1.00071 -0.00595795 0)
(1.00025 -0.00353179 0)
(1 -0.0012125 0)
(1.06258 -0.0635714 0)
(1.05885 -0.0610701 0)
(1.05508 -0.0602655 0)
(1.05121 -0.0578543 0)
(1.04735 -0.0563385 0)
(1.04345 -0.0537739 0)
(1.03961 -0.0516995 0)
(1.0358 -0.0488919 0)
(1.0321 -0.0463712 0)
(1.02851 -0.043324 0)
(1.02507 -0.0404743 0)
(1.0218 -0.0372557 0)
(1.01873 -0.0342134 0)
(1.01587 -0.0309343 0)
(1.01324 -0.0278481 0)
(1.01085 -0.024637 0)
(1.00871 -0.0216487 0)
(1.0068 -0.018622 0)
(1.00514 -0.0158407 0)
(1.00371 -0.0130733 0)
(1.00252 -0.010549 0)
(1.00155 -0.00804554 0)
(1.0008 -0.00574216 0)
(1.00028 -0.00340821 0)
(1 -0.00116904 0)
(1.06349 -0.058695 0)
(1.05986 -0.0564681 0)
(1.05621 -0.0557609 0)
(1.05244 -0.0536115 0)
(1.04866 -0.0522613 0)
(1.04483 -0.0499663 0)
(1.04104 -0.0481044 0)
(1.03726 -0.0455776 0)
(1.03357 -0.0432984 0)
(1.02995 -0.0405363 0)
(1.02647 -0.0379392 0)
(1.02314 -0.0349983 0)
(1.01999 -0.0322022 0)
(1.01703 -0.0291804 0)
(1.01428 -0.026319 0)
(1.01177 -0.0233343 0)
(1.00949 -0.0205398 0)
(1.00745 -0.0177031 0)
(1.00565 -0.0150811 0)
(1.0041 -0.0124678 0)
(1.00279 -0.0100709 0)
(1.00172 -0.00769175 0)
(1.00089 -0.0054921 0)
(1.00032 -0.00326388 0)
(1 -0.00111853 0)
(1.06425 -0.0538152 0)
(1.06073 -0.0518441 0)
(1.05718 -0.0512254 0)
(1.05351 -0.0493204 0)
(1.04981 -0.0481243 0)
(1.04606 -0.0460829 0)
(1.04232 -0.0444218 0)
(1.03857 -0.0421621 0)
(1.03489 -0.0401147 0)
(1.03127 -0.0376281 0)
(1.02776 -0.0352778 0)
(1.02438 -0.03261 0)
(1.02115 -0.0300594 0)
(1.0181 -0.027296 0)
(1.01526 -0.0246641 0)
(1.01263 -0.021912 0)
(1.01023 -0.0193203 0)
(1.00806 -0.0166838 0)
(1.00614 -0.014233 0)
(1.00447 -0.0117862 0)
(1.00305 -0.00953013 0)
(1.00189 -0.00728861 0)
(1.00098 -0.0052066 0)
(1.00035 -0.00309796 0)
(1.00001 -0.00106072 0)
(1.06489 -0.0489264 0)
(1.06147 -0.0471941 0)
(1.05802 -0.0466558 0)
(1.05443 -0.0449795 0)
(1.05083 -0.0439269 0)
(1.04714 -0.0421243 0)
(1.04345 -0.0406531 0)
(1.03974 -0.0386476 0)
(1.03608 -0.0368227 0)
(1.03246 -0.034602 0)
(1.02893 -0.0324927 0)
(1.0255 -0.0300933 0)
(1.02222 -0.027787 0)
(1.0191 -0.0252825 0)
(1.01616 -0.0228841 0)
(1.01343 -0.0203702 0)
(1.01092 -0.0179898 0)
(1.00864 -0.015563 0)
(1.0066 -0.0132952 0)
(1.00482 -0.0110271 0)
(1.0033 -0.0089252 0)
(1.00205 -0.00683484 0)
(1.00107 -0.00488466 0)
(1.00038 -0.00290976 0)
(1.00001 -0.000995421 0)
(1.06541 -0.0440219 0)
(1.06209 -0.0425129 0)
(1.05873 -0.042048 0)
(1.05523 -0.0405858 0)
(1.0517 -0.0396673 0)
(1.04808 -0.0380899 0)
(1.04445 -0.0367986 0)
(1.04078 -0.0350352 0)
(1.03714 -0.0334241 0)
(1.03352 -0.0314603 0)
(1.02998 -0.0295862 0)
(1.02653 -0.0274502 0)
(1.0232 -0.0253869 0)
(1.02 -0.0231414 0)
(1.01699 -0.02098 0)
(1.01416 -0.0187093 0)
(1.01155 -0.0165483 0)
(1.00917 -0.0143404 0)
(1.00703 -0.0122668 0)
(1.00515 -0.0101894 0)
(1.00354 -0.00825514 0)
(1.00219 -0.00632947 0)
(1.00115 -0.00452552 0)
(1.00041 -0.00269873 0)
(1.00001 -0.00092248 0)
(1.06583 -0.0390935 0)
(1.0626 -0.0377938 0)
(1.05932 -0.0373961 0)
(1.05591 -0.0361351 0)
(1.05245 -0.0353422 0)
(1.04889 -0.0339776 0)
(1.04531 -0.0328571 0)
(1.04169 -0.031325 0)
(1.03807 -0.0299196 0)
(1.03447 -0.0282041 0)
(1.03092 -0.0265599 0)
(1.02744 -0.0246826 0)
(1.02407 -0.0228609 0)
(1.02082 -0.0208742 0)
(1.01774 -0.0189529 0)
(1.01483 -0.0169303 0)
(1.01214 -0.0149961 0)
(1.00966 -0.0130161 0)
(1.00743 -0.0111477 0)
(1.00545 -0.00927283 0)
(1.00375 -0.00751934 0)
(1.00233 -0.0057719 0)
(1.00122 -0.00412864 0)
(1.00043 -0.00246449 0)
(1.00001 -0.000841789 0)
(1.06616 -0.0341311 0)
(1.06301 -0.0330284 0)
(1.05981 -0.0326926 0)
(1.05647 -0.0316212 0)
(1.05308 -0.0309466 0)
(1.04958 -0.0297839 0)
(1.04605 -0.0288263 0)
(1.04247 -0.0275155 0)
(1.03888 -0.0263088 0)
(1.03529 -0.0248339 0)
(1.03174 -0.0234147 0)
(1.02824 -0.0217919 0)
(1.02484 -0.0202103 0)
(1.02155 -0.0184826 0)
(1.01841 -0.0168044 0)
(1.01544 -0.0150343 0)
(1.01266 -0.0133341 0)
(1.0101 -0.0115905 0)
(1.00779 -0.00993806 0)
(1.00573 -0.00827727 0)
(1.00395 -0.00671768 0)
(1.00246 -0.00516192 0)
(1.00129 -0.00369381 0)
(1.00046 -0.00220689 0)
(1.00001 -0.000753297 0)
(1.06641 -0.0291227 0)
(1.06334 -0.0282062 0)
(1.0602 -0.027928 0)
(1.05693 -0.0270363 0)
(1.0536 -0.0264739 0)
(1.05016 -0.0255035 0)
(1.04667 -0.024702 0)
(1.04313 -0.023604 0)
(1.03957 -0.0225898 0)
(1.03599 -0.0213491 0)
(1.03244 -0.0201508 0)
(1.02894 -0.0187787 0)
(1.02551 -0.0174365 0)
(1.02219 -0.0159679 0)
(1.019 -0.0145358 0)
(1.01597 -0.0130227 0)
(1.01313 -0.0115636 0)
(1.0105 -0.0100647 0)
(1.00811 -0.00863869 0)
(1.00597 -0.00720336 0)
(1.00412 -0.00585055 0)
(1.00257 -0.00449978 0)
(1.00135 -0.00322115 0)
(1.00048 -0.00192598 0)
(1.00001 -0.000657027 0)
(1.06659 -0.0240541 0)
(1.06359 -0.0233148 0)
(1.06051 -0.0230908 0)
(1.0573 -0.0223704 0)
(1.05402 -0.0219152 0)
(1.05063 -0.0211294 0)
(1.04719 -0.0204784 0)
(1.04367 -0.0195863 0)
(1.04014 -0.0187597 0)
(1.03658 -0.0177477 0)
(1.03303 -0.0167671 0)
(1.02952 -0.0156432 0)
(1.02608 -0.01454 0)
(1.02273 -0.0133313 0)
(1.0195 -0.0121486 0)
(1.01642 -0.0108972 0)
(1.01352 -0.00968623 0)
(1.01083 -0.00844038 0)
(1.00838 -0.00725105 0)
(1.00619 -0.00605236 0)
(1.00428 -0.00491896 0)
(1.00267 -0.00378626 0)
(1.0014 -0.00271118 0)
(1.0005 -0.00162208 0)
(1.00001 -0.000553081 0)
(1.06672 -0.0189085 0)
(1.06378 -0.0183393 0)
(1.06074 -0.0181668 0)
(1.05759 -0.0176114 0)
(1.05434 -0.0172596 0)
(1.051 -0.0166522 0)
(1.04759 -0.0161477 0)
(1.04411 -0.0154562 0)
(1.0406 -0.0148137 0)
(1.03705 -0.0140267 0)
(1.03351 -0.0132619 0)
(1.03 -0.0123847 0)
(1.02654 -0.0115212 0)
(1.02317 -0.0105741 0)
(1.01991 -0.00964461 0)
(1.01679 -0.0086599 0)
(1.01385 -0.00770423 0)
(1.01112 -0.00671977 0)
(1.00861 -0.00577727 0)
(1.00636 -0.00482625 0)
(1.0044 -0.00392459 0)
(1.00275 -0.00302275 0)
(1.00145 -0.0021649 0)
(1.00051 -0.00129582 0)
(1.00001 -0.000441659 0)
(1.06681 -0.013666 0)
(1.06391 -0.013262 0)
(1.06091 -0.0131395 0)
(1.0578 -0.0127444 0)
(1.05459 -0.0124936 0)
(1.05128 -0.0120605 0)
(1.0479 -0.0116999 0)
(1.04444 -0.0112057 0)
(1.04094 -0.0107454 0)
(1.03741 -0.0101815 0)
(1.03388 -0.00963228 0)
(1.03037 -0.00900185 0)
(1.0269 -0.00837988 0)
(1.02351 -0.00769708 0)
(1.02023 -0.00702546 0)
(1.01708 -0.00631318 0)
(1.01411 -0.00562033 0)
(1.01133 -0.00490582 0)
(1.00879 -0.00422025 0)
(1.0065 -0.00352776 0)
(1.00451 -0.00286983 0)
(1.00282 -0.00221124 0)
(1.00148 -0.00158379 0)
(1.00052 -0.000948151 0)
(1.00001 -0.00032309 0)
(1.06686 -0.00830414 0)
(1.06399 -0.00806205 0)
(1.06102 -0.00798878 0)
(1.05793 -0.00775141 0)
(1.05475 -0.00760053 0)
(1.05147 -0.00733986 0)
(1.0481 -0.00712256 0)
(1.04467 -0.00682457 0)
(1.04118 -0.00654672 0)
(1.03766 -0.00620605 0)
(1.03413 -0.00587387 0)
(1.03062 -0.00549226 0)
(1.02715 -0.00511526 0)
(1.02374 -0.004701 0)
(1.02045 -0.00429296 0)
(1.01728 -0.00385976 0)
(1.01429 -0.00343781 0)
(1.01149 -0.00300222 0)
(1.00892 -0.00258371 0)
(1.0066 -0.00216051 0)
(1.00458 -0.00175794 0)
(1.00287 -0.00135459 0)
(1.00151 -0.000970083 0)
(1.00053 -0.000580595 0)
(1.00001 -0.000197905 0)
(1.06688 -0.00279575 0)
(1.06403 -0.00271393 0)
(1.06107 -0.00269018 0)
(1.058 -0.00261027 0)
(1.05483 -0.00256011 0)
(1.05156 -0.00247257 0)
(1.04821 -0.00239993 0)
(1.04478 -0.00229992 0)
(1.0413 -0.00220682 0)
(1.03779 -0.00209243 0)
(1.03426 -0.00198096 0)
(1.03075 -0.00185271 0)
(1.02727 -0.00172602 0)
(1.02387 -0.00158664 0)
(1.02056 -0.00144932 0)
(1.01739 -0.00130339 0)
(1.01438 -0.00116119 0)
(1.01157 -0.00101427 0)
(1.00898 -0.000873051 0)
(1.00665 -0.000730115 0)
(1.00461 -0.000594095 0)
(1.00289 -0.000457702 0)
(1.00152 -0.000327709 0)
(1.00054 -0.000196037 0)
(1.00001 -6.68725e-05 0)
(1.12157 -0.202747 1.155e-20)
(1.11982 -0.196626 -7.1387e-21)
(1.11864 -0.190454 -1.47379e-20)
(1.1178 -0.18452 1.89243e-20)
(1.11705 -0.178645 -2.00906e-22)
(1.11649 -0.172737 -1.25252e-20)
(1.11595 -0.167024 -4.62738e-21)
(1.11543 -0.161378 1.68445e-20)
(1.1156 -0.203924 4.65249e-21)
(1.11412 -0.197723 -1.92871e-20)
(1.11324 -0.191444 3.31866e-21)
(1.11265 -0.185481 1.37803e-20)
(1.11232 -0.179546 -1.10695e-20)
(1.11198 -0.173548 3.61437e-21)
(1.11165 -0.167778 2.087e-21)
(1.11132 -0.162082 5.22302e-21)
(1.11099 -0.156458 -1.83763e-21)
(1.11065 -0.150905 -6.78818e-21)
(1.11029 -0.145423 6.75814e-21)
(1.10992 -0.140017 -1.7901e-21)
(1.10956 -0.134666 -4.21624e-21)
(1.10916 -0.129356 2.59263e-21)
(1.10873 -0.124109 -5.96292e-21)
(1.10827 -0.118927 4.16337e-21)
(1.10779 -0.113803 -4.30334e-21)
(1.10728 -0.108734 1.6669e-21)
(1.10675 -0.103717 1.69392e-21)
(1.1062 -0.0987492 5.22455e-21)
(1.10562 -0.0938288 -7.05155e-21)
(1.10502 -0.0889539 3.05038e-21)
(1.1044 -0.0841257 -9.57583e-22)
(1.10378 -0.0793276 -3.15959e-21)
(1.10312 -0.074557 4.10466e-21)
(1.10245 -0.0698225 -1.05047e-21)
(1.10177 -0.0651148 8.19456e-23)
(1.10109 -0.060428 -6.5557e-23)
(1.10041 -0.0557562 -1.59217e-21)
(1.09973 -0.0510929 5.24615e-23)
(1.09907 -0.0464309 -2.09208e-22)
(1.09843 -0.0417617 1.9044e-21)
(1.09782 -0.0370759 4.7951e-23)
(1.09725 -0.0323625 -8.80597e-22)
(1.09672 -0.0276091 -2.77118e-22)
(1.09626 -0.0228003 1.29928e-21)
(1.09587 -0.0179233 2.00233e-21)
(1.09558 -0.0129429 -5.59426e-22)
(1.09537 -0.00788331 -3.23255e-21)
(1.09529 -0.00259344 2.94555e-22)
(1.10953 -0.204967 -2.62882e-20)
(1.10839 -0.198705 1.30649e-20)
(1.10782 -0.192396 6.56613e-21)
(1.10753 -0.18628 -1.5697e-20)
(1.10752 -0.180284 4.41957e-21)
(1.1074 -0.174336 3.30196e-22)
(1.10729 -0.168498 -7.7262e-21)
(1.10717 -0.16275 5.98978e-21)
(1.10704 -0.15708 -1.01512e-20)
(1.10689 -0.151485 -8.3733e-22)
(1.10672 -0.145964 1.18424e-20)
(1.10652 -0.140516 -5.38738e-21)
(1.10631 -0.135128 7.6465e-21)
(1.10606 -0.129793 -2.95441e-21)
(1.10578 -0.124519 2.74178e-21)
(1.10546 -0.11931 -3.2433e-21)
(1.10512 -0.11416 6.62664e-21)
(1.10474 -0.109067 -2.31951e-21)
(1.10433 -0.104027 -4.01134e-21)
(1.10389 -0.0990384 2.26856e-21)
(1.10342 -0.0940982 1.07697e-21)
(1.10292 -0.0892047 -1.34446e-21)
(1.10239 -0.0843557 -2.79224e-21)
(1.10185 -0.079541 -2.36734e-22)
(1.10128 -0.0747574 2.88824e-21)
(1.10069 -0.0700073 5.64888e-23)
(1.10009 -0.0652848 -9.14617e-22)
(1.09947 -0.0605838 2.93529e-21)
(1.09885 -0.0558983 1.01231e-21)
(1.09824 -0.0512219 -3.85884e-22)
(1.09763 -0.046547 1.25795e-22)
(1.09704 -0.0418653 3.52831e-21)
(1.09647 -0.0371672 1.38507e-21)
(1.09594 -0.0324417 9.05041e-22)
(1.09545 -0.0276762 1.15701e-22)
(1.09502 -0.0228554 -1.83709e-21)
(1.09466 -0.017966 -2.32901e-21)
(1.09438 -0.012974 -2.60116e-21)
(1.09419 -0.00790071 3.37124e-21)
(1.09412 -0.00259795 3.00234e-22)
(1.10345 -0.205827 -4.71795e-21)
(1.10261 -0.199542 8.56775e-21)
(1.10237 -0.193228 -2.05367e-20)
(1.10242 -0.187047 2.25878e-21)
(1.10259 -0.181004 2.56859e-20)
(1.10274 -0.175034 -8.93947e-21)
(1.10287 -0.169156 -1.27142e-20)
(1.10297 -0.163368 -4.50609e-21)
(1.10305 -0.15766 1.63916e-20)
(1.10309 -0.152029 -1.64224e-20)
(1.10311 -0.146473 1.13093e-20)
(1.10309 -0.140989 -1.6975e-21)
(1.10304 -0.135569 -2.88722e-21)
(1.10295 -0.13021 1.15187e-21)
(1.10282 -0.124913 3.50906e-21)
(1.10265 -0.119679 -8.08797e-21)
(1.10244 -0.114505 7.17349e-21)
(1.10219 -0.10939 -1.73747e-21)
(1.1019 -0.104329 5.22661e-22)
(1.10157 -0.0993206 -1.29397e-21)
(1.10121 -0.0943617 -1.11714e-21)
(1.10081 -0.0894503 2.26624e-21)
(1.10038 -0.0845829 -3.98717e-21)
(1.09993 -0.0797523 2.97925e-21)
(1.09944 -0.0749548 1.72857e-21)
(1.09893 -0.0701901 -1.99101e-21)
(1.0984 -0.0654534 2.97695e-22)
(1.09786 -0.0607386 3.92235e-22)
(1.0973 -0.0560399 -8.71774e-22)
(1.09674 -0.0513505 3.02758e-21)
(1.09619 -0.046663 -2.10727e-21)
(1.09565 -0.041969 -1.80665e-21)
(1.09513 -0.0372586 4.37796e-23)
(1.09463 -0.0325211 -7.90196e-22)
(1.09418 -0.0277436 2.2813e-21)
(1.09378 -0.0229109 -4.11586e-22)
(1.09345 -0.018009 7.10235e-22)
(1.09319 -0.0130055 -9.83433e-22)
(1.09301 -0.00791824 -2.51838e-21)
(1.09296 -0.00260303 -1.04413e-21)
(1.0973 -0.20658 -1.3489e-20)
(1.09674 -0.200277 1.32791e-20)
(1.09684 -0.193952 6.25161e-21)
(1.09721 -0.187729 -1.20783e-20)
(1.09763 -0.181653 -2.31964e-21)
(1.09803 -0.175664 5.42517e-21)
(1.09839 -0.169758 -3.58327e-21)
(1.09872 -0.163937 2.21007e-21)
(1.09902 -0.158197 1.30162e-20)
(1.09926 -0.152535 -1.54141e-20)
(1.09947 -0.146949 1.23877e-20)
(1.09963 -0.141436 -9.65345e-21)
(1.09975 -0.135989 4.93179e-21)
(1.09983 -0.130607 4.85367e-21)
(1.09985 -0.125288 -9.49451e-23)
(1.09982 -0.120032 -1.32159e-20)
(1.09975 -0.114838 7.48307e-21)
(1.09963 -0.109702 -9.42928e-21)
(1.09946 -0.104622 1.13829e-20)
(1.09925 -0.0995952 -4.52111e-21)
(1.099 -0.094619 -2.37643e-22)