/*--------------------------------*- C++ -*----------------------------------*\
  =========                 |
  \\      /  F ield         | OpenFOAM: The Open Source CFD Toolbox
   \\    /   O peration     | Website:  https://openfoam.org
    \\  /    A nd           | Version:  7
     \\/     M anipulation  |
\*---------------------------------------------------------------------------*/
FoamFile
{
    version     2.0;
    format      ascii;
    class       volScalarField;
    location    "60";
    object      p;
}
// * * * * * * * * * * * * * * * * * * * * * * * * * * * * * * * * * * * * * //

dimensions      [0 2 -2 0 0 0 0];

internalField   nonuniform List<scalar> 
31800
(
-0.249636
-0.251177
-0.252052
-0.252764
-0.25338
-0.253917
-0.254411
-0.254882
-0.255343
-0.255799
-0.256247
-0.256683
-0.2571
-0.257486
-0.257831
-0.258121
-0.258345
-0.258487
-0.258537
-0.258484
-0.258322
-0.258053
-0.257689
-0.257236
-0.25675
-0.249743
-0.251273
-0.252142
-0.252849
-0.25346
-0.253994
-0.254485
-0.254954
-0.255413
-0.255866
-0.256312
-0.256747
-0.257162
-0.257547
-0.25789
-0.258179
-0.258401
-0.258541
-0.258588
-0.258531
-0.258362
-0.258084
-0.257707
-0.257236
-0.256727
-0.249959
-0.251465
-0.252322
-0.253019
-0.253622
-0.254149
-0.254634
-0.255097
-0.255551
-0.256
-0.256442
-0.256874
-0.257286
-0.257668
-0.25801
-0.258297
-0.258516
-0.258653
-0.258696
-0.258631
-0.258452
-0.258158
-0.257761
-0.257257
-0.256705
-0.25028
-0.251752
-0.25259
-0.253273
-0.253863
-0.254379
-0.254854
-0.255309
-0.255756
-0.256198
-0.256635
-0.257062
-0.257469
-0.257848
-0.258186
-0.25847
-0.258687
-0.25882
-0.258857
-0.258784
-0.258589
-0.258273
-0.257848
-0.257299
-0.256679
-0.250702
-0.252129
-0.252944
-0.253607
-0.25418
-0.254682
-0.255144
-0.255588
-0.256024
-0.256457
-0.256887
-0.257306
-0.257708
-0.258082
-0.258416
-0.258696
-0.258909
-0.259038
-0.259068
-0.258984
-0.258771
-0.258426
-0.257966
-0.257358
-0.25664
-0.251221
-0.252594
-0.253379
-0.254017
-0.25457
-0.255053
-0.255499
-0.255929
-0.256352
-0.256773
-0.257192
-0.257603
-0.257997
-0.258364
-0.258693
-0.258968
-0.259176
-0.2593
-0.259322
-0.259225
-0.258992
-0.258614
-0.258109
-0.257434
-0.256576
-0.251831
-0.253141
-0.25389
-0.254501
-0.255028
-0.255489
-0.255915
-0.256326
-0.256733
-0.25714
-0.257546
-0.257945
-0.258329
-0.258688
-0.259009
-0.259279
-0.259481
-0.259599
-0.259612
-0.259502
-0.259245
-0.258829
-0.258272
-0.257527
-0.256473
-0.252526
-0.253764
-0.254474
-0.255051
-0.255549
-0.255984
-0.256386
-0.256776
-0.257163
-0.257551
-0.257941
-0.258326
-0.258697
-0.259045
-0.259358
-0.25962
-0.259815
-0.259925
-0.259929
-0.259804
-0.259524
-0.259065
-0.258449
-0.257636
-0.25631
-0.253297
-0.254458
-0.255124
-0.255664
-0.256128
-0.256533
-0.256907
-0.257271
-0.257634
-0.258
-0.25837
-0.258737
-0.259093
-0.259428
-0.259729
-0.259981
-0.260167
-0.260269
-0.260263
-0.260123
-0.259818
-0.259316
-0.258629
-0.257769
-0.256055
-0.254137
-0.255216
-0.255834
-0.256334
-0.25676
-0.25713
-0.257472
-0.257805
-0.258139
-0.25848
-0.258825
-0.259171
-0.259508
-0.259826
-0.260112
-0.260352
-0.260528
-0.260619
-0.260602
-0.260446
-0.260117
-0.259571
-0.258803
-0.257946
-0.255643
-0.25504
-0.256032
-0.2566
-0.257054
-0.257438
-0.257769
-0.258074
-0.258371
-0.258672
-0.258982
-0.259299
-0.259618
-0.259932
-0.260229
-0.260497
-0.260722
-0.260884
-0.260963
-0.260933
-0.260761
-0.260408
-0.259822
-0.258958
-0.258186
-0.255078
-0.255996
-0.2569
-0.257414
-0.25782
-0.258158
-0.258444
-0.258706
-0.258963
-0.259225
-0.259499
-0.259782
-0.26007
-0.260356
-0.260628
-0.260874
-0.261079
-0.261224
-0.261288
-0.261243
-0.261053
-0.260676
-0.260058
-0.259072
-0.258296
-0.254722
-0.256999
-0.257814
-0.258272
-0.258626
-0.258913
-0.25915
-0.259364
-0.259574
-0.259792
-0.260022
-0.260266
-0.260518
-0.26077
-0.261012
-0.261231
-0.261412
-0.261536
-0.261581
-0.261517
-0.261308
-0.260903
-0.26026
-0.259167
-0.258381
-0.254236
-0.258043
-0.258768
-0.259168
-0.259467
-0.259699
-0.259882
-0.260042
-0.260198
-0.260365
-0.260546
-0.260744
-0.260953
-0.261166
-0.261372
-0.261559
-0.261711
-0.261809
-0.26183
-0.261743
-0.261511
-0.261073
-0.260416
-0.25918
-0.258506
-0.253578
-0.259121
-0.259759
-0.260099
-0.26034
-0.260512
-0.260634
-0.260733
-0.26083
-0.260938
-0.261064
-0.261208
-0.261368
-0.261535
-0.261699
-0.261848
-0.261965
-0.262032
-0.262023
-0.261908
-0.261649
-0.261168
-0.260512
-0.25908
-0.258647
-0.252765
-0.260228
-0.260782
-0.261061
-0.26124
-0.261348
-0.261403
-0.261435
-0.261465
-0.261507
-0.261569
-0.261653
-0.261756
-0.26187
-0.261986
-0.262091
-0.262167
-0.262195
-0.262151
-0.262001
-0.261709
-0.261173
-0.260535
-0.258842
-0.258776
-0.25181
-0.261362
-0.261834
-0.262052
-0.262166
-0.262204
-0.262187
-0.262144
-0.262099
-0.262067
-0.262057
-0.262073
-0.262112
-0.262167
-0.262227
-0.262281
-0.262309
-0.262294
-0.262207
-0.262013
-0.261684
-0.261072
-0.260473
-0.258445
-0.258858
-0.250732
-0.26252
-0.262915
-0.26307
-0.263115
-0.263078
-0.262982
-0.262857
-0.262729
-0.262615
-0.262526
-0.262465
-0.262432
-0.26242
-0.262419
-0.262414
-0.262389
-0.262322
-0.262185
-0.26194
-0.261568
-0.260857
-0.260317
-0.257881
-0.258847
-0.249565
-0.263702
-0.264025
-0.264116
-0.264089
-0.263971
-0.263788
-0.263574
-0.263354
-0.26315
-0.262972
-0.262828
-0.262715
-0.262629
-0.262558
-0.262489
-0.262403
-0.262278
-0.262085
-0.261778
-0.261356
-0.260524
-0.260051
-0.257156
-0.258681
-0.248365
-0.26491
-0.265164
-0.26519
-0.265086
-0.264882
-0.264606
-0.264294
-0.263974
-0.263671
-0.263397
-0.26316
-0.262961
-0.262793
-0.262646
-0.262506
-0.262353
-0.262163
-0.261906
-0.261527
-0.261048
-0.260073
-0.259658
-0.256295
-0.258285
-0.247189
-0.266147
-0.266336
-0.266295
-0.266111
-0.265814
-0.265437
-0.265019
-0.264591
-0.26418
-0.263802
-0.263465
-0.263171
-0.262915
-0.262685
-0.262468
-0.262242
-0.261979
-0.26165
-0.261188
-0.260638
-0.259507
-0.259112
-0.255329
-0.257585
-0.246078
-0.267418
-0.267546
-0.267436
-0.267166
-0.26677
-0.266285
-0.265752
-0.265208
-0.264681
-0.26419
-0.263745
-0.26335
-0.262999
-0.262681
-0.262381
-0.262074
-0.261732
-0.26132
-0.260763
-0.260123
-0.25883
-0.258383
-0.254285
-0.256521
-0.245031
-0.268731
-0.2688
-0.268618
-0.268256
-0.267754
-0.267153
-0.266497
-0.265828
-0.265177
-0.264567
-0.264008
-0.263505
-0.263053
-0.262641
-0.26225
-0.261857
-0.261425
-0.260919
-0.260253
-0.259496
-0.258042
-0.257442
-0.253172
-0.255068
-0.243997
-0.270095
-0.270105
-0.269847
-0.269388
-0.268773
-0.268047
-0.267261
-0.266459
-0.265677
-0.264939
-0.26426
-0.263643
-0.263085
-0.262572
-0.262086
-0.261597
-0.261066
-0.26045
-0.259657
-0.258747
-0.257134
-0.256269
-0.251969
-0.253241
-0.242894
-0.271521
-0.271471
-0.271131
-0.27057
-0.269833
-0.268975
-0.26805
-0.267109
-0.266188
-0.265317
-0.264511
-0.263775
-0.263105
-0.262486
-0.261896
-0.261301
-0.260656
-0.259911
-0.25897
-0.257866
-0.256088
-0.254857
-0.250633
-0.251086
-0.241632
-0.273022
-0.272908
-0.27248
-0.271809
-0.270943
-0.269945
-0.268874
-0.267785
-0.26672
-0.26571
-0.264771
-0.263912
-0.263124
-0.262393
-0.26169
-0.260976
-0.2602
-0.259299
-0.25818
-0.25684
-0.254878
-0.253203
-0.249109
-0.248655
-0.24014
-0.274612
-0.274427
-0.273907
-0.273115
-0.272113
-0.270966
-0.269742
-0.268499
-0.267284
-0.266129
-0.265054
-0.264065
-0.263155
-0.262303
-0.261475
-0.260625
-0.259694
-0.258607
-0.257274
-0.255655
-0.253475
-0.25131
-0.247347
-0.24598
-0.23836
-0.276307
-0.276043
-0.275421
-0.274501
-0.273352
-0.272049
-0.270664
-0.269262
-0.267891
-0.266588
-0.265372
-0.264249
-0.263208
-0.262224
-0.261257
-0.260249
-0.259133
-0.257824
-0.256235
-0.254296
-0.251852
-0.24918
-0.245309
-0.243041
-0.236256
-0.278123
-0.277767
-0.277034
-0.275976
-0.274672
-0.273205
-0.271653
-0.270085
-0.268555
-0.267099
-0.265737
-0.264474
-0.263294
-0.262164
-0.261037
-0.259845
-0.258509
-0.256937
-0.255046
-0.25275
-0.249993
-0.246825
-0.242973
-0.239765
-0.233867
-0.280078
-0.279616
-0.27876
-0.277553
-0.276085
-0.274446
-0.272721
-0.270983
-0.269288
-0.267675
-0.266163
-0.264751
-0.26342
-0.262128
-0.260815
-0.259404
-0.257808
-0.255929
-0.253692
-0.251009
-0.247896
-0.24427
-0.240334
-0.236158
-0.231375
-0.282187
-0.281603
-0.280612
-0.279246
-0.277604
-0.275786
-0.273881
-0.271967
-0.270104
-0.268329
-0.26666
-0.265091
-0.263593
-0.262115
-0.260586
-0.258918
-0.257016
-0.254785
-0.252162
-0.24907
-0.24557
-0.241544
-0.237402
-0.232538
-0.228748
-0.284469
-0.283744
-0.282604
-0.281067
-0.279241
-0.277235
-0.275145
-0.273052
-0.271016
-0.269074
-0.26724
-0.2655
-0.263815
-0.262123
-0.260341
-0.258371
-0.256118
-0.253493
-0.25045
-0.246935
-0.243038
-0.238658
-0.23421
-0.229112
-0.224978
-0.286943
-0.286053
-0.284749
-0.283029
-0.281009
-0.278808
-0.276527
-0.27425
-0.272036
-0.269921
-0.26791
-0.265982
-0.264086
-0.262145
-0.260067
-0.257749
-0.2551
-0.252044
-0.248559
-0.244616
-0.240329
-0.235619
-0.230887
-0.225587
-0.221091
-0.289623
-0.288545
-0.287062
-0.285146
-0.282922
-0.280518
-0.27804
-0.275573
-0.273176
-0.270878
-0.268677
-0.266539
-0.264399
-0.26217
-0.259749
-0.257035
-0.253948
-0.250433
-0.246493
-0.242129
-0.237469
-0.232458
-0.227465
-0.222008
-0.217283
-0.292526
-0.291234
-0.289555
-0.28743
-0.284992
-0.282378
-0.279697
-0.277035
-0.274447
-0.271955
-0.269544
-0.267168
-0.264747
-0.262183
-0.25937
-0.256215
-0.252655
-0.248661
-0.244263
-0.239491
-0.234481
-0.229198
-0.223976
-0.218388
-0.213487
-0.295668
-0.294133
-0.292242
-0.289895
-0.287232
-0.2844
-0.281511
-0.278647
-0.275858
-0.273155
-0.270511
-0.267862
-0.265116
-0.262168
-0.258914
-0.255276
-0.251214
-0.246732
-0.241884
-0.236723
-0.23139
-0.225859
-0.220438
-0.214731
-0.209711
-0.299062
-0.297256
-0.295136
-0.292553
-0.289655
-0.286598
-0.283492
-0.280418
-0.277415
-0.274481
-0.271573
-0.268611
-0.265491
-0.262106
-0.258363
-0.254206
-0.249625
-0.244654
-0.239369
-0.233843
-0.228212
-0.222457
-0.216859
-0.211044
-0.205926
-0.302721
-0.300613
-0.298248
-0.295416
-0.292273
-0.288983
-0.285654
-0.282359
-0.279125
-0.275933
-0.272723
-0.2694
-0.265852
-0.261977
-0.257702
-0.252998
-0.247889
-0.242435
-0.236734
-0.230866
-0.224959
-0.219001
-0.213241
-0.207325
-0.202121
-0.306656
-0.304218
-0.301589
-0.298497
-0.2951
-0.291568
-0.288006
-0.284475
-0.280987
-0.277505
-0.273949
-0.27021
-0.266178
-0.261763
-0.256918
-0.251648
-0.246009
-0.240087
-0.233989
-0.227802
-0.221642
-0.215495
-0.209585
-0.203572
-0.198285
-0.310876
-0.308078
-0.305171
-0.301805
-0.298145
-0.294363
-0.290556
-0.286771
-0.283002
-0.279188
-0.275233
-0.27102
-0.266447
-0.261444
-0.255999
-0.250153
-0.24399
-0.237617
-0.231146
-0.22466
-0.218263
-0.21194
-0.205888
-0.199782
-0.194413
-0.31539
-0.312202
-0.309001
-0.305352
-0.301419
-0.297377
-0.293311
-0.289249
-0.285162
-0.280968
-0.276554
-0.271806
-0.266635
-0.261003
-0.254937
-0.248512
-0.241838
-0.235034
-0.228209
-0.221444
-0.214824
-0.208335
-0.202146
-0.195949
-0.190498
-0.320202
-0.316597
-0.313089
-0.309147
-0.304931
-0.300618
-0.296274
-0.291905
-0.287456
-0.282824
-0.277889
-0.272541
-0.26672
-0.260426
-0.253725
-0.246726
-0.239557
-0.232341
-0.225183
-0.218154
-0.211323
-0.204675
-0.198353
-0.192068
-0.186533
-0.325315
-0.321266
-0.317439
-0.313195
-0.308688
-0.304089
-0.299443
-0.29473
-0.289866
-0.284733
-0.279206
-0.273197
-0.266679
-0.259698
-0.252359
-0.244796
-0.23715
-0.229542
-0.222068
-0.214788
-0.207756
-0.200955
-0.194504
-0.188133
-0.182513
-0.33073
-0.326213
-0.322056
-0.317501
-0.312693
-0.307791
-0.302814
-0.29771
-0.292372
-0.286666
-0.280477
-0.273747
-0.266494
-0.258809
-0.250833
-0.24272
-0.234616
-0.226636
-0.218861
-0.211343
-0.204118
-0.197169
-0.190591
-0.184138
-0.178434
-0.336443
-0.331435
-0.32694
-0.322068
-0.316947
-0.311721
-0.306375
-0.300826
-0.294943
-0.288588
-0.281668
-0.274164
-0.266145
-0.257748
-0.249143
-0.240499
-0.231956
-0.22362
-0.215559
-0.207812
-0.200401
-0.19331
-0.186609
-0.180077
-0.174289
-0.342446
-0.336929
-0.332088
-0.326893
-0.321445
-0.315867
-0.310108
-0.30405
-0.297545
-0.290464
-0.282744
-0.27442
-0.265614
-0.256505
-0.247285
-0.238127
-0.229165
-0.22049
-0.212155
-0.204188
-0.196599
-0.18937
-0.182551
-0.175944
-0.170074
-0.348726
-0.342684
-0.337495
-0.331969
-0.326177
-0.320213
-0.313987
-0.307348
-0.30014
-0.292253
-0.283673
-0.274492
-0.264887
-0.255072
-0.245254
-0.235602
-0.226238
-0.217239
-0.208642
-0.200464
-0.192703
-0.185341
-0.178409
-0.171733
-0.165783
-0.355268
-0.348688
-0.343147
-0.337283
-0.331127
-0.324737
-0.31798
-0.31068
-0.302683
-0.293915
-0.28442
-0.274355
-0.263948
-0.253439
-0.243041
-0.232916
-0.223169
-0.213859
-0.205011
-0.19663
-0.188706
-0.181217
-0.174177
-0.167438
-0.161412
-0.362047
-0.354923
-0.349029
-0.342818
-0.336271
-0.329407
-0.322048
-0.314
-0.305128
-0.295407
-0.284953
-0.273988
-0.262782
-0.251596
-0.24064
-0.230061
-0.219947
-0.210341
-0.201253
-0.192679
-0.184599
-0.17699
-0.169849
-0.163054
-0.156954
-0.369036
-0.361363
-0.355117
-0.348549
-0.34158
-0.334184
-0.326143
-0.317257
-0.307424
-0.296689
-0.285242
-0.273369
-0.261376
-0.249533
-0.238041
-0.227029
-0.216565
-0.206675
-0.197359
-0.1886
-0.180373
-0.172651
-0.165417
-0.158573
-0.152406
-0.376197
-0.367978
-0.361381
-0.354443
-0.347014
-0.33902
-0.330211
-0.320395
-0.309523
-0.29772
-0.285257
-0.272478
-0.259715
-0.247239
-0.235233
-0.223807
-0.21301
-0.202851
-0.193318
-0.184385
-0.176021
-0.168195
-0.160877
-0.153991
-0.147763
-0.38349
-0.374731
-0.367785
-0.360459
-0.352526
-0.343862
-0.334193
-0.323356
-0.311372
-0.298459
-0.284969
-0.271295
-0.257785
-0.244699
-0.232204
-0.220385
-0.209271
-0.198858
-0.18912
-0.180025
-0.171534
-0.163613
-0.156221
-0.149303
-0.143019
-0.390864
-0.381576
-0.374284
-0.366551
-0.35806
-0.348646
-0.338025
-0.326078
-0.31292
-0.298869
-0.284351
-0.2698
-0.255569
-0.241902
-0.228942
-0.21675
-0.205338
-0.194684
-0.184755
-0.17551
-0.166904
-0.158899
-0.151445
-0.144503
-0.138172
-0.398263
-0.388464
-0.380827
-0.37266
-0.363555
-0.353306
-0.341637
-0.328502
-0.31412
-0.298912
-0.283378
-0.267974
-0.253052
-0.238833
-0.225433
-0.21289
-0.201196
-0.19032
-0.180214
-0.170832
-0.162124
-0.154047
-0.146542
-0.139586
-0.133217
-0.405623
-0.395335
-0.387354
-0.378724
-0.36894
-0.357767
-0.34496
-0.330565
-0.314922
-0.298556
-0.282023
-0.265798
-0.250217
-0.235476
-0.221662
-0.208791
-0.196836
-0.185753
-0.175487
-0.165984
-0.157187
-0.149049
-0.141508
-0.134548
-0.12815
-0.412875
-0.402123
-0.393799
-0.38467
-0.374137
-0.361951
-0.347921
-0.332208
-0.315282
-0.297765
-0.280262
-0.263252
-0.247049
-0.231817
-0.217616
-0.204439
-0.192244
-0.180974
-0.170565
-0.160955
-0.152086
-0.143902
-0.136337
-0.129385
-0.122969
-0.419941
-0.408757
-0.400086
-0.39042
-0.379065
-0.365777
-0.350448
-0.333372
-0.315155
-0.296508
-0.278071
-0.260317
-0.243528
-0.22784
-0.213281
-0.199824
-0.18741
-0.175972
-0.165438
-0.155741
-0.146814
-0.138598
-0.131025
-0.124092
-0.11767
-0.426739
-0.415158
-0.406136
-0.395889
-0.383637
-0.369165
-0.352471
-0.334003
-0.314501
-0.294756
-0.275428
-0.256973
-0.23964
-0.223529
-0.208642
-0.19493
-0.182322
-0.170738
-0.160099
-0.150332
-0.141366
-0.133134
-0.125568
-0.118666
-0.112252
-0.433181
-0.421241
-0.411864
-0.400988
-0.387765
-0.372031
-0.353921
-0.334047
-0.313281
-0.292479
-0.27231
-0.253201
-0.235366
-0.218869
-0.203686
-0.189748
-0.176969
-0.165262
-0.154541
-0.144723
-0.135735
-0.127504
-0.119963
-0.113103
-0.106712
-0.439177
-0.426919
-0.417176
-0.405623
-0.391357
-0.374295
-0.354732
-0.333455
-0.31146
-0.289652
-0.268695
-0.248984
-0.230691
-0.213846
-0.198399
-0.184264
-0.171343
-0.159537
-0.148755
-0.138908
-0.129918
-0.121706
-0.114206
-0.107402
-0.10105
-0.444631
-0.432098
-0.421981
-0.409701
-0.394324
-0.375878
-0.354842
-0.332182
-0.309002
-0.286247
-0.264563
-0.244302
-0.225598
-0.208445
-0.192769
-0.178469
-0.165433
-0.153555
-0.142736
-0.132882
-0.123909
-0.115736
-0.108295
-0.101561
-0.095266
-0.449445
-0.436683
-0.42618
-0.413124
-0.396575
-0.376705
-0.354194
-0.330184
-0.305879
-0.282243
-0.259894
-0.23914
-0.220072
-0.202653
-0.186786
-0.172352
-0.159232
-0.147309
-0.136478
-0.12664
-0.117706
-0.10959
-0.102227
-0.0955772
-0.0893594
-0.453523
-0.440578
-0.429675
-0.415797
-0.398026
-0.376705
-0.352733
-0.327423
-0.302062
-0.277617
-0.25467
-0.233481
-0.2141
-0.196458
-0.180438
-0.165906
-0.152732
-0.140793
-0.129976
-0.120178
-0.111305
-0.103267
-0.0959997
-0.0894521
-0.0833341
-0.456766
-0.443686
-0.43237
-0.417626
-0.398593
-0.375813
-0.350413
-0.323866
-0.297525
-0.272348
-0.248873
-0.227311
-0.207668
-0.189849
-0.173716
-0.159123
-0.145928
-0.134003
-0.123227
-0.113494
-0.104704
-0.0967638
-0.0896104
-0.0831836
-0.0771936
-0.459079
-0.44591
-0.434169
-0.418522
-0.3982
-0.373969
-0.347189
-0.319481
-0.292246
-0.26642
-0.24249
-0.220616
-0.200766
-0.182817
-0.166613
-0.151995
-0.138815
-0.126934
-0.116229
-0.106586
-0.0979023
-0.0900788
-0.0830561
-0.076767
-0.0709289
-0.460368
-0.447157
-0.434979
-0.418399
-0.396775
-0.37112
-0.343024
-0.314243
-0.286207
-0.259817
-0.235507
-0.213386
-0.193384
-0.175354
-0.159122
-0.14452
-0.131389
-0.119585
-0.108979
-0.0994524
-0.0908986
-0.0832131
-0.0763403
-0.0702006
-0.0645007
-0.460543
-0.447337
-0.434712
-0.417179
-0.394256
-0.367219
-0.337886
-0.308129
-0.279389
-0.252526
-0.227913
-0.20561
-0.185514
-0.167453
-0.151239
-0.136692
-0.123647
-0.111954
-0.101476
-0.0920939
-0.0836937
-0.0761696
-0.0694747
-0.0635008
-0.057859
-0.459521
-0.446365
-0.433286
-0.414788
-0.390584
-0.362227
-0.33175
-0.301122
-0.271782
-0.244536
-0.219699
-0.197283
-0.177151
-0.159111
-0.14296
-0.128511
-0.115589
-0.10404
-0.0937218
-0.0845109
-0.0762887
-0.0689509
-0.0624634
-0.0566846
-0.0510469
-0.457224
-0.444162
-0.430627
-0.411164
-0.385713
-0.35611
-0.324593
-0.293208
-0.263374
-0.235839
-0.210858
-0.188398
-0.168291
-0.150324
-0.134285
-0.119975
-0.107216
-0.095844
-0.0857169
-0.0767057
-0.0686866
-0.06156
-0.0552923
-0.0496523
-0.0442553
-0.453581
-0.440656
-0.426667
-0.406249
-0.379602
-0.348843
-0.316401
-0.284378
-0.254159
-0.226431
-0.201388
-0.178953
-0.158931
-0.141093
-0.125213
-0.111086
-0.098527
-0.0873694
-0.0774642
-0.068682
-0.0608921
-0.0540003
-0.0479622
-0.0424938
-0.0373758
-0.44853
-0.435784
-0.421346
-0.399999
-0.372219
-0.340409
-0.307166
-0.274627
-0.244136
-0.216311
-0.191288
-0.168949
-0.149074
-0.131418
-0.115746
-0.101847
-0.0895272
-0.0786203
-0.0689696
-0.0604425
-0.0529084
-0.0462741
-0.0404836
-0.0352205
-0.0303869
-0.442017
-0.429491
-0.414617
-0.392375
-0.363542
-0.330797
-0.296882
-0.263955
-0.233305
-0.20548
-0.180558
-0.158386
-0.138721
-0.121302
-0.105889
-0.0922615
-0.080223
-0.0695999
-0.0602361
-0.0519934
-0.0447407
-0.0383866
-0.0328652
-0.0278323
-0.0232881
-0.433999
-0.421731
-0.406441
-0.383351
-0.353559
-0.320002
-0.285553
-0.252367
-0.221671
-0.193942
-0.169204
-0.14727
-0.127877
-0.110752
-0.0956495
-0.082337
-0.0706184
-0.0603155
-0.0512703
-0.0433409
-0.0363953
-0.0303444
-0.0251132
-0.0203295
-0.0160866
-0.424442
-0.41247
-0.396788
-0.37291
-0.342262
-0.308029
-0.273185
-0.239871
-0.209243
-0.181706
-0.157233
-0.13561
-0.116553
-0.0997788
-0.0850319
-0.0720803
-0.0607215
-0.0507747
-0.0420798
-0.0344923
-0.0278791
-0.0221547
-0.0172338
-0.0127156
-0.00878951
-0.413322
-0.401682
-0.385641
-0.361045
-0.329657
-0.294887
-0.259793
-0.22648
-0.196031
-0.168779
-0.144659
-0.123418
-0.104757
-0.0883882
-0.0740477
-0.0615011
-0.0505417
-0.0409864
-0.0326735
-0.0254559
-0.0192005
-0.0138253
-0.00923392
-0.00499659
-0.00140453
-0.400627
-0.389355
-0.372992
-0.347759
-0.315754
-0.280594
-0.245393
-0.212211
-0.18205
-0.155175
-0.131502
-0.110705
-0.0925026
-0.0765934
-0.0627085
-0.0506105
-0.0400897
-0.030961
-0.0230611
-0.0162413
-0.0103686
-0.00536485
-0.00112115
0.00281999
0.00606047
-0.386356
-0.375485
-0.358845
-0.333064
-0.300575
-0.265173
-0.23001
-0.197086
-0.167322
-0.140934
-0.117758
-0.0974855
-0.0798035
-0.0644085
-0.0510279
-0.0394215
-0.0293777
-0.02071
-0.0132538
-0.00685897
-0.00139349
0.00321711
0.00709569
0.0107254
0.0135971
-0.370517
-0.36008
-0.343214
-0.316983
-0.284146
-0.248654
-0.213673
-0.181133
-0.151878
-0.126054
-0.103462
-0.0837789
-0.0666776
-0.05185
-0.039021
-0.0279485
-0.0184194
-0.0102462
-0.0032636
0.00267951
0.00771381
0.0119102
0.0154068
0.0187097
0.0211961
-0.35313
-0.343159
-0.326123
-0.299546
-0.266503
-0.231075
-0.196416
-0.164382
-0.135737
-0.110566
-0.0886343
-0.0696068
-0.0531446
-0.0389364
-0.0267052
-0.0162076
-0.00722975
0.000416189
0.0068961
0.0123616
0.0169413
0.0207032
0.0238016
0.0267623
0.0288475
-0.334226
-0.32475
-0.307607
-0.280793
-0.24769
-0.212476
-0.178274
-0.146866
-0.118932
-0.0944983
-0.0733016
-0.054993
-0.0392266
-0.0256879
-0.0140992
-0.00421624
0.00417489
0.011262
0.017211
0.0221737
0.0262761
0.0295839
0.0322685
0.0348712
0.0365402
-0.313846
-0.304893
-0.287707
-0.260776
-0.227766
-0.192889
-0.159289
-0.128624
-0.101497
-0.0778828
-0.057492
-0.0399639
-0.0249476
-0.012127
-0.00122357
0.00800648
0.0157769
0.0222749
0.027666
0.0321015
0.0357045
0.0385392
0.040795
0.0430235
0.0442617
-0.292039
-0.283635
-0.266479
-0.239562
-0.20679
-0.172355
-0.139507
-0.109698
-0.0834698
-0.0607536
-0.0412365
-0.024548
-0.010334
0.00172239
0.0118994
0.0204402
0.0275575
0.0334374
0.0382447
0.0421297
0.0452119
0.0475555
0.0493673
0.0512036
0.0519974
-0.268862
-0.261035
-0.243987
-0.217203
-0.18474
-0.151002
-0.118986
-0.0901342
-0.0648923
-0.0431482
-0.0245688
-0.00877613
0.00458594
0.0158343
0.025246
0.0330631
0.0394966
0.0447311
0.0489304
0.0522425
0.0547833
0.0566182
0.0579708
0.0593937
0.0597265
-0.244379
-0.237168
-0.220318
-0.19371
-0.161774
-0.128836
-0.0977796
-0.0699815
-0.0458083
-0.0251063
-0.00752517
0.00731863
0.0197821
0.0301811
0.0387911
0.0458521
0.0515732
0.056137
0.0597053
0.0624237
0.0644033
0.0657127
0.0665907
0.0675743
0.0674218
-0.218662
-0.212114
-0.195553
-0.169156
-0.137944
-0.105926
-0.0759453
-0.0492929
-0.026265
-0.00667036
0.00985586
0.0237013
0.0352226
0.0447338
0.0525082
0.0587833
0.0637654
0.0676347
0.0705511
0.0726562
0.0740557
0.0748241
0.0752146
0.0757314
0.0750667
-0.191785
-0.185949
-0.169615
-0.143796
-0.11333
-0.0823445
-0.0535448
-0.0281236
-0.00631201
0.0121148
0.0275337
0.0403349
0.0508738
0.0594618
0.0663695
0.0718311
0.0760501
0.0792037
0.0814492
0.0829224
0.0837233
0.0839373
0.0838327
0.083857
0.0826555
-0.163819
-0.158784
-0.142757
-0.117588
-0.0880066
-0.0581649
-0.0306426
-0.00653146
0.0139987
0.0312021
0.0454658
0.0571809
0.0667006
0.0743333
0.0803459
0.0849694
0.0884035
0.0908226
0.09238
0.0932043
0.093389
0.0930394
0.0924358
0.0919174
0.0900891
-0.134864
-0.13072
-0.115082
-0.0906252
-0.0620565
-0.0334632
-0.00730585
0.0154235
0.034613
0.0505428
0.0636078
0.074199
0.0826666
0.089315
0.0944075
0.0981709
0.100801
0.102469
0.103324
0.103484
0.10304
0.102127
0.101011
0.099798
0.0970573
-0.10518
-0.101747
-0.0866566
-0.0630082
-0.0355644
-0.00831723
0.0163957
0.0376788
0.0554746
0.070086
0.0819139
0.0913477
0.0987339
0.104373
0.108523
0.111407
0.113218
0.114121
0.114261
0.113745
0.112671
0.111208
0.109541
0.107361
0.103338
-0.0747688
-0.0720327
-0.0575791
-0.0348361
-0.0086193
0.0171931
0.0403903
0.0601702
0.0765257
0.0897796
0.100337
0.108584
0.114864
0.119471
0.122661
0.12465
0.125627
0.125755
0.125169
0.123972
0.122274
0.120278
0.117998
0.114672
0.109628
-0.0437137
-0.0417134
-0.0279552
-0.00620945
0.0186872
0.0429858
0.0646046
0.0828319
0.0977071
0.10957
0.118828
0.125864
0.131016
0.134574
0.136788
0.137869
0.138002
0.137345
0.136027
0.134147
0.131834
0.129294
0.126323
0.121924
0.118012
-0.012138
-0.010903
0.00210525
0.0227687
0.0462615
0.068977
0.0889637
0.105597
0.118958
0.129402
0.137337
0.143143
0.147151
0.149646
0.150871
0.151035
0.150316
0.148868
0.146813
0.14425
0.141323
0.138202
0.134534
0.129542
0.126345
0.0198345
0.0202837
0.0324895
0.0519937
0.074009
0.0950818
0.113391
0.128396
0.140217
0.149221
0.155815
0.160375
0.163226
0.164647
0.164876
0.164116
0.16254
0.160297
0.157504
0.154262
0.150717
0.146996
0.142692
0.137315
0.134222
0.0520806
0.051729
0.0630832
0.0813595
0.101834
0.121214
0.137811
0.151161
0.161422
0.16897
0.174211
0.177514
0.1792
0.179541
0.178769
0.177082
0.174647
0.171608
0.168078
0.164157
0.15999
0.155669
0.150792
0.145086
0.141822
0.0844762
0.0833132
0.093771
0.11076
0.12964
0.147288
0.162145
0.173822
0.18251
0.188592
0.192472
0.194514
0.195031
0.19429
0.192515
0.1899
0.186607
0.182773
0.178509
0.173914
0.169124
0.164209
0.158796
0.152745
0.149168
0.116896
0.114915
0.124437
0.140087
0.15733
0.173218
0.186316
0.19631
0.203418
0.208031
0.210548
0.211328
0.210677
0.208855
0.20608
0.20254
0.198392
0.193768
0.188775
0.183509
0.178099
0.1726
0.16667
0.160252
0.156289
0.149215
0.146413
0.154966
0.169236
0.184809
0.198916
0.210247
0.218554
0.224083
0.227229
0.228388
0.22791
0.226096
0.223197
0.219429
0.21497
0.209974
0.204566
0.19885
0.192919
0.186896
0.180823
0.174386
0.167583
0.163191
0.181309
0.177686
0.185242
0.1981
0.211981
0.224297
0.23386
0.240486
0.244444
0.246131
0.24594
0.244213
0.241245
0.237281
0.232527
0.227159
0.221323
0.215141
0.208711
0.202124
0.195494
0.188857
0.181922
0.174723
0.169877
0.213052
0.208613
0.215152
0.226575
0.238752
0.249277
0.25708
0.262037
0.264437
0.26468
0.263153
0.260192
0.256083
0.251066
0.245341
0.239076
0.232413
0.225468
0.218335
0.211102
0.203875
0.196684
0.189257
0.181659
0.176345
0.244322
0.239075
0.244581
0.254557
0.265028
0.273772
0.279831
0.283138
0.284001
0.28282
0.279977
0.275801
0.27057
0.264517
0.257836
0.250691
0.243215
0.235521
0.227699
0.219832
0.212019
0.204285
0.196376
0.18838
0.182588
0.274999
0.268954
0.273421
0.281945
0.29072
0.297701
0.302041
0.303724
0.303077
0.300498
0.296363
0.290995
0.284664
0.277596
0.26998
0.261972
0.253702
0.245277
0.23678
0.228293
0.219908
0.211644
0.203264
0.194873
0.1886
0.304963
0.298134
0.301562
0.308641
0.315736
0.320982
0.323635
0.32373
0.321605
0.31766
0.312263
0.305731
0.298326
0.290269
0.281741
0.272892
0.263848
0.254709
0.245557
0.236466
0.227524
0.218743
0.209905
0.201127
0.194374
0.334098
0.326504
0.328899
0.334547
0.339991
0.343538
0.344545
0.343092
0.339528
0.334254
0.32763
0.319966
0.311518
0.3025
0.293086
0.283421
0.273626
0.263796
0.254007
0.244331
0.234849
0.225567
0.216287
0.20713
0.199902
0.362293
0.353954
0.35533
0.359572
0.363401
0.365294
0.364703
0.361748
0.356791
0.350229
0.342418
0.333659
0.324202
0.314254
0.303985
0.293532
0.283012
0.272514
0.262112
0.251871
0.241866
0.232102
0.222395
0.212872
0.205175
0.389439
0.380379
0.380755
0.383624
0.385884
0.386176
0.384041
0.379638
0.373339
0.365537
0.356583
0.34677
0.336343
0.325501
0.314408
0.303198
0.291981
0.280842
0.26985
0.259067
0.24856
0.238333
0.228217
0.218342
0.210185
0.415431
0.405677
0.405081
0.406617
0.407363
0.406115
0.402498
0.396707
0.389121
0.380132
0.370082
0.359261
0.347904
0.336207
0.324327
0.312394
0.300509
0.288758
0.277202
0.265901
0.254915
0.244245
0.233741
0.223528
0.214925
0.440168
0.429752
0.428216
0.42847
0.427764
0.425043
0.420013
0.412899
0.404088
0.393967
0.382876
0.371094
0.358854
0.346344
0.333716
0.321093
0.308576
0.296242
0.284151
0.272358
0.260917
0.249827
0.238955
0.228419
0.219387
0.463557
0.452512
0.450076
0.449104
0.447016
0.442898
0.436529
0.428162
0.418192
0.407002
0.394925
0.382236
0.369161
0.355882
0.342547
0.329275
0.31616
0.303276
0.29068
0.278422
0.266551
0.255065
0.243848
0.233007
0.223562
0.485508
0.473869
0.470578
0.468446
0.465053
0.459619
0.451991
0.442448
0.431389
0.419195
0.406194
0.392654
0.378795
0.364795
0.350797
0.336915
0.32324
0.309841
0.296772
0.284079
0.271805
0.259948
0.248408
0.237281
0.227445
0.505936
0.493744
0.489648
0.486426
0.481813
0.475151
0.466349
0.45571
0.443638
0.43051
0.416647
0.402315
0.387728
0.373058
0.358443
0.343994
0.329798
0.31592
0.302411
0.289314
0.276666
0.264465
0.252625
0.241232
0.231028
0.524763
0.512059
0.507214
0.502982
0.497238
0.489441
0.479556
0.467906
0.4549
0.44091
0.426255
0.411193
0.395934
0.380646
0.365464
0.350493
0.335817
0.321499
0.307585
0.294115
0.281122
0.268605
0.256491
0.244852
0.234305
0.541918
0.528746
0.523213
0.518053
0.511276
0.502442
0.491568
0.478998
0.465139
0.450365
0.434987
0.41926
0.403389
0.387539
0.371839
0.356394
0.341281
0.326561
0.312279
0.29847
0.285164
0.272358
0.259995
0.248133
0.237271
0.557335
0.543741
0.537585
0.531587
0.523877
0.514111
0.502347
0.488948
0.474324
0.458845
0.442817
0.426492
0.410072
0.393716
0.377552
0.36168
0.346175
0.331095
0.316482
0.302369
0.288781
0.275718
0.263131
0.251067
0.23992
0.570956
0.556988
0.550278
0.543535
0.534999
0.524407
0.511858
0.497726
0.482426
0.466323
0.449721
0.432868
0.415962
0.399161
0.382587
0.366337
0.350486
0.335088
0.320184
0.305802
0.291965
0.278674
0.265892
0.25365
0.242249
0.582728
0.568437
0.561245
0.553856
0.544604
0.533297
0.520068
0.505303
0.489418
0.472776
0.455678
0.43837
0.421044
0.403857
0.386929
0.370354
0.354203
0.338531
0.323374
0.30876
0.294709
0.281221
0.26827
0.255874
0.244252
0.592607
0.578044
0.570446
0.562513
0.552659
0.540751
0.526951
0.511655
0.495279
0.478185
0.460671
0.442979
0.425302
0.407791
0.390565
0.373717
0.357316
0.341413
0.326045
0.311236
0.297005
0.283353
0.27026
0.257735
0.245926
0.600555
0.585773
0.577847
0.569475
0.559136
0.546745
0.532485
0.516761
0.49999
0.482532
0.464683
0.446683
0.428723
0.410952
0.393487
0.37642
0.359817
0.343728
0.32819
0.313225
0.298849
0.285065
0.271857
0.259228
0.247269
0.606543
0.591595
0.583421
0.574718
0.564013
0.551257
0.536651
0.520605
0.503536
0.485804
0.467703
0.449471
0.431297
0.41333
0.395686
0.378453
0.361698
0.34547
0.329803
0.314721
0.300236
0.286352
0.273059
0.260351
0.248279
0.610547
0.595489
0.587149
0.578224
0.567274
0.554274
0.539436
0.523174
0.505906
0.487991
0.469721
0.451334
0.433018
0.41492
0.397155
0.379811
0.362955
0.346634
0.330881
0.31572
0.301162
0.287211
0.273861
0.261102
0.248952
0.612553
0.597439
0.589016
0.579979
0.568906
0.555784
0.54083
0.524461
0.507093
0.489086
0.470732
0.452267
0.433879
0.415715
0.39789
0.380491
0.363584
0.347216
0.331421
0.31622
0.301626
0.287642
0.274263
0.261477
0.249289
0.612552
0.597438
0.589015
0.579978
0.568906
0.555783
0.540829
0.52446
0.507093
0.489085
0.470731
0.452267
0.433879
0.415715
0.39789
0.380491
0.363584
0.347216