/*--------------------------------*- C++ -*----------------------------------*\
  =========                 |
  \\      /  F ield         | OpenFOAM: The Open Source CFD Toolbox
   \\    /   O peration     | Website:  https://openfoam.org
    \\  /    A nd           | Version:  7
     \\/     M anipulation  |
\*---------------------------------------------------------------------------*/
FoamFile
{
    version     2.0;
    format      ascii;
    class       volVectorField;
    location    "60";
    object      U;
}
// * * * * * * * * * * * * * * * * * * * * * * * * * * * * * * * * * * * * * //

dimensions      [0 1 -1 0 0 0 0];

internalField   nonuniform List<vector> 
31800
(
(-0.000521336 0.000484967 -9.09089e-21)
(-0.00323338 0.00121186 6.27853e-21)
(-0.00865821 0.00174717 -2.04494e-21)
(-0.0156747 0.00213078 9.08131e-21)
(-0.0238478 0.00239012 1.0142e-20)
(-0.0328184 0.00254911 -3.32225e-21)
(-0.0422709 0.00262844 -2.4007e-21)
(-0.0519595 0.00264553 1.69724e-20)
(-0.0616937 0.00261482 -1.93239e-21)
(-0.0713287 0.002548 2.77493e-21)
(-0.0807569 0.00245419 9.51335e-21)
(-0.0898994 0.00234024 9.31111e-21)
(-0.0986984 0.00221096 -5.876e-21)
(-0.10711 0.00206954 -7.29815e-21)
(-0.115098 0.00191785 -2.49014e-22)
(-0.122632 0.00175703 -9.30131e-21)
(-0.12968 0.00158799 7.21925e-21)
(-0.136215 0.00141228 1.21574e-20)
(-0.142211 0.00123296 -4.54077e-21)
(-0.147655 0.00105581 2.05538e-20)
(-0.152553 0.00089043 1.30009e-21)
(-0.156949 0.000751224 -1.6546e-21)
(-0.160942 0.000656068 3.60863e-21)
(-0.164658 0.000621003 7.33329e-21)
(-0.168336 0.000673641 4.55241e-21)
(-0.000570307 0.00151171 9.35981e-21)
(-0.00334314 0.00379153 5.12278e-21)
(-0.0087909 0.00548568 -5.51726e-21)
(-0.0158047 0.0067132 -2.09585e-20)
(-0.0239545 0.00755671 1.54718e-20)
(-0.0328853 0.00808886 -7.56957e-21)
(-0.0422846 0.0083733 4.17492e-22)
(-0.0519085 0.00846422 -1.30165e-20)
(-0.0615682 0.00840709 2.71295e-21)
(-0.0711198 0.00823903 1.84215e-21)
(-0.0804562 0.00798925 -3.99459e-20)
(-0.0894988 0.00767969 -6.74491e-22)
(-0.0981898 0.00732575 4.46568e-20)
(-0.106485 0.00693731 -2.24385e-20)
(-0.114349 0.00651997 -4.24743e-21)
(-0.121748 0.00607651 9.23174e-21)
(-0.128654 0.00560869 -1.93761e-20)
(-0.135034 0.00511962 -9.68655e-22)
(-0.140863 0.00461655 1.90917e-20)
(-0.146124 0.00411431 -6.99286e-20)
(-0.150817 0.00363883 -2.16513e-20)
(-0.154981 0.00323027 3.27028e-20)
(-0.158712 0.00293966 1.61046e-20)
(-0.162124 0.00281321 2.85945e-21)
(-0.165442 0.00293037 -6.47499e-21)
(-0.000668077 0.00252311 -1.9402e-20)
(-0.00356236 0.00633556 -5.31305e-22)
(-0.00905578 0.00917605 -2.63697e-20)
(-0.0160637 0.0112401 3.93379e-20)
(-0.0241666 0.0126639 -4.45402e-20)
(-0.0330173 0.0135678 -4.16271e-21)
(-0.0423093 0.0140574 -4.04111e-21)
(-0.051803 0.0142233 7.38751e-21)
(-0.0613127 0.0141414 2.44476e-20)
(-0.0706961 0.0138741 -4.15084e-21)
(-0.0798475 0.0134706 -7.3237e-21)
(-0.0886886 0.0129679 2.63736e-20)
(-0.0971617 0.0123919 -4.64177e-21)
(-0.105222 0.0117593 2.56133e-20)
(-0.112834 0.0110795 -5.18161e-20)
(-0.119964 0.0103567 -2.11688e-20)
(-0.12658 0.00959326 3.40918e-21)
(-0.132649 0.00879331 -6.93132e-20)
(-0.138141 0.00796738 1.89168e-20)
(-0.143032 0.00713813 4.25946e-20)
(-0.147314 0.00634658 -2.68786e-20)
(-0.151015 0.00565805 -6.46132e-20)
(-0.15422 0.00515848 -3.22068e-20)
(-0.157022 0.00492926 -6.00399e-20)
(-0.159616 0.00510605 -3.28118e-20)
(-0.000812972 0.0035091 9.03397e-21)
(-0.00388766 0.00882051 -1.50556e-20)
(-0.00944917 0.0127865 4.79007e-20)
(-0.0164485 0.0156746 -3.83247e-20)
(-0.0244817 0.0176722 -9.98124e-21)
(-0.0332127 0.0189452 -2.65268e-21)
(-0.0423442 0.0196401 3.13687e-20)
(-0.051643 0.0198825 2.22404e-20)
(-0.0609274 0.0197785 -3.92777e-20)
(-0.0700584 0.0194153 1.6466e-20)
(-0.0789315 0.0188617 1.00459e-21)
(-0.0874694 0.0181697 -7.41793e-20)
(-0.0956142 0.017376 -2.43424e-20)
(-0.103321 0.016504 1.97326e-21)
(-0.110553 0.0155668 1.62207e-20)
(-0.117274 0.0145702 7.3892e-20)
(-0.123452 0.0135166 8.19261e-21)
(-0.12905 0.0124103 6.99479e-20)
(-0.134033 0.0112636 6.98218e-20)
(-0.138367 0.0101051 -8.60805e-21)
(-0.142032 0.00898858 3.1351e-20)
(-0.145037 0.00800325 -1.19863e-20)
(-0.147455 0.00727225 3.97472e-20)
(-0.149345 0.00692054 1.32408e-19)
(-0.150839 0.00714681 2.06572e-20)
(-0.00100254 0.00446019 1.53734e-20)
(-0.00431405 0.0112241 -5.59225e-20)
(-0.00996566 0.0162865 7.21664e-20)
(-0.0169544 0.0199812 2.65993e-20)
(-0.0248959 0.0225431 2.08475e-20)
(-0.0334692 0.0241813 2.21728e-20)
(-0.0423882 0.0250812 -1.17946e-19)
(-0.0514282 0.0254021 4.38577e-20)
(-0.0604132 0.0252794 4.5623e-20)
(-0.0692077 0.0248244 -6.74082e-20)
(-0.0777096 0.0241256 6.97967e-20)
(-0.0858421 0.0232497 3.81657e-20)
(-0.0935474 0.022244 4.72057e-20)
(-0.10078 0.0211391 -3.1973e-20)
(-0.107501 0.0199516 -7.09449e-21)
(-0.113674 0.0186888 1.55275e-19)
(-0.119262 0.0173528 -6.7032e-20)
(-0.124226 0.0159471 5.19247e-20)
(-0.128522 0.0144838 -1.25605e-19)
(-0.132109 0.0129946 -5.06423e-20)
(-0.134948 0.011543 4.79952e-20)
(-0.137023 0.0102392 8.38104e-20)
(-0.138394 0.00924554 1.41958e-20)
(-0.139076 0.00874216 -1.08939e-19)
(-0.139079 0.00899879 -7.63715e-20)
(-0.00123362 0.00536761 -6.04747e-20)
(-0.00483513 0.0135254 -1.95249e-20)
(-0.0105983 0.0196473 -4.28026e-20)
(-0.017575 0.024126 -4.14279e-20)
(-0.0254045 0.0272397 2.97217e-20)
(-0.0337833 0.0292375 -5.31028e-20)
(-0.0424395 0.0303413 -3.44498e-20)
(-0.0511583 0.0307429 -1.71201e-19)
(-0.0597705 0.0306053 7.50971e-21)
(-0.0681453 0.0300636 -1.74361e-21)
(-0.0761828 0.0292252 -1.31258e-19)
(-0.0838074 0.0281717 -4.47673e-20)
(-0.0909608 0.0269612 -5.56037e-20)
(-0.0975962 0.0256311 1.07565e-19)
(-0.103673 0.0242022 3.102e-20)
(-0.109153 0.022683 -8.46734e-20)
(-0.113995 0.021075 -9.44563e-20)
(-0.118155 0.0193796 2.6194e-20)
(-0.121583 0.017607 1.03645e-19)
(-0.124226 0.0157884 -2.24234e-20)
(-0.126024 0.0139924 -1.35419e-20)
(-0.126935 0.0123457 -6.3818e-20)
(-0.126995 0.0110503 -8.04222e-20)
(-0.126181 0.0103557 6.57153e-20)
(-0.124276 0.0106087 4.44934e-20)
(-0.00150248 0.00622354 3.13962e-20)
(-0.00544325 0.0157057 3.69239e-20)
(-0.0113386 0.0228426 -2.9119e-20)
(-0.0183027 0.0280774 -6.0222e-20)
(-0.0260014 0.0317269 9.37352e-21)
(-0.0341511 0.0340768 7.06445e-20)
(-0.0424959 0.0353824 1.01537e-19)
(-0.0508325 0.0358662 1.38655e-19)
(-0.0589999 0.0357177 2.41857e-20)
(-0.0668721 0.0350947 3.19356e-20)
(-0.0743523 0.0341231 3.87526e-20)
(-0.0813656 0.0328992 1.48353e-19)
(-0.0878532 0.0314918 -8.55448e-21)
(-0.0937665 0.0299457 -1.90277e-19)
(-0.0990624 0.0282857 1.3713e-19)
(-0.103699 0.0265218 5.45132e-20)
(-0.107632 0.0246546 1.72661e-19)
(-0.110812 0.0226827 -7.06245e-20)
(-0.11318 0.0206119 -8.13418e-20)
(-0.114671 0.0184697 2.31974e-19)
(-0.115207 0.016324 -7.79151e-20)
(-0.114711 0.0143111 -1.18893e-19)
(-0.113194 0.0126691 -3.17518e-20)
(-0.110606 0.0117329 -9.97941e-20)
(-0.106336 0.0119247 1.66242e-20)
(-0.00180488 0.00702123 7.80815e-21)
(-0.00612972 0.0177484 -1.53543e-20)
(-0.012177 0.0258484 3.13227e-21)
(-0.0191288 0.0318063 -1.09695e-19)
(-0.0266795 0.0359722 -8.51151e-20)
(-0.0345674 0.0386639 -1.60676e-20)
(-0.0425543 0.0401678 -4.15134e-20)
(-0.0504495 0.0407344 -7.55106e-20)
(-0.058101 0.0405786 -1.70069e-20)
(-0.0653885 0.0398797 -8.43406e-21)
(-0.0722182 0.0387816 -8.00005e-20)
(-0.0785159 0.037395 3.45926e-20)
(-0.0842218 0.0357994 2.60295e-20)
(-0.0892849 0.034047 1.39741e-19)
(-0.0936585 0.0321674 -2.84157e-21)
(-0.0972966 0.0301721 -8.45265e-20)
(-0.100149 0.028061 -9.18739e-21)
(-0.102161 0.025829 3.65364e-20)
(-0.103265 0.0234764 1.49754e-19)
(-0.103384 0.0210227 -1.11176e-19)
(-0.10242 0.0185293 2.92695e-19)
(-0.100263 0.0161329 1.22006e-19)
(-0.0968843 0.0140987 -9.20694e-20)
(-0.0922639 0.0128625 1.77895e-19)
(-0.0851145 0.0128978 1.03141e-19)
(-0.00213625 0.00775514 9.56883e-21)
(-0.00688508 0.0196392 4.84773e-20)
(-0.0131029 0.028644 1.3751e-19)
(-0.0200434 0.0352868 1.71304e-19)
(-0.0274307 0.0399454 1.01838e-19)
(-0.0350263 0.0429659 -7.14678e-20)
(-0.0426107 0.0446624 1.73987e-19)
(-0.0500069 0.0453113 1.97205e-20)
(-0.0570726 0.0451509 -1.0385e-19)
(-0.0636938 0.044381 1.14039e-20)
(-0.0697793 0.043163 1.92535e-19)
(-0.0752558 0.0416213 -2.05688e-19)
(-0.0800616 0.0398464 -1.17398e-19)
(-0.0841424 0.0378982 -2.38382e-20)
(-0.0874467 0.0358112 -1.92407e-19)
(-0.0899227 0.0335991 -1.25366e-19)
(-0.0915141 0.0312612 2.22233e-20)
(-0.0921571 0.0287891 -2.60968e-19)
(-0.0917763 0.0261761 2.61065e-20)
(-0.0902812 0.0234312 -1.24781e-19)
(-0.0875592 0.0206031 -1.5446e-19)
(-0.0834632 0.0178184 1.43768e-19)
(-0.0779124 0.0153529 1.61501e-19)
(-0.0710254 0.0137559 -1.25607e-19)
(-0.0604077 0.0135058 1.72644e-19)
(-0.00249184 0.00842102 -1.15054e-19)
(-0.00769935 0.0213668 8.43661e-20)
(-0.0141051 0.0312118 -6.1549e-21)
(-0.0210358 0.0384961 3.3729e-20)
(-0.028246 0.0436195 3.19147e-20)
(-0.0355206 0.0469524 1.43166e-19)
(-0.0426598 0.0488332 -1.03873e-19)
(-0.0495011 0.0495618 -1.93582e-19)
(-0.0559121 0.0493982 9.69575e-20)
(-0.0617851 0.0485615 9.04752e-20)
(-0.0670322 0.0472295 -3.0538e-19)
(-0.0715799 0.0455403 2.14693e-19)
(-0.0753639 0.043595 3.25882e-19)
(-0.0783254 0.0414614 2.22057e-20)
(-0.0804066 0.0391795 -5.74504e-20)
(-0.0815478 0.0367659 1.64838e-19)
(-0.0816841 0.03422 -7.60034e-20)
(-0.0807418 0.0315306 3.40331e-19)
(-0.0786348 0.0286839 -2.99956e-19)
(-0.0752598 0.0256772 5.45055e-20)
(-0.0704891 0.0225408 -2.82834e-20)
(-0.0641458 0.0193817 -9.19386e-20)
(-0.0560594 0.0164579 -8.91293e-20)
(-0.0466882 0.0144262 7.33502e-20)
(-0.0319782 0.0138524 1.88264e-20)
(-0.00286682 0.00901599 7.51465e-20)
(-0.00856231 0.0229226 -5.40843e-20)
(-0.0151718 0.0335377 4.46762e-20)
(-0.0220948 0.0414148 -1.5049e-19)
(-0.0291153 0.0469707 -3.32613e-20)
(-0.0360421 0.0505957 1.69082e-20)
(-0.042695 0.0526495 -3.82646e-20)
(-0.0489264 0.0534529 -6.33199e-20)
(-0.0546142 0.0532857 1.99183e-20)
(-0.0596571 0.052385 -1.0576e-19)
(-0.0639699 0.0509441 1.97156e-19)
(-0.0674784 0.0491142 -4.53013e-20)
(-0.0701148 0.0470069 -1.15732e-19)
(-0.071814 0.0446982 -1.18445e-19)
(-0.0725098 0.042234 1.56801e-19)
(-0.0721324 0.0396344 8.49647e-20)
(-0.0706051 0.0369003 3.38112e-20)
(-0.0678418 0.0340184 -2.83786e-19)
(-0.0637426 0.0309696 2.95682e-19)
(-0.0581897 0.0277388 -9.65862e-20)
(-0.0510401 0.0243356 -4.49292e-20)
(-0.0421017 0.0208399 -3.47679e-20)
(-0.0310512 0.0174501 -3.851e-20)
(-0.0188849 0.0148291 1.24152e-19)
(0.000415972 0.0142142 -2.02899e-19)
(-0.00325651 0.00953852 -2.79204e-20)
(-0.00946379 0.024301 1.20677e-19)
(-0.016291 0.0356112 -1.72523e-19)
(-0.0232082 0.0440274 6.91815e-20)
(-0.0300275 0.0499787 3.81738e-20)
(-0.0365807 0.0538714 -5.7831e-20)
(-0.0427074 0.0560832 1.68501e-19)
(-0.0482745 0.0569535 4.0926e-20)
(-0.0531705 0.0567802 1.91886e-20)
(-0.0573002 0.0558166 1.65413e-19)
(-0.0605804 0.0542706 -6.7786e-20)
(-0.0629356 0.052306 7.16866e-20)
(-0.0642928 0.0500445 -7.62063e-20)
(-0.0645787 0.0475706 -4.83537e-21)
(-0.0637165 0.0449363 -8.30639e-20)
(-0.061623 0.0421665 -2.8734e-19)
(-0.0582063 0.0392642 5.91762e-20)
(-0.0533635 0.0362164 2.29335e-19)
(-0.0469774 0.0330002 -7.90994e-20)
(-0.0389123 0.0295908 3.82589e-19)
(-0.0290053 0.0259769 -2.12163e-19)
(-0.0170785 0.0222085 -6.06054e-20)
(-0.00261369 0.0184043 -1.01788e-19)
(0.0128768 0.0151391 3.14081e-21)
(0.0373294 0.0144395 -9.09378e-20)
(-0.00365644 0.00998845 -8.36115e-20)
(-0.0103939 0.0254993 -1.24394e-19)
(-0.0174508 0.0374252 -6.68326e-20)
(-0.0243636 0.0463222 6.28206e-20)
(-0.0309704 0.0526269 1.96243e-20)
(-0.0371249 0.0567582 1.13361e-20)
(-0.0426856 0.0591091 4.33264e-20)
(-0.0475339 0.0600353 -2.11073e-19)
(-0.0515683 0.0598505 6.97933e-20)
(-0.0546993 0.0588231 -1.4452e-19)
(-0.0568451 0.0571746 -5.23927e-20)
(-0.0579273 0.0550802 -7.0716e-20)
(-0.0578661 0.0526717 -1.49742e-19)
(-0.0565778 0.050042 3.07773e-19)
(-0.0539718 0.0472499 1.74567e-19)
(-0.0499479 0.0443253 4.69474e-20)
(-0.0443947 0.0412755 1.46496e-19)
(-0.0371877 0.0380894 -2.1199e-19)
(-0.0281869 0.0347431 -5.22159e-20)
(-0.0172348 0.0312061 -2.48671e-19)
(-0.00413782 0.0274505 9.58253e-20)
(0.0112413 0.023503 2.10641e-19)
(0.0296779 0.0193838 9.62627e-20)
(0.0488552 0.0156115 -1.817e-19)
(0.0795836 0.0144116 2.26839e-19)
(-0.00406253 0.0103669 -2.98064e-20)
(-0.0113432 0.0265174 7.79389e-21)
(-0.0186393 0.0389763 8.46343e-20)
(-0.0255478 0.048291 1.5111e-19)
(-0.0319304 0.0549023 -1.01144e-19)
(-0.0376604 0.0592386 9.75347e-20)
(-0.0426147 0.0617056 -7.65154e-20)
(-0.0466883 0.0626729 2.89059e-19)
(-0.049789 0.0624685 -2.02615e-19)
(-0.0518321 0.0613743 4.3588e-20)
(-0.0527362 0.059624 1.88077e-19)
(-0.052418 0.0574037 -2.59527e-20)
(-0.0507892 0.054855 2.01891e-20)
(-0.0477526 0.0520788 -2.50209e-19)
(-0.0432002 0.0491412 -2.12043e-19)
(-0.0370107 0.0460784 -8.09213e-21)
(-0.0290484 0.0429026 -2.33547e-19)
(-0.0191614 0.0396069 8.54355e-20)
(-0.00718046 0.0361702 -1.18989e-19)
(0.00707786 0.0325611 1.55658e-19)
(0.0238554 0.028742 -2.10171e-19)
(0.0431961 0.0247259 1.26195e-19)
(0.0663303 0.0204202 -1.05409e-19)
(0.089478 0.0163276 1.42717e-19)
(0.127806 0.014502 -8.32855e-21)
(-0.00447119 0.0106761 1.63259e-19)
(-0.0123029 0.027358 4.14293e-20)
(-0.0198448 0.0402645 -9.37526e-20)
(-0.0267474 0.0499298 -1.12515e-19)
(-0.0328921 0.056796 7.59295e-20)
(-0.0381705 0.0612988 -2.78357e-19)
(-0.0424759 0.0638543 3.96777e-19)
(-0.0457159 0.0648443 7.71909e-20)
(-0.0478066 0.0646093 1.27914e-19)
(-0.048667 0.0634429 1.56285e-19)
(-0.048214 0.0615902 9.84939e-20)
(-0.046358 0.0592474 -7.38e-20)
(-0.0429987 0.056565 -2.49689e-21)
(-0.0380223 0.0536524 -3.6089e-20)
(-0.0312996 0.050583 -1.07726e-19)
(-0.0226833 0.0473999 2.41378e-19)
(-0.0120078 0.0441221 4.92079e-19)
(0.000911972 0.040749 2.93259e-20)
(0.0162812 0.0372649 1.69766e-19)
(0.0343114 0.0336431 -8.82916e-20)
(0.0553203 0.0298459 1.06942e-19)
(0.0791674 0.025879 -6.27687e-19)
(0.107853 0.0215795 2.97956e-19)
(0.135232 0.017323 1.8392e-19)
(0.182646 0.015051 -1.22275e-19)
(-0.00487939 0.0109195 -9.79128e-20)
(-0.0132653 0.0280261 -1.68337e-19)
(-0.021056 0.0412928 1.61499e-19)
(-0.0279479 0.0512378 1.05781e-19)
(-0.0338385 0.0583027 5.68866e-20)
(-0.0386348 0.0629289 2.01326e-19)
(-0.0422449 0.0655411 -2.08905e-19)
(-0.0445876 0.0665318 -1.92631e-19)
(-0.0455858 0.066252 -1.26442e-19)
(-0.0451602 0.0650062 -2.96872e-19)
(-0.0432241 0.0630494 5.74077e-20)
(-0.0396785 0.0605871 -2.34145e-20)
(-0.0344082 0.0577786 4.23079e-19)
(-0.0272787 0.0547413 1.7421e-19)
(-0.0181345 0.0515565 1.2521e-19)
(-0.00679762 0.0482752 -3.93384e-20)
(0.0069333 0.0449244 -2.25558e-19)
(0.023282 0.0415116 -1.8265e-19)
(0.0424961 0.0380304 -2.13681e-19)
(0.0648121 0.0344619 1.53005e-19)
(0.0906619 0.0307807 2.88392e-19)
(0.119578 0.0269774 3.22442e-19)
(0.154769 0.022936 -3.03843e-19)
(0.18657 0.0186553 1.30839e-19)
(0.244694 0.0163508 1.75363e-19)
(-0.00528475 0.0111013 -2.57862e-19)
(-0.014223 0.0285286 1.43532e-19)
(-0.0222616 0.0420672 -2.44794e-19)
(-0.0291339 0.0522177 3.00826e-19)
(-0.0347496 0.059421 -2.8746e-19)
(-0.0390285 0.064123 -8.60435e-20)
(-0.0418912 0.0667562 -1.60315e-19)
(-0.0432658 0.0677219 9.01399e-20)
(-0.0430799 0.0673809 -1.54333e-19)
(-0.0412536 0.0660469 1.68778e-19)
(-0.0376938 0.0639837 -2.21367e-19)
(-0.0322886 0.0614058 -1.64198e-19)
(-0.0249037 0.0584806 5.73455e-21)
(-0.0153794 0.0553338 -2.52035e-19)
(-0.0035288 0.052055 5.33861e-21)
(0.0108625 0.0487044 -2.55069e-19)
(0.0280366 0.0453181 -1.56472e-20)
(0.0482604 0.0419142 -2.78181e-19)
(0.071829 0.0384982 9.7232e-20)
(0.0989912 0.0350605 4.23178e-19)
(0.130343 0.0316084 -4.07022e-19)
(0.164888 0.028067 1.99854e-19)
(0.207587 0.0245973 2.1945e-19)
(0.243884 0.0203833 -1.05228e-19)
(0.314321 0.0186697 4.23157e-20)
(-0.00568547 0.0112263 1.33632e-19)
(-0.0151699 0.0288742 -3.7699e-20)
(-0.0234505 0.0425957 8.30028e-20)
(-0.0302889 0.0528751 -2.41994e-19)
(-0.0356028 0.060153 3.87785e-19)
(-0.0393218 0.0648796 2.52828e-20)
(-0.0413768 0.0674944 2.80265e-19)
(-0.0417024 0.0684068 -1.46211e-19)
(-0.0402285 0.067986 9.90734e-20)
(-0.0368715 0.066554 1.30339e-19)
(-0.0315282 0.064383 1.19469e-19)
(-0.0240697 0.0616952 3.77999e-19)
(-0.0143378 0.0586665 -9.56429e-20)
(-0.00214203 0.0554312 -9.63328e-20)
(0.0127412 0.0520881 -7.54364e-20)
(0.0305681 0.0487074 -6.6988e-21)
(0.0516258 0.0453365 -1.58783e-19)
(0.0762256 0.0420057 1.40229e-19)
(0.104712 0.0387362 -1.8815e-19)
(0.137322 0.0355247 7.72263e-20)
(0.174868 0.032447 -1.09692e-19)
(0.215572 0.0292431 1.41431e-20)
(0.26673 0.0267259 -5.13921e-19)
(0.30747 0.0225887 5.49034e-20)
(0.39151 0.0222353 -1.64839e-21)
(-0.00608042 0.0112999 1.78201e-19)
(-0.0161003 0.0290727 -1.20259e-19)
(-0.0246113 0.0428887 -8.4775e-20)
(-0.0313943 0.0532187 -5.1223e-20)
(-0.0363713 0.0605044 -1.67688e-19)
(-0.0394786 0.0652012 -2.82982e-19)
(-0.0406542 0.0677555 -9.23513e-20)
(-0.0398368 0.0685842 3.15913e-19)
(-0.0369549 0.0680641 -9.86473e-20)
(-0.0319176 0.0665248 -2.13245e-19)
(-0.0246069 0.0642461 -1.28817e-19)
(-0.0148719 0.0614582 -3.86552e-19)
(-0.00252482 0.0583454 -4.21123e-19)
(0.0126612 0.0550512 3.16317e-19)
(0.0309518 0.0516848 6.50601e-20)
(0.0526493 0.0483281 5.19954e-20)
(0.0780876 0.0450419 5.43674e-19)
(0.107619 0.0418706 8.27368e-20)
(0.141634 0.0388552 5.2154e-19)
(0.180317 0.0359882 -6.24687e-19)
(0.224737 0.0334735 2.92078e-19)
(0.272076 0.0306661 -2.64039e-19)
(0.332426 0.0295336 4.13871e-19)
(0.377474 0.0254187 -6.21316e-19)
(0.475676 0.0272125 1.29049e-19)
(-0.00646896 0.0113276 -4.51806e-20)
(-0.017009 0.0291345 -9.60748e-20)
(-0.0257318 0.0429578 -8.85472e-20)
(-0.0324294 0.053259 3.01675e-20)
(-0.0370239 0.060484 -4.75099e-20)
(-0.0394555 0.0650946 1.79155e-19)
(-0.0396659 0.0675446 -6.41621e-20)
(-0.0375944 0.0682582 -1.35439e-19)
(-0.0331642 0.0676197 -5.546e-20)
(-0.026272 0.0659657 2.78369e-21)
(-0.0167801 0.0635835 3.55572e-19)
(-0.0045095 0.0607113 -3.11981e-19)
(0.0107632 0.0575424 4.53723e-19)
(0.0293069 0.0542309 -1.31305e-19)
(0.051434 0.050898 -2.28589e-19)
(0.0774945 0.0476392 1.89328e-19)
(0.107866 0.0445307 -2.07649e-19)
(0.142932 0.0416329 -3.50864e-19)
(0.18311 0.0390113 -1.30717e-19)
(0.228486 0.036634 1.22865e-19)
(0.280374 0.0349153 1.96151e-19)
(0.334738 0.0325695 3.80439e-19)
(0.404566 0.033247 2.201e-20)
(0.453768 0.0291084 2.6311e-19)
(0.565508 0.0336874 -8.52067e-20)
(-0.00685089 0.011315 -2.21374e-20)
(-0.0178912 0.0290704 2.10183e-19)
(-0.026799 0.0428154 2.17049e-19)
(-0.0333702 0.0530086 -9.73319e-20)
(-0.0375239 0.0601035 6.83376e-20)
(-0.0392005 0.0645708 -2.54263e-19)
(-0.0383422 0.0668723 5.05824e-20)
(-0.0348844 0.0674403 4.0832e-20)
(-0.0287403 0.0666661 -1.19121e-19)
(-0.0197888 0.0648938 -3.28098e-20)
(-0.00786602 0.0624182 -4.45757e-19)
(0.00724149 0.0594864 1.41825e-19)
(0.0257988 0.0563019 -2.13988e-20)
(0.0481218 0.0530307 -5.04869e-21)
(0.0745713 0.0498081 -2.05946e-20)
(0.105542 0.0467454 -4.05903e-21)
(0.141447 0.0439363 -1.81704e-20)
(0.182674 0.0414576 2.43482e-19)
(0.229637 0.039404 -2.16322e-19)
(0.282263 0.0376908 1.97029e-19)
(0.342019 0.0370261 -2.90438e-19)
(0.403659 0.0352525 -1.39921e-19)
(0.482556 0.0380567 4.03263e-20)
(0.535786 0.0339502 -2.25522e-19)
(0.658895 0.0416495 -7.36233e-20)
(-0.00722627 0.0112671 -2.10327e-19)
(-0.0187415 0.0288906 -2.64736e-20)
(-0.027798 0.0424744 -2.68251e-19)
(-0.0341893 0.0524814 -2.1565e-19)
(-0.0378282 0.0593776 2.85755e-19)
(-0.0386521 0.0636448 1.95773e-19)
(-0.0366 0.0657551 -8.64692e-20)
(-0.0315984 0.0661491 -7.7486e-20)
(-0.0235447 0.0652262 -5.77305e-20)
(-0.0122939 0.0633382 4.988e-19)
(0.00235117 0.0607884 1.91888e-19)
(0.0206446 0.0578338 2.71073e-19)
(0.0428986 0.0546898 -1.49984e-20)
(0.0694783 0.0515366 5.2659e-20)
(0.100791 0.0485255 1.45961e-19)
(0.137265 0.0457857 -3.4238e-19)
(0.179324 0.0434295 5.40897e-19)
(0.227328 0.0415486 5.71465e-20)
(0.281622 0.0402688 -1.76195e-19)
(0.341914 0.0394228 -2.65905e-19)
(0.40962 0.0400533 -1.43713e-19)
(0.478548 0.0390469 3.20194e-19)
(0.565231 0.0440745 -1.06415e-20)
(0.622335 0.0402111 1.67487e-19)
(0.752995 0.0509655 2.00913e-19)
(-0.00759518 0.0111887 1.60448e-19)
(-0.0195542 0.0286049 1.67982e-20)
(-0.0287117 0.0419474 -3.62526e-20)
(-0.0348545 0.0516922 3.80451e-20)
(-0.0378863 0.0583228 -2.71808e-19)
(-0.0377385 0.0623359 3.62118e-19)
(-0.0343418 0.0642152 -8.66889e-22)
(-0.0276088 0.0644117 2.95299e-19)
(-0.0174149 0.0633335 1.26046e-20)
(-0.00358376 0.0613413 -1.01175e-19)
(0.0141214 0.0587484 1.59431e-19)
(0.0360016 0.0558235 -5.35725e-19)
(0.0624187 0.0527959 -3.30479e-19)
(0.0937854 0.0498623 -1.64772e-19)
(0.130544 0.0471921 -7.10966e-20)
(0.173137 0.0449331 6.43364e-21)
(0.22196 0.0432156 -3.50802e-19)
(0.277284 0.0421413 1.33308e-19)
(0.339295 0.0418613 5.12582e-19)
(0.407425 0.0421095 1.40989e-19)
(0.482721 0.0442065 3.41104e-19)
(0.558561 0.0442511 -3.37221e-19)
(0.650843 0.0513144 -7.85247e-20)
(0.711478 0.0480273 -1.33461e-19)
(0.844499 0.0613543 -7.03906e-19)
(-0.00795754 0.0110836 -1.50396e-19)
(-0.020322 0.0282216 7.62831e-20)
(-0.0295199 0.0412462 1.35681e-19)
(-0.0353284 0.0506564 4.72053e-19)
(-0.0376397 0.0569582 1.77793e-19)
(-0.0363758 0.0606669 -3.94981e-19)
(-0.0314546 0.0622811 -9.96944e-20)
(-0.0227686 0.0622634 -5.23364e-20)
(-0.010164 0.0610326 -1.72496e-19)
(0.0065735 0.0589598 -5.6516e-20)
(0.0277268 0.0563704 -1.17003e-19)
(0.0536473 0.0535469 4.2749e-19)
(0.0847456 0.0507351 5.10712e-19)
(0.121473 0.04815 2.57161e-19)
(0.164285 0.0459802 -1.3138e-19)
(0.2136 0.0443912 -9.21399e-20)
(0.269725 0.0435266 2.02765e-19)
(0.332762 0.043489 -4.58358e-20)
(0.402617 0.0444357 -3.39748e-21)
(0.478386 0.0460109 1.11367e-19)
(0.56039 0.0496354 -1.59577e-19)
(0.642199 0.0510482 -2.76828e-19)
(0.737163 0.0596864 -1.84853e-19)
(0.800572 0.0573254 2.33842e-19)
(0.930056 0.0723839 7.39808e-19)
(-0.0083128 0.0109548 1.20038e-19)
(-0.0210361 0.0277474 4.08383e-19)
(-0.0301988 0.040382 1.63379e-19)
(-0.0355675 0.0493894 -1.4475e-19)
(-0.0370212 0.055304 2.02077e-19)
(-0.0344685 0.0586645 2.22643e-19)
(-0.0278097 0.0599871 2.49741e-19)
(-0.0169107 0.0597484 -1.40471e-20)
(-0.00158165 0.0583797 1.96627e-19)
(0.0184365 0.0562653 -6.05792e-19)
(0.043477 0.0537448 3.42965e-19)
(0.0739414 0.0511172 -1.82476e-19)
(0.110281 0.0486472 -4.61531e-19)
(0.152965 0.0465688 -3.35362e-19)
(0.202428 0.0450891 5.47324e-19)
(0.259002 0.0443866 -1.87801e-19)
(0.322826 0.0446084 -9.26215e-20)
(0.393728 0.0458432 7.14076e-20)
(0.471191 0.0482185 -3.61247e-19)
(0.553908 0.0513231 2.93562e-19)
(0.641191 0.0564125 -4.73537e-20)
(0.727325 0.0594375 3.44062e-19)
(0.821656 0.0689924 3.98354e-19)
(0.88653 0.0678056 -1.36328e-19)
(1.00674 0.0835102 -2.70654e-19)
(-0.00865967 0.0108041 -6.25982e-20)
(-0.0216848 0.0271871 -2.31654e-19)
(-0.0307206 0.0393648 6.11847e-21)
(-0.0355217 0.0479062 -1.17041e-19)
(-0.0359538 0.0533821 -3.45055e-19)
(-0.0319085 0.0563591 -1.78568e-19)
(-0.0232626 0.0573736 9.82787e-20)
(-0.00984926 0.0569193 -3.06676e-19)
(0.008564 0.055443 2.42162e-20)
(0.032286 0.0533445 1.5112e-19)
(0.0617011 0.0509805 -4.34767e-19)
(0.0972546 0.0486692 -1.43154e-19)
(0.139421 0.0466949 3.69688e-19)
(0.188652 0.0453108 2.50188e-19)
(0.245306 0.0447373 -3.24007e-19)
(0.309548 0.0451567 3.48328e-19)
(0.38124 0.046702 1.45187e-19)
(0.459813 0.0494271 -3.65925e-20)
(0.544197 0.0533796 -3.1577e-20)
(0.632596 0.0581331 -3.11951e-19)
(0.723223 0.0645141 3.44117e-20)
(0.811338 0.069212 -5.86748e-20)
(0.901742 0.0789251 -3.1181e-19)
(0.96627 0.0789952 -2.29591e-19)
(1.07241 0.0941546 -2.13292e-19)
(-0.00899608 0.010632 -3.93853e-20)
(-0.022254 0.0265441 -5.15148e-19)
(-0.0310515 0.0382021 -3.18432e-19)
(-0.0351338 0.0462211 -4.06193e-19)
(-0.0343511 0.0512158 3.59199e-19)
(-0.0285751 0.0537841 2.8944e-20)
(-0.017654 0.0544869 2.60617e-19)
(-0.00138161 0.0538379 -2.38465e-19)
(0.0205222 0.0523024 3.97017e-19)
(0.0484178 0.0502989 1.48891e-19)
(0.0827362 0.048204 1.21534e-20)
(0.123951 0.0463567 -2.34028e-20)
(0.172527 0.0450609 -8.26941e-20)
(0.22885 0.0445844 -7.19454e-20)
(0.293118 0.0451521 7.71099e-20)
(0.365229 0.046933 1.09185e-19)
(0.444642 0.0500211 -6.94512e-19)
(0.530263 0.054406 4.34814e-20)
(0.620368 0.060003 -1.14762e-19)
(0.71261 0.0663899 -1.06197e-19)
(0.80424 0.0738007 5.33682e-20)
(0.891475 0.0799854 -3.45281e-19)
(0.975084 0.0890912 1.56687e-19)
(1.03719 0.0903588 1.98562e-19)
(1.12594 0.103797 -4.5066e-19)
(-0.00931845 0.0104382 9.20486e-20)
(-0.0227266 0.0258195 3.72885e-19)
(-0.0311529 0.0368996 3.2116e-20)
(-0.0343387 0.0443484 5.90313e-19)
(-0.032117 0.0488293 -3.74724e-19)
(-0.0243364 0.0509766 3.67352e-19)
(-0.0108112 0.051379 -3.29513e-19)
(0.00870879 0.0505742 1.29858e-19)
(0.0345542 0.049049 -1.67756e-19)
(0.0671338 0.0472439 2.2152e-19)
(0.106913 0.0455577 3.67562e-19)
(0.154364 0.04435 1.90535e-19)
(0.209898 0.0439411 7.63619e-20)
(0.273754 0.044605 8.34635e-20)
(0.345877 0.0465547 -6.3549e-20)
(0.425771 0.0499214 -5.11093e-20)
(0.512362 0.0547263 5.66639e-19)
(0.603922 0.0608594 1.86428e-19)
(0.698035 0.0680617 5.16308e-19)
(0.791803 0.0759007 1.34493e-20)
(0.881862 0.084013 -3.25175e-19)
(0.965191 0.0912527 4.04968e-19)
(1.03989 0.0990752 5.09791e-19)
(1.0975 0.101432 6.58243e-20)
(1.16711 0.112034 4.43143e-19)
(-0.00962167 0.0102211 -2.6122e-19)
(-0.0230809 0.0250118 1.44793e-19)
(-0.0309805 0.0354621 3.18234e-19)
(-0.0330638 0.0423016 -1.25186e-19)
(-0.029146 0.046248 -3.72839e-19)
(-0.0190494 0.0479764 -2.753e-20)
(-0.0025506 0.0481075 2.01656e-20)
(0.0206478 0.0472062 3.61775e-20)
(0.0509254 0.0457845 -2.32112e-19)
(0.0887297 0.0443075 -9.83704e-20)
(0.134536 0.0431966 -3.43297e-19)
(0.188774 0.0428302 -8.50034e-21)
(0.25173 0.0435372 -9.65846e-20)
(0.323405 0.0455824 -2.92804e-20)
(0.403366 0.0491431 2.56178e-19)
(0.490594 0.0542797 -3.75415e-19)
(0.583372 0.0609014 1.58081e-19)
(0.679274 0.0687608 -2.49994e-19)
(0.77524 0.0774044 -3.73216e-19)
(0.867939 0.0863528 6.89769e-20)
(0.953843 0.0947906 6.93753e-19)
(1.0305 0.102466 -3.51366e-19)
(1.0951 0.108545 1.52761e-20)
(1.14634 0.111903 3.04031e-19)
(1.19654 0.118494 1.70356e-19)
(-0.00989858 0.00997743 1.23012e-19)
(-0.0232913 0.0241185 -1.74756e-19)
(-0.0304839 0.0338931 -3.70465e-19)
(-0.0312289 0.040094 -1.96846e-19)
(-0.0253241 0.0434985 2.15219e-19)
(-0.0125627 0.0448269 7.32799e-20)
(0.00731905 0.0447354 4.28349e-19)
(0.0346652 0.0438197 1.73789e-19)
(0.0698969 0.0426202 1.09865e-19)
(0.113481 0.0416277 5.1233e-20)
(0.165865 0.0412852 3.5493e-19)
(0.227376 0.0419834 1.60544e-19)
(0.298084 0.0440462 -1.32944e-19)
(0.377638 0.0477067 1.90223e-19)
(0.465098 0.0530737 -1.09659e-19)
(0.558802 0.0600973 1.39256e-19)
(0.656317 0.0685347 -1.35178e-19)
(0.75454 0.0779697 -2.94273e-19)
(0.849917 0.0877611 4.27809e-19)
(0.938932 0.097356 -4.47239e-19)
(1.01834 0.105715 1.26384e-19)
(1.08624 0.11312 -1.45978e-19)
(1.14047 0.117352 -1.10197e-19)
(1.18362 0.121483 -9.07463e-19)
(1.21564 0.122613 1.44777e-19)
(-0.0101403 0.00970425 2.51111e-20)
(-0.0233272 0.0231357 1.25279e-19)
(-0.0296064 0.0321945 4.15689e-19)
(-0.0287468 0.0377388 -9.80702e-20)
(-0.0205296 0.040609 -4.27215e-20)
(-0.00471782 0.0415745 7.95048e-20)
(0.0189927 0.0413308 7.08824e-20)
(0.0509874 0.0405074 -2.79083e-19)
(0.0917141 0.0396751 -1.2965e-19)
(0.141627 0.0393501 -4.00201e-19)
(0.201093 0.0399924 -3.02205e-19)
(0.270253 0.0419927 -2.15546e-19)
(0.348854 0.0456495 1.92566e-19)
(0.436064 0.0511327 -2.81175e-19)
(0.53031 0.0584431 -1.35383e-19)
(0.629204 0.0673781 -5.92601e-20)
(0.729595 0.0775101 -4.28087e-20)
(0.827826 0.0882402 8.80965e-19)
(0.920105 0.098773 5.59736e-20)
(1.00307 0.108495 -7.74857e-20)
(1.07414 0.11636 -4.3679e-19)
(1.13209 0.122855 1.41846e-19)
(1.17632 0.125514 1.47407e-20)
(1.21008 0.129508 5.21388e-19)
(1.22709 0.123999 5.84146e-20)
(-0.0103369 0.0093975 1.98822e-19)
(-0.0231539 0.0220579 -1.91229e-19)
(-0.0282852 0.0303685 -2.90423e-19)
(-0.0255236 0.03525 2.91655e-19)
(-0.014635 0.0376097 -6.5101e-20)
(0.00464739 0.0382696 -5.6418e-20)
(0.0326641 0.0379673 4.9228e-20)
(0.0698307 0.0373686 -7.04283e-20)
(0.116596 0.037075 1.76679e-19)
(0.173355 0.037625 1.14581e-19)
(0.240322 0.0394854 2.96861e-19)
(0.317351 0.0430294 -7.96275e-21)
(0.403742 0.0485 2.43441e-19)
(0.498052 0.0559654 -1.63302e-20)
(0.597977 0.0652741 2.5994e-19)
(0.700377 0.076033 7.56663e-20)
(0.801483 0.0876129 -4.88589e-19)
(0.897309 0.0992454 -2.38208e-19)
(0.984158 0.11004 -5.80026e-20)
(1.05919 0.11938 1.57161e-19)
(1.12074 0.126358 -7.45465e-20)
(1.16848 0.131525 -2.64857e-19)
(1.20334 0.132939 3.48484e-20)
(1.22723 0.135108 -2.44474e-19)
(1.2405 0.129074 -1.1834e-19)
(-0.0104757 0.00905233 1.21812e-19)
(-0.0227327 0.02088 1.30066e-19)
(-0.0264521 0.0284174 2.38339e-19)
(-0.0214597 0.032643 -1.73605e-19)
(-0.0075081 0.0345336 1.27006e-20)
(0.0156959 0.0349667 3.4773e-19)
(0.0485208 0.0347238 -9.96488e-20)
(0.091392 0.0345082 -3.32627e-19)
(0.144721 0.03495 -1.97118e-19)
(0.208783 0.0366026 2.63626e-19)
(0.283545 0.0399242 -5.49354e-19)
(0.368458 0.0452431 2.16443e-21)
(0.462244 0.0527102 -4.71454e-20)
(0.562737 0.0622466 3.4909e-19)
(0.666856 0.0735067 -1.89909e-19)
(0.77077 0.085882 2.60992e-19)
(0.870288 0.0985494 2.64014e-19)
(0.961412 0.110615 -4.66151e-19)
(1.0409 0.121174 -1.94557e-19)
(1.10674 0.129686 -1.61524e-19)
(1.1583 0.135456 2.46591e-19)
(1.1963 0.139152 3.90471e-19)
(1.22248 0.139262 1.81697e-19)
(1.23896 0.13989 -1.61541e-19)
(1.24801 0.133499 -2.91421e-19)
(-0.0105421 0.0086642 -2.8782e-20)
(-0.0220204 0.0195975 1.21812e-19)
(-0.024034 0.026345 -2.42035e-19)
(-0.0164511 0.0299356 -3.7163e-19)
(0.000985207 0.0314175 -5.50721e-19)
(0.0285878 0.0317249 9.38473e-20)
(0.0667378 0.0316846 -1.10677e-19)
(0.11584 0.0320361 1.62228e-19)
(0.176217 0.0334328 6.03126e-20)
(0.247941 0.0364298 1.16387e-19)
(0.330626 0.0414534 1.29368e-19)
(0.423189 0.0487526 -7.14281e-20)
(0.523654 0.058341 -1.03357e-19)
(0.629058 0.0699472 -2.32252e-19)
(0.735567 0.082999 7.08698e-20)
(0.838824 0.0966695 -2.77439e-19)
(0.934502 0.109979 1.02322e-19)
(1.01895 0.121981 6.60792e-20)
(1.08968 0.131844 -2.74848e-19)
(1.14574 0.139179 -2.96284e-19)
(1.18754 0.143551 -1.58608e-19)
(1.21667 0.145747 9.0434e-21)
(1.23546 0.144635 4.95284e-20)
(1.24608 0.143985 -1.5945e-19)