/*--------------------------------*- C++ -*----------------------------------*\
  =========                 |
  \\      /  F ield         | OpenFOAM: The Open Source CFD Toolbox
   \\    /   O peration     | Website:  https://openfoam.org
    \\  /    A nd           | Version:  7
     \\/     M anipulation  |
\*---------------------------------------------------------------------------*/
FoamFile
{
    version     2.0;
    format      ascii;
    class       volScalarField;
    location    "0.5";
    object      p;
}
// * * * * * * * * * * * * * * * * * * * * * * * * * * * * * * * * * * * * * //

dimensions      [1 -1 -2 0 0 0 0];

internalField   nonuniform List<scalar> 
4032
(
1
1
1
1
1
1
1
1
1
1
1
1
1
1
1
6.17744
11.6116
11.7057
11.7913
11.9626
12.1158
12.3167
12.4518
12.5217
1
1
1
1
1
1
1
1
1
1
1
1
1
1
1
5.97187
11.5134
11.6743
11.7688
11.9327
12.0698
12.2522
12.3804
12.4516
1
1
1
1
1
1
1
1
1
1
1
1
1
1
1
5.54959
11.3866
11.6162
11.7166
11.8683
11.9912
12.1573
12.2836
12.3599
1
1
1
1
1
1
1
1
1
1
1
1
1
1
1
4.9247
11.1484
11.5135
11.6285
11.7742
11.8855
12.0405
12.1562
12.2242
1
1
1
1
1
1
1
1
1
1
1
1
1
1
1
4.14738
10.7514
11.3895
11.5172
11.6187
11.7078
11.8532
11.9642
12.0405
1
1
1
1
1
1
1
1
1
1
1
1
1
1
1
3.25336
10.1521
11.2134
11.3318
11.4214
11.5084
11.6372
11.7215
11.6712
1
1
1
1
1
1
1
1
1
1
1
1
1
1
1
2.19079
9.2358
11.0863
11.1754
11.2072
11.2283
11.2331
11.2104
11.1494
1
1
1
1
1
1
1
1
1
1
1
1
1
1
1
1.27985
7.82509
10.8737
10.9559
10.9086
10.863
10.8272
10.7227
10.7534
1
1
1
1
1
1
1
1
1
1
1
1
1
1
1
1.00789
5.85427
10.4405
10.726
10.6665
10.5585
10.2762
9.49251
7.42019
1
1
1
1
1
1
1
1
1
1
1
1
1
1
1
1.00002
3.55918
9.60047
10.5069
10.3478
10.1094
9.54527
8.57361
6.53256
1
1
1
1
1
1
1
1
1
1
1
1
1
1
1
1
1.61042
8.1822
10.2457
9.96458
9.61891
8.9373
7.93899
6.16816
1
1
1
1
1
1
1
1
1
1
1
1
1
1
1
1
1.02766
5.61049
9.70912
9.65058
9.2863
8.63152
7.57806
6.09245
1
1
1
1
1
1
1
1
1
1
1
1
1
1
1
1
1.00008
2.57457
8.64558
9.43762
8.9609
8.2927
7.32989
6.12743
1
1
1
1
1
1
1
1
1
1
1
1
1
1
1
1
1
1.14488
6.2296
8.99901
8.63448
8.03523
7.20734
6.19566
1
1
1
1
1
1
1
1
1
1
1
1
1
1
1
1
1
1.00158
2.75886
8.09111
8.55738
7.91434
7.14807
6.24967
1
1
1
1
1
1
1
1
1
1
1
1
1
1
1
1
1
1
1.16918
5.56566
8.22603
7.71971
7.04641
6.28522
1
1
1
1
1
1
1
1
1
1
1
1
1
1
1
1
1
1
1.00208
2.16789
6.9926
7.77327
7.08761
6.40977
1
1
1
1
1
1
1
1
1
1
1
1
1
1
1
1
1
1
1
1.08049
3.84793
7.17691
7.08872
6.43621
1
1
1
1
1
1
1
1
1
1
1
1
1
1
1
1
1
1
1
1.00079
1.46063
5.07886
6.9697
6.5409
1
1
1
1
1
1
1
1
1
1
1
1
1
1
1
1
1
1
1
1
1.01439
2.10385
5.64876
6.52748
1
1
1
1
1
1
1
1
1
1
1
1
1
1
1
1
1
1
1
1
1.00007
1.07315
2.75458
5.66524
1
1
1
1
1
1
1
1
1
1
1
1
1
1
1
1
1
1
1
1
1
1.0008
1.18992
3.09548
1
1
1
1
1
1
1
1
1
1
1
1
1
1
1
1
1
1
1
1
1
1
1.00366
1.29127
1
1
1
1
1
1
1
1
1
1
1
1
1
1
1
1
1
1
1
1
1
1
1.00001
1.00753
1
1
1
1
1
1
1
1
1
1
1
1
1
1
1
1
1
1
1
1
1
1
1
1.00003
1
1
1
1
1
1
1
1
1
1
1
1
1
1
1
1
1
1
1
1
1
1
1
1
1
1
1
1
1
1
1
1
1
1
1
1
1
1
1
1
1
1
1
1
1
1
1
1
1
1
1
1
1
1
1
1
1
1
1
1
1
1
1
1
1
1
1
1
1
1
1
1
1
1
1
1
1
1
1
1
1
1
1
1
1
1
1
1
1
1
1
1
1
1
1
1
1
1
1
1
1
1
1
1
1
1
1
1
1
1
1
1
1
1
1
1
1
1
1
1
1
1
1
1
1
1
1
1
1
1
1
1
1
1
1
1
1
1
1
1
1
1
1
1
1
1
1
1
1
1
1
1
1
1
1
1
1
1
1
1
1
1
1
1
1
1
1
1
1
1
1
1
1
1
1
1
1
1
1
1
1
1
1
1
1
1
1
1
1
1
1
1
1
1
1
1
1
1
1
1
1
1
1
1
1
1
1
1
1
1
1
1
1
1
1
1
1
1
1
1
1
1
1
1
1
1
1
1
1
1
1
1
1
1
1
1
1
1
1
1
1
1
1
1
1
1
1
1
1
1
1
1
1
1
1
1
1
1
1
1
1
1
1
1
1
1
1
1
1
1
1
1
1
1
1
1
1
1
1
1
1
1
1
1
1
1
1
1
1
1
1
1
1
1
1
1
1
1
1
1
1
1
1
1
1
1
1
1
1
1
1
1
1
1
1
1
1
1
1
1
1
1
1
1
1
1
1
1
1
1
1
1
1
1
1
1
1
1
1
1
1
1
1
1
1
1
1
1
1
1
1
1
1
1
1
1
1
1
1
1
1.64789
0.502602
0.241669
0.164598
0.168939
0.243222
0.364855
0.457657
0.582446
0.755438
0.907924
0.960574
0.955387
0.945748
0.954139
0.976804
0.990828
1.01239
1.02796
1.02971
1.01018
0.963691
0.905743
0.871609
0.858719
0.854062
0.865188
0.887487
0.890488
0.884448
0.863374
0.828352
0.812585
0.809993
0.80877
0.81469
0.841526
0.899554
0.931929
0.923398
0.915165
0.900301
0.894424
0.896297
0.903689
0.917801
0.934963
0.94989
0.959887
0.964559
0.964152
0.959563
0.956538
0.966812
0.983377
0.98126
0.982016
0.990024
1.0013
1.00256
0.998594
0.993969
0.990146
0.987792
0.986989
0.987166
0.988329
0.995446
1.01832
1.04289
1.04893
1.04916
1.04921
1.04898
1.04708
1.04027
1.02519
1.00724
1.00046
1
1
1
1
1
1
1
1
1
1
1
1
1
1
1
1
1
2.85093
1.49083
1.06373
0.773898
0.54943
0.520076
0.52234
0.495596
0.491179
0.534705
0.619359
0.696767
0.742708
0.797497
0.850244
0.887808
0.943756
0.98598
0.995873
0.998782
0.982871
0.95889
0.925822
0.895325
0.879089
0.869509
0.865359
0.869278
0.867558
0.864521
0.853103
0.837995
0.83295
0.832277
0.833472
0.839056
0.85346
0.886537
0.908317
0.901746
0.898403
0.897607
0.900633
0.905338
0.912688
0.923111
0.933042
0.940963
0.947118
0.950948
0.952227
0.953383
0.961575
0.985065
0.99574
0.976216
0.97169
0.976884
0.988358
0.993371
0.99098
0.988086
0.985873
0.985145
0.985275
0.98586
0.987363
0.996107
1.01941
1.04321
1.04911
1.04932
1.04932
1.04865
1.04608
1.03995
1.02579
1.00763
1.00048
1
1
1
1
1
1
1
1
1
1
1
1
1
1
1
1
1
3.7857
2.41751
1.72034
1.30725
1.00785
0.824189
0.736165
0.63621
0.52386
0.517291
0.55021
0.60527
0.653128
0.708623
0.774466
0.81429
0.870557
0.937667
0.974861
0.994188
0.990563
0.964441
0.936699
0.909858
0.893551
0.883536
0.87581
0.864953
0.85262
0.837329
0.827482
0.828221
0.833504
0.840434
0.849181
0.864232
0.880556
0.895931
0.892297
0.880133
0.875995
0.880607
0.887977
0.901172
0.918258
0.930177
0.934573
0.934927
0.934487
0.93365
0.93376
0.939356
0.959803
0.999105
1.01007
0.986982
0.9802
0.983634
0.993561
0.996855
0.994286
0.99048
0.987745
0.987326
0.987878
0.988755
0.990954
1.00075
1.02422
1.0457
1.05016
1.05026
1.05007
1.04898
1.04604
1.03881
1.02372
1.00631
1.00034
1
1
1
1
1
1
1
1
1
1
1
1
1
1
1
1
1
4.36447
3.18525
2.422
1.86973
1.43408
1.18198
1.0575
0.940183
0.777702
0.689467
0.681718
0.650766
0.620124
0.628264
0.66225
0.700223
0.753006
0.818979
0.870393
0.914571
0.950895
0.961188
0.958341
0.943171
0.923499
0.903375
0.886649
0.869143
0.846486
0.826563
0.821326
0.821213
0.826659
0.839625
0.856148
0.871901
0.877776
0.879744
0.880813
0.872384
0.870831
0.878066
0.892586
0.913333
0.93311
0.945118
0.948288
0.947223
0.943996
0.937944
0.932668
0.938416
0.968778
1.01429
1.00945
0.985462
0.981973
0.987419
0.99586
0.996276
0.99325
0.988797
0.986571
0.986767
0.987622
0.988464
0.990966
1.00334
1.0295
1.04859
1.05144
1.05154
1.05135
1.05005
1.04666
1.03826
1.02119
1.00451
1.00017
1
1
1
1
1
1
1
1
1
1
1
1
1
1
1
1
1
4.81849
3.74611
2.95861
2.41042
1.95478
1.59247
1.36255
1.17574
1.00497
0.893805
0.846204
0.777857
0.686879
0.639958
0.649279
0.664322
0.669216
0.692402
0.747801
0.813022
0.866467
0.892912
0.915863
0.936696
0.935809
0.926204
0.906236
0.876473
0.841915
0.824661
0.81981
0.822288
0.833732
0.846651
0.857546
0.861486
0.853388
0.846528
0.8522
0.856783
0.864054
0.881762
0.910074
0.936837
0.95134
0.954726
0.952366
0.947718
0.94246
0.93874
0.941914
0.959767
0.993274
1.01319
0.996518
0.985686
0.98973
0.997377
0.999783
0.998149
0.991889
0.984857
0.983451
0.984686
0.985927
0.986996
0.992046
1.00901
1.03675
1.05176
1.05324
1.05334
1.05314
1.05168
1.0475
1.03683
1.01735
1.00262
1.00005
1
1
1
1
1
1
1
1
1
1
1
1
1
1
1
1
1
5.1087
4.18524
3.44481
2.8521
2.3489
1.97293
1.72004
1.51813
1.27093
1.0989
1.02908
0.952303
0.851952
0.773308
0.759522
0.728338
0.684354
0.678821
0.687788
0.712297
0.751673
0.802487
0.851416
0.889011
0.894223
0.890244
0.877674
0.864331
0.853807
0.842995
0.841893
0.855004
0.865933
0.86544
0.860219
0.849894
0.834605
0.824582
0.826787
0.837336
0.853254
0.883888
0.928559
0.959586
0.965368
0.957737
0.949509
0.942591
0.9378
0.939197
0.950807
0.968963
0.981895
0.983393
0.981545
0.990224
1.00205
1.00584
1.00597
1.00049
0.987323
0.979348
0.979511
0.981481
0.982582
0.985024
0.994652
1.01707
1.0449
1.05518
1.05581
1.05591
1.05561
1.05373
1.04807
1.03387
1.01233
1.00113
1.00001
1
1
1
1
1
1
1
1
1
1
1
1
1
1
1
1
1
5.33853
4.5059
3.80405
3.25547
2.77579
2.3319
2.00421
1.77938
1.55459
1.36177
1.24252
1.13235
0.993884
0.891295
0.858106
0.810458
0.74576
0.691653
0.688637
0.69754
0.713188
0.731707
0.765436
0.810152
0.838253
0.838809
0.832954
0.829082
0.828215
0.834958
0.848617
0.87256
0.884989
0.880903
0.87013
0.851826
0.835037
0.823439
0.819328
0.82628
0.846734
0.889146
0.941469
0.962903
0.954631
0.937346
0.923901
0.916879
0.9184
0.930894
0.950149
0.962949
0.964699
0.966616
0.982652
1.00534
1.01248
1.01293
1.01076
0.998705
0.981061
0.975099
0.976622
0.978962
0.980818
0.986114
1.0001
1.02725
1.05309
1.05931
1.05969
1.05986
1.05932
1.05621
1.04736
1.02813
1.00682
1.0003
1
1
1
1
1
1
1
1
1
1
1
1
1
1
1
1
1
1
5.49678
4.75134
4.11213
3.57674
3.09478
2.6615
2.33661
2.06529
1.77604
1.56709
1.45289
1.34329
1.2013
1.0571
0.99827
0.939005
0.863313
0.784005
0.77584
0.769798
0.74533
0.732053
0.731367
0.741883
0.755293
0.759935
0.762205
0.771218
0.789301
0.810779
0.830201
0.851013
0.864936
0.865996
0.863281
0.856234
0.847063
0.838444
0.833597
0.838237
0.858661
0.895113
0.927048
0.935949
0.931101
0.919914
0.907903
0.903105
0.912168
0.934351
0.955133
0.965605
0.974621
0.9917
1.01444
1.01989
1.01677
1.01513
1.00726
0.989216
0.973392
0.970658
0.972875
0.975153
0.978871
0.987843
1.00676
1.03797
1.06036
1.06408
1.0646
1.06485
1.06401
1.05924
1.04482
1.01961
1.00252
1.00004
1
1
1
1
1
1
1
1
1
1
1
1
1
1
1
1
1
1
5.68385
4.98415
4.34731
3.83077
3.39136
2.95519
2.5653
2.28291
2.03198
1.80173
1.66008
1.53838
1.38129
1.23587
1.16171
1.09378
0.995703
0.883749
0.857897
0.837197
0.792713
0.745176
0.734517
0.735081
0.730062
0.72644
0.735975
0.751787
0.771962
0.790286
0.801922
0.812801
0.824453
0.83116
0.834573
0.833768
0.831566
0.833088
0.841054
0.8541
0.873182
0.896324
0.911195
0.914484
0.916938
0.921142
0.92572
0.936215
0.957992
0.983134
0.99432
0.999777
1.01412
1.03282
1.03559
1.02891
1.02358
1.01498
0.997909
0.976518
0.966456
0.966498
0.969103
0.971915
0.977559
0.990148
1.01571
1.05102
1.0682
1.07006
1.07059
1.07074
1.06881
1.05963
1.03714
1.00988
1.00051
1
1
1
1
1
1
1
1
1
1
1
1
1
1
1
1
1
1
1
5.80503
5.18695
4.61784
4.10679
3.62975
3.2227
2.8805
2.56184
2.21151
1.95964
1.8438
1.7433
1.59641
1.4244
1.31901
1.23164
1.13126
1.01771
0.975553
0.941872
0.890296
0.823169
0.789285
0.782841
0.760773
0.735231
0.727416
0.733345
0.747865
0.75721
0.761506
0.767074
0.778241
0.795382
0.806021
0.806576
0.805915
0.809343
0.817517
0.832764
0.855491
0.876571
0.883835
0.884882
0.898893
0.927591
0.960306
0.992377
1.02001
1.03534
1.03518
1.03051
1.03093
1.03324
1.03166
1.02809
1.02424
1.01177
0.986163
0.96609
0.961196
0.961861
0.963738
0.967611
0.976641
0.994528
1.02835
1.06559
1.07738
1.07859
1.07919
1.07888
1.07396
1.05575
1.0236
1.0028
1.00004
1
1
1
1
1
1
1
1
1
1
1
1
1
1
1
1
1
1
1
5.90114
5.29666
4.7621
4.31936
3.88666
3.44514
3.11079
2.83058
2.50745
2.20592
1.99541
1.87863
1.74642
1.60829
1.49957
1.39901
1.25836
1.12585
1.08934
1.05366
0.99859
0.928545
0.866976
0.838811
0.800332
0.754161
0.738934
0.735923
0.742131
0.74936
0.753658
0.75977
0.772276
0.785343
0.790332
0.785114
0.77873
0.776875
0.782244
0.795902
0.813843
0.826078
0.828865
0.834704
0.859797
0.903013
0.946239
0.976535
0.99683
1.01215
1.0207
1.02334
1.0211
1.01732
1.01391
1.00979
1.00054
0.982704
0.963138
0.953967
0.952629
0.954533
0.95937
0.967817
0.981224
1.00482
1.04472
1.07963
1.08753
1.08868
1.08924
1.08764
1.0748
1.04248
1.00899
1.00031
1
1
1
1
1
1
1
1
1
1
1
1
1
1
1
1
1
1
1
1
6.11031
5.47375
4.92259
4.46056
4.04701
3.66044
3.32869
3.03633
2.7521
2.43459
2.20162
2.05623
1.90195
1.75015
1.64613
1.54866
1.41462
1.26603
1.20723
1.15937
1.09585
1.02263
0.967427
0.934245
0.889505
0.829702
0.796886
0.787659
0.787852
0.783702
0.77374
0.769391
0.771481
0.771596
0.761832
0.749571
0.740633
0.741352
0.75202
0.763076
0.767622
0.768002
0.770011
0.783304
0.814741
0.862823
0.910333
0.942976
0.965089
0.986102
0.999616
1.00467
1.0053
1.00227
0.993
0.976569
0.957763
0.944978
0.94215
0.943847
0.946962
0.951528
0.958403
0.9691
0.987343
1.02078
1.06949
1.09762
1.10151
1.10249
1.10239
1.09432
1.06428
1.02031
1.00136
1.00001
1
1
1
1
1
1
1
1
1
1
1
1
1
1
1
1
1
1
1
1
6.12884
5.7494
5.15469
4.62545
4.20844
3.86557
3.50298
3.20044
2.97118
2.70696
2.4182
2.21061
2.04898
1.912
1.79851
1.68757
1.53702
1.40792
1.35235
1.28639
1.2114
1.11692
1.04516
1.01623
0.975591
0.916451
0.867812
0.850791
0.845403
0.834604
0.80949
0.794156
0.784055
0.768233
0.751822
0.740319
0.7352
0.738416
0.74689
0.754092
0.755479
0.752704
0.755411
0.772719
0.799356
0.82896
0.86274
0.893737
0.923181
0.944139
0.948593
0.949509
0.948531
0.942956
0.930497
0.920501
0.919912
0.92475
0.933261
0.942842
0.950823
0.958074
0.964755
0.973263
0.993576
1.03958
1.09667
1.11666
1.11877
1.1195
1.11543
1.08842
1.03645
1.00391
1.00004
1
1
1
1
1
1
1
1
1
1
1
1
1
1
1
1
1
1
1
1
1
5.45337
5.79143
5.48673
4.91394
4.36371
4.0266
3.71974
3.40175
3.113
2.88793
2.66765
2.43855
2.19645
2.02223
1.93727
1.84688
1.68351
1.53634
1.47545
1.40954
1.33156
1.22491
1.14966
1.11803
1.07361
1.00504
0.94622
0.926359
0.925006
0.91833
0.889435
0.858466
0.830952
0.803931
0.787569
0.778931
0.776735
0.773206
0.765392
0.759884
0.760194
0.76471
0.774641
0.786945
0.796744
0.805532
0.821187
0.841491
0.859132
0.866868
0.872285
0.87917
0.886007
0.890531
0.895078
0.902702
0.913304
0.923029
0.931792
0.939741
0.948161
0.958713
0.972669
0.991381
1.02523
1.08546
1.13124
1.1389
1.14019
1.13849
1.11395
1.05595
1.00831
1.00015
1
1
1
1
1
1
1
1
1
1
1
1
1
1
1
1
1
1
1
1
1
1
3.14207
5.19746
5.47918
5.25529
4.70484
4.22227
3.87347
3.59237
3.3248
3.05978
2.83603
2.65134
2.41825
2.15822
2.05318
1.99138
1.86034
1.68681
1.5975
1.52915
1.44252
1.31685
1.2473
1.22651
1.18754
1.11391
1.03919
1.01224
1.00776
1.00008
0.964802
0.919162
0.879782
0.854501
0.842985
0.839975
0.835404
0.815608
0.795459
0.785238
0.79098
0.807378
0.818071
0.813172
0.807304
0.806539
0.817833
0.837874
0.843461
0.846287
0.852339
0.863414
0.875469
0.886072
0.896055
0.90821
0.923878
0.939281
0.948749
0.952402
0.954959
0.960619
0.972872
1.00437
1.07008
1.14251
1.1639
1.16598
1.16567
1.14175
1.07687
1.01383
1.00034
1
1
1
1
1
1
1
1
1
1
1
1
1
1
1
1
1
1
1
1
1
1
1
1.33296
3.02441
4.91454
5.1435
4.99256
4.58324
4.14632
3.78263
3.5219
3.24528
2.99965
2.83622
2.64401
2.38028
2.16295
2.10238
2.01628
1.85661
1.73104
1.65816
1.56635
1.42232
1.34792
1.33009
1.29918
1.22652
1.13714
1.10719
1.10477
1.09367
1.04779
0.986434
0.945588
0.928517
0.922681
0.924486
0.908819
0.883789
0.865361
0.858159
0.865661
0.87678
0.870789
0.861335
0.856428
0.853019
0.855319
0.856766
0.85586
0.854001
0.854621
0.861465
0.871731
0.882073
0.893682
0.908611
0.926166
0.942647
0.956733
0.970092
0.980862
0.993093
1.01641
1.06982
1.1526
1.19458
1.19879
1.19816
1.17057
1.09594
1.01875
1.00053
1
1
1
1
1
1
1
1
1
1
1
1
1
1
1
1
1
1
1
1
1
1
1
1
1.00992
1.31336
2.81773
4.49959
4.81124
4.75911
4.50471
4.0965
3.76162
3.4729
3.17022
2.96458
2.8153
2.60802
2.34945
2.23728
2.16311
2.02874
1.86101
1.77167
1.69836
1.56484
1.46421
1.43714
1.41215
1.35207
1.25024
1.20654
1.202
1.1873
1.12842
1.0568
1.02774
1.01421
1.01425
1.01209
0.986692
0.959545
0.943234
0.939746
0.948231
0.942795
0.925902
0.918726
0.9149
0.906962
0.896203
0.888685
0.884222
0.875885
0.869058
0.872357
0.882022
0.894838
0.909545
0.924809
0.938489
0.949785
0.960107
0.972785
0.994423
1.02914
1.08707
1.17172
1.22997
1.23875
1.23536
1.19891
1.11004
1.02125
1.00061
1
1
1
1
1
1
1
1
1
1
1
1
1
1
1
1
1
1
1
1
1
1
1
1
1
1.00005
1.00932
1.25375
2.45513
4.05626
4.48154
4.51185
4.41974
4.12115
3.77551
3.4312
3.12787
2.93735
2.77904
2.56492
2.37346
2.28479
2.19665
2.04506
1.88288
1.80949
1.73128
1.61326
1.54661
1.51898
1.47402
1.3885
1.31624
1.29815
1.27942
1.21605
1.14461
1.1215
1.10746
1.10906
1.10294
1.07441
1.04816
1.03357
1.03031
1.02856
1.01478
1.00039
0.987137
0.97657
0.967556
0.958676
0.951664
0.944329
0.932392
0.926111
0.929142
0.937632
0.94976
0.963847
0.977867
0.99094
1.00387
1.01893
1.04036
1.0749
1.13259
1.21423
1.27197
1.2815
1.27176
1.22223
1.116
1.02035
1.00051
1
1
1
1
1
1
1
1
1
1
1
1
1
1
1
1
1
1
1
1
1
1
1
1
1
1
1
1.00004
1.0067
1.16172
2.08078
3.38724
4.19169
4.38184
4.32797
4.12762
3.78594
3.42538
3.11993
2.90447
2.74009
2.55122
2.38167
2.3112
2.22129
2.06744
1.9167
1.86059
1.78767
1.67883
1.62724
1.5943
1.53414
1.44605
1.38965
1.3656
1.32228
1.25264
1.22406
1.20905
1.20855
1.19774
1.16517
1.13695
1.12379
1.12109
1.10981
1.08907
1.0715
1.05556
1.04142
1.0308
1.02171
1.01173
0.99692
0.980558
0.977938
0.98081
0.986148
0.994091
1.00536
1.01998
1.03832
1.0619
1.09349
1.13827
1.20251
1.27818
1.32029
1.32309
1.30108
1.23451
1.10949
1.01591
1.00031
1
1
1
1
1
1
1
1
1
1
1
1
1
1
1
1
1
1
1
1
1
1
1
1
1
1
1
1
1
1.00003
1.0032
1.08818
1.63479
2.78218
3.79371
4.13485
4.14641
4.04921
3.77999
3.42221
3.11135
2.92059
2.75981
2.56376
2.42657
2.35282
2.23578
2.0577
1.96785
1.92983
1.84038
1.74235
1.71035
1.6655
1.57585
1.4874
1.45795
1.43528
1.38235
1.33332
1.31305
1.307
1.29586
1.25945
1.22338
1.21049
1.20621
1.19314
1.16757
1.14167
1.12201
1.10891
1.10128
1.09441
1.08473
1.07246
1.06751
1.06904
1.07394
1.0813
1.0912
1.10454
1.12251
1.14744
1.18294
1.23306
1.29645
1.35055
1.36686
1.35765
1.3186
1.22833
1.08815
1.00953
1.00013
1
1
1
1
1
1
1
1
1
1
1
1
1
1
1
1
1
1
1
1
1
1
1
1
1
1
1
1
1
1
1
1.00001
1.00119
1.03326
1.31639
2.2124
3.23276
3.82561
3.96587
3.88441
3.66548
3.41847
3.23173
3.04611
2.83532
2.63081
2.51104
2.39522
2.19915
2.0766
2.05048
1.99871
1.88437
1.81924
1.77796
1.68526
1.59069
1.56281
1.54969
1.51348
1.45452
1.41555
1.40022
1.3899
1.35722
1.30958
1.29484
1.2897
1.27634
1.24414
1.21386
1.1976
1.18725
1.17817
1.16832
1.15795
1.15285
1.15348
1.15824
1.167
1.18048
1.19923
1.22411
1.25682
1.29876
1.34792
1.39152
1.40872
1.40348
1.37549
1.31642
1.19516
1.05622
1.00399
1.00003
1
1
1
1
1
1
1
1
1
1
1
1
1
1
1
1
1
1
1
1
1
1
1
1
1
1
1
1
1
1
1
1
1
1
1.00026
1.01036
1.13543
1.6973
2.55234
3.38889
3.69708
3.60631
3.49914
3.46192
3.38022
3.21158
2.97469
2.7587
2.60094
2.40384
2.23685
2.18896
2.15144
2.05528
1.93371
1.87948
1.79954
1.70617
1.67667
1.66513
1.63458
1.57765
1.52324
1.4941
1.48069
1.45699
1.40795
1.38511
1.37573
1.35996
1.32582
1.29761
1.28516
1.27586
1.26704
1.26064
1.25853
1.262
1.27021
1.28292
1.30181
1.3274
1.35891
1.3942
1.42837
1.45113
1.45592
1.44577
1.41835
1.37541
1.28314
1.13477
1.0255
1.00105
1
1
1
1
1
1
1
1
1
1
1
1
1
1
1
1
1
1
1
1
1
1
1
1
1
1
1
1
1
1
1
1
1
1
1
1
1
1.00005
1.0026
1.04382
1.28808
1.89812
2.72609
3.22663
3.3651
3.41495
3.42673
3.36651
3.2466
3.0664
2.8898
2.72933
2.55008
2.42423
2.35172
2.25433
2.09262
2.00454
1.94355
1.86078
1.81703
1.79924
1.7688
1.70779
1.64128
1.60658
1.58525
1.5624
1.52485
1.49675
1.47958
1.4581
1.42556
1.40646
1.39705
1.38981
1.38625
1.38886
1.39842
1.41295
1.43238
1.45684
1.48392
1.50762
1.52132
1.52253
1.50924
1.48531
1.45843
1.41862
1.33956
1.20486
1.06655
1.00728
1.00016
1
1
1
1
1
1
1
1
1
1
1
1
1
1
1
1
1
1
1
1
1
1
1
1
1
1
1
1
1
1
1
1
1
1
1
1
1
1
1
1.00001
1.0004
1.00909
1.08164
1.38888
2.01566
2.62661
3.05739
3.24979
3.285
3.23741
3.12786
3.04462
2.99668
2.90181
2.76532
2.64624
2.52439
2.34803
2.22872
2.17364
2.10421
2.03541
1.98908
1.94765
1.88052
1.79988
1.75964
1.73348
1.7075
1.67778
1.65048
1.62837
1.60109
1.57415
1.56476
1.55914
1.55777
1.5645
1.57781
1.59436
1.61009
1.62032
1.62155
1.61182
1.58908
1.56095
1.53176
1.49943
1.4514
1.37134
1.246
1.10435
1.01999
1.00114
1.00001
1
1
1
1
1
1
1
1
1
1
1
1
1
1
1
1
1
1
1
1
1
1
1
1
1
1
1
1
1
1
1
1
1
1
1
1
1
1
1
1
1
1
1.00004
1.0011
1.0169
1.12032
1.41268
1.90745
2.44645
2.81496
3.01876
3.01761
3.00936
2.98625
2.95276
2.89301
2.81221
2.70877
2.6018
2.53853
2.482
2.41023
2.33373
2.26074
2.19525
2.12097
2.03978
1.98668
1.95327
1.92442
1.8961
1.86818
1.84175
1.81362
1.78926
1.77368
1.76499
1.76069
1.75747
1.7505
1.73714
1.71518
1.68648
1.65348
1.61894
1.58183
1.5353
1.47139
1.37849
1.25285
1.11869
1.03049
1.00309
1.00008
1
1
1
1
1
1
1
1
1
1
1
1
1
1
1
1
1
1
1
1
1
1
1
1
1
1
1
1
1
1
1
1
1
1
1
1
1
1
1
1
1
1
1
1
1
1
1.0001
1.00212
1.01886
1.09806
1.31543
1.68021
2.09298
2.45607
2.68199
2.79057
2.86118
2.84493
2.79634
2.70893
2.64387
2.62004
2.59006
2.53474
2.47948
2.42251
2.35289
2.28464
2.22631
2.17928
2.14169
2.10802
2.07388
2.03852
2.00148
1.9623
1.92241
1.88692
1.85803
1.83284
1.80774
1.78048
1.75003
1.71525
1.67201
1.61813
1.54924
1.46002
1.34845
1.22093
1.10374
1.02998
1.00416
1.0002
1
1
1
1
1
1
1
1
1
1
1
1
1
1
1
1
1
1
1
1
1
1
1
1
1
1
1
1
1
1
1
1
1
1
1
1
1
1
1
1
1
1
1
1
1
1
1
1
1
1
1.0001
1.00144
1.01132
1.05436
1.17568
1.41417
1.71977
2.02284
2.28344
2.45604
2.54689
2.56398
2.56498
2.56445
2.55396
2.5249
2.47886
2.42715
2.36232
2.29623
2.24565
2.20323
2.16556
2.13102
2.09628
2.05832
2.01707
1.9733
1.92916
1.88819
1.85246
1.81868
1.7819
1.73693
1.67794
1.59964
1.5019
1.38762
1.26561
1.15238
1.06662
1.01932
1.00309
1.00021
1
1
1
1
1
1
1
1
1
1
1
1
1
1
1
1
1
1
1
1
1
1
1
1
1
1
1
1
1
1
1
1
1
1
1
1
1
1
1
1
1
1
1
1
1
1
1
1
1
1
1
1
1
1
1.00004
1.00055
1.00424
1.0214
1.07075
1.17257
1.33105
1.52845
1.73524
1.92272
2.06488
2.16692
2.23809
2.27593
2.2796
2.26815
2.23928
2.19559
2.1615
2.13037
2.09745
2.06403
2.02815
1.98628
1.93695
1.88142
1.82322
1.76522
1.70559
1.63888
1.55908
1.46295
1.35377
1.2429
1.14499
1.07181
1.02762
1.00746
1.00122
1.0001
1
1
1
1
1
1
1
1
1
1
1
1
1
1
1
1
1
1
1
1
1
1
1
1
1
1
1
1
1
1
1
1
1
1
1
1
1
1
1
1
1
1
1
1
1
1
1
1
1
1
1
1
1
1
1
1
1
1
1.00001
1.00012
1.00084
1.00403
1.01411
1.0389
1.08857
1.16748
1.26357
1.3656
1.46469
1.54947
1.61386
1.66681
1.70448
1.72309
1.72941
1.72331
1.70803
1.68285
1.64819
1.60329
1.54861
1.48775
1.42437
1.35897
1.29043
1.21929
1.14986
1.08963
1.04542
1.01884
1.00611
1.00144
1.00022
1.00002
1
1
1
1
1
1
1
1
1
1
1
1
1
1
1
1
1
1
1
1
1
1
1
1
1
1
1
1
1
1
1
1
1
1
1
1
1
1
1
1
1
1
1
1
1
1
1
1
1
1
1
1
1
1
1
1
1
1
1
1
1
1
1
1.00001
1.00006
1.00031
1.00134
1.00427
1.01034
1.02053
1.03508
1.0532
1.07385
1.09683
1.12102
1.14217
1.15591
1.15911
1.15693
1.14952
1.13647
1.11896
1.09899
1.07869
1.05926
1.0413
1.02573
1.01375
1.00606
1.00212
1.00057
1.00011
1.00002
1
1
1
1
1
1
1
1
1
1
1
1
1
1
1
1
1
1
1
1
1
1
1
1
1
1
1
1
1
1
1
1
1
1
1
1
1
1
1
1
1
1
1
1
1
1
1
1
1
1
1
1
1
1
1
1
1
1
1
1
1
1
1
1
1
1
1
1
1
1
1.00001
1.00003
1.00011
1.00026
1.00056
1.00105
1.0018
1.00286
1.0041
1.00506
1.00531
1.00525
1.0049
1.00423
1.00335
1.00246
1.00167
1.00101
1.00052
1.00022
1.00007
1.00002
1
1
1
1
1
1
1
1
1
1
1
1
1
1
1
1
1
1
1
1
1
1
1
1
1
1
1
1
1
1
1
1
1
1
1
1
1
1
1
1
1
1
1
1
1
1
1
1
1
1
1
1
1
1
1
1
1
1
1
1
1
1
1
1
1
1
1
1
1
1
1
1
1
1
1
1
1
1
1
1
1
1.00001
1.00001
1.00001
1.00001
1.00001
1.00001
1.00001
1.00001
1
1
1
1
1
1
1
1
1
1
1
1
1
1
1
1
1
1
1
1
1
1
1
1
1
1
1
1
1
1
1
1
1
1
1
1
1
1
1
1
1
1
1
1
1
1
1
1
1
1
1
1
1
1
1
1
1
)
;

boundaryField
{
    inlet
    {
        type            fixedValue;
        value           uniform 1;
    }
    outlet
    {
        type            zeroGradient;
    }
    bottom
    {
        type            symmetryPlane;
    }
    top
    {
        type            symmetryPlane;
    }
    obstacle
    {
        type            zeroGradient;
    }
    defaultFaces
    {
        type            empty;
    }
}


// ************************************************************************* //
