/*--------------------------------*- C++ -*----------------------------------*\
  =========                 |
  \\      /  F ield         | OpenFOAM: The Open Source CFD Toolbox
   \\    /   O peration     | Website:  https://openfoam.org
    \\  /    A nd           | Version:  7
     \\/     M anipulation  |
\*---------------------------------------------------------------------------*/
FoamFile
{
    version     2.0;
    format      ascii;
    class       volScalarField;
    location    "0.5";
    object      rho;
}
// * * * * * * * * * * * * * * * * * * * * * * * * * * * * * * * * * * * * * //

dimensions      [1 -3 0 0 0 0 0];

internalField   nonuniform List<scalar> 
4032
(
1.40001
1.40001
1.40001
1.40001
1.40001
1.40001
1.40001
1.40001
1.40001
1.40001
1.40001
1.40001
1.40001
1.40001
1.40001
3.75206
5.59342
5.67893
5.74696
5.76727
5.62319
5.34252
5.09601
5.01308
1.40001
1.40001
1.40001
1.40001
1.40001
1.40001
1.40001
1.40001
1.40001
1.40001
1.40001
1.40001
1.40001
1.40001
1.40001
3.66062
5.5538
5.67067
5.74108
5.75503
5.60074
5.3146
5.07173
4.99231
1.40001
1.40001
1.40001
1.40001
1.40001
1.40001
1.40001
1.40001
1.40001
1.40001
1.40001
1.40001
1.40001
1.40001
1.40001
3.47912
5.50043
5.6563
5.72971
5.73363
5.56668
5.27552
5.03933
4.96511
1.40001
1.40001
1.40001
1.40001
1.40001
1.40001
1.40001
1.40001
1.40001
1.40001
1.40001
1.40001
1.40001
1.40001
1.40001
3.21078
5.40979
5.6371
5.71485
5.71142
5.53455
5.24106
5.00386
4.92757
1.40001
1.40001
1.40001
1.40001
1.40001
1.40001
1.40001
1.40001
1.40001
1.40001
1.40001
1.40001
1.40001
1.40001
1.40001
2.87394
5.27531
5.63037
5.70238
5.67872
5.49656
5.204
4.95998
4.88186
1.40001
1.40001
1.40001
1.40001
1.40001
1.40001
1.40001
1.40001
1.40001
1.40001
1.40001
1.40001
1.40001
1.40001
1.40001
2.48417
5.10875
5.62262
5.66707
5.63352
5.46254
5.1712
4.9108
4.7918
1.40001
1.40001
1.40001
1.40001
1.40001
1.40001
1.40001
1.40001
1.40001
1.40001
1.40001
1.40001
1.40001
1.40001
1.40001
2.0181
4.89933
5.6335
5.6378
5.58047
5.40395
5.08953
4.78836
4.65364
1.40001
1.40001
1.40001
1.40001
1.40001
1.40001
1.40001
1.40001
1.40001
1.40001
1.40001
1.40001
1.40001
1.40001
1.40001
1.57236
4.47426
5.59572
5.57935
5.49348
5.3175
5.01909
4.67066
4.50666
1.40001
1.40001
1.40001
1.40001
1.40001
1.40001
1.40001
1.40001
1.40001
1.40001
1.40001
1.40001
1.40001
1.40001
1.40001
1.40648
3.68309
5.43543
5.51053
5.42961
5.25764
4.91527
4.37371
3.42157
1.40001
1.40001
1.40001
1.40001
1.40001
1.40001
1.40001
1.40001
1.40001
1.40001
1.40001
1.40001
1.40001
1.40001
1.40001
1.40002
2.69738
5.14083
5.45343
5.34994
5.15759
4.76635
4.19675
3.26601
1.40001
1.40001
1.40001
1.40001
1.40001
1.40001
1.40001
1.40001
1.40001
1.40001
1.40001
1.40001
1.40001
1.40001
1.40001
1.40001
1.77677
4.68628
5.38507
5.25161
5.04164
4.65287
4.11904
3.29593
1.40001
1.40001
1.40001
1.40001
1.40001
1.40001
1.40001
1.40001
1.40001
1.40001
1.40001
1.40001
1.40001
1.40001
1.40001
1.40001
1.42234
3.65145
5.22494
5.15
4.96077
4.62788
4.11568
3.41508
1.40001
1.40001
1.40001
1.40001
1.40001
1.40001
1.40001
1.40001
1.40001
1.40001
1.40001
1.40001
1.40001
1.40001
1.40001
1.40001
1.40008
2.30038
4.93346
5.08845
4.87576
4.56508
4.11792
3.55256
1.40001
1.40001
1.40001
1.40001
1.40001
1.40001
1.40001
1.40001
1.40001
1.40001
1.40001
1.40001
1.40001
1.40001
1.40001
1.40001
1.40001
1.51128
3.9825
4.96337
4.79605
4.52119
4.14153
3.67138
1.40001
1.40001
1.40001
1.40001
1.40001
1.40001
1.40001
1.40001
1.40001
1.40001
1.40001
1.40001
1.40001
1.40001
1.40001
1.40001
1.40001
1.4014
2.42426
4.75628
4.81335
4.53431
4.18296
3.76411
1.40001
1.40001
1.40001
1.40001
1.40001
1.40001
1.40001
1.40001
1.40001
1.40001
1.40001
1.40001
1.40001
1.40001
1.40001
1.40001
1.40001
1.40001
1.52989
3.75807
4.75195
4.52598
4.21024
3.84374
1.40001
1.40001
1.40001
1.40001
1.40001
1.40001
1.40001
1.40001
1.40001
1.40001
1.40001
1.40001
1.40001
1.40001
1.40001
1.40001
1.40001
1.40001
1.40184
2.14802
4.41054
4.61076
4.29611
3.9616
1.40001
1.40001
1.40001
1.40001
1.40001
1.40001
1.40001
1.40001
1.40001
1.40001
1.40001
1.40001
1.40001
1.40001
1.40001
1.40001
1.40001
1.40001
1.40001
1.46565
3.03344
4.49005
4.36389
4.02983
1.40001
1.40001
1.40001
1.40001
1.40001
1.40001
1.40001
1.40001
1.40001
1.40001
1.40001
1.40001
1.40001
1.40001
1.40001
1.40001
1.40001
1.40001
1.40001
1.40074
1.73512
3.67369
4.37732
4.15192
1.40001
1.40001
1.40001
1.40001
1.40001
1.40001
1.40001
1.40001
1.40001
1.40001
1.40001
1.40001
1.40001
1.40001
1.40001
1.40001
1.40001
1.40001
1.40001
1.40001
1.41256
2.1451
3.93427
4.21315
1.40001
1.40001
1.40001
1.40001
1.40001
1.40001
1.40001
1.40001
1.40001
1.40001
1.40001
1.40001
1.40001
1.40001
1.40001
1.40001
1.40001
1.40001
1.40001
1.40001
1.40008
1.46103
2.52388
3.96295
1.40001
1.40001
1.40001
1.40001
1.40001
1.40001
1.40001
1.40001
1.40001
1.40001
1.40001
1.40001
1.40001
1.40001
1.40001
1.40001
1.40001
1.40001
1.40001
1.40001
1.40001
1.40076
1.55174
2.73458
1.40001
1.40001
1.40001
1.40001
1.40001
1.40001
1.40001
1.40001
1.40001
1.40001
1.40001
1.40001
1.40001
1.40001
1.40001
1.40001
1.40001
1.40001
1.40001
1.40001
1.40001
1.40001
1.40338
1.62838
1.40001
1.40001
1.40001
1.40001
1.40001
1.40001
1.40001
1.40001
1.40001
1.40001
1.40001
1.40001
1.40001
1.40001
1.40001
1.40001
1.40001
1.40001
1.40001
1.40001
1.40001
1.40001
1.40002
1.40686
1.40001
1.40001
1.40001
1.40001
1.40001
1.40001
1.40001
1.40001
1.40001
1.40001
1.40001
1.40001
1.40001
1.40001
1.40001
1.40001
1.40001
1.40001
1.40001
1.40001
1.40001
1.40001
1.40001
1.40004
1.40001
1.40001
1.40001
1.40001
1.40001
1.40001
1.40001
1.40001
1.40001
1.40001
1.40001
1.40001
1.40001
1.40001
1.40001
1.40001
1.40001
1.40001
1.40001
1.40001
1.40001
1.40001
1.40001
1.40001
1.40001
1.40001
1.40001
1.40001
1.40001
1.40001
1.40001
1.40001
1.40001
1.40001
1.40001
1.40001
1.40001
1.40001
1.40001
1.40001
1.40001
1.40001
1.40001
1.40001
1.40001
1.40001
1.40001
1.40001
1.40001
1.40001
1.40001
1.40001
1.40001
1.40001
1.40001
1.40001
1.40001
1.40001
1.40001
1.40001
1.40001
1.40001
1.40001
1.40001
1.40001
1.40001
1.40001
1.40001
1.40001
1.40001
1.40001
1.40001
1.40001
1.40001
1.40001
1.40001
1.40001
1.40001
1.40001
1.40001
1.40001
1.40001
1.40001
1.40001
1.40001
1.40001
1.40001
1.40001
1.40001
1.40001
1.40001
1.40001
1.40001
1.40001
1.40001
1.40001
1.40001
1.40001
1.40001
1.40001
1.40001
1.40001
1.40001
1.40001
1.40001
1.40001
1.40001
1.40001
1.40001
1.40001
1.40001
1.40001
1.40001
1.40001
1.40001
1.40001
1.40001
1.40001
1.40001
1.40001
1.40001
1.40001
1.40001
1.40001
1.40001
1.40001
1.40001
1.40001
1.40001
1.40001
1.40001
1.40001
1.40001
1.40001
1.40001
1.40001
1.40001
1.40001
1.40001
1.40001
1.40001
1.40001
1.40001
1.40001
1.40001
1.40001
1.40001
1.40001
1.40001
1.40001
1.40001
1.40001
1.40001
1.40001
1.40001
1.40001
1.40001
1.40001
1.40001
1.40001
1.40001
1.40001
1.40001
1.40001
1.40001
1.40001
1.40001
1.40001
1.40001
1.40001
1.40001
1.40001
1.40001
1.40001
1.40001
1.40001
1.40001
1.40001
1.40001
1.40001
1.40001
1.40001
1.40001
1.40001
1.40001
1.40001
1.40001
1.40001
1.40001
1.40001
1.40001
1.40001
1.40001
1.40001
1.40001
1.40001
1.40001
1.40001
1.40001
1.40001
1.40001
1.40001
1.40001
1.40001
1.40001
1.40001
1.40001
1.40001
1.40001
1.40001
1.40001
1.40001
1.40001
1.40001
1.40001
1.40001
1.40001
1.40001
1.40001
1.40001
1.40001
1.40001
1.40001
1.40001
1.40001
1.40001
1.40001
1.40001
1.40001
1.40001
1.40001
1.40001
1.40001
1.40001
1.40001
1.40001
1.40001
1.40001
1.40001
1.40001
1.40001
1.40001
1.40001
1.40001
1.40001
1.40001
1.40001
1.40001
1.40001
1.40001
1.40001
1.40001
1.40001
1.40001
1.40001
1.40001
1.40001
1.40001
1.40001
1.40001
1.40001
1.40001
1.40001
1.40001
1.40001
1.40001
1.40001
1.40001
1.40001
1.40001
1.40001
1.40001
1.40001
1.40001
1.40001
1.40001
1.40001
1.40001
1.40001
1.40001
1.40001
1.40001
1.40001
1.40001
1.40001
1.40001
1.40001
1.40001
1.40001
1.40001
1.40001
1.40001
1.40001
1.40001
1.40001
1.40001
1.40001
1.40001
1.40001
1.40001
1.40001
1.40001
1.40001
1.40001
1.40001
1.40001
1.40001
1.40001
1.40001
1.40001
1.40001
1.40001
1.40001
1.40001
1.40001
1.40001
1.40001
1.40001
1.40001
1.40001
1.40001
1.40001
1.40001
1.40001
1.40001
1.40001
1.40001
1.40001
1.40001
1.40001
1.40001
1.40001
1.40001
1.40001
1.40001
1.40001
1.40001
1.40001
1.40001
1.40001
1.40001
1.40001
1.40001
1.40001
1.40001
1.40001
1.40001
1.40001
1.40001
1.40001
1.40001
1.40001
1.40001
1.40001
1.40001
1.40001
1.40001
1.40001
1.40001
1.40001
1.08612
0.461125
0.232429
0.155471
0.160947
0.215819
0.304109
0.368646
0.440629
0.519387
0.6057
0.643969
0.643774
0.637501
0.640995
0.658131
0.679196
0.698545
0.705891
0.703466
0.690857
0.665445
0.641005
0.631536
0.629923
0.630256
0.639209
0.655577
0.659487
0.657112
0.643161
0.619884
0.609948
0.609301
0.61133
0.622132
0.651196
0.703085
0.737229
0.741757
0.741734
0.73414
0.730601
0.732044
0.737893
0.749707
0.766181
0.788524
0.82033
0.863212
0.915785
0.97742
1.05628
1.17014
1.30062
1.36848
1.38605
1.39769
1.41043
1.41111
1.40624
1.40008
1.39485
1.39145
1.3896
1.38849
1.38833
1.3942
1.41707
1.44215
1.44824
1.44847
1.44852
1.44834
1.4466
1.44007
1.42521
1.40726
1.40047
1.40001
1.4
1.4
1.4
1.4
1.4
1.4
1.40001
1.40001
1.40001
1.40001
1.40001
1.40001
1.40001
1.40001
1.40001
1.40001
1.68771
1.02957
0.757824
0.576062
0.450656
0.449001
0.458786
0.440949
0.433786
0.454274
0.50419
0.552117
0.577196
0.602067
0.624139
0.646483
0.684369
0.712392
0.714957
0.711584
0.699886
0.68478
0.669388
0.65801
0.652788
0.650401
0.651447
0.657743
0.659666
0.657736
0.648761
0.636837
0.632349
0.632176
0.634924
0.644437
0.66532
0.702837
0.732935
0.739152
0.740706
0.740908
0.743196
0.746683
0.752812
0.762087
0.774323
0.792904
0.822065
0.863318
0.916132
0.982034
1.07092
1.19772
1.32015
1.36522
1.37576
1.38403
1.3975
1.40181
1.39862
1.39422
1.39073
1.38899
1.38787
1.38708
1.38721
1.39474
1.41817
1.44251
1.44845
1.44865
1.44866
1.44803
1.44562
1.43975
1.4258
1.40765
1.40049
1.40001
1.4
1.4
1.4
1.4
1.4
1.4
1.40001
1.40001
1.40001
1.40001
1.40001
1.40001
1.40001
1.40001
1.40001
1.40001
2.22627
1.55749
1.18634
0.95478
0.779451
0.674337
0.625846
0.56652
0.492424
0.487132
0.508223
0.543984
0.575056
0.606577
0.640964
0.663922
0.698821
0.738178
0.756813
0.759003
0.752709
0.734721
0.717034
0.701719
0.693363
0.689242
0.687498
0.684817
0.680119
0.670751
0.663359
0.662557
0.663136
0.665819
0.672657
0.685731
0.704453
0.73002
0.746029
0.749853
0.750848
0.754944
0.761284
0.771401
0.784688
0.795797
0.805945
0.821015
0.845261
0.881114
0.931161
1.00029
1.10044
1.2399
1.35072
1.37989
1.38525
1.39115
1.40278
1.40549
1.40212
1.39669
1.39266
1.39105
1.39005
1.38945
1.39024
1.39915
1.42308
1.44508
1.44958
1.44967
1.44949
1.44844
1.44563
1.43862
1.42369
1.40631
1.40034
1.40001
1.4
1.4
1.4
1.4
1.4
1.4
1.40001
1.40001
1.40001
1.40001
1.40001
1.40001
1.40001
1.40001
1.40001
1.40001
2.60473
2.02194
1.62361
1.32225
1.07623
0.929127
0.856388
0.788571
0.687274
0.627255
0.619355
0.597627
0.576352
0.582492
0.606113
0.632846
0.667893
0.708732
0.738807
0.762576
0.78087
0.778319
0.773015
0.762678
0.750921
0.740108
0.73222
0.72401
0.712005
0.700623
0.697667
0.697399
0.699565
0.706046
0.716942
0.73008
0.739965
0.75428
0.770976
0.777046
0.781186
0.788938
0.802426
0.821168
0.839762
0.855478
0.870231
0.887417
0.909362
0.938665
0.981467
1.04886
1.15642
1.29486
1.37113
1.38406
1.38846
1.39626
1.40558
1.40547
1.40134
1.39508
1.39136
1.38971
1.38858
1.38801
1.38941
1.40157
1.42859
1.44809
1.45096
1.45106
1.45087
1.44962
1.44632
1.43807
1.42112
1.4045
1.40017
1.40001
1.4
1.4
1.4
1.4
1.4
1.40001
1.40001
1.40001
1.40001
1.40001
1.40001
1.40001
1.40001
1.40001
1.40001
1.40001
2.92454
2.38871
1.9767
1.6739
1.41525
1.20677
1.07226
0.961566
0.854757
0.77886
0.744473
0.698842
0.6368
0.606335
0.613539
0.625501
0.630558
0.647101
0.684031
0.726527
0.760044
0.772013
0.781476
0.792833
0.792577
0.787484
0.776567
0.759986
0.740398
0.731651
0.729889
0.731808
0.739259
0.747678
0.75632
0.761572
0.763255
0.770145
0.786361
0.799506
0.810869
0.828624
0.855849
0.882742
0.903618
0.922961
0.942834
0.962398
0.9835
1.01171
1.05625
1.12856
1.23274
1.33306
1.37751
1.39014
1.39909
1.40881
1.41077
1.40838
1.40001
1.3905
1.38739
1.38617
1.38538
1.38536
1.38992
1.4076
1.43624
1.45135
1.45282
1.45292
1.45274
1.45132
1.44721
1.43665
1.41727
1.40261
1.40006
1.4
1.4
1.4
1.4
1.4
1.4
1.40001
1.40001
1.40001
1.40001
1.40001
1.40001
1.40001
1.40001
1.40001
1.40001
1.40001
3.15117
2.68711
2.29677
1.97113
1.68763
1.46954
1.3168
1.19049
1.03639
0.925754
0.879316
0.830755
0.766427
0.714805
0.705719
0.685338
0.655488
0.652355
0.658911
0.676706
0.703816
0.736702
0.766377
0.789786
0.793525
0.791183
0.783563
0.776368
0.772191
0.768313
0.76901
0.779583
0.788198
0.788827
0.787801
0.785039
0.783015
0.787364
0.800211
0.816493
0.834966
0.865258
0.908504
0.942067
0.964012
0.98588
1.00999
1.0328
1.05599
1.0873
1.13553
1.20183
1.27451
1.33532
1.37382
1.39908
1.41575
1.42006
1.41923
1.41148
1.3944
1.38359
1.3818
1.38097
1.38053
1.38241
1.39272
1.41653
1.44468
1.45476
1.45538
1.45549
1.4552
1.45338
1.44779
1.4337
1.41227
1.40112
1.40002
1.4
1.4
1.4
1.4
1.4
1.4
1.40001
1.40001
1.40001
1.40001
1.40001
1.40001
1.40001
1.40001
1.40001
1.40001
1.40001
3.32781
2.91127
2.54241
2.23959
1.96663
1.70947
1.51361
1.37407
1.23285
1.10985
1.03363
0.965341
0.879226
0.813617
0.79135
0.759279
0.71424
0.675339
0.67272
0.67869
0.689485
0.702933
0.727216
0.758399
0.778934
0.779831
0.776439
0.775093
0.776883
0.784198
0.796309
0.814979
0.825898
0.824688
0.820864
0.813666
0.810925
0.814086
0.823501
0.838122
0.860689
0.902764
0.955471
0.986482
1.00613
1.02696
1.05054
1.0757
1.1058
1.14712
1.20009
1.25362
1.29875
1.33807
1.37977
1.41658
1.42839
1.42904
1.42561
1.40919
1.38643
1.378
1.37714
1.37683
1.37764
1.38336
1.39903
1.42739
1.45284
1.45881
1.45919
1.45937
1.45885
1.45581
1.44709
1.42799
1.40679
1.40031
1.40001
1.4
1.4
1.4
1.4
1.4
1.40001
1.40001
1.40001
1.40001
1.40001
1.40001
1.40001
1.40001
1.40001
1.40001
1.40001
1.40001
3.45796
3.08412
2.7502
2.45692
2.18358
1.93113
1.73475
1.56935
1.3956
1.26587
1.19249
1.12349
1.03395
0.942036
0.902947
0.863419
0.811986
0.75593
0.7487
0.743573
0.725535
0.717523
0.719504
0.72863
0.740943
0.746344
0.749189
0.757162
0.772222
0.790126
0.806351
0.823263
0.83606
0.839376
0.842147
0.84385
0.846419
0.852108
0.861708
0.876364
0.901574
0.941847
0.982209
1.01174
1.03912
1.06466
1.0881
1.115
1.15299
1.20441
1.25641
1.29844
1.33545
1.37513
1.41564
1.43156
1.43313
1.43214
1.42174
1.39778
1.37714
1.37245
1.37198
1.37206
1.37538
1.38571
1.40658
1.43824
1.4599
1.46347
1.46399
1.46425
1.46344
1.45879
1.44456
1.41951
1.40251
1.40004
1.4
1.4
1.4
1.4
1.4
1.4
1.40001
1.40001
1.40001
1.40001
1.40001
1.40001
1.40001
1.40001
1.40001
1.40001
1.40001
1.40001
3.59756
3.24314
2.91301
2.63245
2.38292
2.13134
1.9027
1.73299
1.58128
1.44053
1.3513
1.27406
1.17409
1.08033
1.03077
0.985137
0.918366
0.840584
0.821744
0.807522
0.777002
0.742552
0.735894
0.737981
0.737124
0.738608
0.748072
0.762598
0.780544
0.796967
0.808535
0.819215
0.830892
0.839983
0.848709
0.856155
0.864523
0.877725
0.896991
0.920044
0.94801
0.981388
1.01314
1.04274
1.0766
1.11306
1.1488
1.18898
1.23996
1.2946
1.33327
1.36056
1.39124
1.42396
1.43762
1.43972
1.43946
1.43141
1.40987
1.38244
1.36901
1.36734
1.36724
1.36859
1.37464
1.38893
1.41597
1.45092
1.46748
1.4693
1.46985
1.47
1.46815
1.45916
1.43692
1.40982
1.40051
1.40001
1.4
1.4
1.4
1.4
1.4
1.40001
1.40001
1.40001
1.40001
1.40001
1.40001
1.40001
1.40001
1.40001
1.40001
1.40001
1.40001
1.40001
3.70766
3.39131
3.09495
2.81936
2.5538
2.31942
2.11798
1.92904
1.72316
1.57289
1.49927
1.43305
1.33642
1.22396
1.15427
1.09696
1.02914
0.95045
0.920079
0.897127
0.862946
0.815878
0.79174
0.789079
0.775435
0.760584
0.761331
0.768596
0.783521
0.793647
0.799503
0.806554
0.819052
0.83859
0.855088
0.86544
0.875856
0.890427
0.910365
0.937146
0.971081
1.00633
1.03522
1.06457
1.10616
1.16107
1.22042
1.28017
1.33674
1.37967
1.40066
1.40945
1.41878
1.42897
1.43478
1.43704
1.43666
1.42447
1.3946
1.37
1.36309
1.3619
1.36175
1.36473
1.37456
1.39402
1.42847
1.46494
1.47641
1.47762
1.47824
1.47795
1.47319
1.45531
1.42346
1.40278
1.40004
1.4
1.4
1.4
1.4
1.4
1.4
1.40001
1.40001
1.40001
1.40001
1.40001
1.40001
1.40001
1.40001
1.40001
1.40001
1.40001
1.40001
1.40001
3.82196
3.50433
3.21844
2.97744
2.73731
2.4868
2.29219
2.12567
1.93448
1.75434
1.62505
1.54916
1.4622
1.36889
1.29487
1.22751
1.13454
1.04513
1.019
0.994827
0.958502
0.910165
0.86658
0.849283
0.825018
0.793155
0.788404
0.790945
0.799125
0.807377
0.813048
0.821116
0.836584
0.855656
0.870258
0.877191
0.883583
0.894551
0.913394
0.940865
0.973158
1.00298
1.02927
1.06199
1.11088
1.1769
1.24474
1.30151
1.34779
1.38319
1.40397
1.4133
1.41574
1.41669
1.41747
1.41678
1.4092
1.39004
1.36761
1.35619
1.35393
1.35436
1.35782
1.3661
1.38024
1.40452
1.44418
1.47844
1.48626
1.48744
1.48801
1.48649
1.474
1.44215
1.40893
1.40031
1.40001
1.4
1.4
1.4
1.4
1.4
1.40001
1.40001
1.40001
1.40001
1.40001
1.40001
1.40001
1.40001
1.40001
1.40001
1.40001
1.40001
1.40001
1.40001
3.99746
3.66439
3.3641
3.10628
2.87308
2.65454
2.46359
2.29176
2.12201
1.92962
1.78397
1.6896
1.58981
1.48995
1.41791
1.35107
1.26125
1.16189
1.1227
1.09178
1.05014
0.999367
0.9607
0.94012
0.912094
0.870795
0.851525
0.851365
0.855351
0.855089
0.850047
0.85111
0.860183
0.871336
0.875066
0.875864
0.879281
0.892579
0.917342
0.944109
0.966238
0.98662
1.01085
1.04699
1.10014
1.1708
1.24283
1.29961
1.34096
1.37257
1.39136
1.39875
1.40124
1.40116
1.39561
1.38114
1.36202
1.34801
1.34445
1.34541
1.34748
1.3512
1.35766
1.36844
1.38693
1.42021
1.46814
1.49589
1.49981
1.50081
1.50074
1.49299
1.46362
1.42014
1.40135
1.40001
1.4
1.4
1.4
1.4
1.4
1.40001
1.40001
1.40001
1.40001
1.40001
1.40001
1.40001
1.40001
1.40001
1.40001
1.40001
1.40001
1.40001
1.40001
1.40001
4.07189
3.87351
3.55581
3.25858
3.0184
2.82148
2.61581
2.43919
2.29875
2.13312
1.95093
1.81802
1.71434
1.62433
1.54732
1.47146
1.3698
1.28341
1.24767
1.20538
1.15539
1.08923
1.03963
1.02346
0.999524
0.960796
0.928579
0.92222
0.922692
0.918401
0.902224
0.89521
0.895814
0.894716
0.893101
0.89363
0.899853
0.916392
0.940169
0.96353
0.982445
0.99967
1.02385
1.0623
1.10988
1.16081
1.21695
1.26663
1.30811
1.33481
1.34114
1.34306
1.34349
1.34052
1.33041
1.32117
1.32075
1.32587
1.33418
1.34348
1.35123
1.35827
1.36473
1.37297
1.39292
1.43825
1.49446
1.51429
1.51643
1.5172
1.51334
1.48718
1.43607
1.40387
1.40005
1.4
1.4
1.4
1.4
1.4
1.40001
1.40001
1.40001
1.40001
1.40001
1.40001
1.40001
1.40001
1.40001
1.40001
1.40001
1.40001
1.40001
1.40001
1.40001
1.40001
3.89496
3.95792
3.79654
3.48379
3.17148
2.97148
2.79282
2.60705
2.43074
2.28643
2.14291
1.99488
1.84046
1.72736
1.66917
1.60699
1.49698
1.4
1.3617
1.31941
1.26652
1.19045
1.13918
1.12268
1.09779
1.05373
1.0143
1.00671
1.01032
1.0094
0.992158
0.974173
0.961652
0.951816
0.950175
0.953157
0.963542
0.975594
0.985151
0.995841
1.01226
1.03573
1.06705
1.10049
1.12886
1.15446
1.18692
1.22167
1.24629
1.2563
1.26273
1.27053
1.27913
1.28603
1.29263
1.30171
1.31282
1.32264
1.33153
1.33974
1.34843
1.35917
1.37308
1.39133
1.42425
1.48302
1.52798
1.53566
1.53697
1.53541
1.51186
1.45522
1.40821
1.40015
1.4
1.4
1.4
1.4
1.4
1.40001
1.40001
1.40001
1.40001
1.40001
1.40001
1.40001
1.40001
1.40001
1.40001
1.40001
1.40001
1.40001
1.40001
1.40001
1.40001
1.40001
2.78323
3.80972
3.85332
3.73597
3.42891
3.1479
2.93934
2.76976
2.60464
2.43671
2.29085
2.16843
2.01677
1.85062
1.77968
1.73677
1.64875
1.53389
1.47651
1.43288
1.37396
1.28335
1.23712
1.22986
1.21074
1.16482
1.11385
1.10136
1.10354
1.10309
1.08264
1.05385
1.03226
1.02407
1.0254
1.03446
1.04368
1.04137
1.04035
1.04564
1.0668
1.10267
1.13349
1.14686
1.1569
1.16936
1.19241
1.2222
1.23169
1.23575
1.24255
1.25419
1.26769
1.28061
1.29282
1.30644
1.32264
1.33825
1.34816
1.35217
1.35496
1.36074
1.37287
1.40387
1.46801
1.53839
1.55939
1.56149
1.56126
1.53849
1.47558
1.41362
1.40034
1.40001
1.4
1.4
1.4
1.4
1.40001
1.40001
1.40001
1.40001
1.40001
1.40001
1.40001
1.40001
1.40001
1.40001
1.40001
1.40001
1.40001
1.40001
1.40001
1.40001
1.40001
1.40001
1.66112
2.7353
3.70964
3.74507
3.66145
3.41793
3.15501
2.9365
2.7746
2.60135
2.44286
2.33177
2.20387
2.0316
1.89028
1.84814
1.79095
1.68535
1.60302
1.55617
1.49408
1.39014
1.34024
1.33649
1.32457
1.28163
1.2202
1.2064
1.21147
1.21009
1.18273
1.1411
1.119
1.1172
1.12298
1.13751
1.13749
1.13163
1.13145
1.13909
1.16329
1.19384
1.20593
1.21281
1.22064
1.22708
1.23698
1.24355
1.24522
1.24418
1.24472
1.25181
1.26341
1.27594
1.28972
1.30617
1.32444
1.34139
1.35606
1.37001
1.38109
1.39331
1.41616
1.46804
1.54778
1.58836
1.59252
1.59199
1.56592
1.49398
1.4184
1.40053
1.40001
1.4
1.4
1.4
1.4
1.40001
1.40001
1.40001
1.40001
1.40001
1.40001
1.40001
1.40001
1.40001
1.40001
1.40001
1.40001
1.40001
1.40001
1.40001
1.40001
1.40001
1.40001
1.40001
1.40901
1.64836
2.62915
3.54389
3.65284
3.58807
3.42757
3.1791
2.9734
2.79552
2.60802
2.46968
2.3642
2.22325
2.05328
1.98046
1.93192
1.84316
1.73105
1.67247
1.62358
1.52854
1.45836
1.4488
1.44191
1.41051
1.34155
1.3167
1.32186
1.31948
1.28226
1.23161
1.22046
1.22099
1.23295
1.24409
1.23675
1.22942
1.23
1.24039
1.26532
1.27719
1.27783
1.28338
1.28813
1.28677
1.28076
1.27592
1.27318
1.2657
1.2588
1.26248
1.27371
1.28895
1.30585
1.32243
1.33673
1.34844
1.3592
1.37235
1.39427
1.42867
1.48504
1.56604
1.62157
1.63005
1.62694
1.59272
1.50745
1.42079
1.40059
1.40001
1.4
1.4
1.4
1.4
1.40001
1.40001
1.40001
1.40001
1.40001
1.40001
1.40001
1.40001
1.40001
1.40001
1.40001
1.40001
1.40001
1.40001
1.40001
1.40001
1.40001
1.40001
1.40001
1.40001
1.40005
1.4085
1.60488
2.41738
3.35552
3.5521
3.4993
3.43559
3.2527
3.0426
2.82894
2.63441
2.49989
2.38666
2.24342
2.12038
2.06267
2.00335
1.89965
1.78999
1.74183
1.6889
1.60553
1.56525
1.55751
1.53815
1.48514
1.43686
1.43301
1.42831
1.38757
1.33695
1.33114
1.33164
1.34595
1.35423
1.34465
1.33715
1.3378
1.34765
1.36077
1.36301
1.36314
1.35928
1.35429
1.34956
1.34403
1.33943
1.33398
1.32335
1.31764
1.32129
1.33169
1.34625
1.36205
1.37682
1.39018
1.40329
1.41843
1.43968
1.47343
1.52893
1.60629
1.66076
1.66987
1.6609
1.61462
1.51295
1.41983
1.4005
1.40001
1.4
1.4
1.4
1.4
1.40001
1.40001
1.40001
1.40001
1.40001
1.40001
1.40001
1.40001
1.40001
1.40001
1.40001
1.40001
1.40001
1.40001
1.40001
1.40001
1.40001
1.40001
1.40001
1.40001
1.40001
1.40001
1.40005
1.40618
1.53395
2.18767
3.02094
3.44861
3.47506
3.43905
3.31999
3.11165
2.8785
2.67408
2.52652
2.41479
2.29177
2.18105
2.1312
2.06821
1.96136
1.85924
1.82409
1.77575
1.70161
1.67643
1.66613
1.63416
1.575
1.5402
1.5318
1.50812
1.45992
1.44823
1.44883
1.46231
1.46685
1.45319
1.44185
1.44242
1.45131
1.4527
1.44658
1.43956
1.43002
1.42009
1.41279
1.40645
1.39878
1.38593
1.37127
1.36963
1.37349
1.38093
1.391
1.40349
1.41849
1.43689
1.46033
1.49128
1.53444
1.59529
1.66608
1.70554
1.70826
1.6881
1.62602
1.50637
1.41545
1.40031
1.40001
1.4
1.4
1.4
1.40001
1.40001
1.40001
1.40001
1.40001
1.40001
1.40001
1.40001
1.40001
1.40001
1.40001
1.40001
1.40001
1.40001
1.40001
1.40001
1.40001
1.40001
1.40001
1.40001
1.40001
1.40001
1.40001
1.40001
1.40001
1.40003
1.40299
1.47543
1.89056
2.67492
3.24978
3.41076
3.39477
3.33561
3.16171
2.92393
2.71762
2.59143
2.48467
2.35361
2.26112
2.20867
2.12671
2.00302
1.94504
1.92335
1.86428
1.80162
1.79243
1.77254
1.71347
1.65157
1.63945
1.63219
1.60039
1.56927
1.56685
1.57581
1.57952
1.56125
1.54014
1.53942
1.54449
1.54222
1.52854
1.51054
1.49582
1.48643
1.48185
1.47759
1.47033
1.46035
1.45736
1.45991
1.46663
1.4761
1.48728
1.50088
1.51855
1.54278
1.57678
1.62399
1.68289
1.73298
1.74825
1.73998
1.70427
1.61991
1.48546
1.40922
1.40013
1.40001
1.4
1.4
1.4
1.40001
1.40001
1.40001
1.40001
1.40001
1.40001
1.40001
1.40001
1.40001
1.40001
1.40001
1.40001
1.40001
1.40001
1.40001
1.40001
1.40001
1.40001
1.40001
1.40001
1.40001
1.40001
1.40001
1.40001
1.40001
1.40001
1.40001
1.40001
1.40113
1.42956
1.65942
2.30432
2.95421
3.30189
3.3393
3.28376
3.13712
2.9724
2.84897
2.72911
2.59027
2.45007
2.36798
2.28782
2.14947
2.06715
2.0555
2.02524
1.94908
1.91323
1.89524
1.83477
1.76752
1.75627
1.75593
1.7387
1.70063
1.67976
1.68096
1.68364
1.66678
1.63267
1.62854
1.63097
1.6265
1.60393
1.58019
1.56847
1.56167
1.55567
1.54856
1.54079
1.53805
1.54002
1.54656
1.55742
1.57193
1.59049
1.61443
1.64547
1.68468
1.73008
1.77019
1.78614
1.7816
1.75632
1.70209
1.58806
1.45438
1.40385
1.40004
1.40001
1.4
1.4
1.40001
1.40001
1.40001
1.40001
1.40001
1.40001
1.40001
1.40001
1.40001
1.40001
1.40001
1.40001
1.40001
1.40001
1.40001
1.40001
1.40001
1.40001
1.40001
1.40001
1.40001
1.40001
1.40001
1.40001
1.40001
1.40001
1.40001
1.40001
1.40001
1.40001
1.40001
1.40026
1.40952
1.51652
1.94413
2.54567
3.07414
3.23821
3.16331
3.07386
3.04872
2.99763
2.88961
2.7341
2.58817
2.48038
2.34323
2.22615
2.19922
2.1801
2.11807
2.03616
2.00769
1.95784
1.89163
1.87775
1.87824
1.86511
1.82898
1.79321
1.78062
1.77876
1.76704
1.73102
1.71753
1.71508
1.70671
1.68058
1.65854
1.65062
1.64499
1.63928
1.63565
1.63556
1.64059
1.65096
1.66522
1.68424
1.70871
1.73827
1.77107
1.8026
1.82373
1.82843
1.81968
1.79508
1.75606
1.67082
1.52996
1.4246
1.40102
1.40001
1.40001
1.40001
1.40001
1.40001
1.40001
1.40001
1.40001
1.40001
1.40001
1.40001
1.40001
1.40001
1.40001
1.40001
1.40001
1.40001
1.40001
1.40001
1.40001
1.40001
1.40001
1.40001
1.40001
1.40001
1.40001
1.40001
1.40001
1.40001
1.40001
1.40001
1.40001
1.40001
1.40001
1.40001
1.40001
1.40001
1.40005
1.40247
1.43895
1.63935
2.10201
2.67469
2.98961
3.05601
3.06594
3.07218
3.03605
2.95913
2.83969
2.72214
2.61559
2.49449
2.41111
2.36651
2.30317
2.19034
2.1349
2.09837
2.04115
2.01526
2.01094
1.9966
1.95593
1.90891
1.88968
1.87949
1.86668
1.84043
1.8215
1.81144
1.79687
1.77131
1.75788
1.75312
1.74971
1.74862
1.75259
1.76419
1.78025
1.80002
1.82361
1.84903
1.87135
1.88472
1.88658
1.87578
1.85477
1.83084
1.79509
1.72293
1.59667
1.46413
1.40702
1.40016
1.40001
1.40001
1.40001
1.40001
1.40001
1.40001
1.40001
1.40001
1.40001
1.40001
1.40001
1.40001
1.40001
1.40001
1.40001
1.40001
1.40001
1.40001
1.40001
1.40001
1.40001
1.40001
1.40001
1.40001
1.40001
1.40001
1.40001
1.40001
1.40001
1.40001
1.40001
1.40001
1.40001
1.40001
1.40001
1.40001
1.40001
1.40001
1.40001
1.40001
1.40039
1.40839
1.47223
1.72193
2.18949
2.6192
2.89841
3.02182
3.02735
2.993
2.91691
2.86424
2.83724
2.77842
2.68922
2.61122
2.53044
2.40884
2.32906
2.29592
2.25096
2.20688
2.18064
2.15683
2.11048
2.05135
2.02629
2.01149
1.99582
1.97648
1.95837
1.94366
1.92349
1.90281
1.89831
1.89731
1.89876
1.90684
1.92169
1.93929
1.95559
1.96657
1.96928
1.96289
1.94422
1.92038
1.89524
1.86695
1.82423
1.75174
1.63523
1.50038
1.41927
1.4011
1.40002
1.40001
1.40001
1.40001
1.40001
1.40001
1.40001
1.40001
1.40001
1.40001
1.40001
1.40001
1.40001
1.40001
1.40001
1.40001
1.40001
1.40001
1.40001
1.40001
1.40001
1.40001
1.40001
1.40001
1.40001
1.40001
1.40001
1.40001
1.40001
1.40001
1.40001
1.40001
1.40001
1.40001
1.40001
1.40001
1.40001
1.40001
1.40001
1.40001
1.40001
1.40001
1.40001
1.40004
1.40106
1.41552
1.50487
1.74207
2.11947
2.51124
2.76508
2.89952
2.88755
2.87605
2.86129
2.84312
2.80899
2.75767
2.68888
2.61764
2.57876
2.54533
2.50114
2.45304
2.40654
2.36384
2.3122
2.25374
2.21797
2.19753
2.18009
2.16252
2.14439
2.12627
2.10572
2.08813
2.0784
2.0747
2.07453
2.07518
2.07261
2.06413
2.04774
2.02503
1.99813
1.96941
1.93799
1.89778
1.84143
1.7576
1.64116
1.51399
1.42941
1.403
1.40009
1.40001
1.40001
1.40001
1.40001
1.40001
1.40001
1.40001
1.40001
1.40001
1.40001
1.40001
1.40001
1.40001
1.40001
1.40001
1.40001
1.40001
1.40001
1.40001
1.40001
1.40001
1.40001
1.40001
1.40001
1.40001
1.40001
1.40001
1.40001
1.40001
1.40001
1.40001
1.40001
1.40001
1.40001
1.40001
1.40001
1.40001
1.40001
1.40001
1.40001
1.40001
1.40001
1.40001
1.40001
1.40001
1.40001
1.4001
1.40201
1.41731
1.48662
1.66609
1.95441
2.26928
2.53221
2.69158
2.76763
2.81621
2.80434
2.77016
2.7088
2.66633
2.65667
2.643
2.61166
2.57932
2.54407
2.49754
2.45049
2.41057
2.37944
2.35544
2.33413
2.31197
2.28798
2.26152
2.23248
2.2026
2.17647
2.15579
2.13796
2.11985
2.0995
2.076
2.04835
2.013
1.96778
1.90859
1.82996
1.72896
1.61056
1.4996
1.42895
1.40404
1.4002
1.40001
1.40001
1.40001
1.40001
1.40001
1.40001
1.40001
1.40001
1.40001
1.40001
1.40001
1.40001
1.40001
1.40001
1.40001
1.40001
1.40001
1.40001
1.40001
1.40001
1.40001
1.40001
1.40001
1.40001
1.40001
1.40001
1.40001
1.40001
1.40001
1.40001
1.40001
1.40001
1.40001
1.40001
1.40001
1.40001
1.40001
1.40001
1.40001
1.40001
1.40001
1.40001
1.40001
1.40001
1.40001
1.40001
1.40001
1.40001
1.40001
1.40001
1.4001
1.40137
1.41046
1.449
1.55351
1.74913
1.9916
2.22656
2.42476
2.55468
2.62128
2.63173
2.63176
2.63562
2.63233
2.61691
2.58944
2.55646
2.51228
2.46644
2.43257
2.4046
2.37976
2.357
2.33368
2.30711
2.27704
2.24423
2.2108
2.17992
2.15323
2.12778
2.09939
2.06362
2.01526
1.94921
1.86441
1.76257
1.65107
1.54539
1.46408
1.4187
1.403
1.40021
1.40001
1.40001
1.40001
1.40001
1.40001
1.40001
1.40001
1.40001
1.40001
1.40001
1.40001
1.40001
1.40001
1.40001
1.40001
1.40001
1.40001
1.40001
1.40001
1.40001
1.40001
1.40001
1.40001
1.40001
1.40001
1.40001
1.40001
1.40001
1.40001
1.40001
1.40001
1.40001
1.40001
1.40001
1.40001
1.40001
1.40001
1.40001
1.40001
1.40001
1.40001
1.40001
1.40001
1.40001
1.40001
1.40001
1.40001
1.40001
1.40001
1.40001
1.40001
1.40001
1.40001
1.40001
1.40005
1.40053
1.404
1.41971
1.46364
1.55136
1.68417
1.84678
2.01422
2.16259
2.27426
2.35624
2.41354
2.44639
2.45387
2.44794
2.42914
2.39884
2.37612
2.35516
2.33232
2.30885
2.28329
2.25271
2.21571
2.17311
2.12759
2.08136
2.03282
1.97735
1.9095
1.82592
1.72885
1.62817
1.53759
1.4688
1.42667
1.40725
1.4012
1.4001
1.40001
1.40001
1.40001
1.40001
1.40001
1.40001
1.40001
1.40001
1.40001
1.40001
1.40001
1.40001
1.40001
1.40001
1.40001
1.40001
1.40001
1.40001
1.40001
1.40001
1.40001
1.40001
1.40001
1.40001
1.40001
1.40001
1.40001
1.40001
1.40001
1.40001
1.40001
1.40001
1.40001
1.40001
1.40001
1.40001
1.40001
1.40001
1.40001
1.40001
1.40001
1.40001
1.40001
1.40001
1.40001
1.40001
1.40001
1.40001
1.40001
1.40001
1.40001
1.40001
1.40001
1.40001
1.40001
1.40001
1.40001
1.40001
1.40001
1.40012
1.40081
1.40379
1.41309
1.43564
1.47996
1.54873
1.63116
1.71776
1.80135
1.87322
1.92885
1.9748
2.00818
2.02638
2.03521
2.03132
2.02
2.00061
1.97326
1.93711