/*--------------------------------*- C++ -*----------------------------------*\
  =========                 |
  \\      /  F ield         | OpenFOAM: The Open Source CFD Toolbox
   \\    /   O peration     | Website:  https://openfoam.org
    \\  /    A nd           | Version:  7
     \\/     M anipulation  |
\*---------------------------------------------------------------------------*/
FoamFile
{
    version     2.0;
    format      ascii;
    class       volScalarField;
    location    "0.5";
    object      T;
}
// * * * * * * * * * * * * * * * * * * * * * * * * * * * * * * * * * * * * * //

dimensions      [0 0 0 1 0 0 0];

internalField   nonuniform List<scalar> 
4032
(
1
1
1
1
1
1
1
1
1
1
1
1
1
1
1
2.30499
2.90634
2.88577
2.87245
2.90393
3.01647
3.22758
3.42083
3.49694
1
1
1
1
1
1
1
1
1
1
1
1
1
1
1
2.28394
2.9023
2.88221
2.86991
2.90283
3.01705
3.22756
3.4175
3.49185
1
1
1
1
1
1
1
1
1
1
1
1
1
1
1
2.23317
2.89819
2.87516
2.86285
2.89793
3.01576
3.22628
3.41256
3.48511
1
1
1
1
1
1
1
1
1
1
1
1
1
1
1
2.14733
2.8851
2.85943
2.8487
2.88615
3.00652
3.21629
3.40112
3.47311
1
1
1
1
1
1
1
1
1
1
1
1
1
1
1
2.02035
2.8533
2.83203
2.82762
2.86442
2.98203
3.18879
3.37703
3.45294
1
1
1
1
1
1
1
1
1
1
1
1
1
1
1
1.8335
2.78208
2.79207
2.79943
2.83838
2.94951
3.15056
3.34164
3.40993
1
1
1
1
1
1
1
1
1
1
1
1
1
1
1
1.5198
2.63917
2.75511
2.77514
2.81161
2.90893
3.08995
3.27766
3.35418
1
1
1
1
1
1
1
1
1
1
1
1
1
1
1
1.13956
2.44849
2.72052
2.74912
2.78005
2.86003
3.02008
3.21406
3.34056
1
1
1
1
1
1
1
1
1
1
1
1
1
1
1
1.00325
2.22531
2.68915
2.72505
2.75032
2.81152
2.92694
3.03851
3.03612
1
1
1
1
1
1
1
1
1
1
1
1
1
1
1
1
1.8473
2.6145
2.69734
2.70787
2.74414
2.8037
2.86009
2.80024
1
1
1
1
1
1
1
1
1
1
1
1
1
1
1
1
1.26893
2.4444
2.66367
2.65642
2.67106
2.68915
2.69836
2.62004
1
1
1
1
1
1
1
1
1
1
1
1
1
1
1
1
1.01152
2.15112
2.60152
2.62347
2.62073
2.61117
2.57778
2.49759
1
1
1
1
1
1
1
1
1
1
1
1
1
1
1
1
1.00003
1.56688
2.45342
2.59661
2.57299
2.54318
2.49201
2.41472
1
1
1
1
1
1
1
1
1
1
1
1
1
1
1
1
1
1.06058
2.18995
2.53833
2.52047
2.48814
2.43637
2.36259
1
1
1
1
1
1
1
1
1
1
1
1
1
1
1
1
1
1.00058
1.59324
2.38161
2.48899
2.44362
2.39241
2.32447
1
1
1
1
1
1
1
1
1
1
1
1
1
1
1
1
1
1
1.06992
2.07339
2.42353
2.38791
2.3431
2.28926
1
1
1
1
1
1
1
1
1
1
1
1
1
1
1
1
1
1
1.00077
1.41296
2.21961
2.36027
2.30969
2.26517
1
1
1
1
1
1
1
1
1
1
1
1
1
1
1
1
1
1
1
1.03209
1.77591
2.23777
2.27417
2.23601
1
1
1
1
1
1
1
1
1
1
1
1
1
1
1
1
1
1
1
1.00026
1.17853
1.9355
2.22913
2.20556
1
1
1
1
1
1
1
1
1
1
1
1
1
1
1
1
1
1
1
1
1.00538
1.37308
2.0101
2.16904
1
1
1
1
1
1
1
1
1
1
1
1
1
1
1
1
1
1
1
1
1.00002
1.02832
1.52797
2.00138
1
1
1
1
1
1
1
1
1
1
1
1
1
1
1
1
1
1
1
1
1
1.00026
1.07356
1.58478
1
1
1
1
1
1
1
1
1
1
1
1
1
1
1
1
1
1
1
1
1
1
1.00125
1.11017
1
1
1
1
1
1
1
1
1
1
1
1
1
1
1
1
1
1
1
1
1
1
1
1.00263
1
1
1
1
1
1
1
1
1
1
1
1
1
1
1
1
1
1
1
1
1
1
1
1.00001
1
1
1
1
1
1
1
1
1
1
1
1
1
1
1
1
1
1
1
1
1
1
1
1
1
1
1
1
1
1
1
1
1
1
1
1
1
1
1
1
1
1
1
1
1
1
1
1
1
1
1
1
1
1
1
1
1
1
1
1
1
1
1
1
1
1
1
1
1
1
1
1
1
1
1
1
1
1
1
1
1
1
1
1
1
1
1
1
1
1
1
1
1
1
1
1
1
1
1
1
1
1
1
1
1
1
1
1
1
1
1
1
1
1
1
1
1
1
1
1
1
1
1
1
1
1
1
1
1
1
1
1
1
1
1
1
1
1
1
1
1
1
1
1
1
1
1
1
1
1
1
1
1
1
1
1
1
1
1
1
1
1
1
1
1
1
1
1
1
1
1
1
1
1
1
1
1
1
1
1
1
1
1
1
1
1
1
1
1
1
1
1
1
1
1
1
1
1
1
1
1
1
1
1
1
1
1
1
1
1
1
1
1
1
1
1
1
1
1
1
1
1
1
1
1
1
1
1
1
1
1
1
1
1
1
1
1
1
1
1
1
1
1
1
1
1
1
1
1
1
1
1
1
1
1
1
1
1
1
1
1
1
1
1
1
1
1
1
1
1
1
1
1
1
1
1
1
1
1
1
1
1
1
1
1
1
1
1
1
1
1
1
1
1
1
1
1
1
1
1
1
1
1
1
1
1
1
1
1
1
1
1
1
1
1
1
1
1
1
1
1
1
1
1
1
1
1
1
1
1
1
1
1
1
1
1
1
1
1
1
1
1
1
1
1
1
1
1
1
1
1
1
1
1
1
1
1
1
1
1
2.12413
1.52593
1.45566
1.48219
1.46952
1.57777
1.67966
1.73804
1.8506
2.03628
2.09856
2.08831
2.07766
2.07694
2.08395
2.0779
2.04236
2.02901
2.03876
2.04929
2.04711
2.02748
1.97821
1.93221
1.90851
1.89715
1.89495
1.89526
1.89039
1.88435
1.87936
1.87083
1.86511
1.86114
1.85216
1.83333
1.8092
1.79122
1.76974
1.74284
1.72735
1.71687
1.71393
1.71413
1.71457
1.71391
1.70841
1.68651
1.63818
1.56438
1.47395
1.37443
1.26781
1.15673
1.05852
1.00386
0.991902
0.99166
0.993905
0.994668
0.994166
0.993913
0.993808
0.993866
0.994379
0.995352
0.996641
0.999594
1.00606
1.01241
1.014
1.01406
1.01406
1.01398
1.01336
1.01133
1.00706
1.00205
1.00013
1
1
1
1
1
1
1
1
1
1
1
1
1
1
1
1
1
2.36493
2.02722
1.96513
1.88081
1.70685
1.62162
1.59394
1.57351
1.58524
1.64788
1.7198
1.7668
1.80146
1.85444
1.90718
1.92261
1.93063
1.93767
1.95008
1.96505
1.96607
1.96041
1.93633
1.90492
1.88535
1.87164
1.85972
1.85026
1.84121
1.84015
1.84097
1.84223
1.84413
1.84315
1.8378
1.8228
1.7959
1.76592
1.73501
1.70797
1.69807
1.6961
1.69658
1.69748
1.69733
1.69582
1.68698
1.66143
1.61297
1.54211
1.45516
1.35916
1.25706
1.15144
1.05597
1.00109
0.988812
0.988161
0.990127
0.99209
0.991961
0.992189
0.992449
0.992955
0.99389
0.995043
0.996471
0.999867
1.00635
1.01247
1.01402
1.01408
1.01408
1.01387
1.01307
1.01124
1.00724
1.00216
1.00014
1
1
1
1
1
1
1
1
1
1
1
1
1
1
1
1
1
2.38066
2.17307
2.03018
1.91684
1.81023
1.71112
1.64679
1.57223
1.48938
1.48668
1.51567
1.55773
1.59008
1.63553
1.6916
1.71708
1.74406
1.77835
1.80337
1.83381
1.8424
1.83774
1.8289
1.81526
1.80421
1.79466
1.78348
1.76826
1.75509
1.74769
1.74638
1.75006
1.75969
1.76717
1.76741
1.76444
1.74998
1.71818
1.67449
1.64324
1.63335
1.63304
1.63299
1.63552
1.63831
1.63641
1.62344
1.59425
1.54779
1.48348
1.40391
1.31473
1.22108
1.12812
1.04693
1.00137
0.990644
0.989893
0.991597
0.992965
0.992789
0.992831
0.992956
0.993682
0.994955
0.99627
0.997917
1.00136
1.00762
1.01308
1.01425
1.01428
1.01423
1.01391
1.01302
1.01093
1.00668
1.0018
1.0001
1
1
1
1
1
1
1
1
1
1
1
1
1
1
1
1
1
2.34584
2.20549
2.08844
1.97967
1.86551
1.781
1.72877
1.66917
1.58421
1.53886
1.54097
1.52449
1.50633
1.51002
1.52967
1.54906
1.57841
1.61778
1.64935
1.67905
1.70484
1.72894
1.73565
1.73133
1.72176
1.70884
1.69527
1.68065
1.66443
1.65166
1.64815
1.64856
1.65435
1.66488
1.67184
1.67196
1.66074
1.63288
1.59946
1.57178
1.56066
1.55817
1.55731
1.55714
1.55563
1.5467
1.52558
1.49436
1.45333
1.39893
1.3304
1.25259
1.17284
1.09665
1.0307
0.996813
0.99014
0.990068
0.99191
0.9924
0.992306
0.99229
0.992702
0.994079
0.995745
0.997004
0.998524
1.00222
1.0089
1.01377
1.01452
1.01455
1.01449
1.01411
1.01314
1.01078
1.00601
1.0013
1.00005
1
1
1
1
1
1
1
1
1
1
1
1
1
1
1
1
1
2.30665
2.19556
2.09545
2.01601
1.93372
1.84746
1.77904
1.71184
1.64604
1.60662
1.59131
1.5583
1.5101
1.47764
1.48156
1.4869
1.48584
1.49801
1.53052
1.56668
1.59604
1.61925
1.64076
1.65404
1.65301
1.64662
1.63377
1.61459
1.59196
1.57798
1.57248
1.5731
1.57892
1.58533
1.58738
1.58368
1.56533
1.53886
1.51722
1.5003
1.49183
1.48978
1.48871
1.4858
1.47394
1.44819
1.41416
1.37865
1.34158
1.29903
1.24846
1.19061
1.12805
1.06407
1.01279
0.992681
0.990379
0.991145
0.992152
0.992215
0.991884
0.99159
0.992394
0.994512
0.996333
0.997429
0.999244
1.00357
1.01059
1.01455
1.01495
1.01497
1.01491
1.01449
1.01333
1.01039
1.00496
1.00076
1.00002
1
1
1
1
1
1
1
1
1
1
1
1
1
1
1
1
1
2.2697
2.18054
2.0998
2.02572
1.94857
1.87957
1.82873
1.78531
1.71683
1.66185
1.63846
1.60484
1.55623
1.51459
1.50674
1.48785
1.46166
1.4568
1.46136
1.47364
1.4952
1.52502
1.55535
1.5759
1.57766
1.5753
1.56815
1.55863
1.54798
1.53609
1.53269
1.53545
1.53808
1.53598
1.5287
1.51566
1.49225
1.46618
1.4465
1.43574
1.43067
1.43015
1.43091
1.42604
1.40198
1.36004
1.31617
1.27773
1.24331
1.20931
1.17226
1.12874
1.07858
1.03103
1.00025
0.990876
0.990899
0.991638
0.992342
0.992357
0.991293
0.990965
0.992419
0.99501
0.99644
0.997562
0.999853
1.00521
1.01259
1.01546
1.01564
1.01566
1.01557
1.01504
1.01348
1.00957
1.00354
1.00033
1
1
1
1
1
1
1
1
1
1
1
1
1
1
1
1
1
1
2.24591
2.16685
2.09474
2.03505
1.97602
1.90976
1.85378
1.81297
1.76537
1.71778
1.68295
1.64222
1.58258
1.53367
1.51811
1.49437
1.46179
1.43383
1.43313
1.43889
1.44813
1.45731
1.47359
1.49554
1.50662
1.50589
1.50191
1.49752
1.49251
1.49063
1.49197
1.49892
1.50017
1.49544
1.48403
1.46566
1.44163
1.41609
1.39291
1.38022
1.37731
1.37889
1.37949
1.36654
1.32834
1.27784
1.23124
1.1933
1.16275
1.13611
1.10843
1.0754
1.03991
1.01136
0.997061
0.993576
0.992359
0.992345
0.992606
0.992196
0.990667
0.990668
0.992836
0.995443
0.996743
0.997979
1.0008
1.00754
1.01479
1.01661
1.01671
1.01675
1.01659
1.01572
1.01328
1.00798
1.00197
1.00009
1
1
1
1
1
1
1
1
1
1
1
1
1
1
1
1
1
1
2.22545
2.15682
2.0933
2.0381
1.98423
1.9295
1.88574
1.84243
1.78165
1.73314
1.70572
1.6739
1.62661
1.571
1.5478
1.52257
1.4885
1.452
1.45075
1.44938
1.4382
1.42836
1.42309
1.42547
1.42712
1.4255
1.42433
1.42599
1.43097
1.4366
1.44141
1.44719
1.44836
1.44441
1.43514
1.42055
1.40107
1.37755
1.35433
1.3391
1.33337
1.33054
1.32138
1.29513
1.25447
1.20967
1.16816
1.13395
1.10759
1.08609
1.06429
1.04113
1.02174
1.00964
1.00323
0.997413
0.993265
0.992349
0.991865
0.990789
0.989551
0.990148
0.992751
0.995014
0.996395
0.998034
1.00205
1.01038
1.01686
1.01794
1.01807
1.01813
1.01789
1.01656
1.0126
1.0056
1.00073
1.00001
1
1
1
1
1
1
1
1
1
1
1
1
1
1
1
1
1
1
2.21189
2.15157
2.08934
2.0373
1.99248
1.94117
1.88755
1.84426
1.79904
1.75104
1.71991
1.69046
1.64707
1.60157
1.57785
1.5544
1.5179
1.4719
1.4616
1.45145
1.42831
1.40495
1.39739
1.3945
1.38659
1.37694
1.37737
1.38016
1.38461
1.38827
1.38856
1.38904
1.38915
1.3853
1.37669
1.3634
1.34663
1.32881
1.3127
1.29966
1.2895
1.27866
1.25913
1.2278
1.19238
1.15861
1.12814
1.10238
1.08164
1.06318
1.04409
1.02877
1.02051
1.01545
1.00849
1.00052
0.995519
0.992716
0.990929
0.988922
0.98834
0.98959
0.992328
0.994226
0.995596
0.99804
1.00426
1.01414
1.01908
1.01959
1.01972
1.01976
1.0192
1.01667
1.0105
1.00285
1.00015
1
1
1
1
1
1
1
1
1
1
1
1
1
1
1
1
1
1
1
2.19197
2.14128
2.08889
2.0393
1.98985
1.94523
1.90404
1.85926
1.79678
1.74424
1.72173
1.7031
1.67237
1.62928
1.59983
1.57188
1.53893
1.49908
1.48442
1.46983
1.44438
1.41252
1.39566
1.38894
1.37353
1.35334
1.33764
1.33579
1.33629
1.33573
1.33347
1.33148
1.33025
1.32787
1.31967
1.30478
1.28821
1.27252
1.25722
1.24407
1.23336
1.21949
1.19527
1.1637
1.13768
1.11848
1.10162
1.08527
1.06829
1.05061
1.0347
1.02361
1.01729
1.0123
1.00666
1.00159
0.998106
0.994395
0.989983
0.987248
0.987225
0.988776
0.990814
0.99262
0.994716
0.9988
1.00786
1.01836
1.02163
1.02193
1.02208
1.02198
1.02061
1.01563
1.00674
1.00081
1.00001
1
1
1
1
1
1
1
1
1
1
1
1
1
1
1
1
1
1
1
2.16162
2.11605
2.07149
2.03098
1.98785
1.93953
1.89998
1.86427
1.81467
1.76038
1.71908
1.69776
1.67214
1.64485
1.62133
1.59561
1.5528
1.50814
1.49665
1.4828
1.45856
1.42828
1.40064
1.38274
1.35811
1.33118
1.31216
1.30261
1.30016
1.2994
1.29774
1.29541
1.29239
1.28496
1.27143
1.25305
1.23387
1.21584
1.19899
1.1843
1.17081
1.15307
1.12742
1.10038
1.08357
1.07419
1.06427
1.05044
1.03545
1.02445
1.01782
1.01371
1.00975
1.00534
1.00142
0.997841
0.994013
0.989749
0.985949
0.98479
0.985051
0.986704
0.989179
0.991835
0.995276
1.00158
1.01277
1.02235
1.02442
1.02469
1.02482
1.02436
1.02084
1.01201
1.0026
1.00009
1
1
1
1
1
1
1
1
1
1
1
1
1
1
1
1
1
1
1
1
2.13998
2.09128
2.04859
2.01038
1.97204
1.93052
1.89162
1.85485
1.8157
1.76638
1.72776
1.7038
1.67488
1.6445
1.62534
1.60476
1.57025
1.52549
1.50541
1.48667
1.46094
1.43259
1.40981
1.39126
1.36533
1.33394
1.31017
1.29524
1.28952
1.28313
1.27433
1.26558
1.25564
1.23975
1.21884
1.19813
1.17925
1.16281
1.1477
1.13155
1.11222
1.08979
1.06645
1.04742
1.03681
1.03174
1.02546
1.01582
1.00758
1.00581
1.00583
1.00558
1.00441
1.00144
0.996126
0.989909
0.984472
0.981429
0.981083
0.982149
0.983875
0.985897
0.988291
0.991455
0.996651
1.00625
1.01986
1.02727
1.02821
1.02844
1.02839
1.02617
1.01802
1.00584
1.0004
1
1
1
1
1
1
1
1
1
1
1
1
1
1
1
1
1
1
1
1
1
2.10723
2.07801
2.02952
1.98726
1.95197
1.91808
1.87482
1.83693
1.80953
1.77663
1.73532
1.70233
1.67329
1.64795
1.62728
1.60562
1.57091
1.53583
1.51746
1.4941
1.46787
1.4356
1.40745
1.39012
1.36648
1.33539
1.30839
1.29157
1.28273
1.27227
1.25611
1.24197
1.22534
1.20209
1.17854
1.15982
1.14384
1.1281
1.11219
1.09569
1.07657
1.05414
1.03294
1.01836
1.00831
0.999773
0.992515
0.987847
0.988032
0.990256
0.990229
0.989766
0.988431
0.984802
0.979171
0.975425
0.975117
0.976456
0.979308
0.982513
0.985146
0.987514
0.989693
0.992426
0.99863
1.01193
1.02736
1.03238
1.03287
1.03303
1.03189
1.02462
1.01042
1.00115
1.00001
1
1
1
1
1
1
1
1
1
1
1
1
1
1
1
1
1
1
1
1
1
1.96016
2.04856
2.02328
1.97473
1.9263
1.89712
1.86466
1.82677
1.79295
1.76831
1.74283
1.71137
1.6708
1.639
1.62487
1.60899
1.57446
1.53634
1.51695
1.49564
1.4719
1.44053
1.41288
1.3942
1.36917
1.33532
1.30604
1.28826
1.28178
1.27369
1.25505
1.23372
1.20973
1.18248
1.16042
1.1441
1.12858
1.10957
1.0877
1.06829
1.05139
1.03367
1.01635
1.00113
0.988117
0.976863
0.968614
0.964326
0.965098
0.966027
0.967112
0.968762
0.969731
0.969454
0.969426
0.970867
0.973959
0.977019
0.979709
0.982015
0.98443
0.987517
0.991745
0.99756
1.00778
1.02469
1.03649
1.03829
1.03858
1.03808
1.03153
1.01589
1.00244
1.00005
1
1
1
1
1
1
1
1
1
1
1
1
1
1
1
1
1
1
1
1
1
1
1.5805
1.90998
1.99072
1.96935
1.92096
1.87782
1.84493
1.8158
1.78709
1.75798
1.73318
1.71178
1.6787
1.6327
1.61515
1.60524
1.57968
1.53957
1.51473
1.49407
1.46987
1.43655
1.41153
1.39619
1.37318
1.33881
1.30617
1.28672
1.27849
1.26926
1.24762
1.22107
1.1932
1.16819
1.15095
1.13679
1.12062
1.09649
1.07045
1.05135
1.03804
1.02509
1.01042
0.99266
0.976946
0.96562
0.960213
0.959768
0.958721
0.958772
0.960346
0.963797
0.966848
0.968682
0.970347
0.973256
0.977921
0.982622
0.985233
0.986098
0.986703
0.988336
0.992098
1.0016
1.02051
1.03973
1.04494
1.0454
1.04527
1.03897
1.02171
1.00407
1.0001
1
1
1
1
1
1
1
1
1
1
1
1
1
1
1
1
1
1
1
1
1
1
1
1.12343
1.54798
1.85473
1.92278
1.90897
1.87733
1.83989
1.8034
1.77708
1.74656
1.7191
1.70288
1.6796
1.64029
1.60195
1.5926
1.57615
1.54227
1.51181
1.49176
1.46773
1.43241
1.40803
1.3933
1.37316
1.3398
1.30471
1.28487
1.2767
1.26531
1.24028
1.21024
1.18304
1.16356
1.15029
1.13782
1.11856
1.09338
1.07075
1.05472
1.04181
1.02819
1.01093
0.994279
0.982273
0.973227
0.968041
0.964556
0.962244
0.960957
0.961241
0.963446
0.965976
0.967842
0.970099
0.973888
0.979006
0.983836
0.987737
0.991334
0.994293
0.997867
1.00482
1.02024
1.04255
1.05292
1.05387
1.05367
1.04655
1.027
1.00553
1.00016
1
1
1
1
1
1
1
1
1
1
1
1
1
1
1
1
1
1
1
1
1
1
1
1
1.00346
1.11548
1.50042
1.77755
1.84398
1.85693
1.83997
1.80401
1.77113
1.73924
1.7018
1.68055
1.66713
1.6423
1.60194
1.58155
1.56754
1.54096
1.50511
1.48304
1.46448
1.43325
1.40562
1.38873
1.37111
1.34201
1.30472
1.28287
1.27306
1.25976
1.23204
1.2013
1.17893
1.16291
1.15167
1.13893
1.11694
1.09269
1.07361
1.06068
1.04917
1.03346
1.01443
1.00221
0.994359
0.986773
0.979646
0.975112
0.972304
0.96883
0.966542
0.967388
0.969482
0.971933
0.975125
0.97906
0.982912
0.986102
0.988928
0.992391
0.998514
1.00849
1.02483
1.04749
1.06191
1.06393
1.06304
1.05385
1.03092
1.00631
1.00018
1
1
1
1
1
1
1
1
1
1
1
1
1
1
1
1
1
1
1
1
1
1
1
1
1
1.00001
1.00323
1.09371
1.42187
1.69237
1.76633
1.80511
1.80105
1.7738
1.73724
1.69806
1.66224
1.64499
1.63017
1.60064
1.5671
1.55076
1.53509
1.50717
1.47266
1.45439
1.43514
1.40675
1.38334
1.36537
1.34164
1.30891
1.28248
1.26825
1.25406
1.22695
1.1986
1.17952
1.16432
1.1536
1.14022
1.11864
1.09743
1.08163
1.07034
1.05822
1.04233
1.02744
1.01672
1.00954
1.00372
0.998606
0.994705
0.991071
0.986401
0.984002
0.984495
0.985731
0.987686
0.990707
0.994337
0.997942
1.00152
1.00569
1.01169
1.02134
1.03709
1.0583
1.07225
1.0744
1.07199
1.05977
1.03269
1.0061
1.00016
1
1
1
1
1
1
1
1
1
1
1
1
1
1
1
1
1
1
1
1
1
1
1
1
1
1
1
1.00001
1.00228
1.06028
1.3316
1.56976
1.70167
1.76532
1.76188
1.74057
1.70338
1.66599
1.63343
1.60944
1.5886
1.5585
1.52878
1.51825
1.50363
1.47572
1.44327
1.42802
1.4094
1.38126
1.35893
1.33965
1.31431
1.28539
1.26316
1.24811
1.22749
1.20124
1.18329
1.1683
1.15706
1.14315
1.12253
1.10395
1.09075
1.08145
1.06955
1.054
1.04205
1.0334
1.02669
1.02147
1.01702
1.01262
1.00704
1.00111
0.999627
0.999742
0.999769
1.00052
1.00286
1.00669
1.01167
1.01803
1.02656
1.03854
1.05531
1.07405
1.08377
1.08434
1.07903
1.06292
1.03115
1.00483
1.0001
1
1
1
1
1
1
1
1
1
1
1
1
1
1
1
1
1
1
1
1
1
1
1
1
1
1
1
1
1
1.00001
1.00106
1.03255
1.2106
1.45615
1.63433
1.69722
1.70998
1.69951
1.67378
1.63858
1.60284
1.57783
1.55504
1.52501
1.50244
1.49137
1.4718
1.43822
1.41643
1.40472
1.38206
1.35395
1.33589
1.31547
1.28756
1.26084
1.24502
1.23111
1.20926
1.1895
1.17323
1.16118
1.14858
1.12938
1.11206
1.10086
1.09337
1.08312
1.06939
1.05812
1.05014
1.04443
1.04046
1.03694
1.03285
1.02814
1.0255
1.02518
1.02515
1.02556
1.02717
1.0303
1.03488
1.04126
1.05032
1.06299
1.07852
1.09105
1.09459
1.09237
1.08319
1.06158
1.02555
1.00293
1.00004
1
1
1
1
1
1
1
1
1
1
1
1
1
1
1
1
1
1
1
1
1
1
1
1
1
1
1
1
1
1
1
1
1.00038
1.0119
1.11061
1.34416
1.53201
1.62206
1.66269
1.65609
1.6358
1.6101
1.5881
1.56263
1.53245
1.50329
1.48458
1.46573
1.43236
1.4064
1.39659
1.38167
1.35353
1.33123
1.31337
1.28592
1.25994
1.2458
1.23557
1.21866
1.1974
1.1798
1.16619
1.15575
1.13999
1.12296
1.11313
1.10707
1.09861
1.08596
1.07545
1.06897
1.06434
1.06028
1.05624
1.05214
1.04938
1.0486
1.04848
1.04905
1.05137
1.05561
1.06153
1.06933
1.07929
1.09075
1.10052
1.10418
1.10288
1.09644
1.08279
1.05363
1.01673
1.00124
1.00001
1
1
1
1
1
1
1
1
1
1
1
1
1
1
1
1
1
1
1
1
1
1
1
1
1
1
1
1
1
1
1
1
1
1
1.00008
1.00354
1.0482
1.22226
1.40367
1.54335
1.59839
1.59606
1.5937
1.58975
1.57869
1.556
1.5232
1.49225
1.46805
1.43622
1.40674
1.39347
1.3816
1.3585
1.32956
1.3106
1.28681
1.26275
1.25008
1.24116
1.22697
1.20762
1.18923
1.17473
1.1654
1.15436
1.13872
1.12904
1.123
1.11557
1.10447
1.09534
1.09003
1.08585
1.0821
1.07903
1.07728
1.07693
1.07713
1.07859
1.08212
1.08758
1.09447
1.1021
1.10936
1.11397
1.11478
1.11233
1.10619
1.09654
1.07516
1.03838
1.00779
1.00033
1
1
1
1
1
1
1
1
1
1
1
1
1
1
1
1
1
1
1
1
1
1
1
1
1
1
1
1
1
1
1
1
1
1
1
1
1
1.00001
1.00084
1.01557
1.10002
1.26421
1.42691
1.511
1.5416
1.55937
1.56158
1.55239
1.53601
1.51178
1.48623
1.46088
1.4312
1.40762
1.39125
1.37032
1.33755
1.31452
1.29671
1.27629
1.26229
1.25262
1.24027
1.22239
1.20372
1.19026
1.18083
1.1718
1.15994
1.1504
1.14352
1.13605
1.12673
1.12013
1.11565
1.11204
1.10988
1.10945
1.10974
1.11116
1.11406
1.11843
1.12356
1.12789
1.13006
1.12985
1.12643
1.12113
1.11523
1.10639
1.08849
1.05646
1.01983
1.00226
1.00005
1
1
1
1
1
1
1
1
1
1
1
1
1
1
1
1
1
1
1
1
1
1
1
1
1
1
1
1
1
1
1
1
1
1
1
1
1
1
1
1
1.00012
1.00309
1.02858
1.12922
1.28885
1.40396
1.47679
1.50563
1.51916
1.51433
1.50126
1.48818
1.47868
1.46218
1.43962
1.41878
1.39665
1.36466
1.33969
1.32544
1.30873
1.29123
1.27702
1.26423
1.24746
1.22838
1.21577
1.20651
1.19776
1.18843
1.1799
1.1729
1.16535
1.15819
1.15401
1.15047
1.14858
1.14865
1.14948
1.15099
1.15266
1.15351
1.1528
1.14961
1.14428
1.13797
1.1315
1.1244
1.11388
1.09599
1.06676
1.03047
1.00614
1.00035
1
1
1
1
1
1
1
1
1
1
1
1
1
1
1
1
1
1
1
1
1
1
1
1
1
1
1
1
1
1
1
1
1
1
1
1
1
1
1
1
1
1
1
1.00001
1.00035
1.00575
1.04225
1.13529
1.25995
1.36389
1.42526
1.45758
1.46307
1.46489
1.46115
1.45399
1.44188
1.42769
1.41036
1.39154
1.37817
1.36517
1.34911
1.33191
1.31519
1.30015
1.28421
1.26709
1.25401
1.24439
1.23582
1.22753
1.21967
1.21267
1.2058
1.19963
1.19475
1.19101
1.18821
1.18567
1.18243
1.17822
1.17264
1.16595
1.15852
1.15087
1.14271
1.1326
1.11867
1.09803
1.06875
1.03446
1.00929
1.00096
1.00003
1
1
1
1
1
1
1
1
1
1
1
1
1
1
1
1
1
1
1
1
1
1
1
1
1
1
1
1
1
1
1
1
1
1
1
1
1
1
1
1
1
1
1
1
1
1
1.00003
1.00068
1.00642
1.03408
1.10535
1.20359
1.29124
1.35791
1.39501
1.41161
1.42236
1.42027
1.41323
1.40007
1.38821
1.3807
1.37196
1.35877
1.34581
1.33311
1.31892
1.30525
1.29299
1.28224
1.27296
1.26438
1.25583
1.24736
1.23903
1.23058
1.22191
1.21375
1.20663
1.2002
1.19388
1.18727
1.18018
1.17234
1.16286
1.15124
1.13641
1.11699
1.09189
1.06132
1.03044
1.00912
1.00128
1.00006
1
1
1
1
1
1
1
1
1
1
1
1
1
1
1
1
1
1
1
1
1
1
1
1
1
1
1
1
1
1
1
1
1
1
1
1
1
1
1
1
1
1
1
1
1
1
1
1
1
1
1.00003
1.00046
1.00383
1.01871
1.05951
1.1319
1.20893
1.27191
1.31841
1.34595
1.36027
1.36396
1.36448
1.3622
1.35832
1.35078
1.34022
1.32919
1.31644
1.30339
1.29243
1.28276
1.27399
1.26578
1.25758
1.24903
1.24016
1.231
1.22166
1.21264
1.20445
1.19663
1.18828
1.17837
1.16567
1.14893
1.12779
1.10219
1.07316
1.04397
1.01994
1.00589
1.00095
1.00006
1
1
1
1
1
1
1
1
1
1
1
1
1
1
1
1
1
1
1
1
1
1
1
1
1
1
1
1
1
1
1
1
1
1
1
1
1
1
1
1
1
1
1
1
1
1
1
1
1
1
1
1
1
1
1.00001
1.00017
1.00138
1.00723
1.0242
1.05817
1.10646
1.15869
1.2061
1.24472
1.27112
1.28752
1.29823
1.30245
1.30058
1.29718
1.29058
1.28139
1.27355
1.26638
1.25902
1.25156
1.24356
1.23442
1.22387
1.21209
1.19972
1.18736
1.17464
1.16036
1.14308
1.1217
1.09627
1.06872
1.04253
1.02161
1.00841
1.00228
1.00037
1.00003
1
1
1
1
1
1
1
1
1
1
1
1
1
1
1
1
1
1
1
1
1
1
1
1
1
1
1
1
1
1
1
1
1
1
1
1
1
1
1
1
1
1
1
1
1
1
1
1
1
1
1
1
1
1
1
1
1
1
1
1.00004
1.00026
1.00132
1.00472
1.01312
1.02976
1.05537
1.08451
1.11299
1.13836
1.15804
1.17137
1.18166
1.18828
1.19047
1.18964
1.18772
1.18379
1.17764
1.16937
1.15874
1.14576
1.1312
1.11588
1.09983
1.08253
1.06384
1.04467
1.02723
1.01394
1.0058
1.00187
1.00044
1.00007
1.00001
1
1
1
1
1
1
1
1
1
1
1
1
1
1
1
1
1
1
1
1
1
1
1
1
1
1
1
1
1
1
1
1
1
1
1
1
1
1
1
1
1
1
1
1
1
1
1
1
1
1
1
1
1
1
1
1
1
1
1
1
1
1
1
1
1.00002
1.0001
1.00042
1.00138
1.00339
1.0068
1.01166
1.01764
1.0243
1.03153
1.03893
1.04514
1.04888
1.04969
1.04897
1.04658
1.04246
1.03698
1.03075
1.02442
1.01838
1.01282
1.00798
1.00426
1.00187
1.00065
1.00017
1.00003
1
1
1
1
1
1
1
1
1
1
1
1
1
1
1
1
1
1
1
1
1
1
1
1
1
1
1
1
1
1
1
1
1
1
1
1
1
1
1
1
1
1
1
1
1
1
1
1
1
1
1
1
1
1
1
1
1
1
1
1
1
1
1
1
1
1
1
1
1
1
1
1
1.00001
1.00003
1.00008
1.00017
1.00033
1.00057
1.0009
1.00129
1.00159
1.00167
1.00165
1.00154
1.00132
1.00104
1.00076
1.00051
1.00031
1.00016
1.00007
1.00002
1
1
1
1
1
1
1
1
1
1
1
1
1
1
1
1
1
1
1
1
1
1
1
1
1
1
1
1
1
1
1
1
1
1
1
1
1
1
1
1
1
1
1
1
1
1
1
1
1
1
1
1
1
1
1
1
1
1
1
1
1
1
1
1
1
1
1
1
1
1
1
1
1
1
1
1
1
1
1
1
1
1
1
1
1
1
1
1
1
1
1
1
1
1
1
1
1
1
1
1
1
1
1
1
1
1
1
1
1
1
1
1
1
1
1
1
1
1
1
1
1
1
1
1
1
1
1
1
1
1
1
1
1
1
1
1
1
1
1
1
1
1
1
1
1
1
1
)
;

boundaryField
{
    inlet
    {
        type            fixedValue;
        value           uniform 1;
    }
    outlet
    {
        type            inletOutlet;
        inletValue      uniform 1;
        value           nonuniform List<scalar> 
32
(
1
1
1
1
1
1
1
1
1
1
1
1
1
1
1
1
1
1
1
1
1
1
1
1
1
1
1
1
1
1
1
1
)
;
    }
    bottom
    {
        type            symmetryPlane;
    }
    top
    {
        type            symmetryPlane;
    }
    obstacle
    {
        type            zeroGradient;
    }
    defaultFaces
    {
        type            empty;
    }
}


// ************************************************************************* //
