/*--------------------------------*- C++ -*----------------------------------*\
  =========                 |
  \\      /  F ield         | OpenFOAM: The Open Source CFD Toolbox
   \\    /   O peration     | Website:  https://openfoam.org
    \\  /    A nd           | Version:  7
     \\/     M anipulation  |
\*---------------------------------------------------------------------------*/
FoamFile
{
    version     2.0;
    format      ascii;
    class       volVectorField;
    location    "0.5";
    object      U;
}
// * * * * * * * * * * * * * * * * * * * * * * * * * * * * * * * * * * * * * //

dimensions      [0 1 -1 0 0 0 0];

internalField   nonuniform List<vector> 
4032
(
(3 -3.9065e-18 0)
(3 -1.00807e-16 0)
(3 -9.17214e-17 0)
(3 1.07778e-16 0)
(3 6.40203e-16 0)
(3 3.83634e-16 0)
(3 1.62198e-16 0)
(3 -1.54818e-16 0)
(3 -1.08179e-16 0)
(3 -3.81453e-16 0)
(3 -6.12502e-16 0)
(3 -7.87614e-16 0)
(3 -6.13087e-16 0)
(3 -6.46246e-16 0)
(3 -1.67959e-15 0)
(1.13053 0.0183038 0)
(0.615435 0.018055 0)
(0.548415 0.0332608 0)
(0.48835 0.0348498 0)
(0.412167 0.0365728 0)
(0.33735 0.0388855 0)
(0.24749 0.0424392 0)
(0.15057 0.0440968 0)
(0.0531558 0.0460689 0)
(3 -1.18296e-16 0)
(3 -8.74594e-16 0)
(3 -3.88636e-16 0)
(3 3.13521e-16 0)
(3 1.65038e-16 0)
(3 -2.96829e-16 0)
(3 -5.91471e-16 0)
(3 -8.66409e-16 0)
(3 -8.98338e-16 0)
(3 -3.00393e-16 0)
(3 -1.03699e-16 0)
(3 -1.46508e-16 0)
(3 1.64139e-16 0)
(3 -3.58786e-16 0)
(3 -7.73327e-16 0)
(1.16173 0.086049 0)
(0.604813 0.0768429 0)
(0.525984 0.102526 0)
(0.462437 0.101414 0)
(0.384528 0.103454 0)
(0.312925 0.112079 0)
(0.227771 0.125133 0)
(0.13739 0.131974 0)
(0.0483657 0.138071 0)
(3 -3.00463e-16 0)
(3 -5.57989e-16 0)
(3 -7.92848e-17 0)
(3 2.36977e-16 0)
(3 4.95231e-17 0)
(3 -4.37006e-17 0)
(3 -2.65337e-16 0)
(3 -2.0694e-16 0)
(3 -1.78126e-16 0)
(3 9.43969e-16 0)
(3 9.54788e-16 0)
(3 9.99003e-16 0)
(3 5.85324e-16 0)
(3 5.86763e-17 0)
(3 -1.5081e-15 0)
(1.25961 0.154374 0)
(0.615162 0.141324 0)
(0.524596 0.177552 0)
(0.456511 0.174476 0)
(0.375818 0.175858 0)
(0.303656 0.18638 0)
(0.218639 0.205155 0)
(0.129951 0.213414 0)
(0.0454495 0.220568 0)
(3 2.85541e-16 0)
(3 9.88505e-16 0)
(3 4.30415e-16 0)
(3 2.9487e-16 0)
(3 4.93269e-17 0)
(3 -1.72056e-16 0)
(3 -4.03679e-16 0)
(3 -2.34541e-16 0)
(3 3.12092e-16 0)
(3 5.05945e-16 0)
(3 5.27569e-16 0)
(3 4.13448e-16 0)
(3 -2.15008e-16 0)
(3 -6.02439e-16 0)
(3 -1.34206e-15 0)
(1.42304 0.219611 0)
(0.635488 0.215519 0)
(0.52793 0.255748 0)
(0.461967 0.24913 0)
(0.38692 0.249633 0)
(0.31747 0.264333 0)
(0.231768 0.289308 0)
(0.139414 0.29904 0)
(0.0482478 0.305654 0)
(3 -3.65915e-17 0)
(3 9.99903e-17 0)
(3 3.20767e-16 0)
(3 5.11248e-16 0)
(3 1.23258e-17 0)
(3 -1.42819e-16 0)
(3 -6.31526e-16 0)
(3 -7.33175e-16 0)
(3 -9.91105e-16 0)
(3 -4.35801e-16 0)
(3 -1.35651e-16 0)
(3 -3.27749e-16 0)
(3 -7.94476e-17 0)
(3 -2.20215e-16 0)
(3 -7.09605e-16 0)
(1.66481 0.285854 0)
(0.671446 0.30467 0)
(0.538619 0.336254 0)
(0.486414 0.320382 0)
(0.427372 0.317167 0)
(0.36428 0.337464 0)
(0.278654 0.372366 0)
(0.174771 0.393667 0)
(0.0636248 0.409562 0)
(3 -1.60572e-16 0)
(3 -3.9926e-16 0)
(3 9.04867e-17 0)
(3 9.72938e-17 0)
(3 1.97745e-16 0)
(3 5.94867e-16 0)
(3 5.75231e-16 0)
(3 9.54682e-16 0)
(3 1.33708e-15 0)
(3 7.39661e-16 0)
(3 4.69601e-16 0)
(3 1.10786e-16 0)
(3 -1.9738e-16 0)
(3 -4.51407e-16 0)
(3 -2.46533e-15 0)
(2.01889 0.342413 0)
(0.742716 0.407762 0)
(0.584651 0.401096 0)
(0.544768 0.371003 0)
(0.491162 0.373179 0)
(0.425365 0.412977 0)
(0.325711 0.474412 0)
(0.204558 0.51898 0)
(0.0642971 0.546645 0)
(3 -1.02159e-17 0)
(3 -4.91319e-16 0)
(3 -1.49186e-15 0)
(3 -1.67257e-15 0)
(3 -1.33829e-15 0)
(3 -1.13866e-15 0)
(3 -5.52528e-16 0)
(3 7.09884e-17 0)
(3 1.36081e-15 0)
(3 1.50595e-15 0)
(3 1.17439e-15 0)
(3 7.54342e-16 0)
(3 -4.77878e-16 0)
(3 -9.87299e-16 0)
(3 -2.06735e-15 0)
(2.55156 0.300447 0)
(0.881328 0.482598 0)
(0.668171 0.441644 0)
(0.612583 0.421571 0)
(0.554161 0.444134 0)
(0.480676 0.507831 0)
(0.387082 0.592583 0)
(0.276138 0.650804 0)
(0.11502 0.706714 0)
(3 1.7734e-16 0)
(3 1.02137e-16 0)
(3 -3.17027e-16 0)
(3 -5.22559e-16 0)
(3 -8.5342e-16 0)
(3 -1.47726e-15 0)
(3 -1.46027e-15 0)
(3 -1.19568e-15 0)
(3 -6.25008e-16 0)
(3 3.56817e-16 0)
(3 6.84139e-16 0)
(3 6.79029e-16 0)
(3 3.78601e-17 0)
(3 -2.09237e-16 0)
(3 -7.79001e-16 0)
(2.99294 0.085964 0)
(1.08727 0.517604 0)
(0.721552 0.520373 0)
(0.632762 0.500605 0)
(0.57143 0.531285 0)
(0.519702 0.602126 0)
(0.454371 0.700935 0)
(0.326359 0.824182 0)
(0.171089 1.00437 0)
(3 9.93162e-17 0)
(3 8.41912e-16 0)
(3 1.30595e-15 0)
(3 1.45545e-15 0)
(3 7.20561e-16 0)
(3 1.73678e-16 0)
(3 1.93806e-16 0)
(3 -1.76311e-16 0)
(3 -1.89367e-16 0)
(3 -1.98231e-16 0)
(3 1.58867e-16 0)
(3 9.05452e-16 0)
(3 1.06946e-15 0)
(3 9.61817e-16 0)
(3 -3.1306e-16 0)
(3.00884 0.00338972 0)
(1.37801 0.55966 0)
(0.735436 0.613846 0)
(0.662098 0.579569 0)
(0.626856 0.604921 0)
(0.593915 0.675936 0)
(0.558934 0.80446 0)
(0.555961 1.00451 0)
(0.643573 1.30073 0)
(3 -2.75549e-16 0)
(3 -3.48407e-16 0)
(3 -1.16732e-16 0)
(3 2.7497e-16 0)
(3 6.59143e-16 0)
(3 5.44697e-16 0)
(3 4.44636e-16 0)
(3 2.32213e-16 0)
(3 1.85781e-16 0)
(3 7.01528e-17 0)
(3 7.47344e-16 0)
(3 1.71896e-15 0)
(3 2.13222e-15 0)
(3 1.15083e-15 0)
(3 -3.24808e-16 0)
(3.00005 7.25751e-06 0)
(2.04928 0.573433 0)
(0.844326 0.687376 0)
(0.753082 0.624876 0)
(0.734761 0.651968 0)
(0.714748 0.737078 0)
(0.709364 0.87888 0)
(0.793096 1.05261 0)
(1.05972 1.23712 0)
(3 -1.80018e-16 0)
(3 -1.54259e-16 0)
(3 1.11942e-16 0)
(3 2.17646e-16 0)
(3 9.07018e-16 0)
(3 6.78195e-16 0)
(3 7.18409e-16 0)
(3 1.14337e-15 0)
(3 1.41935e-15 0)
(3 1.19663e-15 0)
(3 1.56405e-15 0)
(3 1.18977e-15 0)
(3 1.37803e-15 0)
(3 1.14836e-15 0)
(3 4.83706e-16 0)
(3 7.99983e-10 0)
(2.93898 0.220478 0)
(1.13863 0.717282 0)
(0.876486 0.678415 0)
(0.835829 0.718042 0)
(0.816328 0.81628 0)
(0.848197 0.921854 0)
(0.966709 1.03852 0)
(1.25951 1.16277 0)
(3 -1.88845e-16 0)
(3 2.3599e-16 0)
(3 2.83575e-16 0)
(3 -7.58014e-18 0)
(3 -1.04112e-16 0)
(3 4.64193e-16 0)
(3 4.12175e-16 0)
(3 6.63246e-17 0)
(3 2.47998e-16 0)
(3 3.06279e-16 0)
(3 -2.84431e-16 0)
(3 -4.82605e-16 0)
(3 -1.76177e-16 0)
(3 1.6997e-16 0)
(3 9.20047e-16 0)
(3 -1.93531e-11 0)
(3.02907 0.0100108 0)
(1.54338 0.702943 0)
(0.940178 0.792192 0)
(0.887788 0.800438 0)
(0.902155 0.865727 0)
(0.960172 0.930976 0)
(1.09213 1.01696 0)
(1.35146 1.08451 0)
(3 6.18241e-17 0)
(3 2.27617e-16 0)
(3 1.38353e-16 0)
(3 -1.2382e-16 0)
(3 -5.42037e-16 0)
(3 -3.35623e-16 0)
(3 -2.9275e-16 0)
(3 -6.63138e-16 0)
(3 -6.99362e-16 0)
(3 -2.10673e-16 0)
(3 -7.1022e-16 0)
(3 -2.72236e-16 0)
(3 1.67146e-16 0)
(3 7.93765e-17 0)
(3 1.05835e-15 0)
(3 -2.5089e-12 0)
(3.00027 5.84672e-05 0)
(2.50964 0.47027 0)
(1.12281 0.829623 0)
(0.976477 0.839785 0)
(1.00425 0.872849 0)
(1.05991 0.924798 0)
(1.18179 0.985845 0)
(1.38969 1.02831 0)
(3 6.4937e-16 0)
(3 6.15315e-16 0)
(3 5.5683e-16 0)
(3 5.61493e-16 0)
(3 4.34999e-16 0)
(3 -2.0324e-16 0)
(3 -5.19922e-16 0)
(3 -7.67427e-16 0)
(3 -8.42773e-16 0)
(3 -4.09554e-16 0)
(3 6.17728e-16 0)
(3 1.32141e-15 0)
(3 1.07376e-15 0)
(3 7.91575e-16 0)
(3 6.64597e-16 0)
(3 -7.32144e-14 0)
(3 1.8224e-08 0)
(3.05972 0.0523363 0)
(1.5162 0.813594 0)
(1.05823 0.918023 0)
(1.08154 0.934729 0)
(1.14169 0.9627 0)
(1.25203 0.988449 0)
(1.41904 0.997982 0)
(3 -1.44523e-16 0)
(3 3.03073e-17 0)
(3 -1.20707e-17 0)
(3 -3.57401e-16 0)
(3 -3.46653e-16 0)
(3 -6.30867e-16 0)
(3 -7.33417e-16 0)
(3 -9.71571e-16 0)
(3 -1.31708e-15 0)
(3 -1.85657e-15 0)
(3 -1.06743e-15 0)
(3 2.36865e-16 0)
(3 1.84957e-16 0)
(3 -6.53708e-17 0)
(3 -2.19556e-16 0)
(3 -5.88196e-16 0)
(3 -4.65929e-10 0)
(3.00297 0.000896383 0)
(2.47498 0.552138 0)
(1.25824 0.940055 0)
(1.16523 0.938788 0)
(1.2379 0.951509 0)
(1.32625 0.970797 0)
(1.45919 0.978047 0)
(3 -5.29671e-16 0)
(3 -3.85031e-16 0)
(3 -3.11733e-16 0)
(3 -3.98998e-16 0)
(3 -1.05912e-16 0)
(3 -2.69807e-16 0)
(3 -7.08856e-16 0)
(3 -1.04175e-15 0)
(3 -1.04591e-15 0)
(3 -1.66831e-15 0)
(3 -1.46884e-15 0)
(3 -1.41714e-15 0)
(3 -1.38903e-15 0)
(3 -1.24429e-15 0)
(3 -1.25434e-15 0)
(3 -2.94352e-16 0)
(3 -2.68791e-10 0)
(3 1.90221e-06 0)
(3.04734 0.0600961 0)
(1.71276 0.867863 0)
(1.24794 0.997308 0)
(1.30144 0.997264 0)
(1.37713 1.00612 0)
(1.48663 1.00003 0)
(3 1.1129e-18 0)
(3 -7.60382e-17 0)
(3 -2.83013e-17 0)
(3 -2.67524e-16 0)
(3 5.61245e-17 0)
(3 -4.25702e-16 0)
(3 -8.28094e-16 0)
(3 -1.05753e-15 0)
(3 -1.02919e-15 0)
(3 -8.1447e-16 0)
(3 -8.99459e-16 0)
(3 -1.57638e-15 0)
(3 -2.00726e-15 0)
(3 -1.68149e-15 0)
(3 -1.34552e-15 0)
(3 7.14372e-17 0)
(3 -3.67889e-11 0)
(3 1.26465e-10 0)
(3.0025 0.00147081 0)
(2.71716 0.428396 0)
(1.51604 0.984654 0)
(1.35694 1.00696 0)
(1.44752 0.996586 0)
(1.53278 0.990765 0)
(3 3.72613e-17 0)
(3 -5.31121e-17 0)
(3 2.31427e-16 0)
(3 5.00154e-16 0)
(3 5.31977e-16 0)
(3 4.5205e-16 0)
(3 6.78636e-16 0)
(3 8.06369e-16 0)
(3 1.95535e-16 0)
(3 -8.64936e-16 0)
(3 -1.0244e-15 0)
(3 -1.29395e-15 0)
(3 -1.18237e-15 0)
(3 -5.51176e-16 0)
(3 2.85648e-16 0)
(3 1.03374e-15 0)
(3 -6.49178e-13 0)
(3 -1.50107e-12 0)
(3 3.41791e-06 0)
(3.01992 0.0307355 0)
(2.19304 0.786198 0)
(1.4616 1.04147 0)
(1.47824 1.03437 0)
(1.58471 1.00534 0)
(3 1.22198e-16 0)
(3 -3.06284e-16 0)
(3 -2.73091e-16 0)
(3 9.73186e-17 0)
(3 1.29454e-16 0)
(3 8.50042e-16 0)
(3 1.44637e-15 0)
(3 1.70894e-15 0)
(3 1.70363e-15 0)
(3 1.35092e-15 0)
(3 2.96786e-16 0)
(3 -2.80029e-16 0)
(3 9.55757e-17 0)
(3 8.12647e-16 0)
(3 1.42962e-15 0)
(3 1.98342e-15 0)
(3 6.40875e-16 0)
(3 -8.28359e-13 0)
(3 5.0051e-10 0)
(3.00036 0.000682511 0)
(2.95518 0.181837 0)
(1.91027 0.920199 0)
(1.55422 1.04731 0)
(1.60182 1.04278 0)
(3 5.64006e-17 0)
(3 -5.60995e-16 0)
(3 -5.48457e-16 0)
(3 -2.17574e-18 0)
(3 3.7422e-16 0)
(3 1.11609e-15 0)
(3 1.81252e-15 0)
(3 2.45299e-15 0)
(3 2.49728e-15 0)
(3 2.35163e-15 0)
(3 1.3753e-15 0)
(3 1.08249e-16 0)
(3 4.54445e-16 0)
(3 1.08992e-15 0)
(3 1.51478e-15 0)
(3 9.50672e-16 0)
(3 9.01988e-16 0)
(3 -1.16301e-13 0)
(3 -6.40231e-14 0)
(3 1.0022e-06 0)
(3.00267 0.00894573 0)
(2.72749 0.416397 0)
(1.82865 0.973095 0)
(1.65628 1.06363 0)
(3 -4.65915e-17 0)
(3 1.86735e-16 0)
(3 2.70688e-16 0)
(3 7.23168e-16 0)
(3 1.08489e-15 0)
(3 1.16706e-15 0)
(3 1.1647e-15 0)
(3 1.02135e-15 0)
(3 8.00544e-16 0)
(3 6.56399e-16 0)
(3 6.94766e-16 0)
(3 1.03741e-15 0)
(3 4.7284e-16 0)
(3 -6.45965e-16 0)
(3 -2.30483e-16 0)
(3 8.68776e-16 0)
(3 1.2204e-15 0)
(3 -1.24932e-16 0)
(3 -1.09045e-14 0)
(3 2.12334e-10 0)
(3 5.77397e-05 0)
(3 0.034435 0)
(2.48922 0.603967 0)
(1.85159 1.00503 0)
(3 1.38779e-16 0)
(3 1.04964e-15 0)
(3 8.83919e-16 0)
(3 4.69986e-16 0)
(3 2.64929e-16 0)
(3 -3.03652e-16 0)
(3 -1.02835e-15 0)
(3 -9.96829e-16 0)
(3 -3.75805e-16 0)
(3 4.01984e-16 0)
(3 8.32078e-16 0)
(3 1.69205e-15 0)
(3 1.49771e-15 0)
(3 3.93382e-16 0)
(3 -2.24545e-16 0)
(3 2.76436e-16 0)
(3 8.17494e-16 0)
(3 9.13739e-16 0)
(3 1.28007e-16 0)
(3 1.60647e-14 0)
(3 3.50682e-08 0)
(3.00001 0.000626022 0)
(2.97324 0.0826443 0)
(2.38108 0.699463 0)
(3 -1.48054e-19 0)
(3 1.47427e-16 0)
(3 2.54195e-16 0)
(3 -1.93308e-16 0)
(3 -9.74253e-16 0)
(3 -8.7002e-16 0)
(3 -1.871e-16 0)
(3 3.44347e-16 0)
(3 3.8401e-16 0)
(3 5.91242e-16 0)
(3 1.17804e-15 0)
(3 1.07238e-15 0)
(3 1.10258e-15 0)
(3 7.89277e-16 0)
(3 4.05245e-16 0)
(3 -3.67768e-16 0)
(3 -8.60112e-16 0)
(3 -1.39334e-15 0)
(3 -1.3872e-15 0)
(3 -5.82603e-16 0)
(3 3.34435e-12 0)
(3 9.31676e-07 0)
(2.99983 0.00271226 0)
(2.94124 0.126347 0)
(3 -2.10378e-16 0)
(3 -3.75679e-16 0)
(3 -1.65411e-16 0)
(3 -1.62097e-16 0)
(3 -4.58572e-16 0)
(3 -3.56876e-16 0)
(3 -7.04594e-17 0)
(3 -9.46597e-17 0)
(3 -1.89811e-16 0)
(3 1.30358e-17 0)
(3 4.59708e-16 0)
(3 3.21949e-17 0)
(3 -8.75185e-17 0)
(3 4.66961e-17 0)
(3 7.96203e-17 0)
(3 -2.26979e-16 0)
(3 -1.87328e-15 0)
(3 -2.63826e-15 0)
(3 -2.37707e-15 0)
(3 -3.19514e-16 0)
(3 6.31179e-16 0)
(3 2.38005e-10 0)
(3 7.83307e-06 0)
(2.99925 0.00522578 0)
(3 -1.40211e-17 0)
(3 -6.87381e-16 0)
(3 -6.65452e-16 0)
(3 -3.43137e-16 0)
(3 -2.53884e-16 0)
(3 -5.42321e-16 0)
(3 -7.74294e-16 0)
(3 -8.36606e-16 0)
(3 -6.09341e-16 0)
(3 -3.46679e-16 0)
(3 -4.08468e-16 0)
(3 -1.32666e-16 0)
(3 -1.49241e-16 0)
(3 2.17277e-16 0)
(3 9.22575e-17 0)
(3 -3.24398e-16 0)
(3 -8.98885e-16 0)
(3 -1.18393e-15 0)
(3 5.16639e-16 0)
(3 1.57773e-15 0)
(3 2.02078e-16 0)
(3 1.41151e-14 0)
(3 3.56006e-09 0)
(3 2.19208e-05 0)
(3 9.1968e-19 0)
(3 -3.27053e-16 0)
(3 -6.76204e-16 0)
(3 -9.05023e-16 0)
(3 -4.37007e-16 0)
(3 -8.55765e-17 0)
(3 -8.75671e-17 0)
(3 1.26012e-16 0)
(3 3.19675e-17 0)
(3 -6.21578e-16 0)
(3 -7.03181e-16 0)
(3 -5.75327e-16 0)
(3 -1.81375e-16 0)
(3 -1.80113e-16 0)
(3 -4.3835e-17 0)
(3 8.21428e-16 0)
(3 1.29951e-15 0)
(3 1.59521e-15 0)
(3 1.77417e-15 0)
(3 1.57883e-15 0)
(3 3.59318e-17 0)
(3 -2.91629e-15 0)
(3 2.2378e-13 0)
(3 1.35488e-08 0)
(3 1.41007e-16 0)
(3 5.81556e-16 0)
(3 7.85332e-17 0)
(3 -3.41284e-16 0)
(3 -3.12208e-16 0)
(3 -4.76328e-16 0)
(3 -9.15878e-16 0)
(3 -3.56946e-16 0)
(3 -2.92567e-16 0)
(3 -9.67542e-16 0)
(3 -9.10738e-16 0)
(3 -6.19809e-16 0)
(3 -4.43003e-16 0)
(3 -6.31828e-16 0)
(3 -7.01727e-16 0)
(3 -2.18189e-16 0)
(3 1.01925e-15 0)
(3 1.24335e-15 0)
(3 3.82858e-16 0)
(3 -4.07406e-16 0)
(3 -1.47895e-15 0)
(3 -1.87004e-15 0)
(3 -5.47252e-16 0)
(3 9.63994e-13 0)
(3 2.75062e-17 0)
(3 1.99514e-16 0)
(3 1.93583e-16 0)
(3 1.95978e-16 0)
(3 5.05394e-17 0)
(3 -2.18186e-16 0)
(3 -9.58772e-17 0)
(3 -2.95176e-16 0)
(3 -1.38342e-16 0)
(3 4.1659e-17 0)
(3 3.35851e-16 0)
(3 3.28491e-16 0)
(3 -2.0026e-17 0)
(3 -4.44348e-16 0)
(3 -6.48623e-16 0)
(3 -7.74088e-16 0)
(3 -1.86454e-16 0)
(3 -8.74981e-16 0)
(3 -1.9424e-15 0)
(3 -2.47503e-15 0)
(3 -2.03296e-15 0)
(3 -9.30542e-16 0)
(3 -6.71335e-16 0)
(3 2.27517e-16 0)
(3 -3.53112e-16 0)
(3 -2.95232e-16 0)
(3 2.3684e-17 0)
(3 2.43936e-16 0)
(3 8.07532e-16 0)
(3 6.65749e-16 0)
(3 7.05181e-16 0)
(3 4.63909e-16 0)
(3 5.68743e-16 0)
(3 1.19368e-15 0)
(3 8.92781e-16 0)
(3 4.26267e-16 0)
(3 8.38663e-17 0)
(3 -4.37168e-16 0)
(3 -1.47764e-16 0)
(3 -8.73374e-16 0)
(3 -1.41739e-15 0)
(3 -1.40418e-15 0)
(3 -1.73432e-15 0)
(3 -1.34748e-15 0)
(3 -4.86574e-16 0)
(3 1.47658e-16 0)
(3 1.56225e-16 0)
(3 -8.71773e-17 0)
(3 -5.10822e-18 0)
(3 -1.2483e-16 0)
(3 -1.39955e-16 0)
(3 -4.88997e-16 0)
(3 -2.63847e-16 0)
(3 2.76344e-16 0)
(3 -2.69859e-17 0)
(3 5.09215e-16 0)
(3 1.02987e-15 0)
(3 1.01276e-15 0)
(3 5.61573e-17 0)
(3 -1.80149e-16 0)
(3 1.01397e-16 0)
(3 1.79557e-16 0)
(3 -3.60081e-16 0)
(3 -9.21552e-16 0)
(3 -1.78805e-15 0)
(3 -1.03043e-15 0)
(3 -6.16212e-16 0)
(3 -3.27187e-16 0)
(3 -2.07074e-16 0)
(3 3.83801e-16 0)
(3 -3.19385e-17 0)
(3 -5.74831e-16 0)
(3 1.72235e-16 0)
(3 6.05458e-17 0)
(3 -2.88337e-17 0)
(3 -2.81796e-16 0)
(3 -2.99987e-16 0)
(3 1.14596e-16 0)
(3 4.0776e-16 0)
(3 1.19598e-15 0)
(3 1.50698e-15 0)
(3 1.32902e-15 0)
(3 7.0141e-16 0)
(3 7.90059e-16 0)
(3 1.07809e-15 0)
(3 2.78302e-16 0)
(3 -1.7815e-16 0)
(3 -7.08416e-16 0)
(3 -1.00533e-15 0)
(3 -7.80213e-16 0)
(3 -4.24328e-16 0)
(3 -4.85232e-16 0)
(3 -3.37265e-16 0)
(3 -5.09052e-16 0)
(3 -9.40453e-16 0)
(3 -5.38803e-16 0)
(3 2.4908e-16 0)
(3 5.30584e-16 0)
(3 4.25951e-16 0)
(3 6.71743e-16 0)
(3 7.50714e-16 0)
(3 9.23579e-16 0)
(3 1.06503e-15 0)
(3 8.86803e-16 0)
(3 8.32028e-16 0)
(3 7.72896e-16 0)
(3 5.34221e-16 0)
(3 4.48167e-16 0)
(3 -5.8302e-16 0)
(3 -4.9308e-16 0)
(3 -7.20934e-16 0)
(3 -4.76508e-16 0)
(3 -7.35588e-16 0)
(3 -8.04188e-16 0)
(3 -3.20423e-16 0)
(3 -3.34748e-16 0)
(3 1.83655e-17 0)
(3 -8.62503e-16 0)
(3 -1.10351e-15 0)
(3 -9.75971e-16 0)
(3 -3.06992e-17 0)
(3 -1.32186e-16 0)
(3 -5.19976e-17 0)
(3 1.3146e-16 0)
(3 -4.73886e-16 0)
(3 -3.47843e-16 0)
(3 -3.36007e-16 0)
(3 -3.07094e-16 0)
(3 -6.217e-16 0)
(3 -4.98252e-16 0)
(3 1.48463e-16 0)
(3 -3.9663e-17 0)
(3 -6.90805e-16 0)
(3 1.25758e-16 0)
(3 2.12111e-16 0)
(3 6.2433e-16 0)
(3 2.52514e-16 0)
(3 9.42843e-18 0)
(3 -1.90531e-16 0)
(3 -2.59231e-16 0)
(3 -9.0371e-16 0)
(3 -1.53586e-15 0)
(3 -1.57497e-15 0)
(3 -1.46056e-15 0)
(3 -1.90805e-16 0)
(3 -7.93859e-16 0)
(3 -5.42564e-16 0)
(3 -5.71459e-16 0)
(3 -1.12719e-15 0)
(3 -1.54701e-15 0)
(3 -1.32253e-15 0)
(3 -1.02875e-15 0)
(3 -1.48909e-15 0)
(3 -1.56915e-15 0)
(3 -1.23e-15 0)
(3 -1.21063e-16 0)
(3 1.25591e-15 0)
(3 2.05442e-15 0)
(3 1.96392e-15 0)
(3 1.7693e-15 0)
(3 1.1984e-15 0)
(3 9.49305e-16 0)
(3 2.92016e-16 0)
(3 -2.95953e-16 0)
(3 -4.27512e-16 0)
(3 -1.1376e-15 0)
(3 -1.78351e-15 0)
(3 -1.31733e-15 0)
(3 3.42798e-17 0)
(3 -3.15219e-17 0)
(3 1.81906e-16 0)
(3 -6.52126e-17 0)
(3 1.48636e-16 0)
(3 -4.93954e-16 0)
(3 -1.47888e-15 0)
(3 -1.72587e-15 0)
(3 -1.72775e-15 0)
(3 -1.3917e-15 0)
(3 -1.56582e-15 0)
(3 -1.41515e-15 0)
(3 -1.87781e-17 0)
(3 6.29153e-16 0)
(3 1.22491e-15 0)
(3 1.30385e-15 0)
(3 8.55845e-16 0)
(3 5.95655e-16 0)
(3 9.92675e-16 0)
(3 1.39451e-15 0)
(3 1.23205e-15 0)
(3 1.26559e-16 0)
(3 -7.64003e-16 0)
(3 -7.71744e-16 0)
(3 9.77377e-17 0)
(3 4.73562e-16 0)
(3 4.06596e-16 0)
(3 5.19682e-16 0)
(3 8.32464e-16 0)
(3 4.05254e-16 0)
(3 -5.93879e-16 0)
(3 -1.57251e-15 0)
(3 -9.33627e-16 0)
(3 -1.25117e-16 0)
(3 -2.64065e-16 0)
(3 -8.43541e-16 0)
(3 -1.49802e-15 0)
(3 -1.04864e-15 0)
(3 -7.47209e-16 0)
(3 -4.09622e-16 0)
(3 -3.85698e-16 0)
(3 9.15613e-16 0)
(3 1.37918e-15 0)
(3 9.8684e-16 0)
(3 5.91754e-16 0)
(3 1.00175e-15 0)
(3 1.48158e-15 0)
(3 1.33864e-15 0)
(3 4.11523e-17 0)
(3 5.68376e-16 0)
(3 1.02046e-16 0)
(3 1.12164e-16 0)
(3 1.07885e-16 0)
(3 1.23561e-16 0)
(3 3.21416e-16 0)
(3 -3.34374e-16 0)
(3 -7.69785e-16 0)
(3 -8.2537e-16 0)
(3 -6.38837e-16 0)
(3 -4.91387e-16 0)
(3 -9.36854e-16 0)
(3 -1.44767e-15 0)
(3 -1.84486e-15 0)
(3 -1.28703e-15 0)
(3 8.08907e-17 0)
(3 5.74838e-16 0)
(3 4.11152e-16 0)
(3 -5.51881e-16 0)
(3 -5.83009e-16 0)
(3 1.20136e-15 0)
(3 2.93294e-15 0)
(3 2.02965e-15 0)
(3 -1.62375e-16 0)
(3 -2.65888e-16 0)
(3 -3.24211e-16 0)
(3 -7.78298e-16 0)
(3 -5.08812e-16 0)
(3 -3.93913e-17 0)
(3 4.13013e-16 0)
(3 6.46832e-16 0)
(3 3.20924e-16 0)
(3 3.15095e-16 0)
(3 1.80167e-16 0)
(3 -1.36422e-16 0)
(3 1.75572e-16 0)
(3 1.39495e-16 0)
(3 -1.14758e-16 0)
(3 -3.21166e-16 0)
(3 -6.31744e-16 0)
(3 -1.48438e-15 0)
(3 -2.82624e-15 0)
(3 -2.13146e-15 0)
(3 -1.04902e-15 0)
(3 8.64909e-16 0)
(3 1.91907e-15 0)
(3 1.86093e-15 0)
(3 5.06065e-17 0)
(3 -2.13122e-16 0)
(3 -4.63175e-16 0)
(3 1.1113e-16 0)
(3 5.15952e-16 0)
(3 9.06345e-17 0)
(3 3.95459e-16 0)
(3 8.90437e-16 0)
(3 8.18631e-16 0)
(3 1.16519e-15 0)
(3 -3.1725e-16 0)
(3 -7.62811e-16 0)
(3 -3.70702e-16 0)
(3 1.04654e-15 0)
(3 1.40359e-15 0)
(3 1.11812e-15 0)
(3 -1.66496e-16 0)
(3 -1.99888e-15 0)
(3 -2.10854e-15 0)
(3 -1.16867e-15 0)
(3 3.11339e-16 0)
(3 9.32687e-16 0)
(3 8.55654e-16 0)
(3 3.34561e-17 0)
(3 2.08096e-16 0)
(3 1.09656e-16 0)
(3 2.60379e-17 0)
(3 4.96901e-16 0)
(3 3.66573e-16 0)
(3 1.14746e-17 0)
(3 2.08944e-16 0)
(3 4.07747e-16 0)
(3 -1.12108e-16 0)
(3 -9.06281e-17 0)
(3 -6.07894e-16 0)
(3 -6.36587e-16 0)
(3 -1.26704e-16 0)
(3 3.81221e-16 0)
(3 6.73805e-16 0)
(3 5.82499e-16 0)
(3 -5.2341e-17 0)
(3 -1.06198e-15 0)
(3 -6.09516e-16 0)
(3 -2.85544e-16 0)
(3 -2.58848e-16 0)
(3 3.23135e-16 0)
(3 2.06272e-16 0)
(3 -6.42484e-16 0)
(1.68691 1.43208 0)
(2.29178 1.4227 0)
(2.67032 1.46284 0)
(2.861 0.891742 0)
(2.90852 0.461849 0)
(2.86838 0.0818374 0)
(2.80754 -0.253185 0)
(2.88902 -0.32334 0)
(2.86863 -0.285809 0)
(2.80705 -0.324885 0)
(2.79725 -0.279492 0)
(2.80539 -0.180248 0)
(2.80329 -0.157091 0)
(2.78049 -0.108489 0)
(2.76733 -0.0739822 0)
(2.74489 -0.0625835 0)
(2.74993 -0.0383654 0)
(2.77547 -0.00363639 0)
(2.78473 0.00522621 0)
(2.78986 0.0036283 0)
(2.80188 0.000688449 0)
(2.80728 0.00334812 0)
(2.79506 0.0108866 0)
(2.79021 0.0166018 0)
(2.79376 0.0177172 0)
(2.79861 0.017106 0)
(2.8184 0.012226 0)
(2.84628 0.00181732 0)
(2.8529 -0.00365943 0)
(2.85089 -0.0069399 0)
(2.84094 -0.00947573 0)
(2.82098 -0.00417033 0)
(2.81316 0.00397044 0)
(2.81342 0.00682885 0)
(2.81412 0.0108475 0)
(2.81506 0.016229 0)
(2.82378 0.0140853 0)
(2.85714 -0.000348621 0)
(2.86747 -0.0127615 0)
(2.85373 -0.0138765 0)
(2.84201 -0.0134373 0)
(2.82354 -0.00975402 0)
(2.81605 -0.00580834 0)
(2.81406 -0.00363131 0)
(2.8135 -0.000582291 0)
(2.81741 0.00128547 0)
(2.82068 0.00164543 0)
(2.81921 -0.000180525 0)
(2.8142 -0.00459971 0)
(2.81081 -0.0122752 0)
(2.81384 -0.0216723 0)
(2.82478 -0.0284465 0)
(2.84558 -0.0290255 0)
(2.87968 -0.0226368 0)
(2.91176 -0.0133835 0)
(2.92257 -0.00895705 0)
(2.93138 -0.00798945 0)
(2.94496 -0.00823836 0)
(2.96129 -0.00935515 0)
(2.96691 -0.00981395 0)
(2.973 -0.00934665 0)
(2.97828 -0.0076733 0)
(2.98084 -0.00581122 0)
(2.98342 -0.00422364 0)
(2.98653 -0.00315802 0)
(2.98922 -0.00229102 0)
(2.99207 -0.00140301 0)
(3.00042 -0.000461843 0)
(3.01696 0.000170578 0)
(3.03314 0.000405009 0)
(3.03686 0.000442698 0)
(3.03671 0.000454592 0)
(3.03646 0.000483014 0)
(3.03563 0.000511462 0)
(3.0334 0.000277927 0)
(3.02818 -2.29609e-06 0)
(3.01756 -7.68273e-05 0)
(3.00509 -2.29715e-05 0)
(3.00033 -8.84003e-07 0)
(3 -1.29697e-08 0)
(3 -9.9222e-09 0)
(3 -9.45903e-09 0)
(3 -8.0713e-09 0)
(3 -5.95016e-09 0)
(3 -3.43717e-09 0)
(3 -9.67342e-10 0)
(3 -6.17687e-11 0)
(3 -9.39452e-14 0)
(3 2.29963e-13 0)
(3 1.97288e-13 0)
(3 1.37587e-13 0)
(3 5.79077e-14 0)
(3 5.68661e-15 0)
(3 -1.8115e-15 0)
(3 -1.90701e-15 0)
(3 -1.63719e-15 0)
(1.95561 1.19902 0)
(2.53684 0.840127 0)
(2.8236 0.397846 0)
(3.0238 0.157363 0)
(3.08398 -0.172368 0)
(3.05585 -0.490077 0)
(3.02139 -0.681072 0)
(3.07718 -0.684477 0)
(3.08435 -0.544297 0)
(3.03744 -0.40771 0)
(2.94688 -0.327854 0)
(2.89153 -0.220383 0)
(2.85746 -0.143472 0)
(2.83307 -0.118369 0)
(2.81098 -0.0758086 0)
(2.80507 -0.048894 0)
(2.82406 -0.0176646 0)
(2.81338 0.0433842 0)
(2.80055 0.055989 0)
(2.79739 0.0551894 0)
(2.81233 0.0330984 0)
(2.82107 -0.00195848 0)
(2.81267 -0.0127917 0)
(2.80997 -0.00112888 0)
(2.82294 0.011619 0)
(2.8371 0.0220328 0)
(2.85615 0.0305229 0)
(2.87562 0.0270891 0)
(2.87963 0.0143723 0)
(2.8774 -0.0047525 0)
(2.86818 -0.0266878 0)
(2.85194 -0.029231 0)
(2.84734 -0.018338 0)
(2.84912 -0.0137766 0)
(2.85293 -0.00626582 0)
(2.85618 0.0104801 0)
(2.86374 0.0286534 0)
(2.88265 0.020889 0)
(2.88471 -0.00378651 0)
(2.86592 -0.0106269 0)
(2.85296 -0.01703 0)
(2.83896 -0.0234716 0)
(2.8308 -0.0240792 0)
(2.82586 -0.0217644 0)
(2.82986 -0.014297 0)
(2.83723 -0.00321005 0)
(2.84011 0.00541941 0)
(2.83603 0.00794915 0)
(2.82764 0.0022127 0)
(2.82198 -0.0108545 0)
(2.82378 -0.0284662 0)
(2.83452 -0.045285 0)
(2.85765 -0.0548333 0)
(2.89555 -0.0495542 0)
(2.91971 -0.0315338 0)
(2.91885 -0.0196887 0)
(2.92479 -0.0159354 0)
(2.93787 -0.0144456 0)
(2.95659 -0.0138423 0)
(2.96658 -0.0135746 0)
(2.97099 -0.013171 0)
(2.97609 -0.0114013 0)
(2.97869 -0.00965435 0)
(2.98155 -0.00871158 0)
(2.98422 -0.00788007 0)
(2.98693 -0.00678589 0)
(2.99067 -0.00564396 0)
(3.00003 -0.00385254 0)
(3.01735 -0.00126867 0)
(3.03365 0.000572575 0)
(3.03745 0.00116967 0)
(3.03735 0.00128908 0)
(3.03704 0.00144731 0)
(3.03601 0.00157416 0)
(3.03383 0.00158415 0)
(3.0289 0.00121152 0)
(3.01854 0.000605909 0)
(3.00547 0.00014487 0)
(3.00034 8.01229e-06 0)
(3 2.40854e-08 0)
(3 -1.9255e-08 0)
(3 -1.93553e-08 0)
(3 -1.93381e-08 0)
(3 -1.75676e-08 0)
(3 -1.19076e-08 0)
(3 -3.59993e-09 0)
(3 -2.21253e-10 0)
(3 -5.50684e-13 0)
(3 5.76077e-13 0)
(3 5.52899e-13 0)
(3 4.47417e-13 0)
(3 2.04285e-13 0)
(3 2.21071e-14 0)
(3 -2.04019e-15 0)
(3 -3.02586e-15 0)
(3 -2.80856e-15 0)
(1.8297 1.13247 0)
(2.1916 1.03154 0)
(2.57347 0.676381 0)
(2.84346 0.294086 0)
(2.92562 0.267106 0)
(2.97854 0.115093 0)
(3.02624 -0.174029 0)
(3.08457 -0.212242 0)
(3.14249 -0.244736 0)
(3.11188 -0.321239 0)
(3.08654 -0.360442 0)
(3.06886 -0.384509 0)
(3.045 -0.332153 0)
(3.01943 -0.284314 0)
(2.97447 -0.206482 0)
(2.95019 -0.144115 0)
(2.94349 -0.0932087 0)
(2.88419 -0.00182194 0)
(2.8512 0.0520815 0)
(2.85263 0.0488422 0)
(2.85796 0.0329524 0)
(2.86954 0.0129009 0)
(2.86827 0.00170655 0)
(2.86326 -0.00691153 0)
(2.88183 -0.00501856 0)
(2.90371 -0.000813048 0)
(2.92522 0.0137515 0)
(2.93612 0.0260076 0)
(2.93855 0.0307511 0)
(2.92766 0.0224998 0)
(2.9148 0.00359487 0)
(2.91264 -0.00636291 0)
(2.91673 -0.0124637 0)
(2.92335 -0.01421 0)
(2.92918 -0.0100879 0)
(2.93374 -0.0011824 0)
(2.94 0.00336749 0)
(2.9525 -0.00374116 0)
(2.9306 -0.00819362 0)
(2.90821 -0.00662534 0)
(2.88634 -0.00149359 0)
(2.87043 -0.000149112 0)
(2.85657 -0.00245863 0)
(2.85614 -0.00677479 0)
(2.86894 -0.00551693 0)
(2.88112 0.00387178 0)
(2.88645 0.0142925 0)
(2.88325 0.0203503 0)
(2.87276 0.0168541 0)
(2.86232 0.000289734 0)
(2.85981 -0.0262925 0)
(2.86955 -0.054416 0)
(2.89572 -0.0717926 0)
(2.93421 -0.0674814 0)
(2.94443 -0.0480243 0)
(2.93461 -0.0365005 0)
(2.9371 -0.0322019 0)
(2.948 -0.0284129 0)
(2.96422 -0.023336 0)
(2.97127 -0.0212212 0)
(2.97496 -0.0202146 0)
(2.97855 -0.0172161 0)
(2.98088 -0.0143803 0)
(2.9838 -0.0132655 0)
(2.98634 -0.0124054 0)
(2.9889 -0.0113564 0)
(2.99323 -0.0102656 0)
(3.00306 -0.00831149 0)
(3.02055 -0.00403434 0)
(3.03547 -0.000208562 0)
(3.03842 0.00101081 0)
(3.03838 0.00130206 0)
(3.03785 0.00192692 0)
(3.03647 0.00267855 0)
(3.03382 0.00308206 0)
(3.02824 0.00302351 0)
(3.01706 0.00202815 0)
(3.00449 0.000543551 0)
(3.00024 2.72028e-05 0)
(3 7.09318e-08 0)
(3 -3.39571e-08 0)
(3 -3.34357e-08 0)
(3 -3.22811e-08 0)
(3 -2.93877e-08 0)
(3 -1.8411e-08 0)
(3 -4.56102e-09 0)
(3 -2.01982e-10 0)
(3 3.62928e-13 0)
(3 9.70684e-13 0)
(3 9.42069e-13 0)
(3 7.42612e-13 0)
(3 2.94193e-13 0)
(3 2.58976e-14 0)
(3 -1.11692e-15 0)
(3 -1.67528e-15 0)
(3 -2.08415e-15 0)
(1.72299 1.07147 0)
(2.0739 0.927237 0)
(2.35843 0.719329 0)
(2.52628 0.619389 0)
(2.67429 0.518894 0)
(2.86816 0.256464 0)
(2.95231 -0.043166 0)
(3.00563 -0.131064 0)
(3.06158 -0.126985 0)
(3.09567 -0.256192 0)
(3.10049 -0.425553 0)
(3.10554 -0.464836 0)
(3.16423 -0.40873 0)
(3.15534 -0.351096 0)
(3.11129 -0.316111 0)
(3.06818 -0.257435 0)
(3.04072 -0.192947 0)
(2.99917 -0.10314 0)
(2.96552 -0.0487329 0)
(2.94377 -0.0409822 0)
(2.90697 -0.0141942 0)
(2.91793 0.0326072 0)
(2.91976 0.0653699 0)
(2.92528 0.0671696 0)
(2.9386 0.0608584 0)
(2.96309 0.046046 0)
(2.98424 0.0255015 0)
(2.9915 0.0103148 0)
(2.98806 -0.00304032 0)
(2.98396 -0.0161365 0)
(2.9881 -0.0200661 0)
(2.9928 -0.0208586 0)
(3.00077 -0.0136553 0)
(3.00758 0.00430573 0)
(3.01389 0.0256514 0)
(3.01899 0.0343996 0)
(3.01966 0.0221288 0)
(3.02117 0.00800622 0)
(2.99388 -0.00978724 0)
(2.96215 -0.0105873 0)
(2.93772 -0.00170686 0)
(2.91541 0.00276029 0)
(2.90061 0.00204527 0)
(2.90415 -0.00636427 0)
(2.91917 -0.0153049 0)
(2.93408 -0.0165531 0)
(2.94234 -0.010403 0)
(2.94221 -0.00427784 0)
(2.93472 -0.00636946 0)
(2.92466 -0.0194629 0)
(2.91957 -0.0399079 0)
(2.92718 -0.0607023 0)
(2.95381 -0.0709393 0)
(2.98562 -0.0639608 0)
(2.97658 -0.0521399 0)
(2.96147 -0.0460518 0)
(2.96046 -0.0419858 0)
(2.96822 -0.0361082 0)
(2.97851 -0.0298905 0)
(2.98068 -0.028213 0)
(2.98206 -0.025979 0)
(2.98174 -0.0225664 0)
(2.98336 -0.0199521 0)
(2.9863 -0.0185989 0)
(2.98912 -0.0174571 0)
(2.9917 -0.0163562 0)
(2.99638 -0.0151073 0)
(3.00718 -0.011458 0)
(3.02521 -0.0050384 0)
(3.03778 -8.18325e-05 0)
(3.03935 0.00140617 0)
(3.03913 0.00189018 0)
(3.03836 0.00277365 0)
(3.03675 0.00379183 0)
(3.0337 0.00439424 0)
(3.02715 0.0041059 0)
(3.01489 0.0024513 0)
(3.00316 0.000527595 0)
(3.00012 1.82103e-05 0)
(3 -4.52833e-09 0)
(3 -4.64403e-08 0)
(3 -4.62125e-08 0)
(3 -4.53969e-08 0)
(3 -3.94375e-08 0)
(3 -2.16466e-08 0)
(3 -4.03587e-09 0)
(3 -1.0934e-10 0)
(3 1.23562e-12 0)
(3 1.39344e-12 0)
(3 1.32099e-12 0)
(3 9.44843e-13 0)
(3 3.03103e-13 0)
(3 1.80035e-14 0)
(3 -2.86916e-15 0)
(3 -2.88233e-15 0)
(3 -2.73122e-15 0)
(1.66208 1.01682 0)
(1.92194 0.946188 0)
(2.16868 0.802702 0)
(2.36575 0.665184 0)
(2.51169 0.601265 0)
(2.65764 0.481586 0)
(2.78788 0.244462 0)
(2.87246 0.0844581 0)
(2.93781 0.0592794 0)
(2.9731 -0.00249272 0)
(3.00944 -0.147753 0)
(3.04162 -0.213117 0)
(3.09378 -0.184496 0)
(3.10166 -0.218848 0)
(3.09627 -0.242124 0)
(3.10965 -0.277905 0)
(3.10182 -0.261916 0)
(3.08397 -0.227149 0)
(3.04735 -0.1772 0)
(3.01599 -0.147664 0)
(2.98632 -0.096651 0)
(2.96122 -0.0222048 0)
(2.96843 0.0278378 0)
(2.985 0.0573415 0)
(2.9918 0.061506 0)
(3.00184 0.0575252 0)
(3.01139 0.0453604 0)
(3.01305 0.0197687 0)
(3.01263 -0.00497306 0)
(3.02852 -0.0163424 0)
(3.03877 -0.0221799 0)
(3.05277 -0.0273477 0)
(3.06599 -0.0155502 0)
(3.07433 0.00275549 0)
(3.07712 0.0121059 0)
(3.07337 0.0118078 0)
(3.06799 0.00168496 0)
(3.05926 -0.0127683 0)
(3.03487 -0.0226893 0)
(2.99947 -0.0120525 0)
(2.97555 0.00275577 0)
(2.95903 0.0118878 0)
(2.95302 0.0111972 0)
(2.96022 0.0032415 0)
(2.97288 -0.00457227 0)
(2.98379 -0.00849303 0)
(2.98892 -0.00617106 0)
(2.98735 -0.0030052 0)
(2.98069 -0.00592334 0)
(2.97306 -0.0171305 0)
(2.97162 -0.0337338 0)
(2.98324 -0.0500647 0)
(3.00634 -0.0606958 0)
(3.01506 -0.0675733 0)
(2.99584 -0.0635496 0)
(2.98541 -0.0560106 0)
(2.98653 -0.0473872 0)
(2.9923 -0.0376943 0)
(2.99402 -0.0338375 0)
(2.993 -0.031488 0)
(2.98831 -0.0280924 0)
(2.98484 -0.0256782 0)
(2.98695 -0.0244585 0)
(2.98952 -0.0234481 0)
(2.99201 -0.021837 0)
(2.99498 -0.0201721 0)
(3.001 -0.0176487 0)
(3.01286 -0.0120585 0)
(3.03076 -0.00401337 0)
(3.04008 0.000869345 0)
(3.0405 0.0021508 0)
(3.0401 0.00287407 0)
(3.0391 0.00392499 0)
(3.03722 0.00516272 0)
(3.03365 0.00589548 0)
(3.02575 0.00522428 0)
(3.01207 0.00261415 0)
(3.00182 0.000387872 0)
(3.00004 7.32807e-06 0)
(3 -5.34532e-08 0)
(3 -6.09146e-08 0)
(3 -6.07864e-08 0)
(3 -5.89349e-08 0)
(3 -4.68359e-08 0)
(3 -2.02821e-08 0)
(3 -2.37695e-09 0)
(3 -2.96029e-11 0)
(3 1.80146e-12 0)
(3 1.80027e-12 0)
(3 1.64189e-12 0)
(3 9.97041e-13 0)
(3 2.12605e-13 0)
(3 6.93698e-15 0)
(3 -2.47076e-16 0)
(3 -1.43267e-15 0)
(3 -1.70577e-15 0)
(1.63432 0.971868 0)
(1.85563 0.903422 0)
(2.03882 0.83027 0)
(2.20107 0.765073 0)
(2.38622 0.661194 0)
(2.568 0.498498 0)
(2.66199 0.341961 0)
(2.70928 0.30961 0)
(2.75075 0.311454 0)
(2.87368 0.170873 0)
(2.94953 -0.0317161 0)
(2.9852 -0.108173 0)
(3.01758 -0.0896311 0)
(3.05108 -0.148501 0)
(3.08456 -0.262788 0)
(3.09285 -0.326599 0)
(3.1194 -0.315216 0)
(3.10399 -0.258658 0)
(3.09309 -0.243766 0)
(3.07049 -0.223853 0)
(3.04835 -0.169462 0)
(3.02252 -0.0905579 0)
(3.01603 -0.0439107 0)
(3.02044 -0.0115503 0)
(3.02272 0.00277196 0)
(3.02255 0.00544405 0)
(3.01921 0.013304 0)
(3.01671 0.0156181 0)