/*--------------------------------*- C++ -*----------------------------------*\
  =========                 |
  \\      /  F ield         | OpenFOAM: The Open Source CFD Toolbox
   \\    /   O peration     | Website:  https://openfoam.org
    \\  /    A nd           | Version:  7
     \\/     M anipulation  |
\*---------------------------------------------------------------------------*/
FoamFile
{
    version     2.0;
    format      ascii;
    class       surfaceScalarField;
    location    "60";
    object      phi;
}
// * * * * * * * * * * * * * * * * * * * * * * * * * * * * * * * * * * * * * //

dimensions      [0 3 -1 0 0 0 0];

internalField   nonuniform List<scalar> 
3879
(
0.000255243
0.00663346
0.000229762
0.00691407
0.000202389
0.00720816
0.00751489
0.000348666
0.00665247
0.000328057
0.00693468
0.000305753
0.00723046
0.00753907
0.000281572
0.000442643
0.00666677
0.000426918
0.00695041
0.000409651
0.00724773
0.00755803
0.000390693
0.000537104
0.00667637
0.000526265
0.00696124
0.000514054
0.00725994
0.00757176
0.000500326
0.000636862
0.00640935
0.000631986
0.00668124
0.000626043
0.00696719
0.00061891
0.00726707
0.00758024
0.000610423
0.000727382
0.00640868
0.000727228
0.0066814
0.000726191
0.00696822
0.000724153
0.00726911
0.00758347
0.000720923
0.000818199
0.00640347
0.000822772
0.00667682
0.000826647
0.00696435
0.000829717
0.00726604
0.00758143
0.00083176
0.000909253
0.000918553
0.00666752
0.000927344
0.00695556
0.000935532
0.00725785
0.00757409
0.00094287
0.00101451
0.0066535
0.00102822
0.00694185
0.00104153
0.00724454
0.00756145
0.00105417
0.00111057
0.00663475
0.0011292
0.00692323
0.00114764
0.00722609
0.00754349
0.0011656
0.00120669
0.0066113
0.00123022
0.0068997
0.00125379
0.00720252
0.00752021
0.00127706
0.00130278
0.00658314
0.00133121
0.00687127
0.0013599
0.00717383
0.00749163
0.00138848
0.00139879
0.0065503
0.0014321
0.00683796
0.00146591
0.00714002
0.00745775
0.00149979
0.00149464
0.00651279
0.00153283
0.00679977
0.00157174
0.00710111
0.00741859
0.0016109
0.00159028
0.00647063
0.00163331
0.00675674
0.00167731
0.00705711
0.00737416
0.00172174
0.00168564
0.00642383
0.0017335
0.00670888
0.00178256
0.00700805
0.0073245
0.00183223
0.00178064
0.0018333
0.00665623
0.00188741
0.00695394
0.00726961
0.00194229
0.00193265
0.00659879
0.00199178
0.00689481
0.00720953
0.00205185
0.00203148
0.00653661
0.0020956
0.00683069
0.0071443
0.00216083
0.00212971
0.0064697
0.00219879
0.00676161
0.00707394
0.00226915
0.00222727
0.00639807
0.00230128
0.0066876
0.00699848
0.00237674
0.00232406
0.00240298
0.00660868
0.00691796
0.0024835
0.00250381
0.00652485
0.0068324
0.00258937
0.00260367
0.00643608
0.00674181
0.00269426
0.00270243
0.00664619
0.00279805
0.00654547
0.00290065
0.00643953
0.00300189
0.00310158
0.000698953
-0.00461739
0.00463936
0.000676819
-0.00477408
0.00479621
0.000654823
-0.00493664
0.00495864
0.000633168
-0.00510614
0.00512779
0.000611851
-0.00528267
0.00530399
0.000590848
-0.00546627
0.00548727
0.000570104
-0.00565678
0.00567753
0.000549592
-0.0058543
0.00587481
0.000529304
-0.00605898
0.00607927
0.000509236
-0.00627103
0.00629109
0.000489391
-0.00649066
0.00651051
0.00046977
-0.00671814
0.00673776
0.000450362
-0.00695367
0.00697307
0.000431179
-0.00719759
0.00721677
0.00041223
-0.00745018
0.00746913
0.000393515
-0.00771171
0.00773043
0.000375037
-0.0079825
0.00800097
0.000356795
-0.00826285
0.00828109
0.00033879
-0.0085531
0.0085711
0.000321021
-0.00885359
0.00887136
0.000303486
-0.00916469
0.00918222
0.000286186
-0.00948677
0.00950407
0.000269109
-0.00982024
0.00983732
0.00025224
-0.0101654
0.0101823
0.000235586
-0.0105229
0.0105395
0.000219142
-0.0108931
0.0109095
0.000202898
-0.0112764
0.0112927
0.000186839
-0.0116735
0.0116896
0.000170951
-0.0120848
0.0121007
0.000155219
-0.012511
0.0125267
0.000139623
-0.0129526
0.0129682
0.000124139
-0.0134103
0.0134258
0.000108743
-0.0138849
0.0139002
9.34012e-05
-0.014377
0.0143924
7.80793e-05
-0.0148876
0.014903
6.27344e-05
-0.0154176
0.0154329
4.73162e-05
-0.0159678
0.0159832
3.17686e-05
-0.0165394
0.0165549
1.60127e-05
-0.0171334
0.0171491
-0.017751
0.017767
0.000589397
-0.00459636
0.000568309
-0.00475299
0.000547484
-0.00491582
0.000527097
-0.00508575
0.000507097
-0.00526267
0.000487477
-0.00544664
0.000468184
-0.00563749
0.000449197
-0.00583531
0.000430511
-0.0060403
0.000412125
-0.00625264
0.000394044
-0.00647258
0.000376268
-0.00670036
0.000358788
-0.00693619
0.000341616
-0.00718042
0.000324764
-0.00743333
0.000308235
-0.00769518
0.000292032
-0.00796629
0.000276157
-0.00824697
0.000260611
-0.00853755
0.000245397
-0.00883838
0.000230516
-0.00914981
0.000215972
-0.00947223
0.000201746
-0.00980601
0.000187841
-0.0101515
0.000174246
-0.0105093
0.000160977
-0.0108798
0.000148021
-0.0112635
0.000135368
-0.0116608
0.000123006
-0.0120725
0.000110924
-0.0124989
9.91039e-05
-0.0129407
8.75286e-05
-0.0133987
7.6176e-05
-0.0138735
6.50199e-05
-0.0143659
5.40292e-05
-0.0148767
4.31668e-05
-0.0154067
3.23883e-05
-0.015957
2.16443e-05
-0.0165287
1.08614e-05
-0.0171226
-0.0177401
0.000480241
-0.00457628
0.000460196
-0.00473295
0.000440538
-0.00489616
0.000421399
-0.00506661
0.0004027
-0.00524397
0.000384447
-0.00542839
0.00036659
-0.00561963
0.000349112
-0.00581784
0.000332012
-0.0060232
0.000315297
-0.00623592
0.000298971
-0.00645625
0.000283029
-0.00668442
0.000267468
-0.00692063
0.000252296
-0.00716524
0.000237527
-0.00741856
0.000223172
-0.00768083
0.000209234
-0.00795235
0.000195716
-0.00823345
0.000182622
-0.00852446
0.000169953
-0.00882571
0.000157717
-0.00913757
0.000145922
-0.00946043
0.000134552
-0.00979464
0.000123587
-0.0101405
0.000113045
-0.0104988
0.000102944
-0.0108697
9.32706e-05
-0.0112538
8.40162e-05
-0.0116516
7.5173e-05
-0.0120636
6.67317e-05
-0.0124904
5.86808e-05
-0.0129327
5.10059e-05
-0.013391
4.36892e-05
-0.0138662
3.67094e-05
-0.0143589
3.00402e-05
-0.01487
2.365e-05
-0.0154003
1.75e-05
-0.0159509
1.15474e-05
-0.0165227
5.72233e-06
-0.0171167
-0.0177344
0.000371537
-0.00455712
0.000352538
-0.00471395
0.000334042
-0.00487766
0.000316123
-0.00504869
0.000298721
-0.00522657
0.000281813
-0.00541148
0.000265365
-0.00560318
0.000249375
-0.00580185
0.000233846
-0.00600767
0.000218786
-0.00622087
0.000204207
-0.00644167
0.000190098
-0.00667031
0.00017644
-0.00690697
0.000163242
-0.00715205
0.000150539
-0.00740586
0.000138346
-0.00766864
0.000126663
-0.00794067
0.000115492
-0.00822228
0.000104838
-0.0085138
9.47055e-05
-0.00881558
8.51019e-05
-0.00912796
7.60332e-05
-0.00945136
6.75522e-05
-0.00978616
5.9472e-05
-0.0101324
5.19844e-05
-0.0104913
4.50439e-05
-0.0108628
3.86436e-05
-0.0112474
3.27779e-05
-0.0116457
2.74431e-05
-0.0120583
2.26333e-05
-0.0124856
1.83408e-05
-0.0129284
1.45556e-05
-0.0133872
1.12641e-05
-0.0138629
8.44951e-06
-0.0143561
6.0905e-06
-0.0148676
4.16246e-06
-0.0153984
2.62568e-06
-0.0159493
1.46338e-06
-0.0165215
5.65068e-07
-0.0171158
-0.0177338
0.000263334
0.000245372
0.000228035
0.000211345
0.000195194
0.000179567
0.000164495
0.000149972
0.000135994
-0.00599369
0.000122569
-0.00620744
0.00010971
-0.00642882
9.74609e-05
-0.00665806
8.56514e-05
-0.00689516
7.43774e-05
-0.00714077
6.37217e-05
-0.0073952
5.36685e-05
-0.00765858
4.42124e-05
-0.00793122
3.53554e-05
-0.00821343
2.71015e-05
-0.00850555
1.94533e-05
-0.00880793
1.24095e-05
-0.00912092
5.96108e-06
-0.00944492
-8.53792e-08
-0.00978012
-4.77988e-06
-0.0101277
-9.07871e-06
-0.010487
-1.27776e-05
-0.0108591
-1.58557e-05
-0.0112443
-1.83007e-05
-0.0116433
-2.01073e-05
-0.0120565
-2.1274e-05
-0.0124845
-2.18028e-05
-0.0129279
-2.16987e-05
-0.0133874
-2.097e-05
-0.0138636
-1.96283e-05
-0.0143574
-1.76897e-05
-0.0148696
-1.51754e-05
-0.0154009
-1.21127e-05
-0.0159524
-8.53318e-06
-0.0165251
-4.49583e-06
-0.0171199
-0.0177383
3.81196e-05
2.61955e-05
1.48467e-05
3.98929e-06
-5.72571e-06
-1.46092e-05
-2.29463e-05
-3.06719e-05
-3.77545e-05
-4.41716e-05
-4.9906e-05
-5.49428e-05
-5.92669e-05
-6.28839e-05
-6.56697e-05
-6.79119e-05
-6.92991e-05
-6.9945e-05
-6.98275e-05
-6.89454e-05
-6.72963e-05
-6.48787e-05
-6.16927e-05
-5.77411e-05
-5.30284e-05
-4.75633e-05
-4.13568e-05
-3.44269e-05
-2.67929e-05
-1.84883e-05
-9.552e-06
0.000808845
0.00466227
0.000785666
0.00481939
0.000762496
0.00498181
0.000739564
0.00515073
0.000716907
0.00532665
0.000694502
0.00550967
0.000672292
0.00569974
0.000650244
0.00589686
0.000628341
0.00610117
0.000606581
0.00631285
0.000584961
0.00653213
0.000563483
0.00675924
0.000542139
0.00699442
0.000520936
0.00723797
0.00049988
0.00749019
0.000478971
0.00775134
0.000458208
0.00802174
0.000437591
0.00830171
0.000417118
0.00859157
0.000396786
0.00889169
0.000376591
0.00920242
0.000356529
0.00952413
0.000336594
0.00985725
0.000316759
0.0102021
0.000297035
0.0105593
0.000277411
0.0109291
0.000257872
0.0113122
0.000238402
0.011709
0.000218983
0.0121201
0.000199597
0.0125461
0.000180218
0.0129875
0.00016082
0.0134452
0.000141372
0.0139197
0.000121839
0.0144119
0.000102179
0.0149226
8.23434e-05
0.0154528
6.22769e-05
0.0160033
4.1916e-05
0.0165753
2.11759e-05
0.0171698
0.0177882
0.000919013
0.00468613
0.000894791
0.00484361
0.000870449
0.00500615
0.000846232
0.00517494
0.000822216
0.00535066
0.00079839
0.0055335
0.000774699
0.00572343
0.000751101
0.00592046
0.000727574
0.0061247
0.000704111
0.00633632
0.000680707
0.00655553
0.000657363
0.00678258
0.000634074
0.00701771
0.000610842
0.00726121
0.00058767
0.00751336
0.000564558
0.00777445
0.000541503
0.00804479
0.000518504
0.0083247
0.000495556
0.00861452
0.000472655
0.00891459
0.000449794
0.00922528
0.000426966
0.00954696
0.000404164
0.00988005
0.000381361
0.0102249
0.000358562
0.0105821
0.000335753
0.010952
0.000312914
0.0113351
0.000290029
0.0117319
0.000267075
0.0121431
0.00024403
0.0125691
0.000220865
0.0130107
0.000197549
0.0134685
0.000174047
0.0139432
0.000150317
0.0144356
0.000126314
0.0149466
0.000101982
0.0154771
7.72615e-05
0.016028
5.2081e-05
0.0166005
2.63479e-05
0.0171956
0.0178145
0.00102938
0.00471093
0.00100412
0.00486887
0.000978606
0.00503166
0.0009531
0.00520045
0.000927712
0.00537605
0.000902447
0.00555876
0.000877258
0.00574862
0.000852097
0.00594562
0.000826936
0.00614986
0.00080176
0.00636149
0.000776564
0.00658073
0.000751347
0.0068078
0.000726103
0.00704295
0.000700834
0.00728648
0.00067554
0.00753865
0.000650219
0.00779977
0.000624866
0.00807014
0.000599479
0.00835009
0.000574051
0.00863995
0.000548576
0.00894007
0.000523044
0.00925081
0.000497448
0.00957256
0.000471775
0.00990573
0.000446001
0.0102507
0.000420124
0.0106079
0.000394126
0.010978
0.000367987
0.0113612
0.000341684
0.0117582
0.000315194
0.0121696
0.000288489
0.0125958
0.000261536
0.0130376
0.000234301
0.0134957
0.000206743
0.0139708
0.000178815
0.0144636
0.000150467
0.014975
0.000121638
0.0155059
9.22599e-05
0.0160574
6.22561e-05
0.0166305
3.1526e-05
0.0172263
0.017846
0.00113986
0.00473666
0.00111357
0.00489517
0.00108689
0.00505833
0.0010601
0.00522725
0.00103332
0.00540282
0.0010066
0.00558548
0.000979901
0.00577532
0.000953164
0.00597236
0.000926357
0.00617667
0.00089946
0.00638839
0.000872465
0.00660772
0.000845369
0.00683489
0.000818165
0.00707016
0.000790852
0.00731379
0.00076343
0.00756607
0.000735894
0.00782731
0.00070824
0.0080978
0.00068046
0.00837787
0.000652549
0.00866786
0.000624497
0.00896812
0.000596293
0.00927901
0.000567925
0.00960092
0.00053938
0.00993427
0.000510634
0.0102794
0.000481678
0.0106369
0.000452492
0.0110071
0.000423052
0.0113906
0.000393333
0.0117879
0.000363307
0.0121996
0.000332943
0.0126262
0.000302204
0.0130684
0.00027105
0.0135269
0.000239437
0.0140024
0.000207314
0.0144957
0.000174622
0.0150077
0.000141296
0.0155393
0.000107261
0.0160914
7.24344e-05
0.0166653
3.67062e-05
0.017262
0.0178827
0.00125038
0.00476334
0.00122305
0.0049225
0.00119523
0.00508616
0.00116714
0.00525533
0.00113898
0.00543099
0.00111079
0.00561367
0.00108256
0.00580355
0.00105423
0.00600068
0.00102577
0.00620513
0.000997145
0.00641701
0.000968345
0.00663652
0.000939363
0.00686388
0.000910194
0.00709933
0.000880834
0.00734315
0.000851279
0.00759563
0.000821525
0.00785706
0.000791566
0.00812776
0.000761392
0.00840804
0.000730995
0.00869826
0.000700365
0.00899875
0.000669488
0.00930989
0.000638349
0.00963206
0.000606933
0.00996569
0.000575215
0.0103111
0.000543182
0.0106689
0.000510809
0.0110395
0.00047807
0.0114234
0.000444938
0.0118211
0.00041138
0.0122331
0.00037736
0.0126602
0.000342838
0.0131029
0.000307771
0.0135619
0.000272108
0.014038
0.000235792
0.014532
0.000198761
0.0150447
0.000160942
0.0155771
0.000122255
0.0161301
8.26085e-05
0.016705
4.18851e-05
0.0173028
0.0179246
0.00136086
0.00479097
0.0013325
0.00495085
0.00130353
0.00511514
0.00127417
0.00528469
0.0012446
0.00546056
0.00121493
0.00564334
0.00118516
0.00583332
0.00115523
0.00603061
0.00112511
0.00623526
0.00109475
0.00644737
0.00106414
0.00666713
0.00103327
0.00689475
0.00100213
0.00713046
0.000970716
0.00737456
0.000939027
0.00762732
0.000907053
0.00788903
0.000874787
0.00816002
0.000842218
0.00844061
0.000809337
0.00873114
0.000776129
0.00903196
0.000742579
0.00934344
0.000708671
0.00966597
0.000674387
0.00999997
0.0006397
0.0103458
0.000604592
0.010704
0.000569037
0.0110751
0.000533005
0.0114594
0.000496464
0.0118576
0.000459379
0.0122702
0.000421709
0.0126979
0.000383412
0.0131412
0.000344438
0.0136009
0.000304731
0.0140777
0.00026423
0.0145725
0.000222867
0.0150861
0.000180563
0.0156194
0.00013723
0.0161734
9.27709e-05
0.0167494
4.70587e-05
0.0173485
0.0179717
0.00147121
0.00481954
0.00144183
0.00498023
0.00141172
0.00514524
0.00138109
0.00531532
0.00135013
0.00549152
0.00131897
0.0056745
0.00128764
0.00586465
0.0012561
0.00606215
0.0012243
0.00626706
0.0011922
0.00647947
0.00115977
0.00669956
0.00112701
0.00692751
0.0010939
0.00716357
0.00106044
0.00740802
0.00102661
0.00766114
0.000992418
0.00792323
0.000957845
0.0081946
0.000922883
0.00847558
0.000887518
0.0087665
0.000851735
0.00906774
0.000815516
0.00937966
0.000778843
0.00970264
0.000741695
0.0100371
0.000704044
0.0103835
0.000665867
0.0107422
0.000627135
0.0111138
0.000587816
0.0114987
0.000547874
0.0118976
0.00050727
0.0123108
0.00046596
0.0127392
0.000423896
0.0131833
0.000381024
0.0136438
0.000337284
0.0141215
0.000292609
0.0146172
0.000246924
0.0151317
0.000200145
0.0156662
0.000152177
0.0162214
0.000102915
0.0167987
5.22235e-05
0.0173992
0.0180239
0.00158136
0.00484908
0.00155095
0.00501064
0.00151972
0.00517647
0.00148784
0.00534721
0.00145549
0.00552387
0.00142283
0.00570715
0.00138993
0.00589755
0.00135676
0.00609531
0.00132328
0.00630054
0.00128943
0.00651332
0.00125519
0.0067338
0.00122053
0.00696217
0.00118545
0.00719866
0.00114993
0.00744354
0.00111397
0.0076971
0.00107756
0.00795964
0.00104068
0.00823147
0.00100333
0.00851293
0.000965485
0.00880435
0.000927131
0.0091061
0.000888248
0.00941854
0.000848815
0.00974208
0.00080881
0.0100771
0.000768201
0.0104241
0.000726963
0.0107835
0.000685064
0.0111557
0.000642467
0.0115413
0.000599134
0.0119409
0.000555021
0.0123549
0.000510081
0.0127841
0.000464262
0.0132291
0.000417504
0.0136905
0.000369743
0.0141692
0.000320906
0.014666
0.000270914
0.0151817
0.000219674
0.0157174
0.000167083
0.016274
0.000113032
0.0168527
5.73757e-05
0.0174548
0.0180813
0.00169123
0.0048796
0.00165979
0.00504208
0.00162745
0.00520881
0.00159432
0.00538034
0.00156059
0.0055576
0.00152644
0.00574131
0.00149196
0.00593203
0.00145716
0.00613012
0.00142198
0.00633572
0.00138638
0.00654892
0.00135032
0.00676986
0.00131377
0.00699872
0.00127671
0.00723571
0.00123914
0.00748111
0.00120105
0.00773519
0.00116242
0.00799827
0.00112324
0.00827065
0.0010835
0.00855267
0.00104318
0.00884467
0.00100226
0.00914702
0.000960724
0.00946008
0.000918539
0.00978426
0.000875684
0.01012
0.000832126
0.0104676
0.000787837
0.0108277
0.00074278
0.0112008
0.000696917
0.0115872
0.000650205
0.0119876
0.000602597
0.0124026
0.000554041
0.0128327
0.00050448
0.0132787
0.000453852
0.0137412
0.000402086
0.014221
0.000349104
0.014719
0.000294819
0.015236
0.000239135
0.0157731
0.00018194
0.0163312
0.000123117
0.0169116
6.25114e-05
0.0175154
0.0181438
0.00180073
0.0049111
0.00176826
0.00507455
0.00173482
0.00524226
0.00170047
0.00541468
0.00166538
0.00559269
0.00162973
0.00577695
0.00159367
0.00596809
0.00155722
0.00616657
0.00152034
0.00637259
0.00148298
0.00658628
0.00144509
0.00680775
0.00140665
0.00703716
0.00136762
0.00727474
0.001328
0.00752073
0.00128778
0.00777542
0.00124694
0.00803911
0.00120547
0.00831212
0.00116335
0.00859479
0.00112056
0.00888746
0.00107708
0.00919049
0.00103289
0.00950427
0.000987965
0.00982919
0.000942271
0.0101657
0.000895775
0.0105141
0.000848447
0.0108751
0.000800245
0.011249
0.000751129
0.0116363
0.000701052
0.0120377
0.000649963
0.0124536
0.000597808
0.0128848
0.000544523
0.0133319
0.000490042
0.0137957
0.000434289
0.0142768
0.00037718
0.0147761
0.000318623
0.0152946
0.000258514
0.0158332
0.000196735
0.016393
0.00013316
0.0169751
6.7627e-05
0.017581
0.0182114
0.0019098
0.00494359
0.00187628
0.00510806
0.00184174
0.0052768
0.00180619
0.00545023
0.00176976
0.00562913
0.00173263
0.00581407
0.00169499
0.00600574
0.00165688
0.00620468
0.00161829
0.00641118
0.00157916
0.00662541
0.00153945
0.00684747
0.00149911
0.00707751
0.00145812
0.00731573
0.00141645
0.00756239
0.00137411
0.00781776
0.00133106
0.00808215
0.0012873
0.00835588
0.00124281
0.00863929
0.00119756
0.00893271
0.00115153
0.00923652
0.0011047
0.0095511
0.00105704
0.00987685
0.00100852
0.0102142
0.000959102
0.0105636
0.000908748
0.0109254
0.000857416
0.0113003
0.000805063
0.0116887
0.000751638
0.0120911
0.000697087
0.0125082
0.00064135
0.0129406
0.000584361
0.0133889
0.000526047
0.013854
0.000466328
0.0143365
0.000405115
0.0148373
0.000342308
0.0153574
0.000277798
0.0158977
0.000211458
0.0164593
0.000143156
0.0170434
7.27188e-05
0.0176514
0.0182841
0.00201835
0.0049771
0.00198378
0.00514263
0.00194814
0.00531244
0.00191141
0.00548696
0.00187365
0.00566688
0.00183507
0.00585266
0.00179584
0.00604497
0.00175607
0.00624445
0.00171576
0.00645149
0.00167486
0.00666631
0.00163332
0.00688901
0.00159109
0.00711974
0.00154813
0.00735869
0.00150443
0.00760609
0.00145996
0.00786223
0.00141472
0.0081274
0.00136868
0.00840193
0.00132182
0.00868614
0.00127412
0.00898041
0.00122556
0.00928508
0.0011761
0.00960056
0.00112573
0.00992723
0.00107439
0.0102655
0.00102206
0.0106159
0.000968697
0.0109788
0.000914253
0.0113547
0.000858681
0.0117442
0.000801928
0.0121479
0.000743934
0.0125662
0.000684637
0.0129999
0.000623965
0.0134496
0.000561842
0.0139161
0.000498181
0.0144001
0.000432888
0.0149026
0.000365857
0.0154244
0.000296972
0.0159666
0.000226099
0.0165302
0.000153096
0.0171164
7.7783e-05
0.0177267
0.0183619
0.0021263
0.00501163
0.00209066
0.00517827
0.00205393
0.00534918
0.00201603
0.00552486
0.00197698
0.00570593
0.00193695
0.00589269
0.00189615
0.00608577
0.00185472
0.00628588
0.00181269
0.00649353
0.00177002
0.00670898
0.00172664
0.00693238
0.00168252
0.00716387
0.0016376
0.0074036
0.00159186
0.00765182
0.00154529
0.0079088
0.00149786
0.00817483
0.00144955
0.00845024
0.00140033
0.00873536
0.0013502
0.00903054
0.00129911
0.00933617
0.00124704
0.00965262
0.00119396
0.00998031
0.00113983
0.0103197
0.00108461
0.0106711
0.00102825
0.0110352
0.000970715
0.0114123
0.000911944
0.011803
0.000851884
0.0122079
0.00079047
0.0126276
0.000727636
0.0130627
0.000663307
0.0135139
0.0005974
0.013982
0.000529824
0.0144677
0.000460479
0.014972
0.000389253
0.0154956
0.000316023
0.0160398
0.000240646
0.0166056
0.000162974
0.0171941
8.28159e-05
0.0178069
0.0184447
0.00223358
0.0050472
0.00219686
0.00521499
0.00215902
0.00538701
0.00211997
0.00556391
0.00207966
0.00574624
0.00203821
0.00593413
0.00199586
0.00612812
0.00195277
0.00632897
0.00190901
0.00653729
0.00186455
0.00675344
0.00181935
0.00697759
0.00177333
0.00720988
0.00172646
0.00745047
0.0016787
0.00769958
0.00163003
0.00795748
0.00158042
0.00822444
0.00152984
0.00850081
0.00147829
0.00878691
0.00142573
0.0090831
0.00137214
0.00938976
0.00131747
0.00970729
0.0012617
0.0100361
0.00120479
0.0103766
0.0011467
0.0107292
0.00108737
0.0110945
0.00102676
0.0114729
0.000964814
0.011865
0.00090147
0.0122713
0.000836661
0.0126924
0.000770317
0.0131291
0.000702357
0.0135819
0.000632695
0.0140517
0.000561234
0.0145392
0.000487868
0.0150453
0.000412478
0.015571
0.000334935
0.0161174
0.000255089
0.0166854
0.000172781
0.0172764
8.78136e-05
0.0178918
0.0185325
0.00234012
0.00508382
0.0023023
0.00525281
0.00226335
0.00542596
0.00222315
0.0056041
0.0021816
0.0057878
0.00213877
0.00597696
0.00209489
0.006172
0.00205015
0.0063737
0.00200466
0.00658278
0.00195842
0.00679968
0.00191138
0.00702463
0.00186347
0.00725778
0.00181465
0.00749929
0.00176488
0.00774936
0.00171411
0.00800824
0.00166233
0.00827622
0.00160952
0.00855362
0.00155564
0.00884079
0.00150067
0.00913807
0.00144458
0.00944585
0.00138734
0.00976453
0.0013289
0.0100945
0.00126923
0.0104362
0.00120828
0.0107902
0.00114601
0.0111568
0.00108235
0.0115365
0.00101725
0.01193
0.00095065
0.0123379
0.000882474
0.0127606
0.000812648
0.0131989
0.000741087
0.0136534
0.000667701
0.014125
0.000592387
0.0146145
0.000515034
0.0151227
0.000435516
0.0156506
0.000353696
0.0161992
0.000269417
0.0167697
0.000182512
0.0173633
9.27727e-05
0.0179816
0.0186253
0.00244583
0.0051215
0.0024069
0.00529174
0.00236683
0.00546603
0.00232549
0.00564545
0.00228271
0.00583058
0.00223853
0.00602114
0.00219315
0.00621738
0.00214679
0.00642007
0.00209957
0.00663
0.00205154
0.00684771
0.00200266
0.00707351
0.00195287
0.00730757
0.00190211
0.00755005
0.00185033
0.00780115
0.00179748
0.00806108
0.00174355
0.00833015
0.00168851
0.00860867
0.00163232
0.00889697
0.00157496
0.00919543
0.00151639
0.00950442
0.00145659
0.00982434
0.00139551
0.0101556
0.0013331
0.0104986
0.00126932
0.0108539
0.00120412
0.011222
0.00113744
0.0116032
0.00106922
0.0119983
0.000999387
0.0124077
0.000927874
0.0128321
0.000854597
0.0132722
0.000779469
0.0137286
0.000702393
0.0142021
0.000623261
0.0146936
0.000541957
0.015204
0.000458348
0.0157342
0.000372291
0.0162852
0.000283619
0.0168584
0.000192157
0.0174548
9.76891e-05
0.018076
0.018723
0.00255064
0.00516023
0.00251059
0.00533179
0.00246939
0.00550723
0.0024269
0.00568793
0.00238291
0.00587457
0.00233742
0.00606664
0.00229057
0.00626422
0.00224261
0.00646803
0.00219368
0.00667892
0.00214386
0.00689753
0.00209314
0.00712423
0.00204147
0.00735924
0.00198877
0.00760275
0.00193499
0.00785493
0.00188008
0.00811599
0.00182401
0.00838622
0.00176675
0.00866593
0.00170827
0.00895545
0.00164854
0.00925516
0.00158752
0.00956544
0.00152518
0.00988668
0.00146147
0.0102193
0.00139635
0.0105638
0.00132977
0.0109205
0.00126167
0.0112901
0.00119199
0.0116729
0.00112068
0.0120696
0.00104765
0.0124807
0.000972828
0.0129069
0.000896134
0.0133488
0.000817474
0.0138072
0.000736744
0.0142828
0.000653833
0.0147765
0.000568617
0.0152892
0.000480959
0.0158218
0.000390706
0.0163755
0.000297685
0.0169514
0.000201712
0.0175508
0.000102559
0.0181752
0.0188256
0.00265447
0.00520002
0.0026133
0.00537296
0.00257095
0.00554958
0.00252731
0.00573157
0.00248213
0.00591975
0.00243534
0.00611343
0.00238707
0.00631249
0.00233753
0.00651757
0.00228691
0.00672955
0.00223531
0.00694912
0.00218276
0.00717678
0.00212921
0.0074128
0.00207458
0.00765738
0.00201881
0.0079107
0.00196185
0.00817295
0.00190366
0.00844441
0.0018442
0.00872539
0.00178345
0.00901621
0.00172136
0.00931725
0.00165791
0.00962889
0.00159305
0.00995154
0.00152674
0.0102856
0.00145893
0.0106316
0.00138957
0.0109899
0.00131861
0.011361
0.00124597
0.0117455
0.00117159
0.012144
0.00109539
0.0125569
0.0010173
0.012985
0.000937228
0.0134289
0.000855073
0.0138894
0.000770729
0.0143672
0.00068408
0.0148632
0.000594995
0.0153783
0.00050333
0.0159135
0.000408927
0.0164699
0.000311604
0.0170487
0.000211167
0.0176512
0.00010738
0.018279
0.0189329
0.00275723
0.00524084
0.00271494
0.00541525
0.00267145
0.00559307
0.00262665
0.00577638
0.00258027
0.00596613
0.00253221
0.00616149
0.00248256
0.00636214
0.00243149
0.00656864
0.0023792
0.00678184
0.00232584
0.00700249
0.00227145
0.00723116
0.00221602
0.00746823
0.00215946
0.00771393
0.00210172
0.00796844
0.00204272
0.00823195
0.00198242
0.00850471
0.00192079
0.00878702
0.00185778
0.00907922
0.00179337
0.00938166
0.00172751
0.00969475
0.00166016
0.0100189
0.00159128
0.0103545
0.00152081
0.010702
0.0014487
0.011062
0.00137489
0.0114348
0.00129932
0.0118211
0.00122191
0.0122214
0.00114259
0.0126362
0.00106126
0.0130663
0.000977848
0.0135123
0.000892238
0.013975
0.000804322
0.0144551
0.000713978
0.0149535
0.000621069
0.0154712
0.000525446
0.0160091
0.000426941
0.0165684
0.000325365
0.0171503
0.000220515
0.017756
0.000112147
0.0183874
0.0190451
0.00285884
0.00528266
0.00281545
0.00545864
0.00277081
0.00563771
0.00272483
0.00582235
0.00267725
0.00601371
0.00262795
0.00621079
0.00257696
0.00641313
0.0025244
0.00662119
0.00247048
0.00683576
0.00241536
0.00705761
0.00235915
0.00728737
0.00230184
0.00752554
0.00224337
0.0077724
0.00218366
0.00802815
0.00212264
0.00829297
0.00206026
0.00856709
0.00199647
0.00885081
0.00193123
0.00914445
0.00186451
0.00944838
0.00179627
0.00976299
0.00172645
0.0100887
0.00165502
0.0104259
0.00158192
0.0107751
0.0015071
0.0111368
0.00143049
0.0115114
0.00135202
0.0118996
0.00127161
0.0123018
0.0011892
0.0127187
0.00110468
0.0131508
0.00101796
0.0135991
0.000928942
0.014064
0.000837498
0.0145466
0.000743506
0.0150475
0.000646822
0.0155679
0.000547289
0.0161086
0.000444734
0.016671
0.000338959
0.0172561
0.000229751
0.0178653
0.000116857
0.0185002
0.019162
0.00295917
0.00532538
0.00291473
0.00550308
0.00286895
0.00568348
0.0028218
0.0058695
0.00277302
0.00606249
0.00272249
0.00626133
0.00267018
0.00646544
0.00261619
0.00667519
0.00256066
0.00689129
0.00250382
0.00711445
0.0024458
0.00734539
0.00238663
0.00758472
0.00232624
0.00783279
0.00226458
0.00808982
0.00220155
0.008356
0.0021371
0.00863155
0.00207118
0.00891674
0.00200373
0.0092119
0.00193473
0.00951739
0.00186413
0.0098336
0.00179188
0.0101609
0.00171794
0.0104999
0.00164224
0.0108508
0.00156473
0.0112143
0.00148535
0.0115908
0.00140401
0.0119809
0.00132066
0.0123851
0.00123519
0.0128041
0.00114752
0.0132385
0.00105754
0.013689
0.000965156
0.0141564
0.000870232
0.0146415
0.00077264
0.0151451
0.000672232
0.0156683
0.000568843
0.016212
0.000462292
0.0167775
0.000352374
0.017366
0.000238866
0.0179788
0.000121506
0.0186176
0.0192835
0.0030581
0.00536886
0.00301269
0.00554849
0.00296581
0.00573036
0.00291747
0.00591784
0.00286747
0.00611248
0.00281571
0.00631309
0.00276213
0.00651902
0.00270674
0.00673058
0.00264967
0.00694835
0.00259115
0.00717297
0.00253134
0.0074052
0.00247031
0.00764575
0.00240802
0.00789507
0.00234441
0.00815343
0.0022794
0.00842102
0.0022129
0.00869804
0.00214486
0.00898477
0.00207524
0.00928152
0.00200398
0.00958864
0.00193105
0.00990653
0.0018564
0.0102356
0.00177997
0.0105763
0.00170171
0.0109291
0.00162155
0.0112945
0.00153943
0.0116729
0.00145528
0.0120651
0.001369
0.0124714
0.00128053
0.0128926
0.00118975
0.0133293
0.00109656
0.0137822
0.00100085
0.0142521
0.0009025
0.0147398
0.00080136
0.0152463
0.00069728
0.0157724
0.000590091
0.0163192
0.000479602
0.016888
0.000365601
0.01748
0.000247855
0.0180965
0.000126091
0.0187394
0.0194095
0.00315544
0.00541284
0.00310921
0.00559472
0.00306131
0.00577827
0.00301181
0.00596734
0.00296061
0.00616369
0.00290763
0.00636607
0.00285278
0.00657386
0.00279602
0.00678734
0.00273745
0.00700692
0.00267728
0.00723314
0.0026157
0.00746678
0.00255282
0.00770863
0.00248864
0.00795925
0.0024231
0.00821897
0.00235611
0.00848801
0.00228759
0.00876657
0.00221746
0.0090549
0.00214569
0.0093533
0.00207221
0.00966212
0.00199698
0.00998176
0.00191995
0.0103126
0.00184107
0.0106552
0.00176028
0.0110099
0.00167751
0.0113772
0.0015927
0.0117578
0.00150576
0.012152
0.00141661
0.0125606
0.00132517
0.012984
0.00123133
0.0134231
0.00113498
0.0138786
0.00103601
0.0143511
0.000934275
0.0148416
0.000829642
0.0153509
0.000721948
0.0158801
0.000611016
0.0164302
0.000496651
0.0170024
0.000378629
0.017598
0.000256708
0.0182184
0.000130608
0.0188655
0.0195402
0.00325093
0.00320411
0.00564154
0.00315525
0.00582713
0.00310459
0.006018
0.00305218
0.0062161
0.002998
0.00642025
0.00294193
0.00662993
0.00288388
0.00684539
0.00282388
0.00706692
0.00276212
0.0072949
0.00269883
0.00753008
0.00263413
0.00777333
0.00256807
0.00802531
0.00250061
0.00828643
0.00243166
0.00855696
0.00236113
0.0088371
0.00228894
0.00912709
0.00221504
0.0094272
0.00213936
0.00973779
0.00206187
0.0100593
0.0019825
0.010392
0.00190121
0.0107365
0.00181792
0.0110932
0.00173258
0.0114626
0.00164511
0.0118452
0.00155543
0.0122417
0.00146346
0.0126525
0.0013691
0.0130784
0.00127224
0.01352
0.00117278
0.013978
0.00107059
0.0144533
0.000965536
0.0149466
0.000857466
0.015459
0.000746217
0.0159913
0.000631605
0.0165448
0.000513426
0.0171205
0.000391449
0.01772
0.000265421
0.0183445
0.000135054
0.0189958
0.0196752
0.00329726
0.00568844
0.00324775
0.00587665
0.00319609
0.00606965
0.0031425
0.00626969
0.00308706
0.00647569
0.00302972
0.00668727
0.00297034
0.00690477
0.00290892
0.00712835
0.00284561
0.00735821
0.00278062
0.00759507
0.00271412
0.00783982
0.0026462
0.00809323
0.00257684
0.00835579
0.00250594
0.00862785
0.00243343
0.00890961
0.00235921
0.00920131
0.00228321
0.0095032
0.00220537
0.00981563
0.00212565
0.010139
0.00204398
0.0104737
0.0019603
0.0108201
0.00187457
0.0111789
0.0017867
0.0115505
0.00169662
0.0119353
0.00160424
0.0123341
0.00150949
0.0127473
0.00141226
0.0131756
0.00131244
0.0136198
0.00120992
0.0140805
0.00110457
0.0145586
0.000996253
0.0150549
0.000884807
0.0155704
0.000770066
0.016106
0.000651837
0.016663
0.000529911
0.0172425
0.000404048
0.0178458
0.000273985
0.0184745
0.000139425
0.0191304
0.0198146
0.00338793
0.00333787
0.0059267
0.00328533
0.00612219
0.00323071
0.00632431
0.00317421
0.00653219
0.00311577
0.00674572
0.00305519
0.00696535
0.00299246
0.00719108
0.00292769
0.00742298
0.00286108
0.00766168
0.00279283
0.00790807
0.00272308
0.00816298
0.00265182
0.00842705
0.00257901
0.00870067
0.00250452
0.0089841
0.00242829
0.00927754
0.00235022
0.00958127
0.00227025
0.0098956
0.00218833
0.0102209
0.00210439
0.0105576
0.00201838