/*--------------------------------*- C++ -*----------------------------------*\
  =========                 |
  \\      /  F ield         | OpenFOAM: The Open Source CFD Toolbox
   \\    /   O peration     | Website:  https://openfoam.org
    \\  /    A nd           | Version:  7
     \\/     M anipulation  |
\*---------------------------------------------------------------------------*/
FoamFile
{
    version     2.0;
    format      ascii;
    class       volVectorField;
    location    "60";
    object      U;
}
// * * * * * * * * * * * * * * * * * * * * * * * * * * * * * * * * * * * * * //

dimensions      [0 1 -1 0 0 0 0];

internalField   nonuniform List<vector> 
1987
(
(1.13391 -0.24462 -5.01314e-20)
(1.13038 -0.233501 -2.74295e-20)
(1.1271 -0.222653 -2.67856e-20)
(1.12373 -0.212787 3.82296e-20)
(1.14044 -0.242222 3.82136e-20)
(1.13672 -0.231397 -1.24509e-20)
(1.13325 -0.220802 2.95194e-20)
(1.12974 -0.211126 -4.81122e-21)
(1.1468 -0.239719 -3.12068e-20)
(1.1429 -0.229186 1.18494e-20)
(1.13926 -0.218837 -3.52408e-20)
(1.1356 -0.209347 1.3189e-20)
(1.15297 -0.237119 1.09289e-20)
(1.14891 -0.226876 -1.24553e-21)
(1.14513 -0.216772 1.5114e-20)
(1.14135 -0.207464 -7.66187e-21)
(1.16359 -0.244584 1.58898e-20)
(1.15896 -0.234433 3.78575e-22)
(1.15477 -0.224479 1.78068e-21)
(1.15086 -0.214619 5.42473e-21)
(1.14698 -0.205487 -3.33648e-21)
(1.16953 -0.241518 -1.22197e-21)
(1.16478 -0.231673 6.85608e-23)
(1.16047 -0.222005 1.87125e-21)
(1.15645 -0.212391 -2.71682e-21)
(1.1525 -0.203426 1.35532e-21)
(1.17527 -0.238392 4.30838e-22)
(1.17042 -0.228849 7.61904e-22)
(1.16601 -0.219464 -1.57648e-21)
(1.1619 -0.210097 -3.07242e-21)
(1.15789 -0.201291 4.58055e-21)
(1.18083 -0.235219 -1.80538e-20)
(1.17589 -0.225972 1.45675e-20)
(1.1714 -0.216865 5.65249e-21)
(1.16721 -0.207748 2.39256e-21)
(1.16315 -0.199089 -3.91999e-21)
(1.18119 -0.223053 1.55976e-20)
(1.17663 -0.214217 6.69239e-21)
(1.17238 -0.205352 2.00805e-20)
(1.16829 -0.196829 -1.38958e-20)
(1.18633 -0.220101 -5.07689e-20)
(1.18172 -0.211528 1.86936e-20)
(1.17741 -0.202917 -4.74113e-20)
(1.17331 -0.194519 4.69009e-21)
(1.1913 -0.217125 5.8143e-21)
(1.18665 -0.208807 -6.51116e-21)
(1.18231 -0.20045 7.19918e-20)
(1.1782 -0.192167 -2.51746e-20)
(1.19612 -0.214135 7.60469e-20)
(1.19145 -0.206061 -6.01004e-20)
(1.18708 -0.197959 -1.59174e-20)
(1.18297 -0.189779 -3.98045e-20)
(1.20078 -0.211139 -4.65287e-20)
(1.1961 -0.203299 -5.11089e-21)
(1.19171 -0.19545 -2.10711e-20)
(1.18762 -0.187364 7.40747e-20)
(1.2053 -0.208145 -8.70982e-20)
(1.20061 -0.200526 -1.4309e-20)
(1.19623 -0.19293 1.78048e-20)
(1.19216 -0.184927 -5.4353e-20)
(1.20968 -0.20516 -6.93328e-20)
(1.205 -0.197751 3.86743e-20)
(1.20062 -0.190405 3.32812e-20)
(1.19658 -0.182475 4.60044e-20)
(1.21392 -0.20219 1.32816e-19)
(1.20926 -0.194979 5.29621e-20)
(1.20489 -0.187879 -2.53273e-19)
(1.2009 -0.180013 -9.79254e-21)
(1.21803 -0.199241 1.82754e-20)
(1.2134 -0.192216 2.5531e-20)
(1.20905 -0.185358 9.31786e-20)
(1.20511 -0.177546 -2.86781e-20)
(1.21742 -0.189467 1.05107e-20)
(1.2131 -0.182846 4.24574e-20)
(1.20923 -0.175079 -6.16588e-20)
(1.22133 -0.186736 -2.91751e-19)
(1.21705 -0.180349 -1.94728e-20)
(1.21325 -0.172616 -2.53155e-20)
(1.22514 -0.184027 8.31579e-20)
(1.22089 -0.177868 8.96457e-20)
(1.21717 -0.170162 3.12296e-21)
(1.22883 -0.181343 -6.98542e-20)
(1.22464 -0.175406 -1.72656e-19)
(1.22101 -0.167719 2.0992e-19)
(1.23242 -0.178683 1.32219e-19)
(1.22829 -0.172967 -9.43342e-20)
(1.22477 -0.16529 5.46935e-20)
(1.23184 -0.17055 -2.79298e-20)
(1.22844 -0.162877 -1.14634e-19)
(1.23529 -0.168153 2.02301e-19)
(1.23203 -0.16048 3.30849e-22)
(1.23862 -0.165772 -1.42851e-19)
(1.23552 -0.158098 -9.68582e-20)
(1.23892 -0.155725 2.86991e-20)
(1.24218 -0.153355 -4.88116e-20)
(1.24526 -0.150969 -4.25652e-19)
(1.14935 -0.195649 1.68781e-21)
(1.14676 -0.190102 -8.87124e-22)
(1.14429 -0.18451 -3.03715e-23)
(1.14211 -0.178931 1.78895e-21)
(1.14021 -0.173444 -1.74789e-21)
(1.13852 -0.168032 1.80739e-21)
(1.13696 -0.162688 -2.60079e-21)
(1.13547 -0.157389 1.9036e-21)
(1.13403 -0.152133 -2.0465e-21)
(1.13264 -0.146921 1.40091e-21)
(1.13128 -0.141748 -1.34981e-21)
(1.12996 -0.136618 5.60496e-22)
(1.12865 -0.131529 1.23289e-21)
(1.12737 -0.126473 -7.81152e-22)
(1.12611 -0.12146 -6.61083e-22)
(1.12487 -0.116489 4.31512e-22)
(1.12363 -0.111557 -4.11244e-24)
(1.12242 -0.106665 -6.18051e-22)
(1.12121 -0.101812 7.78037e-22)
(1.12001 -0.0969956 -2.16084e-22)
(1.11882 -0.0922169 -2.94703e-22)
(1.11764 -0.0874676 3.47534e-22)
(1.11648 -0.0827613 1.52928e-22)
(1.11531 -0.0780769 -3.79493e-22)
(1.11417 -0.0734098 3.25572e-22)
(1.11304 -0.0687791 -3.87929e-22)
(1.11194 -0.0641631 3.11207e-22)
(1.11085 -0.0595638 -1.20237e-22)
(1.1098 -0.0549751 2.78523e-22)
(1.10877 -0.0503909 -1.50318e-22)
(1.10779 -0.0458042 -2.71022e-22)
(1.10685 -0.0412075 9.42534e-23)
(1.10597 -0.0365915 3.37998e-23)
(1.10516 -0.0319458 1.36715e-22)
(1.10442 -0.0272589 -2.82059e-22)
(1.10377 -0.0225145 -1.39078e-22)
(1.10322 -0.0177039 2.00279e-22)
(1.10279 -0.0127855 -1.36957e-22)
(1.10249 -0.00779401 1.34541e-22)
(1.10233 -0.00257999 -9.9233e-23)
(1.14399 -0.197251 1.60366e-21)
(1.14154 -0.191564 -1.59507e-21)
(1.13928 -0.185853 3.4409e-21)
(1.13736 -0.180169 -8.30323e-22)
(1.13569 -0.174588 -3.18335e-22)
(1.13422 -0.169083 9.93815e-22)
(1.13285 -0.163657 -3.12681e-21)
(1.13154 -0.158279 1.80531e-23)
(1.13028 -0.15295 8.66746e-22)
(1.12905 -0.147671 -1.11073e-21)
(1.12786 -0.142437 7.06593e-22)
(1.12668 -0.137252 -7.29743e-22)
(1.12552 -0.132112 -1.76573e-22)
(1.12437 -0.127006 1.26402e-23)
(1.12324 -0.12195 1.67666e-21)
(1.12213 -0.116939 -7.63805e-22)
(1.12102 -0.11197 -9.25922e-22)
(1.11991 -0.107044 8.4281e-22)
(1.11882 -0.10216 1.34672e-21)
(1.11772 -0.0973156 -9.49971e-22)
(1.11664 -0.0925107 8.50949e-23)
(1.11555 -0.0877368 -1.21507e-21)
(1.11448 -0.083011 6.6261e-22)
(1.11339 -0.0783059 1.39988e-21)
(1.11233 -0.0736166 -1.09827e-22)
(1.11128 -0.0689681 -4.18083e-22)
(1.11025 -0.0643353 -3.31479e-22)
(1.10923 -0.0597202 6.0678e-23)
(1.10824 -0.0551165 -7.01644e-22)
(1.10728 -0.050518 2.47801e-22)
(1.10635 -0.0459178 7.39893e-22)
(1.10546 -0.041308 -3.95746e-22)
(1.10463 -0.0366794 8.84871e-22)
(1.10386 -0.0320215 -3.75133e-22)
(1.10316 -0.0273225 2.62195e-22)
(1.10254 -0.0225664 3.56233e-22)
(1.10202 -0.0177439 5.09167e-23)
(1.10161 -0.0128139 5.8899e-23)
(1.10132 -0.00781061 2.99542e-22)
(1.10117 -0.00258202 1.30252e-23)
(1.13853 -0.198775 4.37146e-21)
(1.13623 -0.19296 -3.52284e-22)
(1.13421 -0.187134 1.44402e-21)
(1.13255 -0.181355 -1.0141e-20)
(1.13112 -0.175687 8.83863e-21)
(1.12987 -0.170092 -3.57915e-21)
(1.12869 -0.164588 -1.4375e-21)
(1.12757 -0.159136 1.69555e-21)
(1.12649 -0.153739 1.46461e-21)
(1.12543 -0.148396 1.71231e-21)
(1.1244 -0.143103 -5.49298e-21)
(1.12338 -0.137869 3.46283e-21)
(1.12236 -0.132681 1.82373e-21)
(1.12135 -0.127527 6.5021e-22)
(1.12036 -0.122427 -5.39868e-21)
(1.11937 -0.117378 3.85084e-21)
(1.11839 -0.112374 9.75665e-22)
(1.1174 -0.107416 -9.17136e-22)
(1.11642 -0.102502 -1.61905e-21)
(1.11543 -0.0976306 1.49679e-21)
(1.11445 -0.0928002 -1.59923e-21)
(1.11346 -0.0880025 1.22963e-21)
(1.11248 -0.0832598 1.16906e-21)
(1.11147 -0.0785347 -2.17103e-21)
(1.11049 -0.0738218 6.13121e-23)
(1.10952 -0.0691559 3.6327e-22)
(1.10856 -0.064507 5.40997e-22)
(1.10761 -0.0598764 -8.45653e-23)
(1.10668 -0.055258 2.58408e-22)
(1.10578 -0.0506454 4.78052e-22)
(1.10491 -0.0460318 1.92024e-23)
(1.10407 -0.041409 6.63458e-23)
(1.10328 -0.0367678 -1.10638e-21)
(1.10255 -0.0320977 7.26615e-22)
(1.10189 -0.0273867 -3.52509e-23)
(1.1013 -0.0226187 -6.83314e-22)
(1.10081 -0.0177842 -5.00672e-22)
(1.10042 -0.0128426 6.40738e-22)
(1.10015 -0.00782736 -9.90039e-24)
(1.10002 -0.00258448 -1.45963e-22)
(1.13297 -0.200218 -1.28673e-21)
(1.13084 -0.194288 -5.07814e-21)
(1.12908 -0.188348 9.08172e-21)
(1.12769 -0.182489 -3.54909e-21)
(1.12648 -0.176741 -4.00095e-21)
(1.12545 -0.171056 3.83886e-21)
(1.12449 -0.16548 -1.46614e-21)
(1.12356 -0.159957 3.51351e-21)
(1.12266 -0.154495 -9.12859e-21)
(1.12178 -0.149093 6.26839e-21)
(1.12092 -0.143745 3.1923e-21)
(1.12006 -0.138466 -1.98059e-21)
(1.11918 -0.133236 2.26306e-21)
(1.11831 -0.128034 -1.93713e-21)
(1.11746 -0.122891 -4.0247e-22)
(1.1166 -0.117806 2.6303e-21)
(1.11575 -0.112769 -1.82771e-21)
(1.11488 -0.10778 2.65066e-21)
(1.11401 -0.102838 -4.04645e-21)
(1.11313 -0.0979404 3.3216e-21)
(1.11225 -0.0930851 -1.58984e-21)
(1.11136 -0.0882646 7.38008e-23)
(1.11047 -0.0835066 -7.65197e-22)
(1.10956 -0.0787621 -1.83759e-21)
(1.10866 -0.0740255 4.49104e-22)
(1.10777 -0.0693424 3.217e-22)
(1.10688 -0.0646781 5.68106e-22)
(1.10599 -0.0600323 7.7378e-22)
(1.10513 -0.0553994 -9.78175e-22)
(1.10428 -0.050773 -2.77251e-22)
(1.10346 -0.046146 -1.46003e-22)
(1.10268 -0.0415104 -1.47427e-21)
(1.10193 -0.0368567 -8.17924e-22)
(1.10124 -0.0321744 -8.97073e-22)
(1.10062 -0.0274513 -1.08405e-21)
(1.10006 -0.0226716 1.14026e-21)
(1.09959 -0.017825 -4.23727e-22)
(1.09923 -0.0128718 -5.6142e-22)
(1.09898 -0.00784419 -4.37694e-23)
(1.09886 -0.00258721 3.15609e-23)
(1.12731 -0.201575 3.88481e-21)
(1.12537 -0.195543 -2.10429e-21)
(1.12389 -0.18949 -6.17559e-21)
(1.12278 -0.183575 -4.5376e-21)
(1.12178 -0.177759 9.24677e-21)
(1.12098 -0.171975 3.8491e-21)
(1.12022 -0.166327 -6.53966e-21)
(1.1195 -0.160739 -1.71369e-21)
(1.11879 -0.155216 1.93098e-22)
(1.11809 -0.149758 4.81522e-21)
(1.1174 -0.14436 -1.75067e-21)
(1.1167 -0.139045 6.7139e-21)
(1.11598 -0.133777 -6.90484e-21)
(1.11526 -0.128526 -4.04058e-21)
(1.11455 -0.12334 5.89223e-22)
(1.11383 -0.118221 2.06713e-21)
(1.1131 -0.113153 4.04845e-21)
(1.11236 -0.108136 -6.2685e-21)
(1.1116 -0.103167 2.30247e-21)
(1.11083 -0.0982449 -1.95103e-21)
(1.11005 -0.093366 3.65969e-21)
(1.10926 -0.0885248 -1.16678e-21)
(1.10844 -0.0837477 -2.52832e-22)
(1.10765 -0.0789841 1.54884e-21)
(1.10683 -0.0742292 -5.62126e-22)
(1.10601 -0.0695285 -1.26093e-21)
(1.10519 -0.0648489 1.21523e-21)
(1.10438 -0.0601881 -2.62561e-21)
(1.10357 -0.055541 8.33618e-22)
(1.10278 -0.0509009 7.76844e-22)
(1.10202 -0.0462607 8.02766e-22)
(1.10128 -0.0416122 2.51114e-25)
(1.10058 -0.0369461 1.89592e-21)
(1.09993 -0.0322516 1.51709e-22)
(1.09934 -0.0275165 3.50197e-22)
(1.09882 -0.022725 -4.0544e-22)
(1.09838 -0.0178661 -1.03723e-22)
(1.09804 -0.0129015 9.41693e-22)
(1.0978 -0.00786105 -8.20023e-23)
(1.0977 -0.00259012 4.37031e-22)
(1.11489 -0.155901 6.57774e-21)
(1.11437 -0.150393 -4.50496e-21)
(1.11384 -0.144949 4.29167e-21)
(1.1133 -0.139596 2.4102e-21)
(1.11277 -0.13429 7.60809e-22)
(1.11222 -0.128999 3.42611e-21)
(1.11165 -0.123776 -5.68939e-21)
(1.11106 -0.118625 -2.57138e-21)
(1.11045 -0.113529 3.63975e-21)
(1.10983 -0.108485 2.19591e-21)
(1.10919 -0.103491 -3.32617e-21)
(1.10853 -0.0985446 4.74878e-21)
(1.10785 -0.0936436 -2.97174e-21)
(1.10715 -0.0887854 -1.62262e-21)
(1.10643 -0.0839797 -4.6916e-22)
(1.10574 -0.0791974 5.62625e-22)
(1.105 -0.0744352 1.54005e-21)
(1.10425 -0.0697148 -7.64735e-23)
(1.1035 -0.0650196 1.51216e-21)
(1.10276 -0.060344 6.75e-22)
(1.10202 -0.0556826 -3.7457e-22)
(1.10129 -0.0510289 -3.29714e-21)
(1.10057 -0.0463756 2.30198e-21)
(1.09989 -0.0417144 2.41218e-21)
(1.09923 -0.037036 -2.49041e-21)
(1.09863 -0.0323293 1.4423e-21)
(1.09807 -0.0275821 -4.9476e-22)
(1.09758 -0.0227789 5.44252e-22)
(1.09717 -0.0179076 -1.29112e-21)
(1.09685 -0.0129316 -2.52362e-21)
(1.09662 -0.00787802 -1.51146e-21)
(1.09653 -0.00259349 -5.19927e-22)
(1.1546 -0.193975 -1.79445e-21)
(1.1519 -0.188576 9.30074e-22)
(1.14923 -0.183109 1.92223e-23)
(1.14682 -0.177644 -1.8888e-21)
(1.14469 -0.172258 1.85129e-21)
(1.14278 -0.166942 -1.91537e-21)
(1.14102 -0.161685 2.74688e-21)
(1.13935 -0.156468 -2.01533e-21)
(1.13775 -0.151289 2.16974e-21)
(1.1362 -0.146146 -1.4738e-21)
(1.13469 -0.141038 1.41797e-21)
(1.13321 -0.135967 -5.81346e-22)
(1.13177 -0.130931 -1.2953e-21)
(1.13035 -0.125926 8.24143e-22)
(1.12896 -0.12096 6.98727e-22)
(1.12759 -0.11603 -4.50043e-22)
(1.12624 -0.111136 9.00205e-24)
(1.12491 -0.106279 6.55552e-22)
(1.12359 -0.101458 -8.22138e-22)
(1.12229 -0.0966711 2.25724e-22)
(1.121 -0.0919194 3.05745e-22)
(1.11973 -0.0871954 -3.72918e-22)
(1.11847 -0.0825103 -1.49871e-22)
(1.11722 -0.0778474 3.92801e-22)
(1.116 -0.0732019 -3.41928e-22)
(1.1148 -0.0685892 4.07642e-22)
(1.11362 -0.0639904 -3.31849e-22)
(1.11247 -0.0594074 1.25738e-22)
(1.11135 -0.0548339 -2.84824e-22)
(1.11027 -0.050264 1.56675e-22)
(1.10923 -0.0456911 2.90254e-22)
(1.10824 -0.0411075 -1.03909e-22)
(1.10732 -0.0365042 -3.74893e-23)
(1.10646 -0.0318707 -1.44887e-22)
(1.10569 -0.0271958 3.01843e-22)
(1.10501 -0.0224631 1.48855e-22)
(1.10443 -0.0176644 -2.14646e-22)
(1.10398 -0.0127576 1.47481e-22)
(1.10365 -0.00777758 -1.43759e-22)
(1.10348 -0.00257842 1.05651e-22)
(1.15975 -0.192233 -1.92633e-21)
(1.15694 -0.186991 1.87584e-21)
(1.15409 -0.181652 -4.10015e-21)
(1.15146 -0.176311 1.01912e-21)
(1.14911 -0.171033 3.97052e-22)
(1.14699 -0.165816 -1.17111e-21)
(1.14504 -0.160649 3.70331e-21)
(1.1432 -0.155518 -3.2554e-23)
(1.14143 -0.150419 -1.01394e-21)
(1.13972 -0.14535 1.32537e-21)
(1.13807 -0.140309 -8.48176e-22)
(1.13645 -0.135299 8.94113e-22)
(1.13486 -0.130319 2.02382e-22)
(1.13332 -0.125367 -2.34015e-23)
(1.1318 -0.120448 -1.93387e-21)
(1.1303 -0.115562 8.90457e-22)
(1.12884 -0.110708 1.06656e-21)
(1.12739 -0.105887 -9.79853e-22)
(1.12597 -0.101099 -1.55889e-21)
(1.12456 -0.0963425 1.08157e-21)
(1.12317 -0.0916186 -8.92781e-23)
(1.12181 -0.0869206 1.39143e-21)
(1.12046 -0.0822579 -7.5152e-22)
(1.11913 -0.0776169 -1.61224e-21)
(1.11783 -0.072993 1.11902e-22)
(1.11655 -0.0683987 4.87671e-22)
(1.1153 -0.0638175 3.69363e-22)
(1.11408 -0.059251 -7.31698e-23)
(1.1129 -0.0546929 8.04056e-22)
(1.11176 -0.0501375 -2.77768e-22)
(1.11067 -0.0455785 -8.19839e-22)
(1.10963 -0.041008 4.22177e-22)
(1.10866 -0.0364174 -1.00433e-21)
(1.10776 -0.0317962 4.23708e-22)
(1.10695 -0.0271334 -2.83458e-22)
(1.10624 -0.0224123 -3.96321e-22)
(1.10563 -0.0176254 -6.9218e-23)
(1.10515 -0.0127301 -5.41476e-23)
(1.10481 -0.00776129 -3.49576e-22)
(1.10463 -0.00257726 -7.35942e-24)
(1.16478 -0.190427 -5.92936e-21)
(1.16188 -0.185348 4.64734e-22)
(1.15888 -0.180144 -1.91813e-21)
(1.15605 -0.174935 1.36364e-20)
(1.15348 -0.169773 -1.18262e-20)
(1.15116 -0.164658 4.82215e-21)
(1.14902 -0.159585 1.91958e-21)
(1.14701 -0.154542 -2.28443e-21)
(1.14508 -0.149525 -1.89828e-21)
(1.14322 -0.144532 -2.261e-21)
(1.14142 -0.139561 7.2206e-21)
(1.13966 -0.134615 -4.50001e-21)
(1.13794 -0.129694 -2.39215e-21)
(1.13626 -0.124796 -8.62102e-22)
(1.13462 -0.119927 6.98977e-21)
(1.133 -0.115086 -4.97169e-21)
(1.13142 -0.110273 -1.2505e-21)
(1.12986 -0.105489 1.17448e-21)
(1.12833 -0.100735 2.03562e-21)
(1.12683 -0.0960102 -1.90268e-21)
(1.12534 -0.0913149 2.00693e-21)
(1.12388 -0.0866436 -1.53429e-21)
(1.12245 -0.082004 -1.47701e-21)
(1.12103 -0.0773855 2.66829e-21)
(1.11965 -0.0727834 -8.53931e-23)
(1.1183 -0.0682079 -4.27056e-22)
(1.11698 -0.0636446 -6.5125e-22)
(1.11569 -0.0590947 1.00848e-22)
(1.11444 -0.0545521 -3.26016e-22)
(1.11325 -0.0500115 -5.90959e-22)
(1.1121 -0.0454663 -4.78114e-24)
(1.11101 -0.0409091 -1.01346e-22)
(1.11 -0.0363312 1.28911e-21)
(1.10906 -0.0317224 -8.46939e-22)
(1.10821 -0.0270714 2.64766e-23)
(1.10746 -0.0223619 8.10395e-22)
(1.10683 -0.0175868 5.84692e-22)
(1.10633 -0.0127029 -7.57661e-22)
(1.10597 -0.00774511 -2.38887e-23)
(1.10577 -0.00257644 1.83246e-22)
(1.16971 -0.188564 1.93899e-21)
(1.16673 -0.183652 7.77757e-21)
(1.1636 -0.178588 -1.38119e-20)
(1.16058 -0.173519 5.34141e-21)
(1.15781 -0.168478 5.9996e-21)
(1.15528 -0.16347 -5.75832e-21)
(1.15296 -0.158493 2.2312e-21)
(1.15078 -0.153542 -5.30625e-21)
(1.14869 -0.14861 1.35815e-20)
(1.14669 -0.143696 -9.29022e-21)
(1.14474 -0.138797 -4.64309e-21)
(1.14284 -0.133917 2.8486e-21)
(1.141 -0.129057 -3.34274e-21)
(1.13919 -0.124215 2.71649e-21)
(1.13742 -0.119396 5.44469e-22)
(1.13569 -0.114602 -3.76914e-21)
(1.13399 -0.109831 2.56374e-21)
(1.13233 -0.105086 -3.69278e-21)
(1.13069 -0.100368 5.59674e-21)
(1.12908 -0.0956745 -4.60352e-21)
(1.1275 -0.0910085 2.19188e-21)
(1.12595 -0.0863645 -1.1639e-22)
(1.12443 -0.0817488 1.06193e-21)
(1.12293 -0.0771532 2.5005e-21)
(1.12147 -0.0725731 -6.1279e-22)
(1.12004 -0.0680167 -4.1703e-22)
(1.11865 -0.0634716 -7.53883e-22)
(1.1173 -0.0589386 -1.00771e-21)
(1.11599 -0.0544118 1.23684e-21)
(1.11473 -0.0498859 3.41816e-22)
(1.11353 -0.0453547 2.15105e-22)
(1.11239 -0.0408109 1.91497e-21)
(1.11133 -0.0362457 1.08978e-21)
(1.11035 -0.0316491 1.16933e-21)
(1.10946 -0.0270101 1.38384e-21)
(1.10868 -0.0223121 -1.43615e-21)
(1.10802 -0.0175486 5.49236e-22)
(1.1075 -0.0126761 6.91114e-22)
(1.10713 -0.00772903 1.68753e-23)
(1.10691 -0.00257591 -1.88668e-23)
(1.17453 -0.18665 -6.87397e-21)
(1.17148 -0.181908 3.71706e-21)
(1.16824 -0.176987 1.07886e-20)
(1.16506 -0.172065 7.71118e-21)
(1.16209 -0.167153 -1.59825e-20)
(1.15937 -0.162254 -6.49779e-21)
(1.15686 -0.157377 1.11264e-20)
(1.15451 -0.152519 2.75645e-21)
(1.15227 -0.147674 -2.86625e-22)
(1.15012 -0.142841 -8.02914e-21)
(1.14804 -0.138017 2.91971e-21)
(1.14601 -0.133206 -1.10023e-20)
(1.14403 -0.128407 1.1172e-20)
(1.1421 -0.123623 6.38215e-21)
(1.14021 -0.118857 -9.60749e-22)
(1.13837 -0.11411 -3.30306e-21)
(1.13656 -0.109383 -6.27153e-21)
(1.13478 -0.104678 9.68822e-21)
(1.13304 -0.0999957 -3.5023e-21)
(1.13134 -0.0953357 2.96243e-21)
(1.12966 -0.0906998 -5.53291e-21)
(1.12802 -0.0860837 1.79193e-21)
(1.12641 -0.0814926 4.77474e-22)
(1.12483 -0.0769202 -2.2462e-21)
(1.12329 -0.0723623 8.03162e-22)
(1.12178 -0.0678254 1.8467e-21)
(1.12032 -0.0632987 -1.73332e-21)
(1.1189 -0.0587827 3.71685e-21)
(1.11753 -0.0542718 -1.19271e-21)
(1.11621 -0.0497608 -1.1516e-21)
(1.11496 -0.0452437 -1.04629e-21)
(1.11377 -0.0407132 7.75215e-23)
(1.11266 -0.0361608 -2.55803e-21)
(1.11164 -0.0315763 -1.27076e-22)
(1.11071 -0.0269493 -4.4322e-22)
(1.1099 -0.0222628 5.26802e-22)
(1.10921 -0.0175108 1.80866e-22)
(1.10867 -0.0126497 -1.28985e-21)
(1.10827 -0.007713 8.22707e-23)
(1.10805 -0.00257559 -5.7459e-22)
(1.17923 -0.184689 -2.45273e-20)
(1.17613 -0.180119 1.24997e-20)
(1.17279 -0.175344 2.5008e-20)
(1.16947 -0.170574 -3.46797e-20)
(1.16632 -0.165798 1.13889e-21)
(1.16341 -0.161014 2.11235e-20)
(1.16073 -0.156239 7.62783e-21)
(1.15821 -0.151476 -2.78463e-20)
(1.15582 -0.14672 1.4766e-20)
(1.15353 -0.14197 8.3362e-21)
(1.15131 -0.137223 -8.03241e-21)
(1.14915 -0.132481 -4.49921e-21)
(1.14705 -0.127748 -1.3516e-21)
(1.14499 -0.123023 -6.0397e-21)
(1.14299 -0.11831 1.01518e-20)
(1.14103 -0.113612 4.45527e-21)
(1.13911 -0.10893 -6.32294e-21)
(1.13723 -0.104266 -3.8387e-21)
(1.13538 -0.0996203 5.61076e-21)
(1.13358 -0.0949941 -7.88185e-21)
(1.13181 -0.0903889 4.9264e-21)
(1.13007 -0.0858012 2.68725e-21)
(1.12838 -0.0812354 7.90073e-22)
(1.12672 -0.0766867 -9.76595e-22)
(1.1251 -0.0721511 -2.42201e-21)
(1.12352 -0.067634 5.7499e-23)
(1.12198 -0.063126 -2.40458e-21)
(1.1205 -0.0586272 -1.05801e-21)
(1.11906 -0.0541323 6.0276e-22)
(1.11769 -0.0496363 4.87617e-21)
(1.11638 -0.0451333 -3.35024e-21)
(1.11514 -0.0406161 -3.57615e-21)
(1.11398 -0.0360764 3.61874e-21)
(1.11292 -0.0315042 -2.07821e-21)
(1.11196 -0.026889 7.42328e-22)
(1.11111 -0.0222139 -7.88585e-22)
(1.1104 -0.0174733 1.94815e-21)
(1.10983 -0.0126236 3.57997e-21)
(1.10942 -0.00769703 2.17564e-21)
(1.10918 -0.00257544 7.34473e-22)
(1.18383 -0.182687 -9.97292e-21)
(1.18067 -0.17829 4.05873e-20)
(1.17726 -0.173662 -6.9938e-21)
(1.17382 -0.169051 -2.83379e-20)
(1.17052 -0.164415 2.24367e-20)
(1.16743 -0.159751 -7.27744e-21)
(1.16456 -0.15508 -4.30691e-21)
(1.16188 -0.150414 -1.02292e-20)
(1.15934 -0.145749 1.80419e-21)
(1.15691 -0.141083 1.23077e-20)
(1.15456 -0.136415 -9.48358e-21)
(1.15227 -0.131745 3.09817e-21)
(1.15004 -0.127077 8.95759e-21)
(1.14787 -0.122413 -5.851e-21)
(1.14575 -0.117756 1.12107e-20)
(1.14367 -0.113108 -8.64569e-21)
(1.14165 -0.108472 8.10638e-21)
(1.13966 -0.103849 1.14331e-21)
(1.13772 -0.0992415 -1.59129e-21)
(1.13581 -0.0946498 -1.00878e-20)
(1.13395 -0.090076 8.61443e-21)
(1.13213 -0.0855173 -5.1897e-21)
(1.13034 -0.0809773 6.85295e-22)
(1.1286 -0.0764527 6.29193e-21)
(1.1269 -0.0719397 -7.16223e-21)
(1.12525 -0.0674426 5.93882e-21)
(1.12364 -0.0629534 2.95107e-21)
(1.12209 -0.058472 2.39481e-21)
(1.12059 -0.0539932 -7.87266e-22)
(1.11916 -0.0495123 -1.34929e-21)
(1.11779 -0.0450234 -2.32075e-22)
(1.11651 -0.0405196 8.56112e-22)
(1.1153 -0.0359926 -1.65077e-21)
(1.1142 -0.0314326 2.99165e-21)
(1.1132 -0.0268292 -1.891e-21)
(1.11232 -0.0221655 -4.13949e-23)
(1.11157 -0.0174362 -5.35974e-21)
(1.11098 -0.0125978 -3.53287e-21)
(1.11056 -0.00768109 5.99392e-22)
(1.1103 -0.0025754 -1.40385e-21)
(1.18832 -0.180651 6.49022e-20)
(1.18511 -0.176425 -3.17799e-20)
(1.18164 -0.171946 -1.5274e-20)
(1.17811 -0.167495 3.7296e-20)
(1.17466 -0.163007 -1.04122e-20)
(1.1714 -0.158467 -6.46076e-22)
(1.16836 -0.153903 1.7141e-20)
(1.16552 -0.149335 -1.34418e-20)
(1.16283 -0.144763 2.20934e-20)
(1.16026 -0.140183 1.45575e-21)
(1.15778 -0.135594 -2.5051e-20)
(1.15537 -0.130998 1.11227e-20)
(1.15302 -0.126398 -1.55892e-20)
(1.15073 -0.121795 5.90668e-21)
(1.14849 -0.117194 -5.28744e-21)
(1.14631 -0.112598 6.24207e-21)
(1.14417 -0.108008 -1.25119e-20)
(1.14208 -0.103428 4.22879e-21)
(1.14004 -0.0988596 7.25353e-21)
(1.13804 -0.0943032 -4.11647e-21)
(1.13608 -0.0897614 -1.78915e-21)
(1.13417 -0.0852321 2.30404e-21)
(1.1323 -0.0807186 4.61506e-21)
(1.13048 -0.0762183 5.12859e-22)
(1.1287 -0.071728 -4.69018e-21)
(1.12697 -0.0672513 -2.07095e-23)
(1.1253 -0.0627811 1.44239e-21)
(1.12368 -0.0583171 -4.51956e-21)
(1.12212 -0.0538545 -1.54301e-21)
(1.12063 -0.0493887 5.45234e-22)
(1.11921 -0.0449141 -2.03086e-22)
(1.11787 -0.0404236 -5.18029e-21)
(1.11662 -0.0359094 -2.1424e-21)
(1.11547 -0.0313615 -1.32635e-21)
(1.11443 -0.0267699 -1.99237e-22)
(1.11352 -0.0221175 2.61796e-21)
(1.11275 -0.0173994 3.1914e-21)
(1.11213 -0.0125722 3.58043e-21)
(1.11169 -0.00766515 -4.61678e-21)
(1.11142 -0.00257543 -4.75216e-22)
(1.1927 -0.178586 1.36518e-20)
(1.18945 -0.17453 -2.43855e-20)
(1.18594 -0.170197 5.74872e-20)
(1.18233 -0.16591 -6.74448e-21)
(1.17876 -0.161575 -6.92181e-20)
(1.17534 -0.157163 2.43871e-20)
(1.17213 -0.15271 3.29263e-20)
(1.16913 -0.148242 1.09611e-20)
(1.1663 -0.143762 -4.07525e-20)
(1.16359 -0.13927 3.98673e-20)
(1.16098 -0.134762 -2.72187e-20)
(1.15844 -0.130241 4.1898e-21)
(1.15598 -0.125709 6.43633e-21)
(1.15357 -0.12117 -2.54856e-21)
(1.15122 -0.116627 -7.5336e-21)
(1.14893 -0.112083 1.73444e-20)
(1.14669 -0.107541 -1.5087e-20)
(1.1445 -0.103004 3.5929e-21)
(1.14235 -0.098475 -8.20156e-22)
(1.14026 -0.0939545 2.60557e-21)
(1.13821 -0.0894453 2.21155e-21)
(1.13621 -0.0849458 -4.31533e-21)
(1.13426 -0.0804591 7.26806e-21)
(1.13235 -0.0759836 -5.23746e-21)
(1.1305 -0.0715162 -2.88824e-21)
(1.12869 -0.0670601 3.49647e-21)
(1.12695 -0.062609 -6.07102e-22)
(1.12526 -0.0581626 -6.76537e-22)
(1.12364 -0.0537163 1.27002e-21)
(1.12209 -0.0492657 -4.88769e-21)
(1.12061 -0.0448052 3.40704e-21)
(1.11922 -0.0403282 2.65231e-21)
(1.11793 -0.0358267 -2.11994e-22)
(1.11673 -0.0312909 1.05031e-21)
(1.11566 -0.026711 -3.5345e-21)
(1.11472 -0.0220698 7.19837e-22)
(1.11391 -0.0173628 -9.81063e-22)
(1.11328 -0.0125469 1.5516e-21)
(1.11282 -0.0076492 3.66209e-21)
(1.11254 -0.00257545 1.4736e-21)
(1.19698 -0.176497 4.65916e-20)
(1.19369 -0.172609 -4.58024e-20)
(1.19014 -0.168421 -2.04764e-20)
(1.18647 -0.164298 3.94854e-20)
(1.18281 -0.160119 6.97314e-21)
(1.17925 -0.155841 -1.69202e-20)
(1.17588 -0.151502 1.06963e-20)
(1.17272 -0.147135 -6.63215e-21)
(1.16973 -0.14275 -3.68483e-20)
(1.16689 -0.138345 4.33865e-20)
(1.16415 -0.133919 -3.3465e-20)
(1.1615 -0.129474 2.58143e-20)
(1.15892 -0.125013 -1.26084e-20)
(1.1564 -0.120538 -1.17108e-20)
(1.15394 -0.116053 8.03069e-22)
(1.15154 -0.111562 3.14692e-20)
(1.14919 -0.107069 -1.75122e-20)
(1.1469 -0.102577 2.11911e-20)
(1.14466 -0.0980879 -2.51783e-20)
(1.14247 -0.0936039 9.9357e-21)
(1.14033 -0.0891278 5.12278e-22)
(1.13824 -0.0846586 -4.57498e-21)
(1.1362 -0.0801992 3.62637e-21)
(1.13421 -0.0757486 2.86994e-21)
(1.13228 -0.0713043 -5.17486e-22)
(1.13041 -0.066869 1.82521e-21)
(1.12859 -0.0624372 -1.90497e-22)
(1.12684 -0.0580085 2.60731e-21)
(1.12515 -0.0535786 1.07639e-21)
(1.12354 -0.0491432 -2.5869e-21)
(1.12201 -0.0446969 -3.36209e-21)
(1.12057 -0.0402332 2.50631e-21)
(1.11923 -0.0357444 5.42987e-21)
(1.11799 -0.0312206 -4.09984e-22)
(1.11688 -0.0266524 1.21799e-21)
(1.1159 -0.0220224 4.37356e-22)
(1.11508 -0.0173265 2.51932e-22)
(1.11441 -0.0125218 -3.41769e-21)
(1.11394 -0.0076332 -3.85529e-21)
(1.11365 -0.00257543 -1.12518e-21)
(1.20117 -0.174388 7.7235e-20)
(1.19783 -0.170666 2.3658e-20)
(1.19425 -0.16662 -5.0809e-20)
(1.19054 -0.16266 -1.29268e-21)
(1.1868 -0.158642 -3.71382e-21)
(1.18312 -0.154501 4.83418e-20)
(1.1796 -0.150279 -2.62511e-20)
(1.17628 -0.146016 -1.34681e-20)
(1.17315 -0.141726 -2.37016e-21)
(1.17017 -0.13741 -5.82502e-22)
(1.1673 -0.133067 2.75541e-20)
(1.16453 -0.128699 -4.02292e-20)
(1.16184 -0.124309 1.86542e-20)
(1.15921 -0.119899 -2.0537e-20)
(1.15664 -0.115474 3.33583e-21)
(1.15414 -0.111037 -6.83131e-21)
(1.15169 -0.106594 2.17898e-20)
(1.14929 -0.102147 -1.06267e-21)
(1.14696 -0.0976984 -6.09166e-22)
(1.14467 -0.0932516 -1.36036e-20)
(1.14244 -0.088809 4.58487e-21)
(1.14026 -0.0843706 9.85416e-21)
(1.13814 -0.0799388 -1.51125e-20)
(1.13607 -0.0755135 5.80897e-21)
(1.13406 -0.0710925 -3.17179e-21)
(1.13211 -0.0666781 -5.27806e-22)
(1.13023 -0.0622657 5.92201e-21)
(1.12841 -0.0578548 -4.83789e-21)
(1.12666 -0.0534412 6.91617e-21)
(1.12499 -0.0490211 3.88031e-21)
(1.1234 -0.044589 3.18324e-21)
(1.12191 -0.0401387 7.49178e-22)
(1.12052 -0.0356625 -6.98621e-21)
(1.11925 -0.0311508 1.48905e-21)
(1.1181 -0.0265941 -2.59841e-21)
(1.11709 -0.0219753 -4.77907e-21)
(1.11623 -0.0172903 1.00057e-22)
(1.11554 -0.0124968 1.31234e-21)
(1.11505 -0.00761713 -2.28606e-21)
(1.11475 -0.0025753 9.24402e-22)
(1.20527 -0.172266 -4.10175e-20)
(1.20188 -0.168706 -6.07419e-21)
(1.19826 -0.164798 5.66508e-20)
(1.19454 -0.161 1.58017e-20)
(1.19074 -0.157144 -5.17062e-20)
(1.18696 -0.153145 -1.48275e-20)
(1.1833 -0.149044 3.75008e-20)
(1.17982 -0.144886 -1.6401e-20)
(1.17654 -0.140692 2.35722e-20)
(1.17343 -0.136465 -4.05384e-20)
(1.17044 -0.132206 4.27543e-20)
(1.16755 -0.127916 -1.32712e-20)
(1.16474 -0.123598 -5.50979e-21)
(1.162 -0.119254 1.27337e-20)
(1.15933 -0.114889 -2.6729e-20)
(1.15672 -0.110508 1.79905e-20)
(1.15417 -0.106115 -1.16978e-20)
(1.15168 -0.101714 2.58387e-20)
(1.14924 -0.0973069 -2.48021e-20)
(1.14686 -0.0928977 2.04439e-23)
(1.14454 -0.0884892 1.70464e-20)
(1.14228 -0.0840818 -1.57276e-20)
(1.14007 -0.0796781 2.73507e-21)
(1.13792 -0.0752783 6.97499e-21)
(1.13584 -0.0708806 5.89826e-22)
(1.13381 -0.0664874 -1.06354e-21)
(1.13186 -0.0620945 -6.94506e-21)
(1.12997 -0.0577014 7.69244e-21)
(1.12816 -0.0533043 9.23041e-22)
(1.12643 -0.0488994 -1.22542e-21)
(1.12479 -0.0444815 -2.62237e-21)
(1.12325 -0.0400445 2.32182e-21)
(1.12181 -0.0355809 2.57754e-21)
(1.12049 -0.0310812 2.04607e-21)
(1.11931 -0.0265361 1.55701e-21)
(1.11826 -0.0219284 -2.07371e-21)
(1.11738 -0.0172542 -1.70748e-21)
(1.11667 -0.012472 -1.23762e-21)
(1.11616 -0.00760098 -2.00274e-21)
(1.11584 -0.002575 7.49161e-22)
(1.20927 -0.170133 8.49729e-20)
(1.20584 -0.166732 -6.96562e-20)
(1.20218 -0.162959 9.65785e-20)
(1.19845 -0.15932 -5.98252e-20)
(1.19462 -0.155627 -3.37411e-21)
(1.19075 -0.151773 -2.45917e-20)
(1.18697 -0.147796 7.58385e-20)
(1.18335 -0.143747 -3.45835e-21)
(1.17992 -0.13965 -1.2172e-20)
(1.17666 -0.135513 -2.2527e-20)
(1.17355 -0.131338 2.31873e-21)
(1.17054 -0.127126 2.90558e-20)
(1.16762 -0.12288 -2.77565e-20)
(1.16478 -0.118604 1.47554e-20)
(1.162 -0.1143 -9.17133e-21)
(1.15929 -0.109976 1.55059e-20)
(1.15664 -0.105633 -3.41131e-20)
(1.15405 -0.101278 1.28815e-20)
(1.15152 -0.0969136 2.04843e-21)
(1.14905 -0.0925425 7.52276e-21)
(1.14664 -0.0881685 1.70146e-21)
(1.14429 -0.0837925 -8.60038e-21)
(1.142 -0.079417 1.18118e-20)
(1.13977 -0.075043 -7.977e-21)
(1.13761 -0.0706689 1.04771e-20)
(1.13551 -0.0662969 -7.06564e-21)
(1.13348 -0.0619236 -5.50489e-21)
(1.13153 -0.0575484 -1.93997e-21)
(1.12965 -0.0531677 1.1621e-20)
(1.12787 -0.048778 -4.34212e-21)
(1.12617 -0.0443744 -1.21093e-22)
(1.12458 -0.0399507 -7.49792e-21)
(1.12309 -0.0354996 2.44954e-21)
(1.12173 -0.0310118 2.80354e-21)
(1.12051 -0.0264782 -2.61595e-21)
(1.11943 -0.0218815 1.29388e-21)
(1.11852 -0.0172181 7.02727e-21)
(1.11779 -0.0124471 1.95484e-21)
(1.11726 -0.0075847 1.0534e-20)
(1.11693 -0.00257449 3.08002e-21)
(1.2132 -0.167994 -1.08338e-19)
(1.20971 -0.164748 8.93541e-20)
(1.20602 -0.161106 -2.50186e-20)
(1.20227 -0.157623 -1.91933e-20)
(1.19843 -0.154093 3.93777e-20)
(1.1945 -0.150386 -2.314e-20)
(1.19061 -0.146535 -9.79165e-21)
(1.18685 -0.142598 -9.45334e-21)
(1.18328 -0.1386 3.69775e-20)
(1.17989 -0.134553 -1.42088e-20)
(1.17665 -0.130462 3.25123e-23)
(1.17352 -0.126329 2.44618e-20)
(1.17049 -0.122157 -3.90557e-20)
(1.16754 -0.117948 2.86674e-20)
(1.16466 -0.113707 -5.1283e-21)
(1.16185 -0.109439 3.12434e-21)
(1.1591 -0.105149 -2.41668e-20)
(1.15641 -0.10084 1.5492e-20)
(1.15379 -0.0965185 -1.57039e-20)
(1.15122 -0.0921861 -1.17465e-20)
(1.14872 -0.087847 -3.17082e-21)
(1.14629 -0.0835027 3.05148e-21)
(1.14391 -0.0791558 6.09264e-21)
(1.14161 -0.0748076 -3.95686e-21)
(1.13937 -0.0704573 -6.93164e-21)
(1.13719 -0.0661067 7.29062e-21)
(1.1351 -0.061753 4.1285e-21)
(1.13308 -0.0573956 -4.45796e-21)
(1.13114 -0.0530315 7.76321e-22)
(1.12929 -0.048657 -1.84105e-21)
(1.12754 -0.0442675 7.7869e-21)
(1.1259 -0.0398571 -8.17018e-21)
(1.12437 -0.0354185 1.7988e-21)
(1.12296 -0.0309426 -8.13094e-22)
(1.1217 -0.0264205 1.42597e-21)
(1.12059 -0.0218348 3.53709e-21)
(1.11965 -0.0171819 -2.94414e-21)
(1.11889 -0.0124222 -2.98568e-22)
(1.11836 -0.00756827 -6.30356e-21)
(1.11802 -0.00257372 -3.34837e-21)
(1.21704 -0.165853 -7.35276e-20)
(1.2135 -0.162758 -6.80306e-20)
(1.20977 -0.159243 1.06112e-19)
(1.20602 -0.155911 -6.97429e-20)
(1.20217 -0.152542 -3.1994e-20)
(1.1982 -0.148984 1.07656e-19)
(1.19422 -0.145263 -3.17532e-20)
(1.19034 -0.141439 -4.74123e-20)
(1.18663 -0.137543 2.47001e-20)