/*--------------------------------*- C++ -*----------------------------------*\
  =========                 |
  \\      /  F ield         | OpenFOAM: The Open Source CFD Toolbox
   \\    /   O peration     | Website:  https://openfoam.org
    \\  /    A nd           | Version:  7
     \\/     M anipulation  |
\*---------------------------------------------------------------------------*/
FoamFile
{
    version     2.0;
    format      ascii;
    class       volScalarField;
    location    "110";
    object      p;
}
// * * * * * * * * * * * * * * * * * * * * * * * * * * * * * * * * * * * * * //

dimensions      [0 2 -2 0 0 0 0];

internalField   nonuniform List<scalar> 
1987
(
-0.339011
-0.34127
-0.342406
-0.343231
-0.343885
-0.344422
-0.344914
-0.345402
-0.34591
-0.346442
-0.346994
-0.347555
-0.348114
-0.348668
-0.349229
-0.349827
-0.350524
-0.351416
-0.352652
-0.354431
-0.357008
-0.360693
-0.365829
-0.37265
-0.381391
-0.335975
-0.338078
-0.339106
-0.339813
-0.340328
-0.3407
-0.340998
-0.341266
-0.341529
-0.341798
-0.342074
-0.342357
-0.342651
-0.342975
-0.343366
-0.343891
-0.344655
-0.345806
-0.347547
-0.350138
-0.353886
-0.359139
-0.36626
-0.375467
-0.386876
-0.333154
-0.335079
-0.335991
-0.336577
-0.336953
-0.337162
-0.337273
-0.337328
-0.337357
-0.337374
-0.337388
-0.337409
-0.337456
-0.337567
-0.337804
-0.338268
-0.339102
-0.340499
-0.342713
-0.34605
-0.350862
-0.35752
-0.366394
-0.377684
-0.391285
-0.330534
-0.332266
-0.333056
-0.333519
-0.333756
-0.333807
-0.333735
-0.333585
-0.333388
-0.333164
-0.332929
-0.332703
-0.332519
-0.332431
-0.332527
-0.332937
-0.333837
-0.335461
-0.338103
-0.342109
-0.347861
-0.355745
-0.36612
-0.379189
-0.394515
-0.3281
-0.329629
-0.330293
-0.330632
-0.330731
-0.330626
-0.330377
-0.330029
-0.329615
-0.32916
-0.328687
-0.328227
-0.327823
-0.327549
-0.327513
-0.327869
-0.328825
-0.330649
-0.333666
-0.338252
-0.344812
-0.353734
-0.365348
-0.379871
-0.396506
-0.325834
-0.327155
-0.327691
-0.327907
-0.32787
-0.327614
-0.327192
-0.326651
-0.326026
-0.325348
-0.324647
-0.323962
-0.323349
-0.322897
-0.322732
-0.323031
-0.324029
-0.326017
-0.329349
-0.334421
-0.341648
-0.351417
-0.364008
-0.379709
-0.397201
-0.323718
-0.324831
-0.325242
-0.325335
-0.325165
-0.324761
-0.324171
-0.323441
-0.322611
-0.321715
-0.320792
-0.319889
-0.319074
-0.318448
-0.318155
-0.318391
-0.319409
-0.321524
-0.325105
-0.330564
-0.338316
-0.348747
-0.36205
-0.378677
-0.39663
-0.321735
-0.322647
-0.322934
-0.322907
-0.322608
-0.322058
-0.321303
-0.320388
-0.319355
-0.318246
-0.317105
-0.315988
-0.314975
-0.314177
-0.313753
-0.313913
-0.314928
-0.317128
-0.320894
-0.326641
-0.334777
-0.345694
-0.359454
-0.376772
-0.394847
-0.319868
-0.32059
-0.320758
-0.320616
-0.320191
-0.319498
-0.31858
-0.317481
-0.316247
-0.314925
-0.313568
-0.312239
-0.311027
-0.310056
-0.309495
-0.309567
-0.310555
-0.312798
-0.316683
-0.322625
-0.331011
-0.342255
-0.356234
-0.374027
-0.391942
-0.318103
-0.31865
-0.318706
-0.318454
-0.317906
-0.317073
-0.315992
-0.31471
-0.313275
-0.31174
-0.310165
-0.308623
-0.307211
-0.306063
-0.305358
-0.305328
-0.306263
-0.308509
-0.312451
-0.318503
-0.327016
-0.338451
-0.352435
-0.370513
-0.388035
-0.316425
-0.316818
-0.316772
-0.316415
-0.315748
-0.314776
-0.313534
-0.312067
-0.310429
-0.308678
-0.306883
-0.305125
-0.30351
-0.302179
-0.301321
-0.301174
-0.302033
-0.304246
-0.308192
-0.314282
-0.322814
-0.334328
-0.348132
-0.366343
-0.383279
-0.314826
-0.315088
-0.31495
-0.314494
-0.313712
-0.312603
-0.3112
-0.309547
-0.307702
-0.305733
-0.303713
-0.301733
-0.29991
-0.298391
-0.297371
-0.297094
-0.297858
-0.300007
-0.303913
-0.309982
-0.318444
-0.329953
-0.343427
-0.361659
-0.377839
-0.313298
-0.313455
-0.313237
-0.31269
-0.311796
-0.310552
-0.308987
-0.307146
-0.305092
-0.302898
-0.300649
-0.298443
-0.296406
-0.294693
-0.293503
-0.293086
-0.293739
-0.295802
-0.299632
-0.30564
-0.313963
-0.325413
-0.338436
-0.356628
-0.371884
-0.311838
-0.311919
-0.311633
-0.311001
-0.31
-0.308622
-0.306894
-0.304862
-0.302596
-0.300174
-0.297691
-0.295255
-0.292999
-0.291087
-0.289723
-0.289159
-0.28969
-0.291653
-0.295385
-0.301305
-0.309442
-0.320804
-0.333287
-0.351416
-0.365579
-0.310448
-0.310481
-0.310139
-0.30943
-0.308326
-0.306815
-0.304923
-0.3027
-0.300218
-0.297565
-0.294845
-0.292175
-0.289697
-0.287584
-0.286045
-0.285331
-0.285737
-0.287594
-0.291218
-0.29704
-0.304966
-0.316229
-0.328108
-0.34617
-0.359073
-0.309131
-0.309146
-0.308759
-0.30798
-0.306776
-0.305134
-0.303079
-0.300663
-0.297965
-0.29508
-0.292121
-0.289217
-0.286519
-0.284205
-0.282492
-0.281633
-0.281917
-0.283671
-0.287189
-0.292914
-0.300623
-0.311781
-0.323022
-0.340987
-0.352501
-0.307898
-0.30792
-0.307501
-0.306657
-0.305357
-0.303585
-0.301368
-0.298761
-0.295847
-0.292732
-0.289537
-0.286401
-0.283486
-0.280979
-0.2791
-0.278104
-0.278278
-0.279942
-0.283365
-0.289002
-0.2965
-0.307538
-0.318135
-0.335893
-0.345964
-0.306761
-0.306815
-0.306372
-0.30547
-0.304076
-0.302176
-0.299799
-0.297004
-0.293879
-0.290538
-0.287113
-0.283755
-0.280632
-0.277943
-0.275911
-0.274794
-0.274875
-0.276467
-0.279814
-0.285375
-0.292678
-0.303547
-0.313521
-0.330839
-0.339512
-0.305738
-0.305844
-0.305385
-0.304428
-0.302943
-0.300919
-0.298385
-0.295406
-0.292078
-0.288521
-0.284877
-0.281308
-0.277993
-0.275138
-0.272973
-0.271756
-0.271768
-0.273311
-0.276603
-0.282093
-0.289212
-0.299823
-0.309205
-0.325719
-0.33309
-0.304848
-0.305022
-0.304553
-0.303543
-0.30197
-0.299824
-0.297139
-0.293985
-0.290464
-0.286704
-0.282857
-0.279095
-0.275609
-0.272611
-0.270338
-0.269048
-0.269015
-0.270532
-0.273786
-0.279195
-0.286125
-0.296341
-0.305146
-0.320419
-0.326572
-0.304117
-0.304367
-0.30389
-0.302829
-0.30117
-0.298906
-0.296078
-0.29276
-0.289059
-0.285114
-0.281086
-0.277155
-0.273523
-0.27041
-0.268056
-0.266721
-0.266669
-0.268175
-0.271395
-0.276691
-0.283395
-0.293043
-0.301231
-0.31485
-0.31982
-0.303571
-0.3039
-0.303414
-0.302302
-0.300559
-0.298181
-0.295219
-0.291749
-0.287888
-0.28378
-0.279594
-0.275523
-0.271775
-0.268577
-0.266172
-0.264818
-0.264765
-0.266264
-0.269434
-0.274554
-0.280951
-0.28984
-0.2973
-0.308974
-0.312775
-0.303237
-0.30364
-0.303142
-0.301977
-0.300153
-0.297665
-0.29458
-0.290975
-0.286974
-0.282727
-0.278414
-0.274232
-0.270399
-0.267147
-0.26472
-0.263365
-0.263319
-0.264794
-0.267869
-0.27272
-0.278684
-0.286626
-0.293188
-0.302785
-0.305396
-0.303145
-0.303608
-0.303091
-0.301871
-0.29997
-0.297371
-0.294179
-0.290457
-0.286338
-0.28198
-0.277569
-0.273309
-0.269423
-0.266144
-0.263714
-0.262368
-0.262317
-0.263728
-0.266632
-0.271089
-0.276463
-0.283286
-0.288768
-0.296298
-0.297693
-0.303322
-0.303825
-0.303279
-0.301997
-0.300011
-0.297328
-0.294033
-0.290212
-0.285999
-0.281558
-0.277078
-0.27277
-0.268858
-0.265575
-0.263153
-0.261808
-0.26172
-0.263
-0.265626
-0.269544
-0.27416
-0.279719
-0.283977
-0.289546
-0.289723
-0.303793
-0.304309
-0.303722
-0.302371
-0.300302
-0.297537
-0.294153
-0.290252
-0.285968
-0.281471
-0.276951
-0.272621
-0.268704
-0.265428
-0.26301
-0.261641
-0.261459
-0.262516
-0.264738
-0.267961
-0.271664
-0.275848
-0.278815
-0.282575
-0.28158
-0.30458
-0.305076
-0.304432
-0.303005
-0.300853
-0.298007
-0.294549
-0.290584
-0.286252
-0.28172
-0.277183
-0.272851
-0.268942
-0.265671
-0.263238
-0.261798
-0.261446
-0.262171
-0.263851
-0.266234
-0.268893
-0.271629
-0.273311
-0.275422
-0.273388
-0.305703
-0.30614
-0.305421
-0.303908
-0.301669
-0.298745
-0.295222
-0.291209
-0.286845
-0.282299
-0.277762
-0.273438
-0.269538
-0.266259
-0.263773
-0.262199
-0.261583
-0.261856
-0.262861
-0.264283
-0.265804
-0.267059
-0.267496
-0.268027
-0.265195
-0.307173
-0.307511
-0.306696
-0.305084
-0.302753
-0.299752
-0.296171
-0.292119
-0.287737
-0.28319
-0.278661
-0.274348
-0.270444
-0.267128
-0.264538
-0.262752
-0.261769
-0.261473
-0.261684
-0.262063
-0.262391
-0.262189
-0.261406
-0.260227
-0.256903
-0.309
-0.309194
-0.308262
-0.306536
-0.304104
-0.301024
-0.297386
-0.293303
-0.288909
-0.284366
-0.279847
-0.275536
-0.271606
-0.26821
-0.26545
-0.263364
-0.261909
-0.260937
-0.260263
-0.259559
-0.258685
-0.257123
-0.255139
-0.252036
-0.248264
-0.311186
-0.311192
-0.310121
-0.30826
-0.305718
-0.302552
-0.298857
-0.294742
-0.290339
-0.285797
-0.28128
-0.276952
-0.272963
-0.269432
-0.266428
-0.263949
-0.261922
-0.260188
-0.258571
-0.256782
-0.25474
-0.251962
-0.248844
-0.244137
-0.23921
-0.313731
-0.313506
-0.312266
-0.31026
-0.307589
-0.304327
-0.300568
-0.296417
-0.291999
-0.287452
-0.28292
-0.278546
-0.274452
-0.270723
-0.267393
-0.26443
-0.261745
-0.259185
-0.256601
-0.253758
-0.250621
-0.246774
-0.24259
-0.236867
-0.231144
-0.31663
-0.316132
-0.314701
-0.312525
-0.30971
-0.306339
-0.302505
-0.29831
-0.293867
-0.289298
-0.284727
-0.280269
-0.276014
-0.272015
-0.268275
-0.264744
-0.261332
-0.25791
-0.254366
-0.250527
-0.24639
-0.241608
-0.23653
-0.230067
-0.223694
-0.319877
-0.319068
-0.317421
-0.315052
-0.312074
-0.308578
-0.304657
-0.300404
-0.29592
-0.291307
-0.286664
-0.282074
-0.277595
-0.273248
-0.269016
-0.264844
-0.260657
-0.256361
-0.251891
-0.247129
-0.242098
-0.236511
-0.23069
-0.223662
-0.216902
-0.323467
-0.32231
-0.320422
-0.317838
-0.314676
-0.311038
-0.307013
-0.302685
-0.298139
-0.293453
-0.288696
-0.283917
-0.279142
-0.274368
-0.269567
-0.264696
-0.259707
-0.254551
-0.249207
-0.243604
-0.237784
-0.231507
-0.225071
-0.217608
-0.210541
-0.327391
-0.325856
-0.323702
-0.320881
-0.317515
-0.313716
-0.309569
-0.305147
-0.300513
-0.295717
-0.290794
-0.28576
-0.280612
-0.275331
-0.269894
-0.264282
-0.258485
-0.252501
-0.246345
-0.239986
-0.233474
-0.226606
-0.219658
-0.211842
-0.204535
-0.331646
-0.329704
-0.327262
-0.324182
-0.320593
-0.316615
-0.312326
-0.307786
-0.30303
-0.298079
-0.29293
-0.287566
-0.281963
-0.2761
-0.269973
-0.263595
-0.257003
-0.250234
-0.243335
-0.236302
-0.229183
-0.221809
-0.214426
-0.20632
-0.198806
-0.336228
-0.333853
-0.331104
-0.327746
-0.323914
-0.319738
-0.315288
-0.3106
-0.305684
-0.300522
-0.295075
-0.2893
-0.283161
-0.276649
-0.26979
-0.262641
-0.255279
-0.247778
-0.240204
-0.23257
-0.224919
-0.217107
-0.209351
-0.201001
-0.193303
-0.341137
-0.338306
-0.335231
-0.331578
-0.327488
-0.323096
-0.318459
-0.313592
-0.308467
-0.303028
-0.297204
-0.290931
-0.284178
-0.27696
-0.269343
-0.26143
-0.253334
-0.245156
-0.236971
-0.228801
-0.220683
-0.212489
-0.204409
-0.19585
-0.346373
-0.343065
-0.33965
-0.335687
-0.331323
-0.326697
-0.321848
-0.31676
-0.311368
-0.305577
-0.299288
-0.29243
-0.28499
-0.277021
-0.268635
-0.259977
-0.251189
-0.242387
-0.233651
-0.225003
-0.21647
-0.207941
-0.199576
-0.190837
-0.351939
-0.348133
-0.344365
-0.340083
-0.335431
-0.330552
-0.325459
-0.320102
-0.314374
-0.308146
-0.301299
-0.293771
-0.28558
-0.276828
-0.267674
-0.258298
-0.248862
-0.239488
-0.230253
-0.221177
-0.212274
-0.203447
-0.194829
-0.357836
-0.353515
-0.349384
-0.344772
-0.339821
-0.334666
-0.329293
-0.323608
-0.317466
-0.310706
-0.303207
-0.294929
-0.285936
-0.276382
-0.266471
-0.25641
-0.246369
-0.236471
-0.226782
-0.21732
-0.208084
-0.198993
-0.190149
-0.364064
-0.359211
-0.354711
-0.349763
-0.3445
-0.339044
-0.333344
-0.327264
-0.320619
-0.313229
-0.304983
-0.295883
-0.286048
-0.275687
-0.265038
-0.254325
-0.243723
-0.233342
-0.22324
-0.213426
-0.203891
-0.194562
-0.185517
-0.370622
-0.365222
-0.360348
-0.355058
-0.349469
-0.343682
-0.337602
-0.331048
-0.323802
-0.31568
-0.306599
-0.296616
-0.285912
-0.274746
-0.263384
-0.252056
-0.24093
-0.230105
-0.219624
-0.209489
-0.199683
-0.19014
-0.180914
-0.377504
-0.371544
-0.366294
-0.360657
-0.354724
-0.348568
-0.342046
-0.334929
-0.326979
-0.318023
-0.308026
-0.297111
-0.285524
-0.273565
-0.261517
-0.24961
-0.237995
-0.226758
-0.215929
-0.205501
-0.195448
-0.185712
-0.384699
-0.378168
-0.372541
-0.366552
-0.360255
-0.353686
-0.346647
-0.338871
-0.330108
-0.32022
-0.309237
-0.297355
-0.284881
-0.272147
-0.259444
-0.24699
-0.234919
-0.2233
-0.212149
-0.201451
-0.191174
-0.181264
-0.392191
-0.385082
-0.379078
-0.372731
-0.366044
-0.359007
-0.351368
-0.342827
-0.333145
-0.322235
-0.310206
-0.297335
-0.28398
-0.270495
-0.257167
-0.244197
-0.231699
-0.219724
-0.208275
-0.197329
-0.186848
-0.176783
-0.399957
-0.392265
-0.385887
-0.379172
-0.372063
-0.364495
-0.356163
-0.346748
-0.336041
-0.324028
-0.31091
-0.29704
-0.282817
-0.268607
-0.254685
-0.241229
-0.228331
-0.216023
-0.204298
-0.193124
-0.18246
-0.172256
-0.407966
-0.399691
-0.392942
-0.385847
-0.378276
-0.370105
-0.360979
-0.350578
-0.338746
-0.325563
-0.311326
-0.296456
-0.281387
-0.266482
-0.251995
-0.23808
-0.224806
-0.212189
-0.200208
-0.188827
-0.177997
-0.416179
-0.407327
-0.40021
-0.392719
-0.384637
-0.37578
-0.365754
-0.354257
-0.341211
-0.326804
-0.311431
-0.295573
-0.279683
-0.264112
-0.249091
-0.234743
-0.221118
-0.208212
-0.195995
-0.184425
-0.173448
-0.424552
-0.415131
-0.407649
-0.399741
-0.391094
-0.38146
-0.370422
-0.357723
-0.343386
-0.327716
-0.311202
-0.294376
-0.277696
-0.261491
-0.245964
-0.23121
-0.217254
-0.204081
-0.191649
-0.179908
-0.168801
-0.433029
-0.423055
-0.41521
-0.406859
-0.397581
-0.387073
-0.374913
-0.360915
-0.345222
-0.328266
-0.31062
-0.292852
-0.275414
-0.258608
-0.242604
-0.227468
-0.213206
-0.199786
-0.187158
-0.175265
-0.164047
-0.441549
-0.431041
-0.422833
-0.414007
-0.404027
-0.392544
-0.379153
-0.363768
-0.346672
-0.32842
-0.309662
-0.290985
-0.272825
-0.255452
-0.238999
-0.223508
-0.208961
-0.195315
-0.182511
-0.170486
-0.159175
-0.450042
-0.439024
-0.430454
-0.421115
-0.410355
-0.397791
-0.383067
-0.366221
-0.347689
-0.328147
-0.308306
-0.288759
-0.269916
-0.252009
-0.235137
-0.219315
-0.204508
-0.190658
-0.177699
-0.16556
-0.154175
-0.458431
-0.446933
-0.437997
-0.428101
-0.416477
-0.402729
-0.386578
-0.368213
-0.348231
-0.327418
-0.306531
-0.286157
-0.266671
-0.248264
-0.231004
-0.214878
-0.199834
-0.185803
-0.17271
-0.160479
-0.149039
-0.466632
-0.454687
-0.445381
-0.434879
-0.422304
-0.407271
-0.389612
-0.369687
-0.348255
-0.326203
-0.304316
-0.283161
-0.263073
-0.244204
-0.226586
-0.210184
-0.194928
-0.18074
-0.167535
-0.155232
-0.143756
-0.474555
-0.462201
-0.452516
-0.441354
-0.427741
-0.411329
-0.392095
-0.370587
-0.347723
-0.324473
-0.301637
-0.279751
-0.259106
-0.239812
-0.221869
-0.205219
-0.189779
-0.175457
-0.162164
-0.149812
-0.13832
-0.482105
-0.469383
-0.459308
-0.44743
-0.432691
-0.414817
-0.393956
-0.37086
-0.346596
-0.322202
-0.298474
-0.27591
-0.254753
-0.235073
-0.216838
-0.199971
-0.184374
-0.169946
-0.156588
-0.144209
-0.489183
-0.476135
-0.465658
-0.453004
-0.437057
-0.41765
-0.39513
-0.370458
-0.344841
-0.319363
-0.294805
-0.271618
-0.249997
-0.229971
-0.211481
-0.194429
-0.178704
-0.164196
-0.150799
-0.138416
-0.495686
-0.482357
-0.471463
-0.457973
-0.440743
-0.419744
-0.395552
-0.369336
-0.342423
-0.315931
-0.290608
-0.266857
-0.244821
-0.224492
-0.205784
-0.18858
-0.172758
-0.158199
-0.14479
-0.132427
-0.501508
-0.487946
-0.476617
-0.462235
-0.443653
-0.421024
-0.395165
-0.36745
-0.339313
-0.311881
-0.285865
-0.26161
-0.239211
-0.218622
-0.199735
-0.182415
-0.166528
-0.151947
-0.138552
-0.126235
-0.506546
-0.492797
-0.481015
-0.465685
-0.445698
-0.421415
-0.393914
-0.364764
-0.335483
-0.307193
-0.280556
-0.255859
-0.23315
-0.212348
-0.193322
-0.175923
-0.160005
-0.145433
-0.132081
-0.119835
-0.510694
-0.496806
-0.484553
-0.468226
-0.44679
-0.42085
-0.391751
-0.361243
-0.330907
-0.301845
-0.274663
-0.249589
-0.226625
-0.205659
-0.186536
-0.169096
-0.153182
-0.138651
-0.125371
-0.113223
-0.513849
-0.49987
-0.487127
-0.469761
-0.44685
-0.41927
-0.388634
-0.356857
-0.325562
-0.29582
-0.268171
-0.242786
-0.219624
-0.198542
-0.179368
-0.161927
-0.146053
-0.131596
-0.118418
-0.106394
-0.0954106
-0.515912
-0.501889
-0.48864
-0.4702
-0.445805
-0.416619
-0.384525
-0.351579
-0.319429
-0.289099
-0.261064
-0.235438
-0.212136
-0.190991
-0.171811
-0.15441
-0.138614
-0.124264
-0.111218
-0.0993468
-0.0885306
-0.516788
-0.502766
-0.488998
-0.469461
-0.443587
-0.412851
-0.379391
-0.345387
-0.312491
-0.28167
-0.253332
-0.227533
-0.204152
-0.182997
-0.163859
-0.14654
-0.13086
-0.116653
-0.10377
-0.0920794
-0.0814551
-0.516386
-0.502411
-0.488114
-0.467469
-0.44014
-0.407926
-0.373207
-0.338264
-0.304735
-0.273521
-0.244964
-0.219064
-0.195666
-0.174555
-0.155507
-0.138315
-0.12279
-0.108761
-0.0960737
-0.0845913
-0.0741843
-0.514625
-0.500741
-0.485909
-0.464155
-0.435414
-0.40181
-0.365952
-0.330195
-0.296149
-0.264644
-0.235952
-0.210025
-0.186673
-0.165661
-0.146753
-0.129732
-0.114403
-0.100587
-0.511431
-0.497679
-0.482312
-0.459463
-0.429369
-0.39448
-0.357611
-0.321171
-0.286726
-0.255032
-0.226293
-0.200411
-0.17717
-0.156314
-0.137597
-0.506736
-0.493158
-0.477261
-0.453345
-0.421974
-0.385917
-0.348174
-0.311187
-0.276465
-0.244684
-0.215983
-0.190222
-0.500485
-0.48712
-0.470706
-0.445764
-0.413205
-0.376111
-0.33764
-0.300243
-0.265364
-0.2336
-0.492631
-0.479517
-0.462606
-0.436691
-0.403051
-0.365059
-0.326009
-0.288343
-0.483138
-0.470314
-0.452932
-0.426111
-0.391506
-0.352764
-0.471982
-0.459482
-0.441665
-0.414017
-0.378575
-0.45915
-0.447009
-0.428797
-0.444639
-0.342271
-0.344663
-0.345896
-0.346833
-0.347626
-0.348331
-0.34902
-0.349736
-0.392901
-0.405462
-0.418157
-0.429957
-0.439453
-0.445242
-0.445911
-0.401651
-0.41674
-0.43178
-0.445559
-0.456608
-0.463521
-0.465066
-0.409016
-0.426218
-0.443279
-0.458763
-0.471163
-0.479068
-0.48114
-0.414748
-0.433803
-0.452497
-0.469415
-0.482986
-0.491775
-0.494372
-0.489531
-0.418807
-0.439367
-0.459354
-0.477455
-0.492022
-0.50162
-0.504713
-0.500148
-0.421152
-0.442888
-0.463869
-0.482909
-0.498289
-0.508629
-0.512172
-0.507921
-0.421788
-0.444423
-0.466131
-0.485876
-0.501879
-0.51258
-0.516809
-0.512925
-0.420784
-0.444084
-0.466285
-0.486532
-0.503015
-0.514183
-0.518823
-0.515298
-0.418259
-0.442016
-0.464515
-0.485089
-0.501967
-0.51346
-0.518416
-0.515213
-0.414375
-0.438409
-0.461029
-0.481766
-0.499113
-0.510653
-0.515798
-0.512855
-0.409348
-0.433484
-0.456047
-0.476729
-0.494621
-0.505912
-0.511158
-0.508416
-0.403432
-0.427484
-0.449816
-0.470145
-0.486823
-0.499269
-0.504674
-0.50209
-0.396884
-0.42065
-0.44261
-0.462566
-0.479011
-0.491205
-0.496577
-0.49407
-0.389933
-0.413181
-0.434603
-0.454371
-0.470278
-0.481923
-0.487061
-0.484529
-0.473199
-0.382746
-0.405224
-0.425808
-0.445351
-0.46054
-0.471518
-0.476267
-0.473627
-0.462483
-0.375401
-0.396895
-0.416429
-0.434362
-0.449703
-0.460022
-0.46432
-0.461519
-0.450575
-0.367877
-0.388184
-0.407073
-0.423846
-0.438048
-0.447544
-0.451346
-0.448362
-0.437663
-0.360079
-0.378875
-0.396819
-0.412699
-0.425608
-0.434185
-0.437471
-0.434328
-0.423949
-0.351911
-0.36947
-0.385936
-0.400731
-0.412376
-0.42007
-0.422856
-0.419612
-0.40965
-0.392812
-0.343106
-0.359508
-0.374433
-0.387979
-0.398475
-0.405349
-0.407688
-0.404431
-0.394993
-0.379238
-0.333658
-0.347358
-0.362236
-0.374628
-0.384048
-0.390208
-0.392185
-0.389018
-0.380204
-0.365616
-0.323847
-0.335958
-0.349605
-0.360872
-0.369313
-0.374869
-0.376584
-0.373607
-0.365503
-0.352135
-0.31371
-0.324268
-0.336744
-0.34694
-0.35452
-0.359576
-0.361125
-0.358424
-0.351086
-0.338959
-0.322232
-0.303419
-0.31251
-0.323894
-0.333045
-0.339915
-0.344562
-0.346027
-0.343664
-0.33712
-0.326225
-0.311101
-0.293127
-0.300966
-0.311296
-0.319439
-0.325714
-0.330028
-0.331469
-0.329481
-0.323729
-0.314028
-0.300438
-0.283021
-0.289904
-0.299152
-0.306344
-0.312097
-0.316133
-0.317588
-0.315981
-0.310993
-0.30242
-0.290271
-0.27479
-0.273508
-0.279568
-0.287621
-0.29394
-0.299232
-0.303031
-0.304526
-0.303291
-0.29902
-0.291495
-0.280677
-0.266731
-0.264779
-0.270091
-0.276829
-0.282334
-0.287216
-0.290824
-0.292391
-0.291533
-0.287953
-0.281423
-0.271866
-0.259375
-0.256922
-0.261512
-0.266614
-0.271236
-0.275679
-0.279087
-0.280731
-0.280251
-0.277351
-0.271801
-0.263485
-0.252433
-0.249984
-0.253685
-0.257014
-0.260676
-0.264589
-0.267639
-0.269157
-0.268797
-0.266273
-0.261353
-0.2539
-0.243898
-0.231467
-0.243603
-0.249215
-0.250123
-0.252802
-0.256159
-0.258751
-0.259873
-0.259179
-0.256425
-0.251407
-0.243998
-0.234187
-0.222086
-0.231216
-0.236259
-0.238798
-0.240734
-0.243228
-0.245159
-0.245683
-0.24448
-0.241397
-0.236292
-0.229061
-0.21969
-0.208278
-0.21997
-0.226298
-0.227759
-0.22871
-0.230345
-0.231636
-0.231644
-0.230041
-0.226739
-0.221647
-0.214679
-0.205812
-0.195124
-0.204207
-0.210613
-0.201361
-0.217379
-0.207525
-0.224539
-0.213811
-0.20213
-0.232507
-0.220642
-0.208902
)
;

boundaryField
{
    inlet
    {
        type            zeroGradient;
    }
    outlet
    {
        type            fixedValue;
        value           nonuniform 0();
    }
    cylinder
    {
        type            zeroGradient;
    }
    top
    {
        type            symmetryPlane;
    }
    bottom
    {
        type            symmetryPlane;
    }
    defaultFaces
    {
        type            empty;
    }
    procBoundary9to5
    {
        type            processor;
        value           nonuniform List<scalar> 
33
(
-0.350498
-0.351306
-0.352149
-0.353004
-0.353847
-0.354652
-0.355401
-0.356089
-0.356726
-0.357358
-0.358066
-0.358982
-0.360298
-0.362271
-0.365217
-0.369357
-0.374995
-0.345763
-0.348258
-0.349577
-0.35062
-0.351549
-0.352422
-0.353314
-0.354264
-0.350498
-0.383001
-0.392624
-0.402648
-0.412178
-0.419905
-0.424489
-0.424574
)
;
    }
    procBoundary9to6
    {
        type            processor;
        value           uniform -0.440692;
    }
    procBoundary9to8
    {
        type            processor;
        value           nonuniform List<scalar> 
29
(
-0.088128
-0.0768837
-0.120792
-0.105698
-0.088128
-0.0921339
-0.167156
-0.146514
-0.120792
-0.128039
-0.205026
-0.167156
-0.179459
-0.253429
-0.205026
-0.221785
-0.313289
-0.253429
-0.275494
-0.313289
-0.339239
-0.400412
-0.339239
-0.364271
-0.432891
-0.400412
-0.414333
-0.432891
-0.428458
)
;
    }
    procBoundary9to10
    {
        type            processor;
        value           nonuniform List<scalar> 
38
(
-0.459735
-0.476046
-0.476046
-0.476374
-0.486932
-0.494756
-0.49991
-0.502502
-0.502673
-0.500586
-0.496415
-0.490341
-0.482543
-0.482543
-0.452553
-0.442398
-0.431139
-0.418979
-0.406131
-0.406131
-0.369551
-0.357563
-0.345582
-0.333761
-0.333761
-0.301458
-0.292187
-0.283296
-0.283296
-0.256431
-0.250009
-0.244212
-0.238823
-0.238823
-0.216851
-0.207927
-0.195023
-0.182777
)
;
    }
    procBoundary9to12
    {
        type            processor;
        value           nonuniform List<scalar> 2(-0.0647398 -0.0667196);
    }
    procBoundary9to13
    {
        type            processor;
        value           nonuniform List<scalar> 
58
(
-0.198091
-0.192229
-0.187987
-0.18659
-0.187987
-0.182824
-0.185935
-0.185935
-0.18112
-0.176371
-0.171668
-0.176325
-0.176325
-0.171734
-0.167127
-0.162491
-0.16767
-0.16767
-0.163015
-0.158278
-0.15345
-0.148521
-0.14348
-0.13832
-0.133032
-0.127609
-0.132722
-0.132722
-0.126956
-0.121016
-0.114895
-0.10859
-0.102096
-0.102096
-0.0853596
-0.0786592
-0.0717856
-0.209367
-0.215646
-0.216638
-0.216935
-0.217893
-0.218646
-0.218251
-0.21636
-0.212919
-0.207881
-0.201176
-0.192781
-0.182755
-0.198091
-0.195413
-0.195413
-0.190378
-0.196064
-0.196064
-0.192707
-0.19907
)
;
    }
}


// ************************************************************************* //
