/*--------------------------------*- C++ -*----------------------------------*\
  =========                 |
  \\      /  F ield         | OpenFOAM: The Open Source CFD Toolbox
   \\    /   O peration     | Website:  https://openfoam.org
    \\  /    A nd           | Version:  7
     \\/     M anipulation  |
\*---------------------------------------------------------------------------*/
FoamFile
{
    version     2.0;
    format      ascii;
    class       surfaceScalarField;
    location    "85";
    object      phi;
}
// * * * * * * * * * * * * * * * * * * * * * * * * * * * * * * * * * * * * * //

dimensions      [0 3 -1 0 0 0 0];

internalField   nonuniform List<scalar> 
3878
(
0.00600202
-0.00177337
0.00612034
-0.00169105
0.00623468
-0.00160686
-0.0014106
0.00609244
0.00634485
-0.00152077
-0.00132703
0.00619487
0.00645075
-0.00143293
-0.00114377
0.00604335
-0.00124186
0.00629295
0.00655236
-0.00134347
-0.00106144
0.00613328
-0.00115515
0.00638666
0.00664961
-0.0012524
-0.000977677
0.00621893
-0.00106696
0.00647594
0.00674243
-0.00115978
-0.000811219
0.00605159
-0.00089253
0.00630024
-0.000977342
0.00656075
0.00683077
-0.00106568
-0.000729141
0.00612509
-0.000806057
0.00637716
-0.000886359
0.00664105
0.00691456
-0.000970148
-0.000645842
0.0061943
-0.000718317
0.00644964
-0.000794064
0.0067168
0.00699374
-0.000873241
-0.000561375
0.00625919
-0.000629366
0.00651763
-0.000700515
0.00678795
0.00706823
-0.000775014
-0.000415288
0.0060716
-0.000475795
0.0063197
-0.00053926
0.00658109
-0.000605767
0.00685446
0.00713799
-0.000675526
-0.000333067
0.00612489
-0.000389155
0.00637578
-0.000448057
0.00663999
-0.000509881
0.00691628
0.00720295
-0.000574838
-0.00024988
0.00617389
-0.000301509
0.00642741
-0.000355812
0.00669429
-0.000412917
0.00697339
0.00726304
-0.000473011
-0.000165779
0.00621854
-0.000212912
0.00647455
-0.000262578
0.00674396
-0.000314939
0.00702575
0.00731822
-0.000370115
-8.08146e-05
0.00625882
-0.000123418
0.00651715
-0.000168406
0.00678895
-0.00021601
0.00707335
0.00736843
-0.00026622
4.94901e-06
0.00629471
-3.3096e-05
0.00655519
-7.33469e-05
0.0068292
-0.000116162
0.00711617
0.00741372
-0.000161456
0.000122945
9.1492e-05
5.80251e-05
0.00658866
2.2512e-05
0.00686471
-1.50844e-05
0.00715376
0.00745474
-5.60962e-05
0.000149875
0.000119105
8.61524e-05
5.05714e-05
-0.00471912
0.00160959
0.00475989
-0.00469596
0.00151126
-0.00467792
0.0015096
-0.00466841
0.0014158
-0.00466599
0.00137657
-0.00466768
0.00128692
-0.00467449
0.00122795
-0.00468369
0.0011409
-0.00469599
0.0010729
-0.0047095
0.000988757
-0.00472451
0.000918206
-0.00473978
0.000838144
-0.00475542
0.000768955
-0.00477062
0.000694044
-0.00478542
0.000628425
-0.00479929
0.000559233
-0.00481227
0.000498158
-0.00482404
0.000434542
-0.00483464
0.000377862
-0.00484384
0.000318854
-0.0048517
0.000265344
-0.004858
0.000208782
-0.00486276
0.000155198
-0.00486574
9.59602e-05
3.47472e-05
-0.00492256
0.0015691
0.00496306
-0.00489761
0.00148631
-0.00487642
0.00148841
-0.00486435
0.00140373
-0.00485851
0.00137073
-0.00485764
0.00128605
-0.00486185
0.00123215
-0.00486894
0.00114799
-0.00487935
0.00108331
-0.00489129
0.0010007
-0.00490499
0.000931912
-0.0049192
0.000852351
-0.00493399
0.000783748
-0.00494852
0.000708568
-0.0049628
0.000642711
-0.00497628
0.000572712
-0.00498898
0.00051086
-0.00500054
0.000446098
-0.005011
0.000388318
-0.0050201
0.000327959
-0.00502789
0.000273135
-0.00503415
0.000215042
-0.00503889
0.000159932
-0.00504185
9.89259e-05
3.58298e-05
-0.00513376
0.00152939
0.00517346
-0.00510632
0.00145887
-0.00508267
0.00146476
-0.00506813
0.00138919
-0.00505908
0.00136167
-0.00505568
0.00128266
-0.00505719
0.00123366
-0.00506208
0.00115289
-0.00507044
0.00109166
-0.00508067
0.00101093
-0.00509291
0.000944146
-0.0051059
0.000865342
-0.0051197
0.000797547
-0.00513342
0.000722286
-0.00514707
0.000656366
-0.00516005
0.000585693
-0.00517238
0.000523189
-0.00518365
0.000457367
-0.0051939
0.000398568
-0.00520285
0.000336908
-0.00521053
0.00028082
-0.00521672
0.000221227
-0.00522141
0.00016462
-0.00522434
0.000101862
3.69024e-05
-0.00535237
0.00149006
0.0053917
-0.00532275
0.00142925
-0.00529697
0.00143898
-0.00527994
0.00137216
-0.0052679
0.00134963
-0.00526195
0.00127672
-0.0052607
0.0012324
-0.00526332
0.00115551
-0.00526947
0.00109782
-0.00527787
0.00101933
-0.00528847
0.00095475
-0.00530011
0.000876977
-0.00531277
0.000810208
-0.00532555
0.00073507
-0.00533846
0.000669271
-0.00535083
0.000598071
-0.0053627
0.000535051
-0.0053736
0.000468269
-0.00538358
0.000408545
-0.00539232
0.000345649
-0.00539985
0.000288356
-0.00540593
0.000227302
-0.00541055
0.000169238
-0.00541344
0.000104754
3.79609e-05
-0.00557852
0.0014505
0.00561809
-0.00554711
0.00139784
-0.00551946
0.00141133
-0.00549995
0.00135266
-0.00548513
0.00133481
-0.0054766
0.00126819
-0.00547258
0.00122838
-0.00547283
0.00115576
-0.00547666
0.00110165
-0.00548311
0.00102578
-0.00549193
0.000963569
-0.00550208
0.000887124
-0.00551345
0.000821586
-0.00552518
0.000746796
-0.00553721
0.000681304
-0.00554888
0.000609741
-0.00556019
0.000546354
-0.00557064
0.000478726
-0.00558028
0.000418182
-0.00558875
0.000354123
-0.0055961
0.000295698
-0.00560203
0.000233232
-0.00560655
0.000173762
-0.00560938
0.000107587
3.90001e-05
-0.00581256
0.00141039
0.00585267
-0.00577961
0.00136488
-0.00575025
0.00138197
-0.00572835
0.00133076
-0.00571092
0.00131738
-0.00569979
0.00125706
-0.00569302
0.00122161
-0.00569084
0.00115358
-0.00569225
0.00110306
-0.00569663
0.00103017
-0.00570353
0.000970466
-0.00571207
0.000895658
-0.00572202
0.000831541
-0.00573257
0.000757343
-0.00574361
0.000692343
-0.00575447
0.0006206
-0.00576511
0.000556999
-0.00577504
0.000488655
-0.00578427
0.000427406
-0.00579242
0.000362273
-0.00579952
0.000302797
-0.00580526
0.00023898
-0.00580967
0.000178164
-0.00581242
0.000110343
4.00146e-05
-0.00605477
0.00136963
0.00609553
-0.00602045
0.00133056
-0.00598946
0.00135099
-0.0059653
0.00130659
-0.00594542
0.00129751
-0.0059317
0.00124333
-0.00592223
0.00121214
-0.00591755
0.0011489
-0.00591647
0.00110198
-0.0059187
0.00103239
-0.00592355
0.000975319
-0.00593035
0.00090246
-0.00593875
0.00083994
-0.005948
0.000766594
-0.00595792
0.000702268
-0.00596787
0.000630544
-0.00597776
0.000566887
-0.00598707
0.000497972
-0.00599581
0.000436142
-0.00600357
0.000370035
-0.00601038
0.000309603
-0.0060159
0.000244506
-0.00602015
0.000182416
-0.00602282
0.000113005
4.0998e-05
-0.00630536
0.00132822
0.00634677
-0.00626981
0.001295
-0.00623728
0.00131846
-0.00621099
0.00128031
-0.0061888
0.00127531
-0.00617252
0.00122705
-0.00616041
0.00120003
-0.00615319
0.00114169
-0.00614959
0.00109838
-0.00614955
0.00103235
-0.00615226
0.000978024
-0.00615721
0.000907416
-0.00616393
0.000846654
-0.00617177
0.000774431
-0.00618045
0.000710954
-0.00618937
0.000639467
-0.0061984
0.000575913
-0.00620702
0.00050659
-0.00621519
0.00044431
-0.0062225
0.000377346
-0.00622895
0.000316058
-0.00623421
0.000249766
-0.00623828
0.000186484
-0.00624083
0.000115551
4.19431e-05
-0.00656454
0.0012862
0.00660656
-0.00652788
0.00125834
-0.00649388
0.00128446
-0.00646562
0.00125205
-0.00644122
0.0012509
-0.00642246
0.00120829
-0.00640777
0.00118534
-0.00639799
0.00113191
-0.00639185
0.00109224
-0.00638948
0.00102998
-0.00638995
0.000978495
-0.00639295
0.000910415
-0.00639786
0.000851567
-0.00640417
0.000780738
-0.0064115
0.00071828
-0.00641929
0.000647261
-0.00642735
0.00058397
-0.00643518
0.000514419
-0.00644269
0.000451823
-0.00644948
0.000384137
-0.00645552
0.000322102
-0.00646047
0.000254716
-0.00646432
0.000190333
-0.00646673
0.000117962
4.28422e-05
-0.00683251
0.00124362
0.00687509
-0.00679485
0.00122068
-0.00675948
0.00124909
-0.0067294
0.00122197
-0.00670289
0.0012244
-0.00668175
0.00118715
-0.00666455
0.00116814
-0.00665222
0.00111958
-0.00664353
0.00108355
-0.00663876
0.00102521
-0.00663692
0.000976659
-0.00663786
0.000911355
-0.00664086
0.000854567
-0.00664552
0.0007854
-0.00665137
0.000724128
-0.00665793
0.000653815
-0.00666491
0.000590949
-0.00667185
0.000521364
-0.00667862
0.000458594
-0.00668482
0.000390334
-0.00669039
0.00032767
-0.00669498
0.000259306
-0.00669857
0.000193924
-0.00670082
0.000120214
4.36866e-05
-0.00710948
0.00120055
0.00715255
-0.00707093
0.00118214
-0.00703429
0.00121244
-0.00700253
0.00119021
-0.00697403
0.00119591
-0.00695061
0.00116373
-0.00693098
0.00114851
-0.00691612
0.00110472
-0.00690489
0.00107232
-0.00689767
0.00101799
-0.00689347
0.000972457
-0.00689226
0.000910142
-0.00689325
0.000855554
-0.00689615
0.000788303
-0.0069004
0.00072838
-0.0069056
0.000659019
-0.00691139
0.000596739
-0.00691736
0.000527328
-0.00692329
0.000464529
-0.00692882
0.000395862
-0.00693385
0.000332694
-0.00693803
0.000263485
-0.00694132
0.000197216
-0.00694339
0.000122284
4.44666e-05
-0.00739569
0.00115707
0.00743917
-0.00735636
0.00114281
-0.00731855
0.00117463
-0.00728524
0.0011569
-0.00725488
0.00116554
-0.00722929
0.00113814
-0.00720731
0.00112653
-0.00718997
0.00108738
-0.00717621
0.00105856
-0.00716651
0.00100829
-0.0071599
0.000965844
-0.00715645
0.000906693
-0.00715533
0.000854436
-0.00715637
0.000789338
-0.00715891
0.000730925
-0.00716265
0.000662759
-0.00716714
0.00060123
-0.00717202
0.000532211
-0.00717703
0.000469533
-0.00718181
0.00040064
-0.00718621
0.000337101
-0.00718993
0.000267198
-0.00719288
0.000200165
-0.00719474
0.000124146
4.51721e-05
-0.0076914
0.00111327
0.0077352
-0.00765137
0.00110278
-0.00761251
0.00113577
-0.00757778
0.00112217
-0.00754566
0.00113342
-0.00751803
0.00111051
-0.00749378
0.00110227
-0.00747402
0.00106762
-0.00745776
0.00104231
-0.00744557
0.000996102
-0.00743651
0.000956784
-0.00743075
0.000900934
-0.00742745
0.00085113
-0.00742651
0.0007884
-0.00742724
0.000731655
-0.00742941
0.000664924
-0.00743248
0.000604309
-0.00743618
0.000535909
-0.00744016
0.000473507
-0.0074441
0.000404585
-0.00744782
0.000340816
-0.00745101
0.000270388
-0.00745357
0.000202725
-0.00745519
0.000125775
4.57919e-05
-0.00799687
0.00106922
0.00804092
-0.00795623
0.00106214
-0.00791643
0.00109597
-0.0078804
0.00108614
-0.00784665
0.00109967
-0.00781709
0.00108095
-0.00779066
0.00107585
-0.00776855
0.0010455
-0.00774983
0.00102359
-0.00773515
0.000981422
-0.00772362
0.000945253
-0.0077155
0.000892806
-0.00770993
0.000845563
-0.00770692
0.000785392
-0.00770573
0.000730468
-0.00770621
0.000665401
-0.00770777
0.000605867
-0.00771018
0.000538316
-0.00771302
0.000476352
-0.00771605
0.000407609
-0.00771899
0.000343761
-0.0077216
0.000272993
-0.00772372
0.000204845
-0.00772508
0.00012714
4.63143e-05
-0.00831238
0.00102499
0.00835661
-0.00827122
0.00102098
-0.00823059
0.00105534
-0.00819337
0.00104893
-0.00815811
0.00106441
-0.00812673
0.00104957
-0.00809823
0.00104735
-0.00807384
0.00102111
-0.00805271
0.00100247
-0.00803556
0.000964268
-0.00802154
0.00093124
-0.008011
0.000882263
-0.00800311
0.000837672
-0.00799794
0.000780224
-0.00799474
0.000727268
-0.00799342
0.000664081
-0.00799335
0.000605798
-0.00799436
0.000539326
-0.00799598
0.000477967
-0.00799799
0.000409623
-0.00800009
0.000345856
-0.00800204
0.000274951
-0.00800367
0.000206475
-0.00800475
0.000128213
4.67268e-05
-0.00863824
0.000980645
0.00868258
-0.00859663
0.000979372
-0.00855526
0.00101397
-0.00851697
0.00101063
-0.00848031
0.00102776
-0.00844722
0.00101648
-0.00841675
0.00101687
-0.00839017
0.000994533
-0.00836669
0.000978986
-0.00834709
0.000944667
-0.00833059
0.000914743
-0.0083176
0.000869272
-0.00830733
0.000827401
-0.00829992
0.000772814
-0.00829462
0.000721964
-0.0082914
0.000660861
-0.00828959
0.000603996
-0.0082891
0.000538832
-0.00828938
0.000478251
-0.0082903
0.000410535
-0.00829146
0.000347017
-0.0082927
0.000276194
-0.00829379
0.000207561
-0.00829454
0.000128963
4.70167e-05
-0.00897475
0.000936251
0.00901914
-0.00893276
0.000937387
-0.00889076
0.000971968
-0.00885148
0.000971355
-0.00881355
0.000989823
-0.00877886
0.000981793
-0.00874652
0.000984533
-0.00871784
0.000965846
-0.00869207
0.000953219
-0.00867006
0.000922656
-0.00865109
0.000895774
-0.00863563
0.000853812
-0.00862294
0.000814709
-0.00861322
0.000763094
-0.00860573
0.000714475
-0.00860051
0.00065564
-0.00859687
0.00060036
-0.00859477
0.000536727
-0.00859362
0.000477106
-0.00859334
0.00041025
-0.00859348
0.000347163
-0.00859394
0.000276654
-0.00859443
0.000208051
-0.00859482
0.000129357
4.71706e-05
-0.00932224
0.000891856
0.00936664
-0.00927995
0.000895089
-0.00923739
0.000929409
-0.00919723
0.000931193
-0.00915812
0.000950715
-0.00912194
0.000945619
-0.00908784
0.000950431
-0.00905714
0.000935144
-0.00902916
0.000925239
-0.00900479
0.000898283
-0.00898337
0.000874354
-0.00896543
0.000835873
-0.00895028
0.000799562
-0.00893819
0.000751002
-0.00892844
0.000704726
-0.00892113
0.000648326
-0.00891556
0.000594796
-0.00891174
0.000532907
-0.00890907
0.000474432
-0.00890749
0.000408674
-0.00890654
0.00034621
-0.00890615
0.00027626
-0.00890598
0.000207887
-0.00890599
0.00012936
4.71752e-05
-0.00968107
0.000847501
0.00972543
-0.00963852
0.000852535
-0.00959548
0.000886371
-0.00955452
0.000890232
-0.00951434
0.000910534
-0.00947678
0.000908056
-0.00944101
0.00091467
-0.00940839
0.000902517
-0.00937827
0.000895123
-0.00935159
0.000871602
-0.00932775
0.000850515
-0.00930734
0.000815459
-0.00928972
0.00078194
-0.00927521
0.000736492
-0.00926313
0.000692654
-0.00925364
0.000638833
-0.00924606
0.000587212
-0.00924042
0.000527273
-0.00923612
0.000470135
-0.00923316
0.000405711
-0.00923103
0.000344075
-0.00922971
0.000274941
-0.00922884
0.000207016
-0.00922841
0.000128939
4.7017e-05
-0.0100516
0.000803221
0.0100959
-0.0100088
0.000809771
-0.00996538
0.000842921
-0.0099237
0.000848552
-0.00988254
0.000869374
-0.00984369
0.000869202
-0.00980637
0.000877351
-0.00977191
0.000868057
-0.00973974
0.000862954
-0.00971081
0.000842674
-0.00968459
0.000824297
-0.00966172
0.000792582
-0.00964161
0.000761832
-0.00962464
0.000719524
-0.00961019
0.000678202
-0.00959844
0.000627086
-0.00958875
0.000577524
-0.00958121
0.000519729
-0.0095752
0.000464122
-0.00957075
0.000401268
-0.00956735
0.000340676
-0.00956504
0.000272623
-0.0095634
0.000205382
-0.00956252
0.000128055
4.66826e-05
-0.0104342
0.00075904
0.0104784
-0.0103913
0.000766839
-0.0103475
0.000799116
-0.0103051
0.000806222
-0.0102631
0.000827319
-0.010223
0.000829146
-0.0101842
0.000838569
-0.010148
0.000831854
-0.0101139
0.000828815
-0.0100828
0.000811564
-0.0100542
0.000795749
-0.0100289
0.000767265
-0.0100063
0.000739238
-0.00998687
0.000700073
-0.00997
0.000661325
-0.00995593
0.000613017
-0.00994406
0.000565656
-0.00993451
0.000510184
-0.0099267
0.000456304
-0.00992068
0.000395255
-0.00991594
0.000335935
-0.00991255
0.000269233
-0.0099101
0.000202932
-0.00990872
0.000126673
4.6159e-05
-0.0108293
0.000714977
0.0108733
-0.0107862
0.000723768
-0.0107421
0.000755005
-0.0106992
0.000763304
-0.0106563
0.000784445
-0.0106151
0.000787974
-0.010575
0.000798415
-0.0105371
0.000793996
-0.0105011
0.000792787
-0.0104679
0.000778342
-0.010437
0.000764923
-0.0104093
0.000739538
-0.0103842
0.000714168
-0.0103623
0.000678123
-0.010343
0.000641987
-0.0103265
0.00059657
-0.0103124
0.000551538
-0.0103008
0.000498558
-0.0102911
0.000446599
-0.0102834
0.000387583
-0.0102772
0.000329772
-0.0102727
0.000264699
-0.0102694
0.000199611
-0.0102675
0.000124755
4.54337e-05
-0.0112373
0.00067104
0.0112812
-0.0111941
0.000680583
-0.0111497
0.000710624
-0.0111062
0.000719849
-0.0110626
0.000740817
-0.0110204
0.000745759
-0.010979
0.000756971
-0.0109395
0.000754567
-0.0109017
0.000754954
-0.0108664
0.000743077
-0.0108334
0.000731878
-0.0108033
0.000709439
-0.0107758
0.000686639
-0.0107513
0.000653669
-0.0107295
0.000620163
-0.0107106
0.000577697
-0.0106942
0.000535111
-0.0106804
0.000484776
-0.0106687
0.000434929
-0.0106593
0.000378171
-0.0106517
0.000322114
-0.0106459
0.000258953
-0.0106417
0.000195369
-0.0106392
0.000122263
4.44947e-05
-0.0116586
0.000627229
0.0117024
-0.0116153
0.000637296
-0.0115707
0.000666002
-0.0115267
0.0006759
-0.0114824
0.000696491
-0.0114392
0.000702568
-0.0113966
0.000714311
-0.0113556
0.000713643
-0.0113161
0.000715391
-0.0112788
0.00070584
-0.0112436
0.000696673
-0.0112112
0.000677011
-0.0111812
0.000656678
-0.0111543
0.000626713
-0.01113
0.000595837
-0.0111086
0.000556363
-0.0110898
0.000516323
-0.0110738
0.000468771
-0.0110601
0.000421223
-0.0110489
0.000366943
-0.0110397
0.000312891
-0.0110327
0.000251927
-0.0110274
0.000190156
-0.0110243
0.000119162
4.33307e-05
-0.0120938
0.000583535
0.0121375
-0.0120504
0.000593913
-0.0120055
0.000621157
-0.0119611
0.000631488
-0.0119161
0.00065151
-0.011872
0.000658457
-0.0118282
0.000670502
-0.0117859
0.000671296
-0.0117447
0.000674172
-0.0117055
0.0006667
-0.0116682
0.000659368
-0.0116335
0.000642301
-0.0116011
0.000624315
-0.0115717
0.000597268
-0.0115449
0.000569001
-0.011521
0.00053254
-0.0114999
0.000495133
-0.0114816
0.000450489
-0.0114658
0.000405419
-0.0114527
0.000353829
-0.0114418
0.000302039
-0.0114334
0.000243561
-0.0114272
0.000183926
-0.0114235
0.000115415
4.19313e-05
-0.0125433
0.00053994
0.0125869
-0.0124998
0.000550428
-0.0124547
0.000576092
-0.0124099
0.000586632
-0.0123643
0.000605908
-0.0123193
0.000613469
-0.0122744
0.000625598
-0.0122307
0.000627588
-0.0121879
0.000631361
-0.0121469
0.000625719
-0.0121075
0.000620024
-0.0120706
0.000605358
-0.0120359
0.000589586
-0.0120039
0.000565352
-0.0119746
0.00053966
-0.0119483
0.000506213
-0.0119247
0.000471508
-0.011904
0.000429883
-0.0118861
0.000387463
-0.011871
0.000338769
-0.0118585
0.000289497
-0.0118487
0.000233797
-0.0118414
0.000176637
-0.011837
0.000110992
4.02869e-05
-0.0130076
0.000496416
0.0130512
-0.012964
0.000506825
-0.0129188
0.000530804
-0.0128735
0.000541339
-0.0128273
0.000559703
-0.0127814
0.000567638
-0.0127355
0.000579641
-0.0126904
0.000582569
-0.0126461
0.000587017
-0.0126033
0.000582958
-0.012562
0.000578695
-0.0125229
0.000566231
-0.0124858
0.000552531
-0.0124515
0.000530991
-0.0124196
0.000507821
-0.0123908
0.000477374
-0.0123647
0.000445429
-0.0123418
0.000406918
-0.0123216
0.00036731
-0.0123045
0.000321712
-0.0122903
0.000275217
-0.0122791
0.000222587
-0.0122707
0.000168248
-0.0122655
0.000105861
3.83889e-05
-0.0134875
0.000452924
0.0135309
-0.0134437
0.000463076
-0.0133982
0.000485272
-0.0133524
0.000495605
-0.0133056
0.000512901
-0.013259
0.000520982
-0.013212
0.00053266
-0.0131657
0.000536279
-0.0131199
0.000541184
-0.0130754
0.000538467
-0.0130321
0.000535434
-0.0129909
0.000524967
-0.0129515
0.000513189
-0.0129147
0.000494214
-0.0128804
0.000473503
-0.0128491
0.000446027
-0.0128205
0.000416883
-0.0127952
0.00038157
-0.0127728
0.000344926
-0.0127537
0.000302617
-0.0127376
0.000259154
-0.0127249
0.000209888
-0.0127154
0.000158727
-0.0127096
9.99974e-05
3.62297e-05
-0.0139833
0.000409412
0.0140268
-0.0139394
0.000419141
-0.0138936
0.000439464
-0.0138474
0.000449409
-0.0138
0.000465492
-0.0137525
0.000473505
-0.0137045
0.000484671
-0.013657
0.000488745
-0.0136097
0.000493898
-0.0135635
0.000492286
-0.0135183
0.000490283
-0.013475
0.000481611
-0.0134334
0.0004716
-0.0133942
0.000455052
-0.0133574
0.000436725
-0.0133236
0.00041218
-0.0132926
0.000385868
-0.0132648
0.000353825
-0.0132402
0.000320289
-0.013219
0.000281453
-0.0132012
0.000241275
-0.0131869
0.000195668
-0.0131763
0.000148046
-0.0131696
9.33804e-05
3.38031e-05
-0.0144958
0.000365817
0.0145394
-0.0144517
0.000374967
-0.0144055
0.000393332
-0.0143588
0.000402716
-0.0143108
0.00041745
-0.0142625
0.000425193
-0.0142135
0.000435672
-0.0141647
0.000439978
-0.014116
0.000445179
-0.0140681
0.000444445
-0.0140211
0.000443278
-0.0139757
0.000436198
-0.0139319
0.000427799
-0.0138904
0.000413538
-0.0138512
0.000397515
-0.0138149
0.000375852
-0.0137814
0.000352391
-0.0137513
0.00032368
-0.0137244
0.000293388
-0.0137011
0.000258203
-0.0136814
0.00022156
-0.0136656
0.000179903
-0.0136538
0.000136183
-0.0136464
8.59943e-05
3.11045e-05
-0.0150257
0.000322057
0.0150695
-0.0149812
0.000330482
-0.0149347
0.000346811
-0.0148875
0.000355471
-0.0148388
0.000368731
-0.0147896
0.000376016
-0.0147395
0.000385642
-0.0146895
0.00038997
-0.0146394
0.000395031
-0.0145899
0.00039496
-0.0145411
0.000394441
-0.0144936
0.00038876
-0.0144477
0.000381818
-0.0144038
0.000369705
-0.0143622
0.000355901
-0.0143234
0.000337066
-0.0142875
0.000316469
-0.014255
0.000291145
-0.0142258
0.000264222
-0.0142005
0.000232861
-0.0141789
0.000199998
-0.0141616
0.000162582
-0.0141485
0.000123128
-0.0141404
7.783e-05
2.81311e-05
-0.0155737
0.000278037
0.0156177
-0.0155288
0.000285599
-0.0154818
0.000299817
-0.015434
0.000307602
-0.0153845
0.000319271
-0.0153344
0.000325923
-0.0152833
0.000334542
-0.015232
0.000338696
-0.0151804
0.000343441
-0.0151293
0.000343831
-0.0150787
0.000343782
-0.0150292
0.000339315
-0.0149811
0.000333685
-0.014935
0.000323583
-0.014891
0.000311914
-0.0148497
0.000295852
-0.0148114
0.000278129
-0.0147765
0.000256241
-0.0147451
0.000232809
-0.0147177
0.000205438
-0.0146943
0.000176594
-0.0146754
0.000143706
-0.0146611
0.000108879
-0.0146522
6.88853e-05
2.48823e-05
-0.0161405
0.000233637
0.0161849
-0.0160951
0.00024021
-0.0160476
0.000252243
-0.015999
0.000259014
-0.0159487
0.00026898
-0.0158976
0.000274838
-0.0158454
0.000282309
-0.0157928
0.000286109
-0.0157397
0.000290374
-0.0156869
0.000291039
-0.0156344
0.000291297
-0.015583
0.000287872
-0.0155327
0.000283415
-0.0154844
0.000275199
-0.015438
0.000265585
-0.0153944
0.000252245
-0.0153537
0.000237404
-0.0153165
0.000219001
-0.0152828
0.000199175
-0.0152533
0.000175958
-0.0152281
0.000151367
-0.0152077
0.00012329
-0.0151923
9.34454e-05
-0.0151825
5.91664e-05
2.13601e-05
-0.016727
0.000188719
0.016772
-0.016681
0.000194181
-0.0166327
0.000203959
-0.0165833
0.000209587
-0.0165321
0.000217746
-0.0164799
0.000222664
-0.0164264
0.000228854
-0.0163725
0.000232139
-0.0163179
0.000235776
-0.0162634
0.000236546
-0.016209
0.000236962
-0.0161556
0.000234426
-0.0161032
0.000231019
-0.0160526
0.000224575
-0.0160039
0.000216948
-0.015958
0.000206286
-0.0159149
0.000194339
-0.0158754
0.000179471
-0.0158396
0.000163368
-0.0158081
0.000144465
-0.0157811
0.000124356
-0.0157591
0.000101366
-0.0157425
7.6851e-05
-0.0157321
4.86891e-05
1.75699e-05
-0.017334
0.000143114
0.0173796
-0.0172872
0.000147354
-0.017238
0.000154803
-0.0171876
0.000159171
-0.0171353
0.000165427
-0.0170819
0.000169273
-0.0170271
0.000174063
-0.0169717
0.000176687
-0.0169155
0.000179563
-0.0168592
0.000180293
-0.016803
0.000180738
-0.0167475
0.000178959
-0.016693
0.000176496
-0.0166401
0.000171731
-0.0165892
0.000166034
-0.016541
0.000158022
-0.0164956
0.00014899
-0.0164539
0.000137716
-0.0164159
0.000125449
-0.0163825
0.000111022
-0.0163538
9.56171e-05
-0.0163304
7.79848e-05
-0.0163127
5.91354e-05
-0.0163015
3.748e-05
1.35206e-05
-0.0179624
9.66169e-05
0.0180089
-0.0179146
9.9534e-05
-0.0178644
0.000104585
-0.0178128
0.000107588
-0.0177592
0.000111848
-0.0177044
0.000114503
-0.0176482
0.000117786
-0.0175911
0.000119626
-0.0175332
0.000121628
-0.0174751
0.000122195
-0.0174169
0.000122562
-0.0173594
0.000121434
-0.0173027
0.000119834
-0.0172476
0.00011668
-0.0171945
0.00011288
-0.017144
0.000107508
-0.0170964
0.000101426
-0.0170525
9.38139e-05
-0.0170126
8.55054e-05
-0.0169773
7.57148e-05
-0.0169469
6.52332e-05
-0.0169221
5.32212e-05
-0.0169033
4.03575e-05
-0.0168914
2.55786e-05
9.22557e-06
-0.018613
4.8966e-05
0.0186607
-0.018564
5.05058e-05
-0.0185125
5.30829e-05
-0.0184595
5.46201e-05
-0.0184045
5.67942e-05
-0.0183481
5.8158e-05
-0.0182902
5.98415e-05
-0.0182313
6.07948e-05
-0.0181715
6.18324e-05
-0.0181115
6.21426e-05
-0.0180513
6.23527e-05
-0.0179917
6.18038e-05
-0.0179328
6.10154e-05
-0.0178756
5.94344e-05
-0.0178202
5.75244e-05
-0.0177675
5.48102e-05
-0.0177178
5.17327e-05
-0.0176719
4.78692e-05
-0.01763
4.36472e-05
-0.017593
3.86595e-05
-0.0175611
3.33142e-05
-0.017535
2.71756e-05
-0.0175153
2.05992e-05
-0.0175027
1.30393e-05
4.70408e-06
-0.0192868
0.0193358
-0.0192363
-0.0191832
-0.0191286
-0.0190718
-0.0190137
-0.0189538
-0.018893
-0.0188312
-0.0187691
-0.0187067
-0.0186449
-0.0185839
-0.0185245
-0.0184669
-0.0184121
-0.0183604
-0.0183125
-0.0182689
-0.0182302
-0.0181969
-0.0181697
-0.0181491
-0.0181361
0.000141334
-0.00452621
0.00012442
-0.0046834
0.00010846
-0.00484836
9.2705e-05
-0.00501976
7.77526e-05
-0.00519886
6.34961e-05
-0.00538461
4.98734e-05
-0.00557706
-0.0057764
3.34963e-05
-0.00450914
1.72768e-05
-0.00466718
1.31844e-06
-0.0048324
-1.21739e-05
-0.00500627
-2.52612e-05
-0.00518577
-3.77709e-05
-0.0053721
-4.96679e-05
-0.00556516
-6.0922e-05
-0.00576514
-7.1507e-05
-0.00597226
-8.14186e-05
-0.0061867
-9.04531e-05
-0.00640873
-9.91464e-05
-0.00663891
-0.000106948
-0.00687688
-0.000114004
-0.0071232
-0.000120299
-0.00737817
-0.000125823
-0.00764206
-0.000130565
-0.00791517
-0.000134513
-0.00819782
-0.000137654
-0.00849034
-0.000139975
-0.00879304
-0.000141422
-0.00910629
-0.000142117
-0.00943057
-0.000141919
-0.00976606
-0.000140845
-0.0101132
-0.000138887
-0.0104726
-0.000136035
-0.0108445
-0.00013228
-0.0112295
-0.000127612
-0.0116281
-0.000122024
-0.0120408
-0.00011551
-0.0124682
-0.000108064
-0.012911
-9.96855e-05
-0.0133697
-9.0374e-05
-0.0138451
-8.01333e-05
-0.014338
-6.89704e-05
-0.0148492
-5.68991e-05
-0.0153796
-4.39357e-05
-0.0159302
-3.01138e-05
-0.0165019
-1.54595e-05
-0.0170958
-0.0177135
-7.17228e-05
-0.00449351
-8.64438e-05
-0.00465246
-9.99766e-05
-0.00481887
-0.000113273
-0.00499297
-0.000125531
-0.00517352
-0.000137018
-0.00536061
-0.000147734
-0.00555444
-0.000157676
-0.0057552
-0.00016684
-0.0059631
-0.000175206
-0.00617834
-0.000182712
-0.00640122
-0.000189581
-0.00663204
-0.000195585
-0.00687088
-0.000200737
-0.00711805
-0.000205038
-0.00737387
-0.000208476
-0.00763862
-0.000211039
-0.00791261
-0.000212714
-0.00819615
-0.000213486
-0.00848956
-0.000213339
-0.00879318
-0.000212246
-0.00910738
-0.000210252
-0.00943256
-0.000207288
-0.00976902
-0.000203342
-0.0101172
-0.000198407
-0.0104775
-0.000192469
-0.0108504
-0.000185515
-0.0112365
-0.000177535
-0.0116361
-0.000168518
-0.0120498
-0.000158454
-0.0124783
-0.000147336
-0.0129221
-0.000135158
-0.0133819
-0.000121917
-0.0138584
-0.000107611
-0.0143523
-9.22448e-05
-0.0148646
-7.58261e-05
-0.0153961
-5.83672e-05
-0.0159476
-3.98953e-05
-0.0165204
-2.04316e-05
-0.0171153
-0.017734
-0.000176035
-0.00447893
-0.000189857
-0.00463864
-0.000202585
-0.00480614
-0.000214602
-0.00498096
-0.000225731
-0.00516239
-0.000235991
-0.00535035
-0.000245402
-0.00554503
-0.000253958
-0.00574665
-0.000261653
-0.0059554
-0.000268466
-0.00617153
-0.000274393
-0.0063953
-0.000279484
-0.00662695
-0.00028367
-0.00686669
-0.000286924
-0.0071148
-0.000289239
-0.00737155
-0.000290602
-0.00763726
-0.000290999
-0.00791221
-0.000290415
-0.00819673
-0.000288834
-0.00849114
-0.000286236
-0.00879578
-0.000282607
-0.00911101
-0.000277954
-0.00943722
-0.000272239
-0.00977474
-0.000265441
-0.010124
-0.000257546
-0.0104854
-0.00024854
-0.0108594
-0.000238409
-0.0112466
-0.000227137
-0.0116473
-0.000214711
-0.0120622
-0.00020112
-0.0124919
-0.000186352
-0.0129368
-0.000170397
-0.0133978
-0.00015325
-0.0138755
-0.000134905
-0.0143707
-0.000115361
-0.0148841
-9.46235e-05
-0.0154168
-7.26983e-05
-0.0159695
-4.96077e-05
-0.0165435
-2.5368e-05
-0.0171395
-0.0177593
-0.000279872
-0.00446528
-0.000292689
-0.00462582
-0.000304459
-0.00479437
-0.000315295
-0.00497012
-0.000325232
-0.00515245
-0.000334253
-0.00534133
-0.000342355
-0.00553693
-0.000349529
-0.00573947
-0.000355762
-0.00594917
-0.000361038
-0.00616625
-0.000365357
-0.00639098
-0.000368722
-0.00662358
-0.000371104
-0.00686431
-0.000372476
-0.00711342
-0.000372822
-0.00737121
-0.000372128
-0.00763795
-0.000370376
-0.00791396
-0.000367552
-0.00819956
-0.000363636
-0.00849506
-0.00035861
-0.00880081
-0.000352458
-0.00911716
-0.000345173
-0.0094445
-0.000336727
-0.00978319
-0.000327096
-0.0101336
-0.000316263
-0.0104962
-0.000304212
-0.0108715
-0.000290924
-0.0112599
-0.000276383
-0.0116619
-0.000260573
-0.0120781
-0.000243478
-0.012509
-0.000225084
-0.0129552
-0.000205379
-0.0134175
-0.000184352
-0.0138965
-0.000161996
-0.014393
-0.000138305
-0.0149078
-0.000113278
-0.0154418
-8.69194e-05
-0.0159959
-5.92446e-05
-0.0165712
-3.02655e-05
-0.0171685
-0.0177896
-0.000382869
-0.00445252
-0.000394682
-0.00461401
-0.000405409
-0.00478365
-0.000415131
-0.0049604
-0.000423895
-0.00514369
-0.000431686
-0.00533354
-0.00043849
-0.00553013
-0.000444293
-0.00573367
-0.000449079
-0.00594438
-0.000452834
-0.0061625
-0.000455552
-0.00638826
-0.00045722
-0.00662191
-0.000457821
-0.00686371
-0.000457329
-0.00711392
-0.000455726
-0.00737281
-0.000452995
-0.00764068
-0.000449117
-0.00791784
-0.000444073
-0.0082046
-0.000437844
-0.00850129
-0.000430411
-0.00880824
-0.000421756
-0.00912582
-0.000411863
-0.00945439
-0.000400708
-0.00979434
-0.000388268
-0.0101461
-0.00037452
-0.01051
-0.000359447
-0.0108866
-0.000343027
-0.0112763
-0.000325242
-0.0116797
-0.000306072
-0.0120972
-0.000285499
-0.0125295
-0.000263508
-0.0129772
-0.00024008
-0.013441
-0.000215204
-0.0139214
-0.000188867
-0.0144194
-0.000161059
-0.0149356
-0.000131778
-0.0154711
-0.000101021
-0.0160267
-6.87994e-05
-0.0166034
-3.51205e-05
-0.0172022
-0.0178247
-0.000484875
-0.00444066
-0.000495705
-0.00460318
-0.000505391
-0.00477396
-0.000514022
-0.00495177
-0.000521631
-0.00513608
-0.000528206
-0.00532696
-0.000533727
-0.00552461
-0.000538176
-0.00572922
-0.000541534
-0.00594102
-0.000543786
-0.00616024
-0.000544918
-0.00638713
-0.000544915
-0.00662192
-0.000543758
-0.00686487
-0.000541426
-0.00711625
-0.000537896
-0.00737634
-0.00053315
-0.00764543
-0.000527167
-0.00792383
-0.000519927
-0.00821184
-0.000511409
-0.00850981
-0.000501592
-0.00881806
-0.000490456
-0.00913696
-0.000477981
-0.00946687
-0.000464143
-0.00980818
-0.000448917
-0.0101613
-0.00043228
-0.0105266
-0.00041421
-0.0109046
-0.000394684
-0.0112958
-0.000373682
-0.0117007
-0.00035118
-0.0121197
-0.000327159
-0.0125536
-0.000301598
-0.0130028
-0.000274479
-0.0134681
-0.000245784
-0.0139501
-0.000215499
-0.0144497
-0.000183611
-0.0149675
-0.000150111
-0.0155046
-0.000114994
-0.0160618
-7.82659e-05
-0.0166401
-3.99299e-05
-0.0172405
-0.0178647
-0.000585816
-0.00442968
-0.000595673
-0.00459332