/*--------------------------------*- C++ -*----------------------------------*\
  =========                 |
  \\      /  F ield         | OpenFOAM: The Open Source CFD Toolbox
   \\    /   O peration     | Website:  https://openfoam.org
    \\  /    A nd           | Version:  7
     \\/     M anipulation  |
\*---------------------------------------------------------------------------*/
FoamFile
{
    version     2.0;
    format      ascii;
    class       volScalarField;
    location    "8";
    object      p;
}
// * * * * * * * * * * * * * * * * * * * * * * * * * * * * * * * * * * * * * //

dimensions      [1 -1 -2 0 0 0 0];

internalField   nonuniform List<scalar> 
4032
(
1
1
1
1
1
1
1
1
1
1
1
1.32786
7.58605
10.6066
10.7391
10.948
11.1343
11.3125
11.4762
11.623
11.7533
11.8583
11.9388
11.998
1
1
1
1
1
1
1
1
1
1
1
1.28883
7.42186
10.573
10.7264
10.9295
11.1121
11.2855
11.4438
11.5836
11.7059
11.8032
11.8748
11.9309
1
1
1
1
1
1
1
1
1
1
1
1.18531
7.12078
10.5442
10.6853
10.8869
11.0695
11.2409
11.396
11.5306
11.6454
11.7339
11.7916
11.8391
1
1
1
1
1
1
1
1
1
1
1
1.01627
6.62007
10.4921
10.6322
10.8202
10.9926
11.1517
11.2972
11.4256
11.5368
11.6212
11.6693
11.7061
1
1
1
1
1
1
1
1
1
1
1
1.00019
5.94632
10.3154
10.4997
10.6846
10.8603
11.0175
11.1568
11.2716
11.361
11.4264
11.4595
11.5072
1
1
1
1
1
1
1
1
1
1
1
0.999999
5.10147
10.0839
10.3887
10.5582
10.7255
10.8648
10.9834
11.0809
11.1582
11.2166
11.2277
11.1869
1
1
1
1
1
1
1
1
1
1
1
1
4.13288
9.72846
10.2723
10.4297
10.5743
10.6833
10.7662
10.8247
10.8438
10.8057
10.7378
10.6951
1
1
1
1
1
1
1
1
1
1
1
1
3.08649
9.17756
10.1853
10.3233
10.4377
10.5108
10.5439
10.5463
10.4976
10.4189
10.2938
10.2857
1
1
1
1
1
1
1
1
1
1
1
1
2.00379
8.31466
10.1432
10.1981
10.2893
10.3298
10.3142
10.252
10.1044
9.83835
9.06201
7.18004
1
1
1
1
1
1
1
1
1
1
1
1
1.1263
7.1754
10.1921
10.092
10.0891
10.0773
10.0199
9.89303
9.6516
9.18031
8.37683
6.31495
1
1
1
1
1
1
1
1
1
1
1
1
1.00153
5.56346
9.58893
9.72603
9.78975
9.7665
9.6909
9.51543
9.21662
8.65412
7.82494
5.89105
1
1
1
1
1
1
1
1
1
1
1
1
0.999977
3.69244
9.00636
9.59187
9.62142
9.55719
9.43671
9.2066
8.84691
8.27286
7.37429
5.79437
1
1
1
1
1
1
1
1
1
1
1
1
0.999994
1.96084
8.04583
9.53263
9.44443
9.33434
9.17506
8.91012
8.51413
7.95355
7.05768
5.843
1
1
1
1
1
1
1
1
1
1
1
1
0.999999
1.09589
6.28326
9.20122
9.19095
9.09246
8.92415
8.65182
8.26165
7.69878
6.87441
5.92374
1
1
1
1
1
1
1
1
1
1
1
1
1
1.00049
3.83105
8.60663
9.04275
8.93955
8.75214
8.44236
8.05594
7.48538
6.76689
5.98208
1
1
1
1
1
1
1
1
1
1
1
1
1
0.999994
1.61785
7.63269
9.07729
8.79939
8.55948
8.24689
7.83445
7.32901
6.71727
6.04361
1
1
1
1
1
1
1
1
1
1
1
1
1
0.999999
1.03344
5.59897
8.6455
8.46066
8.29552
8.02556
7.6581
7.20821
6.67371
6.08337
1
1
1
1
1
1
1
1
1
1
1
1
1
1
0.999968
2.79565
7.90631
8.35178
8.20412
7.93708
7.57808
7.14049
6.64266
6.11576
1
1
1
1
1
1
1
1
1
1
1
1
1
1
0.999988
1.22643
6.07554
8.30179
8.11802
7.83213
7.47605
7.06349
6.6115
6.14106
1
1
1
1
1
1
1
1
1
1
1
1
1
1
0.999998
1.00395
3.22929
7.60305
7.99272
7.70444
7.37928
6.99854
6.5921
6.16923
1
1
1
1
1
1
1
1
1
1
1
1
1
1
1
1
1.33909
5.9839
7.96206
7.63336
7.32448
6.96338
6.58501
6.19361
1
1
1
1
1
1
1
1
1
1
1
1
1
1
1
1
1.00922
3.11784
7.2249
7.52597
7.23299
6.91435
6.56481
6.20167
1
1
1
1
1
1
1
1
1
1
1
1
1
1
1
1
1.00003
1.31033
5.45649
7.5372
7.22481
6.9331
6.57934
6.24123
1
1
1
1
1
1
1
1
1
1
1
1
1
1
1
1
1
1.00809
2.51147
6.50795
7.21303
6.9018
6.56274
6.3607
1
1
1
1
1
1
1
1
1
1
1
1
1
1
1
1
1
1.00004
1.16593
4.40442
7.17595
6.83524
6.71979
7.20403
1
1
1
1
1
1
1
1
1
1
1
1
1
1
1
1
1
1
1.00286
1.84159
5.85586
6.76135
7.71344
8.72031
1
1
1
1
1
1
1
1
1
1
1
1
1
1
1
1
1
1
1.00001
1.05444
3.03825
6.87921
9.68867
9.9072
1
1
1
1
1
1
1
1
1
1
1
1
1
1
1
1
1
1
1
1.00062
1.28651
7.2861
11.1163
10.3098
1
1
1
1
1
1
1
1
1
1
1
1
1
1
1
1
1
1
1
1
1.00823
7.08562
11.0291
10.2278
1
1
1
1
1
1
1
1
1
1
1
1
1
1
1
1
1
1
1
1
1.00003
6.46542
10.743
10.1587
1
1
1
1
1
1
1
1
1
1
1
1
1
1
1
1
1
1
1
1
1
5.95703
10.4031
10.1235
1
1
1
1
1
1
1
1
1
1
1
1
1
1
1
1
1
1
1
1
1
5.3211
10.0964
10.1293
1
1
1
1
1
1
1
1
1
1
1
1
1
1
1
1
1
1
1
1
1
4.71108
9.90419
10.1414
1
1
1
1
1
1
1
1
1
1
1
1
1
1
1
1
1
1
1
1
1
4.10279
9.75707
10.1857
1
1
1
1
1
1
1
1
1
1
1
1
1
1
1
1
1
1
1
1
1
3.58707
9.62775
10.2464
1
1
1
1
1
1
1
1
1
1
1
1
1
1
1
1
1
1
1
1
1
3.19088
9.48386
10.2951
1
1
1
1
1
1
1
1
1
1
1
1
1
1
1
1
1
1
1
1
1
2.91742
9.34179
10.3313
1
1
1
1
1
1
1
1
1
1
1
1
1
1
1
1
1
1
1
1
1
2.73286
9.2176
10.3545
1
1
1
1
1
1
1
1
1
1
1
1
1
1
1
1
1
1
1
1
1
2.61158
9.11953
10.363
1
1
1
1
1
1
1
1
1
1
1
1
1
1
1
1
1
1
1
1
1
2.57145
9.05926
10.3559
1.57548
0.473834
0.203207
0.138708
0.149042
0.206026
0.328102
0.498097
0.694203
0.86394
0.982406
1.01224
1.02507
1.0666
1.16636
1.25935
1.31304
3.69438
5.07865
5.19129
5.38959
5.55043
5.56715
5.5398
5.50688
5.51739
5.55696
5.57473
5.5579
5.52637
5.4941
5.46458
5.42922
5.38047
5.32886
5.29287
5.27521
5.26413
5.23726
5.17243
5.08717
5.00981
4.95534
4.92442
4.90013
4.85477
4.78386
4.70795
4.63913
4.58237
4.53635
4.48907
4.42868
4.36072
4.29525
4.23874
4.19095
4.13358
4.06154
3.98765
3.91952
3.86035
3.81749
3.78133
3.72601
3.66221
3.59202
3.51802
3.45327
3.39876
3.35249
3.31338
3.26459
3.20927
3.14546
3.07505
3.01296
2.96667
2.92849
2.89737
2.86357
2.8235
2.77577
2.717
2.65274
2.59065
2.54115
2.51096
2.49764
2.53526
2.71242
3.24222
4.43633
4.75582
4.62433
4.55208
2.72117
1.42702
0.986353
0.710885
0.534445
0.472866
0.478723
0.509955
0.534446
0.583152
0.649122
0.724308
0.802217
0.877851
0.975784
1.07479
1.15116
3.23952
5.08865
5.28278
5.46009
5.58728
5.57316
5.53946
5.51006
5.51629
5.55736
5.58286
5.55247
5.49488
5.44263
5.41419
5.40723
5.40387
5.37013
5.30668
5.24508
5.20107
5.17975
5.15983
5.10536
5.02406
4.94886
4.89387
4.86382
4.84177
4.79051
4.71121
4.63211
4.56271
4.50946
4.47185
4.43076
4.36571
4.2922
4.22291
4.15855
4.10496
4.0534
3.99207
3.92519
3.86131
3.80564
3.75229
3.70307
3.65134
3.59393
3.53221
3.46383
3.39534
3.33742
3.28758
3.24483
3.19932
3.14829
3.0938
3.03213
2.9694
2.9177
2.87848
2.8462
2.81338
2.7725
2.72428
2.66918
2.61056
2.5515
2.52154
2.52933
2.62122
2.87272
3.29147
4.1838
4.62567
4.55512
4.51243
3.64361
2.30607
1.64456
1.30367
1.04347
0.842472
0.700399
0.598245
0.572385
0.590586
0.626356
0.676897
0.743224
0.791608
0.836316
0.926502
1.00949
2.44733
5.19044
5.6091
5.55312
5.5753
5.56788
5.54192
5.52516
5.52595
5.55989
5.60939
5.61404
5.54929
5.46241
5.39254
5.35323
5.36673
5.40082
5.38513
5.30655
5.22342
5.15584
5.11927
5.10166
5.06514
4.9955
4.92098
4.86046
4.82026
4.78779
4.73613
4.66263
4.58434
4.51366
4.45794
4.4196
4.38135
4.32175
4.24839
4.16551
4.08843
4.02705
3.97597
3.93227
3.88373
3.82337
3.75283
3.68049
3.62177
3.57381
3.53178
3.48308
3.4253
3.35148
3.26703
3.20117
3.1569
3.12578
3.09493
3.05386
3.00381
2.93858
2.86539
2.8095
2.77099
2.73876
2.70551
2.67042
2.6361
2.59301
2.58326
2.63735
2.82907
3.10258
3.30403
3.77555
4.41947
4.54682
4.51836
4.24915
3.14412
2.35901
1.81664
1.51
1.3223
1.14892
0.924771
0.785794
0.777617
0.775528
0.748306
0.722119
0.715802
0.722058
0.764401
0.847685
1.41296
4.58422
5.92171
5.72101
5.61443
5.62336
5.61366
5.57475
5.53608
5.52401
5.54284
5.5784
5.5639
5.50705
5.42624
5.36249
5.32193
5.32681
5.3492
5.31136
5.24143
5.16325
5.1001
5.05466
5.02845
4.99187
4.93039
4.86285
4.80194
4.75091
4.70478
4.64925
4.58484
4.51427
4.44848
4.39425
4.34915
4.29884
4.23952
4.1747
4.09652
4.01549
3.95616
3.90776
3.8624
3.81139
3.75516
3.68696
3.612
3.55136
3.50573
3.46357
3.41852
3.36402
3.29124
3.20842
3.14911
3.10951
3.07511
3.04295
3.00567
2.95816
2.88729
2.81043
2.75896
2.7226
2.68717
2.6579
2.64346
2.64758
2.69649
2.84859
3.10704
3.30506
3.34403
3.49923
3.98685
4.43365
4.49304
4.67133
3.70234
3.01038
2.45247
1.94404
1.67404
1.53451
1.3594
1.13338
0.937554
0.904599
0.881752
0.829142
0.781464
0.786486
0.84089
1.01189
1.17297
2.66307
5.32419
5.8629
5.69802
5.65346
5.67752
5.65937
5.60389
5.54815
5.52416
5.52872
5.54887
5.52534
5.474
5.40947
5.35551
5.31928
5.315
5.29694
5.24629
5.1841
5.11342
5.05658
5.01311
4.98038
4.93509
4.87721
4.81033
4.74873
4.69414
4.63839
4.58146
4.52102
4.45829
4.39797
4.33948
4.28217
4.22503
4.16532
4.09804
4.02522
3.95767
3.89927
3.84545
3.79291
3.73901
3.67904
3.6108
3.54477
3.4904
3.4421
3.39429
3.34379
3.28614
3.21902
3.1513
3.10113
3.06417
3.02816
2.9901
2.94462
2.88338
2.81051
2.7515
2.71439
2.68607
2.6727
2.68933
2.74308
2.88774
3.14198
3.31045
3.3826
3.35959
3.39085
3.59783
4.07014
4.42415
5.02394
4.15671
3.4533
2.97408
2.51796
2.06239
1.79084
1.66906
1.50194
1.26784
1.09663
1.05081
1.01434
1.00441
1.04785
1.14257
1.37968
1.53747
1.68696
3.19817
5.30045
5.74274
5.71022
5.74448
5.73562
5.68551
5.61366
5.54452
5.50055
5.5032
5.51847
5.48191
5.42507
5.36218
5.31459
5.28312
5.26983
5.23161
5.17852
5.1085
5.0451
4.99672
4.95939
4.91888
4.86556
4.8017
4.73042
4.67028
4.61659
4.56383
4.51018
4.45225
4.38766
4.32127
4.26085
4.20465
4.14818
4.08849
4.02325
3.95324
3.88647
3.82916
3.77733
3.72542
3.66928
3.60518
3.53365
3.46865
3.41943
3.37595
3.33205
3.2855
3.23139
3.16408
3.09336
3.04447
3.00885
2.97223
2.93083
2.88134
2.82151
2.75323
2.70381
2.68862
2.70665
2.78569
2.93496
3.19683
3.42447
3.45305
3.43082
3.38319
3.35356
3.41413
3.63377
4.12495
5.23282
4.51755
3.83252
3.30748
2.93442
2.53044
2.13049
1.8887
1.74651
1.56503
1.37016
1.25055
1.24228
1.33319
1.44218
1.58642
1.8116
1.84971
1.844
1.96326
3.26567
5.17855
5.69264
5.80058
5.81629
5.73972
5.67113
5.57409
5.50448
5.47652
5.5008
5.48844
5.43662
5.36962
5.3114
5.26964
5.24705
5.21957
5.17195
5.10841
5.03742
4.98564
4.94445
4.90479
4.85337
4.79175
4.71536
4.64733
4.59629
4.54859
4.49998
4.4459
4.38189
4.30827
4.23925
4.18234
4.1304
4.07759
4.01919
3.95089
3.876
3.80906
3.75545
3.70746
3.65848
3.60243
3.53201
3.45102
3.38776
3.34644
3.3096
3.27214
3.231
3.17848
3.10685
3.03036
2.97866
2.9411
2.90454
2.86564
2.82449
2.77271
2.72514
2.72769
2.78772
2.95041
3.18319
3.46697
3.57716
3.55585
3.49024
3.42199
3.36365
3.33395
3.39591
3.73584
5.38808
4.77258
4.15944
3.62096
3.21527
2.87581
2.49119
2.14307
1.94928
1.80658
1.67286
1.61567
1.72153
1.8997
1.95263
2.0672
2.13088
2.09695
2.0839
2.04914
2.16216
3.29835
5.04351
5.65966
5.88024
5.83649
5.71519
5.59681
5.51463
5.47766
5.48886
5.48818
5.43926
5.37512
5.30652
5.26088
5.2282
5.2013
5.15592
5.09737
5.02354
4.96639
4.92269
4.88282
4.83319
4.77432
4.69856
4.62291
4.57093
4.52556
4.47909
4.42808
4.36871
4.29563
4.21876
4.15756
4.10726
4.05812
4.00509
3.94276
3.86802
3.79148
3.73115
3.68428
3.6403
3.59263
3.53249
3.45022
3.36483
3.31406
3.28092
3.24907
3.21574
3.17665
3.12106
3.03882
2.95689
2.90838
2.87404
2.84297
2.81936
2.79791
2.79488
2.84105
3.00192
3.21923
3.43513
3.59179
3.62359
3.59635
3.54111
3.46933
3.3938
3.33674
3.32436
3.46256
5.49663
4.9489
4.41415
3.88924
3.45574
3.12598
2.791
2.43992
2.18563
2.11623
2.11381
2.17314
2.44437
2.52414
2.43873
2.43071
2.41969
2.35574
2.34833
2.32918
2.26675
2.36034
3.28214
4.8211
5.63043
5.88941
5.7838
5.63294
5.52167
5.4849
5.48474
5.48352
5.43779
5.37886
5.30558
5.25521
5.21636
5.18423
5.13844
5.0815
5.00776
4.94586
4.90122
4.86134
4.81383
4.75806
4.68679
4.60495
4.54623
4.49989
4.4532
4.40388
4.34914
4.28296
4.20618
4.13702
4.08252
4.03322
3.98259
3.92581
3.8581
3.78134
3.71143
3.6584
3.61447
3.57132
3.5214
3.45419
3.36675
3.29038
3.24871
3.21867
3.18869
3.15532
3.11239
3.04824
2.9599
2.88605
2.84778
2.82735
2.82639
2.85302
2.91937
3.09841
3.37308
3.50035
3.5798
3.61262
3.63144
3.61179
3.57137
3.52134
3.45471
3.38124
3.33017
3.35992
5.58316
5.0847
4.60517
4.11458
3.68888
3.33653
3.02668
2.73843
2.60902
2.7148
2.76012
2.87236
3.01924
2.98479
2.81667
2.70631
2.70896
2.65479
2.61436
2.60815
2.52463
2.44175
2.51828
3.20937
4.57464
5.55575
5.78917
5.68844
5.55911
5.49937
5.48702
5.47708
5.43374
5.37892
5.30213
5.24549
5.20264
5.16567
5.11881
5.06166
4.98819
4.92231
4.87719
4.83703
4.791
4.73776
4.67161
4.58915
4.51909
4.46791
4.41999
4.37144
4.32027
4.26232
4.19323
4.11994
4.05657
4.00272
3.95161
3.89882
3.84023
3.77217
3.69813
3.63138
3.57967
3.53702
3.49524
3.44677
3.38211
3.29927
3.22403
3.17877
3.14681
3.1164
3.08208
3.03888
2.97746
2.8953
2.84281
2.83532
2.86439
2.97279
3.16455
3.46905
3.67561
3.70194
3.66743
3.63096
3.61538
3.60383
3.5818
3.55175
3.51031
3.45483
3.37839
3.3349
5.65791
5.19169
4.75055
4.29129
3.88233
3.58131
3.37355
3.27844
3.39656
3.54118
3.46933
3.46358
3.44447
3.3469
3.1782
3.00388
2.97778
2.96835
2.8845
2.8483
2.80219
2.67837
2.61328
2.66829
3.12887
4.30894
5.38093
5.64117
5.60248
5.52792
5.50627
5.4826
5.42991
5.36828
5.28358
5.22582
5.18281
5.1481
5.10222
5.04513
4.97113
4.89891
4.8518
4.80998
4.76393
4.71176
4.64921
4.57142
4.49565
4.43789
4.38721
4.33724
4.2865
4.23282
4.17187
4.10305
4.03531
3.97457
3.91879
3.8652
3.81136
3.75325
3.68712
3.61616
3.55071
3.49944
3.45944
3.42172
3.37755
3.31768
3.23868
3.15818
3.10126
3.06733
3.04013
3.01124
2.97575
2.92957
2.89315
2.9108
3.02104
3.24057
3.47974
3.72731
3.8025
3.79332
3.74077
3.65896
3.6068
3.57999
3.56851
3.56032
3.53671
3.50613
3.45586
3.36292
5.72323
5.28196
4.86596
4.45813
4.12518
4.03476
4.08195
4.13814
4.25426
4.17788
3.95873
3.84276
3.76265
3.67418
3.53807
3.34803
3.25034
3.2474
3.17789
3.08802
3.04367
2.95278
2.83097
2.77399
2.7958
3.06588
4.02131
5.07602
5.42002
5.52835
5.54422
5.5148
5.43503
5.34764
5.24982
5.1973
5.1582
5.1302
5.08651
5.03053
4.95585
4.87486
4.82293
4.77854
4.73033
4.67645
4.61474
4.54211
4.46987
4.41151
4.35892
4.30573
4.25078
4.19418
4.13518
4.0736
4.01187
3.95119
3.88991
3.82857
3.77077
3.71715
3.66361
3.60557
3.54092
3.47408
3.41755
3.37697
3.34235
3.30292
3.25078
3.18002
3.09678
3.02646
2.98698
2.96442
2.95712
2.96679
3.01413
3.15067
3.41158
3.59425
3.72869
3.81831
3.84501
3.82369
3.777
3.70846
3.62738
3.57996
3.55747
3.55176
3.55359
3.53094
3.50136
3.42011
5.77137
5.36117
5.02192
4.7518
4.76259
4.93894
4.97211
4.98449
4.87621
4.62597
4.35881
4.16123
4.07318
4.00289
3.87478
3.68691
3.53692
3.49928
3.46672
3.35754
3.26769
3.18744
3.06435
2.97514
2.90362
2.90864
3.05435
3.71925
4.69643
5.24955
5.49284
5.53479
5.46111
5.33888
5.21772
5.16547
5.13195
5.10841
5.06574
5.01084
4.9366
4.84935
4.7926
4.74655
4.69584
4.6388
4.57456
4.50197
4.43563
4.38407
4.33472
4.28147
4.22208
4.15608
4.08784
4.02705
3.97559
3.92486
3.86831
3.80327
3.73386
3.67216
3.62296
3.57844
3.53019
3.47207
3.40316
3.33645
3.28988
3.25773
3.22513
3.17889
3.11366
3.02964
2.96444
2.95137
2.96655
3.05567
3.23466
3.54923
3.79879
3.84474
3.85997
3.84768
3.84689
3.82411
3.78901
3.74558
3.67834
3.61006
3.57536
3.55573
3.5524
3.54277
3.51916
3.45762
5.80551
5.49781
5.40395
5.50895
5.81311
5.78529
5.56208
5.45809
5.25943
4.98945
4.73946
4.51161
4.39889
4.32265
4.18768
4.00198
3.83181
3.75398
3.7221
3.63987
3.50126
3.39726
3.28303
3.1786
3.11115
3.02644
3.00648
3.05971
3.47438
4.32321
5.06136
5.36792
5.44099
5.36616
5.22581
5.14641
5.10619
5.07169
5.03119
4.97972
4.90941
4.82002
4.75865
4.71186
4.66108
4.60445
4.53826
4.4582
4.38995
4.34527
4.30207
4.25414
4.19759
4.12589
4.03835
3.96633
3.92229
3.88336
3.83997
3.78625
3.71598
3.63378
3.56823
3.52739
3.49355
3.45601
3.40639
3.33674
3.2561
3.1937
3.15976
3.133
3.09929
3.05584
3.00739
3.01397
3.10261
3.30725
3.55795
3.86631
3.96741
3.9592
3.91737
3.87059
3.84328
3.81953
3.79563
3.7634
3.71828
3.65823
3.60917
3.58088
3.56021
3.54521
3.52495
3.47311
5.96958
6.06827
6.35571
6.58369
6.69431
6.37314
5.97091
5.77375
5.58041
5.32758
5.10077
4.87475
4.71572
4.61763
4.4826
4.29874
4.12774
4.01734
3.95227
3.88337
3.75525
3.59737
3.4865
3.38207
3.30849
3.22322
3.12575
3.0523
3.0543
3.27306
3.94944
4.74095
5.16818
5.31946
5.25878
5.16144
5.08712
5.03008
4.98494
4.93712
4.87493
4.78818
4.71939
4.67187
4.62467
4.57546
4.51482
4.42916
4.34164
4.29217
4.25338
4.21208
4.16426
4.10094
4.00605
3.90896
3.86159
3.82968
3.79599
3.75699
3.7043
3.62297
3.52734
3.47227
3.44305
3.41554
3.38271
3.33439
3.26168
3.16962
3.09943
3.07225
3.06364
3.07595
3.12547
3.25217
3.5111
3.71215
3.88248
3.9999
4.00796
3.98983
3.95021
3.89942
3.85597
3.82871
3.8043
3.77461
3.73961
3.69702
3.6479
3.60847
3.58136
3.55637
3.53413
3.48588
6.61098
7.17873
7.30704
7.31988
7.10972
6.68217
6.28999
6.08459
5.93248
5.68008
5.43606
5.23018
5.04079
4.92162
4.78043
4.58074
4.40669
4.27929
4.18565
4.10297
3.98996
3.81672
3.67562
3.5848
3.49783
3.41814
3.31288
3.19404
3.07455
3.05062
3.14894
3.60713
4.34945
4.93669
5.13087
5.11906
5.06985
5.01141
4.96328
4.90542
4.84145
4.74992
4.66285
4.61863
4.58167
4.54126
4.49087
4.41604
4.30965
4.22898
4.18839
4.15484
4.11534
4.06631
3.99181
3.88256
3.79686
3.7593
3.73152
3.70412
3.67045
3.61967
3.53137
3.43548
3.38559
3.35214
3.32023
3.28616
3.246
3.17975
3.08582
3.05478
3.06682
3.15626
3.34223
3.66477
3.94996
4.01683
4.04787
4.03714
4.02266
4.00087
3.97212
3.93323
3.87996
3.84035
3.81447
3.78803
3.758
3.72528
3.68667
3.6402
3.60008
3.57068
3.54805
3.50127
7.97859
8.25339
7.96212
7.71067
7.35405
6.9334
6.59565
6.41578
6.27154
6.01715
5.73551
5.55679
5.36454
5.21894
5.06848
4.84185
4.66102
4.52826
4.4175
4.31719
4.19646
4.03789
3.86715
3.76701
3.67807
3.58933
3.49274
3.371
3.22806
3.099
3.07491
3.11029
3.3711
3.96865
4.62304
4.91304
4.94359
4.98033
4.96281
4.90801
4.82816
4.71281
4.59871
4.55351
4.52092
4.49205
4.45419
4.39858
4.3074
4.1943
4.13246
4.09774
4.06144
4.01933
3.95964
3.87813
3.77603
3.71118
3.68909
3.66784
3.63728
3.59772
3.52981
3.43508
3.3543
3.31305
3.27878
3.24671
3.21888
3.17982
3.12718
3.12248
3.21013
3.42628
3.70376
4.04561
4.15344
4.14719
4.10322
4.06392
4.04206
4.02016
3.99323
3.95473
3.89688
3.85039
3.82467
3.8036
3.7801
3.75419
3.72435
3.68287
3.62953
3.58517
3.56065
3.5147
9.05555
8.66513
8.26388
7.9686
7.62358
7.2395
6.9326
6.76669
6.60582
6.34251
6.02738
5.85417
5.6902
5.50829
5.34333
5.10484
4.9064
4.78261
4.65411
4.535
4.39576
4.2381
4.06899
3.94203
3.84781
3.74661
3.65035
3.53541
3.39839
3.25303
3.12892
3.07521
3.0927
3.20916
3.61572
4.22367
4.6243
4.81044
4.90116
4.88983
4.81593
4.68634
4.55038
4.47716
4.45391
4.45038
4.42308
4.37676
4.30241
4.18356
4.05406
3.97617
3.94399
3.92543
3.91123
3.87167
3.7947
3.69213
3.5999
3.56226
3.53775
3.51653
3.49649
3.44339
3.3602
3.26248
3.18999
3.1642
3.1542
3.16631
3.21783
3.35872
3.62939
3.8522
4.06654
4.19095
4.1918
4.17283
4.13315
4.09525
4.06722
4.04228
4.0123
3.96786
3.90774
3.86224
3.83759
3.81957
3.80321
3.78122
3.75497
3.7164
3.65821
3.59706
3.56612
3.52207
9.53906
8.90785
8.4809
8.21727
7.90475
7.54539
7.25227
7.08758
6.91058
6.64092
6.31521
6.12645
5.99675
5.79037
5.59587
5.3722
5.14418
5.01508
4.88378
4.74045
4.58518
4.41215
4.25688
4.11956
4.00648
3.89984
3.78448
3.67255
3.54718
3.40937
3.2857
3.17019
3.09477
3.07114
3.10451
3.31876
3.80989
4.32409
4.68397
4.76675
4.74801
4.6686
4.5532
4.44874
4.37693
4.33858
4.30801
4.27281
4.22743
4.15464
4.03575
3.92595
3.86783
3.8432
3.82148
3.79298
3.75656
3.67966
3.57374
3.50938
3.47854
3.45247
3.42179
3.38801
3.33307
3.23767
3.16032
3.15205
3.15999
3.25779
3.47489
3.83866
4.09409
4.16646
4.20781
4.21987
4.21464
4.19627
4.16858
4.13363
4.09106
4.05272
4.01845
3.97987
3.9338
3.89381
3.87247
3.85446
3.83228
3.80463
3.77473
3.73824
3.68559
3.62106
3.5834
3.54394
9.64559
9.09612
8.75889
8.52131
8.22117
7.8685
7.5659
7.38365
7.1914
6.9163
6.59179
6.38674
6.26589
6.07408
5.84153
5.63323
5.39888
5.22674
5.09592
4.94057
4.77253
4.5856
4.42434
4.29228
4.1688
4.04997
3.92563
3.79492
3.66836
3.54512
3.42835
3.31797
3.20372
3.10633
3.0554
3.02133
3.1198
3.4613
4.00133
4.43298
4.5803
4.58718
4.55324
4.46759
4.36169
4.27393
4.214
4.16653
4.12156
4.0727
4.0081
3.91417
3.83003
3.77807
3.74621
3.71473
3.68016
3.63888
3.57155
3.4816
3.41705
3.38055
3.34353
3.30039
3.25692
3.21906
3.18174
3.19786
3.32317
3.58619
3.92617
4.25082
4.31781
4.29157
4.26242
4.24831
4.25528
4.23783
4.20762
4.16336
4.10807
4.06467
4.03031
4.00105
3.9728
3.937
3.89033
3.85117
3.82603
3.80313
3.77781
3.74931
3.7146
3.66773
3.62032
3.5542
9.73847
9.34053
9.03547
8.78464
8.49333
8.15518
7.86788
7.68254
7.49275
7.22581
6.8866
6.64461
6.49997
6.32438
6.08124
5.84975
5.63697
5.43052
5.27285
5.11673
4.94243
4.76052
4.58236
4.43697
4.311
4.18761
4.06049
3.92325
3.77699
3.63817
3.52177
3.42248
3.32435
3.21646
3.10936
3.03524
2.96815
2.98014
3.17717
3.64342
4.09273
4.37576
4.4639
4.45116
4.36998
4.24967
4.13945
4.06412
4.02229
3.98615
3.94978
3.90588
3.82762
3.7312
3.67076
3.6375
3.60574
3.57038
3.52701
3.46012
3.37989
3.30937
3.25639
3.2278
3.22729
3.22891
3.28243
3.46107
3.76344
4.01686
4.2591
4.37659
4.38545
4.36108
4.30899
4.26417
4.23898
4.22209
4.2
4.16571
4.13135
4.10099
4.07385
4.04727
4.01695
3.97467
3.91634
3.86667
3.84474
3.82886
3.80834
3.78274
3.75291
3.70955
3.65558
3.57836
9.86745
9.54059
9.23822
9.00177
8.78087
8.44937
8.1407
7.9211
7.72309
7.4634
7.16049
6.91158
6.75564
6.58653
6.3583
6.1086
5.90154
5.70072
5.52385
5.36364
5.19116
5.00566
4.82043
4.65872
4.52168
4.39354
4.26254
4.12119
3.96767
3.81703
3.68985
3.58664
3.49466
3.39323
3.27357
3.15355
3.01829
2.90674
2.90394
3.01088
3.35047
3.79531
4.1497
4.33765
4.33083
4.23568
4.10507
3.99311
3.94249
3.90933
3.88427
3.84753
3.79136
3.69836
3.60637
3.56497
3.53458
3.50399
3.46766
3.41998
3.34355
3.24838
3.20397
3.20699
3.2365
3.36591
3.63512
4.00442
4.20775
4.30462
4.38091
4.42862
4.42601
4.39702
4.34763
4.28327
4.23004
4.20881
4.19077
4.16602
4.13941
4.11323
4.08578
4.05649
4.02336
3.98166
3.93235
3.8888
3.85824
3.83127
3.80587
3.78011
3.74931
3.70841
3.6608
3.5911
9.91644
9.66631
9.4385
9.20839
8.93629
8.62753
8.35237
8.13569
7.96563
7.71112
7.37956
7.11279
6.93679
6.75832
6.52528
6.25423
6.03465
5.84229
5.65379
5.47977
5.29813
5.10078
4.90427
4.73333
4.58791
4.45275
4.31633
4.17119
4.01561
3.85969
3.71914
3.6003
3.49747
3.39678
3.28751
3.16729
3.0534
2.94757
2.86432
2.82176
2.87079
3.09851
3.50251
3.88188
4.13466
4.16457
4.10665
3.97861
3.8836
3.841
3.81283
3.7826
3.73384
3.66065
3.55885
3.49445
3.4633
3.43894
3.40666
3.36138
3.29706
3.22615
3.21672
3.23927
3.40941
3.7392
4.14073
4.39828
4.44508
4.43478
4.42204
4.41329
4.41
4.38697
4.36225
4.32138
4.25804
4.20998
4.1879
4.17005
4.1502
4.12856
4.10423
4.07526
4.03976
3.99742
3.95283
3.91233
3.87944
3.84997
3.82067
3.79027
3.75707
3.7196
3.68223
3.6172
9.92875
9.74619
9.53889
9.30518
9.04323
8.78498
8.55299
8.35155
8.14052
7.84237
7.53229
7.28476
7.11106
6.93392
6.69853
6.41712
6.18983
6.00952
5.81799
5.63151
5.4404
5.23283
5.02694
4.85003
4.6993
4.55953
4.41967
4.27218
4.11599
3.95862
3.81241
3.68313
3.56597
3.45803
3.35032
3.23652
3.12091
3.00953
2.90273
2.82432
2.75265
2.76222
2.87902
3.2108
3.61055
3.96544
4.05374
3.98516
3.85245
3.77755
3.73621
3.70639
3.66891
3.61372
3.53235
3.43866
3.38821
3.356
3.32854
3.29428
3.26561
3.26354
3.29324
3.4925
3.86712
4.17648
4.44858
4.56921
4.558
4.49002
4.40693
4.37923
4.36702
4.36913
4.36499
4.34238
4.29703
4.24149
4.20274
4.17617
4.15449
4.13333
4.11014
4.08262
4.04848
4.00838
3.96634
3.92573
3.88895
3.85599
3.82506
3.7949
3.76588
3.73489
3.70428
3.64
9.9207
9.76672
9.57264
9.36488
9.13749
8.91052
8.69478
8.48335
8.2327
7.94247
7.67561
7.45607
7.29156
7.09023
6.82752
6.54062
6.31735
6.13693
5.94682
5.75329
5.55164
5.33411
5.12487
4.94562
4.78955
4.64326
4.49838
4.34735
4.18728
4.02865
3.88325
3.7535
3.63197
3.51502
3.39929
3.28218
3.16606
3.05938
2.95806
2.86801
2.77808
2.70584
2.6556
2.7081
2.96373
3.38701
3.81357
3.9177
3.84169
3.72836
3.66909
3.63085
3.60345
3.56525
3.50971
3.42077
3.32262
3.27312
3.24478
3.23606
3.28379
3.3701
3.64176
4.07741
4.32061
4.45894
4.55543
4.58427
4.555
4.49879
4.42994
4.38952
4.37202
4.36287
4.35468
4.33544
4.30768
4.26907
4.22852
4.19561
4.16952
4.14563
4.12015
4.09013
4.05455
4.01598
3.97777
3.94037
3.90291
3.86638
3.83283
3.80274
3.77544
3.74589
3.71584
3.65061
9.94571
9.80164
9.61158
9.41351
9.20353
8.99397
8.78512
8.55989
8.30435
8.04238
7.80186
7.59858
7.4134
7.1726
6.89336
6.63395
6.4314
6.25659
6.06528
5.8575
5.63668
5.41639
5.2208
5.04905
4.889
4.73209
4.57183
4.4048
4.23699
4.08248
3.94611
3.8214
3.69959
3.57439
3.4429
3.31373
3.19836
3.10023
3.00884
2.91997
2.82667
2.72308
2.63564
2.56358
2.59087
2.79629
3.19905
3.63608
3.76759
3.70501
3.61373
3.56387
3.53275
3.50125
3.46014
3.39683
3.28939
3.21719
3.20641
3.24063
3.39163
3.76867
4.25098
4.51938
4.54947
4.5386
4.52975
4.53201
4.52229
4.50266
4.46777
4.41801
4.38593
4.36544
4.34753
4.32848
4.30625
4.27963
4.24823
4.21486
4.18284
4.15223
4.12076
4.08673
4.05079
4.01564
3.98215
3.94874
3.91311
3.87572
3.8399
3.80789
3.77911
3.7476
3.71575
3.65287
9.97606
9.82379
9.64044
9.4551
9.26281
9.0635
8.84746
8.61153
8.36724
8.13439
7.92327
7.72919
7.50163
7.23085
6.96159
6.73274
6.54821
6.36478
6.15551
5.91724
5.67533
5.47933
5.30549
5.14103
4.97829
4.80841
4.62489
4.4388
4.27213
4.12828
4.00056
3.87962
3.75732
3.62474
3.48015
3.3404
3.22355
3.1299
3.04547
2.96149
2.87179
2.76669
2.65274
2.55499
2.4966
2.51396
2.66198
3.00154
3.43034
3.61
3.57791
3.5122
3.46251
3.42499
3.38395
3.33373
3.2767
3.22566
3.2362
3.39561
3.8231
4.29572
4.60982
4.64177
4.59933
4.54187
4.51477
4.50535
4.51232
4.50229
4.48082
4.44166
4.39758
4.3677
4.34571
4.32715
4.30818
4.28676
4.25961
4.22527
4.18839
4.15355
4.12051
4.08766
4.05492
4.02286
3.99074
3.95755
3.9224
3.88696
3.85341
3.82198
3.79074
3.75515
3.71903
3.65573
10.0073
9.85534
9.67268
9.48745
9.29348
9.08848
8.87166
8.64638
8.4243
8.20921
8.00263
7.78809
7.53298
7.25778
7.01466
6.8216
6.65
6.4421
6.20701
5.94659
5.724
5.54546
5.37955
5.21511
5.04809
4.8653
4.66278
4.46883
4.3072
4.17249
4.04986
3.92881
3.80185
3.66395
3.5137
3.36908
3.25034
3.15651
3.07405
2.98976
2.90049
2.79873
2.68632
2.57412
2.49323
2.44338
2.44009
2.52905
2.81447
3.22979
3.48885
3.46528
3.39897
3.34807
3.29695
3.26426
3.25818
3.29905
3.49765
3.95316
4.32674
4.5877
4.68782
4.66873
4.61794
4.55362
4.52481
4.51219
4.51089
4.49959
4.47649
4.43922
4.40209
4.37781
4.35954
4.34272
4.32294
4.29807
4.2663
4.23178
4.19918
4.16832
4.13598
4.10125
4.06731
4.03537
4.00366
3.97151
3.93885
3.90582
3.87024
3.83093
3.78998
3.74725
3.70954
3.65131
10.036
9.88163
9.69902
9.51371
9.31775
9.11239
8.90066
8.6863
8.47517
8.26522
8.05006
7.80887
7.54558
7.29805
7.0899
6.91138
6.71591
6.4851
6.23185
5.98647
5.78189
5.60531
5.43803
5.27019
5.09209
4.89536
4.69135
4.50495
4.34604
4.2078
4.08422
3.96677
3.84226
3.69966
3.5472
3.40486
3.28148
3.17587
3.0895
3.01294
2.93238
2.83618
2.72693
2.61636
2.51335
2.43104
2.3744
2.36905
2.42989
2.65999
3.05071
3.32301
3.32281
3.27682
3.24368
3.25219
3.33314
3.60196
4.10668
4.46006
4.58183
4.63832
4.66152
4.64521
4.60724
4.56508
4.53796
4.52294
4.51052
4.49285
4.46615
4.43851
4.41922
4.40122
4.3789
4.3511
4.31964
4.28818
4.25918
4.23244
4.20584
4.17644
4.14034
4.09951
4.06442
4.0355
4.00769
3.97911
3.94808
3.91275
3.87088
3.82474
3.78202
3.7436
3.71239
3.65927
10.0552
9.90054
9.71836
9.5336
9.33891
9.13735
8.93105
8.723
8.5135
8.29792
8.06903
7.82308
7.57602
7.34932
7.15161
6.96105
6.73881
6.49704
6.25395
6.03425
5.84324
5.65969
5.47926
5.29614
5.10134
4.90175
4.71499
4.54866
4.39689
4.25176
4.11183
3.97459
3.83397
3.69223
3.56178
3.443
3.32938
3.21747
3.10563
2.9981
2.90003
2.81041
2.73011
2.65225
2.56233
2.47014
2.38495
2.31176
2.27273
2.31145
2.50196
2.8499
3.14858
3.195
3.24085
3.36896
3.6744
4.14808
4.57604
4.70694
4.69684
4.65693
4.63337
4.61198
4.59198
4.57151
4.55226
4.53122
4.50741
4.4825
4.46392
4.44774
4.43181
4.41106
4.38372
4.34436
4.30557
4.28004
4.25767
4.23428
4.20926
4.17879
4.13802
4.09461
4.0624
4.03637
4.01083
3.984
3.95335
3.91515
3.86862
3.82521
3.78895
3.75511
3.7272
3.67517
10.0635
9.90887
9.72756
9.54477
9.35345
9.15522
8.9519
8.74381
8.52933
8.30598
8.07414
7.83994
7.61312
7.39935
7.19941
6.96819
6.72107
6.48176
6.27416
6.08231
5.89302
5.70257
5.50283
5.29373
5.08958
4.90185
4.73622
4.58854
4.44612
4.29922
4.14119
3.97323
3.81608
3.68136
3.56578
3.46281
3.36148
3.25208
3.13053
3.00519
2.89179
2.80133
2.72233
2.6508
2.57907
2.49998
2.40093
2.30087
2.22059
2.18424
2.2149
2.38035
2.71459
3.04019
3.36138
3.79878
4.18149
4.54769
4.7222
4.71695
4.68109
4.64488
4.61706
4.59841
4.58934
4.57958
4.5636
4.53766
4.5012
4.4781
4.46347
4.45248
4.43755
4.41455
4.38246
4.33653
4.30071
4.27813
4.25745
4.2356
4.21113
4.17983
4.13662
4.09325
4.06328
4.0384
4.0137
3.98765
3.95761
3.91905
3.87024
3.82769
3.79836
3.77293
3.75064
3.69957
10.0654
9.91654
9.7367
9.55521
9.36604
9.16929
8.96576
8.75378
8.53344
8.30768
8.08232
7.86457
7.65574
7.45183
7.21667
6.96026
6.71309
6.49246
6.30033
6.12487
5.93035
5.72951
5.51111
5.27975
5.07011
4.90199
4.75906
4.62423
4.48717
4.33304
4.1493
3.95308
3.78708
3.66596
3.56996
3.48224
3.39249
3.28789
3.15064
2.99432
2.86389
2.77728
2.71267
2.65631
2.59887
2.52966
2.43049
2.30527
2.19679
2.13338
2.11309
2.15415
2.34244
2.82857
3.55596
4.19673
4.67563
4.94552
4.8982
4.76893
4.67998
4.63635
4.61345
4.59737
4.58679
4.57643
4.56171
4.53515
4.49644
4.47544
4.4616
4.45507
4.44023
4.41676
4.38259
4.33406
4.30057
4.27892
4.25903
4.23756
4.21277
4.18011
4.13483
4.09274
4.06478
4.04057
4.01647
3.99071
3.95953
3.91869
3.87303
3.83807
3.81026
3.78249
3.75627
3.6997
)
;

boundaryField
{
    inlet
    {
        type            fixedValue;
        value           uniform 1;
    }
    outlet
    {
        type            zeroGradient;
    }
    bottom
    {
        type            symmetryPlane;
    }
    top
    {
        type            symmetryPlane;
    }
    obstacle
    {
        type            zeroGradient;
    }
    defaultFaces
    {
        type            empty;
    }
}


// ************************************************************************* //
