/*--------------------------------*- C++ -*----------------------------------*\
  =========                 |
  \\      /  F ield         | OpenFOAM: The Open Source CFD Toolbox
   \\    /   O peration     | Website:  https://openfoam.org
    \\  /    A nd           | Version:  7
     \\/     M anipulation  |
\*---------------------------------------------------------------------------*/
FoamFile
{
    version     2.0;
    format      ascii;
    class       volScalarField;
    location    "8";
    object      rho;
}
// * * * * * * * * * * * * * * * * * * * * * * * * * * * * * * * * * * * * * //

dimensions      [1 -3 0 0 0 0 0];

internalField   nonuniform List<scalar> 
4032
(
1.40001
1.40001
1.40001
1.40001
1.40001
1.40001
1.40001
1.40001
1.40001
1.40001
1.40001
1.58524
4.40106
5.46693
5.51374
5.58942
5.6569
5.72121
5.78007
5.8326
5.87894
5.91609
5.94452
5.9656
1.40001
1.40001
1.40001
1.40001
1.40001
1.40001
1.40001
1.40001
1.40001
1.40001
1.40001
1.56207
4.33109
5.45188
5.50852
5.58271
5.64887
5.71138
5.76827
5.81837
5.86199
5.89648
5.92186
5.9419
1.40001
1.40001
1.40001
1.40001
1.40001
1.40001
1.40001
1.40001
1.40001
1.40001
1.40001
1.50643
4.22194
5.44278
5.49364
5.56693
5.633
5.69478
5.75055
5.79891
5.84004
5.87159
5.89213
5.90915
1.40001
1.40001
1.40001
1.40001
1.40001
1.40001
1.40001
1.40001
1.40001
1.40001
1.40001
1.4124
4.04141
5.43173
5.47612
5.54221
5.60415
5.66161
5.71415
5.76046
5.80058
5.83097
5.84829
5.86163
1.40001
1.40001
1.40001
1.40001
1.40001
1.40001
1.40001
1.40001
1.40001
1.40001
1.40001
1.40018
3.76498
5.37169
5.42904
5.49286
5.55559
5.61229
5.66267
5.70415
5.73662
5.7609
5.77404
5.79232
1.40001
1.40001
1.40001
1.40001
1.40001
1.40001
1.40001
1.40001
1.40001
1.40001
1.40001
1.4
3.40654
5.28808
5.38989
5.44863
5.50786
5.55733
5.59955
5.63429
5.66224
5.6853
5.69428
5.68521
1.40001
1.40001
1.40001
1.40001
1.40001
1.40001
1.40001
1.40001
1.40001
1.40001
1.40001
1.4
2.98534
5.17037
5.36094
5.41113
5.45859
5.49437
5.52164
5.54129
5.54794
5.53569
5.51744
5.51001
1.40001
1.40001
1.40001
1.40001
1.40001
1.40001
1.40001
1.40001
1.40001
1.40001
1.40001
1.40001
2.51079
5.01088
5.36903
5.39395
5.42161
5.43888
5.44445
5.44179
5.42256
5.39231
5.33779
5.31175
1.40001
1.40001
1.40001
1.40001
1.40001
1.40001
1.40001
1.40001
1.40001
1.40001
1.40001
1.40001
1.99073
4.7706
5.40064
5.37742
5.38819
5.38625
5.37006
5.33998
5.27957
5.17636
4.86239
4.00774
1.40001
1.40001
1.40001
1.40001
1.40001
1.40001
1.40001
1.40001
1.40001
1.40001
1.40001
1.40001
1.50007
4.35341
5.42593
5.36813
5.34509
5.31698
5.27768
5.21743
5.11563
4.92758
4.59821
3.70354
1.40001
1.40001
1.40001
1.40001
1.40001
1.40001
1.40001
1.40001
1.40001
1.40001
1.40001
1.40001
1.4013
3.64131
5.18584
5.24255
5.25434
5.22679
5.17779
5.09308
4.96212
4.72966
4.38657
3.56456
1.40001
1.40001
1.40001
1.40001
1.40001
1.40001
1.40001
1.40001
1.40001
1.40001
1.40001
1.40001
1.39998
2.8227
4.99654
5.20168
5.20041
5.16753
5.10545
4.9971
4.83761
4.59322
4.21579
3.54378
1.40001
1.40001
1.40001
1.40001
1.40001
1.40001
1.40001
1.40001
1.40001
1.40001
1.40001
1.40001
1.4
2.00034
4.73467
5.207
5.15771
5.10063
5.02396
4.90331
4.72832
4.48518
4.10178
3.5739
1.40001
1.40001
1.40001
1.40001
1.40001
1.40001
1.40001
1.40001
1.40001
1.40001
1.40001
1.40001
1.4
1.47789
4.00932
5.10756
5.07934
5.02663
4.94497
4.82139
4.64896
4.40355
4.04542
3.62501
1.40001
1.40001
1.40001
1.40001
1.40001
1.40001
1.40001
1.40001
1.40001
1.40001
1.40001
1.40001
1.4
1.40038
2.93634
4.94093
5.04165
4.98984
4.89962
4.75883
4.58659
4.33681
4.02072
3.66863
1.40001
1.40001
1.40001
1.40001
1.40001
1.40001
1.40001
1.40001
1.40001
1.40001
1.40001
1.40001
1.40001
1.4
1.82843
4.68821
5.10123
4.97121
4.85125
4.70319
4.51605
4.29082
4.01941
3.71509
1.40001
1.40001
1.40001
1.40001
1.40001
1.40001
1.40001
1.40001
1.40001
1.40001
1.40001
1.40001
1.40001
1.4
1.42794
3.76469
4.95872
4.87054
4.77801
4.64115
4.46675
4.26042
4.01937
3.75073
1.40001
1.40001
1.40001
1.40001
1.40001
1.40001
1.40001
1.40001
1.40001
1.40001
1.40001
1.40001
1.40001
1.4
1.39995
2.47159
4.76282
4.8467
4.77376
4.64206
4.46856
4.26199
4.02969
3.78492
1.40001
1.40001
1.40001
1.40001
1.40001
1.40001
1.40001
1.40001
1.40001
1.40001
1.40001
1.40001
1.40001
1.40001
1.39999
1.57732
4.02091
4.86171
4.76991
4.63034
4.45872
4.26116
4.0452
3.82086
1.40001
1.40001
1.40001
1.40001
1.40001
1.40001
1.40001
1.40001
1.40001
1.40001
1.40001
1.40001
1.40001
1.40001
1.4
1.40336
2.71557
4.67514
4.74063
4.60623
4.44895
4.26479
4.06749
3.8618
1.40001
1.40001
1.40001
1.40001
1.40001
1.40001
1.40001
1.40001
1.40001
1.40001
1.40001
1.40001
1.40001
1.40001
1.4
1.4
1.65934
4.03375
4.7738
4.61507
4.45979
4.28123
4.09503
3.90216
1.40001
1.40001
1.40001
1.40001
1.40001
1.40001
1.40001
1.40001
1.40001
1.40001
1.40001
1.40001
1.40001
1.40001
1.40001
1.4
1.40793
2.68546
4.58216
4.59698
4.45533
4.29473
4.11846
3.93692
1.40001
1.40001
1.40001
1.40001
1.40001
1.40001
1.40001
1.40001
1.40001
1.40001
1.40001
1.40001
1.40001
1.40001
1.40001
1.40001
1.40003
1.64042
3.83929
4.65491
4.49601
4.34121
4.16042
3.99025
1.40001
1.40001
1.40001
1.40001
1.40001
1.40001
1.40001
1.40001
1.40001
1.40001
1.40001
1.40001
1.40001
1.40001
1.40001
1.40001
1.40001
1.40708
2.38674
4.3384
4.53152
4.37126
4.20125
4.06977
1.40001
1.40001
1.40001
1.40001
1.40001
1.40001
1.40001
1.40001
1.40001
1.40001
1.40001
1.40001
1.40001
1.40001
1.40001
1.40001
1.40001
1.40004
1.53483
3.37148
4.56746
4.39378
4.3056
4.49766
1.40001
1.40001
1.40001
1.40001
1.40001
1.40001
1.40001
1.40001
1.40001
1.40001
1.40001
1.40001
1.40001
1.40001
1.40001
1.40001
1.40001
1.40001
1.40258
1.99872
4.06119
4.42712
4.81585
5.22829
1.40001
1.40001
1.40001
1.40001
1.40001
1.40001
1.40001
1.40001
1.40001
1.40001
1.40001
1.40001
1.40001
1.40001
1.40001
1.40001
1.40001
1.40001
1.40002
1.44678
2.68809
4.56991
5.75895
5.78345
1.40001
1.40001
1.40001
1.40001
1.40001
1.40001
1.40001
1.40001
1.40001
1.40001
1.40001
1.40001
1.40001
1.40001
1.40001
1.40001
1.40001
1.40001
1.40001
1.4006
1.62674
4.66832
6.25631
5.92595
1.40001
1.40001
1.40001
1.40001
1.40001
1.40001
1.40001
1.40001
1.40001
1.40001
1.40001
1.40001
1.40001
1.40001
1.40001
1.40001
1.40001
1.40001
1.40001
1.40001
1.40746
4.36793
5.98109
5.71687
1.40001
1.40001
1.40001
1.40001
1.40001
1.40001
1.40001
1.40001
1.40001
1.40001
1.40001
1.40001
1.40001
1.40001
1.40001
1.40001
1.40001
1.40001
1.40001
1.40001
1.40003
4.00537
5.65611
5.47355
1.40001
1.40001
1.40001
1.40001
1.40001
1.40001
1.40001
1.40001
1.40001
1.40001
1.40001
1.40001
1.40001
1.40001
1.40001
1.40001
1.40001
1.40001
1.40001
1.40001
1.40001
3.75816
5.4174
5.331
1.40001
1.40001
1.40001
1.40001
1.40001
1.40001
1.40001
1.40001
1.40001
1.40001
1.40001
1.40001
1.40001
1.40001
1.40001
1.40001
1.40001
1.40001
1.40001
1.40001
1.40001
3.49303
5.27589
5.30001
1.40001
1.40001
1.40001
1.40001
1.40001
1.40001
1.40001
1.40001
1.40001
1.40001
1.40001
1.40001
1.40001
1.40001
1.40001
1.40001
1.40001
1.40001
1.40001
1.40001
1.40001
3.24897
5.22982
5.30982
1.40001
1.40001
1.40001
1.40001
1.40001
1.40001
1.40001
1.40001
1.40001
1.40001
1.40001
1.40001
1.40001
1.40001
1.40001
1.40001
1.40001
1.40001
1.40001
1.40001
1.40001
2.99209
5.21803
5.34218
1.40001
1.40001
1.40001
1.40001
1.40001
1.40001
1.40001
1.40001
1.40001
1.40001
1.40001
1.40001
1.40001
1.40001
1.40001
1.40001
1.40001
1.40001
1.40001
1.40001
1.40001
2.75744
5.19457
5.38388
1.40001
1.40001
1.40001
1.40001
1.40001
1.40001
1.40001
1.40001
1.40001
1.40001
1.40001
1.40001
1.40001
1.40001
1.40001
1.40001
1.40001
1.40001
1.40001
1.40001
1.40001
2.56434
5.14024
5.41197
1.40001
1.40001
1.40001
1.40001
1.40001
1.40001
1.40001
1.40001
1.40001
1.40001
1.40001
1.40001
1.40001
1.40001
1.40001
1.40001
1.40001
1.40001
1.40001
1.40001
1.40001
2.42475
5.07524
5.4236
1.40001
1.40001
1.40001
1.40001
1.40001
1.40001
1.40001
1.40001
1.40001
1.40001
1.40001
1.40001
1.40001
1.40001
1.40001
1.40001
1.40001
1.40001
1.40001
1.40001
1.40001
2.33045
5.02202
5.4244
1.40001
1.40001
1.40001
1.40001
1.40001
1.40001
1.40001
1.40001
1.40001
1.40001
1.40001
1.40001
1.40001
1.40001
1.40001
1.40001
1.40001
1.40001
1.40001
1.40001
1.40001
2.26943
4.98385
5.42201
1.40001
1.40001
1.40001
1.40001
1.40001
1.40001
1.40001
1.40001
1.40001
1.40001
1.40001
1.40001
1.40001
1.40001
1.40001
1.40001
1.40001
1.40001
1.40001
1.40001
1.40001
2.24673
4.95823
5.41719
1.30682
0.555479
0.262909
0.177448
0.190007
0.248415
0.358545
0.49832
0.642936
0.749606
0.818238
0.842135
0.855502
0.890512
0.971271
1.03824
1.06087
2.0446
2.57475
2.63983
2.71887
2.77786
2.78591
2.78071
2.7743
2.78333
2.80397
2.8168
2.8185
2.81529
2.81056
2.80613
2.79904
2.7863
2.77161
2.76238
2.75962
2.75892
2.75241
2.73086
2.70132
2.67493
2.65741
2.6488
2.64261
2.62852
2.60445
2.57805
2.55396
2.53405
2.51785
2.50086
2.47845
2.45267
2.4276
2.4059
2.38747
2.36512
2.33678
2.30764
2.28082
2.25774
2.24147
2.22799
2.20666
2.18175
2.15409
2.12461
2.09894
2.07756
2.05951
2.04448
2.02512
2.00238
1.97539
1.94492
1.91774
1.89748
1.88049
1.86641
1.85098
1.83232
1.80975
1.7817
1.7507
1.72049
1.69626
1.68163
1.67462
1.69234
1.77504
2.01574
2.51931
2.64995
2.59786
2.57123
1.9835
1.23531
0.905844
0.695867
0.569705
0.532669
0.539718
0.567422
0.583347
0.611572
0.654408
0.709336
0.765309
0.819606
0.894599
0.965229
1.00992
1.91266
2.6091
2.6991
2.76855
2.81559
2.81201
2.8037
2.79759
2.80441
2.82501
2.83973
2.83547
2.82188
2.80951
2.80546
2.80843
2.81238
2.80475
2.78482
2.76516
2.7521
2.74732
2.74259
2.72445
2.69577
2.66952
2.65132
2.64289
2.63755
2.62082
2.59265
2.56413
2.53908
2.52008
2.50695
2.49208
2.46717
2.43836
2.41103
2.38562
2.36455
2.3442
2.31975
2.29298
2.2674
2.24529
2.22433
2.20522
2.18499
2.16235
2.13787
2.11038
2.08262
2.05944
2.03975
2.02263
2.00373
1.98216
1.95892
1.93202
1.90411
1.88095
1.86335
1.84839
1.83274
1.81307
1.78983
1.7632
1.73455
1.7056
1.69055
1.69404
1.73715
1.85339
2.0438
2.42428
2.60582
2.57919
2.56435
2.50737
1.78656
1.38223
1.1574
0.980302
0.84127
0.742931
0.672281
0.651257
0.66505
0.691613
0.727531
0.779309
0.817669
0.852696
0.918397
0.976789
1.67683
2.73994
2.90451
2.88183
2.88904
2.88605
2.87727
2.87347
2.87676
2.89336
2.91579
2.92123
2.90266
2.87561
2.85491
2.84538
2.85481
2.87244
2.87
2.84401
2.81513
2.79162
2.77989
2.77498
2.76248
2.73693
2.70975
2.68842
2.67505
2.66459
2.64645
2.61942
2.59025
2.5639
2.54313
2.52883
2.51408
2.49012
2.46015
2.4261
2.39415
2.3685
2.34701
2.32859
2.30815
2.28285
2.25342
2.22313
2.19873
2.17901
2.16195
2.14202
2.11807
2.08705
2.05093
2.02263
2.00392
1.99105
1.97818
1.96041
1.9381
1.90848
1.87467
1.84825
1.82965
1.81378
1.7972
1.77957
1.76213
1.74075
1.73416
1.75976
1.8499
1.97915
2.07239
2.28007
2.54942
2.60397
2.59434
2.83154
2.2689
1.83417
1.51315
1.31989
1.19674
1.08226
0.930539
0.835586
0.830257
0.827835
0.80566
0.784976
0.780833
0.785982
0.818173
0.881418
1.24172
2.68278
3.15064
3.07205
3.02699
3.0283
3.02286
3.007
2.99373
2.99098
3.00016
3.01635
3.01303
2.99429
2.96644
2.94568
2.93406
2.93926
2.952
2.94073
2.91533
2.88561
2.86193
2.84503
2.83555
2.82174
2.79769
2.77115
2.74744
2.72797
2.71073
2.68974
2.66494
2.63726
2.61116
2.58945
2.5711
2.55013
2.52479
2.49653
2.46206
2.42606
2.39923
2.37704
2.35627
2.33316
2.30773
2.27706
2.24359
2.21655
2.19619
2.17748
2.1576
2.13336
2.10058
2.0635
2.03744
2.02018
2.00495
1.99055
1.97365
1.95159
1.91786
1.881
1.85601
1.83784
1.81961
1.80383
1.79563
1.79668
1.81898
1.89103
2.01357
2.10847
2.13024
2.20439
2.41817
2.60752
2.63386
3.04166
2.5705
2.21048
1.90274
1.60708
1.44149
1.35282
1.24013
1.08946
0.953649
0.930281
0.914024
0.873757
0.836087
0.841116
0.882351
1.00649
1.11681
1.92815
3.07655
3.25194
3.18419
3.16365
3.1725
3.16434
3.14257
3.12186
3.11364
3.11645
3.12578
3.11778
3.09969
3.07668
3.05801
3.04662
3.04789
3.04341
3.02431
2.99949
2.97117
2.94854
2.93107
2.91761
2.89861
2.87424
2.84625
2.82077
2.79843
2.77561
2.75223
2.72726
2.70118
2.67592
2.65105
2.62604
2.60037
2.57293
2.54164
2.50751
2.47551
2.44746
2.42134
2.39564
2.36927
2.34026
2.30764
2.27619
2.25023
2.22711
2.20419
2.18002
2.15274
2.12124
2.0895
2.066
2.04871
2.03176
2.01362
1.99164
1.96179
1.92587
1.89626
1.87704
1.86187
1.8535
1.86105
1.88602
1.95502
2.07766
2.15912
2.19565
2.18872
2.20711
2.30564
2.51912
2.67185
3.21464
2.80281
2.45128
2.19938
1.94932
1.68784
1.52515
1.44915
1.34265
1.18864
1.07289
1.0413
1.01579
1.00784
1.03808
1.10375
1.2628
1.36656
1.45507
2.22527
3.13776
3.29957
3.28324
3.29974
3.29675
3.27707
3.24891
3.22194
3.20513
3.20719
3.21507
3.20215
3.18139
3.15762
3.13992
3.12918
3.126
3.11158
3.08977
3.06054
3.03412
3.01381
2.99785
2.98031
2.95713
2.92938
2.89843
2.87234
2.84905
2.82617
2.80293
2.7778
2.74956
2.72013
2.69282
2.66683
2.64016
2.61155
2.58002
2.546
2.51319
2.48449
2.45813
2.4316
2.40308
2.37091
2.33538
2.30306
2.27826
2.25622
2.23403
2.21066
2.18371
2.15045
2.11565
2.09152
2.07383
2.05554
2.03475
2.00968
1.97904
1.94384
1.91849
1.90978
1.91868
1.95699
2.02885
2.15661
2.26821
2.28325
2.27505
2.25618
2.24501
2.27678
2.38379
2.60988
3.32426
2.98601
2.65062
2.38272
2.18497
1.96361
1.73509
1.5911
1.50353
1.38938
1.26319
1.18349
1.17783
1.23752
1.30619
1.39594
1.53532
1.56414
1.56212
1.628
2.28923
3.14555
3.35271
3.39286
3.40362
3.37395
3.3461
3.30714
3.27987
3.26951
3.28147
3.27818
3.25898
3.23245
3.20918
3.19326
3.1857
3.17558
3.15581
3.12871
3.09832
3.07616
3.05833
3.041
3.01836
2.99114
2.95724
2.92696
2.90419
2.88286
2.86111
2.83684
2.8079
2.77426
2.74232
2.71554
2.69066
2.665
2.63639
2.60283
2.56585
2.53236
2.50498
2.48009
2.45458
2.4256
2.38971
2.34878
2.31644
2.29485
2.27553
2.25588
2.23439
2.20726
2.17066
2.1317
2.10509
2.08552
2.06632
2.04572
2.02384
1.99663
1.9719
1.97253
2.00199
2.08344
2.19891
2.33914
2.39566
2.38659
2.35731
2.32757
2.30133
2.28981
2.32223
2.4867
3.41207
3.12042
2.8222
2.55188
2.34112
2.15917
1.94677
1.74751
1.63252
1.54581
1.46193
1.42318
1.4876
1.5963
1.62731
1.69384
1.73465
1.71602
1.71068
1.69419
1.75651
2.33732
3.13614
3.3954
3.48585
3.46956
3.41911
3.37098
3.33837
3.32397
3.33011
3.33131
3.31253
3.28646
3.258
3.23978
3.22728
3.21698
3.19796
3.17276
3.14068
3.11581
3.09663
3.07899
3.05692
3.03068
2.9967
2.96258
2.93909
2.91848
2.89727
2.87385
2.84639
2.81227
2.77603
2.74683
2.72248
2.69842
2.67227
2.64143
2.60438
2.56625
2.53575
2.51159
2.48865
2.4637
2.43248
2.3903
2.34659
2.31997
2.30223
2.28522
2.26741
2.24656
2.21723
2.17428
2.13151
2.10561
2.08688
2.06979
2.05681
2.04584
2.04129
2.06425
2.14616
2.25654
2.36474
2.44467
2.46398
2.45175
2.42695
2.39427
2.35898
2.3312
2.32826
2.39809
3.47924
3.21906
2.95921
2.69783
2.47548
2.30107
2.11957
1.92364
1.77687
1.7373
1.73054
1.76211
1.91452
1.96194
1.9148
1.91158
1.90646
1.87146
1.87016
1.86266
1.82999
1.8813
2.3557
3.07903
3.43364
3.53853
3.49365
3.43099
3.38438
3.36964
3.37052
3.37101
3.35264
3.32818
3.29715
3.27626
3.26039
3.24729
3.22781
3.20313
3.17071
3.14332
3.12339
3.10546
3.08407
3.05895
3.02667
2.98931
2.96242
2.94112
2.9195
2.89651
2.87079
2.83938
2.80262
2.76918
2.74252
2.7182
2.69307
2.66481
2.63103
2.59262
2.55745
2.53041
2.5077
2.4852
2.45909
2.42408
2.37876
2.33901
2.3167
2.30023
2.28392
2.26603
2.24319
2.20898
2.16191
2.12246
2.10169
2.09002
2.08861
2.10126
2.13365
2.22485
2.36456
2.42985
2.47055
2.49088
2.50248
2.49393
2.47608
2.45345
2.42195
2.38626
2.36169
2.37918
3.53596
3.29856
3.06559
2.82237
2.60567
2.42144
2.25541
2.09731
2.02226
2.07963
2.10048
2.1564
2.2371
2.22111
2.13277
2.0746
2.07699
2.04784
2.02807
2.02763
1.984
1.94052
1.98297
2.34361
3.00314
3.44029
3.53887
3.49345
3.43736
3.41154
3.40739
3.40415
3.38598
3.36275
3.32964
3.30538
3.28716
3.2715
3.25127
3.22624
3.19355
3.16392
3.14345
3.1251
3.10406
3.07977
3.04943
3.01125
2.97865
2.95477
2.93228
2.9093
2.8849
2.85703
2.82347
2.78756
2.75624
2.72942
2.70381
2.67728
2.64778
2.6134
2.57594
2.54204
2.51548
2.49322
2.47125
2.44571
2.41155
2.36791
2.32818
2.30372
2.28585
2.26908
2.25057
2.22738
2.19383
2.1496
2.12182
2.11603
2.13033
2.1857
2.28477
2.43835
2.54358
2.55857
2.54219
2.52671
2.52097
2.51692
2.50778
2.49469
2.47562
2.44916
2.41107
2.39146
3.59033
3.36684
3.15139
2.9236
2.71597
2.55893
2.44856
2.39162
2.45066
2.52281
2.484
2.47956
2.47046
2.42229
2.3361
2.24568
2.23345
2.22941
2.18585
2.16934
2.14718
2.08136
2.04867
2.07951
2.32434
2.90557
3.39828
3.51057
3.49069
3.45713
3.44919
3.43964
3.41709
3.39055
3.3533
3.32796
3.30927
3.29439
3.2744
3.2491
3.21573
3.18277
3.16112
3.14177
3.12043
3.09624
3.0671
3.03055
2.99471
2.96729
2.94312
2.91911
2.89451
2.86828
2.8383
2.80414
2.77023
2.73963
2.71137
2.68406
2.65653
2.62686
2.59304
2.55664
2.52292
2.49618
2.47478
2.45442
2.43081
2.39886
2.3566
2.31351
2.28257
2.26328
2.2477
2.23181
2.21212
2.18678
2.16565
2.17427
2.23149
2.3454
2.46641
2.59143
2.63332
2.62888
2.60299
2.56366
2.53985
2.52813
2.52383
2.5211
2.51087
2.49712
2.47279
2.42659
3.64489
3.42963
3.2246
3.02033
2.85195
2.79779
2.81746
2.83793
2.89158
2.85479
2.74623
2.68769
2.64753
2.60393
2.53592
2.43904
2.39019
2.39021
2.35523
2.30979
2.28909
2.24279
2.17889
2.15096
2.16359
2.31077
2.79122
3.29109
3.4456
3.49249
3.49906
3.48746
3.45259
3.41401
3.37025
3.34686
3.32965
3.31767
3.29844
3.27333
3.23925
3.20185
3.17773
3.15696
3.13431
3.10894
3.0797
3.045
3.01023
2.98199
2.95643
2.93045
2.90342
2.87536
2.84592
2.81494
2.78352
2.75241
2.72091
2.68927
2.65927
2.63129
2.60343
2.57317
2.53926
2.50417
2.47418
2.45197
2.43277
2.41125
2.38291
2.34431
2.29897
2.26037
2.23829
2.22496
2.22055
2.22399
2.24715
2.31815
2.45278
2.54563
2.61414
2.66207
2.67692
2.66662
2.64411
2.61118
2.57213
2.54983
2.53978
2.5379
2.54
2.53053
2.51706
2.4766
3.69507
3.49108
3.31953
3.17739
3.1775
3.25339
3.26028
3.25836
3.20706
3.08851
2.95919
2.8618
2.81826
2.78403
2.72115
2.62745
2.55269
2.53532
2.52013
2.4651
2.42085
2.38142
2.31803
2.2729
2.23583
2.24232
2.32545
2.66827
3.14576
3.40345
3.51385
3.53289
3.49978
3.44456
3.38952
3.3663
3.35152
3.34143
3.32237
3.29738
3.26313
3.22247
3.19584
3.17399
3.14977
3.12246
3.09151
3.05622
3.02375
2.99838
2.97392
2.94737
2.91763
2.88448
2.8499
2.81869
2.79203
2.76545
2.73568
2.70148
2.66499
2.63223
2.60578
2.58198
2.55618
2.52505
2.48833
2.45247
2.4265
2.40774
2.38927
2.36354
2.3269
2.28042
2.24517
2.23583
2.24326
2.28945
2.38266
2.54311
2.67121
2.69624
2.70547
2.70067
2.70119
2.69064
2.6742
2.65376
2.62108
2.5876
2.57111
2.56225
2.56191
2.55892
2.5486
2.51865
3.74004
3.58359
3.51891
3.55768
3.6824
3.66583
3.55683
3.50352
3.40891
3.282
3.16206
3.05112
2.99618
2.95937
2.89383
2.80274
2.71912
2.68182
2.66743
2.62723
2.55819
2.50763
2.45042
2.39766
2.36533
2.32121
2.31662
2.34977
2.57133
2.99809
3.35404
3.50008
3.53033
3.4951
3.43123
3.3951
3.37716
3.36188
3.34345
3.31954
3.28663
3.24452
3.21545
3.19284
3.168
3.14024
3.10771
3.06814
3.03417
3.01191
2.99023
2.9659
2.93693
2.90008
2.85501
2.81729
2.7937
2.77282
2.7494
2.72017
2.68223
2.63823
2.6026
2.57978
2.56117
2.54066
2.5135
2.47542
2.43115
2.39592
2.37541
2.35938
2.33979
2.31484
2.2857
2.28815
2.33417
2.44229
2.57054
2.7285
2.78363
2.78054
2.76038
2.73804
2.72543
2.71475
2.70406
2.68908
2.66741
2.63786
2.61389
2.60075
2.59184
2.58618
2.57748
2.55278
3.83735
3.87517
3.98727
4.06925
4.10226
3.95689
3.76915
3.67413
3.58252
3.46373
3.35535
3.24665
3.17021
3.12325
3.05837
2.96938
2.88664
2.83369
2.8033
2.77094
2.70837
2.63096
2.5773
2.52563
2.49064
2.44949
2.40009
2.36576
2.3722
2.4941
2.84678
3.24423
3.44996
3.51861
3.48943
3.44385
3.41006
3.38351
3.36231
3.33967
3.30997
3.26828
3.235
3.21168
3.18812
3.16338
3.13289
3.08972
3.04531
3.01982
2.99993
2.97883
2.95409
2.9208
2.87075
2.81923
2.79288
2.77493
2.75621
2.73433
2.70494
2.66037
2.60822
2.57725
2.56022
2.54447
2.52587
2.49859
2.45775
2.40627
2.36648
2.34957
2.34368
2.34801
2.37095
2.43625
2.57155
2.6757
2.76252
2.82697
2.83271
2.82448
2.80584
2.78159
2.76122
2.74902
2.73811
2.72438
2.70788
2.68745
2.6636
2.6449
2.63267
2.62157
2.61159
2.58881
4.16576
4.39706
4.43268
4.42108
4.32616
4.13149
3.94719
3.84754
3.77396
3.6549
3.53939
3.44133
3.35123
3.29469
3.22773
3.13236
3.04924
2.98866
2.94474
2.90658
2.85311
2.76852
2.70045
2.65738
2.61579
2.57846
2.5271
2.46743
2.40351
2.39886
2.45778
2.7069
3.09184
3.38413
3.47762
3.47053
3.44598
3.41712
3.39421
3.36618
3.33489
3.28965
3.24585
3.22323
3.20448
3.18396
3.15833
3.12007
3.06524
3.02259
3.00039
2.98253
2.96189
2.93605
2.89621
2.83759
2.7906
2.76837
2.75183
2.73593
2.71671
2.68802
2.63883
2.5855
2.55646
2.53645
2.51748
2.49766
2.47458
2.43646
2.38431
2.3635
2.36881
2.41499
2.51248
2.6785
2.82726
2.86269
2.88018
2.87677
2.87188
2.86222
2.84909
2.8313
2.80614
2.78758
2.77575
2.76356
2.74959
2.73434
2.71603
2.69354
2.67426
2.66046
2.64986
2.62723
4.81132
4.89145
4.75874
4.64169
4.47831
4.28463
4.12499
4.03668
3.96582
3.84537
3.71349
3.6287
3.5374
3.46858
3.39796
3.29073
3.20519
3.14258
3.09084
3.04462
2.98825
2.91192
2.82871
2.78149
2.73941
2.69747
2.6511
2.59039
2.51642
2.44552
2.44173
2.46531
2.61179
2.93262
3.26955
3.41633
3.42817
3.4423
3.43234
3.4049
3.36542
3.30752
3.24903
3.22472
3.20698
3.19148
3.17149
3.14264
3.0959
3.03753
3.00437
2.98481
2.96433
2.94076
2.90816
2.86449
2.80961
2.77309
2.75899
2.74565
2.7273
2.70398
2.6656
2.61276
2.56667
2.54194
2.52129
2.50207
2.48536
2.46283
2.42898
2.42418
2.46986
2.58645
2.73158
2.90724
2.96708
2.96482
2.94303
2.92468
2.91523
2.90562
2.89361
2.87587
2.84788
2.82531
2.81318
2.80325
2.79208
2.77987
2.76567
2.74523
2.71833
2.69616
2.68423
2.66125
5.32661
5.15103
4.96257
4.81736
4.65175
4.471
4.32519
4.24326
4.16433
4.03929
3.89215
3.81041
3.73226
3.64615
3.5691
3.45672
3.363
3.30511
3.24476
3.18929
3.12368
3.04802
2.96541
2.90378
2.85873
2.80982
2.76311
2.70575
2.63522
2.55773
2.4914
2.46276
2.47491
2.54319
2.76752
3.09062
3.29758
3.39018
3.4298
3.42337
3.38547
3.3178
3.24689
3.20955
3.19721
3.19424
3.17797
3.15205
3.11296
3.05221
2.98554
2.94412
2.92569
2.91371
2.90427
2.88182
2.84013
2.78559
2.73507
2.71225
2.69648
2.6825
2.66957
2.63901
2.59265
2.53841
2.49647
2.48032
2.47211
2.47687
2.50136
2.57597
2.72232
2.84138
2.95152
3.02001
3.02106
3.01213
2.99236
2.97317
2.95928
2.9472
2.93258
2.91048
2.87998
2.85714
2.84511
2.83625
2.82797
2.81676
2.80354
2.78373
2.75305
2.7209
2.70519
2.68294
5.61374
5.32497
5.12172
4.98981
4.83733
4.66543
4.52493
4.44288
4.35586
4.22722
4.07435
3.98543
3.92365
3.82573
3.73421
3.62906
3.52042
3.45927
3.39723
3.32932
3.25495
3.1705
3.09429
3.02668
2.97081
2.91764
2.85932
2.80195
2.73641
2.6626
2.59509
2.52967
2.48747
2.47281
2.48997
2.60622
2.87382
3.14489
3.32842
3.36795
3.35754
3.31438
3.25256
3.19902
3.16171
3.14009
3.12259
3.103
3.07854
3.04037
2.97847
2.92072
2.88998
2.87728
2.86536
2.84873
2.82795
2.78609
2.72904
2.6941
2.67664
2.66099
2.64242
2.62236
2.59183
2.53904
2.49401
2.48755
2.49086
2.54296
2.6618
2.85662
2.9929
3.03143
3.053
3.06111
3.05875
3.0493
3.03467
3.01607
2.99328
2.97258
2.95386
2.93302
2.90891
2.88807
2.87699
2.86765
2.85584
2.84101
2.82511
2.80587
2.77806
2.74335
2.72297
2.70236
5.65212
5.41907
5.26952
5.16051
5.02177
4.8578
4.71509
4.62653
4.53407
4.40465
4.25236
4.15469
4.09637
4.00504
3.89429
3.79565
3.68375
3.60016
3.53723
3.46265
3.38085
3.28798
3.20673
3.14012
3.07728
3.01559
2.9499
2.87948
2.81004
2.74136
2.67505
2.6116
2.54529
2.48606
2.45678
2.42953
2.47877
2.66366
2.95104
3.17435
3.2496
3.25192
3.23327
3.18882
3.13416
3.08842
3.05757
3.03354
3.01096
2.98601
2.95241
2.90299
2.85909
2.83281
2.81683
2.80074
2.78262
2.76028
2.72426
2.67641
2.64171
2.62202
2.60188
2.57807
2.55313
2.53159
2.50991
2.51868
2.58837
2.7339
2.91738
3.088
3.1244
3.11106
3.09497
3.08618
3.08923
3.07982
3.06363
3.04038
3.01142
2.98784
2.9685
2.95184
2.93608
2.91636
2.89078
2.8695
2.85615
2.84407
2.83046
2.81502
2.79633
2.77098
2.74521
2.70967
5.57747
5.45203
5.34769
5.25512
5.13746
4.99301
4.86623
4.78302
4.69722
4.57554
4.41941
4.30628
4.23747
4.15452
4.03935
3.92891
3.82719
3.72705
3.64976
3.57268
3.48549
3.39287
3.30049
3.22377
3.15628
3.08902
3.01858
2.94164
2.85858
2.77833
2.70942
2.64951
2.59022
2.52485
2.45988
2.41469
2.3684
2.3701
2.47262
2.72101
2.95477
3.09436
3.14693
3.14019
3.09968
3.04138
2.98687
2.94932
2.92918
2.91221
2.89528
2.87505
2.83671
2.78712
2.75657
2.74073
2.72583
2.70917
2.68752
2.65206
2.60891
2.5717
2.54405
2.52911
2.52942
2.53246
2.56341
2.66321
2.82829
2.96468
3.09031
3.15111
3.15439
3.1417
3.11479
3.09087
3.07755
3.06843
3.05626
3.03775
3.0193
3.00249
2.98706
2.97187
2.9546
2.9313
2.89979
2.87316
2.86146
2.8528
2.84136
2.82691
2.81016
2.78678
2.75818
2.71697
5.43116
5.36682
5.295
5.23476
5.17198
5.05311
4.93382
4.84732
4.76677
4.65577
4.52267
4.41167
4.34129
4.26375
4.15783
4.03893
3.93894
3.84206
3.75448
3.67298
3.5847
3.48913
3.39258
3.30637
3.23159
3.16058
3.08736
3.00818
2.92194
2.83639
2.76259
2.70131
2.64611
2.58547
2.5137
2.44257
2.36521
2.29563
2.29023
2.34234
2.52113
2.75003
2.93054
3.03044
3.0294
2.98415
2.92149
2.86849
2.84545
2.83085
2.82134
2.80687
2.78218
2.73722
2.69192
2.67347
2.66072
2.64755
2.6308
2.60787
2.56917
2.51886
2.4966
2.50122
2.52054
2.5948
2.74337
2.94137
3.04776
3.09676
3.13236
3.15514
3.15372
3.13898
3.1145
3.08295
3.0561
3.04454
3.03408
3.01966
3.00404
2.98891
2.97332
2.95695
2.93885
2.91669
2.89086
2.86788
2.85128
2.83625
2.82188
2.80736
2.79048
2.7687
2.74359
2.70657
5.29082
5.24211
5.20182
5.15593
5.08604
4.99121
4.90213
4.83104
4.77436
4.67749
4.54078
4.42827
4.35352
4.27572
4.17067
4.04464
3.94014
3.84783
3.75574
3.6685
3.57656
3.47648
3.37583
3.28649
3.20886
3.13576
3.06153
2.98237
2.89741
2.81188
2.73382
2.66648
2.60696
2.54828
2.48456
2.41486
2.34865
2.28629
2.23926
2.20609
2.22832
2.34807
2.55598
2.75152
2.88096
2.90096
2.87332
2.81364
2.77005
2.75126
2.74009
2.72899
2.70924
2.6767
2.62798
2.59822
2.58567
2.57667
2.56393
2.54452
2.51373
2.48043
2.48037
2.49487
2.59051
2.76928
2.98099
3.11254
3.13288
3.12612
3.11808
3.11308
3.11161
3.10068
3.08904
3.0695
3.0376
3.01186
2.99892
2.98807
2.97616
2.96358
2.94994
2.93422
2.91548
2.89353
2.87046
2.84914
2.83142
2.81533
2.79929
2.78281
2.7651
2.74539
2.72592
2.69176
5.23656
5.185
5.12898
5.0657
4.99116
4.9157
4.84783
4.78868
4.72218
4.61422
4.49505
4.39841
4.3304
4.25855
4.1581
4.03369
3.93057
3.8475
3.75815
3.66909
3.57623
3.47472
3.37285
3.28368
3.20624
3.13361
3.06058
2.98311
2.90069
2.8172
2.73898
2.66877
2.60395
2.54355
2.48324
2.41929
2.3536
2.28995
2.229
2.18433
2.1398
2.14227
2.20172
2.37543
2.58045
2.75809
2.81052
2.77852
2.7153
2.68101
2.66269
2.65058
2.63557
2.61221
2.57506
2.53042
2.50785
2.49478
2.48501
2.47194
2.46159
2.46995
2.48913
2.59725
2.79439
2.95412
3.08885
3.14666
3.14075
3.10714
3.06641
3.05302
3.04694
3.04812
3.0465
3.03589
3.01302
2.98388
2.96284
2.94794
2.93552
2.9235
2.91078
2.89625
2.87871
2.8583
2.83684
2.81589
2.79667
2.77927
2.76286
2.74691
2.73175
2.7158
2.70031
2.66706
5.22924
5.17545
5.1074
5.03585
4.95909
4.88422
4.81379
4.74415
4.65767
4.55255
4.45383
4.37144
4.30935
4.23036
4.12271
4.00147
3.9054
3.82653
3.74176
3.65375
3.56052
3.45888
3.35984
3.27309
3.19621
3.12334
3.05059
2.97436
2.89302
2.81174
2.73627
2.66818
2.60382
2.54134
2.47904
2.41526
2.35147
2.29245
2.23579
2.18541
2.13561
2.09566
2.06309
2.0904
2.2265
2.44405
2.65921
2.71819
2.68196
2.62803
2.60125
2.58389
2.57222
2.55578
2.53096
2.48904
2.44172
2.41928
2.40746
2.40903
2.43916
2.49039
2.63381
2.85496
2.97643
3.04404
3.08871
3.10316
3.08955
3.06284
3.03034
3.01128
3.00264
2.99809
2.99431
2.98514
2.97114
2.9512
2.93014
2.91276
2.89869
2.88582
2.87246
2.85723
2.83952
2.82043
2.80143
2.78265
2.76356
2.74474
2.72736
2.71182
2.69791
2.68313
2.66826
2.63509
5.24989
5.1947
5.12215
5.0473
4.9692
4.89193
4.81461
4.73049
4.63471
4.53574
4.44428
4.36687
4.29596
4.20032
4.0861
3.97819
3.8934
3.81953
3.73699
3.64556
3.54702
3.44719
3.35722
3.27707
3.20145
3.12654
3.04925
2.9679
2.88533
2.8083
2.7396
2.67626
2.61395
2.54938
2.48081
2.41254
2.35085
2.29801
2.2484
2.19958
2.14815
2.09202
2.04385
2.00166
2.01606
2.12679
2.3361
2.55745
2.62634
2.59688
2.55492
2.53194
2.51744
2.50307
2.48421
2.45418
2.40129
2.36743
2.36537
2.38556
2.46766
2.66128
2.89921
3.02842
3.04328
3.03754
3.03456
3.03549
3.03092
3.02241
3.00704
2.98371
2.96816
2.95819
2.94963
2.94046
2.92951
2.91625
2.90058
2.88383
2.86759
2.85207
2.83637
2.81972
2.80235
2.78541
2.76916
2.7527
2.73483
2.7159
2.69775
2.68159
2.66718
2.65159
2.63594
2.6045
5.27931
5.21731
5.1446
5.07231
4.99756
4.91955
4.8348
4.74244
4.64657
4.55484
4.47167
4.39556
4.30573
4.19598
4.08436
3.98846
3.9114
3.83456
3.74527
3.64131
3.53389
3.44601
3.36738
3.29252
3.21777
3.13894
3.05273
2.96393
2.8833
2.81302
2.75032
2.69047
2.62924
2.56211
2.48812
2.41577
2.35456
2.30514
2.26028
2.21521
2.16654
2.10901
2.04711
1.99283
1.95957
1.96903
2.04965
2.22865
2.44757
2.53846
2.52478
2.49429
2.46995
2.45211
2.43285
2.40837
2.38024
2.35857
2.36529
2.44735
2.6618
2.89201
3.04016
3.05461
3.03531
3.0097
2.9975
2.99316
2.99683
2.99302
2.98418
2.96611
2.94497
2.93059
2.92
2.91109
2.90196
2.89172
2.87878
2.86225
2.84434
2.82736
2.81129
2.79548
2.77987
2.7646
2.74915
2.73297
2.71559
2.69791
2.68115
2.66557
2.65017
2.63261
2.6147
2.58316
5.30189
5.24067
5.1678
5.09421
5.01732
4.93625
4.85075
4.76186
4.67358
4.58774
4.50479
4.41781
4.31337
4.19965
4.09827
4.01754
3.94558
3.85733
3.7561
3.64223
3.54383
3.46457
3.39042
3.31607
3.23986
3.15571
3.06133
2.96974
2.89257
2.82772
2.76805
2.70868
2.64583
2.57667
2.50055
2.42655
2.36517
2.31616
2.27266
2.22789
2.18002
2.12488
2.0632
2.00152
1.95645
1.92851
1.9261
1.97511
2.12846
2.34433
2.47557
2.4642
2.43092
2.40563
2.38048
2.36468
2.36387
2.38579
2.4865
2.71117
2.89061
3.01302
3.06083
3.05213
3.02853
2.99946
2.98671
2.981
2.9808
2.97625
2.96626
2.94909
2.93134
2.91968
2.91094
2.90295
2.8937
2.882
2.86695
2.8506
2.83514
2.82042
2.80489
2.78822
2.77194
2.7566
2.74127
2.72563
2.70964
2.69337
2.67579
2.65637
2.6362
2.61516
2.59645
2.5674
5.31203
5.25208
5.18096
5.10851
5.0316
4.95076
4.86731
4.78254
4.69835
4.61407
4.52702
4.42869
4.32023
4.21742
4.13089
4.05633
3.97375
3.87482
3.7651
3.65826
3.56885
3.49081
3.41604
3.34032
3.25902
3.16826
3.07326
2.98572
2.91043
2.84418
2.78424
2.72663
2.66511
2.59412
2.51731
2.44478
2.38124
2.32621
2.28069
2.23994
2.19694
2.14532
2.08595
2.02498
1.9677
1.92145
1.88934
1.88612
1.92015
2.04601
2.25252
2.39241
2.39116
2.36753
2.35087