/*--------------------------------*- C++ -*----------------------------------*\
  =========                 |
  \\      /  F ield         | OpenFOAM: The Open Source CFD Toolbox
   \\    /   O peration     | Website:  https://openfoam.org
    \\  /    A nd           | Version:  7
     \\/     M anipulation  |
\*---------------------------------------------------------------------------*/
FoamFile
{
    version     2.0;
    format      ascii;
    class       volScalarField;
    location    "8";
    object      T;
}
// * * * * * * * * * * * * * * * * * * * * * * * * * * * * * * * * * * * * * //

dimensions      [0 0 0 1 0 0 0];

internalField   nonuniform List<scalar> 
4032
(
1
1
1
1
1
1
1
1
1
1
1
1.1727
2.41317
2.71621
2.72678
2.74219
2.75558
2.76821
2.77968
2.78989
2.79891
2.8062
2.81172
2.81568
1
1
1
1
1
1
1
1
1
1
1
1.15511
2.39908
2.71507
2.72615
2.74085
2.75401
2.76637
2.7775
2.78723
2.7957
2.80243
2.80735
2.81111
1
1
1
1
1
1
1
1
1
1
1
1.10157
2.36126
2.71219
2.72305
2.7379
2.75117
2.76347
2.77442
2.78378
2.79169
2.79779
2.80174
2.80493
1
1
1
1
1
1
1
1
1
1
1
1.00735
2.29329
2.7043
2.71818
2.73327
2.74612
2.7576
2.7679
2.77683
2.78448
2.79023
2.79349
2.79591
1
1
1
1
1
1
1
1
1
1
1
1.00006
2.21114
2.68846
2.7076
2.72326
2.73679
2.74834
2.75834
2.76646
2.77262
2.77682
2.77853
2.78129
1
1
1
1
1
1
1
1
1
1
1
1
2.09658
2.66969
2.69843
2.71289
2.72624
2.73706
2.74607
2.75339
2.7589
2.76209
2.76045
2.75483
1
1
1
1
1
1
1
1
1
1
1
1
1.93816
2.63422
2.68259
2.69844
2.71206
2.72218
2.72975
2.73485
2.7364
2.73281
2.72463
2.71745
1
1
1
1
1
1
1
1
1
1
1
1
1.72101
2.56415
2.65588
2.67941
2.69529
2.70554
2.71129
2.71324
2.71028
2.70505
2.69986
2.71096
1
1
1
1
1
1
1
1
1
1
1
1
1.40919
2.44007
2.62942
2.65505
2.67345
2.68494
2.68898
2.68781
2.67942
2.66089
2.60918
2.50817
1
1
1
1
1
1
1
1
1
1
1
1
1.05116
2.30753
2.62978
2.63198
2.64257
2.65345
2.65797
2.65462
2.64137
2.60827
2.55047
2.38717
1
1
1
1
1
1
1
1
1
1
1
1
1.00061
2.13903
2.58869
2.5973
2.60846
2.61597
2.62029
2.61564
2.60036
2.56167
2.49738
2.31375
1
1
1
1
1
1
1
1
1
1
1
1
0.999994
1.83138
2.52354
2.5816
2.59019
2.58927
2.58771
2.57936
2.56029
2.52155
2.4489
2.28912
1
1
1
1
1
1
1
1
1
1
1
1
0.999998
1.37236
2.37909
2.56304
2.56359
2.56206
2.55677
2.54404
2.52095
2.48262
2.40891
2.28888
1
1
1
1
1
1
1
1
1
1
1
1
1
1.03814
2.19404
2.5221
2.53328
2.53241
2.52658
2.51226
2.48794
2.44765
2.37904
2.28779
1
1
1
1
1
1
1
1
1
1
1
1
1
1.00022
1.82659
2.43867
2.51106
2.50818
2.50081
2.48367
2.45898
2.41643
2.35622
2.28285
1
1
1
1
1
1
1
1
1
1
1
1
1
0.999999
1.23876
2.27929
2.49121
2.47811
2.47015
2.45486
2.42873
2.3913
2.3397
2.27749
1
1
1
1
1
1
1
1
1
1
1
1
1
1
1.01322
2.08213
2.4409
2.43196
2.43067
2.42091
2.40027
2.36867
2.32455
2.27069
1
1
1
1
1
1
1
1
1
1
1
1
1
1
1.00001
1.58356
2.32402
2.41247
2.40603
2.39375
2.37422
2.34555
2.30781
2.26216
1
1
1
1
1
1
1
1
1
1
1
1
1
1
0.999998
1.08857
2.11539
2.39063
2.3827
2.36808
2.34742
2.32071
2.28817
2.25015
1
1
1
1
1
1
1
1
1
1
1
1
1
1
0.999999
1.00155
1.66485
2.27679
2.36042
2.34167
2.32213
2.29741
2.26896
2.23651
1
1
1
1
1
1
1
1
1
1
1
1
1
1
1
1
1.12981
2.07685
2.33502
2.31562
2.29928
2.2771
2.25127
2.22212
1
1
1
1
1
1
1
1
1
1
1
1
1
1
1
1
1.00353
1.62541
2.20745
2.29203
2.27283
2.25396
2.2316
2.20537
1
1
1
1
1
1
1
1
1
1
1
1
1
1
1
1
1.00001
1.11829
1.98972
2.26688
2.24972
2.23587
2.21399
2.18977
1
1
1
1
1
1
1
1
1
1
1
1
1
1
1
1
1
1.00302
1.47317
2.10012
2.22845
2.21047
2.18694
2.18809
1
1
1
1
1
1
1
1
1
1
1
1
1
1
1
1
1
1.00001
1.06351
1.82893
2.19955
2.17794
2.185
2.24243
1
1
1
1
1
1
1
1
1
1
1
1
1
1
1
1
1
1
1.00102
1.28994
2.01868
2.13817
2.24236
2.33508
1
1
1
1
1
1
1
1
1
1
1
1
1
1
1
1
1
1
1
1.02035
1.58238
2.10746
2.35533
2.39825
1
1
1
1
1
1
1
1
1
1
1
1
1
1
1
1
1
1
1
1.0002
1.1072
2.18506
2.48755
2.4357
1
1
1
1
1
1
1
1
1
1
1
1
1
1
1
1
1
1
1
1
1.00289
2.27108
2.58161
2.50469
1
1
1
1
1
1
1
1
1
1
1
1
1
1
1
1
1
1
1
1
1.00001
2.25987
2.65911
2.59835
1
1
1
1
1
1
1
1
1
1
1
1
1
1
1
1
1
1
1
1
1
2.21914
2.68845
2.65858
1
1
1
1
1
1
1
1
1
1
1
1
1
1
1
1
1
1
1
1
1
2.13269
2.67916
2.67566
1
1
1
1
1
1
1
1
1
1
1
1
1
1
1
1
1
1
1
1
1
2.03004
2.65132
2.6739
1
1
1
1
1
1
1
1
1
1
1
1
1
1
1
1
1
1
1
1
1
1.9197
2.61784
2.66932
1
1
1
1
1
1
1
1
1
1
1
1
1
1
1
1
1
1
1
1
1
1.82123
2.59481
2.66445
1
1
1
1
1
1
1
1
1
1
1
1
1
1
1
1
1
1
1
1
1
1.74206
2.58304
2.6632
1
1
1
1
1
1
1
1
1
1
1
1
1
1
1
1
1
1
1
1
1
1.68447
2.57694
2.66684
1
1
1
1
1
1
1
1
1
1
1
1
1
1
1
1
1
1
1
1
1
1.64175
2.56962
2.67242
1
1
1
1
1
1
1
1
1
1
1
1
1
1
1
1
1
1
1
1
1
1.61108
2.56175
2.67579
1
1
1
1
1
1
1
1
1
1
1
1
1
1
1
1
1
1
1
1
1
1.60235
2.55797
2.67636
1.68783
1.19423
1.08209
1.09436
1.09816
1.16111
1.28114
1.39938
1.51164
1.61354
1.6809
1.68279
1.67749
1.67685
1.68122
1.69816
1.73278
2.52967
2.76149
2.75314
2.77522
2.79735
2.79766
2.78912
2.77896
2.77523
2.77455
2.77074
2.76072
2.74818
2.73673
2.72633
2.71555
2.70348
2.69173
2.68248
2.67621
2.67127
2.66391
2.65171
2.63652
2.62203
2.61062
2.60276
2.596
2.58575
2.57153
2.55664
2.54304
2.53166
2.52235
2.51303
2.50164
2.48914
2.47708
2.46654
2.45756
2.44682
2.43334
2.41924
2.40587
2.39377
2.38437
2.37608
2.36395
2.35
2.33456
2.31819
2.30336
2.29032
2.27895
2.26891
2.25688
2.24383
2.22926
2.2135
2.19955
2.18888
2.18023
2.17334
2.16588
2.15732
2.14731
2.13494
2.12135
2.10808
2.09734
2.09045
2.08806
2.09732
2.13933
2.25184
2.46531
2.51257
2.49208
2.47855
1.92067
1.61728
1.52443
1.43022
1.31336
1.24283
1.24179
1.25821
1.28264
1.33495
1.3887
1.42955
1.46752
1.4995
1.52705
1.55892
1.59579
2.37122
2.7305
2.74015
2.76107
2.77819
2.7747
2.76609
2.75741
2.75382
2.75409
2.75239
2.74152
2.72615
2.71211
2.70183
2.69551
2.69005
2.68053
2.66781
2.65559
2.6458
2.63954
2.63392
2.62347
2.60917
2.59538
2.58417
2.57649
2.57
2.55902
2.54401
2.52911
2.51579
2.50518
2.49731
2.48912
2.47734
2.4644
2.45211
2.44045
2.43046
2.42077
2.40927
2.39656
2.38416
2.37293
2.36171
2.35093
2.33955
2.32688
2.3131
2.29787
2.28246
2.26877
2.25647
2.24598
2.23536
2.22364
2.21109
2.19719
2.18327
2.17166
2.16271
2.15576
2.1491
2.14085
2.13093
2.11936
2.10706
2.09434
2.08817
2.09031
2.11249
2.16998
2.25466
2.41611
2.48519
2.47255
2.46356
2.03443
1.80711
1.6657
1.57693
1.49021
1.40201
1.31986
1.24583
1.23045
1.24325
1.26791
1.30257
1.33518
1.35538
1.37311
1.41236
1.44688
2.0433
2.65212
2.70364
2.69773
2.70175
2.70095
2.69655
2.69195
2.68926
2.69026
2.69333
2.69054
2.67652
2.6594
2.64442
2.63393
2.63186
2.63232
2.6269
2.61223
2.59768
2.58567
2.57816
2.57384
2.56698
2.55532
2.54244
2.5311
2.52271
2.51556
2.50547
2.49205
2.47779
2.46466
2.45412
2.44677
2.43982
2.42979
2.41764
2.40375
2.39075
2.38037
2.3717
2.36417
2.35567
2.34476
2.33156
2.31777
2.3061
2.29616
2.28706
2.27652
2.26406
2.24819
2.23014
2.21576
2.20552
2.19789
2.19036
2.18088
2.16984
2.15566
2.13987
2.12814
2.12029
2.11397
2.10757
2.10085
2.09438
2.08544
2.08549
2.09818
2.14104
2.1947
2.23204
2.31825
2.42694
2.44456
2.43828
2.10091
1.94005
1.80061
1.68081
1.60166
1.54689
1.48623
1.39133
1.31658
1.31124
1.31155
1.30034
1.2879
1.28341
1.28614
1.30799
1.34643
1.59307
2.39227
2.63134
2.60719
2.59672
2.59972
2.59991
2.5955
2.58892
2.58566
2.58653
2.58915
2.58526
2.57487
2.5609
2.54866
2.5394
2.53723
2.53689
2.5286
2.51705
2.50504
2.49488
2.48733
2.48272
2.47671
2.46724
2.45675
2.44691
2.43818
2.42987
2.41993
2.40861
2.39643
2.38511
2.37579
2.36818
2.36004
2.35083
2.34109
2.32941
2.31722
2.30851
2.30155
2.29489
2.28702
2.2781
2.26686
2.25389
2.24309
2.2348
2.2269
2.21819
2.20762
2.19356
2.1768
2.16388
2.15492
2.14727
2.14018
2.13207
2.12209
2.10767
2.09177
2.08111
2.07399
2.0675
2.06287
2.06104
2.06304
2.0754
2.10893
2.16028
2.19452
2.19772
2.22235
2.30819
2.38047
2.38824
2.1501
2.01645
1.90663
1.80448
1.69354
1.62586
1.58803
1.53465
1.45644
1.37638
1.36136
1.35057
1.32852
1.30854
1.30908
1.33422
1.40752
1.4704
1.93363
2.42281
2.52406
2.50527
2.50181
2.50546
2.50388
2.49651
2.48808
2.48386
2.48367
2.48528
2.48109
2.47239
2.46151
2.45184
2.44435
2.44137
2.43666
2.4286
2.41967
2.40943
2.40093
2.39448
2.38981
2.38361
2.37562
2.36609
2.35689
2.34839
2.33958
2.33049
2.32081
2.3107
2.30096
2.29166
2.28293
2.2747
2.26647
2.25732
2.24738
2.23823
2.23047
2.22342
2.21656
2.20938
2.2009
2.19061
2.18026
2.17159
2.16377
2.15591
2.14737
2.13709
2.12453
2.11143
2.10145
2.09393
2.08658
2.07892
2.06989
2.05769
2.0431
2.03143
2.02455
2.01975
2.01877
2.0231
2.0362
2.06793
2.11718
2.14654
2.15684
2.14895
2.15087
2.18463
2.26199
2.31818
2.18797
2.07628
1.97229
1.89314
1.8084
1.71068
1.64389
1.61246
1.5661
1.49329
1.43098
1.41278
1.398
1.39524
1.41318
1.44924
1.52959
1.57509
1.62312
2.0121
2.36495
2.43664
2.43489
2.43725
2.4357
2.42892
2.41901
2.40922
2.40265
2.40226
2.40303
2.39673
2.38736
2.37745
2.36963
2.36369
2.36014
2.35388
2.34644
2.33682
2.32791
2.32113
2.31605
2.31066
2.30352
2.29483
2.2849
2.27634
2.26857
2.2608
2.25274
2.24392
2.23408
2.22408
2.21522
2.20732
2.19967
2.19177
2.18315
2.17382
2.165
2.15772
2.15134
2.14492
2.13768
2.12884
2.11834
2.10855
2.10126
2.09481
2.08811
2.0807
2.07169
2.0599
2.04699
2.03789
2.03122
2.02435
2.01655
2.00723
1.99598
1.98295
1.97308
1.97095
1.97496
1.99285
2.02527
2.07529
2.11368
2.11729
2.11123
2.09934
2.09131
2.09937
2.13412
2.21273
2.20379
2.11807
2.02426
1.94336
1.88022
1.80413
1.71905
1.66186
1.62625
1.577
1.51856
1.47933
1.47661
1.50823
1.54576
1.59104
1.65193
1.65561
1.65263
1.68831
1.99716
2.30485
2.3771
2.39351
2.3924
2.38167
2.37279
2.35967
2.34958
2.34505
2.34686
2.34393
2.33548
2.32563
2.3171
2.31034
2.3059
2.30113
2.29442
2.28586
2.27621
2.26904
2.26341
2.25805
2.25113
2.24278
2.23233
2.22288
2.2157
2.20893
2.20194
2.19409
2.18479
2.17413
2.16421
2.15621
2.14913
2.14208
2.13432
2.1251
2.11486
2.10582
2.09888
2.09285
2.08667
2.07925
2.06922
2.057
2.04749
2.04154
2.03621
2.0307
2.02445
2.01602
2.00381
1.9902
1.98098
1.97436
1.96792
1.96112
1.95386
1.94417
1.93479
1.93598
1.94947
1.98258
2.02668
2.07502
2.09047
2.08591
2.07285
2.05829
2.04627
2.0384
2.0473
2.10327
2.21078
2.14126
2.06337
1.98652
1.92275
1.86467
1.79152
1.7169
1.67165
1.63618
1.602
1.58936
1.62016
1.6661
1.67989
1.7086
1.71979
1.71079
1.70544
1.69332
1.72333
1.97564
2.25148
2.33362
2.36165
2.35509
2.34017
2.32441
2.31266
2.3071
2.30756
2.30644
2.29884
2.28976
2.28028
2.27338
2.26801
2.26356
2.25716
2.24925
2.23932
2.23151
2.22558
2.2202
2.2135
2.20547
2.19508
2.18461
2.17731
2.17092
2.16437
2.15715
2.14876
2.13845
2.1276
2.11903
2.11211
2.10544
2.09827
2.08974
2.07928
2.06842
2.06
2.05368
2.04787
2.04152
2.03311
2.0208
2.0075
1.99989
1.99515
1.99049
1.98555
1.97961
1.97071
1.95668
1.94213
1.93376
1.92807
1.92298
1.91905
1.91467
1.91685
1.92685
1.95825
1.99728
2.03372
2.05693
2.05888
2.05359
2.04271
2.02862
2.01415
2.00388
1.99897
2.02144
2.21177
2.15233
2.08834
2.01827
1.95439
1.90189
1.8435
1.77575
1.72207
1.70536
1.71007
1.72657
1.78747
1.80118
1.78308
1.7802
1.77689
1.76229
1.75797
1.75064
1.73414
1.7565
1.95059
2.19211
2.2957
2.33012
2.31773
2.29851
2.28413
2.27884
2.27819
2.27734
2.27073
2.26263
2.25281
2.24564
2.23989
2.23508
2.2287
2.22099
2.21114
2.20284
2.19688
2.19159
2.18523
2.17764
2.1679
2.15667
2.14849
2.142
2.13547
2.12858
2.12096
2.11178
2.10113
2.09154
2.08405
2.07731
2.07036
2.06249
2.05295
2.04191
2.03172
2.02409
2.0179
2.01186
2.0048
1.99494
1.98148
1.96945
1.96323
1.959
1.95462
1.94943
1.94249
1.93191
1.91677
1.90368
1.89701
1.89391
1.89454
1.90088
1.91556
1.9497
1.99713
2.01679
2.02859
2.03049
2.0316
2.02753
2.0193
2.00937
1.99699
1.98376
1.97412
1.97711
2.21056
2.15809
2.10311
2.04099
1.98201
1.92908
1.87876
1.82797
1.80622
1.8276
1.83967
1.86483
1.88948
1.88136
1.84894
1.82631
1.82599
1.81495
1.80473
1.80083
1.7815
1.76162
1.77794
1.91719
2.13261
2.26087
2.29024
2.27965
2.26418
2.25679
2.25447
2.25252
2.24669
2.2394
2.22937
2.22175
2.21581
2.21059
2.20417
2.19647
2.18675
2.17808
2.17217
2.16693
2.16085
2.1537
2.14476
2.13361
2.12403
2.11695
2.11031
2.10361
2.09657
2.08863
2.07919
2.06917
2.06049
2.05312
2.04611
2.03877
2.03051
2.02076
2.00991
1.99995
1.99229
1.98613
1.98011
1.97305
1.96346
1.95066
1.9387
1.93179
1.92731
1.92279
1.91726
1.91007
1.90008
1.88567
1.87573
1.8759
1.88241
1.90416
1.9391
1.99179
2.02308
2.02564
2.01969
2.01185
2.00777
2.00459
1.99959
1.99322
1.98514
1.97487
1.96169
1.95232
2.20623
2.15882
2.11043
2.05494
2.00123
1.95935
1.92888
1.91913
1.94037
1.96514
1.95534
1.95561
1.95198
1.9344
1.90466
1.87268
1.86658
1.86403
1.84748
1.83818
1.82709
1.80158
1.78585
1.79639
1.88459
2.0762
2.2168
2.24968
2.24697
2.2386
2.23496
2.23153
2.22467
2.21664
2.2059
2.1984
2.19262
2.18777
2.18151
2.1739
2.16424
2.15488
2.14878
2.14338
2.13738
2.13048
2.12217
2.11183
2.10168
2.09385
2.08694
2.08014
2.07328
2.06603
2.05779
2.0485
2.03934
2.03108
2.02345
2.01609
2.00861
2.00032
1.99071
1.98019
1.97034
1.9627
1.95704
1.95175
1.94528
1.93624
1.92403
1.91115
1.90214
1.89737
1.89358
1.88894
1.88329
1.87555
1.87031
1.87425
1.89536
1.93435
1.9752
2.01366
2.0216
2.02012
2.01196
1.99814
1.98813
1.9825
1.9795
1.9771
1.97199
1.9657
1.95659
1.94021
2.19829
2.15614
2.11262
2.06646
2.02502
2.01898
2.02833
2.04142
2.05977
2.04886
2.01812
2.00168
1.98967
1.97543
1.95326
1.92176
1.90382
1.90208
1.88902
1.8717
1.86151
1.8432
1.81899
1.80552
1.80909
1.8575
2.01698
2.1593
2.20225
2.21611
2.21829
2.21386
2.20387
2.19294
2.18078
2.17405
2.16885
2.16486
2.15894
2.15156
2.14192
2.13152
2.12483
2.11912
2.1129
2.10588
2.09782
2.08834
2.07886
2.07114
2.06415
2.05704
2.04969
2.04213
2.03424
2.026
2.01782
2.00976
2.0015
1.99311
1.98517
1.97775
1.97012
1.96171
1.95227
1.94225
1.93381
1.92815
1.92345
1.91772
1.90989
1.89909
1.88585
1.8745
1.8683
1.86529
1.86439
1.8676
1.87784
1.90279
1.94727
1.9767
1.99691
2.00808
2.01091
2.00748
1.99985
1.98832
1.97438
1.9656
1.96099
1.95929
1.95868
1.95348
1.94748
1.93336
2.18669
2.14995
2.11799
2.09371
2.09839
2.12534
2.13509
2.14166
2.12866
2.09693
2.06217
2.03569
2.0234
2.01293
1.99354
1.96453
1.9398
1.9323
1.92586
1.90685
1.88974
1.87385
1.85076
1.83256
1.81816
1.81602
1.83883
1.95144
2.09012
2.1594
2.18848
2.19332
2.18459
2.16993
2.15512
2.14826
2.14373
2.14034
2.13464
2.12751
2.11798
2.10681
2.0995
2.09364
2.0872
2.07988
2.07161
2.06228
2.05371
2.04702
2.04062
2.03371
2.02593
2.01719
2.00814
2.00018
1.99348
1.98695
1.97963
1.97099
1.96152
1.95312
1.94651
1.94031
1.93346
1.92508
1.91471
1.90463
1.89814
1.89424
1.88978
1.88296
1.87337
1.85997
1.84852
1.84805
1.8514
1.86855
1.90062
1.95389
1.99098
1.99635
1.99743
1.99461
1.99381
1.98978
1.98364
1.976
1.96472
1.9532
1.94684
1.94284
1.94128
1.93828
1.93316
1.92194
2.17317
2.14784
2.14997
2.16786
2.21008
2.20944
2.18929
2.18105
2.16
2.12835
2.0984
2.07015
2.05544
2.04494
2.02596
1.99904
1.9729
1.95971
1.95355
1.93962
1.91611
1.89668
1.8757
1.856
1.84145
1.82536
1.81691
1.82299
1.89169
2.01879
2.11266
2.14713
2.15771
2.14948
2.13222
2.12218
2.11678
2.11203
2.10671
2.10018
2.09126
2.07983
2.07191
2.06607
2.05983
2.05279
2.04446
2.0343
2.02558
2.01979
2.0142
2.0081
2.00095
1.99176
1.98028
1.971
1.96557
1.96072
1.95533
1.94869
1.93958
1.92831
1.91944
1.91425
1.90967
1.9044
1.89734
1.88713
1.87506
1.86617
1.86228
1.85905
1.85445
1.84816
1.84205
1.8441
1.86091
1.89583
1.93778
1.98382
1.99538
1.99347
1.98681
1.9791
1.97422
1.96975
1.96516
1.95933
1.95156
1.94155
1.93308
1.92761
1.92308
1.91917
1.91464
1.90474
2.17792
2.19232
2.23161
2.26509
2.28461
2.25491
2.21782
2.20005
2.18076
2.15336
2.12827
2.10207
2.08252
2.06987
2.05197
2.02677
2.00193
1.98479
1.97382
1.96205
1.94115
1.91425
1.89388
1.87474
1.85973
1.84223
1.82329
1.80628
1.80256
1.83726
1.94228
2.04589
2.09726
2.11654
2.10989
2.09825
2.08852
2.08131
2.07564
2.06967
2.06193
2.05107
2.0424
2.03652
2.03084
2.02495
2.01755
2.00692
1.99596
1.98987
1.98497
1.97961
1.97353
1.96567
1.95366
1.94115
1.93572
1.93215
1.92816
1.92362
1.91724
1.90657
1.89336
1.8862
1.88277
1.87928
1.87492
1.86832
1.85795
1.84413
1.83362
1.83062
1.83007
1.83403
1.84554
1.86888
1.91152
1.94231
1.96758
1.98088
1.98085
1.97763
1.971
1.96262
1.95507
1.94986
1.94515
1.93969
1.93342
1.92593
1.91736
1.91004
1.90451
1.89922
1.89455
1.88514
2.22178
2.28568
2.30783
2.31796
2.30081
2.26433
2.23096
2.214
2.20074
2.17575
2.15024
2.12775
2.10583
2.09133
2.07347
2.04736
2.02326
2.00458
1.98996
1.97626
1.95785
1.93007
1.90557
1.88861
1.87208
1.85592
1.83533
1.81228
1.79088
1.78038
1.79371
1.8656
1.96946
2.04229
2.06556
2.06502
2.05974
2.05319
2.0472
2.04018
2.03247
2.02146
2.01119
2.00609
2.00169
1.99682
1.99069
1.98152
1.96837
1.95878
1.95433
1.95029
1.94521
1.93896
1.92961
1.91557
1.90483
1.90114
1.89843
1.89544
1.8915
1.88524
1.87353
1.86025
1.85407
1.85023
1.84643
1.84198
1.83644
1.8271
1.81191
1.80948
1.81254
1.82973
1.86236
1.91551
1.95594
1.96444
1.9676
1.96471
1.96099
1.95696
1.95185
1.94488
1.93574
1.92874
1.9239
1.919
1.91345
1.90738
1.90033
1.89205
1.88469
1.87898
1.87455
1.86577
2.32162
2.36224
2.34243
2.32566
2.29902
2.26549
2.23854
2.22513
2.21397
2.1907
2.16232
2.14389
2.12314
2.10649
2.08828
2.05991
2.0359
2.01732
2.00092
1.98517
1.96605
1.94135
1.91396
1.89605
1.87972
1.86289
1.84446
1.82189
1.79593
1.7741
1.76305
1.76628
1.80702
1.8946
1.97956
2.01335
2.01888
2.02553
2.02426
2.01805
2.0085
1.99483
1.98158
1.9769
1.9736
1.97053
1.96623
1.95951
1.94786
1.93316
1.92568
1.92201
1.91815
1.91348
1.9062
1.89542
1.88156
1.87361
1.87197
1.87023
1.86713
1.86274
1.8539
1.84063
1.82962
1.82471
1.82062
1.81666
1.81319
1.80758
1.80243
1.80328
1.81962
1.85459
1.89827
1.9482
1.95978
1.95833
1.95191
1.94534
1.94115
1.93702
1.93203
1.9252
1.91569
1.90795
1.90338
1.89961
1.89541
1.8907
1.88529
1.87818
1.86929
1.86163
1.85711
1.84898
2.38009
2.35511
2.33135
2.31581
2.29442
2.2669
2.24399
2.23258
2.22081
2.19829
2.16805
2.15092
2.13445
2.11501
2.09596
2.06751
2.04252
2.02585
2.00809
1.99073
1.97014
1.94663
1.92102
1.90058
1.88439
1.86676
1.84955
1.82928
1.80545
1.78059
1.75825
1.74816
1.74947
1.76662
1.82908
1.91326
1.96327
1.98651
2.0006
1.99972
1.99154
1.97748
1.96205
1.95294
1.95029
1.95056
1.94852
1.94397
1.93494
1.91894
1.90106
1.89077
1.88728
1.88612
1.88541
1.88088
1.87055
1.85562
1.84268
1.83876
1.83679
1.83529
1.83366
1.82674
1.81447
1.79935
1.78892
1.78602
1.78628
1.7897
1.80101
1.82542
1.86649
1.89806
1.9289
1.94282
1.94254
1.93949
1.93374
1.92837
1.92416
1.9202
1.91546
1.90863
1.89962
1.89251
1.88838
1.88539
1.88281
1.87937
1.87512
1.86906
1.8603
1.85082
1.84555
1.83788
2.37893
2.34199
2.31822
2.30554
2.28777
2.26423
2.24384
2.23338
2.22111
2.1994
2.16999
2.1521
2.13971
2.11895
2.09797
2.07247
2.04574
2.02966
2.01261
1.9934
1.97216
1.94828
1.92601
1.90552
1.88807
1.87131
1.85299
1.835
1.81481
1.79266
1.77258
1.75449
1.74181
1.73875
1.74553
1.78277
1.85602
1.92495
1.97018
1.98147
1.97979
1.97203
1.95984
1.94693
1.93811
1.93435
1.93149
1.9278
1.92248
1.9131
1.89697
1.88185
1.87371
1.87
1.86716
1.86406
1.85972
1.84902
1.83333
1.82367
1.81943
1.81642
1.81293
1.80877
1.8004
1.78522
1.77404
1.77399
1.7761
1.79354
1.82766
1.88129
1.91511
1.9242
1.92956
1.92996
1.92906
1.9266
1.92312
1.91876
1.91345
1.90872
1.90458
1.89969
1.89327
1.88755
1.88443
1.88177
1.87868
1.87486
1.8706
1.86521
1.85735
1.84793
1.84239
1.836
2.38917
2.34996
2.32706
2.31177
2.29196
2.26768
2.24647
2.23432
2.22052
2.19832
2.17022
2.15214
2.14148
2.12326
2.10004
2.07778
2.05184
2.03254
2.01692
1.99755
1.9763
1.95253
1.9316
1.91369
1.89659
1.88022
1.86308
1.84509
1.82763
1.81048
1.79425
1.77867
1.76216
1.7493
1.74113
1.74103
1.76206
1.81924
1.89827
1.95511
1.97331
1.97486
1.97155
1.96143
1.94834
1.93741
1.92951
1.92289
1.9164
1.90951
1.90061
1.88766
1.87544
1.86716
1.86192
1.85688
1.85158
1.84563
1.83543
1.82119
1.81091
1.80502
1.79907
1.79226
1.78593
1.78019
1.77475
1.77753
1.79745
1.83645
1.88411
1.92719
1.93476
1.93125
1.9281
1.92719
1.92845
1.9264
1.92278
1.9171
1.90984
1.90457
1.90078
1.89762
1.89434
1.88997
1.88409
1.87896
1.87541
1.87211
1.86858
1.86466
1.85974
1.85308
1.84629
1.83635
2.44446
2.39852
2.36545
2.3403
2.31451
2.28666
2.26358
2.2487
2.23321
2.21093
2.18158
2.16021
2.14751
2.13122
2.10771
2.08446
2.06204
2.03988
2.0226
2.00506
1.98521
1.96434
1.94375
1.92687
1.91219
1.89791
1.88324
1.86718
1.8498
1.83328
1.81976
1.80844
1.7968
1.7835
1.76965
1.75979
1.75453
1.76036
1.79892
1.8746
1.93919
1.97976
1.9859
1.98448
1.97375
1.95621
1.94024
1.92918
1.92246
1.91629
1.90991
1.90197
1.88905
1.87423
1.8643
1.85809
1.85193
1.84505
1.83732
1.82657
1.81373
1.80159
1.79201
1.78677
1.78627
1.78502
1.7927
1.81942
1.86291
1.89688
1.9295
1.94447
1.94639
1.94339
1.93676
1.93145
1.92835
1.92638
1.92393
1.91985
1.91565
1.91222
1.90937
1.90661
1.90339
1.89832
1.89079
1.88411
1.88109
1.87901
1.87645
1.87337
1.86968
1.86358
1.85551
1.84386
2.54356
2.48879
2.4426
2.40747
2.3769
2.34097
2.30998
2.28778
2.26828
2.24427
2.21655
2.19333
2.1786
2.16269
2.14094
2.11741
2.09757
2.07728
2.05979
2.04442
2.02741
2.00851
1.98923
1.97263
1.95891
1.94615
1.9329
1.918
1.90105
1.88404
1.86991
1.85884
1.84896
1.8374
1.82321
1.80752
1.78657
1.7727
1.77516
1.79959
1.86055
1.93214
1.98243
2.00391
2.00144
1.98716
1.96719
1.94889
1.93976
1.93337
1.92745
1.91907
1.90783
1.89159
1.87559
1.86685
1.8598
1.85288
1.84535
1.83598
1.82198
1.80548
1.79667
1.79504
1.79768
1.81605
1.85508
1.90599
1.93285
1.94606
1.95804
1.96508
1.9648
1.96109
1.95431
1.94508
1.93779
1.93538
1.93373
1.93149
1.92913
1.92664
1.92381
1.92059
1.91664
1.91119
1.90439
1.89838
1.89443
1.89116
1.88819
1.88511
1.88106
1.87517
1.86804
1.85754
2.62399
2.58157
2.54026
2.50038
2.45984
2.41997
2.38536
2.35767
2.33579
2.30799
2.27525
2.24872
2.23073
2.21288
2.1904
2.16483
2.14422
2.12567
2.10753
2.09124
2.0739
2.05412
2.03387
2.01634
2.00167
1.98799
1.97381
1.95807
1.94031
1.9217
1.90459
1.8903
1.87823
1.86617
1.85245
1.83622
1.8201
1.80494
1.7908
1.79072
1.80366
1.84744
1.91846
1.97515
2.00924
2.00983
2.00094
1.97967
1.9628
1.95453
1.9481
1.94052
1.92947
1.91465
1.8959
1.88292
1.87519
1.86851
1.86017
1.84945
1.83627
1.8209
1.81563
1.81772
1.84257
1.89035
1.94467
1.97832
1.9864
1.98608
1.98547
1.98474
1.98419
1.98079
1.97704
1.97099
1.9625
1.95693
1.95506
1.9538
1.95229
1.95034
1.94781
1.94443
1.93988
1.93411
1.92791
1.92243
1.91821
1.91451
1.91082
1.90685
1.90225
1.8968
1.89115
1.88134
2.65447
2.63157
2.60373
2.57167
2.5366
2.50199
2.47002
2.44163
2.41345
2.37946
2.34597
2.31873
2.29898
2.27954
2.25535
2.22724
2.20472
2.18671
2.16735
2.1488
2.12978
2.10837
2.08659
2.06782
2.05195
2.03706
2.0217
2.00498
1.98656
1.96723
1.94868
1.93212
1.91723
1.90335
1.88885
1.87292
1.85643
1.83993
1.82316
1.81019
1.80098
1.80515
1.83068
1.89235
1.95888
2.01285
2.01929
2.00799
1.98632
1.97261
1.96444
1.95767
1.94891
1.93676
1.92046
1.90251
1.89147
1.8833
1.87523
1.86574
1.85729
1.84982
1.85227
1.88258
1.93744
1.9793
2.0163
2.03292
2.03175
2.0231
2.01203
2.00816
2.00655
2.00674
2.00591
2.00249
1.99662
1.99007
1.98588
1.9833
1.98136
1.97937
1.97687
1.97348
1.9689
1.96332
1.95743
1.9518
1.9468
1.94238
1.93825
1.93413
1.92999
1.92535
1.92053
1.91073
2.65603
2.64198
2.62398
2.60351
2.57961
2.5541
2.52872
2.50345
2.47459
2.44248
2.41273
2.38789
2.36886
2.34645
2.31852
2.28838
2.26464
2.24531
2.22505
2.20448
2.18292
2.15902
2.13547
2.1154
2.09792
2.08129
2.06443
2.04626
2.02633
2.00592
1.98685
1.96948
1.95282
1.9364
1.91971
1.90252
1.88499
1.86837
1.85227
1.83729
1.82118
1.80763
1.80208
1.8137
1.86357
1.94015
2.00775
2.01781
2.00539
1.98617
1.97472
1.96727
1.96129
1.95297
1.9414
1.92408
1.90509
1.89411
1.88693
1.88063
1.8848
1.89454
1.93578
1.99947
2.03226
2.05075
2.06482
2.06821
2.06406
2.05637
2.04662
2.04078
2.03849
2.03731
2.03605
2.03328
2.02979
2.02518
2.02037
2.0166
2.01379
2.01118
2.00812
2.00411
1.99907
1.99345
1.98787
1.98248
1.9772
1.97212
1.96746
1.9632
1.95916
1.95454
1.94966
1.93954
2.65226
2.64161
2.62708
2.61109
2.59297
2.57395
2.55456
2.53333
2.50849
2.48237
2.45768
2.43608
2.41594
2.39069
2.36184
2.33462
2.31263
2.29328
2.27227
2.24946
2.22479
2.19975
2.17715
2.15702
2.13798
2.11894
2.09907
2.07782
2.05585
2.03522
2.01656
1.99905
1.98147
1.96289
1.94294
1.92297
1.90472
1.88874
1.8735
1.85852
1.84221
1.82232
1.80537
1.79302
1.79917
1.84071
1.91717
1.99047
2.00837
1.99741
1.98019
1.9706
1.96464
1.9583
1.95
1.93775
1.91778
1.90252
1.89779
1.90182
1.92421
1.98256
2.05276
2.08926
2.0929
2.09185
2.08982
2.09022
2.08888
2.08567
2.08008
2.073
2.06873
2.066
2.0635
2.06086
2.05794
2.05452
2.05047
2.04618
2.04213
2.03822
2.03397
2.02908
2.0237
2.01834
2.01325
2.0083
2.00319
1.99787
1.99272
1.98802
1.98366
1.97869
1.97352
1.96354
2.64552
2.6361
2.62346
2.60969
2.59486
2.57929
2.56194
2.54219
2.52104
2.50024
2.48064
2.46178
2.43915
2.4126
2.38624
2.36328
2.3438
2.32379
2.30097
2.27505
2.24837
2.22608
2.20578
2.186
2.16599
2.14461
2.12101
2.09666
2.07436
2.05459
2.03642
2.01879
2.00068
1.98065
1.9582
1.93586
1.9167
1.90091
1.88635
1.87165
1.85573
1.83659
1.81419
1.79494
1.78369
1.78746
1.81825
1.88553
1.96215
1.99098
1.98397
1.97134
1.96261
1.95546
1.94732
1.93793
1.92728
1.91469
1.91549
1.94245
2.0108
2.07953
2.12284
2.12744
2.12139
2.11272
2.10865
2.10731
2.10798
2.10597
2.10214
2.09646
2.09056
2.08654
2.08356
2.08101
2.07842
2.0754
2.07153
2.0667
2.06155
2.05668
2.05199
2.04715
2.04215
2.0372
2.03228
2.02731
2.02217
2.01703
2.01212
2.00738
2.00253
1.99697
1.9913
1.98131
2.64251
2.63278
2.62042
2.60737
2.5932
2.57764
2.56051
2.54207
2.52356
2.50514
2.48707
2.46805
2.445
2.41947
2.39627
2.37714
2.35961
2.33814
2.31353
2.28576
2.26129
2.24088
2.22138
2.20176
2.18137
2.15846
2.13238
2.10671
2.08469
2.0658
2.04831
2.03064
2.01169
1.99076
1.96725
1.94381
1.92396
1.90796
1.89367
1.87877
1.86269
1.84398
1.82283
1.80052
1.78412
1.77377
1.77361
1.79265
1.85123
1.92879
1.97304
1.96876
1.95752
1.94848
1.939
1.9326
1.92967
1.93591
1.96932
2.04135
2.09556
2.13168
2.14418
2.14154
2.13475
2.12541
2.12098
2.11912
2.11865
2.11657
2.11279
2.10741
2.10243
2.09919
2.09671
2.09437
2.09149
2.08789
2.08334
2.07834
2.07357
2.06908
2.06439
2.0593
2.05425
2.04946
2.04472
2.03994
2.03511
2.03023
2.02496
2.01904
2.01274
2.00606
2.00019
1.99106
2.64502
2.63407
2.62088
2.60726
2.59259
2.57685
2.56013
2.54276
2.52541
2.50784
2.48953
2.46856
2.4452
2.42264
2.40285
2.3854
2.36611
2.34312
2.31723
2.291
2.26815
2.24803
2.22869
2.20886
2.18745
2.16318
2.13712
2.11237
2.09058
2.07123
2.05368
2.03676
2.01837
1.99665
1.97278
1.94979
1.92929
1.91137
1.8965
1.88314
1.86867
1.85085
1.8302
1.80887
1.78823
1.77131
1.75944
1.75847
1.77166
1.82013
1.89611
1.94458
1.94548
1.9377
1.9317
1.93277
1.94597
1.99084
2.06845
2.11888
2.13503
2.14238
2.14454
2.14228
2.13726
2.13137
2.12728
2.12486
2.1228
2.12012
2.11624
2.11228
2.10959
2.10711
2.10399
2.10007
2.09565
2.09122
2.08708
2.08317
2.07926
2.07499
2.06975
2.06382
2.0587
2.05447
2.0504
2.04622
2.04167
2.03647
2.03024
2.02334
2.01691
2.01105
2.00626
1.998
2.64989
2.63798
2.62391
2.60962
2.59455
2.57877
2.56236
2.54563
2.52846
2.51039
2.49075
2.46918
2.4471
2.42631
2.40766
2.38936
2.36765
2.3435
2.31841
2.29476
2.27371
2.25314
2.23248
2.21102
2.18756
2.16286
2.13904
2.11712
2.09659
2.07651
2.05671
2.03698
2.01618
1.99449
1.97405
1.95504
1.93644
1.91771
1.89853
1.87966
1.86188
1.84518
1.82995
1.81504
1.79739
1.77879
1.76109
1.74542
1.73691
1.74564
1.78705
1.85723
1.91276
1.92193
1.93008
1.95224
2.00246
2.07465
2.13396
2.15192
2.15025
2.14472
2.14176
2.13888
2.13592
2.13305
2.1303
2.12712
2.12355
2.11991
2.11728
2.11502
2.1127
2.10977
2.10601
2.10061
2.0953
2.09174
2.08851
2.08512
2.08151
2.07715
2.07132
2.06507
2.06041
2.05663
2.05294
2.04908
2.04466
2.0391
2.03227
2.02595
2.02073
2.01579
2.0116
2.00364
2.65332
2.64136
2.62724
2.61293
2.59782
2.58205
2.56573
2.54879
2.531
2.51204
2.4919
2.47116
2.45068
2.43094
2.41208
2.38983
2.36545
2.34111
2.3194
2.29894
2.27836
2.25716
2.23437
2.20988
2.18515
2.16175
2.14062
2.12133
2.10231
2.08222
2.06006
2.0358
2.01241
1.99184
1.97375
1.95731
1.94082
1.92265
1.90195
1.87987
1.85934
1.84263
1.82775
1.81391
1.79984
1.78405
1.76368
1.74228
1.72466
1.71669
1.72374
1.76057
1.82991
1.89204
1.94849
2.01944
2.07632
2.12775
2.15103
2.15052
2.14649
2.14204
2.13833
2.13588
2.13482
2.13358
2.13137
2.12774
2.12265
2.11933
2.11724
2.11569
2.11361
2.11049
2.10618
2.09997
2.09501
2.09184
2.0889
2.0858
2.08234
2.07792
2.07179
2.06558
2.06126
2.05766
2.0541
2.05039
2.04612
2.04061
2.0336
2.0275
2.0233
2.0196
2.01624
2.00869
2.65456
2.64309
2.62914
2.61494
2.59998
2.58426
2.56782
2.55044
2.53205
2.51283
2.49324
2.4739
2.45495
2.43604
2.41379
2.38895
2.36437
2.34183
2.32181
2.30326
2.28219
2.25985
2.23488
2.2076
2.1822
2.1613
2.14315
2.12564
2.10745
2.08649
2.06078
2.03235
2.00759
1.98906
1.97406
1.9601
1.94556
1.92828
1.90497
1.87746
1.85378
1.83772
1.82552
1.81466
1.80346
1.78971
1.76942
1.74285
1.71905
1.70483
1.70028
1.70983
1.75232
1.85201
1.97914
2.07589
2.14153
2.17863
2.17306
2.1568
2.14554
2.1398
2.13689
2.13506
2.13399
2.13275
2.13071
2.12699
2.12166
2.11877
2.11685
2.11593
2.11392
2.11081
2.10624
2.09963
2.095
2.09197
2.08917
2.08614
2.08267
2.07809
2.07169
2.06567
2.06163
2.05813
2.05465
2.05097
2.04658
2.04083
2.03434
2.02928
2.02518
2.02107
2.01713
2.00891
)
;

boundaryField
{
    inlet
    {
        type            fixedValue;
        value           uniform 1;
    }
    outlet
    {
        type            inletOutlet;
        inletValue      uniform 1;
        value           nonuniform List<scalar> 
32
(
2.47895
2.46427
2.43869
2.38779
2.317
2.21171
2.10336
2.02238
1.97788
1.9525
1.93943
1.9326
1.92171
1.9048
1.88531
1.86603
1.84926
1.83813
1.83633
1.83622
1.84353
1.85732
1.88105
1.91037
1.93917
1.96331
1.98121
1.99113
1.99815
2.00377
2.00878
2.0089
)
;
    }
    bottom
    {
        type            symmetryPlane;
    }
    top
    {
        type            symmetryPlane;
    }
    obstacle
    {
        type            zeroGradient;
    }
    defaultFaces
    {
        type            empty;
    }
}


// ************************************************************************* //
