/*--------------------------------*- C++ -*----------------------------------*\
  =========                 |
  \\      /  F ield         | OpenFOAM: The Open Source CFD Toolbox
   \\    /   O peration     | Website:  https://openfoam.org
    \\  /    A nd           | Version:  7
     \\/     M anipulation  |
\*---------------------------------------------------------------------------*/
FoamFile
{
    version     2.0;
    format      ascii;
    class       volVectorField;
    location    "8";
    object      U;
}
// * * * * * * * * * * * * * * * * * * * * * * * * * * * * * * * * * * * * * //

dimensions      [0 1 -1 0 0 0 0];

internalField   nonuniform List<vector> 
4032
(
(3 1.17965e-16 0)
(3 -1.23221e-17 0)
(3 -1.90431e-16 0)
(3 -5.33231e-16 0)
(3 -7.68005e-16 0)
(3 -1.24848e-15 0)
(3 -1.6844e-15 0)
(3 -1.6148e-15 0)
(3 -9.43518e-16 0)
(3 -7.38427e-16 0)
(3 -9.09635e-16 0)
(2.90047 0.00320716 0)
(0.988456 0.0160905 0)
(0.709683 0.0193363 0)
(0.657977 0.0241196 0)
(0.598149 0.0255676 0)
(0.539167 0.026762 0)
(0.478354 0.0280831 0)
(0.415805 0.0295843 0)
(0.350883 0.0313918 0)
(0.283046 0.0334059 0)
(0.210675 0.0364591 0)
(0.132029 0.0391106 0)
(0.0494424 0.0445785 0)
(3 2.31009e-17 0)
(3 -2.90031e-16 0)
(3 -8.5586e-16 0)
(3 -1.00584e-15 0)
(3 -1.28741e-15 0)
(3 -2.03045e-15 0)
(3 -2.41617e-15 0)
(3 -2.15956e-15 0)
(3 -1.70564e-15 0)
(3 -1.19911e-15 0)
(3 -1.1316e-15 0)
(2.9106 0.0203091 0)
(0.994586 0.0743988 0)
(0.6957 0.0666581 0)
(0.641659 0.070779 0)
(0.582914 0.0752709 0)
(0.52414 0.0796231 0)
(0.463058 0.0842452 0)
(0.399978 0.0890259 0)
(0.334782 0.0945992 0)
(0.267479 0.100596 0)
(0.197436 0.110264 0)
(0.122234 0.118903 0)
(0.0459792 0.134634 0)
(3 -4.13172e-16 0)
(3 -3.4441e-16 0)
(3 2.53428e-17 0)
(3 1.86113e-16 0)
(3 1.89033e-16 0)
(3 -2.00769e-16 0)
(3 -6.34407e-16 0)
(3 -7.23178e-16 0)
(3 -7.81375e-16 0)
(3 -7.08276e-16 0)
(3 -6.57844e-16 0)
(2.95462 0.0400661 0)
(1.03222 0.137817 0)
(0.711128 0.115772 0)
(0.656688 0.122296 0)
(0.595896 0.129711 0)
(0.534967 0.137228 0)
(0.471728 0.145268 0)
(0.406062 0.153258 0)
(0.337747 0.161988 0)
(0.266836 0.170126 0)
(0.194307 0.183584 0)
(0.117626 0.195125 0)
(0.0437854 0.217482 0)
(3 -4.30806e-17 0)
(3 2.39979e-16 0)
(3 3.43535e-16 0)
(3 4.01539e-16 0)
(3 3.53923e-17 0)
(3 -1.05497e-17 0)
(3 -2.32057e-16 0)
(3 -2.15593e-17 0)
(3 2.67748e-16 0)
(3 6.02728e-16 0)
(3 6.96103e-16 0)
(3.00834 0.0063167 0)
(1.10773 0.182257 0)
(0.743763 0.152678 0)
(0.692281 0.166554 0)
(0.632789 0.178488 0)
(0.571706 0.189994 0)
(0.50789 0.202762 0)
(0.440278 0.21606 0)
(0.368057 0.231098 0)
(0.290617 0.244319 0)
(0.210979 0.262803 0)
(0.126711 0.276977 0)
(0.0458599 0.302431 0)
(3 1.69275e-16 0)
(3 1.97374e-16 0)
(3 -3.70552e-16 0)
(3 -2.84295e-16 0)
(3 -4.8081e-16 0)
(3 -9.03454e-16 0)
(3 -4.95996e-16 0)
(3 -2.84351e-16 0)
(3 -1.83461e-16 0)
(3 1.57392e-16 0)
(3 1.55228e-16 0)
(3.00059 3.03575e-05 0)
(1.2165 0.224513 0)
(0.750302 0.197087 0)
(0.695769 0.217692 0)
(0.639705 0.234166 0)
(0.581309 0.249149 0)
(0.521005 0.266699 0)
(0.457126 0.28558 0)
(0.389203 0.307253 0)
(0.314547 0.325324 0)
(0.235561 0.348501 0)
(0.145528 0.36774 0)
(0.0549538 0.399393 0)
(3 1.67803e-16 0)
(3 -1.44404e-18 0)
(3 -3.57194e-17 0)
(3 -4.59117e-17 0)
(3 -1.13679e-16 0)
(3 -5.29722e-16 0)
(3 1.04326e-16 0)
(3 1.78354e-16 0)
(3 -6.1656e-17 0)
(3 -6.98723e-16 0)
(3 -7.95105e-16 0)
(3 -1.19921e-07 0)
(1.39643 0.274696 0)
(0.765728 0.245438 0)
(0.697014 0.261861 0)
(0.648 0.281044 0)
(0.597799 0.298749 0)
(0.547382 0.320236 0)
(0.492039 0.344541 0)
(0.430285 0.374992 0)
(0.355083 0.405306 0)
(0.268311 0.443139 0)
(0.166185 0.478403 0)
(0.0561591 0.517328 0)
(3 2.03921e-17 0)
(3 -5.06755e-16 0)
(3 -3.132e-16 0)
(3 -6.36792e-16 0)
(3 -1.35028e-15 0)
(3 -1.08912e-15 0)
(3 -9.47363e-16 0)
(3 -3.61014e-16 0)
(3 2.89309e-16 0)
(3 1.6954e-16 0)
(3 1.11242e-15 0)
(3 -1.18555e-07 0)
(1.67066 0.325905 0)
(0.796145 0.309391 0)
(0.696715 0.308659 0)
(0.645865 0.325171 0)
(0.597822 0.343476 0)
(0.55449 0.369751 0)
(0.508229 0.402254 0)
(0.459031 0.444862 0)
(0.397759 0.491983 0)
(0.326693 0.543736 0)
(0.233472 0.594594 0)
(0.101444 0.660042 0)
(3 -3.53934e-16 0)
(3 -6.77739e-16 0)
(3 -1.1476e-15 0)
(3 -1.07028e-15 0)
(3 -1.07384e-15 0)
(3 -1.2822e-15 0)
(3 -1.50043e-15 0)
(3 -1.05231e-15 0)
(3 -4.13164e-16 0)
(3 5.62467e-16 0)
(3 1.71183e-15 0)
(3 -2.46799e-08 0)
(2.07401 0.367314 0)
(0.852536 0.394541 0)
(0.716959 0.370106 0)
(0.667143 0.379025 0)
(0.620104 0.392262 0)
(0.57936 0.416595 0)
(0.540413 0.452188 0)
(0.501929 0.501154 0)
(0.457822 0.560551 0)
(0.395793 0.641651 0)
(0.274982 0.757277 0)
(0.15126 0.923257 0)
(3 1.48105e-16 0)
(3 3.28344e-16 0)
(3 6.00722e-16 0)
(3 1.04935e-15 0)
(3 1.26106e-15 0)
(3 1.15131e-15 0)
(3 7.9304e-16 0)
(3 3.73111e-16 0)
(3 -4.33465e-16 0)
(3 1.19744e-16 0)
(3 3.09859e-16 0)
(3 -2.54667e-09 0)
(2.65809 0.302252 0)
(0.984992 0.477918 0)
(0.803539 0.406447 0)
(0.751618 0.414961 0)
(0.693879 0.433375 0)
(0.642395 0.459427 0)
(0.599689 0.496679 0)
(0.56361 0.550006 0)
(0.530023 0.626827 0)
(0.497198 0.751037 0)
(0.465016 0.923021 0)
(0.577887 1.20147 0)
(3 6.01505e-17 0)
(3 5.97537e-16 0)
(3 1.32355e-15 0)
(3 1.79828e-15 0)
(3 2.14731e-15 0)
(3 1.69713e-15 0)
(3 1.61355e-15 0)
(3 3.50545e-16 0)
(3 -4.26617e-16 0)
(3 -5.06024e-16 0)
(3 -1.54823e-16 0)
(3 -1.01955e-10 0)
(3.07658 0.0423631 0)
(1.21983 0.469573 0)
(0.882254 0.447632 0)
(0.838598 0.474192 0)
(0.784984 0.489906 0)
(0.730605 0.511186 0)
(0.682354 0.544771 0)
(0.643737 0.597008 0)
(0.62456 0.681605 0)
(0.623602 0.816561 0)
(0.686457 0.965754 0)
(0.971345 1.13794 0)
(3 -1.01754e-16 0)
(3 -5.77388e-17 0)
(3 -1.30552e-17 0)
(3 3.27263e-16 0)
(3 9.70574e-16 0)
(3 -9.61716e-17 0)
(3 -1.85346e-16 0)
(3 -3.7995e-16 0)
(3 -5.33384e-16 0)
(3 -2.43947e-16 0)
(3 -2.22737e-16 0)
(3 -2.1211e-12 0)
(3.00856 7.88828e-05 0)
(1.43728 0.462181 0)
(0.884179 0.5123 0)
(0.836469 0.531651 0)
(0.800792 0.551062 0)
(0.772274 0.575537 0)
(0.744788 0.607601 0)
(0.720412 0.651625 0)
(0.723437 0.725496 0)
(0.751164 0.840001 0)
(0.872701 0.963228 0)
(1.18278 1.0674 0)
(3 -5.94381e-17 0)
(3 -5.23084e-16 0)
(3 -7.00842e-16 0)
(3 -8.59299e-16 0)
(3 -7.65578e-16 0)
(3 -6.81563e-16 0)
(3 -1.33796e-15 0)
(3 -6.76234e-16 0)
(3 -3.10925e-16 0)
(3 -4.20389e-16 0)
(3 -7.74987e-16 0)
(3 -1.98603e-14 0)
(3.00006 -2.46501e-06 0)
(1.94516 0.494095 0)
(0.929334 0.576876 0)
(0.853377 0.560398 0)
(0.833927 0.582158 0)
(0.819465 0.607685 0)
(0.809395 0.64225 0)
(0.801809 0.682667 0)
(0.817698 0.746036 0)
(0.867057 0.837449 0)
(1.01023 0.939994 0)
(1.2756 1.00641 0)
(3 -6.8157e-17 0)
(3 -1.48778e-16 0)
(3 -3.73447e-16 0)
(3 -1.02857e-15 0)
(3 -1.29968e-15 0)
(3 -4.1199e-16 0)
(3 -4.0665e-16 0)
(3 -6.77336e-16 0)
(3 -6.55341e-16 0)
(3 -2.12741e-15 0)
(3 -2.84711e-15 0)
(3 -1.61981e-15 0)
(3.00001 -3.14865e-06 0)
(2.74982 0.318251 0)
(1.09709 0.635069 0)
(0.920685 0.580742 0)
(0.891535 0.601748 0)
(0.873826 0.630747 0)
(0.869992 0.668957 0)
(0.876407 0.710982 0)
(0.901552 0.765489 0)
(0.966438 0.834604 0)
(1.10523 0.907295 0)
(1.32 0.947047 0)
(3 1.39292e-16 0)
(3 5.78757e-16 0)
(3 5.47254e-16 0)
(3 3.42522e-16 0)
(3 -1.93822e-17 0)
(3 3.8031e-16 0)
(3 9.83255e-16 0)
(3 4.76944e-16 0)
(3 -9.35765e-16 0)
(3 -1.80124e-15 0)
(3 -2.72394e-15 0)
(3 -2.20018e-15 0)
(3 -6.65388e-07 0)
(3.07435 0.0257546 0)
(1.43663 0.631637 0)
(1.00176 0.652595 0)
(0.950346 0.65239 0)
(0.924716 0.666924 0)
(0.923011 0.694344 0)
(0.939326 0.730495 0)
(0.974505 0.773862 0)
(1.0481 0.827685 0)
(1.17436 0.879314 0)
(1.34831 0.90626 0)
(3 8.46641e-17 0)
(3 1.74841e-16 0)
(3 3.76246e-16 0)
(3 6.3651e-16 0)
(3 5.65544e-16 0)
(3 4.91828e-16 0)
(3 7.57234e-16 0)
(3 2.25702e-16 0)
(3 -3.52975e-16 0)
(3 -3.68232e-16 0)
(3 -4.6702e-16 0)
(3 -2.93829e-16 0)
(3 -6.76538e-08 0)
(3.00409 7.15567e-05 0)
(1.992 0.599914 0)
(1.06352 0.724442 0)
(1.01097 0.701828 0)
(0.994726 0.699072 0)
(0.991138 0.715308 0)
(1.00602 0.742026 0)
(1.04434 0.777924 0)
(1.11538 0.81662 0)
(1.22266 0.849761 0)
(1.35976 0.866384 0)
(3 2.06314e-17 0)
(3 2.8105e-17 0)
(3 -1.70646e-16 0)
(3 3.03144e-16 0)
(3 9.2801e-16 0)
(3 8.45907e-16 0)
(3 7.57629e-16 0)
(3 3.34289e-16 0)
(3 3.26361e-16 0)
(3 7.97422e-16 0)
(3 7.95341e-16 0)
(3 1.67043e-15 0)
(3 -2.14615e-09 0)
(3.00001 -3.24067e-07 0)
(2.93537 0.220402 0)
(1.28266 0.69775 0)
(1.08274 0.719106 0)
(1.08707 0.720599 0)
(1.08154 0.740817 0)
(1.08682 0.762306 0)
(1.11482 0.788493 0)
(1.17588 0.817738 0)
(1.26485 0.83955 0)
(1.37707 0.849033 0)
(3 4.35013e-18 0)
(3 -3.482e-16 0)
(3 -4.91841e-16 0)
(3 5.58089e-16 0)
(3 9.89008e-16 0)
(3 1.26048e-15 0)
(3 1.47805e-15 0)
(3 1.29404e-15 0)
(3 4.88159e-16 0)
(3 1.2925e-15 0)
(3 1.30042e-15 0)
(3 1.27451e-15 0)
(3 -4.76356e-12 0)
(3 -7.70482e-07 0)
(3.04094 0.00631582 0)
(1.57367 0.659595 0)
(1.10023 0.75667 0)
(1.11107 0.765527 0)
(1.11693 0.783408 0)
(1.1397 0.795496 0)
(1.17382 0.806506 0)
(1.22835 0.81811 0)
(1.30351 0.828673 0)
(1.39773 0.832263 0)
(3 -2.69036e-16 0)
(3 -1.35826e-16 0)
(3 4.23409e-16 0)
(3 4.41642e-16 0)
(3 -4.56887e-17 0)
(3 7.51388e-16 0)
(3 1.4674e-15 0)
(3 2.11047e-15 0)
(3 1.86556e-15 0)
(3 2.46451e-15 0)
(3 2.01458e-15 0)
(3 1.65122e-15 0)
(3 -5.61439e-15 0)
(3 -1.47651e-07 0)
(3.00079 3.50564e-05 0)
(2.39203 0.509644 0)
(1.20627 0.788891 0)
(1.13541 0.791948 0)
(1.14867 0.795605 0)
(1.17701 0.80552 0)
(1.21719 0.817291 0)
(1.27 0.828191 0)
(1.33922 0.834755 0)
(1.41881 0.834678 0)
(3 -3.48805e-16 0)
(3 3.25172e-16 0)
(3 1.45991e-15 0)
(3 9.75317e-16 0)
(3 3.41174e-16 0)
(3 6.18409e-16 0)
(3 7.78708e-16 0)
(3 1.9523e-15 0)
(3 2.48762e-15 0)
(3 2.62535e-15 0)
(3 2.20109e-15 0)
(3 1.76325e-15 0)
(3 2.00301e-15 0)
(3 -4.63313e-09 0)
(3.00002 -5.79727e-06 0)
(3.05795 0.0718076 0)
(1.56739 0.776251 0)
(1.1849 0.786181 0)
(1.19844 0.794166 0)
(1.22159 0.806734 0)
(1.25948 0.818532 0)
(1.30898 0.828259 0)
(1.37222 0.832645 0)
(1.44189 0.830822 0)
(3 -6.74253e-17 0)
(3 3.61876e-18 0)
(3 1.77844e-16 0)
(3 9.38238e-16 0)
(3 8.6464e-16 0)
(3 2.7497e-16 0)
(3 2.49305e-16 0)
(3 6.33799e-16 0)
(3 1.74908e-15 0)
(3 1.63471e-15 0)
(3 1.48166e-15 0)
(3 1.24336e-15 0)
(3 1.79799e-15 0)
(3 -1.67905e-11 0)
(3 -1.45503e-06 0)
(3.00809 0.00136529 0)
(2.29645 0.63047 0)
(1.26367 0.848402 0)
(1.22307 0.8335 0)
(1.25699 0.83375 0)
(1.29124 0.839008 0)
(1.33765 0.84422 0)
(1.39516 0.845244 0)
(1.45784 0.841294 0)
(3 -2.54458e-17 0)
(3 -9.41985e-17 0)
(3 -4.598e-16 0)
(3 4.88394e-17 0)
(3 -2.02321e-16 0)
(3 -5.27756e-16 0)
(3 -6.42699e-16 0)
(3 -6.4984e-16 0)
(3 -4.46797e-16 0)
(3 1.19147e-16 0)
(3 5.13172e-16 0)
(3 4.91249e-16 0)
(3 1.18427e-15 0)
(3 -6.05599e-15 0)
(3 -1.23399e-07 0)
(3.00003 9.30738e-06 0)
(3.0396 0.117102 0)
(1.62776 0.826841 0)
(1.26875 0.830687 0)
(1.30591 0.833698 0)
(1.33176 0.84013 0)
(1.37305 0.842409 0)
(1.42271 0.842126 0)
(1.48046 0.837549 0)
(3 2.67124e-16 0)
(3 -1.69953e-16 0)
(3 -9.99022e-16 0)
(3 -1.48935e-15 0)
(3 -9.9269e-16 0)
(3 -1.00641e-15 0)
(3 -1.26986e-15 0)
(3 -1.81829e-15 0)
(3 -1.71656e-15 0)
(3 -7.10509e-16 0)
(3 7.37071e-16 0)
(3 1.1344e-15 0)
(3 9.47155e-16 0)
(3 5.85137e-16 0)
(3 -1.48841e-09 0)
(3 -1.17487e-07 0)
(3.01054 0.0034242 0)
(2.37113 0.636279 0)
(1.35649 0.885784 0)
(1.32845 0.877231 0)
(1.35891 0.869781 0)
(1.39353 0.865427 0)
(1.43815 0.860448 0)
(1.49099 0.855522 0)
(3 8.1915e-17 0)
(3 -2.78067e-16 0)
(3 -1.17983e-15 0)
(3 -1.53938e-15 0)
(3 -1.28292e-15 0)
(3 -9.12781e-16 0)
(3 -5.67018e-16 0)
(3 -8.38462e-16 0)
(3 -8.02886e-16 0)
(3 -9.98901e-16 0)
(3 -9.0417e-16 0)
(3 -4.70422e-17 0)
(3 6.95696e-16 0)
(3 1.22887e-15 0)
(3 -3.32142e-12 0)
(3 -2.8985e-08 0)
(3.00005 4.15622e-05 0)
(3.03163 0.105158 0)
(1.76324 0.835715 0)
(1.36522 0.883144 0)
(1.39982 0.875503 0)
(1.42828 0.865395 0)
(1.46568 0.861033 0)
(1.51247 0.849664 0)
(3 -9.6639e-17 0)
(3 1.18358e-16 0)
(3 1.12722e-16 0)
(3 -2.71515e-16 0)
(3 -4.5578e-16 0)
(3 -1.09638e-16 0)
(3 1.36734e-16 0)
(3 1.5229e-16 0)
(3 -3.52163e-16 0)
(3 -4.34658e-16 0)
(3 -1.15342e-15 0)
(3 -1.22498e-15 0)
(3 -2.32908e-16 0)
(3 7.33858e-16 0)
(3 -8.91843e-16 0)
(3 -2.69579e-09 0)
(3 2.34596e-08 0)
(3.00607 0.00434585 0)
(2.62271 0.529506 0)
(1.50507 0.936506 0)
(1.41912 0.898638 0)
(1.45373 0.892297 0)
(1.48757 0.88273 0)
(1.5081 0.860497 0)
(3 -1.86133e-16 0)
(3 1.3737e-16 0)
(3 3.32944e-16 0)
(3 3.28211e-16 0)
(3 1.01244e-16 0)
(3 2.29098e-16 0)
(3 -1.31186e-16 0)
(3 -1.36374e-16 0)
(3 -2.50388e-16 0)
(3 -9.06777e-16 0)
(3 -9.18583e-16 0)
(3 -1.0943e-15 0)
(3 -8.71614e-16 0)
(3 -5.29921e-16 0)
(3 -4.12673e-16 0)
(3 -1.05485e-10 0)
(3 -1.03297e-10 0)
(3.00002 4.65036e-05 0)
(3.03689 0.0528661 0)
(2.02099 0.797141 0)
(1.47231 0.909583 0)
(1.50617 0.910322 0)
(1.50189 0.88414 0)
(1.45362 0.778744 0)
(3 2.05294e-17 0)
(3 -8.22953e-17 0)
(3 3.48051e-16 0)
(3 3.62235e-16 0)
(3 2.62231e-16 0)
(3 4.72884e-16 0)
(3 -3.54814e-17 0)
(3 -2.33486e-16 0)
(3 -3.74705e-16 0)
(3 -8.57797e-16 0)
(3 -7.94415e-16 0)
(3 -5.6413e-16 0)
(3 -9.27344e-16 0)
(3 -1.04433e-15 0)
(3 -3.47218e-16 0)
(3 -9.10293e-13 0)
(3 -3.25162e-11 0)
(3 3.69908e-08 0)
(3.00171 0.00227703 0)
(2.82701 0.314696 0)
(1.74442 0.88133 0)
(1.52839 0.959177 0)
(1.42645 0.814369 0)
(1.34741 0.634344 0)
(3 -5.17962e-17 0)
(3 -2.66363e-16 0)
(3 -3.59031e-16 0)
(3 -3.73967e-16 0)
(3 1.91916e-16 0)
(3 4.94214e-16 0)
(3 5.4663e-16 0)
(3 6.16317e-16 0)
(3 -2.60397e-16 0)
(3 -4.28752e-17 0)
(3 -2.01607e-17 0)
(3 -2.03301e-16 0)
(3 -1.19823e-15 0)
(3 -1.4154e-15 0)
(3 -7.08283e-16 0)
(3 -2.47193e-15 0)
(3 -4.24379e-12 0)
(3 3.33472e-12 0)
(3 1.2288e-05 0)
(3.00985 0.0199139 0)
(2.39263 0.639119 0)
(1.56164 0.911549 0)
(1.26238 0.631911 0)
(1.29414 0.553775 0)
(3 2.68048e-17 0)
(3 -2.12622e-16 0)
(3 -3.72046e-16 0)
(3 -2.26972e-16 0)
(3 3.1263e-16 0)
(3 6.29667e-16 0)
(3 1.54183e-15 0)
(3 1.74267e-15 0)
(3 1.44176e-15 0)
(3 1.12258e-15 0)
(3 8.3224e-16 0)
(3 2.22421e-16 0)
(3 -3.59932e-16 0)
(3 -6.72145e-16 0)
(3 -5.73791e-16 0)
(3 -6.98681e-16 0)
(3 -2.67289e-13 0)
(3 -2.68141e-13 0)
(3 6.81371e-09 0)
(3.00009 0.000582425 0)
(2.97418 0.111631 0)
(1.5203 0.549382 0)
(1.16722 0.481829 0)
(1.26959 0.485696 0)
(3 1.66264e-16 0)
(3 5.81264e-17 0)
(3 1.43003e-16 0)
(3 5.69474e-16 0)
(3 5.72405e-16 0)
(3 7.50828e-16 0)
(3 2.40206e-15 0)
(3 2.31807e-15 0)
(3 2.30142e-15 0)
(3 2.30459e-15 0)
(3 1.71111e-15 0)
(3 9.92837e-16 0)
(3 5.9495e-16 0)
(3 7.66546e-18 0)
(3 -6.33506e-16 0)
(3 -9.27108e-16 0)
(3 -4.83602e-15 0)
(3 -8.99103e-14 0)
(3 1.34448e-12 0)
(3 2.033e-06 0)
(3.00358 0.00255885 0)
(1.25193 0.240845 0)
(0.9861 0.41399 0)
(1.16769 0.452523 0)
(3 1.18373e-17 0)
(3 3.08869e-16 0)
(3 5.46207e-16 0)
(3 3.3389e-16 0)
(3 1.93088e-16 0)
(3 5.63697e-17 0)
(3 3.1383e-16 0)
(3 6.09237e-16 0)
(3 4.40647e-16 0)
(3 3.67186e-16 0)
(3 4.38903e-16 0)
(3 -8.35188e-17 0)
(3 -4.85582e-17 0)
(3 -5.32908e-17 0)
(3 8.19542e-17 0)
(3 4.85668e-16 0)
(3 6.38201e-16 0)
(3 -1.24573e-14 0)
(3 -1.23563e-14 0)
(3 2.26465e-09 0)
(3.00004 3.9058e-06 0)
(1.1755 0.154386 0)
(0.823268 0.303814 0)
(0.980022 0.346753 0)
(3 8.63131e-17 0)
(3 7.48497e-16 0)
(3 6.4505e-16 0)
(3 2.86892e-16 0)
(3 -3.74966e-16 0)
(3 -8.82576e-16 0)
(3 -1.11774e-15 0)
(3 -1.09591e-15 0)
(3 -4.86162e-16 0)
(3 -3.09815e-16 0)
(3 -9.483e-17 0)
(3 -2.2971e-17 0)
(3 1.08927e-16 0)
(3 5.33554e-16 0)
(3 1.7925e-15 0)
(3 3.1184e-15 0)
(3 2.50953e-15 0)
(3 1.68185e-15 0)
(3 -2.74706e-15 0)
(3 8.68205e-13 0)
(3 -1.32259e-09 0)
(1.25386 0.173064 0)
(0.790558 0.23627 0)
(0.856711 0.249066 0)
(3 4.83595e-17 0)
(3 -2.34316e-16 0)
(3 -1.85419e-16 0)
(3 3.1874e-16 0)
(3 -1.16142e-16 0)
(3 -5.36254e-16 0)
(3 -5.49969e-16 0)
(3 -7.28355e-16 0)
(3 -3.8337e-16 0)
(3 -9.58385e-17 0)
(3 -1.89735e-16 0)
(3 1.45592e-16 0)
(3 2.45261e-18 0)
(3 1.01001e-16 0)
(3 4.29637e-16 0)
(3 1.13077e-15 0)
(3 5.62086e-16 0)
(3 8.1178e-16 0)
(3 2.01271e-16 0)
(3 8.20863e-16 0)
(3 -1.1397e-11 0)
(1.36625 0.208485 0)
(0.806862 0.203211 0)
(0.813493 0.209335 0)
(3 -1.23955e-16 0)
(3 -3.14133e-16 0)
(3 6.41546e-16 0)
(3 1.52013e-15 0)
(3 1.44568e-15 0)
(3 1.11872e-15 0)
(3 7.61664e-16 0)
(3 3.81409e-17 0)
(3 -6.84456e-16 0)
(3 -7.73947e-16 0)
(3 -5.88059e-16 0)
(3 -2.26721e-16 0)
(3 1.01634e-16 0)
(3 -1.97713e-16 0)
(3 -7.91338e-16 0)
(3 -9.47707e-16 0)
(3 -5.8183e-16 0)
(3 3.4849e-16 0)
(3 2.59371e-16 0)
(3 1.60316e-15 0)
(3 -1.46606e-13 0)
(1.52728 0.212217 0)
(0.820189 0.189804 0)
(0.814138 0.185203 0)
(3 -1.39806e-16 0)
(3 1.52143e-16 0)
(3 6.24273e-16 0)
(3 8.55144e-16 0)
(3 9.00411e-16 0)
(3 1.17064e-15 0)
(3 7.68712e-16 0)
(3 5.87717e-17 0)
(3 -9.4539e-16 0)
(3 -8.4043e-18 0)
(3 3.31699e-16 0)
(3 3.99318e-16 0)
(3 7.1355e-16 0)
(3 4.74111e-16 0)
(3 -3.23352e-16 0)
(3 -7.17875e-16 0)
(3 -1.58726e-16 0)
(3 4.87633e-16 0)
(3 7.8928e-16 0)
(3 1.17187e-15 0)
(3 -1.53497e-14 0)
(1.72129 0.202525 0)
(0.837972 0.178054 0)
(0.824279 0.166477 0)
(3 -2.0464e-17 0)
(3 -1.45534e-16 0)
(3 -3.83691e-16 0)
(3 -6.17156e-16 0)
(3 2.14763e-17 0)
(3 6.85285e-16 0)
(3 7.58165e-16 0)
(3 8.50862e-16 0)
(3 1.00104e-15 0)
(3 4.72314e-16 0)
(3 5.95918e-16 0)
(3 6.58553e-16 0)
(3 2.80822e-16 0)
(3 3.67011e-16 0)
(3 -7.12995e-17 0)
(3 -7.4921e-16 0)
(3 -1.30451e-15 0)
(3 -4.74386e-16 0)
(3 -9.66414e-17 0)
(3 6.94417e-16 0)
(3 -3.10356e-15 0)
(1.90904 0.170686 0)
(0.855597 0.155471 0)
(0.831742 0.14351 0)
(3 -2.56151e-17 0)
(3 -1.93012e-16 0)
(3 -6.02097e-16 0)
(3 -5.98802e-16 0)
(3 1.24206e-16 0)
(3 -8.21171e-17 0)
(3 -3.43068e-16 0)
(3 1.58808e-16 0)
(3 7.45527e-16 0)
(3 3.7918e-16 0)
(3 6.5578e-16 0)
(3 6.62619e-16 0)
(3 5.35938e-16 0)
(3 2.54873e-16 0)
(3 -1.4429e-17 0)
(3 -7.34547e-16 0)
(3 -9.78199e-16 0)
(3 -2.87736e-16 0)
(3 3.4764e-16 0)
(3 9.53342e-16 0)
(3 -4.34862e-16 0)
(2.06469 0.129567 0)
(0.86897 0.127901 0)
(0.832164 0.118069 0)
(3 5.12384e-17 0)
(3 -3.17365e-16 0)
(3 -1.52703e-15 0)
(3 -1.50352e-15 0)
(3 -8.78031e-16 0)
(3 -9.94743e-16 0)
(3 -1.819e-15 0)
(3 -1.23872e-15 0)
(3 -3.73032e-16 0)
(3 -9.9067e-17 0)
(3 -3.03778e-16 0)
(3 -4.12715e-16 0)
(3 -2.40175e-16 0)
(3 -4.65298e-16 0)
(3 -9.80154e-16 0)
(3 -9.25078e-16 0)
(3 -3.75227e-16 0)
(3 5.24199e-16 0)
(3 9.01389e-16 0)
(3 6.20457e-16 0)
(3 -2.8479e-16 0)
(2.17522 0.0920681 0)
(0.87558 0.0985639 0)
(0.82602 0.0911798 0)
(3 -6.37125e-17 0)
(3 -2.4337e-16 0)
(3 -6.13932e-16 0)
(3 -8.84834e-16 0)
(3 -9.97597e-16 0)
(3 -8.91777e-16 0)
(3 -6.51288e-16 0)
(3 2.49165e-16 0)
(3 8.53869e-16 0)
(3 7.01523e-16 0)
(3 -9.12004e-17 0)
(3 -6.33822e-16 0)
(3 -4.21595e-16 0)
(3 -8.58439e-16 0)
(3 -1.60019e-15 0)
(3 -1.21604e-15 0)
(3 -3.06413e-16 0)
(3 5.58173e-16 0)
(3 6.91173e-16 0)
(3 2.95132e-16 0)
(3 -7.88346e-16 0)
(2.25367 0.0623411 0)
(0.880868 0.0698283 0)
(0.820893 0.0641576 0)
(3 3.29247e-17 0)
(3 1.62181e-16 0)
(3 7.56996e-17 0)
(3 -5.45231e-17 0)
(3 -1.35923e-15 0)
(3 -1.89058e-15 0)
(3 -3.16456e-16 0)
(3 7.96606e-16 0)
(3 1.38236e-15 0)
(3 1.81089e-15 0)
(3 1.36397e-15 0)
(3 4.06022e-16 0)
(3 1.23325e-16 0)
(3 2.23844e-16 0)
(3 -4.41265e-16 0)
(3 -4.97479e-16 0)
(3 7.5718e-16 0)
(3 1.05564e-15 0)
(3 1.18601e-15 0)
(3 7.33534e-16 0)
(3 -1.47345e-16 0)
(2.30845 0.0314484 0)
(0.88794 0.0395954 0)
(0.820375 0.0377578 0)
(3 1.3979e-16 0)
(3 2.37329e-16 0)
(3 -4.94449e-17 0)
(3 -4.40289e-16 0)
(3 -1.05776e-15 0)
(3 -1.05754e-15 0)
(3 -1.89084e-16 0)
(3 1.81115e-16 0)
(3 1.06505e-15 0)
(3 1.37618e-15 0)
(3 6.45753e-16 0)
(3 2.16951e-16 0)
(3 1.64295e-16 0)
(3 3.79504e-16 0)
(3 1.76286e-17 0)
(3 -2.22784e-17 0)
(3 2.67943e-16 0)
(3 1.42889e-17 0)
(3 -1.20306e-16 0)
(3 -2.42493e-16 0)
(3 1.32751e-16 0)
(2.31879 0.00663919 0)
(0.882755 0.010378 0)
(0.811568 0.0122811 0)
(1.48737 1.26425 0)
(2.00983 1.23323 0)
(2.37607 1.37296 0)
(2.46497 0.859022 0)
(2.46105 0.411912 0)
(2.38986 0.0648793 0)
(2.39331 -0.233196 0)
(2.5102 -0.373318 0)
(2.56554 -0.334495 0)
(2.53329 -0.259088 0)
(2.49383 -0.265931 0)
(2.42879 -0.249882 0)
(2.38431 -0.196366 0)
(2.34806 -0.132479 0)
(2.33444 -0.100693 0)
(2.38341 -0.0747798 0)
(2.4076 -0.0719213 0)
(1.19831 0.0132941 0)
(0.769783 0.0248827 0)
(0.704547 0.0273494 0)
(0.697815 0.0195962 0)
(0.705766 0.00317005 0)
(0.700807 -0.00793909 0)
(0.702022 -0.0146232 0)
(0.711244 -0.0169108 0)
(0.732654 -0.0181776 0)
(0.762372 -0.0183112 0)
(0.789053 -0.0177162 0)
(0.808629 -0.0173806 0)
(0.825768 -0.0179061 0)
(0.844287 -0.018906 0)
(0.865577 -0.0200144 0)
(0.888805 -0.020439 0)
(0.911341 -0.019288 0)
(0.933263 -0.0171577 0)
(0.957199 -0.0161206 0)
(0.985068 -0.0167326 0)
(1.01573 -0.0183318 0)
(1.04472 -0.0197892 0)
(1.06906 -0.0190728 0)
(1.08839 -0.0168333 0)
(1.10749 -0.0148295 0)
(1.12989 -0.0137471 0)
(1.15749 -0.0136101 0)
(1.1872 -0.013618 0)
(1.21308 -0.0129336 0)
(1.23314 -0.0115118 0)
(1.25098 -0.0103805 0)
(1.26965 -0.00986084 0)
(1.29127 -0.00980912 0)
(1.31605 -0.00980742 0)
(1.34095 -0.00937611 0)
(1.36301 -0.00819012 0)
(1.38257 -0.0068774 0)
(1.40201 -0.00598231 0)
(1.42339 -0.00561653 0)
(1.44727 -0.00586864 0)
(1.46903 -0.00617923 0)
(1.48736 -0.00581056 0)
(1.50455 -0.00410966 0)
(1.52159 -0.00217639 0)
(1.5395 -0.00120247 0)
(1.56117 -0.000929379 0)
(1.58478 -0.00148132 0)
(1.6033 -0.00193269 0)
(1.62052 -0.00143145 0)
(1.63588 0.000164392 0)
(1.64918 0.00235637 0)
(1.66392 0.00367222 0)
(1.68089 0.00379912 0)
(1.69991 0.00347001 0)
(1.72008 0.00202897 0)
(1.73782 0.00114885 0)
(1.75527 0.00130486 0)
(1.76951 0.00223778 0)
(1.78032 0.00380625 0)
(1.7921 0.00480577 0)
(1.80781 0.00471932 0)
(1.825 0.00436417 0)
(1.84395 0.00330464 0)
(1.86199 0.0022522 0)
(1.87992 0.00219583 0)
(1.8961 0.00277059 0)
(1.90783 0.00415546 0)
(1.91853 0.00587094 0)
(1.93103 0.00755247 0)
(1.94615 0.00813552 0)
(1.96301 0.00814386 0)
(1.97598 0.00738942 0)
(1.97099 0.00028677 0)
(1.92141 -0.018237 0)
(1.7831 -0.0469067 0)
(1.45316 -0.0420734 0)
(1.38021 -0.0310611 0)
(1.41831 -0.0236602 0)
(1.4525 -0.00879031 0)
(1.75658 1.12099 0)
(2.27603 0.773335 0)
(2.54682 0.387822 0)
(2.69977 0.143605 0)
(2.71236 -0.180878 0)
(2.63236 -0.47945 0)
(2.64745 -0.533384 0)
(2.70462 -0.612994 0)
(2.68589 -0.564682 0)
(2.66027 -0.474316 0)
(2.62905 -0.392857 0)
(2.57138 -0.327284 0)
(2.48363 -0.250151 0)
(2.42465 -0.150823 0)
(2.42093 -0.0879526 0)
(2.43686 -0.0257684 0)
(2.49254 -0.0486607 0)
(1.31017 0.162065 0)
(0.81598 0.104803 0)
(0.763716 0.0597156 0)
(0.767824 0.0239676 0)
(0.778311 -0.0127479 0)
(0.779476 -0.0286554 0)
(0.780169 -0.0316706 0)
(0.78636 -0.0310528 0)
(0.802672 -0.0292165 0)
(0.829378 -0.0283584 0)
(0.854792 -0.0253652 0)
(0.871785 -0.0196598 0)
(0.883397 -0.0164876 0)
(0.895764 -0.0190732 0)
(0.914336 -0.0264671 0)
(0.938898 -0.0340377 0)
(0.96629 -0.035589 0)
(0.99108 -0.0283433 0)
(1.0111 -0.0173023 0)
(1.03061 -0.0120454 0)
(1.05276 -0.0154163 0)
(1.08036 -0.0239777 0)
(1.10889 -0.030045 0)
(1.13185 -0.027266 0)
(1.14913 -0.0192634 0)
(1.16726 -0.0120244 0)
(1.1882 -0.0101621 0)
(1.21409 -0.0139569 0)
(1.24238 -0.0177539 0)
(1.26536 -0.0161934 0)
(1.28218 -0.0116752 0)
(1.29871 -0.00740705 0)
(1.31634 -0.00582625 0)
(1.33698 -0.00779327 0)
(1.36195 -0.0112186 0)
(1.38721 -0.0112991 0)
(1.40764 -0.00730517 0)
(1.42597 -0.00214177 0)
(1.44429 0.00142221 0)
(1.46233 0.000645234 0)
(1.48256 -0.00433555 0)
(1.50373 -0.00755509 0)
(1.52248 -0.00671528 0)
(1.54032 -0.00260488 0)
(1.55847 0.00390963 0)
(1.57706 0.00823824 0)
(1.59442 0.0074929 0)
(1.61251 0.00304643 0)
(1.6305 -0.000812679 0)
(1.64751 -0.00149017 0)
(1.66446 0.00158619 0)
(1.6798 0.00891765 0)
(1.69333 0.0153336 0)
(1.70794 0.0170162 0)
(1.72417 0.0142956 0)
(1.74288 0.0072503 0)
(1.76053 0.00112586 0)
(1.77755 -0.00117229 0)
(1.79408 0.00149949 0)
(1.80796 0.00962054 0)
(1.81923 0.0173632 0)
(1.83189 0.0192194 0)
(1.84803 0.0171114 0)
(1.86666 0.0109075 0)
(1.88416 0.00468839 0)
(1.90086 0.00117804 0)
(1.91645 0.00106477 0)
(1.93153 0.00649574 0)
(1.94537 0.0169378 0)
(1.95402 0.0249549 0)
(1.96759 0.0236314 0)
(1.96656 0.00993912 0)
(1.95092 -0.0225467 0)
(1.87384 -0.102431 0)
(1.80706 -0.152821 0)
(1.55802 -0.0745533 0)
(1.42842 -0.0203403 0)
(1.44021 -0.00600354 0)
(1.46443 0.00380234 0)
(1.67906 1.03808 0)
(2.02455 0.908008 0)
(2.34171 0.60093 0)
(2.53548 0.321526 0)
(2.6237 0.176661 0)
(2.6826 0.0194637 0)
(2.70582 -0.131942 0)
(2.66351 -0.242712 0)
(2.719 -0.349885 0)
(2.76039 -0.383953 0)
(2.7766 -0.448398 0)
(2.77895 -0.510114 0)
(2.70805 -0.461588 0)
(2.64433 -0.361034 0)
(2.64678 -0.318279 0)
(2.63107 -0.2028 0)
(2.63033 -0.215753 0)
(1.84153 0.156112 0)
(1.01647 0.144507 0)
(0.94226 0.0478704 0)
(0.970587 0.0148913 0)
(0.969967 -0.00177463 0)
(0.965779 -0.0164956 0)
(0.961201 -0.0256927 0)
(0.961496 -0.0319111 0)
(0.968502 -0.0368765 0)
(0.984334 -0.043979 0)
(1.00628 -0.0516966 0)
(1.02378 -0.0534912 0)
(1.03243 -0.0500701 0)
(1.0374 -0.0427634 0)
(1.04461 -0.0394473 0)
(1.05766 -0.0433297 0)
(1.08093 -0.0536148 0)
(1.10942 -0.0618551 0)
(1.13294 -0.0605782 0)
(1.14722 -0.0534839 0)
(1.16155 -0.0458539 0)
(1.17818 -0.0432647 0)
(1.19805 -0.0467027 0)
(1.22134 -0.0519953 0)
(1.24283 -0.0514074 0)
(1.25939 -0.0453202 0)
(1.27594 -0.0374526 0)
(1.29453 -0.032542 0)
(1.31553 -0.0331816 0)
(1.33767 -0.0366691 0)
(1.35672 -0.0368818 0)
(1.37209 -0.034061 0)
(1.38723 -0.0287086 0)
(1.40372 -0.0242724 0)
(1.42214 -0.0233623 0)
(1.44372 -0.0258636 0)
(1.46582 -0.0270286 0)
(1.48433 -0.0245453 0)
(1.50138 -0.0195763 0)
(1.51667 -0.0125431 0)
(1.53203 -0.00828155 0)
(1.54848 -0.00892699 0)
(1.56635 -0.0121666 0)
(1.58595 -0.0125977 0)
(1.605 -0.00891274 0)
(1.62223 -0.00340505 0)
(1.63715 0.00321002 0)
(1.65036 0.00714079 0)
(1.66471 0.00640066 0)
(1.68092 0.0034113 0)
(1.69868 0.000778673 0)
(1.71551 0.00163943 0)
(1.73211 0.0082141 0)
(1.74523 0.0186999 0)
(1.75402 0.0263104 0)
(1.76573 0.0249511 0)
(1.78174 0.0187796 0)
(1.80111 0.0104218 0)
(1.81997 0.00570093 0)
(1.83654 0.00585128 0)
(1.85245 0.011853 0)
(1.86397 0.0231331 0)
(1.87075 0.031424 0)
(1.88127 0.0302401 0)
(1.89697 0.0250354 0)
(1.91499 0.0191425 0)
(1.93339 0.0155297 0)
(1.95216 0.0150262 0)
(1.96871 0.019519 0)
(1.97709 0.026441 0)
(1.97506 0.0174621 0)
(1.95511 -0.0092979 0)
(1.90931 -0.0675435 0)
(1.80892 -0.163923 0)
(1.79052 -0.216844 0)
(1.68707 -0.148692 0)
(1.52581 -0.0472854 0)
(1.4958 -0.00170707 0)
(1.50595 -0.00130489 0)
(1.61057 0.980711 0)
(1.90527 0.862077 0)
(2.11422 0.728656 0)
(2.30769 0.550881 0)
(2.48648 0.331736 0)
(2.59148 0.119669 0)
(2.63887 0.00470421 0)
(2.64955 -0.0981736 0)
(2.68659 -0.247336 0)
(2.72946 -0.347966 0)
(2.74219 -0.445994 0)
(2.76569 -0.486099 0)
(2.82115 -0.482941 0)
(2.77851 -0.459921 0)
(2.74762 -0.442627 0)
(2.70488 -0.39471 0)
(2.65103 -0.368362 0)
(2.54711 -0.416171 0)
(1.38887 0.0655543 0)
(1.15454 0.0926655 0)
(1.18838 0.0391409 0)
(1.19201 -0.0135937 0)
(1.18366 -0.0390936 0)
(1.17851 -0.0411514 0)
(1.17452 -0.0390978 0)
(1.17217 -0.0341153 0)
(1.17594 -0.0334463 0)
(1.18724 -0.0397821 0)
(1.20448 -0.0501571 0)
(1.21565 -0.0545225 0)
(1.22052 -0.0523411 0)
(1.22314 -0.0446042 0)
(1.22991 -0.0372648 0)
(1.24173 -0.034482 0)
(1.26247 -0.0397417 0)
(1.28696 -0.0489938 0)
(1.30205 -0.0516082 0)
(1.31202 -0.0493939 0)
(1.32135 -0.0419791 0)
(1.33356 -0.0361559 0)
(1.349 -0.0350794 0)
(1.36853 -0.0376274 0)
(1.3869 -0.0375009 0)
(1.40094 -0.0335623 0)
(1.41447 -0.0266608 0)
(1.42934 -0.0215062 0)
(1.44559 -0.0205909 0)
(1.46269 -0.022401 0)
(1.4779 -0.0232221 0)
(1.49164 -0.0219312 0)
(1.50449 -0.0169723 0)
(1.51839 -0.0116489 0)
(1.53438 -0.00880534 0)
(1.55227 -0.00929147 0)
(1.56945 -0.0117011 0)
(1.58523 -0.0126238 0)
(1.60068 -0.0110003 0)
(1.61323 -0.00522345 0)
(1.62429 0.00146812 0)
(1.63943 0.00498459 0)
(1.65624 0.00568954 0)
(1.67393 0.00430813 0)
(1.69047 0.00332206 0)
(1.70608 0.00435865 0)
(1.71849 0.00956093 0)
(1.72805 0.016159 0)
(1.74057 0.0191533 0)
(1.75633 0.0189622 0)
(1.77287 0.0158088 0)
(1.78876 0.0119269 0)
(1.80327 0.0104343 0)
(1.81375 0.0136346 0)
(1.82061 0.0209944 0)
(1.83256 0.0260928 0)
(1.84822 0.0270572 0)
(1.86468 0.0248626 0)
(1.88193 0.0202025 0)
(1.89746 0.0172004 0)
(1.91071 0.0164697 0)
(1.91754 0.0203408 0)
(1.92217 0.0267357 0)
(1.93454 0.0301934 0)
(1.95084 0.0332555 0)
(1.96844 0.0349742 0)
(1.98604 0.0360797 0)
(1.99777 0.0346463 0)
(1.99715 0.0235207 0)
(1.98022 -0.006112 0)
(1.93213 -0.0620511 0)
(1.86115 -0.127521 0)
(1.79157 -0.190375 0)
(1.81081 -0.231255 0)
(1.79448 -0.2093 0)
(1.68616 -0.112153 0)
(1.59574 -0.023968 0)
(1.57142 0.0194085 0)
(1.56514 0.928877 0)
(1.79171 0.859139 0)
(2.00703 0.716537 0)
(2.16154 0.608506 0)
(2.28526 0.511117 0)
(2.44887 0.323436 0)
(2.53064 0.121033 0)
(2.57224 0.0199831 0)
(2.59615 0.0053739 0)
(2.59692 -0.0701148 0)
(2.6534 -0.176471 0)
(2.6738 -0.297969 0)
(2.73763 -0.30917 0)
(2.77781 -0.3296 0)
(2.71646 -0.423636 0)
(2.66863 -0.49426 0)
(2.61524 -0.533879 0)
(2.52506 -0.776905 0)
(2.0253 -0.386775 0)
(1.36387 -0.0114477 0)
(1.28794 0.0570181 0)
(1.31794 0.0221477 0)
(1.33155 -0.0220963 0)
(1.33494 -0.0392362 0)
(1.33668 -0.0375682 0)
(1.33394 -0.0345273 0)
(1.33065 -0.0344309 0)
(1.33547 -0.0380375 0)
(1.34804 -0.0470088 0)
(1.36381 -0.057477 0)
(1.37273 -0.0616922 0)
(1.37836 -0.0613077 0)
(1.38362 -0.0578654 0)
(1.39207 -0.0554353 0)
(1.40443 -0.0542841 0)
(1.42248 -0.0580708 0)
(1.43786 -0.0624353 0)
(1.44712 -0.062976 0)
(1.45539 -0.06037 0)
(1.46353 -0.0552531 0)
(1.47508 -0.0518032 0)
(1.48945 -0.0493793 0)
(1.50601 -0.0479041 0)
(1.52011 -0.0455912 0)
(1.53241 -0.0421593 0)
(1.54382 -0.0371166 0)
(1.5565 -0.0338285 0)
(1.57031 -0.0325467 0)
(1.58346 -0.0322043 0)
(1.59611 -0.0314695 0)
(1.60803 -0.0288452 0)
(1.61995 -0.024088 0)
(1.6329 -0.0196154 0)
(1.64665 -0.0173558 0)
(1.66072 -0.0167111 0)
(1.67487 -0.0162545 0)
(1.68848 -0.015448 0)
(1.70039 -0.0131248 0)
(1.71125 -0.00786293 0)
(1.72355 -0.00200042 0)
(1.73792 0.00191781 0)
(1.75306 0.00414838 0)
(1.76805 0.00588434 0)
(1.78211 0.00760897 0)
(1.79422 0.0101965 0)
(1.80409 0.0147899 0)
(1.81433 0.0201108 0)
(1.82737 0.0229234 0)
(1.84194 0.0239273 0)
(1.85657 0.0237157 0)
(1.8703 0.0228436 0)
(1.88165 0.0230028 0)
(1.88972 0.0268584 0)
(1.897 0.0319469 0)
(1.90893 0.0337696 0)
(1.92422 0.0334144 0)
(1.93936 0.03288 0)
(1.95385 0.0318064 0)
(1.96619 0.0302868 0)
(1.97397 0.030989 0)
(1.9774 0.0360002 0)
(1.9848 0.041642 0)
(1.99931 0.0439194 0)
(2.01606 0.0441214 0)
(2.02928 0.0442777 0)
(2.0309 0.0380912 0)