/*--------------------------------*- C++ -*----------------------------------*\
  =========                 |
  \\      /  F ield         | OpenFOAM: The Open Source CFD Toolbox
   \\    /   O peration     | Website:  https://openfoam.org
    \\  /    A nd           | Version:  7
     \\/     M anipulation  |
\*---------------------------------------------------------------------------*/
FoamFile
{
    version     2.0;
    format      ascii;
    class       surfaceScalarField;
    location    "75";
    object      phi;
}
// * * * * * * * * * * * * * * * * * * * * * * * * * * * * * * * * * * * * * //

dimensions      [0 3 -1 0 0 0 0];

internalField   nonuniform List<scalar> 
3877
(
-0.000800957
8.66542e-05
-0.000805829
0.000110095
-0.000809834
0.000135291
-0.000812973
0.000161881
-0.000815247
0.000189412
-0.000816654
0.000217333
-0.000817189
0.000244996
-0.000816848
0.000271654
-0.000815625
0.000296472
-0.000813512
0.000318527
-0.000810499
0.000336826
-0.000806575
0.000350318
-0.000801724
0.000357918
-0.00079593
0.000358533
-0.00078917
0.000351092
-0.000781432
0.000334606
-0.00077269
0.000308129
-0.000762922
0.000270888
-0.000752101
0.00022227
-0.000740201
0.000161906
-0.00072719
8.97393e-05
-0.000712974
6.02195e-06
-0.000697752
-8.83362e-05
-0.000681482
-0.000192894
-0.000664181
-0.00030585
-0.000645874
-0.000425243
-0.000626581
-0.000548647
-0.000606307
-0.000673193
-0.000585041
-0.000795617
-0.00056274
-0.000912288
-0.000539306
-0.00101927
-0.000514584
-0.00111244
-0.000488345
-0.00118754
-0.000460301
-0.00124035
-0.000430075
-0.00126676
-0.000397301
-0.00126309
-0.00036156
-0.00122598
-0.000322593
-0.0011531
-0.000280076
-0.00104268
-0.000234067
-0.000894796
-0.000184738
-0.000710529
-0.000132365
-0.000492076
-7.78137e-05
-0.000244403
-2.20082e-05
2.6648e-05
3.39593e-05
0.000314689
8.85199e-05
0.000612391
0.000140815
0.000908627
0.000189822
0.00119571
0.000234928
0.00146452
0.000276108
0.00170617
0.00031404
0.00191185
0.000350133
0.00207286
0.000386437
0.00218055
0.000425407
0.00222658
0.000469551
0.00220356
0.002106
-0.000758874
2.34487e-05
-0.000766762
3.70076e-05
-0.000773685
5.2946e-05
-0.000779666
7.12162e-05
-0.000784718
9.17068e-05
-0.000788853
0.00011423
-0.000792078
0.000138515
-0.000794395
0.000164198
-0.000795808
0.000190824
-0.000796315
0.000217841
-0.000795918
0.000244598
-0.000794613
0.00027035
-0.0007924
0.000294259
-0.000789276
0.000315403
-0.000785238
0.000332788
-0.000780282
0.000345362
-0.000774401
0.000352038
-0.000767589
0.000351721
-0.000759834
0.000343337
-0.000751142
0.000325913
-0.000741503
0.00029849
-0.000730914
0.000260298
-0.000719369
0.000210725
-0.000706862
0.000149399
-0.000693335
7.62117e-05
-0.000678941
-8.37207e-06
-0.000663624
-0.000103653
-0.000647526
-0.000208993
-0.000630674
-0.000322701
-0.00061313
-0.000442786
-0.000594952
-0.000566825
-0.000576183
-0.000691962
-0.000556847
-0.000814954
-0.000536927
-0.000932208
-0.000516349
-0.00103985
-0.000494964
-0.00113382
-0.00047254
-0.00120997
-0.000448763
-0.00126413
-0.000423215
-0.00129231
-0.000395456
-0.00129085
-0.000364986
-0.00125645
-0.000331409
-0.00118668
-0.000294315
-0.00107978
-0.000253571
-0.00093554
-0.000209195
-0.000754905
-0.000161349
-0.000539922
-0.000110716
-0.000295036
-5.80073e-05
-2.60602e-05
-4.50522e-06
0.000261187
4.93233e-05
0.000558562
0.000101866
0.000856084
0.000152491
0.00114508
0.000200716
0.0014163
0.000246602
0.00166028
0.000290853
0.0018676
0.000334814
0.0020289
0.00038036
0.002135
0.000429658
0.00217728
0.000484819
0.0021484
0.00204329
-0.000730586
-0.000737766
4.41876e-05
-0.000743942
5.91223e-05
-0.000749134
7.64077e-05
-0.000753355
9.59279e-05
-0.000756616
0.000117492
-0.000758926
0.000140825
-0.000760289
0.000165561
-0.000760708
0.000191244
-0.000760186
0.000217318
-0.000758724
0.000243136
-0.000756325
0.000267951
-0.000752991
0.000290925
-0.000748726
0.000311138
-0.000743532
0.000327594
-0.000737412
0.000339243
-0.00073037
0.000344995
-0.000722407
0.000343758
-0.000713523
0.000334453
-0.000703742
0.000316133
-0.000693071
0.000287819
-0.000681525
0.000248752
-0.000669119
0.000198319
-0.000655871
0.00013615
-0.000641732
6.2073e-05
-0.000626925
-2.31794e-05
-0.000611404
-0.000119173
-0.000595324
-0.000225073
-0.00057876
-0.000339265
-0.000561812
-0.000459734
-0.000544576
-0.000584061
-0.000527134
-0.000709405
-0.000509545
-0.000832543
-0.000491825
-0.000949927
-0.000473926
-0.00105775
-0.000455713
-0.00115203
-0.000436957
-0.00122872
-0.000417327
-0.00128376
-0.000396373
-0.00131326
-0.000373585
-0.00131364
-0.000348384
-0.00128165
-0.00032025
-0.00121481
-0.000288665
-0.00111136
-0.000253317
-0.000970888
-0.000214057
-0.000794165
-0.000170909
-0.00058307
-0.000124352
-0.000341593
-7.49364e-05
-7.54755e-05
-2.35734e-05
0.000209824
2.88529e-05
0.000506136
8.16743e-05
0.000803263
0.000133927
0.00109283
0.000185273
0.00136495
0.000235844
0.00160971
0.000286329
0.00181712
0.000337966
0.00197726
0.000392415
0.00208055
0.000451516
0.00211818
0.000516975
0.00208294
0.00197025
-0.00069434
5.05309e-05
-0.000699644
6.44256e-05
-0.000703923
8.06876e-05
-0.000707193
9.91975e-05
-0.000709463
0.000119761
-0.000710741
0.000142103
-0.000711033
0.000165854
-0.000710344
0.000190554
-0.000708676
0.000215651
-0.000706035
0.000240495
-0.000702427
0.000264342
-0.000697857
0.000286355
-0.000692334
0.000305615
-0.000685867
0.000321128
-0.000678468
0.000331843
-0.000670147
0.000336674
-0.000660917
0.000334528
-0.000650784
0.00032432
-0.000639795
0.000305144
-0.00062797
0.000275995
-0.000615345
0.000236127
-0.000601954
0.000184928
-0.000587841
0.000122037
-0.000572959
4.71907e-05
-0.000557608
-3.85296e-05
-0.000541732
-0.000135049
-0.000525517
-0.000241288
-0.000509079
-0.000355703
-0.000492553
-0.000476261
-0.000476072
-0.000600542
-0.000459758
-0.000725718
-0.000443708
-0.000848593
-0.000427973
-0.000965662
-0.000412534
-0.00107319
-0.000397274
-0.00116729
-0.000381978
-0.00124402
-0.000366307
-0.00129943
-0.000349784
-0.00132978
-0.000331841
-0.00133158
-0.000311824
-0.00130167
-0.000289092
-0.00123754
-0.000263016
-0.00113744
-0.000233111
-0.00100079
-0.000199054
-0.000828221
-0.000160713
-0.000621411
-0.000118344
-0.000383962
-7.24098e-05
-0.00012141
-2.35138e-05
0.000160928
2.76776e-05
0.000454945
8.06579e-05
0.000750283
0.000134433
0.00103906
0.000188775
0.00131061
0.000243853
0.00155464
0.000300304
0.00176067
0.00035922
0.00191834
0.000422014
0.00201776
0.000490184
0.00205001
0.000565025
0.0020081
0.00188795
-0.000636824
5.59364e-05
-0.000641156
6.87582e-05
-0.000644429
8.39607e-05
-0.000646654
0.000101422
-0.000647839
0.000120946
-0.000647993
0.000142258
-0.000647123
0.000164984
-0.000645233
0.000188664
-0.000642328
0.000212746
-0.000638415
0.000236582
-0.000633503
0.00025943
-0.000627603
0.000280455
-0.000620728
0.00029874
-0.000612893
0.000313293
-0.000604118
0.000323068
-0.000594423
0.000326979
-0.000583829
0.000323935
-0.000572348
0.000312839
-0.000560051
0.000292847
-0.000546972
0.000262916
-0.000533164
0.000222318
-0.000518681
0.000170445
-0.000503592
0.000106948
-0.000487863
3.14622e-05
-0.000471847
-5.45464e-05
-0.000455476
-0.00015142
-0.00043898
-0.000257784
-0.000422508
-0.000372175
-0.00040623
-0.000492539
-0.000390314
-0.000616458
-0.00037492
-0.000741112
-0.000360183
-0.00086333
-0.000346191
-0.000979654
-0.000332958
-0.00108642
-0.00032039
-0.00117986
-0.000308296
-0.00125611
-0.000296336
-0.00131139
-0.000284016
-0.0013421
-0.00027072
-0.00134488
-0.000255724
-0.00131666
-0.000238277
-0.00125499
-0.000217632
-0.00115808
-0.00019314
-0.00102529
-0.000164306
-0.000857056
-0.000130828
-0.00065489
-9.27616e-05
-0.000422028
-5.04448e-05
-0.000163727
-4.68586e-06
0.00011517
4.6006e-05
0.000404253
9.8857e-05
0.000697432
0.000153924
0.000983989
0.000211005
0.00125353
0.000270259
0.00149538
0.000332238
0.00169869
0.000397858
0.00185273
0.000468259
0.00194736
0.00054459
0.00197368
0.000627745
0.00192495
0.00179759
-0.0005656
6.034e-05
-0.000568901
7.2059e-05
-0.000571108
8.61674e-05
-0.000572228
0.000102542
-0.00057227
0.000120988
-0.000571241
0.000141229
-0.000569149
0.000162892
-0.000565997
0.000185511
-0.000561791
0.00020854
-0.000556542
0.000231333
-0.000550262
0.000253149
-0.000542965
0.000273158
-0.00053467
0.000290445
-0.000525399
0.000304023
-0.000515179
0.000312848
-0.00050404
0.000315839
-0.000492014
0.000311909
-0.00047911
0.000299934
-0.00046543
0.000279168
-0.00045102
0.000248505
-0.000435946
0.000207245
-0.000420283
0.000154782
-0.000404115
9.07802e-05
-0.000387491
1.48381e-05
-0.000370683
-7.13544e-05
-0.000353696
-0.000168408
-0.000336787
-0.000274692
-0.000320134
-0.000388828
-0.000303938
-0.000508736
-0.000288399
-0.000631996
-0.000273716
-0.000755796
-0.000260059
-0.000876987
-0.000247555
-0.000992159
-0.000236252
-0.00109772
-0.000226081
-0.00119003
-0.000216891
-0.0012653
-0.00020835
-0.00131993
-0.000199952
-0.0013505
-0.000191046
-0.00135378
-0.000180845
-0.00132687
-0.000168499
-0.00126734
-0.000153143
-0.00117344
-0.00013398
-0.00104445
-0.000110341
-0.000880694
-8.17497e-05
-0.000683481
-4.81498e-05
-0.000455628
-9.94456e-06
-0.000201932
3.48465e-05
7.03784e-05
8.3433e-05
0.000355666
0.000135876
0.000644989
0.000191925
0.000927941
0.000251375
0.00119408
0.000314345
0.00143241
0.000381271
0.00163176
0.000452868
0.00178113
0.000529994
0.00187023
0.000613448
0.00189022
0.000703743
0.00183465
0.00170044
-0.000481069
6.37233e-05
-0.000483322
7.43119e-05
-0.000484447
8.72928e-05
-0.000484449
0.000102544
-0.00048333
0.000119869
-0.000481099
0.000138999
-0.000477767
0.00015956
-0.00047333
0.000181074
-0.000467799
0.000203009
-0.000461187
0.000224721
-0.000453508
0.000245471
-0.000444782
0.000264433
-0.000435033
0.000280696
-0.00042429
0.000293279
-0.000412587
0.000301145
-0.000399964
0.000303216
-0.000386468
0.000298414
-0.000372095
0.000285561
-0.000356985
0.000264057
-0.000341192
0.000232712
-0.000324798
0.000190852
-0.000307894
0.000137878
-0.000290522
7.34085e-05
-0.000273055
-2.62945e-06
-0.000255308
-8.91007e-05
-0.000237605
-0.000186111
-0.000220167
-0.00029213
-0.000203203
-0.000405792
-0.000186936
-0.000525002
-0.000171602
-0.000647331
-0.00015743
-0.000769967
-0.000144628
-0.000889788
-0.000133359
-0.00100343
-0.000123704
-0.00110738
-0.000115615
-0.00119812
-0.00010901
-0.00127191
-0.000103573
-0.00132536
-9.8793e-05
-0.00135528
-9.39904e-05
-0.00135859
-8.83264e-05
-0.00133253
-8.08641e-05
-0.0012748
-7.06304e-05
-0.00118367
-5.67078e-05
-0.00105837
-3.82952e-05
-0.000899107
-1.49024e-05
-0.000706874
1.46748e-05
-0.000485205
5.08322e-05
-0.00023809
9.25535e-05
2.86571e-05
0.000139154
0.000309065
0.000190936
0.000593207
0.000247605
0.000871272
0.00030897
0.00113271
0.00037509
0.00136629
0.000446268
0.00156058
0.000523002
0.0017044
0.000605866
0.00178737
0.000695319
0.00180077
0.000791517
0.00173846
0.00159783
-0.000383608
6.61231e-05
-0.000384852
7.55559e-05
-0.000384935
8.73761e-05
-0.000383856
0.000101464
-0.000381612
0.000117625
-0.00037821
0.000135597
-0.000373667
0.000155017
-0.000367971
0.000175378
-0.000361136
0.000196174
-0.000353177
0.000216761
-0.000344112
0.000236406
-0.000333966
0.000254286
-0.000322767
0.000269497
-0.00031055
0.000281063
-0.000297361
0.000287956
-0.000283251
0.000289106
-0.000268283
0.000283445
-0.000252425
0.000269703
-0.000235863
0.000247495
-0.000218662
0.000215511
-0.000200916
0.000173106
-0.000182734
0.000119695
-0.000164157
5.48314e-05
-0.000145697
-2.10895e-05
-0.000126973
-0.000107824
-0.000108454
-0.00020463
-9.03717e-05
-0.000310213
-7.29611e-05
-0.000423203
-5.64651e-05
-0.000541498
-4.11497e-05
-0.000662646
-2.72815e-05
-0.000783836
-1.51086e-05
-0.000901961
-4.8343e-06
-0.0010137
3.40598e-06
-0.00111562
9.44771e-06
-0.00120416
1.35982e-05
-0.00127606
1.61742e-05
-0.00132794
1.76026e-05
-0.00135671
1.85989e-05
-0.00135958
2.00651e-05
-0.001334
2.30516e-05
-0.00127779
2.86744e-05
-0.0011893
3.80057e-05
-0.0010677
5.20398e-05
-0.000913141
7.16068e-05
-0.000726441
9.71685e-05
-0.000510766
0.00012895
-0.000269871
0.000167582
-9.9749e-06
0.000212114
0.000264533
0.000262954
0.000542366
0.000319842
0.000814385
0.000382604
0.00106995
0.000451232
0.00129766
0.000525881
0.00148593
0.000606835
0.00162344
0.000694383
0.00169982
0.000788665
0.00170649
0.000889507
0.00163761
0.00149105
-0.000273538
6.7642e-05
-0.000273877
7.58949e-05
-0.000273021
8.65204e-05
-0.000270961
9.94039e-05
-0.000267689
0.000114353
-0.000263204
0.000131112
-0.000257542
0.000149354
-0.000250667
0.000168504
-0.000242601
0.000188109
-0.000233363
0.000207523
-0.000222974
0.000226017
-0.000211463
0.000242775
-0.000198862
0.000256896
-0.000185215
0.000267415
-0.000170572
0.000273313
-0.000155001
0.000273535
-0.000138599
0.000267043
-0.000121243
0.000252347
-0.000103218
0.000229471
-8.45769e-05
0.00019687
-6.54099e-05
0.000153939
-4.58227e-05
0.000100108
-2.58472e-05
3.4856e-05
-5.73203e-06
-4.12047e-05
1.36294e-05
-0.000127186
3.24879e-05
-0.000223488
5.09298e-05
-0.000328654
6.86067e-05
-0.000440879
8.5236e-05
-0.000558127
0.000100522
-0.000677932
0.000114171
-0.000797485
0.000125908
-0.000913699
0.000135497
-0.00102329
0.000142769
-0.00112289
0.000147677
-0.00120907
0.000150225
-0.00127861
0.000150677
-0.00132839
0.000149512
-0.00135555
0.000147418
-0.00135749
0.000145296
-0.00133187
0.000144226
-0.00127672
0.000145399
-0.00119047
0.00015002
-0.00107232
0.000159235
-0.000922356
0.000174085
-0.000741291
0.000195279
-0.000531961
0.000223328
-0.00029792
0.000258613
-4.52596e-05
0.000301021
0.000222125
0.000350614
0.000492773
0.000407288
0.000757711
0.000470885
0.00100635
0.000541322
0.00122723
0.000618613
0.00140864
0.000702824
0.00153923
0.000793976
0.00160867
0.000891907
0.00160856
0.000996147
0.00153337
0.00138139
-0.000151095
6.84585e-05
-0.000150708
7.55077e-05
-0.000149089
8.49022e-05
-0.000146221
9.65358e-05
-0.000142087
0.000110219
-0.000136671
0.000125696
-0.000130053
0.000142736
-0.000122141
0.000160592
-0.000112979
0.000178946
-0.000102588
0.000197132
-9.09931e-05
0.000214422
-7.82213e-05
0.000230003
-6.43053e-05
0.00024298
-4.92836e-05
0.000252394
-3.31932e-05
0.000257223
-1.60575e-05
0.000256399
2.19181e-06
0.000248794
2.04842e-05
0.000234055
3.96711e-05
0.000210284
5.94514e-05
0.000177089
7.96924e-05
0.000133698
0.000100221
7.95787e-05
0.000120972
1.41052e-05
0.000141419
-6.16512e-05
0.000161896
-0.000147663
0.000181923
-0.000243514
0.000201244
-0.000347976
0.000219599
-0.000459235
0.000236709
-0.000575238
0.000252277
-0.000693499
0.000265993
-0.000811201
0.000277559
-0.000925265
0.000286708
-0.00103244
0.000293233
-0.00112941
0.000297036
-0.00121287
0.000298127
-0.0012797
0.000296723
-0.00132699
0.000293264
-0.00135209
0.000288413
-0.00135264
0.000283074
-0.00132654
0.000278354
-0.001272
0.000275509
-0.00118762
0.000275846
-0.00107266
0.000280635
-0.000927145
0.000291082
-0.000751738
0.0003081
-0.000548978
0.000332423
-0.000322243
0.000364375
-7.7212e-05
0.000404407
0.000182093
0.000452424
0.000444756
0.000508428
0.000701707
0.000572268
0.000942515
0.00064379
0.0011557
0.000722869
0.00132956
0.000809363
0.00145274
0.000903039
0.00151499
0.00100346
0.00150813
0.0011099
0.00142694
0.00127006
-1.65227e-05
6.88442e-05
-1.56835e-05
7.46684e-05
-1.358e-05
8.27987e-05
-1.01847e-05
9.31406e-05
-5.50008e-06
0.000105534
5.03035e-07
0.000119693
8.09615e-06
0.000135143
1.69058e-05
0.000151783
2.69906e-05
0.000168861
3.83477e-05
0.000185775
5.09626e-05
0.000201807
6.48097e-05
0.000216156
7.98389e-05
0.000227951
9.59866e-05
0.000236246
0.000113178
0.000240031
0.000131318
0.00023826
0.000150279
0.000229833
0.000170162
0.000214172
0.000190669
0.000189776
0.000211711
0.000156048
0.000233149
0.00011226
0.000254883
5.78445e-05
0.000276543
-7.55505e-06
0.00029809
-8.3198e-05
0.000319438
-0.000169011
0.000340244
-0.000264321
0.000360236
-0.000367967
0.000379145
-0.000478143
0.000396674
-0.000592767
0.000412512
-0.000709337
0.000426334
-0.000825023
0.00043782
-0.000936751
0.000446678
-0.0010413
0.000452667
-0.0011354
0.00045565
-0.00121586
0.000455612
-0.00127966
0.000452723
-0.0013241
0.000447378
-0.00134674
0.000440208
-0.00134547
0.000432098
-0.00131843
0.000424168
-0.00126407
0.000417715
-0.00118117
0.000414133
-0.00106908
0.000414804
-0.000927816
0.000421079
-0.000758012
0.000434051
-0.000561951
0.00045463
-0.000342821
0.000483265
-0.000105847
0.000520664
0.000144694
0.000566767
0.000398653
0.000621635
0.000646838
0.000685118
0.000879033
0.000756997
0.00108383
0.000837011
0.00124955
0.000924828
0.00136492
0.00101998
0.00141984
0.00112179
0.00140633
0.00122928
0.00131944
0.00115818
0.000130607
6.91365e-05
0.000131574
7.37013e-05
0.000133857
8.05157e-05
0.000137498
8.94997e-05
0.000142532
0.000100501
0.000148987
0.000113238
0.000156788
0.000127341
0.000166033
0.000142537
0.000176682
0.000158213
0.000188707
0.00017375
0.000202077
0.000188438
0.000216747
0.000201485
0.00023266
0.000212037
0.000249744
0.000219162
0.000267916
0.00022186
0.000287076
0.000219099
0.00030711
0.000209799
0.000328009
0.000193273
0.000349561
0.000168224
0.000371642
0.000133967
0.000394089
8.98126e-05
0.000416791
3.51427e-05
0.000439356
-3.01203e-05
0.000461781
-0.000105623
0.000483884
-0.000191114
0.000505371
-0.000285807
0.000525949
-0.000388546
0.000545345
-0.000497539
0.000563252
-0.000610675
0.00057935
-0.000725434
0.000593303
-0.000838977
0.000604779
-0.000948227
0.000613466
-0.00104998
0.0006191
-0.00114104
0.000621509
-0.00121827
0.000620645
-0.0012788
0.000616636
-0.00132009
0.000609823
-0.00133993
0.000600792
-0.00133644
0.000590393
-0.00130803
0.000579735
-0.00125341
0.000570134
-0.00117157
0.000563043
-0.00106199
0.000559942
-0.000924716
0.000562303
-0.000760373
0.000571384
-0.000571032
0.00058825
-0.000359688
0.000613533
-0.00013113
0.000648089
0.000110139
0.000691947
0.000354795
0.00074522
0.000593566
0.000807754
0.000816498
0.000879275
0.0010123
0.000959398
0.00116943
0.00104761
0.0012767
0.00114325
0.00132421
0.00124539
0.00130418
0.00135289
0.00121194
0.00104681
0.000289966
0.000290601
7.30666e-05
0.000292605
7.85116e-05
0.000296034
8.6071e-05
0.00030093
9.56042e-05
0.000307321
0.000106847
0.000315186
0.000119476
0.000324571
0.000133153
0.000335456
0.000147328
0.000347816
0.00016139
0.000361614
0.00017464
0.000376801
0.000186298
0.00039331
0.000195529
0.000411057
0.000201415
0.000429951
0.000202965
0.000449887
0.000199164
0.000470735
0.000188951
0.000492445
0.000171563
0.000514827
0.000145841
0.00053774
0.000111055
0.000561008
6.65447e-05
0.000584468
1.16827e-05
0.000607793
-5.3446e-05
0.000630923
-0.000128753
0.000653637
-0.000213828
0.000675665
-0.000307834
0.000696709
-0.00040959
0.000716487
-0.000517318
0.000734689
-0.000628877
0.000750991
-0.000741735
0.000765053
-0.000853039
0.000776537
-0.000959711
0.000785121
-0.00105857
0.000790526
-0.00114644
0.000792553
-0.00122029
0.000791126
-0.00127737
0.000786326
-0.00131529
0.000778443
-0.00133204
0.000768008
-0.001326
0.000755818
-0.00129584
0.000742946
-0.00124054
0.000730702
-0.00115933
0.000720565
-0.00105185
0.000714091
-0.000918241
0.000712849
-0.000759131
0.000718241
-0.000576424
0.000731477
-0.000372924
0.000753387
-0.00015304
0.000784921
7.86039e-05
0.000826229
0.000313488
0.000877466
0.000542329
0.000938488
0.000755476
0.00100897
0.000941823
0.00108842
0.00108998
0.00117616
0.00118896
0.00127134
0.00122903
0.00137287
0.00120265
0.0014794
0.00110541
0.000936875
0.000461558
7.33054e-05
0.000462757
7.73124e-05
0.000465462
8.33664e-05
0.000469726
9.13401e-05
0.00047558
0.000100993
0.000483029
0.000112027
0.000492101
0.00012408
0.000502786
0.000136643
0.000515059
0.000149118
0.000528881
0.000160817
0.0005442
0.000170979
0.000560935
0.000178793
0.000578998
0.000183353
0.000598285
0.000183678
0.00061868
0.000178769
0.000640043
0.000167588
0.000662287
0.000149318
0.000685232
0.000122897
0.000708718
8.75684e-05
0.000732581
4.26819e-05
0.000756529
-1.22651e-05
0.000780417
-7.73346e-05
0.000804039
-0.000152375
0.000827173
-0.000236962
0.000849559
-0.00033022
0.0008709
-0.000430931
0.000890908
-0.000537326
0.000909273
-0.000647242
0.00092567
-0.000758132
0.000939763
-0.000867132
0.000951215
-0.000971163
0.000959703
-0.00106706
0.000964941
-0.00115168
0.000966717
-0.00122207
0.000964929
-0.00127558
0.000959621
-0.00130998
0.000951029
-0.00132345
0.000939623
-0.0013146
0.000926136
-0.00128235
0.000911582
-0.00122598
0.000897235
-0.00114498
0.00088457
-0.00103918
0.000875181
-0.000908853
0.000870713
-0.000754663
0.000872682
-0.000578394
0.000882434
-0.000382676
0.00090098
-0.000171585
0.000929369
5.02147e-05
0.000967859
0.000274998
0.00101666
0.000493526
0.00107565
0.000696486
0.00114446
0.000873013
0.0012225
0.00101194
0.00130897
0.00110249
0.00140284
0.00113515
0.00150287
0.00110263
0.00160756
0.00100072
0.000829239
0.000644439
7.5044e-05
0.000644227
7.75243e-05
0.00064562
8.1974e-05
0.000648679
8.82809e-05
0.000653443
9.62294e-05
0.000659932
0.000105537
0.000668168
0.000115844
0.000678146
0.000126665
0.000689841
0.000137422
0.000703214
0.000147444
0.000718208
0.000155986
0.000734736
0.000162265
0.000752699
0.00016539
0.000771983
0.000164394
0.000792459
0.000158293
0.000813978
0.000146069
0.00083642
0.000126877
0.000859601
9.97158e-05
0.000883349
6.38204e-05
0.000907472
1.85584e-05
0.000931706
-3.6499e-05
0.000955854
-0.000101483
0.000979706
-0.000176226
0.00100302
-0.000260275
0.00102553
-0.000352735
0.00104696
-0.000452353
0.00106699
-0.000557362
0.00108534
-0.000665586
0.00110167
-0.000774463
0.00111566
-0.000881122
0.00112698
-0.000982483
0.00113531
-0.00107539
0.00114038
-0.00115675
0.00114196
-0.00122365
0.00113995
-0.00127357
0.00113435
-0.00130438
0.00112536
-0.00131446
0.00111337
-0.00130261
0.00109906
-0.00126804
0.00108336
-0.00121028
0.00106747
-0.00112909
0.00105284
-0.00102455
0.00104105
-0.00089707
0.0010338
-0.000747413
0.00103269
-0.000577283
0.00103918
-0.000389166
0.00105444
-0.000186843
0.00107962
2.50332e-05
0.00111509
0.000239535
0.00116111
0.000447498
0.00121761
0.000639992
0.00128417
0.000806448
0.00136015
0.000935967
0.00144461
0.00101802
0.00153641
0.00104335
0.00163415
0.00100489
0.00173622
0.000898655
0.000724656
0.000839047
7.89757e-05
0.000836757
7.98142e-05
0.000836192
8.25388e-05
0.00083742
8.70528e-05
0.000840486
9.31629e-05
0.000845421
0.000100603
0.000852244
0.000109021
0.000860953
0.000117956
0.000871526
0.00012685
0.000883921
0.000135049
0.000898078
0.000141829
0.000913905
0.000146438
0.000931296
0.000147999
0.000950124
0.000145566
0.00097025
0.000138168
0.000991509
0.00012481
0.00101375
0.000104633
0.00103679
7.66738e-05
0.00106043
4.01862e-05
0.00108449
-5.50435e-06
0.00110867
-6.06818e-05
0.00113277
-0.000125576
0.00115654
-0.000200002
0.00117975
-0.000283479
0.00120212
-0.000375103
0.00122335
-0.000473592
0.00124317
-0.000577179
0.00126126
-0.000683676
0.00127731
-0.000790515
0.00129101
-0.000894819
0.00130204
-0.000993513
0.0013101
-0.00108345
0.00131493
-0.00116157
0.00131631
-0.00122504
0.00131413
-0.00127139
0.00130839
-0.00129864
0.00129923
-0.0013053
0.001287
-0.00129039
0.0012723
-0.00125333
0.00125595
-0.00119393
0.00123909
-0.00111223
0.00122308
-0.00100854
0.00120948
-0.000883466
0.00119996
-0.0007379
0.0011962
-0.000573518
0.00119973
-0.000392701
0.00121187
-0.000198979
0.00123386
3.04263e-06
0.00126616
0.000207234
0.00130915
0.00040451
0.00136276
0.000586384
0.00142658
0.000742624
0.00149991
0.000862642
0.00158173
0.000936205
0.00167076
0.000954316
0.00176552
0.000910134
0.00186427
0.000799899
0.000623795
0.00104484
8.58298e-05
0.00103977
8.48798e-05
0.00103658
8.57334e-05
0.00103532
8.83071e-05
0.00103606
9.24271e-05
0.00103882
9.78425e-05
0.00104363
0.000104215
0.00105048
0.000111106
0.00105935
0.000117976
0.0010702
0.000124195
0.00108298
0.000129058
0.00109757
0.000131843
0.00111387
0.000131694
0.00113175
0.000127689
0.00115105
0.000118871
0.00117159
0.000104269
0.00119319
8.30305e-05
0.00121568
5.41876e-05
0.0012388
1.70675e-05
0.00126241
-2.91228e-05
0.00128617
-8.44353e-05
0.00130985
-0.000149253
0.0013332
-0.000223356
0.00135597
-0.000306245
0.00137787
-0.000397009
0.00139862
-0.000494345
0.00141793
-0.000596485
0.00143549
-0.000701237
0.00145101
-0.00080603
0.00146417
-0.000907987
0.0014747
-0.00100404
0.00148231
-0.00109106
0.00148676
-0.00116602
0.00148786
-0.00122614
0.0014855
-0.00126904
0.00147969
-0.00129282
0.00147053
-0.00129614
0.00145833
-0.00127819
0.0014436
-0.0012386
0.00142708
-0.00117742
0.0014098
-0.00109494
0.001393
-0.000991748
0.00137819
-0.00086865
0.00136699
-0.000726701
0.00136108
-0.000567605
0.00136206
-0.000393681
0.00137134
-0.000208266
0.00139023
-1.58477e-05
0.00141935
0.00017812
0.00145912
0.000364735
0.00150954
0.000535963
0.00157022
0.000681949
0.0016404
0.000792462
0.00171901
0.000857595
0.00180469
0.00086863
0.00189586
0.000818971
0.0019907
0.000705058
0.000527238
0.00126075
0.00125222
9.34057e-05
0.00124574
9.22158e-05
0.00124137
9.26808e-05
0.00123915
9.46426e-05
0.00123913
9.78643e-05
0.00124132
0.000102023
0.00124573
0.0001067
0.00125233
0.000111378
0.00126107
0.000115449
0.0012719
0.000118231
0.00128472
0.000119027
0.0012994
0.00011701
0.00131581
0.000111281
0.00133377
0.000100906
0.00135311
8.49348e-05
0.0013736
6.2534e-05
0.00139503
3.27611e-05
0.0014173
-5.20044e-06
0.00144
-5.18257e-05
0.00146292
-0.000107356
0.00148579
-0.000172121
0.00150834
-0.00024591
0.00153031
-0.00032821
0.0015514
-0.000418103
0.00157133
-0.000514273
0.0015898
-0.000614955
0.00160652
-0.000717957
0.0016212
-0.00082071
0.00163356
-0.000920344
0.00164332
-0.0010138
0.00165025
-0.00109799
0.00165413
-0.0011699
0.00165482
-0.00122682
0.00165221
-0.00126643
0.00164631
-0.00128692
0.00163724
-0.00128707
0.00162525
-0.0012662
0.00161079
-0.00122414
0.00159451
-0.00116114
0.00157731
-0.00107774
0.00156032
-0.000974757
0.00154491
-0.000853245
0.00153265
-0.000714439
0.00152516
-0.00056012
0.00152408
-0.000392597
0.00153091
-0.000215091
0.00154686
-3.18061e-05
0.00157289
0.000152092
0.00160938
0.000328243
0.00165642
0.000488928
0.00171363
0.000624734
0.00178027
0.000725827
0.00185521
0.000782655
0.00193704
0.000786797
0.0020241
0.000731916
0.0021145
0.000614655
0.000435483
0.00147241
0.000106006
0.00146205
0.000102577
0.00145398
0.000100748
0.00144826
0.00010037
0.0014449
0.000101221
0.00144393
0.00010299
0.00144535
0.000105279
0.00144914
0.000107593
0.00145524
0.000109346
0.0014636
0.000109877
0.00147411
0.000108516
0.00148665
0.000104466
0.00150108
9.68554e-05
0.00151721
8.47753e-05
0.00153484
6.7302e-05
0.00155376
4.36106e-05
0.0015737
1.28286e-05
0.00159461
-2.61167e-05
0.00161599
-7.31983e-05
0.00163764
-0.000129012
0.00165929
-0.000193768
0.00168065
-0.000267268
0.00170142
-0.000348988
0.00172133
-0.000438011
0.00174008
-0.000533015
0.00175736
-0.000632238
0.0017729
-0.000733495
0.00178641
-0.000834227
0.00179765
-0.000931579
0.00180636
-0.00102252
0.00181235
-0.00110397
0.00181543
-0.00117299
0.0018155
-0.00122689
0.0018125
-0.00126343
0.00180646
-0.00128088
0.00179749
-0.0012781
0.00178583
-0.00125454
0.00177186
-0.00121018
0.00175615
-0.00114543
0.00173947
-0.00106106
0.00172282
-0.000958107
0.00170743
-0.000837859
0.00169474
-0.000701754
0.00168631
-0.000551687
0.00168373
-0.000390013
0.00168853
-0.000219891
0.00170194
-4.5222e-05
0.00172505
0.000128987
0.00175831
0.000294985
0.00180187
0.000445364
0.00185542
0.000571183
0.00191821
0.000663034
0.00198912
0.000711747
0.00206669
0.000709225
0.00214921
0.000649399
0.00223474
0.000529129
0.000348945
0.00169788
0.000123157
0.00168317
0.000117279
0.00167096
0.00011296
0.00166127
0.000110058
0.00165414
0.000108359
0.00164956
0.000107565
0.00164755
0.000107294
0.00164806
0.000107074
0.00165107
0.000106344
0.00165648
0.000104463
0.00166422
0.000100778
0.00167415
9.45339e-05
0.00168612
8.48837e-05
0.00169995
7.0948e-05
0.00171542
5.18321e-05
0.00173224
2.67865e-05
0.00175039
-5.31705e-06
0.0017694
-4.51313e-05
0.00178902
-9.28196e-05
0.00180899
-0.000148979
0.001829
-0.000213779
0.00184876
-0.000287024
0.00186796
-0.000368186
0.0018863
-0.000456351
0.00190348
-0.000550197
0.00191921
-0.00064797
0.00193321
-0.000747499
0.00194523
-0.00084624
0.00195501
-0.000941365
0.00196236
-0.00102987
0.00196711
-0.00110872
0.00196913
-0.00117501
0.00196836
-0.00122612
0.00196479
-0.00125986
0.00195848
-0.00127457
0.00194956
-0.00126918
0.00193827
-0.00124325
0.00192493
-0.00119684
0.00191004
-0.00113054
0.00189425
-0.00104526
0.00187842
-0.000942274
0.00186362
-0.00082306
0.00185114
-0.000689273
0.00184241
-0.000542954
0.00183894
-0.000386547
0.00184223
-0.000223183
0.00185359
-5.65832e-05
0.00187406
0.000108517
0.00190426
0.000264792
0.00194438
0.000405238
0.00199418
0.000521382
0.00205295
0.000604267
0.00211957
0.000645131
0.00219257
0.000636222
0.00227021
0.000571756
0.00235051
0.000448834
0.000268001
0.00192532
0.000145124
0.00190601
0.00013659
0.00188938
0.000129591
0.00187545
0.000123986
0.00186424
0.000119567
0.00185576
0.000116047
0.00185
0.000113059
0.00184692
0.00011015
0.00184648
0.000106784
0.0018486
0.000102343
0.00185319
9.61863e-05
0.00186013
8.75986e-05
0.00186925
7.5762e-05
0.00188036
5.98322e-05
0.00189328
3.89151e-05
0.00190763
1.24386e-05
0.00192349
-2.11757e-05
0.00194024
-6.18787e-05
0.00195769
-0.000110277
0.00197557
-0.000166855
0.00199355
-0.000231757
0.00201131
-0.000304788
0.00202854
-0.00038542
0.00204494
-0.000472745
0.00206019
-0.000565447
0.002074
-0.000661787
0.00208612
-0.00075961
0.00209628
-0.000856401
0.00210428
-0.000949364
0.00210994
-0.00103553
0.00211315
-0.00111193
0.00211383
-0.00117569
0.00211197
-0.00122426
0.00210763
-0.00125551
0.00210089
-0.00126783
0.00209194
-0.00126023
0.00208099
-0.0012323
0.00206836
-0.00118421
0.00205446
-0.00111664
0.00203985
-0.00103065
0.00202523
-0.000927658
0.00201152
-0.000809351
0.00199984
-0.000677585
0.00199144
-0.000534556
0.00198773
-0.000382841
0.00199012
-0.000225575
0.00199995
-6.64139e-05
0.00201821
9.02655e-05
0.00204562
0.000237379
0.00208246
0.000368396
0.00212855
0.000475298
0.00218322
0.000549595
0.00224539
0.000582955
0.00231362
0.000567994
0.00238614
0.000499234
0.00246095
0.000374024
0.00253589
0.000193069
-3.89733e-05
0.00215067
0.00212674
0.000160523
0.00210565
0.000150676
0.00208742
0.000142214
0.00207206
0.00013493
0.00205956
0.000128546
0.00204991