/*--------------------------------*- C++ -*----------------------------------*\
  =========                 |
  \\      /  F ield         | OpenFOAM: The Open Source CFD Toolbox
   \\    /   O peration     | Website:  https://openfoam.org
    \\  /    A nd           | Version:  7
     \\/     M anipulation  |
\*---------------------------------------------------------------------------*/
FoamFile
{
    version     2.0;
    format      ascii;
    class       volVectorField;
    location    "55";
    object      U;
}
// * * * * * * * * * * * * * * * * * * * * * * * * * * * * * * * * * * * * * //

dimensions      [0 1 -1 0 0 0 0];

internalField   nonuniform List<vector> 
1987
(
(0.125777 -6.97394e-06 -6.72824e-23)
(0.13911 0.000989183 2.1424e-22)
(0.152421 0.0019133 -2.30497e-23)
(0.165684 0.0027353 -2.52942e-22)
(0.178879 0.0034299 9.86948e-23)
(0.191986 0.0039718 3.47008e-23)
(0.204987 0.00434138 -2.10574e-23)
(0.217866 0.0045241 2.13541e-23)
(0.230608 0.00451617 1.31876e-22)
(0.243199 0.00431383 -1.43585e-23)
(0.255626 0.00392783 -1.2814e-22)
(0.267877 0.0033684 2.46712e-23)
(0.279942 0.00265711 2.45785e-23)
(0.291812 0.00182057 5.0797e-23)
(0.303478 0.000887413 -1.93773e-24)
(0.31493 -0.000105631 -1.06983e-23)
(0.326163 -0.00112154 -7.56714e-23)
(0.337169 -0.00212234 1.34469e-23)
(0.347946 -0.00307 7.18828e-23)
(0.35849 -0.00392878 -7.20483e-23)
(0.368804 -0.00466564 4.45189e-23)
(0.378887 -0.00525311 1.24172e-23)
(0.388746 -0.00566885 -2.76154e-23)
(0.398386 -0.00589737 1.79797e-23)
(0.407816 -0.00593114 1.26658e-23)
(0.417045 -0.00577018 -3.98446e-23)
(0.426082 -0.00542315 4.27928e-23)
(0.434936 -0.00490561 -4.63768e-24)
(0.443616 -0.00424161 6.65817e-24)
(0.452133 -0.00346009 7.64807e-24)
(0.460486 -0.00259688 -1.3667e-23)
(0.468695 -0.00168823 -1.27349e-23)
(0.476743 -0.000776886 9.47308e-24)
(0.48467 0.000101103 1.7833e-23)
(0.492426 0.000902811 4.44078e-24)
(0.500098 0.00160058 -1.02601e-23)
(0.507574 0.00215838 -7.78186e-24)
(0.515023 0.0025638 4.77676e-24)
(0.522225 0.00279297 4.75136e-24)
(0.529494 0.00285284 -3.78582e-24)
(0.536422 0.00273597 1.11047e-23)
(0.543563 0.00246616 -2.47959e-25)
(0.550199 0.00205736 6.70143e-24)
(0.557276 0.00153909 -6.47766e-24)
(0.56358 0.000951858 -6.95151e-24)
(0.570674 0.000312164 -7.99451e-24)
(0.576576 -0.000305511 -1.48273e-24)
(0.583801 -0.000922027 1.95024e-24)
(0.5892 -0.00142438 6.00325e-24)
(0.596717 -0.00188572 5.51426e-24)
(0.601474 -0.00216902 -1.34951e-24)
(0.60951 -0.00237801 -1.39425e-24)
(0.613435 -0.00241579 6.29126e-25)
(0.622302 -0.00231583 1.08003e-24)
(0.625135 -0.00217965 9.06685e-25)
(0.635231 -0.00174331 -6.89814e-26)
(0.636635 -0.00159268 2.37705e-25)
(0.648443 -0.000801076 7.83655e-25)
(0.129989 -0.00351641 6.14061e-23)
(0.143234 -0.00247607 -4.38742e-22)
(0.156476 -0.0015019 2.50621e-22)
(0.169692 -0.000624802 7.90487e-22)
(0.182863 0.000129514 -9.42129e-22)
(0.195968 0.000735606 2.17689e-22)
(0.208987 0.00117421 -7.22623e-24)
(0.221903 0.00143402 2.07702e-22)
(0.234699 0.0014949 -3.50873e-22)
(0.247355 0.00136573 1.13158e-22)
(0.259855 0.00104634 3.12532e-22)
(0.272182 0.000561512 -2.16009e-22)
(0.284322 -7.22755e-05 2.47537e-22)
(0.296259 -0.000829669 -8.1083e-23)
(0.30798 -0.00168255 -1.02032e-23)
(0.319471 -0.00259474 2.34318e-23)
(0.330721 -0.00352973 2.20053e-23)
(0.34172 -0.00444976 1.04103e-22)
(0.352464 -0.00531755 -7.63436e-23)
(0.362947 -0.00609795 -1.45868e-23)
(0.373171 -0.0067584 7.95606e-23)
(0.383136 -0.00727162 -1.40029e-22)
(0.392852 -0.00761613 6.44681e-23)
(0.402326 -0.00777645 -6.34866e-23)
(0.411573 -0.00774573 6.10741e-23)
(0.420602 -0.00752346 5.10019e-23)
(0.429433 -0.00711902 -7.38561e-23)
(0.438077 -0.0065469 8.81671e-23)
(0.44655 -0.00583214 -7.00644e-24)
(0.454868 -0.00500171 -6.59918e-23)
(0.463036 -0.00409317 9.8546e-23)
(0.471079 -0.00314018 -2.02094e-23)
(0.478983 -0.00218807 3.10025e-23)
(0.486792 -0.00126904 2.59977e-23)
(0.494457 -0.000430467 -3.83631e-23)
(0.502063 0.000306229 9.9776e-23)
(0.509502 0.000896722 -3.63404e-23)
(0.516936 0.00133869 -9.4026e-24)
(0.524146 0.00159715 1.68354e-23)
(0.531438 0.00169231 1.76373e-23)
(0.538403 0.001601 -1.62815e-23)
(0.545586 0.00136629 -3.03667e-23)
(0.552269 0.000979068 -2.04509e-23)
(0.559386 0.000496937 2.02696e-23)
(0.565726 -7.31006e-05 9.30009e-24)
(0.572842 -0.000674928 -1.15106e-24)
(0.578752 -0.00128072 1.75089e-23)
(0.585967 -0.00185691 -1.12497e-23)
(0.59134 -0.00235464 -1.44136e-23)
(0.598811 -0.00277299 -9.75251e-24)
(0.603509 -0.00306104 -1.52838e-24)
(0.611467 -0.0032242 1.0155e-24)
(0.615311 -0.00327767 1.38607e-24)
(0.624075 -0.00312928 -1.35168e-24)
(0.626825 -0.00301921 -6.48154e-25)
(0.636803 -0.00253487 -1.41182e-24)
(0.63815 -0.00241366 -1.90274e-24)
(0.649826 -0.00159046 -4.20291e-25)
(0.13916 -0.00699963 -1.13587e-21)
(0.152262 -0.00592168 -1.12237e-21)
(0.165375 -0.00490252 2.20806e-22)
(0.178482 -0.00397326 6.06006e-22)
(0.191563 -0.00316424 -1.42492e-22)
(0.204596 -0.0024998 1.07982e-22)
(0.217563 -0.00199923 -1.03093e-22)
(0.230442 -0.00167419 -4.26799e-22)
(0.243213 -0.0015446 4.93625e-22)
(0.255855 -0.00160173 -2.71506e-22)
(0.268349 -0.00184637 -3.26029e-22)
(0.280674 -0.00225387 3.86681e-22)
(0.292809 -0.00280813 -2.04794e-22)
(0.304733 -0.00348458 -2.62426e-22)
(0.316429 -0.00425313 -1.45678e-23)
(0.327878 -0.00508002 -1.19715e-22)
(0.339067 -0.00592935 1.26971e-22)
(0.349981 -0.00676369 -3.8769e-23)
(0.360615 -0.00754658 4.27471e-23)
(0.370961 -0.00824324 -1.30464e-22)
(0.381021 -0.0088223 1.56449e-22)
(0.390796 -0.00925678 -5.08714e-23)
(0.400298 -0.00952619 -1.75526e-22)
(0.409536 -0.00961521 2.16804e-22)
(0.418529 -0.00951778 -1.36447e-22)
(0.427293 -0.00923297 -6.25291e-23)
(0.435849 -0.00877094 6.90438e-23)
(0.444217 -0.00814509 9.01761e-24)
(0.452418 -0.00738136 -1.94123e-22)
(0.460472 -0.0065048 1.83018e-22)
(0.468393 -0.00555452 -1.12535e-22)
(0.476206 -0.00456124 5.99083e-23)
(0.483904 -0.00357293 4.86237e-23)
(0.491532 -0.0026177 -6.66463e-23)
(0.499045 -0.00174702 2.76423e-23)
(0.506525 -0.000976445 -5.1926e-23)
(0.513866 -0.000357053 -8.23592e-24)
(0.521226 0.000117965 -1.37083e-23)
(0.528387 0.000402623 3.12605e-23)
(0.535644 0.000530656 2.90235e-23)
(0.542591 0.000463486 2.69513e-25)
(0.54976 0.000263775 2.27404e-23)
(0.556437 -0.000102414 -1.59329e-23)
(0.563541 -0.000547833 4.28323e-23)
(0.569868 -0.00109912 -3.94115e-23)
(0.576952 -0.00166123 5.26264e-23)
(0.582827 -0.00225289 7.81593e-24)
(0.589981 -0.00278646 -2.11712e-23)
(0.595288 -0.00327716 4.14983e-24)
(0.602663 -0.00365045 -7.90456e-24)
(0.607266 -0.0039412 6.63991e-24)
(0.615096 -0.00405732 -1.07707e-23)
(0.61883 -0.00412506 -9.03462e-24)
(0.627439 -0.00392839 -7.82745e-25)
(0.630085 -0.00384359 -5.70335e-24)
(0.639885 -0.00331307 3.10119e-24)
(0.641164 -0.00322072 2.4724e-24)
(0.652638 -0.00236964 -5.71072e-25)
(0.153138 -0.0104417 -3.37917e-22)
(0.166041 -0.00932829 -4.93197e-22)
(0.178969 -0.00826846 6.09507e-24)
(0.191905 -0.00729455 -1.10789e-21)
(0.204829 -0.00643671 5.84145e-22)
(0.217722 -0.00571977 3.38473e-22)
(0.230565 -0.00516395 1.0792e-22)
(0.243333 -0.00478461 2.94398e-22)
(0.256005 -0.0045859 -7.90231e-22)
(0.268558 -0.00457214 -2.69722e-22)
(0.280968 -0.0047337 3.7588e-23)
(0.29321 -0.00506095 9.26523e-22)
(0.30526 -0.00553321 -2.19192e-22)
(0.317091 -0.00612528 2.72108e-22)
(0.328683 -0.00680688 2.6403e-22)
(0.340012 -0.00754514 -4.0645e-22)
(0.351063 -0.0083047 2.00584e-22)
(0.361817 -0.00904885 -2.17823e-22)
(0.372267 -0.00974213 3.29721e-22)
(0.382404 -0.0103505 3.12063e-22)
(0.39223 -0.0108437 -1.8842e-22)
(0.401747 -0.0111954 -5.05668e-23)
(0.410968 -0.0113863 -3.00691e-23)
(0.419905 -0.0114014 -1.5653e-22)
(0.428582 -0.0112354 1.72536e-22)
(0.437016 -0.0108872 4.24063e-23)
(0.445237 -0.0103676 1.01178e-22)
(0.453268 -0.00968915 -2.54161e-22)
(0.461137 -0.0088785 1.88678e-22)
(0.468868 -0.00795879 -1.23637e-22)
(0.476481 -0.00697045 -6.30062e-23)
(0.484005 -0.00594123 -7.5921e-23)
(0.491439 -0.00492145 4.77629e-23)
(0.498826 -0.00393497 6.59137e-23)
(0.506129 -0.00303723 8.97801e-24)
(0.513425 -0.00223807 1.69109e-23)
(0.520611 -0.00159384 3.20316e-23)
(0.527839 -0.00108996 -4.43389e-23)
(0.534893 -0.000782252 5.7342e-23)
(0.542058 -0.000623838 -3.88959e-23)
(0.548933 -0.000668664 -4.15141e-23)
(0.556033 -0.000835038 4.22848e-23)
(0.562653 -0.00117959 9.97059e-25)
(0.56969 -0.00158793 9.91053e-24)
(0.575955 -0.00211914 -3.36521e-23)
(0.582957 -0.00264004 -6.05707e-24)
(0.588752 -0.00321559 -4.95512e-23)
(0.595795 -0.00370465 4.02906e-23)
(0.600997 -0.00418611 1.90252e-23)
(0.608228 -0.00451269 -2.64734e-24)
(0.612704 -0.00480417 5.26512e-24)
(0.620357 -0.00487249 9.598e-24)
(0.623954 -0.00495302 -2.80349e-24)
(0.632356 -0.00470871 8.43281e-24)
(0.63488 -0.00464814 8.29288e-24)
(0.644444 -0.0040738 -1.53721e-24)
(0.645646 -0.00400943 -8.26922e-25)
(0.656853 -0.00313465 -3.35924e-24)
(0.171692 -0.0138296 -1.33835e-21)
(0.184345 -0.0126829 1.69191e-21)
(0.197031 -0.0115859 -1.19827e-21)
(0.209735 -0.0105708 8.29495e-23)
(0.22244 -0.0096671 1.5735e-21)
(0.235127 -0.00889986 -7.36393e-22)
(0.247775 -0.00828925 -6.2585e-22)
(0.260361 -0.00785022 4.23644e-22)
(0.272861 -0.00758726 1.15597e-22)
(0.285249 -0.00750339 1.76745e-22)
(0.297499 -0.00759101 4.19464e-22)
(0.309581 -0.00783975 -2.73853e-22)
(0.321468 -0.00822952 -3.8568e-22)
(0.33313 -0.00873537 -1.57799e-22)
(0.344541 -0.00932786 -3.86732e-22)
(0.355676 -0.00997446 5.7723e-22)
(0.366515 -0.0106407 -6.67613e-22)
(0.377038 -0.0112908 4.35397e-22)
(0.387235 -0.0118903 -1.70556e-22)
(0.397096 -0.0124063 1.76388e-23)
(0.406624 -0.0128099 -1.37689e-22)
(0.41582 -0.0130755 1.02661e-22)
(0.4247 -0.013185 -2.83022e-22)
(0.433277 -0.0131238 4.25942e-22)
(0.44158 -0.0128878 -1.98522e-22)
(0.44963 -0.0124756 -2.63085e-22)
(0.457461 -0.0118989 -4.90127e-23)
(0.465101 -0.0111691 1.8053e-22)
(0.472583 -0.0103138 -3.13889e-22)
(0.479938 -0.00935397 1.16787e-22)
(0.487189 -0.00833137 1.57228e-23)
(0.49437 -0.00727065 2.4833e-23)
(0.501485 -0.00622423 -5.45974e-23)
(0.508577 -0.00521157 -3.57438e-23)
(0.515614 -0.00429187 -1.38418e-23)
(0.52267 -0.00346875 -3.06328e-23)
(0.529648 -0.00280464 -2.84096e-23)
(0.536687 -0.00227637 1.03348e-22)
(0.543582 -0.00194896 -6.73444e-23)
(0.550599 -0.00176291 -1.75599e-23)
(0.55735 -0.00178739 -3.30445e-23)
(0.564325 -0.00192237 9.20783e-23)
(0.570838 -0.00224491 -6.05357e-23)
(0.577756 -0.00261591 2.72323e-24)
(0.583913 -0.00312621 3.25407e-23)
(0.590783 -0.00360487 -1.60848e-23)
(0.596457 -0.00416257 8.94766e-24)
(0.603342 -0.00460569 2.35268e-24)
(0.608402 -0.00507586 -2.13154e-23)
(0.615443 -0.00535454 3.01581e-23)
(0.61976 -0.00564488 -1.98847e-23)
(0.62719 -0.00566508 -2.79114e-23)
(0.630626 -0.0057569 2.3281e-23)
(0.638773 -0.00546606 -1.89935e-23)
(0.641157 -0.00542847 7.00127e-24)
(0.650433 -0.00481321 3.95228e-24)
(0.651549 -0.0047756 7.21019e-24)
(0.662426 -0.00388171 4.5559e-24)
(0.194526 -0.017151 -2.32828e-21)
(0.206879 -0.015973 3.49782e-21)
(0.219269 -0.0148412 -3.82378e-21)
(0.231685 -0.0137873 2.51477e-21)
(0.24411 -0.0128404 -6.84601e-22)
(0.256527 -0.0120255 5.87428e-22)
(0.268915 -0.0113623 -1.41955e-21)
(0.28125 -0.0108651 5.91269e-22)
(0.293507 -0.0105398 -3.11986e-22)
(0.305657 -0.0103883 -3.19134e-23)
(0.317673 -0.0104035 1.83397e-22)
(0.329522 -0.0105742 7.07376e-22)
(0.341172 -0.010881 -8.51819e-22)
(0.352591 -0.0112994 -9.16878e-23)
(0.36375 -0.0118008 4.47989e-23)
(0.374621 -0.0123532 -5.58742e-23)
(0.38518 -0.0129231 -4.72347e-22)
(0.395406 -0.0134759 4.8548e-22)
(0.405286 -0.0139784 -7.54318e-23)
(0.414811 -0.0143987 2.09304e-22)
(0.423981 -0.0147094 -1.3885e-22)
(0.432801 -0.014886 -9.09695e-23)
(0.441286 -0.0149117 -9.64119e-23)
(0.449453 -0.0147725 -9.42973e-23)
(0.457333 -0.0144654 3.15829e-22)
(0.46495 -0.013989 -1.94163e-23)
(0.472344 -0.0133558 -1.8969e-22)
(0.479545 -0.0125762 -4.23113e-23)
(0.486595 -0.0116785 9.74824e-23)
(0.493526 -0.0106818 5.73878e-24)
(0.500369 -0.00962873 1.50895e-22)
(0.507159 -0.00854094 4.26116e-24)
(0.513907 -0.00747267 2.74619e-22)
(0.520654 -0.00643893 -2.81865e-22)
(0.527377 -0.00550235 1.72337e-22)
(0.534141 -0.0046602 3.226e-23)
(0.540858 -0.00398093 2.21746e-23)
(0.547657 -0.00343235 -1.06579e-22)
(0.554341 -0.00308887 6.64963e-24)
(0.561159 -0.00287831 -4.36932e-23)
(0.567735 -0.00288452 -1.85842e-23)
(0.574536 -0.00298906 -1.55687e-22)
(0.580893 -0.00329088 6.30811e-23)
(0.587642 -0.00362486 1.00922e-23)
(0.593648 -0.00411369 8.7623e-24)
(0.600339 -0.00454947 -3.916e-23)
(0.605851 -0.00508788 -2.18543e-23)
(0.612534 -0.00548403 2.63891e-23)
(0.617418 -0.00594113 -1.59945e-24)
(0.624227 -0.00617116 -4.22734e-23)
(0.628357 -0.00645857 2.16783e-23)
(0.635522 -0.00643081 1.17515e-23)
(0.638775 -0.00653236 -3.65524e-23)
(0.646622 -0.00619654 1.14319e-23)
(0.648851 -0.00618051 -1.5498e-23)
(0.65779 -0.00552768 -3.41891e-24)
(0.658812 -0.00551532 -1.14102e-23)
(0.669302 -0.0046072 1.04204e-24)
(0.221282 -0.020394 2.02568e-21)
(0.233289 -0.019186 1.4916e-22)
(0.245334 -0.0180209 -1.98254e-21)
(0.257408 -0.0169302 -4.75115e-22)
(0.269497 -0.0159426 1.32268e-21)
(0.281584 -0.0150825 -9.1075e-22)
(0.293649 -0.0143691 1.40477e-21)
(0.305668 -0.0138165 -8.66115e-22)
(0.317615 -0.0134305 2.28809e-22)
(0.32946 -0.0132126 1.35132e-21)
(0.341173 -0.0131559 -2.01732e-21)
(0.352718 -0.0132487 3.69533e-22)
(0.364063 -0.0134721 9.30455e-22)
(0.375172 -0.0138023 -1.17054e-21)
(0.386013 -0.0142111 -8.8593e-23)
(0.396554 -0.0146674 5.60659e-22)
(0.406771 -0.0151389 -5.44176e-23)
(0.416639 -0.0155918 5.8945e-23)
(0.426146 -0.0159947 6.02898e-22)
(0.43528 -0.0163167 1.29897e-22)
(0.444043 -0.0165321 -1.49113e-22)
(0.452438 -0.0166175 3.9869e-22)
(0.460484 -0.0165576 -2.4974e-22)
(0.468197 -0.0163391 2.04371e-23)
(0.475612 -0.0159603 1.63827e-23)
(0.482756 -0.0154197 1.41595e-22)
(0.489674 -0.0147308 -1.62017e-23)
(0.496399 -0.0139029 -5.67621e-23)
(0.502978 -0.0129652 -1.28394e-22)
(0.509446 -0.0119347 -1.19493e-22)
(0.515841 -0.0108551 3.15365e-22)
(0.522199 -0.00974455 -8.46167e-23)
(0.528538 -0.00865915 -7.09864e-23)
(0.534898 -0.00760934 3.21975e-23)
(0.541261 -0.00666086 -2.74467e-23)
(0.547689 -0.00580469 1.03827e-22)
(0.5541 -0.00511481 -2.2108e-22)
(0.560611 -0.00455015 6.39597e-23)
(0.567037 -0.00419425 1.11869e-22)
(0.573607 -0.00396238 -4.38523e-23)
(0.579961 -0.00395257 -1.4872e-23)
(0.58654 -0.00402847 -1.9744e-23)
(0.592697 -0.00431059 -3.5144e-23)
(0.599232 -0.00460821 -6.25478e-23)
(0.605044 -0.00507525 4.0573e-23)
(0.611513 -0.00546793 5.29601e-23)
(0.616827 -0.00598589 5.5397e-23)
(0.623268 -0.00633453 -4.87445e-23)
(0.627944 -0.00677697 4.41049e-23)
(0.634482 -0.00695806 1.17686e-23)
(0.638401 -0.0072409 -3.26363e-23)
(0.645262 -0.00716574 1.14584e-23)
(0.648312 -0.00727545 1.20825e-23)
(0.65582 -0.00689663 -1.34105e-23)
(0.65788 -0.00690054 1.53761e-24)
(0.666437 -0.0062139 -3.51318e-24)
(0.66736 -0.006225 2.3947e-24)
(0.67741 -0.00530781 1.98703e-25)
(0.25156 -0.0235472 -3.26813e-21)
(0.263177 -0.0223096 3.4173e-21)
(0.274831 -0.0211123 -2.18877e-21)
(0.286514 -0.0199864 1.08187e-21)
(0.298214 -0.0189598 -1.58153e-21)
(0.309916 -0.0180564 5.14703e-22)
(0.3216 -0.017295 7.76284e-23)
(0.333243 -0.0166888 1.57595e-22)
(0.344818 -0.0162439 -4.36433e-22)
(0.356295 -0.0159608 1.62747e-21)
(0.367641 -0.015833 -4.70862e-22)
(0.37882 -0.0158484 -3.42411e-23)
(0.389796 -0.0159886 -1.69846e-21)
(0.400532 -0.0162301 2.12462e-21)
(0.410993 -0.0165455 -4.8587e-22)
(0.421147 -0.0169046 2.55847e-22)
(0.430966 -0.0172761 -6.92504e-23)
(0.440424 -0.0176276 -1.45629e-21)
(0.449508 -0.017929 9.31382e-22)
(0.458205 -0.0181509 -5.87124e-23)
(0.466517 -0.0182693 4.12803e-22)
(0.474448 -0.0182619 1.52168e-23)
(0.482016 -0.0181152 -5.81232e-22)
(0.489241 -0.0178167 -1.25374e-22)
(0.496158 -0.0173659 -1.40694e-22)
(0.502799 -0.0167615 2.23902e-22)
(0.50921 -0.0160178 -2.34588e-22)
(0.515429 -0.0151434 1.7843e-23)
(0.521508 -0.0141681 1.19662e-22)
(0.527482 -0.0131069 -1.01758e-22)
(0.533398 -0.0120042 3.01877e-22)
(0.539291 -0.0108751 -3.15646e-22)
(0.545187 -0.00977712 -8.18602e-24)
(0.551123 -0.00871605 -6.78976e-23)
(0.55709 -0.00776051 2.00316e-22)
(0.563141 -0.00689516 -3.1692e-23)
(0.569206 -0.00619917 4.45415e-23)
(0.575387 -0.0056227 -1.72368e-22)
(0.581512 -0.00525801 3.9575e-23)
(0.587791 -0.00500808 1.34263e-22)
(0.593882 -0.00498466 1.74294e-22)
(0.600194 -0.00503404 -3.13295e-23)
(0.606111 -0.00529755 -5.43254e-23)
(0.61239 -0.00555979 1.9735e-23)
(0.617971 -0.006005 1.20865e-23)
(0.624178 -0.00635477 -8.91107e-23)
(0.629261 -0.00685143 5.12634e-23)
(0.635422 -0.00715244 1.73056e-24)
(0.639864 -0.00757889 -6.60314e-23)
(0.646097 -0.00771119 3.03317e-23)
(0.649781 -0.00798795 3.67278e-23)
(0.656306 -0.00786637 3.47187e-23)
(0.659137 -0.00798266 1.08251e-24)
(0.666271 -0.00756321 2.26243e-23)
(0.668152 -0.00758528 6.10252e-24)
(0.676287 -0.00686893 -1.67951e-24)
(0.677107 -0.00690145 6.40153e-24)
(0.68667 -0.00598046 2.8468e-25)
(0.284924 -0.0266 -1.79143e-21)
(0.296113 -0.0253325 2.35211e-21)
(0.307333 -0.0241035 -2.82307e-21)
(0.31858 -0.0229432 1.69204e-21)
(0.329843 -0.0218789 -5.42616e-22)
(0.341109 -0.0209338 -1.04322e-21)
(0.352359 -0.0201259 2.26888e-21)
(0.363572 -0.019468 -5.54745e-22)
(0.374719 -0.0189655 -1.49842e-22)
(0.385769 -0.0186187 1.35801e-21)
(0.396691 -0.0184208 -6.11975e-24)
(0.407445 -0.0183597 -1.78951e-21)
(0.417995 -0.0184172 9.0383e-22)
(0.428303 -0.0185701 7.46311e-22)
(0.438331 -0.018792 -6.32129e-22)
(0.448045 -0.0190534 6.44513e-22)
(0.457417 -0.0193243 -3.49358e-22)
(0.46642 -0.0195735 -1.12253e-21)
(0.475039 -0.0197724 1.04451e-22)
(0.483261 -0.0198933 8.71074e-22)
(0.491087 -0.0199137 -6.34489e-23)
(0.49852 -0.0198129 -5.38548e-22)
(0.505583 -0.0195788 -5.37391e-23)
(0.512293 -0.0191999 4.25344e-22)
(0.51869 -0.0186773 2.85447e-22)
(0.524804 -0.0180097 1.69517e-22)
(0.530688 -0.0172124 3.83059e-22)
(0.53638 -0.0162933 -2.39345e-22)
(0.541937 -0.0152827 -3.46943e-23)
(0.547396 -0.0141937 1.47553e-22)
(0.55281 -0.0130713 -1.81123e-22)
(0.558213 -0.0119276 3.10725e-22)
(0.56364 -0.0108212 -3.85058e-22)
(0.569124 -0.00975344 3.39584e-23)
(0.574664 -0.0087954 -8.88951e-23)
(0.580306 -0.00792549 2.10642e-22)
(0.58599 -0.00722771 -1.511e-23)
(0.591806 -0.00664361 -2.47851e-23)
(0.597594 -0.00627369 -1.44905e-22)
(0.603544 -0.006009 2.22905e-23)
(0.609333 -0.00597447 -1.16108e-22)
(0.615341 -0.00599959 -6.51188e-23)
(0.620981 -0.00624578 1.50869e-22)
(0.626965 -0.00647392 -2.40643e-23)
(0.632282 -0.00689755 3.70038e-24)
(0.638192 -0.007205 2.61923e-23)
(0.643016 -0.00767979 7.60862e-23)
(0.648865 -0.00793351 -1.38922e-23)
(0.653049 -0.00834288 1.14341e-22)
(0.658946 -0.00842697 -5.43979e-23)
(0.662379 -0.00869628 1.67143e-23)
(0.668538 -0.00852967 -1.70451e-23)
(0.671137 -0.00865094 -1.53909e-23)
(0.677867 -0.00819356 -2.36013e-24)
(0.679562 -0.00823186 1.31625e-23)
(0.687242 -0.00749019 1.53496e-23)
(0.687956 -0.00754185 -8.49413e-25)
(0.696992 -0.00662241 5.84641e-24)
(0.320918 -0.0295423 -1.23046e-22)
(0.331642 -0.0282444 2.97137e-21)
(0.34239 -0.0269835 -4.88434e-22)
(0.35316 -0.0257892 -1.25529e-21)
(0.363943 -0.0246881 -9.3874e-22)
(0.374728 -0.0237023 1.95258e-21)
(0.385497 -0.0228494 -1.31771e-21)
(0.39623 -0.0221411 3.1669e-22)
(0.406898 -0.0215826 -1.38303e-22)
(0.417472 -0.0211734 -3.02791e-22)
(0.427917 -0.0209068 1.6e-22)
(0.438196 -0.0207703 -4.3653e-22)
(0.44827 -0.020746 -1.25696e-21)
(0.4581 -0.0208111 7.14723e-22)
(0.467648 -0.02094 9.72494e-22)
(0.476878 -0.021104 -5.89313e-22)
(0.485762 -0.0212744 -2.89181e-22)
(0.494271 -0.0214212 -5.9433e-22)
(0.50239 -0.0215177 -1.47592e-23)
(0.510105 -0.0215374 3.33287e-22)
(0.517418 -0.0214597 1.95003e-22)
(0.524331 -0.0212653 8.00666e-22)
(0.530867 -0.0209439 -9.92681e-22)
(0.537045 -0.0204851 -1.5055e-22)
(0.542906 -0.0198912 2.05596e-23)
(0.54848 -0.0191613 1.2697e-22)
(0.553825 -0.0183118 1.36747e-22)
(0.558978 -0.0173496 1.38318e-22)
(0.564001 -0.0163059 3.84224e-22)
(0.568932 -0.0151918 -1.50113e-22)
(0.57383 -0.014053 -2.95685e-22)
(0.578727 -0.0128983 2.54381e-22)
(0.583667 -0.0117874 -2.15678e-23)
(0.588677 -0.0107171 1.39527e-22)
(0.593767 -0.00976075 -1.21553e-22)
(0.598975 -0.00889062 2.2173e-23)
(0.604251 -0.00819509 -9.0384e-23)
(0.609671 -0.00760736 1.20752e-22)
(0.615093 -0.00723564 -1.24303e-22)
(0.620681 -0.00695948 2.80342e-22)
(0.626137 -0.00691633 -9.10564e-23)
(0.631807 -0.0069196 -6.29315e-23)
(0.637138 -0.00714994 2.46089e-23)
(0.642797 -0.00734554 -8.14963e-23)
(0.647821 -0.00774809 -5.8994e-23)
(0.653404 -0.0080142 -1.17357e-22)
(0.657942 -0.00846684 -1.17629e-22)
(0.663453 -0.008674 2.9526e-23)
(0.667359 -0.00906546 -3.80632e-23)
(0.672896 -0.00910234 -3.16493e-23)
(0.676063 -0.00936296 1.22448e-23)
(0.681832 -0.00915306 -6.77056e-23)
(0.684192 -0.00927772 8.80088e-25)
(0.690492 -0.00878544 -1.27382e-23)
(0.691997 -0.00883791 1.00233e-24)
(0.699193 -0.00807549 -9.87242e-25)
(0.6998 -0.00814387 -4.04984e-24)
(0.708277 -0.00723129 -1.42846e-24)
(0.359077 -0.032365 8.15287e-21)
(0.369303 -0.0310356 -5.04084e-21)
(0.379544 -0.0297424 -4.64943e-22)
(0.389799 -0.0285142 9.77175e-22)
(0.400064 -0.0273766 -1.04386e-22)
(0.410328 -0.0263511 -1.12917e-21)
(0.420575 -0.0254542 5.56471e-22)
(0.430784 -0.0246968 1.70098e-21)
(0.44093 -0.0240837 -1.63806e-21)
(0.450982 -0.0236137 3.97806e-22)
(0.460906 -0.0232798 -7.12382e-22)
(0.470665 -0.0230693 1.1248e-21)
(0.480219 -0.0229645 -4.34369e-22)
(0.489529 -0.0229432 -3.41011e-22)
(0.498557 -0.0229802 7.95906e-22)
(0.507267 -0.0230479 -1.29923e-21)
(0.515628 -0.0231187 1.59955e-21)
(0.523612 -0.0231642 -3.99541e-22)
(0.531204 -0.0231589 -7.31495e-22)
(0.538388 -0.0230781 4.11559e-22)
(0.545168 -0.022903 2.43631e-22)
(0.551545 -0.0226158 -7.57146e-22)
(0.557543 -0.0222079 3.79136e-22)
(0.563179 -0.0216699 3.94334e-22)
(0.568496 -0.0210057 -4.83814e-22)
(0.573526 -0.0202147 -4.55024e-22)
(0.578327 -0.0193144 -1.27383e-22)
(0.582937 -0.018311 1.83803e-22)
(0.587423 -0.0172363 -1.26473e-22)
(0.591821 -0.0160996 -4.85779e-22)
(0.596197 -0.0149472 4.22543e-22)
(0.600581 -0.0137848 -2.64788e-22)
(0.605023 -0.0126728 -2.42814e-22)
(0.609548 -0.0116038 3.53583e-22)
(0.614173 -0.0106529 -1.26932e-22)
(0.618928 -0.00978654 1.17808e-22)
(0.623776 -0.00909701 -2.80534e-23)
(0.628779 -0.00850937 -1.92126e-22)
(0.633808 -0.00813911 2.54895e-22)
(0.639009 -0.00785466 -4.29479e-23)
(0.644106 -0.00780539 -1.07073e-22)
(0.649411 -0.00778928 9.86587e-23)
(0.654407 -0.00800537 -4.15542e-24)
(0.659713 -0.00817024 2.19465e-23)
(0.66442 -0.00855245 1.15047e-22)
(0.669651 -0.00877853 -5.32486e-23)
(0.673885 -0.009209 5.35093e-24)
(0.679034 -0.00937077 -5.21085e-23)
(0.682647 -0.00974371 1.35226e-23)
(0.687805 -0.00973475 3.9565e-23)
(0.690696 -0.00998559 1.23272e-23)
(0.696056 -0.0097345 9.72931e-23)
(0.69817 -0.00986098 4.12471e-23)
(0.704022 -0.00933704 -1.67505e-23)
(0.705335 -0.00940152 -3.40193e-23)
(0.712025 -0.00862307 -2.99262e-24)
(0.712527 -0.0087056 3.86104e-24)
(0.720418 -0.00780505 -8.81585e-24)
(0.398935 -0.0350595 2.38723e-21)
(0.408632 -0.0336973 -3.12899e-21)
(0.418335 -0.032371 -1.78063e-22)
(0.428044 -0.0311086 3.28092e-21)
(0.437756 -0.0299349 6.46955e-22)
(0.447463 -0.0288703 1.74851e-21)
(0.457152 -0.0279303 7.78634e-22)
(0.466801 -0.0271252 -3.45757e-21)
(0.476386 -0.0264589 4.54046e-22)
(0.485878 -0.0259296 2.79033e-22)
(0.495244 -0.0255301 1.10085e-21)
(0.504445 -0.0252474 -1.5594e-21)
(0.513443 -0.025064 1.82392e-21)
(0.522198 -0.024958 -3.4034e-22)
(0.530673 -0.0249049 -9.17845e-23)
(0.538832 -0.0248781 1.62368e-22)
(0.546643 -0.0248512 -1.37232e-22)
(0.554079 -0.0247969 7.7821e-22)
(0.561123 -0.0246916 -9.2259e-22)
(0.567761 -0.0245119 4.64701e-22)
(0.573996 -0.0242409 1.58139e-22)
(0.579827 -0.0238623 1.17295e-22)
(0.585281 -0.0233692 -1.05158e-22)
(0.590372 -0.0227535 -4.74014e-22)
(0.595147 -0.0220204 -1.05087e-22)
(0.599634 -0.0211699 5.10189e-22)
(0.603896 -0.0202202 3.73348e-22)
(0.607968 -0.0191774 -2.52637e-22)
(0.611921 -0.0180737 2.04423e-22)
(0.61579 -0.0169169 9.48783e-23)
(0.619646 -0.0157533 -7.64192e-23)
(0.623517 -0.014586 -1.09494e-22)
(0.62746 -0.013476 4.27815e-22)
(0.631494 -0.0124115 2.2974e-23)
(0.635647 -0.0114695 -7.91153e-23)
(0.639939 -0.0106104 -9.71355e-23)
(0.644346 -0.00993019 2.88819e-22)
(0.648915 -0.00934608 -2.27003e-22)
(0.653535 -0.00898029 3.4777e-23)
(0.658329 -0.0086906 1.2856e-22)
(0.663046 -0.00863762 -4.04771e-23)
(0.667965 -0.00860467 5.53551e-23)
(0.672606 -0.00880817 2.14656e-24)
(0.677537 -0.00894431 1.57626e-23)
(0.681908 -0.0093071 9.21245e-23)
(0.686767 -0.00949479 -1.00872e-22)
(0.690681 -0.00990334 2.39117e-23)
(0.695453 -0.0100212 2.20074e-22)
(0.698761 -0.0103753 -1.75625e-22)
(0.703524 -0.0103222 -1.33893e-23)
(0.706133 -0.0105623 -1.45385e-23)
(0.711072 -0.0102724 4.91233e-24)
(0.712938 -0.0103992 -3.20368e-23)
(0.718328 -0.00984703 -1.7683e-23)
(0.719449 -0.0099213 1.27374e-23)
(0.725619 -0.00913157 -7.76211e-24)
(0.726017 -0.0092256 -1.23225e-23)
(0.733304 -0.00834206 5.63993e-24)
(0.440033 -0.0376177 5.78092e-21)
(0.449174 -0.0362215 -7.97312e-21)
(0.458311 -0.0348614 2.88954e-21)
(0.467445 -0.0335646 4.9899e-21)
(0.476576 -0.0323548 -3.35097e-21)
(0.485698 -0.0312515 -2.90222e-22)
(0.494797 -0.0302694 -2.24378e-22)
(0.503855 -0.0294176 2.93538e-21)
(0.512848 -0.0286996 -9.38415e-22)
(0.521749 -0.0281128 -1.15369e-21)
(0.530524 -0.0276496 -1.55472e-23)
(0.539136 -0.0272968 1.01835e-21)
(0.547549 -0.027037 -1.77394e-21)
(0.555722 -0.0268486 2.01428e-21)
(0.563619 -0.026708 3.7555e-22)
(0.571202 -0.0265892 -1.94225e-21)
(0.578443 -0.026467 2.80721e-22)
(0.585313 -0.0263155 2.81056e-23)
(0.591797 -0.0261125 1.07435e-22)
(0.597879 -0.0258363 -4.79848e-23)
(0.603562 -0.0254718 -4.13343e-22)
(0.608847 -0.025004 9.97224e-22)
(0.613757 -0.0244278 -9.30752e-22)
(0.618309 -0.0237363 8.68359e-22)
(0.622548 -0.0229362 -4.50295e-22)
(0.626503 -0.0220278 1.41264e-22)
(0.630235 -0.0210307 -2.04331e-22)
(0.63378 -0.0199503 1.81998e-22)
(0.637212 -0.0188195 -8.22367e-23)
(0.640564 -0.0176444 7.9089e-23)
(0.64391 -0.0164719 -3.31738e-22)
(0.647275 -0.0153021 -6.48863e-23)
(0.650724 -0.0141967 -5.71633e-23)
(0.65427 -0.0131396 8.82124e-23)
(0.65795 -0.0122093 2.52716e-23)
(0.661776 -0.0113604 2.70004e-23)
(0.665737 -0.0106925 -1.95972e-22)
(0.669863 -0.0101149 -2.54679e-23)
(0.674064 -0.00975634 -2.16936e-22)
(0.678437 -0.00946426 1.34205e-23)
(0.68276 -0.00940986 3.52647e-23)
(0.687278 -0.00936257 1.25095e-22)
(0.691548 -0.00955521 -1.01985e-22)
(0.69609 -0.00966478 -5.27009e-23)
(0.70011 -0.0100092 -5.04087e-23)
(0.704584 -0.0101604 2.73292e-23)
(0.708167 -0.0105475 1.86655e-22)
(0.712548 -0.0106234 -1.60302e-22)
(0.715546 -0.0109584 1.38226e-22)
(0.719905 -0.0108633 1.30251e-22)
(0.722228 -0.0110919 -7.29134e-24)
(0.726738 -0.0107658 -6.18914e-23)
(0.728357 -0.0108913 -1.53709e-24)
(0.733278 -0.0103146 4.10204e-23)
(0.734211 -0.0103963 -1.69012e-23)
(0.739851 -0.00960006 1.28482e-23)
(0.740148 -0.0097029 5.66924e-24)
(0.746819 -0.00884106 -4.12405e-24)
(0.48193 -0.0400325 6.26291e-21)
(0.49049 -0.0386012 8.6055e-22)
(0.499036 -0.0372065 -2.68877e-21)
(0.507571 -0.0358749 -1.72179e-23)
(0.516097 -0.0346291 -1.59832e-21)
(0.524608 -0.0334877 6.72107e-21)
(0.533093 -0.0324643 -4.49756e-21)
(0.541535 -0.0315671 5.43656e-22)
(0.549912 -0.0307989 -3.27747e-22)
(0.558196 -0.0301565 2.67732e-21)
(0.566356 -0.0296317 7.23475e-22)
(0.574356 -0.0292112 -4.54857e-21)
(0.582161 -0.0288777 7.37608e-22)
(0.58973 -0.0286098 -4.05729e-22)
(0.59703 -0.0283846 3.52215e-22)
(0.604022 -0.028177 1.81563e-22)
(0.61068 -0.0279627 6.19344e-22)
(0.616974 -0.0277173 8.03581e-22)
(0.62289 -0.02742 -1.31415e-21)
(0.628412 -0.0270505 1.10951e-21)
(0.633544 -0.0265954 -2.02471e-23)
(0.638285 -0.0260412 5.47001e-22)
(0.64266 -0.0253847 5.23696e-22)
(0.646683 -0.0246199 -3.90496e-22)
(0.650399 -0.0237549 -5.57933e-22)
(0.653836 -0.0227909 7.05494e-22)
(0.657056 -0.0217482 -7.04347e-23)
(0.660093 -0.020632 -4.25977e-23)
(0.663021 -0.0194759 -6.80093e-22)
(0.665872 -0.0182844 5.6336e-22)
(0.668725 -0.0171049 1.47165e-22)
(0.6716 -0.0159346 2.59365e-22)
(0.674567 -0.0148357 -4.20707e-22)
(0.677634 -0.0137883 -1.17006e-22)
(0.680849 -0.012872 -1.95854e-22)
(0.684212 -0.012036 1.52677e-23)
(0.687726 -0.0113827 2.36173e-23)
(0.691408 -0.0108145 -1.27125e-22)
(0.695184 -0.0104654 2.57359e-22)
(0.699132 -0.0101735 -1.84553e-22)
(0.703053 -0.0101198 -1.77566e-24)
(0.707159 -0.0100606 -1.24636e-22)
(0.71105 -0.0102441 2.29908e-22)
(0.715192 -0.0103294 6.28091e-23)
(0.718853 -0.0106567 -8.86811e-23)
(0.722932 -0.0107736 9.3783e-23)
(0.726177 -0.0111399 -1.8646e-22)
(0.730161 -0.0111758 6.80329e-23)
(0.732845 -0.0114918 1.32424e-24)
(0.736795 -0.011357 -2.12586e-23)
(0.738835 -0.0115735 1.32271e-23)
(0.742912 -0.011214 5.12678e-23)
(0.744289 -0.0113369 -5.14578e-23)
(0.748738 -0.0107392 1.51221e-23)
(0.749488 -0.0108262 4.04926e-23)
(0.754595 -0.010028 5.16833e-24)
(0.754796 -0.010137 9.18971e-24)
(0.760848 -0.00930119 3.48004e-24)
(0.524201 -0.0422975 7.52891e-21)
(0.53216 -0.0408302 -9.04123e-21)
(0.540094 -0.0394005 5.26331e-21)
(0.548011 -0.0380339 -6.88629e-21)
(0.555912 -0.0367524 3.9818e-22)
(0.563793 -0.0355733 6.83371e-21)
(0.571645 -0.0345095 -1.1103e-21)
(0.579452 -0.0335683 -4.14129e-21)
(0.587193 -0.0327515 -1.85863e-21)
(0.594843 -0.0320555 2.64298e-21)
(0.60237 -0.0314715 -1.9553e-21)
(0.609742 -0.0309861 -6.05922e-22)
(0.616922 -0.0305818 1.64712e-21)
(0.623874 -0.0302378 9.87458e-22)
(0.630564 -0.0299316 -9.4403e-22)
(0.636955 -0.0296388 -4.13329e-22)
(0.643022 -0.0293364 -7.98629e-22)
(0.648736 -0.029001 2.39812e-21)
(0.654083 -0.0286132 -2.95331e-21)
(0.659048 -0.0281543 1.70421e-21)
(0.663634 -0.0276124 -5.94098e-22)
(0.667841 -0.0269755 -3.17001e-22)
(0.671692 -0.0262418 3.01901e-22)
(0.675201 -0.0254067 1.49638e-22)
(0.678413 -0.0244796 -1.76712e-23)
(0.681352 -0.0234623 -5.768e-23)
(0.684082 -0.0223761 -2.75403e-22)
(0.686633 -0.0212261 1.70615e-22)
(0.689082 -0.0200463 5.21826e-23)
(0.691456 -0.0188401 3.29899e-22)
(0.693836 -0.017655 -8.6416e-23)
(0.696241 -0.0164858 -9.37083e-23)
(0.698744 -0.0153952 3.52945e-22)