/*--------------------------------*- C++ -*----------------------------------*\
  =========                 |
  \\      /  F ield         | OpenFOAM: The Open Source CFD Toolbox
   \\    /   O peration     | Website:  https://openfoam.org
    \\  /    A nd           | Version:  7
     \\/     M anipulation  |
\*---------------------------------------------------------------------------*/
FoamFile
{
    version     2.0;
    format      ascii;
    class       surfaceScalarField;
    location    "150";
    object      phi;
}
// * * * * * * * * * * * * * * * * * * * * * * * * * * * * * * * * * * * * * //

dimensions      [0 3 -1 0 0 0 0];

internalField   nonuniform List<scalar> 
3869
(
3.27008e-05
-0.005861
-0.00608551
6.13854e-05
-0.00522831
2.87474e-05
-0.00541576
-5.65051e-06
-0.00561442
-4.18226e-05
-0.00582483
-0.0060475
9.6805e-05
-0.00469885
6.59553e-05
-0.00485404
3.32948e-05
-0.00501883
-1.20783e-06
-0.00519381
-3.74476e-05
-0.00537952
-7.56047e-05
-0.00557627
-0.000115719
-0.00578472
-0.00600541
0.000107709
-0.00438416
7.75435e-05
-0.00452203
4.52545e-05
-0.00466656
1.10321e-05
-0.00481982
-2.50623e-05
-0.00498274
-6.30362e-05
-0.00515583
-0.000102991
-0.00533956
-0.000144932
-0.00553433
-0.00018895
-0.0057407
-0.00595926
0.000121697
-0.00408326
9.42865e-05
-0.00422094
6.33725e-05
-0.00435324
2.99032e-05
-0.00448856
-5.69735e-06
-0.00463096
-4.32536e-05
-0.00478226
-8.27766e-05
-0.00494322
-0.000124289
-0.00511432
-0.000167868
-0.00529598
-0.000213566
-0.00548863
-0.000261467
-0.0056928
-0.00590907
0.00012977
-0.00371469
0.000110942
-0.00390625
8.48369e-05
-0.00405715
5.38802e-05
-0.00418998
1.96228e-05
-0.00431898
-1.71147e-05
-0.00445182
-5.59787e-05
-0.0045921
-9.68835e-05
-0.00474135
-0.000139823
-0.00490028
-0.000184849
-0.00506929
-0.000232037
-0.00524879
-0.000281464
-0.0054392
-0.000333223
-0.00564104
-0.000387407
-0.00585489
-0.00608128
0.000114886
-0.00345171
0.000101492
-0.00370129
7.8362e-05
-0.00388312
4.84585e-05
-0.00402725
1.40372e-05
-0.00415556
-2.35079e-05
-0.00428144
-6.34805e-05
-0.00441185
-0.000105609
-0.00454997
-0.00014983
-0.00469713
-0.000196167
-0.00485394
-0.000244682
-0.00502078
-0.000295458
-0.00519802
-0.000348587
-0.00538607
-0.000404174
-0.00558545
-0.000462325
-0.00579674
-0.00602048
8.96159e-05
-0.00264331
9.75549e-05
-0.00310901
9.15711e-05
-0.00344573
7.34612e-05
-0.00368318
4.61853e-05
-0.00385584
1.25981e-05
-0.00399366
-2.5207e-05
-0.00411776
-6.59963e-05
-0.00424065
-0.000109181
-0.00436867
-0.000154547
-0.00450461
-0.000202065
-0.00464962
-0.000251776
-0.00480423
-0.000303756
-0.0049688
-0.000358094
-0.00514368
-0.000414895
-0.00532927
-0.000474276
-0.00552607
-0.000536358
-0.00573466
-0.00595561
3.66946e-05
-0.00132396
6.10601e-05
-0.00206034
7.68069e-05
-0.00265906
7.94275e-05
-0.00311164
6.83834e-05
-0.00343469
4.57307e-05
-0.00366053
1.44548e-05
-0.00382457
-2.27087e-05
-0.0039565
-6.38321e-05
-0.00407663
-0.000107824
-0.00419666
-0.000154189
-0.0043223
-0.000202769
-0.00445603
-0.00025356
-0.00459882
-0.000306623
-0.00475117
-0.000362039
-0.00491338
-0.00041991
-0.00508581
-0.00048035
-0.00526883
-0.000543488
-0.00546293
-0.00060946
-0.00566869
-0.00588669
1.15049e-05
-0.000492855
3.29703e-05
-0.00134543
5.31482e-05
-0.00208051
6.3883e-05
-0.0026698
6.13164e-05
-0.00310907
4.53775e-05
-0.00341875
1.83478e-05
-0.0036335
-1.67928e-05
-0.00378943
-5.7437e-05
-0.00391585
-0.000101817
-0.00403225
-0.000148969
-0.00414951
-0.000198485
-0.00427279
-0.000250252
-0.00440426
-0.000304291
-0.00454478
-0.000360676
-0.00469478
-0.000419501
-0.00485456
-0.000480872
-0.00502444
-0.000544914
-0.00520479
-0.000611769
-0.00539608
-0.000681586
-0.00559887
-0.000754498
-0.00581378
-0.0060413
1.0483e-05
-0.000503338
2.91263e-05
-0.00136407
4.5103e-05
-0.00209649
5.08955e-05
-0.00267559
4.32795e-05
-0.00310145
2.25952e-05
-0.00339806
-8.64153e-06
-0.00360226
-4.75254e-05
-0.00375054
-9.15639e-05
-0.00387181
-0.00013914
-0.00398468
-0.000189413
-0.00409923
-0.000242047
-0.00422015
-0.000296973
-0.00434933
-0.000354232
-0.00448752
-0.00041391
-0.0046351
-0.000476109
-0.00479236
-0.000540946
-0.0049596
-0.000608552
-0.00513718
-0.000679079
-0.00532555
-0.000752693
-0.00552525
-0.000829548
-0.00573692
-0.00596113
9.41613e-06
-0.000512754
2.51823e-05
-0.00137984
3.69583e-05
-0.00210827
3.78893e-05
-0.00267652
2.53703e-05
-0.00308893
2.35077e-07
-0.00337293
-3.51935e-05
-0.00356684
-7.77202e-05
-0.00370802
-0.000125069
-0.00382447
-0.000175785
-0.00393396
-0.000229137
-0.00404588
-0.000284858
-0.00416443
-0.000342911
-0.00429128
-0.000403359
-0.00442708
-0.000466297
-0.00457216
-0.000531836
-0.00472682
-0.0006001
-0.00489134
-0.000671228
-0.00506606
-0.000745381
-0.0052514
-0.000822741
-0.00544789
-0.000903481
-0.00565618
-0.00587691
8.31225e-06
-0.000521066
2.11584e-05
-0.00139268
2.87488e-05
-0.00211586
2.49027e-05
-0.00267267
7.6204e-06
-0.00307165
-2.20747e-05
-0.00334323
-6.13218e-05
-0.00352759
-0.000107353
-0.00366198
-0.000157934
-0.00377388
-0.000211735
-0.00388016
-0.000268126
-0.00398949
-0.000326897
-0.00410566
-0.000388046
-0.00423013
-0.000451648
-0.00436347
-0.00051781
-0.004506
-0.000586651
-0.00465798
-0.000658302
-0.00481969
-0.000732908
-0.00499145
-0.000810639
-0.00517367
-0.000891689
-0.00536684
-0.000976253
-0.00557162
-0.00106447
-0.0057887
-0.00601839
7.17713e-06
-0.000528243
1.7074e-05
-0.00140258
2.05174e-05
-0.0021193
1.19623e-05
-0.00266412
-9.95052e-06
-0.00304974
-4.38904e-05
-0.00330929
-8.69617e-05
-0.00348452
-0.000136403
-0.00361254
-0.000190141
-0.00372015
-0.000246974
-0.00382333
-0.000306362
-0.0039301
-0.000368149
-0.00404387
-0.000432357
-0.00416592
-0.000499077
-0.00429675
-0.000568425
-0.00443665
-0.000640528
-0.00458588
-0.000715522
-0.00474469
-0.000793561
-0.00491341
-0.000874819
-0.00509241
-0.000959501
-0.00528216
-0.00104782
-0.0054833
-0.00113996
-0.00569656
-0.00592241
6.01262e-06
-0.000534256
1.29424e-05
-0.00140951
1.23016e-05
-0.00211866
-5.54192e-07
-0.00265126
-2.72592e-05
-0.00302303
-6.53439e-05
-0.00327121
-0.000112098
-0.00343776
-0.000164853
-0.00355979
-0.000221677
-0.00366332
-0.00028149
-0.00376351
-0.000343832
-0.00386776
-0.000408595
-0.00397911
-0.000475824
-0.00409869
-0.000545622
-0.00422696
-0.000618116
-0.00436416
-0.000693437
-0.00451055
-0.000771731
-0.0046664
-0.000853155
-0.00483199
-0.000937888
-0.00500768
-0.00102614
-0.00519391
-0.00111815
-0.00539129
-0.00121413
-0.00560059
-0.00582237
4.82322e-06
-0.000539079
8.78127e-06
-0.00141347
4.09618e-06
-0.00211397
-1.35922e-05
-0.00263357
-4.43645e-05
-0.00299226
-8.63996e-05
-0.00322917
-0.000136712
-0.00338745
-0.000192687
-0.00350381
-0.000252529
-0.00360348
-0.000315268
-0.00370078
-0.000380521
-0.00380251
-0.000448219
-0.00391141
-0.000518428
-0.00402849
-0.000591263
-0.00415412
-0.000666858
-0.00428857
-0.000745354
-0.00443206
-0.000826901
-0.00458485
-0.00091166
-0.00474723
-0.000999815
-0.00491952
-0.00109158
-0.00510214
-0.0011872
-0.00529567
-0.00128693
-0.00550086
-0.00139094
-0.00571835
-0.00594814
3.61506e-06
-0.000542694
4.59064e-06
-0.00141444
-4.10976e-06
-0.00210527
-2.61391e-05
-0.00261154
-6.11661e-05
-0.00295723
-0.000107033
-0.00318331
-0.000160786
-0.0033337
-0.000219892
-0.00344471
-0.000282684
-0.00354069
-0.000348298
-0.00363516
-0.000416416
-0.00373439
-0.000487005
-0.00384082
-0.00056015
-0.00395534
-0.000635978
-0.00407829
-0.000714629
-0.00420992
-0.000796252
-0.00435044
-0.000881002
-0.0045001
-0.000969046
-0.00465918
-0.00106057
-0.004828
-0.00115579
-0.00500692
-0.00125495
-0.0051965
-0.00135835
-0.00539746
-0.00146624
-0.00561047
-0.00583595
2.38903e-06
-0.000545083
4.75414e-07
-0.00141253
-1.23148e-05
-0.00209248
-3.85272e-05
-0.00258533
-7.76476e-05
-0.00291811
-0.000127224
-0.00313373
-0.000184304
-0.00327662
-0.000246456
-0.00338256
-0.000312132
-0.00347501
-0.000380567
-0.00356673
-0.000451503
-0.00366345
-0.000524938
-0.00376739
-0.000600973
-0.0038793
-0.000679746
-0.00399952
-0.000761405
-0.00412826
-0.000846104
-0.00426574
-0.000934007
-0.0044122
-0.00102528
-0.00456791
-0.00112012
-0.00473316
-0.00121874
-0.00490831
-0.00132137
-0.00509387
-0.00142834
-0.00529049
-0.00154001
-0.0054988
-0.00571971
1.0901e-06
-0.000546173
-3.80114e-06
-0.00140764
-2.03899e-05
-0.0020759
-5.07201e-05
-0.002555
-9.37935e-05
-0.00287504
-0.000146953
-0.00308057
-0.000207254
-0.00321632
-0.000272368
-0.00331744
-0.000340864
-0.00340652
-0.000412065
-0.00349553
-0.000485769
-0.00358975
-0.000562002
-0.00369116
-0.000640879
-0.00380043
-0.000722547
-0.00391785
-0.000807162
-0.00404364
-0.000894887
-0.00417801
-0.000985888
-0.0043212
-0.00108034
-0.00447345
-0.00117844
-0.00463506
-0.0012804
-0.00480636
-0.00138644
-0.00498782
-0.0014969
-0.00518004
-0.00161223
-0.00538346
-0.00173241
-0.00559954
-0.00583136
-3.17758e-07
-0.000545856
-8.00206e-06
-0.00139996
-2.83551e-05
-0.00205554
-6.26935e-05
-0.00252066
-0.000109586
-0.00282815
-0.000166205
-0.00302395
-0.000229624
-0.0031529
-0.000297619
-0.00324945
-0.000368869
-0.00333527
-0.000442782
-0.00342161
-0.000519202
-0.00351333
-0.000598182
-0.00361218
-0.000679851
-0.00371876
-0.000764362
-0.00383334
-0.00085188
-0.00395612
-0.000942574
-0.00408732
-0.00103662
-0.00422715
-0.0011342
-0.00437587
-0.00123551
-0.00453375
-0.00134074
-0.00470112
-0.00145013
-0.00487843
-0.001564
-0.00506617
-0.00168289
-0.00526458
-0.00180693
-0.00547549
-0.0057043
-1.44079e-06
-0.000544415
-1.21307e-05
-0.00138927
-3.61982e-05
-0.00203147
-7.44283e-05
-0.00248243
-0.00012501
-0.00277757
-0.000184968
-0.002964
-0.000251405
-0.00308646
-0.0003222
-0.00317865
-0.00039614
-0.00326133
-0.000472707
-0.00334505
-0.000551791
-0.00343424
-0.000633465
-0.0035305
-0.000717871
-0.00363435
-0.00080517
-0.00374604
-0.000895535
-0.00386576
-0.000989142
-0.00399371
-0.00108617
-0.00413012
-0.00118682
-0.00427522
-0.00129128
-0.00442929
-0.00139975
-0.00459265
-0.00151245
-0.00476574
-0.00162968
-0.00494894
-0.00175201
-0.00514225
-0.00187974
-0.00534776
-0.00557331
-0.00201073
-2.66812e-06
-0.000541747
-1.62134e-05
-0.00137572
-4.39063e-05
-0.00200378
-8.59095e-05
-0.00244043
-0.000140051
-0.00272342
-0.00020323
-0.00290082
-0.000272588
-0.0030171
-0.000346105
-0.00310513
-0.000422668
-0.00318476
-0.000501832
-0.00326588
-0.000583523
-0.00335255
-0.000667836
-0.00344619
-0.000754923
-0.00354727
-0.000844953
-0.00365601
-0.000938107
-0.00377261
-0.00103457
-0.00389725
-0.00113452
-0.00403016
-0.00123817
-0.00417157
-0.00134573
-0.00432174
-0.00145738
-0.00448099
-0.00157337
-0.00464975
-0.00169402
-0.00482828
-0.00181979
-0.00501647
-0.00195052
-0.00521704
-0.00543889
-0.00208493
-3.91184e-06
-0.000537835
-2.02453e-05
-0.00135939
-5.14671e-05
-0.00197256
-9.71225e-05
-0.00239478
-0.000154696
-0.00266585
-0.000220982
-0.00283453
-0.000293164
-0.00294492
-0.000369325
-0.00302897
-0.000448447
-0.00310564
-0.000530147
-0.00318418
-0.000614388
-0.00326831
-0.000701282
-0.0033593
-0.000790991
-0.00345756
-0.000883693
-0.00356331
-0.000979573
-0.00367673
-0.00107882
-0.003798
-0.00118164
-0.00392734
-0.00128823
-0.00406498
-0.00139881
-0.00421116
-0.00151359
-0.00436621
-0.00163285
-0.00453049
-0.00175698
-0.00470415
-0.00188638
-0.00488707
-0.00202133
-0.00508209
-0.00530651
-0.00215371
-5.15046e-06
-0.000532684
-2.42161e-05
-0.00134032
-5.88689e-05
-0.00193791
-0.000108055
-0.00234559
-0.000168936
-0.00260497
-0.000238216
-0.00276525
-0.000313128
-0.00287001
-0.000391855
-0.00295025
-0.000473468
-0.00302403
-0.000557643
-0.00310001
-0.000644374
-0.00318158
-0.00073379
-0.00326988
-0.00082606
-0.00336529
-0.00092137
-0.003468
-0.00101991
-0.00357818
-0.00112189
-0.00369603
-0.0012275
-0.00382173
-0.00133696
-0.00395552
-0.00145049
-0.00409763
-0.00156832
-0.00424837
-0.00169078
-0.00440803
-0.00181828
-0.00457666
-0.00195063
-0.00475472
-0.00208674
-0.00494598
-0.00515153
-0.00224172
-6.37643e-06
-0.000526308
-2.81168e-05
-0.00131858
-6.61004e-05
-0.00189992
-0.000118694
-0.002293
-0.00018276
-0.0025409
-0.000254923
-0.00269309
-0.000332473
-0.00279246
-0.000413689
-0.00286903
-0.000497725
-0.00293999
-0.000584312
-0.00301342
-0.000673472
-0.00309242
-0.000765346
-0.00317801
-0.000860114
-0.00327052
-0.000957968
-0.00337014
-0.00105911
-0.00347704
-0.00116374
-0.0035914
-0.00127207
-0.0037134
-0.00138433
-0.00384327
-0.00150073
-0.00398123
-0.00162154
-0.00412757
-0.00174707
-0.0042825
-0.00187755
-0.00444617
-0.00201282
-0.00461946
-0.00215427
-0.00480453
-0.00499792
-0.00230788
-7.58548e-06
-0.000518722
-3.19391e-05
-0.00129423
-7.31513e-05
-0.00185871
-0.000129031
-0.00223712
-0.000196159
-0.00247378
-0.000271098
-0.00261815
-0.000351195
-0.00271236
-0.000434822
-0.0027854
-0.000521213
-0.0028536
-0.000610146
-0.00292449
-0.00070167
-0.0030009
-0.000795938
-0.00308374
-0.000893139
-0.00317332
-0.00099347
-0.00326981
-0.00109714
-0.00337337
-0.00120435
-0.00348418
-0.00131534
-0.00360242
-0.00143031
-0.00372829
-0.00154952
-0.00386202
-0.00167322
-0.00400386
-0.00180172
-0.00415401
-0.00193522
-0.00431267
-0.00207392
-0.00448075
-0.00221939
-0.00465906
-0.00484406
-0.00237324
-8.77444e-06
-0.000509948
-3.56757e-05
-0.00126733
-8.00122e-05
-0.00181437
-0.000139056
-0.00217807
-0.000209126
-0.00240371
-0.000286734
-0.00254054
-0.000369287
-0.00262981
-0.000455248
-0.00269944
-0.000543923
-0.00276493
-0.000635137
-0.00283327
-0.000728959
-0.00290707
-0.000825555
-0.00298714
-0.00092512
-0.00307375
-0.00102786
-0.00316707
-0.00113398
-0.00326725
-0.00124371
-0.00337445
-0.00135727
-0.00348886
-0.00147488
-0.00361067
-0.00159681
-0.0037401
-0.00172331
-0.00387736
-0.00185467
-0.00402265
-0.0019911
-0.00417623
-0.00213302
-0.00433884
-0.00228152
-0.00451055
-0.00468858
-0.00243701
-9.94056e-06
-0.000500007
-3.93199e-05
-0.00123795
-8.66743e-05
-0.00176702
-0.000148761
-0.00211598
-0.000221654
-0.00233081
-0.000301826
-0.00246037
-0.000386746
-0.00254489
-0.000474963
-0.00261122
-0.000565852
-0.00267404
-0.000659277
-0.00273985
-0.000755329
-0.00281102
-0.000854184
-0.00288829
-0.000956044
-0.0029719
-0.00106112
-0.003062
-0.00116963
-0.00315874
-0.00128179
-0.00326229
-0.00139784
-0.00337281
-0.00151802
-0.00349049
-0.00164257
-0.00361554
-0.00177178
-0.00374816
-0.0019059
-0.00388852
-0.00204521
-0.00403693
-0.00219014
-0.00419392
-0.00234141
-0.00435928
-0.0045309
-0.0024991
-1.10813e-05
-0.000488926
-4.28653e-05
-0.00120616
-9.31298e-05
-0.00171676
-0.000158137
-0.00205098
-0.000233738
-0.00225521
-0.00031637
-0.00237774
-0.000403567
-0.00245769
-0.000493962
-0.00252083
-0.000586992
-0.00258101
-0.000682559
-0.00264428
-0.000780771
-0.00271281
-0.000881815
-0.00278724
-0.000985897
-0.00286781
-0.00109323
-0.00295466
-0.00120405
-0.00304793
-0.00131857
-0.00314777
-0.00143704
-0.00325435
-0.00155969
-0.00336784
-0.00168679
-0.00348844
-0.0018186
-0.00361634
-0.00195541
-0.00375172
-0.00209748
-0.00389485
-0.00224524
-0.00404616
-0.00239918
-0.00420533
-0.00437075
-0.00255932
-1.21942e-05
-0.000476732
-4.63062e-05
-0.00117205
-9.93715e-05
-0.00166369
-0.00016718
-0.00198317
-0.000245371
-0.00217702
-0.000330361
-0.00229275
-0.000419748
-0.0023683
-0.000512241
-0.00242834
-0.000607339
-0.00248591
-0.000704975
-0.00254665
-0.000805277
-0.00261251
-0.000908437
-0.00268408
-0.00101467
-0.00276158
-0.00112419
-0.00284514
-0.00123724
-0.00293488
-0.00135404
-0.00303097
-0.00147484
-0.00313355
-0.00159988
-0.0032428
-0.00172943
-0.00335889
-0.00186376
-0.00348201
-0.00200315
-0.00361233
-0.00214788
-0.00375012
-0.00229834
-0.00389571
-0.0024549
-0.00404877
-0.00420805
-0.00261761
-1.32769e-05
-0.000463455
-4.96374e-05
-0.00113569
-0.000105393
-0.00160793
-0.000175881
-0.00191268
-0.00025655
-0.00209635
-0.000343797
-0.0022055
-0.000435283
-0.00227682
-0.000529796
-0.00233382
-0.000626887
-0.00238882
-0.00072652
-0.00244701
-0.000828837
-0.00251019
-0.000934038
-0.00257888
-0.00104234
-0.00265328
-0.00115398
-0.0027335
-0.00126917
-0.00281969
-0.00138817
-0.00291197
-0.00151122
-0.0030105
-0.00163857
-0.00311545
-0.00177048
-0.00322698
-0.00190724
-0.00334526
-0.00204911
-0.00347046
-0.0021964
-0.00360283
-0.00234944
-0.00374266
-0.00250858
-0.00388963
-0.00404274
-0.00267388
-1.43273e-05
-0.000449128
-5.2854e-05
-0.00109716
-0.000111188
-0.0015496
-0.000184236
-0.00183963
-0.000267269
-0.00201332
-0.000356672
-0.0021161
-0.000450171
-0.00218332
-0.000546623
-0.00223737
-0.00064563
-0.00228981
-0.000747186
-0.00234546
-0.000851443
-0.00240593
-0.000958611
-0.00247172
-0.00106891
-0.00254298
-0.00118258
-0.00261984
-0.00129985
-0.00270242
-0.00142096
-0.00279086
-0.00154617
-0.0028853
-0.00167573
-0.00298589
-0.00180992
-0.00309279
-0.001949
-0.00320617
-0.00209327
-0.00332619
-0.00224301
-0.00345309
-0.00239855
-0.00358712
-0.0025602
-0.00372798
-0.00387487
-0.00272807
-1.53432e-05
-0.000433785
-5.59514e-05
-0.00105656
-0.000116751
-0.0014888
-0.000192241
-0.00176414
-0.000277525
-0.00192804
-0.000368985
-0.00202464
-0.000464408
-0.00208789
-0.000562718
-0.00213906
-0.000663566
-0.00218897
-0.000766967
-0.00224206
-0.000873088
-0.00229981
-0.000982144
-0.00236266
-0.00109436
-0.00243076
-0.00120998
-0.00250422
-0.00132923
-0.00258316
-0.00145238
-0.00266771
-0.00157966
-0.00275801
-0.00171135
-0.0028542
-0.00184772
-0.00295642
-0.00198904
-0.00306485
-0.0021356
-0.00317964
-0.00228769
-0.003301
-0.00244563
-0.00342918
-0.00260973
-0.00356388
-0.00370448
-0.00278012
-1.63226e-05
-0.000417462
-5.89256e-05
-0.00101395
-0.000122078
-0.00142565
-0.000199889
-0.00168633
-0.000287315
-0.00184061
-0.000380733
-0.00193122
-0.000477992
-0.00199064
-0.000578079
-0.00203898
-0.000680687
-0.00208636
-0.000785857
-0.00213689
-0.000893764
-0.0021919
-0.00100463
-0.00225179
-0.00111868
-0.0023167
-0.00123617
-0.00238673
-0.00135733
-0.002462
-0.00148242
-0.00254263
-0.00161169
-0.00262874
-0.00174542
-0.00272047
-0.00188387
-0.00281797
-0.00202733
-0.00292139
-0.00217609
-0.00303088
-0.00233043
-0.00314665
-0.00249068
-0.00326893
-0.00265714
-0.00339743
-0.00353165
-0.00282998
-1.72639e-05
-0.000400198
-6.17727e-05
-0.000969444
-0.000127163
-0.00136026
-0.000207179
-0.00160632
-0.000296635
-0.00175116
-0.000391913
-0.00183594
-0.000490919
-0.00189163
-0.000592701
-0.00193719
-0.000696991
-0.00198207
-0.00080385
-0.00203003
-0.000913463
-0.00208229
-0.00102606
-0.0021392
-0.00114187
-0.00220089
-0.00126114
-0.00226746
-0.00138412
-0.00233902
-0.00151106
-0.00241568
-0.00164224
-0.00249756
-0.00177791
-0.0025848
-0.00191835
-0.00267753
-0.00206386
-0.00277589
-0.00221471
-0.00288003
-0.00237121
-0.00299015
-0.00253367
-0.00310647
-0.00270241
-0.00322869
-0.00335645
-0.0028776
-1.81652e-05
-0.000382033
-6.44892e-05
-0.00092312
-0.000132003
-0.00129274
-0.000214105
-0.00152421
-0.000305482
-0.00165978
-0.000402522
-0.0017389
-0.000503187
-0.00179096
-0.000606581
-0.0018338
-0.000712472
-0.00187618
-0.00082094
-0.00192156
-0.000932179
-0.00197105
-0.00104642
-0.00202496
-0.0011639
-0.00208341
-0.00128487
-0.00214649
-0.00140959
-0.00221431
-0.0015383
-0.00228697
-0.00167128
-0.00236458
-0.0018088
-0.00244728
-0.00195115
-0.00253519
-0.0020986
-0.00262844
-0.00225145
-0.00272717
-0.00241001
-0.00283159
-0.00257459
-0.00294189
-0.0027455
-0.00305778
-0.00317899
-0.00292296
-1.90249e-05
-0.000363008
-6.70717e-05
-0.000875073
-0.000136595
-0.00122322
-0.000220665
-0.00144014
-0.000313855
-0.00156659
-0.000412559
-0.0016402
-0.000514794
-0.00168873
-0.000619716
-0.00172888
-0.000727127
-0.00176876
-0.000837123
-0.00181156
-0.000949906
-0.00185827
-0.00106571
-0.00190916
-0.00118478
-0.00196434
-0.00130737
-0.0020239
-0.00143373
-0.00208795
-0.00156412
-0.00215657
-0.00169882
-0.00222988
-0.0018381
-0.002308
-0.00198224
-0.00239104
-0.00213154
-0.00247914
-0.00228629
-0.00257242
-0.0024468
-0.00267108
-0.0026134
-0.0027753
-0.00278638
-0.00288479
-0.00299937
-0.002966
-1.98416e-05
-0.000343166
-6.95174e-05
-0.000825397
-0.000140933
-0.00115181
-0.000226856
-0.00135422
-0.00032175
-0.00147169
-0.000422021
-0.00153992
-0.000525737
-0.00158501
-0.000632103
-0.00162251
-0.000740952
-0.00165992
-0.000852393
-0.00170012
-0.000966636
-0.00174402
-0.00108392
-0.00179187
-0.00120449
-0.00184377
-0.00132861
-0.00189979
-0.00145652
-0.00196003
-0.0015885
-0.00202459
-0.00172483
-0.00209356
-0.00186577
-0.00216706
-0.00201161
-0.00224519
-0.00216266
-0.00232809
-0.00231921
-0.00241587
-0.00248158
-0.00250872
-0.00265008
-0.0026068
-0.00282504
-0.00270983
-0.0028177
-0.00300671
-2.06139e-05
-0.000322552
-7.18235e-05
-0.000774187
-0.000145016
-0.00107861
-0.000232675
-0.00126656
-0.000329166
-0.0013752
-0.000430907
-0.00143818
-0.000536015
-0.00147991
-0.00064374
-0.00151479
-0.000753942
-0.00154971
-0.000866745
-0.00158732
-0.000982365
-0.00162841
-0.00110104
-0.00167319
-0.00122303
-0.00172178
-0.00134858
-0.00177424
-0.00147797
-0.00183065
-0.00161144
-0.00189111
-0.0017493
-0.00195571
-0.0018918
-0.00202455
-0.00203926
-0.00209774
-0.00219195
-0.00217539
-0.0023502
-0.00225762
-0.00251431
-0.00234461
-0.00268461
-0.0024365
-0.00286143
-0.00253301
-0.0026341
-0.00304503
-2.13404e-05
-0.000301212
-7.39875e-05
-0.00072154
-0.000148841
-0.00100376
-0.000238119
-0.00117728
-0.000336101
-0.00127722
-0.000439215
-0.00133507
-0.000545626
-0.00137349
-0.000654624
-0.00140579
-0.000766095
-0.00143824
-0.000880175
-0.00147324
-0.000997086
-0.00151149
-0.00111707
-0.00155321
-0.00124039
-0.00159846
-0.00136729
-0.00164733
-0.00149805
-0.00169989
-0.00163293
-0.00175623
-0.00177222
-0.00181642
-0.00191619
-0.00188058
-0.00206515
-0.00194878
-0.00221939
-0.00202115
-0.00237923
-0.00209779
-0.00254498
-0.00217887
-0.00271697
-0.0022645
-0.00289554
-0.00235444
-0.00244868
-0.00308096
-2.20201e-05
-0.000279192
-7.60069e-05
-0.000667554
-0.000152405
-0.000927361
-0.000243187
-0.0010865
-0.000342552
-0.00117786
-0.000446944
-0.00123068
-0.000554567
-0.00126587
-0.000664752
-0.0012956
-0.000777407
-0.00132559
-0.000892679
-0.00135797
-0.00101079
-0.00139338
-0.001132
-0.001432
-0.00125655
-0.00147391
-0.00138472
-0.00151917
-0.00151676
-0.00156785
-0.00165295
-0.00162004
-0.00179358
-0.0016758
-0.00193892
-0.00173523
-0.00208929
-0.00179842
-0.00224497
-0.00186546
-0.00240629
-0.00193647
-0.00257357
-0.00201159
-0.00274714
-0.00209093
-0.00292735
-0.00217424
-0.00226156
-0.00311446
-2.26518e-05
-0.00025654
-7.78799e-05
-0.000612326
-0.000155705
-0.000849535
-0.000247876
-0.000994332
-0.00034852
-0.00107721
-0.000454091
-0.00112511
-0.000562837
-0.00115713
-0.000674123
-0.00118432
-0.000787875
-0.00121184
-0.000904253
-0.00124159
-0.00102348
-0.00127415
-0.00114582
-0.00130966
-0.00127153
-0.00134821
-0.00140086
-0.00138984
-0.00153409
-0.00143462
-0.0016715
-0.00148263
-0.00181336
-0.00153393
-0.00195998
-0.00158861
-0.00211165
-0.00164675
-0.00226867
-0.00170844
-0.00243137
-0.00177377
-0.00260007
-0.00184289
-0.00277511
-0.00191588
-0.00295682
-0.00199252
-0.00207287
-0.00314551
-2.32345e-05
-0.000233306
-7.96043e-05
-0.000555956
-0.00015874
-0.000770399
-0.000252185
-0.000900888
-0.000354001
-0.000975396
-0.000460656
-0.00101845
-0.000570435
-0.00104735
-0.000682733
-0.00107202
-0.000797496
-0.00109707
-0.000914892
-0.00112419
-0.00103515
-0.00115389
-0.00115854
-0.00118628
-0.0012853
-0.00122144
-0.00141571
-0.00125943
-0.00155003
-0.00130029
-0.00168856
-0.0013441
-0.00183157
-0.00139092
-0.00197936
-0.00144082
-0.00213223
-0.00149389
-0.00229048
-0.00155018
-0.00245445
-0.0016098
-0.00262445
-0.00167288
-0.00280085
-0.00173949
-0.00298396
-0.00180941
-0.00188273
-0.00317409
-2.37673e-05
-0.000209538
-8.11785e-05
-0.000498545
-0.000161508
-0.00069007
-0.000256111
-0.000806285
-0.000358994
-0.000872513
-0.000466638
-0.000910806
-0.000577358
-0.000936626
-0.00069058
-0.000958798
-0.000806268
-0.000981384
-0.000924594
-0.00100587
-0.0010458
-0.00103268
-0.00117013
-0.00106195
-0.00129786
-0.00109372
-0.00142925
-0.00112804
-0.00156458
-0.00116496
-0.00170413
-0.00120455
-0.00184819
-0.00124687
-0.00199704
-0.00129197
-0.00215101
-0.00133992
-0.00231039
-0.0013908
-0.00247552
-0.00144468
-0.00264672
-0.00150168
-0.00282434
-0.00156187
-0.00300873
-0.00162503
-0.00169128
-0.00320019
-2.42495e-05
-0.000185289
-8.2601e-05
-0.000440193
-0.000164007
-0.000608664
-0.000259654
-0.000710637
-0.000363499
-0.000768668
-0.000472034
-0.000802272
-0.000583606
-0.000825054
-0.000697664
-0.00084474
-0.000814188
-0.000864861
-0.000933356
-0.0008867
-0.00105541
-0.000910629
-0.00118061
-0.00093675
-0.00130921
-0.00096511
-0.00144149
-0.000995754
-0.00157773
-0.00102873
-0.0017182
-0.00106408
-0.00186321
-0.00110187
-0.00201303
-0.00114214
-0.00216799
-0.00118496
-0.00232839
-0.00123039
-0.00249456
-0.00127851
-0.00266685
-0.0013294
-0.00284559
-0.00138312
-0.00303112
-0.0014395
-0.00149862
-0.00322378
-2.46801e-05
-0.000160609
-8.38703e-05
-0.000381003
-0.000166235
-0.000526299
-0.000262813
-0.000614059
-0.000367515
-0.000663966
-0.000476845
-0.000692942
-0.000589176
-0.000712722
-0.000703982
-0.000729934
-0.000821253
-0.00074759
-0.000941174
-0.000766779
-0.00106399
-0.000787814
-0.00118996
-0.000810781
-0.00131935
-0.000835722
-0.00145242
-0.000862675
-0.00158947
-0.00089168
-0.00173077
-0.00092278
-0.00187662
-0.00095602
-0.00202731
-0.00099145
-0.00218315
-0.00102912
-0.00234447
-0.00106908
-0.00251158
-0.0011114
-0.00268482
-0.00115615
-0.00286456
-0.00120339
-0.00305113
-0.00125293
-0.0013049
-0.00324485
-2.50587e-05
-0.00013555
-8.49852e-05
-0.000321076
-0.000168191
-0.000443093
-0.000265585
-0.000516665
-0.00037104
-0.000558511
-0.000481069
-0.000582914
-0.000594069
-0.000599722
-0.000709533
-0.00061447
-0.000827462
-0.000629661
-0.000948046
-0.000646195
-0.00107153
-0.000664328
-0.00119818
-0.000684133
-0.00132826
-0.000705645
-0.00146204
-0.000728895
-0.0015998
-0.000753918
-0.00174183
-0.00078075
-0.00188842
-0.000809429
-0.00203987
-0.000839997
-0.0021965
-0.000872495
-0.00235861
-0.000906967
-0.00252655
-0.000943462
-0.00270065
-0.000982055
-0.00288126
-0.00102277
-0.00306873
-0.00106547
-0.00111024
-0.00326338
-2.53847e-05
-0.000110165
-8.59446e-05
-0.000260516
-0.000169874
-0.000359164
-0.000267971
-0.000418568
-0.000374074
-0.000452408
-0.000484705
-0.000472283
-0.000598283
-0.000486144
-0.000714315
-0.000498438
-0.000832812
-0.000511164
-0.00095397
-0.000525037
-0.00107804
-0.000540263
-0.00120527
-0.000556898
-0.00133594
-0.000574971
-0.00147033
-0.000594508
-0.00160871
-0.000615538
-0.00175137
-0.00063809
-0.0018986
-0.000662195
-0.00205072
-0.000687886
-0.00220801
-0.000715196
-0.00237082
-0.000744159
-0.00253947
-0.000774816
-0.0027143
-0.000807224
-0.00289567
-0.000841402
-0.00308391
-0.000877226
-0.000914773
-0.00327938
-2.56574e-05
-8.45079e-05
-8.67476e-05
-0.000199426
-0.000171283
-0.000274628
-0.000269969
-0.000319883
-0.000376616
-0.000345761
-0.000487753
-0.000361145
-0.000601816
-0.000372081
-0.000718327
-0.000381927
-0.000837303
-0.000392187
-0.000958944
-0.000403397
-0.0010835
-0.000415709
-0.00121123
-0.000429168
-0.0013424
-0.000443795
-0.0014773
-0.000459612
-0.0016162
-0.000476639
-0.00175939
-0.0004949
-0.00190717
-0.000514419
-0.00205983
-0.000535221
-0.0022177
-0.000557329
-0.00238109
-0.00058077
-0.00255033
-0.000605572
-0.00272578
-0.000631778
-0.00290778
-0.000659399
-0.00309667
-0.000688334
-0.00071863
-0.00329282
-2.58767e-05
-5.86312e-05
-8.73934e-05
-0.00013791
-0.000172417
-0.000189604
-0.000271578
-0.000220723
-0.000378664
-0.000238675
-0.000490212
-0.000249598
-0.000604669
-0.000257624
-0.000721568
-0.000265028
-0.000840933
-0.000272822
-0.000962966
-0.000281365
-0.00108792
-0.000290759
-0.00121605
-0.000301036
-0.00134763
-0.000312211
-0.00148294
-0.0003243
-0.00162226
-0.000337318
-0.00176588
-0.00035128
-0.0019141
-0.000366204
-0.00206721
-0.000382106
-0.00222554
-0.000399002
-0.0023894
-0.000416908
-0.00255913
-0.000435844
-0.00273508
-0.000455834
-0.00291759
-0.000476883
-0.00310701
-0.000498915
-0.000521942
-0.0033037
-2.6042e-05
-3.25892e-05
-8.78815e-05
-7.60701e-05
-0.000173276
-0.00010421
-0.000272798
-0.000121201
-0.00038022
-0.000131252
-0.000492081
-0.000137736
-0.00060684
-0.000142865
-0.000724037
-0.000147831
-0.000843701
-0.000153158
-0.000966034
-0.000159031
-0.00109129
-0.000165505
-0.00121973
-0.000172596
-0.00135163
-0.000180315
-0.00148726
-0.000188671
-0.0016269
-0.000197673
-0.00177085
-0.00020733
-0.0019194
-0.000217652
-0.00207286
-0.000228647
-0.00223154
-0.000240322
-0.00239576
-0.000252686
-0.00256586
-0.000265745
-0.00274219
-0.00027951
-0.00292509
-0.000293979
-0.0031149
-0.000309104
-0.000324838
-0.00331201
-2.61532e-05
-8.82112e-05
-0.000173858
-0.000273628
-0.000381282
-0.000493361
-0.000608329
-2.78963e-05
-0.000725734
-3.04269e-05
-0.000845606
-3.32865e-05
-0.000968149
-3.6488e-05
-0.00109362
-4.00379e-05
-0.00122227
-4.39405e-05
-0.00135439
-4.81999e-05
-0.00149024
-5.28193e-05
-0.00163011
-5.78019e-05
-0.00177429
-6.31499e-05
-0.00192307
-6.88652e-05
-0.00207677
-7.49482e-05
-0.0022357
-8.13985e-05
-0.00240017
-8.82143e-05
-0.00257052
-9.53926e-05
-0.0027471
-0.00010293
-0.00293026
-0.000110818
-0.00312033
-0.000119033
-0.000127601
-0.00331757
-0.000609136
-0.000726657
-0.000846646
-0.000969308
-0.00109489
-0.00122367
-0.00135591
-0.00149189
-0.00163188
-0.00177619
-0.00192511
-0.00207894
-0.002238
-0.00240262
-0.00257311
-0.00274984
-0.00293315
-0.00312337
-0.00332083
-0.00439725
-0.00208022
-0.00440196
-0.00458991
-0.00214396
-0.00441171
-0.0045945
-0.00435931
0.00152214
-0.00157454
-0.00433527
0.00138753
-0.00141157
-0.00432763
0.00137014
-0.00137778
-0.00432202
0.00126113
-0.00126673
-0.00432503
0.00120717
-0.00120416
-0.00433025
0.00111031
-0.00110509
-0.00434025
0.00104174
-0.00103173
-0.00435174
0.00095035
-0.000938862
-0.00436571
0.000876754
-0.000862789
-0.00438027
0.000789897
-0.000775334
-0.00439583
0.000716159
-0.000700595
-0.00441124
0.000634183
-0.000618772
-0.00442671
0.000563118
-0.000547654
-0.00444149
0.000486849
-0.000472069
-0.00445574
0.000420679
-0.000406428
-0.00446899
0.000351694
-0.000338444
-0.00448137
0.000293232
-0.000280848
-0.00449256
0.000234624
-0.000223434
-0.00450265
0.000187956
-0.000177872
-0.00451138
0.0001438
-0.000135069
-0.00451881
0.000112281
-0.000104849
-0.00452473
8.39442e-05
-7.80201e-05