/*--------------------------------*- C++ -*----------------------------------*\
  =========                 |
  \\      /  F ield         | OpenFOAM: The Open Source CFD Toolbox
   \\    /   O peration     | Website:  https://openfoam.org
    \\  /    A nd           | Version:  7
     \\/     M anipulation  |
\*---------------------------------------------------------------------------*/
FoamFile
{
    version     2.0;
    format      ascii;
    class       volScalarField;
    location    "180";
    object      p;
}
// * * * * * * * * * * * * * * * * * * * * * * * * * * * * * * * * * * * * * //

dimensions      [0 2 -2 0 0 0 0];

internalField   nonuniform List<scalar> 
31800
(
-0.380921
-0.381691
-0.382051
-0.382329
-0.382752
-0.383535
-0.384864
-0.386865
-0.389626
-0.393212
-0.397688
-0.403123
-0.409594
-0.417172
-0.425909
-0.435807
-0.446788
-0.458655
-0.47105
-0.483413
-0.494952
-0.504645
-0.511242
-0.513497
-0.50971
-0.38429
-0.384633
-0.384787
-0.384927
-0.385262
-0.386014
-0.387369
-0.389467
-0.392404
-0.39626
-0.401114
-0.407051
-0.414169
-0.422557
-0.432285
-0.443372
-0.455745
-0.469202
-0.483367
-0.49764
-0.511166
-0.522838
-0.531261
-0.535148
-0.532211
-0.387548
-0.387464
-0.38741
-0.387406
-0.387644
-0.388349
-0.389714
-0.391884
-0.394968
-0.399057
-0.404241
-0.410623
-0.418313
-0.427419
-0.438023
-0.450155
-0.463746
-0.478587
-0.494281
-0.510193
-0.525415
-0.538779
-0.548742
-0.553997
-0.55168
-0.390647
-0.390146
-0.389882
-0.389728
-0.389859
-0.390502
-0.391854
-0.394068
-0.397263
-0.40154
-0.407002
-0.413761
-0.42194
-0.431659
-0.443012
-0.456032
-0.470653
-0.486655
-0.503624
-0.520893
-0.537508
-0.552251
-0.563446
-0.569845
-0.567893
-0.393549
-0.392647
-0.392173
-0.391864
-0.391875
-0.392438
-0.393751
-0.395975
-0.39924
-0.403655
-0.409333
-0.416396
-0.424974
-0.435195
-0.44716
-0.460904
-0.476359
-0.493293
-0.511272
-0.529607
-0.547302
-0.563126
-0.575229
-0.582547
-0.580705
-0.396218
-0.394937
-0.394259
-0.393789
-0.393669
-0.394131
-0.395376
-0.397573
-0.40086
-0.405359
-0.411187
-0.418473
-0.427353
-0.437961
-0.450397
-0.464698
-0.480787
-0.498424
-0.517155
-0.536274
-0.554742
-0.571352
-0.584041
-0.592053
-0.590063
-0.398629
-0.396998
-0.39612
-0.395486
-0.395222
-0.395561
-0.396706
-0.398834
-0.402095
-0.406617
-0.412524
-0.419951
-0.429035
-0.439911
-0.452679
-0.46737
-0.4839
-0.502018
-0.521253
-0.540887
-0.55984
-0.576957
-0.589924
-0.598408
-0.596013
-0.400761
-0.398814
-0.397746
-0.396946
-0.396525
-0.396717
-0.397729
-0.399745
-0.402926
-0.407407
-0.413322
-0.420804
-0.429994
-0.441022
-0.453986
-0.468909
-0.485697
-0.504088
-0.523597
-0.543501
-0.562672
-0.580039
-0.593002
-0.60174
-0.598691
-0.402603
-0.400379
-0.399132
-0.398166
-0.397577
-0.397599
-0.398441
-0.4003
-0.403345
-0.407723
-0.413569
-0.421022
-0.430221
-0.441291
-0.454322
-0.46933
-0.486209
-0.504687
-0.524263
-0.54422
-0.563375
-0.580769
-0.593468
-0.602247
-0.5983
-0.404149
-0.401692
-0.400281
-0.39915
-0.398382
-0.39821
-0.39885
-0.400506
-0.403359
-0.407567
-0.413272
-0.420614
-0.429729
-0.440737
-0.453719
-0.468679
-0.485501
-0.503902
-0.523369
-0.543194
-0.56213
-0.579356
-0.591564
-0.600166
-0.59509
-0.405402
-0.402759
-0.401201
-0.399908
-0.398952
-0.398566
-0.398969
-0.400377
-0.402984
-0.406959
-0.412452
-0.419604
-0.428549
-0.4394
-0.452228
-0.467026
-0.483665
-0.501854
-0.521064
-0.540604
-0.559156
-0.57604
-0.587561
-0.595753
-0.589329
-0.40637
-0.403592
-0.401905
-0.400456
-0.399306
-0.398687
-0.398822
-0.399939
-0.402247
-0.405929
-0.411143
-0.418033
-0.42673
-0.437341
-0.449925
-0.464465
-0.480818
-0.498687
-0.517525
-0.536657
-0.554691
-0.571073
-0.581734
-0.58926
-0.58129
-0.40707
-0.404206
-0.402413
-0.400815
-0.399467
-0.398599
-0.398438
-0.399226
-0.401188
-0.40452
-0.409394
-0.415957
-0.424338
-0.434637
-0.446904
-0.461109
-0.477099
-0.494565
-0.512942
-0.53157
-0.548976
-0.564702
-0.574341
-0.580914
-0.57123
-0.407522
-0.404624
-0.402746
-0.40101
-0.399463
-0.398333
-0.397853
-0.398279
-0.399852
-0.402787
-0.407266
-0.413445
-0.421452
-0.431382
-0.443275
-0.457089
-0.472657
-0.489662
-0.507514
-0.52556
-0.542239
-0.557151
-0.565607
-0.57091
-0.559386
-0.407753
-0.404872
-0.40293
-0.401067
-0.399323
-0.397923
-0.397107
-0.397144
-0.398295
-0.400792
-0.404832
-0.410581
-0.418168
-0.427685
-0.439163
-0.452546
-0.467654
-0.484158
-0.501438
-0.518831
-0.534688
-0.548607
-0.555712
-0.559413
-0.545971
-0.407794
-0.404978
-0.402995
-0.401017
-0.39908
-0.397407
-0.396243
-0.395873
-0.396575
-0.398603
-0.402171
-0.407455
-0.41459
-0.423664
-0.434699
-0.447629
-0.462255
-0.478228
-0.494897
-0.511563
-0.526489
-0.539217
-0.544784
-0.546568
-0.53119
-0.407681
-0.404974
-0.402971
-0.400891
-0.398768
-0.396821
-0.395305
-0.394517
-0.394756
-0.396296
-0.39937
-0.404167
-0.410829
-0.419442
-0.430022
-0.442487
-0.456619
-0.472041
-0.488053
-0.503905
-0.517764
-0.529082
-0.532911
-0.532518
-0.515255
-0.407452
-0.404895
-0.402892
-0.400722
-0.398421
-0.396206
-0.394339
-0.393131
-0.392902
-0.393946
-0.396517
-0.400819
-0.407
-0.415148
-0.42527
-0.437268
-0.450896
-0.465739
-0.481038
-0.495963
-0.508587
-0.518261
-0.520158
-0.517422
-0.498407
-0.407152
-0.404778
-0.40279
-0.400542
-0.398074
-0.3956
-0.39339
-0.391769
-0.391077
-0.39163
-0.393701
-0.397511
-0.403217
-0.410906
-0.420576
-0.432106
-0.445217
-0.459441
-0.473944
-0.487799
-0.49899
-0.506791
-0.506589
-0.501471
-0.480916
-0.406826
-0.404662
-0.402703
-0.400387
-0.397762
-0.395041
-0.392502
-0.390485
-0.389346
-0.389423
-0.391011
-0.394344
-0.399589
-0.406832
-0.416056
-0.427118
-0.439688
-0.453231
-0.466822
-0.479431
-0.488974
-0.494699
-0.492299
-0.484892
-0.463084
-0.406525
-0.404589
-0.402667
-0.400292
-0.397521
-0.394568
-0.391721
-0.38933
-0.38777
-0.387398
-0.388528
-0.391409
-0.396217
-0.403032
-0.41182
-0.422399
-0.434383
-0.447151
-0.459685
-0.470844
-0.478529
-0.482027
-0.477422
-0.467946
-0.445216
-0.4063
-0.4046
-0.40272
-0.400293
-0.397388
-0.394221
-0.391088
-0.388354
-0.386406
-0.385621
-0.386328
-0.388791
-0.393189
-0.399593
-0.407944
-0.418011
-0.42934
-0.441207
-0.452505
-0.462001
-0.467656
-0.468852
-0.462137
-0.450907
-0.4276
-0.406206
-0.404739
-0.402901
-0.400426
-0.397398
-0.394037
-0.390648
-0.387605
-0.385311
-0.384154
-0.38448
-0.386562
-0.390576
-0.396581
-0.404481
-0.413986
-0.424557
-0.435368
-0.445237
-0.452871
-0.456382
-0.455288
-0.446659
-0.434037
-0.410475
-0.406296
-0.40505
-0.403249
-0.400727
-0.397588
-0.394055
-0.39044
-0.387128
-0.384531
-0.383051
-0.383041
-0.384778
-0.388432
-0.394038
-0.401454
-0.410318
-0.420001
-0.429578
-0.437826
-0.443439
-0.444772
-0.441484
-0.431211
-0.417569
-0.394024
-0.406624
-0.405576
-0.403802
-0.401235
-0.397994
-0.394311
-0.390504
-0.386965
-0.384112
-0.382355
-0.382052
-0.383477
-0.386785
-0.391976
-0.398852
-0.406969
-0.415611
-0.423771
-0.430229
-0.433723
-0.432927
-0.427608
-0.41601
-0.40168
-0.378365
-0.40724
-0.406357
-0.404597
-0.401982
-0.398651
-0.394839
-0.390873
-0.387148
-0.384086
-0.382099
-0.381542
-0.382679
-0.38564
-0.39038
-0.396634
-0.403876
-0.41131
-0.417883
-0.422428
-0.423777
-0.420968
-0.413819
-0.401231
-0.386477
-0.363554
-0.408194
-0.407431
-0.405668
-0.403001
-0.399587
-0.395669
-0.391576
-0.387705
-0.384478
-0.3823
-0.381519
-0.382379
-0.384974
-0.389205
-0.394734
-0.400957
-0.407021
-0.411869
-0.414434
-0.413688
-0.409026
-0.400256
-0.386985
-0.371938
-0.349552
-0.409524
-0.408831
-0.407044
-0.40432
-0.40083
-0.396824
-0.392634
-0.388653
-0.385296
-0.382959
-0.381973
-0.38255
-0.384741
-0.388384
-0.393068
-0.398126
-0.402678
-0.405709
-0.406288
-0.403563
-0.397231
-0.387047
-0.373303
-0.357839
-0.336206
-0.411266
-0.410584
-0.40875
-0.405959
-0.402398
-0.39832
-0.394057
-0.389995
-0.386538
-0.384063
-0.382874
-0.383146
-0.384876
-0.387834
-0.391546
-0.395302
-0.398233
-0.399408
-0.398057
-0.393517
-0.385711
-0.374336
-0.360197
-0.343849
-0.323308
-0.413443
-0.412711
-0.410805
-0.407936
-0.404304
-0.400165
-0.395848
-0.391726
-0.388186
-0.385581
-0.384178
-0.384105
-0.385298
-0.387465
-0.39008
-0.392417
-0.393658
-0.392993
-0.389819
-0.383659
-0.374582
-0.362273
-0.347762
-0.330096
-0.310727
-0.416073
-0.415227
-0.413222
-0.41026
-0.406553
-0.402358
-0.397998
-0.393829
-0.390213
-0.387471
-0.385827
-0.385352
-0.385922
-0.387187
-0.388589
-0.389422
-0.38895
-0.386506
-0.381651
-0.374076
-0.363929
-0.350945
-0.336143
-0.317762
-0.298744
-0.419163
-0.418141
-0.416006
-0.412934
-0.409143
-0.404893
-0.400492
-0.396278
-0.392583
-0.389684
-0.387755
-0.386809
-0.38666
-0.386915
-0.387009
-0.386287
-0.384121
-0.379997
-0.373626
-0.364834
-0.353808
-0.340344
-0.32531
-0.30714
-0.288997
-0.422717
-0.421454
-0.41916
-0.415957
-0.41207
-0.407757
-0.403312
-0.399046
-0.395253
-0.392166
-0.389897
-0.388399
-0.387432
-0.386578
-0.385292
-0.382999
-0.379195
-0.373516
-0.365802
-0.355976
-0.344241
-0.330437
-0.315333
-0.29755
-0.280081
-0.426725
-0.425167
-0.422681
-0.419325
-0.415325
-0.410937
-0.406435
-0.402101
-0.398184
-0.394862
-0.392185
-0.390047
-0.388165
-0.386117
-0.383407
-0.379558
-0.374202
-0.367109
-0.358218
-0.347522
-0.335221
-0.32119
-0.3061
-0.288768
-0.272027
-0.431178
-0.429274
-0.426566
-0.423032
-0.418898
-0.414418
-0.409842
-0.405414
-0.401335
-0.397721
-0.394558
-0.391686
-0.388797
-0.385488
-0.381335
-0.375979
-0.369176
-0.360813
-0.350899
-0.339475
-0.326723
-0.312543
-0.297525
-0.280639
-0.264493
-0.436066
-0.433769
-0.430809
-0.427073
-0.422783
-0.418189
-0.413514
-0.408959
-0.404669
-0.400694
-0.396959
-0.393257
-0.389277
-0.38466
-0.379074
-0.372278
-0.364145
-0.354652
-0.343857
-0.331823
-0.318709
-0.304435
-0.289514
-0.273039
-0.257405
-0.441376
-0.438645
-0.435406
-0.431442
-0.426973
-0.422241
-0.417437
-0.412714
-0.408152
-0.403736
-0.399333
-0.394709
-0.389567
-0.383616
-0.376629
-0.368478
-0.359136
-0.348644
-0.337088
-0.32454
-0.311134
-0.296802
-0.281987
-0.265886
-0.250679
-0.447096
-0.443895
-0.440352
-0.436138
-0.431467
-0.42657
-0.421601
-0.416657
-0.411753
-0.406806
-0.401636
-0.395999
-0.38964
-0.38235
-0.374011
-0.364601
-0.354166
-0.342794
-0.330581
-0.317598
-0.303951
-0.289585
-0.274874
-0.259108
-0.244265
-0.453214
-0.449514
-0.445646
-0.44116
-0.436263
-0.431171
-0.425995
-0.42077
-0.415441
-0.409863
-0.403825
-0.397094
-0.389476
-0.380861
-0.371236
-0.360663
-0.349248
-0.3371
-0.324317
-0.31096
-0.297113
-0.282725
-0.268114
-0.252647
-0.238118
-0.459722
-0.455496
-0.451285
-0.446509
-0.441363
-0.436044
-0.430611
-0.425032
-0.419184
-0.41287
-0.405862
-0.397966
-0.389067
-0.379157
-0.368318
-0.356681
-0.344386
-0.331554
-0.318272
-0.304592
-0.290574
-0.276173
-0.261653
-0.246455
-0.232198
-0.466609
-0.461837
-0.457269
-0.452186
-0.446768
-0.441185
-0.435437
-0.429422
-0.422951
-0.415788
-0.407716
-0.398596
-0.38841
-0.377248
-0.365272
-0.352663
-0.33958
-0.32614
-0.31242
-0.298457
-0.28429
-0.269881
-0.255444
-0.240487
-0.22647
-0.473868
-0.468531
-0.463595
-0.458193
-0.452478
-0.446588
-0.440458
-0.433912
-0.426705
-0.418581
-0.409356
-0.39897
-0.387505
-0.375143
-0.362109
-0.348614
-0.334823
-0.320842
-0.306732
-0.292517
-0.27822
-0.263806
-0.249444
-0.234707
-0.220902
-0.481489
-0.475572
-0.470261
-0.464526
-0.458489
-0.452244
-0.445652
-0.438471
-0.430408
-0.421213
-0.410758
-0.399079
-0.386357
-0.372853
-0.358838
-0.344535
-0.330105
-0.315638
-0.301179
-0.286739
-0.272326
-0.257909
-0.243617
-0.229079
-0.215464
-0.489458
-0.482951
-0.477259
-0.47118
-0.464791
-0.458133
-0.450992
-0.44306
-0.43402
-0.423649
-0.411901
-0.398916
-0.384969
-0.370385
-0.35546
-0.340421
-0.325411
-0.310506
-0.295733
-0.28109
-0.266574
-0.252155
-0.237927
-0.223574
-0.210131
-0.497758
-0.490653
-0.484579
-0.478143
-0.471367
-0.46423
-0.456441
-0.447636
-0.437497
-0.425856
-0.412766
-0.398476
-0.383345
-0.367742
-0.351977
-0.336263
-0.320727
-0.305423
-0.290364
-0.275539
-0.26093
-0.246511
-0.232344
-0.218165
-0.204877
-0.506369
-0.49866
-0.492203
-0.485397
-0.478193
-0.470502
-0.461955
-0.452152
-0.440795
-0.427801
-0.413337
-0.397756
-0.381487
-0.364927
-0.348383
-0.33205
-0.316032
-0.300365
-0.285047
-0.270055
-0.255365
-0.240948
-0.226842
-0.212824
-0.199681
-0.515261
-0.506948
-0.500108
-0.492915
-0.485236
-0.476904
-0.467482
-0.456552
-0.443868
-0.429454
-0.413597
-0.39675
-0.379393
-0.361936
-0.34467
-0.327768
-0.311308
-0.295308
-0.279753
-0.264612
-0.249851
-0.23544
-0.221393
-0.20753
-0.194521
-0.5244
-0.515486
-0.508264
-0.500663
-0.492453
-0.483385
-0.472965
-0.460782
-0.446672
-0.430785
-0.413533
-0.395453
-0.377061
-0.358763
-0.340828
-0.3234
-0.306534
-0.29023
-0.274459
-0.259183
-0.244361
-0.229961
-0.215975
-0.202262
-0.18938
-0.533742
-0.524235
-0.516632
-0.508598
-0.499791
-0.489883
-0.478338
-0.464781
-0.44916
-0.431766
-0.413129
-0.393857
-0.374483
-0.355399
-0.336842
-0.318929
-0.301689
-0.285106
-0.26914
-0.253744
-0.238873
-0.224488
-0.210566
-0.197
-0.18424
-0.543237
-0.533148
-0.525165
-0.516666
-0.50719
-0.49633
-0.483533
-0.468491
-0.45129
-0.432368
-0.41237
-0.391952
-0.371651
-0.351832
-0.332698
-0.314336
-0.296752
-0.279914
-0.263773
-0.248273
-0.233363
-0.219001
-0.205148
-0.191725
-0.179085
-0.552826
-0.542172
-0.533806
-0.524807
-0.514579
-0.502652
-0.488477
-0.471851
-0.453017
-0.432566
-0.41124
-0.389727
-0.368552
-0.348047
-0.328379
-0.309602
-0.291703
-0.274634
-0.258337
-0.242749
-0.227812
-0.21348
-0.199702
-0.186423
-0.1739
-0.56244
-0.551243
-0.542492
-0.532948
-0.521881
-0.508766
-0.493095
-0.474801
-0.4543
-0.432333
-0.40972
-0.387167
-0.365173
-0.344029
-0.323865
-0.304707
-0.28652
-0.269245
-0.252812
-0.237151
-0.222201
-0.207907
-0.194211
-0.181077
-0.168671
-0.572006
-0.560292
-0.55115
-0.541012
-0.529009
-0.514588
-0.497313
-0.477282
-0.4551
-0.431643
-0.407793
-0.384256
-0.361495
-0.339759
-0.319139
-0.299632
-0.281185
-0.263726
-0.247177
-0.231462
-0.216511
-0.202266
-0.18866
-0.175673
-0.163388
-0.58144
-0.56924
-0.559698
-0.54891
-0.535874
-0.52003
-0.501055
-0.479239
-0.455377
-0.430469
-0.405439
-0.380977
-0.357503
-0.335219
-0.31418
-0.294356
-0.275678
-0.25806
-0.241415
-0.225662
-0.210726
-0.196541
-0.183036
-0.1702
-0.158038
-0.590653
-0.578
-0.568049
-0.556549
-0.542378
-0.525003
-0.504247
-0.480616
-0.455094
-0.428785
-0.402638
-0.377311
-0.353176
-0.33039
-0.30897
-0.288862
-0.26998
-0.252228
-0.23551
-0.219738
-0.204832
-0.190719
-0.177325
-0.164644
-0.152612
-0.59955
-0.586482
-0.576106
-0.563831
-0.548425
-0.529418
-0.506819
-0.481363
-0.454214
-0.426565
-0.399367
-0.373237
-0.348496
-0.325252
-0.303489
-0.283131
-0.264074
-0.246213
-0.229444
-0.213673
-0.198814
-0.184786
-0.171515
-0.158996
-0.1471
-0.608031
-0.594588
-0.58377
-0.57065
-0.553912
-0.533187
-0.508701
-0.48143
-0.452705
-0.423784
-0.395605
-0.368737
-0.343443
-0.319786
-0.297719
-0.277144
-0.257943
-0.24
-0.223204
-0.207455
-0.192659
-0.178732
-0.165597
-0.153245
-0.141494
-0.615989
-0.602214
-0.590935
-0.576901
-0.558741
-0.536225
-0.509829
-0.480771
-0.450533
-0.420416
-0.391331
-0.363788
-0.337996
-0.313973
-0.291643
-0.270885
-0.251571
-0.233574
-0.216776
-0.20107
-0.186357
-0.172545
-0.15956
-0.147383
-0.135787
-0.623318
-0.609255
-0.597493
-0.582475
-0.56281
-0.53845
-0.510141
-0.479343
-0.447667
-0.416437
-0.386522
-0.358371
-0.332136
-0.307795
-0.285241
-0.264338
-0.244944
-0.226922
-0.210148
-0.194506
-0.179895
-0.166217
-0.153395
-0.141402
-0.129974
-0.629909
-0.615603
-0.603333
-0.587266
-0.566026
-0.539785
-0.509582
-0.477106
-0.444078
-0.411823
-0.381157
-0.352466
-0.325846
-0.301234
-0.2785
-0.257489
-0.238048
-0.220031
-0.203307
-0.187755
-0.173266
-0.159738
-0.147097
-0.135297
-0.124051
-0.63565
-0.621147
-0.608345
-0.591168
-0.568295
-0.540158
-0.5081
-0.474025
-0.439738
-0.40655
-0.375216
-0.346054
-0.319106
-0.294275
-0.271404
-0.250325
-0.230871
-0.212891
-0.196245
-0.180806
-0.166461
-0.153102
-0.140656
-0.129064
-0.118022
-0.640433
-0.625779
-0.612421
-0.594077
-0.56953
-0.539503
-0.505647
-0.470064
-0.434622
-0.400599
-0.36868
-0.339116
-0.311901
-0.286901
-0.26394
-0.242832
-0.223403
-0.205492
-0.188952
-0.173652
-0.159472
-0.146301
-0.134068
-0.122699
-0.111883
-0.644151
-0.629391
-0.615454
-0.595897
-0.569651
-0.53776
-0.502182
-0.465196
-0.428708
-0.393948
-0.36153
-0.331638
-0.304216
-0.279101
-0.256095
-0.235001
-0.215634
-0.197825
-0.181421
-0.166285
-0.152294
-0.13933
-0.127325
-0.116193
-0.105617
-0.6467
-0.631879
-0.617341
-0.596535
-0.568585
-0.534876
-0.497668
-0.459395
-0.421975
-0.386582
-0.353751
-0.323603
-0.296037
-0.270862
-0.247861
-0.226823
-0.207556
-0.189883
-0.173646
-0.158702
-0.144921
-0.132184
-0.120425
-0.109536
-0.099179
-0.647981
-0.633144
-0.617988
-0.595907
-0.566264
-0.530804
-0.492075
-0.452637
-0.414406
-0.378483
-0.345329
-0.315
-0.287354
-0.262174
-0.239227
-0.218291
-0.199163
-0.181662
-0.165621
-0.150896
-0.13735
-0.12486
-0.113368
-0.102732
-0.0925474
-0.647903
-0.633091
-0.617303
-0.593936
-0.562632
-0.525506
-0.485376
-0.444906
-0.405985
-0.369641
-0.336252
-0.305817
-0.278157
-0.25303
-0.230187
-0.209398
-0.19045
-0.173156
-0.157344
-0.142866
-0.129577
-0.117358
-0.106152
-0.095782
-0.0858057
-0.646378
-0.631634
-0.615205
-0.590555
-0.55764
-0.51895
-0.477552
-0.436187
-0.396703
-0.360043
-0.32651
-0.296047
-0.268439
-0.243423
-0.220737
-0.20014
-0.181413
-0.164362
-0.148812
-0.134609
-0.121603
-0.109681
-0.098779
-0.0886618
-0.0789903
-0.64333
-0.628693
-0.611622
-0.585704
-0.551247
-0.51111
-0.468587
-0.42647
-0.38655
-0.349684
-0.316098
-0.285685
-0.258196
-0.23335
-0.210873
-0.190514
-0.172049
-0.155282
-0.140024
-0.126127
-0.11343
-0.101824
-0.0912422
-0.0813991
-0.0720627
-0.63869
-0.624199
-0.606491
-0.579336
-0.543421
-0.501969
-0.458472
-0.415749
-0.375522
-0.338558
-0.305012
-0.274725
-0.247424
-0.222809
-0.200593
-0.180521
-0.162356
-0.145919
-0.130985
-0.117418
-0.105057
-0.0937892
-0.083545
-0.0739979
-0.0650102
-0.632398
-0.618092
-0.599758
-0.571413
-0.534142
-0.491517
-0.447204
-0.404023
-0.363619
-0.326666
-0.29325
-0.26317
-0.236124
-0.211799
-0.1899
-0.170164
-0.15235
-0.136261
-0.121691
-0.108485
-0.0964853
-0.0855797
-0.0756912
-0.0664586
-0.0578319
-0.624406
-0.610322
-0.591383
-0.561906
-0.523395
-0.479752
-0.434784
-0.391296
-0.350842
-0.314009
-0.280815
-0.251019
-0.224298
-0.200325
-0.178799
-0.159444
-0.142022
-0.126322
-0.112148
-0.0993324
-0.0877189
-0.0771983
-0.0676846
-0.058782
-0.0505314
-0.614676
-0.600849
-0.581333
-0.550798
-0.511176
-0.466676
-0.42122
-0.377573
-0.337199
-0.300593
-0.267711
-0.238279
-0.211954
-0.188394
-0.167291
-0.148367
-0.131377
-0.116106
-0.102359
-0.089964
-0.0787625
-0.0686497
-0.0595292
-0.050971
-0.0431136
-0.603182
-0.589647
-0.56959
-0.538084
-0.49749
-0.452301
-0.406523
-0.362869
-0.3227
-0.286425
-0.253947
-0.22496
-0.199097
-0.17601
-0.155385
-0.136938
-0.120423
-0.105619
-0.0923321
-0.0803859
-0.0696219
-0.0599392
-0.0512301
-0.0430304
-0.0355839
-0.589908
-0.576699
-0.556145
-0.523765
-0.48235
-0.436645
-0.390712
-0.347197
-0.307358
-0.27152
-0.23954
-0.211071
-0.185738
-0.163184
-0.14309
-0.125168
-0.109169
-0.0948697
-0.0820743
-0.0706054
-0.0603039
-0.0510735
-0.042793
-0.034966
-0.0279483
-0.574849
-0.562
-0.541002
-0.507855
-0.465776
-0.41973
-0.37381
-0.33058
-0.291191
-0.255899
-0.224498
-0.196624
-0.171889
-0.149928
-0.130417
-0.113067
-0.0976247
-0.0838663
-0.0715948
-0.060631
-0.0508167
-0.0420601
-0.0342251
-0.0267849
-0.0202135
-0.558014
-0.545558
-0.524173
-0.490378
-0.447797
-0.401587
-0.355846
-0.313043
-0.274227
-0.239575
-0.208841
-0.181638
-0.157566
-0.136256
-0.11738
-0.100647
-0.0858018
-0.07262
-0.0609036
-0.0504723
-0.0411694
-0.0329076
-0.0255345
-0.018495
-0.0123869
-0.539421
-0.527388
-0.505684
-0.471365
-0.428449
-0.382254
-0.336853
-0.294615
-0.256486
-0.222574
-0.19259
-0.166131
-0.142787
-0.122185
-0.103994
-0.0879223
-0.0737137
-0.0611432
-0.0500123
-0.0401402
-0.0313724
-0.0236257
-0.0167303
-0.0101057
-0.00447677
-0.5191
-0.507522
-0.485569
-0.450857
-0.407779
-0.361776
-0.316862
-0.275327
-0.238
-0.204921
-0.17577
-0.150125
-0.127572
-0.107733
-0.0902761
-0.074909
-0.061375
-0.0494494
-0.0389337
-0.0296468
-0.021437
-0.014225
-0.00782265
-0.00162691
0.00350786
-0.49709
-0.485996
-0.463869
-0.428902
-0.385846
-0.340202
-0.295913
-0.255217
-0.218801
-0.186648
-0.158408
-0.133647
-0.111944
-0.0929213
-0.0762456
-0.0616246
-0.0488021
-0.0375538
-0.0276817
-0.0190051
-0.0113756
-0.00471725
0.00117739
0.00693006
0.0115568
-0.473441
-0.462859
-0.440639
-0.405565
-0.3627
-0.317548
-0.274078
-0.234329
-0.198926
-0.167786
-0.140533
-0.116722
-0.0959278
-0.0777726
-0.0619233
-0.0480882
-0.0360123
-0.0254725
-0.0162714
-0.00822935
-0.00120177
0.00488498
0.0102578
0.015553
0.0196584
-0.44821
-0.438174
-0.415956
-0.380948
-0.338333
-0.293905
-0.251387
-0.212708
-0.178417
-0.148374
-0.122179
-0.09938
-0.0795505
-0.0623116
-0.0473317
-0.0343206
-0.0230249
-0.0132229
-0.00471895
0.00266536
0.00907025
0.0145682
0.0194057
0.0242281
0.0277999
-0.421461
-0.412011
-0.389905
-0.355151
-0.312782
-0.269316
-0.227897
-0.190402
-0.157316
-0.128448
-0.103381
-0.0816541
-0.0628413
-0.0465649
-0.0324951
-0.0203438
-0.0098598
-0.000823737
0.00695855
0.013663
0.0194253
0.0243179
0.0286067
0.0329392
0.0359661
-0.393267
-0.384451
-0.36254
-0.327928
-0.286419
-0.243878
-0.203668
-0.167466
-0.13567
-0.108053
-0.0841766
-0.0635781
-0.0458313
-0.0305608
-0.0174392
-0.00618128
0.00346146
0.0117056
0.0187432
0.0247471
0.0298475
0.0341191
0.0378452
0.0416671
0.0441351
-0.363711
-0.355583
-0.333909
-0.299667
-0.259086
-0.217652
-0.178765
-0.143953
-0.11353
-0.0872314
-0.0646062
-0.0451884
-0.0285536
-0.0143293
-0.00219127
0.00814229
0.0169165
0.0243447
0.0306164
0.0359002
0.0403209
0.0439566
0.0471058
0.0503909
0.0522768
-0.332875
-0.325507
-0.304062
-0.270474
-0.230882
-0.190707
-0.153253
-0.119921
-0.0909466
-0.066031
-0.0447121
-0.0265233
-0.0110428
0.00209828
0.0132202
0.022601
0.0304817
0.0370723
0.0425588
0.0471047
0.0508284
0.0538147
0.0563756
0.0590956
0.0603715
-0.300835
-0.294308
-0.273217
-0.240381
-0.201903
-0.163119
-0.127201
-0.0954321
-0.0679746
-0.0445004
-0.0245386
-0.00762293
0.00666476
0.018689
0.0287655
0.0371679
0.0441328
0.0498663
0.0545506
0.0583419
0.0613517
0.0636777
0.0656449
0.0677733
0.0684166
-0.267718
-0.262118
-0.241469
-0.209478
-0.172241
-0.134965
-0.100679
-0.0705483
-0.0446706
-0.0226908
-0.00413171
0.0114711
0.0245314
0.0354086
0.0444136
0.051815
0.0578445
0.0627043
0.0665714
0.0695926
0.071873
0.0735329
0.074906
0.0763924
0.0763171
-0.233798
-0.228921
-0.208896
-0.177866
-0.141989
-0.106329
-0.0737598
-0.0453352
-0.0210931
-0.000654903
0.0164609
0.0307156
0.042518
0.0522219
0.0601326
0.0665134
0.071591
0.0755629
0.0786003
0.0808382
0.0823794
0.0833786
0.0841486
0.084835
0.0837321
-0.199071
-0.194898
-0.175603
-0.145647
-0.111243
-0.0772934
-0.0465176
-0.0198598
0.0026976
0.0215529
0.03719
0.0500662
0.0605844
0.0690924
0.0758896
0.0812334
0.0853454
0.0884184
0.0906159
0.0920614
0.0928649
0.0932239
0.0933545
0.0929428
0.0903731
-0.163623
-0.1602
-0.141702
-0.112928
-0.0800973
-0.0479451
-0.0190295
0.00580931
0.0266398
0.043877
0.0580053
0.0694774
0.0786894
0.0859828
0.0916507
0.0959445
0.0990803
0.101246
0.102596
0.103245
0.103324
0.103063
0.102483
0.100751
0.0969914
-0.127584
-0.124948
-0.107311
-0.079816
-0.048652
-0.0183716
0.00862634
0.0316021
0.0506705
0.0662603
0.0788555
0.0889026
0.0967909
0.102855
0.107382
0.110615
0.112767
0.114019
0.114517
0.114372
0.113738
0.112847
0.11146
0.108466
0.105935
-0.091086
-0.0892651
-0.0725482
-0.0464214
-0.0170058
0.0113383
0.0363707
0.0574474
0.0747256
0.0886453
0.0996883
0.108295
0.114846
0.119671
0.123047
0.125215
0.126378
0.126712
0.126356
0.125422
0.124078
0.122515
0.120315
0.116616
0.114875
-0.0542594
-0.0532746
-0.0375359
-0.0128553
0.0147411
0.0410951
0.0641235
0.0832735
0.0987404
0.110973
0.120451
0.127606
0.132812
0.13639
0.138612
0.13971
0.139882
0.139298
0.13809
0.136373
0.134317
0.13206
0.129124
0.12497
0.123349
-0.0172353
-0.0171027
-0.00239501
0.0207705
0.0464881
0.0708089
0.0918043
0.109008
0.12265
0.133186
0.14109
0.146787
0.150645
0.152974
0.15404
0.154068
0.153251
0.151751
0.149695
0.147199
0.144428
0.141479
0.137882
0.133349
0.131537
0.0198543
0.0191232
0.0327526
0.0543442
0.0781346
0.10039
0.119332
0.134578
0.146388
0.155223
0.161552
0.165792
0.1683
0.169382
0.169295
0.168257
0.166455
0.164043
0.161145
0.157876
0.154392
0.15076
0.146548
0.141622
0.13946
0.0568776
0.0552753
0.0677856
0.0877544
0.10958
0.129748
0.146627
0.159912
0.16989
0.177026
0.181783
0.18457
0.185735
0.185576
0.184342
0.182244
0.179463
0.176147
0.172415
0.16838
0.164187
0.159888
0.155086
0.149742
0.147141
0.0937033
0.091226
0.102583
0.120891
0.140726
0.158793
0.173609
0.184937
0.193091
0.198537
0.201731
0.203073
0.202905
0.201514
0.199143
0.195996
0.192246
0.188036
0.183481
0.178688
0.173794
0.16884
0.163462
0.15768
0.154593
0.130201
0.126849
0.137025
0.153643
0.171472
0.187439
0.200198
0.209581
0.215925
0.219696
0.221342
0.221255
0.219768
0.217159
0.213665
0.209481
0.204775
0.199683
0.194316
0.188776
0.183192
0.177596
0.171651
0.165421
0.161818
0.166241
0.162018
0.170994
0.185904
0.201723
0.215597
0.226316
0.233775
0.23833
0.240445
0.240563
0.239067
0.236279
0.232471
0.22787
0.222667
0.217021
0.211062
0.204897
0.198623
0.192361
0.186136
0.179634
0.172949
0.168815
0.201696
0.196609
0.204373
0.217568
0.231382
0.243182
0.251886
0.257448
0.260241
0.260729
0.259344
0.256462
0.252397
0.247411
0.241725
0.235522
0.228954
0.222147
0.2152
0.208207
0.201281
0.19444
0.187392
0.180254
0.175579
0.236442
0.230503
0.237048
0.24853
0.260357
0.27011
0.276832
0.280532
0.281598
0.28049
0.277634
0.273396
0.26808
0.261943
0.255196
0.248015
0.240547
0.232911
0.225201
0.217506
0.209932
0.202491
0.19491
0.187323
0.182106
0.270356
0.263579
0.268909
0.27869
0.288557
0.2963
0.301081
0.302961
0.30234
0.299675
0.295383
0.289822
0.283288
0.276029
0.268248
0.260116
0.251772
0.243329
0.234878
0.226501
0.218296
0.210271
0.202172
0.194145
0.188387
0.303321
0.295723
0.299848
0.30795
0.315892
0.321671
0.324561
0.32467
0.322408
0.31823
0.312544
0.305698
0.297981
0.289633
0.28085
0.271796
0.262603
0.253379
0.244208
0.23517
0.226355
0.217763
0.209164
0.200709
0.194415
0.335219
0.326824
0.329761
0.336215
0.342279
0.346148
0.347204
0.345597
0.341747
0.336103
0.329069
0.320981
0.312121
0.302721
0.29297
0.283025
0.273013
0.263035
0.253171
0.243496
0.23409
0.224954
0.215873
0.207001
0.200181
0.365942
0.356773
0.358546
0.363394
0.367634
0.369656
0.368941
0.36568
0.3603
0.353246
0.344913
0.335631
0.325671
0.315259
0.304578
0.293777
0.282977
0.272276
0.261746
0.251459
0.241487
0.231827
0.222284
0.213012
0.205677
0.395382
0.385468
0.386109
0.389399
0.39188
0.392125
0.389709
0.384861
0.378015
0.369611
0.360034
0.349608
0.338596
0.327216
0.315645
0.304025
0.292473
0.281079
0.269914
0.259041
0.248528
0.238368
0.228386
0.21873
0.210894
0.423437
0.412811
0.412358
0.414147
0.414941
0.413486
0.409448
0.403087
0.394843
0.385152
0.374391
0.362875
0.350861
0.33856
0.326142
0.313744
0.301476
0.289425
0.277655
0.266226
0.255198
0.244564
0.234166
0.224144
0.215825
0.450012
0.438707
0.437205
0.43756
0.436746
0.433676
0.428098
0.420303
0.410736
0.399825
0.387943
0.375396
0.362435
0.349262
0.336044
0.32291
0.309966
0.297293
0.284952
0.272998
0.261484
0.250401
0.239611
0.229244
0.220462
0.475016
0.463071
0.460569
0.459563
0.457228
0.452634
0.445606
0.436461
0.425648
0.413591
0.400655
0.387139
0.373286
0.359296
0.345325
0.3315
0.317921
0.304665
0.291788
0.279341
0.267371
0.255868
0.244712
0.234019
0.224797
0.498363
0.485818
0.482374
0.480086
0.476325
0.470305
0.46192
0.451515
0.439538
0.426412
0.412491
0.398071
0.383388
0.368634
0.353962
0.339494
0.325323
0.311523
0.298147
0.285241
0.272846
0.260953
0.249457
0.23846
0.228823
0.519974
0.506874
0.502549
0.499067
0.493979
0.486635
0.476994
0.465421
0.452368
0.438251
0.42342
0.408164
0.392713
0.377254
0.361934
0.346871
0.332154
0.317852
0.304016
0.290686
0.277898
0.265645
0.253836
0.242558
0.232535
0.539778
0.526167
0.521029
0.516445
0.510136
0.501577
0.490783
0.478139
0.4641
0.449076
0.433413
0.417391
0.401237
0.385133
0.369221
0.353613
0.338397
0.323637
0.309379
0.295662
0.282516
0.269934
0.25784
0.246306
0.235925
0.557708
0.543635
0.537754
0.532166
0.524749
0.515087
0.503248
0.489635
0.474703
0.458858
0.442441
0.425727
0.408938
0.392251
0.375803
0.359705
0.344038
0.328863
0.314226
0.300159
0.28669
0.273812
0.261461
0.249696
0.238988
0.573704
0.559219
0.552672
0.546184
0.537774
0.527126
0.514354
0.499876
0.484147
0.467571
0.450482
0.433151
0.415797
0.39859
0.381666
0.365131
0.349062
0.33352
0.318545
0.304168
0.290411
0.277269
0.264692
0.25272
0.241721
0.587715
0.572871
0.565735
0.558455
0.549172
0.537658
0.524068
0.508832
0.492406
0.47519
0.457513
0.439644
0.421794
0.404134
0.386795
0.369877
0.353459
0.337596
0.322326
0.307678
0.293671
0.2803
0.267525
0.255373
0.244118
0.599696
0.584545
0.576904
0.568943
0.558911
0.546655
0.532365
0.516481
0.499458
0.481695
0.463517
0.445188
0.426917
0.40887
0.391176
0.373934
0.357218
0.341081
0.325561
0.310683
0.296463
0.282897
0.269956
0.257651
0.246175
0.609608
0.594206
0.586145
0.577617
0.566962
0.554092
0.539221
0.5228
0.505285
0.48707
0.468478
0.449769
0.431151
0.412786
0.3948
0.377291
0.36033
0.343969
0.328243
0.313176
0.298781
0.285056
0.271978
0.259548
0.247891
0.617421
0.601825
0.59343
0.584452
0.573304
0.559947
0.544618
0.527774
0.509871
0.4913
0.472383
0.453377
0.434487
0.415872
0.397659
0.379941
0.362789
0.346253
0.330366
0.315152
0.300621
0.286772
0.273587
0.26106
0.249261
0.623113
0.607378
0.598739
0.58943
0.57792
0.564206
0.548543
0.53139
0.513205
0.494376
0.475224
0.456003
0.436916
0.418122
0.399745
0.381877
0.364588
0.347927
0.331926
0.316607
0.301979
0.288042
0.274782
0.262186
0.250286
0.626666
0.610851
0.602057
0.592538
0.580798
0.566859
0.550985
0.533639
0.515278
0.496291
0.476993
0.45764
0.438434
0.419531
0.401055
0.383097
0.365725
0.348989
0.33292
0.317538
0.302853
0.288863
0.275559
0.262926
0.25097
0.628075
0.612237
0.603379
0.59377
0.581933
0.5679
0.55194
0.534518
0.516089
0.49704
0.477688
0.458287
0.439037
0.420096
0.401585
0.383597
0.366198
0.349437
0.333346
0.317944
0.303241
0.289235