/*--------------------------------*- C++ -*----------------------------------*\
  =========                 |
  \\      /  F ield         | OpenFOAM: The Open Source CFD Toolbox
   \\    /   O peration     | Website:  https://openfoam.org
    \\  /    A nd           | Version:  7
     \\/     M anipulation  |
\*---------------------------------------------------------------------------*/
FoamFile
{
    version     2.0;
    format      ascii;
    class       surfaceScalarField;
    location    "180";
    object      phi;
}
// * * * * * * * * * * * * * * * * * * * * * * * * * * * * * * * * * * * * * //

dimensions      [0 3 -1 0 0 0 0];

internalField   nonuniform List<scalar> 
63130
(
-9.78754e-07
9.43225e-05
-9.33437e-05
-4.60822e-06
0.000259405
-0.000255775
-1.16068e-05
0.000408595
-0.000401597
-2.24593e-05
0.000539788
-0.000528936
-3.73411e-05
0.00065244
-0.000637558
-5.6117e-05
0.000747886
-0.00072911
-7.8395e-05
0.000829026
-0.000806748
-0.00010361
0.000899703
-0.000874488
-0.000131108
0.000963892
-0.000936394
-0.000160211
0.0010249
-0.000995798
-0.000190235
0.00108476
-0.00105474
-0.000220483
0.00114388
-0.00111363
-0.000250185
0.00120091
-0.0011712
-0.000278438
0.00125275
-0.0012245
-0.000304143
0.00129465
-0.00126895
-0.000325951
0.00132021
-0.0012984
-0.000342262
0.00132143
-0.00130512
-0.000351254
0.00128882
-0.00127983
-0.000350975
0.00121162
-0.0012119
-0.000339436
0.00107814
-0.00108968
-0.000314732
0.000876486
-0.00090119
-0.000275156
0.000595487
-0.000635063
-0.000218646
0.000225091
-0.000281601
-0.000143521
-0.000239098
0.000163973
-0.000800505
0.000703045
-4.60616e-05
-2.82022e-07
9.46045e-05
-2.16921e-06
0.000261292
-6.6152e-06
0.000413041
-1.43048e-05
0.000547478
-2.55725e-05
0.000663708
-4.03869e-05
0.000762701
-5.83973e-05
0.000847036
-7.90168e-05
0.000920322
-0.000101514
0.00098639
-0.00012509
0.00104848
-0.000148916
0.00110859
-0.000172133
0.0011671
-0.00019382
0.00122259
-0.000212937
0.00127187
-0.000228282
0.00131
-0.000238458
0.00133039
-0.000241888
0.00132486
-0.000236873
0.00128381
-0.000221717
0.00119646
-0.000194798
0.00105122
-0.000154669
0.000836356
-0.000100317
0.000541135
-3.01078e-05
0.000154882
5.74692e-05
-0.000326675
-0.000909341
0.000166305
4.04866e-07
9.41996e-05
2.51284e-07
0.000261445
-1.61154e-06
0.000414904
-6.05314e-06
0.00055192
-1.35575e-05
0.000671212
-2.41962e-05
0.000773339
-3.76637e-05
0.000860504
-5.33562e-05
0.000936015
-7.0469e-05
0.0010035
-8.80828e-05
0.00106609
-0.000105221
0.00112573
-0.000120864
0.00118274
-0.000133937
0.00123567
-0.000143271
0.0012812
-0.00014757
0.0013143
-0.000145406
0.00132822
-0.000135251
0.00131471
-0.000115541
0.0012641
-8.48588e-05
0.00116578
-4.19508e-05
0.00100831
1.40174e-05
0.000780388
8.415e-05
0.000471003
0.000169064
6.99685e-05
0.000269368
-0.000426979
-0.0010306
0.000390623
1.06292e-06
9.31367e-05
2.61188e-06
0.000259896
3.32238e-06
0.000414194
2.16858e-06
0.000553073
-1.47222e-06
0.000674853
-7.77204e-06
0.000779639
-1.64733e-05
0.000869205
-2.69635e-05
0.000946505
-3.83717e-05
0.00101491
-4.96663e-05
0.00107739
-5.97262e-05
0.00113579
-6.73775e-05
0.00119039
-7.13955e-05
0.00123968
-7.04883e-05
0.0012803
-6.32854e-05
0.0013071
-4.83423e-05
0.00131328
-2.42005e-05
0.00129057
1.05066e-05
0.00122939
5.71181e-05
0.00111917
0.000116425
0.000949004
0.000189072
0.000707742
0.000275044
0.00038503
0.000375321
-3.03083e-05
0.000489598
-0.000541256
-0.0011651
0.000624102
1.68472e-06
9.1452e-05
4.87248e-06
0.000256709
8.10551e-06
0.000410961
1.02275e-05
0.000550951
1.04952e-05
0.000674585
8.64205e-06
0.000781492
4.87153e-06
0.000872976
-2.03671e-07
0.00095158
-5.6592e-06
0.00102037
-1.03619e-05
0.00108209
-1.30579e-05
0.00113848
-1.24272e-05
0.00118976
-7.10717e-06
0.00123436
4.3018e-06
0.00126889
2.32413e-05
0.00128816
5.11506e-05
0.00128537
8.94246e-05
0.00125229
0.000139316
0.0011795
0.000201774
0.00105671
0.000277431
0.000873347
0.000366583
0.000618589
0.000468895
0.000282718
0.000585144
-0.000146558
0.000714449
-0.00067056
-0.00131415
0.000863497
2.25869e-06
8.91933e-05
6.99431e-06
0.000251973
1.2657e-05
0.000405298
1.79917e-05
0.000545617
2.21546e-05
0.000670422
2.47917e-05
0.000778855
2.60507e-05
0.000871717
2.6533e-05
0.000951098
2.72023e-05
0.0010197
2.92755e-05
0.00108001
3.41237e-05
0.00113363
4.31978e-05
0.00118069
5.79841e-05
0.00121958
7.998e-05
0.00124689
0.000110669
0.00125747
0.000151484
0.00124456
0.000203738
0.00120004
0.000268521
0.00111472
0.0003466
0.000978632
0.00043833
0.000781617
0.000543809
0.000513111
0.000662452
0.000164075
0.00079503
-0.000279135
0.000940326
-0.000815857
-0.00147926
0.00110544
2.77499e-06
8.64183e-05
8.941e-06
0.000245807
1.68988e-05
0.00039734
2.53297e-05
0.000537186
3.33124e-05
0.000662439
4.04165e-05
0.000771751
4.67327e-05
0.0008654
5.28406e-05
0.00094499
5.97252e-05
0.00101281
6.86677e-05
0.00107107
8.1135e-05
0.00112117
9.8689e-05
0.00116313
0.000122921
0.00119535
0.000155407
0.00121441
0.000197664
0.00121521
0.000251103
0.00119112
0.000316949
0.00113419
0.000396152
0.00103551
0.000489302
0.000885482
0.000596554
0.000674366
0.000717891
0.000391774
0.000852665
2.9301e-05
0.00100173
-0.000428204
0.00116389
-0.000978015
-0.00166209
0.00134672
3.22516e-06
8.31932e-05
1.06797e-05
0.000238353
2.07585e-05
0.000387261
3.21156e-05
0.000525829
4.37789e-05
0.000650776
5.5256e-05
0.000760274
6.65817e-05
0.000854075
7.83036e-05
0.000933268
9.14101e-05
0.000999706
0.000107223
0.00105526
0.000127282
0.00110111
0.000153234
0.00113718
0.000186755
0.00116182
0.000229479
0.00117168
0.000282943
0.00116174
0.000348526
0.00112554
0.000427369
0.00105535
0.000520294
0.00094259
0.000627753
0.000778022
0.00074977
0.000552348
0.000886302
0.000255242
0.0010369
-0.000121297
0.00120256
-0.000593859
0.00138243
-0.00115789
-0.00186433
0.00158468
3.60227e-06
7.95909e-05
1.21819e-05
0.000229773
2.41705e-05
0.000375273
3.82325e-05
0.000511767
5.33738e-05
0.000635635
6.90571e-05
0.000744591
8.52657e-05
0.000837866
0.000102507
0.000916027
0.000121755
0.000980457
0.000144349
0.00103267
0.000171871
0.00107359
0.00020603
0.00110302
0.00024856
0.0011193
0.000301133
0.00111911
0.000365292
0.00109759
0.000442377
0.00104845
0.00053345
0.000964277
0.00063923
0.00083681
0.000760083
0.000657169
0.000896
0.000416432
0.00104701
0.00010423
0.00121313
-0.000287418
0.00139558
-0.000776307
0.00159418
-0.00135649
-0.0020876
0.00181744
3.90099e-06
7.56899e-05
1.34242e-05
0.00022025
2.70785e-05
0.000361618
4.35757e-05
0.000495269
6.19305e-05
0.00061728
8.15806e-05
0.000724941
0.000102465
0.000816981
0.000125047
0.000893445
0.000150268
0.000955236
0.000179462
0.00100347
0.000214226
0.00103882
0.0002563
0.00106095
0.00030745
0.00106815
0.000369367
0.00105719
0.000443587
0.00102337
0.000531406
0.000960631
0.000633826
0.000861858
0.000751497
0.000719139
0.000884766
0.0005239
0.00103372
0.00026748
0.0011986
-6.06512e-05
0.00138017
-0.00046899
0.0015799
-0.000976035
0.00179848
-0.00157508
-0.00233315
0.00204404
4.11766e-06
7.15722e-05
1.43886e-05
0.000209979
2.94365e-05
0.00034657
4.80562e-05
0.00047665
6.9302e-05
0.000596034
9.2609e-05
0.000701634
0.000117883
0.000791707
0.00014554
0.000865789
0.000176479
0.000924297
0.000212002
0.000967949
0.000253696
0.000997127
0.000303303
0.00101134
0.000362595
0.00100885
0.000433263
0.000986523
0.00051682
0.000939808
0.000614532
0.000862919
0.00072736
0.00074903
0.000855944
0.000590555
0.00100071
0.000379136
0.00116201
0.000106179
0.00134043
-0.00023907
0.00153781
-0.000666369
0.00175572
-0.00119395
0.00199584
-0.0018152
-0.00260161
0.0022643
4.25027e-06
6.7322e-05
1.50629e-05
0.000199166
3.12101e-05
0.000330423
5.1603e-05
0.000456257
7.53655e-05
0.000572272
0.000101954
0.000675045
0.000131255
0.000762406
0.000163639
0.000833404
0.000199953
0.000887983
0.000241449
0.000926452
0.000289678
0.000948898
0.000346358
0.000954661
0.000413242
0.00094197
0.000492003
0.000907763
0.000584132
0.000847679
0.000690875
0.000756175
0.0008132
0.000626706
0.000951823
0.000451932
0.00110736
0.000223596
0.00128068
-6.71386e-05
0.00147282
-0.00043121
0.00168693
-0.000880479
0.00192439
-0.0014314
0.00218764
-0.00207845
-0.00289252
0.00247855
4.2984e-06
6.30236e-05
1.54409e-05
0.000188024
3.23779e-05
0.000313486
5.41659e-05
0.000434469
8.00273e-05
0.00054641
0.000109464
0.000645609
0.000142359
0.000729511
0.000179044
0.000796719
0.000220308
0.000846719
0.000267341
0.000879419
0.000321637
0.000894602
0.000384865
0.000891433
0.000458741
0.000868093
0.000544911
0.000821594
0.000644851
0.000747739
0.00075982
0.000641206
0.00089086
0.000495666
0.00103889
0.000303906
0.00120488
5.76047e-05
0.0013904
-0.000252663
0.00159715
-0.000637954
0.00182952
-0.00111285
0.00208813
-0.00169002
0.00237566
-0.00236597
-0.00320382
0.00268695
4.26311e-06
5.87604e-05
1.55226e-05
0.000176764
3.29315e-05
0.000296077
5.57174e-05
0.000411683
8.32269e-05
0.000518901
0.00011503
0.000613805
0.000151026
0.000693515
0.000191519
0.000756227
0.000237237
0.000801001
0.0002893
0.000827356
0.000349131
0.000834771
0.000418337
0.000822227
0.000498586
0.000787844
0.000591497
0.000728683
0.000698557
0.000640679
0.000821095
0.000518669
0.000960328
0.000356432
0.00111752
0.000146716
0.00129421
-0.000119092
0.00149284
-0.000451288
0.00171581
-0.000860929
0.00196842
-0.00136546
0.00224965
-0.00197125
0.00256131
-0.00267764
-0.00353137
0.00288887
4.14695e-06
5.46135e-05
1.53139e-05
0.000165597
3.28765e-05
0.000278515
5.62546e-05
0.000388305
8.49411e-05
0.000490214
0.000118597
0.000580149
0.000157156
0.000654956
0.000200905
0.000712478
0.000250522
0.000751383
0.000307056
0.000770822
0.000371851
0.000769977
0.000446447
0.00074763
0.000532469
0.000701822
0.000631529
0.000629623
0.000745172
0.000527036
0.000874884
0.000388957
0.00102219
0.000209124
0.00118889
-1.99824e-05
0.00137725
-0.000307451
0.00159066
-0.000664693
0.0018321
-0.00110237
0.00210688
-0.00164025
0.00241131
-0.00227567
0.00274488
-0.00301122
-0.00386883
0.00308235
3.95382e-06
5.06597e-05
1.48267e-05
0.000154724
3.2233e-05
0.000261109
5.58006e-05
0.000364737
8.51873e-05
0.000460828
0.000120165
0.000545172
0.00016072
0.000614401
0.000207142
0.000666056
0.000260069
0.000698457
0.000320483
0.000710408
0.00038966
0.000700799
0.000469083
0.000668207
0.000560354
0.000610551
0.000665124
0.000524854
0.000785071
0.000407089
0.00092196
0.000252068
0.00107778
5.32991e-05
0.00125504
-0.000197238
0.00145682
-0.000509232
0.00168732
-0.000895195
0.00194966
-0.0013647
0.00224783
-0.00193841
0.0025743
-0.00260214
0.00292484
-0.00336176
-0.00420799
0.00326399
3.68912e-06
4.69706e-05
1.40795e-05
0.000144334
3.10359e-05
0.000244152
5.44062e-05
0.000341367
8.40273e-05
0.000431206
0.000119799
0.0005094
0.000161782
0.000572419
0.000210284
0.000617554
0.000265923
0.000642818
0.000329635
0.000646695
0.000402647
0.000627787
0.000486414
0.00058444
0.000582561
0.000514404
0.000692849
0.000414566
0.000819199
0.000280739
0.000963795
0.000107472
0.00112926
-0.000112164
0.00131887
-0.000386852
0.00153651
-0.000726867
0.00178669
-0.00114538
0.00207182
-0.00164984
0.00239292
-0.00225951
0.00273786
-0.00294708
0.00309764
-0.00372154
-0.00453962
0.00342928
3.35978e-06
4.36108e-05
1.30973e-05
0.000134596
2.9336e-05
0.000227914
5.21514e-05
0.000318551
8.15703e-05
0.000401788
0.000117636
0.000473334
0.000160499
0.000529555
0.000210515
0.000567539
0.000268303
0.000585029
0.000334787
0.000580211
0.00041118
0.000551395
0.00049896
0.00049666
0.000599851
0.000413514
0.000715826
0.000298591
0.000849174
0.00014739
0.00100264
-4.59971e-05
0.00117957
-0.000289091
0.00138399
-0.000591276
0.00162022
-0.000963093
0.00189227
-0.00141743
0.00220067
-0.00195824
0.00254183
-0.00260067
0.00289893
-0.00330417
0.00325814
-0.00408076
-0.00485475
0.00357327
2.9745e-06
4.06363e-05
1.19122e-05
0.000125659
2.72003e-05
0.000212625
4.91467e-05
0.000296605
7.79751e-05
0.000372959
0.000113885
0.000437424
0.000157141
0.000486299
0.000208167
0.000516513
0.000267626
0.00052557
0.000336468
0.00051137
0.000415952
0.000471911
0.000507657
0.000404954
0.000613501
0.00030767
0.00073579
0.000176302
0.00087731
5.8694e-06
0.00104146
-0.000210151
0.00123228
-0.000479905
0.00145426
-0.00081326
0.0017115
-0.00122033
0.00200636
-0.00171229
0.00233621
-0.00228809
0.00269178
-0.00295623
0.0030524
-0.00366479
0.00340048
-0.00442884
-0.00514585
0.00369158
2.54395e-06
3.80923e-05
1.05637e-05
0.000117639
2.47131e-05
0.000198476
4.55337e-05
0.000275785
7.34522e-05
0.000345041
0.000108837
0.000402039
0.000152088
0.000443048
0.000203733
0.000464868
0.00026452
0.000464784
0.000335487
0.000440403
0.000418017
0.00038938
0.000513886
0.000309086
0.000625319
0.000196237
0.000755072
4.6549e-05
0.000906527
-0.000145586
0.0010837
-0.000387327
0.0012911
-0.000687305
0.00153313
-0.00105529
0.0018127
-0.0014999
0.00212924
-0.00202883
0.00247594
-0.0026348
0.00283778
-0.00331807
0.00319203
-0.00401904
0.00351921
-0.00475602
-0.00540786
0.00378122
2.08094e-06
3.60114e-05
9.09901e-06
0.000110621
2.19754e-05
0.0001856
4.14853e-05
0.000256275
6.82633e-05
0.000318263
0.000102861
0.000367441
0.000145838
0.000400071
0.000197865
0.00041284
0.000259832
0.000402817
0.00033294
0.000367294
0.000418789
0.000303532
0.000519457
0.000208418
0.00063759
7.81044e-05
0.000776478
-9.23389e-05
0.000940075
-0.000309184
0.00113285
-0.000580104
0.0013593
-0.000913753
0.00162288
-0.00131887
0.00192421
-0.00180123
0.0022587
-0.00236332
0.00261503
-0.00299113
0.00297349
-0.00367652
0.00331167
-0.00435723
0.0036104
-0.00505475
-0.00563853
0.00384108
1.60051e-06
3.44109e-05
7.57303e-06
0.000104648
1.91045e-05
0.000174068
3.72035e-05
0.000238176
6.2718e-05
0.000292748
9.63982e-05
0.000333761
0.000138994
0.000357476
0.000191366
0.000360468
0.000254613
0.00033957
0.000330183
0.000291724
0.00041999
0.000213725
0.000526521
0.000101887
0.000652917
-4.82917e-05
0.000803001
-0.000242423
0.000981153
-0.000487335
0.00119189
-0.00079084
0.00143898
-0.00116084
0.00172393
-0.00160382
0.00204406
-0.00212136
0.00239023
-0.00270949
0.00274714
-0.00334804
0.00309245
-0.00402183
0.00340647
-0.00467125
0.00367219
-0.00532047
-0.00583837
0.00387203
1.11977e-06
3.32911e-05
6.04712e-06
9.9721e-05
1.62317e-05
0.000163884
3.29151e-05
0.000221492
5.71662e-05
0.000268497
8.99536e-05
0.000300973
0.000132252
0.000315178
0.000185168
0.000307552
0.000250077
0.00027466
0.000328763
0.000213038
0.000423549
0.000118939
0.000537397
-1.19611e-05
0.000673955
-0.000184849
0.000837455
-0.000405924
0.00103237
-0.000682251
0.00126266
-0.00102113
0.0015305
-0.00142868
0.0018345
-0.00190783
0.00216804
-0.0024549
0.00251771
-0.00305916
0.00286562
-0.00369595
0.00318929
-0.00434551
0.00347362
-0.00495558
0.0037049
-0.00555175
-0.00601006
0.0038766
6.57484e-07
3.26336e-05
4.5876e-06
9.57909e-05
1.34981e-05
0.000154973
2.88643e-05
0.000206126
5.19863e-05
0.000245375
8.40746e-05
0.000268885
0.000126369
0.000272884
0.000180277
0.000253644
0.000247527
0.00020741
0.000330316
0.000130249
0.000431435
1.78196e-05
0.000554338
-0.000134864
0.00070308
-0.000333591
0.000882035
-0.000584879
0.00109526
-0.000895478
0.00134541
-0.00127128
0.00163222
-0.00171548
0.00195073
-0.00222634
0.00229037
-0.00279454
0.00263455
-0.00340334
0.00296473
-0.00402612
0.00326058
-0.00464136
0.00351258
-0.00520759
0.00371067
-0.00574983
-0.00615771
0.00385831
2.33628e-07
3.24e-05
3.26292e-06
9.27616e-05
1.10489e-05
0.000147187
2.53023e-05
0.000191873
4.75677e-05
0.00022311
7.93243e-05
0.000237129
0.000122119
0.000230089
0.000177718
0.000198045
0.000248263
0.000136865
0.000336418
4.20945e-05
0.000445457
-9.12194e-05
0.000579249
-0.000268657
0.000742041
-0.000496383
0.000937928
-0.000780765
0.00116992
-0.00112747
0.00143861
-0.00153997
0.00174061
-0.00201748
0.00206727
-0.00255299
0.00240474
-0.00313202
0.00273491
-0.0037335
0.00304053
-0.00433175
0.0033051
-0.00490593
0.00352482
-0.0054273
0.00369282
-0.00591783
-0.00628604
0.00382115
-1.35124e-07
3.25351e-05
2.14008e-06
9.04864e-05
9.02614e-06
0.000140301
2.2474e-05
0.000178425
4.42888e-05
0.000201295
7.62475e-05
0.00020517
0.000120245
0.000186091
0.000178453
0.000139837
0.000253469
6.18487e-05
0.000348435
-5.28713e-05
0.000467053
-0.000209837
0.000613434
-0.000415038
0.000791675
-0.000674624
0.00100506
-0.000994153
0.0012549
-0.00137731
0.00153908
-0.00182414
0.00185082
-0.00232923
0.0021782
-0.00288037
0.00250534
-0.00345916
0.00281449
-0.00404265
0.00309122
-0.00460848
0.00332368
-0.00513839
0.00351319
-0.00561682
0.00365519
-0.00605983
-0.00639978
0.00376893
-4.25954e-07
3.29611e-05
1.28156e-06
8.87789e-05
7.55994e-06
0.000134023
2.06034e-05
0.000165381
4.24939e-05
0.000179405
7.53337e-05
0.00017233
0.0001214
0.000140025
0.000183301
7.79369e-05
0.0002641
-1.89506e-05
0.000367374
-0.000156145
0.000497116
-0.000339579
0.000657407
-0.00057533
0.000851757
-0.000868973
0.00108207
-0.00122447
0.00134736
-0.0016426
0.00164246
-0.00211924
0.00195742
-0.00264419
0.00227797
-0.00320092
0.00258775
-0.00376895
0.00287101
-0.00432591
0.00311702
-0.00485448
0.00331864
-0.00534001
0.00348128
-0.00577947
0.00360158
-0.00618013
-0.00650312
0.00370491
-6.27144e-07
3.35882e-05
7.39501e-07
8.74122e-05
6.76036e-06
0.000128002
1.98789e-05
0.000152263
4.24694e-05
0.000156814
7.6982e-05
0.000137818
0.000126098
9.09085e-05
0.000192869
1.11664e-05
0.000280792
-0.000106874
0.000393773
-0.000269127
0.000535883
-0.000481689
0.000710816
-0.000750263
0.000921009
-0.00107917
0.00116645
-0.00146991
0.00144347
-0.00191962
0.00174389
-0.00241966
0.00205521
-0.00295551
0.00236214
-0.00350785
0.00264931
-0.00405612
0.00290414
-0.00458074
0.00311974
-0.00507008
0.00329327
-0.00551354
0.00343273
-0.00591893
0.00353532
-0.00628272
-0.00659922
0.00363142
-7.26918e-07
3.43151e-05
5.52743e-07
8.61326e-05
6.70987e-06
0.000121845
2.04409e-05
0.000138532
4.44246e-05
0.00013283
8.14726e-05
0.00010077
0.000134675
3.77058e-05
0.000207502
-6.16605e-05
0.000303806
-0.000203177
0.000427657
-0.000392977
0.000582915
-0.000636948
0.000772488
-0.000939835
0.000997262
-0.00130394
0.00125491
-0.00172757
0.00153897
-0.00220367
0.00183864
-0.00271933
0.00213991
-0.00325678
0.0024278
-0.00379573
0.00268915
-0.00431748
0.0029151
-0.00480668
0.00310226
-0.00525724
0.00325142
-0.0056627
0.00337095
-0.00603846
0.00345876
-0.00637053
-0.0066912
0.00355074
-7.19018e-07
3.50342e-05
7.43569e-07
8.467e-05
7.4584e-06
0.00011513
2.23738e-05
0.000123616
4.84793e-05
0.000106725
8.89503e-05
6.02986e-05
0.000147268
-2.06122e-05
0.000227264
-0.000141656
0.000333018
-0.000308932
0.000468543
-0.000528502
0.000637163
-0.000805567
0.000840578
-0.00114325
0.00107773
-0.00154109
0.00134377
-0.00199361
0.00162963
-0.00248953
0.00192267
-0.00301237
0.00220849
-0.0035426
0.00247362
-0.00406086
0.00270789
-0.00455175
0.00290613
-0.00500492
0.00306795
-0.00541907
0.00319696
-0.0057917
0.00329977
-0.00614127
0.00337307
-0.00644383
-0.00678233
0.00346421
-6.02391e-07
3.56365e-05
1.31899e-06
8.27486e-05
9.02165e-06
0.000107427
2.57026e-05
0.000106935
5.46604e-05
7.77671e-05
9.94213e-05
1.55377e-05
0.000163817
-8.50075e-05
0.000251946
-0.000229785
0.00036795
-0.000424936
0.00051552
-0.000676072
0.000697092
-0.000987139
0.000912786
-0.00135894
0.00115933
-0.00178763
0.00142938
-0.00226366
0.00171178
-0.00277193
0.00199296
-0.00329355
0.00225931
-0.00380895
0.00249969
-0.00430124
0.00270722
-0.00475928
0.00288002
-0.00517772
0.00302008
-0.00555913
0.00313291
-0.00590453
0.00322374
-0.0062321
0.00329516
-0.00651525
-0.00684243
0.00335526
-3.81783e-07
3.60183e-05
2.27011e-06
8.00967e-05
1.13825e-05
9.83147e-05
3.03959e-05
8.79218e-05
6.29071e-05
4.52559e-05
0.000112764
-3.4319e-05
0.000184082
-0.000156326
0.000281106
-0.000326809
0.000407833
-0.000551663
0.000567346
-0.000835585
0.00076085
-0.00118064
0.000986585
-0.00158468
0.00123897
-0.00204001
0.00150845
-0.00253314
0.0017825
-0.00304598
0.00204766
-0.00355871
0.00229197
-0.00405327
0.00250715
-0.00451642
0.00268947
-0.0049416
0.00283974
-0.00532799
0.00296166
-0.00568104
0.00306142
-0.00600429
0.00314297
-0.00631365
0.00321654
-0.00658882
-0.00690332
0.00327743
-5.73896e-08
3.60757e-05
3.57429e-06
7.6465e-05
1.44952e-05
8.73939e-05
3.63743e-05
6.60426e-05
7.30848e-05
8.54545e-06
0.000128751
-8.99852e-05
0.000207685
-0.00023526
0.000314123
-0.000433247
0.000451691
-0.000689232
0.000622568
-0.00100646
0.000826424
-0.0013845
0.00105944
-0.00181769
0.00131381
-0.00229438
0.00157829
-0.00279762
0.00183984
-0.00330754
0.00208599
-0.00380485
0.0023071
-0.00427438
0.00249782
-0.00470715
0.00265724
-0.00510101
0.00278811
-0.00545887
0.0028952
-0.00578813
0.00298462
-0.00609371
0.00306066
-0.00638969
0.00313064
-0.0066588
-0.00696503
0.00319235
3.46743e-07
3.5729e-05
5.19651e-06
7.16152e-05
1.82928e-05
7.42975e-05
4.35222e-05
4.08132e-05
8.50041e-05
-3.29365e-05
0.000147079
-0.00015206
0.000234145
-0.000322326
0.000350257
-0.000549359
0.000498424
-0.000837399
0.000679634
-0.00118767
0.00089179
-0.00159666
0.00112896
-0.00205486
0.00138143
-0.00254686
0.00163693
-0.00305312
0.00188273
-0.00355334
0.0021081
-0.00403022
0.00230603
-0.00447231
0.00247393
-0.00487504
0.0026131
-0.00524019
0.00272766
-0.00557343
0.00282278
-0.00588325
0.00290426
-0.00617518
0.00297582
-0.00646125
0.00304422
-0.0067272
-0.00702854
0.00310773
8.25946e-07
3.4903e-05
7.09803e-06
6.53432e-05
2.26956e-05
5.87e-05
5.17016e-05
1.18072e-05
9.84418e-05
-7.96766e-05
0.000167397
-0.000221015
0.000262924
-0.000417853
0.000388701
-0.000675137
0.000546873
-0.00099557
0.000736982
-0.00137778
0.00095502
-0.00181469
0.00119306
-0.0022929
0.00143995
-0.00279375
0.00168312
-0.00329629
0.00191095
-0.00378117
0.00211488
-0.00423416
0.00229055
-0.00464798
0.00243776
-0.00502225
0.00255947
-0.0053619
0.00266051
-0.00567447
0.00274606
-0.00596881
0.00282132
-0.00625043
0.00288955
-0.00652949
0.00295632
-0.00679397
-0.00709162
0.0030194
1.36699e-06
3.3536e-05
9.23793e-06
5.74722e-05
2.76193e-05
4.03186e-05
6.07658e-05
-2.13393e-05
0.00011316
-0.000132071
0.000189334
-0.000297189
0.000293458
-0.000521976
0.000428629
-0.000810308
0.000595879
-0.00116282
0.000793109
-0.00157501
0.00101437
-0.00203595
0.00125002
-0.00252855
0.00148805
-0.00303179
0.00171634
-0.00352457
0.00192493
-0.00398976
0.00210767
-0.00441689
0.00226264
-0.00480295
0.00239154
-0.00515115
0.00249843
-0.00546879
0.00258839
-0.00576443
0.00266628
-0.0060467
0.00273661
-0.00632076
0.00280209
-0.00659497
0.00286732
-0.0068592
-0.00715437
0.00293007
1.95775e-06
3.15783e-05
1.15773e-05
4.78527e-05
3.29823e-05
1.89136e-05
7.05703e-05
-5.89273e-05
0.000128923
-0.000190423
0.000212519
-0.000380785
0.000325183
-0.00063464
0.000469216
-0.000954341
0.00064432
-0.00133792
0.000846621
-0.00177731
0.00106833
-0.00225766
0.00129852
-0.00275873
0.00152497
-0.00325824
0.00173662
-0.00373623
0.00192558
-0.00417872
0.00208807
-0.00457939
0.00222428
-0.00493915
0.0023373
-0.00526417
0.00243177
-0.00556325
0.00251266
-0.00584533
0.00258437
-0.00611841
0.00265067
-0.00638707
0.00271377
-0.00665807
0.00277742
-0.00692284
-0.00721627
0.00283931
2.58872e-06
2.89896e-05
1.40824e-05
3.6359e-05
3.87108e-05
-5.71479e-06
8.09804e-05
-0.000101197
0.000145503
-0.000254946
0.000236591
-0.000471872
0.000357546
-0.000755596
0.000509665
-0.00110646
0.000691132
-0.00151939
0.000896269
-0.00198245
0.00111569
-0.00247708
0.00133767
-0.00298071
0.00155045
-0.00347101
0.00174451
-0.00393029
0.00191416
-0.00434837
0.00205782
-0.00472305
0.00217736
-0.00505869
0.00227678
-0.00536359
0.0023609
-0.00564738
0.00243437
-0.0059188
0.00250098
-0.00618502
0.00256386
-0.00644994
0.00262474
-0.00671895
0.00268669
-0.00698479
-0.00727707
0.00274749
3.25294e-06
2.57366e-05
1.67259e-05
2.2886e-05
4.47413e-05
-3.37301e-05
9.18748e-05
-0.00014833
0.000162691
-0.000325762
0.000261202
-0.000570383
0.00039001
-0.000884404
0.000549205
-0.00126566
0.000735332
-0.00170552
0.000940981
-0.0021881
0.00115552
-0.00269162
0.00136702
-0.00319221
0.00156468
-0.00366867
0.00174087
-0.00410649
0.00189208
-0.00449957
0.00201861
-0.00484958
0.00212357
-0.00516365
0.00221145
-0.00545148
0.00228697
-0.0057229
0.00235428
-0.00598611
0.00241659
-0.00624733
0.00247642
-0.00650978
0.00253513
-0.00677767
0.00259524
-0.0070449
-0.00733646
0.00265463
3.94596e-06
2.17907e-05
1.94872e-05
7.34481e-06
5.10207e-05
-6.52637e-05
0.000103145
-0.000200454
0.000180286
-0.000402903
0.000286016
-0.000676114
0.000422053
-0.00102044
0.000587108
-0.00143071
0.000776036
-0.00189445
0.000979882
-0.00239194
0.00118722
-0.00289896
0.00138644
-0.00339144
0.00156818
-0.0038504
0.0017268
-0.00426512
0.0018608
-0.00463357
0.00197202
-0.0049608
0.00206437
-0.005256
0.00214251
-0.00552962
0.00221083
-0.00579121
0.00227294
-0.00604822
0.00233149
-0.00630587
0.00238849
-0.00656678
0.00244501
-0.00683418
0.00250308
-0.00710297
-0.00739416
0.00256079
4.6655e-06
1.71252e-05
2.23509e-05
-1.03406e-05
5.75044e-05
-0.000100417
0.00011469
-0.00025764
0.000198097
-0.00048631
0.000310705
-0.000788721
0.000453166
-0.0011629
0.000622689
-0.00160023
0.000812474
-0.00208423
0.00101232
-0.00259179
0.00121047
-0.00309712
0.00139617
-0.00357714
0.00156172
-0.00401596
0.00170352
-0.00440691
0.00182177
-0.00475183
0.00191948
-0.00505851
0.00200101
-0.00533752
0.00207091
-0.00559952
0.00213314
-0.00585344
0.00219075
-0.00610583
0.0022459
-0.00636102
0.00230017
-0.00662105
0.00235439
-0.00688841
0.00241026
-0.00715884
-0.00744991
0.00246601
5.41077e-06
1.17144e-05
2.53055e-05
-3.02353e-05
6.41525e-05
-0.000139264
0.000126417
-0.000319904
0.000215935
-0.000575829
0.000334939
-0.000907725
0.000482858
-0.00131082
0.000655322
-0.0017727
0.000844016
-0.00227292
0.00103785
-0.00278562
0.00122525
-0.00328452
0.00139667
-0.00374856
0.00154626
-0.00416554
0.00167225
-0.0045329
0.00177632
-0.00485589
0.00186222
-0.00514441
0.00193448
-0.00540978
0.00199737
-0.00566241
0.00205436
-0.00591043
0.00210798
-0.00615945
0.00215994
-0.00641298
0.0022115
-0.00667261
0.00226332
-0.00694023
0.00231679
-0.00721231
-0.00750345
0.00237033
6.18171e-06
5.5327e-06
2.83411e-05
-5.23947e-05
7.09265e-05
-0.00018185
0.000138227
-0.000387205
0.000233607
-0.000671208
0.000358391
-0.00103251
0.000510655
-0.00146309
0.000684456
-0.0019465
0.000870176
-0.00245864
0.00105626
-0.0029717
0.00123176
-0.00346002
0.00138861
-0.00390541
0.0015228
-0.00429973
0.00163422
-0.00464433
0.00172564
-0.00494731
0.00180128
-0.00522005
0.0018656
-0.0054741
0.00192247
-0.00571928
0.00197485
-0.00596281
0.00202481
-0.00620941
0.0020737
-0.00646187
0.00212252
-0.00672144
0.0021718
-0.00698951
0.00222269
-0.0072632
-0.00755456
0.0022738
6.97826e-06
-1.44556e-06
3.1447e-05
-7.68635e-05
7.77853e-05
-0.000228188
0.00015002
-0.000459439
0.00025091
-0.000772099
0.000380732
-0.00116233
0.000536118
-0.00161847
0.000709623
-0.00212
0.000890629
-0.00263965
0.00106754
-0.00314861
0.00123038
-0.00362287
0.00137275
-0.00404778
0.00149238
-0.00441936
0.00159054
-0.00474249
0.00167079
-0.00502756
0.00173753
-0.00528679
0.001795
-0.00553157
0.00184661
-0.00577089
0.00189484
-0.00601104
0.00194136
-0.00625593
0.00198723
-0.00650774
0.00203325
-0.00676746
0.00207985
-0.00703611
0.00212798
-0.00731133
-0.00760302
0.00217644
7.79969e-06
-9.24524e-06
3.46106e-05
-0.000103674
8.46827e-05
-0.00027826
0.000161683
-0.00053644
0.000267637
-0.000878053
0.00040164
-0.00129633
0.000558846
-0.00177568
0.000730462
-0.00229162
0.000905206
-0.00281439
0.00107184
-0.00331524
0.00122166
-0.00377269
0.00134995
-0.00417606
0.00145601
-0.00452542
0.00154223
-0.00482871
0.00161265
-0.00509798
0.00167167
-0.00534581
0.00172316
-0.00558306
0.0017701
-0.00581782
0.0018145
-0.00605545
0.00185771
-0.00629913
0.00190057
-0.0065506
0.0019437
-0.0068106
0.00198747
-0.00707988
0.00203269
-0.00735654
-0.00764863
0.0020783
8.64421e-06
-1.78895e-05
3.78153e-05
-0.000132845
9.15654e-05
-0.00033201
0.000173099
-0.000617973
0.000283574
-0.000988529
0.000420808
-0.00143357
0.000578498
-0.00193337
0.000746717
-0.00245984
0.000913887
-0.00298156
0.00106948
-0.00347083
0.00120623
-0.00390944
0.00132106
-0.00429089
0.00141465
-0.004619
0.00149019
-0.00490426
0.00155198
-0.00515977
0.00160425
-0.00539808
0.00165047
-0.00562928
0.00169316
-0.0058605
0.00173396
-0.00609625
0.00177392
-0.0063391
0.00181373
-0.0065904
0.00185389
-0.00685075
0.00189469
-0.00712069
0.00193683
-0.00739868
-0.00769121
0.00197942
9.50863e-06
-2.73981e-05
4.10407e-05
-0.000164377
9.83731e-05
-0.000389342
0.000184137
-0.000703737
0.000298506
-0.0011029
0.000437952
-0.00157301
0.000594796
-0.00209021
0.000758247
-0.00262329
0.000916786
-0.0031401
0.00106088
-0.00361492
0.00118478
-0.00403334
0.00128693
-0.00439305
0.00136914
-0.00470121
0.00143518
-0.0049703
0.00148939
-0.00521399
0.00153572
-0.00544441
0.0015772
-0.00567076
0.00161595
-0.00589925
0.00165328
-0.00613359
0.00169003
-0.00637585
0.00172673
-0.0066271
0.00176381
-0.00688783
0.00180153
-0.0071584
0.00184045
-0.00743761
-0.00773061
0.00187985
1.03883e-05
-3.77864e-05
4.42621e-05
-0.000198251
0.000105038
-0.000450119
0.000194665
-0.000793364
0.000312226
-0.00122046
0.000452821
-0.00171361
0.000607539
-0.00224493
0.000765018
-0.00278077
0.000914128
-0.00328921
0.00104653
-0.00374732
0.001158
-0.00414482
0.00124835
-0.0044834
0.00132027
-0.00477313
0.00137786
-0.00502789
0.00142538
-0.0052615
0.0014664
-0.00548543
0.00150357
-0.00570793
0.00153859
-0.00593427
0.00157254
-0.00616754
0.00160607
-0.00640938
0.0016396
-0.00666064
0.00167351
-0.00692173
0.001708
-0.00719289
0.00174358
-0.00747319
-0.00776665
0.00177963
1.12773e-05
-4.90638e-05
4.74509e-05
-0.000234425
0.000111489
-0.000514157
0.000204547
-0.000886422
0.000324536
-0.00134045
0.000465209
-0.00185428
0.000616604
-0.00239632
0.000767095
-0.00293126
0.000906227
-0.00342835
0.00102698
-0.00386807
0.0011266
-0.00424443
0.00120605
-0.00456285
0.0012687
-0.00483577
0.00131878
-0.00507797
0.00136034
-0.00530306
0.00139658
-0.00552167
0.00142972
-0.00574107
0.00146117
-0.00596572
0.00149177
-0.00619814
0.00152205
-0.00643965
0.00155235
-0.00669094
0.00158298
-0.00695236
0.00161414
-0.00722405
0.00164625
-0.0075053
-0.00779921
0.00167881
1.21685e-05
-6.12323e-05
5.05756e-05
-0.000272832
0.000117648
-0.000581229
0.000213652
-0.000982425
0.000335264
-0.00146206
0.000474957
-0.00199397
0.000621942
-0.00254331
0.00076463
-0.00307395
0.000893464
-0.00355718
0.0010028