/*--------------------------------*- C++ -*----------------------------------*\
  =========                 |
  \\      /  F ield         | OpenFOAM: The Open Source CFD Toolbox
   \\    /   O peration     | Website:  https://openfoam.org
    \\  /    A nd           | Version:  7
     \\/     M anipulation  |
\*---------------------------------------------------------------------------*/
FoamFile
{
    version     2.0;
    format      ascii;
    class       volVectorField;
    location    "180";
    object      U;
}
// * * * * * * * * * * * * * * * * * * * * * * * * * * * * * * * * * * * * * //

dimensions      [0 1 -1 0 0 0 0];

internalField   nonuniform List<vector> 
31800
(
(-0.000714259 0.0429514 -1.39257e-20)
(-0.00295455 0.112606 9.5686e-21)
(-0.00724226 0.169104 -3.10559e-21)
(-0.0134799 0.212999 1.37798e-20)
(-0.0216111 0.245488 1.53638e-20)
(-0.0313761 0.268369 -5.02975e-21)
(-0.0423609 0.283778 -3.63659e-21)
(-0.0540886 0.293871 2.58205e-20)
(-0.0660817 0.300526 -2.93477e-21)
(-0.0779058 0.305131 4.28685e-21)
(-0.0891881 0.308489 1.48371e-20)
(-0.0996114 0.31083 1.47103e-20)
(-0.108892 0.311901 -9.42173e-21)
(-0.116753 0.311071 -1.19624e-20)
(-0.122899 0.307442 -4.60541e-22)
(-0.127006 0.299925 -1.58361e-20)
(-0.12872 0.287311 1.26007e-20)
(-0.127678 0.268335 2.17121e-20)
(-0.123537 0.241758 -8.50631e-21)
(-0.116014 0.206457 3.89577e-20)
(-0.104916 0.161558 2.47968e-21)
(-0.0901822 0.106579 -3.2965e-21)
(-0.0717572 0.0414902 7.13904e-21)
(-0.0498921 -0.0327774 1.49366e-20)
(-0.0234654 -0.114875 9.40331e-21)
(-0.00168077 0.0432121 1.43467e-20)
(-0.0049814 0.113733 7.95832e-21)
(-0.00929326 0.171344 -8.4345e-21)
(-0.0149133 0.216443 -3.19119e-20)
(-0.0219672 0.250072 2.36571e-20)
(-0.0303417 0.273903 -1.15693e-20)
(-0.0397371 0.289991 6.5749e-22)
(-0.0497466 0.300461 -1.9807e-20)
(-0.0599228 0.3072 4.16201e-21)
(-0.0698281 0.311627 2.79633e-21)
(-0.0790625 0.314586 -6.27711e-20)
(-0.0872674 0.316343 -1.10484e-21)
(-0.0941138 0.316664 7.22022e-20)
(-0.0992826 0.314925 -3.69484e-20)
(-0.102448 0.310221 -7.12129e-21)
(-0.103269 0.301455 1.57245e-20)
(-0.101398 0.287417 -3.42364e-20)
(-0.096504 0.266852 -1.14719e-21)
(-0.0883119 0.238556 3.64399e-20)
(-0.0766344 0.201453 -1.34566e-19)
(-0.0613901 0.15473 -4.3363e-20)
(-0.0426832 0.0979745 6.70794e-20)
(-0.0205289 0.0310993 3.41997e-20)
(0.00444523 -0.0449249 6.05617e-21)
(0.0343072 -0.129005 -1.31014e-20)
(-0.00264655 0.0431344 -3.01539e-20)
(-0.00703583 0.114069 -7.10762e-22)
(-0.0114079 0.172518 -4.06659e-20)
(-0.0164285 0.218679 6.02661e-20)
(-0.0223904 0.253404 -6.80262e-20)
(-0.029321 0.278205 -6.51328e-21)
(-0.0370344 0.295024 -6.19139e-21)
(-0.0451976 0.305928 1.14463e-20)
(-0.0533979 0.312794 3.78467e-20)
(-0.0611994 0.317065 -6.42832e-21)
(-0.0681783 0.319623 -1.1877e-20)
(-0.0739379 0.320772 4.22432e-20)
(-0.0781066 0.320307 -7.3557e-21)
(-0.0803268 0.317621 4.22515e-20)
(-0.080246 0.311816 -8.84021e-20)
(-0.0775157 0.301802 -3.73851e-20)
(-0.0718033 0.286379 6.09425e-21)
(-0.0628152 0.264322 -1.29242e-19)
(-0.0503527 0.234476 3.6406e-20)
(-0.0343272 0.195819 8.3275e-20)
(-0.0147538 0.147608 -5.60529e-20)
(0.00809455 0.0894523 -1.35209e-19)
(0.0341824 0.0212549 -6.7734e-20)
(0.0623947 -0.0560398 -1.30599e-19)
(0.0961399 -0.14176 -7.14753e-20)
(-0.00358962 0.0427277 1.39676e-20)
(-0.00907483 0.113623 -2.32739e-20)
(-0.013544 0.172618 7.38189e-20)
(-0.0179955 0.219678 -5.88581e-20)
(-0.0228704 0.255434 -1.54679e-20)
(-0.0283259 0.281207 -4.23595e-21)
(-0.0342877 0.298797 4.82243e-20)
(-0.0404991 0.310187 3.45613e-20)
(-0.0465874 0.317225 -6.08921e-20)
(-0.0521242 0.321365 2.58482e-20)
(-0.0566682 0.323524 1.32304e-21)
(-0.0597894 0.324048 -1.19038e-19)
(-0.0610781 0.32277 -3.91628e-20)
(-0.0601433 0.319111 3.53165e-21)
(-0.0566126 0.312195 2.74004e-20)
(-0.0501358 0.300949 1.30485e-19)
(-0.0404025 0.284204 1.55954e-20)
(-0.0271627 0.260775 1.30475e-19)
(-0.0102934 0.229554 1.37295e-19)
(0.0101949 0.189602 -1.78785e-20)
(0.0341899 0.140234 6.42227e-20)
(0.0612787 0.0810735 -2.73489e-20)
(0.0915246 0.0119865 8.67372e-20)
(0.123048 -0.0660678 2.92931e-19)
(0.161259 -0.15305 4.45863e-20)
(-0.00449012 0.0420084 2.40813e-20)
(-0.0110577 0.112415 -8.72715e-20)
(-0.0156606 0.171654 1.12078e-19)
(-0.0195853 0.219428 4.11353e-20)
(-0.0233975 0.256126 3.20093e-20)
(-0.0273708 0.282853 3.40826e-20)
(-0.0315366 0.301241 -1.82061e-19)
(-0.0357156 0.313163 6.81246e-20)
(-0.039581 0.320415 7.12817e-20)
(-0.0427193 0.324453 -1.06005e-19)
(-0.0446788 0.326223 1.11128e-19)
(-0.0450035 0.326115 6.16391e-20)
(-0.0432523 0.324009 7.77819e-20)
(-0.0390072 0.319363 -5.49045e-20)
(-0.0318818 0.311337 -1.29348e-20)
(-0.0215311 0.298894 2.77831e-19)
(-0.00767189 0.280902 -1.22051e-19)
(0.00989241 0.256231 9.9519e-20)
(0.0312192 0.223825 -2.47051e-19)
(0.0562067 0.182831 -1.04542e-19)
(0.0846626 0.132605 1.02081e-19)
(0.116014 0.0728415 1.84207e-19)
(0.15061 0.00325733 3.3388e-20)
(0.185462 -0.0751224 -2.46154e-19)
(0.228821 -0.162914 -1.74704e-19)
(-0.00533008 0.0409982 -9.5624e-20)
(-0.0129467 0.110481 -3.09194e-20)
(-0.0177189 0.169653 -6.65388e-20)
(-0.0211705 0.217934 -6.41542e-20)
(-0.0239639 0.255461 4.59563e-20)
(-0.0264719 0.283103 -8.21814e-20)
(-0.0288238 0.302297 -5.35229e-20)
(-0.0309172 0.314784 -2.65983e-19)
(-0.0324762 0.322293 1.16772e-20)
(-0.0331105 0.326261 -2.83284e-21)
(-0.0323672 0.32766 -2.10283e-19)
(-0.0297733 0.326924 -7.36774e-20)
(-0.0248645 0.323985 -9.23782e-20)
(-0.0172033 0.318353 1.81937e-19)
(-0.00639622 0.309234 5.4336e-20)
(0.00789105 0.295637 -1.50496e-19)
(0.02591 0.276485 -1.75638e-19)
(0.0478015 0.250706 5.15471e-20)
(0.0735604 0.217314 2.07703e-19)
(0.103002 0.175524 -4.57089e-20)
(0.135895 0.124727 -2.91992e-20)
(0.171462 0.0646894 -1.40814e-19)
(0.210578 -0.00503116 -1.82294e-19)
(0.248715 -0.0833995 1.49762e-19)
(0.297965 -0.171534 1.00192e-19)
(-0.00609405 0.0397242 4.93725e-20)
(-0.0147083 0.10787 5.75513e-20)
(-0.0196838 0.16666 -4.54841e-20)
(-0.0227256 0.215223 -9.35332e-20)
(-0.0245627 0.253439 1.45071e-20)
(-0.0256469 0.281928 1.09293e-19)
(-0.0261942 0.301917 1.57243e-19)
(-0.0261774 0.314993 2.15654e-19)
(-0.0253759 0.322794 3.75724e-20)
(-0.0234307 0.326728 4.97859e-20)
(-0.0198986 0.32778 6.14284e-20)
(-0.0142996 0.326432 2.40591e-19)
(-0.00615598 0.32267 -1.42195e-20)
(0.00498018 0.316065 -3.23743e-19)
(0.0195029 0.305882 2.38532e-19)
(0.0377299 0.291189 9.79612e-20)
(0.0598779 0.270971 3.22082e-19)
(0.0860338 0.244223 -1.3532e-19)
(0.116135 0.210032 -1.64368e-19)
(0.149917 0.167675 4.81908e-19)
(0.187168 0.11657 -1.69053e-19)
(0.226844 0.0565199 -2.64629e-19)
(0.270648 -0.0130216 -7.40576e-20)
(0.311994 -0.0911532 -2.32771e-19)
(0.367906 -0.179202 3.76395e-20)
(-0.0067696 0.038218 1.24037e-20)
(-0.0163142 0.104643 -2.41411e-20)
(-0.0215247 0.162735 4.88334e-21)
(-0.0242284 0.21134 -1.7088e-19)
(-0.0251888 0.250079 -1.32037e-19)
(-0.0249141 0.279321 -2.48933e-20)
(-0.0236939 0.30007 -6.43371e-20)
(-0.0215719 0.31374 -1.1749e-19)
(-0.0183861 0.321862 -2.6826e-20)
(-0.0138172 0.325797 -1.34473e-20)
(-0.00744219 0.326536 -1.28662e-19)
(0.00121363 0.324601 5.58245e-20)
(0.0126307 0.320039 4.32114e-20)
(0.0272581 0.312489 2.37479e-19)
(0.0454825 0.301284 -4.81273e-21)
(0.0676004 0.285562 -1.51911e-19)
(0.0937917 0.264378 -1.82915e-20)
(0.124092 0.236799 6.95181e-20)
(0.158392 0.201983 3.00954e-19)
(0.196353 0.159262 -2.32366e-19)
(0.237851 0.108075 6.34176e-19)
(0.281501 0.0482122 2.74192e-19)
(0.330181 -0.0208881 -2.1233e-19)
(0.374689 -0.0986766 4.13065e-19)
(0.438047 -0.186277 2.39433e-19)
(-0.00734772 0.0365153 1.54772e-20)
(-0.0177423 0.100869 7.65974e-20)
(-0.0232166 0.157955 2.1519e-19)
(-0.0256601 0.206346 2.6654e-19)
(-0.0258384 0.245419 1.57958e-19)
(-0.024292 0.275292 -1.10667e-19)
(-0.0213684 0.296738 2.69776e-19)
(-0.0171761 0.310989 3.08174e-20)
(-0.0116131 0.31945 -1.62407e-19)
(-0.00440771 0.323419 1.82764e-20)
(0.00483191 0.323883 3.07496e-19)
(0.016563 0.321398 -3.34741e-19)
(0.0312567 0.316073 -1.94466e-19)
(0.0493533 0.307618 -4.00391e-20)
(0.0712245 0.295444 -3.35222e-19)
(0.097141 0.278767 -2.26774e-19)
(0.127246 0.256719 4.11131e-20)
(0.161529 0.228442 -5.02528e-19)
(0.19985 0.193158 5.21137e-20)
(0.241803 0.150249 -2.62621e-19)
(0.287437 0.0991676 -3.35775e-19)
(0.334946 0.0396126 3.21933e-19)
(0.388741 -0.0288351 3.72292e-19)
(0.436475 -0.10628 -2.91612e-19)
(0.508065 -0.193123 4.01875e-19)
(-0.00782309 0.0346543 -1.8282e-19)
(-0.0189773 0.0966285 1.3282e-19)
(-0.0247412 0.152412 -9.7763e-21)
(-0.0270068 0.200325 5.24294e-20)
(-0.0265097 0.239517 4.94507e-20)
(-0.0237983 0.269869 2.21594e-19)
(-0.0192608 0.291924 -1.60828e-19)
(-0.0130621 0.306718 -3.00562e-19)
(-0.00516037 0.31552 1.51192e-19)
(0.00466273 0.319551 1.42566e-19)
(0.0167572 0.319781 -4.87011e-19)
(0.0315504 0.316791 3.48473e-19)
(0.049492 0.31075 5.40222e-19)
(0.071003 0.301443 3.82567e-20)
(0.0964327 0.288365 -1.00023e-19)
(0.126023 0.270815 2.96338e-19)
(0.159882 0.248006 -1.39956e-19)
(0.197962 0.219154 6.57011e-19)
(0.240115 0.183542 -6.0163e-19)
(0.285883 0.140584 1.15979e-19)
(0.335584 0.0897583 -6.0214e-20)
(0.386931 0.0305453 -2.05225e-19)
(0.446166 -0.0370861 -2.02983e-19)
(0.497371 -0.114267 1.71538e-19)
(0.577938 -0.200039 4.09726e-20)
(-0.00819426 0.0326753 1.19385e-19)
(-0.0200117 0.0920078 -8.50411e-20)
(-0.0260874 0.146209 6.98617e-20)
(-0.0282591 0.193374 -2.33983e-19)
(-0.0272024 0.232453 -5.15459e-20)
(-0.0234493 0.263104 2.61482e-20)
(-0.0174103 0.285646 -5.87417e-20)
(-0.00929679 0.300922 -9.73361e-20)
(0.000875375 0.310048 3.04424e-20)
(0.0132664 0.31416 -1.65957e-19)
(0.0281754 0.314193 3.13998e-19)
(0.045988 0.310749 -7.27848e-20)
(0.0671206 0.30405 -1.90369e-19)
(0.0919647 0.293957 -1.99021e-19)
(0.120841 0.280049 2.73579e-19)
(0.15396 0.261712 1.52294e-19)
(0.191403 0.238242 6.34767e-20)
(0.233094 0.208928 -5.45464e-19)
(0.278914 0.173108 5.90741e-19)
(0.328377 0.130195 -1.96095e-19)
(0.382166 0.0797366 -9.6292e-20)
(0.437497 0.0208291 -7.98324e-20)
(0.50261 -0.0458647 -8.93838e-20)
(0.557768 -0.122897 2.84805e-19)
(0.647908 -0.207193 -4.69885e-19)
(-0.00846368 0.0306192 -4.44016e-20)
(-0.0208455 0.0870977 1.89343e-19)
(-0.0272522 0.139458 -2.69364e-19)
(-0.0294134 0.185607 1.07692e-19)
(-0.0279181 0.224324 5.87559e-20)
(-0.0232588 0.255067 -8.91948e-20)
(-0.0158499 0.277947 2.59861e-19)
(-0.00593778 0.293612 6.37204e-20)
(0.00640838 0.303025 2.88846e-20)
(0.0212884 0.307221 2.58552e-19)
(0.0389427 0.307091 -1.06081e-19)
(0.0597055 0.303246 1.15895e-19)
(0.0839486 0.295953 -1.24091e-19)
(0.112026 0.285147 -7.23263e-21)
(0.144223 0.27049 -1.42144e-19)
(0.180724 0.251457 -5.1157e-19)
(0.22159 0.227425 1.08574e-19)
(0.266742 0.197748 4.38444e-19)
(0.316129 0.161813 -1.60136e-19)
(0.369283 0.119005 7.86946e-19)
(0.427332 0.0689754 -4.48594e-19)
(0.487035 0.0102891 -1.33774e-19)
(0.558573 -0.0553645 -2.2641e-19)
(0.618385 -0.132338 5.92789e-21)
(0.718349 -0.214563 -2.07599e-19)
(-0.00863761 0.028527 -1.32381e-19)
(-0.021487 0.0819917 -1.95144e-19)
(-0.0282404 0.13228 -1.03247e-19)
(-0.0304717 0.177151 9.77193e-20)
(-0.02866 0.215245 3.01349e-20)
(-0.0232374 0.245852 1.72351e-20)
(-0.0146046 0.26889 6.64738e-20)
(-0.00303031 0.284823 -3.23663e-19)
(0.0113689 0.29446 1.0679e-19)
(0.0286325 0.298724 -2.24389e-19)
(0.0489377 0.298454 -8.17014e-20)
(0.0725588 0.294257 -1.1243e-19)
(0.0998149 0.286438 -2.43348e-19)
(0.131015 0.274998 5.10804e-19)
(0.166411 0.25968 2.98626e-19)
(0.206163 0.240043 8.13207e-20)
(0.250335 0.215541 2.63252e-19)
(0.298874 0.185587 -4.02568e-19)
(0.351849 0.149607 -1.08512e-19)
(0.40887 0.106925 -5.07686e-19)
(0.471557 0.0573499 2.01029e-19)
(0.536303 -0.00120949 4.55877e-19)
(0.61487 -0.0657033 2.17494e-19)
(0.680156 -0.142598 -4.04889e-19)
(0.789546 -0.221903 5.07353e-19)
(-0.00872598 0.0264383 -4.65593e-20)
(-0.021952 0.0767831 1.17162e-20)
(-0.029065 0.124798 1.31969e-19)
(-0.0314416 0.168139 2.33369e-19)
(-0.029432 0.205346 -1.55464e-19)
(-0.0233909 0.235568 1.48879e-19)
(-0.0136884 0.25856 -1.167e-19)
(-0.000603064 0.274613 4.42593e-19)
(0.0157091 0.284382 -3.1132e-19)
(0.0352299 0.288678 6.68576e-20)
(0.0580711 0.288277 2.93435e-19)
(0.0844428 0.28377 -3.99182e-20)
(0.114606 0.275491 3.42201e-20)
(0.148825 0.263497 -4.12652e-19)
(0.187318 0.247607 -3.59373e-19)
(0.230239 0.227458 -1.32527e-20)
(0.27768 0.202575 -4.16837e-19)
(0.329659 0.172414 1.64321e-19)
(0.386427 0.136442 -2.27616e-19)
(0.447736 0.0938794 3.1922e-19)
(0.515678 0.0447629 -4.29054e-19)
(0.586391 -0.0137178 2.6411e-19)
(0.672518 -0.0768683 -2.25579e-19)
(0.743997 -0.153462 3.18528e-19)
(0.861452 -0.228753 -2.01955e-20)
(-0.00874207 0.0243912 2.57484e-19)
(-0.0222633 0.0715632 6.43928e-20)
(-0.0297464 0.117138 -1.44954e-19)
(-0.0323353 0.158713 -1.73038e-19)
(-0.0302384 0.194768 1.16506e-19)
(-0.0237187 0.224347 -4.24646e-19)
(-0.0131018 0.247066 6.03807e-19)
(0.00133664 0.263062 1.16177e-19)
(0.0194102 0.272845 1.9416e-19)
(0.0410482 0.277114 2.38652e-19)
(0.0662992 0.276572 1.51921e-19)
(0.0953082 0.271786 -1.15365e-19)
(0.12828 0.263105 -2.65591e-21)
(0.165434 0.250638 -5.62898e-20)
(0.206973 0.234265 -1.78416e-19)
(0.253065 0.213694 4.14118e-19)
(0.303871 0.188511 8.81048e-19)
(0.359532 0.158206 5.78409e-20)
(0.420533 0.12228 3.24296e-19)
(0.48683 0.079831 -1.7196e-19)
(0.560875 0.0311872 2.26308e-19)
(0.638605 -0.0271485 -1.31746e-18)
(0.732535 -0.0886616 6.38994e-19)
(0.810496 -0.164457 3.94439e-19)
(0.933484 -0.234486 -2.683e-19)
(-0.00870211 0.0224209 -1.53401e-19)
(-0.0224503 0.0664187 -2.61138e-19)
(-0.0303109 0.109421 2.49193e-19)
(-0.0331686 0.149018 1.62371e-19)
(-0.0310815 0.183663 8.59809e-20)
(-0.0242116 0.212334 3.05977e-19)
(-0.0128278 0.234537 -3.17406e-19)
(0.00280838 0.250277 -2.9222e-19)
(0.0224906 0.259933 -1.92121e-19)
(0.0461041 0.26409 -4.52369e-19)
(0.0736396 0.263376 8.73961e-20)
(0.105183 0.258326 -3.5902e-20)
(0.140889 0.249296 6.67481e-19)
(0.180948 0.236428 2.79765e-19)
(0.225566 0.219659 2.083e-19)
(0.274962 0.198755 -6.74952e-20)
(0.329415 0.173353 -3.94728e-19)
(0.389244 0.142963 -3.33318e-19)
(0.455198 0.107125 -4.07827e-19)
(0.527444 0.0648215 2.987e-19)
(0.608562 0.0167188 5.80657e-19)
(0.694226 -0.0412266 6.74376e-19)
(0.795645 -0.100668 -6.41393e-19)
(0.879596 -0.174876 2.66783e-19)
(1.00444 -0.238421 3.676e-19)
(-0.00862473 0.0205591 -4.01343e-19)
(-0.0225469 0.0614301 2.22447e-19)
(-0.0307893 0.101765 -3.75854e-19)
(-0.0339587 0.139194 4.59365e-19)
(-0.0319598 0.172187 -4.37148e-19)
(-0.0248483 0.199687 -1.30161e-19)
(-0.0128279 0.221123 -2.41422e-19)
(0.00386523 0.236393 1.35733e-19)
(0.0250161 0.245757 -2.31905e-19)
(0.0504767 0.249696 2.55777e-19)
(0.0801915 0.248761 -3.36581e-19)
(0.1142 0.243448 -2.5218e-19)
(0.152621 0.234107 3.4563e-21)
(0.195641 0.220908 -4.04049e-19)
(0.243503 0.203829 7.06333e-21)
(0.296519 0.182682 -4.30682e-19)
(0.355135 0.157146 -2.41332e-20)
(0.419889 0.126747 -4.98848e-19)
(0.491775 0.0910692 1.77833e-19)
(0.571087 0.0490164 8.1073e-19)
(0.660165 0.0016257 -8.01719e-19)
(0.7542 -0.0554658 4.03887e-19)
(0.861971 -0.11227 4.4713e-19)
(0.950383 -0.183879 -2.25034e-19)
(1.07261 -0.239952 7.87892e-20)
(-0.0085303 0.0188337 2.08045e-19)
(-0.0225903 0.0566692 -5.87383e-20)
(-0.0312146 0.0942775 1.27512e-19)
(-0.0347214 0.12938 -3.69066e-19)
(-0.0328645 0.160497 5.87063e-19)
(-0.0255922 0.186573 3.82112e-20)
(-0.0130364 0.206992 4.2038e-19)
(0.00460134 0.221569 -2.18517e-19)
(0.0271102 0.230463 1.48115e-19)
(0.0543237 0.234061 1.94313e-19)
(0.086157 0.232839 1.81839e-19)
(0.122622 0.227249 5.75629e-19)
(0.163833 0.217629 -1.51442e-19)
(0.21 0.204163 -1.49283e-19)
(0.261447 0.186861 -1.23521e-19)
(0.318627 0.165571 -8.12483e-21)
(0.382185 0.140007 -2.72621e-19)
(0.452877 0.109707 2.48157e-19)
(0.531836 0.0743243 -3.4473e-19)
(0.619271 0.0327409 1.36487e-19)
(0.716801 -0.0136273 -2.04371e-19)
(0.818789 -0.0691937 2.10991e-20)
(0.930801 -0.122717 -1.03406e-18)
(1.02109 -0.190645 9.86884e-20)
(1.13601 -0.238675 1.26555e-21)
(-0.00844008 0.0172676 2.74759e-19)
(-0.0226188 0.0521978 -1.84345e-19)
(-0.0316186 0.0870564 -1.28835e-19)
(-0.0354676 0.119705 -7.79091e-20)
(-0.0337755 0.148749 -2.53106e-19)
(-0.0263857 0.173167 -4.23505e-19)
(-0.0133547 0.192327 -1.3781e-19)
(0.0051601 0.205988 4.70257e-19)
(0.0289662 0.21423 -1.47644e-19)
(0.0578976 0.217354 -3.17598e-19)
(0.0918634 0.215769 -1.90005e-19)
(0.130878 0.20988 -5.87637e-19)
(0.175083 0.200008 -6.45675e-19)
(0.224759 0.186342 4.93713e-19)
(0.280352 0.168914 1.06243e-19)
(0.342488 0.147602 8.6552e-20)
(0.412007 0.122149 9.18891e-19)
(0.489807 0.0921207 1.46929e-19)
(0.576938 0.0572537 9.41187e-19)
(0.673189 0.0164926 -1.16854e-18)
(0.778916 -0.0284011 5.62247e-19)
(0.887323 -0.0816343 -5.16544e-19)
(1.00055 -0.131258 8.19096e-19)
(1.08936 -0.194534 -1.20667e-18)
(1.19279 -0.234465 2.48424e-19)
(-0.00837527 0.0158786 -7.03681e-20)
(-0.0226693 0.0480658 -1.46297e-19)
(-0.0320288 0.0801857 -1.33343e-19)
(-0.0361989 0.110287 4.52724e-20)
(-0.0346569 0.137091 -7.04665e-20)
(-0.0271459 0.159642 2.68431e-19)
(-0.0136449 0.177322 -9.46152e-20)
(0.00574227 0.189857 -1.99877e-19)
(0.0308579 0.197268 -8.23228e-20)
(0.0615598 0.199787 4.80837e-21)
(0.0977811 0.197762 5.28588e-19)
(0.139576 0.191553 -4.67019e-19)
(0.187154 0.181461 6.9077e-19)
(0.240909 0.167673 -2.0555e-19)
(0.301441 0.150239 -3.62757e-19)
(0.36955 0.12906 3.03029e-19)
(0.446196 0.103911 -3.48993e-19)
(0.53224 0.0744006 -6.00965e-19)
(0.628315 0.0403711 -2.39902e-19)
(0.733364 0.000910242 2.32026e-19)
(0.84601 -0.0419589 3.65465e-19)
(0.958157 -0.0920342 7.23446e-19)
(1.06895 -0.137282 4.17096e-20)
(1.15267 -0.195205 4.94213e-19)
(1.2415 -0.227483 -1.5264e-19)
(-0.00835581 0.0146783 -3.41224e-20)
(-0.0227743 0.04431 3.1933e-19)
(-0.0324644 0.0737336 3.28928e-19)
(-0.0369041 0.101229 -1.46965e-19)
(-0.0354522 0.125663 1.02819e-19)
(-0.027759 0.146173 -3.77891e-19)
(-0.0137241 0.162178 7.48035e-20)
(0.00661258 0.173399 6.06633e-20)
(0.0331474 0.179817 -1.74571e-19)
(0.0657897 0.181614 -4.77016e-20)
(0.104532 0.179082 -6.55781e-19)
(0.14951 0.172544 2.13166e-19)
(0.201042 0.162279 -3.37448e-20)
(0.259666 0.148473 -5.18426e-21)
(0.326136 0.131185 -3.10057e-20)
(0.401365 0.110338 -1.30726e-20)
(0.486273 0.0857482 -3.27488e-20)
(0.581401 0.0570865 4.16595e-19)
(0.68654 0.0243022 -3.87365e-19)
(0.799384 -0.0133021 3.55167e-19)
(0.916558 -0.0535848 -5.40136e-19)
(1.02889 -0.099797 -2.62131e-19)
(1.13347 -0.140435 7.01172e-20)
(1.20884 -0.192656 -4.17134e-19)
(1.28137 -0.218131 -1.32581e-19)
(-0.0083992 0.0136719 -3.18994e-19)
(-0.0229597 0.0409528 -4.055e-20)
(-0.032933 0.0677512 -4.0344e-19)
(-0.0375544 0.0926179 -3.2286e-19)
(-0.0360805 0.114592 4.25377e-19)
(-0.0280766 0.132924 2.89892e-19)
(-0.0133609 0.147099 -1.27541e-19)
(0.00810285 0.156851 -1.1246e-19)
(0.036287 0.162145 -8.38356e-20)
(0.0711837 0.163124 7.26473e-19)
(0.112883 0.160043 2.83605e-19)
(0.161639 0.153191 3.99985e-19)
(0.217911 0.142829 -2.26697e-20)
(0.282383 0.129139 8.43151e-20)
(0.355909 0.11219 2.28649e-19)
(0.439376 0.09193 -5.46895e-19)
(0.533408 0.0682147 8.84692e-19)
(0.63786 0.0407949 9.9858e-20)
(0.751267 0.00970888 -3.03636e-19)
(0.86981 -0.0254838 -4.67541e-19)
(0.988186 -0.0627108 -2.55303e-19)
(1.09676 -0.104582 5.76635e-19)
(1.19176 -0.140665 -2.11301e-20)
(1.25637 -0.187179 2.94523e-19)
(1.31235 -0.206955 3.38265e-19)
(-0.00851918 0.012858 2.42857e-19)
(-0.0232416 0.0380018 2.52644e-20)
(-0.0334272 0.062271 -5.31627e-20)
(-0.0381005 0.0845218 5.76309e-20)
(-0.0364335 0.103986 -4.03675e-19)
(-0.0279137 0.120051 5.33087e-19)
(-0.0122748 0.132283 -1.90767e-21)
(0.0106097 0.140455 4.30545e-19)
(0.0408121 0.144531 1.86544e-20)
(0.0784392 0.144636 -1.48831e-19)
(0.123713 0.140997 2.33351e-19)
(0.177032 0.133881 -7.86051e-19)
(0.239002 0.123535 -4.90679e-19)
(0.310406 0.110136 -2.4823e-19)
(0.39208 0.0937646 -1.12245e-19)
(0.484657 0.0743902 1.2081e-20)
(0.588137 0.0519052 -5.67791e-19)
(0.70131 0.0261441 2.20397e-19)
(0.821154 -0.00280834 8.71011e-19)
(0.94234 -0.0351271 2.49114e-19)
(1.05808 -0.0690076 6.05557e-19)
(1.15919 -0.106341 -6.02165e-19)
(1.24209 -0.138197 -1.40124e-19)
(1.29463 -0.179263 -2.22829e-19)
(1.335 -0.194558 -1.18401e-18)
(-0.00872446 0.0122276 -2.25933e-19)
(-0.0236241 0.035449 1.14631e-19)
(-0.0339222 0.0573061 2.03473e-19)
(-0.0384708 0.0769876 7.02183e-19)
(-0.0363747 0.0939367 2.63033e-19)
(-0.0270501 0.107692 -5.80947e-19)
(-0.0101409 0.11792 -1.45529e-19)
(0.0145844 0.124449 -7.71215e-20)
(0.0473225 0.127263 -2.49637e-19)
(0.0883219 0.126482 -8.22763e-20)
(0.137959 0.122322 -1.69399e-19)
(0.196782 0.115035 6.23916e-19)
(0.265504 0.104857 7.54533e-19)
(0.344903 0.0919656 3.86896e-19)
(0.435598 0.0764441 -1.98829e-19)
(0.53768 0.0582795 -1.4301e-19)
(0.650173 0.0373862 3.24514e-19)
(0.7705 0.0136678 -8.08639e-20)
(0.89401 -0.012801 -1.42272e-20)
(1.01418 -0.0419532 1.91978e-19)
(1.12351 -0.0724164 -2.7343e-19)
(1.21417 -0.105283 -4.7357e-19)
(1.28349 -0.133454 -3.07846e-19)
(1.32379 -0.16948 3.94024e-19)
(1.35035 -0.181524 1.19643e-18)
(-0.00901764 0.011765 1.79995e-19)
(-0.0240976 0.0332712 6.09287e-19)
(-0.0343744 0.0528497 2.42855e-19)
(-0.0385707 0.0700402 -2.15338e-19)
(-0.0357412 0.0845099 2.98003e-19)
(-0.0252348 0.095962 3.26346e-19)
(-0.00659999 0.104179 3.63448e-19)
(0.0205154 0.109057 -2.1185e-20)
(0.0564515 0.110617 2.83668e-19)
(0.101616 0.108991 -8.72494e-19)
(0.156542 0.104395 4.94467e-19)
(0.221896 0.0970734 -2.65788e-19)
(0.298405 0.0872581 -6.78752e-19)
(0.386674 0.0751196 -5.01669e-19)
(0.486849 0.0607384 8.32075e-19)
(0.598158 0.0441026 -2.90713e-19)
(0.718355 0.0251239 -1.47254e-19)
(0.843366 0.00374213 1.13796e-19)
(0.967133 -0.0200312 -6.01314e-19)
(1.08252 -0.0459335 4.88438e-19)
(1.18222 -0.0731149 -7.69674e-20)
(1.26048 -0.1018 5.801e-19)
(1.31586 -0.126957 6.5556e-19)
(1.34466 -0.158389 -2.21319e-19)
(1.35964 -0.168376 -4.35303e-19)
(-0.00939474 0.011448 -9.34635e-20)
(-0.0246376 0.0314307 -3.46085e-19)
(-0.0347213 0.0488757 8.96538e-21)
(-0.0382847 0.0636816 -1.73307e-19)
(-0.0343478 0.0757482 -5.07294e-19)
(-0.022195 0.0849529 -2.60486e-19)
(-0.00127342 0.0912033 1.43033e-19)
(0.0289018 0.0944781 -4.43258e-19)
(0.0688256 0.0948473 3.518e-20)
(0.119065 0.0924702 2.17992e-19)
(0.180279 0.0875699 -6.26271e-19)
(0.253175 0.0803932 -2.06622e-19)
(0.338351 0.0711638 5.43321e-19)
(0.436012 0.0600395 3.7435e-19)
(0.545544 0.0470808 -4.9145e-19)
(0.665023 0.0322519 5.39008e-19)
(0.790777 0.0154291 2.2744e-19)
(0.917341 -0.00345512 -6.20324e-20)
(1.03775 -0.0244838 -4.86484e-20)
(1.14498 -0.0472569 -5.20185e-19)
(1.23275 -0.0714422 5.56608e-20)
(1.29776 -0.0963731 -9.66048e-20)
(1.33973 -0.119236 -5.0244e-19)
(1.35843 -0.146472 -3.56154e-19)
(1.36414 -0.155564 -3.19345e-19)
(-0.00984467 0.0112485 -5.85249e-20)
(-0.0252054 0.029877 -7.64751e-19)
(-0.0348829 0.04534 -4.71578e-19)
(-0.0374796 0.0578913 -5.99127e-19)
(-0.0319939 0.0676673 5.27908e-19)
(-0.0176481 0.0747246 4.29052e-20)
(0.0062169 0.0791038 3.77886e-19)
(0.0402235 0.0808757 -3.44653e-19)
(0.0850183 0.080171 5.709e-19)
(0.141301 0.0771845 2.13826e-19)
(0.209794 0.0721566 1.77942e-20)
(0.291119 0.0653357 -3.40797e-20)
(0.385548 0.056933 -1.21148e-19)
(0.492628 0.0470784 -1.04782e-19)
(0.610712 0.0357884 1.17873e-19)
(0.736542 0.0229705 1.68257e-19)
(0.865052 0.00843183 -1.08476e-18)
(0.989737 -0.00794439 6.86498e-20)
(1.1034 -0.0263353 -1.80001e-19)
(1.19988 -0.0462627 -1.71777e-19)
(1.27448 -0.0678123 8.28088e-20)
(1.32631 -0.0894978 -5.46161e-19)
(1.35609 -0.110746 2.50659e-19)
(1.36643 -0.134069 2.98478e-19)
(1.36498 -0.143452 -6.46239e-19)
(-0.0103487 0.0111335 1.36271e-19)
(-0.0257483 0.0285493 5.52819e-19)
(-0.0347645 0.0421823 4.80162e-20)
(-0.0360096 0.0526273 8.69364e-19)
(-0.0284723 0.0602557 -5.49588e-19)
(-0.0113148 0.0653057 5.35857e-19)
(0.0162276 0.0679544 -4.7827e-19)
(0.0549096 0.0683718 1.87813e-19)
(0.105507 0.0667566 -2.41073e-19)
(0.168796 0.0633464 3.18314e-19)
(0.245457 0.0584014 5.28622e-19)
(0.335857 0.0521684 2.75787e-19)
(0.439713 0.0448338 1.10756e-19)
(0.555658 0.0364779 1.21716e-19)
(0.68081 0.027042 -9.63935e-20)
(0.81054 0.016342 -7.71135e-20)
(0.938642 0.00408802 8.82223e-19)
(1.05812 -0.00991105 2.9089e-19)
(1.16228 -0.025897 8.17363e-19)
(1.24633 -0.0433632 2.14807e-20)
(1.30753 -0.0626452 -5.09432e-19)
(1.34697 -0.081632 6.31696e-19)
(1.36617 -0.101796 7.75541e-19)
(1.36985 -0.12132 8.98291e-20)
(1.363 -0.132328 6.31892e-19)
(-0.0108821 0.0110679 -3.86246e-19)
(-0.0262014 0.0273794 2.13975e-19)
(-0.0342598 0.0393297 4.69555e-19)
(-0.033722 0.0478288 -1.84549e-19)
(-0.0235774 0.0534774 -5.45618e-19)
(-0.00293291 0.0566931 -3.97156e-20)
(0.0290743 0.0577908 2.91836e-20)
(0.0733111 0.057043 5.21779e-20)
(0.130636 0.054721 -3.34239e-19)
(0.201817 0.0511074 -1.40936e-19)
(0.287344 0.0464804 -4.9458e-19)
(0.38713 0.0410756 -1.27314e-20)
(0.500099 0.0350354 -1.41781e-19)
(0.623759 0.0283615 -4.34496e-20)
(0.753901 0.0208864 3.85012e-19)
(0.884678 0.0123026 -5.69827e-19)
(1.00918 0.00221153 2.38904e-19)
(1.12057 -0.00965324 -3.89297e-19)
(1.21327 -0.0235515 -5.85701e-19)
(1.2842 -0.0389781 1.03524e-19)
(1.33255 -0.0563292 1.06944e-18)
(1.36086 -0.0731744 -5.37875e-19)
(1.37126 -0.0924995 1.86333e-20)
(1.36964 -0.108207 4.28252e-19)
(1.35868 -0.122561 2.31024e-19)
(-0.0114149 0.0110158 1.81892e-19)
(-0.0264907 0.0262953 -2.58091e-19)
(-0.033255 0.0367003 -5.45942e-19)
(-0.0304627 0.04342 -2.89523e-19)
(-0.017114 0.0472746 3.1533e-19)
(0.00773084 0.0488556 1.07245e-19)
(0.0450154 0.0486133 6.22042e-19)
(0.0956816 0.0469235 2.51317e-19)
(0.160599 0.0441306 1.57991e-19)
(0.240406 0.0405603 7.42744e-20)
(0.335231 0.0365011 5.12423e-19)
(0.444314 0.0321609 2.33204e-19)
(0.565572 0.0276119 -1.9469e-19)
(0.695251 0.022743 2.80616e-19)
(0.827879 0.0172458 -1.64283e-19)
(0.956719 0.010671 2.11717e-19)
(1.07472 0.00251909 -2.09758e-19)
(1.17582 -0.00752736 -4.47497e-19)
(1.25598 -0.0196965 6.5315e-19)
(1.31393 -0.0334889 -6.8686e-19)
(1.35053 -0.0492109 1.85839e-19)
(1.36926 -0.0644389 -2.18558e-19)
(1.37269 -0.0827881 -1.6181e-19)
(1.36665 -0.0949308 -1.27024e-18)
(1.35217 -0.114884 1.85757e-19)
(-0.0119135 0.0109423 3.72057e-20)
(-0.0265361 0.0252252 1.84755e-19)
(-0.0316326 0.034208 6.12274e-19)
(-0.0260818 0.0393161 -1.44316e-19)
(-0.00890384 0.0415745 -6.26394e-20)
(0.020873 0.04174 1.16501e-19)
(0.0642436 0.0403939 1.03601e-19)
(0.122168 0.0380123 -4.03665e-19)
(0.195431 0.0350098 -1.87576e-19)
(0.284391 0.0317483 -5.77987e-19)
(0.388625 0.0285124 -4.36855e-19)
(0.506486 0.0254584 -3.1279e-19)
(0.634718 0.0225548 2.82552e-19)
(0.76829 0.0195431 -4.14329e-19)
(0.900687 0.0159497 -2.01484e-19)
(1.02474 0.0111848 -8.79616e-20)
(1.13386 0.00467637 -6.82254e-20)
(1.22324 -0.00390177 1.33579e-18)
(1.29059 -0.0147032 7.61958e-20)
(1.33632 -0.0272178 -1.16506e-19)
(1.36262 -0.0415904 -6.46612e-19)
(1.37342 -0.0556182 2.03826e-19)
(1.37162 -0.0726118 2.0385e-20)
(1.36203 -0.0824949 7.13452e-19)
(1.34393 -0.109486 7.00942e-20)
(-0.0123418 0.0108158 2.93061e-19)
(-0.0262538 0.0241012 -2.81898e-19)
(-0.0292757 0.0317683 -4.27562e-19)
(-0.0204371 0.0354294 4.2866e-19)
(0.00121054 0.0362961 -9.49566e-20)
(0.0366495 0.0352801 -8.18915e-20)
(0.0868826 0.0330861 7.21468e-20)
(0.152812 0.0302849 -1.02193e-19)
(0.235016 0.0273541 2.55431e-19)
(0.333407 0.0246791 1.64941e-19)
(0.446806 0.022519 4.30414e-19)
(0.572499 0.0209466 -1.19022e-20)
(0.705973 0.0197892 3.57136e-19)
(0.841035 0.0186094 -2.33037e-20)
(0.970483 0.016761 3.87039e-19)
(1.08727 0.0135365 1.14209e-19)
(1.18577 0.00833705 -7.32836e-19)
(1.26277 0.000876707 -3.62118e-19)
(1.31771 -0.00889107 -9.38651e-20)
(1.35241 -0.0204241 2.32279e-19)
(1.36994 -0.0337053 -1.04413e-19)
(1.37443 -0.0467858 -3.75528e-19)
(1.36876 -0.062289 5.36422e-20)
(1.35669 -0.0719638 -3.32324e-19)
(1.33954 -0.0928678 -1.57154e-19)
(-0.0126624 0.0106083 1.7946e-19)
(-0.02556 0.0228639 1.91595e-19)
(-0.0260703 0.029304 3.50736e-19)
(-0.0133968 0.0316762 -2.55244e-19)
(0.0133641 0.0313594 1.89596e-20)
(0.0551755 0.029407 5.08769e-19)
(0.112991 0.0266372 -1.45177e-19)
(0.187559 0.0237071 -4.84334e-19)
(0.279108 0.0211448 -2.86704e-19)
(0.386925 0.0193398 3.82762e-19)
(0.508883 0.0184956 -7.99704e-19)
(0.64107 0.0185623 2.76338e-21)
(0.777737 0.0191881 -6.95277e-20)
(0.911777 0.019737 5.13627e-19)
(1.03577 0.019403 -2.81294e-19)
(1.14331 0.0174049 3.86506e-19)
(1.23015 0.0131717 3.93338e-19)
(1.29478 0.00650373 -6.8947e-19)
(1.33819 -0.00251841 -2.91484e-19)
(1.36325 -0.0133084 -2.3463e-19)
(1.37357 -0.0257126 3.56546e-19)
(1.37316 -0.0379747 5.47938e-19)
(1.36465 -0.0523261 2.45566e-19)
(1.35138 -0.0611094 -2.15142e-19)
(1.33409 -0.0808379 -3.68058e-19)
(-0.0128389 0.0102999 -4.24086e-20)
(-0.0243715 0.0214653 1.79566e-19)
(-0.0219076 0.0267491 -3.56506e-19)
(-0.00484049 0.0279842 -5.46735e-19)
(0.0276701 0.0266942 -8.08257e-19)
(0.0765289 0.0240601 1.38133e-19)
(0.142568 0.0210014 -1.61503e-19)
(0.226268 0.0182487 2.3622e-19)
(0.327351 0.0163627 8.72414e-20)
(0.444291 0.0157092 1.7016e-19)
(0.57385 0.0163971 1.87498e-19)
(0.710862 0.0182101 -1.04849e-19)
(0.84848 0.020585 -1.51438e-19)
(0.979054 0.0226858 -3.4207e-19)
(1.09545 0.0235826 1.04807e-19)
(1.19236 0.022479 -4.09509e-19)
(1.26715 0.0188868 1.49462e-19)
(1.31993 0.0127277 1.02993e-19)
(1.35298 0.00421688 -4.00382e-19)
(1.36988 -0.0060156 -4.22329e-19)
(1.37441 -0.0177033 -2.23531e-19)
(1.37031 -0.0292912 1.3799e-20)
(1.35987 -0.0425838 6.61053e-20)
(1.34584 -0.0510102 -2.07542e-19)
(1.32896 -0.0688909 1.55535e-19)
(-0.0128382 0.00987648 2.73339e-21)
(-0.0226086 0.0198693 -4.93572e-19)
(-0.0166845 0.0240543 6.29569e-19)
(0.00534099 0.0242984 6.72829e-19)
(0.0442216 0.0222485 4.01073e-19)
(0.100755 0.0191968 -1.37871e-20)
(0.175563 0.01615 -1.45612e-19)
(0.268729 0.0138944 -2.00382e-19)
(0.379297 0.012998 3.64368e-19)
(0.504753 0.0137654 -8.84631e-19)
(0.640634 0.0161639 8.97891e-20)
(0.780551 0.0197676 8.23069e-19)
(0.916823 0.0237834 1.16193e-19)
(1.0417 0.0271973 -2.34581e-19)
(1.14883 0.0290105 4.2341e-19)
(1.23432 0.0284756 4.71171e-19)
(1.29721 0.0252342 1.16937e-19)
(1.33905 0.0193515 8.63987e-19)
(1.36307 0.0111712 6.5229e-19)
(1.37323 0.00135852 3.73929e-19)