/*--------------------------------*- C++ -*----------------------------------*\
  =========                 |
  \\      /  F ield         | OpenFOAM: The Open Source CFD Toolbox
   \\    /   O peration     | Website:  https://openfoam.org
    \\  /    A nd           | Version:  7
     \\/     M anipulation  |
\*---------------------------------------------------------------------------*/
FoamFile
{
    version     2.0;
    format      ascii;
    class       volScalarField;
    location    "11";
    object      p;
}
// * * * * * * * * * * * * * * * * * * * * * * * * * * * * * * * * * * * * * //

dimensions      [1 -1 -2 0 0 0 0];

internalField   nonuniform List<scalar> 
4032
(
1
1
1
1
1
1
1
1
1
1
1
1.3298
7.59174
10.6083
10.74
10.9484
11.1338
11.311
11.4739
11.6205
11.7509
11.8562
11.9368
11.9962
1
1
1
1
1
1
1
1
1
1
1
1.29068
7.42748
10.5746
10.7274
10.9298
11.1115
11.284
11.4417
11.5814
11.7038
11.8012
11.8729
11.9292
1
1
1
1
1
1
1
1
1
1
1
1.18701
7.12627
10.5458
10.6862
10.887
11.0687
11.2395
11.3943
11.5288
11.6435
11.732
11.7898
11.8375
1
1
1
1
1
1
1
1
1
1
1
1.0165
6.62563
10.4944
10.6333
10.8202
10.9917
11.1504
11.2958
11.424
11.5351
11.6195
11.6681
11.7052
1
1
1
1
1
1
1
1
1
1
1
1.00019
5.95192
10.3174
10.5003
10.6843
10.8593
11.0162
11.1554
11.2701
11.3595
11.4254
11.4593
11.5077
1
1
1
1
1
1
1
1
1
1
1
0.999999
5.10692
10.086
10.3891
10.5578
10.7244
10.8635
10.982
11.0797
11.1575
11.217
11.2288
11.1887
1
1
1
1
1
1
1
1
1
1
1
1
4.13789
9.73095
10.2725
10.429
10.573
10.6817
10.7647
10.8236
10.8438
10.8072
10.7389
10.6949
1
1
1
1
1
1
1
1
1
1
1
1
3.09113
9.18071
10.1854
10.3225
10.4363
10.5091
10.5424
10.5454
10.4985
10.4202
10.2916
10.2778
1
1
1
1
1
1
1
1
1
1
1
1
2.00762
8.31839
10.143
10.1973
10.2878
10.3279
10.3126
10.2516
10.1057
9.83868
9.06072
7.17571
1
1
1
1
1
1
1
1
1
1
1
1
1.1271
7.18146
10.1929
10.0914
10.0875
10.0751
10.0181
9.89273
9.6529
9.18053
8.37727
6.32148
1
1
1
1
1
1
1
1
1
1
1
1
1.00156
5.57055
9.58981
9.72486
9.78778
9.764
9.68893
9.51508
9.21767
8.65443
7.82656
5.88589
1
1
1
1
1
1
1
1
1
1
1
1
0.999977
3.69969
9.00905
9.59116
9.61918
9.55428
9.43438
9.20588
8.84757
8.27378
7.3762
5.80042
1
1
1
1
1
1
1
1
1
1
1
1
0.999994
1.96632
8.05
9.53128
9.44235
9.3319
9.17295
8.90919
8.5148
7.95573
7.05784
5.84449
1
1
1
1
1
1
1
1
1
1
1
1
0.999999
1.09686
6.28864
9.20227
9.19003
9.09089
8.92247
8.65099
8.26215
7.70025
6.87755
5.92924
1
1
1
1
1
1
1
1
1
1
1
1
1
1.00051
3.83913
8.60984
9.0412
8.93709
8.75003
8.44125
8.05626
7.48716
6.76996
5.99488
1
1
1
1
1
1
1
1
1
1
1
1
1
0.999994
1.62309
7.6378
9.07548
8.79665
8.55779
8.2465
7.83554
7.33134
6.72045
6.05411
1
1
1
1
1
1
1
1
1
1
1
1
1
0.999999
1.03398
5.6067
8.64648
8.45852
8.29395
8.02539
7.65962
7.21121
6.67689
6.09148
1
1
1
1
1
1
1
1
1
1
1
1
1
1
0.99997
2.80331
7.90703
8.34903
8.2024
7.93781
7.58161
7.14683
6.6458
6.11684
1
1
1
1
1
1
1
1
1
1
1
1
1
1
0.999988
1.22813
6.07991
8.30117
8.1184
7.83555
7.48265
7.07351
6.60987
6.12723
1
1
1
1
1
1
1
1
1
1
1
1
1
1
0.999998
1.00401
3.23571
7.60656
7.99454
7.7123
7.38875
7.0057
6.5729
6.13963
1
1
1
1
1
1
1
1
1
1
1
1
1
1
1
1
1.3408
5.98861
7.9625
7.65172
7.33952
6.95359
6.54772
6.21721
1
1
1
1
1
1
1
1
1
1
1
1
1
1
1
1
1.00931
3.11969
7.24121
7.56782
7.23904
6.86151
6.57091
6.52056
1
1
1
1
1
1
1
1
1
1
1
1
1
1
1
1
1.00003
1.31105
5.48315
7.59455
7.16084
6.88673
7.00166
7.39128
1
1
1
1
1
1
1
1
1
1
1
1
1
1
1
1
1
1.00808
2.52695
6.66495
6.97371
7.29417
7.94809
8.38844
1
1
1
1
1
1
1
1
1
1
1
1
1
1
1
1
1
1.00004
1.16669
4.46263
6.93222
8.58838
9.15025
9.02794
1
1
1
1
1
1
1
1
1
1
1
1
1
1
1
1
1
1
1.00299
1.81993
6.63721
10.007
9.74323
9.33955
1
1
1
1
1
1
1
1
1
1
1
1
1
1
1
1
1
1
1.00001
1.05026
6.26355
10.8387
10.0741
9.53217
1
1
1
1
1
1
1
1
1
1
1
1
1
1
1
1
1
1
1
1.00041
5.35464
10.586
9.9715
9.57097
1
1
1
1
1
1
1
1
1
1
1
1
1
1
1
1
1
1
1
1
4.69486
10.2229
10.0061
9.75
1
1
1
1
1
1
1
1
1
1
1
1
1
1
1
1
1
1
1
1
3.95355
9.72447
10.039
9.81339
1
1
1
1
1
1
1
1
1
1
1
1
1
1
1
1
1
1
1
1
3.26508
9.30316
10.0686
9.83276
1
1
1
1
1
1
1
1
1
1
1
1
1
1
1
1
1
1
1
1
2.60199
8.92705
10.1702
9.88536
1
1
1
1
1
1
1
1
1
1
1
1
1
1
1
1
1
1
1
1
2.00408
8.52673
10.3292
9.96171
1
1
1
1
1
1
1
1
1
1
1
1
1
1
1
1
1
1
1
1
1.5468
8.09703
10.3936
10.0068
1
1
1
1
1
1
1
1
1
1
1
1
1
1
1
1
1
1
1
1
1.34697
7.74684
10.4196
10.047
1
1
1
1
1
1
1
1
1
1
1
1
1
1
1
1
1
1
1
1
1.25717
7.42021
10.3757
10.0464
1
1
1
1
1
1
1
1
1
1
1
1
1
1
1
1
1
1
1
1
1.1779
7.15848
10.3316
10.0578
1
1
1
1
1
1
1
1
1
1
1
1
1
1
1
1
1
1
1
1
1.09635
6.98546
10.3164
10.0698
1
1
1
1
1
1
1
1
1
1
1
1
1
1
1
1
1
1
1
1
1.03153
6.85516
10.3101
10.072
1
1
1
1
1
1
1
1
1
1
1
1
1
1
1
1
1
1
1
1
1.00789
6.78726
10.3039
10.0754
1.58355
0.441921
0.164173
0.161547
0.210669
0.258337
0.326069
0.434909
0.582024
0.781386
0.956079
1.36687
3.75632
4.33858
4.49426
4.76776
4.95906
4.92028
4.85083
4.89355
4.95633
4.97632
4.97288
4.97601
5.00144
5.03044
5.03789
5.03325
5.03524
5.04596
5.05007
5.03423
5.00699
4.98447
4.97502
4.96896
4.94961
4.91097
4.86205
4.81709
4.7834
4.75657
4.7257
4.68427
4.63455
4.58427
4.54024
4.50451
4.47452
4.44169
4.39472
4.33324
4.26515
4.19803
4.1348
4.07447
4.01449
3.95468
3.89857
3.85059
3.8141
3.78088
3.72492
3.65435
3.58097
3.51424
3.45845
3.41679
3.38938
3.34824
3.29347
3.23573
3.17422
3.11105
3.04881
2.98856
2.93567
2.8982
2.91416
3.10146
4.14005
4.50951
4.4907
4.44292
4.41359
4.38257
4.3532
4.32907
4.31238
4.30518
4.30437
4.29974
4.28389
4.26309
4.24823
4.2582
2.77438
1.42323
0.860607
0.662551
0.6088
0.558546
0.498249
0.471452
0.487238
0.549087
0.634381
0.853713
3.13577
4.35988
4.57546
4.80003
4.94633
4.92162
4.88819
4.93545
4.99552
5.0213
5.0246
5.03167
5.05394
5.07633
5.07738
5.06148
5.04709
5.04487
5.04843
5.04542
5.03026
5.00513
4.97582
4.94927
4.92464
4.89484
4.85779
4.81809
4.77999
4.74445
4.71024
4.67427
4.63327
4.58544
4.53211
4.47984
4.43546
4.401
4.36808
4.32045
4.2561
4.18767
4.12374
4.06713
4.01527
3.96079
3.89877
3.83749
3.78412
3.74157
3.70348
3.65489
3.59499
3.53023
3.46749
3.41533
3.37096
3.32888
3.2802
3.22686
3.17138
3.11133
3.04693
2.9874
2.94457
2.92503
2.95697
3.14668
4.1279
4.50529
4.47578
4.4136
4.38751
4.37243
4.35933
4.34005
4.31874
4.30116
4.28996
4.29007
4.29506
4.28903
4.26978
4.25513
3.63197
2.41409
1.65
1.16553
0.989246
0.889004
0.77753
0.644938
0.548792
0.5498
0.592035
0.637964
2.08017
4.36133
4.70347
4.82771
4.90462
4.91424
4.96356
5.03143
5.07263
5.07325
5.05993
5.0552
5.06542
5.07986
5.08524
5.07523
5.05505
5.0352
5.02367
5.0227
5.02937
5.03467
5.02206
4.98287
4.9339
4.88969
4.85425
4.82611
4.79959
4.76676
4.72535
4.68174
4.64181
4.6062
4.56877
4.51907
4.4604
4.4049
4.35988
4.31871
4.26423
4.19541
4.12519
4.0613
4.00881
3.96718
3.92678
3.87037
3.80272
3.73693
3.67919
3.62757
3.58276
3.53694
3.48899
3.43825
3.3823
3.32427
3.26634
3.21161
3.15951
3.10774
3.05123
2.99211
2.95467
2.95564
3.00576
3.1908
4.01096
4.50073
4.49352
4.41751
4.37366
4.35211
4.35335
4.36167
4.35037
4.32576
4.29261
4.27362
4.27176
4.28832
4.30831
4.30029
4.22559
3.17073
2.45636
1.84252
1.40374
1.24975
1.15143
1.02849
0.867937
0.741083
0.717142
0.699313
0.976241
3.63029
4.90457
4.98595
4.90395
4.92115
5.00987
5.08088
5.09258
5.07039
5.0434
5.02814
5.02788
5.0352
5.04766
5.06446
5.07295
5.06086
5.0314
4.99943
4.97874
4.98079
4.99734
4.99092
4.94234
4.88319
4.82988
4.78898
4.76333
4.74584
4.71643
4.66914
4.6163
4.56887
4.53248
4.4989
4.45055
4.39323
4.33916
4.29366
4.24916
4.19035
4.123
4.05168
3.98908
3.93604
3.89304
3.85134
3.79899
3.74289
3.68124
3.61922
3.56181
3.51124
3.46747
3.42468
3.37945
3.327
3.26519
3.19948
3.13788
3.08894
3.049
3.01651
3
3.02858
3.11436
3.28049
3.80232
4.41129
4.49273
4.42884
4.37205
4.33889
4.32885
4.33392
4.34068
4.33147
4.31169
4.27672
4.25134
4.24611
4.26537
4.28636
4.6589
3.70688
3.03983
2.48058
1.9872
1.63832
1.43789
1.3155
1.19821
1.03793
0.891069
0.823137
0.863623
2.13828
4.75403
5.24336
5.05453
5.00008
5.06102
5.09092
5.08675
5.08985
5.1037
5.10985
5.09998
5.0843
5.07627
5.0873
5.11111
5.11985
5.096
5.05275
5.00937
4.97847
4.9749
4.98687
4.9644
4.90938
4.85107
4.7988
4.75754
4.73064
4.71109
4.67629
4.62518
4.57274
4.52806
4.49206
4.4461
4.38882
4.33269
4.28357
4.2359
4.18111
4.1227
4.05831
3.99426
3.93906
3.88685
3.83512
3.78339
3.73169
3.67962
3.62566
3.56938
3.51294
3.45948
3.41088
3.36466
3.31697
3.26214
3.19982
3.1309
3.07053
3.0397
3.03502
3.05935
3.14748
3.30501
3.42457
3.6395
4.14563
4.44882
4.45817
4.39432
4.34326
4.32173
4.32152
4.32804
4.33235
4.32564
4.30836
4.27769
4.25325
4.24367
4.25076
5.00324
4.16731
3.49644
2.94943
2.46552
2.11456
1.81972
1.5527
1.42801
1.32348
1.20383
1.14475
1.18369
1.42703
3.31118
5.22922
5.38057
5.26368
5.17785
5.12572
5.11546
5.13241
5.16851
5.18128
5.14622
5.10582
5.07373
5.06319
5.08535
5.10967
5.09459
5.05212
5.00858
4.97054
4.9475
4.95254
4.9445
4.89644
4.84036
4.78818
4.741
4.70355
4.6806
4.65116
4.60344
4.55339
4.5102
4.47329
4.42593
4.36918
4.31535
4.26773
4.21599
4.16002
4.10124
4.03988
3.97995
3.92375
3.87022
3.81786
3.76578
3.71457
3.66374
3.61237
3.5589
3.50308
3.44694
3.39304
3.34285
3.29412
3.2446
3.19153
3.13638
3.08358
3.06111
3.08094
3.15451
3.29029
3.49209
3.56075
3.59335
3.82026
4.18051
4.42647
4.4393
4.38766
4.31943
4.29682
4.30164
4.31195
4.31772
4.30935
4.29111
4.26275
4.2411
4.23644
5.22052
4.4928
3.87701
3.34929
2.83441
2.45382
2.19052
1.92117
1.70274
1.60688
1.54757
1.58379
1.73171
1.76816
2.12771
3.91766
5.25736
5.59196
5.4852
5.24101
5.13631
5.16264
5.22901
5.24089
5.19367
5.12269
5.07596
5.05544
5.0715
5.10081
5.08605
5.04708
5.0004
4.96207
4.93146
4.92297
4.9156
4.87507
4.82396
4.77191
4.72802
4.69207
4.66733
4.63093
4.58479
4.53311
4.49264
4.45341
4.40333
4.34909
4.29866
4.24732
4.19225
4.13614
4.08032
4.02394
3.96606
3.90762
3.85118
3.79805
3.74788
3.69932
3.65094
3.60098
3.5478
3.49163
3.43344
3.376
3.32227
3.2703
3.22116
3.17472
3.13887
3.11383
3.12684
3.20198
3.32818
3.48856
3.64335
3.66328
3.60747
3.64429
3.84322
4.14999
4.37706
4.42671
4.39693
4.3291
4.28649
4.28392
4.29748
4.30615
4.29731
4.27668
4.24644
4.22804
5.39739
4.7408
4.15108
3.66553
3.21642
2.76117
2.45155
2.26511
2.14327
2.10629
2.0685
2.16013
2.2776
2.20764
2.19964
2.60119
4.12638
5.36745
5.71361
5.5553
5.30107
5.24012
5.28844
5.31356
5.26929
5.17832
5.1081
5.08017
5.0844
5.10763
5.08815
5.04698
4.9895
4.94483
4.91267
4.89813
4.88999
4.85418
4.80716
4.75435
4.71319
4.68031
4.64923
4.60777
4.56068
4.51253
4.47162
4.42617
4.37706
4.32979
4.27971
4.22268
4.16345
4.10857
4.05742
4.00568
3.95112
3.89228
3.83064
3.77322
3.72344
3.67809
3.63286
3.58444
3.53156
3.47433
3.41442
3.35653
3.3012
3.24984
3.20331
3.16941
3.15976
3.16977
3.24222
3.38472
3.53242
3.68806
3.7356
3.71786
3.6521
3.60451
3.6574
3.83617
4.10103
4.32004
4.42362
4.40151
4.32797
4.27336
4.2684
4.28379
4.29231
4.28457
4.26516
4.2321
5.50692
4.92756
4.37193
3.89254
3.49823
3.12559
2.8298
2.72598
2.76881
2.7395
2.67131
2.71271
2.71146
2.6207
2.44221
2.49986
2.94154
4.25155
5.47853
5.72426
5.58125
5.41458
5.36465
5.36335
5.31898
5.24096
5.16806
5.13198
5.12076
5.12856
5.09963
5.05433
4.99132
4.94582
4.9154
4.90303
4.8917
4.85458
4.80569
4.74593
4.70175
4.66747
4.63142
4.58958
4.54491
4.49693
4.44523
4.3945
4.35121
4.30906
4.25858
4.1984
4.13465
4.07946
4.03234
3.98621
3.93689
3.87943
3.81244
3.74755
3.69643
3.65432
3.61185
3.56596
3.51325
3.45453
3.39202
3.33323
3.28072
3.23477
3.2008
3.19614
3.21783
3.2792
3.43833
3.58888
3.71505
3.79121
3.78105
3.74759
3.69265
3.6256
3.60744
3.65603
3.8145
4.06008
4.27918
4.38043
4.36575
4.32406
4.28091
4.2717
4.2793
4.2805
4.2744
4.24687
5.58498
5.05907
4.55344
4.13697
3.8388
3.60284
3.44961
3.48064
3.50055
3.33189
3.18933
3.14418
3.09116
3.003
2.82954
2.69827
2.75726
3.15323
4.35546
5.4849
5.68503
5.60109
5.50019
5.44221
5.37488
5.3026
5.22906
5.18415
5.15417
5.14132
5.10527
5.05919
4.99843
4.95283
4.92298
4.90785
4.88534
4.84356
4.78935
4.71999
4.67126
4.63759
4.60537
4.56784
4.52562
4.47214
4.40646
4.35231
4.31444
4.2757
4.22803
4.17018
4.10363
4.04348
3.99786
3.95715
3.91367
3.8612
3.79468
3.72148
3.66394
3.62202
3.58276
3.54048
3.49166
3.43257
3.36749
3.30654
3.26243
3.23454
3.23299
3.26651
3.34046
3.4902
3.66782
3.75002
3.80508
3.81957
3.80281
3.7674
3.72868
3.67392
3.61695
3.6127
3.65264
3.78978
4.01373
4.21202
4.32142
4.34719
4.31976
4.28465
4.27064
4.27145
4.27108
4.25163
5.64646
5.18975
4.78069
4.5151
4.43617
4.31464
4.18621
4.18026
4.06494
3.80117
3.58635
3.50804
3.45082
3.36478
3.22197
3.03554
2.97147
3.01194
3.34751
4.42324
5.42192
5.61504
5.60354
5.55659
5.47404
5.37651
5.28736
5.219
5.17165
5.14273
5.10646
5.06152
5.0074
4.95353
4.91723
4.88967
4.857
4.81323
4.75851
4.68497
4.63016
4.59781
4.57232
4.54152
4.50093
4.44459
4.36661
4.30444
4.26828
4.23275
4.19051
4.14052
4.07797
4.00856
3.95561
3.91661
3.87803
3.83337
3.77691
3.706
3.63656
3.58604
3.54621
3.50689
3.46278
3.40871
3.34531
3.28225
3.25478
3.26484
3.31383
3.42459
3.57532
3.77672
3.85207
3.84445
3.82695
3.81427
3.80531
3.78061
3.75542
3.72529
3.66995
3.61607
3.61396
3.64573
3.75125
3.95091
4.14561
4.27957
4.31704
4.30547
4.286
4.27321
4.26692
4.24587
5.73476
5.42252
5.23919
5.23421
5.23755
5.01089
4.81221
4.69522
4.49659
4.2177
3.96325
3.86455
3.82079
3.7204
3.57228
3.37755
3.27709
3.20688
3.23863
3.50929
4.39817
5.28421
5.54036
5.63868
5.60912
5.4889
5.36017
5.24742
5.18402
5.14282
5.11313
5.06835
5.01839
4.95257
4.89646
4.85549
4.81604
4.7737
4.72578
4.66042
4.59345
4.55703
4.53267
4.50623
4.46772
4.41542
4.33798
4.25876
4.21563
4.18076
4.14503
4.10556
4.05547
3.98815
3.91713
3.86705
3.82866
3.79159
3.7493
3.69481
3.6248
3.55452
3.50155
3.46202
3.42461
3.38429
3.33546
3.28442
3.28324
3.33129
3.47011
3.63543
3.81761
3.94863
3.95177
3.91526
3.84863
3.81279
3.79272
3.78242
3.77316
3.75436
3.72391
3.66635
3.61359
3.60808
3.63671
3.71647
3.89205
4.08412
4.23482
4.28053
4.29546
4.28247
4.26725
4.23758
6.03052
6.02828
6.02401
6.05051
5.85129
5.48961
5.24308
5.08055
4.89275
4.62774
4.34732
4.22144
4.1697
4.06394
3.89806
3.70136
3.57903
3.50784
3.39843
3.43144
3.60552
4.30688
5.11451
5.50382
5.67604
5.60696
5.45932
5.29293
5.19869
5.14883
5.12281
5.08202
5.02938
4.95728
4.87123
4.81595
4.77252
4.73446
4.69595
4.64827
4.58001
4.52164
4.48925
4.45975
4.42278
4.37803
4.31621
4.23601
4.16939
4.12588
4.09247
4.06054
4.02314
3.97267
3.90269
3.82994
3.77957
3.74337
3.70884
3.66813
3.61259
3.5394
3.46587
3.41399
3.38281
3.36143
3.34848
3.35314
3.40168
3.53313
3.70307
3.82398
3.94389
3.99735
3.98956
3.95642
3.89809
3.83491
3.80051
3.78305
3.77774
3.77266
3.75252
3.71878
3.65939
3.60761
3.59989
3.62413
3.68776
3.83634
4.02657
4.17967
4.24306
4.27637
4.26843
4.2374
6.72658
6.83015
6.77882
6.63031
6.2751
5.87763
5.60925
5.43421
5.27275
5.02002
4.72262
4.56191
4.49053
4.38779
4.21075
4.00825
3.87547
3.78972
3.69389
3.55589
3.55831
3.65992
4.20846
4.98399
5.47224
5.63081
5.55559
5.38462
5.23351
5.16555
5.13087
5.09469
5.04028
4.96497
4.8572
4.78148
4.73622
4.70165
4.67295
4.63657
4.58263
4.50616
4.44537
4.40339
4.36466
4.32494
4.27922
4.22205
4.15177
4.08315
4.03784
4.00487
3.97233
3.93575
3.8873
3.81783
3.74426
3.69325
3.65597
3.61927
3.57562
3.51941
3.44994
3.37928
3.35328
3.35571
3.39649
3.48848
3.64526
3.8483
3.9319
3.96515
3.98755
3.99567
3.99176
3.96597
3.93203
3.88345
3.83021
3.80178
3.78666
3.78156
3.76919
3.74556
3.70775
3.64594
3.59901
3.59051
3.60733
3.66358
3.79016
3.96797
4.1205
4.19023
4.24914
4.23856
7.65778
7.46338
7.26074
6.98535
6.59326
6.23491
5.99388
5.79906
5.6278
5.38764
5.08583
4.89186
4.79967
4.69955
4.51642
4.29092
4.16203
4.05644
3.9638
3.83457
3.67081
3.63689
3.69291
4.11852
4.84037
5.38287
5.53364
5.44911
5.31203
5.21367
5.14696
5.09427
5.04023
4.96775
4.85566
4.76042
4.71132
4.67606
4.64963
4.61486
4.56859
4.50194
4.41998
4.35119
4.30256
4.26258
4.22692
4.18863
4.13775
4.07052
4.00028
3.94729
3.91019
3.87968
3.84667
3.79932
3.73105
3.65742
3.59898
3.55454
3.51689
3.48088
3.43948
3.38655
3.37621
3.41262
3.53301
3.69517
3.91593
4.07103
4.08221
4.05517
4.00965
3.98664
3.97703
3.96341
3.94298
3.91579
3.87586
3.83398
3.81062
3.7963
3.78214
3.76078
3.73262
3.69006
3.63303
3.59253
3.58029
3.59212
3.63874
3.74654
3.90504
4.04132
4.14747
4.2063
8.25456
7.86078
7.57918
7.27444
6.8938
6.57722
6.38386
6.15859
5.93879
5.71304
5.43181
5.21442
5.09791
4.99532
4.81127
4.56421
4.4192
4.31965
4.2097
4.09954
3.92763
3.74626
3.6937
3.72727
4.03711
4.67376
5.21361
5.34518
5.34627
5.28297
5.20543
5.11528
5.03743
4.9562
4.85144
4.75831
4.69986
4.65779
4.61945
4.57714
4.53248
4.47698
4.40138
4.31845
4.24734
4.19466
4.16263
4.13357
4.09447
4.04728
3.98681
3.91365
3.8579
3.82555
3.79375
3.75399
3.69805
3.62661
3.55528
3.49789
3.46319
3.44342
3.43321
3.43792
3.48122
3.60781
3.77125
3.92316
4.08455
4.1363
4.1306
4.10203
4.04371
3.99809
3.97599
3.96052
3.94932
3.93157
3.90834
3.87498
3.83764
3.81354
3.7935
3.7719
3.74847
3.72034
3.68109
3.63108
3.58761
3.57076
3.57827
3.61171
3.69144
3.82867
3.97211
4.11769
8.56091
8.12954
7.86759
7.58505
7.22191
6.92388
6.75713
6.52464
6.23967
6.00572
5.76784
5.53882
5.39093
5.2754
5.09605
4.84283
4.66461
4.57071
4.45084
4.32983
4.18043
3.99028
3.82252
3.7561
3.77161
3.9607
4.45909
4.95337
5.17395
5.26109
5.24938
5.17026
5.05798
4.94277
4.84023
4.76556
4.7046
4.64811
4.59635
4.54532
4.4909
4.43428
4.36482
4.29379
4.22413
4.15366
4.10598
4.07292
4.04394
4.01038
3.96399
3.89735
3.82078
3.7508
3.70985
3.68196
3.64793
3.5969
3.52181
3.45032
3.42773
3.42599
3.46107
3.55056
3.71684
3.92684
4.02186
4.0838
4.12603
4.14778
4.14525
4.12374
4.08271
4.02417
3.98273
3.96536
3.95912
3.94976
3.93113
3.90488
3.86488
3.82364
3.79831
3.78115
3.76479
3.74421
3.71573
3.67285
3.61931
3.57572
3.55999
3.56276
3.5814
3.64415
3.75097
3.95915
8.81595
8.40668
8.18157
7.90121
7.53156
7.23664
7.07359
6.8536
6.5434
6.27901
6.09069
5.87005
5.67797
5.53244
5.35796
5.11817
4.90501
4.80018
4.68078
4.54044
4.39435
4.21711
4.04843
3.90114
3.7981
3.79728
3.89302
4.23358
4.69817
5.04916
5.1682
5.14567
5.06849
4.94573
4.85393
4.78059
4.71687
4.65075
4.56999
4.47263
4.38667
4.33512
4.30276
4.2678
4.21409
4.14121
4.06184
3.99636
3.95147
3.91734
3.88497
3.85
3.79382
3.71857
3.65526
3.60588
3.55803
3.51165
3.46908
3.43516
3.43461
3.47496
3.60398
3.78801
4.03436
4.16133
4.16483
4.15366
4.14536
4.15102
4.15603
4.13278
4.1002
4.04845
3.99702
3.97795
3.97081
3.96365
3.94547
3.92366
3.8919
3.84698
3.81763
3.80322
3.78625
3.76269
3.73531
3.7036
3.66007
3.60545
3.56614
3.54568
3.54834
3.5578
3.59019
3.7508
8.98562
8.67023
8.47652
8.19598
7.84486
7.55316
7.37655
7.15487
6.843
6.54901
6.38004
6.19157
5.95963
5.76808
5.59191
5.38339
5.15856
5.01292
4.89975
4.7462
4.58535
4.41944
4.25033
4.11057
3.95033
3.84085
3.79223
3.82442
4.05267
4.45964
4.89659
5.01321
4.98115
4.9457
4.88813
4.82188
4.74871
4.66679
4.56556
4.44466
4.33673
4.26084
4.21255
4.17662
4.13904
4.0923
4.02714
3.95483
3.90159
3.85868
3.81574
3.76676
3.70945
3.64469
3.59078
3.54147
3.49655
3.46602
3.45719
3.4622
3.51333
3.66935
3.86186
4.04878
4.20901
4.23284
4.22254
4.19482
4.16789
4.15241
4.14301
4.13369
4.11483
4.08168
4.03644
3.99509
3.97355
3.96808
3.96824
3.95162
3.92604
3.89037
3.84656
3.80032
3.7757
3.76639
3.75589
3.73399
3.70279
3.65737
3.60565
3.55764
3.5358
3.53025
3.53397
3.5973
9.22329
8.97538
8.77704
8.48536
8.11647
7.84686
7.67307
7.45416
7.14693
6.85411
6.65799
6.47671
6.23202
5.98799
5.79313
5.60427
5.41358
5.22638
5.08386
4.93098
4.7518
4.58097
4.42312
4.28081
4.14019
3.97942
3.83931
3.77349
3.76865
3.89357
4.24522
4.65672
4.82513
4.88929
4.85691
4.77087
4.6788
4.5914
4.49777
4.40019
4.31515
4.2499
4.19203
4.13393
4.07285
4.00774
3.94317
3.89777
3.86289
3.82538
3.77809
3.71736
3.63983
3.57038
3.5186
3.47562
3.46172
3.47014
3.50055
3.58644
3.76434
3.97576
4.09774
4.19458
4.26366
4.27453
4.2642
4.2298
4.17702
4.13978
4.12415
4.11718
4.11633
4.10562
4.08165
4.04053
3.99741
3.97128
3.95755
3.94927
3.93704
3.91675
3.88038
3.82893
3.79046
3.7645
3.74502
3.7283
3.7119
3.69066
3.65281
3.60077
3.55221
3.51411
3.50408
3.51726
9.4791
9.22214
9.00537
8.74479
8.39638
8.11228
7.91829
7.70567
7.39865
7.09107
6.9061
6.75573
6.52669
6.2514
6.02486
5.85317
5.68673
5.50793
5.30473
5.14361
4.97121
4.80454
4.65423
4.51734
4.38604
4.23424
4.05915
3.8962
3.75106
3.72208
3.80232
4.07475
4.38894
4.67788
4.78635
4.74716
4.64458
4.54289
4.44553
4.36213
4.29247
4.22888
4.16472
4.09444
4.01977
3.94861
3.88867
3.84458
3.81004
3.77283
3.72289
3.65569
3.58676
3.52445
3.47154
3.45107
3.46681
3.51709
3.64638
3.84612
4.09599
4.20759
4.23342
4.26549
4.28011
4.28684
4.27046
4.23744
4.19615
4.14951
4.12233
4.11253
4.1112
4.10993
4.09696
4.07481
4.03596
3.98958
3.96263
3.94741
3.93308
3.91545
3.89382
3.86716
3.82661
3.78476
3.75445
3.73103
3.7083
3.68388
3.6564
3.6249
3.5868
3.54233
3.50746
3.48316
9.60397
9.39161
9.16016
8.87388
8.56846
8.31609
8.13564
7.94588
7.63608
7.32422
7.11169
6.94458
6.72575
6.45068
6.20435
6.01876
5.83277
5.65221
5.4667
5.25731
5.06715
4.89049
4.73702
4.59715
4.45899
4.30747
4.13538
3.95832
3.80956
3.72481
3.67751
3.72215
3.89174
4.16058
4.51058
4.64614
4.60343
4.52766
4.43258
4.33669
4.25329
4.18134
4.10897
4.03607
3.96867
3.91197
3.86035
3.80693
3.75019
3.69277
3.63408
3.58121
3.53753
3.49969
3.47454
3.48217
3.52767
3.67592
3.88844
4.11279
4.2871
4.32639
4.31201
4.27169
4.24323
4.23394
4.23688
4.23293
4.22049
4.18999
4.14786
4.12464
4.1137
4.10664
4.09719
4.08228
4.05907
4.02056
3.98177
3.95627
3.93709
3.91913
3.90116
3.88052
3.85082
3.80911
3.77046
3.74043
3.71393
3.68995
3.66735
3.64448
3.61172
3.57053
3.5259
3.47739
9.68991
9.5014
9.2757
9.00758
8.7481
8.5331
8.34274
8.09412
7.77741
7.4998
7.2978
7.14003
6.92464
6.64364
6.38574
6.20193
6.0108
5.81711
5.62095
5.40664
5.20482
5.02749
4.87231
4.72697
4.58092
4.42401
4.25541
4.08308
3.92948
3.80019
3.70131
3.62041
3.62253
3.71201
3.96882
4.28549
4.44566
4.47574
4.43556
4.34591
4.2384
4.13805
4.04134
3.9716
3.92674
3.88439
3.83735
3.77646
3.69277
3.59772
3.53986
3.50751
3.49215
3.4976
3.52605
3.58145
3.73746
3.96286
4.12357
4.29233
4.36903
4.36854
4.32921
4.25598
4.22111
4.21309
4.21647
4.22785
4.22337
4.20779
4.17753
4.14333
4.12521
4.11366
4.101
4.0859
4.06617
4.03829
4.00304
3.97183
3.95155
3.93463
3.91633
3.89395
3.86288
3.82145
3.77951
3.74779
3.72379
3.70289
3.68215
3.65957
3.6282
3.58576
3.5408
3.4847
9.72722
9.51336
9.29273
9.07931
8.87912
8.68433
8.46574
8.19467
7.90862
7.66038
7.47751
7.3066
7.05542
6.76179
6.5207
6.34208
6.15745
5.95385
5.74242
5.52027
5.31583
5.14192
4.98591
4.83441
4.68009
4.51634
4.34797
4.18402
4.02856
3.8896
3.7665
3.64795
3.55739
3.50608
3.55408
3.77927
4.0577
4.2691
4.38229
4.34724
4.23851
4.1065
3.98767
3.91606
3.87534
3.8425
3.7988
3.73618
3.64293
3.52446
3.46829
3.45372
3.47266
3.53582
3.62395
3.81307
4.08157
4.21437
4.28116
4.32979
4.34674
4.33357
4.3108
4.27587
4.23926
4.22323
4.21647
4.21563
4.21207
4.20236
4.18748
4.16242
4.13787
4.12267
4.10815
4.09184
4.07386
4.05334
4.02756
3.99592
3.96733
3.94523
3.92297
3.89674
3.86472
3.82842
3.79321
3.76342
3.73833
3.71668
3.69479
3.67086
3.63904
3.59653
3.55359
3.49576
9.78851
9.59229
9.39879
9.20259
8.99662
8.77472
8.52402
8.26401
8.01937
7.8135
7.64162
7.42319
7.14608
6.87051
6.65543
6.48414
6.29494
6.07851
5.84419
5.61496
5.41676
5.24608
5.0875
4.93067
4.76763
4.59342
4.41961
4.2607
4.11532
3.97471
3.83822
3.70894
3.57782
3.47588
3.39792
3.42883
3.61423
3.86406
4.15069
4.26
4.20763
4.09607
3.97888
3.88115
3.82335
3.7811
3.73343
3.67247
3.58213
3.48422
3.44658
3.45647
3.51257
3.64111
3.86169
4.14816
4.31645
4.33385
4.32811
4.30964
4.30117
4.29654
4.28822
4.27765
4.25741
4.23234
4.2196
4.2139
4.2108
4.20447
4.19279
4.1733
4.14896
4.12891
4.1149
4.10104
4.08537
4.06683
4.04293
4.01156
3.97712
3.94798
3.92321
3.89758
3.86893
3.83915
3.81066
3.78322
3.75596
3.72984
3.70347
3.67259
3.63373
3.58923
3.55512
3.50778
9.82169
9.62704
9.43934
9.24596
9.04178
8.82428
8.59204
8.36048
8.14622
7.95834
7.754
7.49133
7.20942
6.96822
6.78245
6.60764
6.39778
6.15606
5.9089
5.70112
5.51769
5.34747
5.18246
5.01173
4.82934
4.64446
4.47637
4.32832
4.19107
4.05292
3.91108
3.76483
3.61985
3.48851
3.39021
3.32897
3.34694
3.45954
3.71111
3.9755
4.09343
4.07433
3.99653
3.8884
3.78335
3.70842
3.64271
3.57345
3.50984
3.48564
3.48515
3.50763
3.62857
3.88429
4.12715
4.33073
4.38259
4.3743
4.35083
4.31393
4.29091
4.27641
4.26921
4.26774
4.26335
4.25504
4.23988
4.22521
4.21429
4.20128
4.18557
4.16903
4.15312
4.13692
4.12079
4.10647
4.0908
4.07222
4.05112
4.02725
3.99855
3.96445
3.93062
3.90047
3.87244
3.84678
3.82365
3.80156
3.77685
3.7457
3.70611
3.66174
3.6208
3.58937
3.56998
3.52993
9.86542
9.67186
9.48144
9.28477
9.07904
8.86364
8.64491
8.43249
8.23288
8.03364
7.79344
7.52506
7.27604
7.07002
6.89544
6.69198
6.45356
6.18938
5.97329
5.79525
5.62018
5.44644
5.26302
5.06188
4.863
4.68661
4.53243
4.3929
4.25895
4.12118
3.96985
3.80857
3.65379
3.52102
3.41447
3.32568
3.27375
3.24496
3.30835
3.52897
3.7694
3.95367
3.96772
3.90165
3.77887
3.655
3.55362
3.49371
3.47644
3.49472
3.55459
3.70915
3.98469
4.17354
4.28458
4.35184
4.38479
4.37939
4.3583
4.32101
4.28583
4.27258
4.26748
4.27364
4.27566
4.26851
4.25108
4.22068
4.19915
4.18893
4.18203
4.17815
4.16907
4.15539
4.13509
4.11219
4.09438
4.07802
4.06052
4.03972
4.01109
3.9705
3.92704
3.89555
3.87331
3.85435
3.83534
3.81498
3.79024
3.7532
3.70277
3.65848
3.63082
3.60844
3.58891
3.54341
9.88149
9.70032
9.51596
9.32142
9.1187
8.91047
8.7022
8.49812
8.29443
8.07108
7.81953
7.56965
7.35116
7.17364
6.97944
6.74224
6.47579
6.23371
6.04811
5.88062
5.70461
5.51704
5.3081
5.08854
4.89323
4.73065
4.58831
4.45537
4.32364
4.17602
4.00502
3.83464
3.6879
3.56331
3.45531
3.3537
3.26335
3.19113
3.11894
3.16627
3.36116
3.6105
3.81714
3.84233
3.78283
3.63459
3.51407
3.47578
3.48666
3.56895
3.76405
4.07187
4.29637
4.32836
4.34404
4.35094
4.37038
4.36601
4.34826
4.31497
4.28143
4.2732
4.27204
4.2794
4.27885
4.2694
4.24716
4.21594
4.20139
4.19502
4.19206
4.19114
4.18087
4.16562
4.14025
4.11101
4.09248
4.07731
4.06041
4.03932
4.01002
3.97169
3.93346
3.90394
3.883
3.8644
3.84492
3.82279
3.79485
3.75416
3.70702
3.67022
3.64465
3.61999
3.59611
3.54179
9.90663
9.72855
9.5458
9.35432
9.15663
8.95507
8.75188
8.54579
8.32841
8.09229
7.84898
7.61843
7.42042
7.24736
7.02326
6.76676
6.50558
6.29665
6.11524
5.94045
5.75342
5.55092
5.332
5.11965
4.93796
4.78294
4.64202
4.50443
4.35805
4.19449
4.02305
3.86281
3.72468
3.60628
3.5044
3.4053
3.29719
3.18306
3.07662
3.01328
3.05496
3.21572
3.46307
3.66952
3.69665
3.60746
3.52091
3.51222
3.58841
3.80306
4.09174
4.34191
4.38278
4.38104
4.36807
4.35516
4.35381
4.34133
4.32659
4.30348
4.28503
4.27949
4.27966
4.28236
4.27777
4.26595
4.24568
4.22448
4.21153
4.20398
4.20075
4.19354
4.18122
4.16278
4.1379
4.11306
4.09333
4.07681
4.0591
4.03679
4.00837
3.9765
3.94525
3.91729
3.89357
3.87396
3.85368
3.82796
3.79361
3.75327
3.71414
3.68195
3.65322
3.62374
3.59507
3.53779
9.92334
9.74958
9.57163
9.38439
9.18996
8.99044
8.78564
8.57231
8.34707
8.11297
7.88172
7.66789
7.4795
7.27995
7.04054
6.78298
6.55558
6.35449
6.16784
5.97483
5.77419
5.56199
5.35103
5.15932
4.99066
4.83346
4.68132
4.52638
4.36112
4.19383
4.0378
3.89869
3.77294
3.65219
3.53677
3.41928
3.29313
3.17023
3.06294
2.98603
2.93158
2.94333
3.06056
3.30393
3.50479
3.52125
3.55809
3.67554
3.89508
4.13911
4.33129
4.43044
4.43986
4.42056
4.39166
4.36536
4.33515
4.31137
4.29552
4.29087
4.28992
4.2919
4.28971
4.28345
4.27138
4.25549
4.24385
4.2357
4.22708
4.21589
4.20253
4.18916
4.17285
4.15404
4.13593
4.11812
4.09928
4.07848
4.05599
4.03158
4.00681
3.98338
3.96169
3.93799
3.91058
3.88173
3.85336
3.82159
3.78589
3.75149
3.72087
3.69089
3.65943
3.62532
3.59243
3.53753
9.92475
9.7558
9.58224
9.39881
9.20707
9.00767
8.80034
8.58504
8.36419
8.14289
7.92529
7.71717
7.51093
7.2607
7.01156
6.79446
6.60238
6.40928
6.20405
5.99174
5.77398
5.56368
5.37039
5.19848
5.03634
4.8732
4.70089
4.52095
4.34807
4.19135
4.05584
3.93646
3.82082
3.69736
3.55878
3.41464
3.28283
3.16245
3.06381
2.97792
2.8994
2.83255
2.83442
2.94565
3.17146
3.41869
3.68283
4.01136
4.28279
4.38766
4.41944
4.43838
4.43434
4.41766
4.39164
4.35958
4.31552
4.28439
4.27962
4.28511
4.30184
4.3062
4.29981
4.27924
4.25706
4.24955
4.24631
4.24661
4.24132
4.22864
4.20667
4.17904
4.16056
4.14813
4.136
4.12254
4.10438
4.07915
4.05152
4.02792
4.00919
3.99308
3.97631
3.95576
3.92824
3.89067
3.84877
3.81175
3.77974
3.75095
3.72374
3.69526
3.6634
3.62663
3.59224
3.54012
9.92907
9.76121
9.58814
9.405
9.21319
9.01279
8.80521
8.5933
8.3807
8.17024
7.95987
7.74095
7.49901
7.2572
7.02945
6.82658
6.64536
6.44068
6.22404
5.99566
5.76408
5.56431
5.39184
5.22938
5.06861
4.89829
4.70697
4.50412
4.3263
4.19016
4.07881
3.97283
3.86021
3.72346
3.55513
3.38694
3.25754
3.15941
3.07748
2.99747
2.915
2.81041
2.70636
2.72305
2.87382
3.26962
3.79716
4.2647
4.54592
4.64895
4.55094
4.46052
4.41865
4.40003
4.37957
4.35406
4.30514
4.27339
4.2713
4.28285
4.3048
4.30658
4.2975
4.26958
4.24963
4.24544
4.24985
4.26032
4.25215
4.2355
4.20408
4.17013
4.15507
4.14543
4.13681
4.12509
4.10727
4.07708
4.04589
4.02785
4.01371
4.0015
3.98549
3.96526
3.93512
3.88969
3.84058
3.8031
3.77495
3.7501
3.72552
3.69902
3.66685
3.62502
3.59155
3.54604
)
;

boundaryField
{
    inlet
    {
        type            fixedValue;
        value           uniform 1;
    }
    outlet
    {
        type            zeroGradient;
    }
    bottom
    {
        type            symmetryPlane;
    }
    top
    {
        type            symmetryPlane;
    }
    obstacle
    {
        type            zeroGradient;
    }
    defaultFaces
    {
        type            empty;
    }
}


// ************************************************************************* //
