/*--------------------------------*- C++ -*----------------------------------*\
  =========                 |
  \\      /  F ield         | OpenFOAM: The Open Source CFD Toolbox
   \\    /   O peration     | Website:  https://openfoam.org
    \\  /    A nd           | Version:  7
     \\/     M anipulation  |
\*---------------------------------------------------------------------------*/
FoamFile
{
    version     2.0;
    format      ascii;
    class       volScalarField;
    location    "11";
    object      rho;
}
// * * * * * * * * * * * * * * * * * * * * * * * * * * * * * * * * * * * * * //

dimensions      [1 -3 0 0 0 0 0];

internalField   nonuniform List<scalar> 
4032
(
1.40001
1.40001
1.40001
1.40001
1.40001
1.40001
1.40001
1.40001
1.40001
1.40001
1.40001
1.58628
4.40281
5.46743
5.5145
5.59009
5.65706
5.72063
5.77882
5.83109
5.87763
5.91517
5.94391
5.96513
1.40001
1.40001
1.40001
1.40001
1.40001
1.40001
1.40001
1.40001
1.40001
1.40001
1.40001
1.56304
4.33281
5.45232
5.50926
5.58333
5.64896
5.71077
5.76709
5.817
5.86081
5.89564
5.92128
5.94143
1.40001
1.40001
1.40001
1.40001
1.40001
1.40001
1.40001
1.40001
1.40001
1.40001
1.40001
1.50734
4.22363
5.44319
5.49435
5.56749
5.63304
5.69423
5.74954
5.79769
5.83894
5.87078
5.89158
5.90872
1.40001
1.40001
1.40001
1.40001
1.40001
1.40001
1.40001
1.40001
1.40001
1.40001
1.40001
1.41258
4.04346
5.43237
5.47686
5.54271
5.60417
5.66113
5.71326
5.75933
5.79953
5.83023
5.84791
5.86145
1.40001
1.40001
1.40001
1.40001
1.40001
1.40001
1.40001
1.40001
1.40001
1.40001
1.40001
1.40019
3.76712
5.37221
5.42957
5.49322
5.55557
5.61187
5.66185
5.70308
5.73566
5.76039
5.77403
5.79265
1.40001
1.40001
1.40001
1.40001
1.40001
1.40001
1.40001
1.40001
1.40001
1.40001
1.40001
1.4
3.40866
5.28853
5.39029
5.4489
5.50783
5.55693
5.59877
5.63334
5.66158
5.68528
5.69476
5.68601
1.40001
1.40001
1.40001
1.40001
1.40001
1.40001
1.40001
1.40001
1.40001
1.40001
1.40001
1.4
2.98738
5.17083
5.36118
5.41123
5.45846
5.49389
5.52085
5.54048
5.54759
5.53608
5.51786
5.51007
1.40001
1.40001
1.40001
1.40001
1.40001
1.40001
1.40001
1.40001
1.40001
1.40001
1.40001
1.40001
2.51285
5.01145
5.36902
5.39387
5.42137
5.43837
5.44369
5.44109
5.42254
5.39265
5.33689
5.30818
1.40001
1.40001
1.40001
1.40001
1.40001
1.40001
1.40001
1.40001
1.40001
1.40001
1.40001
1.40001
1.99258
4.77137
5.40032
5.37719
5.38782
5.38567
5.36928
5.33956
5.27972
5.17629
4.86165
4.00386
1.40001
1.40001
1.40001
1.40001
1.40001
1.40001
1.40001
1.40001
1.40001
1.40001
1.40001
1.40001
1.50067
4.35588
5.42599
5.36799
5.3447
5.31628
5.27689
5.21712
5.1158
4.92736
4.59824
3.70526
1.40001
1.40001
1.40001
1.40001
1.40001
1.40001
1.40001
1.40001
1.40001
1.40001
1.40001
1.40001
1.40132
3.64428
5.18596
5.24218
5.25377
5.226
5.17701
5.09284
4.96228
4.72943
4.38703
3.56197
1.40001
1.40001
1.40001
1.40001
1.40001
1.40001
1.40001
1.40001
1.40001
1.40001
1.40001
1.40001
1.39998
2.82588
4.99704
5.20121
5.19973
5.16656
5.1046
4.99677
4.83769
4.59328
4.21629
3.54636
1.40001
1.40001
1.40001
1.40001
1.40001
1.40001
1.40001
1.40001
1.40001
1.40001
1.40001
1.40001
1.4
2.00321
4.7356
5.20596
5.15705
5.09984
5.02326
4.90297
4.72849
4.48584
4.10155
3.57404
1.40001
1.40001
1.40001
1.40001
1.40001
1.40001
1.40001
1.40001
1.40001
1.40001
1.40001
1.40001
1.4
1.47865
4.01165
5.10738
5.0791
5.02612
4.94441
4.82113
4.64914
4.40401
4.04654
3.62697
1.40001
1.40001
1.40001
1.40001
1.40001
1.40001
1.40001
1.40001
1.40001
1.40001
1.40001
1.40001
1.4
1.40039
2.94009
4.94161
5.04092
4.98881
4.8988
4.75842
4.58674
4.33747
4.02182
3.67405
1.40001
1.40001
1.40001
1.40001
1.40001
1.40001
1.40001
1.40001
1.40001
1.40001
1.40001
1.40001
1.40001
1.4
1.83156
4.69015
5.10035
4.97001
4.8505
4.70302
4.51652
4.2918
4.02069
3.71959
1.40001
1.40001
1.40001
1.40001
1.40001
1.40001
1.40001
1.40001
1.40001
1.40001
1.40001
1.40001
1.40001
1.4
1.42839
3.76813
4.95899
4.86958
4.77721
4.64099
4.4674
4.26175
4.02076
3.75427
1.40001
1.40001
1.40001
1.40001
1.40001
1.40001
1.40001
1.40001
1.40001
1.40001
1.40001
1.40001
1.40001
1.4
1.39995
2.47541
4.76258
4.84538
4.77284
4.64222
4.47001
4.26466
4.03102
3.78541
1.40001
1.40001
1.40001
1.40001
1.40001
1.40001
1.40001
1.40001
1.40001
1.40001
1.40001
1.40001
1.40001
1.40001
1.39999
1.57854
4.023
4.86134
4.76989
4.63165
4.46146
4.26534
4.04431
3.81468
1.40001
1.40001
1.40001
1.40001
1.40001
1.40001
1.40001
1.40001
1.40001
1.40001
1.40001
1.40001
1.40001
1.40001
1.4
1.40342
2.71878
4.67617
4.74126
4.60971
4.45326
4.26803
4.05896
3.84914
1.40001
1.40001
1.40001
1.40001
1.40001
1.40001
1.40001
1.40001
1.40001
1.40001
1.40001
1.40001
1.40001
1.40001
1.4
1.4
1.66053
4.03592
4.77371
4.62327
4.46621
4.27757
4.07969
3.91507
1.40001
1.40001
1.40001
1.40001
1.40001
1.40001
1.40001
1.40001
1.40001
1.40001
1.40001
1.40001
1.40001
1.40001
1.40001
1.4
1.40801
2.68669
4.58792
4.61608
4.45716
4.27227
4.12381
4.08036
1.40001
1.40001
1.40001
1.40001
1.40001
1.40001
1.40001
1.40001
1.40001
1.40001
1.40001
1.40001
1.40001
1.40001
1.40001
1.40001
1.40003
1.64101
3.84972
4.67886
4.46975
4.31347
4.34829
4.49798
1.40001
1.40001
1.40001
1.40001
1.40001
1.40001
1.40001
1.40001
1.40001
1.40001
1.40001
1.40001
1.40001
1.40001
1.40001
1.40001
1.40001
1.40707
2.3951
4.39598
4.44924
4.54272
4.79208
4.95152
1.40001
1.40001
1.40001
1.40001
1.40001
1.40001
1.40001
1.40001
1.40001
1.40001
1.40001
1.40001
1.40001
1.40001
1.40001
1.40001
1.40001
1.40004
1.53577
3.37984
4.50271
5.1942
5.35936
5.29387
1.40001
1.40001
1.40001
1.40001
1.40001
1.40001
1.40001
1.40001
1.40001
1.40001
1.40001
1.40001
1.40001
1.40001
1.40001
1.40001
1.40001
1.40001
1.40272
1.9798
4.45904
5.83213
5.69621
5.49628
1.40001
1.40001
1.40001
1.40001
1.40001
1.40001
1.40001
1.40001
1.40001
1.40001
1.40001
1.40001
1.40001
1.40001
1.40001
1.40001
1.40001
1.40001
1.40002
1.44298
4.13769
6.03448
5.76208
5.55988
1.40001
1.40001
1.40001
1.40001
1.40001
1.40001
1.40001
1.40001
1.40001
1.40001
1.40001
1.40001
1.40001
1.40001
1.40001
1.40001
1.40001
1.40001
1.40001
1.40039
3.60001
5.72538
5.53849
5.44524
1.40001
1.40001
1.40001
1.40001
1.40001
1.40001
1.40001
1.40001
1.40001
1.40001
1.40001
1.40001
1.40001
1.40001
1.40001
1.40001
1.40001
1.40001
1.40001
1.40001
3.23425
5.41511
5.37558
5.33903
1.40001
1.40001
1.40001
1.40001
1.40001
1.40001
1.40001
1.40001
1.40001
1.40001
1.40001
1.40001
1.40001
1.40001
1.40001
1.40001
1.40001
1.40001
1.40001
1.40001
2.88446
5.14553
5.31752
5.2509
1.40001
1.40001
1.40001
1.40001
1.40001
1.40001
1.40001
1.40001
1.40001
1.40001
1.40001
1.40001
1.40001
1.40001
1.40001
1.40001
1.40001
1.40001
1.40001
1.40001
2.58186
4.9936
5.3052
5.22193
1.40001
1.40001
1.40001
1.40001
1.40001
1.40001
1.40001
1.40001
1.40001
1.40001
1.40001
1.40001
1.40001
1.40001
1.40001
1.40001
1.40001
1.40001
1.40001
1.40001
2.27061
4.91462
5.35472
5.2487
1.40001
1.40001
1.40001
1.40001
1.40001
1.40001
1.40001
1.40001
1.40001
1.40001
1.40001
1.40001
1.40001
1.40001
1.40001
1.40001
1.40001
1.40001
1.40001
1.40001
1.97401
4.83429
5.44663
5.30219
1.40001
1.40001
1.40001
1.40001
1.40001
1.40001
1.40001
1.40001
1.40001
1.40001
1.40001
1.40001
1.40001
1.40001
1.40001
1.40001
1.40001
1.40001
1.40001
1.40001
1.72902
4.69456
5.48846
5.33614
1.40001
1.40001
1.40001
1.40001
1.40001
1.40001
1.40001
1.40001
1.40001
1.40001
1.40001
1.40001
1.40001
1.40001
1.40001
1.40001
1.40001
1.40001
1.40001
1.40001
1.60108
4.51795
5.48047
5.34017
1.40001
1.40001
1.40001
1.40001
1.40001
1.40001
1.40001
1.40001
1.40001
1.40001
1.40001
1.40001
1.40001
1.40001
1.40001
1.40001
1.40001
1.40001
1.40001
1.40001
1.54665
4.36549
5.4368
5.31632
1.40001
1.40001
1.40001
1.40001
1.40001
1.40001
1.40001
1.40001
1.40001
1.40001
1.40001
1.40001
1.40001
1.40001
1.40001
1.40001
1.40001
1.40001
1.40001
1.40001
1.50222
4.26171
5.40721
5.30676
1.40001
1.40001
1.40001
1.40001
1.40001
1.40001
1.40001
1.40001
1.40001
1.40001
1.40001
1.40001
1.40001
1.40001
1.40001
1.40001
1.40001
1.40001
1.40001
1.40001
1.45475
4.20097
5.4026
5.31095
1.40001
1.40001
1.40001
1.40001
1.40001
1.40001
1.40001
1.40001
1.40001
1.40001
1.40001
1.40001
1.40001
1.40001
1.40001
1.40001
1.40001
1.40001
1.40001
1.40001
1.41815
4.15927
5.4059
5.31613
1.40001
1.40001
1.40001
1.40001
1.40001
1.40001
1.40001
1.40001
1.40001
1.40001
1.40001
1.40001
1.40001
1.40001
1.40001
1.40001
1.40001
1.40001
1.40001
1.40001
1.40459
4.13503
5.4066
5.32033
1.30899
0.52371
0.239971
0.214204
0.244423
0.286821
0.349043
0.444152
0.560134
0.694163
0.811123
1.02676
1.99713
2.21083
2.26957
2.36732
2.43469
2.42323
2.40409
2.4259
2.45618
2.47156
2.47976
2.48819
2.50295
2.51792
2.52413
2.52578
2.52948
2.53625
2.54067
2.53867
2.53308
2.52969
2.53158
2.5353
2.53453
2.52675
2.51482
2.50414
2.49724
2.49238
2.48554
2.47426
2.4594
2.44388
2.43033
2.41953
2.41052
2.40029
2.38454
2.36323
2.33935
2.31574
2.29349
2.27219
2.25079
2.22914
2.20863
2.19102
2.17765
2.16545
2.14382
2.11602
2.08688
2.06037
2.03848
2.02261
2.01273
1.99701
1.97552
1.95274
1.92816
1.9026
1.87713
1.85222
1.83001
1.81544
1.82309
1.906
2.34184
2.49029
2.48341
2.46485
2.45356
2.44233
2.433
2.42658
2.42313
2.42269
2.42397
2.42345
2.4182
2.41061
2.40543
2.4105
2.00424
1.22614
0.841061
0.676594
0.631537
0.598634
0.556074
0.529912
0.54124
0.586869
0.651952
0.793247
1.78872
2.23053
2.30601
2.38465
2.43609
2.42924
2.42263
2.44619
2.47559
2.49348
2.50446
2.51499
2.5293
2.54237
2.54679
2.54516
2.54388
2.54681
2.55192
2.5548
2.55372
2.54927
2.5437
2.53975
2.53696
2.53229
2.52475
2.51608
2.50775
2.50004
2.49248
2.48384
2.47278
2.45851
2.44147
2.42428
2.40977
2.39888
2.38842
2.37211
2.34916
2.32461
2.30183
2.28188
2.26363
2.24407
2.22104
2.19784
2.17758
2.16158
2.14713
2.12802
2.10396
2.07774
2.05227
2.03127
2.0137
1.99722
1.97796
1.95666
1.93434
1.90984
1.88318
1.85842
1.84052
1.8338
1.84872
1.93321
2.34644
2.49852
2.4871
2.4627
2.45289
2.44806
2.44491
2.44004
2.43434
2.42954
2.42673
2.42797
2.43115
2.42991
2.42311
2.41804
2.49819
1.84166
1.3861
1.07255
0.953085
0.883665
0.800887
0.697198
0.626941
0.630915
0.667477
0.70183
1.38917
2.26557
2.38656
2.42254
2.44704
2.45199
2.47462
2.5061
2.52842
2.53777
2.54326
2.55085
2.56264
2.57492
2.58317
2.58572
2.58465
2.58349
2.58513
2.59048
2.59836
2.60533
2.6057
2.5967
2.58417
2.57358
2.5664
2.56214
2.55867
2.55293
2.54381
2.53343
2.52386
2.51518
2.50495
2.48911
2.46902
2.44947
2.43352
2.41863
2.39824
2.37219
2.34577
2.32207
2.30303
2.2883
2.27383
2.25245
2.22609
2.19999
2.17665
2.15525
2.1363
2.11661
2.0958
2.07376
2.04965
2.02488
2.00021
1.97701
1.95502
1.93315
1.90911
1.88347
1.86835
1.86964
1.89357
1.97805
2.33045
2.53141
2.52904
2.49874
2.48134
2.47379
2.47549
2.48058
2.47792
2.46972
2.45757
2.45115
2.45138
2.45963
2.46898
2.46622
2.81952
2.28146
1.88668
1.52758
1.25674
1.15497
1.08715
1.00236
0.890345
0.799591
0.78218
0.768191
0.935058
2.11313
2.56125
2.55798
2.52055
2.52536
2.56127
2.59404
2.60456
2.60513
2.60486
2.60914
2.6193
2.63182
2.64565
2.6608
2.67242
2.67608
2.67374
2.67005
2.66964
2.67683
2.68897
2.69126
2.67769
2.65962
2.64435
2.63465
2.63164
2.63218
2.62832
2.61691
2.60273
2.58998
2.58073
2.57161
2.55521
2.53377
2.51264
2.49441
2.47631
2.45223
2.42475
2.39591
2.37106
2.35043
2.33415
2.31837
2.29755
2.27435
2.24803
2.22085
2.19496
2.17145
2.15056
2.12993
2.10814
2.08313
2.05409
2.0236
1.9952
1.97279
1.95457
1.93956
1.93367
1.9477
1.98895
2.06775
2.30336
2.56019
2.59709
2.57031
2.54641
2.53283
2.52886
2.5314
2.53495
2.53179
2.5241
2.51016
2.50076
2.49959
2.50891
2.51881
3.03568
2.57242
2.22513
1.9191
1.63353
1.42007
1.29274
1.21259
1.13411
1.02299
0.918808
0.870051
0.899465
1.58594
2.6936
2.81205
2.72107
2.68988
2.71036
2.72645
2.72963
2.73731
2.74999
2.76118
2.76821
2.77313
2.77988
2.7933
2.81152
2.82353
2.82373
2.81675
2.80854
2.80387
2.80799
2.81762
2.81283
2.79469
2.77524
2.75913
2.74839
2.74423
2.74329
2.73614
2.72154
2.70565
2.69201
2.6809
2.66445
2.64181
2.61857
2.59756
2.57666
2.55232
2.52633
2.49795
2.47014
2.44662
2.42462
2.40274
2.38052
2.3579
2.33464
2.30994
2.28348
2.25619
2.22955
2.20453
2.18022
2.15508
2.12669
2.09499
2.06045
2.03056
2.01442
2.01231
2.0246
2.06795
2.14388
2.20439
2.30856
2.53634
2.66566
2.67215
2.64486
2.6224
2.61218
2.61167
2.61396
2.61544
2.61221
2.60461
2.5919
2.58242
2.57944
2.58323
3.20495
2.80765
2.47266
2.18664
1.92085
1.71827
1.54172
1.37631
1.29609
1.22719
1.14548
1.10501
1.13096
1.28339
2.22965
3.03431
3.02169
2.96535
2.9235
2.9042
2.9032
2.91306
2.93283
2.94295
2.93746
2.93066
2.92537
2.92735
2.94325
2.96021
2.96145
2.9528
2.94243
2.93314
2.92877
2.93491
2.93535
2.91865
2.8977
2.87905
2.8634
2.85256
2.84819
2.84106
2.82539
2.80787
2.79251
2.77914
2.76045
2.73665
2.71334
2.6922
2.66861
2.64252
2.6148
2.58587
2.55778
2.53162
2.50682
2.48258
2.45842
2.43458
2.41077
2.38642
2.36061
2.33302
2.3045
2.2763
2.24933
2.22271
2.19545
2.16639
2.13666
2.1087
2.09552
2.1052
2.1416
2.20917
2.30607
2.3456
2.36564
2.47737
2.6419
2.75282
2.75703
2.73374
2.70212
2.69061
2.69216
2.69576
2.69767
2.69353
2.68509
2.67258
2.66335
2.66187
3.31846
2.97404
2.67208
2.40369
2.13135
1.92094
1.76984
1.6099
1.47619
1.41652
1.37612
1.39861
1.49123
1.51162
1.70898
2.58352
3.15774
3.25231
3.20473
3.10021
3.05812
3.07054
3.10178
3.10959
3.09524
3.07126
3.0562
3.05112
3.06146
3.0786
3.07669
3.06606
3.05096
3.03873
3.02927
3.02882
3.02883
3.01398
2.9934
2.97274
2.9564
2.94399
2.9367
2.92413
2.90661
2.88587
2.86953
2.85325
2.83153
2.80736
2.78456
2.76104
2.73534
2.70859
2.68153
2.654
2.6257
2.59711
2.56944
2.54332
2.51864
2.49477
2.47104
2.44655
2.42035
2.39232
2.36274
2.33289
2.30432
2.27613
2.24888
2.22287
2.20275
2.18758
2.19322
2.22944
2.29156
2.37155
2.44686
2.46233
2.4409
2.4618
2.56033
2.70516
2.81162
2.82893
2.81535
2.78396
2.76303
2.76141
2.76708
2.77036
2.76587
2.75574
2.74143
2.7332
3.41582
3.10517
2.81795
2.57375
2.34105
2.09705
1.92525
1.8181
1.74708
1.72205
1.69674
1.74965
1.81992
1.78048
1.77602
1.99454
2.74547
3.29007
3.4104
3.3416
3.23043
3.20559
3.22825
3.24156
3.2253
3.18896
3.16066
3.15048
3.15387
3.16662
3.16076
3.14637
3.12392
3.10661
3.09465
3.09066
3.08961
3.07576
3.056
3.03373
3.01717
3.00451
2.99271
2.97605
2.95642
2.93574
2.91789
2.89747
2.87491
2.8529
2.82941
2.80253
2.77438
2.74792
2.72285
2.69725
2.67016
2.64084
2.61
2.58107
2.55578
2.53264
2.50962
2.48516
2.45856
2.42972
2.39922
2.36925
2.34013
2.31256
2.28761
2.26875
2.26168
2.26536
2.29986
2.37005
2.44357
2.52063
2.54722
2.54002
2.5111
2.49182
2.52028
2.60958
2.73896
2.84148
2.88753
2.87685
2.84204
2.81574
2.81316
2.82008
2.82351
2.81941
2.80955
2.79354
3.48397
3.20922
2.93922
2.69966
2.49694
2.30068
2.14057
2.08035
2.10241
2.08453
2.04612
2.06962
2.06985
2.02093
1.92407
1.9574
2.19537
2.84393
3.39209
3.48193
3.41841
3.34475
3.32318
3.32433
3.30648
3.27335
3.24244
3.22778
3.22392
3.22869
3.21782
3.19994
3.17368
3.15494
3.14293
3.13937
3.13633
3.12105
3.09982
3.07359
3.05473
3.04043
3.0253
3.0074
2.9879
2.96645
2.94288
2.9194
2.89909
2.87904
2.85488
2.82597
2.79518
2.76835
2.74525
2.72241
2.69779
2.66897
2.63526
2.60233
2.57605
2.55421
2.53217
2.50847
2.48141
2.45134
2.41921
2.38869
2.36101
2.33687
2.31987
2.31536
2.32451
2.35427
2.43355
2.5096
2.57241
2.61203
2.60812
2.59283
2.56757
2.53622
2.53092
2.55662
2.63633
2.75852
2.86314
2.91054
2.90231
2.88211
2.86176
2.85722
2.86076
2.8611
2.85768
2.84351
3.53672
3.28679
3.0412
2.8335
2.68045
2.55805
2.47334
2.48654
2.49574
2.40707
2.33269
2.31042
2.28348
2.2372
2.14505
2.07526
2.10869
2.32084
2.91559
3.42581
3.50571
3.46694
3.42225
3.39704
3.36816
3.33631
3.30438
3.28552
3.27327
3.26883
3.25407
3.23495
3.20915
3.19007
3.17807
3.17281
3.16414
3.14623
3.12228
3.09105
3.06936
3.05471
3.04077
3.02427
3.00535
2.98084
2.95024
2.9248
2.90694
2.88855
2.86569
2.83764
2.80511
2.77549
2.75289
2.73278
2.71124
2.68492
2.65123
2.61395
2.58427
2.56229
2.54165
2.51956
2.49411
2.46328
2.42937
2.39755
2.3741
2.36045
2.35822
2.37438
2.41106
2.48688
2.57652
2.61909
2.64673
2.65581
2.64798
2.63114
2.61307
2.58743
2.55977
2.56058
2.58211
2.65198
2.76394
2.86144
2.91333
2.92485
2.91205
2.8954
2.8888
2.88921
2.88878
2.87827
3.58508
3.36475
3.16454
3.03102
2.98648
2.9219
2.85391
2.8494
2.79191
2.65927
2.55082
2.51163
2.48275
2.43876
2.36512
2.26874
2.23623
2.25868
2.43643
2.96521
3.42319
3.50464
3.4951
3.47594
3.44095
3.39721
3.3574
3.32784
3.30779
3.296
3.28084
3.26189
3.23879
3.21564
3.20038
3.18903
3.17529
3.15625
3.1319
3.09839
3.07339
3.05886
3.04764
3.03393
3.01545
2.98931
2.9526
2.92316
2.90603
2.88926
2.86907
2.84475
2.8139
2.77946
2.75305
2.73354
2.71436
2.69195
2.66321
2.62678
2.59084
2.56429
2.54305
2.5222
2.49887
2.47021
2.43703
2.40404
2.38934
2.39393
2.41814
2.47467
2.55165
2.65356
2.69269
2.68939
2.6817
2.67654
2.67276
2.66098
2.6492
2.63535
2.60881
2.58245
2.58345
2.60134
2.65596
2.75665
2.85421
2.91941
2.9375
2.93195
2.92298
2.91693
2.91384
2.90277
3.64996
3.49419
3.3954
3.38587
3.38213
3.26925
3.17111
3.11376
3.01736
2.8807
2.75515
2.70626
2.68447
2.63429
2.55989
2.46163
2.41145
2.37549
2.39308
2.53605
2.97346
3.38683
3.49738
3.53827
3.52679
3.47458
3.41687
3.36668
3.33919
3.32167
3.30939
3.2902
3.26864
3.23958
3.21481
3.19695
3.17975
3.16109
3.13964
3.10967
3.07873
3.06212
3.0512
3.03935
3.02168
2.9972
2.9603
2.92255
2.90223
2.88559
2.86847
2.84929
2.82442
2.79069
2.75509
2.72982
2.71019
2.69132
2.66968
2.64135
2.6046
2.56755
2.53929
2.51786
2.49761
2.47586
2.45012
2.42247
2.42121
2.44524
2.51708
2.60136
2.69461
2.76225
2.76453
2.74675
2.71411
2.69719
2.68783
2.6833
2.67943
2.67109
2.65712
2.6293
2.60266
2.60293
2.61939
2.66145
2.7513
2.8488
2.92388
2.94613
2.95344
2.94747
2.94007
2.92509
3.81044
3.79616
3.77819
3.77932
3.686
3.51411
3.3952
3.31633
3.22563
3.09777
2.96168
2.90003
2.87454
2.82257
2.74073
2.64317
2.58282
2.54768
2.49196
2.51037
2.60396
2.95197
3.33547
3.51063
3.58609
3.5565
3.4915
3.41635
3.37427
3.35265
3.34198
3.32437
3.30116
3.26877
3.22963
3.2048
3.18544
3.1686
3.15145
3.12977
3.098
3.07083
3.05605
3.04261
3.02556
3.00458
2.9749
2.936
2.90386
2.88292
2.86666
2.85095
2.83238
2.8069
2.77112
2.73383
2.70775
2.68878
2.67063
2.64908
2.61952
2.58026
2.54079
2.51275
2.49549
2.48357
2.47542
2.47648
2.50067
2.56876
2.65573
2.71846
2.78105
2.80984
2.80605
2.79
2.76147
2.73055
2.71403
2.70594
2.70431
2.703
2.69425
2.6787
2.6498
2.62356
2.62331
2.63767
2.67219
2.74959
2.84745
2.92534
2.95651
2.97275
2.96873
2.95315
4.15422
4.1804
4.13949
4.06646
3.9037
3.71739
3.5888
3.50406
3.4261
3.30543
3.16295
3.08515
3.0503
3.00041
2.91417
2.81517
2.75042
2.70875
2.66179
2.5921
2.5965
2.65245
2.92871
3.30425
3.53291
3.60194
3.56777
3.49171
3.42276
3.39256
3.378
3.36243
3.33814
3.30399
3.25417
3.21933
3.19895
3.1838
3.17152
3.15543
3.13055
3.09426
3.06538
3.04559
3.02731
3.00851
2.98666
2.95865
2.92367
2.88951
2.86683
2.85001
2.83339
2.81472
2.78966
2.75325
2.7145
2.68721
2.66689
2.64684
2.62309
2.59226
2.55426
2.51603
2.50167
2.50208
2.52142
2.56806
2.64862
2.75333
2.7969
2.81478
2.82712
2.83354
2.83205
2.8199
2.80387
2.78035
2.75426
2.74085
2.73435
2.73314
2.72842
2.71792
2.70032
2.67002
2.64635
2.64593
2.65615
2.6871
2.75422
2.84729
2.92618
2.96078
2.9893
2.98333
4.5859
4.48906
4.38551
4.25609
4.07642
3.90769
3.79171
3.69826
3.61603
3.50195
3.35888
3.26613
3.22159
3.17345
3.08531
2.97637
2.91462
2.86376
2.81949
2.75717
2.67474
2.66223
2.69469
2.91447
3.27203
3.5308
3.59748
3.55771
3.49598
3.45194
3.42211
3.39868
3.37456
3.34175
3.28956
3.24493
3.22261
3.20715
3.19596
3.18058
3.15944
3.12783
3.08789
3.054
3.02988
3.00992
2.99233
2.9735
2.94807
2.91378
2.87763
2.84997
2.83004
2.81345
2.79583
2.77071
2.73427
2.69456
2.66236
2.63749
2.61618
2.59603
2.57288
2.54312
2.53573
2.55424
2.61655
2.69995
2.81442
2.89505
2.90205
2.8881
2.8661
2.85625
2.8526
2.84676
2.83741
2.82476
2.8056
2.78544
2.77483
2.76876
2.76277
2.75308
2.73994
2.7195
2.69108
2.67126
2.66737
2.67456
2.70027
2.75822
2.84238
2.91332
2.96769
2.99553
4.88325
4.69892
4.56438
4.42222
4.24515
4.09427
4
3.89314
3.78916
3.68214
3.54956
3.44654
3.39091
3.34216
3.25468
3.13647
3.06796
3.02108
2.96907
2.91731
2.83441
2.74277
2.722
2.74233
2.90667
3.22941
3.49391
3.55265
3.55426
3.52493
3.48979
3.44792
3.41195
3.37493
3.32614
3.28217
3.25499
3.23576
3.21791
3.19751
3.17613
3.14957
3.11257
3.07098
3.03477
3.00738
2.99021
2.97491
2.95483
2.9307
2.89932
2.86105
2.83121
2.81317
2.79513
2.77289
2.74224
2.70338
2.66446
2.6326
2.61266
2.6018
2.59421
2.59381
2.61444
2.68104
2.76714
2.84593
2.93001
2.95881
2.95592
2.94163
2.91276
2.89103
2.88096
2.87385
2.86885
2.86051
2.84946
2.8333
2.81521
2.80392
2.79449
2.78398
2.77237
2.7583
2.7385
2.71306
2.6912
2.68347
2.68783
2.70604
2.74923
2.8226
2.89863
2.97333
5.07827
4.87335
4.74306
4.60649
4.4345
4.29195
4.20979
4.09893
3.96506
3.8545
3.74226
3.63398
3.56396
3.50984
3.42565
3.30507
3.22079
3.17765
3.1214
3.0646
2.99332
2.9003
2.81785
2.78375
2.79735
2.90284
3.16104
3.40821
3.51679
3.55657
3.55032
3.51189
3.45841
3.40392
3.35536
3.31978
3.29037
3.26276
3.23714
3.21166
3.18401
3.1548
3.11903
3.08299
3.0479
3.01209
2.98725
2.96937
2.95347
2.93522
2.91013
2.87445
2.83408
2.79707
2.77438
2.75805
2.73813
2.7094
2.66887
2.62989
2.61547
2.61307
2.62992
2.67541
2.76324
2.87387
2.92371
2.95672
2.97854
2.99113
2.98994
2.97882
2.95801
2.9285
2.90776
2.89924
2.89644
2.89196
2.8824
2.86883
2.84814
2.82711
2.81461
2.80613
2.79784
2.78692
2.77156
2.74858
2.7203
2.69738
2.68928
2.69119
2.70186
2.73599
2.7934
2.90312
5.24993
5.05298
4.93699
4.79894
4.62456
4.4845
4.40331
4.29648
4.14978
4.02519
3.93616
3.83151
3.74047
3.67259
3.59111
3.47695
3.37473
3.32612
3.27049
3.20382
3.13356
3.04668
2.96372
2.89013
2.83547
2.84082
2.89413
3.07392
3.31228
3.48887
3.54368
3.53215
3.49301
3.43016
3.38418
3.34804
3.31547
3.28072
3.23941
3.19068
3.1466
3.11918
3.10169
3.08325
3.05525
3.01763
2.97683
2.94275
2.91882
2.90018
2.88239
2.86327
2.83289
2.79251
2.7584
2.73164
2.70531
2.67859
2.6543
2.63353
2.63229
2.65265
2.7214
2.82007
2.95007
3.01639
3.01838
3.01196
3.00699
3.00958
3.01205
2.99959
2.98202
2.95463
2.92753
2.91762
2.91419
2.91077
2.90151
2.89001
2.87288
2.84854
2.83262
2.82512
2.81644
2.8043
2.78979
2.77256
2.74883
2.71884
2.69758
2.68694
2.68821
2.69309
2.71023
2.79552
5.3338
5.19402
5.10341
4.97288
4.81066
4.67357
4.5869
4.48019
4.3339
4.19694
4.11619
4.02591
3.91566
3.82527
3.74219
3.64297
3.53472
3.4641
3.41044
3.33681
3.25799
3.17557
3.09062
3.02091
2.93772
2.87983
2.85338
2.86864
2.98786
3.20114
3.42208
3.47961
3.45889
3.43743
3.40668
3.37221
3.33373
3.2903
3.23797
3.17616
3.12037
3.08065
3.05513
3.03579
3.01566
2.99077
2.95622
2.91843
2.8906
2.86811
2.84557
2.81957
2.78855
2.75312
2.72384
2.69706
2.67286
2.65684
2.64938
2.65126
2.67883
2.76399
2.86749
2.96639
3.04951
3.06178
3.05622
3.04018
3.02394
3.015
3.00986
3.00478
2.99438
2.97679
2.95284
2.93041
2.91846
2.91539
2.91547
2.90665
2.89287
2.87357
2.84966
2.82446
2.81106
2.80603
2.80037
2.78841
2.77114
2.74653
2.71856
2.69218
2.67913
2.67535
2.6768
2.70949
5.35163
5.27843
5.2124
5.09782
4.93999
4.82033
4.74183
4.64244
4.50271
4.36789
4.27537
4.19014
4.07524
3.95927
3.86639
3.77664
3.6853
3.59342
3.52186
3.44702
3.35838
3.27198
3.1907
3.11616
3.04169
2.95498
2.88111
2.83733
2.82988
2.88979
3.06995
3.27768
3.35922
3.39075
3.37335
3.3297
3.28276
3.23765
3.18903
3.1384
3.09443
3.06045
3.0301
2.99978
2.96821
2.93424
2.90015
2.87619
2.85791
2.83814
2.81312
2.78096
2.74004
2.70288
2.67477
2.65134
2.64364
2.64991
2.6672
2.71413
2.81018
2.92268
2.98712
3.03651
3.06984
3.07499
3.06979
3.05148
3.02295
3.00318
2.99505
2.99112
2.99027
2.98414
2.9711
2.94921
2.92616
2.91178
2.90379
2.89878
2.89179
2.88065
2.86091
2.833
2.81182
2.79713
2.78587
2.77621
2.76693
2.75531
2.73457
2.7057
2.67873
2.65797
2.65117
2.65694
5.29574
5.24427
5.19607
5.12043
4.99639
4.88888
4.8147
4.72928
4.59807
4.46156
4.37877
4.31154
4.2077
4.07935
3.97124
3.88846
3.80797
3.72089
3.6197
3.53763
3.45005
3.36423
3.2851
3.21157
3.14009
3.0574
2.96299
2.87295
2.7931
2.76947
2.80515
2.94068
3.09867
3.23897
3.29911
3.27934
3.22844
3.17757
3.12832
3.08622
3.05161
3.02005
2.98776
2.95209
2.91395
2.87767
2.84723
2.82475
2.80725
2.78845
2.76303
2.72848
2.69273
2.65971
2.63141
2.62187
2.63126
2.65975
2.73066
2.83789
2.96901
3.02614
3.03765
3.05246
3.05826
3.0613
3.05301
3.03633
3.01518
2.99117
2.97689
2.97117
2.96994
2.9686
2.96113
2.94964
2.92951
2.90484
2.88982
2.88098
2.87264
2.86248
2.85029
2.83549
2.81317
2.79009
2.77311
2.7599
2.74714
2.73325
2.71762
2.69994
2.67896
2.65445
2.63489
2.6201
5.20548
5.16395
5.11466
5.0386
4.94517
4.866
4.81056
4.74692
4.62635
4.49847
4.4098
4.33917
4.24413
4.12061
4.00636
3.9187
3.83025
3.74329
3.65266
3.54761
3.45118
3.36041
3.27971
3.2052
3.13136
3.04982
2.95656
2.86086
2.77965
2.73433
2.70117
2.72078
2.80392
2.93594
3.10928
3.17954
3.15906
3.12233
3.07654
3.02975
2.98923
2.95415
2.9184
2.88236
2.84939
2.82202
2.79707
2.77094
2.74292
2.71441
2.68518
2.65911
2.63777
2.61866
2.60861
2.6144
2.64082
2.7208
2.83297
2.94932
3.03611
3.05434
3.04648
3.02522
3.01026
3.00546
3.00679
3.00464
2.99807
2.98214
2.96004
2.94757
2.94155
2.93763
2.93252
2.92454
2.91209
2.89165
2.87093
2.85691
2.84612
2.83598
2.82585
2.81412
2.79752
2.77474
2.75364
2.73706
2.72229
2.7088
2.69601
2.68312
2.66482
2.64169
2.61688
2.58974
5.18073
5.12662
5.06188
4.9813
4.90206
4.83821
4.78227
4.69918
4.58198
4.47635
4.39917
4.33821
4.24976
4.12893
4.0153
3.93328
3.84657
3.75649
3.66336
3.5602
3.4618
3.37355
3.29471
3.2201
3.14489
3.06341
2.9748
2.88375
2.80143
2.7319
2.67885
2.63443
2.63157
2.67305
2.79828
2.95689
3.03274
3.05512
3.03579
2.99189
2.93993
2.89106
2.8436
2.80991
2.78881
2.7689
2.74671
2.71754
2.67643
2.62893
2.60046
2.58576
2.57929
2.58641
2.6045
2.63609
2.71916
2.8362
2.91744
3.00105
3.03677
3.03638
3.01714
2.9804
2.96253
2.95826
2.95971
2.96496
2.96239
2.95382
2.93783
2.92017
2.91075
2.9046
2.89772
2.88947
2.87887
2.86417
2.84565
2.82902
2.81789
2.80849
2.79833
2.78601
2.76919
2.74704
2.72465
2.70753
2.6944
2.68283
2.67122
2.65854
2.64111
2.61776
2.59319
2.56256
5.1919
5.11448
5.03481
4.95909
4.89023
4.82522
4.75112
4.65458
4.54931
4.4569
4.38956
4.32548
4.22526
4.10334
4.00101
3.9243
3.84387
3.75327
3.65711
3.55442
3.45825
3.37506
3.29932
3.22488
3.1484
3.06661
2.98174
2.89823
2.81811
2.74522
2.68069
2.61848
2.57215
2.54109
2.56321
2.6749
2.81192
2.91629
2.97583
2.96026
2.90748
2.84302
2.7851
2.75068
2.7313
2.71572
2.69495
2.6647
2.61889
2.55957
2.53176
2.52711
2.53869
2.57542
2.62348
2.72133
2.8576
2.92396
2.95613
2.97838
2.98681
2.98021
2.96886
2.95179
2.93367
2.92522
2.92138
2.92072
2.91869
2.91335
2.90537
2.89259
2.88018
2.87229
2.8646
2.85594
2.84646
2.8357
2.8222
2.80559
2.79052
2.77884
2.76711
2.75332
2.73654
2.71757
2.69916
2.68347
2.67016
2.65859
2.64672
2.63363
2.6164
2.59357
2.57059
2.53983
5.23049
5.15146
5.07465
4.99805
4.91957
4.83616
4.74088
4.64147
4.54762
4.46868
4.4036
4.31857
4.20691
4.09341
4.00404
3.9326
3.8524
3.75867
3.65487
3.55143
3.46094
3.38213
3.30786
3.2335
3.15544
3.07128
2.98641
2.90796
2.83538
2.76431
2.69445
2.62778
2.56065
2.50855
2.4662
2.4806
2.57372
2.69581
2.83652
2.89446
2.86982
2.81558
2.75888
2.71165
2.68377
2.66352
2.64029
2.61009
2.56515
2.51612
2.49937
2.50568
2.53668
2.6039
2.71545
2.85724
2.93996
2.94764
2.94466
2.93569
2.9314
2.92895
2.92486
2.91989
2.9101
2.89749
2.89079
2.8877
2.886
2.88272
2.87679
2.86703
2.85493
2.84494
2.83789
2.83083
2.8228
2.81325
2.80094
2.78485
2.76725
2.75231
2.73963
2.72658
2.71198
2.69677
2.68218
2.66811
2.65408
2.64055
2.62684
2.61069
2.59035
2.56721
2.54932
2.52456
5.25765
5.17697
5.1006
5.02314
4.94184
4.85457
4.76159
4.6692
4.58402
4.50973
4.42832
4.32214
4.20624
4.10609
4.0292
3.95647
3.86748
3.76297
3.65408
3.56165
3.47966
3.4028
3.32728
3.24818
3.16269
3.075
2.99447
2.92289
2.8559
2.78776
2.71701
2.64329
2.56926
2.50193
2.45183
2.41937
2.42814
2.48452
2.60924
2.73859
2.79923
2.79077
2.75387
2.70104
2.6498
2.6133
2.5806
2.54572
2.51366
2.50287
2.50489
2.51694
2.57844
2.70632
2.82523
2.92314
2.94742
2.94331
2.93221
2.91489
2.90385
2.89674
2.89331
2.89272
2.89064
2.88652
2.87899
2.87167
2.86616
2.85973
2.85207
2.844
2.8362
2.8283
2.82042
2.81339
2.80565
2.7964
2.78584
2.77391
2.75958
2.74244
2.72535
2.71019
2.69616
2.6833
2.67166
2.66057
2.64813
2.63238
2.61231
2.58989
2.56909
2.55293
2.54284
2.52207
5.26979
5.19377
5.11845
5.0407
4.95894
4.87276
4.78498
4.69944
4.61877
4.53783
4.43963
4.32888
4.22556
4.14009
4.06719
3.98105
3.87878
3.76392
3.66927
3.59107
3.51337
3.43539
3.35222
3.25994
3.16748
3.0846
3.01156
2.94488
2.88032
2.81331
2.73893
2.65865
2.58051
2.51247
2.45777
2.41236
2.3853
2.36964
2.40181
2.51308
2.63252
2.72387
2.73154
2.69923
2.63898
2.57752
2.52665
2.4963
2.48862
2.49865
2.52983
2.60739
2.74348
2.8353
2.88837
2.91958
2.93556
2.93316
2.92329
2.90566
2.88889
2.88265
2.88032
2.88338
2.88435
2.88089
2.8726
2.85805
2.84749
2.84235
2.83889
2.83695
2.83252
2.82591
2.81613
2.80502
2.79639
2.78848
2.78003
2.76993
2.75591
2.7359
2.7143
2.69842
2.68715
2.67761
2.66812
2.65798
2.64571
2.62731
2.60211
2.57987
2.56596
2.55455
2.54461
2.52121
5.25761
5.19097
5.1218
5.04768
4.96924
4.88764
4.80515
4.72363
4.64165
4.55116
4.44847
4.34558
4.25509
4.18106
4.0994
3.99854
3.88399
3.77912
3.6985
3.62496
3.54678
3.46269
3.36818
3.26778
3.17748
3.1016
3.03454
2.97135
2.90821
2.83684
2.75326
2.66892
2.59539
2.53224
2.4769
2.42445
2.3777
2.34009
2.30193
2.32639
2.42663
2.55196
2.65363
2.66675
2.63724
2.56316
2.50273
2.48365
2.48964
2.53124
2.62869
2.7798
2.88837
2.90321
2.91047
2.91407
2.9236
2.92164
2.91321
2.89729
2.88146
2.87764
2.87712
2.88076
2.88052
2.87595
2.8653
2.85042
2.84338
2.8402
2.83871
2.83829
2.83338
2.82597
2.81366
2.79956
2.79058
2.78325
2.77518
2.76503
2.75077
2.73195
2.71303
2.69825
2.68764
2.67823
2.6685
2.65756
2.64374
2.62351
2.60003
2.58156
2.56871
2.55637
2.54439
2.51658
5.25309
5.18827
5.12062
5.04884
4.97385
4.89645
4.81752
4.73663
4.65048
4.55596
4.45748
4.36322
4.28139
4.20921
4.1155
4.00715
3.89542
3.80546
3.72666
3.64995
3.56712
3.47664
3.37783
3.281
3.19736
3.12528
3.05912
2.99395
2.92399
2.84498
2.76128
2.68222
2.61337
2.55374
2.50189
2.45096
2.39505
2.33554
2.27957
2.24583
2.26772
2.35137
2.47748
2.58094
2.59439
2.54916
2.5054
2.50138
2.53942
2.64626
2.78757
2.90799
2.92733
2.92667
2.92062
2.91469
2.91406
2.90799
2.90092
2.89002