/*--------------------------------*- C++ -*----------------------------------*\
  =========                 |
  \\      /  F ield         | OpenFOAM: The Open Source CFD Toolbox
   \\    /   O peration     | Website:  https://openfoam.org
    \\  /    A nd           | Version:  7
     \\/     M anipulation  |
\*---------------------------------------------------------------------------*/
FoamFile
{
    version     2.0;
    format      ascii;
    class       volScalarField;
    location    "11";
    object      T;
}
// * * * * * * * * * * * * * * * * * * * * * * * * * * * * * * * * * * * * * //

dimensions      [0 0 0 1 0 0 0];

internalField   nonuniform List<scalar> 
4032
(
1
1
1
1
1
1
1
1
1
1
1
1.17365
2.41402
2.71638
2.72665
2.74196
2.75538
2.76813
2.77973
2.78999
2.79896
2.80613
2.81155
2.81549
1
1
1
1
1
1
1
1
1
1
1
1.15605
2.39995
2.71525
2.72603
2.74061
2.7538
2.76628
2.77756
2.78736
2.79576
2.80237
2.80719
2.81092
1
1
1
1
1
1
1
1
1
1
1
1.10249
2.36214
2.71241
2.72294
2.73765
2.75095
2.76339
2.7745
2.78393
2.79177
2.79773
2.80159
2.80475
1
1
1
1
1
1
1
1
1
1
1
1.00746
2.29405
2.70456
2.7181
2.73302
2.74588
2.75751
2.76798
2.77699
2.78456
2.79019
2.79337
2.79578
1
1
1
1
1
1
1
1
1
1
1
1.00006
2.21196
2.68872
2.70748
2.72301
2.73653
2.74823
2.75841
2.76661
2.77272
2.77682
2.77848
2.78125
1
1
1
1
1
1
1
1
1
1
1
1
2.09751
2.67002
2.69833
2.71265
2.72598
2.73692
2.74611
2.75353
2.75904
2.76219
2.76051
2.75488
1
1
1
1
1
1
1
1
1
1
1
1
1.93918
2.63466
2.68253
2.69822
2.71181
2.72202
2.72976
2.73499
2.73658
2.73301
2.7247
2.71738
1
1
1
1
1
1
1
1
1
1
1
1
1.72218
2.56473
2.6559
2.67926
2.69506
2.70538
2.71129
2.71336
2.71052
2.70521
2.69976
2.71072
1
1
1
1
1
1
1
1
1
1
1
1
1.41057
2.44077
2.62953
2.65497
2.67323
2.68474
2.68894
2.68792
2.67971
2.66102
2.60921
2.50909
1
1
1
1
1
1
1
1
1
1
1
1
1.05149
2.30816
2.62994
2.6319
2.64234
2.65321
2.65788
2.6547
2.64164
2.60845
2.55059
2.38853
1
1
1
1
1
1
1
1
1
1
1
1
1.00062
2.14001
2.58887
2.59718
2.60821
2.6157
2.62015
2.61566
2.60058
2.56188
2.49764
2.3134
1
1
1
1
1
1
1
1
1
1
1
1
0.999994
1.83291
2.52404
2.58164
2.58992
2.58897
2.5875
2.57932
2.56045
2.5218
2.44924
2.28985
1
1
1
1
1
1
1
1
1
1
1
1
0.999998
1.37423
2.37986
2.56319
2.56335
2.56179
2.55654
2.54395
2.52105
2.48294
2.40909
2.28938
1
1
1
1
1
1
1
1
1
1
1
1
1
1.03852
2.19464
2.52247
2.53314
2.53223
2.52639
2.51216
2.488
2.44786
2.37947
2.28868
1
1
1
1
1
1
1
1
1
1
1
1
1
1.00023
1.82811
2.43925
2.51099
2.50801
2.50063
2.48355
2.459
2.41663
2.35664
2.28436
1
1
1
1
1
1
1
1
1
1
1
1
1
0.999998
1.24066
2.27988
2.49115
2.47793
2.47005
2.45484
2.42881
2.39152
2.34006
2.27869
1
1
1
1
1
1
1
1
1
1
1
1
1
1
1.01343
2.08311
2.44105
2.43183
2.43062
2.42095
2.40039
2.36892
2.32486
2.27157
1
1
1
1
1
1
1
1
1
1
1
1
1
1
1.00001
1.58545
2.32434
2.41234
2.40599
2.39389
2.37455
2.34616
2.30814
2.26227
1
1
1
1
1
1
1
1
1
1
1
1
1
1
0.999998
1.08923
2.11581
2.39063
2.38282
2.36845
2.34806
2.32172
2.28812
2.24872
1
1
1
1
1
1
1
1
1
1
1
1
1
1
0.999999
1.00157
1.66619
2.27734
2.36064
2.34229
2.32286
2.29802
2.2671
2.2331
1
1
1
1
1
1
1
1
1
1
1
1
1
1
1
1
1.13044
2.07736
2.33519
2.31707
2.30069
2.27584
2.24695
2.22323
1
1
1
1
1
1
1
1
1
1
1
1
1
1
1
1
1.00357
1.62563
2.20966
2.29523
2.2738
2.24848
2.23078
2.23726
1
1
1
1
1
1
1
1
1
1
1
1
1
1
1
1
1.00001
1.1185
1.99403
2.27244
2.2429
2.2352
2.2543
2.30055
1
1
1
1
1
1
1
1
1
1
1
1
1
1
1
1
1
1.00302
1.47708
2.12261
2.19436
2.24796
2.32203
2.37177
1
1
1
1
1
1
1
1
1
1
1
1
1
1
1
1
1
1.00001
1.06356
1.84852
2.1554
2.31485
2.39028
2.38751
1
1
1
1
1
1
1
1
1
1
1
1
1
1
1
1
1
1
1.00105
1.28695
2.08389
2.40218
2.39467
2.37896
1
1
1
1
1
1
1
1
1
1
1
1
1
1
1
1
1
1
1
1.01897
2.1193
2.51459
2.44769
2.40025
1
1
1
1
1
1
1
1
1
1
1
1
1
1
1
1
1
1
1
1.00014
2.08236
2.58856
2.52057
2.46076
1
1
1
1
1
1
1
1
1
1
1
1
1
1
1
1
1
1
1
1
2.03226
2.64299
2.60597
2.55665
1
1
1
1
1
1
1
1
1
1
1
1
1
1
1
1
1
1
1
1
1.9189
2.64585
2.64307
2.61647
1
1
1
1
1
1
1
1
1
1
1
1
1
1
1
1
1
1
1
1
1.77048
2.60823
2.65703
2.63617
1
1
1
1
1
1
1
1
1
1
1
1
1
1
1
1
1
1
1
1
1.60432
2.54301
2.65902
2.63676
1
1
1
1
1
1
1
1
1
1
1
1
1
1
1
1
1
1
1
1
1.42132
2.46933
2.65503
2.63032
1
1
1
1
1
1
1
1
1
1
1
1
1
1
1
1
1
1
1
1
1.25246
2.41468
2.65121
2.62541
1
1
1
1
1
1
1
1
1
1
1
1
1
1
1
1
1
1
1
1
1.17781
2.40056
2.66173
2.63397
1
1
1
1
1
1
1
1
1
1
1
1
1
1
1
1
1
1
1
1
1.13797
2.37965
2.67179
2.64563
1
1
1
1
1
1
1
1
1
1
1
1
1
1
1
1
1
1
1
1
1.09775
2.35161
2.67501
2.65341
1
1
1
1
1
1
1
1
1
1
1
1
1
1
1
1
1
1
1
1
1.05509
2.32796
2.67334
2.65448
1
1
1
1
1
1
1
1
1
1
1
1
1
1
1
1
1
1
1
1
1.01833
2.30744
2.67008
2.65247
1
1
1
1
1
1
1
1
1
1
1
1
1
1
1
1
1
1
1
1
1.0046
2.29797
2.66814
2.65127
1.69365
1.18136
0.957796
1.05585
1.20667
1.26097
1.30786
1.37087
1.45472
1.57592
1.6502
1.86375
2.63322
2.7474
2.77233
2.8196
2.85157
2.84266
2.82485
2.8241
2.82507
2.81882
2.80755
2.7998
2.79752
2.79701
2.79425
2.78987
2.78688
2.78537
2.78278
2.77624
2.76731
2.75856
2.75127
2.74389
2.73403
2.72104
2.70671
2.69312
2.68167
2.67183
2.6618
2.65049
2.6382
2.62615
2.61543
2.60644
2.59876
2.59068
2.58021
2.56706
2.55252
2.53797
2.52399
2.51047
2.49703
2.48373
2.47122
2.46042
2.45207
2.44441
2.43253
2.4178
2.40234
2.3879
2.37522
2.36502
2.35757
2.34728
2.334
2.31984
2.30475
2.28923
2.27387
2.25891
2.24587
2.23499
2.23787
2.2781
2.47501
2.53518
2.5316
2.52353
2.5184
2.5122
2.50494
2.49764
2.49155
2.48785
2.48606
2.48392
2.48014
2.47586
2.47255
2.47314
1.93797
1.62505
1.43254
1.37095
1.3496
1.30625
1.25442
1.24556
1.26032
1.30987
1.36227
1.50672
2.45433
2.73651
2.77781
2.81805
2.84262
2.8364
2.82482
2.82466
2.82508
2.81929
2.80878
2.80095
2.79742
2.79538
2.79111
2.78414
2.77763
2.77321
2.76961
2.76484
2.7577
2.74871
2.7386
2.72822
2.71764
2.70617
2.6937
2.6809
2.66854
2.65686
2.6457
2.63463
2.6232
2.6112
2.59883
2.58708
2.57687
2.56846
2.56041
2.5499
2.53646
2.52204
2.50811
2.49532
2.48335
2.47102
2.45754
2.44445
2.43288
2.42334
2.4148
2.40453
2.39215
2.37871
2.36543
2.35393
2.34363
2.33347
2.32174
2.30885
2.29534
2.28075
2.26517
2.2505
2.2398
2.23309
2.23927
2.27878
2.46291
2.52446
2.51945
2.50906
2.50421
2.50052
2.49624
2.49016
2.48373
2.47851
2.47492
2.47372
2.47336
2.47115
2.46695
2.46365
2.03539
1.83516
1.66655
1.52136
1.45312
1.40846
1.35918
1.29507
1.22549
1.22001
1.24177
1.27261
2.0964
2.69507
2.75916
2.78997
2.80604
2.80587
2.80812
2.81076
2.80875
2.79875
2.78537
2.77449
2.76731
2.76197
2.75606
2.74792
2.73812
2.7286
2.72062
2.71448
2.70984
2.70544
2.69829
2.6865
2.673
2.65994
2.64805
2.63708
2.62615
2.61405
2.60064
2.58719
2.57485
2.56391
2.55347
2.54176
2.52917
2.51764
2.50824
2.49985
2.4893
2.47603
2.462
2.4486
2.43694
2.42715
2.41773
2.40562
2.39156
2.37807
2.36643
2.35639
2.34793
2.33946
2.33066
2.32118
2.31026
2.29841
2.28621
2.27427
2.26255
2.25065
2.23756
2.22406
2.21402
2.21321
2.2223
2.25835
2.40956
2.48914
2.48749
2.47506
2.46768
2.46302
2.46203
2.46167
2.45793
2.45213
2.44538
2.44093
2.43964
2.44088
2.44298
2.44115
2.09817
1.9457
1.82273
1.68865
1.56376
1.51489
1.48279
1.43651
1.36477
1.29756
1.28359
1.27448
1.46167
2.40516
2.68088
2.72885
2.72383
2.72818
2.73842
2.74215
2.73737
2.72484
2.71062
2.69798
2.68738
2.67849
2.67108
2.66472
2.65758
2.64762
2.6345
2.62138
2.61094
2.605
2.60185
2.5963
2.58406
2.57048
2.55709
2.54477
2.53405
2.52423
2.51227
2.49792
2.48311
2.46969
2.45879
2.44924
2.43846
2.42743
2.41771
2.40984
2.4023
2.39232
2.38055
2.36752
2.35537
2.34446
2.33501
2.32573
2.3149
2.30399
2.29257
2.28152
2.27182
2.26382
2.25731
2.25104
2.24428
2.23597
2.22545
2.21352
2.2018
2.19209
2.18391
2.17736
2.17204
2.17694
2.19217
2.22111
2.31109
2.41225
2.42189
2.41232
2.40373
2.39829
2.3965
2.3969
2.39728
2.39517
2.3915
2.38528
2.38004
2.37822
2.38013
2.38245
2.14861
2.01742
1.91259
1.80961
1.70311
1.61516
1.5572
1.51882
1.47913
1.42045
1.35774
1.32452
1.34422
1.88759
2.47092
2.61046
2.60058
2.60239
2.61421
2.61414
2.60896
2.60322
2.59827
2.59085
2.57929
2.56679
2.55651
2.54976
2.54509
2.5386
2.5266
2.51136
2.49708
2.48581
2.48038
2.47785
2.47088
2.45936
2.44718
2.43496
2.42345
2.4134
2.40425
2.39273
2.37927
2.36611
2.35486
2.34582
2.33616
2.32582
2.31645
2.30871
2.30154
2.29343
2.28466
2.27452
2.26383
2.25401
2.24431
2.23461
2.22504
2.2157
2.20654
2.19743
2.18839
2.17983
2.17232
2.16611
2.16059
2.1548
2.14748
2.13832
2.12734
2.11703
2.11257
2.11153
2.11553
2.13085
2.15825
2.17494
2.20714
2.2883
2.33652
2.33574
2.32605
2.31871
2.31625
2.31658
2.31805
2.31904
2.31831
2.31579
2.31058
2.30581
2.30327
2.30373
2.18554
2.07799
1.97967
1.88839
1.79699
1.72289
1.65245
1.57944
1.54251
1.50985
1.47132
1.45036
1.46527
1.5567
2.0791
2.41272
2.49292
2.4851
2.47957
2.47092
2.46681
2.46661
2.46722
2.46481
2.45271
2.4391
2.42815
2.42147
2.41893
2.41657
2.40844
2.39535
2.38307
2.37247
2.365
2.36245
2.35826
2.34871
2.33859
2.32836
2.31802
2.30845
2.30071
2.29198
2.28104
2.27032
2.26116
2.25344
2.24468
2.23517
2.22659
2.21932
2.21179
2.20398
2.19587
2.18721
2.17843
2.16987
2.16143
2.15301
2.14451
2.13606
2.12764
2.11922
2.11067
2.10214
2.09405
2.08684
2.08062
2.07485
2.06904
2.06249
2.05505
2.04724
2.04512
2.0489
2.06216
2.08514
2.12003
2.12529
2.12658
2.15889
2.21535
2.25117
2.25426
2.24701
2.23796
2.23576
2.23699
2.23935
2.24076
2.23985
2.23738
2.233
2.22936
2.22815
2.20246
2.11495
2.03132
1.95076
1.86181
1.78837
1.73278
1.6707
1.61486
1.58815
1.57443
1.58537
1.62577
1.6376
1.74304
2.12297
2.33088
2.40714
2.39624
2.36676
2.3514
2.35389
2.36014
2.35956
2.34914
2.33513
2.32523
2.31969
2.31919
2.31961
2.31434
2.30457
2.29455
2.28613
2.27912
2.27554
2.27212
2.26449
2.25615
2.24732
2.23896
2.2313
2.22504
2.21718
2.20832
2.19912
2.1919
2.18516
2.17716
2.16885
2.16126
2.15363
2.14568
2.13787
2.13031
2.12266
2.11467
2.10645
2.09839
2.09068
2.08329
2.07597
2.0685
2.06061
2.05216
2.04333
2.03443
2.02599
2.01846
2.0115
2.00528
1.9995
1.99498
1.99278
1.99596
2.01072
2.03332
2.05942
2.0846
2.08283
2.0691
2.07247
2.1015
2.14775
2.17949
2.19072
2.18649
2.17703
2.17193
2.1719
2.17431
2.17611
2.17518
2.17269
2.16859
2.1657
2.21217
2.13745
2.06233
1.99389
1.92349
1.84337
1.78271
1.74422
1.71748
1.71239
1.70675
1.72846
1.75209
1.73588
1.73394
1.82582
2.10417
2.28398
2.3455
2.32746
2.29738
2.28856
2.29345
2.29488
2.28724
2.27336
2.26261
2.25752
2.25697
2.25815
2.25371
2.2457
2.23607
2.2284
2.22247
2.21875
2.21582
2.20949
2.20224
2.19403
2.18698
2.18088
2.17493
2.1676
2.1597
2.15195
2.14548
2.13865
2.13151
2.12476
2.11762
2.10944
2.10095
2.09323
2.0862
2.07914
2.07164
2.06344
2.05476
2.04664
2.03962
2.03319
2.02661
2.01928
2.01102
2.00191
1.9924
1.98339
1.97498
1.96742
1.96041
1.95578
1.95593
1.95894
1.97365
1.99938
2.02385
2.04842
2.05317
2.04921
2.03615
2.02516
2.03167
2.05806
2.09622
2.1285
2.14477
2.14197
2.13198
2.12474
2.12422
2.12665
2.12829
2.12754
2.12534
2.12095
2.21291
2.14962
2.08243
2.01862
1.96142
1.90197
1.85078
1.83449
1.84376
1.8399
1.82777
1.83503
1.83398
1.8155
1.77701
1.78799
1.87584
2.09295
2.26114
2.30159
2.28579
2.26637
2.26004
2.25872
2.25213
2.24155
2.23144
2.22593
2.22372
2.22381
2.21874
2.21132
2.20182
2.1947
2.18955
2.18651
2.18357
2.17761
2.17045
2.16175
2.15485
2.1492
2.14326
2.13654
2.12955
2.12231
2.11471
2.1074
2.10125
2.09539
2.08836
2.07991
2.0709
2.06306
2.05639
2.04992
2.04303
2.03495
2.02539
2.01611
2.00889
2.00299
1.99695
1.9902
1.98217
1.97294
1.96297
1.95359
1.94536
1.93793
1.93163
1.93258
1.93803
1.95003
1.97805
2.00209
2.02187
2.03203
2.02962
2.02352
2.01347
2.00135
1.9955
2.00204
2.02567
2.06057
2.09242
2.10704
2.10594
2.10045
2.09427
2.09309
2.09421
2.09455
2.09407
2.09095
2.2108
2.15491
2.09616
2.04404
2.00501
1.97181
1.95262
1.95972
1.96366
1.9379
1.91413
1.90522
1.8952
1.87923
1.84675
1.8203
1.8306
1.90213
2.0914
2.24148
2.27031
2.26181
2.25007
2.24287
2.23412
2.22511
2.21546
2.20904
2.20448
2.20197
2.19645
2.18949
2.18059
2.17361
2.16867
2.16559
2.16157
2.15528
2.14751
2.13779
2.13067
2.12545
2.12036
2.11456
2.1082
2.10042
2.09104
2.08331
2.07787
2.07232
2.06556
2.05744
2.04809
2.0396
2.03314
2.02725
2.0209
2.01336
2.00382
1.99319
1.98491
1.97903
1.97347
1.96728
1.95995
1.9509
1.94063
1.93079
1.92385
1.91843
1.91933
1.92604
1.93967
1.96483
1.99299
2.00453
2.01272
2.01348
2.01057
2.00459
1.99772
1.98788
1.9782
1.97526
1.98044
2.00066
2.03305
2.0608
2.07667
2.08083
2.07678
2.07175
2.06969
2.06979
2.06992
2.06801
2.20499
2.15935
2.11499
2.08549
2.07959
2.06732
2.05358
2.0539
2.03837
2.00117
1.96835
1.95541
1.94589
1.9316
1.9072
1.87318
1.86031
1.8669
1.92352
2.08841
2.21744
2.24305
2.24456
2.23803
2.2272
2.21568
2.20478
2.19561
2.18887
2.18442
2.17903
2.17241
2.16451
2.15664
2.15104
2.14659
2.14148
2.13498
2.12712
2.1169
2.10916
2.10437
2.1004
2.09568
2.08968
2.08157
2.07047
2.06155
2.05628
2.051
2.04482
2.0377
2.02892
2.0191
2.01154
2.00592
2.0002
1.99362
1.98545
1.9752
1.96508
1.95784
1.95227
1.94658
1.94004
1.9319
1.92179
1.91144
1.9071
1.90933
1.91857
1.93741
1.96166
1.99258
2.0028
2.00128
1.99789
1.99512
1.99323
1.98907
1.9846
1.97903
1.96946
1.96035
1.95845
1.96208
1.97735
2.00653
2.03344
2.05227
2.05749
2.05586
2.05284
2.05096
2.05011
2.04778
2.19967
2.17262
2.16024
2.16426
2.16804
2.14584
2.12453
2.11106
2.08634
2.04978
2.01389
1.99921
1.99261
1.97723
1.95368
1.92091
1.90257
1.88999
1.89467
1.93727
2.0708
2.18432
2.21781
2.23108
2.22662
2.21163
2.19624
2.18209
2.17348
2.16758
2.16306
2.15662
2.14945
2.14029
2.13234
2.12631
2.12045
2.11421
2.10729
2.09817
2.0888
2.08348
2.07976
2.07569
2.06999
2.06246
2.05155
2.0401
2.03357
2.02838
2.02305
2.01728
2.01021
2.00074
1.9905
1.98324
1.97778
1.97235
1.96617
1.95837
1.94838
1.93817
1.93053
1.92499
1.91962
1.91369
1.9059
1.89814
1.89845
1.90731
1.93008
1.95652
1.98347
2.0013
2.00124
1.99559
1.98522
1.97906
1.97551
1.97347
1.97148
1.96779
1.96209
1.95219
1.9438
1.94063
1.94374
1.95498
1.98048
2.00709
2.02771
2.03411
2.03616
2.03411
2.03198
2.02819
2.21569
2.2232
2.23219
2.24134
2.22242
2.18704
2.16198
2.14478
2.12358
2.09146
2.05501
2.03792
2.03079
2.01573
1.99119
1.96049
1.93999
1.92763
1.90927
1.91368
1.93848
2.04259
2.14672
2.19487
2.21592
2.20716
2.18905
2.16902
2.15696
2.15006
2.14602
2.14021
2.13294
2.12319
2.11162
2.10383
2.09752
2.09186
2.08613
2.07926
2.06974
2.06143
2.05657
2.05208
2.04654
2.03997
2.03123
2.0199
2.01014
2.00361
1.99866
1.99399
1.98858
1.98146
1.97169
1.96133
1.95417
1.94912
1.94426
1.93856
1.93075
1.92042
1.90973
1.90214
1.8978
1.89485
1.89378
1.8956
1.90443
1.9256
1.95212
1.96934
1.98539
1.99168
1.99049
1.98531
1.97625
1.96624
1.96046
1.95728
1.95571
1.95403
1.94991
1.9436
1.93341
1.92512
1.92118
1.92359
1.93208
1.95334
1.97974
2.0003
2.00923
2.01394
2.01292
2.00883
2.26691
2.2874
2.29264
2.28269
2.25047
2.21358
2.18819
2.17117
2.1546
2.12622
2.09036
2.07014
2.06103
2.04736
2.0229
1.99333
1.97267
1.9587
1.94285
1.92056
1.9186
1.93177
2.01176
2.11171
2.16851
2.18859
2.18003
2.15897
2.14065
2.13167
2.12648
2.12126
2.11388
2.10381
2.08966
2.07935
2.07278
2.06745
2.06278
2.05716
2.04938
2.03882
2.03027
2.02416
2.01848
2.0126
2.00589
1.99783
1.98808
1.97834
1.97187
1.9673
1.96277
1.95759
1.95086
1.94133
1.93111
1.92414
1.91923
1.91435
1.90839
1.90073
1.89093
1.88034
1.87659
1.87764
1.88588
1.90178
1.9268
1.95677
1.96814
1.97217
1.97465
1.97419
1.9733
1.969
1.96331
1.95546
1.94691
1.94192
1.9388
1.93704
1.93404
1.92934
1.92232
1.91173
1.904
1.89979
1.90135
1.90876
1.92659
1.95104
1.97142
1.98135
1.99004
1.98906
2.33781
2.32761
2.31788
2.29777
2.26439
2.23377
2.21311
2.19528
2.17889
2.15386
2.11981
2.09686
2.08579
2.07326
2.0494
2.01833
1.99919
1.98307
1.9682
1.94708
1.92136
1.91256
1.91862
1.97839
2.07105
2.13437
2.15348
2.1443
2.12726
2.11451
2.10565
2.09846
2.09104
2.08121
2.06652
2.05385
2.04675
2.04122
2.03679
2.03134
2.02442
2.01505
2.00395
1.99466
1.98807
1.98266
1.97763
1.97212
1.96497
1.95579
1.94619
1.93905
1.93435
1.93057
1.92622
1.91975
1.91038
1.90028
1.89253
1.88679
1.88201
1.87719
1.87155
1.86432
1.86404
1.87049
1.89036
1.91606
1.94794
1.96869
1.96933
1.96574
1.95859
1.95407
1.95185
1.94916
1.9455
1.94074
1.93406
1.92701
1.9226
1.91957
1.91656
1.91244
1.90722
1.89965
1.89004
1.88284
1.87916
1.88031
1.88657
1.90165
1.92342
1.94207
1.95656
1.96587
2.36654
2.34205
2.32471
2.30297
2.2735
2.24903
2.23436
2.21468
2.19424
2.17218
2.1424
2.11813
2.10477
2.0925
2.06957
2.03729
2.01662
2.00178
1.985
1.96735
1.93998
1.91222
1.89978
1.90283
1.94448
2.02616
2.08908
2.10639
2.10587
2.09825
2.08827
2.07702
2.06698
2.05595
2.04202
2.02965
2.02146
2.01527
2.00977
2.00407
1.99787
1.99005
1.9797
1.9687
1.95939
1.95271
1.94893
1.94528
1.93997
1.9334
1.92512
1.91508
1.90769
1.90383
1.90019
1.89535
1.88798
1.87812
1.86807
1.86016
1.85577
1.85287
1.85279
1.85561
1.86416
1.88395
1.90802
1.92993
1.95166
1.95715
1.95636
1.95228
1.94359
1.93611
1.93214
1.92938
1.92728
1.92421
1.92026
1.91473
1.90846
1.90411
1.9005
1.89681
1.89292
1.8883
1.88188
1.87373
1.86633
1.86292
1.86381
1.86856
1.87981
1.89902
1.91848
1.93883
2.36012
2.33543
2.32227
2.30525
2.28001
2.25852
2.24715
2.22851
2.20314
2.18136
2.15779
2.13385
2.11768
2.10425
2.08267
2.05139
2.0276
2.01376
1.99629
1.978
1.95522
1.92615
1.89916
1.88902
1.8876
1.9102
1.9749
2.03471
2.05971
2.07097
2.07
2.06111
2.04753
2.03293
2.01956
2.00972
2.00174
1.99444
1.98784
1.98137
1.97465
1.9678
1.95919
1.94984
1.94029
1.9306
1.9243
1.92031
1.91691
1.91282
1.907
1.89821
1.88742
1.87737
1.87206
1.86899
1.86519
1.85859
1.84743
1.83675
1.83479
1.83555
1.84246
1.85796
1.88315
1.91296
1.92585
1.93368
1.93936
1.94138
1.94097
1.9381
1.93232
1.92381
1.91757
1.91482
1.91366
1.91209
1.90938
1.9056
1.89978
1.8935
1.88931
1.88645
1.88386
1.8809
1.87694
1.87078
1.86268
1.85589
1.85329
1.85341
1.85575
1.86471
1.87992
1.90926
2.35096
2.3292
2.32009
2.30503
2.28005
2.25919
2.249
2.23324
2.20754
2.1839
2.16633
2.14487
2.12518
2.10899
2.08882
2.06085
2.03484
2.02046
2.00371
1.98408
1.9633
1.93784
1.9124
1.88975
1.8753
1.87136
1.88321
1.92816
1.98578
2.02611
2.04181
2.03954
2.03146
2.01858
2.00803
1.99904
1.99176
1.98465
1.97505
1.96249
1.95175
1.94577
1.94213
1.93787
1.93102
1.92128
1.91028
1.90126
1.89532
1.89102
1.88697
1.88247
1.87489
1.86428
1.8552
1.84806
1.84129
1.83541
1.82976
1.82616
1.82673
1.834
1.85404
1.88053
1.91457
1.93141
1.93176
1.93069
1.93001
1.93098
1.93173
1.9289
1.92497
1.9183
1.91146
1.9088
1.90761
1.90642
1.90373
1.90074
1.89659
1.89072
1.88684
1.88471
1.88208
1.87846
1.8745
1.87013
1.86411
1.85655
1.85078
1.84744
1.84796
1.84953
1.85456
1.87841
2.35853
2.33699
2.32534
2.3074
2.28303
2.26261
2.25146
2.23581
2.21053
2.1846
2.16999
2.15311
2.13081
2.11105
2.09201
2.06886
2.04316
2.02596
2.01138
1.99133
1.97039
1.94839
1.92534
1.905
1.88258
1.86719
1.86065
1.86646
1.89893
1.9504
2.00324
2.01704
2.01615
2.0143
2.00882
2.00185
1.99423
1.98569
1.97402
1.95914
1.94574
1.93634
1.93039
1.92612
1.92153
1.91564
1.90717
1.89718
1.88966
1.88353
1.87733
1.87031
1.86235
1.85338
1.8456
1.83832
1.83144
1.8264
1.82687
1.82822
1.83613
1.85858
1.88549
1.91084
1.93233
1.93548
1.93428
1.93172
1.92962
1.92816
1.92708
1.92599
1.92386
1.91964
1.91377
1.90865
1.90614
1.90552
1.90554
1.90332
1.90001
1.89539
1.88977
1.88371
1.88043
1.87915
1.8777
1.87476
1.87068
1.86429
1.85683
1.85007
1.84766
1.84737
1.84832
1.85874
2.41285
2.38055
2.35744
2.33032
2.30023
2.27902
2.26544
2.24793
2.22216
2.19689
2.18021
2.16399
2.14094
2.11736
2.09767
2.07751
2.05656
2.03621
2.02093
2.00272
1.98088
1.96009
1.94076
1.92325
1.90561
1.88536
1.86561
1.86193
1.86444
1.8863
1.93597
1.98904
2.01095
2.01874
2.01571
2.00596
1.99538
1.98539
1.97455
1.96287
1.95229
1.94412
1.93685
1.92931
1.92102
1.9122
1.90351
1.89727
1.89231
1.88699
1.88024
1.87141
1.85975
1.84934
1.84168
1.83526
1.83324
1.83335
1.83742
1.84996
1.87535
1.90444
1.92053
1.93395
1.94445
1.94614
1.94473
1.94061
1.93449
1.92986
1.92779
1.92706
1.92721
1.92614
1.92331
1.91806
1.91254
1.90942
1.90806
1.90735
1.90604
1.90355
1.89889
1.89217
1.88727
1.88419
1.88202
1.88013
1.87814
1.87527
1.87011
1.86314
1.85652
1.85095
1.8504
1.85333
2.50594
2.46194
2.42637
2.39096
2.3527
2.32308
2.30246
2.2811
2.25272
2.22512
2.20806
2.19366
2.17159
2.14544
2.12398
2.10738
2.09074
2.07239
2.05173
2.03557
2.01728
1.99938
1.98349
1.96922
1.95551
1.93889
1.91794
1.89864
1.88017
1.88156
1.89767
1.93991
1.98296
2.02196
2.03113
2.02664
2.01411
2.00155
1.98949
1.9788
1.96928
1.96039
1.9515
1.94176
1.93129
1.92102
1.91209
1.90546
1.90011
1.89424
1.88635
1.87577
1.86483
1.85518
1.84698
1.84278
1.84457
1.85128
1.86949
1.8974
1.93142
1.94659
1.95112
1.95636
1.95934
1.96048
1.95828
1.95382
1.94835
1.94216
1.93869
1.93781
1.93799
1.93826
1.93702
1.93405
1.92877
1.9228
1.91974
1.91823
1.91681
1.915
1.91257
1.90938
1.90435
1.89911
1.89543
1.89263
1.88984
1.88693
1.88363
1.87963
1.87444
1.86829
1.86363
1.86117
2.58297
2.54617
2.50736
2.46566
2.42578
2.39263
2.36769
2.34347
2.31079
2.27943
2.25779
2.24062
2.21862
2.19166
2.16808
2.15028
2.13195
2.11395
2.0953
2.07471
2.05554
2.03746
2.02208
2.008
1.99358
1.97732
1.95821
1.93706
1.91873
1.90714
1.90604
1.91528
1.94316
1.98397
2.03096
2.04577
2.04011
2.03014
2.01708
2.00392
1.99203
1.98159
1.97114
1.96038
1.94995
1.94073
1.93221
1.92343
1.91412
1.90461
1.89475
1.88549
1.87755
1.87103
1.86474
1.8647
1.87016
1.89147
1.9216
1.95229
1.97686
1.98307
1.98158
1.97685
1.97343
1.97226
1.97275
1.97232
1.97084
1.96705
1.96181
1.95907
1.95788
1.95713
1.95603
1.95423
1.95142
1.94657
1.94171
1.93874
1.93665
1.93471
1.93275
1.93053
1.92712
1.9219
1.91697
1.91323
1.90998
1.9071
1.90441
1.90163
1.89748
1.89225
1.88632
1.87987
2.61853
2.5947
2.56545
2.5316
2.49842
2.46918
2.44233
2.41145
2.37636
2.34561
2.32248
2.30419
2.2812
2.25267
2.2265
2.20751
2.18771
2.16797
2.14812
2.1261
2.10491
2.08638
2.07037
2.05515
2.03928
2.02181
2.00269
1.98225
1.96374
1.94747
1.93436
1.92399
1.9272
1.94416
1.98564
2.02906
2.05225
2.051
2.04553
2.0336
2.01834
2.00386
1.9897
1.9788
1.97126
1.96402
1.9559
1.94553
1.93164
1.91592
1.90575
1.89907
1.89549
1.89322
1.89536
1.90208
1.92429
1.95615
1.9788
2.00239
2.01421
2.01423
2.00883
1.99919
1.99477
1.99385
1.99448
1.99632
1.99594
1.99434
1.99078
1.98642
1.98413
1.98277
1.98136
1.9797
1.97739
1.97392
1.96941
1.96555
1.96324
1.96138
1.95934
1.95676
1.95294
1.94757
1.94202
1.9379
1.93487
1.93231
1.92984
1.92716
1.92325
1.9177
1.91159
1.9038
2.62296
2.60413
2.58398
2.56319
2.54197
2.5197
2.49459
2.46479
2.4338
2.40629
2.38487
2.36489
2.33775
2.30703
2.28168
2.26256
2.24265
2.22084
2.1983
2.17431
2.15201
2.13292
2.11568
2.09875
2.0811
2.06185
2.04148
2.02112
2.00134
1.98362
1.96708
1.95042
1.93627
1.93167
1.94121
1.97801
2.02026
2.04944
2.06169
2.05595
2.04092
2.02219
2.00451
1.99314
1.98642
1.98088
1.97345
1.96295
1.94744
1.92777
1.91789
1.91334
1.91506
1.92208
1.9339
1.96166
1.99966
2.01785
2.02753
2.03524
2.03744
2.03577
2.03281
2.028
2.02306
2.02123
2.02064
2.0207
2.0204
2.01944
2.01781
2.0146
2.01134
2.00946
2.00776
2.00585
2.00369
2.00116
1.99795
1.99398
1.99041
1.98764
1.9848
1.98141
1.97718
1.97228
1.96747
1.96343
1.96006
1.9572
1.95439
1.95138
1.94721
1.94141
1.93537
1.92694
2.62002
2.60688
2.59296
2.57774
2.56025
2.54017
2.51718
2.49267
2.4688
2.44791
2.42944
2.40647
2.37812
2.34981
2.32706
2.30835
2.28765
2.26408
2.23863
2.21347
2.19116
2.17158
2.15321
2.13483
2.1153
2.09386
2.07188
2.05127
2.03199
2.01302
1.99429
1.97601
1.95613
1.93987
1.92892
1.93516
1.96601
2.00671
2.04863
2.0605
2.05264
2.0367
2.0191
2.00381
1.99448
1.98743
1.97964
1.96985
1.95505
1.93867
1.93058
1.93124
1.93861
1.95767
1.99097
2.03254
2.05548
2.0584
2.05775
2.05523
2.05419
2.05369
2.05259
2.05101
2.04818
2.04498
2.04355
2.04297
2.04267
2.04192
2.04044
2.03788
2.03457
2.03185
2.02999
2.02819
2.02619
2.02385
2.0208
2.0167
2.0121
2.0082
2.00484
2.00127
1.99726
1.99307
1.98903
1.98512
1.98124
1.97754
1.97381
1.96945
1.96392
1.95736
1.95236
1.94525
2.61531
2.60344
2.5909
2.57695
2.5615
2.54482
2.52624
2.50679
2.48794
2.47059
2.45141
2.42656
2.39958
2.37587
2.35666
2.33813
2.31596
2.29035
2.2639
2.24099
2.21998
2.20009
2.1806
2.16012
2.13777
2.11456
2.09284
2.07318
2.05453
2.03536
2.01528
1.99402
1.97248
1.95206
1.93583
1.92636
1.92977
1.94942
1.99122
2.03233
2.04729
2.04391
2.03174
2.01544
1.99891
1.98669
1.97621
1.9652
1.95484
1.94973
1.94788
1.95106
1.97019
2.00938
2.04516
2.07415
2.0817
2.08067
2.07733
2.07195
2.06874
2.0668
2.06577
2.06548
2.06484
2.06375
2.06178
2.05988
2.05851
2.05677
2.05458
2.05227
2.05006
2.04777
2.04549
2.04347
2.04129
2.03874
2.03586
2.03257
2.02857
2.02383
2.01915
2.01487
2.0108
2.00705
2.00367
2.0004
1.99673
1.99212
1.9862
1.97941
1.97313
1.96838
1.96552
1.95947
2.62091
2.6071
2.59338
2.57876
2.56319
2.54663
2.52936
2.51211
2.49549
2.47853
2.4576
2.43368
2.41068
2.39079
2.37355
2.35335
2.32935
2.30216
2.2791
2.25932
2.23952
2.21956
2.19802
2.17386
2.14941
2.12711
2.10703
2.0884
2.0701
2.05085
2.02919
2.00554
1.98229
1.96199
1.94497
1.93005
1.92146
1.91715
1.92843
1.96595
2.00462
2.03209
2.03358
2.02366
2.00473
1.98525
1.96904
1.95939
1.95571
1.95811
1.96711
1.99158
2.03339
2.0608
2.07675
2.08681
2.09116
2.09029
2.08725
2.08195
2.07698
2.07505
2.07424
2.07503
2.07532
2.07434
2.07183
2.06748
2.06457
2.06326
2.06238
2.06187
2.06061
2.05865
2.05571
2.05242
2.04984
2.04744
2.04485
2.0418
2.03764
2.03177
2.02552
2.0211
2.01799
2.01527
2.01246
2.00942
2.00565
1.99996
1.99219
1.98533
1.98099
1.97758
1.97456
1.96762
2.63126
2.61618
2.60111
2.58536
2.56905
2.55229
2.53543
2.5187
2.50175
2.48278
2.46093
2.4387
2.41867
2.40205
2.38358
2.36066
2.33423
2.30933
2.28941
2.27117
2.25176
2.2306
2.20634
2.18007
2.15597
2.13533
2.11685
2.09923
2.08139
2.0609
2.03651
2.01149
1.98932
1.97006
1.95303
1.9366
1.92148
1.90916
1.8969
1.90544
1.93917
1.98072
2.01385
2.01717
2.00815
1.98522
1.96574
1.95926
1.96066
1.97396
2.00468
2.05074
2.08247
2.08725
2.08959
2.09032
2.09281
2.09213
2.08965
2.08504
2.0802
2.07897
2.07877
2.07973
2.07963
2.07833
2.07519
2.07069
2.06865
2.06783
2.06746
2.06731
2.06581
2.06367
2.06008
2.05584
2.05316
2.05093
2.04837
2.04521
2.0409
2.03532
2.02978
2.02558
2.02267
2.02006
2.0172
2.01385
2.00958
2.00337
1.99608
1.9904
1.98641
1.9825
1.97869
1.97034
2.64022
2.62516
2.60987
2.59388
2.57734
2.56045
2.54336
2.52588
2.50723
2.48669
2.46521
2.44449
2.42646
2.41051
2.38916
2.36415
2.33809
2.3165
2.29733
2.27857
2.25807
2.2353
2.20995
2.18456
2.16215
2.14257
2.12442
2.10632
2.08663
2.06409
2.03974
2.01622
1.99534
1.97703
1.96098
1.94513
1.92734
1.90804
1.88952
1.87842
1.88602
1.91464
1.95696
1.9905
1.99481
1.98122
1.96747
1.96577
1.97833
2.01201
2.055
2.09035
2.09608
2.09572
2.09385
2.0919
2.09171
2.09006
2.08804
2.08473
2.08209
2.08132
2.08131
2.08161
2.08099
2.07942
2.07658
2.07356
2.07167
2.07053
2.06995
2.06882
2.06709
2.06453
2.06104
2.05745
2.05455
2.05209
2.04949
2.04624
2.04212
2.03755
2.03305
2.02894
2.02543
2.02256
2.01957
2.01576
2.01065
2.00458
1.99861
1.99356
1.98902
1.9844
1.97993
1.97109
2.64276
2.62883
2.61446
2.59917
2.58311
2.56647
2.54919
2.53098
2.51149
2.49095
2.47035
2.451
2.43364
2.41492
2.39195
2.36664
2.34379
2.32309
2.30348
2.28276
2.26068
2.23673
2.21225
2.18937
2.16872
2.14905
2.12958
2.10928
2.08707
2.06397
2.04179
2.02144
2.00259
1.98408
1.96598
1.94713
1.9264
1.90562
1.88699
1.8733
1.86352
1.86585
1.88739
1.92987
1.9628
1.96638
1.97276
1.99149
2.02508
2.06087
2.08814
2.10194
2.10313
2.10054
2.09661
2.09314
2.08909
2.08582
2.08357
2.08291
2.08284
2.08315
2.08285
2.08202
2.08038
2.07817
2.07655
2.07538
2.07407
2.07238
2.07044
2.06861
2.06634
2.06363
2.061
2.05844
2.05564
2.05256
2.0493
2.04578
2.04223
2.03885
2.03567
2.03217
2.02812
2.02384
2.01966
2.015
2.00971
2.00451
1.99983
1.99521
1.99037
1.9851
1.98002
1.97147
2.64137
2.62833
2.61472
2.60021
2.58486
2.56864
2.55148
2.53336
2.51442
2.49507
2.47568
2.45678
2.43763
2.41391
2.38994
2.36857
2.34915
2.32926
2.3077
2.28487
2.26085
2.23704
2.21458
2.19413
2.17441
2.1541
2.13212
2.10853
2.08522
2.06348
2.04421
2.02685
2.00968
1.99094
1.96935
1.94623
1.92445
1.90404
1.88689
1.87163
1.85741
1.84517
1.84556
1.86624
1.90644
1.94854
1.99096
2.04094
2.07964
2.09426
2.09898
2.10168
2.10115
2.09898
2.09568
2.09148
2.08549
2.08123
2.08063
2.08148
2.0839
2.08452
2.08372
2.081
2.07791
2.07686
2.07645
2.07648
2.07574
2.07397
2.07092
2.06704
2.06437
2.06255
2.0608
2.05884
2.05619
2.05254
2.04854
2.0451
2.04239
2.04003
2.03759
2.03463
2.03064
2.02513
2.01894
2.01341
2.00859
2.00423
2.0001
1.99579
1.99097
1.98535
1.98005
1.9719
2.64053
2.62794
2.61468
2.60039
2.58518
2.56902
2.55199
2.53427
2.51613
2.49781
2.47913
2.45929
2.43693
2.4141
2.39217
2.37212
2.35376
2.3327
2.30998
2.28544
2.25987
2.23719
2.21716
2.1979
2.17841
2.15728
2.13291
2.10627
2.08218
2.06326
2.04747
2.03214
2.01553
1.99488
1.96871
1.94161
1.9201
1.90342
1.8892
1.87505
1.86018
1.84091
1.82125
1.82454
1.85325
1.92363
2.00806
2.07629
2.11452
2.12888
2.11623
2.10426
2.09859
2.09608
2.09347
2.09014
2.08352
2.07931
2.0791
2.08085
2.08398
2.08425
2.08306
2.07925
2.07654
2.076
2.07664
2.07814
2.07703
2.07474
2.07035
2.06553
2.06338
2.062
2.06075
2.05905
2.05646
2.0521
2.04757
2.04494
2.04287
2.04111
2.03882
2.03593
2.03157
2.0249
2.01759
2.01197
2.00774
2.00399
2.00029
1.99629
1.99142
1.98505
1.9799
1.97281
)
;

boundaryField
{
    inlet
    {
        type            fixedValue;
        value           uniform 1;
    }
    outlet
    {
        type            inletOutlet;
        inletValue      uniform 1;
        value           nonuniform List<scalar> 
32
(
2.47369
2.46346
2.44078
2.38278
2.30411
2.22831
2.16575
2.12067
2.09063
2.06789
2.04782
2.02835
2.00911
1.9893
1.96598
1.93877
1.90894
1.8781
1.85876
1.8535
1.86125
1.8799
1.90387
1.92702
1.94554
1.9598
1.96765
1.97009
1.97084
1.97139
1.97201
1.97312
)
;
    }
    bottom
    {
        type            symmetryPlane;
    }
    top
    {
        type            symmetryPlane;
    }
    obstacle
    {
        type            zeroGradient;
    }
    defaultFaces
    {
        type            empty;
    }
}


// ************************************************************************* //
