/*--------------------------------*- C++ -*----------------------------------*\
  =========                 |
  \\      /  F ield         | OpenFOAM: The Open Source CFD Toolbox
   \\    /   O peration     | Website:  https://openfoam.org
    \\  /    A nd           | Version:  7
     \\/     M anipulation  |
\*---------------------------------------------------------------------------*/
FoamFile
{
    version     2.0;
    format      ascii;
    class       volVectorField;
    location    "11";
    object      U;
}
// * * * * * * * * * * * * * * * * * * * * * * * * * * * * * * * * * * * * * //

dimensions      [0 1 -1 0 0 0 0];

internalField   nonuniform List<vector> 
4032
(
(3 -3.21642e-17 0)
(3 7.07043e-17 0)
(3 -1.14207e-16 0)
(3 -1.13967e-16 0)
(3 -3.67201e-16 0)
(3 -1.0187e-15 0)
(3 -1.93985e-15 0)
(3 -1.98818e-15 0)
(3 -8.84188e-16 0)
(3 3.60653e-16 0)
(3 5.10987e-17 0)
(2.89961 0.00321868 0)
(0.987864 0.0160786 0)
(0.709472 0.0193323 0)
(0.657803 0.024136 0)
(0.598029 0.0255912 0)
(0.539123 0.0267942 0)
(0.478383 0.0281231 0)
(0.415873 0.0296287 0)
(0.350936 0.0314289 0)
(0.283059 0.0334208 0)
(0.210663 0.0364521 0)
(0.132013 0.0390936 0)
(0.0494381 0.0445535 0)
(3 -3.38157e-16 0)
(3 -4.20609e-16 0)
(3 -3.86984e-16 0)
(3 -3.47287e-16 0)
(3 -1.24569e-15 0)
(3 -1.77299e-15 0)
(3 -2.32018e-15 0)
(3 -1.88433e-15 0)
(3 -1.08602e-15 0)
(3 3.81988e-16 0)
(3 7.85772e-17 0)
(2.90971 0.0203312 0)
(0.993913 0.0743714 0)
(0.695432 0.0666198 0)
(0.641435 0.0707905 0)
(0.582765 0.0753166 0)
(0.524089 0.079713 0)
(0.46309 0.0843636 0)
(0.400048 0.0891455 0)
(0.334842 0.0946861 0)
(0.26751 0.100623 0)
(0.197448 0.110238 0)
(0.12224 0.118857 0)
(0.0459808 0.13457 0)
(3 -7.68991e-17 0)
(3 -2.62407e-16 0)
(3 -1.61886e-16 0)
(3 -4.53815e-16 0)
(3 -7.68939e-16 0)
(3 -8.01405e-16 0)
(3 -3.79307e-16 0)
(3 -1.63244e-16 0)
(3 -5.58813e-16 0)
(3 -2.44053e-16 0)
(3 2.52261e-16 0)
(2.95387 0.0406578 0)
(1.03153 0.13782 0)
(0.710843 0.115732 0)
(0.656456 0.122334 0)
(0.595764 0.129788 0)
(0.534953 0.137352 0)
(0.471798 0.145415 0)
(0.406177 0.153404 0)
(0.337879 0.16211 0)
(0.266971 0.170192 0)
(0.194425 0.183594 0)
(0.117713 0.195105 0)
(0.0438186 0.217435 0)
(3 9.07292e-17 0)
(3 3.69695e-16 0)
(3 4.52004e-16 0)
(3 6.85709e-16 0)
(3 6.23933e-16 0)
(3 3.80512e-17 0)
(3 1.16258e-16 0)
(3 -1.00211e-16 0)
(3 3.06011e-16 0)
(3 2.98149e-16 0)
(3 7.70081e-16 0)
(3.00845 0.00641773 0)
(1.10694 0.182278 0)
(0.74365 0.152573 0)
(0.692202 0.166561 0)
(0.632775 0.178544 0)
(0.571784 0.190092 0)
(0.508032 0.202874 0)
(0.440469 0.216181 0)
(0.368293 0.231224 0)
(0.290873 0.244412 0)
(0.211206 0.262846 0)
(0.126874 0.27699 0)
(0.0459305 0.302427 0)
(3 8.42187e-17 0)
(3 2.2021e-16 0)
(3 4.75034e-16 0)
(3 6.56031e-16 0)
(3 2.8203e-16 0)
(3 1.67247e-16 0)
(3 3.54995e-16 0)
(3 4.96558e-16 0)
(3 3.67455e-16 0)
(3 5.75826e-16 0)
(3 6.1878e-16 0)
(3.00061 3.13418e-05 0)
(1.21546 0.224462 0)
(0.750184 0.196996 0)
(0.69576 0.217767 0)
(0.639748 0.234263 0)
(0.58142 0.249263 0)
(0.521141 0.266812 0)
(0.457284 0.285704 0)
(0.389404 0.307402 0)
(0.314762 0.325446 0)
(0.235735 0.348552 0)
(0.145641 0.367739 0)
(0.0550277 0.39938 0)
(3 4.9441e-18 0)
(3 -1.48928e-16 0)
(3 -9.76049e-17 0)
(3 -1.5056e-16 0)
(3 -2.9171e-16 0)
(3 2.98177e-16 0)
(3 8.02843e-16 0)
(3 5.78924e-16 0)
(3 4.35304e-16 0)
(3 1.98948e-16 0)
(3 -5.48694e-17 0)
(3 -1.2334e-07 0)
(1.39511 0.27464 0)
(0.765572 0.245275 0)
(0.697063 0.261937 0)
(0.648131 0.281151 0)
(0.597998 0.29886 0)
(0.547592 0.320339 0)
(0.492247 0.344644 0)
(0.430503 0.375107 0)
(0.355264 0.405403 0)
(0.26838 0.443115 0)
(0.166252 0.478301 0)
(0.0561858 0.517255 0)
(3 -1.12614e-16 0)
(3 -1.266e-16 0)
(3 -1.29913e-16 0)
(3 -1.79495e-16 0)
(3 -3.4117e-17 0)
(3 -2.1196e-16 0)
(3 -9.58858e-17 0)
(3 1.04739e-16 0)
(3 1.79482e-16 0)
(3 -3.10471e-16 0)
(3 -4.0153e-16 0)
(3 -1.20481e-07 0)
(1.66906 0.325848 0)
(0.795958 0.309164 0)
(0.696732 0.308651 0)
(0.645995 0.325257 0)
(0.598024 0.343583 0)
(0.554719 0.369873 0)
(0.508435 0.40236 0)
(0.459175 0.444969 0)
(0.397893 0.492032 0)
(0.326624 0.543677 0)
(0.233436 0.594617 0)
(0.101449 0.660294 0)
(3 1.72634e-16 0)
(3 1.2417e-16 0)
(3 -1.18887e-16 0)
(3 -4.05668e-16 0)
(3 -2.23965e-16 0)
(3 -2.36649e-16 0)
(3 -5.07323e-16 0)
(3 2.34209e-16 0)
(3 1.59304e-16 0)
(3 -3.18341e-17 0)
(3 -2.35078e-16 0)
(3 -2.50169e-08 0)
(2.07199 0.367409 0)
(0.852216 0.394303 0)
(0.71687 0.370067 0)
(0.667193 0.379076 0)
(0.620265 0.392334 0)
(0.579608 0.416721 0)
(0.540602 0.452289 0)
(0.502123 0.501239 0)
(0.457794 0.560555 0)
(0.395672 0.641537 0)
(0.275401 0.757562 0)
(0.15151 0.924503 0)
(3 -9.68963e-17 0)
(3 -3.12765e-16 0)
(3 -4.50852e-16 0)
(3 -1.06588e-15 0)
(3 -1.25563e-15 0)
(3 -5.83668e-16 0)
(3 -3.72451e-16 0)
(3 -1.37136e-16 0)
(3 -3.83377e-18 0)
(3 -2.64432e-16 0)
(3 -2.24024e-16 0)
(3 -2.57734e-09 0)
(2.65579 0.303041 0)
(0.984329 0.477826 0)
(0.803374 0.406359 0)
(0.751611 0.414961 0)
(0.694003 0.433377 0)
(0.642657 0.459512 0)
(0.599955 0.496765 0)
(0.563737 0.55009 0)
(0.529912 0.626886 0)
(0.497015 0.75103 0)
(0.465512 0.923195 0)
(0.578359 1.20298 0)
(3 -1.15462e-16 0)
(3 2.81822e-17 0)
(3 -1.41028e-16 0)
(3 -2.02302e-16 0)
(3 -4.5697e-16 0)
(3 -3.83412e-16 0)
(3 -2.55267e-16 0)
(3 -3.62956e-16 0)
(3 -2.09983e-16 0)
(3 -5.20372e-16 0)
(3 -6.01831e-17 0)
(3 -1.03214e-10 0)
(3.07671 0.042739 0)
(1.21898 0.469498 0)
(0.882238 0.447496 0)
(0.838724 0.474101 0)
(0.785176 0.489829 0)
(0.730885 0.511207 0)
(0.682671 0.54484 0)
(0.643855 0.597076 0)
(0.624466 0.681691 0)
(0.623461 0.816627 0)
(0.68652 0.965831 0)
(0.969556 1.13827 0)
(3 3.91722e-17 0)
(3 -1.2838e-16 0)
(3 -1.11331e-16 0)
(3 3.5391e-16 0)
(3 8.15033e-16 0)
(3 6.38525e-16 0)
(3 2.69829e-16 0)
(3 -6.74006e-16 0)
(3 -7.35002e-16 0)
(3 -5.16252e-16 0)
(3 2.82672e-16 0)
(3 -2.15714e-12 0)
(3.00864 8.18038e-05 0)
(1.43591 0.462104 0)
(0.884255 0.512128 0)
(0.836704 0.531601 0)
(0.801018 0.550996 0)
(0.772557 0.575507 0)
(0.745099 0.607646 0)
(0.720525 0.651706 0)
(0.723337 0.725621 0)
(0.751176 0.840132 0)
(0.872984 0.963478 0)
(1.1793 1.07011 0)
(3 5.34986e-17 0)
(3 -3.4418e-16 0)
(3 1.7287e-16 0)
(3 3.82346e-17 0)
(3 2.24248e-16 0)
(3 2.00072e-16 0)
(3 -1.03325e-17 0)
(3 -2.60615e-16 0)
(3 -5.08776e-16 0)
(3 -3.66638e-16 0)
(3 1.65398e-16 0)
(3 -1.93797e-14 0)
(3.00006 -2.50668e-06 0)
(1.94259 0.494152 0)
(0.929066 0.576536 0)
(0.853495 0.560373 0)
(0.834067 0.582105 0)
(0.819671 0.607599 0)
(0.809613 0.642223 0)
(0.801897 0.682688 0)
(0.81759 0.746126 0)
(0.86712 0.83756 0)
(1.01054 0.939597 0)
(1.27453 1.00685 0)
(3 1.33319e-16 0)
(3 2.25873e-16 0)
(3 9.6751e-17 0)
(3 -2.8246e-16 0)
(3 -1.2703e-15 0)
(3 -1.44419e-15 0)
(3 -8.7545e-16 0)
(3 -2.8194e-16 0)
(3 8.20122e-17 0)
(3 4.90149e-16 0)
(3 1.32657e-15 0)
(3 1.45062e-15 0)
(3.00001 -3.1911e-06 0)
(2.74674 0.319581 0)
(1.09625 0.634997 0)
(0.920506 0.580874 0)
(0.8914 0.601832 0)
(0.873809 0.630706 0)
(0.87007 0.668895 0)
(0.876452 0.710942 0)
(0.901443 0.765513 0)
(0.966344 0.834671 0)
(1.10538 0.906794 0)
(1.31997 0.946989 0)
(3 -2.11861e-16 0)
(3 2.67831e-16 0)
(3 2.94179e-16 0)
(3 2.10283e-16 0)
(3 1.53919e-16 0)
(3 2.50992e-16 0)
(3 2.70717e-16 0)
(3 4.48673e-16 0)
(3 6.51125e-16 0)
(3 8.44354e-16 0)
(3 1.15544e-15 0)
(3 1.13407e-15 0)
(3 -6.73954e-07 0)
(3.07458 0.0261027 0)
(1.43589 0.631831 0)
(1.00209 0.65234 0)
(0.950635 0.652179 0)
(0.924974 0.666632 0)
(0.923194 0.694068 0)
(0.939415 0.73027 0)
(0.974378 0.77367 0)
(1.0477 0.827604 0)
(1.17465 0.879379 0)
(1.34869 0.9058 0)
(3 1.3626e-16 0)
(3 2.56102e-16 0)
(3 1.96682e-16 0)
(3 4.58671e-16 0)
(3 9.83853e-16 0)
(3 1.27992e-15 0)
(3 8.49136e-16 0)
(3 7.86852e-16 0)
(3 1.29083e-15 0)
(3 1.41816e-15 0)
(3 1.28834e-15 0)
(3 1.09634e-15 0)
(3 -6.84816e-08 0)
(3.00415 7.34131e-05 0)
(1.98942 0.599962 0)
(1.06364 0.724284 0)
(1.0111 0.701898 0)
(0.994964 0.699035 0)
(0.991315 0.715228 0)
(1.00605 0.741873 0)
(1.0442 0.777764 0)
(1.11498 0.816404 0)
(1.22217 0.849584 0)
(1.36135 0.865537 0)
(3 2.32757e-17 0)
(3 -3.72876e-16 0)
(3 -3.39677e-16 0)
(3 -1.38211e-16 0)
(3 5.77914e-16 0)
(3 3.13684e-16 0)
(3 1.05249e-16 0)
(3 2.6799e-16 0)
(3 4.24533e-16 0)
(3 5.54278e-16 0)
(3 6.36982e-16 0)
(3 9.71067e-16 0)
(3 -2.17085e-09 0)
(3.00001 -3.28545e-07 0)
(2.9328 0.221869 0)
(1.28174 0.698011 0)
(1.08262 0.719123 0)
(1.08721 0.720481 0)
(1.08165 0.740644 0)
(1.08676 0.762126 0)
(1.11462 0.788237 0)
(1.17549 0.817398 0)
(1.26413 0.839236 0)
(1.37794 0.848327 0)
(3 -1.33984e-16 0)
(3 -2.49124e-16 0)
(3 6.6287e-17 0)
(3 6.52289e-16 0)
(3 7.11335e-16 0)
(3 5.03522e-16 0)
(3 2.89441e-16 0)
(3 5.26997e-16 0)
(3 2.94258e-16 0)
(3 -6.95729e-17 0)
(3 -4.77161e-16 0)
(3 -6.58246e-16 0)
(3 -4.81728e-12 0)
(3 -7.87568e-07 0)
(3.04124 0.00644726 0)
(1.57252 0.659775 0)
(1.10021 0.756459 0)
(1.11136 0.765373 0)
(1.11713 0.783289 0)
(1.13964 0.795264 0)
(1.17361 0.806074 0)
(1.2278 0.817575 0)
(1.30245 0.82816 0)
(1.39758 0.831392 0)
(3 -9.75346e-17 0)
(3 -2.57795e-16 0)
(3 -5.61455e-17 0)
(3 5.0185e-16 0)
(3 1.53624e-16 0)
(3 2.83735e-16 0)
(3 5.60312e-16 0)
(3 8.32871e-16 0)
(3 6.43901e-16 0)
(3 8.10672e-18 0)
(3 -1.67425e-16 0)
(3 -4.53214e-16 0)
(3 -6.20086e-15 0)
(3 -1.50841e-07 0)
(3.0008 3.58782e-05 0)
(2.38893 0.510941 0)
(1.20578 0.789031 0)
(1.13557 0.791933 0)
(1.14879 0.795547 0)
(1.17683 0.805379 0)
(1.21683 0.81694 0)
(1.26953 0.827506 0)
(1.33805 0.834346 0)
(1.41877 0.834226 0)
(3 -8.51259e-17 0)
(3 1.90432e-16 0)
(3 7.73863e-17 0)
(3 -6.67342e-17 0)
(3 2.0917e-16 0)
(3 6.61002e-16 0)
(3 1.08207e-15 0)
(3 7.13295e-16 0)
(3 6.38387e-16 0)
(3 6.40417e-16 0)
(3 5.53518e-16 0)
(3 7.28615e-16 0)
(3 8.70208e-16 0)
(3 -4.71981e-09 0)
(3.00002 -5.55111e-06 0)
(3.05768 0.072494 0)
(1.56672 0.776467 0)
(1.18524 0.786259 0)
(1.19838 0.793977 0)
(1.22118 0.806085 0)
(1.25884 0.817387 0)
(1.30874 0.826779 0)
(1.37187 0.832465 0)
(1.44347 0.832282 0)
(3 3.21503e-16 0)
(3 5.8267e-16 0)
(3 5.73206e-16 0)
(3 8.08261e-17 0)
(3 2.67744e-16 0)
(3 3.70795e-16 0)
(3 3.06833e-16 0)
(3 1.74781e-16 0)
(3 1.62785e-16 0)
(3 5.43542e-16 0)
(3 8.40982e-16 0)
(3 1.18281e-15 0)
(3 1.40214e-15 0)
(3 -1.70819e-11 0)
(3 -1.39255e-06 0)
(3.00817 0.0013805 0)
(2.29404 0.631183 0)
(1.26357 0.848375 0)
(1.22274 0.83351 0)
(1.25558 0.832982 0)
(1.28963 0.837623 0)
(1.33786 0.842565 0)
(1.39676 0.846764 0)
(1.46025 0.843843 0)
(3 2.44373e-16 0)
(3 2.17696e-16 0)
(3 -4.72878e-17 0)
(3 -3.21273e-17 0)
(3 -1.4165e-16 0)
(3 -1.60711e-16 0)
(3 -3.1594e-16 0)
(3 -1.43419e-16 0)
(3 -7.08218e-17 0)
(3 -1.04496e-16 0)
(3 -1.65507e-16 0)
(3 1.79517e-16 0)
(3 8.90656e-16 0)
(3 -6.07513e-15 0)
(3 -1.18092e-07 0)
(3.00003 9.51997e-06 0)
(3.03923 0.117811 0)
(1.62671 0.827385 0)
(1.26856 0.830857 0)
(1.30293 0.832543 0)
(1.33029 0.837616 0)
(1.37403 0.842995 0)
(1.42747 0.845702 0)
(1.47069 0.835861 0)
(3 9.89696e-18 0)
(3 -7.74776e-17 0)
(3 3.06696e-17 0)
(3 6.64285e-17 0)
(3 2.18398e-16 0)
(3 5.94398e-16 0)
(3 6.75116e-16 0)
(3 3.37001e-16 0)
(3 2.00975e-16 0)
(3 -4.12895e-16 0)
(3 -7.09326e-16 0)
(3 2.2055e-16 0)
(3 2.19073e-16 0)
(3 9.46909e-16 0)
(3 -1.42066e-09 0)
(3 -1.08783e-07 0)
(3.01062 0.00344716 0)
(2.3707 0.637539 0)
(1.35459 0.885613 0)
(1.3226 0.873077 0)
(1.36133 0.866663 0)
(1.40106 0.86794 0)
(1.43242 0.861626 0)
(1.44944 0.812593 0)
(3 -1.39085e-16 0)
(3 -2.74541e-16 0)
(3 -1.21971e-16 0)
(3 -1.37324e-16 0)
(3 3.20421e-16 0)
(3 7.08902e-16 0)
(3 1.1893e-15 0)
(3 1.02476e-15 0)
(3 3.69977e-16 0)
(3 1.01685e-16 0)
(3 4.72725e-16 0)
(3 2.27351e-16 0)
(3 1.40387e-16 0)
(3 5.53408e-16 0)
(3 -3.17563e-12 0)
(3 -2.6786e-08 0)
(3.00005 4.22101e-05 0)
(3.03298 0.10536 0)
(1.75674 0.836195 0)
(1.35812 0.877221 0)
(1.41077 0.876822 0)
(1.42989 0.877266 0)
(1.41049 0.81501 0)
(1.38901 0.716209 0)
(3 -6.7137e-17 0)
(3 -2.34205e-16 0)
(3 -2.22213e-16 0)
(3 1.94102e-17 0)
(3 1.04022e-16 0)
(3 2.26898e-16 0)
(3 2.48853e-16 0)
(3 3.2219e-16 0)
(3 1.83367e-17 0)
(3 6.9831e-17 0)
(3 -6.94022e-17 0)
(3 -9.13265e-16 0)
(3 -6.56587e-16 0)
(3 -2.47192e-16 0)
(3 -1.04127e-15 0)
(3 -2.48738e-09 0)
(3 2.47148e-08 0)
(3.00629 0.00423725 0)
(2.59439 0.526487 0)
(1.51729 0.916527 0)
(1.43725 0.920231 0)
(1.40568 0.862172 0)
(1.33987 0.730647 0)
(1.33486 0.626154 0)
(3 -4.83928e-17 0)
(3 3.46387e-16 0)
(3 6.47063e-16 0)
(3 5.86371e-16 0)
(3 6.84629e-17 0)
(3 -1.07519e-16 0)
(3 -3.6562e-16 0)
(3 -5.96834e-17 0)
(3 4.64909e-17 0)
(3 -5.77225e-16 0)
(3 -1.03064e-15 0)
(3 -8.45319e-16 0)
(3 -9.28796e-16 0)
(3 -4.47606e-16 0)
(3 2.81519e-16 0)
(3 -9.69899e-11 0)
(3 -9.46344e-11 0)
(3.00002 4.49547e-05 0)
(3.02718 0.0538589 0)
(2.02606 0.785474 0)
(1.48043 0.956016 0)
(1.30057 0.754042 0)
(1.28542 0.638483 0)
(1.32361 0.57249 0)
(3 1.89741e-17 0)
(3 1.13047e-16 0)
(3 1.32754e-17 0)
(3 -8.32196e-18 0)
(3 -2.30643e-16 0)
(3 -3.45863e-16 0)
(3 -2.40367e-16 0)
(3 -1.97178e-16 0)
(3 -4.6809e-16 0)
(3 -1.102e-15 0)
(3 -1.26467e-15 0)
(3 -5.09279e-16 0)
(3 2.24141e-16 0)
(3 1.90201e-16 0)
(3 5.33376e-16 0)
(3 -8.3278e-13 0)
(3 -2.96974e-11 0)
(3 3.36724e-08 0)
(3.00146 0.00235523 0)
(2.85006 0.309132 0)
(1.59844 0.83744 0)
(1.22134 0.613737 0)
(1.26711 0.582839 0)
(1.32465 0.552528 0)
(3 4.7168e-17 0)
(3 -4.912e-16 0)
(3 -5.26954e-16 0)
(3 -3.16165e-16 0)
(3 1.19393e-16 0)
(3 -4.46854e-17 0)
(3 -3.69576e-17 0)
(3 -2.95769e-16 0)
(3 -9.17998e-16 0)
(3 -9.54099e-16 0)
(3 -7.90598e-16 0)
(3 -7.14105e-16 0)
(3 -4.10201e-16 0)
(3 2.57324e-16 0)
(3 7.9709e-16 0)
(3 -1.67271e-15 0)
(3 -3.8688e-12 0)
(3 2.28511e-12 0)
(3 1.43339e-05 0)
(3.01614 0.0159467 0)
(1.55634 0.466438 0)
(1.12498 0.506833 0)
(1.23454 0.51332 0)
(1.31198 0.513018 0)
(3 -7.46364e-17 0)
(3 -2.81326e-16 0)
(3 -2.32492e-16 0)
(3 -1.75016e-16 0)
(3 -2.16868e-16 0)
(3 -1.61883e-16 0)
(3 -4.99144e-16 0)
(3 -1.08439e-16 0)
(3 -1.56164e-17 0)
(3 3.05604e-16 0)
(3 1.27652e-16 0)
(3 -3.29453e-17 0)
(3 2.26854e-16 0)
(3 8.69919e-16 0)
(3 9.65104e-16 0)
(3 5.74707e-16 0)
(3 -2.23389e-13 0)
(3 -2.37237e-13 0)
(3 1.71738e-08 0)
(3.00039 0.000161886 0)
(1.48838 0.243692 0)
(0.941841 0.431094 0)
(1.10138 0.470599 0)
(1.22179 0.491905 0)
(3 6.77133e-17 0)
(3 -3.84531e-16 0)
(3 -4.66209e-16 0)
(3 -5.77275e-16 0)
(3 -7.28704e-16 0)
(3 -5.4155e-16 0)
(3 -2.7486e-16 0)
(3 -1.52874e-17 0)
(3 7.87012e-16 0)
(3 8.80701e-16 0)
(3 5.26019e-16 0)
(3 -4.09668e-16 0)
(3 -5.07084e-16 0)
(3 -1.04267e-16 0)
(3 6.82152e-17 0)
(3 6.36318e-16 0)
(3 -1.21741e-15 0)
(3 -7.71764e-14 0)
(3 7.42515e-12 0)
(3 9.37348e-08 0)
(1.56158 0.219319 0)
(0.851592 0.3343 0)
(0.934987 0.358053 0)
(1.05308 0.387024 0)
(3 2.12623e-16 0)
(3 3.93665e-16 0)
(3 3.86526e-16 0)
(3 -4.46587e-16 0)
(3 -5.96654e-16 0)
(3 -4.70623e-16 0)
(3 3.74517e-16 0)
(3 6.3689e-16 0)
(3 4.39992e-16 0)
(3 -9.62207e-18 0)
(3 -1.83286e-16 0)
(3 -4.18456e-16 0)
(3 -1.46949e-15 0)
(3 -2.18562e-15 0)
(3 -2.22002e-15 0)
(3 -1.10293e-15 0)
(3 -1.19129e-16 0)
(3 -1.12044e-14 0)
(3 -1.04745e-14 0)
(3 3.49733e-13 0)
(1.75148 0.261339 0)
(0.848705 0.281019 0)
(0.84348 0.284875 0)
(0.916841 0.303902 0)
(3 6.49687e-17 0)
(3 3.47293e-16 0)
(3 6.62549e-16 0)
(3 4.46644e-16 0)
(3 2.62092e-16 0)
(3 7.60074e-17 0)
(3 -4.00809e-16 0)
(3 -1.2282e-16 0)
(3 -3.86254e-16 0)
(3 -5.59452e-16 0)
(3 -4.70512e-16 0)
(3 -1.75582e-16 0)
(3 -8.83958e-16 0)
(3 -2.32e-15 0)
(3 -2.41911e-15 0)
(3 -2.38256e-15 0)
(3 -1.7945e-15 0)
(3 -9.38512e-16 0)
(3 -2.82218e-15 0)
(3 -2.84196e-15 0)
(2.00833 0.268435 0)
(0.86845 0.273058 0)
(0.822589 0.25514 0)
(0.867076 0.255746 0)
(3 -1.98349e-16 0)
(3 -1.77333e-16 0)
(3 -3.59518e-16 0)
(3 3.02004e-16 0)
(3 5.69721e-16 0)
(3 6.76982e-16 0)
(3 -2.60985e-16 0)
(3 -5.24446e-16 0)
(3 -8.20305e-16 0)
(3 -8.34044e-16 0)
(3 -4.71321e-16 0)
(3 -1.73001e-17 0)
(3 -7.34028e-16 0)
(3 -1.28804e-15 0)
(3 -7.28655e-16 0)
(3 -3.96138e-16 0)
(3 -2.52468e-16 0)
(3 2.99159e-16 0)
(3 1.54121e-16 0)
(3 -2.55845e-15 0)
(2.30716 0.250614 0)
(0.901409 0.266579 0)
(0.828684 0.225998 0)
(0.875597 0.217367 0)
(3 -9.05051e-17 0)
(3 2.81603e-16 0)
(3 2.56663e-16 0)
(3 1.229e-16 0)
(3 2.44571e-16 0)
(3 6.36889e-16 0)
(3 3.21542e-16 0)
(3 -3.19867e-16 0)
(3 -2.59541e-16 0)
(3 8.5839e-17 0)
(3 2.90465e-16 0)
(3 1.80727e-16 0)
(3 7.02551e-17 0)
(3 -1.06577e-16 0)
(3 -2.58317e-16 0)
(3 9.83704e-17 0)
(3 6.67813e-16 0)
(3 5.88321e-16 0)
(3 -2.74735e-16 0)
(3 -1.95174e-15 0)
(2.63011 0.204885 0)
(0.966851 0.247357 0)
(0.852984 0.207573 0)
(0.902035 0.201494 0)
(3 1.7842e-16 0)
(3 2.2597e-16 0)
(3 4.17061e-16 0)
(3 -7.38829e-17 0)
(3 5.59275e-17 0)
(3 4.97774e-17 0)
(3 7.00329e-17 0)
(3 -4.58282e-16 0)
(3 -6.48337e-17 0)
(3 4.22173e-16 0)
(3 1.141e-15 0)
(3 8.33253e-16 0)
(3 1.07416e-15 0)
(3 4.6682e-16 0)
(3 -8.5406e-16 0)
(3 -7.5645e-16 0)
(3 4.53605e-16 0)
(3 2.036e-16 0)
(3 -1.66514e-16 0)
(3 -1.13916e-15 0)
(2.88281 0.0779967 0)
(1.04875 0.194743 0)
(0.866307 0.177595 0)
(0.917461 0.17619 0)
(3 1.18755e-16 0)
(3 7.10776e-17 0)
(3 -2.1284e-16 0)
(3 -6.01231e-16 0)
(3 -8.29539e-16 0)
(3 -1.33753e-15 0)
(3 -6.30158e-16 0)
(3 -1.82265e-16 0)
(3 7.93094e-17 0)
(3 -7.11443e-17 0)
(3 -4.71823e-16 0)
(3 -1.48071e-16 0)
(3 -3.1544e-16 0)
(3 8.73427e-16 0)
(3 1.44221e-15 0)
(3 6.52043e-16 0)
(3 -5.53084e-16 0)
(3 -7.19806e-16 0)
(3 -9.53365e-16 0)
(3 -1.47339e-15 0)
(2.91362 -0.000630911 0)
(1.05973 0.133665 0)
(0.846957 0.141551 0)
(0.901231 0.142381 0)
(3 -2.45579e-17 0)
(3 -5.40529e-17 0)
(3 -4.94524e-16 0)
(3 -7.26772e-16 0)
(3 -1.03607e-15 0)
(3 -1.30466e-15 0)
(3 -9.33655e-16 0)
(3 -5.81745e-16 0)
(3 -4.36613e-16 0)
(3 -4.04516e-16 0)
(3 -8.08501e-16 0)
(3 -8.81089e-16 0)
(3 -3.5572e-16 0)
(3 6.11719e-16 0)
(3 1.04952e-15 0)
(3 3.08476e-16 0)
(3 -1.8241e-15 0)
(3 -2.50516e-15 0)
(3 -3.09007e-15 0)
(3 -2.78512e-15 0)
(2.92656 -0.00367773 0)
(1.05531 0.0994489 0)
(0.811997 0.117421 0)
(0.863257 0.119735 0)
(3 -7.29282e-17 0)
(3 -5.49957e-16 0)
(3 -6.18026e-16 0)
(3 -4.50044e-16 0)
(3 -2.50241e-16 0)
(3 2.66695e-17 0)
(3 -5.69524e-16 0)
(3 -6.89264e-16 0)
(3 -8.39684e-16 0)
(3 -4.88428e-16 0)
(3 -3.83601e-16 0)
(3 -5.57506e-16 0)
(3 7.81551e-17 0)
(3 1.16508e-16 0)
(3 2.26013e-16 0)
(3 8.85724e-17 0)
(3 -8.25238e-16 0)
(3 -1.50158e-15 0)
(3 -1.84834e-15 0)
(3 -1.75416e-15 0)
(2.94707 -0.00385717 0)
(1.06257 0.0863693 0)
(0.799235 0.0849551 0)
(0.842095 0.0869662 0)
(3 -3.64677e-17 0)
(3 -2.3929e-16 0)
(3 2.05273e-16 0)
(3 2.28637e-16 0)
(3 -2.5962e-17 0)
(3 1.58176e-16 0)
(3 3.20374e-16 0)
(3 2.46985e-16 0)
(3 6.08536e-16 0)
(3 4.26086e-16 0)
(3 -4.26068e-17 0)
(3 -6.39748e-17 0)
(3 5.25856e-16 0)
(3 5.33769e-16 0)
(3 7.15201e-17 0)
(3 1.43932e-16 0)
(3 6.15222e-17 0)
(3 4.6036e-17 0)
(3 -7.72803e-17 0)
(3 -1.60504e-16 0)
(2.95563 -0.00382011 0)
(1.08366 0.0695807 0)
(0.806073 0.0602652 0)
(0.84386 0.0594986 0)
(3 -2.04926e-16 0)
(3 1.78416e-16 0)
(3 1.39557e-16 0)
(3 1.60812e-16 0)
(3 2.08168e-16 0)
(3 1.38498e-17 0)
(3 3.26924e-16 0)
(3 1.01424e-15 0)
(3 1.52332e-15 0)
(3 1.37997e-15 0)
(3 2.70703e-16 0)
(3 2.47929e-16 0)
(3 9.3069e-16 0)
(3 8.83507e-16 0)
(3 6.84639e-16 0)
(3 1.05586e-16 0)
(3 -2.13751e-16 0)
(3 -1.88563e-16 0)
(3 -2.56646e-16 0)
(3 -4.44471e-17 0)
(2.97985 0.00406021 0)
(1.10906 0.0439172 0)
(0.814246 0.0369181 0)
(0.850794 0.0361708 0)
(3 -7.23601e-17 0)
(3 -8.79576e-17 0)
(3 -2.67319e-16 0)
(3 2.93572e-17 0)
(3 3.33188e-16 0)
(3 3.54162e-16 0)
(3 1.315e-16 0)
(3 7.93297e-16 0)
(3 9.60912e-16 0)
(3 9.12412e-16 0)
(3 5.63432e-16 0)
(3 6.74878e-16 0)
(3 5.4512e-16 0)
(3 1.04878e-15 0)
(3 1.31981e-15 0)
(3 9.70207e-16 0)
(3 4.71271e-16 0)
(3 2.70111e-16 0)
(3 1.69418e-16 0)
(3 6.48811e-17 0)
(2.99468 0.000572433 0)
(1.11622 0.0109831 0)
(0.812449 0.0109416 0)
(0.84802 0.0115407 0)
(1.50603 1.27388 0)
(1.94674 1.32492 0)
(2.18763 1.37751 0)
(2.4415 0.755832 0)
(2.61177 0.260943 0)
(2.64479 -0.0465419 0)
(2.5579 -0.195138 0)
(2.40471 -0.30858 0)
(2.3351 -0.337964 0)
(2.41417 -0.326342 0)
(2.51152 -0.273891 0)
(2.3661 -0.172929 0)
(1.05386 -0.0437456 0)
(0.721532 0.0229181 0)
(0.648929 0.0349802 0)
(0.620843 0.0305409 0)
(0.590226 0.0240007 0)
(0.533283 0.0191622 0)
(0.493065 0.0159602 0)
(0.489767 0.0128933 0)
(0.498458 0.00808897 0)
(0.501563 0.00303391 0)
(0.500611 -0.00167483 0)
(0.504485 -0.0055475 0)
(0.517043 -0.00897549 0)
(0.534035 -0.0117958 0)
(0.548957 -0.0140054 0)
(0.563853 -0.0157185 0)
(0.583043 -0.0174446 0)
(0.6077 -0.0193818 0)
(0.63373 -0.0210604 0)
(0.658492 -0.021847 0)
(0.681881 -0.0216451 0)
(0.707003 -0.0209852 0)
(0.734811 -0.0206753 0)
(0.763705 -0.0208138 0)
(0.790956 -0.0209537 0)
(0.815113 -0.0208383 0)
(0.837124 -0.0204564 0)
(0.860053 -0.0200215 0)
(0.885691 -0.0198172 0)
(0.913302 -0.019921 0)
(0.940996 -0.0201107 0)
(0.967378 -0.0200456 0)
(0.992512 -0.0194862 0)
(1.01758 -0.0185905 0)
(1.04378 -0.017913 0)
(1.07229 -0.0178247 0)
(1.10335 -0.0180868 0)
(1.1348 -0.0182913 0)
(1.164 -0.0176634 0)
(1.19003 -0.0164867 0)
(1.21394 -0.015248 0)
(1.23752 -0.0142315 0)
(1.26174 -0.0133861 0)
(1.28652 -0.0124784 0)
(1.31099 -0.0112228 0)
(1.33442 -0.00970626 0)
(1.35727 -0.00870566 0)
(1.38162 -0.00846242 0)
(1.40913 -0.00849577 0)
(1.43728 -0.00928283 0)
(1.46001 -0.00961747 0)
(1.47915 -0.00909446 0)
(1.49666 -0.00661598 0)
(1.51361 -0.00346638 0)
(1.53114 -0.00190967 0)
(1.55168 -0.00116474 0)
(1.57667 -0.00134707 0)
(1.59806 -0.00155626 0)
(1.61565 -0.00143144 0)
(1.63284 -0.00095166 0)
(1.64934 -0.000137691 0)
(1.66573 0.000890711 0)
(1.68273 0.00162499 0)
(1.7 0.00265398 0)
(1.71595 0.00311113 0)
(1.73022 0.00228027 0)
(1.72702 -0.000969462 0)
(1.67872 -0.00620593 0)
(1.35383 -0.00514593 0)
(1.27608 -0.00432519 0)
(1.2873 -0.00501422 0)
(1.30542 -0.00594508 0)
(1.316 -0.00586224 0)
(1.32461 -0.00505274 0)
(1.33086 -0.0036977 0)
(1.33563 -0.00237561 0)
(1.34004 -0.00174885 0)
(1.34543 -0.00196698 0)
(1.3523 -0.00282469 0)
(1.35922 -0.0035058 0)
(1.3647 -0.00326322 0)
(1.36882 -0.0020402 0)
(1.3721 -0.000482485 0)
(1.37733 -0.000191403 0)
(1.76681 1.09004 0)
(2.28684 0.821536 0)
(2.49898 0.510177 0)
(2.63485 0.0725953 0)
(2.72166 -0.274975 0)
(2.74989 -0.49947 0)
(2.73536 -0.621735 0)
(2.68533 -0.627128 0)
(2.64852 -0.568457 0)
(2.5849 -0.474421 0)
(2.56763 -0.345879 0)
(2.64024 -0.198019 0)
(1.11058 0.105022 0)
(0.69709 0.108273 0)
(0.639234 0.0959385 0)
(0.622991 0.0835887 0)
(0.601638 0.0658501 0)
(0.562005 0.0390208 0)
(0.531115 0.0225286 0)
(0.527232 0.0162843 0)
(0.531851 0.00690051 0)
(0.532208 -0.00514231 0)
(0.533569 -0.0163963 0)
(0.541982 -0.0253109 0)
(0.55892 -0.0319607 0)
(0.580064 -0.0360187 0)
(0.598879 -0.0367027 0)
(0.616243 -0.0360077 0)
(0.635944 -0.0365879 0)
(0.659845 -0.0391268 0)
(0.686736 -0.0421653 0)
(0.713654 -0.0431081 0)
(0.739787 -0.040201 0)
(0.764993 -0.0342533 0)
(0.789796 -0.0286396 0)
(0.814888 -0.0269649 0)
(0.840273 -0.0287477 0)
(0.864804 -0.0305888 0)
(0.88824 -0.0304672 0)
(0.911758 -0.0285118 0)
(0.936305 -0.0262237 0)
(0.961885 -0.0254677 0)
(0.9881 -0.0265865 0)
(1.01444 -0.0278002 0)
(1.04048 -0.0269948 0)
(1.06598 -0.0233991 0)
(1.09109 -0.0180809 0)
(1.11631 -0.0140349 0)
(1.1427 -0.0139197 0)
(1.17152 -0.0170721 0)
(1.2016 -0.0205359 0)
(1.22861 -0.0207118 0)
(1.25134 -0.0187095 0)
(1.27249 -0.0170765 0)
(1.29428 -0.0166299 0)
(1.31771 -0.0167437 0)
(1.34255 -0.0157751 0)
(1.36713 -0.012185 0)
(1.38981 -0.00615393 0)
(1.41121 -0.000796922 0)
(1.43252 2.30499e-05 0)
(1.45561 -0.00484811 0)
(1.48033 -0.0120684 0)
(1.50181 -0.014864 0)
(1.51978 -0.0139111 0)
(1.53675 -0.00768666 0)
(1.55382 0.000509526 0)
(1.57254 0.0064588 0)
(1.59182 0.00796947 0)
(1.61124 0.00514705 0)
(1.62925 0.00267649 0)
(1.64668 0.00163217 0)
(1.6644 0.00171911 0)
(1.68141 0.00374812 0)
(1.69659 0.00596686 0)
(1.71039 0.00495402 0)
(1.72559 0.00240126 0)
(1.73462 -0.00391448 0)
(1.72874 -0.0162436 0)
(1.69405 -0.0349193 0)
(1.39252 -0.015315 0)
(1.30185 -0.00353073 0)
(1.30875 -0.000358419 0)
(1.32293 -0.000660978 0)
(1.33192 -0.00429516 0)
(1.34185 -0.00687946 0)
(1.35014 -0.00624541 0)
(1.35562 -0.00328527 0)
(1.35938 0.000333924 0)
(1.36207 0.00196862 0)
(1.36511 -5.95174e-05 0)
(1.37177 -0.00556602 0)
(1.38087 -0.00896666 0)
(1.3884 -0.0076874 0)
(1.39221 -0.00253555 0)
(1.395 0.00610695 0)
(1.67768 1.03283 0)
(2.07067 0.858107 0)
(2.30934 0.685326 0)
(2.48894 0.426087 0)
(2.63232 0.0949148 0)
(2.67688 -0.0940606 0)
(2.72897 -0.158357 0)
(2.77185 -0.17664 0)
(2.73987 -0.323547 0)
(2.71663 -0.380779 0)
(2.70911 -0.426661 0)
(2.81041 -0.506649 0)
(1.74407 0.129313 0)
(0.880723 0.189918 0)
(0.742231 0.151138 0)
(0.7018 0.126968 0)
(0.671127 0.0844656 0)
(0.647731 0.0368683 0)
(0.64081 0.0196329 0)
(0.644699 0.0125042 0)
(0.647053 -0.000435333 0)
(0.648255 -0.0162889 0)
(0.654191 -0.0294818 0)
(0.667458 -0.0386369 0)
(0.687366 -0.0465322 0)
(0.710407 -0.0541313 0)
(0.733276 -0.0602382 0)
(0.755109 -0.0618291 0)
(0.776249 -0.0599798 0)
(0.79761 -0.0587633 0)
(0.819825 -0.0612405 0)
(0.843872 -0.0668983 0)
(0.87068 -0.0726882 0)
(0.899511 -0.0750082 0)
(0.927052 -0.0716533 0)
(0.950211 -0.0647646 0)
(0.970134 -0.0600469 0)
(0.989994 -0.0592784 0)
(1.01167 -0.0609886 0)
(1.03576 -0.0631702 0)
(1.06148 -0.0642288 0)
(1.08678 -0.0635363 0)
(1.1101 -0.062216 0)
(1.1322 -0.0621088 0)
(1.15475 -0.0634092 0)
(1.17887 -0.0645933 0)
(1.2042 -0.0632617 0)
(1.22838 -0.0581321 0)
(1.25098 -0.0514735 0)
(1.27414 -0.046661 0)
(1.29862 -0.0447208 0)
(1.3238 -0.0440619 0)
(1.3461 -0.04168 0)
(1.36485 -0.0381967 0)
(1.38286 -0.0352599 0)
(1.40133 -0.0341489 0)
(1.42145 -0.0350388 0)
(1.44389 -0.0365063 0)
(1.46713 -0.0353731 0)
(1.48714 -0.0306094 0)
(1.50531 -0.0237138 0)
(1.5242 -0.0176527 0)
(1.5422 -0.0158035 0)
(1.55911 -0.0177708 0)
(1.57651 -0.0202764 0)
(1.59339 -0.0203927 0)
(1.61074 -0.0172576 0)
(1.62854 -0.010792 0)
(1.64549 -0.00404195 0)
(1.66131 0.000830276 0)
(1.67625 0.0031359 0)
(1.69165 0.00359641 0)
(1.70833 0.00357437 0)
(1.72543 0.00410827 0)
(1.74105 0.00709532 0)
(1.75106 0.00882939 0)
(1.75933 0.0046769 0)
(1.76007 -0.00472364 0)
(1.74696 -0.0244603 0)
(1.7226 -0.0624627 0)
(1.48462 -0.0249627 0)
(1.36912 -0.0147902 0)
(1.36794 -0.011313 0)
(1.38101 -0.00703978 0)
(1.38775 -0.00571097 0)
(1.39371 -0.00868342 0)
(1.40193 -0.0144609 0)
(1.41072 -0.0166408 0)
(1.41567 -0.0151198 0)
(1.41785 -0.0115914 0)
(1.4178 -0.00744429 0)
(1.42007 -0.00686486 0)
(1.42495 -0.0110585 0)
(1.43342 -0.0169066 0)
(1.44195 -0.0177869 0)
(1.44533 -0.0127083 0)
(1.60015 0.991862 0)
(1.91083 0.863985 0)
(2.15507 0.688944 0)
(2.30414 0.579656 0)
(2.42383 0.395635 0)
(2.56922 0.135727 0)
(2.63999 -0.0475637 0)
(2.70388 -0.146277 0)
(2.74046 -0.221518 0)
(2.7327 -0.357925 0)
(2.74002 -0.444144 0)
(2.75655 -0.478989 0)
(2.68467 -0.304314 0)
(1.25355 0.298004 0)
(0.957039 0.222184 0)
(0.908323 0.140827 0)
(0.864267 0.0878714 0)
(0.846948 0.0454337 0)
(0.854037 0.0190085 0)
(0.863393 -0.00201815 0)
(0.867892 -0.0162546 0)
(0.874354 -0.0233715 0)
(0.883409 -0.0264158 0)
(0.896808 -0.0301817 0)
(0.914462 -0.0358999 0)
(0.934505 -0.0435353 0)
(0.956565 -0.0526546 0)
(0.980666 -0.0614974 0)
(1.00443 -0.0663734 0)
(1.0246 -0.0659863 0)
(1.04197 -0.0628779 0)
(1.05894 -0.0607926 0)
(1.07834 -0.0622106 0)
(1.10261 -0.0671629 0)
(1.13088 -0.0717957 0)
(1.15572 -0.0703123 0)
(1.17306 -0.0638771 0)
(1.18836 -0.0578197 0)
(1.20519 -0.0540534 0)
(1.2248 -0.0531055 0)
(1.24796 -0.0543963 0)
(1.27301 -0.055628 0)
(1.29594 -0.0544514 0)
(1.3147 -0.0515115 0)
(1.33164 -0.0491612 0)
(1.34933 -0.0486383 0)
(1.36944 -0.0494532 0)
(1.39062 -0.0488033 0)
(1.40901 -0.0451206 0)
(1.42597 -0.0405952 0)
(1.44412 -0.0368297 0)
(1.46443 -0.0345034 0)
(1.48498 -0.0322821 0)
(1.50226 -0.0295631 0)
(1.51765 -0.0252194 0)
(1.53169 -0.019035 0)
(1.54709 -0.0147309 0)
(1.56366 -0.0130761 0)
(1.58196 -0.0139639 0)
(1.60036 -0.0162984 0)
(1.61622 -0.0167975 0)
(1.63148 -0.0144211 0)
(1.64491 -0.00863512 0)
(1.65721 -0.00203413 0)
(1.66967 0.00226369 0)
(1.6835 0.00400913 0)
(1.6992 0.00436865 0)
(1.71551 0.00427988 0)
(1.73192 0.00504311 0)
(1.74692 0.00770339 0)
(1.75956 0.0123281 0)
(1.77061 0.0161189 0)
(1.78266 0.0180645 0)
(1.79663 0.0164577 0)
(1.81091 0.0139921 0)
(1.82028 0.0120943 0)
(1.82169 0.00477038 0)
(1.81339 -0.00653258 0)
(1.79048 -0.0300303 0)
(1.75793 -0.0911428 0)
(1.62307 -0.0638631 0)
(1.48525 -0.00623931 0)
(1.46786 -0.0132314 0)
(1.47966 -0.0190632 0)
(1.48765 -0.013777 0)
(1.49012 -0.00452909 0)
(1.49481 -0.000923163 0)
(1.50114 -0.00283182 0)
(1.50806 -0.00666037 0)
(1.5112 -0.00729219 0)
(1.51228 -0.00471973 0)
(1.51063 0.000606656 0)
(1.51096 0.00382525 0)
(1.51433 0.00274236 0)
(1.52149 -0.00464388 0)
(1.52873 -0.00973769 0)
(1.56133 0.931365 0)
(1.78923 0.862167 0)
(2.01662 0.72226 0)
(2.18586 0.582872 0)
(2.29053 0.487001 0)
(2.37965 0.353546 0)
(2.50091 0.184302 0)
(2.59497 0.0206798 0)
(2.64205 -0.0685185 0)
(2.66154 -0.0842955 0)
(2.64455 -0.145007 0)
(2.67388 -0.297993 0)
(2.67763 -0.359177 0)
(2.10672 0.0415598 0)
(1.24809 0.263449 0)
(1.17169 0.176125 0)
(1.15424 0.0839227 0)
(1.14213 0.0481666 0)
(1.13983 0.0424364 0)
(1.13728 0.0264205 0)
(1.14018 -0.00293914 0)
(1.14876 -0.0273158 0)
(1.1617 -0.0416924 0)
(1.17509 -0.0499486 0)
(1.18609 -0.0572631 0)
(1.19744 -0.066572 0)
(1.2116 -0.0763304 0)
(1.23056 -0.0858847 0)
(1.25276 -0.0934072 0)
(1.27206 -0.0967821 0)
(1.2854 -0.0965561 0)
(1.29583 -0.0946192 0)
(1.30703 -0.0917226 0)
(1.32141 -0.0895434 0)
(1.34142 -0.0904227 0)
(1.36495 -0.092262 0)
(1.38275 -0.0901613 0)
(1.39501 -0.0866365 0)
(1.40789 -0.0831647 0)
(1.42253 -0.0800558 0)
(1.4396 -0.0785357 0)
(1.45947 -0.0796908 0)
(1.48037 -0.0814439 0)
(1.49714 -0.0803477 0)
(1.50984 -0.0774863 0)
(1.52209 -0.0739594 0)
(1.53595 -0.0700622 0)
(1.55187 -0.0654808 0)
(1.56596 -0.060724 0)
(1.57886 -0.0564836 0)
(1.59331 -0.0522484 0)
(1.6098 -0.0477715 0)
(1.62647 -0.0439516 0)
(1.64139 -0.0424082 0)
(1.65526 -0.0405209 0)
(1.66747 -0.0370992 0)
(1.67966 -0.0322316 0)
(1.69355 -0.0274968 0)
(1.70766 -0.0239088 0)
(1.72104 -0.0221893 0)
(1.73357 -0.0213212 0)
(1.74529 -0.0203263 0)
(1.75669 -0.0182371 0)
(1.76795 -0.014881 0)
(1.77897 -0.0100367 0)
(1.79 -0.00472504 0)
(1.80188 -0.000158923 0)
(1.81498 0.00315722 0)
(1.82885 0.00487573 0)
(1.84267 0.006608 0)
(1.85572 0.00970175 0)
(1.8668 0.0151401 0)
(1.87591 0.0217268 0)
(1.88199 0.0249357 0)
(1.89237 0.0210287 0)
(1.89523 0.011975 0)
(1.89188 -0.00478755 0)