/*--------------------------------*- C++ -*----------------------------------*\
  =========                 |
  \\      /  F ield         | OpenFOAM: The Open Source CFD Toolbox
   \\    /   O peration     | Website:  https://openfoam.org
    \\  /    A nd           | Version:  7
     \\/     M anipulation  |
\*---------------------------------------------------------------------------*/
FoamFile
{
    version     2.0;
    format      ascii;
    class       volScalarField;
    location    "12.5";
    object      p;
}
// * * * * * * * * * * * * * * * * * * * * * * * * * * * * * * * * * * * * * //

dimensions      [1 -1 -2 0 0 0 0];

internalField   nonuniform List<scalar> 
4032
(
1
1
1
1
1
1
1
1
1
1
1
1.32777
7.58651
10.6081
10.7409
10.9495
11.1348
11.3121
11.4752
11.6217
11.7518
11.8565
11.9365
11.9955
1
1
1
1
1
1
1
1
1
1
1
1.28886
7.42268
10.5744
10.7281
10.9308
11.1125
11.2851
11.4429
11.5824
11.7042
11.801
11.8722
11.9282
1
1
1
1
1
1
1
1
1
1
1
1.18554
7.12205
10.5454
10.6866
10.8879
11.0698
11.2406
11.3952
11.5292
11.6433
11.7314
11.7889
11.8364
1
1
1
1
1
1
1
1
1
1
1
1.01631
6.62182
10.4934
10.6332
10.8209
10.9928
11.1514
11.2963
11.4238
11.5346
11.6189
11.6673
11.7043
1
1
1
1
1
1
1
1
1
1
1
1.00019
5.94865
10.3163
10.5002
10.6848
10.8601
11.0168
11.1555
11.2696
11.3589
11.4249
11.4589
11.5073
1
1
1
1
1
1
1
1
1
1
1
0.999999
5.10425
10.0849
10.3888
10.558
10.7249
10.8637
10.9818
11.0791
11.157
11.2168
11.229
11.1891
1
1
1
1
1
1
1
1
1
1
1
1
4.13583
9.72962
10.272
10.4291
10.5732
10.6817
10.7643
10.8231
10.8436
10.8076
10.7398
10.6964
1
1
1
1
1
1
1
1
1
1
1
1
3.0896
9.1793
10.1847
10.3223
10.4362
10.5088
10.5418
10.5448
10.4985
10.421
10.2931
10.2815
1
1
1
1
1
1
1
1
1
1
1
1
2.00636
8.31682
10.1425
10.197
10.2875
10.3275
10.3117
10.2509
10.1059
9.8398
9.06293
7.19084
1
1
1
1
1
1
1
1
1
1
1
1
1.12684
7.17951
10.1922
10.0912
10.0872
10.0746
10.017
9.89188
9.65301
9.18159
8.37851
6.32229
1
1
1
1
1
1
1
1
1
1
1
1
1.00155
5.56835
9.58922
9.72482
9.78767
9.76333
9.68764
9.51404
9.21749
8.65483
7.82856
5.884
1
1
1
1
1
1
1
1
1
1
1
1
0.999977
3.6976
9.00835
9.59115
9.61903
9.55372
9.43304
9.20459
8.84687
8.27415
7.37853
5.81022
1
1
1
1
1
1
1
1
1
1
1
1
0.999994
1.96475
8.04911
9.53182
9.44216
9.33103
9.17133
8.90741
8.51366
7.95609
7.05729
5.84895
1
1
1
1
1
1
1
1
1
1
1
1
0.999999
1.09656
6.28804
9.20196
9.18917
9.08969
8.92053
8.64884
8.2604
7.69997
6.87652
5.92912
1
1
1
1
1
1
1
1
1
1
1
1
1
1.0005
3.83738
8.60956
9.04114
8.9364
8.74858
8.43917
8.05391
7.48607
6.76793
5.99232
1
1
1
1
1
1
1
1
1
1
1
1
1
0.999994
1.62176
7.63689
9.0758
8.79641
8.55667
8.24419
7.83208
7.32799
6.71627
6.04891
1
1
1
1
1
1
1
1
1
1
1
1
1
0.999999
1.03384
5.6048
8.64638
8.45881
8.293
8.02277
7.65544
7.20588
6.66977
6.08013
1
1
1
1
1
1
1
1
1
1
1
1
1
1
0.99997
2.80093
7.90687
8.35007
8.20184
7.93404
7.57416
7.13646
6.63158
6.09599
1
1
1
1
1
1
1
1
1
1
1
1
1
1
0.999988
1.22755
6.07897
8.30067
8.11697
7.82833
7.46883
7.05452
6.58618
6.10756
1
1
1
1
1
1
1
1
1
1
1
1
1
1
0.999998
1.00399
3.23444
7.60342
7.99269
7.69697
7.36481
6.97658
6.55548
6.154
1
1
1
1
1
1
1
1
1
1
1
1
1
1
1
1
1.34055
5.98851
7.9635
7.61944
7.29919
6.92221
6.58466
6.37921
1
1
1
1
1
1
1
1
1
1
1
1
1
1
1
1
1.0093
3.12904
7.22044
7.49833
7.18239
6.88136
6.78383
6.91981
1
1
1
1
1
1
1
1
1
1
1
1
1
1
1
1
1.00003
1.31304
5.44593
7.49418
7.18029
7.15423
7.51041
7.82908
1
1
1
1
1
1
1
1
1
1
1
1
1
1
1
1
1
1.00824
2.50774
6.44066
7.22933
7.90059
8.42313
8.58495
1
1
1
1
1
1
1
1
1
1
1
1
1
1
1
1
1
1.00004
1.16569
4.31862
7.71956
9.19072
9.2993
9.03093
1
1
1
1
1
1
1
1
1
1
1
1
1
1
1
1
1
1
1.00288
1.79734
7.91212
10.248
9.70728
9.28629
1
1
1
1
1
1
1
1
1
1
1
1
1
1
1
1
1
1
1.00001
1.05713
7.7465
10.7112
9.94746
9.4906
1
1
1
1
1
1
1
1
1
1
1
1
1
1
1
1
1
1
1
1.00037
6.76034
10.4752
9.79242
9.46919
1
1
1
1
1
1
1
1
1
1
1
1
1
1
1
1
1
1
1
1
5.81448
10.313
9.87188
9.67312
1
1
1
1
1
1
1
1
1
1
1
1
1
1
1
1
1
1
1
1
4.98972
9.93557
9.93632
9.72791
1
1
1
1
1
1
1
1
1
1
1
1
1
1
1
1
1
1
1
1
4.14132
9.62805
9.97443
9.75054
1
1
1
1
1
1
1
1
1
1
1
1
1
1
1
1
1
1
1
1
3.38246
9.34835
10.072
9.82657
1
1
1
1
1
1
1
1
1
1
1
1
1
1
1
1
1
1
1
1
2.73012
9.05402
10.1868
9.88289
1
1
1
1
1
1
1
1
1
1
1
1
1
1
1
1
1
1
1
1
2.21209
8.73392
10.2972
9.9483
1
1
1
1
1
1
1
1
1
1
1
1
1
1
1
1
1
1
1
1
1.81985
8.41897
10.3663
9.99772
1
1
1
1
1
1
1
1
1
1
1
1
1
1
1
1
1
1
1
1
1.58028
8.12206
10.3976
10.0313
1
1
1
1
1
1
1
1
1
1
1
1
1
1
1
1
1
1
1
1
1.45149
7.86221
10.3935
10.0472
1
1
1
1
1
1
1
1
1
1
1
1
1
1
1
1
1
1
1
1
1.37402
7.66904
10.3751
10.0592
1
1
1
1
1
1
1
1
1
1
1
1
1
1
1
1
1
1
1
1
1.32082
7.53211
10.3595
10.0677
1
1
1
1
1
1
1
1
1
1
1
1
1
1
1
1
1
1
1
1
1.29781
7.46678
10.3359
10.0615
1.60841
0.377562
0.160995
0.16606
0.23054
1.06126
2.42179
2.80079
3.28708
3.57454
3.58081
3.6085
3.70446
3.78211
3.83733
3.91289
4.02853
4.15019
4.25243
4.31495
4.35162
4.38333
4.43065
4.4886
4.54153
4.57721
4.59735
4.6101
4.62253
4.63756
4.65395
4.66755
4.67703
4.68507
4.69414
4.70289
4.70578
4.69672
4.67331
4.6431
4.61375
4.58979
4.56904
4.54772
4.51904
4.47673
4.42671
4.37882
4.33867
4.30472
4.27215
4.23377
4.18555
4.13138
4.07808
4.02882
3.98323
3.9353
3.87743
3.81239
3.74951
3.69359
3.64392
3.59366
3.53508
3.47098
3.41007
3.36029
3.33313
3.32688
3.3569
3.51328
3.99031
4.25086
4.27946
4.27819
4.26188
4.23917
4.21328
4.18497
4.15942
4.14171
4.13528
4.13761
4.14233
4.14478
4.14246
4.13711
4.13285
4.13232
4.13568
4.13939
4.13791
4.13105
4.12437
4.12291
2.79217
1.42463
0.824383
0.625577
0.583576
0.82498
2.34148
2.94557
3.31828
3.58621
3.63746
3.63144
3.72431
3.83199
3.91961
3.99062
4.06029
4.12987
4.20418
4.26684
4.30611
4.33248
4.3619
4.40647
4.46264
4.51522
4.55211
4.57204
4.58259
4.59318
4.61046
4.63274
4.65287
4.66266
4.66006
4.65162
4.64652
4.64791
4.6489
4.64069
4.61537
4.57376
4.52855
4.49126
4.46374
4.43972
4.40821
4.36386
4.31299
4.26661
4.22963
4.19935
4.16337
4.11058
4.04946
3.99303
3.94846
3.91349
3.87532
3.82089
3.75622
3.69313
3.63633
3.58576
3.5326
3.4688
3.40465
3.35039
3.31509
3.31017
3.34601
3.4995
3.95028
4.24546
4.28937
4.28387
4.25909
4.23275
4.21307
4.19761
4.18073
4.15962
4.14153
4.12963
4.12575
4.13288
4.14454
4.14864
4.14023
4.12564
4.11312
4.10802
4.11116
4.118
4.12405
4.11973
3.59192
2.46567
1.67949
1.12425
0.944545
0.853577
1.25095
2.6481
3.36409
3.46577
3.56606
3.73701
3.85106
3.91308
3.97118
4.02096
4.03614
4.03728
4.06951
4.13926
4.22653
4.30117
4.34541
4.37671
4.42108
4.48811
4.56162
4.61764
4.64616
4.65204
4.65122
4.66259
4.68715
4.7128
4.72272
4.7091
4.67992
4.65437
4.64635
4.65086
4.65462
4.63583
4.58614
4.52554
4.47149
4.43347
4.40951
4.3866
4.34842
4.2964
4.24472
4.20249
4.16977
4.13186
4.07158
4.00152
3.93783
3.88737
3.85085
3.81689
3.76704
3.70547
3.64298
3.58568
3.53302
3.48284
3.43346
3.38709
3.34878
3.3339
3.34946
3.46712
3.84507
4.23313
4.32417
4.3045
4.26392
4.22069
4.19163
4.1762
4.17798
4.18257
4.1725
4.15222
4.13022
4.12111
4.1252
4.14482
4.16274
4.16234
4.14866
4.12085
4.10141
4.09987
4.11334
4.13744
4.19875
3.16304
2.4934
1.88004
1.38139
1.19179
1.15418
1.58619
2.77938
3.66815
3.78724
3.90184
4.02555
3.99245
3.9416
3.99077
4.04977
4.07577
4.09146
4.14296
4.24287
4.35716
4.44265
4.47709
4.48931
4.50822
4.55123
4.61262
4.66441
4.67936
4.66333
4.64228
4.63638
4.65178
4.67993
4.69871
4.68865
4.65589
4.62182
4.59766
4.5899
4.59253
4.57451
4.52239
4.46352
4.41249
4.37326
4.34697
4.32324
4.28296
4.2299
4.17842
4.13727
4.10658
4.06564
4.01067
3.94546
3.88254
3.83329
3.79316
3.75061
3.69989
3.64168
3.5747
3.5067
3.4489
3.40984
3.38538
3.37684
3.39077
3.42385
3.50523
3.74
4.13206
4.32121
4.3113
4.27326
4.23469
4.1971
4.16216
4.14367
4.14315
4.15441
4.15688
4.15116
4.13369
4.11325
4.10954
4.1194
4.13842
4.14869
4.14779
4.13606
4.11335
4.09977
4.10545
4.65685
3.69166
3.03519
2.51743
1.9931
1.59878
1.39001
1.36254
1.7999
2.84535
3.90899
4.25365
4.14611
4.16016
4.08233
4.10236
4.1924
4.2438
4.24772
4.25745
4.29154
4.36443
4.45452
4.50991
4.51436
4.50512
4.50808
4.53606
4.59058
4.64502
4.66359
4.64697
4.62343
4.61147
4.61962
4.64543
4.66655
4.66104
4.63124
4.59469
4.56408
4.5488
4.54045
4.50217
4.44929
4.39974
4.35633
4.323
4.3025
4.26918
4.21854
4.16478
4.12254
4.08842
4.04651
3.99888
3.94381
3.88415
3.83287
3.78292
3.73277
3.68182
3.63046
3.57611
3.51439
3.45355
3.4094
3.39616
3.40904
3.44887
3.5212
3.58608
3.68867
3.94705
4.20256
4.31756
4.29696
4.24733
4.21178
4.18019
4.1489
4.13509
4.13475
4.14577
4.15602
4.15808
4.14959
4.12605
4.10694
4.10617
4.11495
4.12965
4.13782
4.137
4.12351
4.09459
5.00617
4.15907
3.48002
2.97098
2.49209
2.05059
1.77736
1.49715
1.52049
2.01147
3.29301
4.6946
4.90224
4.5824
4.37836
4.30752
4.35323
4.39596
4.37715
4.34839
4.35883
4.39762
4.47784
4.55859
4.58063
4.57119
4.55738
4.55568
4.58158
4.62848
4.6646
4.66418
4.63967
4.6176
4.61018
4.62121
4.64295
4.64906
4.62467
4.58458
4.54708
4.52197
4.51261
4.47678
4.42442
4.36971
4.32909
4.30049
4.28262
4.24738
4.19962
4.13984
4.09306
4.05954
4.02112
3.97842
3.92988
3.87684
3.81644
3.75371
3.70058
3.65433
3.60486
3.55381
3.50378
3.45688
3.42682
3.43045
3.46982
3.53153
3.62467
3.69117
3.70238
3.77619
3.96661
4.17304
4.29658
4.28929
4.24354
4.18713
4.14296
4.11785
4.11727
4.12747
4.14201
4.15066
4.15299
4.14282
4.11859
4.1059
4.10848
4.11712
4.1305
4.1362
4.13433
4.10876
5.22022
4.48921
3.8474
3.33851
2.87712
2.42012
2.12837
1.88913
1.68856
1.76068
2.55768
4.47209
5.616
5.2703
4.74763
4.4792
4.44628
4.5067
4.52082
4.48969
4.46309
4.47786
4.5339
4.61405
4.63948
4.62943
4.61337
4.60182
4.60472
4.63487
4.67165
4.67332
4.64953
4.62594
4.61418
4.61885
4.64059
4.65169
4.62602
4.58267
4.54636
4.52331
4.51109
4.47243
4.42198
4.36151
4.31815
4.28961
4.2682
4.23618
4.19429
4.14438
4.09445
4.04841
4.00424
3.96204
3.9205
3.8732
3.81797
3.75499
3.69104
3.6355
3.58667
3.5479
3.51447
3.48961
3.4822
3.50852
3.5777
3.64595
3.73259
3.78035
3.75785
3.72873
3.77658
3.91812
4.10325
4.24725
4.27265
4.23676
4.17876
4.12257
4.10133
4.10885
4.12725
4.14517
4.15171
4.14927
4.13382
4.11517
4.1111
4.11527
4.12517
4.13203
4.13046
4.11285
5.39451
4.73054
4.12782
3.63763
3.22194
2.78949
2.44254
2.35243
2.17595
2.1467
2.33452
3.62161
5.43533
5.86461
5.38252
4.91569
4.66084
4.64276
4.66818
4.63878
4.57794
4.54249
4.55754
4.61277
4.64819
4.64491
4.62371
4.60224
4.5899
4.59915
4.62598
4.62692
4.60747
4.58429
4.5721
4.57466
4.59264
4.60149
4.57828
4.53513
4.49677
4.47163
4.45225
4.41496
4.36734
4.30563
4.25958
4.2354
4.21968
4.19344
4.15614
4.11044
4.05442
3.99722
3.95523
3.92207
3.88665
3.84116
3.78768
3.72227
3.65622
3.60146
3.56582
3.54512
3.53799
3.54493
3.56376
3.62772
3.69366
3.74138
3.79146
3.80919
3.78871
3.7385
3.70021
3.73734
3.85644
4.02327
4.15741
4.24871
4.23141
4.18806
4.13503
4.1
4.10359
4.12054
4.14151
4.14925
4.14767
4.13544
4.12138
4.11777
4.11952
4.12495
4.12409
4.11326
5.5003
4.9127
4.34812
3.88867
3.55507
3.21557
2.93068
2.93121
2.92593
2.76062
2.65348
2.91112
4.51453
5.83449
5.86627
5.48439
5.07279
4.88009
4.85827
4.8185
4.73952
4.66055
4.63601
4.66056
4.69193
4.68331
4.65264
4.61303
4.59191
4.5822
4.59411
4.5934
4.57581
4.55351
4.53815
4.53603
4.54746
4.55218
4.52875
4.48591
4.44256
4.41594
4.39563
4.36366
4.32396
4.27036
4.21839
4.19062
4.16919
4.13892
4.10488
4.0666
4.01484
3.95484
3.91035
3.87413
3.83513
3.79402
3.74548
3.68816
3.62425
3.57167
3.55261
3.55427
3.58437
3.62822
3.69144
3.77889
3.80551
3.8118
3.81204
3.81084
3.78867
3.74832
3.69567
3.66751
3.69085
3.79123
3.95838
4.10666
4.20647
4.22601
4.20258
4.1508
4.10653
4.10269
4.11522
4.13764
4.15113
4.15197
4.14406
4.12747
4.11787
4.11535
4.11419
4.1073
5.57474
5.0616
4.56946
4.19463
4.0112
3.82201
3.61532
3.61454
3.59688
3.38401
3.08596
3.06347
3.52442
5.14749
5.96629
5.88073
5.55119
5.21469
5.07872
5.00865
4.91094
4.80662
4.75515
4.75389
4.76894
4.74448
4.69932
4.6449
4.61587
4.59742
4.59691
4.59174
4.57384
4.5516
4.53053
4.52166
4.5231
4.52023
4.49672
4.45748
4.40983
4.38016
4.36184
4.33651
4.30221
4.25867
4.20417
4.16258
4.13142
4.09732
4.06355
4.02912
3.98413
3.92864
3.87626
3.83126
3.78951
3.74906
3.70519
3.66017
3.61118
3.57037
3.57036
3.59761
3.67426
3.74831
3.84154
3.90242
3.89839
3.86379
3.82472
3.8014
3.77527
3.74614
3.70697
3.66257
3.64439
3.66015
3.74499
3.90613
4.06436
4.16824
4.21993
4.20762
4.16096
4.1134
4.10491
4.11624
4.14252
4.15649
4.15508
4.14299
4.12029
4.10725
4.10323
4.09828
5.658
5.26238
4.92024
4.73254
4.72048
4.56093
4.28505
4.16973
4.08925
3.87766
3.60622
3.34809
3.43137
4.12486
5.52679
5.9876
5.88442
5.59978
5.33389
5.19514
5.07886
4.95734
4.88309
4.8558
4.84675
4.80463
4.74599
4.67925
4.64125
4.61762
4.60878
4.59939
4.57993
4.5571
4.52666
4.5062
4.49428
4.48276
4.46066
4.42867
4.38537
4.34829
4.3271
4.30421
4.27489
4.24014
4.19765
4.14659
4.09637
4.05772
4.02769
3.99764
3.9567
3.9051
3.84465
3.78609
3.74424
3.71004
3.67832
3.65359
3.62684
3.62041
3.64312
3.71155
3.79886
3.87053
3.95
3.97034
3.9551
3.91025
3.84797
3.7972
3.76415
3.73997
3.71608
3.6809
3.64646
3.63195
3.64462
3.71443
3.86425
4.02574
4.14514
4.20868
4.20416
4.16239
4.12181
4.11512
4.12689
4.14818
4.15269
4.1476
4.12791
4.10477
4.09651
4.08936
5.8377
5.67158
5.54372
5.48719
5.4234
5.1366
4.78729
4.58928
4.46404
4.31892
4.06641
3.78281
3.65896
3.76493
4.57386
5.68733
5.97642
5.88915
5.65265
5.42662
5.27313
5.12678
5.0045
4.94353
4.9102
4.85919
4.79142
4.71392
4.66047
4.62929
4.61186
4.6004
4.57895
4.55315
4.51458
4.47484
4.44981
4.42899
4.40834
4.38496
4.35425
4.31365
4.28058
4.25298
4.22538
4.19851
4.16744
4.12122
4.05955
4.01496
3.98723
3.95497
3.91435
3.86774
3.80606
3.73708
3.69783
3.67204
3.66184
3.66849
3.68817
3.7227
3.78536
3.87447
3.92018
3.95776
3.98951
3.98958
3.96573
3.92492
3.87274
3.81035
3.76113
3.73433
3.71557
3.69488
3.66496
3.63606
3.62254
3.64012
3.69537
3.82844
3.9899
4.12194
4.18843
4.19196
4.16583
4.1346
4.12496
4.12957
4.13943
4.13965
4.13171
4.11073
4.09295
4.08259
6.35234
6.41586
6.27624
6.14683
5.92183
5.56058
5.20125
4.96017
4.82955
4.71304
4.48908
4.21561
4.00558
3.93236
4.06833
4.89093
5.75057
5.96153
5.89543
5.71509
5.50407
5.31913
5.14162
5.02418
4.96746
4.91397
4.84256
4.76185
4.68543
4.64152
4.6136
4.59937
4.57468
4.54304
4.49809
4.4393
4.39854
4.37123
4.35095
4.33525
4.31354
4.27637
4.22772
4.18838
4.16204
4.14056
4.11536
4.07654
4.01765
3.96679
3.93615
3.89978
3.85874
3.8154
3.75921
3.68976
3.65541
3.64629
3.66223
3.70791
3.7807
3.85402
3.9531
4.0136
4.01427
4.00257
3.9864
3.97092
3.94322
3.91011
3.87555
3.83139
3.77674
3.73492
3.71334
3.69779
3.6809
3.65425
3.62807
3.61754
3.63588
3.68457
3.79702
3.95829
4.08477
4.16236
4.18536
4.17202
4.14336
4.12394
4.12325
4.12662
4.12569
4.11688
4.09735
4.07809
7.15721
7.08974
6.80225
6.57607
6.28033
5.92849
5.60714
5.35325
5.19337
5.07556
4.86857
4.58307
4.39088
4.22488
4.17433
4.33717
5.08301
5.75313
5.95208
5.93351
5.76886
5.55146
5.32644
5.13432
5.04149
4.98188
4.91157
4.83207
4.73922
4.66848
4.62824
4.6057
4.57519
4.53517
4.48315
4.41127
4.35304
4.32111
4.30038
4.28728
4.26593
4.23004
4.17497
4.12244
4.09656
4.08037
4.05825
4.02135
3.97167
3.92045
3.87684
3.83066
3.78886
3.75309
3.71117
3.66618
3.64811
3.66021
3.70448
3.79102
3.88273
3.96951
4.05735
4.07313
4.06256
4.02559
3.97514
3.93921
3.90956
3.88339
3.8606
3.83527
3.79892
3.75026
3.71674
3.69973
3.68756
3.67412
3.64975
3.62531
3.61516
3.6283
3.66982
3.7695
3.91993
4.03816
4.14343
4.17184
4.16227
4.1468
4.12823
4.11946
4.11573
4.11247
4.10197
4.07693
7.91686
7.55851
7.16806
6.90232
6.60163
6.25871
5.99047
5.75746
5.5482
5.40136
5.20955
4.93457
4.72256
4.58921
4.42233
4.37339
4.53167
5.16323
5.7303
5.9778
5.95499
5.78586
5.54443
5.29249
5.13646
5.05699
4.99005
4.91261
4.81737
4.71674
4.66111
4.62225
4.5794
4.53106
4.47373
4.39944
4.32592
4.28348
4.25899
4.24132
4.21417
4.17671
4.12287
4.06306
4.03526
4.02353
3.99997
3.96437
3.92475
3.87339
3.81563
3.7549
3.71898
3.69128
3.67653
3.68029
3.69925
3.74393
3.82115
3.9148
3.97733
4.04177
4.0835
4.08153
4.06549
4.02803
3.9704
3.91365
3.88166
3.86237
3.84701
3.83081
3.81002
3.77581
3.73201
3.70857
3.69599
3.68865
3.67697
3.65264
3.62882
3.61385
3.62205
3.65456
3.74545
3.8734
4.01131
4.10194
4.1414
4.15549
4.14921
4.13729
4.12338
4.10941
4.09789
4.07662
8.33948
7.84414
7.47606
7.23089
6.94283
6.58915
6.33989
6.15179
5.9043
5.7023
5.52535
5.26115
5.04435
4.91636
4.76762
4.55841
4.5108
4.65103
5.18221
5.72809
5.97699
5.93094
5.75934
5.50362
5.28459
5.14837
5.06913
4.99077
4.89665
4.78384
4.70773
4.64624
4.5857
4.52573
4.46328
4.39256
4.31822
4.26056
4.224
4.196
4.16455
4.1274
4.07796
4.01331
3.98126
3.96671
3.93487
3.90697
3.87059
3.81872
3.75518
3.68875
3.66372
3.662
3.68281
3.72908
3.79447
3.87987
3.9869
4.03687
4.05361
4.07072
4.07955
4.07338
4.05087
4.01412
3.96412
3.90302
3.8666
3.85058
3.83955
3.83243
3.82038
3.80083
3.76326
3.72524
3.70774
3.69864
3.69715
3.68784
3.6663
3.63874
3.6122
3.61475
3.64117
3.71936
3.83946
3.97682
4.06337
4.11009
4.12958
4.14045
4.13551
4.11971
4.10184
4.07828
8.56781
8.05442
7.75348
7.54965
7.27926
6.92495
6.67382
6.51168
6.26481
5.99532
5.80816
5.58241
5.34573
5.21747
5.08036
4.87095
4.63857
4.60439
4.74246
5.19848
5.70318
5.90126
5.854
5.69653
5.49036
5.29068
5.16039
5.06219
4.96095
4.84766
4.74658
4.66441
4.58847
4.51818
4.45214
4.38434
4.31253
4.24249
4.19036
4.14974
4.11816
4.08398
4.0286
3.96257
3.94089
3.91435
3.87663
3.84827
3.80542
3.76496
3.70918
3.66632
3.65807
3.67345
3.72432
3.81636
3.9137
4.02511
4.0955
4.10492
4.10535
4.09417
4.08729
4.07201
4.04053
4.00095
3.96031
3.91685
3.87937
3.86216
3.85453
3.84982
3.8415
3.82177
3.79507
3.76222
3.73942
3.73118
3.73012
3.72627
3.70628
3.67526
3.63731
3.61247
3.61536
3.6379
3.70028
3.81019
3.92991
4.02437
4.08759
4.1074
4.11491
4.11823
4.11214
4.0885
8.80275
8.31493
8.06856
7.88701
7.60727
7.24037
6.98556
6.82394
6.59706
6.29585
6.07409
5.89478
5.65849
5.49106
5.35953
5.16647
4.91581
4.69136
4.6872
4.80717
5.19567
5.61119
5.76518
5.73485
5.64163
5.48555
5.30968
5.15932
5.0348
4.90276
4.7729
4.67086
4.5886
4.51457
4.44684
4.37726
4.29842
4.2264
4.17663
4.12879
4.08061
4.0233
3.95873
3.92517
3.89316
3.83416
3.78301
3.73956
3.71313
3.69264
3.67891
3.67717
3.69705
3.75024
3.84241
3.94446
4.02288
4.09725
4.13312
4.13872
4.12928
4.10062
4.05296
4.00804
3.9776
3.96616
3.9582
3.93814
3.90792
3.86849
3.83812
3.82761
3.82578
3.83016
3.81882
3.80339
3.78181
3.75031
3.72754
3.72076
3.71611
3.69942
3.67385
3.64779
3.62032
3.61478
3.62494
3.66886
3.75973
3.87074
3.985
4.06278
4.0803
4.08943
4.097
4.09322
8.95678
8.57391
8.36542
8.19138
7.9058
7.5478
7.29064
7.11999
6.89599
6.59307
6.32859
6.1701
5.96493
5.74967
5.59694
5.4155
5.20013
4.93622
4.76274
4.75772
4.84559
5.12914
5.46526
5.63891
5.62405
5.57514
5.46838
5.30575
5.13431
4.9651
4.81238
4.68959
4.59218
4.50735
4.428
4.35045
4.27386
4.20383
4.13788
4.07427
4.01655
3.96458
3.91725
3.87756
3.83228
3.76805
3.714
3.6593
3.6425
3.64792
3.66664
3.71481
3.79121
3.89276
3.99818
4.04795
4.0875
4.12045
4.14011
4.13626
4.1157
4.06557
3.99932
3.94398
3.92943
3.92706
3.93311
3.92942
3.91592
3.88644
3.84205
3.81749
3.81122
3.8133
3.82857
3.82451
3.80951
3.7797
3.74267
3.72264
3.71746
3.7222
3.71264
3.69062
3.65409
3.61685
3.60629
3.61105
3.64265
3.71582
3.81446
3.9341
4.02718
4.04494
4.06417
4.0694
9.16644
8.88841
8.67015
8.47819
8.18259
7.82632
7.58916
7.42116
7.19734
6.89624
6.6189
6.428
6.245
6.00122
5.81895
5.63472
5.42031
5.21069
4.98034
4.81423
4.77641
4.81074
5.0146
5.31961
5.53132
5.55543
5.50463
5.40597
5.23834
5.06663
4.91648
4.77331
4.65409
4.5575
4.46457
4.37899
4.29729
4.21028
4.12031
4.03867
3.971
3.91289
3.86893
3.82641
3.76689
3.71192
3.66162
3.62244
3.62177
3.64044
3.70054
3.80231
3.91783
4.03574
4.09924
4.10941
4.12089
4.12387
4.11553
4.09357
4.06145
4.02515
3.97354
3.92346
3.90825
3.90693
3.91447
3.92016
3.91356
3.89697
3.86269
3.82938
3.81652
3.81324
3.81993
3.82965
3.82301
3.80546
3.77417
3.74167
3.72743
3.72067
3.71561
3.70014
3.67961
3.65101
3.62119
3.60049
3.60268
3.62598
3.67875
3.76013
3.87081
3.95839
4.01161
4.03895
9.423
9.15633
8.92145
8.72363
8.43451
8.09301
7.84043
7.66289
7.44054
7.13315
6.84468
6.68628
6.52548
6.30199
6.01254
5.83834
5.66916
5.49608
5.29563
5.06883
4.88917
4.7663
4.78775
4.94367
5.21925
5.43503
5.45594
5.38715
5.26189
5.10483
4.94511
4.7984
4.66396
4.54254
4.43453
4.34026
4.25479
4.17256
4.09358
4.02122
3.94776
3.87427
3.81347
3.75733
3.70449
3.66873
3.63924
3.63586
3.6528
3.70289
3.80302
3.91882
4.02825
4.12508
4.1544
4.14967
4.11713
4.06333
4.02883
4.01031
3.99824
3.98907
3.97041
3.93693
3.90956
3.89876
3.89427
3.89544
3.89865
3.89739
3.88901
3.86775
3.84261
3.82884
3.82403
3.82635
3.82853
3.81964
3.80369
3.77792
3.75333
3.73731
3.72528
3.71196
3.69289
3.67216
3.6472
3.61855
3.59731
3.59484
3.60609
3.64419
3.70951
3.80192
3.8957
3.9875
9.51572
9.29918
9.09684
8.87276
8.57604
8.28714
8.05829
7.89689
7.68157
7.35982
7.07
6.88115
6.71055
6.49085
6.22251
5.98213
5.80288
5.62805
5.45016
5.24921
5.00658
4.82841
4.73445
4.75245
4.87279
5.1132
5.27244
5.3285
5.27794
5.16124
5.01443
4.86274
4.71216
4.57259
4.45143
4.34905
4.25956
4.17468
4.09359
4.01484
3.92965
3.84522
3.76907
3.69558
3.66118
3.64815
3.66013
3.68684
3.73936
3.83709
3.94403
4.02982
4.11376
4.15857
4.15277
4.12375
4.07627
4.02136
3.97383
3.95667
3.951
3.95071
3.95149
3.94421
3.92697
3.90361
3.8893
3.88525
3.88517
3.89232
3.89698
3.89308
3.87958
3.85891
3.84276
3.8363
3.83391
3.82834
3.81824
3.80267
3.78138
3.76093
3.74435
3.73001
3.71443
3.69578
3.67063
3.64058
3.60946
3.58724
3.57442
3.58073
3.60928
3.66579
3.74167
3.88051
9.60487
9.42293
9.2237
8.9866
8.72326
8.48073
8.27884
8.09165
7.81809
7.50437
7.24769
7.06736
6.90303
6.67697
6.39939
6.15167
5.97139
5.79145
5.61493
5.41986
5.18523
4.96778
4.80104
4.69784
4.69285
4.792
4.95978
5.12136
5.20898
5.16919
5.05407
4.91034
4.75483
4.60211
4.46586
4.34902
4.2495
4.1604
4.07531
3.99025
3.89937
3.81014
3.72159
3.66176
3.65373
3.667
3.70794
3.78141
3.88621
4.00489
4.06079
4.09158
4.10614
4.10541
4.08817
4.06713
4.0456
4.01141
3.96226
3.92669
3.9173
3.91507
3.92147
3.93146
3.93063
3.92122
3.9029
3.8911
3.89009
3.89343
3.90289
3.90621
3.90142
3.8876
3.86659
3.85314
3.84747
3.84236
3.83347
3.82146
3.80535
3.78573
3.76713
3.75095
3.73557
3.71676
3.69223
3.66023
3.62563
3.59319
3.57006
3.55913
3.56277
3.58424
3.62299
3.74502
9.68524
9.49508
9.2887
9.06121
8.83545
8.62107
8.42025
8.19533
7.91515
7.63558
7.40415
7.23895
7.05673
6.8021
6.51396
6.2841
6.10956
5.92849
5.74251
5.5439
5.31853
5.09134
4.90715
4.76165
4.65718
4.62449
4.67401
4.80733
4.9875
5.08024
5.03141
4.92926
4.79704
4.6485
4.50285
4.36691
4.24502
4.13764
4.04386
3.95484
3.86983
3.79706
3.72925
3.68417
3.68192
3.71929
3.79747
3.91251
4.03474
4.11162
4.12278
4.10383
4.0713
4.04129
4.01984
4.00795
4.00258
3.98794
3.95841
3.91936
3.8975
3.89346
3.89717
3.91232
3.92122
3.92111
3.9152
3.90151
3.89601
3.89692
3.90198
3.90975
3.9092
3.90258
3.88733
3.86933
3.85958
3.85293
3.84486
3.83353
3.81925
3.80192
3.78326
3.76601
3.74996
3.73217
3.70959
3.68072
3.64642
3.61247
3.58375
3.56237
3.54735
3.54359
3.54981
3.61926
9.73035
9.54195
9.34383
9.14013
8.93866
8.7351
8.51938
8.27161
8.00776
7.7604
7.56174
7.39138
7.15947
6.88106
6.61136
6.40703
6.24213
6.06017
5.85816
5.63496
5.41208
5.20953
5.02412
4.86245
4.71879
4.59698
4.50633
4.52909
4.66881
4.84006
4.91592
4.89996
4.81593
4.68714
4.54181
4.39005
4.24159
4.10706
3.99755
3.90853
3.8469
3.80085
3.75175
3.73136
3.74242
3.80862
3.94012
4.03613
4.12449
4.14467
4.13449
4.09656
4.04564
3.98936
3.95861
3.95185
3.95577
3.95355
3.9422
3.91953
3.89088
3.88126
3.88416
3.89857
3.91248
3.91685
3.91668
3.9063
3.89557
3.89656
3.90113
3.91067
3.91577
3.91257
3.9002
3.87926
3.86282
3.85254
3.84326
3.83329
3.82243
3.81099
3.79683
3.77805
3.75645
3.7337
3.70907
3.6823
3.65456
3.62595
3.59701
3.56751
3.54211
3.51543
3.49839
3.52193
9.78111
9.58591
9.39327
9.20041
9.00309
8.79478
8.56705
8.32164
8.08118
7.87359
7.70333
7.49088
7.21816
6.93383
6.71257
6.54311
6.37239
6.16513
5.92685
5.69
5.4963
5.31731
5.14016
4.96308
4.79284
4.6239
4.47553
4.39271
4.41452
4.54159
4.67833
4.7768
4.7752
4.68982
4.5604
4.41096
4.25464
4.10162
3.97701
3.89221
3.84274
3.81887
3.79796
3.82305
3.91471
4.03768
4.08434
4.12215
4.13833
4.12831
4.09804
4.0567
4.01623
3.96918
3.92968
3.91865
3.91822
3.91518
3.91172
3.90655
3.8949
3.88508
3.88548
3.89097
3.89721
3.90135
3.90111
3.89599
3.89426
3.8989
3.90518
3.91062
3.91215
3.90685
3.8928
3.87412
3.86115
3.85317
3.84606
3.84006
3.83259
3.82115
3.8027
3.77712
3.74993
3.72587
3.70519
3.68686
3.66829
3.64586
3.61648
3.57786
3.5415
3.50687
3.48214
3.47121
9.82254
9.63016
9.44197
9.24855
9.04737
8.83548
8.6121
8.38734
8.17322
7.97873
7.77804
7.52474
7.25059
7.01816
6.83069
6.65869
6.45469
6.2203
5.96597
5.75418
5.58008
5.41301
5.24123
5.05593
4.85373
4.65353
4.48533
4.37191
4.31644
4.3214
4.40292
4.52063
4.62819
4.6162
4.53635
4.41398
4.27166
4.12411
3.99555
3.90583
3.87313
3.86715
3.92826
4.01285
4.1385
4.19859
4.18933
4.15672
4.11702
4.07818
4.03724
4.00859
3.9893
3.96557
3.93047
3.89632
3.88557
3.88256
3.8871
3.89774
3.90269
3.90027
3.89038
3.88308
3.88201
3.88553
3.89477
3.90435
3.90986
3.91263
3.91111
3.90608
3.90116
3.89656
3.89224
3.88646
3.879
3.87278
3.86605
3.85675
3.84211
3.82153
3.79686
3.77411
3.75507
3.738
3.72175
3.7064
3.69041
3.66899
3.63446
3.59005
3.54812
3.51628
3.49124
3.46543
9.85927
9.66952
9.4831
9.28872
9.08605
8.87568
8.66054
8.4477
8.24198
8.04083
7.80787
7.54811
7.30775
7.10576
6.92686
6.72927
6.49829
6.24119
6.00667
5.82366
5.6594
5.49437
5.32094
5.11765
4.89232
4.6849
4.516
4.38782
4.29411
4.23141
4.19617
4.23502
4.35477
4.43966
4.43827
4.38372
4.27943
4.1598
4.04393
3.95876
3.9487
4.01063
4.10336
4.19761
4.28426
4.28702
4.24733
4.17054
4.09209
4.02474
3.98752
3.97103
3.96313
3.94876
3.9242
3.88474
3.86107
3.85857
3.8659
3.88424
3.89479
3.89726
3.88829
3.87288
3.87304
3.88068
3.89719
3.91294
3.91812
3.9188
3.91001
3.90105
3.90026
3.90092
3.90392
3.90682
3.90384
3.89609
3.88121
3.86041
3.83769
3.81806
3.80082
3.78441
3.7698
3.75671
3.74364
3.72669
3.70291
3.67297
3.63762
3.59995
3.56242
3.52964
3.50514
3.47184
9.88223
9.69733
9.51344
9.3205
9.12017
8.9145
8.7067
8.49936
8.29212
8.07135
7.82677
7.58455
7.36715
7.18129
6.99964
6.77152
6.51919
6.26662
6.06299
5.8907
5.72382
5.54867
5.35866
5.14606
4.92644
4.73056
4.56535
4.42688
4.31081
4.20719
4.10157
4.02541
4.06505
4.17617
4.25252
4.30253
4.26597
4.20251
4.11772
4.08329
4.12848
4.2189
4.27221
4.33055
4.34404
4.31084
4.2413
4.16187
4.07881
4.00176
3.95887
3.94291
3.93266
3.91931
3.90269
3.87335
3.84718
3.84336
3.85076
3.86638
3.87542
3.87911
3.87525
3.87024
3.87618
3.88677
3.90421
3.91573
3.91906
3.91723
3.90859
3.90543
3.90664
3.91185
3.91962
3.91835
3.91233
3.90057
3.88087
3.85886
3.83986
3.82324
3.8108
3.80042
3.78864
3.77294
3.75142
3.7261
3.69691
3.66638
3.63661
3.60712
3.57544
3.54281
3.51597
3.47808
9.90225
9.72028
9.53661
9.34457
9.14741
8.94587
8.74136
8.534
8.31971
8.09071
7.85462
7.62665
7.42072
7.24121
7.02949
6.78629
6.53393
6.31708
6.12521
5.94338
5.75981
5.56917
5.36472
5.15686
4.96402
4.79238
4.63292
4.4794
4.33246
4.18581
4.03791
3.92498
3.87575
3.92907
4.01227
4.13505
4.19927
4.20365
4.23729
4.29506
4.39943
4.43815
4.42079
4.40181
4.34399
4.27827
4.20568
4.13987
4.07222
4.0039
3.95094
3.9222
3.90332
3.88713
3.87354
3.85977
3.84431
3.83399
3.83506
3.84244
3.85217
3.85987
3.8663
3.87297
3.88222
3.89342
3.90596
3.91363
3.91659
3.9161
3.91425
3.91435
3.91572
3.91866
3.92039
3.91745
3.90929
3.89479
3.87899
3.86494
3.85121
3.83744
3.82301
3.80815
3.79065
3.76855
3.74216
3.71462
3.68727
3.66105
3.63582
3.61228
3.58742
3.55886
3.52936
3.48031
9.91571
9.73685
9.55597
9.36645
9.17137
8.97067
8.76459
8.55256
8.33334
8.10866
7.88577
7.66934
7.46625
7.25486
7.01034
6.76822
6.55584
6.36388
6.17586
5.97861
5.77457
5.56431
5.35908
5.17003
5.00368
4.84911
4.6924
4.52108
4.33444
4.15352
3.99485
3.87503
3.80718
3.78436
3.82944
3.92912
4.08737
4.23114
4.38757
4.52906
4.61051
4.59223
4.52265
4.42744
4.32912
4.23986
4.17079
4.11649
4.0666
4.0166
3.96239
3.90847
3.87703
3.86169
3.8541
3.85134
3.84621
3.83448
3.82655
3.83017
3.8378
3.84969
3.86348
3.87484
3.88597
3.89532
3.90176
3.90754
3.91424
3.91916
3.92146
3.92389
3.92423
3.92077
3.91511
3.90803
3.89957
3.89092
3.88223
3.87351
3.86368
3.85083
3.83347
3.81006
3.78317
3.75583
3.729
3.70396
3.68066
3.65872
3.63659
3.61509
3.59348
3.56923
3.54193
3.48327
9.91601
9.74058
9.56255
9.37518
9.18151
8.98109
8.77375
8.55977
8.34199
8.12531
7.91311
7.70476
7.48604
7.24339
7.0006
6.78039
6.58829
6.41138
6.20938
6.00089
5.77741
5.5501
5.35126
5.18695
5.0378
4.88922
4.72743
4.5366
4.3218
4.11759
3.96231
3.8534
3.77616
3.71758
3.69813
3.75607
3.93799
4.22141
4.47972
4.67886
4.77933
4.73958
4.616
4.45427
4.31665
4.21251
4.1465
4.099
4.06167
4.02105
3.95766
3.89215
3.86367
3.84867
3.83995
3.83524
3.83156
3.8251
3.81565
3.81881
3.82848
3.84341
3.8609
3.87594
3.88637
3.89432
3.90057
3.90624
3.91287
3.92209
3.92847
3.92935
3.92685
3.91896
3.90782
3.89872
3.89306
3.88939
3.88658
3.88166
3.87305
3.8591
3.83623
3.80647
3.77571
3.74772
3.72203
3.69743
3.67347
3.65303
3.63557
3.61884
3.60131
3.57883
3.5493
3.47986
)
;

boundaryField
{
    inlet
    {
        type            fixedValue;
        value           uniform 1;
    }
    outlet
    {
        type            zeroGradient;
    }
    bottom
    {
        type            symmetryPlane;
    }
    top
    {
        type            symmetryPlane;
    }
    obstacle
    {
        type            zeroGradient;
    }
    defaultFaces
    {
        type            empty;
    }
}


// ************************************************************************* //
