/*--------------------------------*- C++ -*----------------------------------*\
  =========                 |
  \\      /  F ield         | OpenFOAM: The Open Source CFD Toolbox
   \\    /   O peration     | Website:  https://openfoam.org
    \\  /    A nd           | Version:  7
     \\/     M anipulation  |
\*---------------------------------------------------------------------------*/
FoamFile
{
    version     2.0;
    format      ascii;
    class       volScalarField;
    location    "12.5";
    object      rho;
}
// * * * * * * * * * * * * * * * * * * * * * * * * * * * * * * * * * * * * * //

dimensions      [1 -3 0 0 0 0 0];

internalField   nonuniform List<scalar> 
4032
(
1.40001
1.40001
1.40001
1.40001
1.40001
1.40001
1.40001
1.40001
1.40001
1.40001
1.40001
1.58519
4.40114
5.46751
5.51488
5.59054
5.65748
5.72099
5.77918
5.83145
5.87791
5.91529
5.94385
5.96493
1.40001
1.40001
1.40001
1.40001
1.40001
1.40001
1.40001
1.40001
1.40001
1.40001
1.40001
1.56209
4.33128
5.4524
5.50959
5.58375
5.64938
5.71116
5.76743
5.81724
5.86092
5.89559
5.92108
5.94112
1.40001
1.40001
1.40001
1.40001
1.40001
1.40001
1.40001
1.40001
1.40001
1.40001
1.40001
1.50655
4.22225
5.44318
5.49456
5.56786
5.63348
5.69461
5.74975
5.79773
5.83885
5.8706
5.89131
5.90839
1.40001
1.40001
1.40001
1.40001
1.40001
1.40001
1.40001
1.40001
1.40001
1.40001
1.40001
1.41243
4.04196
5.43208
5.47692
5.54304
5.60461
5.66148
5.71334
5.7592
5.79933
5.83002
5.84766
5.86116
1.40001
1.40001
1.40001
1.40001
1.40001
1.40001
1.40001
1.40001
1.40001
1.40001
1.40001
1.40018
3.7658
5.37189
5.42961
5.49349
5.55594
5.61209
5.66178
5.70283
5.73542
5.76023
5.77392
5.79256
1.40001
1.40001
1.40001
1.40001
1.40001
1.40001
1.40001
1.40001
1.40001
1.40001
1.40001
1.4
3.40758
5.2882
5.39029
5.44908
5.50807
5.55701
5.5986
5.63305
5.66138
5.68525
5.69485
5.68616
1.40001
1.40001
1.40001
1.40001
1.40001
1.40001
1.40001
1.40001
1.40001
1.40001
1.40001
1.4
2.98651
5.17044
5.36114
5.41134
5.45859
5.49385
5.52061
5.5402
5.54746
5.5362
5.51824
5.51063
1.40001
1.40001
1.40001
1.40001
1.40001
1.40001
1.40001
1.40001
1.40001
1.40001
1.40001
1.40001
2.51215
5.01103
5.36893
5.3939
5.4214
5.43824
5.4434
5.44077
5.42248
5.39292
5.33751
5.30996
1.40001
1.40001
1.40001
1.40001
1.40001
1.40001
1.40001
1.40001
1.40001
1.40001
1.40001
1.40001
1.99196
4.7709
5.40029
5.3772
5.38781
5.38551
5.36891
5.3392
5.2797
5.17663
4.86256
4.01227
1.40001
1.40001
1.40001
1.40001
1.40001
1.40001
1.40001
1.40001
1.40001
1.40001
1.40001
1.40001
1.50048
4.355
5.42589
5.36803
5.34463
5.31607
5.27647
5.21672
5.11574
4.92768
4.59871
3.70588
1.40001
1.40001
1.40001
1.40001
1.40001
1.40001
1.40001
1.40001
1.40001
1.40001
1.40001
1.40001
1.40132
3.64328
5.18582
5.24227
5.25376
5.22574
5.17649
5.09236
4.96211
4.72951
4.3878
3.56097
1.40001
1.40001
1.40001
1.40001
1.40001
1.40001
1.40001
1.40001
1.40001
1.40001
1.40001
1.40001
1.39998
2.82489
4.99688
5.2014
5.19976
5.16634
5.10402
4.99617
4.83732
4.59336
4.21722
3.55089
1.40001
1.40001
1.40001
1.40001
1.40001
1.40001
1.40001
1.40001
1.40001
1.40001
1.40001
1.40001
1.4
2.00233
4.73531
5.20637
5.15715
5.09954
5.02255
4.90214
4.72792
4.48593
4.10129
3.57594
1.40001
1.40001
1.40001
1.40001
1.40001
1.40001
1.40001
1.40001
1.40001
1.40001
1.40001
1.40001
1.4
1.47841
4.01119
5.10736
5.07896
5.02573
4.94359
4.82012
4.64829
4.40383
4.04614
3.62678
1.40001
1.40001
1.40001
1.40001
1.40001
1.40001
1.40001
1.40001
1.40001
1.40001
1.40001
1.40001
1.4
1.40039
2.93913
4.94152
5.04105
4.98863
4.8982
4.75745
4.58561
4.33692
4.02101
3.6731
1.40001
1.40001
1.40001
1.40001
1.40001
1.40001
1.40001
1.40001
1.40001
1.40001
1.40001
1.40001
1.40001
1.4
1.83071
4.68963
5.10055
4.96998
4.85004
4.70198
4.51493
4.29023
4.01875
3.71739
1.40001
1.40001
1.40001
1.40001
1.40001
1.40001
1.40001
1.40001
1.40001
1.40001
1.40001
1.40001
1.40001
1.4
1.42827
3.7672
4.95897
4.8697
4.77685
4.63987
4.46549
4.25923
4.01733
3.74902
1.40001
1.40001
1.40001
1.40001
1.40001
1.40001
1.40001
1.40001
1.40001
1.40001
1.40001
1.40001
1.40001
1.4
1.39995
2.47418
4.76264
4.84587
4.7727
4.64069
4.46682
4.2601
4.02474
3.77597
1.40001
1.40001
1.40001
1.40001
1.40001
1.40001
1.40001
1.40001
1.40001
1.40001
1.40001
1.40001
1.40001
1.40001
1.39999
1.57811
4.0224
4.86115
4.7694
4.62864
4.45555
4.25715
4.03397
3.80649
1.40001
1.40001
1.40001
1.40001
1.40001
1.40001
1.40001
1.40001
1.40001
1.40001
1.40001
1.40001
1.40001
1.40001
1.4
1.4034
2.718
4.67487
4.74065
4.60293
4.44229
4.25473
4.05196
3.85681
1.40001
1.40001
1.40001
1.40001
1.40001
1.40001
1.40001
1.40001
1.40001
1.40001
1.40001
1.40001
1.40001
1.40001
1.4
1.4
1.66033
4.03572
4.77442
4.60887
4.44806
4.26369
4.09868
3.9828
1.40001
1.40001
1.40001
1.40001
1.40001
1.40001
1.40001
1.40001
1.40001
1.40001
1.40001
1.40001
1.40001
1.40001
1.40001
1.4
1.408
2.69067
4.58024
4.58369
4.4311
4.28517
4.21275
4.25508
1.40001
1.40001
1.40001
1.40001
1.40001
1.40001
1.40001
1.40001
1.40001
1.40001
1.40001
1.40001
1.40001
1.40001
1.40001
1.40001
1.40003
1.64223
3.8366
4.63441
4.47531
4.43765
4.57035
4.68218
1.40001
1.40001
1.40001
1.40001
1.40001
1.40001
1.40001
1.40001
1.40001
1.40001
1.40001
1.40001
1.40001
1.40001
1.40001
1.40001
1.40001
1.40722
2.38717
4.28996
4.57193
4.82206
5.01561
5.04248
1.40001
1.40001
1.40001
1.40001
1.40001
1.40001
1.40001
1.40001
1.40001
1.40001
1.40001
1.40001
1.40001
1.40001
1.40001
1.40001
1.40001
1.40004
1.5349
3.31526
4.84649
5.45858
5.44053
5.30994
1.40001
1.40001
1.40001
1.40001
1.40001
1.40001
1.40001
1.40001
1.40001
1.40001
1.40001
1.40001
1.40001
1.40001
1.40001
1.40001
1.40001
1.40001
1.4026
1.9702
4.97136
5.90536
5.66208
5.46582
1.40001
1.40001
1.40001
1.40001
1.40001
1.40001
1.40001
1.40001
1.40001
1.40001
1.40001
1.40001
1.40001
1.40001
1.40001
1.40001
1.40001
1.40001
1.40002
1.44646
4.69028
5.94033
5.66888
5.51308
1.40001
1.40001
1.40001
1.40001
1.40001
1.40001
1.40001
1.40001
1.40001
1.40001
1.40001
1.40001
1.40001
1.40001
1.40001
1.40001
1.40001
1.40001
1.40001
1.40032
4.14639
5.65349
5.43439
5.36978
1.40001
1.40001
1.40001
1.40001
1.40001
1.40001
1.40001
1.40001
1.40001
1.40001
1.40001
1.40001
1.40001
1.40001
1.40001
1.40001
1.40001
1.40001
1.40001
1.4
3.70324
5.43755
5.30166
5.28465
1.40001
1.40001
1.40001
1.40001
1.40001
1.40001
1.40001
1.40001
1.40001
1.40001
1.40001
1.40001
1.40001
1.40001
1.40001
1.40001
1.40001
1.40001
1.40001
1.4
3.34991
5.24188
5.25737
5.20298
1.40001
1.40001
1.40001
1.40001
1.40001
1.40001
1.40001
1.40001
1.40001
1.40001
1.40001
1.40001
1.40001
1.40001
1.40001
1.40001
1.40001
1.40001
1.40001
1.40001
2.99189
5.12966
5.2641
5.18335
1.40001
1.40001
1.40001
1.40001
1.40001
1.40001
1.40001
1.40001
1.40001
1.40001
1.40001
1.40001
1.40001
1.40001
1.40001
1.40001
1.40001
1.40001
1.40001
1.40001
2.6588
5.07398
5.312
5.21794
1.40001
1.40001
1.40001
1.40001
1.40001
1.40001
1.40001
1.40001
1.40001
1.40001
1.40001
1.40001
1.40001
1.40001
1.40001
1.40001
1.40001
1.40001
1.40001
1.40001
2.34516
5.00432
5.37967
5.26102
1.40001
1.40001
1.40001
1.40001
1.40001
1.40001
1.40001
1.40001
1.40001
1.40001
1.40001
1.40001
1.40001
1.40001
1.40001
1.40001
1.40001
1.40001
1.40001
1.40001
2.07832
4.89857
5.44151
5.30606
1.40001
1.40001
1.40001
1.40001
1.40001
1.40001
1.40001
1.40001
1.40001
1.40001
1.40001
1.40001
1.40001
1.40001
1.40001
1.40001
1.40001
1.40001
1.40001
1.40001
1.86809
4.77927
5.46968
5.32858
1.40001
1.40001
1.40001
1.40001
1.40001
1.40001
1.40001
1.40001
1.40001
1.40001
1.40001
1.40001
1.40001
1.40001
1.40001
1.40001
1.40001
1.40001
1.40001
1.40001
1.73284
4.6543
5.46774
5.33048
1.40001
1.40001
1.40001
1.40001
1.40001
1.40001
1.40001
1.40001
1.40001
1.40001
1.40001
1.40001
1.40001
1.40001
1.40001
1.40001
1.40001
1.40001
1.40001
1.40001
1.65759
4.54129
5.44986
5.32107
1.40001
1.40001
1.40001
1.40001
1.40001
1.40001
1.40001
1.40001
1.40001
1.40001
1.40001
1.40001
1.40001
1.40001
1.40001
1.40001
1.40001
1.40001
1.40001
1.40001
1.61348
4.46356
5.4337
5.31564
1.40001
1.40001
1.40001
1.40001
1.40001
1.40001
1.40001
1.40001
1.40001
1.40001
1.40001
1.40001
1.40001
1.40001
1.40001
1.40001
1.40001
1.40001
1.40001
1.40001
1.5842
4.4139
5.42534
5.31586
1.40001
1.40001
1.40001
1.40001
1.40001
1.40001
1.40001
1.40001
1.40001
1.40001
1.40001
1.40001
1.40001
1.40001
1.40001
1.40001
1.40001
1.40001
1.40001
1.40001
1.57062
4.38836
5.41558
5.31289
1.33302
0.468452
0.239405
0.224546
0.265578
0.641995
1.16231
1.36296
1.57491
1.70383
1.73174
1.7666
1.82147
1.86793
1.90313
1.94329
1.99782
2.05338
2.10055
2.13292
2.1556
2.17544
2.20049
2.22927
2.25589
2.2762
2.29077
2.30202
2.31279
2.32462
2.3372
2.34871
2.35821
2.36664
2.37504
2.38315
2.38928
2.39132
2.38821
2.38253
2.37713
2.37362
2.37113
2.36839
2.36294
2.35197
2.33783
2.32429
2.31328
2.30407
2.29488
2.28318
2.26754
2.24934
2.23116
2.21418
2.19833
2.18145
2.1606
2.13675
2.11369
2.09337
2.0755
2.05732
2.03567
2.01154
1.98844
1.96984
1.95988
1.96076
1.97444
2.04137
2.23781
2.34166
2.36034
2.36195
2.35692
2.34976
2.3419
2.3332
2.32549
2.32086
2.32028
2.32247
2.3253
2.32689
2.32649
2.32484
2.32377
2.32428
2.32636
2.32849
2.32867
2.32698
2.32563
2.32712
2.01507
1.22874
0.822909
0.657082
0.609897
0.714449
1.27238
1.45195
1.60195
1.71551
1.75362
1.7749
1.82875
1.88611
1.9335
1.97294
2.01084
2.04764
2.08481
2.11765
2.14263
2.16218
2.18152
2.20589
2.2343
2.26075
2.28122
2.29547
2.30615
2.31693
2.33045
2.34598
2.36055
2.37087
2.37615
2.37895
2.38278
2.38883
2.39458
2.39689
2.39307
2.38292
2.37141
2.36295
2.3581
2.35435
2.34754
2.33544
2.32038
2.30663
2.29612
2.28778
2.27679
2.25871
2.23691
2.21669
2.20096
2.18884
2.17526
2.15506
2.13065
2.10685
2.0856
2.06684
2.0469
2.02233
1.99729
1.97637
1.96272
1.96399
1.98069
2.04697
2.23398
2.35241
2.37724
2.37615
2.3681
2.35966
2.35424
2.35064
2.34645
2.34028
2.33471
2.33104
2.33009
2.3335
2.33863
2.34053
2.33745
2.33191
2.32731
2.32581
2.32764
2.33117
2.33443
2.334
2.4784
1.87176
1.40464
1.04559
0.922784
0.85129
1.04249
1.57834
1.74933
1.75731
1.77242
1.83085
1.88499
1.92266
1.95935
1.99177
2.01154
2.02599
2.05011
2.08714
2.13084
2.16996
2.19713
2.2187
2.24449
2.27819
2.31366
2.3425
2.36166
2.37319
2.38259
2.39657
2.41564
2.43511
2.44836
2.45221
2.44948
2.44689
2.45007
2.45753
2.4643
2.46272
2.44974
2.43229
2.41725
2.40855
2.40507
2.40166
2.39198
2.37643
2.3606
2.34781
2.33785
2.32499
2.30241
2.27535
2.25056
2.23086
2.21653
2.2031
2.18305
2.15818
2.133
2.10998
2.08878
2.06839
2.04822
2.02939
2.01381
2.01041
2.01827
2.07076
2.23234
2.39192
2.43479
2.42761
2.41267
2.39689
2.38741
2.38385
2.38689
2.39076
2.38803
2.3802
2.37125
2.36762
2.36926
2.37706
2.38391
2.38336
2.37733
2.36574
2.35752
2.35681
2.36223
2.37186
2.80679
2.278
1.90772
1.5492
1.24086
1.11984
1.08351
1.30496
1.79677
2.07276
2.01887
1.99331
2.01842
2.00594
1.99393
2.02228
2.05843
2.08346
2.10441
2.13746
2.18902
2.24683
2.29317
2.32018
2.33815
2.35743
2.38461
2.41848
2.44914
2.46675
2.47321
2.47738
2.48701
2.50536
2.52921
2.54907
2.55637
2.55368
2.54866
2.54598
2.54877
2.55553
2.55392
2.53844
2.51963
2.50429
2.494
2.48902
2.48496
2.47382
2.45663
2.43919
2.42508
2.41447
2.39875
2.37613
2.34845
2.32131
2.29967
2.28163
2.26237
2.2396
2.21368
2.184
2.1538
2.128
2.11061
2.09937
2.09631
2.10353
2.11981
2.15818
2.26379
2.4321
2.51542
2.51215
2.49716
2.48174
2.4672
2.45456
2.44899
2.45009
2.45575
2.45671
2.45369
2.44551
2.43608
2.43386
2.43701
2.44381
2.44666
2.44505
2.43851
2.42732
2.42016
2.42076
3.03466
2.56489
2.22264
1.93942
1.63681
1.39791
1.2619
1.23884
1.48186
1.96287
2.35512
2.3605
2.25126
2.21891
2.17709
2.18724
2.23124
2.26153
2.27454
2.29175
2.3201
2.36533
2.41777
2.45592
2.47379
2.48455
2.49775
2.52009
2.55389
2.58847
2.60848
2.61377
2.61555
2.62179
2.63716
2.6607
2.68212
2.69121
2.68931
2.68299
2.67714
2.67616
2.67752
2.66604
2.64684
2.62913
2.61465
2.60477
2.60032
2.59025
2.57201
2.55176
2.53591
2.52294
2.50581
2.48522
2.46051
2.43307
2.40888
2.38486
2.36032
2.33519
2.30995
2.28349
2.25377
2.22474
2.20343
2.19566
2.20178
2.22116
2.25623
2.28871
2.33855
2.45707
2.57033
2.62014
2.6121
2.5903
2.57451
2.56157
2.54917
2.54378
2.54373
2.54825
2.55169
2.55165
2.54682
2.53522
2.52552
2.52395
2.5256
2.52973
2.53096
2.52837
2.51989
2.50339
3.20626
2.80378
2.46442
2.19802
1.93578
1.68172
1.51741
1.33664
1.35111
1.63609
2.2634
2.84514
2.7901
2.62364
2.51098
2.47194
2.49088
2.51058
2.50541
2.49993
2.51218
2.54007
2.58796
2.63597
2.6587
2.66833
2.6738
2.68275
2.70342
2.73402
2.75979
2.76915
2.76762
2.76596
2.7704
2.7843
2.80374
2.81574
2.81484
2.80674
2.79737
2.79167
2.79228
2.78076
2.75959
2.73681
2.72082
2.71041
2.70478
2.69131
2.67176
2.6464
2.62671
2.6127
2.596
2.57687
2.55453
2.52947
2.50034
2.46949
2.4425
2.41841
2.39273
2.3664
2.34079
2.31743
2.30137
2.30271
2.32131
2.35172
2.39732
2.43182
2.43988
2.47725
2.5667
2.6612
2.71328
2.70959
2.68893
2.66318
2.64306
2.63145
2.63094
2.63507
2.64091
2.64397
2.64422
2.63842
2.62599
2.61891
2.61863
2.62027
2.62402
2.62414
2.62086
2.60485
3.31851
2.97242
2.65767
2.3983
2.15426
1.90224
1.73422
1.59077
1.46374
1.50722
1.95799
2.89234
3.29043
3.11916
2.86835
2.73259
2.71668
2.74117
2.74518
2.73056
2.72234
2.73284
2.76532
2.81073
2.83004
2.83466
2.83571
2.83721
2.84448
2.86465
2.88815
2.89514
2.8917
2.88608
2.88481
2.89122
2.90698
2.91721
2.9126
2.90057
2.88991
2.88422
2.88322
2.86956
2.84809
2.82111
2.80232
2.79045
2.78179
2.76804
2.74931
2.72644
2.70341
2.68213
2.66165
2.64204
2.62259
2.59999
2.57296
2.54155
2.50918
2.48057
2.45502
2.43436
2.41699
2.40414
2.40035
2.41324
2.447
2.48087
2.52328
2.55032
2.54052
2.5285
2.55319
2.62221
2.70719
2.77403
2.78225
2.76553
2.73789
2.71074
2.7001
2.70331
2.71138
2.71908
2.72143
2.71973
2.71155
2.70192
2.69925
2.69991
2.70281
2.7042
2.70183
2.68991
3.41457
3.10032
2.80664
2.55982
2.34417
2.11271
1.91977
1.8673
1.765
1.74123
1.84813
2.52519
3.33685
3.47243
3.25435
3.04026
2.92388
2.91502
2.92595
2.91141
2.88526
2.87394
2.88356
2.91433
2.93616
2.93973
2.93561
2.92952
2.92734
2.93455
2.9513
2.95558
2.95206
2.94495
2.94156
2.94441
2.95601
2.96248
2.95586
2.94074
2.92682
2.91877
2.91358
2.89946
2.87866
2.85029
2.82953
2.81921
2.81274
2.80106
2.7837
2.76181
2.7346
2.70676
2.68636
2.6703
2.65319
2.63109
2.60461
2.57171
2.5382
2.51019
2.49147
2.48023
2.47678
2.47994
2.48865
2.52035
2.55386
2.57803
2.60409
2.61512
2.60571
2.582
2.56503
2.58488
2.64432
2.72495
2.78748
2.82806
2.81899
2.79743
2.77108
2.75337
2.75481
2.76246
2.7719
2.77516
2.77425
2.76814
2.76106
2.75886
2.75899
2.76052
2.75932
2.75172
3.48094
3.20237
2.92783
2.69761
2.52568
2.34792
2.19261
2.19052
2.18703
2.09688
2.03402
2.1723
2.96
3.52529
3.52456
3.35786
3.17135
3.08435
3.07403
3.05547
3.02017
2.98908
2.98242
2.99651
3.01533
3.01525
3.00573
2.98973
2.98191
2.97938
2.98714
2.98955
2.98524
2.97766
2.97246
2.97259
2.97974
2.98327
2.97473
2.95728
2.93915
2.92914
2.92238
2.90983
2.89244
2.86756
2.84352
2.83132
2.82205
2.80833
2.79244
2.77401
2.74849
2.71859
2.69627
2.678
2.65855
2.63815
2.61381
2.58468
2.55209
2.52526
2.5151
2.51578
2.53035
2.55189
2.58293
2.62712
2.64199
2.64614
2.64855
2.6489
2.63871
2.61954
2.59336
2.58165
2.59476
2.64531
2.72873
2.79948
2.84725
2.85357
2.84184
2.81594
2.79344
2.79123
2.79694
2.80749
2.8142
2.81468
2.81098
2.80301
2.79808
2.79651
2.79563
2.79108
3.53185
3.28768
3.04866
2.86137
2.76563
2.6675
2.55748
2.55492
2.54548
2.43625
2.27999
2.26561
2.50301
3.26763
3.61006
3.57221
3.42681
3.27618
3.21435
3.1821
3.13685
3.09222
3.07442
3.07678
3.08683
3.07922
3.06184
3.03867
3.02677
3.01974
3.02128
3.02114
3.01542
3.00728
2.99935
2.99664
2.99825
2.99783
2.98834
2.97119
2.94979
2.93737
2.93055
2.92037
2.90551
2.88569
2.86017
2.84093
2.82678
2.81114
2.79551
2.77917
2.75713
2.72925
2.70256
2.67964
2.65845
2.63792
2.61554
2.59241
2.5674
2.54638
2.54599
2.55919
2.59727
2.63449
2.68249
2.71436
2.71296
2.69677
2.67872
2.66811
2.65577
2.64188
2.6229
2.60054
2.59393
2.60286
2.64623
2.72712
2.80576
2.85587
2.87808
2.87172
2.8483
2.82389
2.81943
2.82494
2.83789
2.84517
2.84468
2.83915
2.82823
2.82172
2.8196
2.81679
3.59047
3.39831
3.23077
3.13438
3.1224
3.04077
2.90374
2.84543
2.80443
2.69826
2.56174
2.4293
2.473
2.81785
3.45968
3.65166
3.60635
3.48051
3.36178
3.29875
3.24519
3.19024
3.15992
3.15112
3.14996
3.13327
3.10829
3.07937
3.06354
3.05417
3.05191
3.04954
3.04247
3.03383
3.02134
3.01305
3.00839
3.00391
2.99441
2.98012
2.96042
2.9439
2.93512
2.92548
2.91259
2.89696
2.87745
2.85338
2.82955
2.8114
2.79742
2.78329
2.76342
2.73764
2.70695
2.67706
2.65544
2.63771
2.62117
2.60843
2.59489
2.59066
2.60194
2.6359
2.68029
2.71747
2.7587
2.76964
2.76243
2.74093
2.7108
2.68624
2.6703
2.65879
2.64758
2.63048
2.61313
2.60815
2.61548
2.65164
2.72748
2.80925
2.86748
2.89641
2.89377
2.87215
2.85149
2.8483
2.85426
2.86516
2.86778
2.8657
2.85647
2.84503
2.84084
2.83732
3.6967
3.60842
3.53712
3.50286
3.46826
3.33062
3.16272
3.06583
3.00347
2.93151
2.80718
2.66656
2.60248
2.65641
3.05053
3.55604
3.67674
3.6386
3.53391
3.43216
3.36248
3.29545
3.2411
3.21598
3.2029
3.18119
3.15154
3.11753
3.09469
3.08195
3.07566
3.07221
3.06417
3.05414
3.03784
3.02049
3.00983
3.00093
2.99197
2.98171
2.96809
2.9497
2.93479
2.92243
2.90986
2.89763
2.88349
2.86185
2.83223
2.81079
2.79762
2.78218
2.76234
2.73902
2.70761
2.67222
2.65197
2.63834
2.63274
2.63619
2.64598
2.66282
2.69415
2.7395
2.76269
2.78221
2.7989
2.79949
2.78834
2.76908
2.74406
2.71341
2.68917
2.67622
2.6674
2.65768
2.64313
2.62873
2.62415
2.63428
2.66344
2.73162
2.81424
2.87961
2.91122
2.91095
2.89778
2.88212
2.87769
2.88022
2.88566
2.88612
2.88271
2.87241
2.8633
2.85819
3.95677
3.96847
3.89403
3.82495
3.71711
3.54845
3.37809
3.26166
3.19725
3.13998
3.03131
2.89827
2.79459
2.75643
2.82383
3.21832
3.60815
3.69796
3.66955
3.5902
3.49467
3.41094
3.33024
3.27808
3.2537
3.23044
3.19878
3.1629
3.12913
3.11057
3.09945
3.09487
3.0854
3.07264
3.05334
3.02696
3.00895
2.99719
2.98865
2.98229
2.97311
2.95643
2.93382
2.91533
2.90311
2.8932
2.88145
2.86312
2.83455
2.80957
2.7947
2.77691
2.75651
2.73449
2.70556
2.66968
2.65222
2.64722
2.65547
2.67861
2.71533
2.75274
2.80329
2.83407
2.83365
2.82777
2.82014
2.81322
2.8004
2.78494
2.7686
2.74701
2.71972
2.69888
2.68841
2.68114
2.67336
2.66059
2.64789
2.64487
2.65563
2.68184
2.74026
2.82348
2.88709
2.92477
2.93419
2.92757
2.91331
2.90361
2.9038
2.9059
2.90576
2.90155
2.89142
2.88151
4.33625
4.29577
4.15379
4.04303
3.90531
3.74185
3.58947
3.46777
3.39034
3.33294
3.23351
3.09629
3.00332
2.92218
2.89544
2.97687
3.33169
3.6359
3.72269
3.71573
3.64425
3.5467
3.44444
3.35722
3.31604
3.28964
3.25808
3.2224
3.1806
3.14944
3.1327
3.12437
3.11222
3.09546
3.07269
3.03978
3.01323
2.99952
2.99124
2.98665
2.97792
2.96187
2.93592
2.91046
2.89805
2.89035
2.87975
2.86185
2.83731
2.81158
2.78961
2.76625
2.7448
2.72641
2.70454
2.68098
2.67197
2.67821
2.70087
2.7454
2.79249
2.83726
2.88329
2.8904
2.88505
2.86645
2.84123
2.8237
2.8095
2.79716
2.78648
2.77429
2.75614
2.73142
2.71462
2.70654
2.7012
2.69538
2.6838
2.67193
2.66871
2.67679
2.6996
2.75222
2.83051
2.89093
2.94303
2.95591
2.9505
2.94244
2.93331
2.92912
2.92751
2.92599
2.92045
2.90721
4.6956
4.53297
4.34779
4.22053
4.08067
3.92063
3.79216
3.68052
3.58099
3.51042
3.4188
3.28785
3.18661
3.12252
3.04194
3.01866
3.09842
3.39841
3.65853
3.7682
3.75949
3.68544
3.57794
3.46333
3.39272
3.357
3.32687
3.29199
3.249
3.20353
3.17954
3.1633
3.14506
3.12414
3.09861
3.06422
3.02983
3.01088
3.00098
2.99444
2.9829
2.96582
2.93986
2.90997
2.89591
2.89003
2.87829
2.86038
2.84028
2.8142
2.78461
2.75305
2.73422
2.71964
2.7115
2.71342
2.7228
2.74565
2.78546
2.83474
2.86789
2.90168
2.92377
2.92296
2.91512
2.89635
2.86686
2.83776
2.82169
2.81249
2.80545
2.79783
2.78746
2.7698
2.74732
2.73584
2.73024
2.72736
2.7221
2.70986
2.69761
2.6913
2.69668
2.71479
2.76299
2.82992
2.90158
2.94715
2.96596
2.97225
2.96868
2.96249
2.95571
2.94862
2.94268
2.93134
4.93022
4.70488
4.5287
4.40865
4.27143
4.10478
3.98488
3.89372
3.77679
3.68129
3.59716
3.47195
3.36914
3.3086
3.23831
3.13552
3.11768
3.18931
3.44435
3.69872
3.80852
3.78821
3.71318
3.59891
3.4985
3.43644
3.40085
3.36544
3.32274
3.2711
3.23687
3.20915
3.18169
3.15457
3.12609
3.093
3.05767
3.03041
3.01364
3.00119
2.98689
2.96932
2.94504
2.9121
2.8951
2.88759
2.87115
2.85664
2.83799
2.81154
2.77905
2.74406
2.73022
2.72895
2.73941
2.76273
2.79605
2.84042
2.8966
2.92377
2.93333
2.94254
2.94736
2.94421
2.93277
2.91424
2.88853
2.85663
2.83761
2.82956
2.82423
2.82089
2.81473
2.80426
2.78437
2.76451
2.75597
2.75198
2.75181
2.74719
2.73548
2.72075
2.70746
2.70946
2.72399
2.76561
2.82929
2.90138
2.94609
2.96932
2.9785
2.98369
2.9809
2.97239
2.96334
2.95111
5.09141
4.84973
4.70183
4.59904
4.46753
4.29979
4.17953
4.1
3.98242
3.85565
3.76712
3.66022
3.54796
3.48791
3.42392
3.32479
3.20945
3.20164
3.27217
3.49442
3.73332
3.82184
3.7992
3.72799
3.63438
3.54238
3.48199
3.43692
3.39021
3.33711
3.28949
3.25069
3.21482
3.18182
3.15082
3.11811
3.08279
3.04796
3.02158
3.00102
2.98602
2.96985
2.94178
2.90716
2.89664
2.88385
2.86429
2.84916
2.82637
2.80501
2.77567
2.75159
2.74545
2.75316
2.77965
2.82742
2.87859
2.93738
2.97474
2.97987
2.97959
2.97306
2.96932
2.96179
2.94583
2.9248
2.90336
2.88059
2.86066
2.85152
2.84732
2.84435
2.83937
2.82873
2.81425
2.79646
2.78406
2.77995
2.77993
2.77828
2.76778
2.75103
2.73112
2.71733
2.719
2.73146
2.7653
2.8239
2.88725
2.9368
2.9696
2.97959
2.98301
2.9837
2.98012
2.96735
5.24341
5.01516
4.89102
4.79809
4.66303
4.49145
4.37
4.29039
4.18113
4.03885
3.93416
3.84958
3.73739
3.6583
3.59719
3.50634
3.38612
3.2755
3.27778
3.34141
3.53438
3.73464
3.80511
3.78853
3.74338
3.67064
3.58807
3.51646
3.45634
3.39195
3.32836
3.27873
3.2389
3.20299
3.16982
3.13465
3.09369
3.05615
3.0304
3.00554
2.98039
2.95042
2.91656
2.89972
2.88421
2.85429
2.82741
2.80422
2.78931
2.77737
2.76794
2.76576
2.77559
2.80359
2.85276
2.90696
2.94822
2.98668
3.00515
3.00568
3.00044
2.98531
2.96067
2.93789
2.92209
2.91495
2.90965
2.89813
2.88188
2.86058
2.84371
2.83757
2.83639
2.83853
2.83235
2.82385
2.81162
2.794
2.78173
2.7788
2.77725
2.76915
2.75561
2.74113
2.72586
2.72194
2.72703
2.75048
2.7994
2.85848
2.91891
2.95963
2.96916
2.9738
2.97635
2.97343
5.30427
5.14344
5.04938
4.96834
4.83676
4.67205
4.55085
4.46817
4.36156
4.21977
4.09598
4.02041
3.92269
3.81967
3.74798
3.66188
3.55846
3.43019
3.34301
3.34191
3.38679
3.52988
3.69571
3.78003
3.7657
3.73869
3.68567
3.60678
3.5235
3.44074
3.36475
3.30264
3.25315
3.20994
3.16894
3.12821
3.08693
3.04896
3.0137
2.9795
2.94777
2.91932
2.89442
2.87445
2.85078
2.8161
2.78714
2.75766
2.74764
2.75016
2.75942
2.78501
2.82624
2.88083
2.93666
2.96203
2.98149
2.99678
3.00524
3.00284
2.99178
2.96553
2.93038
2.90144
2.89389
2.89265
2.89519
2.89242
2.88433
2.86787
2.84398
2.83098
2.82767
2.82844
2.83603
2.83342
2.82478
2.80852
2.78869
2.7783
2.77587
2.77851
2.77307
2.76102
2.74166
2.72075
2.7134
2.71558
2.73173
2.77028
2.8229
2.88632
2.93497
2.94486
2.95506
2.9571
5.29556
5.21538
5.14497
5.07688
4.95693
4.80245
4.69697
4.62146
4.52016
4.38281
4.25461
4.16475
4.07874
3.96345
3.87502
3.78745
3.68482
3.58339
3.46935
3.38337
3.36208
3.37677
3.47501
3.62555
3.72809
3.73025
3.70373
3.65414
3.57122
3.48595
3.41035
3.33769
3.27713
3.22772
3.17945
3.13436
3.09077
3.04405
2.99567
2.95167
2.91493
2.8834
2.85971
2.83678
2.80461
2.77441
2.74761
2.72577
2.7253
2.73538
2.76795
2.82229
2.88336
2.94509
2.97715
2.9803
2.9849
2.98495
2.98019
2.96878
2.95235
2.93301
2.90517
2.87879
2.87119
2.87064
2.87469
2.87744
2.87338
2.86408
2.84601
2.82832
2.8211
2.81897
2.82176
2.82613
2.82229
2.81278
2.79617
2.77874
2.77062
2.76639
2.7631
2.75436
2.74335
2.72767
2.71126
2.69922
2.69973
2.71108
2.73788
2.78007
2.83827
2.88422
2.91243
2.9272
5.24463
5.18765
5.13231
5.08263
4.98749
4.85894
4.76078
4.69127
4.59964
4.46617
4.33727
4.26599
4.19305
4.0908
3.95384
3.86924
3.78724
3.70197
3.6026
3.49005
3.39868
3.32948
3.33666
3.40922
3.54192
3.64439
3.65073
3.61589
3.5527
3.47367
3.39367
3.32077
3.25384
3.19262
3.13737
3.08851
3.04395
3.0007
2.95898
2.92104
2.88243
2.84324
2.81027
2.77956
2.75104
2.73183
2.71636
2.71491
2.72393
2.7503
2.80269
2.86286
2.91865
2.96662
2.98005
2.97655
2.95914
2.93115
2.91314
2.90337
2.89733
2.89278
2.88324
2.86565
2.851
2.84513
2.84274
2.84331
2.84495
2.84431
2.8398
2.82834
2.81475
2.80707
2.80404
2.80493
2.80579
2.80066
2.79174
2.77768
2.76421
2.75532
2.74853
2.741
2.73021
2.71857
2.70505
2.68946
2.67827
2.67564
2.68011
2.69875
2.73228
2.77988
2.8289
2.8767
5.1558
5.1087
5.06563
5.01172
4.92192
4.82708
4.75135
4.69932
4.62098
4.49103
4.36967
4.28912
4.21524
4.118
3.99658
3.88273
3.79649
3.71165
3.6241
3.52526
3.40471
3.314
3.26339
3.26941
3.32374
3.43615
3.51131
3.53587
3.5106
3.454
3.38335
3.30982
3.23549
3.16567
3.10462
3.0527
3.00712
2.96378
2.9224
2.88227
2.83864
2.79481
2.75456
2.71551
2.69762
2.69121
2.6982
2.71303
2.74054
2.79108
2.84571
2.88769
2.92941
2.94944
2.94605
2.93106
2.90676
2.87868
2.85412
2.84494
2.84208
2.84215
2.84273
2.83884
2.82943
2.81716
2.80993
2.80799
2.80806
2.81197
2.81435
2.81206
2.80469
2.79376
2.78516
2.78154
2.78007
2.77684
2.77112
2.76236
2.75081
2.73987
2.73091
2.72302
2.71442
2.70427
2.69066
2.67427
2.65733
2.64501
2.6372
2.64006
2.65409
2.68266
2.72123
2.79263
5.13829
5.08272
5.02432
4.95342
4.87113
4.79455
4.73157
4.67255
4.57442
4.45386
4.35307
4.28182
4.21554
4.12002
3.99852
3.888
3.80607
3.7229
3.63932
3.54557
3.43167
3.32514
3.24189
3.19204
3.18513
3.22813
3.30646
3.38097
3.42542
3.40702
3.35295
3.28423
3.20865
3.134
3.06709
3.00924
2.9596
2.91515
2.87283
2.83038
2.78457
2.739
2.6933
2.66241
2.65945
2.66725
2.68992
2.72824
2.78142
2.84126
2.86783
2.88172
2.88814
2.88667
2.87735
2.86629
2.85568
2.83898
2.81411
2.79563
2.79085
2.7898
2.7931
2.79788
2.79718
2.79223
2.78321
2.77752
2.77714
2.77906
2.78408
2.78572
2.78317
2.77589
2.76489
2.75777
2.75464
2.75176
2.74688
2.74041
2.73192
2.72165
2.71185
2.70327
2.69506
2.68501
2.67188
2.65479
2.63627
2.6189
2.60627
2.59993
2.60157
2.61219
2.63148
2.6935
5.16454
5.09483
5.02087
4.93933
4.85908
4.78413
4.71517
4.63618
4.53247
4.4262
4.33779
4.27544
4.20433
4.09983
3.97787
3.87867
3.80242
3.7222
3.6383
3.54686
3.44141
3.3337
3.24492
3.17481
3.12474
3.10522
3.12704
3.18852
3.27428
3.32156
3.29981
3.25112
3.1879
3.11705
3.04742
2.98181
2.92231
2.86962
2.82351
2.77941
2.73696
2.70026
2.66598
2.64454
2.64488
2.66504
2.70508
2.76242
2.8227
2.86001
2.86366
2.85435
2.83778
2.82222
2.81089
2.80466
2.80225
2.79547
2.78103
2.76141
2.75037
2.74833
2.75011
2.75748
2.76181
2.76175
2.75895
2.75237
2.74986
2.75056
2.75352
2.75748
2.75712
2.75357
2.74558
2.73627
2.73118
2.72767
2.72348
2.7177
2.71045
2.70159
2.69199
2.68304
2.67467
2.66539
2.65357
2.63846
2.6205
2.60271
2.58758
2.57604
2.56782
2.56515
2.5682
2.60308
5.19872
5.1238
5.04543
4.96548
4.88764
4.81016
4.72844
4.63351
4.53093
4.43389
4.35685
4.29199
4.20013
4.08526
3.97142
3.88474
3.81482
3.73656
3.64802
3.54781
3.44632
3.3533
3.26686
3.19032
3.12264
3.06518
3.02071
3.03081
3.09542
3.17689
3.21506
3.20851
3.16981
3.10878
3.03989
2.96796
2.89684
2.83141
2.7775
2.73338
2.70279
2.6802
2.65611
2.6479
2.65364
2.6867
2.75175
2.79841
2.84092
2.84988
2.84502
2.82619
2.80083
2.77282
2.75748
2.7541
2.75616
2.75525
2.7498
2.73869
2.72451
2.71972
2.72109
2.72811
2.73498
2.73717
2.73709
2.73198
2.72687
2.72763
2.73031
2.73515
2.7376
2.73594
2.72954
2.71878
2.71042
2.70521
2.70054
2.69562
2.69028
2.68454
2.67743
2.66796
2.65695
2.64534
2.63281
2.61911
2.60478
2.58991
2.57483
2.55936
2.54594
2.53191
2.52291
2.53458
5.23599
5.15599
5.0778
5.00066
4.92247
4.83947
4.7479
4.64927
4.55291
4.47
4.40233
4.317
4.20518
4.08632
3.99302
3.92204
3.85013
3.7611
3.65674
3.55135
3.46485
3.38446
3.30365
3.22167
3.14187
3.06257
2.9931
2.95332
2.96337
3.02252
3.08588
3.13392
3.13395
3.09476
3.034
2.96313
2.88904
2.81547
2.75423
2.712
2.68768
2.6762
2.66616
2.67868
2.72385
2.78402
2.80672
2.82439
2.8322
2.8276
2.81296
2.79222
2.77178
2.74845
2.72904
2.7239
2.72388
2.72236
2.72042
2.71778
2.7122
2.70749
2.70766
2.71029
2.71335
2.71538
2.71526
2.71278
2.71201
2.71442
2.71767
2.72044
2.72119
2.71854
2.71158
2.70219
2.69555
2.69145
2.68783
2.68482
2.68117
2.67556
2.66639
2.65372
2.64023
2.62815
2.6176
2.60817
2.5986
2.58701
2.57188
2.55198
2.53321
2.51542
2.5028
2.49743
5.25826
5.18169
5.10661
5.02923
4.94857
4.86358
4.77388
4.68329
4.59678
4.51784
4.43548
4.33042
4.21571
4.11858
4.0406
3.9682
3.88086
3.77912
3.66753
3.57422
3.49717
3.42226
3.34432
3.25936
3.16555
3.07121
2.99157
2.93792
2.91142
2.91311
2.95109
3.00614
3.05654
3.05138
3.01448
2.95712
2.88935
2.81862
2.75605
2.71172
2.69578
2.69188
2.72191
2.76324
2.82453
2.85397
2.84923
2.83299
2.81408
2.79542
2.77522
2.7609
2.75118
2.73918
2.72145
2.70477
2.69981
2.69839
2.70072
2.70597
2.70837
2.70707
2.70208
2.69844
2.69789
2.69968
2.70437
2.7092
2.71193
2.71325
2.71246
2.70998
2.7076
2.70532
2.70308
2.70015
2.69639
2.69328
2.68995
2.68532
2.6779
2.66766
2.65545
2.64411
2.63463
2.62611
2.6179
2.61003
2.60192
2.59114
2.57355
2.55081
2.52928
2.51289
2.50003
2.48734
5.26633
5.19406
5.12187
5.04589
4.96613
4.88292
4.79745
4.71199
4.62871
4.5466
4.45088
4.34328
4.24323
4.15901
4.0837
3.99945
3.89988
3.78836
3.68592
3.60548
3.53246
3.45831
3.37971
3.28668
3.1824
3.08509
3.00476
2.94368
2.89858
2.86822
2.85074
2.86907
2.926
2.96415
2.9646
2.93936
2.88954
2.83157
2.77523
2.73409
2.72795
2.75799
2.80311
2.84879
2.89084
2.8923
2.87322
2.83622
2.79805
2.76496
2.74661
2.73834
2.73432
2.72696
2.71442
2.69474
2.68322
2.68221
2.68614
2.69538
2.70045
2.70151
2.69701
2.68951
2.68963
2.69344
2.70164
2.70942
2.71198
2.7123
2.70793
2.70343
2.703
2.70328
2.7046
2.70591
2.70445
2.70074
2.69347
2.68312
2.67165
2.66165
2.65295
2.64467
2.63728
2.63073
2.62439
2.61614
2.60425
2.5891
2.57106
2.55177
2.53253
2.51565
2.50301
2.48619
5.26097
5.19238
5.12324
5.04988
4.97285
4.89288
4.81124
4.72896
4.64599
4.55699
4.4577
4.3582
4.26799
4.19008
4.11323
4.0167
3.90875
3.79951
3.71059
3.63466
3.5605
3.48192
3.39605
3.29899
3.19752
3.10593
3.02778
2.96154
2.90576
2.85564
2.80414
2.76658
2.7858
2.83908
2.87542
2.89918
2.88184
2.85096
2.80955
2.79236
2.81399
2.85767
2.88328
2.91128
2.91803
2.90222
2.86889
2.83049
2.78992
2.75216
2.73092
2.72273
2.71733
2.71059
2.70236
2.68772
2.6746
2.67269
2.67635
2.68413
2.68871
2.69065
2.68882
2.6864
2.68936
2.69457