/*--------------------------------*- C++ -*----------------------------------*\
  =========                 |
  \\      /  F ield         | OpenFOAM: The Open Source CFD Toolbox
   \\    /   O peration     | Website:  https://openfoam.org
    \\  /    A nd           | Version:  7
     \\/     M anipulation  |
\*---------------------------------------------------------------------------*/
FoamFile
{
    version     2.0;
    format      ascii;
    class       volScalarField;
    location    "12.5";
    object      T;
}
// * * * * * * * * * * * * * * * * * * * * * * * * * * * * * * * * * * * * * //

dimensions      [0 0 0 1 0 0 0];

internalField   nonuniform List<scalar> 
4032
(
1
1
1
1
1
1
1
1
1
1
1
1.17265
2.41327
2.71631
2.72669
2.74201
2.75544
2.76821
2.77986
2.79013
2.79904
2.80614
2.81151
2.81542
1
1
1
1
1
1
1
1
1
1
1
1.15513
2.39924
2.71518
2.72606
2.74066
2.75386
2.76637
2.77769
2.78747
2.79581
2.80234
2.80712
2.81083
1
1
1
1
1
1
1
1
1
1
1
1.1017
2.36152
2.71232
2.72294
2.73769
2.75101
2.76348
2.7746
2.784
2.79177
2.79768
2.80151
2.80466
1
1
1
1
1
1
1
1
1
1
1
1.00737
2.29359
2.70444
2.71806
2.73304
2.74594
2.7576
2.76806
2.77703
2.78454
2.79013
2.79329
2.7957
1
1
1
1
1
1
1
1
1
1
1
1.00006
2.21152
2.6886
2.70743
2.72301
2.73657
2.74829
2.75845
2.76662
2.7727
2.77678
2.77844
2.78121
1
1
1
1
1
1
1
1
1
1
1
1
2.09708
2.66988
2.69826
2.71262
2.72599
2.73695
2.74614
2.75354
2.75903
2.76217
2.7605
2.7549
1
1
1
1
1
1
1
1
1
1
1
1
1.93878
2.6345
2.68243
2.69817
2.71179
2.72203
2.72978
2.73499
2.73658
2.73303
2.72474
2.71747
1
1
1
1
1
1
1
1
1
1
1
1
1.72182
2.56456
2.65578
2.67918
2.69501
2.70536
2.71129
2.71335
2.71056
2.70529
2.69983
2.7108
1
1
1
1
1
1
1
1
1
1
1
1
1.41012
2.44055
2.62941
2.65488
2.67318
2.68471
2.68891
2.6879
2.67976
2.66115
2.60935
2.5091
1
1
1
1
1
1
1
1
1
1
1
1
1.05139
2.308
2.62983
2.63183
2.6423
2.65317
2.65782
2.65467
2.6417
2.60859
2.55071
2.38843
1
1
1
1
1
1
1
1
1
1
1
1
1.00061
2.13975
2.58878
2.59712
2.60819
2.61565
2.62007
2.61562
2.60062
2.56196
2.49784
2.31331
1
1
1
1
1
1
1
1
1
1
1
1
0.999994
1.83252
2.52392
2.58155
2.58987
2.58892
2.58743
2.57927
2.56044
2.52187
2.44948
2.29079
1
1
1
1
1
1
1
1
1
1
1
1
0.999998
1.37373
2.37974
2.56313
2.56325
2.5617
2.55645
2.54387
2.52102
2.483
2.40905
2.28991
1
1
1
1
1
1
1
1
1
1
1
1
1
1.03841
2.19468
2.5224
2.53298
2.53209
2.52626
2.51206
2.48793
2.44787
2.37935
2.28875
1
1
1
1
1
1
1
1
1
1
1
1
1
1.00023
1.82787
2.43921
2.51091
2.5079
2.50052
2.48345
2.45889
2.41659
2.35641
2.28398
1
1
1
1
1
1
1
1
1
1
1
1
1
0.999998
1.24022
2.27986
2.49113
2.47788
2.46995
2.45469
2.4286
2.3913
2.33974
2.27808
1
1
1
1
1
1
1
1
1
1
1
1
1
1
1.01338
2.08292
2.44103
2.43185
2.43052
2.42074
2.4001
2.36857
2.32436
2.27051
1
1
1
1
1
1
1
1
1
1
1
1
1
1
1.00001
1.58489
2.32427
2.41239
2.40589
2.39355
2.37392
2.34527
2.30679
2.26019
1
1
1
1
1
1
1
1
1
1
1
1
1
1
0.999998
1.08901
2.1158
2.39058
2.38265
2.36781
2.34683
2.31995
2.28576
2.24632
1
1
1
1
1
1
1
1
1
1
1
1
1
1
0.999999
1.00156
1.66602
2.27703
2.36039
2.34107
2.32105
2.29562
2.265
2.23388
1
1
1
1
1
1
1
1
1
1
1
1
1
1
1
1
1.13037
2.07743
2.33514
2.3145
2.29738
2.27294
2.24916
2.24238
1
1
1
1
1
1
1
1
1
1
1
1
1
1
1
1
1.00356
1.62809
2.20701
2.29023
2.26928
2.2482
2.25444
2.27676
1
1
1
1
1
1
1
1
1
1
1
1
1
1
1
1
1.00001
1.11937
1.98726
2.26391
2.2462
2.25704
2.30061
2.34095
1
1
1
1
1
1
1
1
1
1
1
1
1
1
1
1
1
1.00308
1.47071
2.10187
2.21375
2.2938
2.35115
2.38355
1
1
1
1
1
1
1
1
1
1
1
1
1
1
1
1
1
1.00001
1.06325
1.82372
2.22995
2.35722
2.39298
2.38107
1
1
1
1
1
1
1
1
1
1
1
1
1
1
1
1
1
1
1.00102
1.27717
2.22816
2.42953
2.40022
2.37857
1
1
1
1
1
1
1
1
1
1
1
1
1
1
1
1
1
1
1
1.02318
2.31226
2.52438
2.45666
2.41007
1
1
1
1
1
1
1
1
1
1
1
1
1
1
1
1
1
1
1
1.00015
2.28259
2.59402
2.52272
2.4688
1
1
1
1
1
1
1
1
1
1
1
1
1
1
1
1
1
1
1
1
2.19816
2.65529
2.60686
2.5626
1
1
1
1
1
1
1
1
1
1
1
1
1
1
1
1
1
1
1
1
2.08532
2.6536
2.64598
2.61756
1
1
1
1
1
1
1
1
1
1
1
1
1
1
1
1
1
1
1
1
1.93786
2.62772
2.65273
2.63359
1
1
1
1
1
1
1
1
1
1
1
1
1
1
1
1
1
1
1
1
1.78105
2.57938
2.65453
2.63653
1
1
1
1
1
1
1
1
1
1
1
1
1
1
1
1
1
1
1
1
1.62982
2.53294
2.65101
2.62993
1
1
1
1
1
1
1
1
1
1
1
1
1
1
1
1
1
1
1
1
1.49012
2.49615
2.64929
2.62486
1
1
1
1
1
1
1
1
1
1
1
1
1
1
1
1
1
1
1
1
1.36385
2.46619
2.65333
2.62675
1
1
1
1
1
1
1
1
1
1
1
1
1
1
1
1
1
1
1
1
1.27674
2.4431
2.66228
2.63464
1
1
1
1
1
1
1
1
1
1
1
1
1
1
1
1
1
1
1
1
1.22593
2.42379
2.66996
2.64347
1
1
1
1
1
1
1
1
1
1
1
1
1
1
1
1
1
1
1
1
1.19222
2.40541
2.67317
2.64935
1
1
1
1
1
1
1
1
1
1
1
1
1
1
1
1
1
1
1
1
1.16724
2.38904
2.67327
2.65147
1
1
1
1
1
1
1
1
1
1
1
1
1
1
1
1
1
1
1
1
1.15683
2.3821
2.67198
2.6513
1.68923
1.12837
0.941476
1.03536
1.2153
2.3143
2.91705
2.87692
2.92203
2.93713
2.89487
2.85968
2.84729
2.83467
2.82287
2.81897
2.82306
2.82963
2.83423
2.83224
2.82626
2.82089
2.81889
2.81889
2.81847
2.81526
2.80968
2.80369
2.79817
2.79297
2.78776
2.78221
2.77663
2.7715
2.76703
2.76276
2.75737
2.74971
2.73957
2.72835
2.71726
2.70714
2.69774
2.68825
2.67746
2.66477
2.65093
2.63753
2.62579
2.61565
2.60625
2.59607
2.58421
2.57139
2.55891
2.54739
2.53672
2.52558
2.51246
2.49788
2.48349
2.4702
2.45797
2.44548
2.43121
2.41575
2.40093
2.38822
2.38096
2.37543
2.38026
2.40947
2.49639
2.54146
2.53831
2.53583
2.53155
2.52572
2.51873
2.51113
2.50408
2.49839
2.49513
2.49419
2.494
2.49377
2.4928
2.49134
2.48992
2.48906
2.48886
2.48881
2.48773
2.48541
2.48283
2.48037
1.93991
1.62321
1.40251
1.33288
1.33958
1.6166
2.57633
2.84019
2.89996
2.92665
2.90397
2.8644
2.85117
2.84438
2.8381
2.83176
2.82689
2.82365
2.82323
2.82086
2.81363
2.80526
2.79928
2.79664
2.79627
2.79612
2.79367
2.78849
2.78198
2.77543
2.76971
2.76467
2.75955
2.75331
2.74566
2.73746
2.73008
2.72397
2.71801
2.7106
2.7001
2.68716
2.67352
2.66099
2.65013
2.64006
2.62893
2.61596
2.60226
2.58961
2.57891
2.56979
2.56007
2.54784
2.53442
2.52189
2.51157
2.50311
2.49416
2.48218
2.46813
2.45409
2.44097
2.42887
2.41617
2.40135
2.38649
2.37333
2.36465
2.35961
2.36505
2.39345
2.47559
2.52663
2.5261
2.52402
2.51795
2.51132
2.50541
2.50003
2.49442
2.48838
2.48346
2.48023
2.47891
2.47956
2.48109
2.48154
2.47977
2.4769
2.47427
2.47279
2.47274
2.4731
2.47327
2.47114
2.02902
1.84423
1.67394
1.50532
1.43302
1.40377
1.67996
2.34888
2.69231
2.7611
2.81677
2.85761
2.86023
2.84935
2.8375
2.82631
2.8091
2.78986
2.77904
2.77652
2.77691
2.77501
2.76888
2.76172
2.75765
2.75806
2.76025
2.75975
2.75428
2.74435
2.73305
2.72374
2.71647
2.70951
2.70051
2.6885
2.67481
2.66302
2.65499
2.6495
2.64436
2.63538
2.62094
2.60486
2.58977
2.57702
2.5668
2.55709
2.5451
2.5311
2.51742
2.50596
2.49704
2.48802
2.47576
2.46211
2.4496
2.43957
2.43227
2.42552
2.41583
2.40372
2.39109
2.37915
2.36801
2.35738
2.34684
2.33663
2.32808
2.32166
2.32341
2.34406
2.41143
2.47768
2.4864
2.48242
2.47424
2.46527
2.45802
2.45263
2.45055
2.44927
2.44617
2.44228
2.43851
2.43687
2.4376
2.44115
2.44467
2.44499
2.44314
2.43865
2.43561
2.43542
2.43782
2.44215
2.0943
1.94392
1.82981
1.69899
1.55856
1.48996
1.49132
1.70172
2.16563
2.47758
2.62629
2.74047
2.79217
2.78645
2.76752
2.76277
2.75438
2.73877
2.72193
2.71358
2.71356
2.71495
2.71228
2.7015
2.68805
2.6773
2.67203
2.67014
2.66632
2.65578
2.63976
2.62342
2.60995
2.59943
2.5905
2.58063
2.56775
2.55251
2.53882
2.5282
2.52118
2.51594
2.50765
2.4942
2.4801
2.46677
2.45492
2.44505
2.43568
2.42384
2.41058
2.39826
2.38846
2.38116
2.37287
2.36307
2.35204
2.3416
2.33365
2.32748
2.32096
2.31286
2.30312
2.29148
2.27941
2.26901
2.2618
2.2576
2.2552
2.25673
2.26125
2.27384
2.31294
2.37856
2.40505
2.40266
2.39576
2.38889
2.38163
2.37397
2.36879
2.36743
2.3684
2.36888
2.36853
2.36645
2.36387
2.36389
2.3665
2.37081
2.37393
2.37497
2.37461
2.37245
2.37162
2.37431
2.14838
2.01504
1.91182
1.81725
1.70474
1.60118
1.54214
1.5398
1.70048
2.02943
2.32371
2.52283
2.57837
2.62482
2.62519
2.62583
2.63055
2.62713
2.61452
2.60083
2.58962
2.58324
2.57939
2.57089
2.55484
2.53857
2.52681
2.51996
2.51648
2.51231
2.503
2.48905
2.47474
2.46247
2.45244
2.44433
2.43584
2.42474
2.41094
2.39754
2.38678
2.37966
2.37408
2.3642
2.35338
2.34285
2.33258
2.32352
2.31646
2.30745
2.29626
2.28498
2.27594
2.26871
2.2608
2.25271
2.24399
2.23497
2.22761
2.22072
2.21407
2.20735
2.20034
2.19251
2.18308
2.17329
2.16626
2.16547
2.16764
2.17383
2.18493
2.19361
2.20827
2.24898
2.28904
2.30698
2.30304
2.2956
2.29034
2.28465
2.27858
2.27581
2.27566
2.27768
2.28023
2.2814
2.28106
2.2785
2.27665
2.27764
2.28102
2.28543
2.28884
2.29074
2.29095
2.28987
2.18593
2.07674
1.97695
1.89233
1.80235
1.70708
1.63984
1.56812
1.57551
1.72122
2.03686
2.31006
2.45982
2.44522
2.44117
2.4396
2.44675
2.45138
2.44592
2.43517
2.42912
2.42383
2.42237
2.42114
2.41205
2.39839
2.38626
2.3774
2.37264
2.3701
2.36629
2.35808
2.34698
2.33723
2.32973
2.32364
2.31839
2.31154
2.30015
2.28679
2.27569
2.26774
2.26255
2.25389
2.24461
2.23531
2.22754
2.22132
2.21671
2.20946
2.2006
2.19007
2.18155
2.17529
2.16856
2.16147
2.15376
2.14574
2.13692
2.12805
2.12112
2.11547
2.10923
2.1025
2.09558
2.08837
2.08465
2.08565
2.09269
2.10236
2.11677
2.12502
2.12443
2.13409
2.16359
2.19536
2.21696
2.21621
2.20942
2.20113
2.19448
2.19081
2.19093
2.19292
2.19577
2.19782
2.19884
2.19828
2.19576
2.19492
2.19652
2.19977
2.20376
2.20671
2.20847
2.2083
2.2023
2.1144
2.02673
1.94885
1.86977
1.78115
1.7182
1.66258
1.61504
1.63543
1.8288
2.16466
2.38948
2.36552
2.31726
2.29485
2.29133
2.30172
2.30556
2.30194
2.29521
2.29396
2.29538
2.29823
2.29512
2.28642
2.27765
2.27074
2.26636
2.26515
2.26454
2.25988
2.25105
2.24399
2.23927
2.23657
2.23491
2.2324
2.2236
2.2119
2.20246
2.19563
2.19045
2.18202
2.17367
2.16445
2.15729
2.15215
2.14808
2.14255
2.13581
2.1281
2.12038
2.11317
2.1062
2.09947
2.09287
2.08559
2.07744
2.06843
2.05943
2.05184
2.04534
2.04041
2.03571
2.0321
2.031
2.03542
2.04691
2.05748
2.07097
2.07523
2.07084
2.06456
2.07083
2.09189
2.12197
2.14351
2.14996
2.14479
2.13679
2.12917
2.12654
2.12791
2.13108
2.13427
2.13579
2.13587
2.13434
2.13228
2.13228
2.13393
2.13676
2.13921
2.14027
2.1406
2.2118
2.13616
2.05903
1.98948
1.92424
1.84848
1.78124
1.76373
1.72597
1.72602
1.76845
2.00788
2.28044
2.36448
2.31553
2.26362
2.23169
2.22979
2.23363
2.23064
2.22134
2.21282
2.21274
2.21591
2.21632
2.21207
2.20507
2.19939
2.19512
2.19414
2.19442
2.19169
2.18508
2.17933
2.17605
2.17515
2.17514
2.17457
2.16845
2.15905
2.15096
2.14485
2.13935
2.13177
2.12401
2.11484
2.10757
2.10327
2.10029
2.09593
2.09025
2.08365
2.0757
2.06747
2.06128
2.05629
2.05086
2.04388
2.03592
2.02636
2.01668
2.00864
2.0037
2.0011
1.99986
2.00123
2.00482
2.01513
2.02483
2.03177
2.03836
2.03925
2.03561
2.02708
2.01959
2.02419
2.04174
2.06704
2.08805
2.10328
2.10146
2.09596
2.0891
2.08472
2.08546
2.08827
2.09175
2.0932
2.09309
2.09153
2.08976
2.08959
2.09038
2.09198
2.09245
2.09272
2.21218
2.14773
2.07915
2.01814
1.97061
1.91736
1.87127
1.8734
1.87301
1.84315
1.82638
1.87616
2.13526
2.31706
2.33017
2.28663
2.2394
2.2151
2.2126
2.20782
2.19701
2.18288
2.17623
2.17747
2.17845
2.1745
2.1671
2.16015
2.1559
2.15316
2.15316
2.15108
2.14594
2.14093
2.13743
2.13634
2.13659
2.13627
2.13138
2.12367
2.11612
2.11063
2.10578
2.09948
2.0929
2.08489
2.07692
2.07214
2.06832
2.06333
2.05801
2.05236
2.04505
2.03664
2.0304
2.02531
2.0196
2.01339
2.00614
1.99771
1.98816
1.98013
1.97752
1.97791
1.98318
1.99049
2.00085
2.01379
2.01656
2.01672
2.01502
2.01412
2.01014
2.00328
1.99507
1.98886
1.9914
2.00647
2.03089
2.05372
2.06834
2.07335
2.07036
2.06366
2.0581
2.0578
2.05987
2.06331
2.0651
2.06516
2.06394
2.06152
2.06035
2.06025
2.06032
2.06022
2.2098
2.1554
2.09839
2.05234
2.03054
2.00593
1.97909
1.98064
1.97827
1.94464
1.8949
1.89303
1.97131
2.20543
2.31377
2.30475
2.26791
2.22839
2.21203
2.20362
2.19179
2.1762
2.16536
2.16313
2.16291
2.15714
2.14874
2.14004
2.13503
2.13144
2.13012
2.12782
2.12355
2.11895
2.11471
2.11248
2.11202
2.11098
2.10666
2.10034
2.09296
2.08767
2.08377
2.07889
2.07299
2.06611
2.05787
2.05131
2.04615
2.04055
2.03504
2.02967
2.02305
2.01525
2.00802
2.00168
1.99565
1.98972
1.98326
1.97664
1.96918
1.96299
1.9633
1.96808
1.98054
1.9919
2.00492
2.01278
2.01174
2.00585
1.99895
1.99466
1.99016
1.98518
1.97864
1.97175
1.96696
1.96869
1.98131
2.00527
2.02801
2.04336
2.05273
2.05128
2.04521
2.0393
2.03832
2.03995
2.04361
2.04526
2.04492
2.04294
2.03959
2.03782
2.03736
2.03693
2.20618
2.16795
2.13211
2.11384
2.11654
2.0999
2.06599
2.05159
2.04141
2.01194
1.97082
1.9295
1.94255
2.04937
2.23649
2.29558
2.28436
2.25246
2.22129
2.20484
2.19107
2.17548
2.16346
2.15737
2.15415
2.1468
2.13764
2.12737
2.121
2.11668
2.11419
2.11152
2.10747
2.10294
2.09753
2.09379
2.09149
2.08924
2.08554
2.08051
2.07387
2.06787
2.06396
2.05981
2.05482
2.04912
2.04234
2.03451
2.0268
2.02064
2.01571
2.01083
2.00454
1.99704
1.98841
1.97999
1.97404
1.96916
1.96464
1.96097
1.95676
1.95649
1.96022
1.97132
1.98427
1.99405
2.00457
2.00694
2.00445
1.99726
1.9873
1.97901
1.97349
1.96931
1.96501
1.95907
1.95362
1.94956
1.95088
1.96114
1.9835
2.00625
2.02381
2.0343
2.03397
2.02892
2.02369
2.02268
2.02423
2.02693
2.02728
2.02626
2.02316
2.01991
2.01882
2.0178
2.21084
2.20047
2.19422
2.19309
2.18922
2.15914
2.11913
2.09568
2.08082
2.0626
2.02801
1.98606
1.96834
1.98422
2.09912
2.23909
2.27567
2.26594
2.23937
2.21356
2.19553
2.17801
2.16172
2.15205
2.14628
2.13848
2.12849
2.11691
2.10835
2.1029
2.09927
2.0964
2.0921
2.08715
2.08057
2.0741
2.0698
2.06623
2.06276
2.05888
2.05384
2.04737
2.042
2.03741
2.03293
2.02853
2.02339
2.01608
2.00668
1.99978
1.99532
1.99015
1.98386
1.97693
1.96797
1.9579
1.95212
1.94853
1.94724
1.94823
1.95143
1.95725
1.96705
1.98003
1.98657
1.99154
1.99554
1.99516
1.99116
1.98438
1.97585
1.96598
1.95808
1.95353
1.95015
1.94638
1.94124
1.93649
1.93266
1.93456
1.94243
1.96215
1.98486
2.004
2.01422
2.0161
2.01264
2.0084
2.00681
2.00728
2.00829
2.00807
2.00659
2.00356
2.00124
1.99974
2.24761
2.2634
2.25647
2.24986
2.23038
2.19387
2.15559
2.12906
2.11475
2.10138
2.07327
2.03634
2.00667
1.99727
2.01701
2.12761
2.23129
2.25696
2.24922
2.22861
2.20499
2.18322
2.16149
2.14573
2.13741
2.12961
2.11943
2.10775
2.09631
2.08906
2.08394
2.08059
2.07577
2.06997
2.06244
2.05323
2.04655
2.04183
2.03816
2.03514
2.0312
2.02505
2.01745
2.01135
2.00712
2.0036
1.99952
1.99334
1.98435
1.97665
1.97182
1.96611
1.95982
1.95341
1.94522
1.93494
1.92955
1.92837
1.93079
1.93798
1.9493
1.9601
1.97424
1.98269
1.98331
1.98164
1.97897
1.97613
1.97134
1.96564
1.95976
1.95266
1.94412
1.93743
1.93374
1.93087
1.92764
1.92287
1.91825
1.91487
1.91678
1.92346
1.93991
1.96269
1.98078
1.99241
1.99698
1.99512
1.99111
1.9884
1.98794
1.98812
1.98778
1.98641
1.98391
1.98137
2.31078
2.31057
2.29265
2.27714
2.25142
2.21813
2.18696
2.16121
2.14455
2.132
2.10793
2.07226
2.04682
2.02412
2.01838
2.03975
2.13593
2.21525
2.23842
2.23561
2.21621
2.19135
2.16495
2.14107
2.12848
2.12019
2.11051
2.09934
2.08606
2.07526
2.06836
2.06378
2.05811
2.05115
2.04265
2.03166
2.0225
2.01685
2.01273
2.00968
2.00553
1.99944
1.99085
1.98299
1.97899
1.97642
1.97293
1.96723
1.95973
1.95216
1.94565
1.93871
1.93254
1.9272
1.92109
1.91448
1.91146
1.91334
1.92023
1.93322
1.94659
1.9587
1.97008
1.97288
1.97141
1.96614
1.95873
1.95308
1.94817
1.94367
1.93967
1.93541
1.9297
1.92221
1.91683
1.91375
1.91122
1.90837
1.90389
1.89954
1.89651
1.89766
1.90316
1.91748
1.93884
1.95558
1.97104
1.9759
1.97499
1.97304
1.97031
1.96894
1.96823
1.9677
1.9664
1.9633
2.36043
2.33444
2.30814
2.28959
2.2649
2.2349
2.21158
2.19004
2.1691
2.15414
2.13332
2.1012
2.07481
2.0576
2.03531
2.02831
2.04761
2.12704
2.19281
2.22094
2.21759
2.1979
2.16947
2.13942
2.11956
2.10897
2.0999
2.08922
2.07582
2.06131
2.05237
2.0457
2.0385
2.03048
2.02131
2.01005
1.9989
1.99174
1.98689
1.98297
1.97789
1.9716
1.96337
1.95476
1.95082
1.9491
1.94559
1.94035
1.93455
1.92693
1.91836
1.90948
1.90423
1.90018
1.89827
1.89887
1.90207
1.90903
1.92055
1.93342
1.9416
1.95008
1.95532
1.95492
1.95248
1.94702
1.93891
1.93079
1.92592
1.92261
1.91978
1.9169
1.91359
1.9085
1.90179
1.89777
1.89522
1.89345
1.89111
1.88708
1.88328
1.87991
1.88042
1.88464
1.89782
1.91623
1.93544
1.94858
1.95484
1.95735
1.95673
1.95519
1.95308
1.95115
1.94961
1.94699
2.36811
2.33414
2.31116
2.29623
2.27558
2.24734
2.22739
2.2119
2.18864
2.1686
2.15045
2.12147
2.09612
2.08031
2.06116
2.03532
2.02559
2.04166
2.10638
2.16814
2.19713
2.19189
2.17148
2.14095
2.11475
2.09744
2.08677
2.07614
2.06316
2.04745
2.03618
2.02694
2.0178
2.00853
1.99886
1.98823
1.97717
1.96831
1.96228
1.95736
1.95199
1.94603
1.93857
1.92942
1.92524
1.9232
1.91869
1.91476
1.9094
1.90153
1.89175
1.88198
1.87869
1.87868
1.88214
1.88969
1.89992
1.91233
1.92697
1.933
1.93469
1.93677
1.9378
1.93694
1.93374
1.92839
1.92132
1.91283
1.90768
1.90518
1.90331
1.90203
1.9002
1.89753
1.8922
1.88654
1.88349
1.8816
1.88095
1.87937
1.8764
1.87237
1.86784
1.86778
1.8714
1.88282
1.89986
1.91893
1.93094
1.93786
1.94105
1.94277
1.94228
1.9404
1.93788
1.93474
2.35593
2.32512
2.30866
2.29821
2.28113
2.25475
2.23551
2.22351
2.20237
2.17693
2.15853
2.13523
2.1094
2.09423
2.07731
2.05107
2.02341
2.0134
2.02907
2.08272
2.13871
2.16173
2.1572
2.13927
2.11495
2.09096
2.07484
2.06205
2.04865
2.03372
2.02014
2.00887
1.99821
1.98801
1.97822
1.96853
1.95847
1.94869
1.94154
1.93589
1.93081
1.92521
1.91722
1.90826
1.90472
1.90027
1.89481
1.89094
1.88497
1.87913
1.87085
1.86542
1.86539
1.86798
1.8758
1.88968
1.90343
1.91844
1.92747
1.92858
1.92896
1.92793
1.92712
1.92479
1.92026
1.91512
1.90967
1.90364
1.89856
1.8962
1.89524
1.89491
1.89413
1.89149
1.88793
1.8835
1.88042
1.87905
1.87853
1.87771
1.87472
1.87035
1.86453
1.86119
1.86153
1.8646
1.87336
1.88898
1.90559
1.91846
1.92708
1.92992
1.93123
1.93235
1.93181
1.92897
2.35036
2.32115
2.30955
2.3013
2.28397
2.25685
2.23795
2.22673
2.20896
2.18236
2.16152
2.1438
2.11964
2.10139
2.0859
2.06286
2.03246
2.00517
2.00199
2.01414
2.05806
2.10347
2.12117
2.11924
2.10994
2.09222
2.07174
2.05408
2.03937
2.02358
2.00762
1.99444
1.98341
1.97329
1.96403
1.95498
1.94519
1.93609
1.92955
1.92322
1.91682
1.9091
1.90027
1.89509
1.88975
1.88063
1.87318
1.86697
1.86369
1.86137
1.86076
1.86135
1.86479
1.87273
1.88568
1.89967
1.91032
1.92058
1.92549
1.92776
1.92673
1.92304
1.91652
1.90997
1.90571
1.90488
1.90452
1.9024
1.89846
1.89329
1.88957
1.88847
1.88836
1.88909
1.88761
1.88564
1.8831
1.87919
1.87602
1.87458
1.87328
1.87032
1.86652
1.86307
1.8594
1.85923
1.86098
1.86746
1.88028
1.89578
1.91134
1.92183
1.92393
1.92522
1.92713
1.92725
2.36405
2.33375
2.31942
2.30821
2.28834
2.26174
2.24286
2.2309
2.21352
2.1874
2.16311
2.14858
2.12888
2.1074
2.09066
2.07044
2.04589
2.01468
1.99457
1.99312
2.00303
2.0343
2.07035
2.08847
2.0909
2.08769
2.07717
2.05948
2.04003
2.02025
2.00233
1.98794
1.97627
1.96587
1.95624
1.94701
1.93831
1.93029
1.92224
1.91441
1.90761
1.90127
1.89474
1.88857
1.88202
1.87326
1.86558
1.85775
1.85597
1.85702
1.86029
1.86741
1.87801
1.89178
1.90607
1.91326
1.91935
1.92495
1.92869
1.92844
1.92594
1.91932
1.91069
1.90305
1.90098
1.90064
1.90191
1.90194
1.90072
1.89724
1.89132
1.88787
1.88697
1.88749
1.88998
1.88971
1.88805
1.88412
1.87893
1.87587
1.8749
1.8755
1.87435
1.87137
1.86593
1.86111
1.8607
1.86166
1.86685
1.87785
1.89176
1.90823
1.921
1.923
1.92546
1.92661
2.42336
2.38599
2.35925
2.33795
2.31104
2.28152
2.26207
2.24813
2.22919
2.20287
2.17799
2.16081
2.14357
2.1198
2.10233
2.08284
2.05938
2.03578
2.00974
1.99208
1.98894
1.99453
2.02027
2.05416
2.07717
2.08502
2.08074
2.07118
2.05356
2.03483
2.0183
2.00218
1.98825
1.97679
1.96588
1.95593
1.94652
1.93637
1.9256
1.91558
1.90722
1.89986
1.89408
1.8884
1.88035
1.87309
1.86572
1.86055
1.86053
1.86322
1.8717
1.88615
1.90229
1.91846
1.92767
1.93041
1.93282
1.93418
1.93336
1.93043
1.92594
1.92132
1.91485
1.90805
1.90568
1.9054
1.90639
1.90734
1.90681
1.9049
1.90013
1.89552
1.89399
1.89379
1.89525
1.89713
1.89642
1.89409
1.88968
1.88516
1.88348
1.88294
1.88262
1.88073
1.8778
1.87392
1.86986
1.86747
1.86824
1.87246
1.88111
1.89355
1.90931
1.92141
1.92838
1.93173
2.51538
2.47104
2.43362
2.40292
2.36759
2.33184
2.30564
2.28682
2.2647
2.23602
2.20936
2.19429
2.17877
2.15675
2.12896
2.11249
2.09568
2.0785
2.05793
2.03332
2.01398
2.00417
2.00886
2.03013
2.063
2.08788
2.09228
2.0858
2.07354
2.05742
2.04003
2.02296
2.00673
1.99196
1.97884
1.96741
1.95691
1.94675
1.93683
1.9273
1.91744
1.90768
1.89977
1.89249
1.88521
1.88015
1.87565
1.87492
1.87741
1.88491
1.89969
1.91639
1.93225
1.9467
1.9517
1.95178
1.94787
1.94077
1.93619
1.93377
1.93197
1.93058
1.9279
1.92338
1.91982
1.91847
1.91787
1.91806
1.91853
1.91835
1.91726
1.9145
1.91125
1.90961
1.90927
1.90982
1.91032
1.90938
1.90748
1.90415
1.90097
1.89897
1.89753
1.89594
1.89365
1.89108
1.88761
1.88365
1.88041
1.88097
1.88371
1.89046
1.90073
1.91472
1.92796
1.9406
2.5839
2.54838
2.51413
2.47857
2.43939
2.40353
2.37441
2.35261
2.32727
2.2943
2.26517
2.24607
2.22877
2.20671
2.17975
2.15699
2.13989
2.12286
2.10542
2.08465
2.05869
2.03977
2.0311
2.03506
2.05249
2.08329
2.10219
2.10979
2.10481
2.092
2.07494
2.05687
2.03896
2.02221
2.00734
1.99453
1.98309
1.972
1.96108
1.95013
1.93808
1.92619
1.91563
1.90529
1.90007
1.89782
1.89912
1.90252
1.91025
1.92468
1.94035
1.95373
1.96603
1.97394
1.97345
1.96969
1.96328
1.95573
1.94925
1.94709
1.94626
1.94607
1.94606
1.94513
1.94307
1.93993
1.93779
1.9371
1.93702
1.93788
1.93856
1.9382
1.93655
1.93377
1.93163
1.93089
1.9307
1.93014
1.92902
1.92725
1.92451
1.92174
1.91955
1.91773
1.91578
1.91331
1.9099
1.90588
1.90163
1.89872
1.89755
1.89883
1.90386
1.91308
1.92499
1.94538
2.61699
2.59549
2.57014
2.53992
2.50714
2.47637
2.44959
2.42444
2.39273
2.35889
2.33096
2.31078
2.29254
2.26887
2.24062
2.21511
2.19649
2.17789
2.16
2.14009
2.1154
2.09162
2.07332
2.06044
2.06271
2.07824
2.10004
2.12068
2.12897
2.12411
2.1103
2.09318
2.07464
2.05583
2.03849
2.02332
2.01018
1.99804
1.98601
1.97372
1.9605
1.94751
1.93452
1.92551
1.92342
1.92476
1.92985
1.94044
1.95609
1.97338
1.98238
1.98779
1.99042
1.99108
1.98914
1.98654
1.98336
1.97817
1.9712
1.96643
1.96508
1.9647
1.96559
1.96722
1.9673
1.96607
1.96323
1.9613
1.96107
1.96138
1.96261
1.96312
1.96251
1.96069
1.95785
1.95608
1.95542
1.95486
1.95381
1.95229
1.9501
1.94737
1.9448
1.94259
1.94052
1.93797
1.93464
1.93022
1.92541
1.92084
1.91772
1.91652
1.91726
1.92097
1.92751
1.94656
2.62548
2.60915
2.59003
2.56831
2.54568
2.52283
2.5001
2.47477
2.44486
2.41513
2.38966
2.37041
2.34983
2.32277
2.29258
2.26824
2.24947
2.22984
2.2097
2.18827
2.16364
2.13814
2.11716
2.09976
2.0866
2.08498
2.0926
2.11079
2.13253
2.14127
2.13467
2.12265
2.10668
2.08785
2.06864
2.05033
2.03368
2.01864
2.0051
1.99207
1.97949
1.96866
1.95836
1.95038
1.94894
1.95383
1.96537
1.98288
2.00115
2.01268
2.01557
2.01285
2.00856
2.00474
2.00214
2.00065
1.99969
1.99721
1.99272
1.98707
1.98392
1.98334
1.98394
1.98633
1.98773
1.98771
1.98673
1.98452
1.98353
1.98349
1.98393
1.98503
1.985
1.9842
1.9822
1.97973
1.97842
1.97755
1.97645
1.97481
1.97273
1.97021
1.96754
1.9651
1.96284
1.96034
1.95715
1.95305
1.94811
1.94316
1.93898
1.93605
1.93406
1.93402
1.93511
1.94653
2.62036
2.6072
2.59272
2.57704
2.56037
2.54237
2.52243
2.49925
2.47431
2.45035
2.42984
2.411
2.38642
2.35812
2.33063
2.309
2.29081
2.27061
2.24819
2.22362
2.19856
2.17498
2.15308
2.13379
2.11563
2.09965
2.08854
2.0921
2.11162
2.13294
2.14065
2.13806
2.12704
2.1108
2.0917
2.07082
2.0499
2.03076
2.01498
2.0019
1.99264
1.98538
1.97751
1.97285
1.97442
1.98463
2.00461
2.01922
2.03255
2.03607
2.03454
2.02931
2.02223
2.01424
2.00984
2.00886
2.00935
2.00889
2.00709
2.00364
1.99935
1.99792
1.9984
2.00065
2.00275
2.00339
2.00336
2.00179
2.00003
1.99998
2.00036
2.0017
2.00251
2.0021
2.00044
1.99758
1.99525
1.99377
1.99241
1.99087
1.98917
1.98745
1.98533
1.98253
1.97935
1.976
1.97231
1.96832
1.96424
1.96005
1.9558
1.95148
1.9478
1.94384
1.94132
1.94538
2.61529
2.60286
2.58983
2.57578
2.56058
2.54423
2.52615
2.50584
2.48494
2.46601
2.44978
2.4293
2.4031
2.37558
2.35352
2.33562
2.31716
2.29486
2.26913
2.2431
2.22083
2.19954
2.17827
2.15675
2.13567
2.11374
2.09341
2.08234
2.08558
2.10363
2.12247
2.13392
2.13319
2.12158
2.10434
2.08407
2.06176
2.03955
2.02156
2.00926
2.00167
1.99777
1.99431
1.99811
2.01208
2.03044
2.03729
2.04328
2.04565
2.04402
2.03959
2.03401
2.02857
2.02181
2.01594
2.01407
2.01387
2.01342
2.01308
2.01237
2.0105
2.00892
2.009
2.00989
2.01084
2.01147
2.01144
2.01063
2.01032
2.01092
2.01175
2.0125
2.01273
2.01197
2.00988
2.00718
2.00539
2.0043
2.00329
2.00241
2.00123
1.99944
1.99664
1.99267
1.98843
1.98476
1.9817
1.97902
1.97631
1.97302
1.96863
1.96279
1.95725
1.95182
1.94782
1.94589
2.61524
2.60191
2.58857
2.57455
2.5596
2.54334
2.52561
2.50728
2.48926
2.47248
2.45504
2.43271
2.40787
2.38564
2.36673
2.34923
2.32851
2.30436
2.27739
2.25389
2.23385
2.21439
2.19409
2.17169
2.14662
2.1213
2.09906
2.08334
2.07563
2.07681
2.08875
2.10532
2.11988
2.11796
2.1068
2.08973
2.06979
2.04844
2.02965
2.0165
2.01144
2.01124
2.02049
2.03312
2.05129
2.05961
2.05848
2.05416
2.04822
2.04244
2.03665
2.03269
2.03005
2.02682
2.02197
2.01676
2.01489
2.01438
2.01501
2.0166
2.01737
2.01708
2.01569
2.01462
2.01448
2.01496
2.01625
2.01761
2.01842
2.01888
2.01868
2.01792
2.01715
2.01647
2.0159
2.0151
2.01404
2.01312
2.01211
2.01073
2.00865
2.00556
2.00178
1.99831
1.99539
1.99276
1.99032
1.98809
1.98568
1.98238
1.97714
1.9704
1.96396
1.95902
1.95508
1.95053
2.62099
2.60632
2.5921
2.5772
2.56145
2.54479
2.52734
2.50994
2.49288
2.47596
2.45593
2.43305
2.41111
2.39194
2.37471
2.35558
2.3328
2.30646
2.28148
2.26132
2.24297
2.22425
2.20414
2.17993
2.15224
2.12599
2.10414
2.08683
2.07404
2.06539
2.06075
2.06654
2.08363
2.09691
2.09593
2.08795
2.07342
2.05672
2.04002
2.0271
2.02651
2.03586
2.04941
2.06287
2.07482
2.07511
2.06955
2.05865
2.04748
2.03788
2.03252
2.03023
2.02917
2.02727
2.02397
2.01825
2.01457
2.01401
2.01489
2.01751
2.01919
2.01968
2.0184
2.016
2.01599
2.01712
2.01955
2.02188
2.02265
2.02277
2.02149
2.0202
2.02011
2.02026
2.02082
2.02134
2.02089
2.01965
2.01737
2.01429
2.01104
2.00826
2.00576
2.00335
2.00121
1.99923
1.99708
1.99431
1.99063
1.98608
1.98078
1.97508
1.96934
1.96431
1.96052
1.95504
2.62978
2.61466
2.5997
2.58397
2.5676
2.55072
2.53353
2.51623
2.49872
2.47969
2.45811
2.43642
2.41661
2.39944
2.38244
2.36019
2.33499
2.30906
2.28757
2.26899
2.25063
2.231
2.20908
2.18385
2.157
2.13231
2.11095
2.09272
2.07696
2.06262
2.04776
2.03703
2.04289
2.05935
2.07049
2.07768
2.07242
2.06371
2.05187
2.04723
2.05398
2.06689
2.07442
2.08252
2.08417
2.07951
2.06973
2.05852
2.04678
2.03567
2.02951
2.02742
2.02616
2.0243
2.02185
2.01759
2.01378
2.01323
2.01434
2.01665
2.01792
2.01839
2.01775
2.01696
2.01783
2.01943
2.022
2.0237
2.02424
2.02401
2.02281
2.02237
2.02259
2.02335
2.02436
2.02414
2.02329
2.02168
2.01889
2.0158
2.01309
2.01074
2.00899
2.00743
2.00553
2.00302
1.99974
1.99587
1.99148
1.98695
1.98245
1.97795
1.97307
1.96795
1.96367
1.95753
2.63675
2.62207
2.6071
2.5914
2.57518
2.55844
2.54129
2.52364
2.5051
2.48492
2.46386
2.44331
2.42447
2.40769
2.38737
2.36337
2.3379
2.31571
2.29564
2.27615
2.25597
2.23444
2.21081
2.18612
2.16261
2.14114
2.12067
2.1005
2.08059
2.06026
2.03926
2.02285
2.01568
2.02366
2.03612
2.05393
2.06347
2.06427
2.06921
2.07756
2.09201
2.09718
2.09488
2.09234
2.08439
2.07518
2.06501
2.05578
2.04615
2.03633
2.02873
2.0247
2.02205
2.0197
2.01771
2.01573
2.01357
2.0122
2.01241
2.01353
2.01492
2.01601
2.01696
2.01804
2.01949
2.02113
2.02297
2.02415
2.02469
2.02466
2.02445
2.02446
2.02458
2.02488
2.02509
2.02466
2.02353
2.0216
2.0195
2.01761
2.01569
2.01365
2.01145
2.00917
2.0065
2.00315
1.99925
1.99518
1.99106
1.98709
1.98324
1.97963
1.97577
1.97128
1.96656
1.95866
2.6398
2.62587
2.61157
2.59639
2.58054
2.56399
2.54676
2.52875
2.50979
2.49002
2.4701
2.45041
2.43157
2.41145
2.38763
2.3638
2.34235
2.32248
2.30263
2.28139
2.2589
2.23507
2.21128
2.1888
2.16854
2.14927
2.12925
2.10678
2.08154
2.05639
2.03363
2.01595
2.00584
2.00247
2.00935
2.02426
2.04753
2.06815
2.08999
2.10927
2.12001
2.11758
2.10843
2.09569
2.08225
2.06982
2.06009
2.05243
2.04534
2.03823
2.03044
2.02264
2.01806
2.01584
2.01479
2.01447
2.01384
2.01221
2.01106
2.01161
2.01279
2.01461
2.01673
2.01848
2.02018
2.02161
2.02264
2.02358
2.02463
2.02541
2.02574
2.02607
2.0261
2.02558
2.0248
2.02382
2.02264
2.02146
2.02034
2.01917
2.01779
2.01589
2.0133
2.00981
2.00586
2.00183
1.99779
1.99398
1.99041
1.98706
1.98368
1.98037
1.97702
1.97323
1.96895
1.95978
2.64017
2.62664
2.61274
2.59789
2.58231
2.56592
2.54869
2.53062
2.51189
2.49288
2.4739
2.4549
2.43451
2.4115
2.38803
2.36629
2.34675
2.32827
2.30689
2.28443
2.2598
2.23411
2.21096
2.19135
2.17319
2.15473
2.13415
2.10919
2.08022
2.05162
2.02914
2.01295
2.00135
1.99241
1.98966
1.99867
2.02614
2.06697
2.1025
2.12893
2.14195
2.13688
2.12084
2.09933
2.0805
2.06595
2.05662
2.04989
2.0446
2.03884
2.02973
2.02017
2.01602
2.01387
2.01266
2.01205
2.01161
2.01077
2.0094
2.00989
2.01139
2.01369
2.01634
2.0186
2.02021
2.02148
2.0225
2.02341
2.02445
2.02585
2.02679
2.02692
2.02657
2.02547
2.02389
2.02258
2.02181
2.02134
2.02102
2.02041
2.01923
2.01721
2.01383
2.00944
2.00487
2.00068
1.99679
1.99304
1.98937
1.98622
1.98356
1.98101
1.97832
1.97483
1.97024
1.95944
)
;

boundaryField
{
    inlet
    {
        type            fixedValue;
        value           uniform 1;
    }
    outlet
    {
        type            inletOutlet;
        inletValue      uniform 1;
        value           nonuniform List<scalar> 
32
(
2.48045
2.47099
2.44265
2.37487
2.28953
2.20786
2.1404
2.09272
2.06034
2.03711
2.01801
1.99993
1.98151
1.96317
1.94675
1.93462
1.92897
1.92744
1.92695
1.93183
1.94069
1.94545
1.94643
1.9463
1.94516
1.94602
1.95088
1.95538
1.95783
1.95868
1.95945
1.9588
)
;
    }
    bottom
    {
        type            symmetryPlane;
    }
    top
    {
        type            symmetryPlane;
    }
    obstacle
    {
        type            zeroGradient;
    }
    defaultFaces
    {
        type            empty;
    }
}


// ************************************************************************* //
