/*--------------------------------*- C++ -*----------------------------------*\
  =========                 |
  \\      /  F ield         | OpenFOAM: The Open Source CFD Toolbox
   \\    /   O peration     | Website:  https://openfoam.org
    \\  /    A nd           | Version:  7
     \\/     M anipulation  |
\*---------------------------------------------------------------------------*/
FoamFile
{
    version     2.0;
    format      ascii;
    class       volVectorField;
    location    "12.5";
    object      U;
}
// * * * * * * * * * * * * * * * * * * * * * * * * * * * * * * * * * * * * * //

dimensions      [0 1 -1 0 0 0 0];

internalField   nonuniform List<vector> 
4032
(
(3 3.84095e-17 0)
(3 2.90479e-16 0)
(3 2.93995e-16 0)
(3 -1.12445e-16 0)
(3 -2.49258e-16 0)
(3 -3.99709e-16 0)
(3 -4.81261e-16 0)
(3 -2.02625e-16 0)
(3 -1.39615e-16 0)
(3 -2.76368e-16 0)
(3 -8.96869e-16 0)
(2.90055 0.00319709 0)
(0.988463 0.0160644 0)
(0.709636 0.0193458 0)
(0.657854 0.0241387 0)
(0.598048 0.0255884 0)
(0.539127 0.0267886 0)
(0.478361 0.028111 0)
(0.415812 0.0296067 0)
(0.350853 0.0314045 0)
(0.282981 0.0334069 0)
(0.210605 0.0364556 0)
(0.131978 0.0391099 0)
(0.0494194 0.0445812 0)
(3 4.28605e-17 0)
(3 1.92866e-16 0)
(3 -1.54308e-16 0)
(3 -2.33979e-16 0)
(3 1.65558e-16 0)
(3 3.45133e-16 0)
(3 5.66455e-16 0)
(3 8.27053e-16 0)
(3 6.28254e-16 0)
(3 5.29966e-16 0)
(3 -1.48338e-15 0)
(2.9106 0.0202518 0)
(0.994533 0.0743045 0)
(0.695602 0.066673 0)
(0.641495 0.0708117 0)
(0.582787 0.0753179 0)
(0.524092 0.0796967 0)
(0.463069 0.0843216 0)
(0.400005 0.0890875 0)
(0.334795 0.094648 0)
(0.267477 0.100635 0)
(0.197432 0.110304 0)
(0.122231 0.118952 0)
(0.0459735 0.13469 0)
(3 -2.77729e-16 0)
(3 1.00741e-16 0)
(3 -2.24793e-16 0)
(3 1.16032e-16 0)
(3 2.14121e-16 0)
(3 -1.45231e-16 0)
(3 5.0203e-16 0)
(3 1.03615e-15 0)
(3 8.76882e-16 0)
(3 8.87274e-16 0)
(3 7.16327e-17 0)
(2.95453 0.0401289 0)
(1.03211 0.137749 0)
(0.71102 0.115814 0)
(0.656545 0.122363 0)
(0.595797 0.12978 0)
(0.534952 0.137317 0)
(0.471781 0.145352 0)
(0.406164 0.153336 0)
(0.33788 0.162078 0)
(0.266979 0.170221 0)
(0.194434 0.183683 0)
(0.117715 0.195227 0)
(0.0438187 0.21759 0)
(3 -6.48436e-17 0)
(3 3.62851e-16 0)
(3 3.2495e-16 0)
(3 4.13616e-16 0)
(3 7.40152e-17 0)
(3 -2.65459e-16 0)
(3 -7.36532e-16 0)
(3 -2.12736e-16 0)
(3 -7.63314e-16 0)
(3 -6.26784e-16 0)
(3 -6.19005e-16 0)
(3.00836 0.00633561 0)
(1.1075 0.182219 0)
(0.743748 0.152682 0)
(0.692258 0.166597 0)
(0.632794 0.178532 0)
(0.571772 0.190055 0)
(0.508016 0.202818 0)
(0.440474 0.216128 0)
(0.368315 0.231208 0)
(0.290885 0.244449 0)
(0.211201 0.262932 0)
(0.126858 0.277102 0)
(0.0459217 0.302565 0)
(3 3.13728e-16 0)
(3 3.96196e-16 0)
(3 8.40479e-16 0)
(3 9.85533e-17 0)
(3 1.47491e-17 0)
(3 -9.8803e-17 0)
(3 -5.80222e-16 0)
(3 -1.48411e-15 0)
(3 -1.31124e-15 0)
(3 -1.58393e-15 0)
(3 -1.63213e-15 0)
(3.0006 3.05388e-05 0)
(1.21608 0.22444 0)
(0.750299 0.197073 0)
(0.695794 0.217761 0)
(0.63973 0.234241 0)
(0.581363 0.249236 0)
(0.521098 0.266773 0)
(0.457293 0.285672 0)
(0.389444 0.307402 0)
(0.314786 0.325479 0)
(0.235729 0.348608 0)
(0.145621 0.367796 0)
(0.0550243 0.399448 0)
(3 1.24695e-16 0)
(3 -1.00327e-16 0)
(3 -1.3759e-16 0)
(3 -3.89771e-16 0)
(3 -4.7286e-16 0)
(3 -7.75719e-16 0)
(3 -7.96334e-16 0)
(3 -1.34195e-15 0)
(3 -1.18942e-15 0)
(3 -7.36828e-16 0)
(3 -1.65423e-16 0)
(3 -1.20234e-07 0)
(1.39576 0.274629 0)
(0.765697 0.245375 0)
(0.697071 0.261915 0)
(0.648091 0.281122 0)
(0.597937 0.298833 0)
(0.547555 0.320301 0)
(0.492262 0.34461 0)
(0.430545 0.375107 0)
(0.355276 0.405438 0)
(0.268336 0.443145 0)
(0.166196 0.478289 0)
(0.05616 0.51723 0)
(3 -5.08871e-17 0)
(3 -1.99296e-16 0)
(3 -6.24114e-16 0)
(3 -1.4259e-16 0)
(3 -6.94915e-17 0)
(3 5.93401e-17 0)
(3 5.13302e-16 0)
(3 -4.15493e-16 0)
(3 -1.05031e-15 0)
(3 -9.98896e-16 0)
(3 -2.69512e-16 0)
(3 -1.20416e-07 0)
(1.66971 0.325844 0)
(0.796085 0.309295 0)
(0.69675 0.308642 0)
(0.645976 0.325228 0)
(0.598003 0.343557 0)
(0.554724 0.369835 0)
(0.508472 0.402319 0)
(0.459208 0.444971 0)
(0.397908 0.49207 0)
(0.326536 0.54369 0)
(0.233298 0.594544 0)
(0.101397 0.660147 0)
(3 9.03222e-17 0)
(3 1.02112e-16 0)
(3 -1.17501e-16 0)
(3 -1.87099e-16 0)
(3 4.49178e-16 0)
(3 3.85614e-16 0)
(3 8.88652e-16 0)
(3 2.64117e-16 0)
(3 2.23086e-16 0)
(3 -7.46425e-17 0)
(3 -2.26038e-16 0)
(3 -2.51415e-08 0)
(2.07268 0.367363 0)
(0.852373 0.394453 0)
(0.716954 0.370081 0)
(0.667238 0.379048 0)
(0.620294 0.392299 0)
(0.579656 0.416679 0)
(0.540641 0.452244 0)
(0.502191 0.501245 0)
(0.457771 0.560598 0)
(0.395539 0.641571 0)
(0.275102 0.757429 0)
(0.151295 0.923978 0)
(3 -1.61313e-17 0)
(3 -3.16348e-16 0)
(3 -2.86009e-16 0)
(3 -3.54857e-16 0)
(3 -1.64647e-16 0)
(3 -2.61355e-16 0)
(3 -3.19679e-16 0)
(3 7.33374e-16 0)
(3 1.79442e-15 0)
(3 1.33136e-15 0)
(3 5.00884e-16 0)
(3 -2.60059e-09 0)
(2.65655 0.302812 0)
(0.984582 0.47787 0)
(0.803527 0.406365 0)
(0.751715 0.414917 0)
(0.694067 0.433355 0)
(0.642733 0.459482 0)
(0.600028 0.496721 0)
(0.563816 0.550083 0)
(0.529864 0.626927 0)
(0.496871 0.751129 0)
(0.465079 0.923196 0)
(0.576286 1.20066 0)
(3 -6.82191e-18 0)
(3 -3.03785e-17 0)
(3 5.75605e-16 0)
(3 5.29822e-16 0)
(3 1.90544e-16 0)
(3 4.99047e-16 0)
(3 1.75866e-16 0)
(3 5.90361e-16 0)
(3 3.03075e-16 0)
(3 -1.33408e-16 0)
(3 -9.03447e-16 0)
(3 -1.04232e-10 0)
(3.07667 0.0426174 0)
(1.21929 0.46948 0)
(0.882275 0.447544 0)
(0.838729 0.474104 0)
(0.785221 0.489844 0)
(0.73097 0.511207 0)
(0.682777 0.544804 0)
(0.64395 0.597061 0)
(0.624419 0.681712 0)
(0.623339 0.816732 0)
(0.686179 0.966099 0)
(0.968057 1.13842 0)
(3 7.62152e-17 0)
(3 3.20286e-16 0)
(3 3.2719e-16 0)
(3 2.47257e-16 0)
(3 1.55391e-16 0)
(3 3.36108e-16 0)
(3 2.28921e-16 0)
(3 -7.11327e-17 0)
(3 -6.20539e-16 0)
(3 -2.86324e-16 0)
(3 1.19182e-16 0)
(3 -2.15857e-12 0)
(3.00862 8.09522e-05 0)
(1.43635 0.462129 0)
(0.884238 0.512219 0)
(0.836643 0.531541 0)
(0.801017 0.550991 0)
(0.772654 0.575498 0)
(0.745248 0.607602 0)
(0.720655 0.651684 0)
(0.723325 0.72565 0)
(0.751086 0.840256 0)
(0.872916 0.963812 0)
(1.179 1.07046 0)
(3 -1.05664e-16 0)
(3 -2.07063e-16 0)
(3 -1.07594e-15 0)
(3 -9.27267e-16 0)
(3 -7.16355e-16 0)
(3 -7.14317e-16 0)
(3 -5.90353e-16 0)
(3 -7.83029e-16 0)
(3 -8.415e-16 0)
(3 -1.76364e-16 0)
(3 4.20684e-16 0)
(3 -1.81657e-14 0)
(3.00006 -2.4975e-06 0)
(1.94337 0.494153 0)
(0.929147 0.576716 0)
(0.853451 0.560319 0)
(0.834126 0.582072 0)
(0.819795 0.607593 0)
(0.809815 0.642205 0)
(0.802079 0.682688 0)
(0.817677 0.74617 0)
(0.867105 0.837637 0)
(1.01033 0.939578 0)
(1.27543 1.0057 0)
(3 -4.28696e-16 0)
(3 -5.64574e-16 0)
(3 -1.06744e-15 0)
(3 -7.79695e-16 0)
(3 -1.00655e-15 0)
(3 -1.16967e-15 0)
(3 -1.12784e-15 0)
(3 -6.23998e-16 0)
(3 -3.67505e-16 0)
(3 -6.69661e-16 0)
(3 -5.07399e-16 0)
(3 -3.89759e-16 0)
(3.00001 -3.17263e-06 0)
(2.74765 0.319198 0)
(1.09646 0.63503 0)
(0.920627 0.580747 0)
(0.89159 0.601769 0)
(0.874033 0.630674 0)
(0.870348 0.668875 0)
(0.876701 0.710906 0)
(0.901602 0.765504 0)
(0.966411 0.834675 0)
(1.10513 0.906697 0)
(1.32102 0.946286 0)
(3 2.06746e-16 0)
(3 2.44988e-16 0)
(3 4.05181e-16 0)
(3 1.51364e-16 0)
(3 5.23716e-16 0)
(3 5.2909e-16 0)
(3 8.03571e-16 0)
(3 1.13493e-15 0)
(3 1.56562e-15 0)
(3 1.18033e-15 0)
(3 1.17774e-15 0)
(3 1.29149e-15 0)
(3 -6.69574e-07 0)
(3.07449 0.026008 0)
(1.43596 0.631718 0)
(1.00196 0.652452 0)
(0.950573 0.652275 0)
(0.925007 0.66679 0)
(0.923359 0.694186 0)
(0.939672 0.730322 0)
(0.974575 0.773669 0)
(1.04773 0.82756 0)
(1.17437 0.87928 0)
(1.34914 0.905734 0)
(3 8.1524e-17 0)
(3 4.76365e-16 0)
(3 1.21763e-15 0)
(3 6.92629e-16 0)
(3 1.19507e-15 0)
(3 1.91304e-15 0)
(3 1.82112e-15 0)
(3 1.51995e-15 0)
(3 1.482e-15 0)
(3 7.71859e-16 0)
(3 6.4786e-16 0)
(3 1.15945e-15 0)
(3 -6.79768e-08 0)
(3.00413 7.31598e-05 0)
(1.98994 0.599948 0)
(1.0636 0.724424 0)
(1.01096 0.702001 0)
(0.994968 0.699069 0)
(0.991443 0.715227 0)
(1.00634 0.741847 0)
(1.04447 0.777819 0)
(1.11516 0.816597 0)
(1.22192 0.849847 0)
(1.36181 0.865991 0)
(3 1.95125e-17 0)
(3 -1.01557e-16 0)
(3 5.1119e-19 0)
(3 4.80421e-16 0)
(3 -1.01065e-16 0)
(3 -1.81667e-16 0)
(3 -1.84837e-16 0)
(3 -5.90275e-17 0)
(3 -6.79423e-17 0)
(3 6.4254e-16 0)
(3 6.4882e-16 0)
(3 1.45507e-16 0)
(3 -2.15286e-09 0)
(3.00001 -3.26509e-07 0)
(2.93342 0.2215 0)
(1.28197 0.698087 0)
(1.08255 0.719156 0)
(1.08727 0.720534 0)
(1.08182 0.740682 0)
(1.08712 0.762146 0)
(1.11507 0.788374 0)
(1.17594 0.817726 0)
(1.26434 0.839807 0)
(1.37854 0.849211 0)
(3 -3.10676e-17 0)
(3 -9.99109e-17 0)
(3 -4.09898e-16 0)
(3 -6.44832e-16 0)
(3 -8.16247e-16 0)
(3 -7.3861e-16 0)
(3 -6.25553e-16 0)
(3 -8.72818e-16 0)
(3 -6.80813e-16 0)
(3 1.34915e-16 0)
(3 5.49274e-16 0)
(3 2.28222e-16 0)
(3 -4.76371e-12 0)
(3 -7.78696e-07 0)
(3.04115 0.00641899 0)
(1.57284 0.659875 0)
(1.10015 0.756577 0)
(1.11134 0.765415 0)
(1.11732 0.783271 0)
(1.14007 0.795343 0)
(1.17424 0.806389 0)
(1.22864 0.818227 0)
(1.30344 0.829116 0)
(1.39841 0.833135 0)
(3 -5.5586e-17 0)
(3 -2.64573e-16 0)
(3 -2.62192e-16 0)
(3 -5.30668e-16 0)
(3 -5.4441e-16 0)
(3 -5.40164e-16 0)
(3 -3.80248e-16 0)
(3 -7.92081e-16 0)
(3 -1.00284e-15 0)
(3 -1.49845e-15 0)
(3 -1.59004e-15 0)
(3 -3.86952e-16 0)
(3 -6.70797e-15 0)
(3 -1.49002e-07 0)
(3.00079 3.57578e-05 0)
(2.39 0.510615 0)
(1.20589 0.789102 0)
(1.13551 0.791797 0)
(1.14904 0.795556 0)
(1.17742 0.805537 0)
(1.21772 0.817274 0)
(1.27075 0.828252 0)
(1.3394 0.836198 0)
(1.4197 0.837056 0)
(3 5.39015e-17 0)
(3 1.0201e-16 0)
(3 8.8515e-16 0)
(3 5.60666e-16 0)
(3 5.55475e-16 0)
(3 3.84581e-16 0)
(3 2.40707e-16 0)
(3 -5.02906e-17 0)
(3 -3.93091e-16 0)
(3 -1.07988e-15 0)
(3 -1.21703e-15 0)
(3 -8.76057e-17 0)
(3 -2.48864e-16 0)
(3 -4.67277e-09 0)
(3.00002 -5.57862e-06 0)
(3.0578 0.072277 0)
(1.56685 0.776592 0)
(1.1849 0.786054 0)
(1.19865 0.794017 0)
(1.2222 0.80684 0)
(1.26028 0.819161 0)
(1.31053 0.829379 0)
(1.37412 0.835908 0)
(1.44325 0.835817 0)
(3 1.11136e-16 0)
(3 4.11275e-16 0)
(3 5.7772e-16 0)
(3 4.92353e-16 0)
(3 6.55108e-16 0)
(3 1.80734e-16 0)
(3 1.18774e-16 0)
(3 -9.12794e-17 0)
(3 1.25117e-16 0)
(3 4.06593e-16 0)
(3 -1.24942e-16 0)
(3 -5.02698e-16 0)
(3 -1.11068e-16 0)
(3 -1.68989e-11 0)
(3 -1.40556e-06 0)
(3.00815 0.0013747 0)
(2.29483 0.63142 0)
(1.26312 0.848151 0)
(1.22317 0.833205 0)
(1.25824 0.834023 0)
(1.29322 0.840056 0)
(1.34143 0.84659 0)
(1.39832 0.850407 0)
(1.4555 0.842424 0)
(3 2.7402e-16 0)
(3 -1.35724e-16 0)
(3 -4.81415e-16 0)
(3 -2.80338e-16 0)
(3 -8.63142e-16 0)
(3 -1.63271e-15 0)
(3 -1.6473e-15 0)
(3 -1.12273e-15 0)
(3 -6.7369e-16 0)
(3 -5.86829e-16 0)
(3 -1.44916e-15 0)
(3 -1.52444e-15 0)
(3 -7.93777e-16 0)
(3 -7.03847e-15 0)
(3 -1.19897e-07 0)
(3.00003 9.42765e-06 0)
(3.0393 0.117755 0)
(1.62692 0.82649 0)
(1.26866 0.83035 0)
(1.30808 0.834347 0)
(1.33507 0.842476 0)
(1.37938 0.847763 0)
(1.42075 0.843069 0)
(1.45136 0.818057 0)
(3 5.9347e-17 0)
(3 -4.72762e-16 0)
(3 -9.60961e-16 0)
(3 -1.36726e-15 0)
(3 -1.38228e-15 0)
(3 -1.85884e-15 0)
(3 -1.82042e-15 0)
(3 -1.19521e-15 0)
(3 -1.65329e-15 0)
(3 -2.44186e-15 0)
(3 -2.06159e-15 0)
(3 -1.30909e-15 0)
(3 -2.77929e-16 0)
(3 -4.99632e-16 0)
(3 -1.4605e-09 0)
(3 -1.11865e-07 0)
(3.01061 0.00343793 0)
(2.36667 0.636903 0)
(1.35673 0.885435 0)
(1.33151 0.879596 0)
(1.36598 0.872545 0)
(1.39405 0.868643 0)
(1.41142 0.838715 0)
(1.4084 0.761297 0)
(3 -3.95835e-17 0)
(3 -1.7144e-16 0)
(3 -2.39298e-16 0)
(3 -1.52285e-16 0)
(3 -5.30787e-16 0)
(3 -1.29411e-16 0)
(3 2.73429e-16 0)
(3 7.67149e-16 0)
(3 6.45531e-16 0)
(3 6.60308e-16 0)
(3 6.31249e-16 0)
(3 3.40421e-16 0)
(3 9.05262e-16 0)
(3 3.81757e-16 0)
(3 -3.29084e-12 0)
(3 -2.77741e-08 0)
(3.00005 4.18004e-05 0)
(3.02997 0.106316 0)
(1.76535 0.835867 0)
(1.37042 0.885795 0)
(1.4031 0.885624 0)
(1.39785 0.846443 0)
(1.36364 0.764776 0)
(1.34965 0.662327 0)
(3 6.73437e-17 0)
(3 -1.8308e-16 0)
(3 5.4293e-16 0)
(3 7.85639e-16 0)
(3 6.87392e-16 0)
(3 7.88215e-16 0)
(3 4.49488e-16 0)
(3 2.51406e-16 0)
(3 5.55129e-16 0)
(3 2.29466e-15 0)
(3 2.63102e-15 0)
(3 2.16321e-15 0)
(3 2.87509e-17 0)
(3 -1.25205e-15 0)
(3 -2.92692e-15 0)
(3 -2.61465e-09 0)
(3 2.35608e-08 0)
(3.00604 0.00443939 0)
(2.62504 0.529031 0)
(1.51755 0.947345 0)
(1.40679 0.889772 0)
(1.34132 0.791204 0)
(1.28992 0.664497 0)
(1.31408 0.597521 0)
(3 -1.00464e-16 0)
(3 9.2726e-17 0)
(3 3.11711e-16 0)
(3 6.95462e-16 0)
(3 8.01841e-16 0)
(3 6.65316e-16 0)
(3 8.87611e-16 0)
(3 6.99878e-16 0)
(3 6.8786e-16 0)
(3 2.17577e-16 0)
(3 4.22961e-16 0)
(3 1.15213e-15 0)
(3 1.0126e-15 0)
(3 -3.70942e-16 0)
(3 -2.66313e-17 0)
(3 -1.04619e-10 0)
(3 -1.02699e-10 0)
(3.00002 4.79691e-05 0)
(3.03716 0.0526688 0)
(2.05828 0.81484 0)
(1.38669 0.877453 0)
(1.24849 0.694938 0)
(1.25844 0.612458 0)
(1.32025 0.563689 0)
(3 4.48323e-17 0)
(3 9.14864e-16 0)
(3 6.774e-16 0)
(3 4.97109e-16 0)
(3 -1.58476e-17 0)
(3 -1.97281e-16 0)
(3 1.97353e-17 0)
(3 8.89976e-16 0)
(3 4.7842e-16 0)
(3 -1.28046e-15 0)
(3 -1.69052e-15 0)
(3 -1.38539e-15 0)
(3 -1.07216e-15 0)
(3 -3.37019e-16 0)
(3 -4.1293e-16 0)
(3 -9.26569e-13 0)
(3 -3.24988e-11 0)
(3 3.71977e-08 0)
(3.00165 0.0023901 0)
(2.88726 0.310014 0)
(1.42298 0.730955 0)
(1.19384 0.593192 0)
(1.26155 0.572391 0)
(1.33012 0.547076 0)
(3 5.21714e-16 0)
(3 -5.00153e-17 0)
(3 -1.25752e-17 0)
(3 -3.66728e-16 0)
(3 -7.88202e-17 0)
(3 4.41032e-17 0)
(3 4.78761e-16 0)
(3 2.15837e-16 0)
(3 -2.77255e-16 0)
(3 -6.52181e-16 0)
(3 -9.37215e-16 0)
(3 -2.01408e-15 0)
(3 -1.79491e-15 0)
(3 -1.43446e-15 0)
(3 -6.31076e-16 0)
(3 -3.15667e-15 0)
(3 -4.26895e-12 0)
(3 2.50953e-12 0)
(3 1.5126e-05 0)
(3.02434 0.0124908 0)
(1.27998 0.410476 0)
(1.09831 0.496316 0)
(1.2351 0.503212 0)
(1.31961 0.503432 0)
(3 -9.72082e-17 0)
(3 -3.05726e-16 0)
(3 -1.43108e-16 0)
(3 -5.85349e-17 0)
(3 9.53481e-17 0)
(3 1.53721e-15 0)
(3 1.66693e-15 0)
(3 4.29145e-16 0)
(3 1.07706e-16 0)
(3 -1.10054e-16 0)
(3 6.65092e-17 0)
(3 -5.29874e-16 0)
(3 -1.93499e-16 0)
(3 -3.10587e-16 0)
(3 6.89814e-16 0)
(3 4.20799e-16 0)
(3 -2.68434e-13 0)
(3 -2.69921e-13 0)
(3 2.09085e-08 0)
(3.00083 0.000103263 0)
(1.18397 0.255186 0)
(0.910594 0.427414 0)
(1.09193 0.47058 0)
(1.21786 0.494265 0)
(3 9.93117e-18 0)
(3 4.34375e-16 0)
(3 5.80023e-16 0)
(3 1.25807e-15 0)
(3 1.57596e-15 0)
(3 1.38794e-15 0)
(3 7.8285e-16 0)
(3 1.95418e-16 0)
(3 1.14378e-16 0)
(3 6.6799e-16 0)
(3 7.74356e-16 0)
(3 7.54123e-16 0)
(3 5.29267e-16 0)
(3 3.93001e-16 0)
(3 7.34995e-16 0)
(3 2.11274e-16 0)
(3 -3.28004e-15 0)
(3 -8.9183e-14 0)
(3 1.58407e-11 0)
(3 -9.2545e-09 0)
(1.30368 0.223481 0)
(0.835413 0.334431 0)
(0.940165 0.348645 0)
(1.05068 0.378752 0)
(3 -2.67658e-17 0)
(3 9.94654e-17 0)
(3 3.6081e-16 0)
(3 1.50909e-16 0)
(3 1.77977e-16 0)
(3 -1.03815e-15 0)
(3 -1.43595e-15 0)
(3 -9.51175e-16 0)
(3 -5.32906e-16 0)
(3 2.08591e-16 0)
(3 3.43439e-16 0)
(3 4.77127e-16 0)
(3 1.96168e-16 0)
(3 5.52034e-17 0)
(3 -2.13604e-16 0)
(3 -5.83546e-16 0)
(3 -5.4788e-16 0)
(3 -1.22188e-14 0)
(3 -7.46887e-15 0)
(3 -5.80241e-08 0)
(1.46699 0.257196 0)
(0.828763 0.283625 0)
(0.850446 0.288022 0)
(0.918267 0.302806 0)
(3 -1.51419e-16 0)
(3 7.60939e-17 0)
(3 -7.32451e-16 0)
(3 -1.29424e-15 0)
(3 -2.08591e-15 0)
(3 -1.72922e-15 0)
(3 -1.80829e-15 0)
(3 -1.57535e-15 0)
(3 -1.87509e-15 0)
(3 -1.33949e-15 0)
(3 -6.23866e-16 0)
(3 -1.28264e-16 0)
(3 5.73986e-16 0)
(3 7.63947e-16 0)
(3 6.73644e-16 0)
(3 1.11982e-15 0)
(3 7.72458e-16 0)
(3 5.87977e-16 0)
(3 1.00615e-18 0)
(3 -1.33058e-08 0)
(1.69514 0.282642 0)
(0.846945 0.264236 0)
(0.831713 0.254083 0)
(0.873359 0.254895 0)
(3 -1.11217e-16 0)
(3 3.92129e-17 0)
(3 4.03803e-17 0)
(3 -4.16179e-16 0)
(3 -2.5347e-16 0)
(3 1.81768e-16 0)
(3 -1.08793e-16 0)
(3 -3.1873e-16 0)
(3 -9.16179e-16 0)
(3 -1.04149e-15 0)
(3 -7.06301e-16 0)
(3 -3.69811e-17 0)
(3 1.56137e-16 0)
(3 2.88695e-16 0)
(3 2.84255e-16 0)
(3 6.9733e-16 0)
(3 8.20738e-16 0)
(3 9.20128e-16 0)
(3 1.19919e-15 0)
(3 -1.33824e-09 0)
(1.976 0.270392 0)
(0.871907 0.256743 0)
(0.83611 0.231496 0)
(0.877725 0.223903 0)
(3 7.1134e-17 0)
(3 -1.59424e-16 0)
(3 1.44076e-16 0)
(3 4.69633e-16 0)
(3 2.41547e-16 0)
(3 -1.06328e-16 0)
(3 -8.33106e-17 0)
(3 -2.07682e-16 0)
(3 -6.12799e-17 0)
(3 -5.60332e-16 0)
(3 -6.18958e-16 0)
(3 -7.49444e-16 0)
(3 -8.1348e-16 0)
(3 -7.38861e-16 0)
(3 -1.01007e-15 0)
(3 -1.54649e-15 0)
(3 -1.07434e-15 0)
(3 -5.20422e-16 0)
(3 -7.09793e-16 0)
(3 -5.21673e-11 0)
(2.26051 0.231507 0)
(0.900746 0.238343 0)
(0.839753 0.207567 0)
(0.887564 0.20145 0)
(3 1.91894e-16 0)
(3 -3.35184e-16 0)
(3 -2.32949e-16 0)
(3 -6.78476e-17 0)
(3 1.38191e-16 0)
(3 1.42826e-16 0)
(3 7.27346e-17 0)
(3 -5.22112e-16 0)
(3 -6.22965e-16 0)
(3 -7.70212e-16 0)
(3 -1.38344e-15 0)
(3 -1.15628e-15 0)
(3 -5.18011e-16 0)
(3 -1.46077e-16 0)
(3 -3.22448e-16 0)
(3 -7.88062e-16 0)
(3 -1.61203e-15 0)
(3 -1.27871e-15 0)
(3 -1.29902e-15 0)
(3 -1.0263e-12 0)
(2.51649 0.181902 0)
(0.938945 0.211208 0)
(0.846111 0.181692 0)
(0.897579 0.177027 0)
(3 2.80587e-16 0)
(3 -2.21114e-16 0)
(3 -2.54319e-16 0)
(3 -2.42988e-16 0)
(3 -2.03287e-16 0)
(3 -1.23779e-16 0)
(3 -1.66048e-16 0)
(3 -4.71708e-16 0)
(3 -9.50601e-16 0)
(3 -1.3727e-15 0)
(3 -7.28302e-16 0)
(3 -5.2177e-16 0)
(3 6.09036e-16 0)
(3 1.4289e-15 0)
(3 8.8845e-16 0)
(3 7.676e-16 0)
(3 8.45451e-16 0)
(3 4.07249e-17 0)
(3 -4.20178e-16 0)
(3 -1.10902e-14 0)
(2.71692 0.121444 0)
(0.985705 0.170999 0)
(0.852093 0.152641 0)
(0.904018 0.150695 0)
(3 2.63965e-17 0)
(3 -1.96857e-17 0)
(3 -7.71832e-17 0)
(3 -1.34184e-16 0)
(3 1.53599e-16 0)
(3 9.37463e-17 0)
(3 1.79625e-16 0)
(3 2.85493e-16 0)
(3 -1.83139e-16 0)
(3 -5.57709e-16 0)
(3 4.57796e-16 0)
(3 3.70299e-16 0)
(3 -6.67516e-16 0)
(3 -1.19883e-15 0)
(3 -7.67115e-16 0)
(3 2.22495e-16 0)
(3 1.13816e-15 0)
(3 6.15916e-16 0)
(3 3.05882e-17 0)
(3 -4.59403e-16 0)
(2.82219 0.0644558 0)
(1.01032 0.120211 0)
(0.841762 0.119705 0)
(0.894596 0.118864 0)
(3 -1.95882e-16 0)
(3 -2.87644e-16 0)
(3 -5.68158e-16 0)
(3 -7.61805e-16 0)
(3 -5.56046e-16 0)
(3 -7.16055e-16 0)
(3 -6.16643e-16 0)
(3 2.93192e-17 0)
(3 6.82702e-16 0)
(3 1.31658e-15 0)
(3 1.04874e-15 0)
(3 -3.85675e-16 0)
(3 -1.5179e-15 0)
(3 -1.67024e-15 0)
(3 -1.15274e-15 0)
(3 -8.35498e-17 0)
(3 -5.52936e-16 0)
(3 -6.88363e-16 0)
(3 -7.69587e-16 0)
(3 -1.20209e-15 0)
(2.86497 0.033827 0)
(1.01649 0.0829739 0)
(0.819617 0.0929839 0)
(0.870507 0.0935381 0)
(3 -1.84209e-16 0)
(3 -7.99126e-16 0)
(3 -1.97007e-15 0)
(3 -1.94753e-15 0)
(3 -2.27365e-15 0)
(3 -1.71391e-15 0)
(3 -4.97917e-16 0)
(3 -8.67747e-17 0)
(3 3.77957e-16 0)
(3 8.80832e-16 0)
(3 5.36029e-16 0)
(3 2.20507e-16 0)
(3 -2.8113e-16 0)
(3 -4.70037e-16 0)
(3 6.01004e-16 0)
(3 7.69578e-16 0)
(3 1.03803e-15 0)
(3 5.6189e-16 0)
(3 -5.48683e-16 0)
(3 -8.83394e-16 0)
(2.89193 0.0217924 0)
(1.02432 0.0592654 0)
(0.808142 0.0639685 0)
(0.854929 0.0643853 0)
(3 3.29119e-16 0)
(3 5.67582e-17 0)
(3 1.41469e-16 0)
(3 -2.39935e-16 0)
(3 2.11708e-17 0)
(3 1.89707e-16 0)
(3 -3.35638e-17 0)
(3 -3.40509e-16 0)
(3 5.99789e-17 0)
(3 4.98682e-16 0)
(3 1.27012e-15 0)
(3 1.2505e-15 0)
(3 7.04313e-16 0)
(3 7.02804e-16 0)
(3 1.4964e-15 0)
(3 2.00164e-15 0)
(3 1.97608e-15 0)
(3 1.12045e-15 0)
(3 9.53218e-16 0)
(3 4.4605e-16 0)
(2.91316 0.011871 0)
(1.0354 0.0356778 0)
(0.811302 0.0367597 0)
(0.854484 0.0370352 0)
(3 3.83487e-16 0)
(3 4.02352e-16 0)
(3 6.91368e-16 0)
(3 6.2305e-16 0)
(3 7.28067e-16 0)
(3 3.25258e-16 0)
(3 -4.00951e-16 0)
(3 -1.00482e-15 0)
(3 2.63147e-16 0)
(3 1.08374e-15 0)
(3 1.51593e-15 0)
(3 1.15944e-15 0)
(3 1.39233e-15 0)
(3 9.3838e-16 0)
(3 8.49804e-16 0)
(3 7.95971e-16 0)
(3 6.03638e-16 0)
(3 2.43026e-16 0)
(3 4.44807e-16 0)
(3 -5.74292e-17 0)
(2.91943 0.00188218 0)
(1.03553 0.00915656 0)
(0.808178 0.010937 0)
(0.848691 0.0118006 0)
(1.53323 1.23761 0)
(1.86858 1.50558 0)
(2.25648 1.36468 0)
(2.38551 0.667288 0)
(2.83552 0.152592 0)
(1.21119 0.141643 0)
(0.283937 0.154877 0)
(0.0442657 0.130348 0)
(0.0245435 0.0756055 0)
(-0.00483556 0.043047 0)
(-0.0546263 0.0337232 0)
(-0.0770902 0.0326323 0)
(-0.0666949 0.0265145 0)
(-0.0598979 0.0164783 0)
(-0.0662902 0.0049365 0)
(-0.0690319 -0.00590738 0)
(-0.0615741 -0.0143825 0)
(-0.0405239 -0.0204512 0)
(-0.01597 -0.0257459 0)
(0.00684087 -0.0274824 0)
(0.0294121 -0.0273642 0)
(0.0553856 -0.0262452 0)
(0.0870012 -0.0259997 0)
(0.123029 -0.0264201 0)
(0.159993 -0.0268656 0)
(0.195057 -0.0270521 0)
(0.227476 -0.0269916 0)
(0.258939 -0.0263943 0)
(0.290787 -0.026543 0)
(0.323282 -0.0277194 0)
(0.35597 -0.0289705 0)
(0.389673 -0.0302449 0)
(0.42458 -0.0307306 0)
(0.460383 -0.0305923 0)
(0.497022 -0.030739 0)
(0.534309 -0.0316743 0)
(0.571543 -0.0332261 0)
(0.607346 -0.0339585 0)
(0.642289 -0.033027 0)
(0.675967 -0.0313276 0)
(0.709548 -0.0293847 0)
(0.743696 -0.0280432 0)
(0.778487 -0.0277065 0)
(0.813704 -0.0283998 0)
(0.848099 -0.0292843 0)
(0.881076 -0.028913 0)
(0.912485 -0.027564 0)
(0.943397 -0.0259561 0)
(0.974898 -0.0248645 0)
(1.00795 -0.0244131 0)
(1.04179 -0.024116 0)
(1.07436 -0.0234608 0)
(1.1044 -0.0222052 0)
(1.13197 -0.0208236 0)
(1.15843 -0.0199356 0)
(1.18581 -0.0194211 0)
(1.21448 -0.018826 0)
(1.24341 -0.0177485 0)
(1.27006 -0.0158608 0)
(1.29404 -0.0135359 0)
(1.31752 -0.0115133 0)
(1.34213 -0.00988604 0)
(1.36836 -0.00852972 0)
(1.39452 -0.00713393 0)
(1.41791 -0.00575659 0)
(1.43887 -0.00468153 0)
(1.45898 -0.00405459 0)
(1.47869 -0.00389738 0)
(1.49717 -0.00425122 0)
(1.50797 -0.00602788 0)
(1.50664 -0.00829032 0)
(1.4589 -0.0103563 0)
(1.3153 -0.00917645 0)
(1.25082 -0.00407168 0)
(1.24402 -0.00349376 0)
(1.24797 -0.00362713 0)
(1.25735 -0.00452189 0)
(1.26844 -0.00562271 0)
(1.27901 -0.00610703 0)
(1.28833 -0.00532993 0)
(1.29633 -0.00378852 0)
(1.30352 -0.00231255 0)
(1.31053 -0.00159736 0)
(1.31774 -0.00162431 0)
(1.32443 -0.00203657 0)
(1.33002 -0.00234095 0)
(1.33407 -0.00211625 0)
(1.33677 -0.00143363 0)
(1.33893 -0.000944291 0)
(1.3415 -0.000967718 0)
(1.34521 -0.00143996 0)
(1.34924 -0.00206437 0)
(1.35226 -0.00224627 0)
(1.35421 -0.0016696 0)
(1.35556 -0.000853076 0)
(1.35681 -0.000194866 0)
(1.777 1.0591 0)
(2.26686 0.874232 0)
(2.54614 0.51071 0)
(2.56965 0.130438 0)
(2.75005 -0.377148 0)
(2.46024 -0.287403 0)
(1.20784 0.227058 0)
(0.63325 0.30974 0)
(0.405324 0.147808 0)
(0.266478 0.0564539 0)
(0.14946 0.0617255 0)
(0.0622381 0.0815901 0)
(0.0158051 0.0584239 0)
(-0.0028934 0.0209273 0)
(-0.0108863 -0.0150143 0)
(-0.00891529 -0.0350639 0)
(0.00528665 -0.0441644 0)
(0.0290444 -0.0497292 0)
(0.057651 -0.054275 0)
(0.0874789 -0.0562116 0)
(0.114263 -0.0516341 0)
(0.139113 -0.0440174 0)
(0.167109 -0.0383077 0)
(0.200089 -0.0375096 0)
(0.237363 -0.0413541 0)
(0.275284 -0.0421636 0)
(0.310537 -0.0402306 0)
(0.342642 -0.0382798 0)
(0.373246 -0.0360606 0)
(0.404447 -0.0336787 0)
(0.438073 -0.0351142 0)
(0.474304 -0.0376714 0)
(0.511582 -0.0390367 0)
(0.547771 -0.0378404 0)
(0.581972 -0.0355013 0)
(0.615299 -0.0351053 0)
(0.649589 -0.0374357 0)
(0.685626 -0.04173 0)
(0.722523 -0.0452397 0)
(0.758021 -0.0440065 0)
(0.791284 -0.0380915 0)
(0.821365 -0.0306875 0)
(0.850466 -0.0267727 0)
(0.880885 -0.0272455 0)
(0.913618 -0.0305537 0)
(0.947342 -0.034146 0)
(0.979815 -0.0335107 0)
(1.0096 -0.0285406 0)
(1.03781 -0.0231029 0)
(1.06607 -0.0208522 0)
(1.09595 -0.0223001 0)
(1.12766 -0.0248626 0)
(1.15817 -0.0246463 0)
(1.18422 -0.0209553 0)
(1.20721 -0.0175767 0)
(1.23004 -0.0174944 0)
(1.25539 -0.0208535 0)
(1.28328 -0.0248313 0)
(1.31084 -0.0252975 0)
(1.33458 -0.0212027 0)
(1.35553 -0.0153242 0)
(1.37683 -0.0104583 0)
(1.39963 -0.0077102 0)
(1.42428 -0.00623065 0)
(1.44866 -0.00392096 0)
(1.46979 -0.000460376 0)
(1.48871 0.00323228 0)
(1.50551 0.00561717 0)
(1.51791 0.00442545 0)
(1.52521 -0.00383505 0)
(1.52408 -0.0205689 0)
(1.49138 -0.0236345 0)
(1.35897 -0.010305 0)
(1.28222 -0.00122155 0)
(1.27067 -0.00282037 0)
(1.27408 -0.00452025 0)
(1.28289 -0.00702253 0)
(1.29346 -0.00986649 0)
(1.30385 -0.0121751 0)
(1.31411 -0.0125341 0)
(1.32342 -0.00977466 0)
(1.33051 -0.00432994 0)
(1.3355 0.00110197 0)
(1.33908 0.00333971 0)
(1.3423 0.00194529 0)
(1.34755 -0.00158863 0)
(1.35433 -0.00363298 0)
(1.35973 -0.0023241 0)
(1.36248 0.00122888 0)
(1.36313 0.00556418 0)
(1.36292 0.00723219 0)
(1.36341 0.00567568 0)
(1.3658 0.00157875 0)
(1.36983 -0.000897364 0)
(1.3744 -0.000310514 0)
(1.37681 0.0043227 0)
(1.67615 1.03263 0)
(2.08551 0.809345 0)
(2.29362 0.719622 0)
(2.47416 0.489701 0)
(2.64735 0.080188 0)
(2.68518 -0.0851984 0)
(2.41279 0.0939297 0)
(1.58561 0.528329 0)
(1.10874 0.582421 0)
(0.832856 0.394094 0)
(0.589633 0.293939 0)
(0.412603 0.210052 0)
(0.30294 0.125346 0)
(0.239921 0.0451616 0)
(0.213568 -0.00779689 0)
(0.214103 -0.0352932 0)
(0.225954 -0.0422793 0)
(0.241698 -0.0408547 0)
(0.262566 -0.0487087 0)
(0.292769 -0.0532203 0)
(0.326145 -0.0539224 0)
(0.358039 -0.0573781 0)
(0.386277 -0.0571414 0)
(0.414122 -0.0539311 0)
(0.446693 -0.0527635 0)
(0.48468 -0.0631744 0)
(0.525761 -0.0758636 0)
(0.564432 -0.0830714 0)
(0.597419 -0.086448 0)
(0.6263 -0.0895113 0)
(0.656639 -0.091317 0)
(0.689882 -0.0946069 0)
(0.725828 -0.0989488 0)
(0.762737 -0.102025 0)
(0.797711 -0.10188 0)
(0.827957 -0.0979997 0)
(0.855267 -0.0935306 0)
(0.88271 -0.0915494 0)
(0.912363 -0.092607 0)
(0.945391 -0.0957737 0)
(0.979511 -0.0976774 0)
(1.01125 -0.0945279 0)
(1.03744 -0.0866454 0)
(1.06089 -0.0792866 0)
(1.08496 -0.0755453 0)
(1.11067 -0.0753239 0)
(1.13862 -0.0773979 0)
(1.16738 -0.0783281 0)
(1.19383 -0.0752562 0)
(1.21714 -0.0694952 0)
(1.23987 -0.0641867 0)
(1.26386 -0.0614537 0)
(1.2896 -0.0607615 0)
(1.31457 -0.0581999 0)
(1.33449 -0.0523627 0)
(1.35184 -0.0450172 0)
(1.36968 -0.0385858 0)
(1.38912 -0.0361839 0)
(1.41145 -0.0371508 0)
(1.435 -0.0377609 0)
(1.45523 -0.0353192 0)
(1.47319 -0.0311568 0)
(1.49121 -0.025769 0)
(1.50999 -0.0223183 0)
(1.52936 -0.0222367 0)
(1.54909 -0.023173 0)
(1.56691 -0.0225656 0)
(1.5813 -0.0204835 0)
(1.59043 -0.0180276 0)
(1.59292 -0.0184487 0)
(1.58701 -0.0237283 0)
(1.5642 -0.0340653 0)
(1.46071 -0.0137326 0)
(1.37103 -0.00684825 0)
(1.35213 -0.0164037 0)
(1.35885 -0.0160006 0)
(1.36694 -0.0122876 0)
(1.37418 -0.0087785 0)
(1.37953 -0.00940675 0)
(1.38615 -0.0133167 0)
(1.3955 -0.0171991 0)
(1.40463 -0.0172294 0)
(1.40948 -0.0144006 0)
(1.41137 -0.00944536 0)
(1.41118 -0.00430862 0)
(1.41211 -0.00280582 0)
(1.41413 -0.00541165 0)
(1.41921 -0.0107904 0)
(1.42409 -0.0134054 0)
(1.42614 -0.0123457 0)
(1.42661 -0.00693594 0)
(1.42378 -7.20068e-05 0)
(1.42178 0.00305694 0)
(1.42192 0.00175669 0)
(1.42495 -0.00355086 0)
(1.43069 -0.00673774 0)
(1.59641 0.994991 0)
(1.9023 0.869783 0)
(2.16142 0.654862 0)
(2.31229 0.570944 0)
(2.40569 0.42642 0)
(2.56723 0.117153 0)
(2.63584 -0.00806918 0)
(2.38335 0.168825 0)
(1.87368 0.546216 0)
(1.40364 0.640563 0)
(1.18831 0.496402 0)
(0.987646 0.305729 0)
(0.84264 0.160717 0)
(0.728222 0.0922401 0)
(0.650569 0.0469604 0)
(0.624529 0.00545503 0)
(0.62878 -0.0201828 0)
(0.633658 -0.0333966 0)
(0.641222 -0.0424297 0)
(0.656181 -0.0647573 0)
(0.682712 -0.0992644 0)
(0.718068 -0.125488 0)
(0.750396 -0.13648 0)
(0.774647 -0.135865 0)
(0.796476 -0.132314 0)
(0.823082 -0.128905 0)
(0.857188 -0.128317 0)
(0.896152 -0.131113 0)
(0.93476 -0.131785 0)
(0.966614 -0.125243 0)
(0.991624 -0.116573 0)
(1.01453 -0.109894 0)
(1.03891 -0.10733 0)
(1.06653 -0.109118 0)
(1.09668 -0.112755 0)
(1.12568 -0.113606 0)
(1.14878 -0.107944 0)
(1.16779 -0.0980805 0)
(1.18731 -0.0890718 0)
(1.20975 -0.0846777 0)
(1.23597 -0.0853745 0)
(1.26498 -0.0878761 0)
(1.29052 -0.0860968 0)
(1.30862 -0.0802006 0)
(1.32492 -0.0732912 0)
(1.34251 -0.0665132 0)
(1.36238 -0.0619884 0)
(1.38487 -0.0606794 0)
(1.40745 -0.0596846 0)
(1.42561 -0.0564573 0)
(1.44069 -0.0528233 0)
(1.45591 -0.050087 0)
(1.47304 -0.0484123 0)
(1.49239 -0.0469591 0)
(1.5093 -0.0443456 0)
(1.52326 -0.0403689 0)
(1.53532 -0.0329073 0)
(1.54831 -0.0257222 0)
(1.56437 -0.0211343 0)
(1.58263 -0.0174552 0)
(1.60047 -0.0144896 0)
(1.61672 -0.0113882 0)
(1.63216 -0.00697156 0)
(1.64566 -0.00166471 0)
(1.65773 0.00230052 0)
(1.67073 0.00188738 0)
(1.68422 -0.00119431 0)
(1.69563 -0.00764467 0)
(1.70177 -0.0162034 0)
(1.69957 -0.0264655 0)
(1.69148 -0.0383508 0)
(1.67348 -0.0550197 0)
(1.61798 -0.0427552 0)
(1.52468 -0.00338787 0)
(1.48843 0.00202014 0)
(1.49391 -0.00857785 0)
(1.50122 -0.0134314 0)
(1.50889 -0.00941606 0)
(1.51055 -0.00143187 0)
(1.51234 0.00379956 0)
(1.51607 0.00409 0)
(1.52178 -0.000292075 0)
(1.52765 -0.004992 0)
(1.53022 -0.00578423 0)
(1.53077 -0.00268727 0)
(1.52855 0.0037556 0)
(1.52485 0.00889506 0)
(1.52374 0.00914935 0)
(1.5245 0.00319148 0)
(1.52707 -0.00597605 0)
(1.52798 -0.0114484 0)
(1.5282 -0.0119076 0)
(1.52754 -0.00689823 0)
(1.52459 0.000982037 0)
(1.52274 0.00585047 0)
(1.52306 0.00286977 0)
(1.56062 0.930668 0)
(1.78264 0.866852 0)
(2.01233 0.725504 0)
(2.19106 0.564516 0)
(2.28512 0.491331 0)
(2.37561 0.35156 0)
(2.52148 0.112236 0)
(2.56958 0.108091 0)
(2.35367 0.257592 0)
(1.97605 0.552638 0)
(1.48949 0.672718 0)
(1.33983 0.552833 0)
(1.29565 0.347856 0)
(1.21495 0.233724 0)
(1.13987 0.152978 0)
(1.11344 0.0641378 0)
(1.11575 -0.0151753 0)
(1.11034 -0.0640715 0)
(1.10186 -0.0890961 0)
(1.10155 -0.102783 0)
(1.11001 -0.11547 0)
(1.12878 -0.135221 0)
(1.15469 -0.154815 0)
(1.17516 -0.160999 0)
(1.18668 -0.155936 0)
(1.19755 -0.147974 0)
(1.21355 -0.143374 0)
(1.23693 -0.144918 0)
(1.26649 -0.150665 0)
(1.29617 -0.154961 0)
(1.31882 -0.152558 0)
(1.33411 -0.145635 0)
(1.34732 -0.139123 0)
(1.36161 -0.136025 0)
(1.37858 -0.137092 0)
(1.39823 -0.14019 0)
(1.4168 -0.140608 0)
(1.43118 -0.136427 0)
(1.44329 -0.129176 0)
(1.4567 -0.121659 0)
(1.47301 -0.116087 0)
(1.49319 -0.11337 0)
(1.51485 -0.110522 0)
(1.5294 -0.105695 0)
(1.54113 -0.100834 0)
(1.55378 -0.0962802 0)
(1.56784 -0.0925757 0)
(1.58395 -0.0891012 0)
(1.6018 -0.0842381 0)
(1.61549 -0.0787669 0)
(1.62541 -0.0736108 0)
(1.6347 -0.0666194 0)
(1.64672 -0.0620562 0)
(1.66104 -0.0583783 0)
(1.67393 -0.0565602 0)
(1.68586 -0.0550306 0)
(1.69596 -0.0502481 0)
(1.70575 -0.0415089 0)
(1.71806 -0.0322073 0)
(1.73165 -0.0267136 0)
(1.74607 -0.0254232 0)
(1.76032 -0.0248623 0)
(1.77383 -0.0215995 0)
(1.78616 -0.0147141 0)
(1.79641 -0.00927712 0)
(1.8032 -0.0049031 0)
(1.80936 -0.00780242 0)
(1.81531 -0.0130782 0)
(1.81595 -0.0238788 0)
(1.8083 -0.0426121 0)
(1.80016 -0.0622933 0)
(1.78405 -0.0874592 0)
(1.76792 -0.089446 0)
(1.7083 -0.0559928 0)