/*--------------------------------*- C++ -*----------------------------------*\
  =========                 |
  \\      /  F ield         | OpenFOAM: The Open Source CFD Toolbox
   \\    /   O peration     | Website:  https://openfoam.org
    \\  /    A nd           | Version:  7
     \\/     M anipulation  |
\*---------------------------------------------------------------------------*/
FoamFile
{
    version     2.0;
    format      ascii;
    class       volVectorField;
    location    "10";
    object      U;
}
// * * * * * * * * * * * * * * * * * * * * * * * * * * * * * * * * * * * * * //

dimensions      [0 1 -1 0 0 0 0];

internalField   nonuniform List<vector> 
5650
(
(-0.000951554 0.000706937 -2.03123e-21)
(-0.00470956 0.00149777 -9.87966e-22)
(-0.0111893 0.00184945 -1.59921e-20)
(-0.0182062 0.00188122 1.385e-20)
(-0.0248404 0.00167285 -3.57319e-21)
(-0.0303575 0.00128767 -2.1718e-20)
(-0.00104651 0.00210362 -2.17199e-21)
(-0.00485082 0.00445385 1.67871e-20)
(-0.0112274 0.00549623 2.40767e-20)
(-0.0180361 0.00558528 -3.34874e-20)
(-0.0243737 0.00495877 1.55751e-20)
(-0.0295186 0.00380568 -5.65157e-21)
(-0.00123194 0.00344921 -3.46929e-20)
(-0.0051233 0.00729254 4.47009e-20)
(-0.0112908 0.00898797 -6.59722e-21)
(-0.0176821 0.00911552 -4.39661e-20)
(-0.0234264 0.00806671 1.26953e-20)
(-0.0278276 0.006153 2.81078e-20)
(-0.00149903 0.00471115 -1.5428e-20)
(-0.00550713 0.00993881 -4.49793e-20)
(-0.0113542 0.0122254 -4.88174e-20)
(-0.0171164 0.0123605 -5.96162e-21)
(-0.0219708 0.0108826 -4.66245e-20)
(-0.0252588 0.00822032 -7.40412e-20)
(-0.0264591 0.00470066 8.44657e-20)
(-0.00183486 0.00585916 2.48049e-20)
(-0.00597308 0.0123224 -6.43998e-20)
(-0.01138 0.0151151 -4.39093e-20)
(-0.016298 0.0152154 1.57914e-19)
(-0.0199656 0.0132991 3.58305e-20)
(-0.0217729 0.00990504 1.04328e-19)
(-0.0212356 0.00544498 -1.29787e-19)
(-0.0022228 0.00686591 1.29799e-19)
(-0.00648324 0.0143795 4.5683e-20)
(-0.0113195 0.0175721 1.14499e-19)
(-0.015173 0.0175845 -1.43394e-19)
(-0.0173561 0.0152182 -1.68953e-19)
(-0.0173182 0.0111139 2.01864e-20)
(-0.0146196 0.00576176 -4.63434e-20)
(-0.00264297 0.00770769 -7.93851e-20)
(-0.00699187 0.0160541 -6.10899e-20)
(-0.011113 0.0195215 1.33559e-19)
(-0.0136749 0.0193833 -5.94339e-20)
(-0.0140749 0.016554 1.83502e-19)
(-0.0118301 0.0117658 -1.25203e-19)
(-0.00655332 0.00558009 1.17999e-20)
(-0.00307275 0.00836492 2.68114e-20)
(-0.00744629 0.0172994 1.10824e-19)
(-0.0106913 0.0209001 -8.57857e-20)
(-0.0117263 0.0205409 2.66601e-20)
(-0.0100421 0.0172348 -6.02194e-21)
(-0.00523173 0.0117942 2.60694e-19)
(0.00303282 0.0048437 -4.50414e-20)
(-0.00348732 0.00882244 2.2904e-20)
(-0.00778804 0.0180784 1.31424e-19)
(-0.00997652 0.0216582 1.00952e-19)
(-0.00923881 0.0210019 2.92961e-20)
(-0.00516633 0.0172053 -6.90881e-20)
(0.00256553 0.0111496 -1.00695e-19)
(0.0142192 0.00351372 -2.33253e-19)
(-0.00386023 0.00906975 1.51433e-19)
(-0.00795385 0.0183649 -1.03707e-19)
(-0.00888361 0.0217605 2.27663e-20)
(-0.00611521 0.0207274 -1.94385e-19)
(0.000654179 0.016429 2.45224e-19)
(0.011661 0.00980228 -2.79013e-19)
(0.0270961 0.0015713 -1.15987e-19)
(-0.00416399 0.00910102 1.11938e-19)
(-0.00787688 0.0181437 -1.06641e-20)
(-0.00732135 0.0211868 2.02487e-21)
(-0.00225018 0.0196971 -8.54134e-21)
(0.0075302 0.0148894 -1.25835e-19)
(0.0221632 0.00774398 -2.91416e-21)
(0.0417624 -0.000979829 1.15333e-20)
(0.0664098 -0.0107008 5.3955e-19)
(-0.00437042 0.00891476 -4.37195e-19)
(-0.00748786 0.0174105 -2.25127e-20)
(-0.00519399 0.0199329 -1.32956e-19)
(0.00246788 0.0179097 -3.73046e-20)
(0.0155798 0.0125919 1.22841e-19)
(0.034188 0.00499007 3.08034e-19)
(0.058323 -0.00411129 3.44484e-19)
(0.0879963 -0.014107 -2.38312e-19)
(-0.00445095 0.00851389 1.05248e-19)
(-0.00671577 0.0161721 -2.86793e-19)
(-0.00240265 0.0180102 5.85152e-20)
(0.00815504 0.0153838 -3.90236e-20)
(0.0249263 0.00956475 1.85702e-19)
(0.0478563 0.00158082 3.96628e-20)
(0.0768858 -0.00776829 -1.99355e-20)
(0.111946 -0.017861 1.19469e-19)
(-0.00437736 0.00790552 6.65338e-20)
(-0.00548908 0.0144458 3.55047e-19)
(0.00115327 0.0154461 -3.05144e-19)
(0.0149298 0.012158 3.29418e-19)
(0.0356955 0.00585932 -1.96188e-19)
(0.0632902 -0.00241763 1.95803e-19)
(0.0975575 -0.0118686 -3.52221e-19)
(0.138337 -0.0218636 2.57037e-19)
(-0.0041218 0.0071003 1.06292e-19)
(-0.00373671 0.0122589 -2.86684e-21)
(0.00557449 0.0122837 -1.04793e-20)
(0.022911 0.00829089 -1.80309e-19)
(0.0480125 0.0015507 -2.09103e-19)
(0.0806094 -0.00691298 -2.30748e-19)
(0.120439 -0.0163023 -6.93754e-20)
(0.167235 -0.0259875 -1.15697e-19)
(0.220676 -0.0354789 -4.39382e-20)
(-0.00365701 0.0061122 -1.72939e-19)
(-0.00138881 0.0096483 4.65312e-20)
(0.0109601 0.00858068 4.41968e-20)
(0.032215 0.00386075 2.71267e-19)
(0.0619988 -0.00326286 -1.46011e-19)
(0.0999266 -0.0117872 -2.54172e-19)
(0.145618 -0.0209322 3.36504e-19)
(0.198684 -0.0300785 -2.8819e-19)
(0.25866 -0.0387435 2.177e-19)
(-0.00295651 0.00495823 9.82462e-20)
(0.00162238 0.00665995 -3.09935e-19)
(0.0174058 0.00440938 3.89187e-19)
(0.042953 -0.00103548 -2.83394e-19)
(0.0777677 -0.00846087 2.14678e-19)
(0.121342 -0.0168977 1.1521e-19)
(0.173166 -0.025596 -1.47557e-19)
(0.232704 -0.0339582 7.62955e-20)
(0.299323 -0.0415205 -1.29938e-19)
(-0.00199476 0.00365808 7.90893e-20)
(0.00536168 0.00334797 2.21966e-19)
(0.0250023 -0.000144639 -4.26428e-19)
(0.0552283 -0.00628317 1.30512e-19)
(0.0954203 -0.013902 1.23179e-19)
(0.144938 -0.0220794 2.41568e-19)
(0.203125 -0.0301087 -3.38236e-20)
(0.269277 -0.0374277 4.81415e-19)
(0.342558 -0.0436064 -3.44437e-19)
(0.421915 -0.0483236 4.29251e-19)
(-0.00074731 0.00223393 -1.86159e-19)
(0.00989008 -0.000225766 9.98101e-20)
(0.0338331 -0.00498335 -3.23614e-19)
(0.0691327 -0.0117514 6.93156e-19)
(0.115041 -0.0194263 -1.7656e-19)
(0.170774 -0.0271474 -1.78823e-19)
(0.235507 -0.0342666 1.96074e-20)
(0.308342 -0.0402732 6.50085e-20)
(0.388203 -0.0447892 2.39121e-19)
(0.473756 -0.0475509 1.26541e-19)
(0.00080904 0.000710289 5.26764e-19)
(0.0152638 -0.00399223 1.08073e-19)
(0.0439725 -0.00999741 -3.25907e-20)
(0.0847437 -0.017295 -2.46692e-19)
(0.136694 -0.0248574 -1.29301e-20)
(0.198879 -0.0319008 2.46706e-19)
(0.270285 -0.0378522 5.03094e-19)
(0.349785 -0.0422717 -5.85694e-19)
(0.436031 -0.0448561 -4.26933e-19)
(0.527373 -0.0454259 -1.90195e-19)
(0.621793 -0.0439119 -1.17793e-19)
(0.002696 -0.000886147 -3.48085e-19)
(0.0215331 -0.00787582 3.08539e-20)
(0.0554837 -0.0150673 1.26019e-19)
(0.102121 -0.0227561 3.98871e-19)
(0.160415 -0.030006 1.51978e-20)
(0.229246 -0.0361269 -2.55048e-19)
(0.307383 -0.0406402 -2.41349e-19)
(0.393437 -0.0431991 2.00366e-19)
(0.485751 -0.0436019 6.69536e-19)
(0.582325 -0.0417853 2.11677e-19)
(0.680787 -0.0378116 4.70109e-19)
(0.00493349 -0.00252651 -1.57833e-20)
(0.0287415 -0.0117948 -6.56151e-20)
(0.0684165 -0.0200648 -3.48789e-19)
(0.121304 -0.0279668 -2.10141e-19)
(0.186214 -0.0346732 1.65895e-19)
(0.261831 -0.0396063 2.17827e-19)
(0.346679 -0.0424035 1.12634e-19)
(0.439071 -0.0428371 -2.2067e-19)
(0.537006 -0.040837 -1.34017e-19)
(0.63811 -0.0364904 -1.59242e-19)
(0.739649 -0.0300314 -4.628e-19)
(0.838675 -0.0217581 -3.50494e-19)
(0.00753927 -0.0041798 -5.63715e-20)
(0.0369241 -0.015662 -4.89803e-20)
(0.0828051 -0.0248543 -2.10544e-20)
(0.142306 -0.0327519 -5.15358e-19)
(0.214065 -0.0386546 4.19323e-20)
(0.296546 -0.042118 -3.78326e-19)
(0.387996 -0.0429209 4.62112e-19)
(0.4864 -0.0409823 -3.64545e-19)
(0.589381 -0.0363961 2.5846e-19)
(0.694176 -0.0294341 -2.61687e-19)
(0.7977 -0.0205349 6.97098e-19)
(0.896757 -0.0102257 5.14268e-20)
(0.988092 0.000583574 -5.07556e-19)
(0.0105285 -0.00581293 -1.50411e-19)
(0.0461066 -0.0193853 2.05579e-19)
(0.098666 -0.0292944 3.79988e-19)
(0.165116 -0.0369313 2.329e-19)
(0.243907 -0.0417442 2.45521e-19)
(0.333256 -0.0434458 -1.24547e-19)
(0.431106 -0.0419833 -2.1855e-19)
(0.535081 -0.0374538 -1.96696e-19)
(0.64241 -0.0301472 -4.14769e-19)
(0.749942 -0.0205501 1.97094e-19)
(0.854276 -0.00932729 -3.34761e-19)
(0.952029 0.00276211 -1.54311e-20)
(1.03996 0.0145565 -1.46552e-19)
(0.0139131 -0.00739072 5.46176e-20)
(0.0563039 -0.0228683 -2.97236e-20)
(0.115996 -0.0332396 -4.34013e-19)
(0.189694 -0.0403232 -2.44877e-19)
(0.27564 -0.0437391 -4.30651e-19)
(0.371782 -0.0433834 3.83677e-19)
(0.475729 -0.0394015 -4.25313e-19)
(0.584723 -0.0321007 6.5062e-19)
(0.69559 -0.0219984 2.8343e-19)
(0.804819 -0.00981998 1.79319e-19)
(0.908749 0.00353483 -4.22154e-20)
(1.00391 0.017092 -6.17969e-20)
(1.08723 0.0295362 1.31052e-19)
(1.15769 0.0416692 2.5793e-19)
(0.0177012 -0.00887607 3.56771e-19)
(0.0675184 -0.0260112 -4.01393e-19)
(0.134772 -0.0365423 3.22797e-19)
(0.215968 -0.0427476 2.30711e-19)
(0.309125 -0.0444442 4.12158e-19)
(0.411899 -0.0417406 7.38665e-20)
(0.521539 -0.0350122 4.41537e-19)
(0.634892 -0.0248088 -4.85777e-19)
(0.748397 -0.0119031 -7.05048e-20)
(0.858224 0.00272462 -2.26383e-19)
(0.960548 0.0179446 -1.6486e-19)
(1.05194 0.0326007 -2.32635e-19)
(1.12962 0.045316 -6.02003e-20)
(1.19278 0.0567343 1.84066e-19)
(1.23744 0.0573474 -3.69626e-19)
(0.0218968 -0.0102301 -1.00117e-19)
(0.0797392 -0.0287118 3.02577e-19)
(0.154945 -0.0390552 -5.5664e-19)
(0.243835 -0.044029 -1.41496e-19)
(0.344186 -0.0436762 -2.76502e-19)
(0.453337 -0.0383482 -6.22782e-19)
(0.568167 -0.0286831 -3.25978e-19)
(0.685127 -0.0155042 1.73638e-19)
(0.800297 0.000138351 1.07997e-19)
(0.909604 0.0170039 -1.16593e-19)
(1.00917 0.0337516 3.2179e-19)
(1.09575 0.0490909 2.9732e-19)
(1.16702 0.0616678 4.4868e-19)
(1.22253 0.0720126 -2.35748e-19)
(1.25985 0.0720851 -5.09628e-20)
(0.0264986 -0.0114124 -1.42161e-19)
(0.0929404 -0.0308669 -2.08418e-20)
(0.176444 -0.040633 2.50925e-19)
(0.27316 -0.0440006 -3.27324e-20)
(0.380605 -0.0412683 -9.53782e-20)
(0.49579 -0.033063 2.69302e-19)
(0.615213 -0.0203179 8.42445e-20)
(0.734948 -0.00415655 -8.7891e-20)
(0.850768 0.014079 1.35043e-19)
(0.958453 0.0328947 4.28389e-19)
(1.0542 0.0507724 -4.50081e-19)
(1.1351 0.0663463 -1.19506e-19)
(1.19941 0.0783636 -5.31495e-20)
(1.24719 0.0873092 3.11476e-19)
(1.27739 0.0866365 2.22386e-19)
(0.0314998 -0.0123815 2.6927e-19)
(0.10708 -0.0323732 -1.45842e-21)
(0.199174 -0.0411354 1.19021e-19)
(0.303775 -0.0425071 4.47454e-19)
(0.418132 -0.0370743 2.58974e-19)
(0.538915 -0.025772 -2.30333e-19)
(0.662252 -0.00985861 1.10677e-19)
(0.783869 0.00922075 9.99782e-20)
(0.899311 0.0298284 -4.86363e-19)
(1.00432 0.0502379 -4.85535e-19)
(1.09533 0.068801 1.62381e-19)
(1.16988 0.0841456 1.64338e-19)
(1.22691 0.0951907 -1.8887e-20)
(1.26709 0.10245 -3.36049e-19)
(1.29056 0.100775 -2.25214e-19)
(0.0368872 -0.0130955 2.86281e-19)
(0.122101 -0.0331295 3.75856e-20)
(0.223014 -0.0404293 -2.35458e-19)
(0.335484 -0.0394084 -2.8114e-19)
(0.456484 -0.0309721 8.80898e-20)
(0.582346 -0.016395 3.36771e-19)
(0.708844 0.00271281 1.62313e-20)
(0.831415 0.0245718 2.40445e-19)
(0.945467 0.0472575 2.20988e-19)
(1.04684 0.0688466 9.29456e-20)
(1.13231 0.0876205 2.72594e-19)
(1.20004 0.102274 -4.89372e-20)
(1.24971 0.111962 1.86281e-19)
(1.28261 0.117292 -1.61788e-19)
(1.29988 0.114371 4.0424e-19)
(0.0426414 -0.0135124 -2.64602e-19)
(0.137926 -0.0330383 -2.74223e-19)
(0.247817 -0.038392 2.1881e-19)
(0.36806 -0.0345829 1.6735e-19)
(0.495351 -0.022867 -2.15433e-19)
(0.625693 -0.00488753 -1.07486e-19)
(0.754547 0.017374 2.39785e-19)
(0.877132 0.0418011 -6.34337e-19)
(0.988828 0.0662052 -6.33802e-20)
(1.08571 0.0885154 1.42565e-19)
(1.16504 0.107013 3.40697e-19)
(1.22567 0.120533 -1.34711e-20)
(1.26807 0.128519 -3.75628e-19)
(1.29415 0.131728 -7.89944e-20)
(1.30584 0.127362 -9.76656e-20)
(0.0487355 -0.0135911 2.3209e-19)
(0.154464 -0.0320075 2.13579e-19)
(0.273414 -0.0349137 1.7914e-19)
(0.40125 -0.0279306 1.31277e-21)
(0.534399 -0.0126944 4.05483e-20)
(0.668559 0.00875847 1.14053e-19)
(0.798928 0.0340636 -1.65801e-19)
(0.920598 0.0607775 2.26345e-19)
(1.02905 0.0864847 -1.66513e-19)
(1.1207 0.109029 4.18212e-20)
(1.19346 0.126766 -2.68332e-20)
(1.24692 0.138745 -3.04591e-19)
(1.2823 0.144737 3.40394e-19)
(1.30212 0.145682 -1.07459e-20)
(1.3089 0.139731 1.68213e-20)
(0.0551357 -0.0132923 3.02439e-20)
(0.171605 -0.029953 -7.08358e-20)
(0.299615 -0.0299003 -1.6415e-19)
(0.434782 -0.0193758 1.65514e-19)
(0.573279 -0.000421816 1.39476e-19)
(0.710541 0.024514 -4.87171e-20)
(0.84157 0.0526834 -3.91981e-19)
(0.961434 0.0813397 6.26262e-20)
(1.06583 0.107892 3.00902e-19)
(1.1517 0.13017 -2.15185e-19)
(1.21761 0.146683 -2.15516e-19)
(1.26397 0.156756 2.14041e-19)
(1.29274 0.160515 -2.28526e-20)
(1.30691 0.159106 1.90178e-20)
(1.30946 0.151483 1.4823e-19)
(0.0618009 -0.0125793 -1.11446e-19)
(0.189222 -0.0268003 7.2945e-20)
(0.326207 -0.0232759 -1.09395e-19)
(0.468361 -0.00886942 -3.20691e-19)
(0.611634 0.01395 -2.36582e-19)
(0.751243 0.0423139 5.93484e-20)
(0.882081 0.0731016 7.46266e-20)
(0.999307 0.103301 2.49724e-19)
(1.09898 0.13021 -2.74415e-19)
(1.17862 0.151725 2.41098e-19)
(1.2376 0.166581 -4.32087e-20)
(1.27709 0.174435 2.05209e-19)
(1.29973 0.175783 -1.7291e-19)
(1.30891 0.171973 -2.19679e-20)
(1.30789 0.162644 9.01172e-21)
(0.0686831 -0.0114187 -1.57378e-19)
(0.207175 -0.022487 -1.74164e-19)
(0.352962 -0.0149856 -1.217e-19)
(0.501683 0.00360879 2.90543e-19)
(0.649101 0.0303861 2.74549e-19)
(0.790281 0.0620581 -3.01644e-19)
(0.920104 0.0951565 -2.949e-20)
(1.03394 0.126457 -6.45892e-21)
(1.12832 0.153219 9.49613e-20)
(1.20147 0.173489 -1.46161e-19)
(1.25356 0.186299 -7.84186e-20)
(1.28655 0.191677 -5.72554e-20)
(1.30362 0.190487 3.87784e-20)
(1.30846 0.184271 -4.74219e-20)
(1.30448 0.17324 -1.19169e-19)
(0.0757274 -0.00978198 3.99279e-20)
(0.225309 -0.0169647 9.42172e-20)
(0.379636 -0.00499725 7.91044e-20)
(0.534433 0.018049 -1.96859e-19)
(0.685322 0.0488178 -1.82418e-19)
(0.827294 0.0836142 1.78791e-19)
(0.955322 0.118661 -2.53731e-20)
(1.06511 0.150587 -1.91793e-20)
(1.15377 0.176698 5.83307e-20)
(1.22031 0.195271 -1.64362e-19)
(1.26571 0.205695 2.36684e-20)
(1.29262 0.208395 -4.25511e-20)
(1.30472 0.204592 -1.34877e-20)
(1.30588 0.195998 -1.26069e-20)
(1.29952 0.183302 9.6533e-20)
(0.0828728 -0.00764587 5.7898e-20)
(0.243457 -0.0102009 6.41344e-20)
(0.405977 0.0066966 1.00322e-19)
(0.566293 0.0344105 1.73983e-19)
(0.719948 0.0691435 2.63719e-20)
(0.861945 0.10682 3.74322e-20)
(0.98746 0.143408 1.8723e-20)
(1.09265 0.175466 -1.29535e-19)
(1.1753 0.200433 1.58763e-19)
(1.23523 0.216893 7.79467e-20)
(1.27424 0.224644 1.25148e-19)
(1.2956 0.22452 2.97578e-20)
(1.30333 0.218073 -2.55276e-20)
(1.30143 0.207158 3.91221e-20)
(1.29321 0.192853 -5.02907e-20)
(0.0900528 -0.00499349 7.34351e-21)
(0.261444 -0.00218046 -4.65174e-20)
(0.431724 0.0200773 7.93666e-21)
(0.596948 0.0526214 -2.25961e-20)
(0.752646 0.0912303 6.36682e-21)
(0.89393 0.131488 1.04088e-19)
(1.01629 0.169174 -4.13543e-20)
(1.11644 0.200862 1.32338e-20)
(1.19292 0.224214 -5.62272e-20)
(1.2464 0.238193 -7.15139e-20)
(1.2794 0.243039 -1.24541e-20)
(1.29575 0.239996 1.80018e-20)
(1.29975 0.230914 5.93872e-20)
(1.29537 0.217755 -1.53646e-20)
(1.28575 0.201913 6.24319e-21)
(0.0971963 -0.00181513 -1.56644e-20)
(0.279085 0.00709295 -7.47706e-21)
(0.456615 0.0350994 -4.0291e-20)
(0.62609 0.0725791 -4.38701e-20)
(0.783107 0.114916 -9.72908e-21)
(0.922982 0.157406 -1.86805e-20)
(1.04163 0.195722 2.15905e-20)
(1.13642 0.226545 -1.06865e-20)
(1.2067 0.247845 3.70384e-21)
(1.25396 0.259025 4.56717e-21)
(1.28142 0.260789 5.89716e-20)
(1.29335 0.25478 -4.68791e-21)
(1.29421 0.243102 6.35436e-21)
(1.28788 0.227791 4.22932e-20)
(1.27728 0.210493 -2.70174e-22)
(0.104229 0.00189111 6.45704e-22)
(0.296196 0.0175958 -7.40646e-21)
(0.480389 0.0516901 3.78827e-20)
(0.653425 0.0941513 -2.14582e-20)
(0.811045 0.14001 7.45868e-21)
(0.948872 0.184346 -5.97798e-21)
(1.06335 0.222811 2.10877e-21)
(1.15257 0.252289 2.84805e-21)
(1.21673 0.27114 8.48538e-21)
(1.2581 0.279256 2.33374e-20)
(1.28054 0.277816 -9.66282e-21)
(1.28865 0.268833 -1.89729e-21)
(1.28694 0.254626 -6.12373e-21)
(1.27915 0.237268 -8.48383e-21)
(1.26793 0.218599 -4.10209e-21)
(0.111072 0.00611874 3.49644e-21)
(0.312587 0.029284 1.43838e-21)
(0.502792 0.0697497 1.88975e-20)
(0.678674 0.117178 -1.50885e-20)
(0.836205 0.166302 4.85818e-21)
(0.971412 0.212064 7.80876e-22)
(1.08136 0.250193 -2.92621e-21)
(1.16492 0.277872 2.40064e-21)
(1.22314 0.293926 1.40883e-20)
(1.25904 0.298767 1.08907e-20)
(1.277 0.294049 -4.80019e-24)
(1.28186 0.282124 -5.78664e-21)
(1.27812 0.265475 -4.10527e-21)
(1.26933 0.246181 -6.09949e-21)
(1.2578 0.226226 -1.82693e-21)
(0.117649 0.0108525 1.56605e-20)
(0.328073 0.0420929 -1.50759e-20)
(0.52358 0.0891522 -2.62561e-20)
(0.701583 0.141471 -4.14569e-20)
(0.858367 0.193558 -2.0748e-20)
(0.990456 0.240305 -1.86901e-20)
(1.09561 0.277622 1.13628e-20)
(1.17353 0.303084 1.42612e-20)
(1.22607 0.316041 -3.39194e-21)
(1.25697 0.317453 -7.15645e-21)
(1.27101 0.30943 5.28752e-20)
(1.2732 0.294623 -6.90301e-21)
(1.26794 0.275635 6.43192e-21)
(1.25854 0.254522 2.29771e-20)
(1.24697 0.233367 3.98038e-21)
(0.123881 0.0160682 3.35581e-20)
(0.342475 0.0559374 -2.3099e-20)
(0.542524 0.109747 -2.95794e-20)
(0.721921 0.166823 9.9468e-21)
(0.877345 0.221528 1.32882e-20)
(1.0059 0.268807 6.64715e-20)
(1.1061 0.304854 -1.64863e-20)
(1.17848 0.327722 2.97798e-20)
(1.22571 0.337337 -7.66899e-20)
(1.2521 0.335217 -1.34413e-20)
(1.26279 0.323903 -4.8915e-20)
(1.26286 0.306302 3.44296e-20)
(1.25654 0.285091 9.85586e-21)
(1.24688 0.262276 9.81715e-21)
(1.23553 0.240007 -4.78181e-21)
(0.129691 0.0217324 2.30833e-20)
(0.355619 0.0707125 2.452e-20)
(0.559414 0.131359 1.06488e-19)
(0.739489 0.193002 1.75291e-19)
(0.892993 0.249949 5.54007e-20)
(1.01768 0.297305 -3.94084e-20)
(1.11286 0.331651 1.61697e-20)
(1.1799 0.351593 -2.05262e-20)
(1.22221 0.357676 5.77808e-20)
(1.24463 0.351971 7.63891e-20)
(1.25254 0.337418 4.49326e-20)
(1.251 0.317133 4.88691e-20)
(1.24405 0.293824 -1.23269e-20)
(1.23445 0.269425 -3.07459e-21)
(1.22352 0.246126 -1.80969e-20)
(0.135005 0.0278031 -8.49429e-20)
(0.367346 0.0862943 1.72378e-19)
(0.57406 0.153793 1.62638e-20)
(0.754116 0.21976 -1.68854e-19)
(0.905201 0.278549 -7.18972e-20)
(1.02577 0.325533 6.40827e-20)
(1.11595 0.35778 1.24596e-20)
(1.17793 0.374518 -1.66075e-20)
(1.21578 0.376933 -4.44526e-20)
(1.23478 0.367637 -4.59052e-20)
(1.24045 0.349929 -4.92203e-20)
(1.23778 0.327088 1.22218e-20)
(1.23057 0.301813 -9.49675e-21)
(1.22133 0.275949 5.43045e-21)
(1.21099 0.2517 2.16907e-20)
(0.139753 0.0342295 -1.01749e-19)
(0.377509 0.102542 -1.05889e-19)
(0.586299 0.176836 -8.14516e-20)
(0.765668 0.246837 1.09634e-19)
(0.913898 0.307051 1.87862e-19)
(1.03019 0.353229 -1.52548e-19)
(1.11548 0.383019 5.61046e-21)
(1.17273 0.396327 -1.10377e-20)
(1.20661 0.394992 1.28251e-20)
(1.22272 0.382142 -1.8214e-20)
(1.22669 0.361392 -6.34421e-20)
(1.22334 0.336137 -1.76571e-20)
(1.21623 0.309033 -2.14296e-20)
(1.20759 0.281828 -4.84487e-21)
(1.198 0.256705 -2.71609e-20)
(0.14387 0.0409528 -8.00666e-21)
(0.38598 0.119297 7.52905e-20)
(0.595992 0.200258 -1.59072e-19)
(0.774045 0.27396 -2.25452e-19)
(0.919052 0.335174 -1.9275e-19)
(1.03097 0.380136 1.74596e-21)
(1.11156 0.407156 1.18329e-19)
(1.16447 0.416861 5.94611e-20)
(1.19489 0.411746 -1.63072e-20)
(1.20867 0.39542 4.27339e-20)
(1.21142 0.371765 2.05103e-20)
(1.20779 0.344249 1.91312e-20)
(1.20109 0.315454 -3.90516e-20)
(1.19328 0.287036 1.13516e-21)
(1.1846 0.261105 5.28776e-22)
(0.147298 0.0479067 1.25121e-19)
(0.392646 0.13639 -1.33174e-19)
(0.603033 0.223817 -1.48601e-19)
(0.779183 0.300851 1.9791e-19)
(0.920669 0.362639 5.03414e-20)
(1.02822 0.406004 -1.04704e-19)
(1.10434 0.429991 -1.36951e-19)
(1.15334 0.435976 -8.12399e-21)
(1.18082 0.427097 1.43747e-19)
(1.19279 0.407407 -6.86325e-20)
(1.1948 0.381007 -4.03511e-20)
(1.19127 0.351394 3.61899e-22)
(1.18525 0.321051 1.39129e-20)
(1.17846 0.291537 6.04728e-21)
(1.17085 0.264884 2.43206e-20)
(0.149988 0.0550186 1.85494e-19)
(0.397419 0.153639 5.87835e-20)
(0.607345 0.247263 1.47103e-19)
(0.781052 0.327228 -2.81389e-20)
(0.918788 0.38917 5.66042e-20)
(1.02202 0.430594 8.29313e-20)
(1.09398 0.451335 -4.45538e-20)
(1.13953 0.453537 6.30126e-20)
(1.16459 0.440957 -8.35803e-20)
(1.17527 0.418047 6.53061e-20)
(1.17696 0.389078 -2.36875e-20)
(1.17387 0.357539 -9.82971e-20)
(1.16879 0.325794 7.22962e-20)
(1.16318 0.295301 -2.99764e-21)
(1.15677 0.268006 -8.28361e-21)
(0.151897 0.06221 -2.89205e-19)
(0.400232 0.170852 -1.41842e-19)
(0.608881 0.270337 2.53602e-19)
(0.779663 0.352811 1.14305e-19)
(0.913485 0.414501 -1.94502e-19)
(1.01253 0.453676 -1.06986e-19)
(1.08067 0.471012 1.29799e-19)
(1.12324 0.46942 -1.6343e-19)
(1.14641 0.453244 -8.3611e-20)
(1.15627 0.427286 7.60444e-20)
(1.15805 0.395941 6.34071e-20)
(1.15569 0.362652 -1.47567e-20)
(1.15176 0.329654 -3.01602e-20)
(1.14749 0.298299 -2.13861e-21)
(1.14241 0.270442 6.70682e-21)
(0.152994 0.0693982 1.42503e-19)
(0.40104 0.187833 1.67057e-20)
(0.60763 0.292782 -2.02331e-19)
(0.775056 0.377323 -2.44833e-19)
(0.904866 0.438373 1.02745e-19)
(0.999904 0.475038 3.1926e-19)
(1.0646 0.488862 -8.43966e-20)
(1.10469 0.483514 1.08291e-19)
(1.12647 0.463885 4.81108e-20)
(1.13596 0.435076 4.68765e-20)
(1.13819 0.401559 -1.5105e-20)
(1.13684 0.366703 1.46205e-20)
(1.13424 0.3326 4.25284e-21)
(1.13145 0.3005 1.382e-20)
(1.1278 0.272159 -4.36805e-20)
(0.153256 0.0764968 8.0688e-20)
(0.399824 0.20438 7.25348e-20)
(0.603609 0.314338 1.42586e-19)
(0.767308 0.400493 1.36763e-19)
(0.893069 0.460541 1.61066e-19)
(0.984324 0.494479 -1.69464e-19)
(1.04599 0.504736 1.27168e-19)
(1.08408 0.495717 3.42091e-22)
(1.10495 0.472813 -6.55397e-20)
(1.1145 0.441372 -8.34886e-20)
(1.11751 0.405899 -1.63773e-20)
(1.1174 0.369663 8.5806e-21)
(1.11629 0.334605 8.13108e-21)
(1.11509 0.301877 1.99469e-20)
(1.11299 0.273129 4.30201e-20)
(0.152672 0.0834177 -1.32874e-19)
(0.39659 0.220293 1.31945e-20)
(0.59687 0.334753 2.94347e-20)
(0.756528 0.422063 7.06521e-20)
(0.878256 0.480773 -1.07271e-19)
(0.965996 0.511814 8.70766e-20)
(1.02505 0.518502 2.288e-20)
(1.06162 0.505939 -1.12663e-21)
(1.08205 0.47997 2.91146e-20)
(1.09204 0.446134 1.2819e-20)
(1.09613 0.40893 -6.04998e-21)
(1.09746 0.371503 2.1361e-20)
(1.09798 0.335642 1.86079e-20)
(1.09845 0.302401 -4.4313e-20)
(1.09801 0.273321 -5.61784e-20)
(0.151241 0.090072 -2.41362e-21)
(0.391368 0.235372 8.95262e-20)
(0.587495 0.353779 -1.39998e-19)
(0.742859 0.441786 -1.69502e-19)
(0.860613 0.498854 -1.20648e-19)
(0.945137 0.526878 -1.47444e-19)
(1.00201 0.53004 -5.60582e-20)
(1.03753 0.514103 -8.99109e-21)
(1.05795 0.485304 1.735e-20)
(1.06875 0.449326 1.77307e-23)
(1.07418 0.410623 -4.02371e-20)
(1.07713 0.3722 -4.26037e-20)
(1.07936 0.335691 -3.79015e-20)
(1.08158 0.302049 1.08741e-20)
(1.08289 0.272705 3.09085e-20)
(0.148975 0.096372 6.43559e-20)
(0.38421 0.249421 -9.70989e-20)
(0.575594 0.371181 1.57838e-19)
(0.726461 0.459433 1.68451e-20)
(0.840353 0.514589 6.96396e-20)
(0.921983 0.539519 6.99141e-20)
(0.977107 0.539247 4.06017e-20)
(1.01202 0.520141 -1.02965e-20)
(1.03284 0.488773 -5.99322e-21)
(1.04477 0.450917 6.49992e-20)
(1.05176 0.410954 -1.28499e-21)
(1.05647 0.371732 3.17184e-20)
(1.06052 0.334732 1.91442e-20)
(1.06451 0.300801 -1.35012e-20)
(1.06766 0.271251 -4.19079e-20)
(0.145893 0.102231 -6.29685e-20)
(0.375195 0.262256 1.32261e-20)
(0.561304 0.386735 -1.11198e-19)
(0.707527 0.474786 -6.91457e-20)
(0.817709 0.527802 -3.26646e-20)
(0.89678 0.549607 6.047e-21)
(0.950576 0.546035 -2.21099e-20)
(0.985318 0.523997 -1.39084e-20)
(1.00689 0.490339 -4.25117e-20)
(1.02024 0.450882 -3.35778e-20)
(1.02901 0.409902 3.67344e-21)
(1.0356 0.370082 3.90545e-20)
(1.04151 0.332752 -3.98012e-20)
(1.04729 0.298641 9.41096e-20)
(1.05236 0.268924 1.76288e-19)
(0.142024 0.107561 -3.83645e-20)
(0.364427 0.273701 3.09469e-20)
(0.54479 0.400237 3.69094e-20)
(0.686275 0.487656 5.99116e-20)
(0.792925 0.538334 2.61309e-20)
(0.869782 0.557031 -6.28445e-21)
(0.922659 0.550331 4.70456e-21)
(0.957625 0.525626 -1.06963e-20)
(0.980302 0.489975 9.53649e-20)
(0.995315 0.4492 -7.18005e-20)
(1.00602 0.407451 2.05415e-19)
(1.01461 0.367236 -3.61836e-20)
(1.02241 0.329743 1.00562e-19)
(1.02994 0.295557 -1.14625e-19)
(1.03698 0.265686 1.02764e-20)
(0.137415 0.11228 -1.44191e-20)
(0.352026 0.283586 -2.66373e-20)
(0.526239 0.4115 1.653e-20)
(0.662941 0.49787 -1.87759e-20)
(0.766263 0.546052 -1.76576e-22)
(0.84125 0.561698 3.63798e-20)
(0.893602 0.552078 -6.66633e-20)
(0.929157 0.524995 1.18398e-19)
(0.953236 0.487662 -9.10091e-20)
(0.970137 0.445859 5.50388e-20)
(0.982936 0.403588 -2.1497e-19)
(0.993598 0.363185 -8.08662e-20)
(1.0033 0.325702 -2.09256e-19)
(1.01251 0.29154 -1.6935e-19)
(1.02159 0.2615 -7.05719e-20)
(0.13212 0.116319 4.21093e-21)
(0.33813 0.291761 -4.77168e-24)
(0.505859 0.420357 1.12057e-20)
(0.637778 0.505281 4.08955e-20)
(0.737994 0.550844 -1.53236e-20)
(0.811453 0.563534 -3.35535e-20)
(0.863647 0.551233 4.89735e-20)
(0.900125 0.522082 -4.51456e-20)
(0.92587 0.483386 1.8803e-19)
(0.944849 0.440848 -3.16123e-20)
(0.95986 0.398308 2.09525e-19)
(0.972665 0.357925 -1.51775e-19)
(0.984259 0.320631 2.20297e-19)
(0.995072 0.286584 2.04559e-19)
(1.00627 0.25631 -2.37028e-19)
(0.126199 0.11961 5.29071e-20)
(0.322899 0.298094 4.25202e-20)
(0.483878 0.426661 -6.10001e-20)
(0.611054 0.509765 -1.23487e-20)
(0.7084 0.552623 -1.48476e-20)
(0.780661 0.562486 8.72082e-20)
(0.833039 0.54777 1.71431e-19)
(0.870737 0.516877 -2.20055e-19)
(0.898375 0.477146 -1.32883e-19)
(0.919587 0.434168 -1.46403e-19)
(0.936909 0.391607 -2.69261e-19)
(0.951912 0.351457 4.0539e-20)
(0.965397 0.314544 -1.24127e-19)
(0.977802 0.280724 -6.40101e-20)
(0.990983 0.25019 6.16865e-20)
(0.11972 0.122091 -1.74049e-19)
(0.306505 0.302469 1.61703e-20)
(0.460538 0.430294 -5.19985e-20)
(0.583048 0.511225 1.39094e-19)
(0.67777 0.551323 -6.9749e-21)
(0.749148 0.558522 -7.72208e-20)
(0.80202 0.54168 -1.02593e-19)
(0.841199 0.509382 1.06656e-19)
(0.87092 0.468948 2.76006e-19)
(0.89449 0.425824 1.87116e-19)
(0.914196 0.383489 2.76967e-19)
(0.931437 0.34378 -1.39114e-19)
(0.946856 0.307443 3.76569e-19)
(0.961026 0.274079 2.63103e-19)
(0.97541 0.242968 -1.06535e-19)
(0.11276 0.12371 9.59853e-20)
(0.289137 0.30479 3.17921e-20)
(0.436095 0.431158 -2.7197e-20)
(0.554049 0.509588 -1.5893e-19)
(0.646394 0.546904 1.58478e-20)
(0.717184 0.551629 1.66527e-19)
(0.770828 0.532967 -1.01395e-19)
(0.81171 0.499611 7.94315e-20)
(0.843669 0.458807 -1.57466e-19)
(0.869688 0.415828 -1.58331e-20)
(0.891826 0.373963 -9.57877e-20)
(0.911332 0.334893 1.3899e-19)
(0.928774 0.299272 -3.0782e-19)
(0.944904 0.266687 7.18658e-20)
(0.960818 0.236212 -7.77719e-20)
(0.105402 0.124424 -3.40347e-20)
(0.270993 0.30498 -9.79048e-20)
(0.410815 0.429184 6.98697e-20)
(0.524353 0.504809 -1.58331e-20)
(0.614566 0.53935 1.93034e-20)
(0.685041 0.541812 -1.9448e-19)
(0.7397 0.521652 3.45948e-20)
(0.782468 0.48759 -2.2242e-19)
(0.816783 0.446747 1.78357e-19)
(0.845313 0.404203 1.67223e-19)
(0.869904 0.363047 2.30773e-19)
(0.891675 0.324811 4.05916e-20)
(0.911146 0.290051 2.43937e-21)
(0.92912 0.258362 -1.21286e-19)
(0.946325 0.228891 4.20573e-19)
(0.0977344 0.124201 -1.01491e-19)
(0.252279 0.302986 1.93245e-20)
(0.384968 0.424329 -1.04565e-19)
(0.494255 0.496871 2.04046e-19)
(0.582578 0.528669 -1.51892e-19)
(0.652985 0.5291 -8.35604e-20)
(0.708866 0.507772 2.1468e-19)
(0.753664 0.473357 -1.56185e-19)
(0.790418 0.432805 1.64328e-20)
(0.821492 0.390977 -1.98807e-19)
(0.848535 0.350766 -2.31849e-21)
(0.872552 0.313558 6.70411e-20)
(0.894032 0.279819 2.4559e-19)
(0.913778 0.249152 3.14915e-19)
(0.932283 0.220829 -3.03146e-19)
(0.0898502 0.123015 2.58353e-19)
(0.233209 0.298776 3.78847e-20)
(0.358832 0.416577 -1.45112e-19)
(0.464056 0.485782 -1.5804e-19)
(0.55072 0.514891 9.60752e-20)
(0.621277 0.513538 1.22176e-19)
(0.678549 0.491378 -2.62485e-19)
(0.725486 0.456962 1.20225e-19)
(0.764727 0.417023 -2.10222e-19)
(0.798351 0.376187 2.6883e-19)
(0.827822 0.337149 -3.81805e-19)
(0.854051 0.301159 -4.73789e-20)
(0.877508 0.268601 -3.88523e-19)
(0.898976 0.239091 -2.91085e-19)
(0.918802 0.211999 -1.44945e-19)
(0.0818446 0.120856 5.55575e-21)
(0.213997 0.292339 2.7173e-20)
(0.332685 0.405939 1.03757e-19)
(0.43405 0.471576 6.2404e-20)
(0.519275 0.498071 3.18254e-19)
(0.590172 0.49519 7.41529e-20)
(0.648968 0.472535 2.95172e-20)
(0.698113 0.438465 2.87482e-19)
(0.739858 0.399454 -6.69101e-20)
(0.776009 0.359878 -3.01422e-19)
(0.807866 0.322233 2.19549e-19)
(0.836259 0.287643 2.65165e-19)
(0.861647 0.256418 -2.09459e-19)
(0.884787 0.228196 -2.8018e-19)
(0.905935 0.202417 -2.33474e-20)
(0.0738147 0.117721 -1.1688e-20)
(0.194862 0.28369 -3.21296e-19)
(0.306801 0.392453 -1.36001e-20)
(0.404528 0.454315 -1.24175e-19)
(0.488522 0.478287 1.0316e-19)
(0.559916 0.474141 -5.08026e-20)
(0.62033 0.451326 4.68137e-19)
(0.671718 0.41794 -2.12214e-19)
(0.715951 0.380161 -4.45165e-19)
(0.754583 0.342101 3.62617e-19)
(0.788764 0.306062 -1.73411e-19)
(0.819257 0.273045 5.81814e-20)
(0.846516 0.243298 4.58684e-19)
(0.871274 0.216482 -2.66633e-19)
(0.89373 0.192097 3.4379e-19)
(0.0658577 0.113618 -2.19162e-19)
(0.176019 0.272864 2.70216e-19)
(0.281452 0.376182 -1.90185e-19)
(0.375776 0.434086 8.1917e-20)
(0.458727 0.455636 -6.02826e-20)
(0.530746 0.45049 -2.53912e-19)
(0.592837 0.427845 1.91236e-19)
(0.646466 0.39547 6.98481e-20)
(0.693144 0.359216 2.57099e-19)
(0.734186 0.322918 -3.95266e-20)
(0.77061 0.288685 5.94543e-20)
(0.803123 0.257406 -6.67085e-19)
(0.832182 0.229275 -1.24536e-19)
(0.858493 0.203976 4.73418e-19)
(0.882229 0.181056 -1.60838e-19)
(0.0580704 0.108568 5.35134e-19)
(0.15768 0.259919 8.66923e-20)
(0.256901 0.357216 1.84303e-19)
(0.348065 0.411 7.26519e-20)
(0.430148 0.43024 -2.28186e-19)
(0.502886 0.424357 -2.38915e-19)
(0.566678 0.4022 -6.72539e-19)
(0.622515 0.371151 4.56923e-19)
(0.671564 0.336699 -2.20775e-19)
(0.714922 0.302396 1.26217e-21)
(0.753491 0.270159 -2.6726e-19)
(0.787931 0.240774 1.75196e-19)
(0.818705 0.214387 2.96088e-19)
(0.846494 0.19071 -8.95127e-21)
(0.871469 0.169324 -3.9916e-19)
(0.0505473 0.102601 -1.76444e-19)
(0.140051 0.244935 1.36419e-19)
(0.233404 0.335671 9.93521e-20)
(0.321659 0.385191 -1.44083e-19)
(0.403029 0.402238 1.01143e-19)
(0.476551 0.395875 9.91609e-20)
(0.542034 0.374512 -2.11085e-19)
(0.600011 0.345088 6.4936e-21)
(0.651332 0.312701 2.43289e-19)