/*--------------------------------*- C++ -*----------------------------------*\
  =========                 |
  \\      /  F ield         | OpenFOAM: The Open Source CFD Toolbox
   \\    /   O peration     | Website:  https://openfoam.org
    \\  /    A nd           | Version:  7
     \\/     M anipulation  |
\*---------------------------------------------------------------------------*/
FoamFile
{
    version     2.0;
    format      ascii;
    class       volScalarField;
    location    "95";
    object      p;
}
// * * * * * * * * * * * * * * * * * * * * * * * * * * * * * * * * * * * * * //

dimensions      [0 2 -2 0 0 0 0];

internalField   nonuniform List<scalar> 
31800
(
-0.292759
-0.294363
-0.295256
-0.295967
-0.296577
-0.297116
-0.297629
-0.298144
-0.298677
-0.299233
-0.299815
-0.300417
-0.301036
-0.301666
-0.3023
-0.302933
-0.303559
-0.304171
-0.304766
-0.305336
-0.305879
-0.306395
-0.306892
-0.307345
-0.307815
-0.292205
-0.293895
-0.294832
-0.295575
-0.296208
-0.29676
-0.297275
-0.297779
-0.298285
-0.298796
-0.29931
-0.299818
-0.300309
-0.300771
-0.30119
-0.30155
-0.301835
-0.302027
-0.302106
-0.302055
-0.301855
-0.301496
-0.300973
-0.30023
-0.29935
-0.291774
-0.293537
-0.29451
-0.29528
-0.295932
-0.296493
-0.297007
-0.297497
-0.297975
-0.298439
-0.298884
-0.299297
-0.29966
-0.299955
-0.300158
-0.300246
-0.300189
-0.299959
-0.299523
-0.298848
-0.297901
-0.296661
-0.295112
-0.293161
-0.290915
-0.291476
-0.293296
-0.294298
-0.295089
-0.295755
-0.296323
-0.296833
-0.297308
-0.297756
-0.298173
-0.298549
-0.298867
-0.299103
-0.299232
-0.299222
-0.29904
-0.298646
-0.297998
-0.297051
-0.295757
-0.294068
-0.29195
-0.289382
-0.286231
-0.282618
-0.291316
-0.293179
-0.294203
-0.295008
-0.295685
-0.296255
-0.29676
-0.297218
-0.297635
-0.298005
-0.298314
-0.298538
-0.29865
-0.298616
-0.298398
-0.297951
-0.297226
-0.296169
-0.29472
-0.292819
-0.290401
-0.287419
-0.283848
-0.279523
-0.274553
-0.291302
-0.293192
-0.294229
-0.295044
-0.295725
-0.296295
-0.296792
-0.297232
-0.297618
-0.297942
-0.298184
-0.298317
-0.298308
-0.298117
-0.297697
-0.296994
-0.295949
-0.294495
-0.292559
-0.290067
-0.28694
-0.283117
-0.278572
-0.273113
-0.266798
-0.291435
-0.293336
-0.294379
-0.295197
-0.29588
-0.296446
-0.296932
-0.297354
-0.297709
-0.297987
-0.298165
-0.298211
-0.298086
-0.297744
-0.29713
-0.296181
-0.294829
-0.292993
-0.290591
-0.287531
-0.283722
-0.279088
-0.273605
-0.267071
-0.259418
-0.291718
-0.293615
-0.294655
-0.295471
-0.29615
-0.29671
-0.297183
-0.297584
-0.297909
-0.298143
-0.298259
-0.298221
-0.297986
-0.297501
-0.296703
-0.295522
-0.293877
-0.291679
-0.288833
-0.285234
-0.280777
-0.27537
-0.268991
-0.261457
-0.252459
-0.29215
-0.294028
-0.295058
-0.295866
-0.296536
-0.297085
-0.297545
-0.297924
-0.298218
-0.298409
-0.298466
-0.29835
-0.298011
-0.297391
-0.29642
-0.29502
-0.2931
-0.290563
-0.287299
-0.283193
-0.278128
-0.271994
-0.264764
-0.25633
-0.245956
-0.29273
-0.294574
-0.295586
-0.296379
-0.297036
-0.297572
-0.298014
-0.298371
-0.298635
-0.298783
-0.298784
-0.298594
-0.298158
-0.297412
-0.29628
-0.294676
-0.292502
-0.289648
-0.285997
-0.281421
-0.275791
-0.268982
-0.260951
-0.251741
-0.239909
-0.293453
-0.29525
-0.296237
-0.297009
-0.297648
-0.298166
-0.298588
-0.298921
-0.299154
-0.299262
-0.29921
-0.29895
-0.298424
-0.297562
-0.296281
-0.294489
-0.29208
-0.288935
-0.284927
-0.279919
-0.273773
-0.266349
-0.257565
-0.247736
-0.234229
-0.294315
-0.296052
-0.297006
-0.297752
-0.298367
-0.298863
-0.299262
-0.29957
-0.299771
-0.29984
-0.299737
-0.299412
-0.298802
-0.297832
-0.296415
-0.294452
-0.291827
-0.288416
-0.284083
-0.278683
-0.272071
-0.2641
-0.254598
-0.244364
-0.228867
-0.29531
-0.296975
-0.297888
-0.298602
-0.299188
-0.299657
-0.300031
-0.300309
-0.300478
-0.300507
-0.300356
-0.299969
-0.299282
-0.298214
-0.296672
-0.294551
-0.291731
-0.288079
-0.283452
-0.277698
-0.270666
-0.262224
-0.252023
-0.241573
-0.224432
-0.29643
-0.298013
-0.298879
-0.299553
-0.300105
-0.300542
-0.300885
-0.301132
-0.301267
-0.301256
-0.301057
-0.300612
-0.299852
-0.298693
-0.297037
-0.294773
-0.291775
-0.287904
-0.283011
-0.276941
-0.269531
-0.260703
-0.249886
-0.239047
-0.220796
-0.297668
-0.299158
-0.29997
-0.300599
-0.30111
-0.30151
-0.301818
-0.30203
-0.302127
-0.302075
-0.301829
-0.301327
-0.300498
-0.299254
-0.297492
-0.295096
-0.291935
-0.287864
-0.282731
-0.276378
-0.268625
-0.259467
-0.248108
-0.237088
-0.217621
-0.299016
-0.300404
-0.301156
-0.301733
-0.302196
-0.302553
-0.302819
-0.302991
-0.303047
-0.302952
-0.302657
-0.3021
-0.301204
-0.299878
-0.298017
-0.295498
-0.292186
-0.28793
-0.282576
-0.275968
-0.2679
-0.258489
-0.246574
-0.235658
-0.214911
-0.300464
-0.301743
-0.302428
-0.302946
-0.303354
-0.303661
-0.30388
-0.304006
-0.304016
-0.303874
-0.303527
-0.302913
-0.301951
-0.300546
-0.298588
-0.295952
-0.292496
-0.288067
-0.282505
-0.275665
-0.267301
-0.257711
-0.245225
-0.234626
-0.212685
-0.302006
-0.303169
-0.30378
-0.304232
-0.304578
-0.304826
-0.304991
-0.305064
-0.305022
-0.304826
-0.304425
-0.30375
-0.302719
-0.301234
-0.299181
-0.296428
-0.292832
-0.288236
-0.282475
-0.275422
-0.266772
-0.257062
-0.244014
-0.233853
-0.210955
-0.303632
-0.304674
-0.305206
-0.305583
-0.305858
-0.30604
-0.306141
-0.306153
-0.306051
-0.305796
-0.305334
-0.304593
-0.303489
-0.301921
-0.299769
-0.296898
-0.29316
-0.288398
-0.282442
-0.275186
-0.266262
-0.256472
-0.242911
-0.233198
-0.209725
-0.305337
-0.306252
-0.306698
-0.306994
-0.307189
-0.307294
-0.307321
-0.307262
-0.307092
-0.30677
-0.306238
-0.305425
-0.304242
-0.302583
-0.300326
-0.297332
-0.293447
-0.288515
-0.282361
-0.274911
-0.265725
-0.255872
-0.241903
-0.232535
-0.208977
-0.307114
-0.307899
-0.308252
-0.308457
-0.308562
-0.30858
-0.308523
-0.308383
-0.308135
-0.307735
-0.307125
-0.30623
-0.304958
-0.3032
-0.300829
-0.297701
-0.293661
-0.28855
-0.282194
-0.274549
-0.265124
-0.255197
-0.240982
-0.231776
-0.208645
-0.308959
-0.309609
-0.309863
-0.309969
-0.309973
-0.309893
-0.30974
-0.309507
-0.309168
-0.308679
-0.30798
-0.306992
-0.305621
-0.303752
-0.301254
-0.29798
-0.293771
-0.288471
-0.281906
-0.27406
-0.264427
-0.254392
-0.240131
-0.230892
-0.208666
-0.310868
-0.311381
-0.311529
-0.311526
-0.311418
-0.311227
-0.310965
-0.310626
-0.310184
-0.309594
-0.308792
-0.3077
-0.306216
-0.304223
-0.301584
-0.298148
-0.293755
-0.28825
-0.281468
-0.273411
-0.263603
-0.253418
-0.2393
-0.229866
-0.209098
-0.312842
-0.313214
-0.313248
-0.313126
-0.312894
-0.312579
-0.312195
-0.311736
-0.311177
-0.310471
-0.309555
-0.308343
-0.306732
-0.304599
-0.301802
-0.298186
-0.29359
-0.287864
-0.280854
-0.272574
-0.262622
-0.252253
-0.23843
-0.228676
-0.20936
-0.31488
-0.315109
-0.315022
-0.314769
-0.314401
-0.313948
-0.313427
-0.312834
-0.312144
-0.311309
-0.310262
-0.308917
-0.307163
-0.304872
-0.301897
-0.298081
-0.293261
-0.287294
-0.280044
-0.271529
-0.261458
-0.250886
-0.237448
-0.227326
-0.209432
-0.316987
-0.317068
-0.316851
-0.316457
-0.31594
-0.315335
-0.314662
-0.31392
-0.313084
-0.312105
-0.310914
-0.309418
-0.307504
-0.305036
-0.301863
-0.297823
-0.292756
-0.286525
-0.279021
-0.270262
-0.260085
-0.249311
-0.236292
-0.225836
-0.209306
-0.319167
-0.319097
-0.318741
-0.318195
-0.317515
-0.316742
-0.315903
-0.314997
-0.314
-0.312862
-0.311511
-0.309849
-0.307756
-0.305091
-0.301695
-0.297405
-0.292065
-0.285548
-0.277774
-0.268764
-0.258485
-0.247524
-0.234917
-0.224185
-0.208875
-0.32143
-0.321201
-0.320699
-0.319987
-0.31913
-0.318177
-0.317157
-0.316072
-0.314899
-0.313588
-0.312061
-0.310215
-0.307924
-0.305037
-0.301392
-0.296823
-0.291182
-0.284354
-0.276294
-0.267032
-0.256648
-0.245522
-0.233296
-0.222298
-0.208043
-0.323785
-0.323391
-0.322731
-0.321843
-0.320795
-0.319647
-0.318431
-0.317154
-0.315791
-0.314291
-0.312572
-0.310524
-0.308012
-0.304878
-0.300954
-0.296074
-0.290101
-0.282941
-0.274581
-0.265069
-0.254575
-0.243318
-0.23142
-0.220073
-0.206796
-0.326245
-0.325677
-0.324849
-0.323771
-0.32252
-0.321163
-0.319738
-0.318254
-0.316688
-0.314985
-0.313057
-0.310787
-0.308029
-0.304618
-0.300381
-0.295156
-0.288821
-0.281307
-0.272638
-0.262885
-0.25228
-0.240944
-0.229308
-0.217531
-0.205335
-0.328825
-0.328072
-0.327065
-0.325785
-0.324316
-0.322737
-0.321091
-0.319388
-0.317606
-0.315684
-0.313529
-0.311014
-0.307982
-0.30426
-0.299673
-0.294068
-0.287342
-0.279457
-0.270474
-0.260495
-0.249783
-0.238427
-0.226981
-0.215003
-0.203899
-0.331541
-0.330591
-0.329392
-0.327897
-0.326199
-0.324386
-0.322506
-0.320572
-0.31856
-0.316405
-0.314003
-0.311217
-0.307878
-0.303807
-0.29883
-0.292809
-0.285666
-0.277398
-0.268105
-0.257916
-0.247112
-0.235778
-0.224453
-0.212681
-0.201943
-0.334412
-0.333248
-0.331845
-0.330122
-0.328183
-0.326125
-0.324
-0.321825
-0.31957
-0.317164
-0.314492
-0.311404
-0.307721
-0.303259
-0.297852
-0.29138
-0.283799
-0.275144
-0.265549
-0.25517
-0.244293
-0.233002
-0.221807
-0.210272
-0.199746
-0.337455
-0.33606
-0.33444
-0.332477
-0.330286
-0.327972
-0.325594
-0.323165
-0.320653
-0.317976
-0.315008
-0.311583
-0.307514
-0.302615
-0.296735
-0.289782
-0.281749
-0.27271
-0.262828
-0.252282
-0.24135
-0.230116
-0.219048
-0.207743
-0.197435
-0.34069
-0.339044
-0.337193
-0.334979
-0.332524
-0.329946
-0.327305
-0.324611
-0.321826
-0.318856
-0.315559
-0.311756
-0.307254
-0.301873
-0.295481
-0.288021
-0.279528
-0.270113
-0.259965
-0.249272
-0.238301
-0.227133
-0.216189
-0.205093
-0.194968
-0.344136
-0.342217
-0.340121
-0.337644
-0.334917
-0.332066
-0.329152
-0.326181
-0.323104
-0.319813
-0.31615
-0.311923
-0.306937
-0.301026
-0.294087
-0.286103
-0.277149
-0.267373
-0.256979
-0.24616
-0.235165
-0.224063
-0.213237
-0.202322
-0.192369
-0.347812
-0.345595
-0.34324
-0.340489
-0.337481
-0.334349
-0.331152
-0.32789
-0.324499
-0.320854
-0.31678
-0.312078
-0.306556
-0.30007
-0.292553
-0.284034
-0.274627
-0.264509
-0.253891
-0.242963
-0.231952
-0.220916
-0.210196
-0.19944
-0.189639
-0.351734
-0.349194
-0.346566
-0.343532
-0.340233
-0.336813
-0.333322
-0.329751
-0.326018
-0.32198
-0.317446
-0.312213
-0.306102
-0.298999
-0.290882
-0.281824
-0.271977
-0.261537
-0.250715
-0.239693
-0.22867
-0.217695
-0.207071
-0.196453
-0.186784
-0.355919
-0.353029
-0.350114
-0.346786
-0.34319
-0.339471
-0.335675
-0.331772
-0.327664
-0.323186
-0.318136
-0.312314
-0.305562
-0.297807
-0.289074
-0.279483
-0.269212
-0.25847
-0.247463
-0.236357
-0.225324
-0.214404
-0.203861
-0.193364
-0.18381
-0.36038
-0.357111
-0.353896
-0.350265
-0.346364
-0.342338
-0.338218
-0.333958
-0.329434
-0.324464
-0.318837
-0.312365
-0.304924
-0.296488
-0.287134
-0.277018
-0.266343
-0.25532
-0.244142
-0.232959
-0.221916
-0.211043
-0.200569
-0.190177
-0.180722
-0.365126
-0.361451
-0.357924
-0.353982
-0.349767
-0.345422
-0.340959
-0.336308
-0.33132
-0.325796
-0.319528
-0.312348
-0.304176
-0.295039
-0.285062
-0.274437
-0.263379
-0.252093
-0.240757
-0.2295
-0.218443
-0.207608
-0.197191
-0.186892
-0.177521
-0.370165
-0.366057
-0.362206
-0.357945
-0.353408
-0.348729
-0.343897
-0.338814
-0.333307
-0.327164
-0.320187
-0.312243
-0.303304
-0.293453
-0.282862
-0.271745
-0.260324
-0.248792
-0.237306
-0.225977
-0.214903
-0.204097
-0.193726
-0.183509
-0.174209
-0.3755
-0.370933
-0.366748
-0.362161
-0.357291
-0.35226
-0.347027
-0.341463
-0.335373
-0.32854
-0.320788
-0.31203
-0.302297
-0.291728
-0.280534
-0.268946
-0.257181
-0.245416
-0.233788
-0.222387
-0.21129
-0.200506
-0.190171
-0.180028
-0.170789
-0.381129
-0.37608
-0.371553
-0.366632
-0.361418
-0.356011
-0.350338
-0.344236
-0.337492
-0.329896
-0.321304
-0.311687
-0.301142
-0.289859
-0.278078
-0.266039
-0.253948
-0.241963
-0.230197
-0.218723
-0.207599
-0.196829
-0.186523
-0.176445
-0.167258
-0.387048
-0.381496
-0.376619
-0.371358
-0.365783
-0.359973
-0.353812
-0.347106
-0.339632
-0.331196
-0.321704
-0.311195
-0.299827
-0.287839
-0.275492
-0.263023
-0.250621
-0.238425
-0.226525
-0.214978
-0.203822
-0.193061
-0.182776
-0.17276
-0.163618
-0.393245
-0.387172
-0.38194
-0.37633
-0.370378
-0.364128
-0.357423
-0.350041
-0.341755
-0.332406
-0.321961
-0.310532
-0.29834
-0.285663
-0.27277
-0.259891
-0.247195
-0.234795
-0.222764
-0.211142
-0.199953
-0.189195
-0.178928
-0.168969
-0.159866
-0.399705
-0.393097
-0.387506
-0.381539
-0.375186
-0.368453
-0.36114
-0.353
-0.343819
-0.333486
-0.322044
-0.309679
-0.296671
-0.283323
-0.269907
-0.256637
-0.243659
-0.231064
-0.218905
-0.207207
-0.195982
-0.185225
-0.174973
-0.16507
-0.156001
-0.406405
-0.399252
-0.3933
-0.386965
-0.380184
-0.372918
-0.364923
-0.355939
-0.34578
-0.3344
-0.321925
-0.308618
-0.294806
-0.280809
-0.266894
-0.253251
-0.240003
-0.22722
-0.214936
-0.203164
-0.191903
-0.181144
-0.170906
-0.161058
-0.152022
-0.413317
-0.405614
-0.3993
-0.392585
-0.385342
-0.377483
-0.368725
-0.358808
-0.34759
-0.335108
-0.321576
-0.307329
-0.292732
-0.278112
-0.263719
-0.249721
-0.236216
-0.223252
-0.210848
-0.199002
-0.187706
-0.176945
-0.166722
-0.15693
-0.147926
-0.420406
-0.412153
-0.405476
-0.398367
-0.390621
-0.382102
-0.372495
-0.361554
-0.349202
-0.335572
-0.32097
-0.305793
-0.290435
-0.275218
-0.260371
-0.246035
-0.232285
-0.219148
-0.206628
-0.194712
-0.183384
-0.172623
-0.162417
-0.152682
-0.14371
-0.42763
-0.418832
-0.411793
-0.40427
-0.395975
-0.386722
-0.376173
-0.364118
-0.350567
-0.335755
-0.32008
-0.303992
-0.2879
-0.272113
-0.256835
-0.24218
-0.228196
-0.214895
-0.202265
-0.190285
-0.178928
-0.16817
-0.157986
-0.148311
-0.139373
-0.434941
-0.425608
-0.418208
-0.410248
-0.40135
-0.39128
-0.379696
-0.366444
-0.351636
-0.33562
-0.31888
-0.301907
-0.285111
-0.268784
-0.253098
-0.23814
-0.223937
-0.210481
-0.197749
-0.18571
-0.174331
-0.163581
-0.153423
-0.143813
-0.134911
-0.442283
-0.43243
-0.424669
-0.416245
-0.406684
-0.395711
-0.382997
-0.36847
-0.352362
-0.335134
-0.317345
-0.299517
-0.282052
-0.265213
-0.249143
-0.233901
-0.219492
-0.205893
-0.193069
-0.180979
-0.169584
-0.158848
-0.148724
-0.139184
-0.130323
-0.449593
-0.43924
-0.431117
-0.422198
-0.411906
-0.39994
-0.386007
-0.370139
-0.352698
-0.334261
-0.315451
-0.296804
-0.278704
-0.261384
-0.244955
-0.229448
-0.214848
-0.201118
-0.188213
-0.176082
-0.164681
-0.153966
-0.143885
-0.134421
-0.125606
-0.456801
-0.445974
-0.437487
-0.428035
-0.416942
-0.403892
-0.388656
-0.37139
-0.352601
-0.332971
-0.313173
-0.293746
-0.27505
-0.25728
-0.240517
-0.224765
-0.209992
-0.196146
-0.183171
-0.171011
-0.159614
-0.14893
-0.1389
-0.12952
-0.120758
-0.463831
-0.452559
-0.443706
-0.433679
-0.421709
-0.407487
-0.390872
-0.372169
-0.352029
-0.331232
-0.310487
-0.290324
-0.27107
-0.252884
-0.235813
-0.219839
-0.20491
-0.190964
-0.177934
-0.165758
-0.154376
-0.143733
-0.133767
-0.124477
-0.115777
-0.470602
-0.458918
-0.449692
-0.439046
-0.426122
-0.410644
-0.392586
-0.372419
-0.35094
-0.329013
-0.30737
-0.286518
-0.266746
-0.248177
-0.230827
-0.214653
-0.199589
-0.185561
-0.172493
-0.160315
-0.148962
-0.138372
-0.128481
-0.11929
-0.110661
-0.477026
-0.464967
-0.455362
-0.444047
-0.430093
-0.413281
-0.39373
-0.37209
-0.349298
-0.326288
-0.303797
-0.282306
-0.26206
-0.243144
-0.225543
-0.209195
-0.194018
-0.179927
-0.166838
-0.154674
-0.143365
-0.132841
-0.123039
-0.113956
-0.105409
-0.483012
-0.470618
-0.460623
-0.448589
-0.433531
-0.415317
-0.394239
-0.371132
-0.347066
-0.323027
-0.299748
-0.277669
-0.256993
-0.237766
-0.219946
-0.203451
-0.188185
-0.174052
-0.160962
-0.14883
-0.13758
-0.127137
-0.117438
-0.108472
-0.100021
-0.488464
-0.475778
-0.465382
-0.452577
-0.436346
-0.416675
-0.394052
-0.3695
-0.34421
-0.319205
-0.295199
-0.272587
-0.251527
-0.232029
-0.214023
-0.197409
-0.18208
-0.167929
-0.154858
-0.142776
-0.131603
-0.121257
-0.111675
-0.102838
-0.0944965
-0.493286
-0.480351
-0.469541
-0.455914
-0.438448
-0.417278
-0.393109
-0.367152
-0.340699
-0.314798
-0.29013
-0.267042
-0.245646
-0.225916
-0.207759
-0.191058
-0.175693
-0.161548
-0.148519
-0.136508
-0.125429
-0.115196
-0.105747
-0.0970507
-0.0888356
-0.497379
-0.484241
-0.473002
-0.458505
-0.439751
-0.417057
-0.391358
-0.364048
-0.336506
-0.309784
-0.284522
-0.261016
-0.239334
-0.219415
-0.201144
-0.184388
-0.169015
-0.154903
-0.141939
-0.13002
-0.119055
-0.108954
-0.0996541
-0.0911119
-0.0830418
-0.500644
-0.487349
-0.475668
-0.460255
-0.440172
-0.415945
-0.388751
-0.360153
-0.331603
-0.304139
-0.278356
-0.254494
-0.232576
-0.212513
-0.194166
-0.177389
-0.162039
-0.147988
-0.135113
-0.12331
-0.112479
-0.102527
-0.0933938
-0.085023
-0.0771205
-0.502983
-0.489579
-0.477441
-0.461073
-0.439632
-0.413882
-0.385243
-0.355438
-0.325967
-0.297847
-0.271615
-0.247459
-0.22536
-0.205198
-0.186815
-0.170053
-0.15476
-0.140797
-0.128039
-0.116374
-0.105698
-0.0959131
-0.0869642
-0.078783
-0.0710707
-0.504303
-0.490835
-0.478226
-0.460873
-0.43806
-0.410813
-0.380796
-0.349874
-0.319578
-0.290889
-0.264285
-0.2399
-0.217674
-0.19746
-0.179085
-0.162375
-0.147172
-0.133328
-0.120714
-0.109211
-0.0987108
-0.0891124
-0.0803646
-0.0723855
-0.064865
-0.504512
-0.491025
-0.477936
-0.459573
-0.435391
-0.40669
-0.375377
-0.343438
-0.312418
-0.283251
-0.256353
-0.231805
-0.209509
-0.189293
-0.170968
-0.15435
-0.139271
-0.125578
-0.113135
-0.101819
-0.0915176
-0.0821259
-0.0735985
-0.0658235
-0.0584501
-0.503523
-0.490063
-0.476485
-0.4571
-0.431565
-0.401472
-0.368958
-0.336111
-0.304473
-0.274921
-0.247809
-0.223165
-0.200857
-0.18069
-0.16246
-0.145974
-0.131055
-0.117545
-0.105302
-0.0941998
-0.0841188
-0.0749552
-0.0666708
-0.0591026
-0.0518282
-0.501256
-0.487868
-0.473796
-0.453386
-0.426533
-0.395126
-0.361517
-0.327878
-0.295731
-0.265889
-0.238644
-0.213973
-0.191712
-0.171647
-0.153559
-0.137246
-0.122524
-0.10923
-0.0972168
-0.0863535
-0.0765169
-0.0676018
-0.0595809
-0.0522185
-0.0451858
-0.497639
-0.484364
-0.469798
-0.448375
-0.420253
-0.387623
-0.353038
-0.318728
-0.286184
-0.25615
-0.228853
-0.204225
-0.182072
-0.162161
-0.144262
-0.128164
-0.113678
-0.100633
-0.0888803
-0.078283
-0.0687165
-0.0600768
-0.0523246
-0.0451901
-0.0384513
-0.492605
-0.479485
-0.464432
-0.442016
-0.41269
-0.378944
-0.343509
-0.308656
-0.275827
-0.245699
-0.218433
-0.193919
-0.171936
-0.152233
-0.134571
-0.118731
-0.104519
-0.0917577
-0.0802967
-0.069993
-0.0607195
-0.0523769
-0.0449124
-0.0380289
-0.0315999
-0.486097
-0.473174
-0.457644
-0.434271
-0.403822
-0.369076
-0.332925
-0.297658
-0.264661
-0.234536
-0.207384
-0.183055
-0.161303
-0.141864
-0.124488
-0.108949
-0.095052
-0.0826091
-0.0714688
-0.0614866
-0.0525311
-0.0445067
-0.0373504
-0.0307372
-0.0246283
-0.47807
-0.465381
-0.449393
-0.425109
-0.39363
-0.358014
-0.321285
-0.285737
-0.252688
-0.222664
-0.195709
-0.171637
-0.150179
-0.131058
-0.114019
-0.0988264
-0.0852792
-0.0731908
-0.0624027
-0.0527694
-0.0441567
-0.0364722
-0.029644
-0.0233176
-0.0175419
-0.468484
-0.456069
-0.439646
-0.414511
-0.382108
-0.345758
-0.308597
-0.272901
-0.239914
-0.210089
-0.183415
-0.159671
-0.138569
-0.119825
-0.103169
-0.0883668
-0.0752094
-0.0635097
-0.0531051
-0.043848
-0.0356027
-0.0282801
-0.021799
-0.0157742
-0.0103473
-0.457314
-0.445208
-0.428382
-0.402466
-0.369257
-0.332317
-0.29487
-0.259159
-0.22635
-0.19682
-0.170509
-0.147165
-0.126485
-0.108169
-0.0919475
-0.0775788
-0.0648505
-0.0535741
-0.0435839
-0.0347302
-0.0268767
-0.0199377
-0.0138217
-0.00811294
-0.00305177
-0.444543
-0.432782
-0.415591
-0.388976
-0.355086
-0.317705
-0.280121
-0.244528
-0.212009
-0.182871
-0.157006
-0.134133
-0.113934
-0.0961031
-0.0803641
-0.0664724
-0.0542124
-0.0433934
-0.0338482
-0.0254248
-0.0179871
-0.0114533
-0.00571959
-0.000341153
0.00433702
-0.430165
-0.418784
-0.401272
-0.374049
-0.339613
-0.301944
-0.264371
-0.229028
-0.196911
-0.16826
-0.142919
-0.120587
-0.100931
-0.0836394
-0.0684315
-0.0550598
-0.0433061
-0.0329785
-0.0239082
-0.0159418
-0.00894361
-0.00283577
0.00249893
0.00753281
0.011811
-0.414187
-0.403218
-0.385437
-0.357704
-0.322862
-0.285061
-0.247647
-0.212682
-0.181077
-0.153004
-0.128267
-0.106544
-0.087492
-0.0707932
-0.0561639
-0.0433542
-0.0321444
-0.0223415
-0.0137755
-0.00629204
0.00024341
0.00590492
0.0108245
0.0154996
0.0193614
-0.396623
-0.386099
-0.368106
-0.339969
-0.304867
-0.26709
-0.229981
-0.19552
-0.164532
-0.137126
-0.113071
-0.0920244
-0.0736353
-0.0575816
-0.0435773
-0.0313709
-0.0207415
-0.0114956
-0.00346275
0.00351239
0.00956243
0.0147579
0.0192468
0.0235488
0.0269789
-0.377501
-0.367453
-0.349309
-0.320882
-0.285669
-0.248074
-0.211406
-0.177573
-0.147306
-0.120655
-0.0973555
-0.0770503
-0.0593816
-0.044024
-0.0306897
-0.0191264
-0.00911299
-0.000455598
0.00701638
0.0134585
0.019001
0.0237115
0.0277548
0.0316693
0.034653
-0.356857
-0.347315
-0.329087
-0.300489
-0.265321
-0.228055
-0.191958
-0.158877
-0.129431
-0.103618
-0.081147
-0.0616466
-0.0447539
-0.0301414
-0.0175206
-0.00663907
0.00272431
0.0107629
0.0176471
0.0235322
0.0285459
0.0327531
0.0363363
0.0398488
0.0423723
-0.334739
-0.325729
-0.307489
-0.278849
-0.243873
-0.207059
-0.1717
-0.139474
-0.110943
-0.0860494
-0.0644758
-0.0458406
-0.0297772
-0.0159569
-0.00409136
0.00607156
0.0147522
0.0221429
0.0284136
0.0337188
0.0381828
0.0418693
0.0449786
0.0480738
0.0501239
-0.311201
-0.302752
-0.284579
-0.256027
-0.221345
-0.185177
-0.150668
-0.119409
-0.0918827
-0.0679843
-0.0473742
-0.029662
-0.0144788
-0.00149559
0.00957514
0.0189844
0.0269512
0.0336665
0.0392992
0.0440025
0.0478967
0.0510458
0.0536674
0.0563285
0.0578932
-0.286302
-0.278453
-0.260434
-0.232074
-0.197818
-0.162452
-0.128918
-0.0987275
-0.072292
-0.0494614
-0.0298772
-0.0131427
0.00111235
0.013216
0.0234545
0.0320771
0.0393008
0.0453149
0.0502866
0.0543671
0.0576724
0.0602678
0.0623875
0.0645944
0.0656588
-0.260114
-0.252906
-0.235125
-0.206989
-0.173425
-0.138953
-0.106507
-0.0774821
-0.0522168
-0.0305218
-0.0120222
0.00368327
0.0169651
0.0281496
0.0375209
0.0453259
0.0517794
0.0570682
0.0613576
0.0647957
0.0674937
0.0695202
0.0711239
0.0728518
0.0733932
-0.232711
-0.226198
-0.208655
-0.18098
-0.148193
-0.114746
-0.0834951
-0.0557263
-0.0317055
-0.0112092
0.00615116
0.02078
0.0330467
0.0432752
0.0517471
0.0587063
0.0643645
0.0689059
0.0724935
0.075271
0.0773443
0.0787877
0.0798636
0.0810858
0.0810786
-0.20417
-0.198437
-0.181142
-0.154098
-0.122202
-0.0899017
-0.0599474
-0.0335166
-0.0108091
0.0084304
0.0246013
0.0381096
0.0493227
0.0585617
0.0661046
0.0721921
0.0770325
0.0808067
0.0836748
0.0857748
0.0872063
0.0880547
0.0885966
0.0892884
0.0887102
-0.17457
-0.16967
-0.152777
-0.126418
-0.0955345
-0.0644947
-0.0359295
-0.0109124
0.0104194
0.028349
0.0432847
0.0556326
0.0657574
0.0739765
0.080564
0.0857567
0.0897591
0.0927488
0.094882
0.0962885
0.0970622
0.0973082
0.0973135
0.0974265
0.0961922
-0.144091
-0.140008
-0.123607
-0.0980322
-0.0682772
-0.0386017
-0.0115102
0.0120249
0.0319245
0.0484966
0.062156
0.073308
0.0823135
0.0894857
0.0950944
0.0993722
0.102519
0.10471
0.106095
0.106794
0.106899
0.106545
0.106001
0.105386
0.103211
-0.112888
-0.1095
-0.0937199
-0.069038
-0.0405185
-0.0123017
0.0132396
0.0352315
0.053649
0.0688215
0.0811686
0.0910934
0.0989525
0.105054
0.109664
0.11301
0.115287
0.116666
0.117292
0.117275
0.11671
0.115771
0.114643
0.113025
0.109528
-0.08098
-0.0783115
-0.0632233
-0.0395345
-0.0123494
0.0143236
0.038247
0.0586423
0.0755341
0.0892706
0.100274
0.108945
0.115635
0.120647
0.124241
0.126641
0.128036
0.128594
0.128453
0.127713
0.126489
0.124982
0.123207
0.120402
0.115845
-0.0484774
-0.0465665
-0.032227
-0.00962356
0.0161368
0.0411907
0.0634375
0.0821903
0.0975196
0.109789
0.119424
0.126819
0.13232
0.136227
0.138792
0.140234
0.140739
0.140469
0.139554
0.138093
0.136218
0.134135
0.131634
0.127712
0.124298
-0.0155065
-0.0143794
-0.000843779
0.0205902
0.0448454
0.0682149
0.0887351
0.105807
0.119544
0.130323
0.138567
0.144669
0.148968
0.151756
0.153283
0.153759
0.153369
0.152265
0.150574
0.148394
0.14587
0.143173
0.13994
0.135394
0.132693
0.0178083
0.0181325
0.0308114
0.0510007
0.0736805
0.0953102
0.114063
0.129424
0.141545
0.150814
0.157653
0.162449
0.165535
0.167197
0.167679
0.167186
0.165895
0.163957
0.161489
0.158594
0.155419
0.15209
0.14819
0.143233
0.140618
0.0513422
0.0508492
0.0626226
0.0815008
0.102545
0.12239
0.139343
0.152972
0.16346
0.171206
0.17663
0.180112
0.18198
0.182512
0.181946
0.180482
0.178291
0.175518
0.172277
0.16867
0.164841
0.16088
0.156377
0.151069
0.148258
0.0849693
0.0836492
0.0944731
0.111983
0.131343
0.149367
0.164498
0.176379
0.185226
0.191443
0.195447
0.197613
0.198261
0.197662
0.196049
0.193615
0.190526
0.186922
0.182912
0.178598
0.174115
0.16953
0.164464
0.158788
0.155639
0.118563
0.11641
0.126246
0.142339
0.159975
0.176154
0.18945
0.199576
0.206778
0.211466
0.214052
0.214903
0.214334
0.212609
0.209953
0.206554
0.202573
0.198143
0.193371
0.188354
0.183223
0.178025
0.172416
0.16635
0.162788
0.151997
0.149008
0.157824
0.172463
0.188347
0.202666
0.21412
0.222493
0.228055
0.231218
0.232392
0.231936
0.230157
0.227314
0.223623
0.219268
0.214402
0.209155
0.203629
0.197918
0.192143
0.186345
0.180205
0.173731
0.169714
0.185145
0.181322
0.189092
0.202247
0.216362
0.228815
0.238432
0.24506
0.248992
0.250643
0.250417
0.248666
0.245689
0.241738
0.237024
0.231724
0.225985
0.219932
0.213661
0.207265
0.200857
0.19447
0.187807
0.180916
0.17642
0.217883
0.213229
0.219934
0.231587
0.243925
0.254516
0.262309
0.267208
0.269528
0.269684
0.268075
0.265045
0.260887
0.255845
0.250123
0.243891
0.237294
0.230447
0.223445
0.216376
0.209345
0.202379
0.195203
0.187891
0.182902
0.250085
0.24461
0.250238
0.26038
0.270942
0.279687
0.285675
0.288869
0.2896
0.288285
0.285315
0.281029
0.27571
0.269596
0.262884
0.25574
0.248299
0.240675
0.232957
0.225228
0.217588
0.210056
0.202376
0.194645
0.189155
0.281632
0.275346
0.279893
0.288522
0.297324
0.304244
0.308457
0.309977
0.30915
0.306393
0.30209
0.296573
0.290117
0.282954
0.275275
0.267238
0.258975
0.250592
0.242175
0.233802
0.225566
0.217482
0.209311
0.201166
0.195174
0.312403
0.305322
0.308789
0.315917
0.322979
0.328108
0.330583
0.330466
0.328117
0.323952
0.31835
0.311632
0.304069
0.295885
0.287264
0.278358
0.269294
0.260173
0.251076
0.242077
0.233262
0.224641
0.215993
0.207442
0.20095
0.342283
0.334425
0.336821
0.342466
0.347823
0.3512
0.351981
0.350272
0.346445
0.340912
0.334047
0.326165
0.317527
0.308352
0.298818
0.28907
0.27923
0.269394
0.259639
0.250034
0.240658
0.231517
0.222409
0.213463
0.206475
0.371158
0.362545
0.363887
0.368078
0.37177
0.373446
0.372585
0.369334
0.364077
0.357222
0.349137
0.340129
0.330454
0.320323
0.309906
0.299347
0.288759
0.278234
0.267843
0.257654
0.247738
0.238096
0.228545
0.219216
0.211741
0.398921
0.389578
0.389888
0.392662
0.394739
0.394771
0.392328
0.387593
0.380959
0.372833
0.363575
0.353485
0.342813
0.331763
0.3205
0.309161
0.297855
0.286668
0.275669
0.264919
0.254484
0.244363
0.234388
0.224691
0.21674
0.425467
0.415422
0.41473
0.416132
0.416654
0.415107
0.411146
0.404991
0.397041
0.387699
0.377319
0.366195
0.35457
0.342642
0.330571
0.318487
0.306495
0.294677
0.283098
0.271813
0.260882
0.250303
0.239925
0.229876
0.221464
0.450695
0.439979
0.438322
0.438406
0.437439
0.434387
0.428981
0.421474
0.412272
0.401774
0.390327
0.378221
0.365691
0.352929
0.34009
0.3273
0.314657
0.302241
0.29011
0.278318
0.266917
0.255904
0.245146
0.234761
0.225905
0.474511
0.46316
0.460578
0.459406
0.457026
0.452546
0.445774
0.43699
0.426605
0.415016
0.402563
0.38953
0.376145
0.362597
0.349034
0.335577
0.32232
0.309339
0.296689
0.284418
0.272575
0.261153
0.250037
0.239336
0.230055
0.496826
0.484875
0.481418
0.479059
0.475347
0.469527
0.461473
0.451491
0.439997
0.427385
0.413989
0.400087
0.385903
0.371617
0.357376
0.343295
0.329465
0.315955
0.302819
0.2901
0.277842
0.266038
0.254589
0.243591
0.233907
0.517555
0.505046
0.500767
0.497296
0.492341
0.485272
0.476025
0.46493
0.452406
0.438843
0.424572
0.409863
0.394935
0.379966
0.365095
0.350435
0.336071
0.322071
0.308484
0.29535
0.282707
0.270549
0.25879
0.247516
0.237455
0.536621
0.523596
0.518554
0.514053
0.50795
0.49973
0.489385
0.477265
0.463794
0.449356
0.434279
0.418828
0.403217
0.387619
0.372169
0.356976
0.342122
0.327671
0.313669
0.300154
0.287157
0.274674
0.262633
0.251104
0.240691
0.553952
0.540456
0.534715
0.529272
0.522122
0.512854
0.501509
0.488458
0.474124
0.458892
0.443082
0.426956
0.410724
0.394554
0.378579
0.362901
0.347603
0.332742
0.318363
0.304501
0.291182
0.278404
0.266107
0.254347
0.243611
0.569483
0.555564
0.549191
0.542901
0.53481
0.5246
0.512359
0.498472
0.483366
0.467421
0.450955
0.434224
0.417436
0.400753
0.384306
0.368195
0.352497
0.33727
0.322553
0.30838
0.294774
0.281731
0.269204
0.257237
0.24621
0.583156
0.568862
0.561931
0.554891
0.545969
0.534929
0.521899
0.507277
0.49149
0.474918
0.457873
0.44061
0.423331
0.406197
0.389335
0.372842
0.356793
0.341242
0.326229
0.311782
0.297922
0.284646
0.271918
0.259768
0.248482
0.594919
0.580302
0.572887
0.5652
0.555562
0.543808
0.530099
0.514843
0.498471
0.481359
0.463817
0.446095
0.428394
0.410872
0.393652
0.376831
0.360479
0.34465
0.329381
0.314698
0.300619
0.287144
0.274242
0.261934
0.250423
0.604727
0.58984
0.582021
0.573792
0.563556
0.551206
0.53693
0.521147
0.504287
0.486724
0.468767
0.450663
0.43261
0.414763
0.397245
0.380149
0.363545
0.347483
0.332
0.317121
0.302859
0.289217
0.276171
0.26373
0.252031
0.612545
0.597441
0.589298
0.580637
0.569925
0.5571
0.542373
0.526168
0.508919
0.490997
0.472708
0.454299
0.435965
0.41786
0.400104
0.382788
0.365982
0.349735
0.334081
0.319044
0.304637
0.29086
0.277699
0.265152
0.253301
0.618341
0.603076
0.594692
0.585712
0.574646
0.561469
0.546407
0.529891
0.512352
0.494164
0.47563
0.456994
0.438451
0.420153
0.40222
0.384741
0.367785
0.351399
0.335618
0.320463
0.305947
0.292071
0.278824
0.266197
0.254233
0.622093
0.606722
0.598184
0.588996
0.577703
0.564299
0.54902
0.532302
0.514577
0.496216
0.477522
0.458738
0.440059
0.421636
0.403587
0.386002
0.368947
0.352471
0.336607
0.321375
0.306787
0.292845
0.279541
0.266863
0.254826
0.623788
0.608367
0.599759
0.59048
0.579085
0.565579
0.550204
0.533395
0.515585
0.497145
0.478378
0.459527
0.440786
0.422305
0.404202
0.386567
0.369466
0.352948
0.337044
0.321776
0.307154
0.293182
0.27985
0.267147
0.255074
0.623416
0.608003
0.599411
0.590156
0.578786
0.565306
0.549953
0.533164
0.515373
0.496949
0.478196
0.459358
0.440628
0.422156
0.404062
0.386435
0.369341
0.352828
0.336929