/*--------------------------------*- C++ -*----------------------------------*\
  =========                 |
  \\      /  F ield         | OpenFOAM: The Open Source CFD Toolbox
   \\    /   O peration     | Website:  https://openfoam.org
    \\  /    A nd           | Version:  7
     \\/     M anipulation  |
\*---------------------------------------------------------------------------*/
FoamFile
{
    version     2.0;
    format      ascii;
    class       volVectorField;
    location    "95";
    object      U;
}
// * * * * * * * * * * * * * * * * * * * * * * * * * * * * * * * * * * * * * //

dimensions      [0 1 -1 0 0 0 0];

internalField   nonuniform List<vector> 
31800
(
(-0.000413238 -0.00958714 -1.06499e-20)
(-0.00303139 -0.0256549 7.35164e-21)
(-0.0085437 -0.0392363 -2.39474e-21)
(-0.0157903 -0.0503659 1.0625e-20)
(-0.0243201 -0.0592123 1.18625e-20)
(-0.0337529 -0.0660616 -3.88544e-21)
(-0.0437465 -0.0712818 -2.80877e-21)
(-0.0540273 -0.0752826 1.98435e-20)
(-0.0643788 -0.0784691 -2.26056e-21)
(-0.0746343 -0.0811992 3.24369e-21)
(-0.0846701 -0.0837522 1.11211e-20)
(-0.0943982 -0.0863134 1.08845e-20)
(-0.103757 -0.0889733 -6.8758e-21)
(-0.112704 -0.0917382 -8.53753e-21)
(-0.121206 -0.0945464 -2.88225e-22)
(-0.129238 -0.097283 -1.089e-20)
(-0.136772 -0.0997912 8.44735e-21)
(-0.143781 -0.101877 1.4247e-20)
(-0.150239 -0.103311 -5.32413e-21)
(-0.156126 -0.103825 2.41428e-20)
(-0.161437 -0.103108 1.53024e-21)
(-0.166207 -0.100809 -1.95946e-21)
(-0.170531 -0.0965447 4.30592e-21)
(-0.174491 -0.0898999 8.6741e-21)
(-0.178368 -0.0802769 5.32483e-21)
(-0.000240236 -0.00847115 1.09631e-20)
(-0.00266446 -0.0228527 5.96885e-21)
(-0.00816843 -0.0351751 -6.44236e-21)
(-0.0155155 -0.0453856 -2.44942e-20)
(-0.0242211 -0.0535944 1.80528e-20)
(-0.0338783 -0.0600367 -8.82986e-21)
(-0.0441233 -0.0650354 4.85562e-22)
(-0.0546666 -0.0689605 -1.52166e-20)
(-0.0652811 -0.072183 3.16076e-21)
(-0.0757938 -0.0750316 2.14323e-21)
(-0.0860781 -0.0777624 -4.66267e-20)
(-0.0960451 -0.0805423 -8.05856e-22)
(-0.105634 -0.0834494 5.21107e-20)
(-0.114803 -0.0864824 -2.61435e-20)
(-0.12352 -0.0895758 -4.94575e-21)
(-0.131759 -0.0926138 1.07992e-20)
(-0.139494 -0.0954403 -2.26229e-20)
(-0.146695 -0.0978619 -1.18641e-21)
(-0.153335 -0.0996469 2.2278e-20)
(-0.159396 -0.10052 -8.15982e-20)
(-0.164875 -0.100155 -2.51416e-20)
(-0.169816 -0.0981745 3.79753e-20)
(-0.17433 -0.0941581 1.84827e-20)
(-0.178472 -0.0876567 3.27747e-21)
(-0.182535 -0.0780103 -7.72053e-21)
(-0.000124368 -0.00729458 -2.26218e-20)
(-0.00242398 -0.0199115 -6.41926e-22)
(-0.00794283 -0.0309299 -3.07399e-20)
(-0.0153823 -0.0402003 4.58949e-20)
(-0.0242309 -0.0477675 -5.1979e-20)
(-0.0340597 -0.0538097 -4.81944e-21)
(-0.0444867 -0.0585992 -4.70654e-21)
(-0.0552094 -0.0624631 8.58591e-21)
(-0.0659914 -0.0657352 2.84816e-20)
(-0.0766543 -0.0687141 -4.84578e-21)
(-0.0870685 -0.0716315 -8.46901e-21)
(-0.097144 -0.0746369 3.06835e-20)
(-0.10682 -0.0777967 -5.4844e-21)
(-0.116054 -0.0811026 2.98911e-20)
(-0.124814 -0.0844867 -6.02e-20)
(-0.133071 -0.0878335 -2.4514e-20)
(-0.140796 -0.0909881 4.02303e-21)
(-0.147958 -0.0937587 -8.01565e-20)
(-0.154523 -0.0959118 2.17515e-20)
(-0.160468 -0.0971653 4.94483e-20)
(-0.165782 -0.0971782 -3.05101e-20)
(-0.170505 -0.0955435 -7.40682e-20)
(-0.174758 -0.0918022 -3.70909e-20)
(-0.178544 -0.0854671 -6.77745e-20)
(-0.182134 -0.0758391 -3.66576e-20)
(-6.8868e-05 -0.00607024 1.0555e-20)
(-0.00231639 -0.016861 -1.75471e-20)
(-0.00787373 -0.0265407 5.58455e-20)
(-0.0153965 -0.034856 -4.46822e-20)
(-0.0243533 -0.0417805 -1.15874e-20)
(-0.0342987 -0.0474301 -3.04933e-21)
(-0.0448364 -0.0520228 3.65275e-20)
(-0.0556533 -0.0558388 2.58441e-20)
(-0.0665059 -0.0591732 -4.57424e-20)
(-0.0772107 -0.0622927 1.91442e-20)
(-0.0876356 -0.0654048 1.24627e-21)
(-0.0976889 -0.0686418 -8.6242e-20)
(-0.107309 -0.0720588 -2.83364e-20)
(-0.116451 -0.0756422 2.31105e-21)
(-0.125083 -0.0793224 1.88824e-20)
(-0.133171 -0.082985 8.55704e-20)
(-0.140683 -0.086478 9.34778e-21)
(-0.147579 -0.089612 8.07624e-20)
(-0.15382 -0.0921537 7.95437e-20)
(-0.159369 -0.0938157 -9.71738e-21)
(-0.1642 -0.0942425 3.60826e-20)
(-0.168338 -0.0929993 -1.27908e-20)
(-0.171898 -0.0895829 4.45467e-20)
(-0.17482 -0.0834597 1.47091e-19)
(-0.177301 -0.0739064 2.31016e-20)
(-7.58454e-05 -0.00481152 1.78609e-20)
(-0.00234586 -0.013732 -6.49839e-20)
(-0.00796544 -0.0220487 8.38754e-20)
(-0.0155615 -0.0293997 3.09247e-20)
(-0.0245903 -0.035683 2.42845e-20)
(-0.0345954 -0.0409484 2.58244e-20)
(-0.0451707 -0.0453558 -1.37169e-19)
(-0.0559955 -0.0491364 5.09356e-20)
(-0.0668203 -0.0525442 5.30222e-20)
(-0.0774579 -0.0558134 -7.83308e-20)
(-0.0877734 -0.059127 8.10814e-20)
(-0.0976733 -0.0626005 4.43569e-20)
(-0.107094 -0.0662786 5.46193e-20)
(-0.115989 -0.070143 -3.68855e-20)
(-0.124322 -0.0741235 -8.12079e-21)
(-0.132056 -0.0781083 1.7851e-19)
(-0.139151 -0.0819492 -7.70885e-20)
(-0.145561 -0.0854609 5.90719e-20)
(-0.151235 -0.0884129 -1.43211e-19)
(-0.15612 -0.0905154 -5.67689e-20)
(-0.160168 -0.091402 5.39218e-20)
(-0.163374 -0.0906117 9.27351e-20)
(-0.16584 -0.0875932 1.47224e-20)
(-0.167436 -0.0817506 -1.18404e-19)
(-0.168197 -0.0723426 -8.07313e-20)
(-0.000146258 -0.00353217 -7.0056e-20)
(-0.00251421 -0.010556 -2.25591e-20)
(-0.00821962 -0.0174959 -4.97613e-20)
(-0.0158781 -0.023879 -4.81616e-20)
(-0.0249416 -0.0295251 3.4543e-20)
(-0.0349484 -0.034415 -6.16402e-20)
(-0.045487 -0.038648 -3.99138e-20)
(-0.0562318 -0.042404 -1.98823e-19)
(-0.0669294 -0.0458948 8.69146e-21)
(-0.0773893 -0.0493213 -1.96835e-21)
(-0.0874743 -0.052842 -1.52132e-19)
(-0.0970885 -0.0565556 -5.17079e-20)
(-0.106165 -0.0604974 -6.43978e-20)
(-0.114656 -0.0646451 1.24151e-19)
(-0.122518 -0.0689289 3.56921e-20)
(-0.129712 -0.0732403 -9.75588e-20)
(-0.136189 -0.0774366 -1.07509e-19)
(-0.141894 -0.0813385 2.90758e-20)
(-0.146763 -0.0847211 1.16854e-19)
(-0.150726 -0.087297 -2.46208e-20)
(-0.153706 -0.088694 -1.48891e-20)
(-0.15566 -0.0884305 -7.03153e-20)
(-0.156664 -0.0859038 -8.65963e-20)
(-0.156524 -0.080435 7.05665e-20)
(-0.154976 -0.0712607 4.81358e-20)
(-0.000279896 -0.00224599 3.64629e-20)
(-0.00282082 -0.00736469 4.28882e-20)
(-0.00863519 -0.0129243 -3.37673e-20)
(-0.0163447 -0.0183416 -6.98505e-20)
(-0.0254046 -0.0233569 1.0876e-20)
(-0.0353542 -0.0278802 8.19992e-20)
(-0.0457806 -0.0319487 1.17898e-19)
(-0.0563563 -0.0356896 1.60871e-19)
(-0.0668259 -0.0392714 2.80035e-20)
(-0.0769964 -0.0428613 3.70917e-20)
(-0.086728 -0.0465931 4.49756e-20)
(-0.095922 -0.0505491 1.71588e-19)
(-0.104508 -0.0547557 -9.87384e-21)
(-0.112434 -0.0591873 -2.18934e-19)
(-0.119653 -0.0637751 1.57208e-19)
(-0.126116 -0.0684151 6.20445e-20)
(-0.131769 -0.0729709 1.96365e-19)
(-0.136547 -0.0772714 -8.04063e-20)
(-0.140373 -0.0811005 -9.07305e-20)
(-0.143157 -0.0841786 2.56688e-19)
(-0.144795 -0.0861354 -8.44503e-20)
(-0.145197 -0.0864774 -1.27847e-19)
(-0.144404 -0.0845536 -3.21369e-20)
(-0.142181 -0.0795764 -1.01831e-19)
(-0.137751 -0.0707496 1.81038e-20)
(-0.00047541 -0.000966592 9.04934e-21)
(-0.00326276 -0.00418928 -1.76921e-20)
(-0.00920834 -0.00837551 3.61685e-21)
(-0.0169567 -0.0128346 -1.26956e-19)
(-0.0259743 -0.0172277 -9.86223e-20)
(-0.0358068 -0.0213937 -1.86388e-20)
(-0.0460446 -0.0253068 -4.80595e-20)
(-0.0563612 -0.0290406 -8.75669e-20)
(-0.0665003 -0.0327199 -1.97808e-20)
(-0.0762674 -0.0364776 -9.71775e-21)
(-0.08552 -0.0404228 -9.24082e-20)
(-0.094156 -0.0446219 3.98557e-20)
(-0.102101 -0.0490927 3.00168e-20)
(-0.109297 -0.0538067 1.60594e-19)
(-0.115691 -0.0586969 -3.62852e-21)
(-0.121227 -0.0636638 -9.64645e-20)
(-0.125842 -0.0685786 -1.04782e-20)
(-0.129462 -0.0732799 4.07004e-20)
(-0.131996 -0.0775635 1.66405e-19)
(-0.133339 -0.0811628 -1.23278e-19)
(-0.13336 -0.0837191 3.16581e-19)
(-0.131919 -0.0847401 1.29351e-19)
(-0.129012 -0.0835375 -9.38459e-20)
(-0.124428 -0.079191 1.82353e-19)
(-0.116538 -0.0708643 1.00466e-19)
(-0.000730361 0.000292864 1.09445e-20)
(-0.00383475 -0.00106014 5.60277e-20)
(-0.00993254 -0.00389013 1.58979e-19)
(-0.017707 -0.00740417 1.98334e-19)
(-0.026643 -0.0111862 1.17917e-19)
(-0.0362979 -0.0150045 -8.27379e-20)
(-0.0462697 -0.0187703 2.01544e-19)
(-0.0562352 -0.0225038 2.28094e-20)
(-0.0659393 -0.0262853 -1.20264e-19)
(-0.0751861 -0.0302135 1.32197e-20)
(-0.0838304 -0.034373 2.22436e-19)
(-0.0917657 -0.0388144 -2.37136e-19)
(-0.0989124 -0.0435469 -1.34978e-19)
(-0.105205 -0.0485396 -2.74426e-20)
(-0.110584 -0.0537271 -2.198e-19)
(-0.114984 -0.0590152 -1.42085e-19)
(-0.118333 -0.0642828 2.48469e-20)
(-0.120546 -0.0693789 -2.91525e-19)
(-0.121521 -0.0741133 2.78892e-20)
(-0.121138 -0.0782378 -1.35608e-19)
(-0.119247 -0.0814141 -1.65571e-19)
(-0.115664 -0.083167 1.49116e-19)
(-0.110319 -0.0827954 1.63981e-19)
(-0.103162 -0.0792315 -1.24153e-19)
(-0.0911963 -0.071614 1.63219e-19)
(-0.0010413 0.00151988 -1.3257e-19)
(-0.00452938 0.00199372 9.73517e-20)
(-0.0107986 0.00049286 -7.17628e-21)
(-0.0185856 -0.00209487 3.89467e-20)
(-0.0274 -0.00527936 3.68785e-20)
(-0.0368162 -0.0087601 1.6572e-19)
(-0.0464432 -0.0123864 -1.20255e-19)
(-0.055964 -0.0161249 -2.24042e-19)
(-0.0651256 -0.0200119 1.12173e-19)
(-0.0737312 -0.024112 1.04597e-19)
(-0.0816323 -0.0284852 -3.5261e-19)
(-0.0887173 -0.0331662 2.47424e-19)
(-0.0948992 -0.0381559 3.74369e-19)
(-0.100104 -0.0434209 2.5249e-20)
(-0.104263 -0.0488974 -6.51759e-20)
(-0.107299 -0.0544962 1.86592e-19)
(-0.109131 -0.0601034 -8.54975e-20)
(-0.109661 -0.0655788 3.78399e-19)
(-0.108777 -0.0707466 -3.29449e-19)
(-0.106347 -0.0753795 5.86713e-20)
(-0.102209 -0.0791678 -2.99693e-20)
(-0.0961453 -0.0816693 -9.6309e-20)
(-0.0879941 -0.0822064 -9.11542e-20)
(-0.0781109 -0.079569 7.2439e-20)
(-0.0613773 -0.0729112 1.31256e-20)
(-0.00140386 0.00270281 8.64685e-20)
(-0.00533722 0.00494501 -6.24098e-20)
(-0.011795 0.00473643 5.14863e-20)
(-0.0195797 0.00305064 -1.73921e-19)
(-0.0282318 0.000447365 -3.8508e-20)
(-0.037347 -0.00270684 1.95222e-20)
(-0.0465489 -0.0062009 -4.42555e-20)
(-0.0555287 -0.0099488 -7.32372e-20)
(-0.0640365 -0.0139434 2.30283e-20)
(-0.0718747 -0.0182153 -1.22229e-19)
(-0.0788908 -0.0227998 2.27541e-19)
(-0.0849662 -0.027716 -5.22613e-20)
(-0.090005 -0.0329564 -1.33057e-19)
(-0.0939226 -0.0384845 -1.3563e-19)
(-0.0966364 -0.0442381 1.78286e-19)
(-0.0980586 -0.0501318 9.55449e-20)
(-0.098092 -0.0560585 3.78674e-20)
(-0.0966266 -0.0618871 -3.1448e-19)
(-0.0935378 -0.0674551 3.22792e-19)
(-0.0886829 -0.0725563 -1.03915e-19)
(-0.0818952 -0.0769135 -4.73686e-20)
(-0.0729483 -0.0801292 -3.40612e-20)
(-0.0615219 -0.0815962 -3.63904e-20)
(-0.0487855 -0.0799888 1.20209e-19)
(-0.0265346 -0.0743615 -1.87808e-19)
(-0.00181291 0.00383105 -3.21373e-20)
(-0.00624705 0.00776847 1.39034e-19)
(-0.0129076 0.00880593 -1.99104e-19)
(-0.0206739 0.00799201 7.98992e-20)
(-0.029122 0.00595065 4.41068e-20)
(-0.0378726 0.00311087 -6.68622e-20)
(-0.0465668 -0.000258176 1.94952e-19)
(-0.0549058 -0.00401927 4.73577e-20)
(-0.0626435 -0.00812249 2.22019e-20)
(-0.0695812 -0.0125646 1.91165e-19)
(-0.075561 -0.0173568 -7.83189e-20)
(-0.0804556 -0.0225021 8.24068e-20)
(-0.0841575 -0.0279842 -8.75615e-20)
(-0.086568 -0.0337636 -5.57637e-21)
(-0.0875885 -0.0397782 -9.45116e-20)
(-0.0871142 -0.0459458 -3.241e-19)
(-0.0850302 -0.0521643 6.61156e-20)
(-0.0812097 -0.0583092 2.52883e-19)
(-0.0755133 -0.0642287 -8.61628e-20)
(-0.0677873 -0.0697341 4.08203e-19)
(-0.0578613 -0.0745797 -2.21959e-19)
(-0.0455398 -0.0784141 -6.02619e-20)
(-0.0302159 -0.0807472 -9.81974e-20)
(-0.0143491 -0.0802569 1.64787e-21)
(0.0139705 -0.0751488 -8.27386e-20)
(-0.00226263 0.00489514 -9.6053e-20)
(-0.00724607 0.0104412 -1.43372e-19)
(-0.0141203 0.0126694 -7.71713e-20)
(-0.0218501 0.0126916 7.24796e-20)
(-0.0300508 0.0111895 2.2679e-20)
(-0.0383712 0.00865052 1.313e-20)
(-0.0464722 0.00539893 5.01169e-20)
(-0.0540662 0.00162135 -2.44254e-19)
(-0.0609111 -0.00259052 8.07663e-20)
(-0.0668065 -0.00720037 -1.6708e-19)
(-0.0715873 -0.012195 -6.04708e-20)
(-0.075115 -0.0175615 -8.15189e-20)
(-0.077267 -0.0232743 -1.71837e-19)
(-0.0779267 -0.0292898 3.51746e-19)
(-0.0769753 -0.0355454 1.98135e-19)
(-0.0742859 -0.0419603 5.32794e-20)
(-0.0697209 -0.048435 1.63873e-19)
(-0.0631315 -0.0548491 -2.33174e-19)
(-0.0543594 -0.0610565 -5.59636e-20)
(-0.0432375 -0.0668801 -2.63067e-19)
(-0.0295844 -0.0720988 1.00015e-19)
(-0.0133015 -0.0763962 2.11832e-19)
(0.00666236 -0.0793989 9.40383e-20)
(0.0264111 -0.0801632 -1.69635e-19)
(0.0611997 -0.0752896 1.9976e-19)
(-0.00274671 0.00588691 -3.42176e-20)
(-0.00832015 0.0129429 8.95913e-21)
(-0.0154149 0.0162979 9.75616e-20)
(-0.0230877 0.0171145 1.74454e-19)
(-0.0309954 0.0161256 -1.16881e-19)
(-0.0388173 0.0138718 1.12825e-19)
(-0.0462356 0.0107295 -8.85618e-20)
(-0.0529746 0.00693222 3.34562e-19)
(-0.0587962 0.00261227 -2.34458e-19)
(-0.0634967 -0.00216162 5.04605e-20)
(-0.0669017 -0.00735217 2.17214e-19)
(-0.0688583 -0.0129302 -2.99744e-20)
(-0.0692248 -0.0188601 2.3016e-20)
(-0.0678619 -0.0250934 -2.8609e-19)
(-0.0646252 -0.0315654 -2.40906e-19)
(-0.0593601 -0.038195 -9.35139e-21)
(-0.0519004 -0.0448828 -2.6116e-19)
(-0.0420696 -0.0515086 9.29258e-20)
(-0.0296856 -0.0579269 -1.29963e-19)
(-0.0145662 -0.0639646 1.63812e-19)
(0.00350116 -0.0694142 -2.18297e-19)
(0.0244452 -0.073988 1.24363e-19)
(0.0498175 -0.0773879 -1.00332e-19)
(0.0741196 -0.0791804 1.32518e-19)
(0.117008 -0.0748968 -8.14415e-21)
(-0.00325846 0.00679953 1.87472e-19)
(-0.00945405 0.0152559 4.76348e-20)
(-0.0167714 0.0196657 -1.08171e-19)
(-0.0243634 0.0212291 -1.29967e-19)
(-0.0319297 0.0207233 8.7742e-20)
(-0.0391811 0.018737 -3.22088e-19)
(-0.0458222 0.0156946 4.59368e-19)
(-0.0515892 0.0118743 8.95251e-20)
(-0.0562471 0.00744732 1.48222e-19)
(-0.0595872 0.00251402 1.80959e-19)
(-0.061423 -0.0028644 1.1387e-19)
(-0.061583 -0.00864206 -8.50845e-20)
(-0.0599021 -0.0147729 -2.94243e-21)
(-0.0562125 -0.0212019 -4.1587e-20)
(-0.0503385 -0.0278608 -1.22539e-19)
(-0.0420916 -0.0346661 2.72067e-19)
(-0.0312713 -0.0415155 5.47385e-19)
(-0.0176678 -0.0482854 3.07114e-20)
(-0.00107129 -0.0548252 1.82643e-19)
(0.0187112 -0.0609586 -9.33978e-20)
(0.0419455 -0.0664776 1.09539e-19)
(0.0683043 -0.0711184 -6.27282e-19)
(0.100118 -0.0745949 2.84627e-19)
(0.129186 -0.0768845 1.68811e-19)
(0.182159 -0.073294 -1.06269e-19)
(-0.00379098 0.00762754 -1.12553e-19)
(-0.0106317 0.0173655 -1.94001e-19)
(-0.0181686 0.0227502 1.86304e-19)
(-0.0256517 0.0250072 1.22198e-19)
(-0.0328242 0.0249503 6.58801e-20)
(-0.0394283 0.023211 2.33051e-19)
(-0.0451912 0.0202577 -2.41901e-19)
(-0.0498605 0.0164106 -2.23179e-19)
(-0.0532028 0.011878 -1.46487e-19)
(-0.0550018 0.00679095 -3.43854e-19)
(-0.0550554 0.00123436 6.64727e-20)
(-0.0531693 -0.00472882 -2.70653e-20)
(-0.0491493 -0.0110408 4.86953e-19)
(-0.0427938 -0.0176389 1.99749e-19)
(-0.0338889 -0.0244499 1.42435e-19)
(-0.0222071 -0.0313845 -4.48457e-20)
(-0.00750862 -0.0383348 -2.52481e-19)
(0.0104521 -0.0451693 -2.0099e-19)
(0.031914 -0.0517294 -2.29919e-19)
(0.0570673 -0.0578271 1.62229e-19)
(0.0862602 -0.0632354 2.96117e-19)
(0.118737 -0.0677333 3.19279e-19)
(0.158115 -0.0708937 -2.89791e-19)
(0.192048 -0.0733658 1.18717e-19)
(0.256866 -0.0698032 1.48361e-19)
(-0.00433729 0.00836689 -2.96573e-19)
(-0.0118365 0.0192596 1.65312e-19)
(-0.0195833 0.0255325 -2.8261e-19)
(-0.0269248 0.0284239 3.4769e-19)
(-0.0336458 0.0287773 -3.32596e-19)
(-0.0395199 0.0272616 -9.96723e-20)
(-0.0442956 0.024385 -1.85887e-19)
(-0.0477311 0.0205068 1.04556e-19)
(-0.0495919 0.0158702 -1.79115e-19)
(-0.0496515 0.0106362 1.95646e-19)
(-0.047688 0.00491313 -2.56484e-19)
(-0.0434791 -0.0012185 -1.8988e-19)
(-0.0367959 -0.0076882 7.25582e-21)
(-0.0273973 -0.0144239 -2.88649e-19)
(-0.0150259 -0.0213447 6.52397e-21)
(0.000589919 -0.0283531 -2.87494e-19)
(0.0197305 -0.0353326 -1.79986e-20)
(0.0426743 -0.0421404 -3.05702e-19)
(0.0696851 -0.0486046 1.05562e-19)
(0.100923 -0.0545235 4.44795e-19)
(0.13685 -0.0596258 -4.18104e-19)
(0.176049 -0.063812 1.97121e-19)
(0.223982 -0.0661755 2.07611e-19)
(0.262727 -0.0687097 -9.48604e-20)
(0.340691 -0.0641933 3.55163e-20)
(-0.00489048 0.00901488 1.53681e-19)
(-0.0130515 0.0209293 -4.33667e-20)
(-0.0209916 0.0279971 9.58122e-20)
(-0.0281523 0.0314579 -2.7977e-19)
(-0.0343581 0.0321786 4.48994e-19)
(-0.0394115 0.03086 2.92924e-20)
(-0.0430817 0.0280458 3.2522e-19)
(-0.0451345 0.0241313 -1.69793e-19)
(-0.0453324 0.019393 1.15102e-19)
(-0.0434342 0.0140203 1.51523e-19)
(-0.0391938 0.00814496 1.38374e-19)
(-0.0323558 0.00186565 4.37766e-19)
(-0.0226509 -0.00473314 -1.09989e-19)
(-0.00979295 -0.0115681 -1.10916e-19)
(0.00652217 -0.0185475 -8.56246e-20)
(0.0266117 -0.0255638 -7.55359e-21)
(0.0507938 -0.0324879 -1.76557e-19)
(0.07937 -0.039163 1.55004e-19)
(0.112613 -0.0453979 -2.02844e-19)
(0.15061 -0.0509848 8.07912e-20)
(0.193956 -0.0555624 -1.12e-19)
(0.240318 -0.0593153 1.44041e-20)
(0.297466 -0.0603806 -4.85481e-19)
(0.340783 -0.0629605 5.24526e-20)
(0.432299 -0.0565392 2.16811e-21)
(-0.00544379 0.00957014 2.0525e-19)
(-0.0142593 0.0223682 -1.38774e-19)
(-0.0223683 0.0301317 -9.80296e-20)
(-0.0293019 0.0340917 -5.92464e-20)
(-0.0349205 0.0351321 -1.94274e-19)
(-0.0390537 0.0339807 -3.2846e-19)
(-0.0414882 0.0312128 -1.07283e-19)
(-0.0419951 0.0272564 3.67209e-19)
(-0.04033 0.0224192 -1.1455e-19)
(-0.0362332 0.0169182 -2.47979e-19)
(-0.0294291 0.0109082 -1.50108e-19)
(-0.0196239 0.004507 -4.4776e-19)
(-0.0065033 -0.0021854 -4.86733e-19)
(0.0102679 -0.00907223 3.64011e-19)
(0.0310416 -0.0160485 7.39734e-20)
(0.0561768 -0.0229932 5.9125e-20)
(0.0860192 -0.0297616 6.08509e-19)
(0.120873 -0.0361801 9.05973e-20)
(0.160991 -0.0420348 5.62278e-19)
(0.206324 -0.0471257 -6.57226e-19)
(0.257592 -0.0509368 3.00041e-19)
(0.311338 -0.0541647 -2.58842e-19)
(0.37781 -0.053483 3.89351e-19)
(0.425338 -0.0561079 -5.61746e-19)
(0.529468 -0.0471118 1.10076e-19)
(-0.00599077 0.0100325 -5.19078e-20)
(-0.0154427 0.0235728 -1.10989e-19)
(-0.0236872 0.0319278 -1.02586e-19)
(-0.0303384 0.0363115 3.49748e-20)
(-0.0352885 0.0376196 -5.52538e-20)
(-0.0383907 0.0366024 2.07889e-19)
(-0.0394459 0.0338628 -7.47376e-20)
(-0.0382269 0.0298586 -1.57738e-19)
(-0.0344782 0.0249266 -6.45005e-20)
(-0.0279169 0.0193104 3.13525e-21)
(-0.0182329 0.0131882 4.13731e-19)
(-0.0050895 0.0066974 -3.62502e-19)
(0.0118765 -4.44287e-05 5.25161e-19)
(0.03305 -0.00692453 -1.50911e-19)
(0.0588274 -0.013822 -2.6104e-19)
(0.0895984 -0.0205991 2.15778e-19)
(0.125716 -0.0270929 -2.32501e-19)
(0.167452 -0.0331115 -3.87501e-19)
(0.214995 -0.0384151 -1.41554e-19)
(0.268082 -0.0428363 1.27614e-19)
(0.327488 -0.0456305 1.99344e-19)
(0.388578 -0.048232 3.72316e-19)
(0.463718 -0.0455037 1.71573e-20)
(0.515043 -0.0480791 2.37216e-19)
(0.629263 -0.0362731 -6.90279e-20)
(-0.00652531 0.0104031 -2.54975e-20)
(-0.0165845 0.0245418 2.4297e-19)
(-0.0249211 0.0333799 2.51122e-19)
(-0.0312244 0.0381071 -1.12724e-19)
(-0.0354135 0.039627 7.92135e-20)
(-0.0373606 0.038708 -2.9561e-19)
(-0.0368769 0.0359773 5.88766e-20)
(-0.0337328 0.0319196 4.74749e-20)
(-0.0276569 0.0268991 -1.38993e-19)
(-0.018338 0.021185 -3.83665e-20)
(-0.00542716 0.0149789 -5.19913e-19)
(0.0114592 0.0084396 1.64624e-19)
(0.0327341 0.00170383 -2.45653e-20)
(0.0588288 -0.00509679 -6.41296e-21)
(0.090174 -0.0118227 -2.36521e-20)
(0.12717 -0.0183165 -3.01846e-21)
(0.170142 -0.0243953 -1.89904e-20)
(0.219281 -0.02985 2.69648e-19)
(0.274641 -0.0344137 -2.32016e-19)
(0.335669 -0.0379816 2.08431e-19)
(0.403036 -0.0395339 -2.96421e-19)
(0.471108 -0.0413532 -1.38073e-19)
(0.553394 -0.0365186 3.42618e-20)
(0.608037 -0.0388028 -2.07824e-19)
(0.728312 -0.0243992 -6.34864e-20)
(-0.0070417 0.0106837 -2.43121e-19)
(-0.0176677 0.0252765 -3.05557e-20)
(-0.0260416 0.0344857 -3.10892e-19)
(-0.0319196 0.0394723 -2.50249e-19)
(-0.0352418 0.0411443 3.32094e-19)
(-0.0358943 0.0402852 2.27811e-19)
(-0.0336941 0.0375432 -1.00726e-19)
(-0.0284039 0.0334275 -9.06565e-20)
(-0.0197317 0.0283278 -6.75375e-20)
(-0.00733302 0.0225387 5.83126e-19)
(0.00918376 0.0162856 2.23522e-19)
(0.0302506 0.00974992 3.16034e-19)
(0.0563277 0.0030901 -1.74039e-20)
(0.0878833 -0.00354078 5.99721e-20)
(0.125363 -0.00998171 1.66938e-19)
(0.169144 -0.016054 -3.88827e-19)
(0.219477 -0.0215548 6.07356e-19)
(0.276399 -0.0262618 6.20976e-20)
(0.339738 -0.0298852 -1.91218e-19)
(0.408584 -0.0324074 -2.80813e-19)
(0.483258 -0.0325608 -1.48496e-19)
(0.557543 -0.0333741 3.11677e-19)
(0.64465 -0.0266445 -1.14513e-20)
(0.701944 -0.0283083 1.48922e-19)
(0.823204 -0.0118641 1.70019e-19)
(-0.00753465 0.0108773 1.85547e-19)
(-0.018675 0.0257799 1.94691e-20)
(-0.0270193 0.0352459 -4.22717e-20)
(-0.0323809 0.0404046 4.40144e-20)
(-0.0347146 0.0421662 -3.16085e-19)
(-0.0339153 0.0413271 4.22079e-19)
(-0.0298001 0.0385536 -8.75154e-22)
(-0.0221188 0.0343776 3.45067e-19)
(-0.0105533 0.029213 1.46534e-20)
(0.00527794 0.0233794 -1.17912e-19)
(0.0258118 0.0171268 1.86207e-19)
(0.0515269 0.0106611 -6.25507e-19)
(0.0829225 0.00416476 -3.84668e-19)
(0.120486 -0.00218513 -1.90832e-19)
(0.164648 -0.00820423 -8.12886e-20)
(0.215713 -0.0136925 6.97036e-21)
(0.273788 -0.0184302 -3.94972e-19)
(0.338669 -0.0221903 1.47288e-19)
(0.409848 -0.0246746 5.55467e-19)
(0.485995 -0.0259579 1.49986e-19)
(0.566809 -0.0246543 3.48061e-19)
(0.646026 -0.0242146 -3.3171e-19)
(0.735045 -0.0160246 -7.2278e-20)
(0.79397 -0.0167777 -1.20677e-19)
(0.911165 0.00103713 -6.0239e-19)
(-0.00799922 0.0109873 -1.74274e-19)
(-0.0195894 0.026057 8.84015e-20)
(-0.027823 0.0356642 1.57362e-19)
(-0.0325614 0.0409053 5.48703e-19)
(-0.0337675 0.0426923 2.0697e-19)
(-0.0313389 0.0418327 -4.60532e-19)
(-0.0250869 0.0390091 -1.16493e-19)
(-0.0147427 0.0347742 -6.09473e-20)
(4.25482e-05 0.0295656 -2.02048e-19)
(0.0196908 0.0237279 -6.60335e-20)
(0.0446837 0.017537 -1.37088e-19)
(0.0755402 0.0112249 4.99906e-19)
(0.112783 0.0050007 5.95257e-19)
(0.156892 -0.00093292 2.98092e-19)
(0.208232 -0.00636801 -1.51943e-19)
(0.266975 -0.011086 -1.05249e-19)
(0.33299 -0.014858 2.28994e-19)
(0.405735 -0.0174657 -4.9906e-20)
(0.484237 -0.0186316 -4.01141e-21)
(0.566706 -0.0185061 1.16093e-19)
(0.651998 -0.015792 -1.63809e-19)
(0.734304 -0.0139165 -2.71578e-19)
(0.822073 -0.00483419 -1.71223e-19)
(0.881119 -0.00454757 2.15079e-19)
(0.988917 0.0134153 6.39399e-19)
(-0.00843081 0.0110178 1.39158e-19)
(-0.0203934 0.0261142 4.74209e-19)
(-0.0284199 0.0357466 1.89933e-19)
(-0.0324105 0.0409794 -1.68243e-19)
(-0.0323297 0.0427273 2.3547e-19)
(-0.0280712 0.0418075 2.59875e-19)
(-0.0194346 0.0389181 2.9209e-19)
(-0.0061269 0.0346317 -1.62213e-20)
(0.0122356 0.0294091 2.30576e-19)
(0.0361166 0.0236205 -7.10963e-19)
(0.066038 0.017569 4.02507e-19)
(0.102546 0.011515 -2.13554e-19)
(0.146163 0.00569553 -5.38667e-19)
(0.197316 0.000339392 -3.89106e-19)
(0.256246 -0.00432444 6.3108e-19)
(0.322899 -0.00806615 -2.14495e-19)
(0.396807 -0.0106618 -1.04253e-19)
(0.476974 -0.0119212 7.82986e-20)
(0.561856 -0.0116301 -3.92322e-19)
(0.649167 -0.00998693 3.0695e-19)
(0.736859 -0.00600229 -4.73774e-20)
(0.819905 -0.00265786 3.39656e-19)
(0.903373 0.00670208 3.74666e-19)
(0.960686 0.00799783 -1.22776e-19)
(1.05525 0.0252586 -2.31296e-19)
(-0.00882495 0.0109729 -7.26558e-20)
(-0.0210689 0.0259589 -2.68892e-19)
(-0.0287749 0.0355016 7.13388e-21)
(-0.0318733 0.0406362 -1.3622e-19)
(-0.0303234 0.0422812 -4.02456e-19)
(-0.0240091 0.0412644 -2.08759e-19)
(-0.0127117 0.0382987 1.14978e-19)
(0.00389088 0.0339762 -3.5952e-19)
(0.02622 0.0287813 2.83288e-20)
(0.0547788 0.0231107 1.77165e-19)
(0.0901198 0.0172965 -5.10509e-19)
(0.132796 0.0116286 -1.6808e-19)
(0.183288 0.00637251 4.31546e-19)
(0.241915 0.00178098 2.90195e-19)
(0.308708 -0.00190287 -3.73649e-19)
(0.383287 -0.00445127 3.97363e-19)
(0.464728 -0.00566723 1.63935e-19)
(0.551476 -0.00541465 -3.99302e-20)
(0.64134 -0.00359084 -3.50269e-20)
(0.731544 -0.000423463 -3.29345e-19)
(0.819262 0.00461385 3.49057e-20)
(0.900395 0.00927131 -5.61527e-20)
(0.976939 0.0183045 -2.9429e-19)
(1.03062 0.0204507 -2.09666e-19)
(1.10952 0.0362035 -1.86084e-19)
(-0.00917722 0.0108571 -4.57789e-20)
(-0.0215968 0.0255994 -5.99014e-19)
(-0.0288502 0.0349401 -3.70556e-19)
(-0.0308896 0.0398884 -4.73296e-19)
(-0.0276635 0.0413699 4.19023e-19)
(-0.0190393 0.0402243 3.36515e-20)
(-0.00477442 0.0371792 3.05346e-19)
(0.0154864 0.0328469 -2.79715e-19)
(0.0422024 0.0277361 4.66496e-19)
(0.0759094 0.0222714 1.74985e-19)
(0.117173 0.0168151 1.40373e-20)
(0.16652 0.0116872 -2.74444e-20)
(0.224338 0.00717961 -9.66606e-20)
(0.290756 0.00356276 -8.43095e-20)
(0.365498 0.00108118 8.82028e-20)
(0.447738 -6.03416e-05 1.23653e-19)
(0.535981 0.000278356 -7.81733e-19)
(0.628033 0.0021472 4.74412e-20)
(0.721054 0.0054948 -1.24284e-19)
(0.81184 0.0100632 -1.12071e-19)
(0.897094 0.01587 5.3718e-20)
(0.973652 0.0215102 -3.39684e-19)
(1.04132 0.0296573 1.4724e-19)
(1.08972 0.0324355 1.77532e-19)
(1.152 0.0459418 -3.9492e-19)
(-0.00948312 0.0106744 1.07121e-19)
(-0.0219568 0.0250449 4.33761e-19)
(-0.0286045 0.034075 3.72716e-20)
(-0.0293941 0.0387528 6.88166e-19)
(-0.0242569 0.0400157 -4.37434e-19)
(-0.0130384 0.0387166 4.29619e-19)
(0.00453281 0.0355994 -3.86016e-19)
(0.0288475 0.0312975 1.52262e-19)
(0.060399 0.0263452 -1.97153e-19)
(0.0997428 0.0211962 2.60658e-19)
(0.147431 0.0162436 4.32215e-19)
(0.203914 0.0118359 2.23613e-19)
(0.269418 0.00828606 8.96227e-20)
(0.343785 0.00586999 9.78472e-20)
(0.426313 0.00481335 -7.31638e-20)
(0.515611 0.00526879 -5.95539e-20)
(0.609521 0.00728354 6.35761e-19)
(0.70518 0.0107864 2.04732e-19)
(0.799188 0.015547 5.55586e-19)
(0.888066 0.0212606 1.48956e-20)
(0.968465 0.0275047 -3.2882e-19)
(1.03811 0.0336733 4.01721e-19)
(1.09576 0.0404685 4.84789e-19)
(1.13767 0.0437197 5.80454e-20)
(1.18355 0.054335 3.86968e-19)
(-0.00973752 0.0104289 -3.04114e-19)
(-0.0221268 0.0243047 1.68585e-19)
(-0.0279927 0.0329204 3.70729e-19)
(-0.0273149 0.0372501 -1.45888e-19)
(-0.0200022 0.0382469 -4.35621e-19)
(-0.00587306 0.03678 -3.23382e-20)
(0.0153763 0.0336114 2.36283e-20)
(0.0441713 0.0293971 4.25107e-20)
(0.0810303 0.0246986 -2.72952e-19)
(0.126507 0.0199996 -1.15701e-19)
(0.181099 0.0157229 -4.03724e-19)
(0.245119 0.0122407 -9.85217e-21)
(0.318536 0.00987598 -1.12737e-19)
(0.400794 0.00889114 -3.38294e-20)
(0.490641 0.00946405 2.94396e-19)
(0.586017 0.0116588 -4.27535e-19)
(0.684055 0.0153915 1.77303e-19)
(0.781275 0.0204397 -2.76052e-19)
(0.873901 0.0263932 -4.02383e-19)
(0.958439 0.0328871 7.42637e-20)
(1.03191 0.0392127 7.06191e-19)
(1.09291 0.0453933 -3.47469e-19)
(1.14025 0.050547 1.70487e-20)
(1.1749 0.0542462 2.81102e-19)
(1.20548 0.0612534 1.52303e-19)
(-0.0099346 0.0101242 1.43208e-19)
(-0.022082 0.0233879 -2.03508e-19)
(-0.0269658 0.031493 -4.31705e-19)
(-0.0245742 0.0354054 -2.29568e-19)
(-0.01479 0.0360991 2.5135e-19)
(0.00259946 0.0344632 8.56181e-20)
(0.0279314 0.0312802 5.02109e-19)
(0.0616604 0.0272309 2.04154e-19)
(0.104314 0.0229052 1.29206e-19)
(0.156411 0.0188165 6.02551e-20)
(0.218339 0.0154133 4.17358e-19)
(0.29019 0.0130823 1.8834e-19)
(0.371567 0.0121386 -1.55275e-19)
(0.461392 0.0128032 2.21365e-19)
(0.557745 0.0151696 -1.26356e-19)
(0.657831 0.0191727 1.58146e-19)
(0.758103 0.0245649 -1.51917e-19)
(0.854619 0.0309562 -3.22792e-19)
(0.943497 0.037783 4.58174e-19)
(1.02155 0.0446287 -4.67924e-19)
(1.08655 0.0506847 1.28743e-19)
(1.13793 0.056366 -1.44049e-19)
(1.17541 0.059864 -1.05401e-19)
(1.20236 0.0639723 -8.3565e-19)
(1.21942 0.0662264 1.31002e-19)
(-0.0100676 0.0097631 2.92158e-20)
(-0.0217949 0.0223038 1.45934e-19)
(-0.0254696 0.0298109 4.84475e-19)
(-0.0210876 0.0332475 -1.14333e-19)
(-0.00850297 0.0336144 -4.98806e-20)
(0.0125297 0.0318246 9.28984e-20)
(0.0423788 0.028684 8.3007e-20)
(0.0815173 0.0249002 -3.27779e-19)
(0.130456 0.021092 -1.52465e-19)
(0.189633 0.0177998 -4.70752e-19)
(0.25925 0.0154903 -3.55332e-19)
(0.339077 0.0145484 -2.52969e-19)
(0.428232 0.0152555 2.24506e-19)
(0.524984 0.0177549 -3.26534e-19)
(0.626665 0.0220135 -1.55504e-19)
(0.72974 0.0277994 -6.75247e-20)
(0.830107 0.0346814 -4.8457e-20)
(0.923607 0.0421097 9.66268e-19)
(1.00659 0.0494189 5.80903e-20)
(1.07651 0.0561793 -8.2909e-20)
(1.1321 0.0616432 -4.44172e-19)
(1.17369 0.0664031 1.40122e-19)
(1.20224 0.0685159 1.1346e-20)
(1.22139 0.0724674 4.82477e-19)
(1.22784 0.0688472 5.4929e-20)
(-0.0101283 0.00934815 2.31692e-19)
(-0.0212345 0.0210615 -2.22795e-19)
(-0.0234448 0.0278938 -3.38482e-19)
(-0.0167642 0.0308096 3.40175e-19)
(-0.00101704 0.0308422 -7.62069e-20)
(0.0240739 0.0289331 -6.61589e-20)
(0.0589011 0.0259143 5.76404e-20)
(0.103937 0.0225218 -8.26612e-20)
(0.159638 0.0194021 2.07708e-19)
(0.226296 0.0171169 1.34883e-19)
(0.30384 0.0161371 3.48826e-19)
(0.391597 0.0168225 -9.16792e-21)
(0.488068 0.0193857 2.83565e-19)
(0.590772 0.0238495 -1.91625e-20)
(0.696253 0.0300119 2.9759e-19)
(0.800326 0.0374469 8.47967e-20)
(0.89855 0.0455427 -5.45667e-19)
(0.986875 0.0536253 -2.6206e-19)
(1.06222 0.0609966 -6.31786e-20)
(1.12295 0.0672764 1.63657e-19)
(1.16885 0.0718752 -7.60139e-20)
(1.20117 0.0754698 -2.60424e-19)
(1.22186 0.0764997 3.50488e-20)
(1.23364 0.0790209 -2.25015e-19)
(1.23751 0.075047 -1.05847e-19)
(-0.0101073 0.0088811 1.41968e-19)
(-0.0203663 0.0196702 1.51538e-19)
(-0.020827 0.0257633 2.77805e-19)
(-0.0115071 0.028129 -2.02442e-19)
(0.00779731 0.0278392 1.47175e-20)
(0.0373909 0.0258675 4.0668e-19)
(0.0776766 0.0230751 -1.16656e-19)
(0.129097 0.0202264 -3.90212e-19)
(0.192002 0.017992 -2.31515e-19)
(0.266459 0.0169435 3.09744e-19)
(0.35201 0.017536 -6.44537e-19)
(0.447412 0.0200713 2.79356e-21)
(0.550433 0.0246506 -5.46313e-20)
(0.657773 0.0311304 4.04577e-19)
(0.765238 0.0391057 -2.16065e-19)
(0.868171 0.0479489 2.95601e-19)
(0.962097 0.0568969 2.94082e-19)
(1.04342 0.0652127 -5.09183e-19)
(1.10992 0.0722437 -2.09259e-19)
(1.16103 0.0777228 -1.67871e-19)
(1.19756 0.0812623 2.5266e-19)
(1.22154 0.0836379 3.86253e-19)
(1.23541 0.0835866 1.7258e-19)
(1.2419 0.0849139 -1.50484e-19)
(1.24298 0.0804056 -2.64243e-19)
(-0.00999288 0.0083633 -3.35384e-20)
(-0.0191514 0.0181395 1.41798e-19)
(-0.0175467 0.023443 -2.81896e-19)
(-0.00521458 0.0252477 -4.3319e-19)
(0.0180729 0.0246688 -6.42965e-19)
(0.0526379 0.0227163 1.09495e-19)
(0.0988726 0.0202817 -1.29674e-19)
(0.157148 0.0181564 1.90317e-19)
(0.22764 0.0170264 7.0929e-20)