/*--------------------------------*- C++ -*----------------------------------*\
  =========                 |
  \\      /  F ield         | OpenFOAM: The Open Source CFD Toolbox
   \\    /   O peration     | Website:  https://openfoam.org
    \\  /    A nd           | Version:  7
     \\/     M anipulation  |
\*---------------------------------------------------------------------------*/
FoamFile
{
    version     2.0;
    format      ascii;
    class       volScalarField;
    location    "25";
    object      p;
}
// * * * * * * * * * * * * * * * * * * * * * * * * * * * * * * * * * * * * * //

dimensions      [0 2 -2 0 0 0 0];

internalField   nonuniform List<scalar> 
31800
(
-0.269169
-0.27073
-0.271616
-0.272336
-0.27296
-0.273505
-0.274008
-0.274489
-0.274961
-0.27543
-0.275893
-0.276345
-0.27678
-0.277186
-0.277552
-0.277864
-0.278111
-0.278279
-0.278354
-0.278327
-0.278192
-0.277951
-0.277616
-0.277195
-0.276746
-0.269281
-0.270829
-0.271709
-0.272424
-0.273043
-0.273585
-0.274084
-0.274563
-0.275033
-0.275499
-0.27596
-0.276411
-0.276845
-0.27725
-0.277615
-0.277927
-0.278173
-0.278339
-0.278413
-0.278384
-0.278245
-0.277997
-0.277653
-0.277216
-0.276748
-0.269502
-0.271026
-0.271893
-0.272598
-0.273208
-0.273743
-0.274236
-0.274709
-0.275174
-0.275636
-0.276094
-0.276542
-0.276973
-0.277376
-0.277739
-0.27805
-0.278295
-0.27846
-0.278531
-0.278496
-0.278348
-0.278087
-0.277725
-0.277259
-0.276749
-0.26983
-0.271319
-0.272167
-0.272856
-0.273454
-0.273977
-0.274461
-0.274926
-0.275383
-0.275839
-0.276291
-0.276734
-0.277161
-0.277561
-0.277922
-0.27823
-0.278473
-0.278636
-0.278702
-0.278661
-0.2785
-0.278218
-0.277831
-0.27732
-0.276743
-0.270262
-0.271704
-0.272527
-0.273196
-0.273777
-0.274285
-0.274756
-0.275209
-0.275657
-0.276103
-0.276547
-0.276984
-0.277405
-0.2778
-0.278158
-0.278464
-0.278704
-0.278862
-0.278924
-0.278873
-0.278695
-0.278387
-0.277966
-0.277398
-0.276721
-0.270791
-0.272177
-0.272969
-0.273614
-0.274173
-0.274663
-0.275117
-0.275556
-0.27599
-0.276425
-0.276858
-0.277286
-0.2777
-0.278089
-0.278441
-0.278743
-0.278979
-0.279134
-0.279189
-0.279126
-0.27893
-0.278589
-0.278125
-0.277492
-0.276672
-0.271413
-0.272734
-0.27349
-0.274105
-0.274638
-0.275106
-0.275539
-0.27596
-0.276377
-0.276797
-0.277218
-0.277635
-0.278038
-0.278419
-0.278765
-0.279061
-0.279292
-0.279441
-0.279489
-0.279414
-0.279196
-0.278819
-0.278304
-0.277602
-0.276578
-0.27212
-0.273367
-0.274083
-0.274665
-0.275168
-0.275608
-0.276018
-0.276416
-0.276813
-0.277215
-0.277619
-0.278021
-0.278412
-0.278783
-0.279119
-0.279408
-0.279633
-0.279775
-0.279814
-0.279727
-0.279486
-0.279068
-0.278493
-0.277728
-0.276421
-0.272904
-0.274072
-0.274743
-0.275286
-0.275755
-0.276165
-0.276546
-0.276917
-0.277291
-0.27767
-0.278054
-0.278438
-0.278814
-0.27917
-0.279495
-0.279775
-0.279991
-0.280126
-0.280155
-0.280053
-0.279789
-0.279329
-0.278682
-0.277876
-0.276164
-0.273758
-0.274841
-0.275463
-0.275965
-0.276395
-0.276769
-0.277117
-0.277458
-0.277802
-0.278155
-0.278515
-0.278877
-0.279233
-0.279572
-0.279883
-0.28015
-0.280356
-0.28048
-0.280499
-0.280382
-0.280095
-0.279592
-0.278863
-0.278077
-0.275741
-0.274674
-0.275669
-0.276239
-0.276695
-0.277082
-0.277416
-0.277726
-0.27803
-0.278341
-0.278662
-0.278992
-0.279328
-0.27966
-0.279979
-0.280271
-0.280522
-0.280714
-0.280826
-0.280832
-0.2807
-0.28039
-0.279849
-0.279021
-0.278358
-0.275172
-0.275644
-0.276548
-0.277063
-0.27747
-0.27781
-0.278099
-0.278365
-0.278628
-0.278899
-0.279182
-0.279478
-0.279782
-0.280086
-0.280378
-0.280648
-0.280879
-0.281054
-0.28115
-0.281141
-0.280992
-0.280658
-0.280093
-0.279135
-0.278431
-0.274845
-0.27666
-0.277474
-0.277931
-0.278285
-0.278573
-0.278812
-0.279029
-0.279244
-0.279469
-0.279709
-0.279965
-0.280231
-0.2805
-0.280762
-0.281004
-0.28121
-0.281363
-0.28144
-0.281412
-0.281243
-0.280881
-0.280289
-0.279231
-0.278519
-0.274353
-0.277716
-0.278439
-0.278837
-0.279135
-0.279367
-0.27955
-0.279712
-0.279873
-0.280045
-0.280235
-0.280443
-0.280666
-0.280894
-0.281119
-0.281328
-0.281504
-0.28163
-0.281683
-0.281631
-0.281439
-0.281043
-0.280438
-0.279236
-0.278651
-0.273683
-0.278806
-0.27944
-0.279777
-0.280016
-0.280186
-0.280308
-0.280408
-0.280508
-0.280621
-0.280753
-0.280907
-0.281078
-0.28126
-0.281442
-0.281611
-0.281752
-0.281845
-0.281867
-0.281786
-0.281566
-0.281127
-0.280526
-0.279121
-0.278794
-0.272859
-0.279925
-0.280472
-0.280748
-0.280924
-0.281029
-0.281083
-0.281114
-0.281145
-0.28119
-0.281258
-0.28135
-0.281463
-0.281591
-0.281723
-0.281846
-0.281945
-0.281999
-0.281984
-0.281867
-0.281614
-0.281117
-0.280537
-0.278862
-0.278919
-0.271891
-0.281069
-0.281534
-0.281748
-0.281857
-0.281891
-0.281871
-0.281826
-0.28178
-0.28175
-0.281745
-0.281767
-0.281814
-0.281881
-0.281956
-0.282027
-0.282076
-0.282085
-0.282027
-0.281865
-0.281574
-0.280998
-0.280461
-0.278441
-0.27899
-0.270801
-0.282236
-0.282624
-0.282774
-0.282813
-0.282771
-0.28267
-0.282542
-0.282411
-0.282297
-0.28221
-0.282154
-0.282129
-0.282126
-0.282138
-0.282149
-0.282144
-0.2821
-0.281991
-0.281776
-0.281441
-0.280764
-0.280287
-0.27785
-0.278957
-0.269624
-0.283427
-0.283742
-0.283827
-0.283793
-0.283669
-0.28348
-0.28326
-0.283037
-0.28283
-0.282653
-0.282511
-0.282404
-0.282326
-0.282267
-0.282212
-0.282145
-0.282042
-0.281874
-0.281597
-0.281212
-0.280409
-0.280001
-0.277099
-0.278755
-0.268417
-0.284644
-0.284889
-0.284908
-0.284797
-0.284585
-0.284301
-0.283982
-0.283657
-0.283349
-0.283074
-0.282838
-0.282642
-0.282481
-0.282344
-0.282217
-0.282081
-0.281912
-0.281679
-0.281327
-0.280883
-0.279935
-0.279582
-0.276213
-0.27831
-0.267234
-0.285888
-0.286069
-0.286021
-0.285828
-0.285522
-0.285135
-0.284708
-0.284273
-0.283856
-0.283474
-0.283136
-0.282844
-0.282593
-0.282372
-0.282167
-0.281956
-0.281713
-0.281406
-0.28097
-0.280453
-0.279345
-0.279003
-0.275222
-0.277545
-0.26611
-0.287168
-0.287287
-0.287169
-0.286889
-0.286482
-0.285986
-0.285442
-0.284889
-0.284354
-0.283858
-0.28341
-0.283015
-0.282668
-0.282357
-0.282067
-0.281775
-0.28145
-0.28106
-0.280526
-0.279915
-0.278642
-0.278235
-0.274152
-0.276404
-0.265036
-0.288488
-0.288548
-0.288357
-0.287986
-0.287471
-0.286857
-0.286189
-0.285509
-0.284849
-0.28423
-0.283667
-0.283162
-0.282713
-0.282306
-0.281925
-0.281544
-0.281129
-0.280642
-0.279996
-0.279262
-0.277825
-0.277247
-0.273005
-0.274866
-0.263954
-0.289861
-0.289862
-0.289594
-0.289124
-0.288495
-0.287755
-0.286955
-0.28614
-0.285347
-0.2846
-0.283914
-0.283294
-0.282737
-0.282229
-0.28175
-0.281272
-0.280755
-0.280155
-0.279378
-0.278484
-0.276883
-0.276022
-0.271756
-0.272951
-0.262776
-0.291296
-0.291237
-0.290887
-0.290313
-0.289561
-0.288687
-0.287747
-0.28679
-0.285857
-0.284975
-0.284161
-0.283421
-0.28275
-0.282135
-0.281551
-0.280965
-0.280332
-0.279597
-0.278666
-0.27757
-0.275796
-0.27455
-0.270357
-0.270706
-0.261415
-0.292807
-0.292683
-0.292246
-0.29156
-0.290678
-0.289662
-0.288574
-0.287469
-0.286389
-0.285366
-0.284419
-0.283554
-0.282765
-0.282035
-0.281337
-0.280629
-0.27986
-0.278965
-0.277848
-0.276505
-0.274535
-0.27283
-0.268752
-0.268185
-0.259802
-0.294408
-0.294214
-0.293682
-0.292876
-0.291855
-0.29069
-0.289447
-0.288186
-0.286954
-0.285786
-0.284702
-0.283706
-0.282792
-0.28194
-0.281114
-0.280268
-0.279338
-0.278249
-0.276909
-0.275273
-0.273071
-0.270862
-0.266893
-0.265416
-0.257886
-0.296115
-0.295841
-0.295207
-0.294271
-0.293104
-0.29178
-0.290376
-0.288953
-0.287565
-0.286248
-0.285021
-0.28389
-0.282844
-0.281858
-0.280889
-0.27988
-0.278758
-0.277439
-0.27583
-0.27386
-0.271378
-0.268648
-0.264744
-0.262373
-0.255633
-0.297945
-0.29758
-0.296833
-0.295758
-0.294434
-0.292946
-0.291373
-0.289784
-0.288235
-0.286763
-0.28539
-0.284117
-0.28293
-0.281796
-0.280663
-0.279462
-0.278112
-0.276518
-0.274594
-0.272253
-0.26944
-0.266199
-0.262287
-0.258979
-0.25308
-0.299916
-0.299444
-0.298574
-0.297349
-0.29586
-0.294198
-0.29245
-0.29069
-0.288976
-0.287346
-0.285821
-0.284398
-0.283058
-0.281757
-0.280433
-0.279006
-0.277386
-0.275471
-0.273187
-0.270443
-0.267257
-0.263544
-0.259521
-0.25524
-0.25039
-0.302044
-0.301449
-0.300442
-0.299057
-0.297392
-0.29555
-0.293622
-0.291686
-0.289802
-0.28801
-0.286326
-0.284743
-0.283233
-0.281742
-0.280195
-0.278501
-0.276563
-0.274283
-0.271597
-0.268428
-0.26484
-0.260713
-0.256464
-0.251481
-0.247526
-0.304347
-0.303609
-0.302452
-0.300894
-0.299045
-0.297014
-0.2949
-0.292783
-0.290726
-0.288766
-0.286915
-0.285159
-0.283458
-0.281746
-0.279937
-0.277931
-0.275629
-0.272941
-0.26982
-0.266214
-0.262214
-0.25772
-0.253152
-0.247917
-0.243617
-0.306844
-0.30594
-0.304617
-0.302875
-0.300831
-0.298604
-0.296298
-0.293996
-0.29176
-0.289625
-0.287596
-0.285648
-0.28373
-0.281762
-0.279647
-0.277281
-0.274569
-0.271436
-0.267858
-0.263811
-0.259411
-0.254576
-0.249714
-0.244268
-0.23961
-0.30955
-0.308455
-0.306952
-0.305013
-0.302763
-0.300333
-0.297829
-0.295337
-0.292917
-0.290597
-0.288374
-0.286213
-0.284045
-0.281779
-0.27931
-0.276535
-0.273371
-0.269764
-0.265719
-0.261239
-0.256456
-0.251313
-0.246183
-0.240573
-0.235689
-0.312482
-0.31117
-0.30947
-0.30732
-0.304855
-0.302213
-0.299506
-0.296818
-0.294205
-0.291689
-0.289253
-0.286848
-0.284391
-0.28178
-0.278907
-0.275677
-0.272026
-0.267928
-0.263415
-0.258518
-0.253377
-0.247955
-0.242591
-0.236845
-0.231788
-0.315654
-0.314097
-0.312184
-0.30981
-0.307119
-0.304258
-0.301341
-0.298451
-0.295635
-0.292906
-0.290232
-0.287547
-0.284756
-0.28175
-0.278422
-0.274695
-0.270531
-0.265933
-0.26096
-0.255667
-0.250197
-0.244522
-0.238955
-0.233087
-0.227912
-0.319082
-0.317251
-0.315106
-0.312495
-0.309568
-0.306481
-0.303347
-0.300245
-0.297214
-0.29425
-0.291306
-0.288299
-0.285124
-0.281668
-0.277838
-0.273579
-0.268883
-0.263787
-0.25837
-0.252706
-0.246932
-0.241031
-0.235283
-0.229304
-0.22403
-0.322776
-0.320641
-0.318249
-0.315388
-0.312215
-0.308894
-0.305535
-0.30221
-0.298945
-0.295718
-0.292466
-0.289089
-0.285474
-0.281515
-0.27714
-0.272322
-0.267087
-0.2615
-0.25566
-0.249649
-0.243598
-0.237489
-0.231577
-0.225495
-0.220134
-0.326749
-0.32428
-0.321623
-0.3185
-0.315071
-0.311508
-0.307915
-0.304352
-0.30083
-0.297307
-0.293699
-0.289896
-0.285784
-0.281272
-0.276314
-0.270919
-0.265146
-0.259084
-0.252843
-0.24651
-0.240201
-0.233901
-0.227838
-0.221658
-0.216213
-0.33101
-0.328177
-0.32524
-0.321842
-0.318149
-0.314334
-0.310494
-0.306675
-0.302866
-0.299005
-0.294989
-0.2907
-0.286033
-0.280921
-0.275351
-0.26937
-0.263066
-0.256548
-0.249929
-0.243294
-0.236746
-0.230269
-0.224061
-0.217787
-0.212259
-0.335566
-0.332341
-0.329108
-0.325425
-0.321457
-0.317381
-0.31328
-0.30918
-0.305047
-0.300797
-0.296312
-0.291475
-0.286197
-0.280444
-0.274242
-0.267674
-0.260853
-0.253899
-0.246923
-0.240007
-0.233235
-0.226589
-0.220243
-0.213878
-0.208266
-0.340422
-0.336776
-0.333234
-0.329257
-0.325006
-0.320657
-0.316275
-0.311863
-0.307361
-0.302664
-0.297645
-0.292195
-0.286254
-0.279827
-0.272982
-0.265833
-0.258511
-0.251142
-0.243831
-0.236649
-0.229664
-0.222858
-0.216378
-0.209924
-0.204227
-0.345581
-0.341489
-0.337626
-0.333345
-0.328801
-0.324164
-0.319477
-0.314715
-0.30979
-0.30458
-0.298957
-0.292832
-0.286182
-0.279057
-0.271565
-0.263846
-0.256044
-0.248281
-0.240651
-0.233217
-0.226029
-0.21907
-0.212459
-0.20592
-0.200139
-0.351044
-0.34648
-0.342285
-0.337693
-0.332846
-0.327904
-0.322881
-0.317721
-0.312311
-0.306516
-0.300217
-0.293358
-0.285961
-0.278123
-0.269987
-0.261715
-0.253452
-0.245313
-0.237382
-0.229708
-0.222326
-0.215219
-0.208481
-0.20186
-0.195993
-0.356805
-0.351748
-0.347214
-0.342303
-0.337141
-0.33187
-0.326473
-0.32086
-0.314895
-0.308437
-0.301393
-0.293747
-0.285574
-0.277015
-0.268246
-0.259438
-0.250734
-0.242238
-0.23402
-0.226115
-0.218547
-0.211297
-0.204435
-0.197737
-0.191787
-0.362858
-0.357288
-0.352408
-0.347171
-0.34168
-0.336054
-0.330237
-0.324105
-0.317506
-0.310308
-0.302451
-0.293973
-0.285003
-0.275725
-0.266337
-0.257012
-0.247886
-0.23905
-0.230557
-0.222432
-0.214685
-0.207297
-0.200317
-0.193545
-0.187513
-0.369188
-0.363091
-0.35786
-0.352292
-0.346454
-0.340438
-0.334145
-0.327421
-0.320105
-0.312087
-0.303356
-0.29401
-0.284233
-0.274243
-0.264253
-0.254433
-0.244904
-0.235743
-0.226987
-0.21865
-0.210731
-0.20321
-0.196117
-0.189278
-0.183166
-0.37578
-0.369144
-0.36356
-0.357652
-0.351446
-0.344998
-0.338165
-0.330767
-0.322648
-0.313734
-0.304076
-0.293836
-0.283249
-0.272561
-0.261989
-0.251693
-0.24178
-0.232308
-0.2233
-0.21476
-0.206678
-0.199031
-0.19183
-0.184929
-0.178742
-0.38261
-0.375426
-0.369488
-0.363232
-0.356632
-0.349701
-0.342256
-0.334097
-0.325088
-0.315208
-0.304578
-0.293429
-0.282038
-0.270669
-0.259536
-0.248786
-0.238505
-0.228736
-0.219488
-0.210754
-0.202516
-0.19475
-0.187449
-0.180493
-0.174234
-0.389647
-0.381914
-0.375623
-0.369007
-0.36198
-0.354509
-0.34637
-0.337359
-0.327374
-0.316466
-0.304832
-0.292768
-0.280585
-0.268557
-0.256886
-0.245701
-0.23507
-0.225017
-0.21554
-0.206623
-0.198238
-0.19036
-0.182968
-0.175964
-0.169639
-0.396857
-0.388575
-0.381933
-0.374944
-0.367451
-0.359373
-0.350453
-0.340497
-0.329457
-0.317468
-0.304809
-0.291832
-0.278876
-0.266212
-0.254027
-0.242427
-0.231463
-0.22114
-0.211447
-0.202356
-0.193835
-0.185854
-0.178379
-0.171336
-0.16495
-0.404195
-0.395373
-0.388381
-0.381001
-0.372997
-0.364238
-0.354445
-0.343451
-0.331285
-0.318174
-0.30448
-0.290603
-0.276896
-0.263622
-0.250947
-0.238954
-0.227673
-0.217096
-0.207198
-0.197946
-0.189299
-0.181224
-0.173677
-0.166604
-0.160164
-0.411612
-0.402261
-0.394921
-0.38713
-0.378562
-0.369041
-0.35828
-0.346162
-0.332808
-0.318548
-0.303819
-0.289061
-0.274631
-0.260774
-0.247633
-0.235268
-0.223688
-0.212872
-0.202784
-0.193382
-0.184622
-0.176464
-0.168856
-0.161761
-0.155277
-0.419051
-0.409189
-0.401503
-0.393274
-0.384082
-0.373713
-0.361889
-0.348567
-0.333977
-0.318552
-0.3028
-0.287186
-0.272063
-0.257654
-0.244073
-0.231357
-0.219496
-0.208457
-0.198194
-0.188657
-0.179796
-0.171567
-0.163911
-0.156804
-0.150283
-0.426447
-0.416096
-0.408065
-0.399367
-0.389487
-0.37818
-0.365203
-0.350606
-0.334744
-0.318151
-0.301396
-0.28496
-0.269177
-0.254246
-0.240251
-0.227207
-0.215086
-0.203841
-0.193419
-0.183762
-0.174814
-0.166526
-0.158835
-0.151728
-0.14518
-0.43373
-0.422916
-0.414539
-0.405338
-0.394698
-0.382364
-0.368148
-0.352219
-0.335063
-0.317314
-0.299585
-0.282362
-0.265956
-0.250535
-0.236154
-0.222805
-0.210444
-0.199014
-0.188449
-0.178688
-0.169669
-0.161337
-0.153625
-0.146527
-0.139964
-0.440821
-0.429576
-0.420852
-0.411106
-0.399633
-0.386183
-0.370652
-0.353348
-0.334892
-0.316007
-0.297343
-0.279373
-0.262383
-0.246505
-0.231767
-0.218138
-0.20556
-0.193964
-0.183276
-0.173428
-0.164354
-0.155993
-0.148275
-0.141199
-0.134633
-0.447639
-0.435998
-0.426921
-0.416586
-0.404204
-0.389555
-0.372645
-0.353938
-0.334189
-0.314202
-0.294646
-0.275975
-0.258441
-0.242141
-0.227076
-0.213194
-0.200423
-0.188682
-0.177892
-0.167976
-0.158864
-0.150489
-0.142782
-0.135739
-0.129183
-0.454095
-0.442096
-0.43266
-0.42169
-0.408324
-0.392398
-0.374059
-0.353936
-0.332917
-0.31187
-0.291471
-0.272148
-0.254113
-0.237428
-0.222067
-0.207961
-0.195021
-0.183159
-0.172287
-0.162324
-0.153193
-0.144821
-0.137141
-0.130144
-0.123614
-0.460096
-0.447781
-0.437978
-0.426322
-0.4119
-0.394632
-0.374827
-0.353293
-0.331039
-0.308985
-0.287798
-0.267873
-0.249381
-0.23235
-0.216728
-0.202426
-0.189346
-0.177387
-0.166457
-0.156466
-0.147336
-0.138986
-0.13135
-0.124411
-0.117923
-0.465548
-0.45296
-0.442779
-0.430387
-0.414842
-0.396176
-0.374888
-0.351962
-0.328522
-0.30552
-0.283606
-0.263134
-0.244232
-0.226895
-0.211046
-0.19658
-0.183387
-0.171359
-0.160394
-0.150398
-0.141288
-0.132979
-0.125406
-0.11854
-0.112112
-0.470353
-0.457538
-0.446966
-0.43379
-0.41706
-0.396957
-0.374184
-0.349904
-0.325336
-0.301453
-0.278876
-0.257912
-0.238648
-0.221047
-0.205009
-0.190413
-0.177137
-0.165066
-0.154092
-0.144115
-0.135047
-0.126798
-0.119306
-0.112527
-0.106179
-0.474412
-0.461417
-0.450442
-0.436433
-0.418469
-0.396905
-0.372663
-0.347078
-0.321452
-0.296761
-0.273588
-0.252192
-0.232618
-0.214796
-0.198607
-0.183915
-0.170589
-0.158505
-0.147547
-0.137614
-0.128609
-0.120441
-0.113048
-0.106375
-0.10013
-0.477628
-0.464499
-0.453107
-0.438224
-0.418986
-0.395953
-0.370275
-0.343451
-0.316846
-0.291426
-0.267727
-0.245959
-0.226127
-0.20813
-0.191831
-0.177081
-0.163737
-0.151669
-0.140756
-0.13089
-0.121971
-0.113904
-0.106629
-0.10008
-0.0939658
-0.479905
-0.466689
-0.454868
-0.439072
-0.418535
-0.394042
-0.366979
-0.338993
-0.311496
-0.285428
-0.261278
-0.239201
-0.219164
-0.201041
-0.184674
-0.169902
-0.156575
-0.144555
-0.133715
-0.123942
-0.115133
-0.107187
-0.100047
-0.093639
-0.0876752
-0.481148
-0.467894
-0.45563
-0.438893
-0.417044
-0.391119
-0.362738
-0.333678
-0.305381
-0.278754
-0.254226
-0.231906
-0.211721
-0.19352
-0.177128
-0.162375
-0.149101
-0.13716
-0.126423
-0.11677
-0.108093
-0.100289
-0.0933047
-0.0870471
-0.0812181
-0.481269
-0.468022
-0.455307
-0.437608
-0.414451
-0.387139
-0.357519
-0.327484
-0.298487
-0.271389
-0.246563
-0.224065
-0.203789
-0.185561
-0.16919
-0.154496
-0.141311
-0.129484
-0.118879
-0.109373
-0.100853
-0.0932138
-0.0864089
-0.0803134
-0.0745573
-0.480184
-0.466989
-0.453816
-0.435144
-0.410698
-0.382061
-0.351296
-0.320393
-0.2908
-0.263324
-0.238278
-0.215671
-0.195363
-0.177159
-0.160856
-0.146263
-0.133205
-0.121525
-0.111083
-0.101752
-0.093413
-0.0859635
-0.0793632
-0.0734496
-0.0677557
-0.477816
-0.464716
-0.451083
-0.431438
-0.405739
-0.375854
-0.34405
-0.312393
-0.28231
-0.25455
-0.229366
-0.206719
-0.186439
-0.168313
-0.152125
-0.137675
-0.124783
-0.113285
-0.103036
-0.0939093
-0.085777
-0.0785416
-0.0721622
-0.0664048
-0.0609362
-0.474092
-0.461132
-0.447039
-0.426435
-0.399534
-0.368492
-0.335765
-0.303474
-0.273012
-0.245064
-0.219822
-0.197205
-0.177016
-0.159022
-0.142997
-0.128734
-0.116046
-0.104766
-0.0947419
-0.0858498
-0.0779494
-0.0709513
-0.0648062
-0.059232
-0.0540295
-0.468953
-0.456173
-0.441629
-0.420088
-0.392052
-0.359958
-0.326433
-0.293632
-0.262904
-0.234864
-0.209647
-0.187131
-0.167093
-0.149286
-0.133474
-0.119442
-0.106997
-0.0959736
-0.0862079
-0.0775731
-0.0699329
-0.0631955
-0.0573032
-0.0519406
-0.0470171
-0.462344
-0.449785
-0.434801
-0.412361
-0.38327
-0.350242
-0.316051
-0.282867
-0.251985
-0.223952
-0.198843
-0.176499
-0.156675
-0.139111
-0.123561
-0.109806
-0.0976457
-0.086909
-0.0774351
-0.0690875
-0.0617328
-0.0552793
-0.0496606
-0.0445321
-0.0398979
-0.454222
-0.441923
-0.426519
-0.403228
-0.373177
-0.339341
-0.30462
-0.271184
-0.240263
-0.212332
-0.187414
-0.165313
-0.145766
-0.128501
-0.113265
-0.0998293
-0.0879939
-0.0775808
-0.0684299
-0.0603991
-0.0533552
-0.0472089
-0.0418845
-0.0370082
-0.0326773
-0.444554
-0.432553
-0.416755
-0.392673
-0.361766
-0.327257
-0.292149
-0.258591
-0.227744
-0.200013
-0.175366
-0.153582
-0.134376
-0.117466
-0.102591
-0.089521
-0.0780499
-0.0679968
-0.0592003
-0.0515151
-0.0448074
-0.0389914
-0.0339812
-0.0293732
-0.025362
-0.433317
-0.42165
-0.40549
-0.380689
-0.349043
-0.314003
-0.278651
-0.245102
-0.214442
-0.187004
-0.16271
-0.141321
-0.122515
-0.106014
-0.0915513
-0.0788903
-0.0678232
-0.0581657
-0.0497552
-0.0424438
-0.0360977
-0.0306345
-0.0259573
-0.0216333
-0.0179594
-0.420499
-0.409201
-0.392718
-0.367279
-0.33502
-0.299595
-0.264144
-0.230735
-0.200371
-0.173321
-0.149471
-0.128533
-0.110194
-0.0941583
-0.0801563
-0.0679486
-0.0573245
-0.0480978
-0.0401043
-0.0331946
-0.027235
-0.022147
-0.0178209
-0.0137961
-0.0104771
-0.4061
-0.395204
-0.378443
-0.352457
-0.319717
-0.284058
-0.248653
-0.21551
-0.185554
-0.15899
-0.135653
-0.115241
-0.0974286
-0.0819127
-0.06842
-0.0567087
-0.0465661
-0.0378047
-0.0302589
-0.0237781
-0.0182294
-0.0135383
-0.00958068
-0.00587045
-0.00292363
-0.390128
-0.379667
-0.36268
-0.336246
-0.303163
-0.267421
-0.232206
-0.199454
-0.170019
-0.144025
-0.12128
-0.101462
-0.0842366
-0.0692937
-0.0563577
-0.0451851
-0.0355617
-0.0272992
-0.0202311
-0.0142059
-0.00909211
-0.00481882
-0.00124647
0.00213386
0.00469202
-0.372604
-0.36261
-0.345454
-0.318676
-0.285393
-0.249722
-0.214837
-0.182603
-0.153783
-0.128451
-0.106375
-0.0872184
-0.0706377
-0.0563198
-0.0439868
-0.033394
-0.0243265
-0.0165954
-0.0100342
-0.00449046
0.000165014
0.00400021
0.00717105
0.0102061
0.0123598
-0.35356
-0.344063
-0.326799
-0.299788
-0.266452
-0.231003
-0.196584
-0.164987
-0.136884
-0.112299
-0.0909653
-0.0725333
-0.0566541
-0.0430115
-0.0313261
-0.0213529
-0.0128767
-0.00570876
0.000317517
0.00535458
0.00952904
0.0129066
0.0156604
0.0183344
0.0200685
-0.333037
-0.324064
-0.306758
-0.279635
-0.246397
-0.211298
-0.17749
-0.146644
-0.119356
-0.0955982
-0.0750782
-0.0574331
-0.0423101
-0.0293911
-0.0183963
-0.00908087
-0.00122995
0.00534448
0.0108088
0.0153148
0.0189862
0.0218873
0.024209
0.0265057
0.0278058
-0.311085
-0.302662
-0.285388
-0.258282
-0.225279
-0.190653
-0.1576
-0.127617
-0.101237
-0.0783848
-0.0587456
-0.0419467
-0.027632
-0.0154828
-0.00521974
0.00340156
0.0105948
0.0165468
0.0214234
0.0253751
0.028522
0.0309285
0.0328031
0.0347046
0.0355571
-0.287761
-0.279917
-0.262754
-0.235786
-0.203102
-0.169174
-0.13697
-0.107953
-0.0825675
-0.0606955
-0.0420013
-0.0261049
-0.0126481
-0.00131265
0.00817993
0.0160726
0.0225775
0.02788
0.0321443
0.0355195
0.0381214
0.0400158
0.041428
0.042913
0.0433016
-0.263129
-0.255903
-0.238937
-0.212154
-0.180012
-0.146886
-0.115654
-0.0877012
-0.0633927
-0.0425706
-0.0248819
-0.00994083
0.00261129
0.0130918
0.0217774
0.0289092
0.0346972
0.0393245
0.042954
0.0457317
0.0477689
0.0491345
0.050069
0.0511117
0.0510121
-0.237262
-0.230701
-0.214012
-0.187478
-0.156058
-0.123858
-0.0937117
-0.0669142
-0.0437594
-0.0240525
-0.0074258
0.00651029
0.0181142
0.0277013
0.0355462
0.0418872
0.0469316
0.0508605
0.0538341
0.0559947
0.0574484
0.0582698
0.0587136
0.0592866
0.0586717
-0.210235
-0.204391
-0.18794
-0.161972
-0.131318
-0.100159
-0.0712042
-0.0456475
-0.0237175
-0.00518617
0.0103261
0.0232115
0.0338269
0.0424854
0.0494583
0.0549811
0.059258
0.0624669
0.0647658
0.066291
0.0671426
0.0674064
0.0673522
0.0674295
0.0662751
-0.18212
-0.177078
-0.160945
-0.135625
-0.105869
-0.0758636
-0.0481964
-0.0239592
-0.00331907
0.0139812
0.0283312
0.040124
0.0497143
0.0574119
0.0634847
0.0681646
0.0716523
0.0741226
0.0757296
0.0766022
0.0768344
0.0765315
0.0759754
0.075507
0.0737232
-0.153019
-0.148868
-0.133129
-0.108526
-0.0797946
-0.0510481
-0.0247558
-0.0019096
0.0173815
0.0334006
0.046545
0.0572075
0.0657398
0.0724477
0.0775953
0.0814105
0.0840901
0.0858055
0.086706
0.0869109
0.0865111
0.0856421
0.0845701
0.0834044
0.0807052
-0.123191
-0.119749
-0.104565
-0.0807763
-0.05318
-0.0257901
-0.000952159
0.0204388
0.0383279
0.0530212
0.0649215
0.0744203
0.0818655
0.0875585
0.091759
0.0946906
0.0965459
0.0974928
0.0976745
0.0972005
0.0961666
0.0947452
0.0931196
0.0909834
0.0869979
-0.0926357
-0.0898924
-0.0753496
-0.0524739
-0.0261147
-0.000169887
0.0231426
0.0430214
0.0594622
0.0727906
0.0834133
0.0917195
0.0980524
0.102709
0.105944
0.107976
0.108994
0.109161
0.108614
0.107455
0.105795
0.103837
0.101596
0.0983087
0.0932981
-0.0614383
-0.0594328
-0.0455902
-0.0237196
0.00130959
0.0257304
0.047455
0.0657724
0.080725
0.092655
0.101972
0.109061
0.114261
0.117863
0.120117
0.121237
0.121407
0.120785
0.119502
0.117656
0.115379
0.112875
0.109939
0.105573
0.101697
-0.0297229
-0.0284845
-0.0153969
0.00538343
0.0289991
0.0518267
0.0719098
0.0886243
0.102055
0.11256
0.120547
0.1264
0.13045
0.132983
0.134245
0.134443
0.133757
0.132341
0.130318
0.127786
0.124891
0.121804
0.118167
0.113205
0.110045
0.00238639
0.00283726
0.0151174
0.0347303
0.0568588
0.078034
0.0964308
0.111509
0.123392
0.132449
0.13909
0.14369
0.146578
0.148033
0.148294
0.147564
0.146017
0.143802
0.141038
0.137824
0.134308
0.130617
0.126343
0.120993
0.117937
0.0347662
0.0344145
0.0458379
0.0642148
0.0847927
0.104266
0.120941
0.134357
0.144672
0.152266
0.157547
0.160886
0.162604
0.162974
0.162229
0.160567
0.158158
0.155144
0.151639
0.147744
0.143604
0.13931
0.13446
0.128779
0.12555
0.0672921
0.0661273
0.0766491
0.0937303
0.112705
0.130437
0.145363
0.157098
0.165833
0.171955
0.17587
0.177942
0.178485
0.177768
0.176017
0.173423
0.170151
0.16634
0.162097
0.157525
0.152759
0.147869
0.14248
0.136453
0.13291
0.0998387
0.0978542
0.107435
0.12317
0.140498
0.15646
0.16962
0.179663
0.186812
0.191459
0.194005
0.194809
0.19418
0.192377
0.189621
0.186099
0.181969
0.177364
0.172389
0.167143
0.161755
0.156278
0.15037
0.143975
0.140043
0.132281
0.129473
0.13808
0.152427
0.168076
0.182249
0.193633
0.201983
0.207546
0.210719
0.211901
0.211443
0.209645
0.206762
0.203009
0.198564
0.193582
0.18819
0.18249
0.176576
0.170572
0.164519
0.158102
0.15132
0.146958
0.164493
0.160864
0.168468
0.181395
0.195344
0.207717
0.217326
0.223987
0.227972
0.229681
0.229507
0.227796
0.22484
0.220886
0.216144
0.210787
0.204962
0.198792
0.192376
0.185803
0.179189
0.17257
0.165653
0.158474
0.153656
0.19635
0.191903
0.198485
0.20997
0.222207
0.232781
0.240622
0.245607
0.248028
0.248288
0.246773
0.243822
0.239721
0.234711
0.228993
0.222736
0.216081
0.209145
0.202023
0.194802
0.187589
0.180414
0.173003
0.165423
0.160134
0.227731
0.222473
0.228018
0.238048
0.248571
0.257357
0.263447
0.266776
0.267654
0.266484
0.263648
0.259477
0.25425
0.2482
0.241523
0.234381
0.226911
0.219224
0.21141
0.203552
0.195751
0.188031
0.180136
0.172156
0.166388
0.258513
0.252456
0.256957
0.265529
0.274347
0.281362
0.285726
0.287426
0.286788
0.284215
0.280082
0.274715
0.268384
0.261316
0.2537
0.245693
0.237425
0.229003
0.220512
0.212032
0.203657
0.195405
0.187037
0.178661
0.17241
0.288578
0.281736
0.285193
0.292312
0.299444
0.304717
0.307388
0.307493
0.305372
0.301427
0.296028
0.289492
0.282084
0.274023
0.265492
0.256641
0.247596
0.238459
0.22931
0.220224
0.211289
0.202518
0.193691
0.184926
0.178193
0.31781
0.3102
0.31262
0.318302
0.323775
0.327343
0.328362
0.326912
0.323348
0.318069
0.311439
0.303767
0.295312
0.286286
0.276866
0.267197
0.257399
0.247567
0.23778
0.228107
0.21863
0.209357
0.200085
0.190941
0.18373
0.346096
0.33774
0.339135
0.343405
0.347258
0.349165
0.348579
0.345623
0.340661
0.33409
0.326268
0.317498
0.308031
0.298072
0.287793
0.277334
0.266807
0.256306
0.245903
0.235663
0.225662
0.215904
0.206205
0.196693
0.189012
0.373327
0.364249
0.364641
0.367532
0.369809
0.370109
0.367975
0.363566
0.357256
0.349441
0.340472
0.330645
0.320203
0.309348
0.298244
0.287024
0.275798
0.264654
0.253658
0.242875
0.232371
0.222147
0.212039
0.202172
0.19403
0.3994
0.389627
0.389043
0.390596
0.391353
0.390107
0.386485
0.380683
0.373083
0.364076
0.354009
0.343169
0.331796
0.320082
0.308188
0.296242
0.284348
0.272588
0.261028
0.249724
0.238739
0.228072
0.217573
0.207367
0.198778
0.424214
0.413777
0.412249
0.412515
0.411814
0.40909
0.40405
0.396921
0.388091
0.37795
0.366837
0.355035
0.342774
0.330245
0.3176
0.304963
0.292433
0.28009
0.267992
0.256195
0.244753
0.233664
0.222797
0.212267
0.203247
0.447674
0.436606
0.434175
0.43321
0.431122
0.426996
0.420612
0.412226
0.402234
0.39102
0.378918
0.366206
0.353108
0.339807
0.326453
0.313164
0.300035
0.28714
0.274536
0.262272
0.250399
0.238913
0.227698
0.216863
0.207429
0.46969
0.458028
0.454738
0.452608
0.449211
0.443765
0.436117
0.426551
0.415467
0.403246
0.390217
0.37665
0.362766
0.348743
0.334723
0.320823
0.307131
0.29372
0.280641
0.267941
0.255663
0.243805
0.232266
0.221144
0.211318
0.490178
0.477962
0.473864
0.470641
0.466019
0.45934
0.450515
0.43985
0.427748
0.41459
0.400698
0.386337
0.371721
0.357026
0.342388
0.327919
0.313705
0.299813
0.286293
0.273187
0.260534
0.248331
0.236492
0.225102
0.214906
0.50906
0.496331
0.491482
0.487243
0.481487
0.47367
0.463758
0.452079
0.43904
0.425018
0.41033
0.395237
0.379948
0.364633
0.349426
0.334433
0.319738
0.305404
0.291477
0.277998
0.264999
0.252479
0.240364
0.228728
0.218189
0.526265
0.513067
0.507527
0.502357
0.495564
0.486707
0.475803
0.4632
0.449307
0.434498
0.419085
0.403324
0.387422
0.371542
0.355817
0.340347
0.325214
0.310478
0.296182
0.282362
0.269049
0.25624
0.243876
0.232015
0.22116
0.541726
0.528105
0.52194
0.515929
0.5082
0.498407
0.486611
0.473177
0.458516
0.442999
0.426935
0.410575
0.394121
0.377735
0.361543
0.345646
0.33012
0.315022
0.300394
0.286269
0.272673
0.259605
0.247018
0.234955
0.223813
0.555385
0.541391
0.534669
0.527911
0.519353
0.508731
0.496147
0.481978
0.466639
0.450497
0.433857
0.416967
0.400027
0.383193
0.36659
0.350315
0.334441
0.319024
0.304103
0.289709
0.275864
0.262568
0.249783
0.237542
0.226145
0.567191
0.552872
0.545667
0.538261
0.528984
0.517645
0.504379
0.489575
0.473649
0.456967
0.439829
0.422482
0.405121
0.3879
0.370942
0.35434
0.338166
0.322474
0.307301
0.292674
0.278613
0.26512
0.252165
0.239769
0.228151
0.577098
0.562507
0.554894
0.546942
0.537061
0.525119
0.511281
0.495944
0.479526
0.462389
0.444834
0.427103
0.409389
0.391844
0.374587
0.357712
0.341286
0.325363
0.309977
0.295155
0.280914
0.267256
0.254159
0.241634
0.229828
0.585069
0.570258
0.562316
0.553924
0.543556
0.531129
0.516829
0.501063
0.484249
0.466747
0.448857
0.430817
0.412819
0.395012
0.377516
0.36042
0.343793
0.327683
0.312127
0.297148
0.282762
0.268971
0.25576
0.24313
0.231174
0.591074
0.576097
0.567907
0.559181
0.548446
0.535654
0.521007
0.504918
0.487804
0.470028
0.451885
0.433612
0.4154
0.397397
0.37972
0.362458
0.345678
0.329429
0.313744
0.298647
0.284151
0.27026
0.256963
0.244255
0.232185
0.59509
0.580002
0.571645
0.562697
0.551716
0.538679
0.523799
0.507494
0.490181
0.472221
0.453908
0.43548
0.417124
0.39899
0.381193
0.36382
0.346938
0.330595
0.314824
0.299648
0.28508
0.271122
0.257767
0.245006
0.232859
0.597101
0.581959
0.573518
0.564458
0.553354
0.540194
0.525198
0.508784
0.491371
0.473319
0.454921
0.436415
0.417988
0.399788
0.38193
0.364502
0.347569
0.331179
0.315365
0.30015
0.285544
0.271553
0.25817
0.245383
0.233197
0.597101
0.581959
0.573518
0.564458
0.553354
0.540194
0.525198
0.508784
0.491371
0.473319
0.454921
0.436415
0.417988
0.399788
0.38193
0.364502
0.347569