/*--------------------------------*- C++ -*----------------------------------*\
  =========                 |
  \\      /  F ield         | OpenFOAM: The Open Source CFD Toolbox
   \\    /   O peration     | Website:  https://openfoam.org
    \\  /    A nd           | Version:  7
     \\/     M anipulation  |
\*---------------------------------------------------------------------------*/
FoamFile
{
    version     2.0;
    format      ascii;
    class       volVectorField;
    location    "25";
    object      U;
}
// * * * * * * * * * * * * * * * * * * * * * * * * * * * * * * * * * * * * * //

dimensions      [0 1 -1 0 0 0 0];

internalField   nonuniform List<vector> 
31800
(
(-0.00052938 0.000523247 -9.80215e-21)
(-0.00327897 0.00131333 6.76714e-21)
(-0.0087756 0.00190201 -2.20375e-21)
(-0.0158825 0.00233018 9.78446e-21)
(-0.0241591 0.00262629 1.09257e-20)
(-0.0332424 0.0028154 -3.57857e-21)
(-0.042814 0.0029195 -2.58548e-21)
(-0.0526262 0.00295738 1.8278e-20)
(-0.0624877 0.00294486 -2.081e-21)
(-0.0722535 0.00289486 2.98785e-21)
(-0.0818161 0.00281757 1.02426e-20)
(-0.0910972 0.0027206 1.00243e-20)
(-0.10004 0.00260929 -6.32576e-21)
(-0.1086 0.00248699 -7.85646e-21)
(-0.116744 0.00235554 -2.68042e-22)
(-0.124441 0.00221577 -1.00128e-20)
(-0.13166 0.00206812 7.77162e-21)
(-0.138373 0.00191345 1.30882e-20)
(-0.144557 0.00175401 -4.88907e-21)
(-0.150198 0.0015946 2.21319e-20)
(-0.155303 0.00144372 1.39998e-21)
(-0.159918 0.00131464 -1.78242e-21)
(-0.164144 0.00122412 3.88791e-21)
(-0.168112 0.00118702 7.90337e-21)
(-0.172069 0.00123008 4.90763e-21)
(-0.000579626 0.00156409 1.00921e-20)
(-0.00339114 0.00392689 5.52167e-21)
(-0.00891023 0.00568836 -5.94435e-21)
(-0.016013 0.00697021 -2.25803e-20)
(-0.0242642 0.00785719 1.66669e-20)
(-0.0333052 0.00842404 -8.15339e-21)
(-0.0428205 0.00873645 4.49188e-22)
(-0.0525647 0.00885057 -1.40179e-20)
(-0.062348 0.00881366 2.92157e-21)
(-0.0720262 0.00866444 1.98397e-21)
(-0.0814925 0.00843342 -4.30073e-20)
(-0.0906688 0.00814344 -7.25856e-22)
(-0.0994978 0.00781048 4.80746e-20)
(-0.107936 0.00744465 -2.41551e-20)
(-0.115948 0.00705147 -4.5723e-21)
(-0.123503 0.00663337 9.93785e-21)
(-0.13057 0.00619161 -2.08588e-20)
(-0.13712 0.00572857 -1.0422e-21)
(-0.143125 0.00525068 2.05569e-20)
(-0.14857 0.00477189 -7.52984e-20)
(-0.153456 0.0043173 -2.3318e-20)
(-0.157822 0.00392652 3.52275e-20)
(-0.161766 0.00365047 1.73518e-20)
(-0.165405 0.00353539 3.08181e-21)
(-0.168973 0.0036629 -6.97759e-21)
(-0.00067923 0.00258888 -2.09171e-20)
(-0.00361371 0.00650322 -5.72376e-22)
(-0.00917756 0.00942448 -2.84148e-20)
(-0.0162721 0.0115523 4.2381e-20)
(-0.0244732 0.0130262 -4.79795e-20)
(-0.0334298 0.0139694 -4.48225e-21)
(-0.042833 0.0144902 -4.35247e-21)
(-0.0524417 0.0146816 7.95479e-21)
(-0.0620689 0.0146219 2.63249e-20)
(-0.0715724 0.0143755 -4.46938e-21)
(-0.0808463 0.0139928 -7.88389e-21)
(-0.0898128 0.0135121 2.83926e-20)
(-0.0984145 0.0129599 -4.99743e-21)
(-0.106608 0.0123532 2.75729e-20)
(-0.114356 0.0117012 -5.57783e-20)
(-0.121627 0.0110077 -2.27873e-20)
(-0.128389 0.0102747 3.67041e-21)
(-0.134609 0.00950536 -7.46212e-20)
(-0.140257 0.00870944 2.03668e-20)
(-0.145309 0.00790875 4.58667e-20)
(-0.149757 0.00714367 -2.89483e-20)
(-0.153627 0.00647942 -6.96016e-20)
(-0.157009 0.00600278 -3.46987e-20)
(-0.159993 0.00579651 -6.47086e-20)
(-0.162779 0.00600094 -3.5376e-20)
(-0.000826455 0.00358731 9.74043e-21)
(-0.00394318 0.00901832 -1.62248e-20)
(-0.00957384 0.0130778 5.1615e-20)
(-0.0166568 0.0160389 -4.12891e-20)
(-0.0247835 0.018093 -1.07497e-20)
(-0.033615 0.0194097 -2.85555e-21)
(-0.0428512 0.0201389 3.37822e-20)
(-0.0522576 0.0204093 2.39474e-20)
(-0.0616515 0.0203294 -4.22928e-20)
(-0.0708934 0.0199888 1.77278e-20)
(-0.0798788 0.019458 1.0833e-21)
(-0.0885306 0.0187902 -7.98565e-20)
(-0.096791 0.0180228 -2.62054e-20)
(-0.104615 0.0171795 2.12419e-21)
(-0.111967 0.0162733 1.74612e-20)
(-0.11881 0.0153095 7.95424e-20)
(-0.125112 0.01429 8.81888e-21)
(-0.130836 0.0132182 7.53035e-20)
(-0.135946 0.0121056 7.51733e-20)
(-0.140408 0.0109797 -9.2698e-21)
(-0.144199 0.00989396 3.37663e-20)
(-0.147328 0.0089375 -1.29124e-20)
(-0.14987 0.00823521 4.28259e-20)
(-0.151879 0.00791492 1.42715e-19)
(-0.153484 0.00818157 2.22752e-20)
(-0.00101877 0.00454963 1.65702e-20)
(-0.00437443 0.0114493 -6.02642e-20)
(-0.0100936 0.0166172 7.77505e-20)
(-0.017162 0.0203935 2.86524e-20)
(-0.0251916 0.0230181 2.24554e-20)
(-0.0338583 0.0247044 2.38799e-20)
(-0.0428741 0.0256417 -1.27011e-19)
(-0.0520126 0.0259928 4.72221e-20)
(-0.0610968 0.0258961 4.91201e-20)
(-0.0699909 0.0254654 -7.2572e-20)
(-0.0785922 0.0247909 7.51392e-20)
(-0.0868241 0.023941 4.10862e-20)
(-0.0946285 0.0229636 5.08116e-20)
(-0.10196 0.0218896 -3.44143e-20)
(-0.108779 0.0207357 -7.63593e-21)
(-0.115049 0.0195085 1.67137e-19)
(-0.120733 0.0182096 -7.21565e-20)
(-0.12579 0.0168414 5.58968e-20)
(-0.130178 0.0154152 -1.35234e-19)
(-0.13385 0.0139615 -5.45306e-20)
(-0.136767 0.0125431 5.16954e-20)
(-0.13891 0.0112702 9.02904e-20)
(-0.140338 0.0103076 1.52996e-20)
(-0.141061 0.00983994 -1.1742e-19)
(-0.141073 0.0101431 -8.23439e-20)
(-0.00125291 0.00546689 -6.51847e-20)
(-0.0049009 0.013775 -2.10371e-20)
(-0.0107296 0.0200133 -4.61194e-20)
(-0.0177815 0.0245816 -4.46281e-20)
(-0.0256925 0.0277639 3.20125e-20)
(-0.0341568 0.029814 -5.7183e-20)
(-0.0429004 0.0309582 -3.7088e-20)
(-0.0517069 0.0313921 -1.84328e-19)
(-0.0604063 0.0312822 8.08431e-21)
(-0.0688671 0.0307661 -1.87425e-21)
(-0.0769888 0.0299534 -1.41292e-19)
(-0.0846954 0.0289272 -4.81829e-20)
(-0.0919283 0.0277464 -5.98534e-20)
(-0.09864 0.0264488 1.15778e-19)
(-0.104789 0.0250552 3.33885e-20)
(-0.110337 0.0235734 -9.11439e-20)
(-0.115242 0.0220045 -1.0167e-19)
(-0.119457 0.0203486 2.81928e-20)
(-0.122932 0.0186148 1.11589e-19)
(-0.12561 0.016833 -2.41386e-20)
(-0.12743 0.0150707 -1.4585e-20)
(-0.128345 0.0134543 -6.87532e-20)
(-0.128387 0.0121882 -8.66632e-20)
(-0.127525 0.0115286 7.08343e-20)
(-0.12551 0.0118259 4.79739e-20)
(-0.00152504 0.00633111 3.38452e-20)
(-0.00551473 0.0159762 3.97842e-20)
(-0.0114734 0.0232391 -3.13697e-20)
(-0.0185076 0.028571 -6.48593e-20)
(-0.0262805 0.0322946 1.00945e-20)
(-0.0345066 0.0347007 7.60723e-20)
(-0.0429281 0.0360497 1.0933e-19)
(-0.0513403 0.0365678 1.49275e-19)
(-0.0595812 0.0364484 2.60327e-20)
(-0.067524 0.035852 3.43825e-20)
(-0.0750709 0.034907 4.17183e-20)
(-0.0821465 0.0337111 1.59678e-19)
(-0.0886911 0.0323341 -9.20659e-21)
(-0.0946551 0.0308212 -2.04788e-19)
(-0.0999945 0.0291972 1.47584e-19)
(-0.104666 0.0274716 5.86672e-20)
(-0.108623 0.0256443 1.85848e-19)
(-0.111815 0.0237125 -7.60285e-20)
(-0.114181 0.0216809 -8.75702e-20)
(-0.115652 0.0195752 2.49767e-19)
(-0.116146 0.0174619 -8.39093e-20)
(-0.115582 0.0154759 -1.28074e-19)
(-0.113962 0.013857 -3.42202e-20)
(-0.111236 0.0129501 -1.07583e-19)
(-0.106724 0.0131725 1.79221e-20)
(-0.0018308 0.00713543 8.4193e-21)
(-0.00620706 0.0180359 -1.6529e-20)
(-0.0123152 0.0262705 3.37164e-21)
(-0.0193316 0.0323322 -1.18118e-19)
(-0.0269486 0.0365771 -9.1646e-20)
(-0.034903 0.0393288 -1.72997e-20)
(-0.0429549 0.0408786 -4.46839e-20)
(-0.0509124 0.0414814 -8.12918e-20)
(-0.0586222 0.0413558 -1.83147e-20)
(-0.0659631 0.0406842 -9.07362e-21)
(-0.0728403 0.039613 -8.60974e-20)
(-0.0791784 0.0382545 3.72237e-20)
(-0.0849164 0.0366892 2.80145e-20)
(-0.0900019 0.0349699 1.50391e-19)
(-0.0943866 0.033126 -3.06843e-21)
(-0.0980225 0.0311686 -9.09723e-20)
(-0.100858 0.0290967 -9.89387e-21)
(-0.102834 0.0269042 3.9319e-20)
(-0.103881 0.0245896 1.61208e-19)
(-0.103919 0.0221706 -1.19711e-19)
(-0.102845 0.0197065 3.15211e-19)
(-0.100543 0.0173313 1.31434e-19)
(-0.0969734 0.0153102 -9.92206e-20)
(-0.0921245 0.0140934 1.91762e-19)
(-0.0845906 0.0141304 1.11248e-19)
(-0.00216552 0.00787426 1.03062e-20)
(-0.00696821 0.0199399 5.22288e-20)
(-0.0132443 0.0290863 1.48078e-19)
(-0.0202436 0.0358386 1.84457e-19)
(-0.0276889 0.0405808 1.09639e-19)
(-0.0353404 0.0436646 -7.69318e-20)
(-0.0429773 0.0454094 1.87287e-19)
(-0.0504214 0.0460959 2.12214e-20)
(-0.0575291 0.0459665 -1.11779e-19)
(-0.0641851 0.0452242 1.22782e-20)
(-0.0702973 0.0440328 2.07198e-19)
(-0.0757905 0.0425186 -2.21344e-19)
(-0.0806015 0.0407731 -1.26327e-19)
(-0.0846741 0.0388568 -2.5655e-20)
(-0.0879548 0.0368039 -2.07051e-19)
(-0.0903889 0.034628 -1.34909e-19)
(-0.0919176 0.0323274 2.39127e-20)
(-0.0924739 0.0298924 -2.80868e-19)
(-0.0919788 0.0273148 2.80904e-20)
(-0.0903377 0.0246014 -1.34347e-19)
(-0.0874333 0.0217978 -1.6634e-19)
(-0.0831118 0.0190272 1.54866e-19)
(-0.0772757 0.0165624 1.74044e-19)
(-0.0700794 0.0149745 -1.35398e-19)
(-0.0589285 0.0146791 1.8621e-19)
(-0.00252432 0.00854333 -1.23937e-19)
(-0.00778803 0.0216766 9.08514e-20)
(-0.0142493 0.0316689 -6.64294e-21)
(-0.0212329 0.0390674 3.63008e-20)
(-0.0284924 0.0442783 3.43459e-20)
(-0.0358119 0.0476774 1.541e-19)
(-0.0429905 0.0496085 -1.11803e-19)
(-0.0498645 0.0503759 -2.08334e-19)
(-0.0563001 0.0502437 1.0434e-19)
(-0.0621885 0.0494342 9.73612e-20)
(-0.06744 0.048128 -3.28611e-19)
(-0.0719793 0.0464649 2.31021e-19)
(-0.0757401 0.044547 3.50651e-19)
(-0.0786611 0.042443 2.38873e-20)
(-0.0806819 0.0401925 -6.18071e-20)
(-0.0817395 0.0378119 1.77372e-19)
(-0.0817655 0.0352997 -8.17841e-20)
(-0.0806828 0.0326434 3.66265e-19)
(-0.0784007 0.0298278 -3.22858e-19)
(-0.0748113 0.0268475 5.86869e-20)
(-0.0697818 0.0237298 -3.04528e-20)
(-0.06313 0.0205774 -9.90294e-20)
(-0.0546549 0.0176391 -9.60306e-20)
(-0.0449047 0.0156 7.90775e-20)
(-0.0295261 0.0149413 2.03344e-20)
(-0.0029023 0.0091398 8.09294e-20)
(-0.00865614 0.0232376 -5.82378e-20)
(-0.0153184 0.034004 4.80805e-20)
(-0.0222882 0.0419991 -1.61989e-19)
(-0.0293493 0.0476456 -3.58063e-20)
(-0.0363097 0.0513392 1.81934e-20)
(-0.0429885 0.0534448 -4.11682e-20)
(-0.0492368 0.0542877 -6.81214e-20)
(-0.0549313 0.0541518 2.14204e-20)
(-0.0599691 0.0532775 -1.13794e-19)
(-0.0642631 0.0518609 2.12137e-19)
(-0.067737 0.0500548 -4.87455e-20)
(-0.0703205 0.0479721 -1.24525e-19)
(-0.0719455 0.0456895 -1.27437e-19)
(-0.0725426 0.0432526 1.68708e-19)
(-0.0720382 0.0406813 9.14069e-20)
(-0.0703515 0.0379755 3.63845e-20)
(-0.0673919 0.035121 -3.05389e-19)
(-0.0630545 0.0320969 3.18234e-19)
(-0.0572161 0.0288858 -1.03956e-19)
(-0.0497273 0.025494 -4.83781e-20)
(-0.0403958 0.0219969 -3.74668e-20)
(-0.0288447 0.0185721 -4.152e-20)
(-0.0162102 0.0158767 1.33823e-19)
(0.00384816 0.0152102 -2.18868e-19)
(-0.00329467 0.00966224 -3.00727e-20)
(-0.00956222 0.0246174 1.29891e-19)
(-0.0164396 0.0360813 -1.857e-19)
(-0.0233976 0.0446182 7.44639e-20)
(-0.0302487 0.0506623 4.10661e-20)
(-0.0368242 0.0546253 -6.22283e-20)
(-0.042963 0.0568899 1.81309e-19)
(-0.048531 0.0578 4.40475e-20)
(-0.0534151 0.0576573 2.06272e-20)
(-0.0575186 0.0567187 1.7796e-19)
(-0.0607563 0.0551947 -7.29223e-20)
(-0.0630498 0.0532509 7.71119e-20)
(-0.0643234 0.0510102 -8.19815e-20)
(-0.0645005 0.0485576 -5.19793e-21)
(-0.0635002 0.0459452 -8.93579e-20)
(-0.061235 0.0431973 -3.09136e-19)
(-0.0576084 0.0403164 6.36677e-20)
(-0.0525119 0.0372882 2.46769e-19)
(-0.0458227 0.0340883 -8.51402e-20)
(-0.0373985 0.0306897 4.11817e-19)
(-0.0270679 0.0270773 -2.28418e-19)
(-0.0146616 0.0232926 -6.52834e-20)
(0.000395309 0.0194393 -1.09677e-19)
(0.0164855 0.0160549 3.39948e-21)
(0.0418495 0.0153007 -9.81262e-20)
(-0.0036969 0.0101106 -9.00016e-20)
(-0.0104962 0.0258134 -1.33901e-19)
(-0.0176007 0.037894 -7.18984e-20)
(-0.0245484 0.046913 6.76001e-20)
(-0.0311784 0.0533119 2.11087e-20)
(-0.0373439 0.0575145 1.21928e-20)
(-0.0429029 0.0599186 4.66076e-20)
(-0.0477359 0.0608841 -2.27048e-19)
(-0.0517397 0.0607288 7.50595e-20)
(-0.0548231 0.0597243 -1.55464e-19)
(-0.0569019 0.0580948 -5.63453e-20)
(-0.0578947 0.0560172 -7.6069e-20)
(-0.0577187 0.0536246 -1.61068e-19)
(-0.0562861 0.0510104 3.31054e-19)
(-0.0535017 0.0482333 1.87775e-19)
(-0.0492605 0.0453229 5.05033e-20)
(-0.0434457 0.0422857 1.57591e-19)
(-0.0359263 0.0391093 -2.28089e-19)
(-0.0265558 0.0357688 -5.62092e-20)
(-0.0151695 0.0322314 -2.67649e-19)
(-0.00156353 0.028465 1.0316e-19)
(0.0143902 0.0244873 2.26851e-19)
(0.0335277 0.0203146 1.03727e-19)
(0.053389 0.0164316 -1.95852e-19)
(0.0852388 0.0150806 2.44755e-19)
(-0.00410489 0.0104862 -3.2051e-20)
(-0.0114487 0.0268261 8.35949e-21)
(-0.0187898 0.0394389 9.10684e-20)
(-0.0257278 0.0488758 1.62555e-19)
(-0.032125 0.0555816 -1.08798e-19)
(-0.037855 0.0599894 1.04895e-19)
(-0.042794 0.0625091 -8.22952e-20)
(-0.046836 0.0635147 3.10923e-19)
(-0.0498872 0.0633379 -2.17936e-19)
(-0.051861 0.0622638 4.68827e-20)
(-0.0526732 0.0605287 2.0229e-19)
(-0.0522376 0.0583205 -2.79025e-20)
(-0.050462 0.0557819 2.17209e-20)
(-0.0472449 0.0530143 -2.69119e-19)
(-0.042473 0.0500835 -2.28073e-19)
(-0.0360196 0.0470255 -8.70441e-21)
(-0.0277426 0.0438518 -2.51219e-19)
(-0.017483 0.0405543 9.19236e-20)
(-0.00506383 0.0371106 -1.28023e-19)
(0.00970605 0.0334876 1.67543e-19)
(0.0270818 0.0296444 -2.26219e-19)
(0.0470916 0.0255887 1.35892e-19)
(0.0710575 0.0212175 -1.13567e-19)
(0.0949569 0.0170167 1.53851e-19)
(0.13463 0.014975 -8.9317e-21)
(-0.00451502 0.0107915 1.75676e-19)
(-0.0124109 0.0276583 4.45426e-20)
(-0.0199953 0.0407165 -1.00843e-19)
(-0.026922 0.0505028 -1.21017e-19)
(-0.0330734 0.0574628 8.16629e-20)
(-0.038341 0.0620362 -2.99369e-19)
(-0.0426175 0.0646433 4.26709e-19)
(-0.0458097 0.0656698 8.29863e-20)
(-0.0478319 0.0654598 1.37552e-19)
(-0.0486011 0.0643101 1.68061e-19)
(-0.0480312 0.062468 1.05911e-19)
(-0.0460291 0.0601317 -7.9355e-20)
(-0.0424904 0.0574526 -2.67174e-21)
(-0.0372965 0.0545405 -3.88028e-20)
(-0.0303122 0.0514687 -1.15847e-19)
(-0.0213839 0.0482799 2.59598e-19)
(-0.010339 0.0449922 5.29292e-19)
(0.00301575 0.0416038 3.15517e-20)
(0.0188944 0.0380982 1.82648e-19)
(0.0375164 0.0344469 -9.50034e-20)
(0.0592179 0.0306096 1.15139e-19)
(0.0838281 0.0265902 -6.7588e-19)
(0.113491 0.0222151 3.21013e-19)
(0.141681 0.0178438 1.98228e-19)
(0.190681 0.0153249 -1.32056e-19)
(-0.00492427 0.01103 -1.05331e-19)
(-0.0133749 0.0283155 -1.81051e-19)
(-0.0212058 0.0417303 1.7367e-19)
(-0.0281168 0.0517938 1.13759e-19)
(-0.0340064 0.0589505 6.11464e-20)
(-0.0387813 0.0636455 2.16486e-19)
(-0.0423493 0.0663073 -2.24651e-19)
(-0.0446281 0.0673318 -2.07145e-19)
(-0.0455389 0.0670737 -1.35972e-19)
(-0.0449999 0.0658404 -3.19222e-19)
(-0.0429214 0.063889 6.1717e-20)
(-0.0392005 0.0614267 -2.51735e-20)
(-0.0337173 0.0586139 4.54932e-19)
(-0.0263319 0.0555681 1.87332e-19)
(-0.0168824 0.0523707 1.34654e-19)
(-0.00518341 0.049072 -4.23153e-20)
(0.00897422 0.0456981 -2.42592e-19)
(0.0258233 0.0422556 -1.96471e-19)
(0.0456217 0.0387368 -2.29895e-19)
(0.0686131 0.0351213 1.64637e-19)
(0.0952559 0.0313827 3.10411e-19)
(0.125029 0.0275078 3.47221e-19)
(0.161354 0.0233846 -3.27339e-19)
(0.194012 0.0189749 1.41025e-19)
(0.253973 0.0164168 1.89346e-19)
(-0.00533028 0.0112063 -2.77281e-19)
(-0.0143336 0.0288052 1.54334e-19)
(-0.0224101 0.0424868 -2.63183e-19)
(-0.0292969 0.0527519 3.23392e-19)
(-0.0349041 0.060044 -3.09048e-19)
(-0.0391514 0.064812 -9.25046e-20)
(-0.041959 0.0674917 -1.72344e-19)
(-0.0432536 0.0684878 9.69107e-20)
(-0.0429611 0.0681643 -1.65916e-19)
(-0.0409989 0.0668377 1.81462e-19)
(-0.0372706 0.0647741 -2.37999e-19)
(-0.0316598 0.0621891 -1.76533e-19)
(-0.0240273 0.0592511 6.13504e-21)
(-0.0142069 0.0560863 -2.70996e-19)
(-0.00200485 0.0527839 5.74038e-21)
(0.0128017 0.0494035 -2.74289e-19)
(0.0304636 0.0459803 -1.68199e-20)
(0.0512576 0.0425312 -2.99204e-19)
(0.0754904 0.0390607 1.0459e-19)
(0.103416 0.0355576 4.55343e-19)
(0.135667 0.0320308 -4.38068e-19)
(0.171159 0.0283923 2.15194e-19)
(0.215155 0.0248393 2.36438e-19)
(0.252339 0.0204711 -1.13466e-19)
(0.324851 0.0185159 4.55799e-20)
(-0.00573131 0.0113253 1.43697e-19)
(-0.0152807 0.0291364 -4.05439e-20)
(-0.0235972 0.0429947 8.92387e-20)
(-0.0304455 0.0533837 -2.60146e-19)
(-0.0357437 0.060746 4.16802e-19)
(-0.0394211 0.0655346 2.71815e-20)
(-0.0414079 0.0681918 3.01259e-19)
(-0.0416374 0.0691303 -1.57154e-19)
(-0.0400374 0.0687221 1.06499e-19)
(-0.0365215 0.0672919 1.401e-19)
(-0.0309826 0.0651137 1.28442e-19)
(-0.0232869 0.0624111 4.06357e-19)
(-0.0132705 0.0593608 -1.02846e-19)
(-0.000735859 0.0560973 -1.03557e-19)
(0.0145485 0.0527192 -8.11101e-20)
(0.0328481 0.0492958 -7.19181e-21)
(0.0544596 0.0458739 -1.70754e-19)
(0.0797051 0.0424825 1.50817e-19)
(0.108942 0.039142 -2.02397e-19)
(0.142408 0.0358462 8.30911e-20)
(0.180963 0.0326782 -1.18061e-19)
(0.222701 0.0293463 1.52165e-20)
(0.275308 0.0267486 -5.53724e-19)
(0.316956 0.0224217 5.90242e-20)
(0.403246 0.0218462 -1.84002e-21)
(-0.00612629 0.0113928 1.91519e-19)
(-0.0162108 0.0293195 -1.29237e-19)
(-0.0247555 0.0432648 -9.10826e-20)
(-0.0315441 0.0536981 -5.50629e-20)
(-0.0364983 0.0610628 -1.80217e-19)
(-0.039554 0.0658165 -3.04082e-19)
(-0.0406483 0.0684082 -9.92611e-20)
(-0.0397184 0.0692577 3.39529e-19)
(-0.0366903 0.0687446 -1.0604e-19)
(-0.0314699 0.0672007 -2.29207e-19)
(-0.0239349 0.0649076 -1.3844e-19)
(-0.013929 0.0620968 -4.15543e-19)
(-0.00125766 0.0589531 -4.527e-19)
(0.0143137 0.0556203 3.40059e-19)
(0.0330597 0.0522073 6.99544e-20)
(0.0552929 0.0487954 5.59098e-20)
(0.0813575 0.0454444 5.84631e-19)
(0.111617 0.0421977 8.89882e-20)
(0.146473 0.0390957 5.61026e-19)
(0.18611 0.036126 -6.72145e-19)
(0.231648 0.0335088 3.14348e-19)
(0.280105 0.03054 -2.84318e-19)
(0.342019 0.0293307 4.45923e-19)
(0.387996 0.0249881 -6.6959e-19)
(0.4885 0.0265712 1.39375e-19)
(-0.00651467 0.0114144 -4.85774e-20)
(-0.0171187 0.0293653 -1.03201e-19)
(-0.025873 0.0433094 -9.50893e-20)
(-0.0325717 0.0537066 3.23824e-20)
(-0.0371363 0.0610039 -5.10203e-20)
(-0.039506 0.0656653 1.92507e-19)
(-0.0396217 0.0681467 -6.89371e-20)
(-0.0374205 0.0688751 -1.45527e-19)
(-0.0328229 0.0682371 -5.96029e-20)
(-0.0257221 0.0665716 3.00285e-21)
(-0.015975 0.0641673 3.82165e-19)
(-0.00339674 0.0612636 -3.35325e-19)
(0.0122438 0.0580546 4.87721e-19)
(0.0312243 0.0546942 -1.4116e-19)
(0.0538669 0.0513036 -2.45754e-19)
(0.0805326 0.0479775 2.03552e-19)
(0.11161 0.0447914 -2.2329e-19)
(0.147492 0.0418047 -3.77343e-19)
(0.188609 0.0390829 -1.40601e-19)
(0.235034 0.036586 1.32217e-19)
(0.288138 0.0347558 2.11151e-19)
(0.343697 0.0322182 4.09688e-19)
(0.415136 0.0328146 2.37855e-20)
(0.465299 0.028421 2.83431e-19)
(0.579208 0.0327775 -9.19875e-20)
(-0.00689632 0.0113957 -2.37923e-20)
(-0.0179997 0.0292849 2.25749e-19)
(-0.0269366 0.0431416 2.33154e-19)
(-0.0335042 0.0534224 -1.04567e-19)
(-0.0376205 0.060582 7.34415e-20)
(-0.0392246 0.0650927 -2.73105e-19)
(-0.0382573 0.0674188 5.43628e-20)
(-0.0346515 0.0679946 4.38953e-20)
(-0.0283173 0.0672139 -1.27985e-19)
(-0.0191292 0.0654227 -3.52502e-20)
(-0.00691745 0.0629171 -4.79024e-19)
(0.00853844 0.0599453 1.52443e-19)
(0.0275121 0.0567114 -2.30081e-20)
(0.0503292 0.0533816 -5.41935e-21)
(0.0773612 0.0500909 -2.21369e-20)
(0.109014 0.0469501 -4.38083e-21)
(0.14571 0.0440523 -1.95554e-20)
(0.187848 0.0414731 2.61846e-19)
(0.235845 0.0393081 -2.32714e-19)
(0.289612 0.0374604 2.11994e-19)
(0.350659 0.0366759 -3.12626e-19)
(0.413553 0.0346904 -1.50644e-19)
(0.49401 0.0373894 4.34613e-20)
(0.548238 0.033023 -2.42886e-19)
(0.673156 0.0404553 -7.93914e-20)
(-0.00727138 0.0113422 -2.25842e-19)
(-0.0188484 0.029089 -2.84475e-20)
(-0.0279313 0.0427746 -2.88006e-19)
(-0.0343139 0.05286 -2.31551e-19)
(-0.0379073 0.0598122 3.06879e-19)
(-0.0386472 0.0641148 2.10304e-19)
(-0.0364705 0.0662419 -9.28636e-20)
(-0.0313009 0.0666363 -8.32095e-20)
(-0.0230322 0.0656993 -6.20147e-20)
(-0.0115138 0.0637846 5.35907e-19)
(0.00345796 0.0611968 2.06222e-19)
(0.0221454 0.0581938 2.91313e-19)
(0.0448702 0.0549918 -1.61214e-20)
(0.072008 0.051771 5.6618e-20)
(0.103977 0.0486827 1.56923e-19)
(0.141217 0.0458557 -3.68119e-19)
(0.184159 0.0434017 5.81641e-19)
(0.233166 0.041411 6.14704e-20)
(0.288584 0.040011 -1.8954e-19)
(0.350093 0.0390188 -2.86133e-19)
(0.419122 0.039517 -1.54707e-19)
(0.489329 0.0382935 3.44878e-19)
(0.577405 0.0431647 -1.13841e-20)
(0.635531 0.0390602 1.80684e-19)
(0.767414 0.0494704 2.17604e-19)
(-0.00764002 0.0112585 1.72258e-19)
(-0.0196592 0.0287876 1.80374e-20)
(-0.0288399 0.0422215 -3.8849e-20)
(-0.0349681 0.0520349 4.08995e-20)
(-0.0379453 0.058712 -2.91806e-19)
(-0.0377005 0.0627516 3.88821e-19)
(-0.0341621 0.0646393 -9.24078e-22)
(-0.027239 0.064828 3.17162e-19)
(-0.0168019 0.0637279 1.35357e-20)
(-0.00266846 0.0617011 -1.08732e-19)
(0.015406 0.0590624 1.71319e-19)
(0.0377315 0.0560813 -5.7569e-19)
(0.0646806 0.0529879 -3.5518e-19)
(0.0966768 0.049979 -1.77112e-19)
(0.134173 0.0472242 -7.64341e-20)
(0.17762 0.044871 6.91824e-21)
(0.227417 0.0430489 -3.77227e-19)
(0.283832 0.0418577 1.43391e-19)
(0.347037 0.0414503 5.51458e-19)
(0.416429 0.0415436 1.51692e-19)
(0.493027 0.0434881 3.67232e-19)
(0.57011 0.0433232 -3.63188e-19)
(0.663513 0.0501539 -8.47155e-20)
(0.725133 0.0466571 -1.43771e-19)
(0.858631 0.0595381 -7.61284e-19)
(-0.0080022 0.0111486 -1.61391e-19)
(-0.0204248 0.0283892 8.18733e-20)
(-0.029642 0.0414948 1.45646e-19)
(-0.035429 0.0509628 5.06641e-19)
(-0.0376752 0.057301 1.90866e-19)
(-0.0362997 0.0610267 -4.24032e-19)
(-0.0312171 0.0626404 -1.07027e-19)
(-0.0223158 0.0626066 -5.62101e-20)
(-0.00943634 0.0613457 -1.85245e-19)
(0.007643 0.0592308 -6.0713e-20)
(0.0292138 0.0565881 -1.25698e-19)
(0.0556376 0.0537014 4.59351e-19)
(0.087336 0.0508173 5.48863e-19)
(0.12477 0.0481509 2.76412e-19)
(0.168406 0.045891 -1.41228e-19)
(0.218664 0.0442029 -9.90668e-20)
(0.275849 0.0432291 2.18038e-19)
(0.340049 0.0430694 -4.92957e-20)
(0.411139 0.0438815 -3.6171e-21)
(0.488166 0.0452952 1.19876e-19)
(0.571384 0.0487383 -1.71824e-19)
(0.654311 0.0499507 -2.98209e-19)
(0.750048 0.058268 -1.9937e-19)
(0.814305 0.0557233 2.51934e-19)
(0.94347 0.0702234 8.00231e-19)
(-0.00835741 0.0110154 1.28791e-19)
(-0.0211363 0.0279007 4.38064e-19)
(-0.0303135 0.0406056 1.75275e-19)
(-0.0356524 0.0496596 -1.55365e-19)
(-0.0370285 0.0556001 2.16824e-19)
(-0.0343473 0.0589678 2.38968e-19)
(-0.0275047 0.0602806 2.68116e-19)
(-0.0163615 0.0600171 -1.50828e-20)
(-0.000721284 0.0586106 2.11174e-19)
(0.0196836 0.0564467 -6.50655e-19)
(0.0451961 0.0538663 3.6842e-19)
(0.0762284 0.0511698 -1.96073e-19)
(0.113243 0.0486222 -4.95994e-19)
(0.156717 0.0464585 -3.60475e-19)
(0.207091 0.0448854 5.8839e-19)
(0.264693 0.044081 -2.01932e-19)
(0.329648 0.0441906 -9.96117e-20)
(0.401754 0.045299 7.6839e-20)
(0.480449 0.0475308 -3.88681e-19)
(0.564357 0.0504652 3.16044e-19)
(0.652695 0.0553386 -5.10059e-20)
(0.739721 0.0581597 3.70644e-19)
(0.834445 0.0673095 4.29705e-19)
(0.899907 0.065944 -1.47212e-19)
(1.01908 0.0809837 -2.93074e-19)
(-0.00870439 0.0108609 -6.7138e-20)
(-0.0217821 0.027327 -2.48537e-19)
(-0.030826 0.0395637 6.52862e-21)
(-0.0355874 0.0481407 -1.25584e-19)
(-0.0359273 0.0536319 -3.70196e-19)
(-0.0317335 0.0566059 -1.91627e-19)
(-0.022878 0.0576013 1.05471e-19)
(-0.00918732 0.0571139 -3.29233e-19)
(0.00957868 0.0555921 2.59941e-20)
(0.0337383 0.0534375 1.62336e-19)
(0.0636863 0.0510082 -4.67023e-19)
(0.0998788 0.0486234 -1.53791e-19)
(0.142799 0.0465684 3.97296e-19)
(0.192906 0.0450967 2.68929e-19)
(0.250553 0.0444286 -3.48323e-19)
(0.315895 0.0447447 3.74553e-19)
(0.388764 0.0461752 1.56153e-19)
(0.468544 0.0487686 -3.93638e-20)
(0.554097 0.0525652 -3.39804e-20)
(0.643547 0.0571335 -3.35783e-19)
(0.735 0.0632613 3.70755e-20)
(0.82369 0.0677299 -6.32652e-20)
(0.914119 0.0769709 -3.36441e-19)
(0.978866 0.0768402 -2.47551e-19)
(1.08346 0.0912499 -2.30576e-19)
(-0.00904091 0.0106854 -4.22207e-20)
(-0.0223479 0.0266713 -5.52261e-19)
(-0.0311456 0.0383771 -3.4138e-19)
(-0.0351759 0.0464207 -4.35548e-19)
(-0.0342838 0.0514199 3.85229e-19)
(-0.0283361 0.0539752 3.10613e-20)
(-0.0171752 0.0546497 2.79653e-19)
(-0.000587438 0.0539595 -2.55912e-19)
(0.0217163 0.0523716 4.2623e-19)
(0.0501066 0.0503065 1.59897e-19)
(0.0850251 0.048142 1.30738e-20)
(0.126955 0.0462184 -2.51411e-20)
(0.176368 0.0448405 -8.88691e-20)
(0.233647 0.0442761 -7.73131e-20)
(0.298982 0.0447492 8.29217e-20)
(0.372242 0.0464261 1.17436e-19)
(0.452841 0.0493957 -7.4703e-19)
(0.539618 0.0536404 4.67972e-20)
(0.630765 0.0590639 -1.23535e-19)
(0.723844 0.065241 -1.14337e-19)
(0.816013 0.072361 5.75184e-20)
(0.90345 0.0782692 -3.7219e-19)
(0.986761 0.0868596 1.68998e-19)
(1.04866 0.0878809 2.14301e-19)
(1.13562 0.100518 -4.87359e-19)
(-0.00936334 0.0104887 9.86267e-20)
(-0.022816 0.0259344 3.99703e-19)
(-0.0312331 0.0370517 3.45018e-20)
(-0.0343521 0.0445141 6.32834e-19)
(-0.0320005 0.0489888 -4.01853e-19)
(-0.0240211 0.0511131 3.94004e-19)
(-0.0102214 0.0514786 -3.53507e-19)
(0.00965736 0.0506251 1.39353e-19)
(0.0359557 0.0490417 -1.80103e-19)
(0.0690932 0.0471705 2.37837e-19)
(0.109544 0.0454119 3.9477e-19)
(0.157791 0.0441269 2.04693e-19)
(0.214242 0.0436363 8.20476e-20)
(0.279129 0.0442134 8.96838e-20)
(0.352372 0.0460691 -6.83262e-20)
(0.433431 0.0493301 -5.49352e-20)
(0.521169 0.0540099 6.09553e-19)
(0.613775 0.0599888 2.00634e-19)
(0.708737 0.0669934 5.55807e-19)
(0.803068 0.074588 1.44701e-20)
(0.89334 0.0823716 -3.5044e-19)
(0.976495 0.0892757 4.36535e-19)
(1.05063 0.0965647 5.50148e-19)
(1.10764 0.0986157 7.12137e-20)
(1.17549 0.108404 4.79474e-19)
(-0.00966654 0.0102687 -2.79825e-19)
(-0.0231643 0.0251149 1.55098e-19)
(-0.0310433 0.0355919 3.41e-19)
(-0.0330422 0.0424343 -1.34244e-19)
(-0.0289706 0.0463641 -3.99657e-19)
(-0.0186439 0.0480603 -2.95331e-20)
(-0.0018309 0.0481464 2.16479e-20)
(0.0217753 0.0471899 3.8817e-20)
(0.0525647 0.0457051 -2.49105e-19)
(0.0909952 0.044159 -1.05638e-19)
(0.13755 0.0429747 -3.68682e-19)
(0.192662 0.0425316 -9.14343e-21)
(0.256609 0.0431586 -1.03803e-19)
(0.329373 0.0451188 -3.14792e-20)
(0.410479 0.0485854 2.75457e-19)
(0.498848 0.0536118 -4.03754e-19)
(0.59268 0.0600967 1.70086e-19)
(0.689456 0.0677808 -2.69021e-19)
(0.786021 0.0761955 -4.01782e-19)
(0.878973 0.0848582 7.42959e-20)
(0.964759 0.09293 7.47717e-19)
(1.04092 0.100213 -3.7888e-19)
(1.10477 0.105763 1.64868e-20)
(1.15507 0.108752 3.28523e-19)
(1.20381 0.114558 1.84393e-19)
(-0.00994325 0.0100223 1.31789e-19)
(-0.023367 0.0242099 -1.87157e-19)
(-0.0305252 0.0340011 -3.96742e-19)
(-0.0311653 0.0401946 -2.1094e-19)
(-0.0250787 0.0435728 2.30668e-19)
(-0.0120513 0.0448602 7.85349e-20)
(0.00818946 0.0447165 4.59303e-19)
(0.0359979 0.0437402 1.86412e-19)
(0.0718055 0.0424742 1.1792e-19)
(0.116088 0.0414112 5.49721e-20)
(0.169298 0.0409959 3.81144e-19)
(0.231757 0.0416195 1.72456e-19)
(0.303519 0.0436048 -1.42861e-19)
(0.384195 0.0471815 2.04454e-19)
(0.472789 0.052452 -1.17904e-19)
(0.56756 0.0593563 1.4978e-19)
(0.665979 0.0676387 -1.45412e-19)
(0.76485 0.0768698 -3.16777e-19)
(0.860541 0.086395 4.60738e-19)
(0.949495 0.0956611 -4.81835e-19)
(1.02849 0.10362 1.36303e-19)
(1.09564 0.110592 -1.57465e-19)
(1.14899 0.114316 -1.18978e-19)
(1.19104 0.118023 -9.80778e-19)
(1.22205 0.118455 1.5659e-19)
(-0.0101845 0.00974635 2.69474e-20)
(-0.0233932 0.0232152 1.34088e-19)
(-0.0296214 0.0322811 4.4511e-19)
(-0.0286329 0.0378081 -1.0501e-19)
(-0.020202 0.0406429 -4.57695e-20)
(-0.00408357 0.0415598 8.51372e-20)
(0.020036 0.0412578 7.59215e-20)
(0.0525527 0.0403697 -2.99355e-19)
(0.0939237 0.0394688 -1.39104e-19)
(0.14461 0.0390736 -4.29544e-19)
(0.204975 0.039645 -3.24484e-19)
(0.275149 0.0415738 -2.31522e-19)
(0.354847 0.0451554 2.06933e-19)
(0.443182 0.0505545 -3.02205e-19)
(0.538508 0.0577619 -1.4557e-19)
(0.638343 0.0665624 -6.37369e-20)
(0.739438 0.0765139 -4.60324e-20)
(0.838054 0.087005 9.48367e-19)
(0.93035 0.0972316 6.04043e-20)
(1.01297 0.106586 -8.3472e-20)
(1.08338 0.114025 -4.71076e-19)
(1.14044 0.120069 1.53135e-19)
(1.18373 0.122247 1.59551e-20)
(1.21638 0.125794 5.63891e-19)
(1.23284 0.119736 6.32697e-20)
(-0.0103799 0.0094365 2.1278e-19)
(-0.0232077 0.0221254 -2.04627e-19)
(-0.0282684 0.0304336 -3.10792e-19)
(-0.0253503 0.0352887 3.1218e-19)
(-0.0142117 0.0376049 -6.97736e-20)
(0.00542268 0.0382094 -6.05101e-20)
(0.0339034 0.0378439 5.27077e-20)
(0.071656 0.0371779 -7.5515e-20)
(0.119136 0.0368154 1.89545e-19)
(0.176743 0.0372969 1.22979e-19)
(0.244677 0.0390897 3.18689e-19)
(0.322771 0.0425653 -8.56798e-21)
(0.410275 0.047962 2.61572e-19)
(0.505676 0.0553393 -1.75255e-20)
(0.60658 0.0645332 2.79527e-19)
(0.709748 0.0751355 8.14206e-20)
(0.811319 0.0865027 -5.25779e-19)
(0.907253 0.0978576 -2.56403e-19)
(0.993841 0.108308 -6.23801e-20)
(1.06829 0.11725 1.69439e-19)
(1.12902 0.123788 -8.05009e-20)
(1.17582 0.128511 -2.86073e-19)
(1.20974 0.129472 3.75339e-20)
(1.23269 0.131233 -2.64416e-19)
(1.24539 0.124789 -1.27972e-19)
(-0.0105166 0.00908793 1.30282e-19)
(-0.0227711 0.020935 1.39119e-19)
(-0.0263973 0.028461 2.55008e-19)
(-0.021217 0.0326517 -1.8582e-19)
(-0.00697487 0.0344916 1.35213e-20)
(0.0166312 0.0348637 3.7238e-19)
(0.0499795 0.0345543 -1.06776e-19)
(0.093504 0.0342702 -3.56547e-19)
(0.14762 0.0346444 -2.11425e-19)
(0.212598 0.0362316 2.82852e-19)
(0.288385 0.0394894 -5.89716e-19)
(0.374392 0.0447426 2.3026e-21)
(0.469277 0.0521344 -5.07013e-20)
(0.570786 0.0615742 3.7516e-19)
(0.675737 0.0727012 -2.04248e-19)
(0.780207 0.0848911 2.80744e-19)
(0.879933 0.0973092 2.84144e-19)
(0.970897 0.109059 -5.02016e-19)
(1.04989 0.119242 -2.09555e-19)
(1.11498 0.127339 -1.74218e-19)
(1.16565 0.132673 2.66071e-19)
(1.20272 0.135946 4.21879e-19)
(1.22804 0.13564 1.96594e-19)
(1.24373 0.135925 -1.74834e-19)
(1.25226 0.129154 -3.1593e-19)
(-0.0105799 0.00869597 -3.07543e-20)
(-0.0220397 0.0196393 1.3015e-19)
(-0.0239343 0.0263667 -2.58745e-19)
(-0.0161282 0.0299148 -3.97451e-19)
(0.00164339 0.0313396 -5.89374e-19)
(0.0297024 0.0315819 1.00374e-19)
(0.0684388 0.0314733 -1.18584e-19)
(0.118264 0.0317569 1.73892e-19)
(0.179498 0.0330887 6.46954e-20)
(0.2522 0.0360244 1.24799e-19)
(0.335951 0.040988 1.38869e-19)
(0.429612 0.0482223 -7.66922e-20)
(0.531124 0.0577304 -1.11037e-19)
(0.637426 0.0692257 -2.49625e-19)
(0.744584 0.0821194 7.61668e-20)
(0.84816 0.0955706 -2.98525e-19)
(0.943791 0.108594 1.10124e-19)
(1.02784 0.120247 7.10495e-20)
(1.09791 0.129713 -2.96256e-19)
(1.15313 0.13663 -3.19743e-19)
(1.19403 0.140583 -1.71315e-19)
(1.22229 0.14239 9.72526e-21)
(1.24033 0.140906 5.36414e-20)
(1.25031 0.139965 -1.72817e-19)