/*--------------------------------*- C++ -*----------------------------------*\
  =========                 |
  \\      /  F ield         | OpenFOAM: The Open Source CFD Toolbox
   \\    /   O peration     | Website:  https://openfoam.org
    \\  /    A nd           | Version:  7
     \\/     M anipulation  |
\*---------------------------------------------------------------------------*/
FoamFile
{
    version     2.0;
    format      ascii;
    class       volVectorField;
    location    "65";
    object      U;
}
// * * * * * * * * * * * * * * * * * * * * * * * * * * * * * * * * * * * * * //

dimensions      [0 1 -1 0 0 0 0];

internalField   nonuniform List<vector> 
1987
(
(1.13389 -0.244585 -4.93947e-20)
(1.13036 -0.233469 -2.69971e-20)
(1.12707 -0.222624 -2.63343e-20)
(1.12371 -0.212761 3.75102e-20)
(1.14042 -0.242186 3.77189e-20)
(1.1367 -0.231363 -1.22886e-20)
(1.13322 -0.220771 2.90598e-20)
(1.12971 -0.211098 -4.71618e-21)
(1.14678 -0.23968 -3.08197e-20)
(1.14287 -0.22915 1.1683e-20)
(1.13923 -0.218805 -3.4727e-20)
(1.13557 -0.209318 1.29906e-20)
(1.15295 -0.237077 1.07932e-20)
(1.14889 -0.226838 -1.23318e-21)
(1.1451 -0.216737 1.49046e-20)
(1.14132 -0.207433 -7.54484e-21)
(1.16357 -0.244538 1.57255e-20)
(1.15894 -0.234389 3.70837e-22)
(1.15474 -0.224439 1.76025e-21)
(1.15083 -0.214582 5.35867e-21)
(1.14695 -0.205454 -3.29159e-21)
(1.16951 -0.241468 -1.21031e-21)
(1.16475 -0.231626 6.8063e-23)
(1.16044 -0.221962 1.85032e-21)
(1.15641 -0.212352 -2.68456e-21)
(1.15246 -0.203392 1.33674e-21)
(1.17525 -0.23834 4.26927e-22)
(1.17039 -0.2288 7.54253e-22)
(1.16598 -0.219418 -1.55971e-21)
(1.16186 -0.210056 -3.03803e-21)
(1.15785 -0.201254 4.52696e-21)
(1.1808 -0.235164 -1.78974e-20)
(1.17586 -0.22592 1.44346e-20)
(1.17136 -0.216816 5.59556e-21)
(1.16717 -0.207705 2.36522e-21)
(1.16311 -0.19905 -3.87541e-21)
(1.18116 -0.222998 1.54649e-20)
(1.17659 -0.214165 6.63057e-21)
(1.17233 -0.205305 1.98805e-20)
(1.16824 -0.196788 -1.37497e-20)
(1.18629 -0.220042 -5.03357e-20)
(1.18168 -0.211473 1.85268e-20)
(1.17736 -0.202867 -4.69537e-20)
(1.17326 -0.194475 4.63719e-21)
(1.19126 -0.217063 5.76035e-21)
(1.18661 -0.208749 -6.44512e-21)
(1.18226 -0.200397 7.13177e-20)
(1.17815 -0.19212 -2.49327e-20)
(1.19608 -0.214069 7.54555e-20)
(1.1914 -0.206 -5.9595e-20)
(1.18702 -0.197903 -1.57727e-20)
(1.18291 -0.18973 -3.94419e-20)
(1.20074 -0.211069 -4.61567e-20)
(1.19605 -0.203233 -5.08203e-21)
(1.19166 -0.195391 -2.08863e-20)
(1.18756 -0.187311 7.3396e-20)
(1.20526 -0.20807 -8.64509e-20)
(1.20056 -0.200457 -1.4209e-20)
(1.19617 -0.192867 1.76616e-20)
(1.19209 -0.184871 -5.38585e-20)
(1.20963 -0.20508 -6.88312e-20)
(1.20495 -0.197677 3.83695e-20)
(1.20055 -0.190337 3.30164e-20)
(1.19651 -0.182414 4.56135e-20)
(1.21387 -0.202105 1.31863e-19)
(1.2092 -0.194899 5.25452e-20)
(1.20482 -0.187806 -2.51287e-19)
(1.20083 -0.179948 -9.70009e-21)
(1.21798 -0.19915 1.81569e-20)
(1.21334 -0.192131 2.5352e-20)
(1.20898 -0.18528 9.24519e-20)
(1.20503 -0.177476 -2.84314e-20)
(1.21736 -0.189376 1.04494e-20)
(1.21302 -0.182763 4.21474e-20)
(1.20914 -0.175004 -6.11782e-20)
(1.22126 -0.186639 -2.89729e-19)
(1.21696 -0.180259 -1.93432e-20)
(1.21315 -0.172536 -2.51337e-20)
(1.22506 -0.183923 8.25749e-20)
(1.2208 -0.177771 8.90017e-20)
(1.21707 -0.170075 3.08759e-21)
(1.22876 -0.181231 -6.94126e-20)
(1.22454 -0.175303 -1.71449e-19)
(1.22091 -0.167626 2.08377e-19)
(1.23234 -0.178562 1.31337e-19)
(1.22819 -0.172855 -9.37088e-20)
(1.22465 -0.165189 5.4321e-20)
(1.23174 -0.170429 -2.77465e-20)
(1.22832 -0.162768 -1.13799e-19)
(1.23518 -0.168023 2.00957e-19)
(1.2319 -0.160361 3.12044e-22)
(1.2385 -0.165631 -1.41951e-19)
(1.23539 -0.157969 -9.62045e-20)
(1.23877 -0.155585 2.85128e-20)
(1.24202 -0.153202 -4.8474e-20)
(1.24509 -0.150803 -4.22909e-19)
(1.14931 -0.195618 1.66522e-21)
(1.14672 -0.190074 -8.75166e-22)
(1.14424 -0.184485 -2.99252e-23)
(1.14207 -0.178909 1.76222e-21)
(1.14017 -0.173426 -1.7215e-21)
(1.13848 -0.168017 1.77843e-21)
(1.13691 -0.162677 -2.55843e-21)
(1.13542 -0.157381 1.87159e-21)
(1.13398 -0.15213 -2.0107e-21)
(1.13259 -0.146921 1.37607e-21)
(1.13124 -0.141752 -1.32471e-21)
(1.12991 -0.136626 5.50332e-22)
(1.12861 -0.131541 1.20866e-21)
(1.12733 -0.126488 -7.65727e-22)
(1.12607 -0.121479 -6.47329e-22)
(1.12483 -0.116512 4.22516e-22)
(1.1236 -0.111583 -4.02836e-24)
(1.12238 -0.106694 -6.04201e-22)
(1.12118 -0.101843 7.60291e-22)
(1.11998 -0.0970289 -2.1117e-22)
(1.1188 -0.0922523 -2.87699e-22)
(1.11762 -0.0875045 3.39106e-22)
(1.11646 -0.0827995 1.49246e-22)
(1.1153 -0.0781161 -3.70012e-22)
(1.11416 -0.0734495 3.17251e-22)
(1.11304 -0.0688188 -3.77772e-22)
(1.11193 -0.0642024 3.02961e-22)
(1.11085 -0.0596023 -1.16949e-22)
(1.1098 -0.0550125 2.71027e-22)
(1.10878 -0.0504266 -1.4622e-22)
(1.1078 -0.045838 -2.63369e-22)
(1.10687 -0.0412389 9.15162e-23)
(1.10599 -0.0366203 3.28214e-23)
(1.10518 -0.0319716 1.32763e-22)
(1.10445 -0.0272814 -2.73756e-22)
(1.1038 -0.0225334 -1.34956e-22)
(1.10325 -0.0177191 1.94308e-22)
(1.10282 -0.0127966 -1.32842e-22)
(1.10252 -0.0078008 1.30503e-22)
(1.10236 -0.00258225 -9.62573e-23)
(1.14395 -0.197222 1.58103e-21)
(1.1415 -0.191538 -1.57163e-21)
(1.13924 -0.18583 3.38822e-21)
(1.13732 -0.180148 -8.18298e-22)
(1.13565 -0.174571 -3.14031e-22)
(1.13418 -0.169069 9.75922e-22)
(1.1328 -0.163646 -3.07334e-21)
(1.13149 -0.158272 1.7826e-23)
(1.13023 -0.152947 8.50832e-22)
(1.12901 -0.147671 -1.08945e-21)
(1.12781 -0.14244 6.92807e-22)
(1.12664 -0.13726 -7.1462e-22)
(1.12547 -0.132123 -1.72628e-22)
(1.12433 -0.127021 1.27484e-23)
(1.1232 -0.121968 1.64036e-21)
(1.12209 -0.11696 -7.47057e-22)
(1.12098 -0.111994 -9.04604e-22)
(1.11988 -0.107071 8.2351e-22)
(1.11879 -0.102189 1.31443e-21)
(1.1177 -0.0973472 -9.27123e-22)
(1.11661 -0.0925444 8.31037e-23)
(1.11553 -0.087772 -1.18416e-21)
(1.11446 -0.0830475 6.4575e-22)
(1.11338 -0.0783435 1.36275e-21)
(1.11232 -0.0736546 -1.07326e-22)
(1.11128 -0.0690062 -4.06691e-22)
(1.11025 -0.0643731 -3.2248e-22)
(1.10924 -0.0597573 5.88883e-23)
(1.10825 -0.0551525 -6.81523e-22)
(1.10729 -0.0505526 2.40819e-22)
(1.10636 -0.0459505 7.186e-22)
(1.10548 -0.0413385 -3.84412e-22)
(1.10465 -0.0367073 8.58538e-22)
(1.10388 -0.0320465 -3.63888e-22)
(1.10318 -0.0273444 2.54439e-22)
(1.10257 -0.0225848 3.45483e-22)
(1.10205 -0.0177586 4.91955e-23)
(1.10164 -0.0128246 5.7267e-23)
(1.10135 -0.00781722 2.90115e-22)
(1.1012 -0.00258422 1.27316e-23)
(1.13849 -0.198748 4.30381e-21)
(1.13619 -0.192935 -3.48974e-22)
(1.13417 -0.187111 1.4183e-21)
(1.13251 -0.181336 -9.96999e-21)
(1.13108 -0.17567 8.68597e-21)
(1.12982 -0.170078 -3.51543e-21)
(1.12865 -0.164578 -1.41029e-21)
(1.12753 -0.159129 1.66344e-21)
(1.12645 -0.153735 1.43567e-21)
(1.12539 -0.148396 1.67628e-21)
(1.12436 -0.143106 -5.37915e-21)
(1.12334 -0.137875 3.38965e-21)
(1.12232 -0.132691 1.78267e-21)
(1.12131 -0.12754 6.33882e-22)
(1.12032 -0.122444 -5.27439e-21)
(1.11933 -0.117398 3.76051e-21)
(1.11835 -0.112397 9.51361e-22)
(1.11737 -0.107442 -8.95424e-22)
(1.11639 -0.10253 -1.57885e-21)
(1.1154 -0.0976606 1.45813e-21)
(1.11442 -0.0928322 -1.55753e-21)
(1.11344 -0.0880359 1.1973e-21)
(1.11246 -0.0832946 1.13712e-21)
(1.11146 -0.0785706 -2.11156e-21)
(1.11048 -0.0738582 5.97387e-23)
(1.10952 -0.0691924 3.53315e-22)
(1.10856 -0.0645433 5.25535e-22)
(1.10762 -0.0599121 -8.22934e-23)
(1.10669 -0.0552927 2.50607e-22)
(1.10579 -0.0506788 4.63737e-22)
(1.10492 -0.0460634 1.88211e-23)
(1.10408 -0.0414385 6.38467e-23)
(1.1033 -0.0367949 -1.073e-21)
(1.10257 -0.032122 7.04394e-22)
(1.10191 -0.0274079 -3.44275e-23)
(1.10133 -0.0226366 -6.61945e-22)
(1.10083 -0.0177985 -4.85039e-22)
(1.10045 -0.0128531 6.20501e-22)
(1.10018 -0.00783379 -1.01181e-23)
(1.10005 -0.00258662 -1.41171e-22)
(1.13294 -0.200192 -1.26659e-21)
(1.13081 -0.194264 -4.99067e-21)
(1.12904 -0.188326 8.92236e-21)
(1.12765 -0.182471 -3.48721e-21)
(1.12645 -0.176725 -3.92593e-21)
(1.12541 -0.171043 3.76614e-21)
(1.12444 -0.16547 -1.4365e-21)
(1.12352 -0.15995 3.44097e-21)
(1.12262 -0.154491 -8.93517e-21)
(1.12174 -0.149092 6.13522e-21)
(1.12088 -0.143748 3.12117e-21)
(1.12002 -0.138472 -1.93694e-21)
(1.11914 -0.133245 2.20906e-21)
(1.11827 -0.128047 -1.89234e-21)
(1.11742 -0.122906 -3.92512e-22)
(1.11657 -0.117824 2.56437e-21)
(1.11571 -0.11279 -1.78175e-21)
(1.11485 -0.107804 2.58157e-21)
(1.11398 -0.102864 -3.93966e-21)
(1.11311 -0.0979688 3.23211e-21)
(1.11223 -0.0931155 -1.54651e-21)
(1.11134 -0.0882964 7.14064e-23)
(1.11045 -0.0835398 -7.43557e-22)
(1.10954 -0.0787965 -1.78431e-21)
(1.10865 -0.0740604 4.363e-22)
(1.10776 -0.0693775 3.12617e-22)
(1.10687 -0.064713 5.51111e-22)
(1.106 -0.0600667 7.50242e-22)
(1.10513 -0.0554329 -9.48879e-22)
(1.10429 -0.0508052 -2.69022e-22)
(1.10347 -0.0461766 -1.41063e-22)
(1.10269 -0.0415389 -1.42727e-21)
(1.10195 -0.0368829 -7.91208e-22)
(1.10126 -0.0321979 -8.67936e-22)
(1.10064 -0.027472 -1.04895e-21)
(1.10009 -0.022689 1.10331e-21)
(1.09962 -0.0178389 -4.097e-22)
(1.09926 -0.012882 -5.43276e-22)
(1.099 -0.00785044 -4.28967e-23)
(1.09889 -0.00258929 3.08348e-23)
(1.12728 -0.20155 3.81463e-21)
(1.12533 -0.19552 -2.06588e-21)
(1.12385 -0.189469 -6.0556e-21)
(1.12274 -0.183558 -4.44431e-21)
(1.12174 -0.177744 9.06184e-21)
(1.12094 -0.171962 3.76787e-21)
(1.12018 -0.166317 -6.39998e-21)
(1.11946 -0.160732 -1.67496e-21)
(1.11875 -0.155212 1.91506e-22)
(1.11805 -0.149757 4.70418e-21)
(1.11736 -0.144362 -1.70888e-21)
(1.11666 -0.139049 6.54831e-21)
(1.11594 -0.133785 -6.73529e-21)
(1.11523 -0.128537 -3.93766e-21)
(1.11452 -0.123354 5.75375e-22)
(1.1138 -0.118238 2.01228e-21)
(1.11307 -0.113173 3.93794e-21)
(1.11232 -0.108159 -6.097e-21)
(1.11157 -0.103192 2.23836e-21)
(1.1108 -0.0982719 -1.89568e-21)
(1.11003 -0.0933948 3.55292e-21)
(1.10924 -0.0885551 -1.13283e-21)
(1.10843 -0.0837793 -2.44628e-22)
(1.10764 -0.0790169 1.50156e-21)
(1.10682 -0.0742627 -5.45794e-22)
(1.106 -0.0695621 -1.22168e-21)
(1.10519 -0.0648824 1.17682e-21)
(1.10438 -0.0602212 -2.54237e-21)
(1.10358 -0.0555732 8.06948e-22)
(1.10279 -0.0509319 7.51053e-22)
(1.10203 -0.0462902 7.77463e-22)
(1.1013 -0.0416399 1.10358e-24)
(1.1006 -0.0369715 1.83359e-21)
(1.09995 -0.0322745 1.47759e-22)
(1.09936 -0.0275365 3.38933e-22)
(1.09885 -0.0227419 -3.92045e-22)
(1.09841 -0.0178796 -9.9638e-23)
(1.09807 -0.0129114 9.09318e-22)
(1.09783 -0.00786715 -7.96154e-23)
(1.09773 -0.00259215 4.22297e-22)
(1.11485 -0.155897 6.42019e-21)
(1.11433 -0.150391 -4.39115e-21)
(1.11381 -0.144951 4.18302e-21)
(1.11327 -0.1396 2.34623e-21)
(1.11274 -0.134297 7.39608e-22)
(1.11219 -0.129009 3.33115e-21)
(1.11162 -0.12379 -5.5321e-21)
(1.11103 -0.118641 -2.49759e-21)
(1.11042 -0.113547 3.53559e-21)
(1.1098 -0.108506 2.13008e-21)
(1.10916 -0.103514 -3.22689e-21)
(1.1085 -0.0985702 4.60596e-21)
(1.10783 -0.093671 -2.88155e-21)
(1.10713 -0.0888143 -1.57178e-21)
(1.10641 -0.0840099 -4.53169e-22)
(1.10573 -0.0792288 5.44606e-22)
(1.10499 -0.0744673 1.49063e-21)
(1.10425 -0.0697471 -7.47697e-23)
(1.1035 -0.0650518 1.46179e-21)
(1.10276 -0.0603758 6.52418e-22)
(1.10202 -0.0557137 -3.61479e-22)
(1.10129 -0.0510589 -3.1865e-21)
(1.10058 -0.0464042 2.22491e-21)
(1.0999 -0.0417412 2.32906e-21)
(1.09925 -0.0370606 -2.40507e-21)
(1.09864 -0.0323515 1.39261e-21)
(1.09809 -0.0276016 -4.77136e-22)
(1.0976 -0.0227953 5.25093e-22)
(1.09719 -0.0179208 -1.24428e-21)
(1.09687 -0.0129412 -2.43506e-21)
(1.09665 -0.00788395 -1.45776e-21)
(1.09656 -0.00259547 -5.01638e-22)
(1.15456 -0.193942 -1.77182e-21)
(1.15185 -0.188547 9.18104e-22)
(1.14918 -0.183083 1.87796e-23)
(1.14677 -0.177621 -1.86203e-21)
(1.14464 -0.172239 1.82485e-21)
(1.14273 -0.166927 -1.88637e-21)
(1.14097 -0.161673 2.70445e-21)
(1.1393 -0.15646 -1.98326e-21)
(1.1377 -0.151285 2.13387e-21)
(1.13615 -0.146147 -1.44892e-21)
(1.13464 -0.141043 1.39282e-21)
(1.13316 -0.135976 -5.71169e-22)
(1.13172 -0.130944 -1.27103e-21)
(1.13031 -0.125943 8.0869e-22)
(1.12892 -0.12098 6.84949e-22)
(1.12755 -0.116054 -4.41036e-22)
(1.1262 -0.111164 8.91481e-24)
(1.12487 -0.106309 6.41678e-22)
(1.12356 -0.101491 -8.04367e-22)
(1.12226 -0.0967062 2.20805e-22)
(1.12097 -0.0919565 2.98736e-22)
(1.11971 -0.0872342 -3.64478e-22)
(1.11845 -0.0825503 -1.4619e-22)
(1.11721 -0.0778883 3.83316e-22)
(1.11599 -0.0732432 -3.33603e-22)
(1.11479 -0.0686305 3.97481e-22)
(1.11362 -0.0640313 -3.23599e-22)
(1.11247 -0.0594474 1.2245e-22)
(1.11135 -0.0548726 -2.77328e-22)
(1.11028 -0.050301 1.52577e-22)
(1.10924 -0.045726 2.82605e-22)
(1.10826 -0.04114 -1.01175e-22)
(1.10734 -0.0365339 -3.6512e-23)
(1.10649 -0.0318973 -1.40938e-22)
(1.10571 -0.027219 2.9355e-22)
(1.10503 -0.0224826 1.44738e-22)
(1.10446 -0.01768 -2.08684e-22)
(1.10401 -0.012769 1.43373e-22)
(1.10369 -0.00778455 -1.39727e-22)
(1.10351 -0.00258074 1.0268e-22)
(1.1597 -0.192198 -1.90359e-21)
(1.15689 -0.186959 1.85231e-21)
(1.15404 -0.181625 -4.04723e-21)
(1.15141 -0.176287 1.00704e-21)
(1.14905 -0.171013 3.92727e-22)
(1.14694 -0.1658 -1.15312e-21)
(1.14499 -0.160638 3.64955e-21)
(1.14314 -0.155511 -3.23209e-23)
(1.14138 -0.150416 -9.97941e-22)
(1.13967 -0.145351 1.30395e-21)
(1.13801 -0.140314 -8.34304e-22)
(1.1364 -0.135308 8.78885e-22)
(1.13481 -0.130333 1.9842e-22)
(1.13327 -0.125385 -2.35025e-23)
(1.13175 -0.12047 -1.8974e-21)
(1.13026 -0.115587 8.73627e-22)
(1.12879 -0.110737 1.04516e-21)
(1.12735 -0.105919 -9.60466e-22)
(1.12593 -0.101133 -1.52648e-21)
(1.12453 -0.0963794 1.05864e-21)
(1.12315 -0.0916576 -8.72845e-23)
(1.12178 -0.0869613 1.36043e-21)
(1.12044 -0.0822998 -7.3462e-22)
(1.11912 -0.0776597 -1.57505e-21)
(1.11782 -0.0730361 1.09394e-22)
(1.11654 -0.0684417 4.76263e-22)
(1.1153 -0.06386 3.60357e-22)
(1.11408 -0.0592925 -7.13803e-23)
(1.11291 -0.054733 7.8394e-22)
(1.11177 -0.0501759 -2.70787e-22)
(1.11068 -0.0456146 -7.98561e-22)
(1.10965 -0.0410416 4.1085e-22)
(1.10868 -0.0364481 -9.78035e-22)
(1.10779 -0.0318237 4.12483e-22)
(1.10698 -0.0271572 -2.75712e-22)
(1.10627 -0.0224323 -3.85591e-22)
(1.10566 -0.0176414 -6.75071e-23)
(1.10519 -0.0127417 -5.25127e-23)
(1.10485 -0.00776844 -3.40181e-22)
(1.10466 -0.00257965 -7.06206e-24)
(1.16473 -0.190391 -5.86111e-21)
(1.16183 -0.185315 4.61449e-22)
(1.15883 -0.180115 -1.89217e-21)
(1.15599 -0.17491 1.34639e-20)
(1.15342 -0.169752 -1.16722e-20)
(1.1511 -0.164641 4.75786e-21)
(1.14896 -0.159573 1.89211e-21)
(1.14695 -0.154535 -2.25202e-21)
(1.14502 -0.149522 -1.86908e-21)
(1.14316 -0.144534 -2.22462e-21)
(1.14136 -0.139567 7.1057e-21)
(1.1396 -0.134626 -4.42617e-21)
(1.13789 -0.129709 -2.35072e-21)
(1.13621 -0.124816 -8.45636e-22)
(1.13457 -0.11995 6.86444e-21)
(1.13296 -0.115113 -4.88063e-21)
(1.13138 -0.110303 -1.22603e-21)
(1.12982 -0.105523 1.1526e-21)
(1.1283 -0.100772 1.99517e-21)
(1.12679 -0.0960491 -1.8638e-21)
(1.12532 -0.0913559 1.96502e-21)
(1.12386 -0.0866862 -1.50181e-21)
(1.12243 -0.0820478 -1.44494e-21)
(1.12102 -0.0774301 2.60865e-21)
(1.11964 -0.0728284 -8.38038e-23)
(1.11829 -0.0682527 -4.17084e-22)
(1.11697 -0.0636887 -6.35776e-22)
(1.11569 -0.0591378 9.85694e-23)
(1.11445 -0.0545938 -3.18217e-22)
(1.11326 -0.0500512 -5.76651e-22)
(1.11212 -0.0455037 -4.39948e-24)
(1.11103 -0.0409438 -9.88635e-23)
(1.11002 -0.0363629 1.25579e-21)
(1.10908 -0.0317506 -8.24768e-22)
(1.10824 -0.027096 2.56467e-23)
(1.10749 -0.0223826 7.89092e-22)
(1.10686 -0.0176032 5.69107e-22)
(1.10636 -0.0127149 -7.37496e-22)
(1.10601 -0.00775246 -2.36928e-23)
(1.10581 -0.0025789 1.78479e-22)
(1.16966 -0.188525 1.91864e-21)
(1.16667 -0.183617 7.68918e-21)
(1.16354 -0.178557 -1.36508e-20)
(1.16052 -0.173492 5.27887e-21)
(1.15774 -0.168456 5.92368e-21)
(1.15522 -0.163452 -5.68472e-21)
(1.1529 -0.158481 2.20116e-21)
(1.15071 -0.153534 -5.23272e-21)
(1.14863 -0.148607 1.33855e-20)
(1.14662 -0.143697 -9.15527e-21)
(1.14468 -0.138804 -4.57104e-21)
(1.14279 -0.133929 2.80441e-21)
(1.14094 -0.129073 -3.28803e-21)
(1.13914 -0.124235 2.67119e-21)
(1.13737 -0.119421 5.34421e-22)
(1.13564 -0.11463 -3.70248e-21)
(1.13395 -0.109863 2.51732e-21)
(1.13229 -0.105122 -3.62306e-21)
(1.13065 -0.100406 5.48905e-21)
(1.12905 -0.0957155 -4.51333e-21)
(1.12748 -0.0910516 2.14823e-21)
(1.12593 -0.0864092 -1.13981e-22)
(1.12441 -0.0817947 1.04016e-21)
(1.12292 -0.0771999 2.44699e-21)
(1.12146 -0.07262 -5.99918e-22)
(1.12004 -0.0680634 -4.07912e-22)
(1.11865 -0.0635175 -7.36859e-22)
(1.1173 -0.0589833 -9.84168e-22)
(1.116 -0.0544549 1.20754e-21)
(1.11474 -0.049927 3.33587e-22)
(1.11355 -0.0453934 2.10178e-22)
(1.11241 -0.0408467 1.86809e-21)
(1.11135 -0.0362783 1.06316e-21)
(1.11038 -0.0316782 1.1403e-21)
(1.10949 -0.0270354 1.34889e-21)
(1.10871 -0.0223333 -1.39936e-21)
(1.10806 -0.0175655 5.35281e-22)
(1.10753 -0.0126884 6.7305e-22)
(1.10716 -0.00773656 1.59855e-23)
(1.10695 -0.00257844 -1.81322e-23)
(1.17447 -0.186608 -6.80269e-21)
(1.17142 -0.18187 3.67818e-21)
(1.16817 -0.176954 1.06668e-20)
(1.16499 -0.172036 7.61641e-21)
(1.16202 -0.167129 -1.57947e-20)
(1.1593 -0.162236 -6.41523e-21)
(1.15679 -0.157364 1.09844e-20)
(1.15444 -0.152511 2.71708e-21)
(1.15221 -0.147672 -2.85045e-22)
(1.15006 -0.142843 -7.91617e-21)
(1.14797 -0.138025 2.87719e-21)
(1.14595 -0.133218 -1.0834e-20)
(1.14397 -0.128425 1.09997e-20)
(1.14204 -0.123645 6.27769e-21)
(1.14016 -0.118883 -9.46648e-22)
(1.13831 -0.11414 -3.2474e-21)
(1.13651 -0.109417 -6.15963e-21)
(1.13474 -0.104716 9.51459e-21)
(1.133 -0.100036 -3.43748e-21)
(1.1313 -0.0953788 2.90651e-21)
(1.12963 -0.090745 -5.4252e-21)
(1.12799 -0.0861305 1.75764e-21)
(1.12639 -0.0815406 4.6915e-22)
(1.12481 -0.076969 -2.19872e-21)
(1.12328 -0.0724112 7.86724e-22)
(1.12178 -0.067874 1.80731e-21)
(1.12032 -0.0633465 -1.69485e-21)
(1.1189 -0.0588292 3.63356e-21)
(1.11754 -0.0543165 -1.16603e-21)
(1.11622 -0.0498034 -1.12583e-21)
(1.11497 -0.0452837 -1.02104e-21)
(1.11379 -0.0407501 7.66721e-23)
(1.11268 -0.0361944 -2.49592e-21)
(1.11166 -0.0316063 -1.23119e-22)
(1.11074 -0.0269753 -4.31997e-22)
(1.10993 -0.0222846 5.13474e-22)
(1.10925 -0.0175281 1.76823e-22)
(1.1087 -0.0126623 -1.25769e-21)
(1.10831 -0.00772074 7.98843e-23)
(1.10808 -0.00257819 -5.59948e-22)
(1.17917 -0.184644 -2.42802e-20)
(1.17606 -0.180079 1.23764e-20)
(1.17273 -0.175309 2.4739e-20)
(1.1694 -0.170545 -3.42947e-20)
(1.16625 -0.165773 1.13257e-21)
(1.16334 -0.160995 2.08742e-20)
(1.16066 -0.156225 7.52962e-21)
(1.15814 -0.151467 -2.74908e-20)
(1.15575 -0.146717 1.4574e-20)
(1.15346 -0.141972 8.22e-21)
(1.15124 -0.137231 -7.92144e-21)
(1.14908 -0.132495 -4.43388e-21)
(1.14698 -0.127766 -1.33e-21)
(1.14493 -0.123046 -5.94299e-21)
(1.14293 -0.118338 9.99158e-21)
(1.14097 -0.113644 4.38026e-21)
(1.13906 -0.108966 -6.21705e-21)
(1.13718 -0.104305 -3.77186e-21)
(1.13534 -0.0996629 5.51014e-21)
(1.13354 -0.0950393 -7.73728e-21)
(1.13178 -0.0904363 4.83515e-21)
(1.13005 -0.0858503 2.63591e-21)
(1.12836 -0.0812856 7.74004e-22)
(1.1267 -0.0767376 -9.58382e-22)
(1.12509 -0.0722021 -2.37234e-21)
(1.12351 -0.0676846 5.57998e-23)
(1.12198 -0.0631756 -2.35408e-21)
(1.1205 -0.0586754 -1.03539e-21)
(1.11907 -0.0541786 5.89679e-22)
(1.1177 -0.0496803 4.76572e-21)
(1.1164 -0.0451746 -3.27334e-21)
(1.11516 -0.0406542 -3.49335e-21)
(1.11401 -0.0361111 3.53377e-21)
(1.11295 -0.0315351 -2.02877e-21)
(1.11199 -0.0269158 7.2482e-22)
(1.11115 -0.0222364 -7.69559e-22)
(1.11043 -0.0174911 1.9017e-21)
(1.10986 -0.0126366 3.49207e-21)
(1.10946 -0.00770497 2.12237e-21)
(1.10922 -0.00257811 7.16329e-22)
(1.18376 -0.18264 -9.87259e-21)
(1.1806 -0.178247 4.01842e-20)
(1.17719 -0.173625 -6.92788e-21)
(1.17375 -0.169019 -2.80346e-20)
(1.17044 -0.164389 2.21892e-20)
(1.16735 -0.15973 -7.19598e-21)
(1.16448 -0.155066 -4.25664e-21)
(1.16181 -0.150405 -1.01011e-20)
(1.15927 -0.145746 1.78613e-21)
(1.15684 -0.141086 1.21472e-20)
(1.15448 -0.136424 -9.35309e-21)
(1.1522 -0.13176 3.0578e-21)
(1.14998 -0.127097 8.82874e-21)
(1.14781 -0.122438 -5.76253e-21)
(1.14569 -0.117785 1.10381e-20)
(1.14362 -0.113142 -8.50874e-21)
(1.14159 -0.10851 7.97313e-21)
(1.13961 -0.103891 1.12048e-21)
(1.13767 -0.0992864 -1.56618e-21)
(1.13578 -0.0946974 -9.90861e-21)
(1.13392 -0.0901258 8.45868e-21)
(1.1321 -0.0855687 -5.09424e-21)
(1.13032 -0.0810299 6.71889e-22)
(1.12858 -0.0765058 6.16866e-21)
(1.12689 -0.0719928 -7.0199e-21)
(1.12524 -0.0674952 5.81849e-21)
(1.12364 -0.063005 2.88974e-21)
(1.1221 -0.058522 2.34383e-21)
(1.1206 -0.0540412 -7.69661e-22)
(1.11917 -0.0495578 -1.32023e-21)
(1.11781 -0.045066 -2.27154e-22)
(1.11653 -0.040559 8.36997e-22)
(1.11533 -0.0360284 -1.61286e-21)
(1.11423 -0.0314644 2.92249e-21)
(1.11323 -0.0268568 -1.84682e-21)
(1.11235 -0.0221886 -4.06925e-23)
(1.11161 -0.0174545 -5.2321e-21)
(1.11102 -0.0126111 -3.44807e-21)
(1.1106 -0.00768923 5.86287e-22)
(1.11034 -0.00257815 -1.37008e-21)
(1.18825 -0.1806 6.43053e-20)
(1.18504 -0.17638 -3.14765e-20)
(1.18157 -0.171906 -1.51141e-20)
(1.17803 -0.167461 3.69148e-20)
(1.17458 -0.162979 -1.0302e-20)
(1.17132 -0.158445 -6.37139e-22)
(1.16828 -0.153888 1.69423e-20)
(1.16544 -0.149326 -1.32839e-20)
(1.16275 -0.14476 2.18184e-20)
(1.16018 -0.140186 1.42871e-21)
(1.1577 -0.135604 -2.47253e-20)
(1.15529 -0.131014 1.09706e-20)
(1.15295 -0.126419 -1.53712e-20)
(1.15066 -0.121822 5.82199e-21)
(1.14843 -0.117226 -5.2084e-21)
(1.14625 -0.112634 6.14586e-21)
(1.14412 -0.108049 -1.23134e-20)
(1.14203 -0.103472 4.1618e-21)
(1.14 -0.0989069 7.13237e-21)
(1.138 -0.0943532 -4.04687e-21)
(1.13605 -0.0898136 -1.75668e-21)
(1.13414 -0.0852859 2.26309e-21)
(1.13228 -0.0807735 4.52892e-21)
(1.13046 -0.0762737 5.02705e-22)
(1.12869 -0.0717833 -4.60022e-21)
(1.12697 -0.067306 -1.97998e-23)
(1.1253 -0.0628347 1.41284e-21)
(1.12368 -0.058369 -4.42703e-21)
(1.12213 -0.0539043 -1.5107e-21)
(1.12064 -0.0494358 5.3342e-22)
(1.11923 -0.0449581 -1.98708e-22)
(1.11789 -0.0404643 -5.06686e-21)
(1.11665 -0.0359462 -2.09593e-21)
(1.1155 -0.0313942 -1.29673e-21)
(1.11447 -0.0267982 -1.9501e-22)
(1.11356 -0.0221412 2.55823e-21)
(1.11279 -0.0174182 3.11696e-21)
(1.11217 -0.0125859 3.49679e-21)
(1.11173 -0.00767351 -4.50836e-21)
(1.11146 -0.00257824 -4.64692e-22)
(1.19262 -0.178531 1.35326e-20)
(1.18937 -0.174481 -2.41546e-20)
(1.18586 -0.170155 5.69318e-20)
(1.18225 -0.165874 -6.68873e-21)
(1.17868 -0.161545 -6.84994e-20)
(1.17526 -0.15714 2.41362e-20)
(1.17205 -0.152694 3.256e-20)
(1.16905 -0.148232 1.08266e-20)
(1.16621 -0.14376 -4.02687e-20)
(1.16351 -0.139273 3.93741e-20)
(1.1609 -0.134772 -2.68762e-20)
(1.15837 -0.130257 4.13631e-21)
(1.1559 -0.125732 6.34794e-21)
(1.1535 -0.121198 -2.51313e-21)
(1.15116 -0.11666 -7.42232e-21)
(1.14887 -0.112121 1.70867e-20)
(1.14663 -0.107583 -1.48566e-20)
(1.14445 -0.103051 3.53857e-21)
(1.14231 -0.0985248 -8.03766e-22)
(1.14022 -0.0940071 2.56464e-21)
(1.13818 -0.0895 2.17519e-21)
(1.13618 -0.0850022 -4.23964e-21)
(1.13423 -0.0805166 7.13732e-21)
(1.13233 -0.0760414 -5.14108e-21)
(1.13048 -0.0715739 -2.83228e-21)
(1.12869 -0.067117 3.43061e-21)
(1.12695 -0.0626647 -5.95932e-22)
(1.12527 -0.0582165 -6.63479e-22)
(1.12365 -0.0537678 1.24259e-21)
(1.1221 -0.0493144 -4.78688e-21)
(1.12063 -0.0448508 3.33621e-21)
(1.11925 -0.0403701 2.59429e-21)
(1.11795 -0.0358646 -2.08611e-22)
(1.11677 -0.0313246 1.026e-21)
(1.11569 -0.0267401 -3.45705e-21)
(1.11475 -0.0220941 7.04693e-22)
(1.11395 -0.0173821 -9.58254e-22)
(1.11332 -0.012561 1.51733e-21)
(1.11286 -0.00765776 3.57823e-21)
(1.11258 -0.00257834 1.43941e-21)
(1.1969 -0.176438 4.61813e-20)
(1.19361 -0.172557 -4.5396e-20)
(1.19005 -0.168375 -2.02787e-20)
(1.18639 -0.164259 3.91066e-20)
(1.18272 -0.160088 6.89849e-21)
(1.17916 -0.155816 -1.67469e-20)
(1.17579 -0.151484 1.05785e-20)
(1.17263 -0.147125 -6.56141e-21)
(1.16964 -0.142747 -3.6417e-20)
(1.1668 -0.138349 4.28723e-20)
(1.16407 -0.13393 -3.30488e-20)
(1.16142 -0.129492 2.54883e-20)
(1.15884 -0.125037 -1.24417e-20)
(1.15632 -0.120567 -1.15454e-20)
(1.15387 -0.116088 7.99904e-22)
(1.15148 -0.111603 3.10145e-20)
(1.14913 -0.107114 -1.72541e-20)
(1.14685 -0.102626 2.08638e-20)
(1.14461 -0.0981402 -2.47839e-20)
(1.14243 -0.0936591 9.77702e-21)
(1.14029 -0.0891852 5.03874e-22)
(1.13821 -0.0847176 -4.49663e-21)
(1.13618 -0.0802592 3.56596e-21)
(1.1342 -0.075809 2.82005e-21)
(1.13227 -0.0713644 -5.0662e-22)
(1.1304 -0.0669282 1.79088e-21)
(1.12859 -0.0624951 -1.88482e-22)
(1.12684 -0.0580644 2.55601e-21)
(1.12516 -0.0536319 1.0533e-21)
(1.12356 -0.0491936 -2.53651e-21)
(1.12203 -0.0447439 -3.29411e-21)
(1.1206 -0.0402765 2.45369e-21)
(1.11926 -0.0357835 5.31574e-21)
(1.11803 -0.0312553 -4.03131e-22)
(1.11692 -0.0266824 1.19013e-21)
(1.11594 -0.0220474 4.29061e-22)
(1.11512 -0.0173463 2.46844e-22)
(1.11445 -0.0125362 -3.34125e-21)
(1.11398 -0.00764199 -3.76926e-21)
(1.11369 -0.0025784 -1.10028e-21)
(1.20108 -0.174325 7.65861e-20)
(1.19774 -0.17061 2.34395e-20)
(1.19415 -0.166571 -5.03565e-20)
(1.19045 -0.162619 -1.2803e-21)
(1.18671 -0.158608 -3.67614e-21)
(1.18303 -0.154475 4.78474e-20)
(1.17951 -0.150261 -2.5985e-20)
(1.17619 -0.146006 -1.33236e-20)
(1.17305 -0.141723 -2.34291e-21)
(1.17008 -0.137414 -5.75149e-22)
(1.16722 -0.133079 2.72201e-20)
(1.16445 -0.128718 -3.97334e-20)
(1.16175 -0.124334 1.84177e-20)
(1.15913 -0.11993 -2.02637e-20)
(1.15657 -0.115511 3.2959e-21)
(1.15407 -0.11108 -6.72928e-21)
(1.15162 -0.106641 2.14791e-20)
(1.14924 -0.102198 -1.04832e-21)
(1.14691 -0.0977535 -6.01263e-22)
(1.14463 -0.0933095 -1.33897e-20)
(1.1424 -0.0888692 4.51224e-21)
(1.14023 -0.0844324 9.68894e-21)
(1.13812 -0.0800015 -1.4858e-20)
(1.13606 -0.0755765 5.70834e-21)
(1.13405 -0.0711551 -3.11566e-21)
(1.13211 -0.0667397 -5.18359e-22)
(1.13023 -0.0623258 5.81204e-21)
(1.12841 -0.0579127 -4.74628e-21)
(1.12667 -0.0534965 6.78314e-21)
(1.12501 -0.0490732 3.80339e-21)
(1.12343 -0.0446376 3.11873e-21)
(1.12194 -0.0401833 7.34704e-22)
(1.12055 -0.0357028 -6.84194e-21)
(1.11928 -0.0311864 1.45652e-21)
(1.11813 -0.0266249 -2.5448e-21)
(1.11713 -0.022001 -4.67641e-21)
(1.11627 -0.0173106 9.8276e-23)
(1.11559 -0.0125116 1.28374e-21)
(1.1151 -0.00762614 -2.2378e-21)
(1.11479 -0.00257834 9.03792e-22)
(1.20517 -0.172198 -4.06771e-20)
(1.20179 -0.168645 -6.01222e-21)
(1.19816 -0.164746 5.61532e-20)
(1.19444 -0.160956 1.56484e-20)
(1.19064 -0.157108 -5.12173e-20)
(1.18686 -0.153117 -1.46725e-20)
(1.1832 -0.149024 3.71234e-20)
(1.17972 -0.144875 -1.62295e-20)
(1.17644 -0.140689 2.33138e-20)
(1.17333 -0.13647 -4.00788e-20)
(1.17034 -0.132219 4.22569e-20)
(1.16746 -0.127936 -1.31174e-20)
(1.16465 -0.123624 -5.44278e-21)
(1.16192 -0.119287 1.25668e-20)
(1.15925 -0.114929 -2.63764e-20)
(1.15665 -0.110553 1.77455e-20)
(1.1541 -0.106165 -1.15335e-20)
(1.15162 -0.101768 2.5463e-20)
(1.14919 -0.0973648 -2.4436e-20)
(1.14682 -0.0929585 2.37827e-23)
(1.1445 -0.0885523 1.67808e-20)
(1.14225 -0.0841465 -1.54739e-20)
(1.14005 -0.0797436 2.69315e-21)
(1.13791 -0.0753439 6.85845e-21)
(1.13583 -0.0709459 5.79009e-22)
(1.13381 -0.0665515 -1.04529e-21)
(1.13186 -0.0621569 -6.81909e-21)
(1.12998 -0.0577615 7.55196e-21)
(1.12817 -0.0533615 9.05346e-22)
(1.12645 -0.0489533 -1.20274e-21)
(1.12482 -0.0445317 -2.57046e-21)
(1.12328 -0.0400905 2.27814e-21)
(1.12184 -0.0356225 2.52561e-21)
(1.12053 -0.0311179 2.00337e-21)
(1.11934 -0.0265678 1.52412e-21)
(1.1183 -0.0219547 -2.03145e-21)
(1.11742 -0.017275 -1.67205e-21)
(1.11671 -0.0124871 -1.21161e-21)
(1.11621 -0.00761021 -1.96226e-21)
(1.11589 -0.00257813 7.3308e-22)
(1.20917 -0.17006 8.42979e-20)
(1.20574 -0.166666 -6.9074e-20)
(1.20208 -0.162902 9.57493e-20)
(1.19834 -0.159273 -5.92962e-20)
(1.19451 -0.155589 -3.33807e-21)
(1.19064 -0.151743 -2.43466e-20)
(1.18686 -0.147775 7.50869e-20)
(1.18324 -0.143735 -3.4345e-21)
(1.17981 -0.139647 -1.20504e-20)
(1.17656 -0.135518 -2.22819e-20)
(1.17345 -0.131351 2.2934e-21)
(1.17045 -0.127147 2.87105e-20)
(1.16753 -0.122909 -2.74248e-20)
(1.16469 -0.118639 1.45695e-20)
(1.16192 -0.114342 -9.05522e-21)
(1.15921 -0.110023 1.5297e-20)
(1.15657 -0.105686 -3.3645e-20)
(1.15399 -0.101335 1.27049e-20)
(1.15146 -0.0969743 2.02106e-21)
(1.149 -0.0926063 7.41273e-21)
(1.1466 -0.0882346 1.67547e-21)
(1.14425 -0.0838601 -8.46555e-21)
(1.14197 -0.0794854 1.1621e-20)
(1.13975 -0.0751115 -7.84863e-21)
(1.13759 -0.0707368 1.02989e-20)
(1.1355 -0.0663636 -6.9468e-21)
(1.13348 -0.0619884 -5.40849e-21)
(1.13154 -0.0576106 -1.90312e-21)
(1.12967 -0.053227 1.14087e-20)
(1.12789 -0.0488338 -4.26172e-21)
(1.1262 -0.0444262 -1.17455e-22)
(1.12461 -0.0399981 -7.35215e-21)
(1.12313 -0.0355424 2.40215e-21)
(1.12177 -0.0310496 2.74778e-21)
(1.12055 -0.0265108 -2.56377e-21)
(1.11947 -0.0219086 1.26636e-21)
(1.11856 -0.0172395 6.88315e-21)
(1.11783 -0.0124626 1.91438e-21)
(1.11731 -0.00759416 1.03144e-20)
(1.11698 -0.0025777 3.01642e-21)
(1.21309 -0.167915 -1.07488e-19)
(1.2096 -0.164678 8.86357e-20)
(1.20591 -0.161045 -2.48142e-20)
(1.20216 -0.157572 -1.90251e-20)
(1.19831 -0.154051 3.90201e-20)
(1.19439 -0.150354 -2.29284e-20)
(1.19049 -0.146513 -9.69568e-21)
(1.18674 -0.142585 -9.35336e-21)
(1.18317 -0.138596 3.65949e-20)
(1.17978 -0.134559 -1.40587e-20)
(1.17654 -0.130477 3.19262e-23)
(1.17342 -0.126352 2.41773e-20)
(1.17039 -0.122187 -3.85965e-20)
(1.16745 -0.117986 2.83184e-20)
(1.16457 -0.113751 -5.06751e-21)
(1.16177 -0.109489 3.08041e-21)
(1.15902 -0.105204 -2.38439e-20)
(1.15635 -0.1009 1.52794e-20)
(1.15373 -0.0965823 -1.54832e-20)
(1.15118 -0.092253 -1.15742e-20)
(1.14868 -0.0879162 -3.12101e-21)
(1.14625 -0.0835734 3.00625e-21)
(1.14389 -0.0792272 5.99727e-21)
(1.14159 -0.0748791 -3.89182e-21)
(1.13935 -0.070528 -6.81393e-21)
(1.13719 -0.0661759 7.17064e-21)
(1.1351 -0.0618202 4.05834e-21)
(1.13309 -0.0574602 -4.3789e-21)
(1.13116 -0.0530928 7.64448e-22)
(1.12932 -0.0487146 -1.80634e-21)
(1.12757 -0.044321 7.64358e-21)
(1.12593 -0.039906 -8.01672e-21)
(1.1244 -0.0354626 1.76586e-21)
(1.123 -0.0309814 -7.9747e-22)
(1.12174 -0.0264539 1.39758e-21)
(1.12063 -0.0218625 3.46637e-21)
(1.11969 -0.0172039 -2.88373e-21)
(1.11894 -0.0124381 -2.92085e-22)
(1.1184 -0.00757796 -6.17421e-21)
(1.11807 -0.00257701 -3.27909e-21)
(1.21693 -0.165768 -7.29725e-20)
(1.21339 -0.162682 -6.748e-20)
(1.20965 -0.159177 1.05248e-19)
(1.20589 -0.155856 -6.9148e-20)
(1.20204 -0.152498 -3.16947e-20)
(1.19808 -0.148949 1.06678e-19)
(1.1941 -0.145239 -3.14614e-20)
(1.19022 -0.141425 -4.69455e-20)
(1.18651 -0.137539 2.44554e-20)