/*--------------------------------*- C++ -*----------------------------------*\
  =========                 |
  \\      /  F ield         | OpenFOAM: The Open Source CFD Toolbox
   \\    /   O peration     | Website:  https://openfoam.org
    \\  /    A nd           | Version:  7
     \\/     M anipulation  |
\*---------------------------------------------------------------------------*/
FoamFile
{
    version     2.0;
    format      ascii;
    class       surfaceScalarField;
    location    "160";
    object      phi;
}
// * * * * * * * * * * * * * * * * * * * * * * * * * * * * * * * * * * * * * //

dimensions      [0 3 -1 0 0 0 0];

internalField   nonuniform List<scalar> 
3886
(
0.00482069
-0.00506996
0.00466433
-0.00456286
0.00453261
-0.00396204
0.00444427
-0.00314914
0.00441335
-0.00211388
0.00444223
-0.000787818
0.00452243
0.000713633
0.00464309
0.00234692
0.00478826
0.00397374
0.00495037
0.00545583
0.00511288
0.00670887
0.00526906
0.00740706
0.00540313
0.00754232
0.00550546
0.0066381
0.00557115
0.00498139
0.00558665
0.00238468
0.0055536
-0.000305786
0.00545942
-0.00294065
0.00533225
-0.00479724
0.0051737
-0.00584815
0.00500507
-0.00633843
0.00481402
-0.00587775
0.00464104
-0.00602008
0.00449901
-0.00423043
0.0044339
-0.00403572
0.00444034
-0.00067411
0.00447569
0.000557829
0.0045995
0.00354212
0.00637481
0.0048281
-0.00302732
0.00468295
-0.00276161
0.00454979
-0.00244085
0.00444924
-0.0020102
0.0043993
-0.00142711
0.00440618
-0.000698305
0.00446444
0.000120998
0.00456258
0.000960493
0.0046897
0.0017738
0.00483866
0.00255496
0.00500628
0.00332933
0.00519166
0.00412516
0.00539363
0.00493465
0.00560759
0.00568574
0.00582407
0.00623813
0.00602848
0.0064186
0.0062012
0.00607651
0.00632222
0.00513734
0.00637824
0.00362098
0.00636442
0.00166857
0.00628397
-0.000458984
0.00614819
-0.0024375
0.00597373
-0.00399961
0.00577948
-0.00501473
0.00558228
-0.00549127
0.00539323
-0.00553959
0.00521366
-0.0052927
0.00504164
-0.00489793
0.00487951
-0.00440073
0.00474156
-0.00382409
0.00464678
-0.00305436
0.00461097
-0.00207808
0.00463847
-0.000815315
0.00472141
0.000630688
0.00484937
0.00221897
0.00500521
0.00381789
0.00518148
0.00527956
0.00536021
0.00653014
0.00553379
0.00723348
0.00568449
0.00739162
0.00580022
0.00652236
0.0058755
0.00490611
0.00589422
0.00236596
0.00585725
-0.000268811
0.00575131
-0.00283472
0.00560767
-0.00465361
0.00543215
-0.00567262
0.0052499
-0.00615618
0.00504724
-0.0056751
0.00486298
-0.00583581
0.00471033
-0.00407778
0.00463699
-0.00396239
0.00464489
-0.000682009
0.00468255
0.00052017
0.00481945
0.00340523
0.00629313
0.00504513
-0.00288328
0.00490166
-0.00261814
0.00476781
-0.002307
0.00466276
-0.00190515
0.00460581
-0.00137016
0.00460604
-0.000698528
0.00466005
6.69884e-05
0.00475696
0.000863577
0.00488553
0.00164524
0.00503813
0.00240236
0.00521155
0.00315591
0.00540526
0.00393145
0.00561835
0.00472155
0.00584626
0.00545784
0.0060792
0.00600518
0.00630109
0.00619672
0.00649006
0.00588754
0.0066244
0.005003
0.006689
0.00355638
0.0066773
0.00168026
0.00659226
-0.000373943
0.00644688
-0.00229212
0.00625988
-0.00381261
0.0060518
-0.00480665
0.00584081
-0.00528029
0.00563965
-0.00533843
0.00545089
-0.00510394
0.00527247
-0.00471951
0.00510495
-0.00423322
0.00496102
-0.00368016
0.00485959
-0.00295293
0.00481817
-0.00203665
0.00484344
-0.000840592
0.00492853
0.000545607
0.00506369
0.00208381
0.00523058
0.003651
0.00542176
0.00508838
0.00561785
0.00633406
0.00580999
0.00704133
0.00597848
0.00722314
0.00610865
0.00639219
0.0061943
0.00482046
0.00621646
0.0023438
0.00617525
-0.000227605
0.00605703
-0.0027165
0.00589608
-0.00449265
0.00570263
-0.00547916
0.0055061
-0.00595966
0.00529192
-0.00546091
0.00509635
-0.00564025
0.00493301
-0.00391443
0.00485014
-0.00387953
0.00485924
-0.000691107
0.00489901
0.0004804
0.00504957
0.00325467
0.00619658
0.00527146
-0.00274062
0.00513042
-0.00247711
0.00499712
-0.0021737
0.00488851
-0.00179655
0.0048245
-0.00130615
0.00481694
-0.000690967
0.00486514
1.87914e-05
0.00495943
0.000769284
0.00508843
0.00151624
0.005244
0.00224679
0.00542272
0.0029772
0.00562422
0.00372994
0.00584786
0.00449791
0.00608929
0.00521641
0.00633844
0.00575603
0.00657764
0.00595752
0.00678302
0.00568216
0.00693112
0.0048549
0.0070047
0.0034828
0.00699543
0.00168954
0.0069064
-0.000284917
0.00675224
-0.00213796
0.00655363
-0.003614
0.00633261
-0.00458562
0.00610851
-0.0050562
0.00589558
-0.0051255
0.00569778
-0.00490614
0.00551325
-0.00453498
0.00534086
-0.00406084
0.00519137
-0.00353066
0.00508323
-0.00284479
0.00503548
-0.0019889
0.00505754
-0.000862658
0.0051439
0.00045925
0.00528593
0.00194178
0.00546402
0.0034729
0.00567076
0.00488164
0.00588525
0.00611957
0.006097
0.00682958
0.00628442
0.00703572
0.00643009
0.00624652
0.00652684
0.00472371
0.00655261
0.00231803
0.00650685
-0.000181838
0.00637592
-0.00258557
0.00619701
-0.00431374
0.00598489
-0.00526705
0.00577357
-0.00574834
0.00554812
-0.00523546
0.00534143
-0.00543356
0.00516757
-0.00374057
0.00507379
-0.00378575
0.00508364
-0.000700964
0.00512523
0.000438813
0.00528982
0.00309008
0.00608328
0.00550729
-0.00259941
0.00536927
-0.00233909
0.00523779
-0.00204221
0.00512694
-0.00168569
0.00505624
-0.00123545
0.00503999
-0.000674724
0.00508069
-2.19068e-05
0.0051706
0.000679379
0.00529864
0.00138819
0.00545619
0.00208924
0.00563943
0.00279396
0.00584792
0.00352144
0.00608127
0.00426456
0.00633552
0.00496217
0.00660027
0.00549128
0.00685632
0.00570146
0.00707803
0.00546045
0.00724003
0.0046929
0.00732273
0.0034001
0.00731635
0.00169592
0.00722425
-0.000192818
0.00706261
-0.00197632
0.00685377
-0.00340516
0.00662108
-0.00435293
0.00638489
-0.00482001
0.00616081
-0.00490142
0.0059543
-0.00469963
0.00576403
-0.00434471
0.00558739
-0.0038842
0.00543294
-0.00337621
0.00531821
-0.00273006
0.00526347
-0.00193416
0.0052812
-0.000880385
0.00536768
0.00037277
0.00551589
0.00179357
0.00570509
0.0032837
0.00592782
0.00465892
0.00616159
0.00588579
0.00639382
0.00659735
0.00660125
0.0068283
0.00676346
0.0060843
0.00687202
0.00461515
0.00690153
0.00228852
0.00685087
-0.000131186
0.00670693
-0.00244163
0.00650973
-0.00411654
0.00627852
-0.00503584
0.00605205
-0.00552186
0.0058158
-0.00499921
0.00559838
-0.00521614
0.00541452
-0.00355671
0.00530839
-0.00367962
0.00531834
-0.000710917
0.00536134
0.000395821
0.00554001
0.00291141
0.00595128
0.00575283
-0.00245967
0.00561822
-0.00220449
0.00548979
-0.00191378
0.00537828
-0.00157418
0.00530181
-0.00115898
0.0052764
-0.000649316
0.00530793
-5.34421e-05
0.00539136
0.000595958
0.00551657
0.00126297
0.00567468
0.00193113
0.00586129
0.00260736
0.00607565
0.00330708
0.00631761
0.0040226
0.00658366
0.00469612
0.00686301
0.00521193
0.00713512
0.00542935
0.00737272
0.00522285
0.00754837
0.00451726
0.00764019
0.00330828
0.00763724
0.00169887
0.00754341
-9.89889e-05
0.00737611
-0.00180902
0.00715892
-0.00318797
0.00691628
-0.00411029
0.00666938
-0.00457311
0.00643507
-0.00466711
0.00622037
-0.00448494
0.00602481
-0.00414915
0.00584463
-0.00370402
0.00568599
-0.00321756
0.00556504
-0.00260911
0.00550278
-0.00187189
0.00551493
-0.000892538
0.00560006
0.000287635
0.00575334
0.00164029
0.00595322
0.00308381
0.00619207
0.00442007
0.00644576
0.00563209
0.00669914
0.00634398
0.00692752
0.00659992
0.00710728
0.00590454
0.00722827
0.00449416
0.00726162
0.00225518
0.00720574
-7.53102e-05
0.00704866
-0.00228455
0.00683318
-0.00390106
0.00658284
-0.0047855
0.00634113
-0.00528015
0.00609481
-0.0047529
0.00586726
-0.00498859
0.00567433
-0.00336378
0.00555448
-0.00355976
0.0055636
-0.000720039
0.00560743
0.000351992
0.00579986
0.00271897
0.00579869
0.00600832
-0.00232137
0.0058773
-0.00207346
0.00575293
-0.00178941
0.00564255
-0.0014638
0.0055618
-0.00107823
0.00552739
-0.000614906
0.00554831
-7.43617e-05
0.00562296
0.000521307
0.00574299
0.00114295
0.00589966
0.00177446
0.00608796
0.00241906
0.00630669
0.00308835
0.00655586
0.00377342
0.00683232
0.00441966
0.00712488
0.00491937
0.00741189
0.00514233
0.00766452
0.00497023
0.00785317
0.00432861
0.00795388
0.00320757
0.00795514
0.00169761
0.0078614
-5.24935e-06
0.00769082
-0.00163844
0.00746767
-0.00296482
0.00721719
-0.00385981
0.00696133
-0.00431724
0.00671802
-0.0044238
0.00649586
-0.00426278
0.00629554
-0.00394883
0.00611259
-0.00352108
0.00595071
-0.00305568
0.00582418
-0.00248258
0.00575407
-0.00180178
0.00575936
-0.000897833
0.00584136
0.000205636
0.00599811
0.00148354
0.00620779
0.00287413
0.00646246
0.00416541
0.00673632
0.00535823
0.00701121
0.00606909
0.00726131
0.00634981
0.00745951
0.00570635
0.00759351
0.00436015
0.00763074
0.00221795
0.00756938
-1.39431e-05
0.00739925
-0.00211443
0.00716597
-0.00366777
0.00689699
-0.00451652
0.00664027
-0.00502344
0.00638487
-0.0044975
0.00614802
-0.00475174
0.00594741
-0.00316318
0.00581262
-0.00342497
0.0058197
-0.000727118
0.00586361
0.000308085
0.00606897
0.00251362
0.00562373
0.00627408
-0.00218453
0.00614658
-0.00194597
0.00602699
-0.00166983
0.0059195
-0.0013563
0.00583648
-0.00099521
0.00579399
-0.000572412
0.0058035
-8.38768e-05
0.00586709
0.00045772
0.0059791
0.00103094
0.00613164
0.00162191
0.00631931
0.00223139
0.00654043
0.00286723
0.00679503
0.00351883
0.00708011
0.00413457
0.00738411
0.00461537
0.00768444
0.00484201
0.00795071
0.00470396
0.00815122
0.0041281
0.00826047
0.00309831
0.008267
0.00169109
0.00817575
8.60019e-05
0.00800489
-0.00146758
0.00777865
-0.00273859
0.00752282
-0.00360398
0.00726005
-0.00405448
0.00700927
-0.00417302
0.00678059
-0.0040341
0.00657613
-0.00374436
0.00639125
-0.0033362
0.00622721
-0.00289165
0.00609604
-0.0023514
0.00601804
-0.00172378
0.00601523
-0.000895028
0.00609203
0.000128831
0.00625011
0.00132547
0.00646817
0.00265607
0.00673778
0.0038958
0.00703153
0.00506448
0.00732789
0.00577272
0.00760021
0.0060775
0.0078176
0.00548896
0.00796508
0.00421267
0.00800621
0.00217681
0.00793917
5.31017e-05
0.0077564
-0.00193166
0.00750633
-0.0034177
0.00721984
-0.00423002
0.00694877
-0.00475237
0.00668559
-0.00423431
0.00644048
-0.00450663
0.00623406
-0.00295676
0.00608346
-0.00327437
0.006087
-0.000730658
0.00612999
0.000265089
0.00634682
0.00229679
0.0054249
0.00655042
-0.00204926
0.00642625
-0.00182179
0.00631175
-0.00155533
0.00620865
-0.00125321
0.00612569
-0.000912248
0.00607693
-0.000523647
0.00607511
-8.20616e-05
0.00612579
0.000407042
0.00622671
0.00093002
0.00637175
0.00147688
0.0065557
0.00204743
0.00677658
0.00264636
0.0070343
0.0032611
0.0073258
0.00384308
0.00763906
0.00430211
0.00795063
0.00453044
0.00822854
0.00442605
0.00843926
0.00391738
0.00855669
0.00298088
0.00857
0.00167778
0.00848431
0.000171689
0.0083167
-0.00129997
0.00809064
-0.00251253
0.00783221
-0.00334555
0.00756487
-0.00378714
0.00730843
-0.00391657
0.00707441
-0.00380008
0.0068665
-0.00353646
0.00668051
-0.0031502
0.0065155
-0.00272664
0.0063809
-0.00221681
0.00629535
-0.00163823
0.00628336
-0.000883045
0.00635274
5.94539e-05
0.00650948
0.00116873
0.00673382
0.00243174
0.00701672
0.00361289
0.0073294
0.0047518
0.00764668
0.00545545
0.0079413
0.00578288
0.00817841
0.00525185
0.00833968
0.0040514
0.00838468
0.0021318
0.00831198
0.000125811
0.00811738
-0.00173706
0.00785222
-0.00315254
0.00755008
-0.00392789
0.00726582
-0.00446811
0.00699645
-0.00396494
0.00674433
-0.00425452
0.00653445
-0.00274688
0.00636766
-0.00310757
0.00636595
-0.000728948
0.00640677
0.00022427
0.00663287
0.00207068
0.0052011
0.00683767
-0.00191584
0.00671658
-0.0017007
0.00660708
-0.00144584
0.00650942
-0.00115555
0.00642885
-0.000831674
0.00637639
-0.000471184
0.00636447
-7.0149e-05
0.00640132
0.000370194
0.0064883
0.000843039
0.00662199
0.00134319
0.00679833
0.00187108
0.00701554
0.00242915
0.00727341
0.00300323
0.00756857
0.00354792
0.00788846
0.00398223
0.00820858
0.00421031
0.00849537
0.00413926
0.00871422
0.00369853
0.00883966
0.00285544
0.00886199
0.00165546
0.00878551
0.000248168
0.0086251
-0.00113957
0.0084027
-0.00229012
0.00814458
-0.00308743
0.00787514
-0.0035177
0.00761506
-0.0036565
0.00737711
-0.00356212
0.00716657
-0.00332592
0.00698026
-0.00296389
0.00681547
-0.00256186
0.00667892
-0.00208025
0.0065866
-0.00154591
0.0065647
-0.00086114
0.00662441
-2.60295e-07
0.00677665
0.0010165
0.00700439
0.00220399
0.00729802
0.00331927
0.00762777
0.00442205
0.00796472
0.0051185
0.00828125
0.00546634
0.00853829
0.00499481
0.0087134
0.00387629
0.00876226
0.00208295
0.0086841
0.000203964
0.00847907
-0.00153202
0.00820127
-0.00287475
0.00788624
-0.00361285
0.00759052
-0.0041724
0.00731688
-0.0036913
0.00705919
-0.00399682
0.0068486
-0.00253629
0.00666594
-0.00292492
0.00665717
-0.000720171
0.00669426
0.000187174
0.00692656
0.00183838
0.00495189
0.00713612
-0.00178469
0.00701794
-0.00158252
0.00691306
-0.00134096
0.00682126
-0.00106374
0.00674504
-0.000755455
0.00669183
-0.000417968
0.0066723
-5.06246e-05
0.00669579
0.000346713
0.00676686
0.000771966
0.00688543
0.00122462
0.00704972
0.00170679
0.00725899
0.00221988
0.00751321
0.00274901
0.0078086
0.00325252
0.00813174
0.00365909
0.00845679
0.00388526
0.00874885
0.0038472
0.00897359
0.00347379
0.00910751
0.00272152
0.00914184
0.00162112
0.0090788
0.000311206
0.00892964
-0.000990398
0.00871429
-0.00207477
0.00845932
-0.00283246
0.00819031
-0.00324869
0.00792878
-0.00339496
0.00768851
-0.00332184
0.00747626
-0.00311367
0.00729038
-0.00277801
0.00712696
-0.00239844
0.0069901
-0.00194339
0.00689228
-0.0014481
0.00686022
-0.000829078
0.00690826
-4.83029e-05
0.00705247
0.000872288
0.00727992
0.00197654
0.00758059
0.0030186
0.00792446
0.00407818
0.008279
0.00476396
0.00861642
0.00512892
0.00889314
0.0047181
0.00908182
0.00368761
0.00913432
0.00203044
0.00905158
0.000286704
0.00883811
-0.00131855
0.00855103
-0.00258767
0.00822675
-0.00328856
0.00792197
-0.00386762
0.00764627
-0.0034156
0.00738456
-0.00373511
0.00717631
-0.00232803
0.00697898
-0.0027276
0.00696147
-0.000702657
0.00699303
0.000155614
0.00722743
0.00160398
0.00467767
0.00744597
-0.00165635
0.00733073
-0.00146727
0.00722996
-0.0012402
0.00714383
-0.000977614
0.00707318
-0.000684803
0.00702211
-0.000366896
0.00699833
-2.6843e-05
0.00701058
0.000334466
0.00706543
0.000717113
0.00716613
0.00112393
0.00731405
0.00155887
0.00751058
0.00202336
0.00775649
0.0025031
0.00804767
0.00296133
0.00836948
0.00333728
0.00869453
0.00356021
0.00898752
0.00355422
0.00921626
0.00324504
0.00936017
0.00257761
0.00941037
0.00157093
0.00936499
0.00035658
0.00923068
-0.000856088
0.00902534
-0.00186944
0.0087761
-0.00258322
0.00850995
-0.00298255
0.00824922
-0.00313423
0.00800843
-0.00308106
0.00779553
-0.00290077
0.00761078
-0.00259325
0.00744973
-0.00223739
0.00731423
-0.00180789
0.00721266
-0.00134653
0.00717088
-0.000787298
0.00720575
-8.31734e-05
0.00733829
0.000739742
0.00756095
0.00175389
0.00786376
0.00271579
0.00821754
0.00372439
0.00858662
0.00439488
0.00894312
0.00477242
0.00923861
0.00442261
0.00944009
0.00348612
0.00949624
0.00197429
0.00940994
0.000373
0.00919112
-0.00109973
0.00889902
-0.00229557
0.0085701
-0.00295964
0.00825933
-0.00355685
0.00798403
-0.0031403
0.00771996
-0.00347104
0.00751719
-0.00212527
0.00730738
-0.00251778
0.00727986
-0.000675136
0.00730394
0.000131534
0.00753528
0.00137263
0.00438004
0.00776733
-0.00153144
0.00765526
-0.0013552
0.0075582
-0.00114314
0.00747714
-0.000896548
0.0074124
-0.000620063
0.00736564
-0.000320136
0.00734123
-2.43875e-06
0.00734585
0.000329854
0.00738635
0.000676609
0.00746848
0.0010418
0.00759701
0.00143033
0.00777628
0.00184409
0.00800862
0.00227076
0.00828986
0.0026801
0.00860401
0.00302313
0.0089227
0.00324152
0.00921207
0.00326485
0.009444
0.00301311
0.00960065
0.00242096
0.00967076
0.00150081
0.00964648
0.00038086
0.00952949
-0.000739096
0.00933624
-0.00167619
0.00909482
-0.0023418
0.00883379
-0.00272151
0.00857609
-0.00287653
0.00833675
-0.00284172
0.00812441
-0.00268844
0.00794144
-0.00241028
0.00778354
-0.00207949
0.00765098
-0.00167533
0.00754774
-0.00124329
0.00749747
-0.00073702
0.00751848
-0.000104184
0.00763595
0.00062227
0.00784868
0.00154115
0.00814755
0.00241692
0.00850567
0.00336628
0.00888513
0.00401542
0.00925797
0.00439958
0.00957042
0.00411016
0.00978331
0.00327324
0.009843
0.0019146
0.00975508
0.000460927
0.00953496
-0.000879614
0.00924308
-0.00200369
0.00891496
-0.00263152
0.00860192
-0.00324381
0.00832965
-0.00286803
0.00806492
-0.00320631
0.00787064
-0.00193099
0.00765152
-0.00229866
0.00761346
-0.000637074
0.00762821
0.000116777
0.00785028
0.00115057
0.00406205
0.00810028
-0.0014105
0.00799178
-0.0012467
0.00789824
-0.00104961
0.00782151
-0.00081982
0.00776227
-0.000560821
0.00772085
-0.000278715
0.00769893
1.94806e-05
0.00770025
0.000328538
0.00773038
0.000646471
0.00779606
0.000976126
0.00790472
0.00132166
0.00806373
0.00168508
0.00827738
0.00205711
0.00854176
0.00241572
0.00884031
0.00272458
0.00914549
0.00293634
0.0094275
0.00298284
0.00966332
0.00277729
0.00983597
0.00224831
0.00992892
0.00140786
0.00992704
0.000382738
0.00982794
-0.00064
0.00964767
-0.00149591
0.00941562
-0.00210975
0.00916169
-0.00246758
0.00890921
-0.00262405
0.00867333
-0.00260584
0.00846294
-0.00247805
0.0082824
-0.00222974
0.00812819
-0.00192528
0.00799986
-0.001547
0.00789725
-0.00114068
0.00784047
-0.000680242
0.007848
-0.000111718
0.00794766
0.000522618
0.0081451
0.0013437
0.00843299
0.00212904
0.00878859
0.00301067
0.00917319
0.00363082
0.00955844
0.00401433
0.00988484
0.00378376
0.0101069
0.00305117
0.0101702
0.00185134
0.0100834
0.000547653
0.0098672
-0.000663372
0.00958161
-0.0017181
0.00926039
-0.0023103
0.0089493
-0.00293272
0.00868277
-0.0026015
0.00841913
-0.00294267
0.0082359
-0.00174775
0.00801153
-0.00207429
0.00796342
-0.000588969
0.00796746
0.000112742
0.00817319
0.000944831
0.00372847
0.00844485
-0.00129399
0.00834037
-0.00114222
0.00825045
-0.000959683
0.00817749
-0.000746856
0.00812286
-0.000506189
0.00808675
-0.000242612
0.00806916
3.70722e-05
0.00807119
0.000326511
0.00809617
0.00062149
0.00815017
0.000922128
0.00824175
0.00123008
0.00838021
0.00154662
0.00857137
0.00186595
0.00881207
0.00217502
0.00908695
0.0024497
0.00937243
0.00265086
0.00964511
0.00271016
0.00988642
0.00253598
0.0100769
0.00205781
0.0101925
0.00129232
0.010211
0.000364166
0.0101281
-0.000557038
0.00996044
-0.00132828
0.00973875
-0.00188807
0.00949371
-0.00222254
0.00924851
-0.00237884
0.00901812
-0.00237545
0.00881119
-0.00227112
0.0086338
-0.00205234
0.00848361
-0.00177509
0.00836037
-0.00142376
0.00826058
-0.00104089
0.00819994
-0.0006196
0.00819557
-0.000107349
0.00827581
0.000442382
0.00845296
0.00116655
0.00872246
0.00185953
0.00906784
0.0026653
0.00945121
0.00324744
0.00984345
0.00362209
0.0101792
0.00344798
0.0104074
0.00282301
0.0104744
0.00178428
0.0103928
0.00062933
0.0101866
-0.000457238
0.00991395
-0.00144541
0.00960599
-0.00200234
0.0093014
-0.00262813
0.00904323
-0.00234333
0.00878245
-0.00268189
0.0086121
-0.00157741
0.00838721
-0.0018494
0.00833066
-0.000532423
0.00832347
0.000119932
0.0085055
0.000762809
0.00338591
0.00880113
-0.00118227
0.00870109
-0.00104217
0.00861505
-0.000873645
0.00854559
-0.000677397
0.00849471
-0.000455309
0.00846309
-0.00021099
0.00845025
4.99068e-05
0.00845567
0.000321089
0.00848048
0.000596679
0.00852898
0.000873632
0.00860894
0.00115013
0.00872965
0.00142591
0.00889729
0.0016983
0.00910992
0.00196239
0.00935587
0.00220375
0.00961854
0.0023882
0.00988187
0.00244682
0.0101292
0.00228869
0.0103355
0.00185143
0.0104686
0.00115931
0.010502
0.000330779
0.0104314
-0.000486476
0.0102752
-0.0011721
0.0100646
-0.00167747
0.0098301
-0.00198802
0.00959408
-0.00214282
0.00937114
-0.00215251
0.00916929
-0.00206928
0.00899585
-0.00187889
0.00884988
-0.00162912
0.00873211
-0.001306
0.00863696
-0.000945735
0.00857537
-0.000558015
0.00856178
-9.37605e-05
0.00862259
0.000381577
0.00877564
0.0010135
0.00902
0.00161517
0.00934727
0.00233804
0.00972208
0.00287263
0.0101141
0.00323008
0.0104528
0.00310925
0.0106831
0.00259269
0.0107547
0.00171273
0.0106829
0.000701103
0.0104938
-0.000268129
0.0102407
-0.00119229
0.00995212
-0.00171377
0.00965853
-0.00233454
0.00941111
-0.00209591
0.00915499
-0.00242576
0.00899841
-0.00142083
0.00877793
-0.00162892
0.00871572
-0.000470217
0.00869798
0.000137672
0.00884944
0.000611348
0.00304263
0.00916926
-0.00107562
0.00907394
-0.000946846
0.00899211
-0.000791811
0.00892618
-0.000611472
0.00887848
-0.000407606
0.0088503
-0.000182809
0.00884156
5.86431e-05
0.00885133
0.000311318
0.00887936
0.000568651
0.00892793
0.000825066
0.00900259
0.00107547
0.00911065
0.00131785
0.0092573
0.00155165
0.00944222
0.00177748
0.00965927
0.00198669
0.00990016
0.00214731
0.0101547
0.00219225
0.0104053
0.00203816
0.0106201
0.00163656
0.0107611
0.00101835
0.0108013
0.000290514
0.0107386
-0.000423683
0.0105925
-0.00102607
0.0103937
-0.00147869
0.0101713
-0.00176559
0.00994624
-0.00191775
0.00973251
-0.00193877
0.00953736
-0.00187413
0.00936881
-0.00171034
0.00922723
-0.00148753
0.00911487
-0.00119364
0.00902553
-0.000856388
0.00896575
-0.000498234
0.00894639
-7.4407e-05
0.00898957
0.000338397
0.00911689
0.000886187
0.00933124
0.00140081
0.00963327
0.00203601
0.0099914
0.0025145
0.010374
0.00284744
0.0107076
0.00277572
0.0109357
0.0023646
0.0110131
0.00163531
0.0109566
0.000757537
0.0107915
-0.000102985
0.0105639
-0.000964681
0.0102999
-0.0014498
0.0100214
-0.00205606
0.00978675
-0.00186123
0.00953713
-0.00217614
0.0093941
-0.0012778
0.00918283
-0.00141765
0.00911837
-0.00040576
0.00909212
0.000163924
0.00920792
0.000495549
0.00270798
0.00954942
-0.000974215
0.00945903
-0.000856457
0.00938162
-0.000714402
0.00931943
-0.000549279
0.00927469
-0.000362872
0.00924916
-0.000157272
0.00924344
6.43628e-05
0.00925709
0.000297666
0.00928952
0.000536222
0.00934147
0.000773114
0.00941582
0.00100112
0.00951683
0.00121684
0.00964795
0.00142053
0.00981049
0.00161494
0.010004
0.00179316
0.010227
0.00192428
0.0104724
0.00194688
0.0107194
0.00179117
0.0109315
0.00142452
0.0110691
0.000880677
0.0111083
0.000251372
0.0110495
-0.000364881
0.0109129
-0.000889528
0.0107269
-0.00129269
0.0105181
-0.00155675
0.0103055
-0.00170517
0.0101025
-0.00173576
0.00991555
-0.0016872
0.00975293
-0.00154772
0.00961602
-0.00135062
0.00950873
-0.00108636
0.00942561
-0.000773271
0.00936974
-0.000442362
0.00934829
-5.29535e-05
0.00937738
0.000309305
0.00948013
0.000783436
0.00966262
0.00121832
0.00993395
0.00176469
0.0102669
0.0021815
0.0106296
0.00248476
0.0109488
0.00245653
0.0111706
0.00214281
0.0112558
0.00155009
0.01122
0.000793362
0.0110847
3.232e-05
0.010887
-0.000766938
0.0106512
-0.00121409
0.0103911
-0.00179593
0.0101707
-0.00164079
0.00992948
-0.00193494
0.0097988
-0.00114712
0.00960085
-0.0012197
0.00953769
-0.0003426
0.00950614
0.000195472
0.00958417
0.000417524
0.0023913
0.00994183
-0.000878249
0.00985649
-0.000771114
0.00978366
-0.000641568
0.00972535
-0.000490968
0.00968364
-0.000321162
0.00966035
-0.000133984
0.00965672
6.79885e-05
0.00967311
0.000281278
0.00970929
0.00050004
0.00976523
0.000717177
0.00984159
0.000924754
0.0099398
0.00111863
0.0100616
0.00129869
0.0102097
0.0014669
0.0103874
0.00161546
0.0105967
0.00171499
0.0108304
0.00171315
0.011065
0.00155655
0.011263
0.00122656
0.011388
0.00075565
0.0114207
0.000218676
0.0113641
-0.000308282
0.0112374
-0.000762775
0.0110653
-0.00112065
0.0108714
-0.00136287
0.0106726
-0.00150636
0.0104815
-0.00154465
0.0103041
-0.00150975
0.0101484
-0.00139208
0.0100166
-0.00121885
0.00991402
-0.000983733
0.00983687
-0.000696114
0.00978605
-0.000391548
0.00976572
-3.26248e-05
0.00978543
0.000289597
0.00986758
0.00070129
0.0100197
0.00106617
0.0102572
0.0015272
0.0105573
0.00188141
0.0108895
0.00215252
0.011186
0.00216006
0.0113985
0.00193036
0.0114935
0.00145508
0.0114823
0.000804548
0.0113801
0.000134485
0.0112143
-0.000601088
0.0110084
-0.00100824
0.0107688
-0.00155631
0.0105635
-0.00143551
0.0103328
-0.00170416
0.0102124
-0.00102682
0.010031
-0.00103825
0.009972
-0.000283609
0.00993921
0.000228268
0.00998126
0.00037547
0.0021006
0.0103467
-0.00078786
0.0102665
-0.000690885
0.0101983
-0.000573372
0.010144
-0.000436638
0.0101054
-0.000282529
0.0100843
-0.000112921
0.0100822
7.00651e-05
0.0101002
0.000263284
0.0101386
0.000461645
0.0101972
0.000658596
0.0102754
0.000846587
0.0103727
0.00102125
0.01049
0.00118137
0.0106303
0.00132661
0.0107983
0.00144748
0.010996
0.00151736
0.0112143
0.00149481
0.0114289
0.00134194
0.0116052
0.00105027
0.0117129
0.000647989
0.0117375
0.000194065
0.0116834
-0.000254244
0.0115675
-0.000646855
0.0114106
-0.000963717
0.0112327
-0.00118497
0.0110485
-0.00132222
0.0108702
-0.00136626
0.0107032
-0.00134278
0.0105555
-0.00124436
0.0104295
-0.00109286
0.0103313
-0.000885516
0.0102594
-0.000624239
0.0102138
-0.000345956
0.0101968
-1.56656e-05
0.0102121
0.000274368
0.0102793
0.000634006
0.0104054
0.000940074
0.0106086
0.00132403
0.0108703
0.00161975
0.0111642
0.00185864
0.0114322
0.00189205
0.0116337
0.00172884
0.0117397
0.00134908
0.0117543
0.000789967
0.0116854
0.000203349
0.0115505
-0.000466218
0.0113739
-0.000831647
0.0111557
-0.00133809
0.010966
-0.0012458
0.0107477
-0.00148582
0.0106355
-0.000914614
0.0104724
-0.000875152
0.0104194
-0.000230633
0.0103894
0.000258202
0.0104015
0.000363385
0.00184116
0.0107644
-0.000703143
0.0106893
-0.000615817
0.0106258
-0.000509783
0.0105754
-0.000386282
0.01054
-0.000247109
0.0105211
-9.40329e-05
0.0105204
7.07603e-05
0.0105392
0.000244482
0.0105783
0.000422581
0.0106375
0.000599377
0.0107158
0.000768215
0.0108123
0.000924769
0.0109272
0.00106654
0.0110631
0.0011907
0.0112238
0.00128674
0.0114093
0.00133188
0.0116088
0.00129529
0.0117993
0.00115142
0.0119516
0.000898021
0.0120417
0.000557887
0.0120597
0.000176069
0.0120097
-0.000204305
0.0119058
-0.000542913
0.0117647
-0.000822628
0.0116033
-0.00102358
0.0114343
-0.00115326
0.0112691
-0.00120106
0.0111133
-0.00118692
0.0109743
-0.00110535
0.0108548
-0.000973364
0.010761
-0.000791742
0.0106936
-0.000556892
0.0106527
-0.000305048
0.0106402
-3.09248e-06
0.0106549
0.00025961
0.0107132
0.000575704
0.0108189
0.000834369
0.01099
0.00115298
0.0112116
0.00139812
0.011464
0.00160623
0.0117017
0.00165437
0.0118919
0.00153868
0.0120081
0.0012328
0.0120462
0.000751904
0.012007
0.000242532
0.0118997
-0.000358908
0.0117498
-0.000681795
0.0115529
-0.00114111
0.0113788
-0.0010717
0.0111748
-0.00128185
0.0110686
-0.000808424
0.0109244
-0.000730972
0.010878
-0.000184216
0.0108544
0.000281816
0.0108459
0.000371825
0.00161473
0.0111951
-0.000624138
0.0111252
-0.000545908
0.0110662
-0.000450776
0.0110197
-0.000339838
0.0109875
-0.000214818
0.0109708
-7.74253e-05
0.0109714
7.01869e-05
0.0109906
0.000225334
0.0110292
0.000383958
0.0110873
0.000541232
0.0111641
0.00069144
0.0112585
0.000830383
0.0113706
0.000954483
0.0115021
0.00105916
0.0116549
0.00113393
0.0118264
0.00116036
0.0120053
0.00111645
0.0121713
0.000985418
0.012301
0.000768287
0.0123765
0.000482382
0.0123904
0.000162194
0.0123462
-0.000160137
0.0122549
-0.000451572
0.0121297
-0.000697466
0.0119848
-0.000878656
0.0118311
-0.000999551
0.0116792
-0.0010492
0.0115348
-0.00104251
0.011405
-0.000975541
0.0112927
-0.000860995
0.0112036
-0.000702699
0.0111403
-0.000493598
0.0111032
-0.000267966
0.011095
5.17445e-06
0.0111116
0.000242996
0.0111654
0.000521899
0.0112563
0.000743486
0.0113996
0.00100962
0.0115843
0.00121349
0.0117976
0.00139286
0.0120068
0.00144517
0.0121857
0.00135984
0.0123091
0.00110935
0.012365
0.000696061
0.0123493
0.000258162
0.0122644
-0.000274004
0.0121377
-0.000555074
0.0119611
-0.000964495
0.0118024
-0.000913004
0.0116145
-0.00109394
0.0115129
-0.00070686
0.0113872
-0.000605195
0.0113466
-0.000143689
0.0113316
0.000296815
0.0113137
0.000389713
0.0014196
0.0116391
-0.00055083
0.0115744
-0.000481136
0.0115199
-0.000396258
0.0114772
-0.000297222
0.011448
-0.000185589
0.0114336
-6.29956e-05
0.0114353
6.84171e-05
0.0114546
0.000206106
0.0114921
0.000346418
0.0115481
0.000485226
0.011622
0.000617608
0.0117128
0.000739494
0.0118207
0.000846667
0.0119461
0.000933692
0.012089
0.000991051
0.012245
0.00100435
0.0124032
0.000958244
0.0125467
0.000841908
0.0126575
0.000657504
0.0127217
0.00041816
0.0127339
0.000150032
0.0126964
-0.000122626
0.0126175
-0.0003727
0.0125077
-0.000587665
0.0123787
-0.000749654
0.01224
-0.000860814
0.0121013
-0.000910565
0.0119684
-0.000909607
0.0118481
-0.000855197
0.0117433
-0.000756243
0.0116595
-0.000618821
0.0116
-0.000434178
0.0115661
-0.00023403
0.0115613
9.98392e-06
0.0115803
0.00022398
0.011632
0.000470215
0.0117125
0.000662948
0.011834
0.000888134
0.0119883
0.00105922
0.0121691
0.00121206
0.0123539
0.00126037
0.0125212
0.00119251
0.0126468
0.000983754
0.0127132
0.000629737
0.0127137
0.000257583
0.0126459
-0.000206157
0.0125385
-0.000447681
0.0123811
-0.000807091
0.0122375
-0.000769457
0.012067
-0.000923379
0.0119696
-0.000609459
0.0118608
-0.000496458
0.0118251
-0.000107927
0.0118195
0.000302387
0.0118025
0.000406702
0.00125151
0.0120969
-0.000483131
0.0120371
-0.000421404
0.011987
-0.000346155
0.0119481
-0.0002583
0.0119218
-0.000159279
0.0119094
-5.06344e-05
0.0119122
6.55968e-05
0.0119314
0.000186996
0.0119675
0.000310292
0.0120208
0.000431898
0.0120909
0.000547518
0.0121772
0.000653236
0.0122792
0.000744629
0.0123967
0.000816187
0.012528
0.000859737
0.012668
0.00086433
0.0128069
0.000819387
0.012931
0.000717846
0.0130262
0.000562225
0.013082
0.000362363
0.0130939
0.000138204
0.0130631
-9.1825e-05
0.0129958
-0.000305491
0.0129003
-0.000492162
0.0127863
-0.000635642
0.012662
-0.000736457
0.0125362
-0.000784837
0.0124147
-0.000788094
0.0123039
-0.000744348
0.012207
-0.000659368
0.0121287
-0.000540542
0.0120733
-0.000378747
0.0120421
-0.000202817
0.0120396
1.24415e-05
0.0120603
0.000203268
0.0121105
0.000420102
0.0121837
0.000589689
0.0122892
0.000782666
0.012421
0.000927374
0.0125771
0.00105596
0.0127419
0.00109555
0.0128971
0.00103739
0.0130195
0.000861269
0.0130892
0.000560079
0.0130994
0.000247395
0.0130442
-0.000150942
0.0129528
-0.000356361
0.0128135
-0.000667785
0.0126849
-0.00064081
0.0125323
-0.000770779
0.0124396
-0.000516764
0.0123461
-0.000402974
0.0123141
-7.58681e-05
0.0123174
0.00029902
0.0123089
0.000415276
0.00110517
0.0125686
-0.000420902
0.0125138
-0.000366587
0.012468
-0.000300313
0.0124326
-0.000222939
0.0124091
-0.000135738
0.0123986
-4.01529e-05
0.0124023