/*--------------------------------*- C++ -*----------------------------------*\
  =========                 |
  \\      /  F ield         | OpenFOAM: The Open Source CFD Toolbox
   \\    /   O peration     | Website:  https://openfoam.org
    \\  /    A nd           | Version:  7
     \\/     M anipulation  |
\*---------------------------------------------------------------------------*/
FoamFile
{
    version     2.0;
    format      ascii;
    class       volScalarField;
    location    "35";
    object      p;
}
// * * * * * * * * * * * * * * * * * * * * * * * * * * * * * * * * * * * * * //

dimensions      [0 2 -2 0 0 0 0];

internalField   nonuniform List<scalar> 
31800
(
-0.264817
-0.266365
-0.267244
-0.267958
-0.268576
-0.269116
-0.269613
-0.270087
-0.270552
-0.271011
-0.271464
-0.271906
-0.272328
-0.27272
-0.273072
-0.273369
-0.273599
-0.273749
-0.273807
-0.273761
-0.273607
-0.273346
-0.272988
-0.272543
-0.272066
-0.264927
-0.266462
-0.267335
-0.268044
-0.268658
-0.269195
-0.269688
-0.27016
-0.270622
-0.27108
-0.271531
-0.271971
-0.272392
-0.272783
-0.273134
-0.27343
-0.27366
-0.273809
-0.273865
-0.273817
-0.273659
-0.273391
-0.273025
-0.272565
-0.272069
-0.265146
-0.266657
-0.267517
-0.268216
-0.268822
-0.269351
-0.269838
-0.270305
-0.270762
-0.271215
-0.271663
-0.2721
-0.272518
-0.272907
-0.273256
-0.273552
-0.27378
-0.273928
-0.273981
-0.273928
-0.27376
-0.273479
-0.273097
-0.272609
-0.272073
-0.26547
-0.266947
-0.267788
-0.268472
-0.269065
-0.269583
-0.270061
-0.270519
-0.270969
-0.271415
-0.271857
-0.272289
-0.272704
-0.27309
-0.273436
-0.27373
-0.273956
-0.274101
-0.27415
-0.27409
-0.27391
-0.273609
-0.273202
-0.272671
-0.272072
-0.265896
-0.267327
-0.268144
-0.268809
-0.269384
-0.269888
-0.270352
-0.270799
-0.271239
-0.271676
-0.272111
-0.272536
-0.272945
-0.273327
-0.273669
-0.27396
-0.274183
-0.274325
-0.274369
-0.274299
-0.274104
-0.273777
-0.273337
-0.272751
-0.272056
-0.26642
-0.267795
-0.268582
-0.269222
-0.269776
-0.270261
-0.27071
-0.271142
-0.271568
-0.271994
-0.272418
-0.272835
-0.273236
-0.273612
-0.273949
-0.274236
-0.274456
-0.274593
-0.27463
-0.27455
-0.274335
-0.273978
-0.273496
-0.272847
-0.272014
-0.267034
-0.268346
-0.269097
-0.269708
-0.270237
-0.2707
-0.271128
-0.271542
-0.271952
-0.272363
-0.272774
-0.273179
-0.273571
-0.273938
-0.274269
-0.27455
-0.274765
-0.274897
-0.274927
-0.274835
-0.274599
-0.274206
-0.273675
-0.272957
-0.27193
-0.267733
-0.268973
-0.269684
-0.270262
-0.270761
-0.271197
-0.271601
-0.271993
-0.272383
-0.272776
-0.273171
-0.273562
-0.273941
-0.274298
-0.27462
-0.274894
-0.275103
-0.275228
-0.27525
-0.275145
-0.274887
-0.274454
-0.273864
-0.273084
-0.271783
-0.268509
-0.26967
-0.270337
-0.270878
-0.271343
-0.271748
-0.272124
-0.27249
-0.272856
-0.273227
-0.273602
-0.273975
-0.274339
-0.274682
-0.274993
-0.275258
-0.275458
-0.275576
-0.275589
-0.27547
-0.27519
-0.274714
-0.274056
-0.273233
-0.27154
-0.269354
-0.270432
-0.271051
-0.27155
-0.271977
-0.272348
-0.272691
-0.273026
-0.273363
-0.273708
-0.274059
-0.27441
-0.274755
-0.275082
-0.275378
-0.27563
-0.275821
-0.275929
-0.275932
-0.275799
-0.275495
-0.274978
-0.27424
-0.273427
-0.271136
-0.270261
-0.271252
-0.271819
-0.272273
-0.272658
-0.272989
-0.273295
-0.273594
-0.273898
-0.274211
-0.274533
-0.274858
-0.275179
-0.275485
-0.275764
-0.276001
-0.276178
-0.276275
-0.276265
-0.276117
-0.275791
-0.275235
-0.274402
-0.273688
-0.270583
-0.271221
-0.272124
-0.272637
-0.273042
-0.27338
-0.273666
-0.273929
-0.274187
-0.274452
-0.274728
-0.275016
-0.27531
-0.275603
-0.275884
-0.276141
-0.276358
-0.276518
-0.2766
-0.276575
-0.27641
-0.276061
-0.275477
-0.274523
-0.273791
-0.270244
-0.272229
-0.273041
-0.273497
-0.27385
-0.274137
-0.274374
-0.274588
-0.274799
-0.275019
-0.275252
-0.2755
-0.275757
-0.276016
-0.276267
-0.276497
-0.27669
-0.276829
-0.276892
-0.276849
-0.276665
-0.276289
-0.27568
-0.274621
-0.273883
-0.269761
-0.273276
-0.273998
-0.274396
-0.274694
-0.274925
-0.275107
-0.275266
-0.275424
-0.275592
-0.275776
-0.275977
-0.276191
-0.27641
-0.276625
-0.276822
-0.276986
-0.277099
-0.277138
-0.277073
-0.276866
-0.276457
-0.275836
-0.274633
-0.274014
-0.269103
-0.274357
-0.274992
-0.27533
-0.275569
-0.275739
-0.27586
-0.275959
-0.276056
-0.276165
-0.276292
-0.27644
-0.276604
-0.276777
-0.276949
-0.277108
-0.277237
-0.277318
-0.277327
-0.277234
-0.277
-0.276549
-0.27593
-0.274529
-0.274159
-0.26829
-0.275467
-0.276017
-0.276294
-0.276471
-0.276576
-0.27663
-0.276661
-0.27669
-0.276733
-0.276796
-0.276883
-0.276989
-0.277109
-0.277233
-0.277346
-0.277434
-0.277477
-0.277451
-0.277321
-0.277056
-0.276548
-0.275949
-0.274285
-0.274288
-0.267333
-0.276603
-0.277072
-0.277287
-0.277398
-0.277433
-0.277414
-0.27737
-0.277323
-0.277291
-0.277283
-0.2773
-0.277342
-0.277402
-0.27747
-0.277531
-0.277572
-0.27757
-0.2775
-0.277328
-0.277025
-0.276441
-0.275883
-0.27388
-0.274367
-0.266251
-0.277763
-0.278155
-0.278307
-0.278349
-0.278309
-0.27821
-0.278083
-0.277953
-0.277838
-0.277749
-0.27769
-0.277659
-0.277651
-0.277656
-0.277659
-0.277645
-0.277592
-0.277473
-0.277248
-0.276901
-0.276218
-0.275719
-0.273306
-0.274348
-0.265081
-0.278947
-0.279266
-0.279354
-0.279323
-0.279202
-0.279016
-0.278799
-0.278577
-0.27837
-0.278193
-0.278049
-0.277938
-0.277855
-0.27779
-0.277729
-0.277653
-0.277541
-0.277365
-0.277078
-0.276683
-0.275877
-0.275446
-0.272572
-0.274168
-0.263877
-0.280157
-0.280407
-0.280429
-0.280322
-0.280114
-0.279834
-0.279518
-0.279196
-0.278889
-0.278614
-0.278378
-0.278179
-0.278014
-0.277872
-0.27774
-0.277597
-0.27742
-0.277179
-0.27682
-0.276366
-0.275416
-0.275043
-0.271701
-0.273754
-0.262696
-0.281395
-0.28158
-0.281536
-0.281348
-0.281046
-0.280665
-0.280242
-0.279811
-0.279397
-0.279016
-0.278678
-0.278385
-0.278131
-0.277906
-0.277696
-0.277479
-0.277229
-0.276915
-0.276473
-0.275947
-0.274841
-0.274484
-0.270725
-0.27303
-0.261578
-0.282667
-0.282792
-0.282678
-0.282404
-0.282003
-0.281512
-0.280975
-0.280426
-0.279895
-0.279401
-0.278955
-0.27856
-0.278211
-0.277897
-0.277602
-0.277305
-0.276975
-0.276578
-0.27604
-0.275423
-0.274154
-0.27374
-0.26967
-0.271937
-0.260517
-0.283981
-0.284047
-0.283861
-0.283495
-0.282988
-0.28238
-0.281719
-0.281045
-0.28039
-0.279775
-0.279214
-0.278711
-0.27826
-0.277851
-0.277467
-0.277082
-0.276662
-0.276171
-0.275522
-0.274786
-0.273355
-0.272782
-0.268543
-0.270452
-0.259463
-0.285347
-0.285353
-0.285091
-0.284628
-0.284007
-0.283275
-0.282483
-0.281675
-0.280888
-0.280146
-0.279463
-0.278845
-0.278288
-0.277779
-0.277298
-0.276817
-0.276297
-0.275694
-0.274918
-0.274027
-0.272434
-0.27159
-0.267322
-0.268591
-0.258328
-0.286775
-0.286721
-0.286377
-0.285811
-0.285068
-0.284203
-0.283272
-0.282324
-0.281398
-0.280521
-0.279712
-0.278974
-0.278305
-0.277689
-0.277104
-0.276516
-0.275882
-0.275148
-0.274221
-0.273134
-0.271373
-0.270156
-0.265963
-0.266401
-0.257026
-0.288278
-0.288161
-0.287729
-0.287052
-0.28618
-0.285174
-0.284096
-0.283
-0.281929
-0.280913
-0.279971
-0.279109
-0.278322
-0.277593
-0.276894
-0.276187
-0.275419
-0.274529
-0.273422
-0.272094
-0.270145
-0.268477
-0.264408
-0.263935
-0.255486
-0.289871
-0.289682
-0.289158
-0.288361
-0.287351
-0.286197
-0.284965
-0.283714
-0.282492
-0.281332
-0.280253
-0.279262
-0.278351
-0.2775
-0.276676
-0.275832
-0.274908
-0.273829
-0.272504
-0.270893
-0.26872
-0.266557
-0.262609
-0.261223
-0.253652
-0.291569
-0.291301
-0.290675
-0.289748
-0.288592
-0.287282
-0.285889
-0.284478
-0.2831
-0.281791
-0.280571
-0.279445
-0.278403
-0.27742
-0.276455
-0.275452
-0.274341
-0.273037
-0.271452
-0.269515
-0.267072
-0.264396
-0.26053
-0.258243
-0.25149
-0.293388
-0.29303
-0.292291
-0.291227
-0.289916
-0.28844
-0.28688
-0.285304
-0.283766
-0.282303
-0.280937
-0.27967
-0.278489
-0.27736
-0.276234
-0.275043
-0.273709
-0.272138
-0.270247
-0.267948
-0.265185
-0.262006
-0.258149
-0.254921
-0.249037
-0.295348
-0.294882
-0.294022
-0.292809
-0.291333
-0.289685
-0.287951
-0.286204
-0.284501
-0.282882
-0.281364
-0.279949
-0.278616
-0.277323
-0.27601
-0.274598
-0.273
-0.271118
-0.268874
-0.266183
-0.263057
-0.259415
-0.255462
-0.251262
-0.246469
-0.297463
-0.296876
-0.295879
-0.294506
-0.292856
-0.291028
-0.289114
-0.287192
-0.285321
-0.283539
-0.281864
-0.280291
-0.27879
-0.27731
-0.275778
-0.274106
-0.272199
-0.269959
-0.267324
-0.264217
-0.260698
-0.256649
-0.252482
-0.247588
-0.243751
-0.299752
-0.299023
-0.297876
-0.296332
-0.294498
-0.292482
-0.290383
-0.288281
-0.286237
-0.284288
-0.282448
-0.280702
-0.279014
-0.277317
-0.275529
-0.273552
-0.271289
-0.268651
-0.26559
-0.262054
-0.258133
-0.253724
-0.249245
-0.244109
-0.239925
-0.302232
-0.301338
-0.300028
-0.2983
-0.296272
-0.294061
-0.291771
-0.289484
-0.287262
-0.285139
-0.283122
-0.281188
-0.279285
-0.277338
-0.275251
-0.272921
-0.270257
-0.267183
-0.263675
-0.259706
-0.25539
-0.250646
-0.245878
-0.240536
-0.23599
-0.304921
-0.303838
-0.302348
-0.300424
-0.298191
-0.295777
-0.29329
-0.290814
-0.288408
-0.286102
-0.283894
-0.281748
-0.2796
-0.277361
-0.274927
-0.272198
-0.269091
-0.265552
-0.261584
-0.257189
-0.252495
-0.247447
-0.242415
-0.236911
-0.232137
-0.307834
-0.306535
-0.304849
-0.302716
-0.300268
-0.297644
-0.294954
-0.292282
-0.289685
-0.287184
-0.284765
-0.28238
-0.279948
-0.277371
-0.274542
-0.271366
-0.267781
-0.263758
-0.259328
-0.254521
-0.249475
-0.244151
-0.238887
-0.23325
-0.2283
-0.310986
-0.309444
-0.307545
-0.305189
-0.302516
-0.299674
-0.296775
-0.293901
-0.291103
-0.288391
-0.285737
-0.283077
-0.280317
-0.277352
-0.274077
-0.270413
-0.266322
-0.261807
-0.256923
-0.251724
-0.246351
-0.240777
-0.235312
-0.229554
-0.224485
-0.314391
-0.312577
-0.310449
-0.307856
-0.304948
-0.301881
-0.298765
-0.295681
-0.292668
-0.289724
-0.286804
-0.283827
-0.280691
-0.277284
-0.273516
-0.269328
-0.264714
-0.259706
-0.254382
-0.248815
-0.243142
-0.237342
-0.231698
-0.225831
-0.220662
-0.318062
-0.315946
-0.313571
-0.310729
-0.307576
-0.304275
-0.300936
-0.29763
-0.294385
-0.291182
-0.287958
-0.284617
-0.281049
-0.277148
-0.272843
-0.268105
-0.262958
-0.257464
-0.251721
-0.24581
-0.23986
-0.233855
-0.228047
-0.222078
-0.216822
-0.32201
-0.319561
-0.316924
-0.313821
-0.310413
-0.30687
-0.303297
-0.299755
-0.296256
-0.29276
-0.289187
-0.285428
-0.281371
-0.276926
-0.272046
-0.266738
-0.261057
-0.255093
-0.248952
-0.24272
-0.236514
-0.230319
-0.22436
-0.218293
-0.212955
-0.326244
-0.323434
-0.320517
-0.317141
-0.313469
-0.309676
-0.305858
-0.302061
-0.298278
-0.294449
-0.290474
-0.286237
-0.281634
-0.276597
-0.271113
-0.265225
-0.259019
-0.252601
-0.246083
-0.239552
-0.233108
-0.226736
-0.220634
-0.214473
-0.209052
-0.330772
-0.327571
-0.32436
-0.3207
-0.316755
-0.312701
-0.308623
-0.304549
-0.300446
-0.296233
-0.291797
-0.28702
-0.281815
-0.276145
-0.270036
-0.263566
-0.256846
-0.249995
-0.243123
-0.23631
-0.229643
-0.223104
-0.216864
-0.210611
-0.205107
-0.335599
-0.33198
-0.328461
-0.324507
-0.32028
-0.315954
-0.311597
-0.307214
-0.302747
-0.298094
-0.293131
-0.287751
-0.281891
-0.275555
-0.268808
-0.261762
-0.254545
-0.247281
-0.240074
-0.232996
-0.226117
-0.219418
-0.213045
-0.206704
-0.201115
-0.340728
-0.336665
-0.332825
-0.328569
-0.32405
-0.319438
-0.314778
-0.310048
-0.305165
-0.300006
-0.294448
-0.288402
-0.281841
-0.274814
-0.267425
-0.259813
-0.252117
-0.24446
-0.236936
-0.229608
-0.222526
-0.215674
-0.20917
-0.202743
-0.19707
-0.346159
-0.341626
-0.337457
-0.33289
-0.328069
-0.323153
-0.318161
-0.313038
-0.307676
-0.301941
-0.295716
-0.288944
-0.281645
-0.27391
-0.265883
-0.257719
-0.249564
-0.241533
-0.233708
-0.22614
-0.218864
-0.211864
-0.205234
-0.198725
-0.192967
-0.351888
-0.346864
-0.342356
-0.337471
-0.332336
-0.327095
-0.321733
-0.316162
-0.310252
-0.303864
-0.296903
-0.289352
-0.281283
-0.272834
-0.264176
-0.255479
-0.246884
-0.238497
-0.230385
-0.222587
-0.215126
-0.207982
-0.201229
-0.194641
-0.188799
-0.357908
-0.352373
-0.34752
-0.342311
-0.336848
-0.331254
-0.325476
-0.319393
-0.312858
-0.305738
-0.297973
-0.289599
-0.28074
-0.271576
-0.262301
-0.25309
-0.244074
-0.235347
-0.226961
-0.218943
-0.211302
-0.204021
-0.197149
-0.190487
-0.184563
-0.364206
-0.358145
-0.352942
-0.347402
-0.341595
-0.335614
-0.329365
-0.322698
-0.315454
-0.307525
-0.298895
-0.28966
-0.279999
-0.270127
-0.260252
-0.250546
-0.241129
-0.232077
-0.223428
-0.215198
-0.207386
-0.199972
-0.192986
-0.186256
-0.180252
-0.370765
-0.364166
-0.35861
-0.352732
-0.346559
-0.34015
-0.333368
-0.326036
-0.317998
-0.309182
-0.299633
-0.289511
-0.279045
-0.268478
-0.258023
-0.247842
-0.238041
-0.228678
-0.219778
-0.211345
-0.203369
-0.195828
-0.188735
-0.181942
-0.175862
-0.377561
-0.370417
-0.364508
-0.358282
-0.351718
-0.344832
-0.337444
-0.32936
-0.320442
-0.310669
-0.300157
-0.289131
-0.277865
-0.266619
-0.255605
-0.24497
-0.234802
-0.225142
-0.216002
-0.207375
-0.199243
-0.191582
-0.184388
-0.177539
-0.171386
-0.384566
-0.376873
-0.370612
-0.364028
-0.35704
-0.349619
-0.341546
-0.332619
-0.322736
-0.311943
-0.300435
-0.288499
-0.276443
-0.26454
-0.252989
-0.24192
-0.231401
-0.221458
-0.212089
-0.203278
-0.194999
-0.187226
-0.179939
-0.173042
-0.166821
-0.391744
-0.383504
-0.376892
-0.369937
-0.362486
-0.354465
-0.34562
-0.335757
-0.32483
-0.312965
-0.300438
-0.287593
-0.274767
-0.262228
-0.250164
-0.238681
-0.227829
-0.217616
-0.20803
-0.199045
-0.190629
-0.182752
-0.175382
-0.168444
-0.162162
-0.399052
-0.390272
-0.383311
-0.375967
-0.36801
-0.359315
-0.349605
-0.338716
-0.326672
-0.313694
-0.300137
-0.286395
-0.27282
-0.259673
-0.247118
-0.235242
-0.224073
-0.213606
-0.203815
-0.194668
-0.186125
-0.178154
-0.17071
-0.16374
-0.157404
-0.406441
-0.397133
-0.389824
-0.382072
-0.373556
-0.364106
-0.353439
-0.341435
-0.328213
-0.314092
-0.299505
-0.284885
-0.270588
-0.256859
-0.243839
-0.23159
-0.220122
-0.209415
-0.199434
-0.190137
-0.18148
-0.173424
-0.165918
-0.158925
-0.152543
-0.413854
-0.404034
-0.396381
-0.388193
-0.379059
-0.368771
-0.357051
-0.343853
-0.329403
-0.314123
-0.298516
-0.283043
-0.268054
-0.253772
-0.240312
-0.227712
-0.215964
-0.205033
-0.194876
-0.185443
-0.176684
-0.168556
-0.161001
-0.153995
-0.147574
-0.421227
-0.410917
-0.40292
-0.394267
-0.384451
-0.373234
-0.360371
-0.345909
-0.330193
-0.313752
-0.297145
-0.28085
-0.265203
-0.250399
-0.236525
-0.223596
-0.211587
-0.20045
-0.190133
-0.180578
-0.171732
-0.163544
-0.155952
-0.148943
-0.142495
-0.428489
-0.417717
-0.409375
-0.400222
-0.389653
-0.377418
-0.363327
-0.347542
-0.33054
-0.312946
-0.295368
-0.278287
-0.262017
-0.246722
-0.232462
-0.219228
-0.206978
-0.195655
-0.185194
-0.175534
-0.166615
-0.158382
-0.150768
-0.143767
-0.137302
-0.435564
-0.42436
-0.415671
-0.405978
-0.394584
-0.381243
-0.365847
-0.348696
-0.330399
-0.311673
-0.293161
-0.275335
-0.258479
-0.242728
-0.22811
-0.214595
-0.202127
-0.190637
-0.180052
-0.170304
-0.161329
-0.153064
-0.145443
-0.138462
-0.131992
-0.442369
-0.430768
-0.421728
-0.411452
-0.399157
-0.384626
-0.36786
-0.349313
-0.329729
-0.309903
-0.2905
-0.271973
-0.254573
-0.238399
-0.223453
-0.209685
-0.197023
-0.185387
-0.174698
-0.164881
-0.155866
-0.147587
-0.139974
-0.133024
-0.126562
-0.448817
-0.436857
-0.42746
-0.416553
-0.403283
-0.387485
-0.369299
-0.349342
-0.328492
-0.307609
-0.287363
-0.268183
-0.250281
-0.233722
-0.21848
-0.204486
-0.191654
-0.179895
-0.169124
-0.159257
-0.150222
-0.141944
-0.134357
-0.127451
-0.121013
-0.454815
-0.442538
-0.432775
-0.421188
-0.40687
-0.389739
-0.370096
-0.348734
-0.326652
-0.304762
-0.283729
-0.263947
-0.245588
-0.228681
-0.213175
-0.198985
-0.186011
-0.174155
-0.163323
-0.153428
-0.144391
-0.136133
-0.128588
-0.121739
-0.115341
-0.460269
-0.447717
-0.437579
-0.425262
-0.409829
-0.39131
-0.37019
-0.347442
-0.324175
-0.301338
-0.279577
-0.259246
-0.240476
-0.223261
-0.207528
-0.193173
-0.180085
-0.168157
-0.157289
-0.147388
-0.13837
-0.130151
-0.122666
-0.115887
-0.109548
-0.46508
-0.452301
-0.441774
-0.428679
-0.41207
-0.392122
-0.369524
-0.345424
-0.321032
-0.297313
-0.274888
-0.254064
-0.234931
-0.217451
-0.201527
-0.18704
-0.173867
-0.161895
-0.151016
-0.141132
-0.132154
-0.123993
-0.116587
-0.109894
-0.103632
-0.469153
-0.456191
-0.445264
-0.431342
-0.413507
-0.392105
-0.368043
-0.342642
-0.317192
-0.292665
-0.269643
-0.248385
-0.228939
-0.211238
-0.195161
-0.180576
-0.167352
-0.155364
-0.1445
-0.134657
-0.12574
-0.117659
-0.110349
-0.10376
-0.0975988
-0.472387
-0.459291
-0.44795
-0.433159
-0.414058
-0.391194
-0.365701
-0.339062
-0.312633
-0.287375
-0.263825
-0.242194
-0.222488
-0.20461
-0.188421
-0.173776
-0.160532
-0.148559
-0.137737
-0.12796
-0.119127
-0.111144
-0.10395
-0.0974826
-0.0914502
-0.474689
-0.461504
-0.449736
-0.43404
-0.413646
-0.389328
-0.362453
-0.334653
-0.307331
-0.281424
-0.25742
-0.235479
-0.215566
-0.197559
-0.1813
-0.166631
-0.153402
-0.141475
-0.130725
-0.121038
-0.112313
-0.104448
-0.0973873
-0.0910581
-0.0851762
-0.475963
-0.462737
-0.450531
-0.433899
-0.4122
-0.386455
-0.358264
-0.32939
-0.301266
-0.274797
-0.250415
-0.228227
-0.208164
-0.190076
-0.173791
-0.159139
-0.14596
-0.134111
-0.12346
-0.113892
-0.105297
-0.0975721
-0.0906629
-0.0844835
-0.078738
-0.476121
-0.4629
-0.450246
-0.432658
-0.409656
-0.382528
-0.353099
-0.323249
-0.294423
-0.267482
-0.242797
-0.22043
-0.200274
-0.182156
-0.16589
-0.151294
-0.138202
-0.126464
-0.115944
-0.106521
-0.0980802
-0.090518
-0.0837868
-0.0777708
-0.0720916
-0.475078
-0.461909
-0.448799
-0.430243
-0.405959
-0.377507
-0.346934
-0.316215
-0.28679
-0.259467
-0.23456
-0.21208
-0.19189
-0.173794
-0.157593
-0.143096
-0.130129
-0.118535
-0.108176
-0.0989248
-0.0906636
-0.0832886
-0.0767629
-0.0709343
-0.0652876
-0.472758
-0.459683
-0.446116
-0.426592
-0.401058
-0.371361
-0.339748
-0.308272
-0.278355
-0.250745
-0.225696
-0.203173
-0.183008
-0.164988
-0.148899
-0.134543
-0.121739
-0.110325
-0.100157
-0.0911071
-0.0830502
-0.0758871
-0.0695812
-0.0638999
-0.0584847
-0.469089
-0.456152
-0.442128
-0.421648
-0.394916
-0.364063
-0.331526
-0.299413
-0.269113
-0.241311
-0.216202
-0.193706
-0.173628
-0.155737
-0.139809
-0.125636
-0.113034
-0.101835
-0.0918907
-0.0830713
-0.0752446
-0.0683171
-0.0622425
-0.0567383
-0.0515945
-0.464009
-0.451251
-0.436778
-0.415366
-0.387501
-0.355596
-0.322258
-0.289632
-0.259061
-0.231165
-0.206076
-0.183678
-0.163748
-0.146042
-0.130323
-0.116379
-0.104018
-0.0930719
-0.0833829
-0.0748195
-0.0672499
-0.060581
-0.054756
-0.0494596
-0.044597
-0.457464
-0.444927
-0.430017
-0.407708
-0.37879
-0.345949
-0.311942
-0.278929
-0.248201
-0.220306
-0.195322
-0.173092
-0.153374
-0.135907
-0.120448
-0.106777
-0.0946981
-0.0840369
-0.0746362
-0.0663583
-0.0590715
-0.0526839
-0.0471297
-0.042065
-0.0374911
-0.449412
-0.437134
-0.421806
-0.398648
-0.36877
-0.335119
-0.300579
-0.26731
-0.236538
-0.208742
-0.183943
-0.161954
-0.142509
-0.125337
-0.110189
-0.0968356
-0.0850779
-0.074738
-0.0656574
-0.0576939
-0.0507153
-0.0446324
-0.0393699
-0.0345553
-0.0302831
-0.439818
-0.427837
-0.412116
-0.38817
-0.357435
-0.32311
-0.288178
-0.254781
-0.22408
-0.196478
-0.171947
-0.15027
-0.131163
-0.114343
-0.0995531
-0.0865617
-0.0751653
-0.0651828
-0.0564539
-0.0488335
-0.0421887
-0.0364335
-0.0314826
-0.0269344
-0.0229799
-0.42866
-0.417011
-0.40093
-0.376265
-0.344791
-0.309931
-0.27475
-0.241358
-0.210838
-0.183524
-0.159345
-0.138055
-0.119346
-0.102932
-0.0885504
-0.0759654
-0.0649699
-0.0553803
-0.0470346
-0.0397856
-0.0334997
-0.028095
-0.0234748
-0.0192085
-0.015589
-0.415925
-0.404644
-0.38824
-0.362938
-0.330849
-0.2956
-0.260315
-0.227057
-0.196828
-0.169896
-0.14616
-0.125317
-0.107069
-0.0911169
-0.0771927
-0.0650579
-0.0545024
-0.0453408
-0.0374095
-0.0305595
-0.0246576
-0.0196256
-0.0153542
-0.011385
-0.00811824
-0.401611
-0.390732
-0.374051
-0.348202
-0.315629
-0.28014
-0.244896
-0.211899
-0.182071
-0.155624
-0.132392
-0.112073
-0.0943475
-0.0789119
-0.0654936
-0.053852
-0.043775
-0.0350758
-0.0275895
-0.0211658
-0.0156724
-0.0110348
-0.00712963
-0.00347294
-0.000576031
-0.385728
-0.375283
-0.358377
-0.332078
-0.299158
-0.263582
-0.228523
-0.195912
-0.166596
-0.140715
-0.118071
-0.0983426
-0.0811997
-0.0663333
-0.0534684
-0.0423622
-0.0328014
-0.0245982
-0.0175869
-0.0116161
-0.00655512
-0.00233289
0.00118916
0.00451803
0.00702853
-0.368296
-0.358317
-0.341241
-0.314597
-0.281473
-0.245964
-0.211229
-0.179127
-0.150424
-0.125198
-0.103218
-0.0841468
-0.0676448
-0.0533997
-0.0411342
-0.0306046
-0.0215966
-0.013922
-0.00741479
-0.00192299
0.00268221
0.00646872
0.00959148
0.0125771
0.0146854
-0.349346
-0.339863
-0.322679
-0.295799
-0.262618
-0.227324
-0.19305
-0.161578
-0.133587
-0.109102
-0.0878596
-0.0695094
-0.053705
-0.0401314
-0.0285101
-0.0185967
-0.010177
-0.00306266
0.00291238
0.00790006
0.0120267
0.0153579
0.0180658
0.0206925
0.0223834
-0.328918
-0.319959
-0.302733
-0.275737
-0.24265
-0.207699
-0.174029
-0.143303
-0.116121
-0.0924587
-0.0720243
-0.0544567
-0.0394045
-0.0265507
-0.0156165
-0.00635765
0.00143989
0.00796361
0.0133794
0.0178386
0.0214646
0.0243217
0.0265996
0.0288511
0.0301101
-0.307063
-0.298653
-0.281457
-0.254476
-0.221626
-0.187129
-0.154211
-0.124344
-0.0980637
-0.0753016
-0.0557432
-0.0390174
-0.0247695
-0.0126818
-0.00247572
0.00609223
0.0132351
0.0191394
0.02397
0.0278775
0.0309815
0.0333463
0.0351792
0.0370375
0.037851
-0.283837
-0.276005
-0.258918
-0.232072
-0.199534
-0.165734
-0.133654
-0.104746
-0.0794557
-0.0576683
-0.0390501
-0.0232224
-0.00982828
0.00144947
0.0108885
0.0187311
0.0251887
0.0304462
0.0346674
0.0380008
0.0405622
0.0424171
0.0437898
0.0452336
0.0455852
-0.259305
-0.252089
-0.2352
-0.208533
-0.176528
-0.143527
-0.112411
-0.0845605
-0.0603416
-0.0395988
-0.0219813
-0.0071046
0.00538889
0.0158154
0.024451
0.031536
0.0372797
0.0418649
0.0454539
0.0481923
0.0501913
0.0515197
0.0524168
0.0534202
0.0532856
-0.233538
-0.226986
-0.210381
-0.18394
-0.152657
-0.120577
-0.0905407
-0.0638392
-0.0407683
-0.0211356
-0.00457535
0.0093008
0.0208501
0.0303871
0.0381853
0.0444827
0.0494859
0.0533754
0.0563111
0.058435
0.0598528
0.060639
0.0610475
0.0615832
0.0609353
-0.206612
-0.200773
-0.184399
-0.158531
-0.128001
-0.0969567
-0.0681046
-0.0426375
-0.0207858
-0.00232351
0.0131271
0.0259569
0.0365218
0.0451337
0.0520635
0.0575458
0.0617845
0.0649568
0.0672203
0.0687112
0.0695292
0.06976
0.0696725
0.0697146
0.068529
-0.178596
-0.173558
-0.157496
-0.132276
-0.102636
-0.0727387
-0.0451673
-0.0210134
-0.000445864
0.0167905
0.0310835
0.042825
0.0523687
0.0600235
0.0660565
0.0706992
0.0741515
0.0765879
0.0781622
0.0790028
0.0792036
0.0788698
0.0782822
0.0777807
0.0759674
-0.149593
-0.145446
-0.129774
-0.105268
-0.0766442
-0.0479991
-0.021796
0.000973048
0.0201971
0.0361573
0.0492494
0.0598649
0.0683545
0.0750232
0.0801344
0.0839155
0.0865625
0.0882467
0.089117
0.0892922
0.0888632
0.0879653
0.0868637
0.0856669
0.0829402
-0.119861
-0.116424
-0.101302
-0.0776068
-0.0501114
-0.0228158
0.00193956
0.0232593
0.041087
0.0557263
0.0675789
0.0770349
0.0844412
0.0900986
0.0942661
0.0971665
0.0989922
0.0999104
0.100064
0.0995629
0.098502
0.0970535
0.0954001
0.0932353
0.0892252
-0.0894014
-0.0866627
-0.072179
-0.0493912
-0.0231262
0.00273114
0.0259676
0.0457812
0.0621658
0.0754452
0.0860247
0.0942921
0.10059
0.105214
0.108419
0.110423
0.111414
0.111555
0.110983
0.109799
0.108114
0.10613
0.103864
0.100551
0.0955185
-0.0582989
-0.0562967
-0.04251
-0.020722
0.00421951
0.0285596
0.0502146
0.0684726
0.0833743
0.0952602
0.104538
0.111593
0.116761
0.120335
0.122562
0.123657
0.123802
0.123157
0.121851
0.119983
0.117682
0.115154
0.112195
0.107807
0.103907
-0.0266767
-0.0254404
-0.0124052
0.00829776
0.0318323
0.0545859
0.0746055
0.0912664
0.104652
0.115117
0.12307
0.128891
0.132914
0.135422
0.13666
0.136836
0.136128
0.134691
0.132647
0.130095
0.127179
0.124069
0.120411
0.11543
0.112245
0.00534142
0.0057914
0.0180224
0.0375634
0.0596172
0.0807249
0.0990644
0.114094
0.125937
0.134959
0.141569
0.146143
0.149007
0.15044
0.15068
0.14993
0.148364
0.146131
0.143348
0.140115
0.13658
0.13287
0.128576
0.123208
0.120127
0.0376322
0.0372807
0.0486584
0.0669688
0.0874784
0.106891
0.123514
0.136887
0.147167
0.154731
0.159985
0.163301
0.164998
0.165349
0.164587
0.162908
0.160482
0.157452
0.15393
0.150019
0.145861
0.141549
0.136681
0.130984
0.127732
0.0700712
0.0689078
0.0793874
0.0964075
0.11532
0.132997
0.147878
0.159575
0.168279
0.174375
0.178267
0.18032
0.180846
0.180113
0.178347
0.175739
0.172453
0.168627
0.164371
0.159784
0.155002
0.150095
0.14469
0.138648
0.135083
0.102534
0.100552
0.110094
0.125773
0.143044
0.158958
0.172077
0.182088
0.189211
0.193835
0.196363
0.197152
0.196508
0.194693
0.191925
0.188391
0.184249
0.179632
0.174645
0.169386
0.163984
0.158493
0.15257
0.14616
0.142207
0.134894
0.13209
0.140661
0.154958
0.170557
0.184686
0.196035
0.204358
0.209899
0.213055
0.214222
0.213751
0.211943
0.20905
0.205287
0.200833
0.195842
0.190439
0.184729
0.178804
0.172787
0.166721
0.160292
0.153496
0.149114
0.167027
0.163402
0.170975
0.183856
0.197761
0.210097
0.219675
0.226314
0.230281
0.231977
0.231791
0.230071
0.227107
0.223147
0.218397
0.213033
0.207201
0.201024
0.194598
0.188017
0.181392
0.174762
0.167832
0.160641
0.155804
0.198808
0.194367
0.20092
0.212365
0.224562
0.235105
0.242921
0.247888
0.250296
0.250545
0.249022
0.246065
0.24196
0.236945
0.231223
0.224961
0.218301
0.211359
0.20423
0.197001
0.189779
0.182594
0.175173
0.167581
0.162275
0.230116
0.224865
0.230385
0.240379
0.250868
0.259627
0.265697
0.269012
0.26988
0.268704
0.265863
0.261689
0.25646
0.250409
0.24373
0.236586
0.229112
0.221421
0.213602
0.205738
0.197929
0.190201
0.182297
0.174306
0.168522
0.260827
0.254779
0.259258
0.267798
0.276588
0.283581
0.28793
0.28962
0.288976
0.286399
0.282266
0.276898
0.270568
0.263501
0.255885
0.247878
0.239608
0.231184
0.22269
0.214206
0.205824
0.197564
0.189188
0.180802
0.174537
0.290825
0.283992
0.28743
0.294523
0.301631
0.306887
0.309547
0.309646
0.307523
0.303578
0.298181
0.291648
0.284243
0.276185
0.267656
0.258807
0.249763
0.240625
0.231474
0.222385
0.213445
0.204668
0.195834
0.18706
0.180314
0.319993
0.312394
0.314798
0.320458
0.325912
0.329467
0.330479
0.329027
0.325464
0.320188
0.313563
0.305897
0.297447
0.288426
0.279011
0.269345
0.259549
0.249719
0.239931
0.230256
0.220776
0.211497
0.20222
0.193068
0.185845
0.348219
0.339874
0.341257
0.345509
0.349346
0.351245
0.350656
0.347701
0.342743
0.336179
0.328365
0.319602
0.310143
0.300192
0.289919
0.279465
0.268942
0.258444
0.248041
0.237801
0.227798
0.218036
0.208332
0.198813
0.191121
0.375394
0.366328
0.366709
0.369586
0.371853
0.372148
0.370014
0.365609
0.359307
0.351502
0.342543
0.332726
0.322294
0.311448
0.300352
0.289139
0.277919
0.266778
0.255785
0.245002
0.234497
0.224271
0.214158
0.204286
0.196134
0.401413
0.391653
0.391061
0.392603
0.393353
0.392106
0.388489
0.382694
0.375104
0.36611
0.356055
0.345228
0.333866
0.322164
0.310279
0.298342
0.286454
0.2747
0.263144
0.251842
0.240857
0.230188
0.219686
0.209475
0.200877
0.426176
0.415753
0.41422
0.414479
0.413775
0.411054
0.406021
0.398902
0.390085
0.379958
0.36886
0.357072
0.344826
0.332309
0.319676
0.307049
0.294528
0.282191
0.270098
0.258304
0.246862
0.235773
0.224903
0.214369
0.205341
0.449589
0.438536
0.436102
0.435133
0.433046
0.428926
0.422552
0.414179
0.404202
0.393005
0.38092
0.368224
0.355141
0.341856
0.328514
0.315237
0.302117
0.28923
0.276632
0.264372
0.252501
0.241015
0.229798
0.21896
0.209519
0.471562
0.459916
0.456625
0.454494
0.4511
0.445663
0.438028
0.428478
0.417411
0.405209
0.392199
0.37865
0.364783
0.350776
0.336771
0.322883
0.309203
0.2958
0.282728
0.270033
0.257758
0.245901
0.234361
0.223236
0.213404
0.49201
0.47981
0.475714
0.472492
0.467876
0.46121
0.4524
0.441753
0.429671
0.416534
0.402662
0.38832
0.373724
0.359045
0.344424
0.329968
0.315766
0.301884
0.288372
0.275271
0.262622
0.25042
0.238581
0.22719
0.216989
0.510856
0.498144
0.493298
0.489064
0.483316
0.475513
0.465619
0.45396
0.440944
0.426944
0.412278
0.397205
0.381937
0.36664
0.35145
0.336472
0.32179
0.307467
0.293549
0.280076
0.267081
0.254563
0.242449
0.230812
0.220268
0.528028
0.514847
0.509312
0.504149
0.497367
0.488526
0.477643
0.465062
0.451193
0.436407
0.421017
0.405279
0.389398
0.373539
0.357831
0.342378
0.327258
0.312533
0.298247
0.284434
0.271126
0.25832
0.245956
0.234094
0.223235
0.54346
0.529858
0.523698
0.517696
0.509981
0.500206
0.488432
0.475022
0.460386
0.444894
0.428854
0.412518
0.396087
0.379721
0.363549
0.347668
0.332156
0.31707
0.302453
0.288336
0.274746
0.261681
0.249094
0.237031
0.225886
0.557094
0.543118
0.536404
0.529656
0.521113
0.510512
0.497951
0.483808
0.468495
0.452379
0.435765
0.4189
0.401983
0.38517
0.368587
0.352329
0.336471
0.321067
0.306157
0.291771
0.277932
0.264639
0.251856
0.239615
0.228215
0.568878
0.554578
0.547382
0.539987
0.530728
0.51941
0.506169
0.491392
0.475493
0.458838
0.441727
0.424406
0.407069
0.38987
0.372932
0.356349
0.340191
0.324512
0.30935
0.294732
0.280678
0.267188
0.254236
0.24184
0.23022
0.578767
0.564195
0.556592
0.548653
0.53879
0.526871
0.513059
0.497749
0.481359
0.464251
0.446724
0.429019
0.41133
0.393808
0.376572
0.359715
0.343306
0.327397
0.312023
0.29721
0.282976
0.269322
0.256227
0.243702
0.231895
0.586723
0.571932
0.564
0.555622
0.545273
0.53287
0.518597
0.50286
0.486075
0.468602
0.45074
0.432727
0.414754
0.396971
0.379497
0.36242
0.345809
0.329714
0.314169
0.2992
0.284821
0.271034
0.257826
0.245197
0.233239
0.592717
0.57776
0.569581
0.56087
0.550155
0.537387
0.522768
0.506708
0.489624
0.471877
0.453763
0.435517
0.417331
0.399352
0.381697
0.364454
0.347691
0.331457
0.315784
0.300697
0.286208
0.272322
0.259028
0.246321
0.234249
0.596726
0.581658
0.573312
0.56438
0.553419
0.540407
0.525555
0.509279
0.491997
0.474067
0.455783
0.437382
0.419053
0.400943
0.383167
0.365814
0.348949
0.332621
0.316863
0.301697
0.287135
0.273183
0.259831
0.247071
0.234923
0.598734
0.583611
0.575181
0.566137
0.555054
0.541919
0.526951
0.510567
0.493185
0.475163
0.456795
0.438316
0.419915
0.40174
0.383904
0.366495
0.349579
0.333204
0.317403
0.302197
0.2876
0.273613
0.260233
0.247447
0.23526
0.598734
0.583611
0.575181
0.566137
0.555054
0.541919
0.526951
0.510567
0.493185
0.475163
0.456795
0.438316
0.419915
0.40174
0.383904
0.366495
0.349579