/*--------------------------------*- C++ -*----------------------------------*\
  =========                 |
  \\      /  F ield         | OpenFOAM: The Open Source CFD Toolbox
   \\    /   O peration     | Website:  https://openfoam.org
    \\  /    A nd           | Version:  7
     \\/     M anipulation  |
\*---------------------------------------------------------------------------*/
FoamFile
{
    version     2.0;
    format      ascii;
    class       volVectorField;
    location    "35";
    object      U;
}
// * * * * * * * * * * * * * * * * * * * * * * * * * * * * * * * * * * * * * //

dimensions      [0 1 -1 0 0 0 0];

internalField   nonuniform List<vector> 
31800
(
(-0.000524205 0.000518225 -9.64368e-21)
(-0.00324883 0.00130141 6.65804e-21)
(-0.00869724 0.00188539 -2.16826e-21)
(-0.0157433 0.00231044 9.62716e-21)
(-0.02395 0.00260456 1.07502e-20)
(-0.0329571 0.00279246 -3.52114e-21)
(-0.0424482 0.00289585 -2.54401e-21)
(-0.0521766 0.00293331 1.79849e-20)
(-0.0619518 0.00292048 -2.04763e-21)
(-0.0716288 0.00287018 2.93991e-21)
(-0.0810999 0.00279253 1.00782e-20)
(-0.0902866 0.0026951 9.86322e-21)
(-0.0991311 0.00258319 -6.22396e-21)
(-0.10759 0.00246016 -7.72981e-21)
(-0.115627 0.00232787 -2.63688e-22)
(-0.123211 0.00218715 -9.85077e-21)
(-0.130312 0.00203845 7.64557e-21)
(-0.136901 0.00188263 1.28753e-20)
(-0.142954 0.00172193 -4.80906e-21)
(-0.148456 0.00156106 2.17689e-20)
(-0.153413 0.00140842 1.37697e-21)
(-0.15787 0.00127704 -1.75277e-21)
(-0.161927 0.0011833 3.82299e-21)
(-0.16571 0.00114161 7.77036e-21)
(-0.16946 0.00117761 4.82455e-21)
(-0.000574035 0.00154942 9.92896e-21)
(-0.0033603 0.00389178 5.43261e-21)
(-0.00883144 0.00563902 -5.84879e-21)
(-0.0158739 0.00691108 -2.22174e-20)
(-0.0240562 0.0077915 1.63993e-20)
(-0.033022 0.00835402 -8.02256e-21)
(-0.0424579 0.00866354 4.42009e-22)
(-0.0521198 0.00877558 -1.37931e-20)
(-0.0618183 0.00873695 2.87475e-21)
(-0.0714096 0.00858602 1.95221e-21)
(-0.0807865 0.00835305 -4.23168e-20)
(-0.0898706 0.00806074 -7.14083e-22)
(-0.0986043 0.007725 4.73012e-20)
(-0.106944 0.00735591 -2.37661e-20)
(-0.114853 0.00695899 -4.49855e-21)
(-0.1223 0.00653672 9.77707e-21)
(-0.129253 0.00609036 -2.05203e-20)
(-0.135684 0.0056223 -1.02565e-21)
(-0.141565 0.00513893 2.02201e-20)
(-0.146878 0.00465404 -7.40633e-20)
(-0.151625 0.00419239 -2.29335e-20)
(-0.155845 0.00379294 3.46433e-20)
(-0.159632 0.00350553 1.70626e-20)
(-0.163103 0.00337513 3.03006e-21)
(-0.166484 0.00348014 -6.86047e-21)
(-0.00067283 0.00256484 -2.05792e-20)
(-0.0035815 0.00644556 -5.63191e-22)
(-0.00909798 0.00934324 -2.79575e-20)
(-0.0161335 0.0114548 4.16999e-20)
(-0.0242672 0.0129175 -4.72092e-20)
(-0.0331509 0.0138532 -4.41047e-21)
(-0.0424772 0.014369 -4.28267e-21)
(-0.0520062 0.0145567 7.82732e-21)
(-0.0615518 0.014494 2.59028e-20)
(-0.0709718 0.0142444 -4.39768e-21)
(-0.0801603 0.0138583 -7.75739e-21)
(-0.0890394 0.0133736 2.79366e-20)
(-0.0975511 0.0128166 -4.91684e-21)
(-0.105651 0.0122042 2.71285e-20)
(-0.113304 0.0115458 -5.48778e-20)
(-0.120475 0.0108452 -2.24185e-20)
(-0.127133 0.0101043 3.61057e-21)
(-0.133246 0.0093264 -7.34063e-20)
(-0.138782 0.0085212 2.00344e-20)
(-0.143718 0.0077103 4.51138e-20)
(-0.148045 0.00693359 -2.84712e-20)
(-0.151791 0.0062553 -6.84482e-20)
(-0.155041 0.00576048 -3.41212e-20)
(-0.157888 0.00552969 -6.36238e-20)
(-0.160527 0.00569845 -3.47782e-20)
(-0.000818884 0.00355437 9.58299e-21)
(-0.00390899 0.00893913 -1.59634e-20)
(-0.00949311 0.012966 5.07844e-20)
(-0.0165188 0.0159044 -4.06256e-20)
(-0.0245807 0.0179429 -1.05773e-20)
(-0.0333423 0.0192491 -2.80987e-21)
(-0.0425052 0.0199711 3.32406e-20)
(-0.051836 0.0202362 2.35636e-20)
(-0.0611529 0.020152 -4.16147e-20)
(-0.0703165 0.019807 1.74435e-20)
(-0.0792226 0.0192715 1.06575e-21)
(-0.0877937 0.0185981 -7.8574e-20)
(-0.095972 0.017824 -2.57843e-20)
(-0.103713 0.0169731 2.08966e-21)
(-0.110978 0.0160581 1.71794e-20)
(-0.117734 0.0150845 7.82549e-20)
(-0.123947 0.0140544 8.6755e-21)
(-0.129579 0.0129711 7.40779e-20)
(-0.134596 0.0118461 7.39455e-20)
(-0.138964 0.0107068 -9.11742e-21)
(-0.142661 0.0096059 3.3209e-20)
(-0.145696 0.00863159 -1.26989e-20)
(-0.148143 0.00790636 4.2113e-20)
(-0.150058 0.00755484 1.40321e-19)
(-0.151574 0.00777628 2.18972e-20)
(-0.0010097 0.00450844 1.63029e-20)
(-0.00433773 0.01135 -5.92934e-20)
(-0.0100114 0.0164767 7.65004e-20)
(-0.0170249 0.0202241 2.81923e-20)
(-0.0249929 0.0228288 2.2095e-20)
(-0.0335938 0.0245016 2.3497e-20)
(-0.0425409 0.0254296 -1.24975e-19)
(-0.0516092 0.025774 4.64656e-20)
(-0.0606224 0.0256717 4.83328e-20)
(-0.069445 0.0252355 -7.14085e-20)
(-0.0779747 0.0245552 7.39336e-20)
(-0.0861348 0.0236983 4.0426e-20)
(-0.0938673 0.0227129 4.9995e-20)
(-0.101127 0.0216296 -3.38595e-20)
(-0.107874 0.020465 -7.51231e-21)
(-0.114072 0.019226 1.64433e-19)
(-0.119685 0.0179143 -7.09868e-20)
(-0.124672 0.0165323 5.49874e-20)
(-0.12899 0.0150914 -1.33024e-19)
(-0.132597 0.0136221 -5.36364e-20)
(-0.135452 0.0121866 5.08418e-20)
(-0.137539 0.010894 8.87927e-20)
(-0.138917 0.00990639 1.50443e-20)
(-0.139601 0.00940403 -1.15453e-19)
(-0.139594 0.00965748 -8.096e-20)
(-0.0012421 0.00541823 -6.41323e-20)
(-0.00486123 0.0136574 -2.06984e-20)
(-0.0106457 0.0198463 -4.53772e-20)
(-0.0176455 0.0243799 -4.39112e-20)
(-0.0254989 0.0275381 3.14988e-20)
(-0.0339021 0.0295718 -5.62668e-20)
(-0.0425827 0.0307047 -3.64945e-20)
(-0.0513255 0.0311305 -1.81375e-19)
(-0.0599613 0.0310139 7.95499e-21)
(-0.0683589 0.0304915 -1.84449e-21)
(-0.0764184 0.029672 -1.39026e-19)
(-0.0840641 0.028638 -4.74091e-20)
(-0.0912374 0.027448 -5.88904e-20)
(-0.0978914 0.0261399 1.13914e-19)
(-0.103985 0.0247344 3.28495e-20)
(-0.10948 0.0232395 -8.96697e-20)
(-0.114335 0.0216562 -1.00022e-19)
(-0.118505 0.0199851 2.77347e-20)
(-0.121941 0.0182353 1.09765e-19)
(-0.124586 0.0164369 -2.37451e-20)
(-0.126382 0.0146572 -1.43446e-20)
(-0.127284 0.0130215 -6.76128e-20)
(-0.127328 0.0117314 -8.52193e-20)
(-0.126488 0.0110374 6.96478e-20)
(-0.124536 0.0112867 4.71647e-20)
(-0.00151227 0.00627589 3.32986e-20)
(-0.00547176 0.0158422 3.91441e-20)
(-0.0113877 0.0230484 -3.08655e-20)
(-0.018373 0.02834 -6.3819e-20)
(-0.0260928 0.0320356 9.93274e-21)
(-0.0342634 0.0344225 7.48536e-20)
(-0.0426285 0.0357582 1.07579e-19)
(-0.0509845 0.0362668 1.46885e-19)
(-0.0591701 0.0361399 2.56165e-20)
(-0.0670594 0.0355365 3.38318e-20)
(-0.0745551 0.0345842 4.10494e-20)
(-0.0815822 0.03338 1.57116e-19)
(-0.0880815 0.0319933 -9.05864e-21)
(-0.0940042 0.0304693 -2.01492e-19)
(-0.0993068 0.0288328 1.45205e-19)
(-0.103947 0.0270934 5.77198e-20)
(-0.10788 0.0252511 1.82834e-19)
(-0.111055 0.0233036 -7.47915e-20)
(-0.113413 0.0212559 -8.61402e-20)
(-0.114888 0.0191339 2.45676e-19)
(-0.115401 0.0170041 -8.25282e-20)
(-0.114873 0.0150013 -1.25956e-19)
(-0.113312 0.013363 -3.36503e-20)
(-0.110669 0.0124257 -1.05782e-19)
(-0.106309 0.0126099 1.7619e-20)
(-0.00181596 0.00707464 8.28301e-21)
(-0.00616055 0.0178877 -1.62645e-20)
(-0.0122276 0.026059 3.31775e-21)
(-0.0191985 0.0320753 -1.16226e-19)
(-0.0267675 0.0362885 -9.01786e-20)
(-0.0346726 0.0390183 -1.70227e-20)
(-0.0426753 0.0405532 -4.39698e-20)
(-0.050585 0.0411453 -7.99906e-20)
(-0.0582491 0.0410114 -1.80206e-20)
(-0.0655473 0.0403324 -8.92865e-21)
(-0.0723854 0.0392537 -8.47179e-20)
(-0.078689 0.0378867 3.66277e-20)
(-0.0843977 0.0363118 2.75644e-20)
(-0.0894601 0.0345814 1.47971e-19)
(-0.0938291 0.0327251 -3.01777e-21)
(-0.0974577 0.0307541 -8.95024e-20)
(-0.100296 0.0286677 -9.73205e-21)
(-0.102286 0.02646 3.8682e-20)
(-0.103362 0.0241301 1.58579e-19)
(-0.103444 0.0216963 -1.17748e-19)
(-0.102434 0.0192183 3.10024e-19)
(-0.100219 0.0168306 1.29259e-19)
(-0.0967673 0.0147974 -9.757e-20)
(-0.0920615 0.0135575 1.88557e-19)
(-0.0847755 0.0135767 1.09374e-19)
(-0.00214854 0.00780895 1.01403e-20)
(-0.00691808 0.01978 5.13882e-20)
(-0.0131548 0.0288572 1.45704e-19)
(-0.0201124 0.0355596 1.81503e-19)
(-0.0275149 0.0402666 1.07885e-19)
(-0.0351238 0.0433262 -7.57021e-20)
(-0.0427195 0.0450544 1.84293e-19)
(-0.0501249 0.0457293 2.08824e-20)
(-0.0571973 0.0455911 -1.09991e-19)
(-0.0638224 0.0448413 1.2081e-20)
(-0.0699089 0.0436425 2.03881e-19)
(-0.0753828 0.0421203 -2.17797e-19)
(-0.0801818 0.0403657 -1.24301e-19)
(-0.0842512 0.0384391 -2.52426e-20)
(-0.0875386 0.0363747 -2.03716e-19)
(-0.0899913 0.0341863 -1.32731e-19)
(-0.0915522 0.0318724 2.35264e-20)
(-0.0921564 0.029424 -2.7631e-19)
(-0.0917275 0.026833 2.76348e-20)
(-0.0901735 0.0241074 -1.32147e-19)
(-0.0873804 0.0212936 -1.63603e-19)
(-0.0831989 0.018516 1.52307e-19)
(-0.077543 0.0160485 1.7115e-19)
(-0.0705427 0.0144452 -1.33137e-19)
(-0.0597385 0.0141653 1.83095e-19)
(-0.00250522 0.00847459 -1.21944e-19)
(-0.0077343 0.0215075 8.93941e-20)
(-0.014158 0.0314256 -6.53473e-21)
(-0.0211038 0.0387702 3.57213e-20)
(-0.0283261 0.0439428 3.37979e-20)
(-0.0356102 0.0473156 1.51638e-19)
(-0.042756 0.0492286 -1.10017e-19)
(-0.0496009 0.0499837 -2.05007e-19)
(-0.0560124 0.0498425 1.02673e-19)
(-0.0618824 0.0490258 9.58048e-20)
(-0.0671225 0.0477128 -3.23353e-19)
(-0.0716587 0.0460425 2.2732e-19)
(-0.075426 0.0441168 3.45027e-19)
(-0.0783647 0.0420039 2.35038e-20)
(-0.0804162 0.0397437 -6.08135e-20)
(-0.0815196 0.0373526 1.74511e-19)
(-0.0816089 0.0348296 -8.04627e-20)
(-0.0806092 0.0321625 3.60323e-19)
(-0.078433 0.0293369 -3.17601e-19)
(-0.0749754 0.026348 5.77247e-20)
(-0.0701071 0.0232246 -2.99537e-20)
(-0.0636492 0.0200711 -9.73946e-20)
(-0.0554222 0.0171417 -9.44396e-20)
(-0.045912 0.0150988 7.77565e-20)
(-0.03097 0.014485 2.00015e-20)
(-0.00288116 0.0090687 7.96294e-20)
(-0.00859894 0.0230618 -5.73041e-20)
(-0.0152255 0.03375 4.73129e-20)
(-0.0221614 0.0416877 -1.59401e-19)
(-0.0291911 0.0472934 -3.52337e-20)
(-0.0361233 0.0509588 1.79036e-20)
(-0.0427782 0.0530452 -4.05129e-20)
(-0.0490077 0.0538752 -6.70368e-20)
(-0.0546896 0.0537305 2.10802e-20)
(-0.0597223 0.0528495 -1.11977e-19)
(-0.06402 0.0514271 2.08745e-19)
(-0.0675078 0.0496154 -4.79653e-20)
(-0.0701171 0.0475266 -1.22529e-19)
(-0.0717818 0.0452374 -1.25392e-19)
(-0.0724346 0.0427933 1.65994e-19)
(-0.0720043 0.0402147 8.99351e-20)
(-0.0704131 0.0375016 3.57956e-20)
(-0.067573 0.0346403 -3.0044e-19)
(-0.0633826 0.0316105 3.13058e-19)
(-0.0577224 0.0283957 -1.02263e-19)
(-0.0504472 0.0250037 -4.75844e-20)
(-0.041364 0.0215117 -3.68452e-20)
(-0.030134 0.018111 -4.08256e-20)
(-0.0177951 0.0154571 1.31587e-19)
(0.00176905 0.0148123 -2.15217e-19)
(-0.00327162 0.00958983 -2.95892e-20)
(-0.00950177 0.0244373 1.27814e-19)
(-0.0163452 0.0358199 -1.82733e-19)
(-0.0232733 0.0442968 7.32743e-20)
(-0.0300988 0.050298 4.04129e-20)
(-0.0366536 0.0542313 -6.12366e-20)
(-0.0427775 0.0564759 1.78419e-19)
(-0.0483372 0.0573729 4.33435e-20)
(-0.0532208 0.0572218 2.03009e-20)
(-0.057333 0.0562775 1.75121e-19)
(-0.0605898 0.0547492 -7.17592e-20)
(-0.0629149 0.0528017 7.58795e-20)
(-0.0642344 0.0505574 -8.067e-20)
(-0.0644739 0.0481012 -5.11563e-21)
(-0.0635551 0.0454852 -8.79237e-20)
(-0.0613934 0.042734 -3.04159e-19)
(-0.0578953 0.0398503 6.26406e-20)
(-0.0529559 0.0368205 2.42775e-19)
(-0.0464562 0.0336206 -8.3753e-20)
(-0.0382582 0.0302245 4.05101e-19)
(-0.0281962 0.0266191 -2.2468e-19)
(-0.0160937 0.0228507 -6.42068e-20)
(-0.0014166 0.0190305 -1.07865e-19)
(0.0142919 0.0157203 3.34611e-21)
(0.0390672 0.0149863 -9.64864e-20)
(-0.00367215 0.0100379 -8.85606e-20)
(-0.0104329 0.0256314 -1.3176e-19)
(-0.0175051 0.0376286 -7.07546e-20)
(-0.0244269 0.0465857 6.65222e-20)
(-0.0310371 0.0529402 2.07732e-20)
(-0.0371894 0.057112 1.19993e-20)
(-0.0427426 0.0594957 4.58663e-20)
(-0.047578 0.0604483 -2.23436e-19)
(-0.0515937 0.0602853 7.38672e-20)
(-0.0546998 0.0592765 -1.52987e-19)
(-0.0568139 0.0576445 -5.54486e-20)
(-0.0578565 0.0555658 -7.48547e-20)
(-0.0577469 0.0531728 -1.58494e-19)
(-0.0564001 0.0505587 3.25756e-19)
(-0.0537237 0.0477823 1.84764e-19)
(-0.049616 0.0448736 4.96923e-20)
(-0.0439637 0.0418393 1.55055e-19)
(-0.0366401 0.0386677 -2.24402e-19)
(-0.0275028 0.0353342 -5.52911e-20)
(-0.0163917 0.031807 -2.63291e-19)
(-0.00310995 0.0280561 1.01474e-19)
(0.0124776 0.0241047 2.23122e-19)
(0.0311659 0.0199675 1.02011e-19)
(0.0505905 0.0161562 -1.92595e-19)
(0.0817177 0.0148889 2.4066e-19)
(-0.00407864 0.010414 -3.15419e-20)
(-0.0113828 0.0266443 8.22954e-21)
(-0.0186934 0.0391728 8.96165e-20)
(-0.0256092 0.0485467 1.5997e-19)
(-0.0319923 0.0552071 -1.07069e-19)
(-0.0377167 0.0595834 1.03231e-19)
(-0.0426589 0.0620827 -8.09886e-20)
(-0.0467142 0.063076 3.05979e-19)
(-0.0497899 0.0628927 -2.1447e-19)
(-0.0518008 0.061816 4.61372e-20)
(-0.0526647 0.060081 1.99068e-19)
(-0.0522975 0.0578747 -2.74598e-20)
(-0.0506095 0.0553393 2.13722e-20)
(-0.0475021 0.0525761 -2.64816e-19)
(-0.0428655 0.0496513 -2.2442e-19)
(-0.0365765 0.0466009 -8.56511e-21)
(-0.0284972 0.0434368 -2.47181e-19)
(-0.0184731 0.0401516 9.04369e-20)
(-0.00633242 0.0367231 -1.25953e-19)
(0.00811124 0.0331192 1.64814e-19)
(0.0251044 0.0293003 -2.22537e-19)
(0.0446859 0.0252771 1.33667e-19)
(0.0681177 0.0209505 -1.11699e-19)
(0.0915367 0.0168202 1.51291e-19)
(0.130343 0.0149064 -8.78536e-21)
(-0.00448751 0.0107206 1.7287e-19)
(-0.0123429 0.0274788 4.38364e-20)
(-0.0198984 0.0404527 -9.92405e-20)
(-0.0268066 0.0501756 -1.19095e-19)
(-0.0329494 0.0570898 8.03669e-20)
(-0.0382187 0.0616319 -2.94618e-19)
(-0.0425077 0.064219 4.19939e-19)
(-0.045724 0.0652341 8.16735e-20)
(-0.0477835 0.0650191 1.3537e-19)
(-0.0486044 0.063869 1.65393e-19)
(-0.048103 0.06203 1.04228e-19)
(-0.0461884 0.0596991 -7.80935e-20)
(-0.0427591 0.0570276 -2.63185e-21)
(-0.0376996 0.054125 -3.81864e-20)
(-0.0308787 0.0510649 -1.13997e-19)
(-0.0221469 0.0478904 2.55442e-19)
(-0.0113362 0.0446199 5.2079e-19)
(0.00174142 0.0412522 3.10418e-20)
(0.0172942 0.0377712 1.79699e-19)
(0.0355367 0.0341489 -9.34665e-20)
(0.0567931 0.0303462 1.13254e-19)
(0.0809129 0.0263675 -6.64816e-19)
(0.109946 0.0220442 3.15734e-19)
(0.137618 0.0177476 1.94937e-19)
(0.185593 0.0153776 -1.2984e-19)
(-0.00489574 0.0109611 -1.03653e-19)
(-0.0133052 0.0281401 -1.78175e-19)
(-0.0211088 0.0414715 1.70916e-19)
(-0.0280047 0.051472 1.11954e-19)
(-0.0338911 0.0585835 6.01812e-20)
(-0.038675 0.0632477 2.13056e-19)
(-0.0422646 0.0658904 -2.21089e-19)
(-0.0445786 0.066905 -2.0386e-19)
(-0.0455394 0.066644 -1.33815e-19)
(-0.0450672 0.0654129 -3.14157e-19)
(-0.0430743 0.0634678 6.07394e-20)
(-0.0394606 0.061015 -2.47744e-20)
(-0.0341093 0.0582145 4.47695e-19)
(-0.0268841 0.0551839 1.84348e-19)
(-0.0176275 0.0520046 1.32503e-19)
(-0.00615863 0.0487275 -4.1636e-20)
(0.00772624 0.0453791 -2.38704e-19)
(0.0242542 0.0419664 -1.93312e-19)
(0.0436766 0.0384822 -2.26184e-19)
(0.0662324 0.0349067 1.61973e-19)
(0.0923631 0.0312135 3.05368e-19)
(0.121583 0.0273913 3.41537e-19)
(0.157175 0.0233238 -3.21961e-19)
(0.189284 0.0189978 1.38693e-19)
(0.248056 0.0165927 1.86173e-19)
(-0.00530097 0.0111399 -2.7288e-19)
(-0.0142626 0.0286354 1.51887e-19)
(-0.0223133 0.0422353 -2.59018e-19)
(-0.0291884 0.0524388 3.1828e-19)
(-0.0347977 0.0596868 -3.04161e-19)
(-0.0390611 0.0644252 -9.1042e-20)
(-0.0418994 0.0670874 -1.6962e-19)
(-0.0432402 0.0680756 9.53774e-20)
(-0.0430108 0.0677516 -1.63292e-19)
(-0.0411307 0.0664303 1.78587e-19)
(-0.0375057 0.0643767 -2.34227e-19)
(-0.0320227 0.0618056 -1.73734e-19)
(-0.0245456 0.0588853 6.0462e-21)
(-0.0149127 0.0557416 -2.66684e-19)
(-0.00293484 0.0524642 5.64954e-21)
(0.0116055 0.0491131 -2.6991e-19)
(0.0289533 0.0457239 -1.65539e-20)
(0.0493789 0.0423141 -2.94405e-19)
(0.0731816 0.0388887 1.0291e-19)
(0.100612 0.035437 4.47992e-19)
(0.13228 0.0319661 -4.30972e-19)
(0.167158 0.0283963 2.11683e-19)
(0.210313 0.0248992 2.3257e-19)
(0.246927 0.0206308 -1.11575e-19)
(0.318094 0.0188194 4.48321e-20)
(-0.00570144 0.0112619 1.41416e-19)
(-0.0152089 0.0289733 -3.98997e-20)
(-0.023501 0.0427526 8.78263e-20)
(-0.0303408 0.0530822 -2.56034e-19)
(-0.0356463 0.0604022 4.10226e-19)
(-0.039347 0.0651632 2.67518e-20)
(-0.0413735 0.067805 2.96504e-19)
(-0.0416605 0.068738 -1.54675e-19)
(-0.0401371 0.0683322 1.04817e-19)
(-0.0367191 0.0669108 1.37888e-19)
(-0.0313021 0.0647467 1.26407e-19)
(-0.0237558 0.0620629 3.99923e-19)
(-0.01392 0.0590358 -1.01209e-19)
(-0.00160204 0.0557997 -1.01917e-19)
(0.0134243 0.0524537 -7.98192e-20)
(0.0314185 0.0490675 -7.08235e-21)
(0.0526708 0.0456883 -1.68028e-19)
(0.0774966 0.0423457 1.48401e-19)
(0.106245 0.0390603 -1.99146e-19)
(0.139153 0.0358273 8.17604e-20)
(0.177051 0.0327245 -1.16158e-19)
(0.218116 0.0294805 1.49752e-20)
(0.269781 0.0269356 -5.4467e-19)
(0.310846 0.0227312 5.80811e-20)
(0.395676 0.0222847 -1.80522e-21)
(-0.00609604 0.0113325 1.88493e-19)
(-0.0161385 0.0291641 -1.27199e-19)
(-0.0246603 0.0430339 -8.965e-20)
(-0.0314436 0.0534107 -5.4193e-20)
(-0.0364103 0.0607357 -1.77377e-19)
(-0.0394964 0.0654643 -2.99298e-19)
(-0.0406398 0.0680433 -9.76957e-20)
(-0.0397788 0.0688903 3.34178e-19)
(-0.0368413 0.068383 -1.04365e-19)
(-0.0317355 0.0668519 -2.25589e-19)
(-0.0243422 0.0645773 -1.36259e-19)
(-0.0145088 0.0617903 -4.08966e-19)
(-0.00204544 0.0586754 -4.45534e-19)
(0.0132773 0.0553765 3.34667e-19)
(0.0317281 0.0520027 6.88407e-20)
(0.0536129 0.0486357 5.50176e-20)
(0.0792688 0.0453357 5.75308e-19)
(0.109053 0.0421468 8.75631e-20)
(0.143358 0.0391093 5.5203e-19)
(0.182371 0.0362136 -6.61321e-19)
(0.227178 0.0336684 3.09269e-19)
(0.274906 0.0308082 -2.79691e-19)
(0.335802 0.0296479 4.38633e-19)
(0.381181 0.0254519 -6.58577e-19)
(0.480193 0.0271544 1.37033e-19)
(-0.00648418 0.0113573 -4.78065e-20)
(-0.0170463 0.0292182 -1.0158e-19)
(-0.0257793 0.043091 -9.3601e-20)
(-0.032476 0.0534353 3.18777e-20)
(-0.0370583 0.0606964 -5.02228e-20)
(-0.0394657 0.0653359 1.89479e-19)
(-0.0396401 0.0678079 -6.78546e-20)
(-0.0375199 0.0685372 -1.4324e-19)
(-0.0330278 0.0679088 -5.86641e-20)
(-0.0260594 0.0662602 2.95311e-21)
(-0.0164754 0.0638792 3.76138e-19)
(-0.00409499 0.0610046 -3.30032e-19)
(0.0113076 0.0578301 4.80008e-19)
(0.0300042 0.0545099 -1.38921e-19)
(0.0523104 0.0511652 -2.41857e-19)
(0.07858 0.0478914 2.00321e-19)
(0.109195 0.044764 -2.19732e-19)
(0.144541 0.0418431 -3.71322e-19)
(0.185041 0.0391938 -1.38344e-19)
(0.230777 0.0367809 1.30085e-19)
(0.283085 0.0350277 2.07745e-19)
(0.337862 0.0326172 4.03036e-19)
(0.408254 0.0332642 2.3389e-20)
(0.457797 0.029034 2.78808e-19)
(0.570305 0.0335161 -9.04617e-20)
(-0.0068657 0.0113419 -2.34163e-20)
(-0.0179274 0.0291465 2.22207e-19)
(-0.0268447 0.0429367 2.29493e-19)
(-0.0334139 0.053169 -1.02924e-19)
(-0.0375533 0.0602963 7.22845e-20)
(-0.0392029 0.0647891 -2.68827e-19)
(-0.0383044 0.0671096 5.35065e-20)
(-0.0347927 0.0676903 4.32016e-20)
(-0.0285798 0.0669234 -1.25976e-19)
(-0.0195437 0.0651534 -3.46973e-20)
(-0.00751842 0.062676 -4.71487e-19)
(0.00771145 0.0597385 1.50035e-19)
(0.0264138 0.0565448 -2.26421e-20)
(0.0489076 0.0532611 -5.33614e-21)
(0.0755573 0.0500226 -2.17884e-20)
(0.106762 0.0469405 -4.30525e-21)
(0.142936 0.044108 -1.92421e-20)
(0.184474 0.0416015 2.57669e-19)
(0.23179 0.0395154 -2.28984e-19)
(0.284806 0.0377605 2.08592e-19)
(0.345007 0.0370574 -3.07585e-19)
(0.407081 0.0352109 -1.48205e-19)
(0.486526 0.0379751 4.27548e-20)
(0.54011 0.0337744 -2.38956e-19)
(0.663869 0.0413607 -7.80904e-20)
(-0.00724068 0.0112916 -2.22306e-19)
(-0.0187767 0.0289596 -2.79992e-20)
(-0.0278419 0.0425839 -2.83508e-19)
(-0.0342298 0.0526258 -2.27934e-19)
(-0.0378522 0.0595504 3.0208e-19)
(-0.038646 0.0638395 2.07007e-19)
(-0.0365492 0.0659653 -9.14119e-20)
(-0.0314878 0.0663689 -8.19112e-20)
(-0.0233579 0.0654501 -6.10437e-20)
(-0.012013 0.0635613 5.275e-19)
(0.00274603 0.0610064 2.02973e-19)
(0.021176 0.0580428 2.86728e-19)
(0.0435919 0.0548863 -1.58662e-20)
(0.0703626 0.051717 5.57188e-20)
(0.101899 0.0486864 1.54439e-19)
(0.138633 0.0459234 -3.62281e-19)
(0.180992 0.0435401 5.72399e-19)
(0.229337 0.0416274 6.04877e-20)
(0.284012 0.0403113 -1.86512e-19)
(0.344721 0.0394187 -2.81549e-19)
(0.412883 0.0400055 -1.52221e-19)
(0.482254 0.0389233 3.39303e-19)
(0.569431 0.0438927 -1.12119e-20)
(0.626899 0.0399402 1.77715e-19)
(0.758013 0.0505554 2.13838e-19)
(-0.00760926 0.011211 1.69565e-19)
(-0.0195883 0.0286671 1.77554e-20)
(-0.0287536 0.0420456 -3.82537e-20)
(-0.0348914 0.0518207 4.02529e-20)
(-0.0379043 0.0584755 -2.87257e-19)
(-0.0377226 0.0625065 3.82754e-19)
(-0.0342763 0.0643977 -9.10212e-22)
(-0.027477 0.0646003 3.12204e-19)
(-0.0171985 0.0635229 1.33241e-20)
(-0.00326264 0.0615268 -1.0702e-19)
(0.0145697 0.0589257 1.68626e-19)
(0.0366024 0.0559887 -5.6664e-19)
(0.0632008 0.0529454 -3.49587e-19)
(0.0947811 0.0499926 -1.74319e-19)
(0.13179 0.0472998 -7.52228e-20)
(0.174671 0.0450148 6.80688e-21)
(0.223823 0.0432672 -3.71238e-19)
(0.279517 0.0421579 1.41109e-19)
(0.341933 0.0418384 5.42657e-19)
(0.410495 0.0420362 1.49263e-19)
(0.486241 0.0440819 3.61327e-19)
(0.562514 0.0440525 -3.57327e-19)
(0.6552 0.0510308 -8.33244e-20)
(0.71619 0.0476645 -1.41488e-19)
(0.849414 0.0608182 -7.48385e-19)
(-0.00797138 0.011104 -1.5888e-19)
(-0.020355 0.0282775 8.05979e-20)
(-0.0295596 0.0413336 1.43376e-19)
(-0.0353612 0.0507695 4.98762e-19)
(-0.0376506 0.0570909 1.87893e-19)
(-0.0363486 0.0608134 -4.17428e-19)
(-0.0313721 0.0624356 -1.05361e-19)
(-0.0226121 0.0624205 -5.53307e-20)
(-0.00991331 0.0611872 -1.82354e-19)
(0.00694107 0.0591073 -5.97616e-20)
(0.0282366 0.0565067 -1.23729e-19)
(0.0543278 0.0536682 4.52139e-19)
(0.0856291 0.0508381 5.40227e-19)
(0.122595 0.0482313 2.72054e-19)
(0.165685 0.0460366 -1.39e-19)
(0.215317 0.0444193 -9.74997e-20)
(0.271799 0.0435225 2.14579e-19)
(0.33523 0.0434476 -4.85075e-20)
(0.405506 0.0443518 -3.55455e-21)
(0.481706 0.0458735 1.17956e-19)
(0.564133 0.0494364 -1.69069e-19)
(0.646336 0.0507777 -2.93421e-19)
(0.741587 0.0593002 -1.96142e-19)
(0.805308 0.0568684 2.47917e-19)
(0.934722 0.0717161 7.86736e-19)
(-0.00832651 0.0109735 1.2679e-19)
(-0.021068 0.0277976 4.31281e-19)
(-0.030236 0.0404592 1.7256e-19)
(-0.0355954 0.0494874 -1.52947e-19)
(-0.0370235 0.0554172 2.13464e-19)
(-0.0344278 0.0587873 2.35255e-19)
(-0.0277069 0.0601138 2.63943e-19)
(-0.0167252 0.059874 -1.4847e-20)
(-0.0012907 0.0584996 2.07877e-19)
(0.0188583 0.0563751 -6.40493e-19)
(0.0440583 0.0538406 3.62657e-19)
(0.074714 0.0511957 -1.92996e-19)
(0.111281 0.0487051 -4.88197e-19)
(0.15423 0.0466032 -3.54795e-19)
(0.203999 0.0450971 5.79101e-19)
(0.260919 0.0443649 -1.98737e-19)
(0.325124 0.044553 -9.80317e-20)
(0.396434 0.0457486 7.56182e-20)
(0.474318 0.0480779 -3.82486e-19)
(0.557446 0.0511256 3.11e-19)
(0.6451 0.056141 -5.01939e-20)
(0.731555 0.0590932 3.64705e-19)
(0.826045 0.0685031 4.22745e-19)
(0.891145 0.067247 -1.44793e-19)
(1.01104 0.0827055 -2.88048e-19)
(-0.00867336 0.0108213 -6.60989e-20)
(-0.0217157 0.0272322 -2.44682e-19)
(-0.0307548 0.0394323 6.43243e-21)
(-0.0355436 0.0479898 -1.23637e-19)
(-0.0359457 0.0534764 -3.64466e-19)
(-0.0318514 0.0564586 -1.88657e-19)
(-0.0231355 0.0574732 1.03835e-19)
(-0.00962921 0.0570142 -3.24113e-19)
(0.00890251 0.0555289 2.55902e-20)
(0.0327715 0.0534176 1.59796e-19)
(0.0623655 0.0510372 -4.59721e-19)
(0.0981332 0.0487066 -1.51384e-19)
(0.140552 0.0467103 3.91052e-19)
(0.190077 0.0453016 2.64691e-19)
(0.247064 0.0447009 -3.42825e-19)
(0.311676 0.0450897 3.68627e-19)
(0.383766 0.0466002 1.53679e-19)
(0.462748 0.0492839 -3.87358e-20)
(0.547534 0.0531857 -3.34427e-20)
(0.636299 0.057877 -3.30426e-19)
(0.727221 0.0641709 3.64844e-20)
(0.815552 0.0687873 -6.22454e-20)
(0.905991 0.0783321 -3.30998e-19)
(0.970621 0.0783253 -2.43656e-19)
(1.07627 0.0932104 -2.26809e-19)
(-0.00900982 0.0106481 -4.15704e-20)
(-0.0222838 0.0265846 -5.43759e-19)
(-0.0310822 0.0382604 -3.36127e-19)
(-0.0351484 0.0462911 -4.28839e-19)
(-0.0343304 0.0512919 3.79288e-19)
(-0.0284982 0.0538612 3.05789e-20)
(-0.0174977 0.0545602 2.75324e-19)
(-0.00112037 0.0539031 -2.51947e-19)
(0.0209169 0.0523556 4.19604e-19)
(0.0489778 0.0503369 1.57404e-19)
(0.0834967 0.0482238 1.2866e-20)
(0.12495 0.0463558 -2.47479e-20)
(0.173807 0.0450372 -8.7473e-20)
(0.230449 0.0445357 -7.60994e-20)
(0.295076 0.0450759 8.16104e-20)
(0.367574 0.0468257 1.15577e-19)
(0.447388 0.0498774 -7.35195e-19)
(0.533404 0.0542177 4.60549e-20)
(0.623869 0.0597579 -1.21577e-19)
(0.716408 0.066074 -1.12519e-19)
(0.808238 0.0733846 5.66086e-20)
(0.895564 0.0794717 -3.66279e-19)
(0.979097 0.0883939 1.66285e-19)
(1.04116 0.0895693 2.10912e-19)
(1.12932 0.102716 -4.79491e-19)
(-0.00933228 0.0104535 9.71156e-20)
(-0.0227551 0.0258557 3.93557e-19)
(-0.0311793 0.0369494 3.39602e-20)
(-0.0343443 0.0444055 6.23108e-19)
(-0.0320809 0.0488881 -3.9566e-19)
(-0.0242355 0.0510323 3.87928e-19)
(-0.0106199 0.0514272 -3.48045e-19)
(0.00901887 0.0506111 1.37195e-19)
(0.0350148 0.0490714 -1.77303e-19)
(0.0677801 0.0472491 2.34138e-19)
(0.107783 0.0455433 3.88609e-19)
(0.1555 0.0443142 2.0149e-19)
(0.21134 0.0438824 8.07615e-20)
(0.275542 0.0445214 8.82767e-20)
(0.348041 0.0464435 -6.72471e-20)
(0.428328 0.0497784 -5.40685e-20)
(0.515309 0.0545444 5.99898e-19)
(0.607229 0.0606281 1.97457e-19)
(0.701639 0.0677651 5.46994e-19)
(0.795613 0.0755215 1.42412e-20)
(0.885763 0.0835202 -3.44891e-19)
(0.969055 0.0906422 4.29632e-19)
(1.04359 0.0982745 5.41407e-19)
(1.10102 0.100519 7.00878e-20)
(1.17004 0.110825 4.71691e-19)
(-0.00963563 0.0102356 -2.75547e-19)
(-0.0231076 0.0250441 1.52729e-19)
(-0.0310016 0.035504 3.3578e-19)
(-0.0330584 0.0423465 -1.32174e-19)
(-0.0290913 0.0462905 -3.93526e-19)
(-0.0189198 0.0480119 -2.90774e-20)
(-0.00231784 0.0481321 2.13114e-20)
(0.0210153 0.0472167 3.82168e-20)
(0.0514625 0.0457783 -2.45245e-19)
(0.0894749 0.0442826 -1.03992e-19)
(0.13553 0.0431514 -3.62932e-19)
(0.19006 0.0427635 -8.99843e-21)
(0.253347 0.0434478 -1.02172e-19)
(0.325387 0.0454686 -3.09835e-20)
(0.405734 0.0490015 2.71111e-19)
(0.493348 0.0541047 -3.97376e-19)
(0.586486 0.0606834 1.67402e-19)
(0.682692 0.068486 -2.64761e-19)
(0.778872 0.0770536 -3.95419e-19)
(0.871673 0.0859052 7.31311e-20)
(0.957557 0.0942165 7.35919e-19)
(1.03407 0.101754 -3.729e-19)
(1.09844 0.107644 1.62514e-20)
(1.14937 0.110869 3.234e-19)
(1.19909 0.117173 1.81481e-19)
(-0.00991264 0.00999118 1.29772e-19)
(-0.0233158 0.024147 -1.84304e-19)
(-0.0304983 0.0339275 -3.90701e-19)
(-0.0312103 0.0401275 -2.07711e-19)
(-0.025247 0.0435256 2.27133e-19)
(-0.012399 0.0448434 7.73325e-20)
(0.00760048 0.044738 4.52242e-19)
(0.0350991 0.0438058 1.83537e-19)
(0.0705216 0.042588 1.16091e-19)
(0.114338 0.0415758 5.41214e-20)
(0.166996 0.041213 3.75202e-19)
(0.228824 0.0418901 1.69759e-19)
(0.299885 0.0439309 -1.40619e-19)
(0.379816 0.0475671 2.01239e-19)
(0.467658 0.0529054 -1.16044e-19)
(0.561725 0.0598923 1.47414e-19)
(0.659551 0.0682805 -1.43108e-19)
(0.758003 0.0776489 -3.11784e-19)
(0.8535 0.0873515 4.5348e-19)
(0.942511 0.0968347 -4.74241e-19)
(1.0218 0.105055 1.34176e-19)
(1.08946 0.112309 -1.54991e-19)
(1.14341 0.116359 -1.1711e-19)
(1.1862 0.120337 -9.65491e-19)
(1.21789 0.121209 1.54259e-19)
(-0.0101544 0.0097173 2.65286e-20)
(-0.0233489 0.0231605 1.32057e-19)
(-0.0296126 0.0322218 4.38343e-19)
(-0.0287121 0.0377614 -1.03414e-19)
(-0.020426 0.0406217 -4.50707e-20)
(-0.00451428 0.0415735 8.38437e-20)
(0.0193305 0.0413132 7.47657e-20)
(0.0514975 0.0404715 -2.94739e-19)
(0.0924376 0.0396197 -1.36953e-19)
(0.142607 0.0392749 -4.22879e-19)
(0.202373 0.0398971 -3.19431e-19)
(0.271872 0.0418772 -2.27904e-19)
(0.35084 0.0455125 2.03685e-19)
(0.438429 0.0509712 -2.97457e-19)
(0.533041 0.0582505 -1.43278e-19)
(0.632256 0.0671436 -6.27343e-20)
(0.732893 0.0772176 -4.52976e-20)
(0.831265 0.087869 9.33428e-19)
(0.923564 0.0982991 5.94779e-20)
(1.00643 0.107896 -8.21624e-20)
(1.07729 0.115614 -4.63714e-19)
(1.13496 0.12195 1.50756e-19)
(1.17888 0.124437 1.57002e-20)
(1.21228 0.128271 5.55159e-19)
(1.22911 0.122555 6.23769e-20)
(-0.0103509 0.00940978 2.09558e-19)
(-0.023172 0.0220791 -2.01533e-19)
(-0.0282814 0.0303889 -3.06094e-19)
(-0.0254698 0.0352623 3.07454e-19)
(-0.0145002 0.0376089 -6.87052e-20)
(0.0048971 0.0382524 -5.95778e-20)
(0.0330663 0.0379314 5.19078e-20)
(0.0704265 0.037313 -7.43544e-20)
(0.117429 0.0369995 1.86617e-19)
(0.17447 0.0375298 1.21073e-19)
(0.241759 0.039371 3.13733e-19)
(0.319144 0.0428956 -8.43191e-21)
(0.405909 0.048345 2.57473e-19)
(0.500587 0.0557844 -1.72546e-20)
(0.600845 0.0650579 2.75126e-19)
(0.70351 0.0757673 8.01366e-20)
(0.804782 0.0872781 -5.17505e-19)
(0.900656 0.0988186 -2.5236e-19)
(0.987431 0.109497 -6.1381e-20)
(1.06229 0.118702 1.66793e-19)
(1.12357 0.125527 -7.92605e-20)
(1.171 0.130539 -2.81644e-19)
(1.20555 0.13179 3.69405e-20)
(1.22913 0.133811 -2.60329e-19)
(1.24222 0.127622 -1.26018e-19)
(-0.0104892 0.00906375 1.28321e-19)
(-0.0227461 0.0208974 1.37025e-19)
(-0.0264362 0.028431 2.51161e-19)
(-0.0213834 0.0326454 -1.83007e-19)
(-0.00733736 0.0345201 1.3327e-20)
(0.0159983 0.0349345 3.6672e-19)
(0.0489955 0.0346714 -1.05145e-19)
(0.0920828 0.0344354 -3.5108e-19)
(0.145673 0.0348574 -2.08163e-19)
(0.21004 0.0364911 2.78475e-19)
(0.285144 0.0397945 -5.80546e-19)
(0.370424 0.0450947 2.26962e-21)
(0.464579 0.05254 -4.99011e-20)
(0.565417 0.0620473 3.69278e-19)
(0.66982 0.073266 -2.0104e-19)
(0.773929 0.0855818 2.76337e-19)
(0.873527 0.0981675 2.79681e-19)
(0.964609 0.110128 -4.94159e-19)
(1.04394 0.12056 -2.06266e-19)
(1.10954 0.12893 -1.71509e-19)
(1.16081 0.134549 2.61939e-19)
(1.19851 0.138096 4.15366e-19)
(1.2244 0.138056 1.93579e-19)
(1.24062 0.13856 -1.72157e-19)
(1.2495 0.132025 -3.11166e-19)
(-0.0105549 0.0086746 -3.02954e-20)
(-0.022028 0.019611 1.28211e-19)
(-0.0240038 0.0263516 -2.54873e-19)
(-0.0163486 0.0299284 -3.91482e-19)
(0.00119707 0.031392 -5.80469e-19)
(0.0289495 0.031679 9.88655e-20)
(0.067293 0.0316177 -1.16773e-19)
(0.116635 0.0319486 1.71226e-19)
(0.177296 0.0333261 6.36974e-20)
(0.249347 0.0363053 1.22877e-19)
(0.332388 0.0413118 1.36711e-19)
(0.42532 0.0485924 -7.54978e-20)
(0.526137 0.058157 -1.09298e-19)
(0.631847 0.0697292 -2.45711e-19)
(0.73858 0.0827309 7.49701e-20)
(0.841952 0.0963303 -2.93848e-19)
(0.937625 0.109545 1.08405e-19)
(1.02195 0.121431 6.99176e-20)
(1.09247 0.131159 -2.91643e-19)
(1.14826 0.138351 -3.14794e-19)
(1.18976 0.142577 -1.6867e-19)
(1.2186 0.144636 9.57338e-21)
(1.23715 0.14339 5.28224e-20)
(1.24755 0.142634 -1.70185e-19)