/*--------------------------------*- C++ -*----------------------------------*\
  =========                 |
  \\      /  F ield         | OpenFOAM: The Open Source CFD Toolbox
   \\    /   O peration     | Website:  https://openfoam.org
    \\  /    A nd           | Version:  7
     \\/     M anipulation  |
\*---------------------------------------------------------------------------*/
FoamFile
{
    version     2.0;
    format      ascii;
    class       volScalarField;
    location    "10";
    object      p;
}
// * * * * * * * * * * * * * * * * * * * * * * * * * * * * * * * * * * * * * //

dimensions      [0 2 -2 0 0 0 0];

internalField   nonuniform List<scalar> 
11300
(
-0.3415
-0.347799
-0.349529
-0.349416
-0.347627
-0.344235
-0.339386
-0.333181
-0.325713
-0.317089
-0.307443
-0.296943
-0.285861
-0.274617
-0.262759
-0.342383
-0.348523
-0.350162
-0.349971
-0.348116
-0.344669
-0.339775
-0.333532
-0.326031
-0.317374
-0.307693
-0.297148
-0.286011
-0.274713
-0.26256
-0.344141
-0.349965
-0.351422
-0.351074
-0.349087
-0.345531
-0.340547
-0.334228
-0.32666
-0.317939
-0.30819
-0.297552
-0.286307
-0.274907
-0.262163
-0.346754
-0.35211
-0.353296
-0.352715
-0.350529
-0.34681
-0.341689
-0.335256
-0.327588
-0.318771
-0.308924
-0.298142
-0.28674
-0.275197
-0.261571
-0.350196
-0.354937
-0.355764
-0.354874
-0.352424
-0.348487
-0.343185
-0.336598
-0.328796
-0.319852
-0.309863
-0.29892
-0.287301
-0.275584
-0.260787
-0.354432
-0.358419
-0.358804
-0.35753
-0.354752
-0.350542
-0.345012
-0.338233
-0.330263
-0.321161
-0.311003
-0.299855
-0.287972
-0.276066
-0.25982
-0.359423
-0.362527
-0.362388
-0.360657
-0.357486
-0.352949
-0.347145
-0.340135
-0.331963
-0.322672
-0.312318
-0.300931
-0.28874
-0.276642
-0.25868
-0.365124
-0.367224
-0.366484
-0.364227
-0.3606
-0.355681
-0.349557
-0.342276
-0.333869
-0.32436
-0.313782
-0.302128
-0.289585
-0.277306
-0.257385
-0.371487
-0.372474
-0.371061
-0.368209
-0.364065
-0.358711
-0.35222
-0.344629
-0.335954
-0.326197
-0.315369
-0.303425
-0.290492
-0.278053
-0.255959
-0.378464
-0.37824
-0.376085
-0.372572
-0.367853
-0.362011
-0.355108
-0.347168
-0.33819
-0.328157
-0.317055
-0.304802
-0.291443
-0.278871
-0.254433
-0.386005
-0.384482
-0.381522
-0.377288
-0.371936
-0.365556
-0.358196
-0.349868
-0.340555
-0.330217
-0.318817
-0.306237
-0.292424
-0.279743
-0.252845
-0.394065
-0.391162
-0.387339
-0.382327
-0.376288
-0.369322
-0.361463
-0.35271
-0.343028
-0.332357
-0.320636
-0.307713
-0.293421
-0.280644
-0.251244
-0.402595
-0.398245
-0.393506
-0.387664
-0.380888
-0.37329
-0.364891
-0.355675
-0.345592
-0.334561
-0.322494
-0.309213
-0.294425
-0.281539
-0.24968
-0.411556
-0.405697
-0.399995
-0.393273
-0.385715
-0.377444
-0.368465
-0.358752
-0.348237
-0.336816
-0.324379
-0.310721
-0.29543
-0.282382
-0.248211
-0.420906
-0.413486
-0.406777
-0.399135
-0.390754
-0.38177
-0.372177
-0.361933
-0.350954
-0.339114
-0.326281
-0.312223
-0.296433
-0.283123
-0.246911
-0.430609
-0.42158
-0.41383
-0.40523
-0.39599
-0.38626
-0.37602
-0.365214
-0.353739
-0.341449
-0.32819
-0.313705
-0.297437
-0.283704
-0.245872
-0.440631
-0.429952
-0.42113
-0.411541
-0.401412
-0.390908
-0.379991
-0.368591
-0.356588
-0.343817
-0.330101
-0.315156
-0.298446
-0.284014
-0.245067
-0.450939
-0.438573
-0.428654
-0.418053
-0.407011
-0.395706
-0.384085
-0.372062
-0.359497
-0.34621
-0.332004
-0.316576
-0.299482
-0.28385
-0.244223
-0.461498
-0.447414
-0.436379
-0.424749
-0.412776
-0.400651
-0.388301
-0.375622
-0.362459
-0.348616
-0.333889
-0.317981
-0.300621
-0.283236
-0.244129
-0.472273
-0.456445
-0.444283
-0.431612
-0.418695
-0.405732
-0.392629
-0.379263
-0.36546
-0.351015
-0.335729
-0.31936
-0.301907
-0.283175
-0.250387
-0.483226
-0.465632
-0.452338
-0.438622
-0.424754
-0.410939
-0.397057
-0.382966
-0.368474
-0.353369
-0.337467
-0.320601
-0.303067
-0.28448
-0.27038
-0.494313
-0.474937
-0.460512
-0.445755
-0.430932
-0.416252
-0.401566
-0.386707
-0.371466
-0.355628
-0.339026
-0.321559
-0.303728
-0.284548
-0.27482
-0.505482
-0.484317
-0.468771
-0.452979
-0.437203
-0.421645
-0.406124
-0.390447
-0.374389
-0.357732
-0.340327
-0.322122
-0.303707
-0.283617
-0.274015
-0.516674
-0.493721
-0.477069
-0.460257
-0.443531
-0.427082
-0.410691
-0.394139
-0.377185
-0.359611
-0.341292
-0.322216
-0.302993
-0.282032
-0.271233
-0.527818
-0.503089
-0.485354
-0.467542
-0.449871
-0.432515
-0.415213
-0.39772
-0.379781
-0.361188
-0.341841
-0.321775
-0.30158
-0.279765
-0.267147
-0.538832
-0.512351
-0.493565
-0.474776
-0.456166
-0.437883
-0.419623
-0.401114
-0.382096
-0.362377
-0.341894
-0.320734
-0.299461
-0.276794
-0.262178
-0.549624
-0.521429
-0.501629
-0.481892
-0.462347
-0.443114
-0.42384
-0.404233
-0.384036
-0.363087
-0.341372
-0.319037
-0.29663
-0.273131
-0.256606
-0.560087
-0.530229
-0.509463
-0.488807
-0.468332
-0.448118
-0.427769
-0.406977
-0.385502
-0.363224
-0.340194
-0.316632
-0.293078
-0.268789
-0.250564
-0.570101
-0.538651
-0.516971
-0.49543
-0.474026
-0.452796
-0.431304
-0.409237
-0.386386
-0.362694
-0.338289
-0.313474
-0.288796
-0.263775
-0.244101
-0.579534
-0.546579
-0.524046
-0.501654
-0.479319
-0.457034
-0.434327
-0.410896
-0.386579
-0.361401
-0.335584
-0.30952
-0.283773
-0.258094
-0.237221
-0.588241
-0.553888
-0.530569
-0.507362
-0.484092
-0.460707
-0.436712
-0.411829
-0.385971
-0.359257
-0.332018
-0.304735
-0.277997
-0.251745
-0.229905
-0.596068
-0.560443
-0.536409
-0.512424
-0.488212
-0.463681
-0.438323
-0.411913
-0.384451
-0.356176
-0.327531
-0.299088
-0.271455
-0.244727
-0.222127
-0.60285
-0.566096
-0.541428
-0.516701
-0.491537
-0.465811
-0.439025
-0.411021
-0.381917
-0.352081
-0.322076
-0.292555
-0.264139
-0.237037
-0.213858
-0.608413
-0.570695
-0.545474
-0.520042
-0.493918
-0.466951
-0.438676
-0.409031
-0.378269
-0.346902
-0.315609
-0.285114
-0.256041
-0.228674
-0.205077
-0.612581
-0.574078
-0.548392
-0.522293
-0.495198
-0.466951
-0.437139
-0.405827
-0.373419
-0.340579
-0.308097
-0.276752
-0.247156
-0.219636
-0.195763
-0.61517
-0.57608
-0.55002
-0.523293
-0.495221
-0.465659
-0.434281
-0.401298
-0.367287
-0.333062
-0.299514
-0.267458
-0.237481
-0.209923
-0.185906
-0.615997
-0.576532
-0.550193
-0.522877
-0.493826
-0.462929
-0.429976
-0.395348
-0.359805
-0.324311
-0.289842
-0.257228
-0.227019
-0.199539
-0.175496
-0.614881
-0.575267
-0.548744
-0.520883
-0.490859
-0.458622
-0.424106
-0.387888
-0.350917
-0.314296
-0.27907
-0.246062
-0.215771
-0.188488
-0.164533
-0.611645
-0.572117
-0.545511
-0.517151
-0.486169
-0.452605
-0.416567
-0.378846
-0.34058
-0.302999
-0.267195
-0.233965
-0.203747
-0.176777
-0.153018
-0.60612
-0.566923
-0.540334
-0.511527
-0.479617
-0.444759
-0.40727
-0.368162
-0.328763
-0.29041
-0.25422
-0.220946
-0.190954
-0.164415
-0.140958
-0.598147
-0.559532
-0.533063
-0.503868
-0.471073
-0.434981
-0.396139
-0.355793
-0.315448
-0.276529
-0.240155
-0.207019
-0.177408
-0.151415
-0.128365
-0.58758
-0.549803
-0.523559
-0.494043
-0.460423
-0.423181
-0.383117
-0.341711
-0.30063
-0.261366
-0.225017
-0.192201
-0.163124
-0.137793
-0.115252
-0.574292
-0.537607
-0.511695
-0.481935
-0.447571
-0.409292
-0.368165
-0.325904
-0.284317
-0.24494
-0.20883
-0.176515
-0.148123
-0.123566
-0.101638
-0.558173
-0.522834
-0.497364
-0.467447
-0.43244
-0.393262
-0.351262
-0.308374
-0.26653
-0.227279
-0.191622
-0.15999
-0.132429
-0.108757
-0.0875346
-0.539134
-0.505394
-0.480476
-0.450502
-0.414974
-0.375064
-0.332406
-0.289142
-0.247298
-0.20842
-0.173429
-0.142657
-0.116072
-0.0933976
-0.0729504
-0.517113
-0.485216
-0.460965
-0.431045
-0.395141
-0.354691
-0.311614
-0.268241
-0.226667
-0.188406
-0.154292
-0.124553
-0.0990863
-0.0775247
-0.0579237
-0.492072
-0.462255
-0.438788
-0.409047
-0.372931
-0.332158
-0.288923
-0.24572
-0.20469
-0.167291
-0.13426
-0.10572
-0.0815027
-0.0611245
-0.0425581
-0.464002
-0.436493
-0.413927
-0.384505
-0.348362
-0.307503
-0.264386
-0.221644
-0.18143
-0.145135
-0.113385
-0.0862068
-0.0633686
-0.0442652
-0.0268252
-0.432923
-0.407938
-0.386395
-0.35744
-0.321474
-0.280785
-0.238076
-0.196089
-0.156964
-0.122005
-0.0917306
-0.0660635
-0.0447241
-0.0269919
-0.0107599
-0.398885
-0.376626
-0.356228
-0.327902
-0.292333
-0.252084
-0.210081
-0.169144
-0.131375
-0.0979787
-0.0693586
-0.0453482
-0.0256192
-0.00934625
0.00559417
-0.36197
-0.342624
-0.323495
-0.295969
-0.261031
-0.221503
-0.180507
-0.14091
-0.104756
-0.0731371
-0.0463425
-0.0241229
-0.0061082
0.00862539
0.0221912
-0.322289
-0.306028
-0.288291
-0.261746
-0.227681
-0.189161
-0.149472
-0.111502
-0.0772094
-0.0475692
-0.0227594
-0.00245464
0.013751
0.0268722
0.0389815
-0.279986
-0.266962
-0.250743
-0.225368
-0.192418
-0.155193
-0.117112
-0.0810412
-0.0488438
-0.0213706
0.00130818
0.0195847
0.0338965
0.0453395
0.0559098
-0.235233
-0.22558
-0.211004
-0.186996
-0.155385
-0.119761
-0.083573
-0.0496612
-0.0197763
0.00535768
0.0257726
0.0419188
0.0542625
0.0639681
0.0729132
-0.188229
-0.182066
-0.169251
-0.146764
-0.116806
-0.0830347
-0.0490121
-0.0175026
0.00987023
0.0325093
0.0505418
0.0644673
0.0747793
0.0826951
0.0899217
-0.139184
-0.136641
-0.125681
-0.104926
-0.0768416
-0.0451964
-0.0135976
0.0152861
0.039967
0.0599733
0.0755198
0.0871457
0.0953751
0.101457
0.106861
-0.0883508
-0.0895408
-0.080533
-0.061689
-0.0357073
-0.0064438
0.0224934
0.0485501
0.0703805
0.087635
0.100607
0.109867
0.115981
0.120201
0.123624
-0.0360731
-0.0409764
-0.0340513
-0.0172906
0.00636784
0.0330155
0.0590769
0.0821292
0.100973
0.115376
0.125701
0.132543
0.136537
0.138873
0.139982
0.0173992
0.00874327
0.0134955
0.0280133
0.049145
0.0729656
0.0959626
0.115859
0.131604
0.143076
0.150696
0.155089
0.156984
0.157341
0.155618
0.0717537
0.0593208
0.0618239
0.0739538
0.0923758
0.113184
0.132956
0.149572
0.16213
0.170612
0.175489
0.177419
0.177222
0.175323
0.170536
0.126655
0.110448
0.110637
0.120251
0.135804
0.153443
0.169858
0.183098
0.192406
0.197861
0.199975
0.199447
0.197116
0.192519
0.185473
0.181758
0.161803
0.159627
0.166617
0.179169
0.193511
0.20647
0.216266
0.222286
0.224698
0.224051
0.221071
0.216595
0.209926
0.201609
0.23671
0.213053
0.208478
0.212759
0.222205
0.233156
0.24259
0.248906
0.251626
0.250998
0.247607
0.242188
0.235543
0.226977
0.217461
0.291152
0.263861
0.25687
0.25838
0.264646
0.272145
0.27802
0.280848
0.280281
0.27664
0.270537
0.262708
0.253903
0.243483
0.232713
0.344721
0.313885
0.304478
0.303184
0.306229
0.310249
0.312563
0.311923
0.308108
0.301502
0.292737
0.282542
0.271616
0.259393
0.247278
0.397057
0.362784
0.350982
0.346875
0.346691
0.34724
0.346024
0.341969
0.334969
0.325465
0.314106
0.301606
0.288614
0.274648
0.261147
0.447802
0.410222
0.396064
0.389166
0.385777
0.382898
0.378216
0.370825
0.360728
0.348415
0.334546
0.319816
0.30483
0.289186
0.274297
0.496606
0.455866
0.439413
0.429772
0.423238
0.417007
0.408955
0.398337
0.385254
0.370242
0.353964
0.337095
0.320197
0.30295
0.286695
0.54313
0.499396
0.480728
0.468422
0.458834
0.449363
0.438068
0.424357
0.408423
0.390838
0.372268
0.353366
0.334654
0.315887
0.298307
0.587047
0.540501
0.51972
0.504855
0.492338
0.479769
0.465387
0.448744
0.430115
0.410103
0.389375
0.368559
0.34814
0.327946
0.309098
0.628046
0.578889
0.556113
0.538823
0.523532
0.50804
0.490756
0.471365
0.450217
0.427942
0.405203
0.382604
0.3606
0.339081
0.319036
0.665836
0.614283
0.589652
0.570095
0.552216
0.534004
0.514028
0.492097
0.468625
0.444266
0.419677
0.395438
0.371978
0.349244
0.328088
0.700147
0.646426
0.620097
0.598458
0.578203
0.557501
0.535069
0.510825
0.485243
0.458993
0.432727
0.407004
0.382225
0.358394
0.336222
0.730733
0.675086
0.647232
0.623718
0.601325
0.578388
0.553757
0.527447
0.499982
0.472048
0.44429
0.417246
0.391297
0.366491
0.343409
0.757373
0.700053
0.670863
0.645701
0.621431
0.596536
0.569983
0.54187
0.512766
0.483366
0.45431
0.426117
0.399151
0.373501
0.349623
0.779875
0.721146
0.690821
0.664256
0.638391
0.611834
0.583652
0.554015
0.523525
0.492887
0.462737
0.433576
0.405753
0.379391
0.354839
0.798076
0.738209
0.706962
0.679256
0.652094
0.624187
0.594684
0.563813
0.532202
0.500565
0.469529
0.439586
0.411072
0.384137
0.359037
0.811844
0.751117
0.71917
0.690598
0.66245
0.633519
0.603016
0.57121
0.538751
0.506357
0.474653
0.444119
0.415083
0.387715
0.3622
0.821079
0.759776
0.727358
0.698203
0.669392
0.639773
0.608598
0.576164
0.543137
0.510236
0.478084
0.447153
0.417767
0.390109
0.364316
0.825713
0.764121
0.731467
0.702018
0.672875
0.64291
0.611397
0.578648
0.545336
0.51218
0.479803
0.448674
0.419112
0.391309
0.365377
0.825713
0.764121
0.731467
0.702018
0.672875
0.64291
0.611397
0.578648
0.545336
0.51218
0.479803
0.448674
0.419112
0.391309
0.365377
0.821079
0.759776
0.727358
0.698203
0.669392
0.639773
0.608598
0.576164
0.543137
0.510236
0.478084
0.447153
0.417767
0.390109
0.364316
0.811844
0.751117
0.71917
0.690598
0.66245
0.633519
0.603016
0.57121
0.538751
0.506357
0.474653
0.444119
0.415083
0.387715
0.3622
0.798076
0.738209
0.706962
0.679256
0.652094
0.624187
0.594684
0.563813
0.532202
0.500565
0.469529
0.439586
0.411072
0.384137
0.359037
0.779875
0.721146
0.690821
0.664256
0.638391
0.611834
0.583652
0.554015
0.523525
0.492887
0.462737
0.433576
0.405753
0.379391
0.354839
0.757373
0.700053
0.670863
0.645701
0.621431
0.596536
0.569983
0.54187
0.512766
0.483366
0.45431
0.426117
0.399151
0.373501
0.349623
0.730733
0.675086
0.647232
0.623718
0.601325
0.578388
0.553757
0.527447
0.499982
0.472048
0.44429
0.417246
0.391297
0.366491
0.343409
0.700147
0.646426
0.620097
0.598458
0.578203
0.557501
0.535069
0.510825
0.485243
0.458993
0.432727
0.407004
0.382225
0.358394
0.336222
0.665836
0.614283
0.589652
0.570095
0.552215
0.534004
0.514028
0.492097
0.468625
0.444266
0.419677
0.395438
0.371978
0.349244
0.328088
0.628046
0.578889
0.556113
0.538823
0.523532
0.50804
0.490756
0.471365
0.450217
0.427942
0.405203
0.382604
0.3606
0.339081
0.319036
0.587047
0.540501
0.51972
0.504855
0.492338
0.479769
0.465387
0.448744
0.430115
0.410103
0.389375
0.368559
0.34814
0.327946
0.309098
0.54313
0.499396
0.480728
0.468422
0.458834
0.449363
0.438068
0.424357
0.408423
0.390838
0.372268
0.353366
0.334654
0.315887
0.298307
0.496606
0.455866
0.439413
0.429772
0.423238
0.417007
0.408955
0.398337
0.385254
0.370242
0.353964
0.337095
0.320197
0.30295
0.286695
0.447802
0.410222
0.396064
0.389166
0.385777
0.382897
0.378216
0.370825
0.360728
0.348415
0.334546
0.319816
0.30483
0.289186
0.274297
0.397057
0.362784
0.350982
0.346875
0.346691
0.34724
0.346024
0.341969
0.334969
0.325465
0.314106
0.301606
0.288614
0.274648
0.261147
0.344721
0.313885
0.304478
0.303184
0.306229
0.310249
0.312563
0.311923
0.308108
0.301502
0.292737
0.282542
0.271616
0.259393
0.247278
0.291152
0.263861
0.25687
0.25838
0.264646
0.272145
0.27802
0.280848
0.280281
0.27664
0.270537
0.262708
0.253903
0.243483
0.232713
0.23671
0.213053
0.208478
0.212759
0.222205
0.233156
0.24259
0.248906
0.251626
0.250998
0.247607
0.242188
0.235543
0.226977
0.217461
0.181758
0.161803
0.159627
0.166617
0.179169
0.193511
0.20647
0.216266
0.222286
0.224698
0.224051
0.221071
0.216595
0.209926
0.201609
0.126655
0.110448
0.110637
0.120251
0.135804
0.153443
0.169858
0.183098
0.192406
0.197861
0.199975
0.199447
0.197116
0.192519
0.185473
0.0717537
0.0593207
0.0618239
0.0739538
0.0923758
0.113184
0.132956
0.149572
0.16213
0.170612
0.175489
0.177419
0.177222
0.175323
0.170536
0.0173992
0.00874326
0.0134955
0.0280133
0.049145
0.0729656
0.0959626
0.115859
0.131604
0.143076
0.150696
0.155089
0.156984
0.157341
0.155618
-0.0360731
-0.0409764
-0.0340513
-0.0172906
0.00636784
0.0330155
0.0590769
0.0821292
0.100973
0.115376
0.125701
0.132543
0.136537
0.138873
0.139982
-0.0883508
-0.0895408
-0.080533
-0.061689
-0.0357073
-0.00644381
0.0224934
0.0485501
0.0703805
0.087635
0.100607
0.109867
0.115981
0.120201
0.123624
-0.139184
-0.136641
-0.125681
-0.104926
-0.0768416
-0.0451964
-0.0135976
0.0152861
0.039967
0.0599733
0.0755198
0.0871457
0.0953751
0.101457
0.106861
-0.188229
-0.182066
-0.169251
-0.146764
-0.116806
-0.0830347
-0.0490121
-0.0175026
0.00987023
0.0325093
0.0505418
0.0644673
0.0747793
0.0826951
0.0899217
-0.235233
-0.22558
-0.211004
-0.186996
-0.155385
-0.119761
-0.083573
-0.0496612
-0.0197763
0.00535768
0.0257726
0.0419188
0.0542625
0.0639681
0.0729132
-0.279986
-0.266962
-0.250743
-0.225368
-0.192418
-0.155193
-0.117112
-0.0810412
-0.0488438
-0.0213706
0.00130818
0.0195847
0.0338965
0.0453395
0.0559098
-0.322289
-0.306028
-0.288291
-0.261746
-0.227681
-0.189161
-0.149472
-0.111502
-0.0772093
-0.0475692
-0.0227594
-0.00245463
0.013751
0.0268722
0.0389815
-0.36197
-0.342624
-0.323495
-0.295969
-0.261031
-0.221503
-0.180507
-0.14091
-0.104756
-0.0731371
-0.0463425
-0.0241229
-0.00610819
0.0086254
0.0221912
-0.398885
-0.376626
-0.356228
-0.327902
-0.292333
-0.252084
-0.210081
-0.169144
-0.131375
-0.0979787
-0.0693586
-0.0453482
-0.0256192
-0.00934625
0.00559418
-0.432923
-0.407938
-0.386395
-0.35744
-0.321474
-0.280785
-0.238076
-0.196089
-0.156964
-0.122005
-0.0917306
-0.0660635
-0.0447241
-0.0269919
-0.0107599
-0.464002
-0.436493
-0.413927
-0.384505
-0.348362
-0.307503
-0.264386
-0.221644
-0.18143
-0.145135
-0.113385
-0.0862068
-0.0633686
-0.0442652
-0.0268252
-0.492072
-0.462255
-0.438788
-0.409047
-0.372931
-0.332158
-0.288923
-0.24572
-0.20469
-0.167291
-0.13426
-0.10572
-0.0815027
-0.0611245
-0.0425581
-0.517113
-0.485216
-0.460965
-0.431045
-0.395141
-0.354691
-0.311614
-0.268241
-0.226667
-0.188406
-0.154292
-0.124553
-0.0990863
-0.0775247
-0.0579236
-0.539134
-0.505394
-0.480476
-0.450502
-0.414974
-0.375064
-0.332406
-0.289142
-0.247298
-0.20842
-0.173429
-0.142657
-0.116072
-0.0933976
-0.0729504
-0.558173
-0.522834
-0.497364
-0.467447
-0.43244
-0.393262
-0.351262
-0.308374
-0.26653
-0.227279
-0.191622
-0.15999
-0.132429
-0.108757
-0.0875346
-0.574292
-0.537607
-0.511695
-0.481935
-0.447571
-0.409292
-0.368165
-0.325904
-0.284317
-0.24494
-0.20883
-0.176515
-0.148123
-0.123566
-0.101638
-0.58758
-0.549803
-0.523559
-0.494043
-0.460423
-0.423181
-0.383117
-0.341711
-0.30063
-0.261366
-0.225017
-0.192201
-0.163124
-0.137793
-0.115252
-0.598147
-0.559532
-0.533063
-0.503868
-0.471073
-0.434981
-0.396139
-0.355793
-0.315448
-0.276529
-0.240155
-0.207019
-0.177408
-0.151415
-0.128365
-0.60612
-0.566923
-0.540334
-0.511527
-0.479617
-0.444759
-0.40727
-0.368162
-0.328763
-0.29041
-0.25422
-0.220946
-0.190954
-0.164415
-0.140958
-0.611645
-0.572117
-0.545511
-0.51715
-0.486169
-0.452604
-0.416567
-0.378846
-0.34058
-0.302999
-0.267195
-0.233965
-0.203747
-0.176776
-0.153018
-0.614881
-0.575267
-0.548744
-0.520883
-0.490859
-0.458622
-0.424106
-0.387888
-0.350917
-0.314296
-0.27907
-0.246062
-0.215771
-0.188488
-0.164533
-0.615997
-0.576532
-0.550193
-0.522877
-0.493826
-0.462929
-0.429976
-0.395348
-0.359805
-0.324311
-0.289842
-0.257228
-0.227019
-0.199539
-0.175496
-0.615169
-0.57608
-0.55002
-0.523293
-0.495221
-0.465659
-0.434281
-0.401298
-0.367287
-0.333062
-0.299514
-0.267458
-0.237481
-0.209923
-0.185906
-0.612581
-0.574078
-0.548392
-0.522293
-0.495198
-0.466951
-0.437139
-0.405827
-0.373419
-0.340579
-0.308097
-0.276752
-0.247156
-0.219635
-0.195763
-0.608413
-0.570695
-0.545474
-0.520042
-0.493918
-0.466951
-0.438676
-0.409031
-0.378269
-0.346902
-0.315609
-0.285114
-0.256041
-0.228674
-0.205077
-0.60285
-0.566096
-0.541428
-0.5167
-0.491537
-0.465811
-0.439025
-0.411021
-0.381917
-0.352081
-0.322076
-0.292555
-0.264139
-0.237037
-0.213858
-0.596068
-0.560442
-0.536409
-0.512424
-0.488212
-0.463681
-0.438323
-0.411913
-0.384451
-0.356176
-0.327531
-0.299088
-0.271455
-0.244727
-0.222127
-0.588241
-0.553888
-0.530569
-0.507362
-0.484092
-0.460707
-0.436712
-0.411829
-0.385971
-0.359257
-0.332018
-0.304735
-0.277997
-0.251745
-0.229905
-0.579534
-0.546579
-0.524046
-0.501654
-0.479319
-0.457034
-0.434327
-0.410896
-0.386579
-0.361401
-0.335584
-0.30952
-0.283773
-0.258094
-0.237221
-0.570101
-0.538651
-0.516971
-0.49543
-0.474026
-0.452796
-0.431304
-0.409237
-0.386386
-0.362694
-0.338289
-0.313474
-0.288796
-0.263775
-0.244101
-0.560087
-0.530229
-0.509463
-0.488807
-0.468332
-0.448118
-0.427769
-0.406977
-0.385502
-0.363224
-0.340194
-0.316632
-0.293078
-0.268789
-0.250564
-0.549624
-0.521429
-0.501629
-0.481892
-0.462347
-0.443114
-0.42384
-0.404233
-0.384036
-0.363087
-0.341372
-0.319037
-0.296629
-0.27313
-0.256606
-0.538832
-0.512351
-0.493565
-0.474776
-0.456166
-0.437883
-0.419623
-0.401114
-0.382095
-0.362377
-0.341894
-0.320734
-0.299461
-0.276794
-0.262178
-0.527818
-0.503089
-0.485354
-0.467542
-0.449871
-0.432515
-0.415213
-0.39772
-0.379781
-0.361188
-0.341841
-0.321775
-0.30158
-0.279765
-0.267147
-0.516674
-0.493721
-0.477069
-0.460257
-0.443531
-0.427082
-0.410691
-0.394139
-0.377185
-0.359611
-0.341292
-0.322216
-0.302993
-0.282032
-0.271233
-0.505482
-0.484317
-0.468771
-0.452979
-0.437203
-0.421645
-0.406124
-0.390447
-0.374389
-0.357732
-0.340327
-0.322122
-0.303707
-0.283617
-0.274015
-0.494313
-0.474937
-0.460512
-0.445755
-0.430932
-0.416252
-0.401566
-0.386707
-0.371466
-0.355628
-0.339026
-0.321559
-0.303728
-0.284548
-0.27482
-0.483226
-0.465632
-0.452338
-0.438622
-0.424754
-0.410939
-0.397057
-0.382966
-0.368474
-0.353369
-0.337467
-0.320601
-0.303067
-0.28448
-0.27038
-0.472273
-0.456445
-0.444283
-0.431612
-0.418695
-0.405732
-0.392629
-0.379263
-0.36546
-0.351015
-0.335729
-0.31936
-0.301907
-0.283175
-0.250387
-0.461498
-0.447414
-0.436379
-0.424749
-0.412776
-0.400651
-0.388301
-0.375622
-0.362459
-0.348616
-0.333889
-0.317981
-0.300621
-0.283236
-0.244129
-0.450939
-0.438573
-0.428654
-0.418053
-0.407011
-0.395706
-0.384085
-0.372062
-0.359497
-0.34621
-0.332004
-0.316576
-0.299482
-0.28385
-0.244223
-0.440631
-0.429952
-0.42113
-0.411541
-0.401412
-0.390908
-0.379991
-0.368591
-0.356588
-0.343817
-0.330101
-0.315156
-0.298446
-0.284014
-0.245067
-0.430609
-0.42158
-0.41383
-0.40523
-0.39599
-0.38626
-0.37602
-0.365214
-0.353739
-0.341449
-0.32819
-0.313705
-0.297437
-0.283704
-0.245872
-0.420906
-0.413486
-0.406777
-0.399135
-0.390754
-0.38177
-0.372177
-0.361933
-0.350954
-0.339114
-0.326281
-0.312223
-0.296433
-0.283123
-0.246911
-0.411556
-0.405697
-0.399995
-0.393273
-0.385715
-0.377444
-0.368465
-0.358752
-0.348237
-0.336816
-0.324379
-0.310721
-0.29543
-0.282382
-0.248211
-0.402595
-0.398245
-0.393506
-0.387664
-0.380888
-0.37329
-0.364891
-0.355675
-0.345592
-0.334561
-0.322494
-0.309213
-0.294425
-0.281539
-0.24968
-0.394065
-0.391162
-0.387339
-0.382327
-0.376288
-0.369322
-0.361463
-0.35271
-0.343028
-0.332357
-0.320636
-0.307713
-0.293421
-0.280644
-0.251244
-0.386005
-0.384482
-0.381522
-0.377288
-0.371936
-0.365556
-0.358196
-0.349868
-0.340555
-0.330217
-0.318817
-0.306237
-0.292424
-0.279743
-0.252845
-0.378464
-0.37824
-0.376085
-0.372572
-0.367853
-0.362011
-0.355108
-0.347168
-0.33819
-0.328157
-0.317055
-0.304802
-0.291443
-0.278871
-0.254433
-0.371487
-0.372474
-0.371061
-0.368209
-0.364065
-0.358711
-0.35222
-0.344629
-0.335954
-0.326197
-0.315369
-0.303425
-0.290492
-0.278053
-0.255959
-0.365124
-0.367224
-0.366484
-0.364227
-0.3606
-0.355681
-0.349557
-0.342276
-0.333869
-0.32436
-0.313782
-0.302128
-0.289585
-0.277306
-0.257385
-0.359423
-0.362527
-0.362388
-0.360657
-0.357486
-0.352949
-0.347145
-0.340135
-0.331963
-0.322672
-0.312318
-0.300931
-0.28874
-0.276641
-0.25868
-0.354432
-0.358419
-0.358804
-0.35753
-0.354752
-0.350542
-0.345012
-0.338233
-0.330263
-0.321161
-0.311003
-0.299855
-0.287972
-0.276066
-0.25982
-0.350196
-0.354937
-0.355764
-0.354874
-0.352424
-0.348487
-0.343185
-0.336598
-0.328796
-0.319852
-0.309863
-0.29892
-0.287301
-0.275584
-0.260787
-0.346754
-0.35211
-0.353296
-0.352715
-0.350529
-0.34681
-0.341689
-0.335256
-0.327588
-0.318771
-0.308924
-0.298142
-0.28674
-0.275197
-0.261571
-0.344141
-0.349965
-0.351422
-0.351074
-0.349087
-0.345531
-0.340547
-0.334228
-0.32666
-0.317939
-0.30819
-0.297552
-0.286307
-0.274907
-0.262163
-0.342383
-0.348523
-0.350162
-0.349971
-0.348116
-0.344669
-0.339775
-0.333532
-0.326031
-0.317374
-0.307693
-0.297148
-0.286011
-0.274713
-0.26256
-0.3415
-0.347799
-0.349529
-0.349416
-0.347627
-0.344235
-0.339386
-0.333181
-0.325713
-0.317089
-0.307443
-0.296943
-0.285861
-0.274617
-0.262759
-0.255083
-0.247795
-0.240214
-0.232571
-0.2248
-0.216922
-0.20897
-0.200964
-0.192925
-0.184875
-0.176837
-0.168833
-0.160887
-0.153022
-0.145257
-0.137614
-0.13011
-0.122761
-0.115579
-0.108575
-0.101756
-0.0951265
-0.0886892
-0.0824437
-0.076388
-0.0705188
-0.0648323
-0.059325
-0.053994
-0.0488384
-0.0438595
-0.039061
-0.0344509
-0.0300379
-0.0258382
-0.0218608
-0.0181352
-0.0146536
-0.011481
-0.0085429
-0.0060199
-0.00362277
-0.00189841
8.93039e-05
0.00070153
0.00273667
0.00146085
0.00483678
-0.000348843
0.00782724
-0.255513
-0.248126
-0.240464
-0.232802
-0.225015
-0.217122
-0.209159
-0.201145
-0.193098
-0.185041
-0.176997
-0.168988
-0.161037
-0.153166
-0.145397
-0.137749
-0.130241
-0.122887
-0.115702
-0.108694
-0.101872
-0.0952397
-0.0887997
-0.0825515
-0.0764933
-0.0706217
-0.0649328
-0.0594231
-0.0540896
-0.0489313
-0.0439496
-0.039148
-0.0345346
-0.0301181
-0.0259147
-0.0219333
-0.0182036
-0.0147176
-0.0115406
-0.00859802
-0.00607034
-0.00366873
-0.00193929
5.23983e-05
0.000670802
0.00270774
0.0014416
0.00481199
-0.000352314
0.00779389
-0.256366
-0.248785
-0.240961
-0.233261
-0.225441
-0.21752
-0.209535
-0.201503
-0.193441
-0.185371
-0.177315
-0.169294
-0.161332
-0.153451
-0.145673
-0.138016
-0.1305
-0.123138
-0.115946
-0.108931
-0.102103
-0.0954647
-0.0890191
-0.0827658
-0.0767025
-0.0708261
-0.0651325
-0.0596179
-0.0542794
-0.0491158
-0.0441284
-0.0393208
-0.0347009
-0.0302773
-0.0260665
-0.0220772
-0.0183393
-0.0148448
-0.011659
-0.00870753
-0.00617056
-0.00376004
-0.00202052
-2.09718e-05
0.000609704
0.0026502
0.0014033
0.00476265
-0.000359211
0.00772756
-0.257628
-0.249767
-0.2417
-0.233941
-0.226073
-0.218108
-0.210091
-0.202033
-0.193949
-0.185858
-0.177784
-0.169747
-0.161769
-0.153874
-0.146082
-0.138413
-0.130884
-0.123511
-0.116308
-0.109283
-0.102445
-0.0957985
-0.0893447
-0.0830836
-0.0770129
-0.0711292
-0.0654284
-0.0599066
-0.0545606
-0.0493892
-0.0443934
-0.0395768
-0.0349471
-0.0305132
-0.0262914
-0.0222905
-0.0185404
-0.0150334
-0.0118346
-0.00886993
-0.00631924
-0.00389556
-0.0021411
-0.00012994
0.000518941
0.00256465
0.00134638
0.00468924
-0.000369453
0.00762896
-0.259274
-0.251064
-0.242671
-0.234833
-0.226901
-0.218877
-0.210817
-0.202724
-0.19461
-0.186494
-0.178396
-0.170338
-0.162341
-0.154427
-0.146617
-0.138932
-0.131387
-0.124
-0.116783
-0.109745
-0.102895
-0.096237
-0.0897724
-0.0835009
-0.0774204
-0.0715271
-0.0658168
-0.0602853
-0.0549294
-0.0497476
-0.0447407
-0.0399122
-0.0352699
-0.0308224
-0.0265862
-0.0225701
-0.0188042
-0.0152807
-0.0120649
-0.00908308
-0.00651445
-0.00407357
-0.00229956
-0.000273243
0.00039954
0.00245198
0.00127141
0.00459244
-0.000382917
0.00749915
-0.26127
-0.252663
-0.243862
-0.235924
-0.227912
-0.219814
-0.211699
-0.203564
-0.195414
-0.187266
-0.17914
-0.171057
-0.163036
-0.155101
-0.147271
-0.139566
-0.132004
-0.124599
-0.117365
-0.110312
-0.103447
-0.0967748
-0.0902968
-0.0840126
-0.0779198
-0.0720145
-0.0662924
-0.0607489
-0.0553807
-0.050186
-0.0451655
-0.0403225
-0.0356647
-0.0312006
-0.0269468
-0.0229122
-0.019127
-0.0155835
-0.0123471
-0.00934425
-0.00675375
-0.00429192
-0.00249403
-0.000449261
0.00025282
0.00231335
0.00117919
0.00447314
-0.00039945
0.00733951
-0.26357
-0.254544
-0.245257
-0.237198
-0.229092
-0.220904
-0.212724
-0.204537
-0.196344
-0.188161
-0.180003
-0.171892
-0.163845
-0.155886
-0.148033
-0.140307
-0.132724
-0.1253
-0.118047
-0.110976
-0.104094
-0.0974055
-0.0909118
-0.0846125
-0.0785051
-0.0725856
-0.0668493
-0.0612916
-0.0559088
-0.0506988
-0.0456622
-0.0408022
-0.0361262
-0.0316428
-0.0273685
-0.0233123
-0.0195046
-0.0159378
-0.0126774
-0.00965022
-0.00703425
-0.00454805
-0.00272228
-0.000656072
8.03536e-05
0.00215012
0.00107064
0.00433244
-0.000418873
0.00715171
-0.266117
-0.256675
-0.246834
-0.238632
-0.230418
-0.222127
-0.21387
-0.205625
-0.197385
-0.189161
-0.18097
-0.172828
-0.164754
-0.15677
-0.148893
-0.141144
-0.133539
-0.126094
-0.118821
-0.11173
-0.104829
-0.098122
-0.0916104
-0.0852939
-0.0791697
-0.0732337
-0.067481
-0.0619068
-0.0565071
-0.0512796
-0.0462247
-0.0413452
-0.0366486
-0.0321433
-0.0278459
-0.0237655
-0.0199325
-0.0163395
-0.013052
-0.00999738
-0.00735271
-0.00483907
-0.00298181
-0.000891505
-0.000116085
0.00196385
0.0009468
0.00417156
-0.000440989
0.00693769
-0.268845
-0.259015
-0.248563
-0.240203
-0.231869
-0.22346
-0.215118
-0.206808
-0.198516
-0.19025
-0.182023
-0.17385
-0.16575
-0.157739
-0.149839
-0.142067
-0.13444
-0.126973
-0.119678
-0.112566
-0.105644
-0.0989166
-0.0923853
-0.0860494
-0.0799063
-0.0739516
-0.0681804
-0.0625876
-0.0571689
-0.0519217
-0.0468463
-0.0419452
-0.0372257
-0.0326963
-0.0283735
-0.0242663
-0.0204055
-0.0167837
-0.0134666
-0.0103819
-0.00770565
-0.00516191
-0.00326991
-0.00115321
-0.000334564
0.00175625
0.000808822
0.00399189
-0.000465591
0.00669959
-0.271673
-0.261506
-0.250408
-0.241877
-0.233414
-0.224877
-0.216442
-0.208063
-0.199717
-0.191408
-0.183146
-0.174943
-0.166816
-0.158781
-0.150858
-0.143064
-0.135414
-0.127925
-0.120609
-0.113475
-0.106531
-0.0997814
-0.0932286
-0.0868715
-0.0807075
-0.0747322
-0.0689404
-0.0633268
-0.057887
-0.0526182
-0.0475203
-0.0425956
-0.0378513
-0.0332957
-0.0289454
-0.0248094
-0.0209187
-0.017266
-0.0139168
-0.0107997
-0.00808945
-0.00551331
-0.00358374
-0.0014387
-0.000573045
0.00152913
0.000657923
0.00379489
-0.000492469
0.00643975
-0.2745
-0.264074
-0.252323
-0.243616
-0.235018
-0.226348
-0.217815
-0.209365
-0.200964
-0.192613
-0.184318
-0.176088
-0.167937
-0.159881
-0.151938
-0.144123
-0.136452
-0.128942
-0.121603
-0.114447
-0.10748
-0.100708
-0.0941326
-0.0877527
-0.081566
-0.0755681
-0.0697537
-0.0641175
-0.0586547
-0.0533623
-0.04824
-0.0432899
-0.038519
-0.0339355
-0.0295559
-0.0253894
-0.0214669
-0.0177813
-0.0143983
-0.0112468
-0.00850045
-0.00588999
-0.00392042
-0.00174546
-0.000829436
0.00128435
0.000495358
0.00358212
-0.000521419
0.00616066
-0.277214
-0.266627
-0.254251
-0.245373
-0.236642
-0.227837
-0.219207
-0.210687
-0.202234
-0.193845
-0.185521
-0.177269
-0.169099
-0.161026
-0.153064
-0.145232
-0.137543
-0.130012
-0.122653
-0.115474
-0.108485