/*--------------------------------*- C++ -*----------------------------------*\
  =========                 |
  \\      /  F ield         | OpenFOAM: The Open Source CFD Toolbox
   \\    /   O peration     | Website:  https://openfoam.org
    \\  /    A nd           | Version:  7
     \\/     M anipulation  |
\*---------------------------------------------------------------------------*/
FoamFile
{
    version     2.0;
    format      ascii;
    class       surfaceScalarField;
    location    "10";
    object      phi;
}
// * * * * * * * * * * * * * * * * * * * * * * * * * * * * * * * * * * * * * //

dimensions      [0 3 -1 0 0 0 0];

internalField   nonuniform List<scalar> 
22315
(
-5.25024e-06
5.25024e-06
-1.01542e-12
-1.76856e-05
1.24354e-05
-4.73199e-12
-3.51727e-05
1.74871e-05
-9.38016e-12
-5.56139e-05
2.04412e-05
-1.33772e-11
-7.69151e-05
2.13012e-05
-1.47884e-11
-9.69445e-05
2.00295e-05
-1.23311e-11
-0.00011347
1.65256e-05
-5.37912e-12
-0.000124094
1.06237e-05
6.498e-12
-0.00012619
2.09573e-06
2.34186e-11
-0.000116868
-9.32135e-06
4.64849e-11
-9.3026e-05
-2.38424e-05
7.56372e-11
-5.15659e-05
-4.14602e-05
1.11635e-10
9.91438e-06
-6.14804e-05
1.53307e-10
9.20295e-05
-8.21153e-05
2.00984e-10
-0.000100378
2.53006e-10
0.000192407
-5.14256e-06
1.03928e-05
-1.72789e-05
2.45717e-05
-3.42685e-05
3.44766e-05
-5.39979e-05
4.01707e-05
-7.43494e-05
4.16527e-05
-9.31594e-05
3.88395e-05
-0.000108156
3.15223e-05
-0.000116893
1.93611e-05
-0.000116688
1.89007e-06
-0.00010458
-2.14289e-05
-7.73783e-05
-5.10444e-05
-3.18621e-05
-8.69764e-05
3.45397e-05
-0.000127882
0.000122621
-0.000170197
-0.000208013
0.000230257
-4.92914e-06
1.53219e-05
-1.6472e-05
3.61146e-05
-3.24731e-05
5.04777e-05
-5.07877e-05
5.84853e-05
-6.92504e-05
6.01154e-05
-8.56346e-05
5.52237e-05
-9.75893e-05
4.3477e-05
-0.000102573
2.43449e-05
-9.77883e-05
-2.89471e-06
-8.0138e-05
-3.90793e-05
-4.62602e-05
-8.49222e-05
7.31655e-06
-0.000140553
8.34744e-05
-0.00020404
0.000183381
-0.000270103
-0.000330005
0.000305373
-4.61374e-06
1.99357e-05
-1.52774e-05
4.67783e-05
-2.98123e-05
6.50125e-05
-4.60258e-05
7.46988e-05
-6.16819e-05
7.57715e-05
-7.44594e-05
6.80012e-05
-8.18902e-05
5.09077e-05
-8.12912e-05
2.3746e-05
-6.96971e-05
-1.44888e-05
-4.38063e-05
-6.49701e-05
2.87154e-08
-0.000128757
6.55032e-05
-0.000206028
0.000156098
-0.000294634
0.000273466
-0.000387472
-0.00047314
0.000416601
-4.2018e-06
2.41375e-05
-1.37133e-05
5.62898e-05
-2.63229e-05
7.76221e-05
-3.9774e-05
8.81499e-05
-5.17361e-05
8.77336e-05
-5.97639e-05
7.6029e-05
-6.12345e-05
5.23783e-05
-5.32799e-05
1.57914e-05
-3.27164e-05
-3.50522e-05
4.01424e-06
-0.000101701
6.08463e-05
-0.000185589
0.000142014
-0.000287196
0.000251488
-0.000404108
0.000391624
-0.000527608
-0.000643738
0.000562222
-3.70013e-06
2.78376e-05
-1.18025e-05
6.43922e-05
-2.20518e-05
8.78713e-05
-3.21105e-05
9.82087e-05
-3.9531e-05
9.51541e-05
-4.17142e-05
7.82123e-05
-3.58479e-05
4.65119e-05
-1.8838e-05
-1.21852e-06
1.27628e-05
-6.6653e-05
6.28211e-05
-0.000151759
0.000135653
-0.000258421
0.000235965
-0.000387508
0.000368434
-0.000536577
0.000536202
-0.000695376
-0.0008475
0.000739964
-3.1166e-06
3.09542e-05
-9.5716e-06
7.08472e-05
-1.70536e-05
9.53533e-05
-2.31271e-05
0.000104282
-2.5205e-05
9.7232e-05
-2.05073e-05
7.35146e-05
-5.99908e-06
3.20037e-05
2.16761e-05
-2.88937e-05
6.62692e-05
-0.000111246
0.000131996
-0.000217486
0.000223585
-0.00035001
0.000346261
-0.000510184
0.000505445
-0.000695761
0.000705161
-0.000895092
-0.00108935
0.000947011
-2.45977e-06
3.3414e-05
-7.04959e-06
7.5437e-05
-1.13884e-05
9.96921e-05
-1.29256e-05
0.000105819
-8.91305e-06
9.32195e-05
3.63593e-06
6.09656e-05
2.80078e-05
7.63186e-06
6.78541e-05
-6.874e-05
0.000127261
-0.000170653
0.000210821
-0.000301046
0.000323691
-0.00046288
0.000471619
-0.000658112
0.000660765
-0.000884906
0.000896083
-0.00113041
-0.00137328
0.00118001
-1.73846e-06
3.51525e-05
-4.2668e-06
7.79654e-05
-5.11956e-06
0.000100545
-1.61361e-06
0.000102313
9.17961e-06
8.24263e-05
3.0477e-05
3.96682e-05
6.58421e-05
-2.77332e-05
0.000119247
-0.000122145
0.000195137
-0.000246543
0.000298493
-0.000404402
0.000434897
-0.000599284
0.000610582
-0.000833797
0.000832383
-0.00110671
0.00110619
-0.00140422
-0.0017022
0.0014351
-9.61397e-07
3.61139e-05
-1.25324e-06
7.82572e-05
1.68905e-06
9.76025e-05
1.06982e-05
9.33042e-05
2.89022e-05
6.42223e-05
5.97672e-05
8.80323e-06
0.000107154
-7.51202e-05
0.000175375
-0.000190365
0.000269243
-0.000340411
0.000394129
-0.000529287
0.000556007
-0.000761162
0.00076152
-0.00103931
0.00101804
-0.00136323
0.00133235
-0.00171852
-0.00207774
0.00170789
-1.37776e-07
3.62516e-05
1.96063e-06
7.61588e-05
8.97472e-06
9.05885e-05
2.39014e-05
7.83776e-05
5.00838e-05
3.80399e-05
9.12536e-05
-3.23666e-05
0.000151583
-0.00013545
0.000235733
-0.000274515
0.000348886
-0.000453564
0.000496777
-0.000677178
0.000685716
-0.000950102
0.000922639
-0.00127623
0.00121525
-0.00165584
0.00157107
-0.00207434
-0.00250016
0.00199349
7.28034e-07
3.55236e-05
5.34979e-06
7.15371e-05
1.66791e-05
7.92592e-05
3.78911e-05
5.71656e-05
7.25568e-05
3.37415e-06
0.000124684
-8.44941e-05
0.000198764
-0.00020953
0.000299802
-0.000375553
0.000433334
-0.000587097
0.000605417
-0.000849261
0.000822611
-0.0011673
0.00109198
-0.00154561
0.00142128
-0.00198513
0.00181858
-0.00247164
-0.00296816
0.00228657
1.62626e-06
3.38973e-05
8.88934e-06
6.4274e-05
2.47483e-05
6.34002e-05
5.25694e-05
2.93445e-05
9.61609e-05
-4.02174e-05
0.000159812
-0.000148145
0.000248328
-0.000298046
0.000367047
-0.000494272
0.000521823
-0.000741872
0.000718967
-0.00104641
0.000965169
-0.0014135
0.00126743
-0.00184787
0.00163318
-0.00235088
0.00207076
-0.00290923
-0.00347879
0.0025814
2.55338e-06
3.1344e-05
1.2559e-05
5.42684e-05
3.31346e-05
4.28246e-05
6.78463e-05
-5.36723e-06
0.000120744
-9.31153e-05
0.000196396
-0.000223797
0.000299909
-0.000401559
0.000436924
-0.000631287
0.000613553
-0.000918502
0.000836273
-0.00126912
0.00111175
-0.00168898
0.00144669
-0.0021828
0.0018478
-0.00275199
0.0023233
-0.00338473
-0.00402747
0.00287198
3.5055e-06
2.78385e-05
1.63421e-05
4.14318e-05
4.17966e-05
1.73701e-05
8.36403e-05
-4.72109e-05
0.000146164
-0.000155639
0.000234202
-0.000311835
0.00035314
-0.000520497
0.000508869
-0.000787016
0.000707687
-0.00111732
0.000956109
-0.00151755
0.00126061
-0.00199348
0.00162732
-0.00254951
0.00206182
-0.00318649
0.00257169
-0.00389459
-0.00460794
0.00315216
4.48008e-06
2.33584e-05
2.02256e-05
2.56863e-05
5.0699e-05
-1.31033e-05
9.98773e-05
-9.63893e-05
0.000172284
-0.000228045
0.000273
-0.000412552
0.000407646
-0.000655143
0.000582301
-0.00096167
0.000803338
-0.00133836
0.00107717
-0.00179137
0.00140986
-0.00232617
0.0018067
-0.00294636
0.00227177
-0.00365157
0.00281136
-0.00443417
-0.00521255
0.00341596
5.47573e-06
1.78827e-05
2.41993e-05
6.9627e-06
5.98113e-05
-4.87152e-05
0.000116489
-0.000153067
0.000198973
-0.000310529
0.000312558
-0.000526137
0.000463044
-0.000805629
0.000656606
-0.00115523
0.000899565
-0.00158132
0.00119804
-0.00208985
0.0015575
-0.00268562
0.00198209
-0.00337095
0.00247413
-0.0041436
0.00303775
-0.00499779
-0.00583281
0.00365801
6.49194e-06
1.13907e-05
2.82556e-05
-1.48009e-05
6.91063e-05
-8.95659e-05
0.000133411
-0.000217372
0.0002261
-0.000403218
0.000352638
-0.000652675
0.00051893
-0.000971921
0.000731132
-0.00136743
0.000995358
-0.00184554
0.00131725
-0.00241174
0.00170141
-0.00306978
0.00215068
-0.00382023
0.00266545
-0.00465837
0.00324644
-0.00557878
-0.0064603
0.00387393
7.52877e-06
3.86195e-06
3.23878e-05
-3.96599e-05
7.85579e-05
-0.000135736
0.000150576
-0.000289389
0.000253528
-0.00050617
0.000392988
-0.000792135
0.00057487
-0.0011538
0.000805179
-0.00159774
0.00108964
-0.00213
0.00143318
-0.00275529
0.00183936
-0.00347595
0.00230963
-0.0042905
0.00284271
-0.00519146
0.00343392
-0.00616999
-0.00708894
0.00406257
8.58645e-06
-4.7245e-06
3.65893e-05
-6.76628e-05
8.81391e-05
-0.000187286
0.000167914
-0.000369164
0.00028111
-0.000619366
0.000433333
-0.000944358
0.000630396
-0.00135087
0.000877992
-0.00184534
0.00118124
-0.00243325
0.00154415
-0.00311819
0.00196897
-0.00390078
0.00245583
-0.00477736
0.0030027
-0.00573833
0.00360113
-0.00676842
-0.00771509
0.00422728
9.66504e-06
-1.43895e-05
4.08525e-05
-9.88503e-05
9.78187e-05
-0.000244252
0.000185346
-0.000456692
0.000308682
-0.000742702
0.000473374
-0.00110905
0.000685001
-0.00156249
0.000948764
-0.0021091
0.00126896
-0.00275345
0.00164838
-0.00349761
0.00208778
-0.00434018
0.00258566
-0.00527523
0.00313916
-0.00629183
0.0037483
-0.00737757
-0.0084741
0.00450732
1.0764e-05
-2.51535e-05
4.5167e-05
-0.000133253
0.00010756
-0.000306645
0.000202783
-0.000551915
0.00033606
-0.000875979
0.000512779
-0.00128577
0.000738133
-0.00178785
0.00101664
-0.00238761
0.00135154
-0.00308835
0.00174416
-0.00389024
0.00219344
-0.00478946
0.00269587
-0.00577767
0.00324663
-0.00684259
0.00384079
-0.00797172
-0.00914526
0.00451195
1.18817e-05
-3.70352e-05
4.9519e-05
-0.000170891
0.000117317
-0.000374442
0.000220116
-0.000654714
0.000363036
-0.0010189
0.000551181
-0.00147391
0.000789204
-0.00202587
0.00108074
-0.00267914
0.00142774
-0.00343535
0.00182985
-0.00429235
0.002284
-0.00524361
0.00278444
-0.00627811
0.00332364
-0.00738179
0.00389161
-0.00853969
-0.00974995
0.0044963
1.30153e-05
-5.00505e-05
5.38898e-05
-0.000211765
0.000127034
-0.000447586
0.000237224
-0.000764904
0.000389377
-0.00117105
0.000588185
-0.00167272
0.000837593
-0.00227528
0.00114016
-0.00298171
0.00149635
-0.00379154
0.001904
-0.0047
0.00235794
-0.00569755
0.00285027
-0.00677044
0.00337115
-0.00790267
0.00390838
-0.00907693
-0.0102979
0.00445633
1.41606e-05
-6.42112e-05
5.82558e-05
-0.00025586
0.000136646
-0.000525977
0.000253964
-0.000882222
0.000414822
-0.00133191
0.000623362
-0.00188126
0.000882654
-0.00253457
0.001194
-0.00329305
0.00155626
-0.0041538
0.00196533
-0.00510907
0.00241409
-0.00614631
0.00289277
-0.00724912
0.00338996
-0.00839986
0.00389294
-0.0095799
-0.0107952
0.00439024
1.53116e-05
-7.95227e-05
6.25875e-05
-0.000303136
0.000146074
-0.000609463
0.000270177
-0.00100632
0.000439091
-0.00150083
0.000656264
-0.00209844
0.000923736
-0.00280204
0.00124141
-0.00361072
0.00160642
-0.00451881
0.00201281
-0.00551546
0.00245165
-0.00658515
0.0029118
-0.00770926
0.00338106
-0.00886913
0.00384725
-0.0100461
-0.0112457
0.00429775
1.64603e-05
-9.5983e-05
6.68498e-05
-0.000353526
0.000155231
-0.000697844
0.000285688
-0.00113678
0.000461881
-0.00167702
0.000686429
-0.00232298
0.000960195
-0.00307581
0.00128157
-0.0039321
0.00164596
-0.0048832
0.00204563
-0.00591513
0.00247019
-0.00700971
0.00290763
-0.00814671
0.00334574
-0.00930724
0.00377362
-0.010474
-0.011652
0.00417995
1.75974e-05
-0.00011358
7.10024e-05
-0.000406931
0.000164016
-0.000790858
0.000300308
-0.00127307
0.000482881
-0.00185959
0.000713394
-0.0025535
0.000991416
-0.00335383
0.00131376
-0.00425445
0.00167414
-0.00524357
0.00206326
-0.00630425
0.00246964
-0.00741609
0.00288096
-0.00855803
0.00328565
-0.00971192
0.00367456
-0.0108629
-0.0120163
0.00403885
1.87119e-05
-0.000132292
7.5e-05
-0.000463219
0.000172325
-0.000888182
0.000313838
-0.00141459
0.000501772
-0.00204753
0.000736708
-0.00278843
0.00101683
-0.00363395
0.00133737
-0.00457499
0.00169044
-0.00559664
0.00206546
-0.00667928
0.00245031
-0.00780094
0.00283285
-0.00894058
0.00320267
-0.0100817
0.00355269
-0.0112129
-0.0123405
0.00387691
1.97914e-05
-0.000152084
7.87933e-05
-0.000522221
0.000180043
-0.000989432
0.000326075
-0.00156062
0.000518242
-0.00223969
0.000755945
-0.00302614
0.00103594
-0.00391394
0.0013519
-0.00489095
0.00169452
-0.00593926
0.00205228
-0.00703704
0.0024128
-0.00816146
0.00276465
-0.00929243
0.00309893
-0.010416
0.0034107
-0.0115247
-0.0126266
0.0036968
2.08222e-05
-0.000172906
8.23303e-05
-0.000583729
0.000187054
-0.00109416
0.000336817
-0.00171038
0.000531988
-0.00243486
0.000770719
-0.00326487
0.00104831
-0.00419154
0.001357
-0.00519963
0.00168627
-0.00626854
0.002024
-0.00737477
0.00235802
-0.00849547
0.00267793
-0.00961234
0.00297661
-0.0107147
0.00325125
-0.0117993
-0.0128766
0.00350117
2.179e-05
-0.000194696
8.55571e-05
-0.000647496
0.000193243
-0.00120184
0.000345866
-0.001863
0.000542733
-0.00263173
0.000780695
-0.00350283
0.00105364
-0.00446448
0.00135247
-0.00549846
0.00166579
-0.00658185
0.00198118
-0.00769016
0.00228707
-0.00880136
0.00257442
-0.00989969
0.00283797
-0.0109783
0.00307686
-0.0120382
-0.0130922
0.00329251
2.26798e-05
-0.000217376
8.84196e-05
-0.000713236
0.000198495
-0.00131192
0.000353037
-0.00201755
0.000550226
-0.00282892
0.000785599
-0.0037382
0.00105169
-0.00473058
0.00133829
-0.00578506
0.00163334
-0.0068769
0.00192456
-0.00798138
0.00220125
-0.00907805
0.00245592
-0.0101544
0.00268518
-0.0112075
0.00288991
-0.0122429
-0.0132754
0.00307314
2.34766e-05
-0.000240852
9.08643e-05
-0.000780623
0.0002027
-0.00142375
0.000358162
-0.00217301
0.000554257
-0.00302502
0.000785225
-0.00396917
0.00104237
-0.00498772
0.00131454
-0.00605723
0.00158939
-0.00715175
0.00185503
-0.00824703
0.00210194
-0.00932495
0.00232426
-0.0103767
0.00252035
-0.0114036
0.00269256
-0.0124151
-0.013428
0.00284511
2.41654e-05
-0.000265018
9.28401e-05
-0.000849298
0.00020576
-0.00153667
0.000361091
-0.00232834
0.000554655
-0.00321858
0.000779442
-0.00419396
0.00102566
-0.00523393
0.00128149
-0.00631306
0.00153454
-0.0074048
0.00177364
-0.00848613
0.00199059
-0.0095419
0.0021812
-0.0105673
0.00234543
-0.0115678
0.00248677
-0.0125565
-0.0135514
0.00261022
2.47318e-05
-0.00028975
9.4299e-05
-0.000918865
0.000207583
-0.00164996
0.000361703
-0.00248246
0.0005513
-0.00340818
0.000768195
-0.00441085
0.00100167
-0.00546741
0.0012395
-0.00655089
0.00146951
-0.00763481
0.00168149
-0.00869812
0.00186867
-0.00972908
0.00202845
-0.0107271
0.00216219
-0.0117016
0.00227426
-0.0126685
-0.0136472
0.00237004
2.51623e-05
-0.000314912
9.51978e-05
-0.000988901
0.000208092
-0.00176285
0.000359902
-0.00263427
0.000544117
-0.00359239
0.000751503
-0.00461824
0.000970614
-0.00568653
0.00118903
-0.0067693
0.00139511
-0.00784088
0.00157973
-0.00888273
0.00173759
-0.00988694
0.0018676
-0.0108571
0.00197226
-0.0118062
0.00205654
-0.0127528
-0.0137166
0.00212593
2.54442e-05
-0.000340356
9.54983e-05
-0.00105895
0.000207226
-0.00187458
0.000355622
-0.00278267
0.000533085
-0.00376985
0.000729457
-0.00481461
0.000932768
-0.00588984
0.00113067
-0.0069672
0.00131221
-0.00802243
0.00146951
-0.00904004
0.00159874
-0.0100162
0.00170011
-0.0109585
0.00177707
-0.0118832
0.00183492
-0.0128107
-0.0137607
0.00187903
2.55663e-05
-0.000365922
9.5169e-05
-0.00112856
0.000204938
-0.00198435
0.000348828
-0.00292656
0.000518231
-0.00393926
0.000702216
-0.0049986
0.0008885
-0.00607612
0.00106502
-0.00714372
0.00122171
-0.00817912
0.00135199
-0.00917032
0.0014534
-0.0101176
0.00152733
-0.0110324
0.00157789
-0.0119338
0.00161053
-0.0128433
-0.0137805
0.00163032
2.55192e-05
-0.000391441
9.41849e-05
-0.00119722
0.000201198
-0.00209136
0.000339517
-0.00306488
0.000499628
-0.00409937
0.000669998
-0.00516897
0.000838234
-0.00624436
0.000992758
-0.00729824
0.00112453
-0.00831089
0.00122826
-0.00927405
0.00130278
-0.0101921
0.00135044
-0.0110801
0.00137583
-0.0119592
0.00138435
-0.0128518
-0.0137768
0.00138067
2.52949e-05
-0.000416736
9.25286e-05
-0.00126446
0.000195993
-0.00219482
0.000327715
-0.0031966
0.000477396
-0.00424905
0.000633073
-0.00532464
0.000782445
-0.00639373
0.000914592
-0.00743039
0.00102157
-0.00841786
0.00109937
-0.00935185
0.00114799
-0.0102407
0.00117053
-0.0111026
0.00117187
-0.0119605
0.00115723
-0.0128372
-0.0137504
0.00113081
2.48876e-05
-0.000441624
9.01901e-05
-0.00132976
0.000189329
-0.00229396
0.000313478
-0.00332075
0.000451691
-0.00438726
0.000591754
-0.00546471
0.000721642
-0.00652362
0.000831229
-0.00753998
0.000913718
-0.00850035
0.000966328
-0.00940446
0.000990042
-0.0102644
0.00098856
-0.0111011
0.000966868
-0.0119388
0.000929895
-0.0128002
-0.0137019
0.000881362
2.42932e-05
-0.000465917
8.71674e-05
-0.00139263
0.000181226
-0.00238802
0.000296889
-0.00343641
0.000422707
-0.00451308
0.000546391
-0.00558839
0.000656356
-0.00663358
0.00074338
-0.007627
0.000801822
-0.0085588
0.000830035
-0.00943267
0.000829846
-0.0102642
0.000805367
-0.0110766
0.000761557
-0.011895
0.000702997
-0.0127416
-0.0136318
0.000632899
2.351e-05
-0.000489427
8.34659e-05
-0.00145259
0.000171722
-0.00247628
0.000278055
-0.00354274
0.000390665
-0.00462569
0.000497356
-0.00569508
0.000587131
-0.00672336
0.000651741
-0.00769161
0.000686686
-0.00859374
0.000691343
-0.00943733
0.000668228
-0.0102411
0.000621705
-0.0110301
0.000556597
-0.0118299
0.000477088
-0.0126621
-0.0135406
0.000385911
2.25381e-05
-0.000511965
7.90986e-05
-0.00150915
0.000160868
-0.00255805
0.000257105
-0.00363898
0.00035581
-0.00472439
0.000445044
-0.00578431
0.000514512
-0.00679283
0.000556987
-0.00773408
0.000569064
-0.00860582
0.000551027
-0.00941929
0.000505927
-0.010196
0.000438242
-0.0109624
0.000352576
-0.0117442
0.000252668
-0.0125622
-0.0134287
0.000140785
2.13799e-05
-0.000533345
7.40856e-05
-0.00156186
0.000148732
-0.00263269
0.000234185
-0.00372443
0.000318408
-0.00480862
0.000389855
-0.00585576
0.000439036
-0.00684201
0.000459763
-0.00775481
0.000449661
-0.00859571
0.000409794
-0.00937943
0.000343606
-0.0101298
0.000255567
-0.0108744
0.000150013
-0.0116387
3.04123e-05
-0.0124426
-0.0132964
-0.00010196
2.00395e-05
-0.000553385
6.84536e-05
-0.00161027
0.000135389
-0.00269963
0.00020946
-0.0037985
0.000278736
-0.00487789
0.000332198
-0.00590922
0.000361232
-0.00687104
0.000360683
-0.00775426
0.000329127
-0.00856416
0.000268286
-0.00931859
0.000181859
-0.0100434
7.42074e-05
-0.0107667
-5.0685e-05
-0.0115138
-0.000189843
-0.0123035
-0.0131445
-0.000341729
1.85233e-05
-0.000571908
6.22355e-05
-0.00165398
0.00012093
-0.00275832
0.000183104
-0.00386068
0.000237079
-0.00493187
0.000272475
-0.00594462
0.000281604
-0.00688017
0.000260322
-0.00773298
0.000208063
-0.0085119
0.000127083
-0.00923761
2.1218e-05
-0.00993754
-0.00010535
-0.0106402
-0.000249004
-0.0113701
-0.000407186
-0.0121453
-0.0129731
-0.000578549
1.68392e-05
-0.000588747
5.54696e-05
-0.00169261
0.00010545
-0.0028083
0.000155301
-0.00391053
0.000193728
-0.00497029
0.000211085
-0.00596198
0.000200639
-0.00686972
0.000159216
-0.00769156
8.70159e-05
-0.0084397
-1.32915e-05
-0.0091373
-0.000137823
-0.00981301
-0.000282675
-0.0104953
-0.000444615
-0.0112082
-0.000621424
-0.0119685
-0.0127826
-0.000811958
1.4997e-05
-0.000603744
4.8199e-05
-0.00172581
8.90537e-05
-0.00284916
0.000126242
-0.00394772
0.000148973
-0.00499303
0.000148413
-0.00596142
0.000118796
-0.00684011
5.7864e-05
-0.00763063
-3.35126e-05
-0.00834832
-0.000152353
-0.00901846
-0.000294839
-0.00967053
-0.000457373
-0.0103328
-0.000637137
-0.0110284
-0.000832232
-0.0117734
-0.0125732
-0.00104163
1.30078e-05
-0.000616752
4.04708e-05
-0.00175328
7.18511e-05
-0.00288054
9.61197e-05
-0.00397199
0.000103102
-0.00500001
8.48308e-05
-0.00594314
3.65076e-05
-0.00679178
-4.32738e-05
-0.00755084
-0.000153068
-0.00823853
-0.000289684
-0.00888184
-0.000449433
-0.00951078
-0.000629076
-0.0101531
-0.000826221
-0.0108313
-0.00103929
-0.0115603
-0.0123452
-0.00126726
1.08844e-05
-0.000627636
3.23357e-05
-0.00177473
5.39558e-05
-0.00290216
6.51297e-05
-0.00398316
5.63941e-05
-0.00499127
2.06972e-05
-0.00590745
-4.58225e-05
-0.00672526
-0.000143776
-0.00745289
-0.000271237
-0.00811107
-0.000424893
-0.00872819
-0.000601242
-0.00933443
-0.000797438
-0.00995695
-0.00101153
-0.0106172
-0.00124226
-0.0113296
-0.0120989
-0.00148856
8.64077e-06
-0.000636277
2.38469e-05
-0.00178994
3.54845e-05
-0.0029138
3.34641e-05
-0.00398114
9.13123e-06
-0.00496694
-4.36583e-05
-0.00585466
-0.000127819
-0.0066411
-0.000243255
-0.00733745
-0.000387647
-0.00796668
-0.00055763
-0.0085582
-0.000749938
-0.00914212
-0.000962138
-0.00974475
-0.00119274
-0.0103866
-0.00144084
-0.0110815
-0.0118345
-0.00170524
6.29228e-06
-0.000642569
1.50596e-05
-0.0017987
1.65556e-05
-0.00291529
1.35805e-06
-0.00396594
-3.84455e-05
-0.00492714
-0.000107915
-0.00578519
-0.000209133
-0.00653989
-0.00034136
-0.00720523
-0.000501961
-0.00780608
-0.000687581
-0.00837258
-0.00089522
-0.00893448
-0.00112287
-0.0095171
-0.00136953
-0.0101399
-0.0016347
-0.0108163
-0.0115522
-0.00191701
3.85851e-06
-0.000646428
6.02986e-06
-0.00180087
-2.71484e-06
-0.00290655
-3.11283e-05
-0.00393753
-8.60755e-05
-0.00487219
-0.000171775
-0.00569949
-0.000289444
-0.00642222
-0.000437771
-0.0070569
-0.000613875
-0.00762997
-0.000814461
-0.008172
-0.00103682
-0.00871213
-0.00127935
-0.00927456
-0.00154156
-0.0098777
-0.00182349
-0.0105344
-0.0112521
-0.00212359
1.33955e-06
-0.000647768
-3.18909e-06
-0.00179635
-2.22298e-05
-0.00288751
-6.369e-05
-0.00389607
-0.000133516
-0.00480236
-0.000234961
-0.00559805
-0.000368459
-0.00628872
-0.000532198
-0.00689316
-0.000723116
-0.00743905
-0.000938019
-0.00795709
-0.00117448
-0.00847566
-0.00143132
-0.00901773
-0.00170853
-0.00960049
-0.00200685
-0.0102361
-0.0109343
-0.00232467
-1.2712e-06
-0.000646496
-1.25404e-05
-0.00178508
-4.18489e-05
-0.0028582
-9.61969e-05
-0.00384172
-0.000180546
-0.00471801
-0.000297215
-0.00548138
-0.000445909
-0.00614002
-0.000624378
-0.00671469
-0.000829439
-0.00723399
-0.00105803
-0.00772851
-0.001308
-0.00822569
-0.00157854
-0.00874719
-0.00187014
-0.00930889
-0.0021844
-0.00992181
-0.0105987
-0.00251998
-3.86696e-06
-0.000642629
-2.1958e-05
-0.00176698
-6.14723e-05
-0.00281868
-0.000128483
-0.00377471
-0.000226956
-0.00461954
-0.000358301
-0.00535003
-0.000521548
-0.00597678
-0.000714075
-0.00652216
-0.000932625
-0.00701544
-0.00117428
-0.00748685
-0.00143718
-0.00796279
-0.0017208
-0.00846357
-0.00202612
-0.00900357
-0.00235576
-0.00959217
-0.0102453
-0.00270915
-6.50833e-06
-0.000636121
-3.13933e-05
-0.0017421
-8.0993e-05
-0.00276908
-0.00016039
-0.00369531
-0.000272547
-0.00450738
-0.000417998
-0.00520458
-0.000595152
-0.00579962
-0.000801073
-0.00631624
-0.00103247
-0.00678404
-0.00128661
-0.00723271
-0.00156186
-0.00768754
-0.00185795
-0.00816748
-0.00217624
-0.00868528
-0.00252026
-0.00924815
-0.00987439
-0.00289117
-9.16118e-06
-0.00062696
-4.07915e-05
-0.00171047
-0.000100309
-0.00270957
-0.000191771
-0.00360385
-0.000317137
-0.00438202
-0.000476106
-0.00504561
-0.000666518
-0.00560921
-0.000885179
-0.00609758
-0.00112881
-0.00654041
-0.00139484
-0.00696667
-0.00168189
-0.00740049
-0.00198988
-0.00785949
-0.00232028
-0.00835487
-0.00267743
-0.008891
-0.00948479
-0.00306703
-1.18072e-05
-0.000615153
-5.00989e-05
-0.00167218
-0.000119321
-0.00264035
-0.000222484
-0.00350069
-0.000360556
-0.00424394
-0.000532439
-0.00487373
-0.000735462
-0.00540619
-0.000966217
-0.00586683
-0.00122147
-0.00628516
-0.00149884
-0.0066893
-0.00179716
-0.00710216
-0.00211656
-0.0075401
-0.00245815
-0.00801328
-0.00282174
-0.00852741
-0.00909013
-0.0032164
-1.443e-05
-0.000600723
-5.92642e-05
-0.00162734
-0.000137937
-0.00256167
-0.000252398
-0.00338623
-0.000402646
-0.0040937
-0.00058683
-0.00468954
-0.000801814
-0.0051912
-0.00104403
-0.00562461
-0.0013103
-0.00601889
-0.00159845
-0.00640116
-0.00190755
-0.00679306
-0.00223789
-0.00720975
-0.00259063
-0.00766054
-0.00296679
-0.00815125
-0.00868554
-0.00337138
-1.70136e-05
-0.000583709
-6.82383e-05
-0.00157612
-0.000156069
-0.00247384
-0.000281392
-0.00326091
-0.000443263
-0.00393182
-0.000639123
-0.00449368
-0.000865425
-0.0049649
-0.00111847
-0.00537157
-0.00139516
-0.0057422
-0.00169354
-0.00610278
-0.00201289
-0.00647371
-0.00235366
-0.00686898
-0.00271711
-0.00729709
-0.00310478
-0.00776359
-0.00827044
-0.00351987
-1.95428e-05
-0.000564166
-7.69743e-05
-0.00151869
-0.000173633
-0.00237718
-0.00030935
-0.00312519
-0.000482273
-0.0037589
-0.000689179
-0.00428678
-0.000926155
-0.00472793
-0.0011894
-0.00510832
-0.00147594
-0.00545566
-0.00178399
-0.00579473
-0.00211305
-0.00614465
-0.00246373
-0.0065183
-0.00283735
-0.00692348
-0.00323563
-0.00736531
-0.00784488
-0.00366118
-2.2003e-05
-0.000542163
-8.54276e-05
-0.00145526
-0.00019055
-0.00227206
-0.000336168
-0.00297957
-0.000519553
-0.00357552
-0.00073687
-0.00406946
-0.00098388
-0.00448092
-0.00125672
-0.00483548
-0.00155252
-0.00515986
-0.00186969
-0.00547756
-0.00220794
-0.0058064
-0.002568
-0.00615824
-0.00295127
-0.00654021
-0.00335957
-0.00695701
-0.00740928
-0.00379517
-2.43803e-05
-0.000517783
-9.35563e-05
-0.00138609
-0.00020675
-0.00215887
-0.000361749
-0.00282457
-0.000554993
-0.00338227
-0.000782081
-0.00384238
-0.00103849
-0.00422451
-0.00132031
-0.00455365
-0.0016248
-0.00485538
-0.00195055
-0.00515181
-0.00229746
-0.0054595
-0.00266638
-0.00578932
-0.00305881
-0.00614778
-0.00347662
-0.00653919
-0.00696397
-0.00392194
-2.66614e-05
-0.000491122
-0.000101321
-0.00131143
-0.000222163
-0.00203802
-0.000386002
-0.00266073
-0.000588491
-0.00317978
-0.000824706
-0.00360616
-0.00108988
-0.00395934
-0.00138008
-0.00426345
-0.00169269
-0.00454277
-0.00202648
-0.00481801
-0.00238151
-0.00510446
-0.00275879
-0.00541205
-0.00315987
-0.0057467
-0.00358671
-0.00611235
-0.0065093
-0.00404138
-2.88336e-05
-0.000462288
-0.000108685
-0.00123158
-0.000236728
-0.00190998
-0.000408846
-0.00248862
-0.000619954
-0.00296867
-0.000864652
-0.00336146
-0.00113796
-0.00368603
-0.00143594
-0.00396547
-0.00175609
-0.00422262
-0.00209738
-0.00447672
-0.00246002
-0.00474182
-0.00284513
-0.00502694
-0.00325436
-0.00533747
-0.00368973
-0.00567697
-0.0060457
-0.00415333
-3.08853e-05
-0.000431403
-0.000115613
-0.00114685
-0.000250388
-0.00177521
-0.000430205
-0.0023088
-0.000649299
-0.00274958
-0.000901833
-0.00310893
-0.00118264
-0.00340522
-0.0014878
-0.00366031
-0.00181494
-0.00389548
-0.00216318
-0.00412848
-0.0025329
-0.00437211
-0.0029253
-0.00463453
-0.00334216
-0.00492061
-0.00378556
-0.00523357
-0.00557363
-0.00425764
-3.28054e-05
-0.000398597
-0.000122075
-0.00105758
-0.000263089
-0.00163419
-0.000450014
-0.00212187
-0.000676449
-0.00252315
-0.000936171
-0.00284921
-0.00122385
-0.00311754
-0.0015356
-0.00334856
-0.00186916
-0.00356192
-0.00222381
-0.00377383
-0.00260005
-0.00399587
-0.00299922
-0.00423535
-0.00342318
-0.00449666
-0.00387406
-0.00478268
-0.0050936
-0.00435409
-3.45838e-05
-0.000364013
-0.000128041
-0.000964122
-0.000274784
-0.00148745
-0.000468209
-0.00192845
-0.000701337
-0.00229002
-0.000967598
-0.00258295
-0.00126153
-0.00282361
-0.00157927
-0.00303082
-0.00191868
-0.00322252
-0.00227917
-0.00341334
-0.0026614
-0.00361365
-0.00306679
-0.00382996
-0.00349727
-0.00406618
-0.00395508
-0.00432487
-0.0046062
-0.00444249
-3.62112e-05
-0.000327802
-0.000133485
-0.000866849
-0.000285429
-0.0013355
-0.000484736
-0.00172914
-0.000723903
-0.00205085
-0.000996051
-0.0023108
-0.00129561
-0.00252405
-0.00161875
-0.00270769
-0.00196343
-0.00287784
-0.00232922
-0.00304755
-0.00271686
-0.003226
-0.0031279
-0.00341892
-0.00356434
-0.00362974
-0.00402847
-0.00386074
-0.00411203
-0.00452264
-3.76792e-05
-0.000290123
-0.000138383
-0.000766145
-0.000294988
-0.0011789
-0.000499547
-0.00152458
-0.000744093
-0.0018063
-0.00102148
-0.00203341
-0.00132604
-0.00221949
-0.00165397
-0.00237975
-0.00200336
-0.00252845
-0.00237387
-0.00267703
-0.00276637
-0.0028335
-0.00318248
-0.00300282
-0.00362426
-0.00318796
-0.00409409
-0.0033909
-0.00361174
-0.00459437
-3.89803e-05
-0.000251142
-0.000142715
-0.000662411
-0.000303424
-0.00101819
-0.000512598
-0.00131541
-0.00076186
-0.00155704
-0.00104383
-0.00175145
-0.00135277
-0.00191055
-0.00168491
-0.00204761
-0.00203842
-0.00217494
-0.00241308
-0.00230237
-0.00280985
-0.00243673
-0.00323042
-0.00258225
-0.00367693
-0.00274145
-0.00415181
-0.00291603
-0.00310604
-0.00465751
-4.01079e-05
-0.000211035
-0.000146462
-0.000556057
-0.00031071
-0.000853941
-0.000523853
-0.00110227
-0.000777162
-0.00130373
-0.00106306
-0.00146555
-0.00137575
-0.00159786
-0.0017115
-0.00171186
-0.00206855
-0.00181788
-0.00244679
-0.00192413
-0.00284725
-0.00203628
-0.00327167
-0.00215782
-0.00372226
-0.00229086
-0.00420151
-0.00243679
-0.00259565
-0.0047119
-4.10563e-05
-0.000169978
-0.000149608
-0.000447505
-0.00031682
-0.000686729
-0.000533279
-0.000885806
-0.000789966
-0.00104705
-0.00107914
-0.00117637
-0.00139496
-0.00128204
-0.00173372
-0.0013731
-0.00209373
-0.00145787
-0.00247496
-0.00154291
-0.00287849
-0.00163274
-0.00330615
-0.00173016
-0.00376017
-0.00183684
-0.00424308
-0.00195387
-0.00208131
-0.00475743
-4.18207e-05
-0.000128158
-0.000152141
-0.000337185
-0.000321733
-0.000517138
-0.000540852
-0.000666687
-0.000800244
-0.000787653
-0.00109204
-0.000884573
-0.00141036
-0.000963722
-0.00175153
-0.00103194
-0.00211392
-0.00109548
-0.00249754
-0.00115928
-0.00290355
-0.00122673
-0.00333381
-0.00129991
-0.00379059
-0.00138006
-0.00427645
-0.00146801
-0.00156378
-0.00479398
-4.23974e-05
-8.57603e-05
-0.00015405
-0.000225532
-0.000325432
-0.000345755
-0.000546549
-0.00044557
-0.000807971
-0.000526231
-0.00110174
-0.000590809
-0.00142193
-0.000643524
-0.00176491
-0.000688963
-0.00212908
-0.000731311
-0.0025145
-0.000773858
-0.00292238
-0.000818859
-0.00335459
-0.000867696
-0.00381345
-0.000921197
-0.00430154
-0.000979914
-0.00104386
-0.00482146
-4.27834e-05
-4.29769e-05
-0.000155326
-0.000112989
-0.000327905
-0.000173177
-0.000550356
-0.000223119
-0.000813133
-0.000263454
-0.00110821
-0.000295732
-0.00142966
-0.000322075
-0.00177384
-0.000344783
-0.0021392
-0.000365953
-0.00252582
-0.00038723
-0.00293494
-0.000409741
-0.00336846
-0.000434175
-0.00382871
-0.000460947
-0.0043183
-0.00049033
-0.000522333
-0.00483982
-4.29769e-05
4.89289e-12
-0.000155966
1.45723e-11
-0.000329143
2.49088e-11
-0.000552262
3.44095e-11
-0.000815716
4.19026e-11
-0.00111145
4.70473e-11
-0.00143352
5.00668e-11
-0.00177831
5.14276e-11
-0.00214426
5.16121e-11
-0.00253149
5.10365e-11
-0.00294123
4.99803e-11
-0.00337541
4.86093e-11
-0.00383635
4.69997e-11
-0.00432668
4.52803e-11
4.33803e-11
-0.00484902
-4.29769e-05
4.29769e-05
-0.000155966
0.000112989
-0.000329143
0.000173177
-0.000552262
0.000223119
-0.000815716
0.000263454
-0.00111145
0.000295732
-0.00143352
0.000322075
-0.00177831
0.000344783
-0.00214426
0.000365953
-0.00253149
0.00038723
-0.00294123
0.000409741
-0.00337541
0.000434175
-0.00383635
0.000460947
-0.00432668
0.00049033
0.000522333
-0.00484902
-4.27834e-05