# Force coefficients
# liftDir     : (0.000000e+00 1.000000e+00 0.000000e+00)
# dragDir     : (1.000000e+00 0.000000e+00 0.000000e+00)
# pitchAxis   : (0.000000e+00 0.000000e+00 1.000000e+00)
# magUInf     : 1.000000e+00
# lRef        : 1.000000e+00
# Aref        : 1.000000e-01
# CofR        : (0.000000e+00 0.000000e+00 0.000000e+00)
# Time        	Cm            	Cd            	Cl            	Cl(f)         	Cl(r)         
0.005         	-1.144630e-11	3.267139e+02	1.153525e-06	5.767512e-07	5.767741e-07
0.01          	-1.041412e-08	6.201855e+00	-6.498181e-07	-3.353232e-07	-3.144950e-07
0.015         	5.791721e-08	7.848966e+00	5.317662e-07	3.238003e-07	2.079659e-07
0.02          	7.627121e-08	6.450553e+00	-2.672538e-07	-5.735570e-08	-2.098981e-07
0.025         	7.118547e-08	5.774727e+00	-2.797159e-07	-6.867246e-08	-2.110434e-07
0.03          	5.597473e-08	5.219096e+00	-2.821559e-07	-8.510323e-08	-1.970527e-07
0.035         	3.739441e-08	4.762488e+00	-1.943738e-07	-5.979248e-08	-1.345813e-07
0.04          	1.875054e-08	4.385501e+00	-1.257233e-07	-4.411112e-08	-8.161219e-08
0.045         	1.598735e-09	4.072068e+00	-7.871549e-08	-3.775901e-08	-4.095648e-08
0.05          	-1.340142e-08	3.809365e+00	-2.206435e-08	-2.443359e-08	2.369244e-09
0.055         	-2.900663e-08	3.587245e+00	7.550258e-08	8.744658e-09	6.675792e-08
0.06          	-3.983331e-08	3.397752e+00	2.127481e-07	6.654073e-08	1.462073e-07
0.065         	-4.669805e-08	3.234717e+00	3.393456e-07	1.229748e-07	2.163709e-07
0.07          	-5.035282e-08	3.093270e+00	4.388118e-07	1.690531e-07	2.697587e-07
0.075         	-5.143680e-08	2.969492e+00	4.858267e-07	1.914765e-07	2.943501e-07
0.08          	-5.046950e-08	2.860343e+00	4.405111e-07	1.697860e-07	2.707250e-07
0.085         	-4.788587e-08	2.763443e+00	4.742682e-07	1.892482e-07	2.850200e-07
0.09          	-4.406774e-08	2.676796e+00	5.070141e-07	2.094393e-07	2.975748e-07
0.095         	-5.431434e-08	2.598865e+00	4.993177e-07	1.953445e-07	3.039732e-07
0.1           	-5.832588e-08	2.528425e+00	5.005087e-07	1.919285e-07	3.085802e-07
0.105         	-5.743807e-08	2.464375e+00	7.002717e-07	2.926978e-07	4.075739e-07
0.11          	-5.273827e-08	2.405868e+00	5.617077e-07	2.281156e-07	3.335921e-07
0.115         	-4.511595e-08	2.352285e+00	5.307057e-07	2.202369e-07	3.104688e-07
0.12          	-3.535903e-08	2.302922e+00	6.172923e-07	2.732871e-07	3.440052e-07
0.125         	-2.407380e-08	2.257305e+00	5.460122e-07	2.489323e-07	2.970799e-07
0.13          	-1.173560e-08	2.215082e+00	3.947176e-07	1.856232e-07	2.090944e-07
0.135         	1.232262e-09	2.175849e+00	5.207193e-07	2.615919e-07	2.591274e-07
0.14          	1.449813e-08	2.139272e+00	4.607613e-07	2.448788e-07	2.158825e-07
0.145         	2.782574e-08	2.105118e+00	4.330183e-07	2.443349e-07	1.886834e-07
0.15          	4.101239e-08	2.073159e+00	4.137929e-07	2.479088e-07	1.658841e-07
0.155         	5.391143e-08	2.043218e+00	3.773370e-07	2.425800e-07	1.347571e-07
0.16          	6.639745e-08	2.015060e+00	3.491833e-07	2.409891e-07	1.081942e-07
0.165         	7.839269e-08	1.988570e+00	3.930870e-07	2.749362e-07	1.181508e-07
0.17          	8.983317e-08	1.963602e+00	3.701618e-07	2.749141e-07	9.524774e-08
0.175         	1.007008e-07	1.940063e+00	2.865880e-07	2.439948e-07	4.259325e-08
0.18          	1.109553e-07	1.917821e+00	3.236207e-07	2.727656e-07	5.085508e-08
0.185         	1.205871e-07	1.896761e+00	3.305093e-07	2.858418e-07	4.466750e-08
0.19          	1.295965e-07	1.876812e+00	2.507457e-07	2.549693e-07	-4.223626e-09
0.195         	1.380163e-07	1.857904e+00	3.088313e-07	2.924319e-07	1.639932e-08
0.2           	1.458469e-07	1.839987e+00	2.034599e-07	2.475769e-07	-4.411692e-08
0.205         	1.530748e-07	1.822959e+00	3.080123e-07	3.070810e-07	9.313764e-10
0.21          	1.597406e-07	1.806764e+00	1.490097e-07	2.342454e-07	-8.523572e-08
0.215         	1.658608e-07	1.791352e+00	1.943848e-07	2.630532e-07	-6.866841e-08
0.22          	1.714974e-07	1.776688e+00	1.680262e-07	2.555105e-07	-8.748427e-08
0.225         	1.766638e-07	1.762713e+00	2.889173e-07	3.211224e-07	-3.220514e-08
0.23          	1.813751e-07	1.749429e+00	1.381970e-07	2.504737e-07	-1.122766e-07
0.235         	1.856371e-07	1.736747e+00	1.691150e-07	2.701946e-07	-1.010796e-07
0.24          	1.894890e-07	1.724623e+00	1.241339e-07	2.515560e-07	-1.274221e-07
0.245         	1.929653e-07	1.713050e+00	1.323772e-07	2.591539e-07	-1.267767e-07
0.25          	1.960964e-07	1.702012e+00	1.120288e-07	2.521108e-07	-1.400820e-07
0.255         	1.988874e-07	1.691462e+00	1.029405e-07	2.503577e-07	-1.474171e-07
0.26          	2.013594e-07	1.681377e+00	9.205119e-08	2.473850e-07	-1.553338e-07
0.265         	2.035432e-07	1.671790e+00	7.843219e-08	2.427593e-07	-1.643271e-07
0.27          	2.054656e-07	1.662539e+00	7.766523e-08	2.442982e-07	-1.666330e-07
0.275         	2.071669e-07	1.653710e+00	9.783198e-08	2.560829e-07	-1.582509e-07
0.28          	2.086431e-07	1.645261e+00	1.020378e-07	2.596620e-07	-1.576242e-07
0.285         	2.098949e-07	1.637192e+00	4.147098e-08	2.306303e-07	-1.891594e-07
0.29          	2.109300e-07	1.629452e+00	1.019537e-08	2.160277e-07	-2.058323e-07
0.295         	2.117735e-07	1.622059e+00	3.486750e-08	2.292073e-07	-1.943398e-07
0.3           	2.124263e-07	1.614967e+00	-2.198299e-08	2.014348e-07	-2.234178e-07
0.305         	2.129106e-07	1.608214e+00	1.538409e-08	2.206027e-07	-2.052186e-07
0.31          	2.132441e-07	1.601706e+00	-4.593857e-09	2.109472e-07	-2.155411e-07
0.315         	2.134679e-07	1.595477e+00	-5.530499e-09	2.107026e-07	-2.162331e-07
0.32          	2.135756e-07	1.589507e+00	-1.575238e-08	2.056994e-07	-2.214518e-07
0.325         	2.135757e-07	1.583781e+00	-2.562577e-08	2.007628e-07	-2.263886e-07
0.33          	2.134517e-07	1.578317e+00	-2.397050e-08	2.014665e-07	-2.254370e-07
0.335         	2.132174e-07	1.573089e+00	-1.911107e-08	2.036618e-07	-2.227729e-07
0.34          	2.128532e-07	1.568056e+00	-3.831476e-08	1.936958e-07	-2.320106e-07
0.345         	2.124842e-07	1.563243e+00	-4.588574e-08	1.895413e-07	-2.354270e-07
0.35          	2.120030e-07	1.558670e+00	-5.025395e-08	1.868760e-07	-2.371300e-07
0.355         	2.114293e-07	1.554258e+00	-5.046111e-08	1.861987e-07	-2.366598e-07
0.36          	2.107894e-07	1.550022e+00	-6.584277e-08	1.778680e-07	-2.437108e-07
0.365         	2.100836e-07	1.545994e+00	-7.296704e-08	1.736001e-07	-2.465671e-07
0.37          	2.093341e-07	1.542127e+00	-9.517879e-08	1.617447e-07	-2.569235e-07
0.375         	2.085352e-07	1.538433e+00	-9.006745e-08	1.635015e-07	-2.535690e-07
0.38          	2.076926e-07	1.534895e+00	-9.550133e-08	1.599419e-07	-2.554433e-07
0.385         	2.068042e-07	1.531523e+00	-1.209283e-07	1.463401e-07	-2.672684e-07
0.39          	2.058871e-07	1.528283e+00	-1.203182e-07	1.457280e-07	-2.660462e-07
0.395         	2.049366e-07	1.525205e+00	-1.253809e-07	1.422461e-07	-2.676271e-07
0.4           	2.039582e-07	1.522269e+00	-1.454205e-07	1.312479e-07	-2.766684e-07
0.405         	2.029700e-07	1.519476e+00	-1.730102e-07	1.164649e-07	-2.894751e-07
0.41          	2.019410e-07	1.516805e+00	-1.395420e-07	1.321700e-07	-2.717120e-07
0.415         	2.008912e-07	1.514235e+00	-1.473318e-07	1.272254e-07	-2.745571e-07
0.42          	1.998210e-07	1.511799e+00	-1.494513e-07	1.250954e-07	-2.745467e-07
0.425         	1.987346e-07	1.509480e+00	-9.979936e-08	1.488350e-07	-2.486343e-07
0.43          	1.976340e-07	1.507273e+00	-1.474190e-07	1.239245e-07	-2.713435e-07
0.435         	1.965200e-07	1.505174e+00	-1.531943e-07	1.199228e-07	-2.731172e-07
0.44          	1.953940e-07	1.503180e+00	-1.585479e-07	1.161200e-07	-2.746679e-07
0.445         	1.942587e-07	1.501294e+00	-1.625767e-07	1.129704e-07	-2.755471e-07
0.45          	1.931172e-07	1.499513e+00	-2.584919e-07	6.387131e-08	-3.223632e-07
0.455         	1.919607e-07	1.497786e+00	-1.606818e-07	1.116198e-07	-2.723017e-07
0.46          	1.908101e-07	1.496185e+00	-2.033888e-07	8.911567e-08	-2.925045e-07
0.465         	1.896617e-07	1.494670e+00	-1.899801e-07	9.467161e-08	-2.846517e-07
0.47          	1.885145e-07	1.493222e+00	-1.771228e-07	9.995305e-08	-2.770759e-07
0.475         	1.873680e-07	1.491890e+00	-2.339060e-07	7.041502e-08	-3.043210e-07
0.48          	1.862230e-07	1.490639e+00	-2.076646e-07	8.239071e-08	-2.900553e-07
0.485         	1.850866e-07	1.489450e+00	-2.180019e-07	7.608565e-08	-2.940875e-07
0.49          	1.839485e-07	1.488327e+00	-2.137822e-07	7.705741e-08	-2.908396e-07
0.495         	1.828129e-07	1.487276e+00	-2.233946e-07	7.111563e-08	-2.945103e-07
0.5           	1.816801e-07	1.486303e+00	-2.276801e-07	6.784003e-08	-2.955201e-07
0.505         	1.805510e-07	1.485417e+00	-2.315370e-07	6.478253e-08	-2.963195e-07
0.51          	1.794176e-07	1.484557e+00	-2.426218e-07	5.810668e-08	-3.007285e-07
0.515         	1.783019e-07	1.483768e+00	-2.415433e-07	5.753020e-08	-2.990735e-07
0.52          	1.771939e-07	1.483049e+00	-2.431401e-07	5.562385e-08	-2.987639e-07
0.525         	1.760916e-07	1.482388e+00	-2.508630e-07	5.066003e-08	-3.015231e-07
0.53          	1.749946e-07	1.481789e+00	-2.529299e-07	4.852963e-08	-3.014595e-07
0.535         	1.739050e-07	1.481240e+00	-2.616319e-07	4.308910e-08	-3.047210e-07
0.54          	1.728229e-07	1.480758e+00	-2.542668e-07	4.568948e-08	-2.999563e-07
0.545         	1.717493e-07	1.480301e+00	-2.700411e-07	3.672878e-08	-3.067699e-07
0.55          	1.706832e-07	1.479922e+00	-2.713097e-07	3.502838e-08	-3.063381e-07
0.555         	1.696240e-07	1.479579e+00	-2.765393e-07	3.135437e-08	-3.078937e-07
0.56          	1.685734e-07	1.479286e+00	-2.790968e-07	2.902496e-08	-3.081218e-07
0.565         	1.675326e-07	1.479049e+00	-2.801358e-07	2.746474e-08	-3.076005e-07
0.57          	1.664977e-07	1.478831e+00	-2.987807e-07	1.710735e-08	-3.158881e-07
0.575         	1.654802e-07	1.478679e+00	-3.015344e-07	1.471302e-08	-3.162475e-07
0.58          	1.644733e-07	1.478576e+00	-2.964368e-07	1.625484e-08	-3.126917e-07
0.585         	1.634822e-07	1.478486e+00	-3.004716e-07	1.324638e-08	-3.137180e-07
0.59          	1.624997e-07	1.478471e+00	-3.121066e-07	6.446397e-09	-3.185530e-07
0.595         	1.615349e-07	1.478450e+00	-3.078259e-07	7.621983e-09	-3.154479e-07
0.6           	1.605772e-07	1.478482e+00	-3.114207e-07	4.866898e-09	-3.162876e-07
0.605         	1.596268e-07	1.478542e+00	-3.168830e-07	1.185305e-09	-3.180683e-07
0.61          	1.586852e-07	1.478652e+00	-3.182375e-07	-4.335506e-10	-3.178040e-07
0.615         	1.577538e-07	1.478783e+00	-3.314728e-07	-7.982599e-09	-3.234902e-07
0.62          	1.568318e-07	1.478959e+00	-3.267619e-07	-6.549169e-09	-3.202127e-07
0.625         	1.559192e-07	1.479160e+00	-3.371545e-07	-1.265798e-08	-3.244965e-07
0.63          	1.550157e-07	1.479366e+00	-3.367589e-07	-1.336375e-08	-3.233952e-07
0.635         	1.541233e-07	1.479630e+00	-3.468558e-07	-1.930460e-08	-3.275512e-07
0.64          	1.532412e-07	1.479886e+00	-3.439700e-07	-1.874385e-08	-3.252262e-07
0.645         	1.523706e-07	1.480193e+00	-3.485498e-07	-2.190435e-08	-3.266455e-07
0.65          	1.515097e-07	1.480521e+00	-3.523643e-07	-2.467243e-08	-3.276919e-07
0.655         	1.506588e-07	1.480878e+00	-3.530028e-07	-2.584256e-08	-3.271602e-07
0.66          	1.498171e-07	1.481256e+00	-3.624548e-07	-3.141031e-08	-3.310445e-07
0.665         	1.489867e-07	1.481656e+00	-3.707665e-07	-3.639659e-08	-3.343699e-07
0.67          	1.481655e-07	1.482089e+00	-3.675228e-07	-3.559594e-08	-3.319269e-07
0.675         	1.473536e-07	1.482526e+00	-3.711189e-07	-3.820579e-08	-3.329131e-07
0.68          	1.465514e-07	1.482992e+00	-3.749334e-07	-4.091535e-08	-3.340181e-07
0.685         	1.457588e-07	1.483492e+00	-3.801544e-07	-4.431837e-08	-3.358360e-07
0.69          	1.449743e-07	1.483976e+00	-3.805832e-07	-4.531732e-08	-3.352659e-07
0.695         	1.442004e-07	1.484487e+00	-3.894263e-07	-5.051271e-08	-3.389136e-07
0.7           	1.434355e-07	1.485016e+00	-3.851194e-07	-4.912419e-08	-3.359952e-07
0.705         	1.426806e-07	1.485570e+00	-4.030683e-07	-5.885355e-08	-3.442147e-07
0.71          	1.419345e-07	1.486148e+00	-3.992639e-07	-5.769744e-08	-3.415665e-07
0.715         	1.411980e-07	1.486721e+00	-3.955574e-07	-5.658064e-08	-3.389767e-07
0.72          	1.404696e-07	1.487321e+00	-4.045893e-07	-6.182501e-08	-3.427643e-07
0.725         	1.397489e-07	1.487920e+00	-4.097628e-07	-6.513252e-08	-3.446302e-07
0.73          	1.390374e-07	1.488546e+00	-4.062407e-07	-6.408296e-08	-3.421578e-07
0.735         	1.383379e-07	1.489194e+00	-4.172467e-07	-7.028542e-08	-3.469613e-07
0.74          	1.376488e-07	1.489853e+00	-4.283493e-07	-7.652590e-08	-3.518234e-07
0.745         	1.369697e-07	1.490515e+00	-4.188118e-07	-7.243620e-08	-3.463756e-07
0.75          	1.362988e-07	1.491194e+00	-4.250364e-07	-7.621941e-08	-3.488170e-07
0.755         	1.356332e-07	1.491864e+00	-4.298309e-07	-7.928222e-08	-3.505487e-07
0.76          	1.349753e-07	1.492544e+00	-4.357419e-07	-8.289559e-08	-3.528463e-07
0.765         	1.343252e-07	1.493288e+00	-4.347854e-07	-8.306750e-08	-3.517179e-07
0.77          	1.336816e-07	1.493949e+00	-4.376041e-07	-8.512048e-08	-3.524836e-07
0.775         	1.330459e-07	1.494682e+00	-4.432097e-07	-8.855893e-08	-3.546508e-07
0.78          	1.324168e-07	1.495388e+00	-4.452455e-07	-9.020591e-08	-3.550396e-07
0.785         	1.317943e-07	1.496140e+00	-4.513193e-07	-9.386533e-08	-3.574539e-07
0.79          	1.311789e-07	1.496854e+00	-4.430401e-07	-9.034118e-08	-3.526989e-07
0.795         	1.305686e-07	1.497597e+00	-4.570363e-07	-9.794952e-08	-3.590868e-07
0.8           	1.299659e-07	1.498346e+00	-4.621502e-07	-1.011093e-07	-3.610410e-07
0.805         	1.293700e-07	1.499104e+00	-4.605919e-07	-1.009259e-07	-3.596660e-07
0.81          	1.287804e-07	1.499892e+00	-4.755851e-07	-1.090121e-07	-3.665730e-07
0.815         	1.281974e-07	1.500630e+00	-4.651458e-07	-1.043755e-07	-3.607703e-07
0.82          	1.276207e-07	1.501415e+00	-4.680251e-07	-1.063919e-07	-3.616332e-07
0.825         	1.270496e-07	1.502185e+00	-4.724053e-07	-1.091531e-07	-3.632522e-07
0.83          	1.264845e-07	1.502922e+00	-4.705808e-07	-1.088058e-07	-3.617749e-07
0.835         	1.259272e-07	1.503777e+00	-4.963567e-07	-1.222512e-07	-3.741055e-07
0.84          	1.253739e-07	1.504479e+00	-4.693877e-07	-1.093200e-07	-3.600677e-07
0.845         	1.248276e-07	1.505271e+00	-4.871328e-07	-1.187388e-07	-3.683940e-07
0.85          	1.242872e-07	1.506059e+00	-4.892018e-07	-1.203137e-07	-3.688881e-07
0.855         	1.237524e-07	1.506844e+00	-4.985641e-07	-1.255296e-07	-3.730345e-07
0.86          	1.232229e-07	1.507638e+00	-4.964357e-07	-1.249950e-07	-3.714407e-07
0.865         	1.226981e-07	1.508476e+00	-4.939574e-07	-1.242806e-07	-3.696768e-07
0.87          	1.221780e-07	1.509205e+00	-5.012023e-07	-1.284232e-07	-3.727791e-07
0.875         	1.216636e-07	1.510001e+00	-5.034800e-07	-1.300764e-07	-3.734036e-07
0.88          	1.211538e-07	1.510792e+00	-5.117000e-07	-1.346962e-07	-3.770038e-07
0.885         	1.206486e-07	1.511588e+00	-5.123953e-07	-1.355490e-07	-3.768463e-07
0.89          	1.201488e-07	1.512397e+00	-5.111693e-07	-1.354358e-07	-3.757335e-07
0.895         	1.196529e-07	1.513153e+00	-5.086942e-07	-1.346942e-07	-3.740000e-07
0.9           	1.191603e-07	1.513954e+00	-5.341831e-07	-1.479313e-07	-3.862518e-07
0.905         	1.186746e-07	1.514754e+00	-5.261173e-07	-1.443841e-07	-3.817332e-07
0.91          	1.181942e-07	1.515545e+00	-5.187434e-07	-1.411775e-07	-3.775659e-07
0.915         	1.177185e-07	1.516330e+00	-5.273104e-07	-1.459367e-07	-3.813737e-07
0.92          	1.172460e-07	1.517099e+00	-5.282259e-07	-1.468669e-07	-3.813589e-07
0.925         	1.167774e-07	1.517884e+00	-5.318170e-07	-1.491311e-07	-3.826859e-07
0.93          	1.163123e-07	1.518653e+00	-5.344800e-07	-1.509277e-07	-3.835523e-07
0.935         	1.158510e-07	1.519431e+00	-5.377527e-07	-1.530254e-07	-3.847273e-07
0.94          	1.153930e-07	1.520203e+00	-5.402397e-07	-1.547268e-07	-3.855129e-07
0.945         	1.149383e-07	1.520979e+00	-5.415252e-07	-1.558243e-07	-3.857009e-07
0.95          	1.144877e-07	1.521748e+00	-5.489534e-07	-1.599890e-07	-3.889644e-07
0.955         	1.140425e-07	1.522514e+00	-5.486690e-07	-1.602921e-07	-3.883770e-07
0.96          	1.136003e-07	1.523279e+00	-5.568169e-07	-1.648082e-07	-3.920087e-07
0.965         	1.131613e-07	1.524047e+00	-5.579360e-07	-1.658067e-07	-3.921293e-07
0.97          	1.127258e-07	1.524810e+00	-5.379335e-07	-1.562409e-07	-3.816926e-07
0.975         	1.122941e-07	1.525524e+00	-5.619373e-07	-1.686745e-07	-3.932628e-07
0.98          	1.118632e-07	1.526265e+00	-5.661844e-07	-1.712290e-07	-3.949554e-07
0.985         	1.114370e-07	1.527018e+00	-5.659474e-07	-1.715367e-07	-3.944107e-07
0.99          	1.110132e-07	1.527747e+00	-5.685144e-07	-1.732440e-07	-3.952704e-07
0.995         	1.105921e-07	1.528480e+00	-5.692637e-07	-1.740397e-07	-3.952240e-07
1             	1.101735e-07	1.529223e+00	-5.719859e-07	-1.758194e-07	-3.961665e-07
1.005         	1.097570e-07	1.529941e+00	-5.779703e-07	-1.792282e-07	-3.987421e-07
1.01          	1.093427e-07	1.530638e+00	-5.762961e-07	-1.788054e-07	-3.974907e-07
1.015         	1.089309e-07	1.531351e+00	-5.834540e-07	-1.827961e-07	-4.006579e-07
1.02          	1.085224e-07	1.532063e+00	-5.813347e-07	-1.821449e-07	-3.991898e-07
1.025         	1.081165e-07	1.532767e+00	-5.907927e-07	-1.872799e-07	-4.035128e-07
1.03          	1.077119e-07	1.533463e+00	-5.841799e-07	-1.843781e-07	-3.998019e-07
1.035         	1.073099e-07	1.534146e+00	-5.798590e-07	-1.826196e-07	-3.972394e-07
1.04          	1.069092e-07	1.534885e+00	-6.022844e-07	-1.942330e-07	-4.080514e-07
1.045         	1.065102e-07	1.535561e+00	-5.882683e-07	-1.876239e-07	-4.006444e-07
1.05          	1.061134e-07	1.536176e+00	-5.947950e-07	-1.912841e-07	-4.035109e-07
1.055         	1.057197e-07	1.536864e+00	-6.011409e-07	-1.948507e-07	-4.062902e-07
1.06          	1.053281e-07	1.537501e+00	-5.909387e-07	-1.901413e-07	-4.007974e-07
1.065         	1.049380e-07	1.538155e+00	-5.992208e-07	-1.946724e-07	-4.045484e-07
1.07          	1.045494e-07	1.538815e+00	-6.070667e-07	-1.989839e-07	-4.080828e-07
1.075         	1.041630e-07	1.539447e+00	-6.096874e-07	-2.006807e-07	-4.090068e-07
1.08          	1.037783e-07	1.540084e+00	-6.093800e-07	-2.009117e-07	-4.084682e-07
1.085         	1.033952e-07	1.540717e+00	-6.148222e-07	-2.040159e-07	-4.108063e-07
1.09          	1.030137e-07	1.541354e+00	-6.206908e-07	-2.073317e-07	-4.133591e-07
1.095         	1.026332e-07	1.541960e+00	-6.142478e-07	-2.044907e-07	-4.097571e-07
1.1           	1.022552e-07	1.542560e+00	-6.230560e-07	-2.092728e-07	-4.137832e-07
1.105         	1.018784e-07	1.543187e+00	-6.301673e-07	-2.132052e-07	-4.169620e-07
1.11          	1.015034e-07	1.543747e+00	-6.255963e-07	-2.112948e-07	-4.143015e-07
1.115         	1.011297e-07	1.544358e+00	-6.249053e-07	-2.113230e-07	-4.135823e-07
1.12          	1.007568e-07	1.544913e+00	-6.274296e-07	-2.129580e-07	-4.144717e-07
1.125         	1.108149e-07	1.545485e+00	-5.291588e-07	-1.537645e-07	-3.753943e-07
1.13          	1.201374e-07	1.546055e+00	-5.403381e-07	-1.500317e-07	-3.903065e-07
1.135         	1.287961e-07	1.546611e+00	-5.304005e-07	-1.364042e-07	-3.939963e-07
1.14          	1.368515e-07	1.547181e+00	-5.242692e-07	-1.252830e-07	-3.989861e-07
1.145         	1.443555e-07	1.547711e+00	-5.097427e-07	-1.105159e-07	-3.992268e-07
1.15          	1.513541e-07	1.548280e+00	-5.063350e-07	-1.018134e-07	-4.045216e-07
1.155         	1.578868e-07	1.548781e+00	-4.992835e-07	-9.175492e-08	-4.075286e-07
1.16          	1.639900e-07	1.549286e+00	-4.924315e-07	-8.222573e-08	-4.102058e-07
1.165         	1.696957e-07	1.549801e+00	-4.859499e-07	-7.327926e-08	-4.126706e-07
1.17          	1.750324e-07	1.550313e+00	-4.822238e-07	-6.607946e-08	-4.161443e-07
1.175         	1.800267e-07	1.550808e+00	-4.783483e-07	-5.914743e-08	-4.192009e-07
1.18          	1.847011e-07	1.551354e+00	-4.717507e-07	-5.117422e-08	-4.205765e-07
1.185         	1.890841e-07	1.551792e+00	-4.607908e-07	-4.131130e-08	-4.194794e-07
1.19          	1.931920e-07	1.552293e+00	-4.686670e-07	-4.114152e-08	-4.275255e-07
1.195         	1.970453e-07	1.552748e+00	-4.574969e-07	-3.170314e-08	-4.257938e-07
1.2           	2.006562e-07	1.553220e+00	-4.500530e-07	-2.437026e-08	-4.256828e-07
1.205         	2.040411e-07	1.553664e+00	-4.537252e-07	-2.282150e-08	-4.309037e-07
1.21          	2.072149e-07	1.554139e+00	-4.463899e-07	-1.597999e-08	-4.304099e-07
1.215         	2.101907e-07	1.554555e+00	-4.244994e-07	-2.058994e-09	-4.224404e-07
1.22          	2.129815e-07	1.555012e+00	-4.497383e-07	-1.188771e-08	-4.378506e-07
1.225         	2.155993e-07	1.555399e+00	-4.310311e-07	8.380897e-11	-4.311149e-07
1.23          	2.180538e-07	1.555856e+00	-4.353370e-07	3.853087e-10	-4.357223e-07
1.235         	2.203542e-07	1.556220e+00	-4.220704e-07	9.318995e-09	-4.313894e-07
1.24          	2.225116e-07	1.556626e+00	-4.326760e-07	6.173571e-09	-4.388496e-07
1.245         	2.245344e-07	1.557021e+00	-4.162168e-07	1.642606e-08	-4.326428e-07
1.25          	2.264303e-07	1.557440e+00	-4.134788e-07	1.969091e-08	-4.331697e-07
1.255         	2.282066e-07	1.557805e+00	-4.108130e-07	2.280009e-08	-4.336130e-07
1.26          	2.298698e-07	1.558182e+00	-4.124006e-07	2.366948e-08	-4.360701e-07
1.265         	2.314269e-07	1.558513e+00	-4.029474e-07	2.995322e-08	-4.329006e-07
1.27          	2.328840e-07	1.558879e+00	-4.126030e-07	2.658247e-08	-4.391855e-07
1.275         	2.342471e-07	1.559234e+00	-3.957986e-07	3.634780e-08	-4.321464e-07
1.28          	2.355210e-07	1.559570e+00	-4.062168e-07	3.241262e-08	-4.386294e-07
1.285         	2.367098e-07	1.559913e+00	-3.979939e-07	3.771292e-08	-4.357068e-07
1.29          	2.378184e-07	1.560239e+00	-3.943390e-07	4.064892e-08	-4.349880e-07
1.295         	2.388509e-07	1.560558e+00	-4.015950e-07	3.805335e-08	-4.396484e-07
1.3           	2.398108e-07	1.560875e+00	-3.774929e-07	5.106439e-08	-4.285573e-07
1.305         	2.407042e-07	1.561197e+00	-3.907730e-07	4.531773e-08	-4.360907e-07
1.31          	2.415300e-07	1.561522e+00	-3.779741e-07	5.254290e-08	-4.305170e-07
1.315         	2.422944e-07	1.561774e+00	-3.757291e-07	5.442985e-08	-4.301589e-07
1.32          	2.430006e-07	1.562029e+00	-3.756899e-07	5.515565e-08	-4.308456e-07
1.325         	2.436521e-07	1.562332e+00	-3.754834e-07	5.591041e-08	-4.313938e-07
1.33          	2.442512e-07	1.562566e+00	-3.677079e-07	6.039722e-08	-4.281052e-07
1.335         	2.448008e-07	1.562822e+00	-3.666872e-07	6.145716e-08	-4.281443e-07
1.34          	2.453032e-07	1.563076e+00	-3.761557e-07	5.722531e-08	-4.333810e-07
1.345         	2.457605e-07	1.563326e+00	-3.605142e-07	6.550340e-08	-4.260176e-07
1.35          	2.461747e-07	1.563609e+00	-3.428794e-07	7.473504e-08	-4.176145e-07
1.355         	2.465497e-07	1.563779e+00	-3.602277e-07	6.643584e-08	-4.266635e-07
1.36          	2.468878e-07	1.564010e+00	-3.638761e-07	6.494980e-08	-4.288259e-07
1.365         	2.471894e-07	1.564246e+00	-3.511397e-07	7.161953e-08	-4.227593e-07
1.37          	2.474550e-07	1.564424e+00	-3.513931e-07	7.175844e-08	-4.231516e-07
1.375         	2.476876e-07	1.564625e+00	-3.471549e-07	7.411011e-08	-4.212650e-07
1.38          	2.478876e-07	1.564846e+00	-3.477203e-07	7.402745e-08	-4.217478e-07
1.385         	2.480567e-07	1.565060e+00	-3.426599e-07	7.672672e-08	-4.193867e-07
1.39          	2.481962e-07	1.565174e+00	-3.379620e-07	7.921518e-08	-4.171772e-07
1.395         	2.483076e-07	1.565349e+00	-3.371312e-07	7.974201e-08	-4.168732e-07
1.4           	2.483918e-07	1.565519e+00	-3.401785e-07	7.830260e-08	-4.184811e-07
1.405         	2.484488e-07	1.565686e+00	-3.392944e-07	7.880157e-08	-4.180960e-07
1.41          	2.484875e-07	1.565846e+00	-3.270916e-07	8.494172e-08	-4.120333e-07
1.415         	2.485010e-07	1.565985e+00	-3.414985e-07	7.775174e-08	-4.192503e-07
1.42          	2.484930e-07	1.566122e+00	-3.208622e-07	8.806194e-08	-4.089241e-07
1.425         	2.484625e-07	1.566313e+00	-3.226214e-07	8.715179e-08	-4.097732e-07
1.43          	2.484100e-07	1.566409e+00	-3.195443e-07	8.863784e-08	-4.081821e-07
1.435         	2.483375e-07	1.566468e+00	-3.275036e-07	8.458571e-08	-4.120893e-07
1.44          	2.482458e-07	1.566578e+00	-3.149010e-07	9.079528e-08	-4.056963e-07
1.445         	2.481351e-07	1.566685e+00	-3.270153e-07	8.462748e-08	-4.116427e-07
1.45          	2.480085e-07	1.566786e+00	-3.073024e-07	9.435727e-08	-4.016597e-07
1.455         	2.478657e-07	1.566919e+00	-3.077513e-07	9.399003e-08	-4.017414e-07
1.46          	2.477062e-07	1.566955e+00	-3.041075e-07	9.565243e-08	-3.997599e-07
1.465         	2.475317e-07	1.567035e+00	-3.054912e-07	9.478609e-08	-4.002773e-07
1.47          	2.473422e-07	1.567107e+00	-2.984534e-07	9.811550e-08	-3.965689e-07
1.475         	2.471357e-07	1.567176e+00	-3.033781e-07	9.544662e-08	-3.988247e-07
1.48          	2.469170e-07	1.567240e+00	-2.969392e-07	9.844739e-08	-3.953866e-07
1.485         	2.466857e-07	1.567349e+00	-2.997004e-07	9.683547e-08	-3.965359e-07
1.49          	2.464414e-07	1.567331e+00	-2.944969e-07	9.919298e-08	-3.936899e-07
1.495         	2.461857e-07	1.567387e+00	-3.088603e-07	9.175552e-08	-4.006158e-07
1.5           	2.459179e-07	1.567386e+00	-2.902007e-07	1.008176e-07	-3.910183e-07
1.505         	2.456405e-07	1.567410e+00	-3.037536e-07	9.376364e-08	-3.975173e-07
1.51          	2.453514e-07	1.567437e+00	-2.827943e-07	1.039542e-07	-3.867485e-07
1.515         	2.450516e-07	1.567452e+00	-2.756718e-07	1.072157e-07	-3.828875e-07
1.52          	2.447407e-07	1.567468e+00	-2.846477e-07	1.024169e-07	-3.870646e-07
1.525         	2.444201e-07	1.567510e+00	-2.814376e-07	1.037013e-07	-3.851389e-07
1.53          	2.440898e-07	1.567440e+00	-2.761575e-07	1.060110e-07	-3.821685e-07
1.535         	2.437508e-07	1.567435e+00	-2.787995e-07	1.043511e-07	-3.831505e-07
1.54          	2.434027e-07	1.567428e+00	-2.755203e-07	1.056425e-07	-3.811628e-07
1.545         	2.430460e-07	1.567435e+00	-2.727247e-07	1.066836e-07	-3.794083e-07
1.55          	2.426805e-07	1.567363e+00	-2.691475e-07	1.081068e-07	-3.772543e-07
1.555         	2.423079e-07	1.567336e+00	-2.701865e-07	1.072146e-07	-3.774011e-07
1.56          	2.419271e-07	1.567301e+00	-2.674363e-07	1.082090e-07	-3.756453e-07
1.565         	2.415388e-07	1.567315e+00	-2.664858e-07	1.082959e-07	-3.747817e-07
1.57          	2.411432e-07	1.567231e+00	-2.603186e-07	1.109839e-07	-3.713025e-07
1.575         	2.407403e-07	1.567122e+00	-2.582831e-07	1.115988e-07	-3.698819e-07
1.58          	2.403311e-07	1.567064e+00	-2.717520e-07	1.044551e-07	-3.762071e-07
1.585         	2.399159e-07	1.567003e+00	-2.606580e-07	1.095870e-07	-3.702449e-07
1.59          	2.394965e-07	1.566932e+00	-2.578022e-07	1.105954e-07	-3.683976e-07
1.595         	2.390711e-07	1.566854e+00	-2.620277e-07	1.080572e-07	-3.700849e-07
1.6           	2.386399e-07	1.566779e+00	-2.513742e-07	1.129528e-07	-3.643270e-07
1.605         	2.382039e-07	1.566691e+00	-2.561611e-07	1.101234e-07	-3.662844e-07
1.61          	2.377615e-07	1.566601e+00	-2.462104e-07	1.146563e-07	-3.608667e-07
1.615         	2.373134e-07	1.566577e+00	-2.340497e-07	1.202886e-07	-3.543383e-07
1.62          	2.368589e-07	1.566402e+00	-2.516939e-07	1.110120e-07	-3.627058e-07
1.625         	2.364002e-07	1.566280e+00	-2.362022e-07	1.182991e-07	-3.545013e-07
1.63          	2.359368e-07	1.566166e+00	-2.541705e-07	1.088516e-07	-3.630220e-07
1.635         	2.354689e-07	1.566047e+00	-2.438140e-07	1.135619e-07	-3.573759e-07
1.64          	2.349964e-07	1.565921e+00	-2.445568e-07	1.127180e-07	-3.572748e-07
1.645         	2.345197e-07	1.565793e+00	-2.392282e-07	1.149056e-07	-3.541339e-07
1.65          	2.340391e-07	1.565661e+00	-2.415213e-07	1.132784e-07	-3.547997e-07
1.655         	2.335544e-07	1.565530e+00	-2.379022e-07	1.146033e-07	-3.525055e-07
1.66          	2.330658e-07	1.565385e+00	-2.398641e-07	1.131337e-07	-3.529978e-07
1.665         	2.325737e-07	1.565256e+00	-2.366097e-07	1.142688e-07	-3.508785e-07
1.67          	2.320779e-07	1.565084e+00	-2.335598e-07	1.152979e-07	-3.488578e-07
1.675         	2.315790e-07	1.564932e+00	-2.358350e-07	1.136615e-07	-3.494965e-07
1.68          	2.310767e-07	1.564790e+00	-2.321932e-07	1.149801e-07	-3.471732e-07
1.685         	2.305710e-07	1.564607e+00	-2.272808e-07	1.169306e-07	-3.442114e-07
1.69          	2.300622e-07	1.564400e+00	-2.289243e-07	1.156000e-07	-3.445243e-07
1.695         	2.295506e-07	1.564235e+00	-2.267910e-07	1.161551e-07	-3.429461e-07
1.7           	2.290360e-07	1.564046e+00	-2.240459e-07	1.170131e-07	-3.410590e-07
1.705         	2.285192e-07	1.563865e+00	-2.236042e-07	1.167170e-07	-3.403213e-07
1.71          	2.279995e-07	1.563680e+00	-2.230820e-07	1.164585e-07	-3.395405e-07
1.715         	2.274772e-07	1.563542e+00	-2.300954e-07	1.124295e-07	-3.425249e-07
1.72          	2.269520e-07	1.563272e+00	-2.159520e-07	1.189760e-07	-3.349280e-07
1.725         	2.264252e-07	1.563072e+00	-2.205137e-07	1.161683e-07	-3.366820e-07
1.73          	2.258955e-07	1.562868e+00	-2.176266e-07	1.170822e-07	-3.347088e-07
1.735         	2.253635e-07	1.562658e+00	-2.198677e-07	1.154296e-07	-3.352973e-07
1.74          	2.248291e-07	1.562445e+00	-2.122280e-07	1.187151e-07	-3.309432e-07
1.745         	2.242935e-07	1.562245e+00	-2.092980e-07	1.196445e-07	-3.289425e-07
1.75          	2.237552e-07	1.562030e+00	-2.212907e-07	1.131099e-07	-3.344006e-07
1.755         	2.232151e-07	1.561828e+00	-2.147977e-07	1.158163e-07	-3.306140e-07
1.76          	2.226737e-07	1.561578e+00	-2.135668e-07	1.158903e-07	-3.294571e-07
1.765         	2.221303e-07	1.561353e+00	-2.140708e-07	1.150949e-07	-3.291657e-07
1.77          	2.215853e-07	1.561083e+00	-2.156832e-07	1.137437e-07	-3.294269e-07
1.775         	2.210382e-07	1.560842e+00	-2.085469e-07	1.167648e-07	-3.253117e-07
1.78          	2.204893e-07	1.560598e+00	-2.014320e-07	1.197733e-07	-3.212053e-07
1.785         	2.199380e-07	1.560357e+00	-2.085878e-07	1.156441e-07	-3.242319e-07
1.79          	2.193851e-07	1.560111e+00	-2.170067e-07	1.108818e-07	-3.278885e-07
1.795         	2.188319e-07	1.559853e+00	-2.025938e-07	1.175350e-07	-3.201288e-07