/*--------------------------------*- C++ -*----------------------------------*\
  =========                 |
  \\      /  F ield         | OpenFOAM: The Open Source CFD Toolbox
   \\    /   O peration     | Website:  https://openfoam.org
    \\  /    A nd           | Version:  7
     \\/     M anipulation  |
\*---------------------------------------------------------------------------*/
FoamFile
{
    version     2.0;
    format      ascii;
    class       volScalarField;
    location    "70";
    object      p;
}
// * * * * * * * * * * * * * * * * * * * * * * * * * * * * * * * * * * * * * //

dimensions      [0 2 -2 0 0 0 0];

internalField   nonuniform List<scalar> 
31800
(
-0.247667
-0.249207
-0.250081
-0.250793
-0.251408
-0.251945
-0.252439
-0.252911
-0.253372
-0.253828
-0.254278
-0.254715
-0.255133
-0.255522
-0.255869
-0.256163
-0.25639
-0.256537
-0.256592
-0.256545
-0.25639
-0.256129
-0.255773
-0.25533
-0.254854
-0.247806
-0.249332
-0.2502
-0.250906
-0.251517
-0.252051
-0.252542
-0.253012
-0.253472
-0.253928
-0.254378
-0.254817
-0.255238
-0.25563
-0.255982
-0.256281
-0.256515
-0.25667
-0.256734
-0.256695
-0.256548
-0.256293
-0.255943
-0.2555
-0.25502
-0.248053
-0.249554
-0.250408
-0.251104
-0.251706
-0.252233
-0.252718
-0.253184
-0.253641
-0.254094
-0.254543
-0.254982
-0.255404
-0.255799
-0.256154
-0.256459
-0.256698
-0.25686
-0.25693
-0.256898
-0.256754
-0.256499
-0.256146
-0.255689
-0.255185
-0.248404
-0.249869
-0.250704
-0.251384
-0.251974
-0.25249
-0.252966
-0.253424
-0.253875
-0.254324
-0.25477
-0.255207
-0.255628
-0.256024
-0.256382
-0.256691
-0.256936
-0.257103
-0.257179
-0.257149
-0.257005
-0.256743
-0.256379
-0.255894
-0.255341
-0.248855
-0.250274
-0.251084
-0.251744
-0.252317
-0.252818
-0.253283
-0.25373
-0.254172
-0.254614
-0.255054
-0.255487
-0.255907
-0.256302
-0.256662
-0.256973
-0.257222
-0.257394
-0.257474
-0.257446
-0.257296
-0.257022
-0.256637
-0.256113
-0.255479
-0.249403
-0.250765
-0.251544
-0.25218
-0.252731
-0.253215
-0.253663
-0.254097
-0.254527
-0.254959
-0.25539
-0.255818
-0.256233
-0.256626
-0.256986
-0.257299
-0.257551
-0.257727
-0.257809
-0.25778
-0.257623
-0.257329
-0.256916
-0.256341
-0.255584
-0.25004
-0.251337
-0.252081
-0.252687
-0.253213
-0.253674
-0.254103
-0.254519
-0.254934
-0.255353
-0.255774
-0.256192
-0.256601
-0.25699
-0.257348
-0.257661
-0.257915
-0.258093
-0.258176
-0.258144
-0.257976
-0.257658
-0.257208
-0.256577
-0.255639
-0.250759
-0.251983
-0.252687
-0.25326
-0.253756
-0.254191
-0.254597
-0.254992
-0.255388
-0.25579
-0.256196
-0.256603
-0.257003
-0.257385
-0.257738
-0.25805
-0.258303
-0.258482
-0.258564
-0.258529
-0.258349
-0.258002
-0.257505
-0.256822
-0.255625
-0.251554
-0.252699
-0.253359
-0.253894
-0.254356
-0.254761
-0.255139
-0.255508
-0.255881
-0.256262
-0.256651
-0.257042
-0.257429
-0.257802
-0.258148
-0.258455
-0.258706
-0.258883
-0.258964
-0.258924
-0.25873
-0.258351
-0.257797
-0.25708
-0.255504
-0.252416
-0.253478
-0.254089
-0.254583
-0.255007
-0.255377
-0.255722
-0.256062
-0.256407
-0.256763
-0.257129
-0.257501
-0.257872
-0.258231
-0.258567
-0.258866
-0.259112
-0.259286
-0.259363
-0.259316
-0.259109
-0.258696
-0.258072
-0.257374
-0.255212
-0.253338
-0.254313
-0.254872
-0.255321
-0.255702
-0.256033
-0.256341
-0.256645
-0.256958
-0.257284
-0.257623
-0.257971
-0.25832
-0.258661
-0.258983
-0.259271
-0.259509
-0.259676
-0.259748
-0.259692
-0.25947
-0.259028
-0.258317
-0.257723
-0.254757
-0.254312
-0.255197
-0.255702
-0.256102
-0.256437
-0.256723
-0.256989
-0.257253
-0.257527
-0.257817
-0.258123
-0.258442
-0.258765
-0.259084
-0.259386
-0.259659
-0.259884
-0.260042
-0.260104
-0.260038
-0.259799
-0.259335
-0.25851
-0.257907
-0.254503
-0.255331
-0.256126
-0.256574
-0.256922
-0.257206
-0.257443
-0.25766
-0.257877
-0.258107
-0.258355
-0.258622
-0.258905
-0.259197
-0.259488
-0.259766
-0.260018
-0.260226
-0.260368
-0.260418
-0.260338
-0.260077
-0.259594
-0.25867
-0.258065
-0.254094
-0.256387
-0.257093
-0.257483
-0.257776
-0.258004
-0.258185
-0.258348
-0.258512
-0.258691
-0.25889
-0.259112
-0.259353
-0.259607
-0.259863
-0.260112
-0.260337
-0.260522
-0.260645
-0.260675
-0.260577
-0.260289
-0.259797
-0.258735
-0.25825
-0.253496
-0.257476
-0.258095
-0.258425
-0.258658
-0.258826
-0.258947
-0.259049
-0.259153
-0.259273
-0.259416
-0.259586
-0.259778
-0.259986
-0.260202
-0.260414
-0.260607
-0.260763
-0.260859
-0.260864
-0.260742
-0.260415
-0.259929
-0.258673
-0.258436
-0.252729
-0.258593
-0.259126
-0.259396
-0.259567
-0.25967
-0.259724
-0.259758
-0.259794
-0.259848
-0.259928
-0.260037
-0.260172
-0.260329
-0.260497
-0.260666
-0.260819
-0.260939
-0.261001
-0.260974
-0.260823
-0.260442
-0.259976
-0.25846
-0.258594
-0.251803
-0.259733
-0.260186
-0.260393
-0.260499
-0.260532
-0.260513
-0.260472
-0.260433
-0.260412
-0.26042
-0.260461
-0.260532
-0.260629
-0.260743
-0.260861
-0.260968
-0.261044
-0.261066
-0.260997
-0.260809
-0.260354
-0.25993
-0.258077
-0.25869
-0.250739
-0.260896
-0.261272
-0.261417
-0.261454
-0.261411
-0.261312
-0.261188
-0.261065
-0.260962
-0.26089
-0.260854
-0.260853
-0.260883
-0.260935
-0.260995
-0.261049
-0.261075
-0.261048
-0.260928
-0.260698
-0.260144
-0.259778
-0.257515
-0.258678
-0.249571
-0.262081
-0.262385
-0.262466
-0.26243
-0.262306
-0.262121
-0.261907
-0.261692
-0.261497
-0.261336
-0.261215
-0.261135
-0.26109
-0.261072
-0.261068
-0.261061
-0.261029
-0.260945
-0.260764
-0.260485
-0.259808
-0.259508
-0.256783
-0.258497
-0.248356
-0.26329
-0.263526
-0.263542
-0.26343
-0.263219
-0.26294
-0.262627
-0.262311
-0.262016
-0.261758
-0.261544
-0.261376
-0.261249
-0.261155
-0.26108
-0.261005
-0.260909
-0.26076
-0.260506
-0.260169
-0.259347
-0.259103
-0.255906
-0.258075
-0.247151
-0.264527
-0.264699
-0.264648
-0.264455
-0.264152
-0.26377
-0.263351
-0.262926
-0.262523
-0.262159
-0.261844
-0.26158
-0.261365
-0.261187
-0.261034
-0.260886
-0.260716
-0.260495
-0.260157
-0.259747
-0.258766
-0.258537
-0.254916
-0.257337
-0.245998
-0.265796
-0.265908
-0.265788
-0.26551
-0.265107
-0.264616
-0.264081
-0.263539
-0.263019
-0.262542
-0.262118
-0.261752
-0.261441
-0.261174
-0.260937
-0.260708
-0.260458
-0.260153
-0.259718
-0.259216
-0.25807
-0.257781
-0.25384
-0.256226
-0.244896
-0.267106
-0.26716
-0.266968
-0.266599
-0.266089
-0.265482
-0.264824
-0.264156
-0.263511
-0.262912
-0.262373
-0.261899
-0.261485
-0.261124
-0.260796
-0.260479
-0.260139
-0.259738
-0.259192
-0.258569
-0.257257
-0.256808
-0.252687
-0.254718
-0.243796
-0.268466
-0.268462
-0.268195
-0.267729
-0.267106
-0.266374
-0.265584
-0.264782
-0.264005
-0.263278
-0.262617
-0.262028
-0.261507
-0.261044
-0.26062
-0.260206
-0.259765
-0.259253
-0.258578
-0.257797
-0.256321
-0.255598
-0.251438
-0.252828
-0.242614
-0.269888
-0.269825
-0.269477
-0.268907
-0.268163
-0.267298
-0.266369
-0.265426
-0.26451
-0.263649
-0.26286
-0.262151
-0.261518
-0.260948
-0.260418
-0.259898
-0.259341
-0.258698
-0.25787
-0.256891
-0.255244
-0.254143
-0.250049
-0.250605
-0.241265
-0.271384
-0.271258
-0.270824
-0.270143
-0.26927
-0.268264
-0.267189
-0.266098
-0.265036
-0.264035
-0.263113
-0.262279
-0.261528
-0.260844
-0.260201
-0.25956
-0.25887
-0.258068
-0.257059
-0.255838
-0.253998
-0.252442
-0.248465
-0.248102
-0.23968
-0.272969
-0.272774
-0.272247
-0.271447
-0.270436
-0.269282
-0.268052
-0.266807
-0.265594
-0.264448
-0.263389
-0.262425
-0.261549
-0.260743
-0.259975
-0.259197
-0.258349
-0.257359
-0.256131
-0.254623
-0.252555
-0.250498
-0.246637
-0.245351
-0.237804
-0.274658
-0.274386
-0.273757
-0.272829
-0.271672
-0.270362
-0.268971
-0.267566
-0.266196
-0.264901
-0.2637
-0.262601
-0.261594
-0.260656
-0.259746
-0.258809
-0.257774
-0.256557
-0.255068
-0.253231
-0.25089
-0.248314
-0.24453
-0.242331
-0.235602
-0.276469
-0.276107
-0.275367
-0.274302
-0.27299
-0.271515
-0.269957
-0.268386
-0.266856
-0.265407
-0.26406
-0.26282
-0.261673
-0.260589
-0.259518
-0.258393
-0.257135
-0.255651
-0.253853
-0.251651
-0.248987
-0.245901
-0.242123
-0.238971
-0.233114
-0.278419
-0.277952
-0.27709
-0.275877
-0.274401
-0.272754
-0.271023
-0.269281
-0.267586
-0.26598
-0.264482
-0.263093
-0.261794
-0.260546
-0.259288
-0.257942
-0.256421
-0.254623
-0.252472
-0.249875
-0.246843
-0.243288
-0.239412
-0.235275
-0.23052
-0.280525
-0.279937
-0.27894
-0.277568
-0.275918
-0.274092
-0.272181
-0.270263
-0.2684
-0.266632
-0.264976
-0.263429
-0.261963
-0.260528
-0.259052
-0.257446
-0.255615
-0.25346
-0.250914
-0.247899
-0.244469
-0.240503
-0.236408
-0.231569
-0.227784
-0.282804
-0.282075
-0.28093
-0.279387
-0.277554
-0.27554
-0.273444
-0.271347
-0.269311
-0.267376
-0.265555
-0.263836
-0.262183
-0.260532
-0.2588
-0.256889
-0.254703
-0.252148
-0.249175
-0.245727
-0.241891
-0.237559
-0.233148
-0.228064
-0.223929
-0.285274
-0.284383
-0.283074
-0.281348
-0.279322
-0.277114
-0.274827
-0.272545
-0.270332
-0.268222
-0.266225
-0.264318
-0.262452
-0.26055
-0.25852
-0.256258
-0.25367
-0.250678
-0.247255
-0.243371
-0.239135
-0.234465
-0.229761
-0.224468
-0.219967
-0.287953
-0.286874
-0.285386
-0.283465
-0.281235
-0.278824
-0.276341
-0.27387
-0.271474
-0.269181
-0.266993
-0.264875
-0.262764
-0.260572
-0.258197
-0.255535
-0.252504
-0.249046
-0.24516
-0.240847
-0.23623
-0.231251
-0.226279
-0.220824
-0.216092
-0.290856
-0.289562
-0.28788
-0.28575
-0.283305
-0.280685
-0.277999
-0.275334
-0.272747
-0.27026
-0.267862
-0.265505
-0.263112
-0.260583
-0.257813
-0.254705
-0.251195
-0.247252
-0.242903
-0.238174
-0.2332
-0.227942
-0.222736
-0.217146
-0.212236
-0.293998
-0.292462
-0.290568
-0.288216
-0.285547
-0.28271
-0.279815
-0.276949
-0.274161
-0.271464
-0.268831
-0.266201
-0.263482
-0.260566
-0.257351
-0.253756
-0.24974
-0.245302
-0.240496
-0.235372
-0.230068
-0.224558
-0.219148
-0.213436
-0.208406
-0.297393
-0.295586
-0.293463
-0.290876
-0.287972
-0.28491
-0.2818
-0.278724
-0.275722
-0.272794
-0.269897
-0.266953
-0.263857
-0.260503
-0.256795
-0.252677
-0.248136
-0.243203
-0.237955
-0.232459
-0.226852
-0.221113
-0.215522
-0.209701
-0.204571
-0.301054
-0.298945
-0.296577
-0.293741
-0.290594
-0.287299
-0.283966
-0.280668
-0.277436
-0.27425
-0.271051
-0.267744
-0.264219
-0.260372
-0.256129
-0.251459
-0.246385
-0.240965
-0.235294
-0.229451
-0.223565
-0.217618
-0.211863
-0.205938
-0.200722
-0.304991
-0.302552
-0.299921
-0.296825
-0.293423
-0.289887
-0.286322
-0.282789
-0.279303
-0.275827
-0.272281
-0.268557
-0.264546
-0.260156
-0.255339
-0.250099
-0.24449
-0.238597
-0.232525
-0.226359
-0.220215
-0.214076
-0.208168
-0.202146
-0.196846
-0.309215
-0.306415
-0.303506
-0.300137
-0.296472
-0.292686
-0.288877
-0.285091
-0.281323
-0.277515
-0.273569
-0.26937
-0.264815
-0.259835
-0.254414
-0.248594
-0.242458
-0.236109
-0.229659
-0.223191
-0.216806
-0.210489
-0.204436
-0.198319
-0.192938
-0.313732
-0.310543
-0.30734
-0.303688
-0.29975
-0.295705
-0.291636
-0.287574
-0.283488
-0.279299
-0.274894
-0.270158
-0.265003
-0.259392
-0.253347
-0.246944
-0.240292
-0.233508
-0.226701
-0.219949
-0.213339
-0.206853
-0.200662
-0.194454
-0.188989
-0.318548
-0.314941
-0.311431
-0.307486
-0.303267
-0.29895
-0.294604
-0.290234
-0.285787
-0.28116
-0.276232
-0.270895
-0.265088
-0.258811
-0.252129
-0.245148
-0.237998
-0.230799
-0.223654
-0.216636
-0.209812
-0.203165
-0.19684
-0.190543
-0.184993
-0.323666
-0.319615
-0.315786
-0.311538
-0.307028
-0.302427
-0.297779
-0.293064
-0.288202
-0.283073
-0.277553
-0.271553
-0.265047
-0.25808
-0.250756
-0.243208
-0.235577
-0.227983
-0.22052
-0.213249
-0.206221
-0.19942
-0.192963
-0.18658
-0.180946
-0.329086
-0.324566
-0.320407
-0.315849
-0.311038
-0.306134
-0.301155
-0.29605
-0.290712
-0.285009
-0.278826
-0.272104
-0.26486
-0.257187
-0.249223
-0.241124
-0.233032
-0.225062
-0.217296
-0.209783
-0.202561
-0.19561
-0.189026
-0.18256
-0.176842
-0.334804
-0.329793
-0.325295
-0.320421
-0.315297
-0.310068
-0.304721
-0.29917
-0.293287
-0.286935
-0.280019
-0.272521
-0.264509
-0.256122
-0.247527
-0.238893
-0.230359
-0.222032
-0.213977
-0.206233
-0.198823
-0.191729
-0.185021
-0.178477
-0.172674
-0.340812
-0.335291
-0.330449
-0.32525
-0.3198
-0.314219
-0.308458
-0.302399
-0.295894
-0.288814
-0.281097
-0.272777
-0.263977
-0.254875
-0.245663
-0.236512
-0.227557
-0.218888
-0.210558
-0.202592
-0.195002
-0.187769
-0.180941
-0.174323
-0.168438
-0.347098
-0.341052
-0.33586
-0.330331
-0.324537
-0.318571
-0.312342
-0.305701
-0.298492
-0.290606
-0.282027
-0.272848
-0.263247
-0.253437
-0.243624
-0.233978
-0.22462
-0.215624
-0.20703
-0.198851
-0.191089
-0.183722
-0.17678
-0.170092
-0.164128
-0.353645
-0.347062
-0.341517
-0.335651
-0.329492
-0.3231
-0.31634
-0.309038
-0.301039
-0.292269
-0.282774
-0.272711
-0.262305
-0.251799
-0.241405
-0.231284
-0.221539
-0.212232
-0.203385
-0.195003
-0.187075
-0.17958
-0.172531
-0.16578
-0.159738
-0.36043
-0.353301
-0.347404
-0.341191
-0.334641
-0.327774
-0.320412
-0.312361
-0.303486
-0.293763
-0.283308
-0.272342
-0.261137
-0.249952
-0.238998
-0.228421
-0.218308
-0.208702
-0.199614
-0.191037
-0.182952
-0.175337
-0.168186
-0.161379
-0.155265
-0.367423
-0.359747
-0.353497
-0.346927
-0.339955
-0.332555
-0.324511
-0.315621
-0.305785
-0.295046
-0.283597
-0.271721
-0.259727
-0.247884
-0.236392
-0.22538
-0.214916
-0.205025
-0.195707
-0.186945
-0.178712
-0.170984
-0.16374
-0.156883
-0.150701
-0.37459
-0.366367
-0.359767
-0.352826
-0.345393
-0.337396
-0.328583
-0.318762
-0.307885
-0.296077
-0.28361
-0.270828
-0.258063
-0.245584
-0.233578
-0.22215
-0.211352
-0.201191
-0.191655
-0.182717
-0.174347
-0.166513
-0.159185
-0.152287
-0.146044
-0.381888
-0.373125
-0.366176
-0.358847
-0.35091
-0.342242
-0.332569
-0.321725
-0.309735
-0.296816
-0.283321
-0.269642
-0.256128
-0.24304
-0.230542
-0.218721
-0.207604
-0.197188
-0.187446
-0.178345
-0.169847
-0.161919
-0.154517
-0.147586
-0.141288
-0.389268
-0.379976
-0.37268
-0.364944
-0.35645
-0.347031
-0.336403
-0.32445
-0.311285
-0.297226
-0.282702
-0.268145
-0.253909
-0.240238
-0.227274
-0.215079
-0.203662
-0.193005
-0.183071
-0.173819
-0.165206
-0.157193
-0.149728
-0.142774
-0.136429
-0.396672
-0.386869
-0.379228
-0.371058
-0.361949
-0.351694
-0.340018
-0.326875
-0.312485
-0.297269
-0.281726
-0.266316
-0.251387
-0.237163
-0.223758
-0.211211
-0.199513
-0.188631
-0.17852
-0.169131
-0.160416
-0.152329
-0.144814
-0.137846
-0.131463
-0.404037
-0.393744
-0.38576
-0.377126
-0.367337
-0.356158
-0.343343
-0.328939
-0.313287
-0.29691
-0.280369
-0.264136
-0.248549
-0.233801
-0.219982
-0.207105
-0.195145
-0.184056
-0.173784
-0.164273
-0.155469
-0.147321
-0.139769
-0.132798
-0.126386
-0.411294
-0.400538
-0.39221
-0.383077
-0.372538
-0.360345
-0.346305
-0.330582
-0.313646
-0.296118
-0.278605
-0.261587
-0.245376
-0.230137
-0.21593
-0.202747
-0.190545
-0.179268
-0.168852
-0.159235
-0.150358
-0.142164
-0.134588
-0.127624
-0.121195
-0.418364
-0.407176
-0.398502
-0.38883
-0.377469
-0.364174
-0.348834
-0.331747
-0.313518
-0.294859
-0.276412
-0.258648
-0.241851
-0.226155
-0.211588
-0.198124
-0.185704
-0.174258
-0.163717
-0.154012
-0.145077
-0.136851
-0.129267
-0.122322
-0.115887
-0.425167
-0.413581
-0.404556
-0.394303
-0.382045
-0.367563
-0.350857
-0.332377
-0.312862
-0.293105
-0.273766
-0.2553
-0.237958
-0.221838
-0.206944
-0.193224
-0.180608
-0.169017
-0.158371
-0.148595
-0.139619
-0.131378
-0.123802
-0.116887
-0.110461
-0.431613
-0.419668
-0.410287
-0.399405
-0.386175
-0.37043
-0.352307
-0.33242
-0.311641
-0.290826
-0.270645
-0.251525
-0.23368
-0.217173
-0.201981
-0.188035
-0.175249
-0.163534
-0.152804
-0.142978
-0.133981
-0.12574
-0.118188
-0.111317
-0.104913
-0.437612
-0.425349
-0.415603
-0.404044
-0.389769
-0.372695
-0.353118
-0.331827
-0.309817
-0.287995
-0.267026
-0.247303
-0.229
-0.212145
-0.196689
-0.182545
-0.169616
-0.157802
-0.147011
-0.137155
-0.128156
-0.119934
-0.112424
-0.105609
-0.0992444
-0.443069
-0.430532
-0.42041
-0.408124
-0.392737
-0.374278
-0.353228
-0.330552
-0.307357
-0.284588
-0.26289
-0.242617
-0.223902
-0.206739
-0.191054
-0.176744
-0.163699
-0.151813
-0.140984
-0.131122
-0.12214
-0.113956
-0.106505
-0.0997597
-0.0934531
-0.447886
-0.43512
-0.424612
-0.411548
-0.394989
-0.375105
-0.352578
-0.328552
-0.304231
-0.28058
-0.258217
-0.237451
-0.218371
-0.200941
-0.185064
-0.170622
-0.157492
-0.14556
-0.13472
-0.124872
-0.11593
-0.107804
-0.10043
-0.0937696
-0.0875401
-0.451966
-0.439017
-0.428109
-0.414222
-0.39644
-0.375104
-0.351115
-0.325789
-0.30041
-0.27595
-0.252988
-0.231787
-0.212394
-0.194741
-0.178711
-0.164169
-0.150986
-0.139038
-0.128211
-0.118404
-0.109522
-0.101474
-0.0941964
-0.0876382
-0.0815086
-0.455211
-0.442126
-0.430805
-0.416052
-0.397007
-0.374211
-0.348793
-0.322228
-0.29587
-0.270677
-0.247188
-0.225612
-0.205957
-0.188127
-0.171983
-0.15738
-0.144176
-0.132241
-0.121456
-0.111714
-0.102915
-0.0949642
-0.0878009
-0.0813636
-0.0753623
-0.457525
-0.444351
-0.432605
-0.416948
-0.396612
-0.372365
-0.345566
-0.31784
-0.290588
-0.264745
-0.2408
-0.218913
-0.19905
-0.18109
-0.164875
-0.150247
-0.137057
-0.125167
-0.114452
-0.104799
-0.0961062
-0.0882731
-0.0812407
-0.0749413
-0.0690916
-0.458814
-0.445598
-0.433415
-0.416825
-0.395187
-0.369514
-0.341398
-0.312598
-0.284544
-0.258138
-0.233813
-0.211677
-0.191663
-0.173621
-0.157379
-0.142766
-0.129625
-0.117811
-0.107195
-0.0976598
-0.0890965
-0.0814014
-0.0745194
-0.0683694
-0.0626575
-0.458989
-0.445778
-0.433148
-0.415603
-0.392665
-0.36561
-0.336257
-0.30648
-0.277722
-0.250842
-0.226213
-0.203897
-0.183788
-0.165715
-0.14949
-0.134933
-0.121878
-0.110174
-0.099687
-0.0902954
-0.0818857
-0.0743522
-0.0676479
-0.0616632
-0.0560111
-0.457966
-0.444806
-0.431721
-0.413211
-0.388991
-0.360614
-0.330116
-0.299469
-0.27011
-0.242847
-0.217994
-0.195565
-0.17542
-0.157367
-0.141206
-0.126746
-0.113814
-0.102254
-0.091927
-0.0827066
-0.074475
-0.0671279
-0.0606305
-0.0548394
-0.0491967
-0.455668
-0.442602
-0.42906
-0.409584
-0.384116
-0.354493
-0.322955
-0.29155
-0.261697
-0.234145
-0.209149
-0.186675
-0.166554
-0.148575
-0.132525
-0.118205
-0.105435
-0.0940531
-0.0839165
-0.0748959
-0.0668674
-0.0597314
-0.0534539
-0.0478031
-0.0423993
-0.452023
-0.439094
-0.425097
-0.404667
-0.378001
-0.347222
-0.314759
-0.282715
-0.252478
-0.224733
-0.199674
-0.177225
-0.157189
-0.139338
-0.123447
-0.10931
-0.0967405
-0.085573
-0.0756582
-0.0668668
-0.0590676
-0.0521665
-0.0461188
-0.0406406
-0.0355144
-0.446969
-0.434219
-0.419774
-0.398412
-0.370614
-0.338783
-0.305518
-0.272959
-0.242449
-0.214607
-0.189568
-0.167215
-0.147326
-0.129658
-0.113975
-0.100065
-0.0877351
-0.0768184
-0.0671582
-0.0586219
-0.0510787
-0.0444352
-0.0386355
-0.033363
-0.0285205
-0.440453
-0.427923
-0.413041
-0.390784
-0.361933
-0.329166
-0.29523
-0.262282
-0.231613
-0.20377
-0.178833
-0.156647
-0.136968
-0.119537
-0.104113
-0.0904743
-0.0784255
-0.0677927
-0.0584195
-0.0501676
-0.0429059
-0.0365428
-0.0310123
-0.0259704
-0.0214173
-0.432431
-0.42016
-0.404861
-0.381755
-0.351944
-0.318365
-0.283895
-0.250688
-0.219973
-0.192227
-0.167474
-0.145525
-0.126119
-0.108982
-0.0938675
-0.0805443
-0.0688156
-0.058503
-0.0494485
-0.0415099
-0.0345554
-0.0284957
-0.0232557
-0.0184632
-0.0142114
-0.42287
-0.410894
-0.395203
-0.371309
-0.340642
-0.306386
-0.271521
-0.238186
-0.207539
-0.179985
-0.155497
-0.133859
-0.114789
-0.0980026
-0.0832444
-0.0702822
-0.0589134
-0.0489569
-0.0402529
-0.0326563
-0.0260344
-0.0203013
-0.0153719
-0.0108449
-0.00691016
-0.411745
-0.400102
-0.38405
-0.359439
-0.32803
-0.293238
-0.258122
-0.224789
-0.194321
-0.167052
-0.142916
-0.121662
-0.102988
-0.0866065
-0.0722547
-0.0596976
-0.0487282
-0.0391635
-0.0308414
-0.023615
-0.017351
-0.0119672
-0.00736753
-0.00312161
0.000478901
-0.399044
-0.387769
-0.371396
-0.346146
-0.314121
-0.278939
-0.243716
-0.210514
-0.180334
-0.153443
-0.129753
-0.108943
-0.0907273
-0.0748061
-0.0609101
-0.0488016
-0.038271
-0.0291329
-0.021224
-0.0143955
-0.00851433
-0.00350225
0.000749625
0.00469919
0.0079479
-0.384767
-0.373893
-0.357243
-0.331446
-0.298935
-0.263511
-0.228327
-0.195383
-0.1656
-0.139195
-0.116004
-0.0957172
-0.0780224
-0.0626156
-0.0492239
-0.0376073
-0.0275537
-0.0188767
-0.0114117
-0.00500831
0.000465485
0.00508421
0.0089708
0.0126087
0.0154884
-0.368921
-0.358481
-0.341605
-0.315358
-0.282499
-0.246985
-0.211983
-0.179422
-0.150149
-0.124309
-0.101701
-0.0820046
-0.0648907
-0.0500514
-0.0372116
-0.0261289
-0.0165902
-0.00840789
-0.00141655
0.00453496
0.00957742
0.0137818
0.0172862
0.0205972
0.0230913
-0.351528
-0.341553
-0.324507
-0.297913
-0.264849
-0.229399
-0.194718
-0.162664
-0.134002
-0.108814
-0.0868676
-0.0678265
-0.0513519
-0.0371321
-0.0248902
-0.0143826
-0.00539529
0.0022596
0.00874806
0.0142218
0.0188095
0.0225791
0.0256852
0.0286538
0.0307466
-0.332616
-0.323137
-0.305983
-0.279152
-0.246028
-0.210792
-0.176569
-0.145142
-0.11719
-0.0927401
-0.0715287
-0.0532067
-0.0374279
-0.0238779
-0.0122786
-0.00238585
0.00601456
0.0131105
0.0190679
0.0240386
0.0281489
0.0314642
0.0341563
0.0367667
0.038443
-0.312228
-0.303272
-0.286075
-0.259127
-0.226096
-0.191197
-0.157577
-0.126893
-0.0997478
-0.0761179
-0.0557127
-0.0381714
-0.023143
-0.0103112
0.000602517
0.00984225
0.0176218
0.0241284
0.0295277
0.0339711
0.0375817
0.0404239
0.0426869
0.0449229
0.0461682
-0.290413
-0.282005
-0.264839
-0.237904
-0.205111
-0.170656
-0.137787
-0.10796
-0.0817138
-0.058982
-0.0394507
-0.0227493
-0.00852345
0.0035439
0.013731
0.0222813
0.0294075
0.0352959
0.0401113
0.044004
0.0470936
0.0494444
0.0512634
0.0531071
0.0539077
-0.267227
-0.259397
-0.242339
-0.215537
-0.183053
-0.149295
-0.117259
-0.0883879
-0.0631291
-0.0413698
-0.0227765
-0.00697118
0.00640252
0.0176616
0.0270833
0.0349096
0.0413519
0.0465947
0.0508018
0.0541215
0.0566695
0.0585114
0.0598709
0.061301
0.0616404
-0.242735
-0.235521
-0.21866
-0.192035
-0.160079
-0.12712
-0.0960438
-0.0682276
-0.044038
-0.023321
-0.00572631
0.00912988
0.0216047
0.0320142
0.040634
0.0477041
0.0534337
0.0580055
0.0615815
0.0643072
0.0662939
0.0676101
0.0684949
0.0694855
0.0693394
-0.217009
-0.210458
-0.193886
-0.167473
-0.13624
-0.104202
-0.0742015
-0.0475313
-0.0244874
-0.00487813
0.0116614
0.0255189
0.0370513
0.0465728
0.0543567
0.0606406
0.0656311
0.0695083
0.0724322
0.0745444
0.0759508
0.0767258
0.0771228
0.0776464
0.0769878
-0.190123
-0.184283
-0.167938
-0.142102
-0.111617
-0.0806114
-0.0517928
-0.0263543
-0.00452699
0.013914
0.0293459
0.0421589
0.0527086
0.0613067
0.0682236
0.0736939
0.077921
0.0810823
0.083335
0.0848152
0.0856228
0.0858431
0.085745
0.0857758
0.0845801
-0.162147
-0.157108
-0.141071
-0.115885
-0.0862843
-0.056423
-0.0288823
-0.0047543
0.0157912
0.0330084
0.0472847
0.0590113
0.0685416
0.076184
0.0822057
0.0868376
0.0902796
0.0927061
0.0942706
0.0951016
0.0952929
0.0949495
0.0943521
0.09384
0.0920173
-0.133182
-0.129034
-0.113385
-0.0889125
-0.0603249
-0.0317125
-0.00553719
0.0172085
0.0364129
0.0523562
0.0654335
0.0760359
0.0845137
0.0911717
0.0962729
0.100044
0.102682
0.104358
0.105219
0.105386
0.104948
0.104042
0.102931
0.101724
0.0989887
-0.103488
-0.100051
-0.0849501
-0.0612857
-0.0338233
-0.00655759
0.0181728
0.0394719
0.0572821
0.0719067
0.0837464
0.0931911
0.100587
0.106235
0.110394
0.113286
0.115104
0.116015
0.116161
0.115652
0.114583
0.113127
0.111465
0.109291
0.105273
-0.0730658
-0.0703265
-0.0558623
-0.0331035
-0.0068687
0.0189618
0.042176
0.0619713
0.0783409
0.0916075
0.102176
0.110434
0.116723
0.12134
0.124538
0.126535
0.127519
0.127653
0.127074
0.125883
0.124191
0.1222
0.119926
0.116606
0.111565
-0.042
-0.0399966
-0.026228
-0.00446679
0.0204474
0.0447636
0.0663989
0.0846411
0.0995299
0.111405
0.120674
0.12772
0.132882
0.136449
0.13867
0.139759
0.139899
0.139249
0.137937
0.136063
0.133756
0.131222
0.128256
0.123861
0.119953
-0.0104135
-0.00917541
0.00384303
0.0245216
0.0480315
0.0707639
0.0907665
0.107414
0.120789
0.131245
0.13919
0.145006
0.149023
0.151526
0.152759
0.15293
0.152218
0.150776
0.148728
0.146171
0.143249
0.140134
0.13647
0.131482
0.128291
0.0215699
0.0220222
0.034238
0.0537568
0.0757887
0.096878
0.115203
0.130222
0.142055
0.151071
0.157675
0.162244
0.165104
0.166533
0.16677
0.166017
0.164448
0.162211
0.159424
0.156187
0.152647
0.148932
0.144633
0.139259
0.136172
0.0538272
0.0534786
0.0648425
0.083133
0.103623
0.12302
0.139631
0.152995
0.163268
0.170827
0.176078
0.17939
0.181085
0.181434
0.180669
0.178988
0.176559
0.173526
0.170002
0.166087
0.161925
0.157609
0.152737
0.147034
0.143776
0.0862339
0.0850739
0.0955412
0.112544
0.131439
0.149103
0.163974
0.175664
0.184364
0.190456
0.194346
0.196397
0.196922
0.196188
0.194421
0.191812
0.188525
0.184697
0.180438
0.175848
0.171064
0.166153
0.160744
0.154697
0.151126
0.118665
0.116687
0.126218
0.141882
0.159139
0.175042
0.188154
0.19816
0.20528
0.209903
0.212429
0.213218
0.212574
0.210759
0.207991
0.204457
0.200315
0.195697
0.190708
0.185448
0.180043
0.174549
0.168623
0.162208
0.15825
0.150996
0.148197
0.156758
0.171041
0.186628
0.200749
0.212093
0.220413
0.225953
0.229108
0.230276
0.229806
0.227999
0.225108
0.221346
0.216893
0.211902
0.2065
0.200789
0.194863
0.188844
0.182776
0.176343
0.169544
0.165157
0.1831
0.179481
0.187045
0.199916
0.21381
0.22614
0.235715
0.242353
0.246321
0.248017
0.247835
0.246116
0.243155
0.239197
0.23445
0.229088
0.223257
0.21708
0.210655
0.204072
0.197447
0.190814
0.183883
0.176688
0.171847
0.214855
0.210419
0.216966
0.228401
0.240591
0.251129
0.258944
0.263912
0.266321
0.266574
0.265055
0.262101
0.258
0.252989
0.247269
0.24101
0.234352
0.227412
0.220284
0.213055
0.205832
0.198645
0.191222
0.183628
0.178318
0.246137
0.240892
0.246407
0.256394
0.266878
0.275634
0.281704
0.285022
0.285894
0.284722
0.281886
0.277717
0.272492
0.266445
0.25977
0.25263
0.245159
0.23747
0.229652
0.221789
0.213981
0.206251
0.198345
0.190352
0.184565
0.276825
0.270782
0.275258
0.283793
0.292579
0.299572
0.303922
0.305616
0.304977
0.302407
0.298279
0.292917
0.286593
0.279531
0.27192
0.263917
0.255652
0.24723
0.238738
0.230255
0.221874
0.213613
0.205237
0.196849
0.190581
0.306801
0.299974
0.30341
0.310499
0.317605
0.322862
0.325526
0.32563
0.323513
0.319576
0.314186
0.30766
0.300261
0.292209
0.283686
0.274842
0.265802
0.256668
0.24752
0.238432
0.229494
0.220717
0.211882
0.203107
0.196358
0.335948
0.328356
0.330758
0.336416
0.34187
0.345428
0.346445
0.345
0.341445
0.336177
0.32956
0.321902
0.31346
0.304446
0.295037
0.285377
0.275586
0.26576
0.255975
0.246303
0.236823
0.227546
0.218268
0.209115
0.20189
0.364155
0.355817
0.357199
0.361451
0.36529
0.367193
0.366611
0.363664
0.358715
0.35216
0.344355
0.335601
0.32615
0.316207
0.305942
0.295494
0.284977
0.274483
0.264084
0.253847
0.243845
0.234084
0.22438
0.214861
0.207167
0.391312
0.382254
0.382636
0.385513
0.387783
0.388084
0.385958
0.381563
0.375271
0.367475
0.358527
0.348719
0.338297
0.327459
0.316371
0.305165
0.293951
0.282815
0.271827
0.261047
0.250544
0.240319
0.230207
0.220334
0.212181
0.417315
0.407563
0.406973
0.408518
0.409272
0.408033
0.404424
0.39864
0.391061
0.382077
0.372033
0.361216
0.349865
0.338172
0.326296
0.314366
0.302485
0.290736
0.279184
0.267886
0.256903
0.246236
0.235735
0.225524
0.216925
0.442065
0.43165
0.430119
0.430381
0.429683
0.42697
0.421948
0.41484
0.406035
0.39592
0.384834
0.373057
0.360821
0.348314
0.33569
0.323071
0.310557
0.298226
0.286138
0.274348
0.262909
0.251822
0.240953
0.230419
0.22139
0.465465
0.454421
0.45199
0.451026
0.448945
0.444834
0.438472
0.430111
0.420147
0.408962
0.39689
0.384205
0.371134
0.357859
0.344527
0.331258
0.318146
0.305265
0.292672
0.280416
0.268548
0.257064
0.245849
0.235011
0.225569
0.487427
0.47579
0.472503
0.470378
0.466992
0.461565
0.453942
0.444405
0.433352
0.421163
0.408165
0.394629
0.380774
0.366778
0.352783
0.338904
0.325231
0.311835
0.298768
0.286077
0.273806
0.261951
0.250413
0.239288
0.229456
0.507867
0.495676
0.491584
0.488369
0.483762
0.477106
0.468309
0.457676
0.445608
0.432484
0.418626
0.404297
0.389713
0.375046
0.360434
0.345988
0.331794
0.317919
0.304413
0.291317
0.278671
0.266472
0.254635
0.243244
0.233042
0.526706
0.514002
0.509161
0.504934
0.499197
0.491406
0.481525
0.46988
0.456878
0.442892
0.42824
0.413181
0.397925
0.38264
0.36746
0.352492
0.337819
0.323502
0.309591
0.296123
0.283132
0.270617
0.258504
0.246867
0.236323
0.543872
0.530701
0.525171
0.520016
0.513244
0.504416
0.493546
0.48098
0.467125
0.452354
0.436979
0.421255
0.405387
0.389539
0.373842
0.358398
0.343288
0.32857
0.31429
0.300482
0.287178
0.274375
0.262013
0.250152
0.239293
0.559301
0.545707
0.539554
0.53356
0.525855
0.516093
0.504334
0.490938
0.476318
0.460841
0.444816
0.428494
0.412075
0.395722
0.379561
0.36369
0.348187
0.333109
0.318498
0.304386
0.2908
0.277738
0.265153
0.253091
0.241946
0.572933
0.558966
0.552258
0.545519
0.536987
0.526398
0.513853
0.499724
0.484427
0.468326
0.451727
0.434876
0.417972
0.401173
0.384601
0.368353
0.352503
0.337107
0.322204
0.307823
0.293988
0.280699
0.267918
0.255677
0.244278
0.584716
0.570426
0.563236
0.55585
0.546602
0.535298
0.522071
0.507309
0.491427
0.474787
0.457691
0.440384
0.42306
0.405874
0.388948
0.372374
0.356226
0.340554
0.325399
0.310786
0.296736
0.28325
0.2703
0.257905
0.246285
0.594607
0.580044
0.572448
0.564517
0.554666
0.542761
0.528963
0.513669
0.497295
0.480202
0.46269
0.445
0.427324
0.409814
0.39259
0.375744
0.359344
0.343442
0.328074
0.313267
0.299037
0.285386
0.272294
0.25977
0.247963
0.602566
0.587785
0.57986
0.57149
0.561153
0.548763
0.534505
0.518783
0.502013
0.484557
0.466709
0.448711
0.430751
0.412981
0.395518
0.378451
0.361849
0.345762
0.330224
0.31526
0.300885
0.287102
0.273895
0.261267
0.249309
0.608565
0.593618
0.585445
0.576743
0.56604
0.553285
0.53868
0.522635
0.505567
0.487836
0.469736
0.451505
0.433332
0.415366
0.397722
0.380489
0.363735
0.347508
0.331842
0.31676
0.302276
0.288393
0.275101
0.262394
0.250322
0.612581
0.597523
0.589183
0.580259
0.56931
0.55631
0.541473
0.525212
0.507945
0.49003
0.471761
0.453375
0.435059
0.416961
0.399196
0.381853
0.364997
0.348677
0.332925
0.317764
0.303207
0.289257
0.275908
0.263148
0.251
0.614598
0.599484
0.591061
0.582024
0.570952
0.55783
0.542876
0.526506
0.509139
0.491132
0.472778
0.454314
0.435926
0.417762
0.399937
0.382538
0.365632
0.349264
0.333469
0.318269
0.303675
0.289691
0.276313
0.263528
0.251341
0.614608
0.599494
0.59107
0.582034
0.570961
0.557838
0.542884
0.526514
0.509146
0.491139
0.472784
0.45432
0.435932
0.417768
0.399943
0.382544
0.365636