/*--------------------------------*- C++ -*----------------------------------*\
  =========                 |
  \\      /  F ield         | OpenFOAM: The Open Source CFD Toolbox
   \\    /   O peration     | Website:  https://openfoam.org
    \\  /    A nd           | Version:  7
     \\/     M anipulation  |
\*---------------------------------------------------------------------------*/
FoamFile
{
    version     2.0;
    format      ascii;
    class       volVectorField;
    location    "70";
    object      U;
}
// * * * * * * * * * * * * * * * * * * * * * * * * * * * * * * * * * * * * * //

dimensions      [0 1 -1 0 0 0 0];

internalField   nonuniform List<vector> 
31800
(
(-0.000524431 0.000767452 -9.01974e-21)
(-0.00323931 0.00192666 6.22962e-21)
(-0.00866324 0.00279393 -2.029e-21)
(-0.0156767 0.00342298 9.01098e-21)
(-0.0238451 0.00385548 1.00636e-20)
(-0.03281 0.00412949 -3.29658e-21)
(-0.0422563 0.00427914 -2.38209e-21)
(-0.0519384 0.0043339 1.68418e-20)
(-0.0616659 0.00431832 -1.91744e-21)
(-0.0712943 0.00425176 2.75373e-21)
(-0.0807159 0.00414844 9.44088e-21)
(-0.0898519 0.0040178 9.2405e-21)
(-0.0986445 0.00386502 -5.83137e-21)
(-0.10705 0.0036918 -7.24324e-21)
(-0.115032 0.00349717 -2.4734e-22)
(-0.12256 0.00327839 -9.23184e-21)
(-0.129603 0.0030318 7.16591e-21)
(-0.136132 0.00275379 1.20676e-20)
(-0.142124 0.00244184 -4.50774e-21)
(-0.147564 0.00209577 2.04038e-20)
(-0.152458 0.00171884 1.29054e-21)
(-0.156851 0.00131875 -1.64251e-21)
(-0.160841 0.00090641 3.58169e-21)
(-0.164556 0.000490391 7.28136e-21)
(-0.168234 8.71003e-05 4.52186e-21)
(-0.00057994 0.00179219 9.28665e-21)
(-0.00336324 0.00450175 5.08441e-21)
(-0.00881217 0.00652636 -5.47527e-21)
(-0.0158215 0.0079986 -2.07978e-20)
(-0.0239631 0.00901505 1.53549e-20)
(-0.0328831 0.00966235 -7.51255e-21)
(-0.0422702 0.0100174 4.14462e-22)
(-0.0518812 0.0101465 -1.29164e-20)
(-0.0615279 0.0101049 2.69278e-21)
(-0.0710666 0.00993757 1.82857e-21)
(-0.0803905 0.00967875 -3.96461e-20)
(-0.0894211 0.00935297 -6.68568e-22)
(-0.0981007 0.00897601 4.4325e-20)
(-0.106385 0.00855634 -2.22743e-20)
(-0.114239 0.00809672 -4.2166e-21)
(-0.12163 0.00759607 9.16315e-21)
(-0.128528 0.00705162 -1.92352e-20)
(-0.134902 0.00646131 -9.59237e-22)
(-0.140727 0.00582682 1.89566e-20)
(-0.145985 0.00515699 -6.94349e-20)
(-0.150679 0.00447141 -2.15038e-20)
(-0.154846 0.00380354 3.24823e-20)
(-0.158581 0.00319752 1.60026e-20)
(-0.162001 0.0026922 2.84155e-21)
(-0.165333 0.00235641 -6.42769e-21)
(-0.000684066 0.0028 -1.92554e-20)
(-0.00359625 0.00703761 -5.26181e-22)
(-0.00909286 0.010206 -2.61718e-20)
(-0.016095 0.0125135 3.90409e-20)
(-0.0241861 0.01411 -4.42032e-20)
(-0.033021 0.0151294 -4.13372e-21)
(-0.0422948 0.0156905 -4.01115e-21)
(-0.0517694 0.0158953 7.33408e-21)
(-0.0612596 0.01583 2.42665e-20)
(-0.070624 0.0155644 -4.11951e-21)
(-0.0797569 0.0151528 -7.27366e-21)
(-0.0885805 0.0146348 2.61821e-20)
(-0.0970371 0.0140369 -4.60374e-21)
(-0.105083 0.0133743 2.54238e-20)
(-0.112681 0.0126536 -5.14474e-20)
(-0.119798 0.0118752 -2.10223e-20)
(-0.126404 0.0110371 3.38292e-21)
(-0.132466 0.0101381 -6.8841e-20)
(-0.137954 0.0091833 1.87925e-20)
(-0.142844 0.00818929 4.23022e-20)
(-0.14713 0.00719071 -2.67154e-20)
(-0.150837 0.00624621 -6.4203e-20)
(-0.154053 0.0054349 -3.19992e-20)
(-0.156873 0.00483102 -5.96889e-20)
(-0.159491 0.00456049 -3.26292e-20)
(-0.000835031 0.00378087 8.96461e-21)
(-0.00393474 0.0095109 -1.49427e-20)
(-0.00950138 0.0138011 4.75409e-20)
(-0.0164937 0.016931 -3.80372e-20)
(-0.0245115 0.019101 -9.90958e-21)
(-0.0332218 0.0204901 -2.63567e-21)
(-0.0423293 0.0212575 3.11369e-20)
(-0.0516027 0.0215403 2.20801e-20)
(-0.0608614 0.0214543 -3.8988e-20)
(-0.0699671 0.0210941 1.63469e-20)
(-0.0788158 0.0205339 9.92305e-22)
(-0.0873305 0.0198282 -7.36444e-20)
(-0.0954536 0.0190141 -2.4165e-20)
(-0.10314 0.0181139 1.95837e-21)
(-0.110354 0.0171379 1.61036e-20)
(-0.11706 0.0160882 7.33802e-20)
(-0.123225 0.0149628 8.14172e-21)
(-0.128814 0.0137608 6.94757e-20)
(-0.133791 0.0124891 6.93884e-20)
(-0.138125 0.0111701 -8.55754e-21)
(-0.141794 0.00985128 3.11466e-20)
(-0.144809 0.00861504 -1.19355e-20)
(-0.147243 0.00757786 3.95221e-20)
(-0.149157 0.00685779 1.3169e-19)
(-0.150684 0.00664505 2.05416e-20)
(-0.00103028 0.00472535 1.52607e-20)
(-0.00437353 0.0118994 -5.55131e-20)
(-0.0100321 0.0172812 7.16396e-20)
(-0.0170126 0.0212156 2.64051e-20)
(-0.0249354 0.0239495 2.06926e-20)
(-0.033483 0.0257046 2.20086e-20)
(-0.0423724 0.0266784 -1.17087e-19)
(-0.0513808 0.0270415 4.35438e-20)
(-0.0603338 0.0269387 4.52945e-20)
(-0.0690969 0.0264888 -6.69238e-20)
(-0.0775682 0.0257851 6.92972e-20)
(-0.0856718 0.0248974 3.78914e-20)
(-0.0933498 0.0238735 4.68812e-20)
(-0.100557 0.0227427 -3.17583e-20)
(-0.107255 0.0215192 -7.04972e-21)
(-0.113408 0.0202065 1.54255e-19)
(-0.11898 0.0188025 -6.65904e-20)
(-0.123931 0.0173056 5.16062e-20)
(-0.12822 0.0157223 -1.24822e-19)
(-0.131805 0.0140784 -5.03568e-20)
(-0.134648 0.0124307 4.77196e-20)
(-0.136734 0.0108828 8.33676e-20)
(-0.138122 0.00959029 1.41451e-20)
(-0.138832 0.00872682 -1.08411e-19)
(-0.138873 0.00855495 -7.60482e-20)
(-0.00126658 0.00562477 -6.00402e-20)
(-0.00490601 0.0141825 -1.93889e-20)
(-0.0106777 0.020618 -4.24888e-20)
(-0.017645 0.0253337 -4.11253e-20)
(-0.0254525 0.0286188 2.95058e-20)
(-0.0338011 0.0307345 -5.27236e-20)
(-0.0424221 0.031914 -3.42103e-20)
(-0.0511033 0.0323598 -1.69977e-19)
(-0.0596774 0.0322445 7.45828e-21)
(-0.0680144 0.0317101 -1.73551e-21)
(-0.0760153 0.0308693 -1.30342e-19)
(-0.0836049 0.0298063 -4.4466e-20)
(-0.0907252 0.0285801 -5.52171e-20)
(-0.0973297 0.0272269 1.06841e-19)
(-0.103378 0.0257653 3.08155e-20)
(-0.108833 0.0242002 -8.41081e-20)
(-0.113654 0.0225288 -9.38789e-20)
(-0.117797 0.0207476 2.60602e-20)
(-0.121214 0.0188612 1.03042e-19)
(-0.123851 0.0168949 -2.2314e-20)
(-0.125651 0.0149107 -1.34735e-20)
(-0.126571 0.0130283 -6.34879e-20)
(-0.126648 0.0114432 -8.00551e-20)
(-0.125861 0.0103985 6.54161e-20)
(-0.123993 0.0102351 4.42805e-20)
(-0.00154008 0.00647139 3.11657e-20)
(-0.00552435 0.0163416 3.66554e-20)
(-0.0114297 0.0237852 -2.89107e-20)
(-0.0183833 0.0292537 -5.97933e-20)
(-0.0260568 0.0330741 9.30674e-21)
(-0.0341718 0.0355427 7.01403e-20)
(-0.0424762 0.0369261 1.00812e-19)
(-0.0507694 0.0374566 1.37676e-19)
(-0.0588924 0.037333 2.40204e-20)
(-0.0667206 0.03672 3.17075e-20)
(-0.074158 0.0357487 3.84782e-20)
(-0.0811301 0.0345181 1.47342e-19)
(-0.0875785 0.0330979 -8.49744e-21)
(-0.0934549 0.0315319 -1.89033e-19)
(-0.0987165 0.0298429 1.36258e-19)
(-0.103322 0.0280375 5.41846e-20)
(-0.107228 0.0261123 1.71612e-19)
(-0.110385 0.0240607 -7.01886e-20)
(-0.112736 0.0218835 -8.09019e-20)
(-0.114216 0.0196019 2.30774e-19)
(-0.114748 0.0172772 -7.75581e-20)
(-0.114256 0.0150388 -1.18365e-19)
(-0.11275 0.0131178 -3.16571e-20)
(-0.110185 0.0118434 -9.94633e-20)
(-0.105944 0.0116314 1.65427e-20)
(-0.00184648 0.00725858 7.75131e-21)
(-0.00621972 0.0183601 -1.52523e-20)
(-0.0122782 0.0267591 3.11116e-21)
(-0.0192184 0.032947 -1.08934e-19)
(-0.026741 0.0372828 -8.45197e-20)
(-0.0345901 0.0400943 -1.59541e-20)
(-0.0425314 0.0416781 -4.12298e-20)
(-0.0503776 0.0422943 -7.49811e-20)
(-0.0579787 0.0421663 -1.68818e-20)
(-0.0652161 0.0414803 -8.3807e-21)
(-0.0719966 0.0403855 -7.94674e-20)
(-0.0782468 0.0389952 3.43696e-20)
(-0.083907 0.03739 2.5857e-20)
(-0.0889266 0.0356214 1.38841e-19)
(-0.0932593 0.0337169 -2.80303e-21)
(-0.0968592 0.031685 -8.40047e-20)
(-0.0996776 0.0295216 -9.12786e-21)
(-0.101659 0.0272169 3.63471e-20)
(-0.102738 0.0247659 1.48968e-19)
(-0.102837 0.0221822 -1.10591e-19)
(-0.101861 0.0195204 2.91372e-19)
(-0.0996986 0.0169101 1.21512e-19)
(-0.0963218 0.0146092 -9.17788e-20)
(-0.0917157 0.0130486 1.77289e-19)
(-0.0845793 0.0126921 1.02884e-19)
(-0.00218117 0.00798091 9.50768e-21)
(-0.00698251 0.0202243 4.81387e-20)
(-0.0132126 0.0295193 1.36562e-19)
(-0.0201404 0.0363878 1.70112e-19)
(-0.027497 0.0412151 1.01133e-19)
(-0.0350498 0.0443564 -7.09774e-20)
(-0.0425838 0.0461351 1.72788e-19)
(-0.0499256 0.0468364 1.95888e-20)
(-0.0569352 0.046707 -1.03138e-19)
(-0.0635 0.0459534 1.13231e-20)
(-0.0695301 0.0447419 1.91256e-19)
(-0.0749525 0.0431998 -2.04347e-19)
(-0.079706 0.0414186 -1.16651e-19)
(-0.0837363 0.039458 -2.36828e-20)
(-0.0869923 0.0373504 -1.91228e-19)
(-0.0894224 0.0351069 -1.24638e-19)
(-0.0909709 0.0327228 2.21071e-20)
(-0.0915744 0.0301854 -2.59578e-19)
(-0.0911585 0.0274827 2.60109e-20)
(-0.0896331 0.0246181 -1.2421e-19)
(-0.0868867 0.0216332 -1.53804e-19)
(-0.0827726 0.0186475 1.43276e-19)
(-0.0772082 0.0159294 1.61008e-19)
(-0.0703229 0.0140243 -1.25293e-19)
(-0.0596941 0.0133923 1.72329e-19)
(-0.00253933 0.00863429 -1.14272e-19)
(-0.00780265 0.021923 8.37934e-20)
(-0.0142215 0.0320485 -6.10595e-21)
(-0.0211385 0.0395535 3.35042e-20)
(-0.0283156 0.0448443 3.17018e-20)
(-0.0355439 0.0482988 1.42188e-19)
(-0.0426283 0.0502641 -1.03164e-19)
(-0.04941 0.0510482 -1.92277e-19)
(-0.0557592 0.050919 9.63084e-20)
(-0.0615699 0.050102 8.98744e-20)
(-0.0667553 0.0487798 -3.03376e-19)
(-0.0712424 0.0470935 2.13305e-19)
(-0.0749672 0.0451455 3.23831e-19)
(-0.0778709 0.0430034 2.20796e-20)
(-0.0798959 0.0407054 -5.71253e-20)
(-0.0809827 0.0382655 1.63897e-19)
(-0.0810665 0.0356798 -7.55872e-20)
(-0.0800743 0.0329325 3.38586e-19)
(-0.0779201 0.0300053 -2.98523e-19)
(-0.0745014 0.0268892 5.42712e-20)
(-0.0696908 0.0236085 -2.81751e-20)
(-0.0633124 0.0202627 -9.16024e-20)
(-0.055191 0.0171013 -8.88483e-20)
(-0.0458056 0.0147782 7.31623e-20)
(-0.0310559 0.0138361 1.88885e-20)
(-0.00291611 0.00921598 7.46454e-20)
(-0.00866987 0.023448 -5.3718e-20)
(-0.015293 0.034333 4.43835e-20)
(-0.0222014 0.0424253 -1.49473e-19)
(-0.0291867 0.0481468 -3.30327e-20)
(-0.036064 0.0518941 1.67972e-20)
(-0.0426581 0.0540346 -3.80124e-20)
(-0.0488251 0.0548966 -6.29053e-20)
(-0.0544458 0.0547672 1.97927e-20)
(-0.0594207 0.0538897 -1.05068e-19)
(-0.0636657 0.0524621 1.95877e-19)
(-0.067107 0.0506385 -4.50071e-20)
(-0.0696772 0.048532 -1.15001e-19)
(-0.0713111 0.0462187 -1.17722e-19)
(-0.0719426 0.0437427 1.55888e-19)
(-0.0715016 0.0411221 8.45133e-20)
(-0.0699117 0.0383542 3.36307e-20)
(-0.0670867 0.0354219 -2.82377e-19)
(-0.0629269 0.0323013 2.9434e-19)
(-0.0573146 0.0289719 -9.61912e-20)
(-0.0501069 0.0254369 -4.47625e-20)
(-0.0411131 0.0217693 -3.46935e-20)
(-0.0300006 0.0181566 -3.84525e-20)
(-0.0177941 0.0152488 1.2391e-19)
(0.00157104 0.014297 -2.02608e-19)
(-0.0033068 0.00972461 -2.7733e-20)
(-0.00957394 0.024794 1.19883e-19)
(-0.0164151 0.0363627 -1.71371e-19)
(-0.0233169 0.0449881 6.87177e-20)
(-0.0300994 0.0511026 3.79246e-20)
(-0.0366003 0.055118 -5.74465e-20)
(-0.0426645 0.0574186 1.6738e-19)
(-0.048163 0.0583505 4.06492e-20)
(-0.052987 0.0582184 1.90712e-20)
(-0.0570433 0.0572814 1.6434e-19)
(-0.0602498 0.0557522 -6.7351e-20)
(-0.0625314 0.0537974 7.12482e-20)
(-0.0638155 0.0515402 -7.57368e-20)
(-0.0640287 0.0490653 -4.80745e-21)
(-0.0630938 0.0464235 -8.25871e-20)
(-0.0609274 0.0436374 -2.85774e-19)
(-0.0574374 0.0407071 5.88726e-20)
(-0.0525206 0.037616 2.28248e-19)
(-0.0460595 0.0343364 -7.87416e-20)
(-0.037918 0.0308384 3.81103e-19)
(-0.0279325 0.0271047 -2.11438e-19)
(-0.0159277 0.0231775 -6.04646e-20)
(-0.00137733 0.0191657 -1.01608e-19)
(0.0141911 0.0156271 3.1572e-21)
(0.0387539 0.0146126 -9.08439e-20)
(-0.00370695 0.0101602 -8.30712e-20)
(-0.010505 0.0259586 -1.23571e-19)
(-0.0175759 0.0381309 -6.63958e-20)
(-0.0244727 0.0472303 6.24075e-20)
(-0.0310412 0.0536956 1.94971e-20)
(-0.0371411 0.0579497 1.12618e-20)
(-0.0426364 0.0603911 4.30434e-20)
(-0.0474123 0.0613818 -2.097e-19)
(-0.0513703 0.0612415 6.93491e-20)
(-0.0544229 0.0602442 -1.43589e-19)
(-0.0564895 0.0586157 -5.20692e-20)
(-0.0574921 0.0565344 -7.02737e-20)
(-0.0573513 0.0541335 -1.48842e-19)
(-0.055983 0.0515063 3.05977e-19)
(-0.0532962 0.0487103 1.73596e-19)
(-0.0491902 0.045774 4.66842e-20)
(-0.0435532 0.0427014 1.45753e-19)
(-0.0362599 0.0394781 -2.11013e-19)
(-0.0271695 0.036076 -5.20032e-20)
(-0.0161237 0.0324596 -2.47777e-19)
(-0.00292753 0.0285949 9.55068e-20)
(0.0125541 0.0245011 2.1011e-19)
(0.0311059 0.0201914 9.6063e-20)
(0.0503875 0.016173 -1.81485e-19)
(0.0812841 0.0146602 2.26723e-19)
(-0.00411248 0.010524 -2.96232e-20)
(-0.0114536 0.0269422 7.75127e-21)
(-0.0187636 0.0396348 8.40824e-20)
(-0.0256557 0.0491446 1.50128e-19)
(-0.0319989 0.0559131 -1.00486e-19)
(-0.0376727 0.0603718 9.69042e-20)
(-0.0425591 0.0629307 -7.60189e-20)
(-0.0465571 0.063965 2.87183e-19)
(-0.0495776 0.0638083 -2.0131e-19)
(-0.0515379 0.0627474 4.33073e-20)
(-0.0523578 0.0610204 1.86895e-19)
(-0.0519546 0.0588162 -2.57974e-20)
(-0.0502401 0.0562782 2.00703e-20)
(-0.0471167 0.0535075 -2.48755e-19)
(-0.0424759 0.0505694 -2.10864e-19)
(-0.0361958 0.0474985 -8.04165e-21)
(-0.0281397 0.0443044 -2.32377e-19)
(-0.0181547 0.0409768 8.50735e-20)
(-0.00607032 0.0374906 -1.18469e-19)
(0.00829817 0.0338097 1.55119e-19)
(0.0251951 0.0298909 -2.09517e-19)
(0.0446612 0.0257409 1.25944e-19)
(0.0679433 0.0212593 -1.05256e-19)
(0.0912186 0.0169411 1.42558e-19)
(0.129771 0.0148161 -8.3149e-21)
(-0.00451986 0.0108185 1.62222e-19)
(-0.0124111 0.0277478 4.11738e-20)
(-0.0199666 0.0408747 -9.31482e-20)
(-0.0268525 0.0507272 -1.11788e-19)
(-0.0329573 0.0577467 7.54385e-20)
(-0.0381783 0.0623709 -2.76554e-19)
(-0.0424139 0.0650194 3.94216e-19)
(-0.0455759 0.0660786 7.67024e-20)
(-0.0475833 0.065894 1.27096e-19)
(-0.0483572 0.064764 1.55299e-19)
(-0.0478157 0.0629374 9.7887e-20)
(-0.0458699 0.0606135 -7.33581e-20)
(-0.0424196 0.0579445 -2.48924e-21)
(-0.0373507 0.05504 -3.58772e-20)
(-0.0305329 0.0519728 -1.07138e-19)
(-0.0218184 0.0487847 2.40128e-19)
(-0.0110403 0.045492 4.89719e-19)
(0.00198778 0.042091 2.92379e-20)
(0.0174728 0.0385623 1.69108e-19)
(0.0356279 0.0348745 -8.7986e-20)
(0.0567746 0.0309846 1.06636e-19)
(0.080767 0.0268937 -6.26239e-19)
(0.109632 0.0224307 2.97497e-19)
(0.137159 0.0179636 1.83767e-19)
(0.184848 0.015412 -1.22234e-19)
(-0.0049261 0.0110473 -9.72939e-20)
(-0.0133697 0.0283807 -1.67264e-19)
(-0.0211736 0.0418542 1.60471e-19)
(-0.0280488 0.0519778 1.05101e-19)
(-0.0338993 0.0591916 5.65259e-20)
(-0.0386377 0.0639376 2.00031e-19)
(-0.042177 0.0666434 -2.07559e-19)
(-0.0444401 0.0677049 -1.91395e-19)
(-0.0453526 0.067478 -1.25632e-19)
(-0.0448376 0.0662712 -2.95007e-19)
(-0.0428097 0.0643431 5.7058e-20)
(-0.0391705 0.0619021 -2.3273e-20)
(-0.0338048 0.0591091 4.2058e-19)
(-0.026578 0.0560819 1.73209e-19)
(-0.0173334 0.0529014 1.24521e-19)
(-0.00589211 0.0496173 -3.91126e-20)
(0.00794845 0.046254 -2.24442e-19)
(0.0244138 0.0428161 -1.81835e-19)
(0.0437539 0.0392935 -2.12851e-19)
(0.0662066 0.0356629 1.52465e-19)
(0.0922102 0.0318939 2.87576e-19)
(0.121288 0.0279725 3.21756e-19)
(0.156687 0.0237776 -3.0339e-19)
(0.188649 0.0192964 1.30747e-19)
(0.247094 0.0167323 1.75376e-19)
(-0.00532888 0.0112146 -2.56257e-19)
(-0.0143225 0.0288485 1.42632e-19)
(-0.0223737 0.0425796 -2.43243e-19)
(-0.0292295 0.0528997 2.98919e-19)
(-0.0348055 0.0602467 -2.85626e-19)
(-0.0390266 0.0650665 -8.54933e-20)
(-0.0418183 0.0677931 -1.59293e-19)
(-0.0431123 0.0688309 8.95671e-20)
(-0.0428393 0.0685446 -1.5336e-19)
(-0.0409217 0.0672517 1.67725e-19)
(-0.0372677 0.0652194 -2.2e-19)
(-0.0317662 0.0626647 -1.6321e-19)
(-0.0242829 0.0597567 5.69836e-21)
(-0.0146578 0.0566215 -2.50618e-19)
(-0.00270305 0.0533485 5.29382e-21)
(0.0117971 0.0499962 -2.53775e-19)
(0.0290859 0.0465988 -1.55617e-20)
(0.0494324 0.0431711 -2.76969e-19)
(0.0731344 0.0397153 9.68389e-20)
(0.100442 0.0362174 4.21783e-19)
(0.13196 0.0326804 -4.05872e-19)
(0.166677 0.0290228 1.99445e-19)
(0.209608 0.025407 2.19142e-19)
(0.246073 0.0209974 -1.05166e-19)
(0.316866 0.0190413 4.23298e-20)
(-0.00572651 0.0113257 1.328e-19)
(-0.0152634 0.0291599 -3.74623e-20)
(-0.0235559 0.0430597 8.24772e-20)
(-0.0303782 0.0534991 -2.40458e-19)
(-0.0356532 0.060915 3.85329e-19)
(-0.0393153 0.0657564 2.51211e-20)
(-0.0412997 0.0684638 2.78485e-19)
(-0.0415448 0.0694489 -1.45284e-19)
(-0.0399834 0.0690841 9.84496e-20)
(-0.0365343 0.0676949 1.29525e-19)
(-0.0310956 0.0655564 1.18737e-19)
(-0.0235394 0.0628933 3.75724e-19)
(-0.0137073 0.059883 -9.508e-20)
(-0.00140886 0.0566602 -9.57873e-20)
(0.0135806 0.0533234 -7.5042e-20)
(0.0315187 0.0499414 -6.67567e-21)
(0.052694 0.0465595 -1.5805e-19)
(0.0774201 0.0432051 1.39598e-19)
(0.106045 0.0398959 -1.87423e-19)
(0.138806 0.0366241 7.69787e-20)
(0.176527 0.0334623 -1.0939e-19)
(0.217409 0.030141 1.41016e-20)
(0.268817 0.0274828 -5.132e-19)
(0.309729 0.0231506 5.48182e-20)
(0.394141 0.0225661 -1.69323e-21)
(-0.00611795 0.0113859 1.77106e-19)
(-0.0161868 0.0293253 -1.19512e-19)
(-0.024709 0.0433052 -8.42475e-20)
(-0.0314766 0.0537851 -5.08984e-20)
(-0.0364161 0.0612024 -1.66627e-19)
(-0.039468 0.0660105 -2.81196e-19)
(-0.0405744 0.0686559 -9.17665e-20)
(-0.0396774 0.0695571 3.13918e-19)
(-0.0367087 0.0690937 -9.80261e-20)
(-0.0315795 0.0675984 -2.11916e-19)
(-0.0241735 0.0653533 -1.2802e-19)
(-0.0143406 0.062591 -3.84225e-19)
(-0.00189325 0.0594971 -4.18659e-19)
(0.0133957 0.0562156 3.14517e-19)
(0.0317929 0.0528554 6.47132e-20)
(0.0536021 0.049497 5.17173e-20)
(0.0791588 0.046199 5.41062e-19)
(0.108818 0.0430031 8.23865e-20)
(0.142973 0.0399468 5.19525e-19)
(0.181811 0.0370177 -6.2261e-19)
(0.226412 0.0344184 2.91249e-19)
(0.273932 0.0314902 -2.63512e-19)
(0.334542 0.0302193 4.13308e-19)
(0.379765 0.0259085 -6.20837e-19)
(0.478335 0.0274759 1.29031e-19)
(-0.00650267 0.011401 -4.49031e-20)
(-0.017088 0.0293554 -9.54854e-20)
(-0.0258212 0.0433281 -8.80008e-20)
(-0.0325044 0.0537689 2.99832e-20)
(-0.0370632 0.0611184 -4.72133e-20)
(-0.0394414 0.0658361 1.78025e-19)
(-0.0395848 0.0683748 -6.37572e-20)
(-0.0374357 0.0691602 -1.34585e-19)
(-0.0329203 0.0685784 -5.51087e-20)
(-0.0259378 0.0669688 2.76801e-21)
(-0.0163519 0.0646207 3.53384e-19)
(-0.00398464 0.0617745 -3.10101e-19)
(0.0113871 0.0586246 4.51056e-19)
(0.0300325 0.0553255 -1.30565e-19)
(0.0522649 0.051998 -2.27366e-19)
(0.0784358 0.0487363 1.88324e-19)
(0.108925 0.0456144 -2.06653e-19)
(0.144119 0.04269 -3.49304e-19)
(0.184438 0.0400252 -1.30204e-19)
(0.229969 0.0375831 1.22489e-19)
(0.282041 0.0357785 1.95614e-19)
(0.336589 0.0333077 3.79657e-19)
(0.406677 0.0338469 2.20298e-20)
(0.45606 0.0295125 2.62894e-19)
(0.568142 0.0338648 -8.5233e-20)
(-0.00688059 0.0113766 -2.20014e-20)
(-0.0179621 0.0292612 2.08892e-19)
(-0.0268797 0.0431414 2.15704e-19)
(-0.0334378 0.0534636 -9.67241e-20)
(-0.037558 0.0606754 6.79064e-20)
(-0.039184 0.0652446 -2.52668e-19)
(-0.0382615 0.0676319 5.02624e-20)
(-0.034729 0.0682701 4.05748e-20)
(-0.0285024 0.067552 -1.18373e-19)
(-0.0194632 0.0658238 -3.26041e-20)
(-0.00744895 0.0633824 -4.43008e-19)
(0.00775267 0.0604764 1.40973e-19)
(0.0264064 0.0573104 -2.12753e-20)
(0.0488285 0.0540507 -5.00286e-21)
(0.0753808 0.0508322 -2.04819e-20)
(0.10646 0.0477648 -4.07782e-21)
(0.14248 0.0449402 -1.81143e-20)
(0.183834 0.0424323 2.42386e-19)
(0.230938 0.040333 -2.15506e-19)
(0.283719 0.0385516 1.96339e-19)
(0.343661 0.0377991 -2.89622e-19)
(0.405487 0.0358972 -1.3961e-19)
(0.484635 0.0385604 4.03143e-20)
(0.538054 0.0342613 -2.25246e-19)
(0.661456 0.0417314 -7.35906e-20)
(-0.00725189 0.0113179 -2.09051e-19)
(-0.0188042 0.0290535 -2.63094e-20)
(-0.0278699 0.0427584 -2.66602e-19)
(-0.0342495 0.0528834 -2.14315e-19)
(-0.0378576 0.0598885 2.83971e-19)
(-0.0386343 0.064252 1.94541e-19)
(-0.0365215 0.0664443 -8.5927e-20)
(-0.0314488 0.0669062 -7.69983e-20)
(-0.0233164 0.066038 -5.73686e-20)
(-0.0119814 0.0641933 4.95682e-19)
(0.00275148 0.061677 1.90709e-19)
(0.0211354 0.0587475 2.69429e-19)
(0.0434822 0.0556211 -1.49066e-20)
(0.0701574 0.0524781 5.23814e-20)
(0.101569 0.0494695 1.45177e-19)
(0.138148 0.0467229 -3.40603e-19)
(0.180321 0.0443488 5.38253e-19)
(0.228451 0.042436 5.69139e-20)
(0.282885 0.0411077 -1.75472e-19)
(0.343334 0.0401903 -2.64955e-19)
(0.411224 0.0407305 -1.43253e-19)
(0.480341 0.0395949 3.19488e-19)
(0.567256 0.0444768 -1.06102e-20)
(0.624558 0.0404267 1.67316e-19)
(0.755442 0.0509506 2.00774e-19)
(-0.00761679 0.0112297 1.59478e-19)
(-0.0196087 0.0287419 1.66947e-20)
(-0.028775 0.0421919 -3.60352e-20)
(-0.0349077 0.0520439 3.78053e-20)
(-0.0379117 0.0587749 -2.70121e-19)
(-0.0377204 0.0628779 3.59851e-19)
(-0.0342672 0.0648348 -8.62844e-22)
(-0.0274675 0.0650962 2.93439e-19)
(-0.0171993 0.0640707 1.25243e-20)
(-0.00328846 0.0621204 -1.00546e-19)
(0.0145001 0.0595598 1.58449e-19)
(0.0364664 0.0566589 -5.32461e-19)
(0.0629721 0.0536477 -3.28513e-19)
(0.0944303 0.0507228 -1.63823e-19)
(0.131285 0.0480531 -7.07149e-20)
(0.173981 0.0457853 6.40976e-21)
(0.222915 0.0440475 -3.49057e-19)
(0.278364 0.0429387 1.32698e-19)
(0.340515 0.0426077 5.10459e-19)
(0.408804 0.042782 1.40473e-19)
(0.484281 0.044786 3.4008e-19)
(0.56031 0.0447032 -3.3641e-19)
(0.652799 0.0516151 -7.84071e-20)
(0.713634 0.0481489 -1.33254e-19)
(0.846797 0.0612467 -7.03336e-19)
(-0.00797533 0.011116 -1.49489e-19)
(-0.0203686 0.0283351 7.58198e-20)
(-0.0295751 0.0414544 1.34848e-19)
(-0.0353753 0.0509606 4.69144e-19)
(-0.037662 0.0573539 1.76687e-19)
(-0.0363586 0.0611459 -3.92514e-19)
(-0.0313855 0.0628327 -9.9069e-20)
(-0.0226376 0.0628763 -5.20077e-20)
(-0.00996376 0.0616955 -1.71409e-19)
(0.00684846 0.0596627 -5.61605e-20)
(0.0280803 0.057104 -1.16274e-19)
(0.0540821 0.054303 4.2487e-19)
(0.0852647 0.0515062 5.07653e-19)
(0.122079 0.0489282 2.55669e-19)
(0.164985 0.0467572 -1.30628e-19)
(0.2144 0.0451574 -9.16422e-20)
(0.270636 0.0442704 2.01736e-19)
(0.333799 0.0441962 -4.56532e-20)
(0.403795 0.0450899 -3.40773e-21)
(0.479723 0.04659 1.10979e-19)
(0.561903 0.0501187 -1.59052e-19)
(0.643896 0.0514076 -2.76102e-19)
(0.739036 0.0598898 -1.8449e-19)
(0.802636 0.0573576 2.33433e-19)
(0.932177 0.0721911 7.38903e-19)
(-0.00832707 0.0109797 1.19316e-19)
(-0.0210753 0.02784 4.05909e-19)
(-0.0302465 0.040557 1.62381e-19)
(-0.0356087 0.0496493 -1.43857e-19)
(-0.037041 0.0556465 2.00829e-19)
(-0.0344531 0.0590832 2.21254e-19)
(-0.0277472 0.0604728 2.48173e-19)
(-0.0167916 0.0602912 -1.39604e-20)
(-0.00139852 0.0589696 1.95388e-19)
(0.0186891 0.0568928 -6.01981e-19)
(0.0438031 0.0544011 3.40818e-19)
(0.0743442 0.0517945 -1.81356e-19)
(0.110764 0.0493377 -4.58749e-19)
(0.153533 0.047265 -3.33404e-19)
(0.203087 0.0457825 5.44227e-19)
(0.259762 0.0450677 -1.86781e-19)
(0.323697 0.0452657 -9.21518e-20)
(0.394725 0.0464625 7.10713e-20)
(0.472331 0.0487835 -3.59696e-19)
(0.555205 0.0518127 2.9246e-19)
(0.642656 0.0568044 -4.72013e-20)
(0.728961 0.0597092 3.43095e-19)
(0.823435 0.0691056 3.9744e-19)
(0.888477 0.0677547 -1.3609e-19)
(1.00866 0.083241 -2.70352e-19)
(-0.00867084 0.0108226 -6.2223e-20)
(-0.0217175 0.0272615 -2.30248e-19)
(-0.0307614 0.0395096 6.08497e-21)
(-0.035558 0.0481253 -1.16321e-19)
(-0.0359719 0.053675 -3.42921e-19)
(-0.0318956 0.0567208 -1.77453e-19)
(-0.0232076 0.0577965 9.76639e-20)
(-0.0097428 0.0573948 -3.04744e-19)
(0.00872924 0.055962 2.40643e-20)
(0.0325156 0.0538984 1.50172e-19)
(0.0619996 0.0515612 -4.32042e-19)
(0.0976259 0.0492691 -1.42261e-19)
(0.139869 0.0473068 3.67457e-19)
(0.189184 0.045927 2.48728e-19)
(0.245928 0.0453497 -3.22167e-19)
(0.310272 0.0457557 3.46439e-19)
(0.382077 0.0472764 1.44429e-19)
(0.460778 0.0499629 -3.64379e-20)
(0.545304 0.0538603 -3.14149e-20)
(0.633856 0.0585391 -3.10742e-19)
(0.724636 0.0648213 3.42899e-20)
(0.812901 0.0694022 -5.85262e-20)
(0.903415 0.0789568 -3.11023e-19)
(0.968072 0.0788692 -2.29055e-19)
(1.07413 0.0938178 -2.12864e-19)
(-0.00900452 0.0106454 -3.91502e-20)
(-0.0222811 0.0266029 -5.12048e-19)
(-0.0310864 0.0383199 -3.16507e-19)
(-0.0351659 0.0464034 -4.03714e-19)
(-0.0343681 0.051463 3.5699e-19)
(-0.0285653 0.0540927 2.8766e-20)
(-0.0176067 0.0548506 2.58983e-19)
(-0.00128772 0.0542493 -2.36964e-19)
(0.02067 0.0527536 3.94507e-19)
(0.0486255 0.0507822 1.4795e-19)
(0.0830088 0.048712 1.20825e-20)
(0.124293 0.0468824 -2.32572e-20)
(0.172945 0.0455973 -8.21902e-20)
(0.22935 0.0451243 -7.15019e-20)
(0.293711 0.0456876 7.66799e-20)
(0.365925 0.0474548 1.08595e-19)
(0.445453 0.050518 -6.90891e-19)
(0.531203 0.0548643 4.32749e-20)
(0.621446 0.0604061 -1.14223e-19)
(0.713831 0.0667191 -1.05762e-19)
(0.805597 0.074031 5.31675e-20)
(0.892953 0.0801012 -3.44149e-19)
(0.97664 0.0890502 1.56299e-19)
(1.03882 0.0901669 1.98098e-19)
(1.12746 0.103401 -4.49507e-19)
(-0.00932459 0.0104476 9.15004e-20)
(-0.0227489 0.0258649 3.70641e-19)
(-0.0311829 0.036994 3.19166e-20)
(-0.0343674 0.0444978 5.86717e-19)
(-0.0321334 0.049035 -3.72417e-19)
(-0.0243296 0.0512362 3.65073e-19)
(-0.0107711 0.0516876 -3.27453e-19)
(0.00879112 0.0509256 1.29042e-19)
(0.0346862 0.0494365 -1.66694e-19)
(0.0673221 0.0476607 2.20117e-19)
(0.107163 0.0459971 3.65245e-19)
(0.154683 0.0448056 1.89348e-19)
(0.210292 0.0444067 7.58869e-20)
(0.274233 0.0450737 8.29511e-20)
(0.34645 0.0470189 -6.31883e-20)
(0.426449 0.050372 -5.08101e-20)
(0.513157 0.0551523 5.63687e-19)
(0.604844 0.0612471 1.85509e-19)
(0.699087 0.0683944 5.13962e-19)
(0.792983 0.0761603 1.33827e-20)
(0.883154 0.0841742 -3.23947e-19)
(0.966571 0.0913016 4.03535e-19)
(1.04132 0.0989704 5.0817e-19)
(1.09896 0.101184 6.56103e-20)
(1.16845 0.111587 4.41988e-19)
(-0.00962606 0.0102273 -2.59668e-19)
(-0.0230991 0.0250462 1.4393e-19)
(-0.0310065 0.0355366 3.16317e-19)
(-0.0330896 0.0424222 -1.24421e-19)
(-0.0291619 0.0464166 -3.70553e-19)
(-0.0190452 0.0481916 -2.73564e-20)
(-0.00251653 0.0483658 2.00385e-20)
(0.0207206 0.0475024 3.59494e-20)
(0.0510447 0.0461131 -2.30645e-19)
(0.0889028 0.0446626 -9.77475e-20)
(0.134769 0.0435725 -3.41131e-19)
(0.189076 0.0432213 -8.45021e-21)
(0.252109 0.0439377 -9.59977e-20)
(0.32387 0.0459861 -2.91035e-20)
(0.403927 0.0495426 2.54699e-19)
(0.491263 0.0546661 -3.73314e-19)
(0.584157 0.0612636 1.57215e-19)
(0.68018 0.0690851 -2.48739e-19)
(0.776264 0.0776739 -3.71482e-19)
(0.86907 0.0865497 6.86254e-20)
(0.95506 0.0948903 6.90956e-19)
(1.03178 0.102456 -3.50072e-19)
(1.0964 0.108385 1.51493e-20)
(1.14762 0.111611 3.0291e-19)
(1.19772 0.118001 1.69725e-19)
(-0.0099018 0.00998148 1.22279e-19)
(-0.0233064 0.0241441 -1.73717e-19)
(-0.0305066 0.0339507 -3.68251e-19)
(-0.0312523 0.0401896 -1.95653e-19)
(-0.0253393 0.0436344 2.13904e-19)
(-0.0125601 0.0450026 7.28316e-20)
(0.00734887 0.0449483 4.25685e-19)
(0.0347312 0.0440659 1.72697e-19)
(0.0700075 0.0428953 1.0917e-19)
(0.113644 0.0419268 5.09094e-20)
(0.166089 0.0416036 3.52689e-19)
(0.22767 0.0423162 1.59539e-19)
(0.298457 0.0443883 -1.32127e-19)
(0.3781 0.0480522 1.89072e-19)
(0.465658 0.0534156 -1.09019e-19)
(0.559469 0.0604266 1.38483e-19)
(0.657096 0.0688401 -1.34469e-19)
(0.755429 0.0782374 -2.9275e-19)
(0.850908 0.0879739 4.25743e-19)
(0.940007 0.0974966 -4.45247e-19)
(1.01948 0.10576 1.25807e-19)
(1.0874 0.113059 -1.45409e-19)
(1.14162 0.117148 -1.09788e-19)
(1.18473 0.121158 -9.04083e-19)
(1.21668 0.122082 1.44097e-19)
(-0.0101429 0.00970684 2.4958e-20)
(-0.0233401 0.0231544 1.2454e-19)
(-0.0296265 0.0322384 4.13209e-19)
(-0.0287681 0.0378133 -9.7484e-20)
(-0.0205437 0.0407167 -4.24625e-20)
(-0.00471553 0.0417156 7.9024e-20)
(0.0190207 0.0415037 7.04492e-20)
(0.0510505 0.0407094 -2.77331e-19)
(0.0918212 0.0399026 -1.28833e-19)
(0.141787 0.0395996 -3.9767e-19)
(0.201315 0.0402598 -3.00296e-19)
(0.270547 0.0422741 -2.14194e-19)
(0.34923 0.0459402 1.91383e-19)
(0.436531 0.0514273 -2.79464e-19)
(0.530877 0.0587345 -1.34583e-19)
(0.629874 0.0676572 -5.89123e-20)
(0.730368 0.0777652 -4.25949e-20)
(0.828695 0.0884572 8.76378e-19)
(0.921056 0.0989348 5.56566e-20)
(1.00408 0.108585 -7.70977e-20)
(1.07519 0.116358 -4.34826e-19)
(1.13314 0.122749 1.41212e-19)
(1.17734 0.125276 1.4721e-20)
(1.21104 0.12916 5.1921e-19)
(1.22802 0.123439 5.80295e-20)
(-0.0103393 0.00939918 1.97653e-19)
(-0.0231654 0.0220715 -1.90105e-19)
(-0.0283032 0.0304014 -2.88706e-19)
(-0.0255426 0.0353069 2.89918e-19)
(-0.014647 0.0376935 -6.47e-20)
(0.00465121 0.0383811 -5.60649e-20)
(0.0326933 0.0381056 4.89289e-20)
(0.069895 0.037532 -6.9989e-20)
(0.116705 0.0372611 1.75566e-19)
(0.173519 0.0378311 1.13855e-19)
(0.240551 0.0397086 2.94989e-19)
(0.317654 0.0432662 -7.91523e-21)
(0.40413 0.0487463 2.41939e-19)
(0.498531 0.0562159 -1.6222e-20)
(0.598553 0.0655215 2.58414e-19)
(0.701051 0.0762678 7.52492e-20)
(0.802247 0.0878231 -4.85882e-19)
(0.898152 0.0994167 -2.36967e-19)
(0.98506 0.110156 -5.77557e-20)
(1.06013 0.119425 1.56399e-19)
(1.12169 0.126313 -7.41501e-20)
(1.16942 0.131384 -2.63632e-19)
(1.20424 0.132676 3.47245e-20)
(1.22807 0.134743 -2.43455e-19)
(1.2413 0.128548 -1.1787e-19)
(-0.0104782 0.00905363 1.21102e-19)
(-0.0227433 0.02089 1.29305e-19)
(-0.0264684 0.0284417 2.36933e-19)
(-0.0214762 0.0326857 -1.72572e-19)
(-0.00751708 0.0345976 1.26324e-20)
(0.0157034 0.0350532 3.45621e-19)
(0.0485544 0.0348328 -9.90369e-20)
(0.091462 0.0346388 -3.30564e-19)
(0.144838 0.035101 -1.95883e-19)
(0.208957 0.036772 2.61968e-19)
(0.283787 0.0401098 -5.45901e-19)
(0.368778 0.0454422 2.14807e-21)
(0.462649 0.0529188 -4.6861e-20)
(0.563234 0.0624593 3.46954e-19)
(0.667444 0.0737159 -1.88791e-19)
(0.771445 0.0860778 2.59467e-19)
(0.871038 0.0987193 2.62538e-19)
(0.962221 0.110745 -4.63606e-19)
(1.04174 0.121248 -1.93568e-19)
(1.1076 0.129691 -1.60705e-19)
(1.15916 0.135377 2.45373e-19)
(1.19713 0.138982 3.8856e-19)
(1.22328 0.138982 1.80811e-19)
(1.23971 0.139522 -1.60772e-19)
(1.2487 0.132988 -2.89893e-19)
(-0.010545 0.0086655 -2.86169e-20)
(-0.0220306 0.0196051 1.21113e-19)
(-0.0240487 0.0263627 -2.40629e-19)
(-0.0164646 0.0299671 -3.69448e-19)
(0.00098063 0.0314653 -5.47432e-19)
(0.0286013 0.0317908 9.3293e-20)
(0.0667794 0.0317693 -1.09997e-19)
(0.115921 0.0321395 1.61221e-19)
(0.176347 0.0335544 5.99326e-20)
(0.248132 0.0365686 1.15663e-19)
(0.330888 0.0416078 1.2855e-19)
(0.423531 0.0489201 -7.09847e-20)
(0.52408 0.0585177 -1.02715e-19)
(0.629572 0.0701274 -2.30838e-19)
(0.736164 0.0831747 7.04388e-20)
(0.839494 0.0968302 -2.7583e-19)
(0.93523 0.110113 1.01718e-19)
(1.01971 0.122074 6.57544e-20)
(1.09047 0.131881 -2.73364e-19)
(1.14653 0.139149 -2.94677e-19)
(1.18832 0.143442 -1.578e-19)
(1.21741 0.145555 8.97374e-21)
(1.23617 0.144345 4.92388e-20)
(1.24674 0.143617 -1.58584e-19)