/*--------------------------------*- C++ -*----------------------------------*\
  =========                 |
  \\      /  F ield         | OpenFOAM: The Open Source CFD Toolbox
   \\    /   O peration     | Website:  https://openfoam.org
    \\  /    A nd           | Version:  7
     \\/     M anipulation  |
\*---------------------------------------------------------------------------*/
FoamFile
{
    version     2.0;
    format      ascii;
    class       surfaceScalarField;
    location    "100";
    object      phi;
}
// * * * * * * * * * * * * * * * * * * * * * * * * * * * * * * * * * * * * * //

dimensions      [0 3 -1 0 0 0 0];

internalField   nonuniform List<scalar> 
3881
(
0.00457948
0.00430316
0.00471571
0.00509115
0.00485795
0.00590987
0.00501672
0.00665909
0.00519082
0.00716891
0.00537096
0.00723917
0.00554508
0.00667538
0.00570103
0.00535162
0.00583055
0.00330225
0.00592279
0.000801133
0.00596012
-0.0016858
0.00593044
-0.00371466
0.00583764
-0.005073
0.00570064
-0.00579079
0.00554283
-0.00602095
0.00537909
-0.00594246
-0.00571626
0.00474994
0.00415262
0.00489711
0.00494399
0.00505418
0.00575279
0.00523039
0.00648288
0.00542376
0.00697554
0.00562418
0.00703874
0.00581722
0.00648235
0.00599017
0.00517867
0.00613436
0.00315806
0.00623468
0.00070081
0.00627002
-0.00172113
0.00622958
-0.00367423
0.00612118
-0.0049646
0.00596722
-0.00563683
0.00579366
-0.00584739
0.00561714
-0.00576594
0.00544335
-0.00554248
0.00527771
-0.00526289
0.00512634
-0.004931
0.00498382
-0.00454043
0.0048346
-0.00413737
0.00467528
-0.00376259
0.0045282
-0.00334903
0.00442824
-0.00276096
0.00439743
-0.00190134
0.00443536
-0.000822844
0.00452532
0.000371897
0.00464775
0.00157052
0.00478648
0.00280221
0.00493287
0.00410307
0.00508223
0.0055436
0.00522858
0.00701767
0.00536341
0.00832865
0.00547112
0.00918611
0.00554157
0.0092729
0.00556428
0.00843835
0.00554874
0.00646137
0.00550874
0.00362982
0.00545774
0.000189375
0.00540244
-0.00295569
0.00533316
-0.00550707
0.00524995
-0.00696115
0.00515452
-0.00768179
0.00505943
-0.00753996
0.00495586
-0.00710223
0.00483481
-0.00632282
0.00470465
-0.0056469
0.00459754
-0.00490893
0.00453257
-0.00380075
0.00454351
-0.00291983
0.00457355
-0.000495926
0.00467293
0.000444036
0.00473668
0.00428003
0.00480254
0.00487055
0.00484974
0.00838386
0.0087637
0.00492254
0.00399417
0.00508194
0.00478459
0.00525502
0.00557971
0.00544976
0.00628815
0.00566367
0.00676163
0.00588515
0.00681726
0.00609796
0.00626953
0.00628984
0.00498679
0.00645038
0.00299752
0.00655904
0.000592149
0.00659161
-0.0017537
0.00653917
-0.00362179
0.00641419
-0.00483961
0.00624279
-0.00546544
0.00605329
-0.00565789
0.00586395
-0.0055766
0.00568026
-0.00535878
0.00550585
-0.00508848
0.00534691
-0.00477206
0.00520046
-0.00439399
0.00505129
-0.0039882
0.00489217
-0.00360347
0.00474142
-0.00319827
0.00463417
-0.00265371
0.00459602
-0.00186319
0.00462973
-0.000856553
0.00471911
0.000282512
0.00484413
0.0014455
0.00498825
0.00265809
0.00514314
0.00394819
0.0053045
0.00538224
0.00546593
0.00685624
0.00561849
0.00817609
0.00574465
0.00905996
0.00583233
0.00918521
0.00586887
0.00840181
0.00586262
0.00646761
0.00582583
0.00366662
0.00577039
0.000244821
0.00570495
-0.00289025
0.00562196
-0.00542407
0.00552301
-0.0068622
0.00541067
-0.00756944
0.00530074
-0.00743003
0.00518769
-0.00698917
0.00506058
-0.00619571
0.00492353
-0.00550985
0.00480812
-0.00479352
0.004733
-0.00372563
0.00474035
-0.00292717
0.00476848
-0.000524054
0.00487471
0.000337804
0.0049486
0.00420613
0.005024
0.00479516
0.0050868
0.00832106
0.00882246
0.00509706
0.00382761
0.00526977
0.00461189
0.00545993
0.00538954
0.00567436
0.00607372
0.00590981
0.00652618
0.00615288
0.00657419
0.00638663
0.00603578
0.00659947
0.00477395
0.00677789
0.0028191
0.00689499
0.000475044
0.00692382
-0.00178252
0.0068581
-0.00355607
0.00671567
-0.00469718
0.00652663
-0.0052764
0.00632132
-0.00545258
0.00611935
-0.00537463
0.00592615
-0.00516559
0.00574352
-0.00490585
0.00557711
-0.00460565
0.00542642
-0.00424329
0.00527744
-0.00383922
0.00511955
-0.00344558
0.00496619
-0.00304491
0.00485167
-0.00253919
0.00480506
-0.00181658
0.00483308
-0.000884576
0.00492085
0.000194744
0.00504802
0.00131833
0.00519754
0.00250857
0.00536123
0.0037845
0.00553519
0.00520828
0.00571262
0.0066788
0.00588436
0.00800436
0.00603067
0.00891365
0.0061374
0.00907847
0.00618975
0.00834946
0.00619448
0.00646288
0.00616191
0.00369919
0.00610203
0.000304701
0.00602554
-0.00281376
0.00592752
-0.00532605
0.0058116
-0.00674628
0.00568113
-0.00743898
0.00555485
-0.00730375
0.00543109
-0.00686542
0.00529764
-0.00606226
0.00515381
-0.00536602
0.00503
-0.00466971
0.00494367
-0.0036393
0.00494632
-0.00292982
0.00497189
-0.000549624
0.00508483
0.000224861
0.00517016
0.00412081
0.00525634
0.00470898
0.00533696
0.00824043
0.00887373
0.0052741
0.00365374
0.00546054
0.00442544
0.00566864
0.00518144
0.0059038
0.00583855
0.00616145
0.00626854
0.0064265
0.00630914
0.00668257
0.00577971
0.00691854
0.00453798
0.00711611
0.00262153
0.00724164
0.000349512
0.00726532
-0.0018062
0.00718498
-0.00347574
0.00702442
-0.00453661
0.00681786
-0.00506985
0.00659724
-0.00523195
0.00638309
-0.00516047
0.00618095
-0.00496345
0.00599081
-0.00471571
0.00581725
-0.00443209
0.005662
-0.00408804
0.00551318
-0.0036904
0.00535752
-0.00328992
0.00520291
-0.00289031
0.00508149
-0.00241777
0.00502534
-0.00176042
0.00504594
-0.000905179
0.00513069
0.000109988
0.00525931
0.00118972
0.00541413
0.00235375
0.00558684
0.00361178
0.00577391
0.00502121
0.00596823
0.00648449
0.00616054
0.00781205
0.00632868
0.00874551
0.00645632
0.00895083
0.00652652
0.00827926
0.00654394
0.00644546
0.0065167
0.00372644
0.0064526
0.000368796
0.00636427
-0.00272543
0.00624995
-0.00521174
0.00611589
-0.00661222
0.00596625
-0.00728933
0.00582216
-0.00715966
0.00568642
-0.00672968
0.00554631
-0.00592215
0.00539592
-0.00521562
0.00526379
-0.00453759
0.00516526
-0.00354077
0.0051619
-0.00292645
0.00518413
-0.00057186
0.0053034
0.000105595
0.00540142
0.00402278
0.00549974
0.00461066
0.00560065
0.00813952
0.00891531
0.00545573
0.00347498
0.00565519
0.00422597
0.00588151
0.00495512
0.00613802
0.00558204
0.00641798
0.00598858
0.00670531
0.00602181
0.0069854
0.00549962
0.00724689
0.00427648
0.00746481
0.00240362
0.00759769
0.000216634
0.00761451
-0.00182302
0.00751813
-0.00337936
0.00733901
-0.0043575
0.00711546
-0.0048463
0.00688045
-0.00499693
0.00665489
-0.00493492
0.00644452
-0.00475308
0.00624775
-0.00451894
0.00606758
-0.00425193
0.00590754
-0.003928
0.00575865
-0.00354151
0.00560607
-0.00313734
0.00545183
-0.00273608
0.00532434
-0.00229028
0.00525775
-0.00169383
0.00526896
-0.000916387
0.00534887
3.00795e-05
0.00547789
0.0010607
0.00563771
0.00219393
0.00581953
0.00342996
0.00602011
0.00482064
0.00623213
0.00627246
0.00644633
0.00759785
0.00663789
0.00855395
0.00678829
0.00880043
0.00687836
0.00818919
0.0069102
0.00641361
0.00688953
0.00374711
0.00682167
0.000436664
0.00672091
-0.00262468
0.00658914
-0.00507997
0.00643586
-0.00645894
0.00626618
-0.00711964
0.00610302
-0.00699651
0.00595395
-0.00658061
0.00580682
-0.00577502
0.0056502
-0.005059
0.00551009
-0.00439748
0.00539852
-0.0034292
0.00538761
-0.00291554
0.00540558
-0.00058983
0.00553046
-1.92863e-05
0.00564238
0.00391086
0.00575428
0.00449877
0.00587814
0.00801566
0.00894469
0.00564649
0.00329602
0.0058565
0.00401597
0.00610018
0.00471144
0.0063776
0.00530463
0.00667924
0.00568694
0.00698917
0.00571189
0.00729553
0.00519325
0.00758512
0.00398689
0.00782374
0.002165
0.00796202
7.83593e-05
0.00796947
-0.00183048
0.00785558
-0.00326547
0.00765785
-0.00415977
0.00741831
-0.00460675
0.00717028
-0.00474891
0.00693444
-0.00469908
0.00671671
-0.00453534
0.00651432
-0.00431655
0.00632833
-0.00406594
0.00616341
-0.00376307
0.00601401
-0.00339212
0.00586513
-0.00298846
0.00571304
-0.00258399
0.00558085
-0.00215809
0.00550335
-0.00161633
0.00550305
-0.000916087
0.00557578
-4.26475e-05
0.00570365
0.00093283
0.00586783
0.00202974
0.00605863
0.00323915
0.00627301
0.00460626
0.00650346
0.00604201
0.00674072
0.0073606
0.00695719
0.00833747
0.00713211
0.00862552
0.00724403
0.00807727
0.007292
0.00636564
0.00727925
0.00375986
0.00720829
0.000507618
0.00709484
-0.00251122
0.00694466
-0.00492979
0.00677123
-0.0062855
0.0065809
-0.00692932
0.00639767
-0.00681328
0.00623392
-0.00641686
0.00607934
-0.00562044
0.00591692
-0.00489658
0.00576947
-0.00425003
0.00564428
-0.00330402
0.00562408
-0.00289534
0.00563666
-0.000602406
0.00576607
-0.000148696
0.00589294
0.003784
0.00601988
0.00437182
0.00616959
0.00786594
0.00895897
0.00585454
0.00312379
0.00607026
0.00380025
0.00632836
0.00445334
0.00662449
0.0050085
0.00694626
0.00536517
0.00727946
0.00537869
0.00761507
0.00485764
0.00793495
0.00366701
0.00819309
0.00190686
0.00833312
-6.16768e-05
0.00832786
-0.00182521
0.00819506
-0.00313268
0.00797918
-0.00394388
0.00772521
-0.00435278
0.00746607
-0.00448976
0.00722144
-0.00445445
0.00699739
-0.0043113
0.00679047
-0.00410963
0.00659969
-0.00387515
0.00643001
-0.00359339
0.00627952
-0.00324164
0.00613458
-0.00284351
0.00598643
-0.00243584
0.00585151
-0.00202317
0.00576326
-0.00152808
0.00574943
-0.000902255
0.00581211
-0.000105331
0.00593661
0.000808333
0.00610398
0.00186237
0.00630332
0.00303982
0.00653162
0.00437797
0.0067811
0.00579253
0.00704237
0.00709933
0.00728507
0.00809477
0.00748614
0.00842445
0.00762177
0.00794165
0.00768755
0.00629986
0.00768414
0.00376326
0.00761103
0.000580729
0.00748498
-0.00238517
0.00731575
-0.00476057
0.00712145
-0.0060912
0.00691017
-0.00671804
0.00670623
-0.00660933
0.00652654
-0.00623716
0.00636399
-0.0054579
0.00619628
-0.00472887
0.00604243
-0.00409619
0.00590342
-0.003165
0.00587201
-0.00286393
0.00587785
-0.000608244
0.00601024
-0.000281085
0.00615286
0.00364137
0.00629628
0.0042284
0.00647492
0.0076873
0.00895485
0.00609234
0.00296632
0.00630648
0.0035861
0.00657316
0.00418666
0.00688339
0.00469827
0.00722296
0.0050256
0.00758075
0.00502091
0.00794879
0.0044896
0.00829946
0.00331633
0.00857305
0.00163327
0.00870893
-0.000197552
0.00868682
-0.0018031
0.00853406
-0.00297991
0.00830121
-0.00371104
0.00803502
-0.0040866
0.00776713
-0.00422187
0.00751559
-0.00420291
0.00728643
-0.00408214
0.00707611
-0.00389931
0.00688174
-0.00368078
0.00670774
-0.00341938
0.00655554
-0.00308944
0.00641431
-0.00270228
0.00627168
-0.00229321
0.00613653
-0.00188802
0.00603857
-0.00143012
0.00600959
-0.000873267
0.006059
-0.000154742
0.00617703
0.000690305
0.00634565
0.00169374
0.00655262
0.00283285
0.00679473
0.00413586
0.00706362
0.00552364
0.00734958
0.00681337
0.00761958
0.00782477
0.00784826
0.00819577
0.00800931
0.00778059
0.00809447
0.0062147
0.00810182
0.00375591
0.00802796
0.000654598
0.00788974
-0.00224695
0.00770126
-0.00457209
0.00748569
-0.00587563
0.00725351
-0.00648587
0.00702867
-0.00638449
0.00683193
-0.00604043
0.00666084
-0.00528681
0.00648836
-0.00455639
0.00632938
-0.00393721
0.00617684
-0.00301245
0.00613222
-0.00281931
0.00612974
-0.000605761
0.00626301
-0.000414354
0.00642185
0.00348253
0.006583
0.00406725
0.00679379
0.00747652
0.0089286
0.00637598
0.00283004
0.00658003
0.00338205
0.00684674
0.00391995
0.00716425
0.00438075
0.00751882
0.00467103
0.00790276
0.00463697
0.00830475
0.00408761
0.0086825
0.00293858
0.00896306
0.00135271
0.0090864
-0.000320892
0.00904294
-0.00175964
0.00886988
-0.00280685
0.00862221
-0.00346336
0.00834672
-0.00381111
0.00807289
-0.00394804
0.00781664
-0.00394666
0.00758376
-0.00384925
0.00737115
-0.00368671
0.00717452
-0.00348415
0.00699697
-0.00324183
0.00684253
-0.002935
0.00670433
-0.00256408
0.00656832
-0.0021572
0.00643578
-0.00175548
0.00633024
-0.00132459
0.00628534
-0.000828364
0.00631812
-0.000187526
0.00642566
0.000582768
0.00659252
0.00152688
0.00680551
0.00261986
0.00706094
0.00388042
0.0073493
0.00523529
0.00766028
0.00650238
0.00795835
0.0075267
0.0082158
0.00793832
0.00840381
0.00759258
0.00850991
0.0061086
0.00852955
0.00373628
0.00845623
0.000727914
0.00830701
-0.00209774
0.00809965
-0.00436472
0.00786282
-0.0056388
0.00761016
-0.00623321
0.00736478
-0.00613911
0.00715021
-0.00582585
0.0069699
-0.0051065
0.00679314
-0.00437963
0.00663059
-0.00377465
0.00646546
-0.00284733
0.00640569
-0.00275954
0.00639306
-0.000593124
0.00652447
-0.000545765
0.00669953
0.00330746
0.00687934
0.00388744
0.00712551
0.00723035
0.00887602
0.00672127
0.00271586
0.00690874
0.00319458
0.00716659
0.0036621
0.00748399
0.00406336
0.00785063
0.00430438
0.00826052
0.00422707
0.00869257
0.00365556
0.00908651
0.00254464
0.00936032
0.00107891
0.00946098
-0.000421555
0.00939226
-0.00169092
0.00919993
-0.00261452
0.00894071
-0.00320415
0.00865952
-0.00352992
0.00838293
-0.00367145
0.00812442
-0.00368815
0.00788934
-0.00361418
0.00767554
-0.00347291
0.00747798
-0.00328659
0.00729799
-0.00306184
0.00714104
-0.00277805
0.00700481
-0.00242785
0.00687583
-0.00202822
0.0067487
-0.00162835
0.00663883
-0.00121471
0.00657856
-0.000768101
0.00659178
-0.000200742
0.00668402
0.000490532
0.00684483
0.00136606
0.00706117
0.00240353
0.00732874
0.00361286
0.00763616
0.00492787
0.00797203
0.0061665
0.00829853
0.00720021
0.00858556
0.00765129
0.00880181
0.00737633
0.00893028
0.00598013
0.00896362
0.00370293
0.00889276
0.000798775
0.00873418
-0.00193915
0.00850897
-0.00413952
0.00825141
-0.00538124
0.00797912
-0.00596092
0.00771417
-0.00587416
0.00748138
-0.00559306
0.00729117
-0.00491629
0.00711051
-0.00419897
0.00694614
-0.00361028
0.00677015
-0.00267134
0.00669354
-0.00268293
0.00666877
-0.000568355
0.00679482
-0.000671812
0.00698552
0.00311676
0.00718438
0.00368858
0.00746898
0.00694575
0.00879248
0.00713619
0.00261621
0.00730699
0.00302379
0.0075511
0.00341798
0.00786324
0.00375122
0.00823861
0.00392901
0.00866894
0.00379675
0.0091179
0.00320659
0.00950875
0.00215379
0.00975829
0.000829373
0.00982648
-0.000489743
0.00973063
-0.00159507
0.009522
-0.00240589
0.00925576
-0.00293791
0.00897302
-0.00324718
0.00869701
-0.00339544
0.00843882
-0.00342996
0.00820324
-0.0033786
0.00798928
-0.00325894
0.00779202
-0.00308933
0.00761096
-0.00288078
0.0074517
-0.00261879
0.00731619
-0.00229235
0.00719376
-0.00190579
0.0070744
-0.00150899
0.00696425
-0.00110456
0.00689094
-0.000694794
0.00688279
-0.000192585
0.0069546
0.000418715
0.00710374
0.00121693
0.00731931
0.00218795
0.00759672
0.00333544
0.00792204
0.00460255
0.00828206
0.00580648
0.00863681
0.00684546
0.0089538
0.00733431
0.00919922
0.0071309
0.00935127
0.00582809
0.00940003
0.00365416
0.00933366
0.000865152
0.00916813
-0.00177363
0.00892694
-0.00389833
0.0086498
-0.00510409
0.00835914
-0.00567026
0.00807623
-0.00559125
0.00782542
-0.00534225
0.00762464
-0.00471552
0.00744027
-0.0040146
0.00727592
-0.00344593
0.00709163
-0.00248705
0.00699704
-0.00258834
0.0069581
-0.00052942
0.00707445
-0.000788161
0.00727946
0.00291175
0.00749699
0.00347105
0.00782261
0.00662012
0.00867295
0.00761294
0.00251628
0.00777541
0.00286132
0.0080084
0.00318499
0.00831451
0.00344511
0.00869378
0.00354975
0.00913129
0.00335923
0.00957462
0.00276327
0.00993797
0.00179044
0.0101463
0.000621045
0.0101758
-0.00051926
0.0100546
-0.00147384
0.00983485
-0.00218616
0.0095671
-0.00267016
0.00928728
-0.00296736
0.00901518
-0.00312334
0.00875988
-0.00317467
0.00852556
-0.00314428
0.00831246
-0.00304583
0.00811655
-0.00289342
0.0079359
-0.00270013
0.00777503
-0.00245791
0.00763916
-0.00215647
0.00752199
-0.00178863
0.00741174
-0.00139874
0.00730571
-0.000998525
0.0072235
-0.000612586
0.00719418
-0.000163262
0.00724107
0.000371822
0.00737185
0.00108615
0.00758077
0.00197904
0.00786406
0.00305215
0.00820491
0.00426169
0.00858743
0.00542397
0.00896957
0.00646332
0.00931628
0.0069876
0.00959138
0.0068558
0.00976812
0.00565135
0.00983387
0.00358841
0.00977483
0.000924194
0.00960542
-0.00160422
0.00935099
-0.00364391
0.00905612
-0.00480922
0.00874881
-0.00536295
0.00845014
-0.00529258
0.00818222
-0.00507433
0.00797036
-0.00450367
0.0077822
-0.00382644
0.00761958
-0.0032833
0.00743041
-0.00229788
0.00731757
-0.0024755
0.00726264
-0.000474491
0.00736408
-0.000889604
0.00758115
0.00269468
0.00781597
0.00323623
0.00818432
0.00625177
0.00851218
0.00812674
0.00240037
0.00829421
0.00269384
0.00852497
0.00295423
0.00882777
0.00314231
0.00920389
0.00317363
0.00962945
0.00293368
0.0100411
0.00235157
0.0103551
0.00147645
0.0105119
0.000464252
0.0105031
-0.00051041
0.0103624
-0.00133314
0.0101386
-0.00196242
0.0098754
-0.00240692
0.00960286
-0.00269482
0.00933776
-0.00285825
0.00908773
-0.00292463
0.00885646
-0.00291301
0.00864526
-0.00283463
0.00845155
-0.00269971
0.0082727
-0.00252128
0.00811143
-0.00229664
0.00797459
-0.00201964
0.00786084
-0.00167488
0.0077597
-0.0012976
0.00766166
-0.000900488
0.0075762
-0.000527123
0.00752863
-0.000115696
0.00754801
0.00035244
0.00765363
0.000980536
0.00784821
0.00178446
0.00813116
0.0027692
0.00848331
0.00390954
0.00888532
0.00502196
0.00929299
0.00605565
0.0096684
0.00661219
0.00997304
0.00655115
0.0101753
0.00544906
0.0102603
0.00350343
0.0102119
0.000972635
0.0100425
-0.00143487
0.00977843
-0.00337981
0.00946843
-0.00449921
0.00914658
-0.00504111
0.00883489
-0.00498089
0.00855156
-0.004791
0.00832843
-0.00428053
0.00813614
-0.00363415
0.00797657
-0.00312374
0.00778665
-0.00210796
0.00765649
-0.00234534
0.00758435
-0.000402349
0.0076649
-0.000970152
0.0078907
0.00246887
0.00814017
0.00298676
0.00855156
0.00584039
0.00830494
0.0086453
0.00225941
0.00882864
0.0025105
0.00906619
0.00271668
0.00936806
0.00284045
0.00973217
0.00280952
0.0101269
0.00253898
0.0104869
0.00199151
0.0107404
0.00122302
0.0108459
0.000358722
0.0108061
-0.0004706
0.0106551
-0.00118221
0.0104352
-0.00174251
0.0101822
-0.00215387
0.00992078
-0.00243342
0.00966532
-0.00260278
0.00942262
-0.00268194
0.00919613
-0.00268652
0.00898793
-0.00262643
0.00879709
-0.00250888
0.0086212
-0.00234538
0.00846103
-0.00213647
0.00832338
-0.00188199
0.00821115
-0.00156265
0.00811769
-0.00120414
0.00803011
-0.000812914
0.00794763
-0.000444642
0.00788766
-5.57289e-05
0.00788029
0.000359816
0.00795537
0.00090545
0.00812688
0.00161295
0.00840068
0.0024954
0.00875731
0.00355291
0.00917378
0.00460549
0.00960357
0.00562587
0.0100054
0.00621033
0.0103386
0.00621799
0.0105674
0.00522023
0.0106744
0.0033964
0.0106408
0.00100629
0.0104761
-0.00127021
0.0102066
-0.00311032
0.00988479
-0.00417736
0.00955093
-0.00470725
0.00922935
-0.0046593
0.00893315
-0.0044948
0.008699
-0.00404638
0.00850201
-0.00343715
0.00834619
-0.00296792
0.0081601
-0.00192187
0.008015
-0.00220024
0.00792557
-0.000312923
0.00797876
-0.00102334
0.00820868
0.00223895
0.0084687
0.00272674
0.00892141
0.00538768
0.00804644
0.00914347
0.0020943
0.00934522
0.00230875
0.00959245
0.00246946
0.00989166
0.00254124
0.0102348
0.00246635
0.0105863
0.00218753
0.0108873
0.00169047
0.0110827
0.00102767
0.0111466
0.00029481
0.0110879
-0.000411974
0.0109369
-0.00103119
0.0107279
-0.00153351
0.0104897
-0.00191559
0.0102424
-0.00218615
0.00999861
-0.00235901
0.00976492
-0.00244825
0.00954477
-0.00246636
0.00934073
-0.0024224
0.00915339
-0.00232154
0.00898125
-0.00217324
0.00882373
-0.00197895
0.00868619
-0.00174445
0.00857415
-0.0014506
0.00848593
-0.00111591
0.00840921
-0.000736203
0.00833518
-0.000370604
0.00827087
8.57823e-06
0.00824182
0.000388864
0.00828458
0.000862691
0.00842497
0.00147257
0.00867873
0.00224163
0.00902983
0.00320182
0.00945275
0.00418256
0.00989881
0.00517981
0.0103229
0.00578626
0.0106826
0.00585828
0.0109393
0.00496352
0.0110724
0.00326333
0.0110586
0.00102009
0.0109036
-0.00111519
0.0106333
-0.00284004
0.0103034
-0.00384751
0.00996042
-0.00436425
0.00963231
-0.00433119
0.00932652
-0.00418901
0.00908231
-0.00380218
0.00887997
-0.00323481
0.00872769
-0.00281565
0.00855001
-0.00174418
0.00839386
-0.00204409
0.00828884
-0.000207903
0.00830842
-0.00104292
0.00853644
0.00201093
0.00880129
0.00246189
0.0092909
0.00489806
0.00773288
0.00961189
0.00191342
0.00982619
0.00209445
0.0100783
0.00221735
0.0103688
0.00225072
0.010684
0.00215121
0.0109888
0.00188269
0.0112355
0.00144379
0.0113845
0.000878633
0.0114215
0.000257799
0.0113564
-0.000346818
0.0112138
-0.000888615
0.0110208
-0.00134053
0.0108003
-0.00169508
0.0105691
-0.00195498
0.0103385
-0.00212839
0.0101151
-0.00222485
0.00990264
-0.00225387
0.00970396
-0.00222372
0.00952077
-0.00213835
0.00935289
-0.00200537
0.00919927
-0.00182533
0.00906332
-0.00160849
0.00895114
-0.00133843
0.00886553
-0.0010303
0.00879794
-0.000668616
0.00873561
-0.000308273
0.00867556
6.86274e-05
0.00863408
0.000430344
0.00864819
0.000848585
0.00875285
0.0013679
0.00897549
0.002019
0.00930805
0.00286925
0.00972542
0.00376519
0.0101781
0.00472711
0.0106175
0.00534687
0.0110011
0.0054747
0.0112881
0.00467653
0.0114527
0.00309874
0.0114641
0.00100865
0.0113233
-0.000974378
0.0110565
-0.0025733
0.0107228
-0.00351377
0.0103738
-0.00401527
0.0100426
-0.00399995
0.00973109
-0.00387751
0.00947859
-0.00354968
0.00927044
-0.00302665
0.0091205
-0.00266571
0.00895516
-0.00157884
0.00879317
-0.0018821
0.00867661
-9.13386e-05
0.00865752
-0.00102383
0.00887636
0.00179209
0.00913867
0.00219958
0.00965738
0.00437936
0.0073622
0.0100552
0.00172735
0.0102721
0.00187749
0.0105201
0.00196935
0.0107943
0.00197649
0.0110779
0.00186766
0.0113396
0.00162096
0.0115428
0.00124063
0.0116601
0.000761318
0.0116833
0.000234603
0.011621
-0.000284506
0.0114922
-0.000759855
0.011318
-0.00116627
0.0111166
-0.00149373
0.0109025
-0.00174089
0.010686
-0.00191185
0.0104738
-0.00201267
0.0102701
-0.00205013
0.0100779
-0.00203154
0.00989958
-0.00196005
0.00973631
-0.00184211
0.00958741
-0.00167643
0.00945464
-0.00147572
0.00934309
-0.00122688
0.0092582
-0.000945412
0.00919663
-0.000607052
0.00914624
-0.000257877
0.0090973
0.000117562
0.00905495
0.000472693
0.00905007
0.000853466
0.00912071
0.00129727
0.00930415
0.00183556
0.00960381
0.00256959
0.00999935
0.00336964
0.0104443
0.00428219
0.0108894
0.00490179
0.0112944
0.00506966
0.0116158
0.00435508
0.0118178
0.00289678
0.0118588
0.000967699
0.0117351
-0.000850679
0.0114752
-0.00231348
0.0111417
-0.00318025
0.0107902
-0.00366376
0.0104592
-0.00366891
0.0101462
-0.0035645
0.009888
-0.00329151
0.0096741
-0.00281276
0.00952439
-0.00251599
0.00937405
-0.00142851
0.00921214
-0.00172019
0.00909063
3.01766e-05
0.00903055
-0.000963754
0.00923215
0.00159049
0.00948304
0.00194868
0.0100191
0.00384333
0.006935
0.0104841
0.00154481
0.0106945
0.00166711
0.0109298
0.00173401
0.011182
0.00172435
0.0114336
0.00161602
0.0116586
0.00139599
0.0118294
0.0010698
0.0119268
0.000663917
0.0119448
0.000216596
0.0118906
-0.00023023
0.0117778
-0.000647069
0.0116228
-0.00101132
0.0114407
-0.00131166
0.011244
-0.0015441
0.0110419
-0.00170984
0.0108416
-0.00181232
0.0106474
-0.00185595
0.0104627
-0.00184684
0.0102902
-0.00178751
0.0101319
-0.00168381
0.00998813
-0.00153266
0.00985978
-0.00134737
0.00975034
-0.00111744
0.00966562
-0.000860683
0.00960696
-0.000548397
0.00956597
-0.000216886
0.00953139
0.00015214
0.00949883
0.000505249
0.00948867
0.000863631
0.00953439
0.00125154
0.00967711
0.00169285
0.00993168
0.00231502
0.0102871
0.00301426
0.0107067
0.00386253
0.0111472
0.00446136
0.0115727
0.00464408
0.0119331
0.0039947
0.0121758
0.00265405
0.0122466
0.000896937
0.0121398
-0.000743895
0.0118887
-0.00206239
0.0115593
-0.00285083
0.011209
-0.00331351
0.0108814
-0.00334122
0.010571
-0.00325415
0.0103105
-0.00303103
0.0100918
-0.00259408
0.00993968
-0.00236382
0.00980517
-0.001294
0.00964895
-0.00156397
0.00953145
0.000147681
0.0094322
-0.000864506
0.0096089
0.00141379
0.00983853
0.00171906
0.0103759
0.00330597
0.00645552
0.010909
0.0013713
0.0111067
0.00146942
0.0113239
0.00151677
0.0115513
0.00149695
0.011773
0.0013944
0.0119676
0.00120135
0.0121144
0.000923041
0.0121989
0.000579382
0.0122164
0.000199096
0.0121716
-0.000185448
0.0120746
-0.00055009
0.0119381
-0.000874842
0.0117746
-0.00114809
0.0115948
-0.00136427
0.0114074
-0.00152247
0.0112193
-0.00162421
0.0110352
-0.0016719
0.0108588
-0.00167045
0.0106929
-0.00162156
0.01054
-0.00153097
0.0104016
-0.00139424
0.0102785
-0.00122421
0.0101727
-0.00101165
0.0100889
-0.000776909
0.0100311
-0.000490615
0.00999592
-0.000181698
0.00997482
0.000173235
0.00995859
0.000521477
0.00995656
0.00086566
0.00999162
0.00121649
0.0101003
0.00158418
0.0103047
0.00211061
0.010606
0.002713
0.0109859
0.00348255
0.0114144
0.00403287
0.0118602
0.00419833
0.0122594
0.00359547
0.0125385
0.00237499
0.0126326
0.000802842
0.0125387
-0.000649993
0.0122966
-0.00182034
0.011975
-0.00252922
0.0116301
-0.00296866
0.0113089
-0.00301994
0.011005
-0.00295029
0.0107459
-0.00277195
0.0105245
-0.00237268
0.0103674
-0.00220664
0.0102474
-0.00117409
0.0101011
-0.00141767
0.00999768
0.000251145
0.0098664
-0.000733228
0.0100127
0.00126753
0.0102113
0.00152039
0.0107302
0.00278707
0.00593273
0.0113368
0.00120956
0.0115188
0.00128738
0.0117158
0.00131978
0.0119184
0.00129429
0.0121129
0.00119992
0.0122823
0.00103199
0.0124102
0.000795086
0.0124855
0.000504071
0.0125039
0.000180716
0.0124682
-0.00014967
0.0123856
-0.000467493
0.012266
-0.000755289
0.0121197
-0.00100182
0.0119562
-0.00120072
0.0117833
-0.00134958
0.0116076
-0.00144853
0.0114341
-0.00149839
0.0112666
-0.00150293
0.011108
-0.00146297
0.0109612
-0.00138414
0.0108283
-0.00126134
0.0107106
-0.00110652
0.0106096
-0.000910647
0.0105281
-0.000695478
0.010471
-0.000433488
0.0104386
-0.000149243
0.0104275
0.000184329
0.0104285
0.000520401
0.0104431
0.000851074
0.0104816
0.00117804
0.0105691
0.00149662
0.0107293
0.00195046
0.0109752
0.00246712
0.0113122
0.00314553
0.0117269
0.00361811
0.0121889
0.00373642
0.0126159
0.00316839
0.0129155
0.0020754
0.0130196
0.000698781
0.012932
-0.000562372
0.0126988
-0.00158713
0.0123887
-0.00221917
0.0120538
-0.00263374
0.0117419
-0.00270808
0.0114478
-0.00265616
0.0111938
-0.00251793
0.0109728
-0.00215168
0.010809
-0.00204285
0.0107007
-0.00106578
0.0105661
-0.0012831
0.0104859
0.000331307
0.0103349
-0.000582225
0.0104492
0.00115332
0.0106094
0.00136014
0.0110877
0.00230876
0.00538107
0.0117713
0.00106057
0.0119369
0.00112178
0.0121137
0.00114301
0.0122932
0.00111482
0.0124636
0.00102948
0.0126114
0.000884179
0.0127238
0.000682707
0.0127915
0.000436381
0.0128107
0.000161542
0.0127825
-0.000121546
0.0127125
-0.000397401
0.012608
-0.000650843
0.0124776
-0.00087144
0.0123295
-0.00105255
0.0121707
-0.00119078
0.0120074
-0.00128528
0.0118447
-0.00133566
0.0116865
-0.00134471
0.0115358
-0.00131231
0.0113956
-0.00124395
0.0112685
-0.00113426
0.0111564
-0.000994385
0.0110607
-0.000814979
0.010983
-0.00061773
0.0109275
-0.000377987
0.0108965
-0.000118232
0.0108915
0.000189276
0.0109065
0.000505386
0.0109391
0.000818469
0.0109896
0.00112757
0.0110703
0.00141593
0.0112021
0.00181871
0.0114069
0.00226229
0.0117112
0.00284123
0.012114
0.00321534
0.0125801
0.00327026
0.0130119
0.00273658
0.0133078
0.0017795
0.0134061
0.000600484
0.0133189
-0.000475136
0.0130953
-0.00136359
0.012801
-0.00192482
0.0124808
-0.0023135
0.0121813
-0.0024086
0.0118994
-0.00237428
0.0116535
-0.00227204
0.0114367
-0.00193486
0.0112663
-0.00187246
0.0111658
-0.000965287
0.0110419
-0.00115919
0.0109913
0.00038185
0.0108363
-0.000427191
0.0109219
0.0010677
0.0110411
0.00124093
0.0114572
0.00189269
0.00482028
0.012215
0.000924429
0.0123645
0.000972264
0.0125222
0.000985288
0.0126807
0.000956412
0.0128299
0.000880249
0.0129591
0.000754973
0.013058
0.000583801
0.0131189
0.000375487
0.0131381
0.000142386
0.0131162
-9.9651e-05
0.0130567
-0.000337926
0.0129655
-0.000559702
0.0128496
-0.000755478
0.0127158
-0.000918744
0.0125705
-0.00104553
0.0124196
-0.00113431
0.0122677
-0.00118381
0.012119
-0.00119602
0.0119767
-0.00117
0.0118437
-0.00111089
0.0117228
-0.0010134
0.0116163
-0.000887873
0.0115261
-0.000724796
0.0114529
-0.000544519
0.0114004
-0.000325478
0.0113711
-8.89449e-05
0.0113697
0.000190616
0.0113938
0.00048135
0.0114403
0.000771915
0.0115044
0.0010635
0.0115887
0.00133165
0.0117111
0.00169633
0.0118974
0.00207591
0.0121853
0.00255335
0.0125763
0.00282438
0.013028
0.0028185
0.0134368
0.0023278
0.0137064
0.00150989
0.0137876
0.000519309
0.0136989
-0.000386455
0.0134878
-0.00115249
0.0132134
-0.00165046
0.0129124
-0.00201243
0.0126281
-0.00212434
0.0123604
-0.00210655
0.0121248
-0.00203641
0.0119158
-0.00172591
0.0117407
-0.00169732
0.0116447
-0.000869295
0.0115281
-0.00104262
0.0115088
0.000401112
0.0113654
-0.000283722
0.0114304
0.00100267
0.011513
0.00115829
0.0118497
0.00155606
0.00427369
0.0126693
0.000800814
0.0128036
0.000837961
0.0129438
0.000845094
0.0130833
0.00081692
0.013214
0.000749572
0.0133269
0.000642029
0.0134138
0.000496898
0.0134683
0.000320996
0.0134871
0.000123566
0.01347
-8.24936e-05
0.0134194
-0.00028735
0.0133398
-0.000480157
0.0132368
-0.000652496
0.0131163
-0.000798243
0.012984
-0.00091316
0.012845
-0.000995308
0.012704
-0.00104279
0.0125649
-0.00105698
0.0124312
-0.00103627
0.0123057
-0.000985357
0.0121914
-0.000899105
0.0120906
-0.000787144
0.0120059
-0.000640058
0.0119376
-0.000476254
0.0118892
-0.000277016
0.0118626
-6.23602e-05
0.0118639
0.000189304
0.0118928
0.000452403
0.0119475
0.000717258
0.012022
0.000989046
0.0121145
0.00123916
0.0122416
0.00156921
0.0124279
0.0018896
0.0127106
0.00227059
0.013085
0.00245003
0.0135035
0.00240001
0.0138686
0.00196267
0.0140995
0.00127897
0.014161
0.000457869
0.0140738
-0.000299272
0.0138794
-0.000958082
0.0136288
-0.00139986
0.0133505
-0.00173414
0.0130839
-0.00185774
0.0128317
-0.00185435
0.0126075
-0.00181223
0.0124094
-0.00152775
0.0122328
-0.00152078
0.0121395
-0.000775984
0.0120264
-0.000929477
0.012035
0.000392536
0.0119146
-0.000163338
0.0119694
0.000947891
0.0120271
0.00110051
0.0122753
0.0013079
0.00376461
0.0131354
0.000689137
0.0132556
0.000717824
0.0133798
0.000720844
0.0135025
0.000694235
0.0136168
0.000635242
0.0137155
0.000543329
0.0137918
0.000420649
0.0138404
0.000272398
0.0138582
0.000105773
0.0138447
-6.90045e-05
0.0138015
-0.000244182
0.013732
-0.000410671
0.0136406
-0.000561123
0.0135324
-0.000689955
0.0134121
-0.000792899
0.0132846
-0.000867826
0.0131542
-0.000912411
0.0130248
-0.000927575
0.0128998
-0.000911233
0.012782
-0.000867551
0.0126746
-0.000791682
0.0125798
-0.000692347
0.0125005
-0.000560781
0.0124373
-0.000413022
0.0123934
-0.000233124
0.0123704