/*--------------------------------*- C++ -*----------------------------------*\
  =========                 |
  \\      /  F ield         | OpenFOAM: The Open Source CFD Toolbox
   \\    /   O peration     | Website:  https://openfoam.org
    \\  /    A nd           | Version:  7
     \\/     M anipulation  |
\*---------------------------------------------------------------------------*/
FoamFile
{
    version     2.0;
    format      ascii;
    class       volScalarField;
    location    "130";
    object      p;
}
// * * * * * * * * * * * * * * * * * * * * * * * * * * * * * * * * * * * * * //

dimensions      [0 2 -2 0 0 0 0];

internalField   nonuniform List<scalar> 
31800
(
-0.390338
-0.392127
-0.393049
-0.393863
-0.394856
-0.396212
-0.398064
-0.400478
-0.403473
-0.407041
-0.411148
-0.415736
-0.420708
-0.425918
-0.431149
-0.436106
-0.440399
-0.443547
-0.444982
-0.444092
-0.440279
-0.433053
-0.422177
-0.407855
-0.390421
-0.397296
-0.398796
-0.399627
-0.400441
-0.401524
-0.403067
-0.405209
-0.408021
-0.411529
-0.415732
-0.420604
-0.426093
-0.432109
-0.4385
-0.445041
-0.451413
-0.457183
-0.461806
-0.464625
-0.464911
-0.461922
-0.455003
-0.443754
-0.428257
-0.408433
-0.404241
-0.405425
-0.40615
-0.406952
-0.408111
-0.409826
-0.41224
-0.41543
-0.419427
-0.424236
-0.429838
-0.436188
-0.443196
-0.450711
-0.458494
-0.466202
-0.473358
-0.479358
-0.483453
-0.484798
-0.48251
-0.475772
-0.464007
-0.4472
-0.424805
-0.41112
-0.411966
-0.41257
-0.413344
-0.414562
-0.416429
-0.419093
-0.422633
-0.427086
-0.432461
-0.438746
-0.4459
-0.453834
-0.462393
-0.471326
-0.480265
-0.488694
-0.495937
-0.501168
-0.503427
-0.501689
-0.494986
-0.482551
-0.464326
-0.439198
-0.417879
-0.418368
-0.418837
-0.419569
-0.420825
-0.422821
-0.425704
-0.429558
-0.434425
-0.440317
-0.447226
-0.455113
-0.463891
-0.473397
-0.483369
-0.493412
-0.50297
-0.511305
-0.517509
-0.520514
-0.519162
-0.512339
-0.499084
-0.4794
-0.451291
-0.424466
-0.424586
-0.424907
-0.425578
-0.426851
-0.428946
-0.432013
-0.43614
-0.44137
-0.44772
-0.455184
-0.463723
-0.473248
-0.483591
-0.494474
-0.505476
-0.516004
-0.525259
-0.532257
-0.535831
-0.53469
-0.527599
-0.513382
-0.492282
-0.460807
-0.430829
-0.430575
-0.430737
-0.431331
-0.432595
-0.434756
-0.437966
-0.442317
-0.447854
-0.454596
-0.462536
-0.471636
-0.481802
-0.492858
-0.504512
-0.516319
-0.527648
-0.537641
-0.545247
-0.549206
-0.548101
-0.5406
-0.525267
-0.502444
-0.468256
-0.436925
-0.436299
-0.436291
-0.436789
-0.438017
-0.440208
-0.443518
-0.448039
-0.45382
-0.460879
-0.469211
-0.478773
-0.489467
-0.501107
-0.513385
-0.525832
-0.537789
-0.548336
-0.556362
-0.560524
-0.559288
-0.551234
-0.534689
-0.510212
-0.473255
-0.442712
-0.441722
-0.441538
-0.441922
-0.443086
-0.445269
-0.448629
-0.453262
-0.459219
-0.466518
-0.475151
-0.485072
-0.496176
-0.508268
-0.521022
-0.533949
-0.546349
-0.557271
-0.565534
-0.569721
-0.568188
-0.559469
-0.541626
-0.515575
-0.475932
-0.448158
-0.44682
-0.446455
-0.446707
-0.447778
-0.449913
-0.453272
-0.457955
-0.464017
-0.471474
-0.480317
-0.490492
-0.501888
-0.514298
-0.527381
-0.540624
-0.553297
-0.564417
-0.572739
-0.576782
-0.574797
-0.56531
-0.5461
-0.518567
-0.47641
-0.453236
-0.451571
-0.451023
-0.451129
-0.452079
-0.454124
-0.457429
-0.4621
-0.468192
-0.475725
-0.484684
-0.495009
-0.506581
-0.519179
-0.532449
-0.545855
-0.55864
-0.569788
-0.577998
-0.581737
-0.579152
-0.568799
-0.548176
-0.519253
-0.474831
-0.457928
-0.455966
-0.455236
-0.45518
-0.455981
-0.457896
-0.461094
-0.465687
-0.471738
-0.479264
-0.488246
-0.498621
-0.510256
-0.522921
-0.536244
-0.549671
-0.562417
-0.573433
-0.581371
-0.584653
-0.581328
-0.570014
-0.547951
-0.517729
-0.471353
-0.462224
-0.459998
-0.45909
-0.458862
-0.459488
-0.461232
-0.46427
-0.468724
-0.47466
-0.482097
-0.491015
-0.501343
-0.512937
-0.525555
-0.538809
-0.552126
-0.564694
-0.575434
-0.582949
-0.585626
-0.581427
-0.56906
-0.545554
-0.514117
-0.466152
-0.466123
-0.463672
-0.462593
-0.462182
-0.46261
-0.464146
-0.466974
-0.471227
-0.476978
-0.48425
-0.493021
-0.50321
-0.514668
-0.527136
-0.540212
-0.553301
-0.565567
-0.575896
-0.582846
-0.584777
-0.579576
-0.566064
-0.541136
-0.508574
-0.459423
-0.469632
-0.466997
-0.465756
-0.465158
-0.465367
-0.466659
-0.46923
-0.473224
-0.478725
-0.485761
-0.494306
-0.504276
-0.515511
-0.527739
-0.54054
-0.553297
-0.565147
-0.574942
-0.581193
-0.582239
-0.575912
-0.561171
-0.534868
-0.501283
-0.451377
-0.472765
-0.469991
-0.468601
-0.467811
-0.467783
-0.4688
-0.471072
-0.474756
-0.479947
-0.48668
-0.49493
-0.504609
-0.515546
-0.527454
-0.539896
-0.552231
-0.563562
-0.572707
-0.578127
-0.578149
-0.57058
-0.554539
-0.526936
-0.492459
-0.442238
-0.475545
-0.472678
-0.471152
-0.470169
-0.46989
-0.470607
-0.472543
-0.47587
-0.480698
-0.48707
-0.494966
-0.504291
-0.514865
-0.526388
-0.538398
-0.550228
-0.560946
-0.569326
-0.573786
-0.572647
-0.56373
-0.546336
-0.517544
-0.482341
-0.432239
-0.478001
-0.475086
-0.473439
-0.472265
-0.471726
-0.472122
-0.47369
-0.476621
-0.481042
-0.487006
-0.494495
-0.503414
-0.513572
-0.524651
-0.536168
-0.547419
-0.55743
-0.564931
-0.5683
-0.565866
-0.555511
-0.536745
-0.506906
-0.471187
-0.421615
-0.480169
-0.47725
-0.475497
-0.474135
-0.47333
-0.47339
-0.474567
-0.477073
-0.48105
-0.486566
-0.493608
-0.50208
-0.511778
-0.522366
-0.53333
-0.543929
-0.55314
-0.559644
-0.561789
-0.557933
-0.546075
-0.52596
-0.495253
-0.459266
-0.410595
-0.482091
-0.479207
-0.477365
-0.47582
-0.474747
-0.474461
-0.475232
-0.47729
-0.480797
-0.485836
-0.492401
-0.500392
-0.509595
-0.519649
-0.530007
-0.53988
-0.548191
-0.553572
-0.554361
-0.548971
-0.53558
-0.514186
-0.482823
-0.446846
-0.399397
-0.483814
-0.481001
-0.479082
-0.477362
-0.476022
-0.475386
-0.475742
-0.47734
-0.480363
-0.484906
-0.490972
-0.498458
-0.507135
-0.516616
-0.526311
-0.535376
-0.542679
-0.546807
-0.546113
-0.539104
-0.524193
-0.501641
-0.469862
-0.434181
-0.388213
-0.485388
-0.482675
-0.480692
-0.478804
-0.477202
-0.476219
-0.476159
-0.477294
-0.479825
-0.483864
-0.489419
-0.496382
-0.504506
-0.513372
-0.52234
-0.530508
-0.536683
-0.539425
-0.537137
-0.528459
-0.512094
-0.488547
-0.456608
-0.421502
-0.377203
-0.48687
-0.484278
-0.482241
-0.480193
-0.478335
-0.477012
-0.476543
-0.477219
-0.479262
-0.482795
-0.487832
-0.494259
-0.501805
-0.510009
-0.518178
-0.525343
-0.530264
-0.531493
-0.527526
-0.517173
-0.499472
-0.475127
-0.443286
-0.408998
-0.366489
-0.488317
-0.485859
-0.483774
-0.481572
-0.47947
-0.477818
-0.476953
-0.477183
-0.478747
-0.481781
-0.4863
-0.492177
-0.499113
-0.506601
-0.513884
-0.519931
-0.523469
-0.523073
-0.517379
-0.505398
-0.486523
-0.461593
-0.430096
-0.396822
-0.356155
-0.489788
-0.487467
-0.485338
-0.48299
-0.480653
-0.478688
-0.477445
-0.477248
-0.47835
-0.480894
-0.484895
-0.490208
-0.496497
-0.503201
-0.509498
-0.514306
-0.516336
-0.514231
-0.506806
-0.493292
-0.473438
-0.448132
-0.417205
-0.385077
-0.346251
-0.491343
-0.489153
-0.486979
-0.48449
-0.481931
-0.479671
-0.478072
-0.477472
-0.478131
-0.4802
-0.483682
-0.488409
-0.494002
-0.499841
-0.505043
-0.508485
-0.508902
-0.50504
-0.495926
-0.48102
-0.460394
-0.434898
-0.404737
-0.373811
-0.336785
-0.493041
-0.490965
-0.488742
-0.486116
-0.483348
-0.480813
-0.478884
-0.477905
-0.478144
-0.479747
-0.482705
-0.486816
-0.491653
-0.496533
-0.500523
-0.502484
-0.501207
-0.495584
-0.484872
-0.468746
-0.447545
-0.422009
-0.392755
-0.362965
-0.327675
-0.494938
-0.492949
-0.490669
-0.487909
-0.484945
-0.482156
-0.479921
-0.478589
-0.478428
-0.479574
-0.481994
-0.485448
-0.489453
-0.493273
-0.495934
-0.496314
-0.493299
-0.485958
-0.473775
-0.456623
-0.435028
-0.409568
-0.381269
-0.352315
-0.318742
-0.497085
-0.495148
-0.4928
-0.489907
-0.486757
-0.483734
-0.481218
-0.479558
-0.479012
-0.4797
-0.481559
-0.484302
-0.487391
-0.490041
-0.491266
-0.489993
-0.485237
-0.476261
-0.462765
-0.444789
-0.422957
-0.397689
-0.370287
-0.341592
-0.309887
-0.499529
-0.497601
-0.495171
-0.492142
-0.488816
-0.485577
-0.482802
-0.480832
-0.47991
-0.480132
-0.481394
-0.48336
-0.48544
-0.486814
-0.486512
-0.483545
-0.477084
-0.466593
-0.451958
-0.433351
-0.411427
-0.386492
-0.359902
-0.331015
-0.301298
-0.502309
-0.500341
-0.49781
-0.494642
-0.491146
-0.487705
-0.484688
-0.482421
-0.481125
-0.48086
-0.481478
-0.48259
-0.483563
-0.483565
-0.48167
-0.477004
-0.46891
-0.457046
-0.441451
-0.422389
-0.400497
-0.376031
-0.350243
-0.321722
-0.293547
-0.505457
-0.503396
-0.500742
-0.497428
-0.493766
-0.490132
-0.486884
-0.484325
-0.482644
-0.481861
-0.481776
-0.481951
-0.481722
-0.480269
-0.476742
-0.470406
-0.460781
-0.447699
-0.431314
-0.411947
-0.390192
-0.366276
-0.341269
-0.313938
-0.287632
-0.508996
-0.506785
-0.503988
-0.500517
-0.496687
-0.492865
-0.489389
-0.486534
-0.484448
-0.483103
-0.482246
-0.481397
-0.479877
-0.476907
-0.471739
-0.463793
-0.45276
-0.438615
-0.421597
-0.402049
-0.38051
-0.357179
-0.332999
-0.30691
-0.282079
-0.512942
-0.510526
-0.507558
-0.503919
-0.499915
-0.495904
-0.492197
-0.48903
-0.486508
-0.484547
-0.482842
-0.480881
-0.477994
-0.473467
-0.466677
-0.457205
-0.444896
-0.429841
-0.412324
-0.392692
-0.37142
-0.348685
-0.325316
-0.300411
-0.276927
-0.517303
-0.514626
-0.511464
-0.507639
-0.503452
-0.499244
-0.495293
-0.491793
-0.488792
-0.486149
-0.483516
-0.480358
-0.476041
-0.469942
-0.461575
-0.450679
-0.437231
-0.421402
-0.403501
-0.383856
-0.36288
-0.34073
-0.318131
-0.294302
-0.271929
-0.522083
-0.519091
-0.515707
-0.51168
-0.507297
-0.502878
-0.498664
-0.494795
-0.491261
-0.487865
-0.484218
-0.479788
-0.473996
-0.466331
-0.456455
-0.444247
-0.429791
-0.413312
-0.395117
-0.375509
-0.354841
-0.333247
-0.311361
-0.28849
-0.267073
-0.527277
-0.523922
-0.520291
-0.516042
-0.511445
-0.506797
-0.50229
-0.498009
-0.493879
-0.489649
-0.484904
-0.479135
-0.471841
-0.46264
-0.451335
-0.437931
-0.42259
-0.405566
-0.38715
-0.367612
-0.347248
-0.326174
-0.304937
-0.28292
-0.262325
-0.532881
-0.529116
-0.525214
-0.520723
-0.515892
-0.510989
-0.506154
-0.501406
-0.496607
-0.491457
-0.485532
-0.478368
-0.469564
-0.458873
-0.446232
-0.431747
-0.415633
-0.398151
-0.379569
-0.360119
-0.340048
-0.319453
-0.298804
-0.277547
-0.257672
-0.538883
-0.53467
-0.530474
-0.52572
-0.520632
-0.515444
-0.510236
-0.504957
-0.499406
-0.493247
-0.486065
-0.477463
-0.46716
-0.455039
-0.44116
-0.425702
-0.408913
-0.391046
-0.372338
-0.352985
-0.333188
-0.313031
-0.292911
-0.272334
-0.253097
-0.545273
-0.540576
-0.536065
-0.531029
-0.52566
-0.52015
-0.514514
-0.508629
-0.502237
-0.494977
-0.486467
-0.476402
-0.464623
-0.451146
-0.436125
-0.419796
-0.402416
-0.384223
-0.365418
-0.346163
-0.326621
-0.306861
-0.287217
-0.267251
-0.248581
-0.552037
-0.546827
-0.541984
-0.536646
-0.530967
-0.525094
-0.518966
-0.512391
-0.505059
-0.496608
-0.48671
-0.475168
-0.461953
-0.447196
-0.431129
-0.414021
-0.396124
-0.37765
-0.358767
-0.339608
-0.320299
-0.3009
-0.281685
-0.262269
-0.244107
-0.55916
-0.553412
-0.548221
-0.542563
-0.536544
-0.530257
-0.523565
-0.516205
-0.507833
-0.498102
-0.486768
-0.473751
-0.45915
-0.443194
-0.426172
-0.408365
-0.390011
-0.371293
-0.352347
-0.333278
-0.314181
-0.295108
-0.276281
-0.257363
-0.23966
-0.566623
-0.560317
-0.554768
-0.548771
-0.542378
-0.535619
-0.52828
-0.520033
-0.510516
-0.499426
-0.486618
-0.472141
-0.456211
-0.439138
-0.421244
-0.40281
-0.384049
-0.365117
-0.346118
-0.327131
-0.308228
-0.28945
-0.270974
-0.25251
-0.235223
-0.574405
-0.567528
-0.56161
-0.555255
-0.54845
-0.541154
-0.533074
-0.523831
-0.513066
-0.500545
-0.48624
-0.47033
-0.453136
-0.435025
-0.416335
-0.397335
-0.378211
-0.359087
-0.340041
-0.321129
-0.302403
-0.283893
-0.265738
-0.24769
-0.230781
-0.582483
-0.575024
-0.568731
-0.561998
-0.554735
-0.546829
-0.537907
-0.527554
-0.515441
-0.501428
-0.485617
-0.468311
-0.449918
-0.430845
-0.411429
-0.391917
-0.372466
-0.353169
-0.334081
-0.315238
-0.296672
-0.278408
-0.260547
-0.242882
-0.22632
-0.590826
-0.58278
-0.576106
-0.568973
-0.561203
-0.552602
-0.542728
-0.531152
-0.517598
-0.502045
-0.484731
-0.466076
-0.446552
-0.426588
-0.406509
-0.386531
-0.366783
-0.347329
-0.328203
-0.309423
-0.291006
-0.272968
-0.255378
-0.238069
-0.221825
-0.599398
-0.590765
-0.583707
-0.57615
-0.567815
-0.558427
-0.547487
-0.534572
-0.519495
-0.502367
-0.483568
-0.463614
-0.443028
-0.422239
-0.401552
-0.38115
-0.361131
-0.341534
-0.322374
-0.303653
-0.285375
-0.267547
-0.250211
-0.233233
-0.217285
-0.60816
-0.598943
-0.591497
-0.583487
-0.574522
-0.564248
-0.552122
-0.537761
-0.521089
-0.502368
-0.48211
-0.460915
-0.439332
-0.417782
-0.396537
-0.375747
-0.355481
-0.335755
-0.316565
-0.297901
-0.279754
-0.262122
-0.245025
-0.228359
-0.212686
-0.617062
-0.607271
-0.599434
-0.590937
-0.58127
-0.570003
-0.556572
-0.540663
-0.52234
-0.502021
-0.480341
-0.457965
-0.435451
-0.413197
-0.39144
-0.370295
-0.349803
-0.329961
-0.310747
-0.29214
-0.274118
-0.256673
-0.239803
-0.223433
-0.208019
-0.626049
-0.615696
-0.607464
-0.598443
-0.587994
-0.575622
-0.56077
-0.543223
-0.523207
-0.5013
-0.478245
-0.45475
-0.431368
-0.408464
-0.386236
-0.364767
-0.34407
-0.324124
-0.304893
-0.286343
-0.268445
-0.251179
-0.234528
-0.21844
-0.203271
-0.635058
-0.624162
-0.615529
-0.60594
-0.594623
-0.581032
-0.564647
-0.545386
-0.523652
-0.50018
-0.475802
-0.451252
-0.427063
-0.403559
-0.3809
-0.359136
-0.338255
-0.318218
-0.298978
-0.28049
-0.262714
-0.245623
-0.229185
-0.213368
-0.198434
-0.644018
-0.632601
-0.623561
-0.613354
-0.601078
-0.586154
-0.568132
-0.547096
-0.523636
-0.498634
-0.472993
-0.447453
-0.422515
-0.398461
-0.375408
-0.353376
-0.332331
-0.312218
-0.292979
-0.274557
-0.256906
-0.239988
-0.22376
-0.208206
-0.193499
-0.652852
-0.640941
-0.631484
-0.620605
-0.607274
-0.590905
-0.571157
-0.5483
-0.523123
-0.496637
-0.469797
-0.443333
-0.417704
-0.393145
-0.369734
-0.347462
-0.326274
-0.306102
-0.286874
-0.268526
-0.251002
-0.234257
-0.218238
-0.202942
-0.188456
-0.661477
-0.649102
-0.639215
-0.627606
-0.613122
-0.595203
-0.57365
-0.548948
-0.522076
-0.494163
-0.466192
-0.438869
-0.412605
-0.387587
-0.363854
-0.34137
-0.320062
-0.299846
-0.280642
-0.262378
-0.244988
-0.228418
-0.21261
-0.197567
-0.183299
-0.669801
-0.656997
-0.646667
-0.634262
-0.618529
-0.598963
-0.575544
-0.548989
-0.520462
-0.491185
-0.462156
-0.43404
-0.407197
-0.381763
-0.357744
-0.335077
-0.313671
-0.29343
-0.274266
-0.256095
-0.238846
-0.222457
-0.206863
-0.192071
-0.178021
-0.67773
-0.664533
-0.653742
-0.640477
-0.623399
-0.6021
-0.576774
-0.548376
-0.518246
-0.487679
-0.457666
-0.428823
-0.401455
-0.375651
-0.351382
-0.328561
-0.307081
-0.286837
-0.267727
-0.249663
-0.232565
-0.216362
-0.200987
-0.186447
-0.172616
-0.685164
-0.671613
-0.660341
-0.646148
-0.627637
-0.604534
-0.577277
-0.547065
-0.515396
-0.483618
-0.452697
-0.423195
-0.395357
-0.369228
-0.344745
-0.321801
-0.300274
-0.280046
-0.26101
-0.243067
-0.22613
-0.210122
-0.194973
-0.180685
-0.167077
-0.691999
-0.678135
-0.666362
-0.651173
-0.631148
-0.606185
-0.576993
-0.545012
-0.511882
-0.478978
-0.447228
-0.417133
-0.38888
-0.362471
-0.337813
-0.314778
-0.293231
-0.273044
-0.2541
-0.236293
-0.219532
-0.203728
-0.188814
-0.174781
-0.1614
-0.69813
-0.683996
-0.671698
-0.655448
-0.633837
-0.606978
-0.575866
-0.54218
-0.507673
-0.473732
-0.441234
-0.410614
-0.382004
-0.355361
-0.330567
-0.307474
-0.285936
-0.265814
-0.246984
-0.229332
-0.212759
-0.197172
-0.182501
-0.168726
-0.155582
-0.703451
-0.689089
-0.676242
-0.658871
-0.635616
-0.606842
-0.573846
-0.53853
-0.502742
-0.467857
-0.434694
-0.403618
-0.374706
-0.347878
-0.322988
-0.299873
-0.278375
-0.258344
-0.239649
-0.222171
-0.205802
-0.190445
-0.17603
-0.16252
-0.149623
-0.707854
-0.69331
-0.679889
-0.661341
-0.636398
-0.60571
-0.570885
-0.53403
-0.497063
-0.461332
-0.427586
-0.396125
-0.366969
-0.340004
-0.315061
-0.291961
-0.270533
-0.250622
-0.232086
-0.214801
-0.198655
-0.183541
-0.169393
-0.156159
-0.143527
-0.711236
-0.696552
-0.682535
-0.662762
-0.636103
-0.603524
-0.566941
-0.52865
-0.490612
-0.454134
-0.419891
-0.388115
-0.358775
-0.331724
-0.306771
-0.283723
-0.2624
-0.242637
-0.224286
-0.207216
-0.191308
-0.176453
-0.162586
-0.149641
-0.137295
-0.713493
-0.698713
-0.684079
-0.663042
-0.634657
-0.600228
-0.561976
-0.522361
-0.483367
-0.446244
-0.411591
-0.379571
-0.350108
-0.323022
-0.298105
-0.275149
-0.253965
-0.23438
-0.21624
-0.199407
-0.183758
-0.169177
-0.155604
-0.142958
-0.130905
-0.714528
-0.699695
-0.684425
-0.662097
-0.631993
-0.595774
-0.555958
-0.515141
-0.475309
-0.437645
-0.402669
-0.370479
-0.340954
-0.313887
-0.289052
-0.266229
-0.24522
-0.225845
-0.207943
-0.191371
-0.175999
-0.161709
-0.148446
-0.136099
-0.124303
-0.714248
-0.699404
-0.683483
-0.659849
-0.628052
-0.590123
-0.548859
-0.506969
-0.466421
-0.428323
-0.393112
-0.360825
-0.331301
-0.304308
-0.279602
-0.256955
-0.236158
-0.217025
-0.199388
-0.183102
-0.168028
-0.154049
-0.141112
-0.129064
-0.117467
-0.712565
-0.697751
-0.68117
-0.656227
-0.622781
-0.583239
-0.540657
-0.497829
-0.456691
-0.418264
-0.382907
-0.350598
-0.32114
-0.294276
-0.269749
-0.247321
-0.226774
-0.207916
-0.190574
-0.174597
-0.159845
-0.146195
-0.1336
-0.121857
-0.110561
-0.709401
-0.694656
-0.677411
-0.651172
-0.616138
-0.575094
-0.531333
-0.48771
-0.446107
-0.407458
-0.372046
-0.339791
-0.310463
-0.283785
-0.259488
-0.237321
-0.217063
-0.198514
-0.181498
-0.165857
-0.151449
-0.138149
-0.125909
-0.114475
-0.103542
-0.704683
-0.690046
-0.67214
-0.64463
-0.608089
-0.565669
-0.520877
-0.476602
-0.434662
-0.3959
-0.360522
-0.328398
-0.299266
-0.272832
-0.248814
-0.226955
-0.207025
-0.188818
-0.172162
-0.156883
-0.142839
-0.129911
-0.118042
-0.106934
-0.0963825
-0.698349
-0.683859
-0.6653
-0.63656
-0.598606
-0.554949
-0.50928
-0.464501
-0.422353
-0.383585
-0.348331
-0.316415
-0.287546
-0.261413
-0.237727
-0.21622
-0.19666
-0.178834
-0.162562
-0.147673
-0.134018
-0.121483
-0.109999
-0.0992368
-0.0890749
-0.690346
-0.676039
-0.656846
-0.626929
-0.587673
-0.542928
-0.496542
-0.451408
-0.409179
-0.370514
-0.335475
-0.303843
-0.275302
-0.249531
-0.226228
-0.205122
-0.185969
-0.168559
-0.152703
-0.138231
-0.124989
-0.112866
-0.101786
-0.0913832
-0.081623
-0.680631
-0.666544
-0.646741
-0.615715
-0.57528
-0.529606
-0.482667
-0.437327
-0.395145
-0.356688
-0.321953
-0.290681
-0.262538
-0.237191
-0.214322
-0.193659
-0.174956
-0.157996
-0.142588
-0.12856
-0.115755
-0.104065
-0.0934065
-0.083376
-0.0740321
-0.669173
-0.65534
-0.63496
-0.602907
-0.561427
-0.514989
-0.467664
-0.422266
-0.380258
-0.342114
-0.307771
-0.276936
-0.249266
-0.224393
-0.202012
-0.181839
-0.163626
-0.147152
-0.132223
-0.118666
-0.106322
-0.0950863
-0.0848652
-0.0752197
-0.0663085
-0.655949
-0.642406
-0.62149
-0.588501
-0.546123
-0.49909
-0.451546
-0.406239
-0.364528
-0.326801
-0.29294
-0.262625
-0.235481
-0.211148
-0.189306
-0.169669
-0.151986
-0.136033
-0.121615
-0.108555
-0.096695
-0.085935
-0.076168
-0.0669199
-0.0584585
-0.64095
-0.62773
-0.606327
-0.572506
-0.529383
-0.48193
-0.434332
-0.389262
-0.347971
-0.310764
-0.277475
-0.247749
-0.221201
-0.197464
-0.176212
-0.157157
-0.140044
-0.124647
-0.110771
-0.0982355
-0.0868829
-0.0766186
-0.0673214
-0.0584835
-0.0504891
-0.624176
-0.611312
-0.589479
-0.554939
-0.511231
-0.463533
-0.416049
-0.371357
-0.330605
-0.294022
-0.261386
-0.232325
-0.206438
-0.183354
-0.162744
-0.144315
-0.127811
-0.113005
-0.0996998
-0.0877154
-0.0768938
-0.0671453
-0.0583334
-0.0499185
-0.0424076
-0.60564
-0.593165
-0.570964
-0.535824
-0.491697
-0.443933
-0.396725
-0.35255
-0.312456
-0.276591
-0.244694
-0.216369
-0.191208
-0.168834
-0.148914
-0.131155
-0.115298
-0.101117
-0.0884131
-0.0770053
-0.0667374
-0.0575244
-0.0492128
-0.0412336
-0.0342225
-0.585363
-0.573309
-0.550809
-0.515196
-0.470817
-0.423171
-0.376397
-0.332871
-0.293547
-0.258496
-0.227419
-0.199902
-0.175528
-0.153919
-0.134738
-0.117691
-0.10252
-0.0889964
-0.0769225
-0.0661166
-0.0564246
-0.047766
-0.0399694
-0.0324388
-0.0259426
-0.56338
-0.551777
-0.529052
-0.493098
-0.448642
-0.401287
-0.355099
-0.312356
-0.273908
-0.239763
-0.209586
-0.182946
-0.15942
-0.138629
-0.120234
-0.103941
-0.0894905
-0.076657
-0.0652412
-0.0550616
-0.0459672
-0.0378816
-0.0306139
-0.023545
-0.017578
-0.539733
-0.528611
-0.505742
-0.469594
-0.425253
-0.378293
-0.332866
-0.291038
-0.253574
-0.220425
-0.191222
-0.165525
-0.142907
-0.122984
-0.10542
-0.0899208
-0.0762272
-0.0641143
-0.0533836
-0.0438541
-0.0353784
-0.0278833
-0.0211583
-0.014564
-0.00913946
-0.514472
-0.503862
-0.480935
-0.444758
-0.400732
-0.354212
-0.309739
-0.268962
-0.232583
-0.200513
-0.172359
-0.147669
-0.126013
-0.107008
-0.090319
-0.075651
-0.0627476
-0.0513848
-0.0413651
-0.0325086
-0.0246719
-0.0177843
-0.0116149
-0.00550897
-0.000639397
-0.487657
-0.477595
-0.454704
-0.418634
-0.37492
-0.329295
-0.285797
-0.246172
-0.210975
-0.180065
-0.153028
-0.129406
-0.108766
-0.0907261
-0.0749523
-0.0611522
-0.0490709
-0.0384863
-0.0292023
-0.0210407
-0.0138626
-0.00759865
-0.00199741
0.0036058
0.00790853
-0.459355
-0.449886
-0.427135
-0.391249
-0.34808
-0.303452
-0.261088
-0.222719
-0.188794
-0.15912
-0.133266
-0.110768
-0.0911947
-0.0741644
-0.059345
-0.0464469
-0.0352177
-0.0254376
-0.0169126
-0.00946675
-0.00296612
0.00265869
0.00767924
0.0127634
0.0164884
-0.429641
-0.420819
-0.398311
-0.36264
-0.320297
-0.27676
-0.23567
-0.198657
-0.166087
-0.13772
-0.113111
-0.0917917
-0.0733313
-0.0573516
-0.0435229
-0.0315587
-0.0212096
-0.0122587
-0.00451425
0.00219621
0.00800134
0.0129723
0.017399
0.0219436
0.0250773
-0.398598
-0.390483
-0.368169
-0.333064
-0.291616
-0.249298
-0.209602
-0.174041
-0.142903
-0.115909
-0.0926029
-0.072512
-0.0552087
-0.0403179
-0.0275136
-0.0165126
-0.00706931
0.00102982
0.00797375
0.0139307
0.0190233
0.0233264
0.027146
0.031125
0.0336436
-0.366306
-0.359002
-0.336881
-0.302532
-0.262117
-0.221142
-0.182949
-0.148928
-0.119294
-0.0937355
-0.0717839
-0.0529677
-0.0368617
-0.023095
-0.0113456
-0.0013347
0.00717935
0.0144063
0.0205318
0.0257185
0.0300824
0.0337051
0.0369068
0.0402917
0.0421658
-0.332841
-0.326383
-0.304696
-0.271126
-0.231884
-0.192371
-0.155779
-0.123379
-0.0953148
-0.0712472
-0.0506987
-0.0331989
-0.0183268
-0.00571591
0.00495087
0.0139478
0.0215118
0.0278486
0.0331398
0.0375407
0.04116
0.0440922
0.0466717
0.0494361
0.0506424
-0.298382
-0.292801
-0.271627
-0.238945
-0.201003
-0.163063
-0.128164
-0.0974565
-0.0710222
-0.0484954
-0.0293932
-0.0132473
0.00035835
0.0117851
0.0213449
0.0293067
0.0359025
0.0413338
0.0457771
0.0493779
0.0522379
0.0544749
0.0564331
0.0585262
0.0589779
-0.263153
-0.258253
-0.237761
-0.206089
-0.169565
-0.133302
-0.100176
-0.0712258
-0.0464742
-0.0255329
-0.00791514
0.00684373
0.0191545
0.0293726
0.0378043
0.044713
0.0503254
0.0548385
0.0584227
0.0612111
0.063303
0.064852
0.0661817
0.0674404
0.0668091
-0.227129
-0.222934
-0.203207
-0.172661
-0.137665
-0.103169
-0.0718892
-0.0447538
-0.0217309
-0.00241379
0.0136864
0.0270299
0.0380214
0.0470101
0.0542959
0.0601366
0.0647535
0.0683386
0.0710547
0.073023
0.0743501
0.0752347
0.0759017
0.0760132
0.0738112
-0.190419
-0.186981
-0.168082
-0.138766
-0.105397
-0.0727512
-0.0433804
-0.0181086
0.00314591
0.0208062
0.0353611
0.0472657
0.0569179
0.0646601
0.070786
0.0755471
0.079159
0.0818087
0.0836503
0.0847963
0.0853736
0.0856181
0.0855514
0.0842813
0.0807993
-0.153158
-0.150511
-0.132501
-0.104511
-0.0728601
-0.042135
-0.0147272
0.00863984
0.0280937
0.0440704
0.0570578
0.0675047
0.0758018
0.0822846
0.08724
0.0909129
0.0935136
0.0952228
0.0961862
0.0965129
0.0963548
0.0959501
0.0950487
0.0924681
0.0903316
-0.115475
-0.113646
-0.0965856
-0.0700066
-0.0401516
-0.0114084
0.0139917
0.035421
0.0530487
0.0673214
0.0787243
0.0876996
0.0946305
0.0998449
0.103623
0.106202
0.107788
0.108554
0.108639
0.108152
0.107262
0.106164
0.10442
0.101113
0.099846
-0.0774991
-0.0765098
-0.0604542
-0.0353627
-0.00737118
0.0193396
0.0426968
0.0621635
0.0779465
0.0905009
0.100308
0.107803
0.113361
0.117302
0.119898
0.121383
0.121953
0.121777
0.120986
0.119692
0.118069
0.116256
0.11375
0.109978
0.108853
-0.0393609
-0.0392266
-0.024228
-0.000690077
0.0253814
0.0500198
0.0713081
0.0887954
0.102722
0.11355
0.121756
0.127766
0.131949
0.134615
0.136031
0.136422
0.135979
0.134863
0.133201
0.131107
0.128748
0.12622
0.123032
0.118871
0.117554
-0.00119131
-0.00192323
0.0119725
0.0339003
0.0580065
0.0805431
0.0997457
0.115245
0.127311
0.136411
0.143015
0.147542
0.150351
0.151746
0.151985
0.151287
0.149835
0.147785
0.14526
0.142371
0.139277
0.136046
0.132223
0.127657
0.125976
0.0368789
0.0352735
0.0480267
0.0682982
0.0904046
0.11082
0.12793
0.141439
0.151648
0.159023
0.164031
0.167081
0.168524
0.168655
0.167725
0.165944
0.163492
0.160517
0.157136
0.153461
0.149638
0.145717
0.141285
0.136287
0.134151
0.0747194
0.0722371
0.0838149
0.102394
0.122477
0.140763
0.155781
0.167308
0.175668
0.18133
0.184752
0.186336
0.186423
0.185301
0.183213
0.180362
0.17692
0.17303
0.168805
0.164352
0.159808
0.155213
0.150186
0.144733
0.142091
0.112201
0.108842
0.119218
0.136079
0.154127
0.170284
0.18322
0.19278
0.199307
0.203272
0.205125
0.205259
0.204006
0.201647
0.198415
0.194508
0.19009
0.185299
0.180242
0.175022
0.169768
0.164512
0.158899
0.15298
0.149803
0.149195
0.144964
0.154121
0.169247
0.185258
0.199298
0.21017
0.217784
0.222502
0.224792
0.225098
0.223803
0.22123
0.217652
0.213295
0.208349
0.202972
0.197295
0.191421
0.185448
0.179498
0.173593
0.167404
0.161013
0.157285
0.185577
0.18048
0.188406
0.201793
0.215775
0.227718
0.236555
0.242253
0.24519
0.245834
0.244619
0.241921
0.238053
0.23328
0.227819
0.221855
0.215538
0.208994
0.20232
0.19561
0.188976
0.182437
0.175683
0.168821
0.164535
0.221221
0.215271
0.221963
0.233614
0.245587
0.255463
0.262299
0.266118
0.267311
0.266342
0.26364
0.259568
0.254434
0.248492
0.241953
0.234994
0.22776
0.220369
0.212914
0.205484
0.198185
0.191027
0.183721
0.176394
0.171545
0.256009
0.24922
0.254681
0.264611
0.274603
0.282451
0.287331
0.289313
0.288804
0.286263
0.28211
0.2767
0.270332
0.263251
0.255663
0.247737
0.23961
0.231395
0.223182
0.215052
0.207104
0.199344
0.191503
0.183718
0.17831
0.289821
0.282212
0.286453
0.294686
0.302736
0.308604
0.311578
0.311775
0.309612
0.305543
0.299981
0.293273
0.285707
0.277523
0.268918
0.260053
0.251061
0.242049
0.2331
0.224293
0.215717
0.207373
0.199013
0.190784
0.18482
0.322546
0.314137
0.317178
0.323747
0.329903
0.333847
0.334973
0.333442
0.329678
0.324133
0.317209
0.309246
0.300523
0.291273
0.281685
0.271915
0.262088
0.252307
0.242649
0.233187
0.224005
0.215098
0.206239
0.197578
0.191069
0.354072
0.34489
0.346756
0.351703
0.356021
0.358106
0.35745
0.354253
0.348948
0.341982
0.333748
0.324577
0.314742
0.304468
0.293935
0.283295
0.272667
0.262146
0.251806
0.241717
0.231952
0.222505
0.213168
0.20409
0.197047
0.384295
0.374369
0.375092
0.378467
0.381014
0.381311
0.378945
0.374152
0.367371
0.359043
0.349555
0.339229
0.32833
0.317075
0.30564
0.294167
0.282772
0.271545
0.260554
0.249864
0.239541
0.229578
0.219785
0.210309
0.202747
0.413115
0.402476
0.402095
0.403959
0.404808
0.403395
0.399398
0.393084
0.384896
0.375272
0.36459
0.353164
0.341253
0.329065
0.31677
0.304506
0.292382
0.280483
0.268873
0.257612
0.246759
0.236305
0.22608
0.216223
0.208159
0.440437
0.42912
0.427681
0.4281
0.427332
0.424297
0.418752
0.410997
0.401478
0.390627
0.378814
0.366348
0.353478
0.340408
0.327301
0.314289
0.301475
0.288941
0.276746
0.264944
0.25359
0.242673
0.23204
0.221823
0.213277
0.466171
0.454215
0.451769
0.450817
0.448521
0.443955
0.436954
0.427843
0.417071
0.405066
0.392192
0.378747
0.364977
0.351078
0.337208
0.323493
0.310031
0.2969
0.284156
0.271847
0.260021
0.248669
0.237655
0.227098
0.218092
0.490234
0.477679
0.474284
0.472043
0.468313
0.462316
0.453954
0.443576
0.431635
0.418553
0.404688
0.390331
0.375721
0.361048
0.346467
0.332096
0.318031
0.304344
0.291087
0.278305
0.26604
0.254281
0.242913
0.232038
0.222599
0.512547
0.499438
0.495156
0.491714
0.486652
0.479327
0.469704
0.458154
0.445131
0.431053
0.416271
0.40107
0.385684
0.370297
0.355057
0.340081
0.325458
0.311256
0.297525
0.284305
0.271634
0.2595
0.247805
0.236636
0.226789
0.533041
0.519423
0.514322
0.509772
0.503485
0.494941
0.484162
0.471538
0.457525
0.442534
0.426912
0.410939
0.394842
0.378801
0.362959
0.347428
0.332294
0.317622
0.303457
0.289837
0.276793
0.264316
0.252321
0.240882
0.230658
0.551651
0.537572
0.531723
0.526165
0.518766
0.509116
0.497289
0.483693
0.468783
0.452967
0.436586
0.419914
0.403174
0.386541
0.370155
0.354122
0.338526
0.323428
0.30887
0.294888
0.281506
0.268718
0.256454
0.24477
0.2342
0.568318
0.553828
0.547308
0.540846
0.532451
0.521813
0.509051
0.494587
0.478877
0.462326
0.445268
0.427973
0.41066
0.3935
0.376628
0.360148
0.344141
0.328662
0.313755
0.299448
0.285766
0.272701
0.260195
0.248292
0.237411
0.582991
0.568144
0.561032
0.553773
0.544503
0.532999
0.519418
0.504193
0.487784
0.470588
0.452937
0.435098
0.417284
0.399662
0.382365
0.365494
0.349126
0.333315
0.318101
0.30351
0.289564
0.276255
0.263539
0.251443
0.240285
0.595628
0.580476
0.572856
0.564912
0.554891
0.542644
0.528362
0.512488
0.49548
0.477734
0.459577
0.441272
0.423029
0.405014
0.387354
0.370148
0.353471
0.337376
0.321899
0.307066
0.292893
0.279376
0.266479
0.254218
0.24282
0.606191
0.59079
0.582746
0.574233
0.563589
0.550725
0.535862
0.519451
0.501947
0.483746
0.465171
0.446482
0.427885
0.409544
0.391584
0.374102
0.35717
0.340839
0.325144
0.31011
0.295749
0.282058
0.269011
0.256611
0.245011
0.614651
0.599057
0.590677
0.581712
0.570573
0.557223
0.541902
0.525066
0.507172
0.488613
0.469709
0.450717
0.431842
0.413244
0.395047
0.377347
0.360214
0.343697
0.32783
0.312636
0.298125
0.284297
0.27113
0.258621
0.246859
0.620987
0.605257
0.59663
0.587332
0.57583
0.562124
0.546467
0.529322
0.511144
0.492325
0.473181
0.453969
0.434891
0.416106
0.397738
0.379879
0.362598
0.345945
0.329952
0.31464
0.30002
0.286089
0.272834
0.260244
0.248362
0.625184
0.609376
0.600591
0.591081
0.579349
0.565417
0.549549
0.532211
0.513856
0.494874
0.475581
0.456232
0.437029
0.418128
0.399652
0.381693
0.36432
0.347581
0.331508
0.316121
0.30143
0.287433
0.27412
0.26148
0.24952
0.627236
0.611408
0.602556
0.592954
0.581125
0.567099
0.551146
0.533729
0.515304
0.496258
0.476908
0.457505
0.438252
0.419306