/*--------------------------------*- C++ -*----------------------------------*\
  =========                 |
  \\      /  F ield         | OpenFOAM: The Open Source CFD Toolbox
   \\    /   O peration     | Website:  https://openfoam.org
    \\  /    A nd           | Version:  7
     \\/     M anipulation  |
\*---------------------------------------------------------------------------*/
FoamFile
{
    version     2.0;
    format      ascii;
    class       volVectorField;
    location    "130";
    object      U;
}
// * * * * * * * * * * * * * * * * * * * * * * * * * * * * * * * * * * * * * //

dimensions      [0 1 -1 0 0 0 0];

internalField   nonuniform List<vector> 
31800
(
(-0.0011626 0.0461117 -1.43288e-20)
(-0.00522638 0.110391 9.87004e-21)
(-0.0127995 0.153367 -3.20085e-21)
(-0.0227693 0.1789 1.42643e-20)
(-0.0346718 0.190882 1.59261e-20)
(-0.0480492 0.192971 -5.21655e-21)
(-0.0624563 0.188295 -3.75913e-21)
(-0.0775206 0.179242 2.68397e-20)
(-0.0929358 0.16738 -3.03672e-21)
(-0.108449 0.153485 4.46492e-21)
(-0.123847 0.137687 1.54423e-20)
(-0.138936 0.11966 1.52963e-20)
(-0.153525 0.0988159 -9.7118e-21)
(-0.167413 0.0744596 -1.22987e-20)
(-0.180375 0.045897 -4.83257e-22)
(-0.192155 0.0125071 -1.59917e-20)
(-0.202457 -0.0262004 1.26103e-20)
(-0.210953 -0.0705083 2.12944e-20)
(-0.217296 -0.120419 -8.05739e-21)
(-0.221132 -0.175552 3.61647e-20)
(-0.222139 -0.235051 2.26717e-21)
(-0.220064 -0.297507 -2.78088e-21)
(-0.214804 -0.360914 5.84752e-21)
(-0.206607 -0.422759 1.17526e-20)
(-0.195211 -0.480516 7.16714e-21)
(-0.00227411 0.0471633 1.47711e-20)
(-0.00751866 0.113352 8.39433e-21)
(-0.0152897 0.158028 -8.82604e-21)
(-0.0248757 0.184996 -3.32489e-20)
(-0.0360116 0.198113 2.4909e-20)
(-0.048377 0.201044 -1.22181e-20)
(-0.0616167 0.196943 7.12125e-22)
(-0.0754041 0.18824 -2.06076e-20)
(-0.089447 0.176544 4.45019e-21)
(-0.103488 0.162669 3.02606e-21)
(-0.117297 0.146769 -6.60403e-20)
(-0.130664 0.128532 -9.65505e-22)
(-0.143384 0.107375 7.56625e-20)
(-0.155248 0.0825958 -3.88627e-20)
(-0.166032 0.0534858 -7.45691e-21)
(-0.175488 0.0194059 1.59544e-20)
(-0.183341 -0.0201512 -3.4394e-20)
(-0.189304 -0.0654841 -1.20426e-21)
(-0.19308 -0.116602 3.45671e-20)
(-0.194394 -0.173117 -1.26353e-19)
(-0.193015 -0.234146 -3.94962e-20)
(-0.188804 -0.298221 5.84846e-20)
(-0.181805 -0.363252 2.89101e-20)
(-0.172568 -0.426526 4.90086e-21)
(-0.160369 -0.485368 -1.0409e-20)
(-0.00341601 0.0479375 -3.16085e-20)
(-0.00987506 0.11572 -6.16581e-22)
(-0.0178234 0.16195 -4.29081e-20)
(-0.0269622 0.190314 6.34297e-20)
(-0.0372284 0.20459 -7.15647e-20)
(-0.0484424 0.208409 -7.2406e-21)
(-0.0603417 0.204933 -6.61929e-21)
(-0.0726482 0.196619 1.24694e-20)
(-0.085085 0.185116 4.04813e-20)
(-0.0973878 0.171275 -6.76476e-21)
(-0.109311 0.155283 -1.33288e-20)
(-0.120624 0.13685 4.53839e-20)
(-0.131107 0.115401 -7.058e-21)
(-0.14054 0.0902339 4.39502e-20)
(-0.148694 0.0606311 -9.30325e-20)
(-0.155332 0.0259403 -3.92079e-20)
(-0.160201 -0.0143586 5.74308e-21)
(-0.163046 -0.0605749 -1.30195e-19)
(-0.163628 -0.112721 3.63512e-20)
(-0.161735 -0.1704 7.84435e-20)
(-0.157225 -0.2327 -5.24632e-20)
(-0.150065 -0.298093 -1.19786e-19)
(-0.140396 -0.36441 -5.7816e-20)
(-0.129131 -0.42869 -1.06272e-19)
(-0.11471 -0.488191 -5.50281e-20)
(-0.0045693 0.0484174 1.45174e-20)
(-0.0122604 0.117448 -2.45519e-20)
(-0.0203663 0.165064 7.78474e-20)
(-0.0290034 0.194769 -6.219e-20)
(-0.0383087 0.210214 -1.68349e-20)
(-0.0482445 0.214963 -4.92882e-21)
(-0.0586445 0.212158 5.16746e-20)
(-0.0692807 0.204273 3.77066e-20)
(-0.0798932 0.192989 -6.53353e-20)
(-0.090213 0.179198 2.8096e-20)
(-0.099977 0.163124 5.54018e-22)
(-0.108935 0.144507 -1.28558e-19)
(-0.116847 0.122786 -4.1894e-20)
(-0.123482 0.0972651 3.43828e-21)
(-0.12861 0.0672244 2.87008e-20)
(-0.132 0.0320038 1.36616e-19)
(-0.133419 -0.00892456 1.65179e-20)
(-0.132651 -0.0558793 1.32335e-19)
(-0.129503 -0.108871 1.38941e-19)
(-0.123829 -0.167495 -1.73224e-20)
(-0.115561 -0.230813 5.84855e-20)
(-0.104771 -0.297238 -2.59005e-20)
(-0.091635 -0.364531 7.50401e-20)
(-0.0775756 -0.429446 2.38222e-19)
(-0.0596603 -0.489279 3.3223e-20)
(-0.00571411 0.0485916 2.56531e-20)
(-0.0146377 0.118501 -9.32403e-20)
(-0.0228834 0.167313 1.20201e-19)
(-0.0309745 0.198285 4.42235e-20)
(-0.0392421 0.214898 3.41038e-20)
(-0.0477893 0.22061 3.64445e-20)
(-0.0565476 0.218521 -1.97096e-19)
(-0.0653421 0.211102 7.47264e-20)
(-0.0739327 0.200064 7.78165e-20)
(-0.0820472 0.186339 -1.15722e-19)
(-0.0894065 0.170195 1.21175e-19)
(-0.0957396 0.151403 6.65435e-20)
(-0.100789 0.129431 8.6068e-20)
(-0.104312 0.103591 -6.01888e-20)
(-0.106073 0.0731684 -1.41373e-20)
(-0.10585 0.0374999 2.99231e-19)
(-0.103434 -0.00394556 -1.29115e-19)
(-0.0986413 -0.0514889 1.04625e-19)
(-0.0913264 -0.105143 -2.48879e-19)
(-0.0814015 -0.164496 -1.04256e-19)
(-0.0688635 -0.228587 9.48295e-20)
(-0.0538934 -0.29577 1.66051e-19)
(-0.0366204 -0.363758 2.92593e-20)
(-0.0192532 -0.429027 -2.0359e-19)
(0.00326215 -0.488828 -1.38142e-19)
(-0.00683033 0.0484543 -1.02785e-19)
(-0.0169694 0.118855 -3.386e-20)
(-0.0253392 0.168651 -7.11021e-20)
(-0.0328521 0.200798 -6.89109e-20)
(-0.0400219 0.218562 4.96384e-20)
(-0.0470887 0.225263 -9.00041e-20)
(-0.0540825 0.223928 -5.98255e-20)
(-0.0608847 0.217014 -2.92137e-19)
(-0.0672784 0.206249 1.3229e-20)
(-0.0729915 0.192608 -3.9088e-21)
(-0.0777312 0.176404 -2.33357e-19)
(-0.0812074 0.157452 -8.2886e-20)
(-0.0831454 0.135248 -1.00827e-19)
(-0.0832894 0.109125 2.00951e-19)
(-0.0814037 0.0783761 5.9393e-20)
(-0.077274 0.0423425 -1.61255e-19)
(-0.0707107 0.000491827 -1.90775e-19)
(-0.0615662 -0.0474891 5.75557e-20)
(-0.0497371 -0.101625 2.12401e-19)
(-0.0351867 -0.161497 -4.94515e-20)
(-0.0179628 -0.226128 -2.81727e-20)
(0.00161986 -0.293813 -1.27024e-19)
(0.023585 -0.36223 -1.58981e-19)
(0.0446106 -0.427748 1.23889e-19)
(0.0725447 -0.486677 7.7632e-20)
(-0.00789782 0.0480072 5.2515e-20)
(-0.0192176 0.118499 6.18095e-20)
(-0.027699 0.169047 -4.93255e-20)
(-0.0346143 0.202257 -1.02111e-19)
(-0.0406443 0.22114 1.58503e-20)
(-0.0461598 0.228843 1.19704e-19)
(-0.0512884 0.228296 1.72524e-19)
(-0.0559708 0.221921 2.39134e-19)
(-0.0600176 0.211458 4.27202e-20)
(-0.0631612 0.197921 5.47401e-20)
(-0.0650985 0.181672 6.76842e-20)
(-0.0655232 0.162574 2.70233e-19)
(-0.0641444 0.140159 -1.60348e-20)
(-0.0606964 0.113788 -3.63449e-19)
(-0.054942 0.0827694 2.68234e-19)
(-0.0466759 0.046453 1.10547e-19)
(-0.0357237 0.0043103 3.49552e-19)
(-0.0219736 -0.0439635 -1.4185e-19)
(-0.00535971 -0.098409 -1.71999e-19)
(0.0141124 -0.158599 4.93162e-19)
(0.0363611 -0.223548 -1.67494e-19)
(0.0609011 -0.291505 -2.49246e-19)
(0.0879614 -0.360047 -6.58521e-20)
(0.113076 -0.425681 -1.94374e-19)
(0.146829 -0.483194 2.94999e-20)
(-0.00889829 0.0472585 1.3194e-20)
(-0.0213468 0.117437 -2.72544e-20)
(-0.0299294 0.168488 5.51093e-21)
(-0.0362405 0.202627 -1.89432e-19)
(-0.0411083 0.222577 -1.46191e-19)
(-0.0450237 0.231283 -2.75324e-20)
(-0.0482103 0.231549 -7.28489e-20)
(-0.0506704 0.225745 -1.30817e-19)
(-0.0522469 0.215614 -2.87159e-20)
(-0.0526818 0.202202 -1.60222e-20)
(-0.0516669 0.185925 -1.47379e-19)
(-0.0488827 0.166696 6.52692e-20)
(-0.0440254 0.144093 4.88471e-20)
(-0.0368204 0.11751 2.69246e-19)
(-0.0270299 0.0862779 -1.93892e-21)
(-0.0144571 0.0497607 -1.69255e-19)
(0.00106232 0.00744046 -1.8002e-20)
(0.0196122 -0.0410056 7.90524e-20)
(0.0412224 -0.0955977 3.20534e-19)
(0.0658559 -0.155914 -2.34561e-19)
(0.0934088 -0.220968 6.29536e-19)
(0.123204 -0.28896 2.57966e-19)
(0.155738 -0.357333 -1.90112e-19)
(0.18502 -0.422785 3.50326e-19)
(0.225278 -0.478807 1.83409e-19)
(-0.00981498 0.0462228 1.75211e-20)
(-0.0233236 0.115685 8.37606e-20)
(-0.0319994 0.166977 2.38643e-19)
(-0.0377126 0.20189 2.95132e-19)
(-0.0414149 0.222835 1.76152e-19)
(-0.0437049 0.232526 -1.24479e-19)
(-0.0448977 0.233621 3.03722e-19)
(-0.0450591 0.228417 3.55983e-20)
(-0.0440692 0.218645 -1.84035e-19)
(-0.0416857 0.205383 2.00515e-20)
(-0.0376008 0.189097 3.54262e-19)
(-0.0314867 0.169757 -3.86818e-19)
(-0.0230293 0.14699 -2.2586e-19)
(-0.0119468 0.120229 -4.54747e-20)
(0.00200042 0.088836 -3.84249e-19)
(0.0190041 0.0521931 -2.58567e-19)
(0.0392107 0.00979334 4.7693e-20)
(0.0627008 -0.0387001 -5.58465e-19)
(0.0894876 -0.0932881 6.08883e-20)
(0.119487 -0.153559 -2.72752e-19)
(0.152604 -0.218517 -3.3571e-19)
(0.187875 -0.286308 3.10926e-19)
(0.226267 -0.354221 3.33744e-19)
(0.259638 -0.419202 -2.53719e-19)
(0.306845 -0.47336 3.20592e-19)
(-0.0106335 0.0449204 -2.02533e-19)
(-0.0251183 0.113275 1.47965e-19)
(-0.0338811 0.164532 -9.76471e-21)
(-0.0390147 0.200044 5.95542e-20)
(-0.0415672 0.22189 5.64775e-20)
(-0.0422294 0.232532 2.50428e-19)
(-0.041402 0.234457 -1.82205e-19)
(-0.0392149 0.229873 -3.44441e-19)
(-0.0355903 0.220488 1.74318e-19)
(-0.0303077 0.207402 1.65033e-19)
(-0.023066 0.191129 -5.66005e-19)
(-0.0135343 0.171698 4.05518e-19)
(-0.00139153 0.148792 6.31114e-19)
(0.0136503 0.121889 4.59534e-20)
(0.0318341 0.0903821 -1.18889e-19)
(0.053351 0.0536781 3.42038e-19)
(0.0783416 0.0112795 -1.6075e-19)
(0.106884 -0.0371377 7.36164e-19)
(0.138996 -0.0915893 -6.58035e-19)
(0.17455 -0.15166 1.19885e-19)
(0.213477 -0.21633 -6.26392e-20)
(0.254413 -0.28372 -1.99569e-19)
(0.298973 -0.350778 -1.88738e-19)
(0.336311 -0.4151 1.4524e-19)
(0.390552 -0.466839 3.35384e-20)
(-0.0113423 0.0433777 1.33561e-19)
(-0.0267061 0.110249 -9.49437e-20)
(-0.0355509 0.161191 7.96563e-20)
(-0.0401339 0.197106 -2.63774e-19)
(-0.0415698 0.219737 -5.79669e-20)
(-0.0406243 0.231274 3.00506e-20)
(-0.0377754 0.234015 -6.81662e-20)
(-0.0332164 0.230063 -1.13981e-19)
(-0.0269155 0.221087 3.68764e-20)
(-0.0186809 0.208202 -1.94413e-19)
(-0.00822392 0.191966 3.67941e-19)
(0.00478367 0.172469 -8.49358e-20)
(0.0206668 0.149449 -2.23113e-19)
(0.0397194 0.122436 -2.3451e-19)
(0.0621904 0.0908601 3.20702e-19)
(0.0882774 0.0541535 1.80531e-19)
(0.118128 0.0118321 7.23204e-20)
(0.151829 -0.0364177 -6.18248e-19)
(0.189414 -0.0906189 6.54246e-19)
(0.230708 -0.150351 -2.16145e-19)
(0.275686 -0.21454 -9.92761e-20)
(0.322446 -0.281334 -7.31116e-20)
(0.373368 -0.347092 -7.67488e-20)
(0.414495 -0.41053 2.53121e-19)
(0.475461 -0.459233 -3.75116e-19)
(-0.0119334 0.0416257 -4.94759e-20)
(-0.0280681 0.106664 2.14851e-19)
(-0.03699 0.157005 -3.04542e-19)
(-0.04106 0.193113 1.21774e-19)
(-0.0414284 0.216387 6.81471e-20)
(-0.0389161 0.22874 -1.02279e-19)
(-0.034068 0.232266 3.00367e-19)
(-0.0271389 0.228946 7.29252e-20)
(-0.018146 0.220395 3.5824e-20)
(-0.00693152 0.207734 3.05187e-19)
(0.00677393 0.191562 -1.26272e-19)
(0.0232914 0.172022 1.39754e-19)
(0.042947 0.148916 -1.483e-19)
(0.0660415 0.121824 -9.45758e-21)
(0.092835 0.0902174 -1.6993e-19)
(0.123541 0.0535568 -6.04371e-19)
(0.158327 0.0113751 1.27123e-19)
(0.197302 -0.0366338 5.03541e-19)
(0.240527 -0.0904881 -1.7511e-19)
(0.287763 -0.149756 8.54945e-19)
(0.339022 -0.21326 -4.72465e-19)
(0.391724 -0.279246 -1.3073e-19)
(0.449022 -0.343229 -2.12372e-19)
(0.493679 -0.405469 3.28041e-21)
(0.560619 -0.450497 -1.75807e-19)
(-0.0124023 0.0396989 -1.50674e-19)
(-0.0291917 0.102584 -2.20841e-19)
(-0.0381854 0.152044 -1.18845e-19)
(-0.0417865 0.188118 1.11549e-19)
(-0.0411492 0.211872 3.52128e-20)
(-0.0371289 0.224938 2.01449e-20)
(-0.0303257 0.229197 7.7757e-20)
(-0.0210513 0.226492 -3.81751e-19)
(-0.00937395 0.218375 1.28453e-19)
(0.00482581 0.205958 -2.66856e-19)
(0.0217926 0.189873 -9.97798e-20)
(0.0418362 0.170318 -1.35138e-19)
(0.0652827 0.147152 -2.94762e-19)
(0.0924424 0.120009 6.18969e-19)
(0.123593 0.0884056 3.60976e-19)
(0.158977 0.0518306 9.74815e-20)
(0.198797 0.00983644 3.143e-19)
(0.243194 -0.0378711 -4.66585e-19)
(0.292261 -0.0912917 -1.17087e-19)
(0.345661 -0.149974 -5.56586e-19)
(0.403404 -0.212563 2.13634e-19)
(0.462099 -0.277491 4.58893e-19)
(0.525536 -0.339194 2.01907e-19)
(0.573336 -0.399826 -3.60992e-19)
(0.645011 -0.440553 4.09926e-19)
(-0.0127485 0.0376351 -5.4616e-20)
(-0.0300712 0.098086 1.47321e-20)
(-0.0391301 0.146389 1.50962e-19)
(-0.04231 0.18219 2.69507e-19)
(-0.0407384 0.206239 -1.80364e-19)
(-0.0352836 0.219891 1.74646e-19)
(-0.0265872 0.224808 -1.37375e-19)
(-0.0150124 0.222685 5.23215e-19)
(-0.000677647 0.214998 -3.70776e-19)
(0.0164949 0.202839 7.98904e-20)
(0.0367215 0.186865 3.54462e-19)
(0.0602982 0.16732 -5.00665e-20)
(0.0875517 0.144121 4.0795e-20)
(0.118807 0.116955 -5.03028e-19)
(0.15437 0.0853818 -4.37199e-19)
(0.194523 0.0489245 -1.61114e-20)
(0.23952 0.00715621 -5.01433e-19)
(0.28954 -0.0401968 1.90006e-19)
(0.344694 -0.0930956 -2.63865e-19)
(0.404496 -0.151055 3.48261e-19)
(0.468861 -0.212466 -4.6647e-19)
(0.53348 -0.276012 2.69175e-19)
(0.6025 -0.334916 -2.16022e-19)
(0.652866 -0.393437 2.81704e-19)
(0.727539 -0.429288 -1.48916e-20)
(-0.0129753 0.0354733 2.96058e-19)
(-0.0307083 0.0932489 7.56166e-20)
(-0.0398238 0.140133 -1.67712e-19)
(-0.0426309 0.175416 -2.00856e-19)
(-0.0402013 0.199557 1.35498e-19)
(-0.0333954 0.213643 -4.98497e-19)
(-0.0228813 0.219119 7.13978e-19)
(-0.00906602 0.217527 1.40868e-19)
(0.0078842 0.210251 2.33577e-19)
(0.0280052 0.198356 2.89763e-19)
(0.0514836 0.18251 1.86952e-19)
(0.0786014 0.162999 -1.43243e-19)
(0.109689 0.139792 -5.50462e-21)
(0.145095 0.112629 -7.08641e-20)
(0.185164 0.0811124 -2.21407e-19)
(0.230234 0.0448003 5.08525e-19)
(0.280619 0.00329477 1.06255e-18)
(0.33653 -0.043647 6.65159e-20)
(0.398062 -0.0959186 3.7595e-19)
(0.464493 -0.152984 -1.95267e-19)
(0.535492 -0.212901 2.37231e-19)
(0.605765 -0.274652 -1.35365e-18)
(0.679429 -0.330231 6.12162e-19)
(0.731531 -0.386076 3.55503e-19)
(0.807033 -0.416583 -2.24662e-19)
(-0.01309 0.0332534 -1.77431e-19)
(-0.0311119 0.0881578 -3.02745e-19)
(-0.0402724 0.133377 2.9005e-19)
(-0.0427521 0.167896 1.89221e-19)
(-0.0395414 0.191908 1.02104e-19)
(-0.031472 0.206254 3.61004e-19)
(-0.0192234 0.212168 -3.76144e-19)
(-0.00323659 0.211032 -3.49379e-19)
(0.0162795 0.204135 -2.30467e-19)
(0.039321 0.192497 -5.51645e-19)
(0.0660464 0.176791 1.08968e-19)
(0.0967276 0.157336 -4.47144e-20)
(0.131706 0.134147 8.30461e-19)
(0.171361 0.107012 3.48406e-19)
(0.216093 0.0755789 2.57262e-19)
(0.266306 0.0394428 -8.16416e-20)
(0.322374 -0.00175534 -4.82015e-19)
(0.384515 -0.0482104 -3.98547e-19)
(0.452733 -0.0997132 -4.72713e-19)
(0.525952 -0.155653 3.38951e-19)
(0.603388 -0.213702 6.29538e-19)
(0.678746 -0.273152 6.87377e-19)
(0.755706 -0.324901 -6.1912e-19)
(0.808419 -0.377485 2.44218e-19)
(0.882285 -0.402345 3.02059e-19)
(-0.0131034 0.0310145 -4.68873e-19)
(-0.0312977 0.0828993 2.59642e-19)
(-0.0404875 0.12623 -4.39808e-19)
(-0.0426789 0.159737 5.39713e-19)
(-0.0387587 0.183391 -5.15014e-19)
(-0.0295111 0.197805 -1.54341e-19)
(-0.0156113 0.204013 -2.88778e-19)
(0.00247719 0.203239 1.63979e-19)
(0.0245107 0.196668 -2.82873e-19)
(0.0504515 0.185269 3.1437e-19)
(0.0804358 0.169709 -4.16698e-19)
(0.114732 0.150328 -3.15553e-19)
(0.153703 0.127181 8.20239e-21)
(0.197774 0.100103 -5.0742e-19)
(0.247412 0.0687864 8.81451e-21)
(0.303091 0.0328692 -5.35644e-19)
(0.365226 -0.00795488 -3.17359e-20)
(0.433984 -0.0538101 -6.02078e-19)
(0.50916 -0.104346 2.11498e-19)
(0.58917 -0.158849 9.19873e-19)
(0.672537 -0.214595 -8.7757e-19)
(0.752013 -0.271167 4.15674e-19)
(0.830524 -0.318635 4.34081e-19)
(0.882432 -0.367419 -1.99733e-19)
(0.952118 -0.386547 6.55082e-20)
(-0.0130294 0.0287942 2.43034e-19)
(-0.0312873 0.0775585 -6.83422e-20)
(-0.0404855 0.118802 1.49159e-19)
(-0.0424173 0.15106 -4.34015e-19)
(-0.0378478 0.174118 6.95255e-19)
(-0.0274973 0.188393 4.53529e-20)
(-0.0120209 0.19473 5.05431e-19)
(0.00810857 0.194204 -2.63906e-19)
(0.0326237 0.187891 1.816e-19)
(0.0614627 0.1767 2.40348e-19)
(0.0947497 0.161281 2.26018e-19)
(0.132762 0.141989 7.24282e-19)
(0.175896 0.118913 -1.88456e-19)
(0.224638 0.0919284 -1.90711e-19)
(0.279525 0.0607753 -1.55701e-19)
(0.341093 0.025144 -1.25657e-20)
(0.40975 -0.0152009 -3.36595e-19)
(0.485514 -0.0602857 3.02127e-19)
(0.567795 -0.109585 -4.07123e-19)
(0.654327 -0.162251 1.56812e-19)
(0.742707 -0.21521 -2.24744e-19)
(0.824879 -0.268306 2.47495e-20)
(0.902873 -0.31114 -1.00534e-18)
(0.95235 -0.355698 9.95569e-20)
(1.01548 -0.369257 9.31994e-21)
(-0.0128846 0.0266274 3.24307e-19)
(-0.0311069 0.0722173 -2.17423e-19)
(-0.0402862 0.111202 -1.5259e-19)
(-0.0419723 0.141987 -9.19188e-20)
(-0.0367958 0.164212 -3.00521e-19)
(-0.0253989 0.178129 -5.07609e-19)
(-0.00840118 0.184419 -1.66938e-19)
(0.0137299 0.184009 5.72336e-19)
(0.0407174 0.177868 -1.80358e-19)
(0.07249 0.166842 -3.94454e-19)
(0.109174 0.151554 -2.3902e-19)
(0.151072 0.132366 -7.39716e-19)
(0.198629 0.109393 -8.20651e-19)
(0.252399 0.0825533 6.27432e-19)
(0.31299 0.0516353 1.33513e-19)
(0.380956 0.0163952 1.08638e-19)
(0.456615 -0.0233107 1.14296e-18)
(0.539682 -0.0673811 1.77567e-19)
(0.62897 -0.115092 1.11444e-18)
(0.721354 -0.165448 -1.33408e-18)
(0.813349 -0.215122 6.19081e-19)
(0.896353 -0.264185 -5.31225e-19)
(0.971581 -0.302178 7.9496e-19)
(1.01694 -0.342251 -1.11037e-18)
(1.07157 -0.350658 2.14346e-19)
(-0.0126872 0.0245456 -8.26399e-20)
(-0.0307862 0.0669521 -1.73857e-19)
(-0.0399101 0.103538 -1.59184e-19)
(-0.0413451 0.132642 5.42124e-20)
(-0.0355788 0.153804 -8.49385e-20)
(-0.0231637 0.167143 3.21049e-19)
(-0.00466897 0.173195 -1.15478e-19)
(0.0194597 0.172757 -2.44343e-19)
(0.0489534 0.166693 -1.00108e-19)
(0.0837496 0.15578 6.2297e-21)
(0.123996 0.140609 6.6445e-19)
(0.170038 0.121542 -5.93472e-19)
(0.222382 0.0987181 8.79857e-19)
(0.281653 0.0720952 -2.61553e-19)
(0.348494 0.0415199 -4.62184e-19)
(0.423412 0.0068278 3.85109e-19)
(0.506492 -0.0320109 -4.35091e-19)
(0.59695 -0.0747423 -7.3641e-19)
(0.692767 -0.120444 -2.85897e-19)
(0.789831 -0.16797 2.60362e-19)
(0.883557 -0.213899 3.97284e-19)
(0.965198 -0.258486 7.45231e-19)
(1.03542 -0.291617 3.13709e-20)
(1.07509 -0.327148 4.5537e-19)
(1.11991 -0.331032 -1.24808e-19)
(-0.0124568 0.0225756 -4.02872e-20)
(-0.0303557 0.0618309 3.79709e-19)
(-0.0393767 0.0959107 3.90697e-19)
(-0.0405308 0.123148 -1.74714e-19)
(-0.0341589 0.143028 1.22622e-19)
(-0.0207152 0.155572 -4.54857e-19)
(-0.000703829 0.161197 9.14606e-20)
(0.0254693 0.160581 7.47687e-20)
(0.0575641 0.15449 -2.1601e-19)
(0.0955484 0.143633 -5.97276e-20)
(0.139613 0.128566 -8.28619e-19)
(0.190162 0.109647 2.70598e-19)
(0.247771 0.0870371 -4.24282e-20)
(0.313113 0.0607362 -7.07854e-21)
(0.386811 0.0306578 -3.96162e-20)
(0.469198 -0.00326717 -1.35999e-20)
(0.559938 -0.0409375 -3.76572e-20)
(0.657523 -0.0819327 5.12583e-19)
(0.75889 -0.125162 -4.55731e-19)
(0.858925 -0.169351 4.0919e-19)
(0.952102 -0.211172 -5.9089e-19)
(1.03005 -0.251016 -2.73279e-19)
(1.09325 -0.279464 6.02577e-20)
(1.12599 -0.310593 -3.97223e-19)
(1.16039 -0.310734 -1.1729e-19)
(-0.0122126 0.0207392 -3.81298e-19)
(-0.0298451 0.0569121 -4.78108e-20)
(-0.038701 0.0884099 -4.82115e-19)
(-0.0395146 0.113623 -3.86353e-19)
(-0.032481 0.132022 5.11058e-19)
(-0.0179489 0.143565 3.50674e-19)
(0.0036563 0.148577 -1.54616e-19)
(0.0319879 0.147634 -1.38661e-19)
(0.0668573 0.141414 -1.04688e-19)
(0.108287 0.13056 9.111e-19)
(0.156532 0.115592 3.58206e-19)
(0.212065 0.0968666 5.11072e-19)
(0.27552 0.0745628 -2.85773e-20)
(0.347571 0.04873 1.07582e-19)
(0.428715 0.0193575 2.9193e-19)
(0.51894 -0.0135161 -6.92737e-19)
(0.617262 -0.049652 1.10571e-18)
(0.721224 -0.0884678 1.19812e-19)
(0.826604 -0.128764 -3.62298e-19)
(0.927417 -0.169186 -5.36306e-19)
(1.01755 -0.206692 -2.83912e-19)
(1.08957 -0.241729 5.92406e-19)
(1.14417 -0.265868 -2.42047e-20)
(1.16922 -0.292897 2.72093e-19)
(1.1933 -0.290154 2.97909e-19)
(-0.0119728 0.0190523 2.90822e-19)
(-0.0292801 0.0522424 3.0177e-20)
(-0.0378903 0.0811152 -6.46614e-20)
(-0.0382688 0.104175 6.84658e-20)
(-0.030469 0.12092 -4.85503e-19)
(-0.0147291 0.131277 6.46335e-19)
(0.00861775 0.135504 -1.31242e-21)
(0.0393043 0.134096 5.2989e-19)
(0.0772169 0.127654 2.20492e-20)
(0.122455 0.116761 -1.86571e-19)
(0.175356 0.101907 2.96336e-19)
(0.236457 0.0834432 -1.00494e-18)
(0.306413 0.0615736 -6.30699e-19)
(0.385813 0.0364022 -3.19042e-19)
(0.474874 0.00800076 -1.4362e-19)
(0.573025 -0.0234802 1.50383e-20)
(0.678396 -0.0576739 -7.11106e-19)
(0.787419 -0.0938657 2.68495e-19)
(0.894743 -0.130831 1.03423e-18)
(0.993819 -0.167193 2.88809e-19)
(1.07844 -0.200365 6.62195e-19)
(1.14267 -0.230735 -6.2772e-19)
(1.18762 -0.251099 -1.34486e-19)
(1.20477 -0.274429 -2.11484e-19)
(1.21923 -0.269675 -1.05512e-18)
(-0.0117533 0.0175245 -2.71542e-19)
(-0.0286807 0.0478558 1.37492e-19)
(-0.036942 0.0740919 2.43558e-19)
(-0.0367501 0.0949027 8.43792e-19)
(-0.0280239 0.10985 3.17216e-19)
(-0.0108877 0.118862 -7.04137e-19)
(0.0144311 0.122155 -1.77557e-19)
(0.0477642 0.120165 -9.34761e-20)
(0.0890954 0.113426 -3.09465e-19)
(0.13862 0.102475 -1.02143e-19)
(0.196757 0.0877747 -2.14554e-19)
(0.264089 0.0696732 7.97546e-19)
(0.341221 0.0484082 9.69264e-19)
(0.428519 0.0241399 4.97471e-19)
(0.525726 -0.00297705 -2.55289e-19)
(0.631475 -0.0326886 -1.81071e-19)
(0.742812 -0.0645292 4.07114e-19)
(0.855013 -0.0977052 -9.80404e-20)
(0.961815 -0.131057 -1.96504e-20)
(1.05656 -0.163248 2.15869e-19)
(1.1335 -0.192258 -3.01207e-19)
(1.18861 -0.218272 -4.93567e-19)
(1.22348 -0.235507 -3.00674e-19)
(1.23305 -0.255565 3.81072e-19)
(1.23901 -0.249644 1.08516e-18)
(-0.0115665 0.0161587 2.16689e-19)
(-0.0280579 0.0437724 7.32727e-19)
(-0.0358398 0.0673896 2.92062e-19)
(-0.0348967 0.0858903 -2.58856e-19)
(-0.0250223 0.0989322 3.59829e-19)
(-0.00622428 0.106474 3.96246e-19)
(0.0213875 0.108717 4.45209e-19)
(0.0577618 0.106054 -2.49229e-20)
(0.102997 0.0989729 3.54286e-19)
(0.157393 0.0879724 -1.09683e-18)
(0.221434 0.0734963 6.26402e-19)
(0.295692 0.0558998 -3.40018e-19)
(0.380608 0.0354522 -8.70982e-19)
(0.476153 0.0123697 -6.42923e-19)
(0.581366 -0.0131195 1.0625e-18)
(0.693867 -0.040683 -3.67128e-19)
(0.809514 -0.0698037 -1.82939e-19)
(0.922544 -0.0996783 1.35316e-19)
(1.02618 -0.129291 -7.13273e-19)
(1.11419 -0.157392 5.50179e-19)
(1.1818 -0.182571 -8.23624e-20)
(1.22707 -0.204662 6.09947e-19)
(1.25201 -0.219469 6.53097e-19)
(1.25479 -0.236643 -2.10555e-19)
(1.25353 -0.230366 -3.90056e-19)
(-0.0114198 0.0149511 -1.12778e-19)
(-0.0274124 0.0399986 -4.15986e-19)
(-0.0345528 0.0610416 1.09499e-20)
(-0.0326281 0.0772059 -2.08761e-19)
(-0.0213172 0.0882736 -6.13559e-19)
(-0.000510279 0.0942587 -3.17238e-19)
(0.0298109 0.0953715 1.74705e-19)
(0.0697252 0.0919831 -5.47236e-19)
(0.119454 0.0845507 4.30728e-20)
(0.179391 0.0735473 2.74749e-19)
(0.250047 0.0594069 -7.93285e-19)
(0.331887 0.0424963 -2.62688e-19)
(0.425037 0.0231154 6.96299e-19)
(0.528859 0.00152705 4.79413e-19)
(0.641465 -0.0219899 -6.26375e-19)
(0.759312 -0.0470658 6.78474e-19)
(0.877112 -0.073191 2.82199e-19)
(0.988355 -0.0996236 -7.46553e-20)
(1.08628 -0.125538 -5.87586e-20)
(1.16557 -0.149808 -5.93406e-19)
(1.22284 -0.171592 6.04811e-20)
(1.25817 -0.190262 -9.82889e-20)
(1.27382 -0.203345 -5.03969e-19)
(1.2709 -0.217929 -3.46785e-19)
(1.26372 -0.212089 -2.96858e-19)
(-0.0113153 0.0138915 -7.07553e-20)
(-0.0267326 0.0365268 -9.21587e-19)
(-0.0330338 0.0550641 -5.68142e-19)
(-0.0298445 0.0689006 -7.22747e-19)
(-0.0167408 0.0779657 6.38025e-19)
(0.00650502 0.0823516 5.16318e-20)
(0.0400452 0.0822979 4.6269e-19)
(0.0840945 0.078174 -4.23741e-19)
(0.138992 0.0704228 7.10208e-19)
(0.205193 0.0595046 2.68515e-19)
(0.283157 0.0458517 2.34555e-20)
(0.373113 0.0298432 -4.27695e-20)
(0.474679 0.0118027 -1.54673e-19)
(0.586391 -0.00798073 -1.34006e-19)
(0.705252 -0.0292137 1.47652e-19)
(0.826523 -0.0515423 2.07761e-19)
(0.943974 -0.0745237 -1.33648e-18)
(1.0508 -0.097534 8.10482e-20)
(1.14081 -0.119948 -2.10823e-19)
(1.21001 -0.140778 -1.95604e-19)
(1.25658 -0.159644 8.95321e-20)
(1.28235 -0.175421 -5.7578e-19)
(1.28972 -0.187424 2.50846e-19)
(1.28233 -0.199565 2.85314e-19)
(1.27031 -0.194999 -6.08584e-19)
(-0.0112489 0.0129636 1.64708e-19)
(-0.0259936 0.0333367 6.66369e-19)
(-0.0312192 0.0494568 5.76974e-20)
(-0.0264291 0.0610072 1.04911e-18)
(-0.0111086 0.0680823 -6.65078e-19)
(0.015085 0.0708712 6.51169e-19)
(0.0524387 0.0696614 -5.8427e-19)
(0.101297 0.0648385 2.30547e-19)
(0.162092 0.0568466 -3.00035e-19)
(0.235279 0.0461445 3.97945e-19)
(0.321158 0.033168 6.66867e-19)
(0.419551 0.0183042 3.49816e-19)
(0.52936 0.00188402 1.41128e-19)
(0.648096 -0.0158087 1.56113e-19)
(0.771564 -0.0345131 -1.22218e-19)
(0.893942 -0.0539466 -9.94354e-20)
(1.00843 -0.0737804 1.0798e-18)
(1.10844 -0.0935391 3.46013e-19)
(1.18887 -0.112774 9.51107e-19)
(1.24725 -0.130632 2.57422e-20)
(1.28337 -0.147041 -5.53773e-19)
(1.30036 -0.160453 6.73109e-19)
(1.30066 -0.171882 7.92353e-19)
(1.2899 -0.181514 8.58896e-20)
(1.27386 -0.179217 5.9311e-19)
(-0.0112097 0.0121463 -4.66764e-19)
(-0.0251578 0.0303967 2.58034e-19)
(-0.0290306 0.0442038 5.66127e-19)
(-0.022251 0.0535404 -2.22799e-19)
(-0.00422652 0.058678 -6.60352e-19)
(0.0254946 0.0599172 -4.86407e-20)
(0.0673254 0.0576092 3.58495e-20)
(0.12172 0.0521715 6.42657e-20)
(0.189153 0.0440625 -4.13814e-19)
(0.26999 0.033748 -1.77048e-19)
(0.364225 0.0216669 -6.21908e-19)
(0.47108 0.00820287 -1.62839e-20)
(0.588538 -0.00633246 -1.8032e-19)
(0.712951 -0.0217022 -5.3478e-20)
(0.838955 -0.0377285 4.80824e-19)
(0.959916 -0.0542478 -7.05299e-19)
(1.06894 -0.0710705 2.88984e-19)
(1.1602 -0.0878698 -4.66126e-19)
(1.22999 -0.104325 -6.82524e-19)
(1.27747 -0.119704 1.20511e-19)
(1.30386 -0.13407 1.17285e-18)
(1.31308 -0.145634 -5.72733e-19)
(1.30764 -0.156727 2.43068e-20)
(1.29428 -0.163599 4.30646e-19)
(1.27467 -0.165038 2.25255e-19)
(-0.0111806 0.0114145 2.19849e-19)
(-0.024175 0.0276661 -3.11235e-19)
(-0.0263766 0.0392759 -6.57905e-19)
(-0.0171694 0.0464979 -3.49363e-19)
(0.00410223 0.0497879 3.81231e-19)
(0.0379876 0.0495684 1.29633e-19)
(0.0850069 0.0462667 7.58137e-19)
(0.145684 0.0403448 3.08399e-19)
(0.22046 0.0322853 1.95868e-19)
(0.309488 0.0225645 9.14417e-20)
(0.412282 0.0116174 6.41851e-19)
(0.527268 -0.000196235 2.92777e-19)
(0.651342 -0.0126203 -2.45243e-19)
(0.779653 -0.025512 3.53786e-19)
(0.905846 -0.0388228 -2.05743e-19)
(1.02288 -0.0525366 2.6116e-19)
(1.12429 -0.0666028 -2.56727e-19)
(1.20541 -0.0808155 -5.29486e-19)
(1.26417 -0.0949289 7.54666e-19)
(1.30119 -0.108297 -7.75146e-19)
(1.31886 -0.120982 2.05115e-19)
(1.3215 -0.131177 -2.32994e-19)
(1.31168 -0.14182 -1.67396e-19)
(1.29608 -0.145906 -1.27333e-18)
(1.27288 -0.153435 1.86848e-19)
(-0.0111386 0.0107409 4.51223e-20)
(-0.0229841 0.0250979 2.22506e-19)
(-0.0231555 0.0346329 7.37711e-19)
(-0.0110387 0.039863 -1.73823e-19)
(0.014069 0.0414291 -7.56712e-20)
(0.0527957 0.0398824 1.40456e-19)
(0.105735 0.0357352 1.25333e-19)
(0.17342 0.0295028 -4.95204e-19)
(0.256157 0.0216975 -2.31267e-19)
(0.353734 0.012803 -7.1693e-19)
(0.464998 0.0032356 -5.45204e-19)
(0.587393 -0.00669954 -3.92348e-19)
(0.716632 -0.0168447 3.53534e-19)
(0.846743 -0.0271969 -5.16581e-19)
(0.970691 -0.0378693 -2.48971e-19)
(1.08151 -0.048998 -1.07458e-19)
(1.17363 -0.060646 -8.4633e-20)
(1.24386 -0.0726842 1.58013e-18)
(1.29172 -0.084889 8.49187e-20)
(1.31912 -0.0966628 -1.34491e-19)
(1.32927 -0.107991 -7.11711e-19)
(1.32656 -0.117203 2.19077e-19)
(1.31367 -0.127051 1.68381e-20)
(1.29623 -0.129388 7.22807e-19)
(1.26942 -0.144691 7.547e-20)
(-0.0110559 0.0100976 3.5354e-19)
(-0.0215154 0.0226416 -3.39575e-19)
(-0.0192592 0.0302279 -5.14547e-19)
(-0.00371305 0.0336074 5.16075e-19)
(0.0258527 0.0336032 -1.15098e-19)
(0.0701178 0.0308978 -9.97726e-20)
(0.129701 0.0260932 8.7139e-20)
(0.205059 0.0197627 -1.24824e-19)
(0.296237 0.0124476 3.1447e-19)
(0.402486 0.00462862 2.04829e-19)
(0.521799 -0.00332094 5.3425e-19)
(0.650498 -0.0111892 -1.48669e-20)
(0.783105 -0.0189622 4.43525e-19)
(0.912744 -0.0268137 -2.78511e-20)
(1.03211 -0.0350295 4.76303e-19)
(1.13481 -0.0438778 1.38181e-19)
(1.21653 -0.0534926 -8.8063e-19)
(1.27568 -0.0637707 -4.29516e-19)
(1.31323 -0.0744679 -1.09975e-19)
(1.33208 -0.085 2.616e-19)
(1.33594 -0.0952571 -1.1618e-19)
(1.32909 -0.103736 -4.02757e-19)
(1.31411 -0.112651 5.76564e-20)
(1.2954 -0.115088 -3.35253e-19)
(1.27105 -0.126391 -1.54383e-19)
(-0.0109008 0.00945736 2.1621e-19)
(-0.0196928 0.0202474 2.30401e-19)
(-0.0145757 0.0260106 4.21818e-19)
(0.00494871 0.0276963 -3.07289e-19)
(0.0396141 0.0263014 2.23047e-20)
(0.0901134 0.0226384 6.14704e-19)
(0.157024 0.0174002 -1.7598e-19)
(0.240623 0.0112169 -5.90063e-19)
(0.340541 0.00465152 -3.51557e-19)
(0.455314 -0.00183722 4.71278e-19)
(0.581911 -0.00795301 -9.8846e-19)
(0.715459 -0.0136212 3.57153e-21)
(0.849404 -0.0190131 -8.74071e-20)
(0.976285 -0.024499 6.33998e-19)
(1.089 -0.0305246 -3.42129e-19)
(1.18216 -0.0374498 4.68358e-19)
(1.25293 -0.0454279 4.70603e-19)
(1.30129 -0.0543351 -8.1015e-19)
(1.32943 -0.063875 -3.3784e-19)
(1.34093 -0.0734548 -2.6423e-19)
(1.3397 -0.0828763 3.96482e-19)
(1.32974 -0.0907641 5.9248e-19)
(1.31336 -0.0990078 2.56942e-19)
(1.29442 -0.101195 -2.21212e-19)
(1.27099 -0.112142 -3.72651e-19)
(-0.0106393 0.00879585 -5.09722e-20)
(-0.0174364 0.0178684 2.15255e-19)
(-0.00899338 0.0219325 -4.27761e-19)
(0.0150796 0.0220931 -6.56639e-19)
(0.0554912 0.0195095 -9.73087e-19)
(0.112898 0.0151191 1.65834e-19)
(0.187753 0.00970163 -1.95908e-19)
(0.280025 0.00393786 2.87744e-19)
(0.388767 -0.00160331 1.07215e-19)
(0.511622 -0.00651406 2.07494e-19)
(0.64441 -0.0106168 2.32743e-19)
(0.781078 -0.0140191 -1.28243e-19)
(0.914218 -0.0171075 -1.88025e-19)
(1.0362 -0.0204468 -4.20618e-19)
(1.14058 -0.0246075 1.29454e-19)
(1.22329 -0.029988 -4.91942e-19)
(1.28308 -0.0367102 1.78554e-19)
(1.32131 -0.0445917 1.23313e-19)
(1.34111 -0.0532664 -4.61677e-19)
(1.34647 -0.0621245 -4.77919e-19)
(1.34124 -0.070891 -2.45571e-19)
(1.32903 -0.0783281 1.82185e-20)
(1.31187 -0.0859951 7.22066e-20)
(1.29293 -0.0883033 -2.16919e-19)
(1.27068 -0.0984561 1.56165e-19)
(-0.0102364 0.00809235 3.22169e-21)
(-0.0146651 0.0154647 -5.92006e-19)
(-0.00240285 0.0179508 7.55024e-19)
(0.0268018 0.0167651 8.07405e-19)
(0.0735973 0.0132143 4.81806e-19)
(0.138542 0.00835218 -1.70746e-20)
(0.221862 0.00303646 -1.76183e-19)
(0.323077 -0.0020154 -2.43357e-19)
(0.440488 -0.00625308 4.4351e-19)
(0.570685 -0.00935812 -1.08048e-18)
(0.708281 -0.0113186 1.11323e-19)
(0.846156 -0.0124643 1.00858e-18)
(0.976374 -0.0134085 1.41065e-19)
(1.09158 -0.0148853 -2.8626e-19)
(1.18639 -0.0175382 5.12309e-19)