/*--------------------------------*- C++ -*----------------------------------*\
  =========                 |
  \\      /  F ield         | OpenFOAM: The Open Source CFD Toolbox
   \\    /   O peration     | Website:  https://openfoam.org
    \\  /    A nd           | Version:  7
     \\/     M anipulation  |
\*---------------------------------------------------------------------------*/
FoamFile
{
    version     2.0;
    format      ascii;
    class       volScalarField;
    location    "55";
    object      p;
}
// * * * * * * * * * * * * * * * * * * * * * * * * * * * * * * * * * * * * * //

dimensions      [0 2 -2 0 0 0 0];

internalField   nonuniform List<scalar> 
1987
(
0.0806259
0.073037
0.0653919
0.057363
0.0576964
0.0491728
0.0499671
0.0387632
0.0409923
0.0422311
0.0302364
0.0328398
0.0345094
0.0217692
0.0247306
0.0268165
0.00987675
0.0133741
0.0166777
0.0191648
0.00118327
0.00506259
0.00869303
0.0115654
-0.00739908
-0.00315463
0.000787306
0.00402853
-0.0158599
-0.0112678
-0.00702965
-0.00343683
-0.029915
-0.0241898
-0.0192681
-0.0147491
-0.0108222
-0.0384316
-0.03238
-0.0271479
-0.0223634
-0.0181197
-0.0467776
-0.0404227
-0.0349003
-0.0298667
-0.0253217
-0.0549458
-0.0483106
-0.0425193
-0.0372552
-0.032421
-0.0629301
-0.0560374
-0.0499984
-0.044529
-0.0394106
-0.0707252
-0.0635977
-0.057329
-0.0516878
-0.046291
-0.086551
-0.0783279
-0.0709893
-0.0645009
-0.0587204
-0.0530835
-0.0782087
-0.0715131
-0.065538
-0.0598954
0.0990458
0.106715
0.112785
0.11714
0.119633
0.120977
0.120978
0.120231
0.118607
0.116546
0.113982
0.111233
0.108263
0.1053
0.102317
0.0994748
0.0967477
0.0942503
0.0919494
0.0899313
0.0881617
0.0867126
0.0855568
0.0847679
0.0843383
0.0929644
0.100397
0.106635
0.111289
0.114318
0.116149
0.116702
0.116448
0.115313
0.113687
0.111529
0.109135
0.106484
0.103796
0.101053
0.0984153
0.0958634
0.093512
0.0913342
0.0894164
0.087729
0.0863437
0.0852363
0.0844796
0.084067
0.0869115
0.0942751
0.100633
0.105552
0.109036
0.111315
0.112386
0.112604
0.111949
0.110752
0.108999
0.106961
0.104634
0.102225
0.0997297
0.0973025
0.0949322
0.0927325
0.0906832
0.0888703
0.0872693
0.085951
0.0848948
0.084172
0.0837773
0.0810731
0.0883649
0.0947983
0.0999519
0.103815
0.106501
0.108049
0.108716
0.108524
0.107745
0.106394
0.104713
0.102712
0.100588
0.0983455
0.0961345
0.0939522
0.0919101
0.089995
0.0882917
0.0867813
0.0855334
0.0845312
0.0838442
0.0834684
0.0754865
0.0826801
0.0891453
0.0944919
0.0986686
0.10172
0.103702
0.104793
0.105043
0.104671
0.103717
0.10239
0.100719
0.0988825
0.0968986
0.0949096
0.0929216
0.091043
0.0892678
0.0876792
0.0862638
0.08509
0.0841445
0.0834953
0.0831395
0.0701343
0.0772153
0.0836804
0.089175
0.0936081
0.0969848
0.0993572
0.100845
0.101515
0.101538
0.100973
0.0999971
0.0986558
0.0971098
0.0953894
0.0936275
0.0918399
0.0901304
0.0885007
0.0870317
0.0857158
0.0846195
0.0837338
0.0831243
0.0827896
0.0650036
0.0719628
0.0784055
0.0840061
0.0886466
0.0923086
0.0950293
0.0968866
0.0979514
0.0983551
0.0981678
0.0975388
0.0965261
0.0952723
0.0938188
0.0922887
0.0907067
0.0891717
0.0876929
0.0863483
0.0851363
0.0841213
0.0832983
0.0827305
0.0824179
0.0600907
0.0669192
0.0733209
0.07899
0.0837958
0.0877034
0.0907324
0.0929302
0.0943635
0.0951312
0.0953094
0.0950211
0.0943339
0.0933725
0.0921884
0.0908938
0.0895223
0.0881667
0.0868439
0.0856284
0.0845247
0.0835944
0.082837
0.0823129
0.0820236
0.0553948
0.062084
0.0684268
0.0741315
0.0790654
0.0831804
0.0864799
0.0889883
0.0907628
0.0918766
0.0924056
0.0924501
0.0920835
0.0914137
0.0905002
0.089444
0.088287
0.0871154
0.0859534
0.0848714
0.0838801
0.0830381
0.0823493
0.0818708
0.081606
0.0509145
0.0574567
0.0637234
0.0694349
0.0744638
0.0787499
0.0822844
0.0850728
0.0871612
0.0886013
0.0894648
0.0898326
0.0897801
0.0893996
0.0887565
0.0879409
0.0870017
0.086018
0.0850211
0.0840769
0.0832021
0.0824517
0.0818344
0.0814036
0.0811644
0.0466479
0.0530363
0.059211
0.0649043
0.0699981
0.0744217
0.0781576
0.0811956
0.0835703
0.0853156
0.0864962
0.087176
0.0874294
0.0873346
0.0869604
0.0863865
0.0856674
0.0848752
0.0840473
0.0832449
0.0824902
0.081835
0.0812919
0.0809107
0.0806983
0.0425922
0.0488212
0.0548896
0.0605431
0.0656744
0.0702045
0.0741102
0.077368
0.0800016
0.08203
0.0835091
0.0844881
0.0850377
0.0852236
0.0851156
0.0847835
0.0842859
0.0836879
0.0830324
0.0823754
0.0817445
0.0811875
0.0807213
0.0803915
0.0802071
0.0387439
0.0448088
0.0507586
0.0563537
0.061498
0.0661064
0.0701522
0.0736008
0.0764665
0.0787552
0.0805132
0.0817773
0.082612
0.0830722
0.0832262
0.083135
0.0828593
0.0824578
0.0819771
0.0814688
0.0809649
0.0805091
0.0801224
0.0798459
0.0796904
0.0350992
0.0409963
0.0468171
0.0523379
0.0574733
0.0621344
0.0662926
0.0699043
0.0729757
0.0755015
0.0775185
0.0790521
0.0801597
0.0808864
0.0812969
0.0814446
0.0813903
0.0811864
0.0808828
0.0805259
0.0801517
0.0798
0.0794951
0.0792736
0.0791482
0.0316533
0.0373801
0.0430636
0.0484967
0.0536037
0.0582946
0.0625395
0.0662881
0.0695397
0.0722793
0.0745349
0.0763215
0.0776888
0.0786727
0.0793333
0.0797165
0.0798819
0.0798763
0.0797509
0.0795478
0.0793057
0.0790606
0.0788395
0.0786747
0.0785803
0.0284013
0.0339565
0.0394962
0.0448303
0.0498921
0.0545923
0.0589003
0.0627611
0.0661684
0.069099
0.0715724
0.0735948
0.0752076
0.0764382
0.0773412
0.0779554
0.0783379
0.0785303
0.0785836
0.078536
0.0784279
0.0782915
0.0781561
0.0780495
0.0779871
0.0253378
0.0307211
0.0361124
0.0413383
0.0463406
0.0510318
0.0553815
0.0593317
0.0628712
0.0659703
0.068641
0.0708813
0.0727246
0.0741904
0.075327
0.0761666
0.0767627
0.0771515
0.0773834
0.0774923
0.0775196
0.0774938
0.0774457
0.0773987
0.0773689
0.0224572
0.0276693
0.0329091
0.0380197
0.0429503
0.0476166
0.0519888
0.0560072
0.0596568
0.0629028
0.0657505
0.0681906
0.0702487
0.0719374
0.0732978
0.0743561
0.0751609
0.075744
0.0761533
0.0764192
0.0765825
0.0766688
0.0767092
0.076723
0.0767266
0.0197537
0.0247964
0.0298832
0.0348731
0.0397219
0.0443497
0.0487271
0.0527944
0.0565334
0.0599057
0.0629103
0.065532
0.0677891
0.0696874
0.0712609
0.0725301
0.0735381
0.0743122
0.0748969
0.0753194
0.0756191
0.0758183
0.0759481
0.0760237
0.0760612
0.0172214
0.0220973
0.027031
0.0318964
0.0366556
0.0412331
0.0456006
0.0496994
0.0535087
0.0569876
0.0601298
0.0629152
0.065355
0.067449
0.0692242
0.0706955
0.0719002
0.072861
0.0736185
0.0741963
0.0746319
0.0749447
0.0751643
0.0753025
0.0753742
0.0148543
0.0195669
0.0243487
0.0290874
0.0337507
0.0382683
0.042613
0.0467276
0.0505896
0.0541567
0.0574181
0.0603495
0.0629557
0.0652312
0.0671961
0.0688599
0.0702537
0.071396
0.0723226
0.073054
0.0736244
0.0740505
0.07436
0.0745613
0.0746674
0.0126467
0.0172003
0.0218322
0.0264435
0.0310066
0.0354564
0.039767
0.0438836
0.0477826
0.0514209
0.0547838
0.0578441
0.0606006
0.0630431
0.0651851
0.067031
0.0686058
0.0699234
0.0710148
0.0718968
0.0726003
0.0731391
0.0735381
0.0738027
0.0739432
0.0105928
0.0149923
0.0194776
0.0239619
0.0284219
0.0327978
0.0370651
0.0411719
0.0450936
0.0487873
0.0522354
0.055408
0.0582991
0.060894
0.0632003
0.0652173
0.0669641
0.06845
0.0697009
0.07073
0.0715642
0.0722142
0.072702
0.0730298
0.0732045
0.00868706
0.0129379
0.0172808
0.0216397
0.0259952
0.0302928
0.0345094
0.038596
0.0425279
0.046263
0.0497809
0.0530503
0.0560605
0.0587935
0.0612508
0.0634276
0.0653367
0.0669832
0.0683876
0.0695594
0.070521
0.0712804
0.0718557
0.0722461
0.0724546
0.00692416
0.0110325
0.0152378
0.0194739
0.0237249
0.0279412
0.0321013
0.0361593
0.0400907
0.0438543
0.0474282
0.0507796
0.0538943
0.056751
0.0593464
0.0616711
0.0637324
0.0655311
0.0670822
0.0683915
0.0694767
0.0703428
0.0710038
0.0714559
0.0716976
0.00529907
0.00927155
0.0133448
0.0174618
0.0216094
0.0257428
0.0298422
0.0338648
0.0377865
0.0415675
0.0451846
0.0486045
0.0518098
0.0547765
0.0574968
0.0599575
0.0621605
0.0641022
0.0657926
0.0672334
0.0684377
0.0694072
0.0701516
0.0706642
0.0709382
0.0038071
0.00765077
0.0115982
0.0156006
0.0196471
0.0236975
0.0277334
0.0317153
0.0356197
0.0394085
0.0430577
0.0465335
0.0498163
0.0528799
0.0557122
0.0582968
0.0606306
0.0627059
0.0645274
0.0660932
0.0674113
0.0684802
0.0693053
0.0698764
0.0701819
0.00244393
0.00616635
0.00999489
0.0138878
0.0178365
0.021805
0.0257761
0.0297137
0.0335948
0.0373833
0.0410546
0.0445752
0.0479232
0.0510711
0.0540031
0.0566997
0.0591531
0.0613521
0.063296
0.0649794
0.0664054
0.0675691
0.0684715
0.069099
0.0694346
0.00120576
0.0048149
0.00853194
0.0123215
0.0161767
0.0200653
0.0239718
0.0278626
0.031716
0.0354976
0.0391826
0.042738
0.0461403
0.0493606
0.0523803
0.0551771
0.057739
0.0600513
0.0621085
0.0639015
0.0654288
0.0666821
0.0676579
0.0683392
0.0687036
8.93122e-05
0.00359362
0.00720713
0.0109001
0.0146669
0.018479
0.0223221
0.0261654
0.029988
0.0337574
0.0374491
0.0410306
0.0444772
0.0477591
0.0508551
0.0537405
0.0563998
0.0588147
0.0609758
0.0628699
0.0644913
0.0658283
0.0668731
0.0676049
0.0679965
-0.000908017
0.00250036
0.00601887
0.00962261
0.0133071
0.0170471
0.0208292
0.0246254
0.0284156
0.0321693
0.0358621
0.0394622
0.0429441
0.0462776
0.049439
0.052402
0.0551476
0.0576546
0.0599094
0.0618956
0.0636034
0.0650176
0.0661263
0.0669052
0.0673219
-0.00178804
0.00153379
0.00496638
0.00848903
0.0120982
0.0157713
0.0194961
0.0232469
0.0270045
0.03074
0.0344296
0.0380422
0.0415519
0.0449277
0.0481446
0.0511744
0.0539953
0.0565835
0.0589218
0.0609907
0.0627764
0.0642607
0.0654277
0.0662497
0.0666895
-0.00255165
0.000693564
0.00404992
0.00750031
0.0110418
0.0146544
0.0183267
0.022035
0.0257611
0.0294775
0.033161
0.0367812
0.0403119
0.043722
0.0469849
0.0500712
0.0529567
0.0556153
0.0580265
0.0601681
0.0620227
0.0635694
0.0647886
0.0656491
0.0661098
-0.00319855
-1.94467e-05
0.00327103
0.00665872
0.0101412
0.0137006
0.0173262
0.0209962
0.024693
0.0283907
0.0320664
0.0356905
0.0392367
0.0426737
0.045974
0.049107
0.0520465
0.0547645
0.0572378
0.0594416
0.0613557
0.0629563
0.0642209
0.0651151
0.0655939
-0.00372706
-0.000602846
0.00263283
0.00596819
0.00940119
0.0129157
0.0165016
0.0201385
0.0238096
0.0274901
0.0311575
0.0347831
0.0383402
0.0417977
0.0451273
0.0482975
0.0512806
0.054047
0.0565711
0.0588262
0.0607895
0.0624351
0.0637375
0.06466
0.0651541
-0.00413365
-0.00105229
0.00214042
0.00543462
0.00882856
0.0123075
0.0158617
0.0194721
0.0231222
0.0267883
0.0304481
0.0340735
0.037638
0.0411103
0.0444616
0.0476599
0.0506761
0.0534795
0.0560429
0.0583378
0.0603394
0.0620201
0.0633524
0.0642972
0.0648033
-0.00441245
-0.00136118
0.00180112
0.00506629
0.0084327
0.0118866
0.0154184
0.0190099
0.0226449
0.0263004
0.0299543
0.033579
0.0371479
0.0406299
0.0439957
0.0472129
0.0502518
0.0530806
0.055671
0.0579934
0.0600216
0.0617269
0.0630801
0.0640407
0.0645554
-0.00455538
-0.00152138
0.00162449
0.00487435
0.00822622
0.0116669
0.0151868
0.0187683
0.0223952
0.0260449
0.0296955
0.0333197
0.0368906
0.0403774
0.0437506
0.0469776
0.0500282
0.0528703
0.0554747
0.0578115
0.0598535
0.0615718
0.062936
0.0639052
0.0644244
-0.0633376
-0.061696
-0.0601674
-0.058641
-0.0572325
-0.055852
-0.0545965
-0.0534025
-0.0569578
-0.055686
-0.0544034
-0.0530608
-0.0521788
-0.0509892
-0.0499403
-0.0489515
-0.0480153
-0.0471306
-0.046292
-0.0454938
-0.0447763
-0.0440808
-0.0434047
-0.0427665
-0.0421633
-0.0415924
-0.0410518
-0.0405398
-0.040055
-0.0395944
-0.0391552
-0.0387644
-0.0383708
-0.0380012
-0.037654
-0.037328
-0.037023
-0.0367392
-0.0364769
-0.0362368
-0.0360196
-0.0358267
-0.0356594
-0.0355205
-0.0354094
-0.035339
-0.0352846
-0.0353182
-0.0505343
-0.0496383
-0.0486455
-0.0476492
-0.0468875
-0.0460207
-0.0452045
-0.0444391
-0.0437161
-0.0430338
-0.0423884
-0.0417808
-0.0412251
-0.0406941
-0.0401812
-0.0396949
-0.0392353
-0.0388006
-0.0383891
-0.0379995
-0.0376304
-0.0372795
-0.0369474
-0.0366451
-0.0363471
-0.0360641
-0.0357978
-0.0355472
-0.0353125
-0.0350937
-0.0348914
-0.0347062
-0.034539
-0.034391
-0.0342636
-0.0341593
-0.0340779
-0.0340308
-0.0339949
-0.0340408
-0.0440704
-0.0434688
-0.0428069
-0.0421326
-0.0415586
-0.0409742
-0.0404089
-0.039876
-0.0393737
-0.0389004
-0.0384545
-0.0380377
-0.0376531
-0.0372892
-0.0369403
-0.0366088
-0.0362955
-0.0359991
-0.0357187
-0.0354531
-0.0352012
-0.0349614
-0.0347352
-0.0345264
-0.0343223
-0.0341268
-0.0339418
-0.0337671
-0.0336028
-0.0334494
-0.0333072
-0.033177
-0.0330598
-0.0329567
-0.0328692
-0.0327994
-0.0327474
-0.0327235
-0.0327059
-0.0327634
-0.0375351
-0.037224
-0.0368875
-0.0365168
-0.0361871
-0.0358692
-0.0355594
-0.0352661
-0.0349903
-0.0347316
-0.0344898
-0.0342661
-0.0340605
-0.0338678
-0.0336842
-0.0335098
-0.0333449
-0.033189
-0.0330415
-0.0329014
-0.0327681
-0.0326406
-0.0325203
-0.0324079
-0.0322975
-0.0321899
-0.0320867
-0.0319883
-0.0318948
-0.0318068
-0.0317249
-0.0316498
-0.0315826
-0.0315244
-0.0314767
-0.0314412
-0.0314185
-0.0314176
-0.031418
-0.0314865
-0.0309119
-0.0309084
-0.0308901
-0.0308201
-0.0307645
-0.0307132
-0.0306616
-0.0306128
-0.0305685
-0.0305293
-0.0304956
-0.0304684
-0.0304472
-0.0304298
-0.0304137
-0.0303985
-0.0303843
-0.0303709
-0.030358
-0.030345
-0.0303317
-0.0303175
-0.0303036
-0.0302899
-0.0302733
-0.030254
-0.0302332
-0.0302113
-0.030189
-0.0301667
-0.0301452
-0.0301253
-0.0301081
-0.0300947
-0.0300866
-0.0300854
-0.0300917
-0.0301135
-0.0301316
-0.0302105
-0.0241999
-0.0245212
-0.0248206
-0.0250551
-0.0252857
-0.0255074
-0.0257175
-0.0259178
-0.0261098
-0.0262944
-0.0264728
-0.0266459
-0.0268137
-0.0269752
-0.0271293
-0.0272756
-0.0274143
-0.0275453
-0.0276688
-0.0277845
-0.0278925
-0.0279928
-0.0280861
-0.0281725
-0.0282504
-0.0283198
-0.0283817
-0.0284369
-0.0284859
-0.0285295
-0.0285685
-0.0286039
-0.0286367
-0.0286681
-0.0286995
-0.0287324
-0.0287674
-0.0288116
-0.0288472
-0.0289357
-0.0174025
-0.0180616
-0.0186822
-0.019227
-0.0197515
-0.0202523
-0.0207289
-0.0211826
-0.0216151
-0.0220279
-0.0224223
-0.0227995
-0.0231602
-0.0235042
-0.0238314
-0.0241416
-0.0244353
-0.0247128
-0.0249744
-0.0252205
-0.0254512
-0.025667
-0.0258686
-0.0260562
-0.0262293
-0.026388
-0.0265331
-0.0266656
-0.0267863
-0.026896
-0.0269957
-0.0270863
-0.0271691
-0.0272452
-0.0273159
-0.0273827
-0.0274462
-0.0275125
-0.0275652
-0.0276627
-0.0105249
-0.0115317
-0.0124782
-0.0133389
-0.0141631
-0.0149489
-0.0156966
-0.0164082
-0.0170855
-0.0177305
-0.0183448
-0.0189301
-0.0194873
-0.0200173
-0.0205203
-0.020997
-0.021448
-0.0218739
-0.0222755
-0.0226534
-0.0230082
-0.0233407
-0.0236516
-0.0239416
-0.0242106
-0.024459
-0.0246878
-0.0248981
-0.0250907
-0.0252666
-0.0254271
-0.0255731
-0.0257058
-0.0258264
-0.0259363
-0.0260368
-0.0261285
-0.0262166
-0.026286
-0.0263916
-0.00357238
-0.00493448
-0.00621144
-0.00739342
-0.00852237
-0.00959801
-0.0106215
-0.0115955
-0.012522
-0.0134033
-0.0142415
-0.0150385
-0.0157959
-0.0165149
-0.0171968
-0.0178423
-0.0184528
-0.0190292
-0.0195725
-0.0200838
-0.0205641
-0.0210144
-0.0214358
-0.0218291
-0.0221947
-0.0225335
-0.0228465
-0.0231348
-0.0233996
-0.0236421
-0.0238634
-0.0240647
-0.0242473
-0.0244124
-0.0245614
-0.0246952
-0.0248148
-0.0249243
-0.02501
-0.0251231
0.00344911
0.00172574
0.000114672
-0.00139301
-0.00283122
-0.00420144
-0.00550548
-0.00674619
-0.00792609
-0.00904766
-0.0101134
-0.0111255
-0.0120863
-0.0129975
-0.0138608
-0.0146778
-0.0154499
-0.0161787
-0.0168656
-0.017512
-0.0181193
-0.0186886
-0.0192216
-0.0197191
-0.0201823
-0.020612
-0.0210097
-0.0213764
-0.0217137
-0.0220228
-0.0223051
-0.0225618
-0.0227943
-0.0230037
-0.0231914
-0.0233585
-0.0235056
-0.0236361
-0.0237377
-0.0238573
0.0105334
0.00844454
0.00649647
0.00465915
0.00290735
0.00123804
-0.000350777
-0.00186216
-0.00329894
-0.00466405
-0.00596041
-0.00719088
-0.00835809
-0.00946442
-0.0105121
-0.011503
-0.0124393
-0.0133227
-0.0141551
-0.0149383
-0.015674
-0.0163638
-0.0170094
-0.0176123
-0.0181737
-0.0186951
-0.0191779
-0.0196235
-0.0200336
-0.0204095
-0.0207528
-0.0210649
-0.0213471
-0.0216008
-0.0218271
-0.022027
-0.0222013
-0.0223524
-0.0224694
-0.0225948
0.0176739
0.0152167
0.0129291
0.0107586
0.00868964
0.00671799
0.00484159
0.0030569
0.00136047
-0.000251219
-0.00178157
-0.00323381
-0.00461092
-0.0059157
-0.00715076
-0.00831855
-0.00942146
-0.0104618
-0.0114418
-0.0123635
-0.0132292
-0.0140407
-0.0148002
-0.0155093
-0.0161699
-0.0167835
-0.0173519
-0.0178768
-0.0183599
-0.0188028
-0.0192072
-0.0195747
-0.0199065
-0.0202042
-0.0204689
-0.0207014
-0.0209025
-0.0210737
-0.0212056
-0.021336
0.0248627
0.0220356
0.0194067
0.0169017
0.0145145
0.0122394
0.0100737
0.00801293
0.00605317
0.00419071
0.00242206
0.000743892
-0.00084701
-0.00235376
-0.00377939
-0.0051268
-0.00639881
-0.00759816
-0.00872752
-0.00978945
-0.0107864
-0.0117209
-0.0125952
-0.0134115
-0.0141718
-0.0148782
-0.0155326
-0.016137
-0.0166933
-0.0172033
-0.0176689
-0.0180916
-0.018473
-0.0188145
-0.0191173
-0.019382
-0.0196094
-0.0198005
-0.0199467
-0.0200811
0.0320914
0.0288955
0.0259266
0.023089
0.0203839
0.0178033
0.0153439
0.0130015
0.0107728
0.00865439
0.00664303
0.00473521
0.00292738
0.00121596
-0.000402564
-0.00193161
-0.00337448
-0.0047344
-0.00601449
-0.00721775
-0.00834712
-0.0094054
-0.0103953
-0.0113194
-0.0121801
-0.0129797
-0.0137205
-0.0144046
-0.0150343
-0.0156115
-0.0161382
-0.0166162
-0.017047
-0.0174321
-0.0177727
-0.0180694
-0.0183227
-0.018533
-0.0186931
-0.0188307
0.0393531
0.0357943
0.0324883
0.0293183
0.0262905
0.0233971
0.0206368
0.0180072
0.0155058
0.0131292
0.0108737
0.00873513
0.00670933
0.00479217
0.00297962
0.00126778
-0.000347151
-0.00186884
-0.00330085
-0.00464663
-0.0059095
-0.00709265
-0.00819917
-0.00923197
-0.0101938
-0.0110873
-0.011915
-0.0126794
-0.0133827
-0.0140274
-0.0146154
-0.0151486
-0.0156288
-0.0160574
-0.0164355
-0.0167638
-0.0170426
-0.0172718
-0.017445
-0.017585
0.0466401
0.0427252
0.0390775
0.0355678
0.0322101
0.0290006
0.0259403
0.0230269
0.0202566
0.0176248
0.0151267
0.0127578
0.0105133
0.00838896
0.00638045
0.00448352
0.00269407
0.00100807
-0.000578401
-0.00206913
-0.00346781
-0.00477797
-0.00600303
-0.00714624
-0.00821068
-0.00919932
-0.010115
-0.0109604
-0.0117381
-0.0124507
-0.0131002
-0.0136889
-0.0142185
-0.0146904
-0.0151059
-0.0154656
-0.0157695
-0.0160171
-0.0162029
-0.0163444
0.0539315
0.0496626
0.0456664
0.0418212
0.038147
0.0346383
0.0312926
0.0281049
0.0250698
0.0221825
0.0194389
0.0168347
0.014366
0.0120285
0.00981792
0.00772998
0.00576037
0.00390481
0.0021591
0.000519122
-0.00101913
-0.00245957
-0.00380596
-0.00506192
-0.00623093
-0.00731627
-0.00832113
-0.00924852
-0.0101013
-0.0108822
-0.0115936
-0.0122379
-0.0128168
-0.013332
-0.0137847
-0.0141753
-0.0145039
-0.0147693
-0.0149671
-0.0151094
0.0612013
0.056599
0.0522807
0.0481372
0.0441763
0.040383
0.0367525
0.0332817
0.0299688
0.0268122
0.0238097
0.0209583
0.0182546
0.0156946
0.0132739
0.0109881
0.00883259
0.00680274
0.00489396
0.00310173
0.00142156
-0.000150894
-0.00161987
-0.00298945
-0.00426354
-0.00544586
-0.00653997
-0.00754924
-0.00847686
-0.00932578
-0.0100987
-0.0107981
-0.0114259
-0.0119838
-0.012473
-0.012894
-0.0132466
-0.0135292
-0.0137381
-0.0138805
0.0684695
0.0636016
0.0589984
0.054561
0.0502892
0.0461746
0.0422227
0.0384393
0.0348277
0.0313881
0.0281185
0.0250156
0.0220753
0.0192931
0.0166641
0.0141831
0.0118451
0.00964484
0.0075771
0.00563675
0.00381875
0.0021182
0.000530316
-0.000949463
-0.00232551
-0.00360197
-0.00478278
-0.00587165
-0.00687206
-0.00778721
-0.00862001
-0.00937302
-0.0100484
-0.0106479
-0.0111725
-0.0116229
-0.0119985
-0.0122975
-0.0125166
-0.0126582
0.075756
0.0706461
0.0656819
0.0608518
0.0561935
0.0517161
0.0474296
0.0433388
0.0394436
0.0357404
0.0322244
0.0288905
0.0257333
0.0227473
0.019927
0.0172665
0.0147602
0.0124022
0.0101867
0.00810811
0.00616087
0.00433961
0.00263916
0.00105457
-0.000418868
-0.00178563
-0.00304992
-0.00421569
-0.00528661
-0.00626608
-0.00715712
-0.0079624
-0.00868415
-0.00932408
-0.00988326
-0.010362
-0.0107598
-0.0110745
-0.0113028
-0.0114428
0.0828553
0.0774195
0.0720161
0.0667913
0.0618017
0.0570382
0.0524907
0.0481528
0.0440194
0.0400856
0.0363466
0.0327979
0.0294346
0.0262515
0.0232433
0.0204043
0.0177286
0.0152104
0.0128436
0.0106225
0.00854137
0.00659452
0.0047766
0.00308242
0.00150703
4.57206e-05
-0.00130593
-0.0025521
-0.00369664
-0.00474312
-0.00569472
-0.00655422
-0.00732392
-0.00800555
-0.00860017
-0.00910799
-0.00952829
-0.00985866
-0.0100958
-0.0102337
0.0895569
0.0840672
0.0785764
0.0732407
0.0681068
0.0631602
0.0583909
0.0538022
0.0494011
0.0451929
0.0411797
0.0373614
0.0337358
0.0302999
0.0270496
0.0239798
0.0210854
0.0183607
0.0157998
0.0133968
0.0111458
0.00904099
0.00707651
0.00524683
0.00354658
0.0019706
0.000514021
-0.000827755
-0.00205901
-0.00318369
-0.00420531
-0.00512696
-0.00595119
-0.00667989
-0.00731421
-0.00785438
-0.00829955
-0.00864722
-0.0088937
-0.00902998
0.0916601
0.0865114
0.0811754
0.0758548
0.0706231
0.0655136
0.0605572
0.0557795
0.0511967
0.0468173
0.0426446
0.0386789
0.0349186
0.0313603
0.0279998
0.024832
0.0218513
0.0190515
0.0164264
0.0139696
0.0116746
0.0095351
0.00754471
0.00569739
0.00398729
0.00240882
0.000956701
-0.000373982
-0.00158776
-0.00268869
-0.00368033
-0.0045656
-0.00534673
-0.00602505
-0.0066009
-0.00707337
-0.00743989
-0.00769626
-0.00783192
0.0932814
0.0876442
0.08196
0.076375
0.0709428
0.0656903
0.0606363
0.0557925
0.051165
0.0467557
0.0425643
0.0385887
0.0348254
0.0312699
0.0279171
0.0247612
0.021796
0.0190152
0.0164121
0.0139801
0.0117125
0.0096029
0.0076449
0.00583238
0.00415952
0.0026208
0.00121105
-7.44412e-05
-0.00123993
-0.0022891
-0.00322497
-0.00404981
-0.00476493
-0.00537056
-0.00586561
-0.00624721
-0.0065105
-0.00664534
)
;

boundaryField
{
    inlet
    {
        type            zeroGradient;
    }
    outlet
    {
        type            fixedValue;
        value           nonuniform 0();
    }
    cylinder
    {
        type            zeroGradient;
    }
    top
    {
        type            symmetryPlane;
    }
    bottom
    {
        type            symmetryPlane;
    }
    defaultFaces
    {
        type            empty;
    }
    procBoundary0to1
    {
        type            processor;
        value           nonuniform List<scalar> 
46
(
-0.0852529
-0.0783795
-0.072239
-0.0665376
-0.0665376
-0.0695219
-0.0675877
-0.0658019
-0.0640485
-0.0623338
-0.0607325
-0.0592545
-0.0578493
-0.0522662
-0.0522662
-0.0511885
-0.0501659
-0.0491792
-0.0483054
-0.0474444
-0.0466074
-0.0458217
-0.0450779
-0.0443735
-0.043706
-0.0430735
-0.0424744
-0.0419063
-0.0413579
-0.0408834
-0.0403919
-0.039937
-0.0395096
-0.0391085
-0.0387337
-0.0383852
-0.0380631
-0.0377681
-0.0375011
-0.0372632
-0.037056
-0.0368823
-0.0367415
-0.0366475
-0.0365745
-0.0365952
)
;
    }
    procBoundary0to4
    {
        type            processor;
        value           nonuniform List<scalar> 
56
(
0.095028
0.0880597
0.0880597
0.081827
0.0737012
0.0655439
0.0655439
0.0559395
0.0473358
0.0473358
0.0365068
0.0275511
0.0186701
0.0186701
0.00567964
-0.00342807
-0.0124036
-0.021236
-0.021236
-0.036529
-0.0453781
-0.0540312
-0.0624808
-0.0707209
-0.0787452
-0.0787452
-0.0957628
0.105037
0.113415
0.119103
0.123063
0.124926
0.125736
0.125161
0.123903
0.121787
0.119289
0.116327
0.113229
0.109951
0.106722
0.103509
0.100472
0.0975782
0.0949425
0.0925255
0.090413
0.0885663
0.0870573
0.0858561
0.0850373
0.0845921
0.0963869
0.0963869
0.098544
0.098544
)
;
    }
    procBoundary0to5
    {
        type            processor;
        value           nonuniform List<scalar> 3(-0.0941346 -0.0857336 -0.0857336);
    }
}


// ************************************************************************* //
