/*--------------------------------*- C++ -*----------------------------------*\
  =========                 |
  \\      /  F ield         | OpenFOAM: The Open Source CFD Toolbox
   \\    /   O peration     | Website:  https://openfoam.org
    \\  /    A nd           | Version:  7
     \\/     M anipulation  |
\*---------------------------------------------------------------------------*/
FoamFile
{
    version     2.0;
    format      ascii;
    class       surfaceScalarField;
    location    "165";
    object      phi;
}
// * * * * * * * * * * * * * * * * * * * * * * * * * * * * * * * * * * * * * //

dimensions      [0 3 -1 0 0 0 0];

internalField   nonuniform List<scalar> 
3876
(
0.000939509
-0.000588939
0.00114213
0.000217054
0.00133622
0.00107047
0.00194388
0.00418896
0.000129881
-9.08299e-05
0.00416415
0.00037315
-0.000348333
0.00415064
0.000621076
-0.000607568
0.00414794
0.0008675
-0.000864807
0.00415789
0.00110659
-0.00111654
0.00418467
0.00133257
-0.00135936
0.00423404
0.00153881
-0.00158818
0.00431223
0.00171692
-0.00179511
0.00442446
0.0018555
-0.00196773
0.00457335
0.00193929
-0.00208819
0.00475754
0.00194986
-0.00213404
0.00497079
0.00186858
-0.00208183
0.00520244
0.00168124
-0.00191289
0.00543913
0.00138119
-0.00161788
0.00566485
0.000971308
-0.00119703
0.00585683
0.000468497
-0.000660483
0.00599415
-0.000106956
-3.03556e-05
0.00606991
-0.000704343
0.000628581
0.00607767
-0.0012838
0.00127604
0.00602632
-0.00181114
0.00186248
0.00592927
-0.00226592
0.00236298
0.00580056
-0.00264057
0.00276929
0.0056524
-0.00293655
0.00308471
0.00549443
-0.0031607
0.00331867
0.00533367
-0.00332233
0.0034831
0.00517478
-0.00343124
0.00359013
0.00502054
-0.00349649
0.00365073
0.00487225
-0.00352571
0.003674
0.00473009
-0.00352517
0.00366733
0.00459359
-0.00349978
0.00363628
0.00446192
-0.00345249
0.00358416
0.0043338
-0.00338475
0.00351287
0.00420772
-0.00329806
0.00342415
0.00408288
-0.00319239
0.00331723
0.00395885
-0.00306267
0.00318669
0.00383308
-0.00290289
0.00302867
0.0037009
-0.0027151
0.00284729
0.0035618
-0.00250435
0.00264344
0.00342664
-0.00225638
0.00239155
0.00331622
-0.00192618
0.00203661
0.00325076
-0.00146
0.00152546
0.00324002
-0.000835194
0.000845935
0.0032876
-7.92899e-05
3.1712e-05
0.00337186
0.000746612
-0.000830875
0.00348875
0.00156052
-0.00167741
0.00362489
0.00230662
-0.00244277
0.00377012
0.00295292
-0.00309814
0.0039166
0.00350393
-0.00365041
0.00406019
0.00399857
-0.00414216
0.00420102
0.00449425
-0.00463508
0.00434235
0.00503398
-0.00517531
0.00448819
0.00560573
-0.00575157
0.00464069
0.00611539
-0.0062679
0.00479613
0.00640324
-0.00655868
0.00494214
0.00630535
-0.00645136
0.00570662
0.00447476
0.000157326
0.00446442
0.000383483
0.00446975
0.000615748
0.00448975
0.000847498
0.00452468
0.00107167
0.00457637
0.00128088
0.00464809
0.00146709
0.00474381
0.00162119
0.00486707
0.00173225
0.00501937
0.001787
0.00519873
0.0017705
0.0053989
0.00166841
0.00560976
0.00147039
0.00581796
0.00117298
0.00600732
0.000781953
0.00616276
0.000313057
0.006266
-0.000210194
0.00631095
-0.000749295
0.00629728
-0.00127013
0.00623241
-0.00174628
0.00612749
-0.002161
0.00599433
-0.00250742
0.0058437
-0.00278592
0.00568431
-0.00300131
0.0055226
-0.00316063
0.00536288
-0.00327152
0.00520767
-0.00334128
0.00505816
-0.0033762
0.00491454
-0.00338155
0.00477637
-0.00336161
0.00464295
-0.00331908
0.00451324
-0.00325503
0.0043858
-0.00317062
0.00425974
-0.00306633
0.00413499
-0.00293792
0.00401017
-0.00277807
0.00388104
-0.00258598
0.00374497
-0.00236827
0.00360897
-0.00212039
0.00349194
-0.00180915
0.00341643
-0.00138449
0.00339637
-0.000815135
0.00343171
-0.00011463
0.00351534
0.000662982
0.00363258
0.00144329
0.00377113
0.00216806
0.00392002
0.00280403
0.00407118
0.00335277
0.00422056
0.00384919
0.00436854
0.00434627
0.0045187
0.00488382
0.00467562
0.00544881
0.0048416
0.00594941
0.00501151
0.00623333
0.00517143
0.00614543
0.00557303
0.00475377
0.000175937
0.00475424
0.000383019
0.0047732
0.000596786
0.00481003
0.000810673
0.00486437
0.00101733
0.00493659
0.00120865
0.00502784
0.00137584
0.00513979
0.00150925
0.00527378
0.00159825
0.00542968
0.00163109
0.00560459
0.00159559
0.00579214
0.00148085
0.00598267
0.00127986
0.00616386
0.000991789
0.00632214
0.00062367
0.00644396
0.000191243
0.00651687
-0.000283109
0.00653661
-0.000769036
0.00650491
-0.00123842
0.00642858
-0.00166995
0.00631735
-0.00204977
0.0061815
-0.00237157
0.00603037
-0.00263478
0.00587156
-0.00284251
0.00571072
-0.00299979
0.00555163
-0.00311243
0.00539655
-0.0031862
0.00524662
-0.00322628
0.00510211
-0.00323703
0.00496269
-0.00322218
0.00482778
-0.00318417
0.00469661
-0.00312386
0.00456795
-0.00304195
0.00444078
-0.00293916
0.00431519
-0.00281233
0.00419089
-0.00265377
0.00406478
-0.00245987
0.00393315
-0.00223664
0.00379939
-0.00198663
0.003679
-0.00168876
0.00359433
-0.00129982
0.00356278
-0.000783589
0.00358913
-0.00014098
0.00366735
0.000584763
0.00378331
0.00132733
0.00392334
0.00202803
0.00407553
0.00265183
0.00423132
0.00319698
0.00438654
0.00369398
0.00454161
0.0041912
0.00470047
0.00472495
0.0048684
0.00528089
0.00504768
0.00577012
0.0052319
0.00604912
0.00540589
0.00597143
0.00542753
0.00502801
0.00503643
0.00506471
0.00511276
0.00518023
0.00526676
0.00537211
0.00549605
0.00563794
0.0057959
0.00596597
0.00614153
0.0063135
0.00647096
0.00660212
0.00669604
0.00674451
0.00674502
0.00670016
0.00661634
0.00650207
0.00636622
0.00621678
0.00606026
0.00590158
0.00574411
0.00558994
0.00544022
0.00529532
0.00515508
0.00501906
0.00488671
0.00475706
0.00462909
0.00450282
0.0043788
0.00425534
0.0041286
-0.0021099
0.00399889
-0.00185692
0.00387758
-0.00156745
0.00378552
-0.00120775
0.00374279
-0.00074086
0.00375857
-0.00015676
0.00382912
0.000514216
0.0039418
0.00121465
0.00408205
0.00188778
0.00423691
0.00249697
0.00439706
0.00303683
0.00455795
0.0035331
0.00471991
0.00402924
0.00488732
0.00455755
0.00506613
0.00510208
0.0052584
0.00557785
0.00545669
0.00585083
0.00564479
0.00578333
0.00526973
0.00433226
0.00420795
0.00408821
0.00399106
0.00393762
0.00394114
0.00400178
0.00410888
0.00424768
0.0044042
0.00456816
0.00473434
0.00490289
0.00507868
0.00526818
0.0054731
0.00568532
0.00588758
0.000727811
-0.000810599
0.000943967
8.98216e-07
0.0011539
0.000860537
0.00135757
0.00174021
0.00155393
0.00260257
0.00173937
0.00340275
0.00190812
0.00409563
0.00205389
0.00464767
0.00217173
0.00504542
0.00225918
0.00529687
0.00231647
0.00542646
0.00234555
0.00546722
0.00234838
0.00545547
0.00232537
0.00542992
0.00227648
0.00542768
0.00220586
0.00546692
0.00212634
0.00552087
0.00205919
0.00550545
0.00202722
0.00530064
0.00204514
0.0048015
0.00211428
0.00396641
0.00222516
0.0028287
0.00236416
0.00147259
0.00251867
4.37037e-06
0.00267781
-0.00146063
0.00283116
-0.00280397
0.00296839
-0.00392215
0.00308095
-0.00475414
0.0031644
-0.00529634
0.00321897
-0.00559376
0.00324819
-0.00571613
0.00325684
-0.00573443
0.00324946
-0.00570543
0.00322952
-0.00566602
0.00319833
-0.00563922
0.00315409
-0.00564785
0.00309316
-0.00571806
0.00301426
-0.00585546
0.00292265
-0.0060057
0.00283042
-0.00603897
0.00275193
-0.00578763
0.00269861
-0.00512
0.00267705
-0.00399855
0.00268991
-0.00249066
0.00273664
-0.000745214
0.00281228
0.00104436
0.00290741
0.00268305
0.00300912
0.00402325
0.00310433
0.00500018
0.00318322
0.0056337
0.00324118
0.00599734
0.0032781
0.00617853
0.00329538
0.00625809
0.00329282
0.00631322
0.00326837
0.00641474
0.00322099
0.0065938
0.00315362
0.0067975
0.00307334
0.00688257
0.00298902
0.00666764
0.00600903
0.000524147
-0.00104058
0.000752007
-0.000226961
0.000976334
0.000636209
0.00119634
0.0015202
0.00141048
0.00238844
0.00161473
0.0031985
0.00180301
0.00390735
0.00196857
0.00448211
0.00210586
0.00490813
0.00221176
0.00519097
0.00228592
0.0053523
0.00232981
0.00542333
0.00234501
0.00544027
0.00233206
0.00544287
0.00229219
0.00546754
0.00223175
0.00552736
0.00216553
0.00558709
0.00211501
0.00555596
0.00210084
0.00531481
0.00213418
0.00476816
0.00221336
0.00388723
0.00232753
0.00271453
0.00246337
0.00133674
0.00260953
-0.000141782
0.00275672
-0.00160782
0.00289594
-0.0029432
0.003018
-0.00404421
0.00311537
-0.00485151
0.00318451
-0.00536548
0.00322633
-0.00563557
0.00324467
-0.00573447
0.00324423
-0.00573398
0.00322918
-0.00569038
0.00320259
-0.00563943
0.00316548
-0.00560211
0.00311586
-0.00559823
0.00304971
-0.00565191
0.00296521
-0.00577096
0.00286748
-0.00590798
0.00276939
-0.00594088
0.0026869
-0.00570514
0.00263294
-0.00506604
0.00261472
-0.00398034
0.00263455
-0.00251049
0.00269084
-0.0008015
0.00277734
0.000957862
0.00288342
0.00257697
0.00299537
0.0039113
0.00309972
0.00489584
0.00318663
0.00554678
0.00325171
0.00593227
0.00329505
0.00613518
0.0033182
0.00623495
0.00332118
0.00631024
0.00330229
0.00643363
0.00326071
0.00663538
0.00319908
0.00685913
0.00312349
0.00695817
0.00304158
0.00674954
0.006089
0.000331662
0.000568752
-0.000464052
0.0008057
0.000399261
0.00104039
0.00128551
0.00127094
0.00215788
0.0014928
0.00297664
0.00169954
0.00370061
0.001884
0.00429765
0.00204007
0.00475206
0.00216405
0.00506699
0.00225497
0.00526139
0.00231375
0.00536455
0.0023416
0.00541242
0.00233937
0.0054451
0.00230969
0.00549722
0.00226102
0.00557603
0.00220967
0.00563844
0.00217667
0.00558895
0.00218015
0.00531133
0.0022279
0.00472041
0.00231565
0.00379948
0.00243162
0.00259856
0.00256302
0.00120534
0.00269989
-0.000278648
0.00283451
-0.00174244
0.00295921
-0.00306789
0.00306587
-0.00415086
0.00314798
-0.00493363
0.00320291
-0.00542041
0.0032322
-0.00566486
0.00323996
-0.00574223
0.00323078
-0.0057248
0.00320846
-0.00566806
0.00317564
-0.00560661
0.00313307
-0.00555954
0.00307862
-0.00554378
0.00300797
-0.00558126
0.00291873
-0.00568172
0.00281568
-0.00580493
0.00271221
-0.00583741
0.00262577
-0.0056187
0.00257089
-0.00501116
0.00255551
-0.00396497
0.00258166
-0.00253664
0.00264676
-0.0008666
0.00274337
0.000861256
0.00285972
0.00246062
0.00298136
0.00378966
0.0030945
0.00478271
0.00318928
0.00545199
0.00326146
0.00586009
0.0033113
0.00608535
0.00334048
0.00620576
0.00334929
0.00630144
0.00333638
0.00644653
0.00330114
0.00667062
0.0032458
0.00691447
0.00317538
0.0070286
0.0030963
0.00682862
0.00616928
0.000396634
-0.000707845
0.00064422
0.000151675
0.000891452
0.00103828
0.00113667
0.00191267
0.00137458
0.00273873
0.00159841
0.00347678
0.00180063
0.00409543
0.00197464
0.00457805
0.00211613
0.00492549
0.00222353
0.00515399
0.00229716
0.00529092
0.00233788
0.0053717
0.002347
0.00543598
0.00232869
0.00551553
0.00229331
0.00561141
0.00225814
0.00567361
0.00224324
0.00560385
0.00226399
0.00529058
0.00232502
0.00465938
0.00241992
0.00370458
0.00253634
0.00248214
0.00266226
0.00107942
0.00278913
-0.000405527
0.00291078
-0.00186408
0.00302072
-0.00317783
0.00311188
-0.00424202
0.00317876
-0.00500051
0.00321963
-0.00546128
0.00323664
-0.00568187
0.00323416
-0.00573974
0.00321662
-0.00570727
0.00318745
-0.00563889
0.00314882
-0.00556798
0.00310124
-0.00551197
0.00304251
-0.00548504
0.00296807
-0.00550682
0.00287497
-0.00558862
0.00276744
-0.00569739
0.00265912
-0.00572909
0.00256878
-0.00552836
0.00251262
-0.004955
0.00249949
-0.00395184
0.00253123
-0.00256837
0.00260432
-0.000939692
0.00271023
0.000755346
0.00283614
0.00233471
0.00296694
0.00365885
0.00308852
0.00466113
0.00319101
0.0053495
0.00327026
0.00578084
0.00332666
0.00602895
0.00336203
0.00617039
0.00337693
0.00628654
0.00337042
0.00645304
0.00334203
0.006699
0.00329351
0.00696299
0.00322875
0.00709336
0.00315294
0.00690443
0.00624953
0.000237983
-0.000961603
0.000493936
-0.000104278
0.000751113
0.000781103
0.0010089
0.00165488
0.00126097
0.00248665
0.00150027
0.00323749
0.00171888
0.00387682
0.00190975
0.00438718
0.00206802
0.00476722
0.00219146
0.00503055
0.00227974
0.00520264
0.00233349
0.00531795
0.00235463
0.00541484
0.00234887
0.00552129
0.00232815
0.00563212
0.00231021
0.00569156
0.00231368
0.00560038
0.00235111
0.00525314
0.00242425
0.00458624
0.00252496
0.00360387
0.00264064
0.00236646
0.00276025
0.000959821
0.00287667
-0.000521952
0.00298512
-0.00197253
0.00308022
-0.00327294
0.0031559
-0.00431769
0.00320765
-0.00505226
0.00323468
-0.00548831
0.00323973
-0.00568693
0.00322736
-0.00572737
0.00320186
-0.00568177
0.00316624
-0.00560328
0.00312224
-0.00552397
0.00307011
-0.00545984
0.00300762
-0.00542255
0.0029301
-0.0054293
0.00283402
-0.00549254
0.00272288
-0.00558626
0.00261028
-0.0056165
0.00251612
-0.0054342
0.00245827
-0.00489715
0.00244671
-0.00394027
0.00248318
-0.00260484
0.00256343
-0.00101994
0.0026778
0.000640983
0.00281254
0.00219996
0.00295195
0.00351945
0.00308162
0.00453146
0.00319164
0.00523948
0.00327793
0.00569455
0.00334094
0.00596593
0.00338264
0.00612869
0.00340388
0.0062653
0.00340414
0.00645279
0.00338307
0.00672007
0.00334188
0.00700418
0.0032833
0.00715194
0.00321124
0.00697648
0.00632932
9.56353e-05
-0.00120549
0.000355364
-0.000364007
0.000620643
0.000515824
0.000888654
0.00138687
0.00115275
0.00222255
0.00140564
0.0029846
0.00163907
0.00364339
0.00184555
0.0041807
0.00201967
0.0045931
0.00215852
0.00489171
0.00226116
0.0051
0.00232806
0.00525105
0.0023619
0.005381
0.00236981
0.00551338
0.00236498
0.00563696
0.00236504
0.00569149
0.00238689
0.00557853
0.00244025
0.00519978
0.00252431
0.00450218
0.00262959
0.0034986
0.00274356
0.00225248
0.00285624
0.000847142
0.00296195
-0.000627667
0.00305717
-0.00206774
0.00313749
-0.00335327
0.00319779
-0.00437799
0.00323461
-0.00508908
0.00324806
-0.00550176
0.00324149
-0.00568036
0.00321962
-0.00570549
0.00318655
-0.00564871
0.00314491
-0.00556163
0.00309596
-0.00547503
0.00303973
-0.0054036
0.002974
-0.00535682
0.00289406
-0.00534937
0.00279586
-0.00539434
0.00268203
-0.00547243
0.00256579
-0.00550026
0.0024679
-0.00533631
0.00240792
-0.00483717
0.00239715
-0.00392951
0.00243752
-0.00264521
0.0025239
-0.00110633
0.00264591
0.000518976
0.00278875
0.00205713
0.00293621
0.00337199
0.00307362
0.00439405
0.003191
0.00512211
0.00328427
0.00560127
0.00335395
0.00589626
0.00340209
0.00608054
0.0034299
0.0062375
0.00343725
0.00644544
0.00342393
0.00673339
0.00339056
0.00703755
0.00333866
0.00720384
0.00327087
0.00704427
0.00640818
-3.22398e-05
-0.00143399
0.000231686
-0.000627933
0.000501253
0.000246257
0.000776752
0.00111137
0.00105052
0.00194879
0.00131494
0.00272018
0.00156142
0.00339691
0.00178207
0.00396004
0.00197094
0.00440423
0.00212443
0.00473822
0.00224104
0.00498339
0.00232122
0.00517087
0.00236843
0.00533378
0.00239108
0.00549073
0.00240315
0.00562489
0.00242176
0.00567288
0.00246178
0.00553852
0.00253019
0.00513136
0.00262399
0.00440839
0.00273272
0.00338987
0.00284417
0.00214103
0.00294954
0.00074177
0.00304449
-0.00072261
0.00312658
-0.00214984
0.00319231
-0.00341899
0.00323744
-0.00442312
0.00325957
-0.00511121
0.00325977
-0.00550195
0.00324196
-0.00566255
0.00321098
-0.00567452
0.00317075
-0.00560848
0.00312349
-0.00551437
0.00307003
-0.00542157
0.00301014
-0.0053437
0.00294165
-0.00528834
0.00285992
-0.00526764
0.00276042
-0.00529484
0.00264482
-0.00535682
0.00252564
-0.00538109
0.00242417
-0.00523483
0.00236162
-0.00477462
0.00235082
-0.0039187
0.00239407
-0.00268846
0.00248564
-0.00119789
0.0026144
0.000390222
0.00276458
0.00190694
0.00291954
0.00321703
0.00306433
0.00424925
0.00318889
0.00499755
0.0032891
0.00550106
0.00336546
0.0058199
0.00342014
0.00602586
0.0034547
0.00620295
0.00346945
0.00643068
0.00346427
0.00673857
0.00343916
0.00706266
0.00339445
0.00724855
0.00333146
0.00710727
0.00648561
-0.000127137
-0.00165178
0.000123366
-0.000878437
0.000394217
-2.45933e-05
0.000673827
0.000831763
0.000954673
0.00166795
0.0012284
0.00244644
0.00148602
0.00313929
0.00171926
0.0037268
0.00192162
0.00420187
0.00208887
0.00457098
0.00221901
0.00485324
0.00231259
0.0050773
0.00237385
0.00527252
0.0024122
0.00545238
0.00244201
0.00559508
0.00247946
0.00563543
0.00253722
0.00548076
0.00261975
0.00504884
0.00272215
0.00430599
0.00283335
0.00327867
0.0029417
0.00203268
0.00303953
0.00064394
0.00312383
-0.000806906
0.00319305
-0.00221906
0.00324445
-0.00347039
0.00327469
-0.00445336
0.00328245
-0.00511897
0.00326976
-0.00548926
0.00324112
-0.00563391
0.00320146
-0.00563486
0.00315448
-0.0055615
0.00310201
-0.0054619
0.00304446
-0.00536402
0.00298133
-0.00528057
0.00291054
-0.00521754
0.00282758
-0.00518468
0.00272757
-0.00519483
0.00261112
-0.00524037
0.00248976
-0.00525973
0.00238494
-0.00513001
0.00231938
-0.00470907
0.00230765
-0.00390697
0.00235278
-0.00273359
0.00244847
-0.00129359
0.00258309
0.000255609
0.00273985
0.00175018
0.00290176
0.00305513
0.00305358
0.00409742
0.00318513
0.004866
0.00329221
0.00539398
0.00337525
0.00573686
0.00343655
0.00596455
0.00347801
0.00616149
0.0035004
0.00640829
0.00350368
0.00673529
0.00348726
0.00707908
0.00345023
0.00728558
0.00339259
0.0071649
0.00656104
-0.000199605
-0.00184731
3.22239e-05
-0.00111027
0.000298597
-0.000290967
0.000580292
0.000550068
0.000865476
0.00138276
0.00114613
0.00216579
0.00141284
0.00287258
0.00165696
0.00348269
0.00187145
0.00398738
0.00205149
0.00439093
0.00219473
0.00471
0.00230185
0.00497018
0.00237781
0.00519656
0.00243273
0.00539746
0.00248091
0.0055469
0.00253726
0.00557908
0.00261219
0.00540582
0.00270783
0.0049532
0.00281777
0.00419605
0.00293061
0.00316583
0.0030354
0.00192789
0.0031257
0.000553635
0.00319959
-0.000880793
0.0032563
-0.00227577
0.00329372
-0.00350781
0.00330942
-0.00446906
0.00330316
-0.00511272
0.00327799
-0.00546409
0.00323896
-0.00559487
0.00319105
-0.00558696
0.00313773
-0.00550818
0.00308045
-0.00540462
0.00301922
-0.00530279
0.00295327
-0.00521463
0.0028806
-0.00514487
0.00279693
-0.005101
0.00269712
-0.00509502
0.00258071
-0.00512396
0.00245799
-0.00513701
0.00235014
-0.00502215
0.00228121
-0.00464014
0.00226765
-0.00389341
0.00231347
-0.00277941
0.00241233
-0.00139245
0.00255181
0.000116128
0.0027144
0.00158759
0.00288268
0.00288685
0.00304118
0.00393893
0.00317952
0.00472765
0.00329339
0.00528012
0.00338311
0.00564714
0.00345107
0.00589659
0.00349954
0.00611303
0.00352976
0.00637807
0.00354179
0.00672326
0.00353441
0.00708646
0.00350553
0.00731446
0.00345381
0.00721663
0.0066339
-0.000241472
-0.00201035
-3.44345e-05
-0.0013173
0.000220182
-0.000545583
0.000497225
0.000273025
0.000783313
0.00109667
0.00106818
0.00188093
0.00134177
0.00259898
0.00159495
0.00322951
0.00182015
0.00376218
0.00201203
0.00419905
0.00216795
0.00455409
0.00228879
0.00484933
0.00238007
0.00510528
0.00245227
0.00532527
0.00251924
0.00547993
0.00259433
0.00550399
0.00268573
0.00531443
0.00279346
0.00484547
0.00290993
0.00407958
0.00302371
0.00305205
0.00312469
0.00182691
0.00320758
0.000470747
0.00327145
-0.000944669
0.00331608
-0.0023204
0.00333993
-0.00353166
0.00334146
-0.00447059
0.00332161
-0.00509286
0.00328441
-0.0054269
0.00323545
-0.00554591
0.00317974
-0.00553126
0.00312049
-0.00544893
0.00305879
-0.00534291
0.00299427
-0.00523827
0.0029259
-0.00514626
0.00285174
-0.00507071
0.0027678
-0.00501706
0.00266882
-0.00499604
0.00255332
-0.00500847
0.00243009
-0.00501378
0.00231964
-0.0049117
0.00224705
-0.00456755
0.00223075
-0.00387711
0.00227617
-0.00282483
0.00237696
-0.00149324
0.0025204
-2.73082e-05
0.00268802
0.00141997
0.00286213
0.00271274
0.00302693
0.00377412
0.00317187
0.00458271
0.00329243
0.00515956
0.0033888
0.00555077
0.00346345
0.00582195
0.003519
0.00605747
0.00355718
0.00633989
0.00357816
0.00670228
0.00358015
0.00708447
0.00355988
0.00733473
0.00351464
0.00726187
0.00670357
-0.000246657
-0.00213026
-6.92151e-05
-0.00149475
0.000160702
-0.0007755
0.00042689
6.83705e-06
0.000709221
0.000814342
0.000994915
0.00159523
0.00127286
0.00232103
0.00153314
0.00296923
0.00176758
0.00352774
0.00197034
0.00399629
0.00213858
0.00438585
0.00227335
0.00471456
0.00238051
0.00499813
0.00247054
0.00523524
0.00255648
0.00539399
0.00264998
0.0054105
0.00275702
0.00520739
0.00287581
0.00472668
0.00299789
0.0039575
0.00311203
0.00293791
0.00320904
0.00172989
0.00328479
0.000395001
0.0033391
-0.00099898
0.00337214
-0.00235344
0.00338288
-0.0035424
0.00337068
-0.00445839
0.00333769
-0.00505987
0.00328895
-0.00537816
0.00323054
-0.0054875
0.00316749
-0.00546821
0.00310272
-0.00538416
0.00303698
-0.00527717
0.00296954
-0.00517084
0.00289913
-0.00507585
0.00282384
-0.00499543
0.00274001
-0.00493322
0.0026424
-0.00489843
0.00252861
-0.00489468
0.00240577
-0.00489094
0.00229327
-0.00479921
0.00221686
-0.00449114
0.00219696
-0.00385722
0.00224077
-0.00286864
0.00234245
-0.00159492
0.00248861
-0.000173466
0.00266057
0.00124801
0.00283993
0.00253338
0.00301067
0.00360338
0.00316199
0.00443138
0.00328914
0.00503242
0.00339211
0.00544779
0.00347343
0.00574063
0.0035361
0.00599481
0.00358231
0.00629368
0.00361239
0.0066722
0.003624
0.00707286
0.00361275
0.00734599
0.00357454
0.00730007
0.0067694
-0.000208177
-0.00219871
-7.22578e-05
-0.00163066
0.000126695
-0.000974453
0.000372305
-0.000238773
0.000645317
0.00054133
0.000927493
0.00131306
0.0012067
0.00204183
0.00147183
0.0027041
0.00171392
0.00328565
0.0019266
0.00378361
0.00210681
0.00420565
0.00225568
0.00456569
0.00237915
0.00487466
0.00248737
0.00512702
0.00259226
0.0052891
0.00270361
0.00529915
0.00282537
0.00508562
0.0029542
0.00459784
0.00308105
0.00383065
0.00319507
0.00282389
0.00328811
0.00163686
0.00335702
0.000326084
0.00340228
-0.00104424
0.00342426
-0.00237543
0.00342236
-0.00354049
0.00339691
-0.00443294
0.00335128
-0.00501425
0.00329152
-0.0053184
0.00322418
-0.00542015
0.00315426
-0.00539829
0.00308438
-0.00531427
0.00301495
-0.00520774
0.00294495
-0.00510084
0.00287285
-0.00500375
0.00279676
-0.00491934
0.00271336
-0.00484983
0.00261759
-0.00480266
0.00250621
-0.00478331
0.00238464
-0.00476936
0.00227077
-0.00468535
0.00219052
-0.00441089
0.00216626
-0.00383295
0.00220725
-0.00290963
0.00230863
-0.0016963
0.00245636
-0.000321191
0.00263188
0.00107248
0.00281592
0.00234934
0.00299221
0.00342709
0.0031497
0.00427389
0.00328331
0.0048988
0.00339283
0.00533827
0.00348079
0.00565268
0.00355055
0.00592505
0.00360481
0.00623941
0.00364406
0.00663295
0.00366549
0.00705143
0.00366362
0.00734787
0.003633
0.00733069
0.00683074
-0.000120647
-3.65707e-05
-0.00171474
0.0001246
-0.00113562
0.000340219
-0.000454392
0.00059557
0.000285979
0.000868484
0.00104014
0.00114489
0.00176543
0.00141207
0.00243692
0.00165994
0.00303778
0.00188146
0.0035621
0.00207321
0.00401389
0.00223625
0.00440265
0.00237627
0.00473463
0.00250277
0.00500052
0.00262632
0.00516555
0.0027548
0.00517066
0.00289028
0.00495014
0.00302814
0.00445999
0.00315898
0.00369981
0.00327252
0.00271035
0.00336162
0.00154775
0.00342407
0.000263636
0.0034608
-0.00108097
0.00347225
-0.00238688
0.00345821
-0.00352645
0.00342001
-0.00439474
0.00336228
-0.00495652
0.00329206
-0.00524818
0.00321631
-0.00534441
0.00313998
-0.00532196
0.00306538
-0.00523968
0.00299262
-0.00513497
0.00292039
-0.0050286
0.00284693
-0.00493029
0.00277034
-0.00484275
0.00268765
-0.00476714
0.00259406
-0.00470906
0.00248572
-0.00467497
0.00236628
-0.00464992
0.00225181
-0.00457087
0.0021679
-0.00432698
0.00213862
-0.00380368
0.00217561
-0.00294662
0.00227536
-0.00179605
0.00242365
-0.000469487
0.00260185
0.000894286
0.00278995
0.00216124
0.00297141
0.00324564
0.00313482
0.00411048
0.00327476
0.00475886
0.00339074
0.00522229
0.00348528
0.00555814
0.00356208
0.00584824
0.00362434
0.00617716
0.00367276
0.00658453
0.00370415
0.00702004
0.00371197
0.00734004
0.00368945
0.00735321
0.00688694
5.22469e-05
-0.00175412
0.000163295
-0.00124667
0.000338766
-0.000629863
0.000566393
5.83517e-05
0.000822472
0.000784062
0.00109063
0.00149727
0.00135612
0.00217142
0.00160736
0.00278654
0.00183628
0.00333318
0.00203891
0.00381125
0.00221589
0.00422567
0.00237242
0.0045781
0.00251698
0.00485596
0.00265861
0.00502393
0.0028033
0.00502597
0.0029514
0.00480203
0.00309727
0.00431412
0.00323139
0.00356569
0.00334414
0.0025976
0.00342944
0.00146246
0.0034858
0.000207272
0.00351453
-0.0011097
0.00351595
-0.0023883
0.00349026
-0.00350075
0.00343983
-0.00434431
0.00337057
-0.00488726
0.00329046
-0.00516807
0.00320685
-0.00526079
0.00312459
-0.0052397
0.00304568
-0.00516077
0.00296991
-0.0050592
0.00289575
-0.00495445
0.00282124
-0.00485577
0.00274443
-0.00476595
0.00266267
-0.00468537
0.00257152
-0.00461792
0.00246673
-0.00457018
0.00235023
-0.00453342
0.002236
-0.00445665
0.00214879
-0.00423976
0.00211403
-0.00376891
0.00214588
-0.00297847
0.00224266
-0.00189282
0.00239038
-0.000617213
0.00257037
0.0007143
0.00276191
0.0019697
0.00294811
0.00305944
0.00311719
0.0039414
0.00326331
0.00461274
0.00338566
0.00509995
0.00348669
0.0054571
0.00357044
0.00576449
0.00364059
0.00610701
0.00369811
0.006527
0.00373951
0.00697865
0.00375729
0.00732225
0.00374334
0.00736716
0.00693733
0.000199764
-0.00173014
0.000250777
-0.00129768
0.000376455
-0.000755541
0.00056569
-0.000130883
0.000795935
0.000553817
0.0010489
0.00124431
0.00130777
0.00191255
0.00155906
0.00253525
0.00179331
0.00309893
0.00200564
0.00359892
0.00219592
0.00403539
0.00236845
0.00440557
0.00253046
0.00469395
0.00268926
0.00486513
0.00284903
0.00486621
0.00300857
0.00464249
0.00316143
0.00416126
0.00329814
0.00342898
0.00340984
0.0024859
0.00349149
0.00138081
0.00354213
0.000156636
0.00356335
-0.00113093
0.00355522
-0.00238017
0.00351837
-0.0034639
0.00345625
-0.00428219
0.00337605
-0.00480706
0.00328666
-0.00507867
0.00319574
-0.00516988
0.00310802
-0.00515198
0.00302518
-0.00507793
0.00294673
-0.00498075
0.00287093
-0.00487864
0.00279563
-0.00478048
0.00271885
-0.00468917
0.00263819
-0.00460471
0.00254967
-0.0045294
0.00244881
-0.00446931
0.00233599
-0.00442061
0.00222291
-0.00434356
0.00213294
-0.00414979
0.00209243
-0.00372841
0.00211813
-0.00300417
0.00221055
-0.00198525
0.00235657
-0.00076323
0.00253738
0.000533494
0.00273169
0.00177538
0.0029222
0.00286892
0.00309668
0.00376693
0.00324881
0.00446061
0.0033774
0.00497136
0.00348483
0.00534967
0.00357539
0.00567393
0.00365326
0.00602914
0.00371975
0.00646051
0.00377113
0.00692727
0.00379908
0.00729431
0.00379414
0.0073721
0.00698129
0.000393659
-0.00165693
0.000388515
-0.00129254
0.000459944
-0.000826969
0.000600597
-0.000271537
0.000796474
0.000357941
0.00102627
0.00101451
0.0012723
0.00166651
0.00151918
0.00228838
0.00175578
0.00286233
0.00197586
0.00337884
0.00217813
0.00383312
0.00236559
0.0042181
0.00254392
0.00451562
0.00271864
0.00469041
0.0028921
0.00469274
0.00306178
0.00447281
0.00322058
0.00400246
0.00335922
0.00329034
0.00346962
0.0023755
0.00354779
0.00130264
0.00359302
0.000111404
0.0036072
-0.00114511
0.00358994
-0.00236291
0.00354238
-0.00341635
0.00346912
-0.00420892
0.0033786
-0.00471655
0.00328056
-0.00498063
0.0031829
-0.00507222
0.00309019
-0.00505926
0.0030038
-0.00499154
0.00292297
-0.00489992
0.00284578
-0.00480145
0.00276995
-0.00470465
0.00269342
-0.00461264
0.00261402
-0.0045253
0.00252823
-0.00444362
0.00243156
-0.00437264
0.00232306
-0.00431211
0.00221202
-0.00423252
0.00212002
-0.00405778
0.00207376
-0.00368215
0.00209243
-0.00302284
0.00217923
-0.00207205
0.00232218
-0.000906184
0.00250285
0.000352823
0.00269923
0.00157901
0.00289358
0.00267457
0.00307315
0.00358736
0.0032311
0.00430266
0.00336581
0.00483665
0.0034795
0.00523598
0.00357671
0.00557672
0.0036621
0.00594375
0.00373735
0.00638526
0.00379862
0.006866
0.00383684
0.00725609
0.00384131
0.00736763
0.00701817
0.000626427
-0.00154733
0.000572835
-0.00123895
0.000589979
-0.000844114
0.000678853
-0.000360411
0.000831844
0.00020495
0.00103016
0.0008162
0.00125614
0.00144053
0.00149299
0.00205154
0.00172783
0.00262749
0.00195273
0.00315393
0.0021648
0.00362106
0.00236539
0.00401751
0.00255835
0.00432266
0.00274729
0.00450148
0.00293282
0.00450721
0.00311119
0.00429444
0.00327483
0.00383883
0.00341472
0.00315045
0.00352356
0.00226665
0.003598
0.00122821
0.00363885
7.05526e-05
0.00364601
-0.00115227
0.00361998
-0.00233688
0.00356216
-0.00335853
0.00347831
-0.00412507
0.00337812
-0.00461635
0.00327207
-0.00487458
0.00316826
-0.0049684
0.00307103
-0.00496203
0.00298146
-0.00490198
0.00289853
-0.004817
0.00282019
-0.00472311
0.00274405
-0.00462851
0.00266797
-0.00453656
0.00258994
-0.00444727
0.00250693
-0.00436061
0.00241461
-0.00428031
0.00231093
-0.00420843
0.00220282
-0.00412441
0.00210964
-0.0039646
0.00205787
-0.00363039
0.00206888
-0.00303384
0.00214876
-0.00215193
0.00228743
-0.00104486
0.00246682
0.000173425
0.00266449
0.00138135
0.00286217
0.00247689
0.0030465
0.00340303
0.00321006
0.0041391
0.00335074
0.00469597
0.00347056
0.00511616
0.00357423
0.00547305
0.00366687
0.0058511
0.00375061
0.00630152
0.00382161
0.006795
0.00387015
0.00720754
0.00388435
0.00735344
0.0070474
0.000885067
0.000795288
-0.00114917
0.000764764
-0.000813589
0.000802369
-0.000398016
0.000907769
9.95498e-05
0.00106744
0.000656526
0.00126599
0.00124198
0.00148633
0.0018312
0.00171422
0.0023996
0.00193993
0.00292822
0.00215864
0.00340235
0.00236972
0.00380642
0.00257497
0.00411741
0.00277597
0.00430048
0.00297164
0.00431153
0.00315711
0.00410897
0.0033244
0.00367153
0.00346482
0.00301003
0.00357185
0.00215962
0.00364293
0.00115713
0.00367901
3.44695e-05
0.00367972
-0.00115297
0.00364523
-0.00230239
0.00357758
-0.00329088
0.00348372
-0.00403121
0.00337452
-0.00450716
0.00326113
-0.0047612
0.00315174
-0.00485901
0.00305045
-0.00486075
0.00295806
-0.00480958
0.00287331
-0.00473225
0.00279403
-0.00464382
0.00271777
-0.00455226
0.00264232
-0.00446111
0.00256576
-0.00437071
0.00248553
-0.00428037
0.0023976
-0.00419238
0.00229912
-0.00410995
0.00219475
-0.00402004
0.00210135
-0.0038712
0.00204457
-0.00357362
0.00204753
-0.0030368
0.00211937
-0.00222377
0.00225243
-0.00117791
0.00242939
-3.53708e-06
0.00262749
0.00118325
0.00282792
0.00227646
0.00301665
0.00321431
0.00318558
0.00397017
0.00333207
0.00454948
0.00345786
0.00499038
0.00356777
0.00536313
0.00366738
0.00575149
0.00375928
0.00620963
0.00383975
0.00671453
0.0038986
0.00714869
0.00392279
0.00732925
0.0070684
0.00104275
-0.00103823
0.00097624
-0.000747082
0.000968463
-0.00039024
0.00102613
4.18786e-05
0.00114282
0.000539838
0.00130759
0.00107721
0.00150483
0.00163397
0.00171983
0.0021846
0.00194135
0.0027067
0.00216257
0.00318113
0.00238067
0.00358832
0.00259518
0.00390289
0.0028056
0.00409006
0.00300917
0.00410797
0.00319994
0.0039182