/*--------------------------------*- C++ -*----------------------------------*\
  =========                 |
  \\      /  F ield         | OpenFOAM: The Open Source CFD Toolbox
   \\    /   O peration     | Website:  https://openfoam.org
    \\  /    A nd           | Version:  7
     \\/     M anipulation  |
\*---------------------------------------------------------------------------*/
FoamFile
{
    version     2.0;
    format      ascii;
    class       volScalarField;
    location    "120";
    object      p;
}
// * * * * * * * * * * * * * * * * * * * * * * * * * * * * * * * * * * * * * //

dimensions      [0 2 -2 0 0 0 0];

internalField   nonuniform List<scalar> 
31800
(
-0.369744
-0.370664
-0.371111
-0.371446
-0.371869
-0.372567
-0.373704
-0.375398
-0.377729
-0.380762
-0.384558
-0.389187
-0.394731
-0.401276
-0.4089
-0.417656
-0.427542
-0.438468
-0.450212
-0.462382
-0.474369
-0.485327
-0.494165
-0.499675
-0.500193
-0.372538
-0.373059
-0.37331
-0.373508
-0.37384
-0.374492
-0.375636
-0.377396
-0.379864
-0.383116
-0.387228
-0.392286
-0.398393
-0.405654
-0.414172
-0.424017
-0.435201
-0.44764
-0.461101
-0.475165
-0.489172
-0.5022
-0.513029
-0.520429
-0.522045
-0.375259
-0.375381
-0.375433
-0.375491
-0.375721
-0.376318
-0.377454
-0.37926
-0.38184
-0.38528
-0.389669
-0.395109
-0.401717
-0.409618
-0.41893
-0.42974
-0.44207
-0.455835
-0.470793
-0.486497
-0.502237
-0.517039
-0.529542
-0.538469
-0.5411
-0.377866
-0.377595
-0.377447
-0.377358
-0.377479
-0.378007
-0.379116
-0.380946
-0.383608
-0.3872
-0.391821
-0.397586
-0.404624
-0.413076
-0.423072
-0.434711
-0.448019
-0.462908
-0.479125
-0.496197
-0.513373
-0.52963
-0.543483
-0.553705
-0.557002
-0.380319
-0.37967
-0.379322
-0.379082
-0.379085
-0.379528
-0.380588
-0.382413
-0.385123
-0.388824
-0.393627
-0.399654
-0.407046
-0.415952
-0.426514
-0.438835
-0.452943
-0.468746
-0.485975
-0.504133
-0.522433
-0.539833
-0.554699
-0.565971
-0.569615
-0.382587
-0.381578
-0.381034
-0.380639
-0.380513
-0.380855
-0.381842
-0.38363
-0.386348
-0.390112
-0.395039
-0.40126
-0.408923
-0.418184
-0.429187
-0.442039
-0.456767
-0.473269
-0.491263
-0.51023
-0.529348
-0.547584
-0.563123
-0.575197
-0.578886
-0.384642
-0.383299
-0.382564
-0.382013
-0.381747
-0.381968
-0.382856
-0.384572
-0.387256
-0.391031
-0.396022
-0.402366
-0.410213
-0.419724
-0.431044
-0.444279
-0.459447
-0.47644
-0.494957
-0.51447
-0.534112
-0.552895
-0.568777
-0.58141
-0.584854
-0.386464
-0.384818
-0.383901
-0.383191
-0.382776
-0.382857
-0.383616
-0.385223
-0.387827
-0.391559
-0.39655
-0.402942
-0.410888
-0.420546
-0.432061
-0.445532
-0.460972
-0.478258
-0.497075
-0.516888
-0.536782
-0.55585
-0.57177
-0.58473
-0.587648
-0.388039
-0.386127
-0.385039
-0.38417
-0.383595
-0.383516
-0.384117
-0.385576
-0.388051
-0.391684
-0.396611
-0.402977
-0.410935
-0.420641
-0.432234
-0.445806
-0.461359
-0.478759
-0.497675
-0.51757
-0.537474
-0.556596
-0.57228
-0.585347
-0.587473
-0.389362
-0.387222
-0.385977
-0.384951
-0.384208
-0.38395
-0.384362
-0.385633
-0.387931
-0.391408
-0.396206
-0.402473
-0.41036
-0.42002
-0.431584
-0.445133
-0.460659
-0.478016
-0.496854
-0.516644
-0.536351
-0.555323
-0.570538
-0.5835
-0.58458
-0.390431
-0.388107
-0.38672
-0.385541
-0.384623
-0.384167
-0.384362
-0.385406
-0.387478
-0.390742
-0.395348
-0.401445
-0.409184
-0.418711
-0.430149
-0.443569
-0.458947
-0.476126
-0.49474
-0.514272
-0.533613
-0.552269
-0.566809
-0.57945
-0.579247
-0.391252
-0.388791
-0.38728
-0.385953
-0.384855
-0.384184
-0.384134
-0.384913
-0.386714
-0.389711
-0.394065
-0.399927
-0.407447
-0.416764
-0.427993
-0.44119
-0.456321
-0.473216
-0.491489
-0.510641
-0.529477
-0.547669
-0.561366
-0.573456
-0.571752
-0.391838
-0.389286
-0.38767
-0.386204
-0.384922
-0.384022
-0.383703
-0.384183
-0.385669
-0.38835
-0.392396
-0.397963
-0.405201
-0.414242
-0.425191
-0.438094
-0.4529
-0.469429
-0.487274
-0.50595
-0.524179
-0.541766
-0.554474
-0.565751
-0.562354
-0.392205
-0.389611
-0.387911
-0.386314
-0.384848
-0.383708
-0.383099
-0.383249
-0.384383
-0.386704
-0.390392
-0.395613
-0.402515
-0.411226
-0.421841
-0.434393
-0.448816
-0.464922
-0.482276
-0.500403
-0.517939
-0.534781
-0.546364
-0.55653
-0.551286
-0.392377
-0.389787
-0.388025
-0.386306
-0.384658
-0.38327
-0.382355
-0.382152
-0.382902
-0.384825
-0.388116
-0.392947
-0.399469
-0.407808
-0.418048
-0.43021
-0.444214
-0.459856
-0.476675
-0.494194
-0.510959
-0.526904
-0.537223
-0.545946
-0.538742
-0.39238
-0.389841
-0.388036
-0.386208
-0.38438
-0.382742
-0.381509
-0.380935
-0.381277
-0.382774
-0.385635
-0.390044
-0.396155
-0.404092
-0.41393
-0.425679
-0.439242
-0.454396
-0.470648
-0.487498
-0.503409
-0.518286
-0.527185
-0.534121
-0.524895
-0.392246
-0.3898
-0.387972
-0.386046
-0.384045
-0.382155
-0.380599
-0.379644
-0.379563
-0.380615
-0.383026
-0.386991
-0.392671
-0.400189
-0.409612
-0.420937
-0.434047
-0.448696
-0.464349
-0.480464
-0.495417
-0.509027
-0.516329
-0.52116
-0.509907
-0.39201
-0.389696
-0.387863
-0.385851
-0.383683
-0.381545
-0.379666
-0.378327
-0.377818
-0.378416
-0.380366
-0.383879
-0.38912
-0.396213
-0.405218
-0.416118
-0.428769
-0.442896
-0.45791
-0.473202
-0.487062
-0.499186
-0.504698
-0.507179
-0.49396
-0.391713
-0.389563
-0.387739
-0.385651
-0.383325
-0.380946
-0.378751
-0.377032
-0.376098
-0.376246
-0.377738
-0.380799
-0.385605
-0.392277
-0.400871
-0.411347
-0.423536
-0.437113
-0.451427
-0.46578
-0.478376
-0.488788
-0.49232
-0.492318
-0.477271
-0.391397
-0.389436
-0.387635
-0.38548
-0.383005
-0.380395
-0.377895
-0.375809
-0.374463
-0.374173
-0.37522
-0.377843
-0.382226
-0.388492
-0.396683
-0.40674
-0.418451
-0.431434
-0.444958
-0.458222
-0.469356
-0.477837
-0.479239
-0.476756
-0.4601
-0.391107
-0.389354
-0.387584
-0.385369
-0.382755
-0.379926
-0.377137
-0.374704
-0.372969
-0.372263
-0.372888
-0.375096
-0.379078
-0.384955
-0.392755
-0.402387
-0.413591
-0.425908
-0.43852
-0.450514
-0.459976
-0.466344
-0.465538
-0.460714
-0.442733
-0.390893
-0.389357
-0.387621
-0.385353
-0.382609
-0.379577
-0.37652
-0.373766
-0.371669
-0.37058
-0.370815
-0.372638
-0.376246
-0.381753
-0.389167
-0.398357
-0.408999
-0.420548
-0.432093
-0.442614
-0.450211
-0.454343
-0.451348
-0.44444
-0.425458
-0.390806
-0.389485
-0.387783
-0.385465
-0.382601
-0.379383
-0.376082
-0.373038
-0.370617
-0.369182
-0.369064
-0.370537
-0.373799
-0.378952
-0.385974
-0.394684
-0.404685
-0.415331
-0.425629
-0.434473
-0.440058
-0.441906
-0.436847
-0.428187
-0.408531
-0.390896
-0.389779
-0.388108
-0.38574
-0.382765
-0.37938
-0.375864
-0.372563
-0.369858
-0.368121
-0.367692
-0.368851
-0.371791
-0.376595
-0.383205
-0.391372
-0.400621
-0.410202
-0.419067
-0.426055
-0.429547
-0.429149
-0.422241
-0.41219
-0.392158
-0.391214
-0.39028
-0.38863
-0.386214
-0.383137
-0.379603
-0.3759
-0.372382
-0.369435
-0.367439
-0.366741
-0.367618
-0.370254
-0.374703
-0.380855
-0.388392
-0.396751
-0.405093
-0.412347
-0.417349
-0.418745
-0.416212
-0.407739
-0.396645
-0.376487
-0.39181
-0.391027
-0.389385
-0.386917
-0.383747
-0.380085
-0.376226
-0.372528
-0.369381
-0.36717
-0.36624
-0.366862
-0.369198
-0.373264
-0.378893
-0.385686
-0.393
-0.399933
-0.405432
-0.408381
-0.407749
-0.403243
-0.393527
-0.381681
-0.361597
-0.392728
-0.392056
-0.390406
-0.387882
-0.384626
-0.380855
-0.376868
-0.373027
-0.369721
-0.367334
-0.366202
-0.366583
-0.368607
-0.372244
-0.377259
-0.383177
-0.389289
-0.394664
-0.398311
-0.399213
-0.396672
-0.39038
-0.379729
-0.367304
-0.347481
-0.394009
-0.393399
-0.39172
-0.389135
-0.385798
-0.381935
-0.377847
-0.373896
-0.370467
-0.367934
-0.366621
-0.366759
-0.368442
-0.371582
-0.375875
-0.38078
-0.385543
-0.389247
-0.391004
-0.389934
-0.385638
-0.377756
-0.366397
-0.353315
-0.334011
-0.395684
-0.395083
-0.393353
-0.390696
-0.387282
-0.383341
-0.379176
-0.375143
-0.371617
-0.36896
-0.367472
-0.367352
-0.368644
-0.371202
-0.374655
-0.378409
-0.381703
-0.383673
-0.38356
-0.380651
-0.374774
-0.365521
-0.353557
-0.339399
-0.320981
-0.39778
-0.397127
-0.395322
-0.392583
-0.389091
-0.385082
-0.380857
-0.376762
-0.373159
-0.370387
-0.368717
-0.368304
-0.369141
-0.371018
-0.373508
-0.375992
-0.377731
-0.377953
-0.376044
-0.371466
-0.364201
-0.35384
-0.341314
-0.325666
-0.30822
-0.400313
-0.399546
-0.397641
-0.394805
-0.391231
-0.387159
-0.382884
-0.37874
-0.375067
-0.372177
-0.370303
-0.369549
-0.369851
-0.370941
-0.372355
-0.373471
-0.373609
-0.372118
-0.368529
-0.36247
-0.354012
-0.342813
-0.329823
-0.313275
-0.295963
-0.403291
-0.402352
-0.400316
-0.397365
-0.393702
-0.389566
-0.385246
-0.381055
-0.37731
-0.374286
-0.37217
-0.371013
-0.370691
-0.37089
-0.371125
-0.370807
-0.369342
-0.36621
-0.361086
-0.353733
-0.344277
-0.332449
-0.319066
-0.302543
-0.285913
-0.406718
-0.405546
-0.40335
-0.400265
-0.396499
-0.392294
-0.387923
-0.383681
-0.379851
-0.376665
-0.374257
-0.372622
-0.371582
-0.370789
-0.369765
-0.367979
-0.364943
-0.360275
-0.353772
-0.345306
-0.335029
-0.322727
-0.309128
-0.292835
-0.276724
-0.41059
-0.409127
-0.406742
-0.4035
-0.399615
-0.395329
-0.390898
-0.386591
-0.382651
-0.379262
-0.376501
-0.374305
-0.372451
-0.370577
-0.368237
-0.364981
-0.36044
-0.354358
-0.346635
-0.33722
-0.326272
-0.313624
-0.299912
-0.283935
-0.268428
-0.414896
-0.413094
-0.410488
-0.407065
-0.403043
-0.398659
-0.394152
-0.389756
-0.385673
-0.382029
-0.378843
-0.375997
-0.373236
-0.370206
-0.366517
-0.361821
-0.355861
-0.348497
-0.339705
-0.329486
-0.317992
-0.30509
-0.291339
-0.275694
-0.260681
-0.419627
-0.417441
-0.414584
-0.410957
-0.406775
-0.402273
-0.397668
-0.393154
-0.388883
-0.384922
-0.381228
-0.377637
-0.373883
-0.369641
-0.364598
-0.358511
-0.351236
-0.342722
-0.332998
-0.322098
-0.310159
-0.297069
-0.28332
-0.26799
-0.253402
-0.424773
-0.42216
-0.419026
-0.415171
-0.410807
-0.406165
-0.401433
-0.396764
-0.39225
-0.387896
-0.383604
-0.379176
-0.374352
-0.36886
-0.36248
-0.355073
-0.346591
-0.337052
-0.32652
-0.315042
-0.302735
-0.289506
-0.275779
-0.260738
-0.246504
-0.430321
-0.427247
-0.423812
-0.419705
-0.415137
-0.41033
-0.405439
-0.400566
-0.395744
-0.390913
-0.385925
-0.380569
-0.374611
-0.367853
-0.360171
-0.351526
-0.341948
-0.3315
-0.320265
-0.308292
-0.295678
-0.282342
-0.268647
-0.253867
-0.239934
-0.436262
-0.432697
-0.428939
-0.424561
-0.419765
-0.414766
-0.409676
-0.404545
-0.399336
-0.393933
-0.388151
-0.381781
-0.37464
-0.366617
-0.357685
-0.34789
-0.33732
-0.326068
-0.314219
-0.301821
-0.288945
-0.275525
-0.261864
-0.247319
-0.233643
-0.442588
-0.438506
-0.434407
-0.429738
-0.424694
-0.419471
-0.414139
-0.408681
-0.402998
-0.39692
-0.390242
-0.382782
-0.374426
-0.365156
-0.355036
-0.344181
-0.332717
-0.320752
-0.308364
-0.295595
-0.282495
-0.269005
-0.255379
-0.241045
-0.227591
-0.449291
-0.444669
-0.440214
-0.43524
-0.429925
-0.424446
-0.418816
-0.412954
-0.406698
-0.399836
-0.392164
-0.38355
-0.373963
-0.363478
-0.352239
-0.340411
-0.328142
-0.315541
-0.302678
-0.289582
-0.276286
-0.262738
-0.249144
-0.235
-0.221741
-0.456363
-0.451182
-0.446361
-0.441068
-0.43546
-0.429685
-0.423694
-0.41734
-0.410402
-0.402644
-0.393889
-0.384069
-0.37325
-0.361593
-0.349305
-0.336586
-0.323591
-0.310423
-0.297136
-0.28375
-0.270281
-0.256682
-0.243117
-0.229148
-0.216059
-0.463794
-0.45804
-0.452845
-0.44722
-0.441296
-0.435179
-0.428755
-0.421809
-0.414073
-0.405309
-0.395387
-0.384327
-0.372288
-0.359509
-0.346244
-0.33271
-0.319058
-0.305379
-0.291713
-0.278066
-0.264442
-0.2508
-0.237263
-0.223452
-0.210516
-0.471574
-0.465234
-0.45966
-0.453693
-0.447424
-0.440912
-0.433972
-0.426323
-0.41767
-0.407795
-0.396638
-0.384316
-0.371081
-0.357234
-0.343061
-0.32878
-0.314532
-0.30039
-0.286381
-0.2725
-0.258738
-0.245056
-0.231547
-0.217883
-0.205085
-0.479687
-0.472751
-0.466796
-0.460476
-0.453831
-0.446862
-0.439311
-0.430842
-0.42115
-0.410066
-0.397618
-0.384029
-0.369631
-0.354774
-0.339757
-0.32479
-0.309998
-0.295437
-0.281116
-0.267022
-0.253135
-0.239421
-0.225938
-0.212414
-0.199741
-0.488112
-0.480576
-0.474238
-0.467552
-0.460493
-0.452997
-0.44473
-0.435318
-0.42447
-0.412089
-0.398312
-0.383462
-0.367941
-0.352131
-0.336329
-0.320732
-0.305442
-0.290496
-0.275892
-0.261605
-0.247607
-0.233864
-0.220411
-0.207018
-0.194461
-0.496823
-0.488684
-0.481964
-0.474897
-0.467379
-0.459274
-0.45018
-0.439698
-0.427582
-0.413832
-0.398701
-0.382607
-0.366009
-0.349301
-0.332772
-0.316593
-0.300845
-0.285547
-0.270683
-0.256222
-0.242126
-0.228361
-0.214939
-0.201672
-0.189225
-0.505786
-0.497047
-0.489947
-0.48248
-0.47445
-0.465645
-0.455603
-0.443926
-0.430441
-0.415263
-0.398769
-0.38146
-0.363832
-0.346282
-0.329075
-0.312358
-0.296189
-0.280568
-0.265468
-0.250848
-0.236666
-0.222886
-0.209499
-0.196356
-0.184012
-0.514961
-0.505628
-0.498148
-0.490258
-0.481656
-0.472051
-0.460936
-0.447944
-0.432999
-0.416355
-0.398501
-0.380012
-0.361405
-0.343064
-0.325227
-0.308012
-0.291454
-0.275537
-0.260222
-0.245461
-0.231206
-0.217418
-0.204071
-0.19105
-0.178806
-0.524297
-0.514382
-0.506523
-0.498181
-0.488937
-0.478424
-0.466112
-0.451691
-0.435214
-0.417076
-0.39788
-0.378253
-0.358719
-0.339637
-0.321214
-0.303538
-0.286622
-0.270434
-0.254924
-0.240039
-0.225724
-0.211936
-0.198634
-0.185736
-0.173591
-0.533739
-0.523257
-0.515019
-0.50619
-0.496226
-0.484692
-0.471057
-0.455105
-0.437039
-0.417401
-0.39689
-0.376173
-0.355762
-0.335987
-0.31702
-0.298918
-0.281672
-0.265237
-0.249554
-0.234561
-0.220199
-0.20642
-0.193173
-0.180398
-0.168351
-0.543221
-0.532193
-0.523572
-0.514217
-0.503446
-0.490774
-0.475698
-0.458128
-0.438432
-0.4173
-0.395513
-0.373756
-0.352521
-0.3321
-0.312627
-0.294133
-0.276585
-0.259928
-0.244091
-0.229008
-0.214613
-0.200854
-0.187669
-0.17502
-0.163074
-0.552669
-0.54112
-0.532113
-0.522183
-0.510515
-0.496586
-0.47996
-0.460699
-0.439353
-0.416748
-0.393731
-0.370988
-0.348981
-0.327959
-0.308019
-0.289163
-0.271343
-0.254487
-0.238518
-0.223362
-0.20895
-0.195221
-0.182108
-0.169589
-0.157746
-0.562003
-0.549962
-0.540563
-0.530004
-0.517342
-0.502041
-0.483766
-0.462761
-0.439762
-0.415718
-0.391523
-0.367852
-0.345124
-0.323545
-0.303176
-0.283992
-0.265926
-0.248896
-0.232817
-0.217607
-0.203192
-0.189505
-0.176476
-0.164091
-0.152357
-0.571134
-0.558636
-0.548834
-0.537588
-0.523833
-0.507051
-0.487043
-0.464258
-0.439619
-0.414183
-0.38887
-0.364328
-0.340932
-0.318841
-0.29808
-0.2786
-0.260317
-0.243139
-0.226971
-0.211726
-0.197325
-0.183695
-0.17076
-0.158515
-0.146896
-0.57997
-0.567051
-0.556833
-0.544838
-0.52989
-0.511525
-0.489717
-0.465139
-0.43889
-0.412117
-0.38575
-0.360398
-0.336386
-0.313827
-0.292713
-0.272969
-0.254499
-0.237198
-0.220965
-0.205706
-0.191336
-0.177776
-0.164949
-0.152851
-0.141354
-0.588411
-0.575111
-0.564461
-0.55165
-0.535413
-0.515376
-0.491721
-0.465352
-0.437538
-0.409494
-0.382141
-0.356042
-0.331467
-0.308486
-0.287056
-0.267083
-0.248455
-0.231059
-0.214785
-0.199533
-0.185212
-0.171737
-0.159032
-0.147088
-0.135723
-0.596353
-0.582714
-0.571614
-0.557919
-0.540301
-0.518519
-0.492988
-0.464852
-0.435531
-0.406289
-0.378022
-0.35124
-0.326156
-0.302797
-0.281091
-0.260925
-0.242171
-0.224708
-0.208417
-0.193194
-0.178942
-0.165569
-0.152999
-0.141218
-0.129996
-0.60369
-0.589757
-0.578185
-0.563537
-0.544457
-0.52087
-0.493455
-0.463594
-0.432838
-0.402478
-0.373371
-0.345971
-0.320433
-0.296744
-0.274804
-0.254479
-0.235632
-0.21813
-0.20185
-0.186679
-0.172515
-0.159261
-0.146842
-0.135233
-0.124165
-0.610312
-0.59613
-0.584065
-0.568398
-0.547782
-0.522351
-0.493067
-0.461538
-0.429427
-0.398035
-0.368168
-0.340215
-0.314281
-0.29031
-0.268177
-0.247732
-0.228826
-0.211316
-0.195072
-0.179976
-0.165922
-0.152806
-0.140554
-0.129127
-0.11823
-0.61611
-0.601725
-0.589142
-0.572396
-0.550185
-0.52289
-0.491768
-0.458645
-0.425273
-0.392938
-0.362391
-0.333955
-0.307681
-0.283478
-0.261196
-0.24067
-0.221739
-0.204253
-0.188074
-0.173079
-0.159155
-0.146195
-0.134128
-0.122896
-0.11219
-0.620975
-0.606433
-0.593309
-0.575427
-0.551577
-0.522419
-0.489513
-0.454884
-0.420349
-0.387167
-0.356022
-0.327173
-0.300618
-0.276234
-0.253849
-0.233282
-0.214362
-0.196932
-0.180847
-0.165978
-0.152207
-0.139423
-0.127556
-0.116535
-0.106043
-0.6248
-0.610147
-0.59646
-0.577394
-0.551876
-0.520876
-0.486258
-0.450223
-0.414632
-0.380701
-0.349043
-0.319851
-0.293077
-0.268565
-0.246122
-0.225557
-0.206686
-0.189345
-0.173383
-0.158666
-0.145071
-0.132482
-0.120832
-0.110037
-0.0997754
-0.627481
-0.612763
-0.598491
-0.578203
-0.551008
-0.518209
-0.481965
-0.444636
-0.408102
-0.373523
-0.341438
-0.311976
-0.285045
-0.260459
-0.238008
-0.217486
-0.198703
-0.181486
-0.165678
-0.15114
-0.137744
-0.12537
-0.113955
-0.103393
-0.0933501
-0.62892
-0.61418
-0.599305
-0.577769
-0.548906
-0.514368
-0.476603
-0.438101
-0.400741
-0.365617
-0.333193
-0.303536
-0.27651
-0.251906
-0.229496
-0.209062
-0.190406
-0.173348
-0.157725
-0.143393
-0.13022
-0.118083
-0.106925
-0.096607
-0.0867378
-0.629022
-0.614304
-0.598812
-0.576014
-0.54551
-0.509314
-0.470145
-0.430598
-0.392533
-0.356971
-0.324297
-0.294518
-0.267464
-0.242899
-0.22058
-0.20028
-0.181791
-0.164927
-0.149522
-0.135424
-0.122498
-0.110622
-0.0997415
-0.0896841
-0.0799915
-0.627701
-0.613047
-0.59693
-0.572869
-0.540769
-0.503014
-0.46257
-0.422114
-0.383468
-0.347574
-0.314739
-0.284916
-0.2579
-0.233431
-0.211256
-0.191134
-0.172854
-0.156221
-0.141065
-0.127232
-0.114577
-0.102985
-0.0924003
-0.0825851
-0.0731885
-0.624878
-0.61033
-0.593583
-0.568273
-0.534643
-0.49544
-0.453861
-0.412637
-0.373537
-0.337418
-0.304513
-0.274724
-0.247812
-0.223499
-0.201519
-0.181623
-0.163593
-0.147229
-0.132353
-0.118816
-0.106459
-0.0951734
-0.0848976
-0.075346
-0.066278
-0.620484
-0.60608
-0.588709
-0.562178
-0.527098
-0.486576
-0.44401
-0.402161
-0.362735
-0.326499
-0.293616
-0.263938
-0.237198
-0.2131
-0.19137
-0.171747
-0.154008
-0.137951
-0.123392
-0.110175
-0.0981435
-0.0871865
-0.0772372
-0.0679722
-0.0592461
-0.614458
-0.600237
-0.582252
-0.554543
-0.518111
-0.47641
-0.433011
-0.390685
-0.351061
-0.314816
-0.282046
-0.252557
-0.226056
-0.20223
-0.180814
-0.161508
-0.144104
-0.12839
-0.11418
-0.101312
-0.0896315
-0.0790268
-0.0694233
-0.060464
-0.0520916
-0.60675
-0.592749
-0.574169
-0.545338
-0.507667
-0.464937
-0.420866
-0.378211
-0.338516
-0.302372
-0.269805
-0.240583
-0.214388
-0.190882
-0.169865
-0.150912
-0.133881
-0.118547
-0.10472
-0.0922319
-0.0809271
-0.0706977
-0.0614595
-0.0528218
-0.044818
-0.597322
-0.583577
-0.564428
-0.534546
-0.495761
-0.45216
-0.40758
-0.364746
-0.325109
-0.289171
-0.256898
-0.228023
-0.202206
-0.179115
-0.158477
-0.139955
-0.123344
-0.108428
-0.0950167
-0.0829379
-0.072035
-0.0622036
-0.0533496
-0.0450484
-0.03743
-0.586143
-0.572689
-0.553007
-0.522158
-0.482395
-0.43809
-0.393167
-0.350302
-0.310847
-0.275222
-0.243334
-0.214885
-0.189517
-0.166888
-0.1467
-0.128648
-0.1125
-0.0980403
-0.085077
-0.0734364
-0.0629608
-0.0535502
-0.0450986
-0.0371482
-0.029933
-0.573198
-0.56007
-0.539897
-0.508175
-0.467581
-0.422742
-0.377642
-0.334893
-0.295746
-0.260538
-0.229126
-0.201179
-0.176326
-0.154217
-0.134539
-0.117
-0.101357
-0.0873905
-0.0749082
-0.0637343
-0.0537114
-0.0447437
-0.0367123
-0.0291269
-0.0223328
-0.558482
-0.545713
-0.525098
-0.492609
-0.451339
-0.406139
-0.36103
-0.318541
-0.279823
-0.245136
-0.214287
-0.186917
-0.162646
-0.141115
-0.122004
-0.105024
-0.0899252
-0.0764885
-0.0645192
-0.0538402
-0.0442948
-0.0357917
-0.0281975
-0.0209914
-0.014636
-0.541999
-0.529622
-0.508624
-0.475482
-0.433696
-0.38831
-0.343358
-0.301272
-0.263101
-0.229035
-0.198834
-0.172117
-0.148493
-0.127598
-0.109106
-0.0927297
-0.0782165
-0.0653452
-0.0539202
-0.0437636
-0.0347201
-0.0267028
-0.0195622
-0.0127497
-0.00684988
-0.523767
-0.511814
-0.490498
-0.456825
-0.414687
-0.369292
-0.324658
-0.283113
-0.245606
-0.212257
-0.182787
-0.156798
-0.133885
-0.113682
-0.095861
-0.0801327
-0.066244
-0.0539726
-0.0431227
-0.0335153
-0.0249974
-0.0174864
-0.0108156
-0.00441076
0.00101739
-0.503814
-0.492316
-0.470751
-0.436677
-0.39436
-0.349136
-0.304957
-0.264093
-0.227365
-0.194829
-0.166173
-0.14098
-0.118842
-0.0993869
-0.0822854
-0.0672484
-0.0540223
-0.0423846
-0.0321393
-0.0231073
-0.0151382
-0.00815328
-0.0019675
0.0040154
0.00895685
-0.48218
-0.471165
-0.449425
-0.415085
-0.372772
-0.327895
-0.284291
-0.244249
-0.208412
-0.17678
-0.149016
-0.12469
-0.103386
-0.0847323
-0.0683979
-0.0540941
-0.0415674
-0.0305959
-0.0209839
-0.0125526
-0.00515473
0.00128516
0.00697098
0.0125177
0.0169584
-0.458912
-0.448409
-0.426574
-0.392112
-0.349969
-0.305556
-0.262756
-0.223628
-0.188782
-0.158144
-0.131347
-0.107953
-0.0875427
-0.0697412
-0.0542194
-0.0406887
-0.0288968
-0.0186228
-0.00967159
-0.0018652
0.00493972
0.0108164
0.015988
0.021084
0.0250106
-0.434065
-0.424107
-0.402268
-0.36785
-0.325965
-0.282227
-0.240361
-0.202275
-0.168517
-0.138956
-0.113199
-0.0908001
-0.0713381
-0.0544382
-0.0397722
-0.0270529
-0.0160294
-0.00648254
0.0017817
0.00893978
0.0151308
0.0204269
0.0250708
0.0297007
0.0331008
-0.407704
-0.398329
-0.37659
-0.34238
-0.300801
-0.257963
-0.217164
-0.180237
-0.147661
-0.119255
-0.0946064
-0.0732627
-0.0548017
-0.0388498
-0.0250804
-0.0132085
-0.00298526
0.00580647
0.013359
0.0198465
0.0254036
0.0301025
0.0342049
0.0383517
0.041214
-0.379902
-0.371157
-0.349606
-0.315561
-0.27475
-0.232841
-0.193226
-0.157567
-0.126259
-0.0990826
-0.0756072
-0.055375
-0.0379645
-0.0230041
-0.0101697
0.00082111
0.0102144
0.0182248
0.0250424
0.0308384
0.0357423
0.0398281
0.0433751
0.0470178
0.0493282
-0.350738
-0.342675
-0.321372
-0.287665
-0.247743
-0.206927
-0.168612
-0.134317
-0.104361
-0.0784836
-0.0562411
-0.037173
-0.0208592
-0.00693091
0.00493291
0.0150114
0.0235473
0.0307521
0.0368134
0.0418983
0.0461309
0.0495887
0.052566
0.0556787
0.0574139
-0.320295
-0.312981
-0.291909
-0.258844
-0.219871
-0.180293
-0.143386
-0.110548
-0.0820182
-0.0575043
-0.0365504
-0.018695
-0.00352043
0.0093385
0.0201991
0.0293366
0.03699
0.0433673
0.0486528
0.0530087
0.0565525
0.0593687
0.0617647
0.0643192
0.0654517
-0.288648
-0.282171
-0.261435
-0.229114
-0.191224
-0.153011
-0.117617
-0.0863189
-0.0592851
-0.0361934
-0.0165791
1.92458e-05
0.0140157
0.0257714
0.0355991
0.0437698
0.0505182
0.0560483
0.0605409
0.0641509
0.066989
0.0691523
0.0709617
0.0729315
0.0734386
-0.255914
-0.250368
-0.23006
-0.198569
-0.161893
-0.125162
-0.0913751
-0.0616927
-0.036218
-0.0146019
0.00362687
0.0189281
0.0317117
0.0423337
0.0511022
0.0582833
0.0641068
0.0687729
0.0724574
0.0753058
0.0774226
0.0789271
0.080149
0.0814839
0.0812798
-0.222373
-0.217558
-0.197858
-0.16731
-0.131968
-0.0968271
-0.0647327
-0.0367345
-0.0128751
0.00721773
0.02402
0.0379887
0.0495285
0.0589902
0.0666765
0.0728482
0.07773
0.0815179
0.0843815
0.0864549
0.0878402
0.0886911
0.0893162
0.0898591
0.088638
-0.188026
-0.183915
-0.164932
-0.135439
-0.101545
-0.0680894
-0.0377644
-0.0115112
0.0106833
0.0292113
0.0445514
0.0571566
0.0674261
0.0757048
0.0822893
0.0874348
0.0913612
0.0942594
0.0962918
0.097581
0.0982362
0.098453
0.098445
0.0979007
0.0952312
-0.152955
-0.149591
-0.131394
-0.103063
-0.0707184
-0.039035
-0.0105468
0.0139088
0.0343958
0.0513233
0.0651708
0.0763866
0.0853635
0.0924401
0.0979068
0.102013
0.104973
0.106973
0.108166
0.108667
0.108605
0.108207
0.107495
0.105645
0.101803
-0.117289
-0.114709
-0.0973599
-0.070289
-0.0395871
-0.00975119
0.0168422
0.0394556
0.0581994
0.0734969
0.0858269
0.0956322
0.103299
0.109158
0.113495
0.116551
0.118537
0.119632
0.119981
0.119696
0.118928
0.117906
0.116395
0.113298
0.110669
-0.0811576
-0.0793897
-0.06295
-0.037227
-0.00825003
0.0196734
0.0443236
0.0650584
0.0820304
0.0956745
0.106468
0.114846
0.121189
0.125821
0.129018
0.131019
0.132025
0.132211
0.131714
0.130647
0.129175
0.127487
0.125172
0.121378
0.119528
-0.0446926
-0.0437581
-0.0282844
-0.00398806
0.0231929
0.0491495
0.0718175
0.0906453
0.105824
0.117798
0.12704
0.133981
0.138991
0.142388
0.144442
0.145382
0.145407
0.144683
0.143343
0.141499
0.139322
0.136947
0.133903
0.129658
0.127923
-0.0080244
-0.00793927
0.0065156
0.0293164
0.0546412
0.0785874
0.0992435
0.116144
0.129515
0.139808
0.147492
0.152989
0.156662
0.158821
0.159729
0.15961
0.158654
0.157022
0.154841
0.152226
0.149341
0.14628
0.142581
0.137959
0.136034
0.0287154
0.0279396
0.0413286
0.0625747
0.0859945
0.107897
0.126521
0.141483
0.153039
0.161646
0.167769
0.171821
0.174158
0.175081
0.174846
0.173669
0.171736
0.169201
0.166186
0.162804
0.159211
0.155474
0.151166
0.146154
0.14388
0.0653952
0.063751
0.0760332
0.0956756
0.117153
0.136989
0.15357
0.166589
0.17633
0.183253
0.187818
0.190429
0.191434
0.191126
0.189754
0.187527
0.184624
0.181192
0.17735
0.173209
0.168914
0.164515
0.159621
0.154195
0.151487
0.101884
0.0993676
0.110509
0.128509
0.148016
0.165773
0.18031
0.191389
0.199322
0.20457
0.207585
0.208765
0.208447
0.206919
0.204419
0.201151
0.197287
0.192969
0.18831
0.183418
0.178428
0.17338
0.167915
0.162055
0.158863
0.138051
0.134663
0.144635
0.160964
0.178486
0.194163
0.206661
0.215814
0.221952
0.225538
0.227018
0.226781
0.225155
0.222419
0.218805
0.214509
0.209697
0.204505
0.199041
0.193408
0.187733
0.182049
0.176023
0.169717
0.166014
0.173767
0.169511
0.178295
0.192934
0.208466
0.22207
0.232546
0.239791
0.244155
0.246101
0.246065
0.244429
0.241513
0.237587
0.232876
0.227569
0.221825
0.215773
0.209517
0.203156
0.196809
0.190501
0.183923
0.177167
0.172937
0.208905
0.203789
0.211372
0.224313
0.237861
0.249409
0.257888
0.263252
0.265869
0.2662
0.264674
0.261664
0.257481
0.252386
0.246598
0.240299
0.233641
0.226746
0.219716
0.212642
0.205637
0.198718
0.191599
0.184393
0.179628
0.243341
0.237375
0.243752
0.254998
0.266576
0.276097
0.282611
0.286128
0.287032
0.28578
0.282794
0.278438
0.273015
0.266778
0.259938
0.252669
0.245117
0.237401
0.229614
0.221844
0.214196
0.206682
0.199034
0.191384
0.186081
0.276952
0.270151
0.275325
0.284886
0.294522
0.302051
0.306641
0.308353
0.307583
0.304786
0.300377
0.294708
0.288076
0.280726
0.27286
0.264648
0.256227
0.247711
0.239188
0.230741
0.222468
0.214375
0.206214
0.198128
0.192288
0.30962
0.302001
0.305982
0.31388
0.32161
0.327192
0.329906
0.329862
0.327465
0.323166
0.317373
0.31043
0.302625
0.294194
0.285334
0.276206
0.266943
0.257652
0.248416
0.239314
0.230435
0.221781
0.213124
0.204613
0.198242
0.341229
0.332815
0.335619
0.341886
0.347754
0.351443
0.352339
0.350592
0.34662
0.340868
0.333737
0.325562
0.316622
0.307147
0.297327
0.287316
0.27724
0.267201
0.257278
0.247544
0.23808
0.228885
0.21975
0.210828
0.203934
0.371668
0.362485
0.364135
0.368811
0.372873
0.37473
0.37387
0.370483
0.364993
0.357843
0.349423
0.340062
0.330032
0.319553
0.30881
0.29795
0.287093
0.276336
0.265752
0.255411
0.245386
0.235672
0.22608
0.216761
0.209357
0.400832
0.390907
0.391436
0.394568
0.396887
0.396983
0.394437
0.389476
0.382532
0.374042
0.364388
0.353893
0.342818
0.331379
0.319753
0.308081
0.296478
0.285034
0.27382
0.262899
0.252337
0.242128
0.2321
0.222401
0.214501
0.428618
0.417983
0.417428
0.419075
0.419722
0.418134
0.413979
0.407518
0.399187
0.38942
0.378592
0.367015
0.354947
0.342594
0.330128
0.317684
0.305371
0.293275
0.281462
0.269989
0.258917
0.248238
0.237799
0.227737
0.219358
0.454931
0.44362
0.442026
0.442252
0.441307
0.438118
0.432437
0.424554
0.41491
0.403934
0.391994
0.379395
0.366386
0.35317
0.339909
0.326735
0.313752
0.30104
0.288661
0.276667
0.265114
0.253991
0.243163
0.232759
0.223922
0.479678
0.46773
0.465146
0.464025
0.461574
0.456875
0.449756
0.440535
0.429657
0.417544
0.404558
0.390998
0.377106
0.363078
0.349072
0.335213
0.3216
0.30831
0.295399
0.282918
0.270912
0.259373
0.248183
0.237456
0.228184
0.502775
0.49023
0.486714
0.484324
0.48046
0.474349
0.465886
0.455416
0.443384
0.430211
0.41625
0.401793
0.387077
0.372293
0.357592
0.343095
0.328896
0.315067
0.301662
0.288726
0.276299
0.264374
0.252847
0.24182
0.232137
0.524143
0.511045
0.506657
0.503086
0.497909
0.490487
0.48078
0.469152
0.456054
0.441899
0.427037
0.411751
0.396275
0.380791
0.365448
0.350362
0.335621
0.321296
0.307435
0.294079
0.281264
0.268982
0.257146
0.245842
0.235776
0.54371
0.530103
0.524911
0.52025
0.513866
0.505241
0.494393
0.481705
0.46763
0.452577
0.436889
0.420846
0.404673
0.38855
0.372621
0.356995
0.341761
0.326981
0.312703
0.298964
0.285795
0.273189
0.261071
0.249513
0.239093
0.561408
0.547342
0.541416
0.535764
0.528284
0.518568
0.506686
0.493039
0.47808
0.462215
0.445781
0.429052
0.41225
0.39555
0.379091
0.36298
0.347299
0.33211
0.317456
0.303372
0.289883
0.276984
0.264613
0.252826
0.242085
0.577179
0.562704
0.556119
0.549578
0.541117
0.530427
0.517623
0.503121
0.487374
0.470785
0.453687
0.436348
0.418987
0.401774
0.384843
0.3683
0.352222
0.336669
0.321682
0.307291
0.293518
0.280359
0.267765
0.255774
0.244745
0.590971
0.576138
0.568973
0.561651
0.552329
0.540785
0.527173
0.511922
0.495487
0.478265
0.460586
0.442715
0.424865
0.407204
0.389862
0.372942
0.356519
0.340649
0.325371
0.310713
0.296693
0.283309
0.27052
0.258352
0.24707
0.602737
0.587601
0.579938
0.571946
0.561886
0.549611
0.535309
0.519419
0.502396
0.484634
0.46646
0.448136
0.42987
0.411827
0.394136
0.376895
0.360179
0.34404
0.328515
0.31363
0.299401
0.285825
0.272872
0.260554
0.249057
0.612441
0.597056
0.58898
0.580431
0.56976
0.556881
0.542008
0.52559
0.508081
0.489875
0.471294
0.452596
0.433988
0.415632
0.397654
0.380151
0.363193
0.346834
0.331107
0.316037
0.301636
0.287904
0.274816
0.262375
0.250701
0.620051
0.604473
0.596071
0.587083
0.575929
0.562573
0.547251
0.530418
0.512529
0.493975
0.475075
0.456085
0.43721
0.418609
0.400408
0.3827
0.365555
0.349024
0.333141
0.317927
0.303393
0.28954
0.276349
0.263813
0.252
0.625544
0.60983
0.601191
0.591881
0.580376
0.566673
0.551025
0.533892
0.515728
0.496922
0.477793
0.458593
0.439527
0.420752
0.402391
0.384537
0.367259
0.350607
0.334612
0.319296
0.304669
0.29073
0.277466
0.264865
0.252955
0.628905
0.613112
0.604326
0.594814
0.583089
0.56917
0.55332
0.536002
0.517669
0.498711
0.479442
0.460116
0.440934
0.422055
0.403599
0.385659
0.368302
0.351578
0.335518
0.320143
0.305461
0.291473
0.278168
0.26553
0.253568
0.630126
0.614312
0.605468
0.595876
0.584063
0.570059
0.554131
0.536744
0.51835
0.499336
0.480018
0.460649
0.441429
0.422516
0.404029
0.386062
0.368682
0.351936
0.335858
0.320465