/*--------------------------------*- C++ -*----------------------------------*\
  =========                 |
  \\      /  F ield         | OpenFOAM: The Open Source CFD Toolbox
   \\    /   O peration     | Website:  https://openfoam.org
    \\  /    A nd           | Version:  7
     \\/     M anipulation  |
\*---------------------------------------------------------------------------*/
FoamFile
{
    version     2.0;
    format      ascii;
    class       surfaceScalarField;
    location    "120";
    object      phi;
}
// * * * * * * * * * * * * * * * * * * * * * * * * * * * * * * * * * * * * * //

dimensions      [0 3 -1 0 0 0 0];

internalField   nonuniform List<scalar> 
63130
(
-1.24208e-06
8.47964e-05
-8.35543e-05
-5.3854e-06
0.000234922
-0.000230779
-1.2951e-05
0.000372294
-0.000364728
-2.42918e-05
0.000494753
-0.000483412
-3.95182e-05
0.000601506
-0.00058628
-5.8487e-05
0.000693463
-0.000674494
-8.08377e-05
0.000773013
-0.000750662
-0.00010606
0.000843538
-0.000818316
-0.000133567
0.000908704
-0.000881197
-0.000162751
0.000971739
-0.000942555
-0.000193013
0.00103485
-0.00100459
-0.000223747
0.00109887
-0.00106814
-0.000254299
0.00116307
-0.00113252
-0.000283899
0.00122515
-0.00119555
-0.000311595
0.00128124
-0.00125355
-0.000336183
0.00132589
-0.0013013
-0.000356176
0.00135199
-0.001332
-0.000369799
0.00135076
-0.00133713
-0.000375042
0.0013118
-0.00130656
-0.000369755
0.00122338
-0.00122867
-0.000351756
0.00107287
-0.00109087
-0.000318953
0.00084771
-0.000880513
-0.000269141
0.000536405
-0.000586217
-0.000200529
0.000131528
-0.000200141
-0.000372397
0.000281816
-0.000109948
-5.92824e-07
8.53892e-05
-3.11414e-06
0.000237444
-8.29902e-06
0.000377479
-1.66836e-05
0.000503138
-2.85238e-05
0.000613347
-4.37725e-05
0.000708711
-6.21098e-05
0.00079135
-8.3009e-05
0.000864437
-0.000105815
0.00093151
-0.000129811
0.000995735
-0.000154259
0.0010593
-0.000178401
0.00112301
-0.000201423
0.00118609
-0.00022241
0.00124614
-0.000240276
0.00129911
-0.000253728
0.00133934
-0.000261242
0.0013595
-0.000261098
0.00135061
-0.000251448
0.00130215
-0.000230452
0.00120238
-0.000196356
0.00103878
-0.000147648
0.000799003
-8.2623e-05
0.00047138
2.51405e-07
4.86539e-05
-0.000476287
0.000104142
4.75121e-08
8.53417e-05
-8.51712e-07
0.000238343
-3.62144e-06
0.000380248
-8.96481e-06
0.000508481
-1.72743e-05
0.000621656
-2.85978e-05
0.000720035
-4.2658e-05
0.00080541
-5.89153e-05
0.000880695
-7.66483e-05
0.000949243
-9.50302e-05
0.00101412
-0.00011318
0.00107745
-0.000130182
0.00114001
-0.000145061
0.00120097
-0.000156752
0.00125783
-0.000164049
0.00130641
-0.000165577
0.00134087
-0.000159803
0.00135373
-0.00014508
0.00133589
-0.000119744
0.00127681
-8.22877e-05
0.00116493
-3.13909e-05
0.000987881
3.3912e-05
0.0007337
0.000114934
0.000390358
0.000212018
-4.84298e-05
-0.000594537
0.000330267
6.675e-07
8.46742e-05
1.36381e-06
0.000237647
1.00677e-06
0.000380605
-1.25304e-06
0.000510741
-5.93438e-06
0.000626337
-1.31746e-05
0.000727275
-2.27423e-05
0.000814978
-3.40903e-05
0.000892043
-4.64368e-05
0.000961589
-5.88487e-05
0.00102653
-7.03058e-05
0.00108891
-7.97331e-05
0.00114944
-8.5999e-05
0.00120724
-8.78923e-05
0.00125972
-8.40942e-05
0.00130261
-7.31707e-05
0.00132995
-5.35927e-05
0.00133415
-2.38148e-05
0.00130611
1.76099e-05
0.00123539
7.20108e-05
0.00111052
0.00014024
0.000919652
0.000222729
0.000651212
0.000320355
0.000292731
0.000432666
-0.00016074
-0.000727424
0.000565553
1.25485e-06
8.34193e-05
3.4944e-06
0.000235407
5.50802e-06
0.000378592
6.32641e-06
0.000509922
5.322e-06
0.000627342
2.27051e-06
0.000730326
-2.64399e-06
0.000819893
-8.87372e-06
0.000898272
-1.55856e-05
0.000968301
-2.17495e-05
0.00103269
-2.62135e-05
0.00109337
-2.77518e-05
0.00115098
-2.50815e-05
0.00120457
-1.68572e-05
0.0012515
-1.66311e-06
0.00128741
2.19882e-05
0.0013063
5.56007e-05
0.00130054
0.000100626
0.00126109
0.000158343
0.00117767
0.000229688
0.00103918
0.000315299
0.00083404
0.000415121
0.00055139
0.00052986
0.000177993
0.000658225
-0.000289106
-0.00087588
0.000806681
1.80054e-06
8.16188e-05
5.50376e-06
0.000231704
9.80793e-06
0.000374288
1.36516e-05
0.000506079
1.63161e-05
0.000624677
1.74998e-05
0.000729143
1.73383e-05
0.000820054
1.63714e-05
0.000899239
1.5471e-05
0.000969202
1.57508e-05
0.00103241
1.84812e-05
0.00109064
2.50256e-05
0.00114443
3.68062e-05
0.00119279
5.52893e-05
0.00123301
8.19771e-05
0.00126073
0.000118382
0.00126989
0.000165976
0.00125294
0.000226101
0.00120096
0.000299851
0.00110392
0.000387925
0.000951106
0.000490711
0.000731254
0.000607795
0.000434306
0.000739841
4.59463e-05
0.00088495
-0.000434214
-0.00104109
0.00105016
2.29502e-06
7.93238e-05
7.35758e-06
0.000226641
1.3833e-05
0.000367812
2.05991e-05
0.000499313
2.68676e-05
0.000618409
3.22706e-05
0.00072374
3.68953e-05
0.000815429
4.12652e-05
0.000894869
4.62771e-05
0.00096419
5.31108e-05
0.00102558
6.31367e-05
0.00108062
7.78385e-05
0.00112973
9.87597e-05
0.00117186
0.00012747
0.0012043
0.00016554
0.00122266
0.000214496
0.00122093
0.000275767
0.00119167
0.000350579
0.00112615
0.000439864
0.00101464
0.000544107
0.000846863
0.000663542
0.000611819
0.000797526
0.000300322
0.000946839
-0.000103367
0.00110924
-0.000596617
-0.00122444
0.00129259
2.73013e-06
7.65937e-05
9.02454e-06
0.000220347
1.75148e-05
0.000359322
2.70506e-05
0.000489777
3.67991e-05
0.00060866
4.63394e-05
0.000714199
5.57126e-05
0.000806056
6.54186e-05
0.000885163
7.63637e-05
0.000953245
8.9774e-05
0.00101217
0.000107098
0.00106329
0.000129916
0.00110691
0.000159873
0.00114191
0.000198622
0.00116555
0.000247782
0.0011735
0.000308883
0.00115983
0.000383296
0.00111726
0.000472142
0.0010373
0.000576213
0.000910565
0.000695825
0.000727251
0.00083114
0.000476503
0.00098149
0.000149972
0.00114786
-0.00026974
0.00132805
-0.000776807
-0.00142743
0.00153105
3.099e-06
7.34947e-05
1.04772e-05
0.000212969
2.07908e-05
0.000349008
3.28959e-05
0.000477672
4.59408e-05
0.000595616
5.94683e-05
0.000700672
7.34785e-05
0.000792046
8.84417e-05
0.0008702
0.000105258
0.000936428
0.000125179
0.000992248
0.000149706
0.00103877
0.000180493
0.00107613
0.000219257
0.00110314
0.000267715
0.00111709
0.000327515
0.0011137
0.000400177
0.00108717
0.000487015
0.00103042
0.00058905
0.000935268
0.000706968
0.000792647
0.000840992
0.000593228
0.000991281
0.000326215
0.00115744
-1.61893e-05
0.0013407
-0.000453002
0.00153929
-0.000975389
-0.00165163
0.00176349
3.39626e-06
7.00984e-05
1.16925e-05
0.000204672
2.36069e-05
0.000337094
3.80353e-05
0.000463243
5.41353e-05
0.000579516
7.1432e-05
0.000683375
8.98923e-05
0.000773586
0.000109953
0.000850139
0.000132495
0.000913886
0.000158773
0.00096597
0.000190316
0.00100722
0.00022882
0.00103762
0.000276055
0.00105591
0.000333771
0.00105938
0.000403632
0.00104383
0.000487136
0.00100367
0.000585541
0.000932018
0.000699794
0.000821014
0.000830522
0.00066192
0.000977961
0.000445789
0.00114236
0.000161814
0.00132391
-0.000197742
0.00152416
-0.000653246
0.00174207
-0.0011933
-0.00189851
0.00198895
3.61799e-06
6.64804e-05
1.26525e-05
0.000195638
2.59181e-05
0.000323828
4.23831e-05
0.000446778
6.12426e-05
0.000560656
8.20245e-05
0.000662593
0.000104673
0.000750937
0.000129591
0.000825222
0.000157628
0.000885848
0.000190023
0.000933575
0.000228304
0.000968941
0.000274186
0.00099174
0.000329458
0.00100064
0.000395887
0.000992949
0.000475132
0.000964589
0.000568665
0.000910135
0.000677706
0.000822977
0.000803163
0.000695558
0.000945675
0.000519407
0.00110563
0.00028583
0.00128354
-1.60882e-05
0.00148044
-0.000394643
0.00169821
-0.000871015
0.00193686
-0.00143196
-0.00216921
0.00220756
3.76179e-06
6.27186e-05
1.33442e-05
0.000186055
2.76898e-05
0.000309483
4.58698e-05
0.000428598
6.71443e-05
0.000539382
9.10658e-05
0.000638672
0.000117568
0.000724435
0.000147023
0.000795767
0.000180242
0.000852629
0.000218429
0.000895389
0.00026309
0.00092428
0.000315928
0.000938902
0.000378729
0.000937836
0.000453254
0.000918424
0.000541149
0.000876695
0.000643866
0.000807418
0.00076261
0.000704233
0.000898318
0.000559849
0.00105175
0.000365979
0.00122364
0.00011394
0.00141486
-0.000207309
0.00162768
-0.000607467
0.00186408
-0.00110742
0.00212533
-0.0016932
-0.00246415
0.00242027
3.82669e-06
5.88919e-05
1.37603e-05
0.000176122
2.88993e-05
0.000294344
4.84449e-05
0.000409053
7.17486e-05
0.000516078
9.8409e-05
0.000612011
0.000128366
0.000694478
0.000161964
0.000762168
0.000199973
0.000814621
0.000243548
0.000851814
0.000294155
0.000873674
0.000353461
0.000879595
0.000423228
0.00086807
0.000505195
0.000836456
0.000600996
0.000780894
0.000712081
0.000696333
0.000839695
0.000576619
0.0009849
0.000414644
0.0011487
0.000202176
0.00133243
-6.9789e-05
0.00153747
-0.000412346
0.0017675
-0.000837499
0.00202417
-0.00136408
0.00230987
-0.00197891
-0.00278246
0.00262818
3.81318e-06
5.50787e-05
1.3899e-05
0.000166036
2.95356e-05
0.000278707
5.00786e-05
0.00038851
7.49937e-05
0.000491163
0.000103948
0.000583057
0.000136902
0.000661524
0.000174184
0.000724886
0.000216521
0.000772284
0.000265012
0.000803322
0.000321068
0.000817618
0.000386306
0.000814357
0.000462446
0.000791929
0.000551208
0.000747695
0.000654221
0.000677881
0.000772979
0.000577575
0.000908847
0.000440751
0.00106315
0.000260346
0.00123731
2.80135e-05
0.00143346
-0.000265936
0.00165364
-0.000632528
0.00190282
-0.00108668
0.0021816
-0.00164286
0.00249291
-0.00229021
-0.00312123
0.00283169
3.72308e-06
5.13557e-05
1.37642e-05
0.000155995
2.96012e-05
0.00026287
5.07636e-05
0.000367347
7.68525e-05
0.000465074
0.000107622
0.000552287
0.000143073
0.000626074
0.000183527
0.000684432
0.000229674
0.000726137
0.000282556
0.000750439
0.000343521
0.000756654
0.00041413
0.000743748
0.000496064
0.000709995
0.000591029
0.00065273
0.00070069
0.00056822
0.000826655
0.00045161
0.000970522
0.000296884
0.00113403
9.68383e-05
0.00131926
-0.000157212
0.0015292
-0.000475884
0.00176664
-0.000869962
0.00203725
-0.00135729
0.00233958
-0.0019452
0.00267589
-0.00262652
-0.00347515
0.0030298
3.55961e-06
4.77961e-05
1.33656e-05
0.000146189
2.91118e-05
0.000247124
5.05173e-05
0.000345942
7.73357e-05
0.000438256
0.000109427
0.000520196
0.000146846
0.000588655
0.000189927
0.000641351
0.00023933
0.000676734
0.000296048
0.000693721
0.000361369
0.000691332
0.000436806
0.000668311
0.000524014
0.000622787
0.000624723
0.000552022
0.000740696
0.000452246
0.000873758
0.000318549
0.00102588
0.000144758
0.00119942
-7.66941e-05
0.00139719
-0.000354982
0.00162311
-0.000701813
0.0018804
-0.00112725
0.00217437
-0.00165127
0.00250041
-0.00227124
0.00285841
-0.00298452
-0.00383642
0.00321968
3.3274e-06
4.44687e-05
1.27191e-05
0.000136797
2.80974e-05
0.000231745
4.93831e-05
0.000324656
7.64953e-05
0.000411143
0.000109415
0.000487276
0.000148272
0.000549798
0.000193424
0.000596198
0.000245522
0.000624636
0.000305524
0.000633719
0.000374677
0.00062218
0.000454466
0.000588522
0.000546562
0.000530691
0.000652779
0.000445806
0.000775073
0.000329951
0.000915613
0.000178008
0.00107691
-1.65411e-05
0.00126204
-0.000261826
0.00147463
-0.000567571
0.00171921
-0.000946391
0.00199881
-0.00140684
0.00231685
-0.00196931
0.00266451
-0.00261889
0.00303771
-0.00335772
-0.00419545
0.00339674
3.03264e-06
4.1436e-05
1.1847e-05
0.000127983
2.66033e-05
0.000216989
4.74321e-05
0.000303827
7.44285e-05
0.000384147
0.000107709
0.000453996
0.000147491
0.000510016
0.000194183
0.000549507
0.000248445
0.000570374
0.000311229
0.000570936
0.00038377
0.000549638
0.000467576
0.000504716
0.000564394
0.000433874
0.000676211
0.000333989
0.000805298
0.000200864
0.000954307
2.89994e-05
0.00112641
-0.000188647
0.00132544
-0.000460855
0.00155562
-0.000797753
0.00182145
-0.00121222
0.00212479
-0.00171019
0.00246541
-0.00230993
0.00282972
-0.0029832
0.0032087
-0.0037367
-0.00454209
0.00355533
2.68328e-06
3.87527e-05
1.07786e-05
0.000119888
2.46905e-05
0.000203077
4.47647e-05
0.000283753
7.12795e-05
0.000357632
0.000104498
0.000420778
0.000144748
0.000469766
0.000192506
0.000501748
0.000248478
0.000514402
0.000313643
0.00050577
0.000389284
0.000473997
0.000476992
0.000417009
0.00057868
0.000332185
0.000696625
0.000216044
0.000833534
6.39546e-05
0.00099266
-0.000130127
0.00117785
-0.000373841
0.00139354
-0.000676537
0.00164404
-0.00104826
0.00193281
-0.00150099
0.00225933
-0.00203671
0.00261817
-0.00266876
0.00299131
-0.00335634
0.00336487
-0.00411026
-0.00486708
0.00368986
2.28919e-06
3.64635e-05
9.55024e-06
0.000112627
2.24366e-05
0.000190191
4.15114e-05
0.000264679
6.72422e-05
0.000331901
0.000100051
0.000387969
0.000140393
0.000429424
0.000188847
0.000453294
0.0002462
0.000457049
0.000313518
0.000438452
0.000392194
0.00039532
0.000483996
0.000325207
0.00059111
0.00022507
0.000716217
9.09375e-05
0.000862565
-8.2393e-05
0.00103403
-0.000301587
0.001235
-0.000574813
0.00147005
-0.000911587
0.0017428
-0.00132102
0.00205443
-0.00181261
0.0024008
-0.00238308
0.00277061
-0.00303857
0.00314268
-0.00372841
0.00349955
-0.00446713
-0.0051634
0.00379587
1.86236e-06
3.46012e-05
8.2062e-06
0.000106283
1.99357e-05
0.000178461
3.78329e-05
0.000246781
6.25596e-05
0.000307175
9.47094e-05
0.000355819
0.000134888
0.000389246
0.000183811
0.000404371
0.000242401
0.000398459
0.000311873
0.00036898
0.000393821
0.000313372
0.000490288
0.000228741
0.000603844
0.000111514
0.000737666
-4.28839e-05
0.000895566
-0.000240294
0.00108192
-0.000487941
0.0013013
-0.000794197
0.00155771
-0.00116799
0.00185301
-0.00161632
0.00218488
-0.00214448
0.00254488
-0.00274308
0.00291621
-0.00340991
0.00327667
-0.00408886
0.00360727
-0.00479774
-0.00542702
0.0038709
1.41696e-06
3.31842e-05
6.7979e-06
0.000100902
1.72979e-05
0.000167961
3.39183e-05
0.000230161
5.75212e-05
0.000283572
8.88865e-05
0.000324454
0.000128799
0.000349333
0.000178153
0.000355017
0.000238065
0.000338547
0.000309982
0.000297062
0.00039579
0.000227565
0.000497909
0.000126623
0.000619377
-9.95487e-06
0.000763893
-0.0001874
0.000935737
-0.000412138
0.00113947
-0.000691676
0.00137924
-0.00103396
0.00165752
-0.00144627
0.00197338
-0.00193217
0.00232018
-0.00249129
0.0026852
-0.00310809
0.00304775
-0.00377246
0.00338703
-0.00442814
0.00368473
-0.00509544
-0.0056571
0.00391481
9.69181e-07
3.2215e-05
5.38338e-06
9.64876e-05
1.46469e-05
0.000158698
2.99812e-05
0.000214827
5.24563e-05
0.000261097
8.30568e-05
0.000293853
0.000122779
0.000309611
0.000172746
0.00030505
0.000234336
0.000276957
0.000309311
0.000222087
0.000399937
0.000136939
0.000509088
1.74709e-05
0.0006403
-0.000141167
0.000797712
-0.000344812
0.000985807
-0.000600233
0.00120881
-0.000914681
0.00146964
-0.00129479
0.00176829
-0.00174493
0.00210019
-0.00226408
0.0024543
-0.00284539
0.00281453
-0.00346832
0.00315868
-0.00411661
0.00346952
-0.00473898
0.00373115
-0.00535707
-0.00585549
0.00392954
5.36869e-07
3.16782e-05
4.0256e-06
9.29988e-05
1.21166e-05
0.000150607
2.6253e-05
0.00020069
4.77228e-05
0.000239627
7.77381e-05
0.000263838
0.000117544
0.000269806
0.000168546
0.000254048
0.000232455
0.000213049
0.00031142
0.000143122
0.000408159
4.01997e-05
0.000526027
-0.000100397
0.000668989
-0.000284129
0.000841409
-0.000517232
0.00104753
-0.000806358
0.00129057
-0.00115772
0.00157135
-0.00157557
0.00188661
-0.00206018
0.00222784
-0.00260531
0.00258027
-0.00319783
0.00292618
-0.00381423
0.00324428
-0.00443471
0.00352244
-0.00501714
0.00374803
-0.00558266
-0.006026
0.00391854
1.39204e-07
3.1539e-05
2.7899e-06
9.03481e-05
9.84537e-06
0.000143551
2.29726e-05
0.000187563
4.36912e-05
0.000218908
7.34662e-05
0.000234063
0.000113832
0.00022944
0.000166532
0.000201348
0.000233668
0.000145913
0.000317837
5.89523e-05
0.00042223
-6.4193e-05
0.000550632
-0.000228799
0.000707264
-0.000440761
0.000896348
-0.000706316
0.00112132
-0.00103133
0.00138361
-0.00142002
0.00168124
-0.00187319
0.00200731
-0.00238625
0.00234974
-0.00294774
0.00269148
-0.00353957
0.00301508
-0.00413782
0.00330223
-0.00472186
0.00354648
-0.00526139
0.00373851
-0.00577469
-0.00617348
0.00388599
-2.07728e-07
3.17467e-05
1.74056e-06
8.83998e-05
7.96937e-06
0.000137322
2.0375e-05
0.000175157
4.07241e-05
0.000198559
7.07634e-05
0.000204024
0.000112356
0.000187848
0.00016763
0.000146073
0.000239126
7.44175e-05
0.000329906
-3.18276e-05
0.000443595
-0.000177883
0.00058427
-0.000369473
0.000756105
-0.000612596
0.0009627
-0.00091291
0.00120603
-0.00127465
0.00148509
-0.00169908
0.00179463
-0.00218274
0.00212434
-0.00271596
0.00245956
-0.00328296
0.00278272
-0.00386273
0.0030784
-0.00443351
0.00333257
-0.00497603
0.00354419
-0.00547301
0.00370658
-0.00593708
-0.00630305
0.00383614
-4.82506e-07
3.22292e-05
9.37997e-07
8.69793e-05
6.61451e-06
0.000131646
1.86765e-05
0.000163095
3.91545e-05
0.000178081
7.01039e-05
0.000173074
0.000113752
0.000144199
0.000172645
8.71798e-05
0.000249776
-2.71338e-06
0.000348646
-0.000130697
0.000473202
-0.000302439
0.000627568
-0.00052384
0.000815478
-0.000800505
0.00103935
-0.00113679
0.0012991
-0.0015344
0.00159084
-0.00199082
0.00190607
-0.00249797
0.00223177
-0.00304166
0.00255211
-0.0036033
0.00285078
-0.0041614
0.00311558
-0.0046983
0.0033372
-0.00519765
0.00351914
-0.00565494
0.00365641
-0.00607436
-0.00641941
0.00377278
-6.72957e-07
3.29022e-05
4.33555e-07
8.58728e-05
5.88842e-06
0.000126191
1.80615e-05
0.000150922
3.92628e-05
0.00015688
7.18804e-05
0.000140457
0.000118529
9.75505e-05
0.000182186
2.35229e-05
0.000266274
-8.68015e-05
0.000374645
-0.000239068
0.000511379
-0.000439173
0.000680325
-0.000692786
0.000884308
-0.00100449
0.00112404
-0.00137652
0.0013969
-0.00180726
0.00169601
-0.00228993
0.0020101
-0.00281205
0.00232457
-0.00335613
0.00262397
-0.00390269
0.00289462
-0.00443206
0.00312797
-0.00493166
0.00331933
-0.00538901
0.00347522
-0.00581084
0.0035918
-0.00619093
-0.00652636
0.00369875
-7.67498e-07
3.36697e-05
2.6605e-07
8.48393e-05
5.87324e-06
0.000120584
1.86701e-05
0.000138126
4.1259e-05
0.000134291
7.63761e-05
0.00010534
0.000127033
4.68938e-05
0.000196619
-4.60637e-05
0.000288924
-0.000179106
0.000408001
-0.000358145
0.000557806
-0.000588978
0.000741527
-0.000876507
0.000960613
-0.00122357
0.00121362
-0.00162952
0.00149519
-0.00208884
0.00179571
-0.00259045
0.00210199
-0.00311833
0.00239922
-0.00365336
0.00267362
-0.00417708
0.00291496
-0.0046734
0.0031183
-0.005135
0.00328291
-0.00555362
0.00341621
-0.00594414
0.00351556
-0.00629028
-0.00662751
0.00361671
-7.59754e-07
3.44294e-05
4.57023e-07
8.36225e-05
6.6206e-06
0.00011442
2.05902e-05
0.000124156
4.52693e-05
0.000109612
8.37474e-05
6.68615e-05
0.000139421
-8.77938e-06
0.000216044
-0.000122687
0.000317661
-0.000280723
0.000448325
-0.000488809
0.000611556
-0.000752208
0.000809479
-0.00107443
0.00104174
-0.00145584
0.00130447
-0.00189225
0.00158968
-0.00237404
0.0018856
-0.00288638
0.00217826
-0.00341099
0.00245384
-0.00392895
0.00270121
-0.00442445
0.00291383
-0.00488603
0.00308996
-0.00531112
0.00323211
-0.00569577
0.00334629
-0.00605832
0.00342912
-0.00637311
-0.00672652
0.00352813
-6.47865e-07
3.50773e-05
1.01677e-06
8.19579e-05
8.15021e-06
0.000107287
2.38536e-05
0.000108453
5.1332e-05
8.21331e-05
9.40196e-05
2.4174e-05
0.000155663
-7.04224e-05
0.000240301
-0.000207326
0.000352076
-0.000392499
0.0004948
-0.000631532
0.000671213
-0.000928622
0.000881995
-0.00128521
0.00112469
-0.00169853
0.00139293
-0.00216049
0.00167647
-0.00265758
0.00196231
-0.00317221
0.00223677
-0.00368545
0.00248806
-0.00418023
0.00270817
-0.00464457
0.00289399
-0.00507185
0.00304641
-0.00546355
0.00317027
-0.00581962
0.0032704
-0.00615845
0.00334952
-0.00645223
-0.00679224
0.00341524
-4.35127e-07
3.55124e-05
1.93911e-06
7.95836e-05
1.04503e-05
9.87757e-05
2.84383e-05
9.04646e-05
5.94016e-05
5.11698e-05
0.000107095
-2.35191e-05
0.000175557
-0.000138884
0.000268998
-0.000300767
0.000391473
-0.000514974
0.00054627
-0.000786329
0.000735015
-0.00111737
0.000956618
-0.00150681
0.00120636
-0.00194827
0.00147558
-0.00242972
0.00175242
-0.00293443
0.00202359
-0.00344338
0.00227676
-0.00393861
0.00250274
-0.00440622
0.00269673
-0.00483855
0.00285849
-0.0052336
0.00299093
-0.00559599
0.00309986
-0.00592855
0.00318901
-0.00624759
0.00326866
-0.00653188
-0.0068573
0.00333372
-1.27671e-07
3.56401e-05
3.2036e-06
7.62523e-05
1.34813e-05
8.84979e-05
3.42756e-05
6.96703e-05
6.93607e-05
1.60847e-05
0.000122772
-7.693e-05
0.00019876
-0.000214873
0.000301568
-0.000403574
0.000434941
-0.000648347
0.000601356
-0.000952745
0.000801014
-0.00131702
0.00103083
-0.00173663
0.00128385
-0.00220129
0.00154955
-0.00269542
0.00181526
-0.00320014
0.00206836
-0.00369648
0.00229856
-0.00416882
0.00249958
-0.00460724
0.00266951
-0.00500849
0.00281035
-0.00537444
0.00292631
-0.00571195
0.00302333
-0.00602557
0.00310561
-0.00632988
0.00318063
-0.0066069
-0.0069227
0.00324603
2.67562e-07
3.53725e-05
4.77992e-06
7.174e-05
1.71829e-05
7.60949e-05
4.12611e-05
4.55921e-05
8.10369e-05
-2.36911e-05
0.000140772
-0.000136665
0.000224828
-0.00029893
0.000337313
-0.000516059
0.000481429
-0.000792463
0.000658558
-0.00112987
0.000867212
-0.00152568
0.00110222
-0.00197164
0.00135463
-0.0024537
0.00161266
-0.00295345
0.00186368
-0.00345115
0.0020965
-0.0039293
0.00230336
-0.00437568
0.00248076
-0.00478465
0.00262923
-0.00515695
0.0027523
-0.00549751
0.00285486
-0.00581452
0.00294266
-0.00611337
0.00301941
-0.00640663
0.00309204
-0.00667953
-0.00698933
0.00315867
7.31054e-07
3.46415e-05
6.63069e-06
6.58403e-05
2.14812e-05
6.12444e-05
4.92669e-05
1.78064e-05
9.42231e-05
-6.86473e-05
0.000160767
-0.000203209
0.000253254
-0.000391416
0.000375468
-0.000638273
0.000529824
-0.000946819
0.000716344
-0.00131639
0.000931681
-0.00174102
0.00116864
-0.0022086
0.00141668
-0.00270173
0.00166347
-0.00320024
0.0018972
-0.00368488
0.00210872
-0.00414082
0.00229286
-0.00455982
0.00244864
-0.00494043
0.00257842
-0.00528673
0.00268668
-0.00560577
0.00277847
-0.0059063
0.00285902
-0.00619391
0.00293163
-0.00647925
0.00300202
-0.00674991
-0.00705519
0.00306788
1.25656e-06
3.33849e-05
8.71796e-06
5.8379e-05
2.62973e-05
4.36651e-05
5.81555e-05
-1.40518e-05
0.000108695
-0.000119187
0.000182407
-0.00027692
0.000283498
-0.000492507
0.000415232
-0.000770008
0.000578992
-0.00111058
0.000773221
-0.00151062
0.000992646
-0.00196044
0.00122828
-0.00244423
0.00146852
-0.00294197
0.00170124
-0.00343297
0.00191609
-0.00389973
0.00210625
-0.00433097
0.00226904
-0.00472261
0.00240554
-0.00507692
0.00251937
-0.00540056
0.00261543
-0.00570183
0.00269857
-0.00598944
0.00277337
-0.00626872
0.0028426
-0.00654847
0.00291097
-0.00681829
-0.00712041
0.00297618
1.8321e-06
3.15528e-05
1.10049e-05
4.92061e-05
3.15537e-05
2.31163e-05
6.77897e-05
-5.02878e-05
0.000124228
-0.000175626
0.000205335
-0.000358027
0.000315016
-0.000602188
0.000455806
-0.000910797
0.000627823
-0.0012826
0.000827785
-0.00171058
0.00104855
-0.00218121
0.0012797
-0.00267538
0.00150922
-0.0031715
0.00172586
-0.0036496
0.00192117
-0.00409504
0.00209069
-0.0045005
0.00223396
-0.00486589
0.00235361
-0.00519657
0.00245401
-0.00550095
0.00254007
-0.00578789
0.00261622
-0.00606559
0.00268634
-0.00633884
0.00275268
-0.00661482
0.00281911
-0.00688471
-0.00718452
0.00288322
2.44841e-06
2.91044e-05
1.34593e-05
3.81952e-05
3.718e-05
-6.04341e-07
7.80405e-05
-9.11483e-05
0.000140605
-0.000238191
0.000229203
-0.000446625
0.000347272
-0.000720257
0.000496402
-0.00105993
0.000675258
-0.00146145
0.000878761
-0.00191409
0.0010981
-0.00240055
0.00132191
-0.00289919
0.00153842
-0.00338801
0.00173775
-0.00384893
0.0019136
-0.00427089
0.00206377
-0.00465067
0.00218959
-0.00499171
0.00229474
-0.00530172
0.00238392
-0.00559013
0.00246177
-0.00586575
0.00253218
-0.006136
0.00259837
-0.00640503
0.0026621
-0.00667855
0.00272652
-0.00694913
-0.00724732
0.00278932
3.0987e-06
2.60057e-05
1.60547e-05
2.52392e-05
4.31148e-05
-2.76645e-05
8.87907e-05
-0.000136824
0.000157621
-0.000307021
0.000253674
-0.000542678
0.000379738
-0.000846321
0.00053626
-0.00121645
0.000720304
-0.0016455
0.000925039
-0.00211882
0.0011403
-0.00261581
0.00135434
-0.00311323
0.00155617
-0.00358984
0.0017377
-0.00403046
0.0018948
-0.00442799
0.00202724
-0.00478311
0.00213771
-0.00510218
0.00223052
-0.00539454
0.00231035
-0.00566996
0.00238142
-0.00593681
0.00244701
-0.00620159
0.00250973
-0.00646775
0.00257098
-0.00673979
0.00263331
-0.00701145
-0.00730851
0.0026945
3.77856e-06
2.22271e-05
1.87708e-05
1.0247e-05
4.93068e-05
-5.82005e-05
9.99348e-05
-0.000187452
0.000175082
-0.000382168
0.000278418
-0.000646014
0.000411899
-0.000979802
0.000574649
-0.0013792
0.000762056
-0.0018329
0.000965692
-0.00232246
0.00117446
-0.00282458
0.00137677
-0.00331554
0.00156292
-0.00377599
0.00172677
-0.00419431
0.00186625
-0.00456747
0.00198275
-0.0048996
0.0020799
-0.00519933
0.00216228
-0.00547691
0.00223429
-0.00574197
0.00229964
-0.00600216
0.00236105
-0.00626301
0.00242062
-0.00652732
0.0024794
-0.00679858
0.00253949
-0.00707154
-0.00736786
0.00259884
4.48569e-06
1.77414e-05
2.15928e-05
-6.86005e-06
5.57123e-05
-9.232e-05
0.000111376
-0.000243116
0.000192802
-0.000463595
0.000303112
-0.000756323
0.000443252
-0.00111994
0.000610878
-0.00154683
0.000799718
-0.00202174
0.00100001
-0.00252275
0.00120019
-0.00302476
0.00138935
-0.0035047
0.0015594
-0.00394603
0.00170618
-0.00434109
0.00182943
-0.00469073
0.0019318
-0.00500197
0.00201749
-0.00528502
0.00209104
-0.00555045
0.00215645
-0.00580738
0.00221689
-0.0060626
0.00227457
-0.00632069
0.00233113
-0.00658389
0.00238741
-0.00685486
0.0024451
-0.00712923
-0.00742511
0.00250235
5.21929e-06
1.25221e-05
2.45093e-05
-2.61501e-05
6.22926e-05
-0.000130103
0.000123021
-0.000303845
0.000210596
-0.000551169
0.000327432
-0.000873159
0.000473302
-0.00126581
0.000644308
-0.00171783
0.000832621
-0.00221006
0.00102749
-0.00271761
0.00121738
-0.00321466
0.00139249
-0.00367981
0.0015465
-0.00410004
0.00167716
-0.00447175
0.00178573
-0.00479929
0.00187572
-0.00509197
0.00195158
-0.00536089
0.00201762
-0.00561649
0.00207738
-0.00586714
0.00213348
-0.0061187
0.00218771
-0.00637491
0.00224134
-0.00663752
0.00229502
-0.00690854
0.00235015
-0.00718436
-0.00748002
0.00240506
5.97929e-06
6.54286e-06
2.75107e-05
-4.76815e-05
6.90102e-05
-0.000171603
0.000134777
-0.000369611
0.000228271
-0.000644664
0.000351051
-0.000995939
0.000501573
-0.00141633
0.000674366
-0.00189063
0.000860242
-0.00239593
0.00104786
-0.00290523
0.00122619
-0.00339299
0.00138681
-0.00384044
0.00152526
-0.00423848
0.00164097
-0.00458747
0.0017364
-0.00489472
0.00181561
-0.00517118
0.00188305
-0.00542833
0.00194265
-0.00567609
0.00199747
-0.00592196
0.00204964
-0.00617087
0.00210057
-0.00642584
0.00215127
-0.00668822
0.00220225
-0.00695952
0.00225466
-0.00723677
-0.00753238
0.00230702
6.76567e-06
-2.22813e-07
3.05869e-05
-7.15028e-05
7.58252e-05
-0.000216841
0.000146542
-0.000440328
0.000245632
-0.000743753
0.000373642
-0.00112395
0.000527616
-0.00157031
0.000700563
-0.00206357
0.000882212
-0.00257758
0.00106106
-0.00308408
0.00122695
-0.00355887
0.00137307
-0.00398656
0.00149671
-0.00436212
0.00159877
-0.00468953
0.00168256
-0.00497851
0.00175242
-0.00524104
0.0018126
-0.0054885
0.0018666
-0.0057301
0.00191699
-0.00597235
0.00196549
-0.00621938
0.00201322
-0.00647356
0.00206095
-0.00673595
0.0021091
-0.00700767
0.00215863
-0.00728629
-0.00758199
0.00220824
7.57779e-06
-7.80061e-06
3.37256e-05
-9.76506e-05
8.26926e-05
-0.000265808
0.000158208
-0.000515843
0.000262469
-0.000848014
0.00039488
-0.00125636
0.000551018
-0.00172644
0.000722508
-0.00223506
0.00089832
-0.00275339
0.0010672
-0.00325296
0.00122017
-0.00371185
0.0013521
-0.00411849
0.00146189
-0.0044719
0.00155161
-0.00477925
0.00162515
-0.00505205
0.00168689
-0.00530278
0.00174075
-0.00554237
0.0017898
-0.00577914
0.00183614
-0.00601869
0.00188115
-0.00626439
0.00192569
-0.0065181
0.00197039
-0.00678066
0.0020156
-0.00705287
0.00206209
-0.00733278
-0.00762865
0.00210876
8.41407e-06
-1.62147e-05
3.69108e-05
-0.000126147
8.95605e-05
-0.000318458
0.000169657
-0.00059594
0.000278569
-0.000956925
0.000414451
-0.00139224
0.000571422
-0.00188342
0.000739916
-0.00240356
0.00090851
-0.00292199
0.00106656
-0.00341101
0.00120648
-0.00385177
0.00132478
-0.00423678
0.00142177
-0.0045689
0.00150044
-0.00485791
0.00156498
-0.00511659
0.00161963
-0.00535743
0.00166794
-0.00559068
0.00171251
-0.00582371
0.00175505
-0.00606123
0.00179666
-0.00630599
0.00183801
-0.00655945
0.00187961
-0.00682226
0.00192174
-0.007095
0.00196506
-0.0073761
-0.00767221
0.00200861
9.27145e-06
-2.54861e-05
4.01228e-05
-0.000156999
9.63692e-05
-0.000374704
0.000180762
-0.000680333
0.000293716
-0.00106988
0.000432065
-0.00153059
0.000588531
-0.00203988
0.000752616
-0.00256764
0.000912862
-0.00308223
0.00105954
-0.00355769
0.00118655
-0.00397878
0.00129195
-0.00434219
0.00137726
-0.00465421
0.00144608
-0.00492673
0.0015027
-0.00517322
0.00155112
-0.00540585
0.00159446
-0.00563402
0.0016349
-0.00586415
0.00167383
-0.00610016
0.00171208
-0.00634425
0.00175021
-0.00659758
0.00178862
-0.00686067
0.00182755
-0.00713392
0.00186756
-0.00741611
-0.0077125
0.00190785
1.01455e-05
-3.56316e-05
4.33373e-05
-0.00019019
0.000103052
-0.000434419
0.000191388
-0.000768668
0.0003077
-0.00118619
0.00044746
-0.00167035
0.000602124
-0.00219455
0.000760548
-0.00272607
0.000911576
-0.00323326
0.00104661
-0.00369272
0.00116108
-0.00409325
0.00125445
-0.00443555
0.00132916
-0.00472892
0.00138921
-0.00498678
0.00143885
-0.00522286
0.00148173
-0.00544873
0.00152056
-0.00567285
0.00155712
-0.00590071
0.00159253
-0.00613556
0.00162744
-0.00637917
0.0016623
-0.00663243
0.00169743
-0.0068958
0.00173305
-0.00716954
0.00176963
-0.00745269
-0.00774937
0.0018065
1.10304e-05
-4.6662e-05
4.65262e-05
-0.000225686
0.000109538
-0.000497431
0.0002014
-0.000860531
0.000320319
-0.00130511
0.000460417
-0.00181045
0.000612057
-0.00234619
0.000763753
-0.00287776
0.000904947
-0.00337445
0.00102833
-0.0038161
0.00113079
-0.00419572
0.00121302
-0.00451778
0.00127816
-0.00479406
0.00133043
-0.00503904
0.00137387
-0.0052663
0.00141176
-0.00548662
0.0014464
-0.00570749
0.00147926
-0.00593357
0.00151121
-0.00616751
0.00154277
-0.00641073
0.00157429
-0.00666395
0.00160606
-0.00692757
0.00163826
-0.00720174
0.0016713
-0.00748572
-0.00778269
0.00170461
1.19191e-05
-5.85811e-05
4.96584e-05
-0.000263426
0.00011575
-0.000563523
0.000210664
-0.000955445
0.000331393
-0.00142584
0.000470765
-0.00194982
0.000618264
-0.00249369