/*--------------------------------*- C++ -*----------------------------------*\
  =========                 |
  \\      /  F ield         | OpenFOAM: The Open Source CFD Toolbox
   \\    /   O peration     | Website:  https://openfoam.org
    \\  /    A nd           | Version:  7
     \\/     M anipulation  |
\*---------------------------------------------------------------------------*/
FoamFile
{
    version     2.0;
    format      ascii;
    class       volVectorField;
    location    "120";
    object      U;
}
// * * * * * * * * * * * * * * * * * * * * * * * * * * * * * * * * * * * * * //

dimensions      [0 1 -1 0 0 0 0];

internalField   nonuniform List<vector> 
31800
(
(-0.000729903 0.0385318 -1.35091e-20)
(-0.00316403 0.101789 9.28747e-21)
(-0.0077867 0.153822 -3.01572e-21)
(-0.0143189 0.19493 1.33795e-20)
(-0.0226493 0.226006 1.49184e-20)
(-0.0325105 0.248516 -4.88366e-21)
(-0.0435078 0.264281 -3.53023e-21)
(-0.0551987 0.275206 2.5043e-20)
(-0.0671437 0.283005 -2.84751e-21)
(-0.0789448 0.288994 4.14721e-21)
(-0.0902633 0.293989 1.43341e-20)
(-0.100816 0.298293 1.41867e-20)
(-0.110354 0.301764 -9.07161e-21)
(-0.118639 0.303898 -1.14886e-20)
(-0.125413 0.303921 -4.36543e-22)
(-0.130385 0.300852 -1.51608e-20)
(-0.13322 0.293554 1.20427e-20)
(-0.13355 0.280774 2.07367e-20)
(-0.130995 0.261208 -8.11968e-21)
(-0.125201 0.233586 3.72278e-20)
(-0.115876 0.196779 2.37146e-21)
(-0.10283 0.149962 -3.17752e-21)
(-0.0859426 0.092785 6.91277e-21)
(-0.0653279 0.0257076 1.457e-20)
(-0.0401711 -0.050306 9.23501e-21)
(-0.00159772 0.0389246 1.39161e-20)
(-0.00498444 0.103163 7.70035e-21)
(-0.0096174 0.156318 -8.17836e-21)
(-0.0155782 0.198582 -3.09624e-20)
(-0.0229181 0.230726 2.29283e-20)
(-0.031501 0.254118 -1.12107e-20)
(-0.0410361 0.270513 6.32705e-22)
(-0.0511459 0.281789 -1.92094e-20)
(-0.0614209 0.28967 4.02752e-21)
(-0.0714627 0.295503 2.709e-21)
(-0.080909 0.300142 -6.0557e-20)
(-0.0894388 0.303923 -1.06607e-21)
(-0.0967597 0.306724 6.94107e-20)
(-0.102589 0.308048 -3.54413e-20)
(-0.106631 0.307112 -6.81915e-21)
(-0.108567 0.30292 1.50506e-20)
(-0.108054 0.294319 -3.26887e-20)
(-0.104735 0.280055 -1.11865e-21)
(-0.0982705 0.258837 3.47657e-20)
(-0.0883849 0.22943 -1.28467e-19)
(-0.0748943 0.190754 -4.1477e-20)
(-0.0577421 0.142047 6.44467e-20)
(-0.0369106 0.0829596 3.29924e-20)
(-0.0128742 0.0140069 5.89408e-21)
(0.0159912 -0.0640032 -1.27408e-20)
(-0.00247167 0.0390025 -2.91849e-20)
(-0.00684357 0.103799 -7.05348e-22)
(-0.0115213 0.157821 -3.93782e-20)
(-0.016926 0.201106 5.84036e-20)
(-0.0232597 0.234275 -6.59417e-20)
(-0.0305121 0.258563 -6.27703e-21)
(-0.0384961 0.275633 -5.99448e-21)
(-0.0469023 0.287313 1.10525e-20)
(-0.0553547 0.295318 3.65715e-20)
(-0.0634584 0.301015 -6.21444e-21)
(-0.0708307 0.305294 -1.13833e-20)
(-0.0771142 0.308528 4.0621e-20)
(-0.081974 0.31062 -7.10818e-21)
(-0.0850851 0.311088 4.0536e-20)
(-0.0861185 0.309151 -8.45003e-20)
(-0.0847343 0.30381 -3.56372e-20)
(-0.0805864 0.293914 5.82758e-21)
(-0.0733414 0.278218 -1.23041e-19)
(-0.0627093 0.255461 3.464e-20)
(-0.0484981 0.224461 7.94659e-20)
(-0.0306303 0.184192 -5.35275e-20)
(-0.00919232 0.133958 -1.29744e-19)
(0.0157752 0.0733771 -6.52649e-20)
(0.0433424 0.00301817 -1.26864e-19)
(0.0762525 -0.0766593 -7.01447e-20)
(-0.00333156 0.0387728 1.35304e-20)
(-0.00870143 0.103705 -2.25317e-20)
(-0.0134587 0.15832 7.14884e-20)
(-0.0183342 0.202472 -5.70126e-20)
(-0.0236637 0.236602 -1.49444e-20)
(-0.0295542 0.261786 -4.06347e-21)
(-0.0359194 0.279566 4.66559e-20)
(-0.0425199 0.291697 3.33559e-20)
(-0.0490178 0.299866 -5.88204e-20)
(-0.0550264 0.30545 2.49109e-20)
(-0.0601471 0.30937 1.33691e-21)
(-0.0639902 0.312037 -1.14417e-19)
(-0.0661816 0.313388 -3.76408e-20)
(-0.0663581 0.312962 3.36786e-21)
(-0.0641614 0.309993 2.62151e-20)
(-0.0592372 0.303494 1.24412e-19)
(-0.0512451 0.292325 1.47943e-20)
(-0.0398815 0.275271 1.24178e-19)
(-0.0249099 0.251113 1.30504e-19)
(-0.00622478 0.218722 -1.70297e-20)
(0.0161506 0.177147 6.14406e-20)
(0.0419806 0.125757 -2.61738e-20)
(0.071265 0.0641083 8.35793e-20)
(0.102415 -0.00713788 2.84825e-19)
(0.139848 -0.0881396 4.4004e-20)
(-0.00415834 0.0382486 2.32732e-20)
(-0.0105195 0.102895 -8.43597e-20)
(-0.015391 0.157822 1.08365e-19)
(-0.0197749 0.202666 3.97814e-20)
(-0.0241205 0.237672 3.09896e-20)
(-0.0286395 0.263733 3.29792e-20)
(-0.0333412 0.282245 -1.7596e-19)
(-0.038057 0.294866 6.57386e-20)
(-0.0424914 0.303237 6.87323e-20)
(-0.046272 0.308735 -1.0212e-19)
(-0.0489904 0.312302 1.06883e-19)
(-0.0502308 0.31439 5.92022e-20)
(-0.0495848 0.314974 7.44689e-20)
(-0.0466569 0.313627 -5.23746e-20)
(-0.0410651 0.309608 -1.22825e-20)
(-0.032447 0.301953 2.6442e-19)
(-0.0204747 0.289553 -1.16109e-19)
(-0.00488028 0.271228 9.45054e-20)
(0.0145126 0.245816 -2.34898e-19)
(0.0377306 0.212246 -9.94706e-20)
(0.0646711 0.169644 9.76229e-20)
(0.0949232 0.117454 1.76829e-19)
(0.128684 0.0551384 3.22778e-20)
(0.163393 -0.016521 -2.39007e-19)
(0.205932 -0.0984062 -1.70897e-19)
(-0.0049349 0.0374489 -9.23001e-20)
(-0.0122621 0.101402 -2.98123e-20)
(-0.0172815 0.156349 -6.43421e-20)
(-0.0212217 0.201694 -6.20376e-20)
(-0.0246214 0.237468 4.44299e-20)
(-0.0277817 0.264364 -7.9377e-20)
(-0.0307998 0.283612 -5.16101e-20)
(-0.0335769 0.296753 -2.56634e-19)
(-0.035864 0.305363 1.12513e-20)
(-0.0373097 0.3108 -2.68709e-21)
(-0.0375038 0.314027 -2.01955e-19)
(-0.0360118 0.315532 -7.05002e-20)
(-0.0323987 0.315335 -8.84147e-20)
(-0.0262431 0.31305 1.73758e-19)
(-0.0171463 0.307976 5.17628e-20)
(-0.00474436 0.299182 -1.43307e-19)
(0.0112727 0.285601 -1.668e-19)
(0.0311327 0.266103 4.88403e-20)
(0.0549514 0.239587 1.97389e-19)
(0.0826772 0.205057 -4.33495e-20)
(0.114162 0.161692 -2.78879e-20)
(0.148782 0.109022 -1.35204e-19)
(0.18715 0.0463984 -1.75961e-19)
(0.225319 -0.0252867 1.45517e-19)
(0.273615 -0.107589 9.82716e-20)
(-0.00564638 0.0363977 4.77007e-20)
(-0.0138972 0.0992681 5.56216e-20)
(-0.0190965 0.15394 -4.39294e-20)
(-0.0226502 0.199575 -9.03469e-20)
(-0.0251594 0.235985 1.40172e-20)
(-0.0269961 0.263653 1.05569e-19)
(-0.0283356 0.283623 1.51816e-19)
(-0.0291463 0.297301 2.07951e-19)
(-0.0292293 0.306178 3.61901e-20)
(-0.0282611 0.311583 4.80029e-20)
(-0.0258384 0.314488 5.90894e-20)
(-0.0215177 0.315416 2.30612e-19)
(-0.0148461 0.314435 -1.3588e-20)
(-0.00538453 0.31121 -3.08861e-19)
(0.00727498 0.305086 2.27154e-19)
(0.0234914 0.295183 9.30893e-20)
(0.0435515 0.280482 3.05863e-19)
(0.0676409 0.259916 -1.28525e-19)
(0.0958185 0.232448 -1.56105e-19)
(0.127953 0.19716 4.58278e-19)
(0.163896 0.153274 -1.61276e-19)
(0.202751 0.1004 -2.53586e-19)
(0.24584 0.0377832 -7.16487e-20)
(0.287308 -0.0336506 -2.26547e-19)
(0.342049 -0.115944 3.68834e-20)
(-0.00628066 0.0351231 1.1974e-20)
(-0.0153976 0.0965462 -2.32554e-20)
(-0.0208069 0.150649 4.70692e-21)
(-0.0240389 0.196349 -1.6488e-19)
(-0.0257285 0.233241 -1.27446e-19)
(-0.0262986 0.26159 -2.40252e-20)
(-0.0259899 0.282246 -6.20116e-20)
(-0.0248342 0.296461 -1.13268e-19)
(-0.0226843 0.305628 -2.58614e-20)
(-0.019252 0.311029 -1.28767e-20)
(-0.0141506 0.313635 -1.23338e-19)
(-0.00693776 0.314002 5.34489e-20)
(0.00284684 0.312246 4.13065e-20)
(0.0156506 0.308089 2.26504e-19)
(0.0318828 0.300935 -4.67273e-21)
(0.051891 0.289962 -1.44398e-19)
(0.075935 0.274212 -1.73812e-20)
(0.104156 0.252685 6.59384e-20)
(0.136565 0.224412 2.85719e-19)
(0.172949 0.188552 -2.21073e-19)
(0.213218 0.144361 6.05149e-19)
(0.256127 0.0914959 2.63044e-19)
(0.304054 0.0291564 -2.05229e-19)
(0.348654 -0.0418691 4.01286e-19)
(0.410558 -0.123815 2.36243e-19)
(-0.0068287 0.0336574 1.48778e-20)
(-0.0167415 0.0933005 7.38807e-20)
(-0.0223885 0.146546 2.07561e-19)
(-0.0253698 0.192073 2.57222e-19)
(-0.0263247 0.229269 1.52408e-19)
(-0.0257056 0.258183 -1.06734e-19)
(-0.0238042 0.279463 2.60078e-19)
(-0.0207093 0.294197 2.96301e-20)
(-0.0163269 0.303665 -1.5631e-19)
(-0.01041 0.309086 1.75654e-20)
(-0.00259824 0.311421 2.94916e-19)
(0.00753814 0.311251 -3.20341e-19)
(0.0204556 0.308742 -1.85736e-19)
(0.0365997 0.303677 -3.82214e-20)
(0.0563728 0.295524 -3.19014e-19)
(0.0801048 0.28353 -2.154e-19)
(0.108025 0.266807 3.90285e-20)
(0.140233 0.244425 -4.76724e-19)
(0.1767 0.215487 4.94392e-20)
(0.217138 0.179218 -2.49893e-19)
(0.261586 0.134907 -3.20491e-19)
(0.308359 0.0821979 3.08831e-19)
(0.361285 0.0203565 3.5981e-19)
(0.408924 -0.0502192 -2.83151e-19)
(0.478754 -0.131572 3.94888e-19)
(-0.00728491 0.0320352 -1.76149e-19)
(-0.017914 0.0896031 1.28024e-19)
(-0.0238234 0.141712 -9.46904e-21)
(-0.026629 0.186822 5.05306e-20)
(-0.0269457 0.224122 4.76528e-20)
(-0.0252328 0.253457 2.13659e-19)
(-0.0218177 0.275274 -1.55027e-19)
(-0.0168381 0.290489 -2.89379e-19)
(-0.0102524 0.300253 1.45427e-19)
(-0.00186018 0.305713 1.36916e-19)
(0.00866328 0.307805 -4.66954e-19)
(0.0217238 0.30713 3.33465e-19)
(0.0377622 0.303901 5.15817e-19)
(0.0572116 0.297962 3.63695e-20)
(0.0804587 0.288855 -9.51019e-20)
(0.107811 0.2759 2.81479e-19)
(0.139466 0.258283 -1.32823e-19)
(0.175484 0.235151 6.23288e-19)
(0.215818 0.205674 -5.71166e-19)
(0.260104 0.169132 1.10458e-19)
(0.308609 0.124856 -5.74342e-20)
(0.359119 0.0723747 -1.96574e-19)
(0.417286 0.0112041 -1.95478e-19)
(0.468034 -0.0589803 1.66988e-19)
(0.546601 -0.139547 4.07649e-20)
(-0.00764724 0.0302936 1.14977e-19)
(-0.0189068 0.085533 -8.1968e-20)
(-0.0251007 0.136243 6.72878e-20)
(-0.0278077 0.180683 -2.25595e-19)
(-0.0275912 0.217872 -4.97111e-20)
(-0.0248954 0.247459 2.51963e-20)
(-0.0200665 0.269697 -5.65966e-20)
(-0.0132823 0.285327 -9.37031e-20)
(-0.00455067 0.295366 2.92577e-20)
(0.00627829 0.300873 -1.59344e-19)
(0.0194855 0.30275 3.00978e-19)
(0.0354418 0.301608 -6.97117e-20)
(0.054561 0.2977 -1.81871e-19)
(0.0772529 0.290936 -1.89738e-19)
(0.103881 0.28093 2.60175e-19)
(0.134726 0.26708 1.44619e-19)
(0.169957 0.248654 6.02127e-20)
(0.2096 0.224871 -5.17519e-19)
(0.253617 0.194967 5.60974e-19)
(0.301585 0.158256 -1.86398e-19)
(0.354098 0.11414 -9.19318e-20)
(0.408358 0.0618797 -7.71643e-20)
(0.472127 0.00151127 -8.70665e-20)
(0.526303 -0.0684121 2.76408e-19)
(0.614418 -0.14796 -4.62142e-19)
(-0.00791733 0.0284702 -4.27675e-20)
(-0.0197191 0.0811738 1.82373e-19)
(-0.0262167 0.13024 -2.59589e-19)
(-0.0289023 0.173762 1.03805e-19)
(-0.0282626 0.210607 5.65989e-20)
(-0.0247064 0.240252 -8.59651e-20)
(-0.0185817 0.262769 2.50275e-19)
(-0.0100956 0.278724 6.13366e-20)
(0.000698215 0.288994 2.77602e-20)
(0.0138976 0.294543 2.48242e-19)
(0.0297329 0.296228 -1.01776e-19)
(0.0485303 0.294656 1.10741e-19)
(0.0706659 0.29012 -1.18555e-19)
(0.096517 0.282588 -6.93103e-21)
(0.126417 0.271748 -1.35267e-19)
(0.160619 0.257078 -4.85954e-19)
(0.199269 0.237926 1.03071e-19)
(0.242375 0.213584 4.16094e-19)
(0.289942 0.18335 -1.52115e-19)
(0.341517 0.146541 7.49e-19)
(0.398117 0.102677 -4.28126e-19)
(0.456367 0.0505688 -1.28693e-19)
(0.526243 -0.00889307 -2.18906e-19)
(0.584447 -0.0787145 6.22922e-21)
(0.68277 -0.156859 -2.02992e-19)
(-0.00810041 0.0266032 -1.27416e-19)
(-0.0203576 0.0766116 -1.8799e-19)
(-0.0271756 0.123815 -9.94741e-20)
(-0.0299144 0.166173 9.41477e-20)
(-0.0289632 0.202432 2.90196e-20)
(-0.024676 0.231923 1.661e-20)
(-0.0173869 0.254547 6.40075e-20)
(-0.00732076 0.27071 -3.11463e-19)
(0.00542863 0.281145 1.02641e-19)
(0.0209072 0.286714 -2.15493e-19)
(0.0392901 0.288217 -7.82884e-20)
(0.0608515 0.286254 -1.07618e-19)
(0.085921 0.281142 -2.32385e-19)
(0.114836 0.272905 4.86924e-19)
(0.147897 0.261304 2.84091e-19)
(0.18533 0.245894 7.72997e-20)
(0.227274 0.226102 2.49989e-19)
(0.273742 0.201286 -3.82139e-19)
(0.324824 0.170801 -1.03174e-19)
(0.380093 0.133933 -4.83498e-19)
(0.441049 0.090374 1.91841e-19)
(0.503824 0.0383236 4.37527e-19)
(0.580427 -0.0201277 2.10187e-19)
(0.64351 -0.0899662 -3.94261e-19)
(0.752249 -0.166069 5.00343e-19)
(-0.00820522 0.0247297 -4.47829e-20)
(-0.0208362 0.0719335 1.12501e-20)
(-0.0279888 0.117083 1.27108e-19)
(-0.0308513 0.158041 2.24802e-19)
(-0.0296974 0.193467 -1.49767e-19)
(-0.0248106 0.222571 1.43399e-19)
(-0.0164962 0.245111 -1.12381e-19)
(-0.00498541 0.261337 4.25897e-19)
(0.00959494 0.271845 -2.9929e-19)
(0.0272412 0.277392 6.42659e-20)
(0.0480717 0.278713 2.81348e-19)
(0.0723035 0.276387 -3.82295e-20)
(0.100214 0.270752 3.2595e-20)
(0.132098 0.261879 -3.93438e-19)
(0.168224 0.249594 -3.42011e-19)
(0.208801 0.233529 -1.26207e-20)
(0.253982 0.213181 -3.9588e-19)
(0.303819 0.187966 1.5605e-19)
(0.358544 0.157294 -2.16124e-19)
(0.417819 0.120385 3.04171e-19)
(0.483641 0.0771581 -4.09464e-19)
(0.551788 0.0250903 2.54007e-19)
(0.635759 -0.0322096 -2.18288e-19)
(0.704669 -0.10205 3.10478e-19)
(0.823187 -0.175178 -1.99869e-20)
(-0.0082437 0.0228856 2.47763e-19)
(-0.0211755 0.0672246 6.19434e-20)
(-0.028675 0.110159 -1.39603e-19)
(-0.0317244 0.149496 -1.66681e-19)
(-0.0304695 0.183843 1.12232e-19)
(-0.0251106 0.212318 -4.09004e-19)
(-0.0159111 0.234559 5.81383e-19)
(-0.00309768 0.25068 1.11762e-19)
(0.0131782 0.261146 1.86741e-19)
(0.0328678 0.266606 2.29234e-19)
(0.0560339 0.267727 1.45627e-19)
(0.0828359 0.265059 -1.10378e-19)
(0.113499 0.258949 -2.52857e-21)
(0.148275 0.249507 -5.38065e-20)
(0.18741 0.236619 -1.69926e-19)
(0.231116 0.219984 3.93776e-19)
(0.279589 0.199164 8.36926e-19)
(0.332971 0.173621 5.50326e-20)
(0.391687 0.14282 3.08408e-19)
(0.45556 0.10588 -1.63808e-19)
(0.527013 0.0630105 2.16414e-19)
(0.601612 0.0109292 -1.26484e-18)
(0.693433 -0.0450002 6.18078e-19)
(0.768921 -0.114593 3.84902e-19)
(0.89537 -0.183568 -2.63922e-19)
(-0.00823065 0.0211042 -1.47621e-19)
(-0.0214023 0.0625666 -2.51407e-19)
(-0.0292584 0.103156 2.39934e-19)
(-0.0325487 0.140671 1.56387e-19)
(-0.0312827 0.173698 8.28016e-20)
(-0.0255685 0.201298 2.94689e-19)
(-0.0156174 0.223011 -3.05613e-19)
(-0.00164079 0.238838 -2.81209e-19)
(0.0161939 0.249123 -1.84804e-19)
(0.0378003 0.254411 -4.34445e-19)
(0.0631904 0.255296 8.37918e-20)
(0.0924701 0.252294 -3.44059e-20)
(0.125817 0.245749 6.37952e-19)
(0.163453 0.235805 2.66969e-19)
(0.205616 0.222395 1.98369e-19)
(0.252551 0.205277 -6.41744e-20)
(0.30454 0.184071 -3.75099e-19)
(0.361866 0.158274 -3.16691e-19)
(0.425191 0.127404 -3.87875e-19)
(0.494541 0.0904672 2.8447e-19)
(0.572587 0.048011 5.55201e-19)
(0.654751 -0.0039333 6.48397e-19)
(0.754474 -0.058161 -6.20744e-19)
(0.836701 -0.126957 2.60947e-19)
(0.967854 -0.190503 3.6404e-19)
(-0.00818325 0.0194162 -3.86161e-19)
(-0.0215478 0.0580353 2.14087e-19)
(-0.0297675 0.096185 -3.6188e-19)
(-0.0333403 0.131699 4.42339e-19)
(-0.0321359 0.163178 -4.21016e-19)
(-0.0261656 0.189655 -1.25357e-19)
(-0.0155801 0.210607 -2.32451e-19)
(-0.000566758 0.225935 1.30595e-19)
(0.0187015 0.235881 -2.22992e-19)
(0.0421101 0.240892 2.45606e-19)
(0.0696302 0.241489 -3.22896e-19)
(0.101324 0.238146 -2.41483e-19)
(0.137336 0.231201 3.50827e-21)
(0.177875 0.220816 -3.85405e-19)
(0.223201 0.206967 6.82977e-21)
(0.273631 0.189459 -4.09682e-19)
(0.329579 0.167961 -2.29749e-20)
(0.391517 0.141997 -4.74282e-19)
(0.460347 0.111139 1.69169e-19)
(0.536271 0.074302 7.73485e-19)
(0.621904 0.0323886 -7.66949e-19)
(0.712443 -0.0190705 3.88897e-19)
(0.8194 -0.0711439 4.33672e-19)
(0.907549 -0.138306 -2.20188e-19)
(1.03898 -0.195268 7.86754e-20)
(-0.0081204 0.0178482 2.00173e-19)
(-0.0216465 0.0536994 -5.6526e-20)
(-0.0302329 0.0893476 1.22769e-19)
(-0.0341139 0.122708 -3.55399e-19)
(-0.0330214 0.152429 5.65345e-19)
(-0.0268682 0.177547 3.68015e-20)
(-0.0157393 0.1975 4.04718e-19)
(0.000210932 0.21212 -2.10364e-19)
(0.0208147 0.221556 1.42418e-19)
(0.0459423 0.22617 1.8674e-19)
(0.0755384 0.226412 1.74373e-19)
(0.10964 0.222711 5.51328e-19)
(0.14838 0.215392 -1.44717e-19)
(0.191983 0.204628 -1.42575e-19)
(0.240771 0.190427 -1.17616e-19)
(0.295174 0.172633 -7.79389e-21)
(0.35578 0.150956 -2.59345e-19)
(0.423265 0.124943 2.35914e-19)
(0.498708 0.0942306 -3.28216e-19)
(0.582349 0.0576837 1.30801e-19)
(0.676319 0.0165545 -1.96233e-19)
(0.775342 -0.033863 2.04707e-20)
(0.887906 -0.0832381 -1.00384e-18)
(0.979969 -0.147749 9.60327e-20)
(1.10658 -0.197314 -3.88137e-22)
(-0.00806198 0.0164228 2.64344e-19)
(-0.021734 0.0496179 -1.77413e-19)
(-0.0306839 0.082736 -1.24016e-19)
(-0.0348796 0.113819 -7.50236e-20)
(-0.0339204 0.141594 -2.43744e-19)
(-0.027623 0.165133 -4.07816e-19)
(-0.0160033 0.183861 -1.32652e-19)
(0.000825236 0.197563 4.52563e-19)
(0.0227127 0.206317 -1.42e-19)
(0.0495304 0.210406 -3.05124e-19)
(0.0812176 0.210218 -1.82461e-19)
(0.117811 0.206136 -5.62899e-19)
(0.159464 0.198467 -6.1743e-19)
(0.206455 0.187392 4.71431e-19)
(0.259209 0.172938 1.0122e-19)
(0.318307 0.154982 8.23307e-20)
(0.384518 0.133273 8.74276e-19)
(0.458683 0.107381 1.39794e-19)
(0.541895 0.0770212 8.9677e-19)
(0.634163 0.041072 -1.11588e-18)
(0.736623 0.00109543 5.38365e-19)
(0.843183 -0.0475621 -4.98678e-19)
(0.958707 -0.0936783 7.96492e-19)
(1.05159 -0.154513 -1.18376e-18)
(1.16842 -0.196365 2.46227e-19)
(-0.00802787 0.0151574 -6.76894e-20)
(-0.0218446 0.0458394 -1.40777e-19)
(-0.0311461 0.0764303 -1.28349e-19)
(-0.0356387 0.105144 4.35691e-20)
(-0.034799 0.130815 -6.78512e-20)
(-0.0283522 0.152577 2.58498e-19)
(-0.0162434 0.169872 -9.10835e-20)
(0.00146342 0.182458 -1.92385e-19)
(0.0246504 0.190359 -7.92516e-20)
(0.0532109 0.1938 4.56141e-21)
(0.0871051 0.193107 5.07308e-19)
(0.126403 0.188624 -4.47452e-19)
(0.171315 0.180638 6.60766e-19)
(0.222217 0.169329 -1.96207e-19)
(0.279669 0.154744 -3.45794e-19)
(0.344412 0.136786 2.88756e-19)
(0.417359 0.115238 -3.32076e-19)
(0.499381 0.0897068 -5.72218e-19)
(0.591305 0.0599945 -2.2816e-19)
(0.692534 0.0250667 2.21941e-19)
(0.802702 -0.013286 3.51374e-19)
(0.914629 -0.0594044 6.99817e-19)
(1.02963 -0.101788 4.19607e-20)
(1.1196 -0.158105 4.85798e-19)
(1.22258 -0.192461 -1.53044e-19)
(-0.00803691 0.0140641 -3.28297e-20)
(-0.022009 0.0424001 3.07298e-19)
(-0.0316373 0.0704961 3.16608e-19)
(-0.0363798 0.09678 -1.41492e-19)
(-0.0356036 0.120222 9.9012e-20)
(-0.0289487 0.140042 -3.63874e-19)
(-0.0162877 0.155721 7.20004e-20)
(0.00237357 0.167013 5.8346e-20)
(0.0269668 0.173912 -1.67932e-19)
(0.057432 0.176591 -4.58627e-20)
(0.0937828 0.175331 -6.29472e-19)
(0.136159 0.170441 2.04211e-19)
(0.18487 0.162187 -3.22596e-20)
(0.240419 0.150749 -5.10835e-21)
(0.303512 0.136186 -2.96513e-20)
(0.375017 0.118428 -1.22545e-20)
(0.455859 0.0972928 -3.12589e-20)
(0.546713 0.0724369 3.96517e-19)
(0.64776 0.0437456 -3.69577e-19)
(0.757387 0.0103441 3.39615e-19)
(0.873357 -0.0258781 -5.18967e-19)
(0.987394 -0.0687463 -2.53374e-19)
(1.09798 -0.107115 6.99202e-20)
(1.18131 -0.158379 -4.0868e-19)
(1.26779 -0.185923 -1.31494e-19)
(-0.00810572 0.0131487 -3.06908e-19)
(-0.0222514 0.0393227 -3.90261e-20)
(-0.032164 0.0649833 -3.88299e-19)
(-0.0370753 0.0888104 -3.10805e-19)
(-0.0362573 0.109934 4.09567e-19)
(-0.029272 0.127683 2.79129e-19)
(-0.015918 0.141599 -1.22798e-19)
(0.00386803 0.151453 -1.0824e-19)
(0.0300871 0.157224 -8.06143e-20)
(0.0627543 0.159055 6.98229e-19)
(0.101971 0.157192 2.7218e-19)
(0.147986 0.151912 3.83323e-19)
(0.201235 0.143468 -2.17495e-20)
(0.262362 0.132037 8.032e-20)
(0.332183 0.117693 2.18001e-19)
(0.411585 0.100387 -5.2123e-19)
(0.501295 0.079972 8.42953e-19)
(0.601463 0.0561643 9.51864e-20)
(0.711216 0.0289136 -2.89877e-19)
(0.827592 -0.00244268 -4.48055e-19)
(0.94639 -0.0360857 -2.45531e-19)
(1.05862 -0.0751778 5.60223e-19)
(1.16105 -0.109504 -2.00214e-20)
(1.23463 -0.155526 2.90882e-19)
(1.3036 -0.177265 3.374e-19)
(-0.00824743 0.0124106 2.3365e-19)
(-0.0225869 0.0366159 2.43176e-20)
(-0.032719 0.0599242 -5.11549e-20)
(-0.0376778 0.0813007 5.54929e-20)
(-0.0366567 0.100056 -3.88637e-19)
(-0.0291465 0.115647 5.13259e-19)
(-0.0148688 0.127694 -1.85376e-21)
(0.00632175 0.136006 4.14378e-19)
(0.0345172 0.140564 1.80041e-20)
(0.0698374 0.141497 -1.43021e-19)
(0.112504 0.139025 2.23926e-19)
(0.162902 0.13341 -7.53435e-19)
(0.221606 0.124891 -4.69513e-19)
(0.289368 0.113647 -2.37153e-19)
(0.367022 0.0997595 -1.06992e-19)
(0.45528 0.0832014 1.14433e-20)
(0.55438 0.0638522 -5.41175e-19)
(0.663581 0.0414907 2.10396e-19)
(0.780613 0.016091 8.32783e-19)
(0.901036 -0.0127714 2.38292e-19)
(1.01896 -0.0435322 5.83813e-19)
(1.12539 -0.0785772 -5.84212e-19)
(1.2166 -0.109098 -1.37565e-19)
(1.27843 -0.149982 -2.19806e-19)
(1.33033 -0.167093 -1.17856e-18)
(-0.00847048 0.0118421 -2.17377e-19)
(-0.0230195 0.034274 1.10304e-19)
(-0.0332783 0.0553332 1.95837e-19)
(-0.0381185 0.074297 6.75927e-19)
(-0.0366713 0.0906746 2.53241e-19)
(-0.028362 0.104065 -5.59319e-19)
(-0.0128308 0.114186 -1.40102e-19)
(0.0101638 0.120898 -7.42818e-20)
(0.0408275 0.124205 -2.40178e-19)
(0.0794112 0.124233 -7.91743e-20)
(0.126281 0.121195 -1.6265e-19)
(0.181966 0.115341 5.98141e-19)
(0.247153 0.106904 7.22197e-19)
(0.322619 0.0960637 3.69741e-19)
(0.409048 0.0829069 -1.89882e-19)
(0.50672 0.0674179 -1.36515e-19)
(0.615046 0.0494873 3.09436e-19)
(0.732068 0.0289435 -7.69577e-20)
(0.853951 0.00573309 -1.28045e-20)
(0.974945 -0.0203339 1.84724e-19)
(1.08807 -0.0481067 -2.63973e-19)
(1.18526 -0.0790968 -4.60755e-19)
(1.26321 -0.106269 -3.02723e-19)
(1.3125 -0.142308 3.87581e-19)
(1.34892 -0.156017 1.19029e-18)
(-0.00877758 0.0114292 1.73172e-19)
(-0.0235402 0.0322765 5.86308e-19)
(-0.0338 0.0512058 2.3374e-19)
(-0.0383067 0.067825 -2.07286e-19)
(-0.0361448 0.0818549 2.86869e-19)
(-0.0266784 0.0930502 3.14176e-19)
(-0.00946047 0.101238 3.49842e-19)
(0.0158611 0.106345 -2.04338e-20)
(0.049625 0.108412 2.72774e-19)
(0.0922312 0.107581 -8.38459e-19)
(0.144196 0.104066 4.74744e-19)
(0.206169 0.0981137 -2.54754e-19)
(0.278878 0.0899568 -6.49721e-19)
(0.362978 0.0797694 -4.79515e-19)
(0.458771 0.0676349 7.9466e-19)
(0.565802 0.0535324 -2.77556e-19)
(0.682352 0.0373387 -1.40596e-19)
(0.805047 0.018903 1.09197e-19)
(0.928582 -0.00190435 -5.75714e-19)
(1.04635 -0.0250683 4.70936e-19)
(1.15113 -0.0499448 -7.4868e-20)
(1.23658 -0.0770931 5.64227e-19)
(1.30039 -0.101519 6.43333e-19)
(1.33745 -0.133084 -2.18706e-19)
(1.36061 -0.144598 -4.33944e-19)
(-0.00916513 0.0111516 -8.99193e-20)
(-0.0241258 0.0305893 -3.33037e-19)
(-0.0342242 0.0475191 8.61541e-21)
(-0.038131 0.061889 -1.66824e-19)
(-0.0348989 0.0736394 -4.88334e-19)
(-0.0238331 0.0826903 -2.50749e-19)
(-0.00439331 0.0889877 1.37671e-19)
(0.0238953 0.0925389 -4.26496e-19)
(0.0615165 0.0934326 3.38684e-20)
(0.109022 0.0918378 2.0949e-19)
(0.167058 0.0879822 -6.0124e-19)
(0.23633 0.0821158 -1.98189e-19)
(0.317479 0.0744667 5.20045e-19)
(0.410837 0.0651978 3.57805e-19)
(0.516053 0.0543706 -4.69447e-19)
(0.63165 0.0419345 5.14763e-19)
(0.754567 0.0277199 2.17344e-19)
(0.880027 0.011558 -5.92131e-20)
(1.00163 -0.00678523 -4.66844e-20)
(1.11258 -0.0271371 -5.0061e-19)
(1.20628 -0.0493592 5.40217e-20)
(1.2786 -0.073035 -9.45214e-20)
(1.32844 -0.0953796 -4.93137e-19)
(1.35442 -0.122823 -3.51418e-19)
(1.36678 -0.133324 -3.17546e-19)
(-0.00962282 0.0109829 -5.63047e-20)
(-0.0247393 0.0291657 -7.35885e-19)
(-0.034474 0.0442333 -4.53824e-19)
(-0.037463 0.0564719 -5.76644e-19)
(-0.0327397 0.066046 5.08138e-19)
(-0.0195523 0.0730462 4.13119e-20)
(0.00273777 0.0775452 3.63666e-19)
(0.0347342 0.0796394 -3.31622e-19)
(0.0770656 0.0794771 5.48946e-19)
(0.130416 0.0772642 2.05481e-19)
(0.195506 0.073248 1.70978e-20)
(0.27299 0.0676832 -3.26491e-20)
(0.363243 0.0607881 -1.15969e-19)
(0.466033 0.0526987 -1.00327e-19)
(0.580089 0.0434303 1.12665e-19)
(0.702688 0.0328698 1.6101e-19)
(0.829395 0.0207682 -1.03765e-18)
(0.954279 0.00690055 6.59701e-20)
(1.07045 -0.00906902 -1.73242e-19)
(1.1716 -0.0268636 -1.65656e-19)
(1.25251 -0.0467534 8.06091e-20)
(1.31139 -0.0674191 -5.32865e-19)
(1.34823 -0.0883214 2.4617e-19)
(1.36479 -0.111903 2.95598e-19)
(1.36871 -0.122595 -6.42388e-19)
(-0.0101331 0.0108927 1.31107e-19)
(-0.0253304 0.027949 5.31959e-19)
(-0.0344579 0.0412932 4.62196e-20)
(-0.0361611 0.0515365 8.36718e-19)
(-0.0294652 0.0590671 -5.2899e-19)
(-0.0135631 0.064149 5.1575e-19)
(0.0122829 0.0669854 -4.6027e-19)
(0.0488024 0.0677685 1.80739e-19)
(0.0967512 0.0667138 -2.31804e-19)
(0.156899 0.0640704 3.05796e-19)
(0.229947 0.0601078 5.07465e-19)
(0.316345 0.0550818 2.6443e-19)
(0.415993 0.0491883 1.06116e-19)
(0.52784 0.0425141 1.16515e-19)
(0.649473 0.0349975 -9.20943e-20)
(0.776839 0.0264271 -7.35453e-20)
(0.904293 0.0164478 8.44675e-19)
(1.02521 0.0047545 2.7947e-19)
(1.13291 -0.00905742 7.86886e-19)
(1.22222 -0.0246553 2.0574e-20)
(1.2897 -0.0425471 -4.95207e-19)
(1.33562 -0.0607146 6.15818e-19)
(1.36099 -0.0806773 7.61142e-19)
(1.36987 -0.100507 8.92723e-20)
(1.36737 -0.112736 6.28514e-19)
(-0.0106725 0.0108477 -3.71614e-19)
(-0.0258368 0.0268753 2.05893e-19)
(-0.0340731 0.0386311 4.51872e-19)
(-0.0340763 0.0470273 -1.77623e-19)
(-0.0248739 0.0526718 -5.25115e-19)
(-0.00560669 0.056 -3.82155e-20)
(0.0245563 0.0573475 2.80883e-20)
(0.0664549 0.0570057 5.01816e-20)
(0.120932 0.0552613 -3.21318e-19)
(0.188767 0.0524094 -1.35438e-19)
(0.27051 0.0487391 -4.74702e-19)
(0.366222 0.0444975 -1.21529e-20)
(0.475093 0.0398386 -1.35725e-19)
(0.595036 0.0347711 -4.16467e-20)
(0.722367 0.0291214 3.68527e-19)
(0.851785 0.0225484 -5.45649e-19)
(0.976798 0.0145785 2.29427e-19)
(1.09069 0.00482595 -3.73728e-19)
(1.18764 -0.00713064 -5.64025e-19)
(1.26402 -0.0209339 9.99055e-20)
(1.31833 -0.0371338 1.03913e-18)
(1.35241 -0.0533336 -5.24855e-19)
(1.36808 -0.0725811 1.7772e-20)
(1.37074 -0.0886487 4.22256e-19)
(1.36342 -0.104129 2.28965e-19)
(-0.0112124 0.0108139 1.75003e-19)
(-0.026187 0.0258771 -2.48341e-19)
(-0.0332085 0.0361707 -5.25361e-19)
(-0.0310576 0.0428748 -2.78635e-19)
(-0.0187725 0.0468085 3.03479e-19)
(0.0045503 0.0485739 1.03218e-19)
(0.0398209 0.0486373 5.98486e-19)
(0.0879572 0.04739 2.4168e-19)
(0.149827 0.0451906 1.519e-19)
(0.226107 0.0423778 7.13442e-20)
(0.317041 0.0392528 4.91796e-19)
(0.422087 0.0360374 2.23614e-19)
(0.539513 0.032817 -1.86516e-19)
(0.666034 0.0294877 2.68673e-19)
(0.796706 0.0257311 -1.57231e-19)
(0.925237 0.0210566 2.02788e-19)
(1.0448 0.0148791 -2.00881e-19)
(1.14921 0.006758 -4.30754e-19)
(1.234 -0.00368904 6.30537e-19)
(1.29729 -0.0160858 -6.64965e-19)
(1.33933 -0.0308666 1.80777e-19)
(1.36306 -0.045603 -2.13422e-19)
(1.37093 -0.0639812 -1.58737e-19)
(1.36838 -0.0765448 -1.25316e-18)
(1.35709 -0.0974628 1.83517e-19)
(-0.0117205 0.0107582 3.57968e-20)
(-0.0263037 0.0248865 1.77779e-19)
(-0.0317493 0.0338309 5.89191e-19)
(-0.0269565 0.0390002 -1.3888e-19)
(-0.0109825 0.0414108 -6.02803e-20)
(0.017108 0.0418243 1.12101e-19)
(0.0582788 0.0408332 9.96427e-20)
(0.113475 0.0389263 -3.88206e-19)
(0.183502 0.0365314 -1.8024e-19)
(0.268799 0.0340238 -5.5518e-19)
(0.369115 0.0317025 -4.19319e-19)
(0.483103 0.0297398 -2.9998e-19)
(0.607923 0.0281194 2.70778e-19)
(0.739042 0.026589 -3.97068e-19)
(0.870412 0.0246598 -1.93145e-19)
(0.995162 0.0216904 -8.44326e-20)
(1.1067 0.0170136 -6.51589e-20)
(1.19992 0.0101787 1.28602e-18)
(1.27199 0.000891363 7.42798e-20)
(1.32274 -0.0104382 -1.12553e-19)
(1.35384 -0.0240529 -6.28994e-19)
(1.36891 -0.0377261 1.99092e-19)
(1.3708 -0.0548332 2.05647e-20)
(1.36408 -0.0651842 7.03284e-19)
(1.34884 -0.0929471 6.86779e-20)
(-0.0121619 0.0106503 2.81968e-19)
(-0.0261053 0.0238389 -2.71245e-19)
(-0.0295804 0.031532 -4.11436e-19)
(-0.0216314 0.0353215 4.12498e-19)
(-0.0013446 0.0364044 -9.13672e-20)
(0.0322287 0.0356916 -7.87951e-20)
(0.0800672 0.0338952 6.93714e-20)
(0.143075 0.0315965 -9.82795e-20)
(0.221881 0.029285 2.45523e-19)
(0.31653 0.0273601 1.58481e-19)
(0.426084 0.0260972 4.13184e-19)
(0.548195 0.0255877 -1.13871e-20)
(0.678814 0.0256754 3.42459e-19)
(0.812222 0.0259269 -2.24558e-20)
(0.941577 0.0256723 3.71176e-19)
(1.05994 0.0241412 1.09665e-19)
(1.1615 0.0206318 -7.04484e-19)
(1.24259 0.0147366 -3.48479e-19)
(1.30211 0.00628626 -9.02642e-20)
(1.34135 -0.00425396 2.2528e-19)
(1.36305 -0.0169368 -1.01607e-19)
(1.37113 -0.0297813 -3.67038e-19)
(1.36852 -0.0454559 5.23133e-20)
(1.35882 -0.0556354 -3.27822e-19)
(1.344 -0.0772462 -1.55645e-19)
(-0.0125011 0.010464 1.72666e-19)
(-0.0255093 0.0226768 1.84364e-19)
(-0.0265891 0.0292006 3.37509e-19)
(-0.0149502 0.0317603 -2.45624e-19)
(0.01028 0.0317149 1.82415e-20)
(0.0500364 0.030113 4.89464e-19)
(0.105261 0.0277769 -1.39698e-19)
(0.176728 0.0253719 -4.6568e-19)
(0.264758 0.0234374 -2.75472e-19)
(0.368826 0.022378 3.6768e-19)
(0.487116 0.0224157 -7.67645e-19)
(0.616136 0.0235221 2.67682e-21)
(0.750609 0.0253622 -6.65839e-20)
(0.883835 0.0272989 4.92682e-19)
(1.0086 0.0284917 -2.70156e-19)
(1.11843 0.0280846 3.71373e-19)
(1.20872 0.0253994 3.78426e-19)
(1.27746 0.0201231 -6.65012e-19)
(1.32514 0.012234 -2.8152e-19)
(1.35423 0.00226377 -2.27696e-19)
(1.36811 -0.00967992 3.46632e-19)
(1.3707 -0.0218029 5.35117e-19)
(1.36473 -0.0363702 2.41083e-19)
(1.35344 -0.045651 -2.11779e-19)
(1.33817 -0.0660151 -3.63402e-19)
(-0.0127026 0.0101784 -4.08041e-20)
(-0.0244349 0.0213537 1.72799e-19)
(-0.0226672 0.0267742 -3.43068e-19)
(-0.00679091 0.0282482 -5.26107e-19)
(0.0240092 0.0272768 -7.77686e-19)
(0.0706193 0.0250327 1.32888e-19)
(0.133878 0.0224368 -1.5533e-19)
(0.214322 0.0202263 2.27124e-19)
(0.311815 0.0189733 8.38601e-20)
(0.42508 0.0190599 1.63491e-19)
(0.551254 0.0206168 1.79988e-19)
(0.685619 0.0234518 -1.00659e-19)
(0.821769 0.0270168 -1.45221e-19)
(0.95235 0.0304665 -3.28223e-19)
(1.07026 0.0328233 1.00487e-19)
(1.16997 0.0332056 -3.93917e-19)
(1.24839 0.0310186 1.43917e-19)
(1.30514 0.0260836 9.89432e-20)
(1.34206 0.0185353 -3.87314e-19)
(1.36246 0.00896885 -4.09802e-19)
(1.36999 -0.00237551 -2.17817e-19)
(1.3684 -0.0139026 1.30573e-20)
(1.36009 -0.0274387 6.4536e-20)
(1.34774 -0.0363509 -2.03934e-19)
(1.33261 -0.0548085 1.53674e-19)
(-0.0127326 0.0097799 2.63252e-21)
(-0.0228032 0.0198356 -4.74963e-19)
(-0.0177117 0.0242051 6.0584e-19)
(0.0029576 0.024733 6.47443e-19)
(0.0399419 0.0230412 3.85909e-19)
(0.094033 0.0204114 -1.32707e-20)
(0.165885 0.0178495 -1.40028e-19)
(0.255674 0.0161475 -1.92588e-19)
(0.362642 0.0158854 3.50188e-19)
(0.484585 0.0173868 -8.49785e-19)
(0.61746 0.0206447 8.61781e-20)
(0.75533 0.0252586 7.90177e-19)
(0.890882 0.0304459 1.11627e-19)
(1.01652 0.0351712 -2.2527e-19)
(1.12576 0.0383745 4.07e-19)
(1.21436 0.0392166 4.53405e-19)
(1.28088 0.0372384 1.12931e-19)
(1.32642 0.03242 8.34131e-19)
(1.35387 0.0250466 6.31299e-19)
(1.36702 0.0157656 3.62651e-19)