/*--------------------------------*- C++ -*----------------------------------*\
  =========                 |
  \\      /  F ield         | OpenFOAM: The Open Source CFD Toolbox
   \\    /   O peration     | Website:  https://openfoam.org
    \\  /    A nd           | Version:  7
     \\/     M anipulation  |
\*---------------------------------------------------------------------------*/
FoamFile
{
    version     2.0;
    format      ascii;
    class       volScalarField;
    location    "5.5";
    object      p;
}
// * * * * * * * * * * * * * * * * * * * * * * * * * * * * * * * * * * * * * //

dimensions      [1 -1 -2 0 0 0 0];

internalField   nonuniform List<scalar> 
4032
(
1
1
1
1
1
1
1
1
1
1
1
1.32617
7.58271
10.6094
10.7418
10.9496
11.1342
11.3104
11.4729
11.6194
11.7501
11.8556
11.9362
11.9953
1
1
1
1
1
1
1
1
1
1
1
1.2871
7.41829
10.5756
10.7286
10.9305
11.1114
11.2831
11.4407
11.5807
11.7035
11.8011
11.8727
11.9287
1
1
1
1
1
1
1
1
1
1
1
1.18355
7.11654
10.5465
10.6871
10.8873
11.0683
11.2386
11.3935
11.5283
11.6433
11.732
11.7902
11.8379
1
1
1
1
1
1
1
1
1
1
1
1.01601
6.6152
10.4937
10.6336
10.8201
10.9911
11.1498
11.2955
11.4242
11.5357
11.6204
11.6693
11.7065
1
1
1
1
1
1
1
1
1
1
1
1.00019
5.94088
10.3176
10.5016
10.6847
10.8591
11.0158
11.1554
11.2706
11.3607
11.4274
11.4618
11.5103
1
1
1
1
1
1
1
1
1
1
1
0.999999
5.0959
10.0855
10.3903
10.558
10.724
10.863
10.9821
11.0808
11.1596
11.2195
11.2309
11.1903
1
1
1
1
1
1
1
1
1
1
1
1
4.12781
9.72897
10.2735
10.4294
10.5731
10.682
10.7656
10.8255
10.8465
10.8099
10.7398
10.6955
1
1
1
1
1
1
1
1
1
1
1
1
3.08192
9.17677
10.1864
10.3226
10.4363
10.5096
10.5437
10.5479
10.5012
10.4212
10.2928
10.2852
1
1
1
1
1
1
1
1
1
1
1
1
2.00004
8.31322
10.1447
10.197
10.2877
10.3283
10.3142
10.2544
10.1082
9.83881
9.06223
7.19675
1
1
1
1
1
1
1
1
1
1
1
1
1.12539
7.17152
10.1925
10.0907
10.087
10.0755
10.0201
9.89586
9.65534
9.18187
8.38103
6.31378
1
1
1
1
1
1
1
1
1
1
1
1
1.00151
5.55815
9.58907
9.72599
9.78867
9.76457
9.69085
9.51817
9.22007
8.65608
7.82513
5.90108
1
1
1
1
1
1
1
1
1
1
1
1
0.999977
3.68697
9.00475
9.59238
9.62028
9.55557
9.43676
9.20924
8.8501
8.27527
7.36941
5.80252
1
1
1
1
1
1
1
1
1
1
1
1
0.999994
1.95734
8.04413
9.53405
9.44282
9.33206
9.17421
8.91197
8.5171
7.9563
7.05428
5.83127
1
1
1
1
1
1
1
1
1
1
1
1
0.999999
1.09523
6.28104
9.2003
9.18791
9.08964
8.9225
8.65278
8.26416
7.70115
6.87424
5.91696
1
1
1
1
1
1
1
1
1
1
1
1
1
1.00048
3.8263
8.60568
9.04208
8.93677
8.75116
8.4433
8.05811
7.48801
6.76791
5.98419
1
1
1
1
1
1
1
1
1
1
1
1
1
0.999995
1.61503
7.63082
9.07746
8.79738
8.55774
8.24626
7.83523
7.33041
6.71881
6.04686
1
1
1
1
1
1
1
1
1
1
1
1
1
0.999999
1.03314
5.59618
8.64488
8.45882
8.29272
8.02368
7.65804
7.20916
6.67544
6.08617
1
1
1
1
1
1
1
1
1
1
1
1
1
1
0.999967
2.79302
7.90513
8.35116
8.20126
7.93458
7.57751
7.14264
6.64397
6.11738
1
1
1
1
1
1
1
1
1
1
1
1
1
1
0.999988
1.22583
6.07314
8.30002
8.11477
7.83018
7.47571
7.06716
6.61234
6.14034
1
1
1
1
1
1
1
1
1
1
1
1
1
1
0.999998
1.00393
3.22528
7.60008
7.99025
7.70495
7.38021
7.00186
6.59115
6.16533
1
1
1
1
1
1
1
1
1
1
1
1
1
1
1
1
1.33793
5.9772
7.95927
7.63784
7.32886
6.96255
6.58047
6.18819
1
1
1
1
1
1
1
1
1
1
1
1
1
1
1
1
1.00915
3.10523
7.22332
7.53894
7.24022
6.90349
6.55635
6.20432
1
1
1
1
1
1
1
1
1
1
1
1
1
1
1
1
1.00003
1.30707
5.45556
7.55087
7.21555
6.91029
6.58169
6.24856
1
1
1
1
1
1
1
1
1
1
1
1
1
1
1
1
1
1.00792
2.50871
6.52543
7.17981
6.8936
6.58531
6.26083
1
1
1
1
1
1
1
1
1
1
1
1
1
1
1
1
1
1.00004
1.16461
4.40045
7.12525
6.90646
6.61777
6.31126
1
1
1
1
1
1
1
1
1
1
1
1
1
1
1
1
1
1
1.00285
1.83606
5.77542
6.89682
6.61204
6.32011
1
1
1
1
1
1
1
1
1
1
1
1
1
1
1
1
1
1
1.00001
1.0535
3.09097
6.26946
6.64089
6.37165
1
1
1
1
1
1
1
1
1
1
1
1
1
1
1
1
1
1
1
1.00064
1.30959
4.38746
6.56337
6.36319
1
1
1
1
1
1
1
1
1
1
1
1
1
1
1
1
1
1
1
1
1.00928
1.89679
5.35193
6.17821
1
1
1
1
1
1
1
1
1
1
1
1
1
1
1
1
1
1
1
1
1.00007
1.06328
2.6382
6.53581
1
1
1
1
1
1
1
1
1
1
1
1
1
1
1
1
1
1
1
1
1
1.00087
1.23901
7.66104
1
1
1
1
1
1
1
1
1
1
1
1
1
1
1
1
1
1
1
1
1
1.00001
1.30403
7.9325
1
1
1
1
1
1
1
1
1
1
1
1
1
1
1
1
1
1
1
1
1
1
1.42874
7.89494
1
1
1
1
1
1
1
1
1
1
1
1
1
1
1
1
1
1
1
1
1
1
1.36152
7.63018
1
1
1
1
1
1
1
1
1
1
1
1
1
1
1
1
1
1
1
1
1
1
1.24357
7.30909
1
1
1
1
1
1
1
1
1
1
1
1
1
1
1
1
1
1
1
1
1
1
1.08331
6.94645
1
1
1
1
1
1
1
1
1
1
1
1
1
1
1
1
1
1
1
1
1
1
1.00272
6.66884
1
1
1
1
1
1
1
1
1
1
1
1
1
1
1
1
1
1
1
1
1
1
1.00001
6.38475
1
1
1
1
1
1
1
1
1
1
1
1
1
1
1
1
1
1
1
1
1
1
1
6.19705
1
1
1
1
1
1
1
1
1
1
1
1
1
1
1
1
1
1
1
1
1
1
1
6.11357
1.62285
0.423128
0.132272
0.130474
0.158894
0.260915
0.39138
0.511649
0.674356
0.795133
0.898037
0.966395
1.03637
1.13826
1.22484
1.27138
1.2906
1.26102
1.2494
1.27088
1.30531
1.32411
3.78392
5.36392
5.62256
5.78882
5.86829
5.8648
5.80903
5.74339
5.71505
5.72578
5.74319
5.74356
5.7033
5.61718
5.51407
5.43169
5.38609
5.37441
5.37961
5.35288
5.26104
5.15207
5.05714
4.98423
4.93838
4.91188
4.86997
4.79198
4.70356
4.62197
4.55245
4.4958
4.44186
4.38008
4.31157
4.24585
4.19091
4.14383
4.08793
4.02581
3.96063
3.89141
3.82716
3.76781
3.71431
3.65989
3.60201
3.54111
3.47285
3.39795
3.33068
3.28014
3.23908
3.21082
3.1837
3.14057
3.08778
3.01573
2.93077
2.85979
2.81024
2.77153
2.73682
2.70274
2.66648
2.62416
2.57531
2.5345
2.50555
2.47742
2.44621
2.40631
2.35129
2.26517
2.71137
1.46794
0.932836
0.63751
0.519645
0.508194
0.525528
0.53443
0.534802
0.559611
0.613026
0.694379
0.798873
0.912716
1.02728
1.10024
1.15534
1.20692
1.21701
1.23759
1.25867
1.25847
3.39574
5.47767
5.78347
5.84834
5.82955
5.8108
5.80886
5.79695
5.75459
5.70003
5.64885
5.62682
5.63524
5.6367
5.57337
5.46865
5.37131
5.3026
5.2802
5.29149
5.27241
5.18838
5.08161
4.97842
4.89574
4.84065
4.81813
4.78897
4.71935
4.6319
4.54583
4.46747
4.40424
4.35966
4.32038
4.26871
4.20231
4.1289
4.05442
3.98808
3.93118
3.87435
3.81622
3.75947
3.70317
3.64705
3.59219
3.53716
3.48005
3.41927
3.35317
3.28723
3.23299
3.19049
3.15299
3.12037
3.07781
3.02274
2.95956
2.89304
2.8304
2.7799
2.73983
2.70303
2.66505
2.62256
2.57285
2.52286
2.48734
2.46154
2.43788
2.40509
2.36407
2.28854
3.58803
2.32535
1.70416
1.32419
1.01067
0.762515
0.688435
0.662641
0.62015
0.582009
0.591511
0.645338
0.709475
0.767027
0.847483
0.93658
1.00966
1.1085
1.1787
1.21618
1.23478
1.24865
2.77654
5.73875
6.17726
5.97301
5.82644
5.74222
5.73469
5.81397
5.87271
5.81624
5.71105
5.61393
5.56146
5.57411
5.5987
5.55912
5.46866
5.35835
5.27342
5.22827
5.21799
5.19523
5.13391
5.04875
4.93873
4.84479
4.77839
4.74769
4.72183
4.66189
4.58367
4.4888
4.40058
4.33703
4.30036
4.2796
4.23174
4.16728
4.08643
3.98903
3.90675
3.85166
3.80259
3.75545
3.70222
3.6406
3.57018
3.50693
3.46098
3.42198
3.3793
3.32914
3.26377
3.18504
3.11616
3.0667
3.02741
2.99336
2.95705
2.91866
2.87059
2.81287
2.759
2.71483
2.67545
2.63552
2.58925
2.53318
2.47706
2.43329
2.39718
2.36731
2.35006
2.30553
4.26243
3.1363
2.33612
1.9036
1.59227
1.26845
0.988466
0.915779
0.887993
0.83576
0.773404
0.71678
0.692444
0.699905
0.723502
0.774031
0.844023
0.94591
1.04406
1.09432
1.143
1.25297
1.99799
5.4692
6.56468
6.24298
5.94647
5.78683
5.74213
5.75713
5.81517
5.79644
5.73019
5.63242
5.54968
5.50864
5.49906
5.49287
5.44789
5.38354
5.2949
5.21927
5.16704
5.12439
5.07907
5.01925
4.94794
4.85782
4.78031
4.72508
4.68195
4.62809
4.56165
4.48367
4.39995
4.33217
4.28284
4.24419
4.19591
4.14291
4.08106
4.00013
3.90848
3.83726
3.7886
3.74462
3.69928
3.64849
3.58592
3.5147
3.45151
3.40599
3.36698
3.32562
3.27304
3.20202
3.12425
3.06126
3.0149
2.97733
2.9431
2.90908
2.8696
2.81773
2.7588
2.70935
2.67168
2.63815
2.60269
2.5566
2.4874
2.41203
2.3693
2.3443
2.32905
2.29487
4.67422
3.7414
2.96849
2.40508
2.05465
1.77346
1.46972
1.17841
1.07705
1.03943
0.986958
0.92116
0.839348
0.752956
0.730734
0.737156
0.757632
0.795225
0.860496
0.907893
1.04841
1.45576
1.84833
3.78028
5.99769
6.4093
6.17931
5.90294
5.74233
5.71318
5.73471
5.76649
5.73855
5.68612
5.59502
5.51289
5.46985
5.44707
5.43529
5.39815
5.33749
5.24522
5.15654
5.09475
5.03989
4.98931
4.93464
4.8723
4.79954
4.72997
4.6696
4.60832
4.54232
4.47271
4.40555
4.34488
4.28815
4.23339
4.17901
4.1218
4.05998
3.99115
3.91412
3.83864
3.77685
3.72541
3.67732
3.62891
3.57726
3.52052
3.46325
3.41095
3.36078
3.30752
3.24732
3.1809
3.11507
3.05843
3.01447
2.97882
2.94513
2.90922
2.86613
2.81003
2.74474
2.68955
2.65244
2.62259
2.59229
2.5545
2.49564
2.41433
2.36042
2.33594
2.31836
2.28232
4.99536
4.18678
3.50132
2.90887
2.43207
2.13677
1.89524
1.63763
1.36382
1.19609
1.17166
1.14562
1.07939
0.971466
0.852499
0.807069
0.794709
0.802209
0.825118
0.940082
1.23824
1.74992
1.91043
2.25627
4.12696
5.94638
6.27173
6.10487
5.82149
5.70968
5.6872
5.72574
5.74012
5.6914
5.60848
5.48742
5.42227
5.38835
5.38835
5.3782
5.32785
5.24636
5.13923
5.06257
5.00713
4.96616
4.92553
4.86961
4.80024
4.71542
4.63785
4.57399
4.51596
4.46208
4.40792
4.34625
4.27514
4.20513
4.14532
4.09087
4.03792
3.98306
3.92004
3.84468
3.76953
3.71082
3.66222
3.61544
3.56743
3.51653
3.46147
3.40331
3.34495
3.28704
3.23022
3.17587
3.12212
3.06593
3.0121
2.96928
2.93337
2.89639
2.85307
2.80036
2.73975
2.68156
2.64018
2.61154
2.58398
2.55174
2.50657
2.43855
2.36306
2.32195
2.3015
2.26945
5.2131
4.49688
3.87269
3.34569
2.86043
2.42665
2.16567
1.98864
1.76716
1.52008
1.32819
1.27084
1.24072
1.17063
1.06328
0.947626
0.877205
0.88097
0.953374
1.23509
1.66823
1.87264
1.86645
1.86616
2.18882
3.95952
5.8865
6.1869
5.91113
5.74387
5.67193
5.67597
5.71868
5.67537
5.60737
5.48686
5.39422
5.34887
5.33939
5.34795
5.30632
5.23888
5.13958
5.05393
4.99977
4.96238
4.92589
4.86712
4.79619
4.70157
4.61182
4.55322
4.50338
4.45809
4.40706
4.34606
4.26728
4.18063
4.11618
4.0673
4.02107
3.9727
3.91656
3.8449
3.76233
3.69517
3.64724
3.60482
3.562
3.51444
3.45542
3.38199
3.30929
3.25264
3.20837
3.16908
3.12854
3.07989
3.01937
2.95775
2.90859
2.86654
2.82457
2.78119
2.73446
2.68129
2.62873
2.59177
2.56399
2.53574
2.50227
2.45712
2.39397
2.32473
2.28282
2.26295
5.38391
4.75395
4.15182
3.64876
3.23428
2.822
2.43331
2.19728
2.04311
1.85611
1.63881
1.44835
1.36704
1.31754
1.24132
1.1452
1.11572
1.19152
1.42958
1.859
2.04337
2.02892
1.99061
1.9453
1.95111
2.22504
3.81586
5.64944
5.94057
5.79367
5.69525
5.62741
5.65681
5.63569
5.5854
5.50041
5.39672
5.33468
5.30316
5.30174
5.27128
5.21353
5.13455
5.04311
4.98157
4.93505
4.89457
4.83855
4.77303
4.68757
4.59585
4.53569
4.4894
4.44477
4.39329
4.33524
4.25999
4.16778
4.09275
4.04249
3.99828
3.95245
3.90082
3.83752
3.76033
3.68628
3.6329
3.59019
3.54796
3.50079
3.43908
3.35423
3.27171
3.22294
3.18989
3.15889
3.12613
3.08637
3.02859
2.94932
2.87962
2.8345
2.79927
2.76686
2.73327
2.69146
2.6357
2.57984
2.54123
2.51194
2.48414
2.45316
2.41256
2.35437
2.29208
2.29738
5.50011
4.93912
4.39695
3.89258
3.48475
3.13738
2.76249
2.4472
2.23713
2.08314
1.91354
1.70803
1.53469
1.43664
1.38186
1.38781
1.512
1.75193
2.0903
2.32094
2.29329
2.23731
2.1715
2.1109
2.07397
2.09363
2.30804
3.55634
5.15445
5.73128
5.74569
5.64024
5.58878
5.55904
5.53943
5.49501
5.42018
5.33726
5.28714
5.25651
5.22896
5.18041
5.12011
5.03658
4.95431
4.89862
4.8501
4.8006
4.74414
4.67821
4.59552
4.52074
4.46891
4.41956
4.36914
4.31583
4.25293
4.17334
4.0875
4.02131
3.97188
3.92519
3.87645
3.82216
3.75786
3.68509
3.61873
3.567
3.52144
3.47414
3.41586
3.33547
3.25037
3.20111
3.16976
3.14048
3.11138
3.07865
3.02921
2.94425
2.85428
2.8077
2.78042
2.75494
2.72805
2.6955
2.64822
2.5825
2.5235
2.48499
2.45545
2.42989
2.40665
2.38168
2.34888
2.43928
5.58855
5.07672
4.59551
4.12349
3.70335
3.37056
3.05524
2.72261
2.45465
2.27054
2.11198
1.94093
1.74846
1.61914
1.65276
1.86765
2.19282
2.41208
2.59161
2.58143
2.529
2.4893
2.43474
2.35264
2.29304
2.25469
2.26212
2.3845
3.21837
4.62936
5.46414
5.60477
5.56841
5.50734
5.49223
5.47905
5.43223
5.35538
5.27532
5.22476
5.18492
5.14688
5.09671
5.02826
4.93441
4.85954
4.80759
4.76188
4.71651
4.66453
4.59796
4.51265
4.43657
4.38178
4.33299
4.28514
4.23476
4.17359
4.09287
4.00716
3.94303
3.89364
3.84736
3.79991
3.74651
3.68075
3.60545
3.53917
3.48708
3.43938
3.38843
3.32855
3.25645
3.1863
3.1448
3.11828
3.09292
3.06122
3.01534
2.94652
2.86026
2.79397
2.75937
2.73322
2.70737
2.67991
2.64729
2.59527
2.51931
2.46087
2.43629
2.41677
2.41403
2.42308
2.47112
2.77787
5.66135
5.18565
4.74678
4.32629
3.91088
3.55904
3.27883
2.97687
2.70108
2.46268
2.25666
2.11437
2.00036
2.0418
2.27598
2.7364
2.899
2.87055
2.83131
2.76361
2.72589
2.71944
2.67649
2.59061
2.4974
2.45092
2.41735
2.39791
2.45727
2.92314
4.09216
5.10088
5.41502
5.48298
5.46879
5.47891
5.42747
5.35868
5.25512
5.18754
5.14531
5.11452
5.07096
5.0099
4.91528
4.81996
4.76492
4.72304
4.6892
4.6455
4.58803
4.50223
4.4034
4.33861
4.29228
4.24921
4.20564
4.15618
4.08998
4.00198
3.91955
3.86241
3.81697
3.77336
3.72614
3.66737
3.58975
3.50794
3.44775
3.403
3.36277
3.32194
3.27171
3.2045
3.13202
3.07497
3.03515
3.00251
2.97022
2.93188
2.87994
2.8127
2.75018
2.71377
2.69236
2.6723
2.64222
2.59433
2.53359
2.47241
2.43166
2.42043
2.44092
2.54394
2.76292
3.17726
5.72582
5.28698
4.8787
4.4907
4.10509
3.75655
3.46394
3.17702
2.89896
2.64648
2.46413
2.38534
2.52543
2.80101
3.18721
3.43599
3.38091
3.21899
3.06484
2.99924
2.96609
2.95035
2.90866
2.82614
2.72307
2.66083
2.62274
2.56992
2.51229
2.51754
2.71718
3.52628
4.61331
5.17225
5.3571
5.46638
5.4312
5.35246
5.22819
5.14217
5.10213
5.08001
5.04599
4.98945
4.90021
4.79343
4.73313
4.69356
4.66299
4.62059
4.56612
4.4821
4.3702
4.29545
4.25095
4.20989
4.16805
4.12273
4.06628
3.98897
3.90322
3.83654
3.78729
3.74305
3.69698
3.64236
3.56888
3.47836
3.40628
3.36641
3.33723
3.30763
3.27254
3.21987
3.13451
3.04255
2.98515
2.95
2.92176
2.89666
2.8704
2.83438
2.77984
2.71329
2.65364
2.61287
2.5836
2.55696
2.53318
2.5032
2.47112
2.50126
2.63709
2.91842
3.18307
3.3981
5.78414
5.378
4.99397
4.6299
4.27269
3.94348
3.61866
3.33513
3.08149
2.86937
2.87815
3.12829
3.47127
3.66381
3.76677
3.7502
3.64309
3.48923
3.33491
3.28325
3.221
3.16827
3.12093
3.03956
2.93138
2.84839
2.79371
2.74525
2.67632
2.59686
2.57784
2.63753
3.08782
4.06014
4.86952
5.22477
5.3899
5.34132
5.21885
5.09353
5.04811
5.02844
5.00589
4.95561
4.88004
4.77354
4.70224
4.66236
4.62782
4.58426
4.53065
4.44946
4.33917
4.26075
4.21286
4.16942
4.12572
4.07939
4.02547
3.95823
3.88259
3.81478
3.75928
3.70947
3.6598
3.60529
3.53882
3.45825
3.38215
3.33398
3.30524
3.27904
3.25098
3.21241
3.14548
3.04328
2.95256
2.90655
2.8807
2.85991
2.84404
2.82448
2.79276
2.72742
2.63237
2.56953
2.54431
2.53306
2.53871
2.5651
2.64627
2.8453
3.14526
3.3822
3.53247
3.53888
5.83839
5.46325
5.10033
4.75824
4.41494
4.09221
3.76354
3.50701
3.3467
3.44754
3.82698
4.27759
4.29863
4.22234
4.12076
3.9926
3.89777
3.77837
3.61377
3.54896
3.48041
3.39021
3.33133
3.25522
3.14621
3.05366
2.97721
2.91074
2.85494
2.77275
2.68244
2.59655
2.60241
2.81166
3.53047
4.43927
5.029
5.23261
5.20059
5.0669
5.01103
4.97441
4.953
4.91238
4.85433
4.75834
4.66993
4.62353
4.58124
4.53458
4.48015
4.40491
4.31193
4.23634
4.18121
4.13308
4.0858
4.03578
3.97996
3.91691
3.84994
3.78585
3.72746
3.67257
3.61818
3.56192
3.50263
3.44071
3.37603
3.31119
3.26147
3.2327
3.20787
3.17683
3.13012
3.05865
2.96531
2.88626
2.84553
2.82466
2.81292
2.79841
2.77218
2.72347
2.64247
2.55767
2.53482
2.5396
2.5953
2.74209
3.01014
3.29913
3.58249
3.66939
3.67379
3.60822
5.90209
5.54894
5.20131
4.86078
4.53144
4.21101
3.94759
3.9111
4.16694
4.57541
4.96092
4.9806
4.7435
4.50743
4.37585
4.28791
4.21125
4.08579
3.89153
3.7648
3.70183
3.60922
3.53788
3.46063
3.35349
3.23082
3.14789
3.06713
2.99426
2.92787
2.83694
2.72838
2.62936
2.61025
2.68096
3.09507
3.9038
4.68442
4.97091
4.98907
4.97284
4.94115
4.9103
4.86378
4.8155
4.73275
4.6404
4.57507
4.52331
4.4726
4.4171
4.35204
4.28239
4.21577
4.15426
4.09862
4.04658
3.99382
3.93734
3.87657
3.81277
3.74874
3.68681
3.62736
3.57036
3.51685
3.46821
3.4221
3.37082
3.30679
3.23579
3.17795
3.13957
3.11027
3.07873
3.03853
2.98669
2.92633
2.85794
2.79262
2.75016
2.72516
2.70527
2.68101
2.64853
2.60673
2.61178
2.67837
2.86208
3.15177
3.43403
3.56079
3.67858
3.72371
3.71016
3.62956
5.93736
5.61095
5.27642
4.92848
4.64191
4.39259
4.51034
5.01453
5.39661
5.555
5.59763
5.37089
5.06171
4.79612
4.63862
4.5663
4.50017
4.36762
4.17238
3.98244
3.90597
3.82658
3.74587
3.65733
3.54867
3.4068
3.29825
3.22802
3.14761
3.07398
2.99589
2.89239
2.77637
2.66991
2.62254
2.63954
2.81948
3.38919
4.16515
4.64041
4.76872
4.87956
4.88722
4.82333
4.76381
4.68658
4.61059
4.53369
4.46457
4.40601
4.35224
4.30136
4.25136
4.19489
4.1288
4.05995
3.99777
3.94304
3.89187
3.84002
3.78333
3.71917
3.64975
3.58069
3.51891
3.46985
3.43095
3.39471
3.3545
3.30327
3.23361
3.15244
3.08544
3.04164
3.01104
2.98474
2.96267
2.93696
2.8854
2.79364
2.71486
2.67658
2.64936
2.63908
2.65845
2.72788
2.87542
3.12309
3.42043
3.58243
3.64083
3.66067
3.69626
3.73155
3.71891
3.65152
5.99081
5.68428
5.32961
5.04464
4.93487
5.22869
5.9019
6.34686
6.16006
5.99195
5.87896
5.65187
5.38208
5.12451
4.92756
4.82801
4.75442
4.62787
4.44503
4.2365
4.12817
4.04388
3.94963
3.84852
3.7178
3.57873
3.44446
3.36061
3.29055
3.2082
3.12735
3.03519
2.92456
2.8104
2.71026
2.64429
2.62777
2.68047
2.968
3.57876
4.19791
4.5943
4.71986
4.7589
4.70887
4.64701
4.58656
4.50121
4.4062
4.3298
4.28842
4.25427
4.21747
4.17017
4.1036
4.01917
3.93906
3.88082
3.8368
3.79558
3.7491
3.692
3.62107
3.54352
3.47686
3.42681
3.38659
3.35035
3.3141
3.2756
3.22471
3.1499
3.05668
2.99024
2.96194
2.94935
2.93927
2.91546
2.87272
2.80582
2.71984
2.65003
2.6355
2.65921
2.78117
3.04143
3.3411
3.60231
3.78907
3.8076
3.78161
3.74431
3.72682
3.72171
3.70445
3.64933
6.01893
5.70575
5.41399
5.46474
6.01912
6.73023
7.18791
7.01694
6.56996
6.24093
6.07877
5.9306
5.69805
5.44773
5.22568
5.07765
4.98763
4.87414
4.69854
4.48719
4.34477
4.24813
4.14298
4.03335
3.89352
3.72982
3.60548
3.50571
3.42541
3.34671
3.25761
3.16387
3.05426
2.93627
2.83662
2.74747
2.66682
2.62714
2.61541
2.71202
3.08857
3.71377
4.25073
4.51501
4.60105
4.62075
4.56921
4.47355
4.35114
4.26401
4.23104
4.20377
4.1771
4.13823
4.07623
3.97952
3.8797
3.81848
3.77713
3.73888
3.69794
3.65117
3.58904
3.51471
3.44948
3.3955
3.34709
3.31019
3.28482
3.24912
3.19732
3.12974
3.06043
3.00192
2.94571
2.8917
2.847
2.81816
2.79613
2.77374
2.74013
2.70652
2.74462
2.89159
3.1981
3.51362
3.71198
3.87148
3.91124
3.89086
3.85622
3.80994
3.74928
3.7089
3.68063
3.62734
6.0617
5.80355
6.05884
6.94214
7.59196
7.76222
7.64314
7.2773
6.84791
6.50754
6.34784
6.23386
6.00639
5.7522
5.54637
5.36323
5.23613
5.11694
4.93821
4.72136
4.56149
4.44667
4.33546
4.21373
4.07836
3.90848
3.75726
3.65443
3.56256
3.47492
3.38477
3.28389
3.16947
3.04847
2.93713
2.85092
2.77052
2.68131
2.62027
2.57989
2.59
2.74787
3.19845
3.78638
4.23518
4.44336
4.46722
4.4248
4.30581
4.22419
4.18669
4.16447
4.14667
4.10825
4.0449
3.94115
3.83881
3.77849
3.73022
3.68254
3.64232
3.60469
3.54739
3.47517
3.42543
3.38459
3.33881
3.27728
3.19791
3.13603
3.08939
3.05552
3.0304
2.99838
2.9418
2.85614
2.79089
2.76334
2.75477
2.76089
2.79864
2.91383
3.14904
3.45687
3.75404
3.82801
3.87488
3.91226
3.92598
3.90926
3.8814
3.84551
3.78627
3.7172
3.6701
3.62823
6.20027
6.71575
7.92736
8.6454
8.45646
8.15975
7.84602
7.49458
7.13567
6.818
6.64138
6.51078
6.29212
6.02596
5.83608
5.64652
5.48013
5.33837
5.15666
4.92831
4.76498
4.63478
4.511
4.38364
4.2411
4.08485
3.91835
3.78856
3.69183
3.59805
3.50231
3.40071
3.28379
3.15438
3.03677
2.94202
2.86133
2.78377
2.70183
2.61641
2.56833
2.51442
2.54518
2.80375
3.31716
3.89031
4.21885
4.25345
4.24425
4.21492
4.16282
4.11453
4.0547
3.98757
3.92889
3.86987
3.81381
3.76357
3.7179
3.65954
3.56913
3.47167
3.44322
3.43143
3.40755
3.37381
3.32255
3.25152
3.14603
3.05425
3.02351
3.00832
2.99107
2.96297
2.91702
2.85702
2.79068
2.76126
2.7681
2.8486
3.07613
3.42485
3.72286
3.97217
4.0301
3.9848
3.9461
3.9246
3.92199
3.92355
3.90064
3.86877
3.81141
3.73057
3.68955
3.65516
7.42661
8.88695
9.58041
9.29215
8.74741
8.34725
8.04858
7.78034
7.46937
7.15329
6.95231
6.79413
6.57851
6.30108
6.10053
5.91932
5.72223
5.5523
5.37235
5.14682
4.95941
4.82107
4.6806
4.54721
4.40436
4.24339
4.07744
3.92907
3.81392
3.71536
3.61524
3.50944
3.39334
3.26551
3.13913
3.03717
2.94793
2.86568
2.78646
2.7
2.60061
2.51377
2.46178
2.45158
2.55369
2.9002
3.47943
3.83622
4.04972
4.1263
4.1398
4.0976
4.00714
3.89078
3.79417
3.76572
3.75247
3.73783
3.69795
3.63793
3.53768
3.41391
3.34145
3.31831
3.30377
3.29627
3.2771
3.23256
3.13881
3.0233
2.95956
2.92967
2.90083
2.87587
2.86452
2.85703
2.82496
2.83561
2.95726
3.27206
3.63584
3.88226
4.09019
4.14827
4.12781
4.04817
3.98016
3.95417
3.94189
3.93931
3.92027
3.8882
3.82809
3.74827
3.71126
3.67276
10.1311
10.344
10.0671
9.56487
9.02105
8.56157
8.29486
8.07778
7.77807
7.4456
7.21604
7.04268
6.83638
6.56123
6.32919
6.15357
5.95544
5.76262
5.57551
5.36156
5.145
4.98763
4.8424
4.69426
4.54958
4.39501
4.22655
4.06628
3.9307
3.81596
3.71198
3.60679
3.49476
3.37129
3.23829
3.12807
3.05579
2.99286
2.91988
2.83989
2.73819
2.62321
2.50654
2.43132
2.38882
2.4215
2.60165
2.99665
3.44144
3.77725
3.96681
3.99845
3.96296
3.86964
3.7363
3.65946
3.63047
3.61061
3.58796
3.55307
3.49902
3.39734
3.29174
3.24463
3.22345
3.20129
3.17548
3.14595
3.09529
2.99444
2.91968
2.87951
2.85431
2.84324
2.84767
2.87168
2.96511
3.18448
3.53525
3.88366
4.02825
4.12558
4.18492
4.17811
4.13182
4.06314
4.01196
3.99086
3.97765
3.96868
3.94247
3.90112
3.83534
3.76377
3.72518
3.682
11.8724
10.8174
10.2609
9.72848
9.19947
8.79705
8.57759
8.38499
8.08497
7.75639
7.52724
7.32072
7.09549
6.8087
6.54035
6.3602
6.17083
5.97141
5.77013
5.5538
5.32877
5.13859
4.98666
4.83644
4.6834
4.52785
4.36425
4.20113
4.05282
3.92179
3.80101
3.68274
3.55934
3.43231
3.31529
3.21146
3.11212
3.0187
2.92764
2.83441
2.74194
2.64565
2.54935
2.47466
2.41117
2.37466
2.33323
2.38265
2.60061
3.03446
3.4582
3.79623
3.89812
3.86891
3.75322
3.60979
3.52715
3.49895
3.48167
3.46762
3.4366
3.38628
3.29315
3.199
3.15651
3.12956
3.10097
3.06961
3.0294
2.97765
2.89595
2.83346
2.83123
2.84335
2.91733
3.14315
3.50887
3.84022
4.13482
4.19975
4.18429
4.18594
4.18181
4.16399
4.12444
4.09528
4.06833
4.03106
3.99869
3.96573
3.93239
3.8889
3.83656
3.79579
3.765
3.70479
11.2903
10.4455
10.0357
9.68927
9.35976
9.07684
8.88428
8.67011
8.32831
7.97178
7.72578
7.58156
7.36872
7.07745
6.79676
6.61947
6.43957
6.24039
6.03646
5.81318
5.57998
5.37693
5.20911
5.05276
4.89642
4.73508
4.56588
4.39508
4.23594
4.09248
3.9569
3.82369
3.697
3.5759
3.45603
3.33668
3.22025
3.10481
2.99241
2.88058
2.77861
2.69763
2.63475
2.56395
2.49272
2.40561
2.33494
2.2641
2.25983
2.36174
2.66965
3.09776
3.50493
3.7242
3.72434
3.61943
3.48753
3.41504
3.3863
3.37082
3.35489
3.32151
3.27583
3.19512
3.11484
3.07069
3.03772
3.00234
2.95705
2.91314
2.87387
2.84358
2.86182
2.99471
3.32192
3.77238
4.06839
4.25722
4.32734
4.31105
4.26591
4.21198
4.18361
4.16546
4.1585
4.14246
4.11785
4.07468
4.00955
3.95246
3.91294
3.88561
3.86647
3.84356
3.81774
3.75461
10.7974
10.3705
10.1672
9.91248
9.64773
9.37064
9.1102
8.83026
8.51052
8.2175
7.9791
7.80904
7.57839
7.27307
6.96287
6.76425
6.58059
6.35887
6.13656
5.91312
5.67904
5.46471
5.28182
5.11328
4.94522
4.77392
4.59891
4.42651
4.26691
4.12263
3.98794
3.8545
3.71505
3.57554
3.44523
3.32611
3.22221
3.13108
3.04339
2.94813
2.83799
2.71553
2.60947
2.53075
2.4676
2.40922
2.34829
2.29086
2.23759
2.17341
2.19563
2.38892
2.77409
3.20905
3.53193
3.57434
3.5071
3.36552
3.29407
3.26612
3.25834
3.25351
3.21909
3.16684
3.08301
3.01138
2.9708
2.93018
2.90199
2.90218
2.90362
2.96816
3.19979
3.57562
3.99004
4.22967
4.30224
4.37918
4.39214
4.36298
4.30318
4.22285
4.17568
4.15548
4.14652
4.14123
4.12353
4.08701
4.01625
3.94918
3.91475
3.89132
3.87061
3.84887
3.8262
3.7707
10.5284
10.3119
10.178
9.95042
9.70713
9.46365
9.22283
8.95116
8.66828
8.40424
8.16304
7.94916
7.7025
7.40063
7.10824
6.89564
6.72544
6.51541
6.27742
6.04094
5.81608
5.60633
5.41635
5.23713
5.05517
4.86708
4.68024
4.50719
4.35361
4.21442
4.07998
3.94102
3.79118
3.6361
3.49253
3.37276
3.27514
3.18643
3.09739
2.99846
2.88241
2.75221
2.63523
2.55351
2.49583
2.4447
2.39226
2.32978
2.24947
2.15466
2.06216
2.06462
2.18505
2.5087
2.93646
3.35233
3.43528
3.35671
3.25404
3.19197
3.17001
3.1762
3.15479
3.10491
3.02672
2.93278
2.89074
2.86282
2.88764
2.95096
3.15292
3.51703
3.92694
4.23443
4.37441
4.40592
4.4124
4.40629
4.39283
4.35452
4.3143
4.26161
4.20308
4.17854
4.16623
4.14998
4.12245
4.07887
4.01157
3.96021
3.93668
3.91597
3.89605
3.87323
3.8485
3.78554
10.4376
10.2604
10.1315
9.96552
9.77931
9.56498
9.31585
9.04576
8.78081
8.53393
8.31989
8.10497
7.84517
7.54341
7.26629
7.04883
6.86961
6.64782
6.39471
6.12568
5.89776
5.69947
5.50911
5.32281
5.13339
4.93527
4.73708
4.56076
4.40971
4.27127
4.13519
3.99563
3.8472
3.68994
3.53853
3.41242
3.31037
3.21802
3.1257
3.02457
2.9099
2.78726
2.67467
2.58671
2.52198
2.46653
2.41072
2.34557
2.262
2.16541
2.07961
2.00976
1.99777
2.05565
2.28675
2.68476
3.07429
3.28681
3.23983
3.17064
3.12923
3.12122
3.10109
3.05473
2.98305
2.89613
2.86176
2.87751
2.94911
3.27948
3.79062
4.20326
4.4131
4.53748
4.51464
4.43164
4.37456
4.35134
4.34585
4.34661
4.33341
4.30768
4.25388
4.20389
4.16934
4.13805
4.1031
4.05976
4.00788
3.96881
3.94924
3.93176
3.91448
3.89228
3.86625
3.79469
10.4352
10.285
10.1484
9.97922
9.78658
9.56867
9.33394
9.09721
8.8653
8.64325
8.42028
8.17062
7.88843
7.60373
7.3496
7.15355
6.97123
6.73065
6.46044
6.18735
5.96691
5.77955
5.59618
5.41398
5.22354
5.01193
4.79479
4.60682
4.45241
4.31605
4.18593
4.05176
3.90313
3.73912
3.57899
3.44331
3.33368
3.23981
3.15069
3.05486
2.94681
2.83077
2.71971
2.62079
2.53752
2.46975
2.4089
2.34379
2.27071
2.19344
2.11176
2.03754
1.96929
1.92544
1.95218
2.09503
2.41553
2.86509
3.05974
3.09441
3.06828
3.05742
3.03994
2.98901
2.94051
2.91607
2.89398
3.00798
3.43687
4.01821
4.34987
4.55402
4.60789
4.58636
4.5209
4.41717
4.37359
4.35705
4.34976
4.3534
4.33782
4.30975
4.26696
4.21512
4.17096
4.13326
4.09706
4.06184
4.02843
3.99632
3.96953
3.94759
3.92408
3.89577
3.86575
3.79506
10.4401
10.2963
10.1318
9.96795
9.78682
9.58615
9.37421
9.15477
8.92967
8.69794
8.45062
8.188
7.92366
7.67902
7.46271
7.26783
7.03993
6.77187
6.4899
6.23587
6.02819
5.84497
5.66547
5.47411
5.26313
5.03689
4.82701
4.6493
4.49493
4.35635
4.22343
4.08175
3.92355
3.76202
3.61361
3.48138
3.36423
3.2614
3.16705
3.06925
2.96359
2.85614
2.753
2.65349
2.55912
2.47533
2.40501
2.34005
2.27513
2.21025
2.14223
2.0639
1.98549
1.91706
1.87466
1.87816
1.95043
2.20153
2.63256
2.92198
2.96139
2.98024
2.93165
2.89876
2.91897
2.96424
3.21504
3.70991
4.2995
4.52807
4.55803
4.56738
4.56458
4.54095
4.51492
4.47684
4.42768
4.39354
4.36599
4.34306
4.31572
4.28638
4.25458
4.21536
4.17453
4.13801
4.10471
4.07409
4.04408
4.01133
3.97531
3.94257
3.914
3.88468
3.85743
3.79165
10.4356
10.3082
10.1274
9.96829
9.78574
9.59276
9.39055
9.17956
8.96159
8.73045
8.48619
8.23486
7.98891
7.76126
7.55496
7.32657
7.06484
6.79234
6.53901
6.31912
6.11762
5.91606
5.70899
5.4899
5.26693
5.06019
4.87387
4.70509
4.54601
4.39283
4.24045
4.0822
3.92441
3.77972
3.64979
3.52713
3.40521
3.285
3.17179
3.06321
2.96081
2.86788
2.78016
2.68878
2.59246
2.49456
2.40541
2.33067
2.2663
2.20937
2.15486
2.09219
2.02306
1.94378
1.873
1.82007
1.80228
1.8413
2.03354
2.37885
2.78297
2.88562
2.85184
2.89186
3.02246
3.39715
3.94655
4.42388
4.6768
4.70375
4.60037
4.54684
4.53086
4.52499
4.51229
4.49035
4.44202
4.40022
4.3738
4.3498
4.32275
4.29446
4.25986
4.21594
4.17373
4.13813
4.1077
4.07952
4.05042
4.01756
3.97922
3.94116
3.90865
3.8761
3.83954
3.76958
10.4305
10.3196
10.1223
9.96973
9.79196
9.60373
9.40249
9.19023
8.96796
8.73572
8.49849
8.26182
8.02988
7.80362
7.57587
7.3092
7.03671
6.79457
6.58183
6.3832
6.17038
5.94657
5.71185
5.48445
5.27803
5.09012
4.91902
4.75638
4.59266
4.41748
4.23291
4.06362
3.9202
3.79596
3.68257
3.56913
3.44711
3.3107
3.16745
3.04509
2.95104
2.87154
2.79622
2.71594
2.62513
2.52154
2.41306
2.32125
2.25515
2.20392
2.1557
2.10607
2.04914
1.97812
1.88995
1.81253
1.75716
1.73364
1.75774
1.88623
2.20484
2.57766
2.86131
3.21676
3.64053
4.08107
4.44379
4.67164
4.64158
4.60953
4.56753
4.5437
4.53814
4.5412
4.52719
4.50297
4.46139
4.41796
4.39024
4.36159
4.32938
4.2912
4.2469
4.20756
4.17918
4.15535
4.13432
4.11017
4.08317
4.04964
4.004
3.95128
3.9008
3.85379
3.81226
3.76128
10.4121
10.3274
10.123
9.97552
9.79952
9.61163
9.40887
9.19389
8.97016
8.74219
8.51515
8.29055
8.06554
7.82987
7.5673
7.30389
7.05485
6.82838
6.62806
6.42277
6.19313
5.95381
5.70264
5.47634
5.28836
5.11931
4.95926
4.80013
4.62545
4.42172
4.21159
4.03851
3.90954
3.80554
3.70965
3.60982
3.4868
3.32115
3.14621
3.0192
2.93539
2.86755
2.80535
2.74105
2.66006
2.54076
2.40486
2.30593
2.24251
2.19447
2.15122
2.11194
2.06774
2.00222
1.89891
1.80008
1.74003
1.69898
1.68219
1.6997
1.80907
2.14473
2.85137
3.60267
4.28555
4.84652
5.02419
4.92064
4.69634
4.57578
4.53704
4.52365
4.52278
4.54527
4.54774
4.52473
4.4864
4.43861
4.39351
4.35599
4.31939
4.27923
4.24153
4.2132
4.18846
4.1676
4.14612
4.12065
4.09244
4.05586
4.00648
3.94923
3.89154
3.83859
3.80554
3.76709
)
;

boundaryField
{
    inlet
    {
        type            fixedValue;
        value           uniform 1;
    }
    outlet
    {
        type            zeroGradient;
    }
    bottom
    {
        type            symmetryPlane;
    }
    top
    {
        type            symmetryPlane;
    }
    obstacle
    {
        type            zeroGradient;
    }
    defaultFaces
    {
        type            empty;
    }
}


// ************************************************************************* //
