/*--------------------------------*- C++ -*----------------------------------*\
  =========                 |
  \\      /  F ield         | OpenFOAM: The Open Source CFD Toolbox
   \\    /   O peration     | Website:  https://openfoam.org
    \\  /    A nd           | Version:  7
     \\/     M anipulation  |
\*---------------------------------------------------------------------------*/
FoamFile
{
    version     2.0;
    format      ascii;
    class       volScalarField;
    location    "5.5";
    object      rho;
}
// * * * * * * * * * * * * * * * * * * * * * * * * * * * * * * * * * * * * * //

dimensions      [1 -3 0 0 0 0 0];

internalField   nonuniform List<scalar> 
4032
(
1.40001
1.40001
1.40001
1.40001
1.40001
1.40001
1.40001
1.40001
1.40001
1.40001
1.40001
1.58425
4.39925
5.46735
5.51491
5.59045
5.65714
5.7203
5.77821
5.83044
5.87707
5.91471
5.94345
5.96459
1.40001
1.40001
1.40001
1.40001
1.40001
1.40001
1.40001
1.40001
1.40001
1.40001
1.40001
1.56108
4.32932
5.45236
5.50955
5.58353
5.64888
5.71035
5.7665
5.81646
5.86041
5.89533
5.92098
5.94104
1.40001
1.40001
1.40001
1.40001
1.40001
1.40001
1.40001
1.40001
1.40001
1.40001
1.40001
1.50544
4.22006
5.44325
5.4946
5.56759
5.63288
5.69382
5.74904
5.79726
5.83861
5.87055
5.89149
5.90867
1.40001
1.40001
1.40001
1.40001
1.40001
1.40001
1.40001
1.40001
1.40001
1.40001
1.40001
1.4122
4.03902
5.43175
5.47683
5.54263
5.60396
5.66082
5.71299
5.75918
5.79951
5.83032
5.84814
5.8617
1.40001
1.40001
1.40001
1.40001
1.40001
1.40001
1.40001
1.40001
1.40001
1.40001
1.40001
1.40018
3.76229
5.37168
5.42978
5.49325
5.55545
5.61164
5.66167
5.70306
5.73588
5.76089
5.77472
5.79338
1.40001
1.40001
1.40001
1.40001
1.40001
1.40001
1.40001
1.40001
1.40001
1.40001
1.40001
1.4
3.40379
5.28786
5.39043
5.44879
5.50754
5.55664
5.59865
5.63356
5.66213
5.68599
5.69525
5.68622
1.40001
1.40001
1.40001
1.40001
1.40001
1.40001
1.40001
1.40001
1.40001
1.40001
1.40001
1.4
2.98275
5.16988
5.36141
5.4112
5.45834
5.49383
5.52098
5.54094
5.54837
5.53686
5.51792
5.50981
1.40001
1.40001
1.40001
1.40001
1.40001
1.40001
1.40001
1.40001
1.40001
1.40001
1.40001
1.40001
2.50836
5.01009
5.36938
5.39387
5.42129
5.43842
5.44398
5.44172
5.42333
5.39281
5.3372
5.31161
1.40001
1.40001
1.40001
1.40001
1.40001
1.40001
1.40001
1.40001
1.40001
1.40001
1.40001
1.40001
1.98866
4.76967
5.40077
5.37717
5.3879
5.38581
5.36972
5.34042
5.28041
5.17605
4.86223
4.01807
1.40001
1.40001
1.40001
1.40001
1.40001
1.40001
1.40001
1.40001
1.40001
1.40001
1.40001
1.40001
1.49937
4.35102
5.42515
5.36746
5.34456
5.31647
5.27756
5.21824
5.11657
4.92763
4.59948
3.70346
1.40001
1.40001
1.40001
1.40001
1.40001
1.40001
1.40001
1.40001
1.40001
1.40001
1.40001
1.40001
1.40128
3.63854
5.18499
5.24213
5.25381
5.22609
5.17764
5.094
4.96312
4.72991
4.3862
3.56851
1.40001
1.40001
1.40001
1.40001
1.40001
1.40001
1.40001
1.40001
1.40001
1.40001
1.40001
1.40001
1.39998
2.81997
4.99535
5.20138
5.19984
5.16676
5.10531
4.99795
4.83861
4.59379
4.21335
3.54643
1.40001
1.40001
1.40001
1.40001
1.40001
1.40001
1.40001
1.40001
1.40001
1.40001
1.40001
1.40001
1.4
1.99834
4.73363
5.20679
5.15704
5.09961
5.02343
4.9038
4.72924
4.48597
4.09999
3.56922
1.40001
1.40001
1.40001
1.40001
1.40001
1.40001
1.40001
1.40001
1.40001
1.40001
1.40001
1.40001
1.4
1.47736
4.00784
5.10626
5.0781
5.02541
4.94411
4.8215
4.64968
4.40423
4.04508
3.62143
1.40001
1.40001
1.40001
1.40001
1.40001
1.40001
1.40001
1.40001
1.40001
1.40001
1.40001
1.40001
1.4
1.40037
2.93387
4.93978
5.04126
4.98857
4.89904
4.75895
4.58719
4.33762
4.02087
3.66915
1.40001
1.40001
1.40001
1.40001
1.40001
1.40001
1.40001
1.40001
1.40001
1.40001
1.40001
1.40001
1.40001
1.4
1.82665
4.68665
5.10091
4.97007
4.85024
4.70266
4.51613
4.29118
4.01981
3.71629
1.40001
1.40001
1.40001
1.40001
1.40001
1.40001
1.40001
1.40001
1.40001
1.40001
1.40001
1.40001
1.40001
1.4
1.42769
3.76302
4.95793
4.86923
4.7764
4.64007
4.46651
4.26069
4.01994
3.75175
1.40001
1.40001
1.40001
1.40001
1.40001
1.40001
1.40001
1.40001
1.40001
1.40001
1.40001
1.40001
1.40001
1.4
1.39995
2.47015
4.76204
4.84587
4.77204
4.64062
4.46808
4.26279
4.03014
3.78548
1.40001
1.40001
1.40001
1.40001
1.40001
1.40001
1.40001
1.40001
1.40001
1.40001
1.40001
1.40001
1.40001
1.40001
1.39999
1.57687
4.01959
4.86045
4.76802
4.62908
4.45828
4.26252
4.04538
3.8204
1.40001
1.40001
1.40001
1.40001
1.40001
1.40001
1.40001
1.40001
1.40001
1.40001
1.40001
1.40001
1.40001
1.40001
1.4
1.40334
2.71358
4.67393
4.73913
4.60609
4.44912
4.26601
4.06685
3.8599
1.40001
1.40001
1.40001
1.40001
1.40001
1.40001
1.40001
1.40001
1.40001
1.40001
1.40001
1.40001
1.40001
1.40001
1.4
1.4
1.65852
4.03069
4.77236
4.61682
4.46148
4.28074
4.09292
3.89975
1.40001
1.40001
1.40001
1.40001
1.40001
1.40001
1.40001
1.40001
1.40001
1.40001
1.40001
1.40001
1.40001
1.40001
1.40001
1.4
1.40788
2.67936
4.58205
4.60287
4.45841
4.28966
4.11474
3.93761
1.40001
1.40001
1.40001
1.40001
1.40001
1.40001
1.40001
1.40001
1.40001
1.40001
1.40001
1.40001
1.40001
1.40001
1.40001
1.40001
1.40003
1.63814
3.83827
4.66074
4.49201
4.33072
4.16028
3.98942
1.40001
1.40001
1.40001
1.40001
1.40001
1.40001
1.40001
1.40001
1.40001
1.40001
1.40001
1.40001
1.40001
1.40001
1.40001
1.40001
1.40001
1.40693
2.38472
4.34723
4.51536
4.36826
4.20335
4.03147
1.40001
1.40001
1.40001
1.40001
1.40001
1.40001
1.40001
1.40001
1.40001
1.40001
1.40001
1.40001
1.40001
1.40001
1.40001
1.40001
1.40001
1.40004
1.53382
3.3709
4.54488
4.42438
4.26547
4.09773
1.40001
1.40001
1.40001
1.40001
1.40001
1.40001
1.40001
1.40001
1.40001
1.40001
1.40001
1.40001
1.40001
1.40001
1.40001
1.40001
1.40001
1.40001
1.40257
1.99523
4.03925
4.46147
4.31223
4.14979
1.40001
1.40001
1.40001
1.40001
1.40001
1.40001
1.40001
1.40001
1.40001
1.40001
1.40001
1.40001
1.40001
1.40001
1.40001
1.40001
1.40001
1.40001
1.40002
1.44585
2.72161
4.27366
4.35566
4.21458
1.40001
1.40001
1.40001
1.40001
1.40001
1.40001
1.40001
1.40001
1.40001
1.40001
1.40001
1.40001
1.40001
1.40001
1.40001
1.40001
1.40001
1.40001
1.40001
1.40062
1.64302
3.41382
4.36677
4.26033
1.40001
1.40001
1.40001
1.40001
1.40001
1.40001
1.40001
1.40001
1.40001
1.40001
1.40001
1.40001
1.40001
1.40001
1.40001
1.40001
1.40001
1.40001
1.40001
1.40001
1.40833
2.04423
3.8803
4.24097
1.40001
1.40001
1.40001
1.40001
1.40001
1.40001
1.40001
1.40001
1.40001
1.40001
1.40001
1.40001
1.40001
1.40001
1.40001
1.40001
1.40001
1.40001
1.40001
1.40001
1.40007
1.45473
2.49103
4.47445
1.40001
1.40001
1.40001
1.40001
1.40001
1.40001
1.40001
1.40001
1.40001
1.40001
1.40001
1.40001
1.40001
1.40001
1.40001
1.40001
1.40001
1.40001
1.40001
1.40001
1.40001
1.40084
1.59392
4.83529
1.40001
1.40001
1.40001
1.40001
1.40001
1.40001
1.40001
1.40001
1.40001
1.40001
1.40001
1.40001
1.40001
1.40001
1.40001
1.40001
1.40001
1.40001
1.40001
1.40001
1.40001
1.40001
1.56984
4.61218
1.40001
1.40001
1.40001
1.40001
1.40001
1.40001
1.40001
1.40001
1.40001
1.40001
1.40001
1.40001
1.40001
1.40001
1.40001
1.40001
1.40001
1.40001
1.40001
1.40001
1.40001
1.40001
1.62316
4.47607
1.40001
1.40001
1.40001
1.40001
1.40001
1.40001
1.40001
1.40001
1.40001
1.40001
1.40001
1.40001
1.40001
1.40001
1.40001
1.40001
1.40001
1.40001
1.40001
1.40001
1.40001
1.40001
1.59923
4.38605
1.40001
1.40001
1.40001
1.40001
1.40001
1.40001
1.40001
1.40001
1.40001
1.40001
1.40001
1.40001
1.40001
1.40001
1.40001
1.40001
1.40001
1.40001
1.40001
1.40001
1.40001
1.40001
1.53763
4.29244
1.40001
1.40001
1.40001
1.40001
1.40001
1.40001
1.40001
1.40001
1.40001
1.40001
1.40001
1.40001
1.40001
1.40001
1.40001
1.40001
1.40001
1.40001
1.40001
1.40001
1.40001
1.40001
1.44932
4.17749
1.40001
1.40001
1.40001
1.40001
1.40001
1.40001
1.40001
1.40001
1.40001
1.40001
1.40001
1.40001
1.40001
1.40001
1.40001
1.40001
1.40001
1.40001
1.40001
1.40001
1.40001
1.40001
1.40201
4.07965
1.40001
1.40001
1.40001
1.40001
1.40001
1.40001
1.40001
1.40001
1.40001
1.40001
1.40001
1.40001
1.40001
1.40001
1.40001
1.40001
1.40001
1.40001
1.40001
1.40001
1.40001
1.40001
1.40002
3.96712
1.40001
1.40001
1.40001
1.40001
1.40001
1.40001
1.40001
1.40001
1.40001
1.40001
1.40001
1.40001
1.40001
1.40001
1.40001
1.40001
1.40001
1.40001
1.40001
1.40001
1.40001
1.40001
1.40001
3.89015
1.40001
1.40001
1.40001
1.40001
1.40001
1.40001
1.40001
1.40001
1.40001
1.40001
1.40001
1.40001
1.40001
1.40001
1.40001
1.40001
1.40001
1.40001
1.40001
1.40001
1.40001
1.40001
1.40001
3.85352
1.34903
0.500886
0.194611
0.190146
0.217217
0.306742
0.406235
0.487516
0.597766
0.691914
0.781946
0.842466
0.887667
0.929623
0.968261
1.00576
1.03977
1.0469
1.04291
1.04791
1.05844
1.06749
2.13815
2.71211
2.80072
2.868
2.90751
2.91803
2.91236
2.90171
2.90395
2.92035
2.93734
2.94606
2.93847
2.91141
2.87624
2.84837
2.83405
2.83171
2.83572
2.82845
2.79664
2.75817
2.7255
2.70185
2.68904
2.68423
2.67413
2.64944
2.61985
2.59217
2.5684
2.54872
2.52903
2.50526
2.47808
2.45133
2.42861
2.40888
2.38516
2.35902
2.33198
2.3036
2.27767
2.25403
2.23295
2.21136
2.18813
2.16341
2.13524
2.10376
2.07529
2.05402
2.03662
2.02464
2.01318
1.99427
1.97049
1.93739
1.89766
1.86404
1.84051
1.82227
1.8061
1.79051
1.77426
1.75538
1.73343
1.71527
1.7029
1.69098
1.67722
1.65879
1.63202
1.5898
1.98508
1.24047
0.862232
0.666008
0.585723
0.569571
0.576718
0.572727
0.566103
0.586136
0.635933
0.705642
0.778951
0.844145
0.902826
0.950275
0.999025
1.04608
1.0547
1.05957
1.06089
1.0608
2.01454
2.78982
2.89822
2.92953
2.93034
2.93459
2.94514
2.95209
2.9483
2.9401
2.93201
2.93255
2.94211
2.94709
2.92704
2.88949
2.8542
2.82994
2.82336
2.8294
2.82414
2.7945
2.75573
2.71859
2.69021
2.67356
2.67001
2.66381
2.64124
2.6107
2.57988
2.55133
2.52804
2.51143
2.49614
2.47502
2.447
2.41559
2.38362
2.3553
2.33118
2.30734
2.2833
2.26009
2.23723
2.21448
2.19218
2.16956
2.14589
2.12052
2.09252
2.06413
2.04067
2.02242
2.00601
1.99125
1.97171
1.94611
1.91661
1.8853
1.85546
1.83128
1.81226
1.79506
1.77762
1.75834
1.73579
1.71311
1.69728
1.68592
1.67565
1.6609
1.64155
1.60466
2.47985
1.79071
1.41299
1.17528
0.967837
0.793932
0.738243
0.716209
0.678514
0.651811
0.662811
0.709144
0.761303
0.803065
0.856583
0.915357
0.96626
1.03668
1.08403
1.10381
1.10796
1.11434
1.85007
3.01626
3.17406
3.09612
3.0429
3.01646
3.01926
3.05673
3.08605
3.07293
3.04289
3.01332
2.99825
3.00603
3.01777
3.00344
2.96859
2.92578
2.89286
2.87541
2.87176
2.86321
2.83926
2.80596
2.76346
2.72815
2.70426
2.69538
2.68862
2.66805
2.63964
2.60393
2.5702
2.54559
2.53095
2.52218
2.50108
2.47225
2.43642
2.39341
2.35683
2.33215
2.3103
2.28954
2.26637
2.23971
2.20922
2.18184
2.16214
2.1455
2.12714
2.10517
2.07612
2.04067
2.00907
1.98603
1.96754
1.9513
1.93396
1.91549
1.89211
1.86395
1.83762
1.81604
1.79695
1.77792
1.75613
1.72979
1.70336
1.68283
1.66604
1.6523
1.64467
1.62323
2.83685
2.26379
1.82108
1.56405
1.3724
1.16589
0.976821
0.928057
0.908267
0.869789
0.823211
0.781564
0.764383
0.770258
0.789093
0.827805
0.87936
0.952841
1.02249
1.05916
1.09203
1.1632
1.59285
3.14691
3.50144
3.37152
3.25017
3.18712
3.17093
3.17832
3.20365
3.19929
3.17737
3.142
3.11161
3.09675
3.09322
3.09081
3.07184
3.0441
3.00637
2.9743
2.95199
2.93342
2.91365
2.88783
2.85708
2.8186
2.78616
2.76394
2.74745
2.72718
2.7021
2.67202
2.63874
2.61129
2.59076
2.57389
2.55198
2.52728
2.49813
2.46005
2.41706
2.38318
2.35951
2.33814
2.31643
2.29256
2.26367
2.23115
2.20223
2.18115
2.16295
2.14371
2.1192
2.08568
2.04889
2.01917
1.99705
1.97886
1.96182
1.94454
1.92449
1.89827
1.86833
1.84284
1.82314
1.80566
1.78753
1.76454
1.73056
1.69389
1.67324
1.66127
1.6541
1.63731
3.04258
2.58981
2.1888
1.87706
1.6729
1.5026
1.31123
1.12126
1.05383
1.02735
0.989093
0.940679
0.879971
0.816333
0.800665
0.80557
0.820955
0.849476
0.899152
0.934353
1.03505
1.29863
1.54072
2.51817
3.45688
3.5682
3.47234
3.35989
3.29324
3.28074
3.2893
3.30202
3.2902
3.26866
3.23191
3.19862
3.18084
3.17067
3.16451
3.14716
3.12011
3.08029
3.04224
3.01544
2.9912
2.96812
2.94266
2.9137
2.88062
2.84963
2.82339
2.79754
2.77018
2.74139
2.71344
2.68789
2.66347
2.63918
2.61425
2.58718
2.55725
2.52356
2.4858
2.44862
2.41773
2.39171
2.36743
2.34331
2.31804
2.29061
2.26295
2.23757
2.21304
2.18683
2.15716
2.12453
2.09222
2.06425
2.04231
2.02431
2.00709
1.9885
1.96603
1.93668
1.90236
1.87274
1.85205
1.83508
1.81808
1.79772
1.76729
1.72584
1.6985
1.68618
1.67752
1.65954
3.20104
2.81702
2.47553
2.16492
1.9022
1.7315
1.58716
1.42861
1.2538
1.14283
1.12509
1.10645
1.06051
0.984612
0.897405
0.86332
0.853668
0.859473
0.876882
0.961602
1.16577
1.48432
1.58355
1.78034
2.69789
3.47319
3.57897
3.50966
3.39014
3.34263
3.33308
3.34894
3.35455
3.33369
3.29904
3.24861
3.22123
3.20656
3.20631
3.2017
3.17997
3.14515
3.09937
3.06659
3.0426
3.02437
3.0057
2.97981
2.94775
2.90898
2.87378
2.84509
2.81942
2.7959
2.77231
2.74517
2.71337
2.68148
2.65368
2.62784
2.60219
2.5752
2.54402
2.5068
2.46953
2.43992
2.41517
2.39143
2.36728
2.34188
2.31455
2.28567
2.25644
2.22711
2.19807
2.17007
2.1423
2.11337
2.08574
2.06366
2.04498
2.02554
2.00257
1.97444
1.94185
1.9101
1.88665
1.86972
1.85345
1.83493
1.80998
1.77358
1.73374
1.71212
1.70145
1.68532
3.31505
2.97615
2.67016
2.4017
2.1447
1.90555
1.75583
1.65076
1.51593
1.36046
1.23631
1.19797
1.17722
1.12894
1.05338
0.970656
0.919438
0.92208
0.973252
1.16409
1.44098
1.57037
1.5674
1.56873
1.75
2.62718
3.45613
3.57156
3.45673
3.38636
3.35666
3.35885
3.37765
3.36033
3.3324
3.28178
3.24307
3.22447
3.22104
3.22545
3.20865
3.18057
3.13838
3.10201
3.07911
3.06326
3.04746
3.02125
2.98906
2.94591
2.90482
2.87791
2.85523
2.83481
2.81183
2.78413
2.74791
2.70762
2.67727
2.65404
2.63195
2.60866
2.5814
2.54646
2.506
2.47266
2.44852
2.42708
2.40549
2.38162
2.35217
2.31556
2.27895
2.24984
2.2265
2.20536
2.18349
2.15761
2.126
2.09399
2.06826
2.04607
2.02372
2.0003
1.97475
1.94549
1.91624
1.89491
1.87841
1.86171
1.84233
1.81689
1.78215
1.74481
1.72239
1.71263
3.40979
3.11136
2.81836
2.56536
2.3502
2.12973
1.91481
1.77933
1.68806
1.57514
1.44038
1.31937
1.26615
1.23291
1.18142
1.11503
1.09345
1.14438
1.29837
1.56192
1.67734
1.67071
1.64942
1.62637
1.63045
1.78414
2.56882
3.36927
3.49323
3.4296
3.38979
3.36085
3.37493
3.36817
3.34859
3.31304
3.26936
3.24395
3.23172
3.23261
3.22112
3.19725
3.16379
3.12472
3.09865
3.07897
3.06177
3.03722
3.00781
2.96883
2.92668
2.89892
2.87765
2.85723
2.83364
2.80673
2.77143
2.72786
2.69219
2.66821
2.64719
2.62541
2.60073
2.57017
2.53253
2.49607
2.46948
2.44808
2.42692
2.4033
2.37248
2.33011
2.28838
2.26296
2.24517
2.22817
2.21019
2.18866
2.15806
2.11667
2.08007
2.05602
2.03715
2.01956
2.00102
1.9778
1.94694
1.91582
1.89363
1.8764
1.86005
1.84206
1.81899
1.78697
1.75271
1.75473
3.4804
3.21418
2.95083
2.69936
2.48987
2.3066
2.10389
1.92806
1.8073
1.7164
1.61441
1.48813
1.37902
1.31537
1.28013
1.28189
1.35849
1.50528
1.70281
1.8395
1.8269
1.79847
1.76262
1.73076
1.7122
1.72403
1.84561
2.469
3.19345
3.44255
3.4413
3.39526
3.37456
3.36406
3.35808
3.34002
3.30805
3.27297
3.25271
3.24098
3.23034
3.20997
3.18406
3.14781
3.11215
3.08824
3.06728
3.04548
3.01994
2.98953
2.95114
2.91637
2.89231
2.86949
2.84608
2.82099
2.79098
2.75278
2.71157
2.67976
2.65601
2.63366
2.61029
2.58404
2.5526
2.51668
2.48363
2.45763
2.43464
2.41081
2.38149
2.34096
2.29771
2.27197
2.25495
2.23892
2.22296
2.20516
2.17877
2.13392
2.08647
2.06141
2.04644
2.03248
2.01767
1.99959
1.9734
1.93713
1.9042
1.88191
1.86466
1.85001
1.83669
1.82195
1.80179
1.84835
3.53829
3.29463
3.06072
2.82648
2.61275
2.4387
2.2701
2.08834
1.93812
1.83206
1.7384
1.63557
1.51772
1.43597
1.45609
1.58397
1.77302
1.89673
1.99806
1.99432
1.96866
1.94956
1.92158
1.8782
1.8477
1.82767
1.83282
1.90354
2.33346
3.00169
3.36765
3.42454
3.40542
3.37788
3.37435
3.36963
3.3492
3.31553
3.28113
3.2599
3.24311
3.22668
3.20439
3.1738
3.132
3.09891
3.07598
3.05543
3.03447
3.0099
2.97827
2.93799
2.90221
2.87642
2.85332
2.83039
2.80592
2.77604
2.73668
2.69495
2.66365
2.6395
2.61683
2.5935
2.56705
2.53424
2.49638
2.46273
2.43601
2.4115
2.38535
2.35457
2.31745
2.28103
2.25886
2.24424
2.23027
2.21295
2.1882
2.15139
2.10531
2.06973
2.05064
2.03591
2.02151
2.0063
1.9882
1.95933
1.91704
1.88417
1.8702
1.85935
1.85654
1.85949
1.88357
2.04205
3.59176
3.36352
3.14891
2.93989
2.72978
2.54758
2.39881
2.23573
2.08347
1.94884
1.82965
1.74557
1.6757
1.69811
1.8285
2.08051
2.17067
2.15899
2.14048
2.10552
2.0874
2.08648
2.06589
2.02137
1.97234
1.94911
1.93182
1.92535
1.95888
2.2078
2.7837
3.24858
3.3869
3.41301
3.40384
3.40953
3.38757
3.35674
3.31013
3.28033
3.26193
3.24831
3.22834
3.2
3.15658
3.11331
3.08842
3.06913
3.053
3.03169
3.00356
2.96214
2.91485
2.88366
2.86113
2.83997
2.81832
2.79365
2.76076
2.71722
2.67631
2.64764
2.62465
2.60252
2.57854
2.54865
2.50906
2.46702
2.43553
2.41179
2.39049
2.36892
2.34246
2.30721
2.26923
2.23862
2.21662
2.19844
2.1804
2.15933
2.1309
2.09424
2.05995
2.03941
2.0269
2.01539
1.9986
1.97201
1.93801
1.90446
1.88215
1.87336
1.88358
1.93805
2.05426
2.26617
3.64583
3.43166
3.23002
3.03596
2.8406
2.66087
2.50675
2.3528
2.20103
2.05986
1.95669
1.90753
1.98326
2.13001
2.33058
2.46182
2.43553
2.35446
2.27636
2.24414
2.22896
2.22308
2.20355
2.16169
2.10827
2.07721
2.05888
2.03207
2.00366
2.00827
2.11919
2.53435
3.06216
3.31971
3.39901
3.44635
3.43031
3.3951
3.33745
3.29833
3.28066
3.27088
3.2551
3.22817
3.18604
3.13639
3.10852
3.08993
3.07506
3.05402
3.02675
2.98526
2.93061
2.89376
2.87144
2.8507
2.82943
2.80635
2.77778
2.73885
2.69548
2.66124
2.63554
2.6123
2.58817
2.55968
2.52142
2.4741
2.43577
2.41384
2.39766
2.38139
2.36237
2.3343
2.28904
2.23988
2.20803
2.18774
2.17139
2.15687
2.14193
2.12164
2.09115
2.05415
2.02053
1.99692
1.98011
1.96498
1.95196
1.93539
1.91486
1.92958
2.00133
2.15012
2.28502
2.39885
3.70012
3.49841
3.30695
3.12323
2.94069
2.77021
2.59992
2.44833
2.31045
2.1909
2.19343
2.32163
2.49638
2.58981
2.64306
2.63641
2.58468
2.50809
2.4309
2.40722
2.37745
2.35238
2.33004
2.28932
2.23385
2.19199
2.16515
2.14138
2.10681
2.06399
2.05785
2.09482
2.33669
2.82789
3.21625
3.38207
3.45414
3.43014
3.37305
3.31504
3.29438
3.28575
3.27535
3.25111
3.21449
3.16372
3.13003
3.11106
3.09424
3.07253
3.04538
3.00456
2.94953
2.90993
2.88524
2.86273
2.84007
2.8161
2.78834
2.75382
2.71474
2.67916
2.64958
2.62282
2.59614
2.56697
2.53145
2.48824
2.44706
2.42029
2.40356
2.38833
2.37253
2.35151
2.31533
2.25991
2.21022
2.18374
2.1678
2.15486
2.14507
2.13356
2.11551
2.07861
2.02497
1.98925
1.97423
1.96747
1.96946
1.98222
2.02375
2.1282
2.28298
2.40658
2.48141
2.48903
3.75387
3.56501
3.38138
3.20729
3.03071
2.86263
2.68946
2.55217
2.46084
2.50868
2.69418
2.91394
2.92145
2.8844
2.83546
2.77365
2.72849
2.67036
2.58899
2.55951
2.5273
2.4832
2.4552
2.41798
2.36291
2.31673
2.27867
2.24585
2.21909
2.17761
2.13019
2.08608
2.09173
2.21142
2.59198
3.04849
3.33279
3.42405
3.40826
3.34332
3.31678
3.2998
3.28973
3.26995
3.24121
3.1942
3.15127
3.12885
3.10829
3.08506
3.05732
3.01889
2.97142
2.93233
2.90331
2.8778
2.85281
2.82655
2.79733
2.76423
2.72879
2.69447
2.66289
2.63302
2.60338
2.57266
2.54013
2.50585
2.46985
2.43371
2.40534
2.38804
2.37333
2.35561
2.32948
2.28967
2.23761
2.19311
2.16897
2.15563
2.1475
2.13819
2.12253
2.09412
2.04732
1.9999
1.98497
1.98695
2.01594
2.09433
2.23456
2.38445
2.52873
2.57741
2.58089
2.54586
3.81301
3.63321
3.45548
3.28071
3.1103
2.94165
2.80266
2.77361
2.89323
3.08247
3.25801
3.26836
3.15702
3.04434
2.98091
2.93882
2.90265
2.84241
2.74729
2.6869
2.6579
2.61297
2.57899
2.54208
2.48907
2.42755
2.38702
2.34707
2.31174
2.28016
2.23452
2.17783
2.12307
2.12063
2.1653
2.39514
2.82032
3.20904
3.34787
3.35341
3.34244
3.32544
3.30999
3.28699
3.26296
3.22143
3.17493
3.14239
3.11699
3.09173
3.06326
3.02938
2.99282
2.95748
2.9245
2.89448
2.86649
2.83825
2.80803
2.77531
2.74066
2.70571
2.67186
2.63928
2.60783
2.57799
2.55053
2.52415
2.49473
2.45835
2.41834
2.38534
2.36246
2.34456
2.32556
2.30215
2.2719
2.23676
2.1977
2.16022
2.1345
2.11839
2.10552
2.09018
2.07042
2.04379
2.04534
2.08026
2.17895
2.33219
2.47853
2.5467
2.61027
2.634
2.62655
2.58323
3.86173
3.69192
3.51878
3.33827
3.18674
3.04925
3.10136
3.33155
3.50029
3.56112
3.57862
3.47545
3.33178
3.20577
3.13052
3.09636
3.06537
3.00228
2.908
2.81631
2.78115
2.74362
2.7055
2.66382
2.61163
2.54082
2.48765
2.45468
2.41587
2.38111
2.34371
2.29133
2.23039
2.17388
2.15139
2.16568
2.2742
2.58688
2.99148
3.23203
3.2933
3.34163
3.34299
3.30983
3.27995
3.24031
3.20021
3.16034
3.12551
3.09605
3.06819
3.04105
3.01395
2.98321
2.94719
2.90959
2.87558
2.84557
2.81736
2.78848
2.75673
2.72094
2.68257
2.64449
2.60999
2.58187
2.55904
2.53764
2.51408
2.48449
2.44479
2.39874
2.35989
2.33305
2.31342
2.29647
2.28246
2.26675
2.23646
2.18309
2.1369
2.11332
2.09671
2.08829
2.09693
2.13233
2.21072
2.34218
2.49781
2.58369
2.61694
2.62913
2.64805
2.66597
2.65962
2.6245
3.92474
3.76117
3.57475
3.42416
3.34983
3.48
3.77645
3.96263
3.87485
3.79481
3.74147
3.6366
3.51087
3.38903
3.29558
3.24877
3.21435
3.1546
3.06758
2.96764
2.91752
2.87851
2.83432
2.78696
2.72454
2.65691
2.59036
2.55068
2.51824
2.47888
2.44018
2.39449
2.33756
2.27752
2.22403
2.18796
2.18726
2.22109
2.38645
2.72244
3.04895
3.24891
3.30938
3.3227
3.29521
3.26177
3.22926
3.18366
3.13417
3.09488
3.07296
3.05414
3.03351
3.00715
2.97046
2.92411
2.8798
2.84681
2.82118
2.79695
2.76992
2.73747
2.69784
2.65448
2.61657
2.58726
2.56306
2.54117
2.51961
2.49706
2.46762
2.42449
2.37041
2.33018
2.31104
2.30131
2.29346
2.27805
2.25231
2.2124
2.16233
2.12057
2.10914
2.12085
2.1865
2.32721
2.48422
2.62196
2.72187
2.73494
2.72193
2.70286
2.69431
2.69272
2.68523
2.65767
3.98262
3.81204
3.64411
3.65756
3.89568
4.19604
4.3771
4.29889
4.0972
3.94722
3.87062
3.8
3.69096
3.57347
3.46908
3.39973
3.35816
3.30563
3.22305
3.12266
3.05642
3.01227
2.96333
2.91207
2.84514
2.76543
2.70515
2.65684
2.61892
2.58156
2.53797
2.4912
2.43468
2.37242
2.32008
2.27201
2.22913
2.2079
2.207
2.26564
2.48159
2.82604
3.11069
3.24686
3.28255
3.28712
3.25973
3.20788
3.14222
3.09616
3.07876
3.06355
3.0478
3.02537
2.991
2.93852
2.88334
2.84755
2.82205
2.79797
2.77268
2.74533
2.71043
2.66849
2.63068
2.59866
2.56949
2.54678
2.53089
2.5096
2.47914
2.4393
2.39746
2.36172
2.32752
2.29441
2.26601
2.24701
2.23222
2.21816
2.19638
2.17185
2.19143
2.27192
2.43883
2.6059
2.71049
2.79597
2.82268
2.81283
2.79528
2.7713
2.74082
2.72245
2.7096
2.68285
4.04961
3.89187
3.99272
4.3717
4.64322
4.69255
4.63704
4.47048
4.27312
4.11362
4.03706
3.98217
3.8756
3.75759
3.66153
3.57556
3.51705
3.46268
3.37927
3.27662
3.2018
3.14884
3.09718
3.03983
2.97501
2.89145
2.81682
2.76691
2.72234
2.67964
2.63494
2.5836
2.52366
2.45895
2.39918
2.35316
2.30952
2.25952
2.2257
2.20255
2.21165
2.30569
2.56418
2.89024
3.12759
3.23181
3.24031
3.2165
3.14922
3.10406
3.08488
3.07364
3.0633
3.04073
3.0048
2.94806
2.89161
2.85651
2.82736
2.79823
2.77314
2.74959
2.7157
2.67409
2.64483
2.62018
2.59268
2.5564
2.50992
2.47286
2.44403
2.42207
2.4056
2.38523
2.35043
2.29866
2.25835
2.23961
2.23309
2.23392
2.25141
2.31276
2.44186
2.60609
2.76456
2.80594
2.83349
2.85593
2.86566
2.85807
2.84513
2.82771
2.79814
2.76384
2.74011
2.71927
4.14655
4.36625
4.887
5.16913
5.07988
4.94038
4.79165
4.62768
4.45857
4.30813
4.22351
4.16104
4.05823
3.93468
3.84684
3.75793
3.68001
3.61447
3.52961
3.42081
3.34356
3.28232
3.22391
3.16321
3.0942
3.01701
2.93342
2.86849
2.82067
2.77415
2.72585
2.67324
2.61103
2.5406
2.47588
2.42374
2.3785
2.33441
2.28684
2.23575
2.20765
2.17451
2.19183
2.34411
2.6388
2.95353
3.13001
3.14604
3.13524
3.11789
3.08982
3.06547
3.03462
2.9977
2.96365
2.92881
2.89638
2.86746
2.84124
2.8088
2.75897
2.70264
2.68317
2.6741
2.65865
2.63795
2.60778
2.56686
2.5056
2.4505
2.43016
2.41918
2.40699
2.38816
2.35891
2.32155
2.28257
2.26063
2.26327
2.30573
2.43203
2.62316
2.78282
2.91397
2.94903
2.92596
2.90728
2.89941
2.89959
2.90136
2.89079
2.87541
2.84608
2.80392
2.78262
2.76537
4.77974
5.40461
5.66658
5.537
5.28565
5.09349
4.95057
4.82045
4.67066
4.52055
4.42448
4.34853
4.24621
4.11624
4.02336
3.93818
3.84438
3.76417
3.67937
3.57129
3.48059
3.41415
3.34632
3.28169
3.21191
3.13168
3.04724
2.97114
2.91224
2.86177
2.80973
2.75343
2.69016
2.61868
2.54626
2.48799
2.43744
2.38879
2.34024
2.28704
2.22546
2.17171
2.13943
2.12941
2.18758
2.38948
2.71774
2.91562
3.02853
3.07059
3.07892
3.05692
3.00915
2.94623
2.89267
2.87695
2.86903
2.86024
2.83823
2.80585
2.7512
2.68295
2.64291
2.62923
2.61917
2.61311
2.60031
2.57353
2.51889
2.45146
2.41255
2.39341
2.37476
2.35775
2.34853
2.34207
2.32001
2.32408
2.3912
2.56819
2.76782
2.9
3.00981
3.04448
3.03381
2.9918
2.95678
2.94442
2.9388
2.93795
2.92825
2.91142
2.87919
2.83593
2.81596
2.79562
6.02072
6.05209
5.92418
5.69843
5.45289
5.24221
5.11468
5.00952
4.86773
4.71201
4.60388
4.52016
4.42114
4.29048
4.17992
4.09624
4.00187
3.90979
3.82017
3.71686
3.61037
3.53237
3.46093
3.38802
3.31578
3.23713
3.14982
3.06552
2.99319
2.9308
2.87308
2.81359
2.74924
2.67747
2.59919
2.53258
2.4873
2.44702
2.40098
2.35127
2.28832
2.21717
2.14563
2.09932
2.0706
2.08818
2.19173
2.42075
2.67135
2.85585
2.96292
2.98299
2.96329
2.91358
2.84462
2.80655
2.79233
2.78235
2.77117
2.75376
2.72619
2.67254
2.61565
2.59033
2.57934
2.56706
2.55144
2.53225
2.50053
2.44131
2.39796
2.37371
2.3577
2.34966
2.35084
2.3628
2.4136
2.53752
2.73444
2.92493
3.00234
3.05315
3.08427
3.08038
3.05654
3.02088
2.99226
2.97972
2.97213
2.96728
2.953
2.92992
2.89387
2.85489
2.83292
2.80837
6.54116
6.12508
5.92088
5.72076
5.51092
5.34324
5.24942
5.16564
5.03227
4.88325
4.77706
4.68129
4.57684
4.44257
4.31555
4.2304
4.1408
4.04526
3.94761
3.84166
3.73038
3.63478
3.55752
3.4806
3.40093
3.31857
3.23081
3.14178
3.05892
2.98376
2.91282
2.84218
2.76784
2.69093
2.61929
2.55414
2.49112
2.43288
2.37699
2.31964
2.26205
2.20138
2.1414
2.09604
2.05856
2.03687
2.00927
2.03458
2.15936
2.40726
2.64302
2.82582
2.89002
2.87697
2.82067
2.74826
2.70678
2.69504
2.68994
2.68762
2.67684
2.6539
2.60368
2.55183
2.53039
2.51697
2.50162
2.48358
2.45957
2.42856
2.38151
2.34583
2.34418
2.35056
2.39244
2.52195
2.72749
2.91186
3.07045
3.10347
3.09354
3.09176
3.08823
3.0785
3.05792
3.04213
3.02619
3.00411
2.98532
2.96695
2.94838
2.92398
2.89498
2.87226
2.85437
2.8197
6.0043
5.73145
5.63762
5.55114
5.45568
5.36598
5.30553
5.23029
5.0934
4.94212
4.83478
4.77307
4.6798
4.54885
4.42076
4.33858
4.25423
4.15957
4.06055
3.95049
3.83502
3.73315
3.64662
3.56452
3.48162
3.39514
3.30329
3.20901
3.11925
3.03654
2.95706
2.87799
2.80174
2.72837
2.65582
2.58343
2.51293
2.44427
2.37788
2.31171
2.25115
2.20229
2.16384
2.12103
2.07847
2.02656
1.98503
1.93994
1.93374
1.98896
2.16412
2.40382
2.6248
2.75284
2.75689
2.70658
2.64424
2.61436
2.60586
2.6037
2.60149
2.58932
2.56938
2.52924
2.48737
2.46519
2.4486
2.43043
2.40617
2.38115
2.3578
2.34196
2.35328
2.4309
2.61754
2.86635
3.02497
3.12581
3.15742
3.14771
3.12237
3.09231
3.07717
3.0679
3.06429
3.05494
3.04042
3.01572
2.9794
2.94741
2.92483
2.90875
2.89693
2.88306
2.86834
2.83299
5.60359
5.47892
5.46498
5.42598
5.37407
5.30849
5.23908
5.15323
5.04171
4.93367
4.84351
4.77763
4.68325
4.55277
4.4163
4.32746
4.2439
4.14113
4.0353
3.92663
3.81204
3.70614
3.61372
3.52663
3.43872
3.34824
3.2545
3.16053
3.07182
2.99007
2.91257
2.83515
2.75417
2.67316
2.5975
2.52813
2.46731
2.41417
2.36377
2.30999
2.24817
2.17911
2.11832
2.07221
2.03428
1.99846
1.96147
1.92783
1.89498
1.84897
1.85831
1.9695
2.18543
2.4262
2.60222
2.63534
2.60759
2.54291
2.51414
2.50565
2.50712
2.51137
2.50152
2.48114
2.4406
2.40454
2.38539
2.36595
2.35199
2.35479
2.35809
2.3956
2.52643
2.73508
2.95894
3.08046
3.11226
3.14832
3.15441
3.1398
3.10892
3.06705
3.04267
3.03262
3.02737
3.02351
3.01241
2.99066
2.95064
2.91297
2.89269
2.87827
2.8654
2.85253
2.84005
2.80994
5.43873
5.37127
5.34691
5.29149
5.23224
5.17265
5.11005
5.02989
4.9397
4.85281
4.77119
4.69658
4.60413
4.48334
4.3622
4.27296
4.20011
4.10735
3.9992
3.88951
3.78419
3.68477
3.59258
3.50359
3.41202
3.31631
3.21971
3.12844
3.04578
2.96951
2.89497
2.81772
2.7348
2.64933
2.57029
2.50422
2.45023
2.40133
2.35276
2.29927
2.23641
2.16532
2.10033
2.05398
2.0205
1.99023
1.95897
1.92131
1.8722
1.81529
1.75513
1.75404
1.82313
2.00832
2.24464
2.47079
2.52814
2.49253
2.44784
2.42367
2.41799
2.42708
2.42347
2.40598
2.37091
2.32315
2.30393
2.29399
2.31124
2.35134
2.46681
2.66587
2.88145
3.03928
3.105
3.11415
3.1123
3.10926
3.10335
3.08556
3.06607
3.03948
3.00953
2.99639
2.98887
2.97877
2.9619
2.93595
2.89791
2.86871
2.85426
2.84149
2.82952
2.81673
2.80366
2.77067
5.4053
5.34398
5.3036
5.25112
5.19174
5.12209
5.03913
4.94689
4.85548
4.7706
4.69843
4.62446
4.52948
4.41351
4.30467
4.21815
4.14607
4.05354
3.94453
3.82626
3.72488
3.63536
3.54765
3.45998
3.36928
3.27308
3.1752
3.08624
3.00853
2.93641
2.86504
2.79162
2.71369
2.63133
2.55186
2.48547
2.43181
2.38354
2.33542
2.28247
2.22183
2.15608
2.09466
2.04567
2.00906
1.97742
1.94513
1.90653
1.8564
1.79896
1.74813
1.7047
1.69411
1.72804
1.86296
2.08433
2.2987
2.41873
2.39934
2.37396
2.35914
2.35893
2.35314
2.33561
2.30427
2.2605
2.24935
2.2615
2.30562
2.48807
2.75753
2.96511
3.06237
3.11855
3.105
3.06077
3.03183
3.02051
3.01859
3.01997
3.01474
3.00286
2.97563
2.94899
2.92978
2.91181
2.89142
2.86657
2.83767
2.81548
2.80344
2.79283
2.78281
2.77093
2.75773
2.7218
5.42177
5.36451
5.31525
5.25558
5.18494
5.10172
5.01008
4.91801
4.8297
4.74695
4.6643
4.57102
4.46364
4.3531
4.25269
4.17494
4.10229
4.00425
3.89156
3.77529
3.68011
3.59821
3.51708
3.4352
3.34802
3.2495
3.14694
3.05643
2.98061
2.91289
2.84811
2.78131
2.70717
2.62501
2.54422
2.47511
2.41899
2.37092
2.32557
2.27657
2.22044
2.15893
2.09917
2.04504
1.99853
1.96005
1.92524
1.88753
1.84483
1.79942
1.75131
1.70815
1.66661
1.63929
1.65545
1.7398
1.92196
2.16825
2.27739
2.30394
2.29485
2.29343
2.28709
2.26354
2.24194
2.23636
2.22997
2.29183
2.51587
2.81106
2.97059
3.06544
3.08331
3.0721
3.04064
2.98951
2.96857
2.96136
2.95848
2.96088
2.95446
2.94167
2.92013
2.89306
2.86949
2.84905
2.8293
2.81008
2.79186
2.77438
2.75975
2.74788
2.73566
2.72162
2.70727
2.67368
5.43864
5.38441
5.32278
5.26072
5.1901
5.10884
5.02122
4.93163
4.84175
4.75025
4.65237
4.5484
4.44381
4.34652
4.2596
4.18089
4.08774
3.97752
3.85987
3.75219
3.66343
3.58469
3.50665
3.42231
3.32787
3.22503
3.12806
3.04492
2.97181
2.90553
2.84165
2.77345
2.69672
2.61755
2.54413
2.47827
2.41954
2.36766
2.31979
2.26978
2.215
2.15841
2.10343
2.04966
1.99783
1.95104
1.9112
1.87408
1.83675
1.79924
1.75971
1.71391
1.6683