/*--------------------------------*- C++ -*----------------------------------*\
  =========                 |
  \\      /  F ield         | OpenFOAM: The Open Source CFD Toolbox
   \\    /   O peration     | Website:  https://openfoam.org
    \\  /    A nd           | Version:  7
     \\/     M anipulation  |
\*---------------------------------------------------------------------------*/
FoamFile
{
    version     2.0;
    format      ascii;
    class       volScalarField;
    location    "5.5";
    object      T;
}
// * * * * * * * * * * * * * * * * * * * * * * * * * * * * * * * * * * * * * //

dimensions      [0 0 0 1 0 0 0];

internalField   nonuniform List<scalar> 
4032
(
1
1
1
1
1
1
1
1
1
1
1
1.17194
2.4131
2.71671
2.72689
2.74208
2.75544
2.76815
2.77977
2.79006
2.79905
2.80622
2.81162
2.81553
1
1
1
1
1
1
1
1
1
1
1
1.15429
2.39891
2.71551
2.7262
2.74069
2.75382
2.76628
2.77759
2.78744
2.79588
2.80248
2.80728
2.81099
1
1
1
1
1
1
1
1
1
1
1
1.10065
2.36092
2.71255
2.72304
2.73769
2.75094
2.76337
2.77454
2.78402
2.79189
2.79785
2.80172
2.80488
1
1
1
1
1
1
1
1
1
1
1
1.00724
2.29296
2.7047
2.71819
2.73303
2.74585
2.7575
2.76804
2.77711
2.78472
2.79036
2.79355
2.79596
1
1
1
1
1
1
1
1
1
1
1
1.00006
2.21069
2.68904
2.70772
2.72309
2.73655
2.74824
2.75847
2.76674
2.77291
2.77706
2.77876
2.78154
1
1
1
1
1
1
1
1
1
1
1
1
2.09598
2.67023
2.69856
2.71276
2.72602
2.73696
2.74621
2.75371
2.75929
2.76247
2.76077
2.75516
1
1
1
1
1
1
1
1
1
1
1
1
1.93746
2.63461
2.68269
2.69833
2.71189
2.72213
2.72993
2.73523
2.73687
2.73329
2.72491
2.71765
1
1
1
1
1
1
1
1
1
1
1
1
1.72013
2.56433
2.65598
2.67929
2.6951
2.70547
2.71149
2.71368
2.71082
2.7054
2.69991
2.71092
1
1
1
1
1
1
1
1
1
1
1
1
1.40802
2.44011
2.62973
2.65491
2.67318
2.68477
2.68914
2.68822
2.68
2.66118
2.60933
2.50754
1
1
1
1
1
1
1
1
1
1
1
1
1.05081
2.30754
2.63027
2.63198
2.64229
2.65321
2.65807
2.65497
2.64191
2.60869
2.55104
2.38678
1
1
1
1
1
1
1
1
1
1
1
1
1.0006
2.13862
2.58916
2.5975
2.60843
2.61581
2.62035
2.61592
2.60081
2.56211
2.49765
2.31512
1
1
1
1
1
1
1
1
1
1
1
1
0.999994
1.83043
2.52369
2.58189
2.59016
2.58921
2.5878
2.57965
2.56069
2.52197
2.4487
2.29063
1
1
1
1
1
1
1
1
1
1
1
1
0.999998
1.37128
2.37911
2.56352
2.56348
2.56195
2.55681
2.54431
2.52133
2.48304
2.40879
2.28728
1
1
1
1
1
1
1
1
1
1
1
1
1
1.03789
2.19407
2.52249
2.53306
2.53224
2.52655
2.51248
2.48832
2.44802
2.37918
2.28743
1
1
1
1
1
1
1
1
1
1
1
1
1
1.00022
1.82586
2.43897
2.51107
2.50804
2.50083
2.48388
2.45932
2.41682
2.35648
2.28333
1
1
1
1
1
1
1
1
1
1
1
1
1
0.999999
1.23781
2.27949
2.49142
2.47811
2.47016
2.45495
2.42893
2.39156
2.34
2.27798
1
1
1
1
1
1
1
1
1
1
1
1
1
1
1.0131
2.08202
2.44112
2.43209
2.43067
2.42091
2.40037
2.36884
2.32482
2.27112
1
1
1
1
1
1
1
1
1
1
1
1
1
1
1.00001
1.583
2.32405
2.41271
2.40606
2.39374
2.3743
2.34582
2.30801
2.26242
1
1
1
1
1
1
1
1
1
1
1
1
1
1
0.999998
1.08834
2.11525
2.39074
2.38269
2.36813
2.34755
2.32117
2.28836
2.25016
1
1
1
1
1
1
1
1
1
1
1
1
1
1
0.999999
1.00154
1.664
2.27649
2.36043
2.34189
2.32233
2.29785
2.26899
2.2362
1
1
1
1
1
1
1
1
1
1
1
1
1
1
1
1
1.12938
2.0761
2.33491
2.3161
2.29979
2.27709
2.25088
2.22155
1
1
1
1
1
1
1
1
1
1
1
1
1
1
1
1
1.00351
1.62253
2.20702
2.29304
2.27353
2.25307
2.23074
2.20593
1
1
1
1
1
1
1
1
1
1
1
1
1
1
1
1
1.00001
1.11706
1.98991
2.26815
2.24884
2.23391
2.21485
2.1928
1
1
1
1
1
1
1
1
1
1
1
1
1
1
1
1
1
1.00296
1.47279
2.10149
2.22613
2.20936
2.19336
2.17419
1
1
1
1
1
1
1
1
1
1
1
1
1
1
1
1
1
1.00001
1.06301
1.8276
2.19487
2.18541
2.17207
2.15627
1
1
1
1
1
1
1
1
1
1
1
1
1
1
1
1
1
1
1.00101
1.28832
2.00176
2.16422
2.14666
2.1322
1
1
1
1
1
1
1
1
1
1
1
1
1
1
1
1
1
1
1
1.0201
1.59001
2.05381
2.13453
2.11654
1
1
1
1
1
1
1
1
1
1
1
1
1
1
1
1
1
1
1
1.00021
1.11589
1.79929
2.10424
2.09103
1
1
1
1
1
1
1
1
1
1
1
1
1
1
1
1
1
1
1
1
1.00331
1.29903
1.93097
2.03952
1
1
1
1
1
1
1
1
1
1
1
1
1
1
1
1
1
1
1
1
1.00002
1.02328
1.48272
2.04498
1
1
1
1
1
1
1
1
1
1
1
1
1
1
1
1
1
1
1
1
1
1.00028
1.08827
2.21817
1
1
1
1
1
1
1
1
1
1
1
1
1
1
1
1
1
1
1
1
1
1
1.16295
2.40787
1
1
1
1
1
1
1
1
1
1
1
1
1
1
1
1
1
1
1
1
1
1
1.23231
2.46934
1
1
1
1
1
1
1
1
1
1
1
1
1
1
1
1
1
1
1
1
1
1
1.19191
2.43551
1
1
1
1
1
1
1
1
1
1
1
1
1
1
1
1
1
1
1
1
1
1
1.13226
2.3839
1
1
1
1
1
1
1
1
1
1
1
1
1
1
1
1
1
1
1
1
1
1
1.04644
2.32797
1
1
1
1
1
1
1
1
1
1
1
1
1
1
1
1
1
1
1
1
1
1
1.00128
2.28853
1
1
1
1
1
1
1
1
1
1
1
1
1
1
1
1
1
1
1
1
1
1
1
2.25319
1
1
1
1
1
1
1
1
1
1
1
1
1
1
1
1
1
1
1
1
1
1
1
2.23022
1
1
1
1
1
1
1
1
1
1
1
1
1
1
1
1
1
1
1
1
1
1
1
2.22109
1.68417
1.18267
0.951543
0.960654
1.0241
1.19085
1.34881
1.46931
1.57938
1.60886
1.60786
1.60595
1.63453
1.7142
1.77099
1.76975
1.73774
1.68634
1.67719
1.6979
1.72654
1.73656
2.47761
2.76889
2.81057
2.82579
2.82567
2.81379
2.79247
2.77104
2.75524
2.74492
2.73734
2.72941
2.71728
2.70113
2.68396
2.66973
2.6607
2.65713
2.65593
2.64953
2.63369
2.61511
2.59769
2.58266
2.57109
2.56188
2.54961
2.53215
2.51351
2.49628
2.48149
2.46953
2.4589
2.4477
2.43585
2.42489
2.41591
2.40833
2.39947
2.3892
2.37776
2.36499
2.35242
2.34024
2.32879
2.31706
2.30463
2.29155
2.27703
2.26126
2.2469
2.23572
2.22659
2.22023
2.21401
2.20472
2.19382
2.17924
2.16218
2.14787
2.13764
2.1293
2.12146
2.11327
2.10403
2.09291
2.07994
2.06865
2.05988
2.05112
2.0419
2.03091
2.01702
1.99475
1.91223
1.65672
1.51465
1.3401
1.24206
1.24914
1.27574
1.30639
1.3226
1.33665
1.34958
1.37766
1.43581
1.51373
1.593
1.62094
1.61906
1.61526
1.61545
1.63523
1.66101
1.66089
2.35987
2.74884
2.79375
2.79489
2.78514
2.77216
2.76131
2.74916
2.73257
2.71422
2.69727
2.68626
2.68153
2.67769
2.66574
2.64965
2.63467
2.62326
2.61827
2.61827
2.61369
2.59931
2.58164
2.56376
2.54778
2.5348
2.52637
2.51691
2.50152
2.48389
2.46685
2.45146
2.43902
2.43031
2.42316
2.41462
2.40427
2.39299
2.38134
2.37054
2.3609
2.3508
2.33992
2.32878
2.31736
2.30568
2.2941
2.28251
2.27043
2.25746
2.24345
2.22958
2.21799
2.2086
2.20049
2.19387
2.18538
2.17452
2.16183
2.14834
2.13563
2.12522
2.11657
2.10815
2.09891
2.0881
2.07514
2.06176
2.05168
2.04408
2.03686
2.0273
2.01621
1.99666
2.02563
1.818
1.6885
1.57739
1.46196
1.3446
1.30555
1.29529
1.27958
1.25008
1.2494
1.27404
1.3047
1.33718
1.38513
1.43246
1.46289
1.49698
1.52227
1.54253
1.56025
1.56875
2.1011
2.66366
2.72464
2.70088
2.68068
2.66509
2.65912
2.66284
2.66419
2.64983
2.6276
2.60826
2.59688
2.59604
2.59735
2.59129
2.57906
2.564
2.55208
2.54559
2.54381
2.54027
2.53147
2.51902
2.50202
2.4862
2.47379
2.466
2.45873
2.44623
2.43107
2.41341
2.39702
2.38524
2.37876
2.37551
2.36876
2.35988
2.34813
2.33334
2.32069
2.31218
2.30431
2.29638
2.28698
2.27568
2.26246
2.25026
2.24102
2.23294
2.22413
2.21399
2.20088
2.18509
2.17148
2.1618
2.15416
2.14765
2.14063
2.13321
2.124
2.11274
2.10196
2.0929
2.08444
2.07532
2.06418
2.05022
2.03592
2.02434
2.01439
2.00584
2.00047
1.98847
2.10354
1.9396
1.79596
1.70394
1.62429
1.52316
1.41669
1.38148
1.36875
1.34523
1.3153
1.28396
1.26825
1.27213
1.28363
1.30906
1.34375
1.38982
1.42954
1.44648
1.46534
1.50805
1.75609
2.43315
2.62481
2.59236
2.56143
2.54198
2.53523
2.53593
2.54125
2.53652
2.52483
2.50968
2.49696
2.49039
2.4889
2.48804
2.4829
2.47593
2.46573
2.45671
2.45051
2.44567
2.44049
2.4333
2.42456
2.41289
2.40204
2.39338
2.38576
2.37584
2.36347
2.34922
2.33443
2.32263
2.31438
2.30853
2.30185
2.29499
2.28711
2.27646
2.26387
2.2542
2.24795
2.24216
2.23577
2.22803
2.21777
2.20541
2.1942
2.18619
2.17934
2.17188
2.16227
2.14934
2.1348
2.12255
2.11355
2.1064
2.10027
2.09444
2.08754
2.07812
2.06726
2.05829
2.0516
2.04547
2.03844
2.02844
2.01228
1.99355
1.9824
1.97562
1.97128
1.96226
2.15079
2.02253
1.89871
1.79383
1.71948
1.65237
1.56923
1.47136
1.43085
1.41647
1.39698
1.37096
1.33538
1.29131
1.27773
1.28111
1.29202
1.3106
1.33982
1.36036
1.41808
1.5694
1.67953
2.10169
2.42901
2.51473
2.49142
2.45965
2.44114
2.43801
2.44083
2.4449
2.4418
2.43543
2.42366
2.41294
2.40748
2.40514
2.40462
2.40135
2.39495
2.38397
2.37298
2.36538
2.35887
2.35336
2.34771
2.34109
2.33262
2.32381
2.31546
2.3062
2.29562
2.28418
2.27305
2.26306
2.25399
2.24568
2.23798
2.23043
2.2227
2.21418
2.20443
2.19475
2.18701
2.18069
2.17462
2.16808
2.16052
2.15172
2.14259
2.13416
2.12608
2.11747
2.10752
2.09613
2.08445
2.07428
2.06642
2.06014
2.05432
2.04824
2.04097
2.03134
2.01993
2.01062
2.00503
2.0008
1.99619
1.98935
1.97698
1.95851
1.9456
1.93948
1.93483
1.92539
2.18477
2.08075
1.98013
1.8811
1.78999
1.72769
1.67176
1.60484
1.52285
1.46525
1.45795
1.44957
1.42493
1.38131
1.32995
1.30879
1.30331
1.30673
1.31736
1.36867
1.48704
1.65052
1.689
1.77426
2.14159
2.39692
2.45335
2.43523
2.40407
2.39141
2.38881
2.39362
2.39561
2.39014
2.38005
2.36483
2.35661
2.35258
2.35277
2.35173
2.34562
2.33532
2.32142
2.31124
2.30395
2.29887
2.29423
2.28789
2.27983
2.26939
2.2594
2.25076
2.24244
2.23432
2.22598
2.21653
2.20583
2.1955
2.18695
2.17945
2.17244
2.16539
2.15724
2.14718
2.13699
2.12924
2.12289
2.11657
2.10977
2.10223
2.09374
2.08457
2.07537
2.06629
2.05741
2.04888
2.04033
2.03103
2.0218
2.01438
2.0082
2.00192
1.99459
1.98563
1.97526
1.96545
1.95917
1.95546
1.95181
1.94691
1.93881
1.92491
1.90818
1.89866
1.89375
1.88525
2.20158
2.11536
2.03051
1.95028
1.86721
1.78286
1.72679
1.68656
1.63203
1.56427
1.50405
1.48517
1.47552
1.4517
1.41317
1.36679
1.3357
1.33759
1.37141
1.4854
1.62079
1.66948
1.66712
1.66545
1.75105
2.11
2.3845
2.42518
2.39406
2.37466
2.36566
2.36581
2.37034
2.36451
2.35576
2.34069
2.32864
2.32238
2.32073
2.32128
2.31527
2.30603
2.29272
2.28095
2.27328
2.26796
2.26296
2.25536
2.24642
2.23436
2.22271
2.21498
2.20814
2.20168
2.19427
2.18543
2.17409
2.16164
2.15244
2.14549
2.13891
2.13205
2.12412
2.11387
2.10187
2.09218
2.0854
2.07936
2.0731
2.06592
2.05666
2.04478
2.03296
2.02401
2.01739
2.01179
2.00595
1.99844
1.98831
1.9775
1.96883
1.96141
1.95403
1.94655
1.93861
1.9295
1.92055
1.91486
1.91098
1.90687
1.90151
1.89333
1.88063
1.86533
1.85554
1.84987
2.21055
2.13911
2.06239
1.99125
1.92665
1.85508
1.77911
1.72886
1.69447
1.64973
1.59287
1.53687
1.51156
1.49611
1.47099
1.43789
1.42851
1.45767
1.54148
1.66629
1.70551
1.70018
1.68961
1.67455
1.67535
1.74598
2.07964
2.34746
2.38084
2.36505
2.35217
2.34417
2.34658
2.34251
2.33519
2.32433
2.31098
2.30231
2.29737
2.29612
2.29108
2.28289
2.27208
2.25953
2.25073
2.24396
2.23806
2.23033
2.22164
2.21051
2.19847
2.19047
2.18414
2.17788
2.17058
2.16243
2.15196
2.13901
2.12833
2.12109
2.11455
2.10765
2.09986
2.09035
2.07875
2.06758
2.05957
2.05315
2.04669
2.03933
2.02941
2.01533
2.0016
1.99391
1.9891
1.98479
1.98019
1.97423
1.96475
1.95074
1.93815
1.9301
1.92376
1.91805
1.91232
1.90518
1.89527
1.88524
1.87879
1.87419
1.86974
1.86446
1.85686
1.84454
1.83084
1.83295
2.21245
2.15134
2.08611
2.01886
1.9594
1.90425
1.83827
1.77696
1.73297
1.69914
1.65941
1.60689
1.55804
1.52909
1.51126
1.51569
1.5582
1.6294
1.71859
1.76642
1.75742
1.74162
1.72477
1.7075
1.69582
1.70014
1.75079
2.01656
2.2597
2.33078
2.33749
2.3257
2.31862
2.31348
2.30942
2.30329
2.29388
2.283
2.27565
2.27065
2.26619
2.2594
2.25127
2.24005
2.2287
2.22071
2.21374
2.20683
2.19932
2.19082
2.18009
2.17018
2.16315
2.15627
2.14921
2.14187
2.13334
2.12247
2.11041
2.10088
2.09361
2.08656
2.07909
2.0708
2.06104
2.04998
2.03985
2.03196
2.02495
2.0175
2.00808
1.99477
1.98047
1.97255
1.96797
1.96375
1.95953
1.95456
1.94647
1.93164
1.9152
1.90684
1.90214
1.89764
1.89292
1.88724
1.87875
1.86643
1.85533
1.84865
1.84357
1.83883
1.83446
1.8301
1.8251
1.84759
2.21124
2.15728
2.10203
2.04244
1.98439
1.93497
1.88421
1.82522
1.77313
1.73508
1.70086
1.66138
1.61285
1.57859
1.5891
1.65073
1.73148
1.78039
1.81589
1.81215
1.79849
1.7876
1.77387
1.75365
1.73744
1.72711
1.72793
1.75374
1.93093
2.15915
2.27156
2.29131
2.28923
2.28259
2.27871
2.27642
2.27074
2.26134
2.2509
2.24384
2.23826
2.23315
2.22676
2.21803
2.20568
2.19541
2.18813
2.1819
2.17604
2.16963
2.16138
2.15036
2.14017
2.13269
2.12601
2.11957
2.11292
2.10481
2.0938
2.08169
2.07244
2.06521
2.05833
2.05124
2.04325
2.03338
2.02198
2.01193
2.00407
1.99674
1.98873
1.97913
1.96727
1.95562
1.9491
1.94525
1.94151
1.93666
1.92921
1.91743
1.90204
1.88989
1.88387
1.87951
1.875
1.87005
1.8641
1.8544
1.83985
1.82851
1.82377
1.81972
1.82041
1.82433
1.83671
1.90447
2.2067
2.15844
2.11042
2.06022
2.00575
1.95585
1.9136
1.8641
1.81502
1.76914
1.72674
1.6958
1.67125
1.68336
1.74262
1.84136
1.86975
1.86142
1.85185
1.83758
1.82824
1.82471
1.81379
1.79426
1.7727
1.76044
1.75187
1.74362
1.7562
1.85361
2.05807
2.19827
2.23835
2.2491
2.24932
2.24972
2.24305
2.23496
2.22263
2.21398
2.20834
2.20433
2.19908
2.19184
2.18002
2.16746
2.15997
2.15445
2.15031
2.14524
2.13855
2.1279
2.11496
2.10637
2.10029
2.09471
2.08916
2.08283
2.07406
2.06196
2.05036
2.04234
2.036
2.02985
2.02309
2.01453
2.00301
1.99071
1.98185
1.97539
1.96943
1.96323
1.95539
1.94448
1.93231
1.92305
1.91698
1.91205
1.90714
1.90089
1.89213
1.88029
1.86911
1.86294
1.85964
1.85633
1.85086
1.84181
1.83025
1.81752
1.80875
1.80884
1.81426
1.83768
1.88296
1.96287
2.19873
2.15691
2.1146
2.07084
2.02322
1.97649
1.93459
1.89044
1.84393
1.79871
1.76307
1.75069
1.78272
1.84104
1.91459
1.954
1.94344
1.91407
1.88493
1.87107
1.863
1.85801
1.84799
1.83033
1.80826
1.79336
1.78342
1.77056
1.7554
1.75503
1.79506
1.94796
2.10918
2.18127
2.20651
2.2206
2.21663
2.20714
2.19314
2.18264
2.1773
2.17435
2.17026
2.16384
2.15324
2.13967
2.13169
2.12659
2.12296
2.11814
2.11203
2.10198
2.08772
2.07814
2.0726
2.06752
2.06235
2.0567
2.04941
2.03902
2.02729
2.01829
2.01182
2.006
1.99978
1.99217
1.9816
1.96828
1.95782
1.95249
1.94862
1.94454
1.9394
1.93112
1.9171
1.9017
1.89274
1.8878
1.8838
1.8802
1.87615
1.87032
1.86107
1.84924
1.83868
1.83184
1.82669
1.82178
1.81687
1.81075
1.80671
1.81479
1.84474
1.90026
1.95023
1.98318
2.18853
2.15218
2.11421
2.07538
2.03415
1.99295
1.94858
1.90709
1.86721
1.83356
1.83705
1.88644
1.94673
1.98059
1.99522
1.99146
1.9733
1.94768
1.92065
1.90949
1.89675
1.88558
1.87522
1.8588
1.83716
1.81924
1.80643
1.7948
1.77846
1.76145
1.75377
1.76271
1.85004
2.01005
2.11965
2.16279
2.18459
2.18005
2.16612
2.15109
2.14528
2.14254
2.1397
2.134
2.1254
2.11238
2.10323
2.0981
2.09388
2.08883
2.0828
2.07327
2.0596
2.0499
2.0442
2.03904
2.03376
2.02804
2.02116
2.01231
2.00228
1.99342
1.98636
1.98004
1.9736
1.96629
1.95712
1.94578
1.93498
1.92853
1.9252
1.92213
1.91837
1.91255
1.90197
1.8853
1.87022
1.8634
1.86041
1.85807
1.8562
1.85337
1.84819
1.837
1.81995
1.8084
1.80427
1.80247
1.80466
1.81168
1.83066
1.87174
1.92879
1.96756
1.99301
1.99051
2.17742
2.14546
2.11171
2.077
2.03944
2.00135
1.95912
1.92379
1.90398
1.92395
1.98865
2.05517
2.05997
2.04941
2.03462
2.01527
1.99997
1.98091
1.95416
1.94122
1.92798
1.91137
1.89959
1.88477
1.86411
1.84534
1.82919
1.81448
1.80116
1.78262
1.76296
1.74259
1.7418
1.78001
1.90691
2.03872
2.11253
2.13947
2.13624
2.12175
2.11515
2.11049
2.10784
2.1032
2.09678
2.08556
2.07469
2.0688
2.06344
2.0578
2.05154
2.04277
2.0316
2.02259
2.01622
2.01068
2.00509
1.99895
1.99189
1.9838
1.97521
1.96707
1.9597
1.95274
1.94573
1.93835
1.9305
1.92231
1.91366
1.90478
1.89831
1.89519
1.8923
1.88807
1.88119
1.8702
1.8553
1.84249
1.8367
1.83452
1.83381
1.83229
1.82851
1.82075
1.80698
1.79046
1.78782
1.7894
1.80235
1.83302
1.88593
1.93705
1.9834
1.99315
1.99285
1.98421
2.16704
2.1382
2.10734
2.07428
2.03969
2.00412
1.97192
1.97416
2.01634
2.07807
2.13176
2.13344
2.10354
2.07284
2.05514
2.04269
2.03117
2.01242
1.9831
1.96164
1.94987
1.93378
1.92054
1.90588
1.88621
1.86326
1.84626
1.82952
1.81334
1.79769
1.77744
1.75392
1.73387
1.72324
1.73342
1.80913
1.93785
2.04366
2.07872
2.08287
2.08291
2.08022
2.07688
2.07159
2.06614
2.05681
2.04621
2.0383
2.03166
2.02529
2.01875
2.01126
2.00325
1.99565
1.98872
1.98242
1.97637
1.97001
1.96305
1.95554
1.94767
1.9397
1.93182
1.92413
1.91674
1.90987
1.90373
1.89805
1.89165
1.88318
1.87323
1.8652
1.86052
1.85724
1.85342
1.84782
1.84047
1.83161
1.8206
1.80986
1.80381
1.80101
1.79879
1.79574
1.79092
1.78562
1.78773
1.80253
1.83893
1.892
1.93972
1.95748
1.97299
1.9792
1.97759
1.96708
2.15249
2.12772
2.09932
2.0669
2.03929
2.01678
2.03605
2.10724
2.15847
2.18387
2.18987
2.16354
2.12691
2.09453
2.07444
2.06463
2.0553
2.03668
2.00872
1.97969
1.96623
1.95262
1.93836
1.92215
1.90232
1.87717
1.85619
1.84107
1.82405
1.80739
1.78958
1.76726
1.74272
1.71946
1.7066
1.70633
1.73568
1.83421
1.94928
2.01007
2.02722
2.04434
2.04671
2.04019
2.03337
2.02488
2.01701
2.00839
1.99981
1.99235
1.98591
1.98021
1.97479
1.96864
1.96131
1.95352
1.94635
1.93995
1.93395
1.92795
1.92137
1.91362
1.90476
1.89564
1.88756
1.88151
1.87701
1.87285
1.86801
1.86139
1.85172
1.8399
1.83044
1.82521
1.82218
1.81959
1.81723
1.81395
1.80624
1.79155
1.77866
1.77315
1.76902
1.76925
1.7749
1.79102
1.82095
1.86678
1.91713
1.94118
1.94776
1.9493
1.95419
1.95958
1.95761
1.94786
2.137
2.11583
2.08727
2.06256
2.06245
2.1035
2.18795
2.24236
2.22567
2.21059
2.19982
2.17584
2.14617
2.11693
2.09329
2.08056
2.07078
2.05384
2.02866
1.9986
1.98095
1.9668
1.95091
1.93327
1.91039
1.88574
1.86162
1.84456
1.82937
1.81191
1.79426
1.77461
1.75157
1.72757
1.70608
1.692
1.68196
1.68956
1.74117
1.84036
1.92758
1.97976
1.99669
2.00514
2.00062
1.99457
1.98844
1.97939
1.96821
1.95864
1.95375
1.95014
1.94642
1.94146
1.93406
1.9243
1.91496
1.90851
1.904
1.89987
1.89491
1.88817
1.8791
1.86889
1.86031
1.8543
1.84984
1.84581
1.84146
1.8365
1.82954
1.81889
1.80533
1.79658
1.79431
1.79424
1.79423
1.79173
1.78565
1.77552
1.76096
1.74955
1.7494
1.75538
1.78077
1.82966
1.88291
1.92346
1.94892
1.9491
1.94504
1.93945
1.93651
1.935
1.93139
1.92239
2.11582
2.09548
2.07996
2.09174
2.16312
2.24553
2.29904
2.28519
2.24494
2.21354
2.1987
2.18496
2.16131
2.1343
2.10891
2.09097
2.07932
2.0643
2.04091
2.01177
1.99014
1.97439
1.95732
1.93907
1.91588
1.88823
1.86595
1.84731
1.83113
1.81495
1.79698
1.77803
1.75628
1.73275
1.7117
1.69298
1.67489
1.66584
1.65908
1.67583
1.74244
1.83978
1.91309
1.94681
1.96234
1.968
1.96241
1.95238
1.93864
1.92808
1.92398
1.92107
1.91875
1.91499
1.90797
1.89597
1.88379
1.87736
1.87382
1.87081
1.86719
1.86194
1.85383
1.84397
1.83575
1.82929
1.82368
1.81966
1.81705
1.81256
1.80557
1.79627
1.78715
1.77951
1.77185
1.76446
1.75895
1.75586
1.75368
1.75066
1.7466
1.74466
1.75342
1.78186
1.83586
1.88767
1.91729
1.93853
1.93992
1.93657
1.93137
1.92471
1.91512
1.90728
1.90172
1.89287
2.09561
2.08769
2.12447
2.22317
2.2891
2.31583
2.3076
2.27901
2.24358
2.21474
2.20136
2.19163
2.16973
2.14316
2.12069
2.09997
2.0843
2.06884
2.04586
2.0173
1.99453
1.97703
1.95974
1.94065
1.91923
1.89243
1.86742
1.84907
1.8321
1.81551
1.7984
1.77948
1.75827
1.73565
1.71392
1.69614
1.67946
1.66135
1.64819
1.63986
1.63951
1.66849
1.7463
1.83409
1.8958
1.92484
1.9301
1.92593
1.91417
1.90521
1.90004
1.89686
1.89513
1.89151
1.88461
1.87161
1.8586
1.85187
1.84707
1.84244
1.83881
1.83539
1.82876
1.81941
1.8132
1.80845
1.8029
1.79479
1.78376
1.77545
1.76968
1.76616
1.76362
1.75989
1.75225
1.73954
1.73013
1.72739
1.72707
1.73026
1.74029
1.76385
1.80546
1.85705
1.90109
1.90996
1.91455
1.91783
1.91802
1.91492
1.90992
1.90392
1.8944
1.88292
1.87516
1.86798
2.0934
2.15335
2.27099
2.34152
2.33058
2.31231
2.29242
2.26732
2.24062
2.21564
2.20148
2.19059
2.17065
2.1441
2.12397
2.1036
2.08483
2.06773
2.04537
2.01697
1.99518
1.97687
1.95894
1.94016
1.91893
1.89552
1.87008
1.84905
1.8324
1.81579
1.7988
1.78099
1.76073
1.73823
1.71716
1.69937
1.68421
1.6695
1.65406
1.63837
1.62873
1.61885
1.6257
1.67452
1.75991
1.84405
1.88703
1.89281
1.89522
1.89259
1.88619
1.87911
1.87061
1.8623
1.85598
1.84984
1.84346
1.83752
1.83197
1.82404
1.81111
1.79837
1.79658
1.7965
1.79436
1.79054
1.78373
1.77343
1.75785
1.74494
1.74183
1.74094
1.73973
1.73697
1.73124
1.72292
1.71166
1.71005
1.71228
1.72963
1.77078
1.82787
1.87293
1.90841
1.91322
1.90664
1.90025
1.89502
1.89365
1.89324
1.88907
1.88366
1.87486
1.86269
1.8563
1.85047
2.17528
2.30207
2.36697
2.34948
2.31692
2.29434
2.27612
2.25965
2.23891
2.21536
2.19987
2.18737
2.16898
2.14311
2.1228
2.10429
2.08386
2.06506
2.04418
2.01764
1.99483
1.97693
1.95823
1.93989
1.91977
1.89699
1.87332
1.85138
1.83347
1.81759
1.80137
1.78441
1.76595
1.74581
1.72598
1.70903
1.69322
1.67949
1.66695
1.6528
1.63601
1.62052
1.61095
1.61182
1.63431
1.69924
1.79238
1.84205
1.87207
1.88135
1.8824
1.87662
1.86432
1.84884
1.83631
1.83251
1.8311
1.82956
1.82408
1.81518
1.80022
1.78144
1.77004
1.76692
1.76594
1.76602
1.76438
1.75852
1.74456
1.72657
1.71743
1.71368
1.71014
1.70766
1.7076
1.70783
1.70472
1.70814
1.73142
1.78371
1.83906
1.8742
1.90254
1.90758
1.90485
1.89433
1.88456
1.88012
1.87786
1.87717
1.87429
1.86971
1.86141
1.8504
1.84512
1.83926
2.3558
2.39284
2.37905
2.34992
2.31611
2.28649
2.27049
2.25749
2.23705
2.21219
2.19434
2.18129
2.16482
2.14096
2.11987
2.10315
2.08344
2.06346
2.0433
2.0195
1.99509
1.97678
1.95883
1.93977
1.92095
1.90077
1.87858
1.85705
1.83851
1.82283
1.80879
1.79469
1.77965
1.76279
1.74425
1.72919
1.71998
1.71229
1.70258
1.69094
1.67524
1.65639
1.63549
1.62141
1.61516
1.62348
1.66185
1.73306
1.80359
1.8517
1.87435
1.87659
1.8723
1.8594
1.83885
1.82547
1.82022
1.81676
1.81266
1.80637
1.79688
1.77969
1.76188
1.75364
1.74961
1.7459
1.74242
1.7393
1.733
1.7172
1.7046
1.69832
1.69489
1.6941
1.69588
1.70153
1.71991
1.75695
1.81001
1.8589
1.8784
1.89176
1.89961
1.89892
1.89252
1.88303
1.8771
1.87508
1.87364
1.87248
1.86911
1.86407
1.85547
1.84571
1.84095
1.83552
2.54105
2.47253
2.42621
2.38079
2.33705
2.30495
2.28762
2.27252
2.24928
2.22372
2.206
2.18936
2.17043
2.14566
2.12175
2.10484
2.08636
2.06662
2.04635
2.02395
1.99988
1.97922
1.96242
1.94537
1.92793
1.91016
1.89116
1.87206
1.8549
1.84013
1.8269
1.81405
1.80036
1.78572
1.77202
1.7603
1.74901
1.73711
1.72433
1.7107
1.69701
1.68255
1.66672
1.6529
1.63982
1.63218
1.62573
1.63951
1.68609
1.76477
1.83181
1.88078
1.88836
1.88271
1.86286
1.83888
1.82431
1.81761
1.81207
1.80632
1.79736
1.78635
1.77073
1.75506
1.74643
1.74074
1.73542
1.73035
1.72435
1.71654
1.70243
1.69102
1.69088
1.69351
1.70716
1.74485
1.80108
1.84636
1.88532
1.89455
1.89363
1.89547
1.89576
1.89365
1.88829
1.88467
1.88213
1.8786
1.87523
1.8713
1.86725
1.86201
1.85535
1.85016
1.84665
1.83946
2.63253
2.5515
2.49219
2.44365
2.40185
2.36818
2.34435
2.32075
2.28917
2.25825
2.23715
2.22377
2.20442
2.17824
2.15246
2.13602
2.11917
2.10036
2.08126
2.06012
2.03702
2.01645
1.99988
1.98453
1.96892
1.95253
1.93511
1.91745
1.90121
1.88685
1.87337
1.86004
1.84736
1.8349
1.82183
1.80821
1.79407
1.77834
1.76182
1.74452
1.72804
1.71489
1.70469
1.69236
1.67904
1.66186
1.64679
1.63395
1.63609
1.6624
1.72704
1.80416
1.86944
1.89401
1.8913
1.87218
1.84649
1.82878
1.8193
1.81248
1.80545
1.79589
1.78494
1.76859
1.75317
1.74388
1.73684
1.72944
1.72053
1.71279
1.70643
1.69987
1.70255
1.72471
1.77674
1.84254
1.88291
1.90675
1.91875
1.91742
1.91274
1.90692
1.9034
1.90087
1.89992
1.89839
1.89612
1.89161
1.88407
1.8774
1.87298
1.87017
1.86856
1.86642
1.8634
1.85545
2.69764
2.64993
2.6046
2.55761
2.51334
2.47132
2.43446
2.39896
2.36324
2.33185
2.30634
2.28831
2.26547
2.23651
2.20729
2.18835
2.17085
2.14976
2.12902
2.10827
2.08567
2.06431
2.04625
2.02988
2.01334
1.99613
1.97834
1.96079
1.94467
1.93029
1.91691
1.90336
1.88844
1.87261
1.85692
1.84191
1.82835
1.81575
1.80253
1.78676
1.7673
1.74463
1.72461
1.7098
1.69822
1.68776
1.6761
1.66365
1.65312
1.64566
1.65413
1.69815
1.7771
1.85174
1.90019
1.89884
1.88295
1.85289
1.83431
1.82491
1.81949
1.81372
1.80161
1.78691
1.76851
1.75333
1.74359
1.73388
1.72739
1.72545
1.72389
1.73462
1.77314
1.83025
1.88787
1.92229
1.9353
1.94735
1.94934
1.94541
1.9378
1.92759
1.92133
1.91837
1.91755
1.91755
1.91639
1.91324
1.90561
1.89802
1.89466
1.89276
1.89114
1.889
1.88613
1.87868
2.71015
2.68778
2.66496
2.63265
2.59736
2.56139
2.52679
2.49144
2.45676
2.42457
2.39527
2.36957
2.34214
2.31098
2.28132
2.25931
2.24176
2.2208
2.19755
2.1744
2.15172
2.13009
2.11071
2.09271
2.07422
2.05467
2.03508
2.01701
2.00116
1.98693
1.97308
1.95812
1.94079
1.92145
1.90234
1.88557
1.87133
1.85773
1.8431
1.82574
1.8044
1.77947
1.75655
1.74049
1.72936
1.71969
1.70966
1.69764
1.68212
1.66173
1.64491
1.64789
1.67793
1.74882
1.8315
1.8995
1.90235
1.88539
1.8611
1.84381
1.83542
1.83212
1.82248
1.8067
1.78726
1.76739
1.75658
1.74716
1.74915
1.75702
1.7894
1.847
1.90798
1.95054
1.97237
1.98074
1.98483
1.98402
1.98172
1.97577
1.96996
1.96292
1.95523
1.95234
1.95149
1.95046
1.94856
1.94501
1.93802
1.93269
1.93093
1.92941
1.92771
1.92512
1.92174
1.91281
2.70341
2.688
2.67445
2.65691
2.63709
2.61437
2.58819
2.56002
2.53182
2.50441
2.4791
2.45369
2.42484
2.39283
2.36321
2.33951
2.31966
2.29601
2.26963
2.24135
2.21669
2.19491
2.17405
2.15375
2.13303
2.11098
2.08866
2.06889
2.05204
2.03643
2.02067
2.00381
1.98479
1.96324
1.94131
1.92213
1.9058
1.89015
1.87375
1.85519
1.83356
1.80985
1.78767
1.77028
1.75743
1.74629
1.73511
1.7224
1.70588
1.68519
1.66547
1.65054
1.65095
1.66543
1.71848
1.8033
1.87237
1.90247
1.89043
1.86983
1.857
1.85242
1.845
1.83106
1.81241
1.79367
1.78117
1.78135
1.79074
1.84533
1.92451
1.98461
2.01751
2.037
2.03559
2.02705
2.02003
2.01684
2.01558
2.01501
2.01238
2.00834
2.00141
1.99576
1.99233
1.98959
1.98669
1.98275
1.97734
1.9735
1.97221
1.97093
1.96933
1.96656
1.96276
1.95187
2.69457
2.68414
2.67302
2.65831
2.64251
2.62582
2.60826
2.58969
2.56982
2.54913
2.52738
2.50249
2.47418
2.44544
2.41952
2.39884
2.3791
2.35323
2.32417
2.29448
2.26996
2.24873
2.22761
2.20645
2.18427
2.15932
2.1331
2.11017
2.09132
2.0744
2.05761
2.0395
2.01849
1.99419
1.96941
1.94765
1.92939
1.91307
1.89674
1.87862
1.85799
1.83567
1.81386
1.79416
1.77758
1.76407
1.75172
1.73842
1.72319
1.70656
1.68815
1.66998
1.65427
1.64439
1.65095
1.68586
1.75954
1.84994
1.88095
1.88034
1.87185
1.86637
1.86085
1.84871
1.83624
1.82552
1.81688
1.83748
1.91251
2.00121
2.05004
2.07985
2.09225
2.09007
2.08156
2.06859
2.06262
2.05983
2.05838
2.05844
2.05553
2.05111
2.04572
2.03978
2.03499
2.03106
2.02732
2.02364
2.02009
2.01662
2.01372
2.01124
2.00819
2.00399
1.99909
1.98719
2.68748
2.67714
2.66488
2.65271
2.63995
2.62695
2.6137
2.59888
2.58204
2.56348
2.54298
2.52028
2.49632
2.4734
2.45277
2.43369
2.41109
2.38356
2.35393
2.3267
2.30371
2.28276
2.2619
2.23936
2.21415
2.18655
2.16039
2.13767
2.11754
2.09907
2.08077
2.06042
2.03691
2.01213
1.98852
1.96668
1.94663
1.92848
1.91133
1.89312
1.87316
1.85257
1.83235
1.81245
1.79333
1.77622
1.76174
1.74811
1.73415
1.71982
1.70433
1.68589
1.66618
1.64895
1.63879
1.6395
1.65786
1.71993
1.81402
1.86995
1.87252
1.87041
1.86061
1.85476
1.85433
1.85937
1.90405
1.98939
2.07957
2.11447
2.12105
2.12413
2.12417
2.12196
2.11903
2.11347
2.10609
2.10096
2.09687
2.09328
2.08905
2.08494
2.08099
2.07625
2.07129
2.0669
2.06289
2.05906
2.05517
2.05071
2.04551
2.04051
2.03593
2.03082
2.02557
2.0132
2.68349
2.67304
2.6582
2.64692
2.63576
2.62477
2.61263
2.5987
2.58324
2.56604
2.54696
2.52655
2.50576
2.48578
2.46693
2.4456
2.42069
2.39407
2.36873
2.34587
2.32397
2.30145
2.27798
2.25273
2.22624
2.20091
2.17746
2.15549
2.1341
2.11286
2.09115
2.06826
2.04479
2.02235
2.00144
1.98096
1.95998
1.93872
1.91824
1.89851
1.87966
1.8619
1.84466
1.82648
1.80696
1.78669
1.7678
1.75162
1.73759
1.72494
1.71241
1.69762
1.68078
1.66063
1.64263
1.62902
1.62434
1.63465
1.68462
1.76763
1.85239
1.86875
1.86219
1.86901
1.89235
1.95948
2.04876
2.12163
2.15753
2.1654
2.15223
2.1469
2.14568
2.14536
2.14343
2.13938
2.13178
2.12594
2.12232
2.11888
2.11503
2.1112
2.10664
2.10069
2.09473
2.08963
2.08532
2.08129
2.07694
2.07178
2.06551
2.05904
2.05318
2.04686
2.03964
2.0255
2.68189
2.67192
2.65494
2.6444
2.6342
2.62378
2.61154
2.59732
2.58142
2.56392
2.54531
2.52622
2.50715
2.48799
2.46808
2.44387
2.41837
2.39534
2.37441
2.35395
2.33144
2.30738
2.28148
2.2556
2.23126
2.20836
2.18671
2.16552
2.14356
2.11938
2.09322
2.06856
2.04692
2.02745
2.00904
1.9902
1.96956
1.94603
1.92072
1.89852
1.88096
1.86569
1.85094
1.83503
1.81677
1.79549
1.77253
1.75258
1.73784
1.72613
1.71488
1.70307
1.68927
1.67176
1.64946
1.62944
1.61487
1.60834
1.61492
1.64985
1.73175
1.81536
1.87035
1.93721
2.01292
2.0819
2.13553
2.17192
2.16927
2.16551
2.16181
2.16016
2.15983
2.16022
2.1578
2.15321
2.14642
2.14033
2.13672
2.13289
2.1285
2.12324
2.11697
2.11114
2.10669
2.10283
2.09937
2.09549
2.09107
2.08549
2.07793
2.06908
2.06013
2.05125
2.04311
2.03129
2.68055
2.67217
2.65432
2.6444
2.63446
2.62397
2.61131
2.59652
2.58023
2.56303
2.54537
2.52752
2.50935
2.48966
2.46678
2.44301
2.41994
2.39844
2.37869
2.35786
2.33408
2.30868
2.28105
2.25513
2.2329
2.21229
2.19224
2.17174
2.1486
2.12085
2.09127
2.06566
2.04575
2.02929
2.01375
1.99729
1.9768
1.94879
1.91829
1.89495
1.87887
1.86573
1.85357
1.8408
1.82453
1.80027
1.77188
1.75032
1.73586
1.72464
1.71447
1.7051
1.69434
1.67826
1.65258
1.62709
1.6109
1.59973
1.59515
1.60015
1.63122
1.71848
1.86979
2.00345
2.11247
2.19011
2.22083
2.20982
2.18325
2.16877
2.16411
2.1623
2.16218
2.16485
2.16461
2.16013
2.15373
2.14678
2.14068
2.13566
2.13072
2.12515
2.11959
2.11509
2.11108
2.10763
2.10401
2.09971
2.09491
2.08878
2.08065
2.07102
2.06088
2.05103
2.0441
2.03418
)
;

boundaryField
{
    inlet
    {
        type            fixedValue;
        value           uniform 1;
    }
    outlet
    {
        type            inletOutlet;
        inletValue      uniform 1;
        value           nonuniform List<scalar> 
32
(
1.99404
1.99604
1.98877
1.96296
1.92595
1.88571
1.85014
1.83257
1.84627
1.9036
1.96325
1.98353
1.99042
1.98352
1.96668
1.94798
1.92249
1.89295
1.86839
1.85097
1.83961
1.83586
1.83932
1.85514
1.87857
1.91249
1.95129
1.98666
2.01275
2.02507
2.0313
2.03442
)
;
    }
    bottom
    {
        type            symmetryPlane;
    }
    top
    {
        type            symmetryPlane;
    }
    obstacle
    {
        type            zeroGradient;
    }
    defaultFaces
    {
        type            empty;
    }
}


// ************************************************************************* //
