/*--------------------------------*- C++ -*----------------------------------*\
  =========                 |
  \\      /  F ield         | OpenFOAM: The Open Source CFD Toolbox
   \\    /   O peration     | Website:  https://openfoam.org
    \\  /    A nd           | Version:  7
     \\/     M anipulation  |
\*---------------------------------------------------------------------------*/
FoamFile
{
    version     2.0;
    format      ascii;
    class       volVectorField;
    location    "5.5";
    object      U;
}
// * * * * * * * * * * * * * * * * * * * * * * * * * * * * * * * * * * * * * //

dimensions      [0 1 -1 0 0 0 0];

internalField   nonuniform List<vector> 
4032
(
(3 3.92852e-18 0)
(3 3.17505e-18 0)
(3 -7.46704e-17 0)
(3 -1.05677e-16 0)
(3 2.20282e-16 0)
(3 6.82757e-16 0)
(3 4.97943e-16 0)
(3 -3.02802e-16 0)
(3 -4.19783e-16 0)
(3 -6.35472e-16 0)
(3 -7.2181e-16 0)
(2.90104 0.00320665 0)
(0.988502 0.0161428 0)
(0.709231 0.0193448 0)
(0.657471 0.0240663 0)
(0.597766 0.025519 0)
(0.538951 0.0267355 0)
(0.478294 0.0280825 0)
(0.415799 0.029607 0)
(0.350796 0.0314251 0)
(0.282804 0.0334262 0)
(0.210324 0.0364416 0)
(0.131699 0.0390444 0)
(0.0492726 0.0444332 0)
(3 -1.05573e-16 0)
(3 -5.7541e-17 0)
(3 -2.98244e-16 0)
(3 -1.64877e-16 0)
(3 7.56296e-17 0)
(3 5.0539e-16 0)
(3 9.07251e-16 0)
(3 4.31477e-16 0)
(3 3.29071e-16 0)
(3 1.20956e-16 0)
(3 -3.20204e-16 0)
(2.91126 0.0203432 0)
(0.99482 0.0745443 0)
(0.695496 0.0667345 0)
(0.641467 0.070829 0)
(0.582854 0.0753468 0)
(0.524249 0.0797553 0)
(0.463301 0.0844257 0)
(0.400238 0.0892223 0)
(0.33494 0.0947764 0)
(0.267482 0.100722 0)
(0.197305 0.11027 0)
(0.122069 0.118748 0)
(0.0458499 0.134236 0)
(3 -1.1379e-16 0)
(3 -5.0669e-17 0)
(3 1.36314e-16 0)
(3 6.40883e-17 0)
(3 3.6445e-16 0)
(3 5.39311e-16 0)
(3 7.41443e-16 0)
(3 1.20129e-15 0)
(3 1.24999e-15 0)
(3 1.18823e-15 0)
(3 8.5014e-16 0)
(2.95524 0.0395249 0)
(1.03259 0.137811 0)
(0.711027 0.11574 0)
(0.656597 0.122211 0)
(0.595964 0.1297 0)
(0.535211 0.137308 0)
(0.472091 0.145408 0)
(0.406446 0.153425 0)
(0.338091 0.16217 0)
(0.267119 0.170314 0)
(0.194493 0.183668 0)
(0.117736 0.195009 0)
(0.043768 0.21702 0)
(3 1.37906e-16 0)
(3 5.17843e-17 0)
(3 2.7622e-16 0)
(3 2.30332e-16 0)
(3 1.53424e-16 0)
(3 1.03804e-16 0)
(3 -5.20597e-17 0)
(3 5.34538e-17 0)
(3 1.16161e-16 0)
(3 1.14492e-16 0)
(3 2.14037e-16 0)
(3.0082 0.00622645 0)
(1.10814 0.182248 0)
(0.743418 0.152733 0)
(0.691862 0.166561 0)
(0.632559 0.178562 0)
(0.571668 0.190127 0)
(0.507973 0.202924 0)
(0.440399 0.216247 0)
(0.368196 0.231318 0)
(0.290777 0.244559 0)
(0.211111 0.262928 0)
(0.126819 0.276886 0)
(0.0458608 0.301978 0)
(3 1.26957e-17 0)
(3 -3.17218e-16 0)
(3 -5.13115e-16 0)
(3 -3.83453e-16 0)
(3 -4.75347e-16 0)
(3 -6.35128e-16 0)
(3 -6.18497e-16 0)
(3 -8.06587e-16 0)
(3 -7.88528e-16 0)
(3 -6.53502e-16 0)
(3 -7.51453e-16 0)
(3.00058 2.99323e-05 0)
(1.21735 0.224608 0)
(0.750048 0.197146 0)
(0.695331 0.21762 0)
(0.639477 0.234115 0)
(0.581309 0.249131 0)
(0.521144 0.266701 0)
(0.457315 0.285631 0)
(0.389423 0.307366 0)
(0.314769 0.32547 0)
(0.235716 0.348527 0)
(0.145638 0.367577 0)
(0.0549994 0.398899 0)
(3 -2.74092e-16 0)
(3 -1.89787e-16 0)
(3 -1.98325e-16 0)
(3 -7.04572e-17 0)
(3 -5.26611e-16 0)
(3 -4.80382e-16 0)
(3 -4.01693e-16 0)
(3 -7.33142e-16 0)
(3 -1.01899e-15 0)
(3 -9.95336e-16 0)
(3 -9.0263e-16 0)
(3 -1.16237e-07 0)
(1.39775 0.274779 0)
(0.765634 0.245638 0)
(0.696679 0.261888 0)
(0.647714 0.280987 0)
(0.597589 0.298677 0)
(0.54722 0.320193 0)
(0.491898 0.344568 0)
(0.430146 0.375075 0)
(0.354912 0.405422 0)
(0.268119 0.443036 0)
(0.166137 0.478169 0)
(0.0561511 0.516949 0)
(3 -2.40733e-16 0)
(3 1.65036e-16 0)
(3 1.3321e-16 0)
(3 9.77397e-17 0)
(3 6.4036e-17 0)
(3 6.08222e-17 0)
(3 2.84485e-16 0)
(3 -1.80125e-16 0)
(3 -5.90759e-16 0)
(3 -9.97895e-16 0)
(3 -7.64423e-16 0)
(3 -1.11505e-07 0)
(1.67236 0.32598 0)
(0.796163 0.309692 0)
(0.696634 0.308814 0)
(0.645821 0.32524 0)
(0.597758 0.343455 0)
(0.55435 0.369659 0)
(0.508024 0.402165 0)
(0.458688 0.444771 0)
(0.3975 0.49189 0)
(0.326259 0.543529 0)
(0.23333 0.594593 0)
(0.10135 0.66013 0)
(3 7.25127e-17 0)
(3 9.63173e-17 0)
(3 8.01685e-17 0)
(3 -2.58578e-16 0)
(3 -1.19766e-16 0)
(3 -1.43749e-16 0)
(3 7.69644e-17 0)
(3 2.04686e-16 0)
(3 9.68451e-17 0)
(3 5.67019e-17 0)
(3 1.38889e-16 0)
(3 -2.30293e-08 0)
(2.07617 0.367166 0)
(0.852761 0.394841 0)
(0.717187 0.37022 0)
(0.667425 0.379206 0)
(0.620286 0.392333 0)
(0.579352 0.416581 0)
(0.540187 0.4521 0)
(0.501521 0.501002 0)
(0.457253 0.560369 0)
(0.395322 0.641498 0)
(0.274946 0.757588 0)
(0.151157 0.923606 0)
(3 1.12192e-17 0)
(3 3.6636e-17 0)
(3 2.32673e-16 0)
(3 8.28713e-17 0)
(3 -2.2407e-16 0)
(3 -4.76121e-16 0)
(3 -2.70665e-16 0)
(3 2.03273e-16 0)
(3 5.3216e-16 0)
(3 4.33784e-16 0)
(3 5.78273e-16 0)
(3 -2.35088e-09 0)
(2.66042 0.30131 0)
(0.985598 0.477941 0)
(0.803862 0.406541 0)
(0.752065 0.415225 0)
(0.694228 0.433591 0)
(0.64257 0.459521 0)
(0.599618 0.496608 0)
(0.563092 0.549821 0)
(0.529299 0.626675 0)
(0.496658 0.750973 0)
(0.46474 0.923035 0)
(0.575815 1.19898 0)
(3 -5.5018e-17 0)
(3 -2.65576e-16 0)
(3 5.40523e-17 0)
(3 1.0389e-16 0)
(3 -2.61129e-16 0)
(3 -6.45339e-16 0)
(3 -8.3768e-16 0)
(3 -7.07513e-16 0)
(3 -3.79175e-16 0)
(3 -5.16363e-19 0)
(3 1.28067e-17 0)
(3 -9.22979e-11 0)
(3.07637 0.0420008 0)
(1.22023 0.469571 0)
(0.882182 0.447661 0)
(0.838787 0.474653 0)
(0.785254 0.490234 0)
(0.730803 0.51142 0)
(0.682345 0.544871 0)
(0.643182 0.596962 0)
(0.623796 0.681616 0)
(0.623005 0.816767 0)
(0.685687 0.966464 0)
(0.969651 1.13666 0)
(3 -6.15204e-17 0)
(3 1.5352e-16 0)
(3 1.52044e-16 0)
(3 2.88379e-16 0)
(3 1.60974e-16 0)
(3 -5.63569e-16 0)
(3 -1.14647e-15 0)
(3 -1.10796e-15 0)
(3 -5.79809e-16 0)
(3 -1.13543e-16 0)
(3 3.12029e-16 0)
(3 -1.86901e-12 0)
(3.00845 7.88338e-05 0)
(1.43811 0.462283 0)
(0.883814 0.512317 0)
(0.836497 0.531864 0)
(0.801047 0.551269 0)
(0.772652 0.575708 0)
(0.744981 0.607707 0)
(0.72007 0.651585 0)
(0.722739 0.725439 0)
(0.750715 0.839857 0)
(0.872387 0.963649 0)
(1.18378 1.06604 0)
(3 4.10004e-17 0)
(3 -1.53371e-16 0)
(3 -4.89087e-16 0)
(3 -5.81531e-16 0)
(3 2.40237e-16 0)
(3 3.0132e-16 0)
(3 4.98025e-16 0)
(3 9.51092e-16 0)
(3 5.52936e-16 0)
(3 5.09188e-16 0)
(3 3.83996e-16 0)
(3 -1.55184e-14 0)
(3.00006 -2.43082e-06 0)
(1.94708 0.494244 0)
(0.92926 0.577004 0)
(0.853462 0.560461 0)
(0.834286 0.58226 0)
(0.819988 0.607878 0)
(0.809728 0.642526 0)
(0.801742 0.682876 0)
(0.817162 0.746245 0)
(0.86686 0.837449 0)
(1.01042 0.940151 0)
(1.27639 1.0067 0)
(3 -2.35036e-17 0)
(3 2.45067e-16 0)
(3 -8.35664e-18 0)
(3 -3.98091e-16 0)
(3 -3.35155e-16 0)
(3 6.85381e-16 0)
(3 1.45744e-15 0)
(3 1.87975e-15 0)
(3 1.00146e-15 0)
(3 1.93456e-16 0)
(3 -5.07686e-17 0)
(3 -2.66229e-16 0)
(3.00001 -3.06069e-06 0)
(2.75187 0.31739 0)
(1.09751 0.634906 0)
(0.921072 0.580484 0)
(0.892137 0.601686 0)
(0.874588 0.630762 0)
(0.870576 0.66907 0)
(0.876673 0.711184 0)
(0.901326 0.765737 0)
(0.966416 0.834605 0)
(1.10599 0.906775 0)
(1.31829 0.948127 0)
(3 1.41705e-17 0)
(3 -5.78028e-17 0)
(3 3.31974e-16 0)
(3 3.7439e-16 0)
(3 1.579e-16 0)
(3 4.67234e-16 0)
(3 8.73921e-16 0)
(3 7.77093e-16 0)
(3 3.65007e-16 0)
(3 -2.42481e-16 0)
(3 -4.01526e-16 0)
(3 1.62294e-17 0)
(3 -6.44679e-07 0)
(3.07415 0.0255596 0)
(1.4367 0.631275 0)
(1.0016 0.652825 0)
(0.950417 0.652424 0)
(0.925038 0.667195 0)
(0.923379 0.694686 0)
(0.939685 0.730908 0)
(0.974576 0.774293 0)
(1.04806 0.828008 0)
(1.17546 0.8794 0)
(1.34843 0.906492 0)
(3 -8.85397e-17 0)
(3 -2.03503e-16 0)
(3 1.93295e-16 0)
(3 5.86743e-16 0)
(3 5.89703e-16 0)
(3 8.81002e-16 0)
(3 9.77373e-16 0)
(3 5.58422e-16 0)
(3 7.11648e-16 0)
(3 6.84276e-16 0)
(3 6.41828e-16 0)
(3 6.2281e-16 0)
(3 -6.52911e-08 0)
(3.00404 7.12573e-05 0)
(1.99328 0.59976 0)
(1.06349 0.724583 0)
(1.01074 0.701833 0)
(0.995009 0.69872 0)
(0.991448 0.715072 0)
(1.00634 0.742011 0)
(1.04458 0.778245 0)
(1.11546 0.817022 0)
(1.22342 0.850158 0)
(1.36161 0.866114 0)
(3 -6.89843e-18 0)
(3 3.63617e-16 0)
(3 2.41766e-16 0)
(3 2.69336e-16 0)
(3 5.08285e-16 0)
(3 2.44916e-16 0)
(3 4.10565e-16 0)
(3 9.47437e-16 0)
(3 1.42988e-15 0)
(3 1.88557e-15 0)
(3 2.05428e-15 0)
(3 1.61677e-15 0)
(3 -2.06007e-09 0)
(3.00001 -3.19324e-07 0)
(2.93666 0.219574 0)
(1.2831 0.697727 0)
(1.08253 0.718849 0)
(1.08732 0.720405 0)
(1.08194 0.740533 0)
(1.0871 0.762466 0)
(1.1151 0.788811 0)
(1.176 0.818136 0)
(1.26549 0.840135 0)
(1.37843 0.849169 0)
(3 3.91778e-17 0)
(3 -8.7535e-17 0)
(3 -2.87124e-16 0)
(3 1.83697e-16 0)
(3 3.50783e-16 0)
(3 -1.34246e-16 0)
(3 -5.37474e-16 0)
(3 -1.58949e-16 0)
(3 4.00352e-16 0)
(3 7.97765e-16 0)
(3 1.01403e-15 0)
(3 9.80754e-16 0)
(3 -4.53684e-12 0)
(3 -7.49746e-07 0)
(3.04075 0.00625713 0)
(1.57406 0.659617 0)
(1.10002 0.75662 0)
(1.11106 0.765275 0)
(1.11718 0.783142 0)
(1.1399 0.795406 0)
(1.17395 0.806601 0)
(1.22827 0.818313 0)
(1.30376 0.82909 0)
(1.39811 0.832314 0)
(3 -1.35368e-16 0)
(3 -3.37245e-17 0)
(3 -1.84281e-16 0)
(3 2.07789e-18 0)
(3 5.25864e-16 0)
(3 5.81165e-16 0)
(3 -7.91622e-17 0)
(3 -8.92575e-16 0)
(3 -1.16059e-15 0)
(3 -4.22384e-16 0)
(3 -3.0536e-16 0)
(3 1.59391e-16 0)
(3 -4.36794e-15 0)
(3 -1.43232e-07 0)
(3.00078 3.46197e-05 0)
(2.39317 0.509273 0)
(1.20635 0.788944 0)
(1.13525 0.79162 0)
(1.14888 0.795366 0)
(1.17712 0.805361 0)
(1.21706 0.817197 0)
(1.2699 0.828043 0)
(1.33883 0.835114 0)
(1.41872 0.834666 0)
(3 -6.51106e-17 0)
(3 1.27503e-16 0)
(3 4.77515e-16 0)
(3 1.26559e-16 0)
(3 4.0701e-16 0)
(3 3.71141e-16 0)
(3 2.0172e-16 0)
(3 1.50907e-16 0)
(3 -1.28967e-16 0)
(3 -5.6007e-16 0)
(3 -2.78586e-16 0)
(3 -9.1132e-16 0)
(3 -1.06848e-15 0)
(3 -4.50383e-09 0)
(3.00002 -5.88205e-06 0)
(3.05807 0.0715914 0)
(1.56772 0.776409 0)
(1.18475 0.786012 0)
(1.19861 0.794141 0)
(1.22158 0.806612 0)
(1.2592 0.818196 0)
(1.30889 0.82774 0)
(1.37141 0.832754 0)
(1.44197 0.830709 0)
(3 6.69463e-17 0)
(3 -4.13302e-17 0)
(3 6.72741e-17 0)
(3 -1.29774e-16 0)
(3 -7.13632e-16 0)
(3 -6.19348e-16 0)
(3 1.8427e-16 0)
(3 5.56068e-16 0)
(3 4.79468e-16 0)
(3 -5.51152e-16 0)
(3 -1.28362e-15 0)
(3 -1.54498e-15 0)
(3 -1.29378e-15 0)
(3 -1.62492e-11 0)
(3 -1.48629e-06 0)
(3.00806 0.00136251 0)
(2.29799 0.630075 0)
(1.26415 0.848621 0)
(1.22313 0.83373 0)
(1.25655 0.833587 0)
(1.29041 0.838527 0)
(1.33755 0.843493 0)
(1.39467 0.845021 0)
(1.45828 0.8413 0)
(3 1.48258e-16 0)
(3 -1.58945e-16 0)
(3 -7.8108e-16 0)
(3 -7.81165e-16 0)
(3 -8.16093e-16 0)
(3 -5.29549e-16 0)
(3 3.29816e-18 0)
(3 -6.68264e-17 0)
(3 -2.10552e-16 0)
(3 -6.28606e-16 0)
(3 -1.27437e-15 0)
(3 -1.45179e-15 0)
(3 -1.02518e-15 0)
(3 -7.98856e-15 0)
(3 -1.27097e-07 0)
(3.00003 9.23311e-06 0)
(3.03989 0.116632 0)
(1.62898 0.827237 0)
(1.26889 0.831075 0)
(1.30496 0.833455 0)
(1.33063 0.839245 0)
(1.37293 0.841971 0)
(1.42305 0.842091 0)
(1.47966 0.838281 0)
(3 2.91357e-17 0)
(3 3.88833e-17 0)
(3 -2.16707e-16 0)
(3 6.37455e-17 0)
(3 -6.06995e-17 0)
(3 -6.36978e-16 0)
(3 -1.45036e-15 0)
(3 -1.79822e-15 0)
(3 -1.5058e-15 0)
(3 -1.60565e-15 0)
(3 -1.82478e-15 0)
(3 -1.84163e-15 0)
(3 -1.52675e-15 0)
(3 -9.61709e-16 0)
(3 -1.55682e-09 0)
(3 -1.17224e-07 0)
(3.01047 0.00342359 0)
(2.37623 0.635291 0)
(1.35704 0.886355 0)
(1.32687 0.876249 0)
(1.35919 0.868603 0)
(1.39463 0.86595 0)
(1.43819 0.861671 0)
(1.48942 0.853681 0)
(3 -1.02585e-17 0)
(3 1.46788e-16 0)
(3 3.04484e-16 0)
(3 2.48233e-16 0)
(3 1.78023e-16 0)
(3 -5.42517e-16 0)
(3 -5.18899e-16 0)
(3 -7.98515e-16 0)
(3 -1.12942e-15 0)
(3 -1.13037e-15 0)
(3 -1.25136e-15 0)
(3 -9.1159e-16 0)
(3 -8.97496e-16 0)
(3 -9.29635e-16 0)
(3 -3.51003e-12 0)
(3 -2.92272e-08 0)
(3.00005 4.13627e-05 0)
(3.03282 0.10387 0)
(1.76387 0.83553 0)
(1.3634 0.88197 0)
(1.40257 0.874908 0)
(1.4293 0.868816 0)
(1.46616 0.859924 0)
(1.50988 0.850334 0)
(3 -2.89902e-17 0)
(3 -9.71685e-17 0)
(3 -1.60272e-17 0)
(3 -5.24692e-17 0)
(3 1.1117e-16 0)
(3 7.22414e-16 0)
(3 1.23425e-15 0)
(3 1.24862e-15 0)
(3 7.20036e-16 0)
(3 4.67531e-16 0)
(3 -2.00921e-16 0)
(3 -1.16617e-15 0)
(3 -1.67309e-15 0)
(3 -1.62865e-15 0)
(3 -3.32702e-15 0)
(3 -2.73732e-09 0)
(3 2.33288e-08 0)
(3.00602 0.00426559 0)
(2.62006 0.526853 0)
(1.50829 0.934228 0)
(1.42355 0.903072 0)
(1.45577 0.892341 0)
(1.4866 0.882977 0)
(1.52361 0.871205 0)
(3 8.76648e-17 0)
(3 -1.32753e-16 0)
(3 4.17034e-17 0)
(3 3.081e-17 0)
(3 -3.75304e-16 0)
(3 8.41059e-18 0)
(3 5.79267e-16 0)
(3 1.60224e-15 0)
(3 1.37324e-15 0)
(3 9.52788e-16 0)
(3 4.39909e-17 0)
(3 -4.46788e-16 0)
(3 -1.48789e-15 0)
(3 -7.88597e-16 0)
(3 -1.01919e-16 0)
(3 -1.07119e-10 0)
(3 -1.04671e-10 0)
(3.00002 4.4893e-05 0)
(3.03503 0.0525184 0)
(2.02412 0.796798 0)
(1.47753 0.914786 0)
(1.49681 0.90575 0)
(1.52369 0.891906 0)
(1.5501 0.881148 0)
(3 -4.2548e-17 0)
(3 2.20662e-17 0)
(3 2.02079e-16 0)
(3 3.79232e-16 0)
(3 1.0093e-16 0)
(3 2.15098e-17 0)
(3 9.35996e-17 0)
(3 -1.99272e-16 0)
(3 -1.08138e-16 0)
(3 -1.27147e-16 0)
(3 6.88557e-16 0)
(3 1.03364e-15 0)
(3 1.32363e-16 0)
(3 8.05522e-16 0)
(3 1.322e-15 0)
(3 -9.15263e-13 0)
(3 -3.27462e-11 0)
(3 3.43103e-08 0)
(3.00161 0.00230445 0)
(2.84108 0.311077 0)
(1.74149 0.901787 0)
(1.51706 0.929536 0)
(1.54861 0.919433 0)
(1.58319 0.8989 0)
(3 4.08577e-18 0)
(3 1.5997e-17 0)
(3 -2.5649e-16 0)
(3 -2.05551e-16 0)
(3 5.34414e-16 0)
(3 5.79018e-16 0)
(3 -1.97118e-16 0)
(3 -1.69177e-15 0)
(3 -1.63319e-15 0)
(3 -1.05053e-15 0)
(3 7.63973e-17 0)
(3 1.21439e-15 0)
(3 1.12052e-15 0)
(3 1.27495e-15 0)
(3 1.0987e-15 0)
(3 -1.36138e-15 0)
(3 -4.24732e-12 0)
(3 2.87618e-12 0)
(3 1.19419e-05 0)
(3.00948 0.0211412 0)
(2.4242 0.6432 0)
(1.60534 0.954789 0)
(1.56299 0.938007 0)
(1.59245 0.926207 0)
(3 4.12964e-17 0)
(3 -8.11601e-17 0)
(3 -2.09559e-16 0)
(3 -4.08088e-16 0)
(3 -2.54135e-16 0)
(3 -3.41644e-16 0)
(3 -6.06921e-16 0)
(3 -4.1782e-16 0)
(3 -6.1282e-16 0)
(3 -9.82156e-17 0)
(3 -1.05228e-17 0)
(3 8.92565e-16 0)
(3 1.53826e-15 0)
(3 1.24825e-15 0)
(3 9.04113e-16 0)
(3 1.29496e-15 0)
(3 -2.24327e-13 0)
(3 -2.64632e-13 0)
(3 6.4644e-09 0)
(3.00006 0.000612737 0)
(2.99087 0.112719 0)
(2.04806 0.812443 0)
(1.61902 0.937942 0)
(1.62978 0.941073 0)
(3 -7.9835e-17 0)
(3 5.38947e-18 0)
(3 -6.64207e-17 0)
(3 -1.84558e-16 0)
(3 -6.60888e-16 0)
(3 -1.28407e-15 0)
(3 -1.10114e-15 0)
(3 -3.40497e-16 0)
(3 6.417e-16 0)
(3 3.8843e-16 0)
(3 4.25627e-16 0)
(3 4.46078e-16 0)
(3 6.13982e-16 0)
(3 5.24568e-16 0)
(3 4.95173e-16 0)
(3 8.73131e-16 0)
(3 -2.57646e-15 0)
(3 -8.61284e-14 0)
(3 1.83058e-12 0)
(3 1.45089e-06 0)
(3.00161 0.0060521 0)
(2.77709 0.339647 0)
(1.86876 0.865821 0)
(1.68316 0.993625 0)
(3 -1.49706e-18 0)
(3 -4.20867e-17 0)
(3 -1.76542e-16 0)
(3 -4.33654e-16 0)
(3 -7.69271e-16 0)
(3 -6.24863e-16 0)
(3 -3.5143e-16 0)
(3 -3.78249e-16 0)
(3 2.42841e-16 0)
(3 1.8598e-16 0)
(3 -1.31539e-17 0)
(3 -5.07846e-17 0)
(3 2.40392e-17 0)
(3 1.10792e-16 0)
(3 3.09709e-16 0)
(3 1.09513e-16 0)
(3 3.82203e-16 0)
(3 -1.20678e-14 0)
(3 -1.26368e-14 0)
(3 7.78162e-10 0)
(2.99999 6.14041e-05 0)
(3.00329 0.0234653 0)
(2.46233 0.584025 0)
(1.72674 0.86315 0)
(3 -5.66893e-18 0)
(3 1.52616e-16 0)
(3 -2.8448e-16 0)
(3 -9.63682e-16 0)
(3 -5.90327e-16 0)
(3 -3.20443e-18 0)
(3 -5.81344e-17 0)
(3 -9.9359e-16 0)
(3 -1.41834e-15 0)
(3 -6.77648e-16 0)
(3 1.49946e-16 0)
(3 3.14297e-16 0)
(3 4.94647e-16 0)
(3 3.89189e-16 0)
(3 2.90089e-16 0)
(3 4.42279e-16 0)
(3 9.02228e-16 0)
(3 -1.06211e-15 0)
(3 -6.13439e-15 0)
(3 1.9185e-13 0)
(3 5.02621e-08 0)
(2.99999 0.000920501 0)
(2.94297 0.0512641 0)
(1.471 0.33236 0)
(3 7.22032e-18 0)
(3 1.22864e-16 0)
(3 -1.31227e-16 0)
(3 -5.64973e-16 0)
(3 -5.19833e-16 0)
(3 -5.30857e-16 0)
(3 -9.02903e-16 0)
(3 -9.7874e-16 0)
(3 -3.08445e-16 0)
(3 -2.0388e-17 0)
(3 1.50058e-16 0)
(3 2.62193e-16 0)
(3 -7.5633e-17 0)
(3 1.48092e-17 0)
(3 -2.28217e-16 0)
(3 5.9257e-17 0)
(3 -1.82344e-17 0)
(3 -4.50742e-16 0)
(3 -1.87959e-15 0)
(3 -1.92227e-15 0)
(3 1.46104e-11 0)
(3 7.41406e-06 0)
(2.85343 -0.0600873 0)
(1.06418 0.0782732 0)
(3 -5.70128e-18 0)
(3 -2.9149e-16 0)
(3 -3.51224e-18 0)
(3 7.13995e-16 0)
(3 7.98077e-16 0)
(3 4.55187e-16 0)
(3 5.00209e-16 0)
(3 1.13835e-15 0)
(3 5.31765e-16 0)
(3 5.70127e-16 0)
(3 2.01049e-16 0)
(3 5.38493e-17 0)
(3 9.47271e-17 0)
(3 1.72177e-16 0)
(3 -3.15532e-16 0)
(3 -8.07199e-16 0)
(3 -1.13347e-15 0)
(3 -1.08627e-15 0)
(3 -2.46891e-16 0)
(3 -4.1262e-16 0)
(3 1.69069e-15 0)
(3 1.45435e-08 0)
(2.82208 -0.00735525 0)
(0.928265 0.0551087 0)
(3 -4.35827e-18 0)
(3 -6.14394e-17 0)
(3 4.37303e-16 0)
(3 8.38563e-16 0)
(3 9.9275e-16 0)
(3 1.21494e-15 0)
(3 1.19232e-15 0)
(3 7.79997e-16 0)
(3 3.64516e-16 0)
(3 -7.95304e-17 0)
(3 -3.60948e-16 0)
(3 7.48e-17 0)
(3 6.27695e-16 0)
(3 9.04362e-16 0)
(3 3.97789e-16 0)
(3 -3.92046e-16 0)
(3 -1.36766e-15 0)
(3 -1.70376e-15 0)
(3 -1.0009e-15 0)
(3 8.88751e-17 0)
(3 4.97251e-16 0)
(3 9.10607e-12 0)
(2.87597 0.025201 0)
(0.97403 0.0796897 0)
(3 4.06866e-18 0)
(3 1.69589e-16 0)
(3 1.55815e-16 0)
(3 2.24416e-16 0)
(3 -1.50688e-16 0)
(3 1.85561e-16 0)
(3 5.81484e-16 0)
(3 3.70694e-16 0)
(3 5.02281e-16 0)
(3 2.7603e-16 0)
(3 2.0558e-16 0)
(3 -6.37728e-18 0)
(3 4.48437e-17 0)
(3 2.0694e-16 0)
(3 4.06258e-16 0)
(3 -1.75721e-16 0)
(3 -1.45043e-15 0)
(3 -2.20396e-15 0)
(3 -1.86483e-15 0)
(3 -9.75774e-16 0)
(3 -5.06503e-16 0)
(3 5.0476e-16 0)
(2.92827 0.0399335 0)
(1.02644 0.116206 0)
(3 -4.95158e-18 0)
(3 -2.37553e-17 0)
(3 -1.06708e-16 0)
(3 -5.86879e-17 0)
(3 -1.19674e-17 0)
(3 -2.6493e-16 0)
(3 -7.55378e-18 0)
(3 7.17854e-16 0)
(3 9.70184e-16 0)
(3 7.42967e-16 0)
(3 3.52228e-16 0)
(3 -4.4734e-16 0)
(3 -5.44025e-16 0)
(3 -5.58221e-16 0)
(3 -4.58506e-16 0)
(3 -3.80358e-16 0)
(3 -9.18938e-16 0)
(3 -7.80136e-16 0)
(3 -7.67898e-16 0)
(3 -4.57043e-16 0)
(3 -3.94226e-16 0)
(3 -9.5274e-16 0)
(2.97543 0.00868035 0)
(1.07932 0.122692 0)
(3 -1.89289e-17 0)
(3 5.76375e-17 0)
(3 3.40341e-16 0)
(3 4.95842e-16 0)
(3 5.92959e-16 0)
(3 6.66484e-16 0)
(3 5.66583e-16 0)
(3 6.47607e-16 0)
(3 1.55733e-15 0)
(3 1.3204e-15 0)
(3 8.85312e-16 0)
(3 5.10244e-16 0)
(3 -1.35512e-16 0)
(3 -8.15399e-17 0)
(3 1.20263e-16 0)
(3 3.82845e-16 0)
(3 5.86799e-16 0)
(3 5.622e-16 0)
(3 1.94903e-16 0)
(3 3.8909e-16 0)
(3 3.22429e-16 0)
(3 2.48682e-16 0)
(2.99937 0.00144699 0)
(1.12696 0.097761 0)
(3 1.00863e-16 0)
(3 -3.78017e-17 0)
(3 4.02694e-16 0)
(3 1.05169e-15 0)
(3 1.31081e-15 0)
(3 1.53818e-15 0)
(3 1.36262e-15 0)
(3 7.11539e-16 0)
(3 1.66214e-16 0)
(3 5.10774e-16 0)
(3 6.53518e-16 0)
(3 1.32351e-15 0)
(3 1.14485e-15 0)
(3 7.16491e-16 0)
(3 9.40454e-16 0)
(3 1.04912e-15 0)
(3 1.28427e-15 0)
(3 9.83104e-16 0)
(3 8.18636e-16 0)
(3 5.79396e-16 0)
(3 4.58839e-16 0)
(3 6.65424e-17 0)
(3 7.02381e-06 0)
(1.17655 0.0729105 0)
(3 2.41103e-17 0)
(3 1.6224e-16 0)
(3 5.67464e-16 0)
(3 8.49251e-16 0)
(3 1.33734e-15 0)
(3 1.03135e-15 0)
(3 7.3815e-16 0)
(3 5.46826e-16 0)
(3 -1.33355e-16 0)
(3 -5.539e-16 0)
(3 7.40938e-17 0)
(3 1.17172e-15 0)
(3 1.49039e-15 0)
(3 9.89405e-16 0)
(3 1.06246e-15 0)
(3 1.10537e-15 0)
(3 6.21413e-16 0)
(3 2.98035e-16 0)
(3 1.7939e-16 0)
(3 -2.37658e-17 0)
(3 1.09398e-17 0)
(3 2.60321e-16 0)
(3 6.29069e-09 0)
(1.21252 0.0414082 0)
(3 -9.07699e-17 0)
(3 3.9164e-16 0)
(3 3.8293e-16 0)
(3 4.92393e-16 0)
(3 3.06112e-16 0)
(3 2.33693e-16 0)
(3 4.29664e-16 0)
(3 3.90066e-16 0)
(3 3.6359e-16 0)
(3 2.5962e-16 0)
(3 4.44813e-16 0)
(3 8.34183e-16 0)
(3 7.79011e-16 0)
(3 6.67149e-16 0)
(3 6.0207e-16 0)
(3 6.00567e-16 0)
(3 3.85833e-16 0)
(3 2.50113e-16 0)
(3 -2.89664e-17 0)
(3 -1.21295e-16 0)
(3 2.71377e-16 0)
(3 6.01646e-16 0)
(3 4.41618e-13 0)
(1.22266 0.00955496 0)
(1.54087 1.21906 0)
(1.97159 1.48396 0)
(2.12245 1.55885 0)
(2.22831 0.655563 0)
(2.52294 0.390289 0)
(2.65211 0.0560646 0)
(2.63045 -0.230216 0)
(2.58781 -0.263609 0)
(2.44193 -0.305504 0)
(2.39492 -0.377145 0)
(2.40928 -0.377701 0)
(2.4107 -0.239962 0)
(2.41119 -0.146389 0)
(2.41851 -0.128234 0)
(2.4268 -0.0958625 0)
(2.39926 -0.0764942 0)
(2.36554 -0.0709771 0)
(2.35055 -0.0517671 0)
(2.3674 -0.0197411 0)
(2.39247 -0.0043265 0)
(2.40283 -0.00411384 0)
(2.38959 -0.0126018 0)
(1.13689 0.0285839 0)
(0.73206 0.0298089 0)
(0.705683 0.0279424 0)
(0.702669 0.014552 0)
(0.705994 -0.00749322 0)
(0.719159 -0.0211166 0)
(0.73682 -0.0266115 0)
(0.758546 -0.0263891 0)
(0.787207 -0.0248847 0)
(0.822664 -0.0253142 0)
(0.861588 -0.0278388 0)
(0.898257 -0.0315034 0)
(0.932779 -0.0329495 0)
(0.962412 -0.0306608 0)
(0.987806 -0.025944 0)
(1.01427 -0.0219266 0)
(1.04545 -0.0199522 0)
(1.08354 -0.0198983 0)
(1.12403 -0.0211919 0)
(1.15957 -0.0209523 0)
(1.18304 -0.0177577 0)
(1.20003 -0.013884 0)
(1.21702 -0.0106861 0)
(1.23619 -0.00908992 0)
(1.26113 -0.0089459 0)
(1.29037 -0.0101281 0)
(1.31709 -0.0109837 0)
(1.33737 -0.00968952 0)
(1.35434 -0.00789809 0)
(1.37151 -0.00682271 0)
(1.39075 -0.00682465 0)
(1.41351 -0.00779406 0)
(1.43806 -0.00871101 0)
(1.46178 -0.00845364 0)
(1.48391 -0.00675998 0)
(1.505 -0.00432673 0)
(1.52646 -0.00269176 0)
(1.54871 -0.00248875 0)
(1.5684 -0.00308914 0)
(1.5859 -0.00360854 0)
(1.60295 -0.0036859 0)
(1.61892 -0.00269624 0)
(1.63561 -0.00153355 0)
(1.65321 -0.00064973 0)
(1.67213 0.000429412 0)
(1.69055 0.0010052 0)
(1.70806 0.00134584 0)
(1.72448 0.00216567 0)
(1.73812 0.00350285 0)
(1.74853 0.00525095 0)
(1.75965 0.00645351 0)
(1.77482 0.00655122 0)
(1.79184 0.00625768 0)
(1.81233 0.00517416 0)
(1.83224 0.00252197 0)
(1.84985 0.00166913 0)
(1.86658 0.00148675 0)
(1.87715 0.00259964 0)
(1.8822 0.00510922 0)
(1.88966 0.00748068 0)
(1.90259 0.00824004 0)
(1.91809 0.0084316 0)
(1.93392 0.00861224 0)
(1.94945 0.0086626 0)
(1.96418 0.00851023 0)
(1.97642 0.00830508 0)
(1.98526 0.00826716 0)
(1.99608 0.00793848 0)
(2.00956 0.00695551 0)
(2.02321 0.00597542 0)
(2.03779 0.00555615 0)
(2.05098 0.00510435 0)
(2.05524 0.00689297 0)
(2.06264 0.00870746 0)
(1.78154 1.05148 0)
(2.28449 0.818835 0)
(2.50551 0.555467 0)
(2.63781 0.107125 0)
(2.68423 -0.262556 0)
(2.67471 -0.43879 0)
(2.72614 -0.568279 0)
(2.7226 -0.630154 0)
(2.75156 -0.603991 0)
(2.69896 -0.53811 0)
(2.59671 -0.448292 0)
(2.48741 -0.291224 0)
(2.45826 -0.185149 0)
(2.46075 -0.159151 0)
(2.47052 -0.129214 0)
(2.46627 -0.0736958 0)
(2.45217 -0.061461 0)
(2.45 -0.0331211 0)
(2.43082 0.00930271 0)
(2.42477 0.0256386 0)
(2.41945 0.027756 0)
(2.42828 0.0118885 0)
(1.28328 0.163987 0)
(0.803474 0.0785373 0)
(0.786742 0.0389943 0)
(0.793641 0.00779062 0)
(0.803847 -0.0231266 0)
(0.822757 -0.0461626 0)
(0.848387 -0.0561833 0)
(0.875718 -0.0498167 0)
(0.900089 -0.0322949 0)
(0.922904 -0.0190176 0)
(0.945072 -0.0196812 0)
(0.972936 -0.0313783 0)
(1.00888 -0.0470478 0)
(1.04467 -0.0525952 0)
(1.07199 -0.0437505 0)
(1.09196 -0.0272547 0)
(1.11274 -0.012334 0)
(1.13564 -0.00827621 0)
(1.16586 -0.0148482 0)
(1.20217 -0.0263218 0)
(1.23333 -0.0299433 0)
(1.25221 -0.024886 0)
(1.26664 -0.0133423 0)
(1.28078 -0.00154514 0)
(1.29631 0.00239055 0)
(1.31608 -0.00183244 0)
(1.34344 -0.0107557 0)
(1.37096 -0.0152424 0)
(1.39077 -0.0123976 0)
(1.40708 -0.00649725 0)
(1.42324 -0.000977166 0)
(1.43948 -0.000234568 0)
(1.45817 -0.0054503 0)
(1.48219 -0.0125292 0)
(1.50827 -0.0135643 0)
(1.53237 -0.00762763 0)
(1.553 0.000946717 0)
(1.57026 0.00685763 0)
(1.58476 0.00838465 0)
(1.59936 0.00609947 0)
(1.61598 0.00200806 0)
(1.63304 5.39576e-05 0)
(1.65027 0.000532783 0)
(1.66797 0.00300651 0)
(1.6851 0.00549981 0)
(1.70164 0.00561085 0)
(1.71764 0.00382731 0)
(1.73343 0.00128945 0)
(1.74898 0.000422711 0)
(1.76391 0.00363379 0)
(1.7772 0.0116769 0)
(1.7888 0.0201496 0)
(1.80183 0.0240823 0)
(1.81759 0.0230522 0)
(1.8362 0.0164994 0)
(1.85563 0.00733647 0)
(1.87156 3.66845e-05 0)
(1.88554 -0.00391361 0)
(1.89692 -0.000864197 0)
(1.90727 0.00822958 0)
(1.91753 0.0180434 0)
(1.92963 0.0236652 0)
(1.94413 0.0257614 0)
(1.95944 0.0266841 0)
(1.97429 0.0271425 0)
(1.98691 0.0276948 0)
(1.9953 0.0286954 0)
(2.00261 0.027779 0)
(2.01593 0.0252014 0)
(2.03116 0.0214144 0)
(2.04502 0.0136099 0)
(2.05697 0.00533881 0)
(2.06628 0.00392603 0)
(2.07943 0.0135404 0)
(1.66254 1.04641 0)
(2.03794 0.907329 0)
(2.37147 0.577519 0)
(2.53101 0.306145 0)
(2.58516 0.226942 0)
(2.61759 0.0697031 0)
(2.68413 -0.175477 0)
(2.71505 -0.283333 0)
(2.77485 -0.310003 0)
(2.81184 -0.409716 0)
(2.7935 -0.438244 0)
(2.71103 -0.441179 0)
(2.62989 -0.411584 0)
(2.62997 -0.368816 0)
(2.63711 -0.310998 0)
(2.63283 -0.228027 0)
(2.63073 -0.182868 0)
(2.6078 -0.139026 0)
(2.53733 -0.0690008 0)
(2.49964 -0.0349875 0)
(2.48891 -0.00294315 0)
(2.48823 -0.0175956 0)
(1.77268 0.209402 0)
(1.02159 0.10243 0)
(0.998181 -0.0108828 0)
(1.05164 -0.0350208 0)
(1.05269 -0.0240776 0)
(1.0528 -0.0278984 0)
(1.06793 -0.0480839 0)
(1.09922 -0.0704613 0)
(1.12842 -0.0772166 0)
(1.14358 -0.0729197 0)
(1.15128 -0.0642515 0)
(1.16051 -0.0568825 0)
(1.17529 -0.0584615 0)
(1.20041 -0.0679684 0)
(1.22768 -0.0757108 0)
(1.24705 -0.0740958 0)
(1.26032 -0.0645242 0)
(1.27211 -0.0472265 0)
(1.28834 -0.0348432 0)
(1.3088 -0.0322472 0)
(1.333 -0.0376301 0)
(1.35453 -0.0424742 0)
(1.36993 -0.0417153 0)
(1.38334 -0.0348176 0)
(1.39347 -0.0226638 0)
(1.40687 -0.0140349 0)
(1.42411 -0.0130773 0)
(1.44622 -0.0189688 0)
(1.46946 -0.0250416 0)
(1.48641 -0.026168 0)
(1.50118 -0.0243595 0)
(1.51346 -0.0194216 0)
(1.52678 -0.015038 0)
(1.5433 -0.0142101 0)
(1.56446 -0.0165751 0)
(1.58921 -0.01903 0)
(1.60848 -0.0189769 0)
(1.62571 -0.0163165 0)
(1.63971 -0.0088064 0)
(1.64875 -0.000401757 0)
(1.65905 0.00305537 0)
(1.67457 0.00281178 0)
(1.69133 0.00286794 0)
(1.70887 0.00514845 0)
(1.72559 0.00863363 0)
(1.74024 0.0135172 0)
(1.75138 0.0171625 0)
(1.76306 0.0162141 0)
(1.77836 0.013394 0)
(1.79492 0.00999403 0)
(1.81079 0.010165 0)
(1.8264 0.0158737 0)
(1.83913 0.0259748 0)
(1.84757 0.034112 0)
(1.85739 0.0347702 0)
(1.8714 0.0290834 0)
(1.8877 0.0211821 0)
(1.90465 0.0130162 0)
(1.9205 0.00855169 0)
(1.93609 0.00892021 0)
(1.949 0.0149083 0)
(1.95893 0.0232694 0)
(1.96952 0.0285823 0)
(1.98259 0.030467 0)
(1.99657 0.031098 0)
(2.00985 0.0323488 0)
(2.02077 0.0361247 0)
(2.02676 0.043339 0)
(2.03009 0.0473646 0)
(2.03806 0.0423633 0)
(2.05032 0.0346436 0)
(2.06488 0.0259048 0)
(2.07943 0.0189266 0)
(2.10175 0.0182666 0)
(1.60553 0.981127 0)
(1.89113 0.890533 0)
(2.11908 0.742765 0)
(2.34026 0.502364 0)
(2.47416 0.302162 0)
(2.55593 0.194412 0)
(2.59015 0.0509429 0)
(2.67509 -0.145136 0)
(2.71125 -0.288083 0)
(2.74216 -0.368759 0)
(2.78788 -0.462447 0)
(2.80454 -0.490005 0)
(2.77366 -0.450098 0)
(2.7497 -0.439126 0)
(2.72348 -0.414821 0)
(2.71224 -0.395178 0)
(2.72382 -0.367082 0)
(2.71277 -0.310861 0)
(2.66265 -0.225729 0)
(2.61851 -0.175595 0)
(2.59679 -0.126783 0)
(2.5289 -0.158305 0)
(2.36941 -0.244464 0)
(1.33666 0.0656108 0)
(1.24221 0.0534317 0)
(1.29936 -0.0183591 0)
(1.30525 -0.063131 0)
(1.2917 -0.0597377 0)
(1.29783 -0.0532867 0)
(1.3148 -0.0544928 0)
(1.34164 -0.0665867 0)
(1.35621 -0.074225 0)
(1.36166 -0.0743195 0)
(1.36173 -0.0658142 0)
(1.36338 -0.0543288 0)
(1.37281 -0.0498695 0)
(1.3887 -0.0513041 0)
(1.40638 -0.0565986 0)
(1.41791 -0.057164 0)
(1.42724 -0.0506615 0)
(1.43372 -0.0363049 0)
(1.44331 -0.0237784 0)
(1.45725 -0.0197222 0)
(1.47312 -0.0217148 0)
(1.48876 -0.026405 0)
(1.50206 -0.0286868 0)
(1.51451 -0.0271821 0)
(1.52433 -0.0196545 0)
(1.53649 -0.0115613 0)
(1.55237 -0.00761513 0)
(1.57028 -0.00849392 0)
(1.58581 -0.0123217 0)
(1.59902 -0.0149616 0)
(1.61019 -0.0157702 0)
(1.62009 -0.0123788 0)
(1.63314 -0.00715812 0)
(1.6496 -0.00266667 0)
(1.66825 -0.00171802 0)
(1.68443 -0.00370805 0)
(1.69949 -0.00555542 0)
(1.71277 -0.00584501 0)
(1.72185 -0.00209074 0)
(1.72789 0.0050648 0)
(1.7381 0.0099824 0)
(1.75312 0.0115221 0)
(1.76902 0.0116988 0)
(1.7849 0.0116448 0)
(1.79975 0.012549 0)
(1.81191 0.0161357 0)
(1.82123 0.0221623 0)
(1.83171 0.0264816 0)
(1.84626 0.0272261 0)
(1.86182 0.0258529 0)
(1.87661 0.0230122 0)
(1.88893 0.020753 0)
(1.89704 0.0211647 0)
(1.9038 0.0245821 0)
(1.91463 0.0282369 0)
(1.92921 0.0307655 0)
(1.94396 0.0324034 0)
(1.95921 0.0329922 0)
(1.97464 0.0329253 0)
(1.98856 0.0330848 0)
(1.9984 0.0350758 0)
(2.00532 0.0374303 0)
(2.0149 0.0375781 0)
(2.0278 0.0365928 0)
(2.04164 0.0360155 0)
(2.05491 0.0369605 0)
(2.06494 0.0413069 0)
(2.06702 0.0492334 0)
(2.065 0.0530358 0)
(2.07451 0.051307 0)
(2.08868 0.0492179 0)
(2.10235 0.046451 0)
(2.12663 0.042566 0)
(1.56534 0.928435 0)
(1.79529 0.855716 0)
(1.99229 0.752386 0)
(2.17278 0.61242 0)
(2.33407 0.43306 0)
(2.43542 0.291144 0)
(2.49493 0.212416 0)
(2.52431 0.110091 0)
(2.61848 -0.0352557 0)
(2.66647 -0.16697 0)
(2.68897 -0.24359 0)
(2.72622 -0.289708 0)
(2.76155 -0.28745 0)
(2.73487 -0.320367 0)
(2.69948 -0.367133 0)
(2.7039 -0.402515 0)
(2.72725 -0.434554 0)
(2.74241 -0.424789 0)
(2.72549 -0.389208 0)
(2.69788 -0.335404 0)
(2.60423 -0.354282 0)
(2.44626 -0.435475 0)
(2.33793 -0.707222 0)
(1.77522 -0.269083 0)
(1.39663 -0.0242721 0)
(1.37928 0.000950473 0)
(1.40869 -0.029392 0)
(1.42109 -0.0546541 0)
(1.42466 -0.0637804 0)
(1.43354 -0.0638344 0)
(1.45082 -0.0703585 0)
(1.47099 -0.0764551 0)
(1.47964 -0.0749971 0)
(1.48412 -0.0671147 0)
(1.48175 -0.0558489 0)
(1.48325 -0.0502336 0)
(1.49212 -0.050382 0)
(1.50491 -0.0525262 0)
(1.5199 -0.0522915 0)
(1.53082 -0.0480686 0)
(1.53948 -0.041276 0)
(1.54478 -0.0331898 0)
(1.55174 -0.0283314 0)
(1.56432 -0.0275645 0)
(1.5782 -0.0280421 0)
(1.59291 -0.0281451 0)
(1.6066 -0.0266216 0)
(1.61896 -0.0217175 0)
(1.6299 -0.0150801 0)
(1.64198 -0.0112131 0)
(1.65618 -0.0111334 0)
(1.66988 -0.0132295 0)
(1.68203 -0.0156253 0)
(1.69285 -0.0158076 0)
(1.70382 -0.0121528 0)
(1.71611 -0.00586708 0)
(1.72926 -0.000888135 0)
(1.74285 0.00065715 0)
(1.75631 0.000312119 0)
(1.76902 -0.000873111 0)
(1.78057 -0.00176396 0)
(1.79034 -0.000299449 0)
(1.7981 0.00554816 0)
(1.80621 0.0138028 0)
(1.81762 0.0192979 0)
(1.8316 0.0216087 0)
(1.84629 0.0224771 0)
(1.86049 0.0227813 0)
(1.87321 0.023652 0)
(1.88412 0.0267447 0)
(1.89474 0.0321433 0)
(1.90662 0.0369012 0)
(1.91938 0.0391985 0)
(1.93176 0.0389829 0)
(1.94226 0.0366562 0)
(1.9504 0.0344123 0)
(1.95796 0.0347929 0)
(1.96739 0.0372314 0)
(1.97963 0.0396759 0)
(1.99359 0.0417461 0)
(2.00789 0.0438669 0)
(2.02161 0.0461093 0)
(2.03333 0.0483532 0)
(2.04099 0.0508684 0)
(2.0452 0.0534573 0)
(2.05209 0.0549035 0)
(2.06444 0.0549928 0)
(2.07908 0.0544024 0)
(2.09402 0.053539 0)
(2.10711 0.0527575 0)
(2.11255 0.0546111 0)
(2.10796 0.060405 0)
(2.11176 0.0641574 0)