/*--------------------------------*- C++ -*----------------------------------*\
  =========                 |
  \\      /  F ield         | OpenFOAM: The Open Source CFD Toolbox
   \\    /   O peration     | Website:  https://openfoam.org
    \\  /    A nd           | Version:  7
     \\/     M anipulation  |
\*---------------------------------------------------------------------------*/
FoamFile
{
    version     2.0;
    format      ascii;
    class       volScalarField;
    location    "3";
    object      p;
}
// * * * * * * * * * * * * * * * * * * * * * * * * * * * * * * * * * * * * * //

dimensions      [1 -1 -2 0 0 0 0];

internalField   nonuniform List<scalar> 
4032
(
1
1
1
1
1
1
1
1
1
1
1
1.10128
6.86445
10.5858
10.7449
10.9419
11.1278
11.3057
11.473
11.6273
11.7666
11.8804
11.9689
12.0329
1
1
1
1
1
1
1
1
1
1
1
1.04966
6.70079
10.5528
10.717
10.914
11.1002
11.2756
11.4384
11.5857
11.7166
11.8218
11.9017
11.9605
1
1
1
1
1
1
1
1
1
1
1
1.00263
6.35407
10.503
10.6735
10.8661
11.0497
11.2194
11.3755
11.5151
11.6387
11.7387
11.8131
11.8731
1
1
1
1
1
1
1
1
1
1
1
1.00002
5.82935
10.3937
10.6022
10.7885
10.9706
11.1351
11.2852
11.4175
11.5316
11.6175
11.6719
11.7109
1
1
1
1
1
1
1
1
1
1
1
1
5.14245
10.2122
10.5152
10.6916
10.867
11.0177
11.1502
11.2597
11.3493
11.418
11.4611
11.5174
1
1
1
1
1
1
1
1
1
1
1
1
4.31788
9.91827
10.4092
10.5729
10.7339
10.8646
10.977
11.0688
11.1431
11.1979
11.2093
11.1704
1
1
1
1
1
1
1
1
1
1
1
1
3.40408
9.46561
10.3315
10.4751
10.6139
10.7141
10.7859
10.8325
10.8439
10.7959
10.7238
10.6775
1
1
1
1
1
1
1
1
1
1
1
1
2.40799
8.75158
10.2643
10.3689
10.4798
10.5485
10.5768
10.5711
10.5111
10.4139
10.2782
10.2556
1
1
1
1
1
1
1
1
1
1
1
1
1.45088
7.81186
10.2558
10.2222
10.3053
10.3405
10.3203
10.2622
10.1085
9.83463
9.0631
7.19181
1
1
1
1
1
1
1
1
1
1
1
1
1.02663
6.49535
9.97213
9.91857
10.0141
10.0529
10.0145
9.90546
9.66355
9.19422
8.39708
6.32633
1
1
1
1
1
1
1
1
1
1
1
1
1.00001
4.7072
9.44927
9.79553
9.86274
9.8299
9.74057
9.56215
9.25289
8.68512
7.84858
5.90896
1
1
1
1
1
1
1
1
1
1
1
1
0.999997
2.84203
8.64511
9.6505
9.63553
9.59862
9.48464
9.245
8.87271
8.29867
7.38393
5.79396
1
1
1
1
1
1
1
1
1
1
1
1
0.999999
1.35211
7.51055
9.73902
9.49287
9.36747
9.20925
8.94023
8.53917
7.98339
7.061
5.86027
1
1
1
1
1
1
1
1
1
1
1
1
1
1.01353
5.6734
9.049
9.11496
9.0886
8.93335
8.66139
8.27623
7.69895
6.87431
5.92879
1
1
1
1
1
1
1
1
1
1
1
1
1
0.999891
3.14228
8.25706
9.01642
8.94652
8.75902
8.46309
8.08166
7.50651
6.80028
6.01511
1
1
1
1
1
1
1
1
1
1
1
1
1
0.999972
1.33898
6.93207
9.00755
8.80555
8.57333
8.25901
7.8851
7.3521
6.74567
6.07194
1
1
1
1
1
1
1
1
1
1
1
1
1
0.999995
1.01033
4.61881
8.44273
8.55351
8.36961
8.09353
7.72376
7.24537
6.71457
6.12164
1
1
1
1
1
1
1
1
1
1
1
1
1
1
0.999948
1.90561
7.4834
8.54989
8.27291
7.98031
7.6005
7.15092
6.66859
6.13908
1
1
1
1
1
1
1
1
1
1
1
1
1
1
0.999987
1.06598
5.40155
8.26326
8.07991
7.82109
7.4738
7.06077
6.62031
6.1501
1
1
1
1
1
1
1
1
1
1
1
1
1
1
0.999998
1.00024
2.36026
7.36342
8.0456
7.755
7.41156
7.02604
6.62132
6.19279
1
1
1
1
1
1
1
1
1
1
1
1
1
1
1
1
1.13469
5.37292
7.90803
7.66045
7.33489
6.97863
6.60199
6.20648
1
1
1
1
1
1
1
1
1
1
1
1
1
1
1
1
1.00142
2.27773
6.8779
7.62933
7.30204
6.96727
6.60537
6.23149
1
1
1
1
1
1
1
1
1
1
1
1
1
1
1
1
1
1.1194
4.78062
7.50216
7.25849
6.93064
6.58405
6.23515
1
1
1
1
1
1
1
1
1
1
1
1
1
1
1
1
1
1.00135
1.97282
6.23667
7.22612
6.88829
6.58191
6.26283
1
1
1
1
1
1
1
1
1
1
1
1
1
1
1
1
1
1
1.06957
3.65279
6.87796
6.89744
6.61182
6.30864
1
1
1
1
1
1
1
1
1
1
1
1
1
1
1
1
1
1
1.00077
1.48977
5.21114
6.93034
6.64782
6.34378
1
1
1
1
1
1
1
1
1
1
1
1
1
1
1
1
1
1
1
1.01998
2.43037
5.98312
6.65742
6.36233
1
1
1
1
1
1
1
1
1
1
1
1
1
1
1
1
1
1
1
1.00017
1.14686
3.69287
6.28824
6.41329
1
1
1
1
1
1
1
1
1
1
1
1
1
1
1
1
1
1
1
1
1.00289
1.53059
4.68177
6.32921
1
1
1
1
1
1
1
1
1
1
1
1
1
1
1
1
1
1
1
1
1.00001
1.02438
2.14039
5.28699
1
1
1
1
1
1
1
1
1
1
1
1
1
1
1
1
1
1
1
1
1
1.00025
1.09961
2.86053
1
1
1
1
1
1
1
1
1
1
1
1
1
1
1
1
1
1
1
1
1
1
1.00181
1.26074
1
1
1
1
1
1
1
1
1
1
1
1
1
1
1
1
1
1
1
1
1
1
1.00001
1.00807
1
1
1
1
1
1
1
1
1
1
1
1
1
1
1
1
1
1
1
1
1
1
1
1.00006
1
1
1
1
1
1
1
1
1
1
1
1
1
1
1
1
1
1
1
1
1
1
1
1
1
1
1
1
1
1
1
1
1
1
1
1
1
1
1
1
1
1
1
1
1
1
1
1
1
1
1
1
1
1
1
1
1
1
1
1
1
1
1
1
1
1
1
1
1
1
1
1
1
1
1
1
1
1
1
1
1
1
1
1
1
1
1
1
1
1
1
1
1
1
1
1
1
1
1
1
1
1
1
1
1
1
1
1
1
1
1
1
1
1
1
1
1
1
1
1
1
1
1
1
1
1
1
1
1
1
1
1
1
1
1
1
1
1
1
1
1
1
1
1
1.58995
0.487008
0.135315
0.125749
0.184596
0.253922
0.339458
0.475019
0.665692
0.836793
0.992538
1.06782
1.07125
1.07485
1.12821
1.21486
1.28769
1.30977
1.31744
1.29274
1.25459
1.24983
1.27407
1.32178
1.34138
1.33732
1.31678
1.29129
1.29088
1.3069
1.3418
1.35703
1.77681
4.89207
6.35649
6.33585
6.31626
6.28957
6.23351
6.16
6.06221
5.95539
5.86509
5.77397
5.66779
5.53996
5.40008
5.27187
5.17345
5.10726
5.05706
4.99201
4.89664
4.78228
4.65537
4.5337
4.43736
4.36658
4.33154
4.30088
4.25035
4.18073
4.0961
3.99503
3.89729
3.81771
3.75248
3.701
3.66706
3.62563
3.5715
3.5013
3.39422
3.27784
3.1995
3.14951
3.10958
3.08902
3.08922
3.06475
3.02672
2.9857
2.9254
2.83141
2.72746
2.66235
2.6296
2.60232
2.57792
2.55807
2.53131
2.50102
2.46657
2.41105
2.32739
2.23928
2.71899
1.48537
0.888903
0.618215
0.595762
0.55022
0.489004
0.486659
0.515037
0.580081
0.643747
0.725254
0.833359
0.906201
0.976559
1.0671
1.13904
1.18807
1.22087
1.25766
1.26126
1.26125
1.27658
1.28947
1.29767
1.3133
1.31763
1.31739
1.314
1.31612
1.31973
1.33226
1.56452
4.74652
6.53432
6.43802
6.27675
6.2325
6.18239
6.10893
5.99402
5.86406
5.75537
5.67889
5.61653
5.5425
5.44366
5.32185
5.19945
5.09141
4.99564
4.92825
4.87054
4.7982
4.70949
4.60668
4.49574
4.40441
4.33435
4.2677
4.20464
4.14451
4.07647
4.00443
3.92453
3.83414
3.75031
3.6872
3.63226
3.58238
3.53748
3.48377
3.41323
3.33358
3.24753
3.17314
3.12492
3.09045
3.06301
3.03485
2.9985
2.9585
2.91097
2.8445
2.76247
2.68065
2.62769
2.59651
2.56934
2.54536
2.52243
2.49501
2.46332
2.41557
2.3501
2.256
3.6388
2.40248
1.67899
1.20748
1.01269
0.890012
0.743962
0.604179
0.561689
0.572566
0.597355
0.651949
0.751114
0.839355
0.876347
0.928151
1.00147
1.06286
1.12521
1.20933
1.2875
1.31404
1.31796
1.30385
1.29233
1.29389
1.30469
1.32719
1.34029
1.33819
1.34789
1.44751
1.9427
3.94535
6.28892
6.53311
6.32567
6.21347
6.16893
6.13823
6.04286
5.91871
5.7741
5.65677
5.56488
5.48841
5.42732
5.35955
5.2617
5.14058
4.99775
4.87896
4.80042
4.73567
4.68293
4.6332
4.5715
4.48888
4.38374
4.26273
4.16445
4.09288
4.03532
3.98564
3.93372
3.87328
3.7947
3.69333
3.59863
3.53375
3.47555
3.42486
3.39185
3.35572
3.30978
3.24634
3.15876
3.0813
3.03881
3.00212
2.9612
2.91706
2.87134
2.83101
2.7876
2.72672
2.64701
2.59024
2.56104
2.53546
2.50755
2.47578
2.43889
2.39735
2.35821
2.28422
4.20393
3.17138
2.4242
1.81891
1.47281
1.28413
1.13795
0.982349
0.841004
0.750254
0.720507
0.714508
0.722212
0.739239
0.752783
0.770658
0.824884
0.895319
0.967584
1.07069
1.17165
1.21999
1.25945
1.27405
1.27843
1.28922
1.3075
1.34124
1.35524
1.35993
1.45621
1.99243
2.79282
3.26928
4.69363
5.85787
6.21463
6.28274
6.1848
6.10589
5.97436
5.88319
5.75647
5.62635
5.53452
5.45392
5.39269
5.32578
5.23555
5.13788
5.0195
4.88207
4.78028
4.71666
4.66397
4.61941
4.56929
4.49889
4.40986
4.28242
4.14532
4.05949
4.00296
3.95138
3.90438
3.85733
3.80161
3.71992
3.60206
3.49906
3.43977
3.4003
3.37233
3.35365
3.32741
3.28411
3.21867
3.11503
3.021
2.96543
2.91867
2.87464
2.8409
2.81408
2.7865
2.75164
2.69277
2.60705
2.54829
2.51792
2.4881
2.45418
2.41703
2.38185
2.35597
2.30317
4.67059
3.76794
3.03111
2.42749
2.02532
1.67338
1.43712
1.31781
1.19366
1.02914
0.881854
0.821741
0.785828
0.772809
0.778451
0.787873
0.779886
0.774972
0.790798
0.85513
0.969803
1.07132
1.15039
1.20242
1.22361
1.23125
1.26052
1.28797
1.32376
1.4432
1.95654
2.79064
3.37999
3.33576
3.51858
4.37381
5.3917
5.97577
6.16412
6.14511
6.00397
5.88392
5.73839
5.60546
5.52225
5.44952
5.3692
5.29265
5.21038
5.12914
5.0395
4.92046
4.79117
4.71204
4.65372
4.59933
4.54204
4.47755
4.40058
4.29483
4.1584
4.04615
3.97864
3.92701
3.87862
3.82869
3.77505
3.70614
3.60118
3.48629
3.4285
3.39442
3.36694
3.34868
3.32203
3.28262
3.23313
3.15097
3.02946
2.93632
2.88476
2.84843
2.82065
2.796
2.77223
2.74698
2.71208
2.65053
2.56413
2.50022
2.46395
2.43164
2.40048
2.37314
2.35308
2.30973
4.97951
4.20903
3.49719
2.90312
2.50869
2.14794
1.77535
1.56974
1.46906
1.34097
1.19913
1.04424
0.948841
0.917552
0.903246
0.881517
0.845062
0.806326
0.784503
0.787286
0.810215
0.856913
0.919283
1.01226
1.10074
1.14925
1.20544
1.23496
1.33617
1.86322
2.75043
3.1848
3.41468
3.39391
3.31944
3.41938
4.01853
5.0986
5.75772
5.98945
6.00561
5.88859
5.73087
5.59211
5.48361
5.38885
5.31577
5.25399
5.19009
5.11538
5.03846
4.93992
4.80685
4.68346
4.60697
4.54451
4.48811
4.43297
4.37001
4.29291
4.19074
4.06801
3.96405
3.89573
3.8444
3.79736
3.74929
3.69468
3.6231
3.52689
3.43481
3.38477
3.35005
3.32195
3.29678
3.26306
3.21954
3.159
3.06531
2.95077
2.87205
2.83108
2.80099
2.77442
2.75044
2.72722
2.70143
2.66373
2.5959
2.50483
2.44314
2.41101
2.38828
2.3687
2.35175
2.3122
5.21808
4.54107
3.88992
3.29787
2.87557
2.52236
2.18417
1.92522
1.69018
1.53283
1.4419
1.34315
1.21847
1.06567
0.99186
0.961307
0.92595
0.895507
0.86699
0.832917
0.811372
0.807336
0.814904
0.84497
0.909233
0.988279
1.07374
1.20321
1.70316
2.54357
3.11355
3.23414
3.34198
3.35068
3.32141
3.28703
3.34508
3.78577
4.68632
5.50698
5.79472
5.81562
5.71368
5.6018
5.49648
5.36475
5.27277
5.2062
5.14375
5.07121
5.00026
4.92515
4.82283
4.68901
4.56714
4.4876
4.42712
4.37712
4.32743
4.26732
4.19522
4.10349
3.99236
3.88653
3.81286
3.76309
3.71943
3.67569
3.62742
3.56407
3.47395
3.38084
3.32833
3.29353
3.2647
3.23383
3.19459
3.14675
3.08483
2.99828
2.89593
2.82411
2.78529
2.75763
2.73267
2.70738
2.68042
2.64967
2.60119
2.51732
2.43431
2.39654
2.37497
2.35603
2.3448
2.30742
5.38252
4.77301
4.17801
3.64367
3.21568
2.81091
2.47105
2.24796
2.02499
1.76715
1.58505
1.52949
1.44558
1.32274
1.18537
1.07987
1.04157
1.02398
0.99713
0.952947
0.892148
0.834887
0.819028
0.828418
0.838645
0.859371
0.923368
1.34404
2.23544
2.68624
2.93277
2.99043
3.06488
3.16559
3.24866
3.26095
3.2397
3.2382
3.48685
4.26188
5.1535
5.53679
5.65367
5.60432
5.52958
5.41956
5.28331
5.1455
5.04298
4.97698
4.93212
4.8843
4.8141
4.72159
4.59482
4.46458
4.37599
4.31586
4.2666
4.22171
4.16953
4.10852
4.03178
3.92913
3.81286
3.73148
3.68495
3.64644
3.60864
3.56685
3.50799
3.42053
3.32347
3.25452
3.20909
3.17494
3.14791
3.11715
3.07874
3.02606
2.95084
2.85786
2.78041
2.73714
2.71
2.68874
2.6687
2.63903
2.59531
2.52921
2.45399
2.39731
2.36601
2.34387
2.33058
2.29712
5.51227
4.95748
4.41168
3.91133
3.50419
3.10697
2.73286
2.4786
2.28123
2.05034
1.84694
1.68988
1.56947
1.4943
1.41299
1.31075
1.18582
1.10951
1.08006
1.04778
1.00638
0.959415
0.892512
0.85062
0.852366
0.887647
1.17208
1.91641
2.41724
2.473
2.49221
2.55857
2.67733
2.82646
2.94831
3.04153
3.06264
3.07906
3.0976
3.24145
3.84471
4.70219
5.27778
5.48669
5.5282
5.45835
5.34443
5.16639
4.98544
4.90816
4.85564
4.81986
4.7818
4.72364
4.64448
4.51927
4.37419
4.27307
4.20834
4.15744
4.11806
4.07838
4.02821
3.96113
3.85658
3.73443
3.65762
3.61374
3.57567
3.53863
3.49793
3.4405
3.34702
3.24277
3.17901
3.13893
3.10555
3.07703
3.0488
3.01657
2.9735
2.89965
2.79933
2.73082
2.6925
2.65855
2.62143
2.58334
2.54695
2.51312
2.47266
2.42392
2.37635
2.34449
2.32852
2.29592
5.59827
5.09466
4.59767
4.1309
3.7356
3.36124
3.008
2.7281
2.48147
2.26241
2.09924
1.94016
1.75404
1.60223
1.54794
1.48661
1.39508
1.2888
1.18123
1.12815
1.11306
1.08716
1.02439
0.955454
0.968661
1.19368
1.88833
2.40882
2.43918
2.41305
2.38729
2.37656
2.38054
2.41949
2.4793
2.55389
2.65967
2.76317
2.85004
2.89985
3.00248
3.42608
4.26183
4.93311
5.27308
5.41172
5.35209
5.20795
5.00623
4.86185
4.79716
4.75738
4.73851
4.70208
4.64786
4.56799
4.4306
4.26887
4.16652
4.10939
4.06395
4.02745
3.99165
3.9442
3.88071
3.77409
3.65056
3.58079
3.5397
3.5019
3.4645
3.42133
3.36142
3.27326
3.17644
3.10868
3.06768
3.03836
3.0153
2.99142
2.96009
2.90848
2.82742
2.73878
2.67589
2.63145
2.59151
2.55196
2.51716
2.48962
2.46468
2.43682
2.40087
2.35827
2.32707
2.27323
5.67369
5.21385
4.75557
4.33626
3.94729
3.56174
3.23955
2.97525
2.71682
2.45892
2.28422
2.13885
1.96947
1.80831
1.69002
1.58864
1.52222
1.45824
1.37732
1.26765
1.18011
1.14857
1.11765
1.12255
1.34388
1.9828
2.59242
2.63726
2.55599
2.4753
2.43396
2.40039
2.36528
2.32128
2.29489
2.28045
2.29936
2.36641
2.44792
2.53492
2.59302
2.66499
2.97128
3.71506
4.47868
5.05244
5.17367
5.16743
5.04887
4.89931
4.78491
4.71862
4.68752
4.66004
4.61004
4.54903
4.46113
4.32229
4.16988
4.07292
4.01845
3.97639
3.944
3.90843
3.8632
3.79586
3.68281
3.56765
3.50231
3.45999
3.42197
3.38462
3.34294
3.28677
3.20527
3.1149
3.05042
3.01068
2.97984
2.94951
2.9167
2.88018
2.82956
2.75443
2.67066
2.60678
2.56319
2.52931
2.50269
2.48093
2.45965
2.4369
2.40921
2.36793
2.31916
2.24182
5.75322
5.31378
4.88485
4.49571
4.12098
3.75025
3.4416
3.17475
2.91414
2.66362
2.48147
2.30909
2.12933
1.98796
1.87709
1.75316
1.60858
1.5492
1.51312
1.43783
1.3241
1.24544
1.25887
1.4876
2.19013
2.81896
2.88351
2.78843
2.69502
2.63737
2.58909
2.5252
2.44481
2.34693
2.27971
2.24915
2.23671
2.23084
2.23297
2.24052
2.24077
2.24299
2.26624
2.43962
2.97005
3.85547
4.52453
4.89667
4.98084
4.96892
4.84753
4.70342
4.61358
4.55686
4.52159
4.48921
4.43005
4.33459
4.21447
4.08842
3.99356
3.9359
3.8957
3.86393
3.82553
3.77595
3.70119
3.59846
3.49848
3.4309
3.38293
3.34284
3.30553
3.26521
3.21196
3.13845
3.05764
2.99392
2.94908
2.91206
2.87685
2.8413
2.80178
2.74854
2.67443
2.59597
2.54279
2.51509
2.49537
2.47701
2.4578
2.4358
2.40763
2.36211
2.30128
2.21267
5.79774
5.38049
4.98978
4.62943
4.26732
3.92276
3.63238
3.3623
3.08949
2.85903
2.66531
2.48359
2.29637
2.13457
2.02354
1.91549
1.79105
1.6633
1.58759
1.52796
1.45468
1.45823
1.71134
2.46662
3.13334
3.16901
3.04451
2.92141
2.865
2.80826
2.73797
2.65941
2.57576
2.48677
2.39236
2.31223
2.25823
2.22434
2.19622
2.1834
2.17976
2.14679
2.09383
2.03392
2.06198
2.31648
3.02234
3.8556
4.57479
4.8181
4.84738
4.75067
4.60358
4.49959
4.40548
4.34438
4.31702
4.28053
4.21323
4.13266
4.04228
3.94429
3.85672
3.79681
3.75457
3.7162
3.67145
3.60617
3.52351
3.43661
3.36425
3.31099
3.26975
3.23109
3.18942
3.13903
3.07007
2.99305
2.92759
2.87892
2.83896
2.80201
2.76465
2.72303
2.66984
2.60335
2.54244
2.50722
2.48678
2.46888
2.45068
2.42921
2.40015
2.34931
2.27736
2.1833
5.84807
5.45873
5.09619
4.75089
4.40213
4.08643
3.8048
3.52942
3.25277
3.04042
2.83566
2.64023
2.45667
2.30797
2.15846
2.0316
1.94045
1.83486
1.70742
1.61221
1.63206
1.93082
2.7591
3.48622
3.52036
3.38287
3.21676
3.10095
3.03352
2.96144
2.88704
2.81413
2.7368
2.64759
2.5388
2.42243
2.34287
2.28529
2.235
2.19049
2.15471
2.12476
2.09423
2.05451
1.97616
1.92381
1.98462
2.32611
3.11433
3.91274
4.54758
4.64334
4.62333
4.51061
4.36793
4.27614
4.21401
4.16894
4.15473
4.12131
4.06931
3.98674
3.86411
3.75948
3.69238
3.64142
3.59874
3.56178
3.51862
3.46026
3.38648
3.30492
3.24042
3.20191
3.1713
3.12763
3.06738
2.99795
2.9211
2.85231
2.80214
2.76373
2.72996
2.69674
2.66038
2.61558
2.55794
2.49971
2.47211
2.45753
2.44277
2.41985
2.38484
2.32828
2.24919
2.16246
5.87854
5.52781
5.19237
4.85445
4.52296
4.23462
3.95485
3.67049
3.41407
3.20284
2.99756
2.78355
2.60287
2.46559
2.32201
2.17051
2.04749
1.94526
1.83205
1.84497
2.19288
3.0432
3.78265
3.83368
3.70599
3.56692
3.42688
3.28935
3.18683
3.09772
3.01606
2.93921
2.86326
2.78753
2.70295
2.5854
2.45061
2.36375
2.30554
2.25201
2.1983
2.15069
2.11122
2.07197
2.01863
1.9377
1.87822
1.85411
1.95197
2.3495
3.13405
3.87329
4.32782
4.41683
4.38998
4.28119
4.15798
4.10561
4.08221
4.06989
4.03607
3.98541
3.8937
3.75321
3.6457
3.5902
3.54652
3.50766
3.476
3.44324
3.39492
3.32258
3.2456
3.17809
3.11647
3.07472
3.04187
2.9917
2.91974
2.84207
2.77583
2.73052
2.69957
2.67308
2.64603
2.61407
2.56965
2.51378
2.46204
2.42185
2.39407
2.37118
2.34397
2.29902
2.23222
2.15816
5.93156
5.60554
5.28535
4.95784
4.64746
4.36441
4.08787
3.80287
3.56913
3.35107
3.14407
2.92666
2.75988
2.60535
2.45917
2.31389
2.17209
2.04944
2.09077
2.54455
3.45916
4.09393
4.1315
4.00312
3.87829
3.77047
3.64757
3.49533
3.34128
3.23279
3.14341
3.05906
2.98105
2.90863
2.83322
2.74067
2.61666
2.48665
2.39422
2.32947
2.27107
2.2135
2.15899
2.1099
2.06713
2.01337
1.93213
1.83624
1.80496
1.79711
1.90936
2.35099
3.08183
3.77784
4.15047
4.23407
4.14759
4.06365
4.02413
3.99398
3.96865
3.93033
3.87528
3.7673
3.63706
3.559
3.51384
3.47405
3.4376
3.40145
3.36158
3.31227
3.24297
3.15781
3.08602
3.03569
2.98414
2.93256
2.88513
2.83068
2.7681
2.71366
2.67934
2.65099
2.62146
2.59206
2.55926
2.51577
2.45553
2.3963
2.35552
2.32473
2.29864
2.26723
2.22863
2.17163
5.99698
5.68042
5.3595
5.04601
4.76041
4.47992
4.19752
3.93282
3.711
3.49136
3.27433
3.06726
2.91139
2.74677
2.58875
2.43236
2.28805
2.36444
2.98047
4.07205
4.53557
4.47462
4.29313
4.14558
4.06365
3.97032
3.85165
3.70559
3.52432
3.36469
3.25967
3.17197
3.09023
3.01156
2.93116
2.84535
2.74437
2.61862
2.49721
2.40997
2.34226
2.28039
2.22258
2.17049
2.12287
2.07219
2.01032
1.92746
1.83012
1.76355
1.74806
1.75393
1.88319
2.34654
3.04393
3.71648
3.96589
3.96064
3.98072
3.95189
3.9026
3.85396
3.80133
3.73117
3.63522
3.54632
3.49322
3.45268
3.41223
3.37143
3.3305
3.28268
3.21851
3.13713
3.0582
2.99384
2.93841
2.88893
2.84469
2.80556
2.7657
2.71678
2.66379
2.63545
2.61648
2.59078
2.55608
2.50984
2.45051
2.39402
2.34666
2.30351
2.26228
2.22968
2.21826
2.18909
6.04187
5.73471
5.42165
5.12964
4.85377
4.58347
4.30665
4.07079
3.8435
3.62711
3.39944
3.21872
3.04481
2.87613
2.71125
2.55524
2.67567
3.40105
4.645
5.12421
4.9343
4.65859
4.44748
4.31702
4.23636
4.13879
4.01639
3.87979
3.71459
3.52535
3.38054
3.27795
3.18845
3.10524
3.02485
2.94396
2.85696
2.74988
2.61777
2.4977
2.41352
2.3472
2.28766
2.23323
2.18234
2.13093
2.07384
1.99991
1.90461
1.81703
1.75378
1.71415
1.70323
1.71555
1.87049
2.33678
2.98703
3.47356
3.77948
3.84935
3.83668
3.80981
3.74542
3.68334
3.61092
3.51962
3.45309
3.41709
3.3822
3.34322
3.30203
3.25295
3.18988
3.11288
3.02799
2.95008
2.89046
2.84499
2.8091
2.77849
2.74888
2.71282
2.66682
2.62034
2.57374
2.53293
2.49418
2.45385
2.41849
2.38583
2.34617
2.29616
2.25266
2.22643
2.20665
2.16342
6.06204
5.77099
5.48647
5.21558
4.94528
4.67237
4.42207
4.19826
3.97065
3.74202
3.52961
3.3525
3.15773
2.99247
2.84317
3.0283
3.95203
5.00274
5.57449
5.47521
5.19979
4.92612
4.66344
4.49807
4.39035
4.28251
4.15923
4.02942
3.88378
3.70188
3.5126
3.38044
3.28198
3.19464
3.11241
3.0309
2.94644
2.85051
2.73185
2.60339
2.49792
2.41783
2.34977
2.28629
2.22678
2.17249
2.12121
2.06241
1.98242
1.89507
1.81601
1.76015
1.71045
1.67514
1.65766
1.67409
1.83477
2.2218
2.82994
3.29665
3.58019
3.67306
3.71011
3.69638
3.63322
3.53368
3.42792
3.35589
3.31896
3.28924
3.25796
3.21832
3.16689
3.09641
3.00102
2.90713
2.84657
2.81188
2.78688
2.76128
2.72997
2.6929
2.65016
2.59785
2.54356
2.49576
2.45425
2.4182
2.39032
2.36581
2.33718
2.29873
2.25834
2.22383
2.1966
2.15088
6.14616
5.84857
5.57749
5.31378
5.04762
4.77836
4.54269
4.3099
4.08608
3.85016
3.66299
3.45224
3.27943
3.16725
3.49234
4.71528
5.66577
5.86453
5.82338
5.62174
5.42543
5.21248
4.94088
4.69252
4.53856
4.41386
4.28967
4.15899
4.02206
3.86415
3.67437
3.49936
3.37695
3.28014
3.19085
3.10299
3.01368
2.91871
2.81053
2.69123
2.58645
2.50741
2.43999
2.37284
2.3016
2.22555
2.15016
2.07947
2.01454
1.95357
1.8925
1.84124
1.78818
1.73723
1.67783
1.63749
1.59945
1.6092
1.73569
2.13206
2.66104
3.14137
3.4244
3.57297
3.57691
3.53978
3.4343
3.3164
3.25677
3.2247
3.19206
3.15784
3.1218
3.06899
2.97693
2.87437
2.81737
2.7905
2.77042
2.74707
2.71585
2.67635
2.63003
2.57147
2.50429
2.45352
2.42083
2.39515
2.37059
2.34605
2.3217
2.29192
2.2533
2.21462
2.1765
2.10895
6.21861
5.92993
5.65909
5.39519
5.12406
4.87541
4.64154
4.41372
4.16908
3.96443
3.75399
3.56599
3.52333
4.00891
5.47278
6.58206
6.45478
6.19094
5.92703
5.76631
5.63338
5.43488
5.18216
4.90732
4.70553
4.55548
4.41467
4.27399
4.13145
3.98047
3.81216
3.63866
3.49362
3.3787
3.27691
3.1782
3.07845
2.9752
2.8655
2.75019
2.64364
2.5621
2.49913
2.4404
2.3779
2.30681
2.22442
2.12997
2.03312
1.95448
1.90853
1.87587
1.83854
1.79831
1.74968
1.69516
1.6281
1.56537
1.5204
1.53561
1.66836
2.07057
2.6
3.10943
3.3816
3.4137
3.38283
3.27859
3.19538
3.17012
3.14048
3.11054
3.08381
3.03361
2.94703
2.86579
2.81788
2.77924
2.74633
2.72216
2.69892
2.67483
2.63504
2.55712
2.46318
2.42193
2.40465
2.38593
2.36332
2.33639
2.30496
2.27385
2.24498
2.20756
2.16249
2.08563
6.19131
6.00689
5.7319
5.46106
5.20374
4.96609
4.74038
4.49856
4.25746
4.06972
3.86127
3.94969
4.68097
6.07288
7.15854
7.15902
6.76872
6.39546
6.13301
5.97298
5.82804
5.62445
5.38691
5.13225
4.89751
4.71103
4.54708
4.38811
4.23197
4.0768
3.91782
3.75559
3.60504
3.47805
3.36725
3.26151
3.15508
3.04578
2.93384
2.82088
2.70976
2.60995
2.53078
2.4673
2.40838
2.3478
2.28026
2.20142
2.1136
2.01832
1.93207
1.87551
1.83876
1.80862
1.77876
1.74264
1.68262
1.60639
1.53652
1.49823
1.48076
1.50527
1.67347
2.06794
2.58432
2.97946
3.212
3.21599
3.17527
3.15173
3.1066
3.06036
3.00843
2.94289
2.89449
2.86599
2.82714
2.77491
2.73351
2.70292
2.67311
2.6339
2.5697
2.48038
2.43098
2.41712
2.40211
2.38146
2.35678
2.32804
2.2955
2.25811
2.20797
2.15214
2.10816
2.05291
5.59012
6.0547
5.83974
5.53827
5.2966
5.05964
4.8454
4.56998
4.37002
4.21103
4.47915
5.62803
6.97299
7.59406
7.62536
7.32388
6.98949
6.69279
6.41412
6.18618
5.98531
5.77094
5.5431
5.30971
5.07733
4.8676
4.68313
4.51184
4.34681
4.18426
4.0206
3.85534
3.69705
3.55746
3.43747
3.32815
3.22216
3.11586
3.00786
2.89793
2.78597
2.67608
2.57754
2.49545
2.42454
2.35912
2.29764
2.23607
2.16516
2.07945
1.99344
1.92483
1.87194
1.82588
1.78175
1.74229
1.70325
1.65501
1.58983
1.52647
1.47725
1.46789
1.45656
1.48561
1.65667
1.98891
2.4746
2.79293
3.01904
3.0795
3.08597
3.06733
2.99914
2.92416
2.8833
2.83879
2.77131
2.73912
2.72626
2.70617
2.66933
2.61116
2.52632
2.44588
2.40485
2.3806
2.36485
2.35919
2.35076
2.32799
2.29707
2.25027
2.18607
2.12499
2.07625
2.02153
3.57903
5.67483
5.89823
5.6532
5.37703
5.1684
4.9042
4.67763
4.61673
5.15389
6.63632
8.10582
8.22826
7.98006
7.69209
7.43649
7.23093
6.99551
6.70846
6.40493
6.13944
5.90469
5.68104
5.45969
5.2354
5.01696
4.81815
4.6364
4.46335
4.29338
4.1234
3.95462
3.79232
3.64218
3.50678
3.38473
3.272
3.16447
3.0588
2.95308
2.84615
2.73827
2.63298
2.53732
2.45561
2.38627
2.32272
2.25714
2.18502
2.11019
2.0353
1.96769
1.91276
1.86533
1.81725
1.76471
1.70394
1.65102
1.60778
1.56218
1.51918
1.48151
1.44799
1.42203
1.39582
1.42485
1.57334
1.92059
2.37239
2.68172
2.89593
2.9679
2.95216
2.92122
2.89295
2.84612
2.77071
2.72801
2.69681
2.65578
2.60745
2.54223
2.47304
2.42971
2.40018
2.37411
2.35293
2.33353
2.30904
2.28248
2.25018
2.20551
2.15401
2.10007
2.05196
2.00632
1.52545
4.13387
5.66788
5.74649
5.50929
5.2527
4.99095
5.15941
6.17929
7.66841
8.8298
9.06982
8.68417
8.17925
7.82919
7.62583
7.45297
7.21696
6.92607
6.60338
6.30548
6.05373
5.82388
5.6009
5.38024
5.16312
4.95403
4.75464
4.56335
4.37914
4.20289
4.03658
3.87965
3.72936
3.58484
3.44915
3.32551
3.21187
3.10219
2.99296
2.88475
2.78159
2.68323
2.59069
2.50472
2.42317
2.34633
2.28104
2.22079
2.15058
2.06911
1.99342
1.93268
1.88035
1.83348
1.78699
1.73368
1.67864
1.62704
1.58165
1.53756
1.49748
1.46208
1.42576
1.39344
1.3568
1.31559
1.35151
1.51492
1.89343
2.34169
2.70307
2.73687
2.78204
2.79202
2.76557
2.739
2.70414
2.65436
2.60923
2.56271
2.49887
2.44394
2.41377
2.38655
2.35313
2.31712
2.29482
2.27688
2.25644
2.2257
2.18305
2.13076
2.06588
2.02406
2.00933
1.02622
1.86241
4.48098
5.62969
5.55688
5.37967
5.94023
7.58515
9.12005
9.38359
9.39914
9.25184
8.90869
8.48453
8.13026
7.89863
7.66911
7.40125
7.1064
6.7922
6.48621
6.21292
5.96654
5.73327
5.50637
5.28435
5.06679
4.85348
4.64699
4.45141
4.27071
4.10611
3.95384
3.8074
3.66218
3.51783
3.37898
3.25344
3.14509
3.04727
2.94853
2.84883
2.75318
2.66298
2.57546
2.4889
2.40078
2.30997
2.21969
2.14904
2.1039
2.05376
1.99141
1.92437
1.859
1.79728
1.75208
1.71342
1.66573
1.62271
1.58217
1.5412
1.4963
1.45317
1.40936
1.35492
1.31253
1.28938
1.28158
1.33307
1.51965
1.90925
2.28773
2.60863
2.69526
2.67147
2.6506
2.6265
2.58191
2.5448
2.50974
2.47446
2.44776
2.4163
2.37611
2.32994
2.29547
2.27196
2.24917
2.21927
2.18195
2.14272
2.1017
2.05739
2.03783
2.07159
1.00031
1.06267
2.2206
4.69363
5.41461
7.03463
9.16514
10.3981
10.3734
10.0008
9.60026
9.37888
9.13594
8.77937
8.40498
8.12096
7.8434
7.54667
7.24583
6.94239
6.63941
6.35361
6.09264
5.8496
5.61657
5.38854
5.16236
4.93749
4.719
4.51663
4.3357
4.17301
4.0209
3.87218
3.72344
3.57656
3.43716
3.30908
3.19039
3.07735
2.96947
2.86624
2.76848
2.67669
2.5907
2.50892
2.42564
2.33647
2.25148
2.17913
2.11109
2.04458
1.98541
1.92967
1.87305
1.81735
1.76041
1.69961
1.6426
1.59787
1.56339
1.53358
1.50094
1.46677
1.42589
1.3732
1.32748
1.29033
1.25581
1.23911
1.24642
1.31683
1.54164
1.90733
2.22361
2.44524
2.57876
2.57669
2.56689
2.54596
2.50196
2.45074
2.40764
2.36056
2.3082
2.2697
2.2443
2.22284
2.19967
2.17932
2.1567
2.13271
2.09609
2.10149
2.15494
2.49756
1
1.00107
1.12291
2.41286
6.43989
10.9954
11.4384
11.2287
10.7176
10.1862
9.877
9.65383
9.42255
9.07445
8.68719
8.38053
8.08992
7.78569
7.47961
7.17591
6.86886
6.5721
6.30058
6.04904
5.80827
5.57312
5.33996
5.10879
4.8858
4.68008
4.49435
4.32397
4.16216
4.00356
3.84659
3.694
3.54971
3.41394
3.28451
3.16188
3.04777
2.94045
2.84023
2.74738
2.66081
2.57736
2.49246
2.40621
2.31854
2.22735
2.14062
2.06776
2.00568
1.94904
1.89336
1.83392
1.77085
1.70807
1.64947
1.59989
1.56676
1.54838
1.52875
1.50123
1.46749
1.42593
1.37075
1.30123
1.24912
1.2198
1.20104
1.19289
1.20841
1.27979
1.49616
1.81157
2.15021
2.31313
2.46803
2.49158
2.47924
2.45279
2.40903
2.34865
2.28951
2.24718
2.21155
2.18043
2.16534
2.16324
2.15886
2.18374
2.28171
2.51052
2.82059
3.35099
1
1
1.00226
1.4014
8.89978
12.9595
11.8476
11.1231
10.6515
10.2855
10.0523
9.85666
9.60693
9.25042
8.85695
8.50503
8.18153
7.85985
7.53042
7.2116
6.90041
6.59324
6.30971
6.04799
5.79743
5.55296
5.31288
5.0784
4.85494
4.64829
4.45871
4.28233
4.11485
3.95299
3.7958
3.64489
3.50226
3.36805
3.24116
3.12057
3.00535
2.89599
2.79431
2.70112
2.61494
2.53301
2.45227
2.36962
2.28488
2.20239
2.12847
2.06507
2.00788
1.95342
1.89983
1.84462
1.78695
1.72634
1.66633
1.61686
1.57681
1.53805
1.50235
1.47092
1.4398
1.40498
1.36243
1.30749
1.25502
1.21868
1.19415
1.17684
1.16061
1.14109
1.15547
1.23233
1.46741
1.80479
2.15315
2.29248
2.3364
2.35983
2.34997
2.32123
2.27428
2.23032
2.20816
2.1776
2.18097
2.23889
2.4138
2.71842
3.10199
3.43248
3.69067
3.82028
1
1
1.00002
2.27606
9.43618
11.7252
11.117
10.8769
10.6641
10.4734
10.3005
10.1001
9.73211
9.31941
8.96612
8.65726
8.36219
8.05747
7.71241
7.35656
7.0281
6.71789
6.42803
6.15692
5.8984
5.64499
5.39276
5.14555
4.91299
4.70116
4.50823
4.3289
4.15821
3.99217
3.82935
3.67203
3.52466
3.38939
3.26469
3.14639
3.03103
2.91958
2.81391
2.71513
2.6239
2.5392
2.45745
2.3748
2.29128
2.21022
2.13612
2.07412
2.02239
1.97365
1.92414
1.87333
1.82147
1.76371
1.70343
1.64394
1.58737
1.54119
1.50278
1.46897
1.43771
1.40462
1.36467
1.31581
1.26942
1.23631
1.20998
1.1828
1.15638
1.13376
1.11834
1.10919
1.1323
1.24351
1.47931
1.79508
2.0859
2.25917
2.27687
2.24735
2.21704
2.22713
2.26064
2.35395
2.55427
2.90498
3.33054
3.69907
3.95708
4.04151
4.06526
4.00752
1
1
1
3.14374
9.75726
11.0373
10.9892
10.9173
10.7873
10.5959
10.3927
10.1109
9.73356
9.3651
9.03709
8.72651
8.41601
8.08749
7.71419
7.33746
7.01189
6.73522
6.45884
6.19018
5.92536
5.65865
5.39397
5.14539
4.92212
4.72184
4.53719
4.36117
4.1878
4.01254
3.83768
3.67378
3.52907
3.40154
3.28473
3.17197
3.0574
2.93926
2.82201
2.7152
2.62354
2.54306
2.467
2.38973
2.30879
2.22375
2.13937
2.06496
2.00328
1.95013
1.90181
1.85429
1.80253
1.74388
1.6812
1.62342
1.5775
1.53896
1.50371
1.46959
1.43592
1.40155
1.36397
1.32806
1.29078
1.2475
1.22085
1.19874
1.1739
1.14999
1.12756
1.10796
1.08516
1.07998
1.11156
1.24557
1.50324
1.79914
2.02658
2.18443
2.3862
2.61867
2.85348
3.10033
3.39748
3.71832
3.89558
4.02157
4.15768
4.15147
4.09003
3.97237
1
1
1
3.21826
9.86261
10.8541
10.851
10.8473
10.8
10.6768
10.4924
10.2137
9.9021
9.57405
9.23448
8.88778
8.5389
8.17076
7.80426
7.4418
7.11051
6.82047
6.52293
6.23493
5.94999
5.66616
5.39416
5.14864
4.9327
4.73926
4.55895
4.38295
4.20401
4.01908
3.835
3.66749
3.5263
3.40623
3.29684
3.18878
3.07317
2.94668
2.81953
2.70886
2.61901
2.54197
2.4703
2.39868
2.32167
2.23318
2.13917
2.05809
1.99491
1.94369
1.89778
1.85272
1.80369
1.74737
1.68343
1.6209
1.57333
1.53656
1.50502
1.47325
1.4367
1.39778
1.36027
1.32607
1.29281
1.25854
1.22155
1.17983
1.14856
1.1247
1.10335
1.08043
1.05671
1.04059
1.01762
1.02331
1.07224
1.25403
1.61629
2.17867
2.78696
3.33623
3.82085
4.21499
4.56738
4.75402
4.67862
4.50879
4.33556
4.17677
4.04769
3.90058
)
;

boundaryField
{
    inlet
    {
        type            fixedValue;
        value           uniform 1;
    }
    outlet
    {
        type            zeroGradient;
    }
    bottom
    {
        type            symmetryPlane;
    }
    top
    {
        type            symmetryPlane;
    }
    obstacle
    {
        type            zeroGradient;
    }
    defaultFaces
    {
        type            empty;
    }
}


// ************************************************************************* //
