/*--------------------------------*- C++ -*----------------------------------*\
  =========                 |
  \\      /  F ield         | OpenFOAM: The Open Source CFD Toolbox
   \\    /   O peration     | Website:  https://openfoam.org
    \\  /    A nd           | Version:  7
     \\/     M anipulation  |
\*---------------------------------------------------------------------------*/
FoamFile
{
    version     2.0;
    format      ascii;
    class       volScalarField;
    location    "3";
    object      rho;
}
// * * * * * * * * * * * * * * * * * * * * * * * * * * * * * * * * * * * * * //

dimensions      [1 -3 0 0 0 0 0];

internalField   nonuniform List<scalar> 
4032
(
1.40001
1.40001
1.40001
1.40001
1.40001
1.40001
1.40001
1.40001
1.40001
1.40001
1.40001
1.45788
4.12208
5.44473
5.5111
5.58814
5.65868
5.72298
5.77933
5.8282
5.8718
5.90836
5.938
5.96029
1.40001
1.40001
1.40001
1.40001
1.40001
1.40001
1.40001
1.40001
1.40001
1.40001
1.40001
1.42908
4.06056
5.43349
5.50078
5.57746
5.64813
5.71167
5.76654
5.81311
5.85397
5.88763
5.9143
5.93481
1.40001
1.40001
1.40001
1.40001
1.40001
1.40001
1.40001
1.40001
1.40001
1.40001
1.40001
1.40193
3.92496
5.41654
5.48412
5.55841
5.62812
5.68989
5.74281
5.78716
5.82593
5.85805
5.88278
5.90366
1.40001
1.40001
1.40001
1.40001
1.40001
1.40001
1.40001
1.40001
1.40001
1.40001
1.40001
1.40003
3.70873
5.3776
5.45626
5.52728
5.59646
5.6568
5.70835
5.75093
5.78704
5.81462
5.83248
5.84604
1.40001
1.40001
1.40001
1.40001
1.40001
1.40001
1.40001
1.40001
1.40001
1.40001
1.40001
1.40001
3.41954
5.31541
5.42293
5.48931
5.55575
5.61138
5.65726
5.69253
5.72075
5.74321
5.75814
5.77867
1.40001
1.40001
1.40001
1.40001
1.40001
1.40001
1.40001
1.40001
1.40001
1.40001
1.40001
1.40001
3.06272
5.22081
5.39099
5.44903
5.50762
5.55464
5.59293
5.62191
5.64501
5.66433
5.67149
5.66144
1.40001
1.40001
1.40001
1.40001
1.40001
1.40001
1.40001
1.40001
1.40001
1.40001
1.40001
1.40001
2.65253
5.08676
5.3875
5.42685
5.47074
5.50281
5.52406
5.53567
5.5362
5.5188
5.49667
5.48591
1.40001
1.40001
1.40001
1.40001
1.40001
1.40001
1.40001
1.40001
1.40001
1.40001
1.40001
1.40001
2.18334
4.89008
5.4082
5.41299
5.43732
5.45171
5.4522
5.44338
5.41695
5.37762
5.31736
5.28574
1.40001
1.40001
1.40001
1.40001
1.40001
1.40001
1.40001
1.40001
1.40001
1.40001
1.40001
1.40001
1.69385
4.61006
5.44915
5.39709
5.40368
5.39551
5.37166
5.33881
5.27245
5.1632
4.84937
4.00133
1.40001
1.40001
1.40001
1.40001
1.40001
1.40001
1.40001
1.40001
1.40001
1.40001
1.40001
1.40001
1.42161
4.03516
5.33584
5.30787
5.32903
5.31748
5.28088
5.22378
5.11586
4.92371
4.59415
3.69638
1.40001
1.40001
1.40001
1.40001
1.40001
1.40001
1.40001
1.40001
1.40001
1.40001
1.40001
1.40001
1.4
3.25066
5.11599
5.27191
5.2888
5.26015
5.2053
5.11687
4.97702
4.73718
4.38737
3.56254
1.40001
1.40001
1.40001
1.40001
1.40001
1.40001
1.40001
1.40001
1.40001
1.40001
1.40001
1.40001
1.4
2.4216
4.86439
5.23202
5.21669
5.191
5.1321
5.01932
4.85229
4.60386
4.21588
3.53812
1.40001
1.40001
1.40001
1.40001
1.40001
1.40001
1.40001
1.40001
1.40001
1.40001
1.40001
1.40001
1.4
1.65462
4.5246
5.28558
5.17856
5.11664
5.04255
4.92143
4.74396
4.50079
4.10348
3.5781
1.40001
1.40001
1.40001
1.40001
1.40001
1.40001
1.40001
1.40001
1.40001
1.40001
1.40001
1.40001
1.4
1.41118
3.71888
5.02797
5.03758
5.02005
4.94905
4.82873
4.65943
4.40775
4.04774
3.62631
1.40001
1.40001
1.40001
1.40001
1.40001
1.40001
1.40001
1.40001
1.40001
1.40001
1.40001
1.40001
1.40001
1.39989
2.60439
4.79799
5.02316
4.98612
4.89825
4.76613
4.5983
4.34797
4.03803
3.68517
1.40001
1.40001
1.40001
1.40001
1.40001
1.40001
1.40001
1.40001
1.40001
1.40001
1.40001
1.40001
1.40001
1.39998
1.65495
4.3592
5.06107
4.96109
4.84686
4.70172
4.53433
4.30014
4.03189
3.72844
1.40001
1.40001
1.40001
1.40001
1.40001
1.40001
1.40001
1.40001
1.40001
1.40001
1.40001
1.40001
1.40001
1.4
1.40865
3.32326
4.89903
4.88263
4.79082
4.6583
4.48798
4.27299
4.03497
3.76658
1.40001
1.40001
1.40001
1.40001
1.40001
1.40001
1.40001
1.40001
1.40001
1.40001
1.40001
1.40001
1.40001
1.4
1.39995
2.00362
4.66693
4.93148
4.79715
4.64963
4.46669
4.25686
4.03468
3.7908
1.40001
1.40001
1.40001
1.40001
1.40001
1.40001
1.40001
1.40001
1.40001
1.40001
1.40001
1.40001
1.40001
1.40001
1.39999
1.45475
3.72085
4.85718
4.76307
4.62757
4.45265
4.25159
4.0406
3.81745
1.40001
1.40001
1.40001
1.40001
1.40001
1.40001
1.40001
1.40001
1.40001
1.40001
1.40001
1.40001
1.40001
1.40001
1.4
1.4002
2.26664
4.62127
4.78348
4.64351
4.47038
4.27641
4.07494
3.86505
1.40001
1.40001
1.40001
1.40001
1.40001
1.40001
1.40001
1.40001
1.40001
1.40001
1.40001
1.40001
1.40001
1.40001
1.4
1.4
1.50929
3.73318
4.75981
4.63983
4.47766
4.29749
4.10629
3.90676
1.40001
1.40001
1.40001
1.40001
1.40001
1.40001
1.40001
1.40001
1.40001
1.40001
1.40001
1.40001
1.40001
1.40001
1.40001
1.4
1.40123
2.23348
4.45421
4.65991
4.50171
4.33208
4.14779
3.95688
1.40001
1.40001
1.40001
1.40001
1.40001
1.40001
1.40001
1.40001
1.40001
1.40001
1.40001
1.40001
1.40001
1.40001
1.40001
1.40001
1.40001
1.49778
3.49544
4.6394
4.51724
4.35147
4.1748
3.99562
1.40001
1.40001
1.40001
1.40001
1.40001
1.40001
1.40001
1.40001
1.40001
1.40001
1.40001
1.40001
1.40001
1.40001
1.40001
1.40001
1.40001
1.4012
2.0657
4.19788
4.53675
4.36999
4.20999
4.04334
1.40001
1.40001
1.40001
1.40001
1.40001
1.40001
1.40001
1.40001
1.40001
1.40001
1.40001
1.40001
1.40001
1.40001
1.40001
1.40001
1.40001
1.40001
1.4585
2.98558
4.45685
4.4115
4.25938
4.09874
1.40001
1.40001
1.40001
1.40001
1.40001
1.40001
1.40001
1.40001
1.40001
1.40001
1.40001
1.40001
1.40001
1.40001
1.40001
1.40001
1.40001
1.40001
1.40072
1.76699
3.76906
4.47377
4.32323
4.15701
1.40001
1.40001
1.40001
1.40001
1.40001
1.40001
1.40001
1.40001
1.40001
1.40001
1.40001
1.40001
1.40001
1.40001
1.40001
1.40001
1.40001
1.40001
1.40001
1.41753
2.35656
4.15213
4.36741
4.21231
1.40001
1.40001
1.40001
1.40001
1.40001
1.40001
1.40001
1.40001
1.40001
1.40001
1.40001
1.40001
1.40001
1.40001
1.40001
1.40001
1.40001
1.40001
1.40001
1.40017
1.52133
3.04889
4.28329
4.26772
1.40001
1.40001
1.40001
1.40001
1.40001
1.40001
1.40001
1.40001
1.40001
1.40001
1.40001
1.40001
1.40001
1.40001
1.40001
1.40001
1.40001
1.40001
1.40001
1.40001
1.40269
1.79858
3.58678
4.27913
1.40001
1.40001
1.40001
1.40001
1.40001
1.40001
1.40001
1.40001
1.40001
1.40001
1.40001
1.40001
1.40001
1.40001
1.40001
1.40001
1.40001
1.40001
1.40001
1.40001
1.40002
1.42154
2.20371
3.89153
1.40001
1.40001
1.40001
1.40001
1.40001
1.40001
1.40001
1.40001
1.40001
1.40001
1.40001
1.40001
1.40001
1.40001
1.40001
1.40001
1.40001
1.40001
1.40001
1.40001
1.40001
1.40025
1.4848
2.638
1.40001
1.40001
1.40001
1.40001
1.40001
1.40001
1.40001
1.40001
1.40001
1.40001
1.40001
1.40001
1.40001
1.40001
1.40001
1.40001
1.40001
1.40001
1.40001
1.40001
1.40001
1.40001
1.40172
1.61101
1.40001
1.40001
1.40001
1.40001
1.40001
1.40001
1.40001
1.40001
1.40001
1.40001
1.40001
1.40001
1.40001
1.40001
1.40001
1.40001
1.40001
1.40001
1.40001
1.40001
1.40001
1.40001
1.40001
1.40742
1.40001
1.40001
1.40001
1.40001
1.40001
1.40001
1.40001
1.40001
1.40001
1.40001
1.40001
1.40001
1.40001
1.40001
1.40001
1.40001
1.40001
1.40001
1.40001
1.40001
1.40001
1.40001
1.40001
1.40007
1.40001
1.40001
1.40001
1.40001
1.40001
1.40001
1.40001
1.40001
1.40001
1.40001
1.40001
1.40001
1.40001
1.40001
1.40001
1.40001
1.40001
1.40001
1.40001
1.40001
1.40001
1.40001
1.40001
1.40001
1.40001
1.40001
1.40001
1.40001
1.40001
1.40001
1.40001
1.40001
1.40001
1.40001
1.40001
1.40001
1.40001
1.40001
1.40001
1.40001
1.40001
1.40001
1.40001
1.40001
1.40001
1.40001
1.40001
1.40001
1.40001
1.40001
1.40001
1.40001
1.40001
1.40001
1.40001
1.40001
1.40001
1.40001
1.40001
1.40001
1.40001
1.40001
1.40001
1.40001
1.40001
1.40001
1.40001
1.40001
1.40001
1.40001
1.40001
1.40001
1.40001
1.40001
1.40001
1.40001
1.40001
1.40001
1.40001
1.40001
1.40001
1.40001
1.40001
1.40001
1.40001
1.40001
1.40001
1.40001
1.40001
1.40001
1.40001
1.40001
1.40001
1.40001
1.40001
1.40001
1.40001
1.40001
1.40001
1.40001
1.40001
1.40001
1.40001
1.40001
1.40001
1.40001
1.40001
1.40001
1.40001
1.40001
1.40001
1.40001
1.40001
1.40001
1.40001
1.40001
1.40001
1.40001
1.40001
1.40001
1.40001
1.40001
1.40001
1.40001
1.40001
1.40001
1.40001
1.40001
1.40001
1.40001
1.40001
1.40001
1.40001
1.40001
1.40001
1.40001
1.40001
1.40001
1.40001
1.40001
1.40001
1.40001
1.40001
1.40001
1.31304
0.560878
0.200669
0.175425
0.21944
0.289589
0.369407
0.478705
0.610764
0.722548
0.827013
0.888009
0.899159
0.908178
0.947184
0.995011
1.02594
1.03976
1.05159
1.05348
1.04188
1.03797
1.04699
1.07303
1.08819
1.09087
1.08652
1.07293
1.07188
1.07955
1.10058
1.11264
1.31016
2.58738
3.11673
3.12426
3.14339
3.1655
3.17148
3.16331
3.1395
3.10842
3.08193
3.05563
3.02603
2.99019
2.94887
2.90898
2.87692
2.85402
2.83495
2.80903
2.77216
2.73031
2.68571
2.64411
2.61238
2.58926
2.57793
2.56543
2.54244
2.51113
2.4745
2.43266
2.3938
2.36376
2.33994
2.32095
2.30821
2.29076
2.26602
2.23322
2.18355
2.13006
2.09542
2.07461
2.05863
2.05139
2.05331
2.04308
2.02466
2.00394
1.97352
1.92646
1.87464
1.84263
1.82684
1.81394
1.80275
1.79395
1.78149
1.76659
1.74895
1.71999
1.67599
1.63076
1.97663
1.26418
0.839804
0.631255
0.62257
0.600092
0.549335
0.542615
0.560137
0.605573
0.653349
0.716085
0.793503
0.842989
0.891902
0.948924
0.983874
1.00672
1.03163
1.06472
1.07375
1.07297
1.07569
1.07967
1.08669
1.10095
1.10798
1.10785
1.10406
1.10289
1.10578
1.1146
1.24425
2.63507
3.27084
3.24798
3.20721
3.21745
3.21747
3.20183
3.16582
3.12197
3.08602
3.06302
3.0466
3.02682
2.99763
2.95784
2.91455
2.87357
2.83512
2.80725
2.78394
2.75656
2.72527
2.69023
2.65175
2.6193
2.5928
2.56475
2.5362
2.50856
2.47834
2.44798
2.41578
2.38005
2.34728
2.32288
2.3004
2.27829
2.25739
2.23208
2.19919
2.16301
2.12455
2.09183
2.0718
2.0579
2.04655
2.03384
2.01594
1.9954
1.97086
1.93702
1.89593
1.85516
1.82914
1.81421
1.8015
1.79051
1.77978
1.76619
1.74988
1.725
1.69068
1.6416
2.4966
1.82865
1.39408
1.09231
0.963832
0.880603
0.772062
0.6659
0.637108
0.64701
0.667618
0.709352
0.786023
0.851865
0.878828
0.915454
0.962257
0.998391
1.03733
1.0924
1.14432
1.15588
1.15271
1.14108
1.13381
1.13591
1.14395
1.15717
1.16195
1.15926
1.16383
1.22318
1.5051
2.47175
3.40482
3.47628
3.40473
3.37383
3.36005
3.34883
3.311
3.26161
3.20524
3.16026
3.12503
3.09593
3.07396
3.05003
3.01298
2.96393
2.90344
2.8512
2.81522
2.78606
2.76437
2.74677
2.7256
2.69506
2.65271
2.60076
2.55651
2.52308
2.49601
2.47304
2.45024
2.42482
2.39194
2.3486
2.30697
2.27734
2.24994
2.22565
2.20979
2.19325
2.17261
2.14437
2.10508
2.07046
2.05162
2.03426
2.01369
1.99044
1.96581
1.94396
1.92102
1.88957
1.84946
1.82156
1.80756
1.79531
1.78169
1.76572
1.7466
1.72472
1.70392
1.66399
2.80329
2.27471
1.86356
1.50936
1.29321
1.17056
1.07368
0.968455
0.870039
0.80473
0.781968
0.777821
0.783824
0.797036
0.807447
0.821514
0.864012
0.91705
0.969099
1.04068
1.10735
1.13708
1.16186
1.16993
1.17143
1.17719
1.18718
1.20587
1.21471
1.21552
1.27348
1.58325
2.01332
2.25967
2.91243
3.39
3.54444
3.55335
3.50919
3.47506
3.41858
3.37814
3.32282
3.26618
3.2256
3.18969
3.16234
3.13383
3.09608
3.05395
3.0007
2.93707
2.88783
2.85575
2.82957
2.80852
2.78688
2.75786
2.72046
2.66455
2.60252
2.56215
2.5345
2.5088
2.48519
2.46202
2.43564
2.39776
2.34344
2.29562
2.26747
2.24829
2.23437
2.22469
2.21179
2.19198
2.16219
2.11402
2.06987
2.04312
2.01953
1.99595
1.97643
1.96013
1.94337
1.92348
1.89244
1.84898
1.81971
1.80466
1.78975
1.77253
1.75312
1.73405
1.71942
1.68938
3.03629
2.59669
2.21638
1.88533
1.64954
1.43608
1.28859
1.21103
1.1278
1.0142
0.909887
0.867678
0.840121
0.829167
0.833303
0.841688
0.837056
0.833771
0.846853
0.896607
0.980487
1.05324
1.10962
1.14569
1.15974
1.16417
1.18192
1.19787
1.22074
1.29665
1.60076
2.04664
2.34541
2.32541
2.41561
2.81429
3.27116
3.51428
3.58152
3.57089
3.50984
3.4585
3.39439
3.33537
3.29791
3.26474
3.22874
3.19514
3.159
3.12221
3.08022
3.02386
2.96209
2.92215
2.89193
2.86423
2.83634
2.80627
2.77127
2.72337
2.66092
2.60857
2.57577
2.54954
2.52421
2.49767
2.46937
2.4345
2.38366
2.32872
2.30074
2.28381
2.2698
2.26005
2.24631
2.22685
2.20321
2.1642
2.10582
2.06052
2.03434
2.01453
1.99786
1.98189
1.96606
1.94974
1.92939
1.89675
1.85256
1.82006
1.80152
1.78475
1.76814
1.75288
1.74109
1.7152
3.19191
2.82459
2.47084
2.15932
1.94023
1.73351
1.5123
1.38479
1.31988
1.23576
1.14004
1.03329
0.966625
0.94424
0.933975
0.918622
0.891652
0.862267
0.845776
0.848007
0.866289
0.902263
0.949225
1.01734
1.08124
1.11585
1.15513
1.17474
1.24048
1.55796
2.0393
2.25533
2.37065
2.36115
2.32531
2.37484
2.66208
3.15646
3.44223
3.53862
3.5454
3.49518
3.42735
3.36738
3.32064
3.27957
3.24714
3.21946
3.19102
3.1575
3.12201
3.07566
3.01305
2.95444
2.91642
2.88462
2.85605
2.82868
2.79842
2.7622
2.71468
2.65764
2.60869
2.5751
2.54829
2.52279
2.49635
2.46692
2.43006
2.38248
2.3376
2.31279
2.29511
2.28058
2.26738
2.25017
2.22852
2.19893
2.15322
2.09694
2.05747
2.03543
2.01787
2.00109
1.98498
1.96929
1.9529
1.93155
1.89578
1.84836
1.81599
1.79883
1.7865
1.77549
1.76553
1.74154
3.31781
2.99616
2.67756
2.3757
2.15048
1.95647
1.7639
1.6103
1.46683
1.3682
1.30913
1.24358
1.15939
1.05464
1.00322
0.981339
0.955278
0.932574
0.91091
0.885796
0.870701
0.867768
0.873641
0.896791
0.945149
1.00319
1.06477
1.154
1.46114
1.92677
2.21989
2.279
2.33643
2.34269
2.32888
2.31531
2.34648
2.56344
2.9822
3.3468
3.47443
3.48185
3.43833
3.39221
3.34781
3.29187
3.25255
3.22279
3.19481
3.16233
3.12976
3.09458
3.0465
2.98399
2.92668
2.88776
2.85679
2.83107
2.80616
2.77716
2.74349
2.70084
2.64875
2.59804
2.56102
2.53411
2.50979
2.4856
2.45975
2.42738
2.38269
2.33676
2.31046
2.29239
2.27713
2.26112
2.2412
2.21754
2.18722
2.1443
2.09267
2.0554
2.03388
2.01713
2.00115
1.98482
1.96784
1.94968
1.92314
1.87817
1.83364
1.81323
1.80142
1.79092
1.78437
1.76213
3.41028
3.12098
2.83116
2.56219
2.33944
2.12304
1.93515
1.80683
1.67568
1.5196
1.40633
1.37053
1.31613
1.23499
1.14192
1.06923
1.0425
1.03001
1.01078
0.978918
0.933924
0.890943
0.879287
0.88647
0.894167
0.909756
0.956693
1.23568
1.75194
1.99606
2.12817
2.16132
2.20335
2.25883
2.30394
2.31195
2.30399
2.31105
2.43648
2.80639
3.21173
3.38024
3.43111
3.40986
3.38015
3.33554
3.27751
3.21698
3.17046
3.13987
3.11883
3.09628
3.06305
3.01928
2.95996
2.89857
2.85521
2.82427
2.79864
2.77616
2.75146
2.72341
2.68769
2.63855
2.58127
2.53925
2.51358
2.49203
2.47136
2.44953
2.41997
2.37657
2.32826
2.29323
2.26939
2.25116
2.23691
2.22139
2.20256
2.17671
2.13888
2.09108
2.05001
2.0256
2.00923
1.99563
1.98254
1.96453
1.93963
1.90327
1.86223
1.83137
1.81433
1.80216
1.79464
1.77521
3.48499
3.2222
2.95741
2.70765
2.49851
2.28987
2.08743
1.94461
1.83118
1.69559
1.57319
1.4765
1.40079
1.35222
1.29874
1.23049
1.14609
1.0938
1.07316
1.04998
1.01983
0.985422
0.936298
0.905296
0.906696
0.932568
1.12682
1.57432
1.8564
1.89267
1.90518
1.94553
2.01397
2.09643
2.16239
2.21175
2.22827
2.24223
2.25876
2.33512
2.63115
3.034
3.29142
3.38093
3.40257
3.3741
3.32704
3.248
3.16531
3.12937
3.1047
3.08774
3.06959
3.04188
3.00424
2.94497
2.87582
2.82578
2.7921
2.76563
2.74593
2.72756
2.70474
2.67294
2.62121
2.55947
2.51907
2.49474
2.47377
2.45407
2.43334
2.40462
2.35755
2.30466
2.27174
2.25022
2.23211
2.2169
2.2025
2.18679
2.16586
2.12825
2.07534
2.03827
2.01651
1.99643
1.9742
1.95128
1.92958
1.90997
1.88726
1.86046
1.83454
1.81707
1.80828
1.78915
3.53981
3.3008
3.06002
2.82841
2.62733
2.43275
2.24413
2.09015
1.95179
1.82625
1.72995
1.6343
1.52032
1.42547
1.39052
1.35057
1.29025
1.21912
1.14619
1.10956
1.0988
1.08038
1.03553
0.985271
0.994245
1.14348
1.56001
1.85136
1.88199
1.86862
1.85443
1.85397
1.8608
1.88551
1.92245
1.96746
2.02827
2.08727
2.14142
2.1739
2.23198
2.45034
2.85755
3.16495
3.31517
3.38147
3.35557
3.28996
3.19729
3.13078
3.10088
3.08189
3.07232
3.05453
3.02889
2.99165
2.92617
2.84723
2.79532
2.76485
2.74105
2.72314
2.70671
2.6847
2.65355
2.59918
2.53548
2.49844
2.47587
2.45531
2.43548
2.41327
2.38261
2.33714
2.28708
2.25147
2.22927
2.21313
2.20052
2.18806
2.17239
2.14645
2.10423
2.05681
2.02224
1.99665
1.9728
1.94885
1.92767
1.911
1.89652
1.8811
1.86147
1.83813
1.82095
1.78961
3.59158
3.37164
3.14895
2.9411
2.74471
2.54628
2.3758
2.23247
2.08994
1.94499
1.84364
1.75792
1.65657
1.55804
1.48428
1.42002
1.37706
1.33516
1.28154
1.20794
1.14819
1.12615
1.10492
1.10727
1.24904
1.62138
1.95377
1.9917
1.95317
1.91343
1.89317
1.87547
1.85709
1.838
1.83062
1.82753
1.84066
1.88329
1.93437
1.98708
2.02523
2.07031
2.23786
2.61492
2.97851
3.24827
3.29959
3.29512
3.23856
3.17135
3.11963
3.08891
3.07267
3.05828
3.03381
3.0054
2.96479
2.8975
2.82097
2.77097
2.74213
2.72025
2.70447
2.68783
2.66597
2.63176
2.57302
2.51297
2.47826
2.45527
2.43465
2.41463
2.3926
2.36317
2.32029
2.27269
2.23831
2.21638
2.19897
2.18202
2.16424
2.14521
2.1191
2.07909
2.03326
1.99707
1.97106
1.95011
1.93339
1.91993
1.90731
1.89443
1.8793
1.85663
1.82943
1.78453
3.65132
3.43813
3.22769
3.03373
2.84437
2.65401
2.49168
2.34855
2.20654
2.06735
1.96328
1.86346
1.7578
1.67269
1.60461
1.52756
1.43649
1.39827
1.37461
1.32498
1.24865
1.19579
1.20442
1.34775
1.75059
2.08047
2.13161
2.08541
2.0391
2.01162
1.9888
1.95698
1.9167
1.86592
1.82994
1.81504
1.81434
1.81828
1.82581
1.83516
1.83942
1.84585
1.86165
1.9626
2.24831
2.69786
3.02184
3.18755
3.22941
3.22562
3.17204
3.10607
3.06169
3.03198
3.01358
2.99839
2.97162
2.92617
2.86602
2.80108
2.75183
2.72218
2.70191
2.68651
2.66779
2.64249
2.60361
2.54982
2.49733
2.46178
2.43622
2.41452
2.39433
2.37277
2.34457
2.30546
2.26192
2.22685
2.20144
2.18002
2.15993
2.14024
2.11897
2.09048
2.04973
2.00544
1.9742
1.95675
1.94388
1.93205
1.92029
1.90761
1.89195
1.86661
1.83208
1.78023
3.70186
3.49363
3.29902
3.1175
2.93305
2.75502
2.60219
2.45823
2.31088
2.18362
2.0744
1.9706
1.86205
1.76611
1.69884
1.63271
1.55547
1.47519
1.42678
1.38776
1.3399
1.34096
1.49159
1.91022
2.25189
2.28581
2.22906
2.16827
2.14227
2.11621
2.08275
2.04453
2.00346
1.95853
1.90914
1.86765
1.84066
1.82469
1.81345
1.81301
1.81636
1.80075
1.7705
1.73953
1.75848
1.90562
2.2886
2.71028
3.05322
3.1742
3.19207
3.14783
3.07736
3.02477
2.97785
2.94844
2.93599
2.91924
2.88641
2.84446
2.79672
2.74632
2.70243
2.67257
2.65125
2.63126
2.6078
2.5736
2.53023
2.48474
2.44695
2.41896
2.39675
2.3757
2.3534
2.32659
2.28915
2.24654
2.20956
2.18132
2.15782
2.13651
2.11556
2.09262
2.06306
2.0252
1.98963
1.96791
1.95444
1.9427
1.93124
1.91852
1.902
1.87324
1.83172
1.77629
3.76096
3.5621
3.37652
3.20002
3.0201
2.85511
2.70629
2.55952
2.41036
2.2931
2.17866
2.068
1.96236
1.8749
1.78597
1.70958
1.65349
1.58777
1.50731
1.44653
1.45844
1.63381
2.08036
2.44324
2.47142
2.41093
2.33302
2.2772
2.24614
2.21286
2.17842
2.14448
2.10759
2.06334
2.00726
1.94593
1.90469
1.87591
1.8514
1.82975
1.81302
1.79948
1.7837
1.76082
1.71472
1.69016
1.72829
1.92623
2.35047
2.75618
3.06266
3.11594
3.10637
3.05018
2.9794
2.9335
2.90356
2.88255
2.87588
2.85895
2.83103
2.78715
2.7243
2.6717
2.63756
2.61114
2.5882
2.56811
2.54558
2.51531
2.47712
2.43447
2.4001
2.37911
2.36242
2.33887
2.30618
2.26813
2.22515
2.18569
2.15617
2.1333
2.11358
2.0947
2.07418
2.04837
2.01453
1.97978
1.96207
1.95217
1.94251
1.92858
1.90816
1.87558
1.82932
1.77787
3.81167
3.62963
3.45433
3.27752
3.10464
2.95231
2.80341
2.65084
2.51116
2.39414
2.27948
2.15892
2.05535
1.97494
1.8902
1.79981
1.72537
1.66215
1.59074
1.5974
1.79562
2.24448
2.6072
2.64264
2.58309
2.52156
2.45816
2.39272
2.34401
2.30222
2.26456
2.22921
2.19353
2.15702
2.1149
2.05376
1.98215
1.93724
1.90822
1.88153
1.85389
1.82901
1.80857
1.78713
1.75551
1.70492
1.67213
1.66514
1.72527
1.95501
2.37997
2.76149
2.98793
3.02894
3.01397
2.95825
2.89674
2.87069
2.85946
2.85289
2.83454
2.80708
2.75914
2.68736
2.63223
2.6029
2.57902
2.55744
2.53988
2.5229
2.49832
2.46054
2.41968
2.38329
2.34942
2.32617
2.30818
2.28098
2.24116
2.19717
2.15869
2.13138
2.11246
2.09676
2.08121
2.06274
2.03668
2.00346
1.97222
1.94745
1.92998
1.91586
1.89967
1.87336
1.83372
1.78915
3.87092
3.70059
3.53214
3.35912
3.1944
3.04369
2.89528
2.74084
2.61186
2.4908
2.37486
2.2522
2.15619
2.06637
1.98042
1.89396
1.80857
1.73249
1.75448
2.00365
2.47703
2.77961
2.80986
2.75013
2.69156
2.64437
2.59002
2.51865
2.44432
2.39318
2.3518
2.31251
2.27573
2.24115
2.20438
2.15772
2.0929
2.02379
1.97542
1.94248
1.9125
1.88208
1.85242
1.82514
1.80092
1.76908
1.71941
1.65857
1.64605
1.6472
1.71742
1.97594
2.37962
2.74478
2.92911
2.96539
2.92103
2.87743
2.85634
2.83938
2.8244
2.80264
2.77313
2.7165
2.64831
2.60662
2.58149
2.55871
2.53774
2.51766
2.49664
2.47128
2.43469
2.38834
2.34822
2.31981
2.29126
2.26284
2.23664
2.20598
2.16955
2.13688
2.11548
2.09793
2.08041
2.0635
2.04461
2.01893
1.98273
1.94663
1.92158
1.90296
1.88758
1.86927
1.84624
1.81097
3.93464
3.76833
3.59933
3.43324
3.28009
3.12887
2.97585
2.8312
2.70831
2.586
2.46404
2.34626
2.25573
2.16011
2.06749
1.97471
1.88632
1.92695
2.24992
2.7956
3.01795
2.99368
2.91498
2.84688
2.8098
2.76877
2.71566
2.64776
2.56062
2.48374
2.4345
2.39344
2.35466
2.31665
2.27706
2.23412
2.18241
2.11618
2.0514
2.00534
1.96987
1.93711
1.90597
1.87762
1.85132
1.8224
1.78534
1.73406
1.67357
1.63191
1.63096
1.63762
1.72123
1.99858
2.38721
2.74009
2.86734
2.86358
2.87022
2.85049
2.82084
2.79347
2.76375
2.72486
2.67224
2.62339
2.59316
2.56928
2.54536
2.52153
2.49843
2.47265
2.43833
2.3935
2.34869
2.31172
2.28024
2.25272
2.22837
2.20617
2.18252
2.15288
2.12044
2.10216
2.09016
2.07519
2.05531
2.02803
1.9922
1.95763
1.92891
1.90315
1.87893
1.85993
1.85299
1.83412
3.99288
3.82768
3.6606
3.50427
3.35557
3.2086
3.05761
2.92737
2.80148
2.68015
2.5518
2.44758
2.34701
2.24884
2.15213
2.05708
2.12026
2.4918
3.08596
3.3199
3.23623
3.11297
3.01787
2.95931
2.92447
2.88124
2.82513
2.76094
2.68188
2.59018
2.52044
2.47158
2.42851
2.3881
2.34893
2.30939
2.26602
2.21033
2.13903
2.07361
2.02822
1.99265
1.96062
1.93117
1.90338
1.87492
1.84247
1.79818
1.73841
1.68352
1.64505
1.62093
1.62234
1.63262
1.73235
2.01157
2.38086
2.64671
2.80486
2.83873
2.82569
2.80722
2.76811
2.73193
2.69049
2.6385
2.59932
2.57618
2.55393
2.5297
2.50519
2.47751
2.4425
2.39912
2.35023
2.3045
2.2695
2.24327
2.2229
2.20528
2.18746
2.165
2.13612
2.10727
2.07913
2.05507
2.03224
2.00794
1.98593
1.96532
1.94049
1.91011
1.88433
1.86886
1.85691
1.82937
4.0461
3.88384
3.72665
3.57791
3.43015
3.28096
3.14308
3.0189
2.89208
2.7636
2.64277
2.54033
2.42817
2.33165
2.23982
2.33398
2.79758
3.28449
3.55565
3.51636
3.3956
3.27215
3.1521
3.07791
3.0307
2.98249
2.9257
2.86492
2.79558
2.70683
2.61341
2.54846
2.50021
2.45759
2.41773
2.37833
2.33713
2.2888
2.22597
2.15546
2.09726
2.05338
2.01607
1.98108
1.94822
1.91805
1.88888
1.85437
1.80645
1.75272
1.70276
1.66778
1.63675
1.6144
1.60882
1.6212
1.72449
1.96142
2.31722
2.5788
2.73249
2.77717
2.78421
2.77381
2.73637
2.67939
2.61746
2.57207
2.54711
2.5271
2.50701
2.48289
2.45274
2.4121
2.35667
2.30069
2.26335
2.24162
2.2262
2.21094
2.19213
2.16904
2.14196
2.10936
2.07628
2.04756
2.02266
2.00049
1.98251
1.96616
1.94734
1.92297
1.8983
1.87781
1.86187
1.83368
4.12414
3.96029
3.80827
3.66053
3.51223
3.36322
3.23197
3.10223
2.97657
2.84351
2.73624
2.61587
2.51547
2.44295
2.60419
3.19681
3.62573
3.72276
3.70893
3.62391
3.53832
3.44203
3.31732
3.20381
3.13446
3.07786
3.02052
2.95952
2.89518
2.81947
2.72521
2.63676
2.57545
2.52775
2.48422
2.44145
2.39756
2.34971
2.29299
2.22819
2.1707
2.12786
2.09153
2.05466
2.01421
1.96962
1.92476
1.88246
1.84301
1.80555
1.76842
1.73763
1.70369
1.67055
1.6319
1.60522
1.5818
1.589
1.67085
1.91847
2.24002
2.5185
2.66962
2.74024
2.73925
2.71684
2.65429
2.58245
2.54192
2.51934
2.49737
2.47491
2.45218
2.42078
2.36674
2.3044
2.26718
2.24851
2.23491
2.22015
2.20114
2.1766
2.14705
2.1102
2.06898
2.03773
2.0173
2.00084
1.98456
1.96771
1.95065
1.9305
1.90599
1.88262
1.86039
1.81924
4.20806
4.04371
3.88872
3.73782
3.58417
3.44349
3.31131
3.18249
3.04402
2.9276
2.80692
2.70085
2.66386
2.90044
3.5836
4.07732
4.02536
3.91393
3.79647
3.72885
3.67321
3.5847
3.46885
3.3419
3.24936
3.18031
3.11473
3.04873
2.98163
2.90966
2.8271
2.74002
2.66711
2.61003
2.55991
2.5111
2.46098
2.40786
2.34983
2.28714
2.22825
2.1832
2.14861
2.11615
2.08096
2.03968
1.99
1.93094
1.86917
1.81936
1.7915
1.7717
1.74865
1.72395
1.69279
1.65597
1.61093
1.5659
1.53494
1.5455
1.63393
1.8935
2.21746
2.50831
2.66326
2.6755
2.65614
2.59178
2.53495
2.51517
2.49412
2.47355
2.45534
2.42471
2.37328
2.32218
2.28958
2.26304
2.24078
2.22482
2.20975
2.19354
2.16741
2.11874
2.0609
2.03426
2.02234
2.00978
1.99461
1.976
1.95383
1.93201
1.91259
1.88934
1.86269
1.81522
4.23898
4.13136
3.97202
3.81348
3.66322
3.52483
3.39409
3.25497
3.11707
3.00826
2.88319
2.92444
3.27558
3.90706
4.3816
4.38437
4.21739
4.05155
3.93434
3.86549
3.80355
3.71355
3.60622
3.48923
3.38022
3.29365
3.21721
3.14246
3.0685
2.99415
2.91672
2.83629
2.76102
2.69762
2.64241
2.58924
2.53459
2.47689
2.41619
2.35355
2.29076
2.23369
2.1884
2.15203
2.11801
2.08236
2.04142
1.99239
1.93628
1.87431
1.81734
1.78028
1.75734
1.73884
1.71985
1.6963
1.65589
1.60303
1.5537
1.52551
1.51204
1.52817
1.6402
1.89454
2.21357
2.44657
2.57899
2.57555
2.54644
2.52727
2.49648
2.46651
2.4337
2.39383
2.36365
2.34382
2.31656
2.28115
2.25332
2.23288
2.21301
2.18742
2.14676
2.09009
2.05651
2.04585
2.03547
2.02202
2.0058
1.98601
1.96276
1.9364
1.90299
1.86764
1.84032
1.80514
4.04692
4.19478
4.07305
3.90024
3.75549
3.61379
3.48545
3.32527
3.20713
3.1043
3.22938
3.76676
4.36598
4.62857
4.64896
4.51675
4.37012
4.23838
4.11417
4.0126
3.92332
3.82774
3.7253
3.61903
3.51167
3.41418
3.328
3.24749
3.16925
3.09105
3.01082
2.92827
2.848
2.77658
2.71488
2.65807
2.60195
2.54416
2.48379
2.42101
2.35613
2.29166
2.23324
2.18432
2.14173
2.10213
2.06479
2.02681
1.9816
1.9255
1.86799
1.82209
1.78714
1.75653
1.72655
1.69935
1.67203
1.63882
1.59364
1.54811
1.51193
1.50385
1.49343
1.51254
1.62589
1.84164
2.14571
2.33812
2.46917
2.49805
2.49688
2.48481
2.44332
2.39764
2.37206
2.34373
2.30118
2.27796
2.26761
2.25305
2.22877
2.19163
2.13716
2.08394
2.05488
2.03768
2.02695
2.02295
2.01687
2.00095
1.97889
1.94645
1.90358
1.86324
1.83125
1.79599
3.04783
4.09174
4.13532
4.00032
3.84237
3.71452
3.55663
3.42088
3.3657
3.61401
4.2837
4.91906
4.97686
4.87214
4.7446
4.63345
4.54298
4.43798
4.30978
4.17351
4.05354
3.94699
3.8452
3.74397
3.64031
3.53797
3.44397
3.35749
3.27428
3.19095
3.1056
3.01902
2.93422
2.8545
2.78166
2.71511
2.65281
2.59258
2.53235
2.47087
2.40769
2.34349
2.28012
2.22161
2.1709
2.12766
2.08837
2.04789
2.00217
1.9532
1.90259
1.85654
1.81909
1.78661
1.75338
1.71618
1.67179
1.63258
1.60104
1.56842
1.53752
1.51009
1.4848
1.46483
1.44314
1.46215
1.56185
1.79075
2.07823
2.26631
2.39389
2.4338
2.42368
2.40439
2.3868
2.3583
2.31295
2.28541
2.26447
2.23784
2.20711
2.16495
2.11818
2.08693
2.06542
2.04745
2.03344
2.02077
2.00447
1.98614
1.96357
1.93258
1.89675
1.8598
1.82758
1.7978
1.80366
3.35859
4.09468
4.08133
3.94684
3.79919
3.63516
3.70565
4.17786
4.84287
5.32047
5.42867
5.26529
5.04165
4.88578
4.79615
4.71933
4.61263
4.48151
4.33544
4.19894
4.08244
3.97517
3.87018
3.76514
3.66062
3.55895
3.46097
3.36563
3.27201
3.1804
3.09214
3.00778
2.92603
2.84585
2.76889
2.69777
2.63242
2.56962
2.50647
2.44226
2.37979
2.31954
2.26226
2.20838
2.15637
2.10643
2.0637
2.02474
1.97984
1.92683
1.87592
1.8339
1.7965
1.7619
1.72709
1.6868
1.64438
1.60517
1.57211
1.54117
1.51346
1.48847
1.46166
1.43667
1.40831
1.37706
1.40178
1.51522
1.76769
2.05343
2.27503
2.29737
2.32575
2.33208
2.31651
2.30088
2.27945
2.24803
2.21885
2.18885
2.14744
2.11019
2.08813
2.06859
2.04579
2.02178
2.00646
1.99427
1.98048
1.95949
1.92998
1.89394
1.85007
1.82126
1.8104
1.42349
2.03431
3.5684
4.06609
4.01633
3.89667
4.15614
4.91742
5.59701
5.69345
5.68655
5.61542
5.4592
5.26543
5.10292
4.99834
4.89449
4.77193
4.63647
4.49127
4.3481
4.21808
4.09871
3.98392
3.87103
3.75979
3.65018
3.54173
3.4353
3.33314
3.23732
3.14838
3.06449
2.98238
2.89952
2.81582
2.73417
2.65952
2.5947
2.5361
2.47658
2.41587
2.35713
2.30137
2.24674
2.19192
2.13517
2.07606
2.01755
1.97222
1.94321
1.90979
1.86687
1.81936
1.77182
1.72627
1.69188
1.66174
1.62553
1.59332
1.56341
1.53424
1.50311
1.47296
1.44151
1.40141
1.36958
1.352
1.34789
1.38499
1.51503
1.77622
2.01852
2.21224
2.27155
2.2597
2.25058
2.23734
2.20928
2.18421
2.16033
2.136
2.11736
2.09613
2.06884
2.03713
2.01314
1.99718
1.9826
1.96396
1.93974
1.91314
1.88479
1.85365
1.83901
1.85871
1.40031
1.45456
2.28186
3.65757
4.01066
4.7653
5.71602
6.22873
6.20978
6.03148
5.84484
5.74415
5.63206
5.46568
5.29084
5.15866
5.03009
4.89228
4.75185
4.60923
4.46472
4.32539
4.19537
4.07228
3.9531
3.83592
3.71932
3.60263
3.48781
3.37959
3.28077
3.18985
3.10268
3.01577
2.9279
2.84045
2.75662
2.67867
2.60595
2.5369
2.47178
2.40966
2.35041
2.29412
2.24068
2.18946
2.13719
2.08076
2.02655
1.9806
1.93741
1.89384
1.85289
1.81282
1.77163
1.73099
1.6899
1.64623
1.60409
1.56967
1.54246
1.5194
1.49606
1.47298
1.44551
1.40904
1.37689
1.3505
1.32593
1.31518
1.32119
1.37321
1.5299
1.77083
1.97548
2.11686
2.20204
2.20338
2.19829
2.1849
2.15664
2.12301
2.09481
2.06404
2.02827
2.00083
1.9828
1.96819
1.953
1.94025
1.92647
1.91142
1.88643
1.8882
1.92043
2.12362
1.40001
1.40103
1.50582
2.3925
4.52164
6.46894
6.60432
6.51384
6.29838
6.07221
5.9473
5.85415
5.75105
5.59006
5.41003
5.26828
5.13458
4.99416
4.85177
4.70875
4.56136
4.41568
4.2796
4.15173
4.02852
3.90804
3.78843
3.66914
3.55251
3.44249
3.34047
3.24442
3.15113
3.05828
2.96567
2.87535
2.78983
2.70948
2.63327
2.56166
2.49583
2.43416
2.37626
2.32202
2.27072
2.22063
2.16913
2.11603
2.06107
2.00314
1.94742
1.89907
1.85582
1.81521
1.77497
1.73228
1.68741
1.64278
1.60043
1.56403
1.53929
1.52531
1.51129
1.49284
1.47086
1.44355
1.40619
1.35709
1.31965
1.29878
1.28556
1.28085
1.29311
1.34574
1.49744
1.71077
1.93134
2.03665
2.1359
2.14774
2.13945
2.12173
2.09322
2.05338
2.01338
1.98443
1.96055
1.94005
1.92971
1.92839
1.92644
1.94192
2.00151
2.13919
2.32414
2.62327
1.40001
1.40001
1.40212
1.71403
5.28211
6.84599
6.44015
6.20676
6.06245
5.94863
5.87467
5.80312
5.69886
5.54209
5.36855
5.21465
5.07325
4.93155
4.78433
4.63827
4.49184
4.34452
4.20603
4.0763
3.95124
3.82904
3.70875
3.59025
3.47545
3.36682
3.26448
3.16669
3.0717
2.97853
2.88765
2.80082
2.71964
2.6443
2.57403
2.50797
2.4452
2.38554
2.32965
2.278
2.22977
2.18308
2.13577
2.08587
2.03301
1.97923
1.92927