/*--------------------------------*- C++ -*----------------------------------*\
  =========                 |
  \\      /  F ield         | OpenFOAM: The Open Source CFD Toolbox
   \\    /   O peration     | Website:  https://openfoam.org
    \\  /    A nd           | Version:  7
     \\/     M anipulation  |
\*---------------------------------------------------------------------------*/
FoamFile
{
    version     2.0;
    format      ascii;
    class       volScalarField;
    location    "3";
    object      T;
}
// * * * * * * * * * * * * * * * * * * * * * * * * * * * * * * * * * * * * * //

dimensions      [0 0 0 1 0 0 0];

internalField   nonuniform List<scalar> 
4032
(
1
1
1
1
1
1
1
1
1
1
1
1.05756
2.33141
2.72194
2.72958
2.7413
2.75311
2.76569
2.77925
2.79302
2.80549
2.8151
2.82191
2.82638
1
1
1
1
1
1
1
1
1
1
1
1.02831
2.31031
2.71905
2.72759
2.73953
2.7514
2.7638
2.77702
2.79025
2.80209
2.81107
2.81731
2.82146
1
1
1
1
1
1
1
1
1
1
1
1.00125
2.26645
2.7147
2.72476
2.73686
2.74863
2.76055
2.77315
2.78568
2.79685
2.80542
2.81132
2.8156
1
1
1
1
1
1
1
1
1
1
1
1.00001
2.20052
2.70591
2.72037
2.73261
2.74439
2.75583
2.76777
2.77948
2.78974
2.79719
2.80167
2.80451
1
1
1
1
1
1
1
1
1
1
1
1
2.10539
2.68975
2.71465
2.72682
2.73839
2.74886
2.75934
2.76918
2.77745
2.78333
2.7866
2.79032
1
1
1
1
1
1
1
1
1
1
1
1
1.97376
2.65967
2.70321
2.71647
2.72849
2.73835
2.74772
2.75642
2.76358
2.7677
2.76701
2.76229
1
1
1
1
1
1
1
1
1
1
1
1
1.79667
2.60518
2.68476
2.70234
2.71617
2.72585
2.73356
2.73961
2.74223
2.73869
2.73135
2.72489
1
1
1
1
1
1
1
1
1
1
1
1
1.54406
2.50553
2.65709
2.68179
2.69834
2.70887
2.71589
2.71883
2.71658
2.71114
2.70614
2.71635
1
1
1
1
1
1
1
1
1
1
1
1
1.19918
2.37234
2.63493
2.65163
2.66994
2.68312
2.68975
2.69107
2.68412
2.66666
2.6165
2.51631
1
1
1
1
1
1
1
1
1
1
1
1
1.01103
2.25357
2.61646
2.61612
2.63085
2.64676
2.65493
2.65473
2.64453
2.61428
2.55889
2.3961
1
1
1
1
1
1
1
1
1
1
1
1
1.00001
2.02731
2.58582
2.6013
2.61078
2.61626
2.6198
2.61626
2.60278
2.56676
2.50447
2.3221
1
1
1
1
1
1
1
1
1
1
1
1
0.999999
1.64307
2.48812
2.58232
2.58589
2.58873
2.58735
2.57865
2.55999
2.52358
2.45205
2.29262
1
1
1
1
1
1
1
1
1
1
1
1
1
1.14405
2.32392
2.5796
2.56637
2.56311
2.55684
2.54324
2.52002
2.48329
2.40904
2.29295
1
1
1
1
1
1
1
1
1
1
1
1
1
1.0055
2.1358
2.51963
2.53316
2.53465
2.5271
2.51122
2.48674
2.44537
2.37764
2.28892
1
1
1
1
1
1
1
1
1
1
1
1
1
0.999976
1.68915
2.40933
2.51297
2.51201
2.50348
2.48595
2.46055
2.41703
2.35769
2.28515
1
1
1
1
1
1
1
1
1
1
1
1
1
0.999993
1.13271
2.22631
2.49169
2.4849
2.47639
2.45924
2.43458
2.39364
2.34232
2.27997
1
1
1
1
1
1
1
1
1
1
1
1
1
0.999999
1.00413
1.94579
2.41269
2.45256
2.44582
2.43243
2.40939
2.37388
2.32974
2.27536
1
1
1
1
1
1
1
1
1
1
1
1
1
1
0.99999
1.33152
2.2449
2.42724
2.41438
2.40287
2.38224
2.35181
2.31395
2.26726
1
1
1
1
1
1
1
1
1
1
1
1
1
1
0.999997
1.02586
2.03239
2.38175
2.37492
2.36616
2.34992
2.32504
2.29383
2.25548
1
1
1
1
1
1
1
1
1
1
1
1
1
1
0.999999
1.00011
1.45783
2.23073
2.35475
2.33811
2.3211
2.30018
2.27485
2.24316
1
1
1
1
1
1
1
1
1
1
1
1
1
1
1
1
1.05253
2.01494
2.32599
2.31143
2.29336
2.27345
2.25089
2.22412
1
1
1
1
1
1
1
1
1
1
1
1
1
1
1
1
1.00055
1.42774
2.16179
2.29213
2.27089
2.25163
2.22951
2.2048
1
1
1
1
1
1
1
1
1
1
1
1
1
1
1
1
1
1.04632
1.91475
2.26389
2.24959
2.22981
2.20794
2.1847
1
1
1
1
1
1
1
1
1
1
1
1
1
1
1
1
1
1.00049
1.33706
2.07995
2.22992
2.20679
2.18877
2.1685
1
1
1
1
1
1
1
1
1
1
1
1
1
1
1
1
1
1
1.02668
1.71287
2.16054
2.18893
2.17322
2.15484
1
1
1
1
1
1
1
1
1
1
1
1
1
1
1
1
1
1
1.00026
1.18036
1.93566
2.16875
2.15278
2.13647
1
1
1
1
1
1
1
1
1
1
1
1
1
1
1
1
1
1
1
1.00737
1.44385
2.01737
2.13409
2.11459
1
1
1
1
1
1
1
1
1
1
1
1
1
1
1
1
1
1
1
1.00005
1.0554
1.69571
2.05533
2.10385
1
1
1
1
1
1
1
1
1
1
1
1
1
1
1
1
1
1
1
1
1.00097
1.1914
1.82741
2.07073
1
1
1
1
1
1
1
1
1
1
1
1
1
1
1
1
1
1
1
1
1
1.00886
1.35978
1.90203
1
1
1
1
1
1
1
1
1
1
1
1
1
1
1
1
1
1
1
1
1
1.00008
1.03681
1.5181
1
1
1
1
1
1
1
1
1
1
1
1
1
1
1
1
1
1
1
1
1
1
1.00059
1.09562
1
1
1
1
1
1
1
1
1
1
1
1
1
1
1
1
1
1
1
1
1
1
1
1.00276
1
1
1
1
1
1
1
1
1
1
1
1
1
1
1
1
1
1
1
1
1
1
1
1.00002
1
1
1
1
1
1
1
1
1
1
1
1
1
1
1
1
1
1
1
1
1
1
1
1
1
1
1
1
1
1
1
1
1
1
1
1
1
1
1
1
1
1
1
1
1
1
1
1
1
1
1
1
1
1
1
1
1
1
1
1
1
1
1
1
1
1
1
1
1
1
1
1
1
1
1
1
1
1
1
1
1
1
1
1
1
1
1
1
1
1
1
1
1
1
1
1
1
1
1
1
1
1
1
1
1
1
1
1
1
1
1
1
1
1
1
1
1
1
1
1
1
1
1
1
1
1
1
1
1
1
1
1
1
1
1
1
1
1
1
1
1
1
1
1
1.69526
1.21562
0.944052
1.00356
1.1777
1.22758
1.2865
1.38922
1.52591
1.62137
1.68021
1.68349
1.66795
1.65694
1.66758
1.70934
1.7572
1.76357
1.75394
1.71796
1.68582
1.68577
1.70364
1.72456
1.72576
1.7163
1.69671
1.68492
1.68605
1.69483
1.70685
1.70751
1.89866
2.64705
2.85527
2.83914
2.81314
2.78169
2.75169
2.72627
2.70334
2.68226
2.66429
2.64548
2.62222
2.59381
2.56374
2.53719
2.51757
2.5053
2.49737
2.48799
2.47292
2.45218
2.42675
2.4005
2.37803
2.36099
2.35235
2.34707
2.34047
2.33085
2.31746
2.29916
2.27932
2.26114
2.24514
2.23245
2.2242
2.21582
2.20656
2.19496
2.17624
2.15439
2.13767
2.12538
2.11472
2.10816
2.10632
2.1001
2.09291
2.08588
2.07527
2.05765
2.0369
2.02282
2.01521
2.00848
2.002
1.99632
1.98927
1.98203
1.97445
1.9625
1.94413
1.92242
1.9258
1.64497
1.48186
1.37108
1.33972
1.28365
1.24625
1.25563
1.28728
1.34107
1.37943
1.41793
1.47032
1.50499
1.53289
1.57436
1.62081
1.6522
1.65682
1.65371
1.64449
1.64566
1.66146
1.67206
1.67181
1.67004
1.66491
1.6648
1.66621
1.67067
1.67087
1.6734
1.76036
2.52181
2.79686
2.77504
2.73991
2.71194
2.69012
2.67114
2.65071
2.62966
2.61099
2.59563
2.58096
2.56359
2.54239
2.51894
2.49755
2.48054
2.46688
2.45776
2.44932
2.43691
2.41932
2.39733
2.37355
2.35414
2.34037
2.32959
2.321
2.31301
2.30278
2.29014
2.27437
2.25534
2.23683
2.22229
2.21057
2.20136
2.19391
2.18509
2.17286
2.15765
2.14001
2.1237
2.11165
2.10245
2.09535
2.08905
2.08237
2.07574
2.06782
2.05589
2.03988
2.02296
2.01121
2.0037
1.99672
1.99022
1.98418
1.97771
1.97081
1.96048
1.94605
1.92399
2.04051
1.83933
1.68613
1.54763
1.47098
1.41496
1.34905
1.27024
1.23428
1.23892
1.25266
1.28671
1.33783
1.37945
1.39605
1.41942
1.45705
1.49041
1.51861
1.54987
1.57517
1.59156
1.60071
1.59972
1.59574
1.59472
1.59673
1.6057
1.61488
1.6161
1.62142
1.65676
1.80705
2.23466
2.5859
2.63109
2.60108
2.57834
2.57036
2.56613
2.55513
2.54053
2.52205
2.50596
2.49305
2.48191
2.47182
2.46011
2.44489
2.42814
2.40986
2.39568
2.38724
2.3797
2.37165
2.3615
2.34815
2.33184
2.31358
2.29466
2.28055
2.27106
2.2634
2.2563
2.24763
2.2363
2.22104
2.2016
2.18385
2.17239
2.16263
2.15435
2.1489
2.14203
2.13278
2.11946
2.10077
2.08351
2.07366
2.0661
2.05875
2.05176
2.0449
2.03884
2.03156
2.02025
2.00373
1.99079
1.9836
1.97719
1.97036
1.963
1.95491
1.94599
1.9376
1.92184
2.09951
1.95188
1.82118
1.68713
1.59444
1.53584
1.48381
1.42009
1.35328
1.30523
1.28997
1.28605
1.28996
1.29848
1.30522
1.31334
1.3366
1.36683
1.39782
1.44037
1.48129
1.50209
1.5176
1.52459
1.52787
1.53324
1.5419
1.55716
1.56197
1.56633
1.60089
1.76182
1.94204
2.02553
2.25622
2.41919
2.45469
2.47537
2.46745
2.4599
2.44667
2.43818
2.42537
2.41166
2.40214
2.39381
2.38741
2.37923
2.36744
2.35533
2.3419
2.32712
2.31745
2.3123
2.30763
2.30271
2.29541
2.28382
2.26941
2.25007
2.22995
2.21818
2.21115
2.20502
2.19949
2.19343
2.18516
2.17199
2.15192
2.13393
2.12382
2.11736
2.11302
2.11047
2.10616
2.09754
2.08407
2.06292
2.04332
2.032
2.02332
2.01634
2.01235
2.00993
2.0074
2.00278
1.99208
1.97399
1.96054
1.95333
1.94628
1.9384
1.93019
1.92301
1.9183
1.90866
2.15356
2.03148
1.91464
1.8026
1.71893
1.63134
1.56137
1.52344
1.48177
1.42063
1.35687
1.32589
1.30953
1.30485
1.30785
1.31049
1.30439
1.30127
1.30734
1.33524
1.38475
1.42404
1.45144
1.46933
1.4771
1.48068
1.49311
1.50531
1.51816
1.55823
1.71117
1.90893
2.01756
2.00828
2.03925
2.17581
2.30756
2.38061
2.40954
2.40925
2.39486
2.38182
2.36678
2.35286
2.34427
2.3369
2.32813
2.31906
2.30913
2.29991
2.29053
2.2781
2.2645
2.25754
2.2529
2.24811
2.24193
2.23378
2.22311
2.20785
2.18788
2.17154
2.16251
2.1564
2.15121
2.14607
2.14026
2.13128
2.11509
2.09593
2.08625
2.08082
2.07672
2.07437
2.07045
2.06376
2.05446
2.03834
2.01406
1.99506
1.98526
1.97953
1.97658
1.97509
1.97407
1.97246
1.96794
1.95637
1.93775
1.92319
1.9148
1.90745
1.9007
1.8954
1.8921
1.88528
2.18407
2.0862
1.98155
1.88225
1.81018
1.7347
1.64353
1.58698
1.55823
1.5192
1.47257
1.41484
1.37425
1.36044
1.35394
1.34346
1.32685
1.30918
1.29858
1.29976
1.30938
1.32964
1.35584
1.39302
1.42525
1.44191
1.46098
1.47176
1.508
1.67432
1.8882
1.97698
2.01657
2.01237
1.99855
2.01578
2.11337
2.26141
2.34175
2.36964
2.37149
2.35869
2.34095
2.32495
2.31193
2.30043
2.29189
2.28473
2.27707
2.26811
2.2594
2.2486
2.23349
2.21933
2.21154
2.20561
2.20002
2.19402
2.18624
2.17584
2.16123
2.14296
2.12738
2.11799
2.11207
2.10732
2.10268
2.09677
2.08734
2.07249
2.05713
2.0489
2.04351
2.03928
2.03561
2.0302
2.02258
2.01125
1.99304
1.97005
1.95429
1.94727
1.94334
1.94104
1.93988
1.93883
1.93661
1.93069
1.91703
1.89723
1.8835
1.87645
1.8716
1.86776
1.86485
1.85876
2.20186
2.12189
2.0339
1.94344
1.87205
1.80494
1.73357
1.67379
1.61318
1.56847
1.542
1.5121
1.47135
1.41466
1.38415
1.37143
1.35702
1.34436
1.3325
1.31643
1.30461
1.30251
1.30588
1.31911
1.3468
1.3792
1.41181
1.45971
1.6319
1.84818
1.9636
1.98675
2.00254
2.00238
1.99666
1.98758
1.99582
2.06757
2.20001
2.30363
2.33495
2.33838
2.32647
2.31193
2.29854
2.28159
2.26957
2.26161
2.25405
2.24509
2.23672
2.22816
2.21631
2.19995
2.18473
2.17562
2.16957
2.16454
2.15897
2.15121
2.14083
2.12709
2.11018
2.09433
2.08434
2.07897
2.07476
2.07032
2.0646
2.05559
2.0412
2.02554
2.01677
2.01142
2.00717
2.00227
1.99555
1.98665
1.97455
1.95757
1.93739
1.9236
1.91724
1.91396
1.91178
1.90967
1.90696
1.90265
1.89361
1.87644
1.85862
1.85038
1.84575
1.84176
1.83972
1.83324
2.20966
2.14107
2.06602
1.99094
1.92438
1.85361
1.78771
1.74181
1.69185
1.62808
1.57792
1.56238
1.53771
1.49948
1.45328
1.41394
1.39876
1.39181
1.38111
1.36286
1.33738
1.31192
1.30406
1.30832
1.31307
1.32247
1.35124
1.52278
1.78638
1.88409
1.92931
1.93706
1.94742
1.96201
1.97407
1.97467
1.96859
1.96167
2.00355
2.1261
2.24643
2.29319
2.30688
2.30099
2.29026
2.27472
2.25679
2.23928
2.22687
2.21914
2.21397
2.20847
2.20034
2.18935
2.17326
2.15638
2.14569
2.1394
2.13435
2.12899
2.12155
2.11204
2.10014
2.08478
2.06798
2.05734
2.05243
2.04854
2.04426
2.0386
2.02945
2.01499
1.99844
1.98686
1.97972
1.97451
1.97017
1.96455
1.95692
1.94628
1.93148
1.91337
1.89881
1.89179
1.8883
1.88625
1.88455
1.88068
1.87327
1.86043
1.84488
1.83264
1.8257
1.82084
1.81809
1.81161
2.21441
2.15396
2.08844
2.02238
1.96352
1.89957
1.83289
1.78445
1.74408
1.69292
1.64362
1.60233
1.56859
1.5471
1.52317
1.49131
1.44853
1.4201
1.40901
1.39707
1.38154
1.36306
1.33453
1.31545
1.31611
1.33257
1.45623
1.70422
1.82296
1.82928
1.83138
1.84115
1.86113
1.88753
1.90884
1.92525
1.92423
1.9225
1.91993
1.94338
2.04573
2.16977
2.2449
2.27198
2.2746
2.26481
2.24891
2.2269
2.20504
2.19579
2.18956
2.18537
2.18092
2.17402
2.16437
2.14841
2.12944
2.11705
2.11013
2.10456
2.09958
2.09335
2.08505
2.07472
2.05982
2.0427
2.03277
2.02797
2.02362
2.01873
2.01251
2.0031
1.98759
1.96987
1.95913
1.95293
1.94783
1.94319
1.93795
1.93124
1.92206
1.90744
1.8884
1.87569
1.86932
1.86432
1.85899
1.8535
1.84794
1.84211
1.83427
1.82401
1.81348
1.80636
1.80278
1.79656
2.21413
2.16085
2.1035
2.04471
1.99056
1.93433
1.87655
1.82731
1.77993
1.73437
1.69886
1.66202
1.61523
1.57361
1.55851
1.54103
1.51376
1.48002
1.44281
1.42346
1.41817
1.4088
1.38495
1.35764
1.36398
1.46146
1.69465
1.82155
1.8145
1.8079
1.80229
1.79464
1.79105
1.79649
1.80553
1.81729
1.83582
1.85335
1.86329
1.86752
1.88331
1.9575
2.08801
2.18214
2.22683
2.24057
2.23299
2.21618
2.19209
2.1741
2.16586
2.16112
2.15926
2.15514
2.14832
2.13769
2.11978
2.09904
2.08676
2.08082
2.07568
2.07056
2.06462
2.05681
2.04745
2.03285
2.01571
2.0065
2.00156
1.99676
1.99152
1.98481
1.97515
1.96076
1.94442
1.93303
1.92653
1.92204
1.91837
1.91403
1.90764
1.89704
1.88116
1.8642
1.85253
1.84511
1.83908
1.83326
1.82813
1.8239
1.81942
1.8136
1.80568
1.79616
1.78913
1.77834
2.21161
2.16495
2.1143
2.06412
2.01341
1.95833
1.90899
1.86581
1.81994
1.76993
1.73457
1.70338
1.66445
1.62489
1.59407
1.56625
1.54758
1.52907
1.50463
1.46921
1.43893
1.42787
1.41614
1.41933
1.50631
1.71208
1.85764
1.85378
1.8321
1.81112
1.79992
1.79184
1.78312
1.76812
1.75506
1.74697
1.74889
1.75915
1.77169
1.78599
1.79251
1.80214
1.85883
1.98901
2.10514
2.1776
2.19517
2.19549
2.18259
2.16282
2.14734
2.13865
2.13578
2.13325
2.12739
2.11907
2.10659
2.08843
2.06945
2.0578
2.05163
2.0465
2.04166
2.03578
2.02871
2.01927
2.00385
1.98758
1.97851
1.9729
1.96775
1.9624
1.95608
1.94717
1.93398
1.91882
1.90796
1.90174
1.89716
1.89244
1.88675
1.87966
1.86938
1.85476
1.83889
1.82743
1.82058
1.81582
1.81225
1.80908
1.80543
1.80089
1.79477
1.78556
1.77478
1.75876
2.20593
2.16377
2.1188
2.07468
2.02835
1.97828
1.93374
1.89251
1.84896
1.8038
1.76952
1.7348
1.69591
1.66388
1.63774
1.60677
1.56773
1.55113
1.54108
1.51925
1.48461
1.45814
1.46329
1.54528
1.75152
1.89695
1.89384
1.87197
1.85035
1.8355
1.82257
1.8065
1.78575
1.76091
1.7441
1.73485
1.72591
1.71766
1.71221
1.70925
1.70547
1.70122
1.70426
1.74028
1.84942
2.00073
2.0962
2.15067
2.15928
2.15665
2.1395
2.11998
2.10963
2.10411
2.10057
2.0961
2.08711
2.07385
2.0587
2.04343
2.03174
2.02422
2.01857
2.01359
2.00756
2.00051
1.9902
1.97578
1.96125
1.95114
1.94404
1.93827
1.9328
1.92657
1.91794
1.90585
1.89251
1.88225
1.87547
1.87012
1.8647
1.85859
1.85114
1.84071
1.82669
1.81226
1.80322
1.79948
1.79719
1.79489
1.79189
1.78765
1.7816
1.77165
1.75854
1.74008
2.19265
2.15613
2.11752
2.07898
2.03688
1.99341
1.95426
1.91489
1.87171
1.83303
1.79881
1.76446
1.72655
1.69208
1.66759
1.64248
1.61204
1.57853
1.5578
1.54143
1.51994
1.52243
1.60626
1.80779
1.948
1.94094
1.91216
1.88629
1.87232
1.85783
1.84044
1.82105
1.79992
1.7776
1.75436
1.73326
1.71761
1.70663
1.69551
1.68603
1.68011
1.66904
1.65567
1.63694
1.64164
1.70185
1.84886
1.99163
2.09769
2.12506
2.126
2.11288
2.09434
2.08262
2.07119
2.06284
2.05854
2.05285
2.04356
2.03404
2.02352
2.0107
1.99799
1.98893
1.98262
1.97726
1.97103
1.9617
1.94959
1.93633
1.92483
1.91627
1.90995
1.90408
1.89734
1.88888
1.8776
1.86522
1.85496
1.84774
1.84193
1.83609
1.82955
1.82176
1.81177
1.79968
1.78899
1.78368
1.78133
1.7792
1.77656
1.77267
1.76668
1.7558
1.74061
1.7208
2.17693
2.14544
2.11303
2.07851
2.04066
2.00378
1.96828
1.93052
1.8893
1.85627
1.82219
1.78739
1.75266
1.72338
1.69199
1.66371
1.64298
1.61787
1.58587
1.56036
1.56667
1.65452
1.85677
1.99765
1.99421
1.9644
1.93032
1.90644
1.89077
1.87361
1.85542
1.83718
1.81797
1.79643
1.77074
1.74283
1.72208
1.70552
1.69008
1.67602
1.66386
1.65308
1.64374
1.63351
1.61347
1.59355
1.60765
1.69064
1.85498
1.98748
2.07879
2.08627
2.08368
2.07033
2.05247
2.04078
2.03186
2.02478
2.02256
2.01817
2.01236
2.00257
1.98575
1.97002
1.9599
1.95241
1.94662
1.94171
1.93515
1.92596
1.91396
1.90058
1.89017
1.88418
1.87936
1.87214
1.8621
1.85049
1.83788
1.827
1.81944
1.81373
1.80829
1.80238
1.79567
1.78768
1.77765
1.76768
1.76394
1.76242
1.76055
1.75663
1.74974
1.73792
1.72133
1.70285
2.15915
2.13216
2.10441
2.0736
2.03958
2.00808
1.97503
1.93852
1.90339
1.8729
1.84103
1.80506
1.77295
1.74782
1.71984
1.68836
1.66138
1.63846
1.61239
1.61699
1.70974
1.89821
2.0312
2.03099
2.00861
1.9804
1.95172
1.92463
1.90339
1.88376
1.8646
1.8459
1.82745
1.80924
1.78927
1.76241
1.73088
1.70824
1.6915
1.67567
1.66009
1.64624
1.63429
1.62314
1.60984
1.59115
1.57255
1.55889
1.58397
1.68251
1.84359
1.96366
2.02781
2.0415
2.03917
2.02609
2.00956
2.00227
1.99867
1.99723
1.99345
1.98769
1.97569
1.95527
1.93904
1.93104
1.92521
1.92018
1.91601
1.91072
1.90244
1.89049
1.87788
1.86689
1.85709
1.85052
1.84502
1.83623
1.8239
1.81093
1.80024
1.79355
1.7891
1.78481
1.77995
1.77419
1.76636
1.75661
1.74771
1.74105
1.73665
1.73272
1.72744
1.71811
1.70425
1.68875
2.14528
2.12069
2.09491
2.06632
2.03683
2.0075
1.97668
1.94248
1.91312
1.88354
1.85346
1.81927
1.79198
1.76518
1.73844
1.71041
1.6814
1.65613
1.66835
1.77795
1.9551
2.06198
2.0585
2.03787
2.01728
1.99619
1.97165
1.9429
1.91375
1.89117
1.87124
1.85197
1.83391
1.81696
1.79938
1.77824
1.75036
1.7202
1.69681
1.67892
1.66249
1.64654
1.6317
1.61844
1.60696
1.59333
1.57321
1.54998
1.53516
1.52742
1.55647
1.66574
1.81314
1.92693
1.98377
1.99897
1.98788
1.97716
1.97239
1.9693
1.96719
1.96332
1.95642
1.94156
1.9227
1.91152
1.90564
1.90084
1.89643
1.89145
1.88502
1.87644
1.86478
1.85105
1.83988
1.83204
1.82336
1.81436
1.80593
1.79647
1.78625
1.77789
1.77317
1.76908
1.76411
1.75862
1.7524
1.74453
1.73385
1.72341
1.71616
1.7103
1.70488
1.69806
1.68997
1.67882
2.13382
2.11038
2.08465
2.05766
2.03184
2.00453
1.97474
1.94475
1.91832
1.89015
1.86039
1.83023
1.80694
1.78023
1.75297
1.72446
1.69816
1.71786
1.85459
2.03923
2.10402
2.09257
2.0619
2.03867
2.02474
2.00756
1.98564
1.95933
1.9269
1.89657
1.87454
1.8554
1.83735
1.81995
1.80216
1.78303
1.7605
1.73241
1.70426
1.68249
1.66467
1.6481
1.63257
1.61838
1.60535
1.59191
1.57643
1.55615
1.53096
1.51294
1.50052
1.49944
1.53174
1.64375
1.78515
1.89888
1.93638
1.93636
1.94167
1.94095
1.93689
1.9315
1.9256
1.91704
1.90452
1.89254
1.88594
1.88137
1.87681
1.87189
1.86626
1.85864
1.84796
1.83497
1.82293
1.8131
1.8041
1.7954
1.78722
1.78037
1.77409
1.7667
1.75875
1.75516
1.75254
1.74785
1.74112
1.73261
1.72208
1.71209
1.7032
1.69453
1.68564
1.67833
1.67598
1.67096
2.11843
2.09752
2.07352
2.04937
2.02508
1.9999
1.97191
1.94684
1.92074
1.89466
1.86505
1.8411
1.81624
1.79052
1.76372
1.73904
1.76675
1.91086
2.10729
2.16088
2.1346
2.09512
2.06321
2.04232
2.02803
2.01106
1.99034
1.96734
1.9391
1.90547
1.87776
1.85676
1.8381
1.82043
1.80286
1.7847
1.7651
1.74175
1.71334
1.68634
1.66596
1.6491
1.63354
1.61899
1.60519
1.59116
1.57582
1.55706
1.53385
1.51103
1.49254
1.48053
1.46981
1.47112
1.51165
1.62634
1.75645
1.83738
1.88647
1.89843
1.90091
1.90001
1.89429
1.88756
1.87895
1.86753
1.85985
1.85699
1.85404
1.85023
1.84531
1.8382
1.82839
1.81652
1.80374
1.7922
1.78307
1.77553
1.76919
1.7639
1.75932
1.75425
1.74783
1.74088
1.73305
1.72554
1.71824
1.71091
1.70494
1.69956
1.69269
1.68296
1.67366
1.66787
1.66369
1.65566
2.09755
2.08026
2.06112
2.04081
2.0184
1.99373
1.9697
1.94693
1.92212
1.89566
1.86981
1.8476
1.82065
1.79679
1.77713
1.81648
1.97773
2.1324
2.19491
2.1799
2.14388
2.10767
2.07127
2.04598
2.02809
2.01025
1.99027
1.96906
1.94497
1.91465
1.8817
1.85706
1.83776
1.81988
1.80226
1.78414
1.765
1.74359
1.71817
1.69094
1.66746
1.64849
1.63173
1.61569
1.60018
1.58573
1.5722
1.55707
1.53638
1.51371
1.49312
1.47754
1.46305
1.45268
1.4425
1.44568
1.48954
1.58586
1.70978
1.78972
1.83433
1.85163
1.86558
1.86565
1.85886
1.84638
1.83349
1.82665
1.82425
1.82223
1.81936
1.81468
1.80763
1.79719
1.78278
1.76903
1.76076
1.75616
1.7526
1.74849
1.74349
1.73813
1.73217
1.72422
1.71508
1.70646
1.69873
1.69233
1.68799
1.68458
1.68027
1.67358
1.66553
1.65798
1.6517
1.64219
2.08641
2.06753
2.05041
2.0323
2.01202
1.98908
1.96777
1.94502
1.92185
1.89563
1.87418
1.84763
1.8252
1.81509
1.87747
2.065
2.18773
2.20545
2.19814
2.17182
2.14667
2.12011
2.0852
2.05055
2.02714
2.0077
1.98826
1.96741
1.94492
1.91874
1.88761
1.858
1.8357
1.81672
1.79823
1.77935
1.75978
1.73903
1.716
1.69094
1.66814
1.64972
1.63326
1.61681
1.59976
1.58192
1.56396
1.54652
1.53031
1.51478
1.49823
1.48348
1.46943
1.45589
1.43941
1.42814
1.41562
1.41781
1.45433
1.55587
1.66314
1.74625
1.79583
1.82545
1.82812
1.82407
1.81142
1.7979
1.79372
1.79198
1.78944
1.78633
1.7823
1.77488
1.76095
1.74628
1.73975
1.73747
1.73547
1.73227
1.72738
1.72145
1.71494
1.70603
1.69456
1.68566
1.68005
1.67591
1.67233
1.66919
1.66631
1.66211
1.65512
1.64689
1.63788
1.62296
2.0689
2.05305
2.03737
2.02077
2.0015
1.98218
1.96242
1.94164
1.91744
1.89582
1.87237
1.84846
1.8517
1.93505
2.13805
2.26004
2.24495
2.21449
2.18568
2.16498
2.1471
2.12259
2.09148
2.0558
2.0274
2.00537
1.9843
1.96266
1.9399
1.91523
1.88782
1.85916
1.83385
1.81231
1.79213
1.77193
1.75127
1.72987
1.70724
1.68345
1.66099
1.64298
1.6284
1.61453
1.59978
1.58336
1.56493
1.54431
1.5228
1.50398
1.49145
1.48232
1.47197
1.46039
1.44706
1.43314
1.41493
1.39952
1.38675
1.39104
1.4295
1.53093
1.64152
1.73552
1.77761
1.78628
1.78303
1.771
1.76474
1.76457
1.76282
1.76053
1.75835
1.75158
1.73847
1.72774
1.72304
1.71934
1.71586
1.71297
1.70992
1.70718
1.70206
1.68967
1.67328
1.66681
1.66466
1.66202
1.6588
1.65534
1.65161
1.64772
1.64331
1.63581
1.62534
1.60856
2.0448
2.03557
2.02031
2.00486
1.98876
1.97245
1.95533
1.93489
1.9122
1.894
1.87494
1.89082
2.00068
2.17608
2.28729
2.286
2.24694
2.20994
2.18239
2.1633
2.14518
2.12041
2.0913
2.05925
2.02843
2.00248
1.97871
1.95496
1.93084
1.90623
1.88053
1.85378
1.82798
1.80503
1.78404
1.7635
1.74274
1.72156
1.69994
1.678
1.65608
1.63583
1.61904
1.6051
1.59194
1.57847
1.5638
1.54689
1.52822
1.50757
1.48838
1.47489
1.46487
1.45619
1.44795
1.43825
1.42261
1.40294
1.38452
1.37496
1.37104
1.37902
1.42841
1.52815
1.63449
1.70494
1.74363
1.74813
1.74573
1.74593
1.74216
1.73708
1.73062
1.72112
1.71442
1.71191
1.70857
1.70303
1.69835
1.69472
1.69107
1.68576
1.67583
1.66143
1.65493
1.65407
1.65218
1.64887
1.64498
1.64111
1.63734
1.6326
1.62438
1.61327
1.60376
1.59217
1.93387
2.02075
2.00726
1.98798
1.97451
1.96014
1.94626
1.92405
1.90764
1.89913
1.94181
2.09179
2.23597
2.29698
2.29633
2.2701
2.23914
2.21073
2.18265
2.15837
2.13581
2.11074
2.08315
2.05404
2.02419
1.99599
1.97008
1.94507
1.92019
1.89514
1.86955
1.84324
1.81738
1.79374
1.77263
1.75293
1.73371
1.7146
1.6954
1.67579
1.65541
1.63485
1.61584
1.59942
1.58487
1.57116
1.55789
1.54455
1.52969
1.51194
1.49403
1.47895
1.46643
1.45528
1.44476
1.43538
1.42615
1.41384
1.39666
1.38044
1.36789
1.36653
1.36544
1.37507
1.42651
1.51196
1.61459
1.67233
1.71178
1.72587
1.73031
1.72821
1.71849
1.70745
1.70174
1.69572
1.68603
1.68343
1.68317
1.68157
1.67675
1.66799
1.65493
1.64316
1.63844
1.63561
1.63339
1.63271
1.63178
1.62883
1.62511
1.61854
1.60776
1.59668
1.5873
1.57582
1.64401
1.94166
1.99684
1.97847
1.95917
1.94797
1.93045
1.91433
1.92038
1.99653
2.16889
2.30698
2.31463
2.29306
2.26973
2.24695
2.22835
2.2068
2.1792
2.14853
2.12043
2.0944
2.06842
2.04158
2.01345
1.98525
1.95862
1.93328
1.90843
1.88369
1.85883
1.83387
1.80943
1.78633
1.76496
1.74528
1.72678
1.70883
1.69106
1.67323
1.65496
1.63585
1.61666
1.59896
1.58362
1.57017
1.5571
1.54305
1.52786
1.51253
1.49766
1.48382
1.4721
1.4617
1.45099
1.43959
1.42693
1.41582
1.4059
1.39443
1.3833
1.37351
1.3653
1.3591
1.3541
1.36429
1.4103
1.50152
1.59817
1.65662
1.69361
1.70724
1.70528
1.70094
1.6969
1.6896
1.67709
1.67113
1.6673
1.66147
1.65395
1.64398
1.63455
1.62996
1.62691
1.62337
1.61997
1.61669
1.61273
1.60889
1.60435
1.59773
1.58989
1.58087
1.57189
1.56239
1.18406
1.72318
1.93789
1.9712
1.95423
1.93562
1.92216
1.94924
2.07068
2.21683
2.32344
2.33902
2.30906
2.27128
2.24343
2.226
2.21095
2.19046
2.16368
2.13237
2.10236
2.07602
2.0511
2.02608
2.00055
1.97464
1.9488
1.92331
1.89822
1.87372
1.8501
1.82762
1.80583
1.78437
1.76355
1.74396
1.72577
1.70817
1.69017
1.67173
1.65366
1.63638
1.61952
1.60325
1.58787
1.57322
1.55945
1.54745
1.53556
1.52074
1.50338
1.48769
1.47542
1.46534
1.45689
1.44857
1.43891
1.42917
1.41908
1.4085
1.39672
1.38523
1.37518
1.36562
1.35788
1.34879
1.33752
1.34979
1.39973
1.49959
1.59654
1.66342
1.66783
1.67468
1.67612
1.6714
1.66659
1.66084
1.65305
1.64632
1.63913
1.62912
1.62143
1.61833
1.6152
1.61032
1.60452
1.6012
1.5984
1.59508
1.59021
1.58358
1.57507
1.56332
1.5559
1.55384
1.00928
1.2817
1.75804
1.93837
1.93701
1.93282
2.00098
2.15952
2.28124
2.3074
2.31403
2.30661
2.28462
2.25592
2.23057
2.21236
2.19365
2.1714
2.14581
2.11724
2.08843
2.06211
2.03801
2.01475
1.99145
1.9677
1.94334
1.91852
1.89381
1.86971
1.8469
1.82588
1.8063
1.78729
1.76825
1.74904
1.73017
1.71265
1.69697
1.68219
1.6668
1.6509
1.63524
1.61999
1.60483
1.58969
1.57417
1.55775
1.54028
1.52552
1.51578
1.50555
1.4934
1.48082
1.46889
1.4576
1.44983
1.44355
1.43463
1.42583
1.4168
1.40636
1.39366
1.3812
1.36878
1.35357
1.34169
1.33516
1.33112
1.34753
1.40427
1.50485
1.58673
1.65085
1.66115
1.65512
1.64884
1.64352
1.63613
1.63113
1.62644
1.62185
1.61847
1.61385
1.60794
1.60123
1.59635
1.59262
1.58825
1.582
1.57482
1.56801
1.56112
1.55388
1.55136
1.56035
1.00009
1.02281
1.36242
1.79658
1.89008
2.06671
2.24479
2.33713
2.3387
2.32136
2.29953
2.28589
2.27099
2.24879
2.22404
2.20394
2.18302
2.1596
2.13479
2.10868
2.08192
2.05648
2.03313
2.01103
1.98913
1.96667
1.94319
1.91874
1.8942
1.87103
1.85017
1.83151
1.81433
1.79757
1.7804
1.76282
1.74563
1.72949
1.71399
1.69826
1.68189
1.66528
1.64902
1.63347
1.6187
1.60428
1.58896
1.57206
1.55539
1.54034
1.52551
1.51144
1.50014
1.49024
1.48015
1.46986
1.45843
1.4454
1.43362
1.42516
1.419
1.41307
1.40457
1.39411
1.38101
1.36439
1.34976
1.33763
1.32597
1.31903
1.32077
1.34252
1.41075
1.50792
1.57585
1.61718
1.63952
1.6372
1.63475
1.63136
1.62418
1.61612
1.60908
1.60112
1.59323
1.58814
1.58465
1.58114
1.57684
1.57251
1.56732
1.56209
1.55561
1.55815
1.57096
1.64653
1
1.00033
1.04401
1.41192
1.99394
2.37962
2.42474
2.41335
2.38232
2.34852
2.32506
2.30869
2.29377
2.27266
2.24807
2.22706
2.20582
2.18255
2.15828
2.13354
2.10824
2.0837
2.06114
2.0398
2.01851
1.9965
1.97337
1.94932
1.92544
1.90332
1.8836
1.86585
1.84919
1.83273
1.81586
1.79861
1.78133
1.764
1.74624
1.72804
1.70961
1.6912
1.67336
1.65646
1.64051
1.62491
1.60869
1.592
1.5749
1.55671
1.53889
1.52437
1.51306
1.50323
1.49339
1.48215
1.46924
1.45565
1.4429
1.4321
1.42499
1.42118
1.41618
1.40787
1.3968
1.38291
1.36473
1.34237
1.32519
1.31487
1.30796
1.30387
1.3083
1.33139
1.39881
1.48249
1.55867
1.59006
1.6177
1.62414
1.62236
1.61845
1.61123
1.60132
1.59201
1.58537
1.57924
1.57347
1.57095
1.57051
1.56891
1.57435
1.596
1.64302
1.69905
1.78839
1
1
1.00074
1.14465
2.35885
2.65021
2.57552
2.50893
2.45976
2.42068
2.39559
2.37792
2.36008
2.33678
2.3097
2.28339
2.25776
2.23131
2.20357
2.17674
2.1507
2.12464
2.10023
2.07718
2.05415
2.03032
2.00554
1.9803
1.9557
1.93287
1.91216
1.89323
1.87545
1.85803
1.8403
1.82192
1.80288
1.78319
1.76286
1.74197
1.72072
1.69958
1.67924
1.66004
1.64184
1.62441
1.60747
1.59045
1.57345
1.55785
1.54456
1.53343
1.52355
1.51401
1.50437
1.49413
1.48305
1.47043
1.45652
1.44372
1.43245
1.42154
1.41163
1.40225
1.39212
1.38038
1.36615
1.34787
1.33018
1.31721
1.30781
1.30042
1.29363
1.28461
1.28896
1.31501
1.38906
1.4802
1.55913
1.58938
1.59676
1.603
1.60237
1.59908
1.59225
1.5853
1.58146
1.57565
1.57649
1.58939
1.62719
1.68801
1.75434
1.80406
1.83763
1.84951
1
1
1.00001
1.56154
2.64892
2.73918
2.68041
2.63738
2.59662
2.56079
2.53339
2.51005
2.47845
2.4445
2.41327
2.38385
2.35427
2.32332
2.28933
2.25524
2.22391
2.19402
2.16558
2.13851
2.11199
2.08502
2.0572
2.02919
2.00247
1.97813
1.95624
1.93623
1.91723
1.8982
1.87826
1.85712
1.83514
1.81277
1.79013
1.76711
1.74378
1.72061
1.69812
1.67667
1.65647
1.63756
1.61962
1.60201
1.58501
1.5697
1.55628
1.54484
1.53507
1.52608
1.51713
1.50789
1.49808
1.48591
1.47161
1.45619
1.44086
1.42797
1.417
1.40671
1.39641
1.38505
1.37143
1.35471
1.33821
1.32547
1.31488
1.30408
1.29349
1.28385
1.27675
1.27184
1.27981
1.31932
1.39457
1.48059
1.54768
1.58299
1.59252
1.58769
1.58426
1.58744
1.59605
1.61689
1.65765
1.72332
1.79557
1.85258
1.88591
1.89402
1.89047
1.87475
1
1
1
1.82594
2.76212
2.801
2.78138
2.756
2.7281
2.69735
2.66873
2.6364
2.59753
2.55746
2.51846
2.47954
2.43995
2.39918
2.35579
2.31354
2.27692
2.24542
2.2142
2.18373
2.15331
2.12216
2.09071
2.06072
2.03361
2.00946
1.98758
1.96699
1.94649
1.92479
1.90147
1.87751
1.85407
1.83116
1.80826
1.78479
1.76032
1.73499
1.70977
1.68649
1.66612
1.64808
1.63127
1.61474
1.5981
1.58115
1.56442
1.54937
1.53669
1.5261
1.51687
1.50772
1.497
1.48391
1.46905
1.45473
1.44285
1.43214
1.42159
1.41073
1.39943
1.38742
1.37407
1.36079
1.34676
1.33068
1.31955
1.3102
1.29987
1.28979
1.28038
1.2723
1.26329
1.2611
1.2726
1.32046
1.40163
1.48105
1.5383
1.57512
1.61957
1.66866
1.71548
1.75938
1.8059
1.85271
1.87763
1.8957
1.91251
1.9095
1.89625
1.87017
1
1
1
1.81661
2.76591
2.8147
2.80353
2.79077
2.77708
2.7576
2.73344
2.70084
2.66331
2.62191
2.57769
2.53165
2.48504
2.43753
2.39151
2.34764
2.30824
2.27356
2.2387
2.20488
2.17103
2.13679
2.10342
2.07286
2.04588
2.022
2.00019
1.97914
1.95738
1.93372
1.90834
1.88303
1.85936
1.83699
1.81479
1.79168
1.76658
1.73946
1.71236
1.68835
1.66837
1.65111
1.63531
1.62
1.60401
1.58594
1.56686
1.55039
1.53766
1.52747
1.51845
1.50945
1.49906
1.48648
1.47155
1.45617
1.44359
1.43307
1.42333
1.41293
1.40065
1.3872
1.37371
1.36087
1.34804
1.33461
1.32013
1.30425
1.29163
1.2815
1.27244
1.26317
1.2538
1.24746
1.23888
1.24129
1.26108
1.32831
1.43867
1.57543
1.69417
1.78762
1.86445
1.92382
1.97327
1.99879
1.98983
1.96761
1.94235
1.91693
1.89333
1.86126
)
;

boundaryField
{
    inlet
    {
        type            fixedValue;
        value           uniform 1;
    }
    outlet
    {
        type            inletOutlet;
        inletValue      uniform 1;
        value           nonuniform List<scalar> 
32
(
1.92213
1.92313
1.92111
1.9087
1.88585
1.85959
1.83414
1.81269
1.7975
1.77811
1.75798
1.73915
1.71991
1.70261
1.68886
1.67918
1.67195
1.65567
1.64185
1.62202
1.60747
1.59193
1.57561
1.56262
1.55434
1.56016
1.64521
1.78731
1.84887
1.87381
1.86881
1.85959
)
;
    }
    bottom
    {
        type            symmetryPlane;
    }
    top
    {
        type            symmetryPlane;
    }
    obstacle
    {
        type            zeroGradient;
    }
    defaultFaces
    {
        type            empty;
    }
}


// ************************************************************************* //
