/*--------------------------------*- C++ -*----------------------------------*\
  =========                 |
  \\      /  F ield         | OpenFOAM: The Open Source CFD Toolbox
   \\    /   O peration     | Website:  https://openfoam.org
    \\  /    A nd           | Version:  7
     \\/     M anipulation  |
\*---------------------------------------------------------------------------*/
FoamFile
{
    version     2.0;
    format      ascii;
    class       volVectorField;
    location    "3";
    object      U;
}
// * * * * * * * * * * * * * * * * * * * * * * * * * * * * * * * * * * * * * //

dimensions      [0 1 -1 0 0 0 0];

internalField   nonuniform List<vector> 
4032
(
(3 -9.37651e-17 0)
(3 -1.77144e-16 0)
(3 -1.8214e-16 0)
(3 1.39958e-16 0)
(3 -3.00904e-17 0)
(3 -1.5355e-16 0)
(3 -3.96932e-16 0)
(3 -4.0039e-16 0)
(3 2.36485e-17 0)
(3 8.13174e-17 0)
(3 -4.68452e-16 0)
(2.97579 0.00388861 0)
(1.04626 0.0200605 0)
(0.707763 0.0190881 0)
(0.655783 0.0209144 0)
(0.600746 0.0220502 0)
(0.545542 0.0235846 0)
(0.488152 0.0256972 0)
(0.427556 0.0282301 0)
(0.362726 0.0310324 0)
(0.293032 0.0340257 0)
(0.217154 0.0378162 0)
(0.134795 0.0403438 0)
(0.0499073 0.0450229 0)
(3 -4.92971e-17 0)
(3 -8.42251e-17 0)
(3 -8.11225e-17 0)
(3 1.63657e-16 0)
(3 -5.94014e-17 0)
(3 -3.71732e-16 0)
(3 -5.47136e-16 0)
(3 -3.60725e-16 0)
(3 3.5248e-16 0)
(3 3.51998e-16 0)
(3 -1.03417e-15 0)
(2.98946 0.00526921 0)
(1.06737 0.0804509 0)
(0.713202 0.0662701 0)
(0.658382 0.0686678 0)
(0.599929 0.0724252 0)
(0.540744 0.0763704 0)
(0.48001 0.0815458 0)
(0.417209 0.0879949 0)
(0.351524 0.0958914 0)
(0.282194 0.104795 0)
(0.208131 0.116563 0)
(0.128078 0.124583 0)
(0.0472752 0.137694 0)
(3 -1.38666e-16 0)
(3 9.70489e-17 0)
(3 5.84642e-17 0)
(3 -8.60075e-17 0)
(3 -7.98993e-18 0)
(3 -1.91441e-16 0)
(3 -5.57183e-16 0)
(3 -7.23314e-16 0)
(3 -5.44816e-16 0)
(3 -1.60227e-16 0)
(3 -7.29621e-16 0)
(3.00064 0.00108137 0)
(1.13134 0.126983 0)
(0.727416 0.108322 0)
(0.670405 0.116302 0)
(0.610638 0.123978 0)
(0.549356 0.131073 0)
(0.486554 0.13952 0)
(0.421806 0.149418 0)
(0.354526 0.161495 0)
(0.283729 0.174932 0)
(0.209119 0.193453 0)
(0.127677 0.205978 0)
(0.0475431 0.22583 0)
(3 -1.25986e-16 0)
(3 -1.96135e-16 0)
(3 -1.21912e-16 0)
(3 2.10333e-16 0)
(3 4.53478e-16 0)
(3 6.15811e-16 0)
(3 3.03544e-16 0)
(3 -7.78843e-16 0)
(3 -2.37032e-15 0)
(3 -2.45519e-15 0)
(3 -2.18414e-15 0)
(3.00003 3.68573e-06 0)
(1.22843 0.177555 0)
(0.736093 0.154692 0)
(0.673393 0.166018 0)
(0.614746 0.177128 0)
(0.554546 0.18707 0)
(0.493073 0.198963 0)
(0.428716 0.212847 0)
(0.360651 0.230132 0)
(0.287846 0.248638 0)
(0.212159 0.274215 0)
(0.128853 0.291789 0)
(0.0467901 0.316359 0)
(3 1.29962e-16 0)
(3 6.11026e-17 0)
(3 2.74631e-16 0)
(3 1.89668e-16 0)
(3 3.18223e-16 0)
(3 4.97834e-16 0)
(3 6.45814e-16 0)
(3 7.6879e-16 0)
(3 -2.80283e-16 0)
(3 -1.10387e-15 0)
(3 -9.49975e-16 0)
(3 -2.86036e-09 0)
(1.3822 0.22941 0)
(0.752246 0.205537 0)
(0.679637 0.215509 0)
(0.624194 0.228383 0)
(0.567381 0.240712 0)
(0.50987 0.256513 0)
(0.449036 0.275337 0)
(0.38437 0.299086 0)
(0.313272 0.322993 0)
(0.238218 0.356236 0)
(0.148696 0.382355 0)
(0.0568591 0.414936 0)
(3 -2.40773e-17 0)
(3 8.61913e-17 0)
(3 1.15288e-16 0)
(3 -7.80039e-17 0)
(3 1.4375e-16 0)
(3 6.70045e-17 0)
(3 -4.68487e-17 0)
(3 3.24155e-16 0)
(3 9.57825e-16 0)
(3 7.77712e-16 0)
(3 9.46438e-16 0)
(3 -2.24961e-10 0)
(1.60965 0.279329 0)
(0.777748 0.265285 0)
(0.683705 0.264662 0)
(0.628966 0.277199 0)
(0.575125 0.291025 0)
(0.523228 0.310715 0)
(0.468513 0.334752 0)
(0.409437 0.366954 0)
(0.33821 0.401066 0)
(0.259285 0.449019 0)
(0.162275 0.493334 0)
(0.0556497 0.534962 0)
(3 -4.76209e-17 0)
(3 2.92771e-16 0)
(3 4.16468e-16 0)
(3 7.24734e-16 0)
(3 2.46461e-16 0)
(3 -3.86014e-16 0)
(3 -1.09482e-15 0)
(3 -9.97392e-16 0)
(3 -1.92724e-16 0)
(3 2.73815e-16 0)
(3 1.09345e-15 0)
(3 -2.52298e-11 0)
(1.93338 0.330515 0)
(0.817656 0.341734 0)
(0.691789 0.325722 0)
(0.637563 0.330854 0)
(0.58593 0.342322 0)
(0.538845 0.363434 0)
(0.489744 0.391414 0)
(0.44066 0.433333 0)
(0.379275 0.481003 0)
(0.31493 0.542043 0)
(0.22709 0.60493 0)
(0.0988238 0.675023 0)
(3 1.71918e-16 0)
(3 3.42744e-16 0)
(3 3.0306e-16 0)
(3 5.2546e-17 0)
(3 -3.90689e-16 0)
(3 -1.75951e-15 0)
(3 -1.86276e-15 0)
(3 -1.20154e-15 0)
(3 -9.66164e-16 0)
(3 -3.59442e-16 0)
(3 3.93357e-16 0)
(3 -3.41047e-12 0)
(2.41123 0.333427 0)
(0.911741 0.430523 0)
(0.751875 0.379006 0)
(0.69671 0.383651 0)
(0.637955 0.392814 0)
(0.586661 0.41417 0)
(0.536081 0.445014 0)
(0.492418 0.492071 0)
(0.442185 0.549277 0)
(0.383325 0.636488 0)
(0.268682 0.764017 0)
(0.149128 0.933875 0)
(3 1.94151e-16 0)
(3 -1.57587e-17 0)
(3 -6.96794e-16 0)
(3 -9.30722e-16 0)
(3 -7.0739e-16 0)
(3 -4.2251e-16 0)
(3 -4.15591e-16 0)
(3 -6.74104e-16 0)
(3 -6.47637e-16 0)
(3 -6.29858e-16 0)
(3 -5.85464e-16 0)
(3 -2.0572e-13 0)
(2.96701 0.137527 0)
(1.10415 0.46194 0)
(0.847953 0.410364 0)
(0.793672 0.429847 0)
(0.724847 0.444877 0)
(0.663924 0.465875 0)
(0.609854 0.496032 0)
(0.56502 0.544744 0)
(0.522772 0.616698 0)
(0.487583 0.742064 0)
(0.457118 0.922664 0)
(0.575011 1.20739 0)
(3 -2.69759e-16 0)
(3 -8.38822e-16 0)
(3 -7.33604e-16 0)
(3 -7.82535e-16 0)
(3 -3.31187e-16 0)
(3 4.8984e-16 0)
(3 6.27872e-16 0)
(3 1.28859e-16 0)
(3 2.93053e-16 0)
(3 -2.26078e-16 0)
(3 -2.76028e-16 0)
(3 -1.77903e-14 0)
(3.03398 0.0066684 0)
(1.29359 0.436061 0)
(0.875287 0.471683 0)
(0.835942 0.502754 0)
(0.7786 0.51474 0)
(0.726227 0.532364 0)
(0.681149 0.559068 0)
(0.641331 0.60432 0)
(0.62011 0.680859 0)
(0.61698 0.810003 0)
(0.678736 0.959403 0)
(0.96591 1.1332 0)
(3 -2.59657e-16 0)
(3 -2.53452e-16 0)
(3 -1.54284e-16 0)
(3 1.32754e-16 0)
(3 2.43842e-16 0)
(3 6.8297e-16 0)
(3 1.15737e-15 0)
(3 1.47441e-15 0)
(3 1.36631e-15 0)
(3 1.17322e-15 0)
(3 6.39701e-16 0)
(3 -3.02405e-15 0)
(3.0008 -9.16922e-06 0)
(1.61163 0.46656 0)
(0.866029 0.511798 0)
(0.833921 0.542849 0)
(0.806128 0.566579 0)
(0.77841 0.585535 0)
(0.751439 0.610881 0)
(0.726301 0.650091 0)
(0.725828 0.719958 0)
(0.749933 0.831974 0)
(0.870104 0.95752 0)
(1.1821 1.06721 0)
(3 4.52396e-16 0)
(3 7.15566e-16 0)
(3 5.45045e-16 0)
(3 5.24229e-16 0)
(3 6.01915e-16 0)
(3 1.93387e-15 0)
(3 2.49313e-15 0)
(3 1.62626e-15 0)
(3 1.09285e-15 0)
(3 1.18087e-15 0)
(3 8.29439e-16 0)
(3 1.80812e-15 0)
(3 -1.10375e-06 0)
(2.27666 0.468551 0)
(0.962042 0.588461 0)
(0.863019 0.554379 0)
(0.857924 0.584285 0)
(0.841011 0.616841 0)
(0.824373 0.650733 0)
(0.814475 0.689305 0)
(0.826087 0.750228 0)
(0.873161 0.835115 0)
(1.01124 0.932404 0)
(1.27235 0.997957 0)
(3 1.65276e-16 0)
(3 9.38776e-17 0)
(3 3.20126e-16 0)
(3 1.61911e-17 0)
(3 1.98492e-16 0)
(3 4.75866e-16 0)
(3 4.64663e-16 0)
(3 -2.33123e-16 0)
(3 -5.33905e-17 0)
(3 4.08288e-16 0)
(3 9.43134e-16 0)
(3 1.54974e-15 0)
(3 -4.36125e-07 0)
(3.05437 0.133302 0)
(1.2252 0.602593 0)
(0.943257 0.563541 0)
(0.933712 0.615374 0)
(0.914322 0.648658 0)
(0.900433 0.682022 0)
(0.900225 0.719407 0)
(0.917406 0.770786 0)
(0.979466 0.837857 0)
(1.11638 0.909353 0)
(1.32767 0.951812 0)
(3 -2.06002e-16 0)
(3 -7.61349e-17 0)
(3 2.60526e-16 0)
(3 1.83238e-16 0)
(3 -3.64462e-16 0)
(3 -1.09708e-15 0)
(3 -1.25568e-15 0)
(3 -6.9535e-16 0)
(3 -3.33322e-16 0)
(3 -2.39077e-16 0)
(3 -6.31725e-17 0)
(3 1.8115e-16 0)
(3 -5.89245e-08 0)
(3.03039 0.00211241 0)
(1.49621 0.588371 0)
(0.970339 0.64942 0)
(0.945557 0.663088 0)
(0.933615 0.68611 0)
(0.94464 0.716961 0)
(0.962066 0.751399 0)
(0.995845 0.78864 0)
(1.06404 0.833459 0)
(1.18589 0.87769 0)
(1.34981 0.901045 0)
(3 -4.10373e-16 0)
(3 -1.31907e-16 0)
(3 1.19826e-16 0)
(3 3.40462e-16 0)
(3 -3.66887e-18 0)
(3 -1.98747e-16 0)
(3 7.15285e-17 0)
(3 -5.31774e-17 0)
(3 2.2155e-16 0)
(3 -2.29722e-16 0)
(3 -6.24438e-16 0)
(3 -2.61591e-16 0)
(3 -2.79092e-09 0)
(3.00046 -8.6738e-06 0)
(2.21658 0.557351 0)
(1.06274 0.726594 0)
(0.984613 0.685684 0)
(0.971477 0.698426 0)
(0.987675 0.723173 0)
(1.01329 0.757944 0)
(1.05905 0.795901 0)
(1.13269 0.833728 0)
(1.24011 0.864804 0)
(1.3729 0.878513 0)
(3 1.72633e-16 0)
(3 -2.84225e-16 0)
(3 -8.34347e-16 0)
(3 -7.56088e-16 0)
(3 9.58632e-17 0)
(3 8.11198e-16 0)
(3 1.23717e-15 0)
(3 6.35229e-16 0)
(3 8.84867e-16 0)
(3 9.59349e-16 0)
(3 1.08512e-15 0)
(3 1.06731e-15 0)
(3 -1.07452e-11 0)
(3.00003 -1.47803e-05 0)
(3.05942 0.128188 0)
(1.38191 0.717376 0)
(1.07889 0.707499 0)
(1.05379 0.709557 0)
(1.05051 0.73409 0)
(1.06819 0.762832 0)
(1.11061 0.791898 0)
(1.17993 0.821836 0)
(1.27362 0.843481 0)
(1.38643 0.851588 0)
(3 -5.61615e-17 0)
(3 -4.78348e-16 0)
(3 -3.94058e-16 0)
(3 -2.61386e-16 0)
(3 4.48645e-16 0)
(3 3.8937e-16 0)
(3 5.74492e-16 0)
(3 1.1781e-15 0)
(3 1.55071e-15 0)
(3 2.10518e-15 0)
(3 2.2203e-15 0)
(3 1.70091e-15 0)
(3 -1.39122e-14 0)
(3 -3.16397e-06 0)
(3.02216 0.00151407 0)
(1.80954 0.676255 0)
(1.11491 0.781564 0)
(1.09319 0.776155 0)
(1.10291 0.775186 0)
(1.12047 0.786481 0)
(1.15929 0.80349 0)
(1.22254 0.822903 0)
(1.30469 0.837497 0)
(1.40183 0.842779 0)
(3 2.6575e-17 0)
(3 -1.72019e-16 0)
(3 -2.80953e-17 0)
(3 1.4382e-16 0)
(3 9.94214e-17 0)
(3 5.59739e-17 0)
(3 4.04235e-17 0)
(3 8.98844e-16 0)
(3 8.65446e-16 0)
(3 9.58884e-16 0)
(3 3.83723e-16 0)
(3 3.18325e-16 0)
(3 5.91883e-16 0)
(3 -2.5603e-07 0)
(3.00023 1.16812e-05 0)
(2.81717 0.331866 0)
(1.30551 0.789473 0)
(1.15266 0.777374 0)
(1.17139 0.776509 0)
(1.18528 0.790628 0)
(1.21611 0.804374 0)
(1.26841 0.81712 0)
(1.33806 0.82749 0)
(1.42033 0.831326 0)
(3 3.17057e-16 0)
(3 5.23132e-16 0)
(3 4.20957e-16 0)
(3 4.30357e-16 0)
(3 -6.88981e-16 0)
(3 -9.3173e-16 0)
(3 -7.03126e-16 0)
(3 -5.01613e-16 0)
(3 -5.8233e-16 0)
(3 -8.09434e-16 0)
(3 -1.04953e-15 0)
(3 -1.05782e-15 0)
(3 -2.72821e-16 0)
(3 -1.38921e-09 0)
(3.00002 -7.06737e-06 0)
(3.05273 0.0148953 0)
(1.67646 0.734551 0)
(1.18478 0.820039 0)
(1.1984 0.819738 0)
(1.22008 0.826731 0)
(1.25582 0.833931 0)
(1.30366 0.839974 0)
(1.36431 0.843255 0)
(1.43473 0.840653 0)
(3 -4.47765e-16 0)
(3 -2.02619e-16 0)
(3 5.7111e-17 0)
(3 -3.72304e-17 0)
(3 -1.68242e-16 0)
(3 -6.03348e-16 0)
(3 -7.75326e-16 0)
(3 -1.4233e-15 0)
(3 -2.34088e-15 0)
(3 -3.04039e-15 0)
(3 -2.84303e-15 0)
(3 -2.33923e-15 0)
(3 -9.75101e-16 0)
(3 -2.07406e-12 0)
(3 -1.52033e-06 0)
(3.00138 0.000253426 0)
(2.62732 0.468151 0)
(1.31987 0.85306 0)
(1.23349 0.828372 0)
(1.26371 0.826509 0)
(1.29796 0.831641 0)
(1.34349 0.83543 0)
(1.39663 0.836384 0)
(1.45842 0.831548 0)
(3 -2.90512e-17 0)
(3 -4.30605e-16 0)
(3 -1.08468e-15 0)
(3 -7.39506e-16 0)
(3 3.31421e-16 0)
(3 6.4107e-16 0)
(3 6.50779e-17 0)
(3 -7.82182e-16 0)
(3 -1.90418e-15 0)
(3 -1.94283e-15 0)
(3 -1.59976e-15 0)
(3 -1.31682e-15 0)
(3 -1.10666e-15 0)
(3 -1.45006e-15 0)
(3 -1.25103e-07 0)
(3 2.2075e-07 0)
(3.05881 0.0372248 0)
(1.73792 0.785672 0)
(1.27282 0.854716 0)
(1.29616 0.852429 0)
(1.32769 0.853813 0)
(1.36881 0.854309 0)
(1.41712 0.852876 0)
(1.47432 0.846713 0)
(3 4.87468e-16 0)
(3 5.56979e-16 0)
(3 2.08692e-16 0)
(3 1.69905e-16 0)
(3 3.9357e-16 0)
(3 8.40029e-16 0)
(3 8.08945e-16 0)
(3 9.06092e-16 0)
(3 6.33494e-16 0)
(3 8.06133e-16 0)
(3 5.3537e-16 0)
(3 -2.58053e-16 0)
(3 -1.35868e-15 0)
(3 -1.40166e-15 0)
(3 -7.47432e-10 0)
(3 -6.32263e-08 0)
(3.00285 0.00104839 0)
(2.69189 0.466721 0)
(1.42492 0.900869 0)
(1.32768 0.865814 0)
(1.36537 0.860204 0)
(1.40009 0.857474 0)
(1.44391 0.853989 0)
(1.49685 0.847655 0)
(3 -2.57229e-16 0)
(3 -1.973e-16 0)
(3 4.91517e-16 0)
(3 5.74088e-16 0)
(3 2.29156e-16 0)
(3 -4.1331e-17 0)
(3 2.36048e-17 0)
(3 6.37744e-16 0)
(3 5.98106e-16 0)
(3 7.67198e-16 0)
(3 4.6884e-16 0)
(3 -1.22175e-16 0)
(3 -9.0237e-16 0)
(3 -5.0285e-16 0)
(3 -1.56311e-12 0)
(3 -1.29876e-08 0)
(3 4.03481e-06 0)
(3.04826 0.0334975 0)
(1.90205 0.788541 0)
(1.37652 0.889812 0)
(1.40065 0.882052 0)
(1.43093 0.877085 0)
(1.4693 0.87038 0)
(1.51272 0.863846 0)
(3 -3.69072e-16 0)
(3 -5.3501e-16 0)
(3 -5.06255e-16 0)
(3 -3.65435e-16 0)
(3 -6.43513e-16 0)
(3 -6.89023e-16 0)
(3 -5.87459e-16 0)
(3 -5.10698e-16 0)
(3 -7.80251e-16 0)
(3 -3.32577e-16 0)
(3 2.45753e-16 0)
(3 3.28646e-16 0)
(3 8.11804e-17 0)
(3 -1.55814e-16 0)
(3 -6.70433e-16 0)
(3 -1.20918e-09 0)
(3 -3.05382e-10 0)
(3.00174 0.00115392 0)
(2.79579 0.357632 0)
(1.61056 0.913505 0)
(1.41945 0.901364 0)
(1.46103 0.895417 0)
(1.49297 0.886911 0)
(1.53018 0.876014 0)
(3 3.3483e-16 0)
(3 2.07096e-16 0)
(3 -6.48557e-17 0)
(3 -3.20593e-16 0)
(3 -5.66345e-16 0)
(3 -8.56317e-17 0)
(3 -1.34604e-16 0)
(3 -4.59359e-16 0)
(3 4.13034e-18 0)
(3 2.63167e-16 0)
(3 8.46324e-16 0)
(3 1.25479e-16 0)
(3 1.1994e-16 0)
(3 -4.44281e-16 0)
(3 -7.4712e-16 0)
(3 -1.8352e-11 0)
(3 -1.59397e-10 0)
(3 4.25303e-06 0)
(3.02059 0.0224343 0)
(2.23161 0.730234 0)
(1.49314 0.926838 0)
(1.48851 0.917676 0)
(1.51974 0.90267 0)
(1.55084 0.889284 0)
(3 8.47264e-17 0)
(3 7.73448e-17 0)
(3 5.15278e-16 0)
(3 2.8587e-16 0)
(3 4.52737e-16 0)
(3 6.7315e-17 0)
(3 1.99338e-16 0)
(3 -8.59398e-17 0)
(3 5.62926e-16 0)
(3 3.70073e-16 0)
(3 -8.73039e-17 0)
(3 -3.97332e-16 0)
(3 -2.38974e-16 0)
(3 -5.16238e-17 0)
(3 -1.90997e-16 0)
(3 -6.60497e-14 0)
(3 -1.9771e-11 0)
(3 1.27473e-09 0)
(3.00035 0.000755423 0)
(2.95924 0.18103 0)
(1.8589 0.862859 0)
(1.5209 0.931264 0)
(1.5536 0.918638 0)
(1.58363 0.902436 0)
(3 -9.38026e-17 0)
(3 4.11069e-16 0)
(3 3.88714e-16 0)
(3 3.17089e-16 0)
(3 9.51037e-16 0)
(3 8.55662e-16 0)
(3 7.88323e-16 0)
(3 1.26377e-15 0)
(3 9.2887e-16 0)
(3 7.14866e-16 0)
(3 4.24342e-16 0)
(3 3.04414e-16 0)
(3 1.6567e-16 0)
(3 2.09718e-16 0)
(3 3.04607e-16 0)
(3 -1.04976e-15 0)
(3 -1.29547e-12 0)
(3 -1.16678e-12 0)
(3 1.97886e-06 0)
(3.00511 0.0103227 0)
(2.62014 0.494651 0)
(1.70165 0.946466 0)
(1.56237 0.940988 0)
(1.60062 0.92772 0)
(3 1.85866e-17 0)
(3 1.0049e-18 0)
(3 8.85677e-17 0)
(3 4.02594e-16 0)
(3 8.00141e-16 0)
(3 9.27659e-16 0)
(3 9.53855e-16 0)
(3 1.11426e-15 0)
(3 1.02895e-15 0)
(3 3.25988e-16 0)
(3 2.696e-16 0)
(3 1.08431e-17 0)
(3 -5.15885e-17 0)
(3 5.66421e-16 0)
(3 9.3081e-16 0)
(3 8.94515e-16 0)
(3 -1.69972e-14 0)
(3 -3.79061e-13 0)
(3 8.23954e-10 0)
(3 0.00016248 0)
(3.00273 0.0538477 0)
(2.25549 0.739752 0)
(1.6352 0.953884 0)
(1.62224 0.951559 0)
(3 2.17701e-16 0)
(3 -2.71394e-16 0)
(3 -4.66523e-16 0)
(3 -2.47826e-16 0)
(3 -4.7085e-16 0)
(3 -3.13242e-16 0)
(3 -7.35797e-17 0)
(3 -1.48043e-16 0)
(3 2.58458e-16 0)
(3 -1.12551e-16 0)
(3 -5.46556e-16 0)
(3 -1.18859e-15 0)
(3 -1.23326e-15 0)
(3 -2.48788e-16 0)
(3 -2.24377e-16 0)
(3 2.22478e-16 0)
(3 -5.42703e-16 0)
(3 -5.26698e-14 0)
(3 1.115e-13 0)
(3 2.10582e-07 0)
(3.00025 0.00234165 0)
(2.91751 0.204158 0)
(1.99771 0.846118 0)
(1.67212 0.957009 0)
(3 -1.65164e-17 0)
(3 -7.90314e-18 0)
(3 -7.3318e-18 0)
(3 -1.93736e-17 0)
(3 -8.60447e-16 0)
(3 -1.23328e-15 0)
(3 -1.14423e-15 0)
(3 -1.1594e-15 0)
(3 -3.50496e-16 0)
(3 8.95671e-17 0)
(3 -1.08411e-15 0)
(3 -1.04273e-15 0)
(3 -9.33717e-16 0)
(3 -7.37811e-16 0)
(3 -1.04959e-15 0)
(3 -1.16499e-15 0)
(3 -4.95234e-16 0)
(3 -4.00141e-15 0)
(3 -3.64066e-15 0)
(3 1.0959e-10 0)
(3 1.06994e-05 0)
(3.00059 0.0135336 0)
(2.69331 0.417145 0)
(1.88367 0.911046 0)
(3 -3.07085e-16 0)
(3 3.0035e-16 0)
(3 5.03838e-16 0)
(3 1.10331e-16 0)
(3 -3.15053e-16 0)
(3 -2.4223e-16 0)
(3 -1.71848e-16 0)
(3 -5.82729e-16 0)
(3 -9.4734e-16 0)
(3 -2.18293e-16 0)
(3 -2.44227e-17 0)
(3 2.61356e-16 0)
(3 -1.03667e-16 0)
(3 -4.23732e-17 0)
(3 -3.03404e-16 0)
(3 -9.28968e-16 0)
(3 -4.36852e-16 0)
(3 1.26249e-15 0)
(3 -9.81756e-16 0)
(3 1.32466e-14 0)
(3 8.6835e-09 0)
(2.99996 0.00021358 0)
(2.99321 0.0414747 0)
(2.45147 0.601822 0)
(3 3.48228e-16 0)
(3 4.68243e-16 0)
(3 -1.536e-16 0)
(3 -3.47259e-16 0)
(3 -2.01244e-16 0)
(3 2.79681e-16 0)
(3 4.92375e-16 0)
(3 4.4758e-16 0)
(3 -1.29331e-16 0)
(3 -6.64078e-16 0)
(3 4.95156e-16 0)
(3 1.09994e-15 0)
(3 6.19001e-16 0)
(3 6.87741e-17 0)
(3 -1.86205e-16 0)
(3 -5.47716e-17 0)
(3 1.30159e-15 0)
(3 2.48834e-15 0)
(3 2.14708e-15 0)
(3 1.54036e-15 0)
(3 2.97662e-12 0)
(3 3.36965e-07 0)
(2.99983 0.00148162 0)
(2.95282 0.105193 0)
(3 2.51249e-17 0)
(3 -2.91838e-16 0)
(3 3.38627e-17 0)
(3 2.30838e-16 0)
(3 6.30231e-16 0)
(3 3.19545e-16 0)
(3 1.6869e-16 0)
(3 1.77141e-16 0)
(3 1.6978e-16 0)
(3 -2.68161e-16 0)
(3 -2.3671e-16 0)
(3 1.69824e-16 0)
(3 -1.56411e-16 0)
(3 -1.33543e-15 0)
(3 -6.98472e-16 0)
(3 4.22677e-16 0)
(3 1.71239e-15 0)
(3 2.12029e-15 0)
(3 2.56911e-15 0)
(3 1.84404e-15 0)
(3 3.98247e-15 0)
(3 2.4574e-10 0)
(3 4.99191e-06 0)
(2.9991 0.00555872 0)
(3 -3.52328e-16 0)
(3 -5.90441e-16 0)
(3 -1.15521e-16 0)
(3 3.56151e-17 0)
(3 2.77834e-16 0)
(3 3.24374e-17 0)
(3 -8.77799e-17 0)
(3 7.46762e-17 0)
(3 3.9809e-16 0)
(3 5.38423e-16 0)
(3 -1.63027e-17 0)
(3 -3.72679e-16 0)
(3 -1.41241e-15 0)
(3 -2.06586e-15 0)
(3 -1.56113e-15 0)
(3 -2.15541e-16 0)
(3 1.06593e-15 0)
(3 1.16406e-15 0)
(3 1.59603e-15 0)
(3 2.20189e-15 0)
(3 2.08479e-15 0)
(3 2.69709e-14 0)
(3 5.37112e-09 0)
(2.99999 4.0224e-05 0)
(3 2.40757e-17 0)
(3 -2.30114e-16 0)
(3 -2.31151e-16 0)
(3 -7.5555e-17 0)
(3 2.34902e-16 0)
(3 6.84502e-16 0)
(3 3.01898e-16 0)
(3 3.01914e-16 0)
(3 5.45365e-16 0)
(3 5.55984e-16 0)
(3 6.65012e-16 0)
(3 6.80737e-16 0)
(3 5.7012e-16 0)
(3 4.45803e-17 0)
(3 4.45225e-16 0)
(3 6.87153e-16 0)
(3 9.48252e-16 0)
(3 1.05093e-15 0)
(3 1.46854e-15 0)
(3 2.16401e-15 0)
(3 2.01608e-15 0)
(3 1.11404e-15 0)
(3 1.24171e-12 0)
(3 5.65287e-08 0)
(3 -2.36672e-17 0)
(3 -2.69418e-16 0)
(3 3.11663e-16 0)
(3 7.56806e-16 0)
(3 6.61289e-16 0)
(3 4.98192e-16 0)
(3 2.19921e-16 0)
(3 2.23504e-16 0)
(3 6.86063e-16 0)
(3 8.5912e-16 0)
(3 9.05573e-16 0)
(3 1.14082e-15 0)
(3 1.82877e-15 0)
(3 2.19357e-15 0)
(3 2.95919e-15 0)
(3 2.73275e-15 0)
(3 1.99303e-15 0)
(3 2.02924e-15 0)
(3 2.00686e-15 0)
(3 2.03026e-15 0)
(3 1.96734e-15 0)
(3 1.41983e-15 0)
(3 1.31602e-15 0)
(3 2.81265e-11 0)
(3 1.18248e-16 0)
(3 7.26074e-16 0)
(3 1.99744e-16 0)
(3 -2.68908e-16 0)
(3 -9.63767e-18 0)
(3 -1.5741e-16 0)
(3 7.09945e-17 0)
(3 1.50041e-16 0)
(3 2.56951e-16 0)
(3 3.48147e-16 0)
(3 2.10207e-17 0)
(3 -3.99956e-16 0)
(3 5.43058e-16 0)
(3 2.25495e-15 0)
(3 2.81796e-15 0)
(3 3.10554e-15 0)
(3 1.9126e-15 0)
(3 1.64229e-15 0)
(3 1.78197e-15 0)
(3 1.81935e-15 0)
(3 1.71712e-15 0)
(3 1.18738e-15 0)
(3 4.05415e-16 0)
(3 2.29058e-15 0)
(3 2.54096e-16 0)
(3 2.11673e-16 0)
(3 -1.84235e-16 0)
(3 -9.57471e-16 0)
(3 -1.26234e-15 0)
(3 -8.75867e-16 0)
(3 -7.95614e-16 0)
(3 -9.25848e-16 0)
(3 -1.32618e-15 0)
(3 -1.00164e-15 0)
(3 -8.70127e-16 0)
(3 -6.47884e-16 0)
(3 -5.82427e-17 0)
(3 2.96497e-16 0)
(3 8.33616e-16 0)
(3 1.58001e-15 0)
(3 2.10181e-15 0)
(3 2.24135e-15 0)
(3 2.04199e-15 0)
(3 1.27327e-15 0)
(3 6.67082e-16 0)
(3 9.11616e-16 0)
(3 1.01016e-15 0)
(3 1.49781e-15 0)
(3 -1.04447e-16 0)
(3 -4.03221e-16 0)
(3 -3.94426e-16 0)
(3 -2.81612e-16 0)
(3 -1.06035e-15 0)
(3 -1.41411e-15 0)
(3 -1.66257e-15 0)
(3 -1.88012e-15 0)
(3 -1.56769e-15 0)
(3 -1.45898e-15 0)
(3 -8.03483e-16 0)
(3 -4.89658e-16 0)
(3 -5.40654e-16 0)
(3 -9.76794e-16 0)
(3 -1.305e-15 0)
(3 -7.38774e-16 0)
(3 2.13088e-15 0)
(3 3.22207e-15 0)
(3 2.50891e-15 0)
(3 1.26238e-15 0)
(3 1.02436e-15 0)
(3 1.29955e-15 0)
(3 1.44587e-15 0)
(3 1.98675e-15 0)
(3 -5.62165e-17 0)
(3 1.39885e-17 0)
(3 -3.10712e-18 0)
(3 3.92716e-17 0)
(3 -3.05857e-16 0)
(3 -6.51146e-16 0)
(3 -5.96156e-16 0)
(3 -8.79085e-16 0)
(3 -8.09058e-16 0)
(3 -6.4067e-16 0)
(3 -5.47465e-16 0)
(3 -8.45582e-16 0)
(3 -7.32002e-16 0)
(3 -1.02321e-15 0)
(3 -1.1463e-15 0)
(3 -7.55005e-16 0)
(3 4.13535e-16 0)
(3 9.98677e-16 0)
(3 7.52589e-16 0)
(3 5.8724e-16 0)
(3 7.36684e-16 0)
(3 6.1735e-16 0)
(3 2.23887e-16 0)
(3 8.14461e-16 0)
(1.50557 1.26861 0)
(2.0663 1.28073 0)
(2.25262 1.68776 0)
(2.25499 0.786297 0)
(2.50018 0.292426 0)
(2.59498 -0.0438906 0)
(2.58199 -0.192667 0)
(2.49691 -0.326615 0)
(2.45667 -0.300575 0)
(2.47531 -0.286718 0)
(2.50198 -0.287893 0)
(2.46064 -0.253201 0)
(2.41707 -0.214447 0)
(2.37952 -0.131468 0)
(2.34122 -0.0928778 0)
(2.35616 -0.0758 0)
(2.39511 -0.0547319 0)
(2.40235 -0.0349703 0)
(2.39921 -0.0291003 0)
(2.39326 -0.0292345 0)
(2.38463 -0.0159382 0)
(2.3834 -0.00370468 0)
(2.38586 0.00131984 0)
(2.39639 -0.00391731 0)
(2.39943 -0.0131952 0)
(2.39849 -0.0152206 0)
(2.39112 -0.0128059 0)
(2.37707 -0.00213579 0)
(2.37218 0.00283031 0)
(2.37264 0.00308383 0)
(2.39164 -0.00048332 0)
(2.40186 -0.00639979 0)
(2.17946 0.0110666 0)
(0.931212 -0.00633724 0)
(0.777717 -0.0342016 0)
(0.835582 -0.0527183 0)
(0.907427 -0.0603305 0)
(0.977606 -0.057938 0)
(1.0365 -0.0474482 0)
(1.0851 -0.039609 0)
(1.13356 -0.0367402 0)
(1.18541 -0.0358195 0)
(1.23636 -0.0340235 0)
(1.28182 -0.0300489 0)
(1.31932 -0.026049 0)
(1.35236 -0.0221668 0)
(1.38327 -0.0174703 0)
(1.41416 -0.0131109 0)
(1.44648 -0.0105022 0)
(1.48171 -0.00975881 0)
(1.51808 -0.0107381 0)
(1.55039 -0.0120253 0)
(1.57742 -0.0119573 0)
(1.60127 -0.0100603 0)
(1.62144 -0.0041624 0)
(1.6389 0.00342315 0)
(1.65822 0.00730134 0)
(1.68098 0.00855367 0)
(1.71124 0.00747021 0)
(1.74168 0.00472022 0)
(1.76613 0.000456175 0)
(1.78849 -0.00160926 0)
(1.80885 -0.00118041 0)
(1.82394 0.00129542 0)
(1.83759 0.00447737 0)
(1.85386 0.00618873 0)
(1.87223 0.00664286 0)
(1.89238 0.00689349 0)
(1.9156 0.00510311 0)
(1.93622 0.00135115 0)
(1.95675 -0.000598163 0)
(1.97481 -0.00104139 0)
(1.98235 0.00188532 0)
(1.98434 0.00701034 0)
(1.99412 0.0106471 0)
(2.01063 0.0113702 0)
(2.02867 0.011674 0)
(2.05187 0.0114997 0)
(2.08088 0.00917076 0)
(2.10133 0.00612785 0)
(2.12117 0.00519156 0)
(2.13977 0.0047333 0)
(2.15174 0.00467977 0)
(2.15174 0.00577481 0)
(2.14681 0.00778664 0)
(2.15359 0.00870045 0)
(2.16912 0.00877232 0)
(2.18483 0.00863503 0)
(2.20187 0.00810128 0)
(2.22095 0.00672586 0)
(2.23829 0.00589738 0)
(2.25643 0.00562668 0)
(2.27303 0.00545199 0)
(2.2825 0.00557166 0)
(2.27575 0.00744942 0)
(2.28242 0.00898353 0)
(1.7545 1.10231 0)
(2.29799 0.685673 0)
(2.53254 0.568183 0)
(2.63477 0.183175 0)
(2.73435 -0.305305 0)
(2.70681 -0.511848 0)
(2.69711 -0.594222 0)
(2.6942 -0.606926 0)
(2.66495 -0.55041 0)
(2.62055 -0.45178 0)
(2.6077 -0.366213 0)
(2.57503 -0.334588 0)
(2.51275 -0.285087 0)
(2.45241 -0.174866 0)
(2.42955 -0.0961321 0)
(2.43297 -0.0533215 0)
(2.44072 -0.00575326 0)
(2.44518 0.00540538 0)
(2.44344 -0.00756579 0)
(2.44516 -0.0183605 0)
(2.43053 -0.0168287 0)
(2.41859 -0.000168371 0)
(2.41527 0.0188185 0)
(2.41409 0.0217857 0)
(2.41668 -0.000172943 0)
(2.42677 -0.0318454 0)
(2.42277 -0.0399286 0)
(2.41607 -0.0302651 0)
(2.4119 -0.00419417 0)
(2.41462 0.0168503 0)
(2.42025 0.024981 0)
(2.4177 0.0116682 0)
(2.34393 -0.0709581 0)
(1.20695 -0.020335 0)
(0.972821 -0.0640338 0)
(1.02763 -0.111197 0)
(1.0842 -0.097911 0)
(1.12325 -0.0762072 0)
(1.15332 -0.0499796 0)
(1.18607 -0.0336727 0)
(1.22303 -0.0228484 0)
(1.26042 -0.0170397 0)
(1.29476 -0.0191496 0)
(1.32931 -0.0266188 0)
(1.36441 -0.0341081 0)
(1.39818 -0.037167 0)
(1.43002 -0.0330311 0)
(1.45928 -0.0221919 0)
(1.48766 -0.00864273 0)
(1.51491 0.000149324 0)
(1.53972 -0.000888654 0)
(1.568 -0.0118968 0)
(1.59695 -0.0223453 0)
(1.62119 -0.0252874 0)
(1.64195 -0.0229665 0)
(1.66241 -0.0128651 0)
(1.6819 0.00299217 0)
(1.70362 0.0170172 0)
(1.72675 0.0238424 0)
(1.74813 0.0222343 0)
(1.77097 0.0148226 0)
(1.79365 0.00580391 0)
(1.81448 -0.00147117 0)
(1.83488 -0.00239992 0)
(1.85393 0.0040684 0)
(1.86879 0.0157016 0)
(1.88151 0.0239575 0)
(1.89755 0.0255394 0)
(1.9162 0.0222072 0)
(1.93679 0.0148907 0)
(1.95656 0.00536104 0)
(1.9736 -0.00558349 0)
(1.98781 -0.0107261 0)
(1.99957 -0.00346368 0)
(2.01018 0.0114168 0)
(2.02097 0.0254342 0)
(2.03595 0.0319855 0)
(2.05296 0.0337122 0)
(2.07549 0.0296282 0)
(2.0985 0.0226147 0)
(2.11871 0.0173365 0)
(2.13772 0.0117863 0)
(2.15391 0.00485669 0)
(2.16393 0.00256246 0)
(2.16613 0.0115859 0)
(2.16536 0.0245722 0)
(2.17339 0.0288396 0)
(2.18918 0.0282947 0)
(2.20568 0.0267478 0)
(2.2247 0.0230982 0)
(2.24367 0.0184875 0)
(2.26091 0.0150422 0)
(2.27693 0.0106032 0)
(2.28898 0.00560165 0)
(2.28893 0.010938 0)
(2.29036 0.023837 0)
(1.6672 1.04529 0)
(2.05692 0.854756 0)
(2.32573 0.65632 0)
(2.51087 0.417181 0)
(2.63236 0.0818232 0)
(2.66839 -0.0815161 0)
(2.70241 -0.0916271 0)
(2.7233 -0.177882 0)
(2.72445 -0.327804 0)
(2.72883 -0.398547 0)
(2.74924 -0.442998 0)
(2.75121 -0.508796 0)
(2.72292 -0.486582 0)
(2.66836 -0.374114 0)
(2.65357 -0.284905 0)
(2.64647 -0.234753 0)
(2.59892 -0.148781 0)
(2.5611 -0.0847614 0)
(2.53202 -0.0881875 0)
(2.52129 -0.0871643 0)
(2.50901 -0.0385974 0)
(2.5038 0.00659269 0)
(2.49292 0.0224379 0)
(2.48034 0.0190616 0)
(2.47206 0.00441071 0)
(2.4707 -0.00976613 0)
(2.47406 -0.027833 0)
(2.48044 -0.0322456 0)
(2.48242 -0.0266371 0)
(2.4833 -0.0173908 0)
(2.47316 -0.0231166 0)
(2.45534 -0.0579227 0)
(2.21106 -0.385582 0)
(1.71375 -0.301366 0)
(1.27041 -0.12256 0)
(1.2697 -0.0497867 0)
(1.31321 -0.0706566 0)
(1.33363 -0.096876 0)
(1.34371 -0.0935365 0)
(1.35817 -0.0861824 0)
(1.38491 -0.0751048 0)
(1.40596 -0.0678772 0)
(1.42301 -0.0583334 0)
(1.44062 -0.050858 0)
(1.46116 -0.0483846 0)
(1.48599 -0.0471163 0)
(1.51417 -0.0467592 0)
(1.54197 -0.0436971 0)
(1.56556 -0.0384963 0)
(1.58714 -0.0306809 0)
(1.60457 -0.0187773 0)
(1.62253 -0.00965969 0)
(1.64306 -0.00778913 0)
(1.66394 -0.00909531 0)
(1.68667 -0.0110674 0)
(1.7101 -0.00985933 0)
(1.73206 -0.00284781 0)
(1.7518 0.00652976 0)
(1.76823 0.0151999 0)
(1.7801 0.0197377 0)
(1.79597 0.0165157 0)
(1.81626 0.0105792 0)
(1.83738 0.00621812 0)
(1.85921 0.00413358 0)
(1.87964 0.00486136 0)
(1.89866 0.0109038 0)
(1.91457 0.0228689 0)
(1.92379 0.0343099 0)
(1.93177 0.0365537 0)
(1.94618 0.030299 0)
(1.9617 0.0212061 0)
(1.97879 0.0127189 0)
(1.99915 0.00616024 0)
(2.01847 0.00428484 0)
(2.03632 0.0101733 0)
(2.05092 0.026067 0)
(2.05847 0.0429831 0)
(2.06725 0.0495065 0)
(2.08456 0.0480999 0)
(2.10326 0.0408995 0)
(2.12121 0.0332484 0)
(2.13809 0.0265593 0)
(2.15376 0.0199997 0)
(2.1696 0.0152891 0)
(2.18386 0.0161313 0)
(2.19254 0.0260864 0)
(2.19343 0.0403688 0)
(2.1993 0.0449933 0)
(2.21365 0.043624 0)
(2.22865 0.041348 0)
(2.24441 0.0373663 0)
(2.26018 0.0321764 0)
(2.27443 0.0263909 0)
(2.28599 0.0207067 0)
(2.29546 0.021748 0)
(2.30727 0.0327495 0)
(1.5999 0.976965 0)
(1.91585 0.832284 0)
(2.1395 0.708526 0)
(2.29032 0.593147 0)
(2.45393 0.352773 0)
(2.57725 0.100927 0)
(2.64079 -0.0327752 0)
(2.68082 -0.105846 0)
(2.72623 -0.259509 0)
(2.71079 -0.359115 0)
(2.75116 -0.427119 0)
(2.76866 -0.495668 0)
(2.78527 -0.508254 0)
(2.78697 -0.493019 0)
(2.76307 -0.456445 0)
(2.741 -0.403857 0)
(2.69718 -0.336829 0)
(2.65663 -0.259776 0)
(2.63198 -0.237945 0)
(2.61799 -0.209649 0)
(2.60734 -0.130035 0)
(2.59273 -0.0681411 0)
(2.57809 -0.0419179 0)
(2.55721 -0.0313341 0)
(2.5336 -0.0209606 0)
(2.51485 -0.0195177 0)
(2.50479 -0.0106197 0)
(2.52255 0.00998551 0)
(2.53892 0.0229465 0)
(2.53561 0.00243203 0)
(2.49812 -0.0653165 0)
(2.33121 -0.268892 0)
(1.99375 -0.576109 0)
(1.95161 -0.635213 0)
(1.65041 -0.356792 0)
(1.46759 -0.147215 0)
(1.43759 -0.0855697 0)
(1.45227 -0.0413832 0)
(1.47666 -0.0486995 0)
(1.49698 -0.0638959 0)
(1.5239 -0.0636237 0)
(1.53769 -0.0594369 0)
(1.54406 -0.0476563 0)
(1.54609 -0.0366868 0)
(1.55785 -0.0296879 0)
(1.57839 -0.0240958 0)
(1.60284 -0.018716 0)
(1.62713 -0.0181641 0)
(1.64774 -0.0198675 0)
(1.66707 -0.0213841 0)
(1.68169 -0.0182008 0)
(1.69062 -0.00891217 0)
(1.70446 -0.000224125 0)
(1.72383 0.00480973 0)
(1.74474 0.00929628 0)
(1.76749 0.011555 0)
(1.78978 0.0107652 0)
(1.80914 0.0096893 0)
(1.82612 0.0101828 0)
(1.83472 0.0140627 0)
(1.83964 0.0178123 0)
(1.85447 0.0189362 0)
(1.87401 0.0196566 0)
(1.89388 0.0205471 0)
(1.91449 0.0208159 0)
(1.93455 0.0202942 0)
(1.9529 0.0204462 0)
(1.96501 0.0242452 0)
(1.96685 0.0303736 0)
(1.97076 0.0306291 0)
(1.98507 0.0281006 0)
(2.00217 0.0278784 0)
(2.02055 0.0277858 0)
(2.04281 0.0273394 0)
(2.06356 0.0284719 0)
(2.08191 0.0304268 0)
(2.09625 0.038545 0)
(2.09954 0.0518547 0)
(2.10296 0.0551506 0)
(2.1158 0.0500132 0)
(2.12994 0.044527 0)
(2.14465 0.0388121 0)
(2.1615 0.0352188 0)
(2.17881 0.0338366 0)
(2.19644 0.0330707 0)
(2.21262 0.0349484 0)
(2.22091 0.0448609 0)
(2.21835 0.0585309 0)
(2.22431 0.0602553 0)
(2.2391 0.0555025 0)
(2.25354 0.0500979 0)
(2.26717 0.0448956 0)
(2.27953 0.0403623 0)
(2.2918 0.0371254 0)
(2.30508 0.0390136 0)
(2.32585 0.0440221 0)
(1.56274 0.933852 0)
(1.8043 0.841432 0)
(1.99697 0.74989 0)
(2.16116 0.629129 0)
(2.32474 0.437912 0)
(2.40526 0.332787 0)
(2.51096 0.192836 0)
(2.58856 0.0166302 0)
(2.62266 -0.0559723 0)
(2.64835 -0.0930971 0)
(2.66478 -0.163948 0)
(2.69776 -0.267285 0)
(2.70829 -0.325478 0)
(2.7367 -0.371993 0)
(2.75664 -0.412236 0)
(2.75757 -0.425381 0)
(2.74536 -0.414966 0)
(2.71887 -0.386229 0)
(2.70188 -0.370804 0)
(2.67621 -0.329387 0)
(2.66015 -0.245029 0)
(2.65696 -0.171788 0)
(2.66305 -0.160691 0)
(2.62642 -0.129486 0)
(2.58628 -0.0990526 0)
(2.55639 -0.0561529 0)
(2.54229 -0.0378077 0)
(2.55671 -0.00270559 0)
(2.57198 0.00577486 0)
(2.53562 -0.046554 0)
(2.34894 -0.256267 0)
(2.04417 -0.557384 0)
(1.955 -0.61302 0)
(1.96527 -0.653001 0)
(1.93096 -0.599402 0)
(1.76744 -0.398368 0)
(1.6011 -0.198293 0)
(1.53332 -0.0921045 0)
(1.52583 -0.0437884 0)
(1.55931 -0.0478992 0)
(1.59055 -0.0606324 0)
(1.606 -0.0641575 0)
(1.61185 -0.0562797 0)
(1.61154 -0.0412238 0)
(1.62093 -0.0270154 0)
(1.63981 -0.0176435 0)
(1.66201 -0.0184992 0)
(1.68478 -0.0228228 0)
(1.70523 -0.0245658 0)
(1.7239 -0.0234611 0)
(1.7391 -0.0175948 0)
(1.74851 -0.0051399 0)
(1.75674 0.00907197 0)
(1.77411 0.0160018 0)
(1.79459 0.0183696 0)
(1.81616 0.0193518 0)
(1.83686 0.0177797 0)
(1.85631 0.0150318 0)
(1.87347 0.012168 0)
(1.88405 0.0119768 0)
(1.88686 0.0176914 0)
(1.89428 0.0243228 0)
(1.91112 0.0270814 0)
(1.93045 0.0287727 0)
(1.95016 0.0315771 0)
(1.96966 0.0339652 0)
(1.98845 0.0349392 0)
(2.00307 0.0353689 0)
(2.0069 0.0384778 0)
(2.00549 0.0440644 0)
(2.01735 0.0464647 0)
(2.0328 0.0470125 0)
(2.05001 0.0474048 0)
(2.07118 0.0466776 0)
(2.09131 0.0446279 0)
(2.11012 0.0433905 0)
(2.12771 0.0425642 0)
(2.1365 0.0468808 0)
(2.13259 0.0561925 0)
(2.13395 0.057599 0)
(2.14515 0.055161 0)
(2.15905 0.0540441 0)
(2.1748 0.0538523 0)
(2.19167 0.0534781 0)
(2.20884 0.0526863 0)
(2.22547 0.0518973 0)
(2.23975 0.0532012 0)
(2.24642 0.0615567 0)
(2.24417 0.0728321 0)
(2.24843 0.0724023 0)
(2.26147 0.0655031 0)
(2.2749 0.0587834 0)
(2.28844 0.0541148 0)
(2.30317 0.0531217 0)
(2.31822 0.0553712 0)
(2.34297 0.0596283 0)
(1.53623 0.88633 0)
(1.7348 0.826377 0)