/*--------------------------------*- C++ -*----------------------------------*\
  =========                 |
  \\      /  F ield         | OpenFOAM: The Open Source CFD Toolbox
   \\    /   O peration     | Website:  https://openfoam.org
    \\  /    A nd           | Version:  7
     \\/     M anipulation  |
\*---------------------------------------------------------------------------*/
FoamFile
{
    version     2.0;
    format      ascii;
    class       volVectorField;
    location    "90";
    object      U;
}
// * * * * * * * * * * * * * * * * * * * * * * * * * * * * * * * * * * * * * //

dimensions      [0 1 -1 0 0 0 0];

internalField   nonuniform List<vector> 
1987
(
(0.930927 0.22614 0)
(0.904627 0.206359 0)
(0.879447 0.184083 0)
(0.857116 0.157607 0)
(0.835618 0.129249 0)
(0.808302 0.105093 0)
(0.771171 0.0877401 0)
(0.729604 0.0711551 0)
(0.696047 0.0444917 0)
(0.680884 0.000866986 0)
(0.68551 -0.0580552 0)
(0.703566 -0.125334 0)
(0.726679 -0.195012 0)
(0.748897 -0.26481 0)
(0.768391 -0.334084 0)
(0.787199 -0.399515 0)
(0.808932 -0.452705 0)
(0.937503 0.216929 0)
(0.912 0.197497 0)
(0.887237 0.175939 0)
(0.865047 0.150292 0)
(0.844958 0.121504 0)
(0.821322 0.0950586 0)
(0.788512 0.0752585 0)
(0.748734 0.0587798 0)
(0.712614 0.035896 0)
(0.691677 -0.00178117 0)
(0.690147 -0.0552749 0)
(0.70374 -0.119394 0)
(0.724636 -0.188196 0)
(0.746695 -0.258352 0)
(0.76784 -0.32795 0)
(0.789787 -0.392893 0)
(0.815399 -0.444867 0)
(0.846137 -0.471651 0)
(0.883426 -0.458663 0)
(0.928028 -0.394242 0)
(0.977769 -0.278498 0)
(1.02801 -0.128449 0)
(1.07132 0.0262827 0)
(1.099 0.15655 0)
(1.10792 0.246302 0)
(1.10027 0.294917 0)
(1.08115 0.312277 0)
(1.05508 0.309264 0)
(1.02811 0.293952 0)
(1.00138 0.272986 0)
(0.973844 0.252214 0)
(0.946516 0.230003 0)
(0.924599 0.202756 0)
(0.905644 0.173014 0)
(0.880744 0.149765 0)
(0.847621 0.134196 0)
(0.813607 0.115339 0)
(0.795715 0.0818342 0)
(0.79409 0.0264205 0)
(0.810558 -0.0396163 0)
(0.824795 -0.119231 0)
(0.84178 -0.195457 0)
(0.845018 -0.281542 0)
(0.851891 -0.347695 0)
(0.85069 -0.396313 0)
(0.858987 -0.393921 0)
(0.871729 -0.332959 0)
(0.892782 -0.234052 0)
(0.928781 -0.0861301 0)
(0.950712 0.0249159 0)
(0.986801 0.14075 0)
(0.984178 0.183992 0)
(1.00494 0.221062 0)
(0.98235 0.208368 0)
(0.982322 0.213624 0)
(0.957148 0.163829 0)
(0.944036 0.207651 0)
(0.919389 0.188561 0)
(0.895259 0.167619 0)
(0.87323 0.142935 0)
(0.854063 0.114279 0)
(0.833606 0.0860374 0)
(0.805445 0.0635145 0)
(0.768747 0.046053 0)
(0.731536 0.0257611 0)
(0.705493 -0.00650113 0)
(0.697421 -0.0542717 0)
(0.705687 -0.114478 0)
(0.723659 -0.181618 0)
(0.745255 -0.251465 0)
(0.76807 -0.320845 0)
(0.79323 -0.384943 0)
(0.822733 -0.435514 0)
(0.857775 -0.460564 0)
(0.899697 -0.445728 0)
(0.948269 -0.379919 0)
(1.0011 -0.263803 0)
(1.05323 -0.115071 0)
(1.09628 0.036134 0)
(1.12151 0.161346 0)
(1.12672 0.246091 0)
(1.11527 0.290859 0)
(1.09311 0.305808 0)
(1.06474 0.301848 0)
(1.03596 0.286608 0)
(1.00829 0.265757 0)
(0.980616 0.245005 0)
(0.952756 0.223549 0)
(0.929908 0.197489 0)
(0.911235 0.167662 0)
(0.888428 0.142765 0)
(0.857255 0.126033 0)
(0.822775 0.108726 0)
(0.801902 0.0791237 0)
(0.796611 0.0277801 0)
(0.810791 -0.0361125 0)
(0.824122 -0.115684 0)
(0.842 -0.192952 0)
(0.846589 -0.280177 0)
(0.856071 -0.346744 0)
(0.857186 -0.39502 0)
(0.86856 -0.391504 0)
(0.883711 -0.328803 0)
(0.907163 -0.228101 0)
(0.944837 -0.0797609 0)
(0.967094 0.0309139 0)
(1.00194 0.144111 0)
(0.997614 0.185723 0)
(1.01512 0.220745 0)
(0.992277 0.205923 0)
(0.990066 0.211028 0)
(0.963529 0.161224 0)
(0.950534 0.198324 0)
(0.926761 0.179604 0)
(0.903457 0.159176 0)
(0.881727 0.135478 0)
(0.863106 0.107435 0)
(0.845177 0.0780433 0)
(0.821654 0.0528318 0)
(0.789151 0.0334724 0)
(0.752557 0.0144199 0)
(0.722612 -0.0133096 0)
(0.708083 -0.0553235 0)
(0.710318 -0.110907 0)
(0.724572 -0.175477 0)
(0.745227 -0.244189 0)
(0.769531 -0.312724 0)
(0.797783 -0.375595 0)
(0.831143 -0.424539 0)
(0.870629 -0.44769 0)
(0.917115 -0.431016 0)
(0.969568 -0.363997 0)
(1.02554 -0.247836 0)
(1.07935 -0.101024 0)
(1.12162 0.0458755 0)
(1.14389 0.16537 0)
(1.1451 0.244762 0)
(1.12973 0.285666 0)
(1.10458 0.298362 0)
(1.07408 0.293607 0)
(1.04364 0.278627 0)
(1.01505 0.258126 0)
(0.987332 0.237468 0)
(0.959186 0.216683 0)
(0.935443 0.191925 0)
(0.916768 0.162401 0)
(0.895919 0.136048 0)
(0.867036 0.117827 0)
(0.832654 0.101482 0)
(0.809018 0.0754796 0)
(0.799763 0.0283939 0)
(0.8112 -0.0329107 0)
(0.823375 -0.112034 0)
(0.842184 -0.190071 0)
(0.848284 -0.278276 0)
(0.860606 -0.345159 0)
(0.864278 -0.393022 0)
(0.878907 -0.388371 0)
(0.896668 -0.323929 0)
(0.922722 -0.221485 0)
(0.962003 -0.0729599 0)
(0.984482 0.0370185 0)
(1.01769 0.147257 0)
(1.01168 0.18697 0)
(1.02555 0.220023 0)
(1.00231 0.203132 0)
(0.998071 0.207974 0)
(0.970077 0.158378 0)
(0.957008 0.188958 0)
(0.934096 0.170668 0)
(0.911758 0.15068 0)
(0.890544 0.127903 0)
(0.872256 0.100823 0)
(0.856145 0.0709965 0)
(0.836891 0.0434464 0)
(0.809382 0.0215626 0)
(0.775193 0.00237895 0)
(0.743069 -0.0220213 0)
(0.72278 -0.0586082 0)
(0.718616 -0.109013 0)
(0.728368 -0.17003 0)
(0.747423 -0.236633 0)
(0.772773 -0.303586 0)
(0.803796 -0.364782 0)
(0.840914 -0.411808 0)
(0.884831 -0.432896 0)
(0.93568 -0.41444 0)
(0.99194 -0.34641 0)
(1.05104 -0.230586 0)
(1.10614 -0.0864013 0)
(1.14701 0.05533 0)
(1.16579 0.168441 0)
(1.16274 0.242178 0)
(1.14344 0.279261 0)
(1.11539 0.289911 0)
(1.08297 0.284545 0)
(1.05108 0.270003 0)
(1.02163 0.250089 0)
(0.993936 0.229636 0)
(0.965758 0.209431 0)
(0.941234 0.186022 0)
(0.922286 0.15718 0)
(0.903166 0.129661 0)
(0.876845 0.109705 0)
(0.843193 0.0936864 0)
(0.817186 0.070846 0)
(0.803802 0.0281162 0)
(0.812033 -0.0301296 0)
(0.822732 -0.108312 0)
(0.842419 -0.186769 0)
(0.850152 -0.27575 0)
(0.86554 -0.342834 0)
(0.871996 -0.390213 0)
(0.890054 -0.384426 0)
(0.910659 -0.318248 0)
(0.939534 -0.214151 0)
(0.980289 -0.0657312 0)
(1.00285 0.0431705 0)
(1.03399 0.150124 0)
(1.02629 0.187653 0)
(1.03618 0.218811 0)
(1.01238 0.199975 0)
(1.00628 0.204441 0)
(0.976777 0.155269 0)
(0.963465 0.179568 0)
(0.941391 0.161784 0)
(0.920091 0.142208 0)
(0.899634 0.120236 0)
(0.881649 0.094307 0)
(0.866702 0.0647344 0)
(0.851032 0.035475 0)
(0.828858 0.0108286 0)
(0.798731 -0.00969261 0)
(0.766564 -0.0322086 0)
(0.741922 -0.064119 0)
(0.731536 -0.109073 0)
(0.736155 -0.165594 0)
(0.752793 -0.229009 0)
(0.778472 -0.293531 0)
(0.811758 -0.352493 0)
(0.852401 -0.397235 0)
(0.900522 -0.416116 0)
(0.955436 -0.395948 0)
(1.01541 -0.327093 0)
(1.07746 -0.212052 0)
(1.13334 -0.0713433 0)
(1.17209 0.0642777 0)
(1.18683 0.170363 0)
(1.17933 0.238216 0)
(1.15616 0.271582 0)
(1.12538 0.280447 0)
(1.09131 0.274684 0)
(1.05823 0.260745 0)
(1.028 0.241646 0)
(1.00038 0.221543 0)
(0.972414 0.201831 0)
(0.9473 0.179749 0)
(0.927849 0.151936 0)
(0.910138 0.123629 0)
(0.886545 0.101805 0)
(0.854297 0.085465 0)
(0.826499 0.0652093 0)
(0.808999 0.0268094 0)
(0.81359 -0.0279106 0)
(0.822418 -0.104575 0)
(0.84283 -0.183018 0)
(0.852274 -0.272512 0)
(0.870922 -0.339661 0)
(0.880363 -0.38649 0)
(0.902031 -0.379563 0)
(0.925736 -0.311658 0)
(0.957651 -0.206044 0)
(0.999679 -0.0580902 0)
(1.02216 0.0492932 0)
(1.05071 0.152637 0)
(1.04132 0.187694 0)
(1.04698 0.217017 0)
(1.02241 0.196428 0)
(1.01464 0.200416 0)
(0.983612 0.151877 0)
(0.969905 0.170173 0)
(0.948653 0.152967 0)
(0.9284 0.133826 0)
(0.908908 0.112541 0)
(0.891359 0.0877968 0)
(0.877089 0.0590441 0)
(0.86412 0.0288874 0)
(0.847083 0.00168566 0)
(0.822285 -0.0210512 0)
(0.792394 -0.0431935 0)
(0.765512 -0.0715795 0)
(0.74983 -0.111227 0)
(0.749052 -0.162496 0)
(0.76241 -0.22163 0)
(0.787474 -0.282759 0)
(0.822315 -0.338793 0)
(0.866029 -0.38082 0)
(0.917884 -0.397349 0)
(0.976482 -0.375507 0)
(1.04001 -0.305991 0)
(1.1047 -0.192295 0)
(1.16062 -0.056059 0)
(1.19641 0.0724538 0)
(1.20657 0.170929 0)
(1.19449 0.23277 0)
(1.16764 0.262598 0)
(1.13439 0.269988 0)
(1.09897 0.264068 0)
(1.06502 0.250882 0)
(1.03414 0.2328 0)
(1.00662 0.21322 0)
(0.979084 0.193937 0)
(0.953639 0.173091 0)
(0.933529 0.146592 0)
(0.916833 0.117949 0)
(0.895997 0.0942638 0)
(0.865823 0.0769874 0)
(0.836995 0.0586138 0)
(0.815622 0.0243603 0)
(0.816211 -0.0264115 0)
(0.822717 -0.100912 0)
(0.843587 -0.178811 0)
(0.854763 -0.268483 0)
(0.876809 -0.335537 0)
(0.889397 -0.381744 0)
(0.914867 -0.373664 0)
(0.941935 -0.304046 0)
(0.9771 -0.197114 0)
(1.02012 -0.0500706 0)
(1.04231 0.0552899 0)
(1.06774 0.154701 0)
(1.05661 0.187017 0)
(1.05789 0.21455 0)
(1.03232 0.192463 0)
(1.02306 0.195893 0)
(0.990555 0.148187 0)
(0.976316 0.160798 0)
(0.955894 0.144231 0)
(0.936653 0.125587 0)
(0.918259 0.104907 0)
(0.901374 0.0812671 0)
(0.887543 0.0537054 0)
(0.876368 0.0235048 0)
(0.863758 -0.00563423 0)
(0.844919 -0.030976 0)
(0.819458 -0.0540851 0)
(0.792983 -0.0803839 0)
(0.773805 -0.115362 0)
(0.768016 -0.160995 0)
(0.777416 -0.214875 0)
(0.800814 -0.271574 0)
(0.836291 -0.323857 0)
(0.882314 -0.36267 0)
(0.937188 -0.376662 0)
(0.999017 -0.353107 0)
(1.06585 -0.283103 0)
(1.1326 -0.171462 0)
(1.18755 -0.0408482 0)
(1.21943 0.0795467 0)
(1.2245 0.169935 0)
(1.20785 0.225764 0)
(1.17763 0.252316 0)
(1.14229 0.258576 0)
(1.10586 0.25276 0)
(1.07138 0.240459 0)
(1.04004 0.223561 0)
(1.01263 0.204695 0)
(0.985691 0.185814 0)
(0.960229 0.166057 0)
(0.939408 0.141067 0)
(0.923287 0.112584 0)
(0.90507 0.0872071 0)
(0.877579 0.0684636 0)
(0.84864 0.0511746 0)
(0.823903 0.0206976 0)
(0.820267 -0.0257969 0)
(0.82397 -0.097443 0)
(0.844921 -0.174166 0)
(0.857769 -0.263596 0)
(0.883264 -0.330367 0)
(0.89912 -0.375865 0)
(0.928595 -0.366599 0)
(0.959268 -0.295292 0)
(0.997867 -0.187318 0)
(1.04153 -0.041723 0)
(1.06317 0.0610453 0)
(1.08492 0.156205 0)
(1.07197 0.185547 0)
(1.06883 0.21132 0)
(1.04201 0.188046 0)
(1.03145 0.190873 0)
(0.997573 0.144189 0)
(0.98268 0.151477 0)
(0.963116 0.135586 0)
(0.944843 0.11752 0)
(0.927591 0.09742 0)
(0.911609 0.0747598 0)
(0.898222 0.0485453 0)
(0.888106 0.0190405 0)
(0.878865 -0.0111375 0)
(0.865837 -0.0388979 0)
(0.846373 -0.0638927 0)
(0.823101 -0.0895986 0)
(0.803048 -0.121011 0)
(0.793552 -0.16115 0)
(0.798865 -0.209096 0)
(0.819671 -0.26036 0)
(0.854679 -0.307987 0)
(0.901921 -0.343013 0)
(0.958888 -0.354186 0)
(1.02342 -0.328782 0)
(1.09311 -0.25852 0)
(1.16095 -0.149824 0)
(1.21361 -0.0261119 0)
(1.24053 0.0852077 0)
(1.2401 0.167191 0)
(1.21905 0.217168 0)
(1.18593 0.240791 0)
(1.14896 0.246288 0)
(1.1119 0.240845 0)
(1.07724 0.229545 0)
(1.04568 0.213949 0)
(1.0184 0.195986 0)
(0.992161 0.177528 0)
(0.967014 0.158684 0)
(0.945559 0.135287 0)
(0.929581 0.107459 0)
(0.913667 0.0807288 0)
(0.889332 0.0601336 0)
(0.861307 0.0430838 0)
(0.834011 0.0158144 0)
(0.826136 -0.0262223 0)
(0.826584 -0.0943146 0)
(0.847125 -0.169135 0)
(0.861481 -0.257807 0)
(0.890359 -0.324069 0)
(0.909558 -0.368737 0)
(0.943243 -0.358228 0)
(0.977727 -0.285278 0)
(1.01989 -0.176632 0)
(1.06374 -0.0331208 0)
(1.08453 0.0664257 0)
(1.10208 0.157022 0)
(1.08718 0.183215 0)
(1.07969 0.207249 0)
(1.05143 0.183145 0)
(1.03973 0.185364 0)
(1.00462 0.139881 0)
(0.988972 0.14225 0)
(0.97031 0.127049 0)
(0.952973 0.109637 0)
(0.93684 0.0901498 0)
(0.92193 0.0683601 0)
(0.909165 0.043479 0)
(0.899682 0.0151856 0)
(0.892673 -0.0150546 0)
(0.884585 -0.0445329 0)
(0.871742 -0.0717099 0)
(0.854043 -0.0980616 0)
(0.836193 -0.127299 0)
(0.825313 -0.162663 0)
(0.827362 -0.20448 0)
(0.845143 -0.24952 0)
(0.87858 -0.291614 0)
(0.925729 -0.322213 0)
(0.983718 -0.330134 0)
(1.05029 -0.302647 0)
(1.12198 -0.232482 0)
(1.18936 -0.127876 0)
(1.23804 -0.0123873 0)
(1.25896 0.089061 0)
(1.25283 0.162555 0)
(1.22775 0.207015 0)
(1.19234 0.228131 0)
(1.15431 0.233236 0)
(1.11703 0.228424 0)
(1.08255 0.218222 0)
(1.05104 0.203998 0)
(1.02393 0.187108 0)
(0.998432 0.169146 0)
(0.973914 0.151034 0)
(0.952035 0.129198 0)
(0.935837 0.102469 0)
(0.921741 0.0748758 0)
(0.900823 0.0522472 0)
(0.874763 0.0346134 0)
(0.846008 0.00979378 0)
(0.834178 -0.0278091 0)
(0.831022 -0.091696 0)
(0.850566 -0.163811 0)
(0.866131 -0.251107 0)
(0.898184 -0.316581 0)
(0.920744 -0.360247 0)
(0.958838 -0.348408 0)
(0.997279 -0.273893 0)
(1.04305 -0.165051 0)
(1.08655 -0.0243602 0)
(1.10613 0.071281 0)
(1.11898 0.157013 0)
(1.10198 0.179958 0)
(1.09034 0.202272 0)
(1.06048 0.177726 0)
(1.04779 0.179381 0)
(1.01166 0.135267 0)
(0.995173 0.133155 0)
(0.977457 0.118647 0)
(0.961047 0.101947 0)
(0.945975 0.0831386 0)
(0.93221 0.0621636 0)
(0.920288 0.0385168 0)
(0.911331 0.0116871 0)
(0.905635 -0.0177718 0)
(0.901177 -0.0479519 0)
(0.89451 -0.0769339 0)
(0.883739 -0.104605 0)
(0.870945 -0.133003 0)
(0.861717 -0.164761 0)
(0.862473 -0.200859 0)
(0.877718 -0.239337 0)
(0.90889 -0.275228 0)
(0.95471 -0.30073 0)
(1.01262 -0.304818 0)
(1.08027 -0.274994 0)
(1.15239 -0.205506 0)
(1.21709 -0.106343 0)
(1.25986 -0.00032794 0)
(1.27389 0.0907568 0)
(1.26218 0.155965 0)
(1.2337 0.19542 0)
(1.19676 0.21451 0)
(1.15831 0.21957 0)
(1.12124 0.215615 0)
(1.08728 0.206588 0)
(1.05611 0.193756 0)
(1.02924 0.178071 0)
(1.00446 0.160721 0)
(0.980824 0.143195 0)
(0.958845 0.122781 0)
(0.942205 0.0974866 0)
(0.92932 0.0696314 0)
(0.911803 0.0450363 0)
(0.888664 0.0261093 0)
(0.859809 0.00282556 0)
(0.844682 -0.030612 0)
(0.837782 -0.0897615 0)
(0.85568 -0.158333 0)
(0.872 -0.243533 0)
(0.906857 -0.307871 0)
(0.932725 -0.350284 0)
(0.975408 -0.336993 0)
(1.01788 -0.261041 0)
(1.06718 -0.152598 0)
(1.10967 -0.0155876 0)
(1.12762 0.0754453 0)
(1.13538 0.156029 0)
(1.11609 0.175723 0)
(1.10062 0.196348 0)
(1.0691 0.171761 0)
(1.05554 0.172945 0)
(1.01862 0.13036 0)
(1.00126 0.12423 0)
(0.984525 0.110412 0)
(0.969055 0.0944586 0)
(0.954988 0.0764027 0)
(0.942353 0.0562479 0)
(0.931444 0.0337335 0)
(0.923122 0.0084097 0)
(0.918199 -0.0196989 0)
(0.916041 -0.0495331 0)
(0.914269 -0.0794252 0)
(0.910431 -0.10836 0)
(0.904509 -0.13681 0)
(0.899898 -0.16624 0)
(0.902157 -0.197562 0)
(0.916464 -0.229755 0)
(0.945545 -0.259186 0)
(0.989324 -0.279033 0)
(1.04616 -0.278678 0)
(1.11338 -0.246418 0)
(1.1835 -0.178493 0)
(1.24277 -0.0861606 0)
(1.27779 0.00941418 0)
(1.28451 0.0900484 0)
(1.26775 0.147487 0)
(1.23677 0.182596 0)
(1.19916 0.200155 0)
(1.16096 0.20547 0)
(1.12454 0.202548 0)
(1.09139 0.194748 0)
(1.06084 0.183286 0)
(1.03434 0.168884 0)
(1.01024 0.152291 0)
(0.987636 0.135263 0)
(0.965942 0.116062 0)
(0.94883 0.0923848 0)
(0.936525 0.0649073 0)
(0.922078 0.0386778 0)
(0.902579 0.0179672 0)
(0.875134 -0.00476089 0)
(0.857796 -0.0345759 0)
(0.847345 -0.0886648 0)
(0.862957 -0.152888 0)
(0.879423 -0.235183 0)
(0.91654 -0.297947 0)
(0.945576 -0.33875 0)
(0.992992 -0.323844 0)
(1.03947 -0.246651 0)
(1.09203 -0.139338 0)
(1.13278 -0.0069811 0)
(1.14856 0.0787407 0)
(1.15097 0.153924 0)
(1.12923 0.170467 0)
(1.11035 0.189465 0)
(1.07722 0.165231 0)
(1.06289 0.166083 0)
(1.02546 0.125179 0)
(1.00722 0.115509 0)
(0.991486 0.102378 0)
(0.976973 0.0871902 0)
(0.963875 0.0699466 0)
(0.952309 0.0506589 0)
(0.942477 0.0292186 0)
(0.934965 0.00534089 0)
(0.930643 -0.0211445 0)
(0.929783 -0.049803 0)
(0.931297 -0.0795102 0)
(0.933202 -0.109019 0)
(0.934417 -0.137712 0)
(0.936319 -0.16577 0)
(0.942775 -0.193479 0)
(0.958428 -0.220229 0)
(0.986581 -0.243486 0)
(1.02841 -0.257442 0)
(1.08335 -0.252288 0)
(1.14812 -0.217878 0)
(1.21322 -0.15267 0)
(1.26437 -0.0683887 0)
(1.29045 0.0162972 0)
(1.29012 0.0868804 0)
(1.26935 0.137352 0)
(1.23697 0.168852 0)
(1.19961 0.185347 0)
(1.16232 0.191138 0)
(1.12696 0.189357 0)
(1.09489 0.182808 0)
(1.06522 0.172665 0)
(1.03924 0.159567 0)
(1.01577 0.143874 0)
(0.994254 0.127332 0)
(0.973224 0.109114 0)
(0.955819 0.0870673 0)
(0.943552 0.0605519 0)
(0.931561 0.0332524 0)
(0.916036 0.0105827 0)
(0.891487 -0.0125044 0)
(0.873441 -0.0394944 0)
(0.860092 -0.0884967 0)
(0.87292 -0.147698 0)
(0.888798 -0.226224 0)
(0.927451 -0.286865 0)
(0.959422 -0.325561 0)
(1.01166 -0.30884 0)
(1.06199 -0.230696 0)
(1.11729 -0.125402 0)
(1.15543 0.00124058 0)
(1.16845 0.0809835 0)
(1.16541 0.150567 0)
(1.14113 0.164169 0)
(1.11931 0.181643 0)
(1.08476 0.158134 0)
(1.06976 0.158827 0)
(1.03211 0.119753 0)
(1.01304 0.107023 0)
(0.998309 0.0945795 0)
(0.984767 0.0801651 0)
(0.972621 0.0637751 0)
(0.962056 0.0454138 0)
(0.953278 0.0250408 0)
(0.946691 0.00252429 0)
(0.943018 -0.0222655 0)
(0.94291 -0.0492468 0)
(0.9463 -0.0778039 0)
(0.952147 -0.106879 0)
(0.95932 -0.135344 0)
(0.967941 -0.162375 0)
(0.980092 -0.187437 0)
(0.999064 -0.209846 0)
(1.02788 -0.227691 0)
(1.06846 -0.236027 0)
(1.12085 -0.226296 0)
(1.18101 -0.190553 0)
(1.2383 -0.129327 0)
(1.27959 -0.0539271 0)
(1.29669 0.0200657 0)
(1.29042 0.0814777 0)
(1.26707 0.125963 0)
(1.23453 0.154576 0)
(1.1983 0.170389 0)
(1.16251 0.176786 0)
(1.12858 0.176176 0)
(1.09779 0.170869 0)
(1.06921 0.161977 0)
(1.04394 0.15015 0)
(1.02109 0.135476 0)
(1.00062 0.119479 0)
(0.980551 0.102048 0)
(0.963198 0.081495 0)
(0.950643 0.0563802 0)
(0.940319 0.0287195 0)
(0.928619 0.00428346 0)
(0.908182 -0.0198616 0)
(0.891209 -0.0449799 0)
(0.876163 -0.0892266 0)
(0.886042 -0.14299 0)
(0.900572 -0.216886 0)
(0.9399 -0.274735 0)
(0.974492 -0.310657 0)
(1.03153 -0.291881 0)
(1.08537 -0.213232 0)
(1.14253 -0.111008 0)
(1.17709 0.00879858 0)
(1.18674 0.0819871 0)
(1.1783 0.145857 0)
(1.15151 0.156833 0)
(1.12733 0.172941 0)
(1.09166 0.15049 0)
(1.07611 0.151215 0)
(1.03852 0.114113 0)
(1.0187 0.0988001 0)
(1.00497 0.087045 0)
(0.992399 0.0734096 0)
(0.981194 0.0578976 0)
(0.971578 0.0405108 0)
(0.963791 0.0212399 0)
(0.958145 5.3682e-05 0)
(0.955203 -0.023088 0)
(0.955665 -0.0481882 0)
(0.960002 -0.0749549 0)
(0.968063 -0.102645 0)
(0.979245 -0.13006 0)
(0.993254 -0.155825 0)
(1.01087 -0.178733 0)
(1.03387 -0.197773 0)
(1.06442 -0.211192 0)
(1.10437 -0.214701 0)
(1.15365 -0.201313 0)
(1.20748 -0.16552 0)
(1.25543 -0.109411 0)
(1.28672 -0.0431315 0)
(1.29605 0.0209437 0)
(1.28564 0.0743546 0)
(1.26134 0.113855 0)
(1.22982 0.140194 0)
(1.19547 0.155582 0)
(1.16166 0.162616 0)
(1.12946 0.163133 0)
(1.10013 0.159023 0)
(1.0728 0.151305 0)
(1.04841 0.140679 0)
(1.02623 0.127095 0)
(1.00672 0.111749 0)
(0.987775 0.094987 0)
(0.970893 0.0757016 0)
(0.958011 0.0522155 0)
(0.948578 0.0249298 0)
(0.940077 -0.00072758 0)
(0.924432 -0.0262714 0)
(0.910313 -0.0504676 0)
(0.895286 -0.090638 0)
(0.902601 -0.138925 0)
(0.915209 -0.20744 0)
(0.954328 -0.261712 0)
(0.991193 -0.294016 0)
(1.05284 -0.272925 0)
(1.10951 -0.194423 0)
(1.1672 -0.0964793 0)
(1.19714 0.0153758 0)
(1.20279 0.0815797 0)
(1.18927 0.139741 0)
(1.16017 0.1485 0)
(1.13422 0.163456 0)
(1.09787 0.142345 0)
(1.08189 0.143293 0)
(1.04465 0.108295 0)
(1.02419 0.0908656 0)
(1.01145 0.0797992 0)
(0.999836 0.0669484 0)
(0.989557 0.0523287 0)
(0.980847 0.0359456 0)
(0.973968 0.0178163 0)
(0.96922 -0.00203524 0)
(0.967047 -0.0235871 0)
(0.968048 -0.0467812 0)
(0.97287 -0.0714559 0)
(0.981907 -0.0971095 0)
(0.995168 -0.122682 0)
(1.01248 -0.146651 0)
(1.03394 -0.167455 0)
(1.0602 -0.183742 0)
(1.0924 -0.19367 0)
(1.13171 -0.193483 0)
(1.1773 -0.177845 0)
(1.22401 -0.143443 0)
(1.26271 -0.0932195 0)
(1.28539 -0.0356813 0)
(1.28912 0.0195941 0)
(1.27661 0.0662214 0)
(1.25289 0.101608 0)
(1.22334 0.126111 0)
(1.19144 0.141194 0)
(1.15994 0.148806 0)
(1.12969 0.150345 0)
(1.10195 0.147349 0)
(1.07598 0.140728 0)
(1.05264 0.131213 0)
(1.03121 0.118738 0)
(1.01257 0.104159 0)
(0.994783 0.0880433 0)
(0.978747 0.0697842 0)
(0.96576 0.0479487 0)
(0.956657 0.0216484 0)
(0.950429 -0.00445004 0)
(0.939549 -0.0312743 0)
(0.929649 -0.0552859 0)
(0.916622 -0.0922885 0)
(0.922439 -0.135502 0)
(0.933056 -0.198122 0)
(0.971313 -0.24796 0)
(1.01015 -0.275661 0)
(1.07585 -0.252057 0)
(1.13413 -0.174608 0)
(1.19054 -0.0822659 0)
(1.2148 0.0206112 0)
(1.216 0.0796258 0)
(1.19793 0.132237 0)
(1.16693 0.139257 0)
(1.13985 0.153323 0)
(1.10332 0.133775 0)
(1.08708 0.135113 0)
(1.05045 0.102337 0)
(1.02949 0.0832434 0)
(1.01772 0.0728635 0)
(1.00705 0.0608011 0)
(0.997671 0.0470804 0)
(0.989829 0.031722 0)
(0.983789 0.014758 0)
(0.979854 -0.00375909 0)
(0.978408 -0.0237425 0)
(0.979938 -0.0450753 0)
(0.985062 -0.0675932 0)
(0.99438 -0.0909052 0)
(1.0083 -0.114121 0)
(1.02692 -0.135812 0)
(1.05015 -0.154354 0)
(1.07797 -0.168189 0)
(1.11072 -0.175378 0)
(1.14862 -0.172683 0)
(1.18999 -0.156267 0)
(1.22974 -0.12445 0)
(1.26055 -0.0803671 0)
(1.27689 -0.0308175 0)
(1.27735 0.0168795 0)
(1.26457 0.0578103 0)
(1.24258 0.0897395 0)
(1.21565 0.112659 0)
(1.18651 0.127435 0)
(1.15752 0.135499 0)
(1.12937 0.13791 0)
(1.10331 0.135921 0)
(1.07876 0.130316 0)
(1.05658 0.121819 0)
(1.03602 0.110428 0)
(1.01821 0.0967092 0)
(1.00152 0.0812925 0)
(0.98657 0.0638778 0)
(0.97385 0.0435658 0)
(0.964861 0.0186282 0)
(0.959951 -0.00708132 0)
(0.953137 -0.0346341 0)
(0.948025 -0.0588014 0)
(0.93876 -0.0935456 0)
(0.9447 -0.132458 0)
(0.954063 -0.188994 0)
(0.991383 -0.233575 0)
(1.032 -0.255701 0)
(1.1006 -0.229584 0)
(1.15859 -0.154382 0)
(1.21148 -0.0689629 0)
(1.22919 0.0241568 0)
(1.22578 0.0760634 0)
(1.20396 0.123454 0)
(1.1717 0.12925 0)
(1.14413 0.142705 0)
(1.10799 0.124882 0)
(1.0917 0.126738 0)
(1.0559 0.0962793 0)
(1.03459 0.075954 0)
(1.02377 0.066256 0)
(1.014 0.0549818 0)
(1.0055 0.0421637 0)
(0.998481 0.0278397 0)
(0.993219 0.0120544 0)
(0.990009 -0.00511981 0)
(0.989203 -0.0235567 0)
(0.991208 -0.0430879 0)
(0.996551 -0.0635025 0)
(1.00582 -0.0844274 0)
(1.01958 -0.105099 0)
(1.0381 -0.124266 0)
(1.06129 -0.140418 0)
(1.08891 -0.151963 0)
(1.12073 -0.156991 0)
(1.15617 -0.15281 0)
(1.19297 -0.136783 0)
(1.22655 -0.108251 0)
(1.25129 -0.0700856 0)
(1.26352 -0.0275935 0)
(1.26262 0.0136421 0)
(1.25083 0.0497246 0)
(1.23123 0.0786307 0)
(1.20722 0.100067 0)
(1.18098 0.114449 0)
(1.15455 0.1228 0)
(1.12856 0.125912 0)
(1.10424 0.124799 0)
(1.08116 0.120126 0)
(1.06022 0.112561 0)
(1.04064 0.102201 0)
(1.02367 0.0893964 0)
(1.00798 0.0747684 0)
(0.994203 0.0581141 0)
(0.982118 0.0391368 0)
(0.973349 0.0157096 0)
(0.969061 -0.00891816 0)
(0.965229 -0.0364013 0)
(0.964529 -0.0606065 0)
(0.960006 -0.0937343 0)
(0.967764 -0.129249 0)
(0.977408 -0.179813 0)
(1.01447 -0.218501 0)
(1.05674 -0.234371 0)
(1.12633 -0.206127 0)
(1.1815 -0.134586 0)
(1.22866 -0.057252 0)
(1.23939 0.0257473 0)
(1.23169 0.0709504 0)
(1.20719 0.113605 0)
(1.17449 0.118682 0)
(1.14708 0.131793 0)
(1.11186 0.115789 0)
(1.09574 0.118238 0)
(1.061 0.0901617 0)
(1.03947 0.0690143 0)
(1.02956 0.0599912 0)
(1.02067 0.0495015 0)
(1.013 0.0375861 0)
(1.00676 0.024294 0)
(1.00222 0.009685 0)
(0.999653 -0.00614774 0)
(0.999386 -0.0230585 0)
(1.00178 -0.0408456 0)
(1.00726 -0.0592512 0)
(1.01633 -0.0778845 0)
(1.02953 -0.0960607 0)
(1.04715 -0.112705 0)
(1.06918 -0.126487 0)
(1.09528 -0.135915 0)
(1.12494 -0.139242 0)
(1.15708 -0.134325 0)
(1.18927 -0.1194 0)
(1.21763 -0.0943437 0)
(1.23796 -0.0615873 0)
(1.24775 -0.0252048 0)
(1.24667 0.0104898 0)
(1.23649 0.0423435 0)
(1.21953 0.0684964 0)
(1.19846 0.0884567 0)
(1.17507 0.102318 0)
(1.15117 0.110779 0)
(1.12734 0.114416 0)
(1.10479 0.11404 0)
(1.08321 0.110208 0)
(1.06355 0.1035 0)
(1.04505 0.0941069 0)
(1.02896 0.082229 0)
(1.0142 0.0684763 0)
(1.00155 0.0525835 0)
(0.990356 0.0347871 0)
(0.982081 0.0128523 0)
(0.978116 -0.0102566 0)
(0.976196 -0.0368689 0)
(0.978818 -0.0606537 0)
(0.978938 -0.0923658 0)
(0.989634 -0.125184 0)
(1.00135 -0.170027 0)
(1.03927 -0.202518 0)
(1.08288 -0.212072 0)
(1.15098 -0.182591 0)
(1.20076 -0.116183 0)
(1.24055 -0.0476788 0)
(1.24464 0.0253287 0)
(1.23353 0.0645086 0)
(1.20762 0.10301 0)
(1.17542 0.107805 0)
(1.14876 0.120785 0)
(1.11493 0.106629 0)
(1.09925 0.109691 0)
(1.06573 0.0840239 0)
(1.04411 0.0624382 0)
(1.03509 0.0540796 0)
(1.02704 0.0443677 0)
(1.02015 0.0333491 0)
(1.01465 0.0210789 0)
(1.01076 0.00763644 0)
(1.00875 -0.00687151 0)
(1.00893 -0.0222875 0)
(1.0116 -0.0383905 0)
(1.01713 -0.0548924 0)
(1.02591 -0.0713851 0)
(1.03836 -0.087238 0)
(1.05475 -0.101526 0)
(1.07506 -0.113101 0)
(1.09893 -0.120642 0)
(1.12573 -0.122655 0)
(1.15419 -0.117489 0)
(1.18201 -0.103982 0)
(1.20604 -0.0822544 0)
(1.22313 -0.0542743 0)
(1.23145 -0.0231443 0)
(1.23076 0.0077514 0)
(1.22235 0.0358375 0)
(1.20793 0.0594139 0)
(1.18966 0.0778703 0)
(1.16897 0.0910765 0)
(1.1475 0.0994767 0)
(1.12578 0.10347 0)
(1.105 0.103691 0)
(1.08494 0.100606 0)
(1.06657 0.0946852 0)
(1.0492 0.0861969 0)
(1.03406 0.0752305 0)
(1.02021 0.0624102 0)
(1.0086 0.047332 0)
(0.99839 0.0306351 0)
(0.990878 0.0101255 0)
(0.987261 -0.0112878 0)
(0.986486 -0.0364298 0)
(0.991131 -0.059235 0)
(0.994904 -0.0893182 0)
(1.00868 -0.119695 0)
(1.02366 -0.15901 0)
(1.06319 -0.185409 0)
(1.10734 -0.189373 0)
(1.17141 -0.159985 0)
(1.21401 -0.0999723 0)
(1.246 -0.040461 0)
(1.24467 0.023137 0)
(1.23148 0.0571307 0)
(1.20551 0.0920641 0)
(1.17471 0.0969 0)
(1.14932 0.109874 0)
(1.11726 0.0975342 0)
(1.10223 0.101175 0)
(1.07011 0.077905 0)
(1.04851 0.0562347 0)
(1.04033 0.0485281 0)
(1.03307 0.0395827 0)
(1.02693 0.0294487 0)
(1.0221 0.0181888 0)
(1.0188 0.00589286 0)
(1.01729 -0.00732155 0)
(1.01782 -0.0212873 0)
(1.02067 -0.0357747 0)
(1.02614 -0.0504828 0)
(1.03454 -0.0650002 0)
(1.04618 -0.0787455 0)
(1.06122 -0.0909139 0)
(1.07963 -0.100529 0)
(1.10104 -0.106459 0)
(1.12477 -0.107487 0)
(1.14957 -0.102364 0)
(1.17343 -0.0903426 0)
(1.19386 -0.0716304 0)
(1.20844 -0.0477793 0)
(1.21579 -0.0211741 0)
(1.21562 0.00553395 0)
(1.20886 0.0302248 0)
(1.19674 0.051365 0)
(1.18101 0.0682905 0)
(1.16282 0.0807238 0)
(1.14364 0.0889112 0)
(1.12396 0.0931082 0)
(1.10491 0.093795 0)
(1.08636 0.0913581 0)
(1.06929 0.0861593 0)
(1.05308 0.078518 0)
(1.03893 0.0684358 0)
(1.02599 0.0565693 0)
(1.01533 0.0423724 0)
(1.00612 0.026758 0)
(0.999517 0.00762288 0)
(0.996417 -0.0120836 0)
(0.996384 -0.035426 0)
(1.00201 -0.0568091 0)
(1.00811 -0.0848363 0)
(1.02427 -0.112605 0)
(1.04252 -0.146464 0)
(1.08334 -0.167253 0)
(1.12664 -0.166983 0)
(1.18474 -0.139144 0)
(1.21972 -0.0863161 0)
(1.24475 -0.0354355 0)
(1.23987 0.0196613 0)
(1.22614 0.0493207 0)
(1.20131 0.0811847 0)
(1.17267 0.0862391 0)
(1.14894 0.0992343 0)
(1.11892 0.0886259 0)
(1.10473 0.092768 0)
(1.07412 0.0718433 0)
(1.05266 0.0504086 0)
(1.04527 0.0433392 0)
(1.03876 0.035145 0)
(1.0333 0.0258779 0)
(1.02909 0.0156087 0)
(1.02632 0.00443058 0)
(1.02523 -0.00753042 0)
(1.02603 -0.0201016 0)
(1.02898 -0.0330517 0)
(1.03431 -0.046081 0)
(1.04225 -0.0587889 0)
(1.05303 -0.0706453 0)
(1.06672 -0.0809485 0)
(1.08324 -0.0888745 0)
(1.10223 -0.0934758 0)
(1.12299 -0.0937871 0)
(1.14441 -0.0888831 0)
(1.1648 -0.0782882 0)
(1.1822 -0.0622262 0)
(1.19474 -0.0419276 0)
(1.20131 -0.019212 0)
(1.20159 0.00382346 0)
(1.19624 0.0254405 0)
(1.18612 0.0442795 0)
(1.17264 0.0596677 0)
(1.15672 0.0712375 0)
(1.13966 0.0790855 0)
(1.12192 0.0833525 0)
(1.10456 0.0843838 0)
(1.0875 0.0824994 0)
(1.07172 0.0779582 0)
(1.05669 0.07111 0)
(1.04355 0.0618823 0)
(1.03154 0.0509647 0)
(1.02177 0.0377054 0)
(1.01351 0.0231902 0)
(1.00783 0.00542108 0)
(1.00538 -0.0126374 0)
(1.00593 -0.03407 0)
(1.01193 -0.0537921 0)
(1.01926 -0.0793578 0)
(1.03673 -0.104169 0)
(1.0572 -0.132659 0)
(1.09791 -0.148592 0)
(1.1387 -0.145649 0)
(1.18987 -0.120533 0)
(1.21803 -0.0750843 0)
(1.23777 -0.0320732 0)
(1.23132 0.0155463 0)
(1.21839 0.0415976 0)
(1.19559 0.0707452 0)
(1.16962 0.0760552 0)
(1.14781 0.0890049 0)
(1.11997 0.0800034 0)
(1.10678 0.0845412 0)
(1.07779 0.0658753 0)
(1.05654 0.0449601 0)
(1.0499 0.0385112 0)
(1.04408 0.0310491 0)
(1.03926 0.0226274 0)
(1.03561 0.0133196 0)
(1.03331 0.0032235 0)
(1.03256 -0.00753125 0)
(1.03357 -0.0187723 0)
(1.03653 -0.0302725 0)
(1.04165 -0.041742 0)
(1.04909 -0.0528031 0)
(1.05899 -0.0629779 0)
(1.07137 -0.0716591 0)
(1.08609 -0.0781543 0)
(1.1028 -0.0816853 0)
(1.12086 -0.0814987 0)
(1.13926 -0.0769153 0)
(1.15666 -0.067637 0)
(1.17148 -0.0538861 0)
(1.18229 -0.0366274 0)
(1.18816 -0.0172548 0)
(1.18879 0.00255304 0)
(1.18458 0.0213889 0)
(1.17616 0.038067 0)
(1.16464 0.0519361 0)
(1.15076 0.0625817 0)
(1.13566 0.0699901 0)
(1.11974 0.0742134 0)
(1.104 0.0754824 0)
(1.0884 0.074059 0)
(1.07388 0.0701128 0)
(1.06002 0.0640047 0)
(1.04788 0.055603 0)
(1.03682 0.0456162 0)
(1.02791 0.0333337 0)
(1.02054 0.0199375 0)
(1.01572 0.00356029 0)
(1.01395 -0.0129243 0)
(1.01501 -0.0324566 0)
(1.02117 -0.0504426 0)
(1.02905 -0.073307 0)
(1.04683 -0.0949096 0)
(1.06803 -0.118302 0)
(1.10681 -0.130252 0)
(1.14372 -0.125985 0)
(1.18791 -0.10421 0)
(1.21065 -0.0657889 0)
(1.22687 -0.0296898 0)
(1.22042 0.0114086 0)
(1.2092 0.0343845 0)
(1.18895 0.061022 0)
(1.16588 0.0665169 0)
(1.14614 0.0792879 0)
(1.12053 0.0717428 0)
(1.1084 0.0765549 0)
(1.0811 0.060035 0)
(1.06015 0.0398852 0)
(1.0542 0.0340379 0)
(1.04903 0.0272857 0)
(1.04479 0.0196828 0)
(1.04164 0.0113043 0)
(1.03975 0.0022484 0)
(1.03929 -0.00735556 0)
(1.04043 -0.0173385 0)
(1.04335 -0.0274824 0)
(1.0482 -0.037514 0)
(1.0551 -0.0470851 0)
(1.06412 -0.0557716 0)
(1.07524 -0.0630515 0)
(1.0883 -0.0683485 0)
(1.10293 -0.0710307 0)
(1.11857 -0.0705163 0)
(1.13436 -0.066309 0)
(1.14918 -0.0582299 0)
(1.16182 -0.0464838 0)
(1.17112 -0.0318322 0)
(1.17636 -0.0153524 0)
(1.17719 0.00162757 0)
(1.1739 0.0179624 0)
(1.1669 0.0326299 0)
(1.15707 0.0450227 0)
(1.145 0.0547116 0)
(1.13169 0.061606 0)
(1.11746 0.0656921 0)
(1.10326 0.0671063 0)
(1.08906 0.0660601 0)
(1.07579 0.0626481 0)
(1.06307 0.057228 0)
(1.05193 0.0496249 0)
(1.0418 0.0405434 0)
(1.03372 0.0292613 0)
(1.02719 0.0169958 0)
(1.02313 0.00202807 0)
(1.022 -0.0129404 0)
(1.02351 -0.0306178 0)
(1.02976 -0.0468733 0)
(1.03786 -0.0669864 0)
(1.05526 -0.0853679 0)
(1.07584 -0.104178 0)
(1.11126 -0.11299 0)
(1.14356 -0.108315 0)
(1.18131 -0.0899537 0)
(1.20005 -0.057858 0)
(1.21407 -0.0276921 0)
(1.20855 0.00769208 0)
(1.19944 0.0279465 0)
(1.18188 0.0521751 0)
(1.16172 0.057724 0)
(1.14406 0.0701484 0)
(1.12067 0.0638972 0)
(1.10963 0.068858 0)
(1.08407 0.0543531 0)
(1.06348 0.0351755 0)
(1.05818 0.0299093 0)
(1.0536 0.0238418 0)
(1.04988 0.0170279 0)
(1.04717 0.00954088 0)
(1.04563 0.00147765 0)
(1.0454 -0.00703564 0)
(1.04663 -0.015837 0)
(1.04946 -0.0247214 0)
(1.05401 -0.0334362 0)
(1.06034 -0.0416671 0)
(1.06851 -0.0490428 0)
(1.07844 -0.0551183 0)
(1.08996 -0.059419 0)
(1.10274 -0.0614354 0)
(1.11625 -0.0607227 0)
(1.12977 -0.0569179 0)