/*--------------------------------*- C++ -*----------------------------------*\
  =========                 |
  \\      /  F ield         | OpenFOAM: The Open Source CFD Toolbox
   \\    /   O peration     | Website:  https://openfoam.org
    \\  /    A nd           | Version:  7
     \\/     M anipulation  |
\*---------------------------------------------------------------------------*/
FoamFile
{
    version     2.0;
    format      ascii;
    class       volScalarField;
    location    "1.5";
    object      p;
}
// * * * * * * * * * * * * * * * * * * * * * * * * * * * * * * * * * * * * * //

dimensions      [1 -1 -2 0 0 0 0];

internalField   nonuniform List<scalar> 
4032
(
1
1
1
1
1
1
1
1
1
1
1
1
3.02564
9.64946
10.7254
10.8727
11.0988
11.2874
11.4667
11.6307
11.7751
11.8828
11.9732
12.0359
1
1
1
1
1
1
1
1
1
1
1
1
2.91535
9.5245
10.7149
10.8713
11.0882
11.2705
11.4436
11.6008
11.7381
11.8373
11.9159
11.9727
1
1
1
1
1
1
1
1
1
1
1
1
2.62973
9.28243
10.6831
10.8409
11.0527
11.2288
11.3944
11.5443
11.6757
11.7728
11.8424
11.8991
1
1
1
1
1
1
1
1
1
1
1
1
2.25819
8.91465
10.6573
10.8045
11.0018
11.1641
11.3174
11.4593
11.5874
11.6805
11.7355
11.7764
1
1
1
1
1
1
1
1
1
1
1
1
1.8175
8.3594
10.6292
10.7384
10.916
11.0647
11.2027
11.3255
11.4316
11.5126
11.5571
11.615
1
1
1
1
1
1
1
1
1
1
1
1
1.35046
7.62908
10.5956
10.6514
10.8045
10.9311
11.0436
11.1445
11.2293
11.3018
11.3226
11.2935
1
1
1
1
1
1
1
1
1
1
1
1
1.02302
6.60986
10.4093
10.4752
10.605
10.7122
10.7965
10.8604
10.8807
10.8612
10.82
10.7948
1
1
1
1
1
1
1
1
1
1
1
1
1.00014
5.2996
10.0867
10.316
10.4257
10.5127
10.5605
10.5664
10.5237
10.4625
10.3651
10.3631
1
1
1
1
1
1
1
1
1
1
1
1
1
3.88583
9.55908
10.1852
10.2702
10.3238
10.3251
10.2743
10.1383
9.87594
9.10998
7.22362
1
1
1
1
1
1
1
1
1
1
1
1
1
2.41524
8.72426
10.0625
10.0924
10.1219
10.0782
9.95862
9.71243
9.22745
8.40639
6.3386
1
1
1
1
1
1
1
1
1
1
1
1
1
1.21957
7.44015
10.0896
9.91372
9.85354
9.76448
9.59042
9.28321
8.7034
7.85397
5.90471
1
1
1
1
1
1
1
1
1
1
1
1
1
1.00487
5.58661
9.4428
9.5509
9.53371
9.43411
9.22544
8.87691
8.32346
7.38961
5.80197
1
1
1
1
1
1
1
1
1
1
1
1
1
0.999972
3.21488
8.64529
9.39887
9.37904
9.24886
8.99878
8.58963
8.02626
7.07308
5.87278
1
1
1
1
1
1
1
1
1
1
1
1
1
0.999994
1.35746
7.39291
9.40864
9.22339
9.03607
8.74135
8.33389
7.74344
6.89958
5.94851
1
1
1
1
1
1
1
1
1
1
1
1
1
0.999999
1.01239
5.24069
8.91179
8.92481
8.76128
8.4692
8.09464
7.52938
6.81802
6.03675
1
1
1
1
1
1
1
1
1
1
1
1
1
1
0.99993
2.52489
8.11495
8.838
8.59726
8.28173
7.89146
7.3757
6.75893
6.082
1
1
1
1
1
1
1
1
1
1
1
1
1
1
0.999984
1.16657
6.23524
8.64584
8.35378
8.08177
7.70784
7.24465
6.70888
6.1135
1
1
1
1
1
1
1
1
1
1
1
1
1
1
0.999998
1.00204
3.27249
7.85682
8.2713
7.97829
7.61463
7.16475
6.66997
6.13643
1
1
1
1
1
1
1
1
1
1
1
1
1
1
1
0.999999
1.33052
6.23283
8.22595
7.8728
7.53204
7.10364
6.64562
6.15823
1
1
1
1
1
1
1
1
1
1
1
1
1
1
1
1
1.0084
3.24038
7.45318
7.77246
7.44006
7.05374
6.64042
6.1934
1
1
1
1
1
1
1
1
1
1
1
1
1
1
1
1
1.00002
1.32392
5.7032
7.79183
7.40511
7.02926
6.62715
6.21018
1
1
1
1
1
1
1
1
1
1
1
1
1
1
1
1
1
1.00818
2.61158
6.76461
7.35885
6.98982
6.62318
6.24409
1
1
1
1
1
1
1
1
1
1
1
1
1
1
1
1
1
1.00003
1.177
4.60417
7.26444
7.00607
6.66582
6.30713
1
1
1
1
1
1
1
1
1
1
1
1
1
1
1
1
1
1
1.00298
1.89939
5.9114
7.04676
6.67815
6.33982
1
1
1
1
1
1
1
1
1
1
1
1
1
1
1
1
1
1
1.00001
1.05812
3.13692
6.34196
6.70486
6.37511
1
1
1
1
1
1
1
1
1
1
1
1
1
1
1
1
1
1
1
1.00067
1.30838
4.36913
6.53768
6.43795
1
1
1
1
1
1
1
1
1
1
1
1
1
1
1
1
1
1
1
1
1.00881
1.85057
5.17253
6.40732
1
1
1
1
1
1
1
1
1
1
1
1
1
1
1
1
1
1
1
1
1.00005
1.05444
2.53714
5.57603
1
1
1
1
1
1
1
1
1
1
1
1
1
1
1
1
1
1
1
1
1
1.0007
1.16873
3.22959
1
1
1
1
1
1
1
1
1
1
1
1
1
1
1
1
1
1
1
1
1
1
1.00373
1.36374
1
1
1
1
1
1
1
1
1
1
1
1
1
1
1
1
1
1
1
1
1
1
1.00002
1.01301
1
1
1
1
1
1
1
1
1
1
1
1
1
1
1
1
1
1
1
1
1
1
1
1.0001
1
1
1
1
1
1
1
1
1
1
1
1
1
1
1
1
1
1
1
1
1
1
1
1
1
1
1
1
1
1
1
1
1
1
1
1
1
1
1
1
1
1
1
1
1
1
1
1
1
1
1
1
1
1
1
1
1
1
1
1
1
1
1
1
1
1
1
1
1
1
1
1
1
1
1
1
1
1
1
1
1
1
1
1
1
1
1
1
1
1
1
1
1
1
1
1
1
1
1
1
1
1
1
1
1
1
1
1
1
1
1
1
1
1
1
1
1
1
1
1
1
1
1
1
1
1
1
1
1
1
1
1
1
1
1
1
1
1
1
1
1
1
1
1
1
1
1
1
1
1
1
1
1
1
1
1
1
1
1
1
1
1
1
1
1
1
1
1
1
1
1
1
1
1
1
1
1
1
1
1
1
1
1
1
1
1
1
1
1
1
1
1
1.57089
0.346121
0.21618
0.17869
0.185553
0.22179
0.335977
0.466441
0.613105
0.754791
0.902921
1.03268
1.09485
1.14226
1.16098
1.16481
1.16903
1.17434
1.17393
1.18509
1.2114
1.23557
1.24678
1.24505
1.23233
1.21756
1.21483
1.22017
1.22683
1.23033
1.23137
1.22959
1.22251
1.21176
1.20192
1.19463
1.19381
1.19663
1.19868
1.19902
1.19418
1.18671
1.17743
1.16591
1.16
1.15612
1.15085
1.145
1.14011
1.13795
1.16608
1.29779
1.65382
2.21224
2.95163
3.62388
4.1861
4.58279
4.85408
4.91951
4.84246
4.65949
4.44771
4.27346
4.13967
4.02367
3.92196
3.83093
3.74938
3.67398
3.60638
3.54118
3.45552
3.34667
3.27704
3.23713
3.21044
3.19429
3.15779
3.11032
3.05072
2.95449
2.83163
2.7563
2.71665
2.68436
2.66552
2.66257
2.64827
2.61315
2.56869
2.49895
2.37914
2.2589
2.21926
2.19574
2.80919
1.3501
0.860605
0.699455
0.543455
0.504455
0.51559
0.504424
0.514831
0.55398
0.615312
0.706793
0.827201
0.929594
1.00239
1.03779
1.05886
1.07681
1.10632
1.13901
1.16542
1.19534
1.22393
1.23255
1.22505
1.21627
1.21654
1.22074
1.22729
1.22867
1.22943
1.22623
1.21826
1.20728
1.20001
1.19393
1.18795
1.18976
1.19078
1.19104
1.1907
1.18626
1.18023
1.172
1.16458
1.15657
1.14779
1.14169
1.157
1.22891
1.44759
1.80845
2.12523
2.34506
2.50567
2.80542
3.10408
3.39682
3.63196
3.84965
4.06066
4.12965
4.14973
4.12788
4.08942
4.01473
3.94361
3.88176
3.81193
3.73442
3.65897
3.58788
3.4986
3.38631
3.29408
3.24483
3.20817
3.17354
3.13465
3.09325
3.04291
2.9622
2.84591
2.74827
2.69889
2.66864
2.64677
2.6327
2.62015
2.59768
2.56211
2.51024
2.43775
2.33888
2.25187
2.20685
3.64682
2.4276
1.65902
1.26747
0.965025
0.783276
0.710513
0.666364
0.5903
0.59346
0.615961
0.663984
0.740513
0.805246
0.865664
0.916638
0.957114
1.00159
1.06701
1.12196
1.15295
1.185
1.22634
1.24615
1.24066
1.23516
1.23595
1.23515
1.22856
1.22207
1.22013
1.21563
1.20713
1.2003
1.19752
1.19509
1.19365
1.19297
1.19324
1.19216
1.18982
1.18474
1.17701
1.16738
1.15787
1.14894
1.15513
1.19578
1.35936
1.69345
2.06909
2.33343
2.48647
2.48672
2.41935
2.36205
2.37603
2.48165
2.70907
3.02952
3.3745
3.64624
3.80765
3.89535
3.97093
3.95062
3.94727
3.93998
3.89761
3.83038
3.74733
3.63429
3.50459
3.37708
3.27598
3.20297
3.15064
3.10599
3.07055
3.03693
2.99466
2.94308
2.88333
2.80107
2.71349
2.66351
2.63441
2.61277
2.58767
2.55932
2.52645
2.48868
2.4508
2.40427
2.34222
2.247
4.23554
3.14758
2.39836
1.88957
1.51683
1.219
1.04704
0.949036
0.836138
0.793945
0.761455
0.716342
0.697419
0.705757
0.73051
0.768996
0.820327
0.878717
0.957005
1.02461
1.05547
1.07731
1.12104
1.17796
1.1948
1.21852
1.24782
1.25562
1.25384
1.24687
1.23186
1.21268
1.19604
1.18722
1.18481
1.1858
1.18622
1.18757
1.19147
1.19137
1.18757
1.18182
1.17438
1.16524
1.16183
1.1794
1.27644
1.55063
1.9548
2.29758
2.53296
2.54772
2.52035
2.46362
2.40194
2.35851
2.32983
2.28651
2.26741
2.31221
2.44113
2.67777
2.96633
3.25634
3.51224
3.6402
3.68529
3.71335
3.70007
3.70518
3.69255
3.64065
3.56391
3.46666
3.36942
3.27324
3.18186
3.1169
3.0788
3.04681
3.00102
2.94925
2.90304
2.84607
2.75541
2.64802
2.59728
2.57235
2.54179
2.50872
2.48347
2.46277
2.43966
2.41205
2.38017
2.29556
4.72399
3.739
3.00595
2.44908
1.99163
1.67347
1.45652
1.27875
1.11851
1.00512
0.918573
0.848335
0.763464
0.734663
0.738065
0.752623
0.762942
0.782823
0.827039
0.882955
0.924664
0.951425
1.0006
1.08412
1.12182
1.15226
1.19771
1.22527
1.22929
1.2315
1.22723
1.21851
1.20903
1.1993
1.19257
1.1884
1.18451
1.18327
1.18322
1.18179
1.17536
1.17009
1.17023
1.18037
1.23437
1.40787
1.79359
2.24258
2.54156
2.56767
2.56712
2.54161
2.52661
2.49108
2.44757
2.39022
2.3272
2.26388
2.21107
2.17899
2.16334
2.16531
2.21579
2.3386
2.55088
2.8187
3.03406
3.23176
3.34257
3.44009
3.51168
3.49913
3.45598
3.41282
3.36493
3.29612
3.20918
3.14152
3.10288
3.06887
3.02616
2.97071
2.91386
2.85461
2.77744
2.67476
2.56679
2.50093
2.46
2.4324
2.41893
2.42196
2.41253
2.39711
2.38391
2.33521
5.01451
4.17004
3.47062
2.91096
2.44585
2.08204
1.8115
1.58908
1.40911
1.2808
1.15218
1.06197
0.98063
0.889165
0.847652
0.828042
0.802185
0.794024
0.785757
0.777923
0.780971
0.794666
0.827882
0.900716
0.987277
1.04732
1.11979
1.18526
1.1962
1.20031
1.20225
1.20092
1.1965
1.19779
1.198
1.19836
1.19629
1.19253
1.18627
1.1793
1.16742
1.16622
1.18831
1.30616
1.63302
2.07014
2.51495
2.63894
2.65521
2.62464
2.61024
2.58212
2.53569
2.47961
2.42222
2.36553
2.30759
2.24989
2.20596
2.16987
2.13035
2.10302
2.0749
2.05001
2.03755
2.08525
2.17594
2.32336
2.54353
2.7537
2.95682
3.1447
3.23743
3.27892
3.25169
3.21963
3.14636
3.08665
3.06122
3.04239
3.04349
3.0125
2.96458
2.90656
2.83106
2.73663
2.62121
2.50725
2.43478
2.40717
2.39064
2.3791
2.37442
2.37092
2.36051
2.32047
5.22713
4.49155
3.86204
3.29565
2.81988
2.46144
2.15392
1.90149
1.6863
1.53304
1.38685
1.25327
1.17829
1.09347
0.991095
0.942623
0.895498
0.830199
0.803059
0.785413
0.777713
0.77897
0.7853
0.80306
0.840252
0.888421
0.949627
1.03585
1.10751
1.13855
1.16555
1.18426
1.18314
1.18029
1.18555
1.18961
1.1887
1.18484
1.1826
1.17723
1.17708
1.21364
1.42247
1.89671
2.34902
2.6074
2.73827
2.73662
2.72051
2.6508
2.57732
2.52635
2.47791
2.437
2.39322
2.35281
2.31361
2.26362
2.20426
2.14221
2.09236
2.05976
2.03216
2.00637
1.98115
1.94976
1.90612
1.86907
1.89036
1.9655
2.10535
2.3188
2.55985
2.78058
2.89041
2.96577
3.00778
3.00365
2.96568
2.92966
2.92071
2.92896
2.92458
2.8906
2.84243
2.77919
2.69589
2.5991
2.50108
2.42683
2.38636
2.36104
2.34874
2.34282
2.32765
2.28471
5.37199
4.738
4.15412
3.59387
3.15895
2.79151
2.46572
2.17471
1.97394
1.7827
1.61925
1.45688
1.36089
1.27774
1.16309
1.09302
1.05245
0.970432
0.909232
0.882604
0.845398
0.811331
0.810519
0.809467
0.799993
0.803496
0.816697
0.848654
0.909762
0.982861
1.05049
1.11492
1.15763
1.16205
1.17151
1.17735
1.17731
1.17239
1.17159
1.19011
1.29517
1.59826
2.16044
2.54942
2.71016
2.80711
2.79448
2.73509
2.65028
2.55465
2.50545
2.48165
2.44536
2.41313
2.38916
2.3595
2.31494
2.25065
2.17879
2.10916
2.05665
2.0275
2.00789
1.98947
1.95799
1.91834
1.86854
1.81573
1.78446
1.76934
1.76155
1.78448
1.85301
1.96494
2.12104
2.27852
2.43433
2.56288
2.65361
2.71314
2.75314
2.80035
2.80799
2.79082
2.77589
2.7476
2.71843
2.66815
2.58305
2.48611
2.41258
2.37525
2.35358
2.33785
2.32384
2.27503
5.49173
4.92768
4.38316
3.86325
3.4524
3.08379
2.73125
2.44352
2.23298
2.02514
1.83247
1.66715
1.56058
1.45467
1.33395
1.23649
1.18674
1.11022
1.02593
0.984744
0.94167
0.879339
0.858221
0.843499
0.822404
0.807455
0.808832
0.809536
0.813124
0.830989
0.877487
0.952135
1.0327
1.0954
1.12973
1.15173
1.16425
1.15885
1.1941
1.44399
1.91506
2.36698
2.7816
2.84096
2.8231
2.79192
2.74349
2.65451
2.5699
2.49573
2.46094
2.45202
2.43347
2.39212
2.35893
2.32502
2.27887
2.21597
2.1471
2.08423
2.03525
2.011
1.99102
1.96089
1.92408
1.88457
1.83966
1.79442
1.75513
1.72707
1.71169
1.70005
1.68208
1.66526
1.66281
1.68305
1.73919
1.83632
1.95881
2.10963
2.24444
2.36427
2.4559
2.52373
2.59834
2.63478
2.63123
2.60034
2.54894
2.49821
2.44752
2.40075
2.35593
2.32507
2.31426
2.27728
5.58398
5.07041
4.56218
4.09009
3.69452
3.33191
2.96786
2.69387
2.46058
2.24568
2.03588
1.87566
1.74636
1.62369
1.49599
1.39719
1.33132
1.25335
1.15775
1.10763
1.06413
0.994658
0.954583
0.934481
0.905128
0.857241
0.844039
0.829994
0.809281
0.803537
0.80853
0.831647
0.876159
0.940332
1.00001
1.05444
1.10886
1.17151
1.48655
2.17273
2.56476
2.81058
2.94005
2.93028
2.87285
2.79345
2.69446
2.61497
2.55398
2.49871
2.4472
2.41302
2.38562
2.35182
2.31178
2.27439
2.23687
2.18837
2.13179
2.07506
2.02423
1.98731
1.95771
1.92369
1.8851
1.85678
1.83511
1.80586
1.75838
1.70989
1.67611
1.65157
1.6299
1.61315
1.59336
1.57639
1.56108
1.54512
1.52687
1.54835
1.60317
1.69379
1.82971
1.97055
2.09782
2.2196
2.3429
2.39415
2.40594
2.40064
2.38236
2.34585
2.30721
2.28126
2.27297
2.2622
5.66192
5.19273
4.71957
4.28376
3.91335
3.54944
3.18798
2.92249
2.68288
2.4531
2.22651
2.07788
1.92958
1.79162
1.65751
1.55557
1.47342
1.38475
1.28992
1.23301
1.18594
1.11274
1.05316
1.0195
0.980728
0.923677
0.891413
0.867534
0.835548
0.8101
0.810014
0.820686
0.827158
0.835206
0.863072
0.902177
0.997178
1.3615
2.08975
2.51143
2.71464
2.82997
2.86761
2.83016
2.75373
2.68446
2.6507
2.61528
2.57003
2.51504
2.45152
2.38105
2.33225
2.30157
2.26736
2.23062
2.18909
2.14694
2.11177
2.07032
2.01258
1.95215
1.91131
1.88051
1.85599
1.83974
1.82914
1.80434
1.76862
1.71592
1.64808
1.60326
1.58474
1.57003
1.55453
1.53763
1.51943
1.50169
1.48769
1.45781
1.41361
1.37959
1.38946
1.42788
1.49654
1.58764
1.7021
1.83613
1.95352
2.0591
2.10328
2.1213
2.16252
2.17133
2.1768
2.17531
5.73824
5.29786
4.85052
4.44347
4.08974
3.73009
3.39293
3.12763
2.88128
2.63
2.42025
2.26907
2.10754
1.95168
1.80383
1.712
1.61443
1.51804
1.41446
1.35229
1.29792
1.2233
1.16101
1.12577
1.08559
1.01979
0.977338
0.951504
0.916672
0.864283
0.853011
0.850552
0.835563
0.831638
0.840778
0.977637
1.37864
1.93213
2.35881
2.39343
2.48486
2.55635
2.55599
2.51341
2.5093
2.53536
2.56139
2.57147
2.55674
2.51169
2.44496
2.36548
2.28723
2.24368
2.2199
2.18638
2.14212
2.10888
2.08908
2.05836
2.00599
1.93189
1.87166
1.84198
1.82202
1.8142
1.8065
1.78033
1.74711
1.70476
1.63279
1.56869
1.54611
1.53019
1.51941
1.51374
1.49532
1.47552
1.45849
1.43658
1.40427
1.35787
1.317
1.29974
1.29116
1.28945
1.30206
1.33338
1.38758
1.46506
1.55929
1.62867
1.69109
1.77258
1.83246
1.92239
5.79011
5.38159
4.96549
4.58694
4.24731
3.89442
3.58099
3.32333
3.0741
2.80263
2.60888
2.44365
2.27832
2.10852
1.96649
1.85835
1.74368
1.6397
1.54366
1.47922
1.41542
1.33218
1.2554
1.21621
1.17473
1.11111
1.06679
1.03746
1.00008
0.936922
0.904546
0.886896
0.856282
0.870608
1.03664
1.55925
1.99951
2.26303
2.29334
2.25257
2.20976
2.17911
2.1627
2.17314
2.21039
2.28884
2.36824
2.41821
2.43416
2.40884
2.36667
2.3093
2.24464
2.19084
2.14797
2.11851
2.09109
2.08291
2.07332
2.04087
1.98882
1.9231
1.85479
1.80793
1.78138
1.76231
1.74388
1.72251
1.70099
1.67367
1.61763
1.54303
1.513
1.49798
1.48667
1.48761
1.47916
1.45824
1.43822
1.41744
1.38664
1.3454
1.30951
1.27744
1.26051
1.25234
1.24342
1.23249
1.22159
1.21644
1.22038
1.22431
1.23893
1.26809
1.31022
1.43692
5.85739
5.47592
5.09052
4.72738
4.39021
4.05398
3.75859
3.50351
3.24259
2.97459
2.78569
2.60984
2.43882
2.25151
2.11991
2.00012
1.87953
1.7653
1.66589
1.59641
1.52108
1.43924
1.3646
1.3187
1.26892
1.19055
1.1443
1.11984
1.08702
1.03188
0.990958
0.961785
0.995793
1.20416
1.7799
2.28969
2.38681
2.37716
2.30727
2.20348
2.1416
2.08759
2.02732
1.98893
1.97736
1.98507
2.03018
2.07334
2.12449
2.15885
2.18177
2.18836
2.15139
2.09841
2.06615
2.04297
2.03921
2.05211
2.04058
2.00803
1.95928
1.90216
1.85065
1.80537
1.76247
1.72685
1.693
1.66615
1.64641
1.6257
1.59439
1.53369
1.48794
1.47293
1.46246
1.46183
1.45749
1.43635
1.41421
1.3868
1.34542
1.31339
1.28958
1.26811
1.25581
1.24267
1.22627
1.20739
1.19218
1.17816
1.156
1.13241
1.11979
1.11044
1.09936
1.10989
5.9316
5.55322
5.1938
4.85418
4.51409
4.1825
3.90986
3.66135
3.3955
3.13935
2.94553
2.76351
2.57698
2.3969
2.26882
2.1357
2.00962
1.87649
1.78831
1.71348
1.63233
1.53874
1.4613
1.41408
1.36049
1.28688
1.23441
1.20143
1.15992
1.10658
1.07301
1.12899
1.43071
2.03387
2.56792
2.61304
2.54244
2.44343
2.33211
2.2393
2.16439
2.09942
2.0325
1.98574
1.9511
1.93452
1.91189
1.88765
1.8768
1.87001
1.87173
1.90166
1.91701
1.92318
1.93734
1.91759
1.90539
1.9037
1.89552
1.89235
1.88305
1.85883
1.8315
1.80021
1.75975
1.70833
1.65979
1.63098
1.60915
1.58319
1.55482
1.51311
1.46854
1.45255
1.4435
1.44251
1.43518
1.41246
1.38755
1.35834
1.31559
1.26875
1.25016
1.24703
1.24323
1.23242
1.2145
1.19708
1.18016
1.15909
1.13252
1.10696
1.08174
1.06541
1.05989
1.04446
5.98668
5.62353
5.28214
4.95808
4.63202
4.31951
4.04892
3.79375
3.53313
3.30023
3.10305
2.90992
2.71043
2.53726
2.40723
2.27083
2.14248
2.00585
1.91233
1.82247
1.73556
1.64489
1.57176
1.51444
1.45063
1.37079
1.32184
1.28222
1.24494
1.21507
1.32113
1.80366
2.39339
2.86491
2.86405
2.74943
2.60706
2.4974
2.42051
2.3476
2.27955
2.21435
2.13818
2.05472
1.97938
1.91571
1.86193
1.82924
1.80352
1.77941
1.7602
1.745
1.71675
1.68146
1.67593
1.6859
1.67494
1.67745
1.6934
1.70549
1.7142
1.72873
1.73611
1.74216
1.72291
1.68424
1.64389
1.61084
1.57576
1.5467
1.51225
1.473
1.44366
1.43115
1.42264
1.42057
1.40883
1.38527
1.35992
1.33242
1.29447
1.24716
1.21142
1.19301
1.18827
1.18951
1.18942
1.17993
1.16634
1.14679
1.12189
1.09456
1.06628
1.03813
1.02118
1.00982
6.02522
5.69051
5.36735
5.04692
4.72868
4.45003
4.18421
3.9208
3.66204
3.45259
3.24683
3.04589
2.83983
2.68521
2.54461
2.40027
2.25577
2.12498
2.03778
1.93902
1.8437
1.73886
1.67155
1.60858
1.53981
1.46671
1.40544
1.35849
1.3776
1.56905
2.24367
2.93264
3.18729
3.12481
2.98113
2.81565
2.6755
2.5866
2.5293
2.47344
2.40678
2.32399
2.22964
2.1296
2.03364
1.9488
1.88216
1.83559
1.79421
1.75384
1.72087
1.69246
1.66696
1.6473
1.61574
1.57437
1.52033
1.48628
1.47725
1.47608
1.48078
1.50283
1.54143
1.56508
1.59129
1.6054
1.58623
1.54009
1.52502
1.50691
1.48197
1.45569
1.42701
1.41177
1.4026
1.38808
1.36765
1.34858
1.33236
1.31347
1.28675
1.24618
1.19754
1.16362
1.14356
1.13386
1.12739
1.13094
1.13844
1.12997
1.11523
1.0978
1.07096
1.0327
1.00043
0.977066
6.11164
5.7852
5.47234
5.15354
4.85415
4.59062
4.32715
4.04518
3.79861
3.5995
3.39185
3.18315
2.97663
2.83111
2.67396
2.52933
2.3774
2.25736
2.15591
2.04787
1.94733
1.84592
1.78057
1.70635
1.62338
1.55134
1.49613
1.55818
1.90069
2.68854
3.43198
3.53145
3.44108
3.2428
3.0511
2.89811
2.78522
2.71253
2.64467
2.57538
2.50019
2.41784
2.33038
2.23929
2.14404
2.04742
1.96551
1.90093
1.84373
1.78827
1.73812
1.69035
1.64738
1.61715
1.59282
1.56387
1.52389
1.47168
1.41677
1.37573
1.35035
1.34305
1.35666
1.36028
1.36667
1.39151
1.39901
1.39875
1.41417
1.42179
1.42094
1.40292
1.37009
1.33901
1.32277
1.3111
1.30209
1.30265
1.30684
1.29587
1.27526
1.24472
1.20562
1.15775
1.11952
1.09294
1.08162
1.07729
1.08005
1.09678
1.09766
1.0857
1.06869
1.04019
0.993817
0.95199
6.20862
5.87764
5.56405
5.25464
4.96733
4.70347
4.44404
4.16947
3.93958
3.72751
3.51616
3.28929
3.11122
2.96593
2.80532
2.64728
2.48247
2.38005
2.26945
2.16205
2.04642
1.95003
1.87917
1.79193
1.71743
1.65759
1.7565
2.35304
3.17091
3.86322
3.86474
3.71307
3.51398
3.32454
3.16144
3.02285
2.9079
2.81905
2.73871
2.65802
2.57646
2.49325
2.40732
2.31907
2.227
2.13211
2.04473
1.96961
1.90202
1.83549
1.77182
1.71464
1.66493
1.62357
1.59074
1.56072
1.52489
1.47624
1.42213
1.37386
1.3336
1.30694
1.28865
1.26899
1.25124
1.24428
1.23885
1.22895
1.22812
1.24404
1.27306
1.29148
1.28744
1.26316
1.24137
1.23475
1.227
1.21969
1.21725
1.22346
1.2286
1.22107
1.20051
1.16531
1.1167
1.07432
1.05413
1.04698
1.04329
1.04782
1.06184
1.06085
1.05284
1.03337
0.992958
0.937923
6.22246
5.98039
5.64807
5.34
5.06682
4.80927
4.54605
4.27975
4.05875
3.84707
3.64011
3.4142
3.24618
3.08416
2.92456
2.75975
2.61184
2.50483
2.38109
2.26903
2.14302
2.06332
1.97375
1.88779
1.86637
2.07908
2.89075
3.81063
4.18733
4.15333
3.98457
3.77904
3.58345
3.43136
3.30194
3.17442
3.04561
2.92844
2.82541
2.72929
2.63853
2.55273
2.46952
2.38679
2.30121
2.21183
2.12315
2.04127
1.96946
1.90364
1.84005
1.7798
1.72467
1.6743
1.62644
1.57856
1.53158
1.48855
1.44886
1.40995
1.36276
1.3041
1.27071
1.24804
1.22528
1.20567
1.18712
1.16307
1.13939
1.13271
1.13674
1.13247
1.12952
1.1289
1.11862
1.10803
1.11055
1.11262
1.11667
1.12527
1.13787
1.14712
1.14606
1.13317
1.10161
1.06263
1.04336
1.0329
1.02495
1.01992
1.02008
1.01779
1.01201
1.00417
0.986256
0.934059
5.71211
6.04411
5.77274
5.44668
5.17423
4.91534
4.64278
4.40043
4.18222
3.97314
3.74739
3.53094
3.37159
3.20832
3.05049
2.86579
2.73774
2.61899
2.49289
2.37116
2.24098
2.16025
2.06941
2.13171
2.56757
3.55761
4.52147
4.5595
4.41924
4.19985
4.01646
3.85037
3.69852
3.56858
3.43313
3.28724
3.14506
3.01845
2.90683
2.80329
2.70415
2.61099
2.52492
2.44441
2.36522
2.28269
2.19397
2.09991
2.00944
1.93368
1.87334
1.82313
1.77756
1.73273
1.6844
1.63156
1.57307
1.50739
1.45082
1.41258
1.37272
1.32394
1.2918
1.26783
1.2352
1.19797
1.16972
1.14441
1.11531
1.0952
1.08482
1.07171
1.05629
1.04277
1.02435
0.996815
0.98652
0.983292
0.984458
0.996276
1.01798
1.0398
1.04913
1.04656
1.03212
1.01882
1.01567
1.00435
0.991856
0.988758
0.990244
0.985585
0.977322
0.964399
0.949247
0.918376
3.82201
5.67289
5.85284
5.58753
5.27583
5.00777
4.7557
4.52042
4.29418
4.07814
3.86496
3.6728
3.49521
3.32377
3.14321
2.97764
2.862
2.7349
2.6147
2.44943
2.33952
2.27128
2.43149
3.18853
4.41782
5.12001
5.05912
4.84163
4.54043
4.27631
4.09333
3.9543
3.82139
3.68698
3.53805
3.38018
3.23164
3.10187
2.98804
2.88154
2.77546
2.66992
2.57187
2.48675
2.41116
2.33737
2.25753
2.16794
2.07623
1.99396
1.92361
1.86123
1.80397
1.75523
1.71223
1.66682
1.61794
1.56446
1.50858
1.4587
1.40698
1.35144
1.30713
1.27483
1.24639
1.21808
1.19026
1.16008
1.12031
1.08955
1.0722
1.05293
1.02968
1.00426
0.983654
0.965653
0.949396
0.927373
0.908579
0.903309
0.905716
0.91936
0.927853
0.925889
0.917711
0.904869
0.905438
0.91181
0.919291
0.932712
0.944378
0.946511
0.943746
0.932528
0.910569
0.886237
1.62776
4.19822
5.62463
5.68198
5.42242
5.1153
4.84968
4.62346
4.41477
4.19832
3.96742
3.77864
3.61496
3.44493
3.25663
3.09038
2.96276
2.83607
2.71016
2.56451
2.5223
2.8575
3.98072
5.22284
5.69612
5.51515
5.179
4.86806
4.62101
4.40303
4.2142
4.06024
3.91621
3.77163
3.62216
3.46682
3.31328
3.17539
3.05803
2.95297
2.84952
2.74257
2.63593
2.53775
2.44909
2.36493
2.27998
2.19239
2.11051
2.04284
1.98615
1.93392
1.87902
1.81673
1.7444
1.66798
1.61067
1.57124
1.53353
1.49827
1.46105
1.41806
1.37015
1.31556
1.25927
1.21675
1.19053
1.16992
1.1478
1.12288
1.09599
1.06398
1.03044
0.996691
0.964459
0.940719
0.922477
0.907678
0.890347
0.879731
0.873225
0.866875
0.857926
0.846298
0.828366
0.803879
0.793793
0.795733
0.80395
0.819103
0.843914
0.873141
0.884075
0.881376
0.86093
0.840311
1.03382
1.90074
4.42297
5.51777
5.54157
5.27596
4.97378
4.7428
4.52294
4.29776
4.07896
3.90262
3.73505
3.54932
3.35551
3.20766
3.07356
2.94999
2.79953
2.88204
3.57908
4.95497
6.02646
6.19678
6.00851
5.65736
5.30008
5.00178
4.7168
4.50938
4.32934
4.16642
4.01075
3.85466
3.70162
3.54909
3.39801
3.25312
3.11704
2.99304
2.8818
2.78095
2.6883
2.60173
2.51692
2.42853
2.33284
2.23025
2.13264
2.05569
1.99741
1.94867
1.90394
1.85694
1.79692
1.72495
1.65461
1.59586
1.54117
1.49168
1.46301
1.44054
1.40903
1.36425
1.31255
1.25611
1.20492
1.16768
1.14768
1.13652
1.12203
1.09219
1.05297
1.00992
0.965835
0.935506
0.913003
0.89264
0.878703
0.869705
0.86316
0.855385
0.845708
0.83232
0.806811
0.765748
0.738265
0.73325
0.733429
0.735465
0.742517
0.759338
0.772003
0.773544
0.766272
0.767188
1.00039
1.06641
2.13429
4.54311
5.40393
5.40002
5.1369
4.86357
4.63118
4.41242
4.20813
4.00998
3.83583
3.65806
3.49212
3.31445
3.17213
3.08623
3.34088
4.54266
6.10174
6.72341
6.63017
6.36411
6.04551
5.7207
5.43428
5.1624
4.87923
4.63332
4.43829
4.27335
4.11599
3.94992
3.77792
3.61035
3.45787
3.32065
3.18809
3.05549
2.92742
2.81327
2.7168
2.63123
2.54828
2.4628
2.37531
2.2891
2.20432
2.12068
2.04007
1.9648
1.89423
1.83292
1.79298
1.75187
1.69486
1.64202
1.59553
1.54549
1.49255
1.4439
1.40463
1.37127
1.33549
1.2905
1.24304
1.20591
1.17305
1.13783
1.1163
1.10545
1.08596
1.04361
0.981965
0.93728
0.926634
0.917925
0.905113
0.891686
0.877857
0.863097
0.847441
0.828342
0.801451
0.759825
0.726244
0.714124
0.708849
0.704867
0.702099
0.700767
0.698405
0.692519
0.679465
0.671261
1
1.00103
1.10455
2.32131
4.57983
5.28227
5.26568
5.02845
4.75328
4.51549
4.31647
4.13416
3.95226
3.77794
3.58454
3.42588
3.4162
4.01475
5.62868
7.2513
7.62749
7.30639
6.82154
6.4402
6.09222
5.80216
5.54155
5.26427
4.99068
4.75351
4.55258
4.37551
4.20568
4.031
3.85101
3.67759
3.52332
3.3841
3.24762
3.11073
2.97974
2.86319
2.76121
2.66571
2.57019
2.47288
2.38129
2.30728
2.24208
2.16948
2.08794
2.00635
1.93182
1.8599
1.79179
1.73521
1.69066
1.65579
1.62178
1.5809
1.53039
1.47782
1.42322
1.36718
1.318
1.28426
1.26059
1.23363
1.1994
1.16523
1.13748
1.11049
1.07876
1.04642
1.01427
0.975922
0.935942
0.907999
0.890383
0.875523
0.861183
0.846563
0.830974
0.813781
0.793223
0.763518
0.72836
0.710283
0.703254
0.6978
0.692107
0.685232
0.677306
0.667362
0.651997
0.627953
1
1
1.00205
1.14322
2.4536
4.52085
5.17854
5.16179
4.91922
4.63949
4.44424
4.2484
4.05958
3.90107
3.68551
3.8107
4.91799
7.09029
8.2021
8.05812
7.70841
7.21152
6.84599
6.52951
6.21465
5.9229
5.63345
5.33858
5.07586
4.85029
4.64698
4.45187
4.25793
4.06779
3.88677
3.72381
3.5804
3.44449
3.30539
3.16432
3.03057
2.9114
2.80462
2.70142
2.59762
2.49967
2.40907
2.32665
2.26108
2.19593
2.1126
2.02806
1.95286
1.88208
1.81466
1.7624
1.71615
1.66428
1.61201
1.56762
1.53357
1.48719
1.42989
1.3815
1.34396
1.30778
1.26692
1.2254
1.19674
1.17783
1.15474
1.12097
1.09085
1.06493
1.02812
0.981205
0.939403
0.912541
0.894447
0.878768
0.864201
0.85039
0.835865
0.819142
0.798818
0.775528
0.746149
0.717824
0.70466
0.69802
0.691464
0.681867
0.672271
0.661277
0.646155
0.618747
1
1
1.00001
1.00331
1.17617
2.48991
4.46781
5.09787
5.05608
4.8113
4.57474
4.35965
4.17801
4.00115
4.33105
6.2318
8.40177
9.36262
9.10754
8.41378
7.73757
7.20962
6.89638
6.63022
6.35169
6.04734
5.72334
5.41293
5.15078
4.92892
4.72208
4.51495
4.3053
4.10268
3.92131
3.76596
3.62739
3.49187
3.34936
3.20288
3.06784
2.94979
2.84001
2.73125
2.62374
2.52902
2.44718
2.36586
2.28529
2.22268
2.17081
2.09294
2.0019
1.92154
1.84731
1.78196
1.73059
1.68761
1.6465
1.59408
1.54278
1.51455
1.4836
1.44327
1.39646
1.34553
1.2984
1.26111
1.22387
1.18009
1.15716
1.14524
1.13012
1.1044
1.05936
1.00448
0.966128
0.944854
0.929218
0.915061
0.901709
0.888377
0.873647
0.856175
0.833433
0.795322
0.738524
0.706912
0.698541
0.693846
0.691906
0.689881
0.682871
0.672615
0.657376
0.618673
1
1
1
1.00002
1.00449
1.19437
2.47956
4.44282
4.94271
4.92413
4.74158
4.47525
4.31364
5.03816
7.74402
10.0748
9.94042
9.55835
9.01072
8.47028
7.92761
7.44601
7.0513
6.72796
6.4236
6.11263
5.80184
5.50967
5.24662
5.01114
4.78748
4.55988
4.33644
4.13181
3.95919
3.81305
3.67696
3.54031
3.39726
3.24547
3.08842
2.94324
2.82926
2.74392
2.67463
2.6048
2.52401
2.43226
2.33863
2.25303
2.16049
2.05673
1.96441
1.89928
1.8577
1.8194
1.77495
1.72699
1.67828
1.62439
1.56833
1.51381
1.46029
1.40859
1.35748
1.3099
1.26981
1.2368
1.20905
1.1876
1.16808
1.14227
1.11241
1.07576
1.0287
0.981936
0.95013
0.930504
0.915586
0.901912
0.888372
0.874762
0.860567
0.844572
0.823186
0.786927
0.733303
0.707861
0.70248
0.69761
0.69129
0.682654
0.673544
0.662445
0.645705
0.606646
1
1
1
1
1.00003
1.00549
1.19663
2.48682
4.28475
4.83122
4.78466
4.69639
5.76875
9.27848
11.532
11.497
10.5493
9.61015
8.8882
8.42144
8.01021
7.58812
7.17448
6.80386
6.46751
6.14365
5.83725
5.5601
5.30806
5.07269
4.84655
4.61324
4.37927
4.16534
3.98168
3.82585
3.683
3.54433
3.40705
3.26811
3.12639
2.99122
2.87349
2.77133
2.67958
2.59368
2.51074
2.42793
2.34398
2.25592
2.15807
2.05869
1.98316
1.92552
1.87025
1.81909
1.7732
1.72843
1.68147
1.62986
1.57437
1.51767
1.46336
1.40995
1.3575
1.31041
1.27204
1.24263
1.22084
1.2011
1.17739
1.14891
1.1163
1.0763
1.02808
0.983561
0.953839
0.934534
0.919562
0.905926
0.892502
0.879173
0.865317
0.849198
0.825965
0.78579
0.739204
0.719932
0.711603
0.703261
0.694138
0.685558
0.677316
0.666599
0.648845
0.60806
1
1
1
1
1
1.00003
1.00569
1.20093
2.40751
4.07383
4.70184
6.72892
10.5943
12.3542
11.7578
11.0772
10.3842
9.7134
9.04261
8.49385
8.04407
7.63903
7.25058
6.88115
6.5336
6.20283
5.88998
5.6041
5.34963
5.12048
4.90292
4.70279
4.50665
4.29564
4.10354
3.93921
3.79238
3.65471
3.52178
3.38794
3.24878
3.10627
2.96929
2.84732
2.74211
2.64992
2.56575
2.48318
2.39794
2.31136
2.22546
2.14301
2.06331
1.98261
1.91041
1.85486
1.80963
1.76636
1.72039
1.66895
1.6134
1.55801
1.50228
1.44503
1.38997
1.34419
1.31055
1.28476
1.26104
1.23651
1.21058
1.18167
1.1468
1.10421
1.05659
1.01443
0.9845
0.963547
0.94718
0.932814
0.919256
0.905661
0.8906
0.872131
0.845994
0.807449
0.769417
0.747875
0.735369
0.725143
0.71613
0.708254
0.700308
0.688744
0.668438
0.622879
1
1
1
1
1
1
1.00004
1.00628
1.19965
2.51944
5.54361
12.7787
17.1556
15.226
12.4904
10.9119
10.2221
9.6333
9.05021
8.48375
7.99641
7.59404
7.24117
6.90291
6.56414
6.23148
5.92116
5.64396
5.39072
5.14441
4.90313
4.66482
4.42668
4.20995
4.01595
3.8454
3.69436
3.55772
3.42995
3.30279
3.16861
3.02655
2.88587
2.7604
2.6563
2.56976
2.49214
2.41449
2.33142
2.2448
2.16042
2.08149
2.00427
1.92703
1.85667
1.79912
1.75139
1.7093
1.66832
1.6221
1.56796
1.50982
1.45237
1.39677
1.34515
1.3035
1.27282
1.24733
1.22307
1.19936
1.17461
1.14552
1.10978
1.06753
1.02275
0.984928
0.957521
0.936201
0.918521
0.903787
0.891196
0.87889
0.864673
0.846764
0.821778
0.785465
0.748094
0.726598
0.714982
0.705249
0.696136
0.687875
0.680829
0.670531
0.650679
0.605002
)
;

boundaryField
{
    inlet
    {
        type            fixedValue;
        value           uniform 1;
    }
    outlet
    {
        type            zeroGradient;
    }
    bottom
    {
        type            symmetryPlane;
    }
    top
    {
        type            symmetryPlane;
    }
    obstacle
    {
        type            zeroGradient;
    }
    defaultFaces
    {
        type            empty;
    }
}


// ************************************************************************* //
