/*--------------------------------*- C++ -*----------------------------------*\
  =========                 |
  \\      /  F ield         | OpenFOAM: The Open Source CFD Toolbox
   \\    /   O peration     | Website:  https://openfoam.org
    \\  /    A nd           | Version:  7
     \\/     M anipulation  |
\*---------------------------------------------------------------------------*/
FoamFile
{
    version     2.0;
    format      ascii;
    class       volScalarField;
    location    "1.5";
    object      rho;
}
// * * * * * * * * * * * * * * * * * * * * * * * * * * * * * * * * * * * * * //

dimensions      [1 -3 0 0 0 0 0];

internalField   nonuniform List<scalar> 
4032
(
1.40001
1.40001
1.40001
1.40001
1.40001
1.40001
1.40001
1.40001
1.40001
1.40001
1.40001
1.40001
2.44566
5.0657
5.41809
5.49266
5.59508
5.68474
5.76504
5.81881
5.83448
5.81493
5.79322
5.79239
1.40001
1.40001
1.40001
1.40001
1.40001
1.40001
1.40001
1.40001
1.40001
1.40001
1.40001
1.40001
2.38984
5.02127
5.41497
5.49382
5.59302
5.68002
5.7574
5.80786
5.82067
5.79865
5.77326
5.77065
1.40001
1.40001
1.40001
1.40001
1.40001
1.40001
1.40001
1.40001
1.40001
1.40001
1.40001
1.40001
2.25797
4.95113
5.40957
5.4883
5.58479
5.66813
5.74128
5.7877
5.7981
5.77589
5.74765
5.74509
1.40001
1.40001
1.40001
1.40001
1.40001
1.40001
1.40001
1.40001
1.40001
1.40001
1.40001
1.40001
2.0736
4.83829
5.41501
5.48551
5.57331
5.64905
5.71552
5.75797
5.7674
5.74458
5.71113
5.70273
1.40001
1.40001
1.40001
1.40001
1.40001
1.40001
1.40001
1.40001
1.40001
1.40001
1.40001
1.40001
1.85171
4.66996
5.43235
5.47615
5.55
5.61738
5.67597
5.71072
5.71327
5.68795
5.6515
5.64958
1.40001
1.40001
1.40001
1.40001
1.40001
1.40001
1.40001
1.40001
1.40001
1.40001
1.40001
1.40001
1.61121
4.44409
5.45523
5.46228
5.51841
5.57355
5.61947
5.64564
5.64242
5.61626
5.57524
5.54718
1.40001
1.40001
1.40001
1.40001
1.40001
1.40001
1.40001
1.40001
1.40001
1.40001
1.40001
1.40001
1.41832
4.0442
5.39856
5.41108
5.45708
5.50028
5.53078
5.5419
5.51957
5.46452
5.40332
5.37699
1.40001
1.40001
1.40001
1.40001
1.40001
1.40001
1.40001
1.40001
1.40001
1.40001
1.40001
1.40001
1.40014
3.48385
5.27184
5.35828
5.40082
5.43346
5.44595
5.43491
5.39433
5.32854
5.23188
5.17799
1.40001
1.40001
1.40001
1.40001
1.40001
1.40001
1.40001
1.40001
1.40001
1.40001
1.40001
1.40001
1.4
2.87077
5.0983
5.32589
5.3543
5.37055
5.3628
5.3306
5.25961
5.12725
4.77802
3.90675
1.40001
1.40001
1.40001
1.40001
1.40001
1.40001
1.40001
1.40001
1.40001
1.40001
1.40001
1.40001
1.4
2.19692
4.8768
5.31507
5.30722
5.30777
5.28132
5.22191
5.10888
4.89649
4.53344
3.62122
1.40001
1.40001
1.40001
1.40001
1.40001
1.40001
1.40001
1.40001
1.40001
1.40001
1.40001
1.40001
1.40001
1.56208
4.45777
5.35547
5.27136
5.23061
5.18112
5.0976
4.95927
4.70965
4.34229
3.50216
1.40001
1.40001
1.40001
1.40001
1.40001
1.40001
1.40001
1.40001
1.40001
1.40001
1.40001
1.40001
1.40001
1.40412
3.66071
5.13473
5.14933
5.13087
5.0794
4.98005
4.82266
4.58096
4.18081
3.50092
1.40001
1.40001
1.40001
1.40001
1.40001
1.40001
1.40001
1.40001
1.40001
1.40001
1.40001
1.40001
1.40001
1.39998
2.61838
4.90761
5.11417
5.0936
5.03074
4.91593
4.7347
4.4882
4.0774
3.55051
1.40001
1.40001
1.40001
1.40001
1.40001
1.40001
1.40001
1.40001
1.40001
1.40001
1.40001
1.40001
1.40001
1.4
1.66382
4.52965
5.15881
5.06343
4.96885
4.83452
4.65616
4.40055
4.03372
3.6098
1.40001
1.40001
1.40001
1.40001
1.40001
1.40001
1.40001
1.40001
1.40001
1.40001
1.40001
1.40001
1.40001
1.4
1.41036
3.574
5.01219
4.96651
4.88142
4.7464
4.58194
4.33832
4.02842
3.67772
1.40001
1.40001
1.40001
1.40001
1.40001
1.40001
1.40001
1.40001
1.40001
1.40001
1.40001
1.40001
1.40001
1.40001
1.39993
2.31815
4.82451
4.9663
4.85128
4.70137
4.52474
4.29881
4.02832
3.72372
1.40001
1.40001
1.40001
1.40001
1.40001
1.40001
1.40001
1.40001
1.40001
1.40001
1.40001
1.40001
1.40001
1.40001
1.39999
1.53169
4.05679
4.93411
4.79492
4.65783
4.48129
4.2713
4.03138
3.76107
1.40001
1.40001
1.40001
1.40001
1.40001
1.40001
1.40001
1.40001
1.40001
1.40001
1.40001
1.40001
1.40001
1.40001
1.4
1.40174
2.7147
4.72698
4.79296
4.65759
4.48487
4.27441
4.044
3.79541
1.40001
1.40001
1.40001
1.40001
1.40001
1.40001
1.40001
1.40001
1.40001
1.40001
1.40001
1.40001
1.40001
1.40001
1.4
1.4
1.64959
4.10519
4.82361
4.6581
4.49165
4.28605
4.06645
3.83266
1.40001
1.40001
1.40001
1.40001
1.40001
1.40001
1.40001
1.40001
1.40001
1.40001
1.40001
1.40001
1.40001
1.40001
1.40001
1.4
1.4072
2.72538
4.62384
4.64946
4.49319
4.30407
4.10003
3.87981
1.40001
1.40001
1.40001
1.40001
1.40001
1.40001
1.40001
1.40001
1.40001
1.40001
1.40001
1.40001
1.40001
1.40001
1.40001
1.40001
1.40002
1.64636
3.91369
4.71033
4.52322
4.33421
4.13194
3.92202
1.40001
1.40001
1.40001
1.40001
1.40001
1.40001
1.40001
1.40001
1.40001
1.40001
1.40001
1.40001
1.40001
1.40001
1.40001
1.40001
1.40001
1.4071
2.42657
4.40936
4.54118
4.36078
4.17197
3.97604
1.40001
1.40001
1.40001
1.40001
1.40001
1.40001
1.40001
1.40001
1.40001
1.40001
1.40001
1.40001
1.40001
1.40001
1.40001
1.40001
1.40001
1.40004
1.54204
3.44446
4.55307
4.41701
4.23754
4.04834
1.40001
1.40001
1.40001
1.40001
1.40001
1.40001
1.40001
1.40001
1.40001
1.40001
1.40001
1.40001
1.40001
1.40001
1.40001
1.40001
1.40001
1.40001
1.40268
2.02654
4.06675
4.48318
4.29649
4.11363
1.40001
1.40001
1.40001
1.40001
1.40001
1.40001
1.40001
1.40001
1.40001
1.40001
1.40001
1.40001
1.40001
1.40001
1.40001
1.40001
1.40001
1.40001
1.40002
1.44929
2.73329
4.2707
4.34589
4.17783
1.40001
1.40001
1.40001
1.40001
1.40001
1.40001
1.40001
1.40001
1.40001
1.40001
1.40001
1.40001
1.40001
1.40001
1.40001
1.40001
1.40001
1.40001
1.40001
1.40064
1.64007
3.38339
4.32549
4.26032
1.40001
1.40001
1.40001
1.40001
1.40001
1.40001
1.40001
1.40001
1.40001
1.40001
1.40001
1.40001
1.40001
1.40001
1.40001
1.40001
1.40001
1.40001
1.40001
1.40001
1.40792
2.00652
3.79115
4.29255
1.40001
1.40001
1.40001
1.40001
1.40001
1.40001
1.40001
1.40001
1.40001
1.40001
1.40001
1.40001
1.40001
1.40001
1.40001
1.40001
1.40001
1.40001
1.40001
1.40001
1.40006
1.44683
2.43182
4.00624
1.40001
1.40001
1.40001
1.40001
1.40001
1.40001
1.40001
1.40001
1.40001
1.40001
1.40001
1.40001
1.40001
1.40001
1.40001
1.40001
1.40001
1.40001
1.40001
1.40001
1.40001
1.40068
1.53893
2.83696
1.40001
1.40001
1.40001
1.40001
1.40001
1.40001
1.40001
1.40001
1.40001
1.40001
1.40001
1.40001
1.40001
1.40001
1.40001
1.40001
1.40001
1.40001
1.40001
1.40001
1.40001
1.40001
1.40348
1.68506
1.40001
1.40001
1.40001
1.40001
1.40001
1.40001
1.40001
1.40001
1.40001
1.40001
1.40001
1.40001
1.40001
1.40001
1.40001
1.40001
1.40001
1.40001
1.40001
1.40001
1.40001
1.40001
1.40002
1.41177
1.40001
1.40001
1.40001
1.40001
1.40001
1.40001
1.40001
1.40001
1.40001
1.40001
1.40001
1.40001
1.40001
1.40001
1.40001
1.40001
1.40001
1.40001
1.40001
1.40001
1.40001
1.40001
1.40001
1.40011
1.40001
1.40001
1.40001
1.40001
1.40001
1.40001
1.40001
1.40001
1.40001
1.40001
1.40001
1.40001
1.40001
1.40001
1.40001
1.40001
1.40001
1.40001
1.40001
1.40001
1.40001
1.40001
1.40001
1.40001
1.40001
1.40001
1.40001
1.40001
1.40001
1.40001
1.40001
1.40001
1.40001
1.40001
1.40001
1.40001
1.40001
1.40001
1.40001
1.40001
1.40001
1.40001
1.40001
1.40001
1.40001
1.40001
1.40001
1.40001
1.40001
1.40001
1.40001
1.40001
1.40001
1.40001
1.40001
1.40001
1.40001
1.40001
1.40001
1.40001
1.40001
1.40001
1.40001
1.40001
1.40001
1.40001
1.40001
1.40001
1.40001
1.40001
1.40001
1.40001
1.40001
1.40001
1.40001
1.40001
1.40001
1.40001
1.40001
1.40001
1.40001
1.40001
1.40001
1.40001
1.40001
1.40001
1.40001
1.40001
1.40001
1.40001
1.40001
1.40001
1.40001
1.40001
1.40001
1.40001
1.40001
1.40001
1.40001
1.40001
1.40001
1.40001
1.40001
1.40001
1.40001
1.40001
1.40001
1.40001
1.40001
1.40001
1.40001
1.40001
1.40001
1.40001
1.40001
1.40001
1.40001
1.40001
1.40001
1.40001
1.40001
1.40001
1.40001
1.40001
1.40001
1.40001
1.40001
1.40001
1.40001
1.40001
1.40001
1.40001
1.40001
1.40001
1.40001
1.40001
1.40001
1.40001
1.40001
1.40001
1.40001
1.40001
1.40001
1.40001
1.40001
1.40001
1.40001
1.40001
1.40001
1.40001
1.40001
1.40001
1.40001
1.40001
1.40001
1.40001
1.40001
1.40001
1.40001
1.40001
1.40001
1.40001
1.40001
1.40001
1.40001
1.40001
1.40001
1.40001
1.40001
1.40001
1.40001
1.40001
1.40001
1.40001
1.40001
1.40001
1.40001
1.40001
1.40001
1.40001
1.40001
1.40001
1.40001
1.40001
1.40001
1.40001
1.40001
1.40001
1.40001
1.40001
1.40001
1.40001
1.25708
0.428256
0.282767
0.219946
0.213594
0.237952
0.328505
0.439164
0.55572
0.652494
0.734594
0.813087
0.864808
0.905289
0.918052
0.912653
0.913393
0.923293
0.938828
0.952762
0.968592
0.975105
0.978762
0.979556
0.980078
0.982959
0.986367
0.989746
0.989616
0.986427
0.985637
0.985314
0.984816
0.982609
0.976909
0.970814
0.967374
0.966141
0.966794
0.967339
0.965634
0.962527
0.957417
0.949954
0.945624
0.942851
0.93959
0.936944
0.936333
0.937951
0.95475
1.02732
1.21428
1.49472
1.83964
2.14023
2.38242
2.5521
2.66758
2.69639
2.66555
2.58771
2.49767
2.42589
2.37296
2.32465
2.27895
2.23712
2.20014
2.16667
2.1374
2.11068
2.0772
2.03464
2.00796
1.99274
1.98254
1.9769
1.96266
1.94392
1.92008
1.88
1.82781
1.79695
1.78175
1.76897
1.7605
1.75824
1.75015
1.73181
1.70874
1.6732
1.61214
1.54798
1.52398
1.51007
1.95471
1.13701
0.820367
0.686933
0.549439
0.517215
0.537676
0.539321
0.54397
0.565292
0.604291
0.669438
0.754887
0.827329
0.873006
0.884781
0.891811
0.907327
0.934605
0.960421
0.974507
0.984765
0.998279
1.00575
1.00553
1.00681
1.00972
1.01252
1.01297
1.00834
1.00556
1.0033
1.00029
0.996475
0.991982
0.986557
0.979287
0.976178
0.975551
0.97588
0.976357
0.974629
0.970871
0.964944
0.959524
0.954178
0.949015
0.947044
0.956468
0.998677
1.12189
1.31555
1.4951
1.6132
1.70269
1.85973
2.00464
2.14176
2.24968
2.34407
2.42982
2.44365
2.44013
2.4237
2.40544
2.37075
2.33591
2.30579
2.27336
2.23744
2.20203
2.16964
2.13177
2.08549
2.04719
2.02638
2.01053
1.99563
1.97916
1.96196
1.94093
1.90621
1.85505
1.81227
1.79163
1.77909
1.76933
1.76248
1.7559
1.74398
1.72504
1.69727
1.65782
1.60361
1.55543
1.5301
2.44143
1.79478
1.34924
1.09856
0.893769
0.771155
0.72771
0.698726
0.637389
0.63851
0.656454
0.695253
0.755003
0.803137
0.845613
0.87735
0.901106
0.929619
0.974014
1.00957
1.02607
1.04202
1.06487
1.07587
1.07207
1.06872
1.07031
1.0698
1.06382
1.05524
1.04849
1.04284
1.0366
1.03246
1.03003
1.0266
1.02122
1.01471
1.01157
1.01048
1.00908
1.006
1.0004
0.993109
0.985945
0.979922
0.982704
1.00669
1.10203
1.28797
1.50207
1.64759
1.74841
1.76087
1.74157
1.72769
1.74165
1.8013
1.91851
2.07417
2.23371
2.35006
2.41201
2.44268
2.46827
2.449
2.43953
2.42871
2.40638
2.37281
2.33182
2.27733
2.21702
2.15924
2.11305
2.07834
2.05252
2.03046
2.01341
1.99796
1.97892
1.95558
1.92792
1.88903
1.84768
1.82452
1.81146
1.80219
1.79104
1.77698
1.75897
1.73662
1.71225
1.68251
1.64517
1.59221
2.77366
2.22091
1.80974
1.51281
1.28685
1.09767
0.984502
0.920461
0.843075
0.814057
0.791421
0.758693
0.744089
0.750421
0.770459
0.80145
0.840764
0.883859
0.94021
0.987001
1.00715
1.02145
1.05072
1.08747
1.0943
1.10581
1.12479
1.12981
1.12684
1.11935
1.10603
1.08978
1.07682
1.06923
1.0664
1.0649
1.06112
1.05653
1.05449
1.05252
1.04941
1.04507
1.03935
1.03277
1.02805
1.03694
1.09427
1.25296
1.48101
1.67516
1.81201
1.83419
1.83038
1.81149
1.78622
1.76782
1.75679
1.73774
1.73056
1.75437
1.8214
1.94233
2.08658
2.22923
2.35013
2.40505
2.422
2.43124
2.42075
2.41613
2.40464
2.37466
2.33445
2.28688
2.24009
2.19288
2.14636
2.11234
2.0927
2.07695
2.05521
2.03093
2.00883
1.9808
1.93571
1.88206
1.85786
1.84686
1.83322
1.81735
1.80322
1.79004
1.77393
1.7538
1.7317
1.68026
3.02652
2.54841
2.16609
1.85977
1.5983
1.40759
1.27106
1.15626
1.05111
0.97519
0.915969
0.866764
0.80349
0.781878
0.786143
0.798177
0.806538
0.822927
0.858307
0.901229
0.932233
0.952535
0.989439
1.04984
1.07398
1.09198
1.12132
1.13925
1.13985
1.13926
1.13435
1.12538
1.11631
1.10757
1.1012
1.09641
1.09118
1.08708
1.08358
1.08004
1.07438
1.07033
1.06969
1.07447
1.10636
1.20939
1.43185
1.68151
1.84596
1.87332
1.88219
1.87467
1.87045
1.85374
1.83232
1.80358
1.77152
1.73798
1.70963
1.69286
1.68545
1.68818
1.71645
1.78377
1.89765
2.03883
2.15345
2.25796
2.31527
2.36242
2.39053
2.37817
2.35099
2.3254
2.29984
2.26452
2.22011
2.18431
2.16322
2.14538
2.12437
2.09818
2.07191
2.04374
2.00527
1.95245
1.89684
1.86382
1.84391
1.83091
1.82428
1.82588
1.82007
1.80845
1.79802
1.76465
3.18151
2.77818
2.42635
2.13196
1.87754
1.66832
1.50604
1.3697
1.25664
1.17301
1.08719
1.02642
0.970518
0.905928
0.876586
0.862648
0.84375
0.838435
0.832903
0.828261
0.831333
0.842937
0.869466
0.924965
0.98823
1.03086
1.0813
1.12622
1.13227
1.13419
1.13364
1.1303
1.1244
1.12246
1.11984
1.11768
1.11472
1.11045
1.10461
1.09816
1.08836
1.08619
1.09971
1.17181
1.36442
1.61409
1.85666
1.92906
1.94371
1.92821
1.92236
1.91062
1.8888
1.85917
1.8273
1.79629
1.76562
1.73557
1.71236
1.69395
1.67385
1.66063
1.6473
1.63636
1.63269
1.66112
1.71461
1.79884
1.92045
2.03592
2.14357
2.23782
2.28034
2.29493
2.27971
2.26252
2.22562
2.19475
2.18027
2.17026
2.17114
2.15626
2.13354
2.10606
2.06974
2.0228
1.96307
1.90292
1.86508
1.85202
1.84493
1.84042
1.83871
1.83652
1.82984
1.80347
3.30346
2.95186
2.63982
2.34972
2.09698
1.89759
1.72151
1.57248
1.44141
1.34467
1.25151
1.16498
1.11518
1.05708
0.98542
0.951877
0.918945
0.871848
0.852177
0.838943
0.834315
0.835638
0.84092
0.855206
0.883943
0.919766
0.964067
1.02538
1.07498
1.09611
1.11521
1.12697
1.12341
1.11857
1.11923
1.11914
1.11787
1.11437
1.11211
1.10708
1.10554
1.12764
1.25564
1.52916
1.77736
1.92341
1.99877
1.99605
1.98736
1.95201
1.91401
1.88719
1.86142
1.8392
1.81503
1.79313
1.77289
1.74805
1.71816
1.68596
1.6606
1.64546
1.63331
1.62229
1.61175
1.59777
1.57605
1.55882
1.57227
1.61675
1.69692
1.81481
1.94355
2.05722
2.11347
2.15332
2.17641
2.17636
2.15971
2.14237
2.1378
2.14179
2.13943
2.12258
2.10014
2.07055
2.02941
1.97905
1.92711
1.88753
1.86685
1.85469
1.84958
1.84761
1.83996
1.8145
3.39559
3.09157
2.80336
2.51939
2.29073
2.09137
1.90957
1.74317
1.62409
1.5084
1.40782
1.30533
1.24296
1.18839
1.11171
1.06438
1.03715
0.97987
0.936032
0.917049
0.889911
0.864494
0.864043
0.863508
0.856162
0.85853
0.868133
0.891473
0.935518
0.98763
1.03575
1.08115
1.10932
1.1095
1.11401
1.11632
1.11571
1.11206
1.11063
1.12196
1.18686
1.37
1.68778
1.89799
1.9852
2.04081
2.03532
2.00482
1.95813
1.90572
1.87879
1.866
1.84631
1.82894
1.81694
1.80319
1.78267
1.75159
1.71527
1.67895
1.65238
1.63994
1.6332
1.62706
1.6133
1.59421
1.56831
1.53995
1.52431
1.5174
1.51466
1.52848
1.56793
1.63
1.71553
1.80339
1.89091
1.96524
2.01961
2.05538
2.07855
2.10332
2.10726
2.09811
2.09084
2.07753
2.06472
2.04039
1.99596
1.94364
1.90399
1.88448
1.87365
1.86631
1.86006
1.83348
3.47242
3.20205
2.93414
2.67154
2.45688
2.25959
2.067
1.90575
1.78388
1.66169
1.54619
1.44491
1.37774
1.31045
1.23226
1.16804
1.13511
1.08321
1.02419
0.994953
0.964068
0.918558
0.902908
0.891635
0.875727
0.863785
0.864515
0.864408
0.86659
0.879226
0.913004
0.966966
1.02381
1.06608
1.08849
1.10322
1.11156
1.10756
1.13028
1.28205
1.55429
1.80747
2.02568
2.06388
2.05623
2.04059
2.01498
1.96756
1.92049
1.87862
1.85962
1.85493
1.84582
1.82539
1.81095
1.79747
1.77788
1.74805
1.71315
1.68068
1.65626
1.64709
1.64067
1.62847
1.6116
1.59182
1.56771
1.54278
1.52129
1.5064
1.49888
1.4935
1.48385
1.47425
1.47269
1.4852
1.5194
1.57888
1.65502
1.74706
1.82823
1.8982
1.94989
1.98646
2.0259
2.04993
2.04867
2.0329
2.00587
1.97848
1.95021
1.9244
1.90021
1.88464
1.87994
1.86062
3.53509
3.28793
3.03805
2.80003
2.59486
2.40295
2.20693
2.05505
1.92275
1.79901
1.67608
1.5799
1.50059
1.42474
1.3446
1.28109
1.2379
1.18601
1.12093
1.08609
1.05578
1.00659
0.977172
0.961962
0.940056
0.904224
0.89336
0.882081
0.865472
0.859987
0.863668
0.880873
0.913608
0.959465
1.00162
1.0404
1.07857
1.12079
1.31605
1.7014
1.91524
2.0464
2.11746
2.11409
2.08687
2.04701
1.99534
1.95243
1.9182
1.88814
1.86224
1.84652
1.83423
1.81927
1.80226
1.78765
1.77315
1.75177
1.72444
1.69579
1.67004
1.65287
1.6405
1.62559
1.60735
1.5943
1.58447
1.56949
1.5422
1.5135
1.49391
1.48011
1.46802
1.45918
1.44863
1.44
1.43247
1.42455
1.41738
1.43307
1.47038
1.52868
1.61293
1.69826
1.77454
1.84748
1.92023
1.9547
1.96387
1.95972
1.94817
1.92678
1.90552
1.89301
1.88969
1.88356
3.59318
3.36464
3.13069
2.91077
2.71954
2.52888
2.33631
2.19056
2.05686
1.92669
1.79636
1.70858
1.61992
1.53647
1.45389
1.38946
1.33647
1.2788
1.21588
1.17693
1.14437
1.09333
1.05063
1.02582
0.997274
0.955166
0.930462
0.911972
0.887199
0.867079
0.866868
0.874824
0.879542
0.885746
0.906674
0.934991
1.00087
1.23662
1.66066
1.88988
1.99993
2.06825
2.09376
2.0767
2.03994
2.00443
1.98599
1.96527
1.94086
1.91313
1.88194
1.84729
1.82498
1.81283
1.7989
1.78408
1.76687
1.74902
1.73419
1.7149
1.68505
1.65321
1.633
1.6187
1.60815
1.60253
1.59995
1.58818
1.56861
1.53711
1.49458
1.46678
1.45638
1.44891
1.4415
1.43349
1.42464
1.41595
1.40993
1.39376
1.36763
1.34788
1.35484
1.38064
1.42602
1.48508
1.5587
1.64554
1.7232
1.79201
1.82103
1.83257
1.85729
1.8649
1.87154
1.87041
3.65504
3.43645
3.21335
3.00702
2.82457
2.63694
2.45797
2.3137
2.17793
2.03757
1.91823
1.83032
1.73551
1.64255
1.5528
1.49533
1.43343
1.37146
1.30382
1.26188
1.22479
1.1736
1.12968
1.104
1.07485
1.02731
0.995782
0.976424
0.950436
0.911052
0.9024
0.900412
0.888757
0.885824
0.892305
0.986526
1.24519
1.57432
1.81365
1.84345
1.89933
1.9467
1.94966
1.93011
1.92851
1.94278
1.95611
1.96288
1.95581
1.93355
1.90058
1.86163
1.82412
1.80576
1.79712
1.78258
1.76157
1.74724
1.74115
1.72866
1.70252
1.66174
1.6291
1.61475
1.6061
1.60555
1.605
1.59252
1.57419
1.54909
1.50339
1.4617
1.44809
1.43953
1.43525
1.43474
1.4263
1.41665
1.40824
1.3963
1.37724
1.348
1.3216
1.31153
1.3069
1.30653
1.31532
1.33722
1.37538
1.42998
1.49636
1.54549
1.58914
1.64436
1.68785
1.74664
3.71009
3.50285
3.29211
3.09853
2.92275
2.73836
2.57174
2.43227
2.29603
2.1462
2.03687
1.94217
1.84626
1.74609
1.66052
1.59369
1.52198
1.45598
1.39384
1.35066
1.30753
1.2511
1.19809
1.17006
1.14051
1.0953
1.06301
1.04152
1.01423
0.96781
0.94398
0.931047
0.908248
0.918055
1.02864
1.35306
1.61913
1.77529
1.80181
1.78462
1.76616
1.75563
1.75118
1.75763
1.77862
1.82213
1.86556
1.89917
1.91246
1.90142
1.88278
1.85648
1.82615
1.80137
1.78185
1.76875
1.75436
1.75228
1.75052
1.73679
1.71131
1.67614
1.63808
1.6129
1.60003
1.59158
1.58388
1.57392
1.56281
1.54719
1.51152
1.4621
1.4433
1.43528
1.43016
1.43313
1.43077
1.42135
1.41151
1.3999
1.38067
1.35375
1.33075
1.30986
1.29953
1.29538
1.29033
1.28322
1.27562
1.27255
1.27695
1.28194
1.29547
1.31979
1.35259
1.44215
3.77676
3.57991
3.38117
3.1936
3.01795
2.84075
2.68298
2.54515
2.40334
2.25614
2.14998
2.04991
1.95124
1.84169
1.76275
1.68956
1.61479
1.54269
1.47866
1.43246
1.38228
1.32738
1.27631
1.24398
1.20913
1.15452
1.12155
1.10394
1.08052
1.04096
1.01136
0.990308
1.0142
1.15176
1.49008
1.78458
1.85623
1.85831
1.82645
1.77116
1.74019
1.71439
1.68327
1.66282
1.65763
1.66273
1.69067
1.71925
1.75315
1.7791
1.7994
1.80949
1.79504
1.76945
1.75554
1.7458
1.74636
1.75755
1.75308
1.73776
1.7125
1.68131
1.65383
1.6299
1.60658
1.58765
1.56933
1.55466
1.54401
1.53224
1.51287
1.47281
1.44313
1.43493
1.43009
1.43206
1.43233
1.42258
1.41131
1.39487
1.36707
1.34597
1.33082
1.31713
1.31042
1.30301
1.29286
1.28005
1.26929
1.25916
1.2426
1.22572
1.21912
1.21588
1.21194
1.22291
3.85147
3.65344
3.46473
3.28594
3.10669
2.93172
2.78509
2.65004
2.50496
2.36365
2.25452
2.15104
2.04383
1.93876
1.86205
1.78128
1.70351
1.62036
1.56338
1.51406
1.46037
1.39827
1.34588
1.31305
1.2761
1.22537
1.1887
1.16555
1.13666
1.09917
1.07487
1.11137
1.30277
1.65599
1.93984
1.98582
1.9598
1.91442
1.85666
1.8072
1.76687
1.73141
1.69451
1.6707
1.65324
1.6482
1.63886
1.62767
1.62528
1.62628
1.63324
1.65635
1.67041
1.67971
1.69481
1.68664
1.68297
1.68563
1.684
1.68549
1.68401
1.67375
1.6601
1.64357
1.62214
1.59362
1.56543
1.54909
1.53679
1.52096
1.50281
1.47515
1.44592
1.4372
1.43321
1.43509
1.43331
1.42155
1.40784
1.39028
1.36172
1.32886
1.31705
1.31668
1.31572
1.30974
1.29865
1.28778
1.27629
1.26048
1.23953
1.21959
1.20124
1.19147
1.19076
1.18428
3.92345
3.72915
3.54613
3.37215
3.19743
3.02999
2.88393
2.74514
2.6015
2.47125
2.35966
2.24978
2.13513
2.03379
1.95575
1.87323
1.79428
1.70928
1.64921
1.59089
1.53405
1.47424
1.42493
1.38577
1.34242
1.28829
1.25458
1.22724
1.20153
1.17967
1.24446
1.53035
1.86913
2.1241
2.13237
2.08051
2.01365
1.96218
1.92603
1.88898
1.85256
1.81734
1.77597
1.73037
1.68982
1.65535
1.62564
1.60886
1.59717
1.58728
1.57988
1.57482
1.56098
1.54267
1.54366
1.55447
1.55161
1.55583
1.57079
1.58271
1.59225
1.60684
1.61532
1.6226
1.61501
1.59469
1.57247
1.55465
1.53364
1.5151
1.49162
1.46422
1.44501
1.43857
1.43466
1.43556
1.43015
1.41638
1.40172
1.3858
1.36151
1.32875
1.30361
1.29088
1.28877
1.29157
1.29398
1.28964
1.28095
1.2668
1.24727
1.22501
1.20255
1.18156
1.17069
1.167
3.99056
3.80766
3.63029
3.45488
3.28163
3.12901
2.98333
2.83814
2.69448
2.57609
2.45938
2.34434
2.2252
2.13353
2.04914
1.96191
1.8736
1.79237
1.73637
1.67302
1.61113
1.5428
1.49748
1.45504
1.40892
1.35979
1.31792
1.2861
1.29764
1.41158
1.78436
2.16202
2.31364
2.28688
2.21964
2.13923
2.07035
2.02969
2.00577
1.98049
1.94671
1.90173
1.84938
1.79381
1.74007
1.6919
1.65422
1.6291
1.60718
1.58556
1.56912
1.55596
1.5441
1.53462
1.51683
1.49276
1.46036
1.44256
1.44281
1.4454
1.45076
1.46873
1.49743
1.518
1.54173
1.55616
1.54823
1.5225
1.51602
1.5057
1.48915
1.47135
1.45217
1.44312
1.43847
1.42986
1.41634
1.40349
1.39406
1.38423
1.36911
1.34255
1.3077
1.2829
1.26838
1.26275
1.26032
1.26474
1.27262
1.26752
1.25699
1.24341
1.22156
1.19075
1.16562
1.15167
4.07884
3.89816
3.72442
3.54816
3.38267
3.23621
3.08966
2.93269
2.79433
2.68077
2.5618
2.44099
2.32057
2.23323
2.13926
2.05163
1.95886
1.88408
1.81987
1.75132
1.68651
1.62056
1.57678
1.52749
1.47268
1.42446
1.38626
1.42405
1.62462
2.04951
2.41814
2.50327
2.47073
2.37836
2.28423
2.20792
2.15281
2.12087
2.09131
2.05919
2.02141
1.97759
1.92986
1.87962
1.82622
1.77138
1.72509
1.68911
1.6574
1.62639
1.59865
1.57195
1.54754
1.53089
1.51761
1.50051
1.47553
1.44335
1.41107
1.38776
1.37412
1.37154
1.38294
1.38811
1.39515
1.41815
1.42878
1.4352
1.45098
1.46067
1.46284
1.4525
1.42985
1.40745
1.39624
1.38857
1.38276
1.3842
1.3891
1.384
1.37237
1.35328
1.3274
1.29255
1.26359
1.24395
1.23717
1.23538
1.23877
1.25439
1.25604
1.24767
1.23434
1.21103
1.17243
1.1417
4.17878
3.9933
3.81541
3.6408
3.47901
3.3304
3.18423
3.03009
2.89914
2.77743
2.65539
2.5234
2.41692
2.32889
2.23233
2.13668
2.03635
1.9716
1.90196
1.83377
1.7599
1.69738
1.65054
1.59334
1.54411
1.50224
1.55871
1.89287
2.32967
2.6765
2.68468
2.6217
2.53564
2.45003
2.37189
2.30307
2.24637
2.20397
2.16608
2.12718
2.08607
2.04226
1.99575
1.94741
1.89647
1.84319
1.79365
1.75114
1.71288
1.6746
1.63749
1.6041
1.57509
1.55098
1.53206
1.51451
1.49246
1.46114
1.42605
1.39514
1.37054
1.35662
1.34722
1.33511
1.32406
1.32271
1.32291
1.32177
1.32541
1.3409
1.36779
1.38594
1.38433
1.36732
1.34975
1.34414
1.33809
1.3337
1.33384
1.34179
1.34891
1.34704
1.33598
1.31165
1.27469
1.24163
1.22715
1.22339
1.22197
1.22726
1.24058
1.24021
1.23408
1.21787
1.1833
1.1394
4.22921
4.0946
3.90707
3.7296
3.57134
3.42316
3.27298
3.12185
2.9943
2.87158
2.75026
2.61735
2.51616
2.41897
2.32233
2.22145
2.12981
2.06194
1.98433
1.91309
1.83313
1.78117
1.72257
1.66775
1.64749
1.76649
2.19527
2.66978
2.87444
2.86136
2.78414
2.689
2.60078
2.53453
2.47606
2.41464
2.35033
2.29169
2.24016
2.19151
2.14466
2.09947
2.05487
2.00996
1.96284
1.91266
1.86197
1.81475
1.77346
1.73579
1.69934
1.66477
1.63285
1.60289
1.57354
1.54334
1.51341
1.4862
1.46117
1.43706
1.40726
1.36728
1.34464
1.32973
1.31531
1.30508
1.2959
1.28199
1.26803
1.26738
1.27423
1.27439
1.27495
1.27583
1.26758
1.25714
1.25868
1.26058
1.2644
1.27429
1.28962
1.30218
1.30447
1.29878
1.27645
1.24457
1.22948
1.22248
1.21807
1.2156
1.21659
1.21539
1.21112
1.20438
1.1882
1.14414
4.08278
4.16533
4.01638
3.83147
3.67162
3.51977
3.36248
3.22222
3.095
2.97174
2.83822
2.70977
2.61323
2.51445
2.41768
2.30455
2.22347
2.14831
2.06896
1.99118
1.90865
1.8556
1.79542
1.83033
2.06628
2.56856
3.03095
3.08261
3.02798
2.925
2.83969
2.76392
2.6962
2.63927
2.57657
2.50536
2.43434
2.37079
2.31414
2.26044
2.20797
2.15802
2.11148
2.06763
2.02417
1.97826
1.92767
1.87245
1.81866
1.77425
1.7398
1.71141
1.68564
1.66012
1.632
1.59956
1.56131
1.51689
1.4795
1.45626
1.43155
1.39878
1.37723
1.36086
1.33759
1.31061
1.29154
1.27611
1.25885
1.2482
1.24334
1.23575
1.22571
1.21616
1.20165
1.17762
1.16841
1.16576
1.16695
1.17838
1.19955
1.22377
1.23611
1.23793
1.23024
1.21921
1.21661
1.20751
1.19847
1.19724
1.1995
1.19649
1.19036
1.17982
1.16629
1.13961
3.17412
4.07355
4.09267
3.94689
3.77007
3.61284
3.46444
3.3257
3.19201
3.06325
2.93577
2.81977
2.71144
2.60653
2.49574
2.39278
2.31848
2.23777
2.16134
2.05754
1.98631
1.9374
2.02543
2.42327
3.03674
3.36858
3.34866
3.26108
3.12488
3.00151
2.91831
2.85737
2.7988
2.7377
2.66618
2.58731
2.51231
2.44711
2.38969
2.33461
2.27777
2.2196
2.16486
2.1173
2.0751
2.0338
1.98855
1.93656
1.88231
1.83344
1.79184
1.75519
1.72204
1.69468
1.67051
1.64296
1.61118
1.57571
1.53941
1.50761
1.47349
1.43556
1.40504
1.38285
1.36259
1.34153
1.32176
1.3012
1.27249
1.25056
1.23977
1.22758
1.21195
1.19302
1.17605
1.16069
1.14695
1.12813
1.11171
1.1096
1.11299
1.12821
1.13923
1.14136
1.13867
1.12862
1.12897
1.13454
1.14126
1.15392
1.16643
1.16908
1.16728
1.15869
1.1401
1.11963
1.8719
3.38963
4.05907
4.0354
3.88652
3.71164
3.55735
3.4227
3.29689
3.16632
3.02738
2.91169
2.81051
2.70528
2.58834
2.48389
2.40206
2.3215
2.24001
2.14955
2.11039
2.28589
2.85484
3.44985
3.69414
3.61694
3.4652
3.32134
3.2084
3.10742
3.0205
2.95162
2.88673
2.8191
2.74614
2.66792
2.58966
2.51964
2.4602
2.40594
2.3505
2.29115
2.23067
2.17463
2.12412
2.07619
2.02729
1.97568
1.92626
1.88509
1.85154
1.82252
1.79292
1.75765
1.71273
1.6629
1.62561
1.60004
1.57528
1.55245
1.52905
1.50217
1.46996
1.43006
1.38756
1.35618
1.33777
1.3231
1.30692
1.28942
1.26982
1.24464
1.21826
1.19223
1.16697
1.14808
1.13318
1.1203
1.10477
1.09599
1.09166
1.08815
1.08305
1.07607
1.0633
1.04264
1.03326
1.035
1.04256
1.05681
1.08009
1.1074
1.11836
1.11654
1.0995
1.08303
1.42996
2.05827
3.52538
4.01998
3.99236
3.83882
3.66494
3.52757
3.3952
3.25911
3.12609
3.01672
2.91225
2.79625
2.67533
2.58026
2.49388
2.41354
2.3117
2.35203
2.70529
3.37798
3.86616
3.97075
3.88985
3.73308
3.57184
3.43525
3.30222
3.2057
3.12231
3.04761
2.9752
2.89985
2.82378
2.74686
2.67045
2.59699
2.52701
2.46158
2.40098
2.3444
2.29157
2.24229
2.19439
2.14417
2.08815
2.02558
1.9644
1.91635
1.88131
1.8537
1.82964
1.80414
1.76924
1.7244
1.67769
1.6371
1.59844
1.56429
1.54692
1.53357
1.51281
1.48178
1.44412
1.40093
1.36097
1.33212
1.31754
1.31018
1.29998
1.27742
1.24623
1.21053
1.17405
1.14917
1.13039
1.11272
1.10011
1.09215
1.08704
1.08156
1.07519
1.06618
1.04636
1.01063
0.985484
0.98123
0.98144
0.983255
0.989548
1.00501
1.01712
1.01891
1.01398
1.01668
1.40038
1.45771
2.21632
3.5999
3.98115
3.95013
3.79486
3.63299
3.49257
3.35952
3.23456
3.11307
3.00424
2.89196
2.78621
2.67266
2.58108
2.51315
2.64176
3.2283
3.96519
4.26419
4.22471
4.10907
3.96558
3.81752
3.68729
3.56302
3.431
3.31581
3.22476
3.14745
3.07179
2.98909
2.90164
2.81646
2.73992
2.67138
2.60366
2.53302
2.46182
2.3965
2.34083
2.29175
2.24447
2.19528
2.14344
2.09055
2.0373
1.98445
1.93371
1.88683
1.84349
1.80724
1.78574
1.76192
1.72489
1.68926
1.65704
1.62118
1.58263
1.54763
1.52054
1.49801
1.47225
1.43815
1.40176
1.37296
1.3466
1.31763
1.30097
1.29354
1.27924
1.24578
1.19473
1.15612
1.14628
1.13829
1.1268
1.11497
1.10322
1.09144
1.07972
1.06532
1.04342
1.00651
0.976793
0.966594
0.961821
0.957429
0.953746
0.951713
0.948911
0.942925
0.930622
0.926695
1.40001
1.401
1.48957
2.34001
3.6338
3.94113
3.90745
3.76334
3.59831
3.45416
3.33176
3.21863
3.10484
2.99469
2.87179
2.7699
2.74895
3.04107
3.81046
4.52369
4.72917
4.59493
4.38061
4.20784
4.04818
3.9146
3.79431
3.6653
3.53777
3.4275
3.33321
3.24782
3.16311
3.0739
2.98137
2.893
2.81572
2.74616
2.67599
2.60228
2.52859
2.46117
2.40169
2.34608
2.2901
2.23178
2.17547
2.129
2.08742
2.04124
1.98937
1.93736
1.89018
1.84472
1.80105
1.76473
1.73647
1.71383
1.69006
1.65988
1.62217
1.5834
1.54318
1.50105
1.46421
1.43944
1.42207
1.40143
1.37436
1.34674
1.32392
1.30162
1.27628
1.25175
1.22643
1.19425
1.15932
1.13447
1.1189
1.10578
1.09316
1.08062
1.06782
1.05415
1.03767
1.01257
0.981322
0.964961
0.958171
0.952328
0.946071
0.938619
0.930281
0.920376
0.905496
0.885157
1.40001
1.40001
1.40195
1.52106
2.43087
3.61941
3.90341
3.87752
3.73124
3.56311
3.44084
3.31814
3.19956
3.09894
2.9582
3.01678
3.55242
4.54539
5.03864
4.98399
4.8438
4.628
4.46317
4.31722
4.17159
4.03638
3.90059
3.76097
3.63714
3.53117
3.43404
3.33751
3.23831
3.13946
3.04545
2.96205
2.88982
2.82085
2.74769
2.67014
2.5939
2.52426
2.46091
2.39977
2.3379
2.27728
2.21912
2.16507
2.12182
2.07912
2.02523
1.97021
1.92137
1.8752
1.83076
1.79686
1.76593
1.72891
1.69024
1.65744
1.63283
1.59887
1.55596
1.51931
1.49101
1.46352
1.43142
1.39856
1.37626
1.36142
1.34304
1.3157
1.29121
1.27057
1.2408
1.20191
1.16653
1.14346
1.12783
1.11415
1.1013
1.08912
1.07652
1.06238
1.04546
1.02575
0.999359
0.973045
0.960502
0.953799
0.946904
0.9367
0.926496
0.915404
0.901281
0.877207
1.40001
1.40001
1.40001
1.40312
1.54793
2.4621
3.59525
3.87858
3.85
3.70035
3.55259
3.416
3.30162
3.18221
3.34102
4.24435
5.19211
5.61511
5.51616
5.22408
4.93155
4.69726
4.55662
4.43602
4.30864
4.16744
4.01404
3.86456
3.73738
3.62904
3.52658
3.42174
3.31317
3.20682
3.11169
3.03101
2.9591
2.88711
2.80825
2.72428
2.64545
2.57568
2.50959
2.44345
2.37793
2.31858
2.2647
2.20925
2.15407
2.11108
2.07564
2.02376
1.96446
1.91267
1.86461
1.82134
1.78553
1.75385
1.72279
1.68337
1.64481
1.62364
1.6007
1.57087
1.53562
1.49637
1.45931
1.43012
1.40094
1.36576
1.34797
1.33873
1.32638
1.30524
1.26848
1.22334
1.19158
1.17386
1.16071
1.14866
1.13713
1.12551
1.11274
1.09791
1.07885
1.04578
0.993712
0.963674
0.955565
0.950634
0.947993
0.94511
0.937213
0.926886
0.913095
0.877894
1.40001
1.40001
1.40001
1.40002
1.4042
1.56322
2.45669
3.5887
3.83107
3.79981
3.68287
3.52053
3.40218
3.7537
4.99882
6.00251
5.9597
5.81018
5.58052
5.34392
5.09923
4.87975
4.70116
4.55536
4.41647
4.2715
4.12269
3.97903
3.84684
3.72657
3.61138