/*--------------------------------*- C++ -*----------------------------------*\
  =========                 |
  \\      /  F ield         | OpenFOAM: The Open Source CFD Toolbox
   \\    /   O peration     | Website:  https://openfoam.org
    \\  /    A nd           | Version:  7
     \\/     M anipulation  |
\*---------------------------------------------------------------------------*/
FoamFile
{
    version     2.0;
    format      ascii;
    class       volScalarField;
    location    "1.5";
    object      T;
}
// * * * * * * * * * * * * * * * * * * * * * * * * * * * * * * * * * * * * * //

dimensions      [0 0 0 1 0 0 0];

internalField   nonuniform List<scalar> 
4032
(
1
1
1
1
1
1
1
1
1
1
1
1
1.73201
2.66682
2.77138
2.77129
2.77714
2.77978
2.78462
2.79835
2.82549
2.86091
2.89348
2.90905
1
1
1
1
1
1
1
1
1
1
1
1
1.70785
2.65557
2.77026
2.77036
2.77552
2.77795
2.78269
2.79641
2.82328
2.85797
2.88959
2.90467
1
1
1
1
1
1
1
1
1
1
1
1
1.6305
2.62474
2.76479
2.76541
2.77072
2.77346
2.77852
2.79248
2.81921
2.85358
2.88455
2.89967
1
1
1
1
1
1
1
1
1
1
1
1
1.52463
2.57954
2.75536
2.7575
2.76364
2.7668
2.77217
2.78623
2.81277
2.84664
2.87681
2.89107
1
1
1
1
1
1
1
1
1
1
1
1
1.37414
2.50606
2.73932
2.74533
2.75361
2.75762
2.76321
2.77648
2.80125
2.83365
2.86296
2.87828
1
1
1
1
1
1
1
1
1
1
1
1
1.17343
2.40336
2.71921
2.73
2.74107
2.74576
2.75134
2.76361
2.78623
2.81727
2.84322
2.85028
1
1
1
1
1
1
1
1
1
1
1
1
1.00981
2.28818
2.69943
2.71025
2.7207
2.72661
2.73291
2.74356
2.75983
2.78264
2.80346
2.81064
1
1
1
1
1
1
1
1
1
1
1
1
1.00005
2.12968
2.67866
2.69535
2.70257
2.70873
2.71482
2.72185
2.73124
2.74889
2.7736
2.80193
1
1
1
1
1
1
1
1
1
1
1
1
1
1.89503
2.62494
2.67736
2.68538
2.69122
2.69547
2.6984
2.69862
2.69665
2.66931
2.58862
1
1
1
1
1
1
1
1
1
1
1
1
1
1.53913
2.50451
2.65049
2.6623
2.66981
2.67159
2.66993
2.66153
2.63831
2.59604
2.45057
1
1
1
1
1
1
1
1
1
1
1
1
1
1.09303
2.33665
2.63759
2.63296
2.63736
2.63849
2.63391
2.62066
2.5872
2.53221
2.36044
1
1
1
1
1
1
1
1
1
1
1
1
1
1.00193
2.13655
2.57462
2.59671
2.60136
2.60027
2.59348
2.57694
2.54376
2.47452
2.32018
1
1
1
1
1
1
1
1
1
1
1
1
1
0.999993
1.71894
2.46626
2.57294
2.57788
2.57387
2.56276
2.53987
2.50363
2.42859
2.3157
1
1
1
1
1
1
1
1
1
1
1
1
1
0.999998
1.14222
2.28497
2.55333
2.55021
2.54597
2.53136
2.50582
2.46352
2.39468
2.30704
1
1
1
1
1
1
1
1
1
1
1
1
1
1
1.00496
2.05288
2.48924
2.5158
2.51276
2.49809
2.47331
2.42978
2.36948
2.29802
1
1
1
1
1
1
1
1
1
1
1
1
1
1
0.999986
1.52486
2.35484
2.49144
2.48104
2.46619
2.4417
2.40206
2.349
2.28665
1
1
1
1
1
1
1
1
1
1
1
1
1
1
0.999996
1.06628
2.15179
2.45317
2.43911
2.42914
2.40802
2.37458
2.32984
2.27566
1
1
1
1
1
1
1
1
1
1
1
1
1
1
0.999999
1.0008
1.68766
2.32698
2.41602
2.39816
2.377
2.34668
2.3091
2.26353
1
1
1
1
1
1
1
1
1
1
1
1
1
1
1
1
1.12921
2.1256
2.3875
2.36619
2.34767
2.32035
2.28797
2.24949
1
1
1
1
1
1
1
1
1
1
1
1
1
1
1
1
1.00324
1.66456
2.25667
2.34038
2.3182
2.2944
2.26745
2.23485
1
1
1
1
1
1
1
1
1
1
1
1
1
1
1
1
1.00001
1.12582
2.04015
2.31589
2.292
2.27054
2.24544
2.21679
1
1
1
1
1
1
1
1
1
1
1
1
1
1
1
1
1
1.00309
1.50674
2.14781
2.26866
2.24405
2.22257
2.19861
1
1
1
1
1
1
1
1
1
1
1
1
1
1
1
1
1
1.00001
1.06859
1.87137
2.23372
2.22062
2.20226
2.18115
1
1
1
1
1
1
1
1
1
1
1
1
1
1
1
1
1
1
1.00107
1.31217
2.03504
2.20056
2.17606
2.15765
1
1
1
1
1
1
1
1
1
1
1
1
1
1
1
1
1
1
1
1.02213
1.60674
2.079
2.15994
2.13632
1
1
1
1
1
1
1
1
1
1
1
1
1
1
1
1
1
1
1
1.00022
1.11686
1.80789
2.11601
2.11561
1
1
1
1
1
1
1
1
1
1
1
1
1
1
1
1
1
1
1
1
1.00314
1.29119
1.91013
2.08973
1
1
1
1
1
1
1
1
1
1
1
1
1
1
1
1
1
1
1
1
1.00002
1.02031
1.46064
1.94858
1
1
1
1
1
1
1
1
1
1
1
1
1
1
1
1
1
1
1
1
1
1.00022
1.06323
1.59376
1
1
1
1
1
1
1
1
1
1
1
1
1
1
1
1
1
1
1
1
1
1
1.00125
1.13304
1
1
1
1
1
1
1
1
1
1
1
1
1
1
1
1
1
1
1
1
1
1
1.00001
1.00457
1
1
1
1
1
1
1
1
1
1
1
1
1
1
1
1
1
1
1
1
1
1
1
1.00003
1
1
1
1
1
1
1
1
1
1
1
1
1
1
1
1
1
1
1
1
1
1
1
1
1
1
1
1
1
1
1
1
1
1
1
1
1
1
1
1
1
1
1
1
1
1
1
1
1
1
1
1
1
1
1
1
1
1
1
1
1
1
1
1
1
1
1
1
1
1
1
1
1
1
1
1
1
1
1
1
1
1
1
1
1
1
1
1
1
1
1
1
1
1
1
1
1
1
1
1
1
1
1
1
1
1
1
1
1
1
1
1
1
1
1
1
1
1
1
1
1
1
1
1
1
1
1
1
1
1
1
1
1
1
1
1
1
1
1
1
1
1
1
1
1
1
1
1
1
1
1
1
1
1
1
1
1
1
1
1
1
1
1
1
1
1
1
1
1
1
1
1
1
1
1
1
1
1
1
1
1
1
1
1
1
1
1
1
1
1
1
1
1.74949
1.1315
1.07033
1.1374
1.21621
1.30492
1.43185
1.48696
1.54457
1.6195
1.72081
1.7781
1.77241
1.76647
1.77046
1.78682
1.79183
1.78067
1.7506
1.74138
1.75096
1.77397
1.78338
1.77946
1.76034
1.73415
1.72428
1.72594
1.73559
1.74617
1.74905
1.74708
1.73791
1.72649
1.72247
1.72277
1.7277
1.734
1.7358
1.73531
1.73136
1.72609
1.72173
1.71827
1.71738
1.71668
1.71479
1.71089
1.70468
1.69853
1.70989
1.7686
1.90677
2.07206
2.24625
2.37051
2.45992
2.51398
2.54753
2.55428
2.54336
2.52088
2.49305
2.46626
2.44233
2.42323
2.40933
2.39742
2.38583
2.37397
2.3622
2.34885
2.32897
2.30279
2.28484
2.27426
2.26711
2.26214
2.25251
2.24004
2.22439
2.20016
2.16888
2.14743
2.13461
2.12446
2.11971
2.12008
2.11843
2.11249
2.10458
2.09093
2.06608
2.04297
2.03872
2.03569
2.012
1.66238
1.46867
1.42553
1.38476
1.36546
1.3425
1.30942
1.32501
1.37199
1.42554
1.47813
1.53412
1.57306
1.60749
1.64211
1.66224
1.66152
1.65723
1.66034
1.67428
1.69937
1.71646
1.71571
1.70565
1.69127
1.68676
1.68791
1.69622
1.7059
1.71171
1.71108
1.70507
1.69617
1.69361
1.69428
1.69832
1.70632
1.70888
1.70868
1.70736
1.704
1.70191
1.70042
1.69919
1.69697
1.69324
1.68775
1.69352
1.72275
1.80645
1.92455
1.99005
2.03515
2.06025
2.11192
2.16783
2.2204
2.26021
2.29921
2.33965
2.36594
2.38088
2.3844
2.38011
2.37083
2.36356
2.35688
2.3475
2.33669
2.3263
2.31515
2.29765
2.27326
2.25271
2.24182
2.23396
2.22635
2.21736
2.20726
2.19487
2.17556
2.14781
2.12308
2.10895
2.10001
2.09429
2.09125
2.08908
2.08533
2.07936
2.07059
2.05864
2.04192
2.02685
2.01922
2.09122
1.89363
1.72144
1.61526
1.51162
1.42201
1.36692
1.33516
1.29658
1.30123
1.31365
1.33704
1.37314
1.40368
1.4332
1.4627
1.48702
1.50839
1.53368
1.55586
1.57312
1.5921
1.61229
1.6216
1.62016
1.61804
1.61667
1.61639
1.61682
1.62133
1.62919
1.63197
1.63031
1.62759
1.62766
1.62977
1.63639
1.64596
1.65145
1.65172
1.65075
1.64874
1.64717
1.64567
1.64413
1.64148
1.64565
1.66297
1.72691
1.84076
1.92849
1.98279
1.99099
1.97711
1.94485
1.91405
1.90995
1.92879
1.97691
2.04484
2.11501
2.17218
2.21008
2.23259
2.25232
2.25842
2.26527
2.27117
2.26758
2.26
2.24987
2.2342
2.21308
2.18962
2.1705
2.15758
2.14902
2.14159
2.13508
2.12803
2.1186
2.10696
2.0938
2.07594
2.05604
2.04378
2.03603
2.0297
2.02271
2.01638
2.01085
2.00628
2.00387
2.00057
1.99318
1.97575
2.13789
1.98415
1.85536
1.74867
1.6502
1.55475
1.48894
1.44347
1.38849
1.36542
1.347
1.32186
1.3122
1.31668
1.32741
1.34331
1.36597
1.39186
1.42501
1.45335
1.46718
1.47658
1.4937
1.5165
1.52858
1.54269
1.55314
1.55591
1.55779
1.5595
1.55928
1.5579
1.555
1.5545
1.55546
1.55895
1.56505
1.57366
1.58187
1.58468
1.58432
1.58319
1.58189
1.57957
1.58219
1.59234
1.63308
1.7326
1.84788
1.92019
1.95703
1.94463
1.92775
1.904
1.88259
1.86779
1.85667
1.84212
1.83431
1.84517
1.87635
1.9301
1.99028
2.04505
2.0923
2.119
2.13023
2.1383
2.13988
2.14694
2.14984
2.14638
2.13733
2.12226
2.10581
2.08974
2.07543
2.06581
2.0597
2.05375
2.04428
2.03304
2.0232
2.01157
1.99285
1.96977
1.9572
1.94995
1.94113
1.9326
1.92815
1.92615
1.9254
1.92547
1.92426
1.91268
2.18522
2.05407
1.94283
1.84363
1.74454
1.66446
1.60428
1.54831
1.48978
1.44298
1.40398
1.37024
1.33026
1.31546
1.31439
1.3201
1.32433
1.33178
1.349
1.37162
1.38864
1.39837
1.41579
1.44573
1.46236
1.47728
1.49538
1.50571
1.50986
1.51336
1.51464
1.51586
1.51629
1.51595
1.51617
1.51746
1.51976
1.52389
1.52875
1.5319
1.5316
1.53048
1.53159
1.53799
1.56199
1.62977
1.75371
1.86714
1.92756
1.91892
1.90946
1.89807
1.89113
1.88134
1.8701
1.85538
1.83915
1.82363
1.81063
1.80204
1.79696
1.79568
1.80729
1.83546
1.88192
1.93552
1.97251
2.00379
2.0212
2.03865
2.05661
2.0599
2.05803
2.05468
2.04836
2.03777
2.02372
2.01351
2.00814
2.00264
1.99431
1.9822
1.96891
1.95547
1.93911
1.91793
1.89448
1.87856
1.86777
1.85993
1.85635
1.85705
1.85572
1.85572
1.8562
1.85267
2.20661
2.1014
2.00255
1.91155
1.82377
1.74718
1.68396
1.62424
1.56987
1.52864
1.48369
1.44849
1.41459
1.3741
1.35379
1.34384
1.33104
1.32585
1.32076
1.31492
1.31519
1.31983
1.33305
1.3633
1.39866
1.42236
1.44984
1.47339
1.47904
1.48162
1.48474
1.48747
1.48979
1.49395
1.49772
1.50106
1.50244
1.50349
1.5035
1.50344
1.5017
1.50316
1.51279
1.56052
1.67561
1.79557
1.89638
1.9152
1.91248
1.90566
1.90097
1.89205
1.87949
1.86721
1.8558
1.84367
1.82975
1.81488
1.80357
1.79335
1.78182
1.77296
1.76341
1.75391
1.74717
1.75746
1.77669
1.80823
1.85423
1.89359
1.93115
1.96735
1.98761
2.00028
1.99692
1.99224
1.97919
1.96894
1.96569
1.9626
1.96252
1.95595
1.94532
1.93213
1.91497
1.89405
1.86936
1.84462
1.82764
1.81966
1.81411
1.80977
1.8079
1.80738
1.80602
1.80134
2.21525
2.13025
2.04819
1.96361
1.88264
1.816
1.75165
1.69292
1.63787
1.59613
1.5514
1.50611
1.47924
1.4482
1.40807
1.38639
1.36428
1.33313
1.31931
1.31068
1.30503
1.30506
1.30741
1.31464
1.33081
1.35229
1.37904
1.41431
1.44237
1.45421
1.46319
1.47118
1.47444
1.47724
1.48296
1.48816
1.48871
1.48855
1.48874
1.48872
1.49059
1.50677
1.58602
1.73652
1.8503
1.89786
1.91797
1.91943
1.91648
1.90119
1.88518
1.87416
1.86367
1.85505
1.84599
1.83698
1.827
1.81292
1.79609
1.77886
1.76402
1.7525
1.74188
1.73146
1.72088
1.70842
1.69321
1.67864
1.68325
1.702
1.73697
1.78881
1.84395
1.89228
1.91466
1.92823
1.93479
1.93218
1.92247
1.91448
1.91272
1.91455
1.91379
1.90657
1.89484
1.87915
1.85978
1.83863
1.81698
1.80001
1.7896
1.78223
1.77784
1.77525
1.77109
1.7628
2.21488
2.14559
2.07458
1.99708
1.93063
1.86869
1.80774
1.74659
1.70158
1.65459
1.61026
1.56255
1.53284
1.50526
1.46472
1.43768
1.42066
1.38652
1.35992
1.34742
1.32998
1.31391
1.31328
1.31239
1.30816
1.31026
1.31706
1.33276
1.36146
1.39325
1.41992
1.44374
1.46097
1.46632
1.47227
1.47655
1.47729
1.47596
1.47684
1.48504
1.52776
1.63326
1.79208
1.88051
1.91126
1.9257
1.9222
1.90997
1.89487
1.87673
1.86696
1.86191
1.85425
1.84718
1.84091
1.83193
1.81802
1.7989
1.77833
1.75874
1.74254
1.73086
1.72119
1.71184
1.69912
1.68465
1.66801
1.65072
1.63894
1.63245
1.62821
1.63449
1.65455
1.68768
1.73093
1.76885
1.80235
1.82576
1.8395
1.84803
1.85438
1.86395
1.86555
1.86223
1.85871
1.85155
1.84326
1.83074
1.8118
1.79075
1.77397
1.76461
1.75861
1.75373
1.74908
1.73716
2.21414
2.15449
2.0914
2.02451
1.96729
1.91066
1.84991
1.79507
1.75246
1.70622
1.65922
1.61534
1.5858
1.55407
1.51554
1.48205
1.46368
1.43491
1.40239
1.38564
1.36748
1.34023
1.33072
1.32442
1.31476
1.30871
1.30983
1.31113
1.31363
1.3232
1.34554
1.37853
1.41216
1.43851
1.45305
1.46156
1.46637
1.46484
1.47906
1.57685
1.72496
1.83338
1.92244
1.92713
1.92214
1.91548
1.90618
1.8888
1.87342
1.85989
1.8527
1.85066
1.84572
1.83467
1.82364
1.8109
1.79451
1.77476
1.75463
1.73616
1.72036
1.70932
1.69896
1.68579
1.67146
1.65748
1.64287
1.62836
1.6152
1.60509
1.59878
1.59362
1.58704
1.58139
1.58075
1.58651
1.60252
1.62829
1.65699
1.69055
1.71872
1.74375
1.76332
1.77866
1.79559
1.79943
1.79811
1.79078
1.77904
1.76777
1.75701
1.74655
1.73576
1.72718
1.72345
1.71352
2.21143
2.15898
2.10236
2.04503
1.99331
1.94123
1.88272
1.8352
1.79162
1.74761
1.70055
1.66209
1.6293
1.5955
1.55763
1.52688
1.50566
1.4795
1.44599
1.42778
1.41108
1.38341
1.36764
1.36001
1.34799
1.32726
1.32271
1.31733
1.30911
1.30811
1.31063
1.32177
1.34262
1.37209
1.39775
1.4189
1.43932
1.46335
1.58139
1.78784
1.87479
1.92281
1.94388
1.9405
1.92729
1.91052
1.89054
1.87509
1.86403
1.85273
1.83977
1.82952
1.82086
1.80982
1.79581
1.7812
1.76614
1.74893
1.73072
1.71312
1.69693
1.68328
1.67072
1.65674
1.64193
1.6305
1.62146
1.61085
1.59626
1.58167
1.57075
1.56218
1.55439
1.54773
1.53988
1.5326
1.5257
1.5185
1.50815
1.51262
1.52645
1.55122
1.58817
1.62447
1.65505
1.682
1.70816
1.71476
1.71515
1.715
1.71203
1.7045
1.69513
1.68715
1.68397
1.68144
2.20605
2.16066
2.11053
2.06038
2.01458
1.96499
1.91036
1.86779
1.82611
1.78251
1.73525
1.70261
1.66763
1.6325
1.59608
1.56738
1.54347
1.516
1.48526
1.46671
1.45086
1.42486
1.40338
1.39138
1.37678
1.35385
1.34125
1.33179
1.3185
1.308
1.30818
1.31337
1.31662
1.32012
1.33268
1.35087
1.39485
1.54138
1.76174
1.86044
1.90031
1.91561
1.91744
1.90794
1.88988
1.87498
1.86859
1.86306
1.85385
1.84047
1.82372
1.80452
1.78915
1.77744
1.76458
1.75042
1.73456
1.71853
1.70482
1.69017
1.67213
1.65316
1.6386
1.62644
1.61577
1.60723
1.60055
1.59055
1.57852
1.56287
1.54379
1.53027
1.5234
1.51704
1.50978
1.50171
1.49316
1.48478
1.47722
1.46434
1.44708
1.43294
1.43577
1.4479
1.46924
1.49669
1.52881
1.56216
1.58712
1.60867
1.617
1.62058
1.63008
1.63004
1.62836
1.62823
2.19794
2.15834
2.11329
2.06878
2.02709
1.98038
1.93254
1.89251
1.85212
1.80706
1.7664
1.73561
1.70011
1.66349
1.62633
1.60286
1.57678
1.54964
1.51881
1.50032
1.48359
1.4593
1.43883
1.42761
1.41399
1.38975
1.37407
1.36427
1.35027
1.32814
1.32338
1.32248
1.31621
1.31437
1.31916
1.38739
1.55005
1.71819
1.82083
1.81769
1.83161
1.83844
1.8354
1.8231
1.82163
1.82703
1.8332
1.83408
1.83016
1.81861
1.801
1.77892
1.75544
1.73953
1.72936
1.71714
1.70244
1.68977
1.67977
1.66702
1.64956
1.62761
1.60845
1.59701
1.58822
1.58195
1.57577
1.56512
1.55379
1.54069
1.52051
1.50248
1.49478
1.48817
1.48209
1.47709
1.46775
1.45818
1.44996
1.44039
1.42748
1.41026
1.39514
1.38742
1.38315
1.38171
1.38589
1.39598
1.41243
1.43436
1.45888
1.47535
1.48982
1.50917
1.51995
1.54087
2.1849
2.15089
2.11163
2.07251
2.03448
1.99105
1.94942
1.9129
1.87443
1.82821
1.79316
1.7615
1.72763
1.6906
1.65797
1.63249
1.60394
1.57666
1.55049
1.53326
1.51553
1.49073
1.46697
1.45523
1.44201
1.42021
1.40498
1.39456
1.38047
1.35532
1.34152
1.33362
1.3199
1.32765
1.4109
1.61335
1.72891
1.78464
1.78192
1.76711
1.75164
1.7377
1.729
1.73097
1.73986
1.75859
1.77724
1.78263
1.78191
1.77362
1.75982
1.74148
1.72084
1.70269
1.68767
1.67684
1.66872
1.66416
1.65817
1.64512
1.62703
1.60627
1.58522
1.56929
1.55869
1.55018
1.54142
1.53218
1.52378
1.51445
1.49829
1.4775
1.46761
1.46117
1.45533
1.45323
1.44736
1.43634
1.42649
1.41754
1.40605
1.39137
1.37766
1.36536
1.35797
1.35349
1.3491
1.34466
1.34071
1.33828
1.33798
1.33708
1.3389
1.34516
1.35615
1.39493
2.17127
2.14148
2.10778
2.07238
2.03658
1.99792
1.96127
1.92717
1.88889
1.84582
1.81396
1.78241
1.74985
1.71154
1.68367
1.65734
1.62953
1.60203
1.57728
1.56024
1.54058
1.51798
1.49686
1.48409
1.46924
1.44369
1.4284
1.42017
1.40842
1.38779
1.37176
1.35968
1.37459
1.46369
1.67231
1.79626
1.80018
1.79089
1.76857
1.74173
1.72295
1.70477
1.68615
1.67457
1.67004
1.67142
1.68114
1.68835
1.69654
1.69884
1.69751
1.69313
1.67793
1.66028
1.64771
1.63831
1.63477
1.63464
1.6296
1.61775
1.60175
1.5839
1.56662
1.55072
1.53585
1.52276
1.51033
1.5004
1.49285
1.48539
1.47545
1.45788
1.44348
1.43708
1.43169
1.42911
1.42459
1.41356
1.40288
1.3919
1.37783
1.36612
1.35662
1.34791
1.34167
1.33518
1.32789
1.32054
1.31495
1.30994
1.30243
1.29343
1.28594
1.27859
1.26995
1.27062
2.15613
2.128
2.09868
2.06816
2.03424
1.99729
1.9654
1.93428
1.89772
1.85945
1.8291
1.79864
1.76521
1.73083
1.70584
1.67856
1.65158
1.6213
1.60143
1.58441
1.56485
1.54065
1.52006
1.50772
1.49258
1.47028
1.45384
1.4431
1.42865
1.40944
1.39758
1.42221
1.5375
1.71947
1.8533
1.8422
1.81622
1.78687
1.75852
1.73475
1.71498
1.69757
1.67925
1.664
1.65225
1.64321
1.63324
1.62362
1.61666
1.60982
1.60443
1.60735
1.60669
1.60293
1.60035
1.59171
1.58503
1.58112
1.57586
1.57183
1.56548
1.55481
1.54455
1.53343
1.51877
1.50078
1.4844
1.47401
1.46592
1.45729
1.44846
1.43603
1.4219
1.41495
1.41006
1.40725
1.40183
1.39105
1.37983
1.36785
1.35258
1.33667
1.3289
1.32594
1.32287
1.31736
1.30929
1.3014
1.29456
1.28739
1.27913
1.27071
1.26072
1.25187
1.24613
1.23471
2.13623
2.1112
2.08538
2.05843
2.02815
1.99583
1.96555
1.93479
1.90137
1.86964
1.84107
1.8108
1.77723
1.74658
1.72319
1.69717
1.6717
1.64291
1.62336
1.60379
1.58391
1.56206
1.54427
1.53
1.51286
1.48965
1.47506
1.46273
1.45059
1.44202
1.48625
1.65004
1.79268
1.88828
1.88038
1.85013
1.81258
1.78188
1.75944
1.7399
1.72269
1.70585
1.68553
1.66242
1.63991
1.62021
1.6035
1.59178
1.58089
1.56947
1.5598
1.5513
1.53971
1.52596
1.51996
1.51837
1.51128
1.50945
1.50928
1.50861
1.50723
1.50621
1.50469
1.50316
1.49355
1.47862
1.46359
1.4506
1.43845
1.42921
1.41937
1.40839
1.39869
1.39279
1.38827
1.38538
1.37913
1.36925
1.35826
1.34608
1.33107
1.31404
1.30099
1.29386
1.29083
1.28937
1.28688
1.28091
1.27474
1.26738
1.25928
1.25092
1.24136
1.23005
1.22121
1.21145
2.11382
2.09229
2.06989
2.04514
2.01734
1.99107
1.96355
1.93406
1.90273
1.87635
1.84826
1.81896
1.7867
1.76201
1.73852
1.71282
1.68557
1.6598
1.64303
1.6226
1.6021
1.57792
1.56274
1.54773
1.53006
1.51009
1.49297
1.4788
1.48627
1.55619
1.76038
1.89901
1.92865
1.91298
1.8803
1.84268
1.80922
1.78414
1.76542
1.74847
1.73087
1.71086
1.68787
1.66208
1.6362
1.61258
1.59291
1.57746
1.56293
1.54859
1.5354
1.52282
1.5114
1.5028
1.4913
1.47654
1.4575
1.44244
1.43342
1.42972
1.42898
1.4325
1.44114
1.44342
1.44501
1.4443
1.43436
1.41618
1.40831
1.40112
1.39325
1.3851
1.37575
1.36959
1.36509
1.3591
1.35188
1.34523
1.33804
1.32844
1.31579
1.29951
1.28207
1.26983
1.26224
1.2571
1.25234
1.25189
1.2524
1.24808
1.24211
1.23605
1.22741
1.21418
1.2016
1.18775
2.09773
2.07773
2.05704
2.03345
2.00902
1.98593
1.96075
1.93108
1.90316
1.8798
1.85362
1.82567
1.79581
1.77482
1.74993
1.72598
1.69914
1.67738
1.65851
1.63707
1.61652
1.59469
1.58094
1.56393
1.54326
1.52471
1.51096
1.53188
1.6379
1.83652
1.98697
1.97504
1.94984
1.90885
1.87002
1.83764
1.81127
1.79057
1.77044
1.75095
1.7316
1.71167
1.69056
1.6679
1.64365
1.61818
1.59512
1.57557
1.5574
1.53935
1.52214
1.50546
1.49033
1.47889
1.46938
1.45912
1.44589
1.42748
1.40567
1.38787
1.37579
1.37092
1.3734
1.37193
1.37142
1.37371
1.37084
1.36445
1.36449
1.36274
1.35991
1.35222
1.3415
1.33193
1.32634
1.32189
1.31833
1.31752
1.3171
1.31086
1.30095
1.28769
1.27157
1.25399
1.24038
1.23005
1.22398
1.22084
1.22063
1.2241
1.22347
1.21825
1.21212
1.20251
1.18673
1.16738
2.08006
2.06063
2.04164
2.02058
1.99893
1.9772
1.9539
1.92644
1.90244
1.8789
1.85383
1.82493
1.80218
1.78296
1.75936
1.73456
1.70672
1.69004
1.67051
1.65063
1.62793
1.6084
1.59393
1.5745
1.55715
1.54478
1.57766
1.74036
1.90554
2.02075
2.01538
1.98281
1.94018
1.89972
1.86603
1.83755
1.81229
1.79071
1.77012
1.74938
1.72911
1.70917
1.68872
1.6672
1.64401
1.61946
1.59598
1.57466
1.5546
1.53451
1.51485
1.49647
1.47986
1.46553
1.45363
1.44272
1.43043
1.41447
1.39615
1.37865
1.36227
1.34873
1.33913
1.33068
1.32301
1.31699
1.31105
1.30169
1.29724
1.29887
1.30304
1.30459
1.30202
1.29336
1.2876
1.28607
1.28378
1.28032
1.27763
1.27654
1.27514
1.26908
1.25804
1.24381
1.22649
1.21136
1.20262
1.19813
1.19529
1.19531
1.19829
1.19754
1.1944
1.18792
1.17481
1.15245
2.05984
2.04479
2.02385
2.00451
1.98625
1.9669
1.94455
1.91927
1.8977
1.8756
1.85298
1.82624
1.80619
1.78499
1.76305
1.73925
1.71686
1.70071
1.67993
1.66048
1.63668
1.62177
1.60414
1.58473
1.58601
1.64774
1.84354
1.99825
2.03946
2.03214
2.00364
1.96753
1.92898
1.89539
1.86697
1.84053
1.81416
1.789
1.76576
1.74355
1.7224
1.70226
1.68251
1.66248
1.64135
1.61898
1.59638
1.57476
1.55473
1.53538
1.51593
1.49674
1.47873
1.46237
1.44707
1.43195
1.41681
1.40222
1.38821
1.37359
1.35573
1.33531
1.32303
1.314
1.30418
1.29336
1.28249
1.27014
1.25798
1.25123
1.24894
1.2441
1.2403
1.23877
1.23549
1.23395
1.23524
1.23569
1.23643
1.23628
1.23527
1.2333
1.23
1.22148
1.20824
1.19534
1.18807
1.18289
1.17805
1.17464
1.17387
1.17239
1.16985
1.16727
1.16207
1.14295
1.95871
2.03148
2.01223
1.9902
1.97296
1.9551
1.93307
1.91192
1.89181
1.87177
1.84847
1.82426
1.80629
1.78634
1.76644
1.74095
1.72381
1.70674
1.68686
1.66717
1.64377
1.62986
1.61365
1.63053
1.73965
1.93909
2.08848
2.07075
2.04326
2.01019
1.98017
1.95032
1.92046
1.89296
1.86542
1.83692
1.80874
1.78246
1.75857
1.73622
1.71462
1.69387
1.67413
1.65513
1.63589
1.61544
1.59341
1.57007
1.54687
1.52581
1.50746
1.4914
1.47635
1.46123
1.44495
1.42801
1.41055
1.39124
1.37286
1.35802
1.34246
1.32509
1.31317
1.3043
1.29284
1.27968
1.26796
1.25552
1.24036
1.22839
1.22151
1.21416
1.20649
1.2004
1.19344
1.18506
1.18206
1.18087
1.18106
1.18366
1.1881
1.18955
1.18823
1.18358
1.17455
1.1699
1.16878
1.16445
1.15865
1.15621
1.15577
1.15323
1.14944
1.14438
1.13946
1.12822
1.68577
1.94967
2.00212
1.98196
1.95917
1.94055
1.92181
1.90294
1.88341
1.86384
1.84312
1.82354
1.80469
1.78524
1.76321
1.7422
1.72821
1.71102
1.69367
1.66665
1.64896
1.64127
1.68068
1.84212
2.03672
2.12791
2.11511
2.07855
2.0342
1.99461
1.9637
1.93746
1.91152
1.88545
1.85782
1.82903
1.80086
1.7746
1.75055
1.72799
1.70591
1.68404
1.66321
1.64429
1.62673
1.60898
1.58937
1.56728
1.54424
1.52257
1.50296
1.48458
1.46661
1.45003
1.43497
1.42034
1.40588
1.39001
1.37197
1.35459
1.33681
1.31797
1.30245
1.29065
1.28062
1.27117
1.26072
1.24818
1.23258
1.21975
1.21078
1.20082
1.18945
1.1785
1.17097
1.16475
1.15886
1.15087
1.1442
1.13973
1.13928
1.14084
1.14024
1.1357
1.12833
1.12245
1.12281
1.12516
1.12771
1.13163
1.13349
1.13347
1.1319
1.12674
1.11815
1.10817
1.21741
1.73397
1.93998
1.97125
1.95327
1.92946
1.9086
1.89116
1.87471
1.85631
1.83472
1.81685
1.80073
1.78278
1.76147
1.74184
1.72681
1.71032
1.69385
1.67027
1.67326
1.75009
1.95213
2.11952
2.15871
2.13474
2.09241
2.05198
2.0164
1.98372
1.95329
1.92584
1.89928
1.87305
1.84661
1.81923
1.79121
1.76437
1.74021
1.71832
1.69724
1.67585
1.65435
1.63378
1.61419
1.59471
1.57451
1.55357
1.53392
1.51716
1.50179
1.48559
1.46723
1.44706
1.42589
1.40429
1.38714
1.3748
1.3629
1.35114
1.33775
1.32161
1.30495
1.28791
1.27057
1.25607
1.24592
1.23792
1.22955
1.21918
1.20835
1.19679
1.18417
1.17039
1.15705
1.14714
1.13969
1.1343
1.12828
1.12376
1.11987
1.11531
1.109
1.10107
1.09067
1.07941
1.07554
1.07636
1.07959
1.08511
1.09388
1.10385
1.10672
1.10514
1.09623
1.08625
1.01217
1.29285
1.75646
1.92163
1.94327
1.92412
1.89998
1.8823
1.86503
1.84617
1.82675
1.81114
1.79555
1.77704
1.75595
1.74042
1.72542
1.71118
1.69545
1.71548
1.8522
2.05359
2.18229
2.18486
2.16253
2.12166
2.0774
2.03843
1.99973
1.96935
1.94122
1.91396
1.88729
1.86097
1.83523
1.80888
1.78144
1.75372
1.72689
1.70227
1.68037
1.6607
1.64238
1.62443
1.60578
1.58568
1.56405
1.54146
1.51991
1.5018
1.4864
1.47173
1.45686
1.44098
1.42191
1.40045
1.38075
1.36473
1.34985
1.33502
1.32406
1.31508
1.30396
1.28897
1.27245
1.25529
1.23948
1.22719
1.21951
1.21445
1.20836
1.19701
1.18289
1.168
1.15172
1.1397
1.13077
1.1231
1.11825
1.11486
1.11167
1.10724
1.1012
1.09292
1.07949
1.06077
1.0488
1.04619
1.04622
1.04719
1.05051
1.05778
1.06261
1.06287
1.05799
1.05644
1.00012
1.0242
1.34819
1.76682
1.90034
1.91388
1.89511
1.87422
1.85642
1.83878
1.82139
1.80336
1.78754
1.77087
1.75471
1.73619
1.7206
1.71925
1.77051
1.97
2.15437
2.20741
2.19714
2.16832
2.1343
2.09796
2.06331
2.02845
1.99095
1.95628
1.92685
1.90081
1.87591
1.85003
1.8228
1.79463
1.76685
1.74027
1.71426
1.68877
1.66478
1.64347
1.62486
1.60739
1.58951
1.57061
1.55145
1.53297
1.51478
1.49611
1.47701
1.45785
1.43853
1.4199
1.40568
1.39202
1.37563
1.36086
1.34803
1.33464
1.32032
1.30617
1.29329
1.28156
1.26996
1.25627
1.24149
1.22967
1.21958
1.20897
1.20128
1.19643
1.18848
1.1728
1.15068
1.135
1.13174
1.12897
1.12457
1.11964
1.11401
1.1071
1.09882
1.08858
1.07535
1.05687
1.0409
1.03433
1.03178
1.0307
1.03061
1.03085
1.03041
1.02822
1.02217
1.01411
1
1.00032
1.03813
1.38882
1.76449
1.87642
1.88665
1.87064
1.84937
1.83018
1.81378
1.79823
1.78211
1.76617
1.74747
1.73156
1.73983
1.84825
2.06804
2.24416
2.25801
2.22615
2.18011
2.14274
2.10691
2.07507
2.0447
2.01075
1.97497
1.94163
1.91216
1.88611
1.86145
1.83591
1.80838
1.77969
1.75183
1.72523
1.69906
1.67355
1.6498
1.62868
1.60958
1.59074
1.57123
1.55125
1.53246
1.51724
1.50373
1.48796
1.46937
1.44986
1.43085
1.41153
1.39281
1.37659
1.36307
1.35259
1.34344
1.33339
1.3208
1.30666
1.29118
1.27514
1.26021
1.24908
1.24102
1.23237
1.22178
1.21132
1.20285
1.19443
1.18334
1.17036
1.15782
1.14406
1.13025
1.12053
1.11408
1.10848
1.10291
1.09677
1.08948
1.08078
1.0702
1.05566
1.03912
1.03051
1.02754
1.02583
1.02419
1.02206
1.0193
1.01514
1.00807
0.993199
1
1
1.00066
1.05224
1.41309
1.74869
1.85734
1.8637
1.84575
1.82293
1.80827
1.79251
1.77632
1.76238
1.74422
1.76844
1.93817
2.18385
2.27898
2.26353
2.22796
2.18154
2.14745
2.11742
2.08567
2.05434
2.02197
1.98726
1.9538
1.923
1.8945
1.86745
1.84082
1.81399
1.78676
1.76005
1.73456
1.70952
1.68416
1.65911
1.63569
1.61472
1.59554
1.57599
1.55554
1.53673
1.51984
1.50448
1.49189
1.47866
1.4604
1.44111
1.42295
1.40515
1.38769
1.37315
1.36054
1.34767
1.33521
1.32414
1.31489
1.30221
1.28657
1.27302
1.26193
1.25103
1.23912
1.22666
1.21739
1.21122
1.20371
1.19279
1.18276
1.17341
1.16004
1.14293
1.12742
1.11728
1.1103
1.10423
1.0986
1.09313
1.08704
1.07947
1.06972
1.05848
1.04528
1.0328
1.02709
1.02457
1.02233
1.01913
1.01585
1.01135
1.0037
0.987507
1
1
1
1.00108
1.06377
1.41582
1.73978
1.84012
1.83858
1.82033
1.80282
1.78675
1.77162
1.7603
1.81486
2.05557
2.26546
2.33437
2.3115
2.25481
2.1966
2.14881
2.11889
2.09249
2.06385
2.03154
1.99617
1.96093
1.92946
1.90147
1.8746
1.84729
1.81923
1.79111
1.76427
1.73948
1.71618
1.69326
1.66976
1.64596
1.62354
1.60335
1.58433
1.5649
1.54473
1.52708
1.51281
1.49925
1.48528
1.47401
1.4642
1.44787
1.42669
1.40649
1.38701
1.36973
1.35693
1.34713
1.33801
1.32575
1.31316
1.30593
1.29759
1.28628
1.27314
1.25888
1.24563
1.23455
1.22306
1.20968
1.20182
1.19765
1.19285
1.18459
1.16921
1.14953
1.13512
1.12688
1.12079
1.11529
1.11016
1.10504
1.09918
1.09175
1.08153
1.06471
1.04048
1.02699
1.02344
1.02183
1.02181
1.02193
1.02007
1.01594
1.00792
0.986617
1
1
1
1
1.00149
1.06967
1.41304
1.73321
1.80624
1.81425
1.80246
1.77967
1.77508
1.87907
2.16884
2.34981
2.33512
2.30316
2.26055
2.21905
2.17654
2.13627
2.09988
2.06771
2.03626
2.00344
1.97022
1.93856
1.90943
1.8826
1.85594
1.8274
1.79837
1.7705
1.74549
1.72318
1.70208
1.68137
1.66047
1.63858
1.61523
1.5921
1.57225
1.55674
1.54432
1.53197
1.51835
1.50339
1.48773
1.47276
1.45612
1.43569
1.41484
1.39745
1.38486
1.37389
1.36253
1.35134
1.34065
1.32881
1.31598
1.3027
1.28847
1.2739
1.25926
1.2456
1.23418
1.22481
1.21649
1.20961
1.20345
1.19569
1.18616
1.17368
1.15726
1.14056
1.12865
1.12094
1.11497
1.10959
1.10446
1.09934
1.09368
1.08653
1.07622
1.05945
1.0362
1.02551
1.02369
1.02233
1.02086
1.01866
1.01583
1.0111
1.00206
0.979885
1
1
1
1
1.00001
1.00182
1.07041
1.41439
1.69662
1.78999
1.78943
1.79141
1.93102
2.24794
2.40626
2.40045
2.33675
2.27043
2.21676
2.18181
2.15016
2.11559
2.07893
2.04381
2.01054
1.97805
1.94723
1.91921
1.89338
1.86846
1.84312
1.81541
1.78631
1.75833
1.733
1.71064
1.69001
1.67041
1.65151
1.63247
1.61246
1.59195
1.57243
1.55495
1.53967
1.52538
1.51145
1.4975
1.48336
1.46822
1.45039
1.43038
1.41325
1.39876
1.38458
1.37144
1.35945
1.34834
1.33768
1.32636
1.31381
1.29996
1.28553
1.27053
1.25541
1.2417
1.23062
1.22237
1.21629
1.21067
1.204
1.19558
1.18495
1.17124
1.15454
1.13882
1.12781
1.1203
1.1144
1.10915
1.10412
1.09905
1.09337
1.08608
1.07517
1.05717
1.03671
1.02805
1.02499
1.02281
1.02104
1.01941
1.01714
1.01246
1.00263
0.979483
1
1
1
1
1
1.00001
1.00188
1.07199
1.38925
1.67652
1.75402
1.98256
2.29114
2.39583
2.36261
2.32879
2.29281
2.25094
2.20692
2.16696
2.13153
2.09801
2.06404
2.03007
1.9973
1.96611
1.93678
1.90991
1.88545
1.86231
1.83915
1.81684
1.79356
1.76714
1.74177
1.71934
1.69936
1.68109
1.66376
1.64611
1.62693
1.60605
1.58472
1.56493
1.54757
1.53234
1.51848
1.50496
1.49111
1.47681
1.46139
1.44457
1.42687
1.40852
1.39155
1.37767
1.36595
1.35532
1.34497
1.33381
1.32144
1.30823
1.29392
1.27833
1.26267
1.2493
1.23944
1.23212
1.22585
1.21965
1.21274
1.20419
1.19301
1.17887
1.16273
1.14796
1.13704
1.12916
1.12298
1.11766
1.11267
1.10747
1.10132
1.09326
1.08163
1.0647
1.04771
1.03821
1.03365
1.03116
1.0298
1.0287
1.02675
1.02181
1.01085
0.985812
1
1
1
1
1
1
1.00001
1.00209
1.07108
1.41212
1.80164
2.35139
2.62018
2.53395
2.38838
2.29349
2.2595
2.23048
2.19629
2.15696
2.11949
2.08649
2.05567
2.02465
1.9932
1.96261
1.93444
1.90935
1.88574
1.86133
1.83602
1.80987
1.78197
1.75458
1.72859
1.70521
1.68481
1.66693
1.65052
1.63386
1.61527
1.59413
1.57169
1.55056
1.53255
1.51771
1.50485
1.49233
1.47886
1.46409
1.44836
1.43204
1.41483
1.39678
1.37954
1.36472
1.35239
1.34212
1.33284
1.32262
1.3102
1.29597
1.28086
1.26531
1.25025
1.23778
1.22864
1.22146
1.21508
1.20895
1.2021
1.19319
1.18143
1.16705
1.1515
1.13795
1.12774
1.11961
1.11285
1.1073
1.10255
1.09773
1.09179
1.08378
1.07225
1.05575
1.03892
1.02951
1.02541
1.02297
1.0213
1.01987
1.01812
1.01361
1.00275
0.977359
)
;

boundaryField
{
    inlet
    {
        type            fixedValue;
        value           uniform 1;
    }
    outlet
    {
        type            inletOutlet;
        inletValue      uniform 1;
        value           nonuniform List<scalar> 
32
(
2.03769
2.02072
1.97467
1.91097
1.85258
1.80185
1.76352
1.73791
1.71514
1.68189
1.62735
1.53781
1.39003
1.26838
1.23429
1.21206
1.18816
1.16646
1.15042
1.14005
1.12732
1.10811
1.08546
1.05546
1.0127
0.991589
0.985586
0.983843
0.977228
0.976784
0.983003
0.974497
)
;
    }
    bottom
    {
        type            symmetryPlane;
    }
    top
    {
        type            symmetryPlane;
    }
    obstacle
    {
        type            zeroGradient;
    }
    defaultFaces
    {
        type            empty;
    }
}


// ************************************************************************* //
