/*--------------------------------*- C++ -*----------------------------------*\
  =========                 |
  \\      /  F ield         | OpenFOAM: The Open Source CFD Toolbox
   \\    /   O peration     | Website:  https://openfoam.org
    \\  /    A nd           | Version:  7
     \\/     M anipulation  |
\*---------------------------------------------------------------------------*/
FoamFile
{
    version     2.0;
    format      ascii;
    class       volVectorField;
    location    "1.5";
    object      U;
}
// * * * * * * * * * * * * * * * * * * * * * * * * * * * * * * * * * * * * * //

dimensions      [0 1 -1 0 0 0 0];

internalField   nonuniform List<vector> 
4032
(
(3 -9.30029e-18 0)
(3 -9.17569e-19 0)
(3 1.47859e-16 0)
(3 2.44578e-16 0)
(3 5.83392e-16 0)
(3 7.04496e-16 0)
(3 1.03474e-15 0)
(3 1.20059e-15 0)
(3 7.59468e-16 0)
(3 3.66324e-16 0)
(3 6.20249e-16 0)
(3 4.79175e-16 0)
(2.08038 0.0149692 0)
(0.79048 0.021133 0)
(0.666603 0.0225163 0)
(0.613697 0.0253567 0)
(0.550229 0.0280221 0)
(0.484944 0.0312492 0)
(0.415859 0.0324884 0)
(0.346932 0.0317428 0)
(0.277058 0.0318849 0)
(0.206043 0.0350106 0)
(0.128364 0.0377308 0)
(0.0486102 0.0434866 0)
(3 2.59627e-18 0)
(3 5.77709e-17 0)
(3 2.27082e-16 0)
(3 5.80068e-16 0)
(3 1.53858e-15 0)
(3 1.49072e-15 0)
(3 1.15957e-15 0)
(3 1.13583e-15 0)
(3 1.42059e-16 0)
(3 -4.76018e-16 0)
(3 -3.48397e-16 0)
(3 -1.45137e-16 0)
(2.11754 0.0713815 0)
(0.78537 0.0890647 0)
(0.650596 0.070687 0)
(0.59474 0.0726452 0)
(0.530713 0.0805612 0)
(0.465659 0.0899484 0)
(0.398452 0.0938842 0)
(0.332375 0.0935073 0)
(0.264618 0.0953979 0)
(0.196871 0.106349 0)
(0.121722 0.115676 0)
(0.0464679 0.132519 0)
(3 8.60808e-17 0)
(3 -7.64718e-17 0)
(3 -1.30646e-16 0)
(3 2.01893e-16 0)
(3 5.70036e-16 0)
(3 5.82168e-16 0)
(3 3.58407e-16 0)
(3 -3.1131e-16 0)
(3 -4.55049e-16 0)
(3 -6.36176e-16 0)
(3 -6.13051e-16 0)
(3 -8.54082e-16 0)
(2.26116 0.120738 0)
(0.820959 0.153373 0)
(0.664881 0.124148 0)
(0.600702 0.128069 0)
(0.530791 0.140251 0)
(0.462987 0.152948 0)
(0.396534 0.156849 0)
(0.332851 0.155696 0)
(0.266005 0.158448 0)
(0.199143 0.17609 0)
(0.122142 0.191097 0)
(0.0476414 0.217402 0)
(3 -6.7785e-17 0)
(3 4.94565e-17 0)
(3 1.4865e-16 0)
(3 3.57655e-16 0)
(3 6.10497e-16 0)
(3 5.53233e-16 0)
(3 2.03577e-16 0)
(3 -7.64089e-17 0)
(3 1.86204e-16 0)
(3 1.45536e-16 0)
(3 1.02557e-16 0)
(3 -2.72986e-16 0)
(2.44086 0.153422 0)
(0.855447 0.217691 0)
(0.672468 0.184059 0)
(0.60994 0.187992 0)
(0.544717 0.202759 0)
(0.481748 0.216608 0)
(0.419079 0.219266 0)
(0.355967 0.218948 0)
(0.285678 0.224829 0)
(0.214893 0.250596 0)
(0.131929 0.272877 0)
(0.0496834 0.306237 0)
(3 -1.29751e-17 0)
(3 3.14198e-16 0)
(3 4.39931e-16 0)
(3 6.44574e-16 0)
(3 8.88259e-16 0)
(3 1.32444e-15 0)
(3 9.03526e-16 0)
(3 2.74195e-16 0)
(3 1.37531e-16 0)
(3 1.60529e-16 0)
(3 -2.53585e-16 0)
(3 4.09317e-16 0)
(2.67635 0.174128 0)
(0.923398 0.280367 0)
(0.705761 0.238501 0)
(0.650479 0.242247 0)
(0.590424 0.258024 0)
(0.530977 0.272819 0)
(0.469161 0.2779 0)
(0.404069 0.283948 0)
(0.32761 0.29634 0)
(0.25144 0.330931 0)
(0.156781 0.364642 0)
(0.0612564 0.406985 0)
(3 3.46877e-17 0)
(3 1.45182e-16 0)
(3 4.35345e-16 0)
(3 2.05103e-16 0)
(3 -2.5057e-16 0)
(3 1.17722e-16 0)
(3 4.37436e-16 0)
(3 5.51076e-16 0)
(3 1.74887e-16 0)
(3 -1.61969e-16 0)
(3 -2.27876e-16 0)
(3 -2.39981e-16 0)
(2.94275 0.0931251 0)
(1.03603 0.321831 0)
(0.757769 0.274673 0)
(0.707293 0.285606 0)
(0.648452 0.307022 0)
(0.590468 0.326054 0)
(0.529285 0.336884 0)
(0.462649 0.352661 0)
(0.379038 0.379016 0)
(0.286441 0.428678 0)
(0.179028 0.481987 0)
(0.0597886 0.53156 0)
(3 -5.72539e-17 0)
(3 3.64921e-18 0)
(3 -2.27802e-16 0)
(3 -1.1641e-15 0)
(3 -1.21217e-15 0)
(3 -1.02902e-15 0)
(3 -1.77382e-16 0)
(3 7.93768e-16 0)
(3 6.36331e-16 0)
(3 -4.3605e-16 0)
(3 -5.56213e-16 0)
(3 -7.99111e-16 0)
(3.01934 0.00810867 0)
(1.18079 0.333888 0)
(0.779518 0.321357 0)
(0.723257 0.346505 0)
(0.664169 0.370175 0)
(0.606956 0.390995 0)
(0.547169 0.407402 0)
(0.481929 0.433777 0)
(0.411191 0.475735 0)
(0.335701 0.536997 0)
(0.240886 0.606128 0)
(0.103154 0.679433 0)
(3 8.48794e-17 0)
(3 -8.64015e-17 0)
(3 -6.5959e-16 0)
(3 -7.46848e-16 0)
(3 -4.32995e-16 0)
(3 -2.61501e-16 0)
(3 1.61787e-17 0)
(3 9.24708e-17 0)
(3 2.08344e-16 0)
(3 -2.89315e-16 0)
(3 -1.49715e-16 0)
(3 -8.46748e-16 0)
(3.00062 2.24079e-05 0)
(1.41169 0.373725 0)
(0.782221 0.373682 0)
(0.709387 0.395846 0)
(0.659513 0.421022 0)
(0.612165 0.44519 0)
(0.562614 0.467613 0)
(0.512507 0.501498 0)
(0.459251 0.552342 0)
(0.394434 0.639008 0)
(0.275702 0.771369 0)
(0.153325 0.947944 0)
(3 -7.14352e-17 0)
(3 -9.91933e-17 0)
(3 4.64265e-16 0)
(3 1.13814e-15 0)
(3 7.08134e-16 0)
(3 3.1317e-16 0)
(3 -5.73435e-16 0)
(3 -9.72899e-16 0)
(3 -4.26988e-16 0)
(3 4.43479e-17 0)
(3 7.38442e-16 0)
(3 1.91438e-16 0)
(3 -8.11331e-08 0)
(1.81567 0.427358 0)
(0.82678 0.455518 0)
(0.723157 0.453934 0)
(0.680306 0.476066 0)
(0.640492 0.499103 0)
(0.599747 0.522929 0)
(0.562064 0.560001 0)
(0.523027 0.624849 0)
(0.489374 0.749911 0)
(0.463466 0.937242 0)
(0.582831 1.23242 0)
(3 -1.03089e-16 0)
(3 -3.72114e-16 0)
(3 2.41359e-16 0)
(3 9.83835e-16 0)
(3 7.63301e-16 0)
(3 2.27481e-16 0)
(3 -6.75757e-16 0)
(3 -1.18564e-15 0)
(3 -1.3122e-15 0)
(3 -4.18844e-17 0)
(3 4.11615e-16 0)
(3 1.87802e-15 0)
(3 -2.91675e-08 0)
(2.46394 0.379714 0)
(0.961539 0.545578 0)
(0.8073 0.495065 0)
(0.760414 0.512954 0)
(0.71673 0.539306 0)
(0.677309 0.566465 0)
(0.642593 0.606193 0)
(0.620749 0.679441 0)
(0.617579 0.812373 0)
(0.682905 0.971262 0)
(0.972151 1.15732 0)
(3 2.98796e-18 0)
(3 4.39113e-17 0)
(3 -6.11224e-17 0)
(3 -1.24073e-16 0)
(3 4.42363e-17 0)
(3 -7.79079e-17 0)
(3 -3.25878e-16 0)
(3 -7.62936e-16 0)
(3 -1.31546e-15 0)
(3 -1.22235e-15 0)
(3 -7.04063e-16 0)
(3 4.56234e-16 0)
(3 -3.88922e-09 0)
(3.0655 0.0776592 0)
(1.21717 0.539083 0)
(0.906425 0.541613 0)
(0.865723 0.563983 0)
(0.82041 0.586648 0)
(0.778798 0.614726 0)
(0.742334 0.653584 0)
(0.730367 0.72575 0)
(0.751283 0.840818 0)
(0.872744 0.971594 0)
(1.1849 1.08943 0)
(3 8.21363e-17 0)
(3 -6.69208e-18 0)
(3 -4.49024e-16 0)
(3 -9.82505e-16 0)
(3 -6.80902e-16 0)
(3 -8.38339e-16 0)
(3 -5.73096e-16 0)
(3 -1.08e-16 0)
(3 1.17827e-16 0)
(3 2.57404e-16 0)
(3 -2.97134e-16 0)
(3 -7.11511e-16 0)
(3 -2.04736e-10 0)
(3.01425 0.000961419 0)
(1.46209 0.530529 0)
(0.918327 0.615677 0)
(0.876042 0.628524 0)
(0.851788 0.646566 0)
(0.835603 0.674577 0)
(0.822533 0.708748 0)
(0.826177 0.765368 0)
(0.871275 0.845516 0)
(1.00997 0.943294 0)
(1.26966 1.01137 0)
(3 4.72054e-17 0)
(3 1.23686e-16 0)
(3 -3.27203e-16 0)
(3 -7.94379e-17 0)
(3 -4.34734e-17 0)
(3 -5.30167e-16 0)
(3 -7.52051e-16 0)
(3 -2.00879e-16 0)
(3 3.33379e-16 0)
(3 6.12704e-16 0)
(3 4.00896e-16 0)
(3 5.03165e-16 0)
(3 -2.76362e-12 0)
(3.00011 -3.902e-06 0)
(2.15242 0.530716 0)
(1.00194 0.685456 0)
(0.920225 0.653882 0)
(0.900556 0.671743 0)
(0.892565 0.699994 0)
(0.895954 0.73899 0)
(0.914279 0.7891 0)
(0.977429 0.851727 0)
(1.11443 0.920876 0)
(1.33071 0.960737 0)
(3 -3.1947e-17 0)
(3 1.94245e-16 0)
(3 2.51537e-16 0)
(3 5.16728e-16 0)
(3 9.46097e-16 0)
(3 9.68585e-16 0)
(3 2.4726e-16 0)
(3 1.38294e-16 0)
(3 4.88774e-16 0)
(3 5.85542e-16 0)
(3 8.10449e-16 0)
(3 7.33429e-16 0)
(3 -1.30166e-15 0)
(3.00001 -3.3787e-06 0)
(3.05337 0.143307 0)
(1.28416 0.681429 0)
(1.01696 0.674838 0)
(0.98361 0.688781 0)
(0.965131 0.719673 0)
(0.966393 0.756324 0)
(0.994594 0.797645 0)
(1.06318 0.842713 0)
(1.18465 0.885346 0)
(1.35846 0.905856 0)
(3 -2.02577e-16 0)
(3 -3.87605e-16 0)
(3 -6.82148e-17 0)
(3 8.19097e-17 0)
(3 9.47904e-16 0)
(3 1.37628e-15 0)
(3 1.7251e-15 0)
(3 1.4686e-15 0)
(3 1.08026e-15 0)
(3 3.60746e-16 0)
(3 -4.14209e-16 0)
(3 -1.42106e-15 0)
(3 3.89748e-17 0)
(3 -5.88625e-07 0)
(3.02733 0.00184778 0)
(1.62447 0.649284 0)
(1.04625 0.750158 0)
(1.01847 0.749611 0)
(1.01304 0.771525 0)
(1.02731 0.789629 0)
(1.0651 0.816865 0)
(1.13567 0.848363 0)
(1.24207 0.8739 0)
(1.38379 0.884852 0)
(3 2.54519e-19 0)
(3 1.92756e-16 0)
(3 2.30277e-16 0)
(3 1.23969e-16 0)
(3 -1.82125e-16 0)
(3 2.54544e-16 0)
(3 5.66641e-16 0)
(3 7.48838e-16 0)
(3 4.32466e-16 0)
(3 9.53662e-17 0)
(3 -5.7376e-16 0)
(3 -1.69188e-15 0)
(3 -1.34081e-15 0)
(3 -3.6928e-08 0)
(3.00032 1.84492e-06 0)
(2.51315 0.459786 0)
(1.17515 0.778397 0)
(1.0659 0.777059 0)
(1.08013 0.780184 0)
(1.09864 0.796179 0)
(1.13407 0.816355 0)
(1.19799 0.837999 0)
(1.28939 0.853707 0)
(1.4044 0.860437 0)
(3 1.82744e-17 0)
(3 6.66707e-17 0)
(3 -2.7915e-16 0)
(3 -3.48616e-16 0)
(3 -1.20832e-15 0)
(3 -1.18985e-15 0)
(3 -1.11437e-15 0)
(3 -7.83854e-16 0)
(3 -4.67264e-16 0)
(3 -4.61146e-16 0)
(3 -3.12204e-16 0)
(3 -4.85515e-16 0)
(3 -9.99446e-16 0)
(3 -1.38727e-10 0)
(3.00002 -8.81415e-06 0)
(3.06792 0.0517146 0)
(1.52271 0.752819 0)
(1.12546 0.796565 0)
(1.15008 0.801254 0)
(1.16242 0.817915 0)
(1.19478 0.831638 0)
(1.2502 0.845733 0)
(1.3289 0.856904 0)
(1.42397 0.859957 0)
(3 -3.92177e-17 0)
(3 -1.7008e-16 0)
(3 -9.74189e-16 0)
(3 -1.16228e-15 0)
(3 -1.12186e-15 0)
(3 -9.85099e-16 0)
(3 -5.92984e-16 0)
(3 -3.46989e-16 0)
(3 -3.33962e-16 0)
(3 4.40169e-17 0)
(3 3.50541e-16 0)
(3 -4.20044e-16 0)
(3 -4.70805e-16 0)
(3 -1.35464e-13 0)
(3 -1.71031e-06 0)
(3.00546 0.00076659 0)
(2.26214 0.625254 0)
(1.21235 0.856408 0)
(1.1773 0.84099 0)
(1.21029 0.840894 0)
(1.24421 0.84406 0)
(1.29526 0.848109 0)
(1.36503 0.851457 0)
(1.44631 0.850949 0)
(3 -8.62031e-17 0)
(3 -3.36739e-17 0)
(3 -1.99032e-17 0)
(3 -1.0504e-16 0)
(3 2.87423e-16 0)
(3 6.70821e-16 0)
(3 1.05406e-15 0)
(3 7.35583e-16 0)
(3 6.56085e-16 0)
(3 7.40692e-16 0)
(3 -4.62431e-16 0)
(3 -1.62986e-15 0)
(3 -8.48376e-16 0)
(3 -8.135e-16 0)
(3 -1.23404e-07 0)
(3.00001 2.71737e-06 0)
(3.04015 0.117045 0)
(1.5727 0.8274 0)
(1.22573 0.842351 0)
(1.26585 0.845559 0)
(1.29217 0.852592 0)
(1.33615 0.857046 0)
(1.3932 0.860878 0)
(1.46104 0.86086 0)
(3 -5.84164e-17 0)
(3 -2.22121e-16 0)
(3 4.39676e-16 0)
(3 9.8548e-16 0)
(3 9.96527e-16 0)
(3 1.71302e-15 0)
(3 1.64699e-15 0)
(3 1.24579e-15 0)
(3 1.59961e-17 0)
(3 -4.35492e-16 0)
(3 -8.42869e-16 0)
(3 -1.021e-15 0)
(3 -7.0355e-16 0)
(3 3.33281e-16 0)
(3 -6.49386e-10 0)
(3 -1.42142e-07 0)
(3.01045 0.00313052 0)
(2.32054 0.655379 0)
(1.31265 0.901247 0)
(1.28361 0.888533 0)
(1.3221 0.881138 0)
(1.36557 0.874943 0)
(1.41986 0.867385 0)
(1.48107 0.859638 0)
(3 1.12451e-16 0)
(3 2.27879e-16 0)
(3 4.05346e-16 0)
(3 3.49754e-16 0)
(3 1.44904e-16 0)
(3 1.98902e-16 0)
(3 -5.34691e-17 0)
(3 -3.99053e-17 0)
(3 -2.49474e-16 0)
(3 -2.42471e-16 0)
(3 1.97035e-16 0)
(3 8.43686e-16 0)
(3 5.83083e-16 0)
(3 8.95889e-16 0)
(3 -8.95864e-13 0)
(3 -2.50684e-08 0)
(3.00004 2.9736e-05 0)
(3.03156 0.113967 0)
(1.71245 0.85181 0)
(1.32251 0.891755 0)
(1.36819 0.886131 0)
(1.40386 0.883658 0)
(1.45049 0.878423 0)
(1.50155 0.871806 0)
(3 1.17964e-16 0)
(3 2.70461e-16 0)
(3 1.6447e-16 0)
(3 -7.90238e-17 0)
(3 -4.85671e-16 0)
(3 -8.24141e-16 0)
(3 -1.4085e-15 0)
(3 -1.83033e-15 0)
(3 -1.3916e-15 0)
(3 -7.48607e-16 0)
(3 2.08909e-16 0)
(3 9.95535e-16 0)
(3 1.06853e-15 0)
(3 9.60797e-16 0)
(3 5.6428e-16 0)
(3 -1.69544e-09 0)
(3 1.12709e-08 0)
(3.00668 0.00429983 0)
(2.58281 0.556473 0)
(1.45928 0.94626 0)
(1.39312 0.919165 0)
(1.43643 0.909291 0)
(1.47582 0.899222 0)
(1.52188 0.885772 0)
(3 -1.28499e-18 0)
(3 5.81473e-17 0)
(3 8.0595e-17 0)
(3 -1.82349e-16 0)
(3 -3.17412e-16 0)
(3 -5.33871e-16 0)
(3 -1.06321e-15 0)
(3 -9.95105e-16 0)
(3 -1.09925e-15 0)
(3 -1.08125e-15 0)
(3 -5.62056e-16 0)
(3 1.37265e-17 0)
(3 4.89483e-16 0)
(3 6.03026e-16 0)
(3 7.18834e-16 0)
(3 -2.92051e-11 0)
(3 -3.18515e-11 0)
(3.00002 3.74416e-05 0)
(3.03701 0.0583981 0)
(1.97099 0.819745 0)
(1.45068 0.937051 0)
(1.47621 0.924869 0)
(1.50797 0.912138 0)
(1.54753 0.896807 0)
(3 -6.70362e-17 0)
(3 -9.24974e-17 0)
(3 -9.87562e-17 0)
(3 -2.56991e-16 0)
(3 -3.98741e-16 0)
(3 -2.43357e-16 0)
(3 1.32187e-16 0)
(3 5.29796e-16 0)
(3 1.05535e-16 0)
(3 -1.64508e-16 0)
(3 -3.24314e-16 0)
(3 -6.27508e-16 0)
(3 -2.29621e-16 0)
(3 -3.41992e-16 0)
(3 3.72002e-16 0)
(3 -6.82622e-14 0)
(3 -1.48735e-11 0)
(3 2.13544e-08 0)
(3.00185 0.00230934 0)
(2.81892 0.335842 0)
(1.71988 0.925297 0)
(1.49219 0.947638 0)
(1.53885 0.933486 0)
(1.57469 0.917691 0)
(3 -1.38725e-16 0)
(3 -2.49429e-16 0)
(3 -6.38724e-16 0)
(3 -3.65295e-16 0)
(3 -3.2902e-16 0)
(3 1.47315e-16 0)
(3 7.83173e-16 0)
(3 9.45195e-16 0)
(3 7.20373e-16 0)
(3 7.01114e-16 0)
(3 -1.12552e-16 0)
(3 -7.70401e-16 0)
(3 -5.44537e-16 0)
(3 -1.30174e-16 0)
(3 1.36256e-15 0)
(3 1.03603e-15 0)
(3 -2.11194e-12 0)
(3 -4.18607e-12 0)
(3 1.01437e-05 0)
(3.00959 0.0238138 0)
(2.41742 0.659809 0)
(1.59624 0.98007 0)
(1.55329 0.962791 0)
(1.59491 0.945423 0)
(3 7.17165e-18 0)
(3 -8.11361e-17 0)
(3 -1.18347e-16 0)
(3 -3.9199e-16 0)
(3 1.7543e-16 0)
(3 3.59833e-16 0)
(3 4.81918e-16 0)
(3 6.97019e-17 0)
(3 3.47995e-16 0)
(3 7.27655e-16 0)
(3 7.65212e-16 0)
(3 6.10657e-16 0)
(3 6.23326e-16 0)
(3 1.59839e-15 0)
(3 1.68217e-15 0)
(3 1.69883e-15 0)
(3 -1.77e-13 0)
(3 -4.27611e-12 0)
(3 4.57159e-09 0)
(3.00008 0.000610229 0)
(2.9858 0.117099 0)
(2.07659 0.825489 0)
(1.62154 0.973253 0)
(1.61971 0.968984 0)
(3 2.9458e-16 0)
(3 5.58119e-16 0)
(3 9.9978e-16 0)
(3 8.27695e-16 0)
(3 4.7117e-16 0)
(3 2.24188e-16 0)
(3 2.20144e-16 0)
(3 -1.03897e-15 0)
(3 -1.36341e-15 0)
(3 -3.87082e-16 0)
(3 1.32703e-15 0)
(3 1.29397e-15 0)
(3 1.06961e-15 0)
(3 1.21936e-15 0)
(3 3.6177e-16 0)
(3 2.0114e-16 0)
(3 -5.25213e-15 0)
(3 -1.47578e-12 0)
(3 -1.03636e-12 0)
(3 1.22328e-06 0)
(3.00111 0.00596573 0)
(2.81272 0.325021 0)
(1.90617 0.909008 0)
(1.66307 0.982724 0)
(3 9.09589e-17 0)
(3 2.88715e-16 0)
(3 4.61542e-16 0)
(3 4.37716e-16 0)
(3 3.1894e-16 0)
(3 -9.07575e-18 0)
(3 -6.88726e-16 0)
(3 -1.37212e-15 0)
(3 -1.1352e-15 0)
(3 -6.94487e-16 0)
(3 -5.39788e-16 0)
(3 6.06676e-16 0)
(3 8.75836e-16 0)
(3 8.4192e-16 0)
(3 8.08488e-16 0)
(3 5.43712e-16 0)
(3 5.54368e-17 0)
(3 -9.36949e-14 0)
(3 -4.60429e-13 0)
(3 5.86406e-10 0)
(2.99999 4.3298e-05 0)
(2.99972 0.0258224 0)
(2.56412 0.534414 0)
(1.84373 0.952024 0)
(3 3.21895e-17 0)
(3 -8.61142e-17 0)
(3 -3.27171e-16 0)
(3 -2.26306e-16 0)
(3 -4.58884e-18 0)
(3 -1.62123e-16 0)
(3 -2.27623e-16 0)
(3 -1.77849e-16 0)
(3 1.77686e-16 0)
(3 -4.39818e-17 0)
(3 -2.84142e-16 0)
(3 8.9531e-16 0)
(3 1.60734e-15 0)
(3 1.11557e-15 0)
(3 1.00682e-15 0)
(3 3.011e-16 0)
(3 -3.3256e-16 0)
(3 -7.35752e-16 0)
(3 -5.52995e-14 0)
(3 1.89691e-14 0)
(3 3.86207e-08 0)
(2.99993 0.00058681 0)
(2.98147 0.0687717 0)
(2.35817 0.684096 0)
(3 -9.44693e-17 0)
(3 -4.42038e-16 0)
(3 -4.70088e-16 0)
(3 -6.23694e-17 0)
(3 3.30468e-16 0)
(3 2.40513e-16 0)
(3 3.75188e-16 0)
(3 1.2513e-15 0)
(3 9.1182e-16 0)
(3 7.0993e-16 0)
(3 7.05733e-16 0)
(3 4.61732e-16 0)
(3 2.90733e-16 0)
(3 6.34569e-16 0)
(3 5.42541e-16 0)
(3 9.66487e-17 0)
(3 -3.05353e-17 0)
(3 6.24417e-16 0)
(3 -6.95752e-16 0)
(3 -7.28297e-16 0)
(3 1.19935e-11 0)
(3 1.17415e-06 0)
(2.99974 0.00287266 0)
(2.92488 0.148838 0)
(3 -3.2703e-16 0)
(3 -3.65044e-16 0)
(3 -2.86118e-16 0)
(3 -2.6313e-16 0)
(3 -3.9396e-16 0)
(3 -3.36019e-16 0)
(3 1.67037e-16 0)
(3 7.91497e-16 0)
(3 1.11253e-15 0)
(3 4.07751e-16 0)
(3 -6.09909e-17 0)
(3 1.36261e-17 0)
(3 -2.28864e-16 0)
(3 2.80401e-16 0)
(3 7.03593e-16 0)
(3 8.89954e-16 0)
(3 9.87418e-16 0)
(3 1.06395e-15 0)
(3 8.09211e-16 0)
(3 2.35486e-16 0)
(3 1.06444e-15 0)
(3 7.84963e-10 0)
(3 1.21163e-05 0)
(2.99862 0.00831886 0)
(3 2.61509e-16 0)
(3 3.87104e-16 0)
(3 2.68508e-16 0)
(3 -2.09359e-16 0)
(3 -8.55666e-16 0)
(3 -6.19235e-16 0)
(3 1.00712e-16 0)
(3 3.27865e-16 0)
(3 5.84635e-16 0)
(3 1.32829e-16 0)
(3 -1.55998e-16 0)
(3 -1.56467e-16 0)
(3 -2.46333e-16 0)
(3 -6.54947e-17 0)
(3 5.21213e-16 0)
(3 9.58646e-16 0)
(3 1.53074e-15 0)
(3 1.2785e-15 0)
(3 8.62909e-16 0)
(3 4.92387e-16 0)
(3 3.38076e-16 0)
(3 7.55909e-14 0)
(3 1.20253e-08 0)
(2.99998 7.04339e-05 0)
(3 1.02669e-16 0)
(3 1.52284e-16 0)
(3 -1.09181e-16 0)
(3 -3.72288e-16 0)
(3 -4.84236e-16 0)
(3 1.62545e-16 0)
(3 -9.83497e-17 0)
(3 1.76388e-16 0)
(3 2.17403e-16 0)
(3 1.32666e-16 0)
(3 3.52402e-16 0)
(3 -5.4437e-17 0)
(3 -3.76453e-16 0)
(3 -7.3142e-16 0)
(3 -6.29655e-16 0)
(3 1.33125e-16 0)
(3 3.68439e-16 0)
(3 1.5012e-16 0)
(3 5.84054e-16 0)
(3 1.16028e-15 0)
(3 1.0707e-15 0)
(3 1.29919e-15 0)
(3 2.36893e-12 0)
(3 9.7354e-08 0)
(3 -1.06302e-16 0)
(3 -3.27257e-16 0)
(3 -4.84833e-16 0)
(3 -2.14902e-16 0)
(3 2.23691e-16 0)
(3 -1.18362e-16 0)
(3 -8.5982e-16 0)
(3 -7.95007e-16 0)
(3 -4.20641e-16 0)
(3 -1.26433e-16 0)
(3 6.14295e-16 0)
(3 5.90654e-16 0)
(3 6.49341e-16 0)
(3 -4.12033e-16 0)
(3 -6.508e-16 0)
(3 -8.8471e-16 0)
(3 -1.466e-15 0)
(3 -1.1254e-15 0)
(3 -4.17307e-16 0)
(3 8.71675e-16 0)
(3 2.25513e-15 0)
(3 2.03824e-15 0)
(3 1.38649e-15 0)
(3 3.38708e-11 0)
(3 -1.66298e-17 0)
(3 -4.44431e-17 0)
(3 2.07331e-16 0)
(3 6.63517e-16 0)
(3 7.87751e-16 0)
(3 8.31021e-16 0)
(3 5.42091e-17 0)
(3 -6.75236e-16 0)
(3 -5.0731e-16 0)
(3 5.34317e-17 0)
(3 -1.4927e-16 0)
(3 2.06403e-16 0)
(3 4.77727e-16 0)
(3 -5.73119e-16 0)
(3 -9.05468e-16 0)
(3 -9.5585e-16 0)
(3 -6.83642e-16 0)
(3 -9.10558e-16 0)
(3 -5.14264e-16 0)
(3 4.31403e-17 0)
(3 1.94389e-15 0)
(3 2.66821e-15 0)
(3 8.45467e-16 0)
(3 4.84586e-15 0)
(3 1.02425e-18 0)
(3 1.33789e-16 0)
(3 5.79261e-16 0)
(3 4.85481e-16 0)
(3 4.35343e-16 0)
(3 4.90689e-16 0)
(3 6.22577e-16 0)
(3 5.71749e-18 0)
(3 -4.85135e-16 0)
(3 -6.26697e-16 0)
(3 -1.26036e-15 0)
(3 -1.03682e-15 0)
(3 -4.73347e-16 0)
(3 -5.6727e-16 0)
(3 -8.7857e-16 0)
(3 -5.32727e-16 0)
(3 8.28132e-16 0)
(3 6.73934e-16 0)
(3 3.28109e-16 0)
(3 7.07485e-16 0)
(3 2.0884e-16 0)
(3 1.25907e-16 0)
(3 6.05756e-16 0)
(3 2.4555e-16 0)
(3 1.03435e-16 0)
(3 4.31592e-16 0)
(3 1.82444e-16 0)
(3 2.0396e-17 0)
(3 1.6847e-17 0)
(3 -2.17498e-17 0)
(3 2.8008e-16 0)
(3 1.98572e-16 0)
(3 -4.90996e-16 0)
(3 -5.51266e-16 0)
(3 -1.10648e-15 0)
(3 -6.86517e-16 0)
(3 -7.32609e-16 0)
(3 -5.74104e-16 0)
(3 -3.59801e-16 0)
(3 -4.08388e-16 0)
(3 4.47189e-16 0)
(3 5.64279e-16 0)
(3 3.81932e-16 0)
(3 -6.65447e-16 0)
(3 -1.89034e-15 0)
(3 -2.69645e-15 0)
(3 -1.16457e-15 0)
(3 -8.66125e-16 0)
(3 3.85003e-17 0)
(3 7.3176e-17 0)
(3 -5.86798e-17 0)
(3 2.99818e-16 0)
(3 1.38736e-16 0)
(3 8.51406e-17 0)
(3 3.11257e-16 0)
(3 8.19681e-16 0)
(3 7.32467e-16 0)
(3 4.68548e-16 0)
(3 4.11888e-16 0)
(3 -1.412e-16 0)
(3 -6.92969e-16 0)
(3 -1.28582e-15 0)
(3 -1.25805e-15 0)
(3 -6.79818e-16 0)
(3 -2.35376e-16 0)
(3 -8.23345e-17 0)
(3 -1.64947e-16 0)
(3 -8.81708e-16 0)
(3 -1.2728e-15 0)
(3 -9.562e-16 0)
(3 -7.73108e-16 0)
(3 -5.81833e-16 0)
(3 -1.28977e-16 0)
(3 -7.09274e-16 0)
(3 -7.0849e-16 0)
(3 -5.71e-16 0)
(3 -6.60416e-16 0)
(3 -9.36379e-16 0)
(3 -8.2507e-16 0)
(3 2.40444e-16 0)
(3 7.13403e-16 0)
(3 2.24078e-16 0)
(3 -3.80785e-16 0)
(3 -1.11546e-15 0)
(3 -1.25506e-15 0)
(3 -1.37612e-15 0)
(3 -1.78325e-15 0)
(3 -1.45015e-15 0)
(3 -1.49178e-15 0)
(3 -1.34437e-16 0)
(3 -2.50311e-17 0)
(3 -1.17267e-17 0)
(3 -3.02835e-16 0)
(3 -1.1051e-15 0)
(3 -1.98072e-15 0)
(3 -2.28739e-15 0)
(3 -9.97718e-17 0)
(3 -4.16699e-16 0)
(3 -4.57383e-16 0)
(3 -6.98048e-16 0)
(3 -8.93422e-16 0)
(3 -1.0738e-15 0)
(3 -1.03813e-15 0)
(3 -4.64591e-16 0)
(3 5.27311e-17 0)
(3 -4.2683e-16 0)
(3 -1.14022e-15 0)
(3 -1.25087e-15 0)
(3 -9.57235e-16 0)
(3 -5.24239e-16 0)
(3 -6.82875e-16 0)
(3 -1.04653e-15 0)
(3 -9.7509e-16 0)
(3 -8.04454e-16 0)
(3 -5.10889e-16 0)
(3 -1.43573e-16 0)
(3 -3.00443e-16 0)
(3 -1.01247e-15 0)
(3 -1.55235e-15 0)
(3 -1.0765e-15 0)
(1.53024 1.29801 0)
(1.80738 1.49613 0)
(2.43002 1.04748 0)
(2.68809 0.876266 0)
(2.60175 0.362759 0)
(2.65869 0.0505747 0)
(2.63245 -0.327265 0)
(2.61033 -0.42541 0)
(2.53476 -0.284306 0)
(2.47691 -0.261846 0)
(2.45061 -0.312873 0)
(2.48533 -0.273734 0)
(2.47831 -0.157766 0)
(2.46486 -0.118461 0)
(2.46143 -0.0954122 0)
(2.4614 -0.0723353 0)
(2.46658 -0.0543185 0)
(2.47075 -0.0521831 0)
(2.48369 -0.0508894 0)
(2.51148 -0.025676 0)
(2.51685 -0.00912705 0)
(2.50833 -0.0109687 0)
(2.50305 -0.0165036 0)
(2.50409 -0.0174452 0)
(2.50296 -0.0127089 0)
(2.49438 -0.00218003 0)
(2.48702 -0.000763929 0)
(2.49377 -0.00436028 0)
(2.50673 -0.00655957 0)
(2.51971 -0.00607393 0)
(2.52753 -0.00535082 0)
(2.53132 -0.00556133 0)
(2.53232 -0.0059377 0)
(2.52978 -0.00666803 0)
(2.528 -0.00632592 0)
(2.53012 -0.00290925 0)
(2.53534 0.000463646 0)
(2.53978 0.0015374 0)
(2.54525 0.00163753 0)
(2.55013 1.22453e-05 0)
(2.55412 -0.000726113 0)
(2.55946 -0.000295575 0)
(2.56239 0.000737542 0)
(2.563 0.000629258 0)
(2.56844 1.45622e-05 0)
(2.57553 -0.000584534 0)
(2.58418 -0.000399967 0)
(2.59313 0.000368477 0)
(2.60063 0.00258955 0)
(2.60383 -0.00128864 0)
(2.59444 -0.0168785 0)
(2.5388 -0.0738376 0)
(2.41669 -0.176791 0)
(2.27998 -0.263361 0)
(2.15764 -0.322763 0)
(2.11232 -0.322135 0)
(2.0982 -0.31587 0)
(2.07977 -0.255176 0)
(2.05972 -0.194522 0)
(2.05456 -0.134387 0)
(2.08036 -0.0790617 0)
(2.10419 -0.0435177 0)
(2.12749 -0.00838925 0)
(2.16407 0.0136079 0)
(2.20473 0.0148392 0)
(2.23707 0.0188437 0)
(2.25648 0.0232225 0)
(2.27804 0.0183491 0)
(2.30616 0.0152839 0)
(2.33485 0.0180157 0)
(2.35864 0.0204248 0)
(2.37693 0.0188462 0)
(2.38854 0.0154826 0)
(2.39637 0.0141192 0)
(2.41567 0.0145857 0)
(2.43527 0.014236 0)
(2.45522 0.0121041 0)
(2.48227 0.00877914 0)
(2.50493 0.00761168 0)
(2.52819 0.00761325 0)
(2.54709 0.0102908 0)
(2.54822 0.0155912 0)
(2.53977 0.017626 0)
(2.55117 0.018453 0)
(2.57138 0.0185503 0)
(2.59118 0.0182359 0)
(2.6115 0.0169508 0)
(2.63609 0.0128796 0)
(2.65872 0.0095117 0)
(2.68613 0.00921543 0)
(2.7139 0.00881611 0)
(2.73101 0.00888482 0)
(2.724 0.0123499 0)
(2.71134 0.0191038 0)
(2.72174 0.0218815 0)
(2.74693 0.0214829 0)
(1.79522 1.11962 0)
(2.2832 0.981946 0)
(2.64738 0.370184 0)
(2.7271 0.0159631 0)
(2.74971 -0.192582 0)
(2.81298 -0.401335 0)
(2.83603 -0.621968 0)
(2.79731 -0.692419 0)
(2.76248 -0.612482 0)
(2.7002 -0.469363 0)
(2.65154 -0.393895 0)
(2.60067 -0.303304 0)
(2.54754 -0.17662 0)
(2.5165 -0.118167 0)
(2.5088 -0.113188 0)
(2.5076 -0.0777284 0)
(2.51116 -0.0399004 0)
(2.51206 -0.0349917 0)
(2.52458 -0.0326703 0)
(2.53426 0.00368862 0)
(2.53399 0.0255268 0)
(2.51936 0.0190148 0)
(2.50635 -0.00607212 0)
(2.51221 -0.0231041 0)
(2.51323 -0.0203643 0)
(2.50778 -0.00763899 0)
(2.50308 -0.00396184 0)
(2.50759 -0.0103297 0)
(2.52361 -0.0146849 0)
(2.53568 -0.0128081 0)
(2.54567 -0.00901831 0)
(2.55043 -0.00720327 0)
(2.55355 -0.00665493 0)
(2.55223 -0.00650712 0)
(2.55056 -0.00546567 0)
(2.55119 -0.00140489 0)
(2.55319 0.00753273 0)
(2.5585 0.0118299 0)
(2.56158 0.0122477 0)
(2.56486 0.00948871 0)
(2.56878 0.00316128 0)
(2.57144 -0.00016801 0)
(2.57527 -0.00229248 0)
(2.57804 -0.00259674 0)
(2.58226 -0.00315901 0)
(2.58913 -0.0023956 0)
(2.59774 0.00208875 0)
(2.60602 0.00441837 0)
(2.60383 -0.00721688 0)
(2.58382 -0.0624676 0)
(2.51274 -0.206464 0)
(2.44084 -0.379893 0)
(2.33309 -0.601461 0)
(2.30243 -0.674922 0)
(2.29586 -0.645109 0)
(2.26492 -0.56336 0)
(2.20621 -0.404918 0)
(2.17893 -0.262793 0)
(2.15596 -0.131593 0)
(2.14641 -0.0474877 0)
(2.14538 0.00715473 0)
(2.14635 0.0445781 0)
(2.16095 0.0634206 0)
(2.18659 0.0600989 0)
(2.22277 0.0538421 0)
(2.24817 0.0568976 0)
(2.26792 0.051339 0)
(2.29316 0.0330585 0)
(2.31883 0.0136159 0)
(2.34625 0.0120864 0)
(2.37133 0.0127982 0)
(2.39045 0.00721072 0)
(2.40324 -0.000260321 0)
(2.41203 -8.65474e-06 0)
(2.42732 0.00697392 0)
(2.44881 0.0105343 0)
(2.46926 0.0119962 0)
(2.49314 0.0129284 0)
(2.51637 0.0112067 0)
(2.53831 0.00767767 0)
(2.55753 0.00356467 0)
(2.56871 0.0087193 0)
(2.56687 0.0351676 0)
(2.56466 0.0610421 0)
(2.57958 0.065833 0)
(2.59807 0.0656908 0)
(2.61671 0.0633621 0)
(2.63963 0.054193 0)
(2.66623 0.0359737 0)
(2.68991 0.0193192 0)
(2.71348 0.00598359 0)
(2.73459 -0.00615007 0)
(2.74441 -0.00680175 0)
(2.74057 0.0146138 0)
(2.73547 0.0416432 0)
(2.76156 0.0484464 0)
(1.70301 1.05459 0)
(2.13708 0.840787 0)
(2.308 0.715289 0)
(2.50711 0.445818 0)
(2.65582 0.212538 0)
(2.78365 -0.0547992 0)
(2.78167 -0.276833 0)
(2.78189 -0.267704 0)
(2.81178 -0.299584 0)
(2.81263 -0.354735 0)
(2.8201 -0.469083 0)
(2.79896 -0.484705 0)
(2.72967 -0.404263 0)
(2.69599 -0.334809 0)
(2.68172 -0.298013 0)
(2.63787 -0.227589 0)
(2.61399 -0.152655 0)
(2.60463 -0.126164 0)
(2.60766 -0.111673 0)
(2.59278 -0.0462241 0)
(2.58992 -0.00023735 0)
(2.57562 -0.00237911 0)
(2.56525 -0.0115632 0)
(2.56253 -0.00824471 0)
(2.55843 0.00090391 0)
(2.54894 0.0051198 0)
(2.54543 -0.00220906 0)
(2.55261 -0.0226527 0)
(2.55893 -0.0322621 0)
(2.57248 -0.0293774 0)
(2.58142 -0.0233444 0)
(2.58625 -0.019684 0)
(2.58999 -0.0145523 0)
(2.59069 -0.00966669 0)
(2.58941 -0.00877303 0)
(2.58901 -0.00590661 0)
(2.59045 0.0024879 0)
(2.59312 0.00873479 0)
(2.59712 0.00872579 0)
(2.59974 0.00697422 0)
(2.60084 0.00328368 0)
(2.60163 0.00108977 0)
(2.60451 -0.000507605 0)
(2.60927 0.000128997 0)
(2.61421 0.000831838 0)
(2.62185 0.007874 0)
(2.62195 0.000837514 0)
(2.61433 -0.0305336 0)
(2.56141 -0.137205 0)
(2.491 -0.303667 0)
(2.35691 -0.544745 0)
(2.30773 -0.652875 0)
(2.32404 -0.654079 0)
(2.33009 -0.688736 0)
(2.33304 -0.706738 0)
(2.33484 -0.694868 0)
(2.3338 -0.656929 0)
(2.33865 -0.593006 0)
(2.3521 -0.498112 0)
(2.35663 -0.384468 0)
(2.34644 -0.273704 0)
(2.31625 -0.166834 0)
(2.29401 -0.079896 0)
(2.27733 -0.0259263 0)
(2.27635 0.00769959 0)
(2.28076 0.0425625 0)
(2.29821 0.0581204 0)
(2.3253 0.0566601 0)
(2.34488 0.0588368 0)
(2.36937 0.0592706 0)
(2.39154 0.0613581 0)
(2.41062 0.0593692 0)
(2.42262 0.0525273 0)
(2.4313 0.0500818 0)
(2.44286 0.0555962 0)
(2.45875 0.0598459 0)
(2.47878 0.058528 0)
(2.49905 0.0580971 0)
(2.52088 0.0549892 0)
(2.54068 0.0484287 0)
(2.55879 0.0427341 0)
(2.57636 0.0404217 0)
(2.58966 0.0472014 0)
(2.59382 0.0645551 0)
(2.59646 0.0806896 0)
(2.61274 0.0832396 0)
(2.63201 0.0785781 0)
(2.65359 0.0662155 0)
(2.67117 0.0569063 0)
(2.68788 0.0469914 0)
(2.70437 0.0339835 0)
(2.72156 0.0217487 0)
(2.73917 0.0155993 0)
(2.75505 0.0167019 0)
(2.76403 0.0356511 0)
(2.77918 0.0537929 0)
(1.62573 0.981852 0)
(1.89093 0.911518 0)
(2.13699 0.745528 0)
(2.38819 0.451883 0)
(2.5206 0.307145 0)
(2.54192 0.258555 0)
(2.65401 0.0399369 0)
(2.71295 -0.12354 0)
(2.74156 -0.214467 0)
(2.80025 -0.372337 0)
(2.80683 -0.462203 0)
(2.83006 -0.48035 0)
(2.8083 -0.458229 0)
(2.79346 -0.450975 0)
(2.77626 -0.437875 0)
(2.73381 -0.37178 0)
(2.71224 -0.308788 0)
(2.70331 -0.283266 0)
(2.69609 -0.252295 0)
(2.67607 -0.168588 0)
(2.67629 -0.0955749 0)
(2.67063 -0.0881006 0)
(2.66028 -0.095574 0)
(2.62703 -0.0750251 0)
(2.59657 -0.0351592 0)
(2.58697 0.00328546 0)
(2.58853 0.0164479 0)
(2.5975 0.00971141 0)
(2.60082 0.00653011 0)
(2.60528 0.00559523 0)
(2.61041 0.00136336 0)
(2.61927 -0.0140177 0)
(2.62502 -0.0239969 0)
(2.6283 -0.0239815 0)
(2.62688 -0.0223854 0)
(2.62468 -0.0179508 0)
(2.62328 -0.0100432 0)
(2.6275 0.00151919 0)
(2.63156 0.011006 0)
(2.6326 0.0136433 0)
(2.63255 0.0141222 0)
(2.63297 0.0130387 0)
(2.63613 0.0124874 0)
(2.64021 0.0172637 0)
(2.64819 0.0106445 0)
(2.64475 -0.00747926 0)
(2.61372 -0.069758 0)
(2.54501 -0.21849 0)
(2.41551 -0.465829 0)
(2.34962 -0.5925 0)
(2.34267 -0.621909 0)
(2.31607 -0.678277 0)
(2.30717 -0.707408 0)
(2.31888 -0.709689 0)
(2.34467 -0.70045 0)
(2.36181 -0.682779 0)
(2.3763 -0.660623 0)
(2.38955 -0.65178 0)
(2.40725 -0.640916 0)
(2.41451 -0.611384 0)
(2.41055 -0.549462 0)
(2.39428 -0.4509 0)
(2.3793 -0.335778 0)
(2.35737 -0.220501 0)
(2.3477 -0.137133 0)
(2.3383 -0.0611942 0)
(2.35347 -0.0236645 0)
(2.36476 0.00104807 0)
(2.37261 0.0260929 0)
(2.39275 0.0487759 0)
(2.40592 0.0652416 0)
(2.42235 0.0825485 0)
(2.43507 0.0928385 0)
(2.44481 0.0966571 0)
(2.45511 0.092867 0)
(2.46886 0.0894356 0)
(2.48667 0.0855279 0)
(2.5064 0.0740853 0)
(2.52906 0.0606005 0)
(2.54966 0.0440523 0)
(2.56955 0.0316848 0)
(2.59051 0.0296384 0)
(2.60807 0.0366688 0)
(2.61831 0.0506945 0)
(2.62044 0.0624368 0)
(2.62229 0.0773297 0)
(2.63777 0.0862972 0)
(2.65308 0.0872532 0)
(2.6707 0.081233 0)
(2.6874 0.065824 0)
(2.69984 0.0551958 0)
(2.71398 0.0532814 0)
(2.73255 0.0537415 0)
(2.75401 0.052511 0)
(2.77201 0.0572385 0)
(2.79217 0.0695566 0)
(1.57557 0.942375 0)
(1.78745 0.891813 0)
(2.03779 0.737275 0)
(2.21004 0.580444 0)
(2.29483 0.514712 0)
(2.4371 0.331088 0)
(2.54403 0.133954 0)
(2.59608 0.09194 0)
(2.6289 0.0454553 0)
(2.68761 -0.0883781 0)
(2.71847 -0.225052 0)
(2.73537 -0.257008 0)
(2.73616 -0.285361 0)
(2.76225 -0.354507 0)
(2.77827 -0.388442 0)
(2.78643 -0.383983 0)
(2.78427 -0.378065 0)
(2.77505 -0.385175 0)
(2.75511 -0.36556 0)
(2.73641 -0.30202 0)
(2.73764 -0.223814 0)
(2.74466 -0.193703 0)
(2.73428 -0.199955 0)
(2.68973 -0.16602 0)
(2.64103 -0.094922 0)
(2.63378 -0.0532418 0)
(2.63769 -0.0364049 0)
(2.63345 -0.0153086 0)
(2.628 -0.00876889 0)
(2.61976 -0.00133589 0)
(2.6168 0.00210515 0)
(2.62324 -0.000922865 0)
(2.63358 -0.00392996 0)
(2.64083 -0.0033294 0)
(2.64308 -0.00635819 0)
(2.64285 -0.0125462 0)
(2.64313 -0.0131313 0)
(2.64748 -0.00770209 0)
(2.65089 -0.00375793 0)
(2.65217 -0.0015346 0)
(2.65173 0.00326218 0)
(2.65419 0.00940292 0)
(2.65686 0.0103418 0)
(2.65669 0.00210741 0)
(2.6446 -0.034182 0)
(2.60945 -0.12461 0)
(2.47709 -0.354096 0)
(2.37846 -0.526539 0)
(2.35084 -0.603008 0)
(2.29731 -0.687413 0)
(2.29059 -0.696771 0)
(2.30838 -0.688777 0)
(2.32563 -0.671927 0)
(2.34058 -0.665249 0)
(2.36018 -0.66305 0)
(2.38084 -0.659507 0)
(2.39636 -0.649752 0)
(2.40377 -0.649856 0)
(2.41279 -0.650689 0)
(2.43114 -0.648565 0)
(2.44872 -0.644059 0)
(2.46189 -0.626992 0)
(2.4688 -0.588031 0)
(2.46371 -0.516866 0)
(2.44754 -0.414483 0)
(2.42197 -0.287851 0)
(2.41632 -0.185395 0)
(2.4075 -0.101039 0)
(2.39558 -0.0255486 0)
(2.40759 -0.00621159 0)
(2.42859 0.0131127 0)
(2.44278 0.0393685 0)
(2.45058 0.0695158 0)
(2.4538 0.093728 0)
(2.45776 0.104951 0)
(2.46784 0.113281 0)
(2.47958 0.123629 0)
(2.49674 0.12442 0)
(2.51802 0.120088 0)
(2.54129 0.10688 0)
(2.5649 0.0922812 0)
(2.58979 0.085114 0)
(2.61385 0.0805199 0)
(2.63239 0.076621 0)
(2.64082 0.0783962 0)
(2.63813 0.0973901 0)
(2.63137 0.113165 0)
(2.64079 0.10725 0)
(2.65557 0.0981517 0)
(2.67128 0.0921776 0)
(2.6878 0.0862633 0)
(2.71065 0.0781612 0)
(2.72778 0.0750208 0)
(2.7485 0.074598 0)
(2.76439 0.0762093 0)
(2.79111 0.0820423 0)
(1.54493 0.896821 0)
(1.73872 0.847447 0)
(1.93758 0.746434 0)
(2.08563 0.653377 0)
(2.18919 0.577449 0)
(2.31963 0.448607 0)
(2.4375 0.291948 0)