/*--------------------------------*- C++ -*----------------------------------*\
  =========                 |
  \\      /  F ield         | OpenFOAM: The Open Source CFD Toolbox
   \\    /   O peration     | Website:  https://openfoam.org
    \\  /    A nd           | Version:  7
     \\/     M anipulation  |
\*---------------------------------------------------------------------------*/
FoamFile
{
    version     2.0;
    format      ascii;
    class       volScalarField;
    location    "15";
    object      p;
}
// * * * * * * * * * * * * * * * * * * * * * * * * * * * * * * * * * * * * * //

dimensions      [0 2 -2 0 0 0 0];

internalField   nonuniform List<scalar> 
5650
(
-0.32347
-0.329716
-0.331434
-0.331326
-0.329558
-0.326203
-0.324344
-0.330433
-0.332061
-0.331875
-0.330042
-0.326632
-0.326084
-0.331861
-0.333309
-0.332968
-0.331003
-0.327485
-0.32867
-0.333985
-0.335164
-0.334592
-0.33243
-0.328749
-0.323681
-0.332077
-0.336785
-0.33761
-0.336731
-0.334307
-0.330408
-0.325158
-0.336272
-0.340235
-0.340622
-0.339362
-0.336611
-0.33244
-0.326962
-0.341215
-0.344305
-0.344173
-0.342461
-0.339319
-0.334822
-0.32907
-0.346864
-0.348961
-0.348234
-0.345999
-0.342404
-0.337526
-0.331454
-0.35317
-0.354167
-0.352772
-0.349946
-0.345837
-0.340525
-0.334087
-0.360087
-0.359885
-0.357754
-0.354273
-0.349591
-0.343794
-0.336943
-0.367567
-0.366078
-0.363148
-0.35895
-0.353639
-0.347305
-0.339998
-0.331732
-0.375565
-0.372707
-0.368921
-0.36395
-0.357955
-0.351037
-0.343231
-0.334538
-0.384033
-0.379739
-0.375043
-0.369245
-0.362517
-0.354969
-0.346624
-0.337468
-0.392931
-0.387139
-0.381485
-0.374813
-0.367306
-0.359086
-0.350162
-0.340509
-0.40222
-0.394875
-0.388221
-0.380633
-0.372305
-0.363375
-0.353838
-0.343653
-0.332738
-0.411863
-0.402918
-0.395227
-0.386685
-0.377501
-0.367827
-0.357643
-0.346896
-0.335485
-0.421826
-0.411239
-0.402479
-0.392952
-0.382883
-0.372435
-0.361575
-0.350235
-0.338296
-0.432076
-0.419809
-0.409956
-0.39942
-0.38844
-0.377194
-0.365631
-0.353667
-0.341168
-0.327955
-0.44258
-0.428599
-0.417635
-0.406072
-0.394162
-0.382097
-0.369806
-0.357189
-0.344093
-0.330328
-0.453302
-0.437581
-0.425492
-0.41289
-0.400039
-0.387137
-0.374094
-0.360791
-0.347058
-0.332696
-0.31751
-0.464203
-0.44672
-0.4335
-0.419856
-0.406054
-0.392302
-0.378483
-0.364457
-0.350039
-0.335023
-0.319231
-0.47524
-0.455978
-0.441629
-0.426944
-0.412189
-0.397573
-0.382951
-0.368162
-0.353002
-0.337261
-0.320779
-0.303463
-0.486362
-0.465313
-0.449843
-0.434124
-0.418417
-0.402925
-0.387471
-0.371869
-0.355899
-0.339349
-0.322078
-0.304039
-0.285828
-0.49751
-0.474674
-0.458098
-0.441359
-0.424703
-0.408322
-0.392002
-0.375531
-0.358673
-0.341219
-0.323048
-0.304154
-0.285151
-0.508612
-0.484001
-0.466342
-0.448602
-0.431002
-0.413716
-0.396491
-0.379086
-0.361254
-0.342794
-0.323611
-0.303742
-0.283783
-0.262233
-0.519589
-0.493225
-0.474513
-0.455797
-0.437258
-0.419049
-0.400871
-0.382459
-0.36356
-0.343988
-0.323685
-0.302738
-0.281714
-0.259321
-0.245038
-0.530348
-0.502266
-0.482541
-0.462875
-0.443404
-0.424247
-0.405062
-0.385563
-0.365498
-0.344711
-0.323191
-0.301084
-0.278936
-0.25572
-0.239516
-0.540781
-0.511036
-0.490341
-0.469757
-0.449356
-0.429224
-0.408972
-0.388299
-0.36697
-0.344869
-0.322049
-0.298728
-0.275441
-0.251439
-0.233523
-0.55077
-0.51943
-0.49782
-0.476349
-0.455022
-0.43388
-0.412494
-0.390558
-0.367867
-0.344367
-0.320185
-0.295621
-0.271218
-0.246485
-0.227108
-0.560184
-0.527335
-0.50487
-0.482549
-0.460293
-0.438102
-0.415511
-0.392223
-0.368082
-0.34311
-0.317528
-0.291723
-0.266254
-0.240862
-0.220274
-0.568879
-0.534628
-0.511373
-0.488237
-0.46505
-0.441766
-0.417897
-0.393171
-0.367502
-0.341007
-0.314013
-0.286996
-0.260535
-0.234568
-0.213002
-0.5767
-0.541171
-0.517201
-0.493286
-0.46916
-0.444738
-0.419518
-0.393278
-0.366018
-0.337974
-0.309583
-0.281408
-0.254052
-0.227602
-0.205266
-0.583483
-0.54682
-0.522212
-0.497556
-0.472483
-0.446875
-0.420237
-0.392416
-0.363526
-0.333931
-0.304185
-0.274934
-0.246791
-0.219961
-0.197036
-0.589056
-0.551421
-0.526258
-0.500899
-0.47487
-0.448029
-0.419914
-0.390464
-0.359927
-0.328809
-0.297778
-0.267552
-0.238747
-0.211643
-0.18829
-0.593241
-0.554814
-0.529184
-0.503158
-0.476165
-0.448052
-0.418412
-0.387305
-0.355132
-0.322545
-0.290328
-0.259248
-0.229913
-0.202647
-0.17901
-0.595854
-0.556833
-0.530827
-0.504175
-0.476209
-0.446791
-0.415596
-0.382828
-0.349059
-0.315091
-0.281806
-0.250011
-0.220288
-0.192973
-0.169181
-0.596715
-0.557311
-0.531023
-0.503784
-0.474846
-0.444102
-0.411339
-0.376936
-0.34164
-0.306404
-0.272196
-0.239836
-0.209871
-0.182624
-0.158798
-0.595641
-0.55608
-0.529606
-0.501824
-0.471919
-0.439842
-0.405526
-0.369539
-0.332819
-0.296455
-0.261484
-0.228723
-0.198667
-0.171605
-0.147858
-0.592456
-0.552972
-0.526413
-0.498134
-0.467277
-0.43388
-0.39805
-0.360565
-0.32255
-0.285224
-0.249669
-0.216677
-0.186683
-0.159924
-0.136364
-0.586989
-0.547829
-0.521285
-0.492561
-0.460781
-0.426098
-0.388822
-0.349953
-0.310804
-0.272701
-0.236753
-0.203707
-0.173929
-0.147589
-0.124323
-0.579083
-0.540496
-0.514071
-0.484961
-0.452301
-0.416389
-0.377764
-0.337658
-0.29756
-0.258886
-0.222745
-0.189827
-0.160419
-0.134614
-0.111746
-0.568591
-0.530833
-0.504631
-0.475203
-0.441722
-0.404666
-0.364821
-0.323653
-0.282815
-0.243788
-0.207663
-0.175054
-0.146169
-0.121015
-0.0986474
-0.555384
-0.51871
-0.49284
-0.463169
-0.428948
-0.390857
-0.34995
-0.307925
-0.266576
-0.227426
-0.191529
-0.159412
-0.1312
-0.106811
-0.0850457
-0.539353
-0.504018
-0.478588
-0.448762
-0.413901
-0.374913
-0.333131
-0.290475
-0.248861
-0.209829
-0.174374
-0.142927
-0.115537
-0.0920225
-0.0709552
-0.520409
-0.486665
-0.461786
-0.431905
-0.396524
-0.356804
-0.314362
-0.271324
-0.229702
-0.191031
-0.156231
-0.125634
-0.0992096
-0.0766807
-0.056384
-0.498488
-0.46658
-0.442367
-0.412541
-0.376784
-0.336523
-0.293658
-0.250504
-0.209142
-0.171078
-0.137144
-0.107568
-0.0822502
-0.0608213
-0.0413681
-0.473552
-0.443718
-0.420287
-0.390641
-0.354672
-0.314084
-0.271056
-0.228064
-0.187234
-0.150021
-0.117159
-0.0887712
-0.0646921
-0.0444411
-0.0260095
-0.445591
-0.418059
-0.395529
-0.366199
-0.330203
-0.289525
-0.246608
-0.204067
-0.164044
-0.127922
-0.0963298
-0.0692927
-0.0465831
-0.0275985
-0.0102843
-0.414624
-0.389611
-0.368102
-0.339239
-0.303417
-0.262904
-0.220387
-0.178591
-0.139644
-0.104847
-0.0747193
-0.0491832
-0.0279625
-0.0103408
0.00577343
-0.380702
-0.358409
-0.338044
-0.309808
-0.274379
-0.234301
-0.192481
-0.151723
-0.114121
-0.0808748
-0.0523897
-0.0285003
-0.00888075
0.00728998
0.0221201
-0.343904
-0.324519
-0.305421
-0.277984
-0.243181
-0.203816
-0.162993
-0.123565
-0.0875656
-0.0560852
-0.0294145
-0.00730617
0.010608
0.0252473
0.0387098
-0.304341
-0.288037
-0.27033
-0.24387
-0.209935
-0.17157
-0.132044
-0.09423
-0.0600804
-0.0305675
-0.005871
0.014332
0.0304458
0.0434801
0.0554928
-0.262156
-0.249086
-0.232895
-0.2076
-0.174776
-0.137697
-0.0997676
-0.0638412
-0.0317746
-0.00441735
0.0181584
0.0363422
0.0505704
0.0619337
0.0724138
-0.217521
-0.20782
-0.193269
-0.169331
-0.13785
-0.102358
-0.06631
-0.0325305
-0.00276461
0.0222643
0.042586
0.0586484
0.0709162
0.080549
0.08941
-0.170635
-0.16442
-0.151629
-0.129211
-0.0993675
-0.0657216
-0.0318281
-0.000438947
0.0268264
0.049371
0.0673198
0.0811698
0.0914135
0.0992628
0.106411
-0.121706
-0.119107
-0.108169
-0.0874809
-0.0594999
-0.0279712
0.00351001
0.0322852
0.0568699
0.0767919
0.0922638
0.103822
0.11199
0.118012
0.123343
-0.0709849
-0.0721199
-0.0631294
-0.044348
-0.0184607
0.0106963
0.0395275
0.0654872
0.0872323
0.104412
0.117318
0.126518
0.132577
0.136743
0.140098
-0.0188182
-0.0236644
-0.016754
-5.05679e-05
0.0235222
0.0500735
0.0760404
0.099007
0.117776
0.132114
0.142381
0.14917
0.153116
0.155402
0.156448
0.0345465
0.0259492
0.0306895
0.0451556
0.0662103
0.089945
0.112859
0.13268
0.14836
0.159776
0.167346
0.171693
0.173545
0.173857
0.172076
0.0887971
0.0764238
0.0789179
0.0910018
0.109356
0.130088
0.149787
0.166339
0.178842
0.187276
0.192111
0.194001
0.193766
0.191826
0.186989
0.143599
0.127452
0.127635
0.137209
0.152702
0.170275
0.186628
0.199814
0.209076
0.214491
0.21657
0.216008
0.213644
0.209013
0.20193
0.198606
0.178711
0.176533
0.183489
0.195989
0.210275
0.223182
0.232934
0.238916
0.241295
0.240619
0.237612
0.233108
0.226411
0.218065
0.253467
0.229871
0.225296
0.229549
0.238951
0.249856
0.259248
0.265528
0.268219
0.267566
0.264151
0.25871
0.252041
0.243452
0.233913
0.307823
0.280592
0.273604
0.275092
0.281323
0.288785
0.294627
0.297427
0.296838
0.293178
0.287058
0.279212
0.270388
0.259949
0.249159
0.361311
0.330535
0.321134
0.319823
0.322841
0.326832
0.329121
0.328462
0.324632
0.318013
0.309237
0.299029
0.288088
0.27585
0.263718
0.41357
0.379358
0.367564
0.363446
0.363242
0.36377
0.362538
0.358471
0.351462
0.341951
0.330585
0.318077
0.305074
0.291096
0.277581
0.464244
0.426725
0.412578
0.405673
0.402271
0.399379
0.394688
0.387292
0.377192
0.364878
0.351006
0.336272
0.321278
0.305625
0.290725
0.512983
0.472303
0.455863
0.446221
0.43968
0.433443
0.425389
0.414772
0.401692
0.386683
0.370406
0.353537
0.336635
0.319381
0.303118
0.559446
0.515771
0.497119
0.484817
0.475228
0.465758
0.454467
0.440762
0.424837
0.407259
0.388695
0.369795
0.351082
0.332311
0.314724
0.603307
0.556821
0.536057
0.5212
0.508688
0.496126
0.481754
0.465122
0.446506
0.426506
0.405787
0.384976
0.364559
0.344363
0.32551
0.644257
0.595158
0.572402
0.555123
0.539842
0.524363
0.507094
0.487719
0.466588
0.444329
0.421602
0.399011
0.37701
0.355491
0.335443
0.682002
0.630506
0.605897
0.586356
0.568491
0.550296
0.53034
0.508429
0.484979
0.460638
0.436064
0.411836
0.388381
0.365649
0.344491
0.716273
0.662609
0.636304
0.614683
0.594447
0.573766
0.551358
0.527139
0.501581
0.475352
0.449103
0.423392
0.398622
0.374794
0.352621
0.746824
0.691234
0.663406
0.639912
0.617541
0.594629
0.570026
0.543744
0.516306
0.488396
0.460657
0.433627
0.407687
0.382887
0.359805
0.773435
0.716172
0.687008
0.661869
0.637625
0.612757
0.586235
0.558153
0.529078
0.499703
0.470668
0.442492
0.415537
0.389892
0.366015
0.795913
0.737239
0.706941
0.680402
0.654565
0.628039
0.59989
0.570285
0.539827
0.509217
0.479089
0.449945
0.422134
0.39578
0.371229
0.814094
0.754282
0.723063
0.695385
0.668253
0.640379
0.610911
0.580074
0.548496
0.516887
0.485876
0.455951
0.42745
0.400522
0.375425
0.827847
0.767176
0.735258
0.706714
0.678597
0.649701
0.619234
0.587464
0.555039
0.522675
0.490996
0.460481
0.431458
0.404098
0.378587
0.837072
0.775825
0.743436
0.71431
0.685532
0.655948
0.62481
0.592414
0.559421
0.526551
0.494424
0.463513
0.434141
0.406491
0.380702
0.841702
0.780165
0.747541
0.718121
0.68901
0.659081
0.627607
0.594896
0.561618
0.528494
0.496142
0.465033
0.435485
0.407691
0.381762
0.841702
0.780165
0.747541
0.718121
0.68901
0.659081
0.627607
0.594896
0.561618
0.528494
0.496142
0.465033
0.435485
0.407691
0.381762
0.837072
0.775825
0.743436
0.71431
0.685532
0.655948
0.62481
0.592414
0.559421
0.526551
0.494424
0.463513
0.434141
0.406491
0.380702
0.827847
0.767176
0.735258
0.706714
0.678597
0.649701
0.619234
0.587464
0.555039
0.522675
0.490996
0.460481
0.431458
0.404098
0.378587
0.814094
0.754282
0.723063
0.695385
0.668253
0.640379
0.610911
0.580074
0.548496
0.516887
0.485876
0.455951
0.42745
0.400522
0.375425
0.795913
0.737239
0.706941
0.680402
0.654565
0.628039
0.59989
0.570285
0.539827
0.509217
0.479089
0.449945
0.422134
0.39578
0.371229
0.773435
0.716172
0.687008
0.661869
0.637625
0.612757
0.586235
0.558153
0.529078
0.499703
0.470668
0.442492
0.415537
0.389892
0.366015
0.746824
0.691234
0.663406
0.639912
0.617541
0.594629
0.570026
0.543744
0.516306
0.488396
0.460657
0.433627
0.407687
0.382887
0.359805
0.716273
0.662609
0.636304
0.614683
0.594447
0.573766
0.551358
0.527139
0.501581
0.475352
0.449103
0.423392
0.398622
0.374794
0.352621
0.682002
0.630506
0.605897
0.586356
0.568491
0.550296
0.53034
0.508429
0.484979
0.460638
0.436064
0.411836
0.388381
0.365649
0.344491
0.644257
0.595158
0.572402
0.555123
0.539842
0.524363
0.507094
0.487719
0.466588
0.444329
0.421602
0.399011
0.37701
0.355491
0.335443
0.603307
0.556821
0.536057
0.5212
0.508688
0.496126
0.481754
0.465122
0.446506
0.426506
0.405787
0.384976
0.364559
0.344363
0.32551
0.559446
0.515771
0.497119
0.484817
0.475228
0.465758
0.454467
0.440762
0.424837
0.407259
0.388695
0.369795
0.351082
0.332311
0.314724
0.512983
0.472303
0.455863
0.446221
0.43968
0.433443
0.425389
0.414772
0.401692
0.386683
0.370406
0.353537
0.336635
0.319381
0.303118
0.464244
0.426725
0.412578
0.405673
0.402271
0.399379
0.394688
0.387292
0.377192
0.364878
0.351006
0.336272
0.321278
0.305625
0.290725
0.41357
0.379358
0.367564
0.363446
0.363242
0.36377
0.362538
0.358471
0.351462
0.341951
0.330585
0.318077
0.305074
0.291096
0.277581
0.361311
0.330535
0.321134
0.319823
0.322841
0.326832
0.329121
0.328462
0.324632
0.318013
0.309237
0.299029
0.288088
0.27585
0.263718
0.307823
0.280592
0.273604
0.275092
0.281323
0.288785
0.294627
0.297427
0.296838
0.293178
0.287058
0.279212
0.270387
0.259949
0.249159
0.253467
0.229871
0.225296
0.229549
0.238951
0.249856
0.259248
0.265528
0.268219
0.267566
0.264151
0.25871
0.252041
0.243452
0.233913
0.198606
0.178711
0.176533
0.183489
0.195989
0.210275
0.223182
0.232934
0.238916
0.241295
0.240619
0.237612
0.233108
0.226411
0.218065
0.143599
0.127452
0.127635
0.137209
0.152702
0.170275
0.186628
0.199814
0.209076
0.214491
0.21657
0.216008
0.213644
0.209013
0.20193
0.088797
0.0764237
0.0789179
0.0910018
0.109356
0.130088
0.149787
0.166339
0.178842
0.187276
0.192111
0.194001
0.193766
0.191826
0.186989
0.0345465
0.0259491
0.0306894
0.0451556
0.0662103
0.089945
0.112859
0.13268
0.14836
0.159776
0.167346
0.171693
0.173545
0.173857
0.172076
-0.0188182
-0.0236644
-0.016754
-5.05804e-05
0.0235221
0.0500735
0.0760404
0.099007
0.117776
0.132114
0.142381
0.14917
0.153116
0.155402
0.156448
-0.0709849
-0.0721199
-0.0631294
-0.044348
-0.0184607
0.0106962
0.0395275
0.0654872
0.0872323
0.104412
0.117318
0.126518
0.132577
0.136743
0.140098
-0.121706
-0.119107
-0.108169
-0.0874809
-0.0594999
-0.0279712
0.00351
0.0322852
0.0568699
0.0767919
0.0922637
0.103822
0.11199
0.118012
0.123343
-0.170635
-0.16442
-0.151629
-0.129211
-0.0993675
-0.0657216
-0.0318281
-0.000438962
0.0268264
0.049371
0.0673198
0.0811698
0.0914135
0.0992628
0.106411
-0.217521
-0.20782
-0.193269
-0.169331
-0.13785
-0.102358
-0.06631
-0.0325305
-0.00276463
0.0222642
0.042586
0.0586483
0.0709162
0.0805489
0.08941
-0.262156
-0.249086
-0.232895
-0.2076
-0.174776
-0.137697
-0.0997677
-0.0638412
-0.0317746
-0.00441737
0.0181584
0.0363422
0.0505704
0.0619337
0.0724138
-0.304341
-0.288037
-0.27033
-0.24387
-0.209935
-0.17157
-0.132044
-0.09423
-0.0600804
-0.0305676
-0.00587102
0.0143319
0.0304458
0.0434801
0.0554928
-0.343904
-0.324519
-0.305421
-0.277984
-0.243181
-0.203816
-0.162994
-0.123565
-0.0875656
-0.0560852
-0.0294146
-0.00730619
0.010608
0.0252472
0.0387098
-0.380702
-0.358409
-0.338044
-0.309808
-0.274379
-0.234301
-0.192481
-0.151723
-0.114121
-0.0808748
-0.0523897
-0.0285003
-0.00888077
0.00728997
0.0221201
-0.414624
-0.389611
-0.368102
-0.339239
-0.303417
-0.262904
-0.220387
-0.178591
-0.139644
-0.104847
-0.0747193
-0.0491833
-0.0279626
-0.0103408
0.00577341
-0.445591
-0.418059
-0.395529
-0.366199
-0.330203
-0.289525
-0.246608
-0.204067
-0.164044
-0.127922
-0.0963299
-0.0692928
-0.0465831
-0.0275986
-0.0102843
-0.473552
-0.443718
-0.420287
-0.390641
-0.354672
-0.314084
-0.271056
-0.228064
-0.187234
-0.150021
-0.117159
-0.0887712
-0.0646921
-0.0444412
-0.0260095
-0.498488
-0.46658
-0.442367
-0.412541
-0.376784
-0.336523
-0.293658
-0.250504
-0.209142
-0.171078
-0.137144
-0.107568
-0.0822503
-0.0608213
-0.0413682
-0.520409
-0.486665
-0.461786
-0.431905
-0.396524
-0.356804
-0.314362
-0.271324
-0.229702
-0.191031
-0.156231
-0.125634
-0.0992097
-0.0766807
-0.056384
-0.539353
-0.504018
-0.478588
-0.448763
-0.413901
-0.374913
-0.333131
-0.290475
-0.248861
-0.209829
-0.174374
-0.142927
-0.115537
-0.0920226
-0.0709552
-0.555384
-0.51871
-0.49284
-0.463169
-0.428948
-0.390857
-0.34995
-0.307925
-0.266576
-0.227426
-0.191529
-0.159412
-0.131201
-0.106811
-0.0850458
-0.568591
-0.530833
-0.504631
-0.475203
-0.441722
-0.404666
-0.364821
-0.323654
-0.282815
-0.243788
-0.207663
-0.175054
-0.146169
-0.121015
-0.0986474
-0.579083
-0.540496
-0.514071
-0.484962
-0.452301
-0.416389
-0.377764
-0.337658
-0.29756
-0.258886
-0.222745
-0.189827
-0.160419
-0.134614
-0.111746
-0.586989
-0.547829
-0.521285
-0.492561
-0.460781
-0.426098
-0.388822
-0.349953
-0.310804
-0.272701
-0.236753
-0.203707
-0.173929
-0.147589
-0.124323
-0.592456
-0.552973
-0.526413
-0.498134
-0.467277
-0.43388
-0.398051
-0.360565
-0.32255
-0.285224
-0.249669
-0.216677
-0.186683
-0.159924
-0.136364
-0.595641
-0.55608
-0.529606
-0.501824
-0.471919
-0.439842
-0.405526
-0.369539
-0.332819
-0.296455
-0.261484
-0.228723
-0.198667
-0.171605
-0.147858
-0.596715
-0.557312
-0.531023
-0.503784
-0.474846
-0.444102
-0.411339
-0.376936
-0.34164
-0.306404
-0.272196
-0.239836
-0.209871
-0.182624
-0.158798
-0.595854
-0.556833
-0.530827
-0.504175
-0.476209
-0.446791
-0.415596
-0.382828
-0.349059
-0.315091
-0.281806
-0.250011
-0.220288
-0.192973
-0.169181
-0.593241
-0.554814
-0.529184
-0.503158
-0.476165
-0.448052
-0.418412
-0.387305
-0.355132
-0.322545
-0.290328
-0.259248
-0.229913
-0.202647
-0.17901
-0.589056
-0.551421
-0.526258
-0.500899
-0.47487
-0.448029
-0.419914
-0.390464
-0.359927
-0.328809
-0.297778
-0.267552
-0.238747
-0.211643
-0.18829
-0.583483
-0.54682
-0.522212
-0.497556
-0.472483
-0.446875
-0.420237
-0.392416
-0.363526
-0.333931
-0.304185
-0.274934
-0.246791
-0.219961
-0.197036
-0.5767
-0.541171
-0.517201
-0.493286
-0.46916
-0.444738
-0.419518
-0.393278
-0.366018
-0.337974
-0.309583
-0.281408
-0.254052
-0.227602
-0.205266
-0.568879
-0.534628
-0.511373
-0.488237
-0.46505
-0.441766
-0.417897
-0.393171
-0.367502
-0.341007
-0.314014
-0.286996
-0.260535
-0.234568
-0.213002
-0.560184
-0.527335
-0.50487
-0.482549
-0.460293
-0.438102
-0.415511
-0.392223
-0.368082
-0.34311
-0.317528
-0.291723
-0.266254
-0.240862
-0.220274
-0.55077
-0.51943
-0.49782
-0.476349
-0.455022
-0.43388
-0.412494
-0.390558
-0.367867
-0.344367
-0.320185
-0.295621
-0.271218
-0.246485
-0.227108
-0.540781
-0.511036
-0.490341
-0.469757
-0.449356
-0.429224
-0.408972
-0.388299
-0.36697
-0.344869
-0.322049
-0.298728
-0.275441
-0.251439
-0.233523
-0.530348
-0.502266
-0.482541
-0.462875
-0.443404
-0.424247
-0.405062
-0.385563
-0.365498
-0.344711
-0.323191
-0.301084
-0.278936
-0.25572
-0.239516
-0.519589
-0.493225
-0.474513
-0.455797
-0.437258
-0.419049
-0.400871
-0.382459
-0.36356
-0.343988
-0.323685
-0.302738
-0.281714
-0.259322
-0.245038
-0.508612
-0.484001
-0.466342
-0.448602
-0.431002
-0.413716
-0.396491
-0.379086
-0.361254
-0.342794
-0.323611
-0.303742
-0.283783
-0.262233
-0.49751
-0.474674
-0.458098
-0.441359
-0.424703
-0.408322
-0.392002
-0.375531
-0.358673
-0.341219
-0.323048
-0.304154
-0.285151
-0.486362
-0.465313
-0.449843
-0.434124
-0.418417
-0.402925
-0.387471
-0.37187
-0.355899
-0.339349
-0.322078
-0.304039
-0.47524
-0.455978
-0.44163
-0.426944
-0.412189
-0.397573
-0.382951
-0.368162
-0.353002
-0.337261
-0.320779
-0.303463
-0.464203
-0.44672
-0.4335
-0.419856
-0.406054
-0.392302
-0.378483
-0.364457
-0.350039
-0.335023
-0.319231
-0.453302
-0.437581
-0.425492
-0.41289
-0.400039
-0.387137
-0.374094
-0.360791
-0.347058
-0.332696
-0.31751
-0.44258
-0.428599
-0.417635
-0.406072
-0.394162
-0.382097
-0.369806
-0.357189
-0.344093
-0.330328
-0.432076
-0.419809
-0.409956
-0.39942
-0.38844
-0.377194
-0.365631
-0.353667
-0.341168
-0.327955
-0.421826
-0.411239
-0.402479
-0.392952
-0.382883
-0.372435
-0.361575
-0.350235
-0.338296
-0.411863
-0.402918
-0.395227
-0.386685
-0.377501
-0.367827
-0.357643
-0.346896
-0.335485
-0.40222
-0.394875
-0.388221
-0.380633
-0.372305
-0.363375
-0.353838
-0.343653
-0.332738
-0.392931
-0.387139
-0.381485
-0.374813
-0.367306
-0.359086
-0.350162
-0.340509
-0.384033
-0.379739
-0.375043
-0.369245
-0.362517
-0.354969
-0.346624
-0.337468
-0.375565
-0.372707
-0.368921
-0.36395
-0.357955
-0.351037
-0.343231
-0.334538
-0.367567
-0.366078
-0.363148
-0.35895
-0.353639
-0.347305
-0.339998
-0.331732
-0.360088
-0.359885
-0.357754
-0.354273
-0.349591
-0.343794
-0.336943
-0.35317
-0.354167
-0.352772
-0.349946
-0.345837
-0.340525
-0.334087
-0.346864
-0.348961
-0.348234
-0.345999
-0.342404
-0.337526
-0.331454
-0.341215
-0.344305
-0.344173
-0.342461
-0.339319
-0.334822
-0.32907
-0.336272
-0.340235
-0.340622
-0.339362
-0.336611
-0.33244
-0.326962
-0.332077
-0.336785
-0.33761
-0.336731
-0.334307
-0.330408
-0.325158
-0.32867
-0.333985
-0.335164
-0.334592
-0.33243
-0.328749
-0.323681
-0.326084
-0.331861
-0.333309
-0.332968
-0.331003
-0.327485
-0.324344
-0.330433
-0.332061
-0.331875
-0.330042
-0.326632
-0.32347
-0.329716
-0.331434
-0.331326
-0.329558
-0.326203
-0.110799
-0.104167
-0.0977603
-0.0915492
-0.0855428
-0.0797465
-0.0741597
-0.0687806
-0.0636075
-0.0586383
-0.0538712
-0.0493051
-0.0449393
-0.0407737
-0.0368087
-0.0330433
-0.0294816
-0.0261222
-0.0229717
-0.0200296
-0.0172995
-0.0147858
-0.0124934
-0.0104293
-0.00860208
-0.00702307
-0.00570622
-0.00467384
-0.00394051
-0.00356528
-0.121948
-0.114847
-0.107992
-0.101356
-0.094933
-0.0887264
-0.0827384
-0.0769686
-0.0714155
-0.0660777
-0.0609537
-0.0560429
-0.051345
-0.0468604
-0.0425899
-0.038534
-0.0346958
-0.0310759
-0.0276792
-0.0245071
-0.0215632
-0.0188522
-0.0163794
-0.014152
-0.012179
-0.0104723
-0.00904642
-0.00792437
-0.00712388
-0.0066968
-0.132599
-0.125069
-0.117822
-0.110812
-0.104016
-0.0974366
-0.0910809
-0.0849495
-0.0790418
-0.0733571
-0.067895
-0.0626554
-0.0576391
-0.0528471
-0.0482812
-0.0439428
-0.0398351
-0.0359604
-0.0323229
-0.0289252
-0.0257714
-0.0228664
-0.0202161
-0.0178279
-0.0157113
-0.0138787
-0.0123455
-0.0111352
-0.0102689
-0.00979088
-0.142735
-0.13482
-0.12724
-0.11991
-0.112785
-0.105872
-0.0991832
-0.09272
-0.0864832
-0.0804735
-0.0746918
-0.0691394
-0.063818
-0.05873
-0.0538781
-0.0492652
-0.0448952
-0.0407713
-0.036898
-0.0332791
-0.0299192
-0.0268236
-0.0239986
-0.0214522
-0.0191943
-0.017238
-0.0155993
-0.0143024
-0.0133717
-0.0128442
-0.152341
-0.144086
-0.136239
-0.128645
-0.121237
-0.114031
-0.107043
-0.100278
-0.0937381
-0.0874251
-0.0813422
-0.0754923
-0.0698789
-0.0645058
-0.0593772
-0.0544976
-0.0498718
-0.0455043
-0.0414003
-0.0375644
-0.0340021
-0.0307192
-0.0277225
-0.0250205
-0.0226237
-0.0205458
-0.0188036
-0.0174219
-0.0164287
-0.0158536
-0.161403
-0.152857
-0.144812
-0.137013
-0.12937
-0.121912
-0.114661
-0.107624
-0.100806
-0.0942113
-0.0878451
-0.0817127
-0.0758197
-0.0701719
-0.0647754
-0.0596364
-0.0547611
-0.0501554
-0.0458254
-0.0417768
-0.0380158
-0.0345488
-0.0313835
-0.0285286
-0.0259955
-0.0237983
-0.0219548
-0.0204903
-0.0194366
-0.018816
-0.169907
-0.161123
-0.152957
-0.145016
-0.137186
-0.129516
-0.122038
-0.11476
-0.107689
-0.100833
-0.0942006
-0.0877998
-0.081639
-0.0757264
-0.0700702
-0.0646788
-0.0595599
-0.0547211
-0.0501697
-0.0459124
-0.0419563
-0.0383086
-0.0349775
-0.0319726
-0.0293057
-0.0269916
-0.0250491
-0.0235041
-0.0223919
-0.0217284
-0.177844
-0.16888
-0.160678
-0.152657
-0.144689
-0.13685
-0.12918
-0.121691
-0.11439
-0.107293
-0.10041
-0.0937542
-0.0873364
-0.0811679
-0.0752597
-0.0696221
-0.0642653
-0.0591982
-0.0544296
-0.0499676
-0.0458199
-0.0419948
-0.038501
-0.0353489
-0.0325507
-0.0301223
-0.0280833
-0.0264601
-0.0252918
-0.0245882
-0.185204
-0.17613
-0.167983
-0.159948
-0.151891
-0.143922
-0.136096
-0.128422
-0.120916
-0.113595
-0.106477
-0.0995775
-0.0929123
-0.0864959
-0.0803423
-0.0744645
-0.0688747
-0.0635839
-0.0586023
-0.0539391
-0.0496034
-0.045604
-0.0419505
-0.038654
-0.0357274
-0.0331873
-0.0310543
-0.0293554
-0.0281334
-0.0273928
-0.191988
-0.182883
-0.174891
-0.166908
-0.158805
-0.150747
-0.142797
-0.134967
-0.127275
-0.119746
-0.112405
-0.105273
-0.0983683
-0.0917107
-0.0853174
-0.0792044
-0.0733861
-0.0678757
-0.0626848
-0.0578242
-0.0533037
-0.0491332
-0.0453231
-0.041885
-0.0388327
-0.0361835
-0.0339592
-0.0321872
-0.030914
-0.0301399
-0.198204
-0.189163
-0.181433
-0.173563
-0.165457
-0.157346
-0.149303
-0.141339
-0.133478
-0.125756
-0.118202
-0.110844
-0.103707
-0.0968133
-0.0901849
-0.0838408
-0.0777979
-0.0720716
-0.066675
-0.0616202
-0.0569182
-0.0525797
-0.0486159
-0.0450391
-0.041864
-0.0391085
-0.0367955
-0.0349531
-0.0336314
-0.0328271
-0.203873
-0.195015
-0.187658
-0.179954
-0.17188
-0.163748
-0.15564
-0.14756
-0.139543
-0.131636
-0.123876
-0.116298
-0.108931
-0.101806
-0.0949453
-0.0883731
-0.0821089
-0.0761698
-0.0705707
-0.0653249
-0.0604446
-0.0559411
-0.0518266
-0.048114
-0.0448188
-0.0419598
-0.0395609
-0.0376509
-0.0362833
-0.0354527
-0.209038
-0.200512
-0.193637
-0.186137
-0.178119
-0.169994
-0.161839
-0.153655
-0.14549
-0.137402
-0.129439
-0.121642
-0.114047
-0.10669
-0.0995995
-0.0928014
-0.0863182
-0.0801689
-0.0743703
-0.0689366
-0.0638808
-0.0592154
-0.0549531
-0.0511076
-0.0476952
-0.0447354
-0.0422535
-0.0402787
-0.0388678
-0.0380146
-0.213769
-0.205772
-0.199474
-0.192187
-0.184235
-0.176137
-0.167946
-0.159659
-0.151344
-0.143074
-0.134905
-0.126885
-0.119061
-0.111471
-0.104149
-0.097126
-0.0904252
-0.084068
-0.0780723
-0.0724535
-0.0672252
-0.0624008
-0.0579936
-0.0540181
-0.0504913
-0.0474336
-0.0448714
-0.0428347
-0.0413832
-0.0405113
-0.0816757
-0.0758743
-0.0704765
-0.0654959
-0.0609467
-0.056844
-0.0532056
-0.0500528
-0.0474132
-0.0453175
-0.043828
-0.0429413
-0.0991683
-0.0930435
-0.0871387
-0.0814003
-0.0758522
-0.0705034
-0.0653501
-0.0603903
-0.055622
-0.051043
-0.0466515
-0.0424463
-0.0384265
-0.034592
-0.0309434
-0.0274771
-0.0241962
-0.0211027
-0.0182045
-0.0154975
-0.0129852
-0.0106721
-0.00856305
-0.00666464
-0.00498523
-0.00353571
-0.00232934
-0.00138784
-0.00072269
-0.000399896
-0.0870743
-0.0814944
-0.0761408
-0.0709216
-0.065872
-0.0610044
-0.0563147
-0.0518016
-0.047463
-0.0432958
-0.0392987
-0.0354705
-0.0318107
-0.02832
-0.0249997
-0.0218404
-0.0188448
-0.0160222
-0.0133831
-0.0109163
-0.00862573
-0.00651651
-0.00459352
-0.00286315
-0.00133351
-1.50645e-05
0.00107956
0.00192917
0.00252557
0.00279526
-0.0745372
-0.0695377
-0.0647838
-0.0601304
-0.055617
-0.0512578
-0.0470563
-0.0430169
-0.0391337
-0.0354005
-0.0318164
-0.0283811
-0.0250946
-0.0219587
-0.018974
-0.0161213
-0.0134467
-0.0108953
-0.00851693
-0.0062935
-0.00422779
-0.00232524
-0.00059073
0.000969544
0.00234772
0.00353372
0.00451558
0.00527256
0.00580011
0.00601596
-0.0615722
-0.0571861
-0.0530756
-0.0490258
-0.0450741
-0.0412784
-0.0375966
-0.0340526
-0.030646
-0.0273661
-0.0242116
-0.0211835
-0.0182823
-0.0155095
-0.0128604
-0.0102966
-0.0080338
-0.00573863
-0.00361619
-0.00163676
0.000201886
0.00189543
0.00343936
0.00482775
0.00605303
0.00710552
0.00797383
0.00863798
0.00909604
0.00925982
-0.0481962
-0.0444504
-0.0410087
-0.0375666
-0.0341609
-0.0311215
-0.0279995
-0.0249488
-0.0220266
-0.019213
-0.0165027
-0.0138965
-0.0113951
-0.00900003
-0.0067086
-0.00451423
-0.00248523
-0.000515264
0.00133103
0.00305728
0.00466279
0.00614307
0.00749328
0.00870743
0.00977807
0.0106958
0.0114498
0.012021
0.0124092
0.0125227
-0.0344739
-0.0314038
-0.0286792
-0.0259287
-0.0232215
-0.0206412
-0.0181079
-0.0156361
-0.0132408
-0.0109209
-0.00867655
-0.00650982
-0.00442263
-0.00241693
-0.000492889
0.00134682
0.00308105
0.00474105
0.00630788
0.00777713
0.00914604
0.0104101
0.0115642
0.0126023
0.0135169
0.0142991
0.0149383
0.0154165
0.0157354
0.0158001
-0.0203507
-0.0179857
-0.0160261
-0.0139944
-0.0119673
-0.00999708
-0.00806816
-0.00617417
-0.00432054
-0.00251116
-0.000748674
0.000964098
0.0026242
0.00422884
0.00577591
0.00726112
0.00867473
0.0100269
0.0113096
0.0125173
0.0136459
0.0146908
0.0156465
0.0165067
0.0172642
0.0179101
0.0184343
0.0188199
0.0190699
0.019088
-0.0059136
-0.00427142
-0.00310418
-0.00181483
-0.000483542
0.000830599
0.00213532
0.00343619
0.00472929
0.00601008
0.00727463
0.00851897
0.00973909
0.0109312
0.0120916
0.0132156
0.0142968
0.0153368
0.0163303
0.0172719
0.0181567
0.0189795
0.0197345
0.0204153
0.0210145
0.0215235
0.0219328
0.0222262
0.0224083
0.0223823
0.00881853
0.00972088
0.0100702
0.010593
0.0112052
0.0118376
0.012496
0.0131848
0.0138995
0.014635
0.0153863
0.0161482
0.0169158
0.0176841
0.0184483
0.0192032
0.0199427
0.0206647
0.0213641
0.0220351
0.0226725
0.0232704
0.0238225
0.0243224
0.0247624
0.0251343
0.0254288
0.0256309
0.0257461
0.025679
0.0238169
0.0239651
0.0234738
0.023209
0.0230814
0.023011
0.0230033
0.0230619
0.0231815
0.0233559
0.0235792
0.0238453
0.0241481
0.0244817
0.0248401
0.0252173
0.0256071
0.0260048
0.0264049
0.0268012
0.0271876
0.0275578
0.0279051
0.0282226
0.0285027
0.0287372
0.0289173
0.029029
0.0290787
0.0289738
0.0390487
0.0384335
0.0370828
0.0360131
0.0351286
0.0343376
0.0336465
0.0330584
0.032567
0.0321653
0.0318465
0.0316036
0.0314296
0.0313177
0.0312608
0.0312519
0.0312842
0.0313514
0.031447
0.0315642
0.0316963
0.0318362
0.0319767
0.0321106
0.0322302
0.0323273
0.0323935
0.0324161
0.0324019
0.0322627
0.0544776
0.0530962
0.0508728
0.0489854
0.0473303
0.045804
0.0444141
0.0431641
0.0420468
0.0410545
0.0401801
0.0394157
0.0387534
0.0381855
0.0377039
0.0373007
0.0369681
0.0366986
0.0364846
0.0363186
0.036193
0.0361
0.036032
0.0359812
0.0359398
0.0358996
0.0358527
0.0357876
0.0357112
0.0355417
0.0700634
0.0679209
0.0648169
0.0621032
0.0596669
0.057393
0.0552915
0.0533664
0.0516101
0.0500148
0.0485726
0.0472751
0.0461139
0.04508
0.0441647
0.043359
0.0426543
0.0420418
0.041513
0.0410595
0.0406728
0.0403444
0.040066
0.0398295
0.0396266
0.0394495
0.0392903
0.0391391
0.0390026
0.0388069
0.0857588
0.0828691
0.0788831
0.0753402
0.0721181
0.0690905
0.0662696
0.0636605
0.0612553
0.059046
0.0570248
0.055183
0.0535115
0.0520011
0.0506422
0.0494252
0.0483403
0.047378
0.0465288
0.0457831
0.0451316
0.044565
0.0440745
0.0436511
0.0432865
0.0429726
0.0427023
0.0424665
0.042272
0.0420543
0.101515
0.0979089
0.0930549
0.0886929
0.0846901
0.0809082
0.0773625
0.0740595
0.0709928
0.0681556
0.0655407
0.0631401
0.0609448
0.0589454
0.0571318
0.0554938