/*--------------------------------*- C++ -*----------------------------------*\
  =========                 |
  \\      /  F ield         | OpenFOAM: The Open Source CFD Toolbox
   \\    /   O peration     | Website:  https://openfoam.org
    \\  /    A nd           | Version:  7
     \\/     M anipulation  |
\*---------------------------------------------------------------------------*/
FoamFile
{
    version     2.0;
    format      ascii;
    class       volScalarField;
    location    "17";
    object      p;
}
// * * * * * * * * * * * * * * * * * * * * * * * * * * * * * * * * * * * * * //

dimensions      [1 -1 -2 0 0 0 0];

internalField   nonuniform List<scalar> 
4032
(
1
1
1
1
1
1
1
1
1
1
1
2.20584
9.03542
10.7243
10.847
11.0408
11.2141
11.3809
11.532
11.6641
11.7778
11.8644
11.9261
11.968
1
1
1
1
1
1
1
1
1
1
1
2.11911
8.8879
10.6996
10.8299
11.0197
11.1894
11.3519
11.4985
11.6259
11.7346
11.8158
11.8717
11.9104
1
1
1
1
1
1
1
1
1
1
1
1.92847
8.62324
10.6674
10.7901
10.9777
11.1444
11.3028
11.4447
11.5666
11.6703
11.7478
11.8007
11.8392
1
1
1
1
1
1
1
1
1
1
1
1.66511
8.20341
10.6333
10.7408
10.9197
11.0793
11.2314
11.3683
11.4856
11.5843
11.6548
11.6976
11.73
1
1
1
1
1
1
1
1
1
1
1
1.36229
7.6347
10.5812
10.6577
10.8296
10.9804
11.1204
11.242
11.3409
11.4218
11.4853
11.5247
11.5797
1
1
1
1
1
1
1
1
1
1
1
1.03604
6.859
10.5235
10.6048
10.7452
10.8734
10.9881
11.0891
11.171
11.2355
11.2842
11.2908
11.248
1
1
1
1
1
1
1
1
1
1
1
1.00037
5.86629
10.2497
10.4191
10.5602
10.6906
10.7961
10.8746
10.9278
10.9401
10.8966
10.8224
10.7773
1
1
1
1
1
1
1
1
1
1
1
0.999999
4.72512
9.92263
10.3095
10.4372
10.5488
10.6161
10.6481
10.6506
10.5944
10.509
10.3699
10.3544
1
1
1
1
1
1
1
1
1
1
1
1
3.54218
9.41595
10.2103
10.3251
10.4069
10.4419
10.4292
10.3661
10.221
9.94418
9.17504
7.12686
1
1
1
1
1
1
1
1
1
1
1
1
2.30676
8.58381
10.1798
10.2153
10.2745
10.2663
10.1962
10.054
9.81156
9.32492
8.53911
6.44651
1
1
1
1
1
1
1
1
1
1
1
1
1.2591
7.54227
10.268
10.1309
10.0795
10.0321
9.93117
9.73552
9.43737
8.87893
8.08368
6.11566
1
1
1
1
1
1
1
1
1
1
1
1
1.00766
5.99661
9.74074
9.80855
9.83908
9.77652
9.66572
9.45032
9.12092
8.56862
7.72697
6.22052
1
1
1
1
1
1
1
1
1
1
1
1
0.999972
4.13564
9.27582
9.70769
9.71112
9.64014
9.49805
9.24797
8.8816
8.34629
7.53651
6.4401
1
1
1
1
1
1
1
1
1
1
1
1
0.999993
2.33816
8.4388
9.68972
9.59825
9.51082
9.33695
9.08308
8.72684
8.20689
7.50325
6.72725
1
1
1
1
1
1
1
1
1
1
1
1
0.999999
1.16707
7.01093
9.70688
9.53241
9.38404
9.21058
8.96815
8.62067
8.14634
7.57707
7.03145
1
1
1
1
1
1
1
1
1
1
1
1
1
1.00239
5.0793
9.146
9.33043
9.27616
9.14082
8.90536
8.58543
8.18743
7.73951
7.32057
1
1
1
1
1
1
1
1
1
1
1
1
1
0.999981
2.82044
8.49829
9.4338
9.29687
9.12885
8.90368
8.62165
8.28739
7.91558
7.5612
1
1
1
1
1
1
1
1
1
1
1
1
1
0.999996
1.26054
7.28239
9.50922
9.31019
9.12021
8.93906
8.70087
8.41577
8.09751
7.77284
1
1
1
1
1
1
1
1
1
1
1
1
1
0.999999
1.00603
5.4074
9.13276
9.24591
9.17187
9.03961
8.81779
8.56204
8.27249
7.96873
1
1
1
1
1
1
1
1
1
1
1
1
1
1
0.999956
3.13073
8.75686
9.58899
9.38735
9.17592
8.93219
8.69193
8.42346
8.1422
1
1
1
1
1
1
1
1
1
1
1
1
1
1
0.99999
1.45144
7.89248
9.81429
9.45202
9.24898
9.04298
8.82801
8.58112
8.32044
1
1
1
1
1
1
1
1
1
1
1
1
1
1
0.999998
1.01809
6.51656
9.78402
9.54046
9.36777
9.16453
8.95724
8.72515
8.48558
1
1
1
1
1
1
1
1
1
1
1
1
1
1
1
0.999979
4.76203
9.58014
9.67868
9.50324
9.30763
9.09816
8.8712
8.64457
1
1
1
1
1
1
1
1
1
1
1
1
1
1
1
0.999992
3.21006
9.16803
9.82874
9.59672
9.4145
9.21238
9.00041
8.79116
1
1
1
1
1
1
1
1
1
1
1
1
1
1
1
0.999999
1.99526
8.56864
10.165
9.77558
9.57619
9.36701
9.15805
8.95177
1
1
1
1
1
1
1
1
1
1
1
1
1
1
1
1
1.22157
7.7025
10.2417
9.82926
9.6424
9.45349
9.26157
9.0666
1
1
1
1
1
1
1
1
1
1
1
1
1
1
1
1
1.00603
6.66575
10.225
9.88239
9.71729
9.5439
9.36343
9.17532
1
1
1
1
1
1
1
1
1
1
1
1
1
1
1
1
1.00001
5.61416
10.0892
9.94637
9.78692
9.6261
9.45442
9.27279
1
1
1
1
1
1
1
1
1
1
1
1
1
1
1
1
1
4.66768
9.8675
10.039
9.85323
9.70722
9.53771
9.35944
1
1
1
1
1
1
1
1
1
1
1
1
1
1
1
1
1
3.87197
9.59631
10.0984
9.88634
9.76011
9.60068
9.4361
1
1
1
1
1
1
1
1
1
1
1
1
1
1
1
1
1
3.14763
9.3193
10.2018
9.9588
9.83071
9.66642
9.50034
1
1
1
1
1
1
1
1
1
1
1
1
1
1
1
1
1
2.55114
9.00971
10.3077
10.0141
9.87272
9.70812
9.54654
1
1
1
1
1
1
1
1
1
1
1
1
1
1
1
1
1
2.08274
8.68347
10.3923
10.0657
9.91577
9.74904
9.58595
1
1
1
1
1
1
1
1
1
1
1
1
1
1
1
1
1
1.73332
8.37153
10.4419
10.1083
9.95241
9.78547
9.62125
1
1
1
1
1
1
1
1
1
1
1
1
1
1
1
1
1
1.5413
8.06815
10.4531
10.1313
9.9784
9.81419
9.652
1
1
1
1
1
1
1
1
1
1
1
1
1
1
1
1
1
1.42251
7.80488
10.4316
10.1398
9.99331
9.83364
9.67547
1
1
1
1
1
1
1
1
1
1
1
1
1
1
1
1
1
1.33967
7.59567
10.401
10.1414
10.0027
9.84813
9.69406
1
1
1
1
1
1
1
1
1
1
1
1
1
1
1
1
1
1.28708
7.44541
10.3682
10.1324
10.0018
9.85221
9.70409
1
1
1
1
1
1
1
1
1
1
1
1
1
1
1
1
1
1.2588
7.35157
10.3399
10.1236
9.99838
9.84999
9.70405
1
1
1
1
1
1
1
1
1
1
1
1
1
1
1
1
1
1.25045
7.31884
10.3229
10.1211
9.99739
9.84559
9.69913
2.02776
2.2978
2.86173
3.34724
3.58707
3.74239
3.90586
4.02721
4.09588
4.13168
4.12046
4.12293
4.14727
4.18193
4.21855
4.25485
4.29085
4.32896
4.37239
4.4212
4.47352
4.52633
4.579
4.63075
4.67883
4.71848
4.74511
4.7567
4.75328
4.74083
4.72916
4.72679
4.73674
4.75561
4.77808
4.79998
4.81694
4.82303
4.81605
4.79791
4.77181
4.73876
4.70112
4.66381
4.63253
4.61044
4.59583
4.58334
4.56605
4.53984
4.50406
4.46157
4.41558
4.36694
4.31649
4.26509
4.21508
4.17049
4.13496
4.10891
4.08727
4.05993
4.02034
3.97054
3.91697
3.86423
3.81398
3.76401
3.71118
3.65815
3.60927
3.56744
3.53629
3.51944
3.50754
3.47812
3.43801
3.3984
3.35964
3.3235
3.29069
3.25853
3.22694
3.19499
3.1659
3.13992
3.11903
3.10676
3.1005
3.09127
3.0802
3.07116
3.06786
3.07719
3.09219
3.12828
3.38718
3.65941
3.57081
3.58086
3.70633
3.84099
3.97082
4.03481
4.05219
4.0673
4.07146
4.0962
4.13885
4.19838
4.27943
4.35863
4.41523
4.445
4.46068
4.48138
4.51685
4.56444
4.61338
4.65049
4.67303
4.68997
4.70865
4.72956
4.7482
4.75928
4.7606
4.75553
4.75096
4.75277
4.76211
4.77497
4.78456
4.78448
4.77364
4.75678
4.73898
4.72195
4.70479
4.68563
4.66218
4.63513
4.60894
4.58663
4.56699
4.54409
4.50968
4.46357
4.41321
4.3646
4.31915
4.2747
4.22779
4.17757
4.12836
4.08477
4.04866
4.01829
3.98569
3.94283
3.89231
3.83994
3.79004
3.74606
3.70535
3.66156
3.61598
3.5718
3.53273
3.50208
3.4771
3.44778
3.40934
3.36999
3.33025
3.29162
3.2564
3.2248
3.19597
3.16945
3.14591
3.12541
3.1097
3.10133
3.09547
3.08173
3.06494
3.0505
3.04175
3.04333
3.04751
3.10545
4.23503
4.46434
3.8757
3.61162
3.6825
3.79978
3.89427
3.91951
3.93366
3.98217
4.08103
4.19783
4.2817
4.32809
4.3662
4.40909
4.45608
4.48363
4.4789
4.46715
4.47033
4.50002
4.55424
4.61029
4.64503
4.6562
4.65546
4.65936
4.679
4.71281
4.74866
4.7739
4.78392
4.78516
4.78723
4.79455
4.80338
4.80506
4.79294
4.76563
4.73193
4.70273
4.68387
4.67539
4.66947
4.65489
4.62922
4.60022
4.57424
4.5519
4.52624
4.48661
4.43524
4.38191
4.33301
4.29144
4.25598
4.22083
4.17949
4.13276
4.08487
4.04012
4.00015
3.95761
3.90786
3.85544
3.79907
3.74433
3.69848
3.65803
3.62175
3.5903
3.56133
3.52985
3.49481
3.4583
3.42225
3.38569
3.34816
3.30868
3.26682
3.22289
3.17911
3.14179
3.1153
3.09537
3.08302
3.07999
3.07995
3.07462
3.06443
3.05172
3.03516
3.01623
3.01333
3.0727
4.87938
5.13402
4.55256
4.13315
4.11349
4.10301
4.04046
4.0054
4.01669
4.04927
4.12897
4.24865
4.33642
4.36508
4.35149
4.3567
4.37827
4.43432
4.49146
4.51493
4.51741
4.52162
4.54361
4.59025
4.64813
4.69157
4.70912
4.70747
4.7048
4.71178
4.73061
4.75467
4.77126
4.77301
4.76374
4.7524
4.74635
4.74861
4.75281
4.74805
4.72528
4.69326
4.66274
4.63922
4.62696
4.62074
4.60387
4.57411
4.53883
4.50437
4.4746
4.44075
4.39489
4.3445
4.29302
4.24886
4.21135
4.17858
4.14344
4.10071
4.05753
4.01456
3.97095
3.9276
3.88404
3.8411
3.7974
3.75076
3.70262
3.65857
3.6186
3.58166
3.54918
3.51848
3.4872
3.45515
3.42245
3.3884
3.35347
3.31803
3.28181
3.24445
3.20734
3.174
3.14696
3.12611
3.10857
3.09283
3.08225
3.07944
3.08182
3.08439
3.08287
3.07611
3.07914
3.13202
5.61541
5.65279
5.03893
4.52904
4.39018
4.38368
4.3323
4.29387
4.28328
4.23704
4.20011
4.22461
4.30591
4.37078
4.40289
4.41152
4.4377
4.48113
4.5532
4.61296
4.63248
4.63535
4.63619
4.64824
4.68156
4.72316
4.75225
4.76057
4.75434
4.7459
4.7457
4.75802
4.77601
4.78741
4.78518
4.7735
4.76116
4.75255
4.7464
4.74035
4.72983
4.71097
4.69089
4.67416
4.66535
4.66311
4.64275
4.605
4.56242
4.52542
4.49303
4.45409
4.41021
4.36089
4.31179
4.27024
4.23053
4.18893
4.14408
4.09747
4.05404
4.01221
3.97059
3.92898
3.88604
3.8409
3.79359
3.74599
3.70262
3.66472
3.62824
3.59165
3.55453
3.51672
3.48068
3.44771
3.41631
3.38428
3.35004
3.31332
3.27459
3.23519
3.20003
3.17804
3.16388
3.15017
3.13436
3.11242
3.08926
3.07861
3.07438
3.08009
3.09401
3.10524
3.12744
3.19711
6.20947
6.08518
5.4428
4.9012
4.67485
4.67371
4.66963
4.65412
4.65678
4.58438
4.47143
4.40519
4.41503
4.46204
4.48918
4.48378
4.47268
4.49393
4.54999
4.61473
4.63337
4.63355
4.63261
4.64026
4.66784
4.7093
4.73694
4.74336
4.73562
4.72468
4.72032
4.73067
4.75413
4.77392
4.77599
4.76217
4.74532
4.7279
4.7123
4.70667
4.70749
4.69719
4.67407
4.64747
4.62338
4.59835
4.56758
4.53413
4.50048
4.46807
4.43351
4.39515
4.35134
4.30097
4.25251
4.2083
4.16453
4.12081
4.07929
4.04442
4.014
3.98322
3.94871
3.90816
3.86009
3.80584
3.75206
3.7071
3.67295
3.64445
3.61686
3.58602
3.5501
3.51122
3.4736
3.44
3.41027
3.38192
3.35364
3.32475
3.29286
3.25555
3.21766
3.19482
3.1825
3.17057
3.15647
3.13645
3.1121
3.10253
3.09973
3.10753
3.12967
3.15493
3.18755
3.26239
6.65457
6.42063
5.7958
5.26346
5.00158
4.98101
4.9704
4.96094
4.96455
4.88563
4.75626
4.64395
4.61386
4.64181
4.65412
4.63143
4.5924
4.59185
4.62218
4.66077
4.66739
4.65015
4.63645
4.63966
4.65763
4.68887
4.70591
4.70564
4.69737
4.68831
4.68579
4.6986
4.72263
4.73067
4.7154
4.68918
4.66205
4.64396
4.63681
4.64811
4.65081
4.63218
4.60423
4.57324
4.54828
4.53051
4.50783
4.47781
4.4452
4.41158
4.37614
4.33662
4.29142
4.2444
4.20368
4.16643
4.13031
4.09633
4.06541
4.03496
4.00352
3.96999
3.93211
3.88749
3.83534
3.78146
3.73772
3.70609
3.67983
3.65408
3.62537
3.59037
3.54892
3.50559
3.46619
3.43306
3.40665
3.38516
3.36579
3.34451
3.3158
3.2789
3.24237
3.21589
3.20235
3.19215
3.18205
3.16893
3.15255
3.14483
3.14388
3.15782
3.18402
3.21348
3.25535
3.33273
6.99645
6.69787
6.12752
5.63744
5.38597
5.32275
5.25955
5.22841
5.20599
5.11193
4.96616
4.82513
4.76891
4.78562
4.80109
4.77634
4.72578
4.69593
4.70286
4.72769
4.73024
4.70928
4.68189
4.66744
4.66679
4.68068
4.69306
4.69127
4.68214
4.67329
4.66712
4.67186
4.68399
4.67682
4.65979
4.64064
4.62805
4.62648
4.643
4.65894
4.64551
4.61781
4.58397
4.55856
4.5448
4.54283
4.52359
4.49051
4.45112
4.4131
4.3779
4.33858
4.29302
4.25332
4.22287
4.1964
4.17213
4.14554
4.11226
4.075
4.03352
3.9894
3.94391
3.89743
3.85135
3.81147
3.78001
3.74975
3.71566
3.67653
3.63368
3.58974
3.54684
3.50883
3.47732
3.44966
3.42633
3.40871
3.39048
3.36582
3.33146
3.29476
3.26547
3.24188
3.22735
3.21988
3.21459
3.2083
3.20218
3.19644
3.20116
3.22235
3.24712
3.28144
3.32648
3.39047
7.25222
6.93519
6.43352
6.01462
5.80015
5.69579
5.57418
5.49988
5.44606
5.33935
5.1773
5.00932
4.93022
4.93044
4.93653
4.90013
4.83264
4.78524
4.7802
4.79717
4.79572
4.76852
4.7286
4.70301
4.69346
4.70177
4.71365
4.70601
4.69099
4.67646
4.66457
4.66153
4.67053
4.6655
4.65304
4.64448
4.64244
4.65015
4.66068
4.64953
4.62433
4.59529
4.57223
4.55947
4.55772
4.54168
4.50904
4.46534
4.42967
4.40278
4.37275
4.33463
4.29147
4.26066
4.23721
4.21592
4.19162
4.15914
4.11677
4.06404
4.01246
3.971
3.93326
3.89687
3.8632
3.83169
3.79585
3.74926
3.69563
3.64732
3.60649
3.56979
3.53687
3.51063
3.4875
3.46338
3.43753
3.41227
3.38568
3.35442
3.32272
3.29873
3.2824
3.26845
3.2563
3.24974
3.24418
3.24338
3.24511
3.24786
3.2684
3.29706
3.33159
3.36324
3.39512
3.4341
7.46775
7.14697
6.70453
6.3498
6.16808
6.03619
5.88028
5.77822
5.70579
5.59124
5.41502
5.22297
5.12244
5.10268
5.08877
5.03387
4.9463
4.88658
4.87474
4.88683
4.87481
4.8362
4.7826
4.75023
4.73645
4.74243
4.74369
4.72372
4.69826
4.67452
4.65763
4.64905
4.65507
4.65181
4.63795
4.62651
4.62204
4.62468
4.61849
4.5958
4.56498
4.54027
4.5271
4.52661
4.51865
4.4892
4.44879
4.40266
4.37431
4.35557
4.33211
4.29728
4.25434
4.22358
4.20141
4.17854
4.15017
4.1161
4.07253
4.01644
3.96885
3.93491
3.90528
3.87556
3.84484
3.81227
3.77216
3.71699
3.65527
3.61241
3.58079
3.55212
3.52856
3.5101
3.49217
3.47175
3.44387
3.40475
3.36499
3.33384
3.31272
3.30303
3.29817
3.29348
3.28665
3.27851
3.27154
3.27216
3.27889
3.30076
3.33813
3.37556
3.42044
3.43917
3.45444
3.47116
7.67438
7.36225
6.97081
6.6639
6.49257
6.33191
6.15056
6.03449
5.9588
5.84367
5.66121
5.45884
5.34436
5.30307
5.26276
5.18586
5.07719
5.00908
4.9915
4.9951
4.97009
4.91647
4.84683
4.80851
4.79103
4.78882
4.76818
4.73739
4.69745
4.66594
4.64447
4.63209
4.62997
4.61855
4.59947
4.58067
4.5699
4.56428
4.54941
4.52373
4.49337
4.47431
4.46826
4.46983
4.45085
4.41776
4.37157
4.33241
4.31395
4.30405
4.28506
4.2529
4.20928
4.17589
4.1534
4.1293
4.10083
4.06632
4.02201
3.97117
3.93344
3.90503
3.87756
3.84859
3.81743
3.78198
3.73567
3.67816
3.62798
3.59784
3.57312
3.55062
3.53153
3.51436
3.49762
3.4773
3.44489
3.39945
3.35762
3.33399
3.32241
3.31859
3.32049
3.32026
3.31446
3.30558
3.30311
3.31134
3.32749
3.36789
3.41283
3.45044
3.49197
3.50034
3.50256
3.5048
7.86709
7.56985
7.21896
6.9442
6.77264
6.59005
6.38913
6.26004
6.18046
6.06572
5.88337
5.68514
5.56769
5.5112
5.44789
5.34874
5.22324
5.15229
5.12905
5.11619
5.07299
5.00144
4.91637
4.87146
4.84776
4.82806
4.79173
4.74665
4.69225
4.65539
4.62975
4.61258
4.59856
4.5759
4.54721
4.52159
4.50532
4.493
4.47783
4.45416
4.42657
4.41319
4.41197
4.40693
4.3841
4.34944
4.30316
4.27111
4.25864
4.25799
4.24217
4.212
4.1679
4.13408
4.11193
4.08679
4.05693
4.02121
3.97579
3.93628
3.91067
3.88557
3.85767
3.8273
3.79484
3.75253
3.70083
3.65206
3.62505
3.606
3.59105
3.57286
3.5513
3.52963
3.50788
3.47867
3.44129
3.40537
3.37932
3.36589
3.35875
3.35751
3.35534
3.34753
3.34049
3.33932
3.35248
3.37261
3.39782
3.4506
3.48324
3.50805
3.53819
3.54163
3.53618
3.5318
8.06311
7.77893
7.45732
7.203
7.02419
6.82081
6.60031
6.45623
6.3682
6.25068
6.06884
5.87506
5.75639
5.68893
5.60951
5.49511
5.36109
5.28832
5.257
5.22509
5.1655
5.07568
4.97936
4.92904
4.89543
4.8565
4.80852
4.75009
4.68666
4.64638
4.6159
4.59165
4.56584
4.53423
4.4972
4.46569
4.44714
4.438
4.42707
4.40259
4.37099
4.35384
4.35451
4.3505
4.33154
4.29985
4.25676
4.2316
4.22448
4.22458
4.20525
4.17375
4.13193
4.10418
4.08495
4.06187
4.03288
3.99561
3.95138
3.92526
3.9066
3.88561
3.86028
3.82825
3.78267
3.72919
3.68381
3.6618
3.6513
3.6492
3.63799
3.61762
3.59264
3.55845
3.51822
3.48218
3.45955
3.44855
3.44097
3.43311
3.42311
3.40793
3.38966
3.37783
3.37962
3.39583
3.42984
3.45819
3.49095
3.53294
3.54361
3.5501
3.56492
3.5697
3.56457
3.55531
8.24809
7.98163
7.69021
7.45423
7.27074
7.05319
6.81516
6.65479
6.5523
6.42218
6.23203
6.03395
5.91298
5.83674
5.74393
5.61769
5.47589
5.39771
5.35644
5.30846
5.23576
5.13253
5.03283
4.97891
4.93296
4.88064
4.82295
4.75398
4.68547
4.64282
4.6074
4.57626
4.54377
4.50499
4.45744
4.42098
4.40181
4.39387
4.39313
4.37408
4.34331
4.31842
4.30872
4.30416
4.29204
4.27181
4.24087
4.2242
4.22171
4.2108
4.18431
4.14714
4.11225
4.09503
4.08114
4.06229
4.0368
4.00184
3.95931
3.92932
3.9045
3.8773
3.84732
3.81078
3.76072
3.71941
3.70279
3.69819
3.70041
3.6887
3.6676
3.64284
3.60676
3.55953
3.52408
3.50801
3.50109
3.50227
3.50236
3.49727
3.48377
3.4549
3.4305
3.42878
3.44108
3.47402
3.52168
3.54764
3.57465
3.58653
3.57802
3.578
3.58641
3.59097
3.58935
3.57607
8.4208
8.16997
7.90122
7.67665
7.49141
7.26582
7.03452
6.87115
6.75554
6.60221
6.39221
6.18894
6.06538
5.98005
5.87305
5.73186
5.57959
5.49422
5.44248
5.38196
5.29853
5.18497
5.08608
5.02967
4.97434
4.91284
4.84413
4.76024
4.68629
4.6417
4.60459
4.56872
4.53301
4.49185
4.44067
4.39814
4.37362
4.36473
4.35956
4.34004
4.31019
4.28013
4.26326
4.25567
4.24884
4.23207
4.20699
4.19259
4.18672
4.17407
4.15125
4.11677
4.07978
4.06203
4.04884
4.03107
4.00843
3.97912
3.93939
3.90441
3.87888
3.85416
3.82788
3.79621
3.75406
3.72311
3.7084
3.69854
3.68762
3.67411
3.65658
3.63532
3.60146
3.55802
3.53862
3.53083
3.52972
3.53362
3.53393
3.52916
3.51896
3.49908
3.49095
3.49914
3.52129
3.56516
3.60043
3.61066
3.62292
3.61795
3.60723
3.6112
3.61478
3.61571
3.6131
3.58562
8.58033
8.34482
8.09948
7.88798
7.70025
7.47256
7.2398
7.07286
6.94883
6.78223
6.56246
6.36154
6.23531
6.13576
6.01251
5.85316
5.6906
5.59959
5.53605
5.46254
5.36706
5.24417
5.14764
5.08576
5.02485
4.95885
4.8843
4.79174
4.70686
4.65453
4.61549
4.58247
4.54488
4.49937
4.43805
4.39309
4.36419
4.346
4.329
4.30587
4.27263
4.2336
4.21349
4.20516
4.20024
4.18407
4.15889
4.14277
4.13671
4.12592
4.10712
4.07741
4.04106
4.02373
4.01248
3.99592
3.97448
3.94728
3.90989
3.8723
3.84536
3.82401
3.80286
3.77854
3.75463
3.72936
3.70507
3.68461
3.66624
3.64897
3.63259
3.61312
3.58546
3.563
3.55266
3.54646
3.54671
3.55194
3.55611
3.55363
3.53858
3.53394
3.54715
3.57134
3.60616
3.63696
3.64766
3.64709
3.64443
3.64606
3.65102
3.65499
3.65399
3.64848
3.63411
3.59571
8.74032
8.51086
8.28139
8.08105
7.88779
7.65689
7.43134
7.26355
7.1306
6.95274
6.73235
6.54581
6.41998
6.30398
6.15889
5.97776
5.81319
5.72013
5.64358
5.55693
5.45076
5.3164
5.21962
5.15366
5.08932
5.01964
4.94344
4.85315
4.76602
4.69947
4.64241
4.59021
4.5391
4.48465
4.41931
4.36536
4.33535
4.31113
4.28573
4.2575
4.22068
4.17994
4.15833
4.15027
4.14539
4.12732
4.09895
4.07582
4.06751
4.06178
4.05092
4.032
4.00153
3.97986
3.96913
3.95514
3.93662
3.91287
3.87957
3.84425
3.81939
3.8017
3.78459
3.76583
3.74697
3.72601
3.70155
3.67576
3.65171
3.63047
3.61037
3.59143
3.57817
3.5722
3.57103
3.57021
3.57211
3.57476
3.57059
3.56123
3.56621
3.5866
3.61901
3.6554
3.67491
3.68281
3.6757
3.67154
3.68195
3.69582
3.70496
3.7051
3.69692
3.67729
3.65347
3.61277
8.86239
8.64554
8.43382
8.24355
8.04636
7.81856
7.6042
7.44054
7.29645
7.10436
6.88184
6.70851
6.58767
6.4588
6.29481
6.10491
5.95997
5.87071
5.78046
5.67422
5.54797
5.41537
5.3192
5.23992
5.16258
5.08036
4.98688
4.8811
4.78609
4.71792
4.65945
4.60316
4.54772
4.48725
4.41644
4.35038
4.30636
4.2709
4.23673
4.19967
4.15451
4.11739
4.09976
4.09375
4.08837
4.06922
4.0391
4.00938
3.99749
3.99501
3.99433
3.98526
3.96443
3.9378
3.92476
3.91413
3.89894
3.87775
3.85002
3.82374
3.80439
3.78955
3.77509
3.75924
3.74186
3.72205
3.69956
3.67412
3.647
3.62326
3.6064
3.59535
3.59005
3.59433
3.60369
3.60766
3.60544
3.59791
3.59064
3.59896
3.62116
3.65615
3.69537
3.7168
3.72377
3.72003
3.70987
3.71636
3.73216
3.75189
3.75802
3.75175
3.73346
3.7019
3.67075
3.6471
8.97617
8.76931
8.57031
8.38481
8.18378
7.96028
7.75681
7.59846
7.44201
7.23386
7.01189
6.84581
6.7247
6.58723
6.41169
6.21063
6.06805
5.9685
5.87104
5.75814
5.61969
5.48436
5.38918
5.3065
5.22375
5.13514
5.03398
4.92116
4.81966
4.74285
4.67595
4.61205
4.54738
4.47627
4.39674
4.3265
4.27764
4.23638
4.19548
4.14887
4.09338
4.05665
4.03954
4.03417
4.0285
4.011
3.9829
3.95187
3.93846
3.93812
3.94615
3.94434
3.93037
3.90569
3.89056
3.88419
3.87177
3.8517
3.8321
3.81686
3.80368
3.79152
3.77698
3.75939
3.73965
3.7202
3.70095
3.68059
3.65825
3.64018
3.62943
3.62236
3.62069
3.62818
3.64031
3.6472
3.64222
3.63439
3.63777
3.64877
3.66917
3.70793
3.74982
3.76287
3.76118
3.74624
3.74078
3.74847
3.76029
3.77639
3.78004
3.76916
3.74342
3.70695
3.68772
3.66999
9.08002
8.8829
8.69299
8.50727
8.30235
8.08505
7.89179
7.73424
7.56093
7.34174
7.12869
6.96903
6.84307
6.69171
6.50385
6.3054
6.16947
6.06171
5.94879
5.82189
5.67172
5.53956
5.44302
5.35329
5.26347
5.16836
5.0592
4.93971
4.83718
4.7568
4.68452
4.61268
4.53611
4.45093
4.36176
4.29133
4.24364
4.20148
4.15822
4.10726
4.04631
4.00592
3.98654
3.97808
3.97238
3.9585
3.93499
3.90785
3.89603
3.89874
3.90976
3.90725
3.8952
3.8748
3.86032
3.85704
3.84644
3.82828
3.81727
3.8099
3.80415
3.79603
3.78015
3.75901
3.73568
3.71887
3.70634
3.69701
3.68891
3.68096
3.67518
3.67177
3.67141
3.67561
3.68158
3.68427
3.68583
3.69226
3.70272
3.71369
3.72895
3.75596
3.78363
3.79029
3.78297
3.77209
3.77296
3.77604
3.78011
3.78297
3.77758
3.75987
3.73041
3.70892
3.70101
3.68575
9.17229
8.98335
8.79848
8.60936
8.40281
8.19353
8.00891
7.84535
7.65421
7.43224
7.23363
7.07982
6.94471
6.77601
6.57343
6.38618
6.25537
6.14091
6.01452
5.87137
5.70824
5.57957
5.48259
5.38876
5.29307
5.18836
5.06762
4.94645
4.84934
4.76842
4.69208
4.61293
4.52523
4.42848
4.33741
4.27176
4.22348
4.17926
4.13428
4.0822
4.01783
3.97158
3.94862
3.93648
3.92928
3.91609
3.8948
3.87329
3.86526
3.87049
3.87542
3.86661
3.8536
3.83893
3.83044
3.8314
3.82399
3.80815
3.79813
3.7941
3.79275
3.78575
3.77124
3.74976
3.72797
3.71749
3.71217
3.71518
3.72081
3.72146
3.72076
3.72076
3.7188
3.71849
3.72192
3.73056
3.74595
3.76207
3.77562
3.78599
3.79502
3.80402
3.8078
3.80652
3.80402
3.80486
3.80644
3.80754
3.80518
3.7958
3.77613
3.74588
3.72483
3.7149
3.70933
3.69278
9.26052
9.08046
8.89723
8.70437
8.50018
8.29988
8.11959
7.94332
7.73896
7.52423
7.33891
7.19215
7.04157
6.85145
6.6394
6.46738
6.33931
6.21673
6.075
5.91148
5.7454
5.62499
5.52392
5.42414
5.31998
5.20505
5.0781
4.96192
4.86882
4.78621
4.70585
4.6222
4.52913
4.42686
4.33614
4.27186
4.22169
4.17566
4.12927
4.07698
4.0133
3.96424
3.93718
3.91997
3.90489
3.88575
3.86105
3.84293
3.83858
3.84362
3.84059
3.82547
3.80587
3.79608
3.79455
3.80066
3.79457
3.77992
3.76492
3.75794
3.75412
3.74916
3.73902
3.72329
3.71259
3.71061
3.71474
3.7267
3.73938
3.74587
3.74848
3.74721
3.74233
3.74528
3.7573
3.78229
3.81419
3.83445
3.84366
3.84568
3.84225
3.83255
3.82498
3.82703
3.83451
3.84094
3.84235
3.83617
3.8203
3.79304
3.76282
3.74436
3.73376
3.72536
3.71833
3.69531
9.32622
9.1466
8.95975
8.76273
8.56244
8.37507
8.20282
8.01429
7.79518
7.58956
7.42546
7.29315
7.12311
6.91168
6.70994
6.55755
6.43005
6.29092
6.13216
5.9527
5.79537
5.67903
5.57164
5.46417
5.35164
5.22649
5.09518
4.9838
4.8925
4.80786
4.72425
4.63761
4.54116
4.43708
4.34947
4.28533
4.23233
4.18452
4.13652
4.07962
4.01863
3.9714
3.93852
3.91252
3.88755
3.85886
3.82705
3.8114
3.80841
3.81196
3.80523
3.78609
3.75955
3.74991
3.75338
3.76382
3.75855
3.74486
3.72499
3.71014
3.70384
3.70098
3.70286
3.70152
3.70338
3.7068
3.71254
3.72288
3.73847
3.75178
3.75584
3.75383
3.75707
3.77029
3.79444
3.82868
3.86193
3.8801
3.8859
3.88123
3.86422
3.85327
3.85364
3.86144
3.87032
3.87262
3.86613
3.84591
3.8138
3.78717
3.77462
3.76635
3.7592
3.74846
3.73326
3.69886
9.37878
9.20566
9.02552
8.8403
8.65662
8.47758
8.29399
8.09463
7.89252
7.70809
7.5442
7.3825
7.18744
6.97744
6.79729
6.64866
6.51188
6.35527
6.18037
5.99626
5.85168
5.73584
5.62496
5.5125
5.39101
5.2516
5.11743
5.01239
4.92176
4.83582
4.75069
4.65857
4.55216
4.4475
4.36875
4.30618
4.24876
4.19351
4.136
4.07156
4.00928
3.96653
3.93409
3.90299
3.86913
3.82658
3.78692
3.77111
3.76667
3.76759
3.75976
3.74124
3.71353
3.70327
3.708
3.72103
3.71911
3.70787
3.68584
3.66852
3.66498
3.67124
3.68799
3.70007
3.70443
3.70732
3.71188
3.72032
3.7339
3.74975
3.76589
3.78216
3.79769
3.81379
3.83503
3.8636
3.88546
3.89234
3.88991
3.88108
3.88076
3.88675
3.89591
3.90306
3.9047
3.89857
3.87901
3.84916
3.82764
3.81593
3.8084
3.80157
3.79199
3.77404
3.74677
3.69821
9.41818
9.24688
9.07148
8.89375
8.71634
8.53754
8.35039
8.15539
7.96533
7.78822
7.62562
7.44414
7.23822
7.04032
6.87252
6.72986
6.5764
6.40495
6.21336
6.04351
5.91619
5.79548
5.67561
5.55162
5.41497
5.27132
5.14872
5.04936
4.95778
4.86699
4.77066
4.66413
4.55518
4.46352
4.39166
4.32616
4.26091
4.19268
4.12009
4.0476
3.98941
3.95179
3.9193
3.88552
3.84402
3.7853
3.73826
3.72062
3.71344
3.71112
3.70245
3.68657
3.66306
3.654
3.65817
3.6738
3.6787
3.67257
3.65874
3.65067
3.6549
3.66846
3.69155
3.70521
3.7104
3.71556
3.72209
3.73159
3.74646
3.77025
3.7973
3.82059
3.83861
3.85496
3.87234
3.88621
3.89155
3.89286
3.8943
3.89951
3.90712
3.91473
3.92448
3.93077
3.92786
3.91155
3.88623
3.86759
3.85792
3.85093
3.84472
3.83568
3.81705
3.78427
3.75081
3.7091
9.45357
9.28384
9.11187
8.93846
8.7631
8.58313
8.39683
8.20928
8.02729
7.85414
7.68053
7.48543
7.28255
7.09785
6.94068
6.79435
6.62662
6.43924
6.24538
6.09586
5.96728
5.83813
5.70835
5.572
5.42552
5.29024
5.18
5.0809
4.98371
4.88295
4.77422
4.65914
4.55375
4.47126
4.40112
4.33399
4.2649
4.18744
4.09936
4.01679
3.96529
3.93003
3.89736
3.86306
3.81817
3.75187
3.69748
3.67617
3.66517
3.66131
3.65365
3.64082
3.62146
3.61332
3.61768
3.63417
3.65354
3.66066
3.6587
3.65339
3.65952
3.67556
3.70155
3.71736
3.72611
3.73566
3.74533
3.75673
3.7742
3.80058
3.8336
3.86007
3.87711
3.89074
3.89789
3.89913
3.89827
3.90098
3.90782
3.91938
3.93521
3.94598
3.94646
3.94189
3.92787
3.90685
3.89498
3.88981
3.88561
3.8828
3.87328
3.85422
3.82045
3.78116
3.75828
3.72561
9.48594
9.31729
9.14653
8.97402
8.79817
8.61764
8.43386
8.2508
8.07171
7.89569
7.71143
7.51518
7.32203
7.14786
6.99877
6.83787
6.65499
6.45561
6.28144
6.14035
6.00713
5.86957
5.72783
5.5757
5.42612
5.30159
5.1942
5.09276
4.99189
4.88585
4.7689
4.64948
4.54962
4.47043
4.40021
4.33265
4.26197
4.17991
4.08397
3.99866
3.94705
3.90848
3.87337
3.83831
3.79605
3.7341
3.67533
3.64754
3.63207
3.62504
3.61745
3.60754
3.59483
3.58941
3.59533
3.60757
3.6307
3.64843
3.6527
3.65699
3.67123
3.69482
3.72157
3.73817
3.75148
3.76665
3.78271
3.79942
3.81994
3.84762
3.87659
3.89411
3.90429
3.91174
3.90976
3.90492
3.90881
3.91618
3.92545
3.93977
3.95022
3.9521
3.9496
3.93662
3.91573
3.90618
3.90449
3.91052
3.90869
3.89793
3.881
3.84961
3.80802
3.78209
3.76656
3.73554
9.51306
9.34691
9.17718
9.00437
8.82785
8.64798
8.46642
8.28529
8.10561
7.92422
7.73604
7.54438
7.35991
7.19472
7.04107
6.8603
6.66331
6.47303
6.31759
6.17876
6.03766
5.89121
5.73484
5.57124
5.42873
5.30976
5.20097
5.09663
4.99286
4.88247
4.76192
4.64541
4.54966
4.47042
4.39794
4.32785
4.25545
4.17311
4.07996
3.99942
3.9433
3.89724
3.85665
3.81935
3.77595
3.71854
3.66638
3.63663
3.61744
3.60399
3.59079
3.57812
3.57082
3.56865
3.57824
3.59069
3.60519
3.62734
3.64264
3.65389
3.67524
3.70662
3.73568
3.75642
3.77594
3.79709
3.82036
3.84529
3.87143
3.89984
3.91884
3.9265
3.92655
3.91471
3.91152
3.91694
3.92405
3.93155
3.93925
3.94601
3.9507
3.94905
3.94066
3.92609
3.91428
3.91071
3.9103
3.91439
3.9099
3.89857
3.87726
3.83941
3.80376
3.7828
3.7674
3.73637
9.53398
9.369
9.19855
9.02347
8.84503
8.66514
8.48519
8.30573
8.12595
7.94311
7.75673
7.57149
7.39475
7.23254
7.06144
6.86849
6.67205
6.50348
6.35204
6.20864
6.05827
5.90189
5.73657
5.57765
5.4406
5.32025
5.20812
5.10016
4.99173
4.87758
4.75988
4.65017
4.55766
4.47741
4.4029
4.32978
4.2514
4.16608
4.08324
4.01488
3.95688
3.90411
3.854
3.80568
3.75463
3.70329
3.66475
3.63626
3.61263
3.5924
3.57213
3.55389
3.54883
3.54916
3.56207
3.57438
3.58157
3.59839
3.62126
3.64607
3.67644
3.71084
3.73961
3.76491
3.78942
3.8142
3.84127
3.87511
3.91054
3.92975
3.93602
3.93771
3.93519
3.93536
3.9396
3.9443
3.95153
3.95532
3.95344
3.94975
3.94738
3.9429
3.93775
3.9298
3.9217
3.91916
3.91893
3.9207
3.9134
3.89849
3.87294
3.83916
3.80929
3.78679
3.77015
3.73631
9.54912
9.38818
9.22156
9.05029
8.87544
8.69796
8.51851
8.33757
8.15501
7.97022
7.78371
7.59873
7.42125
7.25146
7.06626
6.8702
6.69317
6.53354
6.38364
6.2281
6.06865
5.90453
5.74191
5.59205
5.45957
5.33669
5.21985
5.10629
4.99016
4.87147
4.76086
4.66522
4.58019
4.4991
4.4179
4.33158
4.24435
4.16246
4.09522
4.04036
3.98587
3.92686
3.85955
3.7913
3.7384
3.70045
3.67316
3.64753
3.61896
3.58379
3.54714
3.52821
3.52235
3.52405
3.53797
3.54991
3.55474
3.56766
3.59015
3.62096
3.66141
3.70091
3.73207
3.75992
3.78604
3.81168
3.83963
3.87653
3.91774
3.93398
3.93899
3.94169
3.94676
3.9557
3.9682
3.97965
3.98294
3.98015
3.96986
3.95605
3.94906
3.94868
3.94776
3.945
3.94187
3.93736
3.93138
3.92591
3.9143
3.89606
3.87226
3.84634
3.82535
3.80271
3.78013
3.73823
9.55312
9.39635
9.23294
9.06398
8.89088
8.71455
8.53549
8.35382
8.16954
7.98405
7.79988
7.61902
7.44213
7.26045
7.06938
6.88973
6.72601
6.56852
6.40306
6.23769
6.07047
5.90589
5.75065
5.61207
5.4833
5.35916
5.23638
5.11134
4.98555
4.86819
4.76846
4.68565
4.6071
4.52678
4.43781
4.33506
4.23968
4.17564
4.12646
4.07703
4.02356
3.95719
3.87276
3.78978
3.74512
3.71722
3.68957
3.66131
3.62933
3.58305
3.52955
3.50771
3.50018
3.50142
3.51242
3.52154
3.52679
3.53322
3.55367
3.58384
3.62844
3.67671
3.70871
3.7342
3.76075
3.78805
3.81906
3.86387
3.91253
3.93064
3.93931
3.94684
3.95363
3.96458
3.98714
4.00162
4.00213
3.9962
3.97765
3.96274
3.96006
3.961
3.96623
3.9703
3.97083
3.96508
3.94917
3.92921
3.9129
3.89545
3.87721
3.86249
3.8462
3.8238
3.79745
3.7446
9.55211
9.39971
9.23887
9.07151
8.89997
8.72501
8.5467
8.36529
8.18167
7.99829
7.81683
7.63677
7.45316
7.26512
7.08272
6.91215
6.75053
6.58599
6.41486
6.24292
6.06818
5.90639
5.76588
5.63384
5.50655
5.38041
5.24812
5.10701
4.97379
4.86994
4.78647
4.7077
4.62818
4.54032
4.43786
4.33186
4.25138
4.19224
4.13621
4.07966
4.02015
3.95279
3.87063
3.79305
3.7448
3.71034
3.68017
3.65171
3.61947
3.56826
3.50674
3.48403
3.47638
3.47705
3.48277
3.48818
3.49115
3.4934
3.51404
3.5458
3.59238
3.64836
3.69844
3.73746
3.76891
3.79867
3.83127
3.87571
3.92258
3.9416
3.95242
3.96091
3.96822
3.9827
4.01219
4.02562
4.02464
4.01589
3.99232
3.97688
3.97548
3.97911
3.99368
4.00132
3.99837
3.98608
3.95862
3.92974
3.9126
3.90015
3.88868
3.87522
3.85714
3.83259
3.80307
3.74496
)
;

boundaryField
{
    inlet
    {
        type            fixedValue;
        value           uniform 1;
    }
    outlet
    {
        type            zeroGradient;
    }
    bottom
    {
        type            symmetryPlane;
    }
    top
    {
        type            symmetryPlane;
    }
    obstacle
    {
        type            zeroGradient;
    }
    defaultFaces
    {
        type            empty;
    }
}


// ************************************************************************* //
