/*--------------------------------*- C++ -*----------------------------------*\
  =========                 |
  \\      /  F ield         | OpenFOAM: The Open Source CFD Toolbox
   \\    /   O peration     | Website:  https://openfoam.org
    \\  /    A nd           | Version:  7
     \\/     M anipulation  |
\*---------------------------------------------------------------------------*/
FoamFile
{
    version     2.0;
    format      ascii;
    class       volScalarField;
    location    "17";
    object      rho;
}
// * * * * * * * * * * * * * * * * * * * * * * * * * * * * * * * * * * * * * //

dimensions      [1 -3 0 0 0 0 0];

internalField   nonuniform List<scalar> 
4032
(
1.40001
1.40001
1.40001
1.40001
1.40001
1.40001
1.40001
1.40001
1.40001
1.40001
1.40001
2.04223
4.88925
5.47324
5.52837
5.60498
5.67055
5.73219
5.78753
5.83639
5.87947
5.91343
5.93796
5.954
1.40001
1.40001
1.40001
1.40001
1.40001
1.40001
1.40001
1.40001
1.40001
1.40001
1.40001
1.99677
4.83375
5.4643
5.52266
5.59774
5.66187
5.72184
5.77558
5.82279
5.86416
5.89619
5.91867
5.93358
1.40001
1.40001
1.40001
1.40001
1.40001
1.40001
1.40001
1.40001
1.40001
1.40001
1.40001
1.90147
4.7456
5.45845
5.51136
5.58405
5.64622
5.70427
5.75614
5.80138
5.84103
5.87176
5.89314
5.90795
1.40001
1.40001
1.40001
1.40001
1.40001
1.40001
1.40001
1.40001
1.40001
1.40001
1.40001
1.76664
4.61023
5.46268
5.50117
5.56586
5.62349
5.67846
5.72825
5.7717
5.80953
5.83791
5.85606
5.86893
1.40001
1.40001
1.40001
1.40001
1.40001
1.40001
1.40001
1.40001
1.40001
1.40001
1.40001
1.60901
4.42714
5.46717
5.48079
5.53639
5.58876
5.63842
5.68217
5.7187
5.75
5.77647
5.79518
5.81795
1.40001
1.40001
1.40001
1.40001
1.40001
1.40001
1.40001
1.40001
1.40001
1.40001
1.40001
1.42632
4.14549
5.46158
5.46883
5.50956
5.55195
5.59125
5.62658
5.65639
5.68198
5.7043
5.71567
5.71053
1.40001
1.40001
1.40001
1.40001
1.40001
1.40001
1.40001
1.40001
1.40001
1.40001
1.40001
1.40035
3.73078
5.35706
5.40326
5.44693
5.4893
5.52369
5.54926
5.56824
5.57472
5.56268
5.54747
5.54579
1.40001
1.40001
1.40001
1.40001
1.40001
1.40001
1.40001
1.40001
1.40001
1.40001
1.40001
1.4
3.24017
5.22877
5.36803
5.40862
5.44342
5.4621
5.46942
5.46867
5.44881
5.41912
5.3612
5.32732
1.40001
1.40001
1.40001
1.40001
1.40001
1.40001
1.40001
1.40001
1.40001
1.40001
1.40001
1.4
2.71611
5.06605
5.35417
5.38057
5.40075
5.4055
5.3959
5.36852
5.31254
5.20904
4.89631
3.93866
1.40001
1.40001
1.40001
1.40001
1.40001
1.40001
1.40001
1.40001
1.40001
1.40001
1.40001
1.40001
2.13897
4.83472
5.38169
5.36298
5.36915
5.35542
5.32176
5.26073
5.16391
4.97479
4.65252
3.72547
1.40001
1.40001
1.40001
1.40001
1.40001
1.40001
1.40001
1.40001
1.40001
1.40001
1.40001
1.40001
1.58359
4.49899
5.43634
5.36545
5.32565
5.29092
5.24098
5.15491
5.03143
4.80715
4.48323
3.65402
1.40001
1.40001
1.40001
1.40001
1.40001
1.40001
1.40001
1.40001
1.40001
1.40001
1.40001
1.40001
1.40635
3.82323
5.23235
5.25884
5.2562
5.22084
5.16437
5.06666
4.92605
4.69782
4.3513
3.71437
1.40001
1.40001
1.40001
1.40001
1.40001
1.40001
1.40001
1.40001
1.40001
1.40001
1.40001
1.40001
1.39997
3.01038
5.06837
5.23071
5.22132
5.18718
5.1217
5.01152
4.85447
4.62878
4.29077
3.82632
1.40001
1.40001
1.40001
1.40001
1.40001
1.40001
1.40001
1.40001
1.40001
1.40001
1.40001
1.40001
1.4
2.18295
4.83504
5.24362
5.19868
5.15511
5.07717
4.96706
4.81497
4.59591
4.30047
3.96749
1.40001
1.40001
1.40001
1.40001
1.40001
1.40001
1.40001
1.40001
1.40001
1.40001
1.40001
1.40001
1.4
1.53129
4.30725
5.26599
5.19194
5.12414
5.04591
4.94051
4.79308
4.59488
4.35083
4.11421
1.40001
1.40001
1.40001
1.40001
1.40001
1.40001
1.40001
1.40001
1.40001
1.40001
1.40001
1.40001
1.4
1.40202
3.45631
5.05802
5.12599
5.09882
5.03663
4.9344
4.79874
4.62847
4.43606
4.25352
1.40001
1.40001
1.40001
1.40001
1.40001
1.40001
1.40001
1.40001
1.40001
1.40001
1.40001
1.40001
1.40001
1.39999
2.44045
4.89159
5.1822
5.12269
5.04879
4.95053
4.82858
4.68413
4.52465
4.37068
1.40001
1.40001
1.40001
1.40001
1.40001
1.40001
1.40001
1.40001
1.40001
1.40001
1.40001
1.40001
1.40001
1.4
1.59953
4.47295
5.23594
5.14751
5.06166
4.97955
4.8742
4.751
4.61414
4.47384
1.40001
1.40001
1.40001
1.40001
1.40001
1.40001
1.40001
1.40001
1.40001
1.40001
1.40001
1.40001
1.40001
1.4
1.40507
3.62218
5.09366
5.12473
5.09002
5.03025
4.93415
4.82396
4.69973
4.56931
1.40001
1.40001
1.40001
1.40001
1.40001
1.40001
1.40001
1.40001
1.40001
1.40001
1.40001
1.40001
1.40001
1.40001
1.39996
2.59515
5.00961
5.27462
5.19021
5.09796
4.99285
4.88944
4.77475
4.65483
1.40001
1.40001
1.40001
1.40001
1.40001
1.40001
1.40001
1.40001
1.40001
1.40001
1.40001
1.40001
1.40001
1.40001
1.39999
1.71461
4.73677
5.39102
5.2369
5.143
5.05089
4.95724
4.85183
4.7414
1.40001
1.40001
1.40001
1.40001
1.40001
1.40001
1.40001
1.40001
1.40001
1.40001
1.40001
1.40001
1.40001
1.40001
1.4
1.41484
4.08846
5.3469
5.25799
5.19131
5.10744
5.01962
4.92148
4.82054
1.40001
1.40001
1.40001
1.40001
1.40001
1.40001
1.40001
1.40001
1.40001
1.40001
1.40001
1.40001
1.40001
1.40001
1.4
1.39997
3.29229
5.20937
5.28055
5.22702
5.15781
5.0768
4.98502
4.89153
1.40001
1.40001
1.40001
1.40001
1.40001
1.40001
1.40001
1.40001
1.40001
1.40001
1.40001
1.40001
1.40001
1.40001
1.40001
1.4
2.58541
5.04001
5.32727
5.24511
5.18421
5.112
5.03153
4.94867
1.40001
1.40001
1.40001
1.40001
1.40001
1.40001
1.40001
1.40001
1.40001
1.40001
1.40001
1.40001
1.40001
1.40001
1.40001
1.4
1.98965
4.8656
5.44819
5.3009
5.23112
5.15699
5.08057
5.0021
1.40001
1.40001
1.40001
1.40001
1.40001
1.40001
1.40001
1.40001
1.40001
1.40001
1.40001
1.40001
1.40001
1.40001
1.40001
1.4
1.54636
4.54089
5.45465
5.29903
5.23337
5.16743
5.09934
5.02797
1.40001
1.40001
1.40001
1.40001
1.40001
1.40001
1.40001
1.40001
1.40001
1.40001
1.40001
1.40001
1.40001
1.40001
1.40001
1.40001
1.40463
4.09488
5.41218
5.2869
5.23163
5.17297
5.11077
5.04421
1.40001
1.40001
1.40001
1.40001
1.40001
1.40001
1.40001
1.40001
1.40001
1.40001
1.40001
1.40001
1.40001
1.40001
1.40001
1.40001
1.40002
3.6355
5.32363
5.27612
5.22385
5.17086
5.113
5.05034
1.40001
1.40001
1.40001
1.40001
1.40001
1.40001
1.40001
1.40001
1.40001
1.40001
1.40001
1.40001
1.40001
1.40001
1.40001
1.40001
1.40001
3.22609
5.22463
5.29507
5.22772
5.17707
5.11785
5.05497
1.40001
1.40001
1.40001
1.40001
1.40001
1.40001
1.40001
1.40001
1.40001
1.40001
1.40001
1.40001
1.40001
1.40001
1.40001
1.40001
1.40001
2.87997
5.14297
5.31759
5.2381
5.191
5.13149
5.07031
1.40001
1.40001
1.40001
1.40001
1.40001
1.40001
1.40001
1.40001
1.40001
1.40001
1.40001
1.40001
1.40001
1.40001
1.40001
1.40001
1.40001
2.5441
5.07176
5.36846
5.27574
5.22547
5.16167
5.09768
1.40001
1.40001
1.40001
1.40001
1.40001
1.40001
1.40001
1.40001
1.40001
1.40001
1.40001
1.40001
1.40001
1.40001
1.40001
1.40001
1.40001
2.2478
4.97515
5.42451
5.31116
5.25405
5.18869
5.12512
1.40001
1.40001
1.40001
1.40001
1.40001
1.40001
1.40001
1.40001
1.40001
1.40001
1.40001
1.40001
1.40001
1.40001
1.40001
1.40001
1.40001
2.00445
4.8608
5.46445
5.33971
5.27996
5.21379
5.14904
1.40001
1.40001
1.40001
1.40001
1.40001
1.40001
1.40001
1.40001
1.40001
1.40001
1.40001
1.40001
1.40001
1.40001
1.40001
1.40001
1.40001
1.817
4.74325
5.47774
5.35274
5.29305
5.22844
5.16429
1.40001
1.40001
1.40001
1.40001
1.40001
1.40001
1.40001
1.40001
1.40001
1.40001
1.40001
1.40001
1.40001
1.40001
1.40001
1.40001
1.40001
1.70701
4.61593
5.46824
5.34896
5.29268
5.23101
5.16907
1.40001
1.40001
1.40001
1.40001
1.40001
1.40001
1.40001
1.40001
1.40001
1.40001
1.40001
1.40001
1.40001
1.40001
1.40001
1.40001
1.40001
1.63944
4.50862
5.44974
5.34156
5.2878
5.22802
5.16792
1.40001
1.40001
1.40001
1.40001
1.40001
1.40001
1.40001
1.40001
1.40001
1.40001
1.40001
1.40001
1.40001
1.40001
1.40001
1.40001
1.40001
1.59346
4.4308
5.43466
5.33786
5.28556
5.22681
5.16813
1.40001
1.40001
1.40001
1.40001
1.40001
1.40001
1.40001
1.40001
1.40001
1.40001
1.40001
1.40001
1.40001
1.40001
1.40001
1.40001
1.40001
1.5644
4.37808
5.42209
5.33327
5.28285
5.22557
5.16939
1.40001
1.40001
1.40001
1.40001
1.40001
1.40001
1.40001
1.40001
1.40001
1.40001
1.40001
1.40001
1.40001
1.40001
1.40001
1.40001
1.40001
1.5486
4.34378
5.41108
5.32841
5.27961
5.22322
5.16876
1.40001
1.40001
1.40001
1.40001
1.40001
1.40001
1.40001
1.40001
1.40001
1.40001
1.40001
1.40001
1.40001
1.40001
1.40001
1.40001
1.40001
1.54349
4.32941
5.40352
5.32616
5.27794
5.22066
5.16661
1.5214
1.56173
1.73956
1.93255
2.03229
2.09226
2.15138
2.18983
2.20307
2.20318
2.18729
2.1793
2.18293
2.19289
2.20505
2.21797
2.2312
2.24622
2.26425
2.28466
2.30606
2.32733
2.34816
2.36901
2.38944
2.40743
2.42054
2.42791
2.43009
2.42916
2.42871
2.43219
2.4409
2.45341
2.46759
2.4817
2.49388
2.50176
2.50472
2.50375
2.49969
2.49284
2.48409
2.4752
2.46832
2.4648
2.464
2.46395
2.46207
2.45629
2.44639
2.4337
2.41953
2.40423
2.38806
2.3712
2.35449
2.33959
2.32813
2.32033
2.31412
2.30535
2.29134
2.27297
2.25282
2.23272
2.21341
2.19409
2.17358
2.15293
2.13394
2.11781
2.10616
2.10049
2.09675
2.08558
2.06995
2.05463
2.03945
2.02504
2.01174
1.99849
1.98535
1.97192
1.95954
1.94827
1.93907
1.93371
1.93116
1.92752
1.92329
1.92001
1.91896
1.92311
1.92973
1.94458
2.24439
2.25209
2.10269
2.05762
2.0947
2.14222
2.1859
2.20111
2.19596
2.18997
2.18029
2.18071
2.19059
2.20963
2.23865
2.26791
2.28893
2.30027
2.30727
2.31702
2.33254
2.35232
2.37246
2.3888
2.4005
2.41057
2.42133
2.43268
2.44315
2.45111
2.45598
2.45904
2.46277
2.46932
2.479
2.49013
2.50003
2.50631
2.50866
2.5088
2.50834
2.50789
2.50716
2.50537
2.50163
2.49635
2.49134
2.48778
2.48505
2.48067
2.47135
2.45707
2.44091
2.42524
2.41058
2.39599
2.38003
2.36237
2.34483
2.32942
2.31696
2.30672
2.29539
2.27956
2.2602
2.23978
2.22019
2.20297
2.18706
2.16981
2.15174
2.13418
2.11866
2.1066
2.09694
2.08544
2.07004
2.05425
2.03818
2.02238
2.00784
1.99471
1.98265
1.97143
1.96131
1.95236
1.94542
1.94179
1.93934
1.93344
1.92626
1.92021
1.91675
1.91762
1.91948
1.94471
2.72926
2.7554
2.41583
2.2033
2.17628
2.1883
2.20347
2.19736
2.19057
2.1993
2.22721
2.26312
2.28813
2.30114
2.31325
2.32851
2.34669
2.35815
2.35789
2.35601
2.36035
2.37559
2.40063
2.42653
2.44435
2.45332
2.45814
2.4646
2.47719
2.49558
2.51495
2.53042
2.54063
2.54809
2.55624
2.56656
2.57751
2.58567
2.58841
2.58539
2.57939
2.57477
2.57388
2.5766
2.57995
2.57962
2.57483
2.56838
2.56292
2.55855
2.55239
2.54009
2.5225
2.50361
2.4861
2.47122
2.45854
2.44572
2.43008
2.41203
2.39343
2.3762
2.36089
2.34415
2.32393
2.30219
2.27848
2.25523
2.23567
2.21841
2.20303
2.18977
2.17751
2.16408
2.14916
2.13351
2.11787
2.10187
2.08544
2.06817
2.04978
2.03033
2.01077
1.99401
1.98212
1.97328
1.96794
1.96682
1.9669
1.96433
1.95923
1.95283
1.94487
1.93618
1.93487
1.96236
3.08018
3.15203
2.87008
2.59939
2.53298
2.46848
2.39571
2.34698
2.32696
2.32549
2.34546
2.38397
2.41095
2.41604
2.40755
2.4074
2.41556
2.44042
2.46699
2.47988
2.4851
2.49268
2.50837
2.53426
2.5643
2.5879
2.60089
2.60723
2.61353
2.62354
2.63801
2.6544
2.66783
2.67578
2.68002
2.68373
2.68945
2.69827
2.70744
2.71218
2.70967
2.70328
2.69728
2.69383
2.69435
2.69696
2.69477
2.68645
2.67545
2.66474
2.65562
2.64423
2.62701
2.60712
2.5862
2.56811
2.55271
2.53922
2.52446
2.50602
2.48707
2.46813
2.44895
2.42991
2.41062
2.39124
2.37104
2.34909
2.32623
2.3052
2.28612
2.26864
2.25345
2.23923
2.2247
2.20948
2.19359
2.17682
2.15957
2.14218
2.12461
2.10667
2.08893
2.07306
2.06028
2.0506
2.04259
2.03539
2.03014
2.02807
2.02835
2.02837
2.02662
2.02295
2.02462
2.05067
3.44722
3.44183
3.15979
2.9056
2.80018
2.75803
2.69451
2.63977
2.60179
2.55825
2.5256
2.52668
2.55294
2.57425
2.58384
2.58507
2.59498
2.61499
2.649
2.67877
2.69116
2.69823
2.7067
2.72006
2.74149
2.7658
2.78417
2.79474
2.80004
2.80405
2.81079
2.82239
2.83618
2.84697
2.85239
2.85454
2.85622
2.85878
2.8617
2.86412
2.8646
2.86193
2.85849
2.85609
2.85648
2.85934
2.85427
2.8405
2.82405
2.81015
2.79809
2.7826
2.7642
2.74278
2.72105
2.70251
2.68472
2.66597
2.64535
2.62324
2.60204
2.58143
2.56108
2.54103
2.52049
2.49875
2.47551
2.45156
2.42916
2.40917
2.3899
2.37086
2.35197
2.33305
2.31501
2.29818
2.28172
2.26455
2.24605
2.22633
2.2059
2.18556
2.16768
2.15645
2.1492
2.1423
2.1344
2.12351
2.11153
2.10483
2.10196
2.10414
2.11021
2.11564
2.12681
2.16208
3.73737
3.67018
3.37578
3.12897
3.00009
2.98392
2.96239
2.93364
2.91161
2.8613
2.79376
2.75288
2.75395
2.7697
2.77776
2.77344
2.76794
2.77782
2.8048
2.8376
2.84942
2.85455
2.86054
2.86998
2.88785
2.91157
2.92837
2.93629
2.93933
2.94064
2.9439
2.9533
2.96843
2.98122
2.98589
2.98449
2.98157
2.97786
2.97439
2.97484
2.97828
2.97716
2.9701
2.96066
2.95199
2.94282
2.93094
2.91736
2.9033
2.88972
2.875
2.85811
2.83823
2.81495
2.7923
2.77143
2.75057
2.72957
2.70944
2.69221
2.67677
2.66086
2.64308
2.62252
2.59847
2.57135
2.54408
2.5207
2.50229
2.48642
2.47086
2.45374
2.43435
2.41383
2.39415
2.3765
2.36055
2.3449
2.32888
2.31232
2.29434
2.274
2.25383
2.24157
2.2349
2.22856
2.22115
2.21083
2.19742
2.19105
2.1893
2.19302
2.20398
2.21689
2.23377
2.27259
3.9477
3.84008
3.55881
3.31762
3.19243
3.17073
3.15573
3.14161
3.13501
3.0916
3.02186
2.96303
2.94702
2.9581
2.96159
2.94954
2.93152
2.93193
2.94735
2.96806
2.97326
2.96975
2.96843
2.97325
2.98507
3.00311
3.01366
3.01675
3.01741
3.01748
3.0197
3.02889
3.04371
3.04956
3.04542
3.0359
3.02534
3.01906
3.0177
3.02497
3.02786
3.02171
3.01048
2.99692
2.98607
2.97892
2.96976
2.957
2.94254
2.92737
2.91121
2.89287
2.87153
2.8491
2.82949
2.81136
2.79356
2.77672
2.76151
2.74683
2.73158
2.71487
2.69557
2.67264
2.6458
2.61794
2.59511
2.57847
2.56459
2.5507
2.53498
2.51595
2.49358
2.47031
2.44919
2.43151
2.4174
2.40565
2.39463
2.38225
2.36585
2.34533
2.32527
2.31076
2.30326
2.2977
2.29236
2.28557
2.27604
2.27109
2.2706
2.27775
2.29135
2.30673
2.32861
2.3691
4.10971
3.97674
3.72449
3.50222
3.38792
3.35408
3.32298
3.3048
3.29149
3.24394
3.17114
3.10203
3.07466
3.08222
3.08902
3.07733
3.05448
3.04184
3.04589
3.05938
3.06203
3.05583
3.04712
3.04339
3.0447
3.05339
3.06125
3.06257
3.06151
3.06038
3.0602
3.06473
3.07297
3.07157
3.06591
3.05817
3.05311
3.05313
3.06209
3.07091
3.06595
3.05484
3.04003
3.02847
3.02225
3.02181
3.01366
2.99897
2.98106
2.96359
2.94725
2.92872
2.90704
2.8881
2.87347
2.86047
2.84836
2.83514
2.81884
2.80085
2.78104
2.75979
2.73718
2.71337
2.68927
2.66808
2.65125
2.63533
2.61782
2.59795
2.57597
2.55302
2.53014
2.50943
2.49206
2.47698
2.46454
2.45524
2.44548
2.43204
2.41321
2.39289
2.37638
2.3631
2.35492
2.35078
2.34823
2.34505
2.34119
2.33768
2.34004
2.35099
2.36399
2.38197
2.40563
2.4394
4.23426
4.09408
3.8741
3.68588
3.58703
3.53856
3.48411
3.451
3.42644
3.3761
3.29903
3.21957
3.18219
3.18247
3.18545
3.16864
3.13733
3.11595
3.11425
3.12354
3.12431
3.11477
3.09956
3.09008
3.087
3.09219
3.09966
3.09805
3.0935
3.08901
3.08588
3.08631
3.09252
3.09179
3.0874
3.08419
3.08378
3.08839
3.09479
3.0909
3.08072
3.06807
3.05759
3.05191
3.05197
3.04559
3.03098
3.01054
2.99382
2.98132
2.96728
2.94929
2.92881
2.91431
2.90324
2.89299
2.88109
2.86513
2.84438
2.81862
2.79355
2.7735
2.75481
2.73619
2.71845
2.70164
2.68261
2.65833
2.6309
2.60646
2.58573
2.56674
2.5491
2.53451
2.52145
2.50808
2.49427
2.4812
2.46752
2.45115
2.43403
2.42044
2.41072
2.40237
2.39527
2.39171
2.38947
2.38892
2.38959
2.39061
2.40074
2.4154
2.43346
2.45041
2.46746
2.48858
4.34056
4.1999
4.00683
3.84908
3.76554
3.70521
3.63513
3.5894
3.55666
3.50481
3.42513
3.33819
3.29266
3.28404
3.27807
3.25294
3.21226
3.18488
3.17994
3.18633
3.18186
3.16606
3.14353
3.13065
3.12598
3.13017
3.13227
3.1251
3.11499
3.10575
3.09994
3.09787
3.10221
3.10217
3.09708
3.09272
3.09174
3.09406
3.09259
3.08366
3.07034
3.05933
3.05347
3.05388
3.05134
3.03912
3.02075
2.99868
2.98506
2.97628
2.96537
2.94897
2.92858
2.91418
2.90386
2.89301
2.87923
2.86257
2.84128
2.81378
2.79037
2.77351
2.75866
2.74342
2.7273
2.71012
2.68923
2.66074
2.62877
2.6065
2.59019
2.57526
2.56253
2.5521
2.54182
2.53035
2.5153
2.49488
2.47442
2.45832
2.44696
2.44099
2.43741
2.43397
2.42958
2.42514
2.42196
2.4224
2.42585
2.43693
2.45625
2.4758
2.49928
2.50957
2.51777
2.52761
4.4421
4.30671
4.137
4.00179
3.92442
3.85199
3.77032
3.71735
3.68244
3.63035
3.54867
3.45797
3.40686
3.389
3.37169
3.3376
3.28846
3.25788
3.25061
3.25309
3.24268
3.21932
3.18841
3.17231
3.16608
3.16698
3.15921
3.14627
3.12903
3.11598
3.10772
3.10375
3.10446
3.10082
3.09338
3.08592
3.08204
3.08039
3.07434
3.06312
3.0497
3.04167
3.03973
3.04162
3.03415
3.01958
2.9978
2.97892
2.97031
2.96612
2.95766
2.94262
2.92186
2.90629
2.89599
2.88455
2.87055
2.8534
2.83144
2.80633
2.78772
2.77372
2.76012
2.74542
2.72928
2.71078
2.6867
2.65657
2.62991
2.61393
2.60106
2.5894
2.57928
2.56978
2.5603
2.54889
2.53126
2.50705
2.48495
2.4728
2.46681
2.46423
2.46469
2.46379
2.45989
2.45491
2.45343
2.45777
2.4666
2.48835
2.51221
2.53204
2.55374
2.5585
2.55968
2.56211
4.53715
4.40976
4.25903
4.13926
4.06306
3.98187
3.89199
3.83313
3.79631
3.74425
3.66245
3.57352
3.52079
3.49569
3.46771
3.42357
3.36729
3.33606
3.32665
3.32203
3.30373
3.27229
3.23421
3.21499
3.20581
3.19854
3.18327
3.16366
3.13958
3.12383
3.11337
3.10699
3.10216
3.09309
3.08094
3.07003
3.06332
3.05829
3.05197
3.04166
3.02952
3.02439
3.02479
3.02353
3.01388
2.99816
2.97641
2.96137
2.95578
2.95617
2.94941
2.93534
2.91414
2.89817
2.88803
2.87614
2.86149
2.84358
2.82075
2.80115
2.78872
2.77655
2.76281
2.7475
2.73095
2.70919
2.6817
2.65531
2.64081
2.6309
2.62321
2.614
2.60309
2.59171
2.57988
2.56383
2.54294
2.52303
2.50906
2.5022
2.49868
2.49811
2.49691
2.49203
2.48722
2.48638
2.49333
2.50421
2.51802
2.54649
2.56404
2.57733
2.59354
2.59565
2.59286
2.59153
4.63243
4.51209
4.3754
4.26585
4.18765
4.09844
4.00092
3.93599
3.89567
3.84253
3.76105
3.67415
3.62068
3.59025
3.55459
3.50325
3.44309
3.41104
3.39787
3.38453
3.35863
3.31875
3.27557
3.25384
3.23995
3.22351
3.20265
3.17671
3.14818
3.13047
3.11728
3.10715
3.09634
3.08259
3.06589
3.05177
3.04413
3.04107
3.03711
3.02658
3.01232
3.00512
3.00628
3.00514
2.99672
2.98207
2.96205
2.95092
2.94833
2.94938
2.94109
2.92613
2.90539
2.89192
2.88296
2.87204
2.85797
2.8395
2.81735
2.8045
2.79566
2.78567
2.7733
2.75728
2.73394
2.70599
2.68171
2.66963
2.66388
2.66276
2.65723
2.6472
2.63484
2.61745
2.59612
2.57628
2.56327
2.55674
2.55255
2.54844
2.54335
2.5355
2.52553
2.51887
2.51972
2.52843
2.54698
2.56233
2.57975
2.60204
2.60873
2.61319
2.62204
2.62461
2.62187
2.61754
4.72062
4.60875
4.486
4.38551
4.30647
4.21237
4.10859
4.0376
3.99158
3.93343
3.84872
3.76021
3.70577
3.6713
3.62948
3.57264
3.50878
3.47397
3.45597
3.43498
3.40276
3.35631
3.31142
3.28771
3.26737
3.24406
3.21833
3.1871
3.15575
3.13662
3.12064
3.1065
3.09155
3.0734
3.05079
3.03387
3.02614
3.02424
3.02555
3.01774
3.00342
2.9918
2.98789
2.98639
2.98124
2.97228
2.95815
2.95119
2.95104
2.94667
2.93424
2.91612
2.89909
2.89102
2.88453
2.87549
2.86305
2.84582
2.82484
2.81032
2.79834
2.78514
2.77046
2.75223
2.72642
2.70458
2.69593
2.69363
2.69469
2.68853
2.67802
2.6659
2.64784
2.62353
2.60488
2.59611
2.5924
2.59286
2.59253
2.58956
2.5827
2.56801
2.5553
2.55465
2.56197
2.58019
2.60552
2.61933
2.63381
2.64125
2.63767
2.63884
2.64454
2.64707
2.64616
2.63902
4.79848
4.69402
4.5817
4.48714
4.40856
4.31242
4.21303
4.14206
4.09138
4.0241
3.93157
3.84143
3.78621
3.74791
3.69985
3.63625
3.56749
3.52911
3.50602
3.47898
3.44144
3.38986
3.34496
3.31956
3.29436
3.26622
3.23453
3.19524
3.16053
3.14006
3.12306
3.10588
3.08829
3.06797
3.04296
3.02269
3.01182
3.00875
3.00733
2.9985
2.98415
2.96984
2.96229
2.95937
2.95687
2.94964
2.93827
2.93215
2.92993
2.92409
2.913
2.89621
2.87865
2.87069
2.86463
2.85611
2.84503
2.83061
2.81111
2.79414
2.78196
2.77027
2.75797
2.74296
2.72202
2.70611
2.69841
2.69338
2.68808
2.68172
2.67342
2.66321
2.64637
2.62437
2.61471
2.61092
2.61047
2.61259
2.6127
2.61003
2.60515
2.59622
2.5931
2.59826
2.61131
2.63502
2.6537
2.65952
2.66708
2.6657
2.6619
2.66498
2.66743
2.66744
2.66573
2.65009
4.86304
4.76624
4.66474
4.57678
4.49841
4.4029
4.30445
4.23328
4.18011
4.10829
4.01269
3.92459
3.86886
3.82469
3.76972
3.69813
3.62475
3.5836
3.55483
3.52146
3.47788
3.42134
3.37681
3.34829
3.32019
3.2895
3.25444
3.21011
3.16894
3.14315
3.12391
3.10769
3.08924
3.06706
3.03741
3.01585
3.00187
2.99293
2.98456
2.97324
2.95702
2.93806
2.92853
2.92499
2.92322
2.91599
2.90423
2.897
2.89459
2.88978
2.88102
2.86688
2.84939
2.84147
2.83648
2.82877
2.81861
2.8056
2.78745
2.76921
2.75655
2.74699
2.73781
2.72707
2.71606
2.70361
2.69142
2.68138
2.6727
2.66471
2.65723
2.64825
2.63506
2.62468
2.62016
2.61755
2.61817
2.62148
2.62416
2.62348
2.61696
2.61563
2.62395
2.63855
2.65807
2.67481
2.68132
2.68202
2.6823
2.68512
2.68935
2.69203
2.69138
2.68806
2.67969
2.65789
4.9189
4.8266
4.7332
4.65114
4.57165
4.47612
4.38213
4.31181
4.25582
4.1802
4.08546
4.00465
3.9498
3.89884
3.83455
3.7537
3.67972
3.63748
3.60236
3.5624
3.51328
3.45083
3.40529
3.37376
3.34274
3.30896
3.27189
3.22796
3.18537
3.15234
3.12391
3.09839
3.07379
3.04772
3.01637
2.9902
2.97516
2.96284
2.95006
2.93608
2.91804
2.89811
2.88782
2.88445
2.88271
2.87447
2.86096
2.85004
2.8465
2.84427
2.83961
2.83099
2.81644
2.80623
2.80153
2.79523
2.78673
2.77563
2.75968
2.74271
2.73114
2.72335
2.71599
2.70776
2.69935
2.68982
2.67854
2.66654
2.65527
2.6454
2.6363
2.628
2.62264
2.62084
2.62161
2.62252
2.62459
2.62706
2.6262
2.62306
2.62689
2.6392
2.65776
2.67835
2.68999
2.69516
2.69269
2.69231
2.69964
2.70831
2.71366
2.71386
2.70992
2.69975
2.68686
2.66462
4.95062
4.8661
4.78202
4.70557
4.62559
4.53234
4.44394
4.37608
4.31595
4.23503
4.14033
4.06602
4.01385
3.95772
3.88552
3.80115
3.73612
3.6955
3.65408
3.60501
3.54631
3.48417
3.4383
3.39981
3.3617
3.32094
3.27482
3.22337
3.17725
3.14387
3.11513
3.08756
3.06059
3.03124
2.99678
2.9644
2.94261
2.92506
2.90823
2.89008
2.86802
2.85007
2.84195
2.83974
2.8379
2.82929
2.8151
2.80095
2.79557
2.7947
2.79473
2.79079
2.78108
2.76839
2.76245
2.75768
2.75067
2.74068
2.72741
2.71493
2.70601
2.69948
2.69324
2.68639
2.67889
2.6703
2.66042
2.64896
2.63653
2.62586
2.61873
2.61459
2.61341
2.61694
2.62386
2.62779
2.6284
2.62623
2.62387
2.6297
2.64373
2.66419
2.68613
2.69878
2.70372
2.70297
2.69954
2.70429
2.71429
2.72519
2.72859
2.72596
2.71757
2.70134
2.68448
2.67168
4.97149
4.89362
4.8169
4.74403
4.66366
4.57303
4.4897
4.42436
4.35937
4.27217
4.1784
4.10774
4.05584
3.99652
3.91995
3.83124
3.76754
3.72246
3.67793
3.62594
3.56172
3.49816
3.45252
3.41226
3.3716
3.32815
3.27898
3.2246
3.17547
3.13795
3.10514
3.07379
3.04218
3.00749
2.96866
2.93424
2.91025
2.8901
2.87021
2.84755
2.82055
2.80286
2.79499
2.79306
2.791
2.78316
2.77008
2.75542
2.74915
2.74911
2.75336
2.75262
2.74598
2.7341
2.72697
2.72407
2.71813
2.70833
2.6988
2.69158
2.68555
2.68025
2.67391
2.66613
2.65732
2.64871
2.64028
2.63142
2.62165
2.61406
2.61001
2.60806
2.60862
2.61407
2.62282
2.62885
2.62852
2.62606
2.6289
2.63704
2.65061
2.67311
2.69664
2.70482
2.70486
2.69917
2.69783
2.70358
2.71173
2.72094
2.72321
2.71843
2.70579
2.6866
2.67623
2.66711
4.98188
4.90987
4.83883
4.76774
4.68736
4.60045
4.52207
4.45751
4.38595
4.29477
4.20542
4.13796
4.08444
4.0198
3.93891
3.85252
3.7926
3.74446
3.69342
3.63547
3.56648
3.50477
3.4587
3.41545
3.37195
3.32607
3.27384
3.21688
3.16771
3.12885
3.09372
3.05879
3.02169
2.98051
2.93734
2.90311
2.87981
2.85924
2.83821
2.81342
2.78372
2.7642
2.7551
2.75144
2.74911
2.74274
2.73162
2.71869
2.71314
2.71464
2.72029
2.71902
2.71291
2.70267
2.69557
2.694
2.68871
2.67954
2.67389
2.67011
2.66734
2.66368
2.65642
2.6466
2.63563
2.628
2.6226
2.61902
2.61623
2.61365
2.61208
2.61193
2.61318
2.617
2.62245
2.62653
2.62929
2.63411
2.64175
2.65008
2.66069
2.67695
2.69318
2.69779
2.69555
2.69206
2.69444
2.69829
2.70214
2.70441
2.70228
2.69387
2.6787
2.66749
2.66365
2.65645
4.98802
4.91962
4.85181
4.78099
4.70162
4.61947
4.54584
4.47976
4.40162
4.31003
4.22747
4.16318
4.10648
4.03525
3.94898
3.86845
3.81157
3.76119
3.70491
3.64047
3.56627
3.50676
3.46111
3.41669
3.37142
3.32201
3.26507
3.20776
3.16163
3.12311
3.08674
3.04896
3.00694
2.96048
2.91663
2.88483
2.8613
2.83967
2.81764
2.79218
2.7607
2.73827
2.72732
2.72153
2.71807
2.71161
2.70111
2.69043
2.6865
2.68916
2.69162
2.68711
2.68043
2.67289
2.66831
2.66865
2.66478
2.65655
2.65131
2.64912
2.64821
2.64436
2.63696
2.62638
2.61576
2.61098
2.60892
2.61094
2.61477
2.61623
2.61727
2.61863
2.61908
2.62024
2.6236
2.6298
2.63977
2.65014
2.65956
2.66727
2.67427
2.68114
2.68492
2.68599
2.68662
2.6889
2.69164
2.69383
2.69376
2.68994
2.68051
2.66546
2.65497
2.65028
2.64776
2.63984
5.00525
4.93901
4.87138
4.79919
4.72129
4.64356
4.5727
4.50258
4.42007
4.33217
4.2557
4.19498
4.13255
4.05301
3.96323
3.8898
3.83467
3.78134
3.71896
3.64615
3.57133
3.51639
3.46973
3.4234
3.37508
3.3218
3.26272
3.20828
3.16443
3.12547
3.08752
3.04785
3.00348
2.95454
2.91088
2.87972
2.85526
2.83271
2.80988
2.78411
2.75278
2.72885
2.71567
2.70711
2.69943
2.68964
2.67704
2.66767
2.66517
2.66745
2.66559
2.65747
2.64745
2.6423
2.64133
2.64401
2.6406
2.63264
2.62479
2.62116
2.61892
2.61593
2.61031
2.60218
2.59687
2.59597
2.59816
2.6046
2.61186
2.61615
2.61851
2.61894
2.61723
2.61906
2.62616
2.64037
2.65855
2.6711
2.67762
2.68071
2.68136
2.67879
2.67678
2.67931
2.68504
2.69001
2.69196
2.69019
2.68333
2.67049
2.6558
2.64672
2.64143
2.63728
2.63393
2.62257
5.03108
4.9624
4.89067
4.81493
4.73763
4.6649
4.59754
4.52287
4.43487
4.35147
4.28446
4.23021
4.15995
4.07163
3.98656
3.92184
3.86721
3.807
3.73756
3.65827
3.58814
3.53573
3.48694
3.43783
3.3862
3.32863
3.26802
3.2163
3.17358
3.1337
3.09409
3.05291
3.00693
2.95704
2.91475
2.88356
2.85761
2.83402
2.81045
2.7824
2.75215
2.72847
2.71183
2.69868
2.68593
2.67108
2.65462
2.64609
2.64404
2.64532
2.64144
2.63128
2.61757
2.61235
2.61379
2.61835
2.61522
2.6075
2.59711
2.58951
2.586
2.58431
2.58514
2.58432
2.58514
2.58674
2.58964
2.59514
2.60364
2.61113
2.61359
2.61286
2.6148
2.62188
2.63486
2.65351
2.67186
2.68275
2.68701
2.68637
2.68002
2.6766
2.67824
2.68372
2.68982
2.69209
2.69031
2.6816
2.66625
2.65325
2.64719
2.64308
2.63956
2.63426
2.6268
2.60973
5.05956
4.99146
4.92042
4.84778
4.77606
4.70615
4.63396
4.55468
4.47359
4.39932
4.33291
4.26667
4.18578
4.09792
4.02213
3.95909
3.90047
3.83277
3.75655
3.67574
3.61175
3.55998
3.51007
3.45913
3.40382
3.34007
3.27837
3.22966
3.18722
3.14664
3.10618
3.06235
3.01171
2.96143
2.92316
2.89248
2.86412
2.83678
2.80832
2.77637
2.74529
2.72338
2.70647
2.69032
2.67288
2.65113
2.63059
2.62167
2.61865
2.6186
2.61422
2.60456
2.59022
2.58456
2.5863
2.59179
2.5904
2.58397
2.57243
2.56376
2.56197
2.56501
2.57337
2.57935
2.58149
2.58292
2.58527
2.58974
2.59694
2.60521
2.6135
2.62194
2.63033
2.63903
2.65017
2.66534
2.67776
2.68236
2.68231
2.6795
2.68047
2.68489
2.69101
2.69593
2.69748
2.69569
2.68728
2.67299
2.66252
2.65658
2.65266
2.64928
2.64474
2.63634
2.62304
2.59935
5.08245
5.01473
4.94565
4.87562
4.80563
4.73491
4.66057
4.58272
4.50642
4.43477
4.36832
4.29345
4.20782
4.12494
4.05411
3.99334
3.92752
3.8535
3.77032
3.69606
3.6399
3.58625
3.53257
3.47664
3.4147
3.3492
3.29282
3.24665
3.20367
3.16076
3.11515
3.06456
3.01247
2.96823
2.93313
2.90084
2.86855
2.83473
2.79848
2.76228
2.73307
2.7137
2.69669
2.67898
2.65752
2.62766
2.60336
2.59357
2.58914
2.58737
2.58247
2.57395
2.56157
2.55658
2.55816
2.56497
2.56695
2.5635
2.55609
2.55199
2.55418
2.56107
2.57261
2.57952
2.58225
2.585
2.58857
2.59374
2.60158
2.61379
2.62784
2.64023
2.64989
2.65844
2.66737
2.67495
2.67863
2.68026
2.68203
2.68555
2.69028
2.69487
2.70031
2.70391
2.70324
2.69624
2.68407
2.67476
2.66984
2.66625
2.66292
2.65831
2.64948
2.63373
2.61738
2.59737
5.09845
5.03172
4.96417
4.8957
4.82616
4.7546
4.68032
4.6052
4.53182
4.4614
4.3902
4.30967
4.22526
4.14776
4.08129
4.01903
3.94733
3.86678
3.78297
3.71773
3.66113
3.60382
3.54574
3.48443
3.41823
3.35659
3.3058
3.25969
3.21422
3.16691
3.11563
3.06095
3.01035
2.97036
2.93605
2.90297
2.86873
2.83016
2.78622
2.74491
2.71881
2.70061
2.68364
2.66576
2.64254
2.60862
2.58061
2.56915
2.56285
2.56021
2.5557
2.54848
2.53791
2.53342
2.5353
2.54288
2.55212
2.55564
2.55465
2.55189
2.55498
2.56315
2.5764
2.58465
2.58934
2.59454
2.59998
2.60637
2.6158
2.62966
2.64679
2.66066
2.66973
2.67694
2.68096
2.68203
2.68224
2.68437
2.68864
2.6949
2.70292
2.70835
2.70865
2.70651
2.69985
2.68967
2.68355
2.68074
2.67835
2.67651
2.67139
2.66196
2.64555
2.6263
2.61527
2.59975
5.105
5.03957
4.97307
4.9055
4.83618
4.7646
4.69132
4.6179
4.54561
4.47406
4.39872
4.31791
4.23769
4.16477
4.10196
4.03398
3.9563
3.87099
3.79581
3.73432
3.67579
3.61486
3.55163
3.48347
3.41597
3.35911
3.30963
3.26265
3.21575
3.16619
3.11104
3.05423
3.0063
2.96784
2.93352
2.90037
2.86547
2.8248
2.7772
2.73443
2.70783
2.68789
2.66986
2.65168
2.62978
2.59804
2.56776
2.55315
2.54477
2.54043
2.53579
2.52983
2.5224
2.51931
2.52209
2.52785
2.53908
2.54818
2.5506
2.55288
2.56018
2.57235
2.5863
2.59524
2.60257
2.61094
2.6198
2.62893
2.63986
2.65434
2.66946
2.6788
2.68456
2.68896
2.68821
2.68636
2.68884
2.69313
2.69804
2.70508
2.71001
2.71071
2.70917
2.70221
2.6912
2.68577
2.6845
2.68695
2.68579
2.67988
2.6711
2.65561
2.63514
2.62259
2.61529
2.60073
5.10575
5.04197
4.97658
4.90961
4.84064
4.76976
4.69769
4.62533
4.55317
4.4799
4.40338
4.32483
4.24867
4.18
4.11578
4.03979
3.95628
3.87483
3.8076
3.74711
3.68524
3.6206
3.55127
3.47816
3.41381
3.35959
3.30966
3.26152
3.21344
3.16195
3.10533
3.0501
3.00409
2.96566
2.9303
2.89596
2.86047
2.81998
2.77392
2.73354
2.70484
2.68114
2.66008
2.64067
2.61827
2.58898
2.56226
2.54655
2.53609
2.52849
2.52089
2.51348
2.50874
2.50737
2.51205
2.51814
2.52531
2.53649
2.54465
2.55084
2.562
2.57827
2.59362
2.605
2.61591
2.62767
2.64031
2.65348
2.66703
2.68178
2.69209
2.6965
2.69694
2.69188
2.69099
2.69438
2.69821
2.70189
2.70557
2.70849
2.71013
2.7089
2.70385
2.69543
2.68826
2.68532
2.68406
2.68558
2.68311
2.67696
2.6661
2.64755
2.63029
2.62031
2.61311
2.59861
5.10704
5.04391
4.97836
4.91057
4.84102
4.77047
4.69948
4.62828
4.55659
4.48329
4.4081
4.33281
4.26043
4.19345
4.1222
4.04095
3.9573
3.88481
3.81907
3.75645
3.69053
3.62168
3.54851
3.47756
3.41585
3.36129
3.31005
3.26038
3.21022
3.15713
3.10201
3.05003
3.00575
2.96706
2.93087
2.89515
2.85684
2.81507
2.77403
2.73977
2.71059
2.68366
2.65775
2.6328
2.60665
2.58044
2.5605
2.54534
2.53245
2.52132
2.51019
2.50021
2.49657
2.4966
2.50287
2.50904
2.5127
2.52123
2.53312
2.5463
2.56234
2.58036
2.59573
2.60962
2.62334
2.63719
2.65199
2.66989