/*--------------------------------*- C++ -*----------------------------------*\
  =========                 |
  \\      /  F ield         | OpenFOAM: The Open Source CFD Toolbox
   \\    /   O peration     | Website:  https://openfoam.org
    \\  /    A nd           | Version:  7
     \\/     M anipulation  |
\*---------------------------------------------------------------------------*/
FoamFile
{
    version     2.0;
    format      ascii;
    class       volScalarField;
    location    "17";
    object      T;
}
// * * * * * * * * * * * * * * * * * * * * * * * * * * * * * * * * * * * * * //

dimensions      [0 0 0 1 0 0 0];

internalField   nonuniform List<scalar> 
4032
(
1
1
1
1
1
1
1
1
1
1
1
1.51216
2.58723
2.74317
2.74689
2.75776
2.76866
2.77963
2.78959
2.79793
2.80449
2.8089
2.81183
2.81411
1
1
1
1
1
1
1
1
1
1
1
1.48578
2.57421
2.74133
2.7454
2.75604
2.76679
2.77755
2.78726
2.79529
2.80151
2.80557
2.80814
2.81022
1
1
1
1
1
1
1
1
1
1
1
1.41989
2.54395
2.73601
2.74091
2.75227
2.7633
2.77406
2.78357
2.79128
2.79719
2.80102
2.80343
2.80553
1
1
1
1
1
1
1
1
1
1
1
1.31955
2.49116
2.72515
2.73345
2.74668
2.75825
2.76906
2.77846
2.78598
2.79164
2.79496
2.79655
2.79813
1
1
1
1
1
1
1
1
1
1
1
1.18533
2.41434
2.70958
2.7224
2.73851
2.75064
2.76117
2.76986
2.77639
2.78096
2.78361
2.78415
2.78648
1
1
1
1
1
1
1
1
1
1
1
1.01693
2.31641
2.69757
2.71481
2.7304
2.74188
2.75133
2.75918
2.76492
2.76835
2.76948
2.76559
2.75759
1
1
1
1
1
1
1
1
1
1
1
1.00013
2.20137
2.67864
2.69962
2.71424
2.72655
2.73633
2.74352
2.74754
2.74744
2.74245
2.73122
2.72067
1
1
1
1
1
1
1
1
1
1
1
1
2.04162
2.65679
2.68876
2.70163
2.71306
2.72104
2.72559
2.7266
2.72209
2.71496
2.70797
2.7211
1
1
1
1
1
1
1
1
1
1
1
1
1.8258
2.6021
2.66977
2.68654
2.69772
2.70442
2.70592
2.70329
2.69352
2.67264
2.62343
2.53325
1
1
1
1
1
1
1
1
1
1
1
1
1.50983
2.48564
2.64819
2.66669
2.67906
2.6838
2.68234
2.67561
2.66005
2.62422
2.56953
2.42256
1
1
1
1
1
1
1
1
1
1
1
1
1.11314
2.34702
2.64428
2.64345
2.6497
2.65456
2.65288
2.64404
2.62597
2.58585
2.52434
2.34316
1
1
1
1
1
1
1
1
1
1
1
1
1.00311
2.19586
2.6063
2.61123
2.62067
2.62164
2.62027
2.61129
2.5922
2.55355
2.48611
2.34461
1
1
1
1
1
1
1
1
1
1
1
1
0.999994
1.92332
2.5622
2.59828
2.60387
2.60185
2.59627
2.58349
2.56141
2.52439
2.45903
2.35636
1
1
1
1
1
1
1
1
1
1
1
1
0.999998
1.49955
2.44349
2.58708
2.58481
2.58291
2.57462
2.56014
2.53742
2.49998
2.44266
2.37384
1
1
1
1
1
1
1
1
1
1
1
1
1
1.06701
2.27879
2.58065
2.57041
2.56388
2.55551
2.54133
2.518
2.48209
2.43814
2.3927
1
1
1
1
1
1
1
1
1
1
1
1
1
1.00095
2.05741
2.53152
2.54832
2.547
2.54082
2.52666
2.50475
2.47651
2.44257
2.40949
1
1
1
1
1
1
1
1
1
1
1
1
1
0.999995
1.61799
2.43226
2.5486
2.54079
2.53138
2.51795
2.49977
2.47696
2.44921
2.42198
1
1
1
1
1
1
1
1
1
1
1
1
1
0.999999
1.1033
2.27934
2.54261
2.53216
2.52256
2.51322
2.49913
2.47992
2.45691
2.43237
1
1
1
1
1
1
1
1
1
1
1
1
1
1
1.0024
2.09001
2.51016
2.52586
2.52271
2.51588
2.50194
2.48487
2.4643
2.44157
1
1
1
1
1
1
1
1
1
1
1
1
1
1
0.999989
1.68893
2.44723
2.54514
2.53214
2.5199
2.5046
2.48878
2.46984
2.44888
1
1
1
1
1
1
1
1
1
1
1
1
1
1
0.999997
1.18512
2.33271
2.54869
2.52685
2.51772
2.50653
2.49317
2.4761
2.4568
1
1
1
1
1
1
1
1
1
1
1
1
1
1
1
1.00742
2.23146
2.5618
2.54026
2.52632
2.5121
2.49823
2.48203
2.46443
1
1
1
1
1
1
1
1
1
1
1
1
1
1
1
1
2.02499
2.57464
2.56606
2.54535
2.52641
2.50896
2.49141
2.47416
1
1
1
1
1
1
1
1
1
1
1
1
1
1
1
0.999999
1.73826
2.54668
2.58299
2.56152
2.5424
2.52296
2.50433
2.48707
1
1
1
1
1
1
1
1
1
1
1
1
1
1
1
1
1.40395
2.4655
2.61207
2.5818
2.56287
2.54293
2.5236
2.50545
1
1
1
1
1
1
1
1
1
1
1
1
1
1
1
1
1.10595
2.37477
2.62867
2.59689
2.57949
2.56122
2.54273
2.52453
1
1
1
1
1
1
1
1
1
1
1
1
1
1
1
1
1.00272
2.27896
2.64498
2.61692
2.60039
2.58294
2.56495
2.54659
1
1
1
1
1
1
1
1
1
1
1
1
1
1
1
1
1.00001
2.16198
2.65324
2.63924
2.62292
2.60626
2.58874
2.57051
1
1
1
1
1
1
1
1
1
1
1
1
1
1
1
1
1
2.02561
2.64412
2.65429
2.63874
2.62507
2.60907
2.59215
1
1
1
1
1
1
1
1
1
1
1
1
1
1
1
1
1
1.88224
2.61228
2.65868
2.64235
2.63229
2.61931
2.60548
1
1
1
1
1
1
1
1
1
1
1
1
1
1
1
1
1
1.73212
2.57249
2.66045
2.64273
2.63384
2.62183
2.60914
1
1
1
1
1
1
1
1
1
1
1
1
1
1
1
1
1
1.58893
2.53533
2.66031
2.63969
2.63071
2.61943
2.60778
1
1
1
1
1
1
1
1
1
1
1
1
1
1
1
1
1
1.45468
2.50101
2.66252
2.63911
2.62921
2.61781
2.60639
1
1
1
1
1
1
1
1
1
1
1
1
1
1
1
1
1
1.33553
2.47092
2.66874
2.64382
2.6324
2.62023
2.60826
1
1
1
1
1
1
1
1
1
1
1
1
1
1
1
1
1
1.2641
2.44706
2.67626
2.65172
2.63946
2.62663
2.61418
1
1
1
1
1
1
1
1
1
1
1
1
1
1
1
1
1
1.21476
2.42355
2.67981
2.6576
2.64584
2.63334
2.62112
1
1
1
1
1
1
1
1
1
1
1
1
1
1
1
1
1
1.17703
2.40001
2.67938
2.65986
2.64945
2.63783
2.62604
1
1
1
1
1
1
1
1
1
1
1
1
1
1
1
1
1
1.15182
2.38086
2.67712
2.6598
2.65057
2.63955
2.62812
1
1
1
1
1
1
1
1
1
1
1
1
1
1
1
1
1
1.13802
2.36942
2.67524
2.6599
2.65129
2.64014
2.62843
1
1
1
1
1
1
1
1
1
1
1
1
1
1
1
1
1
1.1342
2.3667
2.67457
2.66039
2.65187
2.64026
2.62819
1.86596
2.05985
2.30313
2.42485
2.47106
2.50416
2.54173
2.57468
2.60284
2.62546
2.63736
2.64861
2.65982
2.66987
2.67839
2.68571
2.69236
2.69811
2.70348
2.70925
2.71586
2.72282
2.73006
2.73662
2.74139
2.74396
2.74451
2.74286
2.73842
2.73229
2.72608
2.72081
2.71681
2.71372
2.71088
2.70782
2.70411
2.69901
2.69191
2.68281
2.67255
2.66134
2.64949
2.63791
2.62752
2.61873
2.61127
2.60424
2.59639
2.58756
2.57755
2.56655
2.55497
2.54291
2.53055
2.51819
2.50633
2.4956
2.48653
2.47917
2.47273
2.46554
2.45642
2.4456
2.43419
2.42303
2.41238
2.40174
2.39038
2.37881
2.36792
2.3583
2.35064
2.34575
2.34199
2.33479
2.32529
2.31564
2.30627
2.29769
2.29005
2.2827
2.27553
2.26835
2.26189
2.2563
2.25193
2.24929
2.24772
2.24527
2.24214
2.23938
2.23821
2.24016
2.24336
2.25221
2.11286
2.27487
2.37751
2.43641
2.47715
2.51021
2.5432
2.56632
2.58342
2.60015
2.61436
2.62974
2.64514
2.66007
2.67627
2.69063
2.70054
2.70534
2.70665
2.70777
2.71105
2.71657
2.72239
2.72552
2.72538
2.72383
2.72252
2.72186
2.72088
2.71837
2.71373
2.70747
2.70077
2.69463
2.68938
2.68459
2.67933
2.67257
2.66401
2.65446
2.64501
2.63599
2.62717
2.61834
2.60913
2.59947
2.58998
2.58114
2.57291
2.56453
2.55471
2.54328
2.53124
2.51953
2.50846
2.49776
2.48691
2.47575
2.46488
2.45499
2.44638
2.4388
2.43095
2.42152
2.41096
2.40021
2.38992
2.38065
2.37191
2.36252
2.35269
2.34307
2.33442
2.32741
2.32146
2.31457
2.30579
2.2967
2.28751
2.27864
2.27058
2.26335
2.25676
2.25078
2.24558
2.24119
2.23787
2.23603
2.23462
2.23148
2.2276
2.22409
2.22172
2.22185
2.22275
2.23563
2.1724
2.26831
2.24602
2.29487
2.36896
2.43098
2.47428
2.49724
2.51402
2.53492
2.5653
2.59684
2.61978
2.63319
2.64248
2.65095
2.65844
2.66187
2.65937
2.6545
2.65151
2.652
2.65595
2.65994
2.66045
2.6571
2.65146
2.64673
2.64438
2.64385
2.64345
2.64126
2.63617
2.62913
2.62187
2.61533
2.60901
2.60169
2.59237
2.58062
2.56833
2.55706
2.54769
2.54039
2.53388
2.52629
2.51704
2.50755
2.4987
2.49074
2.48267
2.47286
2.4616
2.45034
2.44006
2.4312
2.42354
2.41614
2.40787
2.39877
2.38939
2.38035
2.37209
2.36362
2.35421
2.34457
2.33433
2.32441
2.31604
2.30852
2.30158
2.29542
2.28972
2.28355
2.27659
2.26933
2.26226
2.25513
2.24769
2.23974
2.23124
2.22233
2.21346
2.20587
2.20039
2.19612
2.19328
2.19237
2.19225
2.19132
2.18974
2.18781
2.18485
2.18096
2.18034
2.19216
2.21778
2.28033
2.2207
2.22607
2.27357
2.32703
2.36116
2.38927
2.41663
2.43776
2.46458
2.49506
2.5181
2.52939
2.53042
2.53361
2.53755
2.54385
2.54888
2.54888
2.54492
2.53956
2.53594
2.5358
2.5377
2.53805
2.53482
2.52777
2.52025
2.51436
2.51056
2.50774
2.50382
2.4973
2.48851
2.47916
2.47074
2.46383
2.45766
2.45091
2.44141
2.4306
2.42017
2.41104
2.4042
2.39865
2.39183
2.38373
2.37507
2.36651
2.35895
2.35119
2.34215
2.33297
2.32397
2.31627
2.30967
2.30387
2.29785
2.29089
2.28404
2.2772
2.27009
2.26291
2.25572
2.24886
2.24222
2.23538
2.22837
2.22195
2.21601
2.21029
2.20501
2.19981
2.1945
2.18931
2.1843
2.17923
2.17399
2.16847
2.16253
2.15613
2.14956
2.14351
2.13843
2.13429
2.13064
2.12734
2.12555
2.12578
2.12714
2.12889
2.12968
2.12885
2.1292
2.13825
2.28056
2.29934
2.23259
2.18223
2.19496
2.2252
2.25096
2.27726
2.30481
2.31872
2.32823
2.3408
2.36132
2.37705
2.38562
2.38917
2.39416
2.39909
2.40638
2.41087
2.40993
2.4051
2.39801
2.39244
2.39075
2.39079
2.38964
2.38477
2.37714
2.36953
2.36375
2.36015
2.35755
2.35422
2.34866
2.34116
2.33373
2.32742
2.32204
2.31712
2.31159
2.30453
2.29746
2.29119
2.28656
2.28317
2.27724
2.26968
2.26179
2.25455
2.24805
2.24098
2.23367
2.22594
2.21845
2.21215
2.2061
2.19977
2.19318
2.18679
2.18124
2.17597
2.17051
2.16471
2.1585
2.15199
2.14543
2.13921
2.13395
2.12963
2.12543
2.12089
2.11583
2.11029
2.10495
2.10027
2.09616
2.09225
2.08814
2.08355
2.07827
2.07237
2.06675
2.06324
2.06097
2.05866
2.0559
2.05199
2.04826
2.04771
2.04769
2.04936
2.0527
2.05486
2.05869
2.07022
2.32605
2.32122
2.25724
2.19296
2.18154
2.19282
2.20684
2.22106
2.23915
2.24309
2.24072
2.2403
2.24443
2.25543
2.26257
2.26336
2.26225
2.26492
2.27111
2.2768
2.27652
2.27251
2.26729
2.26357
2.26293
2.26443
2.26465
2.26161
2.25558
2.24937
2.2448
2.24256
2.24219
2.24187
2.23933
2.2339
2.22818
2.22276
2.21802
2.21503
2.21286
2.20884
2.20319
2.19765
2.19267
2.1876
2.18177
2.17587
2.17018
2.16468
2.15894
2.15291
2.14637
2.13907
2.13213
2.12585
2.11969
2.11358
2.10783
2.10318
2.0994
2.09576
2.09158
2.08633
2.07974
2.07214
2.06476
2.05894
2.05497
2.05204
2.04933
2.04604
2.04167
2.03649
2.03122
2.02652
2.02258
2.01915
2.01604
2.01298
2.0093
2.0043
1.99871
1.99537
1.99361
1.99179
1.98954
1.98615
1.98276
1.98242
1.9822
1.98382
1.98803
1.99239
1.99779
2.00975
2.35996
2.34082
2.28002
2.22113
2.19339
2.19932
2.20506
2.21076
2.21703
2.21242
2.20354
2.19423
2.19185
2.19687
2.2001
2.19832
2.19319
2.19262
2.19555
2.19844
2.19771
2.19219
2.1867
2.18466
2.18444
2.18588
2.18615
2.18378
2.17947
2.17521
2.17244
2.17177
2.17225
2.17178
2.16771
2.16242
2.15741
2.15351
2.15116
2.15122
2.15041
2.14616
2.14117
2.13638
2.13244
2.12921
2.12509
2.12004
2.11494
2.10982
2.10449
2.09871
2.09226
2.08564
2.07994
2.0748
2.06992
2.06535
2.06104
2.05654
2.05191
2.04724
2.04223
2.03638
2.02945
2.02222
2.01642
2.01225
2.00881
2.00562
2.00219
1.99787
1.99251
1.98673
1.98134
1.97667
1.97292
1.97005
1.96779
1.96551
1.96214
1.95728
1.95217
1.94839
1.9465
1.945
1.94336
1.9411
1.93915
1.93862
1.93845
1.94094
1.94542
1.95033
1.95718
1.96945
2.38339
2.35797
2.30328
2.25356
2.22567
2.22174
2.2159
2.2149
2.21432
2.20619
2.19248
2.17768
2.17146
2.17373
2.17595
2.17296
2.16604
2.1613
2.16161
2.16344
2.16274
2.15752
2.1511
2.14709
2.14587
2.14613
2.14628
2.14454
2.1411
2.13785
2.13516
2.13416
2.13397
2.13166
2.12783
2.12445
2.12219
2.12146
2.1228
2.12398
2.12128
2.1163
2.11103
2.10733
2.1053
2.1047
2.10145
2.0963
2.09039
2.08476
2.0796
2.07395
2.06748
2.06179
2.05746
2.05385
2.05066
2.04709
2.0424
2.03689
2.03052
2.02377
2.01722
2.01094
2.00497
1.99997
1.99605
1.99204
1.98713
1.98124
1.97486
1.96851
1.96258
1.95757
1.95351
1.94977
1.94636
1.94368
1.941
1.93754
1.93271
1.92766
1.9238
1.92063
1.91867
1.91759
1.91652
1.91537
1.91487
1.9143
1.9152
1.91889
1.92302
1.92867
1.93591
1.94584
2.39786
2.37154
2.32492
2.28453
2.26377
2.2535
2.23985
2.2312
2.2252
2.21413
2.19708
2.17826
2.16905
2.16896
2.16961
2.16503
2.15652
2.15002
2.14893
2.15014
2.14897
2.14332
2.13581
2.13077
2.12856
2.12875
2.12899
2.12664
2.12297
2.11948
2.11623
2.11455
2.11438
2.11261
2.10995
2.10827
2.10762
2.10797
2.10838
2.10598
2.10148
2.0969
2.09352
2.09157
2.09073
2.08773
2.08272
2.07654
2.07146
2.06752
2.06313
2.05762
2.05137
2.04678
2.04328
2.04021
2.03683
2.03231
2.02627
2.0186
2.01087
2.00448
1.99889
1.99388
1.98955
1.9856
1.98099
1.97454
1.96659
1.95908
1.95268
1.94711
1.9425
1.9392
1.93639
1.93325
1.92944
1.92536
1.92094
1.91592
1.91117
1.90802
1.90623
1.90473
1.90327
1.90226
1.90078
1.90075
1.90124
1.90204
1.90598
1.91103
1.91672
1.92153
1.92635
1.93193
2.40865
2.38239
2.3426
2.30958
2.29326
2.28076
2.26468
2.25373
2.24596
2.23343
2.21337
2.19046
2.17801
2.1753
2.17333
2.16649
2.15575
2.14803
2.14616
2.14717
2.1449
2.13853
2.12999
2.12427
2.12127
2.12111
2.12025
2.11617
2.11159
2.10717
2.10349
2.10102
2.1008
2.09935
2.09654
2.09432
2.09296
2.09258
2.09078
2.08653
2.08153
2.07772
2.07566
2.07516
2.07323
2.068
2.06185
2.05549
2.05157
2.04881
2.04527
2.04011
2.03378
2.02906
2.02557
2.02211
2.01799
2.01307
2.00669
1.9984
1.99128
1.98625
1.98191
1.97775
1.97367
1.96936
1.96377
1.95578
1.94668
1.9403
1.93542
1.93106
1.92778
1.92554
1.92345
1.92087
1.91684
1.91059
1.90388
1.89861
1.89534
1.89441
1.89441
1.89439
1.89388
1.89264
1.8911
1.89112
1.89231
1.89627
1.90265
1.9088
1.916
1.9186
1.92084
1.92262
2.41872
2.39329
2.359
2.33133
2.31617
2.30133
2.28384
2.27267
2.26544
2.25355
2.23344
2.21008
2.19619
2.19071
2.18522
2.17528
2.16153
2.15255
2.14979
2.1497
2.1458
2.13806
2.1282
2.1221
2.11854
2.11696
2.11302
2.10801
2.10175
2.0964
2.0923
2.08939
2.08796
2.08525
2.08164
2.07814
2.07586
2.07441
2.07173
2.06758
2.06274
2.05941
2.05794
2.05738
2.0537
2.04826
2.04157
2.0361
2.03331
2.03151
2.02833
2.0234
2.01687
2.01159
2.00788
2.00414
2.00003
1.99512
1.98868
1.98111
1.97539
1.97102
1.9668
1.96256
1.95818
1.95323
1.94661
1.93838
1.93132
1.92698
1.92321
1.9197
1.91687
1.91461
1.91254
1.90994
1.90532
1.89835
1.89166
1.88758
1.88559
1.8854
1.88612
1.88668
1.88637
1.88513
1.88486
1.88622
1.88864
1.89485
1.9019
1.9078
1.91436
1.91538
1.91571
1.91512
2.42751
2.40326
2.37298
2.34871
2.33364
2.31703
2.29826
2.2864
2.27923
2.26803
2.24897
2.22728
2.21393
2.20721
2.19945
2.18727
2.17165
2.1622
2.15854
2.15612
2.14976
2.1398
2.12817
2.12133
2.11706
2.11325
2.1074
2.10052
2.09237
2.0864
2.08189
2.07842
2.07533
2.07115
2.06629
2.06195
2.05903
2.05678
2.05408
2.05015
2.04561
2.04288
2.04205
2.04057
2.0365
2.03099
2.02406
2.01919
2.0171
2.01653
2.01365
2.00891
2.00233
1.99703
1.99331
1.98931
1.98488
1.9798
1.97328
1.96734
1.96325
1.9592
1.9548
1.95022
1.9454
1.93916
1.93205
1.92554
1.92179
1.9189
1.91654
1.91355
1.90997
1.90665
1.90359
1.89956
1.89459
1.88961
1.8856
1.88325
1.8819
1.88163
1.88133
1.88062
1.88029
1.88027
1.88242
1.88549
1.88917
1.89707
1.90191
1.90557
1.90993
1.91023
1.90935
1.90796
2.43682
2.41363
2.38613
2.36394
2.34831
2.32995
2.30958
2.29644
2.28857
2.2774
2.25905
2.23864
2.22582
2.21838
2.20935
2.19601
2.17989
2.1705
2.16601
2.16135
2.15317
2.14116
2.12822
2.12078
2.11535
2.10923
2.10199
2.09341
2.08417
2.07795
2.07305
2.06888
2.06444
2.05929
2.05359
2.04864
2.04525
2.04311
2.04073
2.03651
2.03146
2.02834
2.02786
2.02677
2.02361
2.01867
2.01195
2.0076
2.00598
2.00532
2.00177
1.99693
1.99103
1.98687
1.98371
1.98
1.97555
1.97002
1.96353
1.95949
1.95634
1.95281
1.94872
1.94379
1.93704
1.92938
1.92316
1.92032
1.91894
1.91865
1.91673
1.91322
1.90893
1.90332
1.89726
1.89229
1.88953
1.88834
1.88728
1.886
1.88427
1.88173
1.87903
1.87742
1.87778
1.88029
1.88529
1.88948
1.89451
1.90087
1.90172
1.90195
1.90344
1.90413
1.90338
1.90158
2.44615
2.42459
2.39998
2.37964
2.36367
2.34417
2.32227
2.30749
2.29815
2.28581
2.26695
2.24657
2.23387
2.22577
2.21562
2.2014
2.18488
2.17527
2.16988
2.16359
2.15416
2.14091
2.12778
2.12017
2.11368
2.10629
2.09803
2.08829
2.07864
2.07228
2.06701
2.06238
2.05764
2.05213
2.04551
2.04009
2.03644
2.03405
2.03282
2.02925
2.02458
2.0208
2.01889
2.01777
2.01556
2.01211
2.00708
2.0039
2.00283
2.00061
1.99645
1.99101
1.98586
1.98306
1.98078
1.97783
1.97396
1.96871
1.96226
1.95745
1.95341
1.94901
1.94418
1.93847
1.93111
1.92532
1.92287
1.92212
1.92252
1.92082
1.91733
1.91305
1.90702
1.89948
1.89403
1.89177
1.89073
1.89104
1.89133
1.89074
1.88845
1.88351
1.87951
1.87904
1.8804
1.885
1.89228
1.89617
1.90011
1.90106
1.89912
1.89827
1.89863
1.89922
1.89902
1.89711
2.45686
2.43672
2.41433
2.39515
2.37901
2.35881
2.3376
2.32243
2.31164
2.29695
2.27622
2.25555
2.24276
2.2338
2.22233
2.20684
2.18962
2.17957
2.17326
2.1658
2.15548
2.14138
2.12874
2.12124
2.11395
2.1058
2.09669
2.08571
2.07586
2.06952
2.06415
2.05939
2.05494
2.04977
2.04307
2.03707
2.03302
2.03095
2.02951
2.02637
2.02212
2.01768
2.01485
2.01325
2.01172
2.00869
2.00451
2.00182
2.00054
1.99848
1.99512
1.99001
1.98417
1.98101
1.97875
1.97595
1.9725
1.96805
1.96192
1.95631
1.95203
1.94777
1.94311
1.93758
1.93081
1.92615
1.92401
1.92248
1.92058
1.91809
1.91486
1.91103
1.90527
1.89808
1.8947
1.89327
1.893
1.89356
1.89365
1.89302
1.89109
1.88687
1.88475
1.88542
1.88788
1.8942
1.89947
1.9007
1.90175
1.90012
1.89719
1.89709
1.89722
1.8977
1.89755
1.89424
2.47017
2.45116
2.43086
2.41288
2.39649
2.37607
2.35471
2.33909
2.3273
2.31122
2.2896
2.26933
2.25634
2.24596
2.23294
2.21584
2.19791
2.18759
2.18028
2.1717
2.16049
2.14591
2.13418
2.12649
2.1188
2.11047
2.10114
2.08979
2.07945
2.0732
2.06847
2.06439
2.05968
2.0538
2.04559
2.03934
2.03536
2.03293
2.03066
2.0275
2.02288
2.01734
2.01429
2.01274
2.0116
2.00883
2.00482
2.00203
2.00077
1.99887
1.99581
1.99116
1.98552
1.98251
1.98045
1.97764
1.97413
1.96971
1.96375
1.95768
1.953
1.94891
1.94463
1.9398
1.93534
1.93117
1.92728
1.92382
1.92044
1.91712
1.91389
1.91009
1.90495
1.90051
1.89826
1.89683
1.89652
1.89692
1.89721
1.89638
1.89305
1.89153
1.89258
1.89494
1.89936
1.9036
1.90456
1.90377
1.90218
1.90103
1.90063
1.90079
1.90074
1.90021
1.89864
1.89399
2.48765
2.46866
2.4495
2.43242
2.41553
2.39486
2.37417
2.35841
2.3457
2.32856
2.30704
2.28838
2.27556
2.26365
2.24863
2.22951
2.21171
2.20158
2.19329
2.18384
2.17207
2.15687
2.14593
2.13861
2.13151
2.12379
2.11524
2.10487
2.09472
2.08711
2.08053
2.07408
2.0674
2.06008
2.05116
2.04385
2.04006
2.0371
2.03387
2.03009
2.02498
2.01922
2.01594
2.01439
2.01323
2.0102
2.00581
2.00214
2.00054
1.99929
1.99721
1.99394
1.98909
1.98552
1.98349
1.98095
1.97769
1.97362
1.96814
1.96228
1.95785
1.95435
1.95083
1.94706
1.94334
1.93932
1.93471
1.92987
1.92539
1.92132
1.91728
1.91325
1.91008
1.9082
1.90702
1.90592
1.90543
1.90505
1.90345
1.90074
1.90062
1.90257
1.90636
1.91072
1.9126
1.91304
1.9111
1.90921
1.90942
1.91048
1.91143
1.91136
1.90992
1.90693
1.90366
1.89817
2.50623
2.48737
2.46912
2.45263
2.43536
2.41509
2.3956
2.3804
2.36682
2.34854
2.32702
2.30987
2.29774
2.28474
2.2681
2.2485
2.23333
2.22406
2.21469
2.20358
2.19021
2.176
2.16587
2.15774
2.15
2.14172
2.13192
2.12001
2.10892
2.10095
2.09406
2.08723
2.08026
2.07248
2.06322
2.05456
2.04884
2.04416
2.03953
2.03439
2.028
2.02254
2.01963
2.01823
2.01689
2.01356
2.00872
2.00402
2.00192
2.0013
2.00094
1.99922
1.99571
1.99139
1.98906
1.98711
1.98444
1.98085
1.97625
1.97178
1.96827
1.96534
1.96237
1.95911
1.95552
1.95143
1.94684
1.94182
1.93657
1.93178
1.92803
1.92516
1.92319
1.92289
1.92281
1.92205
1.92042
1.918
1.91584
1.91602
1.91761
1.92127
1.92602
1.92811
1.9282
1.92679
1.92397
1.92395
1.92501
1.92745
1.92819
1.92683
1.92336
1.91856
1.91436
1.91114
2.52775
2.50879
2.49091
2.47443
2.45673
2.43699
2.41877
2.40439
2.38999
2.37056
2.34938
2.3332
2.32125
2.30755
2.28993
2.26948
2.25487
2.24473
2.23481
2.22326
2.20893
2.19491
2.18533
2.17719
2.16908
2.16013
2.14933
2.13659
2.1249
2.11604
2.10823
2.10062
2.0927
2.08373
2.07348
2.0643
2.0578
2.05216
2.04643
2.0398
2.03179
2.02626
2.0234
2.02211
2.02075
2.01764
2.01297
2.00791
2.00566
2.00552
2.0065
2.00612
2.00385
1.99992
1.99738
1.99623
1.9942
1.99104
1.9879
1.98531
1.9829
1.98047
1.97755
1.97409
1.97023
1.96635
1.96242
1.9582
1.95357
1.94956
1.94682
1.94448
1.94316
1.94312
1.94312
1.94233
1.93992
1.93756
1.93728
1.93713
1.938
1.94198
1.94678
1.94765
1.94674
1.9431
1.94123
1.94108
1.94136
1.94306
1.94332
1.94114
1.93689
1.93171
1.92914
1.92643
2.55166
2.53288
2.51512
2.49809
2.47972
2.46044
2.44325
2.42915
2.41346
2.39326
2.37318
2.35785
2.34557
2.33057
2.31166
2.29138
2.2774
2.26639
2.25491
2.24199
2.22641
2.21282
2.20321
2.19433
2.18535
2.17546
2.16348
2.14979
2.13784
2.12844
2.11989
2.11122
2.10166
2.09069
2.07892
2.06947
2.06302
2.05722
2.05113
2.04384
2.035
2.02891
2.02576
2.02415
2.02296
2.02058
2.01676
2.01237
2.01039
2.01067
2.01217
2.01182
2.01013
2.00718
2.00494
2.00441
2.00283
2.0002
1.99866
1.99762
1.99668
1.99515
1.99224
1.98845
1.98433
1.98114
1.97853
1.97625
1.97402
1.97171
1.96979
1.96808
1.96695
1.96632
1.96543
1.96381
1.96258
1.9624
1.96227
1.9619
1.9621
1.96431
1.96685
1.96696
1.96479
1.96167
1.9604
1.9592
1.95851
1.95835
1.9571
1.954
1.94968
1.94659
1.94524
1.94247
2.57442
2.55644
2.53883
2.52106
2.50211
2.48318
2.46654
2.45181
2.43454
2.41418
2.39555
2.38082
2.36763
2.35089
2.33044
2.31118
2.29762
2.28579
2.27275
2.25794
2.24088
2.22753
2.21768
2.20807
2.19798
2.18655
2.17291
2.15884
2.14734
2.13755
2.12811
2.11814
2.10691
2.09422
2.08199
2.07308
2.06651
2.06045
2.0542
2.04682
2.03752
2.03057
2.02693
2.025
2.02387
2.02188
2.0187
2.01552
2.01429
2.01502
2.01574
2.01453
2.01276
2.01075
2.00975
2.01
2.00902
2.0069
2.00557
2.0051
2.00508
2.00429
2.00221
1.99883
1.99528
1.99331
1.99204
1.99211
1.9922
1.99144
1.99028
1.98924
1.98784
1.9868
1.98609
1.98601
1.98667
1.98741
1.9875
1.9872
1.98673
1.98633
1.98551
1.98406
1.98229
1.98104
1.97985
1.97881
1.97764
1.97556
1.97223
1.96748
1.96416
1.96239
1.96131
1.95841
2.59024
2.57394
2.55701
2.53921
2.52056
2.50236
2.48594
2.46985
2.45123
2.43157
2.4143
2.40026
2.38551
2.36665
2.34536
2.32772
2.31443
2.30168
2.28694
2.26982
2.25227
2.23952
2.22885
2.21821
2.20676
2.19372
2.17897
2.16525
2.15406
2.14391
2.13382
2.12317
2.11115
2.09766
2.08549
2.07681
2.07
2.06373
2.05738
2.05014
2.04108
2.03381
2.02973
2.02725
2.02519
2.0226
2.0192
2.01679
2.01639
2.01732
2.01714
2.01533
2.01259
2.01133
2.01125
2.01245
2.01182
2.01012
2.00812
2.00718
2.00685
2.00649
2.00537
2.00318
2.0015
2.00113
2.00166
2.00315
2.00438
2.00456
2.00416
2.00314
2.00184
2.00202
2.00301
2.00548
2.00857
2.00975
2.00968
2.00841
2.00614
2.00299
2.00053
1.99972
1.99935
1.999
1.99829
1.99638
1.99321
1.9885
1.98357
1.98061
1.97896
1.97761
1.97639
1.97266
2.59522
2.58046
2.56482
2.54788
2.53027
2.51348
2.49785
2.48074
2.46079
2.4418
2.42637
2.4137
2.39724
2.37654
2.3564
2.34089
2.3278
2.31345
2.29697
2.27807
2.26121
2.24867
2.23701
2.2252
2.2126
2.19824
2.18275
2.16937
2.15829
2.14795
2.13761
2.12671
2.11433
2.10072
2.08913
2.08058
2.07351
2.06715
2.06058
2.05272
2.04426
2.03777
2.03329
2.02972
2.02633
2.02256
2.01832
2.01655
2.01653
2.01743
2.01683
2.01444
2.01079
2.00965
2.0104
2.01247
2.01207
2.01067
2.00801
2.00587
2.00518
2.00494
2.00532
2.00523
2.0056
2.00621
2.00706
2.00839
2.01021
2.01159
2.01187
2.01135
2.0116
2.01322
2.01613
2.02003
2.02357
2.02485
2.02466
2.02271
2.01862
2.01546
2.01443
2.01439
2.01444
2.01393
2.01189
2.00786
2.00256
1.99832
1.99627
1.99499
1.99386
1.99216
1.98971
1.98427
2.59515
2.582
2.56803
2.55302
2.53751
2.52195
2.50577
2.4881
2.46995
2.45296
2.4376
2.42239
2.40396
2.38376
2.36597
2.35109
2.33733
2.32141
2.30332
2.28384
2.26826
2.25569
2.24354
2.23106
2.21734
2.20123
2.18536
2.17279
2.16191
2.15156
2.14121
2.12974
2.11609
2.10254
2.09234
2.08426
2.07683
2.06957
2.06188
2.05312
2.0446
2.03907
2.03503
2.03106
2.02658
2.02073
2.01541
2.01382
2.01377
2.0143
2.01349
2.011
2.00715
2.00599
2.0072
2.00998
2.01002
2.00894
2.00596
2.00329
2.00275
2.0038
2.0064
2.0083
2.00901
2.00946
2.0101
2.01119
2.01294
2.01507
2.01732
2.01951
2.02134
2.02321
2.02593
2.0294
2.03142
2.03153
2.0303
2.02782
2.02691
2.0267
2.02686
2.02687
2.02656
2.02472
2.02087
2.01604
2.01265
2.01098
2.00997
2.00893
2.0073
2.00417
1.99978
1.99185
2.59432
2.58153
2.56793
2.55379
2.5393
2.52436
2.5084
2.49144
2.47458
2.45865
2.44394
2.42738
2.40826
2.38949
2.37329
2.35939
2.34423
2.32697
2.30716
2.28918
2.27553
2.26245
2.24932
2.23558
2.22011
2.20347
2.18907
2.17736
2.16655
2.15575
2.14402
2.13074
2.11696
2.10528
2.09618
2.0879
2.07955
2.07066
2.06117
2.05144
2.04356
2.03873
2.03473
2.03053
2.02506
2.01679
2.01032
2.00839
2.00794
2.00806
2.00717
2.00517
2.00202
2.00096
2.00201
2.00522
2.00635
2.0057
2.00395
2.00274
2.00333
2.00536
2.00893
2.01096
2.01164
2.0123
2.01306
2.01417
2.01611
2.01943
2.02305
2.0259
2.02804
2.03012
2.03245
2.03395
2.03395
2.03339
2.0328
2.03285
2.03325
2.03373
2.03469
2.03524
2.03424
2.03105
2.02705
2.02434
2.02301
2.02207
2.02132
2.02007
2.01695
2.0116
2.00626
1.99924
2.5959
2.5831
2.56975
2.5561
2.54206
2.52733
2.51171
2.49566
2.47985
2.46466
2.44927
2.43166
2.41301
2.39575
2.38086
2.36677
2.35027
2.33139
2.3113
2.29555
2.28187
2.26798
2.25389
2.23877
2.22213
2.20652
2.19373
2.1822
2.17074
2.15862
2.14529
2.13098
2.11778
2.10742
2.0986
2.09014
2.08137
2.07142
2.05982
2.04871
2.04185
2.03734
2.03318
2.0288
2.02285
2.01357
2.00592
2.00325
2.00217
2.00212
2.00146
2.00008
1.99773
1.99678
1.9977
2.00082
2.00421
2.00535
2.00505
2.0043
2.00524
2.00761
2.01141
2.01355
2.01463
2.01575
2.01674
2.01792
2.01999
2.02339
2.02776
2.03112
2.03316
2.03481
2.03549
2.03532
2.03471
2.03451
2.03484
2.03613
2.03828
2.03976
2.03979
2.03904
2.03679
2.03356
2.03201
2.03144
2.03105
2.03098
2.02988
2.02705
2.02175
2.01563
2.01188
2.00629
2.60144
2.58837
2.57491
2.56114
2.54695
2.53216
2.51687
2.50139
2.48601
2.47069
2.45436
2.43666
2.41898
2.40279
2.38869
2.3731
2.35498
2.33477
2.31678
2.30203
2.28795
2.27323
2.25783
2.24087
2.22385
2.20959
2.19719
2.18531
2.17327
2.1604
2.14606
2.13124
2.11871
2.10881
2.09998
2.09136
2.0823
2.07162
2.05876
2.04728
2.0407
2.03576
2.03109
2.0265
2.02089
2.01219
2.00388
2.00011
1.99818
1.99773
1.99719
1.99641
1.99523
1.99467
1.99575
1.99799
2.0019
2.00449
2.00494
2.0055
2.00757
2.01092
2.01455
2.01656
2.01804
2.01971
2.02146
2.02334
2.02584
2.02939
2.03309
2.03516
2.0361
2.03665
2.03618
2.03506
2.03521
2.0358
2.03691
2.03902
2.0407
2.04115
2.04102
2.03955
2.03702
2.03616
2.03625
2.03754
2.03746
2.03633
2.03415
2.02947
2.02314
2.01898
2.0163
2.01089
2.6085
2.59536
2.58171
2.56765
2.55318
2.53833
2.52317
2.50781
2.49231
2.47638
2.45959
2.44222
2.42521
2.40972
2.39506
2.37747
2.35794
2.33875
2.32289
2.30852
2.29368
2.278
2.26083
2.24249
2.22632
2.21268
2.20004
2.18772
2.17525
2.16179
2.14686
2.13226
2.12029
2.11036
2.1012
2.09223
2.08275
2.07178
2.05916
2.04834
2.04102
2.03501
2.02976
2.02491
2.01902
2.01082
2.00329
1.9993
1.99694
1.9955
1.99419
1.99301
1.9927
1.99258
1.99421
1.99631
1.99868
2.0021
2.00409
2.0054
2.00833
2.0127
2.01648
2.01881
2.02084
2.02307
2.02572
2.02882
2.03223
2.03588
2.03797
2.03861
2.03831
2.03598
2.035
2.03525
2.03605
2.03716
2.03838
2.03967
2.04086
2.04094
2.0404
2.03921
2.03849
2.03887
2.03961
2.04059
2.04013
2.03888
2.036
2.03026
2.0246
2.02111
2.01843
2.01298
2.61357
2.60049
2.5868
2.57259
2.55795
2.54298
2.52779
2.5124
2.49669
2.48041
2.46353
2.44648
2.42996
2.41462
2.39825
2.37962
2.36042
2.34372
2.32855
2.31392
2.29821
2.28145
2.26327
2.24546
2.22986
2.21593
2.2028
2.19001
2.17694
2.16293
2.14824
2.13449
2.12284
2.11266
2.10316
2.09375
2.08342
2.07189
2.06074
2.05158
2.04371
2.03669
2.03015
2.02369
2.01658
2.00921
2.00378
2.00004
1.99716
1.99474
1.99228
1.99002
1.99008
1.99025
1.99248
1.99445
1.99555
1.99814
2.0014
2.00468
2.00873
2.01336
2.01695
2.01979
2.02232
2.02485
2.02783
2.03199
2.03653
2.03875
2.03895
2.03876
2.03791
2.03748
2.03746
2.03771
2.03898
2.03999
2.03994
2.03992
2.04025
2.04043
2.04071
2.04079
2.04098
2.04195
2.04288
2.04353
2.04285
2.04111
2.03732
2.03191
2.027
2.02311
2.02009
2.01424
2.61579
2.60286
2.58943
2.57558
2.5613
2.54658
2.53143
2.51589
2.49991
2.48341
2.46641
2.44926
2.4326
2.41657
2.39901
2.3803
2.36325
2.3477
2.33294
2.31728
2.3008
2.2833
2.26554
2.24875
2.23358
2.2193
2.20556
2.19199
2.17793
2.1634
2.14971
2.13778
2.12702
2.11667
2.1062
2.09487
2.08329
2.07235
2.06335
2.05601
2.04868
2.04071
2.03139
2.02179
2.0144
2.00926
2.0058
2.00256
1.99882
1.99401
1.98887
1.98639
1.98623
1.98665
1.98914
1.99106
1.99176
1.99371
1.99694
2.0011
2.00654
2.01182
2.01567
2.01876
2.0214
2.02398
2.02702
2.03147
2.03655
2.03804
2.03814
2.03797
2.03815
2.03899
2.04053
2.04228
2.04305
2.04289
2.04193
2.04072
2.04062
2.04157
2.04289
2.04405
2.0452
2.04605
2.04611
2.04595
2.0448
2.04233
2.03868
2.03448
2.03078
2.02663
2.02252
2.01543
2.61596
2.603
2.58962
2.57587
2.56174
2.54721
2.53222
2.51672
2.50068
2.48418
2.46747
2.45076
2.43423
2.41717
2.39918
2.38219
2.36661
2.3515
2.33534
2.31884
2.30166
2.28422
2.26728
2.25176
2.23705
2.22263
2.20815
2.19319
2.17799
2.16364
2.15133
2.14101
2.13113
2.1209
2.10937
2.09579
2.08307
2.07466
2.06818
2.06163
2.05449
2.04541
2.03349
2.02161
2.01556
2.01209
2.0086
2.00498
2.00072
1.9941
1.98621
1.98324
1.98278
1.9832
1.98529
1.98682
1.98756
1.98846
1.99137
1.99539
2.00144
2.00806
2.01195
2.01457
2.01719
2.02001
2.0236
2.02928
2.03528
2.03676
2.03729
2.03783
2.0384
2.0397
2.04297
2.04526
2.04543
2.04487
2.04286
2.04173
2.04228
2.04376
2.04616
2.04844
2.05019
2.05074
2.04982
2.0476
2.04549
2.04303
2.04026
2.03774
2.0347
2.03053
2.0258
2.01702
2.61577
2.60299
2.58974
2.5761
2.56213
2.54775
2.53287
2.51744
2.50149
2.48521
2.46876
2.45217
2.43505
2.41742
2.40027
2.38422
2.36898
2.35329
2.33667
2.31957
2.30161
2.28446
2.26914
2.25441
2.23994
2.22531
2.20971
2.19285
2.17672
2.16403
2.15377
2.14402
2.13406
2.12285
2.10949
2.09547
2.08481
2.077
2.06957
2.06204
2.05402
2.04476
2.03318
2.02217
2.01556
2.01102
2.00714
2.00349
1.99919
1.9918
1.98257
1.97945
1.97894
1.97933
1.98059
1.98154
1.9819
1.98214
1.98508
1.98936
1.99575
2.00362
2.01036
2.01502
2.01837
2.02157
2.02536
2.03088
2.03649
2.03808
2.0389
2.03961
2.0403
2.0422
2.04656
2.04862
2.04857
2.04766
2.04501
2.04386
2.04457
2.04655
2.05042
2.05329
2.05426
2.05417
2.05174
2.04802
2.04568
2.04393
2.04214
2.03985
2.03661
2.03213
2.02688
2.01727
)
;

boundaryField
{
    inlet
    {
        type            fixedValue;
        value           uniform 1;
    }
    outlet
    {
        type            inletOutlet;
        inletValue      uniform 1;
        value           nonuniform List<scalar> 
32
(
2.25047
2.23577
2.19273
2.13806
2.07032
2.00969
1.96936
1.94577
1.93189
1.92262
1.91517
1.90819
1.90185
1.89722
1.89382
1.89336
1.89768
1.91139
1.92692
1.94295
1.95876
1.97282
1.9841
1.99161
1.99929
2.00655
2.01115
2.01326
2.01442
2.01538
2.01668
2.01681
)
;
    }
    bottom
    {
        type            symmetryPlane;
    }
    top
    {
        type            symmetryPlane;
    }
    obstacle
    {
        type            zeroGradient;
    }
    defaultFaces
    {
        type            empty;
    }
}

