/*--------------------------------*- C++ -*----------------------------------*\
  =========                 |
  \\      /  F ield         | OpenFOAM: The Open Source CFD Toolbox
   \\    /   O peration     | Website:  https://openfoam.org
    \\  /    A nd           | Version:  7
     \\/     M anipulation  |
\*---------------------------------------------------------------------------*/
FoamFile
{
    version     2.0;
    format      ascii;
    class       volVectorField;
    location    "17";
    object      U;
}
// * * * * * * * * * * * * * * * * * * * * * * * * * * * * * * * * * * * * * //

dimensions      [0 1 -1 0 0 0 0];

internalField   nonuniform List<vector> 
4032
(
(3 -2.58502e-16 0)
(3 -7.29417e-16 0)
(3 -1.42413e-15 0)
(3 -9.25246e-16 0)
(3 -9.87175e-16 0)
(3 -1.45526e-15 0)
(3 -1.46477e-15 0)
(3 -5.218e-16 0)
(3 -2.28177e-17 0)
(3 -7.59663e-17 0)
(3 -7.18866e-17 0)
(2.4715 0.00905395 0)
(0.854275 0.0152638 0)
(0.683345 0.0217209 0)
(0.63226 0.0243615 0)
(0.574295 0.0254586 0)
(0.517406 0.0265747 0)
(0.458565 0.0280097 0)
(0.397382 0.029949 0)
(0.332565 0.0321822 0)
(0.26416 0.0338455 0)
(0.192681 0.0354777 0)
(0.118448 0.0365255 0)
(0.0430723 0.0401492 0)
(3 -4.07328e-16 0)
(3 -1.68824e-15 0)
(3 -2.79221e-15 0)
(3 -2.61057e-15 0)
(3 -2.44704e-15 0)
(3 -1.91914e-15 0)
(3 -1.87704e-15 0)
(3 -1.58439e-15 0)
(3 -9.48768e-16 0)
(3 -1.22617e-15 0)
(3 -8.80648e-16 0)
(2.50583 0.0455792 0)
(0.853971 0.0715865 0)
(0.668694 0.0694017 0)
(0.615669 0.0714553 0)
(0.5577 0.0744635 0)
(0.500656 0.0781306 0)
(0.441744 0.0827641 0)
(0.380967 0.0889007 0)
(0.317344 0.096262 0)
(0.250689 0.102084 0)
(0.181526 0.107867 0)
(0.110092 0.111248 0)
(0.0395445 0.12068 0)
(3 -3.33034e-16 0)
(3 -6.08519e-16 0)
(3 -1.37412e-15 0)
(3 -1.83649e-15 0)
(3 -1.55618e-15 0)
(3 -1.11129e-15 0)
(3 -1.40876e-15 0)
(3 -1.71539e-15 0)
(3 -1.60241e-15 0)
(3 -1.06451e-15 0)
(3 -5.6998e-16 0)
(2.60648 0.0809323 0)
(0.884009 0.130408 0)
(0.67664 0.12014 0)
(0.620735 0.123383 0)
(0.560386 0.127983 0)
(0.501782 0.133836 0)
(0.441758 0.140994 0)
(0.380444 0.150067 0)
(0.317101 0.161193 0)
(0.250864 0.170164 0)
(0.181883 0.179352 0)
(0.10966 0.183724 0)
(0.0392194 0.1963 0)
(3 2.595e-17 0)
(3 5.62086e-16 0)
(3 5.85638e-16 0)
(3 6.33791e-16 0)
(3 2.71145e-16 0)
(3 -1.9821e-16 0)
(3 -2.62918e-16 0)
(3 -4.3728e-16 0)
(3 -2.78815e-16 0)
(3 2.64393e-16 0)
(3 -6.75754e-17 0)
(2.74599 0.0998857 0)
(0.933944 0.187109 0)
(0.695539 0.170861 0)
(0.643255 0.175446 0)
(0.584914 0.181448 0)
(0.527265 0.189649 0)
(0.467296 0.199794 0)
(0.405357 0.212076 0)
(0.341184 0.227525 0)
(0.273241 0.240785 0)
(0.201522 0.255188 0)
(0.123205 0.26229 0)
(0.0441524 0.277696 0)
(3 -3.80468e-17 0)
(3 2.75019e-16 0)
(3 1.3203e-15 0)
(3 1.36005e-15 0)
(3 6.09416e-16 0)
(3 8.95311e-17 0)
(3 5.18816e-16 0)
(3 6.05238e-16 0)
(3 8.05305e-16 0)
(3 7.03903e-16 0)
(3 7.77869e-17 0)
(2.90586 0.0907183 0)
(1.00818 0.240568 0)
(0.72946 0.21165 0)
(0.684417 0.218559 0)
(0.628346 0.228553 0)
(0.572315 0.240286 0)
(0.513722 0.254343 0)
(0.45268 0.270092 0)
(0.389427 0.290328 0)
(0.320787 0.308975 0)
(0.24628 0.332031 0)
(0.156587 0.350381 0)
(0.0597244 0.376956 0)
(3 -8.1755e-17 0)
(3 -3.93184e-17 0)
(3 4.84814e-17 0)
(3 -7.07535e-17 0)
(3 4.78143e-17 0)
(3 6.0042e-16 0)
(3 5.94531e-16 0)
(3 1.23603e-15 0)
(3 1.36736e-15 0)
(3 1.49681e-15 0)
(3 3.6803e-16 0)
(3.01519 0.0124599 0)
(1.11357 0.27191 0)
(0.761984 0.240078 0)
(0.719795 0.260328 0)
(0.668041 0.275632 0)
(0.614807 0.290548 0)
(0.558615 0.309508 0)
(0.497659 0.330913 0)
(0.432928 0.359645 0)
(0.358254 0.390011 0)
(0.273306 0.428709 0)
(0.173449 0.466278 0)
(0.0590084 0.504713 0)
(3 3.24232e-17 0)
(3 -7.43344e-17 0)
(3 -7.6701e-16 0)
(3 -7.02493e-16 0)
(3 -7.92738e-17 0)
(3 4.53128e-16 0)
(3 2.35614e-16 0)
(3 6.66279e-16 0)
(3 5.90568e-16 0)
(3 7.62586e-16 0)
(3 1.37889e-16 0)
(3.00111 8.65758e-05 0)
(1.26798 0.304033 0)
(0.764467 0.283465 0)
(0.71226 0.305045 0)
(0.667061 0.323643 0)
(0.621736 0.34082 0)
(0.577854 0.36421 0)
(0.528428 0.390985 0)
(0.475709 0.427822 0)
(0.411531 0.471742 0)
(0.339438 0.523934 0)
(0.245262 0.581046 0)
(0.109069 0.651202 0)
(3 7.38076e-17 0)
(3 3.08133e-17 0)
(3 2.27143e-16 0)
(3 7.53471e-16 0)
(3 1.1462e-15 0)
(3 1.07511e-15 0)
(3 1.3331e-15 0)
(3 8.97482e-16 0)
(3 3.26703e-16 0)
(3 9.29446e-16 0)
(3 1.2425e-15 0)
(3 -2.10375e-07 0)
(1.52238 0.349438 0)
(0.784149 0.337011 0)
(0.702994 0.345054 0)
(0.659666 0.362799 0)
(0.619077 0.379787 0)
(0.585672 0.406572 0)
(0.55138 0.44107 0)
(0.513036 0.486691 0)
(0.469759 0.54329 0)
(0.407915 0.624083 0)
(0.289503 0.747314 0)
(0.165073 0.927673 0)
(3 3.82834e-16 0)
(3 1.1371e-15 0)
(3 1.56007e-15 0)
(3 2.3517e-15 0)
(3 2.3867e-15 0)
(3 1.93388e-15 0)
(3 1.87307e-15 0)
(3 1.56451e-15 0)
(3 1.62786e-15 0)
(3 9.70544e-16 0)
(3 7.71534e-16 0)
(3 -1.1058e-07 0)
(1.91141 0.395865 0)
(0.829075 0.417452 0)
(0.718367 0.397035 0)
(0.679867 0.409397 0)
(0.642808 0.420733 0)
(0.612948 0.444781 0)
(0.5868 0.480828 0)
(0.56276 0.53152 0)
(0.537379 0.605059 0)
(0.509744 0.727022 0)
(0.487779 0.906185 0)
(0.608043 1.21821 0)
(3 9.02351e-17 0)
(3 3.63911e-16 0)
(3 1.62561e-16 0)
(3 4.45261e-16 0)
(3 8.46524e-16 0)
(3 7.69037e-16 0)
(3 6.22658e-16 0)
(3 4.4769e-16 0)
(3 1.04888e-15 0)
(3 1.05204e-15 0)
(3 2.98261e-16 0)
(3 -1.78685e-08 0)
(2.49999 0.362071 0)
(0.94417 0.495623 0)
(0.798 0.425045 0)
(0.759088 0.433984 0)
(0.713899 0.451593 0)
(0.676129 0.475647 0)
(0.647984 0.51188 0)
(0.62931 0.56505 0)
(0.625531 0.647222 0)
(0.634208 0.780169 0)
(0.709849 0.93302 0)
(1.00059 1.12721 0)
(3 -4.75908e-16 0)
(3 -2.18571e-16 0)
(3 -6.36067e-16 0)
(3 -6.58559e-16 0)
(3 -2.55946e-16 0)
(3 1.82934e-16 0)
(3 3.61842e-16 0)
(3 6.41442e-16 0)
(3 -2.54725e-16 0)
(3 -5.21153e-16 0)
(3 -3.09855e-16 0)
(3 -1.26543e-09 0)
(3.05043 0.0840722 0)
(1.17229 0.487479 0)
(0.875956 0.458785 0)
(0.843134 0.484392 0)
(0.801305 0.500312 0)
(0.758575 0.520224 0)
(0.725299 0.551617 0)
(0.706892 0.598422 0)
(0.719258 0.670113 0)
(0.75593 0.78382 0)
(0.888568 0.908052 0)
(1.16302 1.00342 0)
(3 -4.48844e-16 0)
(3 -8.28694e-16 0)
(3 -3.86939e-16 0)
(3 -3.05649e-16 0)
(3 -4.56813e-16 0)
(3 -4.00336e-16 0)
(3 -4.64043e-16 0)
(3 -4.55355e-16 0)
(3 -1.03548e-15 0)
(3 -1.31113e-15 0)
(3 -1.4602e-15 0)
(3 -2.53217e-11 0)
(3.01742 0.00176148 0)
(1.36531 0.469659 0)
(0.880102 0.511398 0)
(0.843314 0.532064 0)
(0.819532 0.551549 0)
(0.804289 0.569782 0)
(0.791702 0.593562 0)
(0.786459 0.626167 0)
(0.808104 0.679155 0)
(0.863923 0.762849 0)
(1.01237 0.863135 0)
(1.26425 0.913411 0)
(3 1.14389e-16 0)
(3 -2.71529e-16 0)
(3 -1.31016e-16 0)
(3 -5.0972e-16 0)
(3 -7.66064e-16 0)
(3 -1.47245e-15 0)
(3 -1.53102e-15 0)
(3 -1.47909e-15 0)
(3 -1.12813e-15 0)
(3 -6.72647e-16 0)
(3 -3.1137e-16 0)
(3 -1.48709e-13 0)
(3.00018 -4.78245e-06 0)
(1.80066 0.49695 0)
(0.903368 0.55631 0)
(0.850782 0.551491 0)
(0.846521 0.570766 0)
(0.84429 0.589458 0)
(0.850566 0.615005 0)
(0.861426 0.644297 0)
(0.891784 0.683329 0)
(0.956417 0.73925 0)
(1.09204 0.804628 0)
(1.30073 0.825141 0)
(3 1.48867e-16 0)
(3 -1.46606e-16 0)
(3 -8.08068e-16 0)
(3 -1.68309e-15 0)
(3 -2.34444e-15 0)
(3 -2.31062e-15 0)
(3 -2.21107e-15 0)
(3 -2.01906e-15 0)
(3 -1.43014e-15 0)
(3 -1.34005e-15 0)
(3 -6.56134e-16 0)
(3 7.24383e-17 0)
(3.00001 -3.74845e-06 0)
(2.54772 0.397042 0)
(1.02619 0.610782 0)
(0.898363 0.555891 0)
(0.89576 0.57208 0)
(0.891143 0.592458 0)
(0.903395 0.617978 0)
(0.923874 0.647495 0)
(0.963394 0.682504 0)
(1.03081 0.714111 0)
(1.14299 0.749513 0)
(1.30099 0.750835 0)
(3 -9.35158e-17 0)
(3 -3.56173e-16 0)
(3 -7.82478e-16 0)
(3 -1.36073e-15 0)
(3 -2.37912e-15 0)
(3 -2.30779e-15 0)
(3 -1.50536e-15 0)
(3 -9.24474e-16 0)
(3 -1.8266e-15 0)
(3 -1.7496e-15 0)
(3 -1.84838e-15 0)
(3 -3.50173e-17 0)
(3 -7.66142e-07 0)
(3.08394 0.0564276 0)
(1.31307 0.596484 0)
(0.963735 0.580734 0)
(0.949783 0.600432 0)
(0.940786 0.608995 0)
(0.9478 0.627075 0)
(0.972587 0.645999 0)
(1.01616 0.668075 0)
(1.08506 0.691639 0)
(1.17431 0.699732 0)
(1.28802 0.686715 0)
(3 -1.40059e-16 0)
(3 -1.97982e-16 0)
(3 -8.13249e-16 0)
(3 -7.83984e-16 0)
(3 -1.15317e-15 0)
(3 -1.2206e-15 0)
(3 -6.14329e-16 0)
(3 -3.83486e-16 0)
(3 -1.91581e-15 0)
(3 -2.55833e-15 0)
(3 -1.95826e-15 0)
(3 -2.18836e-16 0)
(3 -7.06121e-08 0)
(3.00989 0.000260007 0)
(1.60837 0.571604 0)
(0.962256 0.637259 0)
(0.950037 0.622208 0)
(0.958898 0.622678 0)
(0.97661 0.629201 0)
(1.00725 0.638882 0)
(1.0531 0.65143 0)
(1.11987 0.661512 0)
(1.19305 0.655986 0)
(1.28076 0.640339 0)
(3 1.59524e-17 0)
(3 -2.35407e-16 0)
(3 -7.57479e-16 0)
(3 -1.12735e-15 0)
(3 -6.046e-16 0)
(3 -1.63074e-16 0)
(3 -4.33377e-16 0)
(3 -1.03128e-15 0)
(3 -1.07818e-15 0)
(3 -1.37588e-15 0)
(3 -1.47956e-15 0)
(3 -8.82909e-16 0)
(3 -1.85696e-09 0)
(3.00006 -2.48317e-06 0)
(2.35056 0.501305 0)
(1.03763 0.661918 0)
(0.967981 0.612879 0)
(0.984028 0.607232 0)
(1.00569 0.615433 0)
(1.03657 0.621752 0)
(1.07621 0.622441 0)
(1.13473 0.62416 0)
(1.19495 0.611992 0)
(1.26416 0.595049 0)
(3 1.03579e-17 0)
(3 1.47086e-16 0)
(3 -1.27415e-16 0)
(3 -2.86693e-16 0)
(3 5.66587e-16 0)
(3 8.99653e-16 0)
(3 4.66492e-16 0)
(3 3.07193e-16 0)
(3 4.63164e-16 0)
(3 1.30515e-15 0)
(3 8.20115e-16 0)
(3 1.11492e-16 0)
(3 -3.51231e-12 0)
(3.00001 -2.3192e-06 0)
(3.0787 0.0955407 0)
(1.30514 0.631602 0)
(1.00971 0.615783 0)
(1.01797 0.615034 0)
(1.0326 0.610388 0)
(1.05938 0.609502 0)
(1.09562 0.603801 0)
(1.14748 0.59796 0)
(1.19974 0.58233 0)
(1.2576 0.563455 0)
(3 2.66435e-17 0)
(3 -2.04282e-17 0)
(3 -2.71885e-16 0)
(3 1.77015e-16 0)
(3 5.59655e-16 0)
(3 2.43547e-16 0)
(3 6.06329e-17 0)
(3 1.90042e-16 0)
(3 1.06255e-15 0)
(3 1.90803e-15 0)
(3 1.42433e-15 0)
(3 1.5162e-15 0)
(3 -4.56945e-16 0)
(3 -4.28185e-07 0)
(3.01725 0.000776739 0)
(1.5593 0.588841 0)
(0.999899 0.643444 0)
(1.00139 0.622923 0)
(1.02248 0.600191 0)
(1.05304 0.583854 0)
(1.09284 0.571918 0)
(1.14348 0.564763 0)
(1.19466 0.550539 0)
(1.24921 0.533754 0)
(3 -6.98596e-17 0)
(3 -3.51297e-16 0)
(3 1.97167e-16 0)
(3 2.01988e-16 0)
(3 4.36402e-17 0)
(3 -1.38325e-16 0)
(3 9.41364e-17 0)
(3 7.90314e-16 0)
(3 1.73938e-15 0)
(3 1.98689e-15 0)
(3 1.54998e-15 0)
(3 2.26382e-15 0)
(3 3.48848e-15 0)
(3 -3.02406e-08 0)
(3.00016 -4.20147e-06 0)
(2.23409 0.526096 0)
(1.02935 0.639697 0)
(0.987554 0.578567 0)
(1.02704 0.564239 0)
(1.06374 0.557348 0)
(1.10045 0.546929 0)
(1.14258 0.536037 0)
(1.18635 0.519891 0)
(1.2347 0.502552 0)
(3 -2.50599e-17 0)
(3 -1.59248e-16 0)
(3 4.27787e-16 0)
(3 4.38985e-16 0)
(3 2.68654e-16 0)
(3 5.60792e-16 0)
(3 6.75328e-16 0)
(3 1.00856e-15 0)
(3 1.30512e-15 0)
(3 1.78619e-15 0)
(3 2.39747e-15 0)
(3 2.77796e-15 0)
(3 2.54738e-15 0)
(3 -1.23442e-10 0)
(3.00001 -5.69258e-06 0)
(3.00607 0.14781 0)
(1.21743 0.597926 0)
(1.0106 0.551637 0)
(1.05119 0.550345 0)
(1.07728 0.542083 0)
(1.10939 0.530498 0)
(1.1472 0.516773 0)
(1.18679 0.499075 0)
(1.23071 0.480875 0)
(3 -5.74202e-17 0)
(3 1.89031e-16 0)
(3 2.15135e-16 0)
(3 3.30449e-16 0)
(3 4.83367e-16 0)
(3 8.09535e-16 0)
(3 1.14383e-15 0)
(3 1.34942e-15 0)
(3 1.51041e-15 0)
(3 2.02393e-15 0)
(3 2.29917e-15 0)
(3 2.35843e-15 0)
(3 2.62575e-15 0)
(3 -1.46723e-13 0)
(3 -1.14427e-06 0)
(3.02683 0.00389129 0)
(1.36726 0.49338 0)
(0.989941 0.534193 0)
(1.02948 0.529605 0)
(1.06286 0.517115 0)
(1.10014 0.503106 0)
(1.14 0.489385 0)
(1.1801 0.473125 0)
(1.22337 0.456571 0)
(3 3.05661e-17 0)
(3 4.38622e-16 0)
(3 9.93117e-16 0)
(3 8.5501e-16 0)
(3 9.52582e-16 0)
(3 6.91115e-16 0)
(3 2.28382e-15 0)
(3 2.72611e-15 0)
(3 2.52351e-15 0)
(3 1.79896e-15 0)
(3 1.46764e-15 0)
(3 1.85561e-15 0)
(3 1.96922e-15 0)
(3 2.10507e-15 0)
(3 -9.16032e-08 0)
(3.00038 -2.58483e-06 0)
(1.62496 0.439634 0)
(0.931286 0.520202 0)
(0.95283 0.503117 0)
(1.0101 0.491143 0)
(1.06243 0.477027 0)
(1.11076 0.461876 0)
(1.1559 0.445302 0)
(1.2017 0.429178 0)
(3 2.67867e-16 0)
(3 5.1831e-16 0)
(3 8.37031e-16 0)
(3 9.41423e-16 0)
(3 6.80297e-16 0)
(3 3.67669e-16 0)
(3 4.69376e-16 0)
(3 7.31598e-16 0)
(3 4.96874e-16 0)
(3 4.06736e-16 0)
(3 4.22602e-16 0)
(3 1.11337e-15 0)
(3 9.90591e-16 0)
(3 4.67837e-16 0)
(3 -8.1865e-10 0)
(3.00001 -3.69839e-06 0)
(2.12656 0.416233 0)
(0.943136 0.48415 0)
(0.910596 0.440167 0)
(0.968158 0.436996 0)
(1.02004 0.435827 0)
(1.07087 0.428521 0)
(1.11872 0.416835 0)
(1.16638 0.403276 0)
(3 1.02245e-17 0)
(3 -1.87836e-16 0)
(3 -8.15725e-16 0)
(3 -5.15313e-16 0)
(3 -8.44224e-17 0)
(3 -1.19677e-16 0)
(3 -6.55915e-16 0)
(3 -1.30662e-15 0)
(3 -1.05421e-15 0)
(3 -3.46583e-16 0)
(3 1.29083e-16 0)
(3 1.00789e-15 0)
(3 1.00731e-15 0)
(3 6.80857e-16 0)
(3 -9.68839e-13 0)
(3 -1.00373e-06 0)
(2.71514 0.265622 0)
(1.03403 0.465223 0)
(0.922686 0.408898 0)
(0.978736 0.404376 0)
(1.02056 0.401636 0)
(1.06325 0.394158 0)
(1.10587 0.384281 0)
(1.14981 0.372279 0)
(3 -2.73431e-17 0)
(3 -6.86224e-16 0)
(3 -5.51612e-16 0)
(3 -4.01889e-16 0)
(3 -3.80994e-16 0)
(3 -3.20154e-16 0)
(3 -1.3155e-15 0)
(3 -1.76565e-15 0)
(3 -1.43899e-15 0)
(3 -1.23926e-15 0)
(3 -6.54299e-16 0)
(3 5.0016e-16 0)
(3 1.81955e-15 0)
(3 2.82013e-15 0)
(3 2.55582e-15 0)
(3 -1.02573e-07 0)
(3.00421 0.0414161 0)
(1.17016 0.390448 0)
(0.929574 0.372615 0)
(0.983638 0.371096 0)
(1.02003 0.37015 0)
(1.05724 0.364537 0)
(1.09559 0.35622 0)
(1.13554 0.345213 0)
(3 8.8785e-17 0)
(3 2.83021e-16 0)
(3 7.01917e-16 0)
(3 6.27914e-16 0)
(3 -3.34326e-16 0)
(3 -7.12432e-16 0)
(3 -1.1472e-15 0)
(3 -1.49139e-15 0)
(3 -1.59144e-15 0)
(3 -1.45009e-15 0)
(3 -1.54073e-15 0)
(3 -6.90328e-16 0)
(3 -6.28057e-17 0)
(3 1.78448e-15 0)
(3 2.53854e-15 0)
(3 -4.33357e-09 0)
(3.00543 0.00206948 0)
(1.23561 0.307917 0)
(0.887795 0.344847 0)
(0.943639 0.344658 0)
(0.985903 0.344596 0)
(1.0273 0.339203 0)
(1.06843 0.331529 0)
(1.10943 0.320739 0)
(3 1.30966e-17 0)
(3 1.21074e-16 0)
(3 6.54917e-16 0)
(3 8.60537e-16 0)
(3 7.74751e-16 0)
(3 2.95516e-16 0)
(3 8.06214e-18 0)
(3 -1.58751e-16 0)
(3 -3.30346e-16 0)
(3 -6.99213e-16 0)
(3 -1.69712e-15 0)
(3 -1.33545e-15 0)
(3 -1.02976e-15 0)
(3 2.21208e-16 0)
(3 8.87404e-16 0)
(3 -8.79037e-11 0)
(3.00005 2.59939e-06 0)
(1.36072 0.285366 0)
(0.842106 0.310152 0)
(0.880918 0.30872 0)
(0.92995 0.310274 0)
(0.977902 0.307096 0)
(1.02453 0.300964 0)
(1.06921 0.292021 0)
(3 -1.77876e-16 0)
(3 -6.42826e-16 0)
(3 -4.25571e-16 0)
(3 3.71565e-17 0)
(3 6.44915e-16 0)
(3 4.45154e-16 0)
(3 8.26464e-16 0)
(3 1.39397e-15 0)
(3 1.04785e-15 0)
(3 9.35571e-16 0)
(3 9.22807e-16 0)
(3 -8.42746e-16 0)
(3 -8.94976e-16 0)
(3 -3.0621e-16 0)
(3 1.77563e-15 0)
(3 -6.75354e-13 0)
(3 -1.76375e-09 0)
(1.54996 0.293372 0)
(0.843476 0.27602 0)
(0.843947 0.271148 0)
(0.88664 0.27395 0)
(0.928333 0.273754 0)
(0.973488 0.270658 0)
(1.01876 0.264482 0)
(3 -1.10646e-17 0)
(3 -2.97217e-16 0)
(3 -5.73166e-16 0)
(3 -5.28562e-16 0)
(3 -6.88241e-17 0)
(3 1.29273e-15 0)
(3 1.53303e-15 0)
(3 1.79307e-15 0)
(3 1.9133e-15 0)
(3 1.80072e-15 0)
(3 1.52644e-15 0)
(3 9.98142e-16 0)
(3 5.85812e-16 0)
(3 3.28032e-16 0)
(3 1.74851e-15 0)
(3 1.63721e-15 0)
(3 -1.03048e-09 0)
(1.79812 0.285198 0)
(0.852854 0.264745 0)
(0.829925 0.24786 0)
(0.867573 0.244699 0)
(0.900372 0.241153 0)
(0.939777 0.237758 0)
(0.981057 0.233079 0)
(3 9.49633e-17 0)
(3 2.99127e-18 0)
(3 -4.77108e-16 0)
(3 -7.65724e-16 0)
(3 -5.69428e-17 0)
(3 1.0164e-15 0)
(3 8.96589e-16 0)
(3 9.14075e-16 0)
(3 1.03184e-15 0)
(3 4.93188e-16 0)
(3 -9.16132e-17 0)
(3 3.92316e-16 0)
(3 6.44933e-16 0)
(3 8.88736e-16 0)
(3 6.47786e-16 0)
(3 1.11802e-15 0)
(3 -1.71834e-10 0)
(2.07695 0.257636 0)
(0.874344 0.251923 0)
(0.829234 0.225491 0)
(0.870389 0.218658 0)
(0.900394 0.211651 0)
(0.935314 0.206521 0)
(0.970708 0.201851 0)
(3 2.88721e-17 0)
(3 -4.93055e-17 0)
(3 -1.95831e-16 0)
(3 -3.8397e-16 0)
(3 -9.69408e-16 0)
(3 -1.97169e-15 0)
(3 -1.21961e-15 0)
(3 -1.29063e-16 0)
(3 3.60673e-16 0)
(3 4.76511e-16 0)
(3 4.13801e-16 0)
(3 -7.30306e-17 0)
(3 -7.73994e-17 0)
(3 2.64565e-16 0)
(3 -2.80848e-16 0)
(3 -9.47754e-16 0)
(3 -1.17896e-11 0)
(2.34722 0.214102 0)
(0.904763 0.231808 0)
(0.832019 0.201078 0)
(0.878199 0.195068 0)
(0.909267 0.188926 0)
(0.942918 0.183838 0)
(0.976076 0.178761 0)
(3 -1.63451e-16 0)
(3 3.59082e-16 0)
(3 7.27009e-16 0)
(3 7.63867e-17 0)
(3 -8.38438e-16 0)
(3 -9.20234e-16 0)
(3 -7.61579e-16 0)
(3 -2.31854e-16 0)
(3 -1.09377e-16 0)
(3 5.58323e-16 0)
(3 4.94772e-16 0)
(3 -1.50578e-17 0)
(3 -1.00485e-16 0)
(3 -8.93027e-16 0)
(3 -1.92909e-15 0)
(3 -2.4258e-15 0)
(3 -2.23567e-13 0)
(2.58265 0.162387 0)
(0.94714 0.199762 0)
(0.842845 0.17575 0)
(0.88931 0.173155 0)
(0.920099 0.168309 0)
(0.952732 0.163666 0)
(0.984778 0.158877 0)
(3 -1.85255e-17 0)
(3 2.24615e-16 0)
(3 8.63044e-16 0)
(3 4.65617e-16 0)
(3 1.20645e-16 0)
(3 5.18651e-16 0)
(3 8.64851e-16 0)
(3 -1.50621e-16 0)
(3 -8.10561e-16 0)
(3 -3.29967e-16 0)
(3 3.21583e-17 0)
(3 -1.45527e-16 0)
(3 -9.74239e-16 0)
(3 -1.23271e-15 0)
(3 -1.95319e-15 0)
(3 -5.0879e-16 0)
(3 -1.4079e-15 0)
(2.75531 0.0969362 0)
(0.988318 0.151425 0)
(0.837742 0.146964 0)
(0.885268 0.145994 0)
(0.917596 0.144215 0)
(0.950557 0.140993 0)
(0.982578 0.1369 0)
(3 1.48913e-16 0)
(3 2.39516e-16 0)
(3 5.68275e-16 0)
(3 8.78803e-16 0)
(3 1.09766e-15 0)
(3 7.02011e-16 0)
(3 -2.87254e-16 0)
(3 -1.16963e-15 0)
(3 -1.40646e-15 0)
(3 -1.00862e-15 0)
(3 -3.17504e-16 0)
(3 -2.16152e-16 0)
(3 -8.40953e-16 0)
(3 -1.01808e-15 0)
(3 8.57457e-17 0)
(3 7.15211e-16 0)
(3 4.03033e-16 0)
(2.82941 0.0522713 0)
(1.00055 0.110769 0)
(0.818076 0.121438 0)
(0.865323 0.121601 0)
(0.899274 0.121389 0)
(0.93367 0.119359 0)
(0.966454 0.116576 0)
(3 2.50978e-16 0)
(3 6.28464e-16 0)
(3 4.77832e-16 0)
(3 5.53422e-16 0)
(3 9.45998e-16 0)
(3 6.83265e-16 0)
(3 -3.65193e-16 0)
(3 -6.87956e-16 0)
(3 -1.26672e-15 0)
(3 -1.52015e-15 0)
(3 -1.43651e-15 0)
(3 -3.9361e-16 0)
(3 -4.27147e-16 0)
(3 -6.72465e-16 0)
(3 -6.60806e-16 0)
(3 -7.42045e-16 0)
(3 -1.99241e-15 0)
(2.87122 0.0331306 0)
(1.01195 0.084747 0)
(0.801739 0.0953531 0)
(0.845716 0.0958168 0)
(0.878467 0.0980852 0)
(0.911931 0.0986335 0)
(0.94395 0.0978977 0)
(3 1.37295e-16 0)
(3 -5.05799e-17 0)
(3 -4.34321e-16 0)
(3 -4.34199e-16 0)
(3 -4.07114e-16 0)
(3 -1.68305e-16 0)
(3 -6.38477e-16 0)
(3 -1.54578e-15 0)
(3 -1.60353e-15 0)
(3 -2.42914e-15 0)
(3 -2.15169e-15 0)
(3 -1.28323e-15 0)
(3 -5.8604e-16 0)
(3 -9.18357e-16 0)
(3 -1.55312e-15 0)
(3 -1.69278e-15 0)
(3 -5.91768e-16 0)
(2.90297 0.0218539 0)
(1.02723 0.0644653 0)
(0.797938 0.0695368 0)
(0.836278 0.0709302 0)
(0.864544 0.0758974 0)
(0.895017 0.0783895 0)
(0.925501 0.0790437 0)
(3 -2.07915e-16 0)
(3 -7.66227e-16 0)
(3 -1.33035e-15 0)
(3 -1.17688e-15 0)
(3 -1.11674e-15 0)
(3 -6.8133e-16 0)
(3 -1.20465e-15 0)
(3 -2.13649e-15 0)
(3 -2.31944e-15 0)
(3 -1.65068e-15 0)
(3 -6.28437e-16 0)
(3 -1.25357e-15 0)
(3 -1.29682e-15 0)
(3 -1.67277e-15 0)
(3 -1.79716e-15 0)
(3 -9.08386e-16 0)
(3 1.45383e-16 0)
(2.92296 0.0126363 0)
(1.03784 0.044252 0)
(0.798759 0.0477209 0)
(0.832413 0.0501233 0)
(0.857924 0.0558891 0)
(0.88755 0.0578788 0)
(0.918533 0.0578024 0)
(3 -7.7621e-17 0)
(3 -2.53027e-16 0)
(3 -9.84591e-16 0)
(3 -1.216e-15 0)
(3 -1.06592e-15 0)
(3 -1.0061e-15 0)
(3 -7.57027e-16 0)
(3 -4.98336e-16 0)
(3 -1.38303e-16 0)
(3 -5.02409e-16 0)
(3 -1.72067e-15 0)
(3 -2.26114e-15 0)
(3 -2.80346e-15 0)
(3 -2.55575e-15 0)
(3 -1.51423e-15 0)
(3 -4.02502e-16 0)
(3 -1.55263e-16 0)
(2.93255 0.00451557 0)
(1.04278 0.0226618 0)
(0.80004 0.0271076 0)
(0.831177 0.0304565 0)
(0.856832 0.0356169 0)
(0.887503 0.0367119 0)
(0.919674 0.035701 0)
(3 1.63673e-17 0)
(3 1.41791e-16 0)
(3 -1.04765e-16 0)
(3 -4.66281e-16 0)
(3 -7.4753e-16 0)
(3 -9.83443e-16 0)
(3 -1.36241e-16 0)
(3 4.82121e-16 0)
(3 4.919e-16 0)
(3 -9.0525e-17 0)
(3 -1.54176e-15 0)
(3 -1.8922e-15 0)
(3 -1.87867e-15 0)
(3 -1.18919e-15 0)
(3 -6.58462e-16 0)
(3 -3.03375e-16 0)
(3 -3.86443e-16 0)
(2.93378 0.000330332 0)
(1.03999 0.00538203 0)
(0.794355 0.00840104 0)
(0.824097 0.0107412 0)
(0.850711 0.0129326 0)
(0.882785 0.0129589 0)
(0.916381 0.0122319 0)
(1.26233 1.38144 0)
(0.320694 0.691327 0)
(0.029812 0.128787 0)
(0.0446146 -0.00308096 0)
(0.0664751 -0.00344372 0)
(0.0492592 0.00447905 0)
(0.00654389 0.00727662 0)
(-0.0284018 -0.000816943 0)
(-0.0405734 -0.00665394 0)
(-0.0378698 -0.00496226 0)
(-0.0244072 -0.000792266 0)
(-0.00867871 0.00386563 0)
(0.007798 0.00514512 0)
(0.0226384 0.00330489 0)
(0.0349529 -0.000340039 0)
(0.0446528 -0.00464617 0)
(0.0529603 -0.00889218 0)
(0.0622047 -0.0128955 0)
(0.0750769 -0.0167329 0)
(0.0927455 -0.0204581 0)
(0.114273 -0.0236754 0)
(0.137904 -0.0258984 0)
(0.162973 -0.0275123 0)
(0.189722 -0.0288543 0)
(0.217891 -0.0307394 0)
(0.2468 -0.0330868 0)
(0.27556 -0.0350633 0)
(0.304059 -0.0361572 0)
(0.331101 -0.0361088 0)
(0.357643 -0.03496 0)
(0.385045 -0.0333044 0)
(0.414446 -0.0318067 0)
(0.446634 -0.0308869 0)
(0.480922 -0.0306337 0)
(0.516271 -0.0309555 0)
(0.551869 -0.0318318 0)
(0.586995 -0.033023 0)
(0.620848 -0.0341177 0)
(0.653 -0.0349636 0)
(0.684762 -0.0354279 0)
(0.716567 -0.0354227 0)
(0.748199 -0.0348052 0)
(0.779605 -0.0333864 0)
(0.811078 -0.0312834 0)
(0.843278 -0.0289605 0)
(0.876759 -0.0269519 0)
(0.911331 -0.0255356 0)
(0.945954 -0.0246433 0)
(0.979805 -0.0240895 0)
(1.01163 -0.0235434 0)
(1.04121 -0.0227966 0)
(1.06921 -0.0216928 0)
(1.0962 -0.0203581 0)
(1.12244 -0.0188864 0)
(1.14767 -0.0173085 0)
(1.17181 -0.0154622 0)
(1.19516 -0.0133867 0)
(1.21844 -0.0115579 0)
(1.24287 -0.010502 0)
(1.26908 -0.0103938 0)
(1.29638 -0.0109517 0)
(1.32278 -0.0114005 0)
(1.34598 -0.0114327 0)
(1.36593 -0.0112337 0)
(1.38425 -0.0110326 0)
(1.40228 -0.0108526 0)
(1.42055 -0.0105814 0)
(1.43854 -0.00982991 0)
(1.45519 -0.0084322 0)
(1.47054 -0.00678187 0)
(1.4854 -0.00510746 0)
(1.50041 -0.00363855 0)
(1.51703 -0.00284383 0)
(1.53723 -0.00300116 0)
(1.55906 -0.00361881 0)
(1.5754 -0.0038841 0)
(1.58785 -0.00385709 0)
(1.59957 -0.00382811 0)
(1.61129 -0.00383196 0)
(1.62314 -0.00409641 0)
(1.63514 -0.00479637 0)
(1.64638 -0.00537989 0)
(1.65699 -0.00570228 0)
(1.66681 -0.00615124 0)
(1.67694 -0.00656507 0)
(1.68713 -0.00674686 0)
(1.69786 -0.00674032 0)
(1.71009 -0.0064637 0)
(1.72259 -0.00618121 0)
(1.73223 -0.00633396 0)
(1.73925 -0.00695042 0)
(1.74529 -0.00787514 0)
(1.75128 -0.00882221 0)
(1.75722 -0.0108993 0)
(1.76058 -0.0147535 0)
(1.74734 -0.0159703 0)
(1.73596 1.22227 0)
(1.22313 0.724086 0)
(0.884711 0.18523 0)
(0.587061 0.00117567 0)
(0.379956 -0.00490203 0)
(0.251386 0.00376093 0)
(0.169745 -0.00315941 0)
(0.12529 -0.0115627 0)
(0.100302 -0.00846935 0)
(0.0897454 0.00278304 0)
(0.0908806 0.0169117 0)
(0.092374 0.0244447 0)
(0.0961469 0.0226209 0)
(0.103149 0.0101626 0)
(0.11331 -0.0142517 0)
(0.129567 -0.0361587 0)
(0.146982 -0.0485797 0)
(0.161837 -0.0557976 0)
(0.177432 -0.0607506 0)
(0.197234 -0.0640546 0)
(0.221804 -0.0652273 0)
(0.250549 -0.064666 0)
(0.281563 -0.0621767 0)
(0.311604 -0.0597243 0)
(0.33938 -0.0582117 0)
(0.366553 -0.0594944 0)
(0.394551 -0.0636529 0)
(0.423851 -0.0685983 0)
(0.453761 -0.0715073 0)
(0.483275 -0.0703172 0)
(0.511673 -0.0647678 0)
(0.539577 -0.0566188 0)
(0.568287 -0.0484397 0)
(0.598968 -0.0420705 0)
(0.63195 -0.0377571 0)
(0.666366 -0.0350946 0)
(0.70058 -0.0346669 0)
(0.732981 -0.0369175 0)
(0.763249 -0.0410772 0)
(0.792517 -0.046358 0)
(0.821819 -0.051747 0)
(0.851485 -0.0558035 0)
(0.881654 -0.0568881 0)
(0.912031 -0.0542483 0)
(0.941993 -0.0485509 0)
(0.971392 -0.0417156 0)
(1.00085 -0.0361123 0)
(1.03099 -0.0328071 0)
(1.06164 -0.0313454 0)
(1.09148 -0.0304519 0)
(1.11867 -0.0287099 0)
(1.1428 -0.0262855 0)
(1.16555 -0.0244945 0)
(1.18835 -0.0233774 0)
(1.21159 -0.0222794 0)
(1.23498 -0.0200462 0)
(1.25797 -0.0155978 0)
(1.28016 -0.00913572 0)
(1.30184 -0.00258669 0)
(1.3237 0.00188554 0)
(1.34605 0.00282214 0)
(1.36878 0.000135983 0)
(1.39084 -0.00313182 0)
(1.41026 -0.00469928 0)
(1.42724 -0.00528218 0)
(1.4429 -0.0060599 0)
(1.45815 -0.00783306 0)
(1.47424 -0.0107089 0)
(1.4908 -0.0122284 0)
(1.50628 -0.0110064 0)
(1.52117 -0.0077128 0)
(1.5365 -0.00238854 0)
(1.55282 0.00409807 0)
(1.57008 0.00851785 0)
(1.58746 0.00831322 0)
(1.60304 0.00633295 0)
(1.61567 0.00592557 0)
(1.62763 0.00635749 0)
(1.63869 0.00691063 0)
(1.64901 0.00659696 0)
(1.65903 0.00498667 0)
(1.66878 0.00208732 0)
(1.67854 -0.00171725 0)
(1.68854 -0.00569664 0)
(1.69873 -0.00878157 0)
(1.70902 -0.0106773 0)
(1.7201 -0.0116285 0)
(1.73318 -0.0116807 0)
(1.74662 -0.0108576 0)
(1.75634 -0.00970121 0)
(1.76336 -0.00914142 0)
(1.76881 -0.00959324 0)
(1.77259 -0.0130741 0)
(1.7744 -0.0202847 0)
(1.7717 -0.0299997 0)
(1.75983 -0.0444359 0)
(1.69095 1.05269 0)
(1.54667 0.923417 0)
(1.51897 0.665087 0)
(1.31312 0.474985 0)
(1.01054 0.340248 0)
(0.799291 0.206748 0)
(0.666097 0.117276 0)
(0.574406 0.0852982 0)
(0.503338 0.0718467 0)
(0.454003 0.0642674 0)
(0.42743 0.042444 0)
(0.415422 0.0167792 0)
(0.405921 -0.00662256 0)
(0.401047 -0.0275589 0)
(0.405223 -0.0459789 0)
(0.421575 -0.0613208 0)
(0.444257 -0.0742454 0)
(0.466419 -0.0803137 0)
(0.484722 -0.0751974 0)
(0.501745 -0.0677139 0)
(0.521688 -0.0658272 0)
(0.548202 -0.0703735 0)
(0.582683 -0.0777214 0)
(0.619863 -0.0811382 0)
(0.653034 -0.0800674 0)
(0.680969 -0.0767111 0)
(0.705422 -0.0747578 0)
(0.729592 -0.0769567 0)
(0.756063 -0.0831798 0)
(0.785116 -0.0906625 0)
(0.814981 -0.096234 0)
(0.843579 -0.0982959 0)
(0.870074 -0.0974281 0)
(0.895788 -0.0956782 0)
(0.922559 -0.0949066 0)
(0.951366 -0.0957838 0)
(0.981775 -0.0968548 0)
(1.0116 -0.0962438 0)
(1.03811 -0.0933423 0)
(1.06086 -0.0888155 0)
(1.08089 -0.0847033 0)
(1.1006 -0.0827777 0)
(1.12193 -0.0829473 0)
(1.14558 -0.0839754 0)
(1.17064 -0.0840696 0)
(1.19507 -0.0817511 0)
(1.21791 -0.0776213 0)
(1.23991 -0.0737352 0)
(1.26211 -0.0713733 0)
(1.28477 -0.0703231 0)
(1.30671 -0.0688644 0)
(1.32561 -0.0658167 0)
(1.34215 -0.0623173 0)
(1.35804 -0.059514 0)
(1.37419 -0.0578114 0)
(1.39131 -0.056964 0)
(1.40964 -0.0559113 0)
(1.42842 -0.0532088 0)
(1.44638 -0.0485367 0)
(1.46373 -0.0431677 0)
(1.48103 -0.0382107 0)
(1.49829 -0.0343538 0)
(1.51562 -0.0320848 0)
(1.53155 -0.0307109 0)
(1.54525 -0.0297791 0)
(1.55814 -0.02751 0)
(1.56953 -0.0236621 0)
(1.58006 -0.0202262 0)
(1.59176 -0.0194135 0)
(1.6041 -0.020167 0)
(1.61684 -0.0210777 0)
(1.63055 -0.0206114 0)
(1.64525 -0.0182616 0)
(1.65996 -0.0145291 0)
(1.67361 -0.0114129 0)
(1.68585 -0.0106945 0)
(1.69731 -0.0105428 0)
(1.70795 -0.0100411 0)
(1.71755 -0.00865573 0)
(1.72643 -0.00590443 0)
(1.73458 -0.00211748 0)
(1.74159 0.00166862 0)
(1.74754 0.00408112 0)
(1.75394 0.00424046 0)
(1.7622 0.00302241 0)
(1.77095 0.0013834 0)
(1.78099 -0.000964349 0)
(1.79315 -0.00400574 0)
(1.80539 -0.00800735 0)
(1.81529 -0.011202 0)
(1.82274 -0.0123857 0)
(1.82805 -0.0120909 0)
(1.82836 -0.0116795 0)
(1.8226 -0.0144929 0)
(1.81574 -0.0227043 0)
(1.8025 -0.0355178 0)
(1.53916 0.888021 0)
(1.56251 0.821989 0)
(1.68745 0.725306 0)
(1.76098 0.591288 0)
(1.63401 0.465175 0)
(1.48084 0.337207 0)
(1.34516 0.234365 0)
(1.22971 0.165011 0)
(1.12664 0.109651 0)
(1.04325 0.0599513 0)
(0.978166 0.0262183 0)
(0.949752 -0.00188717 0)
(0.932663 -0.0148846 0)
(0.918705 -0.0182564 0)
(0.906776 -0.0176597 0)
(0.906148 -0.0188452 0)
(0.914639 -0.028654 0)
(0.932246 -0.0463796 0)
(0.953514 -0.0629919 0)
(0.970321 -0.069775 0)
(0.984817 -0.0695768 0)
(1.00163 -0.0686014 0)
(1.0244 -0.072664 0)
(1.05336 -0.0852935 0)
(1.08502 -0.0999783 0)
(1.11348 -0.108995 0)
(1.13651 -0.109791 0)
(1.15524 -0.104552 0)
(1.17329 -0.0980319 0)
(1.19324 -0.0939312 0)
(1.216 -0.0930149 0)
(1.24032 -0.0933153 0)
(1.26363 -0.0922886 0)
(1.28428 -0.089201 0)
(1.30276 -0.0854753 0)
(1.32056 -0.0834962 0)
(1.33859 -0.0847583 0)
(1.35719 -0.088255 0)
(1.37567 -0.0912153 0)
(1.39222 -0.0912025 0)
(1.40535 -0.0875973 0)
(1.41685 -0.0824468 0)
(1.42897 -0.0771374 0)
(1.44279 -0.0729369 0)
(1.459 -0.069884 0)
(1.4764 -0.0656731 0)
(1.49187 -0.0590722 0)
(1.50568 -0.052389 0)
(1.51904 -0.047573 0)
(1.5326 -0.0455138 0)
(1.5466 -0.0450275 0)
(1.55962 -0.0444886 0)
(1.57036 -0.0435991 0)
(1.58026 -0.0399544 0)
(1.58966 -0.0344078 0)
(1.60029 -0.0295976 0)
(1.61218 -0.0261382 0)
(1.62536 -0.0238889 0)
(1.63876 -0.0226281 0)
(1.6511 -0.0222527 0)
(1.66347 -0.0212878 0)
(1.67565 -0.0192809 0)
(1.68747 -0.0184708 0)
(1.69862 -0.0190895 0)
(1.70844 -0.0199383 0)
(1.71721 -0.019993 0)
(1.72532 -0.018426 0)
(1.73297 -0.0152375 0)
(1.74078 -0.0112098 0)
(1.74973 -0.0067006 0)
(1.75939 -0.00291188 0)
(1.76943 -0.00123784 0)
(1.78016 -0.0015437 0)
(1.79079 -0.00301824 0)
(1.8009 -0.00482973 0)
(1.81056 -0.00633163 0)
(1.81978 -0.00767106 0)
(1.82812 -0.0089084 0)
(1.8352 -0.0100608 0)
(1.84121 -0.0113089 0)
(1.84647 -0.0124455 0)
(1.85122 -0.0130341 0)
(1.85595 -0.0125757 0)
(1.86144 -0.0106955 0)
(1.86809 -0.0078048 0)
(1.87575 -0.00515419 0)
(1.88338 -0.00331889 0)
(1.89024 -0.00342643 0)
(1.89695 -0.00773564 0)
(1.90419 -0.0160454 0)
(1.91033 -0.0254969 0)
(1.91405 -0.0345053 0)
(1.91378 -0.0410845 0)
(1.9099 -0.0460444 0)
(1.90474 -0.0501202 0)
(1.88941 -0.054863 0)
(1.44556 0.769085 0)
(1.49571 0.718612 0)
(1.63776 0.649544 0)
(1.77028 0.578751 0)
(1.80389 0.513586 0)
(1.76348 0.452019 0)
(1.71343 0.375036 0)
(1.66676 0.280843 0)
(1.61726 0.190676 0)
(1.56152 0.125176 0)
(1.50426 0.077736 0)
(1.4695 0.0405465 0)
(1.44975 0.0125239 0)
(1.43326 -0.0087838 0)
(1.41455 -0.0216578 0)
(1.39635 -0.0334535 0)
(1.39035 -0.0436622 0)
(1.39139 -0.0614529 0)
(1.40183 -0.0828822 0)
(1.41366 -0.0950944 0)
(1.42051 -0.101783 0)
(1.42714 -0.107882 0)
(1.4356 -0.113042 0)
(1.44805 -0.116876 0)
(1.46579 -0.121583 0)
(1.48506 -0.126494 0)
(1.50108 -0.129617 0)
(1.51299 -0.130073 0)
(1.52265 -0.128615 0)
(1.53263 -0.126648 0)
(1.54472 -0.12519 0)
(1.55948 -0.124615 0)
(1.57552 -0.124156 0)
(1.5902 -0.122422 0)
(1.60171 -0.118828 0)
(1.6109 -0.11425 0)
(1.61929 -0.109114 0)
(1.62798 -0.10459 0)
(1.63727 -0.102466 0)
(1.64687 -0.102103 0)
(1.65545 -0.100311 0)
(1.66212 -0.0957711 0)
(1.66887 -0.088866 0)
(1.67675 -0.0803274 0)
(1.68699 -0.0720459 0)
(1.69929 -0.0653049 0)
(1.70872 -0.0623021 0)
(1.71654 -0.0617206 0)
(1.72387 -0.0594951 0)
(1.73206 -0.0550847 0)
(1.74117 -0.0494066 0)
(1.74954 -0.0462531 0)
(1.75739 -0.0440136 0)
(1.76379 -0.0410927 0)
(1.77015 -0.0365978 0)
(1.77838 -0.0315455 0)
(1.78731 -0.0272305 0)
(1.79633 -0.025041 0)
(1.80518 -0.0249922 0)
(1.81362 -0.0248494 0)
(1.8226 -0.0233238 0)
(1.83209 -0.0211115 0)