/*--------------------------------*- C++ -*----------------------------------*\
  =========                 |
  \\      /  F ield         | OpenFOAM: The Open Source CFD Toolbox
   \\    /   O peration     | Website:  https://openfoam.org
    \\  /    A nd           | Version:  7
     \\/     M anipulation  |
\*---------------------------------------------------------------------------*/
FoamFile
{
    version     2.0;
    format      ascii;
    class       volScalarField;
    location    "80";
    object      p;
}
// * * * * * * * * * * * * * * * * * * * * * * * * * * * * * * * * * * * * * //

dimensions      [0 2 -2 0 0 0 0];

internalField   nonuniform List<scalar> 
31800
(
-0.250386
-0.251924
-0.252797
-0.253506
-0.254119
-0.254652
-0.255141
-0.255606
-0.25606
-0.256506
-0.256944
-0.257368
-0.257771
-0.258142
-0.25847
-0.258742
-0.258945
-0.259066
-0.259095
-0.259021
-0.258839
-0.258553
-0.258177
-0.25772
-0.257241
-0.250353
-0.251879
-0.252745
-0.253448
-0.254053
-0.254579
-0.25506
-0.255516
-0.255958
-0.256393
-0.256817
-0.257226
-0.257612
-0.257965
-0.258273
-0.258524
-0.258706
-0.258806
-0.258814
-0.258721
-0.258522
-0.258225
-0.257845
-0.257391
-0.25693
-0.250427
-0.25193
-0.252783
-0.253474
-0.254069
-0.254584
-0.255054
-0.255497
-0.255927
-0.256347
-0.256756
-0.257148
-0.257516
-0.257849
-0.258137
-0.258367
-0.258527
-0.258605
-0.258591
-0.258476
-0.258257
-0.257941
-0.257549
-0.257084
-0.256618
-0.250607
-0.252076
-0.25291
-0.253585
-0.254165
-0.254666
-0.25512
-0.255549
-0.255963
-0.256367
-0.256758
-0.257132
-0.257481
-0.257794
-0.258061
-0.258269
-0.258407
-0.258462
-0.258424
-0.258285
-0.258042
-0.2577
-0.257287
-0.256796
-0.256299
-0.25089
-0.252314
-0.253124
-0.253778
-0.254338
-0.254821
-0.255258
-0.255669
-0.256065
-0.256449
-0.256822
-0.257176
-0.257503
-0.257795
-0.25804
-0.258225
-0.25834
-0.258371
-0.258309
-0.258144
-0.257872
-0.257499
-0.257056
-0.256526
-0.255964
-0.25127
-0.252641
-0.25342
-0.254049
-0.254586
-0.255047
-0.255463
-0.255853
-0.256228
-0.256591
-0.256941
-0.257273
-0.257579
-0.257848
-0.258069
-0.258231
-0.258322
-0.258329
-0.258241
-0.258048
-0.257744
-0.257333
-0.256851
-0.256273
-0.255601
-0.251742
-0.253051
-0.253795
-0.254395
-0.254904
-0.25534
-0.255731
-0.256097
-0.256447
-0.256787
-0.257113
-0.25742
-0.257702
-0.257946
-0.258143
-0.25828
-0.258346
-0.258328
-0.258213
-0.257991
-0.257653
-0.257199
-0.256669
-0.256038
-0.255196
-0.252301
-0.25354
-0.254245
-0.25481
-0.255289
-0.255695
-0.256057
-0.256395
-0.256718
-0.25703
-0.257329
-0.25761
-0.257865
-0.258083
-0.258253
-0.258365
-0.258405
-0.258361
-0.258219
-0.257967
-0.257592
-0.257091
-0.256503
-0.255823
-0.25473
-0.252938
-0.254102
-0.254763
-0.255291
-0.255734
-0.256107
-0.256437
-0.256743
-0.257035
-0.257316
-0.257585
-0.257836
-0.258061
-0.25825
-0.258393
-0.258477
-0.25849
-0.258418
-0.258248
-0.257965
-0.257555
-0.257003
-0.256346
-0.255638
-0.254165
-0.253648
-0.254732
-0.255346
-0.255832
-0.256236
-0.256571
-0.256865
-0.257135
-0.257391
-0.257637
-0.257872
-0.25809
-0.258282
-0.25844
-0.258552
-0.258606
-0.25859
-0.258491
-0.258292
-0.257978
-0.257531
-0.256929
-0.256191
-0.255507
-0.253453
-0.254422
-0.255423
-0.255986
-0.256428
-0.256788
-0.257081
-0.257334
-0.257564
-0.25778
-0.257987
-0.258183
-0.258364
-0.25852
-0.258643
-0.258722
-0.258744
-0.258698
-0.258568
-0.25834
-0.257994
-0.257512
-0.256862
-0.256027
-0.255442
-0.252706
-0.255254
-0.256169
-0.256681
-0.257074
-0.257386
-0.257633
-0.25784
-0.258024
-0.258195
-0.258358
-0.258511
-0.25865
-0.258766
-0.258851
-0.258893
-0.258881
-0.258801
-0.258639
-0.25838
-0.258003
-0.257484
-0.256798
-0.255852
-0.255212
-0.252106
-0.256137
-0.256967
-0.257423
-0.257764
-0.258026
-0.258222
-0.258377
-0.25851
-0.25863
-0.258743
-0.258848
-0.258941
-0.259013
-0.259055
-0.259056
-0.259006
-0.25889
-0.258694
-0.258402
-0.257992
-0.257435
-0.256718
-0.255663
-0.255036
-0.251367
-0.257065
-0.25781
-0.25821
-0.258496
-0.258702
-0.258841
-0.25894
-0.259015
-0.25908
-0.259137
-0.259188
-0.259229
-0.259251
-0.259246
-0.259203
-0.259111
-0.258955
-0.258723
-0.258395
-0.257951
-0.257353
-0.256617
-0.255419
-0.254928
-0.250486
-0.258033
-0.258694
-0.259036
-0.259265
-0.259411
-0.259488
-0.259524
-0.259536
-0.259537
-0.259533
-0.259524
-0.259507
-0.259475
-0.259418
-0.259326
-0.259187
-0.258989
-0.258715
-0.258349
-0.257869
-0.257223
-0.256487
-0.255096
-0.254863
-0.249487
-0.259036
-0.259617
-0.2599
-0.260068
-0.260149
-0.26016
-0.260126
-0.260068
-0.259999
-0.259927
-0.259852
-0.259771
-0.259678
-0.259564
-0.259418
-0.259229
-0.258983
-0.258665
-0.258256
-0.257738
-0.257033
-0.256318
-0.254671
-0.254822
-0.248382
-0.260071
-0.260575
-0.260799
-0.260903
-0.260914
-0.260852
-0.260743
-0.260608
-0.260462
-0.260314
-0.260165
-0.260015
-0.259855
-0.259679
-0.259475
-0.259231
-0.258933
-0.258567
-0.258109
-0.257552
-0.256771
-0.256102
-0.254129
-0.254778
-0.247191
-0.261138
-0.261569
-0.261732
-0.261768
-0.261706
-0.261564
-0.261372
-0.261153
-0.260922
-0.260691
-0.260463
-0.260236
-0.260005
-0.259761
-0.259493
-0.259189
-0.258836
-0.258416
-0.257905
-0.257306
-0.256432
-0.255831
-0.253462
-0.254688
-0.245954
-0.262237
-0.262599
-0.262699
-0.262665
-0.262523
-0.262295
-0.262013
-0.261702
-0.26138
-0.261059
-0.260743
-0.260434
-0.260124
-0.259807
-0.259471
-0.259104
-0.25869
-0.258213
-0.257642
-0.256999
-0.256011
-0.255493
-0.252679
-0.254491
-0.244726
-0.263368
-0.263665
-0.263703
-0.263594
-0.263366
-0.263046
-0.262667
-0.262256
-0.261834
-0.261415
-0.261006
-0.260607
-0.260214
-0.259819
-0.25941
-0.258975
-0.258496
-0.257957
-0.257319
-0.256627
-0.255508
-0.255068
-0.251802
-0.254109
-0.243565
-0.264537
-0.264772
-0.264745
-0.264556
-0.264238
-0.263818
-0.263334
-0.262815
-0.262287
-0.261763
-0.261254
-0.26076
-0.260278
-0.2598
-0.259314
-0.258805
-0.258257
-0.25765
-0.256937
-0.256186
-0.254927
-0.254529
-0.250862
-0.253464
-0.242511
-0.265748
-0.265925
-0.265829
-0.265557
-0.265141
-0.264615
-0.264018
-0.263384
-0.262741
-0.262106
-0.26149
-0.260895
-0.260319
-0.259753
-0.259186
-0.2586
-0.257977
-0.257295
-0.256497
-0.255672
-0.254269
-0.253842
-0.249884
-0.252489
-0.241558
-0.26701
-0.267128
-0.266962
-0.2666
-0.26608
-0.26544
-0.264723
-0.263966
-0.263202
-0.262449
-0.26172
-0.261019
-0.260345
-0.259687
-0.259033
-0.258364
-0.257659
-0.256892
-0.255999
-0.255073
-0.253531
-0.252976
-0.24887
-0.251152
-0.240651
-0.26833
-0.26839
-0.268149
-0.267693
-0.267061
-0.266299
-0.265454
-0.264568
-0.263675
-0.262798
-0.261951
-0.261139
-0.260361
-0.259607
-0.258861
-0.258104
-0.257307
-0.256443
-0.255438
-0.254379
-0.252702
-0.251905
-0.247797
-0.249461
-0.239695
-0.269721
-0.269721
-0.2694
-0.268841
-0.268091
-0.267199
-0.266218
-0.265196
-0.264168
-0.263161
-0.262191
-0.261265
-0.260379
-0.259523
-0.258679
-0.257824
-0.256924
-0.255943
-0.254807
-0.253576
-0.251759
-0.250617
-0.246613
-0.247456
-0.238592
-0.271194
-0.27113
-0.270721
-0.270053
-0.269176
-0.268147
-0.267024
-0.265858
-0.26469
-0.263548
-0.262451
-0.261405
-0.260406
-0.259443
-0.258494
-0.257528
-0.256508
-0.255387
-0.254093
-0.252647
-0.250671
-0.249105
-0.245255
-0.245186
-0.237262
-0.272764
-0.272629
-0.272124
-0.271339
-0.270327
-0.269153
-0.26788
-0.266565
-0.26525
-0.263969
-0.26274
-0.26157
-0.260454
-0.259376
-0.25831
-0.257219
-0.256056
-0.254766
-0.253277
-0.251575
-0.249404
-0.247367
-0.243665
-0.242676
-0.235644
-0.274445
-0.274227
-0.273622
-0.272709
-0.271553
-0.270226
-0.268797
-0.267326
-0.265861
-0.264436
-0.263071
-0.261772
-0.260531
-0.259329
-0.258131
-0.256893
-0.25556
-0.254065
-0.25234
-0.250339
-0.247927
-0.245399
-0.2418
-0.239903
-0.233697
-0.276253
-0.27594
-0.275224
-0.274174
-0.272865
-0.271377
-0.269784
-0.268152
-0.266532
-0.264959
-0.263454
-0.26202
-0.260647
-0.259307
-0.257958
-0.256547
-0.255008
-0.253268
-0.251262
-0.248925
-0.246218
-0.243206
-0.239629
-0.236791
-0.231459
-0.278204
-0.277783
-0.276943
-0.275745
-0.274274
-0.272616
-0.270854
-0.269056
-0.267276
-0.265551
-0.263901
-0.262325
-0.260807
-0.259312
-0.257788
-0.25617
-0.254386
-0.252356
-0.250024
-0.247319
-0.244269
-0.240808
-0.23714
-0.233336
-0.229088
-0.280316
-0.279767
-0.278792
-0.277435
-0.275791
-0.273956
-0.272018
-0.270049
-0.268105
-0.266224
-0.264421
-0.262693
-0.261016
-0.259343
-0.257613
-0.255751
-0.253678
-0.251313
-0.248612
-0.245513
-0.242087
-0.238227
-0.234339
-0.229837
-0.226506
-0.282604
-0.281908
-0.280783
-0.279255
-0.277428
-0.275409
-0.273288
-0.271143
-0.26903
-0.266987
-0.265024
-0.263132
-0.261274
-0.259396
-0.257424
-0.255273
-0.252865
-0.250123
-0.247018
-0.243508
-0.239691
-0.235472
-0.231261
-0.226494
-0.222739
-0.285084
-0.28422
-0.28293
-0.281218
-0.279199
-0.276986
-0.274676
-0.27235
-0.270064
-0.267851
-0.265718
-0.263643
-0.261581
-0.259463
-0.257206
-0.254721
-0.251931
-0.248774
-0.24524
-0.241312
-0.237107
-0.232549
-0.228034
-0.223028
-0.218854
-0.287774
-0.286717
-0.285246
-0.283337
-0.281114
-0.2787
-0.276196
-0.273683
-0.271217
-0.268826
-0.266507
-0.264228
-0.26193
-0.259532
-0.256944
-0.254077
-0.250863
-0.247261
-0.243283
-0.238939
-0.234359
-0.22949
-0.224692
-0.219492
-0.215045
-0.290688
-0.289412
-0.287743
-0.285625
-0.283187
-0.280563
-0.277858
-0.275153
-0.272499
-0.269917
-0.267393
-0.264882
-0.262311
-0.259588
-0.25662
-0.253324
-0.24965
-0.245581
-0.241155
-0.236406
-0.231472
-0.226317
-0.22127
-0.215906
-0.211245
-0.293841
-0.292318
-0.290435
-0.288093
-0.28543
-0.282589
-0.279677
-0.276771
-0.273919
-0.271131
-0.268378
-0.2656
-0.262711
-0.259614
-0.256215
-0.252449
-0.248286
-0.243739
-0.238868
-0.233732
-0.228469
-0.223053
-0.217786
-0.212273
-0.207461
-0.297245
-0.295447
-0.293334
-0.290755
-0.287856
-0.28479
-0.281662
-0.278548
-0.275485
-0.272468
-0.269456
-0.26637
-0.263115
-0.25959
-0.255714
-0.251439
-0.246768
-0.24174
-0.236438
-0.230935
-0.225366
-0.219714
-0.21425
-0.208602
-0.203664
-0.300915
-0.298812
-0.29645
-0.293621
-0.290477
-0.287177
-0.283826
-0.280492
-0.2772
-0.273929
-0.270619
-0.267178
-0.263503
-0.259497
-0.255098
-0.250288
-0.245097
-0.239594
-0.233877
-0.22803
-0.22218
-0.21631
-0.210667
-0.204894
-0.199845
-0.304859
-0.302423
-0.299797
-0.296705
-0.293305
-0.289763
-0.286179
-0.282611
-0.279067
-0.275508
-0.271856
-0.268005
-0.263853
-0.259316
-0.254356
-0.248989
-0.243277
-0.23731
-0.231199
-0.225029
-0.218917
-0.212847
-0.207037
-0.201146
-0.195993
-0.309089
-0.306289
-0.303382
-0.300017
-0.296352
-0.292559
-0.28873
-0.284909
-0.281084
-0.277196
-0.273149
-0.26883
-0.264143
-0.259026
-0.253476
-0.247541
-0.241311
-0.234897
-0.228412
-0.221941
-0.215585
-0.209327
-0.20336
-0.197357
-0.192101
-0.31361
-0.310419
-0.307217
-0.303566
-0.299628
-0.295574
-0.291485
-0.287386
-0.283245
-0.278979
-0.274478
-0.269628
-0.264349
-0.258612
-0.252448
-0.245941
-0.239206
-0.232364
-0.225525
-0.21877
-0.212184
-0.205749
-0.199631
-0.19352
-0.188165
-0.31843
-0.31482
-0.311309
-0.307363
-0.303141
-0.298814
-0.294447
-0.290041
-0.285539
-0.280838
-0.275817
-0.270373
-0.26445
-0.258058
-0.251267
-0.244192
-0.236966
-0.229714
-0.222541
-0.215518
-0.208714
-0.20211
-0.195847
-0.189633
-0.184177
-0.323551
-0.319495
-0.315663
-0.311414
-0.306899
-0.302286
-0.297616
-0.292865
-0.28795
-0.282748
-0.277139
-0.271038
-0.264424
-0.25735
-0.249926
-0.242293
-0.234594
-0.226951
-0.219461
-0.212184
-0.205172
-0.198405
-0.192002
-0.185689
-0.180135
-0.328972
-0.324447
-0.320284
-0.315723
-0.310905
-0.305988
-0.300986
-0.295845
-0.290454
-0.28468
-0.278412
-0.271594
-0.26425
-0.256478
-0.248423
-0.240245
-0.23209
-0.224075
-0.216283
-0.208763
-0.201552
-0.19463
-0.18809
-0.181683
-0.176032
-0.334691
-0.329674
-0.325172
-0.320293
-0.315161
-0.309917
-0.304546
-0.298958
-0.293023
-0.286602
-0.279603
-0.272015
-0.263909
-0.25543
-0.246752
-0.238046
-0.229455
-0.221085
-0.213005
-0.205252
-0.19785
-0.190778
-0.184106
-0.177609
-0.171863
-0.3407
-0.335173
-0.330325
-0.32512
-0.31966
-0.314064
-0.308277
-0.30218
-0.295622
-0.288475
-0.28068
-0.272274
-0.263386
-0.254199
-0.24491
-0.235693
-0.226684
-0.217975
-0.20962
-0.201644
-0.194058
-0.186841
-0.180043
-0.173463
-0.167624
-0.346987
-0.340934
-0.335736
-0.330199
-0.324394
-0.318411
-0.312155
-0.305475
-0.298214
-0.290261
-0.281607
-0.272347
-0.262663
-0.252775
-0.242891
-0.233183
-0.223774
-0.214741
-0.206122
-0.197931
-0.190169
-0.182814
-0.175894
-0.169237
-0.163309
-0.353535
-0.346943
-0.341393
-0.335517
-0.329346
-0.322935
-0.316147
-0.308805
-0.300753
-0.291919
-0.282351
-0.27221
-0.261727
-0.251148
-0.240688
-0.230509
-0.220718
-0.211374
-0.202502
-0.194106
-0.186175
-0.178688
-0.171654
-0.164927
-0.158914
-0.36032
-0.353183
-0.347279
-0.341056
-0.334493
-0.327605
-0.320213
-0.312121
-0.303193
-0.293407
-0.282881
-0.271841
-0.260563
-0.24931
-0.238294
-0.227663
-0.217506
-0.207865
-0.198752
-0.190159
-0.182069
-0.174457
-0.167316
-0.160526
-0.154433
-0.367315
-0.359629
-0.353372
-0.346791
-0.339804
-0.332382
-0.324306
-0.315374
-0.305484
-0.294683
-0.283165
-0.27122
-0.259157
-0.24725
-0.2357
-0.224637
-0.21413
-0.204206
-0.194862
-0.186083
-0.177843
-0.170113
-0.162875
-0.156029
-0.149863
-0.374482
-0.366249
-0.359641
-0.352688
-0.34524
-0.337219
-0.328372
-0.318507
-0.307576
-0.295706
-0.283174
-0.270325
-0.257495
-0.244956
-0.232895
-0.221419
-0.21058
-0.200386
-0.190824
-0.181869
-0.173488
-0.16565
-0.158324
-0.151432
-0.145198
-0.381781
-0.373007
-0.366049
-0.358709
-0.350754
-0.34206
-0.332351
-0.321462
-0.309418
-0.296438
-0.282879
-0.269137
-0.255561
-0.242416
-0.229867
-0.217999
-0.206844
-0.196394
-0.186627
-0.177507
-0.168997
-0.161061
-0.153657
-0.146728
-0.140434
-0.38916
-0.379858
-0.372553
-0.364803
-0.35629
-0.346844
-0.336179
-0.324178
-0.310958
-0.296839
-0.282254
-0.267636
-0.253342
-0.239617
-0.226603
-0.214364
-0.20291
-0.192221
-0.182261
-0.172989
-0.164362
-0.156338
-0.148868
-0.141912
-0.135567
-0.396564
-0.38675
-0.3791
-0.370916
-0.361785
-0.351501
-0.339786
-0.326594
-0.312149
-0.296874
-0.281272
-0.265803
-0.250819
-0.236544
-0.223092
-0.210502
-0.198768
-0.187854
-0.177717
-0.168308
-0.159576
-0.151477
-0.143954
-0.13698
-0.130593
-0.403928
-0.393625
-0.385631
-0.376981
-0.36717
-0.355959
-0.343102
-0.328648
-0.312941
-0.296507
-0.279908
-0.263619
-0.247979
-0.233182
-0.219318
-0.2064
-0.194404
-0.183284
-0.172986
-0.163454
-0.154632
-0.146471
-0.138907
-0.131928
-0.125508
-0.411183
-0.400416
-0.392078
-0.382929
-0.372366
-0.360138
-0.346056
-0.330282
-0.31329
-0.295706
-0.278137
-0.261065
-0.244803
-0.229517
-0.215267
-0.202045
-0.189809
-0.178501
-0.168059
-0.158419
-0.149523
-0.141313
-0.133725
-0.12675
-0.12031
-0.418251
-0.407052
-0.398367
-0.388679
-0.377291
-0.363959
-0.348575
-0.331436
-0.313152
-0.294438
-0.275936
-0.25812
-0.241275
-0.225533
-0.210926
-0.197424
-0.184969
-0.173494
-0.162926
-0.153198
-0.144243
-0.136
-0.128402
-0.121444
-0.114996
-0.42505
-0.413454
-0.404418
-0.394146
-0.38186
-0.36734
-0.350588
-0.332055
-0.312485
-0.292673
-0.273282
-0.254766
-0.237378
-0.221215
-0.20628
-0.192524
-0.179875
-0.168254
-0.157581
-0.147782
-0.138786
-0.130526
-0.122934
-0.116005
-0.109563
-0.431493
-0.419538
-0.410144
-0.399243
-0.385982
-0.370198
-0.352026
-0.332086
-0.311252
-0.290384
-0.270152
-0.250984
-0.233094
-0.216546
-0.201316
-0.187334
-0.174516
-0.162771
-0.152015
-0.142165
-0.133147
-0.124887
-0.117318
-0.11043
-0.10401
-0.437487
-0.425214
-0.415455
-0.403875
-0.389567
-0.372451
-0.352825
-0.331481
-0.309416
-0.287543
-0.266524
-0.246755
-0.228409
-0.211514
-0.196021
-0.181843
-0.168882
-0.157039
-0.146222
-0.136342
-0.127321
-0.11908
-0.111551
-0.104718
-0.0983354
-0.442937
-0.43039
-0.420255
-0.407946
-0.392525
-0.374022
-0.352921
-0.330192
-0.306944
-0.284124
-0.262379
-0.242062
-0.223305
-0.206103
-0.190382
-0.176039
-0.162964
-0.151049
-0.140195
-0.130308
-0.121304
-0.1131
-0.10563
-0.0988654
-0.0925395
-0.447747
-0.434971
-0.424449
-0.411361
-0.394766
-0.374836
-0.352258
-0.328178
-0.303806
-0.280105
-0.257696
-0.236887
-0.217768
-0.200301
-0.184389
-0.169914
-0.156754
-0.144795
-0.133929
-0.124058
-0.115093
-0.106946
-0.0995523
-0.0928723
-0.0866223
-0.451818
-0.438859
-0.427937
-0.414025
-0.396204
-0.374822
-0.350781
-0.325401
-0.299972
-0.275463
-0.252458
-0.231215
-0.211783
-0.194095
-0.178031
-0.163458
-0.150246
-0.138271
-0.127419
-0.117588
-0.108684
-0.100614
-0.0933167
-0.0867382
-0.0805876
-0.455052
-0.441958
-0.430622
-0.415842
-0.396757
-0.373913
-0.348443
-0.321826
-0.295418
-0.270179
-0.246647
-0.225031
-0.20534
-0.187475
-0.171299
-0.156665
-0.143433
-0.131472
-0.120662
-0.110896
-0.102075
-0.0941029
-0.0869197
-0.0804617
-0.0744384
-0.457354
-0.444172
-0.432409
-0.416725
-0.396348
-0.372052
-0.3452
-0.317423
-0.290122
-0.264235
-0.240248
-0.218323
-0.198425
-0.180431
-0.164185
-0.149528
-0.13631
-0.124394
-0.113655
-0.10398
-0.0952647
-0.0874104
-0.0803588
-0.0740383
-0.0681645
-0.458629
-0.445406
-0.433206
-0.416586
-0.394906
-0.369183
-0.341015
-0.312165
-0.284063
-0.257614
-0.23325
-0.211078
-0.19103
-0.172956
-0.156683
-0.142042
-0.128875
-0.117036
-0.106397
-0.0968384
-0.0882533
-0.0805375
-0.0736369
-0.0674653
-0.0617269
-0.458789
-0.445571
-0.432923
-0.415348
-0.392366
-0.365261
-0.335857
-0.306031
-0.277227
-0.250306
-0.225639
-0.203288
-0.183147
-0.165043
-0.148789
-0.134205
-0.121124
-0.109396
-0.0988861
-0.0894722
-0.0810409
-0.0734871
-0.0667637
-0.0607547
-0.0550816
-0.45775
-0.444582
-0.43148
-0.412938
-0.388674
-0.360246
-0.329698
-0.299003
-0.2696
-0.242297
-0.217409
-0.194945
-0.17477
-0.156688
-0.140499
-0.126013
-0.113057
-0.101474
-0.0911238
-0.0818817
-0.073629
-0.0662617
-0.059743
-0.0539209
-0.0482789
-0.455433
-0.442361
-0.428801
-0.409292
-0.383779
-0.354106
-0.322519
-0.291067
-0.261172
-0.233583
-0.208552
-0.186045
-0.165895
-0.147889
-0.131812
-0.117467
-0.104673
-0.0932694
-0.083111
-0.0740694
-0.0660204
-0.0588645
-0.052565
-0.0468893
-0.0414784
-0.451769
-0.438834
-0.424818
-0.404354
-0.377643
-0.346815
-0.314304
-0.282215
-0.251938
-0.224156
-0.199065
-0.176585
-0.156522
-0.138645
-0.122729
-0.108568
-0.0959755
-0.0847864
-0.0748505
-0.0660391
-0.0582198
-0.0512989
-0.0452302
-0.0397309
-0.0345911
-0.446694
-0.433939
-0.419474
-0.398078
-0.370235
-0.338355
-0.305044
-0.272441
-0.241893
-0.214017
-0.188947
-0.166565
-0.14665
-0.128957
-0.11325
-0.0993175
-0.0869663
-0.0760293
-0.0663488
-0.0577931
-0.0502305
-0.0435676
-0.037748
-0.0324561
-0.0275969
-0.440155
-0.42762
-0.412719
-0.390427
-0.361531
-0.328716
-0.294735
-0.261747
-0.231041
-0.203166
-0.1782
-0.155987
-0.136283
-0.118829
-0.103382
-0.0897225
-0.0776532
-0.0670009
-0.0576084
-0.0493378
-0.0420575
-0.0356758
-0.0301264
-0.0250657
-0.0204949
-0.432109
-0.419833
-0.404514
-0.381374
-0.351519
-0.317894
-0.28338
-0.250135
-0.219386
-0.191609
-0.166829
-0.144856
-0.125425
-0.108267
-0.0931309
-0.0797879
-0.0680399
-0.0577088
-0.048636
-0.0406796
-0.0337072
-0.0276297
-0.0223716
-0.0175606
-0.0132913
-0.422523
-0.410543
-0.394832
-0.370903
-0.340193
-0.305893
-0.270987
-0.237615
-0.206935
-0.179353
-0.154841
-0.13318
-0.114087
-0.0972802
-0.0825023
-0.0695214
-0.0581345
-0.0481606
-0.0394393
-0.0318257
-0.0251867
-0.0194366
-0.0144899
-0.00994493
-0.00599292
-0.411372
-0.399725
-0.383654
-0.359007
-0.327557
-0.292722
-0.257567
-0.2242
-0.193702
-0.166408
-0.142247
-0.120973
-0.102278
-0.0858771
-0.0715072
-0.0589326
-0.0479465
-0.0383653
-0.030027
-0.0227844
-0.0165042
-0.0111042
-0.00648791
-0.00222458
0.00139264
-0.398644
-0.387366
-0.370973
-0.345689
-0.313623
-0.2784
-0.243141
-0.209907
-0.1797
-0.152788
-0.12907
-0.108243
-0.0900089
-0.07407
-0.0601574
-0.0480328
-0.0374865
-0.0283331
-0.020409
-0.0135653
-0.00766887
-0.00264134
0.00162647
0.00559281
0.00885759
-0.384339
-0.373462
-0.356792
-0.330962
-0.298412
-0.26295
-0.227731
-0.194758
-0.164951
-0.138524
-0.11531
-0.0950073
-0.077296
-0.0618731
-0.0484663
-0.0368349
-0.026767
-0.0180758
-0.0105965
-0.00417894
0.00130929
0.00594265
0.00984444
0.0134985
0.0163936
-0.368464
-0.358022
-0.341127
-0.314847
-0.281952
-0.246401
-0.211367
-0.17878
-0.149485
-0.123624
-0.100998
-0.0812854
-0.0641566
-0.049303
-0.0364493
-0.0253533
-0.0158014
-0.00760607
-0.000601628
0.00536317
0.0104192
0.0146373
0.0181563
0.0214826
0.0239915
-0.351041
-0.341065
-0.324001
-0.297376
-0.264276
-0.228792
-0.194082
-0.162005
-0.133323
-0.108117
-0.0861537
-0.0670984
-0.0506105
-0.0363779
-0.0241237
-0.0136041
-0.00460493
0.00306188
0.00956239
0.0150484
0.0196488
0.0234314
0.0265512
0.0295344
0.0316412
-0.332101
-0.322621
-0.305448
-0.278588
-0.24543
-0.210163
-0.175913
-0.144465
-0.116496
-0.09203
-0.0708046
-0.05247
-0.0366796
-0.0231185
-0.0115083
-0.00160491
0.00680614
0.0139128
0.0198812
0.0248633
0.0289852
0.0323127
0.0350178
0.0376422
0.0393318
-0.311683
-0.302726
-0.285512
-0.258536
-0.225473
-0.190547
-0.156902
-0.1262
-0.0990391
-0.0753957
-0.0549786
-0.0374266
-0.0223882
-0.00954689
0.00137621
0.0106252
0.0184141
0.0249303
0.0303396
0.0347933
0.0384148
0.0412683
0.0435435
0.0457927
0.0470506
-0.289837
-0.281431
-0.264247
-0.237286
-0.204459
-0.169988
-0.137094
-0.10725
-0.0809912
-0.0582483
-0.0387071
-0.0219968
-0.00776267
0.00431265
0.0145077
0.0230659
0.0302002
0.036097
0.0409213
0.0448234
0.0479229
0.0502843
0.0521147
0.0539708
0.0547833
-0.266622
-0.258793
-0.241719
-0.214892
-0.182378
-0.148603
-0.116548
-0.0876628
-0.0623933
-0.0406249
-0.0220238
-0.00621149
0.00716879
0.0184342
0.0278623
0.0356953
0.0421444
0.0473945
0.0516094
0.0549375
0.0574946
0.0593463
0.0607165
0.0621582
0.062509
-0.2421
-0.234888
-0.218011
-0.191364
-0.159383
-0.126407
-0.0953152
-0.0674875
-0.0432894
-0.0225656
-0.00496514
0.00989623
0.022376
0.0327903
0.041415
0.0484903
0.0542256
0.0588036
0.0623863
0.0651196
0.0671144
0.0684396
0.0693343
0.0703358
0.0702005
-0.216344
-0.209796
-0.193203
-0.166782
-0.135523
-0.103468
-0.0734557
-0.0467769
-0.0237268
-0.00411286
0.0124304
0.0262913
0.0378269
0.0473517
0.0551391
0.0614269
0.0664218
0.070304
0.0732337
0.0753524
0.0767662
0.0775494
0.0779557
0.0784895
0.0778411
-0.189428
-0.183594
-0.167232
-0.141384
-0.110878
-0.0798587
-0.0510307
-0.0255862
-0.003755
0.0146885
0.0301222
0.0429368
0.053488
0.0620878
0.0690067
0.0744796
0.07871
0.0818752
0.0841327
0.0856185
0.0864326
0.0866604
0.0865708
0.0866111
0.0854254
-0.161424
-0.156391
-0.140341
-0.115141
-0.0855245
-0.0556521
-0.0281047
-0.00397321
0.0165738
0.0337915
0.0480676
0.059794
0.0693241
0.0769667
0.082989
0.0876222
0.0910663
0.0934957
0.095064
0.0958997
0.0960966
0.09576
0.0951704
0.0946672
0.0928542
-0.132432
-0.12829
-0.112631
-0.088145
-0.0595449
-0.0309243
-0.00474502
0.0180017
0.0372053
0.053147
0.0662223
0.0768226
0.0852987
0.0919553
0.0970558
0.100827
0.103466
0.105143
0.106008
0.106178
0.105746
0.104845
0.103741
0.102543
0.0998176
-0.102712
-0.0992805
-0.0841717
-0.060496
-0.0330241
-0.00575308
0.0189786
0.0402762
0.0580835
0.0727043
0.0845402
0.0939811
0.101374
0.107019
0.111176
0.114067
0.115885
0.116796
0.116944
0.116438
0.115373
0.113922
0.112267
0.110101
0.106094
-0.072265
-0.0695314
-0.0550609
-0.032293
-0.00605146
0.0197815
0.0429944
0.0627859
0.0791503
0.0924112
0.102974
0.111226
0.117511
0.122123
0.125318
0.127312
0.128295
0.128429
0.127851
0.126662
0.124974
0.122988
0.120719
0.117406
0.112378
-0.041175
-0.0391781
-0.0254048
-0.00363671
0.0212815
0.0455973
0.0672288
0.0854649
0.100346
0.112214
0.121475
0.128515
0.13367
0.137231
0.139448
0.140533
0.140671
0.140019
0.138708
0.136834
0.13453
0.132
0.129039
0.124652
0.120754
-0.00956562
-0.008335
0.00468672
0.0253699
0.0488811
0.0716106
0.0916068
0.108246
0.121611
0.132058
0.139994
0.145801
0.14981
0.152306
0.153533
0.1537
0.152985
0.15154
0.149491
0.146935
0.144015
0.140903
0.137244
0.132263
0.12908
0.0224392
0.0228832
0.0351007
0.0546218
0.0766524
0.0977361
0.116052
0.13106
0.142883
0.151887
0.15848
0.163039
0.16589
0.167311
0.16754
0.166782
0.165208
0.162968
0.160179
0.156942
0.153403
0.149691
0.145396
0.140029
0.136949
0.0547161
0.0543585
0.0657226
0.0840133
0.1045
0.123888
0.140489
0.15384
0.164099
0.171645
0.176883
0.180184
0.181868
0.182207
0.181434
0.179747
0.177313
0.174276
0.170749
0.166833
0.162672
0.158357
0.153489
0.147793
0.14454
0.087141
0.0859711
0.0964372
0.113437
0.132327
0.14998
0.164838
0.176514
0.185198
0.191276
0.195151
0.197189
0.197702
0.196957
0.195181
0.192564
0.189271
0.185438
0.181176
0.176585
0.1718
0.166891
0.161485
0.155444
0.151878
0.119589
0.1176
0.127128
0.142788
0.160037
0.175926
0.189023
0.199013
0.206115
0.210722
0.213233
0.214007
0.21335
0.211523
0.208745
0.205202
0.201053
0.196429
0.191437
0.186174
0.180769
0.175275
0.169352
0.162943
0.15899
0.151933
0.149123
0.15768
0.171957
0.187533
0.201639
0.212966
0.221267
0.226789
0.229927
0.231077
0.230592
0.22877
0.225866
0.222092
0.21763
0.212631
0.207223
0.201507
0.195578
0.189558
0.18349
0.17706
0.170266
0.165883
0.184051
0.180419
0.187978
0.20084
0.214722
0.227034
0.236591
0.243208
0.247156
0.248833
0.248632
0.246897
0.24392
0.239948
0.235188
0.229816
0.223976
0.217793
0.211362
0.204776
0.198149
0.191517
0.184587
0.177397
0.17256
0.215816
0.211367
0.217907
0.229332
0.241507
0.252026
0.25982
0.264766
0.267154
0.267386
0.265847
0.262876
0.258757
0.253732
0.247999
0.241729
0.235061
0.228113
0.22098
0.213747
0.206522
0.199335
0.191914
0.184324
0.179017
0.247106
0.241848
0.247354
0.257329
0.267796
0.276532
0.28258
0.285874
0.286723
0.285529
0.282672
0.278484
0.273242
0.267179
0.260491
0.253338
0.245857
0.23816
0.230336
0.222468
0.214658
0.206927
0.199023
0.191034
0.18525
0.2778
0.271743
0.276209
0.28473
0.293498
0.300469
0.304795
0.306465
0.305802
0.303208
0.299059
0.293677
0.287333
0.280255
0.27263
0.264614
0.256338
0.247908
0.239409
0.230921
0.222538
0.214276
0.205901
0.197517
0.191251
0.307779
0.300939
0.304363
0.311437
0.318523
0.323757
0.326395
0.326473
0.324331
0.32037
0.314957
0.30841
0.300992
0.292923
0.284384
0.275527
0.266476
0.257332
0.248177
0.239085
0.230144
0.221365
0.212532
0.20376
0.197014
0.336928
0.329321
0.331711
0.337352
0.342785
0.346318
0.347308
0.345836
0.342255
0.336962
0.330321
0.322641
0.314179
0.305147
0.295722
0.286049
0.276246
0.26641
0.256618
0.246941
0.237458
0.228179
0.218902
0.209753
0.20253
0.365133
0.35678
0.35815
0.362383
0.3662
0.368077
0.367467
0.364492
0.359516
0.352935
0.345105
0.336329
0.326857
0.316895
0.306614
0.296152
0.285623
0.275119
0.264713
0.25447
0.244465
0.234703
0.224999
0.215483
0.207791
0.392287
0.383213
0.383582
0.38644
0.388686
0.38896
0.386805
0.382381
0.376061
0.368239
0.359265
0.349434
0.33899
0.328134
0.317029
0.305808
0.294582
0.283436
0.27244
0.261655
0.251148
0.240922
0.23081
0.220941
0.21279
0.418284
0.408516
0.407911
0.409436
0.410166
0.408898
0.40526
0.399446
0.391839
0.382828
0.372758
0.361917
0.350544
0.338832
0.326938
0.314993
0.3031
0.291341
0.279781
0.268477
0.257491
0.246822
0.236322
0.226114
0.217517
0.443024
0.432593
0.431048
0.431289
0.430565
0.427824
0.422771
0.415633
0.406799
0.396656
0.385543
0.373743
0.361485
0.348958
0.336316
0.323682
0.311155
0.298814
0.286718
0.274922
0.26348
0.252391
0.241523
0.230993
0.221966
0.466413
0.455352
0.452906
0.45192
0.449813
0.445674
0.43928
0.43089
0.420895
0.409682
0.397583
0.384875
0.371781
0.358485
0.345136
0.331852
0.318727
0.305835
0.293234
0.280973
0.269102
0.257616
0.246402
0.235567
0.226128
0.488361
0.476707
0.473404
0.471257
0.467845
0.462388
0.454735
0.445167
0.434083
0.421866
0.408841
0.395281
0.381403
0.367386
0.353374
0.339479
0.325794
0.312387
0.299313
0.286616
0.274341
0.262486
0.250949
0.239828
0.229997
0.508783
0.496575
0.492467
0.48923
0.484596
0.477911
0.469083
0.458419
0.446321
0.433168
0.419283
0.40493
0.390323
0.375635
0.361006
0.346545
0.332338
0.318452
0.304938
0.291837
0.279188
0.266988
0.255152
0.243765
0.233566
0.527602
0.514881
0.510024
0.505775
0.500011
0.49219
0.482278
0.470603
0.45757
0.443556
0.428877
0.413793
0.398515
0.383209
0.368012
0.353029
0.338342
0.324016
0.310097
0.296623
0.28363
0.271113
0.259003
0.24737
0.236829
0.544746
0.531557
0.526011
0.520834
0.514035
0.505177
0.494277
0.48168
0.467795
0.452996
0.437594
0.421845
0.405954
0.390086
0.374372
0.358913
0.34379
0.329063
0.314775
0.300963
0.287656
0.274852
0.262493
0.250636
0.23978
0.560148
0.546537
0.540368
0.534352
0.526621
0.51683
0.50504
0.491615
0.476964
0.461459
0.445408
0.429061
0.41262
0.396247
0.380068
0.364183
0.348668
0.33358
0.318962
0.304845
0.291257
0.278195
0.265613
0.253555
0.242415
0.573751
0.559766
0.553043
0.546283
0.537726
0.527108
0.514533
0.500375
0.485048
0.468919
0.452294
0.435419
0.418493
0.401674
0.385085
0.368823
0.352962
0.337556
0.322646
0.308261
0.294425
0.281136
0.268357
0.256122
0.244728
0.585503
0.571194
0.563989
0.556583
0.54731
0.535978
0.522723
0.507932
0.49202
0.475353
0.458232
0.440901
0.423556
0.406351
0.389408
0.37282
0.35666
0.34098
0.325818
0.311202
0.297151
0.283666
0.270719
0.25833
0.246715
0.595358
0.580778
0.573167
0.565217
0.555342
0.54341
0.529584
0.514262
0.497859
0.48074
0.463203
0.44549
0.427793
0.410265
0.393025
0.376165
0.359754
0.343844
0.328471
0.31366
0.29943
0.28578
0.272692
0.260174
0.248373
0.60328
0.58848
0.580541
0.572153
0.561793
0.549378
0.535093
0.519344
0.502547
0.485064
0.467193
0.449172
0.431192
0.413404
0.395925
0.378846
0.362234
0.346139
0.330596
0.31563
0.301255
0.287474
0.274272
0.26165
0.2497
0.609237
0.594272
0.586086
0.577367
0.566642
0.553863
0.539233
0.523162
0.506068
0.488312
0.470188
0.451936
0.433744
0.41576
0.398102
0.380857
0.364094
0.34786
0.33219
0.317106
0.302622
0.288742
0.275455
0.262756
0.250693
0.613207
0.598132
0.58978
0.580841
0.569872
0.55685
0.541989
0.525703
0.508411
0.490472
0.472181
0.453774
0.43544
0.417326
0.399547
0.382193
0.365329
0.349002
0.333247
0.318085
0.303529
0.289583
0.276239
0.263488
0.251349
0.615176
0.600045
0.591611
0.582562
0.571471
0.558328
0.543352
0.526959
0.509569
0.491539
0.473164
0.45468
0.436275
0.418096
0.400258
0.382849
0.365935
0.349562
0.333765
0.318564
0.303972
0.289994
0.276622
0.263845
0.251669
0.615134
0.600004
0.591571
0.582523
0.571434
0.558293
0.543318
0.526927
0.509537
0.491508
0.473135
0.454652
0.436247
0.418069
0.400232
0.382824
0.36591
0.349539
0.333742
0.318542