/*--------------------------------*- C++ -*----------------------------------*\
  =========                 |
  \\      /  F ield         | OpenFOAM: The Open Source CFD Toolbox
   \\    /   O peration     | Website:  https://openfoam.org
    \\  /    A nd           | Version:  7
     \\/     M anipulation  |
\*---------------------------------------------------------------------------*/
FoamFile
{
    version     2.0;
    format      ascii;
    class       surfaceScalarField;
    location    "80";
    object      phi;
}
// * * * * * * * * * * * * * * * * * * * * * * * * * * * * * * * * * * * * * //

dimensions      [0 3 -1 0 0 0 0];

internalField   nonuniform List<scalar> 
63130
(
-2.27919e-06
6.21247e-07
1.65794e-06
-8.3858e-06
2.14429e-06
3.96232e-06
-1.7895e-05
4.01712e-06
5.4921e-06
-3.0424e-05
6.19505e-06
6.33392e-06
-4.56301e-05
8.6211e-06
6.58499e-06
-6.32125e-05
1.12387e-05
6.34374e-06
-8.2912e-05
1.40005e-05
5.69897e-06
-0.00010451
1.68787e-05
4.71976e-06
-0.000127829
1.98715e-05
3.44711e-06
-0.000152724
2.30068e-05
1.8886e-06
-0.000179084
2.63422e-05
1.69756e-08
-0.000206816
2.99604e-05
-2.22787e-06
-0.000235846
3.39644e-05
-4.93482e-06
-0.0002661
3.84713e-05
-8.21651e-06
-0.000297504
4.36076e-05
-1.22044e-05
-0.000329966
4.95066e-05
-1.70446e-05
-0.00036338
5.63079e-05
-2.28939e-05
-0.000397623
6.41603e-05
-2.99168e-05
-0.000432571
7.32281e-05
-3.82802e-05
-0.000468124
8.37012e-05
-4.81483e-05
-0.000504258
9.58105e-05
-5.9677e-05
-0.000541097
0.000109849
-7.30093e-05
-0.000579
0.000126176
-8.82735e-05
-0.000618575
0.000145162
-0.000105587
0.000167414
-0.000125091
-0.000660898
-2.26119e-06
2.88244e-06
-8.32091e-06
8.20401e-06
-1.77571e-05
1.34533e-05
-3.01882e-05
1.86262e-05
-4.52719e-05
2.37048e-05
-6.27065e-05
2.86733e-05
-8.22311e-05
3.35251e-05
-0.000103625
3.82724e-05
-0.000126705
4.29516e-05
-0.000151323
4.76252e-05
-0.00017736
5.23794e-05
-0.000204719
5.73187e-05
-0.000233313
6.25587e-05
-0.000263062
6.82198e-05
-0.000293876
7.44222e-05
-0.000325654
8.12845e-05
-0.000358273
8.89268e-05
-0.000391592
9.7479e-05
-0.000425461
0.000107098
-0.00045975
0.00011799
-0.000494393
0.000130453
-0.000529463
0.000144919
-0.000565263
0.000161975
-0.000602353
0.000182252
0.000206823
-0.000641762
-2.22477e-06
5.1072e-06
-8.1911e-06
1.41703e-05
-1.74841e-05
2.27463e-05
-2.97263e-05
3.08684e-05
-4.4577e-05
3.85555e-05
-6.17342e-05
4.58305e-05
-8.09345e-05
5.27254e-05
-0.000101953
5.92905e-05
-0.0001246
6.55987e-05
-0.00014872
7.17453e-05
-0.000174184
7.78437e-05
-0.000200883
8.4018e-05
-0.00022872
9.03951e-05
-0.000257597
9.70967e-05
-0.000287409
0.000104235
-0.000318036
0.000111911
-0.000349332
0.000120222
-0.000381126
0.000129273
-0.00041323
0.000139202
-0.000445461
0.000150221
-0.000477678
0.000162671
-0.000509863
0.000177104
-0.000542217
0.000194329
-0.00057522
0.000215255
0.00024142
-0.000609817
-2.17081e-06
7.27801e-06
-7.99929e-06
1.99988e-05
-1.70817e-05
3.18286e-05
-2.90472e-05
4.28339e-05
-4.35581e-05
5.30665e-05
-6.0312e-05
6.25844e-05
-7.90422e-05
7.14556e-05
-9.95177e-05
7.97659e-05
-0.000121541
8.76223e-05
-0.000144946
9.51504e-05
-0.000169591
0.000102488
-0.000195351
0.000109778
-0.00022211
0.000117155
-0.000249754
0.00012474
-0.000278155
0.000132636
-0.000307167
0.000140923
-0.000336615
0.00014967
-0.00036629
0.000158948
-0.000395952
0.000168864
-0.000425344
0.000179612
-0.000454224
0.000191551
-0.000482438
0.000205318
-0.000510043
0.000221934
-0.000537397
0.000242608
0.000269324
-0.0005653
-2.10057e-06
9.37858e-06
-7.74959e-06
2.56478e-05
-1.65579e-05
4.06369e-05
-2.81635e-05
5.44396e-05
-4.22327e-05
6.71356e-05
-5.84624e-05
7.88142e-05
-7.65821e-05
8.95753e-05
-9.63532e-05
9.9537e-05
-0.000117568
0.000108837
-0.000140046
0.000117628
-0.000163629
0.000126071
-0.000188173
0.000134322
-0.000213541
0.000142523
-0.000239594
0.000150793
-0.000266178
0.00015922
-0.000293114
0.00016786
-0.000320192
0.000176748
-0.000347156
0.000185912
-0.000373704
0.000195412
-0.000399488
0.000205397
-0.000424144
0.000216207
-0.000447341
0.000228516
-0.000468939
0.000243532
-0.000489132
0.000262801
0.000288663
-0.000508471
-2.01561e-06
1.13942e-05
-7.44716e-06
3.10794e-05
-1.59229e-05
4.91127e-05
-2.70912e-05
6.56079e-05
-4.06227e-05
8.06671e-05
-5.6214e-05
9.44054e-05
-7.35891e-05
0.00010695
-9.25004e-05
0.000118448
-0.000112727
0.000129064
-0.000134072
0.000138973
-0.000156357
0.000148356
-0.000179415
0.00015738
-0.000203083
0.000166191
-0.00022719
0.000174901
-0.000251552
0.000183581
-0.000275953
0.000192261
-0.000300137
0.000200933
-0.000323798
0.000209572
-0.000346559
0.000218173
-0.000367976
0.000226814
-0.000387537
0.000235768
-0.000404707
0.000245686
-0.00041909
0.000257915
-0.000430677
0.000274388
0.00029757
-0.000439584
-1.91778e-06
1.3312e-05
-7.09813e-06
3.62598e-05
-1.51886e-05
5.72031e-05
-2.58489e-05
7.62682e-05
-3.87544e-05
9.35725e-05
-5.36003e-05
0.000109251
-7.01044e-05
0.000123455
-8.80079e-05
0.000136352
-0.000107075
0.000148131
-0.000127088
0.000158987
-0.000147845
0.000169113
-0.000169152
0.000178687
-0.000190814
0.000187853
-0.000212626
0.000196713
-0.000234362
0.000205318
-0.000255765
0.000213664
-0.000276529
0.000221696
-0.000296285
0.000229328
-0.000314581
0.00023647
-0.000330865
0.000243098
-0.00034447
0.000249373
-0.000354631
0.000255847
-0.000360636
0.00026392
-0.000362242
0.000275994
0.000294179
-0.00035885
-1.8092e-06
1.51212e-05
-6.70943e-06
4.116e-05
-1.43686e-05
6.48623e-05
-2.4458e-05
8.63576e-05
-3.66573e-05
0.000105772
-5.06595e-05
0.000123254
-6.61747e-05
0.00013897
-8.2931e-05
0.000153108
-0.000100674
0.000165874
-0.000119164
0.000177477
-0.000138172
0.000188121
-0.000157469
0.000197984
-0.000176825
0.000207209
-0.000195993
0.000215881
-0.000214701
0.000224026
-0.000232639
0.000231602
-0.000249445
0.000238502
-0.000264681
0.000244564
-0.000277814
0.000249602
-0.000288179
0.000253463
-0.000294952
0.000256146
-0.000297128
0.000258023
-0.000293619
0.00026041
-0.000283938
0.000266313
0.000276638
-0.000266397
-1.69214e-06
1.68133e-05
-6.28864e-06
4.57565e-05
-1.34778e-05
7.20514e-05
-2.29419e-05
9.58217e-05
-3.43639e-05
0.000117194
-4.74335e-05
0.000136323
-6.18513e-05
0.000153387
-7.73301e-05
0.000168587
-9.35946e-05
0.000182138
-0.000110379
0.000194261
-0.000127421
0.000205163
-0.000144457
0.00021502
-0.000161211
0.000223963
-0.000177388
0.000232058
-0.000192663
0.0002393
-0.000206664
0.000245603
-0.00021896
0.000250798
-0.000229039
0.000254643
-0.000236275
0.000256838
-0.000239892
0.00025708
-0.000238912
0.000255166
-0.000232093
0.000251205
-0.000217912
0.000246229
-0.000195703
0.000244103
0.000243239
-0.000162304
-1.56906e-06
1.83824e-05
-5.84381e-06
5.00312e-05
-1.25318e-05
7.87394e-05
-2.13252e-05
0.000104615
-3.19087e-05
0.000127777
-4.3967e-05
0.000148381
-5.71888e-05
0.000166609
-7.12694e-05
0.000182668
-8.59098e-05
0.000196779
-0.000100814
0.000209165
-0.000115683
0.000220032
-0.000130211
0.000229547
-0.000144071
0.000237823
-0.000156913
0.0002449
-0.000168344
0.000250732
-0.000177923
0.000255182
-0.000185139
0.000258014
-0.000189389
0.000258893
-0.000189948
0.000257398
-0.000185922
0.000253054
-0.000176179
0.000245423
-0.000159275
0.000234301
-0.000133135
0.000220089
-9.69372e-05
0.000207906
0.000193767
-4.74649e-05
-1.44246e-06
1.98248e-05
-5.38326e-06
5.3972e-05
-1.15471e-05
8.49033e-05
-1.96336e-05
0.000112702
-2.93275e-05
0.000137471
-4.03058e-05
0.00015936
-5.22434e-05
0.000178547
-6.48152e-05
0.000195239
-7.7695e-05
0.000209658
-9.05528e-05
0.000222023
-0.000103049
0.000232528
-0.000114827
0.000241325
-0.000125504
0.0002485
-0.000134662
0.000254057
-0.000141834
0.000257904
-0.000146492
0.00025984
-0.000148029
0.000259551
-0.000145736
0.0002566
-0.000138773
0.000250435
-0.000126116
0.000240397
-0.000106479
0.000225786
-7.82729e-05
0.000206095
-3.89362e-05
0.000180752
1.47481e-05
0.000154222
0.000126625
8.189e-05
-1.31488e-06
2.11397e-05
-4.91533e-06
5.75725e-05
-1.05399e-05
9.05278e-05
-1.7893e-05
0.000120055
-2.6656e-05
0.000146234
-3.64961e-05
0.0001692
-4.70715e-05
0.000189122
-5.80334e-05
0.000206201
-6.9025e-05
0.00022065
-7.96779e-05
0.000232676
-8.96056e-05
0.000242456
-9.83955e-05
0.000250115
-0.000105599
0.000255704
-0.000110721
0.000259179
-0.000113205
0.000260388
-0.000112421
0.000259057
-0.000107647
0.000254777
-9.80468e-05
0.000247
-8.26378e-05
0.000235025
-6.02486e-05
0.000218008
-2.94223e-05
0.000194959
1.16014e-05
0.000165071
6.56289e-05
0.000126724
0.000134461
8.53891e-05
3.51757e-05
0.000225911
-1.18879e-06
2.23285e-05
-4.44819e-06
6.08319e-05
-9.52629e-06
9.56059e-05
-1.61283e-05
0.000126657
-2.39292e-05
0.000154035
-3.25829e-05
0.000177854
-4.17275e-05
0.000198267
-5.09874e-05
0.000215461
-5.99709e-05
0.000229634
-6.82662e-05
0.000240971
-7.54339e-05
0.000249624
-8.09976e-05
0.000255679
-8.44331e-05
0.000259139
-8.51552e-05
0.000259901
-8.2504e-05
0.000257737
-7.57285e-05
0.000252281
-6.39677e-05
0.000243016
-4.62285e-05
0.00022926
-2.13568e-05
0.000210154
1.19991e-05
0.000184652
5.5493e-05
0.000151465
0.000110946
0.000109618
0.000181847
5.58237e-05
0.00026921
-1.97408e-06
-8.06268e-05
0.000385013
-1.06655e-06
2.33951e-05
-3.98953e-06
6.37549e-05
-8.52127e-06
0.000100138
-1.43631e-05
0.000132499
-2.11797e-05
0.000160852
-2.86077e-05
0.000185282
-3.62617e-05
0.000205921
-4.37347e-05
0.000222934
-5.05959e-05
0.000236495
-5.63843e-05
0.00024676
-6.06004e-05
0.00025384
-6.26954e-05
0.000257774
-6.20578e-05
0.000258502
-5.79991e-05
0.000255842
-4.97373e-05
0.000249475
-3.63786e-05
0.000238922
-1.68967e-05
0.000223535
9.89041e-06
0.000202473
4.53483e-05
0.000174696
9.10504e-05
0.00013895
0.000148909
9.36063e-05
0.000220815
3.77121e-05
0.000310854
-3.42146e-05
0.000419145
-0.000110266
-0.000223141
0.000561659
-9.50289e-07
2.43453e-05
-3.54636e-06
6.63509e-05
-7.53845e-06
0.00010413
-1.26187e-05
0.000137579
-1.84365e-05
0.000166669
-2.46073e-05
0.000191452
-3.07175e-05
0.000212031
-3.63243e-05
0.000228541
-4.09518e-05
0.000241122
-4.40837e-05
0.000249891
-4.5152e-05
0.000254908
-4.35248e-05
0.000256147
-3.84906e-05
0.000253468
-2.92413e-05
0.000246593
-1.48525e-05
0.000235086
5.73693e-06
0.000218333
3.37487e-05
0.000195523
7.05896e-05
0.000165632
0.00011788
0.000127406
0.00017746
7.93699e-05
0.00025157
1.94955e-05
0.000342168
-5.2886e-05
0.000454017
-0.000146063
0.00058593
-0.000242179
-0.000395065
0.000757855
-8.41893e-07
2.51872e-05
-3.12473e-06
6.86338e-05
-6.58945e-06
0.000107594
-1.0913e-05
0.000141902
-1.5724e-05
0.00017148
-2.06117e-05
0.00019634
-2.51293e-05
0.000216549
-2.87926e-05
0.000232204
-3.10745e-05
0.000243404
-3.13948e-05
0.000250212
-2.91076e-05
0.000252621
-2.34858e-05
0.000250525
-1.37025e-05
0.000243684
1.18898e-06
0.000231701
2.22781e-05
0.000213997
5.08211e-05
0.00018979
8.82673e-05
0.000158077
0.000136285
0.000117614
0.000196793
6.6898e-05
0.000271938
4.22507e-06
0.000364348
-7.29149e-05
0.000476084
-0.000164622
0.000612597
-0.000282576
0.000771133
-0.000400715
-0.000599178
0.000975246
-7.42884e-07
2.59301e-05
-2.72944e-06
7.06203e-05
-5.68335e-06
0.000110548
-9.2595e-06
0.000145479
-1.306e-05
0.000175281
-1.66419e-05
0.000199922
-1.95193e-05
0.000219426
-2.11603e-05
0.000233845
-2.09786e-05
0.000243222
-1.83207e-05
0.000247554
-1.24513e-05
0.000246752
-2.53303e-06
0.000240607
1.23939e-05
0.000228757
3.34367e-05
0.000210659
6.18756e-05
0.000185558
9.91918e-05
0.000152474
0.000147096
0.000110173
0.000207552
5.71576e-05
0.000282813
-8.36317e-06
0.000375364
-8.83257e-05
0.000488232
-0.000185782
0.000623659
-0.000300049
0.000787625
-0.000446542
0.000975845
-0.000588935
-0.000837932
0.0012146
-6.5437e-07
2.65845e-05
-2.36382e-06
7.23298e-05
-4.82613e-06
0.000113011
-7.66677e-06
0.000148319
-1.04545e-05
0.000178069
-1.27079e-05
0.000202175
-1.38951e-05
0.000220613
-1.34284e-05
0.000233379
-1.06531e-05
0.000240447
-4.83122e-06
0.000241732
4.87656e-06
0.000237044
1.94344e-05
0.000226049
3.99565e-05
0.000208235
6.77348e-05
0.00018288
0.000104269
0.000149024
0.000151296
0.000105447
0.000210819
5.06498e-05
0.000285128
-1.71519e-05
0.00037683
-0.000100065
0.000488757
-0.000200253
0.000624264
-0.000321289
0.000785891
-0.000461676
0.000979716
-0.000640367
0.0012003
-0.000809523
-0.00111281
0.00147518
-5.76972e-07
2.71615e-05
-2.02952e-06
7.37823e-05
-4.02026e-06
0.000115001
-6.13729e-06
0.000150436
-7.90873e-06
0.00017984
-8.80704e-06
0.000203074
-8.24661e-06
0.000220053
-5.57463e-06
0.000230707
-5.63306e-08
0.000234929
9.1435e-06
0.000232532
2.29856e-05
0.000223202
4.25812e-05
0.000206453
6.92223e-05
0.000181594
0.000104413
0.000147689
0.000149903
0.000103535
0.000207713
4.76365e-05
0.000280166
-2.18029e-05
0.000369891
-0.000106878
0.00047984
-0.000210013
0.000613179
-0.000333592
0.000773399
-0.00048151
0.000963449
-0.000651726
0.00118879
-0.000865703
0.00144349
-0.00106423
-0.0014235
0.00175418
-5.10773e-07
2.76722e-05
-1.72625e-06
7.49978e-05
-3.2642e-06
0.000116539
-4.66683e-06
0.000151839
-5.41346e-06
0.000180587
-4.9222e-06
0.000202582
-2.5441e-06
0.000217675
2.44967e-06
0.000225713
1.08867e-05
0.000226492
2.37174e-05
0.000219701
4.20418e-05
0.000204877
6.71419e-05
0.000181353
0.000100514
0.000148222
0.000143904
0.0001043
0.000199336
4.81029e-05
0.000269142
-2.21702e-05
0.000355976
-0.000108636
0.000462797
-0.000213699
0.000592847
-0.000340064
0.00074956
-0.000490304
0.000936267
-0.000668217
0.00115633
-0.000871787
0.00141367
-0.00112304
0.00170269
-0.00135325
-0.00176705
0.00204624
-4.55265e-07
2.81275e-05
-1.45167e-06
7.59942e-05
-2.55207e-06
0.00011764
-3.24378e-06
0.00015253
-2.94843e-06
0.000180291
-1.02016e-06
0.000200654
3.26398e-06
0.000213391
1.07221e-05
0.000218255
2.22904e-05
0.000214923
3.90525e-05
0.000202939
6.22711e-05
0.000181659
9.3424e-05
0.0001502
0.00013424
0.000107406
0.000186731
5.18085e-05
0.000253223
-1.83896e-05
0.000336369
-0.000105315
0.000439137
-0.000211405
0.000564772
-0.000339334
0.000716691
-0.000491982
0.000898446
-0.000672059
0.00111284
-0.000882615
0.00136342
-0.00112236
0.00165167
-0.00141129
0.00197312
-0.0016747
-0.00213738
0.00234345
-4.09323e-07
2.85368e-05
-1.20128e-06
7.67862e-05
-1.87347e-06
0.000118312
-1.84881e-06
0.000152506
-4.81396e-07
0.000178924
2.94884e-06
0.000197224
9.25213e-06
0.000207087
1.93505e-05
0.000208156
3.4307e-05
0.000199967
5.53598e-05
0.000181887
8.39589e-05
0.00015306
0.000121804
0.000112355
0.000170883
5.83276e-05
0.000233498
-1.08063e-05
0.000312284
-9.71756e-05
0.0004102
-0.000203232
0.000530486
-0.00033169
0.000676564
-0.000485412
0.000851834
-0.000667252
0.0010597
-0.000879925
0.00130208
-0.00112499
0.00158213
-0.00140242
0.00189822
-0.00172738
0.00224767
-0.00202415
-0.00252542
0.00263571
-3.71191e-07
2.8908e-05
-9.6836e-07
7.73833e-05
-1.21334e-06
0.000118557
-4.54657e-07
0.000151747
2.03127e-06
0.000176438
7.05192e-06
0.000192203
1.55182e-05
0.000198621
2.84734e-05
0.000195201
4.71279e-05
0.000181312
7.28979e-05
0.000156117
0.000107446
0.000118511
0.00015272
6.70803e-05
0.000210987
6.07171e-08
0.00028485
-8.46691e-05
0.000377242
-0.000189567
0.000491382
-0.000317372
0.000630676
-0.000470984
0.000798549
-0.000653285
0.000998113
-0.000866817
0.00123221
-0.00111402
0.00150156
-0.00139434
0.00180812
-0.00170898
0.00214682
-0.00206608
0.0025172
-0.00239454
-0.00291994
0.00291172
-3.38497e-07
2.92465e-05
-7.44034e-07
7.77889e-05
-5.5213e-07
0.000118365
9.73321e-07
0.000150222
4.6458e-06
0.000172766
1.13728e-05
0.000185476
2.21825e-05
0.000187811
3.82585e-05
0.000179125
6.09805e-05
0.00015859
9.19672e-05
0.00012513
0.000133118
7.73602e-05
0.000186651
1.35473e-05
0.000255123
-6.84113e-05
0.000341428
-0.000170973
0.000448753
-0.000296893
0.000580482
-0.000449102
0.000740017
-0.000630519
0.000930524
-0.000843792
0.00115449
-0.00109078
0.00141364
-0.00137317
0.00170731
-0.00168801
0.0020353
-0.00203697
0.00238936
-0.00242014
0.00277128
-0.00277647
-0.00330903
0.00316037
-3.08279e-07
2.95548e-05
-5.17432e-07
7.7998e-05
1.3439e-07
0.000117713
2.47749e-06
0.000147879
7.42884e-06
0.000167814
1.60106e-05
0.000176894
2.93857e-05
0.000174436
4.88989e-05
0.000159612
7.61222e-05
0.000131367
0.0001129
8.83518e-05
0.000161391
2.88692e-05
0.000224094
-4.91549e-05
0.000303848
-0.000148166
0.000403801
-0.000270926
0.000527308
-0.0004204
0.00067776
-0.000599553
0.00085831
-0.000811069
0.00107152
-0.001057
0.00131886
-0.00133812
0.00160039
-0.0016547
0.00191386
-0.00200148
0.00225623
-0.00237934
0.00261693
-0.00278084
0.00299951
-0.00315904
-0.00368171
0.00337219
-2.76943e-07
2.98317e-05
-2.76137e-07
7.79972e-05
8.72556e-07
0.000116565
4.10615e-06
0.000144645
1.04567e-05
0.000161464
2.10777e-05
0.000166273
3.72857e-05
0.000158228
6.06082e-05
0.000136289
9.28318e-05
9.91433e-05
0.000136048
4.51355e-05
0.000192686
-2.7769e-05
0.000265523
-0.000121991
0.000357651
-0.000240294
0.000472393
-0.000385668
0.000613128
-0.000561135
0.00078303
-0.000769455
0.000984688
-0.00101273
0.00121966
-0.00129197
0.00148797
-0.00160643
0.00178759
-0.00195432
0.00211459
-0.00232847
0.00246284
-0.00272759
0.0028209
-0.00313889
0.00319304
-0.00353119
-0.00402919
0.00354052
-2.4037e-07
3.00721e-05
1.1171e-09
7.77557e-05
1.69472e-06
0.000114871
5.91291e-06
0.000140427
1.38132e-05
0.000153563
2.66963e-05
0.00015339
4.60524e-05
0.000138872
7.36122e-05
0.00010873
0.000111398
6.13579e-05
0.000161761
-5.22786e-06
0.000227403
-9.34114e-05
0.000311354
-0.000205943
0.000416894
-0.000345834
0.000547394
-0.000516168
0.000706056
-0.000719798
0.000895544
-0.000958943
0.00111752
-0.0012347
0.0013721
-0.00154656
0.00165754
-0.00189187
0.00196951
-0.00226629
0.0023024
-0.00266137
0.00264741
-0.00307261
0.00299403
-0.00348551
0.00334582
-0.00388298
-0.00434558
0.00366221
-1.95739e-07
3.02678e-05
3.09963e-07
7.725e-05
2.63119e-06
0.00011255
7.95487e-06
0.000135103
1.75872e-05
0.000143931
3.29952e-05
0.000137982
5.58614e-05
0.000116006
8.81398e-05
7.64513e-05
0.000132102
1.73956e-05
0.000190366
-6.34915e-05
0.000265886
-0.000168932
0.000361892
-0.000301949
0.000481743
-0.000465685
0.00062868
-0.000663105
0.000805465
-0.000896582
0.00101391
-0.00116739
0.00125435
-0.00147514
0.00152515
-0.00181736
0.00182251
-0.00218922
0.00213999
-0.00258378
0.00247052
-0.0029919
0.00280367
-0.00340575
0.00313146
-0.0038133
0.00345512
-0.00420664
-0.004628
0.00373754
-1.37345e-07
3.04052e-05
6.85823e-07
7.64268e-05
3.71794e-06
0.000109518
1.0291e-05
0.00012853
2.18699e-05
0.000132352
4.01041e-05
0.000119748
6.68874e-05
8.92227e-05
0.000104412
3.89269e-05
0.000155206
-3.33987e-05
0.000222142
-0.000130427
0.000308387
-0.000255177
0.000417281
-0.000410842
0.000552106
-0.00060051
0.00071574
-0.000826739
0.00091019
-0.00109103
0.00113605
-0.00139325
0.00139201
-0.0017311
0.00167444
-0.0020998
0.00197752
-0.0024923
0.00229321
-0.00289946
0.00261339
-0.00331208
0.0029276
-0.00371997
0.00323104
-0.00411674
0.00352147
-0.00449707
-0.00487658
0.00377005
-6.15553e-08
3.04667e-05
1.13753e-06
7.52278e-05
4.98872e-06
0.000105666
1.29802e-05
0.000120539
2.6751e-05
0.000118581
4.81496e-05
9.83496e-05
7.92955e-05
5.80767e-05
0.000122628
-4.40609e-06
0.000180929
-9.16996e-05
0.000257294
-0.000206792
0.00035503
-0.000352913
0.000477458
-0.00053327
0.00062758
-0.000750632
0.000807627
-0.00100679
0.00101852
-0.00130192
0.0012593
-0.00163404
0.00152678
-0.00199857
0.00181535
-0.00238838
0.00211749
-0.00279443
0.00242427
-0.00320624
0.00272731
-0.00361513
0.00301776
-0.00401042
0.00329333
-0.0043923
0.00354778
-0.00475152
-0.00509665
0.00376785
3.87343e-08
3.0428e-05
1.68102e-06
7.35855e-05
6.47641e-06
0.000100871
1.60792e-05
0.000110936
3.23161e-05
0.000102345
5.72487e-05
7.3417e-05
9.32331e-05
2.20923e-05
0.000142957
-5.41298e-05
0.000209433
-0.000158176
0.000295926
-0.000293284
0.000405778
-0.000462766
0.000542116
-0.000669608
0.000707412
-0.000915928
0.000902946
-0.00120232
0.00112822
-0.0015272
0.00138051
-0.00188633
0.00165467
-0.00227273
0.00194342
-0.00267712
0.00223809
-0.00308911
0.00252979
-0.00349794
0.00281078
-0.00389611
0.00307497
-0.0042746
0.00332134
-0.00463867
0.00354347
-0.00497365
-0.00531009
0.0037569
1.62889e-07
3.02651e-05
2.33047e-06
7.14179e-05
8.21207e-06
9.49894e-05
1.96405e-05
9.95074e-05
3.86427e-05
8.33423e-05
6.75043e-05
4.45553e-05
0.000108822
-1.92253e-05
0.000165519
-0.000110827
0.000240801
-0.000233457
0.000338017
-0.000390501
0.000460402
-0.000585151
0.000610672
-0.000819878
0.000790492
-0.00109575
0.000999881
-0.00141171
0.00123668
-0.001764
0.00149629
-0.00214593
0.00177182
-0.00254826
0.00205481
-0.0029601
0.00233629
-0.00337059
0.00260821
-0.00376986
0.00286438
-0.00415229
0.00310166
-0.00451188
0.0033193
-0.00485631
0.00351854
-0.0051729
-0.00549892
0.00370738
3.1764e-07
2.99475e-05
3.09951e-06
6.8636e-05
1.02238e-05
8.78652e-05
2.37107e-05
8.60204e-05
4.57976e-05
6.12554e-05
7.90001e-05
1.13528e-05
0.00012615
-6.63752e-05
0.00019038
-0.000175057
0.000275025
-0.000318102
0.000383404
-0.00049888
0.000518463
-0.000720209
0.00068226
-0.000983675
0.000875366
-0.00128885
0.00109628
-0.00163262
0.00134104
-0.00200876
0.00160328
-0.00240818
0.00187482
-0.0028198
0.00214668
-0.00323197
0.00241049
-0.00363439
0.0026597
-0.00401907
0.00289029
-0.00438287
0.00310151
-0.00472311
0.0032943
-0.0050491
0.00347252
-0.00535111
-0.00566686
0.00364045
5.0567e-07
2.94418e-05
3.99988e-06
6.51418e-05
1.25358e-05
7.93293e-05
2.83292e-05
7.02271e-05
5.3834e-05
3.57506e-05
9.17955e-05
-2.66087e-05
0.000145264
-0.000119844
0.000217538
-0.00024733
0.000311991
-0.000412555
0.000431766
-0.000618655
0.000579304
-0.000867747
0.000755743
-0.00116011
0.000960295
-0.00149341
0.00118976
-0.00186208
0.00143842
-0.00225742
0.00169848
-0.00266824
0.00196104
-0.00308236
0.00221743
-0.00348837
0.00246056
-0.00387752
0.00268591
-0.00424442
0.0028917
-0.00458866
0.00307921
-0.00491062
0.0032508
-0.00522068
0.00341124
-0.00551156
-0.00582014
0.00356452
7.2972e-07
2.87121e-05
5.04146e-06
6.08301e-05
1.51682e-05
6.92026e-05
3.35266e-05
5.18687e-05
6.27895e-05
6.48765e-06
0.000105923
-6.97421e-05
0.000166166
-0.000180088
0.000246916
-0.00032808
0.000351471
-0.00051711
0.000482617
-0.000749802
0.000642055
-0.00102719
0.000829748
-0.00134781
0.00104334
-0.001707
0.00127791
-0.00209665
0.00152618
-0.0025057
0.00177945
-0.00292151
0.00202883
-0.00333173
0.00226667
-0.00372621
0.00248768
-0.00409853
0.0026895
-0.00444623
0.0028724
-0.00477156
0.00303918
-0.0050774
0.00319308
-0.00537458
0.00333923
-0.00565771
-0.00596165
0.00348075
9.92088e-07
2.772e-05
6.23217e-06
5.559e-05
1.81361e-05
5.72986e-05
3.9324e-05
3.06809e-05
7.26837e-05
-2.68721e-05
0.000121384
-0.000118442
0.000188806
-0.00024751
0.000278358
-0.000417632
0.000393118
-0.00063187
0.000535311
-0.000891995
0.000705658
-0.00119753
0.000902722
-0.00154487
0.00112249
-0.00192676
0.00135841
-0.00233257
0.0016021
-0.00274939
0.00184455
-0.00316396
0.00207759
-0.00356477
0.00229513
-0.00394375
0.00249393
-0.00429733
0.00267365
-0.00462596
0.00283622
-0.00493414
0.0029854
-0.00522658
0.00312481
-0.00551399
0.00325941
-0.00579231
-0.00609373
0.00339148
1.2946e-06
2.64254e-05
7.57794e-06
4.93066e-05
2.14498e-05
4.34267e-05
4.57323e-05
6.39842e-06
8.35177e-05
-6.46575e-05
0.000138146
-0.00017307
0.000213079
-0.000322443
0.000311622
-0.000516175
0.000436464
-0.000756712
0.000589052
-0.00104458
0.0007689
-0.00137738
0.000973018
-0.00174899
0.00119576
-0.0021495
0.00142926
-0.00256607
0.00166454
-0.00298468
0.00189296
-0.00339238
0.00210764
-0.00377944
0.00230437
-0.00414048
0.00248192
-0.00447488
0.00264167
-0.00478571
0.0027867
-0.00507917
0.00292121
-0.00536108
0.00304881
-0.00564159
0.00317399
-0.00591749
-0.00621802
0.00329829
1.63863e-06
2.47868e-05
9.08273e-06
4.18625e-05
2.51145e-05
2.7395e-05
5.27516e-05
-2.12387e-05
9.5272e-05
-0.000107178
0.000156144
-0.000233942
0.000238825
-0.000405124
0.000346383
-0.000623734
0.000480931
-0.00089126
0.000642919
-0.00120657
0.000830469
-0.00156493
0.00103899
-0.00195751
0.00126138
-0.00237189
0.00148889
-0.00279359
0.00171256
-0.00320834
0.00192469
-0.00360452
0.00212009
-0.00397483
0.00229651
-0.0043169
0.0024545
-0.00463287
0.00259671
-0.00492793
0.0027269
-0.00520935
0.00284929
-0.00548347
0.00296721
-0.00575951
0.00308455
-0.00603483
-0.00633562
0.00320215
2.02515e-06
2.27616e-05
1.07485e-05
3.31392e-05
2.91298e-05
9.01368e-06
6.03709e-05
-5.24798e-05
0.000107906
-0.000154713
0.000175274
-0.000301309
0.000265824
-0.000495675
0.000382235
-0.000740144
0.000525841
-0.00103487
0.000695898
-0.00137663
0.000889022
-0.00175805
0.0010991
-0.00216758
0.00131787
-0.00259067
0.00153626
-0.00301197
0.00174587
-0.00341795
0.00194043
-0.00379909
0.00211659
-0.00415099
0.00227393
-0.00447424
0.00241443
-0.00477337
0.00254156
-0.00505506
0.00265932
-0.00532711
0.00277168
-0.00559583
0.00288154
-0.00586936
0.00299214
-0.00614543
-0.00644725
0.00310377
2.45479e-06
2.03068e-05
1.25754e-05
2.30186e-05
3.34906e-05
-1.19015e-05
6.85678e-05
-8.75571e-05
0.000121359
-0.000207504
0.000195396
-0.000375347
0.000293803
-0.000594081
0.000418694
-0.000865036
0.000570433
-0.0011866
0.000746926
-0.00155312
0.00094326
-0.00195439
0.00115199
-0.00237631
0.00136416
-0.00280284
0.00157086
-0.00321867
0.0017648
-0.00361189
0.00194139
-0.00397568
0.00209909
-0.00430869
0.00223904
-0.00461419
0.00236424
-0.00489856
0.00247857
-0.0051694
0.00258595
-0.00543449
0.00268992
-0.0056998
0.00279287
-0.00597232
0.00289749
-0.00625005
-0.00655334
0.00300357
2.92776e-06
1.73791e-05
1.45613e-05
1.1385e-05
3.81856e-05
-3.55258e-05
7.73076e-05
-0.000126679
0.000135545
-0.000265741
0.000216334
-0.000456136
0.000322432
-0.00070018
0.000455215
-0.000997819
0.000613898
-0.00134529
0.000794943
-0.00173417
0.000991998
-0.00215144
0.0011966
-0.00258091
0.00139957
-0.00300582
0.00159272
-0.00341182
0.00177018
-0.00378935
0.00192912
-0.00413462
0.00206965
-0.00444922
0.00219411
-0.00473866
0.00230611
-0.00501056
0.00240963
-0.00527292
0.00250828
-0.00553314
0.00260509
-0.00579661
0.00270197
-0.0060692
0.00280106
-0.00634914
-0.00665413
0.00290186
3.44395e-06
1.39351e-05
1.67025e-05
-1.87353e-06
4.31983e-05
-6.20215e-05
8.65433e-05
-0.000170024
0.000150357
-0.000329555
0.000237874
-0.000543653
0.000351335
-0.000813641
0.000491201
-0.00113768
0.000655402
-0.00150949
0.000838945
-0.00191771
0.00103423
-0.00234673
0.00123218
-0.00277886
0.00142391
-0.00319754
0.00160231
-0.00359022
0.00176316
-0.0039502
0.00190532
-0.00427678
0.00203025
-0.00457415
0.00214114
-0.00484954
0.00224187
-0.00511129
0.00233624
-0.0053673
0.00242744
-0.00562434
0.00251797
-0.00588714
0.00260932
-0.00616055
0.00270319
-0.00644301
-0.00674978
0.00279884
4.00282e-06
9.93231e-06
1.89926e-05
-1.68633e-05
4.85056e-05
-9.15346e-05
9.62152e-05
-0.000217734
0.000165665
-0.000399005
0.00025977
-0.000637758
0.000380094
-0.000933965
0.000526028
-0.00128362
0.000694131
-0.00167759
0.000878036
-0.00210162
0.00106919
-0.00253788
0.00125835
-0.00296802
0.00143733
-0.00337652
0.00160045
-0.00375334
0.00174512
-0.00409487
0.00187172
-0.00440337
0.00198275
-0.00468518
0.00208187
-0.00494867
0.00217297
-0.00520239
0.00225953
-0.00545385
0.00234423
-0.00570905
0.00242911
-0.00597202
0.00251529
-0.00624672
0.0026041
-0.00653182
-0.00684033
0.00269465
4.60334e-06
5.32896e-06
2.14231e-05
-3.36831e-05
5.40784e-05
-0.00012419
0.00010625
-0.000269905
0.000181317
-0.000474072
0.000281743
-0.000738184
0.000408262
-0.00106048
0.000559064
-0.00143442
0.000729323
-0.00184785
0.000911471
-0.00228376
0.00109636
-0.00272277
0.00127502
-0.00314668
0.00144034
-0.00354184
0.00158817
-0.00390117
0.00171751
-0.00422421
0.00182996
-0.00451582
0.00192875
-0.00478397
0.00201773
-0.00503765
0.00210057
-0.00528524
0.00218033
-0.00553361
0.00225924
-0.00578796
0.00233889
-0.00605167
0.0024201
-0.00632794
0.00250393
-0.00661565
-0.00692581
0.00258941
5.24394e-06
8.50268e-08
2.39827e-05
-5.24219e-05
5.98802e-05
-0.000160087
0.000116561
-0.000326586
0.00019714
-0.000554651
0.00030349
-0.000844534
0.000435375
-0.00119237
0.000589697
-0.00158874
0.000760307
-0.00201846
0.000938688
-0.00246215
0.0011155
-0.00289958
0.00128242
-0.0033136
0.00143367
-0.00369309
0.00156666
-0.00403416
0.00168177
-0.00433933
0.00178155
-0.0046156
0.00186964
-0.00487206
0.00194985
-0.00511786
0.00202553
-0.00536092
0.00209927
-0.00560734
0.00217287
-0.00586155
0.00224756
-0.00612636
0.00232393
-0.00640432
0.00240281
-0.00669452
-0.0070062
0.00248321
5.92231e-06
-5.83728e-06
2.66572e-05
-7.31568e-05
6.58679e-05
-0.000199298
0.00012705
-0.000387768
0.000212941
-0.000640542
0.000324692
-0.000956285
0.000460968
-0.00132865
0.000617361
-0.00174514
0.00078653
-0.00218763
0.000959325
-0.00263494
0.0011266
-0.00306685
0.00128101
-0.00346801
0.00141822
-0.00383031
0.00153712
-0.00415305
0.00163925
-0.00444145
0.00172779
-0.00470415
0.00180656
-0.00495083
0.00187916
-0.00519046
0.00194852
-0.00543028
0.0020168
-0.00567562
0.00208542
-0.00593017
0.00215531
-0.00619625
0.00222692
-0.00647592
0.00230084
-0.00676845
-0.00708151
0.00237614
6.63562e-06
-1.24729e-05
2.94295e-05
-9.59506e-05
7.19911e-05
-0.00024186
0.000137604
-0.00045338
0.000228514
-0.000731452
0.000345018
-0.00107279
0.000484596
-0.00146822
0.000641557
-0.0019021
0.000807578
-0.00235365
0.00097322
-0.00280058
0.00112988
-0.00322351
0.00127143
-0.00360956
0.00139499
-0.00395387
0.00150075
-0.00425882
0.00159117
-0.00453187
0.00166981
-0.00478279
0.00174044
-0.00502146
0.00180634
-0.00525636
0.00187002
-0.00549396
0.00193324
-0.00573884
0.0019971
-0.00599403
0.0020623
-0.00626146
0.00212915
-0.00654276
0.00219811
-0.00683741
-0.00715169
0.00226829
7.38002e-06
-1.98529e-05
3.2279e-05
-0.00012085
7.81926e-05
-0.000287773
0.000148101
-0.000523289
0.000243642
-0.000826994
0.00036414
-0.00119329
0.000505846
-0.00160993
0.000661875
-0.00205813
0.000823187
-0.00251496
0.000980397
-0.00295779
0.00112574
-0.00336886
0.00125442
-0.00373824
0.00136496
-0.0040644
0.00145867
-0.00435253
0.00153861
-0.0046118
0.00160853
-0.00485271
0.00167199
-0.00508493
0.00173192
-0.00531628
0.00179041
-0.00555245
0.00184884
-0.00579728
0.00190807
-0.00605326
0.00196863
-0.00632201
0.00203072
-0.00660485
0.0020947
-0.00690139
-0.00721672
0.00215973
8.15087e-06
-2.80038e-05
3.51825e-05
-0.000147881
8.44088e-05
-0.000337
0.000158412
-0.000597292
0.000258104
-0.000926686
0.000381745
-0.00131693
0.000524353
-0.00175254
0.000678009