/*--------------------------------*- C++ -*----------------------------------*\
  =========                 |
  \\      /  F ield         | OpenFOAM: The Open Source CFD Toolbox
   \\    /   O peration     | Website:  https://openfoam.org
    \\  /    A nd           | Version:  7
     \\/     M anipulation  |
\*---------------------------------------------------------------------------*/
FoamFile
{
    version     2.0;
    format      ascii;
    class       volVectorField;
    location    "80";
    object      U;
}
// * * * * * * * * * * * * * * * * * * * * * * * * * * * * * * * * * * * * * //

dimensions      [0 1 -1 0 0 0 0];

internalField   nonuniform List<vector> 
31800
(
(-0.000511043 -0.000242691 -9.11584e-21)
(-0.00320623 -0.000436452 6.29571e-21)
(-0.00861372 -0.000416704 -2.05075e-21)
(-0.0156127 -0.000227327 9.10545e-21)
(-0.0237674 8.2003e-05 1.01689e-20)
(-0.0327182 0.000468058 -3.33113e-21)
(-0.0421492 0.000897193 -2.4077e-21)
(-0.0518141 0.00134688 1.7017e-20)
(-0.0615224 0.00180634 -1.93793e-21)
(-0.0711289 0.00227563 2.78169e-21)
(-0.0805255 0.00276361 9.5358e-21)
(-0.0896331 0.00328518 9.3318e-21)
(-0.098393 0.0038585 -5.8898e-21)
(-0.106761 0.00450265 -7.313e-21)
(-0.114699 0.00523587 -2.48607e-22)
(-0.122177 0.00607455 -9.31867e-21)
(-0.12916 0.00703286 7.23056e-21)
(-0.13562 0.0081227 1.2177e-20)
(-0.14153 0.00935402 -4.54642e-21)
(-0.146874 0.0107352 2.05825e-20)
(-0.151654 0.012274 1.30217e-21)
(-0.155914 0.0139781 -1.65714e-21)
(-0.15975 0.0158551 3.61577e-21)
(-0.163285 0.0179078 7.34252e-21)
(-0.166756 0.0201535 4.55643e-21)
(-0.000541129 0.000782871 9.38512e-21)
(-0.00327309 0.00213932 5.12944e-21)
(-0.00868889 0.00331491 -5.52832e-21)
(-0.0156767 0.00434509 -2.10067e-20)
(-0.0238033 0.0052355 1.54989e-20)
(-0.0327112 0.00599176 -7.58212e-21)
(-0.0420856 0.00662316 4.1777e-22)
(-0.0516814 0.00714394 -1.305e-20)
(-0.0613086 0.00757416 2.71618e-21)
(-0.0708222 0.00793921 1.84359e-21)
(-0.0801143 0.00826785 -4.00165e-20)
(-0.0891052 0.0085899 -6.80631e-22)
(-0.097736 0.00893394 4.47233e-20)
(-0.105961 0.00932565 -2.24604e-20)
(-0.113743 0.00978685 -4.25076e-21)
(-0.121047 0.0103355 9.24726e-21)
(-0.127841 0.0109866 -1.9397e-20)
(-0.134092 0.0117536 -9.78509e-22)
(-0.139771 0.0126504 1.91031e-20)
(-0.144858 0.0136946 -6.99695e-20)
(-0.149352 0.0149101 -2.16511e-20)
(-0.153288 0.0163306 3.27038e-20)
(-0.156758 0.0179966 1.60935e-20)
(-0.159872 0.0199417 2.85878e-21)
(-0.16285 0.022235 -6.48398e-21)
(-0.000620002 0.00179379 -1.94328e-20)
(-0.00344945 0.00468042 -5.37471e-22)
(-0.00889647 0.00699869 -2.64073e-20)
(-0.0158702 0.00886101 3.94046e-20)
(-0.0239455 0.010327 -4.46211e-20)
(-0.0327703 0.0114502 -4.15743e-21)
(-0.0420345 0.012282 -4.04524e-21)
(-0.0514959 0.012873 7.38827e-21)
(-0.0609666 0.0132735 2.44743e-20)
(-0.070303 0.0135341 -4.15881e-21)
(-0.0793975 0.013703 -7.31003e-21)
(-0.0881706 0.013825 2.63871e-20)
(-0.0965626 0.013939 -4.66749e-21)
(-0.104527 0.0140772 2.56494e-20)
(-0.112025 0.014265 -5.18232e-20)
(-0.119021 0.014522 -2.11561e-20)
(-0.125479 0.0148637 3.41989e-21)
(-0.131365 0.0153045 -6.92671e-20)
(-0.136644 0.015862 1.88903e-20)
(-0.14129 0.0165615 4.25927e-20)
(-0.145292 0.0174421 -2.68165e-20)
(-0.148674 0.0185625 -6.45444e-20)
(-0.151518 0.0199982 -3.21892e-20)
(-0.153907 0.0218179 -5.99668e-20)
(-0.156027 0.0241464 -3.27827e-20)
(-0.00074606 0.00278012 9.05294e-21)
(-0.00373212 0.00716367 -1.50765e-20)
(-0.00923322 0.0106032 4.7971e-20)
(-0.0161908 0.013284 -3.83807e-20)
(-0.0241923 0.0153173 -9.9797e-21)
(-0.0328951 0.016803 -2.64156e-21)
(-0.0419965 0.0178334 3.1398e-20)
(-0.0512594 0.0184941 2.22402e-20)
(-0.0604993 0.0188655 -3.93141e-20)
(-0.0695748 0.0190224 1.64691e-20)
(-0.0783795 0.0190328 1.03228e-21)
(-0.0868339 0.0189557 -7.41961e-20)
(-0.094878 0.0188405 -2.43583e-20)
(-0.102464 0.018726 1.97883e-21)
(-0.109551 0.0186412 1.62306e-20)
(-0.116103 0.018607 7.38505e-20)
(-0.12208 0.0186393 8.16491e-21)
(-0.127443 0.0187529 6.98818e-20)
(-0.132153 0.0189673 6.96292e-20)
(-0.136174 0.019314 -8.57939e-21)
(-0.139481 0.0198451 3.13257e-20)
(-0.142079 0.0206428 -1.19028e-20)
(-0.144038 0.0218197 3.96517e-20)
(-0.145406 0.0234875 1.32145e-19)
(-0.146296 0.0258328 2.06513e-20)
(-0.000916938 0.00373252 1.5383e-20)
(-0.00411639 0.00956711 -5.59533e-20)
(-0.00969417 0.0140984 7.21995e-20)
(-0.0166341 0.0175789 2.66115e-20)
(-0.0245409 0.0201686 2.08707e-20)
(-0.0330845 0.0220109 2.21956e-20)
(-0.041972 0.0232374 -1.1799e-19)
(-0.0509736 0.0239678 4.38447e-20)
(-0.0599096 0.0243114 4.56223e-20)
(-0.0686415 0.0243667 -6.74042e-20)
(-0.0770647 0.0242207 6.9787e-20)
(-0.0851 0.023947 3.81711e-20)
(-0.0926866 0.023605 4.71372e-20)
(-0.0997757 0.0232404 -3.1911e-20)
(-0.106325 0.0228857 -7.06988e-21)
(-0.112294 0.0225633 1.54923e-19)
(-0.117641 0.0222887 -6.69009e-20)
(-0.122323 0.0220762 5.17433e-20)
(-0.126292 0.0219457 -1.25276e-19)
(-0.129502 0.0219323 -5.04227e-20)
(-0.131911 0.0220978 4.78476e-20)
(-0.133499 0.0225452 8.34881e-20)
(-0.13432 0.0234256 1.40951e-20)
(-0.13438 0.0249056 -1.08577e-19)
(-0.133656 0.0272393 -7.60981e-20)
(-0.00112959 0.00464244 -6.04723e-20)
(-0.00459613 0.0118704 -1.95037e-20)
(-0.0102728 0.0174562 -4.2829e-20)
(-0.0171947 0.0217127 -4.14477e-20)
(-0.0249874 0.0248445 2.97298e-20)
(-0.0333362 0.0270359 -5.30819e-20)
(-0.0419608 0.0284557 -3.44008e-20)
(-0.0506401 0.0292557 -1.7114e-19)
(-0.0592003 0.029573 7.49427e-21)
(-0.067507 0.0295294 -1.71837e-21)
(-0.0754575 0.0292303 -1.31109e-19)
(-0.0829732 0.0287635 -4.46638e-20)
(-0.0899927 0.0281987 -5.55519e-20)
(-0.0964655 0.0275882 1.07354e-19)
(-0.102347 0.0269683 3.09466e-20)
(-0.107593 0.0263626 -8.4523e-20)
(-0.11216 0.0257862 -9.40746e-20)
(-0.115997 0.0252518 2.59869e-20)
(-0.11905 0.0247777 1.03216e-19)
(-0.12126 0.0243992 -2.22486e-20)
(-0.122565 0.0241837 -1.34687e-20)
(-0.122918 0.0242503 -6.35584e-20)
(-0.122349 0.0247888 -8.00295e-20)
(-0.120826 0.026034 6.54617e-20)
(-0.118082 0.0283118 4.43972e-20)
(-0.00138039 0.00550228 3.14162e-20)
(-0.00516399 0.0140553 3.69355e-20)
(-0.0109612 0.0206508 -2.91118e-20)
(-0.0178656 0.0256545 -6.0194e-20)
(-0.0255265 0.0293109 9.36931e-21)
(-0.0336473 0.031842 7.06156e-20)
(-0.041962 0.0334508 1.015e-19)
(-0.0502596 0.0343198 1.38533e-19)
(-0.0583738 0.0346127 2.41328e-20)
(-0.0661746 0.0344733 3.19241e-20)
(-0.0735619 0.0340251 3.87291e-20)
(-0.0804575 0.0333697 1.48061e-19)
(-0.0867992 0.032587 -8.53213e-21)
(-0.0925346 0.0317361 -1.89704e-19)
(-0.0976159 0.0308573 1.36619e-19)
(-0.101996 0.0299756 5.42402e-20)
(-0.105625 0.0291052 1.71945e-19)
(-0.108449 0.0282564 -7.03919e-20)
(-0.110403 0.0274439 -8.08685e-20)
(-0.111416 0.0266998 2.30549e-19)
(-0.111408 0.0260915 -7.735e-20)
(-0.110296 0.0257476 -1.18107e-19)
(-0.108083 0.0258927 -3.14771e-20)
(-0.104721 0.0268455 -9.91572e-20)
(-0.0995184 0.0289974 1.65967e-20)
(-0.00166528 0.00630556 7.81161e-21)
(-0.00581166 0.0161057 -1.53125e-20)
(-0.0117503 0.0236594 3.12482e-21)
(-0.0186387 0.0293762 -1.09542e-19)
(-0.0261521 0.0335362 -8.50177e-20)
(-0.0340138 0.0363948 -1.60541e-20)
(-0.0419736 0.038187 -4.14246e-20)
(-0.0498323 0.0391237 -7.54263e-20)
(-0.0574317 0.0393935 -1.70242e-20)
(-0.064647 0.0391615 -8.39152e-21)
(-0.0713806 0.0385684 -7.97655e-20)
(-0.0775552 0.0377295 3.44481e-20)
(-0.0831073 0.0367348 2.5957e-20)
(-0.0879818 0.0356503 1.39245e-19)
(-0.0921273 0.0345204 -2.94246e-21)
(-0.0954924 0.0333716 -8.41665e-20)
(-0.0980217 0.0322176 -9.18056e-21)
(-0.0996534 0.0310654 3.62389e-20)
(-0.100316 0.0299247 1.48755e-19)
(-0.0999246 0.0288208 -1.10555e-19)
(-0.0983804 0.0278151 2.90515e-19)
(-0.0955656 0.027037 1.21083e-19)
(-0.0914457 0.0267363 -9.12948e-20)
(-0.0860109 0.0273309 1.76732e-19)
(-0.07786 0.0292502 1.02578e-19)
(-0.00197986 0.00704699 9.53477e-21)
(-0.00653008 0.0180081 4.84301e-20)
(-0.0126301 0.0264618 1.37294e-19)
(-0.0195049 0.0328529 1.71082e-19)
(-0.026857 0.0374913 1.01679e-19)
(-0.0344305 0.0406627 -7.133e-20)
(-0.0419929 0.0426305 1.73674e-19)
(-0.0493573 0.0436321 1.96593e-20)
(-0.0563744 0.0438794 -1.03636e-19)
(-0.0629252 0.0435576 1.13991e-20)
(-0.0689149 0.042824 1.91926e-19)
(-0.0742666 0.0418069 -2.04934e-19)
(-0.0789152 0.0406065 -1.16885e-19)
(-0.0828022 0.0392957 -2.37598e-20)
(-0.0858716 0.0379236 -1.91446e-19)
(-0.0880661 0.0365185 -1.24605e-19)
(-0.0893236 0.0350936 2.2034e-20)
(-0.0895745 0.0336529 -2.59072e-19)
(-0.0887377 0.0321997 2.57411e-20)
(-0.0867173 0.0307498 -1.2375e-19)
(-0.0833964 0.0293528 -1.53167e-19)
(-0.078623 0.0281287 1.42365e-19)
(-0.0723061 0.0273364 1.60087e-19)
(-0.0645967 0.0275064 -1.24471e-19)
(-0.0529511 0.0290726 1.71252e-19)
(-0.00231957 0.0077226 -1.1484e-19)
(-0.00730972 0.0197518 8.41977e-20)
(-0.01359 0.0290415 -6.18055e-21)
(-0.0204542 0.0360628 3.36324e-20)
(-0.0276327 0.0411506 3.18206e-20)
(-0.0348913 0.0446164 1.42858e-19)
(-0.0420155 0.0467495 -1.03644e-19)
(-0.0488318 0.0478114 -1.93057e-19)
(-0.0552003 0.0480355 9.66646e-20)
(-0.061008 0.047626 9.01777e-20)
(-0.066163 0.0467557 -3.04261e-19)
(-0.0705885 0.0455658 2.13824e-19)
(-0.0742169 0.0441662 3.24323e-19)
(-0.0769856 0.0426371 2.2031e-20)
(-0.0788323 0.0410323 -5.70116e-20)
(-0.0796924 0.0393829 1.63727e-19)
(-0.0794952 0.037702 -7.54342e-20)
(-0.0781617 0.0359908 3.37553e-19)
(-0.0756001 0.0342465 -2.97319e-19)
(-0.0717018 0.0324736 5.4018e-20)
(-0.066335 0.0307048 -2.79871e-20)
(-0.0593189 0.0290419 -9.10773e-20)
(-0.0504669 0.0277242 -8.82827e-20)
(-0.0402849 0.0273811 7.27494e-20)
(-0.0246163 0.0286119 1.8495e-20)
(-0.00267984 0.00832973 7.49618e-20)
(-0.00814086 0.0213288 -5.39708e-20)
(-0.0146187 0.0313852 4.45276e-20)
(-0.0214758 0.0389878 -1.50132e-19)
(-0.0284698 0.0444913 -3.31993e-20)
(-0.0353884 0.0482296 1.68488e-20)
(-0.0420353 0.0505148 -3.81254e-20)
(-0.048251 0.0516299 -6.30673e-20)
(-0.0539051 0.0518285 1.9804e-20)
(-0.058891 0.051332 -1.05343e-19)
(-0.0631192 0.0503282 1.96339e-19)
(-0.0665126 0.0489704 -4.51201e-20)
(-0.0690004 0.0473781 -1.15178e-19)
(-0.0705141 0.0456388 -1.17764e-19)
(-0.0709837 0.0438116 1.55752e-19)
(-0.0703349 0.0419307 8.42045e-20)
(-0.0684862 0.0400102 3.35476e-20)
(-0.0653464 0.0380497 -2.81224e-19)
(-0.0608106 0.0360409 2.92745e-19)
(-0.0547564 0.0339771 -9.54899e-20)
(-0.0470365 0.0318714 -4.44527e-20)
(-0.0374571 0.0298008 -3.43576e-20)
(-0.0256762 0.0279457 -3.80748e-20)
(-0.0126898 0.0268997 1.22781e-19)
(0.00738871 0.0280207 -2.01108e-19)
(-0.0030562 0.00886709 -2.78587e-20)
(-0.00901381 0.022734 1.20302e-19)
(-0.015705 0.0334832 -1.72053e-19)
(-0.0225584 0.0416133 6.9e-20)
(-0.0293579 0.0474944 3.80266e-20)
(-0.0359124 0.0514793 -5.76487e-20)
(-0.042044 0.0538997 1.67946e-19)
(-0.047607 0.0550583 4.08205e-20)
(-0.052481 0.0552268 1.9052e-20)
(-0.0565651 0.0546427 1.6469e-19)
(-0.0597722 0.0535075 -6.7457e-20)
(-0.0620239 0.0519861 7.12319e-20)
(-0.063245 0.0502073 -7.57562e-20)
(-0.0633594 0.0482661 -4.7875e-21)
(-0.0622871 0.046227 -8.24359e-20)
(-0.0599416 0.0441282 -2.84943e-19)
(-0.0562272 0.0419859 5.86251e-20)
(-0.0510368 0.0397997 2.26984e-19)
(-0.0442493 0.0375575 -7.83462e-20)
(-0.035725 0.0352436 3.78139e-19)
(-0.0252967 0.0328513 -2.09567e-19)
(-0.0127855 0.0304289 -5.97993e-20)
(0.0023249 0.0280719 -1.00413e-19)
(0.0185945 0.0263055 3.08828e-21)
(0.0437705 0.0271568 -8.98692e-20)
(-0.00344446 0.00933465 -8.3318e-20)
(-0.00991919 0.0239651 -1.24032e-19)
(-0.0168373 0.0353293 -6.65882e-20)
(-0.0236899 0.0439285 6.26139e-20)
(-0.030285 0.0501446 1.95418e-20)
(-0.0364518 0.0543457 1.12909e-20)
(-0.0420303 0.0568808 4.31505e-20)
(-0.0468883 0.0580701 -2.10152e-19)
(-0.050915 0.0582014 6.94154e-20)
(-0.0540151 0.0575271 -1.4383e-19)
(-0.056103 0.0562614 -5.20498e-20)
(-0.0570979 0.0545801 -7.03101e-20)
(-0.0569184 0.0526209 -1.48709e-19)
(-0.0554789 0.050486 3.05434e-19)
(-0.0526868 0.0482461 1.73064e-19)
(-0.0484396 0.0459439 4.65631e-20)
(-0.0426235 0.0435991 1.45002e-19)
(-0.0351112 0.0412129 -2.09651e-19)
(-0.0257601 0.0387724 -5.1664e-20)
(-0.0144101 0.0362563 -2.4544e-19)
(-0.000863685 0.0336418 9.45915e-20)
(0.015016 0.0309541 2.07747e-19)
(0.0340073 0.0281896 9.5093e-20)
(0.0538448 0.0258759 -1.79277e-19)
(0.0852169 0.0260211 2.24359e-19)
(-0.00384077 0.00973366 -2.96482e-20)
(-0.0108481 0.0250225 7.72007e-21)
(-0.0180043 0.0369206 8.43363e-20)
(-0.0248577 0.0459265 1.50526e-19)
(-0.0312378 0.0524302 -1.00743e-19)
(-0.0369926 0.0568127 9.71021e-20)
(-0.0419791 0.059438 -7.61766e-20)
(-0.0460782 0.0606415 2.87763e-19)
(-0.049188 0.060726 -2.01635e-19)
(-0.0512178 0.059957 4.33724e-20)
(-0.0520827 0.0585605 1.86983e-19)
(-0.0516977 0.0567222 -2.57395e-20)
(-0.0499733 0.0545885 2.00521e-20)
(-0.0468117 0.0522689 -2.4823e-19)
(-0.042104 0.0498402 -2.10166e-19)
(-0.0357282 0.0473507 -8.04348e-21)
(-0.0275475 0.0448248 -2.31038e-19)
(-0.0174091 0.0422673 8.43728e-20)
(-0.0051425 0.0396676 -1.17557e-19)
(0.00943668 0.0370034 1.53592e-19)
(0.026574 0.0342428 -2.0711e-19)
(0.0463103 0.0313985 1.24143e-19)
(0.0698925 0.0283564 -1.03769e-19)
(0.0935644 0.0256404 1.40839e-19)
(0.132399 0.0250013 -8.3182e-21)
(-0.00424179 0.0100664 1.62585e-19)
(-0.0117922 0.0259091 4.12081e-20)
(-0.0191949 0.0382576 -9.3369e-20)
(-0.0260485 0.0476036 -1.1205e-19)
(-0.0322011 0.0543432 7.5611e-20)
(-0.0375177 0.0588678 -2.77129e-19)
(-0.041871 0.0615546 3.9492e-19)
(-0.045154 0.0627528 7.67343e-20)
(-0.0472726 0.062778 1.27222e-19)
(-0.0481399 0.0619078 1.55355e-19)
(-0.0476695 0.060379 9.78114e-20)
(-0.0457705 0.0583863 -7.32162e-20)
(-0.0423427 0.0560844 -2.40456e-21)
(-0.0372725 0.0535901 -3.57682e-20)
(-0.0304311 0.0509868 -1.06643e-19)
(-0.0216719 0.0483291 2.38758e-19)
(-0.0108301 0.0456471 4.86297e-19)
(0.00227881 0.0429515 2.88092e-20)
(0.0178595 0.0402372 1.67366e-19)
(0.0361232 0.0374856 -8.69624e-20)
(0.0573915 0.0346644 1.05458e-19)
(0.0815178 0.0317812 -6.18013e-19)
(0.110533 0.0286509 2.93381e-19)
(0.1383 0.0256786 1.81182e-19)
(0.18607 0.0244401 -1.20647e-19)
(-0.00464472 0.0103363 -9.7481e-20)
(-0.0127441 0.0266298 -1.67602e-19)
(-0.020398 0.0393436 1.60769e-19)
(-0.027248 0.0489599 1.05317e-19)
(-0.0331575 0.0558793 5.65863e-20)
(-0.0380062 0.0605026 2.00372e-19)
(-0.041681 0.0632183 -2.079e-19)
(-0.0440852 0.0643879 -1.91638e-19)
(-0.0451317 0.0643388 -1.25776e-19)
(-0.0447351 0.0633594 -2.95029e-19)
(-0.0428057 0.0616958 5.69631e-20)
(-0.039244 0.0595517 -2.32299e-20)
(-0.0339352 0.0570894 4.19552e-19)
(-0.0267465 0.0544328 1.72641e-19)
(-0.0175241 0.0516727 1.23998e-19)
(-0.00609186 0.0488704 -3.90407e-20)
(0.007749 0.0460637 -2.22935e-19)
(0.0242202 0.0432709 -1.80298e-19)
(0.0435678 0.0404954 -2.10672e-19)
(0.0660262 0.0377261 1.50753e-19)
(0.0920338 0.0349427 2.83842e-19)
(0.121113 0.0321373 3.17351e-19)
(0.156519 0.0291693 -2.99033e-19)
(0.18858 0.0260914 1.28745e-19)
(0.246934 0.0246568 1.73044e-19)
(-0.00504732 0.0105473 -2.56571e-19)
(-0.0136968 0.0271915 1.42835e-19)
(-0.0216025 0.0401845 -2.43617e-19)
(-0.0284409 0.0499984 2.99341e-19)
(-0.0340869 0.0570378 -2.86053e-19)
(-0.0384326 0.0617123 -8.56083e-20)
(-0.041377 0.0644207 -1.5945e-19)
(-0.0428323 0.0655357 8.96219e-20)
(-0.0427159 0.0653951 -1.53371e-19)
(-0.0409418 0.064297 1.6765e-19)
(-0.0374143 0.0624964 -2.19775e-19)
(-0.0320212 0.0602049 -1.62857e-19)
(-0.0246297 0.0575922 5.59772e-21)
(-0.0150825 0.0547901 -2.49531e-19)
(-0.00319561 0.0518966 5.35513e-21)
(0.0112423 0.0489814 -2.52012e-19)
(0.0284696 0.0460911 -1.5445e-20)
(0.04875 0.0432539 -2.74306e-19)
(0.0723764 0.0404848 9.57958e-20)
(0.0995951 0.0377814 4.16389e-19)
(0.131012 0.0351556 -4.00321e-19)
(0.165615 0.0325325 1.96477e-19)
(0.208435 0.0300427 2.15737e-19)
(0.244883 0.0269642 -1.03665e-19)
(0.315482 0.0259585 4.17562e-20)
(-0.00544797 0.0107041 1.32963e-19)
(-0.0146444 0.0276025 -3.75209e-20)
(-0.0227974 0.0407884 8.26043e-20)
(-0.0296102 0.050725 -2.40795e-19)
(-0.0349658 0.0578216 3.85753e-19)
(-0.0387659 0.0624963 2.51544e-20)
(-0.0409192 0.0651582 2.78676e-19)
(-0.0413447 0.0661899 -1.45353e-19)
(-0.0399616 0.0659391 9.84304e-20)
(-0.0366802 0.0647126 1.29428e-19)
(-0.031395 0.0627737 1.18572e-19)
(-0.0239771 0.0603413 3.74798e-19)
(-0.0142704 0.0575929 -9.48471e-20)
(-0.00208741 0.0546681 -9.52971e-20)
(0.0127915 0.0516735 -7.45298e-20)
(0.0306187 0.0486883 -6.47941e-21)
(0.0516767 0.0457699 -1.56552e-19)
(0.0762734 0.0429584 1.38316e-19)
(0.104751 0.0402838 -1.85239e-19)
(0.137344 0.0377491 7.5802e-20)
(0.17488 0.0354348 -1.07727e-19)
(0.21556 0.0330794 1.38441e-20)
(0.266783 0.0314548 -5.05141e-19)
(0.307592 0.0283971 5.38965e-20)
(0.391806 0.0286098 -1.76443e-21)
(-0.00584557 0.0108119 1.77203e-19)
(-0.0155813 0.0278721 -1.19606e-19)
(-0.023971 0.0411651 -8.43036e-20)
(-0.0307371 0.051148 -5.09618e-20)
(-0.0357667 0.0582365 -1.66787e-19)
(-0.0389684 0.062858 -2.81353e-19)
(-0.0402583 0.0654318 -9.17959e-20)
(-0.0395589 0.0663502 3.13939e-19)
(-0.0367882 0.06597 -9.80202e-20)
(-0.031849 0.0646063 -2.11699e-19)
(-0.0246209 0.0625298 -1.27785e-19)
(-0.0149536 0.0599674 -3.83268e-19)
(-0.00266132 0.0571045 -4.17048e-19)
(0.0124791 0.0540892 3.13047e-19)
(0.0307291 0.051038 6.43263e-20)
(0.0523865 0.0480414 5.14323e-20)
(0.0777807 0.0451697 5.36297e-19)
(0.107261 0.0424768 8.15072e-20)
(0.141215 0.0400121 5.13244e-19)
(0.179828 0.0377733 -6.14313e-19)
(0.22419 0.0359692 2.87093e-19)
(0.271453 0.0339513 -2.59427e-19)
(0.331857 0.0336343 4.06782e-19)
(0.376918 0.0305478 -6.11225e-19)
(0.475399 0.0328009 1.27146e-19)
(-0.0062395 0.0108756 -4.49369e-20)
(-0.0165022 0.02801 -9.55095e-20)
(-0.0251111 0.0413256 -8.80162e-20)
(-0.0318 0.0512777 2.9977e-20)
(-0.0364571 0.0582914 -4.72138e-20)
(-0.0389951 0.0628048 1.78135e-19)
(-0.039334 0.0652477 -6.37469e-20)
(-0.0373969 0.0660223 -1.34553e-19)
(-0.0330963 0.0654943 -5.51198e-20)
(-0.0263226 0.0639868 2.75826e-21)
(-0.0169353 0.0617782 3.52708e-19)
(-0.00475605 0.0591034 -3.09153e-19)
(0.0104364 0.0561563 4.4931e-19)
(0.0289073 0.0530952 -1.29901e-19)
(0.0509647 0.0500483 -2.25765e-19)
(0.0769542 0.0471192 1.86987e-19)
(0.10725 0.0443934 -2.04771e-19)
(0.142231 0.0419402 -3.45586e-19)
(0.182316 0.0398333 -1.28719e-19)
(0.227592 0.0380447 1.20774e-19)
(0.279403 0.0369941 1.92672e-19)
(0.333673 0.0353885 3.73729e-19)
(0.40359 0.0368182 2.16645e-20)
(0.45278 0.0336539 2.5886e-19)
(0.564979 0.0386244 -8.41484e-20)
(-0.00662948 0.0109004 -2.20133e-20)
(-0.017402 0.028026 2.08944e-19)
(-0.026204 0.0412814 2.15804e-19)
(-0.0327742 0.0511261 -9.67814e-20)
(-0.036999 0.0579979 6.79556e-20)
(-0.038792 0.0623477 -2.52711e-19)
(-0.0380741 0.0646173 5.02565e-20)
(-0.0347645 0.0652189 4.05577e-20)
(-0.0287652 0.0645273 -1.18271e-19)
(-0.019949 0.0628738 -3.25566e-20)
(-0.0081487 0.060545 -4.42024e-19)
(0.00684888 0.0577845 1.40547e-19)
(0.0253068 0.0547964 -2.12098e-20)
(0.0475376 0.0517508 -5.06071e-21)
(0.0738981 0.0487893 -2.03217e-20)
(0.104779 0.0460313 -3.89733e-21)
(0.14059 0.0435794 -1.77874e-20)
(0.181718 0.0415189 2.39873e-19)
(0.228578 0.0399521 -2.12773e-19)
(0.281099 0.0387965 1.93699e-19)
(0.340788 0.0387663 -2.85327e-19)
(0.402346 0.0376914 -1.37446e-19)
(0.481404 0.0411978 3.97311e-20)
(0.534624 0.0380049 -2.21748e-19)
(0.658407 0.0460574 -7.25537e-20)
(-0.00701538 0.010891 -2.09011e-19)
(-0.0182749 0.0279295 -2.63305e-20)
(-0.027234 0.0410443 -2.66618e-19)
(-0.033631 0.0507061 -2.14344e-19)
(-0.0373477 0.0573697 2.8401e-19)
(-0.0382956 0.0615019 1.94551e-19)
(-0.0363926 0.0635574 -8.59143e-20)
(-0.0315492 0.0639598 -7.69349e-20)
(-0.0236517 0.0630933 -5.72875e-20)
(-0.012548 0.0612983 4.94877e-19)
(0.00196232 0.0588706 1.90281e-19)
(0.020134 0.0560639 2.68521e-19)
(0.0422775 0.0530942 -1.48895e-20)
(0.0687553 0.0501454 5.19944e-20)
(0.0999708 0.0473753 1.44071e-19)
(0.13635 0.0449206 -3.37816e-19)
(0.178314 0.0429022 5.33164e-19)
(0.226221 0.0414198 5.62253e-20)
(0.280421 0.0406059 -1.73341e-19)
(0.340627 0.0402932 -2.61379e-19)
(0.408299 0.0415312 -1.41196e-19)
(0.477184 0.041187 3.14607e-19)
(0.564114 0.046876 -1.04496e-20)
(0.621244 0.0438607 1.6491e-19)
(0.752774 0.0549417 1.98209e-19)
(-0.00739706 0.0108513 1.59428e-19)
(-0.0191145 0.027729 1.66967e-20)
(-0.0281831 0.0406256 -3.59963e-20)
(-0.0343371 0.0500312 3.78342e-20)
(-0.0374511 0.0564229 -2.70113e-19)
(-0.0374317 0.0602859 3.59776e-19)
(-0.0341891 0.0620903 -8.8117e-22)
(-0.0276201 0.0622722 2.93238e-19)
(-0.0175884 0.0612267 1.25436e-20)
(-0.00391043 0.0593042 -1.00392e-19)
(0.0136547 0.0568113 1.58037e-19)
(0.0354092 0.0540137 -5.30656e-19)
(0.0617143 0.0511417 -3.27023e-19)
(0.0929802 0.0483954 -1.62854e-19)
(0.129647 0.0459504 -7.02099e-20)
(0.172154 0.0439621 6.33472e-21)
(0.220894 0.0425684 -3.45807e-19)
(0.27614 0.0418782 1.31245e-19)
(0.338083 0.0420486 5.04261e-19)
(0.406161 0.0428105 1.38598e-19)
(0.481469 0.0454911 3.35147e-19)
(0.557324 0.0461647 -3.31347e-19)
(0.64993 0.0538494 -7.72046e-20)
(0.710655 0.0513452 -1.31433e-19)
(0.84468 0.0649668 -6.94318e-19)
(-0.0077741 0.0107847 -1.49417e-19)
(-0.019913 0.0274315 7.57974e-20)
(-0.0290302 0.0400357 1.34843e-19)
(-0.0348537 0.0491154 4.69085e-19)
(-0.0372489 0.0551749 1.76667e-19)
(-0.0361143 0.0587218 -3.92414e-19)
(-0.0313479 0.0602438 -9.90233e-20)
(-0.0228264 0.0601916 -5.20076e-20)
(-0.0103843 0.0589725 -1.71228e-19)
(0.00620085 0.056949 -5.61108e-20)
(0.0272167 0.0544403 -1.15994e-19)
(0.0530164 0.0517268 4.23452e-19)
(0.0840109 0.0490552 5.05421e-19)
(0.120649 0.0466441 2.54259e-19)
(0.163386 0.044688 -1.29821e-19)
(0.212634 0.0433594 -9.09346e-20)
(0.268702 0.0428089 1.99909e-19)
(0.331692 0.0431449 -4.50821e-20)
(0.401514 0.0445292 -3.30015e-21)
(0.477273 0.0466008 1.09468e-19)
(0.559338 0.050784 -1.56852e-19)
(0.641225 0.0527935 -2.72151e-19)
(0.736567 0.0620072 -1.81948e-19)
(0.800148 0.0603672 2.3016e-19)
(0.930682 0.0756736 7.30071e-19)
(-0.00814555 0.0106935 1.19245e-19)
(-0.0206606 0.0270427 4.0574e-19)
(-0.0297501 0.0392839 1.62334e-19)
(-0.0351358 0.0479724 -1.43837e-19)
(-0.0366721 0.0536446 2.00769e-19)
(-0.0342458 0.056835 2.21174e-19)
(-0.0277378 0.0580515 2.48019e-19)
(-0.0169983 0.0577614 -1.39764e-20)
(-0.00182553 0.0563867 1.95107e-19)
(0.0180484 0.054304 -6.00871e-19)
(0.0429621 0.0518481 3.39994e-19)
(0.0733196 0.0493164 -1.80722e-19)
(0.109573 0.0469745 -4.56732e-19)
(0.15219 0.0450602 -3.31521e-19)
(0.201603 0.043786 5.40639e-19)
(0.25814 0.0433367 -1.8533e-19)
(0.321939 0.0438655 -9.13014e-20)
(0.392828 0.0454651 7.03236e-20)
(0.470297 0.0482656 -3.55462e-19)
(0.553045 0.0518485 2.88705e-19)
(0.640429 0.0574676 -4.65921e-20)
(0.726701 0.0610551 3.38312e-19)
(0.821433 0.0711316 3.92079e-19)
(0.886563 0.070605 -1.34372e-19)
(1.00778 0.0864967 -2.67215e-19)
(-0.0085096 0.010579 -6.21779e-20)
(-0.021345 0.0265661 -2.3016e-19)
(-0.0303135 0.0383781 6.07121e-21)
(-0.0351318 0.0466155 -1.16292e-19)
(-0.0356422 0.0518523 -3.42802e-19)
(-0.0317163 0.054654 -1.77366e-19)
(-0.0232123 0.0555521 9.76055e-20)
(-0.00994776 0.0550331 -3.04456e-19)
(0.00832212 0.0535362 2.40497e-20)
(0.0319153 0.0514551 1.49882e-19)
(0.0612221 0.0491427 -4.30989e-19)
(0.096691 0.046916 -1.4184e-19)
(0.138797 0.0450608 3.6581e-19)
(0.187991 0.0438335 2.47304e-19)
(0.244626 0.0434597 -3.20051e-19)
(0.308865 0.0441268 3.43726e-19)
(0.380565 0.0459727 1.43167e-19)
(0.459158 0.0490532 -3.59903e-20)
(0.54358 0.0534162 -3.11242e-20)
(0.632044 0.0586267 -3.06809e-19)
(0.722799 0.0655027 3.38546e-20)
(0.811094 0.0707235 -5.77347e-20)
(0.901894 0.0808991 -3.07002e-19)
(0.966743 0.0815651 -2.26356e-19)
(1.07379 0.0968444 -2.1078e-19)
(-0.00886338 0.0104412 -3.91178e-20)
(-0.0219502 0.0260026 -5.11768e-19)
(-0.0306866 0.0373254 -3.16358e-19)
(-0.0347831 0.0450573 -4.03549e-19)
(-0.0340715 0.0498189 3.56851e-19)
(-0.0284039 0.0522104 2.87605e-20)
(-0.0176108 0.05279 2.58805e-19)
(-0.00147073 0.0520663 -2.36768e-19)
(0.020309 0.0504989 3.93984e-19)
(0.048098 0.0485017 1.47686e-19)
(0.0823337 0.0464484 1.20352e-20)
(0.123493 0.0446771 -2.31737e-20)
(0.172041 0.0434935 -8.18327e-20)
(0.228359 0.0431684 -7.12173e-20)
(0.292643 0.043931 7.61178e-20)
(0.364783 0.0459544 1.07726e-19)
(0.444234 0.0493355 -6.84858e-19)
(0.529901 0.054064 4.28324e-20)
(0.620064 0.0600527 -1.13048e-19)
(0.71239 0.0668698 -1.04507e-19)
(0.804161 0.0747359 5.25531e-20)
(0.891596 0.0813952 -3.3992e-19)
(0.975579 0.0909044 1.54315e-19)
(1.03804 0.092695 1.96005e-19)
(1.12756 0.106191 -4.45748e-19)
(-0.00920325 0.0102789 9.14285e-20)
(-0.0224578 0.0253533 3.70437e-19)
(-0.0308284 0.0361299 3.19105e-20)
(-0.0340239 0.0433097 5.86462e-19)
(-0.0318627 0.0475664 -3.72257e-19)
(-0.0241756 0.0495386 3.64888e-19)
(-0.0107599 0.0498145 -3.27245e-19)
(0.00864954 0.0489284 1.28945e-19)
(0.0343958 0.0473634 -1.66473e-19)
(0.0668971 0.0455564 2.19737e-19)
(0.106624 0.0439041 3.64402e-19)
(0.154054 0.042766 1.88753e-19)
(0.209594 0.0424641 7.56223e-20)
(0.273481 0.0432748 8.26175e-20)
(0.345651 0.0454146 -6.27593e-20)
(0.425601 0.0490172 -5.0501e-20)
(0.512251 0.0541049 5.58763e-19)
(0.60387 0.0605658 1.83733e-19)
(0.698048 0.0681359 5.08458e-19)
(0.791903 0.0763719 1.32415e-20)
(0.882101 0.0848954 -3.20151e-19)
(0.965626 0.0925527 3.98766e-19)
(1.04067 0.100725 5.02507e-19)
(1.09864 0.103518 6.51446e-20)
(1.1689 0.114131 4.38429e-19)
(-0.00952344 0.0100904 -2.59466e-19)
(-0.0228463 0.0246165 1.43841e-19)
(-0.030693 0.0347935 3.16156e-19)
(-0.0327799 0.0413841 -1.24366e-19)
(-0.0289096 0.045118 -3.70381e-19)
(-0.0188881 0.0466762 -2.73392e-20)
(-0.00247614 0.0466805 2.0023e-20)
(0.0206381 0.0456945 3.59156e-20)
(0.0508462 0.0442279 -2.30367e-19)
(0.0886049 0.0427432 -9.75732e-20)
(0.134394 0.0416608 -3.40347e-19)
(0.188647 0.0413591 -8.39359e-21)
(0.251644 0.0421685 -9.55657e-20)
(0.323381 0.0443559 -2.89643e-20)
(0.403414 0.0481005 2.53114e-19)
(0.490717 0.053464 -3.70676e-19)
(0.583561 0.0603547 1.5604e-19)
(0.679523 0.0685211 -2.46425e-19)
(0.775547 0.0775035 -3.67632e-19)
(0.86832 0.0868102 6.80017e-20)
(0.954347 0.0956123 6.83301e-19)
(1.03119 0.103642 -3.46152e-19)
(1.0961 0.110025 1.50845e-20)
(1.14766 0.113714 3.00324e-19)
(1.19844 0.120304 1.68604e-19)
(-0.00981666 0.0098728 1.22184e-19)
(-0.0230884 0.0237875 -1.73607e-19)
(-0.0302297 0.0333187 -3.68054e-19)
(-0.0309705 0.0392923 -1.95561e-19)
(-0.0250975 0.0424981 2.13807e-19)
(-0.01239 0.0436635 7.2801e-20)
(0.00743088 0.0434479 4.25426e-19)
(0.0347227 0.0424468 1.7255e-19)
(0.0699182 0.0411997 1.09038e-19)
(0.113492 0.040196 5.0844e-20)
(0.165896 0.0398781 3.51907e-19)
(0.227456 0.040637 1.59072e-19)
(0.298238 0.0427976 -1.31605e-19)
(0.377879 0.0465945 1.8819e-19)
(0.465428 0.0521373 -1.08369e-19)
(0.559212 0.0593754 1.37477e-19)
(0.656789 0.0680638 -1.33314e-19)
(0.755057 0.0777807 -2.90233e-19)
(0.850473 0.0878773 4.21668e-19)
(0.939541 0.0977882 -4.4061e-19)
(1.01905 0.106462 1.24622e-19)
(1.0871 0.11416 -1.43889e-19)
(1.1416 0.118654 -1.08683e-19)
(1.18506 0.122994 -8.96619e-19)
(1.21761 0.124174 1.43325e-19)
(-0.0100736 0.00962184 2.49366e-20)
(-0.0231534 0.0228619 1.24466e-19)
(-0.029381 0.031707 4.12989e-19)
(-0.0285077 0.0370458 -9.74363e-20)
(-0.020305 0.0397325 -4.24416e-20)
(-0.0045235 0.0405445 7.89922e-20)
(0.0191546 0.0401816 7.04143e-20)
(0.0511274 0.0392745 -2.77097e-19)
(0.091853 0.0383939 -1.28679e-19)
(0.141792 0.0380557 -3.97062e-19)
(0.201314 0.0387196 -2.99677e-19)
(0.270556 0.0407769 -2.13598e-19)
(0.349256 0.0445264 1.90639e-19)
(0.43657 0.0501387 -2.78258e-19)
(0.530911 0.057614 -1.33849e-19)
(0.629878 0.0667479 -5.85785e-20)
(0.730314 0.077109 -4.21803e-20)
(0.828566 0.0880919 8.68963e-19)
(0.920858 0.0988933 5.53088e-20)
(1.00385 0.108888 -7.63973e-20)
(1.07499 0.11702 -4.30611e-19)
(1.13307 0.12375 1.3994e-19)
(1.17753 0.126626 1.4601e-20)
(1.21156 0.130723 5.1528e-19)
(1.22909 0.125394 5.77606e-20)
(-0.0102833 0.00933357 1.97513e-19)
(-0.0230058 0.0218344 -1.89985e-19)
(-0.0280838 0.0299592 -2.88554e-19)
(-0.0252975 0.0346572 2.89781e-19)
(-0.0144046 0.0368495 -6.46693e-20)
(0.00487249 0.037367 -5.60342e-20)
(0.0328868 0.0369521 4.89046e-20)
(0.070065 0.036273 -6.99384e-20)
(0.116864 0.0359321 1.75381e-19)
(0.173686 0.036468 1.13697e-19)
(0.240741 0.0383477 2.94431e-19)
(0.31788 0.0419446 -7.86615e-21)
(0.404388 0.0475018 2.41082e-19)
(0.498809 0.0550871 -1.62299e-20)
(0.598823 0.0645472 2.56963e-19)
(0.701279 0.0754862 7.46872e-20)
(0.802403 0.0872701 -4.82393e-19)
(0.89822 0.099124 -2.34961e-19)
(0.985051 0.110149 -5.70868e-20)
(1.06009 0.11972 1.54972e-19)
(1.12168 0.126918 -7.35865e-20)
(1.16952 0.132274 -2.6136e-19)
(1.20458 0.133854 3.43232e-20)
(1.22871 0.136081 -2.41681e-19)
(1.24242 0.130147 -1.17139e-19)
(-0.010433 0.00900372 1.21019e-19)
(-0.0226061 0.0206997 1.29232e-19)
(-0.0262695 0.0280772 2.36815e-19)
(-0.0212404 0.0321407 -1.72488e-19)
(-0.00726492 0.0338806 1.26308e-20)
(0.0159597 0.0341831 3.4546e-19)
(0.0488126 0.0338356 -9.89906e-20)
(0.091729 0.0335442 -3.30327e-19)
(0.145127 0.0339408 -1.95667e-19)
(0.209284 0.0355791 2.61619e-19)
(0.284163 0.0389177 -5.44843e-19)
(0.369206 0.0442851 2.17698e-21)
(0.46312 0.0518314 -4.66138e-20)
(0.563721 0.0614765 3.45602e-19)
(0.667912 0.0728723 -1.87765e-19)
(0.771855 0.0854063 2.57991e-19)
(0.871359 0.0982506 2.60717e-19)
(0.962441 0.110506 -4.60137e-19)
(1.04188 0.121258 -1.91887e-19)
(1.1077 0.129961 -1.59343e-19)
(1.15929 0.135911 2.43243e-19)
(1.19737 0.139755 3.85386e-19)
(1.22373 0.13999 1.79504e-19)
(1.24042 0.140645 -1.59699e-19)
(1.24983 0.134321 -2.88418e-19)
(-0.0105083 0.00862784 -2.85985e-20)
(-0.0219108 0.0194533 1.2105e-19)
(-0.0238646 0.0260644 -2.40512e-19)
(-0.0162325 0.0295134 -3.69281e-19)
(0.00124757 0.0308609 -5.47196e-19)
(0.0288966 0.0310502 9.32559e-20)
(0.0671048 0.0309141 -1.09936e-19)
(0.116285 0.0311953 1.61108e-19)
(0.176763 0.0325494 5.98773e-20)
(0.248611 0.0355323 1.15542e-19)
(0.331436 0.0405707 1.28324e-19)
(0.424143 0.0479131 -7.08116e-20)
(0.524735 0.0575722 -1.02387e-19)
(0.630235 0.0692743 -2.29894e-19)
(0.736792 0.082444 7.01414e-20)
(0.840045 0.0962503 -2.74191e-19)
(0.935675 0.109709 1.01153e-19)
(1.02005 0.121869 6.51492e-20)
(1.09072 0.131892 -2.71262e-19)
(1.14673 0.139382 -2.92433e-19)
(1.18855 0.143898 -1.56529e-19)
(1.21775 0.14621 8.91073e-21)
(1.2367 0.145189 4.89159e-20)
(1.24751 0.144549 -1.57621e-19)
(1.25314 0.137831 1.19099e-19)