/*--------------------------------*- C++ -*----------------------------------*\
  =========                 |
  \\      /  F ield         | OpenFOAM: The Open Source CFD Toolbox
   \\    /   O peration     | Website:  https://openfoam.org
    \\  /    A nd           | Version:  7
     \\/     M anipulation  |
\*---------------------------------------------------------------------------*/
FoamFile
{
    version     2.0;
    format      ascii;
    class       volScalarField;
    location    "20";
    object      p;
}
// * * * * * * * * * * * * * * * * * * * * * * * * * * * * * * * * * * * * * //

dimensions      [1 -1 -2 0 0 0 0];

internalField   nonuniform List<scalar> 
4032
(
1
1
1
1
1
1
1
1
1
1
1
3.0944
9.68325
10.6066
10.7595
10.9551
11.1263
11.2874
11.4367
11.5744
11.6989
11.8016
11.8823
11.9409
1
1
1
1
1
1
1
1
1
1
1
2.98714
9.55862
10.589
10.7467
10.9393
11.1058
11.2608
11.4032
11.5331
11.6502
11.7464
11.8219
11.8784
1
1
1
1
1
1
1
1
1
1
1
2.73842
9.35822
10.5597
10.7122
10.9038
11.0672
11.2175
11.3527
11.4725
11.5786
11.6657
11.733
11.7886
1
1
1
1
1
1
1
1
1
1
1
2.37257
9.02117
10.5215
10.6616
10.8519
11.0094
11.1532
11.2806
11.3911
11.4852
11.5573
11.6031
11.6388
1
1
1
1
1
1
1
1
1
1
1
1.93488
8.52841
10.5148
10.6112
10.7891
10.9329
11.0656
11.1777
11.2661
11.3305
11.3795
11.4056
11.4526
1
1
1
1
1
1
1
1
1
1
1
1.48944
7.87036
10.4701
10.5156
10.6961
10.8292
10.9476
11.042
11.1135
11.1624
11.1995
11.1944
11.1427
1
1
1
1
1
1
1
1
1
1
1
1.07265
7.03789
10.4279
10.4337
10.5727
10.6762
10.7802
10.8556
10.8974
10.8948
10.8344
10.7331
10.6678
1
1
1
1
1
1
1
1
1
1
1
1.00121
5.92484
10.0671
10.2064
10.3637
10.4785
10.5606
10.607
10.6128
10.5582
10.4568
10.2901
10.2461
1
1
1
1
1
1
1
1
1
1
1
0.999997
4.65334
9.70174
10.0925
10.2146
10.2973
10.3379
10.3431
10.2986
10.1592
9.88041
9.12096
7.08167
1
1
1
1
1
1
1
1
1
1
1
0.999999
3.35082
9.12792
9.95827
10.0795
10.1336
10.144
10.0926
9.98304
9.74764
9.265
8.45979
6.39943
1
1
1
1
1
1
1
1
1
1
1
1
2.03783
8.24434
9.94853
9.98342
10.0003
9.95567
9.84999
9.66736
9.37115
8.80723
7.98657
6.07419
1
1
1
1
1
1
1
1
1
1
1
1
1.12514
6.97336
9.95818
9.83716
9.80757
9.74041
9.61398
9.3936
9.0525
8.4917
7.63612
6.15358
1
1
1
1
1
1
1
1
1
1
1
1
1.00129
5.24745
9.43445
9.62677
9.62679
9.54638
9.4048
9.16752
8.80583
8.27269
7.45263
6.32264
1
1
1
1
1
1
1
1
1
1
1
1
0.999982
3.24644
8.77763
9.52176
9.51456
9.4384
9.27272
9.01247
8.64177
8.12885
7.39831
6.55671
1
1
1
1
1
1
1
1
1
1
1
1
0.999996
1.58637
7.85895
9.64217
9.44696
9.31884
9.13466
8.8842
8.5253
8.04693
7.44271
6.84435
1
1
1
1
1
1
1
1
1
1
1
1
0.999999
1.03488
6.17369
9.27202
9.27665
9.21057
9.05239
8.80828
8.46855
8.05301
7.57694
7.12662
1
1
1
1
1
1
1
1
1
1
1
1
1
0.999944
3.88723
8.7921
9.27389
9.1934
9.03373
8.80158
8.50129
8.14992
7.75814
7.38573
1
1
1
1
1
1
1
1
1
1
1
1
1
0.999981
1.8854
8.04876
9.41279
9.21427
9.0435
8.82213
8.55987
8.2649
7.93364
7.61081
1
1
1
1
1
1
1
1
1
1
1
1
1
0.999997
1.07237
6.48262
9.31019
9.21395
9.05188
8.89436
8.67148
8.41322
8.1199
7.83352
1
1
1
1
1
1
1
1
1
1
1
1
1
1
1.00023
4.31027
8.94086
9.27727
9.16667
9.01383
8.80137
8.56663
8.29928
8.03765
1
1
1
1
1
1
1
1
1
1
1
1
1
1
0.999997
2.25292
8.45414
9.69406
9.38291
9.15942
8.9435
8.71825
8.46689
8.22797
1
1
1
1
1
1
1
1
1
1
1
1
1
1
0.999999
1.13509
7.3063
9.77248
9.43624
9.25995
9.07486
8.86476
8.63178
8.41097
1
1
1
1
1
1
1
1
1
1
1
1
1
1
1
1.00134
5.70356
9.69283
9.54877
9.40461
9.21491
9.00381
8.78219
8.57409
1
1
1
1
1
1
1
1
1
1
1
1
1
1
1
0.999989
4.12111
9.5054
9.76292
9.56466
9.35936
9.14397
8.93148
8.73084
1
1
1
1
1
1
1
1
1
1
1
1
1
1
1
0.999997
2.78402
8.9745
9.88281
9.62091
9.44444
9.25305
9.06237
8.87167
1
1
1
1
1
1
1
1
1
1
1
1
1
1
1
1
1.75599
8.31044
10.1844
9.79819
9.60914
9.4134
9.2209
9.02307
1
1
1
1
1
1
1
1
1
1
1
1
1
1
1
1
1.13218
7.488
10.2528
9.85129
9.67009
9.49224
9.31427
9.12608
1
1
1
1
1
1
1
1
1
1
1
1
1
1
1
1
1.00262
6.51058
10.2102
9.88909
9.73105
9.5671
9.39746
9.21728
1
1
1
1
1
1
1
1
1
1
1
1
1
1
1
1
1
5.57168
10.0716
9.94759
9.79063
9.63698
9.4728
9.29983
1
1
1
1
1
1
1
1
1
1
1
1
1
1
1
1
1
4.74137
9.87215
10.0251
9.84425
9.7047
9.54289
9.37418
1
1
1
1
1
1
1
1
1
1
1
1
1
1
1
1
1
4.01443
9.64423
10.0709
9.86558
9.74108
9.58598
9.42863
1
1
1
1
1
1
1
1
1
1
1
1
1
1
1
1
1
3.34964
9.42108
10.1582
9.92746
9.80384
9.64904
9.49386
1
1
1
1
1
1
1
1
1
1
1
1
1
1
1
1
1
2.80365
9.17089
10.239
9.97485
9.84313
9.68832
9.53436
1
1
1
1
1
1
1
1
1
1
1
1
1
1
1
1
1
2.39348
8.90524
10.3026
10.0194
9.88206
9.72647
9.5718
1
1
1
1
1
1
1
1
1
1
1
1
1
1
1
1
1
2.09124
8.63701
10.3469
10.0542
9.91687
9.76129
9.60668
1
1
1
1
1
1
1
1
1
1
1
1
1
1
1
1
1
1.8261
8.42602
10.3743
10.0789
9.94227
9.78776
9.63453
1
1
1
1
1
1
1
1
1
1
1
1
1
1
1
1
1
1.66513
8.23182
10.3822
10.0939
9.95951
9.80679
9.65533
1
1
1
1
1
1
1
1
1
1
1
1
1
1
1
1
1
1.57483
8.07841
10.3742
10.0999
9.96941
9.81924
9.66994
1
1
1
1
1
1
1
1
1
1
1
1
1
1
1
1
1
1.51471
7.96925
10.3682
10.1081
9.97943
9.83016
9.6815
1
1
1
1
1
1
1
1
1
1
1
1
1
1
1
1
1
1.48908
7.90988
10.3518
10.1049
9.98201
9.83475
9.68714
2.01003
2.29285
2.8692
3.34586
3.56192
3.66494
3.77066
3.87982
3.97031
4.01357
4.04455
4.05314
4.07656
4.09999
4.1185
4.13518
4.15986
4.19689
4.24652
4.30395
4.36683
4.43523
4.5096
4.58318
4.64634
4.69639
4.73089
4.75292
4.76976
4.78859
4.81426
4.84674
4.88267
4.91768
4.94852
4.97323
4.9906
5.00027
4.99961
4.98576
4.95893
4.92419
4.88759
4.85459
4.82741
4.80519
4.78552
4.7645
4.73968
4.71132
4.68098
4.64854
4.61052
4.56341
4.50757
4.44707
4.38791
4.33458
4.28837
4.24734
4.20767
4.16589
4.12238
4.08061
4.04278
4.00897
3.97405
3.9315
3.88253
3.83377
3.78783
3.74687
3.71134
3.68085
3.65378
3.63017
3.61108
3.5993
3.59407
3.59887
3.60799
3.61915
3.6369
3.6665
3.71313
3.78215
3.87189
3.96306
4.03697
4.09116
4.13315
4.16764
4.19661
4.21672
4.22995
4.24516
3.39551
3.63571
3.58927
3.59068
3.686
3.77858
3.87921
3.94649
3.97876
3.99424
4.00358
4.00644
4.03062
4.07051
4.12611
4.1839
4.22718
4.26123
4.29722
4.3442
4.40139
4.46026
4.5142
4.56229
4.60939
4.65814
4.70531
4.74492
4.77436
4.7948
4.81125
4.83091
4.85705
4.88755
4.91637
4.93664
4.94424
4.94147
4.93445
4.92645
4.91578
4.8976
4.87156
4.84032
4.80975
4.78467
4.76567
4.74919
4.7293
4.6994
4.65958
4.61577
4.57307
4.53345
4.49205
4.4431
4.38804
4.33319
4.28344
4.24109
4.20521
4.17169
4.13541
4.09575
4.05597
4.01801
3.98106
3.94205
3.89719
3.85008
3.80355
3.76025
3.72183
3.68786
3.65907
3.63553
3.6162
3.60305
3.5965
3.59952
3.60885
3.61958
3.63604
3.66351
3.70708
3.77196
3.8576
3.945
4.01561
4.06607
4.10298
4.1325
4.15861
4.17987
4.19179
4.19868
4.12681
4.23011
3.82897
3.63
3.67435
3.77566
3.86429
3.88073
3.87449
3.88891
3.94961
4.02244
4.07015
4.11712
4.17976
4.25049
4.3046
4.32353
4.32691
4.34322
4.38635
4.4538
4.52237
4.56882
4.60081
4.62856
4.66513
4.71384
4.76713
4.81397
4.84637
4.86673
4.88454
4.90695
4.93466
4.96179
4.97788
4.97544
4.9568
4.93245
4.91131
4.89374
4.87702
4.85578
4.82734
4.7969
4.77007
4.748
4.73068
4.71336
4.68192
4.63364
4.57886
4.52609
4.47955
4.43692
4.39024
4.33884
4.28707
4.23826
4.19471
4.15873
4.12897
4.09783
4.0621
4.02452
3.9857
3.9447
3.90356
3.86199
3.8217
3.78319
3.74555
3.71027
3.67956
3.65437
3.63576
3.62466
3.62059
3.62597
3.6366
3.64952
3.66814
3.69795
3.74338
3.80793
3.89201
3.98289
4.05639
4.1064
4.13837
4.16003
4.17695
4.19717
4.21729
4.2175
4.67208
4.81339
4.42336
4.12204
4.14492
4.09744
3.98859
3.92904
3.91443
3.90689
3.96767
4.0885
4.16455
4.17779
4.18771
4.21089
4.26473
4.31965
4.34674
4.35678
4.37358
4.41286
4.47698
4.55015
4.60986
4.64913
4.67537
4.70256
4.73948
4.78416
4.8255
4.85317
4.86755
4.87697
4.88847
4.90493
4.92271
4.93077
4.92139
4.89725
4.87033
4.85018
4.83944
4.83288
4.81773
4.78564
4.74549
4.70814
4.68024
4.66304
4.64168
4.59945
4.55065
4.49651
4.44716
4.40707
4.36706
4.32248
4.27481
4.22615
4.17902
4.13835
4.10483
4.07341
4.03917
4.00282
3.96404
3.92218
3.87832
3.8348
3.79432
3.75759
3.72445
3.69439
3.66645
3.64009
3.62111
3.60982
3.60498
3.60841
3.61844
3.63279
3.65174
3.68229
3.72636
3.78654
3.86537
3.95594
4.03825
4.09941
4.13403
4.1508
4.16069
4.17444
4.19827
4.21909
5.34147
5.35888
4.98078
4.60251
4.51099
4.42841
4.26897
4.17633
4.1699
4.13668
4.08283
4.13039
4.19855
4.21751
4.20987
4.23043
4.27018
4.34087
4.40718
4.4412
4.4629
4.48704
4.52623
4.5812
4.63712
4.68111
4.70796
4.72607
4.74898
4.78172
4.81946
4.85227
4.87288
4.8836
4.88915
4.89207
4.8948
4.89935
4.90095
4.89495
4.88576
4.87499
4.8593
4.83776
4.81526
4.78779
4.75844
4.73852
4.71679
4.68092
4.64092
4.59635
4.55391
4.51473
4.47246
4.4244
4.37267
4.31973
4.27087
4.23032
4.19634
4.16436
4.12953
4.09103
4.04935
4.00595
3.96377
3.92361
3.88461
3.84567
3.80474
3.7641
3.72768
3.69735
3.67199
3.65007
3.63254
3.61988
3.61609
3.61935
3.63043
3.64925
3.66929
3.69559
3.73363
3.78622
3.85156
3.92931
4.00948
4.08
4.12658
4.14437
4.1514
4.15995
4.17029
4.18319
5.93064
5.85726
5.43765
4.99851
4.82574
4.73099
4.57905
4.47225
4.47632
4.46533
4.38125
4.33699
4.35761
4.35553
4.33008
4.30418
4.31863
4.37738
4.44319
4.46433
4.47099
4.48433
4.51606
4.5717
4.63253
4.6691
4.69036
4.70524
4.7242
4.75576
4.80056
4.8429
4.86735
4.8745
4.87471
4.87446
4.88186
4.89974
4.91556
4.91129
4.88939
4.85743
4.823
4.80011
4.79135
4.79199
4.77612
4.74315
4.702
4.65686
4.61948
4.58749
4.55374
4.5135
4.46329
4.40505
4.34826
4.30288
4.2684
4.23701
4.2028
4.16388
4.11912
4.07017
4.02219
3.98006
3.94461
3.91294
3.88172
3.8456
3.80117
3.75456
3.7168
3.68968
3.66896
3.65417
3.64237
3.63246
3.62912
3.63126
3.6423
3.66631
3.68988
3.7214
3.76727
3.81446
3.86315
3.92159
3.98805
4.05601
4.11894
4.16081
4.17533
4.18089
4.18304
4.1841
6.42387
6.27002
5.82211
5.38639
5.16003
5.0421
4.9021
4.78946
4.77926
4.74895
4.65491
4.57811
4.56725
4.55232
4.50654
4.44735
4.44321
4.48783
4.53502
4.54205
4.52047
4.51493
4.54025
4.59008
4.63765
4.65353
4.66504
4.67744
4.69396
4.72344
4.77054
4.79871
4.80342
4.79776
4.79312
4.79856
4.81878
4.84251
4.84343
4.82613
4.79924
4.77194
4.75275
4.74645
4.7498
4.73661
4.7061
4.66633
4.62631
4.59144
4.56226
4.53098
4.49149
4.44203
4.38726
4.33645
4.29711
4.26713
4.23841
4.20459
4.16341
4.11593
4.06738
4.0227
3.98422
3.95337
3.92698
3.89923
3.86444
3.81641
3.76217
3.71704
3.6907
3.67539
3.6643
3.65651
3.64956
3.64147
3.634
3.63451
3.64835
3.67868
3.71555
3.7606
3.80401
3.83268
3.86206
3.89891
3.94742
4.00845
4.0792
4.14286
4.1762
4.18074
4.17986
4.18212
6.80315
6.58473
6.14012
5.74263
5.51192
5.36842
5.21677
5.09975
5.06377
5.00334
4.88467
4.77258
4.73041
4.71088
4.65674
4.58288
4.55586
4.57564
4.59907
4.59151
4.56093
4.55138
4.56656
4.60045
4.62867
4.6364
4.64122
4.65008
4.66257
4.68618
4.72311
4.73848
4.74174
4.74321
4.75045
4.76814
4.79428
4.79795
4.7855
4.7641
4.7471
4.73905
4.74424
4.75229
4.7317
4.69573
4.65189
4.61541
4.59132
4.57156
4.54069
4.50056
4.45029
4.39287
4.34675
4.31647
4.28961
4.25772
4.22151
4.17979
4.13133
4.0828
4.04449
4.01406
3.98564
3.95607
3.92563
3.88978
3.84108
3.78458
3.73862
3.71044
3.69421
3.68409
3.67747
3.67097
3.66203
3.64991
3.64614
3.65589
3.68167
3.72216
3.7661
3.80021
3.82059
3.84504
3.87335
3.90306
3.94109
3.99136
4.05007
4.11008
4.15862
4.19244
4.20942
4.21888
7.10532
6.84792
6.42808
6.07642
5.86242
5.70363
5.53862
5.42062
5.35466
5.25457
5.10284
4.96721
4.90763
4.87825
4.81885
4.73021
4.66755
4.66099
4.67251
4.65694
4.62568
4.60592
4.60746
4.62598
4.64374
4.64588
4.64501
4.64894
4.65776
4.67708
4.70687
4.72034
4.72395
4.72807
4.73924
4.75895
4.77362
4.76722
4.75099
4.73759
4.73456
4.74347
4.75646
4.7397
4.70146
4.65774
4.62367
4.6026
4.59349
4.57301
4.53658
4.48857
4.43102
4.38455
4.35827
4.33846
4.30874
4.26912
4.22336
4.17257
4.12444
4.091
4.06651
4.04244
4.01268
3.97725
3.93306
3.87904
3.82152
3.78266
3.76299
3.74734
3.73067
3.71771
3.70549
3.68895
3.67698
3.67694
3.69091
3.71896
3.7573
3.79231
3.81306
3.82222
3.84071
3.87203
3.90862
3.94063
3.96272
3.98579
4.01757
4.05875
4.10983
4.16835
4.20897
4.21565
7.35175
7.07409
6.68844
6.38805
6.19885
6.02928
5.85323
5.73847
5.65404
5.51969
5.33624
5.18331
5.11619
5.0734
5.00269
4.89718
4.79884
4.76538
4.76656
4.75029
4.71307
4.67763
4.66331
4.66767
4.67628
4.66976
4.65916
4.65475
4.65717
4.66959
4.69117
4.70143
4.70151
4.69876
4.70707
4.72325
4.73215
4.72524
4.71114
4.70631
4.71264
4.72879
4.72688
4.69827
4.65377
4.61648
4.59724
4.5912
4.58101
4.5517
4.50943
4.45517
4.41386
4.38923
4.36965
4.34123
4.30342
4.25694
4.20779
4.16538
4.13478
4.11078
4.08583
4.0557
4.01915
3.97153
3.91339
3.85609
3.82214
3.80565
3.79498
3.78159
3.7658
3.74187
3.71614
3.70268
3.70305
3.71857
3.75281
3.79672
3.82576
3.83956
3.83933
3.84522
3.86747
3.9033
3.93959
3.95062
3.9556
3.96142
3.97952
4.00691
4.05325
4.11585
4.16297
4.17231
7.58187
7.28963
6.93073
6.67162
6.49607
6.30976
6.12828
6.02309
5.93333
5.78225
5.57807
5.41958
5.35154
5.29725
5.20613
5.07388
4.94734
4.89748
4.88311
4.85906
4.81316
4.75563
4.72624
4.7192
4.71578
4.697
4.67352
4.65864
4.6513
4.65344
4.66329
4.66605
4.66151
4.65412
4.65673
4.66906
4.68105
4.67953
4.66602
4.66048
4.66827
4.67817
4.66658
4.63634
4.59706
4.57425
4.56606
4.56375
4.54014
4.50274
4.45172
4.41076
4.387
4.37114
4.34672
4.31246
4.26615
4.21491
4.17702
4.15074
4.12717
4.10135
4.07229
4.03791
3.99201
3.93546
3.88057
3.84538
3.82825
3.81704
3.8072
3.7944
3.77489
3.74602
3.72686
3.72521
3.73669
3.76621
3.81168
3.85026
3.86935
3.86867
3.86901
3.88111
3.89948
3.92318
3.93555
3.93808
3.93093
3.93317
3.94317
3.96416
3.99984
4.0567
4.09958
4.11606
7.79371
7.50487
7.18249
6.95379
6.77481
6.56256
6.37195
6.26906
6.17379
6.00941
5.79307
5.64449
5.57971
5.51431
5.4054
5.24691
5.10964
5.05459
5.02725
4.98498
4.91831
4.83439
4.79094
4.77304
4.75532
4.72647
4.68922
4.65659
4.64055
4.63227
4.63087
4.62404
4.61375
4.6011
4.59725
4.6048
4.61867
4.62232
4.61003
4.59685
4.59962
4.60462
4.59253
4.56543
4.53567
4.52495
4.52579
4.51421
4.48251
4.43789
4.38913
4.36282
4.34867
4.33297
4.30452
4.26384
4.21365
4.17238
4.14713
4.12535
4.10065
4.07248
4.04065
3.99945
3.94917
3.89674
3.86343
3.84537
3.82839
3.81491
3.80394
3.78943
3.76611
3.74928
3.75014
3.76097
3.78431
3.82145
3.85928
3.88169
3.89025
3.90082
3.91395
3.92667
3.9359
3.93561
3.92317
3.91107
3.91269
3.91806
3.92748
3.94532
3.96324
3.99142
4.02161
4.05223
7.99459
7.71024
7.41561
7.20728
7.02306
6.79506
6.60197
6.49395
6.38636
6.20634
5.98328
5.84347
5.77533
5.69479
5.56725
5.39271
5.26867
5.21169
5.16566
5.10034
5.0067
4.90045
4.85065
4.82433
4.79344
4.75385
4.70216
4.65183
4.62662
4.60952
4.59849
4.58442
4.56757
4.54899
4.54035
4.544
4.55799
4.56288
4.5504
4.53019
4.52661
4.53328
4.52874
4.5056
4.48166
4.47698
4.47886
4.46018
4.42612
4.37627
4.33645
4.31948
4.31092
4.28924
4.25215
4.20368
4.1617
4.13971
4.12322
4.10429
4.0765
4.04086
3.99566
3.94604
3.90356
3.87674
3.86255
3.85138
3.83576
3.81897
3.79794
3.77556
3.7645
3.76974
3.79015
3.82298
3.85857
3.88655
3.90046
3.90364
3.91635
3.93834
3.96105
3.97045
3.96952
3.95045
3.9227
3.9132
3.91359
3.92328
3.93741
3.94554
3.9497
3.95178
3.96792
4.01287
8.18549
7.91133
7.64358
7.45059
7.25666
7.01393
6.81929
6.70402
6.58159
6.38742
6.16114
6.02291
5.94435
5.84551
5.70004
5.52155
5.4119
5.34863
5.28224
5.19434
5.07334
4.9591
4.90738
4.87167
4.82926
4.77858
4.71166
4.6483
4.61684
4.59309
4.57408
4.55504
4.53143
4.50818
4.49569
4.49558
4.50713
4.51142
4.49919
4.47798
4.47134
4.47759
4.47713
4.45773
4.43847
4.43457
4.42737
4.40861
4.37598
4.32813
4.30048
4.29056
4.28022
4.25376
4.21
4.15748
4.12747
4.11359
4.11051
4.09302
4.06102
4.01581
3.95719
3.90797
3.88067
3.86943
3.86966
3.8625
3.85021
3.8279
3.79603
3.77935
3.78419
3.80967
3.85539
3.9051
3.93592
3.94627
3.94051
3.94385
3.96074
3.98703
4.0088
4.01072
3.99594
3.96258
3.93907
3.93574
3.94102
3.95765
3.96226
3.95794
3.94857
3.94424
3.95138
3.98958
8.35641
8.09894
7.85934
7.67879
7.47806
7.2352
7.04535
6.92479
6.78154
6.56661
6.33561
6.19778
6.10788
5.99109
5.82937
5.65123
5.54552
5.47127
5.38709
5.27887
5.13545
5.02227
4.9684
4.9233
4.87086
4.80929
4.72797
4.65594
4.61945
4.59016
4.56382
4.53924
4.50865
4.48127
4.4647
4.45743
4.46745
4.47012
4.45601
4.43602
4.42912
4.43733
4.44173
4.42558
4.39474
4.38377
4.37957
4.36357
4.33495
4.30017
4.28586
4.28071
4.26297
4.22949
4.18362
4.13729
4.11772
4.10796
4.08763
4.06175
4.03214
3.98935
3.93477
3.89999
3.88925
3.89386
3.88997
3.87707
3.85979
3.83043
3.81115
3.81516
3.83741
3.88232
3.9343
3.96839
3.98685
3.98628
3.9878
4.00059
4.01769
4.0357
4.03996
4.03021
4.00662
3.98023
3.97265
3.97154
3.97983
3.98575
3.97803
3.96553
3.94961
3.94356
3.94556
3.96984
8.5167
8.27588
8.05613
7.88086
7.67653
7.43323
7.25242
7.13144
6.97297
6.74742
6.52162
6.38446
6.28207
6.14703
5.96905
5.79079
5.68138
5.59364
5.49508
5.37029
5.2138
5.10349
5.04309
4.98815
4.92509
4.85056
4.75512
4.68205
4.64048
4.60508
4.57318
4.54172
4.49987
4.4578
4.44014
4.43302
4.43156
4.42136
4.40129
4.38263
4.37771
4.3857
4.39025
4.37684
4.34884
4.33332
4.33149
4.32245
4.29964
4.26783
4.25115
4.24042
4.22088
4.19849
4.17489
4.14699
4.1179
4.08751
4.05994
4.03416
4.00558
3.96934
3.94161
3.92676
3.90854
3.89089
3.87923
3.87039
3.85711
3.84794
3.85544
3.87608
3.90937
3.94999
3.98446
4.00723
4.01272
4.02513
4.04256
4.05398
4.05946
4.05935
4.05008
4.03151
4.0134
4.00625
4.00263
4.00226
4.00035
3.99169
3.97911
3.96174
3.9465
3.94036
3.93806
3.94924
8.66312
8.4404
8.23905
8.06515
7.85413
7.62148
7.44358
7.3143
7.1476
6.91667
6.7146
6.57821
6.46382
6.31332
6.11564
5.94022
5.82861
5.72469
5.61084
5.47479
5.31709
5.20512
5.13084
5.06215
4.98696
4.89481
4.78818
4.72104
4.67494
4.63637
4.60312
4.56886
4.51603
4.45122
4.41694
4.40197
4.39369
4.37771
4.35021
4.3245
4.31825
4.32526
4.32962
4.31681
4.28958
4.27201
4.27271
4.27211
4.25566
4.22623
4.2073
4.19247
4.17389
4.1581
4.14225
4.12092
4.0915
4.05862
4.02853
4.00236
3.97886
3.96344
3.95212
3.93561
3.91444
3.89254
3.87708
3.86672
3.86537
3.88003
3.90767
3.94104
3.97441
4.00396
4.02497
4.02897
4.04018
4.06469
4.08195
4.08468
4.07963
4.0639
4.03782
4.02222
4.01997
4.02711
4.02606
4.01392
3.99705
3.97522
3.95634
3.94649
3.94004
3.93443
3.9304
3.92318
8.81212
8.59945
8.40854
8.2269
8.00755
7.78662
7.61532
7.48093
7.30004
7.07068
6.87614
6.74811
6.62256
6.45412
6.25264
6.09138
5.98464
5.8747
5.74756
5.5941
5.43126
5.317
5.22877
5.14849
5.06476
4.96276
4.84524
4.77216
4.72013
4.67029
4.61963
4.56168
4.49417
4.4297
4.39604
4.37465
4.35586
4.33111
4.2946
4.25847
4.24867
4.25281
4.2557
4.24208
4.21514
4.19745
4.19877
4.2069
4.19904
4.17642
4.15262
4.13148
4.11647
4.10852
4.10058
4.08189
4.05482
4.02465
3.9972
3.9754
3.95853
3.94836
3.94077
3.93026
3.91726
3.89853
3.88164
3.87898
3.88834
3.91467
3.95309
3.99814
4.03528
4.05377
4.05379
4.05318
4.0705
4.09596
4.11107
4.10957
4.09661
4.06211
4.03124
4.02465
4.02981
4.0405
4.03331
4.01936
3.99184
3.95623
3.93782
3.92824
3.92376
3.92067
3.91436
3.89611
8.92655
8.72867
8.54587
8.35611
8.1388
7.93281
7.77096
7.62813
7.42955
7.20187
7.021
6.89516
6.75762
6.57555
6.37195
6.23216
6.12402
6.00087
5.856
5.69036
5.54098
5.43199
5.33517
5.23644
5.12892
5.01064
4.90891
4.82897
4.76178
4.69887
4.63496
4.56405
4.48384
4.41246
4.37082
4.34196
4.31416
4.28161
4.23528
4.19165
4.17966
4.18183
4.18189
4.16793
4.14087
4.12129
4.12241
4.13524
4.13458
4.11983
4.09514
4.0739
4.06251
4.05787
4.04874
4.02996
4.00845
3.98883
3.97242
3.95693
3.94123
3.92752
3.91933
3.91344
3.90821
3.90254
3.90275
3.91093
3.93127
3.96341
4.00565
4.05302
4.08616
4.09419
4.08705
4.09021
4.10227
4.12381
4.1374
4.13318
4.11139
4.0733
4.05423
4.04691
4.04617
4.05087
4.04213
4.02298
3.98769
3.95842
3.94445
3.93327
3.92534
3.91557
3.90418
3.87479
9.02917
8.84374
8.66394
8.46897
8.2589
8.06687
7.912
7.75158
7.53795
7.32063
7.15396
7.02848
6.87415
6.67671
6.47664
6.34073
6.22758
6.09606
5.94074
5.76605
5.62629
5.51586
5.41018
5.30209
5.18365
5.05092
4.93636
4.85383
4.78251
4.7141
4.64195
4.56004
4.46937
4.3961
4.34828
4.31011
4.27407
4.23382
4.17951
4.13589
4.12189
4.12004
4.11626
4.10162
4.07478
4.05405
4.05474
4.06889
4.07274
4.06226
4.04158
4.0259
4.02169
4.01839
4.00111
3.97843
3.96526
3.95877
3.95576
3.9473
3.93142
3.91217
3.90101
3.89961
3.9072
3.92323
3.94115
3.96067
3.9883
4.02267
4.0577
4.09468
4.12198
4.13028
4.13379
4.13844
4.14304
4.15184
4.15855
4.15076
4.12821
4.10545
4.09346
4.08435
4.07628
4.06726
4.05215
4.02748
3.99927
3.98083
3.96613
3.95158
3.93725
3.92124
3.90037
3.86263
9.12094
8.9434
8.76281
8.56709
8.36715
8.18705
8.03059
7.84974
7.63126
7.42936
7.27516
7.14553
6.9715
6.75901
6.57094
6.44025
6.32022
6.17707
6.00727
5.83201
5.7017
5.58806
5.47442
5.35586
5.22467
5.08511
4.96977
4.88372
4.80651
4.72952
4.6471
4.55201
4.45585
4.38426
4.33414
4.29148
4.25007
4.20274
4.14029
4.09237
4.07237
4.06282
4.05596
4.04251
4.01875
4.00144
4.00273
4.01596
4.01714
4.00548
3.99101
3.98593
3.99098
3.98675
3.9653
3.94109
3.93304
3.93356
3.94136
3.93787
3.92589
3.90689
3.89662
3.90148
3.91947
3.9555
3.99073
4.01883
4.05022
4.07722
4.09811
4.12109
4.14884
4.17426
4.18737
4.19013
4.18704
4.1783
4.16852
4.15891
4.15108
4.14403
4.13508
4.12316
4.10807
4.08821
4.06314
4.03739
4.01897
4.00495
3.99088
3.97525
3.95597
3.92878
3.89507
3.86015
9.20057
9.02645
8.84537
8.65456
8.46656
8.29517
8.12898
7.9332
7.72127
7.53479
7.3904
7.24664
7.05248
6.83553
6.66451
6.53724
6.40824
6.25307
6.06918
5.89911
5.77221
5.65318
5.53229
5.40437
5.26323
5.12298
5.01235
4.9225
4.83724
4.7507
4.65796
4.55471
4.45964
4.38914
4.3354
4.28889
4.24203
4.1859
4.11575
4.06446
4.03823
4.02431
4.01369
3.99594
3.97125
3.95752
3.96005
3.9704
3.96523
3.94825
3.9391
3.94286
3.95704
3.95691
3.94071
3.91492
3.90512
3.90756
3.92016
3.92357
3.91972
3.91007
3.90729
3.91803
3.9415
3.98831
4.03843
4.07507
4.10192
4.11767
4.1294
4.14953
4.17943
4.21237
4.22642
4.22893
4.21876
4.19587
4.18042
4.17473
4.17518
4.17417
4.16574
4.1519
4.12911
4.09821
4.0711
4.05363
4.03954
4.02576
4.01076
3.99202
3.96405
3.92253
3.88854
3.86053
9.26552
9.09736
8.92033
8.73724
8.55799
8.38706
8.20814
8.00844
7.80929
7.6359
7.4933
7.32631
7.11765
6.91359
6.75614
6.6308
6.49011
6.32225
6.13069
5.97279
5.84594
5.72133
5.59336
5.45592
5.30684
5.17121
5.06249
4.96741
4.87492
4.7803
4.67807
4.57103
4.47848
4.40889
4.35102
4.29789
4.24255
4.17336
4.10036
4.05403
4.02403
4.00238
3.98192
3.95498
3.92598
3.9148
3.91888
3.92724
3.91911
3.89718
3.88652
3.89442
3.91582
3.92456
3.91742
3.89442
3.87822
3.87971
3.89127
3.90633
3.91229
3.91552
3.92298
3.9393
3.96782
4.01611
4.07046
4.11468
4.13847
4.14937
4.16364
4.18385
4.21197
4.23912
4.24759
4.24381
4.22403
4.20401
4.1979
4.19476
4.19507
4.18972
4.1776
4.1573
4.12716
4.09992
4.08324
4.06888
4.05412
4.03749
4.01649
3.98604
3.94461
3.90331
3.8825
3.85454
9.33148
9.16268
8.9867
8.80896
8.63476
8.46092
8.27612
8.08208
7.89533
7.73051
7.57838
7.39176
7.18388
6.99773
6.84694
6.71652
6.56214
6.38046
6.19349
6.05183
5.92455
5.79449
5.65831
5.50859
5.35532
5.22585
5.11716
5.01648
4.91773
4.81518
4.70329
4.59285
4.50351
4.4325
4.36733
4.30406
4.23786
4.15991
4.0905
4.04613
4.01174
3.98155
3.9492
3.90798
3.87521
3.86538
3.87034
3.87786
3.86999
3.84785
3.83281
3.84062
3.86465
3.88307
3.88447
3.8714
3.85081
3.85076
3.86118
3.88631
3.906
3.91981
3.93701
3.95956
3.99352
4.03753
4.08516
4.13284
4.16228
4.17804
4.19576
4.21634
4.23731
4.24619
4.2441
4.22993
4.21873
4.2152
4.2137
4.21159
4.20427
4.19145
4.17159
4.14723
4.1251
4.10825
4.09283
4.07666
4.05867
4.03535
4.00306
3.96415
3.92917
3.90364
3.88585
3.85286
9.37323
9.2065
9.036
8.86494
8.69347
8.51643
8.33076
8.144
7.96788
7.80765
7.64119
7.44374
7.23711
7.06514
6.92919
6.78946
6.61711
6.42233
6.2601
6.12689
5.99676
5.85952
5.71193
5.55165
5.40359
5.28131
5.17076
5.06369
4.9562
4.84261
4.72352
4.61575
4.529
4.45298
4.37968
4.30421
4.22399
4.14226
4.0762
4.03094
3.99241
3.95419
3.90969
3.85275
3.81665
3.80571
3.80968
3.81643
3.81087
3.79347
3.77639
3.78082
3.80299
3.82963
3.83884
3.83643
3.82034
3.82192
3.83874
3.87095
3.90057
3.92543
3.95364
3.98807
4.02065
4.05202
4.09826
4.14333
4.17511
4.20457
4.23158
4.24711
4.25159
4.24588
4.23128
4.22438
4.22381
4.2282
4.22757
4.21976
4.20594
4.18263
4.15998
4.14632
4.13355
4.11912
4.10264
4.0827
4.05658
4.02219
3.98678
3.95715
3.93256
3.91241
3.89447
3.8576
9.41094
9.24604
9.079
8.91048
8.7387
8.56115
8.37987
8.20158
8.03247
7.86806
7.6809
7.47586
7.29386
7.14708
7.01154
6.84227
6.64793
6.46195
6.31486
6.18545
6.04992
5.9033
5.74383
5.5843
5.44848
5.32947
5.21475
5.09947
4.97961
4.85485
4.73513
4.63337
4.54694
4.46625
4.38578
4.29923
4.20626
4.12006
4.05664
4.01026
3.96842
3.92542
3.87315
3.80555
3.7619
3.74627
3.74414
3.74889
3.74564
3.73338
3.71878
3.71816
3.7351
3.76664
3.78868
3.79597
3.79567
3.80831
3.83329
3.86912
3.91257
3.95492
3.99725
4.03986
4.077
4.11407
4.15275
4.18323
4.20876
4.23436
4.25819
4.26636
4.26242
4.25159
4.24122
4.23767
4.23715
4.24169
4.23884
4.22815
4.20899
4.18277
4.16463
4.15286
4.14289
4.13082
4.11474
4.09091
4.05361
4.01564
3.98624
3.96271
3.94433
3.9269
3.90874
3.8644
9.44658
9.28329
9.11756
8.94902
8.77626
8.59962
8.42229
8.24817
8.07862
7.90351
7.71176
7.52262
7.35542
7.21
7.05293
6.86536
6.66813
6.50442
6.36396
6.23105
6.08587
5.92761
5.75956
5.61187
5.48534
5.36504
5.24512
5.12171
4.99119
4.85791
4.73943
4.64257
4.5566
4.47321
4.38708
4.29214
4.19093
4.10141
4.03691
3.98789
3.94378
3.89918
3.8448
3.77473
3.72356
3.70199
3.69381
3.69211
3.6875
3.6781
3.67048
3.67285
3.6872
3.71702
3.74954
3.76765
3.78683
3.81356
3.84888
3.89062
3.93693
3.98524
4.03418
4.0791
4.12022
4.1637
4.20277
4.22737
4.24577
4.26118
4.27487
4.28403
4.28414
4.27697
4.26517
4.25956
4.25695
4.2578
4.25225
4.23924
4.21702
4.19193
4.17828
4.16724
4.15731
4.14288
4.12238
4.09205
4.05419
4.02068
3.99801
3.98079
3.9649
3.9451
3.91658
3.86438
9.47654
9.31525
9.15018
8.98126
8.80843
8.63347
8.45864
8.28538
8.11175
7.92971
7.74172
7.56313
7.40209
7.25159
7.07214
6.87693
6.69838
6.54517
6.4084
6.26309
6.10976
5.94152
5.77409
5.63584
5.51101
5.38896
5.26692
5.13963
5.00175
4.8641
4.74667
4.64781
4.5575
4.47072
4.38334
4.28779
4.18428
4.09218
4.0228
3.96823
3.91978
3.87258
3.81991
3.75866
3.70822
3.67822
3.65779
3.64593
3.63834
3.63186
3.63627
3.64806
3.6608
3.68388
3.71398
3.74457
3.77797
3.81717
3.86435
3.91454
3.96531
4.01616
4.06433
4.10741
4.15261
4.20287
4.24225
4.26241
4.27497
4.28385
4.29283
4.30316
4.30602
4.30346
4.29659
4.28749
4.28184
4.27513
4.26489
4.25021
4.23009
4.21082
4.19816
4.18541
4.16887
4.14812
4.12261
4.09168
4.05959
4.0377
4.0205
4.00118
3.97723
3.94768
3.91616
3.86769
9.49918
9.33947
9.17531
9.00712
8.83565
8.66256
8.48899
8.31483
8.13711
7.95374
7.77155
7.59911
7.44045
7.27254
7.08193
6.89537
6.72951
6.58227
6.43852
6.28539
6.12506
5.9529
5.79654
5.66198
5.53465
5.40995
5.28336
5.1487
5.00686
4.87289
4.75796
4.65745
4.5657
4.47719
4.38302
4.28107
4.18093
4.0955
4.02611
3.96623
3.9099
3.85374
3.7959
3.74176
3.69846
3.6654
3.64071
3.61951
3.6041
3.60055
3.6059
3.6261
3.64125
3.6601
3.68805
3.72306
3.7665
3.81646
3.87353
3.9334
3.98737
4.03732
4.08303
4.12512
4.17074
4.22313
4.26088
4.27912
4.28968
4.29648
4.30479
4.314
4.32126
4.3207
4.316
4.30547
4.29461
4.2848
4.27281
4.259
4.24387
4.22782
4.20946
4.18962
4.16914
4.14583
4.11956
4.09301
4.07102
4.05013
4.02664
4.00148
3.97535
3.94552
3.9166
3.87204
9.51513
9.35619
9.19307
9.02637
8.85696
8.68555
8.5125
8.33726
8.15836
7.97727
7.79948
7.63007
7.46386
7.28369
7.09728
6.92123
6.75971
6.61356
6.45968
6.29883
6.13036
5.97047
5.8273
5.69233
5.56062
5.42942
5.29287
5.1504
5.0135
4.89207
4.78324
4.68038
4.58039
4.47928
4.37292
4.27019
4.18489
4.11399
4.04608
3.97749
3.90679
3.83578
3.77699
3.73355
3.69876
3.67051
3.64185
3.6052
3.57707
3.57238
3.57593
3.59904
3.62163
3.64049
3.66861
3.70515
3.75141
3.80882
3.87425
3.94176
3.99888
4.04826
4.09147
4.13331
4.17841
4.22973
4.26564
4.2822
4.29042
4.29756
4.30594
4.31548
4.32541
4.32551
4.32049
4.30946
4.29625
4.2848
4.27328
4.26143
4.24853
4.23195
4.21047
4.18709
4.16412
4.14133
4.11854
4.0961
4.07248
4.04716
4.02136
3.99568
3.96906
3.94037
3.91635
3.87611
9.52732
9.36915
9.20701
9.04146
8.87321
8.70231
8.52889
8.3529
8.17497
7.99747
7.82302
7.65091
7.47346
7.29151
7.11382
6.94438
6.7909
6.63307
6.46718
6.29806
6.13926
5.99451
5.85625
5.72035
5.58305
5.44049
5.29515
5.15473
5.02818
4.91668
4.81176
4.70663
4.59604
4.4795
4.36741
4.27125
4.19598
4.13099
4.06671
3.99687
3.91557
3.82879
3.76903
3.73417
3.70977
3.68343
3.65106
3.60494
3.5645
3.55442
3.55565
3.57461
3.60209
3.62066
3.64905
3.68897
3.73703
3.7956
3.86582
3.93772
3.99861
4.04867
4.08911
4.1266
4.16615
4.2136
4.25135
4.26824
4.27789
4.28777
4.29688
4.30843
4.3197
4.31916
4.3132
4.3012
4.28764
4.2778
4.26839
4.25741
4.24409
4.22698
4.20461
4.18021
4.15822
4.13788
4.11737
4.09529
4.07025
4.04224
4.01244
3.98455
3.95933
3.93436
3.91414
3.87643
9.53349
9.37591
9.21445
9.04965
8.88195
8.71133
8.53798
8.36251
8.18678
8.01271
7.83919
7.66194
7.48039
7.30102
7.12937
6.97256
6.81695
6.6432
6.46975
6.30388
6.15437
6.01563
5.87834
5.74071
5.59762
5.44437
5.29137
5.15923
5.04732
4.94281
4.83859
4.72764
4.6033
4.47199
4.35946
4.2786
4.21276
4.14932
4.08233
4.00324
3.90808
3.81937
3.76936
3.73323
3.70075
3.67172
3.64023
3.59208
3.54733
3.53522
3.53527
3.55469
3.58248
3.60321
3.63106
3.66942
3.71605
3.77478
3.85
3.92782
3.99313
4.04109
4.07817
4.11427
4.15642
4.20774
4.24476
4.26193
4.27367
4.28408
4.29323
4.30466
4.31482
4.31306
4.30614
4.29334
4.28094
4.27276
4.26399
4.25307
4.23955
4.22188
4.19847
4.17354
4.15252
4.13384
4.11477
4.09385
4.06913
4.03873
4.00461
3.97268
3.94827
3.92869
3.91257
3.87879
)
;

boundaryField
{
    inlet
    {
        type            fixedValue;
        value           uniform 1;
    }
    outlet
    {
        type            zeroGradient;
    }
    bottom
    {
        type            symmetryPlane;
    }
    top
    {
        type            symmetryPlane;
    }
    obstacle
    {
        type            zeroGradient;
    }
    defaultFaces
    {
        type            empty;
    }
}


// ************************************************************************* //
