/*--------------------------------*- C++ -*----------------------------------*\
  =========                 |
  \\      /  F ield         | OpenFOAM: The Open Source CFD Toolbox
   \\    /   O peration     | Website:  https://openfoam.org
    \\  /    A nd           | Version:  7
     \\/     M anipulation  |
\*---------------------------------------------------------------------------*/
FoamFile
{
    version     2.0;
    format      ascii;
    class       volScalarField;
    location    "20";
    object      rho;
}
// * * * * * * * * * * * * * * * * * * * * * * * * * * * * * * * * * * * * * //

dimensions      [1 -3 0 0 0 0 0];

internalField   nonuniform List<scalar> 
4032
(
1.40001
1.40001
1.40001
1.40001
1.40001
1.40001
1.40001
1.40001
1.40001
1.40001
1.40001
2.49141
5.1405
5.4628
5.51701
5.58751
5.64908
5.70685
5.76047
5.81023
5.85545
5.89271
5.92187
5.94294
1.40001
1.40001
1.40001
1.40001
1.40001
1.40001
1.40001
1.40001
1.40001
1.40001
1.40001
2.43632
5.09199
5.45636
5.51285
5.58238
5.64216
5.69767
5.74878
5.79572
5.8383
5.8732
5.90045
5.92078
1.40001
1.40001
1.40001
1.40001
1.40001
1.40001
1.40001
1.40001
1.40001
1.40001
1.40001
2.31675
5.02501
5.4513
5.50396
5.5722
5.63022
5.68351
5.73166
5.77474
5.81318
5.84463
5.86867
5.88854
1.40001
1.40001
1.40001
1.40001
1.40001
1.40001
1.40001
1.40001
1.40001
1.40001
1.40001
2.14087
4.9205
5.45288
5.49513
5.55973
5.61382
5.66342
5.70778
5.74678
5.78041
5.80619
5.82235
5.83508
1.40001
1.40001
1.40001
1.40001
1.40001
1.40001
1.40001
1.40001
1.40001
1.40001
1.40001
1.91777
4.76002
5.47187
5.49161
5.54687
5.59327
5.63702
5.67425
5.70389
5.72588
5.74329
5.75345
5.77156
1.40001
1.40001
1.40001
1.40001
1.40001
1.40001
1.40001
1.40001
1.40001
1.40001
1.40001
1.6873
4.54244
5.47109
5.46988
5.52372
5.56507
5.60197
5.63066
5.65196
5.66681
5.6801
5.68346
5.67303
1.40001
1.40001
1.40001
1.40001
1.40001
1.40001
1.40001
1.40001
1.40001
1.40001
1.40001
1.45089
4.22708
5.44757
5.44411
5.48921
5.52039
5.55103
5.57031
5.57828
5.57303
5.54951
5.51891
5.50716
1.40001
1.40001
1.40001
1.40001
1.40001
1.40001
1.40001
1.40001
1.40001
1.40001
1.40001
1.40101
3.75678
5.29227
5.35583
5.41686
5.45606
5.47971
5.48735
5.48134
5.45616
5.41271
5.33676
5.28859
1.40001
1.40001
1.40001
1.40001
1.40001
1.40001
1.40001
1.40001
1.40001
1.40001
1.40001
1.4
3.21502
5.15366
5.30944
5.35871
5.39044
5.4017
5.39715
5.37472
5.31564
5.2033
4.88433
3.92223
1.40001
1.40001
1.40001
1.40001
1.40001
1.40001
1.40001
1.40001
1.40001
1.40001
1.40001
1.4
2.64403
4.99132
5.27748
5.31396
5.33128
5.33184
5.30966
5.26376
5.16869
4.9761
4.63835
3.71356
1.40001
1.40001
1.40001
1.40001
1.40001
1.40001
1.40001
1.40001
1.40001
1.40001
1.40001
1.4
2.02198
4.76989
5.32214
5.30077
5.29244
5.26971
5.22382
5.14932
5.03095
4.80529
4.46718
3.65009
1.40001
1.40001
1.40001
1.40001
1.40001
1.40001
1.40001
1.40001
1.40001
1.40001
1.40001
1.40001
1.50007
4.29014
5.35154
5.28057
5.24559
5.20452
5.14486
5.0514
4.91305
4.68689
4.33654
3.70486
1.40001
1.40001
1.40001
1.40001
1.40001
1.40001
1.40001
1.40001
1.40001
1.40001
1.40001
1.40001
1.40108
3.51954
5.15629
5.22627
5.20483
5.15571
5.08476
4.97813
4.82582
4.60643
4.26868
3.79083
1.40001
1.40001
1.40001
1.40001
1.40001
1.40001
1.40001
1.40001
1.40001
1.40001
1.40001
1.40001
1.39999
2.62816
4.95067
5.21917
5.19128
5.14368
5.06081
4.94031
4.77836
4.56179
4.25796
3.9003
1.40001
1.40001
1.40001
1.40001
1.40001
1.40001
1.40001
1.40001
1.40001
1.40001
1.40001
1.40001
1.4
1.79481
4.69339
5.2849
5.19516
5.1262
5.03507
4.91758
4.75748
4.55095
4.29163
4.03314
1.40001
1.40001
1.40001
1.40001
1.40001
1.40001
1.40001
1.40001
1.40001
1.40001
1.40001
1.40001
1.4
1.42861
3.94398
5.13252
5.13809
5.10572
5.03054
4.91804
4.76525
4.58018
4.36868
4.1693
1.40001
1.40001
1.40001
1.40001
1.40001
1.40001
1.40001
1.40001
1.40001
1.40001
1.40001
1.40001
1.40001
1.39992
2.93744
4.96449
5.14973
5.11505
5.04362
4.93939
4.80452
4.64639
4.4705
4.30255
1.40001
1.40001
1.40001
1.40001
1.40001
1.40001
1.40001
1.40001
1.40001
1.40001
1.40001
1.40001
1.40001
1.39998
1.96938
4.7762
5.22428
5.13963
5.06356
4.96608
4.84994
4.71799
4.56946
4.42359
1.40001
1.40001
1.40001
1.40001
1.40001
1.40001
1.40001
1.40001
1.40001
1.40001
1.40001
1.40001
1.40001
1.4
1.45912
4.09174
5.17528
5.13833
5.07299
5.0049
4.90882
4.79674
4.66844
4.54071
1.40001
1.40001
1.40001
1.40001
1.40001
1.40001
1.40001
1.40001
1.40001
1.40001
1.40001
1.40001
1.40001
1.4
1.40017
3.1303
5.02344
5.16742
5.12427
5.06181
4.97281
4.87308
4.75855
4.64446
1.40001
1.40001
1.40001
1.40001
1.40001
1.40001
1.40001
1.40001
1.40001
1.40001
1.40001
1.40001
1.40001
1.40001
1.4
2.16208
4.91518
5.3456
5.21967
5.12749
5.03817
4.94433
4.83879
4.73695
1.40001
1.40001
1.40001
1.40001
1.40001
1.40001
1.40001
1.40001
1.40001
1.40001
1.40001
1.40001
1.40001
1.40001
1.4
1.50793
4.44966
5.36381
5.2316
5.16363
5.09116
5.00707
4.91206
4.82046
1.40001
1.40001
1.40001
1.40001
1.40001
1.40001
1.40001
1.40001
1.40001
1.40001
1.40001
1.40001
1.40001
1.40001
1.4
1.40113
3.72384
5.29066
5.24719
5.20243
5.13565
5.05663
4.97052
4.88771
1.40001
1.40001
1.40001
1.40001
1.40001
1.40001
1.40001
1.40001
1.40001
1.40001
1.40001
1.40001
1.40001
1.40001
1.40001
1.39999
3.00849
5.16839
5.31033
5.24205
5.17233
5.09633
5.01851
4.94288
1.40001
1.40001
1.40001
1.40001
1.40001
1.40001
1.40001
1.40001
1.40001
1.40001
1.40001
1.40001
1.40001
1.40001
1.40001
1.4
2.38211
4.9736
5.34554
5.24864
5.18792
5.12111
5.05342
4.98419
1.40001
1.40001
1.40001
1.40001
1.40001
1.40001
1.40001
1.40001
1.40001
1.40001
1.40001
1.40001
1.40001
1.40001
1.40001
1.4
1.86068
4.78009
5.45224
5.30426
5.23572
5.16558
5.09684
5.02541
1.40001
1.40001
1.40001
1.40001
1.40001
1.40001
1.40001
1.40001
1.40001
1.40001
1.40001
1.40001
1.40001
1.40001
1.40001
1.40001
1.48888
4.45315
5.45313
5.30185
5.23683
5.17357
5.1105
5.04309
1.40001
1.40001
1.40001
1.40001
1.40001
1.40001
1.40001
1.40001
1.40001
1.40001
1.40001
1.40001
1.40001
1.40001
1.40001
1.40001
1.40199
4.02991
5.40386
5.28629
5.2324
5.1757
5.11641
5.05243
1.40001
1.40001
1.40001
1.40001
1.40001
1.40001
1.40001
1.40001
1.40001
1.40001
1.40001
1.40001
1.40001
1.40001
1.40001
1.40001
1.40001
3.62039
5.31928
5.27826
5.22548
5.17374
5.11719
5.05655
1.40001
1.40001
1.40001
1.40001
1.40001
1.40001
1.40001
1.40001
1.40001
1.40001
1.40001
1.40001
1.40001
1.40001
1.40001
1.40001
1.40001
3.26341
5.23204
5.29719
5.23123
5.18217
5.12468
5.06425
1.40001
1.40001
1.40001
1.40001
1.40001
1.40001
1.40001
1.40001
1.40001
1.40001
1.40001
1.40001
1.40001
1.40001
1.40001
1.40001
1.40001
2.94864
5.16692
5.31867
5.2418
5.19512
5.1366
5.07714
1.40001
1.40001
1.40001
1.40001
1.40001
1.40001
1.40001
1.40001
1.40001
1.40001
1.40001
1.40001
1.40001
1.40001
1.40001
1.40001
1.40001
2.64538
5.11665
5.36296
5.27466
5.22617
5.16562
5.10507
1.40001
1.40001
1.40001
1.40001
1.40001
1.40001
1.40001
1.40001
1.40001
1.40001
1.40001
1.40001
1.40001
1.40001
1.40001
1.40001
1.40001
2.37919
5.04023
5.40592
5.30383
5.25069
5.18936
5.12881
1.40001
1.40001
1.40001
1.40001
1.40001
1.40001
1.40001
1.40001
1.40001
1.40001
1.40001
1.40001
1.40001
1.40001
1.40001
1.40001
1.40001
2.16668
4.93701
5.43328
5.32548
5.27148
5.21068
5.1502
1.40001
1.40001
1.40001
1.40001
1.40001
1.40001
1.40001
1.40001
1.40001
1.40001
1.40001
1.40001
1.40001
1.40001
1.40001
1.40001
1.40001
2.00495
4.82913
5.44393
5.33463
5.28357
5.22462
5.16537
1.40001
1.40001
1.40001
1.40001
1.40001
1.40001
1.40001
1.40001
1.40001
1.40001
1.40001
1.40001
1.40001
1.40001
1.40001
1.40001
1.40001
1.86533
4.75392
5.44664
5.33607
5.28574
5.22824
5.17068
1.40001
1.40001
1.40001
1.40001
1.40001
1.40001
1.40001
1.40001
1.40001
1.40001
1.40001
1.40001
1.40001
1.40001
1.40001
1.40001
1.40001
1.77577
4.67786
5.44188
5.33371
5.28368
5.22663
5.16984
1.40001
1.40001
1.40001
1.40001
1.40001
1.40001
1.40001
1.40001
1.40001
1.40001
1.40001
1.40001
1.40001
1.40001
1.40001
1.40001
1.40001
1.72433
4.61507
5.43206
5.32926
5.28048
5.22414
5.16796
1.40001
1.40001
1.40001
1.40001
1.40001
1.40001
1.40001
1.40001
1.40001
1.40001
1.40001
1.40001
1.40001
1.40001
1.40001
1.40001
1.40001
1.69137
4.5732
5.42596
5.32855
5.28041
5.22427
5.16812
1.40001
1.40001
1.40001
1.40001
1.40001
1.40001
1.40001
1.40001
1.40001
1.40001
1.40001
1.40001
1.40001
1.40001
1.40001
1.40001
1.40001
1.67649
4.54891
5.4184
5.32615
5.28018
5.22476
5.16895
1.51146
1.56404
1.74782
1.93167
2.01889
2.05737
2.09509
2.13449
2.16786
2.18277
2.19268
2.19447
2.2029
2.21244
2.22048
2.2277
2.23824
2.25412
2.27533
2.29979
2.32648
2.3553
2.38658
2.4176
2.44455
2.46687
2.48349
2.49555
2.50607
2.51787
2.5326
2.55016
2.56916
2.58779
2.60478
2.61953
2.63148
2.64041
2.64552
2.64579
2.64108
2.63319
2.62461
2.61727
2.61195
2.60838
2.60571
2.60234
2.59712
2.59013
2.5821
2.57301
2.56146
2.54609
2.52707
2.50595
2.48513
2.46646
2.4505
2.43645
2.42277
2.408
2.39229
2.37714
2.36351
2.35147
2.33887
2.32293
2.30406
2.28507
2.26711
2.25114
2.23739
2.22574
2.21551
2.20672
2.19985
2.19616
2.19564
2.19876
2.2043
2.21054
2.21968
2.23413
2.25599
2.28733
2.32726
2.36753
2.40037
2.42485
2.44419
2.46023
2.47362
2.48369
2.49088
2.49899
2.2422
2.24762
2.11497
2.05943
2.08276
2.11316
2.14646
2.16707
2.17565
2.17911
2.18156
2.18141
2.19006
2.20539
2.2276
2.25124
2.26921
2.28369
2.29958
2.32025
2.34503
2.37058
2.39447
2.41648
2.43852
2.46141
2.4838
2.50348
2.51954
2.53269
2.54472
2.55811
2.57407
2.59174
2.60877
2.62257
2.63158
2.63667
2.64011
2.64301
2.6446
2.6433
2.63889
2.63222
2.62561
2.62099
2.61859
2.61693
2.6136
2.60589
2.5939
2.58015
2.56666
2.5541
2.5405
2.52355
2.5039
2.48418
2.46638
2.4514
2.43884
2.42701
2.41383
2.39914
2.38433
2.37024
2.35647
2.34165
2.32409
2.30534
2.28666
2.26928
2.25396
2.24056
2.22937
2.22037
2.21311
2.20849
2.20704
2.2093
2.21465
2.22057
2.22903
2.24241
2.26283
2.29236
2.33062
2.36943
2.40095
2.42386
2.44107
2.45503
2.46721
2.47771
2.48444
2.48918
2.69353
2.67068
2.39663
2.20628
2.16262
2.171
2.18602
2.17754
2.16453
2.16449
2.18467
2.21122
2.22874
2.24633
2.27072
2.29939
2.32247
2.33256
2.33718
2.34793
2.36985
2.40136
2.43347
2.45752
2.47654
2.49448
2.51597
2.5424
2.57069
2.59638
2.6165
2.6321
2.64677
2.66329
2.68188
2.70017
2.71397
2.7203
2.72005
2.7172
2.71502
2.71371
2.71242
2.70923
2.70307
2.69595
2.6901
2.68587
2.683
2.67965
2.67033
2.65395
2.63474
2.61588
2.59888
2.58298
2.56522
2.5455
2.5256
2.50675
2.48976
2.4756
2.46384
2.4514
2.43702
2.4219
2.40623
2.38943
2.37223
2.35453
2.33721
2.32069
2.30469
2.28986
2.27706
2.2666
2.25891
2.25435
2.25328
2.25601
2.26131
2.26771
2.27675
2.29082
2.31183
2.34118
2.37892
2.41942
2.45223
2.47481
2.48975
2.50024
2.50853
2.51845
2.52834
2.52924
3.00595
3.02929
2.81894
2.60296
2.54165
2.45711
2.36613
2.3066
2.2741
2.25479
2.26916
2.31119
2.33819
2.34226
2.34643
2.35695
2.38169
2.40856
2.42477
2.43557
2.45064
2.47561
2.51126
2.55049
2.58407
2.6097
2.63088
2.65245
2.67767
2.7057
2.73187
2.752
2.76668
2.77937
2.79272
2.80781
2.82304
2.83354
2.83603
2.83239
2.82651
2.82273
2.8224
2.82356
2.82147
2.81225
2.79927
2.78718
2.7786
2.77394
2.76726
2.75143
2.73251
2.71083
2.6905
2.67357
2.65642
2.63736
2.61713
2.59643
2.57611
2.55824
2.5432
2.52887
2.51319
2.4966
2.47905
2.4601
2.44002
2.41977
2.40062
2.38314
2.36747
2.35339
2.34042
2.32822
2.31938
2.31393
2.31131
2.31273
2.31698
2.3233
2.33201
2.34628
2.36685
2.39472
2.43086
2.47193
2.5089
2.53624
2.55199
2.56003
2.56512
2.57199
2.58297
2.59217
3.34773
3.33518
3.15104
2.94601
2.86452
2.77977
2.66541
2.58456
2.54555
2.50254
2.46148
2.4714
2.49316
2.49758
2.49363
2.50342
2.52341
2.55814
2.59265
2.61371
2.6312
2.65226
2.68025
2.71425
2.74778
2.77604
2.79797
2.81634
2.836
2.85941
2.88446
2.90667
2.92318
2.93548
2.94522
2.95315
2.96039
2.96783
2.97315
2.9748
2.9744
2.9727
2.9685
2.96151
2.9542
2.9449
2.93454
2.92781
2.9201
2.90589
2.88929
2.8702
2.85183
2.8347
2.81576
2.79373
2.76971
2.7451
2.72243
2.70357
2.6876
2.67237
2.65558
2.63683
2.61637
2.59498
2.57416
2.55439
2.53523
2.51598
2.49549
2.47484
2.45611
2.44038
2.42724
2.41597
2.40696
2.40047
2.39759
2.39859
2.40298
2.41096
2.41993
2.43225
2.45041
2.47558
2.50663
2.54308
2.57997
2.61197
2.63299
2.64105
2.64465
2.64915
2.65419
2.65963
3.62921
3.5868
3.39112
3.18303
3.08947
3.02423
2.93072
2.85755
2.83712
2.80783
2.75214
2.7201
2.72278
2.71806
2.70235
2.69094
2.69916
2.72865
2.76321
2.77723
2.78621
2.79953
2.82184
2.85532
2.88953
2.91222
2.92861
2.94302
2.95836
2.97876
3.00514
3.02975
3.04559
3.05382
3.05888
3.063
3.06965
3.08079
3.09033
3.09032
3.08341
3.07133
3.05749
3.04841
3.0455
3.04678
3.04084
3.0269
3.00913
2.98952
2.97295
2.95828
2.94248
2.92362
2.90011
2.87278
2.84589
2.82404
2.80709
2.79148
2.77451
2.7553
2.73329
2.70921
2.68544
2.66421
2.64591
2.62933
2.61307
2.59456
2.57198
2.54809
2.52824
2.51347
2.50192
2.49345
2.48673
2.48138
2.47878
2.47943
2.48412
2.49477
2.50552
2.52058
2.54302
2.56638
2.59046
2.61894
2.65064
2.6824
2.71152
2.73076
2.73799
2.74122
2.74259
2.74268
3.85105
3.78005
3.57882
3.38117
3.27786
3.21466
3.13853
3.07442
3.06096
3.03733
2.98262
2.93941
2.93119
2.92119
2.89574
2.86821
2.86753
2.88997
2.91474
2.92021
2.91472
2.9153
2.93125
2.96023
2.9865
2.99702
3.00581
3.01574
3.02736
3.04509
3.07029
3.08659
3.09129
3.09174
3.09237
3.09686
3.1083
3.12059
3.12182
3.11571
3.10508
3.09387
3.08626
3.08425
3.0865
3.08103
3.06721
3.04899
3.03088
3.01528
3.00221
2.98768
2.96873
2.94486
2.91848
2.89414
2.87548
2.86122
2.84714
2.83017
2.80944
2.78562
2.76133
2.73913
2.72018
2.70491
2.69142
2.67682
2.65852
2.63384
2.60619
2.58307
2.56923
2.56075
2.55419
2.54922
2.54481
2.54023
2.53626
2.53653
2.5432
2.55755
2.57523
2.59738
2.61907
2.63365
2.64869
2.66736
2.6914
2.721
2.75485
2.78522
2.80163
2.80419
2.80393
2.80487
4.02489
3.92663
3.73027
3.55191
3.44898
3.38408
3.31407
3.25731
3.23625
3.20332
3.14298
3.08679
3.06399
3.05218
3.02439
2.99028
2.98015
2.99058
3.00288
3.00035
2.98879
2.98642
2.99557
3.01501
3.03119
3.03702
3.04115
3.04713
3.05547
3.06936
3.0888
3.09797
3.10107
3.10374
3.10887
3.11883
3.13184
3.134
3.12956
3.12123
3.11424
3.11126
3.11436
3.11882
3.11013
3.09419
3.07374
3.05661
3.04567
3.0369
3.02288
3.00419
2.98008
2.95205
2.92942
2.91472
2.90205
2.88717
2.86979
2.8491
2.82469
2.80006
2.78063
2.76545
2.75166
2.73749
2.72255
2.70424
2.67908
2.64977
2.6259
2.61141
2.60332
2.59826
2.59464
2.5907
2.5853
2.5787
2.57692
2.58198
2.59515
2.61561
2.63755
2.65443
2.66443
2.67665
2.69127
2.70691
2.72651
2.75167
2.78015
2.80908
2.8327
2.84922
2.858
2.86222
4.17393
4.05683
3.87074
3.71297
3.61535
3.5437
3.47062
3.41835
3.38868
3.34294
3.27156
3.20606
3.17604
3.16097
3.13261
3.09179
3.06359
3.06077
3.06646
3.05946
3.04594
3.03938
3.04134
3.05214
3.06279
3.06592
3.06755
3.07032
3.07591
3.08702
3.1029
3.11071
3.11348
3.11666
3.12377
3.13499
3.14259
3.14005
3.13361
3.12841
3.12776
3.13281
3.13981
3.13292
3.11612
3.09578
3.0796
3.06978
3.06585
3.05677
3.03997
3.01733
2.98978
2.96707
2.95408
2.94436
2.93008
2.91119
2.88929
2.86438
2.84026
2.82321
2.81078
2.79882
2.78421
2.7669
2.74524
2.71816
2.68858
2.66804
2.65756
2.64964
2.64162
2.63551
2.62959
2.62086
2.61393
2.61368
2.6206
2.6351
2.65516
2.67346
2.68407
2.68834
2.69713
2.71273
2.73162
2.74851
2.76023
2.7721
2.78798
2.8082
2.83318
2.86173
2.88244
2.88503
4.30411
4.17728
4.00474
3.86855
3.78054
3.70223
3.62257
3.5709
3.53281
3.47263
3.38991
3.32007
3.28927
3.26993
3.23815
3.19031
3.14485
3.12908
3.12971
3.12219
3.10515
3.09002
3.0852
3.08837
3.09409
3.093
3.09012
3.0893
3.09114
3.09842
3.11033
3.11687
3.11826
3.11828
3.12351
3.13336
3.13862
3.13581
3.13017
3.12881
3.13281
3.1416
3.14132
3.12934
3.10927
3.0914
3.08202
3.07944
3.07515
3.06183
3.04198
3.01594
2.99595
2.98395
2.97435
2.9605
2.9422
2.91961
2.89562
2.87475
2.85937
2.84723
2.83471
2.81975
2.80173
2.77813
2.74913
2.72018
2.70249
2.69374
2.68817
2.68146
2.6738
2.66218
2.64929
2.64202
2.64203
2.64952
2.66667
2.68935
2.70463
2.7119
2.7119
2.71485
2.72583
2.74377
2.76248
2.76865
2.77164
2.77504
2.78478
2.79873
2.82181
2.85268
2.87681
2.88086
4.42624
4.2942
4.13354
4.01504
3.93294
3.84675
3.76323
3.71399
3.67196
3.60313
3.51111
3.43962
3.40892
3.38465
3.34405
3.28472
3.22736
3.205
3.1987
3.18793
3.16716
3.14132
3.12895
3.12718
3.12712
3.11997
3.11026
3.10456
3.10256
3.10448
3.11073
3.11363
3.11358
3.11185
3.1137
3.12106
3.12816
3.12786
3.12251
3.12117
3.12603
3.13168
3.12682
3.1135
3.09535
3.08461
3.08082
3.08009
3.06948
3.05192
3.02731
3.00755
2.99606
2.98837
2.97646
2.95983
2.93724
2.912
2.89304
2.87982
2.86788
2.85487
2.84047
2.82352
2.80077
2.77244
2.74445
2.72627
2.71734
2.71145
2.70639
2.69987
2.69008
2.67575
2.66581
2.66473
2.67024
2.68504
2.7081
2.72769
2.73747
2.73725
2.7376
2.74418
2.75377
2.76579
2.77234
2.77379
2.77067
2.7723
2.77809
2.78907
2.80688
2.83538
2.85718
2.86539
4.53624
4.40818
4.26492
4.16056
4.07779
3.98083
3.89317
3.84437
3.79934
3.72414
3.62629
3.55876
3.52897
3.49917
3.45004
3.37835
3.31598
3.29126
3.27929
3.26063
3.23093
3.19276
3.17379
3.16682
3.15993
3.14774
3.13138
3.11727
3.111
3.1084
3.10916
3.10754
3.10449
3.10017
3.09897
3.10327
3.11131
3.11369
3.10878
3.10388
3.10601
3.1091
3.10394
3.09187
3.07801
3.0731
3.07379
3.06867
3.05381
3.03214
3.00832
2.99585
2.98937
2.98196
2.96797
2.94774
2.9228
2.90228
2.88971
2.87874
2.86635
2.85228
2.83638
2.81573
2.79023
2.76347
2.74628
2.737
2.72827
2.72131
2.71549
2.70767
2.69532
2.68645
2.68679
2.69238
2.70416
2.72285
2.74186
2.75315
2.75757
2.76315
2.77013
2.77695
2.78203
2.78198
2.77579
2.76983
2.77081
2.77387
2.77923
2.78882
2.7981
2.81228
2.82733
2.84311
4.63612
4.51285
4.38387
4.29029
4.20683
4.10431
4.01638
3.96569
3.91551
3.83364
3.73286
3.669
3.63736
3.60036
3.54234
3.46286
3.40625
3.3804
3.35974
3.33043
3.28793
3.23906
3.21685
3.20564
3.19236
3.175
3.15168
3.12886
3.11798
3.11092
3.10695
3.10162
3.09512
3.08765
3.08416
3.08623
3.09402
3.09712
3.09209
3.08335
3.08215
3.08599
3.08423
3.07377
3.06246
3.06034
3.06151
3.05287
3.0366
3.01207
2.9925
2.98448
2.98064
2.97031
2.95203
2.92774
2.90667
2.89567
2.88736
2.87793
2.86417
2.84626
2.82315
2.79783
2.77617
2.76217
2.75496
2.74939
2.74132
2.73246
2.7211
2.70854
2.70224
2.70496
2.71559
2.73257
2.75066
2.76446
2.77127
2.77301
2.77974
2.79115
2.80277
2.80758
2.80712
2.79745
2.7831
2.77843
2.77885
2.7842
2.79169
2.79614
2.79862
2.79978
2.80786
2.83089
4.7257
4.60954
4.49455
4.40991
4.32439
4.21737
4.1303
4.07749
4.02163
3.93424
3.83247
3.7695
3.7332
3.68788
3.62158
3.54015
3.48999
3.46102
3.43071
3.39041
3.33457
3.28183
3.25823
3.24215
3.22309
3.20026
3.16935
3.13986
3.12545
3.11469
3.10639
3.09838
3.08807
3.07757
3.07219
3.07244
3.07891
3.08163
3.07655
3.06677
3.06375
3.06714
3.06715
3.05824
3.04936
3.04756
3.04413
3.03511
3.01916
2.99537
2.98163
2.97688
2.97201
2.95936
2.938
2.91169
2.89648
2.88964
2.88841
2.87982
2.86355
2.8402
2.80973
2.78415
2.77008
2.76437
2.76468
2.76118
2.75465
2.74243
2.72519
2.71631
2.7189
2.73224
2.75566
2.78063
2.79618
2.80151
2.79872
2.80052
2.8092
2.82245
2.83343
2.83443
2.82686
2.80983
2.79784
2.79613
2.79879
2.80729
2.80971
2.80756
2.80271
2.80059
2.80429
2.82402
4.7994
4.69315
4.59268
4.51581
4.42974
4.3248
4.24163
4.18798
4.12435
4.0291
3.92618
3.864
3.82303
3.76997
3.69652
3.61531
3.56686
3.53278
3.49419
3.44436
3.37782
3.32521
3.30019
3.27916
3.25462
3.22564
3.18719
3.15297
3.13588
3.12216
3.10963
3.09799
3.08336
3.07019
3.06261
3.05981
3.06552
3.06735
3.06078
3.05073
3.04725
3.05135
3.05362
3.04591
3.03118
3.02589
3.02381
3.01599
3.00208
2.98498
2.97781
2.97515
2.96629
2.94962
2.92673
2.90383
2.89449
2.8899
2.8799
2.86673
2.85116
2.8287
2.80066
2.7825
2.77672
2.77923
2.77742
2.77077
2.76155
2.74599
2.73589
2.73816
2.74984
2.77258
2.79868
2.81591
2.82569
2.8258
2.82682
2.83318
2.84158
2.85048
2.85258
2.84784
2.83631
2.82284
2.81877
2.818
2.82146
2.82402
2.82002
2.81372
2.80531
2.80198
2.80309
2.81568
4.85971
4.76364
4.67437
4.60233
4.51719
4.41429
4.33687
4.28462
4.21596
4.11755
4.01818
3.95721
3.91145
3.85087
3.77057
3.68968
3.63973
3.59957
3.55443
3.49708
3.42429
3.37261
3.34425
3.31837
3.2884
3.25265
3.20699
3.17208
3.15243
3.13568
3.11992
3.10342
3.08154
3.06069
3.05262
3.04952
3.04906
3.04411
3.03382
3.0239
3.02124
3.02501
3.02714
3.02034
3.00634
2.9987
2.99781
2.99336
2.98223
2.96678
2.95856
2.95304
2.94305
2.93147
2.91958
2.90614
2.89205
2.87681
2.86247
2.84911
2.8346
2.81641
2.80254
2.79509
2.78568
2.77646
2.77051
2.7661
2.75944
2.75498
2.75888
2.76922
2.78588
2.80639
2.82402
2.83595
2.83931
2.84596
2.85445
2.8598
2.86241
2.86235
2.85789
2.84892
2.83995
2.83606
2.83363
2.83288
2.83149
2.82684
2.82045
2.81162
2.80349
2.79991
2.7985
2.80381
4.90612
4.8204
4.74158
4.67265
4.58714
4.49113
4.41698
4.3628
4.29215
4.19284
4.1051
4.0455
3.99525
3.92864
3.84039
3.76151
3.71098
3.66361
3.61146
3.54873
3.47538
3.42282
3.38781
3.35543
3.31988
3.27585
3.22434
3.19173
3.16912
3.14995
3.13315
3.11551
3.08852
3.05632
3.03938
3.03124
3.02609
3.01735
3.00335
2.98987
2.98642
2.9896
2.99136
2.98447
2.97039
2.96145
2.96165
2.96119
2.95268
2.93798
2.92881
2.92144
2.91191
2.90396
2.8964
2.88609
2.87131
2.85456
2.83934
2.82635
2.81511
2.80802
2.80246
2.79418
2.7835
2.77226
2.76467
2.76018
2.7597
2.76734
2.78149
2.79843
2.81533
2.83038
2.84128
2.8438
2.84991
2.86204
2.87022
2.87141
2.8688
2.86097
2.84827
2.84036
2.83886
2.842
2.84125
2.83474
2.82612
2.81511
2.80544
2.80008
2.79651
2.79337
2.79103
2.78611
4.94773
4.86796
4.79547
4.72541
4.63857
4.54961
4.48016
4.42539
4.3502
4.25319
4.17007
4.11514
4.0608
3.98704
3.89795
3.82611
3.77815
3.72834
3.67027
3.59976
3.52442
3.47103
3.42936
3.39114
3.35113
3.30246
3.24597
3.20994
3.18368
3.15838
3.1332
3.10491
3.07183
3.03948
3.02163
3.00966
2.99898
2.9856
2.96671
2.94777
2.9422
2.94395
2.94489
2.93727
2.92309
2.91405
2.91452
2.91815
2.91393
2.9024
2.89063
2.88021
2.87271
2.86894
2.86524
2.85606
2.84258
2.82766
2.81426
2.80384
2.79588
2.79122
2.78785
2.78288
2.77669
2.76785
2.76
2.75883
2.7635
2.77702
2.79695
2.8201
2.8389
2.84839
2.84865
2.84861
2.8573
2.86968
2.87707
2.87632
2.86996
2.85289
2.8372
2.83338
2.83556
2.84069
2.83705
2.82994
2.81586
2.79775
2.78817
2.78304
2.78056
2.77883
2.77547
2.76525
4.97054
4.89764
4.82965
4.75776
4.67342
4.59239
4.52843
4.47147
4.39023
4.29548
4.21962
4.16659
4.10792
4.029
3.93974
3.87799
3.8298
3.77446
3.70879
3.63316
3.56439
3.51358
3.46794
3.42106
3.36978
3.31316
3.26412
3.22502
3.19178
3.16057
3.12899
3.09408
3.05443
3.01837
2.9965
2.98106
2.96635
2.94935
2.92554
2.90294
2.89582
2.89639
2.89578
2.88771
2.87342
2.86357
2.86404
2.87018
2.86975
2.86216
2.84977
2.83937
2.83397
2.83182
2.82737
2.81806
2.80752
2.79813
2.79041
2.78309
2.77554
2.76908
2.76565
2.76325
2.76138
2.75959
2.7599
2.76394
2.77423
2.79089
2.81275
2.83682
2.85344
2.85781
2.85442
2.85603
2.8618
2.87222
2.87903
2.87707
2.86646
2.84738
2.83735
2.83334
2.83286
2.83514
2.83071
2.82097
2.80313
2.78821
2.7808
2.7749
2.77076
2.76573
2.75985
2.74469
4.98469
4.91724
4.85117
4.77809
4.69777
4.62359
4.56354
4.50033
4.41405
4.32499
4.25623
4.20419
4.13915
4.05457
3.96789
3.90851
3.85861
3.80007
3.73027
3.65107
3.58705
3.53587
3.48645
3.4356
3.37966
3.31652
3.26142
3.22131
3.18643
3.15284
3.1171
3.0765
3.03153
2.99473
2.97024
2.95062
2.93217
2.9116
2.88411
2.8617
2.8538
2.85214
2.84953
2.84144
2.82762
2.8173
2.81763
2.82456
2.82647
2.82113
2.81072
2.80312
2.80122
2.79971
2.79125
2.78009
2.77368
2.77067
2.7695
2.76573
2.75823
2.749
2.74414
2.74385
2.74817
2.75691
2.76613
2.77615
2.79038
2.8081
2.82601
2.84461
2.85844
2.86294
2.86476
2.8669
2.86899
2.87329
2.87676
2.87299
2.86184
2.85024
2.84403
2.83947
2.83547
2.8309
2.82333
2.81099
2.79681
2.78722
2.77947
2.77192
2.76468
2.75668
2.74617
2.72709
4.9928
4.92873
4.86262
4.78956
4.71375
4.64493
4.58484
4.51403
4.42669
4.34502
4.28231
4.22927
4.15674
4.06675
3.98625
3.92987
3.87762
3.81461
3.73913
3.6605
3.60142
3.5494
3.49693
3.44178
3.38044
3.31482
3.25997
3.21863
3.18129
3.14369
3.10328
3.05674
3.00955
2.97398
2.94871
2.92718
2.90626
2.88236
2.85091
2.82651
2.81606
2.81092
2.80713
2.8002
2.78826
2.77958
2.78017
2.78656
2.78701
2.78116
2.77426
2.77188
2.77438
2.77233
2.76196
2.75038
2.74659
2.74691
2.75095
2.74944
2.74391
2.73492
2.73014
2.73276
2.74218
2.76063
2.77869
2.79308
2.80902
2.82273
2.83337
2.84497
2.85888
2.87158
2.87802
2.87922
2.87769
2.87368
2.86904
2.86429
2.86034
2.85677
2.85225
2.84624
2.8388
2.82906
2.81668
2.80396
2.7946
2.78728
2.77998
2.77208
2.76253
2.7491
2.73225
2.71465
5.00133
4.93751
4.87036
4.79872
4.72748
4.66221
4.59841
4.52188
4.43769
4.36298
4.30495
4.24665
4.16643
4.07538
4.00299
3.94879
3.8934
3.82603
3.74529
3.66987
3.6131
3.5594
3.50439
3.44571
3.38054
3.31532
3.26337
3.22088
3.18032
3.13892
3.0944
3.04461
2.99843
2.96387
2.93729
2.91411
2.89076
2.86284
2.82795
2.80231
2.78914
2.78224
2.77698
2.76796
2.75535
2.74826
2.74942
2.75432
2.75156
2.7431
2.73905
2.74108
2.7483
2.74829
2.74036
2.72797
2.72352
2.72496
2.73146
2.73314
2.73139
2.72691
2.72571
2.73129
2.74336
2.76711
2.79238
2.81066
2.824
2.8319
2.83791
2.84802
2.86263
2.87836
2.88511
2.88656
2.88203
2.8712
2.86373
2.86088
2.86102
2.86053
2.85652
2.84988
2.83875
2.82356
2.81026
2.80163
2.79459
2.78771
2.78032
2.77117
2.75728
2.73645
2.71945
2.70546
5.0154
4.95157
4.88433
4.81457
4.74601
4.68034
4.61098
4.53255
4.45357
4.38438
4.32732
4.25965
4.1737
4.0887
4.0227
3.96991
3.91019
3.83814
3.75489
3.68567
3.62968
3.57425
3.51685
3.45469
3.3867
3.32439
3.27407
3.2297
3.18625
3.14173
3.09339
3.04235
2.99787
2.96427
2.93622
2.91027
2.88322
2.84933
2.81342
2.79067
2.77598
2.76521
2.75481
2.74105
2.72628
2.72055
2.72253
2.72659
2.7225
2.71155
2.70623
2.71022
2.72106
2.72554
2.72207
2.71083
2.703
2.70396
2.71013
2.71774
2.72082
2.7226
2.72657
2.73497
2.74947
2.7737
2.80057
2.82212
2.83375
2.83925
2.84646
2.85654
2.87027
2.88327
2.88734
2.88557
2.8762
2.86659
2.86367
2.86217
2.86235
2.85985
2.85424
2.84453
2.8298
2.8164
2.80822
2.80119
2.79407
2.78611
2.77605
2.76108
2.74046
2.71977
2.70929
2.6954
5.04193
4.97643
4.90806
4.83893
4.77103
4.70305
4.63031
4.5534
4.47894
4.4129
4.35161
4.27572
4.19029
4.11307
4.05005
3.99536
3.93017
3.85263
3.77185
3.71029
3.65466
3.59741
3.53699
3.46995
3.40069
3.34176
3.29194
3.24548
3.19964
3.15177
3.09916
3.04687
3.00436
2.97043
2.93917
2.90881
2.87684
2.83891
2.80501
2.78324
2.76621
2.75101
2.7346
2.71397
2.69759
2.69274
2.69524
2.69905
2.69514
2.68397
2.67627
2.68004
2.69186
2.70101
2.7018
2.69539
2.68512
2.68516
2.69057
2.70331
2.71336
2.72063
2.72944
2.74088
2.75794
2.77967
2.80264
2.82572
2.84013
2.84795
2.85677
2.86702
2.87742
2.88182
2.88085
2.87382
2.86808
2.86635
2.8657
2.86481
2.86142
2.85529
2.84571
2.83389
2.82309
2.81488
2.80738
2.79957
2.79099
2.77978
2.76397
2.74477
2.72746
2.71475
2.70586
2.68961
5.06569
5.00046
4.93341
4.86593
4.79813
4.7279
4.65394
4.5792
4.5084
4.44368
4.37608
4.29528
4.21009
4.13865
4.08193
4.02339
3.95055
3.86727
3.79739
3.73976
3.68309
3.62286
3.5576
3.4861
3.41948
3.3641
3.31369
3.26459
3.215
3.16222
3.10642
3.05559
3.01446
2.97825
2.94319
2.90698
2.86815
2.8284
2.79619
2.77388
2.75466
2.73559
2.71353
2.6853
2.66729
2.66186
2.66387
2.66728
2.66448
2.65562
2.64693
2.64905
2.65996
2.67319
2.67775
2.67655
2.66856
2.66931
2.67768
2.6938
2.70871
2.72118
2.73522
2.75233
2.76842
2.78362
2.80596
2.82802
2.84368
2.8581
2.87128
2.87892
2.8812
2.87847
2.87132
2.86786
2.86751
2.8696
2.86933
2.8656
2.85898
2.84777
2.83673
2.83007
2.82379
2.81674
2.80878
2.79912
2.78645
2.76974
2.75239
2.73774
2.72545
2.71542
2.70666
2.68866
5.08723
5.02256
4.95688
4.89035
4.8222
4.75142
4.67884
4.60717
4.53886
4.47208
4.3957
4.31135
4.23594
4.17498
4.1185
4.0473
3.96476
3.88512
3.82189
3.76586
3.70673
3.64228
3.57171
3.50061
3.4396
3.38573
3.33346
3.28062
3.22533
3.16737
3.11136
3.06345
3.0225
2.98401
2.94548
2.90375
2.85861
2.81658
2.78556
2.76277
2.74209
2.72079
2.69493
2.66139
2.63954
2.63159
2.63043
2.63278
2.63111
2.62487
2.61748
2.61715
2.62559
2.64137
2.65242
2.65609
2.65594
2.66223
2.67461
2.6925
2.71404
2.7347
2.75544
2.77638
2.79448
2.81245
2.83143
2.84645
2.85897
2.87145
2.88294
2.88658
2.88464
2.87944
2.87443
2.87267
2.87247
2.87472
2.87325
2.86792
2.85861
2.84597
2.83716
2.83138
2.82656
2.82072
2.81287
2.80124
2.78298
2.76435
2.74988
2.73819
2.72908
2.72058
2.71173
2.68992
5.10359
5.04018
4.97546
4.90923
4.84091
4.77065
4.69972
4.6297
4.56113
4.48991
4.41148
4.33364
4.26445
4.20397
4.13812
4.05892
3.97506
3.90501
3.84452
3.78679
3.72328
3.65362
3.57924
3.51341
3.45656
3.40211
3.34746
3.29085
3.23054
3.16855
3.11308
3.06742
3.02664
2.98684
2.94557
2.8997
2.85047
2.80671
2.77511
2.75115
2.7294
2.70724
2.68016
2.64518
2.61956
2.60867
2.60444
2.60347
2.60109
2.59635
2.59252
2.59372
2.60096
2.616
2.63238
2.6415
2.65112
2.66452
2.68212
2.70282
2.72565
2.74933
2.77326
2.79523
2.81536
2.83666
2.85578
2.86772
2.87659
2.88395
2.89037
2.89442
2.89438
2.89086
2.88524
2.88263
2.88142
2.88179
2.87897
2.8724
2.86146
2.84926
2.84267
2.83738
2.83261
2.82559
2.81559
2.8007
2.78202
2.76542
2.7542
2.74577
2.73805
2.72843
2.71439
2.6886
5.11072
5.04901
4.98538
4.9198
4.85216
4.78313
4.71363
4.6443
4.57438
4.50064
4.42395
4.35054
4.28392
4.22119
4.14602
4.06378
3.9879
3.9223
3.86331
3.80026
3.73322
3.65923
3.58512
3.52342
3.46735
3.41217
3.35659
3.29818
3.23453
3.17055
3.11554
3.0689
3.02604
2.9846
2.94273
2.89667
2.84647
2.80156
2.76749
2.74049
2.71656
2.69312
2.66679
2.63597
2.61052
2.59546
2.58524
2.5792
2.57532
2.57209
2.57434
2.58032
2.58678
2.59848
2.61371
2.62914
2.646
2.66554
2.6891
2.71397
2.73895
2.76387
2.78743
2.80852
2.83067
2.85526
2.87443
2.88415
2.89011
2.89428
2.89842
2.90316
2.90444
2.90321
2.89995
2.89562
2.89287
2.88957
2.88448
2.87717
2.86724
2.85783
2.85166
2.84544
2.83745
2.82736
2.81487
2.79964
2.78371
2.77283
2.76438
2.75498
2.74327
2.72876
2.71319
2.68916
5.1109
5.05026
4.98752
4.92278
4.85623
4.78852
4.72011
4.65098
4.57995
4.50612
4.43213
4.36158
4.2962
4.22659
4.14715
4.06866
3.99819
3.93526
3.87343
3.80726
3.73752
3.66196
3.59274
3.53275
3.47566
3.4194
3.36187
3.30028
3.23494
3.17272
3.11895
3.07162
3.02817
2.98608
2.94097
2.89194
2.84356
2.80197
2.76793
2.73827
2.71028
2.68244
2.65358
2.62637
2.60462
2.58792
2.57539
2.5647
2.55688
2.55514
2.55787
2.56813
2.57582
2.58538
2.59952
2.6172
2.63909
2.6642
2.69255
2.7221
2.74868
2.77319
2.79555
2.8161