/*--------------------------------*- C++ -*----------------------------------*\
  =========                 |
  \\      /  F ield         | OpenFOAM: The Open Source CFD Toolbox
   \\    /   O peration     | Website:  https://openfoam.org
    \\  /    A nd           | Version:  7
     \\/     M anipulation  |
\*---------------------------------------------------------------------------*/
FoamFile
{
    version     2.0;
    format      ascii;
    class       volScalarField;
    location    "20";
    object      T;
}
// * * * * * * * * * * * * * * * * * * * * * * * * * * * * * * * * * * * * * //

dimensions      [0 0 0 1 0 0 0];

internalField   nonuniform List<scalar> 
4032
(
1
1
1
1
1
1
1
1
1
1
1
1.73885
2.63722
2.71825
2.73034
2.7449
2.75742
2.76902
2.77953
2.7889
2.79714
2.80386
2.80913
2.81296
1
1
1
1
1
1
1
1
1
1
1
1.71653
2.62807
2.71696
2.72915
2.74346
2.7557
2.76695
2.77704
2.78591
2.79369
2.80002
2.805
2.80873
1
1
1
1
1
1
1
1
1
1
1
1.65483
2.60727
2.71194
2.72478
2.73957
2.75195
2.76317
2.773
2.78136
2.78851
2.79437
2.79896
2.80276
1
1
1
1
1
1
1
1
1
1
1
1.55152
2.56675
2.70137
2.71628
2.73263
2.7456
2.75708
2.76692
2.77505
2.78168
2.78673
2.79001
2.79248
1
1
1
1
1
1
1
1
1
1
1
1.4125
2.50836
2.69027
2.70518
2.72312
2.73652
2.74825
2.75788
2.76523
2.77036
2.7739
2.77537
2.77806
1
1
1
1
1
1
1
1
1
1
1
1.23583
2.42569
2.67922
2.69146
2.71097
2.7243
2.73594
2.74547
2.75283
2.7577
2.7604
2.75752
2.74983
1
1
1
1
1
1
1
1
1
1
1
1.03503
2.33094
2.67993
2.68312
2.69653
2.70755
2.71884
2.72836
2.73497
2.73689
2.73326
2.72272
2.71192
1
1
1
1
1
1
1
1
1
1
1
1.0005
2.20796
2.66314
2.66795
2.67853
2.68873
2.6981
2.70618
2.71065
2.70916
2.70468
2.69944
2.71236
1
1
1
1
1
1
1
1
1
1
1
0.999999
2.02633
2.6355
2.66122
2.66863
2.67441
2.67936
2.68298
2.68256
2.67567
2.65843
2.61436
2.52774
1
1
1
1
1
1
1
1
1
1
1
1
1.77425
2.56027
2.64172
2.65552
2.66111
2.66356
2.66114
2.65519
2.64027
2.60667
2.55344
2.41258
1
1
1
1
1
1
1
1
1
1
1
1
1.41098
2.41979
2.61699
2.63676
2.64537
2.64492
2.63984
2.62838
2.60779
2.56596
2.50298
2.32978
1
1
1
1
1
1
1
1
1
1
1
1
1.05009
2.27562
2.60514
2.60807
2.61756
2.62015
2.61613
2.60345
2.57957
2.53653
2.46524
2.32534
1
1
1
1
1
1
1
1
1
1
1
1
1.00052
2.08734
2.56159
2.5788
2.58943
2.59227
2.58946
2.57819
2.55463
2.51427
2.44425
2.33503
1
1
1
1
1
1
1
1
1
1
1
1
0.999995
1.72936
2.48224
2.55415
2.56593
2.56894
2.56517
2.55399
2.53194
2.49473
2.43254
2.35351
1
1
1
1
1
1
1
1
1
1
1
1
0.999999
1.23742
2.34427
2.55428
2.54579
2.54505
2.5399
2.52928
2.50878
2.47547
2.42794
2.37585
1
1
1
1
1
1
1
1
1
1
1
1
1
1.01416
2.19149
2.52914
2.52766
2.52557
2.51929
2.50743
2.48801
2.46153
2.42814
2.39304
1
1
1
1
1
1
1
1
1
1
1
1
1
1.00001
1.85268
2.47941
2.5212
2.51626
2.50758
2.49469
2.47722
2.45566
2.42958
2.40324
1
1
1
1
1
1
1
1
1
1
1
1
1
0.999996
1.34031
2.35926
2.52244
2.50991
2.50041
2.48708
2.47093
2.4525
2.43073
2.40871
1
1
1
1
1
1
1
1
1
1
1
1
1
0.999999
1.02892
2.21806
2.51857
2.51046
2.49807
2.48799
2.47312
2.45553
2.43506
2.41526
1
1
1
1
1
1
1
1
1
1
1
1
1
1
1.00011
1.92774
2.49177
2.51348
2.50443
2.49306
2.47786
2.46114
2.44172
2.42283
1
1
1
1
1
1
1
1
1
1
1
1
1
1
0.999999
1.45883
2.40802
2.53886
2.51666
2.50088
2.48522
2.4686
2.44972
2.43177
1
1
1
1
1
1
1
1
1
1
1
1
1
1
1
1.05385
2.2988
2.55071
2.52519
2.51063
2.49547
2.47863
2.46018
2.4428
1
1
1
1
1
1
1
1
1
1
1
1
1
1
1
1.00054
2.1443
2.5649
2.54771
2.53083
2.51203
2.49284
2.47361
2.45591
1
1
1
1
1
1
1
1
1
1
1
1
1
1
1
0.999997
1.91777
2.57481
2.57388
2.55445
2.53332
2.51192
2.4916
2.4729
1
1
1
1
1
1
1
1
1
1
1
1
1
1
1
0.999999
1.63622
2.52621
2.58832
2.56625
2.54866
2.52959
2.51065
2.49195
1
1
1
1
1
1
1
1
1
1
1
1
1
1
1
1
1.32124
2.43398
2.61511
2.58613
2.56944
2.55127
2.53281
2.51369
1
1
1
1
1
1
1
1
1
1
1
1
1
1
1
1
1.0646
2.35412
2.63226
2.60133
2.58518
2.56867
2.55162
2.53348
1
1
1
1
1
1
1
1
1
1
1
1
1
1
1
1
1.0012
2.2618
2.64519
2.619
2.60369
2.58786
2.57143
2.55407
1
1
1
1
1
1
1
1
1
1
1
1
1
1
1
1
1
2.15457
2.6508
2.6385
2.62309
2.60775
2.59165
2.57484
1
1
1
1
1
1
1
1
1
1
1
1
1
1
1
1
1
2.03405
2.64162
2.64956
2.63456
2.6218
2.60701
2.59148
1
1
1
1
1
1
1
1
1
1
1
1
1
1
1
1
1
1.90604
2.61316
2.65091
2.63495
2.62507
2.6127
2.59991
1
1
1
1
1
1
1
1
1
1
1
1
1
1
1
1
1
1.77272
2.57777
2.65182
2.63495
2.62629
2.61512
2.60358
1
1
1
1
1
1
1
1
1
1
1
1
1
1
1
1
1
1.64977
2.54737
2.65165
2.63297
2.6245
2.61375
2.60258
1
1
1
1
1
1
1
1
1
1
1
1
1
1
1
1
1
1.54655
2.52529
2.65468
2.634
2.62448
2.61331
2.60195
1
1
1
1
1
1
1
1
1
1
1
1
1
1
1
1
1
1.46025
2.50394
2.66089
2.63859
2.62771
2.61566
2.60376
1
1
1
1
1
1
1
1
1
1
1
1
1
1
1
1
1
1.37056
2.48142
2.66661
2.64437
2.63336
2.62094
2.60863
1
1
1
1
1
1
1
1
1
1
1
1
1
1
1
1
1
1.31278
2.46365
2.67098
2.64946
2.63895
2.62685
2.61469
1
1
1
1
1
1
1
1
1
1
1
1
1
1
1
1
1
1.27863
2.45063
2.67375
2.65327
2.64317
2.63143
2.6196
1
1
1
1
1
1
1
1
1
1
1
1
1
1
1
1
1
1.25378
2.43965
2.67521
2.65576
2.64586
2.6343
2.62264
1
1
1
1
1
1
1
1
1
1
1
1
1
1
1
1
1
1.2435
2.4344
2.67468
2.65611
2.64666
2.63528
2.62375
1.86181
2.05237
2.29822
2.42496
2.47003
2.49393
2.51968
2.54476
2.56403
2.57426
2.5824
2.58579
2.59077
2.59442
2.5967
2.59877
2.60196
2.60663
2.61287
2.62004
2.62782
2.63633
2.6454
2.65407
2.66099
2.66531
2.66692
2.6664
2.6646
2.66259
2.66129
2.6608
2.6607
2.66048
2.65971
2.65794
2.65511
2.65125
2.64578
2.63818
2.62867
2.61807
2.60711
2.59677
2.58749
2.5791
2.57118
2.5632
2.55497
2.54654
2.53801
2.52933
2.51995
2.50926
2.49721
2.48446
2.47194
2.46038
2.45001
2.44055
2.43142
2.42204
2.41248
2.40326
2.39471
2.38684
2.37879
2.36948
2.35912
2.34885
2.33909
2.33021
2.3223
2.31528
2.30886
2.30308
2.29813
2.29447
2.29168
2.29149
2.29152
2.29213
2.29388
2.29759
2.30427
2.31494
2.32921
2.3435
2.35454
2.36206
2.36742
2.37162
2.37517
2.37688
2.37745
2.37826
2.12012
2.26462
2.37592
2.44096
2.47768
2.50338
2.53017
2.54958
2.56029
2.56617
2.56927
2.57129
2.57659
2.584
2.59318
2.60189
2.60799
2.61232
2.61619
2.62123
2.62767
2.63412
2.63938
2.6432
2.64635
2.64947
2.65217
2.65347
2.65292
2.65044
2.64697
2.64387
2.64169
2.64015
2.63839
2.63532
2.63034
2.6238
2.61665
2.60954
2.60233
2.59398
2.5845
2.57443
2.56461
2.55574
2.54792
2.54072
2.5333
2.52474
2.51491
2.50454
2.49442
2.48496
2.47545
2.46493
2.45349
2.44205
2.43144
2.4221
2.41398
2.40641
2.3985
2.39006
2.38154
2.37328
2.36519
2.35684
2.34762
2.33811
2.32872
2.31984
2.31174
2.30434
2.29783
2.2923
2.28759
2.28405
2.28139
2.28097
2.28136
2.28204
2.28372
2.28724
2.29356
2.30364
2.31726
2.33095
2.34152
2.34853
2.35314
2.3566
2.35978
2.36179
2.36212
2.36149
2.14497
2.21748
2.23671
2.30343
2.37865
2.43479
2.47483
2.49503
2.50599
2.51537
2.53104
2.54676
2.5567
2.56596
2.57702
2.58795
2.59485
2.59499
2.59188
2.58974
2.59127
2.59659
2.60178
2.60277
2.60087
2.59774
2.5959
2.59573
2.59618
2.59576
2.59314
2.5886
2.58367
2.57943
2.57601
2.57263
2.56784
2.56062
2.55125
2.54139
2.53252
2.52469
2.51726
2.50924
2.50023
2.49103
2.48248
2.47488
2.46849
2.46253
2.45464
2.44433
2.43304
2.42234
2.41312
2.40486
2.39603
2.38633
2.37644
2.36705
2.35871
2.35185
2.34616
2.34029
2.33358
2.32642
2.31898
2.31127
2.30374
2.29634
2.28923
2.28229
2.27527
2.26844
2.26231
2.25718
2.25333
2.251
2.24954
2.25016
2.25147
2.25309
2.2556
2.25995
2.26693
2.27711
2.29047
2.30471
2.31584
2.323
2.32704
2.3294
2.33115
2.33321
2.33522
2.3345
2.17599
2.22454
2.19682
2.21704
2.28312
2.33463
2.35999
2.38476
2.40984
2.4258
2.44794
2.47661
2.49354
2.49713
2.49861
2.50123
2.5069
2.51085
2.50971
2.50435
2.49854
2.49555
2.49588
2.49765
2.49755
2.49408
2.48796
2.48208
2.47801
2.47546
2.47293
2.46892
2.46309
2.45659
2.45061
2.44565
2.44128
2.43621
2.42944
2.42063
2.41233
2.40557
2.40052
2.39628
2.39054
2.38241
2.37337
2.36491
2.35815
2.35343
2.34831
2.34033
2.33153
2.32221
2.31408
2.30774
2.30156
2.29453
2.28676
2.27876
2.27112
2.26472
2.25967
2.25508
2.25008
2.24464
2.23863
2.23205
2.22525
2.2187
2.21279
2.20744
2.20246
2.19775
2.19322
2.18885
2.18574
2.18406
2.1836
2.18434
2.18639
2.1891
2.19229
2.19719
2.20417
2.21369
2.22618
2.24049
2.25341
2.26287
2.2679
2.26995
2.27085
2.27227
2.27552
2.27869
2.23378
2.24949
2.21296
2.18721
2.2047
2.23032
2.24227
2.26223
2.29337
2.31419
2.32217
2.33979
2.35764
2.36411
2.36356
2.36581
2.36912
2.37564
2.37984
2.37888
2.37461
2.36849
2.36423
2.36298
2.36263
2.36076
2.35569
2.34933
2.34436
2.34119
2.33918
2.33711
2.33378
2.32911
2.32405
2.31919
2.31481
2.31116
2.30777
2.30367
2.29965
2.2959
2.29175
2.28697
2.28196
2.27611
2.27015
2.26584
2.2614
2.25518
2.24876
2.24198
2.23558
2.22974
2.22372
2.21717
2.21025
2.20307
2.19629
2.19061
2.18593
2.18163
2.17706
2.1721
2.16678
2.16123
2.15577
2.15044
2.14516
2.13991
2.13451
2.12933
2.12481
2.1211
2.11796
2.11515
2.11286
2.11119
2.11151
2.11254
2.11514
2.11906
2.1228
2.12718
2.13315
2.14121
2.15117
2.16315
2.17572
2.18686
2.19417
2.19691
2.19764
2.19843
2.1997
2.20199
2.2878
2.28621
2.24491
2.19851
2.1868
2.19012
2.18741
2.1911
2.20888
2.22645
2.22873
2.2322
2.2406
2.24342
2.24328
2.23931
2.24
2.24593
2.25119
2.25047
2.24656
2.24255
2.24056
2.24157
2.24451
2.2446
2.2422
2.2383
2.23567
2.23519
2.23643
2.23784
2.23743
2.23468
2.23108
2.22797
2.22652
2.22659
2.22688
2.22496
2.22
2.21417
2.20842
2.20449
2.20256
2.20194
2.19893
2.19381
2.18762
2.18083
2.17538
2.17103
2.16663
2.16134
2.15462
2.14673
2.13908
2.13313
2.12881
2.12498
2.12071
2.11572
2.10984
2.10329
2.09689
2.09146
2.08717
2.08347
2.07971
2.07505
2.06909
2.06288
2.05817
2.05515
2.05305
2.05172
2.05062
2.04945
2.04971
2.05038
2.05274
2.05744
2.06178
2.06698
2.07399
2.08085
2.08783
2.09636
2.1064
2.11692
2.12668
2.13316
2.13496
2.13528
2.13531
2.13578
2.33532
2.32221
2.27756
2.23029
2.2039
2.19587
2.18668
2.18098
2.18591
2.18895
2.18496
2.1805
2.18142
2.18174
2.17878
2.1708
2.1693
2.17407
2.17826
2.17755
2.17128
2.16819
2.16848
2.17083
2.17403
2.17381
2.17282
2.17142
2.17073
2.17164
2.17529
2.17658
2.17541
2.17253
2.16999
2.1693
2.17042
2.17252
2.17207
2.16856
2.16386
2.15935
2.15597
2.15451
2.15446
2.15229
2.14806
2.14264
2.13696
2.13182
2.12749
2.12319
2.11811
2.11177
2.10458
2.09771
2.09217
2.08792
2.08412
2.07989
2.07471
2.06859
2.06218
2.05606
2.05057
2.04618
2.04271
2.03934
2.03505
2.0286
2.02098
2.01461
2.01111
2.0094
2.00848
2.00812
2.00777
2.00693
2.00595
2.00602
2.00838
2.01372
2.01993
2.02699
2.03341
2.03739
2.04135
2.0464
2.05336
2.06242
2.07303
2.08243
2.08689
2.08725
2.08701
2.08744
2.36639
2.34773
2.30444
2.26349
2.23739
2.22093
2.20379
2.19189
2.19059
2.1867
2.17582
2.16459
2.16143
2.16083
2.15563
2.14564
2.14024
2.14203
2.14418
2.14246
2.13643
2.13365
2.13422
2.1362
2.13783
2.13729
2.1366
2.13649
2.13637
2.13747
2.14076
2.14137
2.1407
2.13952
2.13925
2.14036
2.14316
2.14331
2.14079
2.1369
2.13406
2.13248
2.13269
2.13325
2.12994
2.12464
2.11881
2.11397
2.11049
2.10748
2.10296
2.09734
2.09069
2.08331
2.07737
2.0733
2.06939
2.06459
2.05943
2.05389
2.04762
2.04136
2.03634
2.03212
2.02784
2.02321
2.01866
2.01377
2.00723
1.99958
1.99325
1.98921
1.98666
1.98508
1.98427
1.98378
1.98308
1.98158
1.9809
1.9823
1.98615
1.99228
1.99904
2.00432
2.0075
2.01112
2.01493
2.01865
2.02366
2.03074
2.0395
2.04841
2.05532
2.06002
2.062
2.06359
2.38324
2.36321
2.32497
2.29116
2.27016
2.25332
2.23421
2.22005
2.21223
2.20059
2.18367
2.16905
2.1633
2.16059
2.15361
2.1419
2.13299
2.13196
2.13326
2.13101
2.1261
2.12159
2.12093
2.12192
2.12266
2.12147
2.11994
2.11983
2.11999
2.12112
2.1237
2.12443
2.12417
2.12385
2.12402
2.12522
2.12662
2.12548
2.1226
2.12013
2.11922
2.11978
2.12085
2.11802
2.11226
2.10637
2.10195
2.09907
2.09759
2.09445
2.08924
2.08264
2.07489
2.06884
2.06549
2.06288
2.05873
2.05304
2.04643
2.0394
2.033
2.02869
2.02546
2.02208
2.01772
2.01242
2.00577
1.99792
1.98995
1.98488
1.98235
1.98
1.97718
1.97487
1.97281
1.97056
1.96937
1.96953
1.9718
1.97585
1.98114
1.98591
1.98889
1.99049
1.99361
1.9983
2.00324
2.00723
2.00991
2.01296
2.01745
2.02345
2.03086
2.03923
2.04431
2.04571
2.39132
2.37086
2.33819
2.3118
2.29555
2.27998
2.26208
2.24982
2.24062
2.22529
2.20382
2.18569
2.17759
2.17215
2.1629
2.14903
2.13632
2.13212
2.13221
2.13006
2.12496
2.11931
2.11612
2.11593
2.11591
2.11371
2.11087
2.10944
2.10927
2.10993
2.11156
2.11174
2.11084
2.10959
2.10978
2.11038
2.11081
2.10962
2.10711
2.10587
2.10601
2.10731
2.10665
2.10191
2.09544
2.09067
2.0883
2.0873
2.08557
2.08124
2.07536
2.0681
2.06259
2.05933
2.05676
2.05294
2.04772
2.04127
2.03442
2.02854
2.02447
2.0213
2.01791
2.01366
2.00834
2.00141
1.99291
1.98463
1.98003
1.9779
1.97644
1.97439
1.97178
1.9678
1.96378
1.96204
1.96224
1.96489
1.97023
1.97647
1.98034
1.98215
1.98204
1.98292
1.98636
1.99166
1.99656
1.99768
1.99804
1.99853
2.00064
2.00437
2.01097
2.01993
2.02591
2.0276
2.39812
2.37658
2.34739
2.32633
2.3124
2.2964
2.27986
2.27043
2.2622
2.2467
2.22418
2.20589
2.19782
2.19112
2.17957
2.16258
2.14612
2.13931
2.13724
2.1339
2.1276
2.11946
2.11469
2.11274
2.11124
2.10766
2.10367
2.10082
2.09886
2.09853
2.09874
2.09804
2.09602
2.09387
2.0938
2.09438
2.095
2.09452
2.09205
2.09046
2.0907
2.09136
2.08942
2.08476
2.07922
2.07611
2.07493
2.07438
2.07078
2.06554
2.05873
2.05319
2.04997
2.04782
2.04452
2.0398
2.03342
2.02641
2.02135
2.01786
2.01475
2.01127
2.00714
2.00214
1.99546
1.9873
1.97956
1.97469
1.97236
1.97085
1.96945
1.96757
1.96458
1.95999
1.95723
1.95716
1.95915
1.96374
1.97052
1.97617
1.97888
1.97869
1.97861
1.98004
1.98248
1.98586
1.98741
1.98765
1.98628
1.98624
1.98714
1.98986
1.99503
2.00305
2.00878
2.01107
2.40535
2.38349
2.35773
2.33991
2.32596
2.30797
2.29139
2.28301
2.27496
2.2591
2.23654
2.22053
2.21357
2.20626
2.19348
2.17434
2.15728
2.15008
2.14625
2.14038
2.13117
2.11985
2.11335
2.11009
2.10684
2.10217
2.09649
2.09133
2.08833
2.08635
2.0852
2.08322
2.08062
2.07781
2.07688
2.0774
2.07828
2.07833
2.07608
2.07341
2.07323
2.07343
2.07142
2.06724
2.06301
2.06142
2.06134
2.05949
2.05498
2.04907
2.0426
2.03881
2.0366
2.0343
2.03046
2.02508
2.01831
2.01267
2.0092
2.00627
2.00287
1.99893
1.99442
1.98856
1.98151
1.97413
1.96951
1.96695
1.96453
1.96262
1.96117
1.95933
1.9562
1.95388
1.95408
1.95566
1.95922
1.96487
1.97056
1.97388
1.97506
1.97643
1.97808
1.97964
1.98067
1.98056
1.9787
1.97685
1.97696
1.97749
1.97843
1.98057
1.98297
1.987
1.99138
1.9954
2.41419
2.39192
2.3682
2.35188
2.33723
2.31784
2.30127
2.29255
2.28347
2.26649
2.24402
2.22973
2.2229
2.21443
2.20029
2.18023
2.16548
2.15844
2.15253
2.14402
2.13186
2.1181
2.11105
2.10694
2.10215
2.0962
2.08874
2.08145
2.0774
2.07442
2.0721
2.06931
2.06603
2.06261
2.06102
2.06129
2.06243
2.06258
2.06028
2.05695
2.05612
2.05659
2.0557
2.05216
2.04879
2.04807
2.04815
2.04537
2.04064
2.03408
2.02875
2.02625
2.02483
2.02166
2.01659
2.01014
2.0045
2.00148
1.99924
1.99659
1.99259
1.98759
1.98146
1.97455
1.96854
1.96493
1.96286
1.96115
1.95894
1.95669
1.95404
1.95153
1.95035
1.9511
1.95399
1.95867
1.9639
1.96827
1.97046
1.97082
1.97246
1.97542
1.97857
1.97987
1.97974
1.97703
1.97327
1.9718
1.97169
1.97278
1.97458
1.9755
1.97583
1.97605
1.97841
1.98455
2.42498
2.40282
2.38089
2.36533
2.34932
2.32835
2.31147
2.30182
2.29118
2.27297
2.25067
2.23693
2.22922
2.21909
2.20348
2.18358
2.17098
2.16356
2.15558
2.1449
2.13002
2.11551
2.10861
2.10365
2.09767
2.09047
2.08129
2.07259
2.06805
2.06452
2.06147
2.0582
2.05437
2.0508
2.0487
2.04848
2.04943
2.04957
2.04739
2.04423
2.04322
2.04381
2.04359
2.04066
2.03777
2.03718
2.03616
2.03356
2.02917
2.02293
2.01926
2.01782
2.01625
2.01236
2.00613
1.99901
1.995
1.993
1.99236
1.98979
1.98545
1.97949
1.97175
1.96512
1.9613
1.95966
1.95956
1.95841
1.9568
1.95413
1.95013
1.9479
1.94854
1.95208
1.95872
1.96616
1.97066
1.97207
1.97116
1.97157
1.97389
1.97767
1.98076
1.981
1.97899
1.97437
1.97106
1.97061
1.97137
1.97369
1.9743
1.97365
1.97239
1.97171
1.97267
1.97783
2.4376
2.41598
2.39579
2.3806
2.36342
2.34215
2.32541
2.31489
2.30198
2.28172
2.25917
2.24558
2.23672
2.22483
2.20779
2.18841
2.17664
2.16821
2.15842
2.14567
2.12849
2.11452
2.10769
2.10196
2.09525
2.08735
2.07681
2.06736
2.06234
2.05827
2.0547
2.05132
2.04716
2.04345
2.04094
2.03948
2.04025
2.04026
2.03818
2.03572
2.03488
2.03591
2.03642
2.03414
2.02979
2.02826
2.02771
2.02554
2.02159
2.01685
2.01498
2.01436
2.012
2.00748
2.00124
1.99469
1.99166
1.99009
1.98712
1.98361
1.9799
1.97444
1.96692
1.96227
1.96094
1.96149
1.9608
1.95899
1.95677
1.95289
1.95024
1.95067
1.95371
1.96037
1.96809
1.97299
1.97531
1.97495
1.97499
1.97688
1.97946
1.98212
1.98275
1.98126
1.97767
1.97402
1.9731
1.97309
1.97478
1.97593
1.9749
1.9731
1.97107
1.9704
1.97061
1.97387
2.45353
2.43223
2.41286
2.39732
2.37917
2.35747
2.34119
2.33021
2.31553
2.29419
2.27225
2.25873
2.24851
2.23478
2.21629
2.19725
2.18531
2.17557
2.16438
2.14992
2.13164
2.11851
2.11119
2.10448
2.09681
2.08778
2.07584
2.06643
2.06085
2.05606
2.05213
2.04884
2.04438
2.03906
2.03635
2.03515
2.03479
2.03341
2.03104
2.02907
2.02858
2.02974
2.03043
2.02878
2.02518
2.0231
2.02285
2.02162
2.01846
2.01396
2.01167
2.01033
2.00787
2.0051
2.00195
1.99777
1.99343
1.98919
1.98568
1.98232
1.97835
1.97311
1.96902
1.96684
1.96432
1.96195
1.96026
1.95892
1.95691
1.95542
1.95646
1.95959
1.9646
1.97051
1.97529
1.97823
1.97859
1.98007
1.98273
1.98461
1.98548
1.98547
1.98403
1.98115
1.97848
1.97766
1.97757
1.97791
1.97794
1.9769
1.97514
1.97269
1.9708
1.97025
1.97009
1.97194
2.4721
2.45137
2.43267
2.41645
2.3971
2.37582
2.35931
2.34713
2.33139
2.3095
2.28995
2.27648
2.26503
2.2498
2.22944
2.2109
2.1989
2.18762
2.17508
2.15985
2.14191
2.129
2.12031
2.11211
2.10302
2.0919
2.07902
2.07081
2.06523
2.06065
2.05684
2.05309
2.04708
2.03896
2.03454
2.03309
2.03272
2.03119
2.02784
2.02495
2.02436
2.02548
2.02633
2.025
2.02176
2.01956
2.01975
2.01979
2.01781
2.01388
2.01114
2.0091
2.00675
2.00463
2.0022
1.99901
1.99495
1.99053
1.98636
1.98253
1.97876
1.97606
1.97433
1.97191
1.96883
1.96575
1.96332
1.96125
1.96092
1.96292
1.96684
1.97164
1.97639
1.9805
1.98326
1.98346
1.98472
1.98829
1.99105
1.99155
1.9909
1.98865
1.9847
1.98254
1.98248
1.98381
1.98381
1.98237
1.98006
1.97695
1.97435
1.9732
1.97248
1.97189
1.97152
1.97138
2.49347
2.47317
2.45482
2.4374
2.41682
2.3961
2.37971
2.36665
2.34934
2.32743
2.3085
2.29577
2.2832
2.26629
2.24573
2.22889
2.21762
2.20597
2.19238
2.17564
2.15746
2.14456
2.1346
2.12552
2.11591
2.10385
2.08978
2.08136
2.07565
2.07019
2.06419
2.05686
2.04825
2.04035
2.03681
2.03495
2.03344
2.03094
2.02665
2.02251
2.02167
2.02244
2.02316
2.02192
2.01883
2.0166
2.0169
2.01829
2.01744
2.01455
2.01122
2.00822
2.00615
2.00491
2.00361
2.0009
1.99705
1.99265
1.98848
1.98498
1.98219
1.98039
1.97898
1.97722
1.97508
1.97192
1.96896
1.96844
1.96986
1.97354
1.97871
1.98483
1.99
1.99246
1.99229
1.99201
1.99444
1.99826
2.00048
2.00027
1.99838
1.99341
1.9892
1.98863
1.98965
1.99132
1.99033
1.98843
1.98469
1.97971
1.97727
1.9761
1.9756
1.97528
1.97449
1.97254
2.51426
2.49512
2.47725
2.45885
2.43812
2.41834
2.40247
2.38835
2.36922
2.34727
2.32946
2.31683
2.30304
2.28488
2.2643
2.24989
2.23867
2.22582
2.21054
2.19273
2.17636
2.16441
2.1538
2.14292
2.13085
2.11729
2.10547
2.09629
2.08865
2.08141
2.07382
2.06514
2.05518
2.04662
2.04211
2.03913
2.03612
2.03241
2.02677
2.02151
2.02069
2.02134
2.02179
2.02067
2.01754
2.01491
2.01512
2.01707
2.01705
2.01519
2.01182
2.00872
2.00692
2.00614
2.00478
2.00208
1.99886
1.99576
1.99305
1.9905
1.98799
1.98569
1.98401
1.98275
1.98144
1.97985
1.97973
1.98098
1.9839
1.98818
1.99375
2.00021
2.00482
2.0057
2.00457
2.00499
2.00685
2.01006
2.01192
2.01124
2.00804
2.00277
2.00044
1.99965
1.99963
2.00034
1.99915
1.99654
1.99162
1.98759
1.98585
1.98443
1.98339
1.98205
1.98049
1.97644
2.53594
2.51793
2.50034
2.48145
2.46127
2.44262
2.42725
2.41143
2.39081
2.3697
2.35316
2.3405
2.32508
2.3054
2.28518
2.27122
2.25953
2.24589
2.22962
2.21099
2.19591
2.18397
2.17249
2.1606
2.14729
2.13214
2.11899
2.10951
2.10126
2.09328
2.08487
2.07511
2.06402
2.05513
2.04954
2.04505
2.04072
2.03578
2.02881
2.02337
2.0221
2.02237
2.02236
2.02091
2.0175
2.01458
2.01469
2.01676
2.0173
2.01592
2.01309
2.01072
2.00997
2.00941
2.00683
2.00347
2.00145
2.00035
1.99967
1.99811
1.99548
1.99239
1.99022
1.98971
1.99045
1.99229
1.99471
1.99735
2.00103
2.00554
2.01019
2.01524
2.01886
2.01975
2.02018
2.02094
2.02172
2.02298
2.0238
2.02266
2.01951
2.01655
2.01505
2.0138
2.01265
2.01144
2.00934
2.00587
2.00192
1.99955
1.99772
1.99581
1.99378
1.99144
1.98842
1.98295
2.55755
2.54037
2.52292
2.50419
2.48508
2.46762
2.45218
2.43456
2.4135
2.39381
2.37845
2.36537
2.34803
2.32683
2.30777
2.29432
2.2819
2.26705
2.24924
2.23052
2.21646
2.20412
2.1917
2.17859
2.16379
2.14768
2.13428
2.12427
2.11522
2.10623
2.09648
2.08485
2.0728
2.0639
2.05778
2.05252
2.04734
2.04133
2.03319
2.027
2.02458
2.02353
2.02284
2.02112
2.01784
2.01543
2.01565
2.01768
2.01794
2.01631
2.01403
2.01319
2.01392
2.01328
2.00997
2.00611
2.00477
2.0048
2.00583
2.00515
2.00307
1.99994
1.99817
1.99875
2.00106
2.00596
2.01067
2.0144
2.01861
2.0222
2.02493
2.02798
2.0317
2.03511
2.03694
2.03743
2.037
2.03559
2.03411
2.03279
2.03176
2.03085
2.02967
2.02809
2.02597
2.02312
2.01954
2.01585
2.01337
2.01162
2.00982
2.00765
2.00482
2.00077
1.99583
1.99076
2.57549
2.5594
2.54264
2.52493
2.5073
2.49094
2.4749
2.45618
2.43591
2.41778
2.40342
2.38902
2.36978
2.34819
2.33085
2.31772
2.3043
2.2881
2.26868
2.25043
2.23662
2.22354
2.21015
2.19581
2.1797
2.16335
2.15033
2.13964
2.12939
2.11888
2.10741
2.0944
2.08226
2.07324
2.06639
2.06048
2.05443
2.04701
2.03754
2.03056
2.02698
2.025
2.02349
2.02111
2.01781
2.01602
2.01645
2.01813
2.01753
2.01508
2.01338
2.01381
2.01575
2.01569
2.01324
2.00915
2.0074
2.00759
2.00927
2.00978
2.0091
2.00745
2.0069
2.00831
2.01144
2.01786
2.02473
2.02982
2.03354
2.03565
2.03713
2.03979
2.044
2.04886
2.05088
2.05106
2.04935
2.04592
2.0437
2.04295
2.04307
2.04293
2.04167
2.03962
2.03638
2.03202
2.02813
2.02564
2.02369
2.02176
2.01958
2.01678
2.01274
2.00682
2.00186
1.99773
2.58639
2.57218
2.55685
2.54066
2.52449
2.50877
2.49219
2.47363
2.45489
2.43827
2.42429
2.40791
2.38751
2.36727
2.35131
2.33838
2.32372
2.30612
2.28582
2.26877
2.25484
2.241
2.22663
2.211
2.19376
2.17775
2.16474
2.15327
2.14198
2.13018
2.1172
2.10346
2.09145
2.08229
2.07458
2.06753
2.06006
2.05056
2.04041
2.0338
2.02943
2.02638
2.02362
2.02003
2.01607
2.01457
2.0152
2.0165
2.01534
2.01215
2.0106
2.01172
2.01472
2.0159
2.01479
2.01127
2.00871
2.00876
2.01016
2.01229
2.01308
2.01342
2.01432
2.01649
2.02038
2.02711
2.03483
2.04123
2.04459
2.04601
2.04785
2.05052
2.05443
2.05835
2.05956
2.05899
2.05607
2.05318
2.05229
2.05183
2.05185
2.05102
2.04911
2.04612
2.04185
2.03803
2.03565
2.03358
2.03137
2.02881
2.02558
2.02112
2.01517
2.00924
2.00625
2.00207
2.59109
2.57771
2.56342
2.54862
2.53377
2.51865
2.50234
2.48495
2.46788
2.45253
2.43813
2.42029
2.40018
2.38188
2.36682
2.35352
2.33757
2.31859
2.29885
2.28354
2.26954
2.25504
2.23967
2.22253
2.20469
2.18933
2.17624
2.16396
2.15176
2.13889
2.12465
2.11037
2.0986
2.0891
2.08028
2.07153
2.06234
2.05145
2.0416
2.03525
2.03038
2.02624
2.02183
2.01594
2.01117
2.00969
2.01039
2.01146
2.01028
2.00711
2.00501
2.00627
2.00996
2.0127
2.01283
2.01083
2.00778
2.00774
2.00912
2.01266
2.01537
2.01709
2.0194
2.02249
2.02722
2.03354
2.04066
2.04762
2.05174
2.05385
2.0562
2.05889
2.06166
2.06282
2.0625
2.06064
2.0593
2.05882
2.05856
2.05816
2.05702
2.05515
2.05229
2.04882
2.04569
2.04328
2.04105
2.03865
2.03589
2.03236
2.02763
2.02196
2.01684
2.01312
2.01053
2.0055
2.59048
2.57759
2.56424
2.55058
2.53659
2.52185
2.50607
2.48988
2.47429
2.45984
2.44459
2.42621
2.4066
2.38996
2.37655
2.36251
2.34499
2.32497
2.30795
2.29365
2.27947
2.26433
2.24778
2.22952
2.21234
2.19788
2.1846
2.17154
2.15823
2.14396
2.1288
2.11484
2.1034
2.09324
2.08331
2.07292
2.06182
2.05034
2.04088
2.03445
2.02907
2.02365
2.01715
2.00867
2.00328
2.00162
2.00219
2.00317
2.00236
1.99986
1.99739
1.99813
2.0016
2.00566
2.00706
2.00669
2.00427
2.00453
2.00706
2.01179
2.01602
2.01958
2.02364
2.02858
2.03326
2.03794
2.04479
2.05115
2.0555
2.05956
2.06328
2.06535
2.06589
2.06508
2.0631
2.06222
2.06219
2.06284
2.06271
2.06159
2.05959
2.05625
2.05307
2.05114
2.04937
2.04732
2.04492
2.042
2.03816
2.03308
2.02788
2.02358
2.02008
2.01714
2.01439
2.00868
2.58989
2.57728
2.56424
2.55088
2.53706
2.52254
2.50743
2.49226
2.47761
2.46313
2.44633
2.4276
2.41067
2.39665
2.38344
2.36681
2.34746
2.32857
2.31321
2.29952
2.28501
2.26909
2.25141
2.23334
2.21767
2.20374
2.19012
2.1762
2.16148
2.14589
2.13065
2.11746
2.10612
2.09543
2.08459
2.07282
2.06002
2.04791
2.03884
2.03216
2.02613
2.01985
2.01209
2.00188
1.9953
1.99301
1.99276
1.9935
1.99304
1.99124
1.98905
1.98898
1.99162
1.99643
1.99975
2.00083
2.00079
2.0027
2.00651
2.01181
2.01825
2.02469
2.03096
2.03712
2.04253
2.04794
2.05334
2.05749
2.06098
2.0645
2.06785
2.0692
2.06869
2.06716
2.0657
2.06524
2.06513
2.06573
2.06539
2.06401
2.06136
2.05761
2.05505
2.05342
2.05199
2.05025
2.04797
2.04456
2.03921
2.03372
2.02945
2.02609
2.02342
2.02078
2.018
2.01128
2.59136
2.57861
2.56552
2.55207
2.53812
2.52367
2.50893
2.49422
2.47967
2.46441
2.44736
2.43022
2.41476
2.40107
2.38614
2.368
2.3485
2.33193
2.31748
2.30367
2.28837
2.27136
2.25283
2.23619
2.22172
2.20777
2.19366
2.1789
2.16301
2.14644
2.1314
2.11892
2.10771
2.0967
2.08514
2.07229
2.05837
2.04581
2.03656
2.02936
2.02291
2.0164
2.00837
1.99784
1.99003
1.98677
1.98559
1.98541
1.98475
1.98331
1.98212
1.98248
1.98469
1.98923
1.99415
1.99687
1.99975
2.00374
2.00903
2.01526
2.02217
2.02935
2.03655
2.04304
2.04888
2.05495
2.06035
2.06377
2.06637
2.06858
2.07061
2.07215
2.07223
2.07127
2.06959
2.06873
2.06834
2.06849
2.06782
2.0662
2.06323
2.05974
2.05779
2.05618
2.05473
2.05268
2.04978
2.04552
2.0402
2.03548
2.03226
2.02971
2.02731
2.0243
2.02006
2.01226
2.59595
2.58296
2.56957
2.55576
2.54152
2.52699
2.51232
2.49759
2.48263
2.46668
2.44995
2.43382
2.41904
2.40507
2.38808
2.36916
2.35156
2.3362
2.32231
2.30731
2.29124
2.2732
2.25481
2.23936
2.22517
2.21108
2.19679
2.18166
2.16491
2.14782
2.13297
2.12029
2.10854
2.09711
2.08538
2.07235
2.05799
2.04496
2.03503
2.02721
2.02009
2.01314
2.00537
1.99628
1.98869
1.98405
1.98083
1.97903
1.97789
1.97684
1.97751
1.97933
1.98128
1.98479
1.98936
1.99397
1.99894
2.00486
2.01187
2.01932
2.02685
2.03434
2.04133
2.04748
2.05382
2.06077
2.06621
2.06903
2.07085
2.07216
2.07354
2.07514
2.0756
2.07525
2.07426
2.07296
2.07219
2.07132
2.07
2.06811
2.06545
2.06281
2.06106
2.0593
2.05693
2.054
2.05042
2.04611
2.04168
2.03864
2.03616
2.03329
2.02975
2.02538
2.02074
2.01356
2.60206
2.58903
2.57552
2.56157
2.54723
2.53265
2.51787
2.50287
2.48736
2.47114
2.45485
2.4392
2.42463
2.40894
2.39073
2.37266
2.3564
2.3417
2.32713
2.31126
2.29433
2.27586
2.25878
2.24381
2.22937
2.215
2.20018
2.18411
2.16685
2.15023
2.13571
2.12281
2.11085
2.09911
2.08647
2.07249
2.05845
2.04632
2.03639
2.02783
2.01968
2.01132
2.00269
1.99457
1.98796
1.98289
1.97912
1.9758
1.97341
1.9728
1.97363
1.97676
1.97908
1.98198
1.98625
1.99156
1.99808
2.0055
2.01406
2.02299
2.03091
2.03818
2.04477
2.05078
2.05723
2.06454
2.06972
2.07219
2.07364
2.07462
2.07584
2.07721
2.07825
2.07818
2.07752
2.07606
2.07457
2.07325
2.07166
2.06982
2.06779
2.06561
2.06308
2.06032
2.05747
2.05423
2.0506
2.04691
2.04377
2.04077
2.03741
2.03377
2.02998
2.02568
2.02148
2.01491
2.60717
2.59428
2.58093
2.56716
2.55301
2.53852
2.52371
2.50853
2.49282
2.47673
2.46075
2.44528
2.42986
2.41284
2.39499
2.37793
2.36204
2.34739
2.33164
2.31488
2.29705
2.27986
2.26421
2.24918
2.23426
2.21915
2.20309
2.18595
2.16925
2.15418
2.14044
2.12724
2.11419
2.10066
2.08627
2.07218
2.06029
2.05028
2.04056
2.0306
2.02026
2.0097
2.00089
1.99427
1.9889
1.98457
1.98019
1.97442
1.97002
1.96924
1.96979
1.97338
1.97686
1.97977
1.9841
1.98971
1.99677
2.00531
2.01507
2.02502
2.0333
2.04037
2.04656
2.05257
2.05901
2.06622
2.07116
2.07339
2.07447
2.07543
2.07658
2.07788
2.07924
2.07926
2.0786
2.07713
2.07535
2.0738
2.07222
2.07058
2.0688
2.06652
2.06355
2.06033
2.05724
2.05415
2.05098
2.0478
2.04436
2.04065
2.03695
2.03333
2.02956
2.02546
2.02196
2.01602
2.61042
2.59772
2.58457
2.57098
2.55698
2.54259
2.5278
2.51258
2.49697
2.48119
2.46547
2.44973
2.43322
2.41602
2.39897
2.38245
2.36723
2.35132
2.33428
2.31663
2.2998
2.28413
2.26894
2.25379
2.23822
2.22176
2.20462
2.18774
2.17224
2.15835
2.14509
2.1316
2.11716
2.10166
2.08647
2.07325
2.06279
2.05361
2.04444
2.03434
2.02237
2.00947
2.00041
1.99507
1.99137
1.98733
1.98228
1.97508
1.96873
1.96705
1.96722
1.97016
1.9744
1.97726
1.98167
1.98787
1.9953
2.00424
2.01465
2.02511
2.03385
2.04094
2.04666
2.05201
2.05764
2.06433
2.0696
2.07194
2.07325
2.07455
2.07573
2.07722
2.07872
2.07865
2.07786
2.07629
2.07451
2.07318
2.07185
2.0703
2.06843
2.06606
2.06303
2.05976
2.05681
2.05404
2.05115
2.04795
2.04433
2.0403
2.03604
2.03208
2.0285
2.02491
2.02193
2.01636
2.61162
2.59904
2.58598
2.57249
2.55858
2.54425
2.5295
2.51436
2.49897
2.4835
2.46786
2.45166
2.43483
2.41789
2.40138
2.38605
2.37058
2.35309
2.33535
2.31806
2.3021
2.28702
2.27193
2.2566
2.24038
2.22266
2.20462
2.18873
2.175
2.162
2.14886
2.13464
2.11842
2.101
2.08578
2.07466
2.06547
2.05654
2.04699
2.03557
2.02164
2.00838
2.00071
1.99514
1.99015
1.9857
1.98086
1.97339
1.96629
1.96427
1.96425
1.96726
1.97155
1.97475
1.97909
1.9851
1.99236
2.00139
2.01268
2.02409
2.03344
2.0402
2.04541
2.05051
2.05649
2.06376
2.06896
2.07134
2.07293
2.0743
2.07547
2.0769
2.07823
2.07799
2.07707
2.07538
2.07374
2.07263
2.07141
2.06986
2.06795
2.06551
2.06233
2.05897
2.05615
2.05359
2.0509
2.04788
2.0443
2.03993
2.03505
2.03049
2.027
2.02417
2.0218
2.0168
)
;

boundaryField
{
    inlet
    {
        type            fixedValue;
        value           uniform 1;
    }
    outlet
    {
        type            inletOutlet;
        inletValue      uniform 1;
        value           nonuniform List<scalar> 
32
(
2.37871
2.36155
2.33381
2.27883
2.20234
2.13579
2.08762
2.06389
2.04543
2.02722
2.01046
1.99516
1.98478
1.97814
1.97408
1.972
1.9712
1.97221
1.97602
1.98272
1.99082
1.99784
2.00217
2.00556
2.00866
2.01101
2.01201
2.01346
2.01483
2.016
2.01642
2.01701
)
;
    }
    bottom
    {
        type            symmetryPlane;
    }
    top
    {
        type            symmetryPlane;
    }
    obstacle
    {
        type            zeroGradient;
    }
    defaultFaces
    {
        type            empty;
    }
}

