/*--------------------------------*- C++ -*----------------------------------*\
  =========                 |
  \\      /  F ield         | OpenFOAM: The Open Source CFD Toolbox
   \\    /   O peration     | Website:  https://openfoam.org
    \\  /    A nd           | Version:  7
     \\/     M anipulation  |
\*---------------------------------------------------------------------------*/
FoamFile
{
    version     2.0;
    format      ascii;
    class       volVectorField;
    location    "20";
    object      U;
}
// * * * * * * * * * * * * * * * * * * * * * * * * * * * * * * * * * * * * * //

dimensions      [0 1 -1 0 0 0 0];

internalField   nonuniform List<vector> 
4032
(
(3 -1.20414e-16 0)
(3 -1.37389e-16 0)
(3 3.08403e-17 0)
(3 -1.785e-16 0)
(3 -3.21031e-16 0)
(3 -1.23307e-16 0)
(3 -7.9025e-17 0)
(3 1.844e-16 0)
(3 1.95203e-16 0)
(3 1.70036e-18 0)
(3 7.34742e-17 0)
(2.0592 0.0120034 0)
(0.807888 0.0151203 0)
(0.689926 0.0234217 0)
(0.637644 0.0249955 0)
(0.580809 0.025667 0)
(0.5255 0.0262166 0)
(0.469153 0.0270434 0)
(0.410834 0.0283256 0)
(0.349112 0.0302126 0)
(0.282624 0.0329286 0)
(0.209382 0.036773 0)
(0.129303 0.0391428 0)
(0.0471518 0.042558 0)
(3 -1.79875e-16 0)
(3 1.20849e-16 0)
(3 3.31519e-16 0)
(3 1.35464e-16 0)
(3 3.23377e-16 0)
(3 6.58524e-16 0)
(3 8.30861e-16 0)
(3 4.4066e-16 0)
(3 2.72026e-16 0)
(3 2.03235e-16 0)
(3 -6.70132e-17 0)
(2.0916 0.0595824 0)
(0.800145 0.0693594 0)
(0.670545 0.0700728 0)
(0.616916 0.0700242 0)
(0.56034 0.0715134 0)
(0.505776 0.0737985 0)
(0.450726 0.077376 0)
(0.394523 0.0825653 0)
(0.335828 0.089901 0)
(0.273015 0.0995978 0)
(0.20387 0.112667 0)
(0.126576 0.121375 0)
(0.0467201 0.132493 0)
(3 2.48262e-16 0)
(3 5.8713e-16 0)
(3 6.1099e-16 0)
(3 8.43485e-16 0)
(3 1.1114e-15 0)
(3 1.19955e-15 0)
(3 1.22646e-15 0)
(3 5.90685e-16 0)
(3 -1.54554e-16 0)
(3 6.95741e-17 0)
(3 -1.40664e-16 0)
(2.20525 0.109851 0)
(0.820376 0.129441 0)
(0.673861 0.122671 0)
(0.616698 0.122046 0)
(0.556632 0.123432 0)
(0.499273 0.125963 0)
(0.442122 0.130275 0)
(0.384815 0.136946 0)
(0.326214 0.147486 0)
(0.264629 0.162229 0)
(0.19867 0.183959 0)
(0.123309 0.199724 0)
(0.0464058 0.219148 0)
(3 -1.05358e-16 0)
(3 -3.08259e-16 0)
(3 4.53949e-17 0)
(3 9.33021e-17 0)
(3 -2.42548e-18 0)
(3 -2.38077e-16 0)
(3 -3.31439e-17 0)
(3 -1.48952e-16 0)
(3 -1.64197e-16 0)
(3 -1.56865e-16 0)
(3 -5.57191e-18 0)
(2.3905 0.145649 0)
(0.863041 0.188792 0)
(0.692877 0.17552 0)
(0.635013 0.174847 0)
(0.572321 0.177495 0)
(0.512044 0.181356 0)
(0.451513 0.186994 0)
(0.390635 0.195186 0)
(0.328689 0.208678 0)
(0.264246 0.226989 0)
(0.198494 0.256238 0)
(0.123024 0.279714 0)
(0.0458237 0.306339 0)
(3 -1.81838e-16 0)
(3 -3.47211e-16 0)
(3 -7.15918e-16 0)
(3 -1.33384e-15 0)
(3 -1.80353e-15 0)
(3 -1.64527e-15 0)
(3 -1.37643e-15 0)
(3 -1.06445e-15 0)
(3 -9.40967e-16 0)
(3 -8.71878e-17 0)
(3 -2.51305e-16 0)
(2.62043 0.165265 0)
(0.920007 0.247881 0)
(0.71919 0.22772 0)
(0.66805 0.229997 0)
(0.606146 0.234313 0)
(0.544824 0.240009 0)
(0.481446 0.247699 0)
(0.417309 0.257688 0)
(0.35307 0.274006 0)
(0.286527 0.294047 0)
(0.220385 0.329271 0)
(0.140106 0.362857 0)
(0.055195 0.400394 0)
(3 4.89262e-17 0)
(3 -1.41846e-16 0)
(3 -4.756e-16 0)
(3 -8.67735e-16 0)
(3 -1.27047e-15 0)
(3 -9.46939e-16 0)
(3 -1.14736e-15 0)
(3 -6.36615e-16 0)
(3 -6.58828e-16 0)
(3 -5.19712e-16 0)
(3 -3.79202e-16 0)
(2.87756 0.127271 0)
(1.01345 0.297681 0)
(0.76814 0.253844 0)
(0.726831 0.272203 0)
(0.664306 0.28569 0)
(0.601933 0.298014 0)
(0.536102 0.310121 0)
(0.468361 0.32252 0)
(0.399653 0.342592 0)
(0.324924 0.367432 0)
(0.248065 0.413923 0)
(0.157581 0.466122 0)
(0.0549654 0.514951 0)
(3 7.3625e-17 0)
(3 -5.42921e-17 0)
(3 6.80812e-17 0)
(3 -1.41323e-16 0)
(3 -3.16702e-16 0)
(3 -6.65317e-16 0)
(3 -7.06408e-16 0)
(3 -7.31336e-16 0)
(3 -5.04337e-16 0)
(3 -3.12387e-16 0)
(3 -7.65976e-16 0)
(3.02183 0.0179556 0)
(1.13021 0.316604 0)
(0.797175 0.283016 0)
(0.77052 0.316873 0)
(0.718908 0.335959 0)
(0.66426 0.353778 0)
(0.602271 0.372794 0)
(0.535197 0.390578 0)
(0.465938 0.418052 0)
(0.389844 0.450447 0)
(0.316719 0.504122 0)
(0.230068 0.571973 0)
(0.104255 0.651687 0)
(3 3.27793e-16 0)
(3 1.86865e-16 0)
(3 -2.40168e-16 0)
(3 -8.65702e-17 0)
(3 -5.43625e-17 0)
(3 -1.04276e-16 0)
(3 -1.38096e-16 0)
(3 -3.84754e-16 0)
(3 -4.39634e-16 0)
(3 -4.06206e-16 0)
(3 -7.14638e-16 0)
(3.00264 0.000331351 0)
(1.28304 0.333726 0)
(0.795823 0.316931 0)
(0.762869 0.356916 0)
(0.723969 0.383196 0)
(0.688699 0.406924 0)
(0.648102 0.43251 0)
(0.596954 0.457389 0)
(0.540983 0.492741 0)
(0.474613 0.529323 0)
(0.402898 0.601407 0)
(0.286895 0.732167 0)
(0.162681 0.920153 0)
(3 -6.97702e-17 0)
(3 -2.34452e-16 0)
(3 -4.34221e-17 0)
(3 3.01466e-16 0)
(3 5.90259e-16 0)
(3 8.18523e-16 0)
(3 4.4758e-16 0)
(3 -2.65781e-17 0)
(3 -9.79139e-16 0)
(3 -1.6833e-15 0)
(3 -2.19962e-15 0)
(3.00002 -4.56651e-07 0)
(1.55678 0.379076 0)
(0.811584 0.366452 0)
(0.7411 0.382832 0)
(0.714078 0.40888 0)
(0.688466 0.436624 0)
(0.669531 0.472231 0)
(0.64063 0.50969 0)
(0.608794 0.555801 0)
(0.563662 0.608665 0)
(0.518297 0.712991 0)
(0.492583 0.889365 0)
(0.6114 1.2031 0)
(3 -2.37833e-16 0)
(3 3.84153e-16 0)
(3 6.40899e-16 0)
(3 5.05279e-16 0)
(3 1.66347e-16 0)
(3 7.37647e-17 0)
(3 -4.50905e-17 0)
(3 -1.44289e-16 0)
(3 -3.96735e-16 0)
(3 -3.77182e-16 0)
(3 4.69778e-16 0)
(3 -3.45503e-07 0)
(2.0011 0.417737 0)
(0.86739 0.452324 0)
(0.754552 0.425093 0)
(0.725892 0.439147 0)
(0.705315 0.462426 0)
(0.691068 0.49783 0)
(0.68097 0.542849 0)
(0.670516 0.598562 0)
(0.661589 0.669929 0)
(0.656274 0.782267 0)
(0.722772 0.924216 0)
(1.00173 1.11147 0)
(3 -1.18675e-16 0)
(3 3.70654e-16 0)
(3 3.59144e-16 0)
(3 2.54027e-16 0)
(3 1.08164e-16 0)
(3 5.90716e-17 0)
(3 4.99217e-16 0)
(3 8.10511e-16 0)
(3 1.69486e-15 0)
(3 2.22113e-15 0)
(3 2.19808e-15 0)
(3 -7.42813e-08 0)
(2.66394 0.322758 0)
(1.01271 0.525674 0)
(0.838445 0.456189 0)
(0.791095 0.461782 0)
(0.755604 0.482956 0)
(0.73283 0.516146 0)
(0.7294 0.561254 0)
(0.730297 0.620188 0)
(0.753749 0.696919 0)
(0.787039 0.80096 0)
(0.907623 0.907606 0)
(1.17847 1.00014 0)
(3 -1.73249e-17 0)
(3 -1.3054e-16 0)
(3 -5.31658e-17 0)
(3 -8.82284e-17 0)
(3 -5.92464e-18 0)
(3 4.78536e-16 0)
(3 1.37353e-15 0)
(3 2.24199e-15 0)
(3 3.04923e-15 0)
(3 2.99887e-15 0)
(3 2.81647e-15 0)
(3 -7.31067e-09 0)
(3.07732 0.0391167 0)
(1.27647 0.5056 0)
(0.915774 0.506232 0)
(0.874913 0.511192 0)
(0.830809 0.522017 0)
(0.794795 0.541848 0)
(0.784795 0.579592 0)
(0.79069 0.631199 0)
(0.828741 0.697389 0)
(0.892456 0.788015 0)
(1.04039 0.878708 0)
(1.28541 0.926257 0)
(3 1.49142e-16 0)
(3 4.53332e-17 0)
(3 -1.26759e-16 0)
(3 -3.69566e-16 0)
(3 -6.05289e-16 0)
(3 1.88328e-16 0)
(3 6.26549e-16 0)
(3 1.21717e-15 0)
(3 1.68811e-15 0)
(3 1.86396e-15 0)
(3 2.79493e-15 0)
(3 -2.83021e-10 0)
(3.00755 5.86559e-05 0)
(1.52207 0.493697 0)
(0.914878 0.565631 0)
(0.876009 0.560582 0)
(0.858981 0.573996 0)
(0.843536 0.580647 0)
(0.838844 0.60235 0)
(0.851663 0.637442 0)
(0.892091 0.683277 0)
(0.964422 0.750916 0)
(1.11004 0.821343 0)
(1.32276 0.846488 0)
(3 1.76635e-16 0)
(3 3.36842e-16 0)
(3 2.93949e-16 0)
(3 4.76114e-16 0)
(3 5.17232e-16 0)
(3 7.09154e-16 0)
(3 8.46754e-16 0)
(3 1.16554e-15 0)
(3 1.39741e-15 0)
(3 2.01579e-15 0)
(3 3.18371e-15 0)
(3 -4.34071e-12 0)
(3.00005 -1.86174e-06 0)
(2.13197 0.498142 0)
(0.976099 0.6091 0)
(0.903024 0.569967 0)
(0.902383 0.582383 0)
(0.896907 0.594853 0)
(0.897204 0.614023 0)
(0.914298 0.643523 0)
(0.955779 0.677415 0)
(1.02772 0.719507 0)
(1.15219 0.764536 0)
(1.32539 0.774488 0)
(3 5.17361e-16 0)
(3 8.74191e-16 0)
(3 6.88568e-16 0)
(3 9.63003e-16 0)
(3 1.95062e-15 0)
(3 2.25313e-15 0)
(3 2.26988e-15 0)
(3 1.74168e-15 0)
(3 1.34501e-15 0)
(3 1.29538e-15 0)
(3 2.62553e-15 0)
(3 -4.09155e-15 0)
(3.00001 -2.4236e-06 0)
(2.94774 0.198099 0)
(1.18797 0.608923 0)
(0.968901 0.57844 0)
(0.96168 0.59404 0)
(0.954088 0.610566 0)
(0.955912 0.622869 0)
(0.974339 0.640798 0)
(1.01337 0.66153 0)
(1.07907 0.688976 0)
(1.17546 0.706219 0)
(1.30341 0.703231 0)
(3 -2.03578e-16 0)
(3 -4.68118e-16 0)
(3 -6.98894e-16 0)
(3 -5.80638e-16 0)
(3 2.63341e-16 0)
(3 4.66401e-16 0)
(3 8.52052e-16 0)
(3 -4.37949e-17 0)
(3 -1.23174e-16 0)
(3 -9.03125e-16 0)
(3 -8.21226e-16 0)
(3 -8.70656e-16 0)
(3 -5.15995e-07 0)
(3.04562 0.00741205 0)
(1.42376 0.571711 0)
(0.991296 0.628051 0)
(0.970398 0.622183 0)
(0.97647 0.628162 0)
(0.992503 0.636528 0)
(1.01956 0.648355 0)
(1.0606 0.65919 0)
(1.12252 0.668242 0)
(1.19642 0.663375 0)
(1.28757 0.647138 0)
(3 -1.62712e-16 0)
(3 -5.72762e-16 0)
(3 -5.12214e-16 0)
(3 -6.90347e-16 0)
(3 -6.60146e-16 0)
(3 -3.56666e-16 0)
(3 -9.34933e-16 0)
(3 -7.84575e-16 0)
(3 -4.37411e-16 0)
(3 -7.87905e-16 0)
(3 -8.51951e-16 0)
(3 -5.36928e-16 0)
(3 -4.63896e-08 0)
(3.0011 -8.22527e-06 0)
(1.94028 0.563456 0)
(1.00724 0.654797 0)
(0.974145 0.620555 0)
(0.991349 0.619996 0)
(1.01451 0.621596 0)
(1.04902 0.630716 0)
(1.0904 0.63457 0)
(1.14921 0.636931 0)
(1.21032 0.625851 0)
(1.2797 0.605634 0)
(3 4.38873e-17 0)
(3 3.92062e-17 0)
(3 1.3533e-16 0)
(3 2.30693e-16 0)
(3 5.06059e-16 0)
(3 7.05993e-16 0)
(3 5.4954e-16 0)
(3 7.33312e-16 0)
(3 3.15655e-17 0)
(3 -7.38228e-16 0)
(3 -3.90549e-16 0)
(3 4.56799e-16 0)
(3 -4.99582e-10 0)
(3.00003 -9.14838e-06 0)
(2.81239 0.295162 0)
(1.16182 0.658016 0)
(1.0057 0.60852 0)
(1.02232 0.609698 0)
(1.04069 0.613459 0)
(1.07191 0.616836 0)
(1.11034 0.613878 0)
(1.16318 0.608558 0)
(1.21692 0.592716 0)
(1.27452 0.56984 0)
(3 -6.28508e-17 0)
(3 5.69989e-17 0)
(3 -5.82449e-17 0)
(3 -5.37427e-17 0)
(3 2.59035e-16 0)
(3 4.97431e-16 0)
(3 6.69809e-16 0)
(3 5.66794e-16 0)
(3 3.55519e-16 0)
(3 1.22297e-16 0)
(3 -4.97829e-16 0)
(3 -1.1837e-16 0)
(3 -9.32217e-13 0)
(3 -2.2972e-06 0)
(3.06256 0.0177027 0)
(1.41948 0.60347 0)
(1.02042 0.620846 0)
(1.02869 0.61524 0)
(1.0507 0.606233 0)
(1.08106 0.598639 0)
(1.12122 0.589798 0)
(1.17123 0.580336 0)
(1.22079 0.563822 0)
(1.27245 0.543683 0)
(3 1.0339e-16 0)
(3 7.52015e-17 0)
(3 2.792e-16 0)
(3 1.60861e-16 0)
(3 -2.23445e-16 0)
(3 -1.43997e-16 0)
(3 1.61674e-17 0)
(3 3.02512e-16 0)
(3 1.06105e-15 0)
(3 1.3492e-15 0)
(3 1.06515e-15 0)
(3 -1.34166e-16 0)
(3 -2.48409e-15 0)
(3 -2.19791e-07 0)
(3.00251 2.20724e-05 0)
(1.82054 0.567183 0)
(1.01245 0.639369 0)
(1.00111 0.599703 0)
(1.03559 0.577135 0)
(1.07141 0.565361 0)
(1.11261 0.555853 0)
(1.15927 0.545719 0)
(1.20625 0.529787 0)
(1.25719 0.512331 0)
(3 2.88208e-17 0)
(3 -1.90318e-16 0)
(3 -1.65654e-16 0)
(3 4.0027e-16 0)
(3 3.32038e-16 0)
(3 8.92027e-16 0)
(3 1.142e-15 0)
(3 1.14024e-15 0)
(3 1.26424e-15 0)
(3 8.05165e-16 0)
(3 8.3125e-16 0)
(3 -3.10102e-16 0)
(3 2.82695e-16 0)
(3 -7.01101e-09 0)
(3.00001 -2.60016e-07 0)
(2.62611 0.382237 0)
(1.08967 0.624532 0)
(1.00105 0.561584 0)
(1.04576 0.552765 0)
(1.0812 0.544703 0)
(1.1181 0.534012 0)
(1.15784 0.51973 0)
(1.19876 0.501766 0)
(1.24485 0.483753 0)
(3 9.10162e-17 0)
(3 1.46422e-17 0)
(3 4.76768e-17 0)
(3 2.38449e-16 0)
(3 1.99316e-16 0)
(3 -4.15503e-17 0)
(3 3.47796e-16 0)
(3 -4.49486e-16 0)
(3 -6.83005e-16 0)
(3 -6.86179e-16 0)
(3 -8.96885e-16 0)
(3 -2.92849e-16 0)
(3 8.75981e-16 0)
(3 -1.72641e-11 0)
(3 -3.51899e-07 0)
(3.07171 0.0397099 0)
(1.30443 0.545356 0)
(1.01498 0.530368 0)
(1.05453 0.529046 0)
(1.08386 0.520542 0)
(1.11904 0.509202 0)
(1.15753 0.494825 0)
(1.19712 0.478471 0)
(1.24077 0.461622 0)
(3 -7.21996e-17 0)
(3 -8.30723e-17 0)
(3 2.04092e-16 0)
(3 3.19124e-18 0)
(3 -9.22944e-17 0)
(3 -7.97353e-16 0)
(3 -1.23413e-15 0)
(3 -8.77244e-16 0)
(3 -9.82805e-16 0)
(3 -8.32827e-16 0)
(3 -2.41648e-16 0)
(3 7.30408e-16 0)
(3 1.18237e-15 0)
(3 -1.80825e-14 0)
(3 -7.45185e-08 0)
(3.00609 0.000145506 0)
(1.46388 0.457583 0)
(0.97684 0.516157 0)
(1.01471 0.506744 0)
(1.05581 0.490951 0)
(1.10087 0.476797 0)
(1.14447 0.463251 0)
(1.18655 0.449452 0)
(1.23052 0.434505 0)
(3 -9.48285e-17 0)
(3 6.0869e-17 0)
(3 -4.13962e-16 0)
(3 -8.48626e-16 0)
(3 -3.3809e-16 0)
(3 -1.48801e-16 0)
(3 -2.89811e-16 0)
(3 7.75173e-17 0)
(3 1.04225e-15 0)
(3 1.82723e-15 0)
(3 2.41545e-15 0)
(3 2.39862e-15 0)
(3 1.03553e-15 0)
(3 5.81677e-16 0)
(3 -6.26161e-09 0)
(3.00003 -1.14384e-06 0)
(1.80082 0.409693 0)
(0.929866 0.480834 0)
(0.935259 0.461261 0)
(0.997183 0.45568 0)
(1.05421 0.445703 0)
(1.10612 0.433621 0)
(1.15455 0.42081 0)
(1.20243 0.406216 0)
(3 2.3591e-17 0)
(3 1.48371e-16 0)
(3 -2.336e-16 0)
(3 -3.85888e-16 0)
(3 -7.11559e-17 0)
(3 -8.81902e-17 0)
(3 1.17098e-17 0)
(3 2.19419e-16 0)
(3 7.23812e-16 0)
(3 1.26091e-15 0)
(3 1.83044e-15 0)
(3 1.74675e-15 0)
(3 9.05587e-16 0)
(3 9.43565e-16 0)
(3 -3.03251e-11 0)
(3 -1.48071e-06 0)
(2.29412 0.372503 0)
(0.956038 0.454734 0)
(0.902654 0.406338 0)
(0.959306 0.403799 0)
(1.00831 0.402577 0)
(1.05853 0.397562 0)
(1.10892 0.389593 0)
(1.15953 0.377831 0)
(3 -3.96052e-17 0)
(3 -1.16066e-16 0)
(3 9.86102e-17 0)
(3 5.98706e-16 0)
(3 -8.13766e-17 0)
(3 -5.29925e-16 0)
(3 -1.02844e-16 0)
(3 -1.43079e-16 0)
(3 -2.14395e-16 0)
(3 9.55157e-17 0)
(3 3.31495e-16 0)
(3 1.00326e-15 0)
(3 1.51795e-15 0)
(3 1.70694e-15 0)
(3 -4.56808e-14 0)
(3 -3.12017e-07 0)
(2.82694 0.202426 0)
(1.05775 0.433728 0)
(0.919492 0.377604 0)
(0.971944 0.372732 0)
(1.01037 0.368597 0)
(1.05103 0.361902 0)
(1.09341 0.353595 0)
(1.13734 0.342773 0)
(3 7.61029e-17 0)
(3 4.37692e-17 0)
(3 4.47071e-16 0)
(3 7.79265e-16 0)
(3 -1.25894e-16 0)
(3 -1.97945e-16 0)
(3 -2.3366e-16 0)
(3 -1.38718e-16 0)
(3 -3.13753e-16 0)
(3 -7.59812e-17 0)
(3 6.47906e-16 0)
(3 1.09761e-15 0)
(3 1.83955e-15 0)
(3 1.89653e-15 0)
(3 3.96828e-16 0)
(3 -3.10445e-08 0)
(3.01254 0.0221059 0)
(1.17888 0.350839 0)
(0.920139 0.340342 0)
(0.973581 0.339503 0)
(1.00867 0.338087 0)
(1.04469 0.333281 0)
(1.08187 0.325538 0)
(1.12021 0.3154 0)
(3 -1.43079e-17 0)
(3 1.25135e-16 0)
(3 1.35595e-16 0)
(3 3.61007e-16 0)
(3 4.92284e-16 0)
(3 7.70805e-16 0)
(3 5.63202e-16 0)
(3 1.04764e-15 0)
(3 1.20357e-15 0)
(3 1.45387e-15 0)
(3 1.39399e-15 0)
(3 1.47373e-15 0)
(3 1.11407e-15 0)
(3 6.11331e-16 0)
(3 -2.55372e-16 0)
(3 -1.19712e-09 0)
(3.00245 0.00092943 0)
(1.24297 0.279046 0)
(0.876702 0.313174 0)
(0.931803 0.313315 0)
(0.974445 0.31378 0)
(1.01568 0.308053 0)
(1.05569 0.300357 0)
(1.0948 0.29053 0)
(3 -2.60635e-17 0)
(3 -2.48815e-17 0)
(3 5.21665e-16 0)
(3 7.77748e-17 0)
(3 9.89813e-16 0)
(3 1.04506e-15 0)
(3 1.55223e-15 0)
(3 1.73984e-15 0)
(3 1.99253e-15 0)
(3 1.95373e-15 0)
(3 1.62023e-15 0)
(3 5.85019e-16 0)
(3 1.77375e-16 0)
(3 -3.87095e-16 0)
(3 -3.37972e-16 0)
(3 -2.36843e-11 0)
(3.00002 8.35532e-07 0)
(1.35946 0.261298 0)
(0.840594 0.275658 0)
(0.875849 0.275862 0)
(0.923436 0.278956 0)
(0.969693 0.27679 0)
(1.01426 0.271483 0)
(1.05662 0.26351 0)
(3 1.89236e-16 0)
(3 3.99937e-16 0)
(3 9.57562e-16 0)
(3 8.72964e-16 0)
(3 1.10431e-15 0)
(3 1.26885e-15 0)
(3 1.39161e-15 0)
(3 1.17392e-15 0)
(3 1.67845e-15 0)
(3 1.90788e-15 0)
(3 1.02484e-15 0)
(3 -2.33503e-16 0)
(3 -1.07953e-15 0)
(3 -1.40083e-15 0)
(3 -4.7785e-16 0)
(3 -1.95761e-13 0)
(3 -2.8677e-10 0)
(1.52993 0.264836 0)
(0.843635 0.246026 0)
(0.84414 0.241729 0)
(0.885266 0.244626 0)
(0.925224 0.244324 0)
(0.968151 0.241243 0)
(1.01073 0.235913 0)
(3 -1.52969e-16 0)
(3 -2.42849e-16 0)
(3 -3.5426e-16 0)
(3 -1.96094e-16 0)
(3 -1.88754e-16 0)
(3 -3.40971e-17 0)
(3 -2.39431e-16 0)
(3 -1.01282e-15 0)
(3 -9.91751e-16 0)
(3 -7.44777e-16 0)
(3 -6.68932e-16 0)
(3 -6.88671e-16 0)
(3 -7.8842e-16 0)
(3 -1.12576e-15 0)
(3 -7.45323e-16 0)
(3 8.50731e-17 0)
(3 -3.32186e-10 0)
(1.74907 0.255946 0)
(0.85157 0.23318 0)
(0.832516 0.219022 0)
(0.868875 0.216263 0)
(0.900017 0.213543 0)
(0.936758 0.211079 0)
(0.975013 0.207584 0)
(3 4.8622e-17 0)
(3 -5.92232e-17 0)
(3 -5.52164e-16 0)
(3 -4.99256e-16 0)
(3 -3.43491e-16 0)
(3 -5.50851e-16 0)
(3 -1.31572e-15 0)
(3 -1.62097e-15 0)
(3 -2.18986e-15 0)
(3 -2.82464e-15 0)
(3 -2.70426e-15 0)
(3 -1.7972e-15 0)
(3 -1.28285e-15 0)
(3 -6.67958e-16 0)
(3 -5.56801e-16 0)
(3 -6.15994e-16 0)
(3 -6.93852e-11 0)
(1.99574 0.23173 0)
(0.870769 0.219178 0)
(0.834657 0.19869 0)
(0.873087 0.193028 0)
(0.901094 0.187268 0)
(0.93376 0.182981 0)
(0.967229 0.178769 0)
(3 -1.27968e-17 0)
(3 -5.49813e-17 0)
(3 -1.2806e-16 0)
(3 -2.13736e-16 0)
(3 -1.662e-16 0)
(3 -1.2917e-15 0)
(3 -2.04638e-15 0)
(3 -1.28879e-15 0)
(3 -1.53022e-15 0)
(3 -2.47738e-15 0)
(3 -2.8374e-15 0)
(3 -2.79923e-15 0)
(3 -2.65298e-15 0)
(3 -1.94969e-15 0)
(3 -1.85085e-15 0)
(3 -1.42163e-15 0)
(3 -6.72521e-12 0)
(2.23023 0.189754 0)
(0.894457 0.197455 0)
(0.837293 0.176819 0)
(0.878931 0.17271 0)
(0.906975 0.167138 0)
(0.937983 0.162427 0)
(0.969003 0.157512 0)
(3 -4.49467e-16 0)
(3 -8.9823e-16 0)
(3 -7.25568e-16 0)
(3 -1.04136e-15 0)
(3 -2.08033e-15 0)
(3 -2.6488e-15 0)
(3 -3.06297e-15 0)
(3 -2.94736e-15 0)
(3 -1.82693e-15 0)
(3 -1.32928e-15 0)
(3 -9.37415e-16 0)
(3 -9.5047e-16 0)
(3 -1.32527e-15 0)
(3 -1.81158e-15 0)
(3 -2.0576e-15 0)
(3 -7.59995e-16 0)
(3 -2.50559e-13 0)
(2.41931 0.144529 0)
(0.916616 0.169813 0)
(0.835362 0.151868 0)
(0.878489 0.149792 0)
(0.908063 0.146016 0)
(0.939521 0.141897 0)
(0.970534 0.137411 0)
(3 -6.36098e-17 0)
(3 -6.17825e-17 0)
(3 -4.52294e-16 0)
(3 -7.59382e-16 0)
(3 -1.1936e-15 0)
(3 -1.26907e-15 0)
(3 -1.18892e-15 0)
(3 -1.37004e-15 0)
(3 -1.26233e-15 0)
(3 -5.2233e-16 0)
(3 2.17703e-16 0)
(3 6.81036e-16 0)
(3 3.22118e-16 0)
(3 1.55534e-16 0)
(3 9.15767e-17 0)
(3 4.50793e-16 0)
(3 -3.92144e-15 0)
(2.56297 0.111997 0)
(0.933151 0.137333 0)
(0.829368 0.127442 0)
(0.872557 0.126136 0)
(0.903222 0.12363 0)
(0.935944 0.120502 0)
(0.96799 0.116844 0)
(3 7.24135e-17 0)
(3 1.82423e-16 0)
(3 3.37383e-17 0)
(3 4.55781e-17 0)
(3 2.78419e-16 0)
(3 1.44524e-16 0)
(3 -3.33553e-16 0)
(3 -7.83375e-16 0)
(3 -1.07064e-15 0)
(3 -1.33176e-15 0)
(3 -1.07687e-15 0)
(3 -4.14582e-16 0)
(3 1.4852e-16 0)
(3 9.67461e-16 0)
(3 1.28884e-15 0)
(3 1.34308e-15 0)
(3 2.95344e-16 0)
(2.69608 0.0766682 0)
(0.967134 0.107245 0)
(0.825995 0.102409 0)
(0.8688 0.101461 0)
(0.899274 0.0998155 0)
(0.931938 0.0977004 0)
(0.963985 0.095176 0)
(3 6.22569e-18 0)
(3 3.61016e-16 0)
(3 1.09657e-15 0)
(3 1.43562e-15 0)
(3 1.84522e-15 0)
(3 1.61421e-15 0)
(3 6.40115e-16 0)
(3 -2.04116e-16 0)
(3 -9.38399e-16 0)
(3 -1.39429e-15 0)
(3 -1.56948e-15 0)
(3 -7.17384e-16 0)
(3 -5.02844e-16 0)
(3 -2.19873e-16 0)
(3 8.43411e-16 0)
(3 1.41455e-15 0)
(3 1.87516e-15 0)
(2.76961 0.042365 0)
(0.982676 0.074624 0)
(0.818473 0.0779587 0)
(0.860138 0.0777381 0)
(0.889873 0.0771068 0)
(0.922016 0.0757883 0)
(0.953839 0.0739922 0)
(3 3.19468e-17 0)
(3 9.46026e-16 0)
(3 1.38153e-15 0)
(3 1.55005e-15 0)
(3 1.34008e-15 0)
(3 1.1651e-15 0)
(3 1.62441e-15 0)
(3 1.0145e-15 0)
(3 5.06591e-16 0)
(3 1.42822e-16 0)
(3 1.55096e-16 0)
(3 -3.46888e-16 0)
(3 -8.41033e-16 0)
(3 -7.26907e-16 0)
(3 -3.9597e-16 0)
(3 6.37834e-16 0)
(3 2.03629e-15 0)
(2.80527 0.0253471 0)
(0.988087 0.0501992 0)
(0.808126 0.0553496 0)
(0.848102 0.055483 0)
(0.877373 0.0554536 0)
(0.909325 0.0547484 0)
(0.94105 0.0536196 0)
(3 -4.8988e-17 0)
(3 4.34468e-16 0)
(3 4.72082e-16 0)
(3 1.05531e-16 0)
(3 -5.08325e-16 0)
(3 -3.10465e-16 0)
(3 2.94614e-16 0)
(3 5.04205e-16 0)
(3 1.14476e-15 0)
(3 1.04329e-15 0)
(3 8.88057e-16 0)
(3 -8.70263e-18 0)
(3 -8.57813e-17 0)
(3 -1.96326e-16 0)
(3 -4.56511e-16 0)
(3 6.7977e-17 0)
(3 3.63168e-16 0)
(2.83129 0.0132063 0)
(0.99664 0.0283037 0)
(0.807083 0.0321038 0)
(0.845223 0.0322194 0)
(0.873743 0.0323259 0)
(0.905137 0.0319818 0)
(0.936392 0.0313747 0)
(3 -5.16126e-17 0)
(3 -7.91298e-18 0)
(3 1.43402e-16 0)
(3 -1.96558e-16 0)
(3 -6.82678e-16 0)
(3 -3.66555e-16 0)
(3 1.16467e-16 0)
(3 7.14505e-16 0)
(3 8.15402e-16 0)
(3 9.04537e-16 0)
(3 8.46761e-16 0)
(3 4.82182e-16 0)
(3 3.75645e-16 0)
(3 9.88767e-17 0)
(3 3.84992e-17 0)
(3 1.15292e-16 0)
(3 2.10457e-16 0)
(2.83966 0.00233751 0)
(0.997009 0.00634528 0)
(0.801836 0.00993092 0)
(0.838036 0.0106229 0)
(0.865615 0.0114062 0)
(0.896726 0.0115782 0)
(0.927926 0.0115075 0)
(1.28134 1.36525 0)
(0.347626 0.694999 0)
(0.0327628 0.14035 0)
(0.0410732 0.00429989 0)
(0.0617876 0.00237386 0)
(0.0474648 0.0130417 0)
(0.00575063 0.0183328 0)
(-0.0385987 0.00745218 0)
(-0.0620867 -0.00524467 0)
(-0.0715559 -0.00664714 0)
(-0.0661944 -0.00331164 0)
(-0.0532552 0.000112696 0)
(-0.0381629 0.00153452 0)
(-0.0268643 0.00103139 0)
(-0.0197478 -0.00142528 0)
(-0.0146062 -0.00303778 0)
(-0.00950432 -0.00614824 0)
(-0.0016596 -0.00998096 0)
(0.0106533 -0.0143629 0)
(0.0282236 -0.0182833 0)
(0.0502513 -0.0217222 0)
(0.0762145 -0.0252146 0)
(0.105718 -0.0288782 0)
(0.137306 -0.0321791 0)
(0.169842 -0.0352269 0)
(0.202621 -0.0379898 0)
(0.235112 -0.0395877 0)
(0.267545 -0.040005 0)
(0.300712 -0.0396333 0)
(0.335441 -0.0388994 0)
(0.372397 -0.0382122 0)
(0.411438 -0.0377442 0)
(0.4518 -0.0374981 0)
(0.492462 -0.0373063 0)
(0.532648 -0.0371327 0)
(0.571782 -0.0369862 0)
(0.609753 -0.036956 0)
(0.646653 -0.0373509 0)
(0.682189 -0.0379792 0)
(0.716328 -0.0380354 0)
(0.749757 -0.0370747 0)
(0.782179 -0.0355278 0)
(0.814208 -0.0336497 0)
(0.846594 -0.0317026 0)
(0.879782 -0.0297773 0)
(0.913591 -0.0281124 0)
(0.947351 -0.0267317 0)
(0.980523 -0.0254271 0)
(1.01248 -0.0240203 0)
(1.04289 -0.0227325 0)
(1.07202 -0.0219992 0)
(1.1006 -0.0218329 0)
(1.12821 -0.0217727 0)
(1.15416 -0.0212939 0)
(1.17826 -0.0201554 0)
(1.20077 -0.0184994 0)
(1.22256 -0.0167333 0)
(1.24456 -0.0151865 0)
(1.26727 -0.0139861 0)
(1.29057 -0.0130184 0)
(1.31374 -0.0120522 0)
(1.33588 -0.0108124 0)
(1.35665 -0.00939638 0)
(1.37664 -0.00818962 0)
(1.39662 -0.0071713 0)
(1.41672 -0.00658897 0)
(1.43587 -0.00606195 0)
(1.45219 -0.00528157 0)
(1.4659 -0.00436596 0)
(1.47855 -0.00347313 0)
(1.49097 -0.00255422 0)
(1.50329 -0.00174298 0)
(1.51594 -0.00096804 0)
(1.52851 -0.000232224 0)
(1.54028 0.000252529 0)
(1.55062 0.000718983 0)
(1.55977 0.00130188 0)
(1.56816 0.00157588 0)
(1.57661 0.00159207 0)
(1.58391 0.00164006 0)
(1.58734 0.00172253 0)
(1.58649 0.00174857 0)
(1.58192 0.00161433 0)
(1.57335 0.00126716 0)
(1.55989 0.000643418 0)
(1.54048 -3.36797e-05 0)
(1.5158 -0.000324385 0)
(1.49131 -0.000249205 0)
(1.47239 -0.000242904 0)
(1.45995 -0.000206089 0)
(1.45272 -0.000387158 0)
(1.45015 -0.000820391 0)
(1.45122 -0.00167654 0)
(1.45468 -0.00215556 0)
(1.45852 -0.00260416 0)
(1.46508 -0.00309805 0)
(1.7379 1.20773 0)
(1.24743 0.737185 0)
(0.880785 0.209697 0)
(0.568152 0.0132989 0)
(0.357946 -0.000311072 0)
(0.233456 0.0133304 0)
(0.15083 0.00821963 0)
(0.0989322 -0.00932262 0)
(0.0701684 -0.0174399 0)
(0.0541053 -0.0121837 0)
(0.0500667 0.00305417 0)
(0.049937 0.0148652 0)
(0.0524684 0.0168249 0)
(0.0581986 0.0112681 0)
(0.0667228 -0.00111385 0)
(0.0776087 -0.0159922 0)
(0.0896669 -0.0259944 0)
(0.102516 -0.0349098 0)
(0.12034 -0.0426783 0)
(0.144648 -0.0474806 0)
(0.174334 -0.0492694 0)
(0.206721 -0.0474743 0)
(0.239071 -0.0444239 0)
(0.270983 -0.0467781 0)
(0.304105 -0.0529394 0)
(0.339119 -0.0595596 0)
(0.375243 -0.0653749 0)
(0.410955 -0.0679345 0)
(0.445611 -0.0662809 0)
(0.479205 -0.0612955 0)
(0.512591 -0.0550685 0)
(0.547251 -0.0496354 0)
(0.58396 -0.0457945 0)
(0.622226 -0.043208 0)
(0.660709 -0.0409636 0)
(0.697768 -0.0386986 0)
(0.732293 -0.0372413 0)
(0.764612 -0.0377842 0)
(0.796076 -0.0404101 0)
(0.827667 -0.0443589 0)
(0.858775 -0.0476674 0)
(0.888969 -0.048043 0)
(0.917828 -0.0456035 0)
(0.945461 -0.0416544 0)
(0.972849 -0.0377932 0)
(1.00124 -0.0350205 0)
(1.03091 -0.0331658 0)
(1.06136 -0.0313978 0)
(1.09144 -0.0285631 0)
(1.11942 -0.0243277 0)
(1.14479 -0.0205086 0)
(1.16837 -0.0193703 0)
(1.19165 -0.0213107 0)
(1.21546 -0.0244989 0)
(1.23867 -0.0262227 0)
(1.25988 -0.0253265 0)
(1.27912 -0.0227106 0)
(1.29771 -0.0198951 0)
(1.31678 -0.0180105 0)
(1.33695 -0.0174113 0)
(1.35821 -0.0174727 0)
(1.37967 -0.016967 0)
(1.40001 -0.0149378 0)
(1.41881 -0.0122165 0)
(1.43671 -0.00976101 0)
(1.45413 -0.00830213 0)
(1.47093 -0.00807757 0)
(1.48654 -0.00798046 0)
(1.49993 -0.00713916 0)
(1.51203 -0.00566736 0)
(1.52344 -0.00317541 0)
(1.5344 -0.000462254 0)
(1.54531 0.00140029 0)
(1.55597 0.00258872 0)
(1.5664 0.00315701 0)
(1.57635 0.00375766 0)
(1.58546 0.00518265 0)
(1.59376 0.00671833 0)
(1.60158 0.00755579 0)
(1.60778 0.00814282 0)
(1.61049 0.00784364 0)
(1.60936 0.00786108 0)
(1.60456 0.00787046 0)
(1.59584 0.00770172 0)
(1.58234 0.00721306 0)
(1.56321 0.00677898 0)
(1.53899 0.00702262 0)
(1.51428 0.00798446 0)
(1.49464 0.008896 0)
(1.48137 0.0095066 0)
(1.47333 0.00959777 0)
(1.47022 0.00911821 0)
(1.47156 0.00758303 0)
(1.4762 0.00669285 0)
(1.48044 0.0061472 0)
(1.48555 0.00595404 0)
(1.69137 1.03234 0)
(1.56514 0.926367 0)
(1.48934 0.694596 0)
(1.25002 0.515326 0)
(0.941808 0.361886 0)
(0.741248 0.210382 0)
(0.620488 0.11055 0)
(0.532896 0.0736804 0)
(0.462921 0.0581892 0)
(0.414355 0.0501426 0)
(0.388952 0.0487564 0)
(0.376573 0.0365812 0)
(0.362807 0.0234651 0)
(0.358302 0.000619046 0)
(0.366579 -0.0300505 0)
(0.387021 -0.0557556 0)
(0.412029 -0.0727315 0)
(0.434217 -0.0776099 0)
(0.455575 -0.0749175 0)
(0.480043 -0.0755925 0)
(0.511037 -0.0816921 0)
(0.549164 -0.0910894 0)
(0.590316 -0.0989503 0)
(0.628403 -0.0995147 0)
(0.6622 -0.097519 0)
(0.693622 -0.097843 0)
(0.725163 -0.101421 0)
(0.757904 -0.107219 0)
(0.79121 -0.112484 0)
(0.82345 -0.115053 0)
(0.853235 -0.114244 0)
(0.881004 -0.111514 0)
(0.908766 -0.108854 0)
(0.9379 -0.107392 0)
(0.968525 -0.107068 0)
(0.999542 -0.106408 0)
(1.02872 -0.103462 0)
(1.05407 -0.0983664 0)
(1.07616 -0.0927894 0)
(1.09655 -0.0881469 0)
(1.11653 -0.0855045 0)
(1.13723 -0.0847592 0)
(1.15856 -0.0839791 0)
(1.17935 -0.080879 0)
(1.19856 -0.0753393 0)
(1.21739 -0.0696749 0)
(1.2372 -0.0656092 0)
(1.25844 -0.0637886 0)
(1.28124 -0.06365 0)
(1.30449 -0.0628134 0)
(1.32506 -0.059321 0)
(1.34223 -0.0544731 0)
(1.35784 -0.0498169 0)
(1.37313 -0.046743 0)
(1.38916 -0.0457112 0)
(1.40573 -0.0447994 0)
(1.42117 -0.0423732 0)
(1.43537 -0.0385885 0)
(1.44942 -0.0340535 0)
(1.46391 -0.0301495 0)
(1.47907 -0.028004 0)
(1.49526 -0.0274908 0)
(1.51231 -0.02753 0)
(1.52869 -0.026586 0)
(1.5435 -0.0248428 0)
(1.55725 -0.0228113 0)
(1.56989 -0.0211374 0)
(1.58116 -0.0208279 0)
(1.59176 -0.0210969 0)
(1.60138 -0.0211222 0)
(1.61048 -0.0204839 0)
(1.61926 -0.01909 0)
(1.62767 -0.0169907 0)
(1.63572 -0.0146819 0)
(1.64371 -0.0129645 0)
(1.6515 -0.011821 0)
(1.65864 -0.0111909 0)
(1.66531 -0.0106484 0)
(1.67132 -0.0105742 0)
(1.67561 -0.0107558 0)
(1.67667 -0.011823 0)
(1.67447 -0.0125964 0)
(1.66898 -0.0133017 0)
(1.65992 -0.0143927 0)
(1.64668 -0.0158075 0)
(1.62881 -0.0167429 0)
(1.60639 -0.0163873 0)
(1.58299 -0.0150203 0)
(1.56308 -0.0131524 0)
(1.5492 -0.0110727 0)
(1.54085 -0.00857209 0)
(1.53689 -0.00720841 0)
(1.53711 -0.00720502 0)
(1.54156 -0.00748838 0)
(1.54804 -0.00717271 0)
(1.55249 -0.00327435 0)
(1.59217 0.934493 0)
(1.61767 0.862438 0)
(1.69683 0.752065 0)
(1.72256 0.614288 0)
(1.57658 0.470741 0)
(1.43038 0.320774 0)
(1.30658 0.221925 0)
(1.19574 0.167856 0)
(1.09458 0.124148 0)
(1.00561 0.0847531 0)
(0.949772 0.04044 0)
(0.929756 0.00579599 0)
(0.912059 -0.010089 0)
(0.895368 -0.0190234 0)
(0.892777 -0.0265939 0)
(0.903768 -0.0365555 0)
(0.926574 -0.0505034 0)
(0.953461 -0.0627403 0)
(0.976045 -0.0704593 0)
(0.996334 -0.073544 0)
(1.01862 -0.0771352 0)
(1.04684 -0.0853736 0)
(1.08077 -0.0973623 0)
(1.1153 -0.109143 0)
(1.14551 -0.115963 0)
(1.17028 -0.117235 0)
(1.19097 -0.115855 0)
(1.21081 -0.114841 0)
(1.23203 -0.115126 0)
(1.25461 -0.115236 0)
(1.27652 -0.112953 0)
(1.29577 -0.107914 0)
(1.31249 -0.101709 0)
(1.32831 -0.0960303 0)
(1.34467 -0.0922301 0)
(1.36201 -0.0909846 0)
(1.3796 -0.0915986 0)
(1.39534 -0.0929212 0)
(1.40752 -0.0934225 0)
(1.41701 -0.0921784 0)
(1.4261 -0.0894242 0)
(1.43611 -0.0849788 0)
(1.44769 -0.0792329 0)
(1.46079 -0.0729367 0)
(1.47377 -0.0660793 0)
(1.48507 -0.0598571 0)
(1.49621 -0.0557163 0)
(1.50802 -0.0524153 0)
(1.52075 -0.0481593 0)
(1.5355 -0.0445637 0)
(1.5499 -0.0428918 0)
(1.56041 -0.0428588 0)
(1.56997 -0.0425167 0)
(1.57814 -0.0401722 0)
(1.58682 -0.0362549 0)
(1.59713 -0.0320779 0)
(1.60751 -0.0281263 0)
(1.61741 -0.0250926 0)
(1.62718 -0.0227294 0)
(1.63695 -0.0201365 0)
(1.64689 -0.0164948 0)
(1.65772 -0.0123165 0)
(1.6695 -0.0084385 0)
(1.68125 -0.00551167 0)
(1.69208 -0.00346139 0)
(1.70237 -0.00202183 0)
(1.71192 -0.00143743 0)
(1.72008 -0.00105532 0)
(1.72689 -0.000235964 0)
(1.73283 0.000779647 0)
(1.73851 0.0021222 0)
(1.74418 0.00289225 0)
(1.75007 0.00312489 0)
(1.75613 0.00365751 0)
(1.76185 0.00482171 0)
(1.76681 0.00613808 0)
(1.77192 0.00716465 0)
(1.77644 0.00753917 0)
(1.78025 0.00715424 0)
(1.78208 0.00553384 0)
(1.78179 0.00313438 0)
(1.7785 0.000770959 0)
(1.77221 -0.00159135 0)
(1.76279 -0.00471381 0)
(1.74977 -0.00944664 0)
(1.73338 -0.0144187 0)
(1.71367 -0.0169126 0)
(1.6927 -0.0177169 0)
(1.67402 -0.0165766 0)
(1.66079 -0.016291 0)
(1.65241 -0.0157445 0)
(1.64733 -0.0152597 0)
(1.64479 -0.0155962 0)
(1.64538 -0.0169397 0)
(1.65006 -0.0205052 0)
(1.65595 -0.0233944 0)
(1.50263 0.809848 0)
(1.56276 0.757004 0)
(1.66194 0.684703 0)
(1.77148 0.60608 0)
(1.78203 0.526443 0)
(1.7492 0.457213 0)
(1.71798 0.376142 0)
(1.67791 0.293953 0)
(1.62276 0.214011 0)
(1.55911 0.150315 0)
(1.50074 0.0929861 0)
(1.47822 0.0386401 0)
(1.46915 -0.00113473 0)
(1.45226 -0.0205687 0)
(1.43507 -0.0375458 0)
(1.43065 -0.0506183 0)
(1.43467 -0.0705715 0)
(1.44744 -0.093904 0)
(1.46187 -0.106156 0)
(1.47179 -0.112671 0)
(1.48079 -0.119689 0)
(1.49153 -0.127208 0)
(1.50584 -0.135752 0)
(1.52334 -0.144173 0)
(1.53961 -0.150488 0)
(1.55131 -0.153541 0)
(1.559 -0.153402 0)
(1.56493 -0.151293 0)
(1.57168 -0.148861 0)
(1.58074 -0.146943 0)
(1.59126 -0.145028 0)
(1.6011 -0.141751 0)
(1.60851 -0.136925 0)
(1.61407 -0.131467 0)
(1.61933 -0.126172 0)
(1.62515 -0.12172 0)
(1.63188 -0.118634 0)
(1.63921 -0.115802 0)
(1.64506 -0.111014 0)
(1.64878 -0.10358 0)
(1.65265 -0.0935976 0)
(1.65753 -0.0837174 0)
(1.66343 -0.0789545 0)
(1.66987 -0.0788792 0)
(1.67796 -0.0797984 0)
(1.68537 -0.0782993 0)
(1.69188 -0.0709994 0)
(1.70016 -0.0596965 0)
(1.70882 -0.0505617 0)
(1.71665 -0.0481096 0)
(1.72509 -0.0489378 0)
(1.73211 -0.0490394 0)
(1.73854 -0.0456768 0)
(1.745 -0.0395732 0)
(1.75122 -0.0333148 0)
(1.75753 -0.029932 0)
(1.76401 -0.0296047 0)
(1.7704 -0.0298816 0)
(1.77748 -0.0283771 0)
(1.78582 -0.0249421 0)
(1.79487 -0.0198314 0)
(1.80398 -0.0138663 0)
(1.81255 -0.0093022 0)