/*--------------------------------*- C++ -*----------------------------------*\
  =========                 |
  \\      /  F ield         | OpenFOAM: The Open Source CFD Toolbox
   \\    /   O peration     | Website:  https://openfoam.org
    \\  /    A nd           | Version:  7
     \\/     M anipulation  |
\*---------------------------------------------------------------------------*/
FoamFile
{
    version     2.0;
    format      ascii;
    class       volScalarField;
    location    "7";
    object      p;
}
// * * * * * * * * * * * * * * * * * * * * * * * * * * * * * * * * * * * * * //

dimensions      [1 -1 -2 0 0 0 0];

internalField   nonuniform List<scalar> 
4032
(
1
1
1
1
1
1
1
1
1
1
1
1.3305
7.59301
10.6068
10.7392
10.9485
11.1345
11.312
11.4751
11.6219
11.7524
11.8578
11.9383
11.9976
1
1
1
1
1
1
1
1
1
1
1
1.29147
7.42911
10.5732
10.7269
10.9301
11.1123
11.2851
11.4431
11.583
11.7054
11.8026
11.8741
11.9301
1
1
1
1
1
1
1
1
1
1
1
1.18794
7.1286
10.5445
10.6857
10.8872
11.0694
11.2408
11.3961
11.5306
11.645
11.7331
11.7906
11.838
1
1
1
1
1
1
1
1
1
1
1
1.01665
6.62873
10.4933
10.6327
10.8206
10.9927
11.1521
11.2977
11.4256
11.5362
11.6204
11.6689
11.7059
1
1
1
1
1
1
1
1
1
1
1
1.0002
5.95581
10.3157
10.499
10.6842
10.8599
11.0175
11.157
11.2713
11.3605
11.4264
11.4603
11.5084
1
1
1
1
1
1
1
1
1
1
1
0.999999
5.11129
10.0846
10.3877
10.5577
10.7253
10.8649
10.9835
11.081
11.1587
11.2181
11.2293
11.1884
1
1
1
1
1
1
1
1
1
1
1
1
4.14202
9.73017
10.271
10.4289
10.5738
10.683
10.7659
10.8249
10.8451
10.8077
10.737
10.6919
1
1
1
1
1
1
1
1
1
1
1
1
3.09491
9.18099
10.1839
10.3225
10.4374
10.5106
10.5438
10.5467
10.4988
10.4181
10.2882
10.2788
1
1
1
1
1
1
1
1
1
1
1
1
2.01064
8.31932
10.1412
10.1974
10.2888
10.3296
10.3144
10.2531
10.1057
9.83512
9.05995
7.19886
1
1
1
1
1
1
1
1
1
1
1
1
1.12782
7.18438
10.1919
10.092
10.0888
10.077
10.02
9.89394
9.65242
9.17797
8.37779
6.31644
1
1
1
1
1
1
1
1
1
1
1
1
1.00158
5.57461
9.58897
9.72434
9.78828
9.76578
9.6908
9.51619
9.21674
8.65127
7.82672
5.89526
1
1
1
1
1
1
1
1
1
1
1
1
0.999976
3.70404
9.00979
9.58988
9.61943
9.55566
9.4358
9.20679
8.84677
8.27185
7.37126
5.81712
1
1
1
1
1
1
1
1
1
1
1
1
0.999994
1.96902
8.05093
9.52933
9.44278
9.33342
9.17447
8.91004
8.51434
7.95367
7.05249
5.84708
1
1
1
1
1
1
1
1
1
1
1
1
0.999999
1.09736
6.29057
9.2019
9.19093
9.09244
8.92404
8.65171
8.26185
7.69856
6.87316
5.92716
1
1
1
1
1
1
1
1
1
1
1
1
1
1.00051
3.84262
8.60964
9.04068
8.9381
8.7509
8.44142
8.05567
7.48577
6.76627
5.98945
1
1
1
1
1
1
1
1
1
1
1
1
1
0.999994
1.625
7.63863
9.0747
8.7969
8.5586
8.24693
7.83494
7.32976
6.71589
6.04946
1
1
1
1
1
1
1
1
1
1
1
1
1
0.999999
1.03418
5.60781
8.64628
8.45897
8.29485
8.02579
7.65863
7.20931
6.67227
6.0837
1
1
1
1
1
1
1
1
1
1
1
1
1
1
0.999971
2.80389
7.90696
8.34935
8.20312
7.93761
7.57924
7.14271
6.6429
6.11282
1
1
1
1
1
1
1
1
1
1
1
1
1
1
0.999989
1.22825
6.08028
8.30129
8.11843
7.83353
7.47801
7.06676
6.61265
6.13806
1
1
1
1
1
1
1
1
1
1
1
1
1
1
0.999998
1.00402
3.23671
7.60565
7.99369
7.70641
7.3816
7.0019
6.59116
6.16606
1
1
1
1
1
1
1
1
1
1
1
1
1
1
1
1
1.34115
5.98945
7.96288
7.63705
7.32841
6.96443
6.58154
6.19664
1
1
1
1
1
1
1
1
1
1
1
1
1
1
1
1
1.00933
3.12577
7.23086
7.53288
7.23812
6.90761
6.56462
6.21732
1
1
1
1
1
1
1
1
1
1
1
1
1
1
1
1
1.00003
1.31245
5.46742
7.54579
7.22098
6.92253
6.59659
6.24549
1
1
1
1
1
1
1
1
1
1
1
1
1
1
1
1
1
1.00819
2.52141
6.5241
7.19097
6.906
6.58248
6.20902
1
1
1
1
1
1
1
1
1
1
1
1
1
1
1
1
1
1.00004
1.16791
4.4192
7.14279
6.89165
6.55953
6.25196
1
1
1
1
1
1
1
1
1
1
1
1
1
1
1
1
1
1
1.00294
1.84727
5.81874
6.80477
6.57374
6.76045
1
1
1
1
1
1
1
1
1
1
1
1
1
1
1
1
1
1
1.00001
1.05497
3.14888
5.97074
7.10607
8.36417
1
1
1
1
1
1
1
1
1
1
1
1
1
1
1
1
1
1
1
1.00069
1.32525
4.17396
8.82792
10.0542
1
1
1
1
1
1
1
1
1
1
1
1
1
1
1
1
1
1
1
1
1.00966
2.80593
10.2729
11.017
1
1
1
1
1
1
1
1
1
1
1
1
1
1
1
1
1
1
1
1
1.00009
2.73737
10.1247
10.7132
1
1
1
1
1
1
1
1
1
1
1
1
1
1
1
1
1
1
1
1
1
2.74953
9.46583
10.4524
1
1
1
1
1
1
1
1
1
1
1
1
1
1
1
1
1
1
1
1
1
2.43742
8.97022
10.3526
1
1
1
1
1
1
1
1
1
1
1
1
1
1
1
1
1
1
1
1
1
2.01573
8.55799
10.3901
1
1
1
1
1
1
1
1
1
1
1
1
1
1
1
1
1
1
1
1
1
1.64288
8.18713
10.4233
1
1
1
1
1
1
1
1
1
1
1
1
1
1
1
1
1
1
1
1
1
1.40982
7.80373
10.4222
1
1
1
1
1
1
1
1
1
1
1
1
1
1
1
1
1
1
1
1
1
1.29132
7.50513
10.4123
1
1
1
1
1
1
1
1
1
1
1
1
1
1
1
1
1
1
1
1
1
1.20063
7.21878
10.3767
1
1
1
1
1
1
1
1
1
1
1
1
1
1
1
1
1
1
1
1
1
1.10549
7.03472
10.4065
1
1
1
1
1
1
1
1
1
1
1
1
1
1
1
1
1
1
1
1
1
1.02833
6.89101
10.4277
1
1
1
1
1
1
1
1
1
1
1
1
1
1
1
1
1
1
1
1
1
1.00219
6.80365
10.428
1.62433
0.38457
0.126701
0.142297
0.235689
0.305199
0.355846
0.476429
0.637546
0.742784
0.876346
1.03814
1.11156
1.13595
1.17124
1.20828
1.23432
1.23667
1.74918
4.54088
5.29554
5.31429
5.45221
5.60486
5.71211
5.71617
5.6673
5.61836
5.5922
5.58275
5.56938
5.54357
5.51549
5.4942
5.47675
5.45275
5.40169
5.32198
5.23913
5.17726
5.14356
5.1297
5.10268
5.034
4.94621
4.86352
4.79578
4.74746
4.71053
4.66145
4.59099
4.51825
4.45644
4.41084
4.3719
4.31282
4.23648
4.15661
4.08341
4.02216
3.98121
3.9438
3.88543
3.81909
3.74473
3.66817
3.60657
3.55457
3.51476
3.47927
3.4301
3.37308
3.3033
3.22187
3.1524
3.10338
3.06312
3.02977
2.9939
2.95101
2.89781
2.82474
2.75202
2.70738
2.67559
2.64826
2.6201
2.5859
2.54572
2.4892
2.41897
2.3658
2.33662
2.32811
2.37729
2.81094
2.74392
1.50019
0.811265
0.58643
0.596528
0.573091
0.5296
0.508397
0.512859
0.538295
0.605793
0.717495
0.842834
0.94461
1.01131
1.06129
1.12155
1.14522
1.52261
4.22484
5.45573
5.4857
5.52987
5.60545
5.69307
5.72029
5.67624
5.61776
5.57399
5.56052
5.57021
5.57187
5.53252
5.47063
5.41059
5.37327
5.3581
5.33366
5.26939
5.18915
5.12207
5.07648
5.05279
5.02227
4.95354
4.86647
4.78554
4.71875
4.67366
4.64388
4.60029
4.53115
4.45968
4.39495
4.33311
4.2812
4.22983
4.16835
4.10058
4.03502
3.97203
3.91106
3.85831
3.80797
3.75084
3.69083
3.62589
3.56369
3.50785
3.45605
3.40841
3.3584
3.30123
3.23866
3.17239
3.10814
3.0557
3.01516
2.98074
2.94301
2.89724
2.84074
2.77371
2.71003
2.66688
2.63593
2.61089
2.58021
2.54297
2.49538
2.43329
2.37002
2.34721
2.37145
2.49996
2.95976
3.55399
2.43208
1.72683
1.17892
0.915376
0.842726
0.778986
0.679429
0.577954
0.557124
0.582123
0.647289
0.724746
0.814207
0.890704
0.936493
0.988978
1.04426
1.22123
3.78215
5.74798
5.7124
5.61111
5.6167
5.65909
5.71133
5.70559
5.66077
5.59449
5.54956
5.54502
5.5826
5.60366
5.54201
5.44917
5.36536
5.30876
5.29467
5.29427
5.25008
5.17261
5.09552
5.033
4.99101
4.95274
4.89642
4.8194
4.73908
4.66847
4.61662
4.58576
4.55339
4.49654
4.42328
4.33522
4.25708
4.19764
4.14963
4.11348
4.06855
4.00301
3.91901
3.83087
3.76974
3.72334
3.68571
3.64732
3.59805
3.53466
3.45425
3.37231
3.31451
3.27276
3.2333
3.19015
3.1403
3.07766
3.00698
2.95064
2.91156
2.87661
2.83998
2.79968
2.74574
2.67786
2.6205
2.58472
2.55385
2.52127
2.48739
2.4534
2.4143
2.41924
2.51548
2.74339
3.10479
4.21922
3.12644
2.46818
1.9272
1.43106
1.18295
1.09991
1.01195
0.906574
0.804821
0.723951
0.690688
0.698138
0.723227
0.759628
0.792
0.837261
0.945654
1.09863
2.50572
5.56993
6.04116
5.81778
5.68882
5.67307
5.70146
5.71217
5.68918
5.6274
5.56393
5.52757
5.52355
5.54758
5.52416
5.46256
5.38285
5.31117
5.26509
5.24183
5.22291
5.17222
5.10429
5.03169
4.96828
4.9129
4.8636
4.80734
4.73984
4.67023
4.60915
4.56579
4.53019
4.47704
4.41584
4.34012
4.25294
4.18387
4.13204
4.09455
4.05223
3.99775
3.93046
3.83995
3.75915
3.70867
3.66681
3.63018
3.58773
3.53703
3.4701
3.38556
3.3115
3.25834
3.21634
3.17792
3.13827
3.09005
3.02396
2.95081
2.89522
2.85772
2.82673
2.79531
2.75833
2.70444
2.63141
2.56992
2.52951
2.49701
2.475
2.47312
2.5007
2.59465
2.83031
3.06251
3.21464
4.66712
3.6905
3.01845
2.50628
2.04658
1.67756
1.3779
1.24647
1.17657
1.09567
0.978823
0.817958
0.758603
0.754201
0.752147
0.778131
0.841728
0.964595
1.19564
1.62363
3.91211
5.89097
6.03801
5.85746
5.70527
5.68848
5.71223
5.70822
5.66978
5.61132
5.55895
5.52338
5.51099
5.50283
5.45877
5.402
5.33179
5.27536
5.23075
5.20031
5.16235
5.10852
5.04344
4.97123
4.90693
4.84635
4.78933
4.72937
4.67042
4.61823
4.57275
4.52078
4.46566
4.40428
4.32973
4.24719
4.18266
4.13412
4.08837
4.03761
3.98418
3.92083
3.83766
3.75814
3.7071
3.66358
3.6179
3.56896
3.51453
3.4503
3.37716
3.30933
3.25691
3.21322
3.17088
3.12629
3.07565
3.01432
2.94545
2.88834
2.85071
2.81876
2.78653
2.75107
2.70423
2.63589
2.56086
2.51367
2.48987
2.48933
2.53208
2.65391
2.88604
3.19365
3.30183
3.27555
5.0062
4.14829
3.50013
2.95622
2.47311
2.12939
1.83714
1.5389
1.37425
1.32961
1.2546
1.10936
0.940284
0.879577
0.869663
0.914989
1.03025
1.21272
1.51894
1.5846
2.04237
4.29468
5.84243
5.97025
5.83066
5.69192
5.68184
5.70686
5.69497
5.64914
5.58249
5.52919
5.49043
5.47372
5.44895
5.40011
5.33496
5.26738
5.21709
5.17859
5.14749
5.09803
5.03642
4.95922
4.88401
4.82376
4.76814
4.71897
4.67084
4.61738
4.55961
4.50061
4.44178
4.38064
4.31457
4.24691
4.18317
4.12423
4.06902
4.01676
3.96386
3.90427
3.83358
3.75979
3.69846
3.64953
3.60361
3.55574
3.50274
3.44223
3.37461
3.30646
3.24878
3.20276
3.16093
3.11744
3.06876
3.01242
2.94879
2.887
2.84021
2.8062
2.77445
2.7399
2.69694
2.64037
2.56625
2.51667
2.51285
2.54758
2.68591
2.91749
3.19728
3.40273
3.41989
3.3434
5.2305
4.47313
3.85561
3.36799
2.8667
2.44852
2.19434
1.93905
1.66538
1.5042
1.43441
1.3337
1.19826
1.09306
1.09089
1.20553
1.43937
1.63699
1.80177
1.78722
1.80178
2.28071
4.19288
5.75203
5.9072
5.761
5.66998
5.67119
5.69742
5.67593
5.61313
5.53365
5.48002
5.44446
5.43099
5.39273
5.33677
5.2639
5.20702
5.16271
5.13151
5.08528
5.02593
4.9484
4.86646
4.80698
4.75649
4.71743
4.67137
4.61439
4.54666
4.47307
4.40965
4.35541
4.3044
4.25124
4.19004
4.11942
4.04838
3.98749
3.93388
3.88199
3.82765
3.76567
3.6962
3.63174
3.57833
3.5292
3.47973
3.42798
3.37157
3.30804
3.24206
3.18488
3.13799
3.09499
3.05208
3.00661
2.95576
2.89635
2.83591
2.78838
2.75082
2.71501
2.67609
2.63546
2.5882
2.56517
2.59238
2.71402
2.95773
3.1919
3.39594
3.47173
3.46072
3.38171
5.39845
4.74343
4.1384
3.66458
3.23168
2.79607
2.45207
2.23211
2.00928
1.76644
1.58369
1.49548
1.44871
1.47323
1.56402
1.81679
2.0062
2.06589
2.04714
2.0061
1.95106
1.98563
2.39985
4.01613
5.56701
5.78716
5.71473
5.67755
5.69008
5.68562
5.62686
5.53294
5.46014
5.4164
5.40058
5.3777
5.32905
5.25885
5.19272
5.14424
5.10829
5.06464
5.00844
4.93621
4.85149
4.79118
4.74352
4.70483
4.6563
4.6004
4.52946
4.44468
4.3828
4.33697
4.29169
4.24145
4.18282
4.11094
4.02886
3.95801
3.90526
3.85989
3.81377
3.75969
3.69077
3.6148
3.55269
3.50385
3.45928
3.41492
3.36677
3.30841
3.23614
3.16535
3.11286
3.07209
3.03523
2.99886
2.95823
2.90624
2.83938
2.77377
2.72499
2.68778
2.65698
2.63725
2.63679
2.67753
2.80092
3.06248
3.30192
3.39475
3.44282
3.45214
3.4469
3.3882
5.51014
4.94243
4.37599
3.8983
3.51384
3.13162
2.73648
2.44897
2.25927
2.05035
1.8465
1.75425
1.86773
2.00011
2.16202
2.39088
2.38636
2.34156
2.3082
2.24944
2.21232
2.18377
2.20257
2.47821
3.80552
5.27227
5.63579
5.73343
5.71494
5.69312
5.62888
5.52709
5.44081
5.39569
5.37463
5.36126
5.31805
5.25522
5.1792
5.12623
5.08441
5.0424
4.98929
4.92386
4.83931
4.77184
4.72408
4.68208
4.63401
4.58159
4.51509
4.42925
4.36325
4.31791
4.27203
4.22151
4.16503
4.09673
4.01346
3.93639
3.88266
3.83807
3.79272
3.74087
3.67493
3.59557
3.52607
3.47804
3.43858
3.39965
3.35692
3.30274
3.22611
3.1401
3.08392
3.04902
3.01828
2.98739
2.95294
2.90789
2.84198
2.76198
2.69926
2.66507
2.65496
2.6754
2.75236
2.91805
3.18362
3.4653
3.52639
3.50248
3.45628
3.4225
3.41745
3.39519
5.58954
5.08658
4.59
4.11704
3.72513
3.38067
3.0229
2.68673
2.44811
2.31707
2.24689
2.3179
2.63098
2.69084
2.72535
2.767
2.70074
2.61373
2.60428
2.55003
2.46997
2.4476
2.38379
2.39341
2.57458
3.55395
4.9022
5.4978
5.71538
5.71857
5.64855
5.52574
5.42493
5.3805
5.35471
5.34406
5.30414
5.24748
5.16707
5.10371
5.05775
5.01636
4.9669
4.90782
4.82832
4.74689
4.69576
4.65231
4.60723
4.55911
4.50137
4.42515
4.3477
4.29066
4.24105
4.19085
4.13717
4.0753
4.00014
3.92152
3.86042
3.81209
3.7652
3.71431
3.6539
3.58055
3.50575
3.45114
3.41244
3.37676
3.33895
3.29163
3.22034
3.12504
3.05772
3.02386
2.99586
2.96755
2.9371
2.89871
2.84323
2.75999
2.68589
2.66966
2.68821
2.78391
3.01542
3.263
3.52873
3.65577
3.64706
3.58578
3.49063
3.4336
3.41066
3.39261
5.65624
5.19726
4.75843
4.29918
3.90604
3.575
3.24262
2.93321
2.75601
2.84999
2.9108
3.09342
3.30587
3.24831
3.09004
3.03831
2.97374
2.88403
2.87244
2.83644
2.73337
2.67396
2.64445
2.5518
2.5446
2.64835
3.31277
4.5355
5.35903
5.64988
5.66793
5.56105
5.42583
5.36684
5.33736
5.32801
5.29195
5.23701
5.15496
5.07678
5.02791
4.98725
4.94322
4.88927
4.81741
4.72688
4.6644
4.62214
4.58124
4.53675
4.4857
4.41957
4.33604
4.26048
4.2047
4.15531
4.10514
4.05015
3.98434
3.9062
3.83418
3.78016
3.7333
3.68579
3.63308
3.57001
3.49491
3.42492
3.37808
3.34296
3.30778
3.26638
3.2094
3.1294
3.04863
3.0002
2.96953
2.94189
2.91231
2.87768
2.83443
2.76916
2.7174
2.73387
2.83097
3.09235
3.36955
3.55982
3.6953
3.70537
3.67321
3.61558
3.54588
3.47584
3.43367
3.39998
5.72613
5.29237
4.88487
4.4664
4.06368
3.74545
3.50853
3.35616
3.47005
3.75947
3.75008
3.77265
3.76405
3.6555
3.4322
3.31844
3.27091
3.17098
3.1344
3.10207
3.00781
2.90466
2.8737
2.80802
2.7174
2.67178
2.7143
3.1113
4.15245
5.09656
5.5318
5.57286
5.44667
5.36263
5.31493
5.30827
5.27997
5.22529
5.14107
5.04623
4.99223
4.95154
4.91429
4.86555
4.80252
4.71317
4.63505
4.59177
4.55361
4.5115
4.46274
4.40102
4.31672
4.22725
4.16562
4.11888
4.0732
4.02354
3.96323
3.8844
3.79873
3.73653
3.69287
3.65273
3.61028
3.56006
3.49346
3.40983
3.33854
3.29543
3.26141
3.22581
3.18528
3.13362
3.06339
2.98801
2.93748
2.9069
2.87803
2.84903
2.82502
2.80251
2.82858
2.95078
3.19508
3.53396
3.63916
3.69279
3.70874
3.69426
3.66404
3.62954
3.59268
3.54658
3.4914
3.42699
5.78594
5.37432
4.98124
4.59
4.24463
4.04553
4.11812
4.18568
4.4239
4.5393
4.34289
4.16404
4.06595
3.97236
3.79131
3.63336
3.58961
3.47588
3.39312
3.34354
3.25195
3.12792
3.06812
3.02422
2.93903
2.85403
2.77092
2.77644
2.98118
3.75425
4.78089
5.34523
5.39168
5.36062
5.29965
5.29435
5.26494
5.2102
5.12771
5.01652
4.95291
4.91231
4.87989
4.83654
4.78188
4.70324
4.6123
4.56105
4.5226
4.47914
4.42904
4.36871
4.28771
4.19214
4.12574
4.08256
4.04118
3.9954
3.93916
3.86246
3.76524
3.68875
3.64647
3.61228
3.57838
3.54053
3.48905
3.40942
3.3116
3.24675
3.21151
3.1827
3.15388
3.12107
3.07252
2.99679
2.91492
2.86875
2.84323
2.83518
2.85602
2.92429
3.11961
3.36813
3.64833
3.795
3.7907
3.75582
3.70824
3.67924
3.65667
3.63904
3.61936
3.59077
3.55593
3.47995
5.82456
5.4361
5.06713
4.76671
4.65416
4.86181
5.15015
5.1661
5.15705
5.03863
4.7645
4.48148
4.35761
4.28497
4.12974
3.94121
3.87686
3.78086
3.66529
3.58793
3.48346
3.3612
3.26214
3.21423
3.15442
3.0634
2.9595
2.84352
2.84072
2.93778
3.443
4.38857
5.02705
5.22422
5.28242
5.28026
5.25045
5.18597
5.10578
4.98855
4.9105
4.8708
4.83964
4.80071
4.75312
4.68846
4.59525
4.52714
4.48286
4.43529
4.38326
4.32484
4.2507
4.15755
4.08609
4.04287
4.00237
3.95828
3.90698
3.83986
3.74808
3.65411
3.59672
3.5618
3.53135
3.50027
3.46311
3.40672
3.31487
3.21714
3.16417
3.13603
3.11171
3.08592
3.0537
3.00314
2.92522
2.85174
2.8363
2.86555
2.97876
3.23998
3.51295
3.73749
3.90385
3.90644
3.87031
3.80997
3.73635
3.68038
3.65142
3.63552
3.62974
3.60825
3.58202
3.52138
5.85296
5.52139
5.28915
5.3809
5.68117
5.99846
5.96373
5.75731
5.52606
5.32711
5.11072
4.83258
4.69246
4.61658
4.46031
4.24469
4.1346
4.05744
3.92998
3.82879
3.70478
3.58308
3.48516
3.40197
3.33672
3.24925
3.134
3.01551
2.91471
2.88873
2.93001
3.21757
3.92585
4.66977
5.03977
5.17
5.22683
5.17262
5.0926
4.97099
4.87058
4.826
4.79422
4.76238
4.71998
4.66422
4.57736
4.49077
4.43384
4.38245
4.33038
4.27628
4.21114
4.12615
4.04756
3.99578
3.95171
3.9074
3.86056
3.80577
3.73385
3.64531
3.56452
3.50978
3.47359
3.4436
3.4139
3.37496
3.31365
3.22562
3.14036
3.09188
3.06465
3.04171
3.01806
2.98961
2.9447
2.89962
2.929
3.06288
3.32959
3.65219
3.81469
3.92486
3.95295
3.92446
3.88423
3.83878
3.78093
3.71409
3.67025
3.64608
3.63103
3.61701
3.59474
3.54278
5.89602
5.78098
6.06795
6.56063
6.83396
6.71632
6.43088
6.1296
5.8015
5.58874
5.43972
5.19444
5.02282
4.92539
4.76818
4.5443
4.39036
4.30982
4.18461
4.05516
3.92853
3.79054
3.69946
3.6144
3.51997
3.4203
3.29232
3.1775
3.07961
2.99101
2.94918
2.93503
3.04176
3.49896
4.24049
4.77608
5.0181
5.12851
5.08425
4.98137
4.84113
4.77155
4.73875
4.71491
4.6813
4.63101
4.55171
4.45065
4.37616
4.32538
4.27946
4.23197
4.176
4.10119
4.0157
3.94854
3.89693
3.85001
3.80428
3.7565
3.70127
3.6343
3.55705
3.48211
3.42452
3.38296
3.34857
3.31577
3.279
3.22764
3.15811
3.07371
3.01396
2.98785
2.97142
2.97229
2.99045
3.06063
3.2549
3.51523
3.82826
3.92444
3.94167
3.94131
3.93008
3.91309
3.88998
3.86057
3.82316
3.76804
3.7048
3.66903
3.64566
3.62735
3.60705
3.55856
6.30776
6.86014
7.40136
7.59981
7.36021
7.00749
6.70215
6.45742
6.16891
5.91166
5.76909
5.56036
5.34109
5.21093
5.05315
4.82278
4.65167
4.55958
4.4411
4.29212
4.14807
4.01327
3.89675
3.80585
3.70556
3.58562
3.45107
3.32055
3.23748
3.15398
3.06077
2.97748
2.95432
2.959
3.17945
3.76816
4.42173
4.84444
4.96602
4.95855
4.83064
4.72812
4.69426
4.67179
4.64005
4.59167
4.51743
4.40355
4.31059
4.26498
4.22763
4.18878
4.14269
4.07779
3.98715
3.90174
3.84115
3.79114
3.74391
3.69582
3.64562
3.59499
3.53787
3.46935
3.39612
3.33676
3.29465
3.25883
3.2236
3.18966
3.14712
3.08124
3.00121
2.96085
2.9595
3.00319
3.14218
3.43246
3.72558
3.98131
4.07677
4.05306
4.00472
3.95583
3.92556
3.91017
3.9033
3.88165
3.85054
3.80846
3.74679
3.6929
3.66468
3.64113
3.62193
3.57652
7.62989
8.25488
8.37999
8.08503
7.62497
7.22324
6.97193
6.7884
6.54039
6.23965
6.05308
5.89215
5.65099
5.47473
5.31701
5.0848
4.9023
4.80534
4.67963
4.53249
4.36156
4.21452
4.09621
3.98084
3.87384
3.75286
3.61167
3.47768
3.37465
3.29227
3.21164
3.10723
3.0071
2.92395
2.89393
2.9819
3.37858
4.024
4.56267
4.77567
4.75703
4.70246
4.66476
4.64135
4.60151
4.547
4.47268
4.35338
4.24733
4.20409
4.17205
4.14205
4.10218
4.0444
3.9664
3.87204
3.7944
3.73875
3.69056
3.64966
3.61115
3.56143
3.50565
3.44241
3.3799
3.30799
3.24875
3.22323
3.20092
3.16668
3.12634
3.07713
3.01108
2.99215
3.04623
3.22595
3.55118
3.84336
4.03261
4.15801
4.16037
4.13201
4.07853
4.00077
3.94642
3.92012
3.90548
3.89079
3.86355
3.83135
3.78579
3.72508
3.68581
3.66046
3.64029
3.59525
9.12453
9.02653
8.75369
8.33054
7.88484
7.51103
7.29751
7.13535
6.88706
6.56083
6.33116
6.19355
5.97577
5.74738
5.57708
5.35613
5.15328
5.04221
4.91206
4.74715
4.57573
4.40155
4.27801
4.16335
4.04449
3.92094
3.77477
3.62921
3.51171
3.41535
3.33044
3.24237
3.1288
3.00906
2.90874
2.85538
2.87524
3.10311
3.60444
4.18567
4.54436
4.58072
4.61169
4.60803
4.56728
4.50466
4.42421
4.29989
4.18558
4.13792
4.11554
4.08159
4.03573
3.98651
3.91155
3.80788
3.74076
3.70482
3.66651
3.61183
3.53909
3.46762
3.42168
3.39396
3.35724
3.29881
3.23527
3.1753
3.1142
3.07432
3.05668
3.05391
3.07821
3.1776
3.40502
3.73967
3.99332
4.07434
4.14362
4.18809
4.18442
4.15672
4.1092
4.03208
3.96165
3.92785
3.90641
3.89541
3.87781
3.85133
3.8149
3.7574
3.69961
3.66557
3.64617
3.60465
9.84179
9.37655
8.97536
8.56673
8.17207
7.8152
7.60599
7.44236
7.19235
6.8572
6.60701
6.46356
6.27869
6.0314
5.82738
5.62442
5.40794
5.25905
5.1236
4.94717
4.76037
4.58866
4.44545
4.32726
4.20648
4.0762
3.93324
3.77658
3.64352
3.53827
3.44226
3.35359
3.25417
3.13316
3.00276
2.88252
2.83443
2.8334
2.9194
3.24516
3.80746
4.21718
4.46009
4.49658
4.46311
4.39818
4.32784
4.23462
4.1616
4.11548
4.06215
3.9983
3.93417
3.86788
3.79765
3.74991
3.71667
3.67585
3.6227
3.55594
3.47771
3.41425
3.37161
3.33147
3.29671
3.27116
3.22493
3.14186
3.061
3.04555
3.05199
3.12588
3.33626
3.64331
3.96979
4.17672
4.19788
4.19947
4.19864
4.2011
4.1869
4.15283
4.11182
4.05851
3.99185
3.95314
3.93499
3.92167
3.9013
3.87183
3.83614
3.78692
3.72262
3.68296
3.66737
3.63145
10.1232
9.51824
9.10226
8.81554
8.47196
8.14318
7.9384
7.75849
7.49313
7.1427
6.87546
6.71776
6.54186
6.30132
6.06042
5.8659
5.65891
5.47576
5.32001
5.14258
4.93965
4.7621
4.61353
4.48453
4.35913
4.22471
4.07759
3.9231
3.78052
3.66713
3.56744
3.47134
3.37628
3.26795
3.13758
3.01835
2.90924
2.83048
2.78523
2.82172
3.00182
3.38619
3.83957
4.21308
4.3177
4.31101
4.26885
4.20109
4.14352
4.08312
4.01381
3.94419
3.87205
3.78826
3.72043
3.6865
3.6553
3.6135
3.5602
3.48934
3.39844
3.34712
3.32413
3.30405
3.27646
3.23007
3.16884
3.09771
3.0562
3.06539
3.17762
3.46655
3.85147
4.10484
4.29793
4.32381
4.3039
4.25975
4.2172
4.1899
4.17679
4.1605
4.13247
4.1005
4.05873
3.99799
3.93796
3.90376
3.88579
3.87558
3.85514
3.82045
3.77648
3.71866
3.66648
3.61739
9.97119
9.58382
9.32989
9.14707
8.7756
8.41587
8.19351
8.04106
7.77482
7.42981
7.16927
7.0106
6.83332
6.59448
6.30345
6.07904
5.87923
5.68433
5.50155
5.3082
5.10411
4.91685
4.7632
4.62674
4.49239
4.34934
4.19269
4.03205
3.8891
3.76955
3.66305
3.56127
3.45588
3.34143
3.22122
3.09728
2.987
2.89671
2.817
2.7775
2.73511
2.78738
3.01288
3.48137
3.90809
4.14891
4.1686
4.12759
4.07649
4.02041
3.95846
3.9016
3.83142
3.7369
3.66364
3.63049
3.59577
3.55262
3.50075
3.44049
3.36814
3.30377
3.27182
3.24269
3.20433
3.16817
3.14337
3.10446
3.13054
3.28961
3.61723
4.00177
4.19787
4.32327
4.39719
4.39566
4.36282
4.29451
4.21321
4.18086
4.16195
4.15347
4.15432
4.1365
4.1056
4.04854
3.96883
3.91708
3.88902
3.86742
3.8531
3.84059
3.81468
3.76232
3.69113
3.62064
10.0633
9.85382
9.60955
9.31979
8.97232
8.67782
8.46906
8.31118
8.02284
7.65842
7.37802
7.2087
7.03432
6.78402
6.52979
6.33716
6.15052
5.95159
5.75659
5.54926
5.33285
5.14233
4.9842
4.83953
4.69583
4.54486
4.38264
4.21822
4.06937
3.94132
3.82595
3.71333
3.59657
3.47267
3.34617
3.22325
3.11838
3.01438
2.92073
2.81289
2.72268
2.65966
2.67066
2.79548
3.14383
3.59312
3.90823
4.00016
3.99495
3.94967
3.8881
3.83727
3.77739
3.69148
3.60207
3.55909
3.52544
3.49034
3.45019
3.40415
3.34263
3.26608
3.20593
3.16166
3.13266
3.13885
3.15601
3.25389
3.50024
3.84599
4.17804
4.31692
4.35556
4.4119
4.44347
4.42667
4.37966
4.30933
4.22679
4.18514
4.16803
4.15643
4.14912
4.13278
4.10757
4.07053
4.01698
3.95591
3.91438
3.88565
3.86106
3.83475
3.80445
3.76203
3.71451
3.64184
10.0849
9.9279
9.67873
9.40831
9.13093
8.88449
8.66992
8.44973
8.16232
7.85021
7.5976
7.43053
7.2558
6.98686
6.68398
6.47369
6.29177
6.07821
5.86185
5.64452
5.41948
5.2207
5.05696
4.90641
4.75522
4.59636
4.4265
4.25538
4.10019
3.96537
3.84274
3.72297
3.60132
3.47533
3.34814
3.22986
3.12759
3.03228
2.93515
2.83887
2.74204
2.65292
2.58295
2.56505
2.63382
2.88231
3.32515
3.68924
3.82768
3.85558
3.83132
3.77929
3.72055
3.64674
3.54809
3.47917
3.44527
3.41753
3.40086
3.36734
3.31116
3.22973
3.14023
3.1003
3.11403
3.15378
3.34667
3.72172
4.08497
4.34622
4.44691
4.4521
4.44613
4.42969
4.40652
4.383
4.36056
4.3295
4.27483
4.21966
4.19241
4.173
4.15011
4.12432
4.09699
4.06813
4.0346
3.9917
3.94808
3.91242
3.87962
3.84506
3.80876
3.7701
3.73253
3.66517
10.071
9.92024
9.71497
9.49004
9.25941
9.03426
8.82974
8.59376
8.31893
8.03867
7.79524
7.60734
7.38153
7.09533
6.81201
6.60707
6.43999
6.24148
6.01412
5.77837
5.54977
5.35012
5.18043
5.02285
4.86513
4.70114
4.52868
4.35652
4.19913
4.05862
3.92606
3.79535
3.66509
3.53574
3.41053
3.29672
3.19348
3.09691
2.9971
2.89274
2.77792
2.67708
2.58789
2.53042
2.49086
2.52691
2.68341
3.03654
3.41776
3.65125
3.74675
3.75128
3.7001
3.62303
3.52351
3.41124
3.3641
3.33855
3.33521
3.31195
3.26015
3.19841
3.12331
3.12392
3.16213
3.40113
3.88468
4.26161
4.45007
4.57277
4.54775
4.48293
4.43023
4.39462
4.37309
4.36393
4.35606
4.33538
4.30155
4.25558
4.21253
4.1821
4.15697
4.13167
4.10573
4.07901
4.04897
4.01073
3.96455
3.92257
3.88648
3.85109
3.81567
3.78137
3.74912
3.68493
10.1151
9.96995
9.77653
9.57022
9.35352
9.13326
8.91119
8.66396
8.40066
8.14753
7.9304
7.73108
7.48282
7.20426
6.95152
6.75026
6.57509
6.36613
6.12538
5.87281
5.64836
5.4512
5.27386
5.10752
4.94208
4.76879
4.58948
4.41823
4.26431
4.12531
3.99331
3.8616
3.72529
3.58647
3.45395
3.33645
3.23181
3.13679
3.04124
2.93873
2.82448
2.71208
2.61492
2.54243
2.47813
2.44194
2.43311
2.50946
2.77145
3.15676
3.47359
3.63029
3.66376
3.61681
3.52044
3.38426
3.29493
3.26138
3.24634
3.22963
3.19376
3.1729
3.1652
3.22243
3.53341
4.01303
4.40916
4.54624
4.60347
4.5929
4.5447
4.49211
4.45274
4.40873
4.3842
4.36717
4.34802
4.32443
4.29876
4.26863
4.22975
4.19099
4.16576
4.1426
4.11814
4.09173
4.06097
4.0196
3.96543
3.91773
3.88285
3.85358
3.82653
3.80065
3.77611
3.71646
10.1205
9.96941
9.78326
9.59714
9.40394
9.19882
8.97511
8.73345
8.4883
8.26068
8.0461
7.8137
7.54976
7.28139
7.04292
6.84758
6.65687
6.43175
6.1791
5.9399
5.74417
5.55884
5.38043
5.20267
5.01252
4.81261
4.62618
4.46766
4.32845
4.19761
4.06764
3.92899
3.77446
3.61588
3.47642
3.36429
3.26799
3.17858
3.08704
2.98509
2.86589
2.74431
2.63973
2.56049
2.49426
2.43286
2.39311
2.35234
2.37881
2.549
2.94203
3.27712
3.49399
3.54616
3.49976
3.39977
3.27276
3.19403
3.16279
3.14632
3.15706
3.1669
3.30811
3.72703
4.20491
4.52308
4.60586
4.59426
4.58033
4.55651
4.5343
4.51368
4.49029
4.443
4.39291
4.36313
4.34479
4.32856
4.3083
4.2836
4.24653
4.19781
4.16605
4.14238
4.1181
4.09265
4.06362
4.02302
3.96604
3.92066
3.89238
3.86701
3.84236
3.81701
3.7924
3.73128
10.1329
9.98435
9.80363
9.62115
9.42419
9.21496
8.99358
8.76749
8.5489
8.3401
8.11856
7.87467
7.61684
7.3682
7.15461
6.95897
6.72914
6.47034
6.21101
6.00611
5.82833
5.64945
5.46549
5.26878
5.05283
4.8441
4.66763
4.51862
4.38429
4.25432
4.11957
3.9699
3.8047
3.64275
3.50434
3.39336
3.29868
3.20956
3.11632
3.01289
2.89464
2.77381
2.66931
2.58522
2.51639
2.44918
2.38593
2.32997
2.27199
2.26187
2.39495
2.74462
3.10284
3.3571
3.4126
3.37332
3.28841
3.18033
3.1033
3.10901
3.14654
3.36545
3.87482
4.36196
4.61553
4.694
4.64224
4.57028
4.54485
4.53268
4.5412
4.53017
4.50598
4.46097
4.40021
4.36877
4.3502
4.33271
4.30993
4.28032
4.2403
4.19539
4.16692
4.14655
4.12668
4.10242
4.07278
4.02968
3.97176
3.92556
3.89748
3.87197
3.84655
3.82027
3.79415
3.7332
10.1251
9.98346
9.81345
9.63699
9.44447
9.24029
9.02735
8.81456
8.60375
8.3827
8.14124
7.88345
7.62923
7.41109
7.2291
7.01182
6.75501
6.49248
6.27298
6.08018
5.90097
5.71484
5.51736
5.30342
5.0847
4.88506
4.7135
4.5628
4.42441
4.28986
4.14912
3.99423
3.83022
3.67551
3.54028
3.42229
3.31926
3.22652
3.13363
3.03162
2.92057
2.80803
2.70535
2.61172
2.53235
2.46289
2.3936
2.32718
2.25513
2.20008
2.19545
2.27553
2.55918
2.93716
3.21205
3.2937
3.26719
3.18686
3.12533
3.16186
3.42029
3.95431
4.45296
4.6532
4.70381
4.68801
4.62462
4.55996
4.53876
4.53274
4.54377
4.53455
4.51124
4.47351
4.41914
4.37932
4.35555
4.33104
4.3039
4.27471
4.24442
4.21416
4.18511
4.15891
4.1325
4.10131
4.06353
4.01982
3.97472
3.93397
3.90293
3.87786
3.85312
3.82602
3.79673
3.73336
10.1602
10.0105
9.83818
9.65811
9.46552
9.26403
9.05661
8.84791
8.63329
8.40657
8.17009
7.92904
7.69667
7.47772
7.26404
7.0294
6.77666
6.54361
6.33017
6.13698
5.94429
5.74427
5.5344
5.31975
5.11485
4.93084
4.76495
4.60823
4.45749
4.30991
4.15494
3.99617
3.84773
3.71321
3.5875
3.46495
3.34532
3.23191
3.1243
3.0186
2.9239
2.83629
2.74886
2.65677
2.5624
2.46874
2.38291
2.30897
2.24769
2.19203
2.16282
2.1253
2.17079
2.38719
2.73748
3.05659
3.13753
3.16578
3.28749
3.58129
4.07699
4.47804
4.69738
4.74617
4.72465
4.68855
4.63712
4.57682
4.54941
4.5366
4.53662
4.52977
4.50944
4.47991
4.43656
4.39532
4.36807
4.34321
4.31707
4.28978
4.26151
4.23146
4.19446
4.15421
4.11812
4.08525
4.05412
4.0238
3.99196
3.95801
3.9215
3.88714
3.85466
3.81991
3.78641
3.72746
10.1811
10.0232
9.84927
9.66925
9.47971
9.28273
9.07913
8.86918
8.65004
8.42188
8.18918
7.95656
7.72988
7.51113
7.2659
7.01502
6.78721
6.58069
6.38117
6.1745
5.96544
5.74703
5.5303
5.32568
5.14083
4.97468
4.81612
4.65654
4.48829
4.30909
4.13739
3.98597
3.85582
3.73963
3.62677
3.50772
3.37859
3.24031
3.1121
3.00675
2.91948
2.8414
2.76662
2.68414
2.58753
2.48074
2.38507
2.31077
2.24893
2.19242
2.1368
2.09398
2.04264
2.05865
2.23988
2.60845
2.93808
3.28408
3.7629
4.25381
4.54674
4.65961
4.66816
4.68916
4.70461
4.68386
4.6504
4.59777
4.56243
4.54548
4.53329
4.52412
4.50553
4.48082
4.44449
4.40355
4.37676
4.35368
4.33089
4.30716
4.27919
4.23821
4.18387
4.13743
4.1065
4.08168
4.05824
4.03432
4.00925
3.97876
3.9383
3.88954
3.8461
3.80808
3.77713
3.72535
10.1933
10.0334
9.85944
9.68018
9.4924
9.29691
9.09286
8.87903
8.65717
8.43091
8.20445
7.97971
7.75376
7.51579
7.27298
7.03577
6.81375
6.61473
6.40722
6.1934
5.97217
5.73831
5.51636
5.32973
5.16645
5.01216
4.85811
4.69119
4.49751
4.28994
4.10877
3.97206
3.86294
3.76324
3.66291
3.5473
3.39907
3.22856
3.08462
2.9857
2.91288
2.84895
2.78633
2.71404
2.61422
2.48284
2.36807
2.29218
2.23975
2.19406
2.14115
2.08901
2.03235
1.94573
1.96471
2.15354
2.69825
3.48741
4.22799
4.84609
5.0608
4.91342
4.70422
4.66988
4.68005
4.6748
4.65432
4.60593
4.56205
4.5431
4.52947
4.52044
4.50358
4.47994
4.44955
4.41295
4.38324
4.35829
4.33314
4.30709
4.27711
4.23299
4.17245
4.12758
4.10292
4.08169
4.06377
4.04584
4.02206
3.99013
3.94079
3.88368
3.8389
3.8017
3.77239
3.7234
)
;

boundaryField
{
    inlet
    {
        type            fixedValue;
        value           uniform 1;
    }
    outlet
    {
        type            zeroGradient;
    }
    bottom
    {
        type            symmetryPlane;
    }
    top
    {
        type            symmetryPlane;
    }
    obstacle
    {
        type            zeroGradient;
    }
    defaultFaces
    {
        type            empty;
    }
}


// ************************************************************************* //
