/*--------------------------------*- C++ -*----------------------------------*\
  =========                 |
  \\      /  F ield         | OpenFOAM: The Open Source CFD Toolbox
   \\    /   O peration     | Website:  https://openfoam.org
    \\  /    A nd           | Version:  7
     \\/     M anipulation  |
\*---------------------------------------------------------------------------*/
FoamFile
{
    version     2.0;
    format      ascii;
    class       volScalarField;
    location    "7";
    object      rho;
}
// * * * * * * * * * * * * * * * * * * * * * * * * * * * * * * * * * * * * * //

dimensions      [1 -3 0 0 0 0 0];

internalField   nonuniform List<scalar> 
4032
(
1.40001
1.40001
1.40001
1.40001
1.40001
1.40001
1.40001
1.40001
1.40001
1.40001
1.40001
1.58672
4.40395
5.46746
5.51393
5.58955
5.6569
5.7209
5.77944
5.83191
5.87844
5.91581
5.94436
5.96548
1.40001
1.40001
1.40001
1.40001
1.40001
1.40001
1.40001
1.40001
1.40001
1.40001
1.40001
1.56352
4.33396
5.45228
5.50877
5.58287
5.64884
5.71108
5.76779
5.81789
5.86162
5.8962
5.92161
5.94164
1.40001
1.40001
1.40001
1.40001
1.40001
1.40001
1.40001
1.40001
1.40001
1.40001
1.40001
1.50786
4.22486
5.44308
5.49382
5.56699
5.63289
5.69459
5.75034
5.79863
5.83969
5.87121
5.89178
5.90879
1.40001
1.40001
1.40001
1.40001
1.40001
1.40001
1.40001
1.40001
1.40001
1.40001
1.40001
1.41269
4.04508
5.43249
5.47644
5.54236
5.60414
5.66158
5.71407
5.76019
5.80017
5.8306
5.84813
5.86158
1.40001
1.40001
1.40001
1.40001
1.40001
1.40001
1.40001
1.40001
1.40001
1.40001
1.40001
1.40019
3.7691
5.37231
5.42901
5.49279
5.55545
5.61219
5.6625
5.70378
5.73624
5.7608
5.77431
5.79276
1.40001
1.40001
1.40001
1.40001
1.40001
1.40001
1.40001
1.40001
1.40001
1.40001
1.40001
1.4
3.41085
5.28869
5.38976
5.44859
5.50785
5.5573
5.59937
5.63404
5.66221
5.68572
5.69484
5.68571
1.40001
1.40001
1.40001
1.40001
1.40001
1.40001
1.40001
1.40001
1.40001
1.40001
1.40001
1.4
2.9895
5.17109
5.36056
5.41091
5.45846
5.49419
5.52136
5.54113
5.54822
5.53632
5.51706
5.5087
1.40001
1.40001
1.40001
1.40001
1.40001
1.40001
1.40001
1.40001
1.40001
1.40001
1.40001
1.40001
2.51488
5.0119
5.36837
5.39358
5.42143
5.43871
5.44423
5.44171
5.42282
5.39199
5.33557
5.30899
1.40001
1.40001
1.40001
1.40001
1.40001
1.40001
1.40001
1.40001
1.40001
1.40001
1.40001
1.40001
1.99426
4.77197
5.39976
5.37695
5.3878
5.38598
5.3699
5.34016
5.27983
5.17505
4.86147
4.01894
1.40001
1.40001
1.40001
1.40001
1.40001
1.40001
1.40001
1.40001
1.40001
1.40001
1.40001
1.40001
1.50123
4.35769
5.42621
5.36817
5.34479
5.31661
5.27744
5.21752
5.1157
4.92652
4.59853
3.70424
1.40001
1.40001
1.40001
1.40001
1.40001
1.40001
1.40001
1.40001
1.40001
1.40001
1.40001
1.40001
1.40134
3.6464
5.18623
5.2421
5.25382
5.22637
5.17749
5.09313
4.96191
4.7283
4.38725
3.56598
1.40001
1.40001
1.40001
1.40001
1.40001
1.40001
1.40001
1.40001
1.40001
1.40001
1.40001
1.40001
1.39998
2.828
4.99772
5.20095
5.19969
5.16694
5.10498
4.99696
4.83729
4.59256
4.21441
3.55365
1.40001
1.40001
1.40001
1.40001
1.40001
1.40001
1.40001
1.40001
1.40001
1.40001
1.40001
1.40001
1.4
2.00472
4.7362
5.20566
5.15701
5.10031
5.02373
4.90316
4.72819
4.48498
4.0994
3.57578
1.40001
1.40001
1.40001
1.40001
1.40001
1.40001
1.40001
1.40001
1.40001
1.40001
1.40001
1.40001
1.4
1.47905
4.01282
5.10782
5.07935
5.02663
4.94492
4.82127
4.64888
4.40325
4.04474
3.62605
1.40001
1.40001
1.40001
1.40001
1.40001
1.40001
1.40001
1.40001
1.40001
1.40001
1.40001
1.40001
1.4
1.4004
2.94182
4.94197
5.04071
4.98918
4.89906
4.75835
4.58634
4.33678
4.02024
3.6717
1.40001
1.40001
1.40001
1.40001
1.40001
1.40001
1.40001
1.40001
1.40001
1.40001
1.40001
1.40001
1.40001
1.4
1.83273
4.69095
5.10022
4.97023
4.85084
4.70309
4.5161
4.29095
4.01858
3.71756
1.40001
1.40001
1.40001
1.40001
1.40001
1.40001
1.40001
1.40001
1.40001
1.40001
1.40001
1.40001
1.40001
1.4
1.42856
3.76893
4.95923
4.87007
4.77775
4.64113
4.46681
4.26072
4.01855
3.75071
1.40001
1.40001
1.40001
1.40001
1.40001
1.40001
1.40001
1.40001
1.40001
1.40001
1.40001
1.40001
1.40001
1.4
1.39995
2.47579
4.76286
4.84583
4.77342
4.64227
4.46895
4.26279
4.02959
3.78342
1.40001
1.40001
1.40001
1.40001
1.40001
1.40001
1.40001
1.40001
1.40001
1.40001
1.40001
1.40001
1.40001
1.40001
1.39999
1.57863
4.02332
4.86168
4.7702
4.63098
4.45953
4.26244
4.0455
3.81932
1.40001
1.40001
1.40001
1.40001
1.40001
1.40001
1.40001
1.40001
1.40001
1.40001
1.40001
1.40001
1.40001
1.40001
1.4
1.40342
2.71926
4.67592
4.74117
4.60723
4.4501
4.26626
4.06697
3.86023
1.40001
1.40001
1.40001
1.40001
1.40001
1.40001
1.40001
1.40001
1.40001
1.40001
1.40001
1.40001
1.40001
1.40001
1.4
1.4
1.66077
4.03639
4.77422
4.61683
4.46164
4.28188
4.09361
3.90369
1.40001
1.40001
1.40001
1.40001
1.40001
1.40001
1.40001
1.40001
1.40001
1.40001
1.40001
1.40001
1.40001
1.40001
1.40001
1.4
1.40803
2.68946
4.5842
4.60006
4.45758
4.29177
4.11877
3.94391
1.40001
1.40001
1.40001
1.40001
1.40001
1.40001
1.40001
1.40001
1.40001
1.40001
1.40001
1.40001
1.40001
1.40001
1.40001
1.40001
1.40003
1.64192
3.84402
4.65853
4.49435
4.33624
4.16721
3.98895
1.40001
1.40001
1.40001
1.40001
1.40001
1.40001
1.40001
1.40001
1.40001
1.40001
1.40001
1.40001
1.40001
1.40001
1.40001
1.40001
1.40001
1.40716
2.39204
4.34616
4.52067
4.37428
4.2025
4.00778
1.40001
1.40001
1.40001
1.40001
1.40001
1.40001
1.40001
1.40001
1.40001
1.40001
1.40001
1.40001
1.40001
1.40001
1.40001
1.40001
1.40001
1.40004
1.53635
3.37922
4.55288
4.41799
4.2411
4.0638
1.40001
1.40001
1.40001
1.40001
1.40001
1.40001
1.40001
1.40001
1.40001
1.40001
1.40001
1.40001
1.40001
1.40001
1.40001
1.40001
1.40001
1.40001
1.40265
2.00179
4.06319
4.4136
4.28814
4.34864
1.40001
1.40001
1.40001
1.40001
1.40001
1.40001
1.40001
1.40001
1.40001
1.40001
1.40001
1.40001
1.40001
1.40001
1.40001
1.40001
1.40001
1.40001
1.40002
1.44708
2.75478
4.11474
4.58981
5.12441
1.40001
1.40001
1.40001
1.40001
1.40001
1.40001
1.40001
1.40001
1.40001
1.40001
1.40001
1.40001
1.40001
1.40001
1.40001
1.40001
1.40001
1.40001
1.40001
1.40066
1.65463
3.30774
5.43257
5.89558
1.40001
1.40001
1.40001
1.40001
1.40001
1.40001
1.40001
1.40001
1.40001
1.40001
1.40001
1.40001
1.40001
1.40001
1.40001
1.40001
1.40001
1.40001
1.40001
1.40001
1.40857
2.51277
5.81204
6.19935
1.40001
1.40001
1.40001
1.40001
1.40001
1.40001
1.40001
1.40001
1.40001
1.40001
1.40001
1.40001
1.40001
1.40001
1.40001
1.40001
1.40001
1.40001
1.40001
1.40001
1.40009
2.32341
5.38728
5.79568
1.40001
1.40001
1.40001
1.40001
1.40001
1.40001
1.40001
1.40001
1.40001
1.40001
1.40001
1.40001
1.40001
1.40001
1.40001
1.40001
1.40001
1.40001
1.40001
1.40001
1.40001
2.28661
4.96729
5.49509
1.40001
1.40001
1.40001
1.40001
1.40001
1.40001
1.40001
1.40001
1.40001
1.40001
1.40001
1.40001
1.40001
1.40001
1.40001
1.40001
1.40001
1.40001
1.40001
1.40001
1.40001
2.14968
4.80127
5.37643
1.40001
1.40001
1.40001
1.40001
1.40001
1.40001
1.40001
1.40001
1.40001
1.40001
1.40001
1.40001
1.40001
1.40001
1.40001
1.40001
1.40001
1.40001
1.40001
1.40001
1.40001
1.95558
4.73663
5.39627
1.40001
1.40001
1.40001
1.40001
1.40001
1.40001
1.40001
1.40001
1.40001
1.40001
1.40001
1.40001
1.40001
1.40001
1.40001
1.40001
1.40001
1.40001
1.40001
1.40001
1.40001
1.76884
4.66735
5.43389
1.40001
1.40001
1.40001
1.40001
1.40001
1.40001
1.40001
1.40001
1.40001
1.40001
1.40001
1.40001
1.40001
1.40001
1.40001
1.40001
1.40001
1.40001
1.40001
1.40001
1.40001
1.63854
4.53367
5.4486
1.40001
1.40001
1.40001
1.40001
1.40001
1.40001
1.40001
1.40001
1.40001
1.40001
1.40001
1.40001
1.40001
1.40001
1.40001
1.40001
1.40001
1.40001
1.40001
1.40001
1.40001
1.56728
4.4034
5.44072
1.40001
1.40001
1.40001
1.40001
1.40001
1.40001
1.40001
1.40001
1.40001
1.40001
1.40001
1.40001
1.40001
1.40001
1.40001
1.40001
1.40001
1.40001
1.40001
1.40001
1.40001
1.51498
4.28553
5.42238
1.40001
1.40001
1.40001
1.40001
1.40001
1.40001
1.40001
1.40001
1.40001
1.40001
1.40001
1.40001
1.40001
1.40001
1.40001
1.40001
1.40001
1.40001
1.40001
1.40001
1.40001
1.45944
4.21817
5.43433
1.40001
1.40001
1.40001
1.40001
1.40001
1.40001
1.40001
1.40001
1.40001
1.40001
1.40001
1.40001
1.40001
1.40001
1.40001
1.40001
1.40001
1.40001
1.40001
1.40001
1.40001
1.41543
4.17093
5.4457
1.40001
1.40001
1.40001
1.40001
1.40001
1.40001
1.40001
1.40001
1.40001
1.40001
1.40001
1.40001
1.40001
1.40001
1.40001
1.40001
1.40001
1.40001
1.40001
1.40001
1.40001
1.40107
4.14019
5.44683
1.35421
0.459052
0.195405
0.206761
0.284344
0.340338
0.373782
0.455729
0.573754
0.660819
0.76832
0.890529
0.940136
0.946726
0.948349
0.964773
0.994682
1.01311
1.26496
2.36807
2.65433
2.6893
2.75854
2.82554
2.87084
2.87714
2.86577
2.85237
2.84678
2.84765
2.84817
2.8451
2.84131
2.83953
2.83829
2.83432
2.81976
2.79425
2.7677
2.74949
2.74221
2.74228
2.73772
2.71658
2.68738
2.65953
2.63666
2.62047
2.60798
2.59027
2.56365
2.53557
2.51147
2.49359
2.47813
2.45459
2.42411
2.39211
2.36269
2.33827
2.32242
2.30809
2.28531
2.25921
2.22954
2.19852
2.17366
2.15287
2.13718
2.12308
2.10292
2.07905
2.04921
2.01372
1.98316
1.96169
1.94401
1.92935
1.91361
1.89467
1.87096
1.83785
1.80448
1.78415
1.76961
1.75707
1.74412
1.72813
1.70909
1.68192
1.64774
1.62184
1.60765
1.60309
1.627
1.82891
2.00011
1.2526
0.792872
0.634176
0.638417
0.619548
0.578886
0.547006
0.548074
0.572239
0.632932
0.722927
0.812337
0.87355
0.901968
0.926277
0.970021
0.993973
1.19592
2.31216
2.75389
2.78666
2.81796
2.85474
2.89246
2.90648
2.89525
2.87766
2.86487
2.86361
2.87164
2.87773
2.86945
2.85224
2.83499
2.82568
2.82403
2.81871
2.79826
2.77175
2.75071
2.73837
2.73446
2.72766
2.70546
2.67524
2.64671
2.62313
2.6076
2.5976
2.5816
2.5547
2.52623
2.50015
2.4752
2.45429
2.43353
2.40854
2.38093
2.35417
2.32855
2.30409
2.28329
2.26338
2.24049
2.21632
2.18987
2.16433
2.1414
2.12021
2.10052
2.07917
2.05439
2.02714
1.99799
1.96939
1.94599
1.92808
1.91281
1.89584
1.87522
1.84968
1.81904
1.78955
1.76966
1.75542
1.74377
1.72926
1.71147
1.68849
1.65814
1.62735
1.61611
1.62791
1.68986
1.90429
2.46228
1.84584
1.42591
1.08031
0.905239
0.85603
0.80622
0.721986
0.640214
0.634045
0.657566
0.712363
0.77385
0.839224
0.890138
0.917871
0.952079
0.990373
1.10694
2.2838
2.98873
2.97528
2.94003
2.94457
2.96382
2.98594
2.98533
2.97033
2.94707
2.93234
2.93322
2.95151
2.96358
2.94567
2.91528
2.88675
2.86779
2.86459
2.86652
2.85195
2.82452
2.79798
2.77729
2.76455
2.75289
2.73374
2.7059
2.67634
2.65031
2.63119
2.61984
2.60731
2.58409
2.55363
2.51691
2.48398
2.45857
2.43782
2.42206
2.40261
2.37462
2.33912
2.30176
2.27592
2.25638
2.24078
2.22487
2.2041
2.17707
2.14241
2.10651
2.08101
2.06249
2.04487
2.02547
2.00275
1.97412
1.94173
1.91575
1.8977
1.88153
1.86461
1.84607
1.82089
1.78894
1.76178
1.74469
1.72979
1.71384
1.69704
1.68008
1.66076
1.66305
1.70972
1.81814
1.99081
2.81646
2.25828
1.89171
1.57513
1.27149
1.11313
1.05625
0.99368
0.916157
0.843095
0.785133
0.763289
0.769545
0.789052
0.817306
0.840687
0.873119
0.952021
1.06086
1.82269
3.11391
3.24171
3.15248
3.0974
3.09095
3.10209
3.10613
3.09697
3.07299
3.04905
3.03639
3.03675
3.04924
3.04388
3.02346
2.99388
2.96654
2.94908
2.94051
2.9337
2.91411
2.8878
2.86006
2.8364
2.81612
2.79842
2.77779
2.75219
2.72521
2.70126
2.68418
2.66979
2.64745
2.62104
2.58775
2.549
2.51773
2.49372
2.47579
2.45591
2.43091
2.40025
2.35937
2.32297
2.30004
2.28093
2.26423
2.2451
2.22231
2.19189
2.15331
2.11959
2.09507
2.07518
2.05667
2.03758
2.01448
1.98284
1.94799
1.92152
1.90347
1.88836
1.87306
1.85525
1.82917
1.79358
1.76344
1.74339
1.7269
1.71548
1.71436
1.72756
1.77287
1.88617
1.9982
2.07707
3.03939
2.56471
2.21386
1.93236
1.66808
1.44457
1.25519
1.16839
1.1198
1.06333
0.980493
0.865513
0.822023
0.818777
0.816595
0.836427
0.884511
0.97411
1.13257
1.40292
2.5262
3.33858
3.3538
3.27876
3.21545
3.20936
3.21929
3.21781
3.20257
3.17979
3.15976
3.14681
3.14385
3.14301
3.12745
3.1055
3.07732
3.05457
3.03635
3.02347
3.00713
2.98427
2.95731
2.92804
2.90254
2.87873
2.85631
2.83238
2.80862
2.78753
2.76904
2.74727
2.72335
2.69589
2.66187
2.62371
2.59311
2.56944
2.54694
2.5221
2.49587
2.46504
2.42534
2.38744
2.3626
2.34136
2.31927
2.29573
2.26964
2.23902
2.20429
2.17179
2.14617
2.12441
2.10306
2.08046
2.05485
2.02418
1.98999
1.96145
1.94233
1.926
1.90954
1.89147
1.86779
1.83335
1.79543
1.77121
1.7585
1.75823
1.77911
1.83916
1.9524
2.10204
2.15726
2.15127
3.20626
2.79882
2.47472
2.19006
1.92546
1.72742
1.5526
1.36763
1.26168
1.23142
1.1806
1.08103
0.961377
0.918059
0.91087
0.94453
1.02694
1.15152
1.35108
1.39369
1.65367
2.73592
3.38366
3.40447
3.34954
3.29374
3.29142
3.30295
3.29877
3.28125
3.25513
3.23428
3.21959
3.21449
3.20607
3.18685
3.16014
3.13214
3.11113
3.09458
3.08081
3.05912
3.03259
2.99994
2.96857
2.94377
2.92094
2.90084
2.88108
2.85881
2.83435
2.80883
2.78273
2.75493
2.72428
2.6923
2.66166
2.63291
2.60564
2.57946
2.55277
2.52288
2.4878
2.45129
2.42069
2.39603
2.37283
2.34875
2.32231
2.29232
2.25886
2.22493
2.19582
2.17213
2.15023
2.12729
2.10167
2.07224
2.03923
2.0072
1.98271
1.96466
1.94776
1.92945
1.90685
1.87713
1.83897
1.81285
1.81057
1.82724
1.89641
2.01194
2.1522
2.25343
2.26435
2.23277
3.32314
2.96512
2.66182
2.41344
2.14851
1.91771
1.77203
1.62115
1.45368
1.35177
1.30604
1.23941
1.14721
1.07424
1.0725
1.14961
1.30233
1.42817
1.53249
1.52514
1.53458
1.79861
2.72593
3.39373
3.44346
3.38297
3.34668
3.34831
3.36074
3.35315
3.32861
3.29644
3.27484
3.26108
3.25691
3.24197
3.21887
3.18826
3.16439
3.14554
3.13199
3.11166
3.08571
3.05215
3.01697
2.99182
2.97068
2.95466
2.9355
2.91121
2.88168
2.84898
2.8204
2.79556
2.77174
2.74649
2.71707
2.68286
2.6481
2.61782
2.5908
2.56447
2.53687
2.50556
2.47064
2.43809
2.41084
2.38565
2.36029
2.33382
2.30503
2.27269
2.23898
2.20933
2.18446
2.16127
2.13793
2.11318
2.08571
2.05402
2.02194
1.99647
1.9761
1.95663
1.93552
1.91371
1.88933
1.87531
1.88873
1.95011
2.07351
2.1921
2.29508
2.33568
2.33192
2.29807
3.41662
3.10659
2.81188
2.5735
2.34911
2.11592
1.92525
1.79912
1.66784
1.52062
1.4066
1.35029
1.31871
1.33322
1.38923
1.54272
1.65582
1.69577
1.68627
1.66355
1.633
1.65418
1.88311
2.67805
3.35985
3.44637
3.41097
3.39766
3.4046
3.40456
3.38137
3.34243
3.31199
3.29388
3.28811
3.27937
3.25921
3.2295
3.20146
3.18077
3.16516
3.14588
3.12102
3.08922
3.05206
3.02594
3.00556
2.98933
2.96867
2.94444
2.91291
2.87448
2.84619
2.82503
2.80382
2.77995
2.75175
2.7169
2.67686
2.64189
2.61539
2.59232
2.56878
2.54127
2.50644
2.46805
2.43633
2.41107
2.38784
2.36468
2.33965
2.30955
2.27239
2.23564
2.20776
2.18554
2.16505
2.14465
2.122
2.09357
2.05759
2.02231
1.99573
1.9753
1.95817
1.94821
1.94545
1.96551
2.02887
2.16256
2.28396
2.33219
2.35793
2.36712
2.36651
2.34114
3.4851
3.21585
2.94102
2.70253
2.50486
2.30341
2.08967
1.92939
1.82021
1.697
1.57409
1.51549
1.58258
1.66043
1.75428
1.8842
1.88276
1.86047
1.84468
1.81285
1.79352
1.77899
1.79067
1.94363
2.60589
3.27237
3.42439
3.46423
3.45758
3.45016
3.42357
3.38017
3.34315
3.32386
3.31521
3.31009
3.29194
3.26516
3.2324
3.20945
3.191
3.17219
3.14833
3.11902
3.08116
3.05112
3.03011
3.01185
2.99087
2.96773
2.93771
2.89815
2.86743
2.84615
2.82437
2.80014
2.77278
2.73946
2.69865
2.66057
2.63361
2.61098
2.58786
2.56144
2.52793
2.48759
2.45193
2.42688
2.40608
2.38553
2.36308
2.33485
2.29519
2.25046
2.22049
2.20129
2.18402
2.16644
2.14686
2.12167
2.08558
2.04225
2.00852
1.98956
1.98317
1.99314
2.03221
2.11804
2.25345
2.39643
2.43066
2.41882
2.39792
2.38492
2.38423
2.37569
3.5387
3.29942
3.05845
2.82376
2.62395
2.44397
2.25306
2.06917
1.93428
1.85901
1.81454
1.8525
2.02301
2.05737
2.07742
2.10159
2.06605
2.02023
2.01847
1.99124
1.94802
1.93784
1.90489
1.91132
2.01397
2.5121
3.14481
3.40908
3.50017
3.50042
3.47098
3.41712
3.37279
3.35357
3.34258
3.33834
3.32114
3.29659
3.26141
3.23352
3.21296
3.19414
3.17152
3.14454
3.10824
3.07104
3.04784
3.02828
3.00806
2.98637
2.95991
2.92429
2.88758
2.86023
2.83619
2.81164
2.7852
2.7546
2.71735
2.67825
2.64759
2.62305
2.59905
2.57292
2.54188
2.50415
2.46545
2.43672
2.41606
2.39702
2.37699
2.35207
2.31472
2.26484
2.22898
2.21025
2.1945
2.1783
2.16076
2.13878
2.10769
2.06233
2.02319
2.01206
2.02134
2.07104
2.19278
2.31832
2.45338
2.52098
2.51758
2.48809
2.44229
2.41647
2.40617
2.39964
3.5895
3.36907
3.15469
2.92708
2.72776
2.55592
2.38007
2.21236
2.11221
2.1617
2.19036
2.28188
2.39291
2.36522
2.28464
2.25877
2.22513
2.17786
2.17488
2.15869
2.10419
2.07391
2.06047
2.01049
2.01031
2.06869
2.41496
3.00933
3.38495
3.50971
3.51564
3.46817
3.40786
3.38216
3.36964
3.36592
3.35005
3.32568
3.28928
3.25446
3.23246
3.21379
3.19334
3.16826
3.13487
3.09273
3.06362
3.04401
3.02515
3.00466
2.98089
2.94955
2.90936
2.87255
2.84494
2.82018
2.79485
2.76704
2.73387
2.6946
2.65828
2.63074
2.60659
2.58186
2.55427
2.52123
2.4819
2.44496
2.41969
2.40061
2.38165
2.35948
2.32913
2.28662
2.24351
2.21697
2.19952
2.18351
2.16633
2.14633
2.12182
2.08595
2.05591
2.06403
2.11514
2.25198
2.39439
2.49017
2.56263
2.5697
2.5551
2.52778
2.49382
2.45992
2.43967
2.42542
3.6461
3.43434
3.23343
3.02438
2.82062
2.65509
2.53125
2.44434
2.49872
2.64206
2.63504
2.64365
2.63974
2.58692
2.47469
2.41785
2.39442
2.343
2.32651
2.31236
2.26459
2.21113
2.1973
2.16443
2.11609
2.09558
2.11966
2.33231
2.85351
3.29737
3.49199
3.50877
3.45078
3.41437
3.39356
3.3912
3.37868
3.35399
3.31611
3.27333
3.2489
3.23013
3.21268
3.18972
3.16
3.11778
3.0807
3.0601
3.04205
3.02223
2.99914
2.96948
2.9284
2.88423
2.85317
2.82911
2.80539
2.77962
2.74856
2.7084
2.66486
2.63285
2.61003
2.58877
2.56605
2.53909
2.50352
2.45914
2.4209
2.39702
2.37813
2.35857
2.3365
2.30834
2.27011
2.22895
2.20056
2.18265
2.16585
2.14897
2.13501
2.11975
2.13251
2.19677
2.32413
2.49641
2.55206
2.58144
2.59274
2.58696
2.57365
2.55769
2.54005
2.51777
2.49058
2.46006
3.70103
3.49688
3.30092
3.10372
2.92679
2.81901
2.85152
2.87707
2.98391
3.03863
2.94422
2.85664
2.80818
2.76244
2.67269
2.59428
2.57361
2.51648
2.47577
2.45275
2.40746
2.34392
2.31491
2.29416
2.25087
2.2074
2.16631
2.17017
2.28375
2.68223
3.18327
3.4451
3.46383
3.44922
3.42137
3.42013
3.40702
3.38208
3.34446
3.29335
3.26418
3.24542
3.23021
3.20959
3.18344
3.14576
3.10201
3.07717
3.05853
3.03757
3.0134
2.98402
2.94407
2.89631
2.86234
2.83962
2.81759
2.79321
2.76354
2.72368
2.6736
2.63386
2.61117
2.59251
2.57394
2.55319
2.52505
2.48194
2.42932
2.39363
2.3733
2.35672
2.34034
2.32187
2.29477
2.25268
2.20723
2.18128
2.16681
2.15982
2.16946
2.20362
2.30545
2.43344
2.57696
2.6537
2.65323
2.63711
2.6152
2.60285
2.59316
2.58554
2.57671
2.56334
2.54656
2.50916
3.74746
3.5526
3.36457
3.2129
3.14115
3.23372
3.36252
3.3606
3.35051
3.29493
3.16557
3.0296
2.96951
2.93434
2.85851
2.76606
2.73573
2.68876
2.63153
2.59444
2.54332
2.48205
2.43252
2.41037
2.3819
2.33644
2.28412
2.22433
2.22417
2.28321
2.55458
3.02991
3.33599
3.42743
3.45324
3.45114
3.438
3.40881
3.37172
3.31649
3.2799
3.26155
3.24696
3.22825
3.205
3.17345
3.12802
3.09461
3.07268
3.04913
3.02344
2.99449
2.95737
2.91016
2.87321
2.85019
2.82832
2.80438
2.77662
2.74073
2.69223
2.64268
2.61176
2.59222
2.57497
2.55737
2.53639
2.50499
2.45446
2.40089
2.37068
2.35361
2.3389
2.32379
2.30529
2.27645
2.233
2.1926
2.18101
2.19548
2.25435
2.39102
2.53103
2.64744
2.73398
2.73655
2.71967
2.69038
2.65466
2.62842
2.61555
2.60895
2.60728
2.59762
2.58534
2.55572
3.79118
3.62223
3.49141
3.52857
3.65065
3.78
3.76019
3.65976
3.54958
3.45583
3.35283
3.21981
3.15252
3.11596
3.04051
2.93603
2.88381
2.8471
2.7846
2.73584
2.67549
2.61585
2.56778
2.52744
2.49712
2.45491
2.39722
2.3374
2.28374
2.27641
2.3026
2.46336
2.83289
3.20452
3.38396
3.44444
3.47013
3.44434
3.40708
3.3483
3.29987
3.27888
3.26387
3.24833
3.22711
3.1992
3.1561
3.11304
3.08441
3.05835
3.03188
3.00433
2.97101
2.92716
2.88609
2.85843
2.83444
2.80996
2.78396
2.75378
2.71454
2.66652
2.62275
2.59251
2.57166
2.5539
2.53639
2.51386
2.47896
2.42931
2.38137
2.35297
2.336
2.32177
2.30762
2.29101
2.26536
2.23685
2.25117
2.32218
2.46227
2.62964
2.71294
2.77212
2.78868
2.77495
2.75602
2.73442
2.70636
2.6739
2.65331
2.64249
2.63621
2.63061
2.62063
2.59587
3.84899
3.76814
3.88471
4.09073
4.18913
4.13185
3.9995
3.85943
3.7066
3.60549
3.53327
3.4165
3.33492
3.28831
3.21313
3.1057
3.03262
2.99499
2.93457
2.87244
2.81197
2.74501
2.70181
2.66137
2.61633
2.56864
2.50501
2.44793
2.39918
2.35413
2.33365
2.33347
2.39677
2.64677
3.03267
3.30264
3.42011
3.46975
3.44701
3.39656
3.32785
3.2933
3.27728
3.26544
3.24827
3.22242
3.18195
3.13054
3.09235
3.06613
3.04216
3.01725
2.98803
2.94876
2.90329
2.86695
2.83849
2.81212
2.78607
2.75893
2.72785
2.69059
2.64796
2.60642
2.57377
2.54936
2.52874
2.50881
2.48661
2.45607
2.41554
2.36714
2.3322
2.31596
2.30602
2.30497
2.31213
2.3465
2.44989
2.58621
2.74917
2.80115
2.81173
2.81264
2.80851
2.80193
2.79183
2.77816
2.76041
2.73369
2.7027
2.68576
2.67519
2.66748
2.65871
2.63615
4.07473
4.29968
4.51607
4.57473
4.46414
4.30309
4.16104
4.04492
3.90916
3.78756
3.71856
3.61919
3.51569
3.45419
3.3794
3.26955
3.18855
3.14591
3.09007
3.01905
2.95118
2.88712
2.8316
2.78918
2.74169
2.68354
2.61676
2.55134
2.51126
2.46999
2.42307
2.37823
2.37156
2.38108
2.50614
2.82524
3.16622
3.38055
3.43446
3.4298
3.36442
3.3113
3.2941
3.28275
3.26607
3.2404
3.20143
3.14246
3.09402
3.06959
3.04938
3.0285
3.00406
2.96981
2.92139
2.87483
2.84111
2.81256
2.78495
2.75665
2.7275
2.6987
2.66669
2.62834
2.58702
2.5527
2.52705
2.5048
2.48273
2.46143
2.43556
2.39658
2.35083
2.32588
2.32333
2.34541
2.41895
2.57329
2.72688
2.86105
2.91488
2.90342
2.8791
2.8554
2.84175
2.83565
2.83364
2.82391
2.80911
2.78871
2.75803
2.73133
2.71807
2.70736
2.69895
2.67765
4.71074
4.96266
4.98033
4.84696
4.63585
4.44769
4.32806
4.23843
4.11985
3.97853
3.89028
3.81282
3.69843
3.61576
3.54163
3.43126
3.34497
3.30047
3.24221
3.17313
3.09206
3.02273
2.96675
2.91184
2.86105
2.80236
2.73188
2.66419
2.61269
2.5718
2.53181
2.47709
2.42388
2.37707
2.36669
2.41854
2.64161
2.99133
3.27089
3.37735
3.36498
3.33311
3.31154
3.29799
3.27626
3.24692
3.20774
3.14622
3.09099
3.06683
3.04839
3.0315
3.00952
2.97837
2.93749
2.88791
2.84524
2.81282
2.7843
2.75996
2.73712
2.70811
2.67564
2.63938
2.60412
2.56323
2.52795
2.51121
2.49653
2.47507
2.45
2.42084
2.38021
2.36582
2.39413
2.49152
2.6671
2.82172
2.92023
2.99076
2.99295
2.97952
2.95254
2.91358
2.88754
2.87564
2.8692
2.86241
2.84877
2.83233
2.80898
2.77796
2.75854
2.74649
2.73701
2.71479
5.42915
5.36112
5.22671
5.02635
4.81433
4.63455
4.52883
4.44764
4.32834
4.17505
4.06691
4.00029
3.89584
3.78825
3.70874
3.60404
3.50767
3.45663
3.3967
3.31914
3.23759
3.15399
3.09507
3.04027
2.98287
2.92223
2.84851
2.77359
2.71305
2.66356
2.61964
2.57345
2.51233
2.44489
2.38877
2.35791
2.36979
2.50042
2.77955
3.09044
3.27577
3.29128
3.3028
3.29827
3.27722
3.2438
3.19966
3.13285
3.07281
3.04789
3.03576
3.01701
2.99148
2.96409
2.92386
2.86877
2.83207
2.8116
2.78977
2.75893
2.71801
2.67733
2.65029
2.63346
2.61174
2.57762
2.54114
2.5068
2.47096
2.44634
2.43338
2.42784
2.43804
2.49054
2.6153
2.79659
2.93191
2.97532
3.01296
3.03726
3.03633
3.02292
2.99826
2.95767
2.92152
2.90516
2.89482
2.88946
2.88048
2.86636
2.84659
2.81571
2.78526
2.76792
2.75827
2.73688
5.79401
5.57542
5.38685
5.19402
5.0044
4.83201
4.72698
4.6441
4.52325
4.36508
4.24596
4.17665
4.08763
3.97032
3.87469
3.77898
3.67572
3.60536
3.54203
3.45848
3.36824
3.28443
3.21457
3.15686
3.09715
3.03155
2.95811
2.87607
2.8055
2.74931
2.6974
2.6487
2.59338
2.52507
2.44958
2.37885
2.34898
2.34554
2.38933
2.56982
2.87657
3.09334
3.21566
3.23678
3.22018
3.18629
3.14684
3.0951
3.05688
3.03403
3.00649
2.97169
2.93652
2.90095
2.86274
2.83609
2.8183
2.79725
2.76898
2.73221
2.68866
2.65351
2.63005
2.60772
2.58759
2.57322
2.54752
2.50005
2.45306
2.44143
2.44395
2.48262
2.59903
2.76705
2.94306
3.05292
3.0647
3.06451
3.06251
3.06344
3.05602
3.03831
3.01649
2.98745
2.95128
2.93051
2.92136
2.9148
2.9041
2.88849
2.86965
2.84293
2.80754
2.78545
2.77717
2.75835
5.84685
5.60875
5.43707
5.31625
5.16547
5.01616
4.91873
4.83217
4.70729
4.54406
4.41834
4.34307
4.25967
4.14599
4.03086
3.93752
3.83801
3.74954
3.674
3.58816
3.48869
3.4002
3.32568
3.2602
3.19567
3.12553
3.04755
2.96453
2.88661
2.82338
2.76687
2.71146
2.65562
2.59167
2.51424
2.44242
2.37529
2.32629
2.29245
2.31009
2.40647
2.61727
2.85898
3.05287
3.11135
3.10852
3.08752
3.05428
3.02633
2.99614
2.96007
2.92314
2.88525
2.84201
2.80715
2.7901
2.77429
2.75262
2.72463
2.68696
2.63772
2.60978
2.59738
2.58687
2.57316
2.54949
2.51573
2.47503
2.4506
2.45518
2.51847
2.68082
2.89082
3.02687
3.12734
3.13925
3.12824
3.10278
3.07736
3.06169
3.05436
3.04533
3.02994
3.01238
2.98963
2.95703
2.92496
2.9068
2.89713
2.89182
2.88123
2.86266
2.8385
2.80643
2.77763
2.75138
5.59057
5.49706
5.43326
5.38673
5.25091
5.10722
5.01642
4.95426
4.84021
4.68755
4.57035
4.49792
4.41632
4.3049
4.16808
4.06119
3.96537
3.871
3.78094
3.68505
3.58338
3.4884
3.40872
3.3366
3.26457
3.18711
3.10141
3.01238
2.93175
2.8628
2.80022
2.73953
2.676
2.60679
2.5339
2.45808
2.38994
2.33321
2.28278
2.25483
2.22409
2.24945
2.3718
2.62276
2.84845
2.97124
2.99123
2.97422
2.95059
2.92359
2.89399
2.86761
2.83428
2.78728
2.75084
2.73526
2.71856
2.69746
2.67188
2.64161
2.604
2.57029
2.55457
2.54035
2.52088
2.50152
2.48889
2.47027
2.48589
2.57618
2.75816
2.96598
3.07007
3.13374
3.16606
3.16455
3.14692
3.11003
3.06566
3.04754
3.03707
3.03174
3.03116
3.02038
3.00344
2.97388
2.93241
2.90536
2.89072
2.87921
2.87127
2.86436
2.8503
2.82206
2.78334
2.74532
5.39624
5.38737
5.35688
5.29346
5.19242
5.10086
5.03788
4.99088
4.8835
4.73461
4.61728
4.54621
4.47091
4.35825
4.24272
4.15355
4.06571
3.97088
3.87582
3.77287
3.66432
3.56737
3.48498
3.40813
3.33088
3.2491
3.1606
3.07001
2.98683
2.91406
2.84748
2.78173
2.71307
2.64
2.5652
2.49202
2.42878
2.36563
2.30807
2.24231
2.18803
2.14553
2.14938
2.21507
2.4025
2.63769
2.8042
2.85872
2.85935
2.83975
2.81144
2.7889
2.76213
2.72183
2.67883
2.65934
2.64443
2.62935
2.61226
2.5919
2.56245
2.52393
2.49363
2.47176
2.45784
2.46453
2.47821
2.53632
2.6736
2.86089
3.03567
3.10582
3.12266
3.14806
3.16128
3.15237
3.1276
3.09029
3.04627
3.02342
3.01348
3.00642
3.00164
2.99196
2.97847
2.95993
2.93322
2.90215
2.88099
2.86619
2.8533
2.8393
2.82295
2.80014
2.77452
2.73494
5.29509
5.27208
5.21964
5.15699
5.08774
5.02698
4.97368
4.91276
4.81698
4.70286
4.60911
4.54826
4.48126
4.36844
4.23446
4.1394
4.05611
3.95675
3.85344
3.74723
3.63619
3.53699
3.45365
3.37572
3.29666
3.21311
3.12326
3.03192
2.94799
2.87396
2.80565
2.73824
2.66938
2.59787
2.52537
2.45732
2.39779
2.34162
2.28412
2.22635
2.16792
2.11424
2.07323
2.05796
2.09331
2.22762
2.45982
2.65087
2.72328
2.74801
2.73803
2.71326
2.68661
2.65334
2.60682
2.57441
2.55967
2.54884
2.54494
2.53292
2.50843
2.46885
2.4229
2.40674
2.41724
2.44324
2.55327
2.75769
2.94954
3.0826
3.12799
3.12888
3.12328
3.1143
3.1021
3.08922
3.07597
3.05811
3.02863
2.99905
2.98367
2.97252
2.95984
2.94631
2.93288
2.91923
2.90311
2.88202
2.86057
2.84299
2.82653
2.80878
2.78977
2.7692
2.74889
2.71219
5.28175
5.2338
5.16731
5.09675
5.02834
4.9636
4.90679
4.83631
4.74716
4.65201
4.56846
4.50502
4.42207
4.30816
4.18979
4.10247
4.02995
3.94157
3.83751
3.72728
3.61915
3.52348
3.44063
3.36253
3.28371
3.20115
3.11368
3.0253
2.94332
2.86927
2.79865
2.7284
2.65797
2.58767
2.51915
2.45606
2.39808
2.34339
2.28665
2.22678
2.16046
2.10149
2.0496
2.01573
1.98986
2.00855
2.09261
2.27967
2.47776
2.59963
2.65642
2.66182
2.63842
2.60222
2.55469
2.49973
2.47844
2.46855
2.47047
2.46329
2.4416
2.41283
2.3786
2.3846
2.40855
2.53931
2.79228
2.98605
3.07889
3.13624
3.12229
3.08955
3.06383
3.04588
3.03414
3.02756
3.02163
3.00926
2.99073
2.96628
2.94332
2.92691
2.9137
2.90119
2.889
2.87674
2.863
2.84524
2.8233
2.80315
2.78561
2.76806
2.75008
2.73226
2.71519
2.68086
5.31446
5.257
5.18256
5.10625
5.02841
4.94973
4.87149
4.78526
4.69326
4.60444
4.5284
4.45769
4.36475
4.25623
4.15533
4.07327
4.00061
3.91209
3.807
3.69457
3.59355
3.50325
3.42027
3.34115
3.2618
3.17806
3.09056
3.00606
2.92888
2.85815
2.79049
2.72256
2.65162
2.57868
2.50844
2.44547
2.38863
2.33648
2.28389
2.22728
2.16377
2.10037
2.04474
2.00282
1.96605
1.94473
1.93756
1.97899
2.11984
2.3202
2.48407
2.57082
2.59228
2.56976
2.52209
2.45513
2.41224
2.39782
2.39273
2.38747
2.37201
2.36513
2.36993
2.4022
2.56419
2.80755
3.00048
3.0676
3.0941
3.08909
3.06618
3.04051
3.02135
2.99956
2.98637
2.97646
2.96556
2.95269
2.93888
2.92285
2.90278
2.8833
2.87093
2.85999
2.84882
2.8371
2.82358
2.80491
2.77959
2.75708
2.74067
2.72679
2.71369
2.70082
2.68832
2.657
5.33095
5.26699
5.19219
5.12006
5.04484
4.9656
4.88004
4.78823
4.69532
4.60918
4.52767
4.43809
4.33496
4.22893
4.13376
4.05553
3.97806
3.88407
3.77617
3.67205
3.58603
3.50365
3.42307
3.34163
3.25345
3.15973
3.07101
2.9945
2.9267
2.86235
2.79803
2.72897
2.65117
2.57013
2.49759
2.4385
2.38738
2.33966
2.29068
2.2359
2.1712
2.10414
2.04549
2.00045
1.9627
1.92818
1.90523
1.8812
1.89558
1.98754
2.19541
2.36988
2.48455
2.51422
2.49134
2.44256
2.38008
2.3417
2.32689
2.31964
2.32743
2.3377
2.41438
2.62599
2.85959
3.01111
3.04818
3.04292
3.03734
3.02624
3.01595
3.00652
2.99535
2.97196
2.94689
2.93175
2.92217
2.91361
2.90313
2.89064
2.87242
2.84899
2.83415
2.82337
2.81254
2.80147
2.78896
2.77092
2.74453
2.7235
2.71073
2.6992
2.68774
2.67563
2.66356
2.63223
5.33546
5.2771
5.20627
5.13479
5.05784
4.97627
4.89007
4.80124
4.71504
4.63274
4.54515
4.44823
4.34477
4.24407
4.15748
4.0787
3.9845
3.87484
3.76311
3.67429
3.59666
3.51791
3.43608
3.34762
3.24909
3.15248
3.06967
2.99885
2.93456
2.872
2.80653
2.73314
2.65128
2.5699
2.49925
2.44189
2.39249
2.34562
2.2963
2.24134
2.17797
2.11234
2.05481
2.00794
1.96904
1.93091
1.89483
1.86296
1.83053
1.8228
1.89658
2.0861
2.2731
2.40394
2.43706
2.4173
2.37522
2.32037
2.28114
2.28472
2.30581
2.42057
2.67389
2.90697
3.02561
3.06044
3.03642
3.0032
2.99108
2.98544
2.98967
2.9848
2.97354
2.95194
2.92262
2.90721
2.89801
2.88939
2.87836
2.86433
2.84555
2.82444
2.81124
2.80203
2.79337
2.78295
2.77005
2.75052
2.72363
2.70222
2.68951
2.67803
2.66635
2.65396
2.64142
2.61105
5.32935
5.27686
5.21287
5.14515
5.07052
4.99107
4.90808
4.82466
4.74162
4.65412
4.55786
4.45434
4.35109
4.26152
4.1869
4.09669
3.98827
3.87639
3.78193
3.69881
3.6209
3.53894
3.45079
3.35424
3.25462
3.16264
3.08289
3.01222
2.9466
2.88217
2.81403
2.7382
2.65711
2.57994
2.51189
2.45191
2.39891
2.35065
2.30174
2.24753
2.18809
2.12746
2.07163
2.02012
1.97589
1.93665
1.89715
1.85917
1.81771
1.78636
1.78266
1.8277
1.9839