/*--------------------------------*- C++ -*----------------------------------*\
  =========                 |
  \\      /  F ield         | OpenFOAM: The Open Source CFD Toolbox
   \\    /   O peration     | Website:  https://openfoam.org
    \\  /    A nd           | Version:  7
     \\/     M anipulation  |
\*---------------------------------------------------------------------------*/
FoamFile
{
    version     2.0;
    format      ascii;
    class       volScalarField;
    location    "7";
    object      T;
}
// * * * * * * * * * * * * * * * * * * * * * * * * * * * * * * * * * * * * * //

dimensions      [0 0 0 1 0 0 0];

internalField   nonuniform List<scalar> 
4032
(
1
1
1
1
1
1
1
1
1
1
1
1.17394
2.4138
2.71599
2.72672
2.74224
2.75565
2.76825
2.77972
2.78994
2.79895
2.80621
2.81169
2.81564
1
1
1
1
1
1
1
1
1
1
1
1.15641
2.39984
2.71492
2.72615
2.74091
2.75407
2.76641
2.77757
2.78732
2.79576
2.80244
2.8073
2.81105
1
1
1
1
1
1
1
1
1
1
1
1.10296
2.36223
2.71214
2.72306
2.73794
2.75121
2.76354
2.77454
2.78391
2.79176
2.79778
2.80168
2.80485
1
1
1
1
1
1
1
1
1
1
1
1.00752
2.29421
2.70423
2.71817
2.73329
2.74616
2.7577
2.76805
2.77697
2.78454
2.79022
2.79346
2.79589
1
1
1
1
1
1
1
1
1
1
1
1.00006
2.21224
2.68824
2.70742
2.72318
2.73677
2.74841
2.75846
2.76657
2.77269
2.77687
2.77859
2.78137
1
1
1
1
1
1
1
1
1
1
1
1
2.09796
2.66955
2.69824
2.71278
2.7262
2.73711
2.74618
2.75351
2.75904
2.76224
2.76058
2.75495
1
1
1
1
1
1
1
1
1
1
1
1
1.93974
2.63432
2.68246
2.69834
2.71201
2.72219
2.72982
2.73499
2.73659
2.733
2.72462
2.7173
1
1
1
1
1
1
1
1
1
1
1
1
1.7229
2.56458
2.65584
2.6794
2.6953
2.70557
2.71137
2.71339
2.71046
2.70502
2.69954
2.71058
1
1
1
1
1
1
1
1
1
1
1
1
1.41151
2.44073
2.62932
2.65512
2.67352
2.68504
2.6891
2.688
2.67963
2.66069
2.60908
2.50773
1
1
1
1
1
1
1
1
1
1
1
1
1.05178
2.30814
2.6296
2.63197
2.64264
2.65355
2.65812
2.65482
2.64156
2.60817
2.55059
2.38728
1
1
1
1
1
1
1
1
1
1
1
1
1.00062
2.14032
2.58851
2.59707
2.60832
2.61599
2.62041
2.61582
2.60051
2.56156
2.49757
2.31448
1
1
1
1
1
1
1
1
1
1
1
1
0.999993
1.83369
2.5239
2.58143
2.59001
2.58915
2.5877
2.57948
2.56043
2.52161
2.44869
2.29173
1
1
1
1
1
1
1
1
1
1
1
1
0.999998
1.37507
2.37983
2.56281
2.56349
2.56197
2.55673
2.5441
2.52108
2.48277
2.40853
2.28928
1
1
1
1
1
1
1
1
1
1
1
1
1
1.03871
2.19467
2.52215
2.53326
2.5324
2.52657
2.51229
2.48805
2.44774
2.379
2.28845
1
1
1
1
1
1
1
1
1
1
1
1
1
1.00023
1.8287
2.43901
2.51095
2.5081
2.50075
2.48364
2.45904
2.41657
2.35628
2.28376
1
1
1
1
1
1
1
1
1
1
1
1
1
0.999998
1.24132
2.27973
2.49099
2.47789
2.4701
2.45493
2.42886
2.39147
2.3397
2.27818
1
1
1
1
1
1
1
1
1
1
1
1
1
1
1.01351
2.08308
2.44087
2.43171
2.43061
2.42099
2.4004
2.36886
2.32452
2.27083
1
1
1
1
1
1
1
1
1
1
1
1
1
1
1.00001
1.58553
2.32419
2.4122
2.40591
2.39381
2.37438
2.34584
2.30795
2.26197
1
1
1
1
1
1
1
1
1
1
1
1
1
1
0.999998
1.08927
2.11577
2.3905
2.38267
2.36817
2.34761
2.32109
2.2884
2.24996
1
1
1
1
1
1
1
1
1
1
1
1
1
1
0.999999
1.00157
1.66641
2.27719
2.36043
2.34175
2.32226
2.29772
2.26893
2.23627
1
1
1
1
1
1
1
1
1
1
1
1
1
1
1
1
1.13057
2.07742
2.33506
2.31586
2.29956
2.27709
2.25087
2.22234
1
1
1
1
1
1
1
1
1
1
1
1
1
1
1
1
1.00358
1.62713
2.20829
2.29259
2.2733
2.25331
2.23137
2.20702
1
1
1
1
1
1
1
1
1
1
1
1
1
1
1
1
1.00001
1.11908
1.99125
2.2677
2.24936
2.23502
2.21617
2.19198
1
1
1
1
1
1
1
1
1
1
1
1
1
1
1
1
1
1.00306
1.47572
2.10157
2.22697
2.21029
2.19286
2.16895
1
1
1
1
1
1
1
1
1
1
1
1
1
1
1
1
1
1.00001
1.06426
1.83087
2.1964
2.18388
2.16533
2.15384
1
1
1
1
1
1
1
1
1
1
1
1
1
1
1
1
1
1
1.00105
1.29194
2.00489
2.15849
2.14621
2.17647
1
1
1
1
1
1
1
1
1
1
1
1
1
1
1
1
1
1
1
1.02065
1.60029
2.03149
2.16752
2.28512
1
1
1
1
1
1
1
1
1
1
1
1
1
1
1
1
1
1
1
1.00022
1.12131
1.76664
2.27501
2.38755
1
1
1
1
1
1
1
1
1
1
1
1
1
1
1
1
1
1
1
1
1.00352
1.56334
2.47455
2.48797
1
1
1
1
1
1
1
1
1
1
1
1
1
1
1
1
1
1
1
1
1.00003
1.64944
2.63113
2.58788
1
1
1
1
1
1
1
1
1
1
1
1
1
1
1
1
1
1
1
1
1
1.68343
2.66789
2.663
1
1
1
1
1
1
1
1
1
1
1
1
1
1
1
1
1
1
1
1
1
1.5874
2.61563
2.69578
1
1
1
1
1
1
1
1
1
1
1
1
1
1
1
1
1
1
1
1
1
1.44307
2.52949
2.69559
1
1
1
1
1
1
1
1
1
1
1
1
1
1
1
1
1
1
1
1
1
1.30031
2.45579
2.68549
1
1
1
1
1
1
1
1
1
1
1
1
1
1
1
1
1
1
1
1
1
1.20458
2.4098
2.67795
1
1
1
1
1
1
1
1
1
1
1
1
1
1
1
1
1
1
1
1
1
1.1535
2.38616
2.67928
1
1
1
1
1
1
1
1
1
1
1
1
1
1
1
1
1
1
1
1
1
1.10951
2.35825
2.67917
1
1
1
1
1
1
1
1
1
1
1
1
1
1
1
1
1
1
1
1
1
1.06046
2.33481
2.68095
1
1
1
1
1
1
1
1
1
1
1
1
1
1
1
1
1
1
1
1
1
1.01712
2.31302
2.68081
1
1
1
1
1
1
1
1
1
1
1
1
1
1
1
1
1
1
1
1
1
1.00143
2.30065
2.68031
1.67927
1.17285
0.907765
0.963515
1.16044
1.25546
1.33283
1.46359
1.55566
1.57365
1.59685
1.63206
1.65528
1.67982
1.72905
1.75337
1.73729
1.70893
1.93593
2.68458
2.79309
2.76653
2.76709
2.77711
2.78559
2.78146
2.76863
2.75761
2.75016
2.74468
2.7376
2.72786
2.71766
2.70886
2.70144
2.69337
2.68193
2.66647
2.65014
2.63619
2.62599
2.61885
2.60939
2.5943
2.57675
2.56021
2.54645
2.53636
2.52869
2.51945
2.50713
2.49474
2.48422
2.47643
2.46988
2.45987
2.44671
2.4327
2.41961
2.40821
2.39996
2.39217
2.38025
2.36665
2.35145
2.33587
2.32291
2.31152
2.30242
2.2943
2.28356
2.27139
2.2568
2.23995
2.22543
2.2148
2.20594
2.19852
2.19035
2.18055
2.16837
2.15178
2.13515
2.12446
2.11676
2.11009
2.10316
2.09491
2.08533
2.07197
2.05529
2.04221
2.03482
2.03318
2.04562
2.15173
1.92065
1.67673
1.43248
1.2946
1.30815
1.29503
1.28081
1.30119
1.31005
1.31696
1.33998
1.38949
1.45256
1.51389
1.56973
1.60407
1.6187
1.61304
1.78244
2.55813
2.77354
2.75599
2.74732
2.74899
2.75555
2.75538
2.74476
2.73309
2.7239
2.71852
2.71563
2.71069
2.69932
2.68523
2.67191
2.66223
2.65626
2.64914
2.63634
2.62103
2.60694
2.59537
2.58695
2.57774
2.56333
2.54672
2.53136
2.51847
2.50926
2.50287
2.49475
2.48312
2.4715
2.46104
2.45087
2.44213
2.43341
2.42292
2.41117
2.3996
2.38812
2.37643
2.36573
2.3554
2.34377
2.33143
2.31806
2.30518
2.29336
2.28209
2.27172
2.26137
2.24969
2.23672
2.22291
2.20953
2.19837
2.18935
2.18164
2.1733
2.16303
2.15013
2.13476
2.12011
2.10981
2.10224
2.09618
2.08893
2.08019
2.06904
2.05448
2.03892
2.03334
2.03944
2.07114
2.17597
2.02073
1.84465
1.69546
1.5278
1.41568
1.37825
1.35271
1.31748
1.26386
1.23016
1.23938
1.27211
1.31117
1.35827
1.4009
1.42841
1.45426
1.47618
1.54456
2.31851
2.69252
2.68794
2.67194
2.67048
2.67316
2.67785
2.67571
2.66809
2.65766
2.64956
2.6466
2.64802
2.64719
2.63398
2.61686
2.60207
2.59164
2.58765
2.58571
2.57723
2.56386
2.5496
2.53708
2.52751
2.51876
2.50756
2.49351
2.47904
2.46609
2.45641
2.45057
2.44496
2.43613
2.42503
2.41142
2.39935
2.3903
2.38308
2.37769
2.37075
2.36006
2.3456
2.33006
2.31891
2.3102
2.30278
2.29508
2.28541
2.27302
2.25725
2.24127
2.22985
2.22153
2.21365
2.20503
2.19519
2.18262
2.16805
2.15628
2.14797
2.14043
2.13234
2.12319
2.11108
2.09566
2.08239
2.07408
2.06696
2.05957
2.05202
2.0444
2.03524
2.03658
2.0598
2.11247
2.18339
2.09729
1.93821
1.82663
1.71293
1.5757
1.48783
1.45787
1.42574
1.38536
1.33645
1.29091
1.26684
1.2701
1.28321
1.30121
1.31893
1.34251
1.39064
1.44985
1.92464
2.50422
2.60901
2.58365
2.57131
2.56954
2.57313
2.57461
2.57183
2.56375
2.55474
2.54863
2.54647
2.54707
2.54079
2.52943
2.51714
2.50652
2.49948
2.49568
2.49245
2.48486
2.47456
2.46302
2.45227
2.44239
2.43318
2.4229
2.4111
2.39921
2.38882
2.38141
2.37557
2.36751
2.35868
2.34806
2.33587
2.32647
2.31978
2.31538
2.31
2.30237
2.29254
2.27855
2.26556
2.25742
2.25064
2.2446
2.23724
2.22825
2.21643
2.20117
2.18727
2.17734
2.16988
2.16325
2.15627
2.14749
2.13509
2.12073
2.10944
2.10186
2.0957
2.08933
2.08148
2.06992
2.05398
2.04028
2.03129
2.02433
2.01985
2.01963
2.02656
2.04895
2.1008
2.1457
2.16676
2.14977
2.01455
1.90881
1.81581
1.71768
1.62581
1.53687
1.49357
1.47098
1.44258
1.39762
1.32308
1.29199
1.28959
1.28951
1.30243
1.33229
1.38633
1.47796
1.62025
2.16807
2.47033
2.52049
2.50109
2.48407
2.48146
2.48414
2.48353
2.47855
2.47056
2.46303
2.45733
2.45413
2.45115
2.44362
2.4353
2.42566
2.41786
2.4118
2.40798
2.4034
2.39655
2.38759
2.37693
2.3668
2.35691
2.34746
2.33766
2.32805
2.31946
2.31195
2.30379
2.29568
2.28719
2.27721
2.26629
2.25819
2.25255
2.2473
2.24126
2.23484
2.22682
2.21525
2.20379
2.19671
2.19062
2.18391
2.17646
2.16791
2.15739
2.14493
2.1333
2.12457
2.11755
2.11085
2.10377
2.09549
2.08482
2.0722
2.06159
2.05475
2.04895
2.04299
2.03625
2.02696
2.01285
1.99685
1.98686
1.98227
1.98215
1.99252
2.02022
2.06949
2.12705
2.1428
2.13166
2.18595
2.07502
1.9801
1.88977
1.7982
1.72578
1.65658
1.57533
1.52492
1.51164
1.48777
1.43669
1.36929
1.34132
1.33667
1.35622
1.40451
1.47441
1.57394
1.59178
1.72907
2.19764
2.41733
2.45512
2.43704
2.41935
2.41677
2.41894
2.41696
2.41031
2.40098
2.39339
2.38746
2.38396
2.37941
2.37231
2.36349
2.35442
2.34769
2.34283
2.33916
2.33312
2.32508
2.31436
2.30335
2.2941
2.28537
2.27748
2.26971
2.26121
2.25219
2.24324
2.23468
2.22616
2.21726
2.2084
2.2003
2.19299
2.18628
2.18011
2.17389
2.16657
2.15735
2.14733
2.139
2.13243
2.12618
2.11944
2.11163
2.10229
2.09153
2.08054
2.07134
2.06427
2.05807
2.05164
2.04422
2.03519
2.02445
2.01366
2.0055
1.99969
1.99421
1.98806
1.98009
1.96925
1.95369
1.94355
1.94304
1.95191
1.98285
2.03013
2.07983
2.11405
2.11445
2.0964
2.20356
2.11202
2.02789
1.95372
1.86799
1.78752
1.73365
1.67454
1.60389
1.55788
1.53762
1.50652
1.46231
1.42453
1.42401
1.4681
1.54732
1.60471
1.64601
1.64058
1.64377
1.77526
2.15341
2.37286
2.40169
2.38413
2.3719
2.37126
2.37341
2.36981
2.36087
2.35016
2.34273
2.33735
2.33455
2.32879
2.32116
2.31145
2.30372
2.2978
2.2938
2.28798
2.2803
2.26981
2.25825
2.2494
2.24161
2.23525
2.22788
2.21907
2.2089
2.19809
2.18889
2.18117
2.17415
2.16704
2.15897
2.14965
2.14031
2.1325
2.12577
2.11927
2.11234
2.1041
2.09448
2.08542
2.07798
2.07109
2.06399
2.05636
2.04779
2.03779
2.02722
2.0182
2.01112
2.00484
1.99863
1.99191
1.98402
1.97413
1.96361
1.95533
1.94888
1.94264
1.93567
1.92801
1.91787
1.91502
1.92158
1.94843
1.99702
2.03854
2.07153
2.08095
2.0777
2.06017
2.21209
2.13766
2.06047
1.99357
1.926
1.85003
1.7831
1.73694
1.68661
1.62633
1.57626
1.55054
1.53801
1.54702
1.57615
1.64872
1.69626
1.70557
1.69961
1.68829
1.67268
1.68053
1.78418
2.09951
2.3197
2.35089
2.34557
2.33943
2.33982
2.33801
2.32971
2.31752
2.30805
2.30214
2.29945
2.29581
2.28912
2.27974
2.27078
2.26422
2.25948
2.2539
2.24665
2.23704
2.22542
2.21672
2.20955
2.20343
2.19588
2.18737
2.17695
2.16477
2.15585
2.14928
2.14293
2.13603
2.12809
2.11835
2.1071
2.09745
2.09046
2.08456
2.07853
2.07124
2.06153
2.0505
2.04151
2.03454
2.0282
2.0218
2.01462
2.00549
1.99376
1.9822
1.97395
1.96791
1.96269
1.95762
1.95171
1.94345
1.93194
1.92023
1.91159
1.90498
1.89963
1.89516
1.89752
1.90717
1.93275
1.9826
2.02399
2.03786
2.04415
2.04173
2.03916
2.02615
2.21349
2.15166
2.08309
2.01946
1.96394
1.90339
1.83335
1.77702
1.7377
1.69151
1.64229
1.62057
1.65226
1.68641
1.72541
1.77648
1.77448
1.76203
1.75178
1.73717
1.72692
1.71855
1.72204
1.78506
2.04451
2.25562
2.3041
2.31706
2.31403
2.31015
2.30183
2.28922
2.27844
2.27266
2.2697
2.26755
2.26168
2.25329
2.2432
2.23613
2.23071
2.2254
2.21865
2.21013
2.19887
2.18956
2.18268
2.17639
2.16915
2.16133
2.15173
2.13963
2.13033
2.12396
2.11759
2.11066
2.10297
2.09364
2.0821
2.07135
2.06399
2.05797
2.05182
2.04465
2.03523
2.02357
2.01331
2.00639
2.00077
1.99516
1.9888
1.98036
1.96784
1.95345
1.94439
1.93916
1.93478
1.93053
1.92567
1.9188
1.90776
1.89339
1.88147
1.87535
1.87425
1.87924
1.89613
1.9288
1.97789
2.02445
2.03112
2.02723
2.01792
2.00908
2.0067
2.0008
2.21137
2.15833
2.10107
2.04121
1.98754
1.93658
1.87837
1.81785
1.77191
1.74497
1.73358
1.75173
1.82074
1.83107
1.83666
1.84328
1.83008
1.8113
1.80631
1.79288
1.77512
1.76828
1.75197
1.75312
1.78971
1.98063
2.18236
2.25778
2.28605
2.28716
2.27831
2.26391
2.25182
2.24618
2.24277
2.24115
2.23593
2.22851
2.21803
2.20973
2.20385
2.19869
2.19254
2.18505
2.17476
2.16398
2.15697
2.15081
2.14429
2.1373
2.1291
2.11855
2.10793
2.10017
2.09348
2.08676
2.07959
2.07125
2.06091
2.0499
2.04133
2.03463
2.02816
2.02107
2.01248
2.00179
1.99074
1.98284
1.97737
1.97223
1.96658
1.95925
1.94775
1.93174
1.92054
1.91536
1.91124
1.90726
1.90302
1.89745
1.88858
1.87361
1.85859
1.85757
1.86188
1.8819
1.92522
1.97048
2.01364
2.0302
2.0281
2.01766
2.00095
1.98929
1.98445
1.97933
2.20609
2.1597
2.11172
2.05627
2.00475
1.95821
1.90737
1.85616
1.82673
1.84577
1.86049
1.89791
1.93415
1.92272
1.89354
1.88317
1.87101
1.85395
1.84904
1.83956
1.81863
1.80507
1.79679
1.77694
1.77209
1.7923
1.92048
2.11001
2.21648
2.25371
2.2571
2.24484
2.22902
2.22154
2.21754
2.21611
2.21154
2.20461
2.19409
2.18393
2.17763
2.17257
2.16718
2.16049
2.15141
2.13974
2.13153
2.12582
2.12015
2.11388
2.10675
2.09775
2.08653
2.07645
2.06915
2.06279
2.05636
2.0492
2.04037
2.0295
2.01931
2.01169
2.00517
1.99861
1.99131
1.98238
1.97143
1.96114
1.95452
1.94957
1.94442
1.93812
1.92912
1.91601
1.90242
1.89461
1.89012
1.88625
1.8821
1.87704
1.8702
1.85855
1.85045
1.85435
1.87381
1.92244
1.97018
2.00137
2.0188
2.01873
2.01265
2.00248
1.99062
1.97819
1.97041
1.96255
2.19868
2.15743
2.11504
2.06752
2.01699
1.97494
1.94053
1.92225
1.94423
1.99212
1.99242
1.99789
1.99629
1.97831
1.94169
1.92147
1.91248
1.89475
1.88616
1.87813
1.85947
1.83912
1.83098
1.81629
1.79783
1.78495
1.79275
1.8676
2.03729
2.16391
2.21781
2.22358
2.20976
2.19885
2.19266
2.19144
2.18784
2.18111
2.17047
2.15827
2.15123
2.1461
2.14153
2.13555
2.12771
2.1164
2.10637
2.10075
2.09565
2.08989
2.08322
2.07493
2.06373
2.05191
2.044
2.03825
2.03269
2.02653
2.01871
2.00789
1.9957
1.98688
1.98084
1.9754
1.96973
1.96295
1.95359
1.94124
1.93067
1.92473
1.92
1.91479
1.90858
1.90054
1.88923
1.87677
1.86884
1.86456
1.86036
1.85608
1.85248
1.85094
1.85698
1.88053
1.92465
1.98187
1.99636
2.00273
2.00262
1.99925
1.99315
1.98671
1.98019
1.97207
1.96259
1.95027
2.18867
2.15165
2.11267
2.07043
2.03038
2.00913
2.02186
2.03678
2.07563
2.09142
2.06508
2.04074
2.02706
2.01319
1.98595
1.96075
1.9527
1.93375
1.91875
1.90846
1.8911
1.86829
1.85553
1.84552
1.82803
1.81012
1.79074
1.79112
1.82755
1.95956
2.10264
2.17217
2.1792
2.17582
2.16859
2.1672
2.16346
2.15675
2.14648
2.13253
2.1243
2.11907
2.11499
2.10967
2.10296
2.09315
2.08163
2.07512
2.07017
2.06442
2.0577
2.04966
2.03895
2.02638
2.01795
2.01281
2.00799
2.00256
1.99557
1.98535
1.97163
1.96073
1.95509
1.9507
1.94633
1.9414
1.93449
1.92317
1.90846
1.89899
1.89446
1.89068
1.88667
1.88189
1.8745
1.86246
1.84888
1.84124
1.83705
1.83778
1.84306
1.85787
1.89441
1.93775
1.98206
2.00212
2.0002
1.99391
1.98515
1.97897
1.97418
1.97044
1.96651
1.96115
1.95492
1.94167
2.17598
2.14225
2.10844
2.07707
2.07435
2.10487
2.1443
2.15216
2.15486
2.1409
2.10715
2.07093
2.05444
2.04441
2.02261
1.99479
1.98397
1.96865
1.94998
1.93612
1.91752
1.89589
1.87748
1.86691
1.85407
1.83561
1.81397
1.78973
1.7881
1.80136
1.88689
2.02779
2.10969
2.13394
2.14159
2.14201
2.13806
2.12989
2.12002
2.10584
2.09601
2.09077
2.08673
2.08194
2.07625
2.06837
2.05669
2.04809
2.04253
2.03646
2.02967
2.02198
2.01226
2.00009
1.991
1.98585
1.98115
1.97606
1.96994
1.96145
1.94906
1.93582
1.92798
1.92366
1.91999
1.91618
1.91153
1.90396
1.89078
1.87598
1.8686
1.86541
1.86259
1.85917
1.85451
1.84692
1.834
1.82087
1.82064
1.82729
1.84988
1.8971
1.94314
1.97644
1.99907
1.99851
1.99232
1.98262
1.97046
1.96032
1.95447
1.95087
1.94902
1.94469
1.93972
1.92899
2.16138
2.13404
2.12087
2.13494
2.1787
2.22166
2.22043
2.2024
2.17955
2.15809
2.13403
2.10125
2.08388
2.07423
2.05375
2.02402
2.00722
1.99517
1.97586
1.9593
1.9386
1.91767
1.90018
1.88443
1.87072
1.853
1.83029
1.80616
1.78681
1.77659
1.78147
1.82865
1.94014
2.04015
2.08504
2.10136
2.10874
2.10249
2.0926
2.07849
2.0664
2.06059
2.05643
2.05255
2.04765
2.04112
2.03046
2.0196
2.01251
2.00613
1.9996
1.99273
1.98438
1.97345
1.96342
1.95706
1.95185
1.94678
1.9414
1.93483
1.92571
1.9139
1.90271
1.89535
1.89101
1.88772
1.88436
1.87956
1.8714
1.85891
1.84622
1.83965
1.8367
1.83412
1.83102
1.82691
1.81984
1.81482
1.82155
1.84656
1.89315
1.94441
1.96856
1.98217
1.9845
1.97995
1.97311
1.96543
1.95589
1.94463
1.93659
1.93171
1.92832
1.92496
1.9204
1.91069
2.14458
2.14785
2.18682
2.2453
2.28391
2.27571
2.2511
2.22351
2.19126
2.1701
2.15541
2.12857
2.10859
2.09699
2.07756
2.04851
2.0268
2.01462
1.99637
1.97645
1.95591
1.93324
1.91696
1.90134
1.88354
1.8642
1.84002
1.81726
1.79706
1.77876
1.76927
1.76093
1.77676
1.85077
1.95758
2.0246
2.05413
2.0693
2.06498
2.05324
2.03663
2.02842
2.02432
2.02144
2.01764
2.01198
2.00268
1.99037
1.98123
1.97499
1.96941
1.96364
1.95661
1.94715
1.93643
1.92818
1.92205
1.91671
1.91166
1.90622
1.89959
1.89105
1.88065
1.87037
1.86277
1.85779
1.8539
1.85031
1.84614
1.83981
1.83039
1.8179
1.80926
1.80616
1.80397
1.80533
1.81073
1.82608
1.86003
1.90291
1.94953
1.96142
1.96262
1.9618
1.9591
1.9552
1.95069
1.94547
1.93901
1.92973
1.91909
1.91255
1.90788
1.90378
1.89938
1.88988
2.16723
2.23371
2.29446
2.32577
2.30824
2.27988
2.25498
2.23501
2.2093
2.18514
2.17201
2.1509
2.12691
2.11203
2.0934
2.06509
2.04242
2.02912
2.01211
1.99036
1.9678
1.94609
1.92664
1.91032
1.89219
1.87062
1.84637
1.82209
1.80487
1.7877
1.76846
1.75277
1.74403
1.7398
1.77613
1.86725
1.95515
2.00625
2.02432
2.02402
2.01013
1.99903
1.99508
1.99239
1.98896
1.98382
1.9755
1.96184
1.95048
1.94521
1.94096
1.93638
1.93065
1.92232
1.91074
1.90009
1.8928
1.88711
1.88208
1.87698
1.87127
1.86498
1.85737
1.84798
1.83786
1.83001
1.82527
1.82145
1.81778
1.81421
1.80902
1.79996
1.78733
1.78221
1.78335
1.79264
1.81858
1.86744
1.91275
1.94818
1.95806
1.95436
1.94735
1.93955
1.93395
1.93051
1.92849
1.9244
1.91903
1.91195
1.90191
1.89288
1.88758
1.88287
1.87878
1.86997
2.26756
2.32876
2.35567
2.3353
2.30271
2.27367
2.25522
2.24229
2.22255
2.19567
2.17834
2.1635
2.13913
2.11979
2.10181
2.07467
2.05181
2.03834
2.02069
1.99976
1.9748
1.95199
1.93299
1.91398
1.89559
1.87486
1.85087
1.82749
1.8083
1.79221
1.77593
1.75615
1.73687
1.7221
1.71189
1.72611
1.79059
1.88331
1.95291
1.97965
1.97917
1.97517
1.9721
1.97027
1.96631
1.96057
1.95208
1.93717
1.92375
1.91916
1.91606
1.91288
1.9083
1.90111
1.89038
1.87709
1.86704
1.86086
1.85569
1.85131
1.84706
1.84114
1.8343
1.82596
1.81708
1.80678
1.79919
1.79696
1.79501
1.79121
1.78649
1.77955
1.77108
1.77065
1.78133
1.81269
1.86407
1.9069
1.9333
1.9464
1.94608
1.94153
1.93392
1.92241
1.91339
1.90851
1.90565
1.90299
1.89871
1.89382
1.88685
1.87732
1.87061
1.86589
1.86204
1.85406
2.35293
2.35719
2.34473
2.32033
2.29291
2.26893
2.25589
2.24603
2.22762
2.20002
2.17946
2.1676
2.14745
2.12403
2.10528
2.08061
2.05681
2.04219
2.02459
2.00234
1.97865
1.95378
1.93509
1.91717
1.89828
1.87847
1.85525
1.83189
1.81214
1.79516
1.77988
1.76391
1.74354
1.72306
1.70475
1.69537
1.69861
1.73745
1.81549
1.89616
1.94218
1.94849
1.95482
1.95595
1.95111
1.94419
1.9358
1.92153
1.907
1.9007
1.89797
1.89401
1.88871
1.88292
1.87293
1.85831
1.8492
1.84477
1.83998
1.83281
1.82293
1.81326
1.80749
1.8043
1.79963
1.79171
1.78243
1.77335
1.76445
1.75939
1.75861
1.76103
1.76761
1.78622
1.82275
1.87212
1.90683
1.91713
1.92538
1.93047
1.92937
1.9251
1.91874
1.90858
1.89844
1.89284
1.88923
1.88741
1.88474
1.88109
1.87624
1.86822
1.8596
1.85404
1.85067
1.8439
2.37807
2.35448
2.33264
2.30909
2.28618
2.26434
2.25269
2.24357
2.22612
2.1993
2.17851
2.16657
2.15044
2.12678
2.10555
2.08369
2.05977
2.04215
2.02513
2.00263
1.97864
1.95594
1.93607
1.91905
1.90146
1.88244
1.86151
1.83835
1.81819
1.80176
1.7866
1.77259
1.75673
1.73715
1.71616
1.69643
1.68934
1.6912
1.7106
1.76792
1.85306
1.90864
1.94179
1.94491
1.94038
1.93249
1.92543
1.91544
1.90595
1.89903
1.89159
1.88366
1.87564
1.86665
1.85722
1.8511
1.84627
1.83974
1.83165
1.82209
1.81087
1.80137
1.79475
1.78856
1.78367
1.77973
1.77228
1.75941
1.74697
1.74643
1.74832
1.76275
1.79713
1.84335
1.88842
1.91536
1.91766
1.91851
1.91938
1.91992
1.91808
1.91356
1.90837
1.90194
1.89362
1.88855
1.88577
1.88361
1.88073
1.87661
1.87152
1.86487
1.85632
1.85111
1.84876
1.84315
2.42397
2.37585
2.34376
2.32152
2.29617
2.27275
2.25948
2.24784
2.22855
2.20063
2.17858
2.1655
2.15008
2.12781
2.10492
2.08565
2.06422
2.04454
2.02723
2.0065
1.98227
1.96076
1.94215
1.92576
1.90971
1.89235
1.87319
1.85269
1.83355
1.81839
1.80508
1.79236
1.77992
1.76533
1.7471
1.73013
1.71472
1.70343
1.70094
1.71008
1.74636
1.81131
1.88019
1.93206
1.94282
1.94158
1.93567
1.92568
1.91682
1.90792
1.89838
1.88903
1.87883
1.86614
1.85549
1.8498
1.84459
1.83785
1.82935
1.81808
1.80377
1.79554
1.79173
1.78814
1.78266
1.77373
1.76346
1.75223
1.74598
1.74796
1.76642
1.81034
1.86524
1.8986
1.92404
1.92828
1.92616
1.92204
1.91856
1.9159
1.91449
1.91267
1.90943
1.90571
1.90065
1.89285
1.88487
1.88017
1.87777
1.87627
1.87324
1.86842
1.86263
1.85507
1.84801
1.84067
2.49701
2.44083
2.40406
2.37731
2.33976
2.30698
2.28668
2.27229
2.24883
2.21902
2.19612
2.18209
2.16621
2.1446
2.11725
2.09562
2.0757
2.05582
2.03711
2.01667
1.99414
1.97329
1.95631
1.94133
1.92655
1.91054
1.89262
1.8739
1.85717
1.84344
1.83138
1.81995
1.80802
1.79455
1.77976
1.76406
1.74976
1.73813
1.72763
1.72453
1.72167
1.73481
1.77842
1.85833
1.92081
1.9549
1.95105
1.94291
1.93422
1.92523
1.91496
1.90481
1.89255
1.87698
1.86457
1.85822
1.85176
1.84384
1.83432
1.8234
1.81084
1.79953
1.79308
1.78707
1.77956
1.7731
1.76815
1.75943
1.76306
1.78771
1.83606
1.88892
1.91431
1.93143
1.9444
1.94465
1.94094
1.93321
1.92406
1.92064
1.91854
1.918
1.91876
1.91735
1.91376
1.90592
1.89482
1.88752
1.8835
1.88052
1.87874
1.87715
1.87369
1.86646
1.85662
1.84638
2.61082
2.56069
2.51143
2.46488
2.41916
2.38175
2.35351
2.33139
2.29999
2.26456
2.23709
2.21992
2.20271
2.17924
2.15469
2.13602
2.1179
2.09834
2.07937
2.05917
2.03749
2.0181
2.00228
1.988
1.97371
1.95834
1.94131
1.92362
1.90742
1.89353
1.88108
1.86887
1.85591
1.84157
1.82623
1.81081
1.7975
1.78394
1.77162
1.75625
1.7421
1.73549
1.73954
1.76684
1.832
1.90712
1.9512
1.959
1.95602
1.9472
1.93615
1.92628
1.91459
1.89875
1.88251
1.87368
1.86642
1.85844
1.84908
1.83874
1.82626
1.81167
1.79991
1.79076
1.78439
1.78306
1.78291
1.79609
1.83287
1.88207
1.92685
1.94593
1.95276
1.96206
1.96783
1.96594
1.96046
1.95227
1.94255
1.93794
1.93639
1.93553
1.93521
1.93382
1.93073
1.9253
1.91727
1.90834
1.90217
1.89796
1.89447
1.89085
1.88677
1.88093
1.87432
1.86425
2.66643
2.63636
2.59602
2.55414
2.51258
2.47432
2.44044
2.40795
2.37229
2.33695
2.30775
2.2872
2.26681
2.23916
2.20987
2.18949
2.17167
2.15064
2.12969
2.10886
2.0866
2.06645
2.04994
2.03483
2.01941
2.00271
1.98418
1.96494
1.94718
1.93167
1.91751
1.90348
1.88878
1.87288
1.85613
1.84015
1.82612
1.81293
1.79904
1.78518
1.77076
1.75671
1.74421
1.74498
1.7615
1.81146
1.8925
1.94839
1.96776
1.96427
1.95902
1.95006
1.9388
1.92417
1.90552
1.89203
1.88438
1.87715
1.87086
1.86121
1.84802
1.83148
1.8145
1.80345
1.80356
1.80715
1.83504
1.88942
1.93894
1.97389
1.99032
1.99208
1.99297
1.99132
1.9887
1.98634
1.98468
1.98205
1.97607
1.9698
1.96718
1.96541
1.963
1.95976
1.95569
1.95099
1.94566
1.93906
1.93225
1.92664
1.92161
1.91652
1.91137
1.90602
1.90097
1.89193
2.66946
2.65359
2.63213
2.60678
2.57803
2.54816
2.5193
2.4877
2.45337
2.41921
2.38885
2.3641
2.33695
2.30574
2.27621
2.25472
2.23725
2.21691
2.19408
2.17042
2.14683
2.12579
2.10794
2.09129
2.07424
2.05601
2.03623
2.01604
1.99734
1.98033
1.96398
1.94748
1.93048
1.91294
1.89539
1.8792
1.86436
1.85018
1.83498
1.81871
1.80013
1.78347
1.76769
1.75747
1.75249
1.76131
1.79526
1.86482
1.93113
1.96634
1.97464
1.97302
1.96336
1.9492
1.93093
1.91051
1.90029
1.89342
1.89004
1.88234
1.86936
1.85582
1.83833
1.83406
1.83804
1.87516
1.94772
1.99805
2.0235
2.04127
2.03916
2.0314
2.02438
2.01994
2.01782
2.01797
2.01828
2.01696
2.01362
2.00852
2.00371
2.00039
1.99738
1.99379
1.98963
1.98511
1.97994
1.97349
1.96592
1.95909
1.95329
1.94777
1.94247
1.93757
1.93312
1.92435
2.66464
2.65512
2.64101
2.62392
2.6042
2.5833
2.56096
2.53478
2.50593
2.4773
2.45177
2.42806
2.40013
2.3697
2.34209
2.3201
2.30094
2.27822
2.25257
2.22542
2.20054
2.17846
2.15873
2.14014
2.1212
2.10076
2.07901
2.05769
2.03834
2.02069
2.00346
1.98573
1.96688
1.94715
1.92771
1.91008
1.8942
1.87955
1.86425
1.8472
1.8275
1.80774
1.7904
1.77721
1.76465
1.75795
1.75807
1.77527
1.83034
1.90478
1.95769
1.97696
1.97868
1.97044
1.95419
1.92983
1.9123
1.90421
1.89946
1.89385
1.88502
1.87816
1.8698
1.87803
1.92919
2.00113
2.05729
2.07483
2.08296
2.08154
2.07509
2.0684
2.06327
2.05772
2.05531
2.05414
2.05265
2.05041
2.04781
2.04461
2.04
2.03496
2.03142
2.02786
2.02379
2.01912
2.01354
2.00628
1.99729
1.98937
1.98346
1.97853
1.97413
1.97012
1.9665
1.95824
2.65782
2.64994
2.63793
2.6242
2.60971
2.59352
2.57482
2.55353
2.53096
2.50912
2.48794
2.46485
2.43825
2.41053
2.38527
2.36384
2.34276
2.31831
2.29089
2.26464
2.24255
2.22123
2.20055
2.17971
2.15696
2.13236
2.10897
2.08875
2.07054
2.05309
2.03526
2.01563
1.99318
1.96965
1.94868
1.93153
1.91641
1.902
1.88672
1.86911
1.84795
1.82594
1.80672
1.79195
1.77917
1.76645
1.75851
1.75063
1.75689
1.7955
1.87612
1.93596
1.96881
1.97462
1.96669
1.94865
1.9251
1.90958
1.90294
1.89894
1.89904
1.8966
1.91825
1.98701
2.05865
2.10299
2.11543
2.11375
2.11122
2.10794
2.10482
2.10183
2.09873
2.09297
2.08698
2.08354
2.08158
2.07989
2.07763
2.07465
2.06974
2.06282
2.05793
2.05405
2.04988
2.04526
2.03986
2.03263
2.02311
2.0154
2.01029
2.00572
2.00142
1.99723
1.99334
1.98455
2.65882
2.64883
2.63627
2.62321
2.60861
2.5925
2.57482
2.55654
2.53837
2.52036
2.5007
2.47842
2.45436
2.43057
2.40927
2.38865
2.36437
2.33778
2.31071
2.28849
2.26869
2.24829
2.22688
2.20346
2.17722
2.15124
2.12879
2.10951
2.09163
2.07384
2.055
2.03352
2.00907
1.98446
1.96302
1.94551
1.93028
1.91566
1.89995
1.88193
1.86069
1.83841
1.81868
1.80251
1.78917
1.77577
1.76286
1.75096
1.73764
1.73723
1.76789
1.84194
1.91104
1.9551
1.96042
1.9537
1.93826
1.91886
1.90459
1.9051
1.91046
1.9465
2.02879
2.10073
2.13569
2.14728
2.1404
2.13054
2.12726
2.12557
2.12656
2.12486
2.12151
2.11569
2.1078
2.10384
2.10154
2.09934
2.0963
2.0921
2.08622
2.07955
2.07514
2.07178
2.06825
2.06379
2.05842
2.0511
2.04157
2.03381
2.02881
2.02417
2.01969
2.01525
2.01097
2.00169
2.65983
2.64871
2.63557
2.62224
2.60769
2.59192
2.57501
2.55778
2.54033
2.5216
2.50069
2.47778
2.45478
2.43471
2.41725
2.39622
2.37122
2.34484
2.32215
2.30136
2.28159
2.26079
2.23842
2.21356
2.18724
2.16247
2.1405
2.12068
2.10215
2.08378
2.06422
2.0422
2.0181
1.99452
1.97318
1.95408
1.93712
1.92166
1.90599
1.88842
1.86866
1.84787
1.82827
1.81
1.79428
1.78042
1.76636
1.75242
1.7369
1.72425
1.72419
1.74304
1.80598
1.88209
1.93425
1.94573
1.94088
1.92756
1.91456
1.92089
1.96594
2.05192
2.125
2.15138
2.15917
2.15681
2.14819
2.13954
2.13681
2.13611
2.13765
2.13641
2.13323
2.12804
2.12065
2.11525
2.11196
2.10848
2.10454
2.10021
2.0956
2.091
2.08654
2.08234
2.07802
2.07286
2.06657
2.05936
2.052
2.04521
2.03987
2.03551
2.03124
2.02667
2.0219
2.01197
2.66228
2.6504
2.63683
2.62286
2.60787
2.59189
2.57513
2.558
2.5402
2.52115
2.50088
2.47972
2.459
2.43903
2.41913
2.39726
2.37322
2.34966
2.32725
2.30676
2.28611
2.26431
2.24074
2.21594
2.19147
2.16878
2.14776
2.12742
2.10742
2.08743
2.06593
2.04332
2.02155
2.00117
1.98156
1.96198
1.94237
1.92332
1.90498
1.88667
1.86986
1.85382
1.83736
1.8196
1.80092
1.78195
1.76426
1.74878
1.73569
1.72339
1.71683
1.70864
1.71999
1.77031
1.8454
1.90667
1.92146
1.92646
1.94794
1.9973
2.07396
2.13199
2.16191
2.16783
2.16513
2.16073
2.15424
2.14626
2.14267
2.14108
2.14115
2.14032
2.13758
2.13345
2.12742
2.12163
2.11773
2.11408
2.11019
2.1061
2.10179
2.0971
2.09145
2.08539
2.07987
2.07472
2.06968
2.06467
2.05942
2.05374
2.04765
2.04193
2.0366
2.03103
2.02576
2.01639
2.66249
2.65062
2.63737
2.62342
2.60841
2.59248
2.57575
2.5583
2.53992
2.52063
2.50072
2.48051
2.46042
2.44065
2.41816
2.39441
2.37213
2.35157
2.33124
2.30972
2.28745
2.26359
2.23914
2.21541
2.1935
2.17328
2.15352
2.13313
2.11105
2.08688
2.06298
2.04128
2.02215
2.0047
1.98737
1.96867
1.94786
1.92492
1.903
1.88451
1.86884
1.85459
1.84067
1.82496
1.80609
1.78464
1.76485
1.74913
1.7358
1.72338
1.71098
1.7013
1.68969
1.69398
1.73751
1.81873
1.8838
1.94603
2.02599
2.09924
2.14003
2.15601
2.15794
2.161
2.16319
2.16093
2.15731
2.15075
2.14609
2.14386
2.14227
2.14103
2.13845
2.13497
2.12987
2.12412
2.12028
2.11688
2.11345
2.10981
2.1055
2.09929
2.0913
2.08449
2.07978
2.07587
2.07209
2.06816
2.06389
2.05877
2.05218
2.04438
2.03745
2.03144
2.02659
2.01821
2.66298
2.65112
2.63802
2.62419
2.6093
2.5934
2.57651
2.55861
2.53991
2.52071
2.50137
2.48198
2.46207
2.4406
2.41816
2.39553
2.37385
2.35434
2.33346
2.31126
2.28761
2.26183
2.23678
2.21527
2.19604
2.17743
2.15839
2.13723
2.11191
2.08381
2.05847
2.03884
2.02287
2.008
1.99275
1.97477
1.95105
1.92277
1.89798
1.88051
1.86749
1.85591
1.84436
1.83074
1.81141
1.7851
1.76122
1.74501
1.73367
1.72369
1.71196
1.70022
1.68702
1.66656
1.67168
1.71847
1.83668
1.97838
2.09236
2.17656
2.20755
2.18953
2.16271
2.15862
2.16035
2.16006
2.15799
2.15203
2.14633
2.1439
2.1421
2.1408
2.13842
2.13508
2.1308
2.12559
2.12127
2.11759
2.11386
2.10997
2.10552
2.09907
2.0902
2.08346
2.07965
2.07632
2.07334
2.0702
2.06615
2.0609
2.05309
2.04418
2.03706
2.03107
2.0264
2.0184
)
;

boundaryField
{
    inlet
    {
        type            fixedValue;
        value           uniform 1;
    }
    outlet
    {
        type            inletOutlet;
        inletValue      uniform 1;
        value           nonuniform List<scalar> 
32
(
2.15108
2.17658
2.18423
2.16684
2.1306
2.09514
2.05949
2.02633
2.00182
1.98098
1.96327
1.95012
1.9408
1.92869
1.91085
1.89012
1.87027
1.85435
1.84425
1.84345
1.84094
1.84638
1.86399
1.89162
1.92399
1.95795
1.98422
2.00139
2.01176
2.01642
2.01843
2.01868
)
;
    }
    bottom
    {
        type            symmetryPlane;
    }
    top
    {
        type            symmetryPlane;
    }
    obstacle
    {
        type            zeroGradient;
    }
    defaultFaces
    {
        type            empty;
    }
}


// ************************************************************************* //
