/*--------------------------------*- C++ -*----------------------------------*\
  =========                 |
  \\      /  F ield         | OpenFOAM: The Open Source CFD Toolbox
   \\    /   O peration     | Website:  https://openfoam.org
    \\  /    A nd           | Version:  7
     \\/     M anipulation  |
\*---------------------------------------------------------------------------*/
FoamFile
{
    version     2.0;
    format      ascii;
    class       volVectorField;
    location    "7";
    object      U;
}
// * * * * * * * * * * * * * * * * * * * * * * * * * * * * * * * * * * * * * //

dimensions      [0 1 -1 0 0 0 0];

internalField   nonuniform List<vector> 
4032
(
(3 1.62281e-17 0)
(3 1.60456e-16 0)
(3 1.8098e-16 0)
(3 2.13913e-16 0)
(3 5.49383e-16 0)
(3 6.57786e-16 0)
(3 6.37395e-16 0)
(3 7.70322e-16 0)
(3 3.78661e-16 0)
(3 -4.75479e-16 0)
(3 -7.37268e-16 0)
(2.89945 0.00320912 0)
(0.987967 0.0160164 0)
(0.709795 0.0193521 0)
(0.658055 0.0242255 0)
(0.598112 0.0256677 0)
(0.539062 0.0268339 0)
(0.478252 0.0281304 0)
(0.415727 0.0296094 0)
(0.350806 0.0313899 0)
(0.282959 0.033375 0)
(0.210599 0.0364078 0)
(0.131983 0.0390552 0)
(0.0494275 0.0445212 0)
(3 4.62753e-17 0)
(3 2.80175e-16 0)
(3 6.39133e-16 0)
(3 1.06641e-15 0)
(3 1.66624e-15 0)
(3 1.62279e-15 0)
(3 9.34266e-16 0)
(3 1.25231e-15 0)
(3 3.40099e-16 0)
(3 -8.84462e-16 0)
(3 -8.08571e-16 0)
(2.90947 0.0202692 0)
(0.993873 0.0742036 0)
(0.695532 0.0666346 0)
(0.641439 0.0708687 0)
(0.582665 0.0753741 0)
(0.523921 0.0797254 0)
(0.462897 0.0843257 0)
(0.399853 0.0890427 0)
(0.334664 0.0945295 0)
(0.26737 0.100462 0)
(0.197353 0.110106 0)
(0.122186 0.118759 0)
(0.0459587 0.134495 0)
(3 -3.97055e-17 0)
(3 -3.77316e-17 0)
(3 6.02311e-16 0)
(3 1.17516e-15 0)
(3 1.2025e-15 0)
(3 1.04992e-15 0)
(3 4.57447e-16 0)
(3 4.2492e-16 0)
(3 1.28288e-16 0)
(3 1.17964e-16 0)
(3 9.4103e-17 0)
(2.95359 0.0408998 0)
(1.03139 0.137792 0)
(0.710863 0.115883 0)
(0.656433 0.122549 0)
(0.595688 0.129906 0)
(0.534854 0.137373 0)
(0.471681 0.145356 0)
(0.406042 0.153265 0)
(0.337746 0.161913 0)
(0.266859 0.169999 0)
(0.194337 0.183425 0)
(0.117651 0.194956 0)
(0.0437803 0.217289 0)
(3 -7.23377e-17 0)
(3 5.68227e-17 0)
(3 2.00509e-16 0)
(3 4.88336e-16 0)
(3 3.65591e-16 0)
(3 -3.11015e-17 0)
(3 -1.71343e-16 0)
(3 -2.69101e-16 0)
(3 6.21706e-16 0)
(3 8.43439e-16 0)
(3 3.31371e-16 0)
(3.00854 0.00646439 0)
(1.1067 0.182297 0)
(0.74388 0.15267 0)
(0.692482 0.166693 0)
(0.632982 0.178551 0)
(0.571946 0.189993 0)
(0.508147 0.202716 0)
(0.440546 0.215981 0)
(0.36835 0.231001 0)
(0.290912 0.244209 0)
(0.211207 0.26265 0)
(0.126852 0.276775 0)
(0.0459004 0.302174 0)
(3 5.23463e-17 0)
(3 1.24435e-16 0)
(3 -7.24578e-17 0)
(3 3.11364e-16 0)
(3 3.1201e-17 0)
(3 -8.52328e-16 0)
(3 -8.20909e-16 0)
(3 -9.09237e-16 0)
(3 -6.6346e-16 0)
(3 -2.36103e-16 0)
(3 -1.93564e-16 0)
(3.00062 3.1443e-05 0)
(1.21486 0.224399 0)
(0.750399 0.197086 0)
(0.696086 0.217986 0)
(0.639901 0.234377 0)
(0.581409 0.249259 0)
(0.521015 0.266741 0)
(0.457127 0.285594 0)
(0.389271 0.30726 0)
(0.314653 0.325294 0)
(0.235609 0.348353 0)
(0.145533 0.367466 0)
(0.0549549 0.399024 0)
(3 -5.75027e-17 0)
(3 -3.49236e-16 0)
(3 -7.1781e-16 0)
(3 -9.10153e-16 0)
(3 -9.53355e-16 0)
(3 -7.22155e-16 0)
(3 -8.48291e-16 0)
(3 -1.591e-15 0)
(3 -1.60358e-15 0)
(3 -1.01635e-15 0)
(3 -4.91001e-16 0)
(3 -1.25026e-07 0)
(1.39408 0.274599 0)
(0.765669 0.24524 0)
(0.697381 0.262123 0)
(0.648354 0.281301 0)
(0.598102 0.298895 0)
(0.547604 0.32027 0)
(0.492223 0.344505 0)
(0.430469 0.37491 0)
(0.355225 0.405181 0)
(0.268351 0.442848 0)
(0.166202 0.477997 0)
(0.0561763 0.516923 0)
(3 -2.47516e-16 0)
(3 -7.63891e-16 0)
(3 -1.02895e-15 0)
(3 -2.03253e-15 0)
(3 -2.02501e-15 0)
(3 -1.62795e-15 0)
(3 -1.62167e-15 0)
(3 -2.20067e-15 0)
(3 -1.6826e-15 0)
(3 -8.44878e-16 0)
(3 2.63532e-16 0)
(3 -1.26799e-07 0)
(1.66768 0.325828 0)
(0.795994 0.309025 0)
(0.696895 0.308737 0)
(0.646089 0.325364 0)
(0.598031 0.34363 0)
(0.554671 0.369847 0)
(0.508372 0.402276 0)
(0.459067 0.444795 0)
(0.397781 0.49186 0)
(0.326569 0.543533 0)
(0.233523 0.594552 0)
(0.101448 0.660233 0)
(3 7.56431e-17 0)
(3 3.69379e-16 0)
(3 6.72917e-16 0)
(3 3.593e-16 0)
(3 2.12691e-17 0)
(3 -5.18372e-16 0)
(3 -6.60454e-16 0)
(3 -4.1891e-16 0)
(3 3.04263e-16 0)
(3 8.98911e-16 0)
(3 1.27288e-15 0)
(3 -2.65692e-08 0)
(2.07025 0.367544 0)
(0.852101 0.394158 0)
(0.716794 0.370181 0)
(0.667083 0.379128 0)
(0.620148 0.392384 0)
(0.579472 0.416696 0)
(0.540518 0.452217 0)
(0.501956 0.501065 0)
(0.457772 0.560374 0)
(0.395876 0.641428 0)
(0.275699 0.757701 0)
(0.15141 0.924249 0)
(3 1.33415e-16 0)
(3 3.40847e-16 0)
(3 6.51723e-16 0)
(3 7.13089e-16 0)
(3 7.57008e-16 0)
(3 8.31079e-16 0)
(3 8.46651e-16 0)
(3 9.29626e-16 0)
(3 1.40445e-15 0)
(3 1.28823e-15 0)
(3 6.9773e-16 0)
(3 -2.76582e-09 0)
(2.65394 0.303791 0)
(0.983929 0.477897 0)
(0.803221 0.406417 0)
(0.751398 0.414853 0)
(0.693851 0.433338 0)
(0.642465 0.45947 0)
(0.599789 0.496724 0)
(0.563549 0.549986 0)
(0.529893 0.626778 0)
(0.497277 0.750892 0)
(0.465564 0.923139 0)
(0.575921 1.19903 0)
(3 -8.72112e-17 0)
(3 -6.31583e-16 0)
(3 -1.05295e-15 0)
(3 -1.24006e-15 0)
(3 -1.06949e-15 0)
(3 -5.03836e-16 0)
(3 2.37294e-16 0)
(3 4.31323e-16 0)
(3 6.51221e-16 0)
(3 2.88224e-16 0)
(3 -1.65978e-16 0)
(3 -1.1239e-10 0)
(3.07688 0.0430292 0)
(1.21873 0.469555 0)
(0.882352 0.447617 0)
(0.838626 0.473817 0)
(0.785083 0.489698 0)
(0.730744 0.511115 0)
(0.682506 0.544787 0)
(0.643722 0.597023 0)
(0.624487 0.681669 0)
(0.623647 0.816689 0)
(0.686213 0.966299 0)
(0.968452 1.1368 0)
(3 5.8706e-17 0)
(3 8.15348e-18 0)
(3 -6.3262e-16 0)
(3 -9.79444e-16 0)
(3 -1.0297e-15 0)
(3 -9.93864e-16 0)
(3 -1.01023e-15 0)
(3 -8.33743e-16 0)
(3 -5.22438e-16 0)
(3 -4.73794e-16 0)
(3 -7.79789e-16 0)
(3 -2.37557e-12 0)
(3.00873 8.18223e-05 0)
(1.43532 0.462092 0)
(0.884588 0.512316 0)
(0.836686 0.531461 0)
(0.800886 0.550885 0)
(0.772307 0.575468 0)
(0.744835 0.607664 0)
(0.720351 0.651789 0)
(0.723362 0.725743 0)
(0.751472 0.840245 0)
(0.872965 0.963758 0)
(1.1818 1.06802 0)
(3 1.78974e-16 0)
(3 3.30744e-16 0)
(3 4.39525e-16 0)
(3 4.4151e-16 0)
(3 8.38365e-16 0)
(3 -1.46055e-17 0)
(3 -9.4943e-16 0)
(3 -7.06889e-16 0)
(3 -6.90717e-16 0)
(3 -8.361e-16 0)
(3 -5.46325e-16 0)
(3 -2.1031e-14 0)
(3.00006 -2.53877e-06 0)
(1.94112 0.494095 0)
(0.929183 0.57668 0)
(0.85347 0.560341 0)
(0.833879 0.582009 0)
(0.819334 0.607513 0)
(0.80928 0.642176 0)
(0.801685 0.682756 0)
(0.817528 0.746257 0)
(0.867358 0.837605 0)
(1.01049 0.939901 0)
(1.2766 1.00513 0)
(3 -9.55332e-17 0)
(3 2.44147e-16 0)
(3 3.16748e-16 0)
(3 6.13556e-16 0)
(3 7.83508e-16 0)
(3 1.17032e-15 0)
(3 1.08371e-15 0)
(3 7.26996e-16 0)
(3 6.12958e-16 0)
(3 6.30232e-17 0)
(3 1.72226e-16 0)
(3 5.89759e-17 0)
(3.00001 -3.25948e-06 0)
(2.74519 0.320267 0)
(1.09596 0.63523 0)
(0.920348 0.58111 0)
(0.891097 0.601845 0)
(0.873344 0.630713 0)
(0.869627 0.668933 0)
(0.876149 0.711065 0)
(0.901348 0.765681 0)
(0.966622 0.834781 0)
(1.10554 0.906741 0)
(1.32058 0.946676 0)
(3 -2.5158e-16 0)
(3 -3.35176e-16 0)
(3 -3.61812e-16 0)
(3 -2.52258e-16 0)
(3 1.73751e-16 0)
(3 7.25509e-16 0)
(3 1.01518e-15 0)
(3 8.72023e-16 0)
(3 4.18674e-16 0)
(3 1.04548e-16 0)
(3 3.55984e-17 0)
(3 1.54037e-16 0)
(3 -6.89452e-07 0)
(3.07472 0.0262595 0)
(1.43582 0.63215 0)
(1.00219 0.652333 0)
(0.950688 0.652107 0)
(0.92477 0.666516 0)
(0.922889 0.693984 0)
(0.939146 0.730256 0)
(0.974256 0.773751 0)
(1.04782 0.827708 0)
(1.17461 0.879416 0)
(1.34944 0.905898 0)
(3 2.1006e-16 0)
(3 -2.41861e-16 0)
(3 -2.63774e-16 0)
(3 -6.06528e-16 0)
(3 -2.61576e-16 0)
(3 1.71989e-16 0)
(3 7.86929e-16 0)
(3 6.06121e-16 0)
(3 3.10819e-17 0)
(3 -7.44571e-17 0)
(3 -1.93048e-16 0)
(3 -2.04719e-16 0)
(3 -7.01374e-08 0)
(3.00418 7.38358e-05 0)
(1.98852 0.60025 0)
(1.06359 0.724269 0)
(1.01128 0.701949 0)
(0.994825 0.699262 0)
(0.99108 0.7154 0)
(1.00584 0.742039 0)
(1.04408 0.777905 0)
(1.11506 0.816667 0)
(1.22194 0.849981 0)
(1.36154 0.865814 0)
(3 1.34803e-16 0)
(3 1.38556e-17 0)
(3 -8.21936e-16 0)
(3 -8.39395e-16 0)
(3 -1.04837e-15 0)
(3 -8.35225e-16 0)
(3 -1.0098e-15 0)
(3 -1.35589e-15 0)
(3 -1.26872e-15 0)
(3 -7.79733e-16 0)
(3 -1.13301e-15 0)
(3 -7.18238e-16 0)
(3 -2.22538e-09 0)
(3.00001 -3.31986e-07 0)
(2.93201 0.222492 0)
(1.2815 0.698118 0)
(1.08278 0.719307 0)
(1.08713 0.720625 0)
(1.08144 0.740799 0)
(1.08659 0.762222 0)
(1.11456 0.788364 0)
(1.17569 0.817679 0)
(1.26405 0.83957 0)
(1.37853 0.848929 0)
(3 -1.61467e-16 0)
(3 1.17518e-16 0)
(3 9.06588e-18 0)
(3 -2.95912e-16 0)
(3 -1.73662e-15 0)
(3 -2.33667e-15 0)
(3 -2.09164e-15 0)
(3 -2.12816e-15 0)
(3 -1.71714e-15 0)
(3 -2.05073e-15 0)
(3 -1.49887e-15 0)
(3 -8.78369e-16 0)
(3 -4.94677e-12 0)
(3 -7.99791e-07 0)
(3.04136 0.00649281 0)
(1.57243 0.659897 0)
(1.10037 0.756547 0)
(1.11143 0.765527 0)
(1.11711 0.783455 0)
(1.13962 0.795443 0)
(1.17366 0.806314 0)
(1.22826 0.817819 0)
(1.30298 0.828415 0)
(1.39779 0.832261 0)
(3 -3.46536e-16 0)
(3 -1.43372e-16 0)
(3 3.35832e-16 0)
(3 1.06203e-16 0)
(3 -2.97867e-16 0)
(3 -8.83825e-16 0)
(3 -5.08681e-16 0)
(3 -6.30117e-16 0)
(3 -8.28179e-16 0)
(3 -1.07222e-15 0)
(3 -7.2902e-16 0)
(3 -3.01386e-16 0)
(3 -5.74343e-15 0)
(3 -1.53268e-07 0)
(3.0008 3.63239e-05 0)
(2.38876 0.511101 0)
(1.20583 0.789096 0)
(1.13567 0.792068 0)
(1.14887 0.795729 0)
(1.177 0.805623 0)
(1.21707 0.817306 0)
(1.26996 0.827973 0)
(1.33892 0.834464 0)
(1.4182 0.834598 0)
(3 -4.69567e-17 0)
(3 -5.13679e-17 0)
(3 3.2001e-16 0)
(3 7.9601e-16 0)
(3 1.60538e-15 0)
(3 1.56257e-15 0)
(3 8.3964e-16 0)
(3 6.85254e-16 0)
(3 1.86068e-16 0)
(3 2.90679e-17 0)
(3 4.27704e-16 0)
(3 4.68231e-16 0)
(3 -8.13893e-17 0)
(3 -4.79347e-09 0)
(3.00002 -5.44553e-06 0)
(3.05769 0.0725372 0)
(1.5667 0.776561 0)
(1.18519 0.786245 0)
(1.19853 0.794083 0)
(1.2216 0.806578 0)
(1.25936 0.8183 0)
(1.30909 0.82784 0)
(1.37217 0.832304 0)
(1.44157 0.830784 0)
(3 4.28081e-16 0)
(3 1.04392e-16 0)
(3 7.10354e-16 0)
(3 1.34385e-15 0)
(3 2.23918e-15 0)
(3 2.20352e-15 0)
(3 2.0397e-15 0)
(3 2.35185e-15 0)
(3 2.15499e-15 0)
(3 1.48189e-15 0)
(3 1.1294e-15 0)
(3 8.78422e-17 0)
(3 -7.39658e-16 0)
(3 -1.73634e-11 0)
(3 -1.36573e-06 0)
(3.00818 0.00138094 0)
(2.29384 0.631446 0)
(1.26337 0.848287 0)
(1.22302 0.833418 0)
(1.25681 0.833576 0)
(1.29082 0.838764 0)
(1.33787 0.843793 0)
(1.39514 0.845452 0)
(1.45801 0.841234 0)
(3 1.36756e-17 0)
(3 3.14808e-16 0)
(3 4.86456e-16 0)
(3 5.49691e-16 0)
(3 8.99184e-16 0)
(3 1.05122e-15 0)
(3 1.34076e-15 0)
(3 1.73841e-15 0)
(3 1.1327e-15 0)
(3 1.1618e-15 0)
(3 2.97006e-16 0)
(3 -1.32235e-15 0)
(3 -1.36105e-15 0)
(3 -9.45992e-15 0)
(3 -1.15875e-07 0)
(3.00003 9.5307e-06 0)
(3.03911 0.117965 0)
(1.62667 0.827039 0)
(1.26867 0.830619 0)
(1.30541 0.833485 0)
(1.33125 0.839575 0)
(1.37327 0.842268 0)
(1.42303 0.842511 0)
(1.47957 0.83709 0)
(3 -4.10422e-17 0)
(3 6.03326e-16 0)
(3 2.54034e-16 0)
(3 -1.26612e-16 0)
(3 -7.31751e-17 0)
(3 -3.11203e-16 0)
(3 -3.70647e-16 0)
(3 -5.16497e-16 0)
(3 -8.98183e-16 0)
(3 -7.63234e-16 0)
(3 -9.31683e-16 0)
(3 -1.17768e-15 0)
(3 -1.4659e-15 0)
(3 -1.1801e-15 0)
(3 -1.39198e-09 0)
(3 -1.08479e-07 0)
(3.01064 0.00344903 0)
(2.36822 0.637433 0)
(1.35567 0.885566 0)
(1.32734 0.876531 0)
(1.359 0.869026 0)
(1.39424 0.865783 0)
(1.43767 0.860885 0)
(1.48876 0.852256 0)
(3 -3.62242e-17 0)
(3 -1.59083e-16 0)
(3 1.75113e-16 0)
(3 5.66114e-17 0)
(3 -4.16103e-16 0)
(3 -5.35596e-16 0)
(3 -7.65603e-16 0)
(3 -1.25726e-15 0)
(3 -1.07578e-15 0)
(3 -1.46705e-15 0)
(3 -9.40212e-16 0)
(3 -1.56848e-16 0)
(3 -1.48545e-16 0)
(3 -3.07772e-17 0)
(3 -3.11888e-12 0)
(3 -2.65957e-08 0)
(3.00005 4.21907e-05 0)
(3.03137 0.105992 0)
(1.76092 0.836299 0)
(1.36368 0.882153 0)
(1.40126 0.874748 0)
(1.42742 0.867896 0)
(1.46523 0.858154 0)
(1.50988 0.852077 0)
(3 -7.14176e-17 0)
(3 -3.30704e-17 0)
(3 1.40822e-16 0)
(3 -2.67682e-17 0)
(3 1.25212e-17 0)
(3 4.47761e-16 0)
(3 6.85352e-16 0)
(3 6.77423e-16 0)
(3 8.35138e-16 0)
(3 5.47944e-16 0)
(3 4.75741e-16 0)
(3 7.54635e-16 0)
(3 1.62177e-15 0)
(3 1.52891e-15 0)
(3 -6.88861e-16 0)
(3 -2.45428e-09 0)
(3 2.43933e-08 0)
(3.00615 0.00436761 0)
(2.61814 0.531729 0)
(1.50288 0.934725 0)
(1.42159 0.900774 0)
(1.45398 0.889397 0)
(1.48685 0.883274 0)
(1.53071 0.876389 0)
(3 -2.0016e-17 0)
(3 3.49866e-18 0)
(3 -2.62526e-16 0)
(3 4.26333e-17 0)
(3 3.0169e-16 0)
(3 5.08203e-16 0)
(3 6.87723e-16 0)
(3 1.0726e-15 0)
(3 1.49977e-15 0)
(3 2.24266e-15 0)
(3 1.80547e-15 0)
(3 1.73686e-15 0)
(3 1.72831e-15 0)
(3 1.48226e-15 0)
(3 1.00435e-15 0)
(3 -9.52612e-11 0)
(3 -9.29966e-11 0)
(3.00002 4.69996e-05 0)
(3.03622 0.0536827 0)
(2.01887 0.797247 0)
(1.47458 0.913071 0)
(1.494 0.910426 0)
(1.53079 0.895718 0)
(1.55425 0.895253 0)
(3 -2.12747e-17 0)
(3 -2.20974e-16 0)
(3 -2.52774e-16 0)
(3 -4.16217e-17 0)
(3 5.4629e-17 0)
(3 -6.35461e-17 0)
(3 -1.68639e-16 0)
(3 1.3627e-16 0)
(3 5.95166e-16 0)
(3 9.00354e-16 0)
(3 2.13958e-15 0)
(3 1.67632e-15 0)
(3 7.79061e-16 0)
(3 4.34991e-16 0)
(3 5.42715e-16 0)
(3 -8.19475e-13 0)
(3 -2.9389e-11 0)
(3 3.69351e-08 0)
(3.0017 0.00235016 0)
(2.83317 0.315389 0)
(1.73707 0.897016 0)
(1.53007 0.937829 0)
(1.54804 0.931458 0)
(1.52993 0.858536 0)
(3 1.53035e-16 0)
(3 7.23615e-17 0)
(3 -4.55815e-16 0)
(3 -6.9581e-16 0)
(3 -6.62454e-16 0)
(3 -5.62311e-16 0)
(3 -5.04539e-16 0)
(3 2.02665e-16 0)
(3 3.44179e-16 0)
(3 4.27681e-16 0)
(3 4.69995e-16 0)
(3 3.34822e-16 0)
(3 -2.45293e-16 0)
(3 -7.57941e-16 0)
(3 -5.15825e-16 0)
(3 -2.77803e-15 0)
(3 -3.90111e-12 0)
(3 4.02704e-12 0)
(3 1.22624e-05 0)
(3.00856 0.0219825 0)
(2.42314 0.649457 0)
(1.6283 1.01009 0)
(1.49701 0.88355 0)
(1.39808 0.694706 0)
(3 -1.64174e-17 0)
(3 -8.78569e-17 0)
(3 -4.0579e-17 0)
(3 -1.27268e-16 0)
(3 -3.50569e-16 0)
(3 -5.01642e-16 0)
(3 -4.96683e-16 0)
(3 -4.89281e-16 0)
(3 -1.01697e-16 0)
(3 -1.91724e-18 0)
(3 -4.19537e-16 0)
(3 -1.14104e-15 0)
(3 -1.28063e-15 0)
(3 -1.26747e-15 0)
(3 -1.16409e-15 0)
(3 -1.7033e-15 0)
(3 -2.55217e-13 0)
(3 -2.57951e-13 0)
(3 6.2196e-09 0)
(3.00004 0.00068287 0)
(3.02193 0.111447 0)
(2.04538 0.908061 0)
(1.37976 0.694369 0)
(1.29719 0.555446 0)
(3 -8.72559e-17 0)
(3 1.18611e-17 0)
(3 2.90928e-16 0)
(3 2.65811e-16 0)
(3 2.04451e-16 0)
(3 2.82396e-17 0)
(3 -3.9783e-16 0)
(3 -4.69009e-16 0)
(3 -7.39385e-16 0)
(3 -5.0311e-16 0)
(3 -1.53867e-16 0)
(3 -3.90915e-16 0)
(3 -4.61365e-16 0)
(3 -6.0578e-18 0)
(3 -3.97131e-18 0)
(3 -3.57252e-16 0)
(3 -4.11658e-15 0)
(3 -8.68654e-14 0)
(3 2.21339e-12 0)
(3 1.24573e-06 0)
(3.00257 0.00874926 0)
(2.50324 0.270289 0)
(1.20052 0.447413 0)
(1.20209 0.446336 0)
(3 6.7332e-18 0)
(3 9.22898e-17 0)
(3 2.2918e-16 0)
(3 -1.323e-17 0)
(3 -8.36678e-17 0)
(3 -1.74395e-16 0)
(3 -5.85296e-16 0)
(3 -1.17845e-15 0)
(3 -1.31679e-15 0)
(3 -1.36247e-15 0)
(3 -1.0296e-15 0)
(3 2.28789e-17 0)
(3 6.52431e-16 0)
(3 1.19774e-15 0)
(3 9.29178e-16 0)
(3 1.16502e-15 0)
(3 1.76728e-15 0)
(3 -9.09421e-15 0)
(3 -9.15409e-15 0)
(3 8.28781e-10 0)
(2.99999 8.09993e-05 0)
(2.29598 0.0798654 0)
(0.941556 0.266746 0)
(1.01053 0.402576 0)
(3 -1.62689e-16 0)
(3 -1.98919e-17 0)
(3 1.63215e-16 0)
(3 1.4196e-16 0)
(3 -8.39363e-17 0)
(3 -5.4424e-16 0)
(3 -5.77367e-16 0)
(3 -7.75627e-16 0)
(3 -7.5217e-16 0)
(3 -1.02501e-15 0)
(3 -8.31712e-16 0)
(3 -5.95218e-16 0)
(3 -1.24276e-16 0)
(3 2.78758e-16 0)
(3 5.04413e-16 0)
(3 6.99993e-16 0)
(3 1.24801e-15 0)
(3 8.05264e-16 0)
(3 -3.39364e-15 0)
(3 1.22451e-13 0)
(3 1.5184e-07 0)
(2.21876 0.097889 0)
(0.854192 0.190752 0)
(0.832077 0.275788 0)
(3 3.93447e-17 0)
(3 2.6941e-16 0)
(3 9.98894e-17 0)
(3 1.52385e-16 0)
(3 -8.05585e-17 0)
(3 -1.96657e-16 0)
(3 1.91813e-16 0)
(3 3.57361e-16 0)
(3 2.17263e-16 0)
(3 5.67578e-16 0)
(3 5.73071e-16 0)
(3 1.39104e-16 0)
(3 -2.68188e-16 0)
(3 -2.37157e-16 0)
(3 1.36397e-16 0)
(3 3.86823e-16 0)
(3 4.42069e-16 0)
(3 6.62323e-16 0)
(3 4.05835e-18 0)
(3 1.0754e-16 0)
(3 7.39069e-11 0)
(2.35888 0.14564 0)
(0.870944 0.180163 0)
(0.781402 0.214454 0)
(3 4.21343e-17 0)
(3 1.66237e-16 0)
(3 3.16446e-16 0)
(3 3.69738e-16 0)
(3 5.10226e-16 0)
(3 8.62472e-16 0)
(3 1.18436e-15 0)
(3 1.16292e-15 0)
(3 1.21283e-15 0)
(3 9.91654e-16 0)
(3 4.37182e-16 0)
(3 4.08264e-16 0)
(3 4.80873e-16 0)
(3 7.01456e-16 0)
(3 9.20734e-16 0)
(3 5.96393e-16 0)
(3 5.97654e-16 0)
(3 1.27163e-15 0)
(3 1.76426e-15 0)
(3 1.85529e-15 0)
(3 1.26353e-14 0)
(2.58182 0.149232 0)
(0.921543 0.188473 0)
(0.793726 0.182514 0)
(3 1.19555e-16 0)
(3 -1.31651e-16 0)
(3 -1.77838e-16 0)
(3 -3.0615e-17 0)
(3 6.32242e-16 0)
(3 6.46824e-16 0)
(3 5.05276e-16 0)
(3 6.20853e-16 0)
(3 1.23092e-15 0)
(3 1.12109e-15 0)
(3 1.05149e-15 0)
(3 5.34541e-16 0)
(3 5.55302e-16 0)
(3 1.17744e-15 0)
(3 1.16555e-15 0)
(3 3.35798e-16 0)
(3 4.01602e-16 0)
(3 5.80736e-16 0)
(3 8.25906e-16 0)
(3 9.48053e-16 0)
(3 -7.33158e-17 0)
(2.79681 0.108341 0)
(0.99618 0.174976 0)
(0.81558 0.164321 0)
(3 4.00291e-17 0)
(3 -1.89727e-16 0)
(3 -3.85886e-17 0)
(3 4.77527e-16 0)
(3 3.9186e-16 0)
(3 4.06328e-16 0)
(3 4.42321e-16 0)
(3 3.86461e-16 0)
(3 4.36257e-16 0)
(3 7.3658e-16 0)
(3 6.40623e-16 0)
(3 -5.04505e-17 0)
(3 6.76012e-17 0)
(3 4.45627e-16 0)
(3 3.11982e-16 0)
(3 1.30557e-15 0)
(3 1.10835e-15 0)
(3 2.39294e-16 0)
(3 -9.5175e-16 0)
(3 -1.18839e-15 0)
(3 -2.20286e-15 0)
(2.90039 0.0442859 0)
(1.03661 0.138045 0)
(0.818895 0.136235 0)
(3 1.67647e-17 0)
(3 2.02839e-17 0)
(3 2.42921e-16 0)
(3 1.58607e-16 0)
(3 2.54929e-16 0)
(3 7.78139e-16 0)
(3 6.36349e-16 0)
(3 2.39304e-16 0)
(3 -2.08306e-16 0)
(3 -6.63286e-16 0)
(3 -1.39852e-15 0)
(3 -1.03115e-15 0)
(3 -1.86629e-16 0)
(3 9.50211e-17 0)
(3 -1.8801e-17 0)
(3 -4.49884e-17 0)
(3 -1.33413e-16 0)
(3 1.38356e-16 0)
(3 -7.52668e-16 0)
(3 -1.28975e-15 0)
(3 -1.55225e-15 0)
(2.92464 0.0137443 0)
(1.04391 0.11225 0)
(0.800755 0.115152 0)
(3 -7.21694e-17 0)
(3 8.56752e-17 0)
(3 -2.41453e-16 0)
(3 -6.10532e-16 0)
(3 -6.31331e-16 0)
(3 -3.44083e-16 0)
(3 -6.77527e-16 0)
(3 -8.05825e-16 0)
(3 -1.1773e-15 0)
(3 -2.10113e-15 0)
(3 -1.49004e-15 0)
(3 -8.23477e-16 0)
(3 -5.91307e-16 0)
(3 -9.61554e-16 0)
(3 -7.73894e-16 0)
(3 -1.81104e-15 0)
(3 -1.65472e-15 0)
(3 -9.99193e-16 0)
(3 -9.96127e-16 0)
(3 -1.67752e-15 0)
(3 -1.6429e-15 0)
(2.94275 0.00706053 0)
(1.05006 0.098218 0)
(0.788968 0.0892539 0)
(3 -1.44248e-16 0)
(3 -2.57025e-16 0)
(3 -3.89886e-16 0)
(3 -4.95754e-16 0)
(3 -9.64068e-16 0)
(3 -1.38843e-15 0)
(3 -1.60085e-15 0)
(3 -1.4472e-15 0)
(3 -6.8232e-16 0)
(3 -3.72637e-16 0)
(3 -5.96808e-16 0)
(3 -6.27872e-16 0)
(3 -1.06728e-15 0)
(3 -1.399e-15 0)
(3 -9.21731e-16 0)
(3 -1.28509e-15 0)
(3 -1.93517e-15 0)
(3 -2.38309e-15 0)
(3 -1.685e-15 0)
(3 -1.74797e-15 0)
(3 -1.97161e-15 0)
(2.95296 0.000638123 0)
(1.07287 0.0802245 0)
(0.797655 0.0646223 0)
(3 4.62491e-18 0)
(3 -2.42176e-17 0)
(3 -3.48319e-16 0)
(3 -6.83024e-16 0)
(3 -5.21482e-16 0)
(3 -1.12035e-15 0)
(3 -1.22724e-15 0)
(3 -1.1337e-15 0)
(3 -1.16254e-15 0)
(3 -3.5777e-16 0)
(3 3.18367e-16 0)
(3 3.18235e-16 0)
(3 -4.02221e-16 0)
(3 -8.29926e-16 0)
(3 -5.58371e-16 0)
(3 -6.16465e-17 0)
(3 -2.02839e-16 0)
(3 -6.64406e-16 0)
(3 -1.10441e-15 0)
(3 -2.46997e-15 0)
(3 -2.39035e-15 0)
(2.9818 0.0050534 0)
(1.1013 0.0495369 0)
(0.804092 0.0395006 0)
(3 1.4768e-16 0)
(3 9.54084e-17 0)
(3 -2.33601e-16 0)
(3 -2.70654e-16 0)
(3 -7.03033e-17 0)
(3 -9.82347e-17 0)
(3 -2.27827e-16 0)
(3 -1.46395e-16 0)
(3 -3.90074e-16 0)
(3 -2.40373e-16 0)
(3 7.15613e-16 0)
(3 2.87185e-16 0)
(3 4.93545e-17 0)
(3 -5.61849e-17 0)
(3 -4.24132e-17 0)
(3 2.5467e-16 0)
(3 2.57035e-16 0)
(3 7.53853e-17 0)
(3 -4.30284e-16 0)
(3 -1.10775e-15 0)
(3 -1.68146e-15 0)
(2.99858 0.000419112 0)
(1.10995 0.0121138 0)
(0.800362 0.0119781 0)
(1.55196 1.20695 0)
(1.92596 1.62413 0)
(2.06633 1.35116 0)
(2.27167 0.815766 0)
(2.57387 0.238089 0)
(2.67482 -0.0985029 0)
(2.69645 -0.176855 0)
(2.56404 -0.210441 0)
(2.34874 -0.302048 0)
(2.33997 -0.417088 0)
(2.40608 -0.368119 0)
(2.47076 -0.224363 0)
(2.46102 -0.163115 0)
(2.44024 -0.139819 0)
(2.40272 -0.0973633 0)
(2.35855 -0.06454 0)
(2.31526 -0.0495658 0)
(2.34274 -0.0474435 0)
(2.13459 0.0115435 0)
(0.995088 0.0460016 0)
(0.723082 0.0377319 0)
(0.673843 0.0229625 0)
(0.662854 0.00669688 0)
(0.688561 -0.0130973 0)
(0.723593 -0.023335 0)
(0.746002 -0.0257363 0)
(0.763146 -0.0255446 0)
(0.781518 -0.0246135 0)
(0.806066 -0.0235345 0)
(0.834803 -0.0225113 0)
(0.863489 -0.021035 0)
(0.889633 -0.0189998 0)
(0.914125 -0.0178026 0)
(0.939731 -0.0183515 0)
(0.967986 -0.019989 0)
(0.996558 -0.0219942 0)
(1.02293 -0.0220413 0)
(1.04479 -0.0195718 0)
(1.06409 -0.0161975 0)
(1.08511 -0.0139019 0)
(1.11131 -0.0132383 0)
(1.14211 -0.0137289 0)
(1.17097 -0.014419 0)
(1.19253 -0.0135347 0)
(1.20926 -0.0120016 0)
(1.22597 -0.0109836 0)
(1.24525 -0.0107097 0)
(1.26951 -0.0111077 0)
(1.29738 -0.0115523 0)
(1.32355 -0.0111017 0)
(1.34466 -0.00942785 0)
(1.36349 -0.00770497 0)
(1.383 -0.00672878 0)
(1.40578 -0.00673155 0)
(1.43086 -0.0074992 0)
(1.45198 -0.00803107 0)
(1.47056 -0.0077154 0)
(1.48834 -0.00558701 0)
(1.50643 -0.00307214 0)
(1.52586 -0.00136228 0)
(1.54949 -0.000781518 0)
(1.5737 -0.00180688 0)
(1.59192 -0.00278524 0)
(1.60904 -0.00252399 0)
(1.62397 -0.00106891 0)
(1.63707 0.00178374 0)
(1.65249 0.00378899 0)
(1.66959 0.00431299 0)
(1.69017 0.00383429 0)
(1.71185 0.00246458 0)
(1.72975 0.00160681 0)
(1.74715 0.00174188 0)
(1.76057 0.00252685 0)
(1.7693 0.00422882 0)
(1.77986 0.00556332 0)
(1.79542 0.00566887 0)
(1.81242 0.00544586 0)
(1.83116 0.00485923 0)
(1.84917 0.00455723 0)
(1.86648 0.00471849 0)
(1.8802 0.00504752 0)
(1.88599 0.0060312 0)
(1.89007 0.00699899 0)
(1.9028 0.00699654 0)
(1.91849 0.00689472 0)
(1.93544 0.00647449 0)
(1.95314 0.00622293 0)
(1.97064 0.00628805 0)
(1.98642 0.0064986 0)
(1.99628 0.00706988 0)
(1.99992 0.00838707 0)
(2.00936 0.0071016 0)
(2.02684 0.00703031 0)
(2.03708 0.00558201 0)
(2.02688 -0.00487152 0)
(1.91249 -0.0382115 0)
(1.78255 1.03247 0)
(2.28671 0.825608 0)
(2.46212 0.64762 0)
(2.60456 0.137932 0)
(2.69905 -0.320924 0)
(2.69946 -0.502022 0)
(2.76318 -0.558395 0)
(2.7593 -0.610034 0)
(2.72959 -0.585542 0)
(2.64889 -0.536595 0)
(2.55645 -0.438269 0)
(2.52437 -0.282553 0)
(2.51662 -0.216679 0)
(2.49194 -0.192246 0)
(2.46339 -0.139648 0)
(2.4331 -0.0656888 0)
(2.40725 -0.0247911 0)
(2.42348 -0.0133003 0)
(2.29821 0.105912 0)
(1.0618 0.190698 0)
(0.806095 0.0760092 0)
(0.766042 0.00683221 0)
(0.769263 -0.0147605 0)
(0.791293 -0.0336214 0)
(0.823264 -0.0465969 0)
(0.844811 -0.0477658 0)
(0.856298 -0.0423115 0)
(0.865929 -0.0364638 0)
(0.880324 -0.0335462 0)
(0.90244 -0.0338515 0)
(0.930845 -0.0342058 0)
(0.959289 -0.0292825 0)
(0.98226 -0.0191774 0)
(1.0005 -0.0119123 0)
(1.01782 -0.0132984 0)
(1.03999 -0.0215443 0)
(1.06748 -0.0314315 0)
(1.09467 -0.0330856 0)
(1.11525 -0.025224 0)
(1.1328 -0.0137279 0)
(1.15187 -0.00660833 0)
(1.17376 -0.00765078 0)
(1.20014 -0.0142773 0)
(1.22636 -0.0189968 0)
(1.24566 -0.0171205 0)
(1.26129 -0.0121579 0)
(1.2782 -0.00761496 0)
(1.29712 -0.0070346 0)
(1.32059 -0.0116133 0)
(1.34811 -0.0171062 0)
(1.37319 -0.0167202 0)
(1.39266 -0.0114116 0)
(1.41128 -0.00432902 0)
(1.42996 5.57162e-05 0)
(1.44749 -0.00183096 0)
(1.46758 -0.00909508 0)
(1.48866 -0.0135381 0)
(1.50826 -0.0127055 0)
(1.52776 -0.00764819 0)
(1.54801 0.00154847 0)
(1.56684 0.00871263 0)
(1.58315 0.0086007 0)
(1.6001 0.00258391 0)
(1.61805 -0.00437083 0)
(1.63432 -0.00652598 0)
(1.65106 -0.0044678 0)
(1.66769 0.00296261 0)
(1.6843 0.0116129 0)
(1.70074 0.0165272 0)
(1.71708 0.0157216 0)
(1.73476 0.00962481 0)
(1.75212 0.00308328 0)
(1.76806 -4.02912e-05 0)
(1.78261 0.00233529 0)
(1.79582 0.010329 0)
(1.80772 0.0184921 0)
(1.82124 0.0214625 0)
(1.8376 0.0199953 0)
(1.85597 0.0136084 0)
(1.87295 0.0079302 0)
(1.88842 0.00512309 0)
(1.90035 0.00692756 0)
(1.9076 0.0155823 0)
(1.91376 0.0235319 0)
(1.92642 0.0241628 0)
(1.94291 0.0215078 0)
(1.96152 0.0153479 0)
(1.97868 0.0115987 0)
(1.99572 0.00995561 0)
(2.01017 0.0116421 0)
(2.01749 0.0203918 0)
(2.02011 0.0234207 0)
(2.03028 0.0182539 0)
(2.02688 0.00114898 0)
(1.99201 -0.0487603 0)
(1.88644 -0.14095 0)
(1.66069 1.04267 0)
(2.071 0.843307 0)
(2.33685 0.635951 0)
(2.48842 0.465009 0)
(2.60346 0.14309 0)
(2.64374 -0.113556 0)
(2.68759 -0.174278 0)
(2.7679 -0.170738 0)
(2.8224 -0.272692 0)
(2.76578 -0.430099 0)
(2.73256 -0.453368 0)
(2.68852 -0.462595 0)
(2.65609 -0.439854 0)
(2.65521 -0.390133 0)
(2.63742 -0.309901 0)
(2.61695 -0.217027 0)
(2.61876 -0.178653 0)
(2.59205 -0.0855389 0)
(2.6071 -0.0862031 0)
(1.40677 0.201817 0)
(1.01161 0.0975725 0)
(0.998134 -0.00657667 0)
(1.0203 -0.0176841 0)
(1.02055 -0.020817 0)
(1.02893 -0.0331589 0)
(1.04221 -0.0489857 0)
(1.04831 -0.0546764 0)
(1.05088 -0.0536105 0)
(1.05238 -0.0490239 0)
(1.05987 -0.0475798 0)
(1.07619 -0.0510469 0)
(1.10154 -0.0580829 0)
(1.12576 -0.060646 0)
(1.1399 -0.0573692 0)
(1.1492 -0.0504692 0)
(1.16047 -0.0444299 0)
(1.17418 -0.0445382 0)
(1.19499 -0.0504054 0)
(1.21892 -0.0537764 0)
(1.23757 -0.0494913 0)
(1.25179 -0.041175 0)
(1.26721 -0.0327674 0)
(1.28495 -0.0296868 0)
(1.30448 -0.0325421 0)
(1.32482 -0.0369518 0)
(1.34294 -0.0371697 0)
(1.3585 -0.0338951 0)
(1.37458 -0.0284193 0)
(1.39225 -0.0244648 0)
(1.41193 -0.0248014 0)
(1.43501 -0.0285535 0)
(1.45758 -0.0289258 0)
(1.47559 -0.0256989 0)
(1.49144 -0.0210721 0)
(1.50442 -0.0145858 0)
(1.51842 -0.0117327 0)
(1.53478 -0.0133713 0)
(1.55381 -0.0171916 0)
(1.57604 -0.0171353 0)
(1.59675 -0.0122471 0)
(1.61405 -0.00623387 0)
(1.62696 0.00248625 0)
(1.63666 0.00739917 0)
(1.65001 0.00562973 0)
(1.66595 0.00144636 0)
(1.6842 -0.00180266 0)
(1.70288 -0.000324117 0)
(1.72062 0.00484234 0)
(1.73688 0.0127236 0)
(1.74879 0.0213005 0)
(1.75806 0.0237691 0)
(1.77216 0.0192547 0)
(1.78966 0.0128609 0)
(1.80718 0.00832785 0)
(1.82398 0.00833463 0)
(1.84023 0.0141097 0)
(1.85319 0.0245695 0)
(1.86183 0.0321206 0)
(1.87306 0.0309017 0)
(1.88869 0.0246329 0)
(1.90477 0.0168611 0)
(1.91982 0.0126897 0)
(1.93475 0.0138712 0)
(1.94655 0.0227852 0)
(1.95271 0.0346573 0)
(1.96058 0.0388132 0)
(1.97569 0.0360517 0)
(1.99265 0.0299531 0)
(2.00975 0.0242848 0)
(2.02658 0.0215681 0)
(2.04077 0.0243048 0)
(2.0437 0.0239295 0)
(2.03229 0.0069786 0)
(2.00499 -0.0263479 0)
(1.9244 -0.106838 0)
(1.83798 -0.199635 0)
(1.59493 0.994046 0)
(1.88889 0.889986 0)
(2.16731 0.681554 0)
(2.34577 0.531603 0)
(2.4244 0.412403 0)
(2.53402 0.170846 0)
(2.62196 -0.0488392 0)
(2.67831 -0.165448 0)
(2.74065 -0.234322 0)
(2.78073 -0.342252 0)
(2.74821 -0.42443 0)
(2.73093 -0.471373 0)
(2.73368 -0.476138 0)
(2.74785 -0.475277 0)
(2.75284 -0.435175 0)
(2.73686 -0.384001 0)
(2.71328 -0.367696 0)
(2.67061 -0.278092 0)
(2.58748 -0.350649 0)
(2.0854 -0.118207 0)
(1.23687 0.0916221 0)
(1.20877 0.0484076 0)
(1.25208 -0.0140231 0)
(1.24709 -0.0362804 0)
(1.23992 -0.045246 0)
(1.24074 -0.05109 0)
(1.24378 -0.0558694 0)
(1.24514 -0.0554692 0)
(1.24296 -0.0494987 0)
(1.24355 -0.0411421 0)
(1.25113 -0.036384 0)
(1.26571 -0.0366454 0)
(1.28612 -0.0450359 0)
(1.29986 -0.0512124 0)
(1.30715 -0.051612 0)
(1.31212 -0.0462538 0)
(1.31902 -0.0379376 0)
(1.33094 -0.0328155 0)
(1.34795 -0.0328634 0)
(1.36686 -0.035537 0)
(1.38091 -0.0350397 0)
(1.39285 -0.0311137 0)
(1.40475 -0.0246128 0)
(1.41848 -0.0212164 0)
(1.4336 -0.02165 0)
(1.45026 -0.0250623 0)
(1.46602 -0.0272582 0)
(1.48 -0.0270264 0)
(1.49402 -0.023903 0)
(1.50959 -0.0192527 0)
(1.52786 -0.01534 0)
(1.54711 -0.0150169 0)
(1.56241 -0.0164452 0)
(1.57635 -0.0171068 0)
(1.58764 -0.015091 0)
(1.59669 -0.0101528 0)
(1.61012 -0.00568351 0)
(1.627 -0.00235754 0)
(1.6469 0.000414912 0)
(1.66591 0.000387528 0)
(1.68226 0.000134662 0)
(1.69541 0.00228501 0)
(1.70181 0.00800391 0)
(1.70932 0.0129594 0)
(1.72372 0.015105 0)
(1.73949 0.0160116 0)
(1.75718 0.0145138 0)
(1.77411 0.0117783 0)
(1.79 0.0101079 0)
(1.80247 0.0108462 0)
(1.81043 0.0160432 0)
(1.82011 0.0225373 0)
(1.83421 0.0259691 0)
(1.85042 0.0266092 0)
(1.86708 0.0259151 0)
(1.88321 0.0244737 0)
(1.89712 0.0245424 0)
(1.90602 0.0279973 0)
(1.91218 0.0325666 0)
(1.92243 0.0339759 0)
(1.93711 0.0331686 0)
(1.95301 0.0316282 0)
(1.96896 0.0292856 0)
(1.98408 0.0284778 0)
(1.99436 0.0325802 0)
(1.99855 0.0408553 0)
(2.00595 0.044958 0)
(2.01946 0.0446129 0)
(2.03557 0.0420382 0)
(2.05102 0.0396599 0)
(2.06173 0.0326167 0)
(2.05344 0.00868519 0)
(2.02544 -0.0335572 0)
(1.96283 -0.102134 0)
(1.87495 -0.169542 0)
(1.84178 -0.215016 0)
(1.56009 0.931703 0)
(1.78402 0.868876 0)
(2.00919 0.737879 0)
(2.19951 0.58143 0)
(2.32534 0.448646 0)
(2.38946 0.349656 0)
(2.44067 0.223022 0)
(2.56508 0.0589447 0)
(2.63333 -0.0897876 0)
(2.66813 -0.161857 0)
(2.68918 -0.174838 0)
(2.66635 -0.21028 0)
(2.69239 -0.30956 0)
(2.70784 -0.372119 0)
(2.74552 -0.383497 0)
(2.76751 -0.388614 0)
(2.72529 -0.462844 0)
(2.67197 -0.513004 0)
(2.51904 -0.622163 0)
(2.38551 -0.767574 0)
(1.6536 -0.211027 0)
(1.34414 0.00254916 0)
(1.3343 0.0213788 0)
(1.35421 -0.00187595 0)
(1.359 -0.0229625 0)
(1.35862 -0.0358371 0)
(1.3641 -0.0464933 0)
(1.37145 -0.0541325 0)
(1.37579 -0.0552323 0)
(1.37802 -0.0525643 0)
(1.38359 -0.0493348 0)
(1.39246 -0.0487435 0)
(1.40609 -0.0525075 0)
(1.42073 -0.0586487 0)
(1.42902 -0.0601841 0)
(1.43523 -0.0589093 0)
(1.44004 -0.0537486 0)
(1.44889 -0.0496044 0)
(1.46127 -0.0468204 0)
(1.47704 -0.0453863 0)
(1.49161 -0.0438299 0)
(1.50344 -0.0416422 0)
(1.51428 -0.0377787 0)
(1.52472 -0.0339183 0)
(1.53737 -0.0325829 0)
(1.55095 -0.0325498 0)
(1.56518 -0.0331854 0)
(1.57857 -0.0333909 0)
(1.59171 -0.0312604 0)
(1.60592 -0.0267062 0)
(1.62153 -0.0221649 0)
(1.6356 -0.02043 0)
(1.64879 -0.0200317 0)
(1.66066 -0.0196042 0)
(1.66989 -0.0188118 0)
(1.67786 -0.0156702 0)
(1.69059 -0.0106925 0)
(1.70696 -0.00563067 0)
(1.72421 -0.000883158 0)
(1.74024 0.00119719 0)
(1.75504 0.00279472 0)
(1.76658 0.00434319 0)
(1.7722 0.00721216 0)
(1.77825 0.0122353 0)
(1.79151 0.0162658 0)
(1.80685 0.0192166 0)
(1.82249 0.0214644 0)
(1.8378 0.022772 0)
(1.85181 0.0232595 0)
(1.86278 0.0232285 0)
(1.87044 0.024379 0)
(1.87904 0.0272712 0)
(1.89182 0.0304475 0)
(1.90671 0.0332698 0)
(1.92169 0.0355993 0)
(1.93581 0.0371445 0)
(1.94778 0.0374154 0)
(1.95587 0.0375928 0)
(1.96067 0.039155 0)
(1.96861 0.0411476 0)
(1.98213 0.0424691 0)
(1.99718 0.0429001 0)
(2.01247 0.0430574 0)
(2.02725 0.0433309 0)
(2.03932 0.0441516 0)
(2.04457 0.048942 0)
(2.04567 0.055752 0)