/*--------------------------------*- C++ -*----------------------------------*\
  =========                 |
  \\      /  F ield         | OpenFOAM: The Open Source CFD Toolbox
   \\    /   O peration     | Website:  https://openfoam.org
    \\  /    A nd           | Version:  7
     \\/     M anipulation  |
\*---------------------------------------------------------------------------*/
FoamFile
{
    version     2.0;
    format      ascii;
    class       volScalarField;
    location    "9.5";
    object      p;
}
// * * * * * * * * * * * * * * * * * * * * * * * * * * * * * * * * * * * * * //

dimensions      [1 -1 -2 0 0 0 0];

internalField   nonuniform List<scalar> 
4032
(
1
1
1
1
1
1
1
1
1
1
1
1.32894
7.58922
10.6075
10.7408
10.9498
11.1351
11.3118
11.4742
11.6204
11.7507
11.8559
11.9365
11.9959
1
1
1
1
1
1
1
1
1
1
1
1.29
7.42536
10.5739
10.7281
10.9311
11.1127
11.2847
11.442
11.5814
11.7037
11.8011
11.8727
11.929
1
1
1
1
1
1
1
1
1
1
1
1.18657
7.12478
10.5451
10.6867
10.888
11.0697
11.2402
11.3946
11.529
11.6436
11.732
11.7898
11.8374
1
1
1
1
1
1
1
1
1
1
1
1.01646
6.62463
10.4936
10.6335
10.821
10.9925
11.151
11.2961
11.4242
11.5353
11.6198
11.6682
11.7053
1
1
1
1
1
1
1
1
1
1
1
1.00019
5.95148
10.3164
10.5001
10.6846
10.8596
11.0164
11.1557
11.2704
11.3599
11.4257
11.4595
11.5078
1
1
1
1
1
1
1
1
1
1
1
0.999999
5.10696
10.0852
10.3888
10.5577
10.7245
10.8635
10.9821
11.08
11.1579
11.2173
11.229
11.1886
1
1
1
1
1
1
1
1
1
1
1
1
4.13831
9.73027
10.2719
10.4287
10.5727
10.6815
10.7646
10.8238
10.8441
10.8075
10.7384
10.6935
1
1
1
1
1
1
1
1
1
1
1
1
3.09182
9.18033
10.1846
10.3219
10.4358
10.5087
10.5421
10.5456
10.4986
10.4197
10.2902
10.2753
1
1
1
1
1
1
1
1
1
1
1
1
2.00803
8.31808
10.1424
10.1968
10.2872
10.3273
10.3123
10.2516
10.1058
9.83801
9.0593
7.16785
1
1
1
1
1
1
1
1
1
1
1
1
1.12719
7.18191
10.1927
10.0911
10.0869
10.0744
10.0176
9.89253
9.65276
9.17957
8.37586
6.32016
1
1
1
1
1
1
1
1
1
1
1
1
1.00156
5.57143
9.58969
9.72452
9.7871
9.76311
9.68826
9.51471
9.21739
8.65388
7.82613
5.89259
1
1
1
1
1
1
1
1
1
1
1
1
0.999977
3.70029
9.00943
9.59132
9.61833
9.55334
9.43351
9.20538
8.84737
8.27416
7.37404
5.80354
1
1
1
1
1
1
1
1
1
1
1
1
0.999994
1.96645
8.05121
9.53171
9.44174
9.33095
9.17187
8.90864
8.51453
7.95517
7.05951
5.83012
1
1
1
1
1
1
1
1
1
1
1
1
0.999999
1.09682
6.29014
9.20274
9.18936
9.08982
8.92116
8.65005
8.26166
7.70068
6.87909
5.91887
1
1
1
1
1
1
1
1
1
1
1
1
1
1.00051
3.84011
8.61038
9.04102
8.93609
8.74879
8.44028
8.05573
7.48755
6.77262
5.98785
1
1
1
1
1
1
1
1
1
1
1
1
1
0.999994
1.62343
7.63858
9.07562
8.79632
8.55692
8.24584
7.83491
7.33105
6.72252
6.05642
1
1
1
1
1
1
1
1
1
1
1
1
1
0.999999
1.034
5.60678
8.64711
8.45886
8.2934
8.02467
7.65889
7.20973
6.67986
6.09865
1
1
1
1
1
1
1
1
1
1
1
1
1
1
0.999971
2.80255
7.90843
8.35035
8.20238
7.93754
7.58149
7.14673
6.65241
6.1315
1
1
1
1
1
1
1
1
1
1
1
1
1
1
0.999988
1.22782
6.07957
8.30187
8.1187
7.83631
7.48449
7.07662
6.62402
6.14735
1
1
1
1
1
1
1
1
1
1
1
1
1
1
0.999998
1.004
3.23303
7.60673
7.99537
7.71508
7.39292
7.01489
6.59505
6.14824
1
1
1
1
1
1
1
1
1
1
1
1
1
1
1
1
1.33984
5.98694
7.96341
7.65831
7.34604
6.97086
6.56073
6.14478
1
1
1
1
1
1
1
1
1
1
1
1
1
1
1
1
1.00925
3.11433
7.2438
7.57918
7.25039
6.88387
6.49993
6.19008
1
1
1
1
1
1
1
1
1
1
1
1
1
1
1
1
1.00003
1.30958
5.4868
7.61046
7.16583
6.82991
6.58223
6.66773
1
1
1
1
1
1
1
1
1
1
1
1
1
1
1
1
1
1.008
2.52733
6.69343
6.98895
6.82268
7.07175
7.66542
1
1
1
1
1
1
1
1
1
1
1
1
1
1
1
1
1
1.00004
1.16595
4.49147
6.72054
7.58342
8.35571
8.72504
1
1
1
1
1
1
1
1
1
1
1
1
1
1
1
1
1
1
1.00302
1.83944
5.67387
8.97946
9.45371
9.29168
1
1
1
1
1
1
1
1
1
1
1
1
1
1
1
1
1
1
1.00001
1.05201
4.45386
10.0646
10.1375
9.57532
1
1
1
1
1
1
1
1
1
1
1
1
1
1
1
1
1
1
1
1.00054
3.3063
10.2522
10.4375
9.83159
1
1
1
1
1
1
1
1
1
1
1
1
1
1
1
1
1
1
1
1
2.93162
9.73902
10.3048
9.81557
1
1
1
1
1
1
1
1
1
1
1
1
1
1
1
1
1
1
1
1
2.49857
8.99693
10.2604
9.93855
1
1
1
1
1
1
1
1
1
1
1
1
1
1
1
1
1
1
1
1
1.96624
8.47661
10.3433
9.9581
1
1
1
1
1
1
1
1
1
1
1
1
1
1
1
1
1
1
1
1
1.48808
7.9206
10.3772
10.0286
1
1
1
1
1
1
1
1
1
1
1
1
1
1
1
1
1
1
1
1
1.19342
7.40756
10.3901
10.0457
1
1
1
1
1
1
1
1
1
1
1
1
1
1
1
1
1
1
1
1
1.03835
6.93752
10.352
10.0601
1
1
1
1
1
1
1
1
1
1
1
1
1
1
1
1
1
1
1
1
1.00088
6.44867
10.2754
10.0803
1
1
1
1
1
1
1
1
1
1
1
1
1
1
1
1
1
1
1
1
1
6.02745
10.2148
10.1179
1
1
1
1
1
1
1
1
1
1
1
1
1
1
1
1
1
1
1
1
1
5.64221
10.1761
10.1659
1
1
1
1
1
1
1
1
1
1
1
1
1
1
1
1
1
1
1
1
1
5.34182
10.1601
10.2056
1
1
1
1
1
1
1
1
1
1
1
1
1
1
1
1
1
1
1
1
1
5.14298
10.1448
10.2251
1
1
1
1
1
1
1
1
1
1
1
1
1
1
1
1
1
1
1
1
1
5.05787
10.1216
10.229
1.56374
0.465414
0.193594
0.144194
0.160833
0.227981
0.368953
0.537995
0.704756
0.79588
0.849635
0.904259
1.03884
1.18038
1.73543
4.31383
4.853
4.94385
5.15837
5.30333
5.33141
5.30949
5.30602
5.33165
5.36057
5.36965
5.37048
5.37667
5.37729
5.34603
5.29554
5.25233
5.23027
5.22698
5.21783
5.17708
5.11508
5.06085
5.03008
5.01988
5.01123
4.96643
4.88316
4.7982
4.73563
4.7042
4.68564
4.64675
4.57892
4.50182
4.43125
4.37777
4.34386
4.31544
4.2643
4.18609
4.10536
4.03046
3.96715
3.92194
3.88478
3.8237
3.75336
3.68007
3.60816
3.54674
3.4918
3.44442
3.40918
3.37033
3.32031
3.26928
3.21518
3.15603
3.0942
3.03861
2.99144
2.94761
2.90442
2.85918
2.81373
2.76909
2.72461
2.71139
2.79226
3.45868
4.60522
4.67106
4.5448
4.4966
4.45186
4.40334
4.3676
4.34676
4.34556
4.37247
2.75949
1.41816
0.954193
0.687225
0.510702
0.478949
0.508578
0.532491
0.535778
0.565135
0.618368
0.693304
0.790515
0.896757
1.29853
3.88279
4.85945
5.00856
5.21654
5.33657
5.33854
5.34216
5.35314
5.37078
5.36614
5.34361
5.32915
5.34124
5.36605
5.36249
5.3063
5.24046
5.19341
5.18053
5.18809
5.18804
5.14951
5.07944
5.01229
4.96641
4.94497
4.92909
4.89313
4.82839
4.75593
4.69542
4.64848
4.60748
4.56088
4.50265
4.43701
4.37392
4.32184
4.28255
4.2462
4.18641
4.10953
4.03177
3.96344
3.9092
3.86978
3.82113
3.75675
3.68917
3.61511
3.5445
3.48692
3.43545
3.39261
3.35354
3.30661
3.2574
3.20662
3.15276
3.09818
3.04791
3.00088
2.95347
2.90431
2.85307
2.80498
2.7651
2.74515
2.7661
2.90881
3.4841
4.55241
4.62797
4.49922
4.44903
4.43505
4.42137
4.39395
4.35946
4.33296
4.33489
3.64512
2.33295
1.67613
1.31714
0.998421
0.751197
0.670808
0.648375
0.625679
0.606954
0.6248
0.678139
0.710073
0.736634
0.861613
3.04008
5.01126
5.28129
5.3697
5.3497
5.28064
5.29641
5.36137
5.42811
5.42498
5.37023
5.31668
5.29171
5.31224
5.34759
5.3485
5.29117
5.22124
5.16643
5.14306
5.1505
5.16491
5.14913
5.08124
4.99963
4.92621
4.87553
4.85393
4.84171
4.80713
4.74253
4.66876
4.59857
4.5404
4.49292
4.45175
4.40645
4.34748
4.28596
4.23144
4.17758
4.11434
4.04689
3.97757
3.91423
3.86069
3.80843
3.75029
3.69166
3.62759
3.55665
3.4961
3.44503
3.39889
3.35369
3.30519
3.25427
3.19737
3.13323
3.07644
3.03581
2.99876
2.95989
2.91532
2.86465
2.81089
2.77813
2.78505
2.85734
3.06222
3.45775
4.36938
4.61183
4.5052
4.43613
4.40607
4.40869
4.42242
4.4105
4.37211
4.32427
4.27436
3.12628
2.33324
1.90275
1.59244
1.27149
0.977626
0.895595
0.886297
0.845753
0.782813
0.726506
0.69444
0.700865
0.717414
1.70227
4.74112
5.47979
5.47141
5.42865
5.34809
5.33131
5.35486
5.41218
5.44855
5.42846
5.37733
5.3295
5.29794
5.2944
5.31147
5.31388
5.26899
5.20709
5.15223
5.1107
5.09365
5.10103
5.08578
5.02217
4.94514
4.87557
4.82585
4.79926
4.78464
4.74101
4.66962
4.59397
4.52495
4.46506
4.41788
4.38452
4.34236
4.28182
4.21978
4.15865
4.09612
4.03324
3.97135
3.91096
3.84998
3.79005
3.73297
3.67711
3.61805
3.55006
3.47932
3.42506
3.38184
3.34245
3.30125
3.25955
3.21262
3.15175
3.07892
3.01724
2.97369
2.9355
2.89709
2.86356
2.83775
2.82797
2.86842
3.02783
3.24704
3.44401
3.99694
4.53605
4.55106
4.43994
4.36984
4.34894
4.36923
4.39563
4.39202
4.36446
4.67889
3.754
2.9544
2.38802
2.06459
1.77876
1.49209
1.22319
1.06269
1.01997
0.964261
0.890188
0.814813
0.818077
0.883916
1.0743
3.14126
5.36366
5.53917
5.51
5.44346
5.42049
5.40679
5.39768
5.4206
5.45274
5.44052
5.39899
5.34649
5.30095
5.27388
5.27834
5.28108
5.24697
5.19323
5.13756
5.09177
5.06674
5.05209
5.00654
4.95031
4.89056
4.83971
4.80226
4.77644
4.72904
4.66519
4.5965
4.52692
4.46771
4.41766
4.37931
4.33151
4.27645
4.21771
4.15397
4.09041
4.03023
3.9715
3.91014
3.84573
3.78208
3.72497
3.67225
3.6191
3.55898
3.48975
3.41984
3.36358
3.31993
3.28106
3.24256
3.20301
3.15553
3.09438
3.02369
2.96295
2.9167
2.88079
2.86631
2.87232
2.91796
3.04821
3.27666
3.43069
3.44452
3.6578
4.1548
4.50177
4.50139
4.41524
4.35841
4.34092
4.35155
4.37264
4.37171
4.99952
4.20344
3.49774
2.90047
2.46734
2.13476
1.8795
1.64578
1.40607
1.20802
1.14356
1.13324
1.12572
1.14743
1.3022
1.43456
1.80675
3.83235
5.24667
5.6371
5.65651
5.56071
5.47772
5.42549
5.41104
5.44469
5.4699
5.44156
5.38718
5.31818
5.27281
5.25152
5.26578
5.25035
5.19856
5.14163
5.08958
5.04656
5.02157
4.98771
4.93942
4.88206
4.83174
4.79209
4.75702
4.70613
4.64648
4.58093
4.50883
4.44972
4.40506
4.36184
4.31243
4.25965
4.20002
4.13437
4.07102
4.01388
3.95788
3.89856
3.8339
3.76671
3.70385
3.64962
3.59938
3.54828
3.49079
3.42592
3.36077
3.30794
3.26545
3.22711
3.18818
3.14475
3.09073
3.02182
2.95084
2.89816
2.88068
2.89386
2.95088
3.07694
3.31565
3.50169
3.56918
3.49818
3.50619
3.74352
4.16736
4.45224
4.46748
4.41837
4.34288
4.317
4.32673
4.35213
5.21524
4.52677
3.88059
3.31468
2.86773
2.50507
2.1531
1.9221
1.72567
1.52069
1.41254
1.47227
1.52222
1.56466
1.77085
1.84849
1.86005
2.22227
3.84643
5.24632
5.84399
5.78022
5.59252
5.45669
5.42965
5.44948
5.49603
5.47524
5.41981
5.33194
5.27811
5.24799
5.25887
5.25812
5.21105
5.14973
5.08299
5.03459
4.99839
4.97414
4.93655
4.88862
4.83202
4.78474
4.7399
4.68672
4.62879
4.56691
4.50099
4.44069
4.39028
4.3426
4.29458
4.24248
4.18303
4.11761
4.05343
3.99518
3.94022
3.88418
3.82375
3.75753
3.69042
3.63024
3.57848
3.53005
3.48048
3.42504
3.36373
3.30192
3.25026
3.20841
3.16947
3.12827
3.0788
3.01901
2.94771
2.90363
2.90728
2.96641
3.10085
3.30772
3.56966
3.64037
3.64646
3.57103
3.49335
3.53782
3.76129
4.1234
4.38617
4.45592
4.42449
4.34335
4.31209
4.31852
5.3771
4.77051
4.19233
3.6383
3.1722
2.82124
2.48586
2.19149
2.00511
1.86471
1.88777
2.06297
2.07325
2.08666
2.1789
2.21439
2.14589
2.13435
2.46378
3.87769
5.33833
5.87324
5.77308
5.58049
5.46909
5.4558
5.49999
5.49041
5.43424
5.34129
5.27381
5.23916
5.23758
5.24529
5.20472
5.1474
5.07116
5.01551
4.97518
4.95139
4.92369
4.88278
4.82683
4.76606
4.71543
4.66101
4.60399
4.54679
4.48824
4.42754
4.37016
4.3198
4.27127
4.21918
4.16128
4.0972
4.03138
3.971
3.91644
3.86347
3.80771
3.74575
3.67746
3.61109
3.55525
3.5085
3.4641
3.41733
3.36323
3.30128
3.23846
3.18557
3.14163
3.10015
3.05627
3.01272
2.96521
2.95152
2.99074
3.13257
3.32537
3.53921
3.70601
3.7118
3.68967
3.63369
3.54092
3.4912
3.54303
3.74616
4.06032
4.31929
4.44688
4.41252
4.3449
4.30561
5.50407
4.93421
4.4226
3.90679
3.42772
3.05826
2.79435
2.57213
2.4596
2.4344
2.54027
2.66469
2.60729
2.5076
2.49412
2.49555
2.46721
2.34656
2.37281
2.6539
3.89079
5.32979
5.82161
5.74935
5.58227
5.48177
5.48542
5.49649
5.44745
5.36784
5.2851
5.24284
5.22292
5.22484
5.19059
5.13937
5.06525
4.99932
4.95756
4.93062
4.90457
4.8647
4.81081
4.74252
4.68676
4.63457
4.5821
4.52945
4.47302
4.40966
4.34726
4.29485
4.24609
4.19541
4.13991
4.07689
4.00823
3.94392
3.88936
3.83961
3.78877
3.73234
3.66705
3.59668
3.53385
3.48451
3.44231
3.39988
3.35279
3.29709
3.23361
3.16961
3.11682
3.06987
3.0367
3.01504
3.01277
3.05513
3.19806
3.41815
3.57531
3.6935
3.74371
3.74029
3.70619
3.66534
3.60365
3.51676
3.49303
3.53053
3.71185
4.00714
4.26924
4.39794
4.3866
4.33427
5.59396
5.06242
4.5795
4.12193
3.69086
3.35847
3.21697
3.19622
3.14507
3.21306
3.22262
3.15591
3.05237
2.87551
2.81047
2.79007
2.77824
2.71161
2.56479
2.59141
2.80942
3.87034
5.26428
5.74496
5.68546
5.56134
5.49323
5.50357
5.46786
5.40417
5.3189
5.25959
5.22291
5.20628
5.17621
5.1293
5.0642
4.99017
4.94405
4.91191
4.88092
4.83922
4.78494
4.71481
4.65593
4.60701
4.55923
4.50895
4.45203
4.3847
4.31809
4.26459
4.21625
4.16712
4.11402
4.0529
3.98258
3.91373
3.85815
3.81093
3.76439
3.71395
3.65533
3.58722
3.51749
3.45957
3.41353
3.37159
3.32874
3.28179
3.22472
3.16117
3.09716
3.04795
3.03207
3.0489
3.1117
3.25797
3.52885
3.71312
3.76488
3.76418
3.74836
3.74023
3.71144
3.67998
3.64516
3.58204
3.5085
3.49443
3.52412
3.68145
3.95353
4.20336
4.33729
4.33894
5.65438
5.15671
4.71646
4.35331
4.04977
3.90005
3.98367
3.97508
3.79639
3.79404
3.69544
3.52691
3.42353
3.23817
3.16483
3.12919
3.05442
3.01616
2.89744
2.74459
2.76687
2.95728
3.85325
5.08976
5.59539
5.61736
5.53767
5.52063
5.49587
5.43214
5.35844
5.27762
5.22767
5.1915
5.16098
5.1166
5.06137
4.98901
4.93504
4.89812
4.8597
4.81349
4.75635
4.68737
4.62782
4.58116
4.53627
4.48717
4.42873
4.35701
4.28668
4.23191
4.18351
4.13507
4.08358
4.02466
3.95503
3.88377
3.82639
3.7797
3.73514
3.68865
3.63656
3.57553
3.50678
3.44136
3.38674
3.34023
3.29769
3.25517
3.20648
3.15061
3.09429
3.0623
3.07543
3.15906
3.32536
3.54784
3.80273
3.86951
3.86394
3.81276
3.75692
3.7291
3.70699
3.688
3.66502
3.6316
3.57227
3.50954
3.49819
3.52309
3.64484
3.8913
4.12573
4.276
5.6978
5.2563
4.92684
4.79619
4.7434
4.73131
4.82208
4.66017
4.32179
4.20131
4.07618
3.88165
3.78451
3.60776
3.49737
3.46636
3.34669
3.27851
3.21028
3.05179
2.93415
2.95888
3.09333
3.74897
4.83975
5.44915
5.5394
5.54816
5.54341
5.46707
5.38903
5.29583
5.22826
5.18212
5.14309
5.09775
5.04709
4.98191
4.92482
4.88365
4.83883
4.7866
4.72546
4.65707
4.59717
4.55201
4.50919
4.46108
4.4018
4.32788
4.25411
4.19585
4.14598
4.09748
4.04717
3.99077
3.92465
3.85519
3.79596
3.74662
3.70045
3.65449
3.60618
3.553
3.49298
3.42967
3.3687
3.31201
3.26159
3.21872
3.17626
3.14061
3.12021
3.13594
3.22599
3.4269
3.60732
3.78429
3.90844
3.92638
3.90726
3.85867
3.79153
3.7337
3.70451
3.68697
3.67536
3.65443
3.62246
3.57018
3.51249
3.49925
3.52394
3.60948
3.80489
4.09492
5.79051
5.52512
5.51885
5.66586
5.56175
5.44162
5.35724
5.09255
4.72986
4.53697
4.45686
4.27798
4.14103
3.965
3.80515
3.76002
3.64637
3.53913
3.47685
3.34279
3.21471
3.126
3.10302
3.16195
3.61524
4.58555
5.25178
5.46046
5.57038
5.51409
5.41757
5.30463
5.22292
5.1731
5.12666
5.07608
5.02306
4.9604
4.90637
4.86289
4.81394
4.7579
4.6949
4.62439
4.56229
4.51764
4.47506
4.42745
4.36985
4.29885
4.22378
4.15968
4.10617
4.05669
4.00704
3.95302
3.89149
3.82693
3.76843
3.71647
3.66676
3.61776
3.56852
3.51837
3.46551
3.40988
3.35162
3.29293
3.23332
3.18575
3.15441
3.15899
3.20334
3.31992
3.56325
3.76775
3.85056
3.9085
3.92362
3.93515
3.91687
3.88319
3.83832
3.77402
3.71938
3.6923
3.67626
3.66658
3.64606
3.61486
3.56556
3.50996
3.4947
3.51472
3.56677
3.82128
6.10662
6.21905
6.48094
6.48344
6.17786
5.93103
5.71235
5.4428
5.11121
4.89032
4.81422
4.67488
4.48245
4.28972
4.11045
4.04068
3.93774
3.79915
3.72644
3.60541
3.4643
3.37715
3.26829
3.19484
3.22087
3.51355
4.30822
5.03246
5.39073
5.51336
5.44738
5.31754
5.21801
5.16277
5.10947
5.0595
5.00236
4.93231
4.87641
4.82987
4.77819
4.72254
4.66221
4.59079
4.52363
4.47554
4.4309
4.38359
4.33013
4.26575
4.19323
4.12451
4.06586
4.01354
3.96283
3.90998
3.85228
3.79304
3.73828
3.68767
3.63722
3.58465
3.53004
3.47549
3.42271
3.37228
3.32255
3.2713
3.22366
3.17801
3.17982
3.2457
3.39967
3.63048
3.91723
4.00115
3.99556
3.95676
3.924
3.91581
3.91282
3.89362
3.86555
3.82251
3.75825
3.71215
3.68825
3.67286
3.66115
3.63873
3.60684
3.5561
3.49864
3.48063
3.49532
3.60612
6.98516
7.20678
7.2629
6.91772
6.54985
6.28734
6.05399
5.82241
5.51181
5.25377
5.13853
5.03153
4.82064
4.59144
4.41457
4.32579
4.22672
4.06239
3.95407
3.84567
3.69766
3.60616
3.50309
3.37526
3.27828
3.26723
3.42596
4.03122
4.78134
5.28051
5.38089
5.30815
5.23213
5.16245
5.09598
5.04678
4.9887
4.90562
4.83892
4.78743
4.73354
4.68097
4.62588
4.55763
4.48586
4.43071
4.3814
4.33124
4.27834
4.2202
4.15643
4.09139
4.03097
3.97514
3.92004
3.86369
3.80653
3.75203
3.70285
3.65686
3.61007
3.55693
3.49492
3.43239
3.37806
3.3311
3.28565
3.25495
3.23554
3.24037
3.30702
3.49428
3.6985
3.92813
4.0862
4.09493
4.07451
4.00067
3.94215
3.91909
3.90655
3.90117
3.88067
3.84861
3.79792
3.74169
3.71132
3.69031
3.67528
3.65678
3.63127
3.59468
3.53569
3.4793
3.46279
3.49314
7.92604
7.96373
7.69625
7.20178
6.86414
6.63062
6.39058
6.16318
5.87869
5.60066
5.43977
5.3344
5.14625
4.89272
4.70589
4.60257
4.49907
4.33474
4.16424
4.06373
3.92476
3.81699
3.72508
3.5966
3.46067
3.32884
3.32999
3.41063
3.80359
4.52259
5.05621
5.1596
5.19741
5.17671
5.12476
5.05841
4.97804
4.87687
4.7915
4.73515
4.68503
4.63786
4.5881
4.52508
4.45317
4.38616
4.32646
4.27114
4.21721
4.16305
4.11118
4.05555
3.99757
3.94009
3.87971
3.81435
3.7521
3.70343
3.66125
3.61984
3.57674
3.52518
3.45722
3.38711
3.32958
3.28941
3.26714
3.27038
3.31185
3.40636
3.62801
3.84143
3.96359
4.07484
4.1289
4.12632
4.10032
4.04531
3.97749
3.93747
3.91601
3.9045
3.88877
3.8629
3.82827
3.7799
3.73967
3.71591
3.6942
3.67185
3.64745
3.61793
3.57504
3.51374
3.46922
3.45722
8.55979
8.35157
7.95974
7.47925
7.21079
7.01275
6.73808
6.4589
6.21283
5.95165
5.75456
5.62692
5.45442
5.19497
4.98608
4.87541
4.76384
4.60374
4.39535
4.26334
4.15377
4.02347
3.92349
3.80352
3.66336
3.51096
3.37504
3.35836
3.39619
3.64007
4.21197
4.74273
4.97718
5.09377
5.13798
5.09029
4.98364
4.85662
4.75095
4.68433
4.63976
4.59762
4.55232
4.49344
4.41477
4.34236
4.28093
4.22438
4.17099
4.12192
4.06836
4.01336
3.95534
3.90371
3.84933
3.78509
3.71778
3.66178
3.61751
3.57628
3.53326
3.48466
3.42623
3.35813
3.2906
3.27083
3.2862
3.36223
3.51574
3.75733
4.03899
4.11027
4.12325
4.13057
4.13355
4.13147
4.10544
4.07061
4.02125
3.96464
3.93357
3.91496
3.89995
3.87972
3.85413
3.81606
3.76841
3.73138
3.70394
3.67941
3.65574
3.63114
3.59917
3.55189
3.49646
3.45046
8.95335
8.62984
8.18376
7.74603
7.53583
7.3576
7.06759
6.73645
6.52062
6.3092
6.07457
5.9005
5.72891
5.48036
5.25061
5.12585
5.01303
4.85246
4.64338
4.45514
4.34945
4.23451
4.11168
3.99083
3.83898
3.69689
3.54728
3.42667
3.38941
3.39308
3.50986
3.90083
4.41019
4.82726
5.01891
5.02066
4.95734
4.83737
4.73649
4.6671
4.62331
4.58238
4.51698
4.43901
4.37313
4.32076
4.27141
4.21713
4.14336
4.04128
3.96824
3.93818
3.91665
3.88197
3.8354
3.7671
3.66462
3.58812
3.56149
3.54038
3.50681
3.46202
3.40919
3.33938
3.28172
3.29022
3.3781
3.59554
3.83812
4.11206
4.24781
4.2527
4.21836
4.16188
4.13983
4.12753
4.10643
4.08134
4.05044
4.00459
3.96243
3.94293
3.92388
3.89946
3.87042
3.83796
3.7984
3.75503
3.72553
3.70702
3.68358
3.65495
3.62187
3.58142
3.53031
3.46398
9.21706
8.88412
8.44095
8.06942
7.89026
7.69778
7.37681
7.01958
6.81233
6.6455
6.40206
6.15815
5.97113
5.75463
5.52489
5.36864
5.24606
5.0874
4.8858
4.66847
4.52656
4.41836
4.29652
4.16489
4.01622
3.85514
3.72609
3.59782
3.47077
3.39888
3.37037
3.40587
3.64377
4.1259
4.65659
4.82827
4.80378
4.78445
4.754
4.69845
4.63004
4.53869
4.42371
4.32662
4.27752
4.23874
4.19899
4.1514
4.08449
3.99017
3.90728
3.86124
3.82795
3.7951
3.75593
3.70468
3.63359
3.55258
3.49305
3.44645
3.40777
3.3765
3.35625
3.32995
3.34348
3.44693
3.69701
3.93247
4.10906
4.2674
4.31367
4.30769
4.2632
4.18711
4.14288
4.12501
4.11644
4.09949
4.07814
4.05101
4.00716
3.95312
3.91533
3.89145
3.87244
3.85217
3.82889
3.79994
3.75793
3.70783
3.674
3.6462
3.6192
3.59261
3.56693
3.50937
9.50829
9.12902
8.67916
8.35906
8.1939
7.98825
7.65496
7.31551
7.10438
6.94105
6.70063
6.40687
6.18224
5.99677
5.79467
5.60882
5.45537
5.3003
5.10685
4.8934
4.70516
4.5762
4.46763
4.34009
4.19009
4.02258
3.87306
3.75898
3.64117
3.51249
3.40963
3.33427
3.33314
3.4763
3.86144
4.34025
4.5477
4.65922
4.70785
4.67348
4.60472
4.49804
4.36606
4.27033
4.22269
4.18357
4.14122
4.09079
4.02396
3.94081
3.86756
3.81462
3.77304
3.7355
3.694
3.64417
3.58345
3.51756
3.45111
3.38618
3.34921
3.33997
3.34559
3.4033
3.56942
3.85929
4.1102
4.197
4.26074
4.31402
4.33345
4.31931
4.28143
4.22123
4.15858
4.12777
4.11474
4.12094
4.11243
4.08755
4.04752
3.98167
3.92674
3.90937
3.89995
3.885
3.86384
3.83604
3.79127
3.72526
3.67464
3.65181
3.63738
3.62205
3.60498
3.55404
9.54102
9.25263
8.93199
8.66333
8.48546
8.25547
7.91675
7.58826
7.39258
7.23182
6.98515
6.67822
6.43982
6.2533
6.07437
5.88164
5.66144
5.45709
5.27146
5.09118
4.91996
4.75591
4.59551
4.44574
4.29937
4.16345
4.03647
3.91595
3.79059
3.64877
3.49954
3.37584
3.31573
3.2845
3.3455
3.60492
4.00894
4.33394
4.58993
4.61345
4.55167
4.43604
4.32048
4.23543
4.17493
4.12403
4.07541
4.0219
3.95891
3.89275
3.83287
3.7765
3.71897
3.66595
3.62118
3.57825
3.5317
3.4776
3.41573
3.35789
3.33876
3.34382
3.42984
3.65336
3.94672
4.25113
4.34974
4.35285
4.33131
4.31548
4.31218
4.30197
4.28153
4.25353
4.20428
4.15387
4.12927
4.11559
4.108
4.09025
4.06524
4.02848
3.97445
3.92336
3.89542
3.8755
3.85514
3.82992
3.79771
3.75723
3.70928
3.66443
3.63695
3.61601
3.59885
3.55049
9.74077
9.47144
9.17669
8.90542
8.6977
8.47876
8.15822
7.83987
7.62547
7.45266
7.19201
6.88575
6.64248
6.49781
6.29448
6.08026
5.87238
5.64719
5.477
5.32522
5.16529
4.99168
4.80816
4.63822
4.49483
4.36331
4.23597
4.10499
3.9672
3.82425
3.67232
3.5377
3.41117
3.29356
3.23696
3.26103
3.41027
3.71753
4.12975
4.41617
4.42134
4.36713
4.29121
4.2178
4.14495
4.07593
4.00651
3.93837
3.88098
3.83721
3.79372
3.7422
3.67522
3.59211
3.53187
3.49679
3.46124
3.4266
3.39491
3.37729
3.37777
3.47681
3.74085
4.00797
4.24255
4.42032
4.44955
4.4322
4.36002
4.29053
4.27006
4.26274
4.26904
4.26401
4.2458
4.20447
4.1544
4.12572
4.10643
4.08721
4.06616
4.04139
4.00631
3.95685
3.91336
3.88176
3.85361
3.82469
3.79626
3.76799
3.73539
3.69381
3.65688
3.62632
3.60097
3.55197
9.77704
9.54074
9.30323
9.08406
8.88181
8.62307
8.30569
8.01871
7.81023
7.64426
7.40116
7.09561
6.84952
6.68315
6.48729
6.24465
6.00435
5.78066
5.5878
5.42369
5.25959
5.08466
4.89937
4.71526
4.55099
4.40881
4.27435
4.13969
4.00255
3.86072
3.71778
3.57542
3.45323
3.34462
3.25168
3.1802
3.15897
3.2367
3.48673
3.91631
4.16547
4.26188
4.26659
4.2117
4.13127
4.04304
3.935
3.85036
3.80927
3.77714
3.74753
3.7039
3.6421
3.54503
3.45243
3.40864
3.37918
3.37428
3.41474
3.46429
3.59302
3.89145
4.14897
4.27497
4.41419
4.49117
4.49007
4.45297
4.37641
4.29633
4.26975
4.25983
4.26338
4.26573
4.25389
4.22948
4.18413
4.14261
4.11745
4.0956
4.07273
4.04748
4.01635
3.9749
3.92983
3.8935
3.86422
3.83705
3.81044
3.78316
3.75143
3.71191
3.66972
3.63253
3.60388
3.55505
9.86445
9.65063
9.43637
9.21884
8.98708
8.7174
8.44456
8.20656
8.02145
7.82953
7.54341
7.23566
7.00086
6.82961
6.63665
6.39416
6.13653
5.92574
5.73799
5.56484
5.39593
5.21711
5.02516
4.83265
4.65973
4.50968
4.37084
4.23471
4.09719
3.95407
3.80894
3.66501
3.53587
3.41592
3.31246
3.20498
3.12527
3.05763
3.08915
3.29504
3.67243
3.94025
4.13701
4.17503
4.12099
4.02304
3.8876
3.77578
3.72946
3.70434
3.68929
3.65317
3.60279
3.51762
3.40238
3.35319
3.33734
3.37337
3.47691
3.68679
4.02405
4.32879
4.40009
4.42663
4.44084
4.45291
4.44416
4.42621
4.39269
4.33265
4.29268
4.27694
4.26793
4.26261
4.2506
4.23247
4.20041
4.15815
4.12664
4.10339
4.08053
4.05563
4.02634
3.98998
3.94832
3.90889
3.87628
3.84942
3.82428
3.79786
3.76656
3.72703
3.68131
3.63755
3.60607
3.55928
9.8742
9.68413
9.4945
9.28546
9.05081
8.8025
8.56282
8.34801
8.15504
7.91496
7.62721
7.35776
7.149
6.98646
6.77816
6.51981
6.24684
6.03996
5.85453
5.6761
5.50084
5.31403
5.11436
4.91953
4.74761
4.59508
4.45329
4.31369
4.16917
4.01779
3.86895
3.73156
3.60396
3.48397
3.3686
3.2587
3.14547
3.05206
2.97801
2.98944
3.13614
3.441
3.77028
4.04878
4.0676
3.99805
3.8701
3.74549
3.6687
3.63048
3.61135
3.57904
3.53126
3.46231
3.38195
3.35074
3.36894
3.44207
3.71898
4.07885
4.39847
4.5228
4.51066
4.46938
4.43639
4.42126
4.41384
4.40548
4.38459
4.35158
4.31757
4.29685
4.28343
4.27095
4.25531
4.23366
4.20415
4.16872
4.13579
4.11045
4.08819
4.06363
4.03412
3.9999
3.96355
3.92755
3.89397
3.86515
3.83921
3.81171
3.77733
3.73483
3.6892
3.64668
3.61651
3.57103
9.89403
9.71071
9.521
9.31407
9.09602
8.87645
8.6655
8.46266
8.24086
7.97669
7.70827
7.47115
7.28686
7.10292
6.86339
6.5903
6.34459
6.15091
5.96515
5.77755
5.58846
5.38601
5.18298
4.99913
4.83493
4.68131
4.53176
4.37989
4.22224
4.06515
3.92066
3.79161
3.6698
3.54916
3.4263
3.30248
3.18026
3.07461
2.98084
2.93025
2.90732
2.99126
3.24244
3.61515
3.86949
3.90645
3.86223
3.77397
3.66892
3.57652
3.52296
3.47388
3.4229
3.39156
3.39331
3.39041
3.46273
3.77455
4.1581
4.38325
4.55329
4.56533
4.54673
4.5103
4.45725
4.42015
4.39823
4.38348
4.37319
4.36125
4.34608
4.32293
4.29658
4.27443
4.25186
4.22856
4.20693
4.18475
4.15666
4.12186
4.08902
4.05906
4.02944
4.00173
3.97721
3.95318
3.9257
3.89193
3.85278
3.8115
3.76858
3.72815
3.69372
3.66408
3.63738
3.58479
9.91233
9.73549
9.54718
9.34577
9.13972
8.93505
8.73284
8.52206
8.28333
8.0284
7.78392
7.57594
7.40268
7.17847
6.91381
6.65008
6.44175
6.26317
6.07181
5.86435
5.64234
5.43037
5.24431
5.07637
4.91763
4.76039
4.59619
4.42259
4.25252
4.10027
3.96637
3.84562
3.7281
3.60574
3.47287
3.33638
3.20779
3.10113
3.00842
2.92678
2.87517
2.81977
2.85191
3.06722
3.40672
3.67077
3.79622
3.77946
3.68898
3.57365
3.45399
3.37888
3.35197
3.36632
3.40896
3.54445
3.88151
4.29584
4.43295
4.48617
4.5358
4.56036
4.54636
4.51834
4.46659
4.41403
4.39213
4.38171
4.38361
4.38156
4.36789
4.3443
4.30588
4.27451
4.25388
4.23525
4.21624
4.19439
4.1637
4.11931
4.07916
4.05457
4.03449
4.01581
3.99666
3.97376
3.94354
3.89763
3.84132
3.79438
3.76055
3.73393
3.70962
3.68256
3.65235
3.58799
9.93113
9.76353
9.57792
9.38445
9.18695
8.98688
8.78006
8.55632
8.31621
8.07613
7.8574
7.67371
7.47034
7.2102
6.93354
6.70921
6.53123
6.35506
6.14555
5.91269
5.6749
5.47448
5.303
5.14281
4.98461
4.81988
4.63897
4.45034
4.27787
4.133
4.00801
3.89287
3.77758
3.65177
3.50878
3.36291
3.23326
3.1287
3.03892
2.95154
2.87122
2.79877
2.72013
2.73027
2.91287
3.23083
3.53045
3.6709
3.65573
3.562
3.42607
3.34427
3.34261
3.38693
3.57347
3.93724
4.38716
4.5483
4.54308
4.52742
4.52428
4.54138
4.53015
4.50753
4.46308
4.41839
4.40348
4.39533
4.39668
4.39008
4.37371
4.34613
4.30558
4.27578
4.25642
4.23774
4.21759
4.19449
4.16431
4.12583
4.09126
4.06735
4.04784
4.02917
4.00724
3.98014
3.94099
3.88955
3.8407
3.80347
3.77492
3.75012
3.72477
3.69365
3.6567
3.58857
9.93988
9.7823
9.6
9.41308
9.21902
9.01614
8.80076
8.57353
8.34628
8.13073
7.9347
7.7386
7.48564
7.20946
6.97216
6.77698
6.60674
6.41009
6.18929
5.94737
5.71713
5.52624
5.35645
5.19313
5.02855
4.85432
4.66571
4.47701
4.3099
4.16877
4.04418
3.92707
3.80785
3.67851
3.53465
3.3914
3.26486
3.15632
3.06494
2.9775
2.89009
2.80094
2.70803
2.63347
2.6421
2.79077
3.0818
3.39016
3.53181
3.50022
3.39021
3.3516
3.39202
3.60621
3.97409
4.39723
4.57868
4.57638
4.55947
4.53262
4.52279
4.52294
4.51111
4.49355
4.46214
4.43112
4.41769
4.40875
4.40361
4.39231
4.37371
4.34505
4.31157
4.28422
4.26095
4.23978
4.21898
4.19579
4.16762
4.13575
4.10694
4.08139
4.05708
4.03386
4.00752
3.97374
3.93281
3.89044
3.85164
3.8195
3.79099
3.76327
3.73317
3.69594
3.65704
3.59241
9.94995
9.79768
9.61799
9.43415
9.24046
9.03693
8.82381
8.60561
8.38985
8.18088
7.97628
7.75216
7.49937
7.25167
7.03229
6.83881
6.64726
6.43154
6.20352
5.97355
5.76495
5.57873
5.40021
5.22661
5.05205
4.86751
4.68082
4.50743
4.35262
4.2098
4.07385
3.94519
3.81593
3.68044
3.54797
3.42429
3.30943
3.19721
3.08905
2.98701
2.88787
2.79411
2.70601
2.62833
2.56859
2.55785
2.65054
2.90466
3.24302
3.34754
3.35526
3.44611
3.68525
4.05844
4.37003
4.58137
4.63801
4.61126
4.57657
4.54998
4.52241
4.50359
4.48887
4.47177
4.45719
4.446
4.43513
4.42223
4.40865
4.39178
4.36827
4.34153
4.31659
4.2934
4.26984
4.24548
4.22152
4.19581
4.16909
4.14425
4.12071
4.09433
4.06364
4.03174
3.99824
3.96217
3.92713
3.89556
3.86736
3.83814
3.80511
3.7691
3.73152
3.69168
3.65711
3.59937
9.95812
9.80659
9.62765
9.44484
9.2518
9.05043
8.84285
8.63243
8.42121
8.20848
7.98613
7.7446
7.50453
7.28774
7.09026
6.8834
6.65525
6.42006
6.19922
5.99769
5.80982
5.62511
5.43904
5.2464
5.04837
4.85818
4.68581
4.53425
4.39382
4.25397
4.1083
3.9534
3.80056
3.66369
3.54643
3.44402
3.34567
3.2409
3.12686
3.00357
2.88624
2.78333
2.69548
2.61765
2.54437
2.48686
2.45738
2.53652
2.77661
3.09565
3.38763
3.77217
4.19716
4.45801
4.54851
4.59059
4.60867
4.6055
4.58091
4.55243
4.51635
4.47848
4.46172
4.45712
4.45669
4.46197
4.45656
4.44113
4.41177
4.37883
4.35523
4.33741
4.32073
4.30352
4.28228
4.25399
4.22122
4.19226
4.16922
4.14928
4.12858
4.10388
4.07042
4.0271
3.98676
3.95509
3.92773
3.90318
3.87817
3.84928
3.8131
3.76963
3.72674
3.68849
3.65817
3.60337
9.96558
9.81536
9.63606
9.4532
9.26105
9.06266
8.85964
8.65221
8.43785
8.21308
7.97846
7.74733
7.53248
7.33557
7.13675
6.89986
6.65433
6.41474
6.20594
6.02402
5.84421
5.65808
5.4635
5.24958
5.03102
4.84319
4.69241
4.55922
4.42923
4.29053
4.12743
3.94211
3.77127
3.64433
3.54871
3.46427
3.37893
3.27811
3.14289
2.98765
2.85914
2.76814
2.69832
2.6313
2.55904
2.48076
2.37821
2.35224
2.43892
2.77747
3.42459
4.05512
4.56788
4.85999
4.78213
4.6456
4.59588
4.58359
4.5692
4.54629
4.50786
4.46271
4.44969
4.44899
4.46686
4.47927
4.46952
4.44683
4.40509
4.36693
4.34756
4.3334
4.32434
4.31059
4.29153
4.25846
4.2168
4.1907
4.17129
4.15124
4.13005
4.10546
4.06957
4.01872
3.97668
3.95201
3.93099
3.9091
3.88468
3.85548
3.81667
3.76722
3.72049
3.68435
3.65745
3.60573
)
;

boundaryField
{
    inlet
    {
        type            fixedValue;
        value           uniform 1;
    }
    outlet
    {
        type            zeroGradient;
    }
    bottom
    {
        type            symmetryPlane;
    }
    top
    {
        type            symmetryPlane;
    }
    obstacle
    {
        type            zeroGradient;
    }
    defaultFaces
    {
        type            empty;
    }
}


// ************************************************************************* //
