/*--------------------------------*- C++ -*----------------------------------*\
  =========                 |
  \\      /  F ield         | OpenFOAM: The Open Source CFD Toolbox
   \\    /   O peration     | Website:  https://openfoam.org
    \\  /    A nd           | Version:  7
     \\/     M anipulation  |
\*---------------------------------------------------------------------------*/
FoamFile
{
    version     2.0;
    format      ascii;
    class       volScalarField;
    location    "9.5";
    object      rho;
}
// * * * * * * * * * * * * * * * * * * * * * * * * * * * * * * * * * * * * * //

dimensions      [1 -3 0 0 0 0 0];

internalField   nonuniform List<scalar> 
4032
(
1.40001
1.40001
1.40001
1.40001
1.40001
1.40001
1.40001
1.40001
1.40001
1.40001
1.40001
1.58585
4.40245
5.46762
5.51437
5.5899
5.65697
5.72074
5.77917
5.83154
5.87793
5.91519
5.94373
5.96489
1.40001
1.40001
1.40001
1.40001
1.40001
1.40001
1.40001
1.40001
1.40001
1.40001
1.40001
1.56271
4.33254
5.45251
5.50911
5.58311
5.64882
5.71086
5.76744
5.81746
5.86113
5.8957
5.92115
5.94124
1.40001
1.40001
1.40001
1.40001
1.40001
1.40001
1.40001
1.40001
1.40001
1.40001
1.40001
1.50712
4.22351
5.44335
5.4941
5.56717
5.63284
5.6943
5.7499
5.7982
5.83932
5.87091
5.89151
5.90859
1.40001
1.40001
1.40001
1.40001
1.40001
1.40001
1.40001
1.40001
1.40001
1.40001
1.40001
1.41254
4.04339
5.43255
5.47659
5.54235
5.60392
5.66115
5.7136
5.75986
5.79998
5.83043
5.8479
5.86136
1.40001
1.40001
1.40001
1.40001
1.40001
1.40001
1.40001
1.40001
1.40001
1.40001
1.40001
1.40019
3.76722
5.37238
5.42923
5.49276
5.55518
5.61175
5.66211
5.70359
5.73613
5.76062
5.77405
5.79257
1.40001
1.40001
1.40001
1.40001
1.40001
1.40001
1.40001
1.40001
1.40001
1.40001
1.40001
1.4
3.4089
5.28872
5.38994
5.4484
5.50736
5.55672
5.59895
5.63381
5.66202
5.68552
5.69482
5.68588
1.40001
1.40001
1.40001
1.40001
1.40001
1.40001
1.40001
1.40001
1.40001
1.40001
1.40001
1.4
2.98771
5.17099
5.36082
5.4107
5.45789
5.49357
5.52094
5.54085
5.54797
5.53633
5.51769
5.50948
1.40001
1.40001
1.40001
1.40001
1.40001
1.40001
1.40001
1.40001
1.40001
1.40001
1.40001
1.40001
2.51323
5.0116
5.3687
5.39331
5.42077
5.43797
5.44366
5.44137
5.42287
5.39269
5.33635
5.30698
1.40001
1.40001
1.40001
1.40001
1.40001
1.40001
1.40001
1.40001
1.40001
1.40001
1.40001
1.40001
1.99281
4.77144
5.4002
5.37679
5.38725
5.38517
5.36915
5.33968
5.27999
5.17628
4.86115
3.99962
1.40001
1.40001
1.40001
1.40001
1.40001
1.40001
1.40001
1.40001
1.40001
1.40001
1.40001
1.40001
1.50074
4.35618
5.42618
5.36786
5.3442
5.3157
5.27659
5.21706
5.11593
4.92724
4.59781
3.7045
1.40001
1.40001
1.40001
1.40001
1.40001
1.40001
1.40001
1.40001
1.40001
1.40001
1.40001
1.40001
1.40133
3.64466
5.1862
5.24213
5.25329
5.22533
5.17651
5.0926
4.96224
4.72942
4.38706
3.56476
1.40001
1.40001
1.40001
1.40001
1.40001
1.40001
1.40001
1.40001
1.40001
1.40001
1.40001
1.40001
1.39998
2.82612
4.99743
5.20142
5.19939
5.16594
5.10395
4.99635
4.83757
4.59357
4.2156
3.54742
1.40001
1.40001
1.40001
1.40001
1.40001
1.40001
1.40001
1.40001
1.40001
1.40001
1.40001
1.40001
1.4
2.00324
4.73619
5.2063
5.15694
5.09936
5.02253
4.90243
4.72822
4.48565
4.1024
3.56892
1.40001
1.40001
1.40001
1.40001
1.40001
1.40001
1.40001
1.40001
1.40001
1.40001
1.40001
1.40001
1.4
1.47861
4.01219
5.10775
5.07903
5.02567
4.94363
4.82039
4.64867
4.40412
4.04729
3.62231
1.40001
1.40001
1.40001
1.40001
1.40001
1.40001
1.40001
1.40001
1.40001
1.40001
1.40001
1.40001
1.4
1.40039
2.94037
4.94196
5.04095
4.98839
4.89811
4.7577
4.58622
4.33747
4.02299
3.67088
1.40001
1.40001
1.40001
1.40001
1.40001
1.40001
1.40001
1.40001
1.40001
1.40001
1.40001
1.40001
1.40001
1.4
1.83168
4.69049
5.10047
4.96989
4.85003
4.70253
4.51601
4.29149
4.02151
3.72071
1.40001
1.40001
1.40001
1.40001
1.40001
1.40001
1.40001
1.40001
1.40001
1.40001
1.40001
1.40001
1.40001
1.4
1.4284
3.76821
4.95933
4.8698
4.77698
4.64064
4.46698
4.261
4.02196
3.75749
1.40001
1.40001
1.40001
1.40001
1.40001
1.40001
1.40001
1.40001
1.40001
1.40001
1.40001
1.40001
1.40001
1.4
1.39995
2.47501
4.7633
4.84606
4.77296
4.64218
4.46997
4.26454
4.03383
3.79191
1.40001
1.40001
1.40001
1.40001
1.40001
1.40001
1.40001
1.40001
1.40001
1.40001
1.40001
1.40001
1.40001
1.40001
1.39999
1.5783
4.02283
4.86176
4.77017
4.63211
4.46231
4.26672
4.05053
3.82351
1.40001
1.40001
1.40001
1.40001
1.40001
1.40001
1.40001
1.40001
1.40001
1.40001
1.40001
1.40001
1.40001
1.40001
1.4
1.40341
2.71748
4.67654
4.74181
4.61114
4.45529
4.2722
4.06898
3.8523
1.40001
1.40001
1.40001
1.40001
1.40001
1.40001
1.40001
1.40001
1.40001
1.40001
1.40001
1.40001
1.40001
1.40001
1.4
1.4
1.65985
4.0351
4.77424
4.62631
4.46939
4.28481
4.08585
3.88201
1.40001
1.40001
1.40001
1.40001
1.40001
1.40001
1.40001
1.40001
1.40001
1.40001
1.40001
1.40001
1.40001
1.40001
1.40001
1.4
1.40796
2.68405
4.58914
4.62148
4.46291
4.28057
4.09152
3.93738
1.40001
1.40001
1.40001
1.40001
1.40001
1.40001
1.40001
1.40001
1.40001
1.40001
1.40001
1.40001
1.40001
1.40001
1.40001
1.40001
1.40003
1.63999
3.85022
4.68683
4.46875
4.29923
4.15175
4.17982
1.40001
1.40001
1.40001
1.40001
1.40001
1.40001
1.40001
1.40001
1.40001
1.40001
1.40001
1.40001
1.40001
1.40001
1.40001
1.40001
1.40001
1.40699
2.39291
4.43061
4.42394
4.33113
4.41732
4.65073
1.40001
1.40001
1.40001
1.40001
1.40001
1.40001
1.40001
1.40001
1.40001
1.40001
1.40001
1.40001
1.40001
1.40001
1.40001
1.40001
1.40001
1.40004
1.53495
3.41619
4.38327
4.72026
5.03463
5.15092
1.40001
1.40001
1.40001
1.40001
1.40001
1.40001
1.40001
1.40001
1.40001
1.40001
1.40001
1.40001
1.40001
1.40001
1.40001
1.40001
1.40001
1.40001
1.40275
1.99651
4.01588
5.42919
5.57076
5.47988
1.40001
1.40001
1.40001
1.40001
1.40001
1.40001
1.40001
1.40001
1.40001
1.40001
1.40001
1.40001
1.40001
1.40001
1.40001
1.40001
1.40001
1.40001
1.40002
1.44421
3.37415
5.81673
5.85025
5.61218
1.40001
1.40001
1.40001
1.40001
1.40001
1.40001
1.40001
1.40001
1.40001
1.40001
1.40001
1.40001
1.40001
1.40001
1.40001
1.40001
1.40001
1.40001
1.40001
1.40051
2.6921
5.63309
5.79553
5.61143
1.40001
1.40001
1.40001
1.40001
1.40001
1.40001
1.40001
1.40001
1.40001
1.40001
1.40001
1.40001
1.40001
1.40001
1.40001
1.40001
1.40001
1.40001
1.40001
1.40001
2.40432
5.19093
5.54611
5.42518
1.40001
1.40001
1.40001
1.40001
1.40001
1.40001
1.40001
1.40001
1.40001
1.40001
1.40001
1.40001
1.40001
1.40001
1.40001
1.40001
1.40001
1.40001
1.40001
1.40001
2.18363
4.84733
5.41145
5.31865
1.40001
1.40001
1.40001
1.40001
1.40001
1.40001
1.40001
1.40001
1.40001
1.40001
1.40001
1.40001
1.40001
1.40001
1.40001
1.40001
1.40001
1.40001
1.40001
1.40001
1.93618
4.71779
5.41064
5.27286
1.40001
1.40001
1.40001
1.40001
1.40001
1.40001
1.40001
1.40001
1.40001
1.40001
1.40001
1.40001
1.40001
1.40001
1.40001
1.40001
1.40001
1.40001
1.40001
1.40001
1.69326
4.58504
5.43633
5.3018
1.40001
1.40001
1.40001
1.40001
1.40001
1.40001
1.40001
1.40001
1.40001
1.40001
1.40001
1.40001
1.40001
1.40001
1.40001
1.40001
1.40001
1.40001
1.40001
1.40001
1.51603
4.38994
5.44746
5.31454
1.40001
1.40001
1.40001
1.40001
1.40001
1.40001
1.40001
1.40001
1.40001
1.40001
1.40001
1.40001
1.40001
1.40001
1.40001
1.40001
1.40001
1.40001
1.40001
1.40001
1.42259
4.19203
5.42579
5.31627
1.40001
1.40001
1.40001
1.40001
1.40001
1.40001
1.40001
1.40001
1.40001
1.40001
1.40001
1.40001
1.40001
1.40001
1.40001
1.40001
1.40001
1.40001
1.40001
1.40001
1.40064
3.98965
5.38811
5.31673
1.40001
1.40001
1.40001
1.40001
1.40001
1.40001
1.40001
1.40001
1.40001
1.40001
1.40001
1.40001
1.40001
1.40001
1.40001
1.40001
1.40001
1.40001
1.40001
1.40001
1.40001
3.82004
5.36632
5.33062
1.40001
1.40001
1.40001
1.40001
1.40001
1.40001
1.40001
1.40001
1.40001
1.40001
1.40001
1.40001
1.40001
1.40001
1.40001
1.40001
1.40001
1.40001
1.40001
1.40001
1.40001
3.66532
5.36247
5.35498
1.40001
1.40001
1.40001
1.40001
1.40001
1.40001
1.40001
1.40001
1.40001
1.40001
1.40001
1.40001
1.40001
1.40001
1.40001
1.40001
1.40001
1.40001
1.40001
1.40001
1.40001
3.54425
5.3683
5.37225
1.40001
1.40001
1.40001
1.40001
1.40001
1.40001
1.40001
1.40001
1.40001
1.40001
1.40001
1.40001
1.40001
1.40001
1.40001
1.40001
1.40001
1.40001
1.40001
1.40001
1.40001
3.45979
5.36634
5.38091
1.40001
1.40001
1.40001
1.40001
1.40001
1.40001
1.40001
1.40001
1.40001
1.40001
1.40001
1.40001
1.40001
1.40001
1.40001
1.40001
1.40001
1.40001
1.40001
1.40001
1.40001
3.41985
5.35602
5.38291
1.29378
0.541663
0.264344
0.193967
0.208202
0.26607
0.380945
0.516462
0.646068
0.7133
0.748063
0.781961
0.87204
0.969472
1.24436
2.26753
2.47939
2.51556
2.59315
2.64749
2.66131
2.65891
2.66288
2.67646
2.69101
2.69837
2.70331
2.71025
2.71551
2.71005
2.69753
2.68755
2.68486
2.68853
2.69008
2.67972
2.66034
2.64362
2.63557
2.63492
2.63532
2.62243
2.59439
2.56567
2.54571
2.53764
2.53404
2.52238
2.49886
2.47137
2.44597
2.42678
2.41481
2.40453
2.38506
2.3548
2.32347
2.29444
2.27012
2.25323
2.23969
2.21642
2.18924
2.16065
2.13236
2.10825
2.08662
2.06795
2.05415
2.03849
2.01772
1.99622
1.9731
1.94751
1.92047
1.896
1.87525
1.85604
1.83717
1.81739
1.79761
1.77815
1.75902
1.75491
1.79255
2.08703
2.55303
2.59365
2.54553
2.52803
2.51181
2.49385
2.48079
2.47323
2.4731
2.4844
1.99604
1.21888
0.895099
0.699066
0.560867
0.534799
0.560752
0.583492
0.582297
0.599595
0.636049
0.689486
0.760651
0.84071
1.0699
2.1608
2.51131
2.55575
2.62764
2.67328
2.67734
2.6839
2.69337
2.7041
2.70628
2.70291
2.70229
2.71122
2.72515
2.72884
2.71439
2.69579
2.68409
2.68476
2.69276
2.69751
2.68791
2.66538
2.64349
2.6298
2.62541
2.62279
2.61241
2.59104
2.5666
2.54671
2.53209
2.51965
2.50475
2.48491
2.4616
2.4386
2.4194
2.40492
2.39131
2.368
2.33752
2.30657
2.2795
2.25834
2.24344
2.22483
2.19969
2.17312
2.14364
2.1154
2.09248
2.0719
2.05475
2.03897
2.01946
1.99862
1.97678
1.95325
1.92908
1.90674
1.8858
1.86463
1.84262
1.81972
1.7985
1.78076
1.77346
1.78407
1.8505
2.10539
2.543
2.58659
2.53607
2.51806
2.51463
2.51102
2.50133
2.48799
2.47762
2.47888
2.50482
1.79628
1.40121
1.17011
0.952682
0.778735
0.725876
0.710857
0.690049
0.673104
0.687498
0.729344
0.756161
0.779182
0.869347
1.89785
2.62274
2.70307
2.73294
2.72694
2.70504
2.71508
2.74485
2.77348
2.77572
2.76073
2.74584
2.74124
2.7532
2.77133
2.776
2.7603
2.73971
2.72523
2.72268
2.73134
2.74235
2.74108
2.71971
2.69222
2.66711
2.65034
2.64477
2.64271
2.63186
2.60908
2.58319
2.55904
2.53976
2.52447
2.51128
2.49581
2.47412
2.45066
2.42915
2.40703
2.38048
2.3519
2.32254
2.29588
2.2736
2.25198
2.22801
2.20401
2.1778
2.14867
2.12393
2.10312
2.08429
2.06562
2.04504
2.02292
1.99768
1.96875
1.94284
1.92405
1.90669
1.88832
1.86726
1.84352
1.81836
1.80353
1.80739
1.8424
1.93924
2.11817
2.50286
2.60865
2.56766
2.54245
2.53364
2.53662
2.54398
2.54019
2.5249
2.5047
2.84276
2.25905
1.82067
1.56356
1.36975
1.16383
0.968043
0.913921
0.907697
0.877665
0.830637
0.788752
0.76487
0.769983
0.782548
1.34121
2.62843
2.87119
2.86763
2.85263
2.82483
2.82264
2.83613
2.86242
2.87985
2.87596
2.86109
2.84734
2.83995
2.84265
2.8535
2.85853
2.84657
2.82842
2.81365
2.80433
2.80379
2.81254
2.81181
2.79073
2.76266
2.73727
2.71962
2.7109
2.7068
2.69099
2.66403
2.63588
2.61098
2.59007
2.5744
2.56417
2.54961
2.52597
2.50017
2.47361
2.44555
2.41671
2.38803
2.36003
2.33197
2.30462
2.27886
2.25405
2.22824
2.19883
2.16836
2.14528
2.12701
2.11013
2.09199
2.07314
2.05141
2.02287
1.98846
1.95871
1.937
1.91751
1.89772
1.8802
1.86594
1.86062
1.87982
1.95522
2.05946
2.15404
2.4005
2.63062
2.64088
2.59835
2.57279
2.56718
2.5776
2.59074
2.58983
2.57691
3.04514
2.59615
2.18111
1.86706
1.67799
1.50555
1.32542
1.15019
1.04264
1.01312
0.973271
0.91884
0.861958
0.864296
0.913497
1.04321
2.08223
2.98373
3.02292
3.01537
2.99003
2.98413
2.98285
2.9835
2.99591
3.01183
3.0097
2.99754
2.98082
2.96657
2.95941
2.96443
2.96946
2.96105
2.94511
2.92848
2.91583
2.91133
2.91027
2.89529
2.87442
2.85178
2.83262
2.81867
2.8092
2.79028
2.76425
2.73659
2.70917
2.68671
2.66849
2.65521
2.63733
2.61512
2.59003
2.56155
2.53197
2.50289
2.47383
2.4433
2.41138
2.38004
2.35205
2.32655
2.3014
2.27353
2.24184
2.21
2.18441
2.16447
2.14645
2.12822
2.10905
2.08568
2.0553
2.0199
1.98879
1.96428
1.94422
1.93396
1.93498
1.95478
2.01615
2.1244
2.19732
2.21173
2.31773
2.5426
2.69408
2.69624
2.66391
2.64325
2.63872
2.64487
2.65529
2.65433
3.20307
2.82509
2.47376
2.16036
1.92157
1.73086
1.57826
1.43379
1.28062
1.14995
1.1062
1.09922
1.09216
1.10648
1.21071
1.29964
1.51116
2.48128
3.06968
3.19963
3.20891
3.1713
3.14084
3.12297
3.11933
3.13545
3.14783
3.13883
3.11999
3.09463
3.07876
3.0726
3.08127
3.07847
3.06147
3.04171
3.02392
3.00992
3.00312
2.99171
2.9731
2.95027
2.93039
2.91479
2.90077
2.87949
2.85405
2.82596
2.79512
2.77034
2.75219
2.7348
2.71448
2.69215
2.666
2.63617
2.60627
2.57821
2.54993
2.51959
2.48647
2.45215
2.42007
2.39242
2.36706
2.34169
2.31363
2.28228
2.25091
2.22539
2.20468
2.18569
2.16606
2.1438
2.11591
2.08019
2.04334
2.01501
2.00251
2.00773
2.03383
2.09254
2.20647
2.29415
2.33094
2.30234
2.31232
2.42902
2.62531
2.75436
2.76421
2.74519
2.71384
2.70477
2.71048
2.7227
3.31626
2.99048
2.67431
2.3863
2.14915
1.94934
1.74814
1.61105
1.49136
1.36109
1.29069
1.32866
1.3585
1.38425
1.51166
1.5627
1.57155
1.77043
2.56635
3.173
3.40124
3.37389
3.29565
3.24028
3.23067
3.24035
3.26156
3.25402
3.23276
3.19771
3.17702
3.16617
3.17276
3.17476
3.15796
3.13409
3.10748
3.08905
3.0758
3.06726
3.05233
3.03254
3.00887
2.98922
2.97043
2.9477
2.92254
2.89525
2.86581
2.83877
2.81623
2.79501
2.77364
2.7503
2.72332
2.69303
2.66259
2.63419
2.60666
2.57804
2.54691
2.5128
2.47827
2.44724
2.42047
2.39551
2.37017
2.34211
2.31126
2.28017
2.25398
2.23248
2.2122
2.19047
2.16422
2.13233
2.0957
2.07012
2.07092
2.09873
2.1635
2.26325
2.39074
2.42463
2.43046
2.39828
2.36629
2.39139
2.50216
2.67565
2.79804
2.82901
2.81679
2.78181
2.77001
2.77411
3.40722
3.11949
2.83809
2.56033
2.31835
2.12974
1.9439
1.77549
1.66587
1.57913
1.59249
1.69479
1.69927
1.70703
1.76212
1.78556
1.74748
1.7425
1.92352
2.62933
3.28119
3.49567
3.4515
3.36828
3.32017
3.31553
3.3358
3.33232
3.30908
3.27018
3.24253
3.22902
3.22958
3.23462
3.21928
3.19588
3.16351
3.14041
3.12409
3.11483
3.10351
3.08604
3.06175
3.03524
3.01327
2.98951
2.9644
2.93887
2.91227
2.88428
2.85756
2.83397
2.81122
2.78682
2.75964
2.72933
2.69784
2.66848
2.6414
2.6146
2.58606
2.55424
2.51923
2.48516
2.45633
2.43202
2.40891
2.38461
2.35659
2.32452
2.29191
2.26418
2.2408
2.21843
2.19465
2.17127
2.14624
2.13655
2.15556
2.22593
2.3212
2.42625
2.50954
2.51341
2.50399
2.4793
2.43693
2.41674
2.44495
2.54676
2.70023
2.82153
2.88168
2.8664
2.83651
2.8199
3.48235
3.21226
2.96335
2.70643
2.46089
2.26544
2.12146
1.99794
1.93149
1.9143
1.97333
2.04192
2.01029
1.95649
1.95067
1.95239
1.93792
1.87136
1.88748
2.04254
2.66417
3.31987
3.52748
3.49332
3.41908
3.37529
3.37826
3.38399
3.36324
3.32908
3.29376
3.27634
3.26865
3.27086
3.25741
3.2359
3.20368
3.17516
3.15745
3.14619
3.1351
3.11755
3.09353
3.06285
3.03791
3.01464
2.99119
2.96745
2.94158
2.91203
2.88251
2.85744
2.83398
2.80959
2.78289
2.75249
2.71921
2.68775
2.66069
2.63563
2.60973
2.58085
2.54743
2.51142
2.47914
2.45358
2.43162
2.40948
2.38481
2.35546
2.32185
2.28779
2.25943
2.23412
2.21569
2.20441
2.20047
2.2209
2.29319
2.40442
2.48418
2.54227
2.56928
2.56842
2.55261
2.53391
2.50561
2.46311
2.45612
2.47655
2.56788
2.71438
2.84025
2.90094
2.89537
2.87209
3.54108
3.28827
3.05353
2.82599
2.60659
2.43246
2.35524
2.34024
2.30857
2.34236
2.34792
2.31365
2.25986
2.16625
2.13291
2.12339
2.1185
2.08408
2.00514
2.02115
2.1415
2.67671
3.32263
3.53077
3.50113
3.44579
3.41736
3.42334
3.40861
3.38108
3.34367
3.31806
3.30277
3.29664
3.28442
3.26427
3.23571
3.20301
3.18291
3.16893
3.15528
3.13655
3.11188
3.07976
3.05283
3.03059
3.00889
2.98591
2.95952
2.92778
2.89596
2.87011
2.84656
2.82253
2.79654
2.76662
2.73208
2.69804
2.67025
2.64636
2.62261
2.59675
2.56663
2.53164
2.49575
2.4658
2.44185
2.41996
2.39742
2.37248
2.34179
2.30734
2.27341
2.24716
2.23669
2.24453
2.27569
2.35045
2.48746
2.58103
2.60793
2.60841
2.60181
2.59895
2.58565
2.57112
2.55523
2.52502
2.48858
2.48521
2.50155
2.58205
2.7181
2.84043
2.90432
2.90512
3.58862
3.34999
3.13467
2.95286
2.79995
2.71644
2.75374
2.74729
2.65433
2.65228
2.6032
2.51811
2.46576
2.36984
2.33294
2.31574
2.27786
2.2595
2.19816
2.11704
2.13019
2.23496
2.68921
3.27219
3.49628
3.50273
3.46727
3.46182
3.45231
3.42461
3.39172
3.35585
3.33434
3.31907
3.30624
3.28696
3.26269
3.23043
3.20645
3.1901
3.17285
3.15179
3.12546
3.09341
3.06574
3.04418
3.02348
3.00068
2.97318
2.93896
2.90502
2.8783
2.85447
2.83049
2.80496
2.77575
2.74113
2.70547
2.67643
2.6525
2.6295
2.60543
2.57845
2.54683
2.51113
2.47705
2.44847
2.42395
2.40126
2.37844
2.352
2.32161
2.29264
2.27275
2.27858
2.32101
2.40734
2.52007
2.64909
2.68485
2.68216
2.65703
2.63045
2.61799
2.60811
2.59977
2.58947
2.574
2.54524
2.51373
2.51131
2.52552
2.58878
2.71307
2.83026
2.90237
3.63333
3.41627
3.25224
3.18172
3.14641
3.13555
3.17205
3.09422
2.92932
2.86955
2.80752
2.71085
2.66298
2.57413
2.51894
2.50444
2.44394
2.41047
2.37706
2.29546
2.23343
2.24827
2.32376
2.65987
3.18419
3.46184
3.50061
3.50285
3.5026
3.47002
3.43528
3.39335
3.36349
3.34344
3.32649
3.30658
3.28421
3.25505
3.22946
3.21104
3.19068
3.1666
3.13808
3.10592
3.07776
3.05663
3.03658
3.01387
2.98551
2.94973
2.91368
2.88494
2.86011
2.83579
2.81049
2.7821
2.74872
2.71344
2.68304
2.6574
2.63322
2.60904
2.5836
2.55563
2.52401
2.4905
2.45807
2.42774
2.40063
2.37738
2.35426
2.3357
2.32208
2.32905
2.37505
2.47926
2.57093
2.66057
2.72585
2.73593
2.72665
2.70293
2.67033
2.6429
2.62964
2.62203
2.61747
2.60829
2.59355
2.56832
2.53877
2.53584
2.55027
2.59556
2.69566
2.84083
3.70421
3.56303
3.55166
3.60512
3.54983
3.487
3.44347
3.31825
3.14549
3.05123
3.01102
2.92326
2.85675
2.77021
2.69094
2.66952
2.61315
2.56011
2.53036
2.46287
2.39787
2.35184
2.34441
2.37787
2.61455
3.09147
3.40427
3.49734
3.54645
3.52216
3.47999
3.42911
3.39257
3.37062
3.35008
3.32756
3.30394
3.27573
3.25138
3.23175
3.2093
3.18318
3.15342
3.11986
3.09033
3.06919
3.04893
3.02605
2.99806
2.96316
2.9259
2.89377
2.86669
2.84147
2.81606
2.78835
2.75667
2.72321
2.69261
2.66519
2.63877
2.61258
2.58614
2.55916
2.53068
2.50055
2.4688
2.43671
2.40451
2.37876
2.36187
2.36311
2.384
2.44372
2.5685
2.67403
2.71672
2.7468
2.75655
2.76367
2.75505
2.73905
2.71772
2.68683
2.6607
2.64837
2.64173
2.6385
2.62975
2.61546
2.59159
2.56295
2.55939
2.5716
2.60014
2.73159
3.87474
3.90993
4.00816
4.00098
3.85462
3.73489
3.63066
3.50408
3.34738
3.24072
3.20262
3.13481
3.04225
2.94904
2.86119
2.82766
2.77756
2.70955
2.67526
2.61564
2.54509
2.50256
2.44756
2.4137
2.42942
2.58725
2.98682
3.33619
3.50347
3.55901
3.52872
3.47082
3.42609
3.40159
3.37777
3.35531
3.32954
3.29756
3.27198
3.25059
3.22657
3.20039
3.17155
3.13704
3.10456
3.08141
3.05979
3.03656
3.01005
2.97788
2.94125
2.90609
2.87572
2.84842
2.8219
2.79425
2.76391
2.73249
2.70314
2.67577
2.64835
2.61976
2.59004
2.56017
2.53102
2.50297
2.47502
2.44637
2.42018
2.39437
2.39438
2.4277
2.50813
2.62596
2.77309
2.81906
2.8168
2.7972
2.78291
2.78009
2.77942
2.7709
2.75832
2.73827
2.70705
2.68498
2.67442
2.66848
2.66449
2.65471
2.63995
2.61507
2.58588
2.58046
2.58987
2.65015
4.30112
4.37348
4.38231
4.22503
4.05087
3.92528
3.81484
3.70531
3.55881
3.43598
3.37994
3.32799
3.22714
3.11767
3.03242
2.98995
2.94251
2.86262
2.81152
2.75954
2.68638
2.64278
2.59283
2.52987
2.47993
2.48194
2.56943
2.8819
3.25661
3.497
3.54228
3.50799
3.47268
3.44167
3.41121
3.38889
3.36232
3.32359
3.29227
3.26792
3.24231
3.21742
3.19106
3.15766
3.12204
3.09468
3.07016
3.04476
3.01757
2.98766
2.95492
2.92117
2.88925
2.85943
2.82992
2.79969
2.76885
2.73933
2.71251
2.68705
2.66094
2.63136
2.59705
2.56225
2.53165
2.50502
2.47916
2.46187
2.44857
2.44936
2.48283
2.58182
2.68758
2.80536
2.88978
2.89583
2.88553
2.84903
2.82151
2.81125
2.80604
2.80476
2.79614
2.78167
2.75734
2.72983
2.71588
2.70686
2.70095
2.69303
2.68124
2.66378
2.63428
2.60556
2.59995
2.61865
4.73943
4.7318
4.61282
4.38745
4.22617
4.11421
4.00073
3.8922
3.75775
3.62671
3.54991
3.499
3.40947
3.2894
3.20081
3.15198
3.10311
3.02421
2.94283
2.89614
2.82854
2.77707
2.73406
2.67168
2.60457
2.53745
2.54363
2.59257
2.80345
3.17182
3.43763
3.48419
3.50049
3.48989
3.46572
3.43533
3.39707
3.3486
3.30775
3.28046
3.25567
3.23258
3.20875
3.17781
3.14133
3.1069
3.07635
3.0477
3.01899
2.98973
2.96212
2.93295
2.90235
2.87153
2.8388
2.80299
2.76839
2.74123
2.71781
2.69464
2.6703
2.6412
2.60292
2.56311
2.53072
2.50722
2.49485
2.49422
2.51309
2.56126
2.67771
2.78965
2.85306
2.91189
2.94253
2.94199
2.92968
2.90327
2.87079
2.85206
2.84237
2.83789
2.8313
2.81945
2.80302
2.77933
2.75988
2.74899
2.73904
2.72846
2.71654
2.70198
2.68048
2.6489
2.62573
2.62294
5.06727
4.96476
4.78214
4.55878
4.42657
4.3291
4.19862
4.06649
3.94948
3.82613
3.73276
3.67203
3.59062
3.46805
3.36948
3.3179
3.26579
3.18978
3.08963
3.02794
2.97642
2.91349
2.8662
2.80843
2.73956
2.66325
2.59141
2.58948
2.61284
2.74811
3.05073
3.32098
3.43791
3.49068
3.51044
3.48691
3.4339
3.37172
3.32074
3.28823
3.26524
3.24271
3.2194
3.18989
3.14969
3.11214
3.08016
3.05092
3.02346
2.99741
2.9678
2.93735
2.90607
2.87848
2.84906
2.81419
2.7773
2.7453
2.71929
2.69552
2.67113
2.64376
2.61099
2.57269
2.53501
2.52065
2.5277
2.56645
2.6471
2.77372
2.92067
2.95882
2.96636
2.97142
2.97558
2.9753
2.96271
2.94574
2.92159
2.89382
2.87906
2.87053
2.86361
2.8536
2.84086
2.82187
2.79776
2.77912
2.76553
2.75325
2.74102
2.72815
2.71137
2.68648
2.65686
2.63333
5.30744
5.14757
4.93779
4.73126
4.62561
4.53588
4.39679
4.24096
4.13769
4.03656
3.92516
3.843
3.7624
3.64481
3.53562
3.47734
3.42513
3.3494
3.24875
3.15804
3.10871
3.05401
2.9945
2.93525
2.85907
2.78741
2.71071
2.64798
2.62813
2.63424
2.69928
2.91034
3.17642
3.3882
3.4803
3.4796
3.44607
3.38347
3.33232
3.29788
3.27578
3.25476
3.2202
3.17914
3.14504
3.11825
3.09265
3.06447
3.02645
2.97347
2.93463
2.91801
2.90598
2.88675
2.86089
2.82357
2.76844
2.7265
2.71034
2.6972
2.67747
2.652
2.62256
2.5838
2.54714
2.55052
2.59657
2.71375
2.84264
2.98556
3.05695
3.05978
3.0413
3.01265
3.00254
2.99682
2.98615
2.97273
2.95627
2.93249
2.91121
2.90209
2.89277
2.87999
2.86449
2.84735
2.82679
2.80401
2.78838
2.77893
2.76669
2.75126
2.73324
2.71145
2.68406
2.64808
5.45122
5.29881
5.09603
4.92246
4.83294
4.73767
4.58614
4.41989
4.32082
4.2398
4.12372
4.00795
3.9197
3.81783
3.70846
3.63391
3.57649
3.50167
3.40438
3.29768
3.22836
3.17642
3.11731
3.05161
2.97531
2.891
2.82336
2.75621
2.68755
2.64817
2.63051
2.64694
2.7732
3.02951
3.30195
3.38932
3.37407
3.361
3.34388
3.31544
3.2809
3.23417
3.17328
3.12146
3.09619
3.07672
3.05628
3.03101
2.99528
2.94601
2.90382
2.88056
2.86296
2.84487
2.82327
2.79494
2.75605
2.71276
2.681
2.65538
2.6334
2.61491
2.60261
2.58606
2.59197
2.64788
2.78404
2.90959
3.00216
3.08323
3.10647
3.10298
3.07913
3.03808
3.01428
3.00496
3.00081
2.99246
2.98106
2.96621
2.94262
2.91388
2.89442
2.88235
2.87234
2.86128
2.84854
2.83276
2.80983
2.78257
2.76459
2.7499
2.7354
2.72083
2.70667
2.67428
5.51935
5.38527
5.20226
5.06343
4.98919
4.8968
4.74648
4.59146
4.49175
4.41358
4.30081
4.1633
4.05753
3.96958
3.87376
3.7844
3.70911
3.63348
3.5393
3.4342
3.33968
3.27388
3.21854
3.1534
3.07557
2.9869
2.90557
2.84211
2.77638
2.70338
2.64438
2.59806
2.59336
2.66488
2.86759
3.11585
3.21963
3.27691
3.29972
3.28231
3.24744
3.19226
3.12422
3.07558
3.05177
3.03186
3.0098
2.98345
2.94909
2.90689
2.86949
2.84193
2.8201
2.8009
2.77989
2.75411
2.72165
2.68578
2.64993
2.61447
2.59497
2.59006
2.59346
2.62577
2.71766
2.87453
3.00738
3.0522
3.08275
3.10686
3.11622
3.10879
3.08852
3.05583
3.02214
3.00569
2.99899
3.00237
2.99772
2.98397
2.96235
2.92747
2.89834
2.88917
2.88409
2.87579
2.86376
2.84826
2.82401
2.78845
2.76114
2.74868
2.74056
2.73161
2.72159
2.69241
5.38071
5.31585
5.22041
5.13264
5.07444
4.98889
4.84824
4.70535
4.61937
4.5485
4.43837
4.29881
4.18758
4.09902
4.01372
3.9223
3.8162
3.7161
3.62484
3.53531
3.44826
3.36264
3.27778
3.19823
3.12007
3.04623
2.97527
2.90617
2.83389
2.75259
2.66667
2.59504
2.55779
2.5322
2.55995
2.69353
2.90192
3.06541
3.19473
3.20913
3.17822
3.12164
3.06585
3.02543
2.99598
2.97036
2.94595
2.91978
2.88932
2.8569
2.82712
2.79889
2.77009
2.74376
2.72178
2.70051
2.67693
2.64886
2.61619
2.58375
2.57726
2.58116
2.63013
2.75259
2.90985
3.06872
3.11882
3.11787
3.10382
3.09322
3.09118
3.08587
3.07483
3.0596
3.03364
3.00743
2.99402
2.98593
2.98114
2.97119
2.95801
2.93891
2.91017
2.8827
2.86735
2.85614
2.84462
2.83063
2.81314
2.79137
2.76522
2.74044
2.72484
2.71277
2.70297
2.67564
5.29355
5.24001
5.17042
5.10037
5.04798
4.98315
4.86724
4.74395
4.66092
4.59342
4.48365
4.34889
4.23902
4.17312
4.07931
3.97921
3.88121
3.77275
3.68856
3.61236
3.53099
3.44167
3.34613
3.25611
3.17861
3.10656
3.03617
2.96336
2.88636
2.80592
2.71974
2.64232
2.56962
2.50398
2.46486
2.475
2.54885
2.70434
2.91332
3.05648
3.06381
3.03986
3.00381
2.96934
2.93527
2.90253
2.86953
2.83753
2.8109
2.7909
2.77102
2.74711
2.71504
2.67391
2.64458
2.62834
2.61194
2.59611
2.5812
2.57582
2.57963
2.63415
2.77643
2.91771
3.03879
3.12521
3.13786
3.12881
3.09093
3.05382
3.04263
3.03837
3.04111
3.03788
3.02762
3.0059
2.97967
2.96426
2.95375
2.94341
2.93217
2.91875
2.90008
2.87382
2.85047
2.83325
2.8178
2.80191
2.78627
2.77059
2.75261
2.72989
2.70957
2.6926
2.6785
2.65099
5.22267
5.15673
5.09504
5.04049
4.9904
4.91443
4.80811
4.70807
4.63632
4.57877
4.48401
4.3573
4.25284
4.18156
4.09649
3.98647
3.87399
3.76791
3.67528
3.59494
3.51336
3.42557
3.33196
3.23794
3.15234
3.07678
3.0047
2.93227
2.85828
2.78126
2.70277
2.62378
2.55486
2.49303
2.43973
2.40016
2.38199
2.41911
2.54674
2.76231
2.88867
2.94053
2.94624
2.92059
2.88321
2.84221
2.79082
2.75083
2.73242
2.71847
2.70633
2.68743
2.65914
2.61201
2.56631
2.54609
2.53385
2.53539
2.56179
2.59336
2.6647
2.82108
2.95395
3.01687
3.08469
3.11962
3.11879
3.10019
3.06098
3.01942
3.005
2.99919
3.00025
3.00072
2.99386
2.98028
2.95663
2.93526
2.92207
2.91047
2.89828
2.88492
2.86855
2.8467
2.82293
2.80359
2.78781
2.77302
2.75847
2.74362
2.72649
2.70526
2.68253
2.66226
2.64646
2.61935
5.23954
5.16312
5.09062
5.01909
4.94371
4.85407
4.762
4.68146
4.61965
4.55302
4.44449
4.32233
4.22786
4.15842
4.07793
3.97277
3.85715
3.76134
3.67523
3.59401
3.51344
3.42734
3.33418
3.23981
3.15347
3.07698
3.00527
2.93458
2.86302
2.78834
2.71196
2.63524
2.56515
2.49895
2.44162
2.38261
2.33911
2.29956
2.31393
2.41925
2.60919
2.74444
2.84506
2.86933
2.84336
2.79673
2.73197
2.67776
2.65655
2.646
2.64089
2.62535
2.60246
2.56204
2.50495
2.4822
2.47957
2.50163
2.56088
2.67344
2.84715
2.99954
3.03401
3.04595
3.05148
3.05731
3.05265
3.04282
3.02523
2.99483
2.97412
2.96546
2.96022
2.95683
2.94991
2.93995
2.92331
2.90184
2.88567
2.87359
2.86169
2.84879
2.8337
2.81502
2.79357
2.77308
2.75596
2.74178
2.72846
2.71446
2.69794
2.67721
2.65318
2.62994
2.613
2.58773
5.24649
5.17246
5.0996
5.02099
4.93342
4.8415
4.75336
4.67493
4.60511
4.51525
4.40396
4.2979
4.21547
4.15116
4.06591
3.95739
3.83984
3.74933
3.66714
3.58658
3.50631
3.41994
3.3266
3.23389
3.15071
3.0759
3.00567
2.93608
2.86356
2.787
2.71087
2.64002
2.57347
2.5101
2.44857
2.38965
2.32902
2.27976
2.23885
2.24389
2.31926
2.47471
2.63905
2.78067
2.7922
2.76023
2.69895
2.63843
2.60122
2.58414
2.57666
2.56213
2.53946
2.5061
2.46624
2.45654
2.46852
2.50919
2.65181
2.83327
2.98998
3.04942
3.04306
3.02336
3.00772
3.00003
2.99575
2.99102
2.98045
2.96414
2.94702
2.93624
2.92913
2.92249
2.91426
2.90315
2.88831
2.87056
2.85397
2.84114
2.82991
2.81758
2.80277
2.78561
2.76738
2.74921
2.73206
2.71719
2.70385
2.68984
2.67229
2.65049
2.62705
2.6051
2.58931
2.56543
5.25275
5.18157
5.10753
5.02656
4.94129
4.85551
4.77339
4.69511
4.60952
4.50566
4.39887
4.30357
4.22967
4.15573
4.05731
3.94289
3.83851
3.75539
3.67497
3.59278
3.50867
3.41699
3.32385
3.23855
3.16153
3.08879
3.01737
2.9441
2.86703
2.78925
2.71701
2.65221
2.5906
2.52897
2.46544
2.40081
2.33623
2.28015
2.23073
2.20411
2.19065
2.23449
2.36391
2.55191
2.67594
2.70125
2.68087
2.63843
2.58636
2.54138
2.5158
2.49195
2.4672
2.45136
2.45526
2.45835
2.49591
2.65216
2.84082
2.95015
3.0309
3.03634
3.02775
3.01099
2.98617
2.96807
2.9571
2.94988
2.94498
2.93917
2.93161
2.92009
2.90703
2.89602
2.88488
2.87345
2.86289
2.85208
2.83829
2.82109
2.80488
2.79019
2.77565
2.76203
2.74996
2.73811
2.72448
2.70762
2.68792
2.66721
2.64579
2.62551
2.6081
2.59304
2.57938
2.55236
5.25503
5.18837
5.11608
5.03787
4.95737
4.87706
4.79737
4.71396
4.61861
4.51611
4.4173
4.33323
4.26331
4.17145
4.06135
3.94968
3.86105
3.78522
3.70317
3.61294
3.51475
3.41954
3.33523
3.25874
3.1858
3.11283
3.03579
2.95324
2.87125
2.79704
2.73126
2.67153
2.613
2.55152
2.484
2.41375
2.34669
2.29038
2.24111
2.198
2.17049
2.14044
2.15719
2.27019
2.44351
2.57374
2.64053
2.6329
2.5886
2.53117
2.47085
2.43274
2.42024
2.42837
2.45187
2.52206
2.68937
2.88923
2.95465
2.9795
3.00362
3.01571
3.00939
2.99652
2.9723
2.94741
2.93695
2.93192
2.93276
2.93171
2.92508
2.9137
2.89515
2.87988
2.86981
2.86078
2.85167
2.84133
2.82675
2.8054
2.78583
2.77374
2.76389
2.75475
2.74536
2.73421
2.71958
2.69711
2.66928
2.64582
2.62879
2.61543
2.60325
2.58973
2.5746
2.54207
5.26105
5.19811
5.12761
5.05346
4.97715
4.89921
4.81791
4.72919
4.63322
4.53668
4.44831
4.374
4.29122
4.18367
4.06768
3.973
3.89777
3.82267
3.73216
3.63028
3.52504
3.43579
3.3589
3.28629
3.21378
3.13752
3.05296
2.96372
2.88126
2.81139
2.75051
2.69385
2.63664
2.5737
2.50144
2.42684
2.35973
2.30502
2.25757
2.21085
2.16789
2.12876
2.08607
2.09131
2.189
2.35355
2.50428
2.57614
2.56885
2.52139
2.45237
2.41102
2.41062
2.43385
2.52817
2.708
2.92456
3.00067
2.99825
2.99147
2.99061
2.99914
2.9941
2.98381
2.96292
2.94191
2.93487
2.9309
2.93143
2.92819
2.92032
2.90712
2.88778
2.87349
2.86407
2.85491
2.84514
2.83412
2.81983
2.80149
2.78483
2.77322
2.76372
2.75462
2.74399
2.73076
2.71158
2.68637
2.66227
2.64372
2.62931
2.61682
2.60415
2.58877
2.57043
2.53635
5.26757
5.20748
5.13807
5.06658
4.99186
4.91319
4.82898
4.73926
4.64882
4.56253
4.48363
4.40408
4.3003
4.18592
4.08686
4.0052
3.93343
3.84923
3.75334
3.64745
3.54608
3.46137
3.38518
3.31116
3.23591
3.15522
3.06688
2.97775
2.89812
2.83027
2.76979
2.7124
2.65328
2.58851
2.51576
2.44264
2.37737
2.32074
2.27255
2.226
2.17904
2.13087
2.08021
2.03922
2.04386
2.1242
2.27724
2.43589
2.50647
2.4901
2.43396
2.41445
2.43495
2.54265
2.72382
2.92623