/*--------------------------------*- C++ -*----------------------------------*\
  =========                 |
  \\      /  F ield         | OpenFOAM: The Open Source CFD Toolbox
   \\    /   O peration     | Website:  https://openfoam.org
    \\  /    A nd           | Version:  7
     \\/     M anipulation  |
\*---------------------------------------------------------------------------*/
FoamFile
{
    version     2.0;
    format      ascii;
    class       volScalarField;
    location    "9.5";
    object      T;
}
// * * * * * * * * * * * * * * * * * * * * * * * * * * * * * * * * * * * * * //

dimensions      [0 0 0 1 0 0 0];

internalField   nonuniform List<scalar> 
4032
(
1
1
1
1
1
1
1
1
1
1
1
1.1732
2.41342
2.7161
2.7269
2.74241
2.75576
2.76827
2.77963
2.78977
2.79877
2.80605
2.81156
2.81552
1
1
1
1
1
1
1
1
1
1
1
1.15569
2.39941
2.71499
2.72629
2.74105
2.75416
2.76641
2.77745
2.78714
2.79558
2.8023
2.8072
2.81096
1
1
1
1
1
1
1
1
1
1
1
1.10224
2.36172
2.71215
2.72317
2.73807
2.75129
2.76352
2.7744
2.78373
2.79161
2.79768
2.80162
2.80481
1
1
1
1
1
1
1
1
1
1
1
1.00744
2.29375
2.70426
2.71828
2.7334
2.74621
2.75765
2.7679
2.7768
2.78442
2.79015
2.79341
2.79584
1
1
1
1
1
1
1
1
1
1
1
1.00006
2.21174
2.68838
2.70761
2.72331
2.73682
2.74835
2.75833
2.76643
2.77259
2.77679
2.77852
2.78131
1
1
1
1
1
1
1
1
1
1
1
1
2.09738
2.6697
2.69842
2.71288
2.72622
2.73704
2.74605
2.75337
2.75892
2.76215
2.76052
2.75491
1
1
1
1
1
1
1
1
1
1
1
1
1.93916
2.63439
2.68257
2.6984
2.71201
2.72212
2.7297
2.73485
2.73647
2.73295
2.72466
2.71732
1
1
1
1
1
1
1
1
1
1
1
1
1.72231
2.56455
2.65586
2.67938
2.69523
2.70546
2.71124
2.71327
2.71039
2.70508
2.69965
2.71068
1
1
1
1
1
1
1
1
1
1
1
1
1.4107
2.44064
2.62943
2.65503
2.67336
2.68483
2.68894
2.68786
2.67958
2.66084
2.60907
2.509
1
1
1
1
1
1
1
1
1
1
1
1
1.05153
2.30815
2.6298
2.63188
2.64244
2.65332
2.65792
2.65468
2.64154
2.60824
2.5504
2.38851
1
1
1
1
1
1
1
1
1
1
1
1
1.00062
2.14013
2.58872
2.59711
2.60827
2.6158
2.62022
2.61569
2.60052
2.56173
2.49749
2.31423
1
1
1
1
1
1
1
1
1
1
1
1
0.999994
1.83305
2.52395
2.58158
2.58986
2.58902
2.58759
2.5794
2.56045
2.52176
2.44893
2.29039
1
1
1
1
1
1
1
1
1
1
1
1
0.999998
1.3743
2.37992
2.56313
2.56324
2.56177
2.55661
2.54407
2.52112
2.48287
2.40916
2.28702
1
1
1
1
1
1
1
1
1
1
1
1
1
1.03851
2.19487
2.52242
2.53299
2.53216
2.52642
2.51227
2.4881
2.44793
2.37956
2.28761
1
1
1
1
1
1
1
1
1
1
1
1
1
1.00023
1.8284
2.43923
2.51093
2.50794
2.50063
2.48364
2.45912
2.41676
2.35688
2.28365
1
1
1
1
1
1
1
1
1
1
1
1
1
0.999998
1.24084
2.27994
2.49112
2.4779
2.47003
2.4549
2.4289
2.3916
2.3403
2.27887
1
1
1
1
1
1
1
1
1
1
1
1
1
1
1.01344
2.08309
2.44105
2.43182
2.43057
2.42091
2.40039
2.36885
2.32519
2.2723
1
1
1
1
1
1
1
1
1
1
1
1
1
1
1.00001
1.58528
2.3244
2.41238
2.40592
2.39383
2.37454
2.3462
2.30882
2.2638
1
1
1
1
1
1
1
1
1
1
1
1
1
1
0.999998
1.08912
2.11578
2.39063
2.38277
2.36844
2.34819
2.322
2.2895
2.25089
1
1
1
1
1
1
1
1
1
1
1
1
1
1
0.999999
1.00157
1.66561
2.27721
2.36061
2.3424
2.32311
2.29879
2.26914
2.23439
1
1
1
1
1
1
1
1
1
1
1
1
1
1
1
1
1.13009
2.07721
2.3352
2.31754
2.3011
2.27764
2.24802
2.21605
1
1
1
1
1
1
1
1
1
1
1
1
1
1
1
1
1.00355
1.62444
2.20986
2.296
2.27443
2.25144
2.2241
2.20099
1
1
1
1
1
1
1
1
1
1
1
1
1
1
1
1
1.00001
1.11795
1.9951
2.27332
2.24497
2.2241
2.21958
2.23332
1
1
1
1
1
1
1
1
1
1
1
1
1
1
1
1
1
1.00299
1.47865
2.11502
2.21173
2.20538
2.24129
2.30751
1
1
1
1
1
1
1
1
1
1
1
1
1
1
1
1
1
1.00001
1.06345
1.84067
2.14652
2.2492
2.32351
2.37144
1
1
1
1
1
1
1
1
1
1
1
1
1
1
1
1
1
1
1.00106
1.28986
1.97801
2.3155
2.37584
2.37385
1
1
1
1
1
1
1
1
1
1
1
1
1
1
1
1
1
1
1
1.01981
1.848
2.42242
2.42598
2.38864
1
1
1
1
1
1
1
1
1
1
1
1
1
1
1
1
1
1
1
1.00018
1.71942
2.548
2.52134
2.4529
1
1
1
1
1
1
1
1
1
1
1
1
1
1
1
1
1
1
1
1
1.70705
2.62664
2.60123
2.53297
1
1
1
1
1
1
1
1
1
1
1
1
1
1
1
1
1
1
1
1
1.60192
2.59849
2.65449
2.61608
1
1
1
1
1
1
1
1
1
1
1
1
1
1
1
1
1
1
1
1
1.42174
2.51544
2.67633
2.64399
1
1
1
1
1
1
1
1
1
1
1
1
1
1
1
1
1
1
1
1
1.23036
2.41849
2.67242
2.64816
1
1
1
1
1
1
1
1
1
1
1
1
1
1
1
1
1
1
1
1
1.10208
2.36236
2.67028
2.64633
1
1
1
1
1
1
1
1
1
1
1
1
1
1
1
1
1
1
1
1
1.02186
2.31691
2.67111
2.64925
1
1
1
1
1
1
1
1
1
1
1
1
1
1
1
1
1
1
1
1
1.00042
2.2629
2.66989
2.65434
1
1
1
1
1
1
1
1
1
1
1
1
1
1
1
1
1
1
1
1
1
2.20899
2.6649
2.6573
1
1
1
1
1
1
1
1
1
1
1
1
1
1
1
1
1
1
1
1
1
2.1551
2.65672
2.65778
1
1
1
1
1
1
1
1
1
1
1
1
1
1
1
1
1
1
1
1
1
2.11006
2.64966
2.65958
1
1
1
1
1
1
1
1
1
1
1
1
1
1
1
1
1
1
1
1
1
2.08111
2.64664
2.66036
1
1
1
1
1
1
1
1
1
1
1
1
1
1
1
1
1
1
1
1
1
2.07057
2.64567
2.66039
1.69213
1.20293
1.0253
1.04075
1.08149
1.19959
1.35593
1.45838
1.52718
1.56209
1.5901
1.61896
1.6678
1.70457
1.9525
2.66342
2.74028
2.75144
2.78494
2.80443
2.80464
2.79562
2.78963
2.78889
2.78885
2.78596
2.7813
2.77737
2.77231
2.76174
2.74835
2.73605
2.7273
2.72186
2.71553
2.70474
2.69181
2.68012
2.67195
2.6672
2.6622
2.65137
2.63509
2.61823
2.60435
2.59528
2.58873
2.5791
2.56537
2.55024
2.53633
2.52553
2.51839
2.5126
2.5031
2.48876
2.47368
2.45928
2.44658
2.43683
2.42833
2.41525
2.40024
2.38452
2.36894
2.35525
2.3428
2.33188
2.32352
2.31469
2.30381
2.29284
2.28132
2.26878
2.25565
2.24371
2.23332
2.22337
2.21329
2.20253
2.19137
2.18022
2.16852
2.16304
2.18079
2.32013
2.52536
2.52136
2.49957
2.49018
2.48133
2.47196
2.4648
2.46054
2.46
2.46396
1.93548
1.62889
1.49243
1.37629
1.27479
1.2538
1.26974
1.27764
1.28816
1.31954
1.36109
1.40776
1.45497
1.49334
1.69917
2.5157
2.70904
2.74362
2.77937
2.79478
2.79157
2.78663
2.78254
2.78064
2.77599
2.76778
2.76093
2.75808
2.75673
2.75117
2.73684
2.72153
2.70885
2.70146
2.69736
2.69258
2.68214
2.668
2.65453
2.64393
2.63691
2.63107
2.62226
2.6089
2.59422
2.58122
2.57017
2.56007
2.54925
2.5368
2.5235
2.51108
2.50086
2.49305
2.48595
2.47508
2.46131
2.44714
2.43424
2.42342
2.41491
2.4045
2.39101
2.3767
2.36101
2.3458
2.33298
2.32137
2.31155
2.30262
2.29233
2.28177
2.27102
2.25977
2.24846
2.2379
2.22783
2.21753
2.20667
2.19501
2.18348
2.17388
2.16708
2.17063
2.20068
2.31679
2.50625
2.50491
2.48373
2.4736
2.46919
2.46511
2.45931
2.45309
2.44839
2.44823
2.03735
1.81828
1.67469
1.57592
1.46722
1.3505
1.29379
1.27695
1.26941
1.26242
1.27233
1.30171
1.31467
1.32356
1.38755
2.24261
2.67498
2.73535
2.75074
2.74653
2.73301
2.73104
2.73455
2.74002
2.73623
2.72332
2.71079
2.70258
2.70128
2.70147
2.69737
2.68365
2.66809
2.6541
2.64456
2.64
2.63675
2.62991
2.61563
2.5999
2.58584
2.57543
2.56942
2.56495
2.55712
2.54479
2.53032
2.5158
2.50283
2.49165
2.4818
2.47176
2.46006
2.44847
2.43873
2.42982
2.41972
2.40897
2.39764
2.38686
2.37729
2.36762
2.35655
2.34498
2.332
2.31741
2.30448
2.29329
2.28301
2.27301
2.26268
2.25219
2.24077
2.22808
2.21687
2.20896
2.20187
2.19447
2.18581
2.17547
2.16418
2.15655
2.1573
2.17123
2.21073
2.2854
2.44406
2.47507
2.45644
2.44276
2.43465
2.43323
2.43375
2.43081
2.42425
2.41706
2.10505
1.93745
1.79415
1.70372
1.62761
1.52951
1.41386
1.37193
1.367
1.3491
1.3194
1.28952
1.27109
1.27433
1.28348
1.77689
2.5253
2.67196
2.67119
2.66426
2.65055
2.64428
2.64333
2.64709
2.64874
2.64255
2.63126
2.62046
2.61171
2.60749
2.60595
2.60255
2.5914
2.57739
2.56363
2.55141
2.54339
2.53915
2.53222
2.51943
2.506
2.49366
2.48425
2.47851
2.4747
2.46654
2.45399
2.44001
2.42627
2.41349
2.40252
2.39389
2.38441
2.37318
2.36293
2.35369
2.34491
2.33647
2.32824
2.32004
2.31135
2.30237
2.29332
2.28388
2.27322
2.26034
2.24643
2.23518
2.22594
2.21761
2.20927
2.2012
2.19248
2.18128
2.16776
2.15659
2.14929
2.14325
2.13727
2.13222
2.12915
2.12788
2.13627
2.16803
2.20732
2.23842
2.33107
2.41407
2.41264
2.39226
2.37789
2.37168
2.37312
2.37535
2.37423
2.37116
2.15113
2.02439
1.89636
1.79065
1.72256
1.65406
1.57606
1.48885
1.42693
1.40948
1.38705
1.35635
1.32343
1.32514
1.35467
1.44173
2.11205
2.51669
2.56536
2.55824
2.54876
2.54302
2.53769
2.53285
2.53308
2.53462
2.53074
2.5216
2.51109
2.50166
2.49491
2.49279
2.48986
2.4808
2.46869
2.45609
2.44476
2.4365
2.43034
2.42089
2.41108
2.40089
2.392
2.38523
2.38041
2.37276
2.36277
2.35151
2.33936
2.32805
2.3177
2.30906
2.29935
2.2894
2.27983
2.27033
2.26171
2.25433
2.24757
2.2405
2.23276
2.22473
2.21721
2.20978
2.2016
2.19157
2.17932
2.16643
2.15574
2.14737
2.14004
2.13305
2.12619
2.11814
2.1078
2.09574
2.08576
2.07882
2.07442
2.07493
2.0782
2.08983
2.11667
2.15935
2.18584
2.18034
2.20946
2.28771
2.33939
2.33732
2.3204
2.30845
2.30313
2.3034
2.30549
2.30582
2.1852
2.08306
1.97952
1.87963
1.79764
1.7267
1.66722
1.607
1.53716
1.47071
1.4473
1.44333
1.44302
1.45183
1.50579
1.54534
1.67386
2.16231
2.39288
2.46653
2.46786
2.45484
2.44165
2.43221
2.42856
2.4311
2.43275
2.42709
2.41734
2.40593
2.39771
2.39281
2.39256
2.38772
2.37729
2.36653
2.35636
2.34731
2.34097
2.33405
2.32593
2.31671
2.30838
2.3017
2.29589
2.28811
2.27925
2.26943
2.25836
2.24869
2.2408
2.23292
2.22415
2.21516
2.20557
2.19567
2.18683
2.17959
2.17302
2.16623
2.15867
2.15053
2.14266
2.13569
2.12886
2.12138
2.11232
2.10154
2.09031
2.08104
2.07362
2.06707
2.06064
2.05367
2.045
2.03374
2.02179
2.01361
2.01396
2.01791
2.03126
2.05862
2.10378
2.1369
2.14371
2.12717
2.12284
2.15764
2.22234
2.26301
2.26266
2.2533
2.24038
2.2345
2.23482
2.23785
2.20169
2.11923
2.03149
1.94467
1.8681
1.79912
1.72432
1.6703
1.61997
1.56417
1.53218
1.55133
1.56873
1.58246
1.64005
1.65604
1.65701
1.75731
2.09832
2.3148
2.40548
2.39852
2.37572
2.35764
2.35293
2.35447
2.35914
2.35566
2.34714
2.3344
2.32588
2.32054
2.32052
2.31873
2.31019
2.3004
2.29003
2.28176
2.27511
2.27037
2.26424
2.25688
2.2483
2.24094
2.23398
2.22595
2.21736
2.20834
2.19882
2.19003
2.1825
2.17519
2.16771
2.15958
2.15041
2.14059
2.13132
2.12334
2.11624
2.1093
2.10187
2.09351
2.08476
2.07677
2.0698
2.06306
2.05584
2.04733
2.03752
2.02736
2.01882
2.01202
2.00582
1.99938
1.99163
1.98216
1.96918
1.96371
1.96541
1.97882
2.00657
2.04609
2.09037
2.10199
2.10045
2.0846
2.06683
2.07117
2.10451
2.15752
2.19463
2.20512
2.19907
2.18588
2.1794
2.17941
2.20942
2.14097
2.06804
1.98944
1.91563
1.85458
1.79033
1.72802
1.68511
1.65319
1.65959
1.70415
1.70812
1.71135
1.73114
1.73624
1.71919
1.71484
1.79323
2.0647
2.27774
2.35222
2.34168
2.3195
2.30613
2.30375
2.30829
2.30668
2.29912
2.28667
2.27704
2.27154
2.27047
2.27026
2.26344
2.2549
2.24423
2.23593
2.22954
2.22547
2.2211
2.21511
2.2071
2.19834
2.19085
2.18278
2.17434
2.16598
2.15762
2.14909
2.14108
2.13401
2.12712
2.11958
2.11108
2.10165
2.09203
2.08337
2.07581
2.06872
2.06137
2.05308
2.04367
2.03429
2.02635
2.01968
2.01325
2.00631
1.99803
1.98828
1.9782
1.96973
1.96283
1.95644
1.94965
1.94256
1.93423
1.93402
1.94244
1.97023
2.00566
2.04221
2.06749
2.06753
2.06293
2.05186
2.03424
2.02244
2.02878
2.05934
2.10518
2.14317
2.16043
2.15516
2.14449
2.13762
2.21279
2.15048
2.08941
2.02094
1.95004
1.88996
1.84407
1.80235
1.7828
1.78037
1.80223
1.827
1.81577
1.79436
1.79005
1.78949
1.78238
1.7555
1.75999
1.81904
2.04459
2.2476
2.31051
2.30414
2.28577
2.27373
2.27325
2.27398
2.26759
2.25739
2.24642
2.24031
2.23705
2.23636
2.23087
2.22354
2.21351
2.20432
2.19817
2.19405
2.19018
2.18461
2.17718
2.16777
2.15987
2.1523
2.14462
2.13694
2.12887
2.12002
2.11142
2.10427
2.09759
2.09055
2.08269
2.07364
2.06367
2.05432
2.04651
2.03954
2.0325
2.02464
2.01532
2.00499
1.99562
1.98825
1.98191
1.97546
1.96826
1.95968
1.94976
1.93962
1.93127
1.92372
1.91877
1.91483
1.91681
1.92588
1.95243
1.99026
2.01493
2.03397
2.03995
2.03877
2.0327
2.02513
2.01353
1.99889
1.99105
1.99582
2.0237
2.06677
2.10438
2.12246
2.12106
2.11275
2.21163
2.15536
2.09964
2.04202
1.98236
1.93297
1.91224
1.91208
1.90729
1.92041
1.92157
1.90966
1.89097
1.85839
1.84475
1.83957
1.83599
1.82156
1.79075
1.79502
1.83666
2.02431
2.21813
2.27797
2.27345
2.25954
2.25044
2.25074
2.24579
2.23771
2.22704
2.2192
2.21393
2.21098
2.20639
2.19989
2.19114
2.18115
2.17464
2.17004
2.16567
2.16
2.1527
2.14327
2.13517
2.12824
2.12136
2.11412
2.10604
2.09667
2.08751
2.08021
2.07365
2.06694
2.05956
2.05091
2.0408
2.03082
2.02282
2.0161
2.00951
2.00233
1.99385
1.98375
1.97315
1.96424
1.9571
1.95055
1.94386
1.93659
1.92785
1.91808
1.90729
1.8989
1.89786
1.90172
1.91432
1.94055
1.98612
2.01408
2.02109
2.02034
2.01695
2.01479
2.00957
2.00379
1.99718
1.98608
1.97378
1.96853
1.9723
1.99611
2.03634
2.07177
2.09076
2.09098
2.20591
2.15506
2.10646
2.06398
2.02493
2.01002
2.0253
2.02568
2.00237
2.00268
1.98741
1.96087
1.9438
1.91298
1.89922
1.89178
1.87729
1.86884
1.84537
1.815
1.81844
1.85248
2.00601
2.17765
2.24055
2.2452
2.23599
2.23261
2.22872
2.22069
2.21181
2.20174
2.19497
2.18981
2.18538
2.1793
2.17181
2.16214
2.15475
2.14959
2.14432
2.13812
2.13054
2.1214
2.11335
2.10685
2.1005
2.09355
2.08539
2.07551
2.06587
2.0584
2.05184
2.04527
2.03818
2.02992
2.01999
2.00974
2.00154
1.99495
1.98867
1.98206
1.97452
1.96549
1.9551
1.94502
1.9365
1.92922
1.92265
1.91607
1.90863
1.89991
1.88954
1.88636
1.8896
1.9055
1.93388
1.97098
2.00969
2.01774
2.01686
2.00897
1.99954
1.99419
1.98987
1.98603
1.98151
1.97523
1.96493
1.95461
1.95017
1.953
1.97112
2.008
2.04082
2.0626
2.1955
2.15406
2.12088
2.11039
2.11059
2.1125
2.12825
2.10853
2.0655
2.04975
2.03264
2.00466
1.98962
1.96217
1.9438
1.93772
1.91714
1.90416
1.89074
1.86129
1.83925
1.8425
1.86365
1.97325
2.12791
2.20369
2.21538
2.21746
2.21573
2.20573
2.19623
2.18492
2.17619
2.16992
2.16455
2.15839
2.15149
2.14273
2.13496
2.12926
2.12318
2.11623
2.10819
2.09919
2.09115
2.08492
2.07894
2.07227
2.06415
2.0541
2.04407
2.03616
2.02943
2.02289
2.01604
2.00823
1.99894
1.98909
1.98073
1.97384
1.96742
1.96099
1.95412
1.94638
1.93747
1.92795
1.91866
1.90994
1.9021
1.89546
1.88883
1.88246
1.8812
1.88503
1.9016
1.93512
1.96438
1.99131
2.00739
2.00917
2.00619
1.99863
1.98783
1.97782
1.97226
1.96862
1.96584
1.96152
1.95542
1.94613
1.93696
1.93189
1.93452
1.9469
1.97609
2.01804
2.18852
2.17096
2.17544
2.20026
2.19348
2.18477
2.17808
2.1486
2.10518
2.08171
2.07226
2.04881
2.02939
2.00382
1.97969
1.9719
1.95355
1.93539
1.92368
1.90019
1.87692
1.86085
1.85302
1.86165
1.93585
2.07662
2.15979
2.18585
2.19898
2.19177
2.1795
2.16573
2.15534
2.14867
2.14244
2.13566
2.12846
2.12001
2.11262
2.10662
2.1
2.09259
2.08437
2.07515
2.06684
2.06071
2.05485
2.04836
2.04059
2.03108
2.02103
2.01245
2.00533
1.99875
1.9921
1.98477
1.97634
1.96743
1.95937
1.95224
1.94541
1.93865
1.93182
1.92475
1.91717
1.90912
1.90063
1.89195
1.88257
1.87495
1.86979
1.87152
1.88116
1.90198
1.94221
1.97263
1.98431
1.99211
1.99274
1.99345
1.9904
1.9848
1.97727
1.9665
1.95706
1.95186
1.94826
1.94551
1.94106
1.93497
1.92615
1.9173
1.91163
1.91344
1.92047
1.9585
2.20642
2.22681
2.26372
2.26865
2.24381
2.22322
2.20272
2.17459
2.13771
2.11264
2.10451
2.0878
2.06276
2.03647
2.01128
2.00058
1.98479
1.96299
1.95011
1.92978
1.90565
1.88928
1.86946
1.85309
1.85609
1.90125
2.01938
2.11183
2.15416
2.16879
2.16122
2.14491
2.13224
2.12486
2.11775
2.11108
2.10339
2.09405
2.0865
2.08019
2.07325
2.06587
2.05802
2.04879
2.03994
2.03341
2.02736
2.02105
2.01398
2.00548
1.99593
1.98697
1.97941
1.97266
1.96604
1.95902
1.95129
1.94339
1.93612
1.92945
1.92275
1.91565
1.9081
1.90054
1.89323
1.88624
1.87942
1.87209
1.8648
1.85821
1.85926
1.87173
1.89765
1.93556
1.97763
1.98706
1.98588
1.98037
1.97406
1.97194
1.9709
1.96726
1.96199
1.95435
1.94366
1.9356
1.93072
1.92695
1.92369
1.91894
1.91276
1.9038
1.89418
1.88838
1.88947
1.90502
2.27365
2.30698
2.32026
2.29225
2.26367
2.24246
2.22175
2.19993
2.1683
2.14067
2.12843
2.11664
2.0913
2.06181
2.03811
2.02549
2.01101
1.98677
1.96894
1.95103
1.92703
1.91036
1.8915
1.86784
1.8507
1.84297
1.8667
1.95834
2.05548
2.11403
2.12667
2.11843
2.10932
2.09998
2.09145
2.08491
2.0772
2.06641
2.05771
2.05098
2.0439
2.03684
2.0295
2.02071
2.01158
2.00441
1.99794
1.99154
1.98494
1.97757
1.96927
1.96084
1.95323
1.94627
1.9393
1.93207
1.92469
1.91757
1.91115
1.9053
1.89937
1.89245
1.88402
1.87544
1.86807
1.86168
1.85544
1.85101
1.84996
1.85213
1.86474
1.89479
1.92661
1.96032
1.97963
1.97972
1.97687
1.96592
1.95606
1.95171
1.94908
1.94729
1.94302
1.93699
1.92835
1.91894
1.91314
1.90865
1.90504
1.90102
1.89606
1.88926
1.87907
1.86948
1.86462
1.86753
2.34132
2.35624
2.33584
2.29804
2.27389
2.2563
2.2363
2.21686
2.1902
2.162
2.14532
2.13438
2.11317
2.08239
2.05831
2.04431
2.02981
2.00669
1.98107
1.96442
1.94259
1.92426
1.90747
1.88468
1.86018
1.83665
1.83282
1.84177
1.89946
1.99622
2.05919
2.07321
2.07868
2.07669
2.07019
2.06146
2.05155
2.03895
2.028
2.02082
2.01466
2.00862
2.00183
1.99355
1.98465
1.97646
1.96891
1.96201
1.95565
1.94943
1.94309
1.93586
1.92831
1.92098
1.91335
1.90514
1.89748
1.89142
1.886
1.88069
1.87524
1.86857
1.8595
1.85009
1.84194
1.83677
1.83338
1.83566
1.84498
1.86194
1.89685
1.92785
1.94494
1.95914
1.96446
1.96359
1.95942
1.95071
1.93971
1.93281
1.92882
1.92619
1.9229
1.91814
1.91208
1.90402
1.89702
1.89244
1.88822
1.88407
1.87976
1.8746
1.86723
1.85709
1.84974
1.84531
2.36493
2.35505
2.33027
2.29688
2.28058
2.26788
2.24677
2.22366
2.20232
2.17775
2.1583
2.14533
2.12671
2.09714
2.0717
2.05721
2.0422
2.02059
1.99167
1.97121
1.95379
1.93338
1.91644
1.89606
1.87209
1.84563
1.82336
1.8157
1.81974
1.85441
1.93291
1.99937
2.02684
2.04296
2.04908
2.04377
2.03183
2.01657
2.00297
1.99441
1.98934
1.98497
1.97965
1.97212
1.96232
1.95342
1.94579
1.93848
1.93137
1.92523
1.91918
1.91285
1.90549
1.89865
1.89153
1.88301
1.87409
1.86738
1.86245
1.85746
1.85187
1.8453
1.83714
1.82742
1.81729
1.81667
1.82011
1.83411
1.85942
1.89647
1.93607
1.94482
1.94601
1.94615
1.94483
1.94403
1.93999
1.93462
1.92696
1.91806
1.91278
1.90939
1.90666
1.90343
1.89935
1.89325
1.88572
1.87971
1.87506
1.87095
1.86721
1.86339
1.85841
1.851
1.84242
1.83444
2.36173
2.34709
2.32033
2.29209
2.28082
2.27093
2.25043
2.22381
2.20628
2.18823
2.16665
2.14955
2.13175
2.10506
2.0791
2.06371
2.04905
2.02826
2.001
1.97502
1.95878
1.94116
1.92231
1.90348
1.87984
1.8568
1.83207
1.8117
1.80554
1.8033
1.82042
1.87647
1.94379
1.99463
2.01894
2.02005
2.01397
2.0016
1.98994
1.98126
1.97591
1.97107
1.96379
1.95481
1.94668
1.9399
1.93362
1.9266
1.91667
1.90276
1.8931
1.88946
1.88691
1.88266
1.87689
1.86783
1.8532
1.84243
1.83966
1.83766
1.83366
1.82762
1.81994
1.80941
1.80376
1.80604
1.82139
1.85491
1.89028
1.92825
1.94539
1.94582
1.94184
1.93406
1.93029
1.92823
1.92523
1.92211
1.91817
1.91184
1.90554
1.90212
1.89903
1.89558
1.89165
1.88708
1.88121
1.87483
1.87054
1.86757
1.86397
1.85985
1.85518
1.8492
1.84141
1.83136
2.36717
2.34728
2.31894
2.29504
2.28565
2.27473
2.25191
2.22346
2.20729
2.19438
2.1735
2.15109
2.13272
2.11023
2.08574
2.06833
2.05355
2.034
2.00922
1.98196
1.96298
1.94739
1.9296
1.91075
1.8898
1.8669
1.84764
1.8275
1.80801
1.79688
1.79377
1.80142
1.8395
1.90667
1.97436
1.99438
1.99324
1.99293
1.99039
1.98401
1.9757
1.9647
1.95168
1.94053
1.93417
1.92876
1.92345
1.9175
1.9091
1.89621
1.8838
1.87663
1.87189
1.86763
1.8625
1.8557
1.84578
1.83342
1.82405
1.81708
1.81169
1.80775
1.8054
1.80272
1.80592
1.82249
1.85911
1.89218
1.91619
1.93771
1.94406
1.94355
1.93837
1.9295
1.92419
1.92183
1.9205
1.91792
1.91523
1.91201
1.90648
1.89932
1.89381
1.89014
1.88746
1.88484
1.88182
1.87801
1.8724
1.86553
1.86053
1.85632
1.85234
1.84858
1.84497
1.83718
2.41181
2.37327
2.33569
2.31122
2.29927
2.28386
2.25788
2.23061
2.21432
2.20173
2.1812
2.15446
2.13311
2.11496
2.09424
2.07493
2.05913
2.04224
2.02006
1.99487
1.97242
1.95691
1.94334
1.92685
1.90734
1.88545
1.86618
1.85164
1.83608
1.81902
1.80515
1.79672
1.79937
1.82629
1.88522
1.95015
1.9775
1.99057
1.99745
1.99338
1.98514
1.97267
1.95649
1.94385
1.93717
1.93182
1.92628
1.91963
1.91027
1.89796
1.88696
1.87918
1.87308
1.86715
1.86037
1.85245
1.84331
1.83358
1.82329
1.81324
1.80692
1.80536
1.80602
1.81457
1.83879
1.87962
1.91339
1.92511
1.93498
1.94397
1.94686
1.94515
1.94074
1.93392
1.92646
1.92265
1.92087
1.9216
1.9206
1.91778
1.91286
1.90416
1.89676
1.89437
1.89313
1.89131
1.88892
1.88553
1.87952
1.87035
1.86318
1.86
1.85815
1.85637
1.85443
1.84804
2.48247
2.43681
2.39537
2.36305
2.34108
2.31669
2.28609
2.25777
2.24049
2.22592
2.20334
2.17491
2.15298
2.13579
2.11877
2.09936
2.07694
2.05591
2.03597
2.01614
1.99752
1.98008
1.96284
1.9461
1.92917
1.91347
1.89935
1.88645
1.87263
1.85582
1.83726
1.82124
1.81487
1.81594
1.82961
1.87371
1.93408
1.97936
2.01141
2.01265
2.00501
1.98949
1.97293
1.95993
1.95092
1.94376
1.93676
1.92846
1.91827
1.90761
1.89806
1.889
1.87957
1.87055
1.86263
1.85504
1.84704
1.83802
1.82786
1.81947
1.81367
1.81367
1.82569
1.85815
1.89887
1.93945
1.95255
1.95454
1.95368
1.9532
1.953
1.95173
1.94943
1.94632
1.94025
1.93369
1.93085
1.92967
1.9292
1.9273
1.92405
1.91904
1.912
1.90541
1.90197
1.89967
1.89734
1.89425
1.88999
1.88443
1.87798
1.87204
1.86864
1.86615
1.86403
1.85776
2.57618
2.53054
2.48479
2.44446
2.41222
2.38209
2.34662
2.31366
2.29047
2.27146
2.24568
2.21668
2.19379
2.1799
2.16024
2.13922
2.11825
2.09558
2.07881
2.06384
2.04799
2.03052
2.01171
1.99426
1.97973
1.96637
1.95324
1.93936
1.92426
1.9081
1.89035
1.87441
1.85851
1.84147
1.83855
1.84463
1.87316
1.92452
1.98456
2.0228
2.02033
2.01128
2.00003
1.98864
1.97698
1.96598
1.95472
1.94315
1.93297
1.92487
1.91671
1.90713
1.89512
1.88075
1.86973
1.86259
1.85523
1.84786
1.84135
1.83562
1.83317
1.84787
1.88631
1.92315
1.95459
1.98018
1.98524
1.98321
1.97483
1.96697
1.96478
1.96417
1.96529
1.96507
1.9633
1.95824
1.95196
1.94855
1.94635
1.94404
1.94144
1.93849
1.93403
1.92761
1.92205
1.91811
1.91464
1.91105
1.90749
1.904
1.89986
1.89435
1.88947
1.88549
1.88216
1.87581
2.62086
2.59023
2.55632
2.52311
2.4917
2.45651
2.41842
2.38447
2.35841
2.33731
2.3108
2.27983
2.25481
2.23755
2.21708
2.19305
2.16989
2.14786
2.12854
2.11219
2.09584
2.07806
2.05859
2.03876
2.02117
2.00611
1.99158
1.97648
1.96048
1.94337
1.92577
1.90779
1.89229
1.87823
1.86593
1.855
1.85668
1.87317
1.91674
1.98488
2.01882
2.02911
2.02741
2.01891
2.00602
1.9915
1.97398
1.9596
1.95175
1.94522
1.93863
1.92953
1.91752
1.90009
1.88342
1.87429
1.86707
1.86323
1.86614
1.87017
1.88773
1.93119
1.96637
1.98384
2.00341
2.01552
2.01556
2.0109
2.00165
1.99207
1.98924
1.98847
1.98942
1.9902
1.98923
1.98683
1.98124
1.97586
1.97273
1.97009
1.96732
1.96418
1.96019
1.95486
1.94896
1.94426
1.94057
1.9372
1.93391
1.93046
1.92629
1.92096
1.91522
1.91024
1.90649
1.90013
2.63578
2.61682
2.59516
2.57146
2.54505
2.51426
2.48266
2.4542
2.43094
2.4075
2.37616
2.34364
2.31825
2.29931
2.27845
2.2533
2.22734
2.20562
2.18577
2.16772
2.15012
2.13109
2.11004
2.08831
2.06872
2.05187
2.03616
2.02026
2.00351
1.98531
1.9663
1.94709
1.92981
1.91372
1.89934
1.88322
1.87053
1.86153
1.86904
1.90682
1.9705
2.01001
2.03576
2.03708
2.02908
2.01388
1.99221
1.97408
1.96543
1.95997
1.95579
1.9481
1.93814
1.92217
1.90158
1.89125
1.88431
1.88786
1.90079
1.93067
1.97871
2.02042
2.03037
2.0346
2.03744
2.03908
2.03818
2.0365
2.03283
2.0254
2.02069
2.01916
2.01847
2.01827
2.0173
2.01551
2.01162
2.00612
2.00207
1.99916
1.99629
1.99309
1.98924
1.98435
1.97871
1.97343
1.96912
1.96559
1.96229
1.95878
1.95453
1.94899
1.94252
1.93639
1.93208
1.92563
2.63489
2.62116
2.60655
2.58907
2.56844
2.5454
2.522
2.49998
2.47922
2.45412
2.42467
2.39673
2.37427
2.35623
2.3339
2.30651
2.2776
2.25533
2.23509
2.21564
2.19638
2.17538
2.15239
2.12975
2.10958
2.09146
2.07429
2.05689
2.03832
2.01828
1.99808
1.97885
1.96061
1.94318
1.92605
1.90915
1.89079
1.87428
1.86221
1.86516
1.89311
1.94666
2.00012
2.03847
2.03948
2.02783
2.00751
1.98743
1.97453
1.96688
1.96219
1.95567
1.94678
1.93418
1.91983
1.90962
1.91068
1.9205
1.96341
2.01548
2.0595
2.07644
2.0752
2.0696
2.06501
2.06324
2.06272
2.06207
2.05957
2.05531
2.0511
2.04875
2.0473
2.04598
2.04424
2.04162
2.03782
2.03313
2.02879
2.02547
2.02249
2.01914
2.01507
2.01028
2.00514
2.00006
1.99541
1.99148
1.98788
1.98392
1.97893
1.97276
1.96604
1.95976
1.9554
1.94878
2.63704
2.62373
2.60977
2.59417
2.57715
2.55938
2.54154
2.52343
2.50292
2.47853
2.45327
2.43046
2.41193
2.39287
2.36826
2.34002
2.31404
2.29305
2.27247
2.25135
2.22987
2.20675
2.18307
2.1611
2.14103
2.12182
2.10266
2.08276
2.06177
2.04042
2.02022
2.00146
1.98322
1.96477
1.94563
1.92581
1.9058
1.8878
1.87077
1.86123
1.85802
1.87415
1.9203
1.98331
2.02445
2.02464
2.01694
2.00254
1.986
1.97025
1.96048
1.95166
1.94232
1.93696
1.93488
1.93081
1.94231
1.99248
2.04918
2.08009
2.10321
2.105
2.10236
2.09713
2.08969
2.08493
2.08229
2.08039
2.07896
2.07738
2.07549
2.07258
2.0692
2.06636
2.06339
2.06024
2.05726
2.05417
2.0503
2.04554
2.04096
2.03667
2.0324
2.02838
2.0248
2.02127
2.01726
2.01237
2.00672
2.00064
1.99412
1.98797
1.98276
1.97827
1.97425
1.96631
2.64077
2.62698
2.61257
2.59716
2.58114
2.56489
2.54848
2.53098
2.51086
2.48882
2.46701
2.44768
2.43092
2.40921
2.38329
2.35719
2.33576
2.3165
2.29548
2.27242
2.24748
2.22326
2.20137
2.18088
2.16106
2.141
2.11961
2.09656
2.07351
2.05231
2.03311
2.01528
1.99746
1.97845
1.95734
1.93515
1.91372
1.89557
1.87934
1.8642
1.85454
1.84434
1.85088
1.89153
1.95188
1.99674
2.01275
2.00967
1.99513
1.9766
1.95706
1.9445
1.93897
1.94075
1.9465
1.96753
2.0206
2.08159
2.10047
2.10796
2.11417
2.11709
2.11502
2.11102
2.10384
2.09664
2.09367
2.09229
2.0926
2.09236
2.09056
2.08739
2.08219
2.07798
2.07521
2.07264
2.06993
2.0667
2.06216
2.05569
2.04996
2.04649
2.04361
2.0409
2.03811
2.03469
2.03008
2.02317
2.01472
2.00775
2.00274
1.99872
1.995
1.99079
1.98606
1.97603
2.64275
2.62961
2.61508
2.59986
2.58417
2.5681
2.55134
2.53297
2.51288
2.49227
2.47294
2.45616
2.43719
2.41279
2.38637
2.36419
2.3459
2.32746
2.30531
2.28021
2.25384
2.23072
2.21031
2.1909
2.17142
2.1507
2.12731
2.10226
2.07862
2.05814
2.04007
2.02314
2.00582
1.98643
1.96379
1.94001
1.91826
1.90028
1.88455
1.86904
1.85421
1.84065
1.82553
1.82775
1.86297
1.92185
1.97368
1.99496
1.99235
1.9778
1.95587
1.94192
1.94127
1.94824
1.97886
2.03551
2.10016
2.12208
2.12135
2.11882
2.11797
2.11993
2.11824
2.11493
2.10885
2.10264
2.10057
2.09952
2.09979
2.09896
2.09676
2.093
2.08736
2.08322
2.08061
2.07812
2.07534
2.072
2.06752
2.06183
2.05678
2.05332
2.0505
2.04778
2.04452
2.04053
2.03476
2.02705
2.0197
2.01416
2.01
2.00632
2.00245
1.99752
1.99165
1.98081
2.6418
2.62992
2.61578
2.60104
2.58554
2.56913
2.55149
2.53267
2.5135
2.4949
2.47759
2.46001
2.43702
2.41124
2.3884
2.36887
2.3515
2.33142
2.30862
2.28279
2.25714
2.23517
2.21526
2.19573
2.17558
2.15391
2.12986
2.10489
2.08199
2.0621
2.04416
2.02695
2.00922
1.98954
1.96701
1.94379
1.92264
1.90408
1.88816
1.87265
1.85684
1.84025
1.82254
1.80798
1.80979
1.83932
1.89464
1.94846
1.97271
1.96792
1.95003
1.94341
1.95028
1.98561
2.04263
2.10378
2.12746
2.1269
2.12444
2.12038
2.11888
2.1189
2.11722
2.11469
2.11038
2.10622
2.10436
2.10308
2.10232
2.10084
2.09844
2.09458
2.08995
2.08612
2.08291
2.08002
2.07716
2.07396
2.07003
2.06549
2.06125
2.05741
2.05376
2.05032
2.04653
2.04169
2.03575
2.0295
2.02377
2.01895
2.01458
2.01031
2.00565
1.99997
1.99395
1.98367
2.64072
2.62948
2.61575
2.6014
2.58602
2.56959
2.55207
2.53388
2.51562
2.49758
2.47965
2.45971
2.43677
2.41347
2.39229
2.37328
2.35415
2.33219
2.30846
2.28375
2.26062
2.23952
2.21888
2.19834
2.17719
2.15416
2.13028
2.10741
2.08642
2.06659
2.04727
2.02859
2.00936
1.98869
1.96794
1.94801
1.92905
1.9101
1.89141
1.87337
1.85546
1.83793
1.82128
1.80624
1.79429
1.79245
1.81155
1.86119
1.92195
1.94041
1.94216
1.9579
1.99668
2.0531
2.09771
2.1269
2.13384
2.13033
2.12563
2.12204
2.11833
2.11571
2.11371
2.11145
2.10955
2.10812
2.10664
2.10486
2.10305
2.10085
2.09776
2.09417
2.09082
2.08767
2.08442
2.08102
2.0777
2.07416
2.07049
2.06698
2.06358
2.05973
2.05527
2.05069
2.04592
2.04067
2.03553
2.03092
2.02671
2.02227
2.01724
2.01174
2.006
2
1.99474
1.98574
2.64038
2.62902
2.61538
2.60117
2.58589
2.56969
2.55272
2.53524
2.5174
2.49912
2.47969
2.45809
2.43609
2.41583
2.39702
2.37696
2.35433
2.33028
2.30699
2.28529
2.26467
2.24393
2.22252
2.19982
2.17586
2.15206
2.12986
2.10996
2.09112
2.07192
2.05145
2.0291
2.00631
1.98532
1.96687
1.95045
1.93437
1.91686
1.89734
1.87566
1.85441
1.83527
1.81854
1.80345
1.78899
1.77719
1.77151
1.78802
1.83584
1.89501
1.94559
2.00767
2.07066
2.1066
2.11929
2.12512
2.1279
2.12756
2.12447
2.12083
2.11597
2.11087
2.10877
2.10835
2.10847
2.10937
2.10875
2.10682
2.10297
2.09858
2.09544
2.0931
2.09091
2.08864
2.08577
2.0819
2.0774
2.07339
2.07015
2.06735
2.06445
2.06097
2.05625
2.05007
2.0442
2.03955
2.03558
2.03199
2.02829
2.024
2.01857
2.01201
2.00552
1.99966
1.99501
1.98669
2.64064
2.6293
2.61558
2.60136
2.58617
2.57027
2.55375
2.53658
2.51853
2.49926
2.47868
2.45797
2.43831
2.42009
2.4013
2.37834
2.35387
2.32932
2.30735
2.28791
2.26827
2.24741
2.22505
2.19979
2.17318
2.1497
2.13038
2.11297
2.09562
2.07668
2.05382
2.02699
2.00144
1.98195
1.96695
1.9535
1.93963
1.9229
1.89987
1.87253
1.84911
1.83214
1.81884
1.80585
1.79166
1.77585
1.75469
1.74936
1.76804
1.83635
1.95102
2.04848
2.1198
2.15865
2.14908
2.13154
2.12515
2.12361
2.12193
2.11899
2.11388
2.10802
2.10657
2.10663
2.10931
2.11116
2.11003
2.10721
2.10166
2.09653
2.09399
2.09219
2.0911
2.08932
2.08679
2.0823
2.07655
2.07295
2.07023
2.06742
2.06447
2.06104
2.05598
2.04867
2.04257
2.03901
2.03598
2.0328
2.02924
2.02493
2.01914
2.01168
2.00454
1.999
1.99489
1.98719
)
;

boundaryField
{
    inlet
    {
        type            fixedValue;
        value           uniform 1;
    }
    outlet
    {
        type            inletOutlet;
        inletValue      uniform 1;
        value           nonuniform List<scalar> 
32
(
2.46466
2.44873
2.4164
2.37052
2.30599
2.23861
2.18006
2.13777
2.11245
2.0904
2.06211
2.01779
1.95849
1.90515
1.86771
1.8454
1.83451
1.83143
1.83711
1.84775
1.85763
1.87577
1.9002
1.92584
1.94905
1.96632
1.97575
1.9806
1.98361
1.98578
1.98676
1.98731
)
;
    }
    bottom
    {
        type            symmetryPlane;
    }
    top
    {
        type            symmetryPlane;
    }
    obstacle
    {
        type            zeroGradient;
    }
    defaultFaces
    {
        type            empty;
    }
}


// ************************************************************************* //
