/*--------------------------------*- C++ -*----------------------------------*\
  =========                 |
  \\      /  F ield         | OpenFOAM: The Open Source CFD Toolbox
   \\    /   O peration     | Website:  https://openfoam.org
    \\  /    A nd           | Version:  7
     \\/     M anipulation  |
\*---------------------------------------------------------------------------*/
FoamFile
{
    version     2.0;
    format      ascii;
    class       volVectorField;
    location    "9.5";
    object      U;
}
// * * * * * * * * * * * * * * * * * * * * * * * * * * * * * * * * * * * * * //

dimensions      [0 1 -1 0 0 0 0];

internalField   nonuniform List<vector> 
4032
(
(3 -3.98136e-17 0)
(3 -2.49968e-17 0)
(3 -1.25545e-16 0)
(3 4.79792e-17 0)
(3 -1.61553e-16 0)
(3 -5.65872e-16 0)
(3 -4.43201e-16 0)
(3 -3.30139e-16 0)
(3 -1.26375e-16 0)
(3 2.58193e-16 0)
(3 5.39427e-16 0)
(2.90008 0.0032052 0)
(0.988222 0.0160688 0)
(0.709591 0.0193521 0)
(0.657826 0.0241455 0)
(0.597977 0.0256013 0)
(0.539035 0.0268051 0)
(0.478291 0.0281293 0)
(0.415787 0.0296229 0)
(0.350862 0.0314136 0)
(0.283 0.0334096 0)
(0.210617 0.0364527 0)
(0.131979 0.0391009 0)
(0.0494272 0.0445647 0)
(3 -1.62278e-16 0)
(3 -2.98497e-16 0)
(3 -4.77813e-16 0)
(3 -3.15603e-16 0)
(3 -1.68295e-16 0)
(3 -5.63704e-16 0)
(3 -9.26441e-16 0)
(3 -9.85346e-16 0)
(3 -9.02437e-16 0)
(3 -4.62171e-16 0)
(3 8.51687e-17 0)
(2.91011 0.0202741 0)
(0.994223 0.0743217 0)
(0.695497 0.0666606 0)
(0.64141 0.0707797 0)
(0.582687 0.075323 0)
(0.524 0.0797389 0)
(0.463016 0.084387 0)
(0.399987 0.0891395 0)
(0.33479 0.0946493 0)
(0.267466 0.100588 0)
(0.197414 0.110232 0)
(0.122214 0.11887 0)
(0.0459754 0.134597 0)
(3 -2.23384e-17 0)
(3 -2.19423e-16 0)
(3 -8.6541e-17 0)
(3 -3.09571e-16 0)
(3 -2.86693e-16 0)
(3 -2.1292e-16 0)
(3 -1.18278e-15 0)
(3 -1.72289e-15 0)
(3 -1.20992e-15 0)
(3 -3.44954e-16 0)
(3 -5.83113e-16 0)
(2.95412 0.0404628 0)
(1.03177 0.137815 0)
(0.710911 0.115818 0)
(0.65646 0.122341 0)
(0.595718 0.129804 0)
(0.534901 0.13738 0)
(0.471768 0.145432 0)
(0.406164 0.153385 0)
(0.337866 0.162055 0)
(0.266948 0.170143 0)
(0.194398 0.183584 0)
(0.117687 0.195129 0)
(0.0438133 0.217486 0)
(3 2.08259e-16 0)
(3 1.63296e-16 0)
(3 -2.53258e-17 0)
(3 9.99865e-17 0)
(3 -1.92212e-16 0)
(3 -8.30987e-16 0)
(3 -1.12607e-15 0)
(3 -8.09057e-16 0)
(3 -1.07242e-16 0)
(3 3.14218e-16 0)
(3 -1.09045e-15 0)
(3.00843 0.00638895 0)
(1.10717 0.182253 0)
(0.743733 0.152634 0)
(0.692275 0.166543 0)
(0.632812 0.178542 0)
(0.571808 0.190099 0)
(0.508065 0.202865 0)
(0.440508 0.216139 0)
(0.368317 0.231155 0)
(0.290868 0.244361 0)
(0.211179 0.262848 0)
(0.126836 0.277032 0)
(0.045911 0.302491 0)
(3 -9.18189e-17 0)
(3 -3.89739e-16 0)
(3 -8.1342e-16 0)
(3 -1.20264e-16 0)
(3 1.61383e-16 0)
(3 -5.5644e-16 0)
(3 -7.42157e-16 0)
(3 -2.65934e-16 0)
(3 2.74207e-16 0)
(3 -6.6713e-17 0)
(3 -9.42507e-17 0)
(3.00061 3.09251e-05 0)
(1.21558 0.224428 0)
(0.750245 0.197042 0)
(0.695814 0.21775 0)
(0.639773 0.234291 0)
(0.581422 0.249299 0)
(0.521136 0.266817 0)
(0.45727 0.285671 0)
(0.389364 0.307351 0)
(0.314695 0.325425 0)
(0.235656 0.34859 0)
(0.145568 0.367797 0)
(0.0549919 0.399438 0)
(3 -9.89516e-18 0)
(3 -8.21157e-17 0)
(3 -2.67551e-16 0)
(3 -1.13594e-16 0)
(3 -1.73905e-16 0)
(3 -4.25554e-16 0)
(3 -5.88494e-16 0)
(3 -4.62371e-16 0)
(3 -8.26617e-16 0)
(3 -8.72897e-16 0)
(3 -4.17455e-16 0)
(3 -1.2249e-07 0)
(1.39511 0.274602 0)
(0.765609 0.245302 0)
(0.697087 0.261894 0)
(0.64817 0.281174 0)
(0.59804 0.298897 0)
(0.547622 0.320335 0)
(0.492249 0.344605 0)
(0.430462 0.37506 0)
(0.355192 0.40539 0)
(0.268326 0.443158 0)
(0.166179 0.478364 0)
(0.0561632 0.517328 0)
(3 -1.45077e-16 0)
(3 -9.76568e-17 0)
(3 1.8029e-16 0)
(3 1.23582e-16 0)
(3 -3.32978e-16 0)
(3 -1.90555e-16 0)
(3 -1.47107e-16 0)
(3 -2.65495e-16 0)
(3 -1.2162e-15 0)
(3 -1.40748e-15 0)
(3 3.84674e-16 0)
(3 -1.22293e-07 0)
(1.66891 0.325818 0)
(0.795954 0.309189 0)
(0.696735 0.30861 0)
(0.646023 0.325257 0)
(0.598085 0.343616 0)
(0.554759 0.369874 0)
(0.508442 0.402346 0)
(0.45912 0.444931 0)
(0.397825 0.492029 0)
(0.326563 0.543739 0)
(0.23343 0.594742 0)
(0.101446 0.660493 0)
(3 -1.59997e-16 0)
(3 -1.53817e-16 0)
(3 1.12505e-16 0)
(3 1.86394e-16 0)
(3 9.2931e-16 0)
(3 1.08602e-15 0)
(3 1.10883e-15 0)
(3 7.91551e-16 0)
(3 4.9062e-16 0)
(3 1.15123e-15 0)
(3 1.55374e-15 0)
(3 -2.54923e-08 0)
(2.07169 0.367441 0)
(0.852168 0.394348 0)
(0.716884 0.370035 0)
(0.667223 0.379044 0)
(0.62033 0.392355 0)
(0.579649 0.416731 0)
(0.540649 0.452282 0)
(0.502042 0.50122 0)
(0.457736 0.56055 0)
(0.395688 0.641573 0)
(0.275588 0.757763 0)
(0.151693 0.924954 0)
(3 -2.00944e-17 0)
(3 1.04375e-16 0)
(3 -1.36862e-16 0)
(3 -4.06109e-16 0)
(3 -4.38727e-17 0)
(3 1.12902e-15 0)
(3 1.4946e-15 0)
(3 1.23512e-15 0)
(3 1.09307e-15 0)
(3 1.0709e-15 0)
(3 8.6124e-16 0)
(3 -2.63138e-09 0)
(2.65555 0.303191 0)
(0.984263 0.477838 0)
(0.803385 0.406324 0)
(0.751643 0.414909 0)
(0.694083 0.433363 0)
(0.642757 0.459532 0)
(0.599965 0.496762 0)
(0.563718 0.550083 0)
(0.529864 0.626876 0)
(0.497039 0.751049 0)
(0.465809 0.923299 0)
(0.579403 1.20399 0)
(3 -2.36064e-16 0)
(3 -4.83283e-16 0)
(3 -4.21097e-16 0)
(3 -1.04861e-15 0)
(3 -8.40869e-16 0)
(3 -3.25352e-16 0)
(3 -4.84586e-17 0)
(3 1.65869e-16 0)
(3 5.32813e-16 0)
(3 3.70735e-16 0)
(3 5.79826e-16 0)
(3 -1.05255e-10 0)
(3.07674 0.0427785 0)
(1.21894 0.469458 0)
(0.882185 0.44753 0)
(0.838724 0.474034 0)
(0.78525 0.489782 0)
(0.731032 0.511247 0)
(0.682703 0.544836 0)
(0.643885 0.597075 0)
(0.624449 0.681685 0)
(0.62352 0.816596 0)
(0.686811 0.965614 0)
(0.97037 1.13836 0)
(3 -2.45436e-16 0)
(3 4.50132e-16 0)
(3 3.34024e-16 0)
(3 4.08881e-16 0)
(3 4.84272e-16 0)
(3 3.92947e-16 0)
(3 -4.153e-16 0)
(3 -4.78122e-16 0)
(3 -4.29961e-16 0)
(3 3.77909e-17 0)
(3 9.77674e-16 0)
(3 -2.18317e-12 0)
(3.00865 8.22197e-05 0)
(1.43576 0.462121 0)
(0.884209 0.512209 0)
(0.836677 0.531517 0)
(0.801004 0.550915 0)
(0.772684 0.575541 0)
(0.745159 0.607663 0)
(0.720564 0.651728 0)
(0.723356 0.725633 0)
(0.751239 0.840084 0)
(0.872973 0.963205 0)
(1.18011 1.06874 0)
(3 4.57586e-16 0)
(3 3.61253e-16 0)
(3 3.97301e-16 0)
(3 8.18928e-16 0)
(3 -1.03039e-17 0)
(3 -5.34905e-18 0)
(3 6.48085e-17 0)
(3 5.10346e-17 0)
(3 -2.16612e-17 0)
(3 4.56181e-16 0)
(3 1.05816e-15 0)
(3 -1.72627e-14 0)
(3.00006 -2.51378e-06 0)
(1.94245 0.494228 0)
(0.929038 0.576652 0)
(0.853439 0.560363 0)
(0.83409 0.582008 0)
(0.81975 0.607592 0)
(0.809696 0.642248 0)
(0.801946 0.682705 0)
(0.817609 0.7461 0)
(0.86705 0.837451 0)
(1.01026 0.939834 0)
(1.27436 1.0074 0)
(3 1.48806e-16 0)
(3 -2.34391e-16 0)
(3 1.98057e-16 0)
(3 2.09118e-16 0)
(3 1.76179e-16 0)
(3 3.63278e-16 0)
(3 5.68975e-16 0)
(3 1.92549e-16 0)
(3 2.84454e-16 0)
(3 1.23686e-16 0)
(3 5.66246e-16 0)
(3 1.15784e-15 0)
(3.00001 -3.19151e-06 0)
(2.74671 0.319519 0)
(1.09629 0.635006 0)
(0.920516 0.58099 0)
(0.891421 0.601764 0)
(0.87386 0.63065 0)
(0.87017 0.668872 0)
(0.87651 0.710967 0)
(0.901474 0.76554 0)
(0.966345 0.834539 0)
(1.10588 0.906789 0)
(1.31656 0.948509 0)
(3 -3.3317e-16 0)
(3 -3.95847e-16 0)
(3 -2.91926e-16 0)
(3 -2.8506e-16 0)
(3 -4.35612e-16 0)
(3 -7.90884e-16 0)
(3 -1.10042e-15 0)
(3 -8.6979e-16 0)
(3 -6.52354e-16 0)
(3 -8.76623e-16 0)
(3 -9.81065e-16 0)
(3 -2.63491e-16 0)
(3 -6.73653e-07 0)
(3.07455 0.0261044 0)
(1.43566 0.631819 0)
(1.00187 0.652574 0)
(0.950616 0.652182 0)
(0.924977 0.66663 0)
(0.923261 0.694063 0)
(0.939516 0.73025 0)
(0.974428 0.773653 0)
(1.04772 0.827582 0)
(1.17515 0.8791 0)
(1.34694 0.906483 0)
(3 -4.74817e-16 0)
(3 -2.43677e-16 0)
(3 -6.28368e-16 0)
(3 -6.4254e-16 0)
(3 -6.46453e-16 0)
(3 -1.10371e-15 0)
(3 -8.84043e-16 0)
(3 -5.77395e-16 0)
(3 -5.32842e-16 0)
(3 -2.59771e-16 0)
(3 -4.30077e-16 0)
(3 -6.273e-16 0)
(3 -6.84307e-08 0)
(3.00414 7.37273e-05 0)
(1.98915 0.600119 0)
(1.06341 0.724455 0)
(1.01096 0.702093 0)
(0.995005 0.699042 0)
(0.991408 0.715157 0)
(1.00619 0.741824 0)
(1.04432 0.777714 0)
(1.11492 0.816376 0)
(1.22307 0.849672 0)
(1.35965 0.865508 0)
(3 -2.98124e-17 0)
(3 -1.37079e-16 0)
(3 -6.58112e-16 0)
(3 -5.77221e-16 0)
(3 -1.4086e-16 0)
(3 -9.48887e-18 0)
(3 9.44693e-16 0)
(3 1.35398e-15 0)
(3 1.4574e-15 0)
(3 1.03841e-15 0)
(3 3.83616e-16 0)
(3 -3.43159e-16 0)
(3 -2.16996e-09 0)
(3.00001 -3.2719e-07 0)
(2.93269 0.222002 0)
(1.28164 0.69819 0)
(1.08249 0.7192 0)
(1.0873 0.720514 0)
(1.08184 0.740581 0)
(1.08695 0.762002 0)
(1.1148 0.788195 0)
(1.17547 0.817318 0)
(1.26475 0.839177 0)
(1.37765 0.847745 0)
(3 3.70274e-17 0)
(3 -9.34689e-17 0)
(3 1.13098e-17 0)
(3 -3.09651e-16 0)
(3 -6.51826e-16 0)
(3 -2.05461e-16 0)
(3 -2.69741e-16 0)
(3 -1.80192e-16 0)
(3 8.83156e-18 0)
(3 -1.58518e-16 0)
(3 -2.35512e-16 0)
(3 -6.21462e-16 0)
(3 -4.81114e-12 0)
(3 -7.83207e-07 0)
(3.04124 0.00646398 0)
(1.57254 0.659955 0)
(1.10014 0.756517 0)
(1.11138 0.765391 0)
(1.11727 0.783208 0)
(1.13976 0.795173 0)
(1.17373 0.806018 0)
(1.22767 0.817568 0)
(1.3027 0.827932 0)
(1.39762 0.830635 0)
(3 6.3295e-17 0)
(3 3.29397e-16 0)
(3 1.871e-16 0)
(3 2.28987e-16 0)
(3 1.95418e-16 0)
(3 -3.01715e-16 0)
(3 -9.53982e-16 0)
(3 -1.22517e-15 0)
(3 -8.27704e-16 0)
(3 -9.86929e-16 0)
(3 -3.29894e-16 0)
(3 -1.1096e-16 0)
(3 -5.87002e-15 0)
(3 -1.49936e-07 0)
(3.0008 3.61581e-05 0)
(2.38929 0.510768 0)
(1.20585 0.788982 0)
(1.13547 0.791974 0)
(1.14885 0.795611 0)
(1.17694 0.80539 0)
(1.2168 0.816936 0)
(1.26929 0.827321 0)
(1.33761 0.833569 0)
(1.41845 0.832537 0)
(3 3.70339e-16 0)
(3 6.09094e-16 0)
(3 4.95764e-16 0)
(3 8.24029e-16 0)
(3 8.18932e-16 0)
(3 -1.04065e-16 0)
(3 -2.5324e-16 0)
(3 -2.79888e-16 0)
(3 -4.9765e-16 0)
(3 -4.30946e-16 0)
(3 -3.73675e-16 0)
(3 5.5846e-17 0)
(3 -2.14639e-17 0)
(3 -4.7091e-09 0)
(3.00002 -5.49835e-06 0)
(3.05766 0.0723858 0)
(1.56673 0.776513 0)
(1.18497 0.786254 0)
(1.19834 0.794115 0)
(1.22119 0.806071 0)
(1.25882 0.817104 0)
(1.30804 0.8262 0)
(1.3703 0.830776 0)
(1.44278 0.829417 0)
(3 -3.33706e-17 0)
(3 -3.08349e-16 0)
(3 3.31568e-16 0)
(3 5.61362e-16 0)
(3 6.49186e-16 0)
(3 4.35445e-16 0)
(3 2.05273e-16 0)
(3 -8.69769e-17 0)
(3 -8.98012e-17 0)
(3 -1.01974e-16 0)
(3 -4.55335e-16 0)
(3 -4.64305e-16 0)
(3 -1.27046e-16 0)
(3 -1.70343e-11 0)
(3 -1.38982e-06 0)
(3.00815 0.0013808 0)
(2.29499 0.630797 0)
(1.26379 0.84857 0)
(1.2226 0.833674 0)
(1.25518 0.832948 0)
(1.2892 0.837323 0)
(1.33594 0.841717 0)
(1.39421 0.843485 0)
(1.46058 0.842814 0)
(3 -1.90222e-16 0)
(3 -5.66685e-16 0)
(3 -9.21227e-16 0)
(3 -7.97622e-16 0)
(3 -3.7752e-16 0)
(3 3.37601e-16 0)
(3 3.45728e-16 0)
(3 2.504e-16 0)
(3 -1.12088e-16 0)
(3 -5.04116e-16 0)
(3 -3.1032e-16 0)
(3 -5.09774e-16 0)
(3 -4.17956e-16 0)
(3 -8.21914e-15 0)
(3 -1.18904e-07 0)
(3.00003 9.49002e-06 0)
(3.03939 0.117417 0)
(1.62709 0.827478 0)
(1.26845 0.831068 0)
(1.30221 0.832216 0)
(1.32917 0.837338 0)
(1.37207 0.841006 0)
(1.4237 0.844865 0)
(1.4853 0.843387 0)
(3 3.50573e-17 0)
(3 -2.39741e-16 0)
(3 -5.04968e-16 0)
(3 -6.34172e-16 0)
(3 -7.87993e-16 0)
(3 -3.14075e-16 0)
(3 2.46165e-16 0)
(3 6.9599e-16 0)
(3 3.46812e-16 0)
(3 7.97641e-16 0)
(3 1.35983e-15 0)
(3 1.52411e-15 0)
(3 -1.76257e-16 0)
(3 -7.80727e-17 0)
(3 -1.45642e-09 0)
(3 -1.03582e-07 0)
(3.01057 0.00343723 0)
(2.37278 0.637122 0)
(1.3544 0.885773 0)
(1.32139 0.872224 0)
(1.35944 0.865675 0)
(1.39866 0.868622 0)
(1.44355 0.86668 0)
(1.48615 0.855836 0)
(3 1.79063e-17 0)
(3 -2.26838e-16 0)
(3 -3.39028e-16 0)
(3 -7.43472e-16 0)
(3 -3.84821e-16 0)
(3 -5.05785e-16 0)
(3 -2.36279e-16 0)
(3 1.54319e-16 0)
(3 1.86064e-16 0)
(3 4.69743e-16 0)
(3 6.68801e-16 0)
(3 1.3284e-15 0)
(3 1.1867e-15 0)
(3 4.7036e-16 0)
(3 -3.28661e-12 0)
(3 -2.59315e-08 0)
(3.00005 4.18826e-05 0)
(3.03361 0.104774 0)
(1.75601 0.835605 0)
(1.35647 0.876466 0)
(1.40871 0.876685 0)
(1.44168 0.874965 0)
(1.46182 0.868199 0)
(1.46083 0.805256 0)
(3 3.04206e-17 0)
(3 3.71226e-16 0)
(3 6.37455e-18 0)
(3 -1.99298e-16 0)
(3 -1.76925e-16 0)
(3 -6.19501e-17 0)
(3 2.44216e-16 0)
(3 1.17118e-16 0)
(3 -6.73184e-17 0)
(3 -4.11324e-16 0)
(3 -9.03068e-16 0)
(3 -6.7791e-16 0)
(3 -1.05402e-16 0)
(3 -3.03006e-16 0)
(3 -1.91165e-15 0)
(3 -2.45761e-09 0)
(3 2.45073e-08 0)
(3.0063 0.00417622 0)
(2.59002 0.524906 0)
(1.51372 0.908634 0)
(1.45066 0.929561 0)
(1.4513 0.907653 0)
(1.43339 0.834762 0)
(1.38742 0.711606 0)
(3 1.96566e-16 0)
(3 7.243e-16 0)
(3 1.04545e-15 0)
(3 7.9867e-16 0)
(3 1.10279e-16 0)
(3 -1.31846e-16 0)
(3 5.44012e-17 0)
(3 1.6893e-16 0)
(3 3.52323e-16 0)
(3 -1.03269e-16 0)
(3 -7.42777e-16 0)
(3 -1.58479e-15 0)
(3 -1.65609e-15 0)
(3 -1.0995e-15 0)
(3 -9.38674e-16 0)
(3 -9.87279e-11 0)
(3 -9.65903e-11 0)
(3.00002 4.38173e-05 0)
(3.02461 0.0540406 0)
(2.01274 0.777936 0)
(1.51072 0.975036 0)
(1.41256 0.85204 0)
(1.35912 0.712435 0)
(1.32899 0.603071 0)
(3 -6.69218e-17 0)
(3 -1.19809e-16 0)
(3 3.2611e-16 0)
(3 4.45726e-16 0)
(3 4.39923e-16 0)
(3 -2.31532e-16 0)
(3 -6.9351e-16 0)
(3 -6.92424e-16 0)
(3 -6.32839e-16 0)
(3 -9.1575e-16 0)
(3 -1.14382e-15 0)
(3 -1.40376e-15 0)
(3 -1.30656e-15 0)
(3 -1.16614e-15 0)
(3 -5.42561e-16 0)
(3 -8.72319e-13 0)
(3 -3.04424e-11 0)
(3 3.11211e-08 0)
(3.00133 0.00244173 0)
(2.86364 0.308535 0)
(1.72154 0.967943 0)
(1.29114 0.704492 0)
(1.28158 0.61782 0)
(1.29814 0.564219 0)
(3 -2.66662e-16 0)
(3 -3.67174e-16 0)
(3 -2.22854e-17 0)
(3 3.01403e-16 0)
(3 1.09566e-15 0)
(3 8.15487e-16 0)
(3 -1.19036e-16 0)
(3 -1.32957e-15 0)
(3 -2.26178e-15 0)
(3 -1.54326e-15 0)
(3 -1.26562e-15 0)
(3 -1.50633e-15 0)
(3 -1.59371e-15 0)
(3 -1.43788e-15 0)
(3 -8.82308e-16 0)
(3 -2.73825e-15 0)
(3 -3.97127e-12 0)
(3 2.04382e-12 0)
(3 1.37941e-05 0)
(3.01459 0.0197068 0)
(2.04307 0.612451 0)
(1.20745 0.586169 0)
(1.21426 0.557019 0)
(1.28256 0.532153 0)
(3 -2.54634e-17 0)
(3 3.91564e-16 0)
(3 3.47014e-16 0)
(3 4.20716e-16 0)
(3 2.47031e-16 0)
(3 2.13545e-16 0)
(3 3.1085e-16 0)
(3 -7.63599e-17 0)
(3 -1.1615e-15 0)
(3 -1.92596e-15 0)
(3 -2.49494e-15 0)
(3 -2.15653e-15 0)
(3 -2.06808e-15 0)
(3 -1.88209e-15 0)
(3 -2.43872e-15 0)
(3 -2.12612e-15 0)
(3 -2.48675e-13 0)
(3 -2.48077e-13 0)
(3 1.02199e-08 0)
(3.00016 0.000451625 0)
(2.19616 0.232572 0)
(1.04545 0.411479 0)
(1.12075 0.464749 0)
(1.2373 0.462603 0)
(3 -1.11569e-16 0)
(3 -1.32451e-16 0)
(3 -3.38526e-16 0)
(3 -7.26714e-16 0)
(3 -8.55435e-16 0)
(3 1.53428e-16 0)
(3 4.33236e-16 0)
(3 1.06368e-16 0)
(3 1.57139e-17 0)
(3 -5.56433e-16 0)
(3 -1.05189e-15 0)
(3 -1.58293e-15 0)
(3 -8.95034e-16 0)
(3 -4.12272e-16 0)
(3 -3.91307e-16 0)
(3 -6.54862e-16 0)
(3 -4.53056e-15 0)
(3 -8.33072e-14 0)
(3 3.44239e-12 0)
(3 7.48056e-07 0)
(2.17648 0.186012 0)
(0.892326 0.308937 0)
(0.932957 0.395484 0)
(1.08322 0.424624 0)
(3 -8.25307e-17 0)
(3 -2.79614e-16 0)
(3 -2.21541e-16 0)
(3 -3.03607e-16 0)
(3 1.19423e-16 0)
(3 9.91512e-17 0)
(3 -2.05228e-16 0)
(3 -2.74026e-16 0)
(3 5.40731e-17 0)
(3 8.34479e-16 0)
(3 1.34981e-15 0)
(3 9.20966e-16 0)
(3 1.2751e-15 0)
(3 1.35482e-15 0)
(3 1.57666e-15 0)
(3 9.73279e-16 0)
(3 -4.0868e-17 0)
(3 -1.18345e-14 0)
(3 -1.28084e-14 0)
(3 3.19741e-10 0)
(2.3433 0.204345 0)
(0.883178 0.259414 0)
(0.82584 0.299089 0)
(0.935579 0.321306 0)
(3 2.08317e-16 0)
(3 -2.49407e-16 0)
(3 3.28217e-16 0)
(3 5.2129e-16 0)
(3 2.08342e-16 0)
(3 5.83309e-17 0)
(3 -6.73934e-17 0)
(3 3.57855e-16 0)
(3 4.37134e-16 0)
(3 5.66017e-16 0)
(3 1.98983e-15 0)
(3 2.10075e-15 0)
(3 1.97263e-15 0)
(3 1.756e-15 0)
(3 1.66451e-15 0)
(3 2.08898e-15 0)
(3 1.29294e-15 0)
(3 -1.42967e-15 0)
(3 -5.31517e-15 0)
(3 3.09059e-14 0)
(2.62205 0.192571 0)
(0.944768 0.255523 0)
(0.825282 0.254204 0)
(0.884104 0.254798 0)
(3 1.13971e-16 0)
(3 3.27052e-17 0)
(3 -2.91539e-17 0)
(3 1.12055e-16 0)
(3 -1.71505e-16 0)
(3 -1.79117e-16 0)
(3 6.51684e-17 0)
(3 2.64467e-16 0)
(3 5.94076e-16 0)
(3 1.0533e-15 0)
(3 1.21014e-15 0)
(3 1.05046e-15 0)
(3 1.58495e-15 0)
(3 2.65293e-15 0)
(3 2.45931e-15 0)
(3 2.18947e-15 0)
(3 6.39177e-16 0)
(3 -4.99487e-16 0)
(3 -1.91677e-15 0)
(3 -1.97272e-15 0)
(2.89782 0.0949633 0)
(1.04558 0.241165 0)
(0.84213 0.225815 0)
(0.891659 0.221062 0)
(3 -6.32437e-18 0)
(3 1.02874e-16 0)
(3 -3.51301e-16 0)
(3 -7.31964e-16 0)
(3 -6.57859e-16 0)
(3 -8.60664e-16 0)
(3 -9.44623e-16 0)
(3 -6.22911e-16 0)
(3 4.02847e-16 0)
(3 1.11506e-15 0)
(3 1.1817e-15 0)
(3 1.37652e-15 0)
(3 1.5304e-15 0)
(3 1.32722e-15 0)
(3 1.27105e-15 0)
(3 6.9032e-16 0)
(3 2.8637e-16 0)
(3 1.57727e-16 0)
(3 -1.14962e-15 0)
(3 -2.47098e-15 0)
(2.9631 0.0121407 0)
(1.09353 0.203815 0)
(0.839864 0.192667 0)
(0.88863 0.192139 0)
(3 -3.23887e-17 0)
(3 -1.30229e-17 0)
(3 -3.11657e-16 0)
(3 -4.44162e-16 0)
(3 -4.7254e-16 0)
(3 -2.57246e-16 0)
(3 -1.51706e-16 0)
(3 -1.08349e-16 0)
(3 2.45824e-16 0)
(3 1.16426e-15 0)
(3 1.75025e-15 0)
(3 2.01459e-15 0)
(3 1.49697e-15 0)
(3 5.1968e-16 0)
(3 -2.29153e-16 0)
(3 -7.26809e-16 0)
(3 -1.0267e-15 0)
(3 -7.31031e-16 0)
(3 -1.78707e-15 0)
(3 -1.66948e-15 0)
(2.98718 0.00396098 0)
(1.11742 0.170942 0)
(0.820885 0.165201 0)
(0.866925 0.1647 0)
(3 5.15909e-17 0)
(3 2.36963e-16 0)
(3 1.7255e-16 0)
(3 5.91941e-16 0)
(3 1.40481e-15 0)
(3 1.66468e-15 0)
(3 2.2222e-15 0)
(3 1.96181e-15 0)
(3 9.29537e-16 0)
(3 2.07371e-16 0)
(3 4.98463e-16 0)
(3 1.63107e-15 0)
(3 1.25078e-15 0)
(3 3.79522e-16 0)
(3 -7.55881e-16 0)
(3 -1.68769e-15 0)
(3 -1.99493e-15 0)
(3 -1.875e-15 0)
(3 -1.71903e-15 0)
(3 -1.42948e-15 0)
(2.99983 0.000392942 0)
(1.16469 0.149079 0)
(0.811174 0.137911 0)
(0.845415 0.136936 0)
(3 -2.80843e-17 0)
(3 3.86921e-16 0)
(3 8.17675e-16 0)
(3 1.01815e-15 0)
(3 8.65456e-16 0)
(3 1.10269e-15 0)
(3 6.31555e-16 0)
(3 1.97118e-16 0)
(3 -1.5341e-16 0)
(3 -6.29877e-16 0)
(3 -5.5186e-16 0)
(3 -2.40774e-16 0)
(3 -5.13306e-17 0)
(3 -3.78222e-16 0)
(3 -7.61289e-16 0)
(3 -8.12228e-16 0)
(3 -7.02605e-16 0)
(3 -2.85825e-16 0)
(3 -1.26724e-16 0)
(3 -7.80372e-16 0)
(3 9.65166e-07 0)
(1.24031 0.133163 0)
(0.815991 0.115008 0)
(0.837382 0.109447 0)
(3 1.61237e-16 0)
(3 2.14005e-16 0)
(3 2.5745e-16 0)
(3 4.84399e-17 0)
(3 -3.42936e-16 0)
(3 -5.01268e-16 0)
(3 -1.23283e-15 0)
(3 -2.34303e-15 0)
(3 -2.15953e-15 0)
(3 -1.24648e-15 0)
(3 -5.38605e-16 0)
(3 -1.65837e-16 0)
(3 -1.44886e-16 0)
(3 -5.5671e-16 0)
(3 -7.50721e-16 0)
(3 -4.37166e-16 0)
(3 -2.06003e-16 0)
(3 -2.73019e-16 0)
(3 8.98331e-18 0)
(3 1.69255e-16 0)
(3 7.13096e-10 0)
(1.32156 0.112461 0)
(0.824931 0.0934642 0)
(0.835101 0.0859456 0)
(3 2.72892e-17 0)
(3 5.17718e-17 0)
(3 -2.8003e-16 0)
(3 -3.31541e-16 0)
(3 -9.17264e-17 0)
(3 -5.25709e-16 0)
(3 -5.52716e-16 0)
(3 -1.46067e-16 0)
(3 -6.89874e-16 0)
(3 -5.40397e-16 0)
(3 -1.69933e-16 0)
(3 4.96683e-16 0)
(3 6.21597e-16 0)
(3 7.69038e-16 0)
(3 1.05008e-15 0)
(3 3.16785e-16 0)
(3 -2.02709e-16 0)
(3 -1.04936e-15 0)
(3 -7.71718e-16 0)
(3 -2.09511e-16 0)
(3 6.83167e-14 0)
(1.39211 0.0825716 0)
(0.829318 0.0674376 0)
(0.837449 0.062849 0)
(3 -9.3318e-19 0)
(3 5.69266e-17 0)
(3 9.07453e-17 0)
(3 4.00214e-16 0)
(3 6.68873e-16 0)
(3 7.24343e-16 0)
(3 7.75048e-16 0)
(3 1.72014e-15 0)
(3 2.04569e-15 0)
(3 1.43238e-15 0)
(3 5.47789e-16 0)
(3 1.9864e-16 0)
(3 1.18006e-16 0)
(3 4.98098e-16 0)
(3 1.26637e-15 0)
(3 9.87113e-16 0)
(3 5.21015e-16 0)
(3 -4.66206e-16 0)
(3 3.8451e-16 0)
(3 -1.53279e-16 0)
(3 2.48616e-15 0)
(1.44076 0.046071 0)
(0.830863 0.0389886 0)
(0.837829 0.0379594 0)
(3 1.87251e-16 0)
(3 3.25586e-16 0)
(3 2.66692e-16 0)
(3 2.74618e-16 0)
(3 2.7441e-16 0)
(3 5.80775e-16 0)
(3 4.48298e-16 0)
(3 1.18256e-15 0)
(3 1.23603e-15 0)
(3 9.30216e-16 0)
(3 5.46302e-16 0)
(3 -1.86245e-16 0)
(3 -1.47363e-16 0)
(3 -3.54549e-17 0)
(3 9.09135e-18 0)
(3 2.34341e-16 0)
(3 4.35288e-16 0)
(3 3.9194e-16 0)
(3 1.24251e-15 0)
(3 9.93824e-16 0)
(3 2.02753e-15 0)
(1.45458 0.0103709 0)
(0.824444 0.0113487 0)
(0.829944 0.0127511 0)
(1.48613 1.28654 0)
(1.96587 1.24916 0)
(2.30007 1.31564 0)
(2.40852 0.78246 0)
(2.46519 0.392804 0)
(2.50923 0.0285397 0)
(2.55578 -0.269994 0)
(2.58045 -0.367094 0)
(2.5056 -0.329901 0)
(2.42419 -0.322159 0)
(2.37853 -0.280736 0)
(2.35823 -0.190673 0)
(2.36169 -0.14221 0)
(2.42608 -0.1482 0)
(2.16555 -0.0732592 0)
(1.0282 0.00795328 0)
(0.741837 0.0216248 0)
(0.680465 0.0261639 0)
(0.666714 0.0228569 0)
(0.666899 0.0127207 0)
(0.653317 0.00197088 0)
(0.642686 -0.00530975 0)
(0.645367 -0.00747647 0)
(0.658142 -0.00927205 0)
(0.673576 -0.0114115 0)
(0.687483 -0.0140173 0)
(0.703413 -0.0164214 0)
(0.724788 -0.0182158 0)
(0.747438 -0.0187206 0)
(0.766247 -0.0175655 0)
(0.780264 -0.0163802 0)
(0.795489 -0.0161745 0)
(0.816468 -0.0165501 0)
(0.842419 -0.0176293 0)
(0.869415 -0.0185273 0)
(0.892719 -0.0181668 0)
(0.911459 -0.0165752 0)
(0.930791 -0.0154431 0)
(0.954866 -0.0154957 0)
(0.984553 -0.0165917 0)
(1.0151 -0.0184787 0)
(1.04196 -0.0191221 0)
(1.06156 -0.0173153 0)
(1.07919 -0.0146122 0)
(1.09998 -0.0124575 0)
(1.12689 -0.0119097 0)
(1.15752 -0.0128257 0)
(1.18453 -0.0141538 0)
(1.20646 -0.0143737 0)
(1.22628 -0.0137771 0)
(1.24683 -0.0128488 0)
(1.27038 -0.0123421 0)
(1.29885 -0.0126063 0)
(1.32978 -0.0128201 0)
(1.35627 -0.0121189 0)
(1.37646 -0.0104934 0)
(1.39546 -0.00888111 0)
(1.41511 -0.00722192 0)
(1.43646 -0.00575611 0)
(1.46233 -0.00479532 0)
(1.49053 -0.00418669 0)
(1.51176 -0.00364724 0)
(1.52972 -0.00297075 0)
(1.54579 -0.0014273 0)
(1.56033 0.00030332 0)
(1.57619 0.00109526 0)
(1.59294 0.00125554 0)
(1.61133 0.00108509 0)
(1.63338 0.000406253 0)
(1.6545 -0.000212075 0)
(1.67205 -0.000355413 0)
(1.68905 -0.000366912 0)
(1.70476 -8.65464e-05 0)
(1.71857 0.000691602 0)
(1.73106 0.00202715 0)
(1.74497 0.0035756 0)
(1.76109 0.00470826 0)
(1.77843 0.00524101 0)
(1.79665 0.00539522 0)
(1.81574 0.00545544 0)
(1.83462 0.00550636 0)
(1.85131 0.00624598 0)
(1.86395 0.00628461 0)
(1.85433 -0.000463592 0)
(1.82361 -0.00957619 0)
(1.60651 -0.0151003 0)
(1.30489 -0.0129617 0)
(1.29421 -0.0110744 0)
(1.34039 -0.0114115 0)
(1.37169 -0.0103773 0)
(1.38917 -0.00837306 0)
(1.3987 -0.00666854 0)
(1.40453 -0.00357764 0)
(1.40996 -0.00186161 0)
(1.41795 -0.00175532 0)
(1.42963 -0.00328685 0)
(1.7596 1.11147 0)
(2.27546 0.820031 0)
(2.54727 0.385059 0)
(2.64622 0.113639 0)
(2.65556 -0.209356 0)
(2.65571 -0.433032 0)
(2.72178 -0.574761 0)
(2.73332 -0.6799 0)
(2.73375 -0.642164 0)
(2.67084 -0.544581 0)
(2.57458 -0.407644 0)
(2.48346 -0.250917 0)
(2.46102 -0.152303 0)
(2.49818 -0.128873 0)
(2.39081 0.0252722 0)
(1.06254 0.151121 0)
(0.754823 0.0882718 0)
(0.720846 0.0659682 0)
(0.71575 0.0457355 0)
(0.707827 0.0145018 0)
(0.693781 -0.0129849 0)
(0.691456 -0.0257112 0)
(0.69961 -0.0278167 0)
(0.714023 -0.0231324 0)
(0.726208 -0.0187609 0)
(0.736642 -0.0194698 0)
(0.750784 -0.0244044 0)
(0.772139 -0.0315102 0)
(0.798502 -0.0364179 0)
(0.820782 -0.0344771 0)
(0.834331 -0.026613 0)
(0.845246 -0.0194139 0)
(0.860555 -0.0179918 0)
(0.88348 -0.0225492 0)
(0.912206 -0.0302374 0)
(0.94056 -0.0339084 0)
(0.964139 -0.0297179 0)
(0.982066 -0.0204831 0)
(1.00037 -0.0138597 0)
(1.02204 -0.0148485 0)
(1.04912 -0.0225542 0)
(1.07731 -0.031688 0)
(1.10259 -0.0334352 0)
(1.1229 -0.0268502 0)
(1.14241 -0.0162365 0)
(1.16441 -0.00873471 0)
(1.1882 -0.00898446 0)
(1.21336 -0.0144804 0)
(1.2379 -0.0195697 0)
(1.26036 -0.0198552 0)
(1.28162 -0.0160483 0)
(1.30371 -0.0105671 0)
(1.32714 -0.00800617 0)
(1.35274 -0.011093 0)
(1.37988 -0.0154116 0)
(1.40189 -0.0152872 0)
(1.41998 -0.0127119 0)
(1.43785 -0.00726261 0)
(1.45746 -0.00266175 0)
(1.47958 -0.000686553 0)
(1.50506 -0.00244027 0)
(1.5282 -0.00411796 0)
(1.54651 -0.00405293 0)
(1.56347 -0.00213041 0)
(1.57775 0.00240927 0)
(1.59165 0.00656152 0)
(1.60816 0.00848333 0)
(1.62579 0.0098779 0)
(1.64526 0.00970844 0)
(1.66541 0.00704101 0)
(1.68294 0.00511687 0)
(1.69941 0.00371049 0)
(1.71456 0.00191153 0)
(1.728 0.000440659 0)
(1.74117 0.000517571 0)
(1.75671 0.00292301 0)
(1.7743 0.00717839 0)
(1.79234 0.013019 0)
(1.80993 0.0181335 0)
(1.82725 0.0215684 0)
(1.84369 0.0215111 0)
(1.85802 0.0194175 0)
(1.86297 0.00660578 0)
(1.852 -0.0150915 0)
(1.80796 -0.0620182 0)
(1.64664 -0.0600767 0)
(1.35442 -0.0264357 0)
(1.32817 -0.00683182 0)
(1.36333 -0.00287449 0)
(1.38521 -0.00280405 0)
(1.40284 -0.00885176 0)
(1.41649 -0.0114631 0)
(1.4234 -0.00883005 0)
(1.42797 -0.000562804 0)
(1.43151 0.00504548 0)
(1.43664 0.00215851 0)
(1.67482 1.03956 0)
(2.05418 0.889302 0)
(2.33882 0.612724 0)
(2.51369 0.339881 0)
(2.60249 0.20413 0)
(2.65309 0.0431554 0)
(2.70102 -0.171565 0)
(2.71914 -0.310425 0)
(2.75619 -0.346163 0)
(2.80673 -0.41868 0)
(2.80036 -0.452013 0)
(2.7307 -0.432673 0)
(2.68665 -0.421732 0)
(2.66491 -0.384117 0)
(2.75861 -0.361686 0)
(1.42865 0.194739 0)
(0.900494 0.146007 0)
(0.86505 0.080128 0)
(0.866808 0.0429547 0)
(0.848454 0.0321248 0)
(0.826912 0.0118563 0)
(0.824285 -0.00824265 0)
(0.837739 -0.0256035 0)
(0.857553 -0.0367406 0)
(0.870174 -0.0393309 0)
(0.876864 -0.0370358 0)
(0.884051 -0.034474 0)
(0.897233 -0.0355584 0)
(0.918134 -0.0427404 0)
(0.942987 -0.0517651 0)
(0.963363 -0.0542553 0)
(0.97578 -0.0491061 0)
(0.986929 -0.0417706 0)
(1.00151 -0.0384467 0)
(1.02155 -0.0422598 0)
(1.04699 -0.0522046 0)
(1.0747 -0.0613675 0)
(1.0999 -0.0622621 0)
(1.11778 -0.0548153 0)
(1.13346 -0.044774 0)
(1.15028 -0.0393916 0)
(1.16832 -0.0413944 0)
(1.19088 -0.0483418 0)
(1.2165 -0.0523652 0)
(1.24042 -0.0491632 0)
(1.26032 -0.0420711 0)
(1.27911 -0.0362364 0)
(1.29816 -0.034763 0)
(1.31726 -0.0371938 0)
(1.33769 -0.0415411 0)
(1.35985 -0.0440293 0)
(1.38247 -0.0421157 0)
(1.40304 -0.0364653 0)
(1.42296 -0.0311199 0)
(1.4433 -0.0292098 0)
(1.46295 -0.0292357 0)
(1.48027 -0.0285296 0)
(1.49747 -0.0251393 0)
(1.51545 -0.0186233 0)
(1.53517 -0.0121904 0)
(1.55631 -0.00882381 0)
(1.5763 -0.00941446 0)
(1.59359 -0.0104827 0)
(1.61 -0.0107235 0)
(1.62432 -0.00886231 0)
(1.63628 -0.00489871 0)
(1.65058 -0.00230295 0)
(1.66725 -0.00138007 0)
(1.6854 0.000324529 0)
(1.7036 0.00178127 0)
(1.72052 0.00256232 0)
(1.73668 0.00504026 0)
(1.75027 0.00886232 0)
(1.76028 0.0112632 0)
(1.77139 0.0101777 0)
(1.78723 0.00877994 0)
(1.80443 0.00842305 0)
(1.82301 0.0101408 0)
(1.84227 0.0146694 0)
(1.86024 0.0216845 0)
(1.87104 0.0282671 0)
(1.87697 0.0229166 0)
(1.86762 0.00241186 0)
(1.85134 -0.0282851 0)
(1.78081 -0.100381 0)
(1.70767 -0.111884 0)
(1.46136 -0.0481549 0)
(1.40366 -0.00934621 0)
(1.42009 -0.0048538 0)
(1.43245 -0.00589394 0)
(1.4433 -0.0127672 0)
(1.45679 -0.0210708 0)
(1.46764 -0.0249333 0)
(1.47456 -0.0219964 0)
(1.47791 -0.0119568 0)
(1.47682 0.000609059 0)
(1.60853 0.984219 0)
(1.8974 0.888055 0)
(2.13588 0.726099 0)
(2.3417 0.49195 0)
(2.47541 0.303927 0)
(2.56252 0.219294 0)
(2.59786 0.0708129 0)
(2.67157 -0.125488 0)
(2.71547 -0.298495 0)
(2.73632 -0.371616 0)
(2.79345 -0.444478 0)
(2.82505 -0.488142 0)
(2.77448 -0.498375 0)
(2.75012 -0.489938 0)
(2.73428 -0.496236 0)
(2.28257 -0.136611 0)
(1.15552 0.157477 0)
(1.06394 0.116221 0)
(1.07734 0.0527019 0)
(1.06604 0.00974763 0)
(1.04435 -0.00182345 0)
(1.03635 -0.00812452 0)
(1.04195 -0.0205215 0)
(1.0579 -0.0387171 0)
(1.0734 -0.0520037 0)
(1.08241 -0.0564503 0)
(1.08755 -0.0543177 0)
(1.09414 -0.0478504 0)
(1.10455 -0.0443935 0)
(1.12006 -0.0482003 0)
(1.14052 -0.0572733 0)
(1.15981 -0.0617492 0)
(1.17293 -0.0581172 0)
(1.18466 -0.0505292 0)
(1.19851 -0.043123 0)
(1.21464 -0.0410413 0)
(1.23476 -0.0464044 0)
(1.25921 -0.0557177 0)
(1.28011 -0.0596976 0)
(1.29284 -0.0582012 0)
(1.30384 -0.051287 0)
(1.31626 -0.0418677 0)
(1.33219 -0.0360992 0)
(1.35334 -0.0351875 0)
(1.37812 -0.0362363 0)
(1.39852 -0.0352494 0)
(1.41397 -0.0333299 0)
(1.42847 -0.0299519 0)
(1.44341 -0.0268863 0)
(1.45904 -0.0255543 0)
(1.47641 -0.026372 0)
(1.49637 -0.0274845 0)
(1.51463 -0.0263929 0)
(1.52942 -0.0243218 0)
(1.54442 -0.0196126 0)
(1.55969 -0.0152346 0)
(1.5749 -0.0130653 0)
(1.59035 -0.0105171 0)
(1.60659 -0.00635752 0)
(1.62355 -0.00099977 0)
(1.64008 0.0032652 0)
(1.65594 0.00555336 0)
(1.67141 0.00677436 0)
(1.68652 0.00793713 0)
(1.70037 0.0093992 0)
(1.71156 0.0122891 0)
(1.72121 0.01464 0)
(1.73469 0.0143442 0)
(1.75035 0.0123005 0)
(1.76675 0.00877179 0)
(1.78225 0.00683284 0)
(1.79776 0.00655145 0)
(1.81224 0.00836267 0)
(1.82309 0.0146969 0)
(1.82954 0.023882 0)
(1.83864 0.0296734 0)
(1.85393 0.0307773 0)
(1.87177 0.0305376 0)
(1.8904 0.0293831 0)
(1.90645 0.029285 0)
(1.91422 0.0278881 0)
(1.90854 0.0175261 0)
(1.88748 -0.00865675 0)
(1.85031 -0.0497646 0)
(1.76687 -0.125072 0)
(1.75345 -0.167742 0)
(1.62434 -0.0981783 0)
(1.51697 -0.0325247 0)
(1.50746 -0.00836704 0)
(1.51429 -0.00101308 0)
(1.52033 0.00372043 0)
(1.52619 0.00400685 0)
(1.5348 -0.00296067 0)
(1.54685 -0.0131152 0)
(1.55238 -0.0173928 0)
(1.55388 -0.0107987 0)
(1.56562 0.925654 0)
(1.79949 0.84962 0)
(1.98504 0.761287 0)
(2.16683 0.614825 0)
(2.33539 0.424155 0)
(2.443 0.279419 0)
(2.50689 0.197395 0)
(2.52126 0.127913 0)
(2.58527 -0.00933862 0)
(2.6575 -0.158345 0)
(2.69116 -0.232831 0)
(2.72927 -0.232888 0)
(2.73083 -0.302407 0)
(2.671 -0.428362 0)
(2.63515 -0.538594 0)
(2.60408 -0.653133 0)
(1.78202 -0.0962161 0)
(1.27088 0.118947 0)
(1.25317 0.0958834 0)
(1.26545 0.00987597 0)
(1.26281 -0.0177781 0)
(1.25567 -0.0104256 0)
(1.24932 -0.0104318 0)
(1.25295 -0.0249152 0)
(1.26529 -0.0476058 0)
(1.27978 -0.0624172 0)
(1.28835 -0.0655165 0)
(1.2931 -0.0639704 0)
(1.29796 -0.0594413 0)
(1.3055 -0.057423 0)
(1.31692 -0.0595779 0)
(1.33463 -0.0668769 0)
(1.35306 -0.0719651 0)
(1.366 -0.0714534 0)
(1.37659 -0.0691994 0)
(1.38796 -0.0662568 0)
(1.40117 -0.0635162 0)
(1.4177 -0.0638922 0)
(1.43572 -0.067509 0)
(1.44711 -0.0688714 0)
(1.45644 -0.0673901 0)
(1.46611 -0.061924 0)
(1.47888 -0.0565459 0)
(1.49598 -0.0517361 0)
(1.51686 -0.048744 0)
(1.53413 -0.048273 0)
(1.54837 -0.0483833 0)
(1.56128 -0.0469391 0)
(1.57314 -0.0448348 0)
(1.58613 -0.0434876 0)
(1.59999 -0.0409792 0)
(1.61562 -0.0379921 0)
(1.62917 -0.0370685 0)
(1.64164 -0.0358624 0)
(1.65374 -0.0317438 0)
(1.66594 -0.0274842 0)
(1.67887 -0.0233474 0)
(1.69272 -0.0183817 0)
(1.70712 -0.0127348 0)
(1.7214 -0.00785494 0)
(1.73488 -0.003747 0)
(1.74772 -0.000821607 0)
(1.76105 0.000822508 0)
(1.77503 0.00127077 0)
(1.78855 0.00212328 0)
(1.80031 0.00437447 0)
(1.80925 0.00934858 0)
(1.81752 0.0141802 0)
(1.82859 0.0159107 0)
(1.84233 0.0150076 0)
(1.85631 0.0138138 0)
(1.87033 0.0125191 0)
(1.88365 0.0121021 0)
(1.89524 0.0130283 0)
(1.90336 0.0190534 0)
(1.91 0.0278996 0)
(1.92021 0.0353595 0)
(1.93435 0.0385136 0)
(1.9497 0.0393259 0)
(1.96066 0.0371631 0)
(1.95914 0.0268871 0)