/*--------------------------------*- C++ -*----------------------------------*\
  =========                 |
  \\      /  F ield         | OpenFOAM: The Open Source CFD Toolbox
   \\    /   O peration     | Website:  https://openfoam.org
    \\  /    A nd           | Version:  7
     \\/     M anipulation  |
\*---------------------------------------------------------------------------*/
FoamFile
{
    version     2.0;
    format      ascii;
    class       surfaceScalarField;
    location    "45";
    object      phi;
}
// * * * * * * * * * * * * * * * * * * * * * * * * * * * * * * * * * * * * * //

dimensions      [0 3 -1 0 0 0 0];

internalField   nonuniform List<scalar> 
3880
(
0.000550211
-4.39623e-05
0.000603062
-4.60009e-05
0.000655667
-4.82068e-05
0.000707935
-5.05118e-05
0.000759779
-5.28389e-05
0.000811122
-5.51048e-05
0.000861894
-5.72231e-05
0.000912032
-5.91074e-05
0.000961482
-6.06754e-05
0.0010102
-6.18516e-05
0.00105814
-6.25714e-05
0.00110529
-6.27835e-05
0.00115161
-6.24535e-05
0.00119709
-6.15643e-05
0.00124173
-6.01197e-05
0.00128551
-5.81426e-05
0.00132845
-5.56778e-05
0.00137055
-5.27877e-05
0.00141183
-4.95545e-05
0.0014523
-4.60721e-05
0.00149199
-4.24504e-05
0.00153091
-3.88006e-05
0.00156912
-3.5245e-05
0.00160662
-3.18931e-05
0.00164346
-2.88609e-05
0.00167966
-2.62344e-05
0.00171527
-2.41062e-05
0.00175033
-2.25175e-05
0.00178486
-2.15252e-05
0.0018189
-2.11088e-05
0.00185251
-2.12873e-05
0.00188567
-2.1968e-05
0.00191847
-2.31443e-05
0.00195089
-2.46472e-05
0.001983
-2.64733e-05
0.00201476
-2.83773e-05
0.00204627
-3.04045e-05
0.00207743
-3.22295e-05
0.00210839
-3.40078e-05
0.00213897
-3.53161e-05
0.00216939
-3.6494e-05
0.00219938
-3.6979e-05
0.00222925
-3.73794e-05
0.00225859
-3.69181e-05
0.00228786
-3.65673e-05
0.00231645
-3.52247e-05
0.00234505
-3.43302e-05
0.00237277
-3.23169e-05
0.00240062
-3.12014e-05
0.00242734
-2.88034e-05
0.00245437
-2.78153e-05
0.00247996
-2.532e-05
0.00250611
-2.47451e-05
-1.40792e-06
0.00253048
-2.23928e-05
-1.97511e-06
0.00255569
-2.23758e-05
-2.83487e-06
0.00257885
-2.03709e-05
-2.79189e-06
0.00260299
-2.08229e-05
-3.31712e-06
-1.95179e-05
-2.73444e-06
0.000569354
-9.67954e-05
0.000622023
-9.86697e-05
0.000674427
-0.000100611
0.000726473
-0.000102558
0.000778074
-0.00010444
0.000829151
-0.000106182
0.000879634
-0.000107706
0.000929462
-0.000108935
0.000978581
-0.000109794
0.00102695
-0.000110217
0.00107452
-0.000110148
0.00112128
-0.000109544
0.00116721
-0.000108378
0.00121229
-0.000106641
0.00125651
-0.000104345
0.00129988
-0.000101516
0.00134242
-9.82088e-05
0.00138412
-9.44877e-05
0.001425
-9.04418e-05
0.0014651
-8.61667e-05
0.00150443
-8.17787e-05
0.00154301
-7.73883e-05
0.00158089
-7.31247e-05
0.00161809
-6.90929e-05
0.00165465
-6.54187e-05
0.00169059
-6.21783e-05
0.00172597
-5.94783e-05
0.00176079
-5.73422e-05
0.00179511
-5.58492e-05
0.00182895
-5.49486e-05
0.00186236
-5.46956e-05
0.00189534
-5.49475e-05
0.00192796
-5.57569e-05
0.00196018
-5.6874e-05
0.0019921
-5.83918e-05
0.00202366
-5.99357e-05
0.00205496
-6.17064e-05
0.00208591
-6.31748e-05
0.00211664
-6.47423e-05
0.00214699
-6.56695e-05
0.00217718
-6.66797e-05
0.00220693
-6.67254e-05
0.00223655
-6.7004e-05
0.00226564
-6.60053e-05
0.00229466
-6.55913e-05
0.002323
-6.35669e-05
0.00235137
-6.26931e-05
0.00237885
-5.9802e-05
0.00240648
-5.88323e-05
0.00243298
-5.53049e-05
0.00245981
-5.46441e-05
0.00248521
-5.07152e-05
0.00251117
-5.07103e-05
0.00253537
-4.65933e-05
0.00256042
-4.74171e-05
0.00258343
-4.33873e-05
0.00260742
-4.48095e-05
-4.16395e-05
0.000606908
-0.000149224
0.000659144
-0.000150905
0.000711085
-0.000152553
0.000762639
-0.000154111
0.000813718
-0.000155519
0.000864245
-0.000156709
0.00091415
-0.000157611
0.000963372
-0.000158157
0.00101186
-0.000158282
0.00105957
-0.000157929
0.00110648
-0.000157052
0.00115255
-0.000155615
0.00119777
-0.000153601
0.00124213
-0.000151007
0.00128564
-0.000147854
0.0013283
-0.000144175
0.00137012
-0.000140029
0.00141112
-0.000135486
0.00145132
-0.00013064
0.00149074
-0.000125588
0.00152942
-0.000120453
0.00156737
-0.000115344
0.00160464
-0.000110395
0.00164126
-0.000105708
0.00167725
-0.000101416
0.00171266
-9.75848e-05
0.00174752
-9.43351e-05
0.00178185
-9.16719e-05
0.00181569
-8.96959e-05
0.00184907
-8.83259e-05
0.00188203
-8.7653e-05
0.00191456
-8.74845e-05
0.00194674
-8.79322e-05
0.00197853
-8.86661e-05
0.00201001
-8.9875e-05
0.00204114
-9.1057e-05
0.002072
-9.25667e-05
0.0021025
-9.36745e-05
0.00213278
-9.50253e-05
0.00216268
-9.55682e-05
0.0021924
-9.64055e-05
0.00222169
-9.60117e-05
0.00225085
-9.61661e-05
0.00227948
-9.46349e-05
0.00230805
-9.41581e-05
0.00233594
-9.14632e-05
0.00236386
-9.06132e-05
0.00239092
-8.6862e-05
0.00241813
-8.60422e-05
0.00244424
-8.14091e-05
0.00247067
-8.10784e-05
0.0024957
-7.57458e-05
0.0025213
-7.63091e-05
0.00254517
-7.04641e-05
0.00256988
-7.21189e-05
0.0025926
-6.61079e-05
0.00261627
-6.84828e-05
-6.34924e-05
0.000662059
-0.000201014
0.000713618
-0.000202464
0.000764846
-0.00020378
0.000815648
-0.000204914
0.00086594
-0.000205811
0.000915644
-0.000206413
0.000964693
-0.00020666
0.00101303
-0.000206493
0.0010606
-0.000205856
0.00110738
-0.000204702
0.00115332
-0.000202994
0.00119841
-0.000200707
0.00124264
-0.000197832
0.00128601
-0.000194374
0.00132851
-0.00019036
0.00137017
-0.000185832
0.001411
-0.000180853
0.00145101
-0.000175498
0.00149023
-0.000169867
0.0015287
-0.000164057
0.00156645
-0.000158197
0.0016035
-0.000152392
0.00163988
-0.000146784
0.00167565
-0.000141468
0.00171082
-0.000136586
0.00174542
-0.000132191
0.0017795
-0.000128417
0.00181308
-0.00012525
0.0018462
-0.000122812
0.00187886
-0.000120992
0.00191112
-0.000119914
0.00194298
-0.000119337
0.00197448
-0.000119432
0.0020056
-0.000119789
0.00203642
-0.000120692
0.00206687
-0.000121514
0.00209707
-0.000122761
0.0021269
-0.000123509
0.00215652
-0.00012464
0.00218575
-0.000124799
0.0022148
-0.000125461
0.00224342
-0.000124632
0.00227192
-0.000124661
0.00229989
-0.000122607
0.0023278
-0.00012207
0.00235506
-0.000118721
0.00238235
-0.000117899
0.0024088
-0.000113312
0.0024354
-0.000112646
0.00246093
-0.00010694
0.00248679
-0.00010694
0.00251129
-0.000100246
0.00253636
-0.000101371
0.00255974
-9.38504e-05
0.00258394
-9.63191e-05
0.00260623
-8.83902e-05
0.00262943
-9.16899e-05
-8.49449e-05
0.000733635
-0.000251945
0.000784288
-0.000253117
0.000834564
-0.000254056
0.000884371
-0.000254721
0.000933627
-0.000255066
0.000982255
-0.000255042
0.00103019
-0.000254597
0.00107738
-0.000253682
0.00112378
-0.000252253
0.00116935
-0.000250272
0.00121407
-0.000247712
0.00125792
-0.000244557
0.00130089
-0.000240808
0.001343
-0.000236477
0.00138424
-0.000231601
0.00142463
-0.000226224
0.0014642
-0.00022042
0.00150296
-0.000214265
0.00154096
-0.000207864
0.00157822
-0.000201317
0.00161478
-0.000194754
0.00165067
-0.000188281
0.00168592
-0.000182042
0.00172058
-0.000176127
0.00175468
-0.000170683
0.00178824
-0.000165754
0.00182131
-0.000161484
0.0018539
-0.00015784
0.00188605
-0.000154964
0.00191777
-0.000152714
0.00194911
-0.000151249
0.00198005
-0.000150281
0.00201066
-0.000150034
0.00204089
-0.000150025
0.00207083
-0.000150628
0.00210041
-0.000151096
0.00212973
-0.000152083
0.0021587
-0.000152474
0.00218744
-0.000153385
0.00221581
-0.000153165
0.002244
-0.000153651
0.00227176
-0.000152395
0.0022994
-0.000152301
0.00232653
-0.000149739
0.00235361
-0.000149144
0.00238005
-0.000145163
0.00240652
-0.000144374
0.00243219
-0.000138982
0.00245802
-0.000138473
0.00248282
-0.000131736
0.00250794
-0.000132066
0.00253176
-0.000124062
0.00255612
-0.000125739
0.00257888
-0.000116609
0.00260243
-0.000119867
0.00262414
-0.000110102
0.00264674
-0.000114289
-0.000105874
0.00082016
-0.000301808
0.000869692
-0.000302649
0.000918796
-0.00030316
0.000967383
-0.000303309
0.00101537
-0.000303056
0.0010627
-0.000302363
0.00110929
-0.000301188
0.00115509
-0.000299491
0.00120008
-0.000297239
0.00124421
-0.000294404
0.00128747
-0.00029097
0.00132984
-0.00028693
0.00137133
-0.000282293
0.00141193
-0.000277083
0.00145168
-0.000271342
0.00149057
-0.000265121
0.00152865
-0.0002585
0.00156594
-0.000251558
0.00160248
-0.000244405
0.00163831
-0.000237141
0.00167345
-0.000229901
0.00170796
-0.000222786
0.00174186
-0.000215945
0.0017752
-0.000209461
0.001808
-0.000203487
0.0018403
-0.000198056
0.00187214
-0.000193319
0.00190353
-0.000189228
0.0019345
-0.00018594
0.00196507
-0.000183285
0.00199528
-0.000181455
0.00202511
-0.000180113
0.00205462
-0.00017954
0.00208377
-0.000179177
0.00211263
-0.000179489
0.00214115
-0.000179613
0.00216941
-0.000180345
0.00219732
-0.000180386
0.00222502
-0.00018108
0.00225234
-0.00018049
0.00227949
-0.000180803
0.00230623
-0.000179132
0.00233285
-0.000178917
0.00235897
-0.000175864
0.00238505
-0.000175217
0.00241051
-0.000170631
0.00243602
-0.000169879
0.00246076
-0.000163719
0.00248565
-0.000163371
0.00250957
-0.00015565
0.00253381
-0.000156306
0.0025568
-0.000147056
0.00258033
-0.00014927
0.00260233
-0.00013861
0.00262509
-0.000142626
0.00264612
-0.000131124
0.00266798
-0.000136151
-0.00012617
0.000919906
-0.000350409
0.000968119
-0.000350862
0.00101585
-0.000350892
0.00106302
-0.000350473
0.00110954
-0.000349577
0.00115535
-0.000348172
0.00120038
-0.000346227
0.00124461
-0.000343713
0.00128797
-0.000340607
0.00133046
-0.000336893
0.00137206
-0.000332563
0.00141275
-0.000327622
0.00145254
-0.000322088
0.00149145
-0.000315992
0.0015295
-0.000309385
0.0015667
-0.000302325
0.0016031
-0.000294896
0.00163872
-0.000287181
0.00167361
-0.000279294
0.0017078
-0.000271336
0.00174135
-0.000263444
0.00177428
-0.000255715
0.00180663
-0.000248304
0.00183846
-0.000241283
0.00186978
-0.000234811
0.00190063
-0.000228908
0.00193105
-0.000223737
0.00196105
-0.000219228
0.00199067
-0.000215556
0.00201991
-0.000212524
0.0020488
-0.000210351
0.00207735
-0.000208657
0.00210558
-0.000207775
0.00213348
-0.000207076
0.0021611
-0.000207109
0.00218839
-0.000206901
0.00221543
-0.000207385
0.00224213
-0.000207088
0.00226862
-0.00020757
0.00229475
-0.000206621
0.00232071
-0.000206765
0.00234627
-0.000204694
0.00237172
-0.000204365
0.0023967
-0.000200843
0.00242163
-0.000200149
0.00244599
-0.000194988
0.00247039
-0.000194278
0.00249406
-0.000187392
0.00251789
-0.000187206
0.0025408
-0.000178557
0.00256403
-0.000179534
0.00258608
-0.000169109
0.00260865
-0.000171841
0.00262979
-0.000159742
0.00265164
-0.000164479
0.00267187
-0.000151352
0.00269288
-0.000157166
-0.000145736
0.00103096
-0.000397573
0.00107768
-0.000397579
0.00112386
-0.000397072
0.00116942
-0.000396035
0.00121429
-0.000394448
0.00125841
-0.000392288
0.00130172
-0.000389536
0.00134418
-0.000386172
0.00138576
-0.000382184
0.00142643
-0.000377566
0.00146619
-0.000372323
0.00150503
-0.000366466
0.00154297
-0.000360027
0.00158002
-0.000353042
0.00161621
-0.00034557
0.00165156
-0.000337676
0.00168611
-0.000329449
0.00171991
-0.000320977
0.00175299
-0.000312376
0.0017854
-0.000303746
0.00181718
-0.000295227
0.00184838
-0.000286914
0.00187904
-0.000278961
0.00190919
-0.000271436
0.00193888
-0.000264498
0.00196813
-0.000258158
0.00199697
-0.000252584
0.00202544
-0.000247688
0.00205354
-0.000243663
0.0020813
-0.000240279
0.00210873
-0.000237788
0.00213584
-0.000235767
0.00216266
-0.000234595
0.00218917
-0.000233577
0.0022154
-0.000233347
0.00224132
-0.000232822
0.00226701
-0.000233069
0.00229237
-0.000232447
0.00231752
-0.000232726
0.00234233
-0.000231431
0.00236698
-0.000231414
0.00239125
-0.000228961
0.00241541
-0.000228524
0.00243912
-0.000224558
0.0024628
-0.000223824
0.00248593
-0.000218122
0.00250911
-0.00021746
0.00253162
-0.000209893
0.00255428
-0.00020987
0.00257608
-0.000200353
0.00259819
-0.000201644
0.0026192
-0.000190122
0.00264071
-0.000193349
0.00266088
-0.000179913
0.00268173
-0.000185327
0.00270107
-0.0001707
0.00272115
-0.00017724
-0.000164491
0.00115131
-0.000443137
0.00119637
-0.000442638
0.00124084
-0.000441541
0.00128464
-0.000439837
0.0013277
-0.000437515
0.00136998
-0.000434561
0.00141141
-0.000430967
0.00145196
-0.000426723
0.0014916
-0.000421828
0.00153032
-0.000416287
0.00156811
-0.000410114
0.00160498
-0.000403332
0.00164093
-0.000395981
0.001676
-0.000388105
0.0017102
-0.000379773
0.00174358
-0.000371053
0.00177617
-0.000362041
0.00180802
-0.000352827
0.00183917
-0.000343531
0.00186968
-0.000334253
0.00189959
-0.000325133
0.00192894
-0.000316264
0.00195778
-0.000307801
0.00198614
-0.000299802
0.00201407
-0.000292431
0.0020416
-0.000285686
0.00206876
-0.00027974
0.00209556
-0.00027449
0.00212204
-0.00027014
0.00214819
-0.000266435
0.00217406
-0.000263652
0.00219962
-0.000261326
0.00222491
-0.000259886
0.0022499
-0.000258572
0.00227465
-0.000258094
0.0022991
-0.000257269
0.00232332
-0.000257292
0.00234723
-0.000256362
0.00237095
-0.000256446
0.00239435
-0.000254825
0.00241759
-0.000254654
0.00244047
-0.000251841
0.00246325
-0.000251302
0.00248561
-0.00024692
0.00250794
-0.000246153
0.00252976
-0.000239947
0.00255164
-0.000239338
0.00257289
-0.000231139
0.0025943
-0.00023128
0.0026149
-0.000220959
0.00263581
-0.000222553
0.00265571
-0.000210019
0.00267607
-0.000213716
0.00269521
-0.000199051
0.00271498
-0.000205093
0.00273338
-0.000189103
0.00275244
-0.000196301
-0.000182372
0.00127886
-0.000486958
0.00132212
-0.000485898
0.00136474
-0.00048416
0.00140664
-0.000481744
0.00144777
-0.000478647
0.00148808
-0.000474865
0.00152751
-0.000470398
0.00156604
-0.00046525
0.00160364
-0.000459428
0.0016403
-0.000452948
0.00167602
-0.000445835
0.00171081
-0.000438122
0.00174469
-0.000429857
0.00177768
-0.000421094
0.00180981
-0.000411908
0.00184113
-0.000402372
0.00187168
-0.000392589
0.0019015
-0.000382651
0.00193065
-0.000372681
0.00195918
-0.000362777
0.00198713
-0.000353084
0.00201455
-0.000343686
0.00204149
-0.000334741
0.00206799
-0.0003263
0.00209408
-0.000318528
0.00211981
-0.000311409
0.00214519
-0.000305124
0.00217025
-0.00029955
0.00219502
-0.000294904
0.00221949
-0.000290906
0.00224369
-0.000287857
0.00226762
-0.000285254
0.0022913
-0.000283568
0.00231471
-0.000281979
0.00233789
-0.000281271
0.00236079
-0.000280167
0.00238347
-0.000279981
0.00240587
-0.00027876
0.00242809
-0.000278662
0.00245
-0.000276733
0.00247176
-0.000276419
0.00249319
-0.000273268
0.00251452
-0.000272638
0.00253547
-0.000267869
0.00255639
-0.000267075
0.00257685
-0.000260404
0.00259737
-0.000259853
0.0026173
-0.000251073
0.0026374
-0.000251376
0.00265676
-0.00024032
0.00267641
-0.000242205
0.00269514
-0.000228747
0.00271431
-0.000232884
0.00273236
-0.000217106
0.00275099
-0.000223724
0.0027684
-0.000206513
0.0027864
-0.000214297
-0.000199337
0.00141153
-0.000528906
0.00145286
-0.000527234
0.00149352
-0.000524812
0.00153342
-0.000521644
0.00157251
-0.000517738
0.00161074
-0.000513099
0.00164808
-0.000507738
0.0016845
-0.000501667
0.00171997
-0.000494905
0.0017545
-0.000487477
0.00178809
-0.00047942
0.00182074
-0.000470775
0.00185248
-0.0004616
0.00188334
-0.000451956
0.00191336
-0.000441925
0.00194258
-0.000431588
0.00197104
-0.00042105
0.00199879
-0.000410406
0.00202589
-0.000399783
0.0020524
-0.000389278
0.00207835
-0.000379036
0.0021038
-0.000369138
0.0021288
-0.00035974
0.00215339
-0.000350886
0.0021776
-0.000342743
0.00220147
-0.000335281
0.00222504
-0.000328687
0.00224831
-0.00032282
0.00227131
-0.000317907
0.00229405
-0.000313645
0.00231655
-0.000310356
0.00233879
-0.000307501
0.00236082
-0.000305591
0.00238259
-0.000303751
0.00240415
-0.000302833
0.00242545
-0.000301471
0.00244656
-0.00030109
0.0024674
-0.0002996
0.00248807
-0.000299333
0.00250846
-0.000297118
0.00252871
-0.000296671
0.00254865
-0.000293208
0.00256851
-0.000292495
0.00258801
-0.00028737
0.00260749
-0.000286559
0.00262655
-0.000279463
0.00264567
-0.000278972
0.00266426
-0.000269666
0.00268302
-0.000270128
0.0027011
-0.000258407
0.00271947
-0.000260569
0.002737
-0.000246279
0.00275494
-0.000250824
0.00277188
-0.000234052
0.00278935
-0.000241188
0.00280574
-0.000222904
0.00282264
-0.000231201
-0.000215359
0.00154729
-0.000568865
0.0015866
-0.000566539
0.00162518
-0.000563395
0.00166298
-0.000559445
0.00169995
-0.000554705
0.00173604
-0.000549189
0.00177122
-0.000542918
0.00180547
-0.000535914
0.00183877
-0.000528206
0.00187112
-0.00051983
0.00190253
-0.00051083
0.00193301
-0.000501259
0.0019626
-0.000491182
0.00199131
-0.00048067
0.00201919
-0.000469809
0.00204629
-0.000458687
0.00207266
-0.000447413
0.00209834
-0.000436085
0.00212339
-0.000424832
0.00214786
-0.000413751
0.00217181
-0.000402985
0.00219528
-0.000392613
0.00221833
-0.000382791
0.002241
-0.000373553
0.00226332
-0.000365066
0.00228533
-0.000357292
0.00230706
-0.000350417
0.00232853
-0.000344285
0.00234975
-0.000339134
0.00237074
-0.000334635
0.00239152
-0.000331132
0.00241207
-0.00032805
0.00243242
-0.00032594
0.00245254
-0.000323872
0.00247247
-0.000322763
0.00249216
-0.000321165
0.00251168
-0.000320608
0.00253095
-0.00031887
0.00255006
-0.000318448
0.00256892
-0.000315969
0.00258765
-0.000315402
0.00260609
-0.000311653
0.00262446
-0.000310868
0.00264251
-0.000305419
0.00266055
-0.000304597
0.00267821
-0.000297117
0.00269592
-0.000296692
0.00271317
-0.000286912
0.00273057
-0.00028753
0.00274738
-0.000275214
0.00276445
-0.000277637
0.00278078
-0.00026261
0.00279748
-0.000267527
0.00281331
-0.000249882
0.0028296
-0.000257478
0.00284497
-0.000238271
0.00286077
-0.000247004
-0.000230432
0.0016842
-0.000606737
0.00172139
-0.000603724
0.00175782
-0.000599829
0.00179345
-0.000595076
0.00182823
-0.000589485
0.00186213
-0.000583082
0.0018951
-0.000575896
0.00192715
-0.000567958
0.00195825
-0.000559307
0.00198841
-0.000549989
0.00201764
-0.000540058
0.00204595
-0.000529573
0.00207338
-0.000518611
0.00209996
-0.000507247
0.00212572
-0.000495576
0.00215073
-0.000483689
0.00217502
-0.000471702
0.00219864
-0.000459713
0.00222167
-0.000447855
0.00224414
-0.000436221
0.00226611
-0.000424958
0.00228764
-0.000414139
0.00230876
-0.000403918
0.00232954
-0.000394324
0.00234999
-0.000385522
0.00237016
-0.000377462
0.00239008
-0.000370333
0.00240976
-0.000363964
0.00242922
-0.0003586
0.00244848
-0.00035389
0.00246754
-0.000350198
0.00248641
-0.000346915
0.0025051
-0.000344627
0.00252358
-0.000342355
0.00254189
-0.000341076
0.00255999
-0.000339265
0.00257793
-0.000338548
0.00259565
-0.000336584
0.00261322
-0.000336024
0.00263056
-0.000333305
0.00264778
-0.000332631
0.00266475
-0.000328621
0.00268166
-0.000327775
0.00269828
-0.000322035
0.00271489
-0.00032121
0.00273116
-0.000313388
0.0027475
-0.00031303
0.00276342
-0.000302832
0.00277949
-0.0003036
0.00279504
-0.000290762
0.00281083
-0.000293427
0.00282597
-0.000277756
0.00284145
-0.000283009
0.00285619
-0.000264613
0.00287132
-0.000272608
0.00288567
-0.000252628
0.00290039
-0.000261721
-0.00024457
0.00182044
-0.000642438
0.00185543
-0.000638713
0.00188965
-0.000634052
0.00192306
-0.000628484
0.00195561
-0.000622038
0.00198728
-0.000614748
0.00201804
-0.000606651
0.00204787
-0.000597788
0.00207677
-0.000588208
0.00210474
-0.000577964
0.0021318
-0.000567119
0.00215797
-0.000555743
0.00218328
-0.000543917
0.00220776
-0.000531725
0.00223145
-0.000519269
0.00225441
-0.000506644
0.00227667
-0.000493969
0.00229831
-0.000481345
0.00231936
-0.000468907
0.00233988
-0.000456748
0.00235994
-0.000445014
0.00237957
-0.000433773
0.00239883
-0.00042318
0.00241777
-0.000413255
0.00243641
-0.000404163
0.00245479
-0.000395842
0.00247294
-0.000388485
0.00249088
-0.000381904
0.00250863
-0.000376352
0.0025262
-0.000371457
0.0025436
-0.000367598
0.00256082
-0.000364138
0.00257789
-0.000361694
0.00259477
-0.00035924
0.00261151
-0.000357812
0.00262805
-0.00035581
0.00264446
-0.000354951
0.00266066
-0.000352786
0.00267674
-0.000352101
0.0026926
-0.000349167
0.00270837
-0.000348399
0.00272391
-0.000344158
0.00273939
-0.000343261
0.00275462
-0.000337263
0.00276985
-0.000336441
0.00278478
-0.00032832
0.00279978
-0.000328031
0.00281442
-0.000317469
0.0028292
-0.000318379
0.00284353
-0.00030509
0.00285808
-0.000307978
0.00287208
-0.000291758
0.00288638
-0.000297308
0.00290005
-0.000278282
0.00291405
-0.000286614
0.00292743
-0.00026601
0.0029411
-0.000275387
-0.000257802
0.00195431
-0.000675902
0.00198705
-0.000671454
0.00201902
-0.000666021
0.00205017
-0.000659639
0.00208048
-0.000652344
0.00210991
-0.000644178
0.00213845
-0.000635187
0.00216608
-0.000625419
0.0021928
-0.000614932
0.00221862
-0.000603787
0.00224356
-0.000592057
0.00226763
-0.000579817
0.00229087
-0.000567158
0.00231332
-0.000554169
0.00233501
-0.000540957
0.00235599
-0.000527623
0.00237631
-0.00051429
0.00239602
-0.000501061
0.00241519
-0.000488071
0.00243385
-0.000475414
0.00245207
-0.000463235
0.0024699
-0.000451599
0.00248738
-0.000440659
0.00250455
-0.000430427
0.00252146
-0.000421069
0.00253813
-0.000412512
0.00255459
-0.00040495
0.00257087
-0.00039818
0.00258698
-0.000392462
0.00260293
-0.000387404
0.00261873
-0.000383401
0.00263438
-0.000379786
0.00264989
-0.000377207
0.00266524
-0.000374595
0.00268047
-0.000373036
0.00269552
-0.000370866
0.00271046
-0.000369884
0.00272521
-0.000367539
0.00273985
-0.000366747
0.00275431
-0.000363622
0.00276868
-0.000362774
0.00278286
-0.000358329
0.00279699
-0.000357391
0.00281089
-0.000351169
0.00282481
-0.000350358
0.00283846
-0.000341977
0.00285219
-0.000341758
0.00286561
-0.000330885
0.00287916
-0.000331931
0.00289233
-0.000318261
0.0029057
-0.000321351
0.00291862
-0.000304672
0.00293179
-0.00031048
0.00294445
-0.000290944
0.00295739
-0.00029955
0.00296984
-0.000278466
0.00298251
-0.000288054
-0.000270176
0.00208427
-0.000707081
0.00211473
-0.000701911
0.00214442
-0.000695714
0.00217331
-0.00068853
0.00220137
-0.000680404
0.00222858
-0.000671386
0.00225492
-0.000661526
0.00228039
-0.000650884
0.00230498
-0.000639523
0.0023287
-0.000627513
0.00235158
-0.000614933
0.00237363
-0.000601867
0.00239488
-0.000588412
0.00241538
-0.000574662
0.00243515
-0.000560732
0.00245425
-0.000546724
0.00247273
-0.000532766
0.00249063
-0.000518963
0.00250801
-0.000505452
0.00252492
-0.000492325
0.00254141
-0.000479728
0.00255754
-0.000467722
0.00257334
-0.00045646
0.00258886
-0.000445945
0.00260413
-0.000436344
0.00261919
-0.000427573
0.00263407
-0.000419827
0.00264878
-0.000412889
0.00266334
-0.000407025
0.00267776
-0.000401825
0.00269206
-0.000397698
0.00270622
-0.000393949
0.00272027
-0.000391254
0.00273418
-0.000388506
0.00274798
-0.000386834
0.00276163
-0.000384519
0.00277518
-0.000383431
0.00278857
-0.00038093
0.00280187
-0.000380046
0.002815
-0.000376755
0.00282807
-0.000375841
0.00284096
-0.000371219
0.00285382
-0.000370252
0.00286649
-0.000363837
0.00287917
-0.000363043
0.00289164
-0.000354444
0.00290418
-0.000354296
0.00291646
-0.000343162
0.00292886
-0.000344336
0.00294095
-0.000330352
0.00295322
-0.000333623
0.00296513
-0.000316575
0.00297725
-0.000322602
0.00298897
-0.000302669
0.00300091
-0.00031149
0.00301251
-0.000290064
0.00302425
-0.000299793
-0.000281753
0.00220895
-0.00073595
0.00223711
-0.000730071
0.00226453
-0.000723128
0.00229117
-0.000715168
0.00231701
-0.000706242
0.00234202
-0.000696405
0.00236621
-0.000685716
0.00238957
-0.000674239
0.00241209
-0.000662047
0.0024338
-0.000649215
0.00245469
-0.000635831
0.00247481
-0.000621984
0.00249418
-0.000607777
0.00251282
-0.00059331
0.00253079
-0.000578701
0.00254813
-0.000564059
0.00256488
-0.000549514
0.00258108
-0.000535171
0.00259681
-0.000521172
0.00261209
-0.000507606
0.00262698
-0.000494619
0.00264152
-0.00048227
0.00265577
-0.000470708
0.00266976
-0.000459934
0.00268353
-0.00045011
0.0026971
-0.000441145
0.00271051
-0.000433234
0.00272376
-0.000426148
0.0027369
-0.000420157
0.0027499
-0.000414834
0.00276281
-0.0004106
0.00277559
-0.000406737
0.00278829
-0.000403944
0.00280086
-0.000401079
0.00281334
-0.000399313
0.00282569
-0.000396873
0.00283796
-0.000395697
0.00285009
-0.000393061
0.00286214
-0.000392102
0.00287406
-0.000388669
0.00288592
-0.000387702
0.00289763
-0.00038293
0.00290932
-0.000381944
0.00292085
-0.000375369
0.00293241
-0.000374598
0.00294379
-0.000365819
0.00295523
-0.000365742
0.00296647
-0.000354399
0.00297782
-0.000355692
0.00298893
-0.000341459
0.0030002
-0.000344889
0.00301118
-0.000327557
0.00302234
-0.000333763
0.00303321
-0.000313544
0.00304425
-0.000322522
0.00305507
-0.000300884
0.00306596
-0.000310689
-0.00029261
0.00232714
-0.000762505
0.00235301
-0.000755945
0.00237817
-0.000748289
0.00240259
-0.000739589
0.00242626
-0.000729904
0.00244914
-0.000719293
0.00247125
-0.000707822
0.00249257
-0.000695561
0.00251311
-0.00068259
0.00253289
-0.00066899
0.00255191
-0.000654853
0.0025702
-0.000640277
0.00258779
-0.000625367
0.00260472
-0.000610232
0.00262101
-0.000594992
0.00263671
-0.000579759
0.00265186
-0.000564667
0.00266651
-0.000549823
0.00268071
-0.00053537
0.0026945
-0.000521396
0.00270793
-0.000508048
0.00272104
-0.000495381
0.00273388
-0.000483544
0.00274647
-0.000472531
0.00275887
-0.000462505
0.00277109
-0.000453365
0.00278316
-0.000445306
0.0027951
-0.000438089
0.00280693
-0.000431987
0.00281866
-0.000426558
0.00283029
-0.000422234
0.00284183
-0.000418274
0.00285328
-0.0004154
0.00286464
-0.000412436
0.00287592
-0.000410593
0.00288709
-0.000408047
0.00289819
-0.000406799
0.00290918
-0.000404051
0.00292011
-0.000403031
0.00293092
-0.00039948
0.0029417
-0.000398473
0.00295234
-0.000393578
0.00296298
-0.000392584
0.00297349
-0.000385879
0.00298403
-0.000385137
0.00299443
-0.000376216
0.0030049
-0.00037621
0.0030152
-0.000364705
0.00302562
-0.000366106
0.00303585
-0.000351688
0.00304621
-0.000355255
0.00305638
-0.000337721
0.00306668
-0.000344068
0.0030768
-0.000323666
0.00308703
-0.000332745
0.00309716
-0.000311018
0.00310731
-0.000320839
-0.000302833
0.00243778
-0.000786772
0.00246141
-0.000779567
0.00248436
-0.000771242
0.00250662
-0.000761851
0.00252817
-0.000751458
0.00254901
-0.000740128
0.00256912
-0.000727932
0.00258851
-0.000714947
0.00260717
-0.000701256
0.00262513
-0.000686947
0.00264239
-0.000672118
0.00265899
-0.000656869
0.00267493
-0.000641314
0.00269027
-0.000625564
0.00270502
-0.000609743
0.00271922
-0.000593967
0.00273293
-0.000578371
0.00274617
-0.000563067
0.002759
-0.000548195
0.00277145
-0.000533847
0.00278357
-0.000520167
0.00279539
-0.000507208
0.00280697
-0.000495119
0.00281833
-0.000483889
0.0028295
-0.000473679
0.00284052
-0.00046438
0.0028514
-0.000456189
0.00286217
-0.000448856
0.00287284
-0.000442658
0.00288342
-0.000437138
0.00289392
-0.000432737
0.00290435
-0.000428697
0.0029147
-0.000425756
0.00292498
-0.000422711
0.00293519
-0.000420805
0.00294531
-0.000418173
0.00295538
-0.000416867
0.00296536
-0.000414027
0.00297529
-0.000412962
0.00298513
-0.000409315
0.00299493
-0.000408282
0.00300465
-0.00040329
0.00301436
-0.000402296
0.00302397
-0.000395491
0.00303362
-0.000394785
0.00304316
-0.000385758
0.00305277
-0.000385821
0.00306227
-0.0003742
0.00307186
-0.000375701
0.00308133
-0.000361156
0.00309091
-0.000364839
0.00310037
-0.00034718
0.00310993
-0.000353632
0.00311941
-0.000333143
0.00312894
-0.000342272
0.00313849
-0.000320568
0.003148
-0.000330351
-0.000312519
0.00254001
0.00256144
-0.000801002
0.00258226
-0.00079206
0.00260245
-0.000782037
0.00262199
-0.000770997
0.00264087
-0.000759011
0.00265909
-0.000746156
0.00267666
-0.000732512
0.00269357
-0.000718167
0.00270984
-0.000703215
0.00272548
-0.000687758
0.00274051
-0.000671901
0.00275496
-0.000655761
0.00276885
-0.000639452
0.00278221
-0.000623104
0.00279507
-0.000606835
0.00280749
-0.000590783
0.00281948
-0.000575059
0.00283109
-0.000559807
0.00284236
-0.000545118
0.00285333
-0.000531136
0.00286403
-0.000517911
0.00287451
-0.000505593
0.00288478
-0.000494165
0.00289489
-0.000483788
0.00290486
-0.000474348
0.00291471
-0.00046604
0.00292446
-0.000458604
0.00293412
-0.000452322
0.00294371
-0.000446724
0.00295323
-0.000442259
0.00296268
-0.000438151
0.00297208
-0.000435156
0.00298142
-0.000432045
0.0029907
-0.000430091
0.00299992
-0.000427389
0.00300909
-0.000426041
0.00301819
-0.000423129
0.00302726
-0.00042203
0.00303626
-0.00041831
0.00304524
-0.000417263
0.00305415
-0.000412198
0.00306307
-0.000411215
0.00307191
-0.000404338
0.0030808
-0.000403672
0.00308962
-0.000394574
0.0030985
-0.000394706
0.00310731
-0.000383012
0.00311622
-0.000384603
0.00312505
-0.000369987
0.00313397
-0.000373765
0.00314285
-0.000356053
0.00315179
-0.000362575
0.00316074
-0.000342091
0.00316969
-0.000351222
0.00317876
-0.000329643
0.00318775
-0.000339341
-0.000321772
0.00265245
-0.000820338
0.00267123
-0.000810843
0.00268945
-0.000800252
0.00270708
-0.000788635
0.00272414
-0.000776064
0.0027406
-0.000762621
0.00275648
-0.00074839
0.00277178
-0.000733463
0.0027865
-0.000717938
0.00280066
-0.000701921
0.00281428
-0.000685522
0.00282738
-0.00066886
0.00283998
-0.000652053
0.00285211
-0.000635234
0.0028638
-0.000618524
0.00287508
-0.000602063
0.00288599
-0.000585963
0.00289655
-0.00057037
0.0029068
-0.000555373
0.00291679
-0.000541119
0.00292653
-0.000527655
0.00293607
-0.00051513
0.00294543
-0.000503524
0.00295464
-0.000492997
0.00296372
-0.000483429
0.00297269
-0.000475016
0.00298158
-0.00046749
0.00299039
-0.000461135
0.00299914
-0.00045547
0.00300783
-0.000450952
0.00301647
-0.000446788
0.00302506
-0.00044375
0.0030336
-0.000440587
0.00304211
-0.000438596
0.00305056
-0.000435842
0.00305898
-0.000434463
0.00306735
-0.000431496
0.0030757
-0.000430379
0.003084
-0.000426605
0.00309229
-0.000425556
0.00310053
-0.000420441
0.0031088
-0.000419478
0.00311701
-0.000412558
0.00312528
-0.000411936
0.0031335
-0.0004028
0.0031418
-0.000402998
0.00315006
-0.000391274
0.0031584
-0.000392945
0.00316672
-0.00037831
0.00317512
-0.000382164
0.00318353
-0.000364465
0.00319199
-0.000371026
0.00320052
-0.000350628
0.00320902
-0.000359719
0.00321774
-0.000338358
0.00322632
-0.00034793
-0.000330701
0.00273391
-0.000837691
0.00275078
-0.000827714
0.00276715
-0.000816629
0.00278303
-0.000804507
0.00279839
-0.000791427
0.00281324
-0.000777472
0.00282758
-0.000762729
0.00284141
-0.000747295
0.00285474
-0.000731271
0.00286759
-0.000714765
0.00287996
-0.000697892
0.00289187
-0.000680773
0.00290335
-0.00066353
0.00291441
-0.000646298
0.00292509
-0.0006292
0.0029354
-0.000612378
0.00294539
-0.000595946
0.00295507
-0.00058005
0.00296447
-0.00056478
0.00297364
-0.000550284
0.00298259
-0.000536606