/*--------------------------------*- C++ -*----------------------------------*\
  =========                 |
  \\      /  F ield         | OpenFOAM: The Open Source CFD Toolbox
   \\    /   O peration     | Website:  https://openfoam.org
    \\  /    A nd           | Version:  7
     \\/     M anipulation  |
\*---------------------------------------------------------------------------*/
FoamFile
{
    version     2.0;
    format      ascii;
    class       volVectorField;
    location    "35";
    object      U;
}
// * * * * * * * * * * * * * * * * * * * * * * * * * * * * * * * * * * * * * //

dimensions      [0 1 -1 0 0 0 0];

internalField   nonuniform List<vector> 
1989
(
(1.17569 -0.0555059 0)
(1.17266 -0.0580301 0)
(1.16961 -0.0604289 0)
(1.16656 -0.0626981 0)
(1.16349 -0.0648336 0)
(1.16042 -0.0668313 0)
(1.15732 -0.0686874 0)
(1.15422 -0.0703983 0)
(1.1511 -0.0719607 0)
(1.14797 -0.0733718 0)
(1.14482 -0.0746294 0)
(1.14167 -0.0757317 0)
(1.13851 -0.0766777 0)
(1.13535 -0.0774671 0)
(1.13218 -0.0781003 0)
(1.12902 -0.0785786 0)
(1.12586 -0.078904 0)
(1.12271 -0.0790791 0)
(1.11958 -0.0791073 0)
(1.11646 -0.0789928 0)
(1.11337 -0.0787401 0)
(1.1103 -0.0783544 0)
(1.10727 -0.0778413 0)
(1.10427 -0.0772065 0)
(1.1013 -0.0764561 0)
(1.09838 -0.0755965 0)
(1.0955 -0.0746338 0)
(1.09267 -0.0735745 0)
(1.08988 -0.0724248 0)
(1.25779 0.05138 0)
(1.2567 0.046421 0)
(1.25541 0.0415276 0)
(1.25395 0.0367026 0)
(1.25231 0.031947 0)
(1.25053 0.0272653 0)
(1.24859 0.0226581 0)
(1.24652 0.018133 0)
(1.24433 0.013689 0)
(1.24204 0.00933195 0)
(1.23965 0.00506 0)
(1.23718 0.000862975 0)
(1.23464 -0.00324863 0)
(1.23203 -0.00727823 0)
(1.22935 -0.0112253 0)
(1.22662 -0.0150874 0)
(1.22383 -0.0188623 0)
(1.221 -0.0225482 0)
(1.21813 -0.0261429 0)
(1.21522 -0.0296445 0)
(1.21227 -0.0330505 0)
(1.20929 -0.0363584 0)
(1.20627 -0.0395656 0)
(1.20323 -0.0426689 0)
(1.20015 -0.0456653 0)
(1.19705 -0.0485512 0)
(1.19391 -0.0513231 0)
(1.19074 -0.0539771 0)
(1.18755 -0.0565093 0)
(1.18432 -0.0589157 0)
(1.18107 -0.0611923 0)
(1.17778 -0.063335 0)
(1.17447 -0.0653401 0)
(1.17113 -0.0672037 0)
(1.16776 -0.0689226 0)
(1.16438 -0.0704937 0)
(1.16097 -0.0719142 0)
(1.15754 -0.0731823 0)
(1.15409 -0.0742962 0)
(1.15064 -0.0752553 0)
(1.14718 -0.0760591 0)
(1.14371 -0.0767084 0)
(1.14025 -0.0772042 0)
(1.13679 -0.0775487 0)
(1.13335 -0.0777444 0)
(1.12992 -0.0777949 0)
(1.12652 -0.077704 0)
(1.12313 -0.0774762 0)
(1.11979 -0.0771167 0)
(1.11647 -0.0766307 0)
(1.11319 -0.0760241 0)
(1.10996 -0.0753027 0)
(1.10677 -0.0744728 0)
(1.10364 -0.0735404 0)
(1.10055 -0.0725118 0)
(1.09752 -0.0713931 0)
(1.25939 0.0518102 0)
(1.25889 0.0469763 0)
(1.25822 0.0422005 0)
(1.25736 0.0374851 0)
(1.25634 0.0328314 0)
(1.25515 0.0282433 0)
(1.2538 0.0237219 0)
(1.2523 0.0192727 0)
(1.25067 0.0148964 0)
(1.2489 0.0105977 0)
(1.24701 0.00637609 0)
(1.24501 0.00223026 0)
(1.24291 -0.00184278 0)
(1.2407 -0.00583919 0)
(1.23839 -0.00975624 0)
(1.236 -0.013592 0)
(1.23352 -0.0173442 0)
(1.23096 -0.0210108 0)
(1.22832 -0.0245891 0)
(1.22561 -0.0280767 0)
(1.22283 -0.031471 0)
(1.21999 -0.034769 0)
(1.21708 -0.0379677 0)
(1.21411 -0.041064 0)
(1.21108 -0.0440544 0)
(1.208 -0.0469352 0)
(1.20485 -0.0497029 0)
(1.20166 -0.0523536 0)
(1.19841 -0.0548832 0)
(1.19512 -0.0572879 0)
(1.19177 -0.0595636 0)
(1.18838 -0.0617065 0)
(1.18494 -0.0637128 0)
(1.18147 -0.0655789 0)
(1.17795 -0.0673016 0)
(1.1744 -0.068878 0)
(1.17082 -0.0703056 0)
(1.16722 -0.0715824 0)
(1.16359 -0.072707 0)
(1.15994 -0.0736786 0)
(1.15629 -0.0744971 0)
(1.15262 -0.075163 0)
(1.14896 -0.0756775 0)
(1.1453 -0.0760427 0)
(1.14165 -0.0762611 0)
(1.13802 -0.076336 0)
(1.13441 -0.0762713 0)
(1.13083 -0.0760713 0)
(1.12727 -0.0757409 0)
(1.12376 -0.0752854 0)
(1.12028 -0.0747103 0)
(1.11685 -0.0740214 0)
(1.11347 -0.0732248 0)
(1.11015 -0.0723263 0)
(1.10688 -0.0713322 0)
(1.10366 -0.0702484 0)
(1.25865 0.0519177 0)
(1.25856 0.0472068 0)
(1.25831 0.0425491 0)
(1.25788 0.0379466 0)
(1.25729 0.0334007 0)
(1.25654 0.0289142 0)
(1.25564 0.0244889 0)
(1.25458 0.0201286 0)
(1.25337 0.0158351 0)
(1.25203 0.0116116 0)
(1.25055 0.00745859 0)
(1.24895 0.00337639 0)
(1.24722 -0.000638469 0)
(1.24537 -0.00458021 0)
(1.24341 -0.00844658 0)
(1.24133 -0.0122358 0)
(1.23915 -0.0159457 0)
(1.23686 -0.0195734 0)
(1.23447 -0.0231163 0)
(1.23199 -0.0265716 0)
(1.22941 -0.0299363 0)
(1.22674 -0.0332074 0)
(1.22399 -0.0363815 0)
(1.22115 -0.0394553 0)
(1.21823 -0.0424253 0)
(1.21523 -0.0452877 0)
(1.21216 -0.0480388 0)
(1.20901 -0.0506746 0)
(1.20579 -0.0531912 0)
(1.20251 -0.0555846 0)
(1.19916 -0.0578509 0)
(1.19574 -0.0599863 0)
(1.19227 -0.0619872 0)
(1.18875 -0.0638499 0)
(1.18517 -0.0655715 0)
(1.18156 -0.067149 0)
(1.1779 -0.0685801 0)
(1.1742 -0.0698629 0)
(1.17048 -0.0709961 0)
(1.16673 -0.0719788 0)
(1.16297 -0.0728109 0)
(1.15919 -0.073493 0)
(1.15541 -0.0740262 0)
(1.15163 -0.0744125 0)
(1.14786 -0.0746543 0)
(1.1441 -0.0747548 0)
(1.14036 -0.0747177 0)
(1.13665 -0.0745471 0)
(1.13296 -0.0742479 0)
(1.12932 -0.0738249 0)
(1.12571 -0.0732838 0)
(1.12215 -0.0726299 0)
(1.11864 -0.0718692 0)
(1.11519 -0.0710074 0)
(1.11179 -0.0700506 0)
(1.10845 -0.0690047 0)
(1.25654 0.0518046 0)
(1.25671 0.0472124 0)
(1.25672 0.04267 0)
(1.25659 0.038179 0)
(1.25629 0.0337408 0)
(1.25585 0.0293578 0)
(1.25525 0.0250318 0)
(1.25451 0.0207658 0)
(1.25362 0.0165617 0)
(1.25259 0.012422 0)
(1.25143 0.0083475 0)
(1.25013 0.0043391 0)
(1.2487 0.000395808 0)
(1.24715 -0.00347829 0)
(1.24547 -0.00728101 0)
(1.24366 -0.0110103 0)
(1.24174 -0.0146637 0)
(1.2397 -0.0182385 0)
(1.23754 -0.0217318 0)
(1.23528 -0.0251406 0)
(1.2329 -0.0284619 0)
(1.23042 -0.0316924 0)
(1.22784 -0.0348288 0)
(1.22515 -0.0378675 0)
(1.22237 -0.0408049 0)
(1.21949 -0.0436373 0)
(1.21653 -0.0463608 0)
(1.21347 -0.0489716 0)
(1.21033 -0.0514656 0)
(1.20711 -0.053839 0)
(1.20381 -0.0560879 0)
(1.20044 -0.0582085 0)
(1.197 -0.0601972 0)
(1.19349 -0.0620507 0)
(1.18992 -0.0637658 0)
(1.1863 -0.0653398 0)
(1.18263 -0.0667704 0)
(1.17891 -0.0680558 0)
(1.17516 -0.0691945 0)
(1.17138 -0.070186 0)
(1.16758 -0.0710299 0)
(1.16376 -0.0717267 0)
(1.15993 -0.0722776 0)
(1.15609 -0.0726844 0)
(1.15226 -0.0729494 0)
(1.14844 -0.0730755 0)
(1.14464 -0.0730664 0)
(1.14086 -0.0729259 0)
(1.1371 -0.0726587 0)
(1.13338 -0.0722695 0)
(1.1297 -0.0717636 0)
(1.12607 -0.0711462 0)
(1.12248 -0.0704231 0)
(1.11895 -0.0695999 0)
(1.11547 -0.0686824 0)
(1.11205 -0.0676763 0)
(1.25361 0.0515373 0)
(1.25396 0.0470615 0)
(1.25416 0.0426322 0)
(1.25421 0.0382512 0)
(1.25411 0.0339197 0)
(1.25387 0.0296401 0)
(1.25349 0.0254141 0)
(1.25297 0.0212442 0)
(1.2523 0.0171323 0)
(1.2515 0.0130804 0)
(1.25056 0.0090899 0)
(1.24949 0.00516191 0)
(1.24829 0.00129761 0)
(1.24696 -0.00250175 0)
(1.2455 -0.00623309 0)
(1.24391 -0.00989396 0)
(1.2422 -0.0134819 0)
(1.24037 -0.0169943 0)
(1.23841 -0.0204283 0)
(1.23633 -0.0237807 0)
(1.23414 -0.0270486 0)
(1.23183 -0.0302286 0)
(1.22941 -0.0333172 0)
(1.22688 -0.0363111 0)
(1.22424 -0.0392065 0)
(1.2215 -0.0419997 0)
(1.21866 -0.0446869 0)
(1.21572 -0.0472642 0)
(1.21268 -0.0497278 0)
(1.20955 -0.0520736 0)
(1.20634 -0.054298 0)
(1.20304 -0.0563973 0)
(1.19967 -0.0583679 0)
(1.19622 -0.0602065 0)
(1.1927 -0.0619101 0)
(1.18912 -0.0634761 0)
(1.18549 -0.0649021 0)
(1.1818 -0.0661864 0)
(1.17808 -0.0673276 0)
(1.17431 -0.068325 0)
(1.17052 -0.0691783 0)
(1.1667 -0.0698879 0)
(1.16287 -0.0704548 0)
(1.15903 -0.0708808 0)
(1.15519 -0.0711679 0)
(1.15136 -0.071319 0)
(1.14754 -0.0713374 0)
(1.14374 -0.0712269 0)
(1.13996 -0.0709918 0)
(1.13621 -0.0706367 0)
(1.1325 -0.0701664 0)
(1.12883 -0.0695863 0)
(1.12521 -0.0689017 0)
(1.12164 -0.0681181 0)
(1.11812 -0.067241 0)
(1.11466 -0.0662762 0)
(1.2502 0.0511522 0)
(1.25067 0.0467933 0)
(1.25099 0.0424777 0)
(1.25118 0.0382068 0)
(1.25122 0.0339824 0)
(1.25113 0.0298066 0)
(1.2509 0.0256813 0)
(1.25053 0.0216087 0)
(1.25002 0.0175907 0)
(1.24938 0.0136292 0)
(1.24861 0.00972598 0)
(1.24771 0.00588236 0)
(1.24668 0.00209992 0)
(1.24551 -0.00162007 0)
(1.24422 -0.00527489 0)
(1.2428 -0.00886193 0)
(1.24126 -0.0123787 0)
(1.23959 -0.0158227 0)
(1.23779 -0.0191909 0)
(1.23587 -0.0224803 0)
(1.23384 -0.025688 0)
(1.23168 -0.0288105 0)
(1.2294 -0.0318445 0)
(1.22702 -0.0347866 0)
(1.22451 -0.0376331 0)
(1.2219 -0.0403803 0)
(1.21918 -0.0430245 0)
(1.21636 -0.0455619 0)
(1.21344 -0.0479887 0)
(1.21041 -0.050301 0)
(1.2073 -0.0524953 0)
(1.2041 -0.0545678 0)
(1.20081 -0.0565152 0)
(1.19744 -0.0583342 0)
(1.194 -0.0600219 0)
(1.1905 -0.0615757 0)
(1.18693 -0.0629934 0)
(1.1833 -0.0642731 0)
(1.17963 -0.0654136 0)
(1.17592 -0.066414 0)
(1.17217 -0.0672742 0)
(1.16839 -0.0679943 0)
(1.1646 -0.0685753 0)
(1.16079 -0.0690187 0)
(1.15697 -0.0693266 0)
(1.15316 -0.0695014 0)
(1.14936 -0.0695464 0)
(1.14557 -0.0694652 0)
(1.1418 -0.0692617 0)
(1.13806 -0.0689403 0)
(1.13435 -0.0685057 0)
(1.13068 -0.0679629 0)
(1.12705 -0.0673171 0)
(1.12347 -0.0665735 0)
(1.11995 -0.0657375 0)
(1.11648 -0.0648146 0)
(1.24645 0.0506652 0)
(1.24702 0.0464263 0)
(1.24745 0.0422267 0)
(1.24774 0.0380683 0)
(1.2479 0.0339531 0)
(1.24792 0.0298831 0)
(1.2478 0.0258604 0)
(1.24755 0.021887 0)
(1.24716 0.0179651 0)
(1.24665 0.0140966 0)
(1.246 0.0102833 0)
(1.24522 0.00652692 0)
(1.24432 0.00282914 0)
(1.24328 -0.000808364 0)
(1.24212 -0.00438317 0)
(1.24084 -0.00789272 0)
(1.23942 -0.0113345 0)
(1.23788 -0.0147059 0)
(1.23622 -0.018004 0)
(1.23443 -0.0212261 0)
(1.23253 -0.0243688 0)
(1.2305 -0.0274291 0)
(1.22835 -0.0304037 0)
(1.22608 -0.0332891 0)
(1.2237 -0.0360817 0)
(1.22121 -0.0387781 0)
(1.21861 -0.0413745 0)
(1.2159 -0.0438672 0)
(1.21309 -0.0462525 0)
(1.21017 -0.0485268 0)
(1.20716 -0.0506864 0)
(1.20406 -0.0527279 0)
(1.20087 -0.054648 0)
(1.1976 -0.0564434 0)
(1.19425 -0.0581115 0)
(1.19082 -0.0596496 0)
(1.18734 -0.0610556 0)
(1.18379 -0.0623278 0)
(1.18019 -0.0634646 0)
(1.17655 -0.0644655 0)
(1.17286 -0.06533 0)
(1.16915 -0.0660584 0)
(1.16541 -0.0666514 0)
(1.16165 -0.0671104 0)
(1.15789 -0.0674373 0)
(1.15412 -0.0676345 0)
(1.15036 -0.0677049 0)
(1.1466 -0.0676518 0)
(1.14287 -0.0674791 0)
(1.13915 -0.0671908 0)
(1.13547 -0.0667914 0)
(1.13182 -0.0662856 0)
(1.12821 -0.0656784 0)
(1.12465 -0.0649748 0)
(1.12113 -0.0641801 0)
(1.11767 -0.0632994 0)
(1.24247 0.0500818 0)
(1.24313 0.0459669 0)
(1.24366 0.0418873 0)
(1.24404 0.0378451 0)
(1.24429 0.0338424 0)
(1.2444 0.0298814 0)
(1.24438 0.0259642 0)
(1.24423 0.0220932 0)
(1.24394 0.0182703 0)
(1.24353 0.0144978 0)
(1.24298 0.0107775 0)
(1.24231 0.00711134 0)
(1.24151 0.00350124 0)
(1.24058 -5.08511e-05 0)
(1.23953 -0.00354265 0)
(1.23835 -0.00697165 0)
(1.23704 -0.0103353 0)
(1.23561 -0.0136309 0)
(1.23406 -0.0168558 0)
(1.23238 -0.020007 0)
(1.23059 -0.0230814 0)
(1.22867 -0.0260761 0)
(1.22663 -0.0289876 0)
(1.22448 -0.0318127 0)
(1.22221 -0.0345479 0)
(1.21982 -0.0371898 0)
(1.21733 -0.0397347 0)
(1.21473 -0.0421791 0)
(1.21202 -0.0445195 0)
(1.20921 -0.0467522 0)
(1.2063 -0.0488738 0)
(1.2033 -0.050881 0)
(1.2002 -0.0527704 0)
(1.19703 -0.0545393 0)
(1.19377 -0.0561847 0)
(1.19044 -0.0577042 0)
(1.18704 -0.0590957 0)
(1.18358 -0.0603575 0)
(1.18006 -0.0614882 0)
(1.1765 -0.0624871 0)
(1.17289 -0.0633536 0)
(1.16925 -0.0640881 0)
(1.16558 -0.0646912 0)
(1.16189 -0.065164 0)
(1.15819 -0.0655082 0)
(1.15448 -0.0657262 0)
(1.15077 -0.0658205 0)
(1.14706 -0.0657944 0)
(1.14337 -0.0656513 0)
(1.1397 -0.0653952 0)
(1.13606 -0.0650302 0)
(1.13245 -0.0645609 0)
(1.12887 -0.0639919 0)
(1.12533 -0.0633281 0)
(1.12184 -0.0625745 0)
(1.1184 -0.0617361 0)
(1.23836 0.0494041 0)
(1.2391 0.0454176 0)
(1.2397 0.0414622 0)
(1.24017 0.0375402 0)
(1.2405 0.033654 0)
(1.2407 0.0298057 0)
(1.24076 0.0259979 0)
(1.24069 0.0222328 0)
(1.2405 0.0185126 0)
(1.24017 0.0148395 0)
(1.23972 0.0112157 0)
(1.23913 0.00764318 0)
(1.23842 0.00412407 0)
(1.23759 0.000660503 0)
(1.23663 -0.00274523 0)
(1.23554 -0.00609063 0)
(1.23433 -0.00937311 0)
(1.233 -0.01259 0)
(1.23154 -0.0157387 0)
(1.22996 -0.0188161 0)
(1.22826 -0.0218193 0)
(1.22644 -0.0247453 0)
(1.22451 -0.0275909 0)
(1.22245 -0.0303528 0)
(1.22028 -0.0330277 0)
(1.218 -0.0356122 0)
(1.2156 -0.0381028 0)
(1.2131 -0.0404961 0)
(1.21049 -0.0427886 0)
(1.20778 -0.044977 0)
(1.20497 -0.0470578 0)
(1.20207 -0.049028 0)
(1.19907 -0.0508842 0)
(1.19599 -0.0526238 0)
(1.19283 -0.054244 0)
(1.18959 -0.0557424 0)
(1.18628 -0.0571171 0)
(1.18291 -0.0583662 0)
(1.17948 -0.0594885 0)
(1.176 -0.0604831 0)
(1.17247 -0.0613497 0)
(1.16891 -0.0620882 0)
(1.16532 -0.0626994 0)
(1.1617 -0.0631841 0)
(1.15806 -0.0635441 0)
(1.15442 -0.0637813 0)
(1.15077 -0.0638982 0)
(1.14713 -0.0638977 0)
(1.14349 -0.0637831 0)
(1.13987 -0.0635581 0)
(1.13628 -0.0632267 0)
(1.13271 -0.0627931 0)
(1.12917 -0.0622617 0)
(1.12567 -0.0616373 0)
(1.12221 -0.0609244 0)
(1.1188 -0.0601281 0)
(1.23418 0.0486342 0)
(1.23499 0.0447802 0)
(1.23566 0.0409531 0)
(1.23621 0.0371554 0)
(1.23661 0.0333895 0)
(1.23689 0.029658 0)
(1.23703 0.0259634 0)
(1.23704 0.0223079 0)
(1.23692 0.0186941 0)
(1.23668 0.0151242 0)
(1.23631 0.0116005 0)
(1.23581 0.00812526 0)
(1.23518 0.00470061 0)
(1.23443 0.00132889 0)
(1.23355 -0.00198756 0)
(1.23256 -0.00524621 0)
(1.23143 -0.00844449 0)
(1.23019 -0.0115797 0)
(1.22882 -0.0146492 0)
(1.22733 -0.01765 0)
(1.22572 -0.0205792 0)
(1.22399 -0.0234338 0)
(1.22215 -0.0262108 0)
(1.22018 -0.0289068 0)
(1.21811 -0.0315188 0)
(1.21592 -0.0340433 0)
(1.21362 -0.036477 0)
(1.21121 -0.0388167 0)
(1.20869 -0.041059 0)
(1.20608 -0.0432006 0)
(1.20336 -0.0452384 0)
(1.20055 -0.0471691 0)
(1.19765 -0.0489899 0)
(1.19466 -0.0506979 0)
(1.19159 -0.0522907 0)
(1.18845 -0.0537658 0)
(1.18523 -0.0551214 0)
(1.18195 -0.0563557 0)
(1.1786 -0.0574675 0)
(1.17521 -0.0584559 0)
(1.17177 -0.0593205 0)
(1.16828 -0.0600613 0)
(1.16477 -0.0606787 0)
(1.16123 -0.0611737 0)
(1.15767 -0.0615477 0)
(1.15409 -0.0618025 0)
(1.15051 -0.0619405 0)
(1.14693 -0.0619643 0)
(1.14335 -0.061877 0)
(1.13979 -0.0616821 0)
(1.13624 -0.0613832 0)
(1.13272 -0.0609845 0)
(1.12923 -0.06049 0)
(1.12577 -0.0599043 0)
(1.12235 -0.0592319 0)
(1.11898 -0.0584773 0)
(1.22999 0.0477749 0)
(1.23087 0.044057 0)
(1.23161 0.0403619 0)
(1.23221 0.0366921 0)
(1.23269 0.0330504 0)
(1.23303 0.0294393 0)
(1.23325 0.0258615 0)
(1.23333 0.0223195 0)
(1.23329 0.0188158 0)
(1.23312 0.0153527 0)
(1.23282 0.0119328 0)
(1.2324 0.00855829 0)
(1.23185 0.00523161 0)
(1.23118 0.00195511 0)
(1.23039 -0.00126876 0)
(1.22947 -0.00443748 0)
(1.22843 -0.00754843 0)
(1.22727 -0.0105989 0)
(1.22598 -0.0135863 0)
(1.22458 -0.0165076 0)
(1.22305 -0.01936 0)
(1.22141 -0.0221406 0)
(1.21965 -0.0248462 0)
(1.21778 -0.0274738 0)
(1.21579 -0.0300203 0)
(1.21369 -0.0324824 0)
(1.21148 -0.0348569 0)
(1.20916 -0.0371407 0)
(1.20674 -0.0393304 0)
(1.20421 -0.041423 0)
(1.20159 -0.0434154 0)
(1.19887 -0.0453046 0)
(1.19606 -0.0470877 0)
(1.19316 -0.0487621 0)
(1.19019 -0.0503253 0)
(1.18713 -0.0517751 0)
(1.184 -0.0531096 0)
(1.18081 -0.0543271 0)
(1.17755 -0.0554265 0)
(1.17424 -0.0564068 0)
(1.17088 -0.0572675 0)
(1.16748 -0.0580086 0)
(1.16405 -0.0586305 0)
(1.16058 -0.059134 0)
(1.15709 -0.0595204 0)
(1.15359 -0.0597913 0)
(1.15007 -0.0599488 0)
(1.14656 -0.0599955 0)
(1.14304 -0.0599343 0)
(1.13954 -0.0597682 0)
(1.13605 -0.0595009 0)
(1.13258 -0.0591361 0)
(1.12913 -0.0586778 0)
(1.12572 -0.0581302 0)
(1.12234 -0.0574976 0)
(1.119 -0.0567844 0)
(1.22583 0.0468283 0)
(1.22676 0.04325 0)
(1.22756 0.0396901 0)
(1.22823 0.0361517 0)
(1.22877 0.0326376 0)
(1.22918 0.0291504 0)
(1.22946 0.0256929 0)
(1.22961 0.0222678 0)
(1.22964 0.0188777 0)
(1.22954 0.015525 0)
(1.22932 0.0122124 0)
(1.22897 0.00894215 0)
(1.22849 0.00571684 0)
(1.2279 0.00253892 0)
(1.22718 -0.000589115 0)
(1.22634 -0.0036647 0)
(1.22537 -0.00668522 0)
(1.22429 -0.00964798 0)
(1.22309 -0.0125502 0)
(1.22176 -0.0153892 0)
(1.22032 -0.018162 0)
(1.21876 -0.0208658 0)
(1.21709 -0.0234975 0)
(1.2153 -0.0260541 0)
(1.2134 -0.0285326 0)
(1.21138 -0.0309298 0)
(1.20926 -0.0332427 0)
(1.20703 -0.0354682 0)
(1.2047 -0.0376031 0)
(1.20226 -0.0396445 0)
(1.19973 -0.0415893 0)
(1.1971 -0.0434348 0)
(1.19438 -0.0451781 0)
(1.19157 -0.0468167 0)
(1.18868 -0.0483484 0)
(1.18571 -0.0497708 0)
(1.18267 -0.0510822 0)
(1.17956 -0.052281 0)
(1.17639 -0.053366 0)
(1.17317 -0.0543362 0)
(1.16989 -0.0551912 0)
(1.16657 -0.0559308 0)
(1.16321 -0.0565554 0)
(1.15983 -0.0570657 0)
(1.15641 -0.0574628 0)
(1.15298 -0.0577482 0)
(1.14953 -0.0579238 0)
(1.14608 -0.057992 0)
(1.14263 -0.0579554 0)
(1.13918 -0.0578171 0)
(1.13575 -0.0575802 0)
(1.13233 -0.0572484 0)
(1.12893 -0.0568253 0)
(1.12556 -0.0563151 0)
(1.12222 -0.0557217 0)
(1.11892 -0.0550495 0)
(1.22172 0.0457952 0)
(1.2227 0.0423594 0)
(1.22355 0.038938 0)
(1.22428 0.0355343 0)
(1.22487 0.032151 0)
(1.22534 0.028791 0)
(1.22569 0.0254573 0)
(1.2259 0.0221525 0)
(1.226 0.0188794 0)
(1.22596 0.0156405 0)
(1.22581 0.0124386 0)
(1.22553 0.00927601 0)
(1.22513 0.00615544 0)
(1.2246 0.00307939 0)
(1.22396 5.04251e-05 0)
(1.22319 -0.00292887 0)
(1.2223 -0.00585584 0)
(1.2213 -0.00872781 0)
(1.22017 -0.011542 0)
(1.21893 -0.0142958 0)
(1.21756 -0.0169862 0)
(1.21609 -0.0196104 0)
(1.21449 -0.0221655 0)
(1.21279 -0.0246485 0)
(1.21097 -0.0270564 0)
(1.20904 -0.0293864 0)
(1.207 -0.0316352 0)
(1.20486 -0.0338 0)
(1.20261 -0.0358778 0)
(1.20026 -0.0378657 0)
(1.19781 -0.0397608 0)
(1.19527 -0.0415603 0)
(1.19264 -0.0432617 0)
(1.18992 -0.0448626 0)
(1.18712 -0.0463605 0)
(1.18424 -0.0477535 0)
(1.18128 -0.0490398 0)
(1.17826 -0.0502179 0)
(1.17517 -0.0512865 0)
(1.17203 -0.0522447 0)
(1.16884 -0.053092 0)
(1.1656 -0.0538283 0)
(1.16232 -0.0544538 0)
(1.159 -0.0549691 0)
(1.15566 -0.0553751 0)
(1.1523 -0.0556734 0)
(1.14892 -0.0558655 0)
(1.14553 -0.0559538 0)
(1.14214 -0.0559405 0)
(1.13875 -0.0558285 0)
(1.13537 -0.0556209 0)
(1.13201 -0.055321 0)
(1.12866 -0.0549323 0)
(1.12534 -0.0544586 0)
(1.12204 -0.0539038 0)
(1.11878 -0.0532719 0)
(1.21764 0.0446745 0)
(1.21867 0.0413842 0)
(1.21957 0.0381045 0)
(1.22035 0.0348384 0)
(1.221 0.0315892 0)
(1.22153 0.0283598 0)
(1.22193 0.0251531 0)
(1.22221 0.021972 0)
(1.22236 0.0188193 0)
(1.22239 0.0156976 0)
(1.2223 0.0126097 0)
(1.22209 0.00955822 0)
(1.22176 0.00654572 0)
(1.22131 0.00357484 0)
(1.22073 0.000648179 0)
(1.22004 -0.00223163 0)
(1.21922 -0.00506194 0)
(1.21829 -0.00784006 0)
(1.21724 -0.0105633 0)
(1.21607 -0.0132288 0)
(1.21479 -0.015834 0)
(1.21339 -0.0183758 0)
(1.21188 -0.0208516 0)
(1.21025 -0.0232583 0)
(1.20852 -0.0255932 0)
(1.20667 -0.0278532 0)
(1.20472 -0.0300356 0)
(1.20266 -0.0321373 0)
(1.20049 -0.0341556 0)
(1.19823 -0.0360877 0)
(1.19587 -0.0379308 0)
(1.19341 -0.0396822 0)
(1.19087 -0.0413395 0)
(1.18823 -0.0429003 0)
(1.18552 -0.0443625 0)
(1.18272 -0.0457239 0)
(1.17985 -0.0469831 0)
(1.17691 -0.0481383 0)
(1.17391 -0.0491885 0)
(1.17085 -0.0501327 0)
(1.16774 -0.0509704 0)
(1.16458 -0.0517015 0)
(1.16137 -0.0523259 0)
(1.15813 -0.0528444 0)
(1.15487 -0.0532576 0)
(1.15157 -0.053567 0)
(1.14826 -0.053774 0)
(1.14494 -0.0538807 0)
(1.14161 -0.0538893 0)
(1.13828 -0.0538024 0)
(1.13496 -0.0536228 0)
(1.13164 -0.0533537 0)
(1.12834 -0.0529984 0)
(1.12506 -0.0525604 0)
(1.12181 -0.0520433 0)
(1.11859 -0.0514512 0)
(1.21358 0.0434648 0)
(1.21466 0.0403228 0)
(1.21561 0.0371875 0)
(1.21644 0.0340622 0)
(1.21714 0.0309502 0)
(1.21772 0.0278545 0)
(1.21818 0.0247781 0)
(1.21852 0.021724 0)
(1.21874 0.018695 0)
(1.21883 0.0156939 0)
(1.21881 0.0127234 0)
(1.21866 0.00978635 0)
(1.21839 0.00688527 0)
(1.21801 0.00402287 0)
(1.2175 0.00120178 0)
(1.21688 -0.00157534 0)
(1.21614 -0.00430581 0)
(1.21528 -0.00698697 0)
(1.21431 -0.00961611 0)
(1.21321 -0.0121905 0)
(1.21201 -0.0147074 0)
(1.21069 -0.0171641 0)
(1.20925 -0.0195577 0)
(1.20771 -0.0218855 0)
(1.20605 -0.0241445 0)
(1.20429 -0.0263321 0)
(1.20241 -0.0284454 0)
(1.20044 -0.0304816 0)
(1.19836 -0.032438 0)
(1.19618 -0.0343118 0)
(1.1939 -0.0361005 0)
(1.19153 -0.0378015 0)
(1.18907 -0.0394124 0)
(1.18652 -0.040931 0)
(1.18389 -0.0423551 0)
(1.18118 -0.0436829 0)
(1.1784 -0.0449126 0)
(1.17554 -0.0460429 0)
(1.17262 -0.0470726 0)
(1.16964 -0.0480007 0)
(1.16661 -0.0488268 0)
(1.16352 -0.0495505 0)
(1.16039 -0.050172 0)
(1.15723 -0.0506917 0)
(1.15403 -0.0511104 0)
(1.15081 -0.0514291 0)
(1.14757 -0.0516493 0)
(1.14431 -0.0517729 0)
(1.14104 -0.0518018 0)
(1.13777 -0.0517385 0)
(1.1345 -0.0515856 0)
(1.13124 -0.0513461 0)
(1.12799 -0.051023 0)
(1.12475 -0.0506197 0)
(1.12154 -0.0501397 0)
(1.11836 -0.0495866 0)
(1.20955 0.042165 0)
(1.21067 0.0391735 0)
(1.21166 0.0361852 0)
(1.21254 0.0332035 0)
(1.21329 0.0302315 0)
(1.21393 0.0272726 0)
(1.21444 0.0243296 0)
(1.21484 0.0214057 0)
(1.21511 0.0185037 0)
(1.21527 0.0156265 0)
(1.21531 0.0127768 0)
(1.21522 0.00995747 0)
(1.21502 0.00717116 0)
(1.21471 0.00442057 0)
(1.21427 0.00170837 0)
(1.21372 -0.000962796 0)
(1.21305 -0.00359022 0)
(1.21226 -0.00617125 0)
(1.21136 -0.00870319 0)
(1.21034 -0.0111834 0)
(1.20921 -0.0136091 0)
(1.20797 -0.0159776 0)
(1.20661 -0.0182862 0)
(1.20515 -0.0205321 0)
(1.20357 -0.0227127 0)
(1.20188 -0.0248251 0)
(1.20009 -0.0268667 0)
(1.1982 -0.0288347 0)
(1.1962 -0.0307266 0)
(1.19411 -0.0325397 0)
(1.19191 -0.0342716 0)
(1.18963 -0.0359197 0)
(1.18725 -0.0374819 0)
(1.18479 -0.0389558 0)
(1.18224 -0.0403396 0)
(1.17961 -0.0416314 0)
(1.17691 -0.0428295 0)
(1.17414 -0.0439326 0)
(1.1713 -0.0449396 0)
(1.1684 -0.0458495 0)
(1.16544 -0.0466617 0)
(1.16244 -0.0473761 0)
(1.15938 -0.0479926 0)
(1.15629 -0.0485115 0)
(1.15317 -0.0489336 0)
(1.15001 -0.0492598 0)
(1.14683 -0.0494914 0)
(1.14364 -0.0496301 0)
(1.14043 -0.0496777 0)
(1.13722 -0.0496366 0)
(1.134 -0.049509 0)
(1.13079 -0.0492978 0)
(1.12759 -0.0490058 0)
(1.12441 -0.0486362 0)
(1.12124 -0.0481923 0)
(1.11809 -0.0476774 0)
(1.20554 0.0407744 0)
(1.2067 0.0379354 0)
(1.20774 0.0350963 0)
(1.20865 0.0322605 0)
(1.20946 0.0294313 0)
(1.21014 0.0266119 0)
(1.21071 0.0238053 0)
(1.21116 0.0210145 0)
(1.21149 0.0182427 0)
(1.2117 0.0154925 0)
(1.2118 0.0127669 0)
(1.21178 0.0100686 0)
(1.21165 0.00740034 0)
(1.2114 0.00476487 0)
(1.21103 0.00216486 0)
(1.21054 -0.00039703 0)
(1.20994 -0.00291815 0)
(1.20923 -0.00539584 0)
(1.2084 -0.00782744 0)
(1.20746 -0.0102103 0)
(1.2064 -0.0125417 0)
(1.20523 -0.0148191 0)
(1.20396 -0.0170397 0)
(1.20257 -0.0192009 0)
(1.20107 -0.0213 0)
(1.19947 -0.0233345 0)
(1.19776 -0.0253016 0)
(1.19594 -0.0271988 0)
(1.19403 -0.0290235 0)
(1.19201 -0.0307733 0)
(1.1899 -0.0324457 0)
(1.1877 -0.0340385 0)
(1.18541 -0.0355494 0)
(1.18303 -0.0369763 0)
(1.18056 -0.0383173 0)
(1.17802 -0.0395706 0)
(1.1754 -0.0407348 0)
(1.17271 -0.0418084 0)
(1.16995 -0.0427903 0)
(1.16713 -0.0436797 0)
(1.16425 -0.0444759 0)
(1.16132 -0.0451787 0)
(1.15834 -0.045788 0)
(1.15532 -0.0463041 0)
(1.15227 -0.0467276 0)
(1.14918 -0.0470593 0)
(1.14607 -0.0473005 0)
(1.14294 -0.0474525 0)
(1.13979 -0.0475172 0)
(1.13664 -0.0474965 0)
(1.13348 -0.0473928 0)
(1.13032 -0.0472085 0)
(1.12717 -0.0469464 0)
(1.12403 -0.0466094 0)
(1.1209 -0.0462005 0)
(1.1178 -0.0457231 0)
(1.20157 0.0392932 0)
(1.20275 0.0366082 0)
(1.20383 0.0339202 0)
(1.20479 0.0312324 0)
(1.20563 0.0285482 0)
(1.20636 0.0258707 0)
(1.20698 0.0232031 0)
(1.20748 0.0205484 0)
(1.20787 0.0179096 0)
(1.20814 0.0152895 0)
(1.2083 0.012691 0)
(1.20834 0.0101169 0)
(1.20827 0.00756997 0)
(1.20808 0.00505287 0)
(1.20778 0.00256829 0)
(1.20736 0.000118927 0)
(1.20683 -0.00229264 0)
(1.20618 -0.00466376 0)
(1.20543 -0.00699179 0)
(1.20456 -0.00927411 0)
(1.20358 -0.0115081 0)
(1.20248 -0.0136912 0)
(1.20128 -0.0158208 0)
(1.19997 -0.0178943 0)
(1.19855 -0.0199091 0)
(1.19703 -0.0218626 0)
(1.1954 -0.0237524 0)
(1.19366 -0.025576 0)
(1.19183 -0.0273308 0)
(1.1899 -0.0290145 0)
(1.18787 -0.0306249 0)
(1.18575 -0.0321596 0)
(1.18354 -0.0336166 0)
(1.18124 -0.0349939 0)
(1.17886 -0.0362896 0)
(1.17639 -0.037502 0)
(1.17385 -0.0386297 0)
(1.17124 -0.0396714 0)
(1.16856 -0.0406258 0)
(1.16582 -0.0414923 0)
(1.16302 -0.0422702 0)
(1.16017 -0.0429591 0)
(1.15726 -0.043559 0)
(1.15432 -0.0440701 0)
(1.15133 -0.0444929 0)
(1.14831 -0.0448281 0)
(1.14527 -0.0450767 0)
(1.1422 -0.0452402 0)
(1.13911 -0.0453201 0)
(1.13602 -0.0453183 0)
(1.13291 -0.0452368 0)
(1.12981 -0.045078 0)
(1.1267 -0.0448445 0)
(1.12361 -0.0445388 0)
(1.12053 -0.0441639 0)
(1.11746 -0.0437229 0)
(1.19763 0.0377223 0)
(1.19885 0.0351925 0)
(1.19995 0.0326568 0)
(1.20095 0.0301186 0)
(1.20184 0.0275813 0)
(1.20261 0.025048 0)
(1.20327 0.0225218 0)
(1.20382 0.0200057 0)
(1.20426 0.0175026 0)
(1.20459 0.0150154 0)
(1.2048 0.012547 0)
(1.2049 0.0101002 0)
(1.20489 0.00767758 0)
(1.20476 0.00528198 0)
(1.20452 0.00291601 0)
(1.20417 0.000582323 0)
(1.20371 -0.00171648 0)
(1.20313 -0.00397779 0)
(1.20245 -0.00619904 0)
(1.20165 -0.00837766 0)
(1.20074 -0.0105111 0)
(1.19972 -0.0125968 0)
(1.19859 -0.0146323 0)
(1.19736 -0.0166149 0)
(1.19602 -0.0185424 0)
(1.19457 -0.020412 0)
(1.19302 -0.0222216 0)
(1.19137 -0.0239685 0)
(1.18961 -0.0256506 0)
(1.18776 -0.0272655 0)
(1.18581 -0.0288109 0)
(1.18377 -0.0302849 0)
(1.18164 -0.0316853 0)
(1.17943 -0.0330102 0)
(1.17712 -0.034258 0)
(1.17474 -0.0354269 0)
(1.17228 -0.0365156 0)
(1.16975 -0.0375227 0)
(1.16715 -0.0384472 0)
(1.16449 -0.0392883 0)
(1.16176 -0.0400454 0)
(1.15898 -0.0407181 0)
(1.15615 -0.0413062 0)
(1.15328 -0.04181 0)
(1.15036 -0.0422298 0)
(1.14741 -0.0425663 0)
(1.14443 -0.0428204 0)
(1.14143 -0.0429934 0)
(1.1384 -0.0430867 0)
(1.13536 -0.0431019 0)
(1.13231 -0.043041 0)
(1.12926 -0.0429061 0)
(1.1262 -0.0426997 0)
(1.12315 -0.0424241 0)
(1.12012 -0.042082 0)
(1.11709 -0.0416765 0)
(1.19375 0.0360632 0)
(1.19499 0.0336889 0)
(1.19613 0.0313066 0)
(1.19715 0.0289194 0)
(1.19808 0.0265306 0)
(1.19889 0.0241433 0)
(1.19959 0.0217605 0)
(1.20019 0.0193852 0)
(1.20068 0.0170203 0)
(1.20105 0.0146687 0)
(1.20132 0.0123331 0)
(1.20147 0.0100163 0)
(1.20152 0.00772108 0)
(1.20145 0.00545 0)
(1.20128 0.00320573 0)
(1.20099 0.000990848 0)
(1.20059 -0.00119205 0)
(1.20008 -0.00334041 0)
(1.19947 -0.00545169 0)
(1.19874 -0.00752341 0)
(1.1979 -0.00955309 0)
(1.19695 -0.0115382 0)
(1.1959 -0.0134764 0)
(1.19474 -0.0153652 0)
(1.19347 -0.0172022 0)
(1.1921 -0.0189849 0)
(1.19063 -0.0207112 0)
(1.18905 -0.0223786 0)
(1.18738 -0.0239849 0)
(1.18561 -0.025528 0)
(1.18374 -0.0270057 0)
(1.18178 -0.028416 0)
(1.17973 -0.029757 0)
(1.17759 -0.0310269 0)
(1.17537 -0.0322239 0)
(1.17307 -0.0333466 0)
(1.17069 -0.0343935 0)
(1.16823 -0.0353635 0)
(1.16571 -0.0362554 0)
(1.16312 -0.0370686 0)
(1.16047 -0.0378023 0)
(1.15777 -0.0384562 0)
(1.15501 -0.0390302 0)
(1.15221 -0.0395243 0)
(1.14936 -0.0399388 0)
(1.14648 -0.0402744 0)
(1.14356 -0.0405318 0)
(1.14062 -0.0407122 0)
(1.13765 -0.0408168 0)
(1.13467 -0.0408472 0)
(1.13167 -0.0408052 0)
(1.12867 -0.0406926 0)
(1.12567 -0.0405117 0)
(1.12267 -0.0402648 0)
(1.11967 -0.0399544 0)
(1.11669 -0.0395831 0)
(1.18994 0.0343173 0)
(1.1912 0.032099 0)
(1.19236 0.0298706 0)
(1.19341 0.0276353 0)
(1.19437 0.0253962 0)
(1.19522 0.0231564 0)
(1.19596 0.0209188 0)
(1.1966 0.0186864 0)
(1.19713 0.0164619 0)
(1.19755 0.0142481 0)
(1.19787 0.0120479 0)
(1.19808 0.00986392 0)
(1.19818 0.00769879 0)
(1.19817 0.00555513 0)
(1.19805 0.00343552 0)
(1.19783 0.00134252 0)
(1.19749 -0.000721401 0)
(1.19705 -0.00275369 0)
(1.1965 -0.00475188 0)
(1.19584 -0.00671354 0)
(1.19507 -0.00863627 0)
(1.19419 -0.0105177 0)
(1.19321 -0.0123555 0)
(1.19212 -0.0141472 0)
(1.19093 -0.0158905 0)
(1.18963 -0.0175833 0)
(1.18823 -0.0192232 0)
(1.18674 -0.020808 0)
(1.18514 -0.0223355 0)
(1.18344 -0.0238038 0)
(1.18165 -0.0252108 0)
(1.17977 -0.0265546 0)
(1.1778 -0.0278332 0)
(1.17574 -0.0290451 0)
(1.1736 -0.0301886 0)
(1.17137 -0.0312622 0)
(1.16907 -0.0322646 0)
(1.1667 -0.0331946 0)
(1.16425 -0.0340513 0)
(1.16174 -0.0348338 0)
(1.15916 -0.0355416 0)
(1.15653 -0.0361742 0)
(1.15384 -0.0367314 0)
(1.15111 -0.0372133 0)
(1.14833 -0.0376202 0)
(1.14551 -0.0379525 0)
(1.14266 -0.038211 0)
(1.13978 -0.0383966 0)
(1.13687 -0.0385106 0)
(1.13395 -0.0385542 0)
(1.13101 -0.0385291 0)
(1.12805 -0.0384371 0)
(1.1251 -0.0382802 0)
(1.12214 -0.0380605 0)
(1.11919 -0.0377804 0)
(1.11625 -0.0374422 0)
(1.18621 0.0324867 0)
(1.18749 0.0304241 0)
(1.18867 0.0283498 0)
(1.18975 0.026267 0)
(1.19073 0.0241786 0)
(1.19161 0.0220875 0)
(1.19239 0.0199966 0)
(1.19306 0.0179088 0)
(1.19364 0.0158266 0)
(1.19411 0.013753 0)
(1.19447 0.0116905 0)
(1.19473 0.00964176 0)
(1.19488 0.00760939 0)
(1.19493 0.00559592 0)
(1.19487 0.00360385 0)
(1.1947 0.00163567 0)
(1.19442 -0.000306168 0)
(1.19404 -0.00221931 0)
(1.19355 -0.00410133 0)
(1.19296 -0.00594984 0)
(1.19226 -0.00776252 0)
(1.19145 -0.00953706 0)
(1.19054 -0.0112712 0)
(1.18952 -0.0129627 0)
(1.1884 -0.0146093 0)
(1.18717 -0.0162088 0)
(1.18585 -0.0177592 0)
(1.18442 -0.0192582 0)
(1.1829 -0.020704 0)
(1.18128 -0.0220944 0)
(1.17957 -0.0234276 0)
(1.17776 -0.0247017 0)
(1.17587 -0.0259151 0)
(1.17389 -0.027066 0)
(1.17182 -0.028153 0)
(1.16967 -0.0291746 0)
(1.16744 -0.0301296 0)
(1.16514 -0.0310169 0)
(1.16277 -0.0318355 0)
(1.16033 -0.0325846 0)
(1.15783 -0.0332636 0)
(1.15527 -0.0338722 0)
(1.15265 -0.0344101 0)
(1.14999 -0.0348773 0)
(1.14728 -0.035274 0)
(1.14452 -0.0356007 0)
(1.14173 -0.0358579 0)
(1.13891 -0.0360466 0)
(1.13606 -0.0361677 0)
(1.13319 -0.0362225 0)
(1.13031 -0.0362125 0)
(1.12741 -0.0361393 0)
(1.1245 -0.0360047 0)
(1.12159 -0.0358107 0)
(1.11868 -0.0355594 0)
(1.11578 -0.0352531 0)
(1.18259 0.0305731 0)
(1.18387 0.0286658 0)
(1.18507 0.0267456 0)
(1.18617 0.0248156 0)
(1.18718 0.0228785 0)
(1.18809 0.0209371 0)
(1.1889 0.0189942 0)
(1.18961 0.0170524 0)
(1.19022 0.0151144 0)
(1.19073 0.0131828 0)
(1.19113 0.0112602 0)
(1.19144 0.00934904 0)
(1.19164 0.00745194 0)
(1.19174 0.00557128 0)
(1.19173 0.00370951 0)
(1.19162 0.00186901 0)
(1.1914 5.21605e-05 0)
(1.19108 -0.00173878 0)
(1.19065 -0.0035015 0)
(1.19012 -0.00523373 0)
(1.18948 -0.00693319 0)
(1.18874 -0.00859768 0)
(1.18789 -0.010225 0)
(1.18694 -0.0118131 0)
(1.18589 -0.0133597 0)
(1.18474 -0.0148629 0)
(1.18348 -0.0163205 0)
(1.18213 -0.0177307 0)
(1.18068 -0.0190914 0)
(1.17914 -0.0204008 0)
(1.1775 -0.021657 0)
(1.17576 -0.0228585 0)