/*--------------------------------*- C++ -*----------------------------------*\
  =========                 |
  \\      /  F ield         | OpenFOAM: The Open Source CFD Toolbox
   \\    /   O peration     | Website:  https://openfoam.org
    \\  /    A nd           | Version:  7
     \\/     M anipulation  |
\*---------------------------------------------------------------------------*/
FoamFile
{
    version     2.0;
    format      ascii;
    class       volScalarField;
    location    "85";
    object      p;
}
// * * * * * * * * * * * * * * * * * * * * * * * * * * * * * * * * * * * * * //

dimensions      [0 2 -2 0 0 0 0];

internalField   nonuniform List<scalar> 
1987
(
-0.213555
-0.21602
-0.218811
-0.221911
-0.225282
-0.228861
-0.232565
-0.23628
-0.239875
-0.243184
-0.24603
-0.24818
-0.249422
-0.249557
-0.248384
-0.245722
-0.24143
-0.23541
-0.227621
-0.218081
-0.206872
-0.194131
-0.180045
-0.16484
-0.148763
-0.132078
-0.115048
-0.0979263
-0.0809557
-0.0643627
-0.04836
-0.0331487
-0.0189222
-0.00587461
0.00580513
0.015943
0.0241443
-0.210119
-0.212479
-0.215106
-0.217981
-0.221066
-0.224302
-0.22761
-0.230887
-0.23401
-0.236828
-0.239175
-0.240854
-0.241675
-0.241455
-0.240018
-0.237204
-0.232887
-0.226984
-0.219458
-0.210325
-0.199656
-0.187572
-0.17424
-0.159859
-0.144654
-0.128862
-0.112725
-0.0964782
-0.0803494
-0.0645543
-0.0492976
-0.0347746
-0.0211753
-0.00869157
0.00248285
0.0121191
0.0200055
0.0257063
0.0290556
0.0298071
0.0276914
0.0224749
0.0140196
0.00233265
-0.0123878
-0.0296954
-0.0488493
-0.0688275
-0.0884086
-0.106247
-0.120956
-0.131229
-0.136164
-0.135541
-0.129904
-0.120308
-0.20643
-0.208684
-0.211149
-0.213804
-0.216614
-0.219523
-0.222457
-0.225321
-0.228006
-0.230369
-0.232262
-0.233516
-0.23396
-0.23343
-0.231771
-0.228843
-0.224535
-0.218773
-0.211525
-0.202804
-0.192672
-0.181237
-0.168644
-0.155071
-0.14072
-0.125806
-0.110548
-0.0951679
-0.0798768
-0.0648802
-0.0503746
-0.0365492
-0.02359
-0.0116853
-0.00102715
0.00816652
0.0156705
0.0211466
0.024384
0.0251461
0.0231869
0.0182971
0.0103596
-0.000601006
-0.0143735
-0.0305105
-0.0482932
-0.0667475
-0.0847212
-0.100967
-0.114232
-0.123375
-0.127661
-0.126938
-0.121698
-0.112866
-0.202521
-0.204669
-0.206976
-0.209422
-0.211972
-0.214574
-0.21716
-0.219642
-0.221919
-0.223872
-0.225358
-0.226231
-0.226343
-0.225547
-0.223706
-0.220698
-0.216424
-0.210821
-0.203858
-0.195549
-0.185946
-0.175143
-0.163269
-0.150482
-0.136962
-0.122904
-0.10851
-0.0939811
-0.0795183
-0.0653151
-0.0515597
-0.0384348
-0.0261214
-0.014803
-0.00466766
0.00407565
0.0112056
0.0164426
0.0195652
0.0203489
0.018572
0.0140512
0.00669156
-0.00346692
-0.0162055
-0.0310854
-0.0474208
-0.0642986
-0.0806479
-0.0953296
-0.107235
-0.11536
-0.119103
-0.118364
-0.113574
-0.105525
-0.198415
-0.200461
-0.202619
-0.204869
-0.207177
-0.209496
-0.211761
-0.213896
-0.215806
-0.217385
-0.218508
-0.219048
-0.218871
-0.217849
-0.215862
-0.212802
-0.208584
-0.203152
-0.19648
-0.188576
-0.179489
-0.1693
-0.158121
-0.146093
-0.133379
-0.120152
-0.106599
-0.0929042
-0.0792555
-0.0658358
-0.0528244
-0.0403971
-0.0287292
-0.0179982
-0.00838642
-9.29208e-05
0.00667189
0.0116668
0.0146774
0.0154952
0.0139232
0.0098052
0.00306814
-0.00623424
-0.0178815
-0.031452
-0.0463027
-0.0615909
-0.0763372
-0.0895155
-0.100142
-0.107361
-0.110656
-0.109963
-0.105646
-0.0983747
-0.194137
-0.196085
-0.198104
-0.200172
-0.202258
-0.204318
-0.206293
-0.208114
-0.209696
-0.210942
-0.211746
-0.211994
-0.21157
-0.21036
-0.208259
-0.205175
-0.201032
-0.195781
-0.189399
-0.181894
-0.173307
-0.163709
-0.1532
-0.141905
-0.129967
-0.117544
-0.104806
-0.0919242
-0.0790718
-0.0664213
-0.0541431
-0.0424056
-0.0313774
-0.0212291
-0.012136
-0.00428607
0.00212393
0.00688122
0.00978629
0.0106496
0.00929954
0.00560626
-0.000481933
-0.00889998
-0.0194306
-0.0316755
-0.0450418
-0.0587632
-0.0719573
-0.0837098
-0.0931482
-0.0995514
-0.102475
-0.101864
-0.098016
-0.0914899
-0.189706
-0.191564
-0.193453
-0.195354
-0.197238
-0.199064
-0.200779
-0.20232
-0.20361
-0.204566
-0.205092
-0.205089
-0.204456
-0.203094
-0.20091
-0.197825
-0.193773
-0.18871
-0.182618
-0.175503
-0.1674
-0.158371
-0.148505
-0.137912
-0.12672
-0.115073
-0.103124
-0.0910294
-0.078952
-0.0670529
-0.0554932
-0.0444333
-0.0340343
-0.0244591
-0.0158751
-0.00845821
-0.00239064
0.00213785
0.004946
0.00586488
0.00474741
0.00148891
-0.00394263
-0.0114732
-0.0208921
-0.0318292
-0.043745
-0.055952
-0.0676659
-0.0780781
-0.0864249
-0.0920877
-0.0946891
-0.0941685
-0.090763
-0.084931
-0.185144
-0.186916
-0.188687
-0.190438
-0.19214
-0.193757
-0.19524
-0.196533
-0.197568
-0.198271
-0.198559
-0.198344
-0.197539
-0.196057
-0.193818
-0.190753
-0.186806
-0.181938
-0.176133
-0.169398
-0.161761
-0.15328
-0.14403
-0.134109
-0.123634
-0.112731
-0.101541
-0.0902088
-0.0788827
-0.0677141
-0.0568547
-0.0464564
-0.0366722
-0.0276568
-0.0195682
-0.0125705
-0.00683123
-0.00252001
0.000200952
0.00118348
0.00030368
-0.00252028
-0.00730301
-0.0139639
-0.0223018
-0.0319765
-0.042503
-0.0532709
-0.0635904
-0.0727529
-0.080096
-0.0850841
-0.0873914
-0.0869507
-0.0839436
-0.0787412
-0.18047
-0.182164
-0.183827
-0.185442
-0.186982
-0.188413
-0.189693
-0.190769
-0.191584
-0.19207
-0.192156
-0.191765
-0.190821
-0.18925
-0.186982
-0.183957
-0.180127
-0.175459
-0.169939
-0.163572
-0.156386
-0.148428
-0.139768
-0.130491
-0.1207
-0.110512
-0.100051
-0.0894521
-0.0788515
-0.0683901
-0.0582099
-0.0484541
-0.0392671
-0.0307949
-0.0231853
-0.0165906
-0.0111638
-0.00705687
-0.00441305
-0.00336067
-0.00400248
-0.00640021
-0.0105539
-0.0163788
-0.0236849
-0.0321629
-0.0413807
-0.050801
-0.059821
-0.0678245
-0.0742454
-0.0786115
-0.0806388
-0.0802544
-0.0775919
-0.0729477
-0.175704
-0.177327
-0.178894
-0.180387
-0.181784
-0.183052
-0.184154
-0.185044
-0.18567
-0.185973
-0.18589
-0.185357
-0.184305
-0.182672
-0.180398
-0.17743
-0.173728
-0.169264
-0.164025
-0.158018
-0.151265
-0.14381
-0.135712
-0.127049
-0.117912
-0.108406
-0.0986449
-0.0887497
-0.0788471
-0.0690675
-0.0595431
-0.0504082
-0.0417982
-0.0338498
-0.0267008
-0.0204912
-0.0153604
-0.0114439
-0.00886747
-0.00774091
-0.00814818
-0.0101339
-0.0136866
-0.0187196
-0.0250556
-0.032415
-0.0404161
-0.0485897
-0.05641
-0.0633411
-0.0689149
-0.0727027
-0.0744562
-0.0740982
-0.071723
-0.0675639
-0.170868
-0.172426
-0.173906
-0.175292
-0.176563
-0.17769
-0.178639
-0.17937
-0.179836
-0.179987
-0.179768
-0.179122
-0.177991
-0.176322
-0.174062
-0.171167
-0.167603
-0.163345
-0.158384
-0.152725
-0.146389
-0.139414
-0.131853
-0.123775
-0.115262
-0.106407
-0.0973139
-0.0880925
-0.0788591
-0.069734
-0.0608402
-0.0523025
-0.0442472
-0.0368014
-0.0300928
-0.0242499
-0.0193978
-0.0156579
-0.0131398
-0.0119365
-0.0121156
-0.0137078
-0.0166926
-0.020984
-0.0264178
-0.0327431
-0.0396248
-0.0466545
-0.0533756
-0.0593139
-0.0641146
-0.0673616
-0.0688432
-0.0684806
-0.0663364
-0.0625919
-0.165982
-0.167481
-0.168884
-0.170176
-0.171338
-0.172344
-0.173163
-0.173759
-0.174093
-0.17412
-0.173793
-0.173062
-0.171878
-0.170195
-0.167968
-0.16516
-0.161741
-0.157692
-0.153004
-0.147684
-0.141749
-0.135233
-0.128184
-0.120663
-0.112743
-0.104507
-0.0960503
-0.0874716
-0.0788777
-0.0703788
-0.0620887
-0.0541228
-0.0465982
-0.0396326
-0.0333432
-0.0278471
-0.0232566
-0.0196801
-0.0172124
-0.0159315
-0.0158912
-0.0171109
-0.0195641
-0.0231669
-0.0277685
-0.0331455
-0.0390047
-0.0449925
-0.0507149
-0.0557278
-0.0598348
-0.0625717
-0.0637819
-0.0633858
-0.0614209
-0.0580254
-0.161065
-0.162511
-0.163846
-0.165057
-0.166125
-0.167028
-0.167738
-0.168224
-0.168451
-0.16838
-0.16797
-0.167179
-0.165965
-0.164288
-0.162111
-0.159401
-0.156135
-0.152295
-0.147876
-0.142883
-0.137333
-0.131256
-0.124694
-0.117702
-0.110345
-0.102699
-0.0948462
-0.086879
-0.0788939
-0.0709919
-0.0632773
-0.0558567
-0.0488377
-0.042329
-0.0364371
-0.0312671
-0.0269213
-0.0234961
-0.0210719
-0.019714
-0.0194648
-0.0203349
-0.0222938
-0.0252615
-0.0291005
-0.0336128
-0.0385431
-0.0435883
-0.048418
-0.0527287
-0.0560569
-0.0583029
-0.059243
-0.058789
-0.0569577
-0.0538525
-0.156137
-0.157536
-0.158812
-0.159953
-0.160942
-0.161759
-0.162379
-0.162776
-0.162918
-0.162772
-0.162303
-0.161475
-0.160251
-0.158598
-0.156485
-0.153884
-0.150775
-0.147145
-0.14299
-0.138314
-0.133133
-0.127474
-0.121376
-0.114886
-0.108062
-0.100973
-0.093694
-0.0863068
-0.0788995
-0.0715642
-0.0643963
-0.0574934
-0.0509542
-0.0448778
-0.0393611
-0.0344975
-0.0303811
-0.027095
-0.0247083
-0.0232753
-0.022829
-0.0233734
-0.0248759
-0.0272611
-0.0304047
-0.0341325
-0.0382221
-0.0424139
-0.0464231
-0.0499673
-0.0527159
-0.0545149
-0.0551913
-0.0546602
-0.0529237
-0.0500572
-0.15122
-0.152576
-0.1538
-0.154882
-0.155805
-0.156551
-0.157099
-0.157426
-0.157503
-0.157304
-0.156796
-0.15595
-0.154735
-0.153121
-0.151084
-0.148601
-0.145654
-0.142233
-0.138335
-0.133965
-0.129138
-0.123879
-0.11822
-0.112205
-0.105886
-0.0993243
-0.0925868
-0.0857479
-0.0788871
-0.0720879
-0.0654373
-0.0590241
-0.0529381
-0.0472689
-0.0421047
-0.0375303
-0.0336282
-0.0304692
-0.0281147
-0.0266098
-0.0259793
-0.0262222
-0.0273057
-0.0291594
-0.0316721
-0.0346908
-0.0380224
-0.0414431
-0.0447081
-0.0475735
-0.0497812
-0.0511676
-0.0515893
-0.0509675
-0.0492936
-0.0466214
-0.146332
-0.14765
-0.148831
-0.149862
-0.15073
-0.15142
-0.151912
-0.152185
-0.152217
-0.151982
-0.151454
-0.150607
-0.149415
-0.147855
-0.145905
-0.143545
-0.140763
-0.137549
-0.133902
-0.129828
-0.12534
-0.120459
-0.115217
-0.109652
-0.103809
-0.0977445
-0.0915177
-0.0851956
-0.07885
-0.0725563
-0.0663932
-0.0604413
-0.0547817
-0.0494956
-0.0446627
-0.0403584
-0.0366541
-0.0336125
-0.031287
-0.0297144
-0.0289134
-0.0288794
-0.0295801
-0.0309513
-0.0328939
-0.0352736
-0.0379249
-0.0406542
-0.0432472
-0.0455054
-0.0472156
-0.0482219
-0.0484
-0.0476783
-0.0460413
-0.0435256
-0.141495
-0.142779
-0.143921
-0.144911
-0.145736
-0.146381
-0.146831
-0.147066
-0.147067
-0.146811
-0.146279
-0.145447
-0.144293
-0.142798
-0.140942
-0.138712
-0.136095
-0.133086
-0.129683
-0.125893
-0.121729
-0.117209
-0.11236
-0.107219
-0.101825
-0.0962275
-0.0904807
-0.0846442
-0.0787826
-0.0729637
-0.0672584
-0.0617394
-0.0564796
-0.0515524
-0.0470292
-0.042976
-0.0394554
-0.0365225
-0.0342235
-0.0325884
-0.031631
-0.0313444
-0.031698
-0.0326332
-0.0340625
-0.0358694
-0.0379113
-0.0400216
-0.0420168
-0.0437297
-0.044985
-0.0456408
-0.0455879
-0.0447611
-0.0431405
-0.0407497
-0.136727
-0.137981
-0.139091
-0.140046
-0.140837
-0.141449
-0.141868
-0.142078
-0.142062
-0.141801
-0.141278
-0.140473
-0.139368
-0.137947
-0.136193
-0.134095
-0.131644
-0.128836
-0.12567
-0.122153
-0.118297
-0.114118
-0.109642
-0.104899
-0.0999263
-0.0947673
-0.0894704
-0.0840888
-0.0786803
-0.0733058
-0.0680288
-0.0629145
-0.0580284
-0.0534356
-0.0492003
-0.0453813
-0.042032
-0.0391992
-0.0369248
-0.0352332
-0.0341339
-0.0336188
-0.0336593
-0.0342027
-0.0351724
-0.0364675
-0.0379645
-0.0395224
-0.0409913
-0.0422144
-0.0430556
-0.0433892
-0.0431191
-0.0421855
-0.0405656
-0.0382736
-0.132048
-0.133275
-0.134357
-0.135286
-0.136049
-0.136637
-0.137037
-0.137233
-0.137212
-0.136958
-0.136456
-0.135689
-0.134642
-0.133301
-0.131653
-0.12969
-0.127404
-0.124793
-0.121856
-0.1186
-0.115036
-0.11118
-0.107054
-0.102686
-0.0981078
-0.093359
-0.0884823
-0.0835255
-0.0785398
-0.0735796
-0.0687018
-0.0639644
-0.059426
-0.0551443
-0.0511762
-0.0475747
-0.0443845
-0.0416445
-0.0393937
-0.0376522
-0.0364257
-0.0357055
-0.0354654
-0.0356588
-0.0362189
-0.0370585
-0.0380721
-0.039138
-0.0401334
-0.0409248
-0.0413943
-0.0414345
-0.040962
-0.0399224
-0.0382918
-0.0360769
-0.127477
-0.12868
-0.129739
-0.130645
-0.131389
-0.131962
-0.13235
-0.132543
-0.132527
-0.132289
-0.131817
-0.131096
-0.130114
-0.128859
-0.127322
-0.125494
-0.123371
-0.12095
-0.118234
-0.115227
-0.111941
-0.108389
-0.104592
-0.100574
-0.0963646
-0.0919982
-0.087513
-0.0829512
-0.0783587
-0.0737836
-0.0692765
-0.0648889
-0.0606729
-0.0566796
-0.0529586
-0.0495571
-0.0465119
-0.0438631
-0.041636
-0.0398508
-0.0385115
-0.0376089
-0.0371192
-0.0370017
-0.0371983
-0.0376347
-0.0382211
-0.0388529
-0.0394273
-0.0398348
-0.0399716
-0.0397464
-0.039087
-0.0379445
-0.036295
-0.0341399
-0.123031
-0.124213
-0.125252
-0.126141
-0.126872
-0.127435
-0.12782
-0.128017
-0.128015
-0.127801
-0.127367
-0.126699
-0.125787
-0.124623
-0.123197
-0.121504
-0.11954
-0.117304
-0.114798
-0.112029
-0.109004
-0.105738
-0.102249
-0.0985584
-0.0946925
-0.0906816
-0.0865598
-0.0823645
-0.0781361
-0.0739176
-0.0697534
-0.0656894
-0.0617713
-0.0580444
-0.0545518
-0.0513349
-0.0484292
-0.0458632
-0.0436592
-0.0418365
-0.0403982
-0.0393346
-0.0386247
-0.0382328
-0.0381091
-0.0381901
-0.038399
-0.0386506
-0.0388547
-0.038921
-0.0387609
-0.0382969
-0.0374664
-0.0362259
-0.034552
-0.0324427
-0.118729
-0.119891
-0.120914
-0.12179
-0.122512
-0.123072
-0.12346
-0.123668
-0.123685
-0.123503
-0.123111
-0.122501
-0.121663
-0.120591
-0.119277
-0.117717
-0.115908
-0.11385
-0.111545
-0.109
-0.106222
-0.103224
-0.100022
-0.0966361
-0.0930888
-0.0894073
-0.0856216
-0.0817648
-0.0778727
-0.0739829
-0.070135
-0.0663689
-0.0627252
-0.0592435
-0.0559616
-0.0529153
-0.0501372
-0.0476503
-0.045472
-0.0436186
-0.0420941
-0.0408898
-0.0399869
-0.0393544
-0.0389503
-0.0387198
-0.0385976
-0.0385151
-0.0383954
-0.038161
-0.0377378
-0.0370602
-0.0360745
-0.0347419
-0.0330407
-0.0309662
-0.114587
-0.115731
-0.11674
-0.117607
-0.118325
-0.118885
-0.119281
-0.119505
-0.119547
-0.119401
-0.119056
-0.118507
-0.117746
-0.116766
-0.115563
-0.114132
-0.112473
-0.110585
-0.108471
-0.106137
-0.10359
-0.100843
-0.0979081
-0.0948042
-0.0915517
-0.0881742
-0.0846983
-0.0811531
-0.0775701
-0.0739825
-0.0704248
-0.0669324
-0.0635405
-0.0602838
-0.0571955
-0.0543061
-0.0516434
-0.0492302
-0.0470826
-0.0452066
-0.0436087
-0.0422823
-0.0412119
-0.0403698
-0.039721
-0.0392188
-0.0388106
-0.0384365
-0.038033
-0.0375347
-0.0368798
-0.0360126
-0.0348872
-0.0334697
-0.0317398
-0.0296917
-0.110622
-0.11175
-0.112747
-0.113607
-0.114323
-0.114888
-0.115296
-0.115539
-0.11561
-0.115502
-0.115207
-0.114722
-0.114037
-0.11315
-0.112055
-0.11075
-0.109233
-0.107507
-0.105574
-0.103438
-0.101107
-0.0985918
-0.0959049
-0.0930617
-0.0900807
-0.0869827
-0.0837911
-0.0805316
-0.0772317
-0.0739205
-0.0706283
-0.067386
-0.0642244
-0.0611736
-0.0582624
-0.0555176
-0.0529628
-0.0506188
-0.0484986
-0.046609
-0.0449527
-0.0435212
-0.0423071
-0.0412829
-0.0404223
-0.0396866
-0.0390298
-0.038403
-0.0377525
-0.0370243
-0.0361664
-0.0351322
-0.0338824
-0.0323874
-0.0306291
-0.0286008
-0.106849
-0.107962
-0.108949
-0.109804
-0.110521
-0.111094
-0.111516
-0.111781
-0.111883
-0.111816
-0.111573
-0.111151
-0.110543
-0.109745
-0.108755
-0.10757
-0.106191
-0.104617
-0.102852
-0.100901
-0.0987712
-0.0964709
-0.0940122
-0.0914086
-0.0886766
-0.0858344
-0.0829026
-0.0799038
-0.0768619
-0.0738026
-0.0707522
-0.0677376
-0.0647856
-0.0619224
-0.0591732
-0.0565608
-0.0541058
-0.0518251
-0.0497312
-0.047834
-0.0461377
-0.0446136
-0.0432824
-0.0420973
-0.0410551
-0.0401184
-0.0392486
-0.0384041
-0.0375406
-0.0366134
-0.0355793
-0.0343989
-0.0330392
-0.0314747
-0.0296891
-0.027676
-0.103284
-0.104384
-0.105362
-0.106214
-0.106934
-0.107516
-0.107954
-0.108243
-0.108378
-0.108352
-0.108161
-0.107801
-0.107267
-0.106557
-0.105667
-0.104597
-0.103346
-0.101915
-0.100308
-0.0985281
-0.096583
-0.0944805
-0.092231
-0.0898465
-0.0873416
-0.0847323
-0.0820367
-0.0792745
-0.0764668
-0.0736357
-0.0708043
-0.067996
-0.0652341
-0.0625413
-0.0599393
-0.0574479
-0.0550848
-0.0528643
-0.0507969
-0.0488878
-0.0471338
-0.0455543
-0.0441093
-0.0428121
-0.0416204
-0.0405136
-0.0394621
-0.0384315
-0.0373857
-0.0362875
-0.0351013
-0.0337942
-0.0323385
-0.0307124
-0.0289016
-0.0269001
-0.0999421
-0.10103
-0.102001
-0.102851
-0.103575
-0.104167
-0.104622
-0.104936
-0.105103
-0.105119
-0.104979
-0.104679
-0.104217
-0.103591
-0.102796
-0.101833
-0.100702
-0.0994035
-0.0979416
-0.09632
-0.0945446
-0.0926228
-0.0905637
-0.0883784
-0.0860794
-0.0836809
-0.0811987
-0.0786501
-0.0760534
-0.073428
-0.070794
-0.0681715
-0.0655809
-0.0630419
-0.0605733
-0.0581922
-0.0559137
-0.0537504
-0.0517115
-0.0498024
-0.048025
-0.0463808
-0.0448565
-0.0434443
-0.0421232
-0.0408722
-0.0396666
-0.0384783
-0.0372774
-0.0360335
-0.0347171
-0.0333012
-0.0317624
-0.0300825
-0.0282492
-0.0968397
-0.0979158
-0.0988809
-0.09973
-0.100459
-0.101062
-0.101535
-0.101873
-0.102072
-0.102128
-0.102037
-0.101795
-0.101402
-0.100852
-0.100146
-0.0992832
-0.0982629
-0.0970871
-0.0957584
-0.0942808
-0.0926595
-0.0909014
-0.0890146
-0.0870088
-0.084895
-0.0826858
-0.0803951
-0.0780378
-0.0756301
-0.0731888
-0.0707312
-0.0682751
-0.065838
-0.063437
-0.0610884
-0.0588071
-0.0566062
-0.0544967
-0.0524869
-0.050582
-0.048784
-0.0470918
-0.0454985
-0.0439947
-0.0425657
-0.041194
-0.039859
-0.038538
-0.0372065
-0.0358395
-0.0344129
-0.0329044
-0.0312947
-0.0295685
-0.0277154
-0.0939926
-0.0950582
-0.0960177
-0.0968666
-0.0976002
-0.0982143
-0.0987044
-0.0990665
-0.0992965
-0.0993907
-0.0993458
-0.0991585
-0.0988277
-0.0983508
-0.097727
-0.0969553
-0.0960363
-0.0949714
-0.0937633
-0.0924156
-0.0909332
-0.0893219
-0.0875893
-0.0857437
-0.0837951
-0.0817544
-0.0796338
-0.0774464
-0.0752063
-0.0729282
-0.0706272
-0.0683186
-0.0660178
-0.0637396
-0.0614982
-0.0593065
-0.0571761
-0.0551166
-0.0531354
-0.0512373
-0.0494244
-0.0476956
-0.0460462
-0.0444683
-0.0429506
-0.041479
-0.0400368
-0.0386054
-0.0371649
-0.0356951
-0.0341761
-0.0325898
-0.0309202
-0.0291548
-0.0272849
-0.0914175
-0.0924736
-0.0934284
-0.0942773
-0.0950162
-0.0956409
-0.0961474
-0.0965319
-0.0967907
-0.0969206
-0.0969186
-0.096782
-0.0965083
-0.0960971
-0.0955472
-0.0948579
-0.0940298
-0.0930644
-0.091964
-0.090732
-0.0893727
-0.0878916
-0.0862951
-0.0845909
-0.0827877
-0.0808952
-0.078924
-0.0768857
-0.0747925
-0.0726574
-0.0704936
-0.0683144
-0.0661333
-0.0639631
-0.0618163
-0.0597042
-0.057637
-0.0556232
-0.0536695
-0.0517803
-0.0499578
-0.0482013
-0.0465076
-0.0448704
-0.0432809
-0.0417279
-0.0401978
-0.0386757
-0.0371455
-0.0355907
-0.0339953
-0.0323445
-0.0306252
-0.0288271
-0.0269433
-0.0891326
-0.0901804
-0.0911309
-0.0919802
-0.0927241
-0.0933587
-0.0938802
-0.0942852
-0.0945702
-0.0947323
-0.0947686
-0.0946769
-0.0944553
-0.0941028
-0.0936184
-0.0930019
-0.0922541
-0.0913761
-0.0903701
-0.0892393
-0.0879875
-0.0866196
-0.0851414
-0.0835598
-0.0818825
-0.0801181
-0.078276
-0.0763663
-0.0744
-0.0723883
-0.0703428
-0.0682753
-0.0661976
-0.064121
-0.0620564
-0.0600139
-0.0580024
-0.0560297
-0.0541017
-0.0522227
-0.0503948
-0.048618
-0.04689
-0.0452062
-0.0435595
-0.0419411
-0.0403402
-0.0387448
-0.0371419
-0.0355181
-0.0338605
-0.0321571
-0.0303972
-0.0285726
-0.0266776
-0.087158
-0.0881985
-0.0891455
-0.0899952
-0.0907436
-0.0913871
-0.091922
-0.0923451
-0.0926531
-0.0928434
-0.0929132
-0.0928606
-0.0926839
-0.0923821
-0.0919544
-0.0914009
-0.090722
-0.0899189
-0.0889937
-0.0879491
-0.0867887
-0.0855171
-0.0841393
-0.0826615
-0.0810907
-0.0794345
-0.0777013
-0.0759002
-0.0740408
-0.0721331
-0.0701874
-0.0682141
-0.0662237
-0.0642263
-0.0622315
-0.0602484
-0.0582849
-0.056348
-0.0544434
-0.0525749
-0.0507449
-0.0489537
-0.0472
-0.0454802
-0.043789
-0.0421193
-0.0404626
-0.0388092
-0.0371485
-0.0354699
-0.0337628
-0.0320174
-0.0302252
-0.0283795
-0.0264758
-0.0855164
-0.0865508
-0.0874949
-0.088345
-0.0890974
-0.0897484
-0.0902946
-0.090733
-0.0910605
-0.0912744
-0.0913725
-0.0913526
-0.0912129
-0.0909533
-0.0905728
-0.0900714
-0.0894495
-0.0887082
-0.0878494
-0.0868757
-0.0857904
-0.0845975
-0.0833019
-0.081909
-0.080425
-0.0788571
-0.0772127
-0.0754999
-0.0737275
-0.0719045
-0.07004
-0.0681435
-0.0662244
-0.0642916
-0.0623541
-0.0604198
-0.0584961
-0.0565894
-0.0547049
-0.0528464
-0.0510164
-0.0492156
-0.0474431
-0.0456965
-0.0439717
-0.042263
-0.0405636
-0.0388657
-0.0371607
-0.0354398
-0.0336945
-0.0319167
-0.0300995
-0.0282376
-0.0263274
-0.0842329
-0.0852625
-0.0862045
-0.087055
-0.0878105
-0.0884675
-0.0890228
-0.0894733
-0.0898161
-0.0900488
-0.090169
-0.0901749
-0.090065
-0.0898381
-0.0894942
-0.0890332
-0.0884555
-0.0877621
-0.0869549
-0.0860361
-0.0850088
-0.0838768
-0.0826444
-0.0813169
-0.0798999
-0.0783998
-0.0768236
-0.0751788
-0.0734732
-0.0717152
-0.0699131
-0.0680757
-0.0662113
-0.0643284
-0.062435
-0.0605386
-0.058646
-0.0567631
-0.0548949
-0.0530451
-0.0512162
-0.0494092
-0.0476239
-0.0458583
-0.0441093
-0.0423724
-0.040642
-0.0389116
-0.0371742
-0.0354224
-0.033649
-0.0318475
-0.0300121
-0.0281384
-0.0262237
-0.0833402
-0.0843664
-0.0853066
-0.0861574
-0.086915
-0.0875762
-0.0881378
-0.0885967
-0.0889503
-0.089196
-0.0893317
-0.0893556
-0.0892661
-0.0890622
-0.0887436
-0.0883106
-0.0877634
-0.0871033
-0.0863316
-0.0854508
-0.0844636
-0.0833735
-0.0821848
-0.0809023
-0.0795314
-0.078078
-0.0765488
-0.0749506
-0.073291
-0.0715777
-0.0698186
-0.0680217
-0.0661951
-0.0643466
-0.0624837
-0.0606135
-0.0587426
-0.0568764
-0.0550198
-0.0531764
-0.0513489
-0.0495384
-0.0477449
-0.045967
-0.0442023
-0.042447
-0.0406962
-0.0389444
-0.0371856
-0.0354133
-0.0336215
-0.0318043
-0.0299568
-0.0280754
-0.0261578
-0.0828704
-0.083895
-0.0848346
-0.0856856
-0.0864446
-0.0871081
-0.087673
-0.0881365
-0.0884957
-0.0887483
-0.0888922
-0.0889254
-0.0888467
-0.088655
-0.0883499
-0.0879316
-0.0874005
-0.0867577
-0.0860047
-0.0851436
-0.0841773
-0.0831092
-0.0819433
-0.0806842
-0.0793373
-0.0779082
-0.0764034
-0.0748295
-0.0731938
-0.0715037
-0.0697669
-0.0679912
-0.0661842
-0.0643536
-0.0625066
-0.0606502
-0.0587905
-0.0569331
-0.0550827
-0.0532429
-0.0514162
-0.0496041
-0.0478066
-0.0460227
-0.0442501
-0.0424855
-0.0407244
-0.0389618
-0.0371921
-0.0354095
-0.0336083
-0.0317831
-0.0299296
-0.0280443
-0.0261253
)
;

boundaryField
{
    inlet
    {
        type            zeroGradient;
    }
    outlet
    {
        type            fixedValue;
        value           nonuniform 0();
    }
    cylinder
    {
        type            zeroGradient;
    }
    top
    {
        type            symmetryPlane;
    }
    bottom
    {
        type            symmetryPlane;
    }
    defaultFaces
    {
        type            empty;
    }
    procBoundary2to1
    {
        type            processor;
        value           nonuniform List<scalar> 
36
(
-0.211418
-0.208028
-0.204392
-0.200538
-0.196489
-0.192266
-0.18789
-0.183379
-0.178754
-0.174035
-0.169243
-0.164397
-0.159518
-0.154627
-0.149742
-0.144886
-0.140077
-0.135337
-0.130684
-0.126137
-0.121714
-0.117434
-0.113314
-0.109368
-0.105615
-0.102068
-0.0987438
-0.0956578
-0.0928257
-0.0902645
-0.087992
-0.0860283
-0.0843959
-0.0831195
-0.0822319
-0.0817646
)
;
    }
    procBoundary2to3
    {
        type            processor;
        value           nonuniform List<scalar> 
36
(
-0.107994
-0.101526
-0.0951567
-0.0889507
-0.0829642
-0.0772421
-0.0718176
-0.0667132
-0.0619414
-0.0575071
-0.0534088
-0.0496404
-0.0461927
-0.043054
-0.0402111
-0.0376498
-0.0353552
-0.0333118
-0.031504
-0.0299156
-0.0285308
-0.0273335
-0.026308
-0.0254384
-0.0247096
-0.0262568
-0.0262568
-0.0257305
-0.0253063
-0.0249703
-0.0247096
-0.0245122
-0.0243677
-0.0242671
-0.0242035
-0.0241723
)
;
    }
    procBoundary2to6
    {
        type            processor;
        value           nonuniform List<scalar> 
57
(
-0.216698
-0.219261
-0.222214
-0.225541
-0.229203
-0.233136
-0.237251
-0.241425
-0.245517
-0.249353
-0.252743
-0.255408
-0.257116
-0.257652
-0.256788
-0.254322
-0.250091
-0.243986
-0.235957
-0.226026
-0.214283
-0.200884
-0.186038
-0.169998
-0.153041
-0.135454
-0.117525
-0.0995269
-0.0817173
-0.064334
-0.0475974
-0.0317142
-0.0168816
-0.00329545
0.00885637
0.0194071
0.028008
0.0300378
0.0300378
0.0334884
0.0342367
0.0319908
0.0264951
0.0175929
0.00527238
-0.0102869
-0.0286496
-0.0490651
-0.0704766
-0.0916071
-0.11103
-0.12724
-0.138749
-0.144441
-0.14402
-0.138066
-0.127755
)
;
    }
}


// ************************************************************************* //
