/*--------------------------------*- C++ -*----------------------------------*\
  =========                 |
  \\      /  F ield         | OpenFOAM: The Open Source CFD Toolbox
   \\    /   O peration     | Website:  https://openfoam.org
    \\  /    A nd           | Version:  7
     \\/     M anipulation  |
\*---------------------------------------------------------------------------*/
FoamFile
{
    version     2.0;
    format      ascii;
    class       volScalarField;
    location    "125";
    object      p;
}
// * * * * * * * * * * * * * * * * * * * * * * * * * * * * * * * * * * * * * //

dimensions      [0 2 -2 0 0 0 0];

internalField   nonuniform List<scalar> 
1987
(
0.627949
0.612152
0.60338
0.593889
0.582182
0.568277
0.629854
0.614032
0.605188
0.595596
0.583781
0.569772
0.553837
0.536439
0.518034
0.499009
0.479678
0.460296
0.441062
0.422135
0.403635
0.385655
0.368262
0.351503
0.335412
0.320008
0.3053
0.291287
0.277961
0.265308
0.253322
0.629616
0.613828
0.605001
0.59543
0.583639
0.569657
0.553751
0.536384
0.518008
0.499012
0.479709
0.460354
0.441146
0.422243
0.403766
0.385806
0.368431
0.35169
0.335615
0.320224
0.305528
0.291526
0.27821
0.265566
0.253589
0.627242
0.611545
0.602827
0.593395
0.581761
0.567938
0.552185
0.534963
0.516724
0.497854
0.478671
0.459425
0.440319
0.42151
0.40312
0.38524
0.367938
0.351265
0.335251
0.319917
0.305272
0.291317
0.27804
0.265432
0.253501
0.622749
0.6072
0.598678
0.589506
0.57816
0.564624
0.549148
0.532185
0.514188
0.495543
0.476568
0.457515
0.438587
0.419941
0.401702
0.38396
0.366787
0.35023
0.334324
0.319088
0.304534
0.290661
0.277455
0.264909
0.253065
0.616158
0.600814
0.592576
0.583781
0.572851
0.559732
0.544654
0.528064
0.510413
0.492089
0.47341
0.454631
0.435956
0.417543
0.399518
0.381974
0.364981
0.348591
0.332837
0.317741
0.303317
0.289561
0.276457
0.264004
0.252288
0.607501
0.592417
0.584548
0.576244
0.565857
0.553281
0.538721
0.522615
0.505414
0.487505
0.46921
0.450785
0.432437
0.414325
0.396576
0.379287
0.362529
0.346353
0.330797
0.315882
0.301625
0.288022
0.275049
0.262718
0.251171
0.596815
0.582044
0.574628
0.566926
0.557206
0.545296
0.531371
0.515859
0.499208
0.481809
0.463983
0.445992
0.428042
0.410298
0.392888
0.37591
0.359437
0.343525
0.328209
0.313517
0.299464
0.286048
0.273237
0.261054
0.249713
0.584144
0.56974
0.562856
0.555864
0.546931
0.535808
0.522633
0.507821
0.491819
0.475019
0.457747
0.440266
0.422787
0.405476
0.388464
0.371853
0.355717
0.340114
0.325083
0.310652
0.296841
0.283646
0.271026
0.259017
0.247919
0.569541
0.555554
0.549278
0.5431
0.53507
0.52485
0.512536
0.498529
0.483272
0.46716
0.450524
0.433628
0.416689
0.399874
0.38332
0.367129
0.35138
0.336132
0.321427
0.307296
0.293763
0.280822
0.268422
0.256614
0.245793
0.553065
0.539542
0.533946
0.528682
0.521666
0.512462
0.501117
0.488014
0.473596
0.458259
0.442336
0.4261
0.409767
0.393511
0.377471
0.361752
0.346438
0.33159
0.317253
0.30346
0.290239
0.277584
0.265433
0.25385
0.24334
0.53478
0.521769
0.516921
0.512663
0.506767
0.498686
0.488414
0.476314
0.462823
0.448343
0.433212
0.417704
0.402043
0.386406
0.370934
0.35574
0.340908
0.326502
0.312572
0.299153
0.286279
0.273941
0.262067
0.250733
0.240563
0.514759
0.502304
0.498267
0.495102
0.490427
0.483572
0.474472
0.463466
0.450989
0.437446
0.423179
0.408468
0.393541
0.37858
0.363731
0.349109
0.334803
0.320883
0.307397
0.294388
0.281893
0.269904
0.258332
0.247271
0.237471
0.493079
0.481221
0.478053
0.476062
0.472702
0.467171
0.459336
0.449514
0.438134
0.425603
0.41227
0.398421
0.384287
0.370058
0.355882
0.341879
0.328143
0.314747
0.301743
0.289178
0.277093
0.265481
0.254239
0.243472
0.234067
0.469825
0.458603
0.456355
0.455613
0.453656
0.449539
0.443059
0.434503
0.424297
0.412851
0.400519
0.387593
0.37431
0.360864
0.347409
0.334071
0.320946
0.308112
0.295625
0.283536
0.271891
0.260684
0.249797
0.239346
0.230361
0.445087
0.434536
0.433255
0.433829
0.433354
0.430736
0.425693
0.418482
0.409524
0.399231
0.387963
0.376017
0.363639
0.351026
0.338339
0.325706
0.313232
0.300996
0.28906
0.277477
0.266301
0.255526
0.245018
0.234901
0.226357
0.418959
0.409113
0.408837
0.410786
0.411866
0.410824
0.407296
0.401504
0.393862
0.384785
0.374639
0.363729
0.352306
0.340572
0.328695
0.31681
0.305023
0.293419
0.282065
0.271017
0.260336
0.250019
0.239913
0.23015
0.222066
0.391541
0.382429
0.383193
0.386567
0.389267
0.389872
0.387928
0.383623
0.377359
0.369558
0.36059
0.350766
0.340343
0.329533
0.318507
0.307405
0.29634
0.285401
0.274658
0.264173
0.254013
0.244176
0.234494
0.225102
0.217493
0.362939
0.354587
0.356417
0.361258
0.365634
0.367949
0.367653
0.364896
0.36007
0.353597
0.345856
0.337165
0.327788
0.317941
0.307803
0.297519
0.287207
0.276963
0.266858
0.256962
0.247346
0.238012
0.228775
0.219768
0.212649
0.333261
0.325691
0.328608
0.33495
0.341048
0.345127
0.346537
0.345383
0.342046
0.336951
0.330483
0.322967
0.314674
0.305828
0.296612
0.287178
0.27765
0.268126
0.258687
0.249401
0.240351
0.231541
0.222767
0.214161
0.207541
0.302621
0.295853
0.299869
0.307736
0.315594
0.321483
0.324648
0.325145
0.323344
0.319671
0.314517
0.308214
0.301041
0.293228
0.284965
0.27641
0.267692
0.258916
0.250163
0.241511
0.233046
0.224779
0.216486
0.208291
0.202177
0.271134
0.265184
0.270304
0.279711
0.289358
0.297095
0.302056
0.304247
0.304022
0.301809
0.298004
0.292948
0.286927
0.280177
0.272895
0.265245
0.257361
0.249354
0.241311
0.233311
0.225449
0.21774
0.209944
0.20217
0.196567
0.23892
0.233801
0.240024
0.250976
0.26243
0.272044
0.278834
0.282753
0.284139
0.283418
0.280994
0.277214
0.272372
0.26671
0.260434
0.253711
0.246683
0.239466
0.23215
0.22482
0.217578
0.210443
0.203157
0.195811
0.190718
0.206101
0.201822
0.209139
0.221632
0.234902
0.246411
0.255056
0.260732
0.263755
0.264554
0.263536
0.261057
0.257416
0.252866
0.247615
0.24184
0.235687
0.229276
0.222705
0.21606
0.209451
0.202904
0.19614
0.189224
0.184636
0.172802
0.169368
0.177763
0.191783
0.206865
0.22028
0.230798
0.23825
0.242933
0.245272
0.245681
0.244522
0.242102
0.23868
0.234473
0.229662
0.224399
0.218811
0.212998
0.207052
0.201089
0.195143
0.18891
0.182423
0.178328
0.139147
0.136561
0.146011
0.161533
0.178417
0.193737
0.206136
0.215378
0.221735
0.225629
0.227479
0.227655
0.226471
0.224192
0.221042
0.217208
0.212849
0.208096
0.203053
0.197817
0.19251
0.187177
0.181487
0.175421
0.171796
0.105264
0.103524
0.113999
0.13099
0.149652
0.166868
0.181148
0.192184
0.200224
0.205682
0.208984
0.210505
0.210566
0.20944
0.207358
0.204512
0.201066
0.197158
0.192896
0.188377
0.183736
0.179029
0.173893
0.168232
0.16504
0.0712797
0.0703809
0.0818456
0.100262
0.120668
0.139759
0.155911
0.168741
0.178463
0.185489
0.190246
0.193117
0.19443
0.194463
0.193455
0.191603
0.189079
0.186023
0.182549
0.178756
0.174785
0.170717
0.166158
0.160883
0.158052
0.037322
0.0372554
0.0496678
0.0694563
0.0915627
0.1125
0.130505
0.145117
0.156517
0.165108
0.171319
0.175539
0.178105
0.1793
0.179369
0.178516
0.176916
0.174718
0.172038
0.168977
0.165678
0.162258
0.158314
0.153411
0.150807
0.00351768
0.00427034
0.0175831
0.0386813
0.0624331
0.0851758
0.105009
0.121385
0.134449
0.144595
0.152254
0.157819
0.161634
0.16399
0.165135
0.16528
0.164607
0.163269
0.161388
0.159063
0.156435
0.153664
0.150399
0.145926
0.143283
-0.0300073
-0.0284528
-0.0142916
0.00804488
0.0333767
0.0578751
0.0794987
0.0976134
0.112323
0.124009
0.133103
0.140004
0.14506
0.14857
0.150788
0.15193
0.152182
0.151703
0.150622
0.149038
0.14708
0.144943
0.14242
0.138582
0.135306
-0.0631281
-0.0607947
-0.0458403
-0.0223458
0.0044904
0.0306839
0.0540533
0.0738727
0.0902015
0.103406
0.113917
0.122139
0.128426
0.13308
0.136362
0.138495
0.139668
0.140046
0.139764
0.138925
0.137639
0.1361
0.134318
0.131591
0.127261
-0.0957196
-0.0926392
-0.0769489
-0.052385
-0.0241303
0.00368802
0.0287491
0.0502315
0.0681462
0.0828422
0.0947484
0.104272
0.111772
0.117557
0.121893
0.125007
0.127094
0.128323
0.128836
0.128743
0.12814
0.127191
0.126075
0.124522
0.12121
-0.127657
-0.123871
-0.107506
-0.0819691
-0.0523912
-0.0230284
0.00366131
0.0267574
0.0462183
0.0623726
0.0756456
0.0864469
0.09514
0.102039
0.107414
0.111497
0.114488
0.116559
0.117861
0.11851
0.118599
0.118258
0.117748
0.117189
0.115145
-0.15885
-0.154356
-0.137404
-0.110997
-0.0802001
-0.0493827
-0.0211363
0.00351651
0.0244772
0.0420511
0.0566575
0.068708
0.0785698
0.0865613
0.0929575
0.0979948
0.101877
0.104781
0.10686
0.108244
0.109026
0.109307
0.109366
0.109543
0.108418
-0.189309
-0.183915
-0.166544
-0.13937
-0.107467
-0.0752946
-0.0455719
-0.0194268
0.00298093
0.0219299
0.0378318
0.0510985
0.0621004
0.0711599
0.0785559
0.0845291
0.0892871
0.0930101
0.0958565
0.0979627
0.099427
0.100333
0.100952
0.101724
-0.218773
-0.212564
-0.19485
-0.166991
-0.134105
-0.100686
-0.0695756
-0.04201
-0.0182143
0.00205996
0.0192144
0.03366
0.0457696
0.055869
0.0642405
0.0711284
0.076744
0.0812706
0.0848699
0.0876839
0.0898169
0.0913421
0.092518
0.0938402
-0.247131
-0.240192
-0.222225
-0.193771
-0.160032
-0.125482
-0.0930804
-0.0641729
-0.0390543
-0.01751
0.000849543
0.0164328
0.0296141
0.040722
0.0500416
0.0578203
0.0642726
0.0695847
0.0739209
0.0774274
0.0802136
0.0823474
0.0840755
0.0859249
-0.274312
-0.266703
-0.248469
-0.219689
-0.185164
-0.149609
-0.116022
-0.0858579
-0.0594873
-0.0367329
-0.0172203
-0.00054451
0.013669
0.0257506
0.0359881
0.0446312
0.051897
0.0579743
0.0630294
0.0672117
0.0706354
0.0733653
0.0756349
-0.300242
-0.292011
-0.273574
-0.244587
-0.209423
-0.172999
-0.138338
-0.10701
-0.0794638
-0.0555643
-0.0349545
-0.0172352
-0.00203235
0.0109856
0.0221079
0.0315865
0.0396405
0.0464606
0.0522149
0.0570551
0.0610994
0.0644116
0.0672099
-0.324845
-0.316034
-0.297477
-0.268313
-0.232794
-0.195586
-0.159969
-0.127576
-0.098937
-0.073962
-0.0523149
-0.0336043
-0.017458
-0.00354411
0.00842772
0.0187106
0.0275253
0.0350641
0.0414961
0.0469748
0.0516222
0.055502
-0.348057
-0.338699
-0.320108
-0.290899
-0.255111
-0.217318
-0.180862
-0.147508
-0.117863
-0.0918862
-0.0692654
-0.0496191
-0.032578
-0.017811
-0.00502741
0.0060266
0.0155727
0.0238042
0.0308912
0.0369879
0.0422199
0.046652
-0.369821
-0.359945
-0.341397
-0.31228
-0.276345
-0.238122
-0.200962
-0.166759
-0.136201
-0.1093
-0.0857726
-0.0652488
-0.0473643
-0.0317893
-0.0182338
-0.00644378
0.00380272
0.0126996
0.0204174
0.0271107
0.0329079
0.0378763
-0.390087
-0.37972
-0.361287
-0.332387
-0.296456
-0.25794
-0.220228
-0.185288
-0.153913
-0.12617
-0.101805
-0.0804653
-0.0617909
-0.0454551
-0.0311693
-0.0186801
-0.00776563
0.001768
0.0100912
0.0173587
0.0237013
-0.408811
-0.397985
-0.379732
-0.351166
-0.315396
-0.276738
-0.238609
-0.203059
-0.170966
-0.142464
-0.117336
-0.0952425
-0.0758338
-0.0587864
-0.0438135
-0.0306632
-0.0191147
-0.00897417
-7.18008e-05
0.00774661
0.0146139
-0.396696
-0.368577
-0.333116
-0.294477
-0.256071
-0.220034
-0.187328
-0.158156
-0.132338
-0.109557
-0.0894716
-0.0717629
-0.0561475
-0.0423758
-0.030228
-0.0195115
-0.0100572
-0.00171179
0.00565884
-0.384586
-0.34958
-0.311117
-0.272583
-0.236185
-0.202973
-0.17322
-0.14679
-0.123388
-0.102685
-0.0843666
-0.0681546
-0.0538019
-0.0410907
-0.0298299
-0.0198515
-0.0110038
-0.00315164
-0.326627
-0.288115
-0.251484
-0.217877
-0.187636
-0.160672
-0.136717
-0.115457
-0.0965813
-0.0798193
-0.0649271
-0.0516891
-0.0399163
-0.0294425
-0.0201175
-0.302642
-0.265912
-0.232021
-0.201387
-0.17397
-0.149528
-0.127773
-0.108393
-0.0911285
-0.0757388
-0.062011
-0.0497591
-0.0388189
-0.0290424
-0.24539
-0.214457
-0.186669
-0.161815
-0.139616
-0.11979
-0.102071
-0.086226
-0.0720458
-0.059348
-0.0479708
-0.0377686
-0.198757
-0.173561
-0.150985
-0.130763
-0.112636
-0.0963794
-0.0817841
-0.068674
-0.0568894
-0.0462877
-0.16187
-0.141305
-0.12282
-0.10619
-0.0912183
-0.0777294
-0.065567
-0.054592
-0.115654
-0.100343
-0.0865073
-0.073997
-0.0626751
-0.0821744
0.240927
0.228596
0.216789
0.205884
0.195557
0.186064
0.177154
0.168987
0.161391
0.154456
0.14804
0.142218
0.136879
0.132088
0.127716
0.123845
0.120345
0.117302
0.114589
0.1123
0.110322
0.108757
0.107503
0.106671
0.106213
0.241186
0.228842
0.217027
0.206105
0.19576
0.186278
0.177371
0.169197
0.161596
0.154654
0.148225
0.142387
0.137038
0.132236
0.127854
0.123973
0.120464
0.117413
0.114693
0.112397
0.110414
0.108844
0.107585
0.106751
0.10629
0.241206
0.228944
0.217173
0.206307
0.196017
0.186481
0.177545
0.169334
0.161737
0.154804
0.148376
0.142526
0.137174
0.132364
0.127975
0.124087
0.120571
0.117513
0.114787
0.112486
0.110498
0.108924
0.107662
0.106824
0.106363
0.240894
0.228741
0.217047
0.206238
0.195985
0.186518
0.177637
0.169498
0.161866
0.15488
0.148494
0.142635
0.137286
0.132473
0.128079
0.124187
0.120666
0.117603
0.114872
0.112567
0.110575
0.108997
0.107732
0.106892
0.106429
0.240309
0.228318
0.216744
0.206037
0.195857
0.186456
0.177616
0.169498
0.161915
0.15503
0.148555
0.142717
0.137375
0.132562
0.128167
0.124273
0.12075
0.117683
0.114949
0.11264
0.110645
0.109064
0.107796
0.106955
0.106491
0.239444
0.227667
0.216253
0.205683
0.195607
0.186295
0.17752
0.16945
0.161901
0.155005
0.148622
0.14277
0.137441
0.132633
0.128238
0.124344
0.120821
0.117752
0.115016
0.112705
0.110708
0.109124
0.107855
0.107011
0.106546
0.238296
0.226786
0.21557
0.205172
0.195229
0.186029
0.177339
0.169338
0.161841
0.154981
0.148608
0.142739
0.13749
0.132685
0.128293
0.124402
0.12088
0.117811
0.115074
0.112762
0.110763
0.109177
0.107907
0.107062
0.106596
0.236869
0.225677
0.214699
0.204507
0.194725
0.185661
0.177074
0.169158
0.161726
0.154919
0.148589
0.142934
0.137528
0.132717
0.128332
0.124447
0.120927
0.11786
0.115123
0.11281
0.110811
0.109224
0.107953
0.107107
0.106641
0.235164
0.22434
0.213639
0.203689
0.194095
0.185191
0.176726
0.16891
0.161556
0.154811
0.148526
0.142855
0.137505
0.132731
0.128355
0.124477
0.120963
0.117898
0.115163
0.112851
0.110852
0.109264
0.107993
0.107146
0.10668
0.233183
0.222778
0.212393
0.202719
0.19334
0.184619
0.176296
0.168597
0.161332
0.154659
0.148427
0.142783
0.137477
0.132732
0.128362
0.124495
0.120987
0.117926
0.115194
0.112884
0.110885
0.109298
0.108027
0.10718
0.106713
0.23093
0.220993
0.210961
0.201598
0.192462
0.183947
0.175784
0.168217
0.161054
0.154463
0.148292
0.142686
0.137459
0.132712
0.128353
0.124499
0.120999
0.117945
0.115217
0.112908
0.110912
0.109325
0.108054
0.107208
0.106741
0.228407
0.218987
0.209347
0.200328
0.19146
0.183175
0.175191
0.167772
0.160722
0.154224
0.148122
0.142564
0.137389
0.132656
0.128329
0.12449
0.121001
0.117953
0.11523
0.112925
0.110931
0.109345
0.108076
0.10723
0.106764
0.225619
0.216763
0.207551
0.19891
0.190338
0.182306
0.174517
0.167263
0.160338
0.153942
0.147916
0.142415
0.137284
0.132558
0.128293
0.124469
0.120991
0.117951
0.115235
0.112934
0.110944
0.10936
0.108092
0.107246
0.106781
0.222568
0.214324
0.205575
0.197346
0.189095
0.181338
0.173764
0.166689
0.159901
0.153618
0.147676
0.142238
0.137155
0.132581
0.128246
0.124435
0.12097
0.11794
0.115232
0.112936
0.110949
0.109367
0.108102
0.107257
0.106793
0.21926
0.211672
0.203423
0.195637
0.187733
0.180275
0.172932
0.166051
0.159412
0.153252
0.147401
0.142035
0.137004
0.132462
0.128169
0.124389
0.120938
0.117919
0.11522
0.11293
0.110948
0.109369
0.108107
0.107263
0.106799
0.215698
0.208811
0.201095
0.193786
0.186253
0.179117
0.172022
0.165351
0.158873
0.152844
0.147093
0.141805
0.136832
0.132335
0.128023
0.124335
0.120896
0.117889
0.1152
0.112916
0.11094
0.109364
0.108105
0.107263
0.106801
0.211888
0.205744
0.198596
0.191795
0.184658
0.177864
0.171036
0.164589
0.158283
0.152396
0.146751
0.141548
0.136638
0.132187
0.128102
0.124278
0.120843
0.117849
0.115171
0.112895
0.110925
0.109353
0.108098
0.107257
0.106797
0.207835
0.202475
0.195926
0.189665
0.182948
0.17652
0.169974
0.163766
0.157643
0.151907
0.146377
0.141265
0.136423
0.132019
0.127943
0.124195
0.120779
0.117801
0.115134
0.112866
0.110904
0.109337
0.108085
0.107247
0.106787
0.203544
0.199009
0.193089
0.187399
0.181126
0.175084
0.168837
0.162883
0.156954
0.151379
0.14597
0.140955
0.136187
0.131839
0.127799
0.124032
0.120709
0.117744
0.11509
0.112831
0.110876
0.109314
0.108067
0.107231
0.106773
0.199021
0.195348
0.190088
0.184999
0.179192
0.173558
0.167627
0.16194
0.156218
0.150811
0.145532
0.14062
0.13593
0.13164
0.127637
0.124051
0.120635
0.117678
0.115038
0.112788
0.110842
0.109285
0.108043
0.107209
0.106754
0.19427
0.191498
0.186925
0.182468
0.177149
0.171944
0.166345
0.160939
0.155433
0.150205
0.145062
0.14026
0.135652
0.131426
0.127462
0.123873
0.120529
0.117605
0.114978
0.112739
0.110802
0.109251
0.108014
0.107183
0.106729
0.189297
0.187463
0.183602
0.179808
0.174998
0.170243
0.164992
0.15988
0.154603
0.149561
0.144562
0.139874
0.135354
0.131194
0.127279
0.123731
0.120434
0.117526
0.114911
0.112683
0.110755
0.10921
0.107979
0.107152
0.1067
0.184105
0.183247
0.180123
0.177022
0.172742
0.168456
0.163569
0.158765
0.153726
0.14888
0.144032
0.139464
0.135036
0.130947
0.127083
0.123578
0.120342
0.117429
0.114838
0.11262
0.110702
0.109165
0.10794
0.107115
0.106666
0.178698
0.178854
0.176489
0.17411
0.170382
0.166585
0.162077
0.157594
0.152805
0.148163
0.143472
0.13903
0.134698
0.130684
0.126875
0.123413
0.120206
0.117326
0.114757
0.112551
0.110644
0.109114
0.107895
0.107074
0.106627
0.173073
0.174287
0.172705
0.171076
0.167922
0.164631
0.160519
0.156368
0.15184
0.14741
0.142884
0.138573
0.134342
0.130405
0.126655
0.123238
0.120062
0.117256
0.11466
0.112476
0.11058
0.109057
0.107845
0.107028
0.106583
0.167226
0.169545
0.168771
0.167919
0.165363
0.162594
0.158894
0.155087
0.15083
0.14662
0.142267
0.138091
0.133965
0.13011
0.126421
0.123052
0.119911
0.117122
0.114587
0.112394
0.110509
0.108995
0.10779
0.106978
0.106535
0.16115
0.164634
0.164696
0.164642
0.162705
0.160474
0.157202
0.15375
0.149775
0.145794
0.141619
0.137585
0.133569
0.129798
0.126174
0.122855
0.119753
0.116988
0.114481
0.112304
0.110433
0.108928
0.107731
0.106922
0.106483
0.15485
0.15956
0.160492
0.161262
0.159971
0.158292
0.155463
0.152377
0.148693
0.144946
0.140955
0.137067
0.133163
0.129479
0.125921
0.122653
0.119589
0.116853
0.114365
0.112236
0.110352
0.108856
0.107665
0.106863
0.106425
0.14821
0.154241
0.15612
0.157766
0.157156
0.156058
0.15369
0.150986
0.147602
0.144098
0.140294
0.136554
0.132763
0.129165
0.125673
0.122454
0.119428
0.116719
0.114252
0.112132
0.110288
0.108785
0.107594
0.106799
0.106364
0.14091
0.14847
0.151416
0.153927
0.154029
0.153527
0.151651
0.149355
0.146301
0.143065
0.139475
0.135905
0.132248
0.128756
0.125346
0.122191
0.119216
0.116546
0.11411
0.112009
0.110182
0.108703
0.10753
0.106731
0.106298
0.13203
0.141067
0.145534
0.148738
0.149683
0.149788
0.148524
0.146717
0.144117
0.14125
0.137987
0.134684
0.131256
0.12795
0.124697
0.121668
0.118799
0.116213
0.113849
0.111803
0.110017
0.108572
0.107423
0.106642
0.106218
0.125611
0.133869
0.1394
0.143202
0.144934
0.145636
0.144986
0.143692
0.141572
0.139111
0.136212
0.133214
0.130051
0.126965
0.123899
0.121024
0.118284
0.115802
0.113524
0.111546
0.109815
0.10841
0.107292
0.106532
0.106118
0.116701
0.123097
0.119083
)
;

boundaryField
{
    inlet
    {
        type            zeroGradient;
    }
    outlet
    {
        type            fixedValue;
        value           nonuniform 0();
    }
    cylinder
    {
        type            zeroGradient;
    }
    top
    {
        type            symmetryPlane;
    }
    bottom
    {
        type            symmetryPlane;
    }
    defaultFaces
    {
        type            empty;
    }
    procBoundary4to0
    {
        type            processor;
        value           nonuniform List<scalar> 
56
(
0.110176
0.101255
0.10375
0.101255
0.0939498
0.0865951
0.0779869
0.0779869
0.0700416
0.0588162
0.0588162
0.0504694
0.0421842
0.029189
0.029189
0.0206033
0.0121317
0.00378551
-0.0118063
-0.0118063
-0.0202948
-0.0286078
-0.0367369
-0.0446747
-0.0524146
-0.070531
-0.070531
0.120215
0.127791
0.13369
0.137877
0.140219
0.141435
0.141339
0.140529
0.138873
0.136819
0.13429
0.131609
0.128726
0.125875
0.123012
0.120305
0.117707
0.11534
0.113159
0.111257
0.109588
0.10823
0.107146
0.10641
0.106008
0.110176
0.112467
0.112467
0.114372
)
;
    }
    procBoundary4to5
    {
        type            processor;
        value           nonuniform List<scalar> 
28
(
-0.425963
-0.414708
-0.414708
-0.412153
-0.412153
-0.39917
-0.364758
-0.364758
-0.340984
-0.340984
-0.316146
-0.279451
-0.279451
-0.25797
-0.226836
-0.226836
-0.210228
-0.184758
-0.184758
-0.172263
-0.151411
-0.132613
-0.132613
-0.124767
-0.109153
-0.0950044
-0.0950044
-0.0900952
)
;
    }
    procBoundary4to8
    {
        type            processor;
        value           nonuniform List<scalar> 
51
(
0.623901
0.608186
0.599577
0.590307
0.578841
0.565172
0.552437
0.552437
0.535126
0.516798
0.497841
0.478573
0.459247
0.440065
0.421184
0.402727
0.384786
0.367428
0.350703
0.334643
0.319267
0.304586
0.290598
0.277293
0.264657
0.252699
0.240379
0.2281
0.216335
0.205472
0.195185
0.18572
0.176836
0.168693
0.16112
0.154208
0.147813
0.142015
0.136692
0.131917
0.12756
0.123701
0.120213
0.11718
0.114477
0.112194
0.110224
0.108664
0.107414
0.106586
0.106129
)
;
    }
}


// ************************************************************************* //
