/*--------------------------------*- C++ -*----------------------------------*\
  =========                 |
  \\      /  F ield         | OpenFOAM: The Open Source CFD Toolbox
   \\    /   O peration     | Website:  https://openfoam.org
    \\  /    A nd           | Version:  7
     \\/     M anipulation  |
\*---------------------------------------------------------------------------*/
FoamFile
{
    version     2.0;
    format      ascii;
    class       volScalarField;
    location    "18.5";
    object      p;
}
// * * * * * * * * * * * * * * * * * * * * * * * * * * * * * * * * * * * * * //

dimensions      [1 -1 -2 0 0 0 0];

internalField   nonuniform List<scalar> 
4032
(
1
1
1
1
1
1
1
1
1
1
1
3.14456
9.71118
10.6082
10.7616
10.9577
11.1298
11.2915
11.441
11.5786
11.703
11.8057
11.8867
11.9453
1
1
1
1
1
1
1
1
1
1
1
3.03646
9.58852
10.5909
10.7489
10.9419
11.1091
11.2646
11.4071
11.5369
11.654
11.7503
11.8261
11.8828
1
1
1
1
1
1
1
1
1
1
1
2.78537
9.39289
10.5614
10.7144
10.9062
11.07
11.2204
11.3557
11.4758
11.5823
11.67
11.7377
11.7936
1
1
1
1
1
1
1
1
1
1
1
2.41461
9.0613
10.5223
10.6633
10.8536
11.0112
11.1547
11.2822
11.3934
11.4884
11.5616
11.6083
11.6445
1
1
1
1
1
1
1
1
1
1
1
1.97422
8.57745
10.5152
10.6127
10.7907
10.9345
11.0668
11.1786
11.2677
11.3331
11.3834
11.4108
11.4583
1
1
1
1
1
1
1
1
1
1
1
1.52165
7.92054
10.4699
10.5197
10.7005
10.8321
10.9494
11.0432
11.1153
11.1647
11.2028
11.1986
11.1465
1
1
1
1
1
1
1
1
1
1
1
1.09521
7.09627
10.4416
10.4385
10.5765
10.6795
10.7828
10.8577
10.8994
10.8963
10.8378
10.7349
10.6683
1
1
1
1
1
1
1
1
1
1
1
1.00204
5.99647
10.0794
10.2106
10.3689
10.4834
10.5642
10.611
10.6154
10.561
10.4593
10.2904
10.2448
1
1
1
1
1
1
1
1
1
1
1
0.999999
4.72414
9.7213
10.0911
10.2163
10.2992
10.3388
10.3446
10.2987
10.1609
9.8816
9.1223
7.08005
1
1
1
1
1
1
1
1
1
1
1
1
3.42163
9.15944
9.95658
10.0811
10.1372
10.1473
10.0962
9.98496
9.74891
9.26625
8.4612
6.4062
1
1
1
1
1
1
1
1
1
1
1
1
2.09701
8.28084
9.94354
9.98097
10.0011
9.95633
9.84866
9.66476
9.36857
8.80463
7.98378
6.08168
1
1
1
1
1
1
1
1
1
1
1
1
1.13826
7.04989
9.97349
9.85422
9.81438
9.73967
9.60962
9.38697
9.04528
8.48407
7.62624
6.14285
1
1
1
1
1
1
1
1
1
1
1
1
1.00166
5.3494
9.43303
9.61103
9.60458
9.52951
9.39376
9.15879
8.79608
8.25941
7.43365
6.30406
1
1
1
1
1
1
1
1
1
1
1
1
0.999977
3.34769
8.7958
9.50927
9.51672
9.4252
9.25663
8.99715
8.62536
8.11327
7.37572
6.52302
1
1
1
1
1
1
1
1
1
1
1
1
0.999994
1.65531
7.90475
9.59274
9.43038
9.30438
9.11545
8.86974
8.50565
8.03083
7.41363
6.80167
1
1
1
1
1
1
1
1
1
1
1
1
0.999999
1.04351
6.25163
9.28975
9.27788
9.18388
9.02171
8.77961
8.44048
8.02648
7.54185
7.08612
1
1
1
1
1
1
1
1
1
1
1
1
1
0.999991
3.97543
8.79612
9.22799
9.15194
8.99905
8.77195
8.47531
8.11888
7.72626
7.35419
1
1
1
1
1
1
1
1
1
1
1
1
1
0.99999
1.93618
8.06472
9.37572
9.17934
9.01437
8.79307
8.527
8.22125
7.90245
7.58129
1
1
1
1
1
1
1
1
1
1
1
1
1
0.999998
1.08029
6.49001
9.28161
9.18432
9.01869
8.85678
8.62939
8.365
8.09044
7.80093
1
1
1
1
1
1
1
1
1
1
1
1
1
1
1.0003
4.30841
8.90839
9.24244
9.12687
8.97643
8.75787
8.51982
8.27191
8.00189
1
1
1
1
1
1
1
1
1
1
1
1
1
1
0.999997
2.22628
8.4053
9.65299
9.33973
9.1181
8.89716
8.6784
8.44527
8.18523
1
1
1
1
1
1
1
1
1
1
1
1
1
1
0.999999
1.12976
7.22956
9.72121
9.39177
9.22053
9.03565
8.83782
8.61579
8.36762
1
1
1
1
1
1
1
1
1
1
1
1
1
1
1
1.0012
5.58282
9.62753
9.50829
9.37519
9.18741
8.98865
8.77012
8.53413
1
1
1
1
1
1
1
1
1
1
1
1
1
1
1
0.99999
3.97449
9.42773
9.74414
9.55242
9.34479
9.13661
8.9192
8.69611
1
1
1
1
1
1
1
1
1
1
1
1
1
1
1
0.999997
2.62976
8.89988
9.91474
9.62805
9.44192
9.24868
9.04759
8.8439
1
1
1
1
1
1
1
1
1
1
1
1
1
1
1
1
1.61638
8.18891
10.1715
9.78027
9.59481
9.39977
9.20189
9.00456
1
1
1
1
1
1
1
1
1
1
1
1
1
1
1
1
1.0794
7.36122
10.2442
9.83919
9.65791
9.47711
9.29669
9.11483
1
1
1
1
1
1
1
1
1
1
1
1
1
1
1
1
1.0011
6.32997
10.1779
9.8737
9.71695
9.55257
9.38408
9.21089
1
1
1
1
1
1
1
1
1
1
1
1
1
1
1
1
1
5.39332
10.0303
9.94789
9.78229
9.62902
9.46559
9.29664
1
1
1
1
1
1
1
1
1
1
1
1
1
1
1
1
1
4.56889
9.81431
10.0166
9.83361
9.69714
9.53771
9.37096
1
1
1
1
1
1
1
1
1
1
1
1
1
1
1
1
1
3.84372
9.58166
10.0776
9.86914
9.74514
9.58958
9.43033
1
1
1
1
1
1
1
1
1
1
1
1
1
1
1
1
1
3.1913
9.34092
10.1648
9.92847
9.80491
9.65
9.49305
1
1
1
1
1
1
1
1
1
1
1
1
1
1
1
1
1
2.66745
9.07683
10.247
9.97674
9.84395
9.68928
9.53525
1
1
1
1
1
1
1
1
1
1
1
1
1
1
1
1
1
2.27758
8.80542
10.3117
10.0218
9.8834
9.72753
9.57332
1
1
1
1
1
1
1
1
1
1
1
1
1
1
1
1
1
1.96014
8.55497
10.3548
10.0559
9.91643
9.76052
9.60668
1
1
1
1
1
1
1
1
1
1
1
1
1
1
1
1
1
1.72854
8.31946
10.3756
10.0766
9.93848
9.78431
9.6321
1
1
1
1
1
1
1
1
1
1
1
1
1
1
1
1
1
1.59446
8.11617
10.3776
10.0901
9.95572
9.8032
9.65219
1
1
1
1
1
1
1
1
1
1
1
1
1
1
1
1
1
1.51275
7.96048
10.3657
10.0964
9.96699
9.81744
9.66867
1
1
1
1
1
1
1
1
1
1
1
1
1
1
1
1
1
1.4566
7.85063
10.3563
10.1032
9.9767
9.82892
9.68141
1
1
1
1
1
1
1
1
1
1
1
1
1
1
1
1
1
1.43308
7.79422
10.3389
10.0991
9.97842
9.83311
9.68722
1.96631
2.19825
2.82568
3.38928
3.69522
3.85054
3.90414
3.91862
3.91687
3.91116
3.91072
3.91678
3.93706
3.97653
4.03691
4.11021
4.18179
4.24473
4.30055
4.35467
4.40998
4.46324
4.51186
4.55771
4.60442
4.65382
4.70325
4.74855
4.78732
4.82002
4.84943
4.87712
4.90367
4.928
4.94814
4.96149
4.96635
4.9628
4.95316
4.94039
4.92638
4.91199
4.8957
4.87692
4.85521
4.83212
4.80937
4.78692
4.7617
4.72914
4.68717
4.6381
4.58667
4.53607
4.4875
4.44018
4.39252
4.3445
4.2986
4.25829
4.22476
4.19521
4.16393
4.12656
4.08465
4.0406
3.99657
3.95286
3.90804
3.86184
3.81684
3.77571
3.74152
3.71661
3.70039
3.68625
3.66691
3.64485
3.62483
3.60654
3.58753
3.57065
3.55708
3.54774
3.54533
3.55014
3.56513
3.59092
3.62448
3.66039
3.69542
3.73271
3.77654
3.82455
3.87087
3.91533
3.36827
3.51315
3.50445
3.57795
3.72776
3.77662
3.81329
3.84306
3.86325
3.8811
3.91363
3.97665
4.03263
4.07681
4.12457
4.17837
4.24153
4.30185
4.34674
4.38026
4.41675
4.46295
4.5159
4.56739
4.61141
4.6482
4.68324
4.72193
4.76514
4.80798
4.84487
4.87168
4.88858
4.90068
4.91323
4.92725
4.93913
4.94321
4.93686
4.92313
4.90779
4.89544
4.88665
4.87826
4.86515
4.84294
4.81294
4.78053
4.75011
4.72065
4.68529
4.639
4.58563
4.53224
4.48384
4.44153
4.40288
4.36457
4.32472
4.2844
4.24601
4.21089
4.17602
4.13664
4.0916
4.04372
3.99595
3.95064
3.90856
3.866
3.82194
3.77974
3.7421
3.71163
3.68959
3.67371
3.65789
3.63984
3.62148
3.60354
3.58718
3.57239
3.55926
3.54675
3.53559
3.53327
3.54267
3.56596
3.60248
3.64732
3.6965
3.73885
3.77401
3.80961
3.83985
3.88167
4.12587
4.15961
3.73051
3.55278
3.66949
3.72282
3.77967
3.85915
3.93454
3.9841
4.0095
4.07094
4.14043
4.16821
4.1646
4.16402
4.19039
4.24383
4.30208
4.34322
4.37113
4.40268
4.45067
4.51743
4.58898
4.64772
4.68962
4.72161
4.75555
4.79834
4.84627
4.89005
4.91962
4.93264
4.93527
4.9367
4.94178
4.94835
4.94966
4.9405
4.92221
4.90033
4.88178
4.86972
4.86177
4.8511
4.82929
4.79598
4.75764
4.72132
4.68903
4.65281
4.60527
4.55003
4.49411
4.44268
4.39867
4.36261
4.33123
4.29944
4.26404
4.22651
4.19067
4.15459
4.11056
4.06269
4.01283
3.9623
3.9169
3.87646
3.83765
3.79991
3.76451
3.73332
3.7068
3.68456
3.6661
3.6495
3.62995
3.61038
3.59354
3.58269
3.57747
3.5738
3.57092
3.56681
3.56565
3.57445
3.59272
3.62377
3.67452
3.7411
3.80029
3.83502
3.85426
3.87195
4.67309
4.7776
4.3451
3.99478
4.04641
4.03663
3.95541
3.95196
4.01311
4.08349
4.07824
4.04112
4.09134
4.15046
4.17538
4.17409
4.17636
4.20861
4.27665
4.35623
4.41107
4.44324
4.46926
4.5068
4.56195
4.62517
4.68133
4.7206
4.74501
4.76561
4.79181
4.82539
4.85919
4.88377
4.89369
4.8934
4.89119
4.89243
4.89675
4.89874
4.8925
4.87639
4.85533
4.83538
4.81885
4.80445
4.78613
4.75557
4.7144
4.67315
4.6381
4.60588
4.56588
4.5212
4.47091
4.41803
4.3709
4.33057
4.2945
4.26081
4.22696
4.19093
4.15283
4.1145
4.07407
4.03124
3.98551
3.93763
3.89208
3.85114
3.81371
3.77863
3.74662
3.71942
3.69507
3.67321
3.65459
3.6374
3.6206
3.60335
3.58302
3.56334
3.55682
3.5578
3.56214
3.56795
3.57914
3.59298
3.60849
3.62961
3.6625
3.71316
3.7756
3.82493
3.85282
3.88019
5.30895
5.31896
4.97929
4.55733
4.43176
4.32806
4.13896
4.03428
4.06389
4.1465
4.18251
4.1331
4.13372
4.20699
4.27557
4.29409
4.30588
4.32365
4.36391
4.43035
4.49467
4.53536
4.56206
4.58547
4.61869
4.66612
4.71923
4.76575
4.79773
4.81862
4.83872
4.86418
4.89284
4.92074
4.94051
4.94728
4.94608
4.94316
4.94061
4.93714
4.93288
4.9259
4.91164
4.89116
4.86969
4.84881
4.82448
4.79137
4.75403
4.71519
4.67435
4.63086
4.58465
4.5376
4.49267
4.4495
4.40876
4.36916
4.32813
4.28625
4.24566
4.20733
4.17003
4.13239
4.09224
4.04684
3.9954
3.94411
3.89752
3.85747
3.8233
3.79034
3.75719
3.72534
3.69774
3.6755
3.65745
3.6424
3.62945
3.61713
3.60189
3.58118
3.5635
3.55745
3.55643
3.56207
3.57626
3.59487
3.6164
3.64013
3.66729
3.69972
3.73997
3.7878
3.82578
3.86129
5.86283
5.79091
5.46715
5.01873
4.813
4.71032
4.54302
4.36535
4.28937
4.3186
4.35072
4.30431
4.25309
4.28697
4.35353
4.37432
4.36332
4.35817
4.38501
4.44451
4.51308
4.54746
4.56278
4.57892
4.60745
4.65411
4.71089
4.75404
4.78003
4.79352
4.80465
4.82171
4.84894
4.88154
4.90283
4.90287
4.89179
4.87802
4.86717
4.86543
4.87309
4.87557
4.85533
4.82355
4.7935
4.77043
4.75326
4.73435
4.70334
4.65954
4.60991
4.56298
4.52314
4.49169
4.45986
4.42162
4.37764
4.33191
4.28702
4.24585
4.21035
4.17842
4.14686
4.11297
4.07459
4.03026
3.98206
3.9353
3.89422
3.85915
3.82637
3.79508
3.76574
3.73636
3.70769
3.68286
3.66389
3.65078
3.6417
3.63492
3.62564
3.60867
3.5873
3.57517
3.57237
3.57991
3.5972
3.62231
3.65061
3.67052
3.6867
3.70489
3.72878
3.76426
3.80959
3.85492
6.34725
6.18493
5.83687
5.4021
5.13802
5.06794
4.98309
4.82619
4.67042
4.6234
4.61615
4.54114
4.44334
4.42178
4.45412
4.46145
4.43085
4.39775
4.41155
4.4606
4.51008
4.5213
4.5148
4.52611
4.55064
4.59143
4.64022
4.66703
4.67975
4.68918
4.70061
4.71961
4.75534
4.79013
4.79741
4.79347
4.78676
4.78271
4.7859
4.79863
4.80411
4.78933
4.76393
4.73703
4.71701
4.70308
4.68365
4.65505
4.61844
4.57419
4.53312
4.4969
4.46337
4.43089
4.39424
4.35298
4.31129
4.27216
4.23518
4.19914
4.16446
4.1309
4.09657
4.06004
4.01944
3.97669
3.93511
3.89693
3.86272
3.83108
3.80137
3.77353
3.74828
3.72415
3.70198
3.68258
3.6663
3.65491
3.6471
3.64065
3.63356
3.62142
3.60577
3.59514
3.5965
3.60603
3.62246
3.64529
3.66989
3.68776
3.69816
3.71022
3.72742
3.75365
3.78833
3.83447
6.71831
6.49499
6.14068
5.72622
5.44834
5.37686
5.32099
5.17732
5.0148
4.96617
4.95543
4.88004
4.75639
4.66651
4.64721
4.62958
4.57948
4.52706
4.52192
4.54773
4.57389
4.57258
4.55242
4.5538
4.57152
4.60571
4.64316
4.65794
4.66736
4.67752
4.69215
4.71646
4.75797
4.7827
4.78385
4.77947
4.78003
4.78746
4.80622
4.82112
4.81026
4.78375
4.7548
4.73659
4.72954
4.71964
4.68924
4.64831
4.59983
4.56022
4.53515
4.50982
4.47475
4.43206
4.38252
4.33593
4.30175
4.27514
4.24607
4.21154
4.17258
4.129
4.08434
4.0405
3.99916
3.96162
3.9262
3.89108
3.85474
3.8179
3.78565
3.76059
3.74124
3.72496
3.7096
3.69397
3.67756
3.66187
3.64864
3.63938
3.6372
3.6395
3.63849
3.63638
3.63551
3.63788
3.64352
3.65384
3.67122
3.69521
3.71424
3.72643
3.73565
3.74653
3.75985
3.79157
7.0281
6.77449
6.42746
6.03496
5.75473
5.67363
5.6093
5.45256
5.28494
5.22656
5.21096
5.13365
5.00147
4.8927
4.85208
4.8273
4.77069
4.69855
4.65912
4.65889
4.6675
4.65482
4.63187
4.62618
4.63363
4.65801
4.68734
4.69692
4.70321
4.71078
4.72248
4.74279
4.7732
4.78535
4.78508
4.78334
4.78763
4.79961
4.81896
4.8204
4.80318
4.77808
4.7604
4.75318
4.7521
4.73153
4.6949
4.64619
4.60562
4.58053
4.56339
4.5378
4.49958
4.44791
4.39631
4.36023
4.33419
4.3106
4.28065
4.24451
4.19912
4.14745
4.09772
4.05422
4.02055
3.99056
3.95886
3.92358
3.88144
3.8378
3.80433
3.78236
3.76612
3.75362
3.74238
3.72996
3.71149
3.68688
3.67042
3.66437
3.66766
3.68179
3.69371
3.69473
3.68572
3.67499
3.67172
3.67575
3.68931
3.71681
3.74084
3.74721
3.74664
3.74
3.74197
3.76402
7.28274
7.02814
6.70618
6.34087
6.07035
5.97879
5.88929
5.71104
5.53359
5.45827
5.41767
5.32272
5.17705
5.06419
5.01742
4.98709
4.92486
4.83248
4.75908
4.73642
4.73314
4.71285
4.68239
4.66022
4.65576
4.66803
4.68787
4.69396
4.69561
4.69745
4.70411
4.71987
4.74411
4.75202
4.749
4.74519
4.75061
4.76426
4.77915
4.7736
4.75142
4.72994
4.71874
4.71933
4.71717
4.69149
4.65026
4.60574
4.57823
4.56242
4.54428
4.5133
4.47034
4.41995
4.38555
4.36062
4.33626
4.30626
4.27172
4.22984
4.18164
4.13643
4.09644
4.06216
4.0317
4.00185
3.97079
3.9343
3.89229
3.85626
3.82944
3.80806
3.7928
3.78048
3.77069
3.75965
3.74186
3.71924
3.70921
3.70777
3.71449
3.72666
3.73463
3.73505
3.72443
3.71239
3.70833
3.70918
3.71709
3.737
3.7498
3.74892
3.74205
3.7326
3.73233
3.74721
7.51731
7.26718
6.96994
6.62661
6.37262
6.27516
6.16275
5.9656
5.78213
5.6928
5.62228
5.50225
5.33813
5.22146
5.17118
5.12736
5.05087
4.94014
4.84267
4.804
4.78787
4.75818
4.71359
4.67249
4.65618
4.65572
4.66283
4.6618
4.65781
4.65302
4.65375
4.66372
4.68301
4.69367
4.69146
4.6848
4.68913
4.70172
4.71181
4.70458
4.67994
4.6577
4.6514
4.65743
4.65066
4.62333
4.58104
4.54332
4.52472
4.51275
4.49044
4.45638
4.41204
4.37059
4.34641
4.32722
4.30119
4.26795
4.2294
4.1855
4.14116
4.10411
4.07411
4.04534
4.01376
3.97862
3.94137
3.90676
3.87969
3.85847
3.83732
3.81181
3.78855
3.7751
3.76726
3.76359
3.75645
3.74719
3.74317
3.74202
3.7421
3.74102
3.73954
3.74171
3.74334
3.73843
3.73479
3.7328
3.73189
3.73519
3.73882
3.73457
3.72711
3.72487
3.72467
3.73246
7.73542
7.50074
7.22753
6.90903
6.6732
6.56506
6.42811
6.2131
6.02897
5.93001
5.83579
5.69263
5.50979
5.39149
5.33627
5.27808
5.18357
5.04904
4.93478
4.88581
4.85477
4.81242
4.75418
4.69104
4.66048
4.64746
4.64106
4.63139
4.62143
4.61104
4.60476
4.60581
4.61592
4.62516
4.62277
4.6133
4.61331
4.62234
4.63187
4.62742
4.60456
4.58313
4.58071
4.58536
4.57377
4.54625
4.5065
4.47989
4.46777
4.45534
4.42896
4.39255
4.34865
4.31936
4.30224
4.28515
4.25772
4.22181
4.17749
4.1314
4.09809
4.0728
4.0486
4.02118
3.98695
3.9453
3.90364
3.87788
3.8628
3.8508
3.83673
3.81799
3.79121
3.77032
3.76114
3.75873
3.7624
3.76655
3.7673
3.76455
3.75554
3.73973
3.73124
3.73763
3.75165
3.7564
3.75276
3.74681
3.7363
3.72435
3.71701
3.71576
3.72052
3.72186
3.72053
3.71791
7.9351
7.71549
7.45434
7.15634
6.94494
6.83411
6.68037
6.45704
6.27782
6.17176
6.0578
5.89175
5.69592
5.58251
5.5215
5.44396
5.32856
5.16987
5.04695
4.99041
4.94732
4.8899
4.81487
4.72964
4.68565
4.66304
4.64597
4.62658
4.6078
4.58742
4.57564
4.56995
4.57583
4.58364
4.58072
4.56859
4.56225
4.56712
4.57605
4.5735
4.55274
4.52956
4.52637
4.52866
4.51558
4.48506
4.44872
4.43262
4.42525
4.40829
4.37705
4.33381
4.29653
4.27859
4.26809
4.25054
4.22234
4.18172
4.12769
4.08726
4.06584
4.04847
4.0283
4.0028
3.96797
3.91797
3.87677
3.85862
3.84793
3.84281
3.83393
3.82241
3.80305
3.78069
3.77098
3.76839
3.77515
3.78885
3.79521
3.79101
3.77582
3.75655
3.74806
3.74965
3.76417
3.7753
3.77107
3.76117
3.74498
3.72712
3.71653
3.71331
3.72042
3.72525
3.721
3.71023
8.13212
7.91977
7.66204
7.38165
7.19078
7.07225
6.89787
6.67032
6.50227
6.39604
6.27073
6.08942
5.89112
5.78203
5.71296
5.61844
5.4823
5.30728
5.18979
5.12609
5.0667
4.99226
4.89501
4.79193
4.74125
4.71273
4.6852
4.65719
4.62585
4.58971
4.5722
4.5637
4.56806
4.57177
4.56294
4.54373
4.52916
4.52893
4.53653
4.53489
4.51728
4.49326
4.48638
4.48595
4.47189
4.44111
4.41137
4.40149
4.39455
4.3747
4.34154
4.29533
4.26742
4.25429
4.24386
4.22463
4.19788
4.15281
4.09481
4.06183
4.04496
4.03319
4.0164
3.99538
3.95916
3.90386
3.87172
3.85882
3.85042
3.84578
3.84258
3.83665
3.82426
3.80793
3.80211
3.803
3.81118
3.82222
3.82772
3.82272
3.80855
3.79632
3.79206
3.79044
3.79498
3.80201
3.79673
3.78263
3.76198
3.74378
3.73597
3.73248
3.73732
3.73709
3.72925
3.70951
8.3139
8.10842
7.85792
7.60089
7.42457
7.29204
7.09588
6.86578
6.708
6.60262
6.46627
6.27157
6.07549
5.96899
5.89101
5.78254
5.63073
5.45451
5.34512
5.27029
5.19415
5.10232
4.98219
4.869
4.81391
4.77633
4.73809
4.69844
4.65065
4.5996
4.57756
4.5684
4.56859
4.56243
4.5461
4.51687
4.49675
4.49207
4.49749
4.49692
4.48131
4.45585
4.44785
4.45203
4.44382
4.41849
4.39236
4.38386
4.37606
4.35845
4.32946
4.28666
4.26324
4.25151
4.2308
4.20721
4.17943
4.13614
4.09527
4.06936
4.04463
4.02743
4.00983
3.98496
3.94917
3.91547
3.8969
3.88639
3.87929
3.87535
3.8737
3.87187
3.86582
3.86114
3.86203
3.86616
3.86909
3.86615
3.86074
3.86035
3.861
3.85899
3.85624
3.84928
3.8427
3.83546
3.82588
3.81277
3.79696
3.78425
3.77676
3.77041
3.76566
3.75724
3.74322
3.71533
8.4882
8.28579
8.04222
7.80163
7.62982
7.486
7.27507
7.05442
6.90735
6.79589
6.63714
6.42563
6.23487
6.12854
6.04272
5.92323
5.76311
5.59368
5.48483
5.39714
5.30431
5.1964
5.06288
4.94874
4.88794
4.83692
4.78703
4.7365
4.67191
4.60551
4.57437
4.55379
4.54075
4.52743
4.5048
4.46867
4.44517
4.43836
4.44023
4.43634
4.41922
4.3951
4.38695
4.39215
4.38743
4.36547
4.33803
4.32945
4.3262
4.31518
4.29673
4.26842
4.24213
4.22235
4.2017
4.1792
4.15385
4.12936
4.10623
4.08111
4.05169
4.02078
3.99459
3.97069
3.95701
3.94797
3.93593
3.92379
3.91391
3.90953
3.90723
3.90955
3.91513
3.92231
3.92684
3.92688
3.92122
3.9083
3.90081
3.90559
3.91841
3.92062
3.91381
3.89962
3.87528
3.85755
3.85023
3.84649
3.83925
3.82995
3.81934
3.80227
3.77719
3.75572
3.7398
3.71647
8.64976
8.44916
8.21677
7.99511
7.82758
7.66857
7.44735
7.23051
7.08164
6.96102
6.79026
6.56964
6.38603
6.27793
6.18504
6.058
5.88745
5.71755
5.60317
5.50361
5.39986
5.28315
5.142
5.02143
4.952
4.89171
4.83144
4.76044
4.67041
4.59171
4.55206
4.52613
4.50567
4.48394
4.45438
4.41107
4.38475
4.37559
4.37482
4.36697
4.34485
4.31785
4.30858
4.31453
4.31504
4.29964
4.27242
4.26168
4.26346
4.25521
4.2409
4.22462
4.20131
4.17627
4.15561
4.13542
4.11414
4.09465
4.07794
4.05871
4.0327
4.00006
3.96996
3.95356
3.94467
3.94178
3.94204
3.93686
3.92987
3.92284
3.92055
3.92591
3.93837
3.95395
3.96341
3.96225
3.9521
3.93429
3.92814
3.93113
3.94303
3.94558
3.93585
3.91927
3.89276
3.87221
3.86387
3.86126
3.85953
3.84973
3.83686
3.81801
3.78798
3.75364
3.7364
3.71501
8.81118
8.60495
8.38018
8.17279
8.00803
7.82955
7.60283
7.398
7.25115
7.12138
6.93394
6.71094
6.54606
6.43551
6.31529
6.16308
5.97827
5.82448
5.711
5.60287
5.48816
5.35188
5.20118
5.08689
5.00389
4.92872
4.85301
4.77193
4.681
4.59968
4.54497
4.51032
4.47952
4.44673
4.40523
4.35353
4.32457
4.31338
4.30974
4.29621
4.26869
4.24001
4.2314
4.2375
4.24165
4.23103
4.20565
4.19095
4.19307
4.186
4.17938
4.17173
4.15118
4.12334
4.10201
4.08439
4.0686
4.0542
4.03901
4.02139
4.00031
3.97376
3.94779
3.93606
3.93151
3.93236
3.9398
3.94642
3.9453
3.93997
3.93718
3.94095
3.95287
3.97392
3.98816
3.98774
3.97488
3.95518
3.9465
3.94513
3.9532
3.96012
3.95091
3.93151
3.90168
3.88034
3.87207
3.86917
3.87205
3.864
3.84981
3.82784
3.79061
3.75273
3.73425
3.7104
8.92977
8.7293
8.51928
8.32857
8.16294
7.9691
7.7464
7.55396
7.41237
7.26896
7.06698
6.84494
6.68649
6.57248
6.439
6.26808
6.07488
5.93868
5.82394
5.70419
5.57726
5.43384
5.2765
5.15153
5.05712
4.97153
4.88668
4.79643
4.69617
4.60684
4.5481
4.50511
4.46611
4.42435
4.37107
4.31478
4.28735
4.27473
4.26562
4.24651
4.21427
4.18247
4.17353
4.17856
4.1845
4.17742
4.15602
4.13542
4.1317
4.12822
4.12841
4.12256
4.10205
4.07824
4.06261
4.04996
4.03492
4.01695
3.99875
3.98191
3.96792
3.954
3.94018
3.93149
3.9288
3.9287
3.93349
3.94538
3.95328
3.95475
3.95793
3.96199
3.96858
3.97767
3.99008
3.99447
3.98515
3.97133
3.95956
3.9505
3.94561
3.94577
3.94138
3.926
3.90573
3.8917
3.88225
3.8743
3.86915
3.85956
3.84408
3.82
3.78718
3.75935
3.74227
3.71409
9.03065
8.83771
8.6427
8.46554
8.29403
8.09115
7.87821
7.69904
7.56168
7.39906
7.1834
6.97298
6.82383
6.70503
6.55727
6.37169
6.18176
6.05162
5.93546
5.80584
5.66109
5.49816
5.34831
5.23342
5.13288
5.03665
4.93737
4.82843
4.7166
4.62964
4.5663
4.51394
4.46707
4.41768
4.35498
4.29678
4.26861
4.25102
4.23447
4.21136
4.17641
4.13953
4.12774
4.13008
4.13526
4.12978
4.11256
4.09086
4.08303
4.08354
4.08663
4.07709
4.05652
4.04222
4.03603
4.03088
4.016
3.99092
3.96551
3.9544
3.94897
3.95085
3.95439
3.9509
3.94512
3.94177
3.94293
3.95154
3.96638
3.98032
3.99002
3.99491
3.99571
3.99158
3.99076
3.99745
3.99935
3.99321
3.98342
3.96938
3.95287
3.94027
3.93264
3.92778
3.92105
3.9122
3.90193
3.88903
3.87404
3.8581
3.83783
3.8135
3.79205
3.77538
3.76103
3.72836
9.11887
8.9326
8.74927
8.57748
8.39742
8.19403
7.99456
7.82838
7.68781
7.50458
7.28337
7.09023
6.94995
6.82477
6.66242
6.46578
6.28647
6.16045
6.03777
5.89953
5.74326
5.57258
5.42753
5.31429
5.21095
5.10668
4.99581
4.87278
4.75331
4.66573
4.5994
4.54086
4.48619
4.42672
4.35274
4.28973
4.2575
4.23408
4.21227
4.18608
4.14824
4.10634
4.08864
4.08577
4.0863
4.07963
4.06399
4.04668
4.0415
4.04636
4.04562
4.02955
4.01144
4.00576
4.00874
4.01134
3.99977
3.9749
3.9482
3.94066
3.94144
3.95777
3.97583
3.9783
3.9778
3.97157
3.97054
3.9781
3.99593
4.01944
4.03201
4.03623
4.03273
4.02106
4.01461
4.01648
4.02628
4.02548
4.01628
4.00082
3.97891
3.96015
3.94923
3.94427
3.94312
3.9358
3.92451
3.90997
3.888
3.86262
3.84021
3.82153
3.80733
3.79367
3.77932
3.743
9.19511
9.01529
8.84005
8.66771
8.48249
8.28573
8.10022
7.94311
7.78847
7.58857
7.37438
7.19839
7.0656
6.92741
6.74827
6.54282
6.3786
6.2553
6.12851
5.98382
5.81743
5.64581
5.51023
5.39528
5.28386
5.16923
5.0464
4.91447
4.79658
4.70946
4.63814
4.57222
4.50693
4.43411
4.34812
4.28208
4.24451
4.21614
4.18966
4.15806
4.1136
4.06674
4.04518
4.03701
4.03158
4.01982
4.00254
3.9918
3.99322
4.00246
3.99739
3.97563
3.95658
3.95561
3.96537
3.97932
3.97639
3.95998
3.93706
3.93246
3.93823
3.96168
3.99018
4.00101
4.00597
4.00493
4.00632
4.01619
4.03493
4.06211
4.07831
4.08129
4.07447
4.0607
4.05294
4.05095
4.0571
4.05995
4.05094
4.0343
4.01122
3.99378
3.9831
3.97503
3.97079
3.96246
3.94901
3.92854
3.89986
3.8714
3.85187
3.83766
3.82466
3.80953
3.79257
3.75356
9.26251
9.09148
8.92088
8.74542
8.55933
8.37053
8.19476
8.03616
7.86184
7.65673
7.45829
7.29585
7.16563
7.00618
6.80971
6.61025
6.46013
6.33766
6.20575
6.05418
5.87867
5.71223
5.58183
5.46289
5.3445
5.22198
5.08942
4.95276
4.83859
4.74877
4.67051
4.59498
4.5161
4.42862
4.33619
4.27028
4.22761
4.1914
4.15608
4.11604
4.06126
4.01383
3.99317
3.9833
3.97122
3.95071
3.92834
3.92187
3.92854
3.94254
3.94012
3.92084
3.89654
3.89448
3.9073
3.93191
3.94145
3.93914
3.92536
3.92295
3.93195
3.95487
3.98811
4.01107
4.02151
4.02781
4.03691
4.04997
4.06749
4.09249
4.11154
4.11416
4.10566
4.09317
4.08817
4.08464
4.0846
4.08559
4.07751
4.06243
4.04423
4.03186
4.02155
4.01107
3.9991
3.98418
3.96348
3.93585
3.9073
3.88587
3.86893
3.85248
3.83428
3.8125
3.78959
3.75355
9.32846
9.161
8.98981
8.81195
8.62849
8.44729
8.27671
8.10933
7.92272
7.72444
7.54025
7.38567
7.2472
7.06846
6.86358
6.68034
6.53652
6.41122
6.26883
6.10395
5.92195
5.77153
5.64365
5.52063
5.39623
5.26473
5.12258
4.98552
4.8736
4.77941
4.69271
4.60779
4.51708
4.41973
4.32949
4.26052
4.2089
4.16305
4.11786
4.06553
4.00239
3.96204
3.94271
3.93098
3.91166
3.88142
3.85102
3.84367
3.85222
3.87156
3.87464
3.86472
3.84405
3.83871
3.85191
3.87984
3.90404
3.91117
3.90918
3.91111
3.92319
3.94228
3.97265
4.00667
4.02587
4.0403
4.05583
4.07119
4.08718
4.10582
4.11778
4.11721
4.11225
4.1123
4.11258
4.10963
4.10459
4.09835
4.0892
4.07794
4.06806
4.0577
4.04569
4.03212
4.01381
3.98877
3.95835
3.93011
3.91013
3.89369
3.87605
3.85483
3.82871
3.7997
3.77807
3.75006
9.37517
9.21118
9.04092
8.8647
8.68641
8.51175
8.34139
8.16444
7.97304
7.77776
7.60093
7.45919
7.30521
7.11345
6.90956
6.74249
6.60924
6.4761
6.31778
6.13582
5.96658
5.82876
5.69875
5.56991
5.43767
5.29653
5.15018
5.01755
4.90578
4.80626
4.71112
4.61568
4.51664
4.41604
4.32732
4.25845
4.20042
4.145
4.08798
4.02195
3.96039
3.92916
3.90978
3.89156
3.86603
3.83113
3.79572
3.78562
3.7929
3.81601
3.83069
3.83136
3.81962
3.81076
3.82058
3.84341
3.87568
3.89293
3.89892
3.90648
3.92217
3.94101
3.96652
3.99731
4.02228
4.04425
4.0633
4.0805
4.09627
4.1066
4.10969
4.11027
4.11287
4.11898
4.12335
4.11925
4.11127
4.10045
4.09107
4.0839
4.07829
4.06935
4.0564
4.03886
4.01214
3.97818
3.95121
3.93268
3.91623
3.89888
3.87825
3.85158
3.82224
3.79705
3.77968
3.7523
9.41412
9.25061
9.08206
8.90998
8.73736
8.56602
8.3921
8.20931
8.02089
7.84102
7.68439
7.53236
7.34083
7.13044
6.9536
6.81116
6.68099
6.5266
6.3523
6.16891
6.01564
5.88078
5.7465
5.6111
5.47035
5.32187
5.17681
5.05018
4.93849
4.83344
4.72989
4.62392
4.51567
4.41327
4.32895
4.26065
4.19897
4.13803
4.07101
3.99302
3.93505
3.90665
3.88625
3.8657
3.84086
3.80731
3.76962
3.75464
3.75705
3.77693
3.80038
3.80995
3.80912
3.80136
3.80849
3.83052
3.86019
3.88537
3.90222
3.91706
3.93309
3.9507
3.97323
4.00169
4.03241
4.05735
4.07431
4.08663
4.09764
4.10552
4.11
4.11266
4.11556
4.12046
4.1259
4.12234
4.11407
4.1035
4.09502
4.08827
4.08152
4.07145
4.05731
4.03691
4.00862
3.98041
3.95959
3.94279
3.92611
3.90728
3.88426
3.85609
3.82848
3.80579
3.78951
3.76138
9.44813
9.28547
9.11912
8.95034
8.7803
8.60864
8.43252
8.25129
8.06992
7.89816
7.73965
7.56667
7.36787
7.17924
7.01633
6.87807
6.72964
6.55998
6.37423
6.20184
6.06172
5.92826
5.78998
5.6486
5.49787
5.34202
5.20276
5.08337
4.97244
4.86343
4.752
4.63484
4.51585
4.41145
4.33069
4.26386
4.20224
4.14072
4.06637
3.97752
3.91677
3.88523
3.86422
3.84487
3.8228
3.79258
3.75343
3.73521
3.73586
3.75127
3.7669
3.78021
3.79207
3.7987
3.80455
3.82333
3.85087
3.88053
3.90638
3.9309
3.95568
3.98178
4.00608
4.02918
4.05444
4.07478
4.08866
4.1017
4.11366
4.11969
4.12209
4.12412
4.12534
4.12757
4.13293
4.13063
4.12236
4.1108
4.10105
4.09336
4.08488
4.0737
4.0584
4.03871
4.01519
3.991
3.97175
3.95499
3.93788
3.91811
3.89297
3.86521
3.84108
3.82114
3.8049
3.77512
9.47518
9.3149
9.15096
8.98437
8.81522
8.64286
8.46664
8.28832
8.11189
7.94299
7.77569
7.59018
7.39875
7.22422
7.07075
6.92621
6.76217
6.57993
6.39401
6.23836
6.10408
5.97117
5.83231
5.6832
5.52018
5.36318
5.23061
5.11278
5.00015
4.88901
4.77487
4.65021
4.52419
4.42001
4.33796
4.2663
4.19947
4.13331
4.05781
3.97808
3.91476
3.86984
3.83821
3.81296
3.78996
3.76842
3.7437
3.72294
3.71763
3.72318
3.7284
3.74024
3.76136
3.77985
3.79866
3.82437
3.8537
3.88281
3.91234
3.94353
3.97786
4.01126
4.04059
4.06996
4.09257
4.10713
4.11825
4.12785
4.13624
4.14249
4.14327
4.14247
4.14115
4.14082
4.14447
4.14334
4.1346
4.12331
4.11188
4.10121
4.08981
4.07786
4.06346
4.04519
4.02446
4.0053
3.98838
3.97098
3.95027
3.92655
3.90135
3.87821
3.85982
3.84181
3.82633
3.79607
9.49653
9.33786
9.17581
9.01055
8.84197
8.66992
8.49506
8.31956
8.14632
7.97605
7.79912
7.61289
7.43141
7.26271
7.11245
6.95837
6.78012
6.59154
6.41999
6.2764
6.14303
6.00352
5.85734
5.69988
5.53591
5.38815
5.26146
5.14489
5.03249
4.91699
4.79091
4.65872
4.53524
4.43276
4.3487
4.27519
4.20578
4.1311
4.04968
3.97266
3.91054
3.86241
3.82229
3.79081
3.76313
3.73357
3.7107
3.69946
3.69399
3.69111
3.68812
3.69571
3.71581
3.74576
3.77986
3.81374
3.84616
3.87793
3.91073
3.94555
3.98458
4.02677
4.06846
4.10032
4.11838
4.1297
4.13798
4.14861
4.16376
4.1736
4.17438
4.17099
4.16381
4.15821
4.15541
4.15577
4.14865
4.13867
4.12405
4.10711
4.09332
4.08124
4.06937
4.05568
4.04016
4.02249
4.00131
3.97823
3.95592
3.93272
3.91195
3.89647
3.88157
3.86367
3.84384
3.80239
9.5146
9.35662
9.19488
9.02979
8.86147
8.69012
8.5168
8.34295
8.17019
7.99604
7.81629
7.63481
7.45847
7.29404
7.14085
6.96887
6.7862
6.60811
6.45148
6.30715
6.16386
6.0189
5.86575
5.7056
5.55419
5.41959
5.29348
5.17001
5.04632
4.91914
4.78779
4.6625
4.55363
4.45812
4.36782
4.27818
4.19247
4.10884
4.03066
3.9695
3.91929
3.87009
3.81759
3.76902
3.72726
3.69485
3.67867
3.67017
3.66331
3.65712
3.64861
3.65094
3.66801
3.69945
3.74218
3.78455
3.82228
3.85861
3.89505
3.93209
3.97256
4.0204
4.07092
4.10312
4.12095
4.13342
4.14545
4.15937
4.18087
4.19439
4.19533
4.19133
4.18046
4.17267
4.16775
4.16418
4.15703
4.14703
4.13102
4.10961
4.09392
4.08117
4.06802
4.05381
4.03815
4.02036
3.99948
3.97682
3.95707
3.94149
3.9268
3.90993
3.88908
3.86465
3.84145
3.79875
9.52807
9.37063
9.20918
9.04414
8.87591
8.705
8.53237
8.35869
8.18394
8.0067
7.82791
7.65126
7.47953
7.31468
7.14562
6.96422
6.78623
6.62508
6.47825
6.3306
6.17843
6.02195
5.86308
5.71098
5.57219
5.44299
5.31634
5.18702
5.05125
4.91317
4.7834
4.66888
4.56906
4.47641
4.3849
4.28965
4.18706
4.09099
4.0165
3.96155
3.91609
3.87214
3.82485
3.76274
3.6979
3.66745
3.65206
3.64472
3.63901
3.63464
3.62527
3.62013
3.63397
3.6612
3.70238
3.74816
3.78861
3.82699
3.86576
3.90631
3.95138
4.00625
4.06295
4.09482
4.11377
4.12992
4.1438
4.1599
4.18396
4.19799
4.19815
4.19371
4.18271
4.17437
4.16889
4.1632
4.15513
4.14493
4.12954
4.10867
4.0922
4.07849
4.06441
4.0493
4.03238
4.01288
3.99209
3.97404
3.95883
3.94399
3.92818
3.91062
3.88895
3.86091
3.83283
3.78976
9.53476
9.37786
9.21665
9.05181
8.88392
8.71373
8.54167
8.36782
8.19172
8.01379
7.83729
7.66488
7.4965
7.32436
7.1437
6.96213
6.79317
6.64642
6.50348
6.34566
6.18487
6.01877
5.85837
5.71621
5.5851
5.45784
5.33016
5.19549
5.04954
4.90264
4.77653
4.67373
4.58156
4.4919
4.39787
4.29092
4.17282
4.06912
4.00243
3.9556
3.91319
3.872
3.82249
3.74781
3.67648
3.6495
3.63474
3.62853
3.62257
3.61668
3.606
3.59675
3.60951
3.63691
3.68042
3.73409
3.78389
3.82822
3.87081
3.91405
3.96141
4.01798
4.07438
4.10386
4.12341
4.14034
4.15439
4.17092
4.1957
4.20954
4.20875
4.20283
4.1897
4.17978
4.17408
4.16678
4.15747
4.14609
4.12981
4.1066
4.08696
4.07229
4.05796
4.04282
4.02592
4.00606
3.98666
3.972
3.95759
3.94262
3.92695
3.90976
3.88735
3.85575
3.82525
3.78358
)
;

boundaryField
{
    inlet
    {
        type            fixedValue;
        value           uniform 1;
    }
    outlet
    {
        type            zeroGradient;
    }
    bottom
    {
        type            symmetryPlane;
    }
    top
    {
        type            symmetryPlane;
    }
    obstacle
    {
        type            zeroGradient;
    }
    defaultFaces
    {
        type            empty;
    }
}


// ************************************************************************* //
