/*--------------------------------*- C++ -*----------------------------------*\
  =========                 |
  \\      /  F ield         | OpenFOAM: The Open Source CFD Toolbox
   \\    /   O peration     | Website:  https://openfoam.org
    \\  /    A nd           | Version:  7
     \\/     M anipulation  |
\*---------------------------------------------------------------------------*/
FoamFile
{
    version     2.0;
    format      ascii;
    class       volScalarField;
    location    "18.5";
    object      rho;
}
// * * * * * * * * * * * * * * * * * * * * * * * * * * * * * * * * * * * * * //

dimensions      [1 -3 0 0 0 0 0];

internalField   nonuniform List<scalar> 
4032
(
1.40001
1.40001
1.40001
1.40001
1.40001
1.40001
1.40001
1.40001
1.40001
1.40001
1.40001
2.51606
5.15104
5.46088
5.5163
5.58848
5.65245
5.7121
5.76596
5.81393
5.85612
5.89051
5.91795
5.93848
1.40001
1.40001
1.40001
1.40001
1.40001
1.40001
1.40001
1.40001
1.40001
1.40001
1.40001
2.46062
5.10317
5.45451
5.51224
5.58347
5.64559
5.70285
5.75408
5.79919
5.83879
5.87092
5.8965
5.9163
1.40001
1.40001
1.40001
1.40001
1.40001
1.40001
1.40001
1.40001
1.40001
1.40001
1.40001
2.3402
5.03794
5.44938
5.50348
5.5734
5.6336
5.68847
5.73663
5.77794
5.81357
5.84244
5.86492
5.88429
1.40001
1.40001
1.40001
1.40001
1.40001
1.40001
1.40001
1.40001
1.40001
1.40001
1.40001
2.16262
4.93568
5.45063
5.49442
5.56056
5.61672
5.66786
5.71225
5.7496
5.78059
5.804
5.81879
5.83111
1.40001
1.40001
1.40001
1.40001
1.40001
1.40001
1.40001
1.40001
1.40001
1.40001
1.40001
1.93832
4.77806
5.46971
5.49037
5.54704
5.59564
5.64107
5.67846
5.70659
5.72595
5.74117
5.74999
5.76758
1.40001
1.40001
1.40001
1.40001
1.40001
1.40001
1.40001
1.40001
1.40001
1.40001
1.40001
1.70481
4.56143
5.46931
5.46946
5.52434
5.56726
5.60577
5.63491
5.6549
5.66691
5.67807
5.68017
5.66868
1.40001
1.40001
1.40001
1.40001
1.40001
1.40001
1.40001
1.40001
1.40001
1.40001
1.40001
1.46478
4.25217
5.45211
5.44534
5.4904
5.52248
5.55455
5.57457
5.58128
5.57357
5.54847
5.51505
5.502
1.40001
1.40001
1.40001
1.40001
1.40001
1.40001
1.40001
1.40001
1.40001
1.40001
1.40001
1.40165
3.78788
5.29831
5.35753
5.41881
5.45856
5.48311
5.49185
5.48487
5.45828
5.41212
5.33287
5.28296
1.40001
1.40001
1.40001
1.40001
1.40001
1.40001
1.40001
1.40001
1.40001
1.40001
1.40001
1.4
3.24623
5.16182
5.30816
5.35887
5.39153
5.40375
5.40022
5.37749
5.31837
5.20376
4.8823
3.91657
1.40001
1.40001
1.40001
1.40001
1.40001
1.40001
1.40001
1.40001
1.40001
1.40001
1.40001
1.4
2.67646
5.00091
5.27441
5.31283
5.33211
5.33422
5.31284
5.26704
5.17182
4.97804
4.63822
3.71525
1.40001
1.40001
1.40001
1.40001
1.40001
1.40001
1.40001
1.40001
1.40001
1.40001
1.40001
1.4
2.05178
4.77913
5.31784
5.2969
5.29073
5.26924
5.22399
5.1502
5.03257
4.80669
4.46704
3.65232
1.40001
1.40001
1.40001
1.40001
1.40001
1.40001
1.40001
1.40001
1.40001
1.40001
1.40001
1.40001
1.51004
4.32559
5.36021
5.28545
5.24449
5.20143
5.1414
5.04877
4.91171
4.68619
4.33485
3.70289
1.40001
1.40001
1.40001
1.40001
1.40001
1.40001
1.40001
1.40001
1.40001
1.40001
1.40001
1.40001
1.4014
3.56503
5.16064
5.21728
5.19214
5.14452
5.07676
4.97236
4.82127
4.60194
4.26277
3.78495
1.40001
1.40001
1.40001
1.40001
1.40001
1.40001
1.40001
1.40001
1.40001
1.40001
1.40001
1.40001
1.39998
2.67632
4.9611
5.20945
5.18748
5.13587
5.05103
4.9308
4.769
4.55389
4.24813
3.88641
1.40001
1.40001
1.40001
1.40001
1.40001
1.40001
1.40001
1.40001
1.40001
1.40001
1.40001
1.40001
1.4
1.8352
4.71743
5.26773
5.18835
5.11974
5.02545
4.90905
4.7463
4.54121
4.27737
4.0136
1.40001
1.40001
1.40001
1.40001
1.40001
1.40001
1.40001
1.40001
1.40001
1.40001
1.40001
1.40001
1.4
1.43568
3.9825
5.14759
5.14336
5.09795
5.01921
4.90555
4.75179
4.56667
4.35133
4.14963
1.40001
1.40001
1.40001
1.40001
1.40001
1.40001
1.40001
1.40001
1.40001
1.40001
1.40001
1.40001
1.4
1.39996
2.97846
4.96856
5.1376
5.10388
5.03354
4.92932
4.79402
4.63255
4.45518
4.28669
1.40001
1.40001
1.40001
1.40001
1.40001
1.40001
1.40001
1.40001
1.40001
1.40001
1.40001
1.40001
1.40001
1.39999
1.99798
4.78313
5.21235
5.12887
5.05537
4.95742
4.83882
4.70129
4.55634
4.41008
1.40001
1.40001
1.40001
1.40001
1.40001
1.40001
1.40001
1.40001
1.40001
1.40001
1.40001
1.40001
1.40001
1.4
1.46553
4.09933
5.16795
5.1302
5.06319
4.99284
4.89416
4.77865
4.65745
4.52764
1.40001
1.40001
1.40001
1.40001
1.40001
1.40001
1.40001
1.40001
1.40001
1.40001
1.40001
1.40001
1.40001
1.4
1.40023
3.13324
5.01709
5.15781
5.11209
5.05015
4.9581
4.85631
4.74924
4.63128
1.40001
1.40001
1.40001
1.40001
1.40001
1.40001
1.40001
1.40001
1.40001
1.40001
1.40001
1.40001
1.40001
1.40001
1.4
2.15127
4.90607
5.3351
5.20723
5.11479
5.02272
4.93089
4.83227
4.7214
1.40001
1.40001
1.40001
1.40001
1.40001
1.40001
1.40001
1.40001
1.40001
1.40001
1.40001
1.40001
1.40001
1.40001
1.4
1.50406
4.42244
5.34907
5.21944
5.15285
5.07966
4.99968
4.90844
4.80514
1.40001
1.40001
1.40001
1.40001
1.40001
1.40001
1.40001
1.40001
1.40001
1.40001
1.40001
1.40001
1.40001
1.40001
1.4
1.40101
3.67496
5.27283
5.23872
5.19746
5.13047
5.05537
4.96968
4.87472
1.40001
1.40001
1.40001
1.40001
1.40001
1.40001
1.40001
1.40001
1.40001
1.40001
1.40001
1.40001
1.40001
1.40001
1.40001
1.39999
2.94717
5.1529
5.31338
5.24575
5.17408
5.10007
5.0194
4.93365
1.40001
1.40001
1.40001
1.40001
1.40001
1.40001
1.40001
1.40001
1.40001
1.40001
1.40001
1.40001
1.40001
1.40001
1.40001
1.4
2.3114
4.96444
5.36935
5.26208
5.19672
5.12828
5.05547
4.97987
1.40001
1.40001
1.40001
1.40001
1.40001
1.40001
1.40001
1.40001
1.40001
1.40001
1.40001
1.40001
1.40001
1.40001
1.40001
1.4
1.78497
4.74448
5.45756
5.30781
5.24051
5.17016
5.09853
5.02633
1.40001
1.40001
1.40001
1.40001
1.40001
1.40001
1.40001
1.40001
1.40001
1.40001
1.40001
1.40001
1.40001
1.40001
1.40001
1.40001
1.45423
4.39675
5.45254
5.30201
5.23901
5.17568
5.11197
5.04683
1.40001
1.40001
1.40001
1.40001
1.40001
1.40001
1.40001
1.40001
1.40001
1.40001
1.40001
1.40001
1.40001
1.40001
1.40001
1.40001
1.40083
3.95096
5.39045
5.28076
5.23005
5.17515
5.1175
5.05684
1.40001
1.40001
1.40001
1.40001
1.40001
1.40001
1.40001
1.40001
1.40001
1.40001
1.40001
1.40001
1.40001
1.40001
1.40001
1.40001
1.40001
3.54433
5.30343
5.27905
5.22446
5.17409
5.11893
5.06069
1.40001
1.40001
1.40001
1.40001
1.40001
1.40001
1.40001
1.40001
1.40001
1.40001
1.40001
1.40001
1.40001
1.40001
1.40001
1.40001
1.40001
3.18921
5.21394
5.29566
5.22916
5.18159
5.12572
5.06681
1.40001
1.40001
1.40001
1.40001
1.40001
1.40001
1.40001
1.40001
1.40001
1.40001
1.40001
1.40001
1.40001
1.40001
1.40001
1.40001
1.40001
2.87261
5.15166
5.32395
5.24529
5.19898
5.14063
5.08081
1.40001
1.40001
1.40001
1.40001
1.40001
1.40001
1.40001
1.40001
1.40001
1.40001
1.40001
1.40001
1.40001
1.40001
1.40001
1.40001
1.40001
2.5706
5.09378
5.36977
5.27877
5.23023
5.16948
5.10811
1.40001
1.40001
1.40001
1.40001
1.40001
1.40001
1.40001
1.40001
1.40001
1.40001
1.40001
1.40001
1.40001
1.40001
1.40001
1.40001
1.40001
2.31059
5.00764
5.41267
5.30856
5.2548
5.19333
5.13263
1.40001
1.40001
1.40001
1.40001
1.40001
1.40001
1.40001
1.40001
1.40001
1.40001
1.40001
1.40001
1.40001
1.40001
1.40001
1.40001
1.40001
2.10584
4.90104
5.43985
5.32987
5.27562
5.21467
5.15423
1.40001
1.40001
1.40001
1.40001
1.40001
1.40001
1.40001
1.40001
1.40001
1.40001
1.40001
1.40001
1.40001
1.40001
1.40001
1.40001
1.40001
1.93783
4.80584
5.44997
5.33812
5.28616
5.22705
5.16808
1.40001
1.40001
1.40001
1.40001
1.40001
1.40001
1.40001
1.40001
1.40001
1.40001
1.40001
1.40001
1.40001
1.40001
1.40001
1.40001
1.40001
1.81252
4.71652
5.44812
5.33622
5.28543
5.2282
5.17128
1.40001
1.40001
1.40001
1.40001
1.40001
1.40001
1.40001
1.40001
1.40001
1.40001
1.40001
1.40001
1.40001
1.40001
1.40001
1.40001
1.40001
1.73634
4.6332
5.43911
5.3315
5.28187
5.2253
5.16909
1.40001
1.40001
1.40001
1.40001
1.40001
1.40001
1.40001
1.40001
1.40001
1.40001
1.40001
1.40001
1.40001
1.40001
1.40001
1.40001
1.40001
1.69022
4.57081
5.42787
5.32689
5.27866
5.22279
5.16713
1.40001
1.40001
1.40001
1.40001
1.40001
1.40001
1.40001
1.40001
1.40001
1.40001
1.40001
1.40001
1.40001
1.40001
1.40001
1.40001
1.40001
1.65954
4.53008
5.42131
5.32634
5.27885
5.22327
5.16769
1.40001
1.40001
1.40001
1.40001
1.40001
1.40001
1.40001
1.40001
1.40001
1.40001
1.40001
1.40001
1.40001
1.40001
1.40001
1.40001
1.40001
1.6458
4.50732
5.41368
5.32392
5.27858
5.22384
5.16873
1.48875
1.52018
1.72336
1.94255
2.06662
2.12753
2.14498
2.14647
2.14266
2.13804
2.13622
2.13692
2.14294
2.15711
2.18047
2.20944
2.23791
2.26331
2.28664
2.30977
2.33313
2.35582
2.37676
2.39653
2.41697
2.43915
2.46196
2.48366
2.50321
2.52062
2.53696
2.55278
2.56832
2.58327
2.59682
2.60786
2.61572
2.62046
2.62293
2.62414
2.62469
2.62489
2.62423
2.62243
2.61924
2.61529
2.61121
2.60693
2.60122
2.59241
2.57979
2.56425
2.54763
2.53117
2.51541
2.50007
2.48447
2.46853
2.45323
2.43998
2.42926
2.41992
2.40965
2.39665
2.38155
2.36529
2.34879
2.33229
2.31526
2.29753
2.28008
2.26394
2.25048
2.24079
2.23469
2.22939
2.22181
2.21299
2.20504
2.19785
2.19034
2.18375
2.17839
2.1749
2.17424
2.17643
2.18303
2.19427
2.20888
2.22461
2.24004
2.25642
2.27559
2.29613
2.31555
2.33331
2.23437
2.19528
2.07383
2.0499
2.09261
2.10841
2.11804
2.12424
2.12804
2.13193
2.14241
2.166
2.18661
2.20221
2.21992
2.24105
2.26624
2.29053
2.3095
2.32488
2.34186
2.36261
2.38576
2.40851
2.42899
2.44733
2.46554
2.48559
2.50764
2.52966
2.54943
2.56556
2.57826
2.58938
2.60082
2.61288
2.62412
2.63234
2.63656
2.6379
2.63847
2.63989
2.64236
2.64462
2.64479
2.64142
2.63462
2.62647
2.61874
2.61107
2.60085
2.58605
2.56819
2.55015
2.53397
2.52011
2.5076
2.49508
2.48176
2.46805
2.45493
2.44296
2.43089
2.4167
2.39987
2.38161
2.36324
2.3458
2.32964
2.3131
2.29566
2.27873
2.2635
2.2512
2.24251
2.23643
2.23029
2.22304
2.21556
2.20822
2.20159
2.1956
2.19015
2.18485
2.17999
2.17895
2.18314
2.1935
2.20964
2.22938
2.25099
2.26957
2.28477
2.29985
2.31255
2.3298
2.69817
2.6381
2.34817
2.17155
2.16061
2.14413
2.14544
2.16429
2.18607
2.19908
2.20421
2.22532
2.25053
2.26069
2.25961
2.26058
2.27303
2.29659
2.3223
2.34203
2.35762
2.37542
2.40012
2.43236
2.46684
2.49657
2.51987
2.53989
2.56094
2.58543
2.61185
2.63656
2.65595
2.6692
2.67844
2.68705
2.69683
2.70693
2.71475
2.71829
2.7181
2.71627
2.7151
2.71582
2.7178
2.71848
2.71477
2.70586
2.69442
2.68332
2.67332
2.66129
2.64426
2.62381
2.60292
2.58369
2.56736
2.5542
2.54286
2.53122
2.51799
2.50379
2.49017
2.47621
2.45861
2.43916
2.41877
2.39804
2.37938
2.36264
2.34637
2.33038
2.31531
2.3021
2.29103
2.28187
2.27423
2.26717
2.25855
2.24974
2.24208
2.23704
2.23443
2.23233
2.23048
2.22832
2.22781
2.23174
2.23987
2.25373
2.27641
2.30588
2.33153
2.34618
2.35424
2.36106
3.0078
3.0126
2.78035
2.54031
2.50138
2.42961
2.34342
2.30915
2.31361
2.32392
2.31011
2.28666
2.30148
2.32433
2.33668
2.3385
2.34308
2.36169
2.39659
2.43584
2.46541
2.48657
2.50714
2.53284
2.5655
2.60129
2.63383
2.6595
2.67928
2.69741
2.71761
2.74063
2.76354
2.78245
2.79508
2.80315
2.80988
2.81746
2.82587
2.83307
2.83661
2.83595
2.83295
2.82951
2.82671
2.82459
2.8207
2.81119
2.79667
2.7817
2.76883
2.75654
2.74031
2.72165
2.70044
2.67804
2.65809
2.64104
2.62572
2.61129
2.59667
2.58106
2.56449
2.54775
2.52995
2.51084
2.49025
2.46859
2.44787
2.4291
2.41178
2.39548
2.38062
2.3681
2.35701
2.34712
2.33866
2.33068
2.3226
2.31399
2.30371
2.29383
2.28979
2.28956
2.29072
2.29281
2.29755
2.30346
2.31001
2.31926
2.33417
2.35718
2.38527
2.40715
2.41918
2.43009
3.33366
3.31627
3.14935
2.9239
2.82826
2.73519
2.60401
2.51626
2.50278
2.51132
2.50376
2.46818
2.46148
2.48755
2.51709
2.52749
2.53576
2.54937
2.575
2.61255
2.64852
2.67428
2.69621
2.71811
2.74352
2.77419
2.80678
2.83613
2.85916
2.87731
2.89452
2.91353
2.93357
2.9529
2.96822
2.97751
2.98297
2.98697
2.99035
2.99297
2.99526
2.99622
2.99432
2.98891
2.98215
2.97541
2.96708
2.95448
2.93947
2.92349
2.90641
2.88774
2.8672
2.84572
2.82492
2.80481
2.78584
2.76753
2.74868
2.72934
2.71034
2.69215
2.67436
2.65645
2.63735
2.61559
2.5907
2.56559
2.54255
2.5225
2.50519
2.48847
2.47179
2.45583
2.44197
2.43078
2.42172
2.41415
2.40749
2.40088
2.39264
2.38187
2.37223
2.36816
2.36707
2.36905
2.37503
2.38318
2.39261
2.403
2.41521
2.43025
2.44918
2.47154
2.48901
2.50436
3.59945
3.55801
3.40556
3.19656
3.08439
3.01513
2.91443
2.80553
2.749
2.74626
2.74063
2.70501
2.67282
2.68475
2.71258
2.72227
2.719
2.72051
2.73711
2.77063
2.80812
2.82987
2.84392
2.85971
2.88074
2.90947
2.94178
2.96774
2.9857
2.99828
3.00902
3.02157
3.03859
3.05798
3.0716
3.07519
3.07417
3.07128
3.06885
3.06979
3.07535
3.07839
3.07189
3.05946
3.04699
3.03762
3.03115
3.02365
3.01011
2.99045
2.96801
2.9467
2.92836
2.91343
2.89794
2.87924
2.85785
2.8358
2.81436
2.79481
2.77779
2.7621
2.74636
2.72945
2.71044
2.68857
2.66461
2.64091
2.61958
2.60098
2.58346
2.56673
2.55108
2.53553
2.5204
2.50718
2.49696
2.48985
2.48492
2.48121
2.47633
2.46763
2.45606
2.44902
2.44726
2.45037
2.45806
2.46979
2.483
2.49184
2.49885
2.50707
2.51849
2.53579
2.55791
2.57907
3.81662
3.74339
3.58755
3.39248
3.27248
3.22919
3.17949
3.09286
3.00613
2.97568
2.96498
2.92129
2.86815
2.8578
2.87274
2.87557
2.86106
2.84865
2.85672
2.88285
2.91027
2.91904
2.92034
2.92895
2.94542
2.96981
2.99624
3.01215
3.02134
3.02936
3.03763
3.04923
3.06841
3.08718
3.09239
3.09263
3.09184
3.09178
3.09455
3.10182
3.1051
3.09954
3.08911
3.0773
3.06848
3.06279
3.0548
3.04221
3.02535
3.0046
2.98533
2.96847
2.95292
2.93762
2.9199
2.89958
2.87886
2.85945
2.84142
2.8242
2.80773
2.79154
2.77459
2.75632
2.73605
2.71481
2.69413
2.6748
2.65692
2.63997
2.62386
2.60865
2.59477
2.58157
2.56946
2.55873
2.54952
2.54297
2.53861
2.53534
2.53209
2.52628
2.51792
2.51189
2.51235
2.51667
2.52439
2.53551
2.54754
2.55588
2.56022
2.5654
2.57345
2.58638
2.60383
2.62661
3.9863
3.88667
3.73062
3.54634
3.42367
3.38935
3.36114
3.29222
3.21251
3.184
3.1749
3.1341
3.07185
3.03027
3.02149
3.01256
2.98817
2.96548
2.96501
2.97899
2.99371
2.99508
2.98916
2.99119
3.00214
3.02158
3.04193
3.05075
3.05682
3.06349
3.07248
3.08574
3.1067
3.11997
3.12138
3.12082
3.12241
3.1272
3.13697
3.14457
3.14037
3.1294
3.11663
3.10833
3.10533
3.10138
3.08798
3.06928
3.04668
3.02789
3.01606
3.00419
2.9877
2.96752
2.9436
2.92068
2.9036
2.8903
2.87609
2.85958
2.84106
2.82009
2.79824
2.77651
2.75592
2.73729
2.71982
2.70238
2.68384
2.66457
2.64735
2.63368
2.6229
2.61375
2.60517
2.59648
2.5873
2.57852
2.57132
2.56663
2.56611
2.56765
2.56731
2.56605
2.56542
2.56653
2.56915
2.57408
2.58271
2.59462
2.60365
2.60913
2.61326
2.61848
2.62529
2.64184
4.13845
4.02296
3.86835
3.69347
3.56755
3.53042
3.50105
3.43075
3.35502
3.32723
3.31897
3.28202
3.22003
3.16883
3.1491
3.13682
3.10971
3.07585
3.05934
3.06043
3.06571
3.06152
3.05333
3.05215
3.0566
3.06989
3.086
3.09204
3.09599
3.10071
3.10792
3.11959
3.13573
3.14276
3.14339
3.14371
3.147
3.15411
3.16402
3.16513
3.15829
3.14758
3.1396
3.13627
3.13613
3.12736
3.11089
3.08802
3.06861
3.05676
3.04882
3.03684
3.01865
2.99368
2.96856
2.95073
2.93776
2.92614
2.91157
2.89415
2.87229
2.84732
2.82307
2.80159
2.78486
2.77002
2.75445
2.73713
2.71599
2.6935
2.67571
2.6638
2.65495
2.64805
2.64179
2.63488
2.62488
2.61155
2.60259
2.59956
2.60144
2.60915
2.61568
2.61628
2.61176
2.60613
2.60426
2.60601
2.61258
2.62644
2.63833
2.64112
2.64049
2.63688
2.638
2.64993
4.27328
4.1557
4.00983
3.84559
3.72233
3.67832
3.63647
3.55621
3.47701
3.44326
3.42517
3.38287
3.31721
3.2655
3.24381
3.22982
3.2012
3.15839
3.1244
3.11485
3.11446
3.1064
3.09367
3.08484
3.08372
3.09032
3.10153
3.10594
3.10826
3.11041
3.11505
3.12493
3.13871
3.14356
3.14278
3.14197
3.14559
3.15379
3.1617
3.15962
3.15028
3.14091
3.13581
3.13617
3.13556
3.12442
3.10556
3.08433
3.07097
3.06355
3.05509
3.04034
3.01953
2.99474
2.97765
2.96517
2.95307
2.93838
2.92155
2.90112
2.87755
2.8555
2.83588
2.81899
2.80399
2.78934
2.77412
2.75611
2.73515
2.71665
2.70239
2.69082
2.68244
2.67575
2.67041
2.66443
2.6551
2.64297
2.63714
2.63628
2.63968
2.64609
2.65038
2.65074
2.64551
2.63925
2.6369
2.63704
2.64052
2.65033
2.65656
2.65592
2.65213
2.64728
2.64722
2.65537
4.39899
4.28404
4.14891
3.99404
3.87747
3.82943
3.77592
3.68593
3.60282
3.56177
3.5295
3.47562
3.40199
3.34934
3.32663
3.30699
3.27258
3.22238
3.1779
3.16076
3.15419
3.14158
3.12191
3.10382
3.09775
3.09868
3.10338
3.10461
3.10494
3.10453
3.10618
3.11264
3.12391
3.13009
3.1296
3.1274
3.13026
3.13801
3.14375
3.14079
3.13008
3.12029
3.11762
3.12077
3.11787
3.10548
3.08566
3.06769
3.05902
3.05353
3.04295
3.02624
3.00419
2.98356
2.9713
2.96156
2.94863
2.93228
2.91329
2.8916
2.86963
2.85125
2.8364
2.82227
2.80686
2.78973
2.77138
2.75402
2.74031
2.72929
2.71816
2.70467
2.69231
2.68495
2.68047
2.67821
2.67426
2.66917
2.66641
2.6654
2.66517
2.66458
2.66379
2.66494
2.66581
2.66331
2.66112
2.65964
2.65875
2.66003
2.66166
2.65922
2.65516
2.65397
2.6539
2.65821
4.51305
4.40701
4.28399
4.14108
4.03301
3.98049
3.91604
3.81783
3.7336
3.68724
3.64333
3.57804
3.49529
3.44164
3.41654
3.39027
3.34767
3.28668
3.23495
3.21323
3.19971
3.1809
3.15489
3.12643
3.11356
3.10884
3.10707
3.10406
3.10128
3.0984
3.09734
3.09875
3.10503
3.1105
3.10998
3.10649
3.10708
3.11275
3.11855
3.11695
3.10698
3.09724
3.09623
3.09863
3.09331
3.08052
3.06157
3.04888
3.04327
3.03746
3.02451
3.00618
2.98413
2.96937
2.96065
2.95196
2.93815
2.92009
2.89785
2.87478
2.85818
2.84571
2.83397
2.82074
2.80403
2.78342
2.76261
2.74955
2.74168
2.73526
2.72774
2.71768
2.70352
2.6923
2.68698
2.68547
2.68695
2.68835
2.6881
2.6861
2.68095
2.67279
2.66865
2.67206
2.67916
2.68134
2.67914
2.67543
2.6695
2.66312
2.65931
2.6586
2.66076
2.66132
2.66055
2.65921
4.61314
4.51633
4.40109
4.26917
4.17323
4.12066
4.04971
3.94849
3.86658
3.81702
3.76417
3.68838
3.59941
3.54755
3.51947
3.48406
3.43159
3.35914
3.30309
3.27771
3.2586
3.23268
3.19842
3.15932
3.1397
3.13024
3.12344
3.1156
3.10821
3.10018
3.09624
3.0945
3.09801
3.10279
3.10216
3.09741
3.0951
3.09812
3.10355
3.10281
3.09368
3.08284
3.08137
3.08258
3.07651
3.062
3.04423
3.03633
3.03281
3.02456
3.00894
2.98703
2.9681
2.9588
2.9533
2.9443
2.92995
2.90934
2.88205
2.86143
2.85044
2.84184
2.83216
2.81997
2.80301
2.77787
2.75657
2.7471
2.74155
2.73877
2.73379
2.72707
2.7161
2.70396
2.69887
2.69758
2.70087
2.70722
2.70975
2.707
2.69855
2.6887
2.68465
2.68562
2.69301
2.69831
2.69569
2.68962
2.68045
2.67084
2.66544
2.66392
2.66771
2.67025
2.66801
2.66223
4.70565
4.6146
4.50355
4.38166
4.29664
4.2424
4.164
4.06221
3.98603
3.93698
3.87958
3.79738
3.70753
3.65758
3.62574
3.58248
3.52035
3.44026
3.38642
3.35736
3.33035
3.2964
3.25144
3.20358
3.18035
3.1675
3.15533
3.14327
3.12957
3.11321
3.10572
3.10224
3.10472
3.10717
3.10413
3.09608
3.08951
3.08964
3.09386
3.09332
3.0853
3.07407
3.07086
3.07075
3.06409
3.04912
3.03424
3.02907
3.02538
3.01526
2.99847
2.9752
2.96084
2.95393
2.94853
2.9386
2.92466
2.90164
2.87194
2.85482
2.84606
2.84008
2.83192
2.82193
2.80399
2.77578
2.75903
2.75221
2.7479
2.74551
2.74359
2.73992
2.73254
2.72351
2.72048
2.72091
2.72496
2.73013
2.73242
2.72944
2.72178
2.71551
2.71323
2.71225
2.71442
2.71775
2.7146
2.70633
2.69472
2.6848
2.68064
2.67893
2.6816
2.68153
2.67734
2.6667
4.78444
4.69899
4.59369
4.4842
4.40764
4.34933
4.26338
4.16213
4.09166
4.04389
3.98244
3.89506
3.80679
3.7583
3.72261
3.67316
3.60399
3.52339
3.47317
3.43876
3.40373
3.36135
3.30554
3.25266
3.22704
3.20946
3.19156
3.17307
3.15079
3.1265
3.116
3.11212
3.11283
3.11057
3.10357
3.09008
3.08019
3.07777
3.08038
3.08007
3.07252
3.06047
3.05682
3.05898
3.05503
3.04249
3.02927
3.02464
3.02033
3.01102
2.99622
2.97482
2.96287
2.95669
2.94598
2.93369
2.91908
2.89644
2.87507
2.86173
2.84923
2.84069
2.83202
2.8194
2.80093
2.78377
2.7745
2.76899
2.76507
2.76282
2.76188
2.76082
2.7574
2.75442
2.75469
2.75645
2.75753
2.75574
2.75271
2.75239
2.75243
2.7512
2.74944
2.74554
2.74191
2.738
2.7329
2.72561
2.71654
2.70925
2.70494
2.70142
2.69885
2.69447
2.68695
2.67185
4.85182
4.77062
4.67098
4.57092
4.49853
4.4374
4.34708
4.25159
4.18714
4.1379
4.0678
3.974
3.88879
3.84086
3.80206
3.74798
3.6752
3.59775
3.54777
3.50738
3.46454
3.41454
3.35207
3.29827
3.26963
3.2456
3.22182
3.19709
3.16545
3.13335
3.11835
3.10851
3.10251
3.09634
3.08538
3.06764
3.05578
3.0519
3.05256
3.05038
3.04172
3.02999
3.02613
3.02868
3.02625
3.01497
3.00096
2.99635
2.99437
2.98835
2.97862
2.96424
2.95108
2.9409
2.92995
2.91812
2.905
2.89207
2.88007
2.86717
2.85224
2.8368
2.82366
2.81119
2.80405
2.79945
2.79316
2.7867
2.78144
2.77874
2.77743
2.77866
2.78157
2.78508
2.78713
2.78695
2.78374
2.77695
2.77302
2.77515
2.78125
2.78223
2.77857
2.77118
2.75849
2.74909
2.74509
2.74283
2.73842
2.73283
2.72683
2.71776
2.70476
2.69365
2.68528
2.67255
4.90629
4.82848
4.73609
4.64645
4.57808
4.51246
4.4197
4.32757
4.26376
4.21181
4.13773
4.04106
3.95994
3.91175
3.87012
3.81299
3.73588
3.6586
3.6062
3.56033
3.51225
3.45778
3.39152
3.33455
3.30153
3.27276
3.24374
3.20935
3.16544
3.12684
3.10704
3.09363
3.08286
3.0715
3.05651
3.03482
3.0214
3.01638
3.01561
3.01132
2.99996
2.98618
2.98135
2.98402
2.9839
2.97538
2.9612
2.95573
2.95642
2.95188
2.9438
2.93498
2.92316
2.91053
2.89978
2.88922
2.87841
2.86886
2.86053
2.85059
2.83722
2.82063
2.8055
2.79768
2.79345
2.79178
2.79169
2.7889
2.78536
2.78157
2.78024
2.78281
2.78895
2.79684
2.80168
2.80107
2.79586
2.78664
2.7831
2.78417
2.78967
2.79092
2.786
2.77763
2.76413
2.75321
2.74839
2.74666
2.74534
2.73973
2.73279
2.72321
2.70792
2.69001
2.68094
2.66926
4.95452
4.87625
4.789
4.70738
4.64206
4.5701
4.47689
4.39169
4.33023
4.27551
4.19531
4.09874
4.02682
3.97823
3.92494
3.85699
3.77399
3.70447
3.65261
3.60273
3.54946
3.48579
3.41495
3.36081
3.32112
3.28494
3.24833
3.20916
3.16494
3.12477
3.09725
3.07933
3.06317
3.04602
3.02476
2.99872
2.9839
2.97777
2.97538
2.968
2.95351
2.93823
2.93345
2.93609
2.93756
2.93146
2.91789
2.91033
2.91121
2.90743
2.90337
2.89882
2.88818
2.87429
2.86351
2.85454
2.84664
2.83966
2.83224
2.82345
2.81293
2.79961
2.78661
2.78102
2.77894
2.77941
2.78337
2.78695
2.78641
2.7837
2.78219
2.78384
2.78938
2.79983
2.80702
2.80681
2.80035
2.79029
2.78543
2.78449
2.78824
2.79173
2.78702
2.777
2.76162
2.75038
2.74578
2.74408
2.74533
2.74099
2.73352
2.72231
2.70327
2.68347
2.67358
2.6606
4.97943
4.90478
4.82506
4.75187
4.68775
4.61105
4.52121
4.44281
4.38485
4.32542
4.24017
4.14522
4.07695
4.02755
3.96917
3.89355
3.8073
3.74593
3.69374
3.63873
3.57997
3.5133
3.43969
3.38052
3.33528
3.29397
3.25286
3.20896
3.15995
3.11609
3.08674
3.0649
3.04501
3.02382
2.99692
2.96858
2.95437
2.94744
2.94223
2.93202
2.9152
2.89813
2.893
2.89513
2.89744
2.89323
2.88157
2.87101
2.86899
2.86708
2.86682
2.86341
2.85276
2.84092
2.83327
2.82708
2.8197
2.8108
2.80189
2.79387
2.7873
2.78058
2.77366
2.76912
2.7677
2.76767
2.77025
2.77656
2.78073
2.7814
2.78287
2.7847
2.78778
2.79201
2.79796
2.80019
2.79559
2.78862
2.7827
2.77793
2.77512
2.77501
2.77264
2.76452
2.75386
2.7465
2.74161
2.73756
2.73494
2.72993
2.72181
2.70918
2.69209
2.67756
2.66855
2.65349
4.99234
4.92174
4.84916
4.78258
4.71724
4.6381
4.55361
4.48194
4.42675
4.36026
4.27042
4.1817
4.11837
4.06755
4.0036
3.92226
3.83815
3.77993
3.72756
3.66862
3.60219
3.52695
3.45724
3.40313
3.35527
3.30911
3.26126
3.20859
3.15433
3.11174
3.08031
3.05405
3.03052
3.00583
2.97464
2.94544
2.9308
2.92139
2.91251
2.90051
2.88275
2.8637
2.85709
2.85797
2.86005
2.8568
2.84744
2.83638
2.83241
2.83256
2.83392
2.829
2.81852
2.81128
2.80826
2.80588
2.79871
2.7864
2.77394
2.76871
2.76633
2.76746
2.76942
2.76774
2.76479
2.76313
2.76374
2.76808
2.7755
2.78235
2.7871
2.78948
2.78985
2.78761
2.78708
2.79024
2.7911
2.78802
2.78322
2.77622
2.76784
2.76117
2.75699
2.75425
2.75056
2.746
2.74091
2.73453
2.72698
2.7187
2.70803
2.69519
2.68392
2.6752
2.66779
2.65069
4.99797
4.93071
4.8634
4.7996
4.73152
4.65297
4.57485
4.50934
4.4536
4.37948
4.28842
4.20807
4.14935
4.09651
4.02704
3.94183
3.86336
3.80769
3.75303
3.69092
3.62012
3.54215
3.47523
3.42245
3.37388
3.32455
3.27182
3.21304
3.15569
3.11313
3.08065
3.05184
3.02481
2.99543
2.9589
2.92751
2.91101
2.89884
2.88748
2.87414
2.85529
2.83438
2.8253
2.82352
2.82341
2.81958
2.81137
2.80271
2.80018
2.8025
2.80204
2.79393
2.78508
2.7825
2.78403
2.7852
2.7794
2.76728
2.75425
2.75059
2.75103
2.75927
2.76849
2.7698
2.76967
2.7666
2.76605
2.7697
2.77839
2.7901
2.79645
2.79852
2.79671
2.79088
2.78756
2.78825
2.79294
2.79256
2.78806
2.78053
2.76981
2.76025
2.75438
2.75166
2.75092
2.74717
2.74161
2.73452
2.72357
2.71058
2.69896
2.68915
2.68159
2.67448
2.66719
2.64848
5.00369
4.93814
4.87356
4.80938
4.7393
4.66366
4.5916
4.53027
4.46935
4.38905
4.3017
4.22932
4.17444
4.11683
4.04111
3.95311
3.8821
3.82836
3.77265
3.70857
3.63421
3.55682
3.49505
3.44225
3.3907
3.33733
3.27982
3.21767
3.16168
3.11994
3.08555
3.05367
3.02197
2.98649
2.94441
2.91179
2.89292
2.87874
2.86565
2.84984
2.82752
2.80413
2.79321
2.78882
2.78577
2.77958
2.77086
2.76563
2.76636
2.77088
2.76826
2.75733
2.74831
2.74811
2.75328
2.76017
2.75864
2.75043
2.73925
2.73708
2.74001
2.7517
2.76587
2.77123
2.77364
2.77308
2.77367
2.77845
2.78778
2.80128
2.80921
2.81063
2.80724
2.80022
2.79612
2.79507
2.79814
2.79964
2.7953
2.78718
2.77575
2.76703
2.76165
2.75754
2.75535
2.75112
2.74451
2.73447
2.72014
2.70576
2.69579
2.68844
2.68173
2.67407
2.66553
2.64561
5.01762
4.95318
4.88886
4.82236
4.75117
4.6783
4.61001
4.54808
4.4792
4.39693
4.31654
4.25028
4.19692
4.13092
4.04852
3.96389
3.89969
3.84694
3.78973
3.72346
3.64598
3.57175
3.51313
3.45925
3.40525
3.34902
3.28779
3.22418
3.17057
3.12808
3.09087
3.05478
3.01692
2.97476
2.92993
2.8976
2.87653
2.85875
2.8414
2.82145
2.79404
2.77034
2.75985
2.75474
2.74863
2.73846
2.72731
2.72397
2.72719
2.73403
2.7328
2.72328
2.71135
2.71036
2.71683
2.72937
2.73422
2.73299
2.72615
2.72503
2.72958
2.74096
2.7573
2.76857
2.77362
2.77668
2.78109
2.78746
2.79606
2.80816
2.81721
2.81844
2.81416
2.80794
2.80547
2.80377
2.80372
2.80418
2.80031
2.79311
2.78426
2.77823
2.77318
2.76797
2.76202
2.75475
2.74457
2.73072
2.71642
2.70574
2.69723
2.68899
2.67988
2.66886
2.65724
2.63914
5.0441
4.97923
4.91284
4.84373
4.77225
4.70139
4.63443
4.56838
4.49402
4.41434
4.33978
4.27672
4.21984
4.14591
4.06033
3.98299
3.92181
3.86824
3.80698
3.73539
3.65548
3.58899
3.53211
3.47696
3.42079
3.361
3.29587
3.23256
3.18045
3.13624
3.0953
3.05502
3.01172
2.96501
2.92153
2.88799
2.86268
2.84007
2.81765
2.79176
2.76054
2.74046
2.73077
2.72496
2.7155
2.70054
2.6852
2.68137
2.68549
2.69491
2.69635
2.69133
2.68095
2.67824
2.68473
2.69861
2.71069
2.71427
2.71314
2.7141
2.7201
2.7295
2.74431
2.76089
2.77027
2.77724
2.78475
2.79221
2.79997
2.80895
2.81448
2.81409
2.81148
2.81152
2.81173
2.81037
2.80793
2.80482
2.80038
2.79499
2.79028
2.78532
2.77954
2.773
2.76409
2.7518
2.73673
2.72258
2.71261
2.70445
2.69568
2.68515
2.67215
2.65759
2.64662
2.63273
5.06988
5.00559
4.93856
4.86907
4.79867
4.72952
4.66182
4.59111
4.51415
4.43516
4.36312
4.30512
4.24176
4.16205
4.07659
4.00605
3.94949
3.89272
3.82466
3.74564
3.6716
3.61104
3.55349
3.496
3.43654
3.37259
3.30574
3.24468
3.19283
3.14627
3.10143
3.05624
3.00904
2.96078
2.91798
2.88462
2.85629
2.82891
2.80076
2.76822
2.73775
2.72213
2.71246
2.70349
2.69094
2.67349
2.65549
2.65029
2.65384
2.66522
2.67237
2.67261
2.66655
2.66203
2.66677
2.67789
2.69383
2.70232
2.70521
2.7089
2.71666
2.72594
2.73835
2.75316
2.76499
2.77551
2.78481
2.79327
2.80097
2.80595
2.80731
2.80742
2.80858
2.81151
2.81364
2.81163
2.80774
2.80247
2.79784
2.7943
2.79163
2.78737
2.78116
2.77274
2.75978
2.74292
2.7294
2.72016
2.71198
2.70343
2.69331
2.68017
2.6656
2.65302
2.64424
2.63073
5.09176
5.02753
4.96127
4.8934
4.82505
4.7569
4.68737
4.61388
4.53771
4.46457
4.40054
4.33816
4.25912
4.1713
4.09678
4.03663
3.98142
3.91543
3.84026
3.76062
3.69379
3.63453
3.57503
3.51461
3.45136
3.38412
3.31792
3.25966
3.20784
3.1587
3.10989
3.05961
3.00797
2.95875
2.91791
2.88475
2.85463
2.82465
2.79155
2.75297
2.72429
2.71007
2.69983
2.68959
2.67719
2.66033
2.64126
2.63362
2.63478
2.64462
2.65617
2.66077
2.66026
2.65624
2.65963
2.67024
2.6847
2.69709
2.70542
2.71258
2.7203
2.72891
2.73999
2.75374
2.76838
2.78035
2.78863
2.79462
2.79985
2.80356
2.80567
2.80687
2.80823
2.81061
2.81319
2.81138
2.80725
2.80203
2.7978
2.79446
2.79117
2.78629
2.77942
2.76947
2.75558
2.74162
2.73113
2.7227
2.71445
2.70524
2.69403
2.68021
2.6665
2.65516
2.64701
2.63322
5.1069
5.04386
4.97909
4.91293
4.84585
4.77775
4.70748
4.63473
4.56148
4.49168
4.42683
4.3556
4.27323
4.19448
4.12602
4.0676
4.00445
3.93167
3.85153
3.77677
3.7156
3.65686
3.59551
3.53235
3.46458
3.39401
3.33043
3.27543
3.22392
3.17293
3.12045
3.06484
3.00799
2.95769
2.91842
2.88577
2.8556
2.82554
2.78886
2.7448
2.71469
2.69899
2.68835
2.67843
2.66721
2.65208
2.63248
2.62321
2.62348
2.63108
2.63871
2.64517
2.65098
2.65418
2.65692
2.66594
2.67936
2.69394
2.70656
2.71848
2.73042
2.7431
2.75499
2.76635
2.77871
2.78856
2.79516
2.80128
2.80683
2.80961
2.81068
2.81162
2.81221
2.8133
2.81586
2.81468
2.81053
2.80477
2.7999
2.79602
2.79173
2.78615
2.77858
2.7689
2.7573
2.74531
2.73578
2.72748
2.71904
2.70933
2.69699
2.68332
2.6714
2.66153
2.65348
2.63886
5.11205
5.05102
4.98812
4.9237
4.85782
4.79021
4.72053
4.64942
4.57852
4.51015
4.44193
4.36584
4.28669
4.21391
4.14953
4.08844
4.01863
3.94062
3.86053
3.79295
3.73421
3.67573
3.61426
3.54771
3.47446
3.40336
3.34278
3.2885
3.23622
3.18421
3.13048
3.07146
3.01134
2.96116
2.92125
2.8861
2.85343
2.82124
2.78411
2.74456
2.71297
2.69061
2.67474
2.66182
2.65006
2.63923
2.62686
2.6164
2.61349
2.61614
2.61856
2.62429
2.63472
2.64383
2.65303
2.66563
2.68002
2.69434
2.7088
2.72399
2.74069
2.75701
2.77141
2.78584
2.79695
2.80398
2.8092
2.81364
2.81753
2.82044
2.8207
2.82024
2.81956
2.81938
2.82112
2.82053
2.81616
2.81051
2.80481
2.79944
2.79364
2.78756
2.78033
2.77127
2.76104
2.75158
2.74322
2.73466
2.7245
2.71286
2.70048
2.68909
2.68004
2.67109
2.66341
2.64828
5.11075
5.05084
4.98928
4.92606
4.86111
4.7943
4.7258
4.65645
4.58742
4.51905
4.44755
4.37165
4.2969
4.22686
4.16399
4.09926
4.02395
3.94353
3.86965
3.80728
3.74903
3.68777
3.62329
3.55334
3.4798
3.41286
3.35496
3.30131
3.24922
3.1954
3.13632
3.0739
3.01511
2.96594
2.92533
2.88954
2.85573
2.81912
2.77911
2.7411
2.71022
2.68608
2.66586
2.65003
2.63601
2.62101
2.60937
2.60354
2.60067
2.5989
2.59716
2.60088
2.61081
2.62563
2.64246
2.65921
2.67521
2.69086
2.70709
2.72421
2.74337
2.76405
2.78444
2.80003
2.80888