/*--------------------------------*- C++ -*----------------------------------*\
  =========                 |
  \\      /  F ield         | OpenFOAM: The Open Source CFD Toolbox
   \\    /   O peration     | Website:  https://openfoam.org
    \\  /    A nd           | Version:  7
     \\/     M anipulation  |
\*---------------------------------------------------------------------------*/
FoamFile
{
    version     2.0;
    format      ascii;
    class       volScalarField;
    location    "18.5";
    object      T;
}
// * * * * * * * * * * * * * * * * * * * * * * * * * * * * * * * * * * * * * //

dimensions      [0 0 0 1 0 0 0];

internalField   nonuniform List<scalar> 
4032
(
1
1
1
1
1
1
1
1
1
1
1
1.74972
2.63941
2.71961
2.73124
2.74507
2.75665
2.7675
2.77794
2.78815
2.79779
2.80588
2.81202
2.81613
1
1
1
1
1
1
1
1
1
1
1
1.72764
2.63052
2.71836
2.73001
2.74357
2.75487
2.76537
2.77542
2.78516
2.79435
2.80204
2.80787
2.81189
1
1
1
1
1
1
1
1
1
1
1
1.66632
2.61021
2.71335
2.72559
2.73959
2.751
2.76149
2.77133
2.78061
2.78922
2.79644
2.80189
2.80597
1
1
1
1
1
1
1
1
1
1
1
1.56313
2.57024
2.70267
2.71707
2.73266
2.74461
2.75531
2.76515
2.77424
2.78237
2.78881
2.79298
2.79575
1
1
1
1
1
1
1
1
1
1
1
1.42594
2.51325
2.69143
2.70616
2.72345
2.73577
2.74657
2.75605
2.76433
2.77096
2.77588
2.77828
2.78135
1
1
1
1
1
1
1
1
1
1
1
1.24959
2.43099
2.68004
2.6927
2.71178
2.72397
2.73453
2.7437
2.75187
2.75824
2.7622
2.76016
2.75288
1
1
1
1
1
1
1
1
1
1
1
1.04679
2.33641
2.68122
2.68375
2.69692
2.70737
2.71776
2.72681
2.734
2.73699
2.73463
2.72507
2.71458
1
1
1
1
1
1
1
1
1
1
1
1.00086
2.2163
2.66335
2.66819
2.67893
2.68876
2.69736
2.70499
2.70957
2.70881
2.7056
2.70149
2.71491
1
1
1
1
1
1
1
1
1
1
1
1
2.03739
2.63664
2.66148
2.669
2.67437
2.67858
2.68183
2.68122
2.67475
2.65852
2.61583
2.53081
1
1
1
1
1
1
1
1
1
1
1
1
1.78979
2.56419
2.64281
2.65652
2.66163
2.66324
2.66049
2.65405
2.63902
2.60601
2.55394
2.41403
1
1
1
1
1
1
1
1
1
1
1
1
1.43086
2.4258
2.61779
2.63804
2.64644
2.64533
2.6394
2.62722
2.60623
2.56445
2.50218
2.33123
1
1
1
1
1
1
1
1
1
1
1
1
1.05531
2.28174
2.60492
2.61018
2.61993
2.62151
2.6167
2.60297
2.57822
2.53463
2.463
2.32252
1
1
1
1
1
1
1
1
1
1
1
1
1.00067
2.10073
2.55904
2.57902
2.58977
2.59332
2.59049
2.57872
2.55421
2.51268
2.4414
2.33179
1
1
1
1
1
1
1
1
1
1
1
1
0.999994
1.7512
2.48215
2.55555
2.56838
2.56925
2.56568
2.55457
2.53209
2.49427
2.43073
2.34979
1
1
1
1
1
1
1
1
1
1
1
1
0.999998
1.26278
2.34591
2.54946
2.54466
2.54431
2.53941
2.52955
2.50889
2.47582
2.42652
2.37253
1
1
1
1
1
1
1
1
1
1
1
1
1
1.01759
2.19769
2.52656
2.52541
2.52208
2.51642
2.50563
2.48679
2.46068
2.42653
2.39072
1
1
1
1
1
1
1
1
1
1
1
1
1
1.00002
1.86862
2.47851
2.51464
2.51039
2.50295
2.49138
2.47506
2.45361
2.42791
2.40183
1
1
1
1
1
1
1
1
1
1
1
1
1
0.999998
1.3567
2.36051
2.51826
2.50564
2.49639
2.48322
2.46709
2.44822
2.42815
2.40672
1
1
1
1
1
1
1
1
1
1
1
1
1
0.999999
1.03199
2.21647
2.5144
2.50635
2.49373
2.48346
2.46849
2.4507
2.43194
2.41215
1
1
1
1
1
1
1
1
1
1
1
1
1
1
1.00014
1.92509
2.48586
2.50871
2.4995
2.48845
2.47294
2.45614
2.43844
2.41892
1
1
1
1
1
1
1
1
1
1
1
1
1
1
0.999999
1.44881
2.39855
2.53308
2.51106
2.49578
2.47995
2.46402
2.44676
2.42711
1
1
1
1
1
1
1
1
1
1
1
1
1
1
1
1.0516
2.28865
2.54432
2.51915
2.50518
2.49032
2.47476
2.45743
2.43795
1
1
1
1
1
1
1
1
1
1
1
1
1
1
1
1.00049
2.12682
2.55623
2.54101
2.52534
2.50706
2.48926
2.47062
2.45098
1
1
1
1
1
1
1
1
1
1
1
1
1
1
1
0.999997
1.88802
2.56145
2.56745
2.54938
2.52852
2.50807
2.48773
2.46766
1
1
1
1
1
1
1
1
1
1
1
1
1
1
1
0.999999
1.59283
2.50983
2.58517
2.5616
2.54367
2.52486
2.50554
2.48631
1
1
1
1
1
1
1
1
1
1
1
1
1
1
1
1
1.26777
2.41639
2.60924
2.57967
2.56326
2.54532
2.52675
2.50808
1
1
1
1
1
1
1
1
1
1
1
1
1
1
1
1
1.03916
2.34394
2.63031
2.59806
2.58085
2.56353
2.54607
2.52848
1
1
1
1
1
1
1
1
1
1
1
1
1
1
1
1
1.00051
2.24299
2.64341
2.61766
2.60108
2.5842
2.56722
2.55007
1
1
1
1
1
1
1
1
1
1
1
1
1
1
1
1
1
2.13036
2.64781
2.63818
2.62137
2.60542
2.5888
2.57185
1
1
1
1
1
1
1
1
1
1
1
1
1
1
1
1
1
2.00566
2.63526
2.64808
2.63276
2.62006
2.60507
2.58928
1
1
1
1
1
1
1
1
1
1
1
1
1
1
1
1
1
1.87329
2.60389
2.65005
2.63414
2.62422
2.61163
2.5985
1
1
1
1
1
1
1
1
1
1
1
1
1
1
1
1
1
1.73805
2.56732
2.65017
2.63317
2.62453
2.61342
2.60181
1
1
1
1
1
1
1
1
1
1
1
1
1
1
1
1
1
1.61623
2.53765
2.65043
2.63112
2.62266
2.61201
2.60089
1
1
1
1
1
1
1
1
1
1
1
1
1
1
1
1
1
1.51418
2.51531
2.65382
2.63245
2.62278
2.61159
2.60033
1
1
1
1
1
1
1
1
1
1
1
1
1
1
1
1
1
1.41612
2.49218
2.65996
2.63731
2.6263
2.61424
2.6024
1
1
1
1
1
1
1
1
1
1
1
1
1
1
1
1
1
1.33514
2.46947
2.66622
2.64368
2.63251
2.62004
2.60767
1
1
1
1
1
1
1
1
1
1
1
1
1
1
1
1
1
1.2856
2.45244
2.67115
2.64957
2.63885
2.62655
2.61422
1
1
1
1
1
1
1
1
1
1
1
1
1
1
1
1
1
1.25301
2.43824
2.67361
2.65352
2.64344
2.63163
2.61967
1
1
1
1
1
1
1
1
1
1
1
1
1
1
1
1
1
1.2288
2.42621
2.67441
2.65558
2.64592
2.63447
2.62284
1
1
1
1
1
1
1
1
1
1
1
1
1
1
1
1
1
1.21905
2.42094
2.67369
2.65571
2.64651
2.63531
2.62389
1.8491
2.02447
2.2955
2.44267
2.50328
2.53382
2.54819
2.55586
2.55927
2.56105
2.56295
2.56608
2.57212
2.58084
2.59196
2.60442
2.61607
2.62564
2.63303
2.63947
2.64622
2.65239
2.65766
2.66252
2.66707
2.67117
2.67452
2.67669
2.67748
2.67714
2.67613
2.67473
2.67301
2.67073
2.66766
2.66353
2.65813
2.65142
2.64378
2.63575
2.62772
2.61985
2.61182
2.60359
2.59515
2.58671
2.57855
2.57073
2.5628
2.55392
2.54365
2.53226
2.52053
2.50893
2.49761
2.48644
2.47519
2.46394
2.45312
2.44331
2.43476
2.42707
2.41924
2.41053
2.40118
2.39161
2.38217
2.37278
2.36314
2.35322
2.34361
2.33487
2.32757
2.32207
2.31825
2.31488
2.31059
2.30584
2.30144
2.29733
2.29305
2.28914
2.28606
2.28372
2.28285
2.28366
2.28636
2.2911
2.29723
2.30358
2.30961
2.31597
2.32343
2.33191
2.34036
2.34922
2.11048
2.24046
2.3658
2.44361
2.49397
2.50771
2.52055
2.53281
2.54157
2.54865
2.55745
2.57033
2.58194
2.59175
2.60118
2.61026
2.62027
2.62936
2.63497
2.63772
2.64041
2.6446
2.65
2.65491
2.6579
2.65902
2.65928
2.65962
2.66036
2.66091
2.66054
2.65844
2.65452
2.64966
2.64476
2.64006
2.6351
2.62903
2.62146
2.61284
2.60414
2.59618
2.58911
2.58245
2.57534
2.56685
2.55754
2.5482
2.53946
2.53112
2.52204
2.51141
2.49978
2.48816
2.4773
2.46741
2.45815
2.44899
2.43965
2.43033
2.42142
2.41317
2.40507
2.39638
2.38691
2.37706
2.36724
2.35779
2.34887
2.3399
2.3308
2.32219
2.31454
2.30823
2.30343
2.29975
2.29615
2.29226
2.28841
2.28463
2.28111
2.2779
2.27517
2.27268
2.27058
2.27017
2.27184
2.27598
2.28249
2.29044
2.29904
2.30635
2.31254
2.31905
2.32463
2.33254
2.1408
2.20745
2.22418
2.29048
2.37771
2.43081
2.46642
2.49635
2.51976
2.5364
2.54663
2.56114
2.57567
2.58129
2.5803
2.57883
2.58094
2.58704
2.59352
2.59626
2.59566
2.59481
2.5961
2.60012
2.60439
2.60631
2.60549
2.60258
2.59975
2.5983
2.5977
2.59659
2.59323
2.58719
2.57963
2.57212
2.56543
2.55925
2.55256
2.54451
2.53526
2.5257
2.51723
2.51034
2.50441
2.49829
2.49046
2.48143
2.47204
2.46332
2.45562
2.44767
2.43827
2.42779
2.41721
2.40732
2.39864
2.39123
2.38462
2.37799
2.37081
2.36328
2.35605
2.34893
2.34067
2.33186
2.32266
2.31323
2.30466
2.29704
2.2898
2.28284
2.2763
2.27039
2.26515
2.2606
2.25683
2.25361
2.25009
2.24672
2.24389
2.24215
2.2415
2.24131
2.24136
2.24095
2.24074
2.24231
2.24559
2.25106
2.25985
2.27139
2.28195
2.28842
2.29203
2.2959
2.17513
2.22023
2.18791
2.20159
2.26474
2.32601
2.36304
2.39601
2.4284
2.46003
2.47155
2.47417
2.48879
2.49993
2.50165
2.49893
2.4954
2.49486
2.49828
2.50376
2.50486
2.50166
2.49567
2.4911
2.48948
2.48925
2.48834
2.48501
2.47942
2.47344
2.46855
2.46498
2.46166
2.4573
2.45116
2.44396
2.43701
2.43107
2.42597
2.42079
2.41468
2.40729
2.39944
2.39248
2.38667
2.38133
2.37551
2.36832
2.36001
2.35195
2.34517
2.33926
2.33268
2.32569
2.31788
2.30962
2.30214
2.29562
2.28978
2.28437
2.27898
2.27322
2.26711
2.26094
2.25448
2.24776
2.24064
2.23314
2.22599
2.2196
2.2138
2.20837
2.20333
2.1989
2.19478
2.19098
2.18777
2.18494
2.18241
2.1801
2.17747
2.17483
2.17468
2.1755
2.17705
2.17862
2.18094
2.18376
2.18696
2.19099
2.19672
2.20537
2.21604
2.22459
2.22966
2.23543
2.22955
2.24547
2.21348
2.18211
2.19375
2.21531
2.22525
2.2446
2.27326
2.31159
2.33869
2.34438
2.35112
2.36771
2.37806
2.37855
2.3773
2.37436
2.37262
2.37412
2.37588
2.37429
2.36884
2.36182
2.3569
2.35478
2.35392
2.35253
2.34924
2.34459
2.34036
2.33733
2.33504
2.33298
2.33026
2.32617
2.32136
2.31688
2.31307
2.30942
2.30566
2.30166
2.29646
2.29102
2.28613
2.28149
2.27641
2.27043
2.26424
2.25802
2.25161
2.24509
2.23861
2.23235
2.22653
2.22094
2.21559
2.21022
2.20448
2.19861
2.19306
2.18795
2.18298
2.17785
2.17231
2.16609
2.1591
2.15224
2.1461
2.14092
2.13662
2.13243
2.12805
2.12372
2.11995
2.1169
2.11438
2.11228
2.1106
2.10923
2.10758
2.10493
2.10305
2.10309
2.10346
2.10503
2.10809
2.11181
2.11609
2.12077
2.12579
2.13131
2.13785
2.1456
2.1519
2.15857
2.28034
2.27861
2.24751
2.19806
2.18463
2.18712
2.18233
2.17838
2.18448
2.20156
2.22249
2.22774
2.22774
2.23551
2.24692
2.24962
2.24666
2.24276
2.24289
2.24583
2.25002
2.24974
2.24617
2.24167
2.23916
2.23951
2.24193
2.24267
2.24137
2.23827
2.23545
2.23407
2.23411
2.23487
2.23466
2.23207
2.22777
2.22359
2.22039
2.21892
2.2184
2.21733
2.21281
2.20725
2.20248
2.19864
2.1954
2.19209
2.18753
2.18141
2.17449
2.16792
2.16245
2.15841
2.15458
2.14997
2.14452
2.13862
2.13258
2.12687
2.12202
2.11788
2.11394
2.10965
2.10462
2.09866
2.09221
2.08619
2.08122
2.07723
2.07355
2.07
2.0666
2.06305
2.05951
2.0565
2.05429
2.05278
2.05173
2.05098
2.04977
2.04737
2.04483
2.04378
2.04365
2.04536
2.04881
2.05331
2.05834
2.06223
2.06551
2.06889
2.0728
2.07824
2.08508
2.09258
2.32829
2.31312
2.27778
2.22933
2.19811
2.19719
2.19418
2.18461
2.17509
2.17523
2.17965
2.17631
2.16889
2.16618
2.17068
2.17211
2.16815
2.16133
2.16199
2.16622
2.16961
2.16846
2.16438
2.16343
2.16299
2.16446
2.16816
2.16917
2.16846
2.16709
2.16645
2.16693
2.16969
2.17227
2.17192
2.16996
2.16747
2.16569
2.16519
2.16586
2.16605
2.16325
2.15904
2.15509
2.15215
2.14978
2.1465
2.14222
2.13722
2.13136
2.12586
2.12085
2.11612
2.11166
2.10691
2.10175
2.0966
2.09168
2.08673
2.08159
2.0765
2.07172
2.06706
2.0622
2.0567
2.05074
2.04488
2.03967
2.03537
2.03167
2.02829
2.02517
2.02238
2.01964
2.01707
2.01492
2.01326
2.01217
2.01132
2.01036
2.00901
2.00691
2.00487
2.00375
2.00415
2.00601
2.00898
2.01278
2.01679
2.02
2.02226
2.02477
2.02778
2.03185
2.03688
2.0438
2.3595
2.33954
2.30444
2.26056
2.22794
2.22097
2.21634
2.20164
2.18544
2.18363
2.18515
2.17992
2.16774
2.15596
2.15328
2.15147
2.14556
2.13723
2.13515
2.13725
2.13897
2.13738
2.13218
2.13138
2.13186
2.13399
2.13695
2.13755
2.13762
2.13761
2.13803
2.13987
2.14414
2.14611
2.14566
2.14408
2.14324
2.14328
2.14498
2.14642
2.14446
2.14011
2.13588
2.13338
2.13226
2.13051
2.12598
2.12025
2.11371
2.10851
2.10514
2.10165
2.09682
2.09095
2.08437
2.0784
2.07414
2.0708
2.06688
2.0619
2.05614
2.0498
2.04346
2.03735
2.03157
2.02619
2.02098
2.01583
2.0108
2.00598
2.00198
1.99904
1.99693
1.9952
1.99352
1.99176
1.98995
1.98821
1.98657
1.98515
1.98437
1.98443
1.98414
1.98397
1.98397
1.98441
1.98546
1.98727
1.99005
1.99387
1.99718
1.99953
2.0013
2.00313
2.00504
2.00929
2.37755
2.35755
2.32618
2.28754
2.25831
2.24991
2.24306
2.22506
2.20533
2.19919
2.19808
2.18985
2.17454
2.16162
2.1571
2.15449
2.14779
2.13859
2.13209
2.13123
2.13149
2.12861
2.12379
2.12201
2.12233
2.12426
2.12648
2.12666
2.12679
2.12697
2.12731
2.12846
2.13109
2.13173
2.13118
2.13019
2.12988
2.13039
2.13228
2.13217
2.12916
2.12523
2.12275
2.12179
2.12139
2.11813
2.11286
2.10643
2.10124
2.0979
2.09549
2.09196
2.08684
2.08008
2.07335
2.06876
2.06548
2.0624
2.05832
2.05323
2.04673
2.03927
2.03212
2.02597
2.02121
2.01688
2.01217
2.00686
2.00076
1.99478
1.99053
1.98788
1.98595
1.98451
1.98326
1.98186
1.97956
1.97647
1.97442
1.97347
1.9738
1.97556
1.97701
1.9771
1.97569
1.97419
1.97385
1.97469
1.977
1.98122
1.98504
1.98632
1.9865
1.98568
1.98589
1.9886
2.38596
2.3677
2.34142
2.30842
2.28312
2.27559
2.26732
2.24832
2.22808
2.2193
2.21442
2.20282
2.18494
2.17115
2.16548
2.16171
2.15383
2.14207
2.13249
2.12884
2.12763
2.12401
2.11896
2.11497
2.11371
2.11476
2.11606
2.1158
2.11497
2.11434
2.11418
2.11456
2.11609
2.11634
2.11552
2.11437
2.11435
2.11491
2.11621
2.11515
2.11156
2.10829
2.10672
2.10674
2.10619
2.10219
2.09636
2.09059
2.08714
2.08497
2.08243
2.07827
2.07267
2.06628
2.06196
2.05887
2.05576
2.05174
2.047
2.04121
2.03447
2.02803
2.02231
2.0174
2.01299
2.00858
2.00393
1.99848
1.99229
1.9873
1.98389
1.9813
1.97952
1.97803
1.97685
1.97548
1.97304
1.97011
1.96915
1.96902
1.97005
1.97172
1.97273
1.97269
1.97097
1.96926
1.96886
1.96921
1.9708
1.97403
1.97614
1.97615
1.97535
1.97397
1.97387
1.97566
2.39243
2.37488
2.35193
2.32278
2.30091
2.29414
2.28498
2.26588
2.24685
2.23764
2.23012
2.21635
2.19678
2.18254
2.17628
2.17066
2.16075
2.1463
2.13341
2.12785
2.12512
2.12042
2.11379
2.10757
2.10432
2.10349
2.10351
2.10221
2.10019
2.09831
2.09752
2.09765
2.09873
2.09935
2.09869
2.09718
2.09721
2.09765
2.09831
2.09706
2.09322
2.08981
2.08877
2.08937
2.08827
2.08428
2.07847
2.07344
2.0708
2.06904
2.06597
2.06162
2.05609
2.05085
2.04792
2.04559
2.0422
2.03772
2.03247
2.02647
2.02035
2.01517
2.01092
2.00672
2.00198
1.99664
1.99104
1.986
1.98211
1.97922
1.97643
1.97309
1.97005
1.96844
1.96764
1.96738
1.96655
1.96543
1.96536
1.96551
1.96571
1.96558
1.96539
1.96568
1.96589
1.96516
1.96486
1.9649
1.96508
1.96587
1.96658
1.96614
1.96522
1.96492
1.96487
1.96578
2.39962
2.38281
2.36195
2.33578
2.31651
2.30904
2.29808
2.27835
2.26071
2.25156
2.24249
2.22739
2.20689
2.19317
2.18666
2.17957
2.16778
2.1507
2.13565
2.12875
2.12416
2.11808
2.1097
2.10063
2.09557
2.09289
2.0912
2.08887
2.08625
2.08349
2.08136
2.08089
2.08124
2.08174
2.08101
2.07908
2.07869
2.07896
2.07937
2.07845
2.07481
2.07165
2.07124
2.07173
2.07005
2.06614
2.06075
2.05711
2.05532
2.05352
2.05011
2.04565
2.04017
2.0365
2.0344
2.03228
2.02877
2.0241
2.01822
2.01197
2.00735
2.00369
2.00004
1.99581
1.99061
1.9844
1.97824
1.97452
1.9725
1.97098
1.9692
1.96683
1.96326
1.96058
1.95968
1.95952
1.96035
1.9615
1.96207
1.96209
1.96116
1.95887
1.95745
1.9583
1.96044
1.96133
1.96104
1.96064
1.95949
1.9579
1.95683
1.9567
1.95762
1.95791
1.95777
1.95739
2.40816
2.3917
2.37126
2.3468
2.32984
2.32191
2.30944
2.28945
2.27306
2.26367
2.25307
2.23634
2.21545
2.20308
2.19639
2.18755
2.17392
2.15467
2.13913
2.13155
2.12554
2.11771
2.10755
2.09587
2.08935
2.08555
2.08244
2.07897
2.07545
2.07163
2.06893
2.06752
2.06784
2.06818
2.06728
2.06497
2.06364
2.06383
2.06425
2.06359
2.06029
2.05701
2.05654
2.05677
2.05487
2.05066
2.04591
2.04381
2.04279
2.04051
2.03656
2.03123
2.02661
2.02448
2.02328
2.02112
2.01754
2.01229
2.0051
1.99977
1.99695
1.99444
1.99129
1.98723
1.98186
1.9746
1.96893
1.96647
1.96499
1.96437
1.9634
1.96232
1.96027
1.95749
1.95615
1.95574
1.95687
1.95936
1.96081
1.96063
1.95889
1.95603
1.95456
1.95468
1.95687
1.95879
1.9585
1.95777
1.95601
1.95369
1.95208
1.95151
1.95246
1.95314
1.95255
1.95112
2.41943
2.40275
2.38187
2.35854
2.34302
2.33386
2.31918
2.29887
2.28378
2.27446
2.26289
2.24503
2.22455
2.21318
2.20594
2.19564
2.18025
2.15979
2.14555
2.13756
2.12993
2.12025
2.10769
2.09413
2.08712
2.08298
2.0788
2.0743
2.06936
2.06399
2.06107
2.05954
2.05987
2.05992
2.05795
2.05461
2.05238
2.05219
2.05283
2.05244
2.04979
2.04634
2.04534
2.04522
2.04324
2.03914
2.03542
2.03433
2.03359
2.03121
2.02709
2.0212
2.01781
2.0163
2.01504
2.01269
2.00948
2.00368
1.99613
1.99192
1.98976
1.98814
1.98557
1.98217
1.97677
1.96897
1.96461
1.96292
1.96172
1.96106
1.96079
1.96039
1.95934
1.95745
1.95663
1.95678
1.95808
1.96003
1.9612
1.96078
1.95901
1.95722
1.95667
1.95654
1.95732
1.95854
1.95809
1.95678
1.95449
1.95221
1.95116
1.95059
1.95117
1.9511
1.95006
1.94747
2.43278
2.4158
2.39483
2.37306
2.35828
2.34724
2.33014
2.30942
2.29521
2.28584
2.27318
2.2542
2.23435
2.22351
2.2155
2.20398
2.18731
2.16733
2.15457
2.14567
2.13643
2.12512
2.11012
2.09571
2.08845
2.08349
2.0784
2.07302
2.06644
2.05964
2.05667
2.05512
2.05474
2.05346
2.05073
2.04643
2.04386
2.04334
2.04407
2.04402
2.04193
2.03831
2.03708
2.03756
2.03644
2.03317
2.02997
2.02914
2.02842
2.0265
2.02297
2.01738
2.01445
2.01311
2.01059
2.00775
2.00447
1.99922
1.99418
1.9908
1.98738
1.98488
1.98225
1.97878
1.97394
1.96916
1.96637
1.96496
1.96416
1.96376
1.96359
1.96341
1.96278
1.96252
1.96278
1.96363
1.96434
1.96413
1.96354
1.96357
1.96388
1.96373
1.96358
1.96282
1.96206
1.96116
1.95991
1.95843
1.95681
1.95551
1.95475
1.95401
1.95341
1.95221
1.95036
1.94677
2.44929
2.43158
2.41045
2.38952
2.37451
2.36184
2.34299
2.32295
2.30953
2.2993
2.28429
2.2637
2.24462
2.23387
2.22507
2.21254
2.19536
2.17669
2.1644
2.15432
2.14345
2.13059
2.11453
2.10058
2.09294
2.08643
2.08015
2.07412
2.06628
2.05778
2.0537
2.05093
2.04901
2.04707
2.04407
2.03941
2.03656
2.03602
2.03644
2.0361
2.03402
2.03076
2.02957
2.03026
2.02972
2.02711
2.02377
2.02288
2.0227
2.02161
2.01954
2.01597
2.01249
2.01003
2.00768
2.00502
2.00186
1.99895
1.99605
1.99275
1.98875
1.98432
1.98057
1.97745
1.97565
1.97438
1.97279
1.97126
1.97002
1.96973
1.9695
1.9698
1.97055
1.97167
1.9725
1.97264
1.97207
1.97038
1.96939
1.97029
1.97242
1.97284
1.972
1.9701
1.9668
1.9645
1.96362
1.96334
1.9628
1.96205
1.96092
1.95867
1.95511
1.952
1.94979
1.94686
2.4682
2.44981
2.42891
2.40897
2.39372
2.3792
2.35906
2.33913
2.32525
2.31384
2.29749
2.27602
2.25773
2.24685
2.23742
2.2243
2.20629
2.18788
2.17527
2.16415
2.15242
2.13907
2.12259
2.10824
2.09988
2.09255
2.08526
2.07663
2.06562
2.05588
2.05112
2.04827
2.04614
2.0438
2.04029
2.03489
2.03173
2.03086
2.03102
2.03027
2.02763
2.02433
2.02325
2.02424
2.02456
2.02311
2.01992
2.01857
2.01895
2.01815
2.01688
2.01517
2.01215
2.00884
2.00632
2.00386
2.00105
1.9982
1.99583
1.99334
1.98991
1.98541
1.9811
1.97843
1.97697
1.9767
1.9769
1.97627
1.97527
1.97442
1.97422
1.97509
1.977
1.97921
1.98053
1.98038
1.97898
1.97658
1.976
1.97675
1.97883
1.97922
1.97783
1.97542
1.97164
1.96902
1.96822
1.96813
1.9682
1.96722
1.96562
1.96285
1.9584
1.95356
1.95117
1.94849
2.48978
2.47054
2.44984
2.43064
2.41515
2.3985
2.37755
2.35837
2.34436
2.33188
2.3139
2.29225
2.27587
2.26477
2.25263
2.23707
2.21771
2.2012
2.18896
2.17725
2.16468
2.14948
2.13229
2.11903
2.10937
2.10057
2.09161
2.08177
2.07063
2.06081
2.0544
2.0506
2.04734
2.0438
2.03895
2.03252
2.02903
2.02794
2.02786
2.02652
2.02341
2.02028
2.01946
2.02055
2.02152
2.02065
2.01788
2.01604
2.01645
2.01567
2.0153
2.01477
2.01222
2.00839
2.00552
2.00318
2.00098
1.9988
1.99653
1.994
1.99097
1.98716
1.98339
1.98147
1.98066
1.98075
1.98168
1.98246
1.98228
1.98153
1.9812
1.98192
1.98397
1.98708
1.9891
1.98904
1.9872
1.98448
1.98358
1.98356
1.98495
1.98594
1.98466
1.98204
1.97795
1.97518
1.97427
1.97401
1.97459
1.9736
1.97173
1.96855
1.96314
1.95785
1.95542
1.95241
2.51068
2.49166
2.47189
2.45378
2.43788
2.41957
2.39869
2.38038
2.36664
2.35274
2.33335
2.31181
2.29611
2.28464
2.27116
2.25381
2.23383
2.21953
2.2074
2.19469
2.18108
2.16531
2.14761
2.13345
2.12276
2.113
2.10319
2.09259
2.08062
2.06977
2.06281
2.05788
2.05338
2.04844
2.04194
2.03488
2.03167
2.03045
2.02972
2.02765
2.02387
2.02043
2.01969
2.02064
2.0219
2.02141
2.01919
2.01657
2.01618
2.01583
2.0161
2.01564
2.0131
2.00975
2.00746
2.00559
2.00337
2.00076
1.99803
1.99533
1.99301
1.99082
1.98881
1.98767
1.98733
1.9873
1.98787
1.98935
1.99034
1.99061
1.99115
1.99189
1.99299
1.99453
1.9965
1.9971
1.99572
1.99377
1.9921
1.99095
1.9905
1.99066
1.99014
1.98819
1.9856
1.98376
1.98247
1.98134
1.98061
1.97932
1.97726
1.97403
1.9695
1.96563
1.96331
1.95959
2.53247
2.51391
2.49524
2.47812
2.46154
2.44231
2.42215
2.40492
2.39146
2.37571
2.35499
2.3345
2.3197
2.30779
2.29299
2.2743
2.25486
2.24139
2.22925
2.21561
2.20021
2.18247
2.16579
2.15297
2.14172
2.13089
2.11953
2.10679
2.0934
2.08292
2.07539
2.06923
2.06365
2.05759
2.04966
2.04232
2.03906
2.0372
2.03545
2.03272
2.02827
2.02374
2.02264
2.02316
2.02423
2.02385
2.02203
2.0192
2.01816
2.01831
2.01887
2.01766
2.01494
2.01301
2.01208
2.01122
2.00894
2.0052
2.00139
1.99955
1.99852
1.99866
1.99903
1.99848
1.99769
1.99719
1.99734
1.99856
2.00071
2.00279
2.00425
2.005
2.00513
2.00467
2.00463
2.00573
2.00606
2.00519
2.00373
2.00169
1.99941
1.99785
1.997
1.99652
1.99577
1.99458
1.99303
1.99108
1.9889
1.98675
1.9841
1.98091
1.97804
1.97576
1.97372
1.96919
2.55433
2.53628
2.51861
2.50198
2.4847
2.46545
2.44651
2.43046
2.41669
2.39902
2.37774
2.35888
2.34494
2.33241
2.3162
2.29643
2.27809
2.26506
2.25229
2.23775
2.22109
2.20251
2.18649
2.17389
2.1623
2.15048
2.1377
2.12319
2.10879
2.09822
2.0902
2.08308
2.07639
2.06896
2.0595
2.05146
2.04758
2.04487
2.04233
2.03905
2.03396
2.02827
2.02602
2.02588
2.02621
2.02565
2.02378
2.02139
2.02062
2.02139
2.02134
2.01916
2.01648
2.01549
2.01588
2.01634
2.01472
2.01096
2.0069
2.00573
2.00581
2.0081
2.01055
2.01085
2.01069
2.00977
2.00964
2.01082
2.01351
2.01685
2.01857
2.01919
2.01874
2.01711
2.01627
2.01671
2.01824
2.01811
2.01675
2.01443
2.01115
2.00859
2.00732
2.00678
2.00674
2.00575
2.00405
2.00181
1.99856
1.99503
1.99199
1.98954
1.98773
1.98586
1.98376
1.97858
2.57274
2.55592
2.53944
2.52316
2.50575
2.48733
2.4698
2.45468
2.4397
2.42057
2.40002
2.38284
2.36963
2.3558
2.33787
2.31716
2.30032
2.28752
2.27425
2.25893
2.24104
2.22226
2.20722
2.19433
2.18168
2.16848
2.15408
2.13828
2.12394
2.11327
2.10446
2.09621
2.08795
2.07862
2.06744
2.05885
2.0541
2.05042
2.04684
2.04268
2.03679
2.03038
2.02752
2.0266
2.02609
2.02468
2.02232
2.02071
2.0209
2.02227
2.02162
2.01858
2.01551
2.01515
2.01634
2.01838
2.01801
2.01568
2.0122
2.01144
2.01223
2.01562
2.01971
2.02128
2.02202
2.02191
2.02218
2.02368
2.02632
2.03013
2.03248
2.03293
2.03199
2.0302
2.02929
2.02906
2.0299
2.03024
2.02888
2.02644
2.02314
2.02069
2.01921
2.01813
2.01757
2.01644
2.01443
2.01135
2.00718
2.00313
2.00039
1.99846
1.99667
1.99447
1.99196
1.98631
2.58441
2.56968
2.55464
2.53893
2.52214
2.50492
2.48865
2.47372
2.45727
2.43794
2.41898
2.40319
2.39031
2.37445
2.35485
2.33467
2.31921
2.30645
2.29254
2.27635
2.25733
2.239
2.2244
2.21091
2.19729
2.18297
2.16717
2.15059
2.13654
2.12536
2.1155
2.10588
2.0957
2.08423
2.07196
2.06323
2.05757
2.05264
2.04777
2.04238
2.03497
2.02841
2.02563
2.02438
2.02272
2.01975
2.01653
2.01567
2.01672
2.01885
2.01851
2.01566
2.01198
2.01165
2.01346
2.01684
2.01814
2.01786
2.01585
2.01545
2.01671
2.02004
2.02494
2.02831
2.02989
2.03082
2.03219
2.03411
2.03662
2.0403
2.04322
2.04363
2.04251
2.0408
2.04011
2.03958
2.0396
2.03976
2.03854
2.03623
2.03356
2.03173
2.03023
2.02875
2.02705
2.02482
2.02177
2.01786
2.01377
2.01063
2.00818
2.00577
2.00308
1.99993
1.99661
1.99118
2.58914
2.57579
2.56181
2.54696
2.53129
2.51548
2.50029
2.48515
2.46814
2.4498
2.43247
2.41773
2.40438
2.3869
2.36657
2.34811
2.3334
2.32037
2.30534
2.28773
2.26804
2.25138
2.23695
2.22289
2.20848
2.19299
2.17595
2.1592
2.14532
2.13351
2.12251
2.11158
2.09977
2.08688
2.0747
2.06536
2.05838
2.05217
2.04604
2.03877
2.02981
2.02407
2.02134
2.01962
2.0167
2.01219
2.00784
2.00687
2.00824
2.01127
2.01179
2.01039
2.00738
2.00662
2.00865
2.01281
2.01634
2.01736
2.01717
2.01746
2.01922
2.02206
2.02664
2.03172
2.03454
2.03671
2.03903
2.04128
2.04362
2.04638
2.0483
2.0483
2.04774
2.04773
2.04772
2.04724
2.04651
2.04566
2.04433
2.04263
2.04113
2.03955
2.03775
2.03569
2.03298
2.02933
2.02494
2.02094
2.01806
2.01564
2.01303
2.00986
2.00596
2.00166
1.99852
1.99417
2.58887
2.57626
2.56296
2.54887
2.53425
2.5196
2.50503
2.48965
2.47274
2.45513
2.43893
2.42569
2.41111
2.39278
2.37292
2.35631
2.34283
2.32911
2.31261
2.29338
2.2751
2.25982
2.24519
2.23052
2.21524
2.19866
2.18114
2.16496
2.15111
2.13865
2.12663
2.11436
2.10144
2.08813
2.07619
2.06677
2.05883
2.05132
2.04344
2.03407
2.02522
2.02079
2.01799
2.01525
2.01136
2.00622
2.00115
1.99974
2.0009
2.0045
2.00683
2.007
2.00539
2.00414
2.00573
2.00934
2.01423
2.01683
2.01777
2.01893
2.02126
2.02405
2.02791
2.03266
2.03661
2.03998
2.04274
2.04517
2.04744
2.04895
2.0495
2.04971
2.05016
2.05107
2.05169
2.05112
2.04997
2.04842
2.04712
2.04612
2.04527
2.0439
2.04195
2.03929
2.03532
2.03049
2.02671
2.02406
2.02168
2.01908
2.01595
2.0119
2.00748
2.00371
2.00117
1.99687
2.58846
2.576
2.56284
2.54915
2.53518
2.52107
2.50652
2.49098
2.47466
2.4588
2.44474
2.43083
2.41299
2.39317
2.37627
2.36229
2.34926
2.33366
2.3158
2.29656
2.28003
2.26525
2.25037
2.23512
2.21898
2.20165
2.18437
2.16903
2.15532
2.14229
2.12929
2.1158
2.10174
2.08825
2.07702
2.06775
2.05931
2.05096
2.04167
2.03062
2.02221
2.01815
2.01523
2.0122
2.00853
2.00361
1.99809
1.99593
1.99633
1.99942
2.00309
2.00466
2.00461
2.00356
2.00476
2.00834
2.01299
2.01682
2.01933
2.02166
2.02417
2.02682
2.03013
2.03446
2.03924
2.04302
2.04547
2.04725
2.04894
2.05017
2.05086
2.05131
2.05175
2.05246
2.05328
2.05283
2.05173
2.05027
2.04913
2.04819
2.04722
2.04575
2.04368
2.04072
2.03663
2.03259
2.02973
2.02737
2.02493
2.02208
2.01853
2.01423
2.01008
2.00671
2.00428
1.99982
2.59011
2.57733
2.56409
2.55052
2.5367
2.52256
2.50783
2.49245
2.47681
2.46177
2.4477
2.43213
2.41388
2.39624
2.38072
2.36733
2.35277
2.3359
2.31699
2.29895
2.284
2.2696
2.25447
2.23875
2.22164
2.20354
2.18707
2.17276
2.15931
2.14591
2.13201
2.11717
2.10181
2.08813
2.07749
2.06857
2.06022
2.05165
2.04132
2.02876
2.01994
2.01533
2.01236
2.0097
2.00657
2.00206
1.99615
1.99347
1.99362
1.99607
1.99858
2.00075
2.00263
2.00371
2.00473
2.0078
2.01214
2.01666
2.02063
2.0244
2.02825
2.0322
2.03577
2.0391
2.04276
2.04576
2.04788
2.04992
2.05183
2.05281
2.05322
2.05355
2.05373
2.05404
2.05483
2.05455
2.05347
2.05191
2.0506
2.0496
2.04849
2.04699
2.04485
2.04204
2.0387
2.03526
2.0325
2.03008
2.02757
2.02462
2.02084
2.01665
2.013
2.00998
2.00751
2.00283
2.59491
2.58183
2.56838
2.55462
2.54052
2.52599
2.51102
2.49573
2.48043
2.4656
2.45074
2.43396
2.41638
2.40013
2.38559
2.37174
2.35579
2.33769
2.31876
2.30262
2.2885
2.27429
2.25918
2.24272
2.22431
2.20619
2.19066
2.17665
2.16309
2.14956
2.1354
2.11962
2.10335
2.08973
2.07896
2.06952
2.06043
2.0511
2.04049
2.02923
2.02018
2.01359
2.00898
2.00546
2.0022
1.99899
1.99523
1.9921
1.99148
1.99242
1.99338
1.99534
1.99867
2.00157
2.00455
2.00858
2.01312
2.01755
2.02204
2.02679
2.03198
2.03691
2.04114
2.04533
2.04852
2.05066
2.05239
2.05393
2.05526
2.05624
2.05644
2.05638
2.05622
2.05618
2.05673
2.0566
2.05545
2.05395
2.05242
2.05102
2.04956
2.04803
2.04611
2.04357
2.04063
2.0379
2.03547
2.03294
2.02987
2.02634
2.02257
2.01909
2.0163
2.01361
2.01128
2.00678
2.60141
2.58829
2.57476
2.56083
2.5465
2.53174
2.51664
2.50135
2.48612
2.47099
2.45502
2.438
2.42128
2.40553
2.39133
2.37646
2.35893
2.34008
2.3227
2.30795
2.294
2.27914
2.26322
2.24573
2.22723
2.2103
2.19558
2.18183
2.16837
2.15429
2.13859
2.12181
2.10585
2.09238
2.0812
2.07136
2.06186
2.05155
2.04007
2.02902
2.02005
2.01312
2.00731
2.00268
1.99863
1.99428
1.9909
1.98932
1.98857
1.98837
1.98809
1.98933
1.99255
1.99727
2.00261
2.00783
2.01279
2.01761
2.02248
2.02767
2.03342
2.03958
2.04561
2.05014
2.05269
2.05432
2.05558
2.05718
2.05939
2.06085
2.06101
2.06056
2.05959
2.05885
2.05853
2.05864
2.05772
2.05642
2.05444
2.0521
2.05026
2.04868
2.04714
2.0453
2.04315
2.04067
2.03767
2.03435
2.03107
2.02761
2.02451
2.0222
2.01996
2.01722
2.01419
2.00814
2.60713
2.5941
2.58064
2.56675
2.55246
2.53777
2.52274
2.50749
2.49217
2.47652
2.46012
2.44343
2.42705
2.41154
2.39685
2.38005
2.36188
2.344
2.32812
2.31322
2.29813
2.2826
2.2659
2.2481
2.23102
2.21564
2.201
2.18642
2.17153
2.15587
2.1395
2.12357
2.10947
2.09689
2.08475
2.0725
2.06069
2.0492
2.03813
2.02923
2.02195
2.01488
2.00727
2.00003
1.99378
1.98898
1.98672
1.9856
1.98465
1.98388
1.98279
1.9832
1.98596
1.99098
1.99769
2.00424
2.00999
2.01546
2.02086
2.02627
2.03216
2.03916
2.0465
2.05111
2.05364
2.0554
2.0571
2.05906
2.0621
2.06405
2.0642
2.06365
2.06217
2.06113
2.0605
2.06006
2.05914
2.05785
2.05571
2.05271
2.05055
2.04885
2.04711
2.0452
2.04305
2.04057
2.03761
2.03438
2.03153
2.02925
2.02705
2.02451
2.02135
2.01763
2.01408
2.00782
2.61057
2.59779
2.58451
2.57077
2.5566
2.54203
2.52712
2.51192
2.49641
2.48045
2.46415
2.44781
2.4317
2.41599
2.39959
2.38181
2.36412
2.3478
2.33269
2.31727
2.30117
2.28433
2.26701
2.25014
2.23445
2.21963
2.20487
2.18954
2.17313
2.15616
2.13993
2.12532
2.11237
2.10017
2.08792
2.07495
2.06082
2.04734
2.03669
2.02873
2.02219
2.01582
2.00888
1.99965
1.98986
1.98533
1.98315
1.98219
1.98143
1.98091
1.97965
1.9789
1.98115
1.98556
1.99209
1.99917
2.00532
2.01109
2.01687
2.02288
2.02953
2.03759
2.04585
2.05048
2.05321
2.05547
2.05733
2.05949
2.06283
2.06482
2.06485
2.06424
2.06276
2.06163
2.06086
2.06006
2.059
2.05769
2.05566
2.05281
2.05057
2.04872
2.04683
2.04478
2.04243
2.03967
2.0367
2.03411
2.03194
2.0298
2.02746
2.02482
2.02154
2.01734
2.01309
2.00663
2.61178
2.59915
2.58599
2.57235
2.55827
2.54381
2.52899
2.51382
2.49822
2.48224
2.46616
2.45017
2.4343
2.41785
2.40039
2.38261
2.36579
2.35082
2.33598
2.31948
2.30247
2.28464
2.26712
2.25128
2.23643
2.22181
2.20693
2.19098
2.17339
2.15532
2.13942
2.12628
2.11434
2.10258
2.09006
2.07554
2.05919
2.04449
2.03492
2.02819
2.02207
2.01609
2.0088
1.99765
1.98681
1.98279
1.98067
1.97985
1.97906
1.97829
1.9768
1.97541
1.97748
1.98194
1.98887
1.99719
2.00475
2.0114
2.01777
2.02419
2.03119
2.03952
2.04779
2.0521
2.0549
2.05722
2.05904
2.06119
2.06461
2.06655
2.06644
2.06562
2.06386
2.06251
2.06169
2.06066
2.05942
2.05794
2.05579
2.05263
2.04995
2.04795
2.046
2.04392
2.04154
2.03871
2.03594
2.03386
2.03179
2.02963
2.02734
2.02479
2.02145
2.01671
2.01207
2.00573
)
;

boundaryField
{
    inlet
    {
        type            fixedValue;
        value           uniform 1;
    }
    outlet
    {
        type            inletOutlet;
        inletValue      uniform 1;
        value           nonuniform List<scalar> 
32
(
2.34927
2.33284
2.29544
2.23505
2.15848
2.09261
2.04367
2.00909
1.98851
1.97566
1.96576
1.95724
1.95099
1.9473
1.94662
1.94676
1.94846
1.95236
1.95952
1.96907
1.97843
1.98618
1.99119
1.99432
1.99701
1.99995
2.00301
2.0069
2.00799
2.00764
2.00655
2.00572
)
;
    }
    bottom
    {
        type            symmetryPlane;
    }
    top
    {
        type            symmetryPlane;
    }
    obstacle
    {
        type            zeroGradient;
    }
    defaultFaces
    {
        type            empty;
    }
}

