/*--------------------------------*- C++ -*----------------------------------*\
  =========                 |
  \\      /  F ield         | OpenFOAM: The Open Source CFD Toolbox
   \\    /   O peration     | Website:  https://openfoam.org
    \\  /    A nd           | Version:  7
     \\/     M anipulation  |
\*---------------------------------------------------------------------------*/
FoamFile
{
    version     2.0;
    format      ascii;
    class       volVectorField;
    location    "18.5";
    object      U;
}
// * * * * * * * * * * * * * * * * * * * * * * * * * * * * * * * * * * * * * //

dimensions      [0 1 -1 0 0 0 0];

internalField   nonuniform List<vector> 
4032
(
(3 -7.23611e-17 0)
(3 -5.50121e-17 0)
(3 4.45697e-17 0)
(3 3.43069e-17 0)
(3 -1.28818e-16 0)
(3 1.85606e-16 0)
(3 4.08371e-16 0)
(3 3.07965e-16 0)
(3 -2.71599e-16 0)
(3 -6.43584e-16 0)
(3 -4.20786e-16 0)
(2.03804 0.0120812 0)
(0.80525 0.0150639 0)
(0.689665 0.0234396 0)
(0.637305 0.024967 0)
(0.580437 0.0256147 0)
(0.525091 0.0261324 0)
(0.4688 0.0269423 0)
(0.410633 0.0282342 0)
(0.349112 0.0301556 0)
(0.28279 0.0329215 0)
(0.209626 0.0368083 0)
(0.12954 0.0392097 0)
(0.047283 0.0427086 0)
(3 3.29316e-17 0)
(3 1.89496e-16 0)
(3 4.89408e-16 0)
(3 5.95401e-16 0)
(3 8.6569e-16 0)
(3 1.21457e-15 0)
(3 1.31139e-15 0)
(3 7.15249e-16 0)
(3 -4.89959e-16 0)
(3 -1.30014e-15 0)
(3 -7.12298e-16 0)
(2.07025 0.0599727 0)
(0.797356 0.0689299 0)
(0.670331 0.0700495 0)
(0.616652 0.0699683 0)
(0.560061 0.0714021 0)
(0.505487 0.0736099 0)
(0.450492 0.0771706 0)
(0.394376 0.0823929 0)
(0.335774 0.0897922 0)
(0.27303 0.0996005 0)
(0.203905 0.112767 0)
(0.126608 0.121529 0)
(0.0467551 0.132811 0)
(3 5.60494e-17 0)
(3 4.56701e-16 0)
(3 4.59966e-16 0)
(3 4.31601e-16 0)
(3 5.96549e-16 0)
(3 1.37803e-15 0)
(3 1.48732e-15 0)
(3 6.52468e-16 0)
(3 8.57112e-17 0)
(3 2.41192e-16 0)
(3 1.06467e-16 0)
(2.18388 0.110719 0)
(0.817329 0.12861 0)
(0.673721 0.122625 0)
(0.616481 0.121941 0)
(0.556458 0.12321 0)
(0.49921 0.125628 0)
(0.442237 0.129982 0)
(0.385064 0.136784 0)
(0.326508 0.147432 0)
(0.26489 0.162317 0)
(0.198818 0.184139 0)
(0.123345 0.199899 0)
(0.0464229 0.219462 0)
(3 -2.08329e-16 0)
(3 -3.28853e-16 0)
(3 -5.38107e-16 0)
(3 -7.57924e-16 0)
(3 -4.96686e-16 0)
(3 -1.76295e-16 0)
(3 7.563e-16 0)
(3 8.80758e-16 0)
(3 1.3941e-15 0)
(3 2.21833e-15 0)
(3 1.84104e-15 0)
(2.37013 0.146584 0)
(0.859721 0.187128 0)
(0.692753 0.175495 0)
(0.634646 0.174646 0)
(0.57198 0.177017 0)
(0.511901 0.180635 0)
(0.451705 0.186338 0)
(0.391107 0.194813 0)
(0.329288 0.208542 0)
(0.264835 0.227145 0)
(0.198896 0.256553 0)
(0.123203 0.279967 0)
(0.0458871 0.306667 0)
(3 -3.35487e-18 0)
(3 -3.60941e-16 0)
(3 -5.09976e-16 0)
(3 -7.70928e-16 0)
(3 -1.03468e-15 0)
(3 -9.1761e-16 0)
(3 -1.5451e-16 0)
(3 1.07735e-15 0)
(3 1.96281e-15 0)
(3 2.05461e-15 0)
(3 1.12164e-15 0)
(2.59934 0.166888 0)
(0.914041 0.246454 0)
(0.717472 0.228111 0)
(0.666293 0.230043 0)
(0.604525 0.233841 0)
(0.543477 0.239076 0)
(0.480598 0.246704 0)
(0.416979 0.257011 0)
(0.353138 0.273587 0)
(0.286857 0.29411 0)
(0.220702 0.329683 0)
(0.140283 0.363207 0)
(0.0553044 0.400839 0)
(3 -1.97211e-17 0)
(3 5.7231e-17 0)
(3 3.27574e-16 0)
(3 -2.33737e-17 0)
(3 -4.05511e-16 0)
(3 -4.32084e-16 0)
(3 -2.61809e-16 0)
(3 6.81413e-16 0)
(3 1.21524e-15 0)
(3 5.30592e-16 0)
(3 3.00406e-16 0)
(2.86078 0.135651 0)
(1.0069 0.29713 0)
(0.766266 0.254513 0)
(0.724774 0.272576 0)
(0.662295 0.285437 0)
(0.600002 0.296991 0)
(0.534423 0.308777 0)
(0.467111 0.321476 0)
(0.398802 0.341716 0)
(0.324505 0.36729 0)
(0.248228 0.414278 0)
(0.157381 0.466509 0)
(0.0550766 0.515621 0)
(3 3.24366e-17 0)
(3 2.8208e-16 0)
(3 4.18182e-16 0)
(3 1.88184e-16 0)
(3 3.21718e-16 0)
(3 3.43798e-16 0)
(3 3.02707e-16 0)
(3 7.18377e-17 0)
(3 -1.47371e-16 0)
(3 -8.58509e-17 0)
(3 -3.67822e-16 0)
(3.01891 0.0218252 0)
(1.12348 0.31808 0)
(0.79694 0.282707 0)
(0.770848 0.31628 0)
(0.718624 0.335306 0)
(0.663222 0.352855 0)
(0.60071 0.371442 0)
(0.533676 0.389257 0)
(0.464266 0.416765 0)
(0.389203 0.449678 0)
(0.316256 0.504154 0)
(0.22986 0.57249 0)
(0.104248 0.652593 0)
(3 6.69336e-17 0)
(3 1.59406e-16 0)
(3 -1.37197e-16 0)
(3 1.81154e-16 0)
(3 6.80164e-16 0)
(3 8.56787e-16 0)
(3 6.78806e-16 0)
(3 1.09507e-16 0)
(3 -7.69141e-16 0)
(3 -1.06522e-15 0)
(3 -1.53154e-15 0)
(3.00356 0.000603342 0)
(1.27203 0.333232 0)
(0.796336 0.316757 0)
(0.764669 0.357568 0)
(0.725387 0.383674 0)
(0.689604 0.406773 0)
(0.648066 0.431752 0)
(0.596111 0.456209 0)
(0.539794 0.491354 0)
(0.473353 0.52821 0)
(0.402115 0.601107 0)
(0.286897 0.732675 0)
(0.162879 0.92112 0)
(3 1.63631e-16 0)
(3 1.63703e-16 0)
(3 3.54732e-16 0)
(3 8.02591e-16 0)
(3 1.0296e-15 0)
(3 8.45982e-16 0)
(3 1.51015e-17 0)
(3 -1.63873e-16 0)
(3 -1.69101e-16 0)
(3 -9.75468e-17 0)
(3 -7.0311e-16 0)
(3.00003 -5.47659e-07 0)
(1.53927 0.377086 0)
(0.811287 0.364259 0)
(0.742849 0.382836 0)
(0.715676 0.409528 0)
(0.689677 0.437072 0)
(0.67071 0.472458 0)
(0.640806 0.509154 0)
(0.60866 0.554784 0)
(0.562741 0.607316 0)
(0.517562 0.712151 0)
(0.492387 0.88912 0)
(0.611911 1.20292 0)
(3 2.49563e-16 0)
(3 8.5782e-16 0)
(3 1.34797e-15 0)
(3 1.63109e-15 0)
(3 1.6148e-15 0)
(3 1.20645e-15 0)
(3 6.00194e-16 0)
(3 5.55913e-16 0)
(3 1.00367e-15 0)
(3 1.04382e-15 0)
(3 9.29714e-16 0)
(3 -1.84019e-07 0)
(1.9723 0.417874 0)
(0.863191 0.448638 0)
(0.753791 0.423922 0)
(0.727072 0.439697 0)
(0.706477 0.463094 0)
(0.692732 0.498524 0)
(0.682038 0.543321 0)
(0.671496 0.598621 0)
(0.661409 0.669271 0)
(0.655799 0.781588 0)
(0.722124 0.923926 0)
(1.00112 1.11048 0)
(3 -2.97158e-16 0)
(3 1.36878e-17 0)
(3 1.9439e-16 0)
(3 4.80848e-17 0)
(3 3.14106e-16 0)
(3 2.85608e-16 0)
(3 5.54135e-16 0)
(3 1.22239e-15 0)
(3 1.48891e-15 0)
(3 1.06099e-15 0)
(3 1.47729e-15 0)
(3 -4.57821e-08 0)
(2.6286 0.336649 0)
(1.00176 0.523659 0)
(0.835116 0.453397 0)
(0.790925 0.460598 0)
(0.756972 0.482373 0)
(0.735532 0.516003 0)
(0.731897 0.561408 0)
(0.732451 0.620423 0)
(0.75464 0.696972 0)
(0.787078 0.800548 0)
(0.907062 0.907987 0)
(1.17763 1.00194 0)
(3 -9.28369e-17 0)
(3 -1.09945e-16 0)
(3 -4.10132e-16 0)
(3 -7.95296e-16 0)
(3 -6.99262e-16 0)
(3 -4.31837e-17 0)
(3 5.56629e-16 0)
(3 1.11618e-15 0)
(3 1.82045e-15 0)
(3 1.63278e-15 0)
(3 2.62426e-15 0)
(3 -4.34066e-09 0)
(3.0797 0.0447748 0)
(1.26479 0.504565 0)
(0.913143 0.502331 0)
(0.873335 0.508103 0)
(0.832107 0.520896 0)
(0.797186 0.543106 0)
(0.787559 0.581835 0)
(0.793628 0.633639 0)
(0.831002 0.699557 0)
(0.893744 0.789416 0)
(1.04061 0.879882 0)
(1.28411 0.927928 0)
(3 1.14818e-16 0)
(3 7.96569e-17 0)
(3 -5.59237e-16 0)
(3 -1.04917e-15 0)
(3 -1.51143e-15 0)
(3 -7.38411e-16 0)
(3 3.79419e-16 0)
(3 4.20864e-16 0)
(3 9.60452e-16 0)
(3 2.0905e-15 0)
(3 3.16563e-15 0)
(3 -1.77319e-10 0)
(3.0089 8.78923e-05 0)
(1.50149 0.493505 0)
(0.912883 0.562937 0)
(0.87335 0.557608 0)
(0.857351 0.56866 0)
(0.843341 0.578673 0)
(0.840212 0.602471 0)
(0.853656 0.638995 0)
(0.894406 0.686342 0)
(0.967019 0.754271 0)
(1.11223 0.824322 0)
(1.32608 0.849936 0)
(3 -8.71228e-18 0)
(3 -1.02501e-16 0)
(3 -5.50413e-16 0)
(3 -7.52672e-16 0)
(3 -6.70367e-16 0)
(3 5.85589e-16 0)
(3 1.31356e-15 0)
(3 1.23419e-15 0)
(3 1.21206e-15 0)
(3 1.95401e-15 0)
(3 2.86107e-15 0)
(3 -3.05395e-12 0)
(3.00006 -2.39823e-06 0)
(2.09265 0.503105 0)
(0.971454 0.60955 0)
(0.900022 0.572067 0)
(0.896686 0.583674 0)
(0.892464 0.594606 0)
(0.895322 0.615202 0)
(0.914072 0.644724 0)
(0.956812 0.679682 0)
(1.02995 0.723755 0)
(1.15535 0.767975 0)
(1.33043 0.778226 0)
(3 1.5353e-16 0)
(3 3.38742e-16 0)
(3 1.2652e-15 0)
(3 1.73872e-15 0)
(3 1.84078e-15 0)
(3 2.31491e-15 0)
(3 1.89919e-15 0)
(3 1.92017e-15 0)
(3 2.14818e-15 0)
(3 2.22898e-15 0)
(3 3.05114e-15 0)
(3 -1.35939e-15 0)
(3.00001 -3.14598e-06 0)
(2.91519 0.220269 0)
(1.17493 0.615638 0)
(0.970044 0.579342 0)
(0.956786 0.586777 0)
(0.94943 0.605424 0)
(0.951267 0.620508 0)
(0.971558 0.641835 0)
(1.01197 0.663003 0)
(1.0789 0.692463 0)
(1.17781 0.710925 0)
(1.31005 0.708515 0)
(3 1.19064e-16 0)
(3 1.90897e-16 0)
(3 5.57352e-16 0)
(3 9.50197e-16 0)
(3 9.63543e-16 0)
(3 7.47855e-16 0)
(3 -1.97685e-17 0)
(3 -8.49833e-17 0)
(3 2.13198e-16 0)
(3 4.01174e-16 0)
(3 8.94957e-16 0)
(3 6.53314e-16 0)
(3 -6.70904e-07 0)
(3.05074 0.00959883 0)
(1.42022 0.574515 0)
(0.994671 0.628331 0)
(0.976806 0.621838 0)
(0.977045 0.628357 0)
(0.989666 0.635129 0)
(1.01584 0.648067 0)
(1.05713 0.660067 0)
(1.11929 0.670315 0)
(1.1963 0.666333 0)
(1.29069 0.650126 0)
(3 -7.34706e-17 0)
(3 -5.1098e-16 0)
(3 -5.12214e-16 0)
(3 -4.02029e-16 0)
(3 -6.97795e-17 0)
(3 -3.63531e-16 0)
(3 -5.0932e-16 0)
(3 -4.41338e-16 0)
(3 3.0398e-16 0)
(3 9.07683e-16 0)
(3 7.13207e-16 0)
(3 1.05569e-15 0)
(3 -6.03788e-08 0)
(3.00139 -6.70973e-06 0)
(1.91254 0.564055 0)
(1.00923 0.657219 0)
(0.980005 0.627896 0)
(0.995924 0.62676 0)
(1.01542 0.625831 0)
(1.04757 0.63279 0)
(1.08848 0.636507 0)
(1.14642 0.639227 0)
(1.21047 0.629361 0)
(1.28186 0.609941 0)
(3 -3.74861e-16 0)
(3 -3.45219e-16 0)
(3 -1.52988e-16 0)
(3 -3.70312e-17 0)
(3 -8.43079e-17 0)
(3 -1.04045e-16 0)
(3 3.43598e-16 0)
(3 5.96017e-16 0)
(3 9.58304e-16 0)
(3 7.44554e-16 0)
(3 8.31176e-17 0)
(3 4.91123e-16 0)
(3 -6.15792e-10 0)
(3.00001 -4.55723e-06 0)
(2.78508 0.309369 0)
(1.15679 0.662416 0)
(1.00732 0.613566 0)
(1.02532 0.614498 0)
(1.04239 0.616802 0)
(1.07268 0.618952 0)
(1.11034 0.615592 0)
(1.16127 0.609765 0)
(1.2175 0.59563 0)
(1.27458 0.572908 0)
(3 1.29362e-16 0)
(3 2.49211e-16 0)
(3 4.63475e-16 0)
(3 8.24943e-16 0)
(3 7.80755e-16 0)
(3 9.91691e-16 0)
(3 8.96345e-16 0)
(3 5.19396e-17 0)
(3 -9.96832e-16 0)
(3 -8.4563e-16 0)
(3 -2.50699e-16 0)
(3 4.10214e-16 0)
(3 -1.15339e-12 0)
(3 -1.15134e-06 0)
(3.06521 0.0199865 0)
(1.42269 0.610773 0)
(1.02659 0.625429 0)
(1.03472 0.619671 0)
(1.05575 0.610854 0)
(1.08564 0.604029 0)
(1.12419 0.594606 0)
(1.17204 0.584553 0)
(1.22317 0.568538 0)
(1.27238 0.546261 0)
(3 1.44579e-16 0)
(3 6.72433e-16 0)
(3 8.48973e-16 0)
(3 1.03268e-15 0)
(3 9.43559e-16 0)
(3 7.75877e-16 0)
(3 -3.88852e-16 0)
(3 -8.43898e-16 0)
(3 -2.69395e-15 0)
(3 -2.79024e-15 0)
(3 -1.67388e-15 0)
(3 -9.99122e-16 0)
(3 -2.0928e-15 0)
(3 -1.10245e-07 0)
(3.00291 3.00714e-05 0)
(1.82603 0.572716 0)
(1.01933 0.645773 0)
(1.00781 0.605994 0)
(1.04233 0.583719 0)
(1.07784 0.57197 0)
(1.11757 0.561134 0)
(1.16329 0.550579 0)
(1.21194 0.535017 0)
(1.25966 0.514578 0)
(3 1.79845e-16 0)
(3 2.21566e-16 0)
(3 -2.13708e-16 0)
(3 -6.1571e-16 0)
(3 -5.46647e-16 0)
(3 -3.09301e-16 0)
(3 -1.62295e-16 0)
(3 -4.04918e-17 0)
(3 -6.85341e-16 0)
(3 -1.86521e-15 0)
(3 -2.50501e-15 0)
(3 -2.38325e-15 0)
(3 -1.52273e-15 0)
(3 -3.45139e-09 0)
(3.00001 -3.0242e-07 0)
(2.6415 0.378413 0)
(1.09941 0.631382 0)
(1.0088 0.568895 0)
(1.05291 0.560516 0)
(1.08788 0.551955 0)
(1.12302 0.53979 0)
(1.16313 0.525735 0)
(1.20573 0.507053 0)
(1.2478 0.485066 0)
(3 2.00852e-16 0)
(3 9.12761e-19 0)
(3 -6.04473e-16 0)
(3 -1.33357e-15 0)
(3 -1.54433e-15 0)
(3 -1.22915e-15 0)
(3 -2.563e-16 0)
(3 8.59628e-17 0)
(3 -5.86899e-16 0)
(3 -1.09806e-15 0)
(3 -2.04329e-15 0)
(3 -2.33854e-15 0)
(3 -1.10106e-15 0)
(3 -8.49062e-12 0)
(3 -4.67468e-07 0)
(3.07102 0.0372898 0)
(1.31796 0.550037 0)
(1.02164 0.538308 0)
(1.06069 0.537411 0)
(1.08922 0.527691 0)
(1.12293 0.514757 0)
(1.16245 0.500656 0)
(1.2036 0.482685 0)
(1.24357 0.46234 0)
(3 -2.91871e-16 0)
(3 -6.73439e-16 0)
(3 -8.94265e-16 0)
(3 -1.39721e-15 0)
(3 -1.89772e-15 0)
(3 -2.02614e-15 0)
(3 -1.81763e-15 0)
(3 -1.12437e-15 0)
(3 -6.25839e-16 0)
(3 -1.09369e-15 0)
(3 -9.28121e-16 0)
(3 -5.80756e-16 0)
(3 3.44871e-16 0)
(3 -7.40099e-15 0)
(3 -1.01372e-07 0)
(3.0057 0.000125748 0)
(1.48752 0.464004 0)
(0.982605 0.52603 0)
(1.01903 0.516026 0)
(1.05945 0.497847 0)
(1.10398 0.482068 0)
(1.14926 0.468776 0)
(1.19252 0.452833 0)
(1.23339 0.435404 0)
(3 -1.93164e-17 0)
(3 -1.72532e-16 0)
(3 -4.34556e-16 0)
(3 -1.00652e-15 0)
(3 -1.1138e-15 0)
(3 -5.60684e-16 0)
(3 -9.28231e-16 0)
(3 -1.15127e-15 0)
(3 -2.55186e-16 0)
(3 7.15141e-16 0)
(3 7.4732e-16 0)
(3 8.88375e-16 0)
(3 8.50179e-16 0)
(3 8.28807e-16 0)
(3 -8.74575e-09 0)
(3.00003 -9.94156e-07 0)
(1.85253 0.416303 0)
(0.937962 0.488538 0)
(0.940229 0.46545 0)
(1.00211 0.458612 0)
(1.0594 0.449177 0)
(1.11245 0.437833 0)
(1.16083 0.423144 0)
(1.20594 0.407397 0)
(3 1.26562e-16 0)
(3 2.17018e-16 0)
(3 1.78284e-16 0)
(3 4.85933e-16 0)
(3 7.32018e-16 0)
(3 9.34655e-16 0)
(3 1.30228e-15 0)
(3 1.55804e-15 0)
(3 1.39656e-15 0)
(3 1.39134e-15 0)
(3 2.02265e-15 0)
(3 2.06939e-15 0)
(3 1.42044e-15 0)
(3 1.27994e-15 0)
(3 -4.43099e-11 0)
(3 -1.40717e-06 0)
(2.37489 0.362645 0)
(0.972039 0.461855 0)
(0.909768 0.409111 0)
(0.967224 0.406042 0)
(1.01618 0.406424 0)
(1.06656 0.401724 0)
(1.11576 0.392166 0)
(1.1638 0.380246 0)
(3 1.66337e-16 0)
(3 5.29219e-16 0)
(3 9.36107e-16 0)
(3 2.35608e-15 0)
(3 2.67824e-15 0)
(3 2.24343e-15 0)
(3 2.86958e-15 0)
(3 3.23437e-15 0)
(3 2.64133e-15 0)
(3 2.68352e-15 0)
(3 2.80966e-15 0)
(3 2.27323e-15 0)
(3 1.18844e-15 0)
(3 9.99875e-16 0)
(3 -7.01467e-14 0)
(3 -3.02713e-07 0)
(2.89358 0.158971 0)
(1.09019 0.436539 0)
(0.928603 0.380506 0)
(0.980445 0.376678 0)
(1.01832 0.373654 0)
(1.05845 0.366399 0)
(1.09927 0.356972 0)
(1.14169 0.346715 0)
(3 1.65344e-16 0)
(3 3.73276e-16 0)
(3 1.33949e-15 0)
(3 1.63049e-15 0)
(3 1.76191e-15 0)
(3 1.82029e-15 0)
(3 2.22391e-15 0)
(3 1.78341e-15 0)
(3 2.26052e-15 0)
(3 3.23282e-15 0)
(3 2.84462e-15 0)
(3 1.63306e-15 0)
(3 6.93145e-16 0)
(3 2.48998e-16 0)
(3 -5.91693e-16 0)
(3 -3.10372e-08 0)
(3.01492 0.0133498 0)
(1.19121 0.339772 0)
(0.92174 0.343462 0)
(0.97702 0.343477 0)
(1.01356 0.342202 0)
(1.05009 0.337203 0)
(1.08654 0.329298 0)
(1.1246 0.319882 0)
(3 2.00157e-17 0)
(3 -3.48531e-16 0)
(3 -4.75366e-16 0)
(3 -8.05997e-16 0)
(3 -6.37589e-17 0)
(3 1.94168e-16 0)
(3 2.88613e-16 0)
(3 5.91237e-17 0)
(3 1.27222e-15 0)
(3 1.68727e-15 0)
(3 1.79901e-15 0)
(3 1.84442e-15 0)
(3 1.79368e-15 0)
(3 4.60307e-16 0)
(3 -1.59266e-16 0)
(3 -1.26381e-09 0)
(3.00118 0.000394378 0)
(1.26368 0.277144 0)
(0.873665 0.317086 0)
(0.929611 0.315845 0)
(0.974804 0.317351 0)
(1.01775 0.31168 0)
(1.05863 0.30414 0)
(1.09881 0.294794 0)
(3 -1.97682e-16 0)
(3 -1.41582e-16 0)
(3 -6.38474e-16 0)
(3 -1.4256e-15 0)
(3 -8.77393e-16 0)
(3 -1.39192e-15 0)
(3 -1.92819e-15 0)
(3 -1.90533e-15 0)
(3 -8.42603e-16 0)
(3 -6.82323e-16 0)
(3 4.46357e-16 0)
(3 6.05613e-16 0)
(3 8.29524e-16 0)
(3 -5.31254e-16 0)
(3 -1.43633e-15 0)
(3 -2.71595e-11 0)
(3 2.46913e-07 0)
(1.39472 0.262456 0)
(0.844199 0.274206 0)
(0.874026 0.275643 0)
(0.922911 0.278863 0)
(0.970081 0.277831 0)
(1.01603 0.273499 0)
(1.06002 0.266332 0)
(3 -1.54001e-16 0)
(3 -1.14917e-16 0)
(3 -9.09644e-16 0)
(3 -1.48164e-15 0)
(3 -1.7926e-15 0)
(3 -2.09487e-15 0)
(3 -2.45951e-15 0)
(3 -2.70465e-15 0)
(3 -2.56395e-15 0)
(3 -1.45584e-15 0)
(3 -6.50157e-16 0)
(3 -1.24948e-15 0)
(3 -1.52574e-15 0)
(3 -2.04611e-15 0)
(3 -2.7844e-15 0)
(3 -2.53411e-13 0)
(3 -4.56035e-11 0)
(1.57712 0.266765 0)
(0.845626 0.248088 0)
(0.84309 0.24278 0)
(0.884305 0.244907 0)
(0.924693 0.244921 0)
(0.968899 0.24252 0)
(1.0131 0.23753 0)
(3 1.86495e-17 0)
(3 -3.6907e-17 0)
(3 -3.19937e-16 0)
(3 -3.33389e-16 0)
(3 -1.12236e-15 0)
(3 -6.58788e-16 0)
(3 -6.51315e-16 0)
(3 -8.48065e-16 0)
(3 -2.00087e-15 0)
(3 -2.68063e-15 0)
(3 -3.11278e-15 0)
(3 -3.33159e-15 0)
(3 -2.34671e-15 0)
(3 -1.62688e-15 0)
(3 -1.77503e-15 0)
(3 -1.02701e-15 0)
(3 -7.60175e-11 0)
(1.80781 0.256273 0)
(0.85695 0.235252 0)
(0.834278 0.219148 0)
(0.870913 0.215306 0)
(0.901874 0.212796 0)
(0.938816 0.210717 0)
(0.977569 0.207553 0)
(3 -1.5732e-16 0)
(3 4.28173e-16 0)
(3 1.18461e-15 0)
(3 1.46406e-15 0)
(3 1.15302e-15 0)
(3 1.07609e-15 0)
(3 2.56303e-16 0)
(3 -2.61756e-16 0)
(3 -6.24701e-16 0)
(3 -1.90477e-15 0)
(3 -2.55324e-15 0)
(3 -2.3807e-15 0)
(3 -2.55283e-15 0)
(3 -2.33609e-15 0)
(3 -1.98467e-15 0)
(3 2.24258e-17 0)
(3 -1.68922e-11 0)
(2.06018 0.227762 0)
(0.877912 0.22014 0)
(0.836322 0.198517 0)
(0.875248 0.193188 0)
(0.903023 0.187193 0)
(0.935455 0.182896 0)
(0.968681 0.178771 0)
(3 7.79742e-18 0)
(3 -3.22706e-16 0)
(3 1.46529e-16 0)
(3 7.6792e-16 0)
(3 1.46074e-15 0)
(3 1.15901e-15 0)
(3 8.29941e-16 0)
(3 -2.24755e-16 0)
(3 -6.78995e-16 0)
(3 -1.33784e-15 0)
(3 -1.60861e-15 0)
(3 -1.97546e-15 0)
(3 -2.39899e-15 0)
(3 -2.69108e-15 0)
(3 -2.72954e-15 0)
(3 -1.8953e-15 0)
(3 -1.78347e-12 0)
(2.29127 0.183509 0)
(0.901939 0.197287 0)
(0.837398 0.17572 0)
(0.879589 0.171921 0)
(0.907896 0.166729 0)
(0.938827 0.16228 0)
(0.969669 0.157685 0)
(3 -6.50423e-17 0)
(3 -2.32351e-16 0)
(3 -8.02838e-17 0)
(3 3.04127e-16 0)
(3 7.75402e-16 0)
(3 6.87458e-16 0)
(3 7.33225e-16 0)
(3 -5.03513e-16 0)
(3 -1.42191e-15 0)
(3 -1.72743e-15 0)
(3 -1.39735e-15 0)
(3 -6.07234e-16 0)
(3 4.66423e-16 0)
(3 2.4784e-16 0)
(3 -1.0802e-16 0)
(3 -3.68705e-16 0)
(3 -7.77807e-14 0)
(2.4753 0.142917 0)
(0.923724 0.169296 0)
(0.834007 0.150633 0)
(0.877515 0.148729 0)
(0.907472 0.145388 0)
(0.939146 0.141657 0)
(0.970278 0.137639 0)
(3 -3.61509e-17 0)
(3 9.61062e-17 0)
(3 -4.72752e-17 0)
(3 5.06564e-17 0)
(3 8.63444e-19 0)
(3 -2.87418e-16 0)
(3 -1.31248e-15 0)
(3 -1.54852e-15 0)
(3 -1.51632e-15 0)
(3 -1.04405e-15 0)
(3 -1.66721e-16 0)
(3 4.33906e-16 0)
(3 1.18707e-15 0)
(3 9.31249e-16 0)
(3 6.68214e-16 0)
(3 1.21964e-15 0)
(3 -2.09542e-15 0)
(2.63238 0.105495 0)
(0.954918 0.137808 0)
(0.833536 0.126333 0)
(0.876598 0.124958 0)
(0.907059 0.12307 0)
(0.93945 0.120504 0)
(0.971151 0.117342 0)
(3 1.13602e-16 0)
(3 -2.70649e-16 0)
(3 -8.44947e-16 0)
(3 -1.27245e-15 0)
(3 -1.68489e-15 0)
(3 -1.74328e-15 0)
(3 -1.69277e-15 0)
(3 -1.38747e-15 0)
(3 -1.01573e-15 0)
(3 -3.43236e-16 0)
(3 -2.32509e-16 0)
(3 -4.35176e-16 0)
(3 -3.66334e-16 0)
(3 -5.90833e-16 0)
(3 -6.40151e-16 0)
(3 -5.24128e-16 0)
(3 -8.64795e-16 0)
(2.74501 0.0643516 0)
(0.981424 0.101619 0)
(0.828346 0.100609 0)
(0.871475 0.100018 0)
(0.902012 0.0989196 0)
(0.93456 0.0971562 0)
(0.966466 0.0950939 0)
(3 2.68199e-17 0)
(3 -8.51918e-17 0)
(3 -7.04349e-17 0)
(3 -2.11914e-16 0)
(3 -1.0311e-15 0)
(3 -1.07676e-15 0)
(3 -5.26889e-16 0)
(3 1.04796e-16 0)
(3 6.88542e-16 0)
(3 7.8183e-16 0)
(3 1.12374e-16 0)
(3 -3.53553e-16 0)
(3 -3.58685e-16 0)
(3 -5.51199e-17 0)
(3 -2.82405e-16 0)
(3 -1.31761e-15 0)
(3 -1.91417e-15 0)
(2.80018 0.0359719 0)
(0.990494 0.0704578 0)
(0.815677 0.0771187 0)
(0.857669 0.0772553 0)
(0.887942 0.0772125 0)
(0.920535 0.0762602 0)
(0.952768 0.0747458 0)
(3 3.19468e-17 0)
(3 6.64572e-16 0)
(3 6.53873e-16 0)
(3 8.42984e-16 0)
(3 6.12419e-16 0)
(3 8.21868e-16 0)
(3 1.04778e-15 0)
(3 1.46071e-15 0)
(3 1.653e-15 0)
(3 1.25491e-15 0)
(3 1.12302e-15 0)
(3 1.16335e-15 0)
(3 6.48613e-16 0)
(3 4.81286e-16 0)
(3 5.44498e-16 0)
(3 3.01462e-16 0)
(3 -4.83071e-16 0)
(2.83253 0.0228182 0)
(0.997373 0.0485629 0)
(0.806327 0.0538265 0)
(0.845816 0.0541165 0)
(0.875148 0.0547189 0)
(0.907349 0.054452 0)
(0.939391 0.0536299 0)
(3 -9.01764e-17 0)
(3 5.2371e-16 0)
(3 1.06931e-15 0)
(3 2.90878e-16 0)
(3 4.87061e-16 0)
(3 1.07621e-15 0)
(3 1.38611e-15 0)
(3 1.18381e-15 0)
(3 1.44681e-15 0)
(3 1.64052e-15 0)
(3 1.19697e-15 0)
(3 4.99287e-16 0)
(3 4.49668e-16 0)
(3 9.43219e-16 0)
(3 1.69215e-15 0)
(3 1.29676e-15 0)
(3 8.1624e-16 0)
(2.85701 0.0119437 0)
(1.00713 0.0280184 0)
(0.807204 0.0310988 0)
(0.844302 0.0313005 0)
(0.872326 0.0317787 0)
(0.903456 0.0317097 0)
(0.934619 0.0313012 0)
(3 -1.2026e-16 0)
(3 -2.16424e-17 0)
(3 4.17991e-16 0)
(3 1.87867e-16 0)
(3 1.20495e-16 0)
(3 5.05266e-16 0)
(3 4.39109e-16 0)
(3 1.92786e-16 0)
(3 6.36919e-16 0)
(3 7.94701e-16 0)
(3 1.19099e-16 0)
(3 -1.69967e-16 0)
(3 -8.42922e-17 0)
(3 6.89243e-16 0)
(3 5.73948e-16 0)
(3 -1.31838e-16 0)
(3 -1.60239e-16 0)
(2.86443 0.00206692 0)
(1.00757 0.00650896 0)
(0.802871 0.00949426 0)
(0.83797 0.0101785 0)
(0.864939 0.0110546 0)
(0.895611 0.0113353 0)
(0.926554 0.0113694 0)
(1.30062 1.3816 0)
(0.413751 0.709332 0)
(0.0463981 0.141702 0)
(0.024371 -0.00677815 0)
(0.0131792 -0.00768232 0)
(0.00540044 0.0104525 0)
(-0.00863765 0.0223854 0)
(-0.0209732 0.0209788 0)
(-0.0256097 0.0173281 0)
(-0.0285193 0.0163233 0)
(-0.0322354 0.0142817 0)
(-0.0362935 0.012326 0)
(-0.0408947 0.009156 0)
(-0.0411215 0.00429791 0)
(-0.0361028 -0.00243797 0)
(-0.0260509 -0.00949351 0)
(-0.0131305 -0.0153411 0)
(0.000607539 -0.0197355 0)
(0.0161289 -0.0229531 0)
(0.0350741 -0.0260455 0)
(0.0577646 -0.0292897 0)
(0.0831945 -0.0318491 0)
(0.110231 -0.0334137 0)
(0.138978 -0.0344419 0)
(0.170241 -0.0352878 0)
(0.204086 -0.0363935 0)
(0.239915 -0.0377598 0)
(0.276841 -0.0389383 0)
(0.313943 -0.039653 0)
(0.351008 -0.0398192 0)
(0.388133 -0.0395699 0)
(0.425505 -0.0392099 0)
(0.463134 -0.0390818 0)
(0.500961 -0.0391933 0)
(0.538753 -0.0394027 0)
(0.57626 -0.0394895 0)
(0.613163 -0.0391769 0)
(0.649235 -0.0383714 0)
(0.684618 -0.0373115 0)
(0.719812 -0.0362061 0)
(0.755193 -0.0350644 0)
(0.790608 -0.033933 0)
(0.825916 -0.0327357 0)
(0.860622 -0.0314077 0)
(0.8946 -0.0297784 0)
(0.927971 -0.0280752 0)
(0.961018 -0.0266237 0)
(0.993767 -0.0256236 0)
(1.02575 -0.0249507 0)
(1.05614 -0.0241741 0)
(1.0844 -0.0231199 0)
(1.11076 -0.0217258 0)
(1.13593 -0.0201025 0)
(1.16051 -0.0184346 0)
(1.18467 -0.0169492 0)
(1.20837 -0.0156457 0)
(1.23152 -0.0142733 0)
(1.25416 -0.0126751 0)
(1.27651 -0.0109367 0)
(1.29899 -0.00946664 0)
(1.32202 -0.00853092 0)
(1.34533 -0.00779509 0)
(1.36742 -0.0071249 0)
(1.38727 -0.00678207 0)
(1.40515 -0.00684298 0)
(1.42212 -0.00683892 0)
(1.43879 -0.00663244 0)
(1.45507 -0.00614367 0)
(1.47017 -0.0053731 0)
(1.48404 -0.00453162 0)
(1.49733 -0.00385307 0)
(1.51057 -0.00316673 0)
(1.52434 -0.0024962 0)
(1.53946 -0.00207939 0)
(1.55614 -0.00196818 0)
(1.57253 -0.0019792 0)
(1.58632 -0.00188969 0)
(1.59779 -0.0018047 0)
(1.60804 -0.00182883 0)
(1.61682 -0.00196039 0)
(1.62324 -0.00202815 0)
(1.62807 -0.00198684 0)
(1.63122 -0.00190639 0)
(1.63232 -0.00205367 0)
(1.6324 -0.00243566 0)
(1.63181 -0.00318094 0)
(1.63088 -0.00436212 0)
(1.62996 -0.00556795 0)
(1.62795 -0.00642712 0)
(1.62354 -0.00690623 0)
(1.61613 -0.00650333 0)
(1.60679 -0.00549563 0)
(1.59723 -0.00496745 0)
(1.59036 -0.00482016 0)
(1.58682 -0.00535233 0)
(1.58097 -0.00631147 0)
(1.74135 1.20142 0)
(1.30333 0.735746 0)
(0.911562 0.217637 0)
(0.580525 0.00497297 0)
(0.341002 0.0063203 0)
(0.210862 0.0515584 0)
(0.144993 0.0609608 0)
(0.111431 0.0564689 0)
(0.0886569 0.0503356 0)
(0.0699564 0.0425847 0)
(0.054418 0.0314431 0)
(0.049695 0.00990747 0)
(0.0476342 -0.00547674 0)
(0.0488004 -0.0169932 0)
(0.0552481 -0.0289264 0)
(0.0708891 -0.0390391 0)
(0.0920973 -0.0472236 0)
(0.115524 -0.0543135 0)
(0.138068 -0.059938 0)
(0.160511 -0.0629224 0)
(0.185289 -0.0645468 0)
(0.213856 -0.0667368 0)
(0.246105 -0.0682081 0)
(0.280371 -0.0672754 0)
(0.314505 -0.0639934 0)
(0.347931 -0.060189 0)
(0.381641 -0.05817 0)
(0.41671 -0.0585705 0)
(0.453499 -0.0599497 0)
(0.491111 -0.059699 0)
(0.528429 -0.0576323 0)
(0.564374 -0.0541241 0)
(0.598629 -0.05059 0)
(0.6322 -0.0482268 0)
(0.666277 -0.0479838 0)
(0.701188 -0.0494091 0)
(0.736227 -0.0509454 0)
(0.770161 -0.0510955 0)
(0.802203 -0.0498096 0)
(0.832812 -0.0482327 0)
(0.863162 -0.0470999 0)
(0.894137 -0.0468246 0)
(0.925996 -0.0467666 0)
(0.958211 -0.0459904 0)
(0.989671 -0.0433607 0)
(1.01971 -0.0390873 0)
(1.0481 -0.0344318 0)
(1.0757 -0.0311056 0)
(1.10334 -0.0300597 0)
(1.1309 -0.0302674 0)
(1.15708 -0.0296564 0)
(1.1805 -0.0274471 0)
(1.20155 -0.0248336 0)
(1.22174 -0.0229326 0)
(1.24222 -0.0220585 0)
(1.26341 -0.0219972 0)
(1.28512 -0.0219514 0)
(1.30688 -0.0208545 0)
(1.32819 -0.0181642 0)
(1.34902 -0.0145893 0)
(1.36964 -0.0115802 0)
(1.39016 -0.010048 0)
(1.4104 -0.00855604 0)
(1.42906 -0.0068265 0)
(1.44548 -0.00550397 0)
(1.46032 -0.00465237 0)
(1.47422 -0.00445793 0)
(1.48789 -0.00501312 0)
(1.50203 -0.00554408 0)
(1.51578 -0.00476853 0)
(1.52863 -0.00316276 0)
(1.54124 -0.000950577 0)
(1.55404 0.00181574 0)
(1.56734 0.00412614 0)
(1.58138 0.00477902 0)
(1.59581 0.00370179 0)
(1.6092 0.00239508 0)
(1.62068 0.0017402 0)
(1.63041 0.00116042 0)
(1.63835 5.36219e-05 0)
(1.64489 -0.000978691 0)
(1.65019 -0.00122166 0)
(1.65411 -0.000539803 0)
(1.65568 0.00135473 0)
(1.65462 0.00295967 0)
(1.65269 0.00321989 0)
(1.65017 0.00177947 0)
(1.64763 -0.00260177 0)
(1.64555 -0.00840111 0)
(1.64256 -0.0131516 0)
(1.63845 -0.014429 0)
(1.63182 -0.0108924 0)
(1.62319 -0.0045348 0)
(1.61508 0.000364701 0)
(1.60753 0.00114108 0)
(1.59917 -0.00293452 0)
(1.68633 1.03344 0)
(1.5863 0.919083 0)
(1.51969 0.692446 0)
(1.27886 0.510026 0)
(0.955282 0.372609 0)
(0.732896 0.281609 0)
(0.607811 0.201762 0)
(0.529542 0.137837 0)
(0.469411 0.0929591 0)
(0.414992 0.0613034 0)
(0.37136 0.0243384 0)
(0.355389 -0.0118171 0)
(0.359862 -0.0365205 0)
(0.36553 -0.0473737 0)
(0.373892 -0.0482179 0)
(0.388186 -0.0482762 0)
(0.409437 -0.055807 0)
(0.440638 -0.0670828 0)
(0.475565 -0.0729026 0)
(0.506458 -0.0729986 0)
(0.533915 -0.0731877 0)
(0.562002 -0.076508 0)
(0.594031 -0.0838646 0)
(0.631139 -0.0923298 0)
(0.669978 -0.0986863 0)
(0.706296 -0.101829 0)
(0.739031 -0.102414 0)
(0.76889 -0.102359 0)
(0.798202 -0.103899 0)
(0.829002 -0.107622 0)
(0.861502 -0.111276 0)
(0.893824 -0.112943 0)
(0.923746 -0.112148 0)
(0.950623 -0.109565 0)
(0.975812 -0.106227 0)
(1.00079 -0.103541 0)
(1.02627 -0.102016 0)
(1.05194 -0.100763 0)
(1.07668 -0.0986087 0)
(1.09954 -0.095056 0)
(1.12062 -0.090572 0)
(1.1413 -0.0863759 0)
(1.16268 -0.0839042 0)
(1.18531 -0.082975 0)
(1.20903 -0.0820193 0)
(1.23258 -0.0795739 0)
(1.25455 -0.0754502 0)
(1.27444 -0.0707916 0)
(1.29326 -0.0672807 0)
(1.3122 -0.0654228 0)
(1.33158 -0.0640615 0)
(1.34981 -0.0612655 0)
(1.36561 -0.0568375 0)
(1.37979 -0.0515718 0)
(1.39358 -0.0465994 0)
(1.40778 -0.0434219 0)
(1.42294 -0.0419633 0)
(1.43946 -0.0412228 0)
(1.45685 -0.0401936 0)
(1.4742 -0.0382876 0)
(1.49085 -0.0355018 0)
(1.50667 -0.0326572 0)
(1.52213 -0.0309095 0)
(1.53717 -0.0297825 0)
(1.55016 -0.0289774 0)
(1.56196 -0.0279083 0)
(1.57268 -0.0252749 0)
(1.58246 -0.0223926 0)
(1.59284 -0.0210903 0)
(1.60358 -0.0209486 0)
(1.61414 -0.0205511 0)
(1.62451 -0.019248 0)
(1.63512 -0.0170231 0)
(1.64604 -0.0141333 0)
(1.65719 -0.011242 0)
(1.66832 -0.00957592 0)
(1.67914 -0.00923273 0)
(1.68913 -0.00949184 0)
(1.69701 -0.00973012 0)
(1.70325 -0.00987801 0)
(1.7076 -0.0109485 0)
(1.71135 -0.0133029 0)
(1.71463 -0.0160872 0)
(1.71634 -0.0177926 0)
(1.71673 -0.0178014 0)
(1.71486 -0.0156964 0)
(1.71159 -0.0126245 0)
(1.70819 -0.0101976 0)
(1.70268 -0.00943658 0)
(1.69631 -0.0117905 0)
(1.69226 -0.0174795 0)
(1.69125 -0.0222781 0)
(1.68819 -0.0216702 0)
(1.68006 -0.0176711 0)
(1.6715 -0.0114359 0)
(1.65963 -0.00589568 0)
(1.59357 0.939195 0)
(1.62267 0.862129 0)
(1.70276 0.7529 0)
(1.74946 0.60016 0)
(1.59601 0.456758 0)
(1.4492 0.313775 0)
(1.32875 0.200125 0)
(1.20438 0.136991 0)
(1.09706 0.0984957 0)
(1.01673 0.0611919 0)
(0.949241 0.0464095 0)
(0.900323 0.0294326 0)
(0.890962 0.00704805 0)
(0.89866 -0.0130564 0)
(0.906016 -0.0233356 0)
(0.915468 -0.0274678 0)
(0.928681 -0.0350003 0)
(0.949817 -0.0497231 0)
(0.980702 -0.0719765 0)
(1.01591 -0.0917258 0)
(1.04558 -0.101413 0)
(1.06997 -0.103903 0)
(1.09285 -0.104088 0)
(1.11799 -0.107377 0)
(1.14643 -0.114673 0)
(1.17572 -0.121853 0)
(1.20273 -0.124587 0)
(1.22537 -0.121886 0)
(1.24427 -0.116445 0)
(1.26205 -0.111557 0)
(1.28074 -0.109722 0)
(1.30064 -0.110186 0)
(1.32015 -0.111052 0)
(1.3374 -0.110545 0)
(1.35196 -0.108003 0)
(1.36487 -0.10424 0)
(1.37755 -0.10073 0)
(1.39079 -0.0980169 0)
(1.40452 -0.0957689 0)
(1.4179 -0.0930357 0)
(1.43006 -0.0887746 0)
(1.44126 -0.0829111 0)
(1.45249 -0.0757225 0)
(1.46487 -0.068927 0)
(1.47861 -0.06407 0)
(1.49346 -0.0610114 0)
(1.50793 -0.058465 0)
(1.52013 -0.0552944 0)
(1.53043 -0.0517172 0)
(1.54079 -0.0481997 0)
(1.55204 -0.0454532 0)
(1.56359 -0.0435453 0)
(1.57357 -0.0422466 0)
(1.583 -0.0398299 0)
(1.59151 -0.0353395 0)
(1.59942 -0.0294754 0)
(1.6086 -0.023992 0)
(1.61931 -0.0195156 0)
(1.63081 -0.0157198 0)
(1.64274 -0.0128926 0)
(1.65477 -0.0108627 0)
(1.66629 -0.00922023 0)
(1.67711 -0.00815077 0)
(1.68755 -0.00801395 0)
(1.69705 -0.00842001 0)
(1.70524 -0.0080526 0)
(1.71243 -0.00737636 0)
(1.71894 -0.00679076 0)
(1.72556 -0.00546239 0)
(1.7328 -0.00439345 0)
(1.74022 -0.00371485 0)
(1.74736 -0.00240222 0)
(1.75453 -0.00033585 0)
(1.76269 0.00115645 0)
(1.77104 0.00127231 0)
(1.77922 0.00124494 0)
(1.78725 0.00111738 0)
(1.7943 0.000492493 0)
(1.80029 -0.000245863 0)
(1.80509 -0.000330314 0)
(1.80723 -0.00027662 0)
(1.80717 -0.00221582 0)
(1.80839 -0.0058355 0)
(1.80914 -0.0107752 0)
(1.80835 -0.0161753 0)
(1.8063 -0.0210815 0)
(1.80404 -0.023871 0)
(1.8004 -0.0245661 0)
(1.79534 -0.023877 0)
(1.78964 -0.0217048 0)
(1.78448 -0.0194286 0)
(1.78184 -0.0195738 0)
(1.78089 -0.0220915 0)
(1.77579 -0.0232798 0)
(1.76747 -0.0229774 0)
(1.75574 -0.018076 0)
(1.50825 0.814816 0)
(1.56799 0.764857 0)
(1.66264 0.69251 0)
(1.77205 0.613116 0)
(1.79154 0.520545 0)
(1.77214 0.434097 0)
(1.74908 0.352602 0)
(1.69248 0.28844 0)
(1.61707 0.222553 0)
(1.55996 0.163576 0)
(1.51537 0.115659 0)
(1.46689 0.0756321 0)
(1.43737 0.0348456 0)
(1.43821 -0.00188849 0)
(1.44156 -0.036586 0)
(1.44008 -0.0581823 0)
(1.44245 -0.0714811 0)
(1.448 -0.0867846 0)
(1.45894 -0.103228 0)
(1.47732 -0.117787 0)
(1.49586 -0.12901 0)
(1.50804 -0.135423 0)
(1.51685 -0.138255 0)
(1.52575 -0.139337 0)
(1.53685 -0.140084 0)
(1.55027 -0.141405 0)
(1.56399 -0.142399 0)
(1.57514 -0.141221 0)
(1.58287 -0.137792 0)
(1.58845 -0.133248 0)
(1.59387 -0.128391 0)
(1.60062 -0.123449 0)
(1.60886 -0.119544 0)
(1.61697 -0.116861 0)
(1.62323 -0.112886 0)
(1.62769 -0.107185 0)
(1.63177 -0.100731 0)
(1.63646 -0.0942455 0)
(1.64208 -0.0890054 0)
(1.64838 -0.0858706 0)
(1.65505 -0.0838012 0)
(1.66128 -0.0797804 0)
(1.66705 -0.0737341 0)
(1.67354 -0.0675211 0)
(1.68103 -0.0623369 0)
(1.68967 -0.0586059 0)
(1.69824 -0.0561497 0)
(1.70543 -0.054008 0)
(1.71243 -0.0499608 0)
(1.71944 -0.0438453 0)
(1.72611 -0.0384275 0)
(1.73244 -0.0362462 0)
(1.73859 -0.0360391 0)
(1.74477 -0.0352972 0)
(1.75136 -0.0325512 0)
(1.75836 -0.0283448 0)
(1.76595 -0.0232966 0)
(1.77388 -0.018388 0)
(1.78164 -0.0148407 0)
(1.78947 -0.0132732 0)
(1.79784 -0.0128269 0)
(1.80663 -0.012259 0)
(1.81532 -0.0113727 0)
(1.82344 -0.0103834 0)