/*--------------------------------*- C++ -*----------------------------------*\
  =========                 |
  \\      /  F ield         | OpenFOAM: The Open Source CFD Toolbox
   \\    /   O peration     | Website:  https://openfoam.org
    \\  /    A nd           | Version:  7
     \\/     M anipulation  |
\*---------------------------------------------------------------------------*/
FoamFile
{
    version     2.0;
    format      ascii;
    class       surfaceScalarField;
    location    "170";
    object      phi;
}
// * * * * * * * * * * * * * * * * * * * * * * * * * * * * * * * * * * * * * //

dimensions      [0 3 -1 0 0 0 0];

internalField   nonuniform List<scalar> 
3883
(
-0.00714952
0.0028666
-0.00721942
0.0027617
0.00258994
-0.00696823
-0.00728605
0.00265657
0.00248794
-0.007033
-0.00734931
0.0025512
0.00238579
-0.00709403
-0.0074091
0.00244559
0.00228348
-0.0071513
-0.00746534
0.00233972
0.00212757
-0.00691029
0.00218101
-0.00720474
-0.00751792
0.00223359
0.00202882
-0.0069593
0.00207838
-0.0072543
-0.00756675
0.00212722
0.00192998
-0.00700445
0.0019756
-0.00729992
-0.00761175
0.0020206
0.00183106
-0.0070457
0.00187268
-0.00734155
-0.00765284
0.00191377
0.00169476
-0.00679823
0.00173206
-0.007083
0.00176964
-0.00737913
-0.00768992
0.00180673
0.00159971
-0.00683158
0.00163302
-0.00711631
0.0016665
-0.00741261
-0.00772293
0.00169951
0.00150468
-0.00686096
0.00153395
-0.00714558
0.00156328
-0.00744194
-0.0077518
0.00159215
0.00140969
-0.00688635
0.00143489
-0.00717077
0.00146002
-0.00746708
-0.00777645
0.00148467
0.00131478
-0.00690771
0.00133585
-0.00719184
0.00135675
-0.00748797
-0.00779682
0.00137712
0.00121997
-0.00692501
0.00123688
-0.00720875
0.0012535
-0.00750459
-0.00781285
0.00126953
0.00112529
-0.00693823
0.00113802
-0.00722148
0.00115031
-0.00751688
-0.00782449
0.00116195
0.00103079
-0.00694733
0.00103929
-0.00722998
0.00104723
-0.00752482
-0.00783169
0.00105443
0.000936499
-0.0069523
0.000940745
-0.00723422
0.000944302
-0.00752838
-0.00783441
0.000947019
0.000841646
-0.00668432
0.000842453
-0.00695311
0.000842422
-0.00723419
0.000841567
-0.00752752
-0.00783261
0.000839765
0.000752068
-0.00668192
0.000748697
-0.00694974
0.000744366
-0.00722986
0.000739074
-0.00752223
-0.00782626
0.000732725
0.000662839
-0.00667544
0.000655272
-0.00694217
0.000646622
-0.00722121
0.000636875
-0.00751249
-0.00781534
0.000625958
0.000573997
-0.00666488
0.000562221
-0.00693039
0.000549235
-0.00720822
0.000535019
-0.00749827
-0.00779984
0.000519518
0.000485585
-0.00665021
0.000469585
-0.00691439
0.000452251
-0.00719089
0.000433555
-0.00747957
-0.00777973
0.000413448
0.000397644
0.000377409
-0.00689416
0.000355711
-0.00716919
0.000332531
-0.00745639
-0.007755
0.000307795
0.000285739
-0.00686968
0.000259665
-0.00714312
0.000231978
-0.00742871
-0.00772563
0.00020261
0.000194633
-0.00684095
0.00016418
-0.00711266
0.000131909
-0.00739644
9.78805e-05
0.000104142
6.93399e-05
0.00668897
-0.000158438
-0.00668565
0.00668522
-0.000286721
0.00667605
-0.00041948
0.0066589
-0.000558724
0.00663165
-0.000706192
0.00659336
-0.000860253
0.00654329
-0.00101819
0.00648079
-0.00117748
0.00640557
-0.00133547
0.00631788
-0.00148911
0.00621844
-0.00163508
0.00610837
-0.00177008
-0.00189108
0.00686675
-0.000159907
-0.00686529
0.00686149
-0.000281456
0.00685001
-0.000408005
0.00683086
-0.000539572
0.0068022
-0.000677534
0.00676299
-0.000821036
0.00671259
-0.000967793
0.00665052
-0.00111541
0.00657655
-0.0012615
0.00649088
-0.00140344
0.00639414
-0.00153833
0.00628732
-0.00166326
-0.00177548
0.00704826
-0.000159961
-0.0070482
0.00704173
-0.000274932
0.00702843
-0.000394702
0.00700752
-0.000518663
0.00697763
-0.000647642
0.00693773
-0.000781136
0.00688723
-0.000917295
0.00682576
-0.00105393
0.00675316
-0.00118889
0.00666959
-0.00131987
0.00657559
-0.00144434
0.00647207
-0.00155974
-0.00166357
0.00723455
-0.00015865
-0.00723586
0.00722661
-0.000266998
0.00721177
-0.00037986
0.00718941
-0.0004963
0.0071585
-0.000616728
0.00711812
-0.000740763
0.00706773
-0.000866906
0.00700702
-0.000993222
0.00693588
-0.00111775
0.00685447
-0.00123845
0.00676327
-0.00135314
0.00666306
-0.00145953
-0.00155539
0.00742566
-0.000155788
-0.00742853
0.0074164
-0.00025773
0.00740029
-0.000363756
0.00737679
-0.000472798
0.0073451
-0.000585037
0.00730447
-0.00070013
0.00725439
-0.000816826
0.0071946
-0.000933433
0.00712504
-0.00104819
0.00704587
-0.00115928
0.00695751
-0.00126479
0.00686066
-0.00136268
-0.00145098
0.00762174
-0.000151629
-0.0076259
0.00761136
-0.000247343
0.00759425
-0.000346645
0.00756991
-0.000448459
0.00753771
-0.000552845
0.00749706
-0.000659472
0.0074475
-0.000767268
0.00738882
-0.000874753
0.00732098
-0.000980352
0.00724415
-0.00108245
0.00715871
-0.00117935
0.00706529
-0.00126926
-0.0013504
0.00782324
-0.000146444
-0.00782842
0.00781192
-0.000236028
0.00779404
-0.000328767
0.00776916
-0.000423573
0.00773675
-0.000520433
0.00769631
-0.00061904
0.0076475
-0.000718454
0.00759012
-0.000817373
0.00752416
-0.000914393
0.00744979
-0.00100808
0.00736735
-0.00109691
0.00727741
-0.00117932
-0.00125371
0.00803079
-0.000140397
-0.00803683
0.00801875
-0.000223986
0.00800033
-0.000310355
0.00797516
-0.000398401
0.00794279
-0.000488066
0.00790283
-0.000579072
0.00785496
-0.000670592
0.00779906
-0.00076147
0.00773512
-0.000850455
0.00766331
-0.000936265
0.00758396
-0.00101756
0.00749757
-0.00109294
-0.00116096
0.00824524
-0.000133659
-0.00825198
0.00823266
-0.000211409
0.00821392
-0.00029161
0.00818868
-0.000373159
0.00815658
-0.000455964
0.00811728
-0.000539775
0.00807055
-0.000623863
0.00801628
-0.000707197
0.00795448
-0.000788661
0.00788533
-0.000867109
0.00780912
-0.000941351
0.00772632
-0.00101014
-0.00107219
0.00846747
-0.000126362
-0.00847477
0.00845451
-0.000198445
0.0084356
-0.000272696
0.00841046
-0.000348026
0.00837881
-0.000424307
0.00834035
-0.000501317
0.0082949
-0.000578412
0.00824237
-0.000654674
0.00818282
-0.000729103
0.00811638
-0.000800675
0.00804336
-0.000868329
0.00796418
-0.000930953
-0.000987405
0.00869818
-0.000118604
-0.00870594
0.00868496
-0.000185221
0.00866602
-0.000253758
0.00864115
-0.000323151
0.00861008
-0.000393245
0.0085726
-0.000463838
0.00852855
-0.000534361
0.00847788
-0.000604
0.00842063
-0.000671855
0.00835697
-0.00073701
0.00828716
-0.000798521
0.0082116
-0.000855395
-0.000906612
0.00893789
-0.000110486
-0.00894601
0.00892453
-0.000171859
0.0089057
-0.000234929
0.00888122
-0.000298671
0.00885088
-0.00036291
0.00881451
-0.000427458
0.00877196
-0.000491817
0.00872322
-0.00055526
0.00866835
-0.00061698
0.00860749
-0.000676157
0.00854092
-0.000731948
0.00846899
-0.000783469
-0.000829807
0.00918701
-0.000102114
-0.00919538
0.00917363
-0.000158477
0.00915503
-0.000216335
0.00913108
-0.000274715
0.00910159
-0.000333426
0.00906643
-0.000392293
0.00902549
-0.000450877
0.00897876
-0.000508532
0.00892632
-0.000564536
0.00886831
-0.000618152
0.00880499
-0.000668628
0.0087367
-0.000715176
-0.000756984
0.00944594
-9.35942e-05
-0.00945446
0.00943265
-0.000145188
0.00941441
-0.000198097
0.0093911
-0.000251404
0.00936258
-0.000304907
0.00932873
-0.000358445
0.00928949
-0.000411631
0.00924484
-0.00046389
0.00919488
-0.000514576
0.00913976
-0.00056303
0.00907971
-0.000608577
0.00901505
-0.00065052
-0.000688131
0.00971509
-8.50285e-05
-0.00972366
0.009702
-0.000132101
0.00968423
-0.000180327
0.00966168
-0.000228849
0.00963423
-0.000277461
0.0096018
-0.000326012
0.00956433
-0.000374161
0.00952184
-0.000421399
0.00947441
-0.000467149
0.0094222
-0.000510818
0.00936543
-0.000551808
0.00930441
-0.000589495
-0.000623234
0.00999495
-7.65136e-05
-0.0100035
0.00998217
-0.000119316
0.00996497
-0.000163127
0.00994327
-0.00020715
0.00991699
-0.00025118
0.00988605
-0.000295077
0.00985043
-0.000338539
0.00981015
-0.000381116
0.00976529
-0.000422292
0.00971601
-0.00046154
0.00966253
-0.000498324
0.00960513
-0.000532091
-0.000562269
0.0102861
-6.81381e-05
-0.0102944
0.0102737
-0.000106922
0.0102571
-0.000146587
0.0102364
-0.000186395
0.0102113
-0.000226147
0.010182
-0.000265711
0.0101482
-0.000304822
0.0101102
-0.000343083
0.010068
-0.000380034
0.0100216
-0.000415204
0.00997142
-0.000448119
0.00991761
-0.000478286
-0.0005052
0.0105889
-5.99828e-05
-0.0105971
0.010577
-9.50014e-05
0.0105612
-0.000130785
0.0105415
-0.000166659
0.0105178
-0.000202428
0.01049
-0.000237972
0.0104583
-0.000273056
0.0104225
-0.000307329
0.0103829
-0.000340387
0.0103395
-0.000371809
0.0102925
-0.000401173
0.0102423
-0.000428045
-0.000451978
0.0109042
-5.21219e-05
-0.0109121
0.0108928
-8.36253e-05
0.0108778
-0.000115791
0.0108592
-0.000148004
0.0108368
-0.000180079
0.0108108
-0.000211902
0.010781
-0.000243269
0.0107475
-0.000273872
0.0107105
-0.000303352
0.01067
-0.000331337
0.0106263
-0.000357453
0.0105796
-0.000381318
-0.000402538
0.0112325
-4.46224e-05
-0.0112399
0.0112217
-7.28569e-05
0.0112076
-0.000101663
0.01119
-0.000130482
0.0111691
-0.00015914
0.0111447
-0.000187532
0.0111169
-0.00021548
0.0110858
-0.000242712
0.0110513
-0.000268914
0.0110138
-0.000293758
0.0109732
-0.000316912
0.0109299
-0.000338041
-0.000356801
0.0115743
-3.75446e-05
-0.0115814
0.0115642
-6.27507e-05
0.011551
-8.84467e-05
0.0115346
-0.000114131
0.0115151
-0.00013964
0.0114925
-0.000164878
0.0114667
-0.000189689
0.0114378
-0.000213837
0.0114059
-0.000237046
0.0113712
-0.000259026
0.0113338
-0.000279488
0.0112939
-0.000298137
-0.000314673
0.0119303
-3.09417e-05
-0.0119369
0.0119209
-5.33524e-05
0.0119087
-7.61811e-05
0.0118935
-9.89792e-05
0.0118755
-0.000121596
0.0118545
-0.000143944
0.0118307
-0.000165887
0.0118041
-0.000187221
0.0117748
-0.000207703
0.0117428
-0.000227081
0.0117084
-0.000245103
0.0116718
-0.00026151
-0.000276043
0.0123013
-2.48599e-05
-0.0123073
0.0122926
-4.4699e-05
0.0122813
-6.4893e-05
0.0122674
-8.50432e-05
0.0122508
-0.000105012
0.0122316
-0.000124719
0.0122097
-0.000144048
0.0121853
-0.000162821
0.0121585
-0.000180828
0.0121292
-0.00019785
0.0120978
-0.000213665
0.0120643
-0.000228052
-0.000240785
0.0126877
-1.93376e-05
-0.0126932
0.0126798
-3.68189e-05
0.0126695
-5.45995e-05
0.0126568
-7.23279e-05
0.0126417
-8.98789e-05
0.0126242
-0.000107182
0.0126042
-0.000124134
0.012582
-0.000140584
0.0125575
-0.00015635
0.0125309
-0.000171242
0.0125023
-0.000185069
0.0124719
-0.000197639
-0.000208759
0.0130904
-1.44056e-05
-0.0130954
0.0130833
-2.97311e-05
0.0130741
-4.53076e-05
0.0130626
-6.08275e-05
0.0130488
-7.6178e-05
0.013033
-9.12963e-05
0.0130149
-0.000106094
0.0129948
-0.000120442
0.0129726
-0.000134184
0.0129485
-0.000147156
0.0129227
-0.000159194
0.0128952
-0.000170135
-0.000179812
0.0135101
-1.00861e-05
-0.0135144
0.0135038
-2.34457e-05
0.0134955
-3.70144e-05
0.0134852
-5.0525e-05
0.0134729
-6.38774e-05
0.0134586
-7.70158e-05
0.0134424
-8.98647e-05
0.0134243
-0.000102314
0.0134043
-0.000114231
0.0133827
-0.000125476
0.0133594
-0.000135908
0.0133346
-0.000145388
-0.000153775
0.0139475
-6.39341e-06
-0.0139512
0.013942
-1.79632e-05
0.0139347
-2.97062e-05
0.0139256
-4.13927e-05
0.0139147
-5.2934e-05
0.0139019
-6.42809e-05
0.0138874
-7.53696e-05
0.0138712
-8.61072e-05
0.0138534
-9.63815e-05
0.013834
-0.000106074
0.0138131
-0.000115065
0.013791
-0.000123237
-0.000130472
0.0144035
-3.33327e-06
-0.0144066
0.0143988
-1.32743e-05
0.0143925
-2.33592e-05
0.0143845
-3.33918e-05
0.0143748
-4.32932e-05
0.0143636
-5.30209e-05
0.0143507
-6.25211e-05
0.0143363
-7.17164e-05
0.0143205
-8.05125e-05
0.0143032
-8.88095e-05
0.0142846
-9.65075e-05
0.0142649
-0.000103508
-0.000109711
0.0148789
-9.02684e-07
-0.0148813
0.014875
-9.3592e-06
0.0148695
-1.79405e-05
0.0148626
-2.64732e-05
0.0148542
-3.48893e-05
0.0148444
-4.31529e-05
0.0148331
-5.12195e-05
0.0148204
-5.90244e-05
0.0148063
-6.64893e-05
0.0147911
-7.35312e-05
0.0147746
-8.0067e-05
0.0147571
-8.60145e-05
-9.12922e-05
0.0153746
9.22731e-07
-0.0153764
0.0153714
-6.19314e-06
0.0153669
-1.34048e-05
0.015361
-2.0575e-05
0.0153538
-2.7645e-05
0.0153452
-3.45835e-05
0.0153353
-4.13533e-05
0.0153242
-4.7902e-05
0.0153119
-5.41655e-05
0.0152984
-6.00755e-05
0.0152839
-6.55635e-05
0.0152685
-7.05622e-05
-7.50051e-05
0.0158917
2.1675e-06
-0.0158929
0.0158892
-3.7351e-06
0.0158855
-9.69775e-06
0.0158805
-1.5627e-05
0.0158744
-2.14718e-05
0.015867
-2.72057e-05
0.0158584
-3.27985e-05
0.0158487
-3.8208e-05
0.015838
-4.33824e-05
0.0158262
-4.82664e-05
0.0158134
-5.28047e-05
0.0157998
-5.69429e-05
-6.06278e-05
0.0164312
2.85254e-06
-0.0164319
0.0164294
-1.93251e-06
0.0164264
-6.7496e-06
0.0164224
-1.15424e-05
0.0164171
-1.62662e-05
0.0164108
-2.08989e-05
0.0164035
-2.54167e-05
0.016395
-2.97863e-05
0.0163856
-3.39669e-05
0.0163753
-3.79145e-05
0.0163641
-4.15855e-05
0.016352
-4.49369e-05
-4.79266e-05
0.0169944
3.02716e-06
-0.0169946
0.0169932
-7.23189e-07
0.0169909
-4.47989e-06
0.0169876
-8.22315e-06
0.0169832
-1.19119e-05
0.0169779
-1.55289e-05
0.0169715
-1.90556e-05
0.0169642
-2.2467e-05
0.0169559
-2.57313e-05
0.0169468
-2.88152e-05
0.0169369
-3.16852e-05
0.0169263
-3.43083e-05
-3.66528e-05
0.0175826
2.75084e-06
-0.0175823
0.0175819
-2.86827e-08
0.0175802
-2.79181e-06
0.0175776
-5.55356e-06
0.0175739
-8.27479e-06
0.0175693
-1.09425e-05
0.0175638
-1.35434e-05
0.0175574
-1.60591e-05
0.0175502
-1.8467e-05
0.0175421
-2.07429e-05
0.0175333
-2.28623e-05
0.0175238
-2.48017e-05
-2.65378e-05
0.0181974
2.09077e-06
-0.0181967
0.0181971
2.54395e-07
0.0181959
-1.58053e-06
0.0181938
-3.40491e-06
0.0181907
-5.20378e-06
0.0181867
-6.96742e-06
0.0181819
-8.68678e-06
0.0181761
-1.035e-05
0.0181696
-1.19423e-05
0.0181623
-1.34478e-05
0.0181543
-1.48508e-05
0.0181457
-1.61356e-05
-1.72874e-05
0.0188405
1.14618e-06
-0.0188396
0.0188405
2.28028e-07
0.0188397
-6.96157e-07
0.0188379
-1.61227e-06
0.0188352
-2.51402e-06
0.0188316
-3.39762e-06
0.0188272
-4.25897e-06
0.0188219
-5.09209e-06
0.0188159
-5.88971e-06
0.0188091
-6.64401e-06
0.0188016
-7.34711e-06
0.0187934
-7.99138e-06
-8.56941e-06
0.0195139
-0.0195127
0.0195141
0.0195134
0.0195118
0.0195093
0.0195059
0.0195016
0.0194965
0.0194906
0.019484
0.0194766
0.0194686
0.000601084
0.00479528
-0.0047704
0.000576288
0.00494831
-0.00492352
0.000551843
0.00510656
-0.00508211
0.00052792
0.00527088
-0.00524696
0.000504542
0.00544146
-0.00541808
0.000481655
0.00561816
-0.00559528
0.000459267
0.00580099
-0.0057786
0.000437377
0.00598994
-0.00596805
0.000415996
0.00618516
-0.00616378
0.000395141
0.00638684
-0.00636598
0.000374826
0.00659518
-0.00657487
0.00035508
0.00681042
-0.00679068
0.000335872
0.00703277
-0.00701356
0.000317253
0.00726258
-0.00724396
0.000299225
0.00750007
-0.00748204
0.00028179
0.00774555
-0.00772812
0.000264952
0.00799934
-0.0079825
0.000248707
0.00826175
-0.00824551
0.000233053
0.00853315
-0.0085175
0.000217974
0.00881392
-0.00879884
0.000203469
0.0091044
-0.0090899
0.000189505
0.00940508
-0.00939112
0.000176083
0.00971638
-0.00970295
0.000163176
0.0100387
-0.0100258
0.000150762
0.0103727
-0.0103603
0.000138814
0.0107187
-0.0107068
0.000127302
0.0110775
-0.0110659
0.000116196
0.0114494
-0.0114383
0.000105461
0.0118352
-0.0118245
9.50614e-05
0.0122356
-0.0122252
8.49602e-05
0.0126512
-0.0126411
7.5117e-05
0.0130829
-0.0130731
6.54896e-05
0.0135314
-0.0135218
5.60343e-05
0.0139977
-0.0139883
4.67035e-05
0.0144827
-0.0144734
3.74471e-05
0.0149874
-0.0149782
2.8212e-05
0.015513
-0.0155038
1.89355e-05
0.0160609
-0.0160516
9.55057e-06
0.0166322
-0.0166228
0.0172287
-0.0172191
0.000706764
0.00482124
0.00068079
0.00497429
0.000655057
0.00513229
0.00062976
0.00529618
0.000604942
0.00546628
0.000580569
0.00564253
0.000556638
0.00582492
0.000533141
0.00601343
0.000510088
0.00620821
0.000487496
0.00640943
0.000465381
0.0066173
0.00044376
0.00683204
0.000422621
0.00705391
0.000402002
0.0072832
0.000381902
0.00752017
0.000362324
0.00776513
0.00034327
0.00801839
0.000324734
0.00828029
0.000306709
0.00855118
0.000289187
0.00883144
0.000272147
0.00912144
0.000255572
0.00942166
0.000239447
0.0097325
0.000223746
0.0100545
0.000208443
0.010388
0.000193506
0.0107337
0.000178903
0.0110921
0.000164599
0.0114637
0.000150556
0.0118493
0.000136733
0.0122494
0.000123088
0.0126649
0.000109578
0.0130964
9.61543e-05
0.0135449
8.27679e-05
0.0140111
6.93663e-05
0.0144961
5.58938e-05
0.0150009
4.22904e-05
0.0155266
2.8489e-05
0.0160747
1.44132e-05
0.0166463
0.0172431
0.0008127
0.0048483
0.00078553
0.00500146
0.00075849
0.00515933
0.000731793
0.00532287
0.00070551
0.00549256
0.000679625
0.00566842
0.000654125
0.00585042
0.000629001
0.00603856
0.000604258
0.00623295
0.000579913
0.00643377
0.00055598
0.00664123
0.000532472
0.00685555
0.00050939
0.00707699
0.000486757
0.00730584
0.000464575
0.00754235
0.000442845
0.00778686
0.000421567
0.00803967
0.000400734
0.00830112
0.000380336
0.00857157
0.000360363
0.00885141
0.000340789
0.00914102
0.000321599
0.00944085
0.00030277
0.00975133
0.000284274
0.0100729
0.000266081
0.0104062
0.000248157
0.0107516
0.000230465
0.0111097
0.000212965
0.0114812
0.000195615
0.0118666
0.000178372
0.0122667
0.000161188
0.0126821
0.000144013
0.0131136
0.000126796
0.0135621
0.000109482
0.0140284
9.20136e-05
0.0145136
7.43284e-05
0.0150186
5.63603e-05
0.0155446
3.80366e-05
0.016093
1.92735e-05
0.0166651
0.0172624
0.000918829
0.00487649
0.000890445
0.00502984
0.00086208
0.00518769
0.000833962
0.00535099
0.000806188
0.00552033
0.000778762
0.00569585
0.000751669
0.00587751
0.000724895
0.00606533
0.000698445
0.0062594
0.000672329
0.00645989
0.000646562
0.006667
0.000621157
0.00688096
0.000596118
0.00710203
0.000571461
0.00733049
0.000547187
0.00756663
0.000523298
0.00781075
0.00049979
0.00806318
0.000476656
0.00832426
0.000453881
0.00859435
0.000431453
0.00887384
0.000409345
0.00916312
0.000387539
0.00946265
0.000366007
0.00977286
0.000344717
0.0100942
0.000323637
0.0104273
0.000302728
0.0107725
0.00028195
0.0111305
0.000261259
0.0115019
0.000240608
0.0118873
0.000219949
0.0122873
0.00019923
0.0127028
0.000178397
0.0131344
0.000157393
0.0135831
0.000136158
0.0140496
0.000114628
0.0145351
9.27371e-05
0.0150405
7.04108e-05
0.0155669
4.75716e-05
0.0161158
2.41275e-05
0.0166885
0.0172865
0.00102509
0.00490583
0.000995477
0.00505946
0.000965769
0.0052174
0.000936209
0.00538055
0.000906918
0.00554962
0.000877921
0.00572484
0.000849209
0.00590622
0.000820765
0.00609378
0.000792587
0.00628758
0.000764684
0.00648779
0.000737069
0.00669461
0.000709754
0.00690827
0.000682746
0.00712904
0.000656055
0.00735718
0.000629682
0.007593
0.000603628
0.0078368
0.000577885
0.00808892
0.000552445
0.0083497
0.000527291
0.0086195
0.000502408
0.00889873
0.000477766
0.00918777
0.000453345
0.00948708
0.000429112
0.0097971
0.000405033
0.0101183
0.00038107
0.0104512
0.000357181
0.0107964
0.000333323
0.0111544
0.000309446
0.0115258
0.000285501
0.0119112
0.000261434
0.0123114
0.000237189
0.012727
0.000212706
0.0131589
0.000187923
0.0136079
0.000162776
0.0140748
0.000137195
0.0145607
0.000111106
0.0150666
8.44319e-05
0.0155936
5.70868e-05
0.0161432
2.89717e-05
0.0167166
0.0173155
0.00113144
0.00493634
0.00110057
0.00509033
0.0010695
0.00524847
0.00103848
0.00541157
0.00100764
0.00558046
0.000977046
0.00575544
0.000946688
0.00593658
0.000916549
0.00612392
0.000886624
0.00631751
0.000856918
0.0065175
0.000827442
0.00672409
0.000798206
0.00693751
0.000769217
0.00715803
0.000740483
0.00738592
0.000712005
0.00762148
0.000683779
0.00786503
0.000655798
0.0081169
0.00062805
0.00837744
0.000600517
0.00864704
0.000573178
0.00892606
0.000546006
0.00921494
0.000518972
0.00951411
0.000492041
0.00982403
0.000465177
0.0101452
0.000438338
0.0104781
0.000411477
0.0108233
0.000384546
0.0111813
0.000357493
0.0115528
0.000330263
0.0119384
0.000302797
0.0123389
0.000275035
0.0127548
0.000246914
0.013187
0.000218364
0.0136364
0.000189316
0.0141038
0.000159695
0.0145903
0.000129423
0.0150968
9.84127e-05
0.0156246
6.6575e-05
0.016175
3.38023e-05
0.0167494
0.0173493
0.00123781
0.00496807
0.00120566
0.00512248
0.00117321
0.00528091
0.0011407
0.00544408
0.0011083
0.00561286
0.00107608
0.00578766
0.00104405
0.00596861
0.00101219
0.00615577
0.0009805
0.0063492
0.000948974
0.00654902
0.000917622
0.00675544
0.000886453
0.00696868
0.000855474
0.00718901
0.000824689
0.0074167
0.000794098
0.00765207
0.000763697
0.00789543
0.000733475
0.00814712
0.000703418
0.0084075
0.000673506
0.00867695
0.000643715
0.00895585
0.000614014
0.00924464
0.000584372
0.00954375
0.000554751
0.00985365
0.000525109
0.0101748
0.0004954
0.0105078
0.000465576
0.0108531
0.000435582
0.0112113
0.000405364
0.011583
0.00037486
0.011969
0.000344009
0.0123697
0.000312744
0.0127861
0.000280996
0.0132188
0.000248693
0.0136687
0.000215759
0.0141368
0.000182114
0.0146239
0.000147673
0.0151313
0.000112343
0.01566
7.60291e-05
0.0162113
3.86158e-05
0.0167868
0.0173879
0.00134415
0.00500103
0.0013107
0.00515594
0.00127685
0.00531476
0.00124284
0.00547809
0.00120884
0.00564686
0.00117497
0.00582154
0.00114123
0.00600235
0.00110763
0.00618937
0.00107416
0.00638268
0.00104079
0.00658239
0.00100755
0.00678868
0.000974438
0.00700179
0.000941459
0.00722199
0.000908616
0.00744954
0.000875908
0.00768478
0.000843328
0.00792801
0.000810863
0.00817959
0.000778498
0.00843987
0.000746208
0.00870924
0.000713968
0.00898809
0.000681744
0.00927686
0.000649501
0.00957599
0.000617196
0.00988595
0.000584785
0.0102072
0.000552217
0.0105404
0.00051944
0.0108859
0.000486397
0.0112444
0.000453025
0.0116164
0.000419261
0.0120027
0.000385038
0.0124039
0.000350285
0.0128208
0.000314928
0.0132541
0.000278889
0.0137048
0.000242086
0.0141736
0.000204435
0.0146616
0.000165843
0.0151699
0.000126213
0.0156996
8.54424e-05
0.0162521
4.34086e-05
0.0168288
0.0174313
0.00145042
0.00503528
0.00141563
0.00519074
0.00138036
0.00535002
0.00134483
0.00551363
0.00130922
0.00568247
0.00127365
0.0058571
0.00123819
0.00603781
0.00120282
0.00622474
0.00116754
0.00641796
0.00113232
0.0066176
0.00109717
0.00682383
0.00106211
0.00703686
0.00102712
0.00725697
0.000992209
0.00748445
0.000957379
0.00771961
0.000922617
0.00796277
0.00088791
0.00821429
0.000853237
0.00847454
0.000818574
0.0087439
0.00078389
0.00902278
0.000749148
0.00931161
0.000714311
0.00961083
0.000679332
0.00992093
0.000644162
0.0102424
0.000608748
0.0105758
0.000573032
0.0109216
0.000536951
0.0112804
0.000500442
0.0116529
0.000463434
0.0120397
0.000425857
0.0124415
0.000387633
0.012859
0.000348685
0.0132931
0.000308929
0.0137445
0.000268278
0.0142142
0.000226641
0.0147032
0.00018392
0.0152126
0.000140012
0.0157435
9.48076e-05
0.0162973
4.8177e-05
0.0168755
0.0174795
0.00155657
0.00507085
0.0015204
0.00522691
0.00148369
0.00538673
0.00144662
0.0055507
0.00140936
0.00571973
0.00137209
0.00589438
0.00133486
0.00607503
0.0012977
0.0062619
0.00126058
0.00645508
0.00122349
0.00665469
0.00118643
0.00686089
0.0011494
0.0070739
0.00111239
0.00729398
0.00107541
0.00752143
0.00103846
0.00775656
0.00100151
0.00799972
0.000964562
0.00825124
0.000927585
0.00851152
0.000890552
0.00878093
0.00085343
0.0090599
0.000816179
0.00934886
0.000778757
0.00964825
0.000741115
0.00995857
0.000703199
0.0102803
0.000664952
0.010614
0.000626311
0.0109602
0.00058721
0.0113195
0.00054758
0.0116926
0.000507347
0.01208
0.000466434
0.0124824
0.000424761
0.0129007
0.000382242
0.0133356
0.000338791
0.013788
0.000294315
0.0142587
0.000248715
0.0147488
0.000201891
0.0152594
0.00015373
0.0157917
0.000104118
0.0163469
5.29175e-05
0.0169267
0.0175324
0.00166256
0.0051078
0.00162497
0.0052645
0.00158679
0.00542491
0.00154815
0.00558934
0.00150923
0.00575865
0.00147022
0.00593339
0.00143121
0.00611404
0.00139222
0.00630088
0.00135325
0.00649406
0.00131427
0.00669367
0.00127527
0.00689988
0.00123626
0.00711291
0.00119723
0.00733301
0.00115817
0.00756048
0.00111909
0.00779565
0.00107996
0.00803885
0.00104077
0.00829043
0.00100149
0.0085508
0.000962092
0.00882033
0.00092254
0.00909945
0.00088279
0.00938861
0.000842794
0.00968825
0.000802502
0.00999887
0.000761854
0.010321
0.000720789
0.0106551
0.00067924
0.0110018
0.000637137
0.0113616
0.000594406
0.0117353
0.000550968
0.0121234
0.000506741
0.0125267
0.00046164
0.0129458
0.000415576
0.0133817
0.000368454
0.0138351
0.000320177
0.014307
0.000270643
0.0147984
0.000219742
0.0153103
0.000167357
0.015844
0.000113366
0.0164009
5.76265e-05
0.0169824
0.01759
0.00176834
0.00514619
0.00172929
0.00530356
0.0016896
0.00546459
0.00164938
0.00562956
0.00160878
0.00579925
0.001568
0.00597418
0.00152716
0.00615488
0.00148632
0.00634172
0.00144547
0.00653491
0.00140458
0.00673456
0.00136364
0.00694083
0.00132263
0.00715391
0.00128157
0.00737408
0.00124043
0.00760162
0.00119922
0.00783686
0.0011579
0.00808016
0.00111647
0.00833186
0.0010749
0.00859237
0.00103315
0.00886208
0.000991172
0.00914143
0.000948933
0.00943084
0.000906377
0.0097308
0.000863447
0.0100418
0.000820083
0.0103643
0.000776218
0.0106989
0.000731781
0.0110462
0.000686696
0.0114067
0.000640886
0.0117811
0.000594265
0.01217
0.000546749
0.0125742
0.000498246
0.0129943
0.000448661
0.0134313
0.000397896
0.0138859
0.000345847
0.014359
0.000292406
0.0148518
0.000237459
0.0153653
0.000180881
0.0159006
0.000122545
0.0164592
6.23005e-05
0.0170426
0.0176523
0.00187389
0.00518606
0.00183331
0.00534414
0.00179208
0.00550583
0.00175024
0.00567139
0.00170794
0.00584155
0.00166537
0.00601675
0.00162269
0.00619756
0.00157996
0.00638445
0.0015372
0.00657767
0.00149438
0.00677739
0.00145147
0.00698373
0.00140847
0.00719692
0.00136536
0.00741719
0.00132214
0.00764484
0.00127879
0.00788021
0.0012353
0.00812365
0.00119163
0.00837553
0.00114777
0.00863624
0.00110366
0.00890619
0.00105928
0.00918581
0.00101456
0.00947556
0.000969459
0.00977591
0.000923909
0.0100873
0.000877847
0.0104104
0.000831201
0.0107456
0.000783896
0.0110935
0.000735852
0.0114548
0.000686985
0.01183
0.000637208
0.0122198
0.000586428
0.012625
0.000534549
0.0130462
0.000481473
0.0134843
0.000427095
0.0139402
0.000371305
0.0144148
0.000313991
0.0149091
0.00025503
0.0154242
0.000194295
0.0159614
0.000131649
0.0165219
6.69359e-05
0.0171074
0.0177192
0.00197917
0.0052275
0.001937
0.00538631
0.00189418
0.00554866
0.00185071
0.00571486
0.00180668
0.00588558
0.00176229
0.00606114
0.00171773
0.00624212
0.00167309
0.00642908
0.0016284
0.00662237
0.00158362
0.00682216
0.00153873
0.00702862
0.00149372
0.00724193
0.00144856
0.00746234
0.00140324
0.00769016
0.00135776
0.0079257
0.00131208
0.00816933
0.00126619
0.00842142
0.00122004
0.00868239
0.0011736
0.00895263
0.00112681
0.0092326
0.00107963
0.00952274
0.001032
0.00982354
0.000983845
0.0101355
0.000935103
0.0104591
0.000885697
0.010795
0.000835547
0.0111437
0.000784568
0.0115057
0.000732671
0.0118819
0.000679764
0.0122727
0.000625749
0.012679
0.000570526
0.0131014
0.000513989
0.0135409
0.000456029
0.0139982
0.000396533
0.0144743
0.000335379
0.0149703
0.000272442
0.0154872
0.000207586
0.0160262
0.000140669
0.0165888
7.15292e-05
0.0171765
0.0177908
0.00208416
0.00527056
0.00204034
0.00543013
0.00199586
0.00559313
0.00195071
0.00576001
0.00190494
0.00593135
0.00185871
0.00610736
0.00181225
0.00628858
0.00176567
0.00647566
0.00171901
0.00666903
0.00167225
0.00686892
0.00162536
0.00707551
0.00157832
0.00728897
0.0015311
0.00750956
0.00148369
0.00773756
0.00143607
0.00797332
0.00138822
0.00821718
0.00134009
0.00846955
0.00129167
0.00873081
0.0012429
0.00900141
0.00119372
0.00928177
0.00114409
0.00957237
0.00109395
0.00987369
0.00104321
0.0101862
0.000991811
0.0105105
0.000939668
0.0108471
0.000886697
0.0111966
0.000832809
0.0115596
0.00077791
0.0119368
0.000721902
0.0123287
0.000664683
0.0127362
0.000606147
0.01316
0.000546184
0.0136008
0.000484679
0.0140597
0.000421511
0.0145375
0.000356557
0.0150352
0.000289682
0.015554
0.000220746
0.0160951
0.000149601
0.0166599
7.60771e-05
0.01725
0.0178669
0.00218883
0.00531532
0.00214327
0.00547568
0.00209709
0.00563932
0.00205023
0.00580687
0.00200268
0.0059789
0.00195459
0.00615545
0.00190619
0.00633698
0.00185764
0.00652422
0.00180898
0.00671768
0.00176022
0.00691769
0.00171131
0.00712442
0.00166223
0.00733806
0.00161294
0.00755884
0.00156343
0.00778707
0.00151368
0.00802307
0.00146364
0.00826722
0.0014133
0.00851989
0.00136261
0.00878151
0.00131151
0.0090525
0.00125997
0.00933332
0.00120791
0.00962443
0.00115526
0.00992633
0.00110196
0.0102395
0.00104793
0.0105646
0.000993074
0.010902
0.00093731
0.0112524
0.000880541
0.0116164
0.00082267
0.0119946
0.000763593
0.0123878
0.000703203
0.0127966
0.000641389
0.0132218
0.000578035
0.0136642
0.000513021
0.0141247
0.000446222
0.0146043
0.000377507
0.0151039
0.000306737
0.0156248
0.000233765
0.0161681
0.000158436
0.0167353
8.05758e-05
0.0173279
0.0179474
0.00229316
0.00536187
0.00224579
0.00552305
0.00219783
0.00568729
0.00214921
0.00585549
0.00209985
0.00602826
0.00204988
0.00620542
0.00199952
0.00638734
0.00194897
0.00657478
0.00189829
0.00676836
0.00184749
0.00696849
0.00179653
0.00717537
0.00174539
0.0073892
0.00169403
0.00761021
0.00164242
0.00783869
0.00159052
0.00807497
0.00153832
0.00831942
0.00148576
0.00857245
0.0014328
0.00883446
0.0013794
0.0091059
0.0013255
0.00938722
0.00127102
0.00967891
0.0012159
0.00998145
0.00116006
0.0102954
0.00110342
0.0106212
0.00104588
0.0109595
0.000987348
0.0113109
0.000927729
0.011676
0.000866918
0.0120554
0.000804806
0.0124499
0.00074128
0.0128601
0.000676225
0.0132868
0.000609519
0.0137309
0.000541037
0.0141932
0.000470648
0.0146747
0.000398215
0.0151764
0.000323595
0.0156994
0.000246633
0.0162451
0.000167169
0.0168147
8.50224e-05
0.01741
0.0180324
0.00239716
0.0054103
0.00234788
0.00557233
0.00229806
0.00573711
0.00224762
0.00590592
0.00219642
0.00607946
0.00214454
0.0062573
0.00209219
0.00643968
0.00203961
0.00662736
0.00198687
0.0068211
0.00193401
0.00702135
0.00188099
0.00722839
0.00182777
0.00744241
0.00177432
0.00766366
0.0017206
0.00789241
0.00166656
0.008129
0.00161218
0.0083738
0.00155742
0.00862721
0.00150221
0.00888966
0.00144652
0.00916159
0.00139027
0.00944347
0.0013334
0.00973578
0.00127583
0.010039
0.00121747
0.0103537
0.00115824
0.0106804
0.00109804
0.0110197
0.00103678
0.0113722
0.000974339
0.0117385
0.000910622
0.0121192
0.00084551
0.012515
0.000778887
0.0129267
0.00071063
0.0133551
0.000640613
0.0138009
0.000568705
0.0142651
0.00049477
0.0147486
0.000418666
0.0152525
0.000340242
0.0157778
0.00025934
0.016326
0.000175793
0.0168983
8.94131e-05
0.0174964