/*--------------------------------*- C++ -*----------------------------------*\
  =========                 |
  \\      /  F ield         | OpenFOAM: The Open Source CFD Toolbox
   \\    /   O peration     | Website:  https://openfoam.org
    \\  /    A nd           | Version:  7
     \\/     M anipulation  |
\*---------------------------------------------------------------------------*/
FoamFile
{
    version     2.0;
    format      ascii;
    class       volScalarField;
    location    "18";
    object      p;
}
// * * * * * * * * * * * * * * * * * * * * * * * * * * * * * * * * * * * * * //

dimensions      [1 -1 -2 0 0 0 0];

internalField   nonuniform List<scalar> 
4032
(
1
1
1
1
1
1
1
1
1
1
1
3.14465
9.71172
10.6127
10.7643
10.9595
11.1302
11.2903
11.4378
11.5726
11.6947
11.7961
11.8753
11.9321
1
1
1
1
1
1
1
1
1
1
1
3.03678
9.58883
10.5951
10.7513
10.9435
11.1094
11.2634
11.4041
11.5316
11.6466
11.7415
11.8152
11.8699
1
1
1
1
1
1
1
1
1
1
1
2.786
9.39294
10.565
10.7167
10.9077
11.0702
11.2194
11.3532
11.4714
11.576
11.6619
11.7271
11.7802
1
1
1
1
1
1
1
1
1
1
1
2.41523
9.06141
10.5257
10.666
10.8556
11.0122
11.1548
11.2807
11.3903
11.4836
11.5547
11.5992
11.632
1
1
1
1
1
1
1
1
1
1
1
1.97377
8.57648
10.5179
10.6155
10.7928
10.9354
11.067
11.1775
11.2655
11.3299
11.3772
11.4035
11.4472
1
1
1
1
1
1
1
1
1
1
1
1.52036
7.91815
10.4722
10.5219
10.7017
10.8328
10.9498
11.0419
11.113
11.1615
11.1972
11.1941
11.1382
1
1
1
1
1
1
1
1
1
1
1
1.09312
7.09044
10.4445
10.4431
10.5813
10.681
10.783
10.8564
10.8968
10.8934
10.8342
10.7313
10.6637
1
1
1
1
1
1
1
1
1
1
1
1.00195
5.98683
10.0811
10.2152
10.3707
10.4843
10.5636
10.6089
10.6118
10.5579
10.4558
10.2876
10.2473
1
1
1
1
1
1
1
1
1
1
1
0.999999
4.71155
9.7226
10.1007
10.2219
10.3032
10.341
10.3464
10.2965
10.1599
9.8797
9.12258
7.07753
1
1
1
1
1
1
1
1
1
1
1
1
3.40376
9.15771
9.9676
10.0878
10.1406
10.1492
10.0959
9.98285
9.74894
9.26494
8.46035
6.39894
1
1
1
1
1
1
1
1
1
1
1
1
2.07848
8.28115
9.95649
9.99144
10.0077
9.96148
9.85226
9.66729
9.37156
8.80686
7.98855
6.08355
1
1
1
1
1
1
1
1
1
1
1
1
1.13343
7.0333
9.9787
9.85812
9.81729
9.74604
9.61576
9.39361
9.05223
8.4898
7.63749
6.15287
1
1
1
1
1
1
1
1
1
1
1
1
1.00153
5.32173
9.44964
9.63062
9.6255
9.54634
9.40425
9.16729
8.80525
8.27012
7.45044
6.32091
1
1
1
1
1
1
1
1
1
1
1
1
0.99998
3.3262
8.80942
9.52697
9.52292
9.43936
9.27177
9.0113
8.64011
8.12599
7.39617
6.54887
1
1
1
1
1
1
1
1
1
1
1
1
0.999995
1.64609
7.91195
9.62207
9.4449
9.31474
9.13038
8.88308
8.52317
8.04675
7.43786
6.8348
1
1
1
1
1
1
1
1
1
1
1
1
0.999999
1.04222
6.25959
9.30291
9.28099
9.20445
9.04794
8.80391
8.46485
8.05247
7.57153
7.12405
1
1
1
1
1
1
1
1
1
1
1
1
1
0.999993
3.9873
8.81574
9.25154
9.18072
9.02891
8.7994
8.50436
8.15248
7.76027
7.3977
1
1
1
1
1
1
1
1
1
1
1
1
1
0.99999
1.95362
8.08606
9.40587
9.21321
9.04318
8.82592
8.56649
8.2628
7.94037
7.63078
1
1
1
1
1
1
1
1
1
1
1
1
1
0.999998
1.08333
6.52773
9.31915
9.22477
9.05625
8.89749
8.67332
8.40416
8.12537
7.84757
1
1
1
1
1
1
1
1
1
1
1
1
1
1
1.00035
4.37411
8.95777
9.28023
9.1697
9.01807
8.79902
8.55213
8.30155
8.0421
1
1
1
1
1
1
1
1
1
1
1
1
1
1
0.999996
2.3015
8.48661
9.69665
9.38884
9.16267
8.93346
8.70116
8.46749
8.21686
1
1
1
1
1
1
1
1
1
1
1
1
1
1
0.999999
1.14415
7.35895
9.78365
9.4365
9.25799
9.0594
8.84857
8.62916
8.38871
1
1
1
1
1
1
1
1
1
1
1
1
1
1
1
1.00156
5.7744
9.70854
9.54503
9.39552
9.19435
8.98791
8.77592
8.54549
1
1
1
1
1
1
1
1
1
1
1
1
1
1
1
0.999987
4.19008
9.51971
9.74824
9.54538
9.33581
9.12966
8.92187
8.70062
1
1
1
1
1
1
1
1
1
1
1
1
1
1
1
0.999997
2.84068
8.98205
9.85029
9.59637
9.42698
9.24442
9.05163
8.84469
1
1
1
1
1
1
1
1
1
1
1
1
1
1
1
0.999999
1.80017
8.34099
10.173
9.78607
9.59811
9.40153
9.20226
8.99717
1
1
1
1
1
1
1
1
1
1
1
1
1
1
1
1
1.1406
7.50789
10.237
9.83546
9.65553
9.47537
9.29254
9.10435
1
1
1
1
1
1
1
1
1
1
1
1
1
1
1
1
1.0028
6.54358
10.2056
9.87643
9.71454
9.54421
9.37038
9.19288
1
1
1
1
1
1
1
1
1
1
1
1
1
1
1
1
1
5.60226
10.0682
9.92719
9.76851
9.61058
9.44464
9.27412
1
1
1
1
1
1
1
1
1
1
1
1
1
1
1
1
1
4.76434
9.86875
10.0032
9.82105
9.6785
9.51484
9.34591
1
1
1
1
1
1
1
1
1
1
1
1
1
1
1
1
1
4.03761
9.63346
10.0397
9.83551
9.71122
9.5562
9.3981
1
1
1
1
1
1
1
1
1
1
1
1
1
1
1
1
1
3.37083
9.40503
10.1222
9.8959
9.77379
9.619
9.46233
1
1
1
1
1
1
1
1
1
1
1
1
1
1
1
1
1
2.81382
9.14723
10.2008
9.93959
9.8106
9.65726
9.50352
1
1
1
1
1
1
1
1
1
1
1
1
1
1
1
1
1
2.38575
8.87138
10.2662
9.98183
9.84688
9.69265
9.53921
1
1
1
1
1
1
1
1
1
1
1
1
1
1
1
1
1
2.07439
8.59596
10.3129
10.0191
9.88181
9.72685
9.5735
1
1
1
1
1
1
1
1
1
1
1
1
1
1
1
1
1
1.80631
8.38035
10.3407
10.0474
9.91018
9.75541
9.60283
1
1
1
1
1
1
1
1
1
1
1
1
1
1
1
1
1
1.63899
8.17628
10.3517
10.0642
9.9287
9.77509
9.62343
1
1
1
1
1
1
1
1
1
1
1
1
1
1
1
1
1
1.54314
8.01402
10.3501
10.0739
9.94153
9.79009
9.63959
1
1
1
1
1
1
1
1
1
1
1
1
1
1
1
1
1
1.4814
7.8991
10.3456
10.0822
9.95125
9.80071
9.65084
1
1
1
1
1
1
1
1
1
1
1
1
1
1
1
1
1
1.45416
7.83549
10.3294
10.0798
9.95498
9.80685
9.65857
1.96215
2.23214
2.86867
3.40143
3.65704
3.76834
3.8372
3.89885
3.96652
4.03198
4.08605
4.11489
4.11656
4.11859
4.12337
4.152
4.19593
4.24641
4.29721
4.34904
4.40124
4.45061
4.49088
4.52172
4.55217
4.58997
4.64097
4.70379
4.77101
4.8337
4.88498
4.92216
4.9461
4.95784
4.95926
4.95381
4.9442
4.93242
4.92038
4.91067
4.90533
4.90402
4.9037
4.90001
4.88723
4.86265
4.82823
4.78854
4.74605
4.70014
4.64946
4.59548
4.54319
4.49706
4.4579
4.42408
4.39145
4.35536
4.31609
4.27791
4.24374
4.21236
4.17439
4.12227
4.06733
4.01557
3.96885
3.93
3.90058
3.87225
3.83808
3.80296
3.77199
3.74746
3.71974
3.68479
3.64887
3.609
3.56396
3.52652
3.50259
3.48352
3.46815
3.45481
3.4433
3.43546
3.43669
3.45194
3.4826
3.52017
3.55715
3.58666
3.61381
3.63247
3.64249
3.67188
3.36194
3.54668
3.56234
3.60357
3.72464
3.76511
3.79954
3.85433
3.90442
3.94584
3.97496
4.01186
4.03987
4.05947
4.07242
4.09883
4.14495
4.20829
4.27441
4.33163
4.37979
4.42653
4.479
4.53596
4.58711
4.62894
4.6643
4.69959
4.74019
4.78689
4.83431
4.8752
4.90282
4.91497
4.91831
4.92063
4.92536
4.93122
4.93395
4.92852
4.91501
4.89806
4.8831
4.87197
4.8612
4.84141
4.80608
4.76011
4.71305
4.67026
4.6306
4.58949
4.5454
4.50133
4.46112
4.42657
4.39603
4.36277
4.31921
4.26859
4.21845
4.17165
4.12974
4.08481
4.03323
3.98103
3.93277
3.89053
3.85833
3.83394
3.80709
3.77627
3.747
3.72199
3.698
3.67065
3.64012
3.6077
3.57166
3.53302
3.50181
3.48189
3.46818
3.45972
3.45406
3.44918
3.44644
3.45218
3.46688
3.49074
3.52587
3.56697
3.61204
3.65041
3.68039
3.71356
4.11898
4.16139
3.7774
3.6053
3.71157
3.77656
3.8161
3.86048
3.92155
3.97102
3.97823
3.98952
4.05387
4.13016
4.17774
4.20062
4.22715
4.27459
4.34667
4.42366
4.47635
4.50111
4.52145
4.55674
4.61104
4.67389
4.72963
4.77104
4.79961
4.82503
4.85424
4.8888
4.92142
4.93934
4.93842
4.92852
4.92157
4.92416
4.93576
4.94864
4.95364
4.94581
4.92502
4.9003
4.87924
4.8617
4.8365
4.79238
4.73889
4.68595
4.63789
4.59526
4.55632
4.5179
4.48065
4.44576
4.41533
4.39009
4.36072
4.31669
4.26524
4.2107
4.1575
4.10678
4.057
4.00694
3.95665
3.91025
3.86997
3.83487
3.8028
3.77249
3.74197
3.70923
3.67632
3.64402
3.61299
3.58477
3.55714
3.52629
3.49188
3.46003
3.44161
3.4332
3.4334
3.44282
3.45956
3.47397
3.48046
3.48476
3.49604
3.52017
3.56064
3.61249
3.66408
3.72072
4.68168
4.78915
4.36856
4.03282
4.09741
4.11748
4.01423
3.96366
3.98901
4.05259
4.08676
4.05994
4.07806
4.14956
4.22935
4.26172
4.26079
4.26746
4.30681
4.37652
4.44673
4.48933
4.51114
4.53107
4.56329
4.61356
4.67487
4.73344
4.77692
4.80233
4.81979
4.84064
4.86954
4.90038
4.92032
4.92438
4.92023
4.91662
4.91741
4.92171
4.925
4.92253
4.90734
4.87726
4.84695
4.82379
4.80461
4.7694
4.72355
4.67459
4.62787
4.58657
4.54946
4.51217
4.47201
4.43074
4.39248
4.35908
4.32135
4.28096
4.23784
4.18984
4.13782
4.08587
4.03705
3.99019
3.94438
3.90305
3.86768
3.83573
3.8064
3.77892
3.75097
3.72104
3.68817
3.6532
3.61917
3.58937
3.56499
3.54263
3.5186
3.49102
3.46197
3.44603
3.44104
3.44374
3.45947
3.48295
3.507
3.52892
3.54738
3.56398
3.58621
3.61645
3.65337
3.70729
5.34304
5.35438
4.99599
4.54928
4.42385
4.36672
4.21819
4.11459
4.109
4.1503
4.19759
4.16151
4.10164
4.11933
4.18915
4.23633
4.25698
4.26958
4.28866
4.33439
4.41056
4.4868
4.53554
4.56804
4.59641
4.63255
4.68157
4.73685
4.78548
4.81657
4.8325
4.84424
4.86011
4.88293
4.90727
4.92282
4.92743
4.92368
4.91442
4.90252
4.8924
4.88828
4.88223
4.85746
4.82592
4.7986
4.76328
4.72508
4.68626
4.64779
4.61318
4.5767
4.53547
4.49178
4.44946
4.41296
4.38387
4.35494
4.31792
4.27488
4.2257
4.17158
4.11762
4.06914
4.02592
3.98327
3.93727
3.89298
3.85657
3.82595
3.79864
3.77258
3.74658
3.72007
3.69107
3.65786
3.62168
3.58705
3.55944
3.5396
3.52308
3.506
3.48451
3.46735
3.46269
3.46226
3.46722
3.48042
3.50175
3.52916
3.55918
3.58913
3.61638
3.64492
3.67294
3.71458
5.91147
5.84485
5.48614
5.01841
4.76875
4.66965
4.54561
4.41673
4.35697
4.36226
4.41452
4.397
4.31746
4.27344
4.30211
4.33945
4.34076
4.31962
4.31569
4.34546
4.40955
4.48078
4.5162
4.536
4.55444
4.57973
4.61928
4.67017
4.71448
4.74102
4.75216
4.75913
4.76996
4.79246
4.82271
4.83816
4.83554
4.82646
4.8173
4.81042
4.81082
4.81608
4.80303
4.77509
4.74029
4.70918
4.6814
4.65026
4.61522
4.58012
4.54378
4.50463
4.46374
4.42646
4.39308
4.36041
4.32974
4.2976
4.26006
4.21325
4.16077
4.10931
4.06647
4.0329
3.99903
3.95751
3.90925
3.86462
3.82804
3.79669
3.76977
3.74829
3.7291
3.70719
3.68
3.64649
3.60943
3.57452
3.54725
3.53055
3.52009
3.51048
3.49696
3.48281
3.47867
3.47759
3.47902
3.48759
3.50489
3.53261
3.57101
3.60951
3.63064
3.63977
3.64837
3.67115
6.40109
6.23791
5.86188
5.42267
5.1185
5.01595
4.94434
4.8363
4.70393
4.63205
4.64941
4.62959
4.53875
4.46046
4.45764
4.48338
4.47508
4.4408
4.42022
4.44042
4.49552
4.55164
4.56888
4.571
4.58259
4.60694
4.64367
4.69582
4.73294
4.74856
4.7575
4.7679
4.78554
4.81976
4.8568
4.863
4.85407
4.84328
4.84022
4.84637
4.86178
4.86211
4.83708
4.798
4.75628
4.72842
4.71214
4.68797
4.65027
4.60489
4.55809
4.51867
4.48891
4.46631
4.43875
4.40057
4.3566
4.30915
4.25821
4.20569
4.1631
4.13224
4.09731
4.05812
4.015
3.96433
3.91516
3.87843
3.85011
3.82397
3.79639
3.76935
3.74473
3.71707
3.68428
3.65006
3.61877
3.59197
3.5688
3.54941
3.53347
3.51906
3.50352
3.49581
3.49435
3.49495
3.5011
3.51213
3.52828
3.55472
3.594
3.62236
3.62702
3.62507
3.62702
3.64286
6.76474
6.53011
6.16434
5.76328
5.45081
5.33564
5.29611
5.20707
5.0485
4.94963
4.9498
4.9237
4.82087
4.69713
4.63478
4.62419
4.60474
4.56483
4.53643
4.54665
4.58396
4.62193
4.63125
4.62407
4.63025
4.65207
4.68718
4.72783
4.74654
4.75651
4.76536
4.77684
4.79602
4.82894
4.85143
4.85192
4.84322
4.83909
4.84249
4.85142
4.85001
4.82964
4.80087
4.77341
4.75286
4.74048
4.71924
4.68231
4.63949
4.59937
4.56751
4.54268
4.51886
4.48583
4.44273
4.3949
4.3517
4.3089
4.26661
4.2295
4.19728
4.16256
4.12118
4.07498
4.02799
3.98604
3.95282
3.92672
3.90241
3.87577
3.84454
3.80843
3.77161
3.73546
3.70195
3.67533
3.65465
3.6349
3.61117
3.57964
3.54602
3.52379
3.51571
3.51754
3.52931
3.54628
3.56416
3.57581
3.58242
3.59181
3.6057
3.6184
3.62116
3.62483
3.62703
3.63219
7.0687
6.79049
6.44142
6.07445
5.75952
5.63782
5.60827
5.51082
5.33247
5.2171
5.20312
5.18093
5.07954
4.93396
4.82746
4.78204
4.74891
4.69385
4.63493
4.61202
4.6246
4.64514
4.64704
4.63365
4.62959
4.64164
4.66736
4.69568
4.70528
4.71158
4.71726
4.72618
4.7433
4.77389
4.79054
4.7891
4.78011
4.77786
4.7838
4.79349
4.78469
4.75706
4.72296
4.70227
4.69385
4.69109
4.66572
4.62335
4.57251
4.54006
4.51998
4.50532
4.47903
4.44015
4.39054
4.33679
4.29356
4.26078
4.23176
4.20428
4.17163
4.1299
4.0795
4.0248
3.98404
3.95591
3.93164
3.90846
3.88378
3.85497
3.82177
3.78332
3.74184
3.70865
3.68506
3.66977
3.65634
3.64003
3.61644
3.58153
3.55162
3.54102
3.54042
3.55068
3.57605
3.60491
3.61609
3.61553
3.60468
3.59655
3.59669
3.60663
3.621
3.62618
3.62369
3.61374
7.32068
7.02784
6.70748
6.37393
6.06259
5.93308
5.89312
5.778
5.58517
5.45699
5.42599
5.39095
5.28163
5.12205
4.99979
4.93542
4.88634
4.81731
4.72988
4.6689
4.6565
4.66265
4.65633
4.63894
4.6225
4.62108
4.62965
4.64755
4.65589
4.65874
4.6608
4.66583
4.67749
4.7007
4.71756
4.71708
4.70767
4.70536
4.71302
4.72086
4.70918
4.67984
4.64838
4.63447
4.63464
4.62821
4.59891
4.55337
4.50754
4.48253
4.46859
4.45217
4.42143
4.37936
4.32463
4.27412
4.24146
4.2139
4.18855
4.16012
4.12517
4.08129
4.02581
3.97759
3.94592
3.91933
3.89574
3.87193
3.84593
3.81756
3.78456
3.74975
3.71914
3.69046
3.66671
3.65082
3.63776
3.62463
3.60564
3.58313
3.57039
3.56742
3.56983
3.58179
3.60484
3.62823
3.63566
3.62669
3.61235
3.60607
3.60569
3.61297
3.62457
3.62492
3.61504
3.60015
7.5501
7.25711
6.96583
6.65625
6.3502
6.21198
6.1559
6.02577
5.82237
5.68509
5.63689
5.57863
5.45509
5.28394
5.15931
5.08758
5.01975
4.93578
4.82978
4.73845
4.70603
4.70015
4.68674
4.66267
4.63693
4.62338
4.62024
4.6297
4.63735
4.63595
4.6325
4.6321
4.63847
4.65562
4.67067
4.67033
4.6597
4.6554
4.66141
4.66731
4.65718
4.6298
4.59882
4.58917
4.59093
4.57808
4.54763
4.50175
4.4624
4.44368
4.43186
4.4088
4.3748
4.32853
4.27274
4.23337
4.20672
4.18191
4.15323
4.11955
4.07875
4.02971
3.97961
3.94804
3.92418
3.89703
3.86763
3.83701
3.80829
3.78215
3.75463
3.73092
3.71158
3.69147
3.66888
3.64766
3.63212
3.61998
3.6112
3.60816
3.60795
3.60934
3.61215
3.61941
3.63038
3.63886
3.64474
3.64576
3.64313
3.64069
3.63876
3.63897
3.63606
3.62744
3.61391
3.60494
7.75884
7.48562
7.22771
6.93926
6.64249
6.49134
6.41292
6.26398
6.04931
5.90434
5.83945
5.76033
5.6224
5.44266
5.32018
5.24449
5.16648
5.06522
4.93721
4.82657
4.78306
4.76704
4.74498
4.71211
4.67202
4.64716
4.6366
4.63933
4.64544
4.63957
4.62978
4.62447
4.62636
4.63812
4.6495
4.64814
4.63628
4.62662
4.62874
4.63352
4.62715
4.60556
4.57403
4.56201
4.5597
4.54462
4.51475
4.47455
4.44593
4.43032
4.41271
4.38412
4.34409
4.28897
4.24694
4.2211
4.19893
4.17352
4.14082
4.09831
4.0432
3.98832
3.95756
3.93917
3.92322
3.89922
3.86766
3.82459
3.78453
3.75798
3.74042
3.72816
3.71825
3.70562
3.69007
3.6664
3.64706
3.6379
3.63925
3.65264
3.66438
3.66796
3.66736
3.66627
3.66298
3.66123
3.66836
3.68166
3.69067
3.69154
3.68656
3.67244
3.65097
3.63655
3.63126
3.62646
7.9462
7.69683
7.4636
7.18555
6.90953
6.76299
6.67228
6.5067
6.28271
6.12976
6.04804
5.94764
5.79169
5.60684
5.4917
5.41233
5.32017
5.20249
5.05086
4.92849
4.87834
4.85339
4.82097
4.77693
4.72035
4.68579
4.67085
4.6696
4.67105
4.66025
4.64507
4.63236
4.6275
4.62988
4.6342
4.63008
4.61523
4.59972
4.5977
4.60303
4.60106
4.58425
4.55443
4.5367
4.53056
4.51582
4.48878
4.45837
4.43911
4.42136
4.39665
4.365
4.32166
4.27159
4.24413
4.22445
4.20224
4.17414
4.13876
4.08738
4.02016
3.9814
3.96404
3.95504
3.9391
3.91615
3.88461
3.8356
3.78679
3.76588
3.75514
3.75201
3.75254
3.74526
3.73055
3.70219
3.68566
3.6836
3.69116
3.70709
3.71877
3.72325
3.71949
3.71128
3.70276
3.70169
3.71105
3.73071
3.74209
3.73732
3.72132
3.69272
3.66976
3.66089
3.65835
3.65262
8.1321
7.90092
7.67983
7.40778
7.15167
7.01198
6.90785
6.72653
6.50254
6.35153
6.25963
6.14121
5.9681
5.78102
5.67032
5.58597
5.48212
5.34795
5.17737
5.05543
4.9995
4.96081
4.91204
4.84895
4.7727
4.73319
4.715
4.70825
4.69534
4.67558
4.64636
4.6156
4.60234
4.59737
4.59647
4.58841
4.56997
4.54977
4.54475
4.55019
4.55152
4.53648
4.50779
4.48974
4.48753
4.47864
4.45654
4.43047
4.41227
4.39551
4.37355
4.345
4.30298
4.26124
4.23633
4.2149
4.19029
4.16221
4.12775
4.0744
4.02062
3.9986
3.9854
3.96886
3.94847
3.92542
3.89523
3.85255
3.81721
3.79999
3.79013
3.784
3.78069
3.77317
3.75677
3.7343
3.72564
3.72454
3.72871
3.73741
3.74651
3.75502
3.75676
3.75008
3.74587
3.74707
3.75269
3.76123
3.76134
3.7498
3.72939
3.70169
3.68577
3.67794
3.67263
3.65773
8.30541
8.09013
7.87723
7.61745
7.38409
7.24628
7.12389
6.92522
6.70313
6.55955
6.4635
6.33193
6.14555
5.95931
5.84995
5.75773
5.64136
5.49341
5.31531
5.19561
5.12812
5.07037
5.00242
4.91555
4.82231
4.77882
4.75532
4.73624
4.70984
4.67701
4.62422
4.58075
4.56385
4.55471
4.54981
4.53803
4.51621
4.48861
4.47817
4.48148
4.48318
4.46829
4.4404
4.42434
4.42338
4.41747
4.39845
4.37061
4.35078
4.33711
4.31884
4.29459
4.2665
4.23045
4.19565
4.16834
4.14222
4.11546
4.08559
4.05069
4.02084
3.99848
3.97505
3.94904
3.92424
3.90195
3.87666
3.85182
3.83557
3.81864
3.8007
3.79021
3.78548
3.78076
3.77032
3.76083
3.75956
3.75954
3.76077
3.76283
3.76672
3.77136
3.77695
3.78051
3.7805
3.77766
3.7733
3.77146
3.76743
3.75304
3.72994
3.70761
3.69462
3.68344
3.67446
3.65375
8.47471
8.2686
8.05895
7.8098
7.58924
7.4476
7.31053
7.10099
6.89388
6.75643
6.65067
6.50256
6.30383
6.11913
6.00761
5.90903
5.78227
5.6263
5.45337
5.33138
5.24642
5.16849
5.08148
4.97222
4.87072
4.82434
4.79124
4.75737
4.72027
4.6688
4.59676
4.54548
4.52308
4.50817
4.49665
4.47999
4.45384
4.42031
4.40433
4.40359
4.40525
4.39066
4.36487
4.35197
4.35337
4.35189
4.33716
4.30915
4.28326
4.26788
4.25141
4.2336
4.21274
4.1848
4.15011
4.11399
4.081
4.05511
4.03308
4.0131
3.99572
3.97625
3.95251
3.92351
3.89357
3.8704
3.85429
3.84471
3.83471
3.82467
3.81242
3.79889
3.79002
3.78311
3.77532
3.7778
3.7878
3.79117
3.79082
3.7859
3.77919
3.77982
3.78968
3.80505
3.80804
3.80292
3.79135
3.77574
3.76042
3.7458
3.73105
3.7176
3.7049
3.68951
3.67263
3.64161
8.63473
8.4364
8.22687
7.9917
7.78445
7.63719
7.48391
7.26763
7.06089
6.9212
6.80584
6.64418
6.4385
6.25766
6.14525
6.04409
5.9159
5.75405
5.5781
5.44997
5.3499
5.25666
5.15598
5.03079
4.91599
4.8623
4.82328
4.77886
4.72589
4.66114
4.58256
4.52763
4.4985
4.47575
4.45633
4.43246
4.39859
4.36236
4.34554
4.34312
4.34574
4.33304
4.30825
4.29499
4.29666
4.2958
4.28322
4.25818
4.22711
4.20657
4.19234
4.18063
4.16385
4.13739
4.10245
4.06312
4.02891
4.00582
3.99204
3.98062
3.96523
3.94706
3.92431
3.8936
3.86145
3.84565
3.83722
3.83486
3.83369
3.82801
3.82083
3.80725
3.79223
3.78288
3.78288
3.79329
3.81009
3.81958
3.81532
3.8066
3.80345
3.80727
3.81923
3.8371
3.83856
3.82906
3.81009
3.78143
3.76118
3.75027
3.74399
3.7367
3.7241
3.70536
3.67772
3.62949
8.79365
8.59484
8.38198
8.15718
7.9605
7.80782
7.63532
7.41721
7.22137
7.08082
6.95332
6.77573
6.56258
6.39885
6.28605
6.16603
6.01833
5.84001
5.67499
5.55365
5.44557
5.33622
5.21762
5.08793
4.97642
4.90572
4.85143
4.79818
4.73638
4.65969
4.57819
4.52688
4.49245
4.46402
4.43655
4.40312
4.35654
4.32013
4.30848
4.3085
4.30915
4.29652
4.27043
4.25146
4.25044
4.25029
4.24077
4.22119
4.1899
4.16522
4.15229
4.14145
4.12528
4.09957
4.06613
4.03457
4.0087
3.98697
3.96969
3.95442
3.93859
3.92196
3.90248
3.88032
3.85675
3.84193
3.83484
3.83228
3.83505
3.83842
3.83326
3.82033
3.80644
3.80364
3.80961
3.82128
3.83726
3.85186
3.85412
3.84888
3.84555
3.84678
3.85755
3.87331
3.87076
3.85764
3.83178
3.80066
3.78302
3.77376
3.76499
3.75303
3.73772
3.71428
3.67911
3.63138
8.91501
8.72219
8.51494
8.30414
8.11914
7.95988
7.77199
7.55605
7.36947
7.2308
7.09241
6.90177
6.68494
6.52386
6.40769
6.2785
6.11724
5.93272
5.7723
5.64513
5.53083
5.41564
5.29392
5.16084
5.0392
4.95485
4.88691
4.82399
4.7582
4.67972
4.59338
4.53449
4.49477
4.46005
4.42717
4.38967
4.3379
4.29685
4.28323
4.28089
4.27743
4.26368
4.23544
4.20884
4.20392
4.20454
4.199
4.18448
4.15681
4.13274
4.12139
4.10958
4.0888
4.0615
4.03816
4.01927
4.00203
3.98512
3.96236
3.93576
3.91846
3.90438
3.89142
3.88102
3.87171
3.86031
3.84936
3.84402
3.84293
3.84853
3.85256
3.84595
3.84128
3.84592
3.85207
3.86039
3.87263
3.88982
3.90069
3.89681
3.89206
3.88957
3.88864
3.89491
3.89314
3.88122
3.86011
3.83445
3.81644
3.80227
3.7878
3.77095
3.74922
3.71689
3.6821
3.64836
9.01331
8.82733
8.62965
8.43365
8.25847
8.09087
7.89324
7.68449
7.50844
7.37274
7.21901
7.01645
6.80654
6.65321
6.53204
6.39154
6.21959
6.0272
5.87788
5.75466
5.63011
5.50055
5.3603
5.22074
5.10955
5.02019
4.9408
4.8649
4.78757
4.70444
4.6252
4.56388
4.51493
4.47171
4.42993
4.38339
4.32405
4.27738
4.25826
4.24954
4.24103
4.22443
4.19363
4.16046
4.15093
4.15079
4.14834
4.13621
4.11238
4.09455
4.08724
4.07573
4.05107
4.02358
4.01095
4.00287
3.99509
3.98218
3.95907
3.92634
3.90399
3.89302
3.88771
3.89059
3.88833
3.88205
3.87352
3.86348
3.85765
3.85848
3.86999
3.87847
3.88546
3.89189
3.89461
3.89683
3.90271
3.91422
3.93194
3.93761
3.93018
3.9225
3.91743
3.91294
3.90521
3.89203
3.87555
3.85895
3.84205
3.82404
3.8039
3.78006
3.74969
3.71471
3.69144
3.6665
9.09917
8.91696
8.72748
8.54309
8.37209
8.19602
7.9967
7.79954
7.63513
7.499
7.32772
7.11617
6.91908
6.7735
6.64935
6.49888
6.31733
6.12687
5.98498
5.85826
5.72769
5.58994
5.43856
5.28902
5.17287
5.08201
4.99861
4.91529
4.82584
4.7298
4.64537
4.58265
4.5298
4.4817
4.43385
4.37897
4.30913
4.25268
4.22625
4.20997
4.19549
4.17499
4.14201
4.10671
4.0935
4.09085
4.08737
4.07331
4.05246
4.04249
4.04134
4.0333
4.01034
3.98293
3.97249
3.97158
3.97333
3.96496
3.94681
3.91691
3.8908
3.88253
3.8827
3.8951
3.90134
3.89976
3.89516
3.88383
3.87564
3.87688
3.88789
3.9098
3.92607
3.93243
3.93309
3.9306
3.93121
3.93536
3.94637
3.95822
3.95713
3.95068
3.9398
3.92599
3.91158
3.89672
3.88246
3.86824
3.85254
3.83276
3.80676
3.77407
3.73922
3.71332
3.69971
3.67592
9.17168
8.99214
8.81046
8.63473
8.46415
8.28284
8.08854
7.9045
7.74992
7.60481
7.41687
7.20521
7.02398
6.88498
6.7543
6.5913
6.39856
6.21776
6.08345
5.95493
5.81845
5.67181
5.51069
5.36122
5.24708
5.15011
5.05686
4.96283
4.86078
4.75322
4.66369
4.59759
4.54081
4.48693
4.43122
4.36532
4.28486
4.22331
4.19045
4.16598
4.1428
4.11605
4.07844
4.04465
4.03098
4.02749
4.01925
3.99975
3.98306
3.9795
3.98551
3.98411
3.96899
3.94396
3.92882
3.92806
3.93312
3.92951
3.92021
3.90232
3.8799
3.8738
3.87586
3.88897
3.9013
3.90454
3.90333
3.89383
3.89097
3.89675
3.90922
3.93672
3.96014
3.96525
3.96208
3.95586
3.95373
3.95526
3.9617
3.96978
3.97135
3.96321
3.94626
3.92659
3.91133
3.89771
3.88386
3.86858
3.84958
3.82408
3.79169
3.75979
3.73645
3.7182
3.70414
3.67789
9.23174
9.05966
8.8858
8.71424
8.54093
8.35774
8.17067
7.99697
7.8446
7.68216
7.48397
7.28315
7.11579
6.98267
6.83852
6.66057
6.46065
6.29526
6.16523
6.03532
5.89379
5.73859
5.57125
5.4266
5.31104
5.20547
5.10234
4.99751
4.88464
4.7707
4.67889
4.6079
4.54481
4.48289
4.41652
4.33943
4.25581
4.19612
4.15878
4.12646
4.09307
4.05461
4.01028
3.98402
3.9747
3.97324
3.96035
3.9362
3.91985
3.91874
3.92958
3.93668
3.93013
3.91143
3.89119
3.88739
3.89118
3.89808
3.89627
3.88948
3.87776
3.87224
3.87235
3.87851
3.89218
3.90318
3.90417
3.90081
3.90648
3.91784
3.93578
3.96085
3.98058
3.98668
3.98308
3.9735
3.97011
3.97444
3.97892
3.97731
3.97217
3.95972
3.94063
3.92242
3.90805
3.89386
3.87842
3.85996
3.83635
3.80854
3.78226
3.76145
3.74396
3.72664
3.71158
3.68369
9.29733
9.1278
8.95691
8.78558
8.60967
8.42759
8.24708
8.07886
7.91927
7.74069
7.54394
7.35799
7.20144
7.06827
6.90505
6.71193
6.51669
6.36396
6.23607
6.10105
5.95072
5.78306
5.61611
5.48011
5.36218
5.24926
5.13723
5.02116
4.90003
4.78643
4.69532
4.61923
4.54859
4.47703
4.40042
4.31658
4.2386
4.18255
4.14047
4.10097
4.05769
4.00506
3.96131
3.94269
3.93698
3.93549
3.92138
3.89546
3.87228
3.86924
3.88042
3.89579
3.89723
3.88692
3.86627
3.85804
3.86069
3.87272
3.88416
3.88684
3.88479
3.87842
3.87908
3.88426
3.8954
3.90821
3.92124
3.93653
3.95257
3.96817
3.97852
3.9833
3.98929
3.99326
3.99426
3.99707
4.00126
4.00098
3.99675
3.98578
3.96996
3.95518
3.94168
3.92812
3.9139
3.89789
3.87788
3.85299
3.82774
3.80637
3.78829
3.77188
3.75537
3.73718
3.72098
3.69279
9.3424
9.17738
9.00914
8.83656
8.6583
8.47793
8.30331
8.13745
7.9673
7.77805
7.5831
7.40966
7.27301
7.13336
6.95124
6.7494
6.57261
6.43141
6.30032
6.15358
5.98938
5.81423
5.66036
5.52966
5.40823
5.28874
5.16719
5.04117
4.91564
4.8053
4.7148
4.63463
4.55719
4.47757
4.39259
4.30447
4.23085
4.17777
4.13296
4.08964
4.04057
3.97765
3.93205
3.91425
3.90948
3.90616
3.893
3.87009
3.84117
3.83208
3.8391
3.8577
3.86695
3.8651
3.85114
3.84031
3.84336
3.85583
3.87365
3.88407
3.88844
3.89202
3.89739
3.9037
3.91282
3.92964
3.95299
3.97182
3.98754
3.99966
4.00919
4.01465
4.0163
4.01721
4.01943
4.02385
4.02752
4.02392
4.01486
3.99945
3.98017
3.96512
3.95208
3.93832
3.92342
3.90565
3.88042
3.85088
3.82783
3.81056
3.79546
3.78239
3.77083
3.75573
3.7405
3.70392
9.38021
9.21816
9.05234
8.882
8.70813
8.53449
8.36437
8.19439
8.01603
7.83073
7.65212
7.49182
7.34284
7.17527
6.98046
6.78992
6.63636
6.49956
6.35661
6.19693
6.02038
5.85129
5.70876
5.57891
5.45283
5.32681
5.19671
5.0619
4.93486
4.82852
4.73775
4.65417
4.57103
4.48378
4.39027
4.30093
4.23183
4.17909
4.13134
4.08433
4.03262
3.96891
3.91687
3.89396
3.88418
3.87904
3.86644
3.84631
3.816
3.80046
3.80325
3.81852
3.83092
3.83523
3.83241
3.82388
3.82745
3.84086
3.86074
3.87818
3.8892
3.89799
3.90814
3.91886
3.93181
3.95225
3.97629
3.99469
4.00977
4.02183
4.03452
4.04222
4.04245
4.04151
4.04327
4.04836
4.04999
4.04457
4.03348
4.01443
3.99309
3.97986
3.96716
3.95239
3.93477
3.91205
3.88261
3.85461
3.83682
3.82198
3.8069
3.79076
3.77431
3.75708
3.74023
3.70056
9.41564
9.2546
9.08951
8.92051
8.7494
8.57886
8.4088
8.23473
8.05452
7.8743
7.70391
7.54738
7.38426
7.19181
6.99887
6.8348
6.69477
6.55766
6.40111
6.23108
6.05056
5.89321
5.75924
5.62855
5.49833
5.36643
5.22736
5.08455
4.95891
4.85639
4.76509
4.67816
4.59016
4.49427
4.3894
4.29866
4.23661
4.18549
4.1376
4.08911
4.03037
3.96033
3.9077
3.88095
3.86332
3.84865
3.83321
3.81391
3.78778
3.77153
3.77257
3.78046
3.78636
3.79558
3.80174
3.8039
3.81032
3.82597
3.84769
3.86831
3.88256
3.89613
3.91147
3.92712
3.94525
3.96948
3.99101
4.00731
4.02118
4.03521
4.05001
4.05835
4.05956
4.05903
4.05959
4.06307
4.06214
4.05424
4.04262
4.02677
4.00788
3.99176
3.97623
3.95888
3.93889
3.91546
3.89006
3.86853
3.85068
3.83375
3.81672
3.79847
3.77889
3.75602
3.7321
3.68709
9.44587
9.2855
9.12119
8.95386
8.78495
8.61543
8.44372
8.26817
8.09103
7.9168
7.7501
7.5867
7.41019
7.22297
7.04741
6.88787
6.74372
6.59634
6.4319
6.25427
6.08065
5.93862
5.80753
5.67711
5.54524
5.40373
5.24963
5.10512
4.98749
4.8865
4.79309
4.70339
4.61115
4.50585
4.39612
4.30912
4.24317
4.18583
4.13209
4.0785
4.01965
3.95614
3.90297
3.86415
3.8347
3.81311
3.79389
3.77116
3.75147
3.7445
3.74683
3.74568
3.74164
3.74784
3.76062
3.77597
3.79352
3.81315
3.83328
3.85036
3.8665
3.88515
3.9065
3.93096
3.95963
3.9844
3.99704
4.00812
4.01942
4.03519
4.05396
4.06565
4.06778
4.0666
4.06459
4.06485
4.06334
4.05562
4.04455
4.02993
4.01271
3.99466
3.97676
3.95801
3.93813
3.91798
3.89798
3.8778
3.85754
3.83773
3.81799
3.79718
3.77425
3.74587
3.71581
3.6724
9.46722
9.30764
9.14454
8.97885
8.81141
8.64199
8.46967
8.29507
8.12072
7.94947
7.7821
7.61101
7.43063
7.25138
7.08178
6.92668
6.78227
6.61965
6.44718
6.26891
6.11529
5.9799
5.84617
5.71097
5.57116
5.42222
5.26976
5.13243
5.01588
4.91222
4.81562
4.71889
4.61419
4.5046
4.4037
4.32069
4.24962
4.1863
4.12786
4.06848
4.00565
3.94369
3.89114
3.84828
3.81402
3.78585
3.75754
3.7289
3.71591
3.71354
3.71709
3.71573
3.70827
3.71171
3.72552
3.74971
3.77967
3.79983
3.81736
3.83533
3.85419
3.87506
3.90167
3.94121
3.97743
3.99064
3.99946
4.00675
4.01659
4.03346
4.05583
4.06823
4.06931
4.06592
4.06031
4.05747
4.05596
4.04966
4.03982
4.02729
4.01079
3.99128
3.9727
3.95563
3.93877
3.92143
3.90278
3.88194
3.8592
3.83633
3.81411
3.79147
3.76675
3.73843
3.71014
3.6686
9.48391
9.32469
9.16226
8.99734
8.83021
8.66041
8.48818
8.31485
8.14204
7.97117
7.80012
7.62511
7.44815
7.2745
7.10851
6.95709
6.80026
6.63012
6.45438
6.29117
6.14631
6.00634
5.86724
5.72582
5.57787
5.42597
5.28427
5.15959
5.04479
4.93384
4.82374
4.71338
4.60205
4.49717
4.40881
4.33214
4.25822
4.18355
4.1131
4.04615
3.98016
3.92336
3.87981
3.84199
3.80462
3.76484
3.7228
3.69856
3.68934
3.68946
3.69394
3.69336
3.6885
3.69389
3.70991
3.73585
3.77732
3.81227
3.83601
3.85813
3.87917
3.90049
3.92745
3.96791
4.00432
4.01909
4.02791
4.03202
4.03592
4.04204
4.05903
4.07066
4.07116
4.06507
4.05406
4.0485
4.04626
4.04375
4.03573
4.02512
4.0103
3.99157
3.97378
3.95783
3.94189
3.92497
3.90614
3.88464
3.85994
3.8347
3.81107
3.78885
3.76563
3.73963
3.71342
3.67201
9.49572
9.33703
9.17491
9.0098
8.84181
8.67138
8.49933
8.32676
8.15435
7.98198
7.80802
7.63302
7.45976
7.29009
7.12763
6.96912
6.79782
6.62288
6.45868
6.31115
6.16893
6.02413
5.87765
5.72586
5.57293
5.42829
5.29723
5.17691
5.06085
4.94379
4.82217
4.69877
4.58504
4.48904
4.4087
4.33631
4.26472
4.18864
4.10309
4.02093
3.95687
3.90953
3.87283
3.83811
3.79909
3.74876
3.6977
3.67761
3.66987
3.67274
3.68087
3.6844
3.68571
3.69273
3.71089
3.73909
3.77863
3.81575
3.8453
3.87114
3.89608
3.92223
3.95385
3.99414
4.02544
4.03788
4.04527
4.05008
4.05505
4.06233
4.07491
4.08002
4.07817
4.06921
4.05651
4.05036
4.04584
4.04373
4.0359
4.02493
4.00996
3.99143
3.97438
3.9595
3.94449
3.92801
3.90908
3.88654
3.86025
3.83376
3.81005
3.78859
3.76665
3.74344
3.72106
3.67791
9.50438
9.34626
9.18437
9.01916
8.85085
8.68035
8.50864
8.33634
8.16324
7.98911
7.81387
7.63978
7.46946
7.30428
7.14039
6.96898
6.79239
6.62371
6.4693
6.3287
6.18411
6.03476
5.88121
5.7214
5.56657
5.42924
5.30535
5.18737
5.07063
4.94937
4.81819
4.68319
4.56685
4.47852
4.40573
4.33926
4.2727
4.19223
4.08758
3.99245
3.93814
3.9
3.8675
3.83598
3.799
3.73779
3.68201
3.66568
3.65987
3.6632
3.67129
3.67731
3.68347
3.69358
3.71284
3.74159
3.78269
3.82655
3.86213
3.89228
3.92032
3.94853
3.98016
4.01887
4.04855
4.06058
4.06776
4.072
4.07568
4.08091
4.09049
4.0929
4.09014
4.07833
4.06183
4.05306
4.04669
4.04249
4.03433
4.02251
4.00724
3.98931
3.97304
3.95935
3.94551
3.92997
3.91147
3.88833
3.86025
3.83203
3.80832
3.78838
3.7696
3.75025
3.72951
3.68168
)
;

boundaryField
{
    inlet
    {
        type            fixedValue;
        value           uniform 1;
    }
    outlet
    {
        type            zeroGradient;
    }
    bottom
    {
        type            symmetryPlane;
    }
    top
    {
        type            symmetryPlane;
    }
    obstacle
    {
        type            zeroGradient;
    }
    defaultFaces
    {
        type            empty;
    }
}


// ************************************************************************* //
