/*--------------------------------*- C++ -*----------------------------------*\
  =========                 |
  \\      /  F ield         | OpenFOAM: The Open Source CFD Toolbox
   \\    /   O peration     | Website:  https://openfoam.org
    \\  /    A nd           | Version:  7
     \\/     M anipulation  |
\*---------------------------------------------------------------------------*/
FoamFile
{
    version     2.0;
    format      ascii;
    class       volScalarField;
    location    "18";
    object      rho;
}
// * * * * * * * * * * * * * * * * * * * * * * * * * * * * * * * * * * * * * //

dimensions      [1 -3 0 0 0 0 0];

internalField   nonuniform List<scalar> 
4032
(
1.40001
1.40001
1.40001
1.40001
1.40001
1.40001
1.40001
1.40001
1.40001
1.40001
1.40001
2.51585
5.14956
5.45777
5.51288
5.58544
5.65002
5.71078
5.76601
5.81434
5.85436
5.88371
5.90531
5.92271
1.40001
1.40001
1.40001
1.40001
1.40001
1.40001
1.40001
1.40001
1.40001
1.40001
1.40001
2.46051
5.10154
5.4512
5.50871
5.58033
5.64312
5.70159
5.75428
5.79987
5.83731
5.86435
5.884
5.90061
1.40001
1.40001
1.40001
1.40001
1.40001
1.40001
1.40001
1.40001
1.40001
1.40001
1.40001
2.34021
5.03617
5.44581
5.49987
5.5702
5.63115
5.68738
5.73709
5.77896
5.81241
5.83604
5.85245
5.86839
1.40001
1.40001
1.40001
1.40001
1.40001
1.40001
1.40001
1.40001
1.40001
1.40001
1.40001
2.16264
4.93404
5.44734
5.49112
5.55762
5.61456
5.66715
5.71317
5.75121
5.78005
5.798
5.80676
5.81552
1.40001
1.40001
1.40001
1.40001
1.40001
1.40001
1.40001
1.40001
1.40001
1.40001
1.40001
1.93786
4.77639
5.46735
5.48776
5.54436
5.59339
5.64028
5.67946
5.70855
5.72608
5.73576
5.73882
5.75235
1.40001
1.40001
1.40001
1.40001
1.40001
1.40001
1.40001
1.40001
1.40001
1.40001
1.40001
1.704
4.55973
5.46815
5.46743
5.52156
5.56478
5.60465
5.63543
5.65646
5.66675
5.67352
5.671
5.6546
1.40001
1.40001
1.40001
1.40001
1.40001
1.40001
1.40001
1.40001
1.40001
1.40001
1.40001
1.46352
4.24961
5.45206
5.44471
5.48904
5.51997
5.5527
5.57431
5.58195
5.57348
5.54554
5.50703
5.48989
1.40001
1.40001
1.40001
1.40001
1.40001
1.40001
1.40001
1.40001
1.40001
1.40001
1.40001
1.40159
3.78374
5.29843
5.35747
5.41668
5.45566
5.48025
5.49025
5.48413
5.45793
5.40954
5.32591
5.27452
1.40001
1.40001
1.40001
1.40001
1.40001
1.40001
1.40001
1.40001
1.40001
1.40001
1.40001
1.4
3.24028
5.16203
5.31097
5.35886
5.39001
5.40163
5.3989
5.37579
5.31834
5.2028
4.87934
3.90976
1.40001
1.40001
1.40001
1.40001
1.40001
1.40001
1.40001
1.40001
1.40001
1.40001
1.40001
1.4
2.66785
5.00059
5.27903
5.31432
5.33123
5.33224
5.31023
5.26444
5.17125
4.97768
4.63705
3.70891
1.40001
1.40001
1.40001
1.40001
1.40001
1.40001
1.40001
1.40001
1.40001
1.40001
1.40001
1.4
2.04215
4.78014
5.32319
5.30133
5.29272
5.26976
5.22327
5.14908
5.03234
4.80719
4.46894
3.6531
1.40001
1.40001
1.40001
1.40001
1.40001
1.40001
1.40001
1.40001
1.40001
1.40001
1.40001
1.40001
1.50632
4.31621
5.36003
5.28739
5.24687
5.2041
5.14328
5.05012
4.91302
4.68752
4.33907
3.70687
1.40001
1.40001
1.40001
1.40001
1.40001
1.40001
1.40001
1.40001
1.40001
1.40001
1.40001
1.40001
1.40129
3.55142
5.16304
5.22503
5.20181
5.15292
5.08196
4.97602
4.82454
4.60559
4.26919
3.79235
1.40001
1.40001
1.40001
1.40001
1.40001
1.40001
1.40001
1.40001
1.40001
1.40001
1.40001
1.40001
1.39998
2.66465
4.96101
5.21517
5.19097
5.1421
5.05834
4.93786
4.77611
4.5598
4.25716
3.89818
1.40001
1.40001
1.40001
1.40001
1.40001
1.40001
1.40001
1.40001
1.40001
1.40001
1.40001
1.40001
1.4
1.82873
4.71323
5.27541
5.19195
5.12312
5.03224
4.91603
4.75549
4.54993
4.28913
4.02908
1.40001
1.40001
1.40001
1.40001
1.40001
1.40001
1.40001
1.40001
1.40001
1.40001
1.40001
1.40001
1.4
1.43459
3.98107
5.14709
5.14019
5.103
5.0285
4.91612
4.76351
4.57953
4.36594
4.16767
1.40001
1.40001
1.40001
1.40001
1.40001
1.40001
1.40001
1.40001
1.40001
1.40001
1.40001
1.40001
1.4
1.39996
2.98099
4.96977
5.1425
5.11099
5.04229
4.93893
4.8061
4.6477
4.47146
4.30721
1.40001
1.40001
1.40001
1.40001
1.40001
1.40001
1.40001
1.40001
1.40001
1.40001
1.40001
1.40001
1.40001
1.39999
2.00608
4.78476
5.21999
5.13812
5.06317
4.96789
4.85336
4.71808
4.57302
4.43237
1.40001
1.40001
1.40001
1.40001
1.40001
1.40001
1.40001
1.40001
1.40001
1.40001
1.40001
1.40001
1.40001
1.4
1.46788
4.11235
5.17839
5.14223
5.07428
5.00623
4.91014
4.79391
4.6717
4.54763
1.40001
1.40001
1.40001
1.40001
1.40001
1.40001
1.40001
1.40001
1.40001
1.40001
1.40001
1.40001
1.40001
1.4
1.40027
3.15952
5.02934
5.16786
5.12483
5.06315
4.97199
4.86782
4.7605
4.64768
1.40001
1.40001
1.40001
1.40001
1.40001
1.40001
1.40001
1.40001
1.40001
1.40001
1.40001
1.40001
1.40001
1.40001
1.4
2.18744
4.92647
5.34574
5.2212
5.12818
5.03384
4.93758
4.83965
4.73342
1.40001
1.40001
1.40001
1.40001
1.40001
1.40001
1.40001
1.40001
1.40001
1.40001
1.40001
1.40001
1.40001
1.40001
1.4
1.51484
4.47465
5.37049
5.23305
5.1634
5.08519
5.0007
4.91131
4.81198
1.40001
1.40001
1.40001
1.40001
1.40001
1.40001
1.40001
1.40001
1.40001
1.40001
1.40001
1.40001
1.40001
1.40001
1.4
1.40132
3.75551
5.29927
5.24784
5.20071
5.12895
5.05126
4.96875
4.87678
1.40001
1.40001
1.40001
1.40001
1.40001
1.40001
1.40001
1.40001
1.40001
1.40001
1.40001
1.40001
1.40001
1.40001
1.40001
1.39999
3.03969
5.17514
5.30396
5.23589
5.16492
5.09233
5.01604
4.93174
1.40001
1.40001
1.40001
1.40001
1.40001
1.40001
1.40001
1.40001
1.40001
1.40001
1.40001
1.40001
1.40001
1.40001
1.40001
1.4
2.40972
4.97512
5.33225
5.23888
5.18158
5.11856
5.05013
4.97431
1.40001
1.40001
1.40001
1.40001
1.40001
1.40001
1.40001
1.40001
1.40001
1.40001
1.40001
1.40001
1.40001
1.40001
1.40001
1.4
1.88508
4.79168
5.44824
5.29954
5.23154
5.16122
5.08995
5.01571
1.40001
1.40001
1.40001
1.40001
1.40001
1.40001
1.40001
1.40001
1.40001
1.40001
1.40001
1.40001
1.40001
1.40001
1.40001
1.4
1.49554
4.46596
5.45088
5.29856
5.23318
5.16856
5.10329
5.03568
1.40001
1.40001
1.40001
1.40001
1.40001
1.40001
1.40001
1.40001
1.40001
1.40001
1.40001
1.40001
1.40001
1.40001
1.40001
1.40001
1.40215
4.04689
5.40694
5.28603
5.23005
5.17046
5.10905
5.04574
1.40001
1.40001
1.40001
1.40001
1.40001
1.40001
1.40001
1.40001
1.40001
1.40001
1.40001
1.40001
1.40001
1.40001
1.40001
1.40001
1.40001
3.63527
5.32231
5.27519
5.22199
5.16862
5.11138
5.0516
1.40001
1.40001
1.40001
1.40001
1.40001
1.40001
1.40001
1.40001
1.40001
1.40001
1.40001
1.40001
1.40001
1.40001
1.40001
1.40001
1.40001
3.2744
5.23239
5.29365
5.22731
5.17724
5.11931
5.05896
1.40001
1.40001
1.40001
1.40001
1.40001
1.40001
1.40001
1.40001
1.40001
1.40001
1.40001
1.40001
1.40001
1.40001
1.40001
1.40001
1.40001
2.95999
5.16247
5.31057
5.23417
5.18751
5.12897
5.06921
1.40001
1.40001
1.40001
1.40001
1.40001
1.40001
1.40001
1.40001
1.40001
1.40001
1.40001
1.40001
1.40001
1.40001
1.40001
1.40001
1.40001
2.65676
5.11205
5.35235
5.26549
5.21714
5.15634
5.09506
1.40001
1.40001
1.40001
1.40001
1.40001
1.40001
1.40001
1.40001
1.40001
1.40001
1.40001
1.40001
1.40001
1.40001
1.40001
1.40001
1.40001
2.38658
5.03754
5.3956
5.29396
5.24152
5.18034
5.11936
1.40001
1.40001
1.40001
1.40001
1.40001
1.40001
1.40001
1.40001
1.40001
1.40001
1.40001
1.40001
1.40001
1.40001
1.40001
1.40001
1.40001
2.16605
4.93444
5.42634
5.31718
5.26339
5.20216
5.14105
1.40001
1.40001
1.40001
1.40001
1.40001
1.40001
1.40001
1.40001
1.40001
1.40001
1.40001
1.40001
1.40001
1.40001
1.40001
1.40001
1.40001
1.99882
4.82282
5.44011
5.32988
5.27762
5.21778
5.15779
1.40001
1.40001
1.40001
1.40001
1.40001
1.40001
1.40001
1.40001
1.40001
1.40001
1.40001
1.40001
1.40001
1.40001
1.40001
1.40001
1.40001
1.85639
4.74364
5.44319
5.3333
5.28239
5.22411
5.16577
1.40001
1.40001
1.40001
1.40001
1.40001
1.40001
1.40001
1.40001
1.40001
1.40001
1.40001
1.40001
1.40001
1.40001
1.40001
1.40001
1.40001
1.76308
4.66389
5.43937
5.33138
5.28076
5.22294
5.16531
1.40001
1.40001
1.40001
1.40001
1.40001
1.40001
1.40001
1.40001
1.40001
1.40001
1.40001
1.40001
1.40001
1.40001
1.40001
1.40001
1.40001
1.70831
4.59789
5.43145
5.32777
5.27797
5.22062
5.16328
1.40001
1.40001
1.40001
1.40001
1.40001
1.40001
1.40001
1.40001
1.40001
1.40001
1.40001
1.40001
1.40001
1.40001
1.40001
1.40001
1.40001
1.67404
4.55286
5.42529
5.32643
5.27692
5.21962
5.16223
1.40001
1.40001
1.40001
1.40001
1.40001
1.40001
1.40001
1.40001
1.40001
1.40001
1.40001
1.40001
1.40001
1.40001
1.40001
1.40001
1.40001
1.65812
4.52632
5.41747
5.324
5.27677
5.2203
5.16339
1.48216
1.53204
1.74069
1.94838
2.05551
2.10185
2.12724
2.14685
2.16683
2.18557
2.20033
2.20672
2.20463
2.20403
2.2054
2.21642
2.23404
2.25507
2.27683
2.29921
2.32193
2.34392
2.36258
2.37756
2.39273
2.41108
2.43491
2.46362
2.49422
2.5234
2.54863
2.56863
2.58402
2.59495
2.60177
2.60599
2.60875
2.61065
2.61223
2.61439
2.61785
2.62239
2.62683
2.62966
2.62904
2.62366
2.61389
2.60182
2.58849
2.57367
2.55684
2.53848
2.5205
2.50467
2.49137
2.48001
2.46888
2.45601
2.44145
2.42702
2.41402
2.40197
2.38704
2.36611
2.34393
2.32301
2.30402
2.28803
2.27582
2.264
2.24974
2.23517
2.22236
2.21223
2.20068
2.18606
2.171
2.15425
2.13526
2.11956
2.10977
2.1021
2.09606
2.09114
2.08748
2.08557
2.08676
2.09482
2.11005
2.128
2.14543
2.15935
2.17227
2.18177
2.18718
2.20178
2.22451
2.20796
2.0969
2.05811
2.09301
2.10745
2.11746
2.13377
2.14746
2.15792
2.16416
2.17398
2.18135
2.18732
2.19188
2.20229
2.22096
2.24703
2.27485
2.29953
2.32082
2.34187
2.3656
2.39143
2.41541
2.43618
2.45486
2.47393
2.49544
2.5196
2.54421
2.56636
2.58385
2.59582
2.60448
2.61266
2.62162
2.63084
2.63861
2.64292
2.64373
2.64281
2.6422
2.64271
2.64313
2.63985
2.62979
2.61509
2.59982
2.58606
2.57325
2.55955
2.54437
2.52892
2.51477
2.50266
2.49192
2.4798
2.46312
2.44316
2.42315
2.40431
2.38728
2.3688
2.3474
2.32562
2.30538
2.28757
2.27389
2.26343
2.2519
2.23871
2.22623
2.21557
2.2053
2.19353
2.18036
2.16637
2.15086
2.13432
2.1211
2.11279
2.10718
2.10413
2.10255
2.1016
2.10162
2.10484
2.11267
2.12474
2.14152
2.16045
2.18084
2.19854
2.2126
2.22885
2.69296
2.64
2.36769
2.18976
2.17606
2.1666
2.16108
2.16535
2.18077
2.19336
2.19106
2.19106
2.21234
2.24002
2.25825
2.2682
2.28039
2.30163
2.3331
2.367
2.39213
2.40684
2.42093
2.44159
2.46999
2.50189
2.53132
2.55552
2.57543
2.5942
2.61429
2.63647
2.65791
2.67359
2.68202
2.68684
2.69242
2.70144
2.71389
2.7266
2.73576
2.73912
2.73719
2.73306
2.72971
2.72725
2.72109
2.70641
2.68737
2.66826
2.65074
2.63507
2.62068
2.60631
2.59215
2.57867
2.56678
2.55687
2.54508
2.52693
2.50535
2.48212
2.45909
2.43681
2.41463
2.39215
2.36955
2.3487
2.33048
2.31441
2.29958
2.28544
2.27123
2.25611
2.24095
2.22601
2.21158
2.19839
2.18554
2.17137
2.15565
2.14121
2.13281
2.12924
2.12955
2.13435
2.1424
2.14897
2.15222
2.1547
2.16055
2.17227
2.19128
2.21528
2.23904
2.26578
3.01202
3.01877
2.79173
2.55625
2.52228
2.46386
2.36958
2.31186
2.30085
2.30904
2.31057
2.29282
2.29628
2.3218
2.35349
2.36905
2.37175
2.37955
2.40189
2.4377
2.47398
2.49916
2.51731
2.53573
2.55929
2.59034
2.62622
2.66111
2.68973
2.71075
2.72823
2.74693
2.76857
2.79032
2.80684
2.81659
2.82293
2.82935
2.83748
2.84687
2.85542
2.86091
2.86083
2.85417
2.84607
2.84017
2.83523
2.8226
2.80439
2.7844
2.76514
2.748
2.7325
2.7168
2.69974
2.68197
2.66527
2.65057
2.63403
2.61633
2.5971
2.57518
2.55082
2.52591
2.5021
2.47912
2.45668
2.43629
2.41855
2.40226
2.38699
2.37243
2.35764
2.34205
2.32529
2.3077
2.29056
2.27533
2.26261
2.25088
2.23846
2.22473
2.2107
2.20256
2.19988
2.20106
2.20793
2.21808
2.22849
2.23812
2.24679
2.25543
2.26721
2.28257
2.30043
2.32615
3.34881
3.33168
3.1562
2.92038
2.82382
2.75226
2.6404
2.55052
2.5164
2.50887
2.50622
2.47892
2.4439
2.44818
2.47562
2.4981
2.51043
2.52142
2.53701
2.56519
2.60747
2.64915
2.67913
2.70346
2.72697
2.75348
2.78524
2.81947
2.85022
2.87292
2.88894
2.90287
2.9181
2.93552
2.9524
2.96479
2.97266
2.97705
2.97894
2.97954
2.98037
2.98315
2.9851
2.97904
2.96852
2.95898
2.9454
2.92966
2.91275
2.89542
2.87964
2.86303
2.8443
2.82438
2.80501
2.78823
2.77466
2.76104
2.74372
2.72364
2.70064
2.67506
2.64883
2.62434
2.60192
2.57981
2.55634
2.53368
2.51459
2.49804
2.48276
2.46779
2.4527
2.43743
2.42122
2.40327
2.38402
2.36541
2.35005
2.33851
2.32877
2.31911
2.30784
2.2982
2.29484
2.2942
2.29602
2.30143
2.31071
2.32334
2.33781
2.35287
2.3671
2.38194
2.39634
2.41734
3.62166
3.58127
3.41222
3.1938
3.06373
2.99593
2.91692
2.82947
2.77703
2.76262
2.76634
2.74621
2.69749
2.67196
2.68345
2.70073
2.70243
2.69707
2.69989
2.71858
2.75547
2.79486
2.81718
2.83311
2.84957
2.86903
2.89421
2.92423
2.95094
2.96888
2.97987
2.98856
2.99831
3.01287
3.03072
3.04051
3.04217
3.04152
3.04046
3.04039
3.04362
3.04878
3.0459
3.03624
3.02199
3.00885
2.99733
2.98411
2.96842
2.9519
2.93441
2.91552
2.89589
2.87821
2.86267
2.84755
2.83316
2.8178
2.79967
2.77698
2.75155
2.7267
2.70585
2.689
2.67161
2.65036
2.62578
2.60277
2.58348
2.5666
2.5517
2.53923
2.52768
2.51462
2.49896
2.48039
2.46025
2.44116
2.42578
2.41567
2.40886
2.40273
2.39498
2.38659
2.38344
2.3825
2.38307
2.38692
2.39496
2.40837
2.4274
2.44685
2.4584
2.46412
2.46948
2.48246
3.84152
3.76707
3.59801
3.39959
3.26271
3.20466
3.16147
3.09722
3.02118
2.97679
2.97776
2.96273
2.9105
2.87009
2.86962
2.88173
2.87729
2.86266
2.85615
2.86764
2.89768
2.9288
2.94049
2.94513
2.95395
2.97013
2.99222
3.01991
3.04083
3.05149
3.05894
3.06624
3.0765
3.09389
3.11264
3.11642
3.11369
3.11041
3.1101
3.11394
3.12244
3.12387
3.11505
3.09911
3.08069
3.06823
3.06119
3.05057
3.03342
3.01233
2.99016
2.971
2.95611
2.94487
2.93184
2.9143
2.89415
2.87207
2.84788
2.82232
2.80124
2.78589
2.76898
2.75049
2.73012
2.70548
2.68074
2.6617
2.64665
2.63268
2.61813
2.60403
2.59104
2.57602
2.55796
2.53911
2.52189
2.50721
2.49462
2.48404
2.47513
2.46694
2.45835
2.45323
2.45189
2.45209
2.45534
2.46121
2.46963
2.48319
2.50318
2.51824
2.52131
2.52125
2.52313
2.533
4.00814
3.90348
3.74209
3.56298
3.42485
3.37152
3.35062
3.30702
3.22808
3.17328
3.16922
3.15406
3.10088
3.04113
3.01293
3.00797
2.99825
2.98009
2.97017
2.97636
2.99614
3.017
3.0235
3.02234
3.02643
3.03927
3.0587
3.07968
3.09039
3.09687
3.10286
3.10996
3.11991
3.13571
3.14695
3.14744
3.14405
3.14281
3.14496
3.14979
3.14959
3.14162
3.12997
3.11807
3.1088
3.10334
3.09397
3.07713
3.05704
3.03789
3.02243
3.0101
2.99837
2.98253
2.96224
2.93995
2.91983
2.89962
2.87923
2.86111
2.84536
2.82854
2.8088
2.78708
2.76483
2.74431
2.72759
2.71417
2.7016
2.68795
2.67224
2.65439
2.63611
2.61761
2.59983
2.58528
2.5739
2.56341
2.55143
2.5358
2.51882
2.50682
2.50198
2.50256
2.50806
2.51663
2.52617
2.53292
2.53705
2.54258
2.55017
2.557
2.55884
2.5613
2.56336
2.56709
4.15782
4.0319
3.87645
3.71251
3.57109
3.51587
3.50183
3.45796
3.37708
3.3224
3.31513
3.30398
3.2554
3.18652
3.13609
3.11433
3.09839
3.07237
3.04631
3.03814
3.04505
3.05655
3.05874
3.05452
3.05354
3.06034
3.07438
3.08955
3.09566
3.09982
3.10366
3.10917
3.11817
3.13301
3.1412
3.14062
3.13674
3.13609
3.13952
3.14465
3.14118
3.12967
3.11465
3.10501
3.10099
3.09991
3.08861
3.06902
3.04463
3.02849
3.01824
3.01075
2.99807
2.97982
2.95655
2.93103
2.91022
2.89426
2.88
2.86662
2.85087
2.83085
2.80669
2.78029
2.76033
2.7463
2.73404
2.72228
2.70987
2.69548
2.679
2.66
2.63937
2.62268
2.61037
2.60204
2.59475
2.58629
2.57463
2.55769
2.54302
2.53746
2.53704
2.542
2.55462
2.56946
2.57573
2.5759
2.57128
2.56799
2.56858
2.57421
2.58158
2.58452
2.58366
2.57972
4.29115
4.15754
4.01246
3.86182
3.72077
3.65978
3.63983
3.58719
3.50084
3.44351
3.42986
3.41442
3.3654
3.29284
3.23676
3.20667
3.18361
3.15118
3.11041
3.08257
3.07832
3.08224
3.08038
3.07363
3.06737
3.0676
3.0728
3.08323
3.08894
3.09184
3.09383
3.09711
3.10359
3.11497
3.12297
3.12282
3.1187
3.11801
3.12241
3.12662
3.12156
3.10868
3.09439
3.08795
3.08817
3.08539
3.07183
3.05006
3.02772
3.01524
3.00809
2.99983
2.98492
2.96475
2.93852
2.91424
2.89851
2.88519
2.87286
2.85898
2.84203
2.8206
2.79331
2.76961
2.75409
2.74104
2.72914
2.71701
2.70398
2.68976
2.67319
2.65556
2.63994
2.62537
2.6133
2.60518
2.59842
2.59158
2.58182
2.5706
2.56476
2.56359
2.56494
2.57132
2.58315
2.59502
2.59898
2.59457
2.58777
2.58539
2.58591
2.59051
2.59663
2.59679
2.59175
2.58544
4.41392
4.28119
4.14867
4.00819
3.86928
3.80305
3.77438
3.71362
3.6216
3.55964
3.53765
3.51152
3.45646
3.37948
3.32292
3.2902
3.25922
3.22095
3.17217
3.1299
3.11556
3.1136
3.10819
3.09796
3.08737
3.08259
3.08213
3.08802
3.09351
3.09471
3.09443
3.09471
3.09833
3.10694
3.11438
3.11449
3.11012
3.10861
3.11214
3.11547
3.111
3.09866
3.08434
3.07982
3.08076
3.07483
3.06035
3.03797
3.0184
3.0089
3.00281
2.99131
2.97458
2.95208
2.92495
2.90579
2.89296
2.88105
2.86711
2.85049
2.83019
2.80585
2.78081
2.76494
2.75302
2.73947
2.72482
2.70955
2.69494
2.68155
2.66742
2.65523
2.64515
2.63465
2.62318
2.61255
2.60463
2.59829
2.59373
2.59276
2.59343
2.59434
2.59593
2.59976
2.60528
2.60948
2.61264
2.61358
2.61282
2.61226
2.61192
2.61246
2.61127
2.60677
2.59946
2.5963
4.52317
4.40134
4.28495
4.15492
4.02087
3.94921
3.91034
3.84095
3.74337
3.67698
3.64644
3.60991
3.54745
3.46613
3.41034
3.37571
3.34013
3.29404
3.23541
3.18468
3.16502
3.15824
3.1487
3.13431
3.11691
3.10702
3.10358
3.10608
3.11067
3.10971
3.10658
3.10465
3.1057
3.11146
3.11725
3.11707
3.11248
3.10875
3.11026
3.11301
3.11005
3.10004
3.0853
3.07967
3.07861
3.07137
3.05668
3.03664
3.0221
3.01407
3.00523
2.99109
2.9713
2.94415
2.92344
2.91073
2.9
2.8878
2.87195
2.85092
2.82316
2.79515
2.77929
2.76971
2.76154
2.7494
2.73355
2.71185
2.69125
2.67734
2.66807
2.66171
2.65659
2.65002
2.64189
2.62938
2.61936
2.61498
2.61595
2.6236
2.63034
2.63241
2.6321
2.63124
2.62928
2.62835
2.6321
2.6395
2.6449
2.64566
2.64351
2.63636
2.62531
2.61783
2.61521
2.61359
4.61733
4.50851
4.40527
4.28207
4.15873
4.09036
4.0468
3.97074
3.86931
3.79916
3.7607
3.71414
3.64296
3.55878
3.50588
3.46918
3.42672
3.37261
3.30263
3.24612
3.2233
3.21239
3.19807
3.17839
3.15296
3.13833
3.13298
3.1338
3.13595
3.13234
3.12591
3.12022
3.11865
3.12014
3.1227
3.12134
3.11527
3.10856
3.10786
3.11072
3.10985
3.10198
3.08782
3.07928
3.07617
3.06877
3.05511
3.03955
3.02961
3.0206
3.00829
2.99257
2.97104
2.94598
2.93215
2.9224
2.91154
2.89789
2.88061
2.85521
2.82123
2.8008
2.79129
2.78619
2.77778
2.76613
2.75025
2.72517
2.69976
2.68852
2.68255
2.68049
2.68052
2.67678
2.66924
2.65404
2.64532
2.64444
2.64851
2.65697
2.66341
2.666
2.66419
2.66002
2.65555
2.65484
2.6595
2.66984
2.67598
2.67378
2.66599
2.65143
2.6396
2.63504
2.63375
2.63062
4.70452
4.6061
4.51073
4.39278
4.28028
4.21677
4.16874
4.08712
3.98661
3.91779
3.87507
3.82062
3.74174
3.65641
3.60525
3.56598
3.51785
3.45581
3.37675
3.32008
3.29422
3.27659
3.25443
3.22556
3.19053
3.17311
3.16585
3.16393
3.15903
3.15044
3.13688
3.12257
3.11693
3.11521
3.11525
3.11176
3.10311
3.09357
3.09129
3.09416
3.095
3.08798
3.07407
3.06502
3.06368
3.05903
3.04773
3.03432
3.02492
3.01645
3.00557
2.9915
2.9706
2.94962
2.93692
2.92599
2.91362
2.89969
2.88267
2.85593
2.82833
2.81655
2.80913
2.79991
2.78896
2.77701
2.76162
2.73962
2.72102
2.71137
2.70547
2.7016
2.69945
2.69544
2.68704
2.67493
2.66987
2.6692
2.67127
2.67582
2.68095
2.68583
2.68688
2.68355
2.68111
2.68135
2.68386
2.68826
2.68838
2.68275
2.67271
2.65886
2.65063
2.64625
2.64308
2.63473
4.77907
4.69005
4.60086
4.49082
4.39045
4.32986
4.27569
4.18822
4.08992
4.02529
3.98138
3.92165
3.83728
3.75256
3.70208
3.65925
3.6054
3.53703
3.45449
3.39869
3.36718
3.34037
3.3089
3.26855
3.22532
3.20538
3.19463
3.18623
3.17444
3.15915
3.13405
3.11339
3.10545
3.10124
3.09905
3.09331
3.08222
3.06839
3.06342
3.06519
3.06618
3.05912
3.04524
3.03678
3.03609
3.03291
3.02295
3.00873
2.9987
2.99177
2.98263
2.9706
2.95661
2.9386
2.92111
2.90719
2.89381
2.88021
2.86512
2.84725
2.83168
2.81979
2.80723
2.79337
2.7802
2.76836
2.75478
2.74131
2.73243
2.72307
2.71305
2.70704
2.70418
2.70135
2.69577
2.69044
2.68927
2.68907
2.68959
2.69065
2.69291
2.69572
2.69884
2.70048
2.69985
2.69798
2.69538
2.69415
2.69196
2.68498
2.67375
2.6625
2.65553
2.64927
2.64417
2.63263
4.84331
4.76117
4.67621
4.57336
4.48091
4.42085
4.36228
4.27193
4.18158
4.12077
4.07353
4.00738
3.91827
3.83475
3.78368
3.73834
3.68007
3.6082
3.52815
3.47127
3.4315
3.39512
3.35454
3.30339
3.25572
3.234
3.21834
3.2021
3.18405
3.159
3.1239
3.09873
3.08762
3.08021
3.07446
3.06611
3.05272
3.03548
3.02726
3.02686
3.02764
3.0202
3.00684
2.99998
3.00045
2.99941
2.99135
2.97682
2.96393
2.95618
2.94766
2.93841
2.92786
2.91394
2.89654
2.87816
2.86119
2.84782
2.83648
2.82629
2.81732
2.807
2.79431
2.77894
2.76321
2.75098
2.74231
2.73702
2.73136
2.72575
2.71897
2.71143
2.7064
2.70241
2.69795
2.69894
2.70355
2.705
2.70476
2.7022
2.69884
2.69919
2.70407
2.7113
2.71237
2.70934
2.70286
2.69459
2.68682
2.67955
2.67212
2.6651
2.65823
2.64995
2.64096
2.62385
4.89536
4.81935
4.73723
4.64295
4.55867
4.49837
4.43479
4.3434
4.25476
4.19427
4.14393
4.07288
3.98168
3.90073
3.84974
3.80353
3.7449
3.67069
3.58972
3.53032
3.48358
3.43987
3.39261
3.3337
3.27925
3.25368
3.23505
3.21339
3.18716
3.15525
3.1167
3.08922
3.07417
3.06222
3.05184
3.03921
3.02176
3.00309
2.99397
2.99245
2.99333
2.98628
2.9729
2.96577
2.96638
2.96568
2.95874
2.94565
2.92998
2.91954
2.91208
2.90585
2.89731
2.8842
2.86679
2.84697
2.82953
2.81755
2.81031
2.8044
2.79651
2.78713
2.77543
2.75964
2.74288
2.73456
2.73023
2.72891
2.72807
2.72481
2.72078
2.71326
2.70505
2.69985
2.69951
2.7041
2.71202
2.7165
2.71416
2.70941
2.70748
2.70889
2.71432
2.72284
2.72333
2.71784
2.70744
2.69256
2.6821
2.67621
2.67262
2.66859
2.66198
2.65244
2.63817
2.61271
4.94092
4.86667
4.78534
4.6976
4.61993
4.55926
4.48936
4.39904
4.31685
4.25736
4.20286
4.12592
4.03249
3.96004
3.90955
3.85541
3.78846
3.70733
3.6318
3.57574
3.52543
3.47425
3.4185
3.35717
3.30397
3.26986
3.24346
3.21738
3.18704
3.14935
3.10883
3.08256
3.06462
3.04959
3.035
3.01753
2.9939
2.97511
2.968
2.96733
2.96681
2.9593
2.9451
2.93499
2.93427
2.93396
2.92863
2.91825
2.90232
2.88984
2.88317
2.87752
2.86928
2.85651
2.84004
2.82442
2.81141
2.80026
2.79127
2.78335
2.77532
2.76711
2.75757
2.74657
2.73457
2.72685
2.72307
2.72136
2.72264
2.72419
2.7213
2.71419
2.70665
2.70498
2.70755
2.71273
2.72029
2.72705
2.72753
2.72421
2.7217
2.72143
2.72597
2.73364
2.73215
2.72489
2.71099
2.69465
2.68524
2.68005
2.67513
2.66869
2.66092
2.64915
2.63107
2.60632
4.96702
4.89613
4.81841
4.73799
4.66676
4.60491
4.53014
4.44233
4.36557
4.30808
4.24996
4.16852
4.07462
4.00417
3.95295
3.89557
3.82332
3.74003
3.66699
3.60854
3.55551
3.50171
3.44457
3.38177
3.32383
3.28301
3.24972
3.2187
3.18614
3.14721
3.10408
3.07412
3.05361
3.03553
3.01837
2.99909
2.97301
2.95202
2.94395
2.94176
2.93899
2.93095
2.91607
2.90233
2.89961
2.8997
2.89651
2.88861
2.87448
2.86249
2.85677
2.85075
2.84024
2.82658
2.81504
2.80567
2.797
2.78844
2.7769
2.76347
2.75493
2.74823
2.74212
2.73713
2.7326
2.72679
2.72118
2.71841
2.71778
2.72051
2.72233
2.71862
2.71596
2.71815
2.72078
2.72428
2.72984
2.73777
2.74213
2.73966
2.73622
2.7339
2.73266
2.73534
2.7343
2.72775
2.71642
2.70303
2.6935
2.68587
2.67817
2.66943
2.65833
2.64174
2.62366
2.60603
4.98115
4.91344
4.84024
4.76666
4.70036
4.63606
4.55835
4.47472
4.40349
4.34817
4.28445
4.199
4.1093
4.04317
3.99046
3.92881
3.85259
3.76653
3.69915
3.64304
3.58582
3.52578
3.46035
3.39485
3.34206
3.29901
3.2603
3.22296
3.18464
3.14339
3.10412
3.07352
3.04861
3.02635
3.00479
2.98099
2.95113
2.92745
2.9171
2.91189
2.90681
2.8979
2.88221
2.86552
2.8606
2.86041
2.85896
2.85248
2.84046
2.83166
2.82795
2.82214
2.80988
2.79618
2.78974
2.78552
2.78146
2.77498
2.7636
2.74748
2.73658
2.73144
2.72917
2.73082
2.72987
2.7268
2.72259
2.71773
2.71494
2.71537
2.72115
2.72526
2.72865
2.73167
2.7325
2.73292
2.73506
2.7399
2.74786
2.75025
2.74597
2.74109
2.73788
2.73535
2.73122
2.72416
2.71541
2.70673
2.69788
2.68844
2.67797
2.66565
2.64995
2.63196
2.6199
2.60679
4.98932
4.92334
4.85357
4.78483
4.7205
4.65319
4.57537
4.49722
4.4315
4.37666
4.30637
4.2181
4.13489
4.0729
4.01961
3.9544
3.87489
3.79072
3.72741
3.6704
3.61118
3.54817
3.47836
3.40875
3.35401
3.31066
3.27047
3.22995
3.18623
3.13937
3.09808
3.06711
3.04059
3.01621
2.99194
2.96432
2.9295
2.9012
2.88755
2.87904
2.87161
2.86113
2.84443
2.82675
2.82014
2.81879
2.817
2.80993
2.79974
2.79496
2.7944
2.7904
2.77894
2.76533
2.76012
2.75961
2.76033
2.75598
2.74699
2.7324
2.71974
2.71595
2.71622
2.7228
2.72617
2.72552
2.72334
2.71777
2.71387
2.71465
2.72038
2.73133
2.73932
2.74215
2.74208
2.74029
2.73994
2.74116
2.74594
2.75137
2.75053
2.7467
2.7408
2.73363
2.72613
2.71837
2.71091
2.70348
2.6954
2.68526
2.67177
2.6548
2.63691
2.62365
2.61664
2.60426
4.99585
4.92997
4.86256
4.79682
4.73246
4.66303
4.58741
4.51493
4.45363
4.39557
4.31907
4.2316
4.15591
4.09741
4.04201
3.97228
3.88896
3.81003
3.75083
3.69376
3.63266
3.56646
3.49309
3.42432
3.37116
3.32553
3.28132
3.23649
3.18767
3.13608
3.09278
3.06044
3.03244
3.0058
2.97829
2.94583
2.90618
2.87563
2.85918
2.84699
2.8355
2.82211
2.80334
2.78662
2.77987
2.77816
2.7741
2.76453
2.75643
2.7548
2.75789
2.75722
2.74963
2.7371
2.72968
2.72938
2.73194
2.73005
2.72536
2.71666
2.70584
2.70303
2.70415
2.71103
2.71762
2.71954
2.7192
2.71468
2.7133
2.71628
2.72255
2.73616
2.74755
2.7498
2.74808
2.74468
2.74328
2.74355
2.74628
2.74986
2.75038
2.74594
2.73713
2.72699
2.719
2.71188
2.70475
2.69699
2.68737
2.67438
2.65785
2.64151
2.62947
2.62005
2.61288
2.59934
5.0062
4.94109
4.87524
4.81006
4.74382
4.67312
4.6002
4.53195
4.4717
4.40676
4.32639
4.24404
4.17487
4.11948
4.059
3.98357
3.89794
3.82644
3.76974
3.71267
3.65001
3.58076
3.5054
3.43957
3.38643
3.33747
3.28932
3.24019
3.18711
3.13311
3.08932
3.05516
3.02453
2.99449
2.96236
2.92499
2.88423
2.85488
2.83645
2.82055
2.80404
2.78516
2.76356
2.7508
2.74621
2.7454
2.73891
2.72692
2.71886
2.71832
2.7237
2.72719
2.72392
2.71456
2.70448
2.70265
2.7047
2.70832
2.7074
2.70413
2.69863
2.69624
2.69639
2.6997
2.70681
2.71244
2.71292
2.71123
2.71405
2.71974
2.72873
2.74124
2.75076
2.75351
2.75156
2.74657
2.7448
2.74683
2.74895
2.74811
2.74535
2.7388
2.72899
2.71967
2.71227
2.70495
2.69708
2.68776
2.67583
2.66176
2.6484
2.63769
2.6286
2.61969
2.61205
2.59778
5.03077
4.96476
4.89818
4.83141
4.76271
4.69134
4.62029
4.55381
4.49042
4.41878
4.33899
4.26293
4.19845
4.14339
4.07533
3.99381
3.91047
3.8448
3.78945
3.73061
3.66454
3.5902
3.51552
3.45416
3.4005
3.34871
3.29699
3.24312
3.18661
3.13326
3.09027
3.05421
3.0206
2.98628
2.94947
2.90909
2.87142
2.84414
2.82354
2.80418
2.783
2.75732
2.73606
2.72694
2.72391
2.72296
2.71574
2.70274
2.69114
2.6896
2.69511
2.70274
2.70348
2.69844
2.68823
2.68418
2.68559
2.69182
2.69771
2.69905
2.69812
2.69521
2.69567
2.69842
2.70403
2.71027
2.71646
2.7238
2.73168
2.73947
2.74469
2.74707
2.74992
2.75179
2.75218
2.75341
2.75547
2.75541
2.75344
2.74811
2.74016
2.7326
2.72571
2.71881
2.71161
2.70355
2.69346
2.68093
2.6682
2.6573
2.64796
2.63949
2.63106
2.62178
2.61354
2.59915
5.05568
4.99019
4.9232
4.85445
4.78339
4.71141
4.64161
4.57518
4.50679
4.43028
4.35097
4.27997
4.22368
4.16581
4.08983
4.00468
3.92942
3.8689
3.81238
3.74862
3.67663
3.59916
3.53061
3.47196
3.41703
3.3626
3.30685
3.24866
3.19035
3.13886
3.09635
3.05855
3.022
2.98415
2.94349
2.90114
2.86561
2.8399
2.81806
2.79682
2.77285
2.74203
2.71958
2.71061
2.70801
2.70617
2.69951
2.68801
2.67353
2.66896
2.67243
2.68171
2.68642
2.68561
2.67883
2.67343
2.67494
2.6812
2.69038
2.69575
2.69783
2.69949
2.70212
2.70532
2.70989
2.71816
2.72963
2.73879
2.74642
2.75225
2.75677
2.75926
2.76002
2.76052
2.76168
2.76388
2.7657
2.76397
2.75958
2.75197
2.74239
2.73485
2.72829
2.72141
2.71396
2.7051
2.69248
2.67759
2.6659
2.65708
2.6494
2.64279
2.63693
2.62926
2.62155
2.60275
5.0776
5.01282
4.94643
4.87801
4.80802
4.73805
4.6694
4.60067
4.52836
4.453
4.38016
4.31455
4.25317
4.18341
4.10182
4.02146
3.95631
3.89777
3.83608
3.76661
3.68924
3.61464
3.55129
3.49309
3.43618
3.37896
3.31952
3.2575
3.19869
3.14916
3.10661
3.06723
3.02785
2.98641
2.94172
2.89878
2.86536
2.83969
2.81636
2.79335
2.76802
2.73667
2.71084
2.69925
2.69422
2.69157
2.68526
2.67523
2.66014
2.65242
2.65381
2.66146
2.66775
2.67003
2.66872
2.66452
2.6663
2.67301
2.68293
2.6918
2.6973
2.70152
2.70635
2.71166
2.7181
2.72817
2.73983
2.74856
2.75571
2.7615
2.76757
2.77123
2.77129
2.7708
2.77161
2.77404
2.77485
2.77225
2.76694
2.75761
2.747
2.74039
2.73406
2.72675
2.71809
2.70683
2.69207
2.67798
2.66901
2.6616
2.65404
2.64587
2.63753
2.62879
2.62012
2.59946
5.09544
5.03139
4.96539
4.8975
4.82856
4.75966
4.69084
4.62029
4.54712
4.47376
4.40411
4.33975
4.2723
4.19225
4.11124
4.04187
3.9823
3.92353
3.85589
3.78186
3.70285
3.63352
3.57401
3.51551
3.45684
3.39702
3.33361
3.2681
3.21004
3.16232
3.11954
3.07861
3.03701
2.99139
2.94117
2.89743
2.86731
2.84241
2.81906
2.79529
2.76631
2.73169
2.70552
2.69213
2.68326
2.67587
2.66813
2.6585
2.64553
2.63748
2.63801
2.64202
2.64507
2.64977
2.65295
2.65408
2.65735
2.66522
2.67603
2.68621
2.69324
2.69992
2.70735
2.71505
2.72393
2.73572
2.74603
2.75376
2.76031
2.76699
2.77411
2.77807
2.77863
2.77833
2.77857
2.78023
2.77977
2.77588
2.77011
2.76228
2.75301
2.74513
2.73753
2.72898
2.71914
2.70756
2.69487
2.68412
2.67522
2.66673
2.65817
2.64888
2.63877
2.62691
2.61452
2.59118
5.1049
5.04203
4.97707
4.91044
4.84277
4.77459
4.70536
4.63443
4.56263
4.49169
4.42344
4.35616
4.28319
4.2054
4.13162
4.06402
4.00259
3.9394
3.86843
3.7913
3.71539
3.65278
3.59464
3.53651
3.47739
3.41345
3.34333
3.2771
3.22276
3.17579
3.13208
3.08981
3.04632
2.99645
2.94401
2.90201
2.86997
2.84213
2.81603
2.78967
2.76049
2.72893
2.70247
2.68316
2.66845
2.6576
2.64792
2.63651
2.62664
2.62315
2.62436
2.62389
2.62199
2.62514
2.6316
2.63931
2.64804
2.65785
2.66786
2.67627
2.68419
2.69344
2.70417
2.71614
2.73006
2.74208
2.74812
2.75338
2.75869
2.76618
2.77527
2.78097
2.78205
2.78149
2.78046
2.78052
2.77972
2.7758
2.77015
2.76285
2.75445
2.7457
2.73701
2.7279
2.7181
2.70811
2.69822
2.68821
2.67806
2.66808
2.65807
2.64739
2.63546
2.62068
2.60518
2.58282
5.10538
5.04361
4.97993
4.91473
4.84843
4.78101
4.71213
4.642
4.57158
4.502
4.43357
4.36331
4.28881
4.21413
4.14287
4.07726
4.01578
3.94639
3.87236
3.79519
3.72808
3.66852
3.60942
3.54935
3.48701
3.42014
3.35102
3.28819
3.23444
3.18635
3.14133
3.09614
3.04682
2.99485
2.94669
2.90676
2.87239
2.84163
2.81311
2.78396
2.75293
2.72218
2.69599
2.67454
2.65738
2.64326
2.62904
2.61463
2.60798
2.60669
2.60852
2.60797
2.60434
2.60606
2.61293
2.62507
2.64019
2.65029
2.65898
2.66784
2.67713
2.68746
2.70061
2.71995
2.73756
2.74391
2.7482
2.75174
2.7565