/*--------------------------------*- C++ -*----------------------------------*\
  =========                 |
  \\      /  F ield         | OpenFOAM: The Open Source CFD Toolbox
   \\    /   O peration     | Website:  https://openfoam.org
    \\  /    A nd           | Version:  7
     \\/     M anipulation  |
\*---------------------------------------------------------------------------*/
FoamFile
{
    version     2.0;
    format      ascii;
    class       volScalarField;
    location    "18";
    object      T;
}
// * * * * * * * * * * * * * * * * * * * * * * * * * * * * * * * * * * * * * //

dimensions      [0 0 0 1 0 0 0];

internalField   nonuniform List<scalar> 
4032
(
1
1
1
1
1
1
1
1
1
1
1
1.74992
2.64031
2.72233
2.73361
2.74703
2.75793
2.76783
2.77712
2.78652
2.79666
2.80683
2.81533
2.82051
1
1
1
1
1
1
1
1
1
1
1
1.7279
2.63144
2.72108
2.73238
2.74551
2.75613
2.76568
2.77459
2.78357
2.7933
2.80307
2.81124
2.8163
1
1
1
1
1
1
1
1
1
1
1
1.66669
2.61114
2.71604
2.72796
2.74153
2.75225
2.76177
2.77047
2.77905
2.78825
2.79757
2.80532
2.81036
1
1
1
1
1
1
1
1
1
1
1
1.56352
2.57112
2.70517
2.71938
2.7346
2.74591
2.75566
2.76432
2.77271
2.78147
2.79005
2.79657
2.80024
1
1
1
1
1
1
1
1
1
1
1
1.42595
2.51385
2.69329
2.70815
2.72528
2.73708
2.747
2.75529
2.76284
2.7701
2.77699
2.78192
2.78601
1
1
1
1
1
1
1
1
1
1
1
1.24913
2.43116
2.68119
2.69427
2.71344
2.72535
2.73518
2.74312
2.75052
2.75751
2.76304
2.76351
2.75767
1
1
1
1
1
1
1
1
1
1
1
1.04568
2.3359
2.68198
2.68524
2.69881
2.70898
2.71874
2.72662
2.73302
2.73631
2.73517
2.72813
2.71941
1
1
1
1
1
1
1
1
1
1
1
1.00082
2.21516
2.66372
2.66941
2.68043
2.69042
2.69861
2.70526
2.70901
2.70819
2.706
2.70426
2.71991
1
1
1
1
1
1
1
1
1
1
1
1
2.03569
2.63689
2.6626
2.67048
2.67617
2.6802
2.68294
2.68149
2.6745
2.6585
2.61749
2.53431
1
1
1
1
1
1
1
1
1
1
1
1
1.78619
2.56386
2.64342
2.65753
2.66297
2.66471
2.66171
2.6548
2.63932
2.60583
2.55432
2.41541
1
1
1
1
1
1
1
1
1
1
1
1
1.42491
2.42538
2.61857
2.6386
2.6472
2.64644
2.64072
2.62848
2.60719
2.56484
2.50261
2.33145
1
1
1
1
1
1
1
1
1
1
1
1
1.05343
2.28132
2.60637
2.61025
2.61951
2.62187
2.61742
2.60412
2.57951
2.53562
2.46424
2.32381
1
1
1
1
1
1
1
1
1
1
1
1
1.00061
2.09788
2.56235
2.58045
2.59059
2.59366
2.59073
2.57922
2.55514
2.51394
2.44324
2.33346
1
1
1
1
1
1
1
1
1
1
1
1
0.999994
1.74759
2.48603
2.5575
2.56833
2.56999
2.56616
2.55493
2.53264
2.49494
2.43229
2.35198
1
1
1
1
1
1
1
1
1
1
1
1
0.999999
1.26018
2.35014
2.55353
2.54681
2.54546
2.54014
2.52976
2.5092
2.47597
2.42778
2.37492
1
1
1
1
1
1
1
1
1
1
1
1
1
1.0171
2.20128
2.53039
2.52781
2.52524
2.51907
2.50716
2.48784
2.46171
2.42792
2.39311
1
1
1
1
1
1
1
1
1
1
1
1
1
1.00002
1.87261
2.48343
2.51866
2.51479
2.5069
2.49431
2.4773
2.45574
2.42972
2.40453
1
1
1
1
1
1
1
1
1
1
1
1
1
0.999998
1.3634
2.36596
2.52266
2.51036
2.50051
2.48724
2.4711
2.45183
2.4309
2.41025
1
1
1
1
1
1
1
1
1
1
1
1
1
0.999999
1.03323
2.22229
2.51948
2.5115
2.49864
2.4882
2.47299
2.45434
2.43499
2.41591
1
1
1
1
1
1
1
1
1
1
1
1
1
1
1.00016
1.9382
2.49355
2.51407
2.50498
2.49357
2.47761
2.45963
2.44138
2.4225
1
1
1
1
1
1
1
1
1
1
1
1
1
1
0.999999
1.47301
2.41173
2.53947
2.51751
2.50143
2.48456
2.46714
2.44946
2.4303
1
1
1
1
1
1
1
1
1
1
1
1
1
1
1
1.05742
2.30243
2.55045
2.52456
2.51021
2.49415
2.47726
2.4598
2.44062
1
1
1
1
1
1
1
1
1
1
1
1
1
1
1
1.00062
2.15262
2.56489
2.5464
2.52923
2.5097
2.49108
2.47272
2.4532
1
1
1
1
1
1
1
1
1
1
1
1
1
1
1
0.999997
1.92985
2.57532
2.57309
2.5523
2.53057
2.50997
2.49015
2.4699
1
1
1
1
1
1
1
1
1
1
1
1
1
1
1
0.999999
1.65039
2.52756
2.58624
2.56447
2.54706
2.52849
2.5093
2.48931
1
1
1
1
1
1
1
1
1
1
1
1
1
1
1
1
1.33695
2.43702
2.6141
2.58523
2.56853
2.55021
2.53111
2.51133
1
1
1
1
1
1
1
1
1
1
1
1
1
1
1
1
1.06773
2.3536
2.62927
2.59876
2.5831
2.56659
2.54926
2.53116
1
1
1
1
1
1
1
1
1
1
1
1
1
1
1
1
1.00127
2.26372
2.64251
2.61577
2.60044
2.58429
2.56772
2.55069
1
1
1
1
1
1
1
1
1
1
1
1
1
1
1
1
1
2.15752
2.64839
2.63462
2.61892
2.60318
2.58688
2.57024
1
1
1
1
1
1
1
1
1
1
1
1
1
1
1
1
1
2.03704
2.64053
2.64554
2.63032
2.61721
2.60207
2.58637
1
1
1
1
1
1
1
1
1
1
1
1
1
1
1
1
1
1.90969
2.61249
2.64674
2.63075
2.62087
2.60846
2.59555
1
1
1
1
1
1
1
1
1
1
1
1
1
1
1
1
1
1.77629
2.5757
2.64765
2.63116
2.62277
2.61167
2.60003
1
1
1
1
1
1
1
1
1
1
1
1
1
1
1
1
1
1.65063
2.54214
2.64682
2.62856
2.6204
2.60991
2.59895
1
1
1
1
1
1
1
1
1
1
1
1
1
1
1
1
1
1.542
2.517
2.64869
2.6282
2.61916
2.60848
2.59771
1
1
1
1
1
1
1
1
1
1
1
1
1
1
1
1
1
1.45294
2.4953
2.65401
2.63173
2.62137
2.60986
2.59859
1
1
1
1
1
1
1
1
1
1
1
1
1
1
1
1
1
1.36223
2.47332
2.65966
2.63747
2.62652
2.61435
2.60252
1
1
1
1
1
1
1
1
1
1
1
1
1
1
1
1
1
1.30147
2.45435
2.66437
2.64283
2.63224
2.6202
2.60833
1
1
1
1
1
1
1
1
1
1
1
1
1
1
1
1
1
1.26464
2.44018
2.66782
2.64716
2.63703
2.62539
2.61374
1
1
1
1
1
1
1
1
1
1
1
1
1
1
1
1
1
1.2389
2.42898
2.6697
2.65
2.64014
2.62874
2.61732
1
1
1
1
1
1
1
1
1
1
1
1
1
1
1
1
1
1.2278
2.42354
2.66936
2.6506
2.6412
2.63005
2.61883
1.85339
2.03976
2.30721
2.44409
2.49081
2.51003
2.52538
2.54252
2.5628
2.58275
2.59983
2.61061
2.61415
2.61614
2.61755
2.62261
2.62946
2.63628
2.64232
2.64816
2.65373
2.65832
2.66118
2.66258
2.66351
2.66519
2.66843
2.67303
2.67797
2.68178
2.6834
2.68277
2.67977
2.67481
2.66856
2.66132
2.65335
2.64509
2.63704
2.62967
2.62333
2.61809
2.61349
2.60872
2.60253
2.59475
2.58601
2.57666
2.56694
2.55675
2.54583
2.53447
2.52351
2.51367
2.50508
2.49747
2.49022
2.4827
2.47499
2.46768
2.46115
2.4552
2.44828
2.43911
2.42937
2.42006
2.41161
2.40469
2.3995
2.3945
2.38843
2.382
2.37621
2.37158
2.36638
2.35983
2.35303
2.34542
2.33675
2.32933
2.32426
2.32003
2.31646
2.31298
2.30931
2.30616
2.30567
2.30699
2.31069
2.31591
2.32122
2.32539
2.32906
2.3309
2.33154
2.33477
2.11586
2.24885
2.37842
2.45129
2.49139
2.50121
2.51216
2.52889
2.54543
2.55996
2.57142
2.58357
2.59282
2.59829
2.60115
2.60564
2.61281
2.62196
2.63059
2.6372
2.64205
2.64624
2.65076
2.65547
2.65876
2.66012
2.66004
2.65952
2.65936
2.65981
2.66018
2.65952
2.65649
2.6508
2.64377
2.63674
2.63025
2.62416
2.61788
2.61073
2.60278
2.59471
2.58737
2.58098
2.57487
2.56757
2.55858
2.54835
2.53798
2.52833
2.51933
2.51033
2.50105
2.49193
2.48357
2.47625
2.46976
2.46306
2.45498
2.44603
2.43726
2.42911
2.42187
2.4142
2.40545
2.39656
2.38828
2.38103
2.37553
2.37142
2.36686
2.36153
2.35636
2.3519
2.34763
2.34276
2.33731
2.33145
2.32481
2.31748
2.31133
2.30722
2.30425
2.30197
2.29993
2.29772
2.29586
2.29617
2.29741
2.30007
2.30501
2.31145
2.31877
2.32454
2.32873
2.33259
2.14136
2.20681
2.23357
2.30502
2.3879
2.44032
2.47218
2.49599
2.51755
2.53467
2.54194
2.54915
2.56536
2.58134
2.58999
2.59275
2.59518
2.60009
2.60827
2.61645
2.61981
2.61819
2.61472
2.61283
2.61357
2.61542
2.61583
2.61375
2.60908
2.60391
2.59954
2.59603
2.59226
2.58645
2.57784
2.56805
2.55912
2.55191
2.5462
2.54094
2.53499
2.52787
2.51903
2.51017
2.50245
2.4957
2.48839
2.47906
2.46876
2.45867
2.44953
2.44144
2.43405
2.42684
2.41997
2.41368
2.40826
2.40378
2.39875
2.39159
2.38344
2.37499
2.36694
2.35944
2.35225
2.34506
2.33771
2.33081
2.32484
2.31975
2.31518
2.31094
2.30659
2.30172
2.29674
2.29184
2.28715
2.28289
2.27861
2.27359
2.26782
2.2623
2.25912
2.25738
2.25718
2.25828
2.26074
2.26322
2.26401
2.26421
2.26538
2.26871
2.27489
2.28301
2.29104
2.299
2.17607
2.22105
2.19076
2.20869
2.27429
2.33962
2.37171
2.40029
2.4272
2.45715
2.47623
2.47901
2.48633
2.50212
2.51588
2.51849
2.51507
2.51076
2.51033
2.51349
2.51637
2.51488
2.50888
2.50165
2.49625
2.49349
2.49211
2.49026
2.48638
2.48024
2.4733
2.46709
2.46241
2.4587
2.45417
2.4477
2.44014
2.43282
2.42624
2.42035
2.41471
2.40887
2.4015
2.39236
2.38425
2.37779
2.37247
2.36561
2.35809
2.3504
2.34311
2.33669
2.33094
2.32518
2.31905
2.31287
2.30727
2.30243
2.29682
2.29076
2.28447
2.27782
2.27103
2.26462
2.25886
2.25334
2.24782
2.24288
2.23885
2.23542
2.23251
2.23
2.22739
2.22432
2.22056
2.21628
2.21206
2.20853
2.20586
2.20345
2.20065
2.19687
2.19242
2.19038
2.18988
2.19043
2.19359
2.19837
2.2032
2.20743
2.21042
2.21226
2.21449
2.21813
2.22338
2.23125
2.23371
2.24996
2.21608
2.18089
2.19328
2.22124
2.23659
2.25854
2.28605
2.31596
2.34482
2.35027
2.34966
2.35566
2.36903
2.37415
2.37401
2.37067
2.36662
2.36558
2.36812
2.37116
2.37009
2.3656
2.35976
2.35542
2.3532
2.35208
2.35059
2.34717
2.34187
2.33629
2.33171
2.32876
2.32699
2.32461
2.32062
2.31544
2.30962
2.30356
2.29817
2.29409
2.28975
2.28277
2.27599
2.2704
2.26408
2.25799
2.25244
2.24732
2.24281
2.23798
2.23243
2.22651
2.22076
2.2158
2.21196
2.20821
2.20326
2.19737
2.19059
2.18321
2.17632
2.17076
2.16621
2.16163
2.15629
2.1511
2.14716
2.14422
2.14202
2.14023
2.13856
2.13672
2.13426
2.13086
2.12681
2.12305
2.12048
2.11907
2.118
2.11651
2.1138
2.11222
2.11247
2.1128
2.11414
2.11721
2.12163
2.12661
2.13142
2.1356
2.13888
2.14234
2.14582
2.1513
2.28517
2.2849
2.25092
2.19983
2.17913
2.18214
2.18171
2.18537
2.19651
2.21066
2.23413
2.24157
2.24077
2.23911
2.24449
2.24948
2.24875
2.24225
2.23786
2.23781
2.24041
2.24452
2.24433
2.2415
2.23761
2.23478
2.23447
2.23589
2.23668
2.23567
2.23267
2.22943
2.22725
2.22694
2.2278
2.22774
2.22531
2.22161
2.21816
2.21505
2.21288
2.21155
2.20765
2.20178
2.19605
2.19116
2.18661
2.18169
2.17669
2.17223
2.16783
2.16308
2.15798
2.15309
2.14846
2.14381
2.13954
2.13523
2.13029
2.12409
2.11702
2.1099
2.10399
2.0997
2.09561
2.09048
2.08432
2.07874
2.07444
2.07099
2.0683
2.06662
2.06543
2.06396
2.06167
2.05819
2.05395
2.04999
2.04725
2.04613
2.04584
2.04546
2.04418
2.04306
2.04333
2.04351
2.04385
2.04558
2.04883
2.05354
2.05958
2.06524
2.06757
2.06796
2.06835
2.07037
2.33282
2.31827
2.28088
2.23314
2.19631
2.1913
2.18952
2.18611
2.17978
2.17848
2.18594
2.18766
2.18322
2.17578
2.17476
2.17812
2.17744
2.17181
2.16667
2.16785
2.17199
2.17574
2.1753
2.17288
2.17189
2.17153
2.17269
2.17694
2.17905
2.17861
2.1774
2.17696
2.17773
2.18098
2.18449
2.18463
2.18253
2.17998
2.17881
2.17889
2.17987
2.17902
2.17394
2.16747
2.16147
2.15753
2.15505
2.15146
2.14622
2.14016
2.13411
2.12931
2.12593
2.1233
2.11958
2.11399
2.10745
2.10051
2.09332
2.08623
2.08064
2.07659
2.07161
2.06559
2.05889
2.05142
2.04467
2.03998
2.0366
2.03351
2.03006
2.02652
2.02337
2.02014
2.01645
2.01256
2.00893
2.00572
2.00284
2.00045
1.99863
1.99709
1.99522
1.99498
1.99524
1.99542
1.99629
1.9978
2.00014
2.00413
2.01009
2.01384
2.01397
2.01293
2.01251
2.01343
2.36286
2.34206
2.30623
2.26457
2.22817
2.2156
2.21289
2.20438
2.18951
2.18371
2.18658
2.1855
2.17656
2.16235
2.15363
2.15225
2.15014
2.1445
2.13827
2.13863
2.14195
2.14476
2.14446
2.14196
2.14192
2.14293
2.14538
2.14924
2.15027
2.15028
2.15013
2.15038
2.15213
2.15598
2.15829
2.15818
2.15662
2.15563
2.15567
2.15634
2.15585
2.15224
2.14738
2.14325
2.14038
2.13857
2.13543
2.13032
2.12471
2.11961
2.1157
2.11281
2.10995
2.10566
2.09971
2.09285
2.08656
2.08044
2.07461
2.06958
2.06519
2.06029
2.05414
2.04694
2.03962
2.03347
2.02889
2.02545
2.02228
2.01867
2.01418
2.00868
2.00306
1.99788
1.9935
1.9903
1.98785
1.9852
1.9815
1.9763
1.97094
1.96796
1.96725
1.96781
1.97007
1.9728
1.97526
1.97644
1.97686
1.97773
1.97948
1.98114
1.98123
1.98133
1.98094
1.98087
2.38015
2.35788
2.32636
2.2907
2.25795
2.24496
2.24214
2.23113
2.21063
2.19841
2.19732
2.19533
2.18449
2.16775
2.15506
2.1497
2.14579
2.13887
2.13009
2.12526
2.12623
2.12764
2.12698
2.12378
2.1226
2.1234
2.12541
2.12781
2.12795
2.12794
2.12787
2.12812
2.12966
2.13324
2.1351
2.13485
2.13348
2.13292
2.13324
2.13407
2.1325
2.12799
2.12292
2.12019
2.11913
2.11862
2.11487
2.10905
2.10257
2.09878
2.09658
2.09498
2.09157
2.08611
2.07904
2.07146
2.06548
2.06101
2.05712
2.0533
2.04861
2.04246
2.03489
2.02668
2.02065
2.01664
2.01325
2.01003
2.00648
2.00223
1.99719
1.99122
1.98479
1.9797
1.97638
1.97449
1.97279
1.97041
1.96651
1.96043
1.95527
1.95371
1.9537
1.95554
1.95978
1.96418
1.96548
1.96505
1.96267
1.96074
1.96038
1.9615
1.96369
1.96426
1.96356
1.96117
2.3884
2.36655
2.34034
2.31071
2.28116
2.26963
2.2667
2.25504
2.23354
2.21861
2.21479
2.21043
2.19716
2.17772
2.16257
2.15476
2.14879
2.14023
2.12893
2.12047
2.11775
2.11785
2.11626
2.11299
2.10979
2.10899
2.10932
2.11032
2.1102
2.1095
2.10908
2.10913
2.10998
2.1127
2.11485
2.11473
2.11331
2.11273
2.11319
2.11386
2.11205
2.10759
2.10308
2.10116
2.10109
2.10006
2.09599
2.09004
2.08427
2.08128
2.07974
2.0778
2.07377
2.06801
2.06039
2.05329
2.04866
2.04475
2.04116
2.03716
2.03209
2.02574
2.01773
2.01062
2.00586
2.00183
1.99846
1.9951
1.99126
1.98702
1.98205
1.97686
1.97232
1.96797
1.96434
1.96192
1.95999
1.95807
1.95517
1.95145
1.94895
1.94821
1.9485
1.95017
1.95374
1.95742
1.95844
1.95693
1.95431
1.95271
1.95211
1.95258
1.95423
1.9543
1.95276
1.94946
2.39474
2.37317
2.35068
2.32494
2.29767
2.2868
2.28337
2.27166
2.25076
2.23594
2.23077
2.22414
2.20953
2.18896
2.17371
2.16481
2.15624
2.14536
2.13158
2.11951
2.1147
2.11339
2.11102
2.10712
2.10267
2.09978
2.09867
2.09896
2.09869
2.09724
2.09587
2.0955
2.09593
2.09785
2.0996
2.09938
2.09754
2.09662
2.09695
2.09736
2.09581
2.09179
2.08744
2.08612
2.08628
2.08445
2.08038
2.07457
2.06977
2.06759
2.06627
2.06342
2.05903
2.05278
2.04511
2.03963
2.03578
2.03214
2.02802
2.0233
2.01763
2.01066
2.00354
1.99906
1.99558
1.99158
1.98718
1.98256
1.97838
1.97461
1.97064
1.96718
1.96444
1.96158
1.9581
1.9547
1.95229
1.95051
1.9492
1.94828
1.94766
1.94774
1.94806
1.9491
1.95087
1.95228
1.95306
1.95291
1.95206
1.95118
1.9504
1.9501
1.94943
1.94817
1.94636
1.94389
2.4015
2.38107
2.36148
2.33819
2.31281
2.3012
2.296
2.28319
2.26242
2.24807
2.24198
2.23398
2.21889
2.19835
2.18403
2.17504
2.16551
2.15278
2.1364
2.12179
2.11572
2.11317
2.10976
2.10476
2.0985
2.09398
2.09154
2.09109
2.09075
2.08875
2.08645
2.08535
2.0855
2.08693
2.08816
2.08768
2.08541
2.08356
2.08351
2.08382
2.08294
2.07991
2.07554
2.07387
2.07353
2.07154
2.06782
2.06293
2.0596
2.05784
2.05569
2.05202
2.04683
2.0395
2.03381
2.03027
2.02708
2.02332
2.01855
2.01256
2.00503
1.99763
1.99354
1.99113
1.98894
1.9855
1.98085
1.97446
1.96873
1.96508
1.96269
1.96094
1.95949
1.95768
1.95546
1.95216
1.94929
1.94765
1.94765
1.94912
1.95037
1.95075
1.95066
1.95071
1.95042
1.95017
1.95119
1.95277
1.95355
1.95345
1.9524
1.9502
1.94696
1.94482
1.94393
1.94256
2.40934
2.39006
2.37195
2.34929
2.32604
2.31476
2.3083
2.29414
2.27323
2.25884
2.25152
2.2419
2.22577
2.2057
2.193
2.18417
2.17359
2.15961
2.14109
2.12559
2.11885
2.11517
2.11046
2.10412
2.09597
2.09033
2.08722
2.08611
2.08533
2.08291
2.08039
2.07849
2.07735
2.07742
2.07766
2.07672
2.07409
2.07158
2.07114
2.07163
2.07132
2.069
2.06496
2.06262
2.06192
2.06017
2.05698
2.05351
2.05135
2.04924
2.04613
2.04206
2.03644
2.02997
2.02643
2.02377
2.02063
2.01658
2.01148
2.00418
1.99496
1.99013
1.98821
1.98733
1.98531
1.98206
1.97745
1.97047
1.9637
1.96103
1.95978
1.95965
1.95991
1.95884
1.95666
1.9529
1.95059
1.95015
1.95115
1.95334
1.95475
1.9552
1.95455
1.9533
1.95209
1.95205
1.95355
1.9563
1.95776
1.95688
1.9542
1.94982
1.94639
1.94505
1.94465
1.94391
2.42001
2.40145
2.3836
2.3609
2.33919
2.32804
2.31989
2.30411
2.28354
2.26969
2.26151
2.25035
2.23302
2.2135
2.20192
2.19305
2.18173
2.16654
2.14655
2.13177
2.12473
2.11963
2.11309
2.10461
2.09426
2.08832
2.08507
2.08335
2.08086
2.07776
2.0737
2.0694
2.06719
2.0661
2.06567
2.06436
2.0618
2.05901
2.05826
2.05881
2.05886
2.05672
2.05296
2.05078
2.05066
2.04971
2.04715
2.04417
2.0421
2.04006
2.03721
2.03344
2.02794
2.02255
2.01942
2.01671
2.01345
2.00957
2.00469
1.99731
1.99018
1.98756
1.98623
1.9845
1.98206
1.97897
1.97469
1.96874
1.96401
1.96211
1.96129
1.96092
1.96076
1.95978
1.95736
1.95446
1.95362
1.95354
1.9542
1.95543
1.95644
1.95732
1.95747
1.95641
1.95599
1.95644
1.95755
1.95879
1.95877
1.95685
1.95351
1.9491
1.94674
1.94582
1.94534
1.94359
2.43303
2.41495
2.39698
2.37473
2.3546
2.34299
2.3326
2.31491
2.29452
2.28142
2.27281
2.26046
2.24216
2.2233
2.21226
2.20287
2.19058
2.17437
2.15414
2.1402
2.13217
2.12508
2.11654
2.10546
2.09321
2.08723
2.08396
2.08107
2.07715
2.07265
2.06568
2.05983
2.05749
2.05615
2.05539
2.05387
2.05135
2.048
2.04655
2.04688
2.047
2.04491
2.04141
2.03969
2.03972
2.03913
2.03704
2.03371
2.03125
2.02956
2.0272
2.02398
2.02026
2.01546
2.01085
2.00733
2.00397
2.00043
1.99637
1.99174
1.98793
1.98522
1.98241
1.97922
1.9761
1.97328
1.97016
1.96715
1.96522
1.96327
1.96126
1.96019
1.95982
1.95942
1.95805
1.957
1.95719
1.95733
1.95758
1.95789
1.95826
1.95863
1.95927
1.95992
1.96038
1.96026
1.95989
1.95982
1.95932
1.95692
1.95304
1.94955
1.94781
1.94651
1.94551
1.94303
2.4497
2.43135
2.41276
2.39075
2.37117
2.35852
2.3462
2.32715
2.30809
2.29545
2.28572
2.27171
2.25237
2.234
2.22289
2.21293
2.19974
2.18304
2.16395
2.15021
2.14047
2.13127
2.12074
2.10727
2.09448
2.08847
2.08423
2.07999
2.07547
2.06912
2.06008
2.05365
2.05087
2.04904
2.04762
2.04559
2.04258
2.03871
2.03686
2.03678
2.03702
2.03528
2.03231
2.03094
2.03128
2.03129
2.02987
2.0266
2.02319
2.02121
2.01923
2.01709
2.01439
2.01059
2.0059
2.00114
1.99687
1.99352
1.99061
1.98789
1.98559
1.98317
1.98029
1.97663
1.97272
1.96969
1.9677
1.9666
1.96555
1.96443
1.96303
1.96149
1.96056
1.95987
1.95907
1.95964
1.96147
1.96216
1.96216
1.96147
1.96043
1.9605
1.96206
1.96477
1.96554
1.96509
1.96381
1.96173
1.95942
1.9571
1.95481
1.9529
1.95125
1.94922
1.9469
1.94305
2.46941
2.45075
2.4313
2.40976
2.39067
2.37688
2.36257
2.34257
2.32334
2.31023
2.29932
2.28386
2.26385
2.24592
2.23479
2.22471
2.21162
2.1946
2.17548
2.16128
2.15005
2.13943
2.12768
2.1127
2.09878
2.09217
2.08733
2.08205
2.07592
2.06818
2.05846
2.05188
2.04866
2.04625
2.0443
2.0418
2.0379
2.03368
2.03201
2.03191
2.03253
2.03138
2.02885
2.02747
2.02784
2.02791
2.02672
2.02382
2.0198
2.01717
2.0155
2.01418
2.01201
2.00831
2.00344
1.99805
1.99344
1.99044
1.9887
1.98719
1.9851
1.98265
1.97953
1.97528
1.97094
1.96885
1.96765
1.96739
1.96739
1.96683
1.96605
1.96449
1.96268
1.96161
1.96186
1.96391
1.96685
1.9685
1.968
1.96694
1.96672
1.96767
1.9699
1.97293
1.97332
1.97241
1.97018
1.96617
1.96326
1.96188
1.96122
1.96036
1.9586
1.95576
1.95167
1.94484
2.49167
2.47249
2.45224
2.43105
2.41232
2.39753
2.38107
2.36055
2.34197
2.32848
2.3162
2.29914
2.2784
2.26221
2.25103
2.23906
2.22404
2.20538
2.18762
2.17441
2.16252
2.15031
2.13681
2.12176
2.10868
2.1004
2.09407
2.08787
2.0806
2.07141
2.06171
2.05597
2.05228
2.04934
2.04652
2.04286
2.0372
2.03293
2.03231
2.03278
2.03344
2.03262
2.03002
2.02797
2.02798
2.02812
2.02726
2.02508
2.0211
2.01788
2.01626
2.01495
2.01285
2.00924
2.00441
1.99985
1.99622
1.99331
1.99106
1.98904
1.98681
1.98429
1.98127
1.97791
1.97453
1.9725
1.9716
1.97151
1.97201
1.97262
1.97206
1.97056
1.96887
1.96864
1.96985
1.97212
1.97485
1.97745
1.97827
1.97799
1.9781
1.97893
1.98116
1.98368
1.98345
1.98199
1.9788
1.97463
1.97235
1.97134
1.97038
1.96885
1.96655
1.9629
1.95768
1.95062
2.51279
2.49403
2.47404
2.45375
2.4357
2.42
2.40188
2.3813
2.36333
2.34981
2.33635
2.31797
2.29689
2.28098
2.26939
2.2564
2.23998
2.2208
2.20378
2.19014
2.1778
2.1652
2.15165
2.13651
2.12252
2.11294
2.10532
2.09824
2.09078
2.08173
2.07171
2.06508
2.06074
2.057
2.05345
2.04914
2.04274
2.0378
2.0369
2.03731
2.03758
2.0366
2.03343
2.03023
2.02976
2.03
2.02955
2.02807
2.02456
2.02127
2.01975
2.01822
2.01544
2.01166
2.0083
2.00559
2.00317
2.00083
1.99766
1.9939
1.99129
1.98898
1.98679
1.98508
1.98361
1.98198
1.98044
1.97971
1.9796
1.9805
1.98124
1.98054
1.98008
1.98087
1.98212
1.98385
1.98609
1.98913
1.99151
1.99132
1.9914
1.99181
1.99224
1.99349
1.99335
1.99202
1.98944
1.98601
1.98367
1.98193
1.98006
1.97771
1.97452
1.96978
1.96479
1.95996
2.53328
2.5152
2.49606
2.47703
2.45979
2.44329
2.42425
2.40424
2.38717
2.37385
2.35891
2.33938
2.31894
2.30377
2.29168
2.27758
2.26016
2.24029
2.22459
2.21149
2.19815
2.18414
2.1687
2.15298
2.14042
2.13042
2.12163
2.11324
2.10467
2.09527
2.08603
2.07887
2.07338
2.06863
2.06401
2.05863
2.05131
2.04559
2.04367
2.04314
2.04261
2.04086
2.03702
2.03267
2.03151
2.03157
2.0314
2.03006
2.02691
2.02439
2.02343
2.02188
2.01842
2.01455
2.01286
2.01185
2.01087
2.00905
2.00561
2.0007
1.99724
1.99537
1.99431
1.99458
1.99412
1.99314
1.99183
1.99022
1.98926
1.98937
1.99107
1.99242
1.99353
1.99463
1.99541
1.99624
1.99769
2.00005
2.00328
2.00443
2.00376
2.00341
2.00316
2.00272
2.00178
2.0002
1.99814
1.99597
1.99375
1.99137
1.98863
1.98529
1.98101
1.97594
1.97261
1.96913
2.55323
2.53563
2.51743
2.49964
2.48299
2.46594
2.44689
2.42803
2.4121
2.39878
2.38225
2.36189
2.34269
2.3283
2.31593
2.30085
2.28246
2.2628
2.24794
2.23452
2.22055
2.20563
2.18897
2.17225
2.15922
2.14907
2.13978
2.13051
2.12044
2.10926
2.09921
2.09179
2.0857
2.08023
2.07471
2.06813
2.05933
2.05217
2.04906
2.0472
2.04544
2.0429
2.03866
2.03393
2.03214
2.03179
2.03136
2.02946
2.02643
2.0249
2.02473
2.0236
2.02037
2.01644
2.01495
2.01486
2.01522
2.01415
2.01149
2.00692
2.00282
2.00135
2.00123
2.00278
2.00351
2.00317
2.00241
2.00068
1.99932
1.99939
2.00085
2.00406
2.00652
2.0077
2.00809
2.00813
2.0087
2.00992
2.01204
2.0141
2.01416
2.01368
2.01246
2.01066
2.00879
2.00688
2.00503
2.00318
2.00103
1.99827
1.99474
1.99025
1.98525
1.98147
1.97949
1.97611
2.57021
2.55357
2.53666
2.52014
2.50395
2.4868
2.4685
2.45105
2.4362
2.42216
2.40414
2.38381
2.36617
2.35246
2.33944
2.32307
2.30345
2.28474
2.27066
2.25703
2.24239
2.22645
2.20864
2.19189
2.17906
2.16813
2.15755
2.14677
2.13482
2.12193
2.11111
2.10318
2.09638
2.08987
2.08299
2.07462
2.06416
2.05612
2.05187
2.04862
2.04548
2.04191
2.03679
2.03204
2.03009
2.02958
2.02839
2.02554
2.02302
2.02241
2.02319
2.02297
2.02085
2.01731
2.01502
2.01486
2.01556
2.01511
2.01379
2.01102
2.00746
2.00639
2.00663
2.0083
2.00979
2.01004
2.00967
2.00811
2.00766
2.00843
2.01022
2.01429
2.01788
2.01882
2.01848
2.01781
2.01775
2.01833
2.01961
2.02109
2.02151
2.02062
2.01846
2.01586
2.01393
2.01219
2.01033
2.00818
2.00547
2.00186
1.99724
1.99269
1.98939
1.98679
1.98471
1.98091
2.58169
2.56696
2.5517
2.53635
2.52062
2.50387
2.48663
2.47042
2.45599
2.44058
2.42179
2.40253
2.38622
2.37306
2.3587
2.34083
2.32044
2.30329
2.28964
2.27585
2.26063
2.24367
2.22508
2.20878
2.19567
2.1836
2.17166
2.1593
2.14568
2.13175
2.12036
2.11154
2.10372
2.09587
2.08724
2.07701
2.06577
2.05774
2.05267
2.04821
2.04359
2.03811
2.03159
2.02764
2.02628
2.02614
2.02435
2.02085
2.01842
2.01825
2.01984
2.0209
2.01996
2.01728
2.01432
2.01371
2.01415
2.01502
2.01477
2.0137
2.01172
2.01064
2.01058
2.01131
2.01309
2.01459
2.01475
2.01427
2.0151
2.01674
2.0193
2.02288
2.02592
2.027
2.02661
2.02541
2.02498
2.0257
2.02641
2.02621
2.02563
2.02411
2.02159
2.01915
2.01723
2.01535
2.01322
2.01059
2.00719
2.00317
1.99939
1.99646
1.99405
1.99158
1.98933
1.98523
2.58734
2.57393
2.56008
2.54581
2.53082
2.51499
2.49897
2.48373
2.46904
2.45249
2.4341
2.41646
2.40138
2.38829
2.37211
2.35282
2.33307
2.31731
2.3039
2.28958
2.27342
2.25511
2.23654
2.22114
2.20764
2.19458
2.18143
2.16756
2.15278
2.13867
2.12715
2.11739
2.10821
2.09889
2.08872
2.07736
2.0666
2.05882
2.05298
2.04744
2.04125
2.03353
2.02695
2.02417
2.02348
2.02343
2.02153
2.01783
2.01447
2.01404
2.01573
2.01799
2.01819
2.01661
2.01352
2.01226
2.01258
2.01419
2.01573
2.01611
2.01574
2.01461
2.01462
2.01525
2.01683
2.01881
2.02092
2.02334
2.02572
2.02793
2.02936
2.03003
2.03097
2.03161
2.03183
2.03236
2.03297
2.03287
2.03217
2.03052
2.02834
2.02637
2.02456
2.02272
2.02075
2.01848
2.01564
2.01206
2.00842
2.00539
2.00291
2.00064
1.99826
1.99562
1.99323
1.98908
2.58707
2.57473
2.56192
2.54843
2.53411
2.51924
2.50445
2.49006
2.47499
2.45793
2.44
2.42375
2.41075
2.39731
2.3795
2.35954
2.34174
2.32728
2.31364
2.29819
2.28067
2.26163
2.24452
2.22974
2.21583
2.20195
2.18761
2.17248
2.1571
2.14328
2.13179
2.12143
2.11122
2.10064
2.08924
2.07721
2.067
2.05954
2.05325
2.04715
2.04008
2.03088
2.02417
2.02167
2.02115
2.0208
2.01897
2.01567
2.01145
2.01012
2.01119
2.01394
2.01523
2.01487
2.01268
2.01107
2.01154
2.01335
2.01575
2.01715
2.01786
2.01848
2.01929
2.02017
2.02147
2.02399
2.02746
2.0303
2.03267
2.03453
2.03604
2.03697
2.03724
2.03734
2.03761
2.03823
2.03874
2.0382
2.03684
2.03464
2.0319
2.0298
2.02799
2.02604
2.02391
2.02134
2.01769
2.01347
2.0102
2.00777
2.00561
2.0037
2.00201
1.99982
1.99757
1.99232
2.58633
2.57449
2.56211
2.54916
2.53564
2.52179
2.50785
2.49359
2.47827
2.46195
2.4458
2.43098
2.41703
2.40125
2.38253
2.3638
2.34839
2.33452
2.31989
2.30333
2.28463
2.2663
2.25053
2.23599
2.22165
2.20706
2.19171
2.1755
2.15989
2.14659
2.13508
2.12435
2.11354
2.10196
2.08939
2.07719
2.06766
2.06035
2.05368
2.04703
2.03961
2.03038
2.02286
2.01965
2.01835
2.01766
2.01583
2.01286
2.00832
2.00597
2.00639
2.00865
2.01042
2.01097
2.01048
2.00916
2.00969
2.01167
2.01461
2.01705
2.01865
2.02005
2.0217
2.02327
2.02515
2.02816
2.03181
2.03473
2.03712
2.03896
2.04091
2.0421
2.04217
2.04206
2.04235
2.04313
2.04336
2.04253
2.04084
2.03808
2.03507
2.03323
2.03143
2.02929
2.02668
2.02336
2.01914
2.01513
2.01257
2.01037
2.00814
2.0058
2.00341
2.00089
1.99851
1.99303
2.58701
2.57513
2.56281
2.55002
2.53683
2.52338
2.50965
2.49523
2.47989
2.46416
2.44897
2.43479
2.41977
2.40171
2.38333
2.36741
2.3536
2.33992
2.32413
2.30668
2.28765
2.27067
2.256
2.24149
2.2268
2.21165
2.19532
2.17815
2.16275
2.14999
2.13851
2.1274
2.11598
2.10337
2.08937
2.07706
2.06859
2.06153
2.05482
2.04801
2.03974
2.02969
2.02209
2.01824
2.01571
2.0136
2.01134
2.00846
2.00448
2.00197
2.00212
2.00327
2.00408
2.0054
2.00624
2.00652
2.00744
2.00973
2.01298
2.0161
2.01824
2.02029
2.02267
2.02501
2.02772
2.03138
2.03473
2.03731
2.03951
2.04168
2.04391
2.0452
2.0454
2.04535
2.04546
2.04599
2.04586
2.04475
2.04313
2.04088
2.03815
2.03578
2.03349
2.03096
2.02802
2.02458
2.02092
2.01778
2.01515
2.01267
2.01019
2.0076
2.0049
2.00176
1.99844
1.99212
2.5905
2.57828
2.56571
2.55282
2.53965
2.52622
2.5123
2.49772
2.48267
2.46757
2.45288
2.43825
2.42209
2.40457
2.38802
2.37279
2.35878
2.34424
2.32774
2.3095
2.29126
2.2761
2.26186
2.24741
2.23253
2.21631
2.19826
2.18095
2.16663
2.15415
2.14246
2.13112
2.11915
2.10523
2.09054
2.07883
2.06987
2.06189
2.0543
2.04681
2.0386
2.02959
2.02192
2.01622
2.01188
2.00872
2.0059
2.00251
1.99954
1.99849
1.9988
1.99855
1.99784
1.99875
2.00064
2.00294
2.00562
2.00855
2.01157
2.0142
2.01667
2.01944
2.02248
2.02617
2.03054
2.03429
2.03626
2.038
2.03982
2.04227
2.04505
2.04675
2.04702
2.04683
2.04658
2.04667
2.0465
2.0455
2.04407
2.04206
2.03954
2.03684
2.03414
2.03132
2.0284
2.02547
2.02251
2.01953
2.0166
2.01375
2.01093
2.00805
2.00495
2.00109
1.99685
1.9906
2.59611
2.58362
2.5708
2.55771
2.54433
2.5306
2.51639
2.50175
2.4869
2.47208
2.45738
2.44205
2.42559
2.40903
2.39315
2.3784
2.36447
2.34836
2.3309
2.31253
2.29648
2.28209
2.26759
2.25263
2.23678
2.21954
2.20162
2.18522
2.17109
2.15831
2.14619
2.13377
2.12021
2.10577
2.09225
2.081
2.07127
2.0625
2.05432
2.04597
2.03708
2.02822
2.02064
2.01441
2.00937
2.00518
2.00095
1.99664
1.99476
1.99447
1.99498
1.99467
1.99344
1.99398
1.99613
1.9998
2.00423
2.00724
2.00991
2.01267
2.01555
2.01868
2.02263
2.02861
2.03408
2.03611
2.03743
2.03852
2.04
2.04249
2.04576
2.04741
2.04751
2.04704
2.04638
2.04613
2.046
2.04519
2.04388
2.04214
2.03974
2.03685
2.03409
2.03154
2.02904
2.02646
2.02365
2.02053
2.01716
2.01384
2.01071
2.00759
2.00419
2.00029
1.99635
1.99052
2.6016
2.58909
2.57621
2.56299
2.5494
2.53541
2.52103
2.50638
2.49158
2.47675
2.46168
2.44598
2.42988
2.41389
2.39835
2.38392
2.36863
2.35166
2.33377
2.31695
2.30176
2.28678
2.27159
2.25585
2.23905
2.22143
2.2047
2.18975
2.17576
2.16199
2.14803
2.1338
2.11936
2.10559
2.09378
2.0833
2.0731
2.06275
2.05295
2.04347
2.034
2.02576
2.01945
2.01402
2.00854
2.00258
1.99622
1.99254
1.99123
1.99129
1.992
1.99189
1.99113
1.99196
1.9944
1.99832
2.00448
2.00975
2.01339
2.01678
2.02003
2.02333
2.02752
2.03357
2.0389
2.04108
2.04234
2.04283
2.04329
2.04414
2.04659
2.04815
2.04819
2.04733
2.0459
2.04527
2.04502
2.04474
2.0437
2.04228
2.04015
2.03738
2.03473
2.03237
2.02999
2.0274
2.02451
2.02123
2.0175
2.01379
2.01042
2.00735
2.00421
2.00073
1.9972
1.99161
2.60537
2.59297
2.58011
2.56681
2.55307
2.53895
2.52451
2.50986
2.49505
2.48005
2.46468
2.44901
2.43326
2.41757
2.40227
2.38704
2.3702
2.35276
2.33608
2.32074
2.30566
2.29004
2.27396
2.25696
2.23958
2.22281
2.20728
2.19277
2.17854
2.16395
2.14856
2.13278
2.11794
2.10519
2.09438
2.08451
2.07466
2.06411
2.05213
2.0404
2.03115
2.02427
2.01893
2.01387
2.00811
2.00056
1.99277
1.98969
1.98855
1.98903
1.99037
1.99102
1.99124
1.99228
1.99499
1.99927
2.00536
2.01105
2.01558
2.01957
2.02344
2.02746
2.03221
2.03809
2.04257
2.04428
2.04524
2.04581
2.04638
2.04732
2.0491
2.04984
2.04958
2.0483
2.04658
2.04584
2.04527
2.04503
2.044
2.04254
2.04044
2.03774
2.0352
2.03294
2.03062
2.02807
2.02515
2.0217
2.01773
2.01382
2.01044
2.00753
2.00464
2.00163
1.99872
1.993
2.60703
2.59473
2.58192
2.56862
2.55486
2.54071
2.52629
2.51163
2.49675
2.4816
2.46614
2.45057
2.43508
2.41977
2.40428
2.38778
2.37052
2.35369
2.33795
2.32323
2.30784
2.29171
2.27486
2.257
2.23935
2.22335
2.20863
2.19437
2.18005
2.16498
2.14847
2.13112
2.11584
2.10403
2.0942
2.08518
2.07607
2.06491
2.05016
2.03649
2.02862
2.0231
2.01838
2.01375
2.00827
1.99904
1.99049
1.98798
1.98712
1.98766
1.98905
1.99012
1.99108
1.9926
1.99552
1.99993
2.00627
2.01297
2.0184
2.02304
2.02736
2.03163
2.03632
2.04194
2.04615
2.04775
2.04863
2.04907
2.04944
2.05004
2.0514
2.05178
2.05141
2.04978
2.04753
2.0464
2.04555
2.04499
2.04387
2.04225
2.04011
2.03751
2.03508
2.03298
2.03083
2.02841
2.02555
2.02203
2.01781
2.01366
2.0103
2.00762
2.00521
2.00278
2.00012
1.99374
)
;

boundaryField
{
    inlet
    {
        type            fixedValue;
        value           uniform 1;
    }
    outlet
    {
        type            inletOutlet;
        inletValue      uniform 1;
        value           nonuniform List<scalar> 
32
(
2.33416
2.33201
2.29914
2.23142
2.15117
2.06982
2.01296
1.98033
1.96029
1.94887
1.9438
1.9429
1.94418
1.94363
1.94296
1.94273
1.94436
1.95047
1.96026
1.96943
1.97631
1.98105
1.98537
1.98933
1.99223
1.99284
1.99187
1.99048
1.99048
1.99158
1.99291
1.99345
)
;
    }
    bottom
    {
        type            symmetryPlane;
    }
    top
    {
        type            symmetryPlane;
    }
    obstacle
    {
        type            zeroGradient;
    }
    defaultFaces
    {
        type            empty;
    }
}

