/*--------------------------------*- C++ -*----------------------------------*\
  =========                 |
  \\      /  F ield         | OpenFOAM: The Open Source CFD Toolbox
   \\    /   O peration     | Website:  https://openfoam.org
    \\  /    A nd           | Version:  7
     \\/     M anipulation  |
\*---------------------------------------------------------------------------*/
FoamFile
{
    version     2.0;
    format      ascii;
    class       volVectorField;
    location    "18";
    object      U;
}
// * * * * * * * * * * * * * * * * * * * * * * * * * * * * * * * * * * * * * //

dimensions      [0 1 -1 0 0 0 0];

internalField   nonuniform List<vector> 
4032
(
(3 1.00157e-17 0)
(3 1.16606e-16 0)
(3 8.57581e-17 0)
(3 -1.44176e-16 0)
(3 2.22057e-17 0)
(3 2.26794e-16 0)
(3 6.48636e-16 0)
(3 2.04994e-16 0)
(3 1.81474e-16 0)
(3 -6.00822e-17 0)
(3 1.35257e-16 0)
(2.03789 0.0120991 0)
(0.804459 0.0151756 0)
(0.689056 0.023409 0)
(0.636852 0.0249744 0)
(0.579991 0.025677 0)
(0.524575 0.0262717 0)
(0.468171 0.0270824 0)
(0.410028 0.0283083 0)
(0.348568 0.0302794 0)
(0.28214 0.0330632 0)
(0.208966 0.036743 0)
(0.129204 0.0390496 0)
(0.0471281 0.0426296 0)
(3 -4.25804e-17 0)
(3 8.21051e-16 0)
(3 9.35615e-16 0)
(3 3.20812e-16 0)
(3 7.07802e-16 0)
(3 8.50736e-16 0)
(3 8.5832e-16 0)
(3 5.43631e-16 0)
(3 6.22128e-16 0)
(3 -5.76246e-17 0)
(3 -1.28796e-16 0)
(2.06998 0.0600072 0)
(0.796576 0.0692838 0)
(0.669734 0.0699873 0)
(0.616189 0.0700097 0)
(0.559598 0.0716406 0)
(0.504933 0.0740995 0)
(0.449778 0.0776423 0)
(0.393583 0.0826358 0)
(0.334946 0.0901298 0)
(0.271992 0.100011 0)
(0.202634 0.112589 0)
(0.125588 0.12097 0)
(0.0461646 0.132085 0)
(3 6.97788e-17 0)
(3 6.90101e-16 0)
(3 8.37526e-16 0)
(3 7.33649e-16 0)
(3 7.33843e-16 0)
(3 8.97497e-16 0)
(3 1.37062e-15 0)
(3 1.26343e-15 0)
(3 1.45179e-15 0)
(3 1.14734e-15 0)
(3 4.97756e-16 0)
(2.18338 0.110846 0)
(0.816566 0.129158 0)
(0.673069 0.122564 0)
(0.615862 0.121993 0)
(0.555801 0.123579 0)
(0.498407 0.126415 0)
(0.441197 0.130761 0)
(0.383822 0.137224 0)
(0.325166 0.148017 0)
(0.263378 0.163154 0)
(0.196879 0.184045 0)
(0.121689 0.19893 0)
(0.0453345 0.217575 0)
(3 1.55502e-16 0)
(3 -3.21989e-16 0)
(3 -4.35136e-16 0)
(3 -4.55876e-16 0)
(3 -9.36029e-16 0)
(3 -7.52932e-16 0)
(3 4.13064e-16 0)
(3 1.00432e-15 0)
(3 1.3941e-15 0)
(3 1.82018e-15 0)
(3 1.86163e-15 0)
(2.36964 0.146902 0)
(0.859024 0.187875 0)
(0.69198 0.175698 0)
(0.633773 0.174875 0)
(0.571041 0.177687 0)
(0.510819 0.181897 0)
(0.450391 0.187607 0)
(0.389544 0.19565 0)
(0.327605 0.209422 0)
(0.263213 0.228498 0)
(0.196827 0.256704 0)
(0.121476 0.278596 0)
(0.0445812 0.303267 0)
(3 2.16316e-16 0)
(3 -3.884e-16 0)
(3 -5.64894e-16 0)
(3 -6.40498e-16 0)
(3 -1.01409e-15 0)
(3 -1.03431e-15 0)
(3 -3.39857e-16 0)
(3 -1.10251e-16 0)
(3 -6.91464e-17 0)
(3 6.40474e-16 0)
(3 8.19593e-16 0)
(2.59939 0.167306 0)
(0.913673 0.247327 0)
(0.716892 0.228495 0)
(0.665717 0.230342 0)
(0.604139 0.234588 0)
(0.543213 0.24054 0)
(0.480236 0.248254 0)
(0.416336 0.258228 0)
(0.35221 0.274698 0)
(0.286108 0.295921 0)
(0.219394 0.33006 0)
(0.139466 0.361424 0)
(0.054023 0.396212 0)
(3 -2.66851e-16 0)
(3 -3.34059e-16 0)
(3 9.41729e-17 0)
(3 1.96298e-16 0)
(3 -2.10857e-17 0)
(3 -1.5063e-16 0)
(3 -2.41215e-16 0)
(3 -1.19249e-17 0)
(3 -2.81268e-16 0)
(3 1.39302e-16 0)
(3 1.49382e-16 0)
(2.86136 0.135721 0)
(1.00675 0.298004 0)
(0.765783 0.255002 0)
(0.724323 0.27256 0)
(0.662344 0.285657 0)
(0.600497 0.298235 0)
(0.535113 0.310317 0)
(0.46777 0.322972 0)
(0.399184 0.342884 0)
(0.325185 0.369246 0)
(0.248781 0.414988 0)
(0.15731 0.464542 0)
(0.0547352 0.510701 0)
(3 -7.05344e-17 0)
(3 -1.31037e-17 0)
(3 7.4946e-17 0)
(3 -1.34458e-16 0)
(3 -1.51948e-16 0)
(3 2.40827e-16 0)
(3 -7.06408e-16 0)
(3 -4.84205e-16 0)
(3 8.60301e-17 0)
(3 -8.58509e-17 0)
(3 -8.62083e-16 0)
(3.0193 0.0216508 0)
(1.12375 0.318868 0)
(0.796384 0.283245 0)
(0.76969 0.316382 0)
(0.71794 0.335249 0)
(0.663608 0.35363 0)
(0.601696 0.372558 0)
(0.535111 0.390929 0)
(0.465434 0.418025 0)
(0.390983 0.451623 0)
(0.318023 0.505092 0)
(0.231129 0.570353 0)
(0.104888 0.648172 0)
(3 4.65088e-16 0)
(3 2.62377e-16 0)
(3 -2.40168e-16 0)
(3 -3.337e-16 0)
(3 -1.98522e-16 0)
(3 7.42074e-17 0)
(3 -3.64633e-16 0)
(3 -4.53401e-16 0)
(3 -5.15146e-16 0)
(3 -7.01389e-16 0)
(3 -1.2089e-15 0)
(3.00346 0.000575603 0)
(1.27344 0.334022 0)
(0.795455 0.317818 0)
(0.762948 0.357707 0)
(0.723301 0.382991 0)
(0.688362 0.407023 0)
(0.647617 0.432451 0)
(0.596983 0.457518 0)
(0.54092 0.49259 0)
(0.475378 0.529961 0)
(0.404593 0.601987 0)
(0.289135 0.730803 0)
(0.163586 0.918035 0)
(3 -4.23112e-17 0)
(3 -2.34452e-16 0)
(3 -2.01311e-16 0)
(3 2.53413e-16 0)
(3 3.49994e-16 0)
(3 2.7621e-16 0)
(3 -7.414e-17 0)
(3 -6.37539e-16 0)
(3 -7.25144e-16 0)
(3 -7.7029e-16 0)
(3 -6.20733e-16 0)
(3.00003 -5.27777e-07 0)
(1.54262 0.378744 0)
(0.810001 0.366222 0)
(0.741178 0.383485 0)
(0.713485 0.409149 0)
(0.687681 0.436643 0)
(0.669528 0.47232 0)
(0.640164 0.509605 0)
(0.609472 0.555636 0)
(0.564235 0.608532 0)
(0.520011 0.712858 0)
(0.495296 0.88793 0)
(0.61412 1.2001 0)
(3 -3.87556e-17 0)
(3 -1.51295e-16 0)
(3 5.05322e-17 0)
(3 6.35709e-16 0)
(3 9.96979e-16 0)
(3 8.08291e-16 0)
(3 2.50093e-16 0)
(3 -8.93714e-17 0)
(3 2.27956e-16 0)
(3 3.91668e-16 0)
(3 2.22647e-16 0)
(3 -1.83857e-07 0)
(1.98051 0.419007 0)
(0.863622 0.451101 0)
(0.753416 0.425521 0)
(0.725269 0.43966 0)
(0.704454 0.462469 0)
(0.69094 0.49779 0)
(0.680772 0.5427 0)
(0.671427 0.598399 0)
(0.662157 0.669535 0)
(0.657813 0.78157 0)
(0.724691 0.922791 0)
(1.0041 1.10799 0)
(3 -6.37576e-17 0)
(3 5.48762e-17 0)
(3 2.97361e-16 0)
(3 -2.05625e-17 0)
(3 7.19125e-16 0)
(3 7.93598e-16 0)
(3 1.25434e-15 0)
(3 1.31164e-15 0)
(3 1.02898e-15 0)
(3 7.10892e-16 0)
(3 7.8395e-16 0)
(3 -4.63652e-08 0)
(2.64062 0.331918 0)
(1.00531 0.525224 0)
(0.835804 0.45552 0)
(0.790282 0.461805 0)
(0.755061 0.482556 0)
(0.732983 0.515711 0)
(0.729626 0.560737 0)
(0.731257 0.619591 0)
(0.754417 0.696145 0)
(0.788281 0.799902 0)
(0.908822 0.90643 0)
(1.17965 0.999119 0)
(3 -4.47838e-17 0)
(3 3.08803e-16 0)
(3 2.76341e-16 0)
(3 -1.15687e-16 0)
(3 1.38235e-16 0)
(3 5.33454e-16 0)
(3 1.17445e-15 0)
(3 1.32212e-15 0)
(3 1.80672e-15 0)
(3 1.40625e-15 0)
(3 1.16207e-15 0)
(3 -4.47901e-09 0)
(3.07871 0.0427786 0)
(1.26777 0.505328 0)
(0.913315 0.504774 0)
(0.873438 0.510255 0)
(0.83092 0.521543 0)
(0.795209 0.541803 0)
(0.785234 0.579551 0)
(0.791587 0.630952 0)
(0.829586 0.696807 0)
(0.893676 0.786924 0)
(1.04153 0.877549 0)
(1.28486 0.925143 0)
(3 2.52113e-16 0)
(3 2.78734e-16 0)
(3 -3.6016e-16 0)
(3 -1.29301e-16 0)
(3 1.70426e-16 0)
(3 6.82588e-16 0)
(3 6.74602e-16 0)
(3 3.11028e-16 0)
(3 7.13321e-16 0)
(3 8.89169e-16 0)
(3 1.34647e-15 0)
(3 -1.8453e-10 0)
(3.00834 8.49917e-05 0)
(1.50664 0.493468 0)
(0.912355 0.564129 0)
(0.87367 0.559151 0)
(0.857826 0.572433 0)
(0.843167 0.580109 0)
(0.839009 0.601882 0)
(0.852188 0.636847 0)
(0.892785 0.682619 0)
(0.965505 0.749904 0)
(1.11106 0.82044 0)
(1.32445 0.845967 0)
(3 8.73939e-17 0)
(3 3.47936e-17 0)
(3 -2.34635e-16 0)
(3 -4.36895e-16 0)
(3 -6.90961e-16 0)
(3 -5.60821e-16 0)
(3 1.53416e-16 0)
(3 -1.18166e-16 0)
(3 -1.81477e-16 0)
(3 9.17434e-16 0)
(3 1.6872e-15 0)
(3 -3.16192e-12 0)
(3.00005 -2.20574e-06 0)
(2.10104 0.501609 0)
(0.970521 0.6085 0)
(0.900119 0.571156 0)
(0.89967 0.582469 0)
(0.895537 0.594756 0)
(0.89682 0.614086 0)
(0.914467 0.643166 0)
(0.956224 0.676702 0)
(1.02835 0.718261 0)
(1.15296 0.76317 0)
(1.32695 0.772984 0)
(3 1.94718e-16 0)
(3 -3.20272e-16 0)
(3 -5.28233e-17 0)
(3 -1.97136e-16 0)
(3 -5.82465e-16 0)
(3 -5.75142e-16 0)
(3 -8.19245e-16 0)
(3 -3.10871e-16 0)
(3 4.66321e-16 0)
(3 6.29501e-16 0)
(3 6.69077e-16 0)
(3 -4.73684e-15 0)
(3.00001 -2.74253e-06 0)
(2.91974 0.217256 0)
(1.1738 0.614031 0)
(0.967597 0.576149 0)
(0.959123 0.589081 0)
(0.953066 0.608345 0)
(0.955128 0.621542 0)
(0.974183 0.640254 0)
(1.0135 0.660918 0)
(1.07946 0.688566 0)
(1.17604 0.705301 0)
(1.30664 0.701921 0)
(3 -3.82061e-16 0)
(3 -4.20064e-16 0)
(3 2.34709e-16 0)
(3 2.91183e-16 0)
(3 3.59447e-16 0)
(3 1.23165e-16 0)
(3 -1.97685e-17 0)
(3 2.03335e-16 0)
(3 3.02439e-16 0)
(3 -9.99517e-17 0)
(3 -1.21023e-16 0)
(3 4.8856e-16 0)
(3 -5.7708e-07 0)
(3.04986 0.00942582 0)
(1.41625 0.572828 0)
(0.991294 0.625511 0)
(0.972022 0.618844 0)
(0.976439 0.627368 0)
(0.991762 0.635632 0)
(1.01899 0.647752 0)
(1.06029 0.658413 0)
(1.12208 0.667108 0)
(1.19643 0.661343 0)
(1.2903 0.643881 0)
(3 -2.51954e-16 0)
(3 5.1928e-17 0)
(3 -1.68977e-16 0)
(3 1.74609e-16 0)
(3 3.00916e-16 0)
(3 -1.16401e-16 0)
(3 6.73174e-17 0)
(3 3.82429e-16 0)
(3 2.01009e-16 0)
(3 2.28075e-16 0)
(3 5.69048e-16 0)
(3 1.02823e-15 0)
(3 -5.11583e-08 0)
(3.00132 -5.70977e-06 0)
(1.90718 0.564012 0)
(1.00433 0.654573 0)
(0.974348 0.623752 0)
(0.98971 0.620939 0)
(1.01233 0.621313 0)
(1.04705 0.629715 0)
(1.0898 0.634005 0)
(1.14855 0.63641 0)
(1.21092 0.625211 0)
(1.2832 0.605039 0)
(3 2.56694e-16 0)
(3 1.62771e-16 0)
(3 -7.74763e-17 0)
(3 6.76901e-16 0)
(3 6.15895e-16 0)
(3 3.62757e-16 0)
(3 5.22081e-16 0)
(3 3.42022e-16 0)
(3 -7.14055e-17 0)
(3 -1.34132e-16 0)
(3 -6.79065e-17 0)
(3 5.17804e-17 0)
(3 -5.37004e-10 0)
(3.00001 -4.49194e-06 0)
(2.7771 0.31531 0)
(1.1492 0.661102 0)
(1.00252 0.609601 0)
(1.01918 0.609479 0)
(1.03781 0.611288 0)
(1.06891 0.613674 0)
(1.10794 0.610654 0)
(1.15966 0.605088 0)
(1.21578 0.590925 0)
(1.27558 0.568977 0)
(3 1.56821e-16 0)
(3 4.27694e-16 0)
(3 1.25292e-15 0)
(3 9.96561e-16 0)
(3 1.02789e-15 0)
(3 1.73995e-15 0)
(3 1.80249e-15 0)
(3 1.51413e-15 0)
(3 1.00767e-15 0)
(3 3.83156e-16 0)
(3 -5.04694e-16 0)
(3 -1.66947e-18 0)
(3 -9.65016e-13 0)
(3 -1.22736e-06 0)
(3.06641 0.0211597 0)
(1.41641 0.609131 0)
(1.02256 0.62028 0)
(1.02984 0.614149 0)
(1.05055 0.604237 0)
(1.08027 0.596946 0)
(1.1196 0.587654 0)
(1.16793 0.577957 0)
(1.21956 0.563334 0)
(1.27212 0.542627 0)
(3 4.16077e-17 0)
(3 4.73356e-16 0)
(3 1.06864e-15 0)
(3 9.98358e-16 0)
(3 9.84748e-16 0)
(3 1.03674e-15 0)
(3 5.65346e-16 0)
(3 7.62449e-16 0)
(3 8.89434e-16 0)
(3 8.13748e-16 0)
(3 5.60357e-17 0)
(3 8.95543e-16 0)
(3 1.01006e-15 0)
(3 -1.2955e-07 0)
(3.00307 3.5939e-05 0)
(1.80486 0.570068 0)
(1.01291 0.639235 0)
(1.00203 0.600779 0)
(1.03559 0.577059 0)
(1.07165 0.564759 0)
(1.1121 0.554097 0)
(1.15766 0.543848 0)
(1.20697 0.53013 0)
(1.25787 0.511531 0)
(3 4.25503e-17 0)
(3 6.05991e-16 0)
(3 1.15237e-15 0)
(3 1.61533e-15 0)
(3 4.2128e-16 0)
(3 1.33412e-17 0)
(3 -7.99185e-17 0)
(3 -1.29733e-16 0)
(3 -3.31915e-17 0)
(3 2.76581e-16 0)
(3 3.71313e-16 0)
(3 1.04911e-15 0)
(3 1.51835e-15 0)
(3 -4.71617e-09 0)
(3.00001 -3.42138e-07 0)
(2.60284 0.392911 0)
(1.08509 0.624504 0)
(1.00029 0.561371 0)
(1.04554 0.552336 0)
(1.08211 0.544385 0)
(1.1181 0.532538 0)
(1.15786 0.519074 0)
(1.20142 0.502553 0)
(1.24591 0.482249 0)
(3 1.45934e-16 0)
(3 2.20584e-16 0)
(3 7.89068e-16 0)
(3 1.16519e-15 0)
(3 5.63147e-16 0)
(3 -1.51386e-16 0)
(3 -2.01382e-16 0)
(3 -1.17028e-15 0)
(3 -9.43865e-16 0)
(3 -7.06773e-16 0)
(3 7.10421e-17 0)
(3 9.49667e-16 0)
(3 1.24668e-15 0)
(3 -1.2973e-11 0)
(3 -4.84164e-07 0)
(3.07252 0.04318 0)
(1.29831 0.546969 0)
(1.01538 0.529987 0)
(1.05596 0.529141 0)
(1.08585 0.520785 0)
(1.12041 0.508773 0)
(1.15936 0.495645 0)
(1.20126 0.479599 0)
(1.24271 0.459928 0)
(3 1.26878e-16 0)
(3 -4.74362e-16 0)
(3 -5.37299e-16 0)
(3 2.57186e-16 0)
(3 1.41108e-15 0)
(3 1.28266e-15 0)
(3 1.76575e-15 0)
(3 1.86178e-15 0)
(3 1.4885e-15 0)
(3 1.4188e-15 0)
(3 1.52945e-15 0)
(3 1.32077e-15 0)
(3 1.4089e-15 0)
(3 -1.46227e-14 0)
(3 -1.02497e-07 0)
(3.00668 0.000172111 0)
(1.4526 0.457054 0)
(0.978196 0.514975 0)
(1.0182 0.506018 0)
(1.05944 0.490645 0)
(1.10377 0.476761 0)
(1.14773 0.464814 0)
(1.19138 0.450487 0)
(1.23301 0.432936 0)
(3 3.3765e-16 0)
(3 -5.9128e-16 0)
(3 -6.06175e-16 0)
(3 -5.67173e-16 0)
(3 6.29837e-16 0)
(3 1.53992e-15 0)
(3 2.20209e-15 0)
(3 3.18038e-15 0)
(3 3.71263e-15 0)
(3 3.52968e-15 0)
(3 3.67169e-15 0)
(3 3.10568e-15 0)
(3 2.59382e-15 0)
(3 2.38441e-16 0)
(3 -8.60428e-09 0)
(3.00004 -1.30919e-06 0)
(1.77839 0.407972 0)
(0.929223 0.480624 0)
(0.937802 0.462755 0)
(0.999924 0.456587 0)
(1.05678 0.446438 0)
(1.10952 0.435355 0)
(1.15899 0.42136 0)
(1.20495 0.4047 0)
(3 -3.81916e-17 0)
(3 -1.26218e-16 0)
(3 4.78539e-17 0)
(3 -2.21134e-16 0)
(3 -4.8304e-16 0)
(3 -3.62779e-16 0)
(3 1.35275e-16 0)
(3 1.33151e-15 0)
(3 1.97319e-15 0)
(3 3.00455e-15 0)
(3 2.87388e-15 0)
(3 2.55679e-15 0)
(3 2.08632e-15 0)
(3 1.65063e-15 0)
(3 -4.18628e-11 0)
(3 -1.70474e-06 0)
(2.26535 0.376121 0)
(0.952566 0.454403 0)
(0.902473 0.407633 0)
(0.958662 0.404682 0)
(1.00793 0.403288 0)
(1.05985 0.39863 0)
(1.11162 0.389378 0)
(1.16136 0.376598 0)
(3 -1.83764e-16 0)
(3 -3.70061e-16 0)
(3 -1.11645e-15 0)
(3 -6.64404e-16 0)
(3 -1.0493e-15 0)
(3 -1.07224e-15 0)
(3 -7.20669e-16 0)
(3 -6.09881e-16 0)
(3 -2.96772e-16 0)
(3 1.09245e-16 0)
(3 4.31768e-17 0)
(3 7.6518e-17 0)
(3 3.16623e-16 0)
(3 9.9301e-16 0)
(3 -6.38929e-14 0)
(3 -3.60363e-07 0)
(2.80416 0.217302 0)
(1.04958 0.435372 0)
(0.916874 0.378119 0)
(0.969856 0.37272 0)
(1.00882 0.368244 0)
(1.05031 0.361156 0)
(1.09276 0.352295 0)
(1.1361 0.342069 0)
(3 4.8644e-17 0)
(3 -2.17091e-16 0)
(3 -5.13991e-16 0)
(3 -9.2556e-17 0)
(3 -1.25894e-16 0)
(3 -2.11674e-16 0)
(3 -3.70955e-16 0)
(3 -1.14783e-15 0)
(3 -1.02768e-15 0)
(3 -5.08459e-16 0)
(3 -3.3375e-16 0)
(3 -9.6855e-17 0)
(3 -4.18941e-16 0)
(3 -8.05094e-17 0)
(3 -5.6244e-17 0)
(3 -3.60215e-08 0)
(3.01634 0.0249131 0)
(1.17956 0.359221 0)
(0.922379 0.34138 0)
(0.97513 0.340088 0)
(1.00989 0.338394 0)
(1.04559 0.332783 0)
(1.082 0.324781 0)
(1.1197 0.315383 0)
(3 -4.17668e-17 0)
(3 -1.1513e-16 0)
(3 2.24836e-16 0)
(3 6.76785e-16 0)
(3 1.24054e-15 0)
(3 8.39452e-16 0)
(3 -8.20827e-17 0)
(3 -1.94871e-16 0)
(3 -5.19477e-16 0)
(3 -5.7809e-16 0)
(3 -6.79162e-16 0)
(3 -6.81797e-16 0)
(3 -1.17875e-15 0)
(3 -1.59225e-15 0)
(3 -1.31941e-15 0)
(3 -1.40664e-09 0)
(3.00302 0.000950001 0)
(1.24358 0.282082 0)
(0.881964 0.312974 0)
(0.937255 0.313383 0)
(0.979459 0.312967 0)
(1.0201 0.30703 0)
(1.05924 0.299248 0)
(1.09798 0.290146 0)
(3 2.88543e-17 0)
(3 3.73273e-16 0)
(3 3.42694e-17 0)
(3 -8.69787e-17 0)
(3 4.61229e-16 0)
(3 -7.26039e-16 0)
(3 -1.32409e-15 0)
(3 -1.15021e-15 0)
(3 -1.41238e-15 0)
(3 -1.86306e-15 0)
(3 -2.02495e-15 0)
(3 -2.45606e-15 0)
(3 -2.58225e-15 0)
(3 -3.12612e-15 0)
(3 -3.42024e-15 0)
(3 -2.86485e-11 0)
(3.00002 6.62801e-07 0)
(1.35602 0.261838 0)
(0.8434 0.277378 0)
(0.881185 0.277438 0)
(0.929099 0.280301 0)
(0.975509 0.277921 0)
(1.01983 0.272053 0)
(1.06235 0.264207 0)
(3 3.13468e-17 0)
(3 6.35656e-17 0)
(3 -1.95712e-16 0)
(3 -1.0423e-15 0)
(3 -1.41504e-15 0)
(3 -1.14067e-15 0)
(3 -1.86228e-15 0)
(3 -2.16233e-15 0)
(3 -1.30771e-15 0)
(3 -1.11947e-15 0)
(3 -1.48079e-15 0)
(3 -2.15563e-15 0)
(3 -2.01313e-15 0)
(3 -2.5541e-15 0)
(3 -2.98348e-15 0)
(3 -2.51104e-13 0)
(3 -3.56718e-10 0)
(1.52458 0.26372 0)
(0.847502 0.245424 0)
(0.849218 0.241607 0)
(0.891278 0.244491 0)
(0.932071 0.24397 0)
(0.975454 0.240825 0)
(1.01853 0.235348 0)
(3 -5.68626e-17 0)
(3 -5.65491e-16 0)
(3 -1.30846e-15 0)
(3 -1.26699e-15 0)
(3 -1.28711e-15 0)
(3 -7.27435e-16 0)
(3 -3.28672e-16 0)
(3 9.24025e-17 0)
(3 1.95847e-16 0)
(3 -5.45699e-16 0)
(3 -1.18379e-15 0)
(3 -1.25844e-15 0)
(3 -1.90051e-15 0)
(3 -2.56049e-15 0)
(3 -2.56448e-15 0)
(3 -2.76379e-15 0)
(3 -5.23848e-10 0)
(1.74096 0.254533 0)
(0.853922 0.232609 0)
(0.83551 0.219455 0)
(0.871837 0.217189 0)
(0.903485 0.214617 0)
(0.941113 0.212239 0)
(0.980366 0.208283 0)
(3 -4.74842e-17 0)
(3 -1.14141e-16 0)
(3 -1.05957e-16 0)
(3 -2.7272e-16 0)
(3 -2.74844e-16 0)
(3 -2.21344e-16 0)
(3 8.94723e-16 0)
(3 1.09746e-15 0)
(3 4.11782e-17 0)
(3 -5.31823e-16 0)
(3 -4.73226e-16 0)
(3 -9.18511e-16 0)
(3 -2.79996e-15 0)
(3 -2.86467e-15 0)
(3 -2.26612e-15 0)
(3 -9.7296e-16 0)
(3 -1.14326e-10 0)
(1.98556 0.232259 0)
(0.871925 0.21932 0)
(0.836578 0.19883 0)
(0.8746 0.193087 0)
(0.902608 0.187181 0)
(0.935684 0.182916 0)
(0.96965 0.178423 0)
(3 -3.14845e-16 0)
(3 -3.50165e-16 0)
(3 2.76959e-16 0)
(3 -1.10765e-16 0)
(3 -2.89765e-16 0)
(3 -2.55128e-16 0)
(3 -5.01816e-16 0)
(3 -8.90634e-16 0)
(3 -7.27048e-16 0)
(3 -6.37635e-16 0)
(3 -5.72037e-16 0)
(3 -7.12352e-16 0)
(3 -8.68153e-16 0)
(3 -3.63939e-16 0)
(3 -1.79678e-17 0)
(3 -3.57596e-16 0)
(3 -1.1905e-11 0)
(2.2239 0.193564 0)
(0.895818 0.199565 0)
(0.839281 0.177634 0)
(0.880554 0.173055 0)
(0.90847 0.167112 0)
(0.93963 0.16199 0)
(0.970866 0.156611 0)
(3 -5.81776e-17 0)
(3 -3.9024e-16 0)
(3 -3.68602e-16 0)
(3 -4.57858e-16 0)
(3 -8.51539e-16 0)
(3 -1.20034e-15 0)
(3 -1.73121e-15 0)
(3 -1.51949e-15 0)
(3 -1.12672e-15 0)
(3 -7.86963e-16 0)
(3 -1.06783e-16 0)
(3 5.32311e-16 0)
(3 1.21468e-15 0)
(3 1.16085e-15 0)
(3 9.56013e-16 0)
(3 9.97376e-16 0)
(3 -5.00586e-13 0)
(2.4232 0.148627 0)
(0.920585 0.173283 0)
(0.839109 0.153367 0)
(0.882178 0.150683 0)
(0.911303 0.145598 0)
(0.942757 0.141024 0)
(0.973812 0.136312 0)
(3 2.04115e-16 0)
(3 1.37295e-16 0)
(3 -1.15923e-16 0)
(3 -5.23146e-17 0)
(3 -1.2866e-17 0)
(3 -3.21741e-16 0)
(3 -5.09308e-16 0)
(3 -4.84487e-16 0)
(3 -4.79746e-16 0)
(3 -4.33089e-16 0)
(3 -9.90489e-16 0)
(3 -3.62403e-16 0)
(3 6.92813e-16 0)
(3 1.17838e-15 0)
(3 1.32036e-15 0)
(3 8.76407e-16 0)
(3 -1.09166e-14 0)
(2.57235 0.114716 0)
(0.938727 0.142217 0)
(0.832949 0.12871 0)
(0.875858 0.126986 0)
(0.906137 0.123157 0)
(0.938578 0.119426 0)
(0.970319 0.115543 0)
(3 1.27331e-16 0)
(3 4.70742e-16 0)
(3 7.20211e-16 0)
(3 6.15351e-16 0)
(3 4.63766e-16 0)
(3 1.44524e-16 0)
(3 1.46978e-16 0)
(3 -4.19845e-17 0)
(3 -8.30377e-16 0)
(3 -1.5171e-15 0)
(3 -1.71529e-15 0)
(3 -1.22462e-15 0)
(3 1.75979e-16 0)
(3 7.82113e-16 0)
(3 1.83617e-16 0)
(3 -1.14195e-15 0)
(3 -1.79153e-15 0)
(2.70669 0.0801252 0)
(0.973925 0.114466 0)
(0.828981 0.10428 0)
(0.871364 0.102947 0)
(0.90142 0.100153 0)
(0.933711 0.0974021 0)
(0.965393 0.0946089 0)
(3 8.17377e-17 0)
(3 1.68803e-16 0)
(3 1.26132e-15 0)
(3 1.1473e-15 0)
(3 9.52807e-16 0)
(3 6.53148e-16 0)
(3 2.00772e-16 0)
(3 4.98786e-17 0)
(3 -4.99056e-16 0)
(3 -6.18574e-16 0)
(3 1.46698e-16 0)
(3 2.84866e-16 0)
(3 -1.54484e-17 0)
(3 -9.63083e-17 0)
(3 -1.24347e-15 0)
(3 -9.19459e-16 0)
(3 -8.15815e-16 0)
(2.78412 0.0458723 0)
(0.992482 0.0824496 0)
(0.824396 0.0798198 0)
(0.865965 0.0791325 0)
(0.895607 0.0772469 0)
(0.927624 0.0751548 0)
(0.959267 0.0728962 0)
(3 1.48647e-16 0)
(3 5.61601e-16 0)
(3 6.81332e-16 0)
(3 9.59685e-16 0)
(3 8.4582e-16 0)
(3 5.81603e-16 0)
(3 2.85791e-16 0)
(3 3.28028e-16 0)
(3 1.00772e-15 0)
(3 1.89333e-15 0)
(3 1.89187e-15 0)
(3 6.89687e-16 0)
(3 -8.75357e-16 0)
(3 -1.07014e-15 0)
(3 -8.00989e-16 0)
(3 -5.429e-16 0)
(3 -1.12375e-16 0)
(2.82235 0.0270168 0)
(0.999267 0.0556292 0)
(0.815733 0.0566859 0)
(0.856149 0.0564701 0)
(0.885693 0.0554318 0)
(0.91776 0.0540007 0)
(0.949463 0.0524359 0)
(3 -1.3823e-16 0)
(3 5.2371e-16 0)
(3 5.27e-16 0)
(3 3.32067e-16 0)
(3 2.81119e-16 0)
(3 2.73037e-16 0)
(3 2.87749e-16 0)
(3 1.3351e-16 0)
(3 1.22027e-15 0)
(3 1.87392e-15 0)
(3 1.84912e-15 0)
(3 9.24901e-16 0)
(3 2.98644e-16 0)
(3 -3.81674e-16 0)
(3 -4.97699e-16 0)
(3 -7.53501e-18 0)
(3 -1.4392e-17 0)
(2.84824 0.013832 0)
(1.00695 0.0311684 0)
(0.813582 0.0330957 0)
(0.852266 0.033028 0)
(0.881013 0.0324048 0)
(0.912296 0.0316072 0)
(0.943265 0.0307921 0)
(3 -1.82042e-16 0)
(3 6.7599e-17 0)
(3 7.47547e-17 0)
(3 -1.14182e-16 0)
(3 1.06766e-16 0)
(3 2.16947e-16 0)
(3 5.4208e-16 0)
(3 4.81105e-16 0)
(3 6.02595e-16 0)
(3 9.04537e-16 0)
(3 8.7422e-16 0)
(3 1.0245e-15 0)
(3 6.70828e-16 0)
(3 1.40065e-16 0)
(3 7.96876e-17 0)
(3 4.44799e-16 0)
(3 4.57033e-17 0)
(2.85683 0.00246046 0)
(1.00679 0.00710206 0)
(0.807725 0.0102471 0)
(0.844444 0.0109341 0)
(0.87219 0.0115376 0)
(0.903065 0.0116051 0)
(0.933855 0.0115145 0)
(1.30983 1.38086 0)
(0.406488 0.714138 0)
(0.0378983 0.145829 0)
(0.0283749 -0.000400744 0)
(0.0385748 -0.00121386 0)
(0.0321601 0.0125818 0)
(0.00819733 0.0225405 0)
(-0.0148502 0.0177671 0)
(-0.0285101 0.00917762 0)
(-0.0352797 0.00464825 0)
(-0.0363681 0.00203349 0)
(-0.0374047 0.00102324 0)
(-0.0399785 0.000957265 0)
(-0.0402021 0.00207573 0)
(-0.035953 0.00270859 0)
(-0.0275478 0.00197526 0)
(-0.0138547 -0.000749306 0)
(0.00318816 -0.00504008 0)
(0.0230988 -0.00956513 0)
(0.0456165 -0.0141351 0)
(0.0698812 -0.0186511 0)
(0.09467 -0.0235949 0)
(0.119749 -0.0274041 0)
(0.145496 -0.0290087 0)
(0.173069 -0.0299052 0)
(0.203866 -0.0304256 0)
(0.238793 -0.0312759 0)
(0.277595 -0.0327648 0)
(0.318858 -0.0348011 0)
(0.360892 -0.0371747 0)
(0.401982 -0.039585 0)
(0.442137 -0.0414301 0)
(0.481379 -0.0426094 0)
(0.519695 -0.0432358 0)
(0.557595 -0.0431314 0)
(0.595593 -0.0423818 0)
(0.63378 -0.0409281 0)
(0.671962 -0.0388386 0)
(0.710039 -0.0362382 0)
(0.748083 -0.0335799 0)
(0.786223 -0.0314396 0)
(0.824431 -0.0300501 0)
(0.862651 -0.0292725 0)
(0.900132 -0.0287182 0)
(0.935869 -0.0280435 0)
(0.968957 -0.0272148 0)
(0.999615 -0.02644 0)
(1.02908 -0.0257082 0)
(1.05775 -0.0248713 0)
(1.08533 -0.0239391 0)
(1.11175 -0.0224687 0)
(1.13682 -0.0202477 0)
(1.16097 -0.0177948 0)
(1.18512 -0.0155944 0)
(1.20996 -0.0136011 0)
(1.23519 -0.0118309 0)
(1.25984 -0.0101879 0)
(1.28265 -0.00851375 0)
(1.30344 -0.00710778 0)
(1.3233 -0.0063687 0)
(1.34341 -0.00638754 0)
(1.36393 -0.00704055 0)
(1.38296 -0.00743858 0)
(1.3982 -0.00688709 0)
(1.41149 -0.00629612 0)
(1.42456 -0.0057411 0)
(1.43802 -0.00536441 0)
(1.45317 -0.00520964 0)
(1.47024 -0.00530113 0)
(1.4871 -0.00518491 0)
(1.5016 -0.00470029 0)
(1.51452 -0.00431743 0)
(1.52763 -0.00425761 0)
(1.54195 -0.00467544 0)
(1.55505 -0.00531525 0)
(1.56588 -0.00554098 0)
(1.57597 -0.00544767 0)
(1.58429 -0.00497228 0)
(1.58973 -0.00413411 0)
(1.59487 -0.00350847 0)
(1.60159 -0.0035166 0)
(1.60796 -0.00373769 0)
(1.61395 -0.00389367 0)
(1.61892 -0.00375229 0)
(1.62233 -0.00332297 0)
(1.62407 -0.00270615 0)
(1.62487 -0.00229924 0)
(1.62518 -0.00253019 0)
(1.62612 -0.00380518 0)
(1.62672 -0.00560734 0)
(1.62377 -0.00769208 0)
(1.61758 -0.00929166 0)
(1.60791 -0.0096047 0)
(1.59634 -0.00897616 0)
(1.58335 -0.00642631 0)
(1.57048 -0.00395205 0)
(1.75226 1.20273 0)
(1.30028 0.733457 0)
(0.901773 0.21941 0)
(0.578071 0.0127922 0)
(0.357229 0.00544086 0)
(0.232889 0.0452488 0)
(0.156446 0.0565812 0)
(0.114887 0.0400763 0)
(0.0909033 0.0291798 0)
(0.0723163 0.0265945 0)
(0.0592516 0.0259785 0)
(0.0552972 0.0200923 0)
(0.0553441 0.0169878 0)
(0.0567935 0.0168675 0)
(0.060962 0.017561 0)
(0.0687003 0.0149635 0)
(0.0840771 0.0102223 0)
(0.106756 0.00152323 0)
(0.133156 -0.00850176 0)
(0.159503 -0.0172999 0)
(0.185547 -0.0227431 0)
(0.212749 -0.0296407 0)
(0.242716 -0.0404183 0)
(0.276031 -0.0515723 0)
(0.311271 -0.0553001 0)
(0.346456 -0.0525903 0)
(0.381621 -0.0466193 0)
(0.41785 -0.0412032 0)
(0.456051 -0.0391803 0)
(0.496444 -0.0405706 0)
(0.537748 -0.0434313 0)
(0.578581 -0.0463013 0)
(0.617247 -0.0483839 0)
(0.652834 -0.0507096 0)
(0.686606 -0.0542646 0)
(0.720426 -0.0574732 0)
(0.755174 -0.0589195 0)
(0.790763 -0.0576568 0)
(0.826405 -0.0533403 0)
(0.860995 -0.0464049 0)
(0.894033 -0.0385823 0)
(0.926309 -0.0322409 0)
(0.95859 -0.0287549 0)
(0.991216 -0.0279415 0)
(1.02379 -0.0279229 0)
(1.05487 -0.0269688 0)
(1.08229 -0.0251834 0)
(1.10666 -0.0241198 0)
(1.13015 -0.0244633 0)
(1.15398 -0.0258281 0)
(1.17774 -0.0268651 0)
(1.20057 -0.0260416 0)
(1.22227 -0.0232353 0)
(1.24364 -0.0197902 0)
(1.26562 -0.0163441 0)
(1.2887 -0.0132723 0)
(1.3124 -0.0105561 0)
(1.33528 -0.00686034 0)
(1.35529 -0.00140314 0)
(1.37271 0.00412207 0)
(1.38904 0.00781868 0)
(1.40487 0.00850563 0)
(1.42091 0.00683179 0)
(1.43594 0.00532401 0)
(1.44894 0.0055025 0)
(1.46113 0.00700943 0)
(1.47325 0.00858128 0)
(1.48569 0.00867669 0)
(1.4997 0.00705095 0)
(1.51517 0.00432692 0)
(1.52975 0.00258391 0)
(1.54289 0.00235063 0)
(1.55556 0.00209668 0)
(1.56844 0.000232449 0)
(1.58098 -0.00356929 0)
(1.59202 -0.00722541 0)
(1.60158 -0.00980062 0)
(1.60995 -0.0112565 0)
(1.61627 -0.0108426 0)
(1.62025 -0.00884445 0)
(1.62449 -0.00819348 0)
(1.63004 -0.00883005 0)
(1.63553 -0.0104108 0)
(1.64071 -0.0118438 0)
(1.64517 -0.0121254 0)
(1.64814 -0.0104647 0)
(1.6495 -0.00654639 0)
(1.65024 -0.00201336 0)
(1.64888 -0.000218008 0)
(1.64568 -0.00416164 0)
(1.64204 -0.0126941 0)
(1.63666 -0.0215505 0)
(1.62874 -0.0273827 0)
(1.61952 -0.02913 0)
(1.60917 -0.0273491 0)
(1.59729 -0.0187075 0)
(1.69245 1.03044 0)
(1.59023 0.914354 0)
(1.51546 0.691121 0)
(1.27581 0.51717 0)
(0.965523 0.364854 0)
(0.749514 0.257549 0)
(0.617903 0.174319 0)
(0.533284 0.119241 0)
(0.475303 0.0878001 0)
(0.432286 0.0710358 0)
(0.394053 0.0609567 0)
(0.367933 0.0441956 0)
(0.365467 0.0175481 0)
(0.374283 -0.00511171 0)
(0.383625 -0.0165266 0)
(0.393587 -0.0210455 0)
(0.408229 -0.0319451 0)
(0.433625 -0.0476833 0)
(0.46828 -0.0621345 0)
(0.505778 -0.0735618 0)
(0.538175 -0.0857346 0)
(0.5671 -0.0949794 0)
(0.595801 -0.10176 0)
(0.627377 -0.107873 0)
(0.662891 -0.115106 0)
(0.70078 -0.120931 0)
(0.738117 -0.123286 0)
(0.773658 -0.121875 0)
(0.807113 -0.118348 0)
(0.839852 -0.115816 0)
(0.873143 -0.116197 0)
(0.907114 -0.118569 0)
(0.940395 -0.120538 0)
(0.970321 -0.119555 0)
(0.995375 -0.115497 0)
(1.01754 -0.111049 0)
(1.03974 -0.108076 0)
(1.06373 -0.106989 0)
(1.08963 -0.107022 0)
(1.11618 -0.106586 0)
(1.14205 -0.104531 0)
(1.16635 -0.0999084 0)
(1.18926 -0.093581 0)
(1.21149 -0.0882846 0)
(1.23419 -0.085361 0)
(1.25762 -0.0835786 0)
(1.27948 -0.0803799 0)
(1.29728 -0.0750663 0)
(1.31307 -0.0691909 0)
(1.32859 -0.0637092 0)
(1.34434 -0.0597831 0)
(1.36036 -0.0571527 0)
(1.37661 -0.0547524 0)
(1.39293 -0.0515997 0)
(1.40934 -0.0484306 0)
(1.42623 -0.0458365 0)
(1.44398 -0.0437881 0)
(1.46233 -0.0418058 0)
(1.47926 -0.0393935 0)
(1.49303 -0.0367146 0)
(1.50543 -0.0333699 0)
(1.51731 -0.0292927 0)
(1.52912 -0.025916 0)
(1.54048 -0.0241777 0)
(1.55142 -0.0225655 0)
(1.56169 -0.0199718 0)
(1.57143 -0.0163714 0)
(1.58152 -0.0121792 0)
(1.5929 -0.00846979 0)
(1.60483 -0.00630169 0)
(1.61658 -0.00540245 0)
(1.62842 -0.00428557 0)
(1.63983 -0.00224235 0)
(1.65019 -0.000438074 0)
(1.65949 0.000480643 0)
(1.66757 7.72118e-05 0)
(1.67464 -0.00131584 0)
(1.68125 -0.00286931 0)
(1.68729 -0.00367714 0)
(1.69209 -0.00249851 0)
(1.69502 0.000758857 0)
(1.6968 0.00320925 0)
(1.70032 0.00307029 0)
(1.70391 0.00086143 0)
(1.70763 -0.00356118 0)
(1.71184 -0.00824568 0)
(1.71591 -0.0107511 0)
(1.71801 -0.00956003 0)
(1.71646 -0.00678306 0)
(1.71117 -0.00256723 0)
(1.7033 -0.000856204 0)
(1.69414 -0.00267602 0)
(1.6855 -0.00967137 0)
(1.68011 -0.0177245 0)
(1.6747 -0.0236906 0)
(1.6658 -0.0239537 0)
(1.59427 0.936574 0)
(1.62624 0.852986 0)
(1.7061 0.740031 0)
(1.74841 0.597741 0)
(1.5968 0.459937 0)
(1.44456 0.323303 0)
(1.32459 0.217144 0)
(1.20431 0.14831 0)
(1.09884 0.0914214 0)
(1.02657 0.0421022 0)
(0.972798 0.0138618 0)
(0.922486 -0.00347143 0)
(0.895054 -0.0274761 0)
(0.897729 -0.0485536 0)
(0.911456 -0.0662847 0)
(0.923315 -0.0727704 0)
(0.937282 -0.0746287 0)
(0.954954 -0.0768698 0)
(0.979255 -0.0856977 0)
(1.01277 -0.100067 0)
(1.04907 -0.109218 0)
(1.07854 -0.110054 0)
(1.10077 -0.107243 0)
(1.12088 -0.104306 0)
(1.14335 -0.104492 0)
(1.16978 -0.108029 0)
(1.19857 -0.112695 0)
(1.22643 -0.115809 0)
(1.25066 -0.11567 0)
(1.27066 -0.11297 0)
(1.28823 -0.110211 0)
(1.30567 -0.10918 0)
(1.3241 -0.109763 0)
(1.34233 -0.110102 0)
(1.35776 -0.107745 0)
(1.36975 -0.102152 0)
(1.38034 -0.0940604 0)
(1.39182 -0.0847587 0)
(1.40508 -0.0762879 0)
(1.42001 -0.0699988 0)
(1.4358 -0.0667208 0)
(1.45109 -0.0649214 0)
(1.46453 -0.0618321 0)
(1.4756 -0.0570621 0)
(1.48706 -0.0528535 0)
(1.50021 -0.0493058 0)
(1.51441 -0.0475838 0)
(1.52561 -0.0479875 0)
(1.53493 -0.0478574 0)
(1.54381 -0.0452527 0)
(1.55317 -0.0401088 0)
(1.56337 -0.03348 0)
(1.57431 -0.0273919 0)
(1.58535 -0.0229881 0)
(1.59611 -0.0198627 0)
(1.60722 -0.0171207 0)
(1.61929 -0.0141999 0)
(1.63223 -0.0111075 0)
(1.6437 -0.00991411 0)
(1.654 -0.00980824 0)
(1.66318 -0.00948402 0)
(1.67141 -0.00952858 0)
(1.67899 -0.00958572 0)
(1.68654 -0.00932829 0)
(1.6944 -0.00884131 0)
(1.70212 -0.00781564 0)
(1.70946 -0.0065285 0)
(1.7173 -0.00585738 0)
(1.72622 -0.00531715 0)
(1.73567 -0.00425692 0)
(1.74535 -0.00261689 0)
(1.75502 -0.00114165 0)
(1.76438 -0.000512478 0)
(1.77279 9.24326e-05 0)
(1.77969 0.00124093 0)
(1.7849 0.00258624 0)
(1.789 0.00337815 0)
(1.79305 0.00282362 0)
(1.79754 0.000787677 0)
(1.80193 -0.00135946 0)
(1.80551 -0.00217005 0)
(1.80736 -0.001036 0)
(1.80744 0.000589542 0)
(1.80933 0.000398652 0)
(1.81164 -0.000468321 0)
(1.81366 -0.00328108 0)
(1.81598 -0.00909193 0)
(1.81739 -0.0170804 0)
(1.81691 -0.0238394 0)
(1.81419 -0.0272105 0)
(1.80888 -0.0274107 0)
(1.80213 -0.0252948 0)
(1.7948 -0.0221333 0)
(1.7882 -0.0187002 0)
(1.78294 -0.0165504 0)
(1.77642 -0.0131768 0)
(1.50522 0.811085 0)
(1.56516 0.755928 0)
(1.66513 0.678744 0)
(1.77567 0.601497 0)
(1.79632 0.513374 0)
(1.76743 0.438517 0)
(1.74219 0.362671 0)
(1.6917 0.300951 0)
(1.60897 0.241908 0)
(1.54679 0.173904 0)
(1.51557 0.105848 0)
(1.48142 0.0582067 0)
(1.44188 0.0166773 0)
(1.4315 -0.0186246 0)
(1.43977 -0.0499451 0)
(1.44632 -0.0737168 0)
(1.45104 -0.082659 0)
(1.45691 -0.0889331 0)
(1.46531 -0.0985177 0)
(1.47892 -0.110904 0)
(1.49815 -0.12481 0)
(1.51581 -0.135596 0)
(1.52585 -0.14126 0)
(1.53233 -0.144087 0)
(1.53895 -0.145548 0)
(1.54784 -0.146096 0)
(1.55964 -0.146014 0)
(1.57277 -0.145434 0)
(1.58403 -0.14421 0)
(1.59138 -0.141609 0)
(1.59567 -0.138116 0)
(1.59937 -0.134828 0)
(1.60418 -0.132047 0)
(1.61074 -0.12919 0)
(1.61753 -0.124864 0)
(1.62251 -0.11896 0)
(1.62629 -0.113372 0)
(1.6303 -0.109185 0)
(1.63517 -0.106314 0)
(1.64119 -0.104385 0)
(1.64859 -0.102483 0)
(1.65676 -0.0983448 0)
(1.66432 -0.091395 0)
(1.66932 -0.0843924 0)
(1.67506 -0.0783182 0)
(1.68336 -0.073778 0)
(1.69119 -0.071831 0)
(1.69811 -0.070255 0)
(1.70414 -0.0660758 0)
(1.71019 -0.0593152 0)
(1.7178 -0.0520327 0)
(1.72592 -0.0462588 0)
(1.73389 -0.0429534 0)
(1.74149 -0.0413279 0)
(1.74895 -0.0391092 0)
(1.7575 -0.0350902 0)
(1.76755 -0.0290459 0)
(1.77803 -0.0224895 0)
(1.78738 -0.0177014 0)
(1.7956 -0.0142831 0)
(1.80242 -0.0129644 0)
(1.80791 -0.0132891 0)
(1.81305 -0.0138571 0)
(1.81894 -0.0130516 0)