/*--------------------------------*- C++ -*----------------------------------*\
  =========                 |
  \\      /  F ield         | OpenFOAM: The Open Source CFD Toolbox
   \\    /   O peration     | Website:  https://openfoam.org
    \\  /    A nd           | Version:  7
     \\/     M anipulation  |
\*---------------------------------------------------------------------------*/
FoamFile
{
    version     2.0;
    format      ascii;
    class       volScalarField;
    location    "30";
    object      p;
}
// * * * * * * * * * * * * * * * * * * * * * * * * * * * * * * * * * * * * * //

dimensions      [0 2 -2 0 0 0 0];

internalField   nonuniform List<scalar> 
31800
(
-0.266915
-0.268467
-0.269348
-0.270064
-0.270685
-0.271227
-0.271725
-0.272202
-0.27267
-0.273132
-0.273588
-0.274034
-0.27446
-0.274857
-0.275213
-0.275515
-0.275751
-0.275906
-0.275969
-0.275929
-0.27578
-0.275524
-0.275172
-0.274732
-0.274261
-0.267025
-0.268565
-0.26944
-0.270151
-0.270767
-0.271306
-0.271801
-0.272275
-0.27274
-0.273201
-0.273655
-0.274099
-0.274524
-0.27492
-0.275275
-0.275577
-0.275812
-0.275967
-0.276028
-0.275985
-0.275832
-0.275569
-0.275208
-0.274754
-0.274264
-0.267244
-0.268761
-0.269623
-0.270324
-0.270931
-0.271463
-0.271952
-0.27242
-0.272881
-0.273337
-0.273788
-0.274228
-0.274651
-0.275045
-0.275399
-0.275699
-0.275933
-0.276086
-0.276144
-0.276097
-0.275934
-0.275658
-0.275281
-0.274797
-0.274267
-0.26757
-0.269051
-0.269895
-0.270581
-0.271175
-0.271695
-0.272175
-0.272635
-0.273088
-0.273538
-0.273983
-0.274419
-0.274838
-0.275229
-0.27558
-0.275878
-0.27611
-0.27626
-0.276315
-0.27626
-0.276085
-0.275789
-0.275386
-0.27486
-0.274264
-0.267998
-0.269434
-0.270252
-0.270919
-0.271496
-0.272001
-0.272468
-0.272917
-0.27336
-0.2738
-0.274238
-0.274667
-0.27508
-0.275466
-0.275814
-0.276109
-0.276338
-0.276485
-0.276534
-0.27647
-0.276279
-0.275958
-0.275521
-0.27494
-0.274247
-0.268524
-0.269903
-0.270692
-0.271334
-0.27189
-0.272377
-0.272827
-0.273261
-0.27369
-0.274119
-0.274547
-0.274967
-0.275373
-0.275753
-0.276095
-0.276387
-0.276612
-0.276754
-0.276797
-0.276722
-0.276513
-0.276159
-0.275682
-0.275035
-0.274203
-0.269141
-0.270456
-0.271209
-0.271822
-0.272352
-0.272816
-0.273247
-0.273663
-0.274075
-0.27449
-0.274904
-0.275313
-0.275709
-0.276081
-0.276416
-0.276702
-0.276923
-0.27706
-0.277096
-0.277009
-0.276778
-0.276388
-0.275861
-0.275146
-0.274117
-0.269843
-0.271085
-0.271798
-0.272377
-0.272878
-0.273316
-0.273722
-0.274116
-0.274509
-0.274905
-0.275303
-0.275697
-0.276081
-0.276442
-0.276769
-0.277048
-0.277262
-0.277393
-0.27742
-0.27732
-0.277067
-0.276637
-0.276051
-0.275273
-0.273967
-0.270622
-0.271785
-0.272454
-0.272995
-0.273462
-0.273869
-0.274247
-0.274614
-0.274983
-0.275357
-0.275735
-0.276112
-0.27648
-0.276828
-0.277143
-0.277413
-0.277619
-0.277742
-0.27776
-0.277646
-0.27737
-0.276898
-0.276243
-0.275423
-0.273721
-0.27147
-0.27255
-0.27317
-0.27367
-0.274098
-0.27447
-0.274815
-0.275152
-0.275492
-0.275839
-0.276193
-0.276548
-0.276897
-0.277228
-0.277529
-0.277786
-0.277982
-0.278096
-0.278103
-0.277975
-0.277677
-0.277163
-0.276427
-0.27562
-0.273311
-0.27238
-0.273373
-0.273941
-0.274396
-0.274781
-0.275113
-0.27542
-0.275722
-0.276028
-0.276344
-0.276669
-0.276998
-0.277322
-0.277633
-0.277916
-0.278158
-0.27834
-0.278442
-0.278437
-0.278294
-0.277973
-0.277421
-0.276588
-0.275888
-0.272755
-0.273344
-0.274247
-0.274761
-0.275167
-0.275505
-0.275793
-0.276057
-0.276317
-0.276583
-0.276862
-0.277153
-0.27745
-0.277747
-0.278032
-0.278293
-0.278515
-0.27868
-0.278767
-0.278747
-0.278587
-0.278243
-0.277663
-0.276708
-0.275983
-0.272419
-0.274355
-0.275167
-0.275624
-0.275978
-0.276265
-0.276502
-0.276718
-0.27693
-0.277152
-0.277388
-0.277638
-0.277898
-0.278161
-0.278415
-0.278649
-0.278847
-0.278991
-0.279058
-0.279021
-0.278841
-0.278469
-0.277865
-0.276805
-0.276074
-0.271934
-0.275405
-0.276128
-0.276526
-0.276824
-0.277055
-0.277237
-0.277398
-0.277556
-0.277726
-0.277912
-0.278116
-0.278332
-0.278555
-0.278773
-0.278974
-0.279143
-0.27926
-0.279304
-0.279243
-0.279041
-0.278636
-0.278019
-0.276815
-0.276207
-0.271272
-0.276489
-0.277124
-0.277462
-0.2777
-0.277871
-0.277992
-0.278092
-0.27819
-0.2783
-0.278429
-0.278579
-0.278746
-0.278922
-0.279097
-0.279259
-0.279393
-0.279478
-0.279491
-0.279402
-0.279173
-0.278725
-0.278111
-0.276708
-0.276352
-0.270455
-0.277603
-0.278152
-0.278429
-0.278605
-0.27871
-0.278764
-0.278795
-0.278825
-0.278868
-0.278933
-0.279022
-0.279131
-0.279254
-0.27938
-0.279497
-0.279589
-0.279635
-0.279613
-0.279488
-0.279226
-0.278721
-0.278128
-0.276459
-0.27648
-0.269495
-0.278742
-0.279209
-0.279424
-0.279534
-0.279569
-0.27955
-0.279505
-0.279459
-0.279428
-0.27942
-0.279439
-0.279483
-0.279545
-0.279616
-0.279681
-0.279724
-0.279726
-0.27966
-0.279491
-0.279192
-0.27861
-0.278059
-0.276048
-0.276556
-0.26841
-0.279905
-0.280295
-0.280446
-0.280487
-0.280446
-0.280347
-0.280219
-0.280089
-0.279974
-0.279886
-0.279828
-0.279799
-0.279793
-0.2798
-0.279807
-0.279795
-0.279745
-0.279629
-0.279408
-0.279065
-0.278383
-0.277892
-0.275468
-0.276532
-0.267238
-0.281091
-0.281408
-0.281495
-0.281464
-0.281341
-0.281154
-0.280936
-0.280714
-0.280507
-0.28033
-0.280187
-0.280077
-0.279996
-0.279933
-0.279874
-0.279801
-0.279692
-0.279519
-0.279235
-0.278843
-0.278037
-0.277614
-0.274728
-0.276344
-0.266033
-0.282303
-0.282552
-0.282573
-0.282464
-0.282255
-0.281974
-0.281656
-0.281333
-0.281026
-0.280751
-0.280515
-0.280317
-0.280153
-0.280013
-0.279883
-0.279742
-0.279568
-0.279329
-0.278973
-0.278522
-0.277572
-0.277205
-0.273851
-0.275918
-0.264851
-0.283544
-0.283728
-0.283682
-0.283492
-0.283189
-0.282806
-0.282381
-0.281949
-0.281533
-0.281152
-0.280815
-0.280522
-0.280269
-0.280045
-0.279837
-0.279622
-0.279374
-0.279063
-0.278622
-0.278099
-0.276991
-0.276639
-0.27287
-0.275179
-0.26373
-0.284819
-0.284941
-0.284826
-0.28455
-0.284147
-0.283654
-0.283115
-0.282564
-0.282032
-0.281537
-0.281091
-0.280695
-0.280347
-0.280034
-0.279741
-0.279445
-0.279117
-0.278722
-0.278185
-0.27757
-0.276298
-0.275886
-0.271809
-0.274068
-0.262665
-0.286136
-0.286199
-0.286011
-0.285643
-0.285133
-0.284524
-0.28386
-0.283184
-0.282527
-0.281911
-0.281349
-0.280845
-0.280395
-0.279987
-0.279603
-0.27922
-0.278802
-0.278311
-0.277663
-0.276927
-0.275493
-0.274916
-0.270675
-0.272563
-0.261599
-0.287504
-0.287508
-0.287244
-0.286778
-0.286155
-0.28542
-0.284625
-0.283814
-0.283025
-0.282281
-0.281597
-0.280979
-0.280421
-0.279912
-0.279432
-0.278952
-0.278433
-0.277831
-0.277054
-0.276161
-0.274564
-0.273712
-0.269443
-0.270682
-0.260448
-0.288934
-0.288878
-0.288533
-0.287963
-0.287218
-0.286349
-0.285415
-0.284464
-0.283535
-0.282656
-0.281845
-0.281107
-0.280437
-0.279821
-0.279237
-0.278649
-0.278015
-0.277281
-0.276351
-0.27526
-0.273493
-0.272263
-0.268068
-0.268471
-0.259123
-0.29044
-0.290321
-0.289887
-0.289206
-0.288331
-0.287322
-0.28624
-0.285141
-0.284066
-0.283048
-0.282104
-0.281241
-0.280453
-0.279724
-0.279025
-0.278318
-0.277549
-0.276657
-0.275545
-0.274211
-0.272253
-0.270569
-0.266494
-0.265984
-0.257555
-0.292036
-0.291846
-0.291319
-0.290518
-0.289504
-0.288346
-0.28711
-0.285856
-0.284631
-0.283468
-0.282387
-0.281394
-0.280482
-0.27963
-0.278806
-0.27796
-0.277033
-0.275951
-0.274619
-0.272998
-0.270812
-0.268631
-0.264673
-0.26325
-0.25569
-0.293738
-0.293468
-0.292839
-0.291909
-0.290749
-0.289433
-0.288036
-0.286621
-0.28524
-0.283927
-0.282705
-0.281577
-0.280534
-0.279549
-0.278583
-0.277577
-0.276462
-0.275152
-0.273557
-0.271606
-0.269147
-0.266449
-0.262567
-0.260245
-0.253493
-0.295561
-0.2952
-0.294459
-0.29339
-0.292075
-0.290594
-0.289029
-0.287449
-0.285907
-0.284441
-0.283072
-0.281803
-0.280619
-0.279488
-0.27836
-0.277165
-0.275825
-0.274245
-0.27234
-0.270024
-0.267241
-0.264037
-0.260157
-0.256896
-0.251002
-0.297525
-0.297057
-0.296193
-0.294975
-0.293495
-0.291842
-0.290103
-0.288351
-0.286644
-0.285021
-0.283501
-0.282083
-0.280747
-0.279451
-0.278133
-0.276716
-0.275109
-0.273214
-0.270955
-0.268242
-0.265092
-0.261422
-0.25744
-0.253206
-0.248387
-0.299645
-0.299055
-0.298054
-0.296677
-0.295021
-0.293188
-0.291269
-0.289342
-0.287466
-0.285681
-0.284003
-0.282426
-0.280921
-0.279437
-0.277899
-0.276219
-0.2743
-0.272044
-0.269389
-0.266258
-0.262711
-0.258631
-0.254431
-0.2495
-0.245615
-0.301939
-0.301206
-0.300056
-0.298507
-0.296667
-0.294646
-0.292541
-0.290434
-0.288385
-0.286432
-0.284588
-0.282839
-0.281145
-0.279443
-0.277647
-0.275659
-0.273381
-0.270723
-0.267639
-0.264076
-0.260123
-0.25568
-0.251165
-0.245989
-0.241758
-0.304425
-0.303528
-0.302213
-0.30048
-0.298445
-0.296229
-0.293933
-0.291641
-0.289414
-0.287286
-0.285265
-0.283326
-0.281417
-0.279462
-0.277364
-0.275021
-0.272338
-0.269241
-0.265706
-0.261707
-0.257358
-0.252578
-0.247772
-0.242388
-0.237797
-0.30712
-0.306033
-0.304538
-0.302609
-0.300369
-0.29795
-0.295456
-0.292974
-0.290563
-0.288252
-0.286039
-0.283887
-0.281732
-0.279482
-0.277035
-0.274289
-0.27116
-0.267595
-0.263597
-0.259169
-0.25444
-0.249355
-0.244283
-0.238737
-0.233919
-0.31004
-0.308737
-0.307046
-0.304906
-0.302452
-0.299822
-0.297125
-0.294448
-0.291845
-0.289338
-0.286913
-0.28452
-0.282079
-0.279489
-0.276643
-0.273447
-0.269837
-0.265785
-0.261323
-0.256481
-0.251398
-0.246035
-0.240732
-0.235052
-0.230059
-0.3132
-0.311652
-0.309748
-0.307385
-0.304706
-0.301857
-0.298951
-0.296071
-0.293267
-0.290548
-0.287887
-0.285218
-0.282447
-0.279466
-0.276171
-0.272483
-0.268364
-0.263817
-0.258899
-0.253664
-0.248253
-0.24264
-0.237134
-0.231333
-0.226221
-0.316613
-0.314792
-0.312658
-0.310059
-0.307144
-0.30407
-0.300947
-0.297856
-0.294837
-0.291885
-0.288957
-0.285969
-0.282818
-0.279393
-0.275601
-0.271387
-0.266741
-0.261699
-0.25634
-0.250735
-0.245023
-0.239184
-0.233499
-0.227588
-0.222377
-0.320293
-0.318169
-0.315788
-0.312939
-0.309779
-0.306471
-0.303124
-0.299811
-0.296559
-0.293347
-0.290113
-0.286759
-0.283173
-0.279251
-0.274919
-0.27015
-0.26497
-0.259441
-0.253661
-0.247711
-0.241721
-0.235676
-0.229828
-0.223814
-0.218517
-0.32425
-0.321794
-0.319149
-0.316038
-0.312623
-0.309073
-0.305492
-0.301943
-0.298435
-0.294929
-0.291343
-0.287568
-0.28349
-0.27902
-0.274111
-0.26877
-0.263054
-0.257053
-0.250873
-0.244602
-0.238357
-0.232121
-0.226122
-0.22001
-0.21463
-0.328493
-0.325675
-0.322751
-0.319367
-0.315687
-0.311886
-0.30806
-0.304255
-0.300463
-0.296621
-0.292631
-0.288375
-0.283748
-0.278683
-0.273166
-0.267243
-0.261
-0.254544
-0.247988
-0.241417
-0.234933
-0.22852
-0.222377
-0.216172
-0.210709
-0.333031
-0.329822
-0.326603
-0.322935
-0.318981
-0.314919
-0.310833
-0.306749
-0.302635
-0.298409
-0.293954
-0.289155
-0.283923
-0.278221
-0.272078
-0.265571
-0.258813
-0.251922
-0.245011
-0.238159
-0.231451
-0.224871
-0.21859
-0.212293
-0.206747
-0.337869
-0.334241
-0.330713
-0.326751
-0.322515
-0.31818
-0.313814
-0.30942
-0.304941
-0.300271
-0.295288
-0.289882
-0.283991
-0.277621
-0.270838
-0.263753
-0.256496
-0.249192
-0.241946
-0.234828
-0.227908
-0.221168
-0.214754
-0.208369
-0.202739
-0.343009
-0.338935
-0.335087
-0.330822
-0.326294
-0.321673
-0.317003
-0.312261
-0.307363
-0.302185
-0.296603
-0.290527
-0.283933
-0.276869
-0.269442
-0.26179
-0.254054
-0.246356
-0.238793
-0.231424
-0.224301
-0.217408
-0.210863
-0.204393
-0.198678
-0.348452
-0.343908
-0.339729
-0.335153
-0.330322
-0.325397
-0.320393
-0.315257
-0.309877
-0.30412
-0.297868
-0.291064
-0.283728
-0.275954
-0.267886
-0.259682
-0.251486
-0.243415
-0.23555
-0.227941
-0.220625
-0.213584
-0.206912
-0.20036
-0.19456
-0.354192
-0.349157
-0.344639
-0.339744
-0.3346
-0.329348
-0.323973
-0.318386
-0.312456
-0.306042
-0.29905
-0.291464
-0.283356
-0.274866
-0.266167
-0.257428
-0.248792
-0.240364
-0.232212
-0.224373
-0.216871
-0.209687
-0.202893
-0.196263
-0.190379
-0.360225
-0.354677
-0.349814
-0.344595
-0.339122
-0.333516
-0.327723
-0.321623
-0.315063
-0.307915
-0.300116
-0.291703
-0.282803
-0.273596
-0.264279
-0.255025
-0.245968
-0.2372
-0.228774
-0.220715
-0.213034
-0.205712
-0.198799
-0.192095
-0.18613
-0.366534
-0.36046
-0.355247
-0.349696
-0.343878
-0.337884
-0.331619
-0.324931
-0.317661
-0.309699
-0.301031
-0.291755
-0.282051
-0.272135
-0.262217
-0.252468
-0.243009
-0.233916
-0.225227
-0.216957
-0.209104
-0.20165
-0.194623
-0.187851
-0.181806
-0.373105
-0.366493
-0.360927
-0.355037
-0.348852
-0.342429
-0.335628
-0.328272
-0.320204
-0.311352
-0.301763
-0.291597
-0.281086
-0.270474
-0.259975
-0.249751
-0.239908
-0.230504
-0.221564
-0.21309
-0.205074
-0.197493
-0.190359
-0.183525
-0.177404
-0.379914
-0.372755
-0.366836
-0.360598
-0.354021
-0.347119
-0.33971
-0.331598
-0.322646
-0.312834
-0.302279
-0.291207
-0.279894
-0.268603
-0.257544
-0.246866
-0.236656
-0.226955
-0.217774
-0.209107
-0.200935
-0.193234
-0.186
-0.179111
-0.172918
-0.38693
-0.379223
-0.37295
-0.366355
-0.359352
-0.351913
-0.343816
-0.334858
-0.324938
-0.314102
-0.302548
-0.290564
-0.278461
-0.266511
-0.254916
-0.243803
-0.233242
-0.223258
-0.213849
-0.204998
-0.196679
-0.188866
-0.18154
-0.174602
-0.168342
-0.39412
-0.385865
-0.379241
-0.372274
-0.364808
-0.356766
-0.347893
-0.337996
-0.327027
-0.315116
-0.302541
-0.289647
-0.276773
-0.264187
-0.252078
-0.240552
-0.229657
-0.219404
-0.209778
-0.200753
-0.192297
-0.184381
-0.176971
-0.169994
-0.163673
-0.401439
-0.392643
-0.385671
-0.378314
-0.37034
-0.361621
-0.351881
-0.340953
-0.328864
-0.315837
-0.302229
-0.288438
-0.274814
-0.261619
-0.249019
-0.2371
-0.225889
-0.215381
-0.20555
-0.196364
-0.187782
-0.179771
-0.172289
-0.16528
-0.158905
-0.408838
-0.399514
-0.392194
-0.384427
-0.375892
-0.366417
-0.355715
-0.343669
-0.330398
-0.316226
-0.301586
-0.286915
-0.272569
-0.258793
-0.245728
-0.233435
-0.221926
-0.211178
-0.201157
-0.191821
-0.183125
-0.175031
-0.167487
-0.160456
-0.154035
-0.41626
-0.406425
-0.39876
-0.390557
-0.381402
-0.371084
-0.359325
-0.346082
-0.33158
-0.316247
-0.300586
-0.285061
-0.270023
-0.255694
-0.242189
-0.229546
-0.217755
-0.206785
-0.196588
-0.187115
-0.178319
-0.170152
-0.16256
-0.155516
-0.149058
-0.423641
-0.413316
-0.405307
-0.396638
-0.386798
-0.375548
-0.362643
-0.348131
-0.332362
-0.315865
-0.299204
-0.282856
-0.267159
-0.252307
-0.238389
-0.225417
-0.213366
-0.202189
-0.191833
-0.18224
-0.173356
-0.16513
-0.157502
-0.150456
-0.14397
-0.430911
-0.420123
-0.411769
-0.402598
-0.392003
-0.379732
-0.365595
-0.349757
-0.332699
-0.315047
-0.297414
-0.28028
-0.26396
-0.248618
-0.234313
-0.221037
-0.208746
-0.197382
-0.186883
-0.177185
-0.168229
-0.159959
-0.152308
-0.145271
-0.138769
-0.437992
-0.426773
-0.418071
-0.408359
-0.396936
-0.383555
-0.368109
-0.350902
-0.332546
-0.313762
-0.295194
-0.277314
-0.260409
-0.244611
-0.229948
-0.216392
-0.203883
-0.192353
-0.18173
-0.171945
-0.162933
-0.154632
-0.146975
-0.139958
-0.133452
-0.444801
-0.433186
-0.424132
-0.413835
-0.401508
-0.386934
-0.370115
-0.351509
-0.331864
-0.311979
-0.292519
-0.273939
-0.25649
-0.24027
-0.225279
-0.211469
-0.198766
-0.187091
-0.176364
-0.166511
-0.15746
-0.149145
-0.141497
-0.134512
-0.128016
-0.451252
-0.439278
-0.429866
-0.418936
-0.405631
-0.389787
-0.371544
-0.351526
-0.330614
-0.309671
-0.289369
-0.270136
-0.252185
-0.235579
-0.220293
-0.206257
-0.193385
-0.181589
-0.17078
-0.160877
-0.151806
-0.143494
-0.135872
-0.128932
-0.122459
-0.457251
-0.44496
-0.435182
-0.42357
-0.409214
-0.392033
-0.372331
-0.350905
-0.32876
-0.30681
-0.28572
-0.265885
-0.247477
-0.230524
-0.214976
-0.200744
-0.187731
-0.175837
-0.164968
-0.155038
-0.145966
-0.137674
-0.130095
-0.123213
-0.116782
-0.462704
-0.450139
-0.439985
-0.427641
-0.412167
-0.393594
-0.372413
-0.349599
-0.326269
-0.303371
-0.281554
-0.26117
-0.242351
-0.225092
-0.209316
-0.19492
-0.181793
-0.169828
-0.158924
-0.148988
-0.139935
-0.131683
-0.124165
-0.117354
-0.110982
-0.467513
-0.45472
-0.444177
-0.431052
-0.414399
-0.394395
-0.371732
-0.347566
-0.323109
-0.29933
-0.276849
-0.255974
-0.236793
-0.219268
-0.203302
-0.188774
-0.175564
-0.163555
-0.152641
-0.142722
-0.13371
-0.125517
-0.118079
-0.111354
-0.10506
-0.47158
-0.458606
-0.447662
-0.433708
-0.415826
-0.394364
-0.370237
-0.344768
-0.319254
-0.294666
-0.271589
-0.25028
-0.230787
-0.213041
-0.196923
-0.182298
-0.169036
-0.157013
-0.146114
-0.136237
-0.127288
-0.119175
-0.111834
-0.105214
-0.0990214
-0.474808
-0.461699
-0.45034
-0.435515
-0.416364
-0.393438
-0.367878
-0.341171
-0.314677
-0.289359
-0.265755
-0.244074
-0.224321
-0.206399
-0.19017
-0.175485
-0.162204
-0.150196
-0.139341
-0.129531
-0.120666
-0.112652
-0.105429
-0.0989305
-0.0928675
-0.4771
-0.463904
-0.452117
-0.436384
-0.415938
-0.391556
-0.364612
-0.336744
-0.309357
-0.283391
-0.259334
-0.237342
-0.217384
-0.199334
-0.183035
-0.168329
-0.155063
-0.143102
-0.132318
-0.1226
-0.113843
-0.105949
-0.0988589
-0.0925003
-0.0865877
-0.478363
-0.465126
-0.452899
-0.436229
-0.414475
-0.388664
-0.360403
-0.331461
-0.303274
-0.276747
-0.252311
-0.230075
-0.209967
-0.191838
-0.175513
-0.160824
-0.147609
-0.135726
-0.125044
-0.115444
-0.106819
-0.099065
-0.0921283
-0.0859199
-0.080143
-0.478507
-0.465277
-0.4526
-0.434972
-0.411913
-0.384718
-0.355219
-0.325301
-0.296413
-0.269414
-0.244677
-0.222262
-0.202062
-0.183903
-0.167599
-0.152966
-0.13984
-0.128069
-0.117518
-0.108064
-0.099594
-0.0920034
-0.0852452
-0.0791995
-0.0734922
-0.477449
-0.46427
-0.451137
-0.432539
-0.408195
-0.379676
-0.349033
-0.318246
-0.288759
-0.26138
-0.236422
-0.213896
-0.193662
-0.175527
-0.159288
-0.144755
-0.131755
-0.12013
-0.10974
-0.100459
-0.0921691
-0.0847666
-0.0782133
-0.0723523
-0.0666905
-0.475111
-0.462027
-0.448435
-0.428868
-0.403274
-0.373507
-0.341825
-0.310282
-0.280304
-0.252639
-0.227541
-0.204972
-0.184765
-0.166706
-0.150581
-0.13619
-0.123353
-0.111908
-0.101711
-0.0926324
-0.0845477
-0.0773579
-0.0710246
-0.0653149
-0.0598813
-0.471421
-0.458476
-0.444427
-0.423902
-0.397108
-0.366186
-0.33358
-0.301401
-0.271042
-0.243187
-0.218028
-0.195488
-0.175369
-0.15744
-0.141477
-0.127271
-0.114637
-0.103408
-0.0934345
-0.084588
-0.0767342
-0.0697806
-0.0636799
-0.0581498
-0.052985
-0.46632
-0.453554
-0.439055
-0.417596
-0.389668
-0.357695
-0.324288
-0.291598
-0.260969
-0.233021
-0.207885
-0.185444
-0.165474
-0.147731
-0.131978
-0.118001
-0.105609
-0.0946343
-0.0849172
-0.0763273
-0.0687318
-0.0620375
-0.0561876
-0.0508669
-0.0459821
-0.459751
-0.447207
-0.432269
-0.409913
-0.380931
-0.348022
-0.313948
-0.280872
-0.250088
-0.222143
-0.197112
-0.174841
-0.155083
-0.137581
-0.122088
-0.108387
-0.0962778
-0.0855887
-0.0761611
-0.0678574
-0.0605455
-0.0541337
-0.0485557
-0.0434675
-0.0388715
-0.451674
-0.439388
-0.424032
-0.400826
-0.370884
-0.337166
-0.30256
-0.269229
-0.238403
-0.210558
-0.185715
-0.163685
-0.144203
-0.126996
-0.111816
-0.0984324
-0.0866461
-0.0762793
-0.0671727
-0.0591844
-0.0521817
-0.0460754
-0.0407901
-0.0359528
-0.031659
-0.442053
-0.430064
-0.414315
-0.390319
-0.359522
-0.32513
-0.290133
-0.256678
-0.225923
-0.198273
-0.1737
-0.151984
-0.132841
-0.115987
-0.101167
-0.0881461
-0.0767222
-0.0667137
-0.0579598
-0.0503156
-0.0436476
-0.0378699
-0.0328972
-0.028327
-0.0243516
-0.430866
-0.41921
-0.4031
-0.378386
-0.346849
-0.311923
-0.276679
-0.24323
-0.212659
-0.1853
-0.161079
-0.139752
-0.121007
-0.104562
-0.0901502
-0.0775373
-0.0665154
-0.0569009
-0.0485313
-0.0412592
-0.0349512
-0.0295249
-0.0248837
-0.0205961
-0.0169566
-0.4181
-0.406813
-0.39038
-0.365028
-0.332877
-0.297564
-0.262218
-0.228905
-0.198627
-0.171652
-0.147873
-0.126996
-0.108714
-0.0927318
-0.078779
-0.0666174
-0.0560366
-0.0468511
-0.0388969
-0.0320248
-0.0261017
-0.021049
-0.0167575
-0.0127679
-0.00948186
-0.403755
-0.39287
-0.37616
-0.350261
-0.317627
-0.282076
-0.246773
-0.213723
-0.183848
-0.157358
-0.134087
-0.113734
-0.0959771
-0.080512
-0.0670663
-0.0553991
-0.045298
-0.0365759
-0.0290677
-0.022623
-0.0171092
-0.0124518
-0.00852738
-0.00485099
-0.0019357
-0.387839
-0.377389
-0.360453
-0.334105
-0.301126
-0.265489
-0.230373
-0.197711
-0.16835
-0.142428
-0.119747
-0.0999863
-0.0828131
-0.0679187
-0.0550277
-0.0438971
-0.0343133
-0.0260882
-0.019056
-0.0130652
-0.00798473
-0.00374368
-0.000203105
0.0031447
0.00567275
-0.370374
-0.36039
-0.343284
-0.316591
-0.28341
-0.247841
-0.213051
-0.180902
-0.152155
-0.126891
-0.104876
-0.085773
-0.0692422
-0.0549704
-0.0426801
-0.0321273
-0.0230974
-0.0154021
-0.00887496
-0.00336403
0.0012597
0.00506415
0.00820462
0.0112084
0.0133334
-0.35139
-0.341901
-0.324688
-0.297761
-0.264523
-0.229172
-0.194845
-0.163328
-0.135296
-0.110774
-0.0894984
-0.0711183
-0.0552865
-0.0416875
-0.0300427
-0.0201074
-0.0116669
-0.00453283
0.00146107
0.00646695
0.0106112
0.0139595
0.0166843
0.0193284
0.0210352
-0.330927
-0.321962
-0.304707
-0.277665
-0.244523
-0.209518
-0.175798
-0.145028
-0.117808
-0.09411
-0.0736443
-0.0560483
-0.0409701
-0.0280924
-0.017136
-0.00785635
-3.9179e-05
0.0065032
0.0119368
0.0164133
0.0200561
0.0229294
0.0252234
0.0274915
0.0287657
-0.309036
-0.300621
-0.283397
-0.256371
-0.223465
-0.188921
-0.155953
-0.126044
-0.0997274
-0.0769324
-0.0573444
-0.0405919
-0.0263194
-0.0142092
-0.00398221
0.00460534
0.0117667
0.0176886
0.0225361
0.0264599
0.0295797
0.0319599
0.0338082
0.0356823
0.0365102
-0.285774
-0.277938
-0.260824
-0.233933
-0.201342
-0.167495
-0.13537
-0.106422
-0.081097
-0.0592787
-0.0406327
-0.0247798
-0.0113627
-6.38013e-05
0.0093949
0.0172559
0.0237309
0.0290049
0.033242
0.0365908
0.0391671
0.0410366
0.0424239
0.0438828
0.0442481
-0.261206
-0.253987
-0.237069
-0.21036
-0.178305
-0.145259
-0.1141
-0.0862124
-0.0619608
-0.041189
-0.0235454
-0.00864516
0.00386981
0.0143162
0.0229701
0.0300723
0.0358323
0.040433
0.0440369
0.0467898
0.0488029
0.050145
0.0510558
0.0520738
0.051952
-0.235402
-0.228847
-0.212211
-0.185737
-0.154404
-0.12228
-0.0922037
-0.0654671
-0.0423656
-0.0227058
-0.00612122
0.00777688
0.0193462
0.0289016
0.0367169
0.0430303
0.0480487
0.0519527
0.0549024
0.0570398
0.0584708
0.05927
0.0596916
0.060241
0.0596053
-0.208439
-0.202598
-0.186197
-0.160292
-0.129717
-0.098631
-0.0697416
-0.0442418
-0.0223614
-0.00387393
0.0115993
0.0244494
0.0350328
0.0436618
0.0506074
0.0561046
0.0603573
0.0635432
0.0658197
0.0673233
0.0681537
0.0683966
0.0683214
0.0683765
0.0672024
-0.180387
-0.175348
-0.15926
-0.134004
-0.104321
-0.0743849
-0.0467786
-0.0225942
-0.0020002
0.0152595
0.0295734
0.0413337
0.0508945
0.0585649
0.0646126
0.069269
0.0727343
0.0751832
0.0767695
0.077622
0.0778343
0.077512
0.076936
0.0764467
0.0746443
-0.151348
-0.1472
-0.131504
-0.106963
-0.0782997
-0.0496176
-0.023382
-0.000584791
0.0186637
0.0346455
0.0477567
0.0583894
0.0668947
0.0735778
0.0787024
0.082496
0.085155
0.0868507
0.0877321
0.0879183
0.0875001
0.0866129
0.0855222
0.0843369
0.0816203
-0.121582
-0.118143
-0.102998
-0.0792691
-0.051737
-0.0244071
0.000378391
0.0217241
0.0395742
0.0542333
0.0661033
0.075575
0.0829956
0.088666
0.0928457
0.0957576
0.0975942
0.098523
0.0986872
0.0981959
0.0971449
0.0957064
0.0940633
0.091909
0.087908
-0.0910872
-0.0883468
-0.0738417
-0.0510219
-0.0247226
0.00116657
0.0244307
0.0442681
0.0606733
0.0739705
0.0845658
0.0928475
0.0991583
0.103794
0.10701
0.109025
0.110026
0.110176
0.109613
0.108438
0.106763
0.104789
0.102531
0.0992282
0.0942038
-0.0599501
-0.0579467
-0.0441397
-0.0223217
0.00265172
0.0270212
0.0487015
0.0669813
0.0819015
0.0938035
0.103096
0.110163
0.115343
0.118927
0.121164
0.122268
0.122423
0.121786
0.120489
0.118629
0.116337
0.113818
0.110867
0.106487
0.102596
-0.028294
-0.0270569
-0.0140027
0.0067284
0.0302924
0.053073
0.0731157
0.0897962
0.103198
0.113678
0.121643
0.127476
0.131509
0.134026
0.135273
0.135457
0.134757
0.133328
0.131292
0.128747
0.125839
0.122737
0.119088
0.114113
0.110938
0.00375735
0.00420763
0.0164564
0.0360236
0.0581046
0.0792369
0.0975972
0.112645
0.124502
0.133537
0.140158
0.144742
0.147615
0.149056
0.149303
0.148561
0.147002
0.144776
0.142
0.138774
0.135246
0.131543
0.127256
0.121895
0.118823
0.0360805
0.035729
0.0471232
0.0654578
0.0859923
0.105427
0.122069
0.135457
0.14575
0.153325
0.15859
0.161914
0.163619
0.163977
0.163221
0.161548
0.159128
0.156104
0.152589
0.148684
0.144532
0.140227
0.135366
0.129674
0.126431
0.0685512
0.0673873
0.0778822
0.0949245
0.113859
0.131557
0.146454
0.158165
0.16688
0.172986
0.176886
0.178946
0.179479
0.178751
0.176991
0.174388
0.171108
0.167287
0.163036
0.158454
0.153679
0.148778
0.143379
0.137342
0.133785
0.101044
0.0990612
0.108617
0.124317
0.141609
0.15754
0.170674
0.180697
0.187829
0.192462
0.194996
0.195791
0.195153
0.193342
0.190578
0.187049
0.182912
0.178299
0.173316
0.168062
0.162666
0.15718
0.151262
0.144858
0.140913
0.133434
0.130629
0.139213
0.153528
0.169145
0.18329
0.194652
0.202985
0.208534
0.211696
0.212869
0.212402
0.210598
0.207709
0.203949
0.199499
0.194511
0.189113
0.183406
0.177486
0.171474
0.165413
0.158988
0.152197
0.147822
0.165596
0.16197
0.169554
0.182452
0.196372
0.208722
0.218312
0.224958
0.228932
0.230633
0.230452
0.228734
0.225773
0.221816
0.217069
0.211708
0.205879
0.199704
0.193282
0.186703
0.180083
0.173457
0.166532
0.159345
0.154515
0.197405
0.192962
0.199525
0.210985
0.223196
0.233751
0.241576
0.246549
0.248962
0.249215
0.247695
0.244741
0.240637
0.235624
0.229903
0.223643
0.216985
0.210046
0.202919
0.195693
0.188475
0.181293
0.173876
0.166289
0.160989
0.228739
0.223486
0.229015
0.239022
0.249524
0.258292
0.264369
0.267689
0.268561
0.267387
0.264548
0.260376
0.255147
0.249097
0.242419
0.235276
0.227803
0.220114
0.212296
0.204435
0.196629
0.188904
0.181003
0.173016
0.167238
0.259476
0.253425
0.257912
0.266464
0.275264
0.282265
0.286619
0.288313
0.287671
0.285096
0.280963
0.275595
0.269264
0.262197
0.254582
0.246574
0.238306
0.229883
0.22139
0.212907
0.204528
0.196271
0.187898
0.179516
0.173256
0.289499
0.282662
0.286107
0.29321
0.300327
0.305588
0.308253
0.308353
0.306231
0.302287
0.296889
0.290355
0.282949
0.27489
0.26636
0.257511
0.248466
0.239329
0.230178
0.221091
0.212153
0.203378
0.194547
0.185776
0.179035
0.31869
0.311087
0.313496
0.319165
0.324626
0.328185
0.329199
0.327748
0.324185
0.318908
0.312281
0.304613
0.296162
0.287139
0.277722
0.268055
0.258258
0.248428
0.23864
0.228967
0.219487
0.210211
0.200936
0.191786
0.184568
0.346937
0.338589
0.339976
0.344235
0.348077
0.349979
0.349392
0.346436
0.341477
0.33491
0.327093
0.318328
0.308866
0.298912
0.288637
0.278181
0.267657
0.257158
0.246755
0.236516
0.226513
0.216753
0.207051
0.197534
0.189846
0.374133
0.365063
0.365448
0.36833
0.3706
0.370897
0.368763
0.364357
0.358052
0.350243
0.341281
0.33146
0.321025
0.310175
0.299076
0.287861
0.276639
0.265497
0.254503
0.24372
0.233215
0.222991
0.212879
0.203009
0.194861
0.400171
0.390407
0.389818
0.391364
0.392117
0.39087
0.387251
0.381454
0.37386
0.364861
0.354802
0.34397
0.332604
0.320898
0.30901
0.297069
0.28518
0.273424
0.261866
0.250563
0.239578
0.22891
0.218409
0.2082
0.199606
0.424953
0.414525
0.412994
0.413255
0.412552
0.40983
0.404795
0.397672
0.38885
0.378719
0.367615
0.355822
0.343571
0.33105
0.318412
0.305782
0.293257
0.280918
0.268824
0.257029
0.245587
0.234498
0.223629
0.213097
0.204072
0.448383
0.437325
0.434892
0.433925
0.431837
0.427715
0.421337
0.41296
0.402977
0.391774
0.379683
0.366981
0.353893
0.340602
0.327256
0.313974
0.300851
0.287961
0.275361
0.2631
0.251228
0.239742
0.228527
0.217689
0.208251
0.470371
0.45872
0.455429
0.453299
0.449904
0.444463
0.436824
0.427268
0.416195
0.403986
0.390969
0.377414
0.363541
0.349528
0.335518
0.321625
0.307941
0.294535
0.281461
0.268764
0.256488
0.244631
0.233091
0.221967
0.212137
0.490834
0.478629
0.474532
0.47131
0.466691
0.46002
0.451205
0.440551
0.428463
0.415318
0.401439
0.38709
0.372487
0.357802
0.343175
0.328714
0.314508
0.300622
0.287107
0.274005
0.261354
0.249152
0.237313
0.225923
0.215724
0.509694
0.496975
0.492128
0.487892
0.482142
0.474334
0.464433
0.452767
0.439742
0.425734
0.411061
0.395981
0.380705
0.365401
0.350205
0.335222
0.320535
0.306208
0.292287
0.278812
0.265816
0.253297
0.241183
0.229546
0.219004
0.526877
0.51369
0.508153
0.502988
0.496202
0.487355
0.476465
0.463876
0.449998
0.435203
0.419806
0.404059
0.388171
0.372304
0.35659
0.341131
0.326006
0.311277
0.296987
0.283173
0.269862
0.257055
0.244692
0.23283
0.221972
0.54232
0.528711
0.52255
0.516544
0.508824
0.499042
0.487261
0.473842
0.459197
0.443696
0.427647
0.411302
0.394863
0.37849
0.362311
0.346424
0.330907
0.315817
0.301196
0.287076
0.273484
0.260418
0.247831
0.235768
0.224624
0.555963
0.54198
0.535263
0.528512
0.519964
0.509355
0.496786
0.482633
0.467311
0.451185
0.434562
0.417688
0.400762
0.383942
0.367352
0.351088
0.335224
0.319815
0.304902
0.290513
0.276672
0.263378
0.250594
0.238353
0.226955
0.567755
0.553448
0.546249
0.53885
0.529584
0.518259
0.505009
0.490222
0.474313
0.457648
0.440528
0.423197
0.405851
0.388645
0.3717
0.35511
0.338946
0.323262
0.308096
0.293475
0.279419
0.265928
0.252975
0.240579
0.22896
0.57765
0.563071
0.555465
0.547521
0.537652
0.525725
0.511903
0.496583
0.480183
0.463065
0.445528
0.427814
0.410115
0.392585
0.375342
0.358478
0.342063
0.326149
0.31077
0.295954
0.281718
0.268062
0.254967
0.242442
0.230636
0.585612
0.570814
0.562878
0.554495
0.544139
0.531728
0.517445
0.501697
0.484901
0.467419
0.449546
0.431523
0.413541
0.39575
0.378268
0.361184
0.344567
0.328467
0.312918
0.297945
0.283564
0.269776
0.256566
0.243937
0.23198
0.59161
0.576646
0.568462
0.559747
0.549025
0.536248
0.521618
0.505547
0.488453
0.470696
0.452571
0.434315
0.41612
0.398132
0.380469
0.36322
0.346451
0.330211
0.314534
0.299443
0.284952
0.271064
0.257769
0.245062
0.23299
0.595621
0.580546
0.572196
0.563258
0.552291
0.539269
0.524407
0.508121
0.490827
0.472886
0.454592
0.436181
0.417843
0.399724
0.38194
0.36458
0.347709
0.331376
0.315613
0.300444
0.28588
0.271925
0.258573
0.245813
0.233665
0.597631
0.5825
0.574067
0.565017
0.553926
0.540782
0.525804
0.50941
0.492016
0.473983
0.455604
0.437116
0.418706
0.400521
0.382677
0.365261
0.348339
0.331959
0.316154
0.300944
0.286344
0.272356
0.258975
0.246188
0.234002
0.597631
0.5825
0.574067
0.565017
0.553926
0.540782
0.525804
0.50941
0.492016
0.473983
0.455604
0.437116
0.418706
0.400521