/*--------------------------------*- C++ -*----------------------------------*\
  =========                 |
  \\      /  F ield         | OpenFOAM: The Open Source CFD Toolbox
   \\    /   O peration     | Website:  https://openfoam.org
    \\  /    A nd           | Version:  7
     \\/     M anipulation  |
\*---------------------------------------------------------------------------*/
FoamFile
{
    version     2.0;
    format      ascii;
    class       volVectorField;
    location    "30";
    object      U;
}
// * * * * * * * * * * * * * * * * * * * * * * * * * * * * * * * * * * * * * //

dimensions      [0 1 -1 0 0 0 0];

internalField   nonuniform List<vector> 
31800
(
(-0.00052606 0.00051966 -9.72005e-21)
(-0.00325965 0.00130466 6.71057e-21)
(-0.00872537 0.00188971 -2.18534e-21)
(-0.0157933 0.00231534 9.70284e-21)
(-0.024025 0.00260968 1.08346e-20)
(-0.0330594 0.00279758 -3.54876e-21)
(-0.0425792 0.00290085 -2.56394e-21)
(-0.0523375 0.00293813 1.81257e-20)
(-0.0621434 0.0029251 -2.06366e-21)
(-0.0718518 0.00287461 2.96291e-21)
(-0.0813553 0.00279678 1.01571e-20)
(-0.0905752 0.00269919 9.94041e-21)
(-0.0994541 0.00258713 -6.2727e-21)
(-0.107948 0.00246398 -7.79039e-21)
(-0.116022 0.00233155 -2.65762e-22)
(-0.123645 0.00219067 -9.92813e-21)
(-0.130786 0.00204181 7.70569e-21)
(-0.137417 0.0018858 1.29767e-20)
(-0.143513 0.00172489 -4.84708e-21)
(-0.14906 0.00156384 2.19412e-20)
(-0.154064 0.00141106 1.38789e-21)
(-0.15857 0.00127968 -1.76677e-21)
(-0.162678 0.00118624 3.8536e-21)
(-0.166515 0.00114531 7.83287e-21)
(-0.170324 0.00118292 4.86349e-21)
(-0.000576033 0.00155432 1.00076e-20)
(-0.00337136 0.00390336 5.47549e-21)
(-0.00885972 0.0056551 -5.89476e-21)
(-0.0159238 0.00693011 -2.2392e-20)
(-0.0241308 0.00781237 1.6528e-20)
(-0.0331235 0.00837599 -8.08546e-21)
(-0.0425878 0.00868613 4.45446e-22)
(-0.0522791 0.00879854 -1.39011e-20)
(-0.0620078 0.00876016 2.89725e-21)
(-0.0716299 0.00860948 1.96749e-21)
(-0.0810385 0.00837682 -4.26479e-20)
(-0.0901551 0.00808493 -7.19689e-22)
(-0.0989222 0.00774971 4.76715e-20)
(-0.107296 0.00738125 -2.39522e-20)
(-0.115241 0.00698503 -4.53381e-21)
(-0.122725 0.00656351 9.85384e-21)
(-0.129717 0.00611792 -2.06817e-20)
(-0.136188 0.00565063 -1.03361e-21)
(-0.14211 0.00516801 2.03801e-20)
(-0.147466 0.00468388 -7.46497e-20)
(-0.152257 0.00422312 -2.31157e-20)
(-0.156522 0.00382489 3.49195e-20)
(-0.160357 0.00353939 1.71991e-20)
(-0.163876 0.00341203 3.05439e-21)
(-0.16731 0.00352227 -6.91558e-21)
(-0.000675112 0.00257312 -2.0742e-20)
(-0.00359304 0.00646526 -5.67613e-22)
(-0.00912654 0.00937079 -2.81776e-20)
(-0.0161833 0.0114876 4.20275e-20)
(-0.0243412 0.0129538 -4.75796e-20)
(-0.033251 0.0138917 -4.44495e-21)
(-0.0426048 0.0144088 -4.31623e-21)
(-0.0521623 0.0145975 7.88854e-21)
(-0.0617369 0.0145354 2.61055e-20)
(-0.0711866 0.0142865 -4.43209e-21)
(-0.0804054 0.0139012 -7.81802e-21)
(-0.0893153 0.0134174 2.81552e-20)
(-0.0978586 0.0128616 -4.9554e-21)
(-0.105991 0.0122506 2.73411e-20)
(-0.113677 0.0115936 -5.53081e-20)
(-0.120883 0.0108946 -2.25945e-20)
(-0.127576 0.0101553 3.63906e-21)
(-0.133725 0.00937906 -7.39847e-20)
(-0.139299 0.00857547 2.01925e-20)
(-0.144273 0.00776617 4.54712e-20)
(-0.148638 0.00699118 -2.86973e-20)
(-0.152422 0.00631504 -6.89937e-20)
(-0.155712 0.00582338 -3.43939e-20)
(-0.158598 0.0055975 -6.41344e-20)
(-0.161278 0.00577453 -3.50587e-20)
(-0.000821582 0.00356586 9.65885e-21)
(-0.00392123 0.0089666 -1.60892e-20)
(-0.00952209 0.0130046 5.11841e-20)
(-0.0165683 0.0159505 -4.09448e-20)
(-0.0246536 0.017994 -1.06601e-20)
(-0.0334402 0.0193035 -2.8318e-21)
(-0.0426294 0.0200277 3.35009e-20)
(-0.0519872 0.0202942 2.37479e-20)
(-0.0613315 0.0202111 -4.19403e-20)
(-0.070523 0.0198672 1.75799e-20)
(-0.0794573 0.0193328 1.0742e-21)
(-0.0880569 0.0186608 -7.91886e-20)
(-0.0962641 0.0178885 -2.5986e-20)
(-0.104034 0.0170395 2.10611e-21)
(-0.11133 0.0161266 1.73141e-20)
(-0.118116 0.0151554 7.88693e-20)
(-0.124359 0.0141277 8.74376e-21)
(-0.130023 0.0130467 7.46615e-20)
(-0.13507 0.011924 7.45292e-20)
(-0.139469 0.0107869 -9.18969e-21)
(-0.143196 0.00968832 3.3473e-20)
(-0.14626 0.00871668 -1.27999e-20)
(-0.148735 0.0079953 4.24495e-20)
(-0.150676 0.00764988 1.41447e-19)
(-0.152215 0.00788164 2.20742e-20)
(-0.00101294 0.00452291 1.64316e-20)
(-0.00435087 0.0113848 -5.97606e-20)
(-0.0100409 0.0165256 7.71016e-20)
(-0.0170742 0.0202828 2.84135e-20)
(-0.0250643 0.0228941 2.22683e-20)
(-0.0336888 0.0245712 2.3681e-20)
(-0.0426606 0.025502 -1.25953e-19)
(-0.051754 0.0258483 4.68288e-20)
(-0.0607926 0.0257475 4.87106e-20)
(-0.0696407 0.0253128 -7.19667e-20)
(-0.0781959 0.024634 7.45116e-20)
(-0.0863814 0.023779 4.07423e-20)
(-0.0941393 0.0227957 5.03859e-20)
(-0.101424 0.0217148 -3.41246e-20)
(-0.108196 0.0205529 -7.57126e-21)
(-0.11442 0.0193168 1.65723e-19)
(-0.120057 0.0180081 -7.15446e-20)
(-0.125068 0.016629 5.54203e-20)
(-0.129409 0.0151909 -1.34075e-19)
(-0.133037 0.0137241 -5.40608e-20)
(-0.135912 0.0122911 5.12459e-20)
(-0.138016 0.0110012 8.95007e-20)
(-0.139408 0.0100174 1.51647e-20)
(-0.140101 0.00952141 -1.16379e-19)
(-0.140095 0.00978585 -8.1611e-20)
(-0.00124596 0.00543542 -6.46388e-20)
(-0.00487544 0.0136988 -2.08612e-20)
(-0.0106759 0.0199048 -4.57343e-20)
(-0.0176944 0.0244503 -4.42559e-20)
(-0.0255686 0.0276165 3.17457e-20)
(-0.0339938 0.0296556 -5.6707e-20)
(-0.042697 0.030792 -3.67794e-20)
(-0.0514626 0.0312201 -1.82793e-19)
(-0.0601212 0.0311054 8.01707e-21)
(-0.0685413 0.0305847 -1.85872e-21)
(-0.0766231 0.029767 -1.40112e-19)
(-0.0842904 0.0287351 -4.77795e-20)
(-0.0914848 0.0275477 -5.93512e-20)
(-0.0981592 0.0262424 1.14805e-19)
(-0.104273 0.0248399 3.31069e-20)
(-0.109786 0.0233483 -9.03733e-20)
(-0.114658 0.0217684 -1.00807e-19)
(-0.118844 0.0201005 2.79527e-20)
(-0.122293 0.0183538 1.10632e-19)
(-0.124948 0.016558 -2.39322e-20)
(-0.126752 0.0147805 -1.44585e-20)
(-0.127656 0.0131469 -6.81519e-20)
(-0.127698 0.0118597 -8.59007e-20)
(-0.126847 0.0111713 7.02066e-20)
(-0.12487 0.0114304 4.75446e-20)
(-0.00151683 0.00629546 3.35618e-20)
(-0.00548717 0.0158895 3.94521e-20)
(-0.0114185 0.0231155 -3.1108e-20)
(-0.0184214 0.028421 -6.4319e-20)
(-0.0261604 0.032126 1.00105e-20)
(-0.034351 0.0345193 7.54391e-20)
(-0.0427364 0.0358592 1.0842e-19)
(-0.0511126 0.0363706 1.48032e-19)
(-0.0593181 0.0362458 2.58162e-20)
(-0.0672265 0.0356444 3.40961e-20)
(-0.0747405 0.034694 4.13702e-20)
(-0.0817849 0.0334921 1.58343e-19)
(-0.0883003 0.032108 -9.12942e-21)
(-0.0942378 0.030587 -2.03068e-19)
(-0.0995534 0.0289538 1.46342e-19)
(-0.104204 0.0272178 5.81719e-20)
(-0.108146 0.025379 1.8427e-19)
(-0.111327 0.0234349 -7.53804e-20)
(-0.113688 0.0213902 -8.68198e-20)
(-0.115161 0.0192705 2.47618e-19)
(-0.115666 0.0171424 -8.31827e-20)
(-0.115125 0.0151406 -1.26958e-19)
(-0.113542 0.0135032 -3.39194e-20)
(-0.110868 0.0125697 -1.0663e-19)
(-0.106454 0.0127602 1.7761e-20)
(-0.00182127 0.00709625 8.34865e-21)
(-0.00617724 0.0179402 -1.63915e-20)
(-0.0122591 0.0261337 3.34362e-21)
(-0.0192465 0.0321657 -1.17134e-19)
(-0.0268328 0.0363897 -9.08835e-20)
(-0.0347557 0.0391268 -1.71558e-20)
(-0.0427762 0.0406664 -4.43125e-20)
(-0.050703 0.0412618 -8.06152e-20)
(-0.0583836 0.0411303 -1.81618e-20)
(-0.0656972 0.0404533 -8.99806e-21)
(-0.0725493 0.0393766 -8.53787e-20)
(-0.0788653 0.0380119 3.69131e-20)
(-0.0845845 0.0364396 2.77797e-20)
(-0.0896552 0.0347122 1.49128e-19)
(-0.0940298 0.0328591 -3.04209e-21)
(-0.097661 0.0308915 -9.02038e-20)
(-0.100498 0.0288084 -9.80902e-21)
(-0.102484 0.0266039 3.89854e-20)
(-0.10355 0.0242767 1.59829e-19)
(-0.103616 0.0218448 -1.1868e-19)
(-0.102583 0.0193674 3.12482e-19)
(-0.100337 0.0169791 1.30288e-19)
(-0.0968441 0.0149442 -9.83496e-20)
(-0.0920872 0.0137052 1.90068e-19)
(-0.0847141 0.0137238 1.10255e-19)
(-0.00215463 0.00783223 1.02199e-20)
(-0.00693609 0.0198368 5.17923e-20)
(-0.013187 0.0289384 1.46845e-19)
(-0.0201597 0.0356581 1.82922e-19)
(-0.0275777 0.0403771 1.08727e-19)
(-0.0352021 0.0434448 -7.62925e-20)
(-0.0428127 0.0451783 1.8573e-19)
(-0.0502321 0.0458568 2.10449e-20)
(-0.0573172 0.0457212 -1.10849e-19)
(-0.0639535 0.0449734 1.21756e-20)
(-0.0700492 0.0437766 2.0547e-19)
(-0.0755301 0.0422565 -2.19495e-19)
(-0.0803335 0.0405043 -1.2527e-19)
(-0.0844041 0.0385804 -2.54398e-20)
(-0.0876892 0.036519 -2.05309e-19)
(-0.0901354 0.0343336 -1.3377e-19)
(-0.091685 0.0320227 2.37105e-20)
(-0.0922724 0.0295769 -2.7848e-19)
(-0.0918201 0.026988 2.78515e-20)
(-0.0902355 0.0242633 -1.33191e-19)
(-0.0874032 0.021449 -1.649e-19)
(-0.0831722 0.0186689 1.53519e-19)
(-0.0774531 0.0161965 1.72517e-19)
(-0.0703829 0.0145911 -1.34204e-19)
(-0.0594571 0.0142999 1.84565e-19)
(-0.00251208 0.00849915 -1.22902e-19)
(-0.00775363 0.0215677 9.0094e-20)
(-0.014191 0.031512 -6.58695e-21)
(-0.0211504 0.0388753 3.59994e-20)
(-0.0283862 0.0440611 3.40609e-20)
(-0.0356832 0.0474427 1.52819e-19)
(-0.0428409 0.0493616 -1.10874e-19)
(-0.0496964 0.0501205 -2.06603e-19)
(-0.0561166 0.0499819 1.03472e-19)
(-0.0619933 0.0491672 9.65507e-20)
(-0.0672376 0.0478559 -3.25872e-19)
(-0.071775 0.0461875 2.29092e-19)
(-0.0755401 0.0442637 3.47717e-19)
(-0.0784725 0.0421531 2.36869e-20)
(-0.0805131 0.0398952 -6.12878e-20)
(-0.0816003 0.0375065 1.75876e-19)
(-0.0816672 0.0349857 -8.10926e-20)
(-0.0806381 0.0323204 3.63152e-19)
(-0.0784243 0.0294958 -3.20101e-19)
(-0.0749201 0.0265068 5.81813e-20)
(-0.0699946 0.0233815 -3.01905e-20)
(-0.0634677 0.0202234 -9.81687e-20)
(-0.0551534 0.0172855 -9.51922e-20)
(-0.0455565 0.0152363 7.83798e-20)
(-0.0304603 0.0146018 2.01616e-20)
(-0.00288876 0.00909416 8.02537e-20)
(-0.00861954 0.0231245 -5.77525e-20)
(-0.0152591 0.0338404 4.76811e-20)
(-0.0222073 0.0417982 -1.60643e-19)
(-0.0292484 0.0474179 -3.55086e-20)
(-0.0361909 0.0510928 1.80426e-20)
(-0.0428545 0.0531854 -4.08272e-20)
(-0.0490908 0.0540195 -6.75568e-20)
(-0.0547774 0.0538773 2.12432e-20)
(-0.059812 0.0529981 -1.12848e-19)
(-0.0641085 0.051577 2.10369e-19)
(-0.0675913 0.0497666 -4.83389e-20)
(-0.0701915 0.0476792 -1.23484e-19)
(-0.071842 0.0453915 -1.26369e-19)
(-0.072475 0.0429489 1.6729e-19)
(-0.0720182 0.0403716 9.06372e-20)
(-0.0703929 0.0376595 3.60762e-20)
(-0.0675101 0.0347988 -3.02796e-19)
(-0.0632672 0.0317686 3.15519e-19)
(-0.0575434 0.0285523 -1.03068e-19)
(-0.0501919 0.0251566 -4.79609e-20)
(-0.0410194 0.0216581 -3.71392e-20)
(-0.0296757 0.0182443 -4.11533e-20)
(-0.017229 0.0155694 1.32642e-19)
(0.00251298 0.0149097 -2.16943e-19)
(-0.00327992 0.00961582 -2.98214e-20)
(-0.00952357 0.0245017 1.28811e-19)
(-0.0163793 0.0359131 -1.84157e-19)
(-0.0233183 0.044411 7.38453e-20)
(-0.0301532 0.0504271 4.07261e-20)
(-0.0367156 0.0543704 -6.17124e-20)
(-0.0428449 0.0566215 1.79805e-19)
(-0.0484077 0.0575226 4.36812e-20)
(-0.0532916 0.0573738 2.04571e-20)
(-0.0574007 0.0564309 1.76482e-19)
(-0.0606507 0.0549036 -7.23163e-20)
(-0.0629645 0.0529566 7.64691e-20)
(-0.0642676 0.0507128 -8.12974e-20)
(-0.0644847 0.0482571 -5.15505e-21)
(-0.0635366 0.0456413 -8.86087e-20)
(-0.0613377 0.0428901 -3.06533e-19)
(-0.0577934 0.040006 6.31303e-20)
(-0.0527975 0.0369751 2.44677e-19)
(-0.0462295 0.033773 -8.44124e-20)
(-0.0379501 0.0303733 4.08292e-19)
(-0.0277915 0.0267621 -2.26454e-19)
(-0.0155785 0.0229842 -6.47168e-20)
(-0.000764775 0.0191472 -1.08724e-19)
(0.0150817 0.0158061 3.37242e-21)
(0.0400725 0.0150554 -9.72632e-20)
(-0.00368108 0.010064 -8.92518e-20)
(-0.0104558 0.0256966 -1.32787e-19)
(-0.0175397 0.0377234 -7.13031e-20)
(-0.0244709 0.0467022 6.70393e-20)
(-0.0310884 0.0530721 2.0934e-20)
(-0.0372456 0.0572543 1.20921e-20)
(-0.042801 0.0596447 4.62217e-20)
(-0.0476356 0.0606013 -2.25168e-19)
(-0.0516471 0.0604404 7.44384e-20)
(-0.054745 0.0594325 -1.54174e-19)
(-0.0568465 0.0578008 -5.58779e-20)
(-0.0578711 0.0557217 -7.54359e-20)
(-0.0577376 0.0533282 -1.59725e-19)
(-0.0563599 0.0507132 3.28288e-19)
(-0.0536445 0.0479356 1.86202e-19)
(-0.0494885 0.0450252 5.00795e-20)
(-0.0437774 0.0419885 1.56265e-19)
(-0.0363829 0.0388136 -2.26158e-19)
(-0.027161 0.0354756 -5.57272e-20)
(-0.01595 0.0319424 -2.65362e-19)
(-0.00255065 0.0281831 1.02275e-19)
(0.0131706 0.0242192 2.2489e-19)
(0.0320228 0.0200638 1.02824e-19)
(0.0516063 0.0162228 -1.94135e-19)
(0.0829994 0.0149176 2.42596e-19)
(-0.00408813 0.01044 -3.17856e-20)
(-0.0114067 0.0267096 8.29149e-21)
(-0.0187283 0.0392681 9.03129e-20)
(-0.0256522 0.048664 1.6121e-19)
(-0.0320406 0.0553402 -1.07898e-19)
(-0.037767 0.0597272 1.04029e-19)
(-0.0427082 0.0622332 -8.1615e-20)
(-0.0467587 0.0632302 3.08349e-19)
(-0.0498256 0.0630486 -2.16131e-19)
(-0.0518232 0.0619722 4.64944e-20)
(-0.0526684 0.0602365 2.00611e-19)
(-0.0522765 0.0580289 -2.76718e-20)
(-0.0505568 0.0554916 2.15388e-20)
(-0.0474096 0.0527261 -2.66873e-19)
(-0.0427239 0.0497982 -2.26165e-19)
(-0.0363752 0.0467441 -8.6317e-21)
(-0.0282239 0.0435753 -2.49107e-19)
(-0.0181141 0.0402842 9.11448e-20)
(-0.00587175 0.0368485 -1.26939e-19)
(0.00869113 0.0332355 1.66111e-19)
(0.0258242 0.0294053 -2.24287e-19)
(0.045563 0.0253675 1.34723e-19)
(0.0691909 0.0210202 -1.12585e-19)
(0.0927864 0.0168603 1.52502e-19)
(0.131913 0.0148943 -8.85294e-21)
(-0.00449747 0.0107462 1.74215e-19)
(-0.0123675 0.0275434 4.41745e-20)
(-0.0199335 0.0405473 -1.00009e-19)
(-0.0268485 0.0502924 -1.20016e-19)
(-0.0329945 0.0572226 8.09882e-20)
(-0.0382632 0.0617753 -2.96896e-19)
(-0.0425478 0.0643689 4.23184e-19)
(-0.0457554 0.0653875 8.23025e-20)
(-0.0478014 0.0651736 1.36416e-19)
(-0.0486036 0.064023 1.66671e-19)
(-0.0480774 0.0621822 1.05034e-19)
(-0.046131 0.0598487 -7.86972e-20)
(-0.042662 0.0571738 -2.65101e-21)
(-0.0375536 0.0542671 -3.84814e-20)
(-0.0306731 0.0512019 -1.14881e-19)
(-0.0218696 0.0480213 2.57427e-19)
(-0.0109733 0.0447435 5.24846e-19)
(0.00220577 0.041367 3.12845e-20)
(0.0178781 0.0378755 1.81104e-19)
(0.03626 0.0342407 -9.41983e-20)
(0.0576802 0.0304231 1.14149e-19)
(0.0819808 0.026427 -6.70069e-19)
(0.111247 0.0220811 3.1824e-19)
(0.13911 0.0177533 1.96494e-19)
(0.187464 0.0153244 -1.30892e-19)
(-0.00490609 0.0109861 -1.04457e-19)
(-0.0133305 0.0282033 -1.79553e-19)
(-0.021144 0.0415644 1.72236e-19)
(-0.0280455 0.0515871 1.12819e-19)
(-0.0339331 0.0587143 6.06436e-20)
(-0.0387138 0.0633889 2.147e-19)
(-0.0422956 0.0660378 -2.22796e-19)
(-0.0445968 0.0670554 -2.05434e-19)
(-0.0455394 0.0667947 -1.34849e-19)
(-0.045043 0.0655622 -3.16583e-19)
(-0.043019 0.0636142 6.12076e-20)
(-0.0393662 0.0611574 -2.49655e-20)
(-0.0339668 0.0583518 4.51158e-19)
(-0.0266832 0.055315 1.85775e-19)
(-0.0173559 0.0521283 1.33531e-19)
(-0.00580279 0.0488426 -4.19603e-20)
(0.00818217 0.0454839 -2.4056e-19)
(0.0248282 0.0420591 -1.94818e-19)
(0.044389 0.0385609 -2.27952e-19)
(0.0671054 0.0349691 1.63241e-19)
(0.0934253 0.0312572 3.07767e-19)
(0.12285 0.0274133 3.44236e-19)
(0.158714 0.0233222 -3.24514e-19)
(0.191026 0.0189617 1.39799e-19)
(0.250239 0.0164969 1.87677e-19)
(-0.00531162 0.011164 -2.74987e-19)
(-0.0142884 0.0286966 1.53059e-19)
(-0.0223485 0.0423257 -2.61013e-19)
(-0.0292278 0.052551 3.20729e-19)
(-0.0348364 0.0598142 -3.06503e-19)
(-0.039094 0.0645627 -9.17428e-20)
(-0.0419211 0.0672305 -1.70925e-19)
(-0.0432451 0.0682209 9.61121e-20)
(-0.0429927 0.0678964 -1.64549e-19)
(-0.0410828 0.0665726 1.79964e-19)
(-0.03742 0.0645147 -2.36034e-19)
(-0.0318904 0.061938 -1.75074e-19)
(-0.0243564 0.0590107 6.08939e-21)
(-0.0146549 0.0558586 -2.68746e-19)
(-0.00259475 0.0525715 5.69312e-21)
(0.0120434 0.0492089 -2.72002e-19)
(0.0295068 0.0458064 -1.66814e-20)
(0.0500682 0.0423812 -2.96696e-19)
(0.0740297 0.038938 1.03711e-19)
(0.101643 0.0354658 4.51495e-19)
(0.133527 0.0319726 -4.34351e-19)
(0.168633 0.0283752 2.13352e-19)
(0.212099 0.0248546 2.34409e-19)
(0.248926 0.0205459 -1.1247e-19)
(0.320592 0.0186785 4.51855e-20)
(-0.00571232 0.0112849 1.42508e-19)
(-0.015235 0.0290323 -4.02083e-20)
(-0.0235359 0.0428397 8.85029e-20)
(-0.0303789 0.0531903 -2.58004e-19)
(-0.0356817 0.060525 4.13376e-19)
(-0.0393739 0.0652953 2.69577e-20)
(-0.0413859 0.067942 2.98782e-19)
(-0.0416519 0.0688763 -1.55863e-19)
(-0.0401006 0.068469 1.05623e-19)
(-0.0366468 0.0670438 1.38948e-19)
(-0.0311852 0.064874 1.27382e-19)
(-0.0235842 0.0621828 4.03004e-19)
(-0.0136821 0.0591466 -1.01992e-19)
(-0.00128465 0.0559 -1.02702e-19)
(0.0138366 0.0525416 -8.04366e-20)
(0.0319432 0.0491411 -7.13536e-21)
(0.0533281 0.0457454 -1.6933e-19)
(0.0783088 0.0423839 1.49555e-19)
(0.107238 0.0390771 -2.00697e-19)
(0.140353 0.0358195 8.23965e-20)
(0.178494 0.0326909 -1.17066e-19)
(0.219809 0.0294124 1.5091e-20)
(0.271823 0.0268453 -5.48978e-19)
(0.313106 0.0225921 5.85294e-20)
(0.398477 0.0220954 -1.82187e-21)
(-0.00610707 0.0113544 1.89941e-19)
(-0.0161648 0.0292203 -1.28175e-19)
(-0.0246949 0.0431171 -9.03357e-20)
(-0.0314801 0.0535139 -5.46097e-20)
(-0.0364422 0.0608526 -1.78737e-19)
(-0.0395171 0.0655897 -3.0159e-19)
(-0.0406426 0.0681726 -9.84458e-20)
(-0.0397563 0.0690199 3.36742e-19)
(-0.0367857 0.0685098 -1.05167e-19)
(-0.0316379 0.0669734 -2.27322e-19)
(-0.0241927 0.0646916 -1.37304e-19)
(-0.014296 0.0618953 -4.12116e-19)
(-0.00175619 0.0587694 -4.48965e-19)
(0.013658 0.0554575 3.37248e-19)
(0.0322176 0.0520688 6.93733e-20)
(0.0542308 0.0486846 5.54439e-20)
(0.0800377 0.0453651 5.79765e-19)
(0.109997 0.042154 8.82436e-20)
(0.144507 0.0390916 5.56325e-19)
(0.183751 0.0361672 -6.66483e-19)
(0.228829 0.0335937 3.1169e-19)
(0.276827 0.0306913 -2.81893e-19)
(0.338101 0.0295104 4.42102e-19)
(0.383703 0.0252565 -6.63805e-19)
(0.483268 0.0269123 1.38145e-19)
(-0.00649531 0.0113781 -4.81755e-20)
(-0.0170727 0.0292715 -1.02355e-19)
(-0.0258133 0.0431699 -9.4313e-20)
(-0.0325107 0.0535329 3.2119e-20)
(-0.0370864 0.0608064 -5.06046e-20)
(-0.03948 0.0654532 1.90929e-19)
(-0.0396328 0.0679279 -6.83733e-20)
(-0.0374829 0.0686563 -1.44336e-19)
(-0.0329521 0.0680238 -5.91139e-20)
(-0.0259351 0.0663684 2.9769e-21)
(-0.0162912 0.0639783 3.79026e-19)
(-0.00383806 0.0610926 -3.32568e-19)
(0.0116521 0.057905 4.83702e-19)
(0.0304533 0.0545695 -1.39993e-19)
(0.0528836 0.0512074 -2.43722e-19)
(0.0792994 0.0479137 2.01867e-19)
(0.110085 0.044764 -2.21433e-19)
(0.14563 0.041818 -3.74201e-19)
(0.186358 0.0391408 -1.39421e-19)
(0.232349 0.0366955 1.31102e-19)
(0.284952 0.034912 2.09371e-19)
(0.34002 0.0324524 4.06206e-19)
(0.410799 0.0330782 2.35779e-20)
(0.460574 0.0287839 2.81004e-19)
(0.573601 0.0332169 -9.11864e-20)
(-0.00687689 0.0113616 -2.35962e-20)
(-0.0179537 0.0291967 2.23901e-19)
(-0.0268781 0.0430107 2.31245e-19)
(-0.0334466 0.0532602 -1.03711e-19)
(-0.0375774 0.0603986 7.28387e-20)
(-0.0392102 0.0648973 -2.70876e-19)
(-0.0382864 0.0672191 5.39168e-20)
(-0.0347401 0.0677975 4.35341e-20)
(-0.0284826 0.0670249 -1.26939e-19)
(-0.0193906 0.0652466 -3.49623e-20)
(-0.00729674 0.0627583 -4.75099e-19)
(0.00801633 0.0598078 1.51189e-19)
(0.0268186 0.0565988 -2.28172e-20)
(0.0494316 0.0532977 -5.37624e-21)
(0.0762225 0.0500394 -2.19556e-20)
(0.107593 0.0469351 -4.3407e-21)
(0.14396 0.0440778 -1.93921e-20)
(0.18572 0.0415436 2.59666e-19)
(0.233288 0.0394272 -2.30766e-19)
(0.286582 0.0376366 2.10217e-19)
(0.347096 0.0369016 -3.09991e-19)
(0.409474 0.0350015 -1.49368e-19)
(0.489294 0.0377391 4.30909e-20)
(0.543118 0.0334733 -2.40828e-19)
(0.667305 0.0409999 -7.87092e-20)
(-0.00725191 0.0113101 -2.23997e-19)
(-0.0188028 0.0290066 -2.82138e-20)
(-0.0278743 0.0426529 -2.85659e-19)
(-0.0342601 0.0527101 -2.29664e-19)
(-0.0378717 0.0596442 3.04377e-19)
(-0.0386456 0.0639376 2.08587e-19)
(-0.0365193 0.0660632 -9.21071e-20)
(-0.0314181 0.0664628 -8.25332e-20)
(-0.0232371 0.0655368 -6.15091e-20)
(-0.0118283 0.063638 5.31529e-19)
(0.00300906 0.0610705 2.0453e-19)
(0.0215339 0.058092 2.88926e-19)
(0.0440637 0.0549183 -1.59883e-20)
(0.0709698 0.0517296 5.61492e-20)
(0.102666 0.0486772 1.55629e-19)
(0.139587 0.04589 -3.65077e-19)
(0.182161 0.0434799 5.76824e-19)
(0.230751 0.0415374 6.09575e-20)
(0.285701 0.0401891 -1.87961e-19)
(0.346706 0.0392582 -2.83741e-19)
(0.415189 0.0398103 -1.5341e-19)
(0.48487 0.0386735 3.41965e-19)
(0.572379 0.0436041 -1.12937e-20)
(0.630092 0.0395916 1.7913e-19)
(0.761489 0.0501282 2.15627e-19)
(-0.00762052 0.0112283 1.70852e-19)
(-0.0196141 0.0287109 1.78903e-20)
(-0.0287849 0.0421093 -3.85378e-20)
(-0.0349189 0.0518979 4.05627e-20)
(-0.0379185 0.0585603 -2.89434e-19)
(-0.0377134 0.0625938 3.85659e-19)
(-0.0342331 0.0644831 -9.16661e-22)
(-0.0273882 0.06468 3.14579e-19)
(-0.0170512 0.0635938 1.34254e-20)
(-0.00304255 0.0615859 -1.0784e-19)
(0.014879 0.0589705 1.69917e-19)
(0.0370197 0.0560168 -5.70979e-19)
(0.0637474 0.0529547 -3.52269e-19)
(0.0954811 0.0499807 -1.75659e-19)
(0.13267 0.0472645 -7.58028e-20)
(0.17576 0.0449537 6.85988e-21)
(0.22515 0.0431777 -3.74106e-19)
(0.28111 0.0420372 1.42202e-19)
(0.343819 0.041684 5.4687e-19)
(0.412687 0.0418416 1.50424e-19)
(0.488748 0.0438479 3.6415e-19)
(0.565321 0.043766 -3.60127e-19)
(0.658272 0.0506871 -8.39886e-20)
(0.719497 0.0472688 -1.42582e-19)
(0.852819 0.0603188 -7.54523e-19)
(-0.00798266 0.0111203 -1.6008e-19)
(-0.0203804 0.0283182 8.12075e-20)
(-0.0295894 0.041392 1.44462e-19)
(-0.0353853 0.0508391 5.0253e-19)
(-0.0376586 0.0571662 1.89316e-19)
(-0.0363294 0.0608893 -4.20589e-19)
(-0.0313136 0.0625078 -1.06159e-19)
(-0.0225015 0.0624853 -5.57518e-20)
(-0.00973606 0.0612413 -1.83739e-19)
(0.00720127 0.0591481 -6.02175e-20)
(0.0285983 0.0565315 -1.24673e-19)
(0.0548122 0.0536749 4.55598e-19)
(0.0862599 0.0508244 5.44368e-19)
(0.123398 0.0481952 2.74143e-19)
(0.16669 0.0459759 -1.40068e-19)
(0.216553 0.0443318 -9.8251e-20)
(0.273295 0.0434057 2.16236e-19)
(0.33701 0.0432984 -4.8884e-20)
(0.407586 0.0441672 -3.5824e-21)
(0.484092 0.0456473 1.18876e-19)
(0.566811 0.0491638 -1.70389e-19)
(0.649282 0.0504551 -2.95714e-19)
(0.744711 0.058899 -1.97688e-19)
(0.808632 0.0564218 2.49843e-19)
(0.937951 0.0711381 7.93172e-19)
(-0.00833781 0.0109888 1.27746e-19)
(-0.0210928 0.0278351 4.34521e-19)
(-0.0302639 0.0405122 1.73857e-19)
(-0.0356154 0.0495495 -1.54103e-19)
(-0.0370242 0.0554826 2.15071e-19)
(-0.0343967 0.0588513 2.37032e-19)
(-0.0276308 0.0601723 2.65941e-19)
(-0.0165895 0.0599233 -1.49597e-20)
(-0.00107906 0.0585366 2.09458e-19)
(0.0191643 0.0563972 -6.45365e-19)
(0.0444795 0.0538454 3.65421e-19)
(0.0752741 0.051181 -1.94472e-19)
(0.112006 0.0486689 -4.91937e-19)
(0.155149 0.0465438 -3.57519e-19)
(0.205141 0.0450123 5.83556e-19)
(0.262312 0.0442527 -2.00269e-19)
(0.326794 0.0444109 -9.87893e-20)
(0.398398 0.0455731 7.62043e-20)
(0.476581 0.0478649 -3.85455e-19)
(0.559997 0.0508691 3.1342e-19)
(0.647903 0.0558298 -5.0584e-20)
(0.73457 0.0587312 3.67553e-19)
(0.829145 0.0680421 4.26083e-19)
(0.89438 0.0667422 -1.4595e-19)
(1.014 0.082043 -2.9044e-19)
(-0.00868471 0.0108358 -6.65951e-20)
(-0.0217398 0.0272667 -2.46524e-19)
(-0.0307803 0.0394799 6.47799e-21)
(-0.0355587 0.0480441 -1.24568e-19)
(-0.0359376 0.0535319 -3.67206e-19)
(-0.0318063 0.0565106 -1.90078e-19)
(-0.0230388 0.0575177 1.04618e-19)
(-0.0094644 0.0570478 -3.26566e-19)
(0.00915378 0.0555487 2.57836e-20)
(0.0331299 0.053421 1.61014e-19)
(0.0628545 0.0510222 -4.63223e-19)
(0.0987787 0.0486711 -1.52539e-19)
(0.141383 0.0466528 3.94047e-19)
(0.191122 0.0452202 2.66724e-19)
(0.248352 0.044594 -3.45463e-19)
(0.313233 0.0449551 3.7147e-19)
(0.38561 0.0464351 1.54866e-19)
(0.464887 0.0490842 -3.90364e-20)
(0.549956 0.0529456 -3.37014e-20)
(0.638974 0.0575897 -3.32995e-19)
(0.730091 0.0638201 3.67687e-20)
(0.818555 0.0683795 -6.27347e-20)
(0.908988 0.0778092 -3.33612e-19)
(0.973662 0.0777533 -2.45536e-19)
(1.07891 0.0924599 -2.28619e-19)
(-0.00902117 0.0106618 -4.18807e-20)
(-0.022307 0.0266161 -5.47818e-19)
(-0.0311048 0.0383026 -3.38635e-19)
(-0.0351574 0.0463377 -4.32044e-19)
(-0.0343117 0.0513375 3.82128e-19)
(-0.0284367 0.0539012 3.08096e-20)
(-0.0173769 0.0545907 2.77396e-19)
(-0.000921789 0.0539211 -2.53846e-19)
(0.0212138 0.0523583 4.22779e-19)
(0.0493961 0.050322 1.58599e-19)
(0.0840623 0.0481896 1.29657e-20)
(0.125691 0.0463007 -2.49365e-20)
(0.174753 0.0449597 -8.81429e-20)
(0.23163 0.0444344 -7.66818e-20)
(0.296517 0.0449491 8.22397e-20)
(0.369296 0.0466711 1.1647e-19)
(0.449399 0.0496914 -7.40875e-19)
(0.535696 0.0539952 4.64117e-20)
(0.626412 0.0594906 -1.22519e-19)
(0.71915 0.0657536 -1.13393e-19)
(0.811104 0.0729916 5.70478e-20)
(0.898471 0.0790103 -3.69128e-19)
(0.98192 0.0878071 1.67589e-19)
(1.04392 0.0889225 2.1255e-19)
(1.13163 0.101879 -4.83292e-19)
(-0.00934359 0.0104663 9.78363e-20)
(-0.022777 0.0258843 3.96491e-19)
(-0.0311982 0.0369863 3.42195e-20)
(-0.0343459 0.0444444 6.27754e-19)
(-0.0320496 0.0489237 -3.9862e-19)
(-0.0241546 0.0510602 3.90834e-19)
(-0.0104709 0.0514439 -3.50659e-19)
(0.00925651 0.0506137 1.38228e-19)
(0.035364 0.0490575 -1.78645e-19)
(0.0682665 0.0472168 2.35911e-19)
(0.108435 0.0454911 3.91563e-19)
(0.156346 0.0442409 2.03027e-19)
(0.212411 0.0437869 8.13785e-20)
(0.276866 0.0444024 8.89518e-20)
(0.349639 0.0462992 -6.77649e-20)
(0.43021 0.0496059 -5.44841e-20)
(0.51747 0.0543389 6.04534e-19)
(0.609642 0.0603826 1.98985e-19)
(0.704255 0.0674691 5.51233e-19)
(0.79836 0.0751639 1.43513e-20)
(0.888555 0.0830811 -3.47569e-19)
(0.971795 0.0901204 4.32965e-19)
(1.04618 0.0976232 5.45633e-19)
(1.10345 0.0997932 7.06364e-20)
(1.17204 0.109905 4.7545e-19)
(-0.00964686 0.0102477 -2.77587e-19)
(-0.023128 0.0250697 1.53859e-19)
(-0.031016 0.0355357 3.38271e-19)
(-0.0330511 0.0423778 -1.33163e-19)
(-0.0290451 0.0463162 -3.96455e-19)
(-0.0188161 0.048028 -2.92955e-20)
(-0.00213611 0.0481353 2.14726e-20)
(0.0212978 0.0472044 3.85042e-20)
(0.0518712 0.0457486 -2.47094e-19)
(0.0900376 0.0442339 -1.04782e-19)
(0.136276 0.0430827 -3.65689e-19)
(0.191021 0.042674 -9.06806e-21)
(0.254551 0.0433366 -1.02954e-19)
(0.326857 0.0453343 -3.12215e-20)
(0.407483 0.0488419 2.73198e-19)
(0.495375 0.0539157 -4.0044e-19)
(0.588768 0.0604587 1.68694e-19)
(0.685184 0.0682161 -2.66809e-19)
(0.781506 0.0767257 -3.98482e-19)
(0.874362 0.0855057 7.3695e-20)
(0.960209 0.0937266 7.41622e-19)
(1.03659 0.101168 -3.75793e-19)
(1.10076 0.10693 1.63704e-20)
(1.15146 0.110065 3.25902e-19)
(1.20081 0.116183 1.82903e-19)
(-0.00992373 0.0100025 1.30734e-19)
(-0.0233341 0.0241697 -1.85664e-19)
(-0.0305071 0.0339539 -3.93582e-19)
(-0.0311922 0.0401512 -2.09253e-19)
(-0.0251831 0.0435417 2.28821e-19)
(-0.0122688 0.044848 7.79068e-20)
(0.00781988 0.0447282 4.55619e-19)
(0.0354328 0.0437794 1.84913e-19)
(0.0709971 0.0425434 1.16967e-19)
(0.114985 0.0415122 5.45287e-20)
(0.167846 0.0411296 3.78051e-19)
(0.229906 0.0417864 1.71053e-19)
(0.301225 0.0438061 -1.41695e-19)
(0.38143 0.0474197 2.02782e-19)
(0.469549 0.052732 -1.16937e-19)
(0.563875 0.0596874 1.4855e-19)
(0.661919 0.0680354 -1.44214e-19)
(0.760525 0.0773517 -3.14192e-19)
(0.856092 0.0869872 4.56985e-19)
(0.945081 0.0963886 -4.77911e-19)
(1.02426 0.10451 1.35211e-19)
(1.09173 0.111658 -1.56191e-19)
(1.14545 0.115585 -1.18018e-19)
(1.18797 0.119462 -9.72962e-19)
(1.2194 0.120169 1.55418e-19)
(-0.0101653 0.00972784 2.67288e-20)
(-0.0233646 0.0231802 1.33025e-19)
(-0.0296147 0.0322429 4.41569e-19)
(-0.0286814 0.0377776 -1.04175e-19)
(-0.0203415 0.0406282 -4.54042e-20)
(-0.00435336 0.0415669 8.44608e-20)
(0.0195928 0.041291 7.53174e-20)
(0.0518887 0.0404318 -2.96948e-19)
(0.0929875 0.0395617 -1.37982e-19)
(0.143347 0.0391979 -4.26072e-19)
(0.203333 0.0398009 -3.21853e-19)
(0.27308 0.0417615 -2.29639e-19)
(0.352317 0.0453764 2.05243e-19)
(0.44018 0.0508123 -2.99736e-19)
(0.535054 0.0580641 -1.44379e-19)
(0.634497 0.066922 -6.32167e-20)
(0.735302 0.0769496 -4.5649e-20)
(0.833764 0.0875405 9.40634e-19)
(0.926061 0.0978939 5.99329e-20)
(1.00884 0.1074 -8.27964e-20)
(1.07953 0.115013 -4.67293e-19)
(1.13697 0.121239 1.51919e-19)
(1.18065 0.12361 1.58235e-20)
(1.21377 0.127337 5.59449e-19)
(1.23046 0.121491 6.28337e-20)
(-0.0103613 0.00941944 2.11093e-19)
(-0.0231844 0.0220956 -2.03006e-19)
(-0.0282754 0.0304046 -3.08332e-19)
(-0.0254241 0.035271 3.09706e-19)
(-0.0143919 0.0376061 -6.92157e-20)
(0.00509298 0.038235 -6.00239e-20)
(0.0333771 0.0378974 5.22893e-20)
(0.0708818 0.0372612 -7.49094e-20)
(0.11806 0.0369292 1.88019e-19)
(0.175309 0.0374412 1.21986e-19)
(0.242836 0.0392641 3.16108e-19)
(0.320481 0.04277 -8.49731e-21)
(0.407517 0.0481993 2.59439e-19)
(0.502461 0.055615 -1.73844e-20)
(0.602956 0.0648582 2.77241e-19)
(0.705806 0.075527 8.07549e-20)
(0.807187 0.0869836 -5.21493e-19)
(0.903083 0.0984543 -2.54309e-19)
(0.989788 0.109047 -6.18581e-20)
(1.06449 0.118153 1.68079e-19)
(1.12557 0.124871 -7.987e-20)
(1.17276 0.129775 -2.83815e-19)
(1.20708 0.130917 3.72263e-20)
(1.23042 0.132841 -2.62338e-19)
(1.24336 0.126556 -1.2698e-19)
(-0.010499 0.00907245 1.29254e-19)
(-0.0227545 0.0209107 1.38021e-19)
(-0.0264206 0.0284412 2.52993e-19)
(-0.0213204 0.0326467 -1.84347e-19)
(-0.00720179 0.0345084 1.34187e-20)
(0.0162337 0.0349069 3.69421e-19)
(0.0493603 0.0346266 -1.05924e-19)
(0.0926085 0.0343725 -3.53693e-19)
(0.146392 0.0347766 -2.09724e-19)
(0.210984 0.0363928 2.8057e-19)
(0.286339 0.0396788 -5.84939e-19)
(0.371886 0.0449611 2.28518e-21)
(0.466309 0.0523859 -5.02856e-20)
(0.567393 0.0618675 3.72102e-19)
(0.671997 0.0730514 -2.02584e-19)
(0.776238 0.0853197 2.7846e-19)
(0.875883 0.0978424 2.81834e-19)
(0.96692 0.109724 -4.97963e-19)
(1.04612 0.120062 -2.07857e-19)
(1.11154 0.12833 -1.7283e-19)
(1.16258 0.133843 2.63957e-19)
(1.20004 0.137288 4.18566e-19)
(1.22573 0.137148 1.9507e-19)
(1.24174 0.13757 -1.73482e-19)
(1.25049 0.130946 -3.1355e-19)
(-0.0105638 0.00868224 -3.05134e-20)
(-0.0220315 0.0196208 1.29132e-19)
(-0.0239768 0.0263564 -2.56714e-19)
(-0.0162656 0.0299223 -3.94323e-19)
(0.00136352 0.0313715 -5.84713e-19)
(0.029229 0.0316418 9.95834e-20)
(0.0677172 0.0315628 -1.17638e-19)
(0.117237 0.031876 1.725e-19)
(0.178109 0.0332363 6.41751e-20)
(0.250398 0.0361991 1.23796e-19)
(0.3337 0.0411892 1.37745e-19)
(0.4269 0.0484521 -7.60701e-20)
(0.527972 0.0579951 -1.10132e-19)
(0.633899 0.0695381 -2.4759e-19)
(0.740788 0.082499 7.55443e-20)
(0.844235 0.0960427 -2.96105e-19)
(0.939891 0.109186 1.09236e-19)
(1.02411 0.120984 7.04588e-20)
(1.09447 0.130614 -2.93887e-19)
(1.15004 0.137704 -3.17218e-19)
(1.19132 0.141828 -1.69969e-19)
(1.21995 0.143793 9.64722e-21)
(1.2383 0.142458 5.32307e-20)