/*--------------------------------*- C++ -*----------------------------------*\
  =========                 |
  \\      /  F ield         | OpenFOAM: The Open Source CFD Toolbox
   \\    /   O peration     | Website:  https://openfoam.org
    \\  /    A nd           | Version:  7
     \\/     M anipulation  |
\*---------------------------------------------------------------------------*/
FoamFile
{
    version     2.0;
    format      ascii;
    class       volScalarField;
    location    "105";
    object      p;
}
// * * * * * * * * * * * * * * * * * * * * * * * * * * * * * * * * * * * * * //

dimensions      [0 2 -2 0 0 0 0];

internalField   nonuniform List<scalar> 
1989
(
0.0714385
0.0700903
0.0672642
0.0630497
0.057496
0.0505692
0.0421059
0.0317498
0.0189504
0.0031512
-0.0158418
-0.0374608
-0.0599742
-0.0802358
-0.0943275
-0.099507
-0.095807
-0.0855603
-0.0718127
-0.0570461
-0.0428091
-0.029843
-0.0183838
-0.00841158
0.000211585
0.0076539
0.0140549
0.0195302
0.0242035
-0.171576
-0.166104
-0.159206
-0.150925
-0.141359
-0.130656
-0.119004
-0.106616
-0.0937149
-0.0805232
-0.067249
-0.0540785
-0.0411708
-0.0286554
-0.0166336
-0.00518037
0.00565043
0.0158216
0.025307
0.0340864
0.0421412
0.0494504
0.0559792
0.0616585
0.0663595
0.0698918
0.0720537
0.0727433
0.0719417
0.0696903
0.0660407
0.0610033
0.0545033
0.0463475
0.0361934
0.0235748
0.00806895
-0.0103959
-0.0311623
-0.0524254
-0.0710937
-0.0836648
-0.0879853
-0.0843636
-0.0750148
-0.062638
-0.0493641
-0.0365029
-0.0246899
-0.0141431
-0.00486829
0.00323205
0.0102896
0.0164151
0.0216977
0.0262369
-0.160408
-0.15512
-0.148563
-0.140771
-0.131826
-0.121851
-0.111006
-0.0994703
-0.0874384
-0.0751037
-0.0626509
-0.0502479
-0.0380413
-0.0261535
-0.0146829
-0.00370583
0.00672052
0.0165539
0.0257625
0.0343209
0.0422053
0.0493889
0.0558342
0.0614776
0.0662063
0.0698668
0.072296
0.0733788
0.0730656
0.0713591
0.0682698
0.0637624
0.0577145
0.0499022
0.0400058
0.0276519
0.0125524
-0.00523335
-0.0249315
-0.0446847
-0.0615849
-0.0726283
-0.0761801
-0.0727742
-0.0644434
-0.0535025
-0.0417376
-0.0302453
-0.0195738
-0.00993231
-0.00135407
0.00621872
0.0128819
0.0187199
0.0237971
0.0281878
-0.149808
-0.144716
-0.138492
-0.131164
-0.122801
-0.113506
-0.103412
-0.0926737
-0.0814577
-0.0699326
-0.0582617
-0.0465961
-0.03507
-0.0237983
-0.0128761
-0.00237952
0.00763198
0.0171122
0.0260247
0.0343391
0.042027
0.0490573
0.0553897
0.0609626
0.0656734
0.0694037
0.0720187
0.0734054
0.0734958
0.0722622
0.0696794
0.065671
0.0600721
0.0526359
0.0430717
0.0310998
0.0165651
-0.000335881
-0.0187238
-0.036754
-0.0517878
-0.0613291
-0.0642632
-0.061225
-0.0540058
-0.0445266
-0.0342525
-0.0240964
-0.0145373
-0.0057823
0.00210804
0.00915393
0.0154171
0.0209577
0.0258181
0.0300481
-0.139746
-0.134859
-0.128961
-0.122076
-0.11426
-0.1056
-0.0962083
-0.0862161
-0.0757664
-0.0650062
-0.0540795
-0.0431217
-0.0322553
-0.0215875
-0.0112093
-0.00119565
0.00839258
0.0175063
0.0261054
0.0341553
0.0416234
0.0484752
0.054669
0.0601461
0.0648033
0.0685562
0.07129
0.0728986
0.0733038
0.0724552
0.0703002
0.0667328
0.0615624
0.0545348
0.0453947
0.0339499
0.0201692
0.00437511
-0.0124787
-0.0286284
-0.0417777
-0.0499559
-0.0524476
-0.0499199
-0.0438655
-0.0358285
-0.0269912
-0.0181133
-0.00962098
-0.00172277
0.0054955
0.0120203
0.0178818
0.0231174
0.0277512
0.0318104
-0.130193
-0.12552
-0.119942
-0.11348
-0.10618
-0.0981148
-0.0893797
-0.0800862
-0.0703569
-0.0603196
-0.050101
-0.039822
-0.0295943
-0.0195171
-0.00967697
-0.000147029
0.00901154
0.0177477
0.0260184
0.0337855
0.0410133
0.0476643
0.0536968
0.0590617
0.0636326
0.0673712
0.0701717
0.071935
0.0725778
0.0720337
0.0702296
0.0670438
0.0622798
0.0556969
0.0470817
0.0363214
0.023491
0.00901364
-0.00612922
-0.0203338
-0.0316977
-0.0387252
-0.0409779
-0.0390667
-0.0341766
-0.0275152
-0.0200269
-0.0123479
-0.00486234
0.00221825
0.00878684
0.0148011
0.0202629
0.0251891
0.0295883
0.0334683
-0.121123
-0.116671
-0.111407
-0.105349
-0.098536
-0.0910299
-0.0829101
-0.0742718
-0.0652202
-0.0558662
-0.0463212
-0.036693
-0.0270827
-0.0175821
-0.00827268
0.000774722
0.00949939
0.0178492
0.025779
0.0332479
0.0402172
0.0466474
0.052497
0.0577458
0.0621919
0.0658897
0.0687182
0.070585
0.0714061
0.0711049
0.0695954
0.066751
0.0623872
0.0562931
0.0483045
0.0383778
0.0266709
0.0136684
0.000314311
-0.0120106
-0.0217904
-0.0279134
-0.0301019
-0.0288538
-0.0250699
-0.0196751
-0.0134213
-0.00684458
-0.000294873
0.00601515
0.0119621
0.0174807
0.0225484
0.0271636
0.031322
0.035016
-0.11251
-0.108284
-0.103327
-0.0976568
-0.0913056
-0.0843252
-0.076783
-0.0687599
-0.0603464
-0.0516386
-0.0427343
-0.0337294
-0.0247152
-0.0157762
-0.00698879
0.00157905
0.00986772
0.0178248
0.0254037
0.0325617
0.0392577
0.045449
0.0510855
0.0560824
0.0605046
0.0641509
0.0669784
0.0689105
0.0698666
0.0697657
0.068517
0.065998
0.0620467
0.056492
0.0492198
0.0402439
0.0297755
0.0183116
0.00670203
-0.00391485
-0.0123592
-0.0178
-0.0200351
-0.0194296
-0.0166428
-0.012374
-0.00722154
-0.00163956
0.0040529
0.00964527
0.0150034
0.0200449
0.0247275
0.0290331
0.0329467
0.0364492
-0.104331
-0.100333
-0.0956782
-0.0903795
-0.0844659
-0.0779809
-0.0709816
-0.063537
-0.0557248
-0.0476283
-0.0393332
-0.0309248
-0.0224853
-0.0140922
-0.00581681
0.0022763
0.0101291
0.0176894
0.0249102
0.0317476
0.0381589
0.0441001
0.0495234
0.0543725
0.0586347
0.0621975
0.0649985
0.0669665
0.0680253
0.0680955
0.0670877
0.064891
0.0613708
0.0563973
0.0499021
0.0419394
0.0327422
0.0227791
0.0127776
0.00365024
-0.00369296
-0.00861241
-0.01093
-0.0108879
-0.00895428
-0.00565283
-0.00145974
0.00324008
0.00815786
0.0130893
0.0178949
0.0224811
0.0267904
0.0307907
0.034458
0.0377649
-0.096562
-0.0927949
-0.0884345
-0.083493
-0.077995
-0.0719776
-0.0654895
-0.0585894
-0.0513441
-0.043826
-0.0361101
-0.0282721
-0.020386
-0.0125224
-0.0047475
0.00287748
0.0102966
0.0174588
0.0243169
0.0308265
0.0369447
0.0426277
0.0478298
0.0525022
0.056607
0.0600684
0.0628227
0.0648035
0.0659404
0.0661588
0.0653766
0.0634985
0.0604181
0.0560433
0.0503419
0.0433915
0.0354217
0.0268494
0.0182772
0.0104275
0.00400345
-0.00048373
-0.00285844
-0.00326488
-0.00202568
0.000470566
0.00384595
0.00777595
0.0120024
0.0163316
0.0206235
0.0247786
0.0287289
0.032431
0.0358529
0.0389618
-0.0891825
-0.0856463
-0.0815734
-0.0769749
-0.0718722
-0.0662969
-0.0602905
-0.0539035
-0.0471931
-0.0402223
-0.0330569
-0.0257637
-0.0184094
-0.011058
-0.00377106
0.00339414
0.0103841
0.017149
0.0236425
0.0298203
0.0356396
0.0410573
0.0460298
0.0505102
0.0544544
0.057802
0.0604942
0.0624699
0.0636649
0.0640122
0.0634398
0.061869
0.05922
0.055432
0.0504989
0.0445084
0.0376719
0.0303461
0.0230211
0.0162703
0.0106464
0.00655891
0.00418222
0.00345181
0.00415238
0.00599764
0.00868971
0.0119577
0.0155743
0.01936
0.0231788
0.0269291
0.0305367
0.0339498
0.0371298
0.04004
-0.082173
-0.0788667
-0.0750739
-0.0708048
-0.0660781
-0.0609211
-0.0553693
-0.0494658
-0.0432604
-0.0368075
-0.0301647
-0.0233914
-0.0165472
-0.00969035
-0.00287733
0.00383815
0.0104053
0.0167763
0.0229057
0.0287502
0.0342675
0.0394157
0.0441521
0.0484319
0.0522107
0.0554361
0.0580549
0.0600117
0.0612493
0.0617085
0.0613286
0.0600473
0.057807
0.0545714
0.0503526
0.0452395
0.03942
0.033192
0.0269518
0.0211584
0.0162564
0.0125604
0.0102459
0.00930844
0.00961116
0.0109444
0.0130757
0.0157819
0.0188664
0.0221664
0.0255531
0.0289262
0.0322091
0.0353444
0.0382881
0.0410009
-0.0755162
-0.0724372
-0.0689166
-0.0649636
-0.0605947
-0.0558336
-0.0507109
-0.0452636
-0.0395347
-0.0335715
-0.0274247
-0.0211468
-0.0147909
-0.00841005
-0.00205594
0.00422146
0.0103743
0.0163568
0.0221252
0.0276373
0.032852
0.0377285
0.0422255
0.0463002
0.0499099
0.0530077
0.0555453
0.0574732
0.058741
0.0592978
0.0590933
0.0580798
0.056218
0.0534897
0.0499189
0.0455909
0.0406698
0.0354018
0.03011
0.0251631
0.0209115
0.0176028
0.0154129
0.0143711
0.0143956
0.0153367
0.0170157
0.0192514
0.0218764
0.0247461
0.0277412
0.0307658
0.0337432
0.0366134
0.0393286
0.0418475
-0.0691966
-0.0663411
-0.0630841
-0.059434
-0.0554056
-0.0510193
-0.0463015
-0.0412844
-0.0360051
-0.0305048
-0.0248281
-0.0190212
-0.0131319
-0.0072079
-0.00129654
0.00455593
0.0103047
0.0159063
0.021319
0.0265022
0.0314159
0.0360209
0.0402779
0.0441462
0.047585
0.0505518
0.0530033
0.0548954
0.0561841
0.0568264
0.0567815
0.0560139
0.0544983
0.0522301
0.0492396
0.0456071
0.0414742
0.0370453
0.0325831
0.0283839
0.0247281
0.0217992
0.0197795
0.0187133
0.0185571
0.0192069
0.0205274
0.0223737
0.0246058
0.0270976
0.029741
0.0324459
0.0351382
0.0377571
0.0402531
0.0425832
-0.0632003
-0.0605634
-0.0575609
-0.0542006
-0.0504955
-0.0464637
-0.0421281
-0.0375164
-0.032661
-0.0275978
-0.0223659
-0.0170063
-0.0115616
-0.00607476
-0.000589032
0.00485302
0.0102096
0.01544
0.0205044
0.0253641
0.029981
0.0343175
0.038336
0.0419984
0.0452664
0.0481012
0.0504641
0.0523159
0.0536187
0.0543364
0.0544367
0.0538939
0.0526934
0.0508397
0.0483665
0.0453477
0.0419048
0.0382077
0.0344695
0.0309319
0.0278348
0.0252633
0.0234411
0.02241
0.0221501
0.022591
0.0236326
0.0251608
0.0270603
0.029223
0.0315528
0.0339668
0.0363947
0.0387773
0.0410644
0.0432128
-0.0575148
-0.0550904
-0.0523327
-0.0492489
-0.0458507
-0.0421539
-0.0381785
-0.0339487
-0.0294925
-0.0248414
-0.0200298
-0.0150939
-0.0100716
-0.00500188
7.62256e-05
0.00512359
0.0101015
0.0149719
0.0196975
0.0242414
0.0285676
0.0326404
0.0364241
0.0398832
0.0429823
0.045686
0.0479595
0.0497683
0.05108
0.0518646
0.0520971
0.0517593
0.0508445
0.0493631
0.04735
0.0448723
0.0420329
0.0389726
0.0358652
0.0329087
0.0303385
0.0280886
0.0264846
0.0255328
0.0252284
0.0255269
0.026356
0.0276276
0.0292483
0.0311269
0.0331792
0.0353304
0.0375152
0.0396769
0.0417667
0.0437413
-0.0521291
-0.04991
-0.0473868
-0.0445661
-0.0414585
-0.0380778
-0.0344415
-0.0305708
-0.0264901
-0.022227
-0.0178116
-0.0132761
-0.0086543
-0.00398104
0.000708186
0.00537767
0.00999176
0.0145151
0.0189128
0.0231503
0.0271937
0.0310096
0.0345643
0.0378246
0.0407581
0.0433329
0.0455175
0.047282
0.0485986
0.0494427
0.0497951
0.0496437
0.0489871
0.0478394
0.0462348
0.0442331
0.0419221
0.0394173
0.0368566
0.0343857
0.0321042
0.0303453
0.0289905
0.0281494
0.0278446
0.028053
0.0287243
0.0297919
0.0311813
0.0328165
0.0346252
0.0365407
0.0385034
0.0404604
0.0423648
0.0441747
-0.0470333
-0.0450114
-0.0427119
-0.0401409
-0.0373077
-0.0342246
-0.0309071
-0.0273735
-0.0236453
-0.0197466
-0.015704
-0.0115459
-0.0073024
-0.00300479
0.00131492
0.00562422
0.00989044
0.0140809
0.0181633
0.0221055
0.0258757
0.0294428
0.0327756
0.0358431
0.0386158
0.0410648
0.0431623
0.0448819
0.0462001
0.0470969
0.0475576
0.0475748
0.0471507
0.0463011
0.0450584
0.0434752
0.0416266
0.0396078
0.0375289
0.0355097
0.0336623
0.0321755
0.0310414
0.0303241
0.0300492
0.0302074
0.0307652
0.0316731
0.0328725
0.0343011
0.0358974
0.0376031
0.0393646
0.0411331
0.0428646
0.0445194
-0.0422182
-0.0403847
-0.0382977
-0.0359627
-0.033388
-0.0305846
-0.0275659
-0.0243482
-0.0209502
-0.0173931
-0.0137002
-0.0098968
-0.0060096
-0.00206657
0.00190345
0.00587099
0.00980625
0.0136793
0.0174602
0.0211194
0.0246274
0.0279553
0.0310742
0.0339559
0.0365737
0.0389012
0.0409137
0.0425884
0.0439053
0.0448483
0.0454063
0.045575
0.0453591
0.0447746
0.0438517
0.0426364
0.0411918
0.0395974
0.0379431
0.0363274
0.0348494
0.0336297
0.0327021
0.0321137
0.0318892
0.0320273
0.032507
0.033292
0.0343371
0.0355917
0.0370043
0.0385246
0.0401049
0.0417011
0.0432727
0.0447824
-0.0376759
-0.0360215
-0.0341354
-0.0320226
-0.0296906
-0.0271491
-0.02441
-0.0214875
-0.018398
-0.0151601
-0.0117945
-0.00832336
-0.00477051
-0.00116089
0.00247959
0.00612433
0.00974629
0.0133181
0.0168125
0.0202022
0.0234599
0.026559
0.0294734
0.0321773
0.0346469
0.0368576
0.0387878
0.0404179
0.0417308
0.0427136
0.0433579
0.0436617
0.043631
0.0432813
0.04264
0.041747
0.0406552
0.0394305
0.0381476
0.0368873
0.0357298
0.0347618
0.0340282
0.0335693
0.033408
0.0335483
0.0339776
0.0346701
0.0355913
0.0367007
0.0379556
0.0393131
0.0407315
0.0421715
0.0435961
0.0449712
-0.0333994
-0.031914
-0.0302169
-0.0283125
-0.0262076
-0.0239107
-0.0214323
-0.0187848
-0.0159827
-0.0130424
-0.00998192
-0.00682103
-0.00358078
-0.000283414
0.00304787
0.00638916
0.00971599
0.0130036
0.016227
0.0193614
0.0223818
0.0252639
0.0279839
0.0305182
0.0328468
0.0349459
0.0367967
0.0383824
0.0396888
0.0407051
0.041425
0.0418482
0.041981
0.041838
0.0414435
0.0408316
0.0400472
0.0391442
0.0381852
0.0372353
0.0363578
0.0356207
0.0350682
0.0347361
0.0346457
0.034804
0.0352044
0.0358291
0.0366521
0.0376413
0.0387619
0.0399777
0.0412525
0.0425518
0.0438423
0.0450932
-0.0293825
-0.0280558
-0.0265356
-0.0248259
-0.0229325
-0.0208631
-0.0186269
-0.0162349
-0.0136996
-0.0110356
-0.00825873
-0.00538639
-0.00243724
0.000568929
0.00361142
0.0066688
0.00971906
0.0127398
0.0157085
0.0186026
0.0213994
0.0240768
0.0266132
0.028986
0.0311818
0.0331744
0.0349487
0.0364906
0.0377877
0.0388313
0.0396166
0.0401441
0.04042
0.0404578
0.0402782
0.0399108
0.0393926
0.0387688
0.0380913
0.0374123
0.0367796
0.0362508
0.0358655
0.0356548
0.0356388
0.0358259
0.0362138
0.0367906
0.0375368
0.0384277
0.0394348
0.0405279
0.0416764
0.0428498
0.0440191
0.0451563
-0.0256198
-0.0244413
-0.0230858
-0.0215569
-0.0198598
-0.0180012
-0.0159892
-0.0138335
-0.0115451
-0.00913665
-0.00662224
-0.00401716
-0.00133794
0.00139791
0.00417196
0.00696505
0.00975747
0.0125291
0.0152597
0.0179287
0.020516
0.0230018
0.0253672
0.0275949
0.0296583
0.0315482
0.0332489
0.0347472
0.0360326
0.0370975
0.0379383
0.0385558
0.0389559
0.0391503
0.039157
0.0390008
0.0387127
0.0383295
0.0378939
0.0374556
0.0370344
0.0366912
0.0364578
0.0363617
0.0364206
0.0366436
0.0370311
0.0375757
0.0382631
0.0390742
0.0399861
0.040974
0.042012
0.0430738
0.0441341
0.0451682
-0.022107
-0.0210659
-0.0198629
-0.0185012
-0.0169852
-0.015321
-0.0135156
-0.0115775
-0.00951645
-0.00734347
-0.00507092
-0.0027123
-0.00028216
0.00220397
0.00472974
0.0072781
0.00983148
0.0123719
0.014881
0.0173407
0.0197328
0.022039
0.0242426
0.0263274
0.0282733
0.0300681
0.0316988
0.0331544
0.0344256
0.0355062
0.036393
0.0370871
0.0375937
0.0379228
0.0380898
0.0381151
0.0380242
0.0378474
0.0376183
0.0373694
0.0371487
0.0369738
0.0368791
0.0368896
0.0370216
0.0372844
0.0376803
0.0382049
0.0388481
0.0395951
0.040428
0.0413264
0.0422685
0.0432322
0.0441953
0.0451364
-0.0188406
-0.0179261
-0.0168635
-0.0156553
-0.0143057
-0.0128198
-0.0112039
-0.00946523
-0.00761247
-0.00565528
-0.00360449
-0.00147194
0.000729521
0.0029862
0.00528362
0.00760666
0.00993969
0.0122667
0.0145713
0.0168372
0.0190482
0.021188
0.0232409
0.0251924
0.0270274
0.0287333
0.0302979
0.0317116
0.0329666
0.0340574
0.0349815
0.0357398
0.0363366
0.0367805
0.0370841
0.0372645
0.0373428
0.0373436
0.037294
0.0372211
0.0371594
0.0371305
0.0371597
0.0372676
0.0374693
0.0377736
0.0381838
0.0386979
0.0393086
0.040005
0.0407729
0.0415956
0.0424553
0.0433332
0.0442105
0.0450685
-0.0158181
-0.0150195
-0.0140851
-0.0130172
-0.0118194
-0.0104961
-0.0090528
-0.00749595
-0.00583302
-0.00407249
-0.00222385
-0.000297497
0.00169527
0.00374239
0.00583107
0.00794796
0.0100792
0.0122104
0.0143273
0.0164151
0.0184593
0.0204455
0.0223597
0.0241885
0.0259196
0.027542
0.0290439
0.0304165
0.0316533
0.0327495
0.0337028
0.0345137
0.035186
0.0357266
0.036146
0.0364583
0.0366803
0.036832
0.0369359
0.037013
0.0370903
0.0371879
0.0373262
0.0375222
0.0377888
0.0381344
0.0385628
0.0390733
0.0396611
0.0403179
0.0410327
0.0417922
0.0425816
0.0433853
0.0441873
0.0449717
-0.0130384
-0.0123449
-0.0115268
-0.010586
-0.0095257
-0.00834967
-0.00706268
-0.00567036
-0.00417925
-0.00259675
-0.000931158
0.000808394
0.002612
0.00446904
0.00636826
0.00829783
0.0102455
0.0121986
0.0141443
0.0160696
0.0179615
0.0198072
0.021594
0.0233105
0.0249457
0.0264903
0.0279325
0.0292649
0.030482
0.0315792
0.0325544
0.0334078
0.0341423
0.0347636
0.0352801
0.0357029
0.0360456
0.0363248
0.0365585
0.036764
0.0369612
0.0371683
0.0374021
0.0376766
0.0380028
0.0383882
0.0388367
0.0393487
0.039921
0.0405475
0.0412195
0.0419265
0.0426565
0.0433966
0.0441333
0.0448532
-0.0105011
-0.00990223
-0.00918868
-0.00836222
-0.00742541
-0.00638163
-0.005235
-0.00399043
-0.00265359
-0.00123097
0.000270179
0.00184187
0.0034754
0.00516144
0.00689008
0.00865089
0.010433
0.0122253
0.0140164
0.0157947
0.0175487
0.0192671
0.0209384
0.0225527
0.0241016
0.025572
0.0269578
0.0282514
0.0294476
0.0305422
0.0315329
0.0324198
0.0332047
0.0338922
0.0344889
0.0350038
0.0354481
0.0358348
0.0361762
0.0364899
0.0367899
0.0370914
0.0374082
0.0377518
0.0381317
0.0385544
0.0390239
0.0395409
0.0401034
0.0407069
0.0413449
0.0420089
0.0426892
0.0433752
0.0440558
0.0447197
-0.00820771
-0.00769299
-0.0070725
-0.00634769
-0.00552074
-0.00459455
-0.00357272
-0.00245949
-0.00125983
2.06209e-05
0.00137551
0.00279783
0.00427996
0.00581369
0.0073903
0.0090006
0.010635
0.0122836
0.0139364
0.0155831
0.0172134
0.0188173
0.0203847
0.0219061
0.0233736
0.024778
0.0261125
0.0273695
0.0285444
0.0296334
0.0306344
0.0315467
0.0323718
0.0331128
0.0337752
0.0343659
0.0348944
0.0353724
0.0358028
0.036206
0.0365927
0.0369745
0.0373625
0.0377664
0.038194
0.038651
0.039141
0.0396651
0.0402221
0.0408088
0.04142
0.0420491
0.0426883
0.043329
0.043962
0.0445777
-0.00616115
-0.00572039
-0.00518162
-0.00454605
-0.00381555
-0.0029926
-0.00208032
-0.00108239
-3.15219e-06
0.00115246
0.00237888
0.00366997
0.00501902
0.00641882
0.00786166
0.00933942
0.0108436
0.0123656
0.0138962
0.0154265
0.0169473
0.0184496
0.0199246
0.0213633
0.0227581
0.0241024
0.0253899
0.0266127
0.0277663
0.0288476
0.0298544
0.0307855
0.0316418
0.0324256
0.0331407
0.0337926
0.0343879
0.0349333
0.0354445
0.0359242
0.0363836
0.0368331
0.0372816
0.0377371
0.0382063
0.0386941
0.0392036
0.0397359
0.0402906
0.0408651
0.0414555
0.0420568
0.0426625
0.0432656
0.0438586
0.0444337
-0.00436649
-0.00398955
-0.0035213
-0.00296275
-0.00231549
-0.00158165
-0.000763915
0.000134482
0.00110976
0.00215758
0.00327305
0.00445077
0.00568481
0.0069688
0.00829591
0.00965894
0.0110504
0.0124624
0.0138871
0.0153162
0.0167417
0.0181555
0.0195496
0.0209162
0.0222478
0.0235393
0.0247831
0.0259743
0.0271076
0.0281798
0.0291887
0.0301332
0.0310133
0.0318305
0.0325876
0.0332889
0.0339396
0.0345457
0.035116
0.0356566
0.0361757
0.0366809
0.0371799
0.037679
0.0381838
0.0386984
0.0392256
0.0397665
0.0403209
0.040887
0.0414617
0.042041
0.0426197
0.0431922
0.0437523
0.0442936
-0.00283105
-0.00250788
-0.00209907
-0.00160544
-0.00102833
-0.000369589
0.000368446
0.00118294
0.00207057
0.0030275
0.00404939
0.00513146
0.00626843
0.00745463
0.00868398
0.00995004
0.0112461
0.0125651
0.0139
0.0152434
0.0165879
0.0179263
0.0192514
0.0205562
0.021834
0.0230785
0.0242845
0.0254476
0.0265624
0.0276252
0.028634
0.0295873
0.030485
0.0313278
0.0321175
0.0328574
0.0335516
0.034205
0.0348235
0.035413
0.0359799
0.0365304
0.0370704
0.0376054
0.0381398
0.0386773
0.03922
0.0397692
0.0403246
0.040885
0.041448
0.0420103
0.0425679
0.043116
0.0436496
0.0441634
-0.00156515
-0.00128571
-0.000925232
-0.000484396
3.56503e-05
0.000633303
0.00130651
0.00205275
0.00286906
0.00375202
0.00469775
0.00570194
0.00675986
0.00786639
0.00901606
0.010203
0.0114213
0.0126644
0.0139258
0.015199
0.0164773
0.0177539
0.0190223
0.020276
0.0215089
0.0227149
0.0238893
0.0250281
0.0261263
0.0271802
0.0281873
0.0291463
0.0300565
0.0309181
0.0317323
0.0325016
0.033229
0.0339185
0.0345747
0.0352022
0.0358064
0.0363923
0.0369648
0.0375283
0.0380866
0.0386426
0.0391983
0.0397548
0.040312
0.0408688
0.0414233
0.0419729
0.0425143
0.0430435
0.0435565
0.0440486
-0.000582181
-0.000336348
-1.29899e-05
0.000387309
0.000863548
0.0014143
0.00203773
0.00273157
0.00349312
0.00431928
0.00520652
0.00615089
0.00714808
0.00819339
0.00928179
0.010408
0.0115663
0.0127509
0.0139558
0.0151749
0.016402
0.0176309
0.0188553
0.0200694
0.0212674
0.0224439
0.0235942
0.0247128
0.025797
0.0268429
0.0278478
0.0288099
0.0297285
0.0306032
0.031435
0.0322256
0.0329772
0.0336931
0.0343768
0.0350325
0.0356643
0.0362765
0.0368732
0.0374582
0.0380346
0.0386049
0.0391708
0.0397333
0.0402923
0.0408469
0.0413956
0.0419362
0.0424658
0.0429812
0.0434789
0.0439549
9.87317e-05
0.000321541
0.000619455
0.000991954
0.00143814
0.0019567
0.00254596
0.00320382
0.00392777
0.00471492
0.00556196
0.00646522
0.00742066
0.00842387
0.00947014
0.0105545
0.0116715
0.0128159
0.0139819
0.0151637
0.0163554
0.0175513
0.0187454
0.019932
0.0211058
0.0222613
0.0233939
0.0244991
0.0255733
0.0266133
0.0276161
0.0285799
0.0295035
0.0303868
0.03123
0.0320345
0.032802
0.0335353
0.0342374
0.0349117
0.035562
0.0361918
0.0368049
0.0374044
0.0379931
0.0385732
0.0391462
0.039713
0.0402734
0.0408269
0.041372
0.0419067
0.0424286
0.0429348
0.0434223
0.0438876
0.000455107
0.000665859
0.000950472
0.00130846
0.00173897
0.00224076
0.00281223
0.00345135
0.00415573
0.00492258
0.00574872
0.0066306
0.00756433
0.00854565
0.00957001
0.0106326
0.0117282
0.0128516
0.0139973
0.0151597
0.016333
0.0175117
0.0186899
0.0198622
0.0210233
0.0221679
0.0232912
0.0243892
0.0254581
0.0264947
0.0274963
0.0284608
0.0293869
0.0302743
0.0311232
0.0319347
0.0327103
0.0334524
0.0341638
0.0348477
0.0355073
0.0361462
0.0367676
0.0373746
0.0379696
0.0385548
0.0391315
0.0397005
0.0402619
0.0408148
0.0413581
0.0418899
0.0424079
0.0429095
0.0433917
0.0438515
)
;

boundaryField
{
    inlet
    {
        type            zeroGradient;
    }
    outlet
    {
        type            fixedValue;
        value           nonuniform 0();
    }
    cylinder
    {
        type            zeroGradient;
    }
    top
    {
        type            symmetryPlane;
    }
    bottom
    {
        type            symmetryPlane;
    }
    defaultFaces
    {
        type            empty;
    }
    procBoundary14to10
    {
        type            processor;
        value           nonuniform List<scalar> 
57
(
0.0694556
0.0675577
0.0641921
0.0594726
0.0534707
0.0461774
0.0374531
0.0269368
0.0140088
-0.00201799
-0.0214686
-0.0438453
-0.0674227
-0.0890114
-0.104507
-0.11059
-0.106926
-0.0959205
-0.0809066
-0.0646985
-0.0491041
-0.0349911
-0.022624
-0.011961
-0.0028252
0.00498881
0.0116512
0.017305
0.0220957
-0.183338
-0.177697
-0.170452
-0.161655
-0.151425
-0.13994
-0.127422
-0.11412
-0.100292
-0.0861929
-0.0720562
-0.0580875
-0.0444584
-0.0313053
-0.0187308
-0.00680768
0.0044152
0.0149069
0.0246473
0.033622
0.041818
0.0492205
0.0557962
0.061466
0.0660847
0.069425
0.071225
0.071225
)
;
    }
    procBoundary14to11
    {
        type            processor;
        value           uniform 0.0281716;
    }
    procBoundary14to13
    {
        type            processor;
        value           nonuniform List<scalar> 
35
(
-0.175636
-0.164438
-0.153778
-0.143629
-0.133966
-0.124767
-0.11601
-0.107673
-0.0997365
-0.0921819
-0.0849922
-0.0781523
-0.0716487
-0.0654695
-0.0596037
-0.0540419
-0.0487752
-0.0437958
-0.0390965
-0.034671
-0.0305137
-0.0266196
-0.0229846
-0.0196055
-0.0164798
-0.0136062
-0.0109846
-0.00861601
-0.00650339
-0.00465173
-0.00306823
-0.00176327
-0.000750293
-4.88228e-05
0.000318352
)
;
    }
    procBoundary14to15
    {
        type            processor;
        value           nonuniform List<scalar> 
35
(
0.0301197
0.0319661
0.0337063
0.035336
0.0368516
0.0382502
0.0395294
0.0406879
0.0417253
0.0426427
0.0434426
0.0441288
0.0447065
0.0451818
0.0455612
0.0458518
0.0460609
0.046196
0.0462648
0.0462753
0.0462353
0.0461526
0.0460348
0.0458893
0.0457231
0.045543
0.0453555
0.0451668
0.0449829
0.0448094
0.0446518
0.0445154
0.0444055
0.0443272
0.0442855
)
;
    }
}


// ************************************************************************* //
