# Forces      
# CofR        : (0.000000e+00 0.000000e+00 0.000000e+00)
# Time        forces(pressure viscous porous)	moments(pressure viscous porous)
0.005         	((1.684176e+01 -4.886491e-08 2.877675e-26) (8.077948e-01 -4.277378e-10 -3.417796e-20) (0.000000e+00 0.000000e+00 0.000000e+00)) ((-1.791415e-18 -4.008689e-19 -3.697250e-18) (4.607994e-19 1.021616e-20 2.226996e-12) (0.000000e+00 0.000000e+00 0.000000e+00))
0.01          	((1.488086e-01 6.392606e-08 -2.285757e-26) (5.962541e-01 -6.081794e-11 3.240701e-21) (0.000000e+00 0.000000e+00 0.000000e+00)) ((-1.622322e-20 -3.386389e-21 -3.965792e-19) (4.831843e-21 -1.064095e-20 -4.212682e-09) (0.000000e+00 0.000000e+00 0.000000e+00))
0.015         	((4.522958e-01 -1.563878e-08 6.785740e-27) (4.724992e-01 -9.274481e-10 1.114479e-21) (0.000000e+00 0.000000e+00 0.000000e+00)) ((-4.818454e-20 -1.073979e-20 9.823742e-19) (1.355299e-20 -8.000114e-21 -3.057736e-09) (0.000000e+00 0.000000e+00 0.000000e+00))
0.02          	((3.764624e-01 6.128293e-08 9.946597e-28) (3.925678e-01 -5.337805e-10 1.366217e-21) (0.000000e+00 0.000000e+00 0.000000e+00)) ((-4.009659e-20 -8.942119e-21 1.910508e-18) (1.146574e-20 -6.657062e-21 -3.974963e-09) (0.000000e+00 0.000000e+00 0.000000e+00))
0.025         	((3.310491e-01 3.852865e-08 1.030814e-27) (3.373693e-01 -3.436730e-10 1.499448e-21) (0.000000e+00 0.000000e+00 0.000000e+00)) ((-3.524328e-20 -7.869019e-21 6.226001e-19) (1.018496e-20 -5.717496e-21 -4.301693e-09) (0.000000e+00 0.000000e+00 0.000000e+00))
0.03          	((2.963946e-01 3.374979e-08 -1.987128e-28) (2.980125e-01 -2.073602e-10 1.609524e-21) (0.000000e+00 0.000000e+00 0.000000e+00)) ((-3.153842e-20 -7.050774e-21 -4.700109e-19) (9.184004e-21 -5.049360e-21 -4.364772e-09) (0.000000e+00 0.000000e+00 0.000000e+00))
0.035         	((2.698015e-01 3.143392e-08 -7.063868e-28) (2.690258e-01 -5.964390e-11 1.699620e-21) (0.000000e+00 0.000000e+00 0.000000e+00)) ((-2.869408e-20 -6.423476e-21 4.166417e-20) (8.400382e-21 -4.558024e-21 -4.279129e-09) (0.000000e+00 0.000000e+00 0.000000e+00))
0.04          	((2.489693e-01 2.845114e-08 -9.807741e-28) (2.469996e-01 1.131810e-10 1.774347e-21) (0.000000e+00 0.000000e+00 0.000000e+00)) ((-2.646500e-20 -5.932515e-21 7.165049e-19) (7.775990e-21 -4.185174e-21 -4.116299e-09) (0.000000e+00 0.000000e+00 0.000000e+00))
0.045         	((2.323102e-01 3.307418e-08 5.160357e-27) (2.297621e-01 9.195945e-10 1.837118e-21) (0.000000e+00 0.000000e+00 0.000000e+00)) ((-2.468197e-20 -5.540389e-21 3.931297e-19) (7.269520e-21 -3.893690e-21 -9.211696e-10) (0.000000e+00 0.000000e+00 0.000000e+00))
0.05          	((2.187242e-01 3.221344e-08 4.975289e-27) (2.159037e-01 1.619069e-09 1.890357e-21) (0.000000e+00 0.000000e+00 0.000000e+00)) ((-2.322668e-20 -5.220927e-21 -1.423732e-19) (6.851653e-21 -3.659511e-21 1.207636e-09) (0.000000e+00 0.000000e+00 0.000000e+00))
0.055         	((2.074406e-01 3.076669e-08 4.629171e-27) (2.044915e-01 2.162215e-09 1.936182e-21) (0.000000e+00 0.000000e+00 0.000000e+00)) ((-2.201740e-20 -4.955897e-21 -2.566458e-19) (6.501381e-21 -3.466798e-21 2.615937e-09) (0.000000e+00 0.000000e+00 0.000000e+00))
0.06          	((1.979140e-01 3.034280e-08 4.263154e-27) (1.948959e-01 2.598741e-09 1.976014e-21) (0.000000e+00 0.000000e+00 0.000000e+00)) ((-2.099466e-20 -4.732385e-21 -6.359576e-20) (6.203498e-21 -3.304747e-21 3.534029e-09) (0.000000e+00 0.000000e+00 0.000000e+00))
0.065         	((1.897553e-01 2.926227e-08 3.821707e-27) (1.866828e-01 2.936502e-09 2.010988e-21) (0.000000e+00 0.000000e+00 0.000000e+00)) ((-2.011822e-20 -4.541194e-21 7.992655e-20) (5.946949e-21 -3.166058e-21 4.115375e-09) (0.000000e+00 0.000000e+00 0.000000e+00))
0.07          	((1.826789e-01 2.851779e-08 3.445498e-27) (1.795462e-01 3.187364e-09 2.042030e-21) (0.000000e+00 0.000000e+00 0.000000e+00)) ((-1.935722e-20 -4.375558e-21 -5.489084e-19) (5.723429e-21 -3.045563e-21 4.463407e-09) (0.000000e+00 0.000000e+00 0.000000e+00))
0.075         	((1.764737e-01 2.799114e-08 3.089261e-27) (1.732660e-01 3.370544e-09 2.069673e-21) (0.000000e+00 0.000000e+00 0.000000e+00)) ((-1.868933e-20 -4.230520e-21 6.832408e-19) (5.526710e-21 -2.939545e-21 4.649256e-09) (0.000000e+00 0.000000e+00 0.000000e+00))
0.08          	((1.709801e-01 2.714490e-08 2.742320e-27) (1.676801e-01 3.511650e-09 2.094524e-21) (0.000000e+00 0.000000e+00 0.000000e+00)) ((-1.809775e-20 -4.102282e-21 3.480342e-20) (5.352000e-21 -2.845274e-21 4.722256e-09) (0.000000e+00 0.000000e+00 0.000000e+00))
0.085         	((1.660740e-01 2.644345e-08 2.458340e-27) (1.626664e-01 3.614700e-09 2.117242e-21) (0.000000e+00 0.000000e+00 0.000000e+00)) ((-1.756873e-20 -3.987917e-21 -3.155801e-19) (5.195540e-21 -2.760644e-21 4.716554e-09) (0.000000e+00 0.000000e+00 0.000000e+00))
0.09          	((1.616616e-01 2.579270e-08 2.164296e-27) (1.581315e-01 3.682089e-09 2.137932e-21) (0.000000e+00 0.000000e+00 0.000000e+00)) ((-1.709238e-20 -3.885204e-21 -1.590804e-19) (5.054515e-21 -2.684043e-21 4.655940e-09) (0.000000e+00 0.000000e+00 0.000000e+00))
0.095         	((1.576677e-01 2.545878e-08 1.844315e-27) (1.540025e-01 3.719801e-09 2.156917e-21) (0.000000e+00 0.000000e+00 0.000000e+00)) ((-1.666137e-20 -3.792485e-21 -2.689802e-19) (4.926571e-21 -2.614265e-21 4.557567e-09) (0.000000e+00 0.000000e+00 0.000000e+00))
0.1           	((1.540334e-01 2.482882e-08 1.570169e-27) (1.502215e-01 3.742336e-09 2.174397e-21) (0.000000e+00 0.000000e+00 0.000000e+00)) ((-1.626888e-20 -3.708209e-21 -1.845237e-19) (4.809826e-21 -2.550465e-21 4.433709e-09) (0.000000e+00 0.000000e+00 0.000000e+00))
0.105         	((1.507095e-01 2.406527e-08 1.374297e-27) (1.467417e-01 3.746764e-09 2.190588e-21) (0.000000e+00 0.000000e+00 0.000000e+00)) ((-1.590952e-20 -3.631231e-21 -1.601709e-20) (4.702862e-21 -2.491799e-21 4.293346e-09) (0.000000e+00 0.000000e+00 0.000000e+00))
0.11          	((1.476529e-01 2.387548e-08 1.129839e-27) (1.435247e-01 3.742896e-09 2.205777e-21) (0.000000e+00 0.000000e+00 0.000000e+00)) ((-1.557848e-20 -3.560581e-21 1.709076e-19) (4.604290e-21 -2.437533e-21 4.142824e-09) (0.000000e+00 0.000000e+00 0.000000e+00))
0.115         	((1.448321e-01 2.325460e-08 9.716199e-28) (1.405389e-01 3.723557e-09 2.219975e-21) (0.000000e+00 0.000000e+00 0.000000e+00)) ((-1.527303e-20 -3.495583e-21 2.121341e-19) (4.513146e-21 -2.387108e-21 3.986369e-09) (0.000000e+00 0.000000e+00 0.000000e+00))
0.12          	((1.422201e-01 2.297515e-08 7.742326e-28) (1.377579e-01 3.685365e-09 2.233283e-21) (0.000000e+00 0.000000e+00 0.000000e+00)) ((-1.498988e-20 -3.435511e-21 -8.507207e-20) (4.428540e-21 -2.340157e-21 3.827478e-09) (0.000000e+00 0.000000e+00 0.000000e+00))
0.125         	((1.397935e-01 2.245291e-08 6.524030e-28) (1.351594e-01 3.648247e-09 2.245866e-21) (0.000000e+00 0.000000e+00 0.000000e+00)) ((-1.472640e-20 -3.379775e-21 -2.281307e-20) (4.349737e-21 -2.296329e-21 3.668404e-09) (0.000000e+00 0.000000e+00 0.000000e+00))
0.13          	((1.375332e-01 2.206475e-08 5.351601e-28) (1.327243e-01 3.614972e-09 2.257704e-21) (0.000000e+00 0.000000e+00 0.000000e+00)) ((-1.448078e-20 -3.327950e-21 6.016711e-20) (4.276242e-21 -2.255281e-21 3.511115e-09) (0.000000e+00 0.000000e+00 0.000000e+00))
0.135         	((1.354223e-01 2.166812e-08 4.403458e-28) (1.304361e-01 3.576538e-09 2.268812e-21) (0.000000e+00 0.000000e+00 0.000000e+00)) ((-1.425127e-20 -3.279622e-21 1.954151e-19) (4.207502e-21 -2.216753e-21 3.357068e-09) (0.000000e+00 0.000000e+00 0.000000e+00))
0.14          	((1.334432e-01 2.145945e-08 2.808009e-28) (1.282809e-01 3.530969e-09 2.279465e-21) (0.000000e+00 0.000000e+00 0.000000e+00)) ((-1.403572e-20 -3.234449e-21 -2.733600e-19) (4.142897e-21 -2.180442e-21 3.206852e-09) (0.000000e+00 0.000000e+00 0.000000e+00))
0.145         	((1.315849e-01 2.083218e-08 1.976920e-28) (1.262464e-01 3.485513e-09 2.289638e-21) (0.000000e+00 0.000000e+00 0.000000e+00)) ((-1.383322e-20 -3.192179e-21 2.665936e-19) (4.082089e-21 -2.146153e-21 3.060963e-09) (0.000000e+00 0.000000e+00 0.000000e+00))
0.15          	((1.298374e-01 2.052711e-08 1.171706e-28) (1.243217e-01 3.432180e-09 2.299303e-21) (0.000000e+00 0.000000e+00 0.000000e+00)) ((-1.364236e-20 -3.152432e-21 1.707106e-19) (4.024775e-21 -2.113722e-21 2.919744e-09) (0.000000e+00 0.000000e+00 0.000000e+00))
0.155         	((1.281897e-01 2.028340e-08 -2.168267e-29) (1.224975e-01 3.378148e-09 2.308528e-21) (0.000000e+00 0.000000e+00 0.000000e+00)) ((-1.346204e-20 -3.115030e-21 9.797726e-19) (3.970637e-21 -2.082989e-21 2.783419e-09) (0.000000e+00 0.000000e+00 0.000000e+00))
0.16          	((1.266334e-01 1.978766e-08 -1.020896e-28) (1.207654e-01 3.326021e-09 2.317356e-21) (0.000000e+00 0.000000e+00 0.000000e+00)) ((-1.329152e-20 -3.079790e-21 3.344001e-19) (3.919415e-21 -2.053787e-21 2.652022e-09) (0.000000e+00 0.000000e+00 0.000000e+00))
0.165         	((1.251628e-01 1.942155e-08 -2.233628e-28) (1.191181e-01 3.274136e-09 2.325747e-21) (0.000000e+00 0.000000e+00 0.000000e+00)) ((-1.313031e-20 -3.046519e-21 1.311637e-19) (3.870895e-21 -2.026056e-21 2.525687e-09) (0.000000e+00 0.000000e+00 0.000000e+00))
0.17          	((1.237684e-01 1.923657e-08 -2.977385e-28) (1.175488e-01 3.221928e-09 2.333849e-21) (0.000000e+00 0.000000e+00 0.000000e+00)) ((-1.297716e-20 -3.015067e-21 4.380039e-19) (3.824796e-21 -1.999624e-21 2.404451e-09) (0.000000e+00 0.000000e+00 0.000000e+00))
0.175         	((1.224472e-01 1.908466e-08 -3.891400e-28) (1.160519e-01 3.165732e-09 2.341467e-21) (0.000000e+00 0.000000e+00 0.000000e+00)) ((-1.283191e-20 -2.985303e-21 4.817510e-19) (3.781043e-21 -1.974436e-21 2.288105e-09) (0.000000e+00 0.000000e+00 0.000000e+00))
0.18          	((1.211898e-01 1.901199e-08 -4.672485e-28) (1.146219e-01 3.119333e-09 2.349009e-21) (0.000000e+00 0.000000e+00 0.000000e+00)) ((-1.269325e-20 -2.957063e-21 1.253752e-19) (3.739284e-21 -1.950373e-21 2.176581e-09) (0.000000e+00 0.000000e+00 0.000000e+00))
0.185         	((1.199946e-01 1.856350e-08 -5.302503e-28) (1.132542e-01 3.070297e-09 2.356178e-21) (0.000000e+00 0.000000e+00 0.000000e+00)) ((-1.256142e-20 -2.930276e-21 5.309383e-19) (3.699519e-21 -1.927344e-21 2.069709e-09) (0.000000e+00 0.000000e+00 0.000000e+00))
0.19          	((1.188568e-01 1.851865e-08 -5.505109e-28) (1.119443e-01 3.018629e-09 2.363064e-21) (0.000000e+00 0.000000e+00 0.000000e+00)) ((-1.243579e-20 -2.904818e-21 2.773173e-19) (3.661559e-21 -1.905267e-21 1.967263e-09) (0.000000e+00 0.000000e+00 0.000000e+00))
0.195         	((1.177704e-01 1.308430e-08 -3.037147e-27) (1.106885e-01 4.638434e-09 2.369726e-21) (0.000000e+00 0.000000e+00 0.000000e+00)) ((-1.231550e-20 -2.880587e-21 3.623711e-19) (3.625271e-21 -1.884106e-21 3.588305e-09) (0.000000e+00 0.000000e+00 0.000000e+00))
0.2           	((1.167348e-01 1.478352e-08 -3.329505e-27) (1.094832e-01 6.121186e-09 2.376117e-21) (0.000000e+00 0.000000e+00 0.000000e+00)) ((-1.220073e-20 -2.857537e-21 7.203020e-19) (3.590608e-21 -1.863794e-21 4.782024e-09) (0.000000e+00 0.000000e+00 0.000000e+00))
0.205         	((1.157466e-01 1.594136e-08 -3.611228e-27) (1.083252e-01 7.347250e-09 2.382223e-21) (0.000000e+00 0.000000e+00 0.000000e+00)) ((-1.209116e-20 -2.835568e-21 -1.346518e-19) (3.557422e-21 -1.844294e-21 5.665070e-09) (0.000000e+00 0.000000e+00 0.000000e+00))
0.21          	((1.147994e-01 1.679617e-08 -3.837794e-27) (1.072116e-01 8.338971e-09 2.388185e-21) (0.000000e+00 0.000000e+00 0.000000e+00)) ((-1.198584e-20 -2.814600e-21 2.227682e-19) (3.525548e-21 -1.825512e-21 6.318884e-09) (0.000000e+00 0.000000e+00 0.000000e+00))
0.215         	((1.138947e-01 1.767908e-08 -3.849262e-27) (1.061396e-01 9.143820e-09 2.393903e-21) (0.000000e+00 0.000000e+00 0.000000e+00)) ((-1.188527e-20 -2.794587e-21 2.726675e-19) (3.495047e-21 -1.807451e-21 6.800365e-09) (0.000000e+00 0.000000e+00 0.000000e+00))
0.22          	((1.130273e-01 1.797794e-08 -4.029462e-27) (1.051068e-01 9.782761e-09 2.399456e-21) (0.000000e+00 0.000000e+00 0.000000e+00)) ((-1.178858e-20 -2.775460e-21 9.277809e-20) (3.465736e-21 -1.790054e-21 7.151135e-09) (0.000000e+00 0.000000e+00 0.000000e+00))
0.225         	((1.121951e-01 1.849887e-08 -4.019451e-27) (1.041111e-01 1.028433e-08 2.404809e-21) (0.000000e+00 0.000000e+00 0.000000e+00)) ((-1.169559e-20 -2.757165e-21 1.126700e-19) (3.437564e-21 -1.773281e-21 7.400738e-09) (0.000000e+00 0.000000e+00 0.000000e+00))
0.23          	((1.113962e-01 1.308321e-08 -3.635505e-27) (1.031502e-01 1.176135e-08 2.409988e-21) (0.000000e+00 0.000000e+00 0.000000e+00)) ((-1.160626e-20 -2.739642e-21 7.144250e-20) (3.410462e-21 -1.757089e-21 1.124089e-08) (0.000000e+00 0.000000e+00 0.000000e+00))
0.235         	((1.106302e-01 1.528375e-08 -2.486268e-27) (1.022223e-01 1.312909e-08 2.414988e-21) (0.000000e+00 0.000000e+00 0.000000e+00)) ((-1.152053e-20 -2.722888e-21 1.709932e-19) (3.384396e-21 -1.741434e-21 1.417404e-08) (0.000000e+00 0.000000e+00 0.000000e+00))
0.24          	((1.098940e-01 1.669719e-08 -1.605885e-27) (1.013254e-01 1.427764e-08 2.419844e-21) (0.000000e+00 0.000000e+00 0.000000e+00)) ((-1.143799e-20 -2.706831e-21 1.726110e-19) (3.359277e-21 -1.726294e-21 1.642676e-08) (0.000000e+00 0.000000e+00 0.000000e+00))
0.245         	((1.091857e-01 1.813993e-08 -9.347164e-28) (1.004580e-01 1.522542e-08 2.424577e-21) (0.000000e+00 0.000000e+00 0.000000e+00)) ((-1.135842e-20 -2.691437e-21 1.708158e-19) (3.335058e-21 -1.711644e-21 1.816060e-08) (0.000000e+00 0.000000e+00 0.000000e+00))
0.25          	((1.085059e-01 1.914418e-08 -3.826747e-28) (9.961862e-02 1.598460e-08 2.429064e-21) (0.000000e+00 0.000000e+00 0.000000e+00)) ((-1.128201e-20 -2.676638e-21 -1.616368e-19) (3.311727e-21 -1.697471e-21 1.949234e-08) (0.000000e+00 0.000000e+00 0.000000e+00))
0.255         	((1.078503e-01 2.015926e-08 2.318974e-29) (9.880583e-02 1.659752e-08 2.433471e-21) (0.000000e+00 0.000000e+00 0.000000e+00)) ((-1.120808e-20 -2.662426e-21 2.620863e-19) (3.289170e-21 -1.683738e-21 2.050910e-08) (0.000000e+00 0.000000e+00 0.000000e+00))
0.26          	((1.072181e-01 2.081516e-08 3.442498e-28) (9.801825e-02 1.708389e-08 2.437767e-21) (0.000000e+00 0.000000e+00 0.000000e+00)) ((-1.113665e-20 -2.648775e-21 5.139579e-19) (3.267371e-21 -1.670417e-21 2.127518e-08) (0.000000e+00 0.000000e+00 0.000000e+00))
0.265         	((1.066111e-01 2.123081e-08 5.919873e-28) (9.725472e-02 1.746474e-08 2.441806e-21) (0.000000e+00 0.000000e+00 0.000000e+00)) ((-1.106816e-20 -2.635670e-21 5.329748e-20) (3.246403e-21 -1.657517e-21 2.184013e-08) (0.000000e+00 0.000000e+00 0.000000e+00))
0.27          	((1.060233e-01 2.196501e-08 7.835773e-28) (9.651401e-02 1.775872e-08 2.445888e-21) (0.000000e+00 0.000000e+00 0.000000e+00)) ((-1.100148e-20 -2.623049e-21 2.059284e-19) (3.226009e-21 -1.644981e-21 2.224294e-08) (0.000000e+00 0.000000e+00 0.000000e+00))
0.275         	((1.054583e-01 2.231445e-08 9.241259e-28) (9.579512e-02 1.797843e-08 2.449703e-21) (0.000000e+00 0.000000e+00 0.000000e+00)) ((-1.093749e-20 -2.610925e-21 8.667694e-20) (3.206388e-21 -1.632820e-21 2.251322e-08) (0.000000e+00 0.000000e+00 0.000000e+00))
0.28          	((1.049120e-01 2.269100e-08 1.025459e-27) (9.509701e-02 1.813792e-08 2.453457e-21) (0.000000e+00 0.000000e+00 0.000000e+00)) ((-1.087540e-20 -2.599247e-21 -4.703192e-20) (3.187345e-21 -1.621002e-21 2.267530e-08) (0.000000e+00 0.000000e+00 0.000000e+00))
0.285         	((1.043842e-01 2.282611e-08 1.057105e-27) (9.441883e-02 1.823587e-08 2.457091e-21) (0.000000e+00 0.000000e+00 0.000000e+00)) ((-1.081518e-20 -2.587947e-21 4.740262e-20) (3.168902e-21 -1.609532e-21 2.274840e-08) (0.000000e+00 0.000000e+00 0.000000e+00))
0.29          	((1.038746e-01 2.309437e-08 1.140763e-27) (9.375962e-02 1.829932e-08 2.460601e-21) (0.000000e+00 0.000000e+00 0.000000e+00)) ((-1.075706e-20 -2.577111e-21 3.232880e-19) (3.151065e-21 -1.598370e-21 2.274821e-08) (0.000000e+00 0.000000e+00 0.000000e+00))
0.295         	((1.033820e-01 2.321544e-08 1.174677e-27) (9.311853e-02 1.832704e-08 2.464007e-21) (0.000000e+00 0.000000e+00 0.000000e+00)) ((-1.070078e-20 -2.566670e-21 -3.015881e-20) (3.133769e-21 -1.587505e-21 2.268750e-08) (0.000000e+00 0.000000e+00 0.000000e+00))
0.3           	((1.029058e-01 2.342476e-08 1.182408e-27) (9.249479e-02 1.832390e-08 2.467337e-21) (0.000000e+00 0.000000e+00 0.000000e+00)) ((-1.064626e-20 -2.556607e-21 5.825121e-20) (3.116990e-21 -1.576924e-21 2.257679e-08) (0.000000e+00 0.000000e+00 0.000000e+00))
0.305         	((1.024450e-01 2.349882e-08 1.118311e-27) (9.188768e-02 1.829260e-08 2.470564e-21) (0.000000e+00 0.000000e+00 0.000000e+00)) ((-1.059340e-20 -2.546902e-21 5.485903e-19) (3.100703e-21 -1.566617e-21 2.242476e-08) (0.000000e+00 0.000000e+00 0.000000e+00))
0.31          	((1.019990e-01 2.343967e-08 1.117329e-27) (9.129650e-02 1.823712e-08 2.473700e-21) (0.000000e+00 0.000000e+00 0.000000e+00)) ((-1.054215e-20 -2.537541e-21 -4.600780e-19) (3.084892e-21 -1.556575e-21 2.223866e-08) (0.000000e+00 0.000000e+00 0.000000e+00))
0.315         	((1.015683e-01 2.352782e-08 1.106319e-27) (9.072063e-02 1.816410e-08 2.476677e-21) (0.000000e+00 0.000000e+00 0.000000e+00)) ((-1.049270e-20 -2.528523e-21 1.506823e-21) (3.069592e-21 -1.546780e-21 2.202460e-08) (0.000000e+00 0.000000e+00 0.000000e+00))
0.32          	((1.011503e-01 2.375631e-08 1.074135e-27) (9.015943e-02 1.807833e-08 2.479605e-21) (0.000000e+00 0.000000e+00 0.000000e+00)) ((-1.044446e-20 -2.519808e-21 9.637989e-20) (3.054667e-21 -1.537222e-21 2.178803e-08) (0.000000e+00 0.000000e+00 0.000000e+00))
0.325         	((1.007447e-01 2.354147e-08 1.021037e-27) (8.961232e-02 1.797431e-08 2.482537e-21) (0.000000e+00 0.000000e+00 0.000000e+00)) ((-1.039754e-20 -2.511391e-21 2.171160e-20) (3.040138e-21 -1.527894e-21 2.153278e-08) (0.000000e+00 0.000000e+00 0.000000e+00))
0.33          	((1.003536e-01 2.355758e-08 9.609769e-28) (8.907880e-02 1.785012e-08 2.485248e-21) (0.000000e+00 0.000000e+00 0.000000e+00)) ((-1.035238e-20 -2.503266e-21 1.016200e-19) (3.026109e-21 -1.518804e-21 2.126243e-08) (0.000000e+00 0.000000e+00 0.000000e+00))
0.335         	((9.997272e-02 2.353862e-08 9.057542e-28) (8.855833e-02 1.772187e-08 2.487955e-21) (0.000000e+00 0.000000e+00 0.000000e+00)) ((-1.030816e-20 -2.495395e-21 1.950262e-20) (3.012387e-21 -1.509926e-21 2.098047e-08) (0.000000e+00 0.000000e+00 0.000000e+00))
0.34          	((9.960343e-02 2.338555e-08 8.481932e-28) (8.805041e-02 1.758448e-08 2.490579e-21) (0.000000e+00 0.000000e+00 0.000000e+00)) ((-1.026521e-20 -2.487797e-21 3.765962e-19) (2.999047e-21 -1.501252e-21 2.068916e-08) (0.000000e+00 0.000000e+00 0.000000e+00))
0.345         	((9.924662e-02 2.358051e-08 8.427102e-28) (8.755459e-02 1.744470e-08 2.493058e-21) (0.000000e+00 0.000000e+00 0.000000e+00)) ((-1.022375e-20 -2.480465e-21 -2.156960e-20) (2.986136e-21 -1.492787e-21 2.039075e-08) (0.000000e+00 0.000000e+00 0.000000e+00))
0.35          	((9.889909e-02 2.345625e-08 7.553733e-28) (8.707041e-02 1.729714e-08 2.495531e-21) (0.000000e+00 0.000000e+00 0.000000e+00)) ((-1.018318e-20 -2.473366e-21 1.489896e-19) (2.973500e-21 -1.484509e-21 2.008719e-08) (0.000000e+00 0.000000e+00 0.000000e+00))
0.355         	((9.856263e-02 2.341057e-08 7.240496e-28) (8.659745e-02 1.714513e-08 2.497881e-21) (0.000000e+00 0.000000e+00 0.000000e+00)) ((-1.014388e-20 -2.466509e-21 -1.638756e-19) (2.961239e-21 -1.476418e-21 1.978001e-08) (0.000000e+00 0.000000e+00 0.000000e+00))
0.36          	((9.823546e-02 2.327952e-08 6.571613e-28) (8.613531e-02 1.698676e-08 2.500188e-21) (0.000000e+00 0.000000e+00 0.000000e+00)) ((-1.010555e-20 -2.459871e-21 1.264542e-19) (2.949270e-21 -1.468505e-21 1.947063e-08) (0.000000e+00 0.000000e+00 0.000000e+00))
0.365         	((9.791776e-02 2.321694e-08 5.984931e-28) (8.568361e-02 1.682640e-08 2.502427e-21) (0.000000e+00 0.000000e+00 0.000000e+00)) ((-1.006826e-20 -2.453449e-21 -1.479287e-19) (2.937610e-21 -1.460762e-21 1.916017e-08) (0.000000e+00 0.000000e+00 0.000000e+00))
0.37          	((9.760914e-02 2.324422e-08 5.171666e-28) (8.524200e-02 1.664866e-08 2.504596e-21) (0.000000e+00 0.000000e+00 0.000000e+00)) ((-1.003195e-20 -2.447231e-21 6.879602e-20) (2.926245e-21 -1.453186e-21 1.884964e-08) (0.000000e+00 0.000000e+00 0.000000e+00))
0.375         	((9.730898e-02 2.302293e-08 4.556297e-28) (8.481017e-02 1.648348e-08 2.506695e-21) (0.000000e+00 0.000000e+00 0.000000e+00)) ((-9.996559e-21 -2.441187e-21 3.311360e-19) (2.915169e-21 -1.445780e-21 1.853986e-08) (0.000000e+00 0.000000e+00 0.000000e+00))
0.38          	((9.701774e-02 2.305192e-08 4.192887e-28) (8.438775e-02 1.632053e-08 2.508721e-21) (0.000000e+00 0.000000e+00 0.000000e+00)) ((-9.962170e-21 -2.435366e-21 1.188603e-19) (2.904387e-21 -1.438524e-21 1.823157e-08) (0.000000e+00 0.000000e+00 0.000000e+00))
0.385         	((9.673456e-02 2.304416e-08 3.716026e-28) (8.397441e-02 1.615790e-08 2.510688e-21) (0.000000e+00 0.000000e+00 0.000000e+00)) ((-9.928647e-21 -2.429728e-21 8.101291e-20) (2.893861e-21 -1.431417e-21 1.792534e-08) (0.000000e+00 0.000000e+00 0.000000e+00))
0.39          	((9.645915e-02 2.280344e-08 3.208191e-28) (8.356987e-02 1.599136e-08 2.512599e-21) (0.000000e+00 0.000000e+00 0.000000e+00)) ((-9.895963e-21 -2.424269e-21 1.501686e-19) (2.883580e-21 -1.424452e-21 1.762168e-08) (0.000000e+00 0.000000e+00 0.000000e+00))
0.395         	((9.619107e-02 2.261237e-08 2.437700e-28) (8.317382e-02 1.582152e-08 2.514477e-21) (0.000000e+00 0.000000e+00 0.000000e+00)) ((-9.864056e-21 -2.418976e-21 9.093844e-20) (2.873523e-21 -1.417628e-21 1.732099e-08) (0.000000e+00 0.000000e+00 0.000000e+00))
0.4           	((9.593119e-02 2.274925e-08 1.856916e-28) (8.278602e-02 1.565385e-08 2.516233e-21) (0.000000e+00 0.000000e+00 0.000000e+00)) ((-9.833193e-21 -2.413871e-21 1.884061e-19) (2.863796e-21 -1.410936e-21 1.702358e-08) (0.000000e+00 0.000000e+00 0.000000e+00))
0.405         	((9.567740e-02 2.259218e-08 1.297875e-28) (8.240619e-02 1.548749e-08 2.517980e-21) (0.000000e+00 0.000000e+00 0.000000e+00)) ((-9.802851e-21 -2.408905e-21 2.986180e-19) (2.854219e-21 -1.404372e-21 1.673002e-08) (0.000000e+00 0.000000e+00 0.000000e+00))
0.41          	((9.543000e-02 2.244085e-08 7.468665e-29) (8.203407e-02 1.532047e-08 2.519694e-21) (0.000000e+00 0.000000e+00 0.000000e+00)) ((-9.773161e-21 -2.404090e-21 2.839049e-19) (2.844839e-21 -1.397933e-21 1.644028e-08) (0.000000e+00 0.000000e+00 0.000000e+00))
0.415         	((9.519099e-02 2.238268e-08 6.433415e-29) (8.166947e-02 1.515479e-08 2.521263e-21) (0.000000e+00 0.000000e+00 0.000000e+00)) ((-9.744596e-21 -2.399446e-21 3.088746e-19) (2.835780e-21 -1.391621e-21 1.615452e-08) (0.000000e+00 0.000000e+00 0.000000e+00))
0.42          	((9.495699e-02 2.247647e-08 5.869176e-29) (8.131211e-02 1.499465e-08 2.522843e-21) (0.000000e+00 0.000000e+00 0.000000e+00)) ((-9.716433e-21 -2.394931e-21 1.247859e-19) (2.826848e-21 -1.385423e-21 1.587318e-08) (0.000000e+00 0.000000e+00 0.000000e+00))
0.425         	((9.472877e-02 2.228392e-08 -5.284131e-30) (8.096179e-02 1.483263e-08 2.524393e-21) (0.000000e+00 0.000000e+00 0.000000e+00)) ((-9.688870e-21 -2.390551e-21 4.446902e-19) (2.818097e-21 -1.379338e-21 1.559614e-08) (0.000000e+00 0.000000e+00 0.000000e+00))
0.43          	((9.450759e-02 2.242741e-08 5.141530e-29) (8.061831e-02 1.466978e-08 2.525838e-21) (0.000000e+00 0.000000e+00 0.000000e+00)) ((-9.662184e-21 -2.386317e-21 3.586743e-19) (2.809600e-21 -1.373368e-21 1.532349e-08) (0.000000e+00 0.000000e+00 0.000000e+00))
0.435         	((9.429158e-02 2.204774e-08 -6.151494e-29) (8.028146e-02 1.450671e-08 2.527264e-21) (0.000000e+00 0.000000e+00 0.000000e+00)) ((-9.636021e-21 -2.382207e-21 3.106462e-19) (2.801260e-21 -1.367506e-21 1.505531e-08) (0.000000e+00 0.000000e+00 0.000000e+00))
0.44          	((9.408037e-02 2.219701e-08 1.824269e-29) (7.995103e-02 1.434836e-08 2.528675e-21) (0.000000e+00 0.000000e+00 0.000000e+00)) ((-9.610318e-21 -2.378216e-21 3.948825e-19) (2.793063e-21 -1.361744e-21 1.479174e-08) (0.000000e+00 0.000000e+00 0.000000e+00))
0.445         	((9.387611e-02 2.208553e-08 -6.232038e-29) (7.962687e-02 1.419113e-08 2.529968e-21) (0.000000e+00 0.000000e+00 0.000000e+00)) ((-9.585516e-21 -2.374361e-21 8.186126e-20) (2.785124e-21 -1.356088e-21 1.453270e-08) (0.000000e+00 0.000000e+00 0.000000e+00))
0.45          	((9.367593e-02 2.182468e-08 -1.263024e-28) (7.930878e-02 1.403424e-08 2.531266e-21) (0.000000e+00 0.000000e+00 0.000000e+00)) ((-9.561072e-21 -2.370614e-21 2.749168e-19) (2.777297e-21 -1.350530e-21 1.427830e-08) (0.000000e+00 0.000000e+00 0.000000e+00))
0.455         	((9.348104e-02 2.190444e-08 -1.369766e-28) (7.899659e-02 1.387428e-08 2.532504e-21) (0.000000e+00 0.000000e+00 0.000000e+00)) ((-9.537223e-21 -2.366979e-21 -3.477119e-19) (2.769648e-21 -1.345069e-21 1.402852e-08) (0.000000e+00 0.000000e+00 0.000000e+00))
0.46          	((9.329076e-02 2.202609e-08 -1.000060e-28) (7.869017e-02 1.372335e-08 2.533705e-21) (0.000000e+00 0.000000e+00 0.000000e+00)) ((-9.513823e-21 -2.363435e-21 1.491705e-19) (2.762151e-21 -1.339704e-21 1.378333e-08) (0.000000e+00 0.000000e+00 0.000000e+00))
0.465         	((9.310536e-02 2.189687e-08 -1.984793e-28) (7.838934e-02 1.357292e-08 2.534847e-21) (0.000000e+00 0.000000e+00 0.000000e+00)) ((-9.490990e-21 -2.360006e-21 -3.483903e-19) (2.754821e-21 -1.334431e-21 1.354271e-08) (0.000000e+00 0.000000e+00 0.000000e+00))
0.47          	((9.292439e-02 2.160918e-08 -2.299541e-28) (7.809394e-02 1.342154e-08 2.535981e-21) (0.000000e+00 0.000000e+00 0.000000e+00)) ((-9.468644e-21 -2.356679e-21 9.693195e-20) (2.747639e-21 -1.329246e-21 1.330663e-08) (0.000000e+00 0.000000e+00 0.000000e+00))
0.475         	((9.274789e-02 2.189705e-08 -3.123456e-28) (7.780382e-02 1.327364e-08 2.537065e-21) (0.000000e+00 0.000000e+00 0.000000e+00)) ((-9.446794e-21 -2.353453e-21 1.117037e-19) (2.740605e-21 -1.324147e-21 1.307506e-08) (0.000000e+00 0.000000e+00 0.000000e+00))
0.48          	((9.257571e-02 2.163092e-08 -3.569022e-28) (7.751885e-02 1.312600e-08 2.538097e-21) (0.000000e+00 0.000000e+00 0.000000e+00)) ((-9.425423e-21 -2.350323e-21 3.161358e-19) (2.733715e-21 -1.319131e-21 1.284795e-08) (0.000000e+00 0.000000e+00 0.000000e+00))
0.485         	((9.240790e-02 2.181697e-08 -4.309121e-28) (7.723888e-02 1.298630e-08 2.539062e-21) (0.000000e+00 0.000000e+00 0.000000e+00)) ((-9.404541e-21 -2.347288e-21 6.854151e-20) (2.726971e-21 -1.314197e-21 1.262526e-08) (0.000000e+00 0.000000e+00 0.000000e+00))
0.49          	((9.224355e-02 2.132169e-08 -4.389164e-28) (7.696379e-02 1.284101e-08 2.540063e-21) (0.000000e+00 0.000000e+00 0.000000e+00)) ((-9.384020e-21 -2.344337e-21 5.468848e-19) (2.720338e-21 -1.309341e-21 1.240699e-08) (0.000000e+00 0.000000e+00 0.000000e+00))
0.495         	((9.208352e-02 2.153464e-08 -4.801397e-28) (7.669344e-02 1.270133e-08 2.540982e-21) (0.000000e+00 0.000000e+00 0.000000e+00)) ((-9.363987e-21 -2.341480e-21 6.201725e-20) (2.713850e-21 -1.304562e-21 1.219296e-08) (0.000000e+00 0.000000e+00 0.000000e+00))
0.5           	((9.192725e-02 2.130009e-08 -5.019584e-28) (7.642771e-02 1.256206e-08 2.541865e-21) (0.000000e+00 0.000000e+00 0.000000e+00)) ((-9.344370e-21 -2.338709e-21 4.928174e-20) (2.707488e-21 -1.299858e-21 1.198312e-08) (0.000000e+00 0.000000e+00 0.000000e+00))
0.505         	((9.177471e-02 2.125660e-08 -5.282922e-28) (7.616648e-02 1.242544e-08 2.542712e-21) (0.000000e+00 0.000000e+00 0.000000e+00)) ((-9.325161e-21 -2.336025e-21 1.256822e-19) (2.701248e-21 -1.295225e-21 1.177741e-08) (0.000000e+00 0.000000e+00 0.000000e+00))
0.51          	((9.162597e-02 2.113617e-08 -5.646133e-28) (7.590960e-02 1.228997e-08 2.543520e-21) (0.000000e+00 0.000000e+00 0.000000e+00)) ((-9.306364e-21 -2.333461e-21 1.763901e-19) (2.695135e-21 -1.290657e-21 1.157577e-08) (0.000000e+00 0.000000e+00 0.000000e+00))
0.515         	((9.147975e-02 2.101658e-08 -5.367381e-28) (7.565706e-02 1.215031e-08 2.544322e-21) (0.000000e+00 0.000000e+00 0.000000e+00)) ((-9.287771e-21 -2.330834e-21 -1.732103e-19) (2.689093e-21 -1.286169e-21 1.137814e-08) (0.000000e+00 0.000000e+00 0.000000e+00))
0.52          	((9.133673e-02 2.082744e-08 -4.005653e-28) (7.540878e-02 1.202024e-08 2.545099e-21) (0.000000e+00 0.000000e+00 0.000000e+00)) ((-9.269581e-21 -2.328317e-21 2.898846e-19) (2.683168e-21 -1.281757e-21 1.118442e-08) (0.000000e+00 0.000000e+00 0.000000e+00))
0.525         	((9.119835e-02 2.139972e-08 -6.254130e-28) (7.516459e-02 1.188638e-08 2.545773e-21) (0.000000e+00 0.000000e+00 0.000000e+00)) ((-9.252019e-21 -2.325963e-21 2.860646e-19) (2.677444e-21 -1.277414e-21 1.099444e-08) (0.000000e+00 0.000000e+00 0.000000e+00))
0.53          	((9.106260e-02 2.150985e-08 -5.480262e-28) (7.492434e-02 1.175981e-08 2.546440e-21) (0.000000e+00 0.000000e+00 0.000000e+00)) ((-9.234669e-21 -2.323655e-21 2.483441e-19) (2.671782e-21 -1.273131e-21 1.080841e-08) (0.000000e+00 0.000000e+00 0.000000e+00))
0.535         	((9.092900e-02 2.114017e-08 -6.226284e-28) (7.468801e-02 1.163519e-08 2.547112e-21) (0.000000e+00 0.000000e+00 0.000000e+00)) ((-9.217513e-21 -2.321343e-21 5.666907e-19) (2.666173e-21 -1.268916e-21 1.062613e-08) (0.000000e+00 0.000000e+00 0.000000e+00))
0.54          	((9.080039e-02 2.076069e-08 -7.048254e-28) (7.445544e-02 1.151338e-08 2.547675e-21) (0.000000e+00 0.000000e+00 0.000000e+00)) ((-9.201060e-21 -2.319190e-21 7.226186e-19) (2.660775e-21 -1.264761e-21 1.044741e-08) (0.000000e+00 0.000000e+00 0.000000e+00))
0.545         	((9.067346e-02 2.017340e-08 -1.005147e-27) (7.422652e-02 1.139181e-08 2.548276e-21) (0.000000e+00 0.000000e+00 0.000000e+00)) ((-9.184661e-21 -2.317075e-21 1.462210e-19) (2.655395e-21 -1.260656e-21 1.027238e-08) (0.000000e+00 0.000000e+00 0.000000e+00))
0.55          	((9.054858e-02 2.071553e-08 -8.125469e-28) (7.400124e-02 1.127409e-08 2.548855e-21) (0.000000e+00 0.000000e+00 0.000000e+00)) ((-9.168502e-21 -2.314986e-21 1.467042e-21) (2.650088e-21 -1.256614e-21 1.010085e-08) (0.000000e+00 0.000000e+00 0.000000e+00))
0.555         	((9.042770e-02 2.013185e-08 -8.021779e-28) (7.377950e-02 1.115404e-08 2.549367e-21) (0.000000e+00 0.000000e+00 0.000000e+00)) ((-9.152850e-21 -2.312986e-21 7.104541e-20) (2.644928e-21 -1.252630e-21 9.932690e-09) (0.000000e+00 0.000000e+00 0.000000e+00))