/*--------------------------------*- C++ -*----------------------------------*\
  =========                 |
  \\      /  F ield         | OpenFOAM: The Open Source CFD Toolbox
   \\    /   O peration     | Website:  https://openfoam.org
    \\  /    A nd           | Version:  7
     \\/     M anipulation  |
\*---------------------------------------------------------------------------*/
FoamFile
{
    version     2.0;
    format      ascii;
    class       volVectorField;
    location    "35";
    object      U;
}
// * * * * * * * * * * * * * * * * * * * * * * * * * * * * * * * * * * * * * //

dimensions      [0 1 -1 0 0 0 0];

internalField   nonuniform List<vector> 
1987
(
(1.13331 0.285984 -5.23421e-21)
(1.12849 0.273046 -3.21372e-20)
(1.14392 0.332028 1.06453e-20)
(1.13689 0.317191 -5.35109e-20)
(1.13074 0.302864 -7.77786e-20)
(1.12542 0.289041 7.23852e-20)
(1.12088 0.275717 -2.78023e-20)
(1.1609 0.385911 1.23769e-19)
(1.15117 0.368856 1.6957e-20)
(1.14248 0.352323 3.63655e-20)
(1.13482 0.336365 7.94938e-20)
(1.12812 0.320986 -9.78579e-20)
(1.1223 0.306177 2.4206e-20)
(1.11729 0.291925 6.5875e-20)
(1.11305 0.278221 -3.40868e-20)
(1.17138 0.428809 -7.5635e-20)
(1.16066 0.410427 5.73514e-20)
(1.15034 0.392105 -2.95669e-20)
(1.14097 0.374265 -2.037e-20)
(1.13267 0.35705 -7.8746e-20)
(1.12539 0.340489 1.96985e-20)
(1.11906 0.324577 6.53561e-20)
(1.11359 0.309294 5.81636e-20)
(1.10892 0.29462 -4.82002e-20)
(1.10501 0.280543 -1.51278e-22)
(1.17592 0.47199 -2.22073e-19)
(1.16961 0.455611 -1.64281e-19)
(1.15977 0.436744 1.20237e-19)
(1.14925 0.417251 -1.04392e-19)
(1.13929 0.398024 9.27431e-20)
(1.13035 0.379416 -3.00764e-21)
(1.12248 0.36153 3.25174e-21)
(1.11563 0.344378 4.39398e-21)
(1.1097 0.327942 -2.14909e-20)
(1.10462 0.312194 -7.25089e-20)
(1.10032 0.297109 1.92878e-20)
(1.09676 0.282668 -2.13837e-20)
(1.14674 0.498289 -5.08913e-20)
(1.16342 0.495625 1.90701e-19)
(1.16427 0.48271 1.90688e-19)
(1.15732 0.464539 1.19417e-19)
(1.14748 0.444307 -9.90068e-20)
(1.13727 0.423745 -6.16959e-20)
(1.12776 0.403638 -6.81989e-21)
(1.11931 0.38428 -1.46107e-19)
(1.11192 0.365739 -7.03581e-20)
(1.10554 0.348008 7.4039e-20)
(1.10005 0.33106 2.87256e-20)
(1.09539 0.31486 6.05029e-20)
(1.0915 0.299375 -6.60732e-20)
(1.08831 0.284582 7.50151e-20)
(1.08579 0.270466 -3.08239e-20)
(1.09834 0.502536 -7.14301e-20)
(1.13791 0.513511 8.35751e-20)
(1.15199 0.50805 -5.97426e-20)
(1.15154 0.492887 -1.79479e-20)
(1.1442 0.473002 -1.08783e-19)
(1.13452 0.451466 1.93132e-19)
(1.12474 0.429873 1.1846e-19)
(1.11576 0.408916 1.1565e-19)
(1.10785 0.388827 -5.20352e-20)
(1.101 0.369648 8.25347e-20)
(1.09513 0.351356 -8.94562e-20)
(1.09013 0.333912 -7.41012e-20)
(1.08592 0.317273 6.00827e-20)
(1.08245 0.301402 4.40804e-21)
(1.07967 0.286269 -3.11225e-20)
(1.07753 0.271856 4.53519e-20)
(0.894915 0.426059 -2.34811e-19)
(1.01823 0.488256 2.19249e-19)
(1.09144 0.52009 2.29446e-20)
(1.12737 0.527983 -2.61477e-20)
(1.13924 0.519801 -3.40221e-19)
(1.13779 0.502481 6.84692e-20)
(1.1303 0.480965 2.94395e-20)
(1.12093 0.458185 -9.06686e-21)
(1.11168 0.435604 -6.18771e-20)
(1.10331 0.413825 3.5378e-20)
(1.09601 0.39303 5.53987e-20)
(1.08974 0.373234 -1.60407e-20)
(1.08441 0.354398 2.73247e-20)
(1.07993 0.336475 3.23342e-20)
(1.07621 0.319415 -5.6649e-20)
(1.07319 0.303173 -1.28112e-20)
(1.07084 0.287715 1.08392e-20)
(1.0691 0.273018 -4.85715e-20)
(0.478457 0.225355 2.67523e-19)
(0.718009 0.352123 -1.57512e-19)
(0.89563 0.44746 2.72221e-19)
(1.01387 0.507889 -3.4381e-19)
(1.08254 0.536808 4.19736e-21)
(1.11522 0.541652 -4.23295e-20)
(1.12523 0.530835 1.72309e-19)
(1.12308 0.511457 1.17363e-20)
(1.11564 0.488391 -2.06213e-19)
(1.10673 0.464428 7.18828e-20)
(1.09812 0.440902 -7.56189e-20)
(1.09042 0.418335 -7.34907e-21)
(1.08378 0.39686 1.53341e-19)
(1.07814 0.376469 -1.20413e-19)
(1.0734 0.357112 7.13792e-21)
(1.06948 0.33873 -3.0374e-21)
(1.06627 0.321267 3.5553e-20)
(1.06374 0.304672 -6.18429e-22)
(1.06183 0.288906 -2.08885e-20)
(1.06052 0.27394 1.22545e-20)
(0.183363 0.0877615 2.01977e-19)
(0.483465 0.241495 3.17142e-20)
(0.720833 0.372435 9.57162e-21)
(0.894032 0.468184 -1.01432e-19)
(1.00731 0.526664 1.1221e-20)
(1.07175 0.55262 1.58356e-19)
(1.10155 0.554465 8.52765e-20)
(1.11006 0.541109 1.12759e-19)
(1.10747 0.519774 3.32916e-20)
(1.10028 0.495241 1.52053e-19)
(1.09196 0.470157 -1.33491e-19)
(1.08406 0.445735 6.63736e-20)
(1.0771 0.422414 -6.63505e-21)
(1.07118 0.400288 -5.08082e-20)
(1.06621 0.37933 9.30021e-20)
(1.06211 0.359475 -1.25839e-20)
(1.05877 0.340657 1.95445e-20)
(1.05612 0.322812 1.83654e-20)
(1.05409 0.305884 -9.68644e-21)
(1.05266 0.289828 -2.74497e-20)
(1.05179 0.27461 2.32627e-20)
(1.05146 0.260134 1.97691e-21)
(0.186123 0.0948089 -3.23674e-19)
(0.486931 0.257462 -3.11263e-19)
(0.721572 0.392243 5.14053e-22)
(0.890187 0.488119 1.73329e-20)
(0.998645 0.544489 -2.88638e-20)
(1.05917 0.567458 -9.83509e-20)
(1.08646 0.56637 -2.40104e-19)
(1.09379 0.550583 1.36937e-20)
(1.09103 0.527394 -3.51999e-21)
(1.08425 0.50148 -6.84194e-20)
(1.07664 0.475339 3.46218e-20)
(1.06954 0.450067 -1.34681e-19)
(1.06339 0.426031 -7.16021e-20)
(1.05822 0.403288 1.6534e-20)
(1.05398 0.38179 1.12613e-20)
(1.05055 0.361464 -4.83021e-20)
(1.04784 0.342235 -1.6978e-21)
(1.04576 0.324033 -1.54567e-20)
(1.04427 0.306793 1.40573e-20)
(1.04333 0.290468 2.90392e-20)
(1.04292 0.275015 -9.55758e-21)
(1.04304 0.260335 4.81395e-21)
(0.188248 0.101837 2.30853e-19)
(0.488847 0.27315 1.62369e-19)
(0.720258 0.411428 -9.8281e-20)
(0.884168 0.507155 3.29093e-19)
(0.987974 0.561279 2.62375e-19)
(1.04492 0.581257 1.964e-19)
(1.07004 0.577319 3.05053e-20)
(1.07651 0.559211 -1.3003e-19)
(1.07379 0.534277 -6.3338e-21)
(1.0676 0.50707 6.39283e-20)
(1.0608 0.479938 -6.2036e-20)
(1.05458 0.453866 1.0465e-19)
(1.04929 0.429156 8.1265e-20)
(1.04494 0.405831 7.05992e-21)
(1.04146 0.383827 5.9919e-21)
(1.03874 0.36306 -8.00655e-21)
(1.03668 0.343447 -3.31873e-20)
(1.03522 0.324912 -6.24668e-22)
(1.03429 0.307385 -9.52862e-21)
(1.03386 0.290812 2.60199e-21)
(1.03393 0.275145 -3.22371e-21)
(1.0345 0.260279 -3.32958e-21)
(0.189725 0.108797 1.66657e-19)
(0.489218 0.288454 -2.06737e-19)
(0.716934 0.42987 -8.50994e-20)
(0.876057 0.525186 -5.28192e-20)
(0.975403 0.576952 -3.09069e-20)
(1.02909 0.593958 -2.1201e-19)
(1.05239 0.587264 -3.75642e-20)
(1.05828 0.566955 1.47036e-19)
(1.05583 0.540386 -9.3448e-20)
(1.05036 0.511974 -3.66153e-20)
(1.04448 0.48392 -1.37151e-20)
(1.03921 0.457101 1.78133e-20)
(1.03483 0.43176 -1.13372e-19)
(1.03135 0.407892 -1.69935e-20)
(1.02867 0.385416 1.35762e-20)
(1.02669 0.36424 -1.50258e-20)
(1.02533 0.344274 1.06496e-20)
(1.0245 0.325434 -1.42276e-21)
(1.02416 0.307645 8.36957e-21)
(1.02427 0.290848 -8.4861e-21)
(1.02482 0.274988 1.76758e-20)
(1.02587 0.259957 2.42958e-20)
(1.02731 0.245747 -1.29141e-20)
(0.190549 0.11564 -1.8896e-19)
(0.488059 0.303273 1.61081e-19)
(0.711656 0.447459 1.26809e-19)
(0.865949 0.542115 -2.21533e-19)
(0.961046 0.59143 -7.05863e-20)
(1.01179 0.605499 2.97695e-19)
(1.0336 0.596159 5.3167e-20)
(1.03918 0.573774 3.41541e-20)
(1.03719 0.545683 -9.32798e-20)
(1.03258 0.516157 2.28352e-20)
(1.02771 0.48725 2.31862e-20)
(1.02345 0.45974 4.67098e-20)
(1.02005 0.433816 1.01178e-20)
(1.01747 0.409446 -8.51374e-21)
(1.01562 0.386537 -2.12204e-20)
(1.01443 0.364986 6.16885e-21)
(1.01378 0.344698 -5.60955e-21)
(1.01363 0.325582 -5.13765e-21)
(1.0139 0.307559 -5.78383e-21)
(1.01456 0.290563 1.13444e-20)
(1.01563 0.274534 -1.89647e-20)
(1.01715 0.259359 2.52247e-20)
(1.01905 0.245048 -1.02679e-20)
(0.190717 0.122321 -1.52779e-19)
(0.485394 0.317509 2.88464e-20)
(0.704492 0.464085 1.85219e-19)
(0.853949 0.55785 2.70288e-19)
(0.945017 0.60465 -2.98493e-19)
(0.993121 0.615823 -2.31933e-19)
(1.01375 0.603957 -2.73509e-20)
(1.01928 0.579629 -7.77329e-20)
(1.01793 0.550132 3.11863e-20)
(1.0143 0.519585 -6.86203e-20)
(1.01051 0.489897 -3.31192e-20)
(1.00734 0.461755 -3.5344e-20)
(1.00495 0.435298 1.42827e-20)
(1.00332 0.41047 1.27192e-20)
(1.00235 0.387167 8.56938e-21)
(1.00197 0.365279 8.60697e-21)
(1.00208 0.344703 -8.7027e-22)
(1.00261 0.325343 2.09884e-22)
(1.00352 0.307114 -7.94893e-21)
(1.00476 0.289947 1.67945e-20)
(1.00635 0.273773 2.91484e-20)
(1.00835 0.258479 -1.29829e-20)
(1.01072 0.244085 -2.54596e-20)
(0.190232 0.128792 1.81619e-20)
(0.481256 0.331066 6.91808e-20)
(0.69552 0.479641 -6.63962e-20)
(0.840165 0.5723 -4.74845e-20)
(0.927405 0.616539 5.05802e-20)
(0.97319 0.624893 8.16147e-20)
(0.992945 0.610613 9.141e-21)
(0.998645 0.584481 7.20671e-20)
(0.998101 0.553698 6.40896e-20)
(0.995564 0.522223 5.99189e-20)
(0.992941 0.491829 2.28272e-20)
(0.990899 0.463116 1.83516e-20)
(0.989577 0.436179 8.41461e-21)
(0.988932 0.410941 -4.66658e-23)
(0.988881 0.387288 6.81389e-22)
(0.989337 0.365101 -1.63423e-20)
(0.990225 0.344272 3.50065e-21)
(0.991478 0.324701 -1.58554e-20)
(0.993043 0.306298 6.00698e-20)
(0.994886 0.288987 -3.50194e-20)
(0.997013 0.272695 -2.79294e-20)
(0.999505 0.257307 -8.40418e-20)
(1.00232 0.242854 9.03202e-20)
(1.00487 0.229923 -2.17544e-20)
(0.189101 0.135012 6.51678e-20)
(0.475691 0.343855 -7.3915e-20)
(0.684833 0.494034 -1.30424e-19)
(0.824681 0.585385 -3.09308e-19)
(0.908324 0.627028 3.29147e-20)
(0.952125 0.632653 -7.28521e-21)
(0.971273 0.616098 1.00798e-19)
(0.977359 0.588299 -1.90042e-20)
(0.977766 0.556349 3.14598e-20)
(0.976418 0.524043 1.44644e-20)
(0.975028 0.493019 -1.51335e-21)
(0.974171 0.463798 5.52917e-21)
(0.973956 0.436436 -8.25803e-21)
(0.974334 0.410839 -1.10271e-21)
(0.975228 0.38688 -1.35842e-20)
(0.976556 0.364436 -1.28645e-20)
(0.978247 0.343393 1.37308e-20)
(0.980241 0.323645 4.73407e-20)
(0.982486 0.305099 -4.51847e-21)
(0.984948 0.287674 1.96506e-20)
(0.987632 0.271291 -1.59437e-20)
(0.990622 0.255838 1.06166e-19)
(0.993887 0.241346 -9.75019e-20)
(0.996912 0.22839 1.79574e-20)
(0.187337 0.140937 5.3246e-20)
(0.468757 0.355789 -4.85414e-20)
(0.672531 0.50719 -5.82058e-20)
(0.807584 0.597013 5.72934e-20)
(0.887917 0.636066 -1.10637e-19)
(0.930021 0.639057 -1.00147e-19)
(0.948821 0.620374 -4.46332e-20)
(0.955488 0.591051 3.02394e-20)
(0.956979 0.558054 -1.52333e-20)
(0.956909 0.525013 2.56397e-20)
(0.956813 0.493438 -6.16669e-21)
(0.957189 0.463777 2.4621e-20)
(0.958119 0.436048 9.5209e-21)
(0.959554 0.410143 1.80827e-20)
(0.961421 0.385926 6.17754e-20)
(0.963647 0.363268 1.61005e-20)
(0.966166 0.34205 8.72173e-20)
(0.968922 0.322162 2.29046e-20)
(0.971867 0.303506 2.76552e-20)
(0.974966 0.285997 -4.24824e-20)
(0.978227 0.269551 9.65448e-20)
(0.981723 0.254062 8.08628e-21)
(0.985426 0.239555 2.24248e-20)
(0.988922 0.226572 -3.18208e-20)
(0.184953 0.146522 4.86396e-20)
(0.460517 0.366773 -1.42965e-19)
(0.658672 0.519017 2.6885e-19)
(0.78903 0.607154 2.43701e-19)
(0.866313 0.643591 1.56959e-19)
(0.906986 0.644067 -7.40631e-20)
(0.925679 0.623409 4.04164e-20)
(0.933104 0.592705 -2.41484e-20)
(0.935799 0.558786 -7.48839e-21)
(0.937085 0.525109 -1.22657e-20)
(0.938339 0.493064 -8.81313e-21)
(0.939989 0.463029 -4.27347e-20)
(0.942099 0.434995 1.16438e-20)
(0.944622 0.408836 -3.41169e-20)
(0.947489 0.384411 -3.09109e-20)
(0.950636 0.361584 -4.24098e-20)
(0.954003 0.340231 -6.74601e-20)
(0.957541 0.32024 -1.5769e-19)
(0.961204 0.301509 -1.1277e-19)
(0.964961 0.283947 -9.12569e-20)
(0.968818 0.267468 -5.47417e-20)
(0.97283 0.251974 -1.47737e-20)
(0.976957 0.237475 7.66937e-20)
(0.980905 0.224449 -6.60025e-20)
(0.985496 0.212185 -4.78666e-20)
(0.18196 0.151719 2.48662e-20)
(0.451032 0.376748 1.67376e-19)
(0.64335 0.529406 -2.58269e-19)
(0.769169 0.615737 -1.51794e-19)
(0.843622 0.649574 -1.05513e-19)
(0.883127 0.647652 2.79028e-21)
(0.901935 0.625174 -3.45882e-20)
(0.91028 0.593237 1.53577e-20)
(0.914285 0.558517 -1.10023e-20)
(0.916997 0.524304 -4.20814e-21)
(0.919648 0.491872 -3.02435e-20)
(0.92261 0.461536 1.76794e-20)
(0.925932 0.433259 4.24385e-20)
(0.929568 0.406904 2.60478e-20)
(0.93346 0.382321 -5.81289e-20)
(0.937548 0.359371 1.01228e-19)
(0.941783 0.337926 -5.23829e-20)
(0.946119 0.31787 2.82358e-20)
(0.950516 0.299097 9.30757e-20)
(0.954949 0.281514 7.79122e-20)
(0.959423 0.265033 -3.47022e-20)
(0.963965 0.249569 4.47681e-20)
(0.968502 0.235103 7.20839e-21)
(0.972889 0.222015 1.02979e-19)
(0.978207 0.20991 -1.47536e-19)
(0.178366 0.156455 -5.65802e-21)
(0.440405 0.385653 -8.16559e-21)
(0.626714 0.538323 1.39435e-19)
(0.748102 0.622693 -8.61164e-20)
(0.819962 0.653973 1.18483e-19)
(0.858549 0.649783 1.16434e-20)
(0.877679 0.625644 6.10302e-22)
(0.887088 0.592623 -6.89009e-21)
(0.892497 0.557227 3.9448e-24)
(0.896696 0.522579 -1.72593e-20)
(0.900786 0.489843 6.09874e-20)
(0.905092 0.459279 1.86303e-20)
(0.909652 0.430824 -3.75274e-20)
(0.914426 0.40433 -6.46742e-20)
(0.919362 0.379643 1.95898e-20)
(0.924411 0.356619 -1.25022e-20)
(0.929528 0.335125 -1.01223e-19)
(0.934677 0.315043 2.14697e-19)
(0.939823 0.296264 4.67177e-20)
(0.944948 0.27869 4.97969e-21)
(0.950059 0.262236 -1.17415e-19)
(0.955141 0.246837 -8.11564e-20)
(0.960089 0.232437 -2.29909e-20)
(0.964973 0.219281 -1.89934e-20)
(0.971166 0.207398 1.89204e-19)
(0.17424 0.160676 -1.61775e-20)
(0.428703 0.393376 -5.31817e-20)
(0.608868 0.545715 -5.8329e-20)
(0.725952 0.627979 1.08467e-19)
(0.795451 0.656753 1.1133e-20)
(0.833359 0.650434 -1.57402e-20)
(0.852999 0.624797 1.75318e-20)
(0.863601 0.590841 5.64778e-21)
(0.870495 0.554894 -4.45431e-20)
(0.876233 0.519914 -5.91377e-20)
(0.881799 0.486961 -6.39522e-20)
(0.887476 0.456243 -4.10156e-21)
(0.893297 0.427676 2.93184e-20)
(0.899229 0.401104 -7.01013e-20)
(0.905226 0.376367 -1.43622e-20)
(0.91125 0.353317 -9.3646e-20)
(0.917264 0.331819 2.03565e-19)
(0.923237 0.311751 9.13399e-20)
(0.929142 0.293003 3.07917e-20)
(0.934973 0.275468 -4.79691e-20)
(0.940733 0.259068 -4.86617e-21)
(0.946359 0.243757 4.66038e-20)
(0.951757 0.229436 3.07456e-21)
(0.957337 0.21621 1.28261e-19)
(0.964616 0.204738 1.12682e-19)
(0.169639 0.164402 -5.48216e-20)
(0.415989 0.399865 8.49651e-20)
(0.589925 0.551513 6.14014e-20)
(0.702845 0.631556 -3.17058e-20)
(0.770212 0.657887 1.82186e-20)
(0.807662 0.649585 4.84696e-21)
(0.827983 0.622615 3.18253e-20)
(0.839892 0.587875 1.79359e-20)
(0.848342 0.551502 3.88404e-20)
(0.855662 0.516293 1.28616e-19)
(0.862733 0.483209 1.18236e-19)
(0.869805 0.452414 6.36132e-20)
(0.876906 0.423805 1.52062e-20)
(0.884011 0.397216 9.21809e-21)
(0.891084 0.372485 7.02921e-20)
(0.898095 0.34946 5.46242e-20)
(0.905016 0.328003 -4.52806e-20)
(0.911822 0.307991 -3.24997e-19)
(0.918495 0.289308 2.38533e-20)
(0.925039 0.271845 4.86492e-20)
(0.931448 0.255524 5.53881e-20)
(0.937616 0.240312 7.45417e-20)
(0.94355 0.226036 8.67836e-21)
(0.950079 0.212589 -3.85934e-19)
(0.958237 0.201728 7.00572e-20)
(0.164573 0.1676 -2.10272e-20)
(0.402355 0.405084 -3.79767e-20)
(0.570009 0.555669 -6.00497e-20)
(0.678911 0.633392 6.62327e-21)
(0.744366 0.657352 -1.78111e-20)
(0.781564 0.64722 -2.70164e-20)
(0.802718 0.619085 -3.08984e-20)
(0.816034 0.583711 -2.69444e-20)
(0.8261 0.547037 -8.46784e-20)
(0.835037 0.511703 1.90185e-20)
(0.843637 0.478578 -1.15378e-19)
(0.85212 0.447783 -8.46251e-20)
(0.860516 0.4192 1.14202e-20)
(0.868807 0.392658 -6.37082e-20)
(0.876967 0.367989 7.55089e-20)
(0.884974 0.345041 -3.32383e-20)
(0.892808 0.323672 -7.35923e-21)
(0.900454 0.303757 2.00668e-19)
(0.907901 0.285177 -1.62559e-19)
(0.91516 0.26782 5.88749e-20)
(0.92221 0.25161 1.2111e-19)
(0.928925 0.236518 -7.57845e-20)
(0.935489 0.222281 2.05344e-19)
(0.94307 0.208326 2.44097e-19)
(0.950826 0.196325 3.92703e-20)
(0.159068 0.170236 -3.88145e-20)
(0.387901 0.408996 3.02597e-20)
(0.549243 0.558145 1.80866e-21)
(0.65428 0.633461 2.31498e-20)
(0.718033 0.655133 1.12117e-20)
(0.755168 0.643329 3.78274e-20)
(0.777293 0.614197 7.30063e-21)
(0.792101 0.57834 -2.12421e-20)
(0.803831 0.541491 5.94384e-20)
(0.814413 0.506134 1.1152e-19)
(0.824559 0.473057 9.22218e-20)
(0.834467 0.442341 -5.04866e-21)
(0.844168 0.413855 4.32538e-20)
(0.853653 0.387423 6.43155e-20)
(0.862906 0.362875 -9.84341e-21)
(0.871915 0.340056 -3.27764e-20)
(0.880669 0.318822 7.573e-20)
(0.889158 0.299047 1.13141e-19)
(0.897382 0.280609 1.91637e-19)
(0.905354 0.263395 -2.01411e-19)
(0.91304 0.247332 -1.27213e-19)
(0.92033 0.232391 2.44261e-20)
(0.927558 0.218296 2.3685e-20)
(0.935781 0.204473 -1.13073e-19)
(0.942816 0.19255 -1.07189e-19)
(0.153163 0.172282 2.69532e-21)
(0.372724 0.411562 -2.46048e-20)
(0.527751 0.558912 -3.50785e-20)
(0.629079 0.631744 -5.35504e-20)
(0.691332 0.65122 1.72109e-20)
(0.728578 0.637905 1.42512e-20)
(0.751795 0.607946 1.69251e-20)
(0.768166 0.571755 -9.76418e-20)
(0.781597 0.534854 1.83278e-19)
(0.793845 0.499581 -1.20454e-19)
(0.805549 0.46664 -2.97279e-19)
(0.81689 0.436084 4.88775e-20)
(0.827902 0.407766 -2.65196e-19)
(0.838586 0.381509 1.531e-20)
(0.848936 0.35714 1.42634e-19)
(0.85895 0.334502 1.56315e-19)
(0.868624 0.313453 -4.82983e-19)
(0.877957 0.293861 -9.47546e-21)
(0.886957 0.275605 -3.42031e-19)
(0.89564 0.258569 1.1191e-20)
(0.903965 0.242682 4.28855e-20)
(0.911856 0.227903 -2.01405e-19)
(0.919721 0.213923 -1.24272e-19)
(0.928361 0.200149 -1.92691e-20)
(0.935134 0.188148 -2.22924e-19)
(0.146901 0.173716 -4.79758e-21)
(0.356923 0.412751 6.91818e-20)
(0.505657 0.557947 5.5437e-20)
(0.603438 0.62823 3.81288e-20)
(0.664381 0.645609 -1.46439e-19)
(0.701895 0.630946 2.22801e-20)
(0.726309 0.60033 1.75069e-20)
(0.744301 0.563954 1.31285e-20)
(0.759464 0.527126 -1.45201e-19)
(0.77339 0.492039 -2.44968e-19)
(0.786657 0.459326 1.18157e-19)
(0.799433 0.429008 -1.63088e-19)
(0.811758 0.400931 1.96741e-19)
(0.823642 0.374914 1.45627e-19)
(0.83509 0.350783 -1.33155e-19)
(0.846107 0.328381 -3.7408e-21)
(0.8567 0.307563 3.63351e-19)
(0.866876 0.288199 -2.72002e-20)
(0.87665 0.270165 7.02017e-20)
(0.886038 0.253346 3.93367e-20)
(0.895002 0.23767 5.30987e-21)
(0.9035 0.223087 9.26733e-20)
(0.911956 0.209278 1.03774e-19)
(0.920954 0.195698 -1.69094e-19)
(0.927777 0.183889 5.9666e-20)
(0.140327 0.174518 1.58641e-21)
(0.340599 0.412538 3.92277e-20)
(0.483087 0.555236 5.43988e-20)
(0.577484 0.622915 2.67214e-20)
(0.637297 0.638301 1.0658e-19)
(0.675221 0.622458 5.81509e-20)
(0.70092 0.591352 8.94042e-20)
(0.720581 0.554938 -5.11939e-21)
(0.737493 0.518305 1.49501e-19)
(0.753102 0.483509 -1.3448e-19)
(0.767933 0.451113 3.72822e-19)
(0.782142 0.421114 6.35332e-20)
(0.795777 0.39335 -1.82254e-19)
(0.808858 0.367638 -2.2306e-19)
(0.821399 0.343805 1.06689e-19)
(0.833417 0.321692 -1.40272e-19)
(0.844926 0.301155 -2.65624e-19)
(0.855941 0.282063 1.85781e-19)
(0.866482 0.264291 3.59743e-20)
(0.876571 0.247726 1.7914e-19)
(0.886173 0.232295 -5.97416e-20)
(0.895273 0.217936 -4.9694e-20)
(0.90428 0.20433 2.69968e-19)
(0.913632 0.190993 1.93565e-19)
(0.920675 0.17944 -2.14432e-21)
(0.133489 0.174674 -4.43212e-20)
(0.323852 0.410906 -9.87006e-20)
(0.460165 0.550771 -6.69931e-20)
(0.551343 0.615802 -6.80705e-21)
(0.610195 0.629306 -2.85122e-20)
(0.648655 0.612449 -1.02194e-19)
(0.675714 0.581021 -5.69931e-20)
(0.697076 0.544712 -6.04525e-20)
(0.715747 0.508396 -7.61494e-20)
(0.733039 0.473993 2.03494e-19)
(0.749427 0.442005 -1.85699e-19)
(0.765063 0.412405 1.47357e-19)
(0.780001 0.385027 3.25549e-19)
(0.794271 0.359686 1.44736e-19)
(0.807899 0.336209 -2.13983e-19)
(0.820911 0.314439 8.77168e-20)
(0.833328 0.294232 6.60389e-20)
(0.845174 0.275456 1.96281e-20)
(0.856477 0.257988 2.99343e-19)
(0.86726 0.241715 -2.13523e-19)
(0.877497 0.226562 -1.70585e-19)
(0.887189 0.212462 -4.15976e-20)
(0.896727 0.199102 -1.76529e-19)
(0.906449 0.186062 -1.76674e-19)
(0.913804 0.174789 3.22104e-19)
(0.126432 0.174172 4.08897e-20)
(0.306786 0.407844 -8.7565e-21)
(0.437017 0.544553 -1.00559e-19)
(0.525141 0.6069 -1.72924e-19)
(0.583187 0.618636 -1.42467e-19)
(0.622294 0.600932 2.10908e-19)
(0.650772 0.569346 1.65275e-19)
(0.673858 0.533287 1.53542e-19)
(0.69429 0.497407 3.30903e-20)
(0.713255 0.463499 1.53894e-19)
(0.731189 0.432007 -1.33678e-19)
(0.74824 0.402887 -2.64945e-19)
(0.764469 0.375966 -3.91324e-19)
(0.779918 0.351061 -2.64358e-19)
(0.794623 0.328001 2.99865e-19)
(0.808618 0.306627 -1.995e-19)
(0.821934 0.286799 -1.53505e-19)
(0.834603 0.268384 1.09403e-19)
(0.846658 0.25126 7.43915e-20)
(0.858126 0.235316 -4.88811e-20)
(0.868991 0.220477 4.86359e-20)
(0.879265 0.206667 1.03692e-19)
(0.88932 0.193591 1.15753e-20)
(0.899427 0.180886 -7.71865e-20)
(0.907147 0.169907 -3.71242e-19)
(0.119204 0.173003 -1.40868e-19)
(0.289503 0.403348 4.01498e-20)
(0.413765 0.536589 -6.79563e-20)
(0.499 0.596225 4.63845e-20)
(0.556385 0.606311 2.0699e-19)
(0.596234 0.587926 -2.18732e-19)
(0.626177 0.556345 -5.83138e-20)
(0.650999 0.520676 -4.06768e-19)
(0.673183 0.485349 -6.55691e-20)
(0.693807 0.452037 3.1149e-19)
(0.713269 0.42113 -1.7279e-19)
(0.731718 0.392568 2.80589e-19)
(0.749223 0.366176 3.38668e-19)
(0.765836 0.341772 7.1927e-20)
(0.781603 0.319186 2.02774e-19)
(0.796569 0.298263 -1.88475e-21)
(0.810772 0.278861 2.82096e-19)
(0.824251 0.260851 -2.18735e-19)
(0.837047 0.244112 -3.43507e-19)
(0.849191 0.228535 -1.54872e-19)
(0.860674 0.214043 -5.31415e-20)
(0.87152 0.200557 2.47781e-20)
(0.882083 0.1878 1.35593e-19)
(0.892584 0.175461 1.37373e-19)
(0.900703 0.164786 3.40618e-19)
(0.111855 0.171164 3.40274e-20)
(0.272104 0.397423 2.0916e-19)
(0.390531 0.526896 1.06529e-19)
(0.473039 0.583799 1.83965e-19)
(0.529897 0.592355 -1.60314e-19)
(0.570567 0.573455 -7.01725e-20)
(0.602009 0.542038 -1.66507e-19)
(0.628567 0.506894 1.16542e-19)
(0.652488 0.472237 -9.42717e-20)
(0.674748 0.439619 -4.23906e-19)
(0.695717 0.409384 -5.82483e-20)
(0.715542 0.381459 -2.89615e-19)
(0.734303 0.355667 7.74134e-20)
(0.752061 0.331828 1.136e-19)
(0.768874 0.309775 -2.4356e-19)
(0.784794 0.289355 -8.74656e-22)
(0.799869 0.270428 -1.58237e-19)
(0.814144 0.252866 -1.05611e-19)
(0.827668 0.236552 1.45403e-19)
(0.840476 0.221377 1.77153e-19)
(0.852566 0.207266 1.98049e-19)
(0.863972 0.194137 -1.76055e-19)
(0.875034 0.181732 -1.73339e-19)
(0.885932 0.169783 6.86536e-20)
(0.894471 0.159421 -2.82819e-19)
(0.104433 0.168654 1.42239e-19)
(0.254692 0.390079 -3.19008e-19)
(0.367435 0.515494 -1.692e-19)
(0.447377 0.569652 1.34883e-19)
(0.503828 0.5768 4.35746e-20)
(0.545385 0.557546 2.80586e-19)
(0.578345 0.526448 -7.28447e-20)
(0.60663 0.491965 -6.38052e-20)
(0.632266 0.458089 3.29909e-21)
(0.656134 0.426262 1.01408e-19)
(0.678582 0.396786 4.48283e-19)
(0.699757 0.369574 -1.8831e-19)
(0.719748 0.344451 7.24123e-21)
(0.738629 0.321241 2.74814e-19)
(0.756467 0.299778 -4.78355e-19)
(0.773322 0.279912 4.7103e-20)
(0.78925 0.261507 1.63231e-20)
(0.804306 0.244438 -1.48691e-19)
(0.818541 0.228587 2.16599e-19)
(0.831999 0.213851 -1.061e-19)
(0.844685 0.200153 1.78488e-19)
(0.85664 0.187412 1.85866e-19)
(0.86819 0.17539 1.34423e-19)
(0.879484 0.163852 7.02438e-20)
(0.888455 0.153813 -9.31487e-20)
(0.0969853 0.165477 7.16893e-20)
(0.237365 0.381332 -9.48768e-21)
(0.344594 0.502412 -1.16232e-21)
(0.422128 0.553819 -5.75377e-20)
(0.478279 0.55968 1.33098e-19)
(0.520777 0.540232 -4.01964e-19)
(0.555263 0.509606 2.52286e-19)
(0.585256 0.475911 2.30025e-19)
(0.612574 0.442927 2.04652e-19)
(0.638017 0.411986 -2.40575e-19)
(0.66191 0.383352 -4.54585e-19)
(0.684404 0.356929 4.00228e-19)
(0.705599 0.332545 -3.81551e-19)
(0.725577 0.310024 2.61852e-21)
(0.744414 0.289208 1.02525e-20)
(0.762182 0.269948 -4.87545e-20)
(0.778944 0.252111 4.15873e-19)
(0.794761 0.235575 2.34096e-19)
(0.809691 0.220227 1.45227e-19)
(0.823783 0.205964 -1.51806e-20)
(0.837049 0.192712 -3.01832e-19)
(0.849539 0.180389 -5.82493e-20)
(0.861567 0.168777 -1.49145e-19)
(0.873251 0.157669 -2.97319e-19)
(0.882662 0.147966 -2.81434e-20)
(0.0895611 0.161638 -1.72288e-19)
(0.220223 0.371207 6.62033e-20)
(0.322121 0.487688 1.37709e-19)
(0.397402 0.536341 -1.02393e-19)
(0.453352 0.541037 3.79976e-19)
(0.496828 0.521551 2.0378e-19)
(0.532836 0.491542 -5.77701e-20)
(0.564508 0.458763 5.77663e-20)
(0.593471 0.426776 -1.59623e-19)
(0.620449 0.396813 3.8437e-19)
(0.645749 0.369103 2.60018e-19)
(0.669527 0.343543 1.52352e-19)
(0.691892 0.319964 5.07077e-19)
(0.712937 0.298194 -3.71995e-19)
(0.732748 0.278079 1.47902e-19)
(0.751403 0.259474 -4.3556e-19)
(0.768975 0.242251 -2.52793e-19)
(0.785531 0.22629 -5.66066e-20)
(0.801137 0.211481 -4.60443e-19)
(0.815845 0.197726 4.00925e-19)
(0.829675 0.18495 -2.10263e-19)
(0.842687 0.173074 1.75249e-19)
(0.855178 0.161899 -3.69774e-20)
(0.867245 0.151239 1.9589e-19)
(0.877097 0.141886 -9.97911e-21)
(0.0822075 0.157148 -1.00583e-19)
(0.20336 0.359733 6.04895e-20)
(0.300129 0.471363 -2.06852e-19)
(0.373306 0.517266 1.5706e-19)
(0.42914 0.520916 -2.34829e-19)
(0.473621 0.501543 -1.32562e-19)
(0.511136 0.472294 -7.20985e-20)
(0.544451 0.440551 1.02774e-19)
(0.575013 0.409664 -3.33525e-19)
(0.60348 0.38077 -8.61015e-20)
(0.630145 0.354063 2.49067e-20)
(0.655167 0.329438 -7.06333e-19)
(0.678666 0.306728 3.23116e-19)
(0.700745 0.285768 -7.93231e-20)
(0.721498 0.266407 8.36347e-21)
(0.741013 0.248507 1.03974e-19)
(0.759369 0.231941 -2.87275e-20)
(0.776641 0.216595 2.85803e-20)
(0.7929 0.202362 1.8437e-19)
(0.808205 0.189148 -1.29652e-21)
(0.822582 0.176878 -2.93933e-21)
(0.836099 0.165477 4.85592e-21)
(0.849037 0.154762 3.78423e-19)
(0.861476 0.144568 -1.40425e-19)
(0.871768 0.135581 6.17073e-20)
(0.0749712 0.15202 1.07675e-19)
(0.18687 0.346946 -1.51977e-19)
(0.278723 0.453486 2.86891e-19)
(0.349945 0.496645 -2.16743e-19)
(0.405736 0.499368 2.48396e-19)
(0.451236 0.480254 2.54802e-19)
(0.490233 0.451902 1.73205e-19)
(0.525145 0.421313 -1.63319e-20)
(0.557255 0.391625 9.38965e-21)
(0.58716 0.363885 -6.62042e-20)
(0.615141 0.338258 2.02164e-19)
(0.641364 0.314638 1.89798e-19)
(0.665957 0.29286 -1.19039e-19)
(0.689032 0.272767 3.21173e-19)
(0.710694 0.254212 -7.43112e-20)
(0.731038 0.237062 3.83199e-19)
(0.75015 0.221197 1.79645e-19)
(0.768113 0.206504 3.87067e-20)
(0.785001 0.192882 -2.31512e-20)
(0.800881 0.18024 -2.12352e-19)
(0.815786 0.168505 2.51815e-19)
(0.829789 0.157605 -1.64876e-19)
(0.843157 0.147375 -1.946e-19)
(0.855957 0.137663 1.79278e-20)
(0.866683 0.129058 1.43763e-19)
(0.0678976 0.146272 -2.27613e-20)
(0.170843 0.332888 2.65179e-19)
(0.258007 0.434112 -1.11014e-19)
(0.327417 0.474537 -6.35419e-20)
(0.383229 0.476448 -1.06699e-19)
(0.42975 0.457735 -2.79655e-19)
(0.470192 0.43041 1.62946e-19)
(0.506649 0.401085 4.26042e-19)
(0.540249 0.372692 3.58179e-19)
(0.571536 0.346189 3.52974e-20)
(0.600781 0.321717 2.37867e-19)
(0.628156 0.299168 -2.60756e-19)
(0.653799 0.278384 -4.9062e-19)
(0.677831 0.259212 -2.73262e-19)
(0.700366 0.241513 1.08346e-20)
(0.721504 0.225159 2.14339e-19)
(0.741342 0.210034 2.1687e-19)
(0.759966 0.196032 5.02074e-21)
(0.777459 0.183055 1.76883e-19)
(0.79389 0.171016 -1.16594e-19)
(0.809301 0.159844 -2.09994e-19)
(0.823771 0.14947 -1.86411e-19)
(0.837552 0.139746 5.08429e-20)
(0.850697 0.130533 4.50136e-20)
(0.86185 0.122327 -1.32965e-19)
(0.0610307 0.139923 -3.7481e-19)
(0.155366 0.317606 9.23792e-20)
(0.23808 0.413301 2.18295e-20)
(0.305817 0.451005 2.77249e-19)
(0.361703 0.452216 -2.50094e-19)
(0.409235 0.434039 3.99254e-19)
(0.451078 0.407865 -2.71266e-19)
(0.489019 0.379912 -1.84514e-19)
(0.524045 0.352904 -4.9904e-19)
(0.556652 0.327717 7.00885e-20)
(0.587105 0.304471 -9.53985e-20)
(0.615581 0.283057 -1.52198e-19)
(0.642227 0.263324 2.34808e-19)
(0.667173 0.245126 9.23338e-20)
(0.690539 0.228331 -3.47345e-20)
(0.712437 0.212817 -2.0235e-19)
(0.732967 0.198472 -2.88085e-19)
(0.752223 0.185196 -1.46453e-19)
(0.770292 0.172896 -2.78739e-19)
(0.78725 0.161488 1.18433e-19)
(0.803144 0.150906 -4.10702e-20)
(0.818059 0.141083 5.64286e-19)
(0.832232 0.131885 -3.50455e-19)
(0.845708 0.123186 -1.59591e-19)
(0.857276 0.115399 2.23894e-19)
(0.0544131 0.132997 4.38911e-20)
(0.140522 0.301152 -9.16654e-20)
(0.219036 0.391119 -2.53622e-19)
(0.285234 0.426117 6.67913e-20)
(0.341236 0.426735 -4.23526e-20)
(0.389761 0.409223 -8.68852e-20)
(0.432952 0.38432 2.01245e-19)
(0.472309 0.357839 -4.97871e-19)
(0.508692 0.332302 2.81838e-19)
(0.542554 0.308507 -2.38336e-19)
(0.574154 0.286554 -2.15193e-19)
(0.603675 0.266336 1.42541e-19)
(0.631272 0.247709 9.57744e-20)
(0.657085 0.230536 2.0054e-19)
(0.681242 0.21469 2.91663e-19)
(0.70386 0.200056 5.72611e-20)
(0.725047 0.186529 3.94789e-19)
(0.744903 0.174013 -1.64873e-19)
(0.763519 0.162421 1.62723e-19)
(0.780975 0.151673 -1.67138e-19)
(0.797329 0.141705 2.16388e-19)
(0.812666 0.132455 -2.37881e-19)
(0.827209 0.123804 8.49021e-20)
(0.841 0.115634 -6.0391e-20)
(0.852969 0.108282 -9.44799e-20)
(0.0480853 0.12552 2.82663e-19)
(0.12639 0.283585 -9.7792e-20)
(0.200963 0.367638 1.36981e-19)
(0.265753 0.399946 -5.45841e-21)
(0.321906 0.400075 2.99698e-19)
(0.371394 0.383349 -3.73512e-19)
(0.41587 0.359827 1.81247e-19)
(0.45657 0.334913 1.41314e-19)
(0.494235 0.310929 8.39048e-20)
(0.529281 0.288597 1.92442e-19)
(0.561963 0.268001 -1.22362e-19)
(0.59247 0.249037 4.14319e-19)
(0.620965 0.23157 -1.6949e-19)
(0.647596 0.215468 -1.12814e-19)
(0.672498 0.200614 -3.10719e-19)
(0.695796 0.1869 -2.19753e-19)
(0.717603 0.174226 -8.11125e-20)
(0.738023 0.162502 2.13856e-19)
(0.757155 0.151646 -3.36175e-20)
(0.775083 0.141584 3.27139e-19)
(0.791869 0.132255 -3.87051e-20)
(0.807605 0.123599 -1.59106e-19)
(0.822496 0.115513 -7.65914e-20)
(0.836582 0.107887 5.86171e-20)
(0.848937 0.10099 -3.38397e-20)
(0.0420861 0.117521 1.58905e-20)
(0.113045 0.264967 -1.60266e-19)
(0.183946 0.342933 1.65868e-19)
(0.247455 0.37257 -5.1639e-20)
(0.303782 0.372306 8.83876e-20)
(0.354194 0.356481 1.11323e-19)
(0.399887 0.334445 -2.55809e-19)
(0.441849 0.311186 -2.51996e-19)
(0.480717 0.288831 1.20592e-20)
(0.516873 0.268029 -2.70797e-19)
(0.550568 0.248851 3.23914e-19)
(0.581999 0.231196 -3.29282e-19)
(0.611335 0.214936 1.7125e-19)
(0.638732 0.199951 8.54474e-21)
(0.664332 0.18613 1.2711e-19)
(0.688266 0.173372 2.27627e-19)
(0.710653 0.161584 6.71106e-20)
(0.731603 0.150683 -2.70382e-19)
(0.751217 0.140591 -7.04715e-20)
(0.769586 0.131239 -1.104e-19)
(0.786777 0.12257 -1.33344e-20)
(0.802885 0.11453 4.8116e-20)
(0.818101 0.107026 1.2677e-19)
(0.832466 0.0999562 9.48946e-20)
(0.845186 0.0935321 9.75799e-20)
(0.0364519 0.109031 -1.87114e-19)
(0.100555 0.245365 1.34465e-20)
(0.168063 0.317085 -7.87007e-20)
(0.230413 0.344068 3.26015e-19)