/*--------------------------------*- C++ -*----------------------------------*\
  =========                 |
  \\      /  F ield         | OpenFOAM: The Open Source CFD Toolbox
   \\    /   O peration     | Website:  https://openfoam.org
    \\  /    A nd           | Version:  7
     \\/     M anipulation  |
\*---------------------------------------------------------------------------*/
FoamFile
{
    version     2.0;
    format      ascii;
    class       volVectorField;
    location    "70";
    object      U;
}
// * * * * * * * * * * * * * * * * * * * * * * * * * * * * * * * * * * * * * //

dimensions      [0 1 -1 0 0 0 0];

internalField   nonuniform List<vector> 
1987
(
(0.00629178 0.00567104 -2.23446e-20)
(0.0343491 0.0126475 1.49435e-20)
(0.0844604 0.0162287 -4.80793e-21)
(0.141223 0.0175103 2.08924e-20)
(0.199109 0.017408 2.28131e-20)
(0.2552 0.0166096 -7.3177e-21)
(0.00629026 -0.00555643 2.23454e-20)
(0.0343457 -0.0123886 -1.49439e-20)
(0.0844558 -0.0158898 4.80804e-21)
(0.141218 -0.017137 -2.08931e-20)
(0.199104 -0.0170283 -2.28138e-20)
(0.255194 -0.0162382 7.3179e-21)
(0.308062 -0.0151917 5.03022e-21)
(0.357353 -0.0141072 -3.50691e-20)
(0.403153 -0.0130732 3.96678e-21)
(0.445687 -0.0121148 -5.29217e-21)
(0.485203 -0.0112329 -1.74951e-20)
(0.521936 -0.0104222 -1.64411e-20)
(0.556102 -0.00967671 9.88885e-21)
(0.587899 -0.00899067 1.17004e-20)
(0.617509 -0.00835888 3.25996e-22)
(0.645098 -0.00777658 1.37973e-20)
(0.670817 -0.00723946 -1.02921e-20)
(0.694808 -0.00674357 -1.65946e-20)
(0.717196 -0.00628533 5.74816e-21)
(0.7381 -0.00586143 -2.53825e-20)
(0.757626 -0.00546905 -1.57692e-21)
(0.775874 -0.00510584 1.81081e-21)
(0.792936 -0.00476886 -3.84237e-21)
(0.808904 -0.0044529 -7.39252e-21)
(0.823839 -0.00415728 -4.43744e-21)
(0.00686676 -0.0167601 -2.30045e-20)
(0.0356012 -0.0373778 -1.21291e-20)
(0.0860316 -0.0479544 1.26539e-20)
(0.14289 -0.0517317 4.78989e-20)
(0.200744 -0.0514165 -3.4642e-20)
(0.256741 -0.0490428 1.66233e-20)
(0.309493 -0.0458934 -6.21007e-22)
(0.358668 -0.0426273 2.6981e-20)
(0.404358 -0.0395122 -5.6421e-21)
(0.446792 -0.0366235 -4.01596e-21)
(0.486217 -0.0339645 7.28884e-20)
(0.522867 -0.0315196 7.60023e-22)
(0.556957 -0.0292705 -7.53714e-20)
(0.588685 -0.0272 3.66782e-20)
(0.618232 -0.0252927 6.70218e-21)
(0.645763 -0.0235342 -1.37282e-20)
(0.671431 -0.0219115 2.73334e-20)
(0.695373 -0.020413 1.72022e-21)
(0.717719 -0.0190277 -2.38778e-20)
(0.738583 -0.017746 8.63797e-20)
(0.758073 -0.0165592 2.54081e-20)
(0.776287 -0.0154603 -3.64996e-20)
(0.793321 -0.0144405 -1.72195e-20)
(0.809263 -0.013484 -2.948e-21)
(0.824163 -0.0125894 6.63054e-21)
(0.00801789 -0.0278924 4.67645e-20)
(0.0381094 -0.0622264 1.29749e-21)
(0.0891809 -0.0798576 6.09419e-20)
(0.146234 -0.0861688 -8.94079e-20)
(0.204025 -0.0856604 9.93047e-20)
(0.259833 -0.0817181 8.53496e-21)
(0.312355 -0.0764791 8.79726e-21)
(0.361298 -0.0710428 -1.50046e-20)
(0.406771 -0.0658563 -4.86401e-20)
(0.449004 -0.0610461 7.99234e-21)
(0.488246 -0.056618 1.30447e-20)
(0.524729 -0.052546 -4.65647e-20)
(0.558668 -0.0487997 7.60523e-21)
(0.590258 -0.0453507 -4.13408e-20)
(0.619679 -0.0421731 7.9731e-20)
(0.647096 -0.0392432 3.08256e-20)
(0.672659 -0.0365394 -4.53545e-21)
(0.696507 -0.0340422 9.28632e-20)
(0.718765 -0.0317335 -2.45233e-20)
(0.73955 -0.0295971 -5.21912e-20)
(0.758967 -0.0276188 3.13713e-20)
(0.777115 -0.0257869 7.22145e-20)
(0.794092 -0.0240864 3.48223e-20)
(0.809984 -0.0224914 6.14479e-20)
(0.824813 -0.0210009 3.20086e-20)
(0.00973685 -0.0389061 -2.20886e-20)
(0.0418576 -0.0868414 3.50364e-20)
(0.0938897 -0.111492 -1.10563e-19)
(0.151236 -0.120344 8.68698e-20)
(0.208933 -0.119664 2.14158e-20)
(0.264462 -0.114178 5.12713e-21)
(0.316641 -0.106872 -6.61193e-20)
(0.365237 -0.0992842 -4.45429e-20)
(0.410382 -0.0920428 7.76424e-20)
(0.452316 -0.0853256 -3.10888e-20)
(0.491284 -0.0791415 -2.30842e-21)
(0.527518 -0.0734542 1.30447e-19)
(0.56123 -0.0682215 4.21998e-20)
(0.592614 -0.0634038 -2.55549e-21)
(0.621847 -0.0589648 -2.51931e-20)
(0.649092 -0.0548715 -1.07924e-19)
(0.6745 -0.0510938 -1.07671e-20)
(0.698205 -0.0476044 -9.40414e-20)
(0.720334 -0.0443783 -8.88897e-20)
(0.741 -0.0413926 1.0176e-20)
(0.760308 -0.0386277 -3.63965e-20)
(0.778356 -0.0360672 1.32376e-20)
(0.795248 -0.0336897 -4.25435e-20)
(0.811065 -0.0314592 -1.34248e-19)
(0.825787 -0.0293778 -1.96513e-20)
(0.0120135 -0.0497547 -3.58897e-20)
(0.0468268 -0.111131 1.28282e-19)
(0.100137 -0.142753 -1.62107e-19)
(0.157876 -0.154153 -5.86796e-20)
(0.215453 -0.153333 -4.58153e-20)
(0.270612 -0.146338 -4.72247e-20)
(0.322336 -0.136995 2.44364e-19)
(0.370471 -0.127283 -8.75038e-20)
(0.415183 -0.118009 -8.78408e-20)
(0.456718 -0.109405 1.26596e-19)
(0.495323 -0.101483 -1.25945e-19)
(0.531226 -0.0941974 -6.62586e-20)
(0.564637 -0.0874934 -7.82616e-20)
(0.595746 -0.0813205 4.9082e-20)
(0.62473 -0.0756325 9.83315e-21)
(0.651747 -0.070387 -2.24492e-19)
(0.676947 -0.0655456 9.43189e-20)
(0.700463 -0.0610732 -6.84712e-20)
(0.72242 -0.0569379 1.59304e-19)
(0.742929 -0.0531105 6.09609e-20)
(0.762091 -0.0495658 -5.47603e-20)
(0.780007 -0.0462828 -9.13123e-20)
(0.796785 -0.0432333 -1.43582e-20)
(0.812504 -0.0403717 1.10406e-19)
(0.827084 -0.0377066 7.47839e-20)
(0.0148344 -0.0603923 1.39924e-19)
(0.0529918 -0.135003 4.26823e-20)
(0.107895 -0.173534 9.73043e-20)
(0.166129 -0.187493 9.19251e-20)
(0.22356 -0.186573 -6.44244e-20)
(0.278263 -0.178113 1.10572e-19)
(0.329422 -0.166774 6.8053e-20)
(0.376984 -0.15497 3.38656e-19)
(0.421157 -0.143694 -1.4698e-20)
(0.462197 -0.133229 2.42155e-21)
(0.50035 -0.123593 2.32156e-19)
(0.535842 -0.11473 7.35396e-20)
(0.568878 -0.106573 9.10932e-20)
(0.599646 -0.0990628 -1.69711e-19)
(0.628319 -0.0921416 -4.62343e-20)
(0.655054 -0.0857582 1.23728e-19)
(0.679995 -0.079866 1.29214e-19)
(0.703276 -0.0744224 -3.32392e-20)
(0.725018 -0.0693886 -1.29335e-19)
(0.745331 -0.064729 2.76226e-20)
(0.764313 -0.0604132 1.54308e-20)
(0.782064 -0.0564155 6.94805e-20)
(0.798701 -0.0527005 8.36438e-20)
(0.814296 -0.0492135 -6.61931e-20)
(0.828701 -0.0459734 -4.33425e-20)
(0.0181828 -0.0707741 -7.44851e-20)
(0.0603212 -0.15837 -8.33803e-20)
(0.11713 -0.203734 6.40288e-20)
(0.175961 -0.220264 1.28684e-19)
(0.233226 -0.219291 -1.99258e-20)
(0.28739 -0.20942 -1.47167e-19)
(0.337877 -0.196133 -2.06329e-19)
(0.384758 -0.18228 -2.70267e-19)
(0.428288 -0.169037 -4.54349e-20)
(0.468737 -0.156743 -6.16864e-20)
(0.506352 -0.14542 -7.09415e-20)
(0.541353 -0.135005 -2.52015e-19)
(0.573942 -0.12542 1.34939e-20)
(0.604303 -0.116593 2.94542e-19)
(0.632605 -0.108458 -2.04098e-19)
(0.659002 -0.100954 -7.69604e-20)
(0.683636 -0.0940268 -2.34962e-19)
(0.706636 -0.0876262 9.37144e-20)
(0.728122 -0.0817067 9.99372e-20)
(0.748201 -0.0762265 -2.75713e-19)
(0.766969 -0.0711503 8.74083e-20)
(0.784522 -0.0664474 1.29025e-19)
(0.800991 -0.0620748 3.16438e-20)
(0.816438 -0.0579691 9.7878e-20)
(0.830636 -0.0541647 -1.63495e-20)
(0.0220389 -0.0808567 -1.88437e-20)
(0.0687779 -0.181144 2.91723e-20)
(0.127799 -0.233251 -6.03243e-21)
(0.187335 -0.252367 2.24443e-19)
(0.244416 -0.251397 1.74032e-19)
(0.297962 -0.240178 3.24309e-20)
(0.347675 -0.225 7.89263e-20)
(0.393768 -0.209146 1.46629e-19)
(0.436554 -0.193977 3.38169e-20)
(0.476319 -0.179891 1.33078e-20)
(0.513309 -0.166916 1.35016e-19)
(0.547742 -0.15498 -5.64746e-20)
(0.579813 -0.143993 -4.18745e-20)
(0.609703 -0.133874 -2.14629e-19)
(0.637576 -0.124548 7.04387e-21)
(0.663582 -0.115944 1.20019e-19)
(0.687859 -0.108 1.24182e-20)
(0.710534 -0.100659 -4.67084e-20)
(0.731724 -0.0938692 -1.83724e-19)
(0.751532 -0.0875822 1.3208e-19)
(0.77005 -0.0817579 -3.28014e-19)
(0.787376 -0.0763611 -1.29896e-19)
(0.803648 -0.0713402 9.26653e-20)
(0.818925 -0.0666236 -1.76491e-19)
(0.832884 -0.0622671 -9.59058e-20)
(0.0263797 -0.0905981 -1.85194e-20)
(0.0783185 -0.203241 -1.05169e-19)
(0.139855 -0.261986 -2.80558e-19)
(0.200204 -0.283704 -3.51332e-19)
(0.257092 -0.282801 -2.03625e-19)
(0.309945 -0.270307 1.38867e-19)
(0.358784 -0.253303 -3.34165e-19)
(0.403986 -0.235504 -3.44161e-20)
(0.44593 -0.218458 1.91024e-19)
(0.48492 -0.202622 -2.12887e-20)
(0.521203 -0.188033 -3.24998e-19)
(0.554991 -0.174609 3.32733e-19)
(0.586477 -0.162253 1.82157e-19)
(0.615832 -0.150871 3.73517e-20)
(0.643219 -0.140378 2.78966e-19)
(0.668781 -0.130698 1.71774e-19)
(0.692654 -0.121759 -2.87358e-20)
(0.714961 -0.113497 3.30713e-19)
(0.735814 -0.105854 -2.87193e-20)
(0.755316 -0.0987754 1.43266e-19)
(0.773552 -0.0922173 1.70885e-19)
(0.790619 -0.0861393 -1.50238e-19)
(0.806667 -0.0804808 -1.61595e-19)
(0.821751 -0.0751623 1.22109e-19)
(0.835443 -0.0702674 -1.60793e-19)
(0.0311794 -0.0999578 2.39193e-19)
(0.088894 -0.22458 -1.68906e-19)
(0.153245 -0.289845 1.79323e-20)
(0.214517 -0.314181 -6.21685e-20)
(0.271206 -0.313417 -5.83608e-20)
(0.323298 -0.299729 -2.73491e-19)
(0.37117 -0.280973 1.96509e-19)
(0.415382 -0.261291 3.5085e-19)
(0.456388 -0.242422 -1.71244e-19)
(0.494514 -0.224884 -1.54894e-19)
(0.530009 -0.208723 5.06343e-19)
(0.56308 -0.193851 -3.43837e-19)
(0.593912 -0.18016 -4.98597e-19)
(0.622673 -0.167547 -2.95426e-20)
(0.649517 -0.155918 7.77382e-20)
(0.674586 -0.145187 -2.23419e-19)
(0.698008 -0.135276 9.93333e-20)
(0.719904 -0.126115 -4.23042e-19)
(0.740383 -0.117638 3.57214e-19)
(0.759543 -0.109786 -6.14207e-20)
(0.777463 -0.10251 3.10094e-20)
(0.794242 -0.0957653 9.7286e-20)
(0.810041 -0.0894812 9.0715e-20)
(0.824909 -0.0835708 -7.08826e-20)
(0.838306 -0.0781526 -1.50076e-20)
(0.0364091 -0.108897 -1.48967e-19)
(0.10045 -0.24508 1.07205e-19)
(0.167906 -0.316735 -7.89228e-20)
(0.230218 -0.343707 2.87051e-19)
(0.286709 -0.34316 6.54689e-20)
(0.337978 -0.328368 -2.98872e-20)
(0.384795 -0.307942 6.62502e-20)
(0.427921 -0.286447 1.07141e-19)
(0.467896 -0.265814 -3.01343e-20)
(0.505074 -0.246627 1.75724e-19)
(0.539703 -0.228942 -3.20506e-19)
(0.571986 -0.212665 7.33343e-20)
(0.602099 -0.197678 1.78265e-19)
(0.630206 -0.183869 1.73375e-19)
(0.656454 -0.171135 -2.17307e-19)
(0.680979 -0.159383 -1.08393e-19)
(0.703907 -0.148527 -4.32652e-20)
(0.725351 -0.13849 3.47262e-19)
(0.745419 -0.129201 -3.4505e-19)
(0.764202 -0.120595 1.08007e-19)
(0.781777 -0.112619 4.87284e-20)
(0.798238 -0.105223 3.33361e-20)
(0.813762 -0.0983265 3.54201e-20)
(0.828393 -0.0918352 -1.18171e-19)
(0.841469 -0.0859097 1.86865e-19)
(0.0420373 -0.117381 5.6739e-20)
(0.112927 -0.264669 -2.17368e-19)
(0.183774 -0.342567 3.20609e-19)
(0.247243 -0.372194 -1.29531e-19)
(0.303544 -0.371949 -6.38195e-20)
(0.353936 -0.356152 1.03186e-19)
(0.399614 -0.334145 -2.96889e-19)
(0.441563 -0.310913 -7.50945e-20)
(0.480421 -0.288582 -2.59354e-20)
(0.516568 -0.267803 -2.69062e-19)
(0.550256 -0.248646 1.06988e-19)
(0.581682 -0.231011 -1.03879e-19)
(0.611015 -0.214771 1.12841e-19)
(0.63841 -0.199805 6.26846e-21)
(0.664011 -0.186001 1.12897e-19)
(0.687946 -0.173259 3.74247e-19)
(0.710335 -0.161486 -7.38912e-20)
(0.731289 -0.150599 -2.72794e-19)
(0.750908 -0.140521 9.286e-20)
(0.769283 -0.131182 -4.19909e-19)
(0.786481 -0.122525 2.24217e-19)
(0.802597 -0.114496 5.90823e-20)
(0.817822 -0.107002 9.58645e-20)
(0.832195 -0.099942 -1.98159e-21)
(0.844927 -0.0935264 8.34719e-20)
(0.0480302 -0.125374 1.48836e-19)
(0.126259 -0.283273 2.29218e-19)
(0.200774 -0.367256 1.11358e-19)
(0.265524 -0.399556 -1.0983e-19)
(0.32165 -0.399705 -3.17053e-20)
(0.371119 -0.383009 -1.84969e-20)
(0.415581 -0.359518 -7.17936e-20)
(0.456269 -0.334633 3.42664e-19)
(0.493924 -0.310674 -1.05431e-19)
(0.528963 -0.288366 2.29542e-19)
(0.561638 -0.267793 7.50526e-20)
(0.592141 -0.248851 1.05835e-19)
(0.620633 -0.231403 2.12064e-19)
(0.647263 -0.215321 -4.2104e-19)
(0.672166 -0.200486 -2.27795e-19)
(0.695466 -0.186788 -6.18757e-20)
(0.717276 -0.17413 -1.78825e-19)
(0.737701 -0.162422 2.47259e-19)
(0.756838 -0.15158 5.92546e-20)
(0.774772 -0.141531 2.64007e-19)
(0.791566 -0.132214 -1.00166e-19)
(0.80731 -0.123571 -2.07552e-19)
(0.82221 -0.115495 -9.29017e-20)
(0.836306 -0.107878 1.64816e-19)
(0.848672 -0.10099 -2.01101e-19)
(0.0543512 -0.132845 4.04491e-20)
(0.140377 -0.300827 -2.11649e-21)
(0.218828 -0.390723 -1.43614e-19)
(0.284986 -0.425712 -2.46721e-19)
(0.340962 -0.426353 1.64844e-19)
(0.389469 -0.408873 -1.52177e-19)
(0.432646 -0.384003 1.21421e-19)
(0.471992 -0.357552 -4.63893e-19)
(0.508366 -0.332042 3.1871e-19)
(0.542221 -0.308272 -6.78528e-20)
(0.573815 -0.286343 -2.80462e-19)
(0.603333 -0.266148 3.34644e-20)
(0.630928 -0.247542 -2.90911e-20)
(0.656741 -0.230389 3.37483e-19)
(0.680899 -0.214562 2.74278e-19)
(0.70352 -0.199946 1.15597e-20)
(0.724711 -0.186436 2.79318e-19)
(0.744571 -0.173936 -9.48319e-20)
(0.763193 -0.162358 1.34114e-19)
(0.780657 -0.151624 -1.63693e-19)
(0.797018 -0.141669 2.1201e-19)
(0.812365 -0.132431 -1.16492e-19)
(0.826917 -0.123791 9.53438e-20)
(0.840717 -0.115632 -1.29281e-19)
(0.852699 -0.108289 7.81819e-21)
(0.0609617 -0.139764 -2.67492e-19)
(0.155205 -0.317268 -5.35119e-20)
(0.237854 -0.41289 1.46886e-19)
(0.305548 -0.450585 1.76745e-19)
(0.361409 -0.451821 -1.18649e-19)
(0.408924 -0.433679 4.36706e-19)
(0.450755 -0.407541 -6.12407e-19)
(0.488686 -0.379619 -1.06558e-19)
(0.523704 -0.35264 -1.89349e-19)
(0.556305 -0.327479 -2.26065e-19)
(0.586753 -0.304258 -1.35548e-19)
(0.615226 -0.282867 9.71368e-20)
(0.64187 -0.263156 -2.73343e-21)
(0.666817 -0.24498 4.54589e-20)
(0.690185 -0.228205 1.31485e-19)
(0.712086 -0.212709 -2.86696e-19)
(0.732621 -0.198382 -5.65912e-19)
(0.751882 -0.185122 -2.61226e-20)
(0.769958 -0.172838 -1.77497e-19)
(0.786923 -0.161445 8.89076e-20)
(0.802826 -0.150876 -1.08405e-19)
(0.81775 -0.141065 5.96512e-19)
(0.831933 -0.131879 -2.70885e-19)
(0.845419 -0.123191 -1.59843e-19)
(0.857 -0.115412 1.07183e-19)
(0.0678211 -0.146107 1.50698e-19)
(0.170666 -0.332538 2.49719e-19)
(0.25776 -0.433686 -2.33458e-19)
(0.327128 -0.474104 -1.59896e-19)
(0.382915 -0.476041 -7.53133e-20)
(0.42942 -0.457366 -3.00857e-19)
(0.46985 -0.430078 3.17407e-19)
(0.506298 -0.400787 2.87718e-19)
(0.539891 -0.372423 1.88886e-19)
(0.571172 -0.345948 4.19677e-19)
(0.600414 -0.321502 -7.32707e-20)
(0.627787 -0.298977 3.02459e-20)
(0.653429 -0.278216 -5.46972e-19)
(0.677463 -0.259066 -2.19846e-19)
(0.7 -0.241388 -1.55705e-19)
(0.721142 -0.225054 5.37797e-20)
(0.740985 -0.209947 2.5983e-19)
(0.759615 -0.195962 2.00991e-19)
(0.777115 -0.183001 2.24012e-19)
(0.793555 -0.170977 -1.55847e-19)
(0.808975 -0.159819 -2.77908e-19)
(0.823454 -0.149458 -3.01149e-19)
(0.837246 -0.139746 2.72511e-19)
(0.850402 -0.130544 -1.0916e-19)
(0.861568 -0.122348 -1.4753e-19)
(0.0748868 -0.15185 3.51023e-19)
(0.186676 -0.346584 -1.94634e-19)
(0.278455 -0.453047 3.3202e-19)
(0.349633 -0.496198 -4.03074e-19)
(0.4054 -0.49895 4.02801e-19)
(0.450885 -0.479876 1.21432e-19)
(0.489871 -0.451563 2.21495e-19)
(0.524776 -0.421009 -1.25604e-19)
(0.55688 -0.391352 2.08035e-19)
(0.58678 -0.363641 -2.28241e-19)
(0.614758 -0.338042 2.91838e-19)
(0.64098 -0.314447 2.06956e-19)
(0.665573 -0.292693 5.23037e-21)
(0.688651 -0.272623 3.01252e-19)
(0.710316 -0.25409 -9.97808e-21)
(0.730664 -0.23696 2.84204e-19)
(0.749782 -0.221113 1.58376e-20)
(0.767751 -0.206438 2.90624e-19)
(0.784648 -0.192833 -9.83451e-20)
(0.800536 -0.180207 -4.05611e-19)
(0.815451 -0.168487 3.81151e-19)
(0.829464 -0.1576 -1.78287e-19)
(0.842844 -0.147381 -1.88324e-19)
(0.855655 -0.137682 9.09666e-20)
(0.866395 -0.129086 -3.24887e-20)
(0.082115 -0.156972 -1.8239e-19)
(0.203148 -0.35936 5.38118e-20)
(0.299839 -0.47091 -1.1261e-19)
(0.372971 -0.516807 3.25547e-19)
(0.428781 -0.520488 -4.99325e-19)
(0.473249 -0.501157 -3.58809e-20)
(0.510755 -0.471948 -3.71829e-19)
(0.544063 -0.440243 1.8969e-19)
(0.57462 -0.409389 -1.28878e-19)
(0.603083 -0.380524 -1.62989e-19)
(0.629746 -0.353846 -1.5473e-19)
(0.654768 -0.329247 -4.58504e-19)
(0.678268 -0.306562 1.25436e-19)
(0.70035 -0.285626 1.04285e-19)
(0.721107 -0.266287 8.14418e-20)
(0.740627 -0.248408 -3.47728e-21)
(0.75899 -0.231862 1.59849e-19)
(0.77627 -0.216534 -1.47793e-19)
(0.792537 -0.202319 1.83254e-19)
(0.807851 -0.18912 -6.20903e-20)
(0.822239 -0.176865 9.29719e-20)
(0.835767 -0.165478 -9.09362e-21)
(0.848716 -0.154776 4.34912e-19)
(0.861167 -0.144594 -4.07091e-20)
(0.871473 -0.135617 -1.38597e-23)
(0.08946 -0.161457 -2.03216e-19)
(0.219992 -0.370823 1.36027e-19)
(0.321808 -0.487222 8.97953e-20)
(0.397042 -0.53587 6.81983e-20)
(0.452969 -0.540598 2.09317e-19)
(0.496433 -0.521157 3.36508e-19)
(0.532434 -0.491191 1.18429e-19)
(0.5641 -0.45845 -3.93564e-19)
(0.593059 -0.426497 1.28886e-19)
(0.620034 -0.396566 2.60744e-19)
(0.645334 -0.368885 1.44645e-19)
(0.669113 -0.343353 4.66123e-19)
(0.691479 -0.319799 4.76022e-19)
(0.712528 -0.298054 -3.54351e-19)
(0.732344 -0.277962 -7.37857e-20)
(0.751005 -0.259379 -6.15358e-20)
(0.768584 -0.242176 -5.53235e-19)
(0.785149 -0.226234 -8.17917e-20)
(0.800763 -0.211443 -4.89131e-19)
(0.815482 -0.197705 5.74022e-19)
(0.829323 -0.184944 -2.63598e-19)
(0.842347 -0.173082 2.24524e-19)
(0.85485 -0.16192 -3.43559e-19)
(0.866929 -0.151273 4.92562e-19)
(0.876796 -0.14193 -1.01883e-19)
(0.0968753 -0.165292 5.87797e-20)
(0.237115 -0.380938 8.96769e-20)
(0.344256 -0.501934 7.58717e-20)
(0.421742 -0.553337 -1.97295e-20)
(0.477871 -0.559232 4.34347e-20)
(0.520359 -0.539831 -2.10795e-19)
(0.554839 -0.509249 7.1448e-20)
(0.584827 -0.475595 1.52644e-19)
(0.612143 -0.442646 6.85433e-20)
(0.637584 -0.411738 -7.17212e-21)
(0.661477 -0.383134 -4.09003e-19)
(0.683973 -0.356739 3.42852e-19)
(0.705171 -0.332382 -5.0123e-19)
(0.725153 -0.309887 1.44702e-19)
(0.743996 -0.289094 2.27382e-19)
(0.761771 -0.269857 -1.92152e-19)
(0.778541 -0.252041 2.05437e-19)
(0.794367 -0.235525 3.27699e-19)
(0.809307 -0.220195 1.31242e-19)
(0.82341 -0.205949 -1.11016e-19)
(0.836687 -0.192713 -1.63233e-19)
(0.84919 -0.180404 -3.11804e-19)
(0.861231 -0.168806 -1.51203e-20)
(0.872928 -0.157711 -2.00811e-19)
(0.882354 -0.148019 6.43993e-20)
(0.104314 -0.168465 2.53959e-20)
(0.254422 -0.389674 -1.87242e-19)
(0.367072 -0.515004 -2.11846e-19)
(0.446965 -0.569159 1.03405e-19)
(0.503394 -0.576343 -8.43038e-20)
(0.544942 -0.557138 2.5364e-19)
(0.577898 -0.526088 -6.24961e-20)
(0.606181 -0.491646 -5.43028e-20)
(0.631814 -0.457807 1.26169e-19)
(0.655682 -0.426014 3.26646e-20)
(0.678131 -0.396569 4.71459e-19)
(0.699309 -0.369386 -1.60132e-19)
(0.719304 -0.344291 2.89831e-20)
(0.738191 -0.321107 5.69785e-21)
(0.756035 -0.299669 1.55887e-20)
(0.772897 -0.279826 4.63109e-21)
(0.788835 -0.261443 9.85518e-21)
(0.8039 -0.244393 -2.31298e-19)
(0.818147 -0.228562 1.94425e-19)
(0.831616 -0.213843 -1.70411e-19)
(0.844314 -0.200161 2.44048e-19)
(0.856282 -0.187436 1.12961e-19)
(0.867846 -0.175427 -2.76774e-20)
(0.879153 -0.163902 1.70946e-19)
(0.88814 -0.153874 5.50413e-20)
(0.111727 -0.170971 1.62944e-19)
(0.271813 -0.39701 2.82192e-20)
(0.390141 -0.526395 2.0269e-19)
(0.4726 -0.583295 1.76862e-19)
(0.529436 -0.59189 -2.62513e-19)
(0.570099 -0.573041 -2.04216e-19)
(0.601538 -0.541673 7.98918e-20)
(0.628095 -0.506573 6.48888e-20)
(0.652017 -0.471954 5.36037e-20)
(0.674277 -0.439371 -4.92677e-19)
(0.695249 -0.409169 -2.10855e-19)
(0.715077 -0.381273 -2.67003e-19)
(0.733842 -0.35551 2.05287e-20)
(0.751607 -0.331698 -5.49892e-20)
(0.768427 -0.30967 -1.29808e-19)
(0.784356 -0.289274 3.14639e-19)
(0.79944 -0.270369 -4.83627e-19)
(0.813727 -0.252829 -5.09923e-20)
(0.827262 -0.236534 1.49251e-19)
(0.840082 -0.221377 2.15496e-19)
(0.852185 -0.207282 1.13084e-19)
(0.863606 -0.194169 -2.42559e-19)
(0.874681 -0.181779 9.75403e-21)
(0.885593 -0.169843 -1.2151e-19)
(0.894149 -0.159491 -1.42745e-19)
(0.119066 -0.172806 -1.14625e-19)
(0.28919 -0.402926 -1.3537e-20)
(0.413348 -0.536078 -7.82292e-22)
(0.498531 -0.595711 -5.08576e-20)
(0.555896 -0.605837 2.10117e-19)
(0.595739 -0.587507 -3.04104e-19)
(0.625682 -0.555978 -4.62515e-22)
(0.650505 -0.520353 -2.70823e-19)
(0.67269 -0.485067 -1.33455e-20)
(0.693316 -0.45179 1.16577e-19)
(0.712782 -0.420916 -1.58285e-19)
(0.731235 -0.392385 5.00095e-19)
(0.748746 -0.366023 2.99136e-19)
(0.765366 -0.341647 1.3899e-19)
(0.781142 -0.319087 7.0886e-20)
(0.796117 -0.298188 -9.55043e-21)
(0.810331 -0.278809 3.03036e-19)
(0.823822 -0.26082 -1.06407e-19)
(0.83663 -0.244101 -4.12483e-19)
(0.848787 -0.228542 -1.17152e-19)
(0.860284 -0.214067 -2.64536e-19)
(0.871144 -0.200598 2.55048e-19)
(0.881722 -0.187855 5.75199e-20)
(0.892237 -0.17553 9.06607e-20)
(0.900374 -0.164866 4.97567e-19)
(0.126283 -0.173972 8.06437e-20)
(0.306451 -0.407414 -4.58834e-20)
(0.436571 -0.544032 -9.24754e-20)
(0.524642 -0.606377 -3.02879e-19)
(0.582669 -0.618155 -1.34992e-19)
(0.621772 -0.600508 3.01111e-19)
(0.650252 -0.568976 7.40627e-20)
(0.673341 -0.532964 5.18374e-20)
(0.693775 -0.497125 1.40533e-19)
(0.712743 -0.463254 5.77481e-20)
(0.730682 -0.431797 1.0011e-19)
(0.747738 -0.402708 -3.7638e-19)
(0.763974 -0.375817 -4.46315e-19)
(0.779432 -0.350941 -2.27519e-19)
(0.794146 -0.327907 1.09528e-19)
(0.808152 -0.306559 7.45555e-20)
(0.82148 -0.286753 -1.69088e-19)
(0.834161 -0.26836 4.40395e-20)
(0.846229 -0.251257 1.57844e-20)
(0.857711 -0.235332 -8.39282e-20)
(0.86859 -0.22051 1.16553e-19)
(0.87888 -0.206717 1.96201e-19)
(0.88895 -0.193655 1.25505e-19)
(0.899072 -0.180965 -1.60452e-19)
(0.906811 -0.169998 -5.01667e-19)
(0.13333 -0.174471 -5.64564e-20)
(0.323495 -0.410469 -1.58776e-19)
(0.45969 -0.550241 -7.45898e-20)
(0.550813 -0.615271 9.55476e-20)
(0.609646 -0.628819 -1.08916e-19)
(0.648105 -0.612021 -1.48266e-19)
(0.675167 -0.580649 -1.83255e-19)
(0.696534 -0.544389 1.52422e-20)
(0.715209 -0.508116 -1.5684e-19)
(0.732506 -0.473751 4.68605e-19)
(0.748899 -0.441797 -2.66293e-19)
(0.764542 -0.41223 1.51038e-19)
(0.779488 -0.384883 3.72448e-19)
(0.793768 -0.359571 2.63512e-19)
(0.807407 -0.336122 -4.34607e-19)
(0.82043 -0.314377 1.43392e-19)
(0.83286 -0.294194 7.08631e-20)
(0.844719 -0.275441 -4.6447e-20)
(0.856036 -0.257994 2.72937e-19)
(0.866834 -0.24174 -2.04394e-19)
(0.877086 -0.226605 3.12292e-20)
(0.886794 -0.212521 -2.39114e-19)
(0.896348 -0.199176 -2.6634e-19)
(0.906086 -0.186151 9.1618e-20)
(0.91346 -0.17489 1.83977e-19)
(0.140158 -0.174313 2.11622e-20)
(0.340217 -0.412095 1.0562e-19)
(0.482582 -0.554698 1.0186e-20)
(0.576922 -0.622376 6.28874e-20)
(0.636717 -0.637809 1.71045e-19)
(0.674642 -0.622027 1.03749e-19)
(0.700347 -0.590979 -5.7002e-20)
(0.720014 -0.554615 2.05918e-19)
(0.736932 -0.518027 -1.68113e-20)
(0.752547 -0.483269 -1.3136e-19)
(0.767385 -0.450909 3.22467e-19)
(0.781603 -0.420944 9.9527e-20)
(0.795247 -0.393212 -2.83005e-19)
(0.808338 -0.36753 -1.93181e-19)
(0.820891 -0.343724 2.47842e-19)
(0.832921 -0.321638 -2.58253e-19)
(0.844444 -0.301125 -1.02479e-19)
(0.855472 -0.282056 3.03098e-20)
(0.866029 -0.264306 1.92098e-20)
(0.876133 -0.247761 2.21647e-19)
(0.885752 -0.232347 -2.20538e-20)
(0.894869 -0.218005 3.93813e-20)
(0.903892 -0.204415 2.02261e-19)
(0.91326 -0.191092 1.42168e-19)
(0.920323 -0.179552 1.33305e-19)
(0.146721 -0.173508 6.74422e-21)
(0.356518 -0.412303 9.28043e-20)
(0.505121 -0.557402 6.19531e-20)
(0.602842 -0.627684 1.13133e-19)
(0.663769 -0.645111 -1.27565e-19)
(0.701286 -0.630512 -1.83646e-20)
(0.725708 -0.599957 -1.32037e-19)
(0.743709 -0.563633 1.23991e-19)
(0.758879 -0.52685 -2.37031e-19)
(0.772813 -0.491804 -1.02077e-19)
(0.786088 -0.459127 -2.58275e-20)
(0.798874 -0.428844 8.67986e-21)
(0.811209 -0.400799 5.52764e-20)
(0.823105 -0.374812 4.7764e-20)
(0.834565 -0.35071 -4.91802e-20)
(0.845596 -0.328334 -6.81131e-20)
(0.856204 -0.307542 4.69458e-19)
(0.866395 -0.288201 -2.67977e-20)
(0.876184 -0.270188 6.96358e-20)
(0.885589 -0.25339 6.95923e-20)
(0.89457 -0.237732 -3.14708e-20)
(0.903086 -0.223166 2.15096e-19)
(0.911559 -0.209374 -1.0129e-19)
(0.920574 -0.195809 -1.19696e-19)
(0.927417 -0.184012 2.66079e-19)
(0.152972 -0.172073 -1.73614e-21)
(0.372294 -0.411109 -5.30769e-20)
(0.527182 -0.558361 -2.84212e-20)
(0.628449 -0.631192 -1.19333e-19)
(0.690686 -0.650718 1.22033e-19)
(0.727937 -0.637469 -1.3402e-19)
(0.751165 -0.607573 1.41202e-19)
(0.767547 -0.571437 -6.78971e-20)
(0.780988 -0.534583 1.0088e-19)
(0.793245 -0.49935 -1.12705e-19)
(0.804959 -0.466447 -2.24205e-19)
(0.81631 -0.435926 -1.18921e-19)
(0.827334 -0.407641 -4.78135e-20)
(0.838031 -0.381415 -5.84353e-20)
(0.848395 -0.357075 4.48908e-20)
(0.858423 -0.334465 3.74795e-20)
(0.868112 -0.31344 -3.64438e-19)
(0.877462 -0.293873 -1.12083e-19)
(0.886479 -0.275639 -3.20542e-19)
(0.895179 -0.258624 -8.27105e-21)
(0.903521 -0.242755 1.95524e-19)
(0.911431 -0.227994 -2.44157e-19)
(0.919314 -0.21403 -3.01837e-19)
(0.927973 -0.200271 -3.51549e-20)
(0.934766 -0.188282 -2.60073e-19)
(0.158866 -0.170026 -1.21655e-20)
(0.387446 -0.408539 1.05309e-20)
(0.548642 -0.557589 -1.23661e-20)
(0.653614 -0.632904 3.67862e-20)
(0.717353 -0.654628 6.3531e-20)
(0.754495 -0.642892 1.06874e-20)
(0.776635 -0.613826 -1.32458e-20)
(0.791455 -0.578025 -1.37789e-20)
(0.803196 -0.541223 9.64188e-20)
(0.81379 -0.50591 6.53657e-20)
(0.823947 -0.47287 1.8104e-19)
(0.833867 -0.442191 5.14124e-21)
(0.843581 -0.413738 6.13581e-20)
(0.85308 -0.387337 9.58192e-21)
(0.862348 -0.362819 -1.46914e-19)
(0.871373 -0.340027 2.18422e-19)
(0.880143 -0.31882 -8.04966e-20)
(0.888648 -0.299069 1.50357e-19)
(0.89689 -0.280654 2.24399e-19)
(0.904881 -0.263461 -3.43236e-20)
(0.912586 -0.247416 -3.99661e-19)
(0.919895 -0.232493 2.044e-19)
(0.927143 -0.218415 -4.257e-21)
(0.935385 -0.204607 -1.61664e-19)
(0.94244 -0.192696 -8.81625e-20)
(0.16436 -0.16739 2.55629e-21)
(0.401874 -0.404625 -2.19868e-20)
(0.569374 -0.555108 -4.81825e-20)
(0.67821 -0.632831 1.28828e-20)
(0.743651 -0.656845 -2.72746e-20)
(0.780858 -0.646783 -8.36068e-21)
(0.802029 -0.618716 -9.53428e-20)
(0.815361 -0.5834 -4.5922e-20)
(0.82544 -0.546776 -5.10136e-20)
(0.83439 -0.511484 -9.37926e-21)
(0.843003 -0.478398 -1.59548e-19)
(0.851499 -0.44764 -7.24635e-20)
(0.85991 -0.419091 6.84581e-20)
(0.868215 -0.392581 -1.04573e-19)
(0.876391 -0.367943 6.27514e-20)
(0.884415 -0.345022 -8.02762e-20)
(0.892267 -0.32368 8.60436e-20)
(0.899931 -0.303789 1.51065e-19)
(0.907397 -0.285232 -2.27423e-19)
(0.914675 -0.267897 2.48954e-19)
(0.921744 -0.251706 -6.32955e-20)
(0.92848 -0.236633 8.10021e-20)
(0.935065 -0.222412 6.0355e-20)
(0.942665 -0.208473 4.79529e-19)
(0.950443 -0.196483 -6.66657e-20)
(0.169416 -0.164192 -8.73471e-21)
(0.415481 -0.399403 3.54924e-20)
(0.589256 -0.550949 6.99039e-20)
(0.702106 -0.630992 -1.60356e-20)
(0.769461 -0.657378 -5.06182e-22)
(0.806923 -0.649149 1.15994e-20)
(0.827263 -0.622249 1.05001e-20)
(0.839191 -0.587569 7.62341e-20)
(0.847657 -0.551246 3.13905e-20)
(0.854991 -0.516082 1.33709e-19)
(0.862076 -0.483038 1.18406e-19)
(0.869162 -0.45228 9.54786e-20)
(0.876279 -0.423705 -8.61233e-20)
(0.8834 -0.397149 1.24168e-19)
(0.890491 -0.372449 6.15001e-20)
(0.89752 -0.349452 2.40899e-20)
(0.904459 -0.328022 3.37198e-20)
(0.911284 -0.308035 -4.43844e-19)
(0.917977 -0.289375 -1.39964e-20)
(0.924541 -0.271933 3.78557e-20)
(0.930971 -0.255632 2.21582e-19)
(0.93716 -0.240439 -6.98578e-20)
(0.943116 -0.22618 -1.03365e-20)
(0.949667 -0.212748 -2.62376e-19)
(0.957849 -0.201899 -2.13809e-20)
(0.174006 -0.160467 5.91055e-20)
(0.42817 -0.392914 -6.39021e-20)
(0.608163 -0.545149 -9.25289e-20)
(0.725175 -0.627412 7.42499e-20)
(0.794662 -0.656243 5.84354e-21)
(0.832585 -0.649999 1.62647e-20)
(0.852248 -0.624434 1.3314e-20)
(0.862871 -0.590541 1.07435e-20)
(0.869784 -0.554645 -4.58321e-20)
(0.875537 -0.519711 -4.32777e-20)
(0.881119 -0.486798 -9.0778e-20)
(0.886813 -0.456118 3.77792e-21)
(0.892651 -0.427587 -8.82337e-20)
(0.8986 -0.401048 -2.47426e-21)
(0.904616 -0.376342 -1.1561e-19)
(0.910658 -0.353321 -3.76622e-20)
(0.916692 -0.33185 2.22172e-19)
(0.922685 -0.311807 1.21999e-19)
(0.928611 -0.293082 4.08906e-20)
(0.934462 -0.27557 -7.47651e-20)
(0.940244 -0.259189 2.92944e-20)
(0.945892 -0.243897 1.25341e-19)
(0.951314 -0.229593 -1.96526e-20)
(0.956918 -0.216381 1.23383e-19)
(0.964224 -0.204923 5.831e-20)
(0.178122 -0.156246 5.20919e-20)
(0.439845 -0.385191 5.5972e-20)
(0.625975 -0.537757 8.54544e-20)
(0.747286 -0.622125 -4.53765e-20)
(0.819133 -0.653463 1.9233e-20)
(0.857739 -0.64935 4.9156e-20)
(0.876895 -0.625286 3.58207e-21)
(0.886328 -0.592329 1.32739e-20)
(0.891758 -0.556986 2.44394e-20)
(0.895975 -0.522385 -5.11972e-20)
(0.900083 -0.489691 1.31169e-19)
(0.904407 -0.459165 -3.32953e-22)
(0.908985 -0.430745 2.79142e-20)
(0.913778 -0.404285 -1.16569e-19)
(0.918733 -0.379629 6.88987e-20)
(0.923802 -0.356634 -9.62684e-20)
(0.92894 -0.335168 -1.10467e-19)
(0.93411 -0.315111 1.89915e-19)
(0.939277 -0.296357 9.25308e-20)
(0.944424 -0.278805 7.03578e-20)
(0.949558 -0.262371 -1.098e-19)
(0.954663 -0.246991 -1.73699e-19)
(0.959636 -0.232608 -8.18773e-20)
(0.964547 -0.219467 7.53515e-20)
(0.970768 -0.207598 1.26129e-19)
(0.181704 -0.151512 -1.71383e-20)
(0.450446 -0.376288 7.73375e-20)
(0.642575 -0.52884 -1.29027e-19)
(0.768312 -0.615168 -1.63855e-19)
(0.842755 -0.649065 -1.5923e-19)
(0.88228 -0.647222 4.09921e-20)
(0.901118 -0.624822 -4.37874e-21)
(0.90949 -0.592951 -6.01121e-21)
(0.913519 -0.558286 -1.27902e-20)
(0.916251 -0.52412 -1.71275e-21)
(0.918921 -0.49173 -3.80005e-20)
(0.921902 -0.461433 9.60152e-21)
(0.925244 -0.433192 3.44765e-20)
(0.9289 -0.40687 7.4624e-20)
(0.932813 -0.382319 -2.44716e-20)
(0.936922 -0.359399 9.6226e-20)
(0.941179 -0.337982 -2.91752e-20)
(0.945537 -0.317951 -4.103e-20)
(0.949957 -0.299203 1.06821e-19)
(0.954413 -0.281642 1.10172e-19)
(0.958911 -0.265182 6.70896e-20)
(0.963477 -0.249737 -6.20289e-22)
(0.96804 -0.235289 -1.72778e-20)
(0.972455 -0.222215 6.62034e-20)
(0.977801 -0.210125 -5.65215e-20)
(0.184687 -0.146318 1.90071e-21)
(0.459904 -0.366316 -2.0071e-19)
(0.657861 -0.518453 2.4273e-19)
(0.788132 -0.606585 2.23499e-19)
(0.865405 -0.643084 1.1124e-19)
(0.906102 -0.643641 1.07695e-20)
(0.924828 -0.623063 -1.53285e-20)
(0.932284 -0.592428 -1.09346e-20)
(0.935005 -0.558564 5.91686e-21)
(0.936314 -0.524935 2.46619e-20)
(0.937588 -0.492933 -1.6814e-20)
(0.939259 -0.462938 -8.51241e-20)
(0.94139 -0.43494 -1.37159e-20)
(0.943934 -0.408816 4.0416e-20)
(0.946824 -0.384422 -6.82067e-20)
(0.949993 -0.361625 -9.44817e-20)
(0.953383 -0.3403 -1.03668e-20)
(0.956944 -0.320335 -1.98585e-19)
(0.960631 -0.301628 -1.50609e-19)
(0.964412 -0.284089 -9.91318e-20)
(0.968293 -0.267631 -1.06618e-19)