/*--------------------------------*- C++ -*----------------------------------*\
  =========                 |
  \\      /  F ield         | OpenFOAM: The Open Source CFD Toolbox
   \\    /   O peration     | Website:  https://openfoam.org
    \\  /    A nd           | Version:  7
     \\/     M anipulation  |
\*---------------------------------------------------------------------------*/
FoamFile
{
    version     2.0;
    format      ascii;
    class       surfaceScalarField;
    location    "40";
    object      phi;
}
// * * * * * * * * * * * * * * * * * * * * * * * * * * * * * * * * * * * * * //

dimensions      [0 3 -1 0 0 0 0];

internalField   nonuniform List<scalar> 
3878
(
0.00600351
-0.00176552
0.00612166
-0.00168301
0.00623582
-0.00159864
-0.00140236
0.00609272
0.0063458
-0.00151234
-0.00131859
0.00619493
0.00645151
-0.0014243
-0.00113536
0.00604253
-0.00123322
0.00629279
0.00655291
-0.00133462
-0.00105283
0.00613221
-0.0011463
0.00638627
0.00664994
-0.00124333
-0.000968858
0.0062176
-0.00105789
0.0064753
0.00674253
-0.00115049
-0.000802462
0.00604933
-0.000883498
0.00629863
-0.000968055
0.00655986
0.00683063
-0.00105615
-0.000720176
0.00612253
-0.000796808
0.00637527
-0.000876842
0.00663989
0.00691417
-0.000960379
-0.000636665
0.00619143
-0.000708845
0.00644745
-0.000784312
0.00671536
0.00699308
-0.000863224
-0.000551981
0.00625599
-0.000619664
0.00651513
-0.000690521
0.00678622
0.0070673
-0.000764743
-0.000406005
0.00606741
-0.000466178
0.00631616
-0.000529324
0.00657828
-0.000595527
0.00685242
0.00713677
-0.000664995
-0.000323568
0.00612035
-0.000379309
0.0063719
-0.000437881
0.00663685
-0.000499389
0.00691393
0.00720142
-0.000564041
-0.00024016
0.00616897
-0.000291428
0.00642317
-0.000345391
0.00669081
-0.00040217
0.00697071
0.00726119
-0.000461941
-0.000155832
0.00621324
-0.00020259
0.00646993
-0.000251905
0.00674013
-0.000303937
0.00702274
0.00731602
-0.000358767
-7.06382e-05
0.00625312
-0.000112849
0.00651214
-0.000157469
0.00678474
-0.000204761
0.00707003
0.00736584
-0.000254585
1.53673e-05
0.00628859
-2.22803e-05
0.00654979
-6.21301e-05
0.00682459
-0.000104665
0.00711257
0.00741071
-0.000149529
0.000133169
0.000102145
6.91006e-05
0.00658283
3.40364e-05
0.00685966
-2.91636e-06
0.00714952
0.00745174
-4.39526e-05
0.000161207
0.000130854
9.82477e-05
6.3281e-05
-0.00471507
0.00162408
0.00475559
-0.00469216
0.00152602
-0.00467437
0.00152431
-0.00466509
0.00143065
-0.0046629
0.00139133
-0.00466482
0.0013017
-0.00467184
0.00124257
-0.00468126
0.00115544
-0.00469376
0.00108718
-0.00470747
0.00100283
-0.00472269
0.000931945
-0.00473816
0.000851578
-0.00475399
0.000781972
-0.00476938
0.000706674
-0.00478436
0.000640568
-0.00479841
0.00057091
-0.00481155
0.000509281
-0.00482347
0.000445104
-0.0048342
0.00038774
-0.00484352
0.000328017
-0.00485148
0.000273544
-0.00485787
0.000215855
-0.00486269
0.000160819
-0.00486572
9.97469e-05
3.61664e-05
-0.00491857
0.00158383
0.00495881
-0.00489387
0.00150132
-0.00487292
0.00150336
-0.00486108
0.00141881
-0.00485546
0.00138571
-0.00485482
0.00130106
-0.00485924
0.00124699
-0.00486654
0.00116274
-0.00487715
0.0010978
-0.0048893
0.00101498
-0.0049032
0.000945849
-0.00491761
0.000865983
-0.00493259
0.000796956
-0.0049473
0.000721385
-0.00496177
0.000655033
-0.00497542
0.000584561
-0.00498828
0.000522142
-0.00499998
0.000456807
-0.00501057
0.00039833
-0.00501979
0.000337235
-0.00502768
0.000281434
-0.00503402
0.000222201
-0.00503882
0.000165618
-0.00504183
0.000102757
3.72663e-05
-0.00512985
0.00154438
0.00516931
-0.00510266
0.00147412
-0.00507924
0.00147994
-0.00506493
0.0014045
-0.00505609
0.00137688
-0.00505291
0.00129788
-0.00505463
0.00124871
-0.00505973
0.00116784
-0.00506829
0.00110635
-0.00507873
0.00102542
-0.00509116
0.000958281
-0.00510434
0.000879169
-0.00511833
0.000810944
-0.00513223
0.000735286
-0.00514606
0.000668862
-0.00515921
0.000597709
-0.00517169
0.000534625
-0.0051831
0.000468219
-0.00519348
0.00040871
-0.00520254
0.000346296
-0.00521033
0.000289217
-0.00521659
0.000228468
-0.00522135
0.000170369
-0.00522432
0.000105737
3.83559e-05
-0.00534857
0.00150528
0.00538767
-0.00531918
0.00144473
-0.00529363
0.00145439
-0.00527682
0.00138769
-0.005265
0.00136505
-0.00525926
0.00129214
-0.00525821
0.00124766
-0.00526103
0.00117066
-0.00526738
0.00111271
-0.00527598
0.00103401
-0.00528678
0.000969076
-0.0052986
0.000890993
-0.00531144
0.000823787
-0.00532441
0.000748248
-0.00533748
0.000681936
-0.00535002
0.000610249
-0.00536203
0.000546637
-0.00537307
0.00047926
-0.00538318
0.000418813
-0.00539202
0.000355144
-0.00539965
0.000296847
-0.00540581
0.000234623
-0.00541049
0.000175048
-0.00541342
0.00010867
3.94305e-05
-0.00557487
0.00146595
0.0056142
-0.00554367
0.00141353
-0.00551624
0.00142696
-0.00549694
0.00136839
-0.00548233
0.00135044
-0.00547401
0.00128382
-0.00547018
0.00124383
-0.00547063
0.00117111
-0.00547466
0.00111673
-0.00548129
0.00104065
-0.0054903
0.000978082
-0.00550063
0.000901323
-0.00551218
0.000835342
-0.00552408
0.000760146
-0.00553628
0.000694132
-0.0055481
0.000622076
-0.00555955
0.000558084
-0.00557014
0.00048985
-0.0055799
0.000428569
-0.00558848
0.000363722
-0.00559591
0.00030428
-0.00560191
0.000240629
-0.0056065
0.00017963
-0.00560937
0.000111543
4.04852e-05
-0.00580908
0.00142606
0.00584897
-0.00577633
0.00138078
-0.00574717
0.0013978
-0.00572548
0.0013467
-0.00570825
0.00133322
-0.00569731
0.00127288
-0.00569074
0.00123726
-0.00568874
0.00116912
-0.00569034
0.00111833
-0.00569491
0.00104522
-0.00570198
0.000985158
-0.00571069
0.000910031
-0.00572081
0.000845466
-0.00573153
0.000770858
-0.00574272
0.000705328
-0.00575373
0.000633084
-0.00576451
0.000568866
-0.00577457
0.000499906
-0.00578391
0.000437907
-0.00579215
0.000371969
-0.00579934
0.000311465
-0.00580516
0.000246448
-0.00580962
0.000184087
-0.00581241
0.000114336
4.15141e-05
-0.0060515
0.00138551
0.00609205
-0.00601736
0.00134664
-0.00598657
0.00136702
-0.00596259
0.00132272
-0.00594291
0.00131353
-0.00592937
0.00125934
-0.00592008
0.00122797
-0.00591558
0.00116462
-0.00591468
0.00111743
-0.00591707
0.00104761
-0.00592209
0.00099018
-0.00592906
0.000916997
-0.00593762
0.000854025
-0.00594702
0.000780263
-0.0059571
0.0007154
-0.00596718
0.000643167
-0.0059772
0.000578883
-0.00598663
0.000509342
-0.00599547
0.00044675
-0.00600333
0.000379823
-0.00601021
0.00031835
-0.0060158
0.00025204
-0.00602011
0.000188389
-0.0060228
0.000117032
4.2511e-05
-0.00630234
0.00134429
0.00634356
-0.00626695
0.00131125
-0.0062346
0.00133467
-0.00620849
0.0012966
-0.00618647
0.00129151
-0.00617036
0.00124323
-0.00615842
0.00121603
-0.00615136
0.00115756
-0.00614793
0.00111399
-0.00614805
0.00104773
-0.00615092
0.000993043
-0.00615602
0.000922105
-0.00616289
0.000860889
-0.00617087
0.000788243
-0.00617969
0.000724222
-0.00618874
0.000652219
-0.00619789
0.000588028
-0.00620662
0.00051807
-0.00621488
0.000455014
-0.00622227
0.000387218
-0.0062288
0.000324878
-0.00623412
0.00025736
-0.00623824
0.000192503
-0.00624081
0.00011961
4.34684e-05
-0.00656181
0.00130243
0.00660367
-0.00652529
0.00127473
-0.00649146
0.00130084
-0.00646335
0.0012685
-0.00643911
0.00126726
-0.0064205
0.00122462
-0.00640597
0.0012015
-0.00639634
0.00114793
-0.00639035
0.001108
-0.00638812
0.00104551
-0.00638874
0.000993658
-0.00639188
0.000925243
-0.00639693
0.000865937
-0.00640336
0.00079468
-0.00641081
0.000731673
-0.00641872
0.00066013
-0.00642689
0.000596194
-0.00643482
0.000525997
-0.00644242
0.000462616
-0.00644928
0.000394083
-0.00645539
0.000330986
-0.00646039
0.000262363
-0.00646428
0.000196393
-0.00646672
0.000122048
4.43784e-05
-0.00683011
0.00125999
0.00687255
-0.00679258
0.0012372
-0.00675735
0.00126561
-0.0067274
0.00123855
-0.00670103
0.0012409
-0.00668002
0.00120361
-0.00666296
0.00118444
-0.00665076
0.00113573
-0.00664221
0.00109945
-0.00663756
0.00104086
-0.00663586
0.000991951
-0.00663692
0.000926306
-0.00664004
0.000869059
-0.00664482
0.000799456
-0.00665078
0.000737632
-0.00665744
0.000666787
-0.00666451
0.000603269
-0.00667154
0.000533029
-0.00667839
0.000469463
-0.00668465
0.000400346
-0.00669028
0.00033661
-0.00669491
0.000266998
-0.00669854
0.000200019
-0.00670081
0.000124323
4.52322e-05
-0.00710746
0.00121703
0.00715042
-0.00706902
0.00119875
-0.00703249
0.00122908
-0.00700083
0.00120689
-0.00697246
0.00121253
-0.00694915
0.0011803
-0.00692964
0.00116493
-0.00691489
0.00112099
-0.00690377
0.00108833
-0.00689666
0.00103375
-0.00689257
0.00098786
-0.00689147
0.000925199
-0.00689256
0.00087015
-0.00689556
0.000802458
-0.00689991
0.000741979
-0.0069052
0.000672079
-0.00691107
0.00060914
-0.00691711
0.000539066
-0.00692311
0.000475462
-0.00692869
0.000405927
-0.00693376
0.00034168
-0.00693797
0.000271213
-0.00694129
0.000203339
-0.00694338
0.000126412
4.60199e-05
-0.00739411
0.00117364
0.0074375
-0.00735485
0.00115949
-0.00731713
0.00119136
-0.0072839
0.00117367
-0.00725363
0.00118225
-0.00722813
0.0011548
-0.00720624
0.00114303
-0.00718899
0.00110374
-0.00717532
0.00107467
-0.00716571
0.00102414
-0.00715919
0.000981337
-0.00715583
0.000921834
-0.00715479
0.000869117
-0.00715591
0.000803572
-0.00715853
0.000744601
-0.00716234
0.000675889
-0.0071669
0.000613696
-0.00717184
0.000544006
-0.00717689
0.000480515
-0.00718171
0.000410745
-0.00718615
0.000346121
-0.00718989
0.000274952
-0.00719286
0.000206308
-0.00719473
0.000128288
4.6731e-05
-0.0076903
0.00112989
0.00773405
-0.00765031
0.0011195
-0.00761151
0.00115256
-0.00757683
0.00113899
-0.00754478
0.0011502
-0.00751721
0.00112723
-0.00749302
0.00111885
-0.00747333
0.00108404
-0.00745714
0.00105848
-0.00744501
0.00101202
-0.00743602
0.000972344
-0.00743032
0.000916137
-0.00742708
0.000865875
-0.0074262
0.000802692
-0.00742699
0.000745389
-0.0074292
0.000678103
-0.00743233
0.000616822
-0.00743607
0.000547743
-0.00744007
0.000484524
-0.00744404
0.000414716
-0.00744778
0.000349857
-0.00745098
0.000278156
-0.00745356
0.000208879
-0.00745519
0.000129923
4.73544e-05
-0.0079963
0.00108586
0.00804033
-0.00795567
0.00107887
-0.0079159
0.00111278
-0.00787989
0.00110298
-0.00784618
0.00111649
-0.00781664
0.0010977
-0.00779025
0.00109246
-0.00776818
0.00106196
-0.0077495
0.0010398
-0.00773486
0.000997374
-0.00772337
0.000960854
-0.00771528
0.000908046
-0.00770975
0.000860347
-0.00770678
0.000799717
-0.00770562
0.000744236
-0.00770613
0.000678608
-0.00770771
0.000618407
-0.00771014
0.00055017
-0.007713
0.000487385
-0.00771603
0.00041775
-0.00771899
0.000352809
-0.00772159
0.000280764
-0.00772372
0.000211
-0.00772508
0.000131289
4.78778e-05
-0.0083124
0.00104161
0.00835665
-0.00827122
0.00103768
-0.00823058
0.00107214
-0.00819335
0.00106575
-0.00815809
0.00108123
-0.0081267
0.00106631
-0.00809821
0.00106397
-0.00807382
0.00103757
-0.0080527
0.00101869
-0.00803556
0.000980227
-0.00802155
0.000946852
-0.00801102
0.000897511
-0.00800314
0.000852467
-0.00799798
0.000794556
-0.00799479
0.000741044
-0.00799347
0.000677293
-0.00799341
0.000618342
-0.00799441
0.000551177
-0.00799602
0.000488996
-0.00799803
0.000419755
-0.00800011
0.000354894
-0.00800206
0.000282709
-0.00800368
0.000212621
-0.00800475
0.000132355
4.82888e-05
-0.00863891
0.000997214
0.0086833
-0.00859724
0.00099601
-0.00855583
0.00103073
-0.00851748
0.00102741
-0.00848079
0.00104454
-0.00844766
0.00103318
-0.00841716
0.00103347
-0.00839054
0.00101096
-0.00836704
0.000995185
-0.00834741
0.000960599
-0.0083309
0.000930335
-0.00831788
0.000884497
-0.00830759
0.000842178
-0.00830016
0.000787124
-0.00829484
0.000735722
-0.00829159
0.000674049
-0.00828977
0.000616518
-0.00828925
0.000550656
-0.00828951
0.000489255
-0.00829039
0.000420637
-0.00829153
0.000356029
-0.00829274
0.000283925
-0.00829381
0.000213687
-0.00829454
0.00013309
4.8574e-05
-0.00897613
0.000952726
0.00902062
-0.00893404
0.000953922
-0.00889195
0.000988645
-0.00885258
0.000988039
-0.00881457
0.00100652
-0.00877981
0.000998421
-0.0087474
0.00100106
-0.00871864
0.000982203
-0.00869282
0.000969357
-0.00867074
0.000938525
-0.00865172
0.00091131
-0.0086362
0.000868978
-0.00862345
0.000829434
-0.00861368
0.000777349
-0.00860614
0.000728183
-0.00860087
0.000668775
-0.00859718
0.000612833
-0.00859502
0.000548498
-0.00859383
0.00048806
-0.00859349
0.000420301
-0.00859359
0.000356128
-0.00859401
0.000284341
-0.00859446
0.000214142
-0.00859483
0.00013346
4.87201e-05
-0.0093244
0.000908193
0.00936893
-0.00928196
0.000911479
-0.00923927
0.000945956
-0.00919897
0.000947744
-0.00915974
0.000967296
-0.00912345
0.000962125
-0.00908924
0.000966845
-0.00905842
0.000951389
-0.00903034
0.000941275
-0.00900586
0.000914049
-0.00898435
0.000889796
-0.00896631
0.000850944
-0.00895108
0.000814199
-0.0089389
0.000765167
-0.00892906
0.000718351
-0.00892166
0.000661375
-0.00891602
0.000607189
-0.00891212
0.000544597
-0.00890937
0.00048531
-0.00890772
0.000418648
-0.0089067
0.000355107
-0.00890624
0.000283886
-0.00890603
0.00021393
-0.008906
0.000133429
4.87131e-05
-0.00968406
0.000863655
0.0097286
-0.00964132
0.000868735
-0.00959811
0.000902743
-0.00955697
0.000906605
-0.00951662
0.000926949
-0.00947889
0.000924395
-0.00944297
0.000930928
-0.00941019
0.000918605
-0.00937993
0.000911012
-0.0093531
0.000887221
-0.00932912
0.000865819
-0.00930857
0.000830392
-0.00929082
0.000796448
-0.00927618
0.000750528
-0.00926399
0.000706158
-0.00925437
0.000651761
-0.00924668
0.000599491
-0.00924093
0.000538849
-0.00923653
0.000480908
-0.00923346
0.000415583
-0.00923123
0.000352881
-0.00922983
0.000282484
-0.0092289
0.000212995
-0.00922843
0.000132963
4.85394e-05
-0.0100555
0.000819144
0.0101
-0.0100125
0.000825734
-0.00996882
0.000859068
-0.00992691
0.000864696
-0.00988553
0.000885573
-0.00984646
0.000885323
-0.00980894
0.000893402
-0.00977427
0.00088394
-0.00974191
0.000878648
-0.00971279
0.000858099
-0.00968638
0.000839417
-0.00966332
0.000807333
-0.00964304
0.000776167
-0.00962591
0.000733389
-0.00961129
0.000691545
-0.00959939
0.000639854
-0.00958955
0.000589654
-0.00958186
0.000531158
-0.00957571
0.000474758
-0.00957113
0.000411009
-0.00956762
0.000349365
-0.00956519
0.000280061
-0.00956348
0.000211279
-0.00956254
0.000132024
4.81851e-05
-0.0104391
0.000774683
0.0104835
-0.0103959
0.000782513
-0.0103518
0.000814985
-0.0103092
0.000822086
-0.0102668
0.000843248
-0.0102265
0.000844998
-0.0101875
0.000854361
-0.010151
0.000847479
-0.0101166
0.00084426
-0.0100853
0.000826744
-0.0100565
0.000810635
-0.0100309
0.000781784
-0.0100081
0.000753353
-0.00998845
0.000713722
-0.00997137
0.000674462
-0.0099571
0.000625584
-0.00994504
0.000577596
-0.00993531
0.000521429
-0.00992733
0.000466769
-0.00992115
0.000404833
-0.00991626
0.000344479
-0.00991274
0.000276543
-0.00991019
0.000208729
-0.00990874
0.000130573
4.76368e-05
-0.0108352
0.000730284
0.0108796
-0.0107918
0.000739101
-0.0107474
0.00077054
-0.0107041
0.000778832
-0.0106609
0.000800046
-0.0106194
0.000803499
-0.0105789
0.00081389
-0.0105408
0.000809306
-0.0105044
0.000807929
-0.0104709
0.000793222
-0.0104398
0.00077952
-0.0104118
0.000753773
-0.0103864
0.000728011
-0.0103642
0.000691506
-0.0103446
0.000654871
-0.0103279
0.00060889
-0.0103136
0.000563245
-0.0103017
0.000509578
-0.0102918
0.000456855
-0.0102839
0.000396965
-0.0102776
0.000338141
-0.0102729
0.000271857
-0.0102695
0.000205287
-0.0102675
0.000128572
4.68817e-05
-0.0112443
0.000685954
0.0112887
-0.0112007
0.000695516
-0.011156
0.000725766
-0.0111121
0.000734981
-0.0110681
0.00075603
-0.0110255
0.000760896
-0.0109837
0.000772068
-0.0109439
0.000769502
-0.0109057
0.000769731
-0.01087
0.000757598
-0.0108367
0.000746128
-0.0108062
0.000723334
-0.0107784
0.000700156
-0.0107536
0.000666733
-0.0107315
0.000632743
-0.0107123
0.000589722
-0.0106956
0.000546539
-0.0106815
0.000495528
-0.0106696
0.000444936
-0.01066
0.000387321
-0.0106521
0.000330277
-0.0106462
0.00026593
-0.0106418
0.000200903
-0.0106392
0.000125984
4.59073e-05
-0.0116669
0.00064169
0.0117111
-0.0116231
0.000651769
-0.011578
0.000680688
-0.0115336
0.000690574
-0.0114889
0.000711251
-0.0114452
0.000717254
-0.0114021
0.000728966
-0.0113607
0.000728139
-0.0113208
0.000729741
-0.0112831
0.000719939
-0.0112475
0.000710514
-0.0112147
0.000690506
-0.0111843
0.000669808
-0.011157
0.000639401
-0.0111323
0.000608057
-0.0111106
0.000568041
-0.0110915
0.000527422
-0.0110752
0.00047921
-0.0110612
0.000430939
-0.0110497
0.000375822
-0.0110402
0.000320812
-0.011033
0.000258694
-0.0110276
0.000195525
-0.0110244
0.00012277
4.47019e-05
-0.0121033
0.000597477
0.0121475
-0.0120594
0.000607862
-0.012014
0.000635319
-0.0119691
0.000645636
-0.0119236
0.00066575
-0.011879
0.000672623
-0.0118346
0.000684645
-0.0117918
0.000685285
-0.0117501
0.000688025
-0.0117104
0.00068031
-0.0116727
0.000672735
-0.0116375
0.000655331
-0.0116047
0.000636997
-0.0115748
0.00060952
-0.0115475
0.000580804
-0.0115233
0.000543816
-0.0115017
0.000505851
-0.0114831
0.000460565
-0.011467
0.000414798
-0.0114535
0.000362396
-0.0114424
0.000309681
-0.0114338
0.000250087
-0.0114274
0.000189105
-0.0114235
0.000118895
4.32548e-05
-0.0125542
0.000553296
0.0125983
-0.0125101
0.000563784
-0.0124644
0.000589661
-0.012419
0.000600184
-0.0123728
0.000619554
-0.0123272
0.000627044
-0.0122817
0.000639156
-0.0122374
0.000640998
-0.012194
0.000644647
-0.0121525
0.000638771
-0.0121126
0.000632845
-0.0120751
0.000617856
-0.0120399
0.000601754
-0.0120075
0.000577105
-0.0119777
0.000550983
-0.0119509
0.000517028
-0.0119268
0.00048179
-0.0119058
0.000439545
-0.0118875
0.000396456
-0.011872
0.00034698
-0.0118592
0.000296823
-0.0118491
0.00024005
-0.0118416
0.000181599
-0.0118371
0.000114325
4.15558e-05
-0.01302
0.000509113
0.0130641
-0.0129757
0.000519516
-0.0129297
0.000543704
-0.0128838
0.000554221
-0.0128369
0.00057268
-0.0127904
0.000580546
-0.0127438
0.000592538
-0.0126981
0.000595324
-0.0126531
0.000599658
-0.0126097
0.000595376
-0.0125678
0.000590899
-0.012528
0.000578125
-0.0124904
0.000564113
-0.0124555
0.000542177
-0.0124231
0.000518601
-0.0123937
0.000487668
-0.0123672
0.000455215
-0.0123437
0.000416111
-0.0123231
0.000375867
-0.0123057
0.000329522
-0.012291
0.000282183
-0.0122795
0.000228531
-0.0122709
0.000172967
-0.0122656
0.00010903
3.9596e-05
-0.0135013
0.000464885
0.0135455
-0.0134568
0.000475028
-0.0134105
0.000497425
-0.013364
0.000507739
-0.0133165
0.00052513
-0.0132691
0.000533144
-0.0132213
0.000544817
-0.0131743
0.000548301
-0.0131278
0.000553102
-0.0130826
0.000550174
-0.0130386
0.000546942
-0.0129967
0.000536183
-0.0129567
0.000524113
-0.0129192
0.000504763
-0.0128843
0.000483669
-0.0128524
0.000455733
-0.0128233
0.000426111
-0.0127974
0.000390237
-0.0127745
0.000352993
-0.012755
0.000309977
-0.0127385
0.000265719
-0.0127255
0.000215488
-0.0127157
0.000163173
-0.0127096
0.000102983
3.73675e-05
-0.0139987
0.000420558
0.014043
-0.0139539
0.000430274
-0.0139073
0.00045079
-0.0138602
0.000460714
-0.013812
0.00047689
-0.0137637
0.000484839
-0.0137149
0.000496004
-0.0136665
0.000499952
-0.0136184
0.000505011
-0.0135715
0.000503202
-0.0135255
0.000501016
-0.0134814
0.00049207
-0.0134391
0.000481789
-0.0133992
0.00046489
-0.0133618
0.000446208
-0.0133273
0.000421232
-0.0132956
0.000394474
-0.0132673
0.000361905
-0.0132421
0.00032781
-0.0132205
0.000288313
-0.0132021
0.000247394
-0.0131875
0.000200886
-0.0131765
0.000152188
-0.0131697
9.61621e-05
3.48638e-05
-0.0145128
0.000376064
0.0145573
-0.0144677
0.000385199
-0.0144207
0.000403745
-0.0143731
0.000413108
-0.0143241
0.000427931
-0.0142749
0.000435614
-0.014225
0.000446094
-0.0141753
0.000450283
-0.0141257
0.000455401
-0.014077
0.000454486
-0.0140291
0.000453152
-0.0139829
0.00044582
-0.0139382
0.000437174
-0.0138959
0.00042259
-0.013856
0.00040624
-0.0138189
0.000384179
-0.0137848
0.000360309
-0.013754
0.000331113
-0.0137265
0.000300305
-0.0137027
0.00026451
-0.0136825
0.000227186
-0.0136663
0.0001847
-0.0136541
0.000139991
-0.0136465
8.85513e-05
3.208e-05
-0.0150443
0.000331321
0.0150891
-0.0149989
0.000339729
-0.0149513
0.000356225
-0.0149031
0.000364863
-0.0148534
0.000378207
-0.0148032
0.000385436
-0.0147522
0.000395066
-0.0147012
0.000399288
-0.01465
0.000404276
-0.0145996
0.00040404
-0.0145498
0.000403372
-0.0145015
0.000397462
-0.0144546
0.000390299
-0.0144099
0.000377893
-0.0143674
0.000363794
-0.0143279
0.000344598
-0.0142912
0.000323631
-0.0142579
0.000297867
-0.0142281
0.000270478
-0.0142022
0.000238564
-0.0141801
0.000205084
-0.0141623
0.000166917
-0.0141489
0.00012657
-0.0141404
8.01408e-05
2.90131e-05
-0.015594
0.00028623
0.0156391
-0.015548
0.000293775
-0.0154999
0.000308142
-0.015451
0.000315907
-0.0154004
0.000327651
-0.0153493
0.000334253
-0.0152971
0.000342878
-0.0152447
0.000346938
-0.0151921
0.000351619
-0.0151399
0.000351863
-0.0150882
0.000351684
-0.0150377
0.000347014
-0.0149886
0.000341189
-0.0149416
0.000330827
-0.0148967
0.000318898
-0.0148546
0.000302516
-0.0148154
0.000284466
-0.0147797
0.000262187
-0.0147476
0.000238342
-0.0147195
0.000210481
-0.0146955
0.000181091
-0.0146762
0.000147539
-0.0146615
0.000111922
-0.0146523
7.09283e-05
2.56623e-05
-0.0161625
0.000240671
0.0162081
-0.016116
0.000247227
-0.0160672
0.00025939
-0.0160174
0.000266143
-0.015966
0.000276175
-0.0159137
0.00028199
-0.0158603
0.000289466
-0.0158065
0.000293186
-0.0157523
0.000297398
-0.0156984
0.000297936
-0.0156448
0.000298084
-0.0155923
0.000294485
-0.0155409
0.000289861
-0.0154915
0.000281421
-0.0154442
0.000271584
-0.0153997
0.000257968
-0.015358
0.000242846
-0.01532
0.000224107
-0.0152855
0.000203927
-0.0152553
0.000180288
-0.0152295
0.000155228
-0.0152085
0.00012658
-0.0151927
9.60567e-05
-0.0151827
6.09199e-05
2.20298e-05
-0.0167507
0.000194507
0.0167968
-0.0167034
0.000199954
-0.0166538
0.000209839
-0.0166031
0.000215452
-0.0165506
0.000223666
-0.0164972
0.000228549
-0.0164425
0.000234744
-0.0163872
0.000237962
-0.0163314
0.000241556
-0.0162757
0.000242222
-0.0162202
0.000242548
-0.0161655
0.000239869
-0.016112
0.000236325
-0.0160603
0.000229696
-0.0160106
0.000221886
-0.0159636
0.000210997
-0.0159196
0.000198819
-0.0158791
0.000183674
-0.0158425
0.000167278
-0.0158102
0.000148028
-0.0157825
0.000127532
-0.01576
0.000104072
-0.015743
7.89988e-05
-0.0157322
5.01313e-05
1.81208e-05
-0.0173593
0.000147569
0.0174062
-0.0173111
0.000151798
-0.0172606
0.000159331
-0.0172088
0.000163687
-0.0171552
0.000169985
-0.0171004
0.000173803
-0.0170443
0.000178598
-0.0169875
0.000181171
-0.0169299
0.000184014
-0.0168724
0.000184664
-0.0168149
0.00018504
-0.0167582
0.00018315
-0.0167024
0.000180582
-0.0166484
0.000175675
-0.0165963
0.000169837
-0.016547
0.00016165
-0.0165006
0.00015244
-0.0164579
0.000140952
-0.0164191
0.00012846
-0.0163848
0.000113764
-0.0163553
9.80623e-05
-0.0163313
8.00676e-05
-0.0163131
6.07885e-05
-0.0163016
3.85899e-05
1.39447e-05
-0.0179892
9.96591e-05
0.0180371
-0.01794
0.000102568
-0.0178883
0.000107677
-0.0178353
0.000110672
-0.0177803
0.000114961
-0.0177241
0.000117598
-0.0176664
0.000120884
-0.0176079
0.000122688
-0.0175485
0.000124669
-0.017489
0.000125181
-0.0174295
0.0001255
-0.0173706
0.000124297
-0.0173127
0.000122626
-0.0172564
0.000119374
-0.017202
0.000115478
-0.0171504
0.000109986
-0.0171017
0.000103782
-0.0170568
9.60244e-05
-0.0170159
8.75619e-05
-0.0169797
7.75878e-05
-0.0169485
6.69029e-05
-0.0169231
5.46432e-05
-0.0169038
4.14859e-05
-0.0168916
2.63361e-05
9.51499e-06
-0.0186412
5.05185e-05
0.0186904
-0.0185907
5.20562e-05
-0.0185377
5.46631e-05
-0.0184832
5.61959e-05
-0.0184267
5.83853e-05
-0.0183688
5.97393e-05
-0.0183094
6.14247e-05
-0.018249
6.23599e-05
-0.0181877
6.33864e-05
-0.0181262
6.36686e-05
-0.0180646
6.38548e-05
-0.0180036
6.32672e-05
-0.0179434
6.24422e-05
-0.0178848
6.08114e-05
-0.0178282
5.88524e-05
-0.0177743
5.60768e-05
-0.0177234
5.29371e-05
-0.0176764
4.89988e-05
-0.0176335
4.46981e-05
-0.0175956
3.96165e-05
-0.0175628
3.41673e-05
-0.0175361
2.7902e-05
-0.0175158
2.11754e-05
-0.0175029
1.34258e-05
4.85175e-06
-0.0193163
0.0193669
-0.0192643
-0.0192096
-0.0191534
-0.019095
-0.0190353
-0.0189739
-0.0189115
-0.0188481
-0.0187845
-0.0187206
-0.0186573
-0.0185949
-0.0185341
-0.0184752
-0.0184192
-0.0183662
-0.0183172
-0.0182725
-0.0182329
-0.0181987
-0.0181708
-0.0181497
-0.0181362
0.000154131
-0.00452246
0.000137116
-0.00467989
0.000120863
-0.00484497
0.000105574
-0.00501758
9.03511e-05
-0.00519605
7.59378e-05
-0.00538227
6.2195e-05
-0.00557515
-0.00577494
4.63021e-05
-0.00450548
3.00694e-05
-0.00466365
1.4476e-05
-0.00482938
-8.02048e-07
-0.0050023
-1.34636e-05
-0.00518339
-2.59827e-05
-0.00536975
-3.79302e-05
-0.00556321
-4.92666e-05
-0.0057636
-5.99598e-05
-0.00597117
-6.99818e-05
-0.00618612
-7.9322e-05
-0.00640869
-8.78441e-05
-0.00663912
-9.58869e-05
-0.00687793
-0.000103127
-0.00712496
-0.000109601
-0.00738062
-0.000115311
-0.00764528
-0.000120247
-0.00791921
-0.000124398
-0.00820275
-0.000127755
-0.00849622
-0.000130304
-0.00879996
-0.000132035
-0.00911432
-0.00013293
-0.00943969
-0.000132974
-0.00977647
-0.000132225
-0.0101251
-0.000130586
-0.0104859
-0.000128076
-0.0108594
-0.000124686
-0.0112461
-0.000120411
-0.0116465
-0.000115245
-0.012061
-0.000109183
-0.0124904
-0.000102221
-0.0129352
-9.436e-05
-0.0133961
-8.55998e-05
-0.0138738
-7.59447e-05
-0.0143689
-6.54018e-05
-0.0148824
-5.39847e-05
-0.0154151
-4.1707e-05
-0.0159678
-2.85991e-05
-0.0165418
-1.46902e-05
-0.0171377
-0.0177573
-5.97192e-05
-0.00448972
-7.44505e-05
-0.00464892
-8.83225e-05
-0.0048155
-0.00010107
-0.00498956
-0.00011372
-0.00517074
-0.000125285
-0.00535818
-0.000136119
-0.00555237
-0.000146186
-0.00575354
-0.000155478
-0.00596187
-0.00016399
-0.00617761
-0.000171706
-0.00640097
-0.000178577
-0.00663225
-0.000184754
-0.00687175
-0.000190093
-0.00711962
-0.000194575
-0.00737614
-0.0001982
-0.00764165
-0.000200959
-0.00791645
-0.000202839
-0.00820087
-0.000203827
-0.00849523
-0.000203911
-0.00879987
-0.000203077
-0.00911516
-0.000201308
-0.00944146
-0.000198594
-0.00977919
-0.000194955
-0.0101288
-0.000190335
-0.0104905
-0.000184733
-0.010865
-0.000178139
-0.0112527
-0.000170544
-0.0116541
-0.000161939
-0.0120697
-0.000152317
-0.0125001
-0.000141671
-0.0129459
-0.000129996
-0.0134078
-0.00011729
-0.0138865
-0.000103553
-0.0143826
-8.87875e-05
-0.0148972
-7.30025e-05
-0.0154308
-5.62079e-05
-0.0159846
-3.8428e-05
-0.0165595
-1.96859e-05
-0.0171564
-0.017777
-0.000164182
-0.00447506
-0.000178108
-0.004635
-0.000190964
-0.00480265
-0.000202839
-0.00497768
-0.000214118
-0.00515946
-0.000224503
-0.0053478
-0.000234028
-0.00554285
-0.000242707
-0.00574486
-0.000250531
-0.00595405
-0.000257492
-0.00617065
-0.000263571
-0.00639489
-0.00026876
-0.00662706
-0.000273094
-0.00686742
-0.000276523
-0.00711619
-0.000279018
-0.00737365
-0.000280568
-0.0076401
-0.00028116
-0.00791586
-0.00028078
-0.00820125
-0.000279414
-0.00849659
-0.000277047
-0.00880224
-0.000273664
-0.00911854
-0.000269248
-0.00944588
-0.000263787
-0.00978465
-0.000257283
-0.0101353
-0.0002497
-0.0104981
-0.000241024
-0.0108737
-0.000231245
-0.0112625
-0.00022035
-0.011665
-0.000208328
-0.0120817
-0.000195167
-0.0125132
-0.000180858
-0.0129602
-0.000165393
-0.0134233
-0.000148766
-0.0139031
-0.000130972
-0.0144004
-0.000112012
-0.0149161
-9.18878e-05
-0.015451
-7.0606e-05
-0.0160059
-4.81862e-05
-0.016582
-2.46453e-05
-0.01718
-0.0178016
-0.000268283
-0.00446136
-0.000281185
-0.0046221
-0.000293011
-0.00479082
-0.000303876
-0.00496682
-0.000313892
-0.00514944
-0.000323021
-0.00533867
-0.000331234
-0.00553463
-0.000338527
-0.00573757
-0.000344888
-0.00594769
-0.000350305
-0.00616523
-0.000354761
-0.00639044
-0.000358253
-0.00662357
-0.000360781
-0.00686489
-0.000362321
-0.00711465
-0.000362844
-0.00737312
-0.000362335
-0.00764061
-0.000360777
-0.00791742
-0.000358156
-0.00820387
-0.000354455
-0.0085003
-0.000349656
-0.00880704
-0.000343744
-0.00912445
-0.000336699
-0.00945292
-0.000328509
-0.00979284
-0.000319164
-0.0101446
-0.000308637
-0.0105087
-0.00029691
-0.0108854
-0.000283968
-0.0112754
-0.000269796
-0.0116791
-0.000254379
-0.0120971
-0.000237704
-0.0125299
-0.000219757
-0.0129781
-0.000200528
-0.0134425
-0.000180007
-0.0139236
-0.000158185
-0.0144223
-0.000135059
-0.0149392
-0.000110627
-0.0154754
-8.48917e-05
-0.0160316
-5.7867e-05
-0.016609
-2.95648e-05
-0.0172083
-0.0178312
-0.000371561
-0.00444857
-0.000383436
-0.00461022
-0.000394213
-0.00478004
-0.000403992
-0.00495704
-0.000412826
-0.00514061
-0.000420714
-0.00533078
-0.000427624
-0.00552772
-0.000433541
-0.00573165
-0.000438452
-0.00594278
-0.000442341
-0.00616134
-0.000445193
-0.00638758
-0.000446999
-0.00662176
-0.000447746
-0.00686414
-0.000447418
-0.00711498
-0.000445989
-0.00737455
-0.00044344
-0.00764316
-0.000439754
-0.00792111
-0.000434912
-0.00820871
-0.000428896
-0.00850631
-0.000421688
-0.00881425
-0.000413267
-0.00913287
-0.000403616
-0.00946257
-0.000392718
-0.00980373
-0.000380558
-0.0101568
-0.00036711
-0.0105221
-0.000352354
-0.0109002
-0.000336273
-0.0112915
-0.000318848
-0.0116965
-0.000300063
-0.0121159
-0.000279899
-0.0125501
-0.000258343
-0.0129997
-0.000235378
-0.0134654
-0.000210992
-0.013948
-0.000185174
-0.0144481
-0.000157914
-0.0149665
-0.000129209
-0.0155041
-9.90558e-05
-0.0160618
-6.74641e-05
-0.0166406
-3.44411e-05
-0.0172413
-0.0178656
-0.000473841
-0.00443667
-0.000484719
-0.00459934
-0.000494457
-0.00477031
-0.00050315
-0.00494834
-0.00051083
-0.00513293
-0.000517493
-0.00532412
-0.000523115
-0.0055221
-0.000527674
-0.00572709
-0.000531153
-0.0059393
-0.000533534
-0.00615896
-0.000534799
-0.00638632
-0.000534935
-0.00662163
-0.000533926
-0.00686515
-0.000531754
-0.00711715
-0.000528396
-0.00737791
-0.000523831
-0.00764772
-0.000518038
-0.0079269
-0.000510998
-0.00821575
-0.000502691
-0.00851462
-0.000493095
-0.00882384
-0.000482191
-0.00914378
-0.000469957
-0.0094748
-0.000456374
-0.00981732
-0.000441423
-0.0101717
-0.00042508
-0.0105384
-0.000407321
-0.0109179
-0.000388127
-0.0113107
-0.000367477
-0.0117172
-0.00034535
-0.012138
-0.000321727
-0.0125737
-0.00029659
-0.0130248
-0.00026992
-0.0134921
-0.000241702
-0.0139762
-0.00021192
-0.0144779
-0.000180563
-0.0149979
-0.000147621
-0.015537
-0.000113089
-0.0160963
-7.69713e-05
-0.0166767
-3.92709e-05
-0.017279
-0.0179049
-0.000575051
-0.00442566
-0.000584951
-0.00458944
-0.000593659
-0.0047616
-0.000601277