/*--------------------------------*- C++ -*----------------------------------*\
  =========                 |
  \\      /  F ield         | OpenFOAM: The Open Source CFD Toolbox
   \\    /   O peration     | Website:  https://openfoam.org
    \\  /    A nd           | Version:  7
     \\/     M anipulation  |
\*---------------------------------------------------------------------------*/
FoamFile
{
    version     2.0;
    format      ascii;
    class       volScalarField;
    location    "10";
    object      p;
}
// * * * * * * * * * * * * * * * * * * * * * * * * * * * * * * * * * * * * * //

dimensions      [0 2 -2 0 0 0 0];

internalField   nonuniform List<scalar> 
31800
(
-0.290981
-0.293173
-0.294405
-0.295429
-0.296374
-0.29729
-0.298246
-0.299292
-0.300463
-0.301785
-0.303277
-0.304954
-0.306829
-0.308915
-0.311224
-0.31377
-0.316566
-0.319627
-0.322967
-0.326601
-0.330546
-0.334826
-0.339456
-0.344435
-0.349947
-0.291159
-0.293324
-0.294542
-0.295557
-0.296495
-0.297405
-0.298357
-0.299399
-0.300567
-0.301886
-0.303376
-0.30505
-0.306923
-0.309007
-0.311314
-0.313859
-0.316654
-0.319714
-0.323054
-0.326688
-0.330632
-0.334913
-0.339545
-0.34451
-0.350012
-0.29151
-0.293622
-0.294815
-0.295811
-0.296735
-0.297633
-0.298576
-0.29961
-0.300772
-0.302085
-0.303569
-0.305238
-0.307106
-0.309185
-0.311489
-0.31403
-0.316822
-0.319881
-0.323219
-0.326852
-0.330794
-0.335074
-0.339709
-0.344647
-0.350118
-0.292029
-0.294062
-0.295216
-0.296185
-0.297087
-0.297969
-0.298897
-0.299919
-0.30107
-0.302373
-0.303848
-0.305509
-0.307368
-0.30944
-0.311736
-0.31427
-0.317057
-0.32011
-0.323445
-0.327074
-0.33101
-0.335284
-0.33992
-0.344821
-0.350226
-0.292704
-0.294636
-0.29574
-0.296672
-0.297545
-0.298404
-0.299312
-0.300318
-0.301453
-0.302742
-0.304203
-0.30585
-0.307697
-0.309756
-0.31204
-0.314563
-0.317339
-0.320382
-0.323707
-0.327327
-0.331252
-0.335511
-0.34014
-0.345
-0.350277
-0.293521
-0.295331
-0.296375
-0.297263
-0.298099
-0.298928
-0.299811
-0.300794
-0.301908
-0.303177
-0.304618
-0.306247
-0.308074
-0.310114
-0.31238
-0.314884
-0.317643
-0.320669
-0.323977
-0.327579
-0.331483
-0.335715
-0.340326
-0.345146
-0.350209
-0.294465
-0.296136
-0.29711
-0.297945
-0.298738
-0.29953
-0.300382
-0.301335
-0.302422
-0.303664
-0.305079
-0.30668
-0.308482
-0.310495
-0.312733
-0.315211
-0.317942
-0.320942
-0.324222
-0.327796
-0.331668
-0.335857
-0.340429
-0.345224
-0.349956
-0.295518
-0.297036
-0.297932
-0.298707
-0.299449
-0.300199
-0.301011
-0.301928
-0.302979
-0.304186
-0.305566
-0.307132
-0.308898
-0.310874
-0.313076
-0.315516
-0.318209
-0.321169
-0.32441
-0.327942
-0.331769
-0.335898
-0.340401
-0.345207
-0.349446
-0.296662
-0.298017
-0.298828
-0.299536
-0.300221
-0.300919
-0.301685
-0.302556
-0.303563
-0.304726
-0.306062
-0.307583
-0.309302
-0.311231
-0.313383
-0.315773
-0.318415
-0.321323
-0.324509
-0.327984
-0.331751
-0.335805
-0.340203
-0.345103
-0.34858
-0.297877
-0.299064
-0.299784
-0.30042
-0.301039
-0.301679
-0.302389
-0.303207
-0.304159
-0.305268
-0.306548
-0.308012
-0.309672
-0.311541
-0.313632
-0.315958
-0.318534
-0.321375
-0.324492
-0.327895
-0.331585
-0.335552
-0.339808
-0.344927
-0.347397
-0.299145
-0.300161
-0.300787
-0.301345
-0.301893
-0.302467
-0.303112
-0.303865
-0.304752
-0.305795
-0.307007
-0.308402
-0.309991
-0.311787
-0.313802
-0.31605
-0.318546
-0.321304
-0.324336
-0.327651
-0.331248
-0.335127
-0.339199
-0.344166
-0.346483
-0.300447
-0.301295
-0.301825
-0.3023
-0.302771
-0.303269
-0.30384
-0.304518
-0.305329
-0.306293
-0.307425
-0.308737
-0.310242
-0.31195
-0.313876
-0.316032
-0.318434
-0.321095
-0.324027
-0.327239
-0.330725
-0.33451
-0.338385
-0.343308
-0.345181
-0.301768
-0.302453
-0.302887
-0.303275
-0.303662
-0.304078
-0.304564
-0.305156
-0.305877
-0.30675
-0.307788
-0.309005
-0.310411
-0.312019
-0.313842
-0.315892
-0.318186
-0.320737
-0.323557
-0.326654
-0.330012
-0.333706
-0.337337
-0.342346
-0.343523
-0.303094
-0.303624
-0.303962
-0.304262
-0.304558
-0.304883
-0.305275
-0.305769
-0.306389
-0.307157
-0.308089
-0.309196
-0.310491
-0.311986
-0.313693
-0.315626
-0.317801
-0.32023
-0.322926
-0.3259
-0.329114
-0.332727
-0.336053
-0.341246
-0.341585
-0.304412
-0.304801
-0.305045
-0.305253
-0.305454
-0.305679
-0.305967
-0.306351
-0.306858
-0.307508
-0.30832
-0.309305
-0.310477
-0.311846
-0.313427
-0.315234
-0.31728
-0.31958
-0.322143
-0.324989
-0.328042
-0.331593
-0.334548
-0.340017
-0.339396
-0.305715
-0.305975
-0.306128
-0.306243
-0.306344
-0.306462
-0.306636
-0.306899
-0.30728
-0.307801
-0.30848
-0.309332
-0.310369
-0.311604
-0.31305
-0.314722
-0.316633
-0.318798
-0.321223
-0.323941
-0.326818
-0.33033
-0.332844
-0.338673
-0.336982
-0.306997
-0.307145
-0.30721
-0.307231
-0.307227
-0.30723
-0.30728
-0.307412
-0.307655
-0.308036
-0.308572
-0.30928
-0.310174
-0.311266
-0.312571
-0.314103
-0.315876
-0.317904
-0.320189
-0.32278
-0.325464
-0.328962
-0.330969
-0.337213
-0.334386
-0.308256
-0.308308
-0.30829
-0.308216
-0.308102
-0.307984
-0.307901
-0.307891
-0.307987
-0.308217
-0.3086
-0.309156
-0.309899
-0.310844
-0.312004
-0.313394
-0.315027
-0.316919
-0.319063
-0.321532
-0.324009
-0.327506
-0.328958
-0.335608
-0.331667
-0.309497
-0.309466
-0.30937
-0.309199
-0.308972
-0.308726
-0.308502
-0.308342
-0.308282
-0.308351
-0.308575
-0.308972
-0.30956
-0.310353
-0.311367
-0.312615
-0.314111
-0.315868
-0.31787
-0.320219
-0.322477
-0.325966
-0.326852
-0.3338
-0.328888
-0.31072
-0.310624
-0.310453
-0.310185
-0.309841
-0.309461
-0.30909
-0.308772
-0.308547
-0.30845
-0.308508
-0.308742
-0.309171
-0.309813
-0.310681
-0.31179
-0.31315
-0.314775
-0.316635
-0.318859
-0.32089
-0.324327
-0.324686
-0.331711
-0.326094
-0.311937
-0.311791
-0.311547
-0.311181
-0.310716
-0.310197
-0.309671
-0.309189
-0.308795
-0.308526
-0.308414
-0.308482
-0.308753
-0.309244
-0.309968
-0.31094
-0.312168
-0.313661
-0.315375
-0.31746
-0.319261
-0.32256
-0.32248
-0.329259
-0.323284
-0.31316
-0.312974
-0.31266
-0.312194
-0.311605
-0.310941
-0.310257
-0.309605
-0.309037
-0.308593
-0.308309
-0.308213
-0.308326
-0.308668
-0.309252
-0.310089
-0.311183
-0.312541
-0.314102
-0.31602
-0.317587
-0.320627
-0.320224
-0.326394
-0.320404
-0.314403
-0.314187
-0.313803
-0.313235
-0.312518
-0.311706
-0.310858
-0.310034
-0.309289
-0.308669
-0.308213
-0.307953
-0.307911
-0.308106
-0.308551
-0.309255
-0.310213
-0.311425
-0.312817
-0.314527
-0.315852
-0.318494
-0.317872
-0.323112
-0.317362
-0.315685
-0.315443
-0.314988
-0.314315
-0.313467
-0.312502
-0.311487
-0.310488
-0.309565
-0.30877
-0.308144
-0.307721
-0.307527
-0.307578
-0.307886
-0.308452
-0.309266
-0.310314
-0.311512
-0.312961
-0.314018
-0.316129
-0.315351
-0.319443
-0.314065
-0.317025
-0.316758
-0.316229
-0.315448
-0.314463
-0.313342
-0.312159
-0.310984
-0.309884
-0.308914
-0.30812
-0.307538
-0.307193
-0.307102
-0.307269
-0.30769
-0.308344
-0.3092
-0.310167
-0.311293
-0.31204
-0.313512
-0.312579
-0.315437
-0.310445
-0.318445
-0.318149
-0.317542
-0.316646
-0.315521
-0.314242
-0.312887
-0.311536
-0.31026
-0.309118
-0.308159
-0.30742
-0.306927
-0.30669
-0.30671
-0.306972
-0.30744
-0.308066
-0.308754
-0.309491
-0.309866
-0.310623
-0.309496
-0.311137
-0.30647
-0.319967
-0.319634
-0.318942
-0.317926
-0.316656
-0.315214
-0.313687
-0.31216
-0.310709
-0.309398
-0.308277
-0.307383
-0.306739
-0.306352
-0.306213
-0.306292
-0.306542
-0.306891
-0.307238
-0.307518
-0.30745
-0.307443
-0.30606
-0.306556
-0.302137
-0.321615
-0.321232
-0.320445
-0.319302
-0.317881
-0.316273
-0.314573
-0.312872
-0.311248
-0.309769
-0.308488
-0.307439
-0.306641
-0.306093
-0.305774
-0.305641
-0.305628
-0.305645
-0.305586
-0.305344
-0.304759
-0.303957
-0.302251
-0.301641
-0.297462
-0.32341
-0.322961
-0.322069
-0.320789
-0.319211
-0.317434
-0.31556
-0.313684
-0.311889
-0.310245
-0.308804
-0.307596
-0.306635
-0.30591
-0.305385
-0.305
-0.304673
-0.304297
-0.303766
-0.302948
-0.301778
-0.300179
-0.298062
-0.296263
-0.292452
-0.325375
-0.324838
-0.323829
-0.322403
-0.320661
-0.318711
-0.31666
-0.31461
-0.312646
-0.310837
-0.309233
-0.307861
-0.306723
-0.305797
-0.305031
-0.304348
-0.30365
-0.302819
-0.301754
-0.300319
-0.298515
-0.296155
-0.293527
-0.290406
-0.287048
-0.327532
-0.326881
-0.325741
-0.324158
-0.322243
-0.320115
-0.317887
-0.315662
-0.313527
-0.311552
-0.309781
-0.308234
-0.3069
-0.305743
-0.304694
-0.303659
-0.30253
-0.301185
-0.299536
-0.297458
-0.294997
-0.29194
-0.288729
-0.28454
-0.281047
-0.329898
-0.329109
-0.327821
-0.326068
-0.323973
-0.321661
-0.319251
-0.31685
-0.314544
-0.312398
-0.310452
-0.308713
-0.307158
-0.305732
-0.30435
-0.302906
-0.301287
-0.299378
-0.297108
-0.294379
-0.291265
-0.287575
-0.283733
-0.278938
-0.274758
-0.332492
-0.331535
-0.330082
-0.328146
-0.32586
-0.323359
-0.320764
-0.318184
-0.315702
-0.31338
-0.311245
-0.309292
-0.307483
-0.305743
-0.303974
-0.302063
-0.299901
-0.297387
-0.294476
-0.291105
-0.287366
-0.283096
-0.278697
-0.27342
-0.268668
-0.33533
-0.334174
-0.332537
-0.330405
-0.327918
-0.32522
-0.322436
-0.319671
-0.317009
-0.314499
-0.312157
-0.309963
-0.307859
-0.305754
-0.303542
-0.301107
-0.298355
-0.295209
-0.291656
-0.287663
-0.283339
-0.278551
-0.273665
-0.268009
-0.262896
-0.338427
-0.337039
-0.3352
-0.332857
-0.330158
-0.327255
-0.324275
-0.321321
-0.318469
-0.315756
-0.313184
-0.310713
-0.308266
-0.305742
-0.303027
-0.300018
-0.29664
-0.292851
-0.288665
-0.284083
-0.279222
-0.273972
-0.268671
-0.26271
-0.257315
-0.341795
-0.340142
-0.338082
-0.335513
-0.33259
-0.329474
-0.326292
-0.32314
-0.320085
-0.31715
-0.314316
-0.311525
-0.308683
-0.305679
-0.302407
-0.29878
-0.294754
-0.290322
-0.285525
-0.280393
-0.275044
-0.269385
-0.263728
-0.257508
-0.2519
-0.345445
-0.343495
-0.341194
-0.338384
-0.335226
-0.331889
-0.328495
-0.325135
-0.32186
-0.318676
-0.315542
-0.31238
-0.309084
-0.305542
-0.301661
-0.297383
-0.292699
-0.287635
-0.282259
-0.276618
-0.270825
-0.264804
-0.258836
-0.252395
-0.246602
-0.349386
-0.347107
-0.344547
-0.341482
-0.338077
-0.334508
-0.330893
-0.32731
-0.323793
-0.320326
-0.316847
-0.313257
-0.309444
-0.305306
-0.300773
-0.295822
-0.29048
-0.284806
-0.278885
-0.272775
-0.266581
-0.260236
-0.253992
-0.247356
-0.241399
-0.353628
-0.350987
-0.34815
-0.344815
-0.341153
-0.337343
-0.333493
-0.329669
-0.325882
-0.322091
-0.31821
-0.31413
-0.309738
-0.30495
-0.299731
-0.294096
-0.288107
-0.28185
-0.275419
-0.268878
-0.262319
-0.255682
-0.249189
-0.242378
-0.23627
-0.358175
-0.355143
-0.352011
-0.348395
-0.344465
-0.340402
-0.336304
-0.332214
-0.32812
-0.323954
-0.319611
-0.314972
-0.309939
-0.304456
-0.298526
-0.292206
-0.28559
-0.278779
-0.271874
-0.264936
-0.258043
-0.251139
-0.244418
-0.237448
-0.231197
-0.363034
-0.359581
-0.35614
-0.352231
-0.348021
-0.343693
-0.339327
-0.334942
-0.330497
-0.325896
-0.321021
-0.315756
-0.310023
-0.303806
-0.297153
-0.290157
-0.282936
-0.275604
-0.268256
-0.260951
-0.253749
-0.246601
-0.239669
-0.232553
-0.226167
-0.368208
-0.364307
-0.360543
-0.356329
-0.35183
-0.347223
-0.342565
-0.337846
-0.332995
-0.327893
-0.322412
-0.316452
-0.309968
-0.30299
-0.295609
-0.287952
-0.280154
-0.27233
-0.26457
-0.256924
-0.249436
-0.24206
-0.234931
-0.227682
-0.221167
-0.373697
-0.369323
-0.365224
-0.360697
-0.355898
-0.350993
-0.346013
-0.340914
-0.335594
-0.329915
-0.323753
-0.317032
-0.309753
-0.301996
-0.293893
-0.285596
-0.277247
-0.268961
-0.260816
-0.252851
-0.245096
-0.237507
-0.230195
-0.222823
-0.216186
-0.379499
-0.374629
-0.370186
-0.365338
-0.360226
-0.355001
-0.349662
-0.344127
-0.338265
-0.33193
-0.32501
-0.317469
-0.309362
-0.300818
-0.292004
-0.28309
-0.27422
-0.265498
-0.256991
-0.248726
-0.240721
-0.232934
-0.225448
-0.217964
-0.211211
-0.385608
-0.380222
-0.375427
-0.370251
-0.364812
-0.359242
-0.353497
-0.34746
-0.340977
-0.3339
-0.326148
-0.317737
-0.308779
-0.299448
-0.289941
-0.280435
-0.271071
-0.261938
-0.25309
-0.244543
-0.236302
-0.228329
-0.220682
-0.213095
-0.206233
-0.392015
-0.386095
-0.380944
-0.375433
-0.36965
-0.3637
-0.357495
-0.350882
-0.343689
-0.335786
-0.327135
-0.317813
-0.307989
-0.29788
-0.287701
-0.277631
-0.267797
-0.258276
-0.249106
-0.240293
-0.231831
-0.223682
-0.215885
-0.208206
-0.201242
-0.398705
-0.392238
-0.386727
-0.380873
-0.374726
-0.368355
-0.361626
-0.354353
-0.34636
-0.337548
-0.327938
-0.317673
-0.30698
-0.296108
-0.285282
-0.274673
-0.264394
-0.254506
-0.245031
-0.235967
-0.227296
-0.218984
-0.211047
-0.203287
-0.196228
-0.405658
-0.398634
-0.392761
-0.386556
-0.38002
-0.373179
-0.365851
-0.357828
-0.348943
-0.339144
-0.328525
-0.317298
-0.305741
-0.294125
-0.282677
-0.271555
-0.260854
-0.250617
-0.240855
-0.231554
-0.222689
-0.214225
-0.20616
-0.198328
-0.191182
-0.412846
-0.405262
-0.399027
-0.39246
-0.385503
-0.378134
-0.370127
-0.361256
-0.351387
-0.340533
-0.328866
-0.316668
-0.304259
-0.291923
-0.27988
-0.26827
-0.257168
-0.246602
-0.236568
-0.227044
-0.217998
-0.209394
-0.201213
-0.19332
-0.186095
-0.420238
-0.412092
-0.405497
-0.398555
-0.391139
-0.383176
-0.374399
-0.364583
-0.353643
-0.341674
-0.328932
-0.315765
-0.302522
-0.289493
-0.276882
-0.264808
-0.253327
-0.24245
-0.23216
-0.222428
-0.213214
-0.204482
-0.196197
-0.188254
-0.18096
-0.427794
-0.41909
-0.412137
-0.404804
-0.396884
-0.388252
-0.378608
-0.36775
-0.35566
-0.342527
-0.328695
-0.314569
-0.300518
-0.286824
-0.273672
-0.261159
-0.24932
-0.238149
-0.22762
-0.217695
-0.208328
-0.199479
-0.191105
-0.183123
-0.175768
-0.435465
-0.426215
-0.418904
-0.41116
-0.402684
-0.3933
-0.382691
-0.370695
-0.357385
-0.343054
-0.328131
-0.313064
-0.298232
-0.283904
-0.27024
-0.257311
-0.245134
-0.233689
-0.222937
-0.212834
-0.203329
-0.194378
-0.185927
-0.177918
-0.170512
-0.443199
-0.433416
-0.425751
-0.417569
-0.408478
-0.398253
-0.386578
-0.373358
-0.35877
-0.34322
-0.327213
-0.311231
-0.295651
-0.28072
-0.266571
-0.253252
-0.240759
-0.229057
-0.218101
-0.207835
-0.198208
-0.189168
-0.180656
-0.172631
-0.165184
-0.450932
-0.440637
-0.432617
-0.423969
-0.414196
-0.403037
-0.390199
-0.375674
-0.359767
-0.34299
-0.325917
-0.309052
-0.292759
-0.277258
-0.262653
-0.248968
-0.23618
-0.224243
-0.213099
-0.20269
-0.192956
-0.183843
-0.175285
-0.167255
-0.15978
-0.458597
-0.447814
-0.43944
-0.430289
-0.419761
-0.407574
-0.39348
-0.377585
-0.360328
-0.34233
-0.324219
-0.306508
-0.28954
-0.273503
-0.258472
-0.244447
-0.231387
-0.219234
-0.207924
-0.197389
-0.187565
-0.178395
-0.169806
-0.161784
-0.154293
-0.466117
-0.454875
-0.446145
-0.43645
-0.425092
-0.411782
-0.396347
-0.379029
-0.36041
-0.341209
-0.322097
-0.303581
-0.285977
-0.26944
-0.254013
-0.239674
-0.226366
-0.214021
-0.202563
-0.191922
-0.182027
-0.172815
-0.164213
-0.156212
-0.148717
-0.47341
-0.461744
-0.452652
-0.442369
-0.430102
-0.415577
-0.398727
-0.37995
-0.35997
-0.339597
-0.319527
-0.300252
-0.282054
-0.265053
-0.249262
-0.234637
-0.221107
-0.208592
-0.197009
-0.186281
-0.176334
-0.167098
-0.1585
-0.150532
-0.143047
-0.480389
-0.468336
-0.458876
-0.447956
-0.434699
-0.418876
-0.400551
-0.380294
-0.35897
-0.337464
-0.316486
-0.296502
-0.277754
-0.260327
-0.244205
-0.229323
-0.215598
-0.202937
-0.191252
-0.180459
-0.17048
-0.161238
-0.152661
-0.14474
-0.137281
-0.486962
-0.474561
-0.464725
-0.453116
-0.438791
-0.421594
-0.401749
-0.380009
-0.357373
-0.334785
-0.312954
-0.292312
-0.27306
-0.255246
-0.238828
-0.223721
-0.209827
-0.197047
-0.185284
-0.174448
-0.164457
-0.155229
-0.146691
-0.138831
-0.131414
-0.493032
-0.480327
-0.470103
-0.457752
-0.442284
-0.423649
-0.402257
-0.379047
-0.355144
-0.331532
-0.308909
-0.287664
-0.267956
-0.249797
-0.233117
-0.217817
-0.203785
-0.190913
-0.179097
-0.168242
-0.15826
-0.149065
-0.140586
-0.132801
-0.125443
-0.4985
-0.485536
-0.474911
-0.461764
-0.445087
-0.424965
-0.402015
-0.377366
-0.35225
-0.327682
-0.30433
-0.28254
-0.262426
-0.243964
-0.227062
-0.211602
-0.197464
-0.184528
-0.172685
-0.161835
-0.151884
-0.142743
-0.134341
-0.126646
-0.119368
-0.503266
-0.490089
-0.479049
-0.465055
-0.447109
-0.425465
-0.400966
-0.374923
-0.348664
-0.323212
-0.2992
-0.276924
-0.256455
-0.237734
-0.220649
-0.205067
-0.190853
-0.177883
-0.166041
-0.155221
-0.145325
-0.136259
-0.127954
-0.120366
-0.113188
-0.507229
-0.493886
-0.482417
-0.467527
-0.448264
-0.425081
-0.399059
-0.371683
-0.344357
-0.3181
-0.293499
-0.2708
-0.250029
-0.231097
-0.21387
-0.198201
-0.183947
-0.170974
-0.159161
-0.148397
-0.138579
-0.129609
-0.121422
-0.113962
-0.106911
-0.51029
-0.496828
-0.484913
-0.469086
-0.448471
-0.42375
-0.396247
-0.367613
-0.339307
-0.312328
-0.287213
-0.264154
-0.243136
-0.224041
-0.206715
-0.190998
-0.176739
-0.163795
-0.15204
-0.141358
-0.131642
-0.122789
-0.114741
-0.107434
-0.100536
-0.51235
-0.498817
-0.486443
-0.469641
-0.447653
-0.421413
-0.392492
-0.362685
-0.333491
-0.305878
-0.280326
-0.256974
-0.235765
-0.216556
-0.199176
-0.183452
-0.169223
-0.156342
-0.144675
-0.134102
-0.124512
-0.115798
-0.107909
-0.100769
-0.0940276
-0.513316
-0.499758
-0.486911
-0.469107
-0.445742
-0.418021
-0.387756
-0.356875
-0.326893
-0.298737
-0.272826
-0.249248
-0.227907
-0.208637
-0.191248
-0.175558
-0.161398
-0.148613
-0.137065
-0.126629
-0.117188
-0.108635
-0.100925
-0.0939469
-0.0873071
-0.513097
-0.499561
-0.486232
-0.467408
-0.442677
-0.413529
-0.382012
-0.350162
-0.319497
-0.290891
-0.264703
-0.240967
-0.219555
-0.200275
-0.182926
-0.167312
-0.153259
-0.140605
-0.129207
-0.118936
-0.109671
-0.101304
-0.0937939
-0.0869709
-0.0803578
-0.511611
-0.498141
-0.484324
-0.464474
-0.438403
-0.407901
-0.375235
-0.34253
-0.311291
-0.282332
-0.255949
-0.232126
-0.210703
-0.191469
-0.174206
-0.158713
-0.144806
-0.132319
-0.121103
-0.111026
-0.101962
-0.0938047
-0.0865127
-0.0798608
-0.0734651
-0.508781
-0.495421
-0.481113
-0.460242
-0.432876
-0.401107
-0.367407
-0.333968
-0.302267
-0.273053
-0.246558
-0.22272
-0.201349
-0.182215
-0.165089
-0.149761
-0.136039
-0.123755
-0.112754
-0.1029
-0.0940647
-0.086142
-0.0790851
-0.0726235
-0.0665077
-0.504538
-0.49133
-0.476535
-0.45466
-0.42606
-0.393125
-0.358515
-0.324469
-0.292421
-0.26305
-0.236527
-0.212747
-0.191491
-0.172513
-0.155574
-0.140455
-0.126961
-0.114914
-0.104164
-0.0945615
-0.0859801
-0.0783166
-0.0715145
-0.0652711
-0.0594458
-0.498823
-0.485807
-0.470534
-0.447685
-0.417927
-0.383941
-0.348554
-0.31403
-0.28175
-0.252323
-0.225857
-0.202207
-0.181131
-0.162365
-0.145664
-0.130801
-0.117575
-0.105805
-0.0953332
-0.0860137
-0.0777129
-0.0703322
-0.0638063
-0.0578032
-0.0522744
-0.491584
-0.4788
-0.463064
-0.439286
-0.408458
-0.373547
-0.337521
-0.302653
-0.270259
-0.240874
-0.21455
-0.191104
-0.170271
-0.151777
-0.135364
-0.120803
-0.107885
-0.096428
-0.0862692
-0.0772613
-0.0692678
-0.0621935
-0.0559651
-0.0502202
-0.0449998
-0.482781
-0.470268
-0.454091
-0.429438
-0.397645
-0.361943
-0.325423
-0.290343
-0.257952
-0.22871
-0.202612
-0.179443
-0.158917
-0.140755
-0.124681
-0.110467
-0.0978986
-0.0867906
-0.0769778
-0.0683105
-0.0606506
-0.0539064
-0.0479956
-0.0425248
-0.0376286
-0.472384
-0.460179
-0.44359
-0.41813
-0.385485
-0.349136
-0.312268
-0.277113
-0.244841
-0.215839
-0.190052
-0.167233
-0.147084
-0.129304
-0.113623
-0.0998003
-0.0876227
-0.0769005
-0.0674664
-0.0591685
-0.0518681
-0.0454775
-0.0399035
-0.0347221
-0.0301677
-0.460375
-0.448513
-0.431548
-0.405359
-0.371986
-0.33514
-0.298073
-0.262976
-0.230938
-0.202275
-0.176883
-0.154489
-0.134776
-0.117438
-0.102198
-0.0888138
-0.0770671
-0.0667667
-0.0577435
-0.0498435
-0.0429283
-0.0369139
-0.0316953
-0.0268185
-0.0226241
-0.446745
-0.435261
-0.417961
-0.391133
-0.357166
-0.319974
-0.282858
-0.247953
-0.216262
-0.188034
-0.16312
-0.141221
-0.122008
-0.105168
-0.0904206
-0.0775186
-0.0662428
-0.0563997
-0.0478189
-0.0403451
-0.0338401
-0.0282242
-0.0233786
-0.0188218
-0.0150052
-0.431496
-0.420423
-0.40284
-0.375468
-0.341046
-0.303665
-0.26665
-0.232067
-0.200835
-0.173136
-0.14878
-0.127447
-0.108796
-0.0925093
-0.0783035
-0.065928
-0.055162
-0.0458112
-0.0377038
-0.0306835
-0.0246133
-0.0194175
-0.0149623
-0.0107405
-0.00731892
-0.414643
-0.404014
-0.386201
-0.358392
-0.323659
-0.286247
-0.249479
-0.215346
-0.184682
-0.157603
-0.133884
-0.113186
-0.0951582
-0.0794795
-0.065863
-0.0540568
-0.0438388
-0.0350141
-0.0274103
-0.0208703
-0.015259
-0.0105041
-0.00645578
-0.00258445
0.000425885
-0.396211
-0.386056
-0.368074
-0.339939
-0.305046
-0.26776
-0.231379
-0.197823
-0.167831
-0.141461
-0.118457
-0.0984603
-0.0811156
-0.0660971
-0.0531167
-0.0419212
-0.0322883
-0.0240226
-0.0169518
-0.0109181
-0.00578892
-0.00149507
0.00213026
0.00563588
0.00821953
-0.376234
-0.366583
-0.348496
-0.320153
-0.285259
-0.248252
-0.212388
-0.179532
-0.150315
-0.124741
-0.102525
-0.0832952
-0.0666906
-0.0523832
-0.040084
-0.0295394
-0.0205271
-0.0128523
-0.00634249
-0.000840342
0.00378403
0.00759746
0.0107845
0.0139088
0.0160511
-0.354758
-0.345638
-0.327514
-0.299089
-0.264345
-0.227751
-0.192563
-0.160515
-0.13217
-0.107475
-0.0861176
-0.0677175
-0.0519082
-0.0383607
-0.0267859
-0.0169306
-0.00857319
-0.00151952
0.00440213
0.00934851
0.0134461
0.0167606
0.0194944
0.0222214
0.0239083
-0.331837
-0.323276
-0.305197
-0.276835
-0.242323
-0.206322
-0.171944
-0.140817
-0.113436
-0.089698
-0.069268
-0.0517569
-0.0367954
-0.0240543
-0.0132451
-0.00411569
0.00355445
0.00995804
0.0152658
0.0196332
0.0231829
0.0259806
0.0282465
0.0305583
0.0317769
-0.307529
-0.299561
-0.28162
-0.253475
-0.219225
-0.184023
-0.150584
-0.120485
-0.0941549
-0.0714488
-0.0520108
-0.0354451
-0.0213812
-0.00949056
0.000514095
0.00888325
0.0158355
0.0215619
0.0262316
0.0299979
0.0329794
0.035243
0.037026
0.0389014
0.0396361
-0.281903
-0.27457
-0.256839
-0.228869
-0.195321
-0.160933
-0.128541
-0.0995697
-0.0743733
-0.0527686
-0.0343831
-0.0188159
-0.00569646
0.00530251
0.0144662
0.0220428
0.0282487
0.0332725
0.0372816
0.0404262
0.04282
0.0445332
0.0458182
0.0472314
0.0474584
-0.255036
-0.248386
-0.230905
-0.203296
-0.170535
-0.137114
-0.105877
-0.0781252
-0.0541392
-0.0337011
-0.0164246
-0.0019054
0.0102262
0.0202952
0.0285841
0.0353385
0.0407717
0.0450697
0.0483975
0.0509011
0.0526887
0.0538365
0.0546107
0.0555342
0.055227
-0.227004
-0.221109
-0.203874
-0.176852
-0.144954
-0.112636
-0.0826566
-0.0562083
-0.0335034
-0.0142922
0.00182328
0.0152488
0.0263525
0.0354563
0.0428396
0.0487447
0.0533813
0.0569324
0.0595602
0.0614047
0.0625679
0.0631375
0.063394
0.0638019
0.062937
-0.197882
-0.192809
-0.175945
-0.149586
-0.118667
-0.0875712
-0.0589449
-0.0338782
-0.0125192
0.00541018
0.0203169
0.0326073
0.0426466
0.0507535
0.0572033
0.0622346
0.0660533
0.0688392
0.0707504
0.0719189
0.0724408
0.0724237
0.0721592
0.0720016
0.0704904
-0.167803
-0.163615
-0.147189
-0.121586
-0.091763
-0.0619962
-0.0348109
-0.0111964
0.00875799
0.0253559
0.0390111
0.050129
0.0590716
0.066153
0.0716447
0.0757807
0.0787631
0.0807678
0.0819481
0.0824259
0.0822944
0.0816922
0.0808937
0.0800183
0.0775724
-0.137014
-0.133514
-0.117689
-0.0929501
-0.0643308
-0.0359907
-0.0103256
0.0117732
0.030271
0.0454934
0.0578591
0.0677717
0.0755888
0.0816201
0.0861322
0.0893546
0.091485
0.0926954
0.0931329
0.0929092
0.0921229
0.0909502
0.0895802
0.08771
0.0839496
-0.10549
-0.102698
-0.0875502
-0.0637768
-0.0364621
-0.00963652
0.014438
0.0349652
0.0519608
0.0657694
0.0768129
0.0854918
0.092159
0.0971191
0.100634
0.102927
0.104193
0.104598
0.104283
0.103352
0.10192
0.100193
0.0981883
0.0951354
0.0903248
-0.0733374
-0.0712964
-0.0568819
-0.0341682
-0.00825057
0.0169826
0.0394051
0.0583127
0.0737672
0.0861295
0.095823
0.103245
0.108742
0.112613
0.115116
0.116468
0.116859
0.116451
0.115377
0.113738
0.111669
0.109379
0.106657
0.102489
0.0988282
-0.0406842
-0.0394225
-0.025797
-0.00422909
0.0202086
0.0437815
0.0644996
0.0817472
0.0956286
0.106518
0.114839
0.120985
0.125296
0.128066
0.129545
0.129947
0.129456
0.128229
0.126393
0.124048
0.121342
0.118451
0.115005
0.110219
0.107281
-0.00765619
-0.00719385
0.00558926
0.0259341
0.0488192
0.0706738
0.0896444
0.1052
0.117483
0.126879
0.133811
0.138666
0.14178
0.143438
0.143887
0.143333
0.141956
0.139907
0.137307
0.134259
0.130915
0.127402
0.123299
0.11811
0.115273
0.0256215
0.0252694
0.0371604
0.0562137
0.0774839
0.0975726
0.114761
0.1286
0.139266
0.147155
0.152686
0.156242
0.158151
0.158693
0.158107
0.156594
0.15433
0.151459
0.148097
0.144349
0.140362
0.136228
0.131532
0.126001
0.122984
0.0590225
0.0578455
0.0687993
0.0865018
0.106105
0.12439
0.139772
0.151878
0.160915
0.167288
0.171414
0.173666
0.174367
0.173791
0.17217
0.1697
0.166549
0.162858
0.158739
0.154294
0.149664
0.144916
0.139666
0.133779
0.130438
0.0924198
0.0904113
0.100388
0.11669
0.134586
0.15104
0.164599
0.174962
0.182367
0.187222
0.189941
0.19089
0.190386
0.188694
0.186041
0.182618
0.178585
0.174079
0.169207
0.164071
0.158802
0.153451
0.147667
0.141401
0.13766
0.125686
0.122844
0.131811
0.146671
0.162828
0.177434
0.189163
0.197783
0.203558
0.206899
0.208216
0.207868
0.206164
0.203364
0.199686
0.195316
0.190409
0.185095
0.179479
0.173658
0.167755
0.161813
0.155507
0.148844
0.144659
0.158696
0.155019
0.162949
0.176338
0.190736
0.203486
0.213388
0.220271
0.224425
0.226262
0.226187
0.224553
0.22166
0.217762
0.21307
0.207763
0.201992
0.19588
0.189529
0.183032
0.176504
0.169981
0.163162
0.156091
0.151437
0.191322
0.186816
0.193689
0.205585
0.218215
0.229111
0.237195
0.242357
0.244905
0.245255
0.243804
0.240899
0.236832
0.23185
0.226158
0.219928
0.213306
0.206409
0.199335
0.192172
0.18503
0.177937
0.170612
0.163129
0.157991
0.223441
0.218114
0.223916
0.234308
0.24517
0.254225
0.260509
0.263971
0.264936
0.26382
0.261015
0.256859
0.251638
0.245591
0.238916
0.23178
0.224323
0.216656
0.208873
0.201058
0.193314
0.185661
0.177841
0.169947
0.164317
0.254931
0.248794
0.253519
0.262405
0.27151
0.278745
0.283257
0.285048
0.284459
0.281905
0.277771
0.27239
0.266038
0.258948
0.251312
0.24329
0.235015
0.226597
0.218121
0.209669
0.201336
0.193138
0.184833
0.176534
0.170408
0.285672
0.278739
0.282388
0.289776
0.297146
0.30259
0.305366
0.305521
0.303413
0.299455
0.294025
0.287447
0.279992
0.271885
0.263312
0.254427
0.245357
0.236206
0.227056
0.217984
0.209078
0.20035
0.191575
0.182877
0.176257
0.315548
0.307837
0.310417
0.316325
0.321989
0.325682
0.326764
0.325328
0.321742
0.316417
0.309727
0.301987
0.293461
0.284367
0.274885
0.265162
0.255322
0.245461
0.235658
0.225985
0.216524
0.207282
0.198051
0.188965
0.181856
0.344445
0.335977
0.337504
0.341957
0.345955
0.347946
0.347383
0.344405
0.339388
0.332742
0.324833
0.315969
0.306408
0.29636
0.286
0.275469
0.264884
0.254338
0.243906
0.233653
0.223656
0.213918
0.20425
0.194787
0.187196
0.372254
0.363054
0.363549
0.366583
0.368964
0.369307
0.367158
0.362693
0.356298
0.34838
0.339298
0.329353
0.318796
0.307832
0.296627
0.285319
0.27402
0.262816
0.251779
0.24097
0.230459
0.220245
0.210158
0.200332
0.19227
0.398869
0.388966
0.388457
0.390116
0.390937
0.389695
0.386025
0.380135
0.372421
0.363284
0.353079
0.342101
0.330591
0.31875
0.306738
0.294688
0.282705
0.270874
0.259259
0.247919
0.236916
0.226248
0.215762
0.205589
0.197069
0.424191
0.413615
0.412137
0.412474
0.411799
0.409045
0.403923
0.396676
0.387706
0.37741
0.366137
0.354174
0.341759
0.329084
0.316306
0.30355
0.290919
0.278491
0.266327
0.254482
0.243012
0.231914
0.221051
0.210547
0.201586
0.448123
0.436908
0.434503
0.433577
0.431481
0.427291
0.420795
0.412264
0.402106
0.390714
0.378431
0.365539
0.352269
0.338807
0.325304
0.311883
0.298639
0.285647
0.272966
0.260646
0.248735
0.237231
0.226014
0.215196
0.205813
0.470576
0.45876
0.455474
0.453352
0.449914
0.444374
0.436587
0.426851
0.415577
0.403157
0.389927
0.376163
0.36209
0.34789
0.333709
0.319663
0.305845
0.292326
0.279161
0.266394
0.254071
0.242187
0.230639
0.219527
0.209743
0.491466
0.479088
0.474974
0.471731
0.467038
0.460238
0.451248
0.440389
0.428077
0.4147
0.400589
0.386014
0.371195
0.356309
0.341496
0.326871
0.31252
0.298511
0.284894
0.271714
0.259007
0.24677
0.234916
0.223531
0.21337
0.510714
0.497817
0.492932
0.488648
0.482795
0.47483
0.46473
0.452836
0.439568
0.425309
0.410386
0.395064
0.379558
0.364039
0.348646
0.333486
0.318644
0.304184
0.290154
0.276592
0.263532
0.250972
0.238836
0.227199
0.216688
0.528248
0.514876
0.509284
0.504045
0.497131
0.488103
0.476991
0.464154
0.450013
0.434952
0.419289
0.403287
0.387154
0.371061
0.355138
0.339492
0.324203
0.309333
0.294925
0.281016
0.267636
0.254781
0.24239
0.230523
0.219689
0.544003
0.530203
0.52397
0.517869
0.509998
0.500013
0.487991
0.474305
0.459382
0.443599
0.427272
0.410658
0.393963
0.377352
0.360955
0.344872
0.329182
0.313943
0.299197
0.284977
0.271308
0.258189
0.24557
0.233497
0.222371
0.557919
0.54374
0.536937
0.530072
0.521352
0.510522
0.497694
0.48326
0.467644
0.451223
0.434309
0.417155
0.399964
0.382897
0.36608
0.349612
0.333568
0.318004
0.302959
0.288464
0.274541
0.261188
0.248368
0.236113
0.224727
0.569945
0.555438
0.54814
0.540611
0.531157
0.519594
0.50607
0.490988
0.474774
0.457802
0.440381
0.42276
0.40514
0.387679
0.3705
0.353699
0.337349
0.321504
0.306201
0.291469
0.277326
0.263773
0.250779
0.238366
0.226754
0.580036
0.565252
0.557538
0.54945
0.539378
0.5272
0.513092
0.497466
0.48075
0.463315
0.445469
0.427457
0.409477
0.391685
0.374202
0.357122
0.340515
0.324434
0.308915
0.293984
0.279657
0.265935
0.252797
0.240251
0.228449
0.588154
0.573148
0.565096
0.556558
0.545988
0.533315
0.518736
0.502673
0.485553
0.467746
0.449557
0.431231
0.412961
0.394903
0.377175
0.359871
0.343058
0.326788
0.311095
0.296004
0.281529
0.267672
0.254417
0.241764
0.229808
0.594269
0.579096
0.570789
0.56191
0.550965
0.537918
0.522985
0.506593
0.489168
0.471082
0.452635
0.434071
0.415583
0.397325
0.379413
0.361939
0.344971
0.328558
0.312735
0.297523
0.282936
0.268977
0.255635
0.242902
0.230829
0.598358
0.583073
0.574596
0.565489
0.554293
0.540996
0.525826
0.509213
0.491585
0.473311
0.454691
0.435969
0.417336
0.398943
0.380908
0.363321
0.34625
0.329741
0.31383
0.298538
0.283877
0.26985
0.256448
0.243662
0.231511
0.600407
0.585065
0.576503
0.567281
0.555959
0.542537
0.527249
0.510525
0.492795
0.474427
0.455721
0.436919
0.418213
0.399753
0.381657
0.364013
0.34689
0.330334
0.314378
0.299046
0.284347
0.270286
0.256856
0.244042
0.231853
0.600407
0.585065
0.576503
0.567281
0.555959
0.542537
0.527249
0.510525
0.492795
0.474427
0.455721
0.436919
0.418213
0.399753
0.381657