/*--------------------------------*- C++ -*----------------------------------*\
  =========                 |
  \\      /  F ield         | OpenFOAM: The Open Source CFD Toolbox
   \\    /   O peration     | Website:  https://openfoam.org
    \\  /    A nd           | Version:  7
     \\/     M anipulation  |
\*---------------------------------------------------------------------------*/
FoamFile
{
    version     2.0;
    format      ascii;
    class       volVectorField;
    location    "10";
    object      U;
}
// * * * * * * * * * * * * * * * * * * * * * * * * * * * * * * * * * * * * * //

dimensions      [0 1 -1 0 0 0 0];

internalField   nonuniform List<vector> 
31800
(
(-0.000774979 0.000753719 -1.05974e-20)
(-0.00469744 0.0018645 7.32917e-21)
(-0.0124655 0.00268525 -2.38835e-21)
(-0.0224766 0.00328715 1.06149e-20)
(-0.0341503 0.00371813 1.18644e-20)
(-0.0470359 0.00401802 -3.88965e-21)
(-0.0607552 0.00422001 -2.81732e-21)
(-0.0750347 0.00435135 1.99323e-20)
(-0.0896811 0.00443429 -2.27023e-21)
(-0.104565 0.0044865 3.276e-21)
(-0.11961 0.00452153 1.12647e-20)
(-0.134775 0.00454927 1.10667e-20)
(-0.150048 0.00457641 -7.02102e-21)
(-0.165434 0.00460711 -8.77125e-21)
(-0.180948 0.00464355 -3.06614e-22)
(-0.19661 0.00468658 -1.13087e-20)
(-0.212441 0.00473635 8.83602e-21)
(-0.22846 0.00479291 1.5007e-20)
(-0.244688 0.00485678 -5.69804e-21)
(-0.261148 0.00492953 2.59633e-20)
(-0.277869 0.0050145 1.6498e-21)
(-0.294907 0.00511775 -2.16589e-21)
(-0.312315 0.00524399 4.77222e-21)
(-0.330108 0.00539371 9.88534e-21)
(-0.348619 0.00561402 6.2259e-21)
(-0.000842481 0.00224934 1.09109e-20)
(-0.00483136 0.00556728 5.98084e-21)
(-0.0125935 0.00802146 -6.44948e-21)
(-0.0225548 0.00982287 -2.4503e-20)
(-0.0341453 0.0111138 1.81011e-20)
(-0.0469213 0.0120128 -8.86209e-21)
(-0.0605087 0.0126187 4.96403e-22)
(-0.0746358 0.0130126 -1.52839e-20)
(-0.0891097 0.013261 3.18205e-21)
(-0.1038 0.0134168 2.15034e-21)
(-0.118627 0.0135205 -4.73241e-20)
(-0.133548 0.0136017 -8.30477e-22)
(-0.148545 0.0136806 5.33262e-20)
(-0.163621 0.0137696 -2.68926e-20)
(-0.178785 0.0138752 -5.11399e-21)
(-0.194051 0.0139999 1.12168e-20)
(-0.209432 0.0141441 -2.37576e-20)
(-0.224941 0.0143076 -1.1166e-21)
(-0.240589 0.0144917 2.40211e-20)
(-0.256387 0.0147009 -8.83038e-20)
(-0.272351 0.0149447 -2.77181e-20)
(-0.288522 0.0152412 4.25199e-20)
(-0.304941 0.0156055 2.12216e-20)
(-0.321575 0.0160399 3.83318e-21)
(-0.338735 0.0166795 -8.68055e-21)
(-0.000975602 0.00371012 -2.26371e-20)
(-0.00509594 0.00919231 -6.19993e-22)
(-0.0128471 0.0132556 -3.08141e-20)
(-0.0227103 0.0162433 4.59966e-20)
(-0.0341367 0.018388 -5.2117e-20)
(-0.0466957 0.0198837 -4.88337e-21)
(-0.0600217 0.0208927 -4.73069e-21)
(-0.0738469 0.0215488 8.67478e-21)
(-0.0879785 0.0219615 2.87648e-20)
(-0.102284 0.0222183 -4.8961e-21)
(-0.116679 0.0223866 -8.67968e-21)
(-0.131115 0.0225156 3.13214e-20)
(-0.145568 0.0226387 -5.57429e-21)
(-0.16003 0.0227766 3.07588e-20)
(-0.1745 0.0229403 -6.25903e-20)
(-0.188982 0.0231336 -2.577e-20)
(-0.203477 0.0233568 4.23131e-21)
(-0.217981 0.023609 -8.57906e-20)
(-0.232488 0.0238915 2.35774e-20)
(-0.246988 0.0242105 5.38812e-20)
(-0.261469 0.0245806 -3.44066e-20)
(-0.275945 0.0250309 -8.38871e-20)
(-0.290437 0.0255907 -4.22847e-20)
(-0.304819 0.0262666 -8.03753e-20)
(-0.31934 0.0272631 -4.48219e-20)
(-0.00117064 0.00511403 1.05338e-20)
(-0.00548472 0.0126901 -1.75883e-20)
(-0.0132211 0.0183222 5.59766e-20)
(-0.0229412 0.0224742 -4.48149e-20)
(-0.0341266 0.0254619 -1.16893e-20)
(-0.046366 0.0275499 -3.11607e-21)
(-0.0593062 0.0289604 3.67816e-20)
(-0.0726849 0.0298776 2.61405e-20)
(-0.0863102 0.0304526 -4.6226e-20)
(-0.100046 0.0308064 1.94319e-20)
(-0.113803 0.0310326 1.18959e-21)
(-0.127522 0.0311998 -8.81044e-20)
(-0.14117 0.0313548 -2.89608e-20)
(-0.154726 0.0315266 2.43235e-21)
(-0.168175 0.0317304 1.95665e-20)
(-0.181506 0.0319713 8.99558e-20)
(-0.194699 0.0322489 1.01147e-20)
(-0.207733 0.0325609 8.64843e-20)
(-0.220576 0.0329069 8.72073e-20)
(-0.233187 0.0332933 -1.09451e-20)
(-0.24552 0.0337382 4.02576e-20)
(-0.257549 0.0342794 -1.55272e-20)
(-0.269268 0.0349655 5.22804e-20)
(-0.280434 0.0358148 1.777e-19)
(-0.291148 0.0370683 2.8509e-20)
(-0.00142224 0.00644081 1.79582e-20)
(-0.00598837 0.0160148 -6.53565e-20)
(-0.013708 0.02316 8.43932e-20)
(-0.0232447 0.0284452 3.11247e-20)
(-0.0341183 0.0322601 2.44032e-20)
(-0.0459423 0.0349335 2.59902e-20)
(-0.0583794 0.0367429 -1.38377e-19)
(-0.0711747 0.0379192 5.15391e-20)
(-0.0841376 0.0386532 5.37508e-20)
(-0.0971287 0.0390982 -7.95676e-20)
(-0.11005 0.0393731 8.26665e-20)
(-0.122832 0.0395656 4.53942e-20)
(-0.13543 0.039736 5.63173e-20)
(-0.147805 0.0399213 -3.85158e-20)
(-0.159928 0.0401411 -8.65812e-21)
(-0.171765 0.0404016 1.88916e-19)
(-0.183277 0.0407012 -8.20046e-20)
(-0.194417 0.0410348 6.42142e-20)
(-0.205123 0.0413991 -1.57033e-19)
(-0.215323 0.0417982 -6.40033e-20)
(-0.224926 0.0422507 6.17827e-20)
(-0.233858 0.0428006 1.09283e-19)
(-0.242088 0.0435197 1.88758e-20)
(-0.249251 0.0444535 -1.45881e-19)
(-0.255147 0.0458322 -1.03679e-19)
(-0.00172366 0.00767254 -7.06751e-20)
(-0.00659503 0.0191249 -2.28488e-20)
(-0.0142983 0.0277128 -5.00377e-20)
(-0.023617 0.0340909 -4.84697e-20)
(-0.0341159 0.0387119 3.48e-20)
(-0.0454374 0.0419606 -6.22464e-20)
(-0.0572634 0.0441641 -4.04461e-20)
(-0.0693484 0.0455963 -2.0125e-19)
(-0.0815033 0.0464847 8.81728e-21)
(-0.0935851 0.0470132 -2.05872e-21)
(-0.105487 0.0473254 -1.55556e-19)
(-0.117129 0.0475274 -5.33644e-20)
(-0.128448 0.0476926 -6.65063e-20)
(-0.139391 0.0478667 1.29082e-19)
(-0.149908 0.0480733 3.75283e-20)
(-0.159943 0.0483196 -1.02917e-19)
(-0.169435 0.0486024 -1.15733e-19)
(-0.178307 0.0489129 3.23512e-20)
(-0.18647 0.0492427 1.29774e-19)
(-0.193814 0.0495913 -2.79385e-20)
(-0.200206 0.049974 -1.73658e-20)
(-0.205516 0.0504364 -8.32431e-20)
(-0.209689 0.0510747 -1.06335e-19)
(-0.212278 0.0519879 8.81264e-20)
(-0.21252 0.053331 6.07405e-20)
(-0.00206707 0.00879415 3.6659e-20)
(-0.00729088 0.0219848 4.31718e-20)
(-0.014981 0.0319312 -3.40701e-20)
(-0.0240539 0.0393526 -7.05063e-20)
(-0.0341242 0.0447524 1.0974e-20)
(-0.0448666 0.0485624 8.27994e-20)
(-0.0559847 0.0511526 1.19169e-19)
(-0.0672439 0.0528353 1.6302e-19)
(-0.0784579 0.0538718 2.84348e-20)
(-0.0894801 0.0544745 3.75907e-20)
(-0.100195 0.0548102 4.58127e-20)
(-0.11051 0.0550031 1.76274e-19)
(-0.120345 0.0551397 -1.02262e-20)
(-0.12963 0.0552739 -2.28446e-19)
(-0.138293 0.055434 1.65386e-19)
(-0.146257 0.0556281 6.61647e-20)
(-0.153434 0.0558509 2.11718e-19)
(-0.159724 0.056089 -8.73325e-20)
(-0.165004 0.0563277 -1.01766e-19)
(-0.169135 0.0565585 2.92678e-19)
(-0.171942 0.0567898 -9.96817e-20)
(-0.173239 0.057062 -1.54194e-19)
(-0.172943 0.0574914 -4.21401e-20)
(-0.170631 0.0582682 -1.3419e-19)
(-0.164556 0.0593796 2.27197e-20)
(-0.00244391 0.00979383 9.11717e-21)
(-0.00806067 0.0245655 -1.80111e-20)
(-0.0157436 0.0357734 3.67414e-21)
(-0.0245507 0.0441792 -1.28512e-19)
(-0.0341488 0.0503237 -9.97483e-20)
(-0.044247 0.054676 -1.88536e-20)
(-0.054573 0.0576418 -4.8751e-20)
(-0.0649043 0.0595671 -8.87739e-20)
(-0.0750588 0.0607431 -2.00585e-20)
(-0.0848866 0.0614086 -9.99107e-21)
(-0.0942641 0.0617521 -9.48695e-20)
(-0.103086 0.0619152 4.1048e-20)
(-0.111256 0.061997 3.10828e-20)
(-0.118686 0.0620602 1.67686e-19)
(-0.125281 0.0621374 -3.47443e-21)
(-0.130944 0.0622382 -1.02678e-19)
(-0.135564 0.0623551 -1.14772e-20)
(-0.139013 0.0624699 4.48447e-20)
(-0.141146 0.06256 1.86842e-19)
(-0.141792 0.0626066 -1.40632e-19)
(-0.140748 0.0626064 3.7436e-19)
(-0.137772 0.062589 1.58665e-19)
(-0.132736 0.0626768 -1.21766e-19)
(-0.125454 0.0631988 2.38164e-19)
(-0.112566 0.0638568 1.42022e-19)
(-0.00284524 0.0106633 1.12434e-20)
(-0.00888842 0.0268452 5.67479e-20)
(-0.0165733 0.0392062 1.61088e-19)
(-0.0251024 0.0485281 2.00685e-19)
(-0.0341954 0.0553757 1.19374e-19)
(-0.043597 0.0602454 -8.38307e-20)
(-0.0530601 0.0635716 2.04342e-19)
(-0.062376 0.065728 2.32452e-20)
(-0.0713676 0.0670323 -1.22325e-19)
(-0.0798834 0.0677469 1.34966e-20)
(-0.0877921 0.0680806 2.28024e-19)
(-0.0949761 0.0681913 -2.44585e-19)
(-0.101325 0.0681904 -1.40113e-19)
(-0.106731 0.0681494 -2.85336e-20)
(-0.111081 0.0681057 -2.32021e-19)
(-0.114256 0.0680706 -1.5236e-19)
(-0.116124 0.0680348 2.71151e-20)
(-0.116536 0.0679753 -3.21689e-19)
(-0.115323 0.0678612 3.23365e-20)
(-0.112295 0.0676616 -1.57721e-19)
(-0.107227 0.0673576 -1.9759e-19)
(-0.0998379 0.0669633 1.86335e-19)
(-0.0898959 0.0665768 2.1352e-19)
(-0.0778035 0.0666786 -1.67571e-19)
(-0.0578585 0.066847 2.35005e-19)
(-0.00326217 0.0113978 -1.34838e-19)
(-0.00975799 0.0288094 9.88717e-20)
(-0.0174568 0.0422055 -7.1763e-21)
(-0.0257038 0.0523661 3.95483e-20)
(-0.0342699 0.0598672 3.74435e-20)
(-0.0429355 0.0652228 1.67994e-19)
(-0.0514791 0.0688883 -1.2196e-19)
(-0.059707 0.0712603 -2.27695e-19)
(-0.0674486 0.0726785 1.14212e-19)
(-0.074552 0.0734263 1.06856e-19)
(-0.0808801 0.0737307 -3.6165e-19)
(-0.0863045 0.0737648 2.55187e-19)
(-0.0907012 0.0736522 3.89025e-19)
(-0.0939453 0.0734728 2.67229e-20)
(-0.0959068 0.0732696 -6.92525e-20)
(-0.0964471 0.0730557 2.00029e-19)
(-0.0954154 0.0728209 -9.26947e-20)
(-0.0926458 0.0725381 4.19623e-19)
(-0.0879533 0.0721685 -3.73486e-19)
(-0.0811318 0.0716684 6.91151e-20)
(-0.0719446 0.0710001 -3.58954e-20)
(-0.0601015 0.0701608 -1.18828e-19)
(-0.0451695 0.0691657 -1.16725e-19)
(-0.0284058 0.0684287 9.85175e-20)
(-0.00167474 0.0686918 2.55961e-20)
(-0.00368625 0.0119964 8.81433e-20)
(-0.0106538 0.0304515 -6.33885e-20)
(-0.0183813 0.0447564 5.24028e-20)
(-0.0263496 0.0556695 -1.76413e-19)
(-0.034378 0.0637662 -3.90204e-20)
(-0.0422807 0.0695687 1.98221e-20)
(-0.0498623 0.0735466 -4.49009e-20)
(-0.0569448 0.0761134 -7.4399e-20)
(-0.0633655 0.0776274 2.34351e-20)
(-0.068974 0.0783896 -1.24873e-19)
(-0.0736287 0.0786433 2.3349e-19)
(-0.077193 0.0785758 -5.37402e-20)
(-0.0795307 0.078322 -1.37949e-19)
(-0.0805027 0.0779702 -1.41792e-19)
(-0.0799635 0.0775692 1.89102e-19)
(-0.0777584 0.0771347 1.03018e-19)
(-0.0737213 0.0766568 4.14092e-20)
(-0.0676722 0.0761051 -3.49448e-19)
(-0.0594145 0.0754343 3.67684e-19)
(-0.0487337 0.0745895 -1.20604e-19)
(-0.0353841 0.0735126 -5.71797e-20)
(-0.0191222 0.0721834 -4.57991e-20)
(0.000702017 0.0704976 -5.15276e-20)
(0.0222425 0.0688022 1.64668e-19)
(0.0555741 0.068989 -2.76084e-19)
(-0.00410979 0.0124616 -3.27408e-20)
(-0.0115615 0.0317725 1.41556e-19)
(-0.0193346 0.0468536 -2.02272e-19)
(-0.0270348 0.058425 8.11079e-20)
(-0.0345244 0.0670507 4.47855e-20)
(-0.0416496 0.0732532 -6.78299e-20)
(-0.0482401 0.0775092 1.97946e-19)
(-0.0541343 0.0802447 4.81644e-20)
(-0.0591788 0.081832 2.25441e-20)
(-0.0632262 0.082587 1.95228e-19)
(-0.066133 0.0827671 -8.0066e-20)
(-0.0677563 0.0825721 8.52412e-20)
(-0.0679502 0.0821477 -9.07043e-20)
(-0.0665638 0.0815904 -5.67661e-21)
(-0.0634387 0.0809551 -9.98037e-20)
(-0.0584068 0.080261 -3.47925e-19)
(-0.0512895 0.0794993 7.21032e-20)
(-0.0418957 0.0786381 2.81991e-19)
(-0.0300203 0.0776279 -9.87182e-20)
(-0.015446 0.0764051 4.79883e-19)
(0.00208933 0.0748933 -2.68721e-19)
(0.0227309 0.0730626 -7.83818e-20)
(0.0474651 0.0706962 -1.3294e-19)
(0.0734118 0.068224 4.45602e-21)
(0.113749 0.0673932 -1.21701e-19)
(-0.00452618 0.0127991 -9.81923e-20)
(-0.0124683 0.0327802 -1.45893e-19)
(-0.0203057 0.0485009 -7.83645e-20)
(-0.0277541 0.0606291 7.3665e-20)
(-0.0347129 0.0697088 2.30311e-20)
(-0.0410566 0.0762558 1.32932e-20)
(-0.0466389 0.0807485 5.0874e-20)
(-0.051315 0.0836202 -2.48081e-19)
(-0.0549417 0.0852538 8.21176e-20)
(-0.0573769 0.0859768 -1.70417e-19)
(-0.0584768 0.0860586 -6.19146e-20)
(-0.0580946 0.0857101 -8.38147e-20)
(-0.0560773 0.0850866 -1.78226e-19)
(-0.0522646 0.084293 3.67737e-19)
(-0.046487 0.0833901 2.09743e-19)
(-0.0385657 0.0824017 5.6535e-20)
(-0.028311 0.0813212 1.77688e-19)
(-0.0155224 0.0801172 -2.60237e-19)
(1.3567e-05 0.0787381 -6.56195e-20)
(0.0185132 0.0771164 -3.11304e-19)
(0.040276 0.0751607 1.21074e-19)
(0.0652754 0.072843 2.70059e-19)
(0.0950889 0.0698282 1.26266e-19)
(0.125066 0.0666307 -2.40091e-19)
(0.172907 0.0644451 3.07332e-19)
(-0.00493018 0.0130174 -3.50444e-20)
(-0.0133636 0.0334892 9.15888e-21)
(-0.0212848 0.0497107 9.92676e-20)
(-0.0285024 0.0622879 1.77199e-19)
(-0.0349451 0.0717386 -1.1861e-19)
(-0.0405121 0.0785663 1.14384e-19)
(-0.0450792 0.0832465 -8.97898e-20)
(-0.0485182 0.0862156 3.39708e-19)
(-0.0506972 0.0878636 -2.38443e-19)
(-0.0514805 0.0885268 5.1298e-20)
(-0.0507264 0.0884843 2.2217e-19)
(-0.0482859 0.0879565 -3.06218e-20)
(-0.0440011 0.0871075 2.42056e-20)
(-0.0377037 0.0860499 -2.98634e-19)
(-0.0292152 0.0848512 -2.54327e-19)
(-0.0183462 0.0835402 -9.64493e-21)
(-0.00489637 0.0821141 -2.82845e-19)
(0.0113454 0.0805439 1.05173e-19)
(0.0306044 0.0787791 -1.46291e-19)
(0.0530934 0.0767516 1.95163e-19)
(0.0791886 0.0743628 -2.63488e-19)
(0.108581 0.0715902 1.60578e-19)
(0.143816 0.0680148 -1.36229e-19)
(0.177566 0.0641514 1.89012e-19)
(0.233692 0.0605729 -1.17092e-20)
(-0.00531805 0.0131277 1.91822e-19)
(-0.0142391 0.0339195 4.86552e-20)
(-0.022264 0.0505029 -1.0994e-19)
(-0.0292741 0.0634165 -1.31913e-19)
(-0.0352201 0.073148 8.9012e-20)
(-0.0400212 0.0801848 -3.26483e-19)
(-0.0435733 0.0849957 4.65571e-19)
(-0.0457639 0.0880171 9.05856e-20)
(-0.046473 0.0896428 1.50281e-19)
(-0.0455723 0.0902155 1.83926e-19)
(-0.0429235 0.0900217 1.162e-19)
(-0.038377 0.0892898 -8.7287e-20)
(-0.0317706 0.0881918 -2.81036e-21)
(-0.0229291 0.0868478 -4.26654e-20)
(-0.0116644 0.0853321 -1.28654e-19)
(0.00222443 0.0836796 2.9008e-19)
(0.0189508 0.0818928 5.96266e-19)
(0.0387405 0.0799473 3.62872e-20)
(0.0618393 0.077797 2.08721e-19)
(0.0884533 0.0753763 -1.0916e-19)
(0.119096 0.0725914 1.35701e-19)
(0.153021 0.0694091 -7.9788e-19)
(0.194238 0.0654304 3.85057e-19)
(0.231622 0.0610168 2.41151e-19)
(0.297244 0.0561984 -1.63805e-19)
(-0.00568766 0.0131427 -1.14998e-19)
(-0.0150893 0.0340959 -1.97465e-19)
(-0.0232363 0.0509042 1.89375e-19)
(-0.030063 0.0640383 1.24008e-19)
(-0.0355335 0.0739542 6.66361e-20)
(-0.0395825 0.0811212 2.36037e-19)
(-0.0421231 0.0859992 -2.45089e-19)
(-0.0430575 0.0890217 -2.26151e-19)
(-0.0422775 0.0905843 -1.4855e-19)
(-0.0396625 0.0910334 -3.49322e-19)
(-0.035078 0.0906612 6.75939e-20)
(-0.0283738 0.0897026 -2.75985e-20)
(-0.0193831 0.0883367 5.0115e-19)
(-0.00792268 0.086691 2.06968e-19)
(0.0062076 0.084847 1.49665e-19)
(0.0232241 0.0828468 -4.73202e-20)
(0.0433591 0.0807003 -2.72042e-19)
(0.0668602 0.0783901 -2.22187e-19)
(0.0940071 0.0758783 -2.62683e-19)
(0.124994 0.0731023 1.8927e-19)
(0.160552 0.0699978 3.608e-19)
(0.199286 0.0664602 4.10237e-19)
(0.247283 0.0623164 -3.91263e-19)
(0.288267 0.0574743 1.69939e-19)
(0.364978 0.0518316 2.35346e-19)
(-0.00603856 0.0130768 -3.02817e-19)
(-0.0159107 0.0340463 1.68419e-19)
(-0.0241963 0.0509467 -2.86934e-19)
(-0.0308614 0.0641838 3.52483e-19)
(-0.0358761 0.0741828 -3.36821e-19)
(-0.0391856 0.0813953 -1.00823e-19)
(-0.0407173 0.0862707 -1.87875e-19)
(-0.0403864 0.0892385 1.05749e-19)
(-0.0380951 0.0906937 -1.81113e-19)
(-0.0337302 0.0909849 1.98467e-19)
(-0.0271597 0.0904081 -2.60533e-19)
(-0.0182313 0.0892038 -1.93621e-19)
(-0.00677178 0.0875578 6.06224e-21)
(0.00741438 0.0856047 -2.99268e-19)
(0.0245442 0.0834342 6.17652e-21)
(0.0448563 0.0810973 -3.05456e-19)
(0.0686113 0.0786135 -1.83933e-20)
(0.0960879 0.0759751 -3.37031e-19)
(0.127617 0.0731576 1.18314e-19)
(0.163369 0.0700974 5.21587e-19)
(0.204382 0.0668033 -5.06432e-19)
(0.248364 0.0629738 2.52346e-19)
(0.304113 0.0590003 2.80555e-19)
(0.348759 0.0537974 -1.38599e-19)
(0.438252 0.048039 5.59788e-20)
(-0.00637221 0.0129451 1.56936e-19)
(-0.0167023 0.0338003 -4.42663e-20)
(-0.0251389 0.0506661 9.72949e-20)
(-0.0316597 0.0638889 -2.83532e-19)
(-0.0362332 0.0738674 4.54115e-19)
(-0.0388103 0.081036 2.96256e-20)
(-0.0393293 0.0858348 3.28323e-19)
(-0.0377162 0.0886885 -1.71237e-19)
(-0.0338816 0.08999 1.16193e-19)
(-0.027717 0.0900889 1.52844e-19)
(-0.0190906 0.0892842 1.40643e-19)
(-0.00784469 0.087821 4.45078e-19)
(0.00620596 0.0858915 -1.13387e-19)
(0.0232749 0.0836383 -1.13666e-19)
(0.0436043 0.0811606 -8.9817e-20)
(0.0674653 0.0785202 -7.48221e-21)
(0.0951573 0.0757487 -1.90594e-19)
(0.127001 0.0728516 1.69415e-19)
(0.163393 0.0698246 -2.29085e-19)
(0.204461 0.0665904 9.36299e-20)
(0.251622 0.063302 -1.35053e-19)
(0.301441 0.0592599 1.6755e-20)
(0.365922 0.0558901 -6.55789e-19)
(0.414387 0.0503216 6.82161e-20)
(0.517934 0.0453695 -3.81388e-21)
(-0.00669111 0.0127615 2.09105e-19)
(-0.0174655 0.0333894 -1.40956e-19)
(-0.0260592 0.050101 -9.92536e-20)
(-0.0324451 0.0631942 -6.00099e-20)
(-0.0365827 0.0730472 -1.96305e-19)
(-0.0384242 0.0800807 -3.31087e-19)
(-0.0379149 0.0847265 -1.08152e-19)
(-0.034988 0.0874048 3.6991e-19)
(-0.0295595 0.0885063 -1.1568e-19)
(-0.0215219 0.0883809 -2.50051e-19)
(-0.0107385 0.0873298 -1.50826e-19)
(0.00295986 0.0856029 -4.55001e-19)
(0.0197776 0.0833989 -4.96222e-19)
(0.0399557 0.0808697 3.73751e-19)
(0.0637719 0.0781257 7.74652e-20)
(0.0915407 0.0752422 6.21353e-20)
(0.123612 0.0722665 6.50626e-19)
(0.160354 0.0692196 1.00006e-19)
(0.202234 0.0661257 6.32954e-19)
(0.24931 0.0628726 -7.65914e-19)
(0.30339 0.0598495 3.61527e-19)
(0.359731 0.0557085 -3.31773e-19)
(0.43364 0.0534287 5.27479e-19)
(0.486179 0.0474672 -8.01231e-19)
(0.603943 0.0442732 1.70103e-19)
(-0.0069976 0.0125401 -5.31002e-20)
(-0.0182018 0.0328449 -1.12524e-19)
(-0.0269518 0.0492904 -1.03543e-19)
(-0.0332011 0.062143 3.52419e-20)
(-0.0368945 0.0717667 -5.54825e-20)
(-0.0379814 0.0785738 2.09597e-19)
(-0.0364093 0.0829903 -7.49949e-20)
(-0.0321151 0.0854328 -1.58344e-19)
(-0.0250149 0.0862904 -6.49177e-20)
(-0.0149963 0.0859133 3.38281e-21)
(-0.00191097 0.0846053 4.16888e-19)
(0.0144304 0.0826211 -3.6616e-19)
(0.0342612 0.0801677 5.33944e-19)
(0.0578609 0.0774077 -1.55195e-19)
(0.0855544 0.074465 -2.7047e-19)
(0.117709 0.0714316 2.24367e-19)
(0.154731 0.0683737 -2.48144e-19)
(0.197032 0.0653301 -4.20815e-19)
(0.245136 0.0623615 -1.59084e-19)
(0.298989 0.0592916 1.51224e-19)
(0.360698 0.0568369 2.41937e-19)
(0.424229 0.0527764 4.76068e-19)
(0.507624 0.0520224 2.93634e-20)
(0.564555 0.0457179 3.37619e-19)
(0.694942 0.0450317 -1.13247e-19)
(-0.00729616 0.0122947 -2.59783e-20)
(-0.018913 0.0321947 2.46051e-19)
(-0.0278092 0.0482727 2.54017e-19)
(-0.0339058 0.0607792 -1.13887e-19)
(-0.0371289 0.0700739 7.99929e-20)
(-0.0374205 0.0765659 -2.97055e-19)
(-0.0347264 0.0806794 5.91838e-20)
(-0.0289809 0.0828294 4.78592e-20)
(-0.0200942 0.0834046 -1.39175e-19)
(-0.00794133 0.0827563 -3.8296e-20)
(0.00764722 0.0811918 -5.21561e-19)
(0.0268913 0.0789723 1.66593e-19)
(0.050065 0.0763143 -2.53751e-20)
(0.0774973 0.0733939 -5.6518e-21)
(0.109569 0.0703515 -2.41099e-20)
(0.146706 0.0672984 -5.64524e-21)
(0.189363 0.0643224 -2.19634e-20)
(0.237973 0.0614799 2.91924e-19)
(0.293068 0.0588745 -2.62284e-19)
(0.354429 0.0562361 2.39732e-19)
(0.424234 0.0546532 -3.57872e-19)
(0.495419 0.0509478 -1.74224e-19)
(0.58742 0.0519756 5.21782e-20)
(0.648981 0.0455397 -2.86292e-19)
(0.788327 0.0477117 -9.56006e-20)
(-0.00759124 0.0120367 -2.46216e-19)
(-0.0196009 0.0314646 -3.10202e-20)
(-0.0286211 0.0470839 -3.13526e-19)
(-0.0345313 0.0591469 -2.51943e-19)
(-0.0372353 0.0680187 3.33776e-19)
(-0.0366642 0.0741125 2.28724e-19)
(-0.0327564 0.0778549 -1.0093e-19)
(-0.0254376 0.0796623 -9.02837e-20)
(-0.0146036 0.0799252 -6.73375e-20)
(-0.000107117 0.0789974 5.82347e-19)
(0.0182533 0.0771917 2.24738e-19)
(0.0407399 0.0747777 3.17194e-19)
(0.0676786 0.0719843 -1.76788e-20)
(0.0994569 0.0690033 6.24122e-20)
(0.136514 0.0659948 1.72128e-19)
(0.179325 0.0630913 -4.05225e-19)
(0.22837 0.0604032 6.42802e-19)
(0.284054 0.0580012 6.8853e-20)
(0.346822 0.0560289 -2.11877e-19)
(0.416228 0.0541087 -3.22429e-19)
(0.494154 0.0536459 -1.75394e-19)
(0.57301 0.0506637 3.98411e-19)
(0.671675 0.0534562 -1.28283e-20)
(0.737744 0.0472566 2.14678e-19)
(0.880559 0.0521473 2.63187e-19)
(-0.00788685 0.0117751 1.87762e-19)
(-0.0202656 0.0306769 1.96361e-20)
(-0.0293731 0.0457568 -4.2157e-20)
(-0.0350419 0.0572876 4.45843e-20)
(-0.0371514 0.0656512 -3.17229e-19)
(-0.0356177 0.0712719 4.22414e-19)
(-0.0303663 0.074584 -1.04022e-21)
(-0.0213062 0.0760089 3.44401e-19)
(-0.00830943 0.0759414 1.47232e-20)
(0.0088047 0.074741 -1.18424e-19)
(0.0302814 0.072728 1.86335e-19)
(0.0564366 0.0701833 -6.26082e-19)
(0.0876563 0.067351 -3.86746e-19)
(0.124388 0.0644418 -1.93084e-19)
(0.167121 0.0616369 -8.4036e-20)
(0.216352 0.0590907 7.87333e-21)
(0.272531 0.0569331 -4.16003e-19)
(0.335957 0.0552415 1.58854e-19)
(0.40685 0.0541821 6.15316e-19)
(0.484455 0.0532828 1.70733e-19)
(0.569929 0.0540887 4.17837e-19)
(0.655764 0.0522299 -4.17905e-19)
(0.758221 0.0564909 -9.95562e-20)
(0.827998 0.0509426 -1.68254e-19)
(0.967777 0.057955 -9.15323e-19)
(-0.00818628 0.0115165 -1.75723e-19)
(-0.0209048 0.0298487 8.91359e-20)
(-0.030046 0.0443194 1.58493e-19)
(-0.035394 0.0552401 5.50781e-19)
(-0.0368026 0.0630205 2.0741e-19)
(-0.0341693 0.0681042 -4.6053e-19)
(-0.0274 0.0709384 -1.16143e-19)
(-0.0163782 0.0719542 -6.11182e-20)
(-0.000941685 0.0715541 -2.00913e-19)
(0.0191351 0.0701062 -6.59832e-20)
(0.0441523 0.0679419 -1.36384e-19)
(0.0744875 0.0653567 4.98987e-19)
(0.110589 0.0626125 5.97065e-19)
(0.152954 0.0599409 3.01425e-19)
(0.202094 0.0575446 -1.54031e-19)
(0.258474 0.0555963 -1.08466e-19)
(0.32243 0.0542372 2.39934e-19)
(0.394037 0.0535388 -5.52582e-20)
(0.47312 0.0536528 -4.72497e-21)
(0.558515 0.0540528 1.35157e-19)
(0.650283 0.0561563 -1.94395e-19)
(0.741515 0.055742 -3.41657e-19)
(0.844306 0.0609669 -2.32074e-19)
(0.916123 0.0563856 2.93654e-19)
(1.04649 0.0645919 9.54837e-19)
(-0.00849151 0.0112649 1.40195e-19)
(-0.0215124 0.0289924 4.76342e-19)
(-0.0306142 0.0427943 1.90491e-19)
(-0.0355349 0.0530384 -1.68914e-19)
(-0.0361019 0.0601731 2.35442e-19)
(-0.0321904 0.0646692 2.59379e-19)
(-0.0236796 0.066993 2.90856e-19)
(-0.0104185 0.0675895 -1.64512e-20)
(0.00780031 0.0668734 2.28945e-19)
(0.031258 0.0652251 -7.05168e-19)
(0.0603177 0.0629909 3.99313e-19)
(0.0954206 0.0604838 -2.12835e-19)
(0.137067 0.0579861 -5.38881e-19)
(0.185779 0.0557505 -3.92395e-19)
(0.242037 0.0539977 6.41985e-19)
(0.306192 0.0529106 -2.20914e-19)
(0.378346 0.052626 -1.09516e-19)
(0.458205 0.0531901 8.48425e-20)
(0.545021 0.0546871 -4.32298e-19)
(0.637107 0.0565855 3.546e-19)
(0.733239 0.0598994 -5.78105e-20)
(0.827403 0.061061 4.23196e-19)
(0.92693 0.0666324 4.97275e-19)
(0.998373 0.0631384 -1.72883e-19)
(1.11414 0.0714506 -3.51502e-19)
(-0.00880281 0.0110218 -7.30318e-20)
(-0.0220783 0.0281147 -2.70329e-19)
(-0.0310456 0.0411983 7.06824e-21)
(-0.0354024 0.0507115 -1.36434e-19)
(-0.03495 0.057152 -4.01799e-19)
(-0.0295369 0.0610256 -2.07834e-19)
(-0.019009 0.0628235 1.14361e-19)
(-0.00317088 0.06301 -3.56802e-19)
(0.0182396 0.0620162 2.81921e-20)
(0.0455672 0.0602394 1.76069e-19)
(0.0792402 0.0580439 -5.06008e-19)
(0.119755 0.0557635 -1.66585e-19)
(0.167641 0.0537012 4.31442e-19)
(0.223393 0.0521279 2.92714e-19)
(0.287382 0.0512745 -3.79843e-19)
(0.35973 0.0513191 4.09741e-19)
(0.440161 0.0523695 1.71233e-19)
(0.527851 0.0544205 -4.38153e-20)
(0.62133 0.0574295 -3.72823e-20)
(0.718291 0.0608909 -3.75939e-19)
(0.816292 0.065225 4.18044e-20)
(0.910275 0.0678472 -7.27846e-20)
(1.00324 0.0731129 -3.88036e-19)
(1.07157 0.0706354 -2.86331e-19)
(1.1694 0.0779624 -2.71071e-19)
(-0.00911832 0.0107856 -4.58849e-20)
(-0.022587 0.0272169 -5.99954e-19)
(-0.0313008 0.0395418 -3.70713e-19)
(-0.0349252 0.0482826 -4.72753e-19)
(-0.0332359 0.0539957 4.17982e-19)
(-0.0260514 0.0572291 3.37629e-20)
(-0.0131767 0.0585054 3.03014e-19)
(0.00563591 0.0583129 -2.7718e-19)
(0.0307111 0.057104 4.61453e-19)
(0.0624597 0.0552969 1.73145e-19)
(0.101369 0.0532777 1.43192e-20)
(0.147968 0.0514014 -2.71942e-20)
(0.202769 0.0499904 -9.63915e-20)
(0.266167 0.0493261 -8.37806e-20)
(0.338314 0.0496354 9.04871e-20)
(0.418964 0.0510688 1.28452e-19)
(0.507304 0.0536721 -8.1932e-19)
(0.601833 0.057355 5.16764e-20)
(0.700277 0.0618982 -1.36552e-19)
(0.799683 0.0668194 -1.27593e-19)
(0.896698 0.0718949 6.46941e-20)
(0.987152 0.0756301 -4.22271e-19)
(1.0709 0.0799661 1.94929e-19)
(1.13363 0.0783317 2.48847e-19)
(1.21215 0.0836713 -5.68403e-19)
(-0.00943378 0.0105525 1.07087e-19)
(-0.0230176 0.0262956 4.34111e-19)
(-0.0313328 0.0378296 3.75576e-20)
(-0.0340228 0.0457691 6.8665e-19)
(-0.0308389 0.0507375 -4.35878e-19)
(-0.0215658 0.0533322 4.27088e-19)
(-0.00596162 0.0541122 -3.82996e-19)
(0.01628 0.0535952 1.50956e-19)
(0.0455491 0.0522597 -1.94973e-19)
(0.0823179 0.0505484 2.57307e-19)
(0.127113 0.0488711 4.27279e-19)
(0.180458 0.0476033 2.21685e-19)
(0.242778 0.0470799 8.88617e-20)
(0.314266 0.0475807 9.72192e-20)
(0.394724 0.0493059 -7.44753e-20)
(0.483382 0.0523473 -5.97277e-20)
(0.578746 0.0566499 6.68574e-19)
(0.678536 0.0620003 2.21006e-19)
(0.779698 0.0679747 6.15863e-19)
(0.878721 0.0740833 1.58949e-20)
(0.971822 0.0795558 -3.9399e-19)
(1.05564 0.0838878 4.93084e-19)
(1.12846 0.0867771 6.27932e-19)
(1.18367 0.0858287 8.21436e-20)
(1.2432 0.088252 5.59728e-19)
(-0.00974239 0.0103166 -3.03726e-19)
(-0.0233435 0.0253426 1.68307e-19)
(-0.031087 0.036061 3.70006e-19)
(-0.0326064 0.0431829 -1.45713e-19)
(-0.0276295 0.0474062 -4.33209e-19)
(-0.0159043 0.0493832 -3.1961e-20)
(0.00286205 0.0497147 2.34611e-20)
(0.0290376 0.0489529 4.20067e-20)
(0.0630744 0.0476061 -2.6952e-19)
(0.10549 0.0461444 -1.14336e-19)
(0.156817 0.045001 -3.98932e-19)
(0.217511 0.0445676 -9.93433e-21)
(0.287817 0.0451805 -1.12595e-19)
(0.367603 0.0470965 -3.41623e-20)
(0.456169 0.0504598 2.9988e-19)
(0.552076 0.055265 -4.40572e-19)
(0.653044 0.0613157 1.85945e-19)
(0.756002 0.0682402 -2.95924e-19)
(0.857253 0.0754122 -4.44567e-19)
(0.952975 0.0822997 8.16883e-20)
(1.03949 0.0877913 8.37426e-19)
(1.11422 0.0921197 -4.27459e-19)
(1.17539 0.0932678 1.71301e-20)
(1.22185 0.0929222 3.73771e-19)
(1.26394 0.0914537 2.11383e-19)
(-0.0100346 0.01007 1.43057e-19)
(-0.0235325 0.0243463 -2.03055e-19)
(-0.0305018 0.0342306 -4.30265e-19)
(-0.0305797 0.0405311 -2.28778e-19)
(-0.0234717 0.0440256 2.50053e-19)
(-0.00888749 0.0454265 8.51164e-20)
(0.0135188 0.045381 4.97327e-19)
(0.0441742 0.0444794 2.01716e-19)
(0.0835806 0.0432636 1.27588e-19)
(0.132273 0.0422319 5.94553e-20)
(0.190735 0.0418379 4.12362e-19)
(0.259271 0.0424798 1.86684e-19)
(0.337832 0.044477 -1.54839e-19)
(0.425816 0.0480357 2.2184e-19)
(0.521873 0.0532058 -1.28267e-19)
(0.623782 0.0598427 1.63527e-19)
(0.728447 0.067573 -1.59407e-19)
(0.832109 0.075846 -3.47911e-19)
(0.930692 0.083864 5.08847e-19)
(1.02042 0.0910458 -5.35523e-19)
(1.09821 0.0961804 1.51656e-19)
(1.16236 0.0999154 -1.77225e-19)
(1.21207 0.0993664 -1.34731e-19)
(1.24907 0.0994413 -1.11621e-18)
(1.27605 0.0930075 1.75905e-19)
(-0.0102977 0.00980388 2.92908e-20)
(-0.0235467 0.0232934 1.45392e-19)
(-0.0295093 0.0323302 4.82639e-19)
(-0.0278404 0.0378174 -1.13843e-19)
(-0.0182254 0.0406165 -4.96079e-20)
(-0.000335482 0.0415037 9.22214e-20)
(0.0262259 0.0411762 8.21857e-20)
(0.0619355 0.0402661 -3.23956e-19)
(0.107321 0.03935 -1.50476e-19)
(0.162891 0.0389529 -4.64648e-19)
(0.229007 0.0395417 -3.51042e-19)
(0.305716 0.0415054 -2.50592e-19)
(0.39254 0.0451207 2.24309e-19)
(0.488258 0.0505067 -3.27829e-19)
(0.59075 0.0575763 -1.5827e-19)
(0.696958 0.0660057 -6.93391e-20)
(0.803045 0.0752226 -5.05885e-20)
(0.904789 0.0845012 1.04124e-18)
(0.998094 0.0929305 6.61954e-20)
(1.07966 0.0999152 -9.19784e-20)
(1.14731 0.104345 -5.24648e-19)
(1.20038 0.107022 1.7115e-19)
(1.23949 0.105135 1.90506e-20)
(1.26692 0.104881 6.37851e-19)
(1.2817 0.0927967 6.86909e-20)
(-0.010517 0.00950942 2.30698e-19)
(-0.0233428 0.0221685 -2.21836e-19)
(-0.0280356 0.0303493 -3.36849e-19)
(-0.0242814 0.0350433 3.38287e-19)
(-0.0117484 0.0371974 -7.55698e-20)
(0.0099281 0.0376544 -6.55219e-20)
(0.0411878 0.0371642 5.70502e-20)
(0.0825389 0.0364023 -8.17259e-20)
(0.134499 0.0359798 2.0506e-19)
(0.197486 0.0364429 1.33006e-19)
(0.271646 0.0382589 3.44802e-19)
(0.356644 0.0417848 -9.30938e-21)
(0.451426 0.0472206 2.83496e-19)
(0.554024 0.0545556 -1.89085e-20)
(0.661467 0.0635225 3.04064e-19)
(0.769903 0.0735885 8.89764e-20)
(0.87494 0.0839826 -5.74552e-19)
(0.972228 0.0938391 -2.81463e-19)
(1.05805 0.102212 -6.92616e-20)
(1.12995 0.108562 1.87497e-19)
(1.18686 0.111995 -8.87877e-20)
(1.22924 0.113374 -3.1931e-19)
(1.25886 0.110496 4.22899e-20)
(1.2774 0.108642 -2.99312e-19)
(1.28803 0.0976025 -1.45626e-19)
(-0.0106763 0.00917765 1.41188e-19)
(-0.0228731 0.0209566 1.50758e-19)
(-0.026002 0.0282777 2.76332e-19)
(-0.0197921 0.0322103 -2.01376e-19)
(-0.00389856 0.033787 1.46328e-20)
(0.0220728 0.0339187 4.0324e-19)
(0.0585909 0.0334091 -1.1562e-19)
(0.106166 0.0329772 -3.85887e-19)
(0.165255 0.0332648 -2.28776e-19)
(0.2361 0.0348294 3.06034e-19)
(0.318522 0.038119 -6.38218e-19)
(0.411663 0.0434276 2.4478e-21)
(0.513755 0.0508369 -5.50341e-20)
(0.621982 0.0601607 4.06881e-19)
(0.732529 0.0709153 -2.22186e-19)
(0.840891 0.0823482 3.05602e-19)
(0.942426 0.0935188 3.10364e-19)
(1.03304 0.103486 -5.49726e-19)
(1.10977 0.111358 -2.30672e-19)
(1.17124 0.116725 -1.92356e-19)
(1.21756 0.118963 2.94573e-19)
(1.2502 0.11903 4.69148e-19)
(1.27154 0.115161 2.19721e-19)
(1.28356 0.11229 -1.96164e-19)
(1.29017 0.101311 -3.53385e-19)
(-0.0107568 0.00879994 -3.33114e-20)
(-0.0220863 0.0196438 1.40973e-19)
(-0.0233258 0.0261068 -2.80293e-19)
(-0.0142598 0.0293219 -4.30528e-19)
(0.00546377 0.0304062 -6.38339e-19)
(0.036258 0.030339 1.087e-19)
(0.0785985 0.0299773 -1.28371e-19)
(0.132956 0.0300809 1.882e-19)
(0.199657 0.0313145 6.9984e-20)
(0.278671 0.0342307 1.35085e-19)
(0.369358 0.039231 1.50223e-19)
(0.470198 0.0465069 -8.30842e-20)
(0.578593 0.0559751 -1.20291e-19)
(0.690843 0.0672312 -2.70851e-19)
(0.802388 0.0795542 8.26337e-20)
(0.908325 0.0919881 -3.25199e-19)
(1.00412 0.103481 1.19837e-19)
(1.08633 0.1131 7.81724e-20)
(1.15303 0.120094 -3.25129e-19)
(1.20402 0.124243 -3.51579e-19)
(1.24048 0.125203 -1.89725e-19)
(1.26462 0.124014 1.01608e-20)
(1.2792 0.119305 5.90553e-20)
(1.28622 0.115569 -1.92249e-19)
(1.28956 0.104768 1.46601e-19)
(-0.0107383 0.008369 2.13158e-21)
(-0.0209279 0.0182195 -3.87675e-19)