/*--------------------------------*- C++ -*----------------------------------*\
  =========                 |
  \\      /  F ield         | OpenFOAM: The Open Source CFD Toolbox
   \\    /   O peration     | Website:  https://openfoam.org
    \\  /    A nd           | Version:  7
     \\/     M anipulation  |
\*---------------------------------------------------------------------------*/
FoamFile
{
    version     2.0;
    format      ascii;
    class       volScalarField;
    location    "19";
    object      p;
}
// * * * * * * * * * * * * * * * * * * * * * * * * * * * * * * * * * * * * * //

dimensions      [1 -1 -2 0 0 0 0];

internalField   nonuniform List<scalar> 
4032
(
1
1
1
1
1
1
1
1
1
1
1
3.14174
9.70513
10.5995
10.7526
10.9485
11.1205
11.2819
11.4308
11.5677
11.6917
11.7942
11.875
11.9337
1
1
1
1
1
1
1
1
1
1
1
3.03306
9.58165
10.5819
10.7398
10.9327
11.0997
11.2549
11.3968
11.5261
11.6429
11.7392
11.8149
11.8715
1
1
1
1
1
1
1
1
1
1
1
2.78094
9.3846
10.5524
10.7056
10.8971
11.0604
11.2106
11.3455
11.4653
11.5717
11.6593
11.7269
11.7826
1
1
1
1
1
1
1
1
1
1
1
2.40894
9.05063
10.5132
10.6546
10.8443
11.0015
11.1448
11.2722
11.3832
11.4781
11.5511
11.5976
11.6334
1
1
1
1
1
1
1
1
1
1
1
1.96664
8.56318
10.5064
10.6045
10.7817
10.9249
11.0569
11.1687
11.2576
11.323
11.3728
11.3997
11.4468
1
1
1
1
1
1
1
1
1
1
1
1.51287
7.90444
10.463
10.5114
10.691
10.8223
10.9393
11.0332
11.1052
11.1545
11.1919
11.1871
11.1345
1
1
1
1
1
1
1
1
1
1
1
1.08645
7.07594
10.4338
10.4294
10.5666
10.6692
10.7724
10.8471
10.8888
10.8859
10.826
10.7231
10.6561
1
1
1
1
1
1
1
1
1
1
1
1.00168
5.96753
10.0653
10.199
10.3572
10.4715
10.5526
10.5992
10.6047
10.55
10.4477
10.2791
10.2345
1
1
1
1
1
1
1
1
1
1
1
0.999998
4.69109
9.70316
10.0814
10.2047
10.287
10.3272
10.3331
10.2881
10.1498
9.87045
9.11101
7.0707
1
1
1
1
1
1
1
1
1
1
1
0.999999
3.38318
9.13311
9.94632
10.0695
10.1237
10.1339
10.083
9.97335
9.73849
9.25647
8.45116
6.39594
1
1
1
1
1
1
1
1
1
1
1
1
2.06102
8.25089
9.93145
9.96941
9.98717
9.94316
9.83709
9.65457
9.35924
8.79609
7.97597
6.0767
1
1
1
1
1
1
1
1
1
1
1
1
1.13025
6.98968
9.94594
9.82659
9.79556
9.72661
9.59971
9.37937
9.03889
8.47767
7.6239
6.13915
1
1
1
1
1
1
1
1
1
1
1
1
1.00141
5.26849
9.41224
9.60478
9.60265
9.5258
9.38687
9.15301
8.79252
8.25639
7.43429
6.30261
1
1
1
1
1
1
1
1
1
1
1
1
0.99998
3.25225
8.74887
9.49825
9.49503
9.41884
9.2573
8.99891
8.62807
8.11379
7.37701
6.52152
1
1
1
1
1
1
1
1
1
1
1
1
0.999995
1.57848
7.83323
9.61836
9.43456
9.30011
9.1189
8.87271
8.51288
8.03452
7.41665
6.80426
1
1
1
1
1
1
1
1
1
1
1
1
0.999999
1.03402
6.12665
9.23678
9.26006
9.18528
9.03814
8.79533
8.45782
8.04113
7.55511
7.09506
1
1
1
1
1
1
1
1
1
1
1
1
1
0.999929
3.80706
8.7544
9.25553
9.17827
9.02612
8.79396
8.49468
8.13587
7.7451
7.3656
1
1
1
1
1
1
1
1
1
1
1
1
1
0.999978
1.80402
7.99967
9.41673
9.2224
9.04128
8.81422
8.54868
8.24532
7.92681
7.59574
1
1
1
1
1
1
1
1
1
1
1
1
1
0.999996
1.05956
6.40112
9.25985
9.19945
9.05089
8.88981
8.66203
8.39925
8.11966
7.82157
1
1
1
1
1
1
1
1
1
1
1
1
1
1
1.00011
4.18059
8.91446
9.29916
9.17538
9.0138
8.79105
8.55456
8.29916
8.02226
1
1
1
1
1
1
1
1
1
1
1
1
1
1
0.999998
2.14875
8.40759
9.7086
9.36965
9.14967
8.93149
8.71373
8.46857
8.20537
1
1
1
1
1
1
1
1
1
1
1
1
1
1
1
1.115
7.23115
9.76603
9.43464
9.25492
9.069
8.86826
8.63306
8.38595
1
1
1
1
1
1
1
1
1
1
1
1
1
1
1
1.00094
5.57789
9.6668
9.54268
9.40519
9.21982
9.01586
8.7849
8.55178
1
1
1
1
1
1
1
1
1
1
1
1
1
1
1
0.999993
4.00107
9.46018
9.77599
9.58334
9.37366
9.15687
8.93144
8.71323
1
1
1
1
1
1
1
1
1
1
1
1
1
1
1
0.999998
2.67382
8.93732
9.93286
9.64512
9.45812
9.25984
9.05792
8.86053
1
1
1
1
1
1
1
1
1
1
1
1
1
1
1
1
1.65565
8.22455
10.183
9.78943
9.60419
9.40875
9.21423
9.02089
1
1
1
1
1
1
1
1
1
1
1
1
1
1
1
1
1.10235
7.41089
10.2519
9.84519
9.66328
9.48353
9.30622
9.125
1
1
1
1
1
1
1
1
1
1
1
1
1
1
1
1
1.0018
6.39927
10.1844
9.87646
9.71995
9.55775
9.39128
9.21689
1
1
1
1
1
1
1
1
1
1
1
1
1
1
1
1
1
5.45833
10.0356
9.94466
9.78264
9.63062
9.46725
9.29675
1
1
1
1
1
1
1
1
1
1
1
1
1
1
1
1
1
4.62884
9.82089
10.0116
9.83016
9.69436
9.53489
9.36821
1
1
1
1
1
1
1
1
1
1
1
1
1
1
1
1
1
3.89385
9.59065
10.0713
9.86572
9.74293
9.58787
9.42874
1
1
1
1
1
1
1
1
1
1
1
1
1
1
1
1
1
3.22784
9.35182
10.1582
9.92352
9.80076
9.64598
9.48944
1
1
1
1
1
1
1
1
1
1
1
1
1
1
1
1
1
2.68953
9.08735
10.2425
9.97318
9.84099
9.68603
9.53242
1
1
1
1
1
1
1
1
1
1
1
1
1
1
1
1
1
2.28842
8.81193
10.3101
10.0201
9.88198
9.72633
9.57234
1
1
1
1
1
1
1
1
1
1
1
1
1
1
1
1
1
1.96314
8.55799
10.3547
10.0559
9.91636
9.76047
9.60647
1
1
1
1
1
1
1
1
1
1
1
1
1
1
1
1
1
1.7271
8.31842
10.3757
10.0774
9.93888
9.78439
9.63171
1
1
1
1
1
1
1
1
1
1
1
1
1
1
1
1
1
1.58968
8.11004
10.3794
10.0916
9.95617
9.80303
9.6514
1
1
1
1
1
1
1
1
1
1
1
1
1
1
1
1
1
1.50643
7.95017
10.3688
10.098
9.9674
9.8171
9.66751
1
1
1
1
1
1
1
1
1
1
1
1
1
1
1
1
1
1.44949
7.83778
10.3602
10.105
9.97728
9.82866
9.68024
1
1
1
1
1
1
1
1
1
1
1
1
1
1
1
1
1
1.42536
7.77988
10.3429
10.1011
9.97946
9.83348
9.68671
1.9615
2.24919
2.9199
3.47183
3.71643
3.76411
3.75977
3.77155
3.80517
3.85227
3.91531
3.98622
4.0536
4.12223
4.18535
4.23447
4.27484
4.31473
4.36262
4.41476
4.46237
4.49893
4.52811
4.55549
4.58805
4.63051
4.68347
4.74215
4.80025
4.85228
4.89567
4.93054
4.95838
4.97812
4.98708
4.98463
4.97613
4.96647
4.95869
4.95386
4.94967
4.9427
4.93131
4.91428
4.89418
4.87141
4.84437
4.811
4.76989
4.72108
4.66825
4.61677
4.57012
4.52831
4.48859
4.44737
4.40369
4.35996
4.31948
4.28243
4.2456
4.20415
4.15614
4.10493
4.05524
4.01031
3.97071
3.9345
3.89822
3.86034
3.82229
3.78685
3.75601
3.7298
3.7046
3.67722
3.64955
3.62554
3.60783
3.59769
3.59631
3.60265
3.6113
3.6227
3.63929
3.66288
3.69439
3.7321
3.77132
3.80819
3.84164
3.87348
3.90847
3.94578
3.97205
3.99036
3.36581
3.53672
3.57245
3.63452
3.74015
3.72765
3.72999
3.77736
3.84097
3.91445
4.0037
4.06974
4.09493
4.11609
4.13353
4.1655
4.20307
4.24056
4.27824
4.32034
4.37157
4.42507
4.47637
4.52077
4.55861
4.59575
4.63898
4.69081
4.74765
4.80074
4.84294
4.87298
4.8937
4.91093
4.92776
4.94181
4.9485
4.94642
4.9381
4.92853
4.92166
4.91753
4.91221
4.8991
4.8737
4.83859
4.80161
4.76795
4.73661
4.70125
4.65649
4.60514
4.55436
4.50932
4.47159
4.43843
4.40386
4.36414
4.32073
4.2774
4.2359
4.19564
4.15376
4.10828
4.06144
4.01634
3.97499
3.93802
3.90382
3.8695
3.83406
3.7993
3.76749
3.73989
3.71569
3.69148
3.66617
3.64242
3.62363
3.61082
3.60501
3.60509
3.60737
3.61427
3.62805
3.65049
3.68276
3.72251
3.76372
3.79752
3.82428
3.84873
3.87561
3.90908
3.94851
3.98043
4.11728
4.13734
3.74559
3.60614
3.73051
3.78912
3.84672
3.92909
3.99985
4.02003
4.02977
4.0543
4.05773
4.04858
4.0405
4.06953
4.1363
4.21944
4.29046
4.33704
4.37628
4.42618
4.48897
4.55705
4.61594
4.66062
4.69451
4.729
4.77198
4.82136
4.86911
4.90585
4.92533
4.93116
4.9336
4.94111
4.95247
4.96165
4.96184
4.95126
4.9359
4.92256
4.91455
4.90834
4.89497
4.86329
4.81717
4.76895
4.7255
4.6889
4.65331
4.60901
4.55775
4.50655
4.45995
4.42073
4.38844
4.35638
4.31831
4.27463
4.2288
4.18329
4.13945
4.09592
4.05156
4.00812
3.96651
3.92751
3.89171
3.85867
3.82665
3.79462
3.76334
3.73462
3.7096
3.68761
3.66768
3.6509
3.63875
3.63258
3.63326
3.63866
3.6433
3.64907
3.6607
3.6785
3.70321
3.73553
3.77473
3.81677
3.84946
3.86853
3.88227
3.8967
3.91586
3.96178
4.67761
4.76496
4.31762
4.00463
4.10517
4.11795
4.03576
4.02796
4.06639
4.06878
4.01065
4
4.0512
4.09156
4.10996
4.1302
4.1674
4.23444
4.32102
4.39214
4.43112
4.45295
4.47986
4.52433
4.5819
4.63821
4.68323
4.7158
4.74446
4.77806
4.81918
4.8624
4.89664
4.91403
4.91837
4.91914
4.92312
4.93123
4.93727
4.93248
4.91622
4.89451
4.87444
4.86006
4.84926
4.83067
4.79205
4.74539
4.69861
4.6591
4.62719
4.59198
4.54789
4.5008
4.4543
4.4125
4.37778
4.34486
4.30518
4.26312
4.21978
4.17591
4.13237
4.08943
4.04685
4.00484
3.96428
3.92649
3.89206
3.85946
3.82756
3.79569
3.76452
3.7353
3.70974
3.68659
3.66513
3.64475
3.6268
3.61775
3.61663
3.62228
3.63397
3.64462
3.65812
3.67536
3.6959
3.7208
3.75207
3.79062
3.83391
3.86995
3.8898
3.90018
3.90835
3.93545
5.3162
5.32916
4.95888
4.53177
4.43083
4.34766
4.17222
4.09764
4.15792
4.23015
4.2076
4.14577
4.15961
4.22113
4.24223
4.23698
4.2374
4.25656
4.30828
4.37509
4.42213
4.45266
4.47742
4.51073
4.56125
4.6219
4.67766
4.71667
4.74028
4.75994
4.78386
4.81444
4.8477
4.87357
4.88703
4.89226
4.89385
4.89491
4.89637
4.90002
4.89993
4.89062
4.86985
4.8463
4.82241
4.79484
4.76213
4.73071
4.69549
4.65436
4.61111
4.56657
4.52226
4.48338
4.45015
4.417
4.38036
4.3395
4.29453
4.2494
4.20743
4.16788
4.12891
4.08779
4.04361
3.99912
3.95797
3.92199
3.89004
3.86002
3.83022
3.8002
3.7702
3.74102
3.71544
3.69387
3.67537
3.65933
3.64505
3.63194
3.62703
3.6294
3.64103
3.65802
3.67323
3.69046
3.70949
3.73019
3.75347
3.78028
3.81279
3.85063
3.88315
3.90205
3.91157
3.93316
5.87399
5.82617
5.47439
5.02369
4.83006
4.70761
4.51112
4.34756
4.32851
4.38705
4.39308
4.3315
4.31136
4.36649
4.40131
4.38676
4.35473
4.35305
4.38976
4.45499
4.49749
4.51274
4.52373
4.54517
4.58498
4.6415
4.69233
4.72818
4.75138
4.7699
4.79319
4.8298
4.87711
4.91191
4.92761
4.93144
4.92994
4.92958
4.93762
4.95658
4.96487
4.9459
4.91345
4.87979
4.85321
4.83342
4.81205
4.78152
4.74026
4.69091
4.63958
4.59465
4.55737
4.52396
4.48856
4.44873
4.40411
4.3553
4.30759
4.26497
4.22524
4.18613
4.14511
4.1002
4.05102
4.00195
3.95948
3.9252
3.89595
3.8679
3.83828
3.80434
3.76866
3.73613
3.71009
3.69147
3.67854
3.66851
3.65888
3.64652
3.63737
3.6368
3.64685
3.66441
3.6885
3.7155
3.73588
3.74854
3.76259
3.77864
3.79859
3.82885
3.86991
3.9045
3.92045
3.94012
6.35708
6.22599
5.87012
5.42461
5.19989
5.11441
4.97257
4.77683
4.64245
4.62135
4.58552
4.4939
4.42853
4.44436
4.47518
4.4613
4.43056
4.43755
4.47255
4.53128
4.55261
4.54392
4.5421
4.56282
4.60378
4.66131
4.69237
4.7084
4.72245
4.73716
4.76099
4.80491
4.85183
4.86696
4.86901
4.86559
4.8671
4.8783
4.90076
4.90963
4.89462
4.86545
4.83455
4.81399
4.80178
4.78141
4.74987
4.70824
4.66359
4.6249
4.59226
4.5607
4.5244
4.48313
4.4403
4.39987
4.36052
4.32172
4.28412
4.24724
4.20853
4.16549
4.11915
4.07306
4.02877
3.98969
3.95742
3.92725
3.89703
3.86622
3.83368
3.80019
3.76873
3.74174
3.72024
3.70525
3.69601
3.68878
3.68017
3.66811
3.65821
3.65869
3.67096
3.69209
3.72043
3.7458
3.75987
3.76736
3.77686
3.78823
3.80447
3.83099
3.8671
3.90519
3.92437
3.94192
6.7314
6.53509
6.17369
5.75635
5.52568
5.45927
5.35298
5.16499
5.01459
4.96537
4.90547
4.78964
4.66724
4.62057
4.61505
4.58405
4.5358
4.51232
4.52851
4.56618
4.57816
4.56536
4.55554
4.56755
4.59718
4.63198
4.64409
4.65289
4.66345
4.67851
4.70309
4.74287
4.7651
4.77058
4.77082
4.77326
4.78172
4.80149
4.81487
4.80513
4.78059
4.75758
4.74318
4.73641
4.72386
4.69469
4.65377
4.60823
4.57388
4.54753
4.52307
4.49205
4.45305
4.40741
4.36479
4.32973
4.2971
4.26381
4.22848
4.18961
4.14606
4.10081
4.05919
4.02127
3.98623
3.95356
3.92168
3.88895
3.85782
3.82868
3.80069
3.77464
3.75069
3.73047
3.71276
3.69825
3.68972
3.68449
3.681
3.67832
3.6816
3.69311
3.71041
3.72932
3.74239
3.75204
3.76488
3.78027
3.79223
3.80359
3.81707
3.832
3.8481
3.86847
3.89355
3.92227
7.0464
6.8099
6.44941
6.05585
5.83095
5.76425
5.65685
5.46889
5.32818
5.27569
5.20489
5.07787
4.93601
4.86226
4.83317
4.78802
4.71695
4.65399
4.63537
4.64614
4.64811
4.62799
4.60571
4.60364
4.61594
4.6322
4.63661
4.63908
4.6461
4.65923
4.68134
4.71431
4.72863
4.73179
4.7338
4.7414
4.75675
4.77409
4.77282
4.75387
4.72905
4.71406
4.70992
4.70977
4.68885
4.65279
4.60346
4.56349
4.53776
4.51956
4.49474
4.45921
4.41534
4.36885
4.33295
4.30386
4.27387
4.24004
4.20269
4.1591
4.10948
4.06568
4.03295
4.00199
3.97131
3.93964
3.90541
3.86848
3.83448
3.80778
3.78567
3.76668
3.75071
3.73547
3.7162
3.69782
3.68761
3.68305
3.68703
3.70001
3.71975
3.74049
3.75202
3.75302
3.74969
3.75525
3.77023
3.79386
3.8126
3.81869
3.81996
3.81704
3.82086
3.83161
3.85664
3.90252
7.3079
7.05905
6.70966
6.34363
6.13147
6.05073
5.9201
5.72477
5.59091
5.52745
5.43862
5.29533
5.14797
5.0764
5.04137
4.98562
4.897
4.79759
4.75298
4.74675
4.73729
4.70796
4.66776
4.64501
4.64216
4.64595
4.64352
4.64021
4.64104
4.64827
4.66423
4.69136
4.7051
4.70702
4.71025
4.72205
4.74473
4.75898
4.75076
4.72681
4.70846
4.70333
4.7116
4.70806
4.68058
4.63706
4.59032
4.56309
4.5486
4.53379
4.50095
4.45711
4.4052
4.36594
4.33936
4.31599
4.2866
4.24953
4.20537
4.15177
4.10108
4.06899
4.04385
4.01661
3.98633
3.95326
3.91509
3.87425
3.84142
3.81757
3.79948
3.78578
3.77606
3.7649
3.74498
3.72376
3.7136
3.71337
3.72397
3.74667
3.77475
3.79185
3.79204
3.78011
3.77458
3.77889
3.79134
3.81623
3.83119
3.82874
3.81842
3.8085
3.80919
3.81846
3.84227
3.88146
7.55101
7.29749
6.96199
6.62124
6.42346
6.3228
6.16322
5.95902
5.82837
5.74951
5.63597
5.47151
5.32002
5.25252
5.21341
5.14477
5.03758
4.9147
4.8561
4.83714
4.81713
4.77634
4.71801
4.67707
4.66207
4.65697
4.64622
4.63649
4.62958
4.62787
4.63486
4.65438
4.66909
4.67158
4.67628
4.69018
4.71246
4.72736
4.72339
4.70281
4.68706
4.68858
4.70023
4.69177
4.66148
4.61762
4.58657
4.57304
4.56724
4.54278
4.50299
4.45036
4.40516
4.37779
4.35598
4.33022
4.29939
4.25923
4.20693
4.15558
4.12042
4.09379
4.06724
4.04038
4.01052
3.97524
3.93637
3.90168
3.87539
3.85292
3.83685
3.8259
3.81517
3.80168
3.78392
3.7727
3.77158
3.778
3.79257
3.80915
3.82235
3.83037
3.82856
3.8224
3.82102
3.82126
3.82332
3.82708
3.82847
3.82273
3.81385
3.81028
3.81044
3.81678
3.83048
3.85349
7.76983
7.52914
7.21878
6.9098
6.72197
6.59549
6.40546
6.19161
6.05992
5.96493
5.82806
5.6406
5.48425
5.41638
5.36689
5.28274
5.156
5.01944
4.9555
4.92525
4.88834
4.83383
4.75818
4.70396
4.68063
4.66903
4.64947
4.63153
4.61314
4.60247
4.60052
4.60971
4.62413
4.62737
4.62828
4.63895
4.65592
4.67122
4.67372
4.65964
4.64271
4.6434
4.65015
4.63912
4.61062
4.57481
4.55582
4.5509
4.53983
4.51071
4.46863
4.41787
4.38516
4.36393
4.34112
4.3117
4.27673
4.23075
4.1815
4.15221
4.12755
4.10056
4.06998
4.03531
3.99743
3.96605
3.94214
3.92281
3.90408
3.88361
3.86234
3.84132
3.82767
3.8202
3.8191
3.82557
3.83504
3.84507
3.85171
3.85125
3.84736
3.85009
3.86025
3.86588
3.86298
3.85508
3.84188
3.82593
3.81576
3.81369
3.81407
3.8129
3.8126
3.81228
3.81324
3.82088
7.97182
7.74082
7.44556
7.16661
6.99533
6.85689
6.65068
6.43675
6.30215
6.18997
6.02956
5.82045
5.66253
5.59031
5.52415
5.42114
5.27251
5.12795
5.06071
5.01906
4.96627
4.8945
4.79955
4.73742
4.70762
4.68842
4.66168
4.63408
4.60058
4.57893
4.56842
4.56935
4.57749
4.57917
4.57251
4.57329
4.58288
4.59555
4.60039
4.59009
4.57296
4.57266
4.57915
4.5692
4.54075
4.50735
4.49478
4.49128
4.47745
4.44871
4.40765
4.36216
4.33809
4.31938
4.29445
4.26279
4.22172
4.17201
4.14115
4.12115
4.10015
4.07414
4.04244
4.00077
3.9607
3.94099
3.9262
3.91507
3.90303
3.8896
3.87063
3.84501
3.83021
3.82813
3.83728
3.85696
3.87873
3.89006
3.88927
3.87646
3.86649
3.86905
3.88131
3.89144
3.8871
3.87373
3.84903
3.82558
3.81502
3.81053
3.81345
3.81472
3.81207
3.80681
3.79518
3.78922
8.1657
7.93775
7.65443
7.4029
7.24554
7.09226
6.87134
6.66517
6.53457
6.41456
6.24
6.01918
5.86169
5.78076
5.69612
5.57334
5.4047
5.26367
5.19321
5.13621
5.0645
4.97076
4.85672
4.79275
4.7599
4.73261
4.69589
4.65435
4.6026
4.56909
4.55063
4.54471
4.54581
4.54128
4.52762
4.51459
4.51526
4.52524
4.53042
4.51904
4.5001
4.49735
4.50287
4.49614
4.47028
4.4388
4.42865
4.42517
4.40838
4.37679
4.33347
4.3006
4.28469
4.26916
4.24459
4.21032
4.16089
4.10989
4.08753
4.07472
4.06062
4.03838
4.00955
3.96642
3.92771
3.91124
3.90058
3.89518
3.8887
3.88133
3.86984
3.84956
3.84008
3.84408
3.85853
3.88294
3.9068
3.91907
3.91435
3.89931
3.89339
3.89343
3.89964
3.9074
3.9017
3.88441
3.85614
3.83492
3.82614
3.82134
3.8236
3.82193
3.81638
3.80514
3.78449
3.77572
8.34204
8.11779
7.8502
7.62464
7.47417
7.30282
7.07337
6.87926
6.75706
6.6307
6.44351
6.21592
6.06306
5.97457
5.87525
5.73649
5.55757
5.42488
5.34632
5.27211
5.18205
5.06437
4.93666
4.87197
4.83307
4.79371
4.74626
4.68637
4.61425
4.57302
4.54764
4.53443
4.52885
4.51719
4.49344
4.46572
4.45975
4.46648
4.46977
4.45741
4.4368
4.43175
4.43857
4.43723
4.41678
4.38281
4.37039
4.36444
4.34571
4.31279
4.27129
4.24483
4.23232
4.2201
4.19709
4.16091
4.11274
4.06982
4.04467
4.03118
4.01808
3.99911
3.97572
3.94315
3.91066
3.89599
3.88772
3.88268
3.881
3.87816
3.8706
3.86258
3.86618
3.87756
3.89566
3.91621
3.92768
3.92902
3.93121
3.93186
3.93044
3.92723
3.9252
3.92451
3.9158
3.89743
3.87369
3.85967
3.85219
3.84743
3.84446
3.83673
3.8256
3.80703
3.78796
3.7783
8.51102
8.28776
8.0355
7.82418
7.67243
7.48843
7.25282
7.07362
6.95631
6.81547
6.6107
6.38621
6.24503
6.1537
6.0435
5.89382
5.71301
5.58509
5.49517
5.40576
5.30036
5.16697
5.03464
4.96305
4.90984
4.85784
4.79975
4.72222
4.63281
4.58912
4.56154
4.54017
4.51948
4.49412
4.45379
4.42114
4.41312
4.41681
4.4175
4.40356
4.38039
4.37212
4.38017
4.38462
4.36972
4.33931
4.32477
4.31787
4.30026
4.27006
4.23398
4.21293
4.19675
4.17777
4.15443
4.12233
4.08096
4.04834
4.0289
4.01147
3.99353
3.97568
3.95352
3.93105
3.91816
3.90672
3.89591
3.89108
3.88939
3.88771
3.88609
3.89566
3.91361
3.93224
3.94819
3.95653
3.95617
3.95741
3.96764
3.97984
3.98062
3.9752
3.96199
3.9439
3.9321
3.92194
3.91129
3.90288
3.89486
3.88535
3.87412
3.85825
3.83703
3.81663
3.80829
3.79745
8.66576
8.44641
8.21318
8.01588
7.85926
7.65905
7.426
7.24857
7.12475
6.97451
6.75972
6.5431
6.40961
6.31474
6.19322
6.02918
5.84526
5.7192
5.62087
5.52467
5.41372
5.26989
5.13183
5.04974
4.98392
4.91995
4.84873
4.75834
4.65917
4.59685
4.55741
4.52435
4.49351
4.45938
4.41243
4.37736
4.3662
4.36745
4.36706
4.35276
4.32843
4.318
4.32504
4.33289
4.32013
4.29195
4.2746
4.27366
4.26555
4.24668
4.22249
4.1975
4.17482
4.15088
4.12599
4.10256
4.08667
4.07185
4.05172
4.02351
3.99165
3.96786
3.9563
3.94993
3.94844
3.94304
3.93616
3.92999
3.92102
3.91572
3.92603
3.95177
3.98272
4.00117
4.00792
4.00366
3.99643
4.00284
4.02004
4.03658
4.03527
4.02427
3.99939
3.97606
3.96751
3.96509
3.95962
3.94808
3.93408
3.91363
3.88435
3.85942
3.84631
3.83674
3.82926
3.81268
8.82135
8.60283
8.38315
8.19617
8.02703
7.81032
7.58569
7.4139
7.28628
7.11969
6.89546
6.6928
6.56311
6.4507
6.30549
6.12422
5.95202
5.83486
5.72772
5.61529
5.48828
5.34302
5.21268
5.11787
5.03451
4.95013
4.86045
4.76671
4.68413
4.615
4.56452
4.52177
4.47751
4.42248
4.3614
4.32684
4.31275
4.31136
4.30902
4.29348
4.26811
4.2563
4.26197
4.27146
4.26053
4.23331
4.21509
4.21938
4.21955
4.20661
4.19034
4.16831
4.14367
4.11901
4.09686
4.08171
4.07116
4.06032
4.04532
4.02564
3.99625
3.96988
3.96075
3.95805
3.96387
3.96983
3.96917
3.96553
3.95542
3.95604
3.97172
3.99898
4.03238
4.05139
4.05398
4.04525
4.04111
4.04485
4.05591
4.06946
4.06474
4.04816
4.01723
3.98978
3.97902
3.97441
3.97308
3.96279
3.94609
3.92152
3.88556
3.85795
3.84554
3.83702
3.82997
3.81129
8.93326
8.72773
8.52627
8.34883
8.1659
7.94592
7.73493
7.57151
7.43789
7.25142
7.02105
6.83191
6.70479
6.57807
6.41438
6.21539
6.05838
5.95005
5.83457
5.70667
5.56078
5.40413
5.28088
5.18196
5.08969
4.99653
4.89493
4.78481
4.68952
4.62362
4.571
4.52271
4.46764
4.39783
4.3285
4.29368
4.27687
4.26767
4.25536
4.23255
4.20205
4.19038
4.19533
4.20569
4.19783
4.17278
4.15046
4.15447
4.15506
4.14782
4.13922
4.12032
4.09773
4.07777
4.06016
4.04793
4.04224
4.03676
4.02759
4.01441
3.99257
3.96928
3.96201
3.9612
3.96838
3.98334
3.99337
3.99601
3.99291
3.99885
4.01368
4.0362
4.06967
4.09311
4.09592
4.08634
4.07538
4.07076
4.07148
4.0804
4.07695
4.05999
4.0307
4.00323
3.98971
3.97943
3.97156
3.96039
3.9443
3.91778
3.88214
3.85977
3.84652
3.83422
3.8236
3.80129
9.03223
8.8399
8.65434
8.47997
8.28682
8.07249
7.87588
7.72138
7.57369
7.36868
7.14243
6.96756
6.84128
6.70154
6.52143
6.31757
6.172
6.05945
5.93453
5.79234
5.62994
5.47094
5.35049
5.24931
5.15053
5.04944
4.93965
4.81865
4.71584
4.64486
4.58404
4.52587
4.46685
4.40097
4.3255
4.27981
4.25559
4.23567
4.21343
4.18181
4.1431
4.12891
4.13177
4.14
4.13423
4.1118
4.08779
4.08946
4.08612
4.0813
4.07247
4.05361
4.04065
4.03247
4.02313
4.00864
3.99548
3.98984
3.98557
3.98168
3.9752
3.96652
3.96109
3.9619
3.96694
3.98112
4.00056
4.01295
4.02487
4.04057
4.0567
4.07401
4.09389
4.1166
4.12678
4.12344
4.11259
4.09952
4.09097
4.08803
4.08157
4.06374
4.0389
4.01818
4.0037
3.98971
3.97536
3.95791
3.93475
3.90536
3.8805
3.86373
3.84942
3.83424
3.81966
3.79014
9.11766
8.93559
8.75963
8.58274
8.38701
8.18432
8.0023
7.85252
7.68551
7.46917
7.25741
7.09609
6.97083
6.81522
6.6209
6.42288
6.28598
6.17016
6.03671
5.8825
5.70729
5.5544
5.43854
5.33301
5.22654
5.11313
4.98598
4.85734
4.76224
4.68967
4.62184
4.55429
4.4832
4.40102
4.31997
4.27221
4.2414
4.21419
4.18511
4.14602
4.09849
4.07719
4.07442
4.07727
4.07157
4.05097
4.03042
4.02962
4.02489
4.01718
4.00126
3.98821
3.98591
3.98906
3.98832
3.97564
3.95422
3.94375
3.94115
3.94442
3.95437
3.95852
3.9603
3.95995
3.96488
3.97788
3.99888
4.02597
4.05683
4.08292
4.09883
4.10913
4.11686
4.12729
4.14078
4.1487
4.14369
4.13074
4.1122
4.09415
4.0794
4.06393
4.04727
4.03202
4.01682
3.99939
3.97817
3.95304
3.92734
3.90522
3.88777
3.87155
3.85524
3.83702
3.81688
3.78074
9.19346
9.0181
8.84525
8.66537
8.47372
8.28406
8.11408
7.95885
7.77251
7.5574
7.36367
7.21495
7.08536
6.91168
6.70357
6.51821
6.38664
6.26855
6.12893
5.96605
5.78752
5.64431
5.527
5.41354
5.29755
5.17326
5.03755
4.9118
4.81726
4.73775
4.66165
4.58423
4.49927
4.40225
4.32042
4.27053
4.23288
4.19906
4.16242
4.11358
4.05743
4.02977
4.02016
4.01755
4.00825
3.98757
3.97371
3.97494
3.97441
3.96394
3.94161
3.93091
3.93439
3.94876
3.957
3.95044
3.93084
3.91654
3.91642
3.92478
3.94745
3.96262
3.96915
3.97356
3.98028
3.99326
4.01368
4.04775
4.09266
4.12352
4.13715
4.1408
4.13999
4.14454
4.15288
4.16455
4.16431
4.15368
4.1346
4.10904
4.08999
4.07735
4.06512
4.05096
4.03494
4.01493
3.98792
3.95873
3.93604
3.91932
3.90404
3.88772
3.86932
3.84656
3.82013
3.78236
9.26241
9.09401
8.92263
8.74242
8.5561
8.37475
8.20734
8.03763
7.84071
7.63708
7.45893
7.32059
7.17607
6.98369
6.77391
6.60507
6.47551
6.35096
6.20363
6.03094
5.85869
5.72426
5.60234
5.48185
5.35759
5.2229
5.08224
4.96184
4.8654
4.77871
4.69436
4.60522
4.50501
4.40091
4.32099
4.26589
4.21866
4.17455
4.12763
4.06617
4.0084
3.98184
3.96951
3.95979
3.94083
3.91759
3.90954
3.9147
3.92282
3.91716
3.89597
3.87981
3.88508
3.90494
3.92509
3.92808
3.91907
3.90518
3.90816
3.92027
3.94677
3.97437
3.98846
3.99887
4.01148
4.0287
4.05103
4.08367
4.12788
4.16024
4.17074
4.17204
4.17405
4.1779
4.18282
4.18707
4.1829
4.17002
4.15032
4.13209
4.1179
4.10478
4.0913
4.07644
4.05791
4.03257
4.00365
3.97913
3.95923
3.94166
3.92597
3.91063
3.89094
3.8617
3.83214
3.79585
9.32531
9.15734
8.98248
8.8015
8.62016
8.4458
8.27743
8.09799
7.90248
7.71186
7.54641
7.40748
7.24044
7.03698
6.84195
6.68409
6.55513
6.41739
6.25604
6.07127
5.91673
5.78886
5.66375
5.53737
5.40318
5.25679
5.11565
4.99985
4.90007
4.80589
4.71229
4.61239
4.50477
4.40381
4.32431
4.25972
4.20162
4.14622
4.08591
4.01474
3.96528
3.94075
3.92623
3.9068
3.8755
3.84498
3.83741
3.8461
3.86485
3.86757
3.85538
3.83589
3.83711
3.85517
3.88453
3.90077
3.90363
3.89676
3.90303
3.9193
3.94569
3.98157
4.00808
4.0266
4.04877
4.07115
4.0941
4.12499
4.16436
4.19066
4.19959
4.20466
4.21003
4.2136
4.2166
4.21238
4.20071
4.1825
4.16805
4.15788
4.14746
4.1352
4.12113
4.10204
4.07544
4.04653
4.0225
4.00439
3.98839
3.97188
3.95229
3.92857
3.90052
3.86879
3.84426
3.80993
9.37229
9.20723
9.03579
8.86102
8.68695
8.51567
8.34115
8.15554
7.96529
7.78673
7.63127
7.47355
7.28376
7.07857
6.8986
6.75693
6.62626
6.46841
6.28558
6.10751
5.97006
5.84195
5.71194
5.5781
5.43364
5.28273
5.14735
5.03282
4.92816
4.82661
4.7233
4.61498
4.50639
4.41017
4.33056
4.26077
4.19431
4.1265
4.05183
3.97856
3.93756
3.91279
3.89176
3.86359
3.82453
3.78689
3.77676
3.78366
3.80438
3.81453
3.81307
3.7984
3.79317
3.80836
3.83845
3.86943
3.88237
3.88594
3.89651
3.91726
3.9443
3.98052
4.01894
4.04984
4.07992
4.11144
4.13876
4.16427
4.19293
4.20973
4.21817
4.22717
4.23758
4.24398
4.24122
4.23129
4.21281
4.19745
4.1888
4.18144
4.16979
4.15513
4.13627
4.11069
4.08138
4.05827
4.04048
4.02338
4.00471
3.98291
3.95662
3.9251
3.89245
3.86493
3.8456
3.81209
9.41262
9.24796
9.07901
8.90801
8.73674
8.5638
8.38361
8.19623
8.01277
7.84544
7.69013
7.50648
7.29828
7.11072
6.96052
6.8349
6.68199
6.5039
6.31366
6.15548
6.02026
5.88789
5.75144
5.60944
5.45804
5.30999
5.18097
5.06617
4.95653
4.84737
4.73454
4.61833
4.50863
4.41689
4.33916
4.26675
4.19472
4.11712
4.03123
3.96001
3.92064
3.89212
3.86552
3.83501
3.79419
3.75076
3.73525
3.73627
3.75368
3.76926
3.77414
3.76916
3.762
3.77439
3.80088
3.83563
3.86103
3.87706
3.89716
3.92135
3.94739
3.98141
4.02126
4.05807
4.09708
4.13731
4.17342
4.19827
4.20881
4.21824
4.22902
4.23949
4.25299
4.25907
4.2541
4.23863
4.21931
4.20799
4.19865
4.18931
4.17623
4.15923
4.13447
4.10462
4.08128
4.0635
4.04598
4.02775
4.00692
3.97959
3.9436
3.90887
3.8832
3.86229
3.84485
3.81067
9.44749
9.28444
9.11808
8.9496
8.77929
8.60509
8.42561
8.24484
8.0698
7.90345
7.73358
7.54402
7.35235
7.17924
7.02983
6.88496
6.71532
6.5275
6.35022
6.20281
6.06884
5.93133
5.78901
5.63643
5.47908
5.33885
5.2169
5.10164
4.98736
4.87067
4.74875
4.62591
4.51682
4.42866
4.35172
4.27741
4.20099
4.11547
4.01875
3.94897
3.90904
3.8778
3.84796
3.8163
3.77326
3.72645
3.7073
3.70595
3.7181
3.72896
3.73584
3.74284
3.74745
3.75479
3.77739
3.81011
3.84159
3.86852
3.89811
3.92963
3.9604
3.99165
4.02553
4.0696
4.11564
4.15205
4.18517
4.2181
4.2343
4.24093
4.24434
4.24849
4.25486
4.25902
4.25213
4.2364
4.22093
4.21107
4.20068
4.18796
4.17261
4.15236
4.12414
4.09809
4.08023
4.06302
4.04485
4.02506
4.00103
3.96894
3.93142
3.90203
3.88132
3.86231
3.84522
3.8106
9.47445
9.31393
9.15004
8.98319
8.81336
8.63942
8.46261
8.28666
8.11496
7.94475
7.76442
7.57548
7.39357
7.22857
7.08209
6.92093
6.73861
6.55074
6.38892
6.25213
6.11815
5.976
5.82322
5.65621
5.49955
5.36961
5.25153
5.13711
5.02264
4.9006
4.76485
4.6337
4.52847
4.44301
4.36645
4.29253
4.21271
4.1186
4.0225
3.95025
3.89778
3.85718
3.82151
3.78757
3.75323
3.71498
3.68717
3.6782
3.68357
3.68697
3.69273
3.70969
3.7251
3.74485
3.77147
3.79903
3.82898
3.86205
3.89815
3.94008
3.98631
4.03074
4.07199
4.10851
4.1365
4.1625
4.19607
4.23012
4.24365
4.24827
4.24829
4.25043
4.25188
4.25398
4.24842
4.23811
4.22471
4.21157
4.19819
4.18321
4.1662
4.14545
4.12023
4.09681
4.07842
4.06056
4.04171
4.02098
3.99511
3.9625
3.92952
3.90347
3.88305
3.86374
3.84649
3.81171
9.49539
9.3364
9.17416
9.0084
8.83916
8.66662
8.49276
8.3199
8.14803
7.97196
7.78876
7.60597
7.4317
7.27265
7.11952
6.94224
6.75454
6.57836
6.4263
6.28798
6.14662
6.00061
5.84232
5.67637
5.52999
5.4036
5.28453
5.16711
5.04493
4.9129
4.7772
4.65281
4.54811
4.45728
4.37392
4.29134
4.20286
4.10936
4.02281
3.95176
3.89246
3.84275
3.80162
3.76142
3.71809
3.68433
3.66637
3.65525
3.64998
3.64648
3.6506
3.66805
3.69654
3.72744
3.75918
3.78916
3.8205
3.8567
3.8983
3.94869
4.00529
4.05686
4.10279
4.13594
4.16105
4.18587
4.21487
4.2466
4.26047
4.26489
4.26311
4.26044
4.25978
4.25974
4.25382
4.24307
4.22846
4.21236
4.19693
4.18102
4.1633
4.14271
4.11951
4.09755
4.07983
4.06299
4.04327
4.01884
3.99062
3.96061
3.93204
3.90886
3.88936
3.87167
3.8545
3.81641
9.5128
9.35429
9.19212
9.02662
8.85789
8.68679
8.51468
8.34247
8.16855
7.99051
7.81003
7.63207
7.46216
7.30324
7.13495
6.95131
6.7713
6.6065
6.4583
6.31381
6.16596
6.01139
5.8497
5.6988
5.56377
5.43488
5.30766
5.17926
5.04686
4.91143
4.78461
4.67384
4.5729
4.47489
4.37765
4.28182
4.18663
4.09742
4.02297
3.9587
3.89532
3.83165
3.77637
3.72435
3.68142
3.65923
3.64556
3.6329
3.62102
3.60985
3.61106
3.62653
3.65877
3.69921
3.7372
3.77225
3.80824
3.84887
3.89485
3.94871
4.0104
4.06942
4.11757
4.14909
4.1754
4.20201
4.2323
4.26299
4.27647
4.28167
4.27983
4.27518
4.27256
4.27036
4.26421
4.25336
4.23833
4.22006
4.20232
4.18512
4.1667
4.14697
4.12743
4.10757
4.08659
4.06566
4.0432
4.01817
3.99116
3.9665
3.94681
3.9266
3.90358
3.87808
3.85589
3.81726
9.52608
9.36795
9.20592
9.04049
8.87193
8.70125
8.52903
8.35527
8.17933
8.0018
7.82517
7.6517
7.48305
7.31302
7.13338
6.95312
6.78472
6.63149
6.48283
6.32779
6.16907
6.00787
5.85623
5.71658
5.58354
5.45208
5.31805
5.17886
5.0388
4.90827
4.79239
4.68781
4.5876
4.48641
4.37909
4.26738
4.16639
4.08539
4.01865
3.95857
3.89937
3.8363
3.76139
3.69155
3.65687
3.63653
3.62562
3.61463
3.60343
3.58706
3.58366
3.5969
3.62572
3.66781
3.71069
3.75055
3.79187
3.83733
3.88739
3.94575
4.0115
4.07118
4.11251
4.14484
4.17459
4.20509
4.2409
4.27482
4.28825
4.29367
4.29161
4.28764
4.28435
4.28234
4.27682
4.26664
4.25105
4.22926
4.20926
4.19235
4.17572
4.15931
4.14243
4.1225
4.09689
4.0687
4.04366
4.02187
4.00373
3.98749
3.96903
3.94709
3.91991
3.88798
3.86205
3.82489
9.53336
9.3757
9.21387
9.04858
8.88039
8.70995
8.5373
8.36226
8.18563
8.00956
7.83614
7.66542
7.49276
7.31357
7.1329
6.95932
6.79982
6.65522
6.495
6.33133
6.16508
6.00489
5.86155
5.72605
5.59355
5.46078
5.32184
5.17392
5.02853
4.90295
4.7956
4.69607
4.59762
4.49283
4.37446
4.24983
4.14588
4.07131
4.01143
3.95774
3.90289
3.83319
3.74026
3.66984
3.64022
3.6213
3.61214
3.60009
3.58755
3.5669
3.55988
3.5724
3.60154
3.64622
3.69203
3.73426
3.7781
3.82545
3.87827
3.93799
4.00655
4.07433
4.12284
4.1564
4.18577
4.21586
4.25212
4.28593
4.2984
4.30248
4.2996
4.29464
4.29158
4.28929
4.28314
4.27304
4.25621
4.23176
4.2123
4.19694
4.18142
4.16505
4.14691
4.12475
4.09739
4.06861
4.04352
4.02413
4.00692
3.98936
3.9699
3.94705
3.91923
3.88666
3.8601
3.82142
)
;

boundaryField
{
    inlet
    {
        type            fixedValue;
        value           uniform 1;
    }
    outlet
    {
        type            zeroGradient;
    }
    bottom
    {
        type            symmetryPlane;
    }
    top
    {
        type            symmetryPlane;
    }
    obstacle
    {
        type            zeroGradient;
    }
    defaultFaces
    {
        type            empty;
    }
}


// ************************************************************************* //
