/*--------------------------------*- C++ -*----------------------------------*\
  =========                 |
  \\      /  F ield         | OpenFOAM: The Open Source CFD Toolbox
   \\    /   O peration     | Website:  https://openfoam.org
    \\  /    A nd           | Version:  7
     \\/     M anipulation  |
\*---------------------------------------------------------------------------*/
FoamFile
{
    version     2.0;
    format      ascii;
    class       volScalarField;
    location    "19";
    object      rho;
}
// * * * * * * * * * * * * * * * * * * * * * * * * * * * * * * * * * * * * * //

dimensions      [1 -3 0 0 0 0 0];

internalField   nonuniform List<scalar> 
4032
(
1.40001
1.40001
1.40001
1.40001
1.40001
1.40001
1.40001
1.40001
1.40001
1.40001
1.40001
2.51493
5.14986
5.46009
5.51406
5.58484
5.64742
5.70618
5.76019
5.80942
5.85336
5.88909
5.91708
5.9377
1.40001
1.40001
1.40001
1.40001
1.40001
1.40001
1.40001
1.40001
1.40001
1.40001
1.40001
2.45922
5.10175
5.45368
5.50994
5.57975
5.64046
5.69687
5.74832
5.79477
5.83616
5.86963
5.89576
5.91564
1.40001
1.40001
1.40001
1.40001
1.40001
1.40001
1.40001
1.40001
1.40001
1.40001
1.40001
2.33829
5.03607
5.44874
5.50122
5.56955
5.62831
5.68241
5.73093
5.77371
5.81115
5.84132
5.86429
5.88369
1.40001
1.40001
1.40001
1.40001
1.40001
1.40001
1.40001
1.40001
1.40001
1.40001
1.40001
2.16001
4.93302
5.45027
5.49226
5.55667
5.61134
5.66174
5.70661
5.74553
5.77836
5.80296
5.81815
5.83044
1.40001
1.40001
1.40001
1.40001
1.40001
1.40001
1.40001
1.40001
1.40001
1.40001
1.40001
1.93474
4.77429
5.4695
5.48863
5.54346
5.5904
5.63496
5.6728
5.70249
5.72375
5.74001
5.74916
5.76671
1.40001
1.40001
1.40001
1.40001
1.40001
1.40001
1.40001
1.40001
1.40001
1.40001
1.40001
1.70041
4.5568
5.46926
5.46794
5.52119
5.56244
5.59983
5.62917
5.65063
5.66453
5.67659
5.67893
5.6675
1.40001
1.40001
1.40001
1.40001
1.40001
1.40001
1.40001
1.40001
1.40001
1.40001
1.40001
1.45956
4.24438
5.45089
5.44351
5.48769
5.51819
5.54892
5.56875
5.57673
5.5706
5.54615
5.51362
5.50064
1.40001
1.40001
1.40001
1.40001
1.40001
1.40001
1.40001
1.40001
1.40001
1.40001
1.40001
1.40137
3.77594
5.29423
5.3547
5.41564
5.45427
5.47766
5.4859
5.47995
5.45434
5.40948
5.33139
5.28205
1.40001
1.40001
1.40001
1.40001
1.40001
1.40001
1.40001
1.40001
1.40001
1.40001
1.40001
1.4
3.23239
5.15689
5.30625
5.35577
5.38733
5.39871
5.39472
5.37237
5.31374
5.20043
4.88008
3.91487
1.40001
1.40001
1.40001
1.40001
1.40001
1.40001
1.40001
1.40001
1.40001
1.40001
1.40001
1.4
2.65987
4.99497
5.27307
5.31002
5.32758
5.3287
5.30701
5.26157
5.16703
4.97436
4.63551
3.71258
1.40001
1.40001
1.40001
1.40001
1.40001
1.40001
1.40001
1.40001
1.40001
1.40001
1.40001
1.4
2.03455
4.77349
5.3164
5.29475
5.28649
5.26444
5.21905
5.14537
5.02802
4.80287
4.46418
3.65114
1.40001
1.40001
1.40001
1.40001
1.40001
1.40001
1.40001
1.40001
1.40001
1.40001
1.40001
1.40001
1.50404
4.30025
5.35111
5.27696
5.23921
5.19725
5.13786
5.04539
4.9084
4.6829
4.33353
3.70143
1.40001
1.40001
1.40001
1.40001
1.40001
1.40001
1.40001
1.40001
1.40001
1.40001
1.40001
1.40001
1.40118
3.53037
5.15397
5.21883
5.1945
5.1448
5.07493
4.97019
4.81942
4.60007
4.26254
3.7845
1.40001
1.40001
1.40001
1.40001
1.40001
1.40001
1.40001
1.40001
1.40001
1.40001
1.40001
1.40001
1.39998
2.63255
4.94652
5.21228
5.18412
5.13426
5.05211
4.93185
4.77015
4.55397
4.24852
3.88606
1.40001
1.40001
1.40001
1.40001
1.40001
1.40001
1.40001
1.40001
1.40001
1.40001
1.40001
1.40001
1.4
1.79147
4.6906
5.27999
5.19331
5.11987
5.02801
4.91076
4.74944
4.54283
4.27861
4.01494
1.40001
1.40001
1.40001
1.40001
1.40001
1.40001
1.40001
1.40001
1.40001
1.40001
1.40001
1.40001
1.4
1.42794
3.92812
5.12425
5.138
5.10041
5.0276
4.91305
4.75913
4.57247
4.35676
4.15337
1.40001
1.40001
1.40001
1.40001
1.40001
1.40001
1.40001
1.40001
1.40001
1.40001
1.40001
1.40001
1.4
1.3999
2.90445
4.95932
5.1502
5.11553
5.0453
4.93919
4.80289
4.64019
4.4631
4.29144
1.40001
1.40001
1.40001
1.40001
1.40001
1.40001
1.40001
1.40001
1.40001
1.40001
1.40001
1.40001
1.40001
1.39998
1.92564
4.76644
5.23387
5.14992
5.06894
4.96813
4.8494
4.7125
4.56735
4.41668
1.40001
1.40001
1.40001
1.40001
1.40001
1.40001
1.40001
1.40001
1.40001
1.40001
1.40001
1.40001
1.40001
1.4
1.44885
4.05627
5.16147
5.13965
5.08004
5.00981
4.91052
4.79525
4.67154
4.53773
1.40001
1.40001
1.40001
1.40001
1.40001
1.40001
1.40001
1.40001
1.40001
1.40001
1.40001
1.40001
1.40001
1.4
1.40007
3.0729
5.01993
5.18566
5.13687
5.0703
4.97613
4.87447
4.76383
4.64251
1.40001
1.40001
1.40001
1.40001
1.40001
1.40001
1.40001
1.40001
1.40001
1.40001
1.40001
1.40001
1.40001
1.40001
1.4
2.10776
4.90184
5.36055
5.22364
5.13257
5.04194
4.95047
4.84669
4.73411
1.40001
1.40001
1.40001
1.40001
1.40001
1.40001
1.40001
1.40001
1.40001
1.40001
1.40001
1.40001
1.40001
1.40001
1.4
1.4924
4.41062
5.35943
5.23337
5.16728
5.09606
5.01631
4.92044
4.81776
1.40001
1.40001
1.40001
1.40001
1.40001
1.40001
1.40001
1.40001
1.40001
1.40001
1.40001
1.40001
1.40001
1.40001
1.4
1.40078
3.66545
5.27771
5.24293
5.20294
5.14038
5.06626
4.97775
4.88532
1.40001
1.40001
1.40001
1.40001
1.40001
1.40001
1.40001
1.40001
1.40001
1.40001
1.40001
1.40001
1.40001
1.40001
1.40001
1.4
2.95462
5.15659
5.31378
5.24713
5.17718
5.10269
5.02154
4.94003
1.40001
1.40001
1.40001
1.40001
1.40001
1.40001
1.40001
1.40001
1.40001
1.40001
1.40001
1.40001
1.40001
1.40001
1.40001
1.4
2.33028
4.97144
5.3663
5.25881
5.19367
5.12443
5.05306
4.98204
1.40001
1.40001
1.40001
1.40001
1.40001
1.40001
1.40001
1.40001
1.40001
1.40001
1.40001
1.40001
1.40001
1.40001
1.40001
1.4
1.80633
4.75556
5.45518
5.3039
5.23592
5.16532
5.09566
5.02628
1.40001
1.40001
1.40001
1.40001
1.40001
1.40001
1.40001
1.40001
1.40001
1.40001
1.40001
1.40001
1.40001
1.40001
1.40001
1.40001
1.46836
4.41695
5.45186
5.29979
5.23523
5.17149
5.10879
5.04427
1.40001
1.40001
1.40001
1.40001
1.40001
1.40001
1.40001
1.40001
1.40001
1.40001
1.40001
1.40001
1.40001
1.40001
1.40001
1.40001
1.40135
3.97896
5.39034
5.27852
5.22665
5.17158
5.11424
5.05305
1.40001
1.40001
1.40001
1.40001
1.40001
1.40001
1.40001
1.40001
1.40001
1.40001
1.40001
1.40001
1.40001
1.40001
1.40001
1.40001
1.40001
3.57089
5.3028
5.27434
5.22025
5.1697
5.11388
5.05452
1.40001
1.40001
1.40001
1.40001
1.40001
1.40001
1.40001
1.40001
1.40001
1.40001
1.40001
1.40001
1.40001
1.40001
1.40001
1.40001
1.40001
3.21516
5.21489
5.2902
5.2241
5.17613
5.11925
5.05959
1.40001
1.40001
1.40001
1.40001
1.40001
1.40001
1.40001
1.40001
1.40001
1.40001
1.40001
1.40001
1.40001
1.40001
1.40001
1.40001
1.40001
2.89584
5.15517
5.31901
5.24111
5.19452
5.13586
5.07566
1.40001
1.40001
1.40001
1.40001
1.40001
1.40001
1.40001
1.40001
1.40001
1.40001
1.40001
1.40001
1.40001
1.40001
1.40001
1.40001
1.40001
2.58872
5.09922
5.36602
5.27533
5.22661
5.16572
5.10422
1.40001
1.40001
1.40001
1.40001
1.40001
1.40001
1.40001
1.40001
1.40001
1.40001
1.40001
1.40001
1.40001
1.40001
1.40001
1.40001
1.40001
2.32228
5.01339
5.41115
5.30714
5.2532
5.19107
5.13005
1.40001
1.40001
1.40001
1.40001
1.40001
1.40001
1.40001
1.40001
1.40001
1.40001
1.40001
1.40001
1.40001
1.40001
1.40001
1.40001
1.40001
2.11192
4.90489
5.44021
5.32989
5.27541
5.21411
5.15326
1.40001
1.40001
1.40001
1.40001
1.40001
1.40001
1.40001
1.40001
1.40001
1.40001
1.40001
1.40001
1.40001
1.40001
1.40001
1.40001
1.40001
1.93973
4.80786
5.45101
5.33913
5.28684
5.22738
5.16792
1.40001
1.40001
1.40001
1.40001
1.40001
1.40001
1.40001
1.40001
1.40001
1.40001
1.40001
1.40001
1.40001
1.40001
1.40001
1.40001
1.40001
1.81191
4.7169
5.44928
5.33766
5.28655
5.229
5.17159
1.40001
1.40001
1.40001
1.40001
1.40001
1.40001
1.40001
1.40001
1.40001
1.40001
1.40001
1.40001
1.40001
1.40001
1.40001
1.40001
1.40001
1.73387
4.63181
5.44105
5.33342
5.28337
5.22644
5.16975
1.40001
1.40001
1.40001
1.40001
1.40001
1.40001
1.40001
1.40001
1.40001
1.40001
1.40001
1.40001
1.40001
1.40001
1.40001
1.40001
1.40001
1.6868
4.56765
5.43031
5.3289
5.28033
5.22416
5.16803
1.40001
1.40001
1.40001
1.40001
1.40001
1.40001
1.40001
1.40001
1.40001
1.40001
1.40001
1.40001
1.40001
1.40001
1.40001
1.40001
1.40001
1.65561
4.52569
5.42394
5.32832
5.28057
5.22472
5.1687
1.40001
1.40001
1.40001
1.40001
1.40001
1.40001
1.40001
1.40001
1.40001
1.40001
1.40001
1.40001
1.40001
1.40001
1.40001
1.40001
1.40001
1.6415
4.50221
5.41628
5.32592
5.28043
5.2255
5.17
1.48666
1.54451
1.76612
1.97712
2.07225
2.08815
2.08335
2.08589
2.09755
2.11469
2.13805
2.16483
2.19121
2.21867
2.24338
2.26298
2.27893
2.29488
2.31458
2.33649
2.35711
2.37393
2.38824
2.40203
2.41796
2.43787
2.46204
2.4887
2.51543
2.54008
2.56156
2.57987
2.5957
2.60892
2.61821
2.62302
2.62566
2.62793
2.63085
2.63472
2.63851
2.64078
2.64099
2.63918
2.63593
2.63127
2.62459
2.61529
2.60304
2.58787
2.57105
2.55456
2.53974
2.52662
2.51412
2.50083
2.48635
2.47165
2.45814
2.44593
2.4337
2.41944
2.40232
2.38375
2.3657
2.34955
2.33551
2.32273
2.3097
2.29575
2.28153
2.26828
2.2569
2.24737
2.23811
2.22769
2.21693
2.20767
2.20109
2.19803
2.19849
2.20259
2.20751
2.2135
2.22188
2.23339
2.2482
2.26557
2.28375
2.30122
2.31723
2.33231
2.34864
2.36615
2.37874
2.38858
2.23431
2.20887
2.10238
2.07176
2.09677
2.0851
2.07967
2.09422
2.11705
2.14426
2.17799
2.20231
2.21125
2.21972
2.22666
2.24
2.25632
2.27224
2.28868
2.30741
2.32978
2.35295
2.37573
2.39652
2.41522
2.43395
2.45537
2.48046
2.50782
2.53404
2.55614
2.57363
2.588
2.60125
2.61439
2.62641
2.63554
2.64126
2.64447
2.64699
2.65019
2.65396
2.65678
2.65647
2.65128
2.64169
2.63102
2.62149
2.61279
2.60243
2.58822
2.5712
2.55419
2.53927
2.52709
2.51656
2.50529
2.49177
2.47662
2.4614
2.4468
2.43258
2.41753
2.40089
2.38361
2.367
2.35184
2.33836
2.32583
2.31305
2.29965
2.28644
2.2744
2.26402
2.2549
2.24556
2.23561
2.22627
2.21905
2.21453
2.21274
2.21407
2.21591
2.21963
2.22663
2.23762
2.25285
2.27123
2.2903
2.3063
2.31926
2.33124
2.34433
2.36034
2.37852
2.39409
2.6986
2.63344
2.35344
2.19158
2.18594
2.17037
2.16873
2.18654
2.20668
2.21008
2.21139
2.21878
2.21849
2.21449
2.21232
2.2252
2.25423
2.28987
2.32117
2.3436
2.36352
2.38792
2.41773
2.45033
2.48013
2.50477
2.52582
2.54748
2.57264
2.60043
2.6276
2.65057
2.66692
2.67783
2.68717
2.69834
2.71072
2.72192
2.72926
2.73194
2.73227
2.73275
2.73471
2.73697
2.73625
2.72784
2.71272
2.69628
2.68143
2.6691
2.65703
2.64129
2.62248
2.60344
2.58604
2.57149
2.55972
2.54803
2.53377
2.51704
2.49923
2.48138
2.46408
2.44686
2.4293
2.41215
2.39569
2.38017
2.36581
2.35251
2.33962
2.32671
2.31407
2.30237
2.29204
2.28286
2.27452
2.26758
2.26268
2.26051
2.26121
2.26409
2.26661
2.26951
2.27515
2.28383
2.29573
2.31096
2.32916
2.34856
2.36396
2.37358
2.3809
2.38845
2.3979
2.41961
3.01311
3.01059
2.76896
2.54282
2.52625
2.46565
2.37646
2.33655
2.32847
2.3133
2.2796
2.2694
2.28603
2.30137
2.31037
2.3206
2.33912
2.37176
2.41335
2.44916
2.47233
2.49026
2.51115
2.53898
2.57249
2.60594
2.63532
2.65975
2.68227
2.70656
2.73393
2.76209
2.78617
2.80279
2.81348
2.82205
2.83144
2.84235
2.85217
2.8568
2.85581
2.85172
2.84755
2.84542
2.84486
2.84092
2.82728
2.80892
2.78995
2.774
2.76141
2.74742
2.72941
2.70969
2.68988
2.67196
2.65712
2.64313
2.62623
2.60818
2.58934
2.57007
2.55083
2.53187
2.51313
2.49469
2.47686
2.46015
2.44481
2.43023
2.41593
2.40165
2.38767
2.37446
2.36272
2.35194
2.34185
2.33229
2.32387
2.31969
2.31911
2.32167
2.32693
2.33168
2.33785
2.34594
2.35567
2.36742
2.38213
2.40025
2.4206
2.4376
2.44713
2.45232
2.45646
2.46979
3.33675
3.3208
3.14049
2.91098
2.82741
2.74443
2.61784
2.54247
2.5404
2.54215
2.51286
2.47274
2.47222
2.49254
2.5016
2.5009
2.50497
2.51901
2.54925
2.58637
2.61458
2.63723
2.65907
2.68406
2.7161
2.75294
2.78783
2.81555
2.83615
2.85418
2.87367
2.89595
2.91903
2.93821
2.95125
2.96
2.96649
2.97246
2.97845
2.98521
2.98947
2.98884
2.98252
2.97428
2.96615
2.95652
2.94377
2.93032
2.91441
2.89574
2.87638
2.85656
2.83662
2.8187
2.80307
2.7874
2.77018
2.7511
2.73011
2.70891
2.68895
2.66998
2.65123
2.63149
2.61034
2.58903
2.56923
2.55182
2.53631
2.52171
2.50716
2.4924
2.47759
2.46314
2.45039
2.43953
2.43011
2.42186
2.4145
2.40767
2.40461
2.40556
2.41059
2.41811
2.42504
2.43305
2.44194
2.45163
2.46267
2.4756
2.49132
2.50943
2.52478
2.53351
2.53772
2.54774
3.60382
3.57225
3.40725
3.19945
3.08952
3.0127
2.90058
2.79456
2.76878
2.77538
2.75912
2.7183
2.70279
2.72011
2.7316
2.72476
2.71278
2.71552
2.73735
2.77343
2.79877
2.81199
2.82477
2.84249
2.86823
2.90141
2.93158
2.95497
2.97281
2.98774
3.00404
3.02649
3.05337
3.07381
3.08481
3.09056
3.09357
3.09669
3.10274
3.11374
3.11931
3.11365
3.1012
3.08705
3.07586
3.06765
3.05846
3.0448
3.02617
3.0038
2.98036
2.95948
2.94167
2.92543
2.90838
2.88946
2.86836
2.84519
2.82225
2.80144
2.78185
2.76248
2.7422
2.72014
2.69603
2.67181
2.65061
2.63328
2.61843
2.60424
2.58929
2.57213
2.55394
2.53714
2.52354
2.5137
2.50678
2.50137
2.49611
2.48912
2.48363
2.48315
2.48749
2.49553
2.50717
2.5204
2.53023
2.53615
2.54272
2.55048
2.56045
2.57554
2.59564
2.61215
2.61921
2.62766
3.82119
3.76054
3.60069
3.40173
3.29957
3.25229
3.17701
3.07085
2.99568
2.97649
2.95113
2.89907
2.86419
2.87013
2.88197
2.8743
2.86143
2.86639
2.88536
2.91648
2.92988
2.92979
2.93227
2.94597
2.97055
3.00137
3.01932
3.03017
3.04079
3.05162
3.06641
3.08998
3.11454
3.12391
3.1267
3.12737
3.12988
3.13673
3.1482
3.15294
3.14738
3.13595
3.12283
3.11384
3.10848
3.09923
3.08468
3.0654
3.0451
3.02771
3.01275
2.99778
2.98019
2.96021
2.93965
2.92043
2.90178
2.88328
2.86503
2.84682
2.82762
2.80638
2.78361
2.76104
2.73926
2.71976
2.70335
2.68791
2.67252
2.657
2.64074
2.62392
2.60781
2.59357
2.58199
2.57381
2.56885
2.56525
2.56083
2.55414
2.54844
2.54836
2.55385
2.56412
2.57852
2.59157
2.59874
2.60232
2.6067
2.61213
2.62033
2.6339
2.65215
2.67107
2.68017
2.68761
3.99192
3.90364
3.74439
3.55885
3.45816
3.42825
3.37795
3.28921
3.21402
3.18468
3.15118
3.09156
3.03222
3.01034
3.00708
2.99151
2.96875
2.95927
2.96825
2.98858
2.99628
2.99341
2.99149
2.99885
3.01573
3.03449
3.04221
3.04792
3.05488
3.06475
3.0793
3.09972
3.11171
3.11555
3.11685
3.11917
3.1245
3.1348
3.14187
3.13829
3.12846
3.11855
3.11195
3.10895
3.1036
3.09057
3.07164
3.05018
3.03401
3.02172
3.01034
2.99561
2.97695
2.95507
2.93451
2.91759
2.90198
2.88604
2.8689
2.84983
2.82839
2.80601
2.78552
2.76696
2.74974
2.73342
2.71729
2.70069
2.68496
2.67037
2.6565
2.64354
2.63134
2.6207
2.6112
2.6033
2.59896
2.59671
2.59511
2.59351
2.59487
2.60005
2.6084
2.61813
2.62517
2.63048
2.63733
2.64515
2.651
2.6566
2.66346
2.67123
2.67966
2.69024
2.70286
2.71641
4.1461
4.03785
3.87758
3.70237
3.6015
3.57161
3.52344
3.4389
3.37424
3.349
3.31558
3.25683
3.19109
3.15625
3.14185
3.11969
3.08494
3.05495
3.04767
3.05365
3.05591
3.04919
3.0417
3.04204
3.04905
3.0583
3.06201
3.06476
3.06924
3.07735
3.09015
3.10729
3.11512
3.11743
3.11926
3.12406
3.1328
3.14189
3.14186
3.13421
3.12366
3.11715
3.11543
3.11566
3.10658
3.09014
3.06671
3.04754
3.0354
3.02708
3.01566
2.9988
2.97771
2.95526
2.93791
2.92389
2.90953
2.89329
2.87524
2.85396
2.82947
2.80766
2.79147
2.77632
2.76127
2.74551
2.7283
2.70969
2.69252
2.67916
2.66832
2.659
2.65088
2.64289
2.63278
2.62316
2.61828
2.61632
2.61847
2.62521
2.63504
2.64523
2.65122
2.65192
2.65044
2.65355
2.66173
2.67416
2.68371
2.68681
2.68749
2.68616
2.68824
2.69394
2.70681
2.72921
4.28417
4.1689
4.01136
3.84696
3.74917
3.7103
3.65049
3.56269
3.50227
3.47342
3.43363
3.36999
3.3042
3.27188
3.25581
3.22988
3.18841
3.14216
3.1217
3.11946
3.11617
3.10412
3.08714
3.07806
3.07758
3.08025
3.08052
3.08104
3.08267
3.08723
3.09651
3.11108
3.11902
3.12075
3.1232
3.13028
3.14266
3.15013
3.14676
3.13659
3.12885
3.12696
3.13135
3.13007
3.11781
3.09766
3.0754
3.06242
3.05564
3.04887
3.03341
3.01244
2.98748
2.96856
2.95583
2.94459
2.93034
2.91227
2.89079
2.86445
2.8393
2.82341
2.81109
2.79778
2.78291
2.76636
2.7471
2.72638
2.70971
2.69783
2.68912
2.6826
2.6777
2.6718
2.66131
2.65031
2.64531
2.64533
2.65108
2.663
2.67733
2.68593
2.686
2.67985
2.67709
2.67962
2.68665
2.69983
2.70757
2.70646
2.70139
2.69634
2.69667
2.7013
2.71334
2.73266
4.41419
4.29759
4.14604
3.9922
3.89973
3.8505
3.7763
3.68341
3.6235
3.58691
3.53542
3.46185
3.39412
3.36382
3.34623
3.3152
3.2665
3.21048
3.1843
3.17662
3.16846
3.1507
3.12452
3.10651
3.10066
3.0994
3.09562
3.09258
3.09122
3.09179
3.09611
3.10715
3.11589
3.1181
3.12131
3.12949
3.14186
3.14996
3.14849
3.13971
3.13315
3.1343
3.14038
3.13671
3.12307
3.10256
3.08751
3.08094
3.0783
3.06685
3.04793
3.02258
3.00063
2.98736
2.97679
2.96427
2.94927
2.92969
2.90399
2.87871
2.86132
2.84818
2.835
2.8216
2.8067
2.78925
2.76995
2.75243
2.73907
2.72771
2.71969
2.71431
2.70902
2.70224
2.69314
2.68715
2.68644
2.68969
2.69728
2.70589
2.71272
2.7167
2.71568
2.71233
2.7117
2.71214
2.71371
2.71612
2.71699
2.7143
2.7099
2.70792
2.70793
2.71096
2.71775
2.72925
4.52968
4.42081
4.2818
4.14265
4.05505
3.99461
3.90683
3.80917
3.74797
3.70331
3.6404
3.5554
3.48454
3.45355
3.43103
3.39298
3.33557
3.27346
3.24494
3.232
3.21604
3.19194
3.15758
3.13321
3.12354
3.11941
3.11146
3.10431
3.09714
3.09394
3.09424
3.09975
3.10828
3.11108
3.11255
3.11885
3.12865
3.13736
3.13897
3.13307
3.12589
3.12657
3.13024
3.12527
3.11225
3.09528
3.08586
3.08334
3.07806
3.06424
3.04404
3.01943
3.00339
2.99297
2.98174
2.96724
2.95006
2.92751
2.90308
2.88855
2.87628
2.86292
2.8477
2.83025
2.81106
2.79535
2.78343
2.77384
2.7645
2.75408
2.74309
2.73223
2.72535
2.72169
2.72106
2.72413
2.72865
2.73339
2.73662
2.7364
2.73454
2.73599
2.74109
2.74386
2.74239
2.73847
2.73204
2.72433
2.7195
2.71851
2.71858
2.7178
2.71743
2.71711
2.7176
2.72128
4.63228
4.53033
4.40034
4.2761
4.19721
4.13268
4.03876
3.94149
3.87905
3.82669
3.7531
3.65796
3.5858
3.55235
3.52186
3.47488
3.40713
3.3411
3.31068
3.2921
3.26842
3.23593
3.19233
3.16396
3.15095
3.14316
3.1318
3.11997
3.10528
3.09619
3.09269
3.09409
3.09913
3.10103
3.09925
3.10016
3.10583
3.11314
3.11601
3.11167
3.10417
3.10425
3.10764
3.10304
3.08969
3.07366
3.06754
3.06582
3.05904
3.04496
3.02482
3.00265
2.99111
2.98205
2.96971
2.95384
2.93326
2.90846
2.89317
2.8831
2.87257
2.85962
2.84373
2.82265
2.80232
2.79218
2.78448
2.77877
2.77262
2.76561
2.75564
2.74244
2.73472
2.73354
2.73795
2.7475
2.7581
2.76352
2.76299
2.75646
2.75167
2.75324
2.75969
2.76471
2.76239
2.75542
2.74285
2.73098
2.72571
2.7234
2.72474
2.72515
2.72339
2.72043
2.71451
2.71147
4.7245
4.62684
4.50477
4.39468
4.32384
4.25464
4.15597
4.06324
4.00332
3.94809
3.86875
3.76877
3.6969
3.65943
3.62043
3.56427
3.48716
3.4225
3.39017
3.36407
3.3312
3.2879
3.23491
3.20543
3.19048
3.17809
3.16154
3.14282
3.11907
3.10404
3.09597
3.0939
3.09512
3.09386
3.08833
3.0827
3.0833
3.0887
3.09151
3.08632
3.07756
3.07634
3.07916
3.07597
3.06354
3.04818
3.04307
3.04127
3.03295
3.01737
2.99599
2.97986
2.97215
2.96456
2.95224
2.93476
2.90965
2.8841
2.87306
2.86666
2.85952
2.84811
2.83326
2.81116
2.79142
2.7831
2.77765
2.77468
2.77099
2.7666
2.76004
2.74953
2.74497
2.74713
2.75454
2.76656
2.77808
2.78414
2.78174
2.77437
2.7717
2.77195
2.77525
2.77896
2.77583
2.76662
2.75199
2.74115
2.73652
2.73387
2.7347
2.73336
2.72979
2.7234
2.71248
2.70813
4.80024
4.70763
4.59533
4.49896
4.43345
4.35865
4.25824
4.1723
4.11723
4.06022
3.97634
3.87425
3.80502
3.76447
3.71906
3.65577
3.57401
3.51306
3.4768
3.44252
3.40088
3.34617
3.28644
3.25632
3.23818
3.21964
3.19711
3.16852
3.13419
3.11496
3.10308
3.09681
3.09464
3.08989
3.07915
3.06566
3.0626
3.06582
3.06734
3.06124
3.05131
3.04893
3.05228
3.05157
3.04131
3.02439
3.01805
3.01501
3.00571
2.98935
2.96873
2.95565
2.94947
2.94332
2.93154
2.91266
2.88768
2.86601
2.85352
2.84693
2.84039
2.83033
2.81794
2.80138
2.78498
2.77743
2.77313
2.77049
2.76933
2.76742
2.76318
2.75941
2.76156
2.76784
2.77734
2.78754
2.793
2.79365
2.7948
2.79545
2.7949
2.79338
2.79213
2.79157
2.78696
2.7774
2.765
2.75754
2.75339
2.75056
2.74856
2.74385
2.73731
2.72712
2.71694
2.71157
4.86242
4.77415
4.67174
4.58442
4.52102
4.44325
4.34233
4.26455
4.21306
4.15116
4.06086
3.96119
3.89788
3.85659
3.80671
3.7388
3.65638
3.59774
3.55636
3.51514
3.46632
3.40402
3.34176
3.30802
3.28299
3.2586
3.23095
3.19328
3.1492
3.12732
3.11382
3.10366
3.09396
3.08177
3.06196
3.04525
3.0406
3.0421
3.04212
3.03476
3.02328
3.0193
3.02313
3.02505
3.01727
3.00164
2.99423
2.99069
2.98175
2.96658
2.94861
2.93808
2.92988
2.92014
2.90815
2.89165
2.87051
2.85407
2.84429
2.83557
2.82644
2.81706
2.80559
2.79438
2.7881
2.78238
2.7768
2.77417
2.77318
2.77234
2.77175
2.77696
2.78635
2.79603
2.80422
2.80847
2.8084
2.80906
2.81406
2.82006
2.82048
2.8178
2.81118
2.80204
2.79595
2.79052
2.7845
2.77951
2.7748
2.76931
2.76304
2.75452
2.74318
2.73225
2.72757
2.72115
4.91033
4.82683
4.73554
4.65717
4.59434
4.51219
4.41472
4.33966
4.28699
4.22259
4.12932
4.03426
3.97517
3.93288
3.87849
3.80464
3.72134
3.66381
3.6186
3.57413
3.52265
3.45551
3.39051
3.35153
3.32013
3.28959
3.25562
3.21215
3.16367
3.13235
3.11237
3.0958
3.08002
3.06226
3.03836
3.02011
3.01348
3.01366
3.01301
3.00504
2.99241
2.9871
2.99029
2.99367
2.98689
2.97222
2.96338
2.96272
2.9584
2.94866
2.9365
2.92398
2.91246
2.90021
2.88764
2.87629
2.86881
2.86143
2.85114
2.83663
2.82037
2.80867
2.80303
2.79971
2.7989
2.79634
2.79311
2.79005
2.78548
2.78288
2.78824
2.8016
2.81764
2.82705
2.83057
2.82852
2.82504
2.82821
2.83654
2.8447
2.84401
2.83842
2.82577
2.8139
2.80929
2.80758
2.80414
2.7977
2.79022
2.77957
2.76431
2.75116
2.74403
2.7386
2.73441
2.72509
4.95362
4.87213
4.78858
4.71677
4.65094
4.56413
4.47247
4.40185
4.34916
4.27915
4.18322
4.09559
4.03918
3.98988
3.9256
3.84466
3.76725
3.71406
3.66489
3.61287
3.55386
3.48619
3.42496
3.37987
3.33986
3.2991
3.2557
3.2103
3.17021
3.13627
3.11084
3.08875
3.06551
3.03699
3.00592
2.98785
2.9798
2.97827
2.97623
2.96716
2.95322
2.94671
2.94911
2.9531
2.94709
2.93287
2.9238
2.92575
2.92566
2.91876
2.91025
2.89916
2.88687
2.87452
2.86357
2.85648
2.8516
2.8462
2.83858
2.82856
2.81392
2.80135
2.79707
2.79559
2.79845
2.8016
2.8016
2.80036
2.79552
2.79586
2.80397
2.81817
2.83551
2.84524
2.8465
2.84215
2.84007
2.84181
2.84722
2.85402
2.85168
2.84332
2.82745
2.81318
2.80748
2.80488
2.80389
2.79829
2.78951
2.77687
2.75825
2.74355
2.73664
2.73183
2.72801
2.71775
4.97506
4.89952
4.82451
4.758
4.6881
4.60175
4.51768
4.45225
4.39838
4.32128
4.2242
4.14376
4.08947
4.03482
3.96315
3.87502
3.80488
3.75605
3.7035
3.64478
3.57736
3.50452
3.44665
3.3997
3.35551
3.31052
3.26116
3.20762
3.16109
3.12849
3.10184
3.07706
3.04894
3.01363
2.97841
2.96018
2.95091
2.94535
2.93817
2.92553
2.90858
2.90173
2.90376
2.90813
2.90361
2.89034
2.87928
2.88122
2.88137
2.87741
2.87278
2.86322
2.85205
2.84224
2.83365
2.82786
2.8253
2.82278
2.81843
2.8121
2.80141
2.79011
2.78683
2.78654
2.79045
2.79844
2.80403
2.80582
2.80464
2.80785
2.81573
2.82737
2.84417
2.85589
2.85744
2.85278
2.84739
2.84509
2.84549
2.85001
2.8483
2.83977
2.82481
2.81064
2.80357
2.7982
2.79394
2.78789
2.77925
2.7653
2.74673
2.7349
2.7278
2.7212
2.71543
2.70308
4.98705
4.91721
4.84919
4.78471
4.71168
4.62886
4.55204
4.49149
4.43288
4.34928
4.25544
4.18236
4.12932
4.06985
3.99192
3.90256
3.83817
3.78798
3.73177
3.66713
3.59269
3.51921
3.46294
3.41519
3.36814
3.31963
3.26668
3.20825
3.15809
3.12282
3.09222
3.06284
3.03322
3.00026
2.96228
2.93875
2.92583
2.915
2.90303
2.88644
2.86595
2.85794
2.85912
2.86275
2.85944
2.84759
2.83553
2.83634
2.83461
2.83201
2.82748
2.81814
2.81182
2.8079
2.80344
2.79648
2.7902
2.78764
2.78581
2.78427
2.78137
2.77719
2.7748
2.77531
2.77815
2.78598
2.79651
2.80313
2.80931
2.81745
2.82598
2.83487
2.84451
2.85561
2.86109
2.85958
2.85449
2.8483
2.84401
2.84243
2.83908
2.83
2.8174
2.80683
2.79928
2.79188
2.78423
2.77501
2.76297
2.74783
2.73495
2.72618
2.71866
2.71057
2.70263
2.68677
4.99105
4.92555
4.86159
4.79643
4.72284
4.64536
4.57524
4.51741
4.45174
4.36461
4.2781
4.21178
4.16001
4.0946
4.01154
3.92588
3.86616
3.81521
3.75594
3.68674
3.60739
3.53748
3.48395
3.43476
3.38478
3.3312
3.27081
3.20926
3.16313
3.12754
3.0941
3.06069
3.02556
2.98496
2.94463
2.92031
2.90423
2.88991
2.87474
2.85491
2.83099
2.82011
2.81842
2.81959
2.81642
2.80579
2.79554
2.79513
2.79273
2.78876
2.78089
2.77483
2.7739
2.77545
2.77512
2.76909
2.75875
2.75378
2.75268
2.75454
2.75985
2.76224
2.76364
2.76386
2.7666
2.77365
2.78461
2.79814
2.81342
2.82664
2.83493
2.84026
2.84413
2.84946
2.85629
2.8603
2.85793
2.85177
2.84281
2.83384
2.82632
2.81837
2.80985
2.80212
2.79438
2.78539
2.77441
2.76151
2.74836
2.73699
2.72797
2.71961
2.71112
2.70152
2.69084
2.67218
4.99647
4.9325
4.86895
4.80213
4.72997
4.65782
4.59282
4.53314
4.46008
4.3741
4.29583
4.23547
4.18257
4.11035
4.02241
3.94323
3.88665
3.83547
3.7744
3.70244
3.62277
3.55825
3.50492
3.45294
3.39944
3.34173
3.27824
3.21885
3.17377
3.13556
3.09882
3.06132
3.02005
2.97271
2.9324
2.90741
2.88838
2.87149
2.8532
2.8286
2.80055
2.78672
2.78167
2.78011
2.77523
2.76477
2.75785
2.75848
2.75822
2.75296
2.74199
2.73704
2.73897
2.74647
2.75066
2.74741
2.73796
2.73121
2.73129
2.73566
2.74698
2.75492
2.75866
2.76117
2.76488
2.77165
2.78187
2.79859
2.82088
2.83641
2.8433
2.84517
2.84492
2.84739
2.85163
2.8574
2.85729
2.85215
2.84298
2.83046
2.82087
2.81435
2.80807
2.80096
2.79304
2.78309
2.76951
2.75468
2.74302
2.73435
2.72649
2.7182
2.70883
2.69722
2.68367
2.66461
5.0127
4.94888
4.88403
4.81562
4.74449
4.67487
4.61033
4.54436
4.46668
4.38534
4.31358
4.25774
4.19905
4.11961
4.03173
3.96045
3.90548
3.85232
3.78882
3.71356
3.63765
3.57795
3.52341
3.46909
3.41268
3.35107
3.28612
3.22998
3.18467
3.14374
3.10372
3.06121
3.01315
2.96298
2.92405
2.89694
2.87377
2.85219
2.82908
2.79851
2.76974
2.75634
2.75007
2.74514
2.73567
2.72395
2.7198
2.72233
2.72632
2.72351
2.71292
2.70485
2.70753
2.7178
2.72815
2.72974
2.72547
2.71879
2.72047
2.72688
2.74009
2.75366
2.76069
2.76597
2.77245
2.78123
2.79244
2.80876
2.83072
2.84672
2.85191
2.85256
2.85353
2.85529
2.85758
2.85968
2.8577
2.85153
2.84191
2.83287
2.82574
2.81911
2.81239
2.80508
2.79602
2.78356
2.76914
2.75673
2.74656
2.73761
2.72965
2.72193
2.71218
2.69755
2.68259
2.66428
5.04004
4.9746
4.90641
4.83567
4.76465
4.69615
4.62985
4.55885
4.48094
4.40443
4.33753
4.2812
4.21313
4.12947
4.04838
3.98218
3.9279
3.86961
3.80063
3.72047
3.65293
3.59676
3.54137
3.48496
3.42461
3.35819
3.29359
3.24016
3.19377
3.14971
3.10575
3.05853
3.00728
2.95893
2.92073
2.8895
2.86123
2.83407
2.80441
2.76949
2.74508
2.73284
2.72556
2.71592
2.70039
2.68496
2.68102
2.68527
2.69444
2.69572
2.68948
2.67959
2.68015
2.68906
2.70373
2.71218
2.71371
2.71035
2.71357
2.72195
2.73532
2.75297
2.76593
2.77518
2.78634
2.79762
2.80907
2.82423
2.84339
2.85618
2.86055
2.86304
2.86555
2.86695
2.86818
2.86603
2.86024
2.85137
2.84428
2.83925
2.83404
2.82788
2.8209
2.81167
2.79874
2.78448
2.77253
2.76347
2.75538
2.74708
2.73743
2.72576
2.71177
2.69577
2.68337
2.6659
5.06682
5.00179
4.93388
4.86444
4.79521
4.72693
4.65716
4.58274
4.50625
4.43417
4.3711
4.30672
4.2287
4.14392
4.06905
4.00976
3.95483
3.88785
3.80935
3.73222
3.67251
3.61644
3.55903
3.49943
3.43459
3.36632
3.30466
3.25211
3.20371
3.15641
3.10804
3.05704
3.0055
2.95953
2.92144
2.88796
2.85578
2.8227
2.78614
2.75014
2.72991
2.71764
2.70722
2.69328
2.67381
2.65477
2.64955
2.65295
2.6632
2.66815
2.66733
2.65987
2.65718
2.66462
2.67948
2.69482
2.70125
2.70306
2.7083
2.7186
2.73217
2.75028
2.76931
2.78454
2.79931
2.81479
2.82818
2.84053
2.8543
2.86229
2.86626
2.87051
2.87531
2.87813
2.87667
2.8716
2.86234
2.85468
2.85036
2.84666
2.84089
2.83373
2.82456
2.81208
2.7977
2.78631
2.77757
2.76917
2.75996
2.7492
2.73619
2.72047
2.70402
2.69014
2.68048
2.66337
5.0901
5.0249
4.95799
4.89015
4.82194
4.75282
4.68049
4.60494
4.53068
4.46274
4.39954
4.32436
4.23828
4.15995
4.09706
4.04441
3.97979
3.90369
3.82173
3.7534
3.69461
3.63652
3.57617
3.51291
3.44497
3.37808
3.31937
3.26674
3.21611
3.16536
3.11257
3.05788
3.00591
2.96218
2.92487
2.89
2.85523
2.81741
2.77531
2.7403
2.72086
2.70673
2.69353
2.67838
2.65801
2.63616
2.62826
2.62875
2.63745
2.64521
2.6476
2.64505
2.64141
2.64754
2.66062
2.67779
2.69036
2.69828
2.70816
2.72001
2.73282
2.74979
2.76961
2.78762
2.80653
2.82604
2.8435
2.85536
2.86029
2.86469
2.86975
2.87457
2.88076
2.88355
2.881
2.87311
2.86336
2.85761
2.85291
2.84824
2.8418
2.83352
2.82142
2.80666
2.79509
2.78638
2.77786
2.769
2.75884
2.74535
2.72727
2.70974
2.69678
2.68629
2.67759
2.66024
5.10611
5.04237
4.97701
4.91048
4.84288
4.77344
4.70153
4.62866
4.55769
4.48995
4.42057
4.3428
4.26346
4.19115
4.12855
4.0675
3.99541
3.91504
3.8388
3.77505
3.71659
3.65609
3.59304
3.52506
3.45452
3.39118
3.33567
3.28286
3.23015
3.17595
3.11889
3.06108
3.00943
2.96741
2.93049
2.89457
2.85755
2.81603
2.7687
2.73429
2.71463
2.69912
2.68419
2.66834
2.64684
2.62345
2.61382
2.61312
2.61918
2.62462
2.62808
2.63159
2.63387
2.6375
2.64872
2.66499
2.68062
2.69394
2.70853
2.72403
2.73918
2.75463
2.77127
2.79276
2.81511
2.83266
2.84848
2.86418
2.87172
2.87468
2.87614
2.87787
2.88054
2.88243
2.87895
2.87085
2.86291
2.85792
2.85276
2.84644
2.83882
2.82881
2.81485
2.80194
2.79309
2.78465
2.77577
2.7661
2.7543
2.73833
2.71957
2.70476
2.69426
2.68468
2.67609
2.65861
5.11181
5.05016
4.98667
4.92158
4.85488
4.78608
4.71561
4.64497
4.57559
4.50644
4.43285
4.35523
4.27991
4.21122
4.14991
4.08195
4.00457
3.92432
3.85466
3.79536
3.73696
3.67463
3.6071
3.53278
3.46254
3.40381
3.35009
3.29776
3.24506
3.18856
3.12522
3.06351
3.01363
2.97285
2.93614
2.90068
2.86225
2.81657
2.76956
2.73395
2.70804
2.68795
2.67012
2.65309
2.63589
2.6168
2.60292
2.59836
2.60103
2.60275
2.60569
2.61427
2.62205
2.63195
2.64527
2.65901
2.6739
2.69029
2.70808
2.72885
2.75169
2.7735
2.7936
2.81136
2.82491
2.83737
2.85342
2.86966
2.87588
2.87769
2.87736
2.87801
2.8783
2.87913
2.8763
2.87093
2.86408
2.85755
2.8509
2.8434
2.83489
2.82462
2.8122
2.80056
2.7914
2.78252
2.77322
2.76302
2.75024
2.73409
2.71761
2.70444
2.69408
2.68431
2.67558
2.65813
5.11093
5.05046
4.9883
4.92431
4.85845
4.79073
4.72194
4.65306
4.58409
4.513
4.43854
4.36365
4.29174
4.22562
4.16163
4.08733
4.00797
3.93274
3.86728
3.80738
3.74593
3.68224
3.61266
3.539
3.47341
3.41637
3.36231
3.3087
3.25276
3.1919
3.12876
3.07034
3.02082
2.97768
2.93798
2.89857
2.85593
2.81037
2.76804
2.73326
2.7039
2.67928
2.65893
2.63888
2.61716
2.60023
2.59123
2.58564
2.58302
2.58129
2.58339
2.59226
2.60671
2.62232
2.63827
2.65324
2.66884
2.68684
2.70749
2.7324
2.76026
2.78545
2.8078
2.82394
2.83618
2.84814
2.86195
2.87703