/*--------------------------------*- C++ -*----------------------------------*\
  =========                 |
  \\      /  F ield         | OpenFOAM: The Open Source CFD Toolbox
   \\    /   O peration     | Website:  https://openfoam.org
    \\  /    A nd           | Version:  7
     \\/     M anipulation  |
\*---------------------------------------------------------------------------*/
FoamFile
{
    version     2.0;
    format      ascii;
    class       volScalarField;
    location    "19";
    object      T;
}
// * * * * * * * * * * * * * * * * * * * * * * * * * * * * * * * * * * * * * //

dimensions      [0 0 0 1 0 0 0];

internalField   nonuniform List<scalar> 
4032
(
1
1
1
1
1
1
1
1
1
1
1
1.74893
2.63837
2.71777
2.73006
2.74457
2.7568
2.76801
2.77824
2.78769
2.79641
2.80383
2.80968
2.81375
1
1
1
1
1
1
1
1
1
1
1
1.72668
2.62936
2.71646
2.72885
2.7431
2.75504
2.76588
2.77571
2.78468
2.79296
2.8
2.80556
2.80954
1
1
1
1
1
1
1
1
1
1
1
1.66504
2.60887
2.71135
2.72446
2.73917
2.75121
2.76201
2.77159
2.78011
2.78781
2.79441
2.7996
2.80363
1
1
1
1
1
1
1
1
1
1
1
1.56135
2.56859
2.70052
2.71591
2.73223
2.74483
2.75584
2.76541
2.77373
2.78096
2.78678
2.7907
2.79341
1
1
1
1
1
1
1
1
1
1
1
1.42309
2.51105
2.68927
2.70493
2.72292
2.73591
2.74708
2.75635
2.76384
2.76956
2.77386
2.776
2.77897
1
1
1
1
1
1
1
1
1
1
1
1.2456
2.42852
2.67828
2.69133
2.71092
2.72386
2.73493
2.74401
2.75144
2.75688
2.76022
2.7579
2.75047
1
1
1
1
1
1
1
1
1
1
1
1.04212
2.33399
2.67982
2.68231
2.69571
2.70685
2.71789
2.72701
2.73358
2.73586
2.73279
2.72278
2.71216
1
1
1
1
1
1
1
1
1
1
1
1.0007
2.21258
2.66166
2.66657
2.67745
2.68782
2.69709
2.70493
2.70927
2.70795
2.70393
2.69926
2.71266
1
1
1
1
1
1
1
1
1
1
1
1
2.03179
2.63424
2.65988
2.66753
2.67329
2.67808
2.68159
2.681
2.67415
2.65722
2.61378
2.52857
1
1
1
1
1
1
1
1
1
1
1
1
1.78072
2.55985
2.64076
2.65485
2.66034
2.66248
2.65992
2.65372
2.63864
2.60518
2.5524
2.41189
1
1
1
1
1
1
1
1
1
1
1
1
1.41821
2.41988
2.61532
2.63605
2.64487
2.64425
2.63879
2.62692
2.60599
2.564
2.50133
2.33007
1
1
1
1
1
1
1
1
1
1
1
1
1.05208
2.27559
2.60215
2.60704
2.61754
2.6201
2.61581
2.60261
2.57813
2.53449
2.463
2.32203
1
1
1
1
1
1
1
1
1
1
1
1
1.00057
2.08928
2.5567
2.57658
2.58807
2.59217
2.58953
2.57822
2.55416
2.51278
2.44174
2.33153
1
1
1
1
1
1
1
1
1
1
1
1
0.999995
1.72956
2.47618
2.5512
2.56419
2.56832
2.56532
2.55452
2.53228
2.49438
2.43093
2.34946
1
1
1
1
1
1
1
1
1
1
1
1
0.999999
1.23356
2.33799
2.55034
2.54335
2.54307
2.53908
2.52951
2.50937
2.47607
2.4268
2.37264
1
1
1
1
1
1
1
1
1
1
1
1
1
1.01379
2.18357
2.52359
2.52319
2.52126
2.51679
2.50628
2.48806
2.46204
2.42776
2.39158
1
1
1
1
1
1
1
1
1
1
1
1
1
1.00001
1.83509
2.47135
2.51598
2.51188
2.50463
2.49263
2.47614
2.4547
2.42952
2.4029
1
1
1
1
1
1
1
1
1
1
1
1
1
0.999996
1.31159
2.34967
2.51888
2.50711
2.49714
2.48382
2.46798
2.44954
2.42976
2.40771
1
1
1
1
1
1
1
1
1
1
1
1
1
0.999999
1.02384
2.20932
2.51166
2.50587
2.49433
2.48428
2.46957
2.45222
2.43337
2.41315
1
1
1
1
1
1
1
1
1
1
1
1
1
1
1.00007
1.90466
2.48615
2.51055
2.50066
2.48888
2.47331
2.45697
2.43897
2.41921
1
1
1
1
1
1
1
1
1
1
1
1
1
1
1
1.42723
2.40128
2.53557
2.51119
2.49575
2.48003
2.46426
2.44621
2.42655
1
1
1
1
1
1
1
1
1
1
1
1
1
1
1
1.04597
2.29529
2.55111
2.52391
2.5075
2.49146
2.47505
2.45635
2.43689
1
1
1
1
1
1
1
1
1
1
1
1
1
1
1
1.00038
2.13045
2.56429
2.54816
2.53074
2.51106
2.49144
2.47078
2.45072
1
1
1
1
1
1
1
1
1
1
1
1
1
1
1
0.999998
1.89585
2.56842
2.57565
2.55696
2.53481
2.51233
2.49009
2.46933
1
1
1
1
1
1
1
1
1
1
1
1
1
1
1
0.999999
1.6064
2.51683
2.59137
2.56773
2.54953
2.52981
2.50959
2.4899
1
1
1
1
1
1
1
1
1
1
1
1
1
1
1
1
1.28322
2.42125
2.61334
2.58399
2.56801
2.55014
2.53156
2.51265
1
1
1
1
1
1
1
1
1
1
1
1
1
1
1
1
1.05103
2.34897
2.63264
2.60073
2.58415
2.56734
2.55027
2.53258
1
1
1
1
1
1
1
1
1
1
1
1
1
1
1
1
1.00084
2.25159
2.64515
2.6195
2.60357
2.58739
2.57083
2.55365
1
1
1
1
1
1
1
1
1
1
1
1
1
1
1
1
1
2.14
2.64951
2.63968
2.62358
2.60807
2.59181
2.57502
1
1
1
1
1
1
1
1
1
1
1
1
1
1
1
1
1
2.01557
2.63654
2.64949
2.63438
2.62207
2.60759
2.59221
1
1
1
1
1
1
1
1
1
1
1
1
1
1
1
1
1
1.8825
2.60456
2.65085
2.63533
2.62587
2.6136
2.6007
1
1
1
1
1
1
1
1
1
1
1
1
1
1
1
1
1
1.74565
2.56757
2.6503
2.63358
2.62524
2.61424
2.6028
1
1
1
1
1
1
1
1
1
1
1
1
1
1
1
1
1
1.6214
2.53767
2.64999
2.63089
2.62268
2.61227
2.60142
1
1
1
1
1
1
1
1
1
1
1
1
1
1
1
1
1
1.51701
2.51519
2.65323
2.63199
2.62251
2.61155
2.60055
1
1
1
1
1
1
1
1
1
1
1
1
1
1
1
1
1
1.4169
2.49201
2.65943
2.63682
2.62594
2.61406
2.60242
1
1
1
1
1
1
1
1
1
1
1
1
1
1
1
1
1
1.33448
2.46896
2.66568
2.64319
2.63206
2.61966
2.60741
1
1
1
1
1
1
1
1
1
1
1
1
1
1
1
1
1
1.28358
2.45133
2.67065
2.64902
2.63822
2.62593
2.61367
1
1
1
1
1
1
1
1
1
1
1
1
1
1
1
1
1
1.2503
2.43676
2.67322
2.65295
2.64271
2.63085
2.6189
1
1
1
1
1
1
1
1
1
1
1
1
1
1
1
1
1
1.22571
2.42458
2.67413
2.65506
2.64522
2.63367
2.62201
1
1
1
1
1
1
1
1
1
1
1
1
1
1
1
1
1
1.21566
2.41923
2.67344
2.65523
2.64586
2.63456
2.6231
1.84716
2.03875
2.3146
2.45841
2.51081
2.52366
2.52655
2.53139
2.53975
2.55035
2.56376
2.57791
2.58993
2.60118
2.61191
2.61968
2.62614
2.63222
2.63878
2.64529
2.65043
2.6532
2.65441
2.65513
2.6565
2.65918
2.66319
2.66768
2.67166
2.67441
2.6757
2.67563
2.67434
2.67137
2.66669
2.66048
2.65328
2.64584
2.63876
2.63232
2.62632
2.62036
2.61412
2.60688
2.59942
2.59191
2.58408
2.5754
2.56541
2.55405
2.54198
2.53018
2.51923
2.50915
2.4995
2.4897
2.47961
2.46959
2.46011
2.45119
2.44232
2.43273
2.42208
2.41088
2.39986
2.38959
2.38021
2.37149
2.36287
2.35413
2.34546
2.33728
2.32994
2.32349
2.31734
2.31098
2.30471
2.29915
2.29476
2.29149
2.29015
2.2899
2.29029
2.2913
2.29311
2.29608
2.30058
2.30625
2.31192
2.31681
2.32101
2.32511
2.32981
2.33463
2.33774
2.33884
2.109
2.24161
2.37895
2.45605
2.49729
2.50287
2.51098
2.5252
2.54003
2.55578
2.57356
2.58713
2.59261
2.59607
2.59895
2.60345
2.60792
2.61276
2.61704
2.62134
2.62695
2.63291
2.6379
2.64095
2.64245
2.64348
2.64505
2.64756
2.6504
2.65231
2.65249
2.65081
2.64729
2.64308
2.63882
2.63423
2.62865
2.62186
2.61427
2.60672
2.59994
2.59407
2.58851
2.58191
2.57355
2.56428
2.55501
2.54632
2.53801
2.52909
2.51876
2.50747
2.49634
2.48618
2.47726
2.46918
2.46096
2.452
2.44246
2.43292
2.42368
2.41469
2.40546
2.39562
2.38547
2.37554
2.36623
2.35774
2.34985
2.34207
2.33414
2.32634
2.31908
2.31264
2.30697
2.30147
2.29587
2.29056
2.28616
2.28273
2.2809
2.27958
2.27913
2.27966
2.28116
2.284
2.2886
2.29458
2.30067
2.30523
2.3085
2.31131
2.31446
2.31862
2.32411
2.32765
2.13601
2.19952
2.22816
2.30364
2.38924
2.44418
2.48322
2.51573
2.53767
2.54654
2.5512
2.55818
2.56068
2.55952
2.55691
2.56038
2.56888
2.57972
2.58777
2.59083
2.59224
2.59501
2.59938
2.60369
2.60565
2.60498
2.60207
2.59889
2.59687
2.5957
2.5943
2.59122
2.58556
2.57808
2.57039
2.56364
2.5578
2.55199
2.54523
2.53732
2.52914
2.52186
2.51595
2.51069
2.50451
2.49598
2.48608
2.47621
2.46724
2.45944
2.45186
2.44298
2.43314
2.42341
2.41449
2.40679
2.40019
2.3936
2.38603
2.3776
2.36886
2.36023
2.35189
2.34353
2.33491
2.3263
2.31797
2.31015
2.30298
2.29633
2.28983
2.28326
2.27681
2.27092
2.26587
2.26149
2.25752
2.25406
2.25143
2.24977
2.2495
2.24997
2.25034
2.25102
2.2526
2.25495
2.25833
2.26303
2.26891
2.27522
2.27976
2.28177
2.28284
2.28407
2.28626
2.29231
2.17339
2.21583
2.18302
2.20484
2.27502
2.33819
2.37752
2.41346
2.44493
2.46242
2.46312
2.46762
2.48102
2.48904
2.4905
2.49172
2.49427
2.4995
2.50667
2.51067
2.50921
2.50342
2.49759
2.49474
2.49357
2.49181
2.48795
2.48224
2.47636
2.47152
2.46783
2.46458
2.46048
2.45458
2.44741
2.44036
2.43423
2.42889
2.42349
2.41721
2.41008
2.40288
2.39653
2.39125
2.38641
2.38055
2.37291
2.36517
2.35778
2.35139
2.34594
2.33994
2.33277
2.32541
2.31833
2.31198
2.3066
2.30137
2.29502
2.28834
2.28155
2.27477
2.26802
2.26126
2.25441
2.2475
2.24075
2.23446
2.22876
2.22336
2.21803
2.21264
2.20732
2.20238
2.19817
2.19447
2.19109
2.18784
2.18495
2.18342
2.18329
2.18429
2.18639
2.18833
2.19064
2.19337
2.19652
2.20034
2.20513
2.21097
2.21742
2.22266
2.22536
2.22658
2.22747
2.23082
2.23053
2.2467
2.21063
2.1795
2.19395
2.21785
2.23128
2.25636
2.29141
2.32962
2.3442
2.34724
2.35556
2.37091
2.37414
2.37187
2.36824
2.36569
2.36603
2.36824
2.36788
2.36375
2.35737
2.3528
2.35108
2.35046
2.34905
2.34532
2.33994
2.3348
2.33062
2.32747
2.32502
2.32217
2.31829
2.31392
2.3096
2.30547
2.30151
2.29801
2.2947
2.29082
2.28592
2.28117
2.27615
2.2705
2.26479
2.26017
2.25559
2.25025
2.24434
2.23808
2.23195
2.22682
2.22264
2.21849
2.21376
2.20833
2.20224
2.19616
2.19061
2.18543
2.18031
2.17478
2.16871
2.1625
2.15675
2.15172
2.14724
2.14301
2.13881
2.13461
2.13042
2.12633
2.12278
2.11985
2.11741
2.11535
2.11352
2.11189
2.11172
2.11226
2.11461
2.11787
2.1206
2.12353
2.12671
2.13013
2.13382
2.13784
2.14261
2.14826
2.15323
2.15625
2.15793
2.1613
2.28191
2.28334
2.24937
2.19825
2.18873
2.18763
2.17735
2.17802
2.18866
2.21299
2.22909
2.23085
2.23322
2.24737
2.25577
2.25395
2.24738
2.24424
2.24512
2.24885
2.24974
2.24676
2.24204
2.23862
2.23796
2.23965
2.24086
2.24012
2.2376
2.23509
2.23382
2.23419
2.23621
2.23719
2.23634
2.23392
2.23106
2.22865
2.22793
2.22858
2.22833
2.22385
2.21813
2.21303
2.20899
2.20586
2.20271
2.19855
2.193
2.18633
2.17941
2.17354
2.16895
2.165
2.16066
2.15551
2.14959
2.14307
2.13682
2.1314
2.12641
2.1215
2.11625
2.11029
2.10363
2.09699
2.09133
2.08686
2.08306
2.07934
2.07532
2.07069
2.06589
2.06162
2.05828
2.05596
2.05442
2.05324
2.05217
2.05098
2.05035
2.05044
2.05251
2.05575
2.05966
2.06385
2.0671
2.06927
2.07166
2.07417
2.077
2.08128
2.08731
2.09265
2.09554
2.09927
2.3291
2.31786
2.28239
2.23254
2.20631
2.20159
2.19125
2.17776
2.16961
2.17368
2.17536
2.17017
2.16465
2.16789
2.17395
2.173
2.16773
2.16739
2.17013
2.17516
2.1754
2.17132
2.16861
2.16837
2.16974
2.17429
2.17577
2.17538
2.17426
2.17329
2.17368
2.17701
2.18092
2.18117
2.18014
2.17814
2.17706
2.17731
2.17937
2.18003
2.1772
2.17212
2.16739
2.16441
2.16264
2.15989
2.15576
2.15031
2.14411
2.13854
2.13399
2.12991
2.12543
2.12026
2.11468
2.10922
2.10379
2.09846
2.09345
2.0887
2.08372
2.07802
2.07171
2.06527
2.05906
2.0537
2.04946
2.04552
2.04147
2.03716
2.03245
2.02761
2.02325
2.01979
2.01719
2.01544
2.0143
2.01318
2.01195
2.01061
2.00967
2.00999
2.0124
2.01587
2.02
2.02354
2.02554
2.02678
2.02847
2.03035
2.03267
2.0363
2.04135
2.04685
2.04993
2.05339
2.36077
2.34375
2.30831
2.26447
2.23702
2.22942
2.21857
2.19841
2.18432
2.18281
2.1794
2.16898
2.15491
2.14887
2.14863
2.14531
2.139
2.13474
2.13592
2.13904
2.13913
2.1352
2.13197
2.13235
2.13417
2.13703
2.13718
2.13722
2.13719
2.13718
2.13826
2.14214
2.14389
2.14371
2.14292
2.14242
2.14256
2.14435
2.14549
2.14359
2.13934
2.13581
2.13386
2.13287
2.13089
2.12666
2.12111
2.11514
2.11056
2.10693
2.10352
2.09937
2.09419
2.08807
2.08237
2.07762
2.07306
2.06836
2.06347
2.05818
2.05223
2.04602
2.04016
2.03465
2.02955
2.02494
2.02053
2.01598
2.01156
2.00728
2.00301
1.99903
1.99555
1.99285
1.99061
1.98885
1.98757
1.98648
1.98582
1.9856
1.98633
1.98857
1.99148
1.9942
1.99582
1.99693
1.99856
2.00079
2.0027
2.00446
2.00638
2.00837
2.01046
2.01316
2.01675
2.02149
2.37935
2.36113
2.32857
2.28995
2.26666
2.25948
2.24769
2.22643
2.21071
2.20543
2.19776
2.18281
2.16554
2.15674
2.15366
2.14869
2.14064
2.1328
2.12935
2.13011
2.12944
2.12489
2.11987
2.11868
2.11946
2.12049
2.11994
2.11917
2.11928
2.11966
2.1209
2.12406
2.12515
2.125
2.12465
2.12479
2.12572
2.12731
2.12676
2.12348
2.11953
2.11722
2.11653
2.11631
2.11307
2.10797
2.10156
2.09641
2.09294
2.09027
2.08666
2.0818
2.07593
2.06967
2.06479
2.06075
2.0565
2.05167
2.04637
2.04024
2.03334
2.0273
2.02264
2.01807
2.01351
2.00893
2.00403
1.99871
1.99378
1.98976
1.98625
1.98322
1.98086
1.97877
1.97612
1.97356
1.97178
1.97082
1.97133
1.97319
1.97631
1.97968
1.98129
1.9813
1.98065
1.98126
1.98305
1.9862
1.98891
1.98979
1.98994
1.98941
1.98986
1.99124
1.99472
2.00187
2.38812
2.37058
2.34174
2.30861
2.2896
2.28311
2.27043
2.24962
2.23492
2.22791
2.2175
2.19985
2.18122
2.17214
2.1678
2.16104
2.15023
2.13759
2.1316
2.13033
2.12833
2.12336
2.11681
2.1127
2.11174
2.11163
2.11034
2.10848
2.10775
2.10791
2.10881
2.11114
2.11193
2.11162
2.11141
2.11192
2.11371
2.11502
2.11363
2.1098
2.1068
2.10578
2.10652
2.10581
2.10174
2.09575
2.08964
2.08605
2.08403
2.08186
2.07732
2.0714
2.06438
2.05902
2.0553
2.05203
2.04797
2.04286
2.03665
2.02918
2.02216
2.01764
2.01396
2.00991
2.00542
2.00067
1.99525
1.98944
1.98471
1.98108
1.97808
1.97574
1.97427
1.97278
1.97008
1.96704
1.96539
1.96525
1.96659
1.96972
1.97386
1.97645
1.9765
1.9748
1.97395
1.97434
1.97566
1.97892
1.981
1.98054
1.97891
1.97747
1.97758
1.97899
1.9825
1.98857
2.39488
2.37727
2.35087
2.32197
2.30603
2.29891
2.28492
2.26493
2.2519
2.24409
2.23181
2.21273
2.1944
2.18608
2.1812
2.17263
2.15908
2.14317
2.13503
2.13183
2.12848
2.12236
2.114
2.10781
2.10501
2.10356
2.10127
2.09893
2.09672
2.09556
2.09579
2.09715
2.09788
2.0975
2.09746
2.0982
2.09986
2.10108
2.1003
2.097
2.09435
2.09426
2.0954
2.09407
2.08964
2.08367
2.07974
2.07803
2.07717
2.07376
2.06835
2.06133
2.05532
2.05162
2.04865
2.04513
2.0409
2.03535
2.02815
2.02099
2.01607
2.01228
2.00852
2.00473
2.00048
1.99529
1.98954
1.98456
1.9808
1.97753
1.97508
1.97335
1.97166
1.96961
1.96704
1.96558
1.96551
1.96648
1.96851
1.97083
1.97267
1.97392
1.97372
1.97298
1.97273
1.97253
1.97245
1.97264
1.97273
1.97172
1.97034
1.96993
1.97
1.97107
1.97321
1.9767
2.40145
2.38437
2.3603
2.33516
2.32076
2.31155
2.29538
2.27564
2.2636
2.25499
2.24132
2.22109
2.20344
2.1957
2.18992
2.17975
2.16408
2.14673
2.13801
2.13347
2.12799
2.12015
2.10968
2.10186
2.09791
2.09548
2.09203
2.08876
2.08529
2.08261
2.08153
2.08198
2.08276
2.08234
2.08177
2.08236
2.08343
2.08447
2.08452
2.08215
2.07935
2.0792
2.07979
2.07815
2.07403
2.0692
2.0669
2.06636
2.06487
2.06087
2.0552
2.04842
2.0441
2.04129
2.03827
2.03435
2.0296
2.02325
2.01652
2.01247
2.00905
2.00523
2.00091
1.9961
1.99086
1.98633
1.98281
1.97991
1.97711
1.97419
1.97124
1.96831
1.96626
1.96507
1.96496
1.96607
1.96767
1.96939
1.97046
1.97039
1.96973
1.97009
1.97162
1.9725
1.97207
1.97086
1.96873
1.9661
1.96436
1.96401
1.96415
1.96412
1.96423
1.96429
1.96444
1.96571
2.40931
2.39214
2.36887
2.34636
2.33334
2.32287
2.30541
2.28631
2.27453
2.26462
2.24919
2.22765
2.21082
2.20318
2.19595
2.18414
2.1665
2.14874
2.14005
2.13441
2.12727
2.11758
2.10486
2.09624
2.09165
2.08829
2.08391
2.07942
2.07416
2.07046
2.06804
2.06752
2.06784
2.06733
2.06551
2.06526
2.06581
2.06666
2.06693
2.06518
2.06244
2.06225
2.06293
2.0615
2.05751
2.05303
2.05139
2.05094
2.04916
2.04542
2.04003
2.03388
2.03046
2.02785
2.02452
2.0204
2.01497
2.00822
2.0039
2.00119
1.99829
1.99461
1.99014
1.98434
1.97872
1.97602
1.97405
1.9725
1.97079
1.969
1.96648
1.96287
1.96083
1.96061
1.96213
1.96533
1.96884
1.97072
1.97069
1.96885
1.9672
1.96739
1.969
1.97056
1.97002
1.9682
1.96462
1.96114
1.95951
1.95886
1.95939
1.95976
1.95966
1.95909
1.95736
1.95648
2.41973
2.40183
2.37886
2.35833
2.34602
2.33373
2.31472
2.29651
2.28521
2.27462
2.2581
2.23598
2.21981
2.21157
2.20267
2.18914
2.16985
2.15315
2.14459
2.1375
2.12846
2.11658
2.10189
2.09328
2.08868
2.0848
2.07945
2.07333
2.0659
2.06078
2.05781
2.0565
2.05619
2.05498
2.05247
2.0503
2.0502
2.05114
2.05162
2.04991
2.04713
2.04669
2.04732
2.04638
2.04287
2.0387
2.03746
2.03706
2.0349
2.03075
2.02501
2.02052
2.01826
2.0161
2.01286
2.0085
2.00205
1.99503
1.9918
1.98999
1.98806
1.98509
1.98125
1.97535
1.9699
1.9675
1.96599
1.96537
1.96471
1.9641
1.96294
1.96012
1.95854
1.95904
1.96111
1.96494
1.96882
1.9707
1.97003
1.96767
1.96658
1.96642
1.96722
1.9685
1.96784
1.96565
1.96171
1.95864
1.95745
1.95689
1.95745
1.95756
1.95728
1.95609
1.95331
1.95191
2.43298
2.41416
2.39163
2.37266
2.36021
2.34568
2.32555
2.30832
2.29764
2.28633
2.26866
2.2462
2.23082
2.22194
2.21169
2.19683
2.177
2.16189
2.1528
2.14407
2.13324
2.11888
2.10299
2.09463
2.08955
2.08446
2.07838
2.07066
2.06113
2.05532
2.05174
2.04992
2.04884
2.0467
2.04305
2.03938
2.03868
2.03961
2.04011
2.03852
2.0357
2.03496
2.03586
2.03572
2.03317
2.02883
2.02732
2.02661
2.02415
2.01981
2.01427
2.01065
2.00893
2.00731
2.00439
1.99999
1.99394
1.98805
1.98441
1.98237
1.98048
1.97814
1.97521
1.97061
1.96589
1.96383
1.9627
1.96202
1.96199
1.96191
1.96109
1.95971
1.96001
1.96131
1.96373
1.96686
1.96877
1.96898
1.96927
1.96914
1.96882
1.96827
1.96814
1.96819
1.96707
1.96458
1.96137
1.95956
1.95871
1.9583
1.95821
1.95763
1.95661
1.95439
1.95189
1.95077
2.45052
2.43036
2.40804
2.38937
2.37589
2.3595
2.33837
2.32219
2.31159
2.29856
2.27908
2.25708
2.24303
2.23389
2.22264
2.20696
2.18747
2.17335
2.16324
2.153
2.14075
2.12507
2.10923
2.10044
2.09376
2.08709
2.07978
2.07033
2.05956
2.05441
2.05092
2.04799
2.04505
2.04162
2.03639
2.03255
2.03196
2.03266
2.03296
2.03146
2.02845
2.02729
2.02845
2.02922
2.02754
2.02391
2.02212
2.02129
2.01908
2.01515
2.0103
2.00747
2.00537
2.00295
1.99997
1.99585
1.99036
1.98583
1.98309
1.98058
1.97809
1.97581
1.97283
1.96949
1.96745
1.96573
1.96424
1.96366
1.96351
1.96325
1.96285
1.964
1.9664
1.96892
1.97113
1.97231
1.97218
1.97234
1.97392
1.97577
1.97587
1.97505
1.97312
1.97052
1.9689
1.96764
1.96654
1.96584
1.96512
1.96421
1.96298
1.96098
1.95826
1.95564
1.95472
1.95375
2.47073
2.44985
2.42812
2.40968
2.3949
2.37638
2.35495
2.33844
2.32673
2.31241
2.29182
2.27064
2.25738
2.24788
2.23555
2.21857
2.19904
2.18541
2.17467
2.16404
2.15157
2.1351
2.11903
2.10938
2.10158
2.09387
2.08508
2.0739
2.0618
2.05456
2.05001
2.04604
2.0425
2.03874
2.03315
2.02917
2.02845
2.02891
2.02917
2.02788
2.02507
2.02378
2.02492
2.0263
2.02492
2.02164
2.01948
2.01948
2.01859
2.01629
2.01311
2.00977
2.00682
2.00374
2.00039
1.99688
1.99433
1.99222
1.98953
1.98578
1.98141
1.97782
1.97602
1.97518
1.97501
1.97411
1.97294
1.97201
1.97073
1.96991
1.9713
1.97476
1.9789
1.98145
1.98233
1.98165
1.98051
1.98147
1.98414
1.98658
1.98641
1.98491
1.98147
1.97822
1.9772
1.9772
1.97689
1.97567
1.97394
1.9712
1.96726
1.96397
1.96239
1.96138
1.96056
1.95875
2.49311
2.47202
2.45093
2.43274
2.41626
2.39575
2.37453
2.35798
2.34547
2.32934
2.30772
2.28781
2.27482
2.26348
2.24875
2.23009
2.21192
2.19943
2.18801
2.17595
2.16205
2.14569
2.13076
2.11991
2.11037
2.10064
2.09007
2.07875
2.06857
2.0601
2.05422
2.04953
2.04485
2.03869
2.03132
2.02741
2.02627
2.02665
2.02695
2.02581
2.02334
2.0222
2.02324
2.02501
2.02395
2.02077
2.01832
2.01902
2.01917
2.01773
2.0158
2.01288
2.0095
2.00612
2.00297
2.00051
1.99875
1.99721
1.99518
1.99251
1.98825
1.98399
1.98246
1.98215
1.98304
1.98379
1.98346
1.98252
1.98088
1.98095
1.98305
1.9866
1.99095
1.99349
1.99388
1.99263
1.99206
1.99268
1.99433
1.99622
1.99554
1.99325
1.98912
1.98555
1.98422
1.98375
1.98379
1.98261
1.98047
1.9771
1.97219
1.96867
1.96729
1.96639
1.96553
1.96332
2.51386
2.49389
2.4742
2.45658
2.43858
2.41742
2.39702
2.38086
2.36748
2.34931
2.32695
2.30822
2.29534
2.28247
2.26591
2.24556
2.22918
2.21778
2.2056
2.192
2.17622
2.15887
2.14505
2.13394
2.12355
2.11301
2.10137
2.08839
2.07693
2.06908
2.0631
2.05775
2.05144
2.04305
2.03462
2.03068
2.02909
2.02854
2.02763
2.02548
2.0226
2.02175
2.02272
2.02467
2.02403
2.02118
2.0181
2.01869
2.01887
2.01812
2.01719
2.01468
2.01148
2.00859
2.00598
2.00404
2.00303
2.0021
2.00064
1.99857
1.99529
1.99168
1.99038
1.99017
1.99099
1.99279
1.99383
1.99387
1.99316
1.99385
1.99563
1.99857
2.00324
2.00651
2.0068
2.00538
2.00379
2.00313
2.0032
2.00441
2.00391
2.00157
1.99765
1.99405
1.99232
1.99101
1.99009
1.98881
1.98688
1.98348
1.97872
1.97583
1.97418
1.97263
1.97135
1.9688
2.5356
2.51686
2.49858
2.48124
2.4623
2.44154
2.42227
2.40676
2.39195
2.37193
2.3498
2.33233
2.31947
2.30529
2.28713
2.26637
2.25129
2.23952
2.22639
2.21135
2.19388
2.17643
2.16311
2.15188
2.14087
2.12952
2.11699
2.10275
2.09057
2.08235
2.07543
2.06875
2.06171
2.05361
2.04428
2.03888
2.03629
2.03429
2.03196
2.0283
2.02389
2.02261
2.02318
2.02464
2.02415
2.02155
2.01829
2.01854
2.01813
2.01759
2.01645
2.01377
2.01184
2.01057
2.0091
2.00685
2.00476
2.00377
2.00294
2.00209
2.00092
1.99956
1.99854
1.99858
1.99907
2.00058
2.00279
2.00424
2.00577
2.00778
2.00971
2.01196
2.01492
2.01822
2.01935
2.01877
2.01705
2.01501
2.01384
2.01351
2.0127
2.01033
2.00698
2.00421
2.00237
2.00066
1.99895
1.99678
1.99375
1.98976
1.98641
1.98419
1.9823
1.98037
1.97864
1.97494
2.55753
2.53979
2.52254
2.50517
2.48619
2.46657
2.44867
2.4336
2.41698
2.39583
2.37499
2.35876
2.34596
2.33023
2.31065
2.29046
2.27626
2.26416
2.25015
2.23383
2.21496
2.19823
2.18545
2.17373
2.16179
2.1489
2.13415
2.11896
2.10777
2.09927
2.09127
2.0832
2.07449
2.06417
2.0539
2.04811
2.0446
2.04155
2.03816
2.03315
2.02682
2.02406
2.02391
2.02448
2.02392
2.02131
2.01843
2.01833
2.01769
2.01669
2.01438
2.0122
2.01171
2.01218
2.01204
2.01001
2.00669
2.00498
2.00446
2.00477
2.00596
2.00632
2.00621
2.00587
2.00638
2.00784
2.01049
2.01433
2.01874
2.02223
2.02417
2.02545
2.02649
2.02783
2.0296
2.03062
2.02985
2.02788
2.02515
2.02264
2.02071
2.01873
2.01655
2.01449
2.01246
2.01019
2.00744
2.00407
2.00057
1.99757
1.99522
1.993
1.99082
1.98845
1.98587
1.9808
2.576
2.55963
2.54334
2.52629
2.5081
2.48995
2.47337
2.45799
2.43977
2.41887
2.39981
2.38485
2.37164
2.35415
2.33319
2.31422
2.30052
2.28811
2.27335
2.25594
2.23656
2.22077
2.2077
2.19494
2.18171
2.16732
2.15134
2.13633
2.12498
2.11537
2.10607
2.09647
2.08573
2.07325
2.06268
2.05639
2.05169
2.04726
2.04241
2.036
2.02833
2.0245
2.02334
2.02316
2.02202
2.0192
2.01723
2.01739
2.01731
2.01584
2.01251
2.01068
2.01104
2.01287
2.014
2.01303
2.00996
2.0076
2.00748
2.00855
2.01183
2.01374
2.01432
2.01473
2.01543
2.01706
2.01993
2.0249
2.03119
2.0353
2.03708
2.03754
2.03732
2.03779
2.03885
2.04046
2.04041
2.03888
2.03605
2.03242
2.02987
2.02829
2.02673
2.0248
2.02251
2.01967
2.01592
2.01194
2.00891
2.00672
2.00466
2.00237
1.99978
1.99658
1.99287
1.98728
2.58691
2.57264
2.55767
2.54161
2.52473
2.50803
2.4923
2.47619
2.45754
2.43812
2.42085
2.40711
2.39257
2.37333
2.35222
2.33487
2.32129
2.30806
2.2923
2.27365
2.25481
2.23983
2.22606
2.21229
2.19788
2.18202
2.16522
2.15066
2.13887
2.12811
2.1175
2.10614
2.09317
2.07942
2.06885
2.06158
2.05519
2.04909
2.04261
2.03417
2.02611
2.02246
2.0208
2.01947
2.01676
2.01349
2.01242
2.01321
2.01442
2.0136
2.01052
2.00816
2.00889
2.01153
2.01424
2.0146
2.01313
2.01092
2.01121
2.01271
2.01654
2.02064
2.02263
2.02404
2.02568
2.02795
2.03101
2.03548
2.04155
2.04599
2.04742
2.04759
2.04788
2.04851
2.04927
2.04985
2.04923
2.04734
2.04457
2.04208
2.0402
2.03848
2.03665
2.03454
2.03185
2.0282
2.02414
2.0208
2.01814
2.01575
2.01358
2.0114
2.00847
2.00418
1.99994
1.99462
2.59035
2.57716
2.56308
2.54818
2.53288
2.51784
2.50299
2.48686
2.46902
2.45131
2.43572
2.42234
2.40597
2.38573
2.36608
2.34991
2.33642
2.32178
2.30449
2.2846
2.26762
2.25326
2.23904
2.22451
2.20886
2.19152
2.17451
2.16033
2.14797
2.13615
2.1242
2.11127
2.09714
2.08365
2.07278
2.06389
2.05586
2.04819
2.03975
2.02949
2.02231
2.0188
2.01674
2.01388
2.00923
2.00487
2.00386
2.00522
2.00814
2.0086
2.00692
2.00414
2.00436
2.00712
2.01143
2.01354
2.01389
2.01283
2.01368
2.01585
2.0195
2.0248
2.02873
2.03131
2.03431
2.03731
2.04045
2.0448
2.05041
2.05413
2.05536
2.05605
2.05687
2.05761
2.05819
2.05767
2.05613
2.05358
2.05159
2.05021
2.04883
2.04722
2.04531
2.04251
2.03865
2.03455
2.03119
2.02867
2.02649
2.02421
2.02132
2.01779
2.01372
2.0092
2.00568
2.0008
2.58964
2.57711
2.56393
2.55024
2.53623
2.52214
2.50746
2.49148
2.47466
2.45851
2.44419
2.42946
2.41145
2.39146
2.37355
2.35918
2.34569
2.32926
2.31007
2.29101
2.27586
2.26155
2.24689
2.23161
2.21486
2.19701
2.18065
2.16658
2.15358
2.14081
2.12759
2.11348
2.09914
2.08623
2.07528
2.0655
2.0562
2.04666
2.036
2.02535
2.01934
2.01569
2.01257
2.00834
2.00252
1.99703
1.99561
1.9967
1.99991
2.00152
2.00137
1.99926
1.99853
2.00093
2.00556
2.01024
2.01216
2.01266
2.01423
2.01728
2.02112
2.02624
2.03175
2.03617
2.04047
2.04493
2.04877
2.05244
2.05659
2.05907
2.06034
2.06167
2.0633
2.06439
2.0641
2.0629
2.06053
2.05853
2.0574
2.05646
2.05489
2.05285
2.05016
2.04652
2.04237
2.03911
2.03656
2.03409
2.03141
2.02826
2.02445
2.01993
2.01532
2.01139
2.00854
2.00383
2.58889
2.57661
2.56367
2.55028
2.53663
2.52258
2.50766
2.49183
2.47599
2.46119
2.44713
2.43021
2.4108
2.39307
2.37848
2.36595
2.35058
2.33253
2.31287
2.29597
2.28127
2.26675
2.25159
2.23554
2.2181
2.20066
2.18517
2.17118
2.15763
2.14394
2.12955
2.11443
2.0999
2.08754
2.07697
2.06694
2.0568
2.04585
2.03355
2.02315
2.01735
2.01313
2.00916
2.00458
1.99845
1.99195
1.98967
1.98985
1.99252
1.99492
1.9957
1.99499
1.99394
1.99588
2.00001
2.00535
2.0092
2.01162
2.01467
2.01834
2.02222
2.02707
2.0327
2.03805
2.04378
2.0496
2.0548
2.05844
2.06006
2.0615
2.06312
2.06476
2.06689
2.06784
2.06725
2.06539
2.06298
2.06158
2.0604
2.05919
2.05741
2.05502
2.05155
2.04745
2.04423
2.04169
2.03912
2.03643
2.03336
2.02941
2.02439
2.01954
2.01592
2.0129
2.01032
2.00544
2.59033
2.57781
2.56487
2.55158
2.53796
2.52379
2.50895
2.49377
2.47883
2.46436
2.44924
2.43199
2.41431
2.39814
2.38384
2.36976
2.35307
2.33421
2.31592
2.30036
2.28608
2.27125
2.25565
2.23855
2.22049
2.20408
2.18957
2.17564
2.16161
2.14706
2.13161
2.11569
2.10125
2.08941
2.07898
2.06884
2.0582
2.04603
2.0321
2.02195
2.01599
2.01137
2.007
2.00231
1.99581
1.98863
1.98569
1.9855
1.9874
1.98907
1.99012
1.99119
1.99191
1.99307
1.99657
2.00157
2.00634
2.01042
2.01489
2.01962
2.02418
2.0287
2.03364
2.04008
2.04678
2.0521
2.05697
2.0618
2.06428
2.06539
2.066
2.06677
2.06795
2.06862
2.06777
2.06593
2.0641
2.06287
2.06151
2.05982
2.05778
2.05504
2.0512
2.04764
2.04517
2.04272
2.04008
2.0372
2.03372
2.02917
2.02386
2.01972
2.01683
2.01412
2.01164
2.00664
2.59483
2.58201
2.56887
2.55538
2.54151
2.52717
2.51244
2.49762
2.48296
2.46817
2.4522
2.43517
2.41851
2.40311
2.3892
2.3737
2.35583
2.33699
2.32044
2.30624
2.29209
2.27681
2.26014
2.2415
2.22362
2.20855
2.19461
2.18087
2.1669
2.15171
2.13451
2.11757
2.10374
2.09235
2.08201
2.07178
2.06055
2.0472
2.03337
2.02285
2.01508
2.009
2.0037
1.99866
1.99346
1.98754
1.98318
1.98183
1.98268
1.9832
1.98406
1.98663
1.98896
1.99198
1.99604
2.00024
2.00479
2.00978
2.01525
2.02141
2.02815
2.03463
2.04067
2.04596
2.05002
2.05384
2.05876
2.06372
2.06585
2.0668
2.06704
2.06762
2.06812
2.06854
2.06787
2.06671
2.0651
2.06338
2.06163
2.05969
2.05747
2.05467
2.05119
2.048
2.0455
2.04304
2.04038
2.0374
2.03371
2.02902
2.02433
2.02071
2.01786
2.01514
2.01269
2.00759
2.60101
2.58808
2.5748
2.56113
2.54708
2.53267
2.51801
2.50328
2.48845
2.47303
2.45673
2.44025
2.42429
2.40952
2.39506
2.37788
2.3594
2.34181
2.3264
2.31214
2.29724
2.28146
2.26406
2.24554
2.22894
2.21436
2.20038
2.18635
2.17136
2.15486
2.13762
2.12158
2.10783
2.09566
2.08426
2.07271
2.06028
2.0471
2.03464
2.02413
2.01541
2.00795
2.00167
1.99555
1.98893
1.98371
1.98089
1.97915
1.9783
1.97773
1.97835
1.98101
1.98533
1.99001
1.99482
1.99938
2.00414
2.00957
2.01576
2.0232
2.03148
2.03903
2.0457
2.05045
2.05399
2.05757
2.06182
2.06646
2.0686
2.0696
2.06952
2.06947
2.06969
2.0698
2.06908
2.06775
2.0659
2.06381
2.06177
2.05967
2.05732
2.05455
2.0514
2.04841
2.04601
2.04373
2.04102
2.03757
2.03355
2.02928
2.02525
2.02199
2.01925
2.01676
2.01433
2.00875
2.60644
2.59356
2.58029
2.56666
2.55264
2.53828
2.52367
2.50888
2.49376
2.47805
2.46194
2.44584
2.43025
2.41542
2.39941
2.38153
2.36378
2.34735
2.33228
2.31728
2.30161
2.28495
2.26718
2.2503
2.23495
2.22002
2.205
2.18951
2.17325
2.15639
2.14025
2.12588
2.11252
2.09929
2.0859
2.07267
2.05939
2.04666
2.03582
2.02629
2.01688
2.00736
1.99892
1.99089
1.98422
1.98077
1.97862
1.97658
1.97462
1.9728
1.97297
1.97536
1.98032
1.98651
1.99229
1.9976
2.00302
2.00908
2.01581
2.02376
2.03285
2.04143
2.0484
2.05294
2.05668
2.06051
2.06491
2.06934
2.07136
2.07235
2.07222
2.07186
2.07183
2.07164
2.07088
2.0695
2.06759
2.06519
2.06278
2.06046
2.05798
2.05534
2.05272
2.05004
2.04718
2.04432
2.04126
2.03781
2.03402
2.03058
2.02782
2.02497
2.02169
2.018
2.01479
2.00914
2.60977
2.59708
2.58395
2.5704
2.55645
2.54214
2.52753
2.51261
2.49729
2.48163
2.46582
2.45008
2.43453
2.41856
2.4014
2.38396
2.36734
2.3519
2.33666
2.3205
2.30366
2.2863
2.26965
2.25396
2.23874
2.22342
2.2075
2.19067
2.17352
2.15721
2.14239
2.12876
2.11547
2.10187
2.08726
2.07185
2.05758
2.04589
2.03611
2.02725
2.01839
2.00891
1.99754
1.98672
1.98124
1.97799
1.9762
1.97437
1.97246
1.96975
1.96919
1.97126
1.97576
1.98229
1.98886
1.99489
2.00108
2.00784
2.01524
2.02382
2.03344
2.04207
2.04805
2.05276
2.05717
2.06162
2.06672
2.07152
2.07346
2.07431
2.07412
2.07382
2.07367
2.07351
2.07286
2.07162
2.06963
2.06669
2.06395
2.06166
2.05943
2.05724
2.05498
2.0523
2.04883
2.04496
2.04152
2.03856
2.03612
2.03389
2.03133
2.02827
2.02441
2.01981
2.016
2.01057
2.61101
2.59844
2.58539
2.57191
2.55801
2.54376
2.52914
2.51414
2.49879
2.48326
2.46773
2.45222
2.43627
2.41947
2.40228
2.38549
2.36969
2.35505
2.3386
2.32158
2.30402
2.28673
2.27088
2.25562
2.24043
2.22494
2.20848
2.19068
2.17281
2.15696
2.14319
2.13022
2.11721
2.10321
2.08716
2.06985
2.05505
2.04426
2.03548
2.02755
2.01935
2.00886
1.9947
1.98371
1.97899
1.97592
1.97436
1.97234
1.97018
1.96676
1.96562
1.9676
1.9722
1.97918
1.98621
1.9926
1.99917
2.00622
2.01408
2.02291
2.03291
2.04273
2.04975
2.05466
2.05902
2.0634
2.06854
2.07329
2.07505
2.07567
2.07532
2.07488
2.07473
2.07455
2.07384
2.07263
2.07048
2.06715
2.06446
2.06237
2.06029
2.05811
2.05568
2.05269
2.04898
2.04504
2.0416
2.03895
2.03661
2.03422
2.03156
2.02838
2.02444
2.01977
2.01586
2.01017
)
;

boundaryField
{
    inlet
    {
        type            fixedValue;
        value           uniform 1;
    }
    outlet
    {
        type            inletOutlet;
        inletValue      uniform 1;
        value           nonuniform List<scalar> 
32
(
2.33853
2.32763
2.29291
2.23101
2.16109
2.09903
2.05309
2.02149
2.00233
1.98889
1.97679
1.96557
1.95615
1.95182
1.95075
1.95392
1.95878
1.96338
1.96877
1.97482
1.98073
1.9874
1.99481
2.00084
2.00376
2.00537
2.00666
2.00771
2.00879
2.00918
2.0106
2.01015
)
;
    }
    bottom
    {
        type            symmetryPlane;
    }
    top
    {
        type            symmetryPlane;
    }
    obstacle
    {
        type            zeroGradient;
    }
    defaultFaces
    {
        type            empty;
    }
}

