/*--------------------------------*- C++ -*----------------------------------*\
  =========                 |
  \\      /  F ield         | OpenFOAM: The Open Source CFD Toolbox
   \\    /   O peration     | Website:  https://openfoam.org
    \\  /    A nd           | Version:  7
     \\/     M anipulation  |
\*---------------------------------------------------------------------------*/
FoamFile
{
    version     2.0;
    format      ascii;
    class       volVectorField;
    location    "19";
    object      U;
}
// * * * * * * * * * * * * * * * * * * * * * * * * * * * * * * * * * * * * * //

dimensions      [0 1 -1 0 0 0 0];

internalField   nonuniform List<vector> 
4032
(
(3 -6.54964e-17 0)
(3 -1.38238e-17 0)
(3 3.08403e-17 0)
(3 5.49011e-17 0)
(3 1.52636e-16 0)
(3 7.12264e-18 0)
(3 1.20052e-16 0)
(3 3.56018e-16 0)
(3 6.48275e-16 0)
(3 1.20989e-15 0)
(3 1.26107e-15 0)
(2.03914 0.0121295 0)
(0.806094 0.0151393 0)
(0.690386 0.0234736 0)
(0.638088 0.0250146 0)
(0.581188 0.0256794 0)
(0.525752 0.0262162 0)
(0.469353 0.0270313 0)
(0.411084 0.0283264 0)
(0.349445 0.0302519 0)
(0.282993 0.0330022 0)
(0.209727 0.036857 0)
(0.129575 0.0392435 0)
(0.0472745 0.0427123 0)
(3 1.42767e-16 0)
(3 2.99332e-16 0)
(3 2.35413e-16 0)
(3 3.89459e-16 0)
(3 7.42125e-16 0)
(3 8.30142e-16 0)
(3 7.89672e-16 0)
(3 7.83896e-16 0)
(3 1.00655e-15 0)
(3 1.69288e-15 0)
(3 1.71095e-15 0)
(2.07158 0.0602146 0)
(0.798227 0.0692745 0)
(0.670996 0.0701822 0)
(0.617371 0.0700943 0)
(0.560759 0.0715725 0)
(0.506109 0.073856 0)
(0.451015 0.0774385 0)
(0.394805 0.0826723 0)
(0.33609 0.0900804 0)
(0.273206 0.0998335 0)
(0.203959 0.112891 0)
(0.1266 0.121589 0)
(0.0467191 0.132766 0)
(3 3.71827e-16 0)
(3 1.82111e-16 0)
(3 3.6386e-16 0)
(3 3.49224e-16 0)
(3 3.36409e-17 0)
(3 1.56107e-16 0)
(3 3.54643e-16 0)
(3 9.64247e-17 0)
(3 1.70639e-17 0)
(3 7.07994e-16 0)
(3 9.30234e-16 0)
(2.18575 0.111122 0)
(0.818299 0.129241 0)
(0.674338 0.122889 0)
(0.617162 0.122131 0)
(0.557153 0.123488 0)
(0.499835 0.126038 0)
(0.442742 0.13041 0)
(0.385449 0.137208 0)
(0.326775 0.147874 0)
(0.265023 0.162698 0)
(0.198819 0.184355 0)
(0.123302 0.200003 0)
(0.0463541 0.219378 0)
(3 -1.94599e-16 0)
(3 -3.15124e-16 0)
(3 -2.29194e-16 0)
(3 -2.2934e-16 0)
(3 -4.34903e-16 0)
(3 -1.13049e-15 0)
(3 -8.01994e-16 0)
(3 -2.93111e-16 0)
(3 1.92768e-16 0)
(3 4.19772e-16 0)
(3 2.41558e-16 0)
(2.37279 0.147196 0)
(0.860907 0.188195 0)
(0.693389 0.175827 0)
(0.635338 0.174852 0)
(0.57269 0.177386 0)
(0.512526 0.181214 0)
(0.452165 0.186943 0)
(0.391395 0.195386 0)
(0.329432 0.209125 0)
(0.26486 0.227664 0)
(0.198805 0.256869 0)
(0.12311 0.280125 0)
(0.045782 0.30656 0)
(3 -6.51374e-17 0)
(3 -9.32164e-17 0)
(3 -1.11821e-16 0)
(3 -1.32508e-16 0)
(3 -2.10915e-16 0)
(3 -2.65461e-16 0)
(3 6.51618e-17 0)
(3 7.68435e-16 0)
(3 1.43423e-15 0)
(3 9.42522e-16 0)
(3 -7.96865e-17 0)
(2.60345 0.167526 0)
(0.915994 0.247835 0)
(0.71834 0.228636 0)
(0.66702 0.230361 0)
(0.605222 0.234386 0)
(0.544092 0.239875 0)
(0.48104 0.247534 0)
(0.417229 0.257765 0)
(0.353232 0.274336 0)
(0.286851 0.294782 0)
(0.22061 0.330118 0)
(0.140206 0.363446 0)
(0.0551935 0.400749 0)
(3 2.14673e-17 0)
(3 -5.94694e-17 0)
(3 3.20709e-16 0)
(3 2.99269e-16 0)
(3 9.56147e-17 0)
(3 3.91683e-16 0)
(3 3.07963e-16 0)
(3 2.00882e-16 0)
(3 7.20982e-16 0)
(3 3.31515e-16 0)
(3 6.7005e-17 0)
(2.86618 0.133751 0)
(1.00956 0.298741 0)
(0.767714 0.255338 0)
(0.725874 0.273048 0)
(0.66327 0.286062 0)
(0.600847 0.297928 0)
(0.535076 0.309788 0)
(0.467509 0.322377 0)
(0.399011 0.342655 0)
(0.324595 0.368058 0)
(0.248178 0.414836 0)
(0.157445 0.466865 0)
(0.0550102 0.51563 0)
(3 4.97766e-18 0)
(3 2.61485e-16 0)
(3 2.39699e-16 0)
(3 6.46191e-17 0)
(3 2.18747e-16 0)
(3 1.65315e-16 0)
(3 -1.16041e-16 0)
(3 -1.26678e-15 0)
(3 -9.09356e-16 0)
(3 -5.93841e-16 0)
(3 -9.85648e-16 0)
(3.0209 0.0203028 0)
(1.12709 0.318695 0)
(0.79838 0.283883 0)
(0.771997 0.31738 0)
(0.71969 0.336233 0)
(0.664271 0.353949 0)
(0.60161 0.372658 0)
(0.534243 0.39041 0)
(0.464795 0.41784 0)
(0.389197 0.450659 0)
(0.316417 0.504841 0)
(0.230013 0.57289 0)
(0.104229 0.652695 0)
(3 1.4931e-16 0)
(3 2.89836e-16 0)
(3 -3.42262e-17 0)
(3 -9.34349e-17 0)
(3 1.30985e-16 0)
(3 1.08531e-16 0)
(3 -1.79285e-16 0)
(3 -1.18793e-15 0)
(3 -1.86063e-15 0)
(3 -1.28489e-15 0)
(3 -9.13716e-16 0)
(3.00325 0.000476964 0)
(1.27764 0.334201 0)
(0.797609 0.31831 0)
(0.765532 0.358785 0)
(0.726199 0.384707 0)
(0.690448 0.408031 0)
(0.648862 0.433179 0)
(0.596843 0.457662 0)
(0.54012 0.492704 0)
(0.47357 0.529414 0)
(0.40218 0.601987 0)
(0.286821 0.733094 0)
(0.162976 0.921122 0)
(3 1.84225e-16 0)
(3 -4.88447e-16 0)
(3 -3.592e-16 0)
(3 8.17945e-17 0)
(3 4.39235e-16 0)
(3 4.68422e-16 0)
(3 5.84874e-16 0)
(3 2.68605e-16 0)
(3 -6.22173e-16 0)
(3 -9.1445e-16 0)
(3 -7.78622e-16 0)
(3.00002 -5.76272e-07 0)
(1.54834 0.378747 0)
(0.812812 0.366423 0)
(0.743843 0.384251 0)
(0.716574 0.410642 0)
(0.690619 0.438401 0)
(0.671381 0.473958 0)
(0.641518 0.510806 0)
(0.608947 0.556367 0)
(0.562943 0.608744 0)
(0.517576 0.713228 0)
(0.492131 0.889531 0)
(0.611422 1.20266 0)
(3 9.29754e-18 0)
(3 -2.13078e-16 0)
(3 1.32909e-16 0)
(3 9.30892e-16 0)
(3 9.62655e-16 0)
(3 8.76938e-16 0)
(3 1.03954e-15 0)
(3 1.5513e-15 0)
(3 1.2508e-15 0)
(3 1.09874e-15 0)
(3 1.69856e-15 0)
(3 -3.3268e-07 0)
(1.9884 0.418422 0)
(0.866737 0.451566 0)
(0.755674 0.425914 0)
(0.727924 0.44099 0)
(0.707287 0.464559 0)
(0.693218 0.500139 0)
(0.682425 0.545006 0)
(0.671561 0.600324 0)
(0.66129 0.670919 0)
(0.655643 0.783066 0)
(0.721783 0.925111 0)
(1.0005 1.11111 0)
(3 -6.37576e-17 0)
(3 1.85306e-16 0)
(3 6.26868e-16 0)
(3 7.41423e-16 0)
(3 1.11041e-15 0)
(3 1.18489e-15 0)
(3 1.6113e-15 0)
(3 2.14227e-15 0)
(3 2.2303e-15 0)
(3 2.45453e-15 0)
(3 2.94634e-15 0)
(3 -7.14029e-08 0)
(2.65034 0.328373 0)
(1.00987 0.526014 0)
(0.838067 0.456596 0)
(0.791868 0.463133 0)
(0.757257 0.484773 0)
(0.735258 0.518438 0)
(0.731611 0.563691 0)
(0.732216 0.622394 0)
(0.754318 0.698619 0)
(0.786742 0.801884 0)
(0.906303 0.908803 0)
(1.17704 1.00281 0)
(3 -1.04601e-17 0)
(3 5.97122e-16 0)
(3 7.50008e-16 0)
(3 5.63921e-16 0)
(3 3.51041e-16 0)
(3 3.687e-16 0)
(3 1.04402e-15 0)
(3 1.31526e-15 0)
(3 1.031e-15 0)
(3 1.03555e-15 0)
(3 1.10715e-15 0)
(3 -6.46969e-09 0)
(3.07833 0.0411029 0)
(1.27493 0.506622 0)
(0.915958 0.506995 0)
(0.87536 0.511624 0)
(0.832275 0.523181 0)
(0.796976 0.544402 0)
(0.787054 0.58303 0)
(0.793019 0.635036 0)
(0.830672 0.70106 0)
(0.893832 0.791035 0)
(1.04072 0.881318 0)
(1.2824 0.930209 0)
(3 3.24417e-17 0)
(3 1.82628e-16 0)
(3 -1.74812e-16 0)
(3 -5.3432e-16 0)
(3 -5.98424e-16 0)
(3 -6.42305e-16 0)
(3 -5.61049e-16 0)
(3 -7.73599e-16 0)
(3 -3.02659e-16 0)
(3 8.5996e-17 0)
(3 3.51086e-16 0)
(3 -2.23043e-10 0)
(3.00806 6.31952e-05 0)
(1.51914 0.495643 0)
(0.915939 0.568115 0)
(0.876429 0.561825 0)
(0.859262 0.574084 0)
(0.844267 0.582199 0)
(0.840199 0.604519 0)
(0.853236 0.639935 0)
(0.89367 0.686401 0)
(0.966078 0.754071 0)
(1.11125 0.824784 0)
(1.32378 0.851126 0)
(3 -1.59736e-16 0)
(3 -2.53525e-16 0)
(3 -8.93649e-16 0)
(3 -1.21261e-15 0)
(3 -9.86144e-16 0)
(3 -9.93299e-16 0)
(3 -1.15088e-15 0)
(3 -1.20279e-15 0)
(3 -3.87419e-16 0)
(3 2.79014e-16 0)
(3 8.49704e-16 0)
(3 -2.97053e-12 0)
(3.00005 -2.02564e-06 0)
(2.13033 0.501414 0)
(0.977859 0.612562 0)
(0.905441 0.573022 0)
(0.90255 0.584965 0)
(0.896474 0.596573 0)
(0.896906 0.617013 0)
(0.914748 0.646756 0)
(0.95696 0.680779 0)
(1.02992 0.723977 0)
(1.15546 0.768611 0)
(1.33058 0.779584 0)
(3 4.55578e-16 0)
(3 -3.7519e-16 0)
(3 -6.4319e-16 0)
(3 -6.0902e-16 0)
(3 -7.74678e-16 0)
(3 -6.3006e-16 0)
(3 -4.62279e-16 0)
(3 -4.00112e-16 0)
(3 -6.11442e-16 0)
(3 -7.29715e-16 0)
(3 -1.61555e-16 0)
(3 -4.46911e-15 0)
(3.00001 -2.75682e-06 0)
(2.95247 0.196721 0)
(1.1934 0.611178 0)
(0.972705 0.584185 0)
(0.962977 0.596002 0)
(0.95474 0.612023 0)
(0.95523 0.622592 0)
(0.973744 0.642073 0)
(1.01328 0.663173 0)
(1.07979 0.691564 0)
(1.17794 0.709468 0)
(1.31021 0.707172 0)
(3 -1.69254e-16 0)
(3 -1.04287e-16 0)
(3 2.62168e-16 0)
(3 4.83395e-16 0)
(3 5.03607e-16 0)
(3 5.00725e-16 0)
(3 5.98057e-16 0)
(3 8.66349e-17 0)
(3 -6.1057e-16 0)
(3 -9.99231e-16 0)
(3 -8.62414e-16 0)
(3 2.48295e-16 0)
(3 -5.93229e-07 0)
(3.0455 0.00703877 0)
(1.43273 0.57641 0)
(0.994624 0.633357 0)
(0.971547 0.625106 0)
(0.977639 0.631869 0)
(0.991358 0.639222 0)
(1.01829 0.650667 0)
(1.05969 0.661398 0)
(1.12222 0.671119 0)
(1.19899 0.666517 0)
(1.29275 0.649588 0)
(3 -2.86277e-16 0)
(3 -2.08932e-16 0)
(3 3.11554e-16 0)
(3 4.21739e-16 0)
(3 6.92206e-16 0)
(3 4.39642e-16 0)
(3 -9.05714e-17 0)
(3 7.11936e-16 0)
(3 9.21805e-16 0)
(3 4.13423e-16 0)
(3 1.98694e-17 0)
(3 6.36941e-16 0)
(3 -5.39782e-08 0)
(3.00109 -8.54886e-06 0)
(1.9707 0.565526 0)
(1.01659 0.66143 0)
(0.980387 0.625932 0)
(0.996336 0.622213 0)
(1.01692 0.622806 0)
(1.04947 0.63049 0)
(1.08978 0.634524 0)
(1.14751 0.637301 0)
(1.21189 0.627635 0)
(1.28196 0.607193 0)
(3 1.53723e-16 0)
(3 1.69636e-16 0)
(3 1.3533e-16 0)
(3 6.97495e-16 0)
(3 8.01242e-16 0)
(3 5.96158e-16 0)
(3 -4.76915e-17 0)
(3 3.00834e-16 0)
(3 4.43449e-16 0)
(3 3.94453e-16 0)
(3 -8.85007e-17 0)
(3 -3.1205e-16 0)
(3 -5.88636e-10 0)
(3.00003 -1.06569e-05 0)
(2.8526 0.270418 0)
(1.18301 0.658134 0)
(1.01394 0.614327 0)
(1.03043 0.616521 0)
(1.04619 0.618875 0)
(1.07606 0.621213 0)
(1.11289 0.617207 0)
(1.16362 0.610216 0)
(1.21923 0.594763 0)
(1.27466 0.570242 0)
(3 2.59792e-16 0)
(3 2.904e-16 0)
(3 4.77204e-16 0)
(3 4.88571e-16 0)
(3 2.10982e-16 0)
(3 -2.09636e-16 0)
(3 -4.21683e-16 0)
(3 -7.85557e-16 0)
(3 -8.38944e-16 0)
(3 -9.62331e-16 0)
(3 -1.15684e-15 0)
(3 4.85726e-16 0)
(3 -1.12471e-12 0)
(3 -2.63098e-06 0)
(3.05728 0.0137814 0)
(1.42879 0.60242 0)
(1.02337 0.628867 0)
(1.02901 0.621143 0)
(1.05239 0.611266 0)
(1.08457 0.603046 0)
(1.12489 0.593567 0)
(1.17401 0.583537 0)
(1.2248 0.567164 0)
(1.27293 0.544783 0)
(3 6.22019e-17 0)
(3 1.23255e-16 0)
(3 -1.67008e-16 0)
(3 -7.2469e-16 0)
(3 -1.06094e-15 0)
(3 -1.18744e-15 0)
(3 -1.295e-15 0)
(3 -4.32014e-16 0)
(3 6.56665e-17 0)
(3 3.26352e-16 0)
(3 3.2376e-16 0)
(3 3.395e-16 0)
(3 -9.51662e-17 0)
(3 -2.46353e-07 0)
(3.0019 8.82253e-06 0)
(1.86081 0.568216 0)
(1.01557 0.642061 0)
(1.00158 0.5982 0)
(1.03861 0.578273 0)
(1.07606 0.568766 0)
(1.11719 0.559303 0)
(1.16403 0.54924 0)
(1.21208 0.533381 0)
(1.25918 0.513185 0)
(3 -1.49662e-16 0)
(3 -2.10912e-16 0)
(3 -6.95483e-17 0)
(3 -1.69502e-16 0)
(3 -1.41628e-16 0)
(3 1.50636e-16 0)
(3 2.70183e-16 0)
(3 8.58788e-16 0)
(3 2.1086e-15 0)
(3 2.54194e-15 0)
(3 1.75799e-15 0)
(3 7.19607e-16 0)
(3 7.70091e-16 0)
(3 -7.6025e-09 0)
(3 -1.71501e-07 0)
(2.68028 0.357586 0)
(1.1033 0.625221 0)
(1.00538 0.563207 0)
(1.05085 0.556579 0)
(1.08602 0.548814 0)
(1.12247 0.537792 0)
(1.16381 0.524383 0)
(1.20604 0.505902 0)
(1.24899 0.485222 0)
(3 1.77468e-18 0)
(3 2.34314e-16 0)
(3 5.55667e-16 0)
(3 6.57198e-16 0)
(3 1.07114e-15 0)
(3 1.06367e-15 0)
(3 1.42556e-15 0)
(3 1.49323e-15 0)
(3 2.32375e-15 0)
(3 2.5677e-15 0)
(3 2.72769e-15 0)
(3 1.73225e-15 0)
(3 9.92681e-16 0)
(3 -1.84008e-11 0)
(3 -2.27591e-07 0)
(3.06801 0.0323342 0)
(1.31365 0.53723 0)
(1.01553 0.531936 0)
(1.05609 0.530813 0)
(1.08631 0.522297 0)
(1.12144 0.511032 0)
(1.16198 0.497837 0)
(1.20296 0.480562 0)
(1.2446 0.462333 0)
(3 -5.84702e-17 0)
(3 2.67633e-17 0)
(3 5.30678e-17 0)
(3 4.2194e-16 0)
(3 5.94179e-16 0)
(3 1.23461e-15 0)
(3 1.74516e-15 0)
(3 2.08145e-15 0)
(3 1.50909e-15 0)
(3 1.19227e-15 0)
(3 1.53632e-15 0)
(3 9.3635e-16 0)
(3 1.28534e-15 0)
(3 -1.83502e-14 0)
(3 -4.88577e-08 0)
(3.00475 0.000101411 0)
(1.47891 0.454733 0)
(0.972738 0.52012 0)
(1.01017 0.511045 0)
(1.05263 0.493608 0)
(1.09917 0.478715 0)
(1.14609 0.46561 0)
(1.19002 0.450333 0)
(1.23308 0.434976 0)
(3 -2.52717e-16 0)
(3 -3.64744e-16 0)
(3 -5.10069e-16 0)
(3 -4.43607e-16 0)
(3 -6.95056e-16 0)
(3 -3.27284e-16 0)
(3 1.91019e-17 0)
(3 5.1686e-16 0)
(3 -2.41457e-16 0)
(3 -7.53911e-16 0)
(3 -1.93148e-16 0)
(3 3.32332e-16 0)
(3 1.04239e-15 0)
(3 1.63885e-15 0)
(3 -4.18776e-09 0)
(3.00002 -7.93497e-07 0)
(1.83924 0.412525 0)
(0.928737 0.480499 0)
(0.931632 0.458351 0)
(0.993995 0.453012 0)
(1.05296 0.444901 0)
(1.10744 0.434144 0)
(1.15683 0.420828 0)
(1.20428 0.407057 0)
(3 3.04557e-17 0)
(3 3.13125e-16 0)
(3 3.49902e-16 0)
(3 1.22665e-17 0)
(3 -3.25151e-16 0)
(3 -6.92286e-16 0)
(3 -4.9628e-16 0)
(3 -5.83754e-16 0)
(3 -7.24646e-16 0)
(3 -8.53429e-16 0)
(3 -9.08591e-16 0)
(3 2.29643e-16 0)
(3 8.98722e-16 0)
(3 5.79735e-16 0)
(3 -2.04331e-11 0)
(3 -1.00776e-06 0)
(2.35069 0.365877 0)
(0.964304 0.455918 0)
(0.904568 0.403683 0)
(0.962203 0.400851 0)
(1.01118 0.401762 0)
(1.0616 0.397679 0)
(1.11127 0.3896 0)
(1.16131 0.37922 0)
(3 8.396e-17 0)
(3 -7.48775e-17 0)
(3 -1.69114e-16 0)
(3 7.70324e-16 0)
(3 9.0028e-16 0)
(3 5.95891e-16 0)
(3 6.38547e-16 0)
(3 7.49336e-16 0)
(3 6.64291e-16 0)
(3 2.87728e-16 0)
(3 -1.1741e-17 0)
(3 -3.21636e-16 0)
(3 -4.04174e-16 0)
(3 -5.92742e-16 0)
(3 -3.31252e-14 0)
(3 -2.11481e-07 0)
(2.8759 0.169488 0)
(1.08042 0.432027 0)
(0.925112 0.376475 0)
(0.976996 0.372542 0)
(1.01466 0.369321 0)
(1.05478 0.362442 0)
(1.09628 0.354155 0)
(1.14016 0.344599 0)
(3 1.03562e-16 0)
(3 -3.17429e-17 0)
(3 2.20535e-16 0)
(3 9.71477e-16 0)
(3 1.25392e-15 0)
(3 1.58002e-15 0)
(3 1.30404e-15 0)
(3 9.52774e-16 0)
(3 3.7272e-16 0)
(3 -3.47928e-17 0)
(3 -3.68074e-16 0)
(3 -6.32304e-16 0)
(3 -7.48448e-16 0)
(3 -3.75693e-16 0)
(3 -9.41794e-16 0)
(3 -2.1001e-08 0)
(3.01026 0.0158143 0)
(1.18351 0.338143 0)
(0.918908 0.339825 0)
(0.973838 0.339585 0)
(1.00972 0.33798 0)
(1.04602 0.333363 0)
(1.08308 0.325945 0)
(1.12212 0.316684 0)
(3 1.36716e-16 0)
(3 2.41835e-16 0)
(3 5.81802e-16 0)
(3 7.8662e-16 0)
(3 1.05519e-15 0)
(3 2.15748e-15 0)
(3 1.80572e-15 0)
(3 4.84737e-16 0)
(3 -3.89047e-16 0)
(3 -7.69642e-17 0)
(3 -1.26953e-15 0)
(3 -9.42657e-16 0)
(3 -8.42374e-16 0)
(3 -1.16663e-15 0)
(3 -1.05855e-15 0)
(3 -8.08843e-10 0)
(3.00146 0.000670726 0)
(1.25199 0.275843 0)
(0.871556 0.314795 0)
(0.926833 0.313859 0)
(0.970785 0.314812 0)
(1.01292 0.308727 0)
(1.05369 0.30114 0)
(1.09389 0.291672 0)
(3 -2.66329e-16 0)
(3 1.05548e-16 0)
(3 4.46153e-16 0)
(3 1.80746e-16 0)
(3 4.13176e-16 0)
(3 7.91067e-16 0)
(3 2.06745e-16 0)
(3 -2.71522e-16 0)
(3 -3.20884e-16 0)
(3 -4.62652e-16 0)
(3 -6.84981e-17 0)
(3 -2.93667e-16 0)
(3 -7.97255e-18 0)
(3 -1.10103e-15 0)
(3 -8.52826e-16 0)
(3 -1.60961e-11 0)
(3.00001 6.29414e-07 0)
(1.38004 0.262208 0)
(0.841782 0.273733 0)
(0.872101 0.274403 0)
(0.919565 0.277263 0)
(0.965494 0.275278 0)
(1.01055 0.270459 0)
(1.05366 0.262823 0)
(3 -3.53078e-16 0)
(3 5.30367e-16 0)
(3 5.38814e-16 0)
(3 -1.43016e-16 0)
(3 -5.43222e-16 0)
(3 -1.11321e-15 0)
(3 -1.03851e-15 0)
(3 -8.7863e-16 0)
(3 -1.33838e-16 0)
(3 1.71103e-16 0)
(3 1.04543e-15 0)
(3 4.11781e-16 0)
(3 3.94221e-17 0)
(3 1.91791e-16 0)
(3 4.077e-16 0)
(3 -1.35255e-13 0)
(3 -1.13455e-10 0)
(1.55964 0.26791 0)
(0.843701 0.248487 0)
(0.841491 0.243273 0)
(0.881404 0.245523 0)
(0.920421 0.244824 0)
(0.963387 0.241658 0)
(1.00631 0.235928 0)
(3 1.83403e-16 0)
(3 -5.75012e-17 0)
(3 -9.10304e-16 0)
(3 -1.14343e-15 0)
(3 -1.47246e-15 0)
(3 -1.47569e-15 0)
(3 -1.09752e-15 0)
(3 -1.01968e-15 0)
(3 -5.24949e-16 0)
(3 3.0938e-17 0)
(3 4.15695e-16 0)
(3 -2.49328e-16 0)
(3 -6.44261e-16 0)
(3 6.79664e-16 0)
(3 1.7603e-15 0)
(3 1.00495e-15 0)
(3 -9.89695e-11 0)
(1.78989 0.258965 0)
(0.855143 0.236468 0)
(0.83366 0.220272 0)
(0.869889 0.216175 0)
(0.90026 0.212729 0)
(0.936374 0.209821 0)
(0.974 0.205836 0)
(3 2.80278e-17 0)
(3 -1.96518e-16 0)
(3 -2.15793e-16 0)
(3 -1.69749e-16 0)
(3 1.98823e-16 0)
(3 2.72916e-16 0)
(3 2.76897e-16 0)
(3 2.80557e-16 0)
(3 -1.78493e-16 0)
(3 -2.43504e-16 0)
(3 1.99517e-16 0)
(3 7.56483e-16 0)
(3 8.31485e-16 0)
(3 7.6677e-16 0)
(3 6.9258e-16 0)
(3 9.35435e-16 0)
(3 -1.95929e-11 0)
(2.04502 0.231785 0)
(0.87628 0.222186 0)
(0.836126 0.200262 0)
(0.874998 0.194806 0)
(0.902549 0.188133 0)
(0.934617 0.182947 0)
(0.967388 0.178145 0)
(3 -6.08499e-17 0)
(3 -2.266e-16 0)
(3 -1.69248e-16 0)
(3 -1.65683e-16 0)
(3 -1.93659e-16 0)
(3 -4.54205e-16 0)
(3 -6.11652e-16 0)
(3 5.02907e-16 0)
(3 6.39034e-16 0)
(3 7.62972e-17 0)
(3 6.08697e-16 0)
(3 1.72463e-15 0)
(3 1.93266e-15 0)
(3 1.68862e-15 0)
(3 2.70351e-16 0)
(3 -4.60567e-16 0)
(3 -1.70732e-12 0)
(2.28126 0.187624 0)
(0.900866 0.199922 0)
(0.837519 0.177658 0)
(0.87974 0.173469 0)
(0.908 0.167652 0)
(0.93906 0.162848 0)
(0.969953 0.157815 0)
(3 -2.02337e-16 0)
(3 -6.51099e-16 0)
(3 -1.02762e-15 0)
(3 -9.93307e-16 0)
(3 -1.13299e-15 0)
(3 -1.60536e-15 0)
(3 -1.86851e-15 0)
(3 -1.06642e-15 0)
(3 -5.5695e-16 0)
(3 1.87829e-16 0)
(3 7.16985e-16 0)
(3 1.12954e-15 0)
(3 1.44122e-15 0)
(3 1.30501e-15 0)
(3 1.20314e-15 0)
(3 8.18893e-16 0)
(3 -5.02463e-14 0)
(2.47041 0.146273 0)
(0.922955 0.172274 0)
(0.833858 0.152561 0)
(0.877439 0.150363 0)
(0.907217 0.146239 0)
(0.938891 0.142 0)
(0.970062 0.137506 0)
(3 -1.11663e-16 0)
(3 -1.71618e-16 0)
(3 -2.80676e-16 0)
(3 -3.26904e-16 0)
(3 -5.82639e-16 0)
(3 -5.27683e-16 0)
(3 -7.70168e-16 0)
(3 -1.35631e-15 0)
(3 -7.95524e-16 0)
(3 8.86308e-17 0)
(3 1.24741e-15 0)
(3 1.46362e-15 0)
(3 1.4548e-15 0)
(3 6.15471e-16 0)
(3 3.66166e-16 0)
(3 1.08921e-15 0)
(3 1.0129e-16 0)
(2.63133 0.108249 0)
(0.955452 0.141875 0)
(0.833122 0.128151 0)
(0.876045 0.126708 0)
(0.906264 0.12413 0)
(0.938408 0.120952 0)
(0.969898 0.117286 0)
(3 1.27331e-16 0)
(3 1.82423e-16 0)
(3 3.01463e-16 0)
(3 1.96602e-16 0)
(3 1.68583e-16 0)
(3 -1.57524e-16 0)
(3 -2.78635e-16 0)
(3 -4.33274e-16 0)
(3 2.54966e-19 0)
(3 3.43246e-17 0)
(3 4.81423e-16 0)
(3 7.52422e-16 0)
(3 1.10958e-15 0)
(3 1.1734e-15 0)
(3 3.89559e-16 0)
(3 6.22282e-16 0)
(3 6.31716e-16 0)
(2.74625 0.0664429 0)
(0.982872 0.105843 0)
(0.828754 0.102593 0)
(0.871706 0.101879 0)
(0.902051 0.10011 0)
(0.934321 0.0979531 0)
(0.965932 0.0954225 0)
(3 2.46491e-16 0)
(3 7.66035e-16 0)
(3 1.30251e-15 0)
(3 1.30519e-15 0)
(3 1.36469e-15 0)
(3 1.24351e-15 0)
(3 6.26386e-16 0)
(3 5.23545e-16 0)
(3 5.51247e-16 0)
(3 -4.12633e-16 0)
(3 -1.13701e-15 0)
(3 -8.20355e-16 0)
(3 -2.41984e-16 0)
(3 6.45083e-16 0)
(3 6.58063e-16 0)
(3 2.13221e-16 0)
(3 4.81619e-16 0)
(2.80295 0.0372332 0)
(0.992523 0.0738012 0)
(0.816816 0.0788087 0)
(0.858865 0.0788684 0)
(0.88913 0.0783133 0)
(0.921629 0.0769137 0)
(0.953704 0.0749195 0)
(3 4.48788e-18 0)
(3 6.98896e-16 0)
(3 5.02849e-16 0)
(3 2.59482e-16 0)
(3 7.01053e-17 0)
(3 6.5025e-16 0)
(3 7.52592e-16 0)
(3 5.20241e-16 0)
(3 8.0978e-17 0)
(3 -5.16192e-16 0)
(3 -5.72566e-16 0)
(3 -1.46584e-15 0)
(3 -1.80896e-15 0)
(3 -1.59186e-15 0)
(3 3.17962e-16 0)
(3 3.01462e-16 0)
(3 1.89673e-16 0)
(2.83568 0.0234141 0)
(0.999162 0.0507647 0)
(0.807327 0.055236 0)
(0.847166 0.0555261 0)
(0.876772 0.0557649 0)
(0.909079 0.0551219 0)
(0.941109 0.0539079 0)
(3 -6.27175e-17 0)
(3 -3.91982e-17 0)
(3 -1.86932e-16 0)
(3 -6.90778e-16 0)
(3 -8.24103e-16 0)
(3 -4.88948e-16 0)
(3 -7.62555e-16 0)
(3 -7.31446e-16 0)
(3 -9.35255e-16 0)
(3 -9.13158e-16 0)
(3 -1.0478e-15 0)
(3 -1.87591e-15 0)
(3 -1.89807e-15 0)
(3 -1.67911e-15 0)
(3 -7.20858e-17 0)
(3 5.82832e-16 0)
(3 1.04278e-15 0)
(2.86025 0.012254 0)
(1.00868 0.0291762 0)
(0.807908 0.0319721 0)
(0.845522 0.0321988 0)
(0.873985 0.0325061 0)
(0.905402 0.0321981 0)
(0.936723 0.0315321 0)
(3 -1.04242e-17 0)
(3 8.13285e-17 0)
(3 2.32644e-16 0)
(3 -7.98579e-17 0)
(3 -1.54094e-16 0)
(3 -4.48931e-16 0)
(3 -9.88755e-16 0)
(3 -8.57518e-16 0)
(3 -8.25269e-16 0)
(3 -7.49863e-16 0)
(3 -9.58663e-16 0)
(3 -1.44681e-15 0)
(3 -8.9433e-16 0)
(3 -4.36572e-16 0)
(3 5.90934e-17 0)
(3 6.782e-16 0)
(3 1.05482e-15 0)
(2.86779 0.00212999 0)
(1.00895 0.00680895 0)
(0.803321 0.00978702 0)
(0.838949 0.0105033 0)
(0.866407 0.0113416 0)
(0.897446 0.0115495 0)
(0.92863 0.0114898 0)
(1.2997 1.38044 0)
(0.392488 0.704552 0)
(0.0120635 0.139625 0)
(-0.00919496 -0.000700446 0)
(0.00790313 0.00331947 0)
(0.00784755 0.0233838 0)
(-0.0102023 0.0339745 0)
(-0.0233329 0.0303238 0)
(-0.0272811 0.0223326 0)
(-0.0302508 0.0140432 0)
(-0.0379206 0.00496451 0)
(-0.050356 -0.0035623 0)
(-0.0632552 -0.0101641 0)
(-0.067413 -0.0153269 0)
(-0.061087 -0.0180665 0)
(-0.0482986 -0.0189607 0)
(-0.0328247 -0.0185128 0)
(-0.0150647 -0.0178566 0)
(0.00540115 -0.0189081 0)
(0.0286802 -0.0213355 0)
(0.0529873 -0.0244583 0)
(0.0772645 -0.0274973 0)
(0.10179 -0.0297963 0)
(0.128187 -0.0311511 0)
(0.157405 -0.0320101 0)
(0.189866 -0.0328397 0)
(0.225363 -0.0340205 0)
(0.263454 -0.0356358 0)
(0.303023 -0.03733 0)
(0.342945 -0.0387169 0)
(0.382573 -0.039865 0)
(0.421709 -0.0409018 0)
(0.460746 -0.041909 0)
(0.4994 -0.0428679 0)
(0.537404 -0.0432137 0)
(0.574859 -0.0424015 0)
(0.61195 -0.0409824 0)
(0.649111 -0.0393611 0)
(0.686657 -0.0376669 0)
(0.724509 -0.0361795 0)
(0.762387 -0.0349116 0)
(0.799849 -0.0336636 0)
(0.835896 -0.0320574 0)
(0.87075 -0.0303284 0)
(0.904085 -0.0289556 0)
(0.936274 -0.0282219 0)
(0.967452 -0.0277832 0)
(0.997451 -0.0271468 0)
(1.02589 -0.0260496 0)
(1.05241 -0.0244714 0)
(1.07725 -0.0227281 0)
(1.1015 -0.0211788 0)
(1.12618 -0.0199822 0)
(1.15166 -0.0190607 0)
(1.17745 -0.0181315 0)
(1.20248 -0.0169167 0)
(1.22596 -0.0155337 0)
(1.24813 -0.0141431 0)
(1.26974 -0.0130093 0)
(1.2914 -0.012368 0)
(1.31283 -0.0120753 0)
(1.33309 -0.0117129 0)
(1.35149 -0.0110184 0)
(1.3683 -0.0101566 0)
(1.3844 -0.00926787 0)
(1.40059 -0.00852618 0)
(1.41741 -0.00801801 0)
(1.43462 -0.00757274 0)
(1.45126 -0.00695218 0)
(1.4667 -0.00619801 0)
(1.48123 -0.00543986 0)
(1.49545 -0.00482964 0)
(1.5098 -0.00436153 0)
(1.52419 -0.00387946 0)
(1.53766 -0.00331929 0)
(1.54899 -0.00260358 0)
(1.55844 -0.00178563 0)
(1.56658 -0.000951162 0)
(1.57389 -0.000341915 0)
(1.58081 0.000100251 0)
(1.58751 0.000379749 0)
(1.59231 0.000319075 0)
(1.59429 -0.000139917 0)
(1.59384 -0.000703653 0)
(1.59172 -0.00137587 0)
(1.58857 -0.00222976 0)
(1.58462 -0.00312832 0)
(1.57944 -0.0039138 0)
(1.57267 -0.00446199 0)
(1.56481 -0.00474181 0)
(1.55751 -0.00497641 0)
(1.55212 -0.00523628 0)
(1.54941 -0.0058832 0)
(1.55033 -0.00665373 0)
(1.55013 -0.00660982 0)
(1.54782 -0.00590314 0)
(1.74185 1.20281 0)
(1.29754 0.734165 0)
(0.881869 0.226515 0)
(0.544034 0.0211246 0)
(0.322921 0.033071 0)
(0.203643 0.0815633 0)
(0.135659 0.088099 0)
(0.0992721 0.0674288 0)
(0.0772503 0.0428083 0)
(0.0563137 0.0155924 0)
(0.0470385 -0.014108 0)
(0.0425337 -0.0320501 0)
(0.0377678 -0.0360515 0)
(0.0394495 -0.0341675 0)
(0.0486897 -0.0276166 0)
(0.0636999 -0.0229309 0)
(0.0811544 -0.0188931 0)
(0.100235 -0.0161941 0)
(0.12099 -0.0163321 0)
(0.14422 -0.0214465 0)
(0.171162 -0.0291308 0)
(0.200794 -0.0338229 0)
(0.231637 -0.0384873 0)
(0.262884 -0.0406898 0)
(0.294326 -0.0404836 0)
(0.327027 -0.0388385 0)
(0.362436 -0.0385581 0)
(0.40116 -0.0397477 0)
(0.442176 -0.0417757 0)
(0.48343 -0.0438119 0)
(0.523065 -0.045391 0)
(0.560785 -0.046522 0)
(0.596798 -0.0479393 0)
(0.632282 -0.0504417 0)
(0.667972 -0.0538944 0)
(0.703586 -0.0567637 0)
(0.738269 -0.0567128 0)
(0.771548 -0.0543208 0)
(0.803691 -0.0508094 0)
(0.835591 -0.047578 0)
(0.868104 -0.0456274 0)
(0.901462 -0.0444958 0)
(0.934707 -0.0422314 0)
(0.966731 -0.0383377 0)
(0.996451 -0.0334152 0)
(1.02367 -0.0298032 0)
(1.04973 -0.0291768 0)
(1.07583 -0.0310209 0)
(1.10195 -0.0333349 0)
(1.12702 -0.0336979 0)
(1.14988 -0.0315016 0)
(1.17086 -0.0282816 0)
(1.19143 -0.0256951 0)
(1.2128 -0.0245588 0)
(1.23537 -0.0247184 0)
(1.25855 -0.0249751 0)
(1.28102 -0.0239678 0)
(1.3018 -0.0213647 0)
(1.32109 -0.0179711 0)
(1.3398 -0.015674 0)
(1.3584 -0.0151901 0)
(1.37673 -0.0160517 0)
(1.39412 -0.0167654 0)
(1.40998 -0.01644 0)
(1.42471 -0.0153961 0)
(1.43924 -0.0141071 0)
(1.45418 -0.0131165 0)
(1.46962 -0.0127316 0)
(1.48508 -0.0125379 0)
(1.49979 -0.0119293 0)
(1.51348 -0.0108279 0)
(1.52654 -0.00964682 0)
(1.53943 -0.00874897 0)
(1.5524 -0.00807191 0)
(1.56512 -0.00761509 0)
(1.57635 -0.00676504 0)
(1.58562 -0.00544071 0)
(1.59355 -0.00343014 0)
(1.60081 -0.00104614 0)
(1.60748 0.00150059 0)
(1.61337 0.00383662 0)
(1.61689 0.00542208 0)
(1.61787 0.00626212 0)
(1.61676 0.00642314 0)
(1.61389 0.00582051 0)
(1.60984 0.00403465 0)
(1.60525 0.00101778 0)
(1.6006 -0.00193174 0)
(1.59561 -0.00331764 0)
(1.58924 -0.00183226 0)
(1.58197 0.00029203 0)
(1.57528 0.00121106 0)
(1.57008 0.000540988 0)
(1.56858 -0.00270248 0)
(1.57075 -0.00766024 0)
(1.57157 -0.00642831 0)
(1.68264 1.03133 0)
(1.58665 0.915016 0)
(1.51399 0.695528 0)
(1.25768 0.523019 0)
(0.937388 0.372801 0)
(0.716463 0.264178 0)
(0.58919 0.168286 0)
(0.510901 0.0966439 0)
(0.452724 0.0511996 0)
(0.399724 0.0221478 0)
(0.369973 -0.0060689 0)
(0.364508 -0.0234285 0)
(0.364616 -0.0231693 0)
(0.365399 -0.0160749 0)
(0.37244 -0.0128421 0)
(0.383812 -0.0118171 0)
(0.404672 -0.013629 0)
(0.434221 -0.0263165 0)
(0.465507 -0.0370616 0)
(0.493983 -0.0414783 0)
(0.521964 -0.0486848 0)
(0.551659 -0.0650673 0)
(0.586634 -0.0823293 0)
(0.623698 -0.0965111 0)
(0.659285 -0.105507 0)
(0.692862 -0.110024 0)
(0.72588 -0.110556 0)
(0.759608 -0.109892 0)
(0.795077 -0.110562 0)
(0.831707 -0.112428 0)
(0.867847 -0.113848 0)
(0.901344 -0.113319 0)
(0.930738 -0.110555 0)
(0.956728 -0.107003 0)
(0.981173 -0.104129 0)
(1.00548 -0.102213 0)
(1.03045 -0.101005 0)
(1.05536 -0.0990157 0)
(1.07887 -0.0949907 0)
(1.1007 -0.0894661 0)
(1.12204 -0.0841449 0)
(1.14424 -0.0803879 0)
(1.16786 -0.0785478 0)
(1.19258 -0.0774596 0)
(1.2168 -0.0750954 0)
(1.23779 -0.0700599 0)
(1.25533 -0.0634814 0)
(1.27182 -0.0577096 0)
(1.2887 -0.0543823 0)
(1.30664 -0.0531636 0)
(1.3249 -0.0515649 0)
(1.34134 -0.0479943 0)
(1.35615 -0.0433902 0)
(1.37081 -0.0388797 0)
(1.38617 -0.0355102 0)
(1.4028 -0.0338916 0)
(1.42073 -0.0332938 0)
(1.43832 -0.0319946 0)
(1.45412 -0.0295963 0)
(1.46845 -0.0269216 0)
(1.48201 -0.0244764 0)
(1.49528 -0.0227162 0)
(1.50832 -0.0217946 0)
(1.52096 -0.0209605 0)
(1.53284 -0.0198027 0)
(1.54448 -0.0183417 0)
(1.55621 -0.0167696 0)
(1.56809 -0.0155621 0)
(1.58005 -0.0148415 0)
(1.59192 -0.0142809 0)
(1.60338 -0.0134722 0)
(1.61427 -0.0123498 0)
(1.62473 -0.0111455 0)
(1.63489 -0.0104859 0)
(1.64463 -0.0107236 0)
(1.65349 -0.0117153 0)
(1.66089 -0.0127993 0)
(1.66699 -0.0135418 0)
(1.67226 -0.0142805 0)
(1.67713 -0.0151259 0)
(1.6813 -0.01591 0)
(1.68392 -0.0171394 0)
(1.68409 -0.017611 0)
(1.68235 -0.0172268 0)
(1.67899 -0.0168201 0)
(1.67426 -0.0165013 0)
(1.66884 -0.0167634 0)
(1.6635 -0.0182975 0)
(1.65884 -0.0204667 0)
(1.6551 -0.0216112 0)
(1.65016 -0.0200349 0)
(1.64352 -0.0160077 0)
(1.63733 -0.0100577 0)
(1.63338 -0.00663395 0)
(1.63074 -0.00766074 0)
(1.63157 -0.0132247 0)
(1.5934 0.944918 0)
(1.62207 0.860755 0)
(1.70675 0.746617 0)
(1.74378 0.603139 0)
(1.57977 0.4653 0)
(1.41918 0.335553 0)
(1.29098 0.225802 0)
(1.17495 0.149274 0)
(1.0787 0.101296 0)
(1.00224 0.0760588 0)
(0.938797 0.0610303 0)
(0.905064 0.0295643 0)
(0.903101 -0.00498856 0)
(0.904145 -0.0289173 0)
(0.905874 -0.0390352 0)
(0.910952 -0.0489779 0)
(0.92398 -0.0672475 0)
(0.948542 -0.0876006 0)
(0.981437 -0.105651 0)
(1.01271 -0.118165 0)
(1.0394 -0.123076 0)
(1.06363 -0.12188 0)
(1.08877 -0.121133 0)
(1.11697 -0.122953 0)
(1.14694 -0.125962 0)
(1.176 -0.126235 0)
(1.20196 -0.123755 0)
(1.22431 -0.11917 0)
(1.24497 -0.1153 0)
(1.26592 -0.114008 0)
(1.28779 -0.114866 0)
(1.30928 -0.116172 0)
(1.32818 -0.115997 0)
(1.34315 -0.113292 0)
(1.35509 -0.108614 0)
(1.36632 -0.10299 0)
(1.3784 -0.0974685 0)
(1.39164 -0.0929666 0)
(1.40532 -0.0891281 0)
(1.41802 -0.0848348 0)
(1.42964 -0.0800597 0)
(1.4411 -0.0748213 0)
(1.45342 -0.0696592 0)
(1.4672 -0.0653339 0)
(1.48234 -0.0624202 0)
(1.49609 -0.060048 0)
(1.50629 -0.0583792 0)
(1.51509 -0.0565031 0)
(1.52367 -0.0524617 0)
(1.53359 -0.0479261 0)
(1.5452 -0.0435229 0)
(1.5566 -0.0396051 0)
(1.56664 -0.0370292 0)
(1.57638 -0.0345048 0)
(1.58631 -0.030902 0)
(1.59706 -0.0261342 0)
(1.60912 -0.0210636 0)
(1.62142 -0.0166681 0)
(1.63208 -0.0147047 0)
(1.64208 -0.0140845 0)
(1.65146 -0.0136141 0)
(1.66035 -0.0124261 0)
(1.66891 -0.0105289 0)
(1.67729 -0.00828619 0)
(1.68547 -0.00616221 0)
(1.69354 -0.00501157 0)
(1.7016 -0.00443382 0)
(1.70977 -0.00337729 0)
(1.71828 -0.00170015 0)
(1.72683 -5.60537e-06 0)
(1.73518 0.00139312 0)
(1.74317 0.0020421 0)
(1.75059 0.00223469 0)
(1.75751 0.00293964 0)
(1.76413 0.00406054 0)
(1.77032 0.00511614 0)
(1.77554 0.00565746 0)
(1.77936 0.00556475 0)
(1.78173 0.00458008 0)
(1.78427 0.00330197 0)
(1.786 0.000639911 0)
(1.78739 -0.0033569 0)
(1.78733 -0.00758602 0)
(1.78496 -0.0102143 0)
(1.78112 -0.0116288 0)
(1.77588 -0.0131356 0)
(1.76989 -0.014878 0)
(1.76386 -0.0161407 0)
(1.7583 -0.0175561 0)
(1.75402 -0.0200445 0)
(1.75119 -0.0226442 0)
(1.74759 -0.022654 0)
(1.74189 -0.0204881 0)
(1.73635 -0.0153207 0)
(1.7328 -0.00994709 0)
(1.729 -0.00926436 0)
(1.50632 0.818147 0)
(1.56541 0.765495 0)
(1.66415 0.689386 0)
(1.77447 0.607079 0)
(1.78924 0.509596 0)
(1.76245 0.432953 0)
(1.73327 0.363799 0)
(1.67758 0.294457 0)
(1.60306 0.233187 0)
(1.54948 0.178399 0)
(1.50403 0.129012 0)
(1.45941 0.0793684 0)
(1.44443 0.0260559 0)
(1.44587 -0.0250422 0)
(1.44028 -0.0583427 0)
(1.43586 -0.0771285 0)
(1.43907 -0.0869829 0)
(1.44688 -0.0985841 0)
(1.46238 -0.115795 0)
(1.48284 -0.132723 0)
(1.49818 -0.141963 0)
(1.50803 -0.145866 0)
(1.51685 -0.148714 0)
(1.52772 -0.152214 0)
(1.54165 -0.156648 0)
(1.5567 -0.160511 0)
(1.5699 -0.162023 0)
(1.57919 -0.160357 0)
(1.58539 -0.157258 0)
(1.59116 -0.154412 0)
(1.59801 -0.152454 0)
(1.60589 -0.151216 0)
(1.61365 -0.149223 0)
(1.6194 -0.145129 0)
(1.62283 -0.139528 0)
(1.6258 -0.133393 0)
(1.62958 -0.127711 0)
(1.63418 -0.123569 0)
(1.64006 -0.119885 0)
(1.64677 -0.114653 0)
(1.65327 -0.106783 0)
(1.65911 -0.0976198 0)
(1.6649 -0.0899059 0)
(1.67202 -0.085503 0)
(1.68048 -0.0828377 0)
(1.68846 -0.0805391 0)
(1.6952 -0.0776557 0)
(1.70163 -0.0713654 0)
(1.70751 -0.0635433 0)
(1.71355 -0.057696 0)
(1.72056 -0.0548163 0)
(1.72805 -0.0538123 0)
(1.7354 -0.052071 0)
(1.74323 -0.0483732 0)
(1.75172 -0.0429442 0)
(1.76044 -0.0372871 0)
(1.76901 -0.0330242 0)
(1.77715 -0.0303621 0)
(1.78465 -0.0286313 0)
(1.79175 -0.026962 0)
(1.79892 -0.0249352 0)
(1.8061 -0.0230516 0)
(1.81293 -0.021076 0)
(1.81912 -0.0190165 0)
(1.82462 -0.0171034 0)
(1.82986 -0.0153914 0)
(1.83551 -0.0141077 0)
(1.84174 -0.0136083 0)