2 	-4.90934 	1.15829e-17 	-0.103309
2 	-4.7312 	1.49656e-17 	-0.103708
2 	-4.55927 	1.86952e-17 	-0.104463
2 	-4.39335 	2.39861e-17 	-0.105549
2 	-4.23322 	2.49402e-17 	-0.106937
2 	-4.07868 	2.06034e-17 	-0.108605
2 	-3.92954 	1.82615e-17 	-0.110534
2 	-3.78561 	1.76544e-17 	-0.112707
2 	-3.6467 	1.50523e-17 	-0.115108
2 	-3.51265 	1.07155e-17 	-0.117722
2 	-3.38328 	6.37868e-18 	-0.120538
2 	-3.25842 	5.77153e-18 	-0.123542
2 	-3.13793 	7.15931e-18 	-0.126722
2 	-3.02164 	5.25111e-18 	-0.130066
2 	-2.90941 	8.37362e-18 	-0.133563
2 	-2.80111 	1.23635e-17 	-0.137201
2 	-2.69658 	1.30574e-17 	-0.140969
2 	-2.59571 	1.11492e-17 	-0.144854
2 	-2.49835 	1.01083e-17 	-0.148845
2 	-2.4044 	1.73942e-17 	-0.15293
2 	-2.31373 	1.70472e-17 	-0.157097
2 	-2.22623 	1.47054e-17 	-0.161334
2 	-2.14178 	1.36645e-17 	-0.165629
2 	-2.06028 	1.28839e-17 	-0.169971
2 	-1.98162 	1.60931e-17 	-0.174349
2 	-1.90572 	1.90422e-17 	-0.178753
2 	-1.83246 	1.67003e-17 	-0.18317
2 	-1.76176 	9.32771e-18 	-0.187592
2 	-1.69353 	5.25111e-18 	-0.192008
2 	-1.62769 	6.8991e-18 	-0.196407
2 	-1.56414 	1.02818e-17 	-0.200779
2 	-1.50281 	1.16696e-17 	-0.205115
2 	-1.44363 	9.32771e-18 	-0.209402
2 	-1.38651 	6.72563e-18 	-0.21363
2 	-1.33138 	6.29195e-18 	-0.217781
2 	-1.27818 	2.36535e-18 	-0.221832
2 	-1.22684 	-1.60104e-18 	-0.225754
2 	-1.17729 	-1.94799e-18 	-0.229529
2 	-1.12947 	1.8684e-18 	-0.233138
2 	-1.08332 	1.69493e-18 	-0.236365
2 	-1.04642 	3.06378e-18 	-0.238339
2 	-1.02058 	-8.09353e-18 	-0.240288
2 	-1.00602 	-1.28188e-17 	-0.24086
2 	-0.988166 	-1.94388e-17 	-0.242483
2 	-0.958082 	-2.46438e-17 	-0.243909
2 	-0.927383 	-2.50436e-17 	-0.245201
2 	-0.910757 	-1.34411e-17 	-0.246327
2 	-0.894961 	-2.80226e-18 	-0.247169
2 	-0.864208 	-5.50908e-18 	-0.248197
2 	-0.831768 	-9.04894e-18 	-0.249054
2 	-0.803909 	1.92437e-18 	-0.249748
2 	-0.787284 	1.07235e-17 	-0.250704
2 	-0.765275 	9.83199e-18 	-0.251296
2 	-0.731263 	8.66268e-18 	-0.251746
2 	-0.696767 	6.96501e-18 	-0.25207
2 	-0.663997 	-4.39948e-19 	-0.252287
2 	-0.646405 	-5.76388e-18 	-0.253328
2 	-0.62641 	-6.61469e-18 	-0.253477
2 	-0.590594 	-6.53353e-18 	-0.253544
2 	-0.554381 	-4.64056e-18 	-0.253544
2 	-0.517797 	-4.75353e-18 	-0.253488
2 	-0.480864 	4.89868e-18 	-0.253387
2 	-0.457793 	6.57475e-18 	-0.253252
2 	-0.439086 	1.2275e-18 	-0.254328
2 	-0.406049 	1.79659e-19 	-0.254175
2 	-0.368216 	1.57118e-19 	-0.254002
2 	-0.330134 	-1.56969e-18 	-0.253819
2 	-0.291827 	-6.45776e-18 	-0.253633
2 	-0.253321 	-5.51023e-18 	-0.253452
2 	-0.214642 	-1.64319e-18 	-0.253283
2 	-0.175817 	1.05165e-19 	-0.253133
2 	-0.136871 	-5.86055e-19 	-0.253007
2 	-0.0978321 	-5.44367e-18 	-0.252909
2 	-0.0587261 	-4.76141e-18 	-0.252844
2 	-0.0195798 	-3.42279e-18 	-0.252814
2 	0.0195798 	-3.02637e-18 	-0.252819
2 	0.0587261 	7.03471e-18 	-0.252862
2 	0.0978321 	6.81235e-18 	-0.252939
2 	0.136871 	1.64286e-18 	-0.253048
2 	0.175817 	4.61545e-18 	-0.253187
2 	0.214642 	4.60181e-18 	-0.25335
2 	0.253321 	3.33686e-18 	-0.253531
2 	0.291827 	1.17411e-18 	-0.253725
2 	0.330134 	-1.73472e-18 	-0.253924
2 	0.368216 	-3.46945e-18 	-0.25412
2 	0.406049 	-3.1225e-18 	-0.254306
2 	0.439086 	3.46945e-19 	-0.25447
2 	0.457793 	-1.44984e-18 	-0.253342
2 	0.480864 	-3.93711e-18 	-0.253486
2 	0.517797 	1.16066e-17 	-0.253596
2 	0.554381 	1.17099e-17 	-0.253659
2 	0.590594 	1.11022e-17 	-0.253666
2 	0.62641 	1.14492e-17 	-0.253603
2 	0.646405 	9.19489e-18 	-0.253457
2 	0.663997 	-7.71325e-18 	-0.252347
2 	0.696767 	6.95076e-18 	-0.252133
2 	0.731263 	1.05141e-17 	-0.25181
2 	0.765275 	9.36751e-18 	-0.25136
2 	0.787284 	9.11309e-18 	-0.250768
2 	0.803909 	1.71855e-18 	-0.249736
2 	0.831768 	-6.25262e-18 	-0.249043
2 	0.864208 	-4.26807e-18 	-0.248187
2 	0.894961 	-3.1225e-18 	-0.24716
2 	0.910757 	-5.51072e-18 	-0.24624
2 	0.927383 	-1.50798e-18 	-0.245117
2 	0.958082 	3.37754e-18 	-0.24383
2 	0.988166 	2.42861e-18 	-0.242409
2 	1.00602 	5.84633e-19 	-0.240794
2 	1.02058 	-2.33141e-19 	-0.24015
2 	1.04642 	1.09242e-17 	-0.238208
2 	1.08332 	1.52656e-17 	-0.23623
2 	1.12947 	1.97758e-17 	-0.23299
2 	1.17729 	2.1834e-17 	-0.229367
2 	1.22684 	-1.38778e-18 	-0.22558
2 	1.27818 	-1.38778e-18 	-0.221651
2 	1.33138 	-9.02056e-18 	-0.217594
2 	1.38651 	-1.14492e-17 	-0.213441
2 	1.44363 	-1.249e-17 	-0.209212
2 	1.50281 	-1.21431e-17 	-0.204926
2 	1.56414 	-1.04083e-17 	-0.200593
2 	1.62769 	-7.28584e-18 	-0.196225
2 	1.69353 	-4.16334e-18 	-0.191831
2 	1.76176 	-6.245e-18 	-0.187421
2 	1.83246 	-1.14492e-17 	-0.183007
2 	1.90572 	-1.2837e-17 	-0.178597
2 	1.98162 	-1.00614e-17 	-0.174202
2 	2.06028 	-6.245e-18 	-0.169833
2 	2.14178 	-6.245e-18 	-0.1655
2 	2.22623 	-7.28584e-18 	-0.161215
2 	2.31373 	-6.59195e-18 	-0.156987
2 	2.4044 	-8.32667e-18 	-0.15283
2 	2.49835 	-7.28584e-18 	-0.148754
2 	2.59571 	-8.32667e-18 	-0.144772
2 	2.69658 	-1.11022e-17 	-0.140896
2 	2.80111 	-1.42247e-17 	-0.137137
2 	2.90941 	-1.59595e-17 	-0.133507
2 	3.02164 	-1.76942e-17 	-0.130017
2 	3.13793 	-2.08167e-17 	-0.12668
2 	3.25842 	-1.9082e-17 	-0.123507
2 	3.38328 	-1.83881e-17 	-0.120509
2 	3.51265 	-2.39392e-17 	-0.117699
2 	3.6467 	-2.81025e-17 	-0.115089
2 	3.78561 	-2.91434e-17 	-0.112693
2 	3.92954 	-3.05311e-17 	-0.110524
2 	4.07868 	-3.33067e-17 	-0.108598
2 	4.23322 	-3.747e-17 	-0.106933
2 	4.39335 	-3.747e-17 	-0.105547
2 	4.55927 	-3.46945e-17 	-0.104463
2 	4.7312 	-3.33067e-17 	-0.103708
2 	4.90934 	-3.02944e-17 	-0.103311
