2 	-4.90934 	1.15829e-17 	-0.100268
2 	-4.7312 	1.49656e-17 	-0.100665
2 	-4.55927 	1.86952e-17 	-0.101417
2 	-4.39335 	2.39861e-17 	-0.102499
2 	-4.23322 	2.49402e-17 	-0.10388
2 	-4.07868 	2.06034e-17 	-0.105541
2 	-3.92954 	1.82615e-17 	-0.10746
2 	-3.78561 	1.76544e-17 	-0.109621
2 	-3.6467 	1.50523e-17 	-0.112009
2 	-3.51265 	1.07155e-17 	-0.114608
2 	-3.38328 	6.37868e-18 	-0.117406
2 	-3.25842 	5.77153e-18 	-0.12039
2 	-3.13793 	7.15931e-18 	-0.123547
2 	-3.02164 	5.25111e-18 	-0.126866
2 	-2.90941 	8.37362e-18 	-0.130336
2 	-2.80111 	1.23635e-17 	-0.133943
2 	-2.69658 	1.30574e-17 	-0.137676
2 	-2.59571 	1.11492e-17 	-0.141525
2 	-2.49835 	1.01083e-17 	-0.145475
2 	-2.4044 	1.73942e-17 	-0.149517
2 	-2.31373 	1.70472e-17 	-0.153636
2 	-2.22623 	1.47054e-17 	-0.157823
2 	-2.14178 	1.36645e-17 	-0.162065
2 	-2.06028 	1.28839e-17 	-0.166351
2 	-1.98162 	1.60931e-17 	-0.17067
2 	-1.90572 	1.90422e-17 	-0.17501
2 	-1.83246 	1.67003e-17 	-0.179363
2 	-1.76176 	9.32771e-18 	-0.183717
2 	-1.69353 	5.25111e-18 	-0.188063
2 	-1.62769 	6.8991e-18 	-0.192391
2 	-1.56414 	1.02818e-17 	-0.19669
2 	-1.50281 	1.16696e-17 	-0.200951
2 	-1.44363 	9.32771e-18 	-0.205164
2 	-1.38651 	6.72563e-18 	-0.209316
2 	-1.33138 	6.29195e-18 	-0.213393
2 	-1.27818 	2.36535e-18 	-0.217371
2 	-1.22684 	-1.60104e-18 	-0.221222
2 	-1.17729 	-1.94799e-18 	-0.224933
2 	-1.12947 	1.8684e-18 	-0.228485
2 	-1.08332 	1.69493e-18 	-0.231656
2 	-1.04642 	3.06378e-18 	-0.233582
2 	-1.02058 	-8.09353e-18 	-0.235442
2 	-1.00602 	-1.28188e-17 	-0.236234
2 	-0.988166 	-1.94388e-17 	-0.237767
2 	-0.958082 	-2.46438e-17 	-0.239113
2 	-0.927383 	-2.50436e-17 	-0.240328
2 	-0.910757 	-1.34411e-17 	-0.241382
2 	-0.894961 	-2.80226e-18 	-0.242478
2 	-0.864208 	-5.50908e-18 	-0.243448
2 	-0.831768 	-9.04894e-18 	-0.244253
2 	-0.803909 	1.92437e-18 	-0.244902
2 	-0.787284 	1.07235e-17 	-0.246125
2 	-0.765275 	9.83199e-18 	-0.246684
2 	-0.731263 	8.66268e-18 	-0.247108
2 	-0.696767 	6.96501e-18 	-0.247413
2 	-0.663997 	-4.39948e-19 	-0.247616
2 	-0.646405 	-5.76388e-18 	-0.248922
2 	-0.62641 	-6.61469e-18 	-0.249065
2 	-0.590594 	-6.53353e-18 	-0.249132
2 	-0.554381 	-4.64056e-18 	-0.249138
2 	-0.517797 	-4.75353e-18 	-0.249096
2 	-0.480864 	4.89868e-18 	-0.249018
2 	-0.457793 	6.57475e-18 	-0.248913
2 	-0.439086 	1.2275e-18 	-0.250204
2 	-0.406049 	1.79659e-19 	-0.250079
2 	-0.368216 	1.57118e-19 	-0.249943
2 	-0.330134 	-1.56969e-18 	-0.249805
2 	-0.291827 	-6.45776e-18 	-0.249671
2 	-0.253321 	-5.51023e-18 	-0.249551
2 	-0.214642 	-1.64319e-18 	-0.249449
2 	-0.175817 	1.05165e-19 	-0.249372
2 	-0.136871 	-5.86055e-19 	-0.249326
2 	-0.0978321 	-5.44367e-18 	-0.249317
2 	-0.0587261 	-4.76141e-18 	-0.249325
2 	-0.0195798 	-3.42279e-18 	-0.249392
2 	0.0195798 	-3.02637e-18 	-0.249489
2 	0.0587261 	7.03471e-18 	-0.249619
2 	0.0978321 	6.81235e-18 	-0.249783
2 	0.136871 	1.64286e-18 	-0.249976
2 	0.175817 	4.61545e-18 	-0.250193
2 	0.214642 	4.60181e-18 	-0.250429
2 	0.253321 	3.33686e-18 	-0.250678
2 	0.291827 	1.17411e-18 	-0.250931
2 	0.330134 	-1.73472e-18 	-0.251182
2 	0.368216 	-3.46945e-18 	-0.251422
2 	0.406049 	-3.1225e-18 	-0.251644
2 	0.439086 	3.46945e-19 	-0.251837
2 	0.457793 	-1.44984e-18 	-0.250923
2 	0.480864 	-3.93711e-18 	-0.251099
2 	0.517797 	1.16066e-17 	-0.25123
2 	0.554381 	1.17099e-17 	-0.251307
2 	0.590594 	1.11022e-17 	-0.25132
2 	0.62641 	1.14492e-17 	-0.251257
2 	0.646405 	9.19489e-18 	-0.251106
2 	0.663997 	-7.71325e-18 	-0.25026
2 	0.696767 	6.95076e-18 	-0.250034
2 	0.731263 	1.05141e-17 	-0.249692
2 	0.765275 	9.36751e-18 	-0.249218
2 	0.787284 	9.11309e-18 	-0.248596
2 	0.803909 	1.71855e-18 	-0.247829
2 	0.831768 	-6.25262e-18 	-0.247095
2 	0.864208 	-4.26807e-18 	-0.246192
2 	0.894961 	-3.1225e-18 	-0.245112
2 	0.910757 	-5.51072e-18 	-0.244443
2 	0.927383 	-1.50798e-18 	-0.243254
2 	0.958082 	3.37754e-18 	-0.241897
2 	0.988166 	2.42861e-18 	-0.240403
2 	1.00602 	5.84633e-19 	-0.238707
2 	1.02058 	-2.33141e-19 	-0.23828
2 	1.04642 	1.09242e-17 	-0.236258
2 	1.08332 	1.52656e-17 	-0.234237
2 	1.12947 	1.97758e-17 	-0.230954
2 	1.17729 	2.1834e-17 	-0.227287
2 	1.22684 	-1.38778e-18 	-0.223448
2 	1.27818 	-1.38778e-18 	-0.219462
2 	1.33138 	-9.02056e-18 	-0.215346
2 	1.38651 	-1.14492e-17 	-0.211131
2 	1.44363 	-1.249e-17 	-0.206842
2 	1.50281 	-1.21431e-17 	-0.202495
2 	1.56414 	-1.04083e-17 	-0.198102
2 	1.62769 	-7.28584e-18 	-0.193674
2 	1.69353 	-4.16334e-18 	-0.189223
2 	1.76176 	-6.245e-18 	-0.184759
2 	1.83246 	-1.14492e-17 	-0.180291
2 	1.90572 	-1.2837e-17 	-0.175831
2 	1.98162 	-1.00614e-17 	-0.171389
2 	2.06028 	-6.245e-18 	-0.166975
2 	2.14178 	-6.245e-18 	-0.1626
2 	2.22623 	-7.28584e-18 	-0.158276
2 	2.31373 	-6.59195e-18 	-0.154013
2 	2.4044 	-8.32667e-18 	-0.149823
2 	2.49835 	-7.28584e-18 	-0.145718
2 	2.59571 	-8.32667e-18 	-0.14171
2 	2.69658 	-1.11022e-17 	-0.13781
2 	2.80111 	-1.42247e-17 	-0.134031
2 	2.90941 	-1.59595e-17 	-0.130383
2 	3.02164 	-1.76942e-17 	-0.126878
2 	3.13793 	-2.08167e-17 	-0.123528
2 	3.25842 	-1.9082e-17 	-0.120344
2 	3.38328 	-1.83881e-17 	-0.117338
2 	3.51265 	-2.39392e-17 	-0.114521
2 	3.6467 	-2.81025e-17 	-0.111906
2 	3.78561 	-2.91434e-17 	-0.109505
2 	3.92954 	-3.05311e-17 	-0.107334
2 	4.07868 	-3.33067e-17 	-0.105406
2 	4.23322 	-3.747e-17 	-0.103739
2 	4.39335 	-3.747e-17 	-0.102353
2 	4.55927 	-3.46945e-17 	-0.101268
2 	4.7312 	-3.33067e-17 	-0.100514
2 	4.90934 	-3.02944e-17 	-0.100116
