/*--------------------------------*- C++ -*----------------------------------*\
  =========                 |
  \\      /  F ield         | OpenFOAM: The Open Source CFD Toolbox
   \\    /   O peration     | Website:  https://openfoam.org
    \\  /    A nd           | Version:  7
     \\/     M anipulation  |
\*---------------------------------------------------------------------------*/
FoamFile
{
    version     2.0;
    format      ascii;
    class       volScalarField;
    location    "135";
    object      p;
}
// * * * * * * * * * * * * * * * * * * * * * * * * * * * * * * * * * * * * * //

dimensions      [0 2 -2 0 0 0 0];

internalField   nonuniform List<scalar> 
31800
(
-0.373975
-0.376643
-0.37801
-0.379123
-0.380225
-0.381418
-0.382793
-0.384385
-0.386194
-0.38819
-0.390318
-0.392494
-0.394602
-0.396493
-0.397989
-0.398884
-0.398957
-0.397994
-0.395818
-0.392335
-0.38759
-0.381835
-0.375581
-0.369493
-0.36445
-0.380595
-0.383175
-0.38456
-0.385766
-0.38704
-0.38849
-0.390209
-0.392234
-0.394564
-0.39717
-0.399993
-0.402944
-0.405891
-0.408666
-0.411052
-0.412791
-0.413593
-0.413149
-0.41117
-0.407433
-0.401846
-0.394533
-0.38592
-0.376612
-0.367393
-0.387407
-0.389856
-0.391241
-0.392527
-0.393964
-0.395667
-0.397727
-0.400183
-0.403034
-0.40625
-0.409771
-0.413498
-0.41729
-0.420954
-0.424238
-0.426834
-0.428375
-0.428462
-0.426688
-0.422699
-0.416259
-0.407355
-0.396313
-0.383656
-0.370019
-0.394371
-0.396648
-0.398012
-0.399365
-0.400953
-0.402898
-0.405291
-0.408168
-0.411531
-0.415348
-0.419556
-0.42405
-0.428676
-0.433219
-0.437392
-0.440831
-0.443101
-0.443705
-0.442124
-0.437867
-0.430552
-0.420027
-0.406504
-0.390429
-0.372212
-0.401443
-0.403507
-0.404831
-0.406233
-0.407958
-0.41013
-0.41284
-0.416123
-0.41998
-0.424379
-0.429252
-0.434489
-0.439923
-0.445316
-0.450344
-0.454592
-0.457553
-0.458637
-0.457209
-0.452647
-0.444423
-0.432245
-0.416206
-0.39671
-0.373818
-0.408574
-0.410389
-0.41165
-0.413083
-0.414926
-0.417305
-0.420311
-0.423978
-0.428303
-0.433253
-0.438758
-0.444701
-0.450899
-0.457093
-0.462923
-0.467922
-0.471512
-0.473012
-0.471674
-0.466746
-0.457564
-0.443702
-0.425119
-0.402268
-0.374688
-0.415711
-0.417243
-0.418423
-0.419866
-0.421804
-0.424367
-0.427641
-0.43166
-0.43642
-0.441882
-0.447974
-0.45457
-0.461476
-0.468403
-0.474961
-0.480631
-0.484765
-0.486593
-0.485259
-0.479887
-0.469687
-0.45411
-0.432965
-0.406885
-0.374708
-0.4228
-0.424023
-0.425099
-0.426532
-0.42854
-0.431257
-0.434767
-0.439101
-0.444251
-0.450178
-0.456801
-0.463986
-0.471524
-0.479105
-0.486301
-0.492544
-0.497117
-0.499167
-0.497732
-0.491825
-0.480538
-0.463225
-0.439521
-0.410401
-0.373697
-0.429787
-0.430679
-0.431634
-0.433032
-0.435082
-0.437921
-0.441628
-0.446233
-0.451724
-0.458057
-0.465145
-0.472845
-0.480931
-0.489071
-0.4968
-0.503503
-0.508397
-0.510548
-0.5089
-0.502357
-0.489915
-0.470866
-0.444622
-0.412785
-0.371363
-0.43662
-0.437166
-0.437982
-0.439322
-0.441384
-0.444307
-0.448169
-0.452995
-0.45877
-0.465444
-0.472924
-0.481055
-0.489595
-0.498189
-0.506338
-0.513377
-0.518464
-0.52059
-0.518609
-0.511335
-0.497674
-0.476915
-0.448158
-0.413845
-0.368181
-0.44325
-0.443441
-0.444102
-0.445362
-0.447403
-0.45037
-0.454339
-0.459331
-0.465328
-0.472274
-0.480066
-0.488538
-0.497431
-0.506368
-0.514815
-0.522063
-0.527211
-0.529182
-0.526752
-0.518657
-0.503718
-0.481224
-0.450272
-0.41351
-0.364328
-0.449631
-0.449468
-0.449961
-0.451115
-0.453104
-0.456073
-0.460098
-0.465197
-0.47135
-0.478492
-0.486512
-0.495231
-0.504374
-0.513539
-0.52216
-0.52949
-0.534568
-0.536258
-0.533265
-0.52427
-0.50802
-0.483877
-0.450826
-0.411919
-0.360022
-0.455724
-0.455214
-0.455529
-0.456555
-0.458456
-0.461384
-0.465411
-0.470557
-0.476796
-0.484058
-0.49222
-0.501091
-0.510379
-0.519658
-0.528333
-0.535613
-0.540495
-0.541783
-0.538124
-0.528161
-0.510588
-0.48489
-0.449889
-0.409254
-0.355249
-0.461499
-0.460654
-0.460783
-0.46166
-0.463441
-0.466282
-0.470258
-0.475389
-0.481643
-0.488945
-0.497162
-0.506091
-0.515422
-0.524704
-0.533314
-0.540424
-0.544988
-0.54576
-0.541339
-0.530351
-0.511459
-0.484313
-0.447574
-0.405616
-0.350109
-0.466929
-0.465772
-0.46571
-0.466418
-0.468045
-0.470756
-0.474626
-0.479677
-0.485876
-0.493141
-0.501331
-0.510226
-0.5195
-0.52868
-0.537114
-0.543939
-0.54807
-0.548218
-0.542948
-0.530889
-0.510698
-0.482221
-0.444005
-0.401095
-0.344718
-0.472
-0.470557
-0.470302
-0.470824
-0.472267
-0.474803
-0.478515
-0.483425
-0.489499
-0.496652
-0.504732
-0.513507
-0.522632
-0.531611
-0.539765
-0.546199
-0.549789
-0.549214
-0.543014
-0.529846
-0.50839
-0.478713
-0.439313
-0.395794
-0.339181
-0.476705
-0.475008
-0.47456
-0.474881
-0.476111
-0.478433
-0.481934
-0.486643
-0.492527
-0.499497
-0.507392
-0.515966
-0.524856
-0.533544
-0.541323
-0.547265
-0.550214
-0.548821
-0.541619
-0.527312
-0.504642
-0.473905
-0.433635
-0.389827
-0.33358
-0.481046
-0.479129
-0.478493
-0.478601
-0.479593
-0.481661
-0.484903
-0.489356
-0.494989
-0.501708
-0.509348
-0.517648
-0.526226
-0.534542
-0.541858
-0.547216
-0.549428
-0.547128
-0.538858
-0.523393
-0.499575
-0.467931
-0.427113
-0.383324
-0.327982
-0.485034
-0.482935
-0.482117
-0.482002
-0.482734
-0.484514
-0.487454
-0.491599
-0.496924
-0.503334
-0.510656
-0.518615
-0.526813
-0.534681
-0.541455
-0.546141
-0.547525
-0.544233
-0.534836
-0.518203
-0.493322
-0.460939
-0.419895
-0.376421
-0.322438
-0.488687
-0.486446
-0.485454
-0.48511
-0.485562
-0.487026
-0.489625
-0.493417
-0.498384
-0.504432
-0.51138
-0.518942
-0.526696
-0.53405
-0.540205
-0.544135
-0.544603
-0.540238
-0.529665
-0.511871
-0.486029
-0.45309
-0.412129
-0.369257
-0.316988
-0.492034
-0.489689
-0.488532
-0.487955
-0.488113
-0.489236
-0.491462
-0.494863
-0.49943
-0.50507
-0.511597
-0.518711
-0.525966
-0.532742
-0.538205
-0.541296
-0.540761
-0.535247
-0.52346
-0.504531
-0.477853
-0.444554
-0.403963
-0.361959
-0.311663
-0.495109
-0.492697
-0.491385
-0.490573
-0.490427
-0.49119
-0.493018
-0.495996
-0.500128
-0.505324
-0.511389
-0.518009
-0.524716
-0.530853
-0.53555
-0.537718
-0.536094
-0.529363
-0.516341
-0.496327
-0.468958
-0.435502
-0.395541
-0.354642
-0.306481
-0.497954
-0.495506
-0.494049
-0.493003
-0.492546
-0.492937
-0.494348
-0.496882
-0.500552
-0.505272
-0.510843
-0.51693
-0.523038
-0.528475
-0.532331
-0.53349
-0.530694
-0.522689
-0.508434
-0.48741
-0.459514
-0.426103
-0.386998
-0.347396
-0.301448
-0.500616
-0.49816
-0.496566
-0.495289
-0.494519
-0.494531
-0.495513
-0.497587
-0.500777
-0.504999
-0.510045
-0.515563
-0.521023
-0.525695
-0.52863
-0.528692
-0.524648
-0.515329
-0.499867
-0.477935
-0.44969
-0.416515
-0.378455
-0.340292
-0.29656
-0.503146
-0.500703
-0.498981
-0.497475
-0.496394
-0.496024
-0.496574
-0.49818
-0.500877
-0.504584
-0.50908
-0.513991
-0.518752
-0.522588
-0.524519
-0.523397
-0.518037
-0.507389
-0.490776
-0.468063
-0.439648
-0.406877
-0.370017
-0.333376
-0.29181
-0.505601
-0.503184
-0.501338
-0.499609
-0.49822
-0.497472
-0.497591
-0.498728
-0.500926
-0.504103
-0.508027
-0.512292
-0.516295
-0.519221
-0.520057
-0.51767
-0.510947
-0.49898
-0.481299
-0.45795
-0.429538
-0.397305
-0.36176
-0.32666
-0.287165
-0.508037
-0.50565
-0.503684
-0.501736
-0.500046
-0.498928
-0.498623
-0.499295
-0.500992
-0.503628
-0.506953
-0.510528
-0.51371
-0.515642
-0.515297
-0.511573
-0.50346
-0.490216
-0.471577
-0.447747
-0.419493
-0.387891
-0.353731
-0.320082
-0.282527
-0.510512
-0.508152
-0.506065
-0.503903
-0.501921
-0.500444
-0.499726
-0.499939
-0.501135
-0.503219
-0.505915
-0.508751
-0.511039
-0.511891
-0.510281
-0.505165
-0.495662
-0.481213
-0.461746
-0.437597
-0.409629
-0.37872
-0.345942
-0.313461
-0.277718
-0.513084
-0.510736
-0.508527
-0.506154
-0.50389
-0.502066
-0.500948
-0.500712
-0.501407
-0.502923
-0.504956
-0.506994
-0.50831
-0.507995
-0.505046
-0.498506
-0.487644
-0.472087
-0.451934
-0.427623
-0.400048
-0.369892
-0.338422
-0.306601
-0.272696
-0.515807
-0.51345
-0.511112
-0.508532
-0.505994
-0.503838
-0.502334
-0.501657
-0.501849
-0.502776
-0.504103
-0.505278
-0.505539
-0.503973
-0.499627
-0.491656
-0.479493
-0.462946
-0.442255
-0.417926
-0.390833
-0.361511
-0.331259
-0.299717
-0.267822
-0.518732
-0.516334
-0.51386
-0.511073
-0.508271
-0.505797
-0.503918
-0.502807
-0.502487
-0.502799
-0.50337
-0.503609
-0.502731
-0.499842
-0.49406
-0.484677
-0.471295
-0.453888
-0.4328
-0.408579
-0.382038
-0.353629
-0.324557
-0.293748
-0.263793
-0.521903
-0.519428
-0.516805
-0.513812
-0.510753
-0.507971
-0.505729
-0.504184
-0.503339
-0.503
-0.502756
-0.501982
-0.499886
-0.495612
-0.48838
-0.47763
-0.463131
-0.444995
-0.423643
-0.399627
-0.373692
-0.346227
-0.318283
-0.288905
-0.261059
-0.525359
-0.522765
-0.519978
-0.516776
-0.513464
-0.510383
-0.507783
-0.5058
-0.504408
-0.503375
-0.50225
-0.500384
-0.496997
-0.491296
-0.482623
-0.470573
-0.455069
-0.436334
-0.414829
-0.391094
-0.365794
-0.339267
-0.312447
-0.284521
-0.258316
-0.529132
-0.526372
-0.523405
-0.519988
-0.516426
-0.513049
-0.51009
-0.507658
-0.505688
-0.503908
-0.501832
-0.498797
-0.494057
-0.486908
-0.476824
-0.463559
-0.447166
-0.427949
-0.406386
-0.382982
-0.358324
-0.332707
-0.306957
-0.280382
-0.255616
-0.533246
-0.530272
-0.527105
-0.523465
-0.51965
-0.515978
-0.512654
-0.509751
-0.507164
-0.504577
-0.501475
-0.4972
-0.491061
-0.48246
-0.471018
-0.456632
-0.439464
-0.419872
-0.398322
-0.375279
-0.351252
-0.326497
-0.301742
-0.276383
-0.252806
-0.537717
-0.534479
-0.531092
-0.52722
-0.523146
-0.519172
-0.515468
-0.512067
-0.508814
-0.505353
-0.50115
-0.495572
-0.488001
-0.477967
-0.465234
-0.449827
-0.431993
-0.412113
-0.39063
-0.36796
-0.344538
-0.320587
-0.296743
-0.272464
-0.249911
-0.542556
-0.539005
-0.535378
-0.53126
-0.526918
-0.522629
-0.518524
-0.514585
-0.510609
-0.506203
-0.500827
-0.49389
-0.484875
-0.473443
-0.459497
-0.443171
-0.424768
-0.404673
-0.383293
-0.360992
-0.338142
-0.314931
-0.291912
-0.268594
-0.246931
-0.547765
-0.543857
-0.539967
-0.535589
-0.530966
-0.526344
-0.521808
-0.517284
-0.51252
-0.507092
-0.500473
-0.492137
-0.481679
-0.468899
-0.453826
-0.436679
-0.417792
-0.397538
-0.376283
-0.354341
-0.332022
-0.309487
-0.287213
-0.264752
-0.243875
-0.553345
-0.549035
-0.544863
-0.540209
-0.535287
-0.530308
-0.525302
-0.520137
-0.514511
-0.507984
-0.500059
-0.490296
-0.478413
-0.464347
-0.448234
-0.430356
-0.411058
-0.39069
-0.369571
-0.347967
-0.326137
-0.304217
-0.282613
-0.26092
-0.240745
-0.559287
-0.554538
-0.550064
-0.545117
-0.539875
-0.534509
-0.528985
-0.523113
-0.516547
-0.508844
-0.499557
-0.48835
-0.475075
-0.459792
-0.442727
-0.4242
-0.404552
-0.384102
-0.363121
-0.341833
-0.320449
-0.299085
-0.278085
-0.257084
-0.237539
-0.565583
-0.56036
-0.555566
-0.550309
-0.544724
-0.538932
-0.532835
-0.52618
-0.518589
-0.509634
-0.49894
-0.486288
-0.471664
-0.455238
-0.437304
-0.418201
-0.398254
-0.377743
-0.356896
-0.335899
-0.314921
-0.294061
-0.273606
-0.25323
-0.234253
-0.572219
-0.566492
-0.561364
-0.555778
-0.549821
-0.543559
-0.536823
-0.529302
-0.520599
-0.51032
-0.498183
-0.484098
-0.468177
-0.450684
-0.431959
-0.412344
-0.392138
-0.371581
-0.350862
-0.330129
-0.30952
-0.289116
-0.269153
-0.249346
-0.230883
-0.579177
-0.572923
-0.567446
-0.561513
-0.555152
-0.548367
-0.540917
-0.53244
-0.522536
-0.510868
-0.497265
-0.481769
-0.464609
-0.446124
-0.42668
-0.406608
-0.386175
-0.365582
-0.344981
-0.324489
-0.304213
-0.284222
-0.264707
-0.245418
-0.227424
-0.586435
-0.579636
-0.573798
-0.567499
-0.560697
-0.55333
-0.545081
-0.535552
-0.524358
-0.511244
-0.496163
-0.479289
-0.460954
-0.44155
-0.421452
-0.40097
-0.380335
-0.359712
-0.339219
-0.318945
-0.298972
-0.279356
-0.260249
-0.241436
-0.22387
-0.593969
-0.58661
-0.580404
-0.573718
-0.566432
-0.558412
-0.549274
-0.538593
-0.526024
-0.511416
-0.494858
-0.476648
-0.457203
-0.436949
-0.416256
-0.395404
-0.374588
-0.353938
-0.333542
-0.313466
-0.293769
-0.274496
-0.255763
-0.237388
-0.220215
-0.601747
-0.593821
-0.587238
-0.580142
-0.572325
-0.563575
-0.553448
-0.541513
-0.527492
-0.511355
-0.493331
-0.473834
-0.453344
-0.432305
-0.411069
-0.389882
-0.368902
-0.348228
-0.32792
-0.308024
-0.288579
-0.269621
-0.251232
-0.233264
-0.216453
-0.609734
-0.601238
-0.594273
-0.586742
-0.578337
-0.568772
-0.557551
-0.544262
-0.528718
-0.511029
-0.491563
-0.470832
-0.449364
-0.4276
-0.405867
-0.384375
-0.363246
-0.342548
-0.322321
-0.30259
-0.283379
-0.26471
-0.246642
-0.229053
-0.212579
-0.617888
-0.608824
-0.601472
-0.593477
-0.584423
-0.57395
-0.561527
-0.546787
-0.529663
-0.510411
-0.489535
-0.467629
-0.445245
-0.422814
-0.400626
-0.378854
-0.357589
-0.336871
-0.316718
-0.29714
-0.278145
-0.259748
-0.241978
-0.224746
-0.208585
-0.626162
-0.616537
-0.608793
-0.600301
-0.590529
-0.579048
-0.565314
-0.549036
-0.530283
-0.509473
-0.487229
-0.464207
-0.44097
-0.417923
-0.395318
-0.373291
-0.351901
-0.331166
-0.311084
-0.291649
-0.272859
-0.254715
-0.237229
-0.220334
-0.204467
-0.6345
-0.624326
-0.616185
-0.607159
-0.596593
-0.584
-0.56885
-0.550953
-0.530541
-0.508187
-0.484623
-0.460548
-0.436518
-0.412903
-0.389917
-0.367658
-0.346156
-0.325407
-0.305393
-0.286097
-0.2675
-0.249598
-0.232382
-0.215807
-0.200219
-0.642842
-0.632135
-0.62359
-0.613987
-0.602546
-0.588736
-0.572067
-0.552484
-0.530395
-0.506526
-0.481696
-0.456632
-0.431866
-0.40773
-0.384396
-0.361925
-0.340324
-0.319567
-0.299624
-0.280461
-0.262052
-0.244381
-0.227425
-0.211158
-0.195836
-0.651117
-0.639899
-0.630943
-0.620717
-0.608314
-0.593179
-0.574899
-0.553577
-0.529809
-0.504462
-0.478428
-0.452438
-0.426992
-0.402379
-0.378727
-0.356068
-0.33438
-0.313624
-0.293752
-0.274723
-0.256498
-0.239052
-0.222349
-0.206379
-0.191312
-0.659251
-0.647547
-0.638171
-0.627268
-0.613814
-0.597252
-0.577277
-0.55418
-0.528744
-0.501969
-0.474795
-0.447942
-0.421872
-0.396823
-0.372886
-0.350059
-0.3283
-0.307554
-0.28776
-0.268865
-0.250823
-0.233597
-0.217144
-0.201462
-0.186644
-0.667163
-0.655002
-0.645194
-0.633559
-0.618961
-0.600874
-0.579134
-0.554241
-0.527166
-0.49902
-0.470773
-0.443123
-0.41648
-0.391038
-0.366845
-0.343873
-0.322061
-0.301335
-0.281626
-0.26287
-0.245012
-0.228005
-0.2118
-0.196401
-0.181826
-0.674764
-0.662179
-0.651925
-0.639497
-0.623665
-0.603963
-0.580404
-0.553712
-0.525039
-0.495587
-0.466339
-0.437955
-0.410793
-0.384998
-0.360581
-0.337489
-0.31564
-0.294948
-0.275334
-0.256723
-0.239052
-0.222267
-0.206309
-0.19119
-0.176856
-0.681962
-0.668989
-0.658273
-0.64499
-0.627835
-0.606439
-0.581024
-0.552547
-0.522329
-0.491644
-0.461469
-0.432414
-0.404786
-0.378679
-0.35407
-0.330882
-0.309016
-0.288375
-0.268867
-0.25041
-0.232933
-0.216371
-0.200665
-0.185822
-0.171729
-0.68866
-0.675337
-0.664141
-0.649939
-0.631378
-0.608222
-0.580932
-0.550701
-0.519003
-0.487165
-0.456137
-0.426477
-0.398434
-0.372057
-0.34729
-0.324033
-0.302172
-0.281599
-0.262211
-0.243918
-0.226642
-0.21031
-0.194859
-0.180293
-0.166443
-0.694759
-0.681126
-0.669429
-0.654246
-0.634202
-0.609237
-0.580071
-0.548132
-0.515032
-0.482122
-0.450319
-0.42012
-0.391715
-0.36511
-0.340219
-0.316921
-0.29509
-0.274603
-0.255351
-0.237236
-0.22017
-0.204075
-0.188886
-0.174598
-0.160995
-0.700155
-0.686254
-0.674036
-0.657809
-0.636218
-0.60941
-0.578386
-0.544803
-0.510384
-0.476492
-0.443993
-0.41332
-0.384606
-0.357817
-0.332838
-0.30953
-0.287753
-0.267374
-0.248276
-0.230352
-0.213509
-0.19766
-0.182741
-0.168732
-0.155384
-0.704746
-0.690619
-0.677857
-0.66053
-0.637337
-0.608672
-0.575827
-0.540676
-0.505032
-0.470249
-0.437135
-0.406055
-0.377087
-0.350158
-0.325129
-0.301843
-0.280147
-0.2599
-0.240974
-0.223258
-0.206651
-0.191059
-0.176419
-0.162695
-0.149611
-0.708428
-0.694119
-0.680791
-0.662312
-0.637478
-0.606958
-0.572347
-0.535718
-0.498951
-0.463372
-0.429724
-0.398303
-0.369137
-0.342116
-0.317076
-0.293845
-0.272259
-0.252168
-0.233436
-0.215945
-0.199589
-0.184267
-0.169916
-0.156485
-0.143683
-0.7111
-0.696651
-0.682736
-0.663062
-0.636561
-0.604212
-0.567906
-0.529899
-0.492115
-0.455838
-0.421739
-0.390048
-0.36074
-0.333673
-0.308663
-0.285523
-0.264078
-0.244169
-0.225654
-0.208407
-0.192317
-0.177278
-0.163228
-0.150103
-0.137607
-0.712663
-0.698117
-0.683596
-0.662691
-0.634516
-0.600378
-0.562467
-0.523192
-0.484503
-0.447629
-0.413163
-0.381269
-0.351878
-0.324815
-0.299878
-0.276866
-0.255593
-0.235894
-0.21762
-0.200638
-0.18483
-0.170088
-0.156351
-0.143541
-0.131367
-0.71302
-0.698421
-0.683277
-0.661117
-0.631277
-0.595412
-0.555996
-0.515574
-0.476096
-0.438726
-0.403978
-0.371954
-0.342538
-0.31553
-0.29071
-0.267863
-0.246798
-0.227338
-0.209328
-0.192633
-0.177126
-0.162695
-0.149284
-0.136793
-0.124902
-0.712083
-0.697471
-0.681693
-0.658264
-0.626786
-0.589272
-0.548467
-0.507025
-0.466878
-0.429114
-0.394171
-0.362087
-0.332708
-0.305808
-0.281149
-0.258509
-0.237684
-0.218494
-0.200776
-0.184389
-0.169202
-0.1551
-0.142031
-0.12986
-0.118176
-0.709766
-0.695183
-0.678761
-0.654064
-0.620993
-0.581925
-0.539858
-0.497529
-0.456834
-0.418782
-0.38373
-0.351659
-0.322378
-0.295639
-0.271189
-0.248796
-0.228248
-0.209358
-0.191959
-0.175904
-0.161057
-0.147302
-0.13459
-0.122743
-0.111339
-0.705992
-0.691477
-0.674411
-0.648459
-0.613856
-0.573345
-0.530152
-0.487073
-0.445955
-0.407719
-0.372645
-0.340661
-0.311542
-0.285018
-0.260825
-0.23872
-0.218486
-0.199928
-0.182877
-0.167177
-0.152693
-0.139305
-0.126965
-0.115436
-0.104399
-0.700692
-0.686285
-0.668577
-0.641397
-0.605341
-0.56351
-0.519336
-0.475649
-0.434233
-0.395918
-0.36091
-0.329087
-0.300193
-0.27394
-0.250052
-0.228279
-0.208396
-0.190203
-0.173531
-0.158212
-0.14411
-0.131108
-0.119153
-0.107961
-0.0973179
-0.693805
-0.679543
-0.661205
-0.632837
-0.595422
-0.552407
-0.507404
-0.463254
-0.421664
-0.383375
-0.348522
-0.316935
-0.28833
-0.262403
-0.238871
-0.217472
-0.197981
-0.180188
-0.163918
-0.149008
-0.13531
-0.122715
-0.111159
-0.100322
-0.0900822
-0.68528
-0.671201
-0.65225
-0.622749
-0.584083
-0.54003
-0.494354
-0.449886
-0.408248
-0.370091
-0.33548
-0.304203
-0.275951
-0.25041
-0.227282
-0.206305
-0.18724
-0.169881
-0.154045
-0.139567
-0.126297
-0.114128
-0.102988
-0.092522
-0.0826942
-0.675076
-0.661215
-0.641678
-0.61111
-0.571314
-0.526379
-0.48019
-0.43555
-0.39399
-0.356068
-0.321786
-0.290893
-0.26306
-0.237964
-0.215291
-0.194776
-0.176179
-0.159287
-0.143915
-0.129895
-0.117076
-0.105353
-0.094645
-0.084562
-0.0751598
-0.66316
-0.649554
-0.629464
-0.597909
-0.557116
-0.511459
-0.464921
-0.420255
-0.378895
-0.341311
-0.307444
-0.27701
-0.249668
-0.225067
-0.2029
-0.182893
-0.164801
-0.148411
-0.133533
-0.119998
-0.107652
-0.0963944
-0.086135
-0.0764472
-0.0674861
-0.649514
-0.636197
-0.615595
-0.583145
-0.541497
-0.495285
-0.44856
-0.404013
-0.362975
-0.32583
-0.292466
-0.26257
-0.235775
-0.211729
-0.190118
-0.170662
-0.153116
-0.137261
-0.122906
-0.109882
-0.0980315
-0.08726
-0.0774646
-0.068184
-0.0596803
-0.634127
-0.621133
-0.600067
-0.566823
-0.524471
-0.477876
-0.431127
-0.386841
-0.346244
-0.30964
-0.276865
-0.247576
-0.221393
-0.197959
-0.176954
-0.158094
-0.14113
-0.125844
-0.112044
-0.0995549
-0.0882232
-0.0779573
-0.0686411
-0.0597797
-0.05175
-0.617001
-0.604363
-0.582889
-0.548963
-0.506063
-0.459255
-0.412646
-0.368761
-0.328722
-0.292757
-0.260653
-0.232043
-0.206537
-0.18377
-0.163419
-0.145198
-0.128856
-0.114172
-0.100954
-0.0890267
-0.0782358
-0.0684949
-0.0596727
-0.0512427
-0.0437033
-0.598147
-0.585898
-0.564079
-0.529588
-0.486303
-0.439457
-0.393147
-0.349797
-0.310432
-0.275201
-0.243849
-0.21599
-0.191222
-0.169177
-0.149528
-0.131988
-0.116305
-0.102256
-0.0896494
-0.0783078
-0.0680796
-0.0588825
-0.0505687
-0.0425823
-0.0355489
-0.577588
-0.56576
-0.543665
-0.508734
-0.465228
-0.41852
-0.372663
-0.329979
-0.291398
-0.256994
-0.226474
-0.199434
-0.175465
-0.154196
-0.135296
-0.118479
-0.10349
-0.0901087
-0.0781408
-0.0674097
-0.0577656
-0.0491307
-0.0413393
-0.033809
-0.0272963
-0.555358
-0.543982
-0.521683
-0.486442
-0.442887
-0.396484
-0.351227
-0.309343
-0.271651
-0.238163
-0.208553
-0.1824
-0.159288
-0.138846
-0.120741
-0.104686
-0.0904273
-0.0777441
-0.0664423
-0.0563453
-0.0473063
-0.0392513
-0.0319958
-0.0249339
-0.0189559
-0.531498
-0.520603
-0.49818
-0.462772
-0.419345
-0.373374
-0.328883
-0.287924
-0.251224
-0.21874
-0.190113
-0.16491
-0.142714
-0.123148
-0.105882
-0.0906278
-0.0771332
-0.0651779
-0.0545683
-0.0451284
-0.0367147
-0.0292566
-0.0225502
-0.0159695
-0.0105389
-0.50606
-0.495677
-0.473214
-0.437794
-0.394663
-0.349232
-0.305674
-0.265763
-0.230155
-0.198756
-0.171184
-0.146994
-0.125767
-0.107125
-0.0907399
-0.0763239
-0.0636258
-0.0524269
-0.0425347
-0.0337739
-0.0260051
-0.0191604
-0.0130155
-0.00692884
-0.00205807
-0.4791
-0.469265
-0.446854
-0.411563
-0.368786
-0.324213
-0.281662
-0.242907
-0.208484
-0.178249
-0.151798
-0.128681
-0.108474
-0.0908023
-0.075338
-0.0617951
-0.0499245
-0.0395092
-0.030358
-0.0222975
-0.0151926
-0.00897674
-0.00340539
0.00217318
0.00647273
-0.450687
-0.441446
-0.419193
-0.38408
-0.341901
-0.2983
-0.256899
-0.219404
-0.186253
-0.157257
-0.131992
-0.110003
-0.0908652
-0.0742065
-0.0597006
-0.0470639
-0.0360498
-0.0264436
-0.018056
-0.010716
-0.00429312
0.00127904
0.00626481
0.0113195
0.0150373
-0.420894
-0.412302
-0.390318
-0.355402
-0.314076
-0.271567
-0.231444
-0.195306
-0.16351
-0.135822
-0.111803
-0.0909935
-0.0729715
-0.0573659
-0.0438536
-0.032154
-0.0220235
-0.0132501
-0.00564702
0.000953691
0.00667706
0.0115912
0.0159788
0.0204899
0.0236127
-0.389801
-0.381913
-0.360123
-0.325821
-0.285377
-0.244085
-0.205357
-0.170669
-0.140304
-0.113988
-0.0912705
-0.0716899
-0.0548259
-0.0403106
-0.0278244
-0.0170904
-0.00786829
5.03876e-05
0.0068498
0.0126937
0.0177012
0.021944
0.0257206
0.0296626
0.0321672
-0.357485
-0.350396
-0.328848
-0.2953
-0.255882
-0.215931
-0.178702
-0.145551
-0.116686
-0.0918016
-0.0704373
-0.0521302
-0.0364631
-0.0230721
-0.0116418
-0.0018992
0.00639189
0.0134362
0.0194147
0.0244857
0.0287618
0.0323212
0.0354765
0.0388215
0.0406794
-0.32403
-0.317809
-0.296671
-0.263922
-0.225674
-0.18718
-0.151547
-0.12001
-0.0927097
-0.0693118
-0.0493472
-0.0323541
-0.0179194
-0.00568349
0.00466432
0.0133924
0.0207324
0.0268851
0.0320275
0.0363107
0.0398401
0.0427065
0.0452364
0.0479588
0.0491473
-0.289637
-0.284252
-0.263639
-0.23179
-0.194839
-0.157911
-0.123962
-0.0941094
-0.0684319
-0.046569
-0.0280461
-0.0124033
0.000767638
0.0118212
0.021063
0.0287563
0.0351278
0.0403742
0.0446675
0.0481491
0.0509177
0.0530865
0.0549923
0.0570424
0.0574763
-0.25447
-0.24977
-0.229838
-0.199004
-0.163467
-0.128205
-0.0960182
-0.0679138
-0.0439103
-0.0236256
-0.00658119
0.00767928
0.019559
0.0294066
0.0375221
0.0441633
0.0495519
0.0538799
0.0573134
0.0599819
0.0619812
0.0634598
0.0647346
0.0659512
0.0653051
-0.218533
-0.214546
-0.195376
-0.165666
-0.131649
-0.098144
-0.0677907
-0.0414894
-0.0192046
-0.000535395
0.0149986
0.0278495
0.0384146
0.0470363
0.0540086
0.0595836
0.0639776
0.067378
0.0699433
0.0717915
0.0730252
0.0738371
0.0744476
0.0745211
0.0723095
-0.181938
-0.178711
-0.160364
-0.131882
-0.0994824
-0.0678131
-0.0393547
-0.014904
0.00562414
0.0226464
0.0366434
0.0480622
0.0572935
0.0646731
0.0704888
0.0749866
0.0783774
0.0808433
0.0825346
0.0835605
0.0840438
0.0842139
0.0840913
0.0827913
0.079304
-0.144816
-0.142381
-0.12492
-0.0977565
-0.0670623
-0.0372985
-0.0107873
0.0117734
0.0305137
0.0458634
0.0583021
0.068271
0.0761536
0.082279
0.0869282
0.090341
0.0927227
0.0942496
0.0950636
0.0952706
0.095018
0.0945381
0.0935843
0.0909864
0.0888475
-0.107294
-0.105677
-0.0891609
-0.0633996
-0.0344867
-0.00668751
0.0178335
0.0384725
0.0554007
0.0690585
0.0799231
0.0884291
0.0949526
0.0998155
0.103292
0.105615
0.106984
0.10757
0.107507
0.106901
0.105917
0.104743
0.10295
0.0996309
0.0983553
-0.0695015
-0.0687215
-0.0532054
-0.0289204
-0.00185428
0.0239317
0.0464287
0.0651225
0.0802212
0.0921738
0.101454
0.108489
0.113647
0.117243
0.119544
0.120776
0.121133
0.120779
0.119842
0.11843
0.116712
0.114824
0.112272
0.108488
0.107344
-0.0315666
-0.031639
-0.0171731
0.00557145
0.0307362
0.0544706
0.0749191
0.091652
0.104911
0.115151
0.122842
0.128403
0.132194
0.134523
0.135649
0.135792
0.135139
0.133848
0.132042
0.129831
0.127378
0.124776
0.121542
0.117367
0.116021
0.00638075
0.00544527
0.0188163
0.0399659
0.0631857
0.0848408
0.103225
0.11799
0.129405
0.137932
0.144034
0.148123
0.15055
0.151616
0.151571
0.15063
0.148973
0.146751
0.144084
0.14108
0.137892
0.134588
0.130719
0.126136
0.124419
0.0442108
0.0424056
0.0546433
0.0741535
0.0953958
0.114954
0.131268
0.144064
0.153639
0.160458
0.164977
0.167601
0.168672
0.168481
0.167274
0.165257
0.162604
0.15946
0.15594
0.152151
0.148236
0.144243
0.139765
0.134746
0.132569
0.0817942
0.0791164
0.0901894
0.108026
0.127269
0.144722
0.158968
0.169803
0.177549
0.182671
0.185619
0.186789
0.186515
0.18508
0.182723
0.179641
0.176003
0.171949
0.167587
0.163022
0.158387
0.153721
0.148647
0.143171
0.140485
0.119003
0.115453
0.125337
0.141475
0.158707
0.174058
0.186248
0.195138
0.201071
0.204513
0.205907
0.20564
0.204037
0.201374
0.197881
0.193749
0.189141
0.184189
0.178999
0.173669
0.168327
0.163
0.15734
0.151395
0.148172
0.155709
0.151292
0.159969
0.174395
0.189617
0.202878
0.21303
0.219998
0.224142
0.225927
0.22579
0.224107
0.221196
0.217324
0.212714
0.20755
0.201988
0.196155
0.190151
0.184071
0.178033
0.172059
0.165824
0.159405
0.15563
0.191789
0.186513
0.193973
0.206682
0.219903
0.231096
0.239239
0.244315
0.2467
0.246858
0.245216
0.242143
0.237949
0.232892
0.227187
0.221012
0.214516
0.207821
0.201021
0.194206
0.187487
0.18088
0.17408
0.16719
0.162855
0.227119
0.220995
0.227236
0.238234
0.249474
0.25863
0.2648
0.268021
0.268685
0.267249
0.264136
0.259704
0.254256
0.24804
0.241266
0.234104
0.226697
0.21916
0.211583
0.204052
0.19667
0.189445
0.182094
0.174737
0.169841
0.26158
0.254623
0.25965
0.268952
0.278242
0.2854
0.289642
0.291052
0.290036
0.287047
0.2825
0.276745
0.270076
0.262733
0.254919
0.246797
0.238504
0.230149
0.221817
0.21359
0.205561
0.197736
0.18985
0.182036
0.17658
0.295055
0.287284
0.291109
0.29874
0.306118
0.311327
0.313693
0.313344
0.310696
0.3062
0.300262
0.293224
0.28537
0.276935
0.268113
0.259061
0.249909
0.240762
0.2317
0.222798
0.214144
0.205738
0.197334
0.189075
0.183064
0.327431
0.318868
0.32151
0.327505
0.333021
0.336338
0.336885
0.334835
0.33061
0.324658
0.317376
0.309098
0.300101
0.290612
0.280817
0.270868
0.260889
0.250977
0.241211
0.231658
0.222401
0.213434
0.204532
0.195842
0.189286
0.358599
0.34927
0.350756
0.355157
0.358869
0.360359
0.359154
0.355465
0.349723
0.342371
0.333797
0.324328
0.314232
0.30373
0.293001
0.28219
0.271416
0.260772
0.250329
0.240152
0.230315
0.22081
0.211432
0.202326
0.195237
0.388456
0.378389
0.378752
0.381611
0.383585
0.38332
0.380436
0.375179
0.367985
0.359292
0.349483
0.338875
0.327729
0.316258
0.304636
0.293003
0.281469
0.270125
0.259035
0.248262
0.237871
0.227852
0.21802
0.208515
0.200909
0.4169
0.406129
0.405408
0.406786
0.407096
0.405156
0.400672
0.393921
0.385345
0.375378
0.364393
0.352702
0.340557
0.328166
0.315696
0.30328
0.291025
0.279015
0.267311
0.255971
0.245053
0.234547
0.224284
0.2144
0.206293
0.443839
0.432399
0.43064
0.430604
0.429332
0.425803
0.419804
0.41164
0.401758
0.390585
0.37849
0.365774
0.352686
0.339425
0.326153
0.312998
0.300062
0.287423
0.275139
0.263264
0.251848
0.24088
0.230212
0.219968
0.211382
0.469184
0.457112
0.454369
0.452993
0.450227
0.445204
0.43778
0.428288
0.417179
0.404875
0.391736
0.378059
0.364085
0.350009
0.335984
0.322135
0.308559
0.29533
0.282503
0.270125
0.258241
0.246841
0.235794
0.225211
0.216168
0.492851
0.480189
0.476518
0.473885
0.469722
0.463302
0.454549
0.44382
0.431567
0.418209
0.404099
0.389527
0.374728
0.359891
0.345166
0.330671
0.316499
0.302721
0.289387
0.27654
0.264221
0.252418
0.241018
0.23012
0.220644
0.514763
0.501554
0.49702
0.493218
0.48776
0.480046
0.470066
0.458194
0.444885
0.430553
0.415546
0.400148
0.384587
0.369048
0.353677
0.338586
0.323864
0.309578
0.295776
0.282497
0.269775
0.2576
0.245875
0.234684
0.224804
0.53485
0.521141
0.51581
0.510934
0.504288
0.495391
0.484287
0.471371
0.457097
0.441876
0.426049
0.409896
0.39364
0.37746
0.361497
0.345862
0.330638
0.315888
0.301658
0.287983
0.274893
0.262378
0.250356
0.238896
0.228642
0.553048
0.538887
0.532832
0.526982
0.519259
0.509294
0.497175
0.483316
0.468172
0.452148
0.435582
0.418748
0.401865
0.385106
0.368611
0.352483
0.336806
0.321637
0.30702
0.292988
0.279564
0.266742
0.254452
0.242749
0.232152
0.569299
0.554738
0.548035
0.541314
0.532633
0.521716
0.508696
0.493999
0.478081
0.461345
0.444122
0.426683
0.409242
0.39197
0.375
0.358436
0.342355
0.326814
0.311853
0.297501
0.283781
0.270685
0.258157
0.246237
0.23533
0.583554
0.568643
0.561373
0.553889
0.544372
0.532624
0.518818
0.503391
0.4868
0.469442
0.451648
0.433682
0.415755
0.398035
0.380652
0.363706
0.347273
0.331407
0.316146
0.301516
0.287536
0.2742
0.261463
0.249352
0.238172
0.595768
0.580562
0.572807
0.564674
0.554443
0.54199
0.527517
0.51147
0.494307
0.476422
0.458142
0.439729
0.421389
0.403289
0.385555
0.368285
0.351552
0.335408
0.319891
0.305023
0.290821
0.27728
0.264365
0.25209
0.240674
0.605906
0.59046
0.582306
0.573638
0.562822
0.54979
0.53477
0.518215
0.500584
0.482268
0.463591
0.44481
0.426133
0.40772
0.389698
0.372161
0.355182
0.33881
0.323081
0.308017
0.293632
0.279921
0.266859
0.254447
0.242833
0.613939
0.59831
0.589844
0.580759
0.569487
0.556005
0.54056
0.523612
0.505617
0.486967
0.467981
0.448916
0.429976
0.41132
0.393073
0.375329
0.358157
0.341607
0.325712
0.310494
0.295963
0.282118
0.268939
0.25642
0.244646
0.619846
0.60409
0.595402
0.586019
0.574423
0.560621
0.544876
0.527648
0.509397
0.490509
0.471304
0.452038
0.432911
0.414083
0.395675
0.377783
0.360472
0.343794
0.327779
0.312448
0.297812
0.283869
0.270604
0.258005
0.246113
0.623613
0.607788
0.598968
0.589407
0.577619
0.56363
0.547707
0.530317
0.511915
0.492889
0.473556
0.454171
0.434934
0.416003
0.397501
0.379518
0.362125
0.345367
0.329279
0.313879
0.299176
0.285171
0.271851
0.259201
0.247232
0.625234
0.609398
0.600536
0.590919
0.579072
0.565026
0.549052
0.531615
0.513169
0.494103
0.474733
0.455312
0.436042
0.41708
0.398547
0.380535
0.363112
0.346327
0.330211