/*--------------------------------*- C++ -*----------------------------------*\
  =========                 |
  \\      /  F ield         | OpenFOAM: The Open Source CFD Toolbox
   \\    /   O peration     | Website:  https://openfoam.org
    \\  /    A nd           | Version:  7
     \\/     M anipulation  |
\*---------------------------------------------------------------------------*/
FoamFile
{
    version     2.0;
    format      ascii;
    class       volVectorField;
    location    "135";
    object      U;
}
// * * * * * * * * * * * * * * * * * * * * * * * * * * * * * * * * * * * * * //

dimensions      [0 1 -1 0 0 0 0];

internalField   nonuniform List<vector> 
31800
(
(-0.00137315 0.03016 -1.37273e-20)
(-0.00675008 0.0660873 9.48266e-21)
(-0.0167011 0.0840684 -3.07808e-21)
(-0.0292188 0.0885353 1.37362e-20)
(-0.0435986 0.083458 1.53436e-20)
(-0.0593181 0.0721279 -5.02448e-21)
(-0.0759459 0.0569885 -3.61045e-21)
(-0.0931597 0.0395842 2.57751e-20)
(-0.110699 0.0206353 -2.91312e-21)
(-0.128336 0.000219112 4.25876e-21)
(-0.145864 -0.0219938 1.46669e-20)
(-0.163083 -0.0465107 1.4451e-20)
(-0.179791 -0.0738457 -9.10072e-21)
(-0.195768 -0.104416 -1.14326e-20)
(-0.210763 -0.138484 -4.36622e-22)
(-0.224478 -0.176128 -1.46277e-20)
(-0.236557 -0.217193 1.14308e-20)
(-0.246584 -0.26124 1.91143e-20)
(-0.254082 -0.307479 -7.11949e-21)
(-0.258514 -0.354698 3.1828e-20)
(-0.259292 -0.401222 1.99045e-21)
(-0.255814 -0.444903 -2.44994e-21)
(-0.24752 -0.483197 5.23706e-21)
(-0.233717 -0.513358 1.05828e-20)
(-0.213773 -0.532656 6.49162e-21)
(-0.00217392 0.0319971 1.41507e-20)
(-0.00838832 0.0706465 8.07072e-21)
(-0.0185906 0.0906437 -8.50797e-21)
(-0.0310181 0.0965826 -3.20444e-20)
(-0.0451005 0.0925518 2.40431e-20)
(-0.0604024 0.0819439 -1.18008e-20)
(-0.0765437 0.0672819 6.79894e-22)
(-0.093227 0.0501665 -1.97953e-20)
(-0.110201 0.0313565 4.3028e-21)
(-0.127243 0.010954 2.95001e-21)
(-0.144149 -0.011356 -6.27858e-20)
(-0.160727 -0.0360764 -8.35239e-22)
(-0.17679 -0.0637244 7.10987e-20)
(-0.192137 -0.0947321 -3.63452e-20)
(-0.206544 -0.129386 -6.92417e-21)
(-0.219751 -0.167793 1.46108e-20)
(-0.231456 -0.209834 -3.11197e-20)
(-0.241314 -0.255107 -1.21904e-21)
(-0.248941 -0.302857 3.03967e-20)
(-0.253921 -0.351907 -1.10813e-19)
(-0.255813 -0.400611 -3.4233e-20)
(-0.254182 -0.446836 5.04959e-20)
(-0.248661 -0.488032 2.47068e-20)
(-0.238715 -0.521418 4.25679e-21)
(-0.223656 -0.544129 -9.37904e-21)
(-0.00304566 0.0337006 -3.0322e-20)
(-0.0101536 0.0749547 -5.89924e-22)
(-0.020564 0.0969461 -4.13655e-20)
(-0.0327995 0.104383 6.12125e-20)
(-0.0464386 0.101443 -6.90835e-20)
(-0.0611407 0.0916026 -7.05682e-21)
(-0.0765817 0.0774554 -6.41659e-21)
(-0.0924901 0.0606598 1.20965e-20)
(-0.108623 0.0420176 3.89884e-20)
(-0.124759 0.0216626 -6.47037e-21)
(-0.140692 -0.0006997 -1.28353e-20)
(-0.156235 -0.025563 4.31816e-20)
(-0.171204 -0.0534457 -6.45217e-21)
(-0.185413 -0.0847921 4.09241e-20)
(-0.198657 -0.11991 -8.61427e-20)
(-0.210708 -0.15893 -3.59261e-20)
(-0.221309 -0.201765 5.08011e-21)
(-0.230181 -0.248041 -1.16367e-19)
(-0.237033 -0.297033 3.21656e-20)
(-0.241574 -0.347591 6.85161e-20)
(-0.243518 -0.398092 -4.49814e-20)
(-0.242622 -0.446421 -1.02481e-19)
(-0.238746 -0.490032 -4.95889e-20)
(-0.231556 -0.526108 -9.04182e-20)
(-0.220213 -0.551761 -4.7346e-20)
(-0.00397702 0.0352352 1.39075e-20)
(-0.0120254 0.0789331 -2.36492e-20)
(-0.022599 0.102873 7.50506e-20)
(-0.0345421 0.111823 -6.00459e-20)
(-0.0475939 0.110013 -1.63701e-20)
(-0.0615161 0.100983 -4.85381e-21)
(-0.076045 0.0873883 5.00259e-20)
(-0.0909369 0.0709434 3.65624e-20)
(-0.105956 0.0524975 -6.29647e-20)
(-0.120878 0.0322216 2.70685e-20)
(-0.135495 0.00984786 3.01238e-22)
(-0.149611 -0.0151021 -1.22503e-19)
(-0.163045 -0.04315 -3.9729e-20)
(-0.175616 -0.0747445 3.02925e-21)
(-0.18713 -0.110211 2.65966e-20)
(-0.197382 -0.149705 1.25142e-19)
(-0.206153 -0.193158 1.49208e-20)
(-0.213222 -0.24022 1.18486e-19)
(-0.218385 -0.290185 1.22822e-19)
(-0.221473 -0.341919 -1.49634e-20)
(-0.222359 -0.393814 5.02992e-20)
(-0.221 -0.443768 -2.15568e-20)
(-0.217501 -0.48924 6.32204e-20)
(-0.211801 -0.527365 2.00486e-19)
(-0.202701 -0.555364 2.89651e-20)
(-0.00495399 0.0365682 2.46937e-20)
(-0.0139783 0.0825073 -8.99616e-20)
(-0.0246704 0.108325 1.16307e-19)
(-0.0362248 0.118789 4.28682e-20)
(-0.0485508 0.118143 3.30045e-20)
(-0.0615188 0.109965 3.52593e-20)
(-0.0749302 0.0969615 -1.91233e-19)
(-0.0885702 0.0808987 7.26491e-20)
(-0.102211 0.0626765 7.52671e-20)
(-0.115622 0.0425089 -1.11616e-19)
(-0.128585 0.02016 1.16252e-19)
(-0.140899 -0.0048304 6.32518e-20)
(-0.152373 -0.032979 8.21033e-20)
(-0.162823 -0.0647402 -5.65163e-20)
(-0.172062 -0.100454 -1.30578e-20)
(-0.179898 -0.14029 2.76115e-19)
(-0.186141 -0.184199 -1.17843e-19)
(-0.19062 -0.231843 9.41854e-20)
(-0.193209 -0.282522 -2.19795e-19)
(-0.19385 -0.335107 -9.08086e-20)
(-0.192572 -0.38799 8.08086e-20)
(-0.189532 -0.439076 1.39577e-19)
(-0.185075 -0.485827 2.37789e-20)
(-0.17953 -0.525288 -1.68595e-19)
(-0.170945 -0.554927 -1.13055e-19)
(-0.00596033 0.0376707 -9.89935e-20)
(-0.0159834 0.085609 -3.28352e-20)
(-0.0267502 0.11321 -6.86915e-20)
(-0.0378265 0.125174 -6.67479e-20)
(-0.0492973 0.125719 4.81804e-20)
(-0.0611464 0.118433 -8.77483e-20)
(-0.0732444 0.106058 -5.8658e-20)
(-0.085408 0.0904093 -2.84119e-19)
(-0.0974161 0.0724377 1.3029e-20)
(-0.109032 0.0524051 -4.0656e-21)
(-0.120025 0.0301123 -2.25018e-19)
(-0.130178 0.00512123 -7.9659e-20)
(-0.13929 -0.0230717 -9.53877e-20)
(-0.147167 -0.0549288 1.90106e-19)
(-0.15362 -0.0907975 5.5423e-20)
(-0.158464 -0.130861 -1.48699e-19)
(-0.161532 -0.175078 -1.751e-19)
(-0.162693 -0.223116 5.26883e-20)
(-0.161885 -0.274273 1.87692e-19)
(-0.159152 -0.327407 -4.41656e-20)
(-0.154667 -0.380894 -2.40888e-20)
(-0.148785 -0.432629 -1.06546e-19)
(-0.142046 -0.48008 -1.31426e-19)
(-0.135373 -0.520155 1.0194e-19)
(-0.125407 -0.550662 6.47673e-20)
(-0.00697804 0.0385188 5.04413e-20)
(-0.0180086 0.0881784 5.9768e-20)
(-0.0288087 0.117442 -4.78453e-20)
(-0.0393264 0.130877 -9.94599e-20)
(-0.0498243 0.132632 1.54629e-20)
(-0.0604027 0.126275 1.16739e-19)
(-0.071005 0.114566 1.68085e-19)
(-0.0814816 0.0993627 2.33391e-19)
(-0.0916194 0.081668 4.21337e-20)
(-0.101174 0.0617947 5.3142e-20)
(-0.1099 0.0395854 6.53136e-20)
(-0.117561 0.0146296 2.60812e-19)
(-0.123939 -0.0135638 -1.53772e-20)
(-0.128828 -0.0454564 -3.4572e-19)
(-0.13203 -0.0814013 2.53848e-19)
(-0.133363 -0.121589 1.03941e-19)
(-0.132675 -0.165985 3.20546e-19)
(-0.129866 -0.214253 -1.27556e-19)
(-0.124931 -0.265676 -1.5292e-19)
(-0.118001 -0.319088 4.32367e-19)
(-0.109383 -0.372833 -1.43743e-19)
(-0.099621 -0.424771 -2.09675e-19)
(-0.0893683 -0.472377 -5.34917e-20)
(-0.0804764 -0.512391 -1.5643e-19)
(-0.0671985 -0.543021 2.46922e-20)
(-0.00798801 0.0390942 1.2633e-20)
(-0.0200195 0.0901662 -2.68273e-20)
(-0.0308146 0.120948 5.43129e-21)
(-0.0407043 0.135809 -1.85515e-19)
(-0.0501261 0.138781 -1.4318e-19)
(-0.0592978 0.133384 -2.69173e-20)
(-0.0682382 0.122377 -7.18996e-20)
(-0.0768344 0.107651 -1.27887e-19)
(-0.0848827 0.0902586 -2.74042e-20)
(-0.0921317 0.0705668 -1.5937e-20)
(-0.0983174 0.0484639 -1.4386e-19)
(-0.103185 0.0235715 6.41922e-20)
(-0.106494 -0.0045856 4.69292e-20)
(-0.108022 -0.0364626 2.57317e-19)
(-0.107561 -0.0724161 -3.69541e-22)
(-0.104927 -0.11264 -1.58272e-19)
(-0.099978 -0.157101 -1.54994e-20)
(-0.0926409 -0.205455 7.35681e-20)
(-0.0829577 -0.256964 2.87192e-19)
(-0.0711412 -0.310422 -2.04413e-19)
(-0.0576103 -0.364124 5.40847e-19)
(-0.0431126 -0.415874 2.15949e-19)
(-0.0282689 -0.463151 -1.55255e-19)
(-0.0163991 -0.50254 2.83276e-19)
(0.0019774 -0.532516 1.44183e-19)
(-0.0089707 0.0393851 1.71431e-20)
(-0.0219805 0.0915349 8.12645e-20)
(-0.0327361 0.123668 2.33522e-19)
(-0.0419407 0.139889 2.88975e-19)
(-0.0501997 0.144074 1.73059e-19)
(-0.0578469 0.139662 -1.22719e-19)
(-0.0649783 0.12939 2.98957e-19)
(-0.0715204 0.115172 3.5245e-20)
(-0.0772813 0.0981064 -1.80767e-19)
(-0.0820031 0.0786161 1.92231e-20)
(-0.0854046 0.0566387 3.47478e-19)
(-0.0872083 0.0318318 -3.7755e-19)
(-0.0871527 0.00374149 -2.19766e-19)
(-0.084995 -0.0280786 -4.36273e-20)
(-0.0805144 -0.063984 -3.66688e-19)
(-0.0735232 -0.104169 -2.43994e-19)
(-0.0638873 -0.148597 4.51231e-20)
(-0.0515572 -0.196913 -5.13846e-19)
(-0.0366182 -0.248353 5.6499e-20)
(-0.0193612 -0.301659 -2.39469e-19)
(-0.000305647 -0.35507 -2.88537e-19)
(0.0195655 -0.406306 2.61481e-19)
(0.0398834 -0.452835 2.72003e-19)
(0.0551848 -0.49134 -2.03719e-19)
(0.0798707 -0.519193 2.48695e-19)
(-0.00990691 0.0393867 -1.97285e-19)
(-0.0238564 0.0922603 1.44856e-19)
(-0.0345414 0.125553 -9.0516e-21)
(-0.0430171 0.143051 5.89889e-20)
(-0.0500446 0.148431 5.60639e-20)
(-0.0560696 0.145019 2.47332e-19)
(-0.0612657 0.135511 -1.79993e-19)
(-0.0656015 0.121828 -3.41095e-19)
(-0.0689001 0.105114 1.72662e-19)
(-0.070899 0.0858435 1.63004e-19)
(-0.0713007 0.0640074 -5.57518e-19)
(-0.0698054 0.0393036 3.9734e-19)
(-0.066128 0.0113034 6.1557e-19)
(-0.0600056 -0.0204265 4.4905e-20)
(-0.0512029 -0.0562369 -1.15363e-19)
(-0.0395276 -0.0963175 3.25017e-19)
(-0.0248533 -0.140627 -1.51559e-19)
(-0.00715285 -0.188799 6.79356e-19)
(0.0134458 -0.240035 -5.95914e-19)
(0.0365662 -0.293023 1.04698e-19)
(0.0615994 -0.345935 -5.47781e-20)
(0.0872538 -0.396395 -1.68496e-19)
(0.113577 -0.441689 -1.55926e-19)
(0.132947 -0.479572 1.15723e-19)
(0.164118 -0.50326 2.31226e-20)
(-0.0107785 0.0391007 1.30682e-19)
(-0.0256128 0.0923322 -9.30668e-20)
(-0.0362002 0.126575 7.89378e-20)
(-0.0439165 0.145245 -2.60367e-19)
(-0.0496624 0.151784 -5.7106e-20)
(-0.0539885 0.149377 2.99724e-20)
(-0.0571455 0.140654 -6.82833e-20)
(-0.0591459 0.127532 -1.14384e-19)
(-0.0598312 0.11119 3.75192e-20)
(-0.0589375 0.0921565 -1.93256e-19)
(-0.0561529 0.0704751 3.63841e-19)
(-0.0511557 0.0458875 -8.35869e-20)
(-0.0436378 0.0179954 -2.1841e-19)
(-0.0333156 -0.013618 -2.28743e-19)
(-0.0199373 -0.0492943 3.09087e-19)
(-0.00330662 -0.0892138 1.73731e-19)
(0.0166946 -0.133332 6.76338e-20)
(0.040069 -0.181262 -5.73864e-19)
(0.0666431 -0.232171 5.95792e-19)
(0.0959399 -0.284699 -1.95349e-19)
(0.127261 -0.336922 -8.63787e-20)
(0.15898 -0.386378 -5.92409e-20)
(0.191369 -0.430147 -6.02897e-20)
(0.215278 -0.467016 2.03394e-19)
(0.253312 -0.486403 -2.88253e-19)
(-0.0115688 0.0385361 -4.83029e-20)
(-0.027218 0.0917547 2.12288e-19)
(-0.037684 0.126719 -3.00758e-19)
(-0.0446236 0.146435 1.20341e-19)
(-0.0490566 0.15408 6.82659e-20)
(-0.0516288 0.152667 -1.01884e-19)
(-0.0526652 0.144742 2.99556e-19)
(-0.0522246 0.132202 7.20624e-20)
(-0.0501699 0.116252 3.698e-20)
(-0.0462394 0.0974699 3.04743e-19)
(-0.0401094 0.0759542 -1.26408e-19)
(-0.0314384 0.051493 1.39172e-19)
(-0.0198952 0.0237221 -1.46835e-19)
(-0.00517565 -0.00775322 -9.90795e-21)
(0.0129898 -0.04326 -1.66013e-19)
(0.0348038 -0.0829754 -5.81644e-19)
(0.0603725 -0.126838 1.2098e-19)
(0.0896706 -0.174435 4.70431e-19)
(0.122465 -0.224899 -1.58142e-19)
(0.15816 -0.276819 7.65756e-19)
(0.195963 -0.328164 -4.14482e-19)
(0.233771 -0.376436 -1.09539e-19)
(0.272406 -0.418445 -1.7394e-19)
(0.300303 -0.453613 1.61925e-21)
(0.345602 -0.469584 -1.362e-19)
(-0.0122639 0.0377086 -1.4874e-19)
(-0.028644 0.0905458 -2.17935e-19)
(-0.0389675 0.125988 -1.18655e-19)
(-0.0451249 0.146603 1.10767e-19)
(-0.0482315 0.155279 3.53933e-20)
(-0.0490158 0.154836 2.03106e-20)
(-0.047873 0.147711 7.812e-20)
(-0.0449087 0.135766 -3.84388e-19)
(-0.0400108 0.120224 1.30303e-19)
(-0.0329231 0.101706 -2.67923e-19)
(-0.0233137 0.080365 -1.01023e-19)
(-0.010823 0.0560378 -1.35074e-19)
(0.00490314 0.0283979 -2.93669e-19)
(0.0241904 -0.00292329 6.13119e-19)
(0.0473222 -0.0382345 3.54332e-19)
(0.0745123 -0.0777044 9.50503e-20)
(0.105859 -0.121248 3.03021e-19)
(0.141294 -0.168424 -4.38098e-19)
(0.180509 -0.218326 -1.04261e-19)
(0.222749 -0.269475 -5.00194e-19)
(0.267116 -0.319735 1.88224e-19)
(0.310879 -0.366641 3.90936e-19)
(0.355648 -0.406495 1.64882e-19)
(0.386924 -0.439952 -2.88389e-19)
(0.438866 -0.452401 3.11734e-19)
(-0.0128528 0.0366396 -5.48601e-20)
(-0.0298672 0.0887369 1.53859e-20)
(-0.0400293 0.124402 1.49967e-19)
(-0.0454094 0.14575 2.69508e-19)
(-0.0471921 0.155362 -1.80884e-19)
(-0.0461743 0.155843 1.7624e-19)
(-0.0428149 0.149506 -1.3869e-19)
(-0.0372659 0.138162 5.27551e-19)
(-0.0294427 0.123039 -3.74094e-19)
(-0.0190992 0.104796 8.07173e-20)
(-0.00589692 0.0836365 3.57297e-19)
(0.0105394 0.059449 -5.13771e-20)
(0.0305859 0.0319469 3.98944e-20)
(0.0545915 0.000791581 -5.00328e-19)
(0.0828567 -0.0343041 -4.31306e-19)
(0.115602 -0.0734852 -1.60487e-20)
(0.152916 -0.116646 -4.85645e-19)
(0.194677 -0.163311 1.77413e-19)
(0.240477 -0.212519 -2.47109e-19)
(0.289343 -0.262725 3.11727e-19)
(0.340239 -0.311654 -4.1613e-19)
(0.389684 -0.356996 2.3063e-19)
(0.440148 -0.394293 -1.78818e-19)
(0.474125 -0.426002 2.24045e-19)
(0.531424 -0.434785 -1.13738e-20)
(-0.0133279 0.0353557 2.93953e-19)
(-0.03087 0.0863717 7.6103e-20)
(-0.0408522 0.121997 -1.67845e-19)
(-0.0454681 0.143892 -2.01559e-19)
(-0.0459434 0.154322 1.36171e-19)
(-0.0431264 0.155664 -5.03099e-19)
(-0.037532 0.150087 7.22612e-19)
(-0.0293566 0.139338 1.44275e-19)
(-0.0185448 0.124638 2.37665e-19)
(-0.00486288 0.106677 2.94956e-19)
(0.0120303 0.0857066 1.90424e-19)
(0.0325255 0.0616637 -1.4573e-19)
(0.0570208 0.0343052 -6.83426e-21)
(0.0858898 0.00332718 -7.24298e-20)
(0.119452 -0.0315302 -2.21389e-19)
(0.157935 -0.0703837 5.01568e-19)
(0.201404 -0.113096 1.02858e-18)
(0.249667 -0.159148 6.11493e-20)
(0.302176 -0.207509 3.5109e-19)
(0.35767 -0.256572 -1.79509e-19)
(0.414919 -0.303883 2.06697e-19)
(0.469611 -0.347416 -1.16676e-18)
(0.524988 -0.381794 5.07005e-19)
(0.560901 -0.411601 2.85564e-19)
(0.621771 -0.41663 -1.72318e-19)
(-0.0136854 0.0338876 -1.76963e-19)
(-0.0316408 0.0835048 -3.03047e-19)
(-0.0414244 0.118826 2.91278e-19)
(-0.0452944 0.141066 1.90333e-19)
(-0.0444888 0.152173 1.03963e-19)
(-0.0398897 0.154289 3.65634e-19)
(-0.0320575 0.149428 -3.81246e-19)
(-0.0212295 0.139257 -3.55085e-19)
(-0.00737966 0.124977 -2.3423e-19)
(0.00971153 0.107301 -5.62749e-19)
(0.0303868 0.0865239 1.1198e-19)
(0.0550514 0.0626302 -4.58272e-20)
(0.0841271 0.0354222 8.42864e-19)
(0.118014 0.00463449 3.51874e-19)
(0.157051 -0.0299591 2.56515e-19)
(0.201466 -0.06844 -8.02703e-20)
(0.251289 -0.110627 -4.7172e-19)
(0.306216 -0.155945 -3.82144e-19)
(0.365504 -0.203276 -4.41548e-19)
(0.427525 -0.250956 3.11587e-19)
(0.490757 -0.296325 5.61315e-19)
(0.550064 -0.337747 5.90003e-19)
(0.609219 -0.368907 -5.15816e-19)
(0.646188 -0.396568 1.98531e-19)
(0.708473 -0.397833 2.30172e-19)
(-0.0139251 0.0322693 -4.70618e-19)
(-0.0321744 0.0801996 2.60789e-19)
(-0.0417389 0.114953 -4.43335e-19)
(-0.0448833 0.137322 5.45792e-19)
(-0.0428297 0.148946 -5.21779e-19)
(-0.0364748 0.151729 -1.56911e-19)
(-0.0264129 0.147519 -2.94749e-19)
(-0.0129167 0.137893 1.67709e-19)
(0.00401251 0.124022 -2.90262e-19)
(0.02458 0.10663 3.22129e-19)
(0.0491302 0.0860492 -4.27348e-19)
(0.0780838 0.0623111 -3.23535e-19)
(0.111888 0.0352636 1.16963e-20)
(0.150971 0.00468432 -5.14038e-19)
(0.195689 -0.029612 9.52716e-21)
(0.24626 -0.0676615 -5.32495e-19)
(0.302643 -0.109226 -3.28559e-20)
(0.364372 -0.153657 -5.81035e-19)
(0.430427 -0.199735 2.01556e-19)
(0.498717 -0.245749 8.47062e-19)
(0.567319 -0.288825 -7.88874e-19)
(0.630363 -0.327783 3.60287e-19)
(0.691832 -0.355501 3.64362e-19)
(0.728838 -0.380748 -1.58867e-19)
(0.790164 -0.378341 5.10603e-20)
(-0.014051 0.0305368 2.43915e-19)
(-0.0324724 0.0765265 -6.8446e-20)
(-0.0417938 0.110456 1.50313e-19)
(-0.0442313 0.132728 -4.39207e-19)
(-0.0409635 0.14469 7.07025e-19)
(-0.0328827 0.148011 4.61364e-20)
(-0.0206041 0.144368 5.17483e-19)
(-0.00442772 0.13524 -2.70883e-19)
(0.0156216 0.121755 1.86952e-19)
(0.0397377 0.104641 2.48241e-19)
(0.0682686 0.0842595 2.31997e-19)
(0.101653 0.0606855 7.4578e-19)
(0.140366 0.0338155 -1.91113e-19)
(0.184862 0.00347336 -1.96019e-19)
(0.235508 -0.0304767 -1.56773e-19)
(0.292484 -0.0680134 -1.40184e-20)
(0.355635 -0.108826 -3.31242e-19)
(0.42425 -0.152178 2.93713e-19)
(0.496922 -0.196733 -3.86119e-19)
(0.571015 -0.240748 1.47346e-19)
(0.644077 -0.281171 -2.04639e-19)
(0.709695 -0.31729 2.40649e-20)
(0.771747 -0.341432 -8.46449e-19)
(0.807631 -0.364029 8.65759e-20)
(0.865611 -0.358174 1.09449e-20)
(-0.0140704 0.0287266 3.27833e-19)
(-0.0325426 0.0725599 -2.20053e-19)
(-0.0415916 0.10542 -1.55087e-19)
(-0.0433347 0.127363 -9.32159e-20)
(-0.0388819 0.139469 -3.06208e-19)
(-0.0291022 0.143179 -5.20208e-19)
(-0.0146169 0.140002 -1.71588e-19)
(0.00425609 0.13131 5.89506e-19)
(0.0274755 0.118179 -1.85484e-19)
(0.0552287 0.101331 -4.07962e-19)
(0.0878712 0.0811515 -2.48794e-19)
(0.125865 0.0577569 -7.62229e-19)
(0.169712 0.0310916 -8.45328e-19)
(0.219889 0.00103169 6.42676e-19)
(0.276753 -0.032499 1.34481e-19)
(0.340405 -0.0694082 1.08979e-19)
(0.410501 -0.109296 1.13323e-18)
(0.48598 -0.151325 1.7155e-19)
(0.564923 -0.194042 1.06104e-18)
(0.644068 -0.235687 -1.23754e-18)
(0.720356 -0.273112 5.60444e-19)
(0.787094 -0.306041 -4.63029e-19)
(0.847835 -0.326574 6.70677e-19)
(0.881348 -0.346377 -9.12318e-19)
(0.933804 -0.337437 1.696e-19)
(-0.013994 0.0268749 -8.3131e-20)
(-0.0323981 0.0683763 -1.76855e-19)
(-0.0411384 0.0999369 -1.62743e-19)
(-0.0421886 0.121319 5.55645e-20)
(-0.0365687 0.133362 -8.75256e-20)
(-0.0251058 0.137297 3.28724e-19)
(-0.00841237 0.134468 -1.195e-19)
(0.0131884 0.126134 -2.52841e-19)
(0.0396482 0.113315 -1.03207e-19)
(0.0711557 0.0967185 6.16664e-21)
(0.108081 0.0767473 6.89606e-19)
(0.150911 0.0535565 -6.15978e-19)
(0.200174 0.0271389 9.08734e-19)
(0.256355 -0.00256871 -2.67712e-19)
(0.319764 -0.035573 -4.70525e-19)
(0.390359 -0.0716962 3.90854e-19)
(0.467497 -0.110435 -4.32107e-19)
(0.549645 -0.150845 -7.21394e-19)
(0.634234 -0.19137 -2.7219e-19)
(0.717345 -0.230259 2.38884e-19)
(0.7953 -0.264386 3.59832e-19)
(0.861458 -0.293849 6.53999e-19)
(0.918966 -0.310858 2.23688e-20)
(0.948866 -0.327844 3.76198e-19)
(0.994049 -0.316316 -9.59903e-20)
(-0.0138352 0.0250164 -4.0735e-20)
(-0.0320565 0.0640513 3.86578e-19)
(-0.040442 0.0941029 3.97882e-19)
(-0.0407851 0.114696 -1.7817e-19)
(-0.0339973 0.126465 1.25278e-19)
(-0.0208473 0.130448 -4.68056e-19)
(-0.00192197 0.127834 9.45549e-20)
(0.0224639 0.11977 7.72701e-20)
(0.0522677 0.107213 -2.24666e-19)
(0.0876895 0.0908517 -6.24366e-20)
(0.129121 0.0711005 -8.64059e-19)
(0.177076 0.0481506 2.80437e-19)
(0.232101 0.0220479 -4.32529e-20)
(0.294658 -0.00720483 -8.53921e-21)
(0.364952 -0.0395326 -4.08372e-20)
(0.4427 -0.0746597 -1.02133e-20)
(0.526829 -0.111972 -3.49747e-20)
(0.61519 -0.150419 5.03307e-19)
(0.704461 -0.188382 -4.3307e-19)
(0.79009 -0.224149 3.84334e-19)
(0.867878 -0.25476 -5.37203e-19)
(0.931617 -0.280598 -2.41966e-19)
(0.984098 -0.294297 4.82265e-20)
(1.00928 -0.308574 -3.35441e-19)
(1.04602 -0.295055 -9.49936e-20)
(-0.0136089 0.0231827 -3.89207e-19)
(-0.0315379 0.0596575 -4.83939e-20)
(-0.03951 0.0880135 -4.93237e-19)
(-0.0391104 0.1076 -3.96003e-19)
(-0.0311279 0.118881 5.25389e-19)
(-0.0162572 0.12273 3.61731e-19)
(0.00495703 0.120189 -1.59816e-19)
(0.0322245 0.1123 -1.44671e-19)
(0.0655225 0.0999524 -1.09441e-19)
(0.105075 0.0838114 9.52099e-19)
(0.151301 0.0643022 3.72932e-19)
(0.204738 0.0416507 5.33447e-19)
(0.265928 0.0159593 -2.95876e-20)
(0.335261 -0.0126953 1.09262e-19)
(0.412748 -0.044147 2.98012e-19)
(0.497735 -0.0780134 -7.01275e-19)
(0.588568 -0.113572 1.10527e-18)
(0.682348 -0.149686 1.15542e-19)
(0.774952 -0.184733 -3.49693e-19)
(0.861318 -0.217077 -5.05562e-19)
(0.93694 -0.24407 -2.62971e-19)
(0.996439 -0.266272 5.24883e-19)
(1.04238 -0.276996 -2.22249e-20)
(1.062 -0.28879 2.27331e-19)
(1.0898 -0.273932 2.42971e-19)
(-0.0133315 0.021402 2.97229e-19)
(-0.0308634 0.0552618 3.08685e-20)
(-0.0383479 0.081762 -6.70653e-20)
(-0.0371431 0.100138 6.97463e-20)
(-0.0279049 0.110726 -4.99705e-19)
(-0.0112401 0.114258 6.68576e-19)
(0.0123652 0.111646 -8.57849e-22)
(0.0426628 0.103832 5.51668e-19)
(0.0796656 0.0916423 2.26564e-20)
(0.123632 0.075716 -1.94289e-19)
(0.175013 0.0564868 3.09826e-19)
(0.234354 0.0342174 -1.05085e-18)
(0.302152 0.00907035 -6.57269e-19)
(0.378648 -0.0187969 -3.30473e-19)
(0.463539 -0.049121 -1.46576e-19)
(0.555642 -0.0814141 1.45222e-20)
(0.652565 -0.114862 -7.13205e-19)
(0.750573 -0.148279 2.64338e-19)
(0.844792 -0.180111 9.99425e-19)
(0.929873 -0.208841 2.73318e-19)
(1.00132 -0.232251 6.08359e-19)
(1.05495 -0.250954 -5.61558e-19)
(1.09323 -0.259148 -1.14844e-19)
(1.10684 -0.268761 -1.8085e-19)
(1.12578 -0.253222 -8.6666e-19)
(-0.0130189 0.0196976 -2.78484e-19)
(-0.0300527 0.0509233 1.4089e-19)
(-0.0369561 0.0754359 2.49541e-19)
(-0.0348509 0.0924198 8.67805e-19)
(-0.0242541 0.102121 3.27157e-19)
(-0.00567241 0.105159 -7.28547e-19)
(0.0204832 0.102336 -1.84464e-19)
(0.0540239 0.0945033 -9.66763e-20)
(0.0950134 0.0824278 -3.23453e-19)
(0.143754 0.0667245 -1.06591e-19)
(0.200719 0.0478359 -2.25008e-19)
(0.266436 0.0260642 8.35304e-19)
(0.341291 0.00163609 1.01147e-18)
(0.425263 -0.0252072 5.15881e-19)
(0.517585 -0.0541066 -2.63902e-19)
(0.616378 -0.0844817 -1.84637e-19)
(0.718383 -0.115461 4.09794e-19)
(0.819026 -0.145863 -9.4728e-20)
(0.912848 -0.174277 -1.78007e-20)
(0.994532 -0.199343 2.0246e-19)
(1.05997 -0.21935 -2.79954e-19)
(1.10644 -0.234819 -4.45129e-19)
(1.13643 -0.241007 -2.62207e-19)
(1.14401 -0.248767 3.29466e-19)
(1.15467 -0.233176 9.05985e-19)
(-0.012686 0.0180874 2.22476e-19)
(-0.0291219 0.0466918 7.53067e-19)
(-0.0353276 0.0691148 3.00502e-19)
(-0.0321888 0.0845485 -2.66249e-19)
(-0.0200808 0.0931886 3.71603e-19)
(0.000599487 0.0955721 4.10623e-19)
(0.0295317 0.0924109 4.63383e-19)
(0.0666025 0.0844774 -2.54155e-20)
(0.111939 0.0724879 3.71168e-19)
(0.165888 0.0570366 -1.1509e-18)
(0.228928 0.0385782 6.5778e-19)
(0.301513 0.0174568 -3.56307e-19)
(0.383822 -0.00603551 -9.09712e-19)
(0.475433 -0.0315761 -6.66765e-19)
(0.57494 -0.0587223 1.09425e-18)
(0.679614 -0.0868303 -3.74174e-19)
(0.785274 -0.11502 -1.83679e-19)
(0.886606 -0.142178 1.33118e-19)
(0.977866 -0.167098 -6.92564e-19)
(1.05414 -0.188602 5.20698e-19)
(1.11207 -0.205513 -7.61945e-20)
(1.15056 -0.218109 5.54316e-19)
(1.17212 -0.222857 5.77461e-19)
(1.17404 -0.22906 -1.8115e-19)
(1.17733 -0.214011 -3.23271e-19)
(-0.0123452 0.0165837 -1.16024e-19)
(-0.0280812 0.0426061 -4.27295e-19)
(-0.0334454 0.0628679 1.13666e-20)
(-0.0290965 0.0766226 -2.15166e-19)
(-0.015269 0.0840533 -6.3453e-19)
(0.00775806 0.0856434 -3.2949e-19)
(0.039768 0.0820362 1.81703e-19)
(0.0807366 0.0739412 -5.71735e-19)
(0.13086 0.0620326 4.48552e-20)
(0.190519 0.0468903 2.88301e-19)
(0.260157 0.0289856 -8.33187e-19)
(0.340073 0.0087053 -2.75761e-19)
(0.430114 -0.0135959 7.26981e-19)
(0.529288 -0.0375256 4.96956e-19)
(0.635379 -0.0625834 -6.45054e-19)
(0.744703 -0.0881055 6.90645e-19)
(0.8522 -0.113262 2.84384e-19)
(0.952053 -0.137068 -7.25754e-20)
(1.03861 -0.158561 -5.86669e-20)
(1.10774 -0.176749 -5.65014e-19)
(1.15714 -0.190956 5.64457e-20)
(1.18732 -0.201093 -8.79574e-20)
(1.20075 -0.204972 -4.48834e-19)
(1.19773 -0.209832 -3.04363e-19)
(1.19466 -0.195898 -2.5385e-19)
(-0.0120054 0.0151923 -7.29374e-20)
(-0.0269327 0.0386933 -9.49192e-19)
(-0.0312806 0.0567525 -5.85515e-19)
(-0.0254977 0.0687314 -7.46068e-19)
(-0.00968153 0.0748355 6.59726e-19)
(0.016012 0.0755227 5.31938e-20)
(0.0514798 0.07139 4.82045e-19)
(0.096794 0.0631006 -4.4231e-19)
(0.152216 0.051298 7.44211e-19)
(0.218131 0.0365555 2.8195e-19)
(0.294882 0.019364 2.47211e-20)
(0.382506 0.000151437 -4.45669e-20)
(0.480355 -0.0206755 -1.61471e-19)
(0.586694 -0.0426776 -1.40282e-19)
(0.698358 -0.0653361 1.50597e-19)
(0.81069 -0.0880215 2.10082e-19)
(0.917922 -0.110013 -1.34405e-18)
(1.01408 -0.130499 7.96128e-20)
(1.09402 -0.148766 -2.06479e-19)
(1.15471 -0.163998 -1.87332e-19)
(1.19507 -0.175928 8.39481e-20)
(1.21703 -0.184038 -5.29707e-19)
(1.22302 -0.18758 2.23195e-19)
(1.21598 -0.191175 2.48355e-19)
(1.20745 -0.178952 -5.27288e-19)
(-0.0116711 0.0139132 1.69954e-19)
(-0.0256688 0.0349685 6.86652e-19)
(-0.0287908 0.0508125 5.92509e-20)
(-0.0212996 0.0609531 1.08355e-18)
(-0.00316226 0.065649 -6.88369e-19)
(0.0255905 0.0653592 6.75865e-19)
(0.064974 0.0606564 -6.08173e-19)
(0.115155 0.0521745 2.40527e-19)
(0.176439 0.0405389 -3.14501e-19)
(0.249167 0.0263236 4.17342e-19)
(0.33349 0.01004 7.00137e-19)
(0.429035 -0.00785072 3.66569e-19)
(0.534493 -0.0269094 1.47895e-19)
(0.647218 -0.0466853 1.63527e-19)
(0.763028 -0.0666913 -1.25566e-19)
(0.876392 -0.0863897 -1.0307e-19)
(0.981123 -0.105214 1.08367e-18)
(1.0715 -0.122549 3.42188e-19)
(1.14331 -0.137902 9.26087e-19)
(1.19477 -0.150608 2.54045e-20)
(1.2261 -0.160678 -5.1969e-19)
(1.24032 -0.167191 6.2457e-19)
(1.23981 -0.170816 7.19028e-19)
(1.22963 -0.173013 7.56559e-20)
(1.21634 -0.16322 5.13128e-19)
(-0.0113414 0.0127403 -4.81769e-19)
(-0.0242709 0.0314351 2.66174e-19)
(-0.02592 0.0450784 5.84197e-19)
(-0.0163943 0.0533532 -2.30077e-19)
(0.00446022 0.056598 -6.83917e-19)
(0.036736 0.0552971 -5.07649e-20)
(0.0805635 0.0500197 3.74006e-20)
(0.136189 0.0413874 6.71456e-20)
(0.203927 0.0300189 -4.32981e-19)
(0.283992 0.0164948 -1.86056e-19)
(0.376221 0.00134316 -6.52049e-19)
(0.47967 -0.0149569 -1.68265e-20)
(0.592193 -0.0319643 -1.87854e-19)
(0.710124 -0.0492627 -5.48988e-20)
(0.828287 -0.0664513 4.92955e-19)
(0.940501 -0.0831334 -7.1757e-19)
(1.04055 -0.0989212 2.91128e-19)
(1.1234 -0.113391 -4.6276e-19)
(1.18602 -0.126215 -6.6649e-19)
(1.228 -0.13685 1.18621e-19)
(1.25074 -0.145436 1.10942e-18)
(1.25797 -0.15077 -5.32716e-19)
(1.25209 -0.154683 2.56271e-20)
(1.23941 -0.155139 3.9028e-19)
(1.22179 -0.148922 2.00875e-19)
(-0.0110096 0.0116625 2.26925e-19)
(-0.0227089 0.0280853 -3.21114e-19)
(-0.0225984 0.0395672 -6.79036e-19)
(-0.0106607 0.0459839 -3.60949e-19)
(0.0133673 0.0477751 3.94566e-19)
(0.0496935 0.0454719 1.34213e-19)
(0.0985505 0.0396588 7.88518e-19)
(0.160234 0.0309606 3.21678e-19)
(0.235001 0.0199995 2.05096e-19)
(0.322843 0.0073634 9.53319e-20)
(0.423127 -0.00641223 6.71934e-19)
(0.53417 -0.0208555 3.05704e-19)
(0.652841 -0.0355641 -2.55174e-19)
(0.774418 -0.0502082 3.66915e-19)
(0.892879 -0.0645238 -2.11432e-19)
(1.00173 -0.0782864 2.65116e-19)
(1.09516 -0.0912853 -2.58002e-19)
(1.16915 -0.103255 -5.25621e-19)
(1.22208 -0.113973 7.37928e-19)
(1.2548 -0.122974 -7.46415e-19)
(1.26972 -0.1304 1.96248e-19)
(1.27092 -0.134948 -2.17544e-19)
(1.26088 -0.13905 -1.53779e-19)
(1.24604 -0.13757 -1.15238e-18)
(1.22416 -0.137057 1.7064e-19)
(-0.0106634 0.0106644 4.65914e-20)
(-0.0209413 0.0249024 2.29568e-19)
(-0.0187442 0.0342838 7.61478e-19)
(-0.00396807 0.0388836 -1.7945e-19)
(0.0237439 0.0392595 -7.8278e-20)
(0.0647003 0.0360068 1.45252e-19)
(0.11921 0.0297418 1.29843e-19)
(0.187567 0.0211053 -5.16456e-19)
(0.269887 0.0107289 -2.41393e-19)
(0.365802 -0.000795801 -7.49463e-19)
(0.474049 -0.0129448 -5.70157e-19)
(0.592039 -0.0252875 -4.09809e-19)
(0.715571 -0.0375091 3.66879e-19)
(0.838931 -0.049417 -5.34219e-19)
(0.955519 -0.0609207 -2.55203e-19)
(1.05893 -0.0719751 -1.09591e-19)
(1.14417 -0.0825199 -8.50515e-20)
(1.20851 -0.0923978 1.5695e-18)
(1.25172 -0.101431 8.34028e-20)
(1.27578 -0.109187 -1.31835e-19)
(1.28383 -0.115738 -6.7904e-19)
(1.28006 -0.119821 2.06714e-19)
(1.26707 -0.123789 1.30373e-20)
(1.25043 -0.121121 6.60168e-19)
(1.22469 -0.128106 7.21962e-20)
(-0.0102843 0.00972751 3.65041e-19)
(-0.0189159 0.0218622 -3.50433e-19)
(-0.0142655 0.0292223 -5.31002e-19)
(0.00381982 0.0320782 5.3291e-19)
(0.0357713 0.0311166 -1.19378e-19)
(0.0819743 0.0270109 -1.03787e-19)
(0.142772 0.020422 9.01698e-20)
(0.218388 0.0120156 -1.29924e-19)
(0.308681 0.00243377 3.2824e-19)
(0.412774 -0.00773998 2.14451e-19)
(0.528604 -0.0180204 5.57559e-19)
(0.652548 -0.0280616 -1.52541e-20)
(0.779329 -0.0376861 4.59476e-19)
(0.902424 -0.046881 -2.89615e-20)
(1.01501 -0.0557449 4.87122e-19)
(1.11121 -0.0643931 1.39173e-19)
(1.18714 -0.0728703 -8.85877e-19)
(1.24152 -0.0810707 -4.27129e-19)
(1.2754 -0.0888095 -1.07272e-19)
(1.29167 -0.0956528 2.53318e-19)
(1.29391 -0.101573 -1.1252e-19)
(1.28623 -0.105398 -3.80119e-19)
(1.27121 -0.10905 5.40647e-20)
(1.25324 -0.10681 -3.05494e-19)
(1.22977 -0.111599 -1.38508e-19)
(-0.0098493 0.00883178 2.23195e-19)
(-0.0165718 0.0189359 2.37681e-19)
(-0.00906301 0.0243691 4.35271e-19)
(0.0128406 0.0255831 -3.17274e-19)
(0.0496202 0.0233994 2.27641e-20)
(0.101704 0.018579 6.3638e-19)
(0.169411 0.0118359 -1.82583e-19)
(0.2528 0.00386471 -6.13137e-19)
(0.35134 -0.00468794 -3.65894e-19)
(0.463479 -0.0132669 4.91091e-19)
(0.586204 -0.0214623 -1.029e-18)
(0.714786 -0.029061 4.07973e-21)
(0.842965 -0.0360694 -9.0398e-20)
(0.963697 -0.0426786 6.54091e-19)
(1.07035 -0.049167 -3.48608e-19)
(1.15794 -0.0557707 4.76021e-19)
(1.22397 -0.062584 4.73196e-19)
(1.26852 -0.0694988 -8.06575e-19)
(1.29378 -0.0762853 -3.32435e-19)
(1.30325 -0.0824831 -2.56597e-19)
(1.30073 -0.0879708 3.82142e-19)
(1.2901 -0.0916451 5.62833e-19)
(1.27372 -0.0951505 2.39879e-19)
(1.25541 -0.0931692 -2.04466e-19)
(1.23292 -0.0981836 -3.42552e-19)
(-0.00933079 0.00795686 -5.25827e-20)
(-0.0138406 0.0160925 2.21786e-19)
(-0.00303291 0.0197058 -4.40956e-19)
(0.0232284 0.019406 -6.77358e-19)
(0.0654447 0.0161502 -1.00535e-18)
(0.12404 0.0107923 1.71059e-19)
(0.199234 0.00410276 -2.03221e-19)
(0.290805 -0.00319732 2.9899e-19)
(0.397679 -0.0104707 1.11865e-19)
(0.517469 -0.0172203 2.15319e-19)
(0.646089 -0.0231557 2.43033e-19)
(0.777721 -0.028245 -1.32524e-19)
(0.905319 -0.0327122 -1.95043e-19)
(1.02168 -0.0369552 -4.32912e-19)
(1.12078 -0.0413997 1.33368e-19)
(1.19885 -0.0463481 -4.97748e-19)
(1.2548 -0.0518886 1.80603e-19)
(1.29002 -0.0578671 1.22851e-19)
(1.30756 -0.0639854 -4.55336e-19)
(1.3113 -0.069747 -4.6706e-19)
(1.30501 -0.074947 -2.35592e-19)
(1.29224 -0.0785673 1.9279e-20)
(1.27508 -0.081985 6.93856e-20)
(1.25672 -0.080501 -2.03055e-19)
(1.23531 -0.0854879 1.42475e-19)
(-0.00869824 0.00708357 3.2944e-21)
(-0.0106492 0.0133022 -6.10132e-19)
(0.00392982 0.0152125 7.78161e-19)
(0.0351101 0.0135502 8.32568e-19)
(0.0833766 0.0094043 4.97181e-19)
(0.149089 0.00372134 -1.79429e-20)
(0.232274 -0.00267373 -1.82448e-19)
(0.332293 -0.00904335 -2.52218e-19)
(0.447373 -0.0147829 4.6015e-19)
(0.57414 -0.0194917 -1.12112e-18)