/*--------------------------------*- C++ -*----------------------------------*\
  =========                 |
  \\      /  F ield         | OpenFOAM: The Open Source CFD Toolbox
   \\    /   O peration     | Website:  https://openfoam.org
    \\  /    A nd           | Version:  7
     \\/     M anipulation  |
\*---------------------------------------------------------------------------*/
FoamFile
{
    version     2.0;
    format      ascii;
    class       surfaceScalarField;
    location    "80";
    object      phi;
}
// * * * * * * * * * * * * * * * * * * * * * * * * * * * * * * * * * * * * * //

dimensions      [0 3 -1 0 0 0 0];

internalField   nonuniform List<scalar> 
3881
(
0.00404127
0.00192862
-0.00203551
0.00417627
0.0018392
-0.00197421
0.00433193
0.00161635
-0.00177201
0.0044977
0.00125157
-0.00141735
0.0046603
0.000752039
-0.000914633
0.00480329
0.000148401
-0.000291395
0.00491601
-0.000516945
0.000404222
0.00499002
-0.00118017
0.00110617
0.0050245
-0.00179277
0.00175829
0.00502324
-0.00231702
0.00231827
0.00499255
-0.00273215
0.00276284
0.00493941
-0.00303165
0.0030848
0.00487037
-0.00321917
0.0032882
0.0047911
-0.00330418
0.00338345
0.00470616
-0.00329859
0.00338353
0.00461905
-0.00321415
0.00330127
0.00453233
-0.00306096
0.00314768
0.00444778
-0.00284674
0.0029313
0.00436645
-0.00257722
0.00265854
0.00428928
-0.00225588
0.00233306
0.00421716
-0.00188338
0.00195549
0.00414907
-0.00146078
0.00152886
0.00407889
-0.000998817
0.001069
0.00399544
-0.000524551
0.000608004
0.00388904
-7.05154e-05
0.000176914
0.00375868
0.000349607
-0.000219242
0.0036174
0.000753053
-0.000611781
0.00348711
0.00117802
-0.00104772
0.00339074
0.00165605
-0.00155968
0.00334534
0.00217593
-0.00213053
0.0033594
0.00268077
-0.00269483
0.00343419
0.00307047
-0.00314526
0.00356479
0.00323641
-0.00336701
0.0037405
0.00309192
-0.00326763
0.0039436
0.00260596
-0.00280907
0.00415104
0.00183408
-0.00204152
0.00433905
0.000879288
-0.0010673
0.0044899
-0.000102542
-4.83064e-05
0.00459545
-0.00101241
0.00090686
0.00465596
-0.00174184
0.00168133
0.0046772
-0.00229565
0.00227442
0.00466786
-0.00262749
0.00263683
0.00463677
-0.00280966
0.00284075
0.00459113
-0.00280999
0.00285563
0.00453757
-0.00271334
0.0027669
0.00447923
-0.00249155
0.00254989
0.00442281
-0.00218451
0.00224093
0.00436708
-0.00181522
0.00187095
0.00431396
-0.00131028
0.0013634
0.00424993
-0.000905332
0.000969369
0.00417354
-0.000290289
0.000366675
0.00407757
-2.55165e-05
0.000121491
0.00397653
0.000621192
-0.000520159
0.00388782
0.000813755
-0.000725046
0.00381647
0.00138548
-0.00131413
0.00173673
-0.00173139
0.00441864
0.00182311
0.0045489
0.00170895
0.00469628
0.00146897
0.00484996
0.00109789
0.0049964
0.000605601
0.00512274
2.20575e-05
0.00521655
-0.000610752
0.00527324
-0.00123686
0.00529236
-0.00181189
0.00527782
-0.00230248
0.00523568
-0.00269001
0.00517266
-0.00296863
0.00509516
-0.00314167
0.00500872
-0.00321774
0.00491781
-0.00320768
0.00482583
-0.00312217
0.00473527
-0.00297041
0.00464788
-0.00275935
0.00456473
-0.00249407
0.00448669
-0.00217784
0.00441482
-0.00181151
0.00434915
-0.00139511
0.00428553
-0.000935196
0.00421427
-0.000453291
0.00412418
1.95729e-05
0.0040116
0.000462192
0.00388497
0.000879681
0.003764
0.00129899
0.00367198
0.00174807
0.00362817
0.00221974
0.00364342
0.00266552
0.00372016
0.00299373
0.00385323
0.00310335
0.00403026
0.00291489
0.00423168
0.00240455
0.0044332
0.00163257
0.00461158
0.00070091
0.00475057
-0.000241532
0.00484347
-0.00110531
0.00489191
-0.00179028
0.00490227
-0.00230601
0.00488367
-0.0026089
0.00484483
-0.00277081
0.00479326
-0.00275842
0.004735
-0.00265508
0.0046736
-0.00243015
0.0046147
-0.00212561
0.00455869
-0.00175921
0.00450741
-0.001259
0.00444975
-0.000847673
0.0043823
-0.000222833
0.00429725
5.95276e-05
0.00420562
0.00071283
0.00412379
0.000895585
0.00405668
0.00145259
0.00174096
0.00480469
0.00171837
0.00493009
0.00158355
0.00506856
0.0013305
0.00520944
0.000957013
0.00533999
0.00047505
0.00544827
-8.62216e-05
0.00552394
-0.000686419
0.00556334
-0.00127627
0.00556686
-0.00181541
0.00553856
-0.00227418
0.00548448
-0.00263592
0.00541121
-0.00289536
0.00532505
-0.0030555
0.0052314
-0.00312409
0.00513459
-0.00311088
0.00503789
-0.00302547
0.0049437
-0.00287621
0.00485369
-0.00266934
0.00476896
-0.00240934
0.00469033
-0.00209921
0.00461886
-0.00174004
0.00455533
-0.00133158
0.00449738
-0.000877252
0.00443729
-0.000393202
0.00436403
9.28345e-05
0.00427122
0.000555007
0.00416317
0.000987732
0.00405626
0.0014059
0.00397291
0.00183141
0.00393369
0.00225896
0.00395156
0.00264765
0.00403027
0.00291502
0.00416465
0.00296897
0.00434099
0.00273855
0.00453817
0.00220736
0.00473126
0.00143948
0.00489773
0.000534433
0.00502296
-0.000366757
0.0051017
-0.00118405
0.00513686
-0.00182544
0.00513542
-0.00230458
0.00510696
-0.00258044
0.00506
-0.00272385
0.00500228
-0.0027007
0.00493928
-0.00259208
0.00487482
-0.00236568
0.00481357
-0.00206436
0.0047571
-0.00170274
0.00470742
-0.00120932
0.00465569
-0.000795939
0.00459749
-0.000164635
0.00452429
0.000132725
0.00444393
0.000793195
0.00437104
0.000968471
0.00431018
0.00151345
0.00174319
0.00519358
0.00531438
0.00544381
0.00557167
0.00568616
0.0057765
0.00583431
0.00585672
0.00584483
0.00580297
0.00573719
0.00565402
0.00555958
0.00545912
0.0053568
0.00525573
0.00515818
0.00506579
-0.00257696
0.00497967
-0.00232323
0.00490065
-0.00202018
0.00482974
-0.00166913
0.00476812
-0.00126996
0.004715
-0.000824132
0.00466487
-0.000343076
0.00460784
0.000149862
0.00453586
0.00062699
0.00444946
0.00107414
0.00436103
0.00149432
0.0042909
0.00190154
0.00425982
0.00229003
0.0042823
0.00262517
0.00436335
0.00283397
0.00449802
0.00283431
0.0046716
0.00256496
0.00486196
0.002017
0.005044
0.00125744
0.00519627
0.000382164
0.00530585
-0.000476331
0.005369
-0.0012472
0.00538987
-0.00184631
0.00537601
-0.00229072
0.00533734
-0.00254176
0.00528209
-0.0026686
0.00521817
-0.00263678
0.00515043
-0.00252435
0.00508302
-0.00229827
0.00501951
-0.00200086
0.00496254
-0.00164578
0.00491411
-0.00116088
0.00486784
-0.000749669
0.00481878
-0.000115581
0.00475808
0.000193432
0.00469056
0.00086071
0.00462852
0.00103051
0.0045761
0.00156587
0.00174238
0.00528454
0.00519725
0.005118
0.00504779
0.00498798
0.00493895
0.0048974
0.00485529
0.00480408
0.00474124
0.00467495
0.0046224
0.0046033
0.00463283
0.004717
0.00485116
0.00502004
0.00520108
0.00536955
0.00550545
0.0055977
0.00564411
0.00564999
0.00562337
0.00557439
0.0055109
0.00544087
0.00536849
0.00529827
0.00523265
0.00517521
0.00512769
0.00508631
0.005046
0.00499798
0.00494454
0.00489499
0.00485315
0.0013191
0.00389556
0.00128921
0.00425286
0.00123885
0.00454893
0.00118194
0.00476486
0.00113661
0.0048604
0.00112097
0.00478126
0.00114759
0.00447815
0.00121977
0.00392913
0.00133159
0.00315242
0.00147116
0.00220283
0.0016247
0.00115644
0.00177911
9.3444e-05
0.00192312
-0.000915171
0.00204759
-0.00181567
0.00214549
-0.00257593
0.00221169
-0.00318541
0.00224211
-0.00365312
0.00223307
-0.00400564
0.00218238
-0.0042834
0.00209315
-0.00452775
0.00197857
-0.0047541
0.001863
-0.00492459
0.00177623
-0.00494474
0.00174251
-0.00470153
0.0017706
-0.00412359
0.00185214
-0.00322618
0.00196814
-0.00210319
0.00209741
-0.000886773
0.00222177
0.000300618
0.00232769
0.00136747
0.00240578
0.00226422
0.0024493
0.00297801
0.00245295
0.00353013
0.00241376
0.0039686
0.00233548
0.0043368
0.00223287
0.00464874
0.00213168
0.00483504
0.00206072
0.00479734
0.00204055
0.00440745
0.0020748
0.00366413
0.00215135
0.00260252
0.00225011
0.00140603
0.00235077
0.000179769
0.00243729
-0.000912721
0.00249808
-0.00183661
0.00252489
-0.00255992
0.0025134
-0.00308523
0.00246348
-0.00353791
0.00238628
-0.00379513
0.00229895
-0.0041057
0.00222702
-0.00399279
-0.00393249
0.00123962
0.00389171
0.00121809
0.00427439
0.00118024
0.00458678
0.00114051
0.0048046
0.00111632
0.00488458
0.00112371
0.00477387
0.00117237
0.0044295
0.00126297
0.00383853
0.00138816
0.00302723
0.00153605
0.00205494
0.00169376
0.000998724
0.00184935
-6.214e-05
0.00199255
-0.00105837
0.00211504
-0.00193816
0.00221051
-0.00267141
0.00227452
-0.00324942
0.00230365
-0.00368225
0.00229446
-0.00399646
0.00224399
-0.00423293
0.00215333
-0.00443709
0.00203296
-0.00463373
0.00190536
-0.00479698
0.00180071
-0.0048401
0.00174613
-0.00464694
0.00175445
-0.00413191
0.00182041
-0.00329214
0.00192604
-0.00220882
0.0020495
-0.00101024
0.00217132
0.000178801
0.00227665
0.00126214
0.00235496
0.00218591
0.00239864
0.00293433
0.0024021
0.00352668
0.00236321
0.00400748
0.00228759
0.00441242
0.00219196
0.00474437
0.00210287
0.00492413
0.00204794
0.00485227
0.00204478
0.00441061
0.00209399
0.00361493
0.00218162
0.00251488
0.00228748
0.00130017
0.00239205
7.51985e-05
0.00248048
-0.00100115
0.00254232
-0.00189845
0.00256999
-0.00258759
0.00255924
-0.00307448
0.00250875
-0.00348743
0.00242838
-0.00371476
0.00233371
-0.00401103
0.00225093
-0.00391001
0.00219891
-0.00388047
0.00218594
-0.00312952
0.00221269
-0.00255857
0.00225495
-0.0013324
0.00230682
-0.000405703
0.002347
0.00057513
0.00175514
0.0011678
0.0038813
0.00115628
0.00428591
0.00113267
0.00461039
0.0011114
0.00482588
0.00110874
0.00488723
0.00113843
0.00474419
0.00120738
0.00436054
0.0013141
0.00373181
0.00145032
0.00289101
0.00160455
0.00190072
0.00176492
0.00083835
0.00192058
-0.000217797
0.00206217
-0.00119997
0.00218208
-0.00205807
0.00227465
-0.00276398
0.0023361
-0.00331087
0.00236371
-0.00370986
0.00235449
-0.00398723
0.002305
-0.00418344
0.00221445
-0.00434654
0.00209045
-0.00450973
0.00195304
-0.00465958
0.00183205
-0.0047191
0.00175694
-0.00457184
0.00174465
-0.00411962
0.00179353
-0.00334102
0.00188721
-0.00230249
0.00200354
-0.00112657
0.00212183
6.05137e-05
0.00222588
0.00115809
0.00230395
0.00210783
0.0023476
0.00289069
0.00235112
0.00352316
0.00231335
0.00404526
0.00224166
0.0044841
0.00215446
0.00483157
0.00207863
0.00499996
0.00204018
0.00489072
0.00205368
0.00439711
0.00211693
0.00355168
0.00221457
0.00241724
0.00232654
0.0011882
0.00243424
-3.25018e-05
0.00252397
-0.00109088
0.00258644
-0.00196092
0.00261481
-0.00261596
0.00260502
-0.00306469
0.00255465
-0.00343706
0.00247213
-0.00363225
0.00237128
-0.00391018
0.00227855
-0.00381727
0.00221335
-0.00381527
0.00218722
-0.0031034
0.00220175
-0.0025731
0.00223471
-0.00136536
0.00228029
-0.000451283
0.00231556
0.000539859
0.00175233
0.00110523
0.00386314
0.00110517
0.00428598
0.00109709
0.00461846
0.00109501
0.00482795
0.00111369
0.00486855
0.00116443
0.00469344
0.00125166
0.00427332
0.00137213
0.00361134
0.00151718
0.00274595
0.00167594
0.00174195
0.00183766
0.000676637
0.00199243
-0.000372573
0.00213171
-0.00133924
0.00224849
-0.00217485
0.00233772
-0.0028532
0.00239624
-0.0033694
0.00242206
-0.00373567
0.00241276
-0.00397793
0.00236476
-0.00413544
0.00227565
-0.00425743
0.00215013
-0.00438421
0.0020053
-0.00451475
0.00186987
-0.00458367
0.00177503
-0.004477
0.00174164
-0.00408624
0.00177209
-0.00337147
0.00185222
-0.00238262
0.00196002
-0.00123436
0.0020737
-5.31725e-05
0.00217572
0.00105607
0.0022531
0.00203045
0.0022966
0.00284719
0.00230053
0.00351922
0.00226474
0.00408105
0.00219826
0.00455058
0.00212084
0.004909
0.00205921
0.00506159
0.00203744
0.0049125
0.00206704
0.00436751
0.00214332
0.0034754
0.00224986
0.00231069
0.002367
0.00107107
0.00247709
-0.000142595
0.00256756
-0.00118135
0.00263025
-0.00202361
0.00265911
-0.00264481
0.00265041
-0.00305599
0.00260076
-0.00338741
0.00251711
-0.00354859
0.00241128
-0.00380435
0.00230962
-0.00371562
0.00223186
-0.00373751
0.00219268
-0.00306421
0.00219466
-0.00257508
0.0022179
-0.0013886
0.00225671
-0.000490089
0.00228688
0.000509689
0.00175011
0.00105337
0.00383619
0.00106586
0.00427348
0.00107416
0.00461017
0.00109145
0.00481067
0.00113072
0.00482928
0.00120089
0.00462327
0.00130417
0.00417005
0.00143607
0.00347944
0.00158791
0.00259411
0.00174964
0.00158022
0.00191155
0.000514725
0.00206462
-0.000525635
0.00220094
-0.00147557
0.00231409
-0.002288
0.00239955
-0.00293867
0.00245479
-0.00342464
0.0024785
-0.00375938
0.00246897
-0.00396841
0.00242275
-0.00408922
0.00233618
-0.00417085
0.0022111
-0.00425912
0.00206132
-0.00436497
0.00191366
-0.00443601
0.0018003
-0.00436364
0.00174574
-0.00403167
0.00175664
-0.00338238
0.0018217
-0.00244767
0.0019195
-0.00133217
0.00202743
-0.000161108
0.00212661
0.000956898
0.00220283
0.00195423
0.00224612
0.0028039
0.00225088
0.00351446
0.00221799
0.00411394
0.00215797
0.0046106
0.0020915
0.00497547
0.00204477
0.00510832
0.00203963
0.00491764
0.0020846
0.00432253
0.00217283
0.00338717
0.00228722
0.00219631
0.00240862
0.000949661
0.00252042
-0.000254393
0.0026111
-0.00127202
0.00267358
-0.0020861
0.00270268
-0.00267391
0.00269513
-0.00304845
0.0026467
-0.00333898
0.00256287
-0.00346476
0.00245331
-0.00369479
0.00234387
-0.00360618
0.00225432
-0.00364796
0.00220232
-0.00301221
0.00219156
-0.00256433
0.00220475
-0.00140179
0.00223635
-0.000521684
0.00226126
0.000484774
0.00174833
0.00101342
0.00379971
0.00103919
0.00424771
0.00106419
0.00458516
0.0011005
0.00477436
0.00115917
0.00477061
0.00124686
0.00453558
0.00136391
0.004053
0.00150503
0.00333832
0.00166182
0.00243732
0.00182514
0.00141691
0.00198626
0.000353601
0.00213687
-0.000676245
0.00226966
-0.00160836
0.00237869
-0.00239703
0.00246
-0.00301998
0.00251163
-0.00347626
0.00253291
-0.00378067
0.00252291
-0.0039584
0.00247856
-0.00404487
0.00239534
-0.00408763
0.00227246
-0.00413625
0.00212019
-0.0042127
0.00196278
-0.00427859
0.00183256
-0.00423342
0.00175716
-0.00395627
0.0017477
-0.00337292
0.00179624
-0.00249622
0.00188258
-0.00141851
0.00198357
-0.000262089
0.00207905
0.000861416
0.00215365
0.00187963
0.0021967
0.00276084
0.00220278
0.00350839
0.00217373
0.00414299
0.00212131
0.00466301
0.0020668
0.00502999
0.00203542
0.0051397
0.00204663
0.00490642
0.0021061
0.00426306
0.00220517
0.0032881
0.00232635
0.00207513
0.00245119
0.000824821
0.00256406
-0.00036726
0.00265444
-0.00136241
0.00271632
-0.00214797
0.00274536
-0.00270294
0.00273893
-0.00304202
0.00269213
-0.00329218
0.00260902
-0.00338165
0.00249696
-0.00358273
0.00238097
-0.00349019
0.00228056
-0.00354755
0.00221614
-0.00294779
0.00219259
-0.00254078
0.00219548
-0.00140468
0.00221948
-0.000545687
0.00223902
0.000465232
0.00174684
0.000986279
0.00375325
0.00102564
0.00420835
0.0010672
0.0045436
0.0011217
0.00471987
0.00119821
0.0046941
0.00130132
0.00443247
0.00142988
0.00392444
0.00157816
0.00319003
0.00173828
0.00227721
0.001902
0.00125318
0.00206146
0.000194141
0.00220896
-0.000823744
0.00233767
-0.00173706
0.00244213
-0.0025015
0.00251892
-0.00309676
0.00256661
-0.00352396
0.00258519
-0.00379924
0.00257442
-0.00394764
0.00253186
-0.00400232
0.00245254
-0.00400831
0.00233339
-0.00401709
0.002181
-0.00406032
0.00201647
-0.00411406
0.00187142
-0.00408838
0.00177599
-0.00386083
0.0017457
-0.00334263
0.00177648
-0.00252701
0.00184993
-0.00149195
0.00194271
-0.000354876
0.00203362
0.000770506
0.00210614
0.00180712
0.00214898
0.002718
0.00215686
0.0035005
0.00213254
0.0041673
0.00208877
0.00470678
0.002047
0.00507175
0.00203118
0.00515552
0.00205826
0.00487934
0.00213126
0.00419007
0.00224004
0.00317931
0.00236702
0.00194815
0.00249451
0.000697329
0.00260786
-0.000480609
0.00269749
-0.00145204
0.00275837
-0.00220886
0.00278704
-0.00273162
0.00278162
-0.0030366
0.00273675
-0.00324731
0.00265515
-0.00330006
0.00254182
-0.00346939
0.00242056
-0.00336894
0.00231037
-0.00343736
0.00223408
-0.0028715
0.00219782
-0.00250452
0.00219025
-0.00139711
0.00220635
-0.000561788
0.00222044
0.000451147
0.00174553
0.000972538
0.00369668
0.00102537
0.00415552
0.0010829
0.00448606
0.00115436
0.00464841
0.0012469
0.00460156
0.00136325
0.00431612
0.00150114
0.00378655
0.00165473
0.00303645
0.00181675
0.00211519
0.00197986
0.00109006
0.00213687
3.71296e-05
0.00228066
-0.00096753
0.00240477
-0.00186117
0.00250422
-0.00260095
0.00257613
-0.00316867
0.00261963
-0.00356746
0.00263522
-0.00381483
0.0026234
-0.00393581
0.00258243
-0.00396135
0.0025073
-0.00393318
0.00239309
-0.00390288
0.00224281
-0.00391005
0.00207388
-0.00394512
0.00191638
-0.00393087
0.00180217
-0.00374663
0.00175098
-0.00329144
0.00176299
-0.00253903
0.00182218
-0.00155113
0.00190553
-0.000438228
0.00199097
0.000685065
0.00206094
0.00173714
0.00210358
0.00267537
0.00211377
0.00349031
0.00209502
0.00418606
0.00206077
0.00474103
0.00203232
0.0051002
0.00203203
0.00515581
0.00207432
0.00483706
0.00215978
0.00410461
0.00227717
0.00306192
0.002409
0.00181633
0.00253841
0.000567915
0.00265169
-0.000593891
0.00274014
-0.00154048
0.00279965
-0.00226837
0.00282763
-0.00275959
0.00282305
-0.00303202
0.00278029
-0.00320454
0.00270092
-0.00322068
0.00258748
-0.00335595
0.00246229
-0.00324375
0.0023435
-0.00331856
0.00225604
-0.00278404
0.00220732
-0.0024558
0.00218923
-0.00137902
0.00219719
-0.000569746
0.00220577
0.00044257
0.0017443
0.000972437
0.00363024
0.00103822
0.00408973
0.00111075
0.00441354
0.00119764
0.00456152
0.00130422
0.00449498
0.00143165
0.00418869
0.00157684
0.00364135
0.00173407
0.00287922
0.00189675
0.00195251
0.00205837
0.000928444
0.00221223
-0.000116729
0.00235173
-0.00110704
0.00247074
-0.00198017
0.00256476
-0.00269497
0.00263147
-0.00323538
0.00267053
-0.00360652
0.00268294
-0.00382724
0.00266978
-0.00392266
0.00263012
-0.00392169
0.00255924
-0.0038623
0.00245088
-0.00379452
0.0023047
-0.00376387
0.00213409
-0.00377451
0.00196677
-0.00376355
0.00183549
-0.00361535
0.00176376
-0.00321971
0.00175628
-0.00253155
0.00179999
-0.00159484
0.00187271
-0.00051095
0.00195177
0.000606001
0.00201874
0.00167018
0.00206119
0.00263291
0.00207415
0.00347736
0.00206169
0.00419851
0.00203768
0.00476505
0.0020229
0.00511498
0.00203788
0.00514082
0.00209456
0.00478039
0.00219138
0.00400779
0.00231629
0.00293701
0.00245208
0.00168054
0.00258274
0.00043726
0.00269544
-0.0007066
0.00278231
-0.00162735
0.00284012
-0.00232618
0.00286708
-0.00278655
0.00286311
-0.00302806
0.00282255
-0.00316398
0.00274597
-0.00314411
0.00263353
-0.0032435
0.00250576
-0.00311599
0.00237965
-0.00319245
0.00228188
-0.00268627
0.00222108
-0.002395
0.00219253
-0.00135047
0.00219218
-0.0005694
0.00219523
0.000439523
0.00174306
0.000985888
0.0035545
0.00106377
0.00401184
0.00114999
0.00432732
0.00125057
0.00446094
0.00136914
0.00437642
0.00150554
0.00405228
0.00165618
0.00349071
0.00181558
0.00271983
0.00197785
0.00179023
0.00213717
0.000769125
0.00228729
-0.000266847
0.00242194
-0.00124169
0.00253536
-0.00209359
0.00262355
-0.00278316
0.00268475
-0.00329658
0.00271917
-0.00364094
0.00272822
-0.0038363
0.00271351
-0.00390794
0.00267484
-0.00388302
0.00260809
-0.00379555
0.00250618
-0.00369261
0.00236579
-0.00362348
0.00219613
-0.00360485
0.00202182
-0.00358924
0.00187557
-0.0034691
0.00178413
-0.00312827
0.00175678
-0.0025042
0.00178398
-0.00162203
0.00184492
-0.000571893
0.00191672
0.000534195
0.00198021
0.00160669
0.00202248
0.00259065
0.00203859
0.00346124
0.00203304
0.00420406
0.00201978
0.00477831
0.00201878
0.00511599
0.00204859
0.00511101
0.00211872
0.00471026
0.00222578
0.00390073
0.00235717
0.00280561
0.00249609
0.00154163
0.00262735
0.000306
0.002739
-0.000818255
0.00282393
-0.00171228
0.00287971
-0.00238196
0.00290534
-0.00281218
0.00290173
-0.00302445
0.00286335
-0.0031256
0.00279003
-0.00307079
0.00267958
-0.00313305
0.00255058
-0.00298699
0.00241851
-0.00306038
0.00231141
-0.00257918
0.00223908
-0.00232266
0.00220021
-0.0013116
0.00219148
-0.000560674
0.00218901
0.000442
0.00174176
0.00101251
0.00347029
0.00110134
0.00392301
0.00119972
0.00422895
0.00131211
0.00434855
0.0014406
0.00424792
0.00158401
0.00390888
0.00173842
0.0033363
0.00189872
0.00255953
0.00205966
0.00162929
0.00221598
0.000612806
0.00236176
-0.000412632
0.00249103
-0.00137095
0.00259839
-0.00220095
0.00268037
-0.00286514
0.0027358
-0.00335201
0.0027654
-0.00367054
0.00277098
-0.00384188
0.00275453
-0.00389149
0.00271654
-0.00384503
0.00265366
-0.00373267
0.0025585
-0.00359745
0.00242527
-0.00349025
0.00225901
-0.00343859
0.00208063
-0.00341086
0.00192188
-0.00331036
0.00181201
-0.0030184
0.00176481
-0.002457
0.00177469
-0.00163191
0.00182282
-0.000620023
0.00188651
0.000470501
0.00194605
0.00154716
0.00198808
0.00254861
0.00200767
0.00344166
0.00200948
0.00420224
0.00200728
0.00478051
0.00201996
0.00510331
0.00206397
0.005067
0.00214653
0.00462769
0.00226271
0.00378456
0.00239959
0.00266872
0.00254085
0.00140038
0.00267211
0.000174739
0.00278226
-0.000928403
0.0028649
-0.00179492
0.00291837
-0.00243544
0.00294238
-0.00283619
0.00293884
-0.00302091
0.00290255
-0.00308931
0.00283283
-0.00300106
0.00272527
-0.0030255
0.00259633
-0.00285804
0.00245972
-0.00292378
0.00234441
-0.00246386
0.00226123
-0.00223948
0.00221231
-0.00126268
0.00219522
-0.000543576
0.00218725
0.000449965
0.00174038
0.00105165
0.00337868
0.00115006
0.0038246
0.00125891
0.0041201
0.00138118
0.00422628
0.00151762
0.00411148
0.00166621
0.00376028
0.00182291
0.0031796
0.00198299
0.00239945
0.00214178
0.00147049
0.00229446
0.000460128
0.00243535
-0.000553521
0.00255872
-0.00149432
0.00265957
-0.0023018
0.00273499
-0.00294056
0.00278441
-0.00340143
0.00280906
-0.00369519
0.0028111
-0.00384392
0.00279279
-0.00387318
0.00275521
-0.00380745
0.00269585
-0.0036733
0.00260748
-0.00350909
0.00248243
-0.0033652
0.00232177
-0.00327793
0.00214224
-0.00323133
0.00197373
-0.00314185
0.00184716
-0.00289183
0.00178053
-0.00239037
0.00177258
-0.00162396
0.00180702
-0.00065446
0.00186179
0.000415725
0.0019169
0.00149206
0.00195862
0.00250689
0.00198188
0.00341839
0.00199135
0.00419277
0.00200032
0.00477154
0.00202637
0.00507726
0.0020838
0.00500957
0.00217772
0.00453377
0.00230191
0.00366037
0.00244335
0.00252728
0.00258621
0.00125751
0.00271689
4.40608e-05
0.00282511
-0.00103662
0.00290514
-0.00187495
0.00295606
-0.00248636
0.00297819
-0.00285832
0.00297444
-0.00301715
0.00294008
-0.00305495
0.00287415
-0.00293513
0.00277026
-0.00292162
0.00264261
-0.00273039
0.00250292
-0.00278409
0.00238059
-0.00234153
0.0022874
-0.00214629
0.00222882
-0.00120411
0.00220345
-0.000518207
0.00219006
0.000463354
0.0017389
0.00110247
0.00328093
0.00120894
0.00371813
0.00132648
0.00400256
0.0014567
0.00409605
0.00159921
0.00396897
0.00175134
0.00360815
0.00190902
0.00302192
0.00206793
0.00224054
0.00222386
0.00131457
0.0023723
0.000311686
0.00250775
-0.000688976
0.00262472
-0.00161129
0.00271865
-0.00239573
0.0027872
-0.0030091
0.0028304
-0.00344463
0.00285001
-0.0037148
0.00284847
-0.00384239
0.00282826
-0.00385296
0.00279085
-0.00377004
0.00273461
-0.00361706
0.00265286
-0.00342734
0.00253666
-0.00324899
0.00238347
-0.00312474
0.00220562
-0.00305347
0.00203029
-0.00296651
0.00188915
-0.00275069
0.00180398
-0.0023052
0.00177801
-0.00159798
0.00179803
-0.000674486
0.00184316
0.000370595
0.00189336
0.00144186
0.0019346
0.00246565
0.00196164
0.00339136
0.0019789
0.00417551
0.00199896
0.00475149
0.00203788
0.00503833
0.00210783
0.00493962
0.002212
0.00442961
0.00234314
0.00352923
0.00248824
0.00238218
0.00263204
0.00111371
0.00276157
-8.5463e-05
0.00286744
-0.00114249
0.00294458
-0.00195208
0.00299272
-0.0025345
0.00301275
-0.00287836
0.0030085
-0.0030129
0.00297585
-0.0030223
0.00291382
-0.0028731
0.00281425
-0.00282204
0.00268904
-0.00260518
0.0025477
-0.00264275
0.00241966
-0.00221349
0.00231741
-0.00204404
0.00224968
-0.00113637
0.00221623
-0.000484759
0.00219751
0.000482072
0.00173737
0.00116394
0.00317841
0.00127686
0.00360522
0.00140131
0.00387811
0.00153764
0.00395972
0.00168447
0.00382214
0.00183866
0.00345397
0.00199618
0.0028644
0.00215308
0.00208364
0.00230551
0.00116214
0.00244915
0.00016804
0.00257866
-0.000818479
0.00268875
-0.00172139
0.00277536
-0.00248233
0.00283676
-0.0030705
0.0028736
-0.00348148
0.00288811
-0.0037293
0.002883
-0.00383729
0.00286087
-0.00383083
0.00282347
-0.00373264
0.00276996
-0.00356355
0.00269448
-0.00335186
0.00258745
-0.00314197
0.00244327
-0.00298056
0.00226974
-0.00287994
0.00209063
-0.0027874
0.0019374
-0.00259747
0.001835
-0.0022028
0.00179117
-0.00155416
0.00179628
-0.000679602
0.00183113
0.000335752
0.00187594
0.00139704
0.00191651
0.00242508
0.00194728
0.00336059
0.00197229
0.00415049
0.00200316
0.00472062
0.00205432
0.00498717
0.0021358
0.00485814
0.0022491
0.00431631
0.00238617
0.00339216
0.00253411
0.00223424
0.00267816
0.000969653
0.00280605
-0.000213349
0.00290916
-0.0012456
0.00298311
-0.00202603
0.00302828
-0.00257967
0.00304603
-0.00289611
0.00304104
-0.00300791
0.00300986
-0.00299111
0.0029517
-0.00281495
0.00285695
-0.00272729
0.00273524
-0.00248348
0.00259368
-0.00250119
0.00246128
-0.00208109
0.00235105
-0.0019338
0.00227477
-0.0010601
0.00223353
-0.000443518
0.00220961
0.000505993
0.0017358
0.00123496
0.00307256
0.0013527
0.00348748
0.00148229
0.00374852
0.00162298
0.00381903
0.00177255
0.00367257
0.00192749
0.00329903
0.00208387
0.00270802
0.00223802
0.00192949
0.00238637
0.00101379
0.00252467
2.97369e-05
0.00264773
-0.000941539
0.0027505
-0.00182415
0.00282942
-0.00256126
0.00288345
-0.00312453
0.00291383
-0.00351187
0.00292322
-0.00373869
0.00291459
-0.00382865
0.00289057
-0.00380681
0.00285308
-0.00369515
0.00280193
-0.00351241
0.00273227
-0.0032822
0.00263445
-0.00304414
0.0025004
-0.00284651
0.00233357
-0.0027131
0.00215372
-0.00260756
0.00199119
-0.00243493
0.00187327
-0.00208488
0.00181212
-0.00149301
0.00180208
-0.00066956
0.0018261
0.000311729
0.00186508
0.00135807
0.00190469
0.00238546
0.00193905
0.00332623
0.00197162
0.00411793
0.00201286
0.00467938
0.00207546
0.00492457
0.00216742
0.00476617
0.00228875
0.00419498
0.00243079
0.00325012
0.00258077
0.00208425
0.00272445
0.000825968
0.00285019
-0.000339087
0.00295015
-0.00134556
0.00302064
-0.00209652
0.00306268
-0.00262171
0.00307801
-0.00291145
0.00307206
-0.00300196
0.00304208
-0.00296113
0.00298771
-0.00276058
0.00289814
-0.00263771
0.00278086
-0.0023662
0.00264043
-0.00236076
0.00250508
-0.00194574
0.00238805
-0.00181677
0.00230395
-0.000975997
0.0022553
-0.000394863
0.00222633
0.000534955
0.00173427
0.00131435
0.00296481
0.00143529
0.00336653
0.00156835
0.00361545
0.00171178
0.00367561
0.00186265
0.00352169
0.0020172
0.00314448
0.00217156
0.00255365
0.00232231
0.00177874
0.00246607
0.000870036
0.00259851
-0.0001027
0.00271465
-0.00105768
0.00280966
-0.00191916
0.00288059
-0.00263219
0.00292707
-0.00317101
0.00295094
-0.00353574
0.00295525
-0.00374299
0.00294315
-0.00381655
0.00291731
-0.00378097
0.00287968
-0.00365753
0.00283059
-0.00346332
0.00276622
-0.00321783
0.00267737
-0.00295529
0.00255421
-0.00272336
0.00239612
-0.00255501
0.0022185
-0.00242994
0.00204962
-0.00226605
0.0019183
-0.00195356
0.00184076
-0.00141547
0.00181557
-0.000644367
0.00182838
0.00029892
0.00186108
0.00132537
0.00189941
0.00234713
0.0019371
0.00328854
0.00197687
0.00407816
0.00202789
0.00462837
0.00210104
0.00485142
0.00220242
0.0046648
0.0023307
0.0040667
0.00247678
0.00310405
0.00262806
0.00193297
0.00277077
0.000683259
0.00289387
-0.000462185
0.0029903
-0.00144199
0.00305709
-0.00216331
0.00309585
-0.00266047
0.00310866
-0.00292426
0.00310157
-0.00299487
0.00307253
-0.00293208
0.00302178
-0.00270983
0.00293762
-0.00255355
0.00282556
-0.00225413
0.00268757
-0.00222278
0.00255067
-0.00180884
0.00242811
-0.00169421
0.00233702
-0.000884905
0.00228142
-0.000339269
0.00224762
0.000568757
0.00173284
0.00140091
0.00285658
0.00152351
0.00324393
0.00165846
0.0034805
0.00180314
0.00353093
0.00195404
0.00337079
0.00210718
0.00299134
0.00225878
0.00240206
0.00240556
0.00163197
0.00254419
0.000731404
0.00267034
-0.000228851
0.00277907
-0.00116642
0.00286593
-0.00200602
0.0029286
-0.00269486
0.00296742
-0.00320983
0.00298479
-0.00355311
0.00298409
-0.00374229
0.00296863
-0.0038011
0.00294107
-0.0037534
0.0029033
-0.00361976
0.00285602
-0.00341603
0.0027964
-0.00315822
0.00271608
-0.00287497
0.00260418
-0.00261146
0.00245648
-0.00240731
0.00228385
-0.00225731
0.0021117
-0.0020939
0.00196943
-0.00181129
0.00187682
-0.00132287
0.00183679
-0.00060433
0.00183813
0.000297571
0.00186416
0.00129935
0.00190084
0.00231045
0.00194149
0.00324789
0.00198798
0.00403167
0.00204805
0.0045683
0.00213079
0.00476868
0.00224049
0.0045551
0.0023747
0.00393249
0.00252395
0.00295479
0.00267582
0.0017811
0.00281697
0.00054211
0.00293695
-0.000582164
0.00302949
-0.00153453
0.00309234
-0.00222617
0.00312771
-0.00269584
0.00313795
-0.00293451
0.00312959
-0.0029865
0.00310124
-0.00290373
0.00305387
-0.00266247
0.00297524
-0.00247492
0.00286905
-0.00214794
0.00273469
-0.00208842
0.00259766
-0.00167181
0.0024709
-0.00156745
0.00237374
-0.000787741
0.00231177
-0.000277302
0.00227337
0.000607156
0.00173159
0.00149347
0.00274924
0.00161626
0.00312113
0.00175164
0.00334512
0.00189623
0.00338635
0.00204603
0.00322098
0.00219689
0.00284049
0.00234506
0.00225389
0.00248734
0.00148968
0.00262038
0.000598359
0.00273978
-0.000348252
0.00284067
-0.0012673
0.00291902
-0.00208437
0.00297322
-0.00274906
0.00300432
-0.00324093
0.00301525
-0.00356405
0.00300967
-0.00373671
0.00299099
-0.00378241
0.0029618
-0.00372421
0.00292394
-0.0035819
0.00287827
-0.00337037
0.0028229
-0.00310284
0.00275053
-0.0028026
0.00264991
-0.00251083
0.00251385
-0.00227125
0.00234871
-0.00209216
0.00217635
-0.00192154
0.00202584
-0.00166077
0.00191984
-0.00121688
0.00186559
-0.000550074
0.00185541
0.000307752
0.0018744
0.00128035
0.00190902
0.00227583
0.00195217
0.00320474
0.00200478
0.00397905
0.0020731
0.00449997
0.00216442
0.00467736
0.00228136
0.00443816
0.0024205
0.00379335
0.00257211
0.00280319
0.00272388
0.00162933
0.00286289
0.000403094
0.00297929
-0.00069856
0.0030676
-0.00162284
0.00312632
-0.00228489
0.00315821
-0.00272772
0.00316585
-0.00294214
0.00315612
-0.00297677
0.00312824
-0.00287586
0.00308399
-0.00261822
0.00301089
-0.00240181
0.00291108
-0.00204814
0.00278143
-0.00195877
0.00264563
-0.00153602
0.00251604
-0.00143786
0.00241382
-0.000685516
0.00234613
-0.000209617
0.00230343
0.000649859
0.00173059
0.00159088
0.00264406
0.00171252
0.0029995
0.00184699
0.00321065
0.00199029
0.00324305
0.002138
0.00307327
0.00228579
0.00269269
0.00242995
0.00210974
0.00256726
0.00135237
0.00269427
0.000471345
0.00280648
-0.000460459
0.0028991
-0.00135992
0.00296864
-0.0021539
0.00301422
-0.00279464
0.00303761
-0.00326433
0.00304223