/*--------------------------------*- C++ -*----------------------------------*\
  =========                 |
  \\      /  F ield         | OpenFOAM: The Open Source CFD Toolbox
   \\    /   O peration     | Website:  https://openfoam.org
    \\  /    A nd           | Version:  7
     \\/     M anipulation  |
\*---------------------------------------------------------------------------*/
FoamFile
{
    version     2.0;
    format      ascii;
    class       volScalarField;
    location    "130";
    object      p;
}
// * * * * * * * * * * * * * * * * * * * * * * * * * * * * * * * * * * * * * //

dimensions      [0 2 -2 0 0 0 0];

internalField   nonuniform List<scalar> 
1987
(
0.104755
0.0976218
0.0904363
0.0822901
0.0832043
0.0745241
0.0759424
0.0638133
0.0667676
0.0686773
0.0556532
0.0590388
0.0614292
0.0475511
0.0513535
0.0542126
0.035115
0.0395201
0.0437251
0.0470401
0.0267214
0.0315724
0.036166
0.0399231
0.0184376
0.0237193
0.0286874
0.0328719
0.0102748
0.0159714
0.0212999
0.0258958
-0.00468195
0.0022431
0.00833816
0.0140129
0.0190037
-0.0129762
-0.00564816
0.000828426
0.00683497
0.0122034
-0.0211001
-0.0133905
-0.00655007
-0.000226191
0.00550249
-0.0290456
-0.0209765
-0.0137904
-0.00716419
-0.00109203
-0.0368058
-0.0283992
-0.0208864
-0.013974
-0.00757378
-0.0443747
-0.0356528
-0.0278322
-0.0206523
-0.0139378
-0.0617176
-0.0517471
-0.0427324
-0.0346215
-0.0271965
-0.0201831
-0.0496339
-0.0412486
-0.0336005
-0.0263202
0.122551
0.129677
0.135134
0.138928
0.140891
0.141766
0.141344
0.140243
0.138313
0.136015
0.133257
0.130375
0.127306
0.124291
0.121279
0.11844
0.115727
0.113262
0.110993
0.109022
0.107292
0.105885
0.104766
0.104001
0.103587
0.117118
0.124023
0.129655
0.133744
0.136228
0.137571
0.137678
0.137043
0.135575
0.133679
0.131295
0.128735
0.125952
0.123179
0.120376
0.117711
0.115146
0.112801
0.110634
0.108741
0.107076
0.105717
0.104634
0.103893
0.103492
0.111761
0.118597
0.124349
0.128692
0.131617
0.133387
0.13399
0.133798
0.132781
0.131281
0.12927
0.127031
0.124539
0.122013
0.119425
0.11694
0.114528
0.112308
0.110247
0.108436
0.10684
0.105532
0.104488
0.103773
0.103384
0.10665
0.113407
0.119233
0.123796
0.127085
0.129239
0.130296
0.130524
0.12994
0.128826
0.127185
0.125267
0.123069
0.120792
0.118425
0.116125
0.113872
0.111783
0.109831
0.108108
0.106584
0.10533
0.104327
0.103639
0.103265
0.101817
0.108467
0.114319
0.119058
0.122643
0.12514
0.126607
0.127229
0.127059
0.126318
0.125041
0.123442
0.121539
0.119515
0.117375
0.115264
0.113177
0.111222
0.109387
0.107755
0.106306
0.10511
0.10415
0.103491
0.103132
0.0972453
0.103771
0.109613
0.114481
0.118305
0.121104
0.122936
0.123926
0.124145
0.123766
0.122845
0.121561
0.119954
0.118184
0.116275
0.114358
0.112441
0.110627
0.108911
0.107375
0.106006
0.10487
0.103957
0.103328
0.102985
0.0929219
0.0993113
0.105117
0.110071
0.114084
0.117142
0.119298
0.120627
0.121211
0.121177
0.120601
0.119628
0.118315
0.116802
0.115126
0.113407
0.111665
0.109996
0.108405
0.106969
0.105684
0.104611
0.103746
0.103149
0.102823
0.0888425
0.0950841
0.100832
0.105833
0.10999
0.113268
0.115706
0.117345
0.118267
0.118563
0.118318
0.117649
0.116627
0.115369
0.113929
0.112411
0.110848
0.109329
0.107867
0.106536
0.105337
0.104331
0.103518
0.102954
0.102646
0.0850047
0.0910876
0.0967573
0.101771
0.106033
0.109493
0.112173
0.114093
0.115324
0.115932
0.116003
0.11563
0.114893
0.11389
0.112686
0.111372
0.109992
0.108625
0.107298
0.106074
0.104966
0.10403
0.10327
0.102742
0.102453
0.0814055
0.08732
0.0928918
0.0978886
0.102221
0.105825
0.108712
0.110881
0.112394
0.113293
0.113665
0.113578
0.113119
0.112368
0.111399
0.11029
0.109096
0.107886
0.106696
0.105584
0.104571
0.103706
0.103003
0.102512
0.102243
0.0780409
0.0837785
0.0892347
0.0941888
0.0985601
0.102274
0.105334
0.107721
0.109488
0.110658
0.111311
0.111499
0.11131
0.110808
0.110072
0.109169
0.108162
0.107112
0.106062
0.105065
0.10415
0.103361
0.102717
0.102264
0.102015
0.074906
0.0804594
0.0857847
0.0906736
0.0950557
0.0988482
0.102048
0.104624
0.106616
0.108035
0.108951
0.109401
0.109471
0.109212
0.108706
0.10801
0.107191
0.106302
0.105396
0.104518
0.103703
0.102992
0.102409
0.101996
0.10177
0.0719948
0.0773583
0.0825395
0.087344
0.0917118
0.0955541
0.0988638
0.101599
0.10379
0.105434
0.106593
0.107292
0.10761
0.107588
0.107307
0.106816
0.106184
0.10546
0.104699
0.103942
0.10323
0.1026
0.102081
0.10171
0.101507
0.0693009
0.07447
0.0794961
0.0842001
0.0885311
0.0923975
0.0957891
0.0986556
0.101019
0.102866
0.104247
0.105179
0.105732
0.105939
0.105878
0.105589
0.105145
0.104586
0.103971
0.103338
0.102732
0.102186
0.101732
0.101404
0.101225
0.0668167
0.0717884
0.0766509
0.0812409
0.0855155
0.089383
0.0928306
0.0958023
0.0983121
0.100338
0.101922
0.10307
0.103845
0.104272
0.104424
0.104335
0.104075
0.103681
0.103215
0.102707
0.102209
0.101748
0.101361
0.101078
0.100923
0.0645345
0.069307
0.0739996
0.0784644
0.082666
0.0865141
0.0899942
0.0930466
0.0956784
0.097861
0.0996265
0.100974
0.101957
0.102594
0.10295
0.103056
0.102979
0.102749
0.10243
0.10205
0.101661
0.101287
0.100969
0.100732
0.100603
0.0624456
0.0670187
0.0715369
0.0758678
0.0799822
0.083793
0.0872844
0.0903948
0.0931255
0.0954425
0.0973693
0.0988984
0.100074
0.100909
0.101462
0.101757
0.101858
0.101792
0.10162
0.101369
0.101089
0.100805
0.100557
0.100367
0.100264
0.0605412
0.0649159
0.0692573
0.0734475
0.0774632
0.0812213
0.084705
0.0878527
0.0906605
0.0930906
0.0951586
0.0968516
0.098205
0.099226
0.0999655
0.100443
0.100717
0.100812
0.100787
0.100664
0.100495
0.100301
0.100124
0.0999828
0.0999067
0.0588121
0.0629906
0.0671544
0.0711993
0.0751069
0.0787991
0.0822588
0.085425
0.0882896
0.0908126
0.0930024
0.0948415
0.0963569
0.097551
0.0984666
0.0991192
0.0995614
0.0998142
0.0999327
0.0999378
0.0998799
0.0997772
0.0996719
0.09958
0.099531
0.0572489
0.0612346
0.0652214
0.0691183
0.0729108
0.0765262
0.0799474
0.0831152
0.0860183
0.0886152
0.0909081
0.0928757
0.0945376
0.0958912
0.0969719
0.0977911
0.0983948
0.0988014
0.0990611
0.0991933
0.0992455
0.0992346
0.0992014
0.0991597
0.099138
0.0558421
0.0596393
0.0634514
0.067199
0.0708712
0.0744011
0.0777717
0.0809264
0.0838513
0.0865044
0.0888826
0.0909617
0.0927543
0.0942538
0.0954881
0.0964646
0.0972227
0.0977781
0.0981756
0.098433
0.0985944
0.0986751
0.098714
0.098723
0.0987288
0.0545822
0.0581962
0.0618369
0.0654355
0.0689843
0.0724219
0.0757318
0.0788606
0.0817923
0.0844853
0.0869322
0.0891066
0.0910145
0.0926461
0.0940219
0.095146
0.0960507
0.0967491
0.0972803
0.0976603
0.0979291
0.098101
0.0982117
0.0982715
0.0983048
0.0534595
0.0568964
0.0603702
0.0638216
0.0672453
0.0705857
0.0738269
0.0769189
0.0798445
0.0825628
0.0850629
0.0873168
0.0893253
0.0910751
0.0925805
0.0938417
0.0948847
0.0957195
0.0963795
0.0968789
0.0972529
0.0975147
0.0976966
0.0978072
0.0978678
0.0524646
0.0557313
0.0590436
0.0623508
0.0656493
0.0688893
0.0720556
0.0751019
0.0780101
0.0807406
0.0832798
0.0855988
0.0876935
0.0895481
0.0911707
0.0925584
0.0937308
0.0946948
0.0954783
0.0960929
0.0965695
0.0969194
0.0971714
0.0973324
0.0974199
0.0515881
0.0546922
0.0578493
0.0610162
0.064191
0.0673291
0.0704161
0.0734094
0.0762907
0.0790221
0.0815877
0.0839582
0.0861256
0.0880718
0.0897996
0.0913029
0.0925955
0.093681
0.0945818
0.0953072
0.0958828
0.0963186
0.0966392
0.0968499
0.0969637
0.0508209
0.0537704
0.0567793
0.059811
0.0628647
0.0659008
0.0689058
0.0718409
0.0746875
0.07741
0.0799908
0.0824006
0.084628
0.0866533
0.0884745
0.0900825
0.0914856
0.0926845
0.093696
0.0945267
0.0951975
0.0957164
0.0961036
0.0963629
0.0965024
0.050154
0.0529576
0.0558261
0.0587284
0.0616648
0.0646001
0.067522
0.070395
0.0732011
0.0759064
0.0784927
0.0809308
0.0832067
0.0852992
0.0872022
0.0889041
0.0904081
0.0917119
0.092827
0.0937572
0.0945187
0.0951172
0.0955688
0.0958751
0.0960395
0.0495786
0.0522455
0.0549818
0.0577616
0.0605854
0.0634226
0.0662617
0.0690705
0.0718316
0.0745134
0.0770969
0.0795536
0.0818674
0.0840161
0.0859901
0.0877753
0.0893705
0.0907703
0.0919814
0.0930048
0.0938519
0.0945261
0.0950394
0.0953908
0.0955791
0.0490865
0.0516263
0.0542393
0.0569039
0.059621
0.0623638
0.0651216
0.0678656
0.070579
0.0732323
0.0758063
0.0782733
0.0806158
0.0828106
0.0848451
0.0867034
0.0883801
0.0898671
0.0911664
0.0922762
0.0932034
0.0939489
0.0945205
0.0949148
0.0951258
0.0486695
0.0510922
0.0535913
0.0561489
0.0587659
0.0614191
0.0640986
0.0667786
0.069443
0.0720645
0.0746239
0.0770944
0.0794573
0.0816891
0.0837747
0.0856962
0.087445
0.0890101
0.0903895
0.0915785
0.0925797
0.0933916
0.094018
0.0944526
0.094685
0.0483202
0.0506362
0.0530313
0.0554906
0.0580151
0.0605846
0.0631899
0.065808
0.0684236
0.0710114
0.0735524
0.076021
0.0783975
0.0806582
0.082786
0.0847616
0.0865732
0.0882075
0.0896588
0.0909194
0.0919883
0.0928612
0.0935381
0.0940101
0.0942624
0.0480313
0.0502515
0.052553
0.0549235
0.0573637
0.0598563
0.0623927
0.0649524
0.0675208
0.0700745
0.072595
0.0750575
0.077442
0.0797246
0.0818868
0.0839079
0.0857734
0.0874681
0.0889827
0.0903072
0.0914369
0.092365
0.0930879
0.093594
0.0938645
0.0477963
0.0499322
0.052151
0.0544427
0.0568078
0.0592313
0.0617052
0.0642111
0.0667352
0.0692559
0.071755
0.0742088
0.0765969
0.0788956
0.081085
0.0831436
0.0850546
0.0868009
0.0883705
0.0897507
0.090934
0.0919109
0.0926749
0.0932115
0.0934983
0.0476094
0.0496728
0.0518204
0.0540441
0.056344
0.0587072
0.061126
0.0635841
0.0660682
0.0685582
0.0710365
0.0734801
0.0758688
0.0781787
0.0803892
0.0824779
0.0844264
0.0862158
0.0878316
0.0892594
0.0904885
0.0915077
0.0923073
0.0928703
0.0931713
0.0474655
0.0494689
0.0515577
0.0537248
0.0559703
0.0582828
0.0606552
0.0630726
0.0655221
0.0679852
0.0704444
0.0728778
0.075265
0.0775825
0.0798087
0.0819209
0.083899
0.0857231
0.0873766
0.0888432
0.0901103
0.0911644
0.0919937
0.0925789
0.0928919
0.0473607
0.0493174
0.0513602
0.0534831
0.0556859
0.0579585
0.0602942
0.062679
0.0651009
0.0675419
0.0699852
0.0724095
0.0747944
0.0771165
0.0793539
0.0814833
0.0834837
0.085334
0.0870163
0.088513
0.0898094
0.0908909
0.0917434
0.0923461
0.0926685
0.0472923
0.0492166
0.0512271
0.053319
0.0554919
0.0577365
0.0600463
0.0624082
0.0648103
0.0672356
0.0696672
0.0720845
0.0744671
0.0767918
0.0790363
0.0811772
0.0831925
0.0850608
0.0867628
0.0882802
0.089597
0.0906975
0.0915663
0.0921813
0.0925104
0.0472593
0.0491655
0.0511588
0.0532344
0.0553915
0.0576215
0.0599176
0.0622674
0.064659
0.0670758
0.0695011
0.0719146
0.0742957
0.0766215
0.0788696
0.0810162
0.0830393
0.0849167
0.0866291
0.0881572
0.0894847
0.0905951
0.0914725
0.0920942
0.0924268
-0.0279245
-0.0252951
-0.0229014
-0.0203117
-0.017864
-0.0154962
-0.0131977
-0.0109672
-0.0222615
-0.0199974
-0.0178194
-0.0155683
-0.0133888
-0.011275
-0.00921842
-0.00722029
-0.00528803
-0.00341676
-0.00158517
0.000198126
0.00193024
0.00361257
0.00524656
0.00683168
0.00836653
0.00985401
0.0112987
0.0126986
0.0140525
0.0153604
0.0166218
0.0178361
0.0190025
0.0201198
0.021186
0.0221988
0.0231588
0.0240626
0.0249073
0.0256899
0.0264067
0.0270538
0.0276264
0.0281192
0.0285267
0.0288375
0.0290561
0.0291378
-0.0165157
-0.0145699
-0.0126642
-0.0107265
-0.00883168
-0.0069826
-0.00517668
-0.0034161
-0.00170351
-3.55065e-05
0.00159564
0.0031891
0.00474282
0.00625697
0.00773202
0.00916727
0.0105624
0.0119186
0.0132383
0.0145206
0.0157644
0.0169692
0.018134
0.0192582
0.0203406
0.0213797
0.0223734
0.0233198
0.0242181
0.0250653
0.0258584
0.0265942
0.0272691
0.0278788
0.0284188
0.0288834
0.0292675
0.0295597
0.0297645
0.0298372
-0.0106647
-0.00903523
-0.00743341
-0.00580239
-0.00419821
-0.00262184
-0.00107351
0.000444314
0.00193022
0.00338562
0.00481327
0.00621351
0.00758517
0.00892777
0.010241
0.0115241
0.0127767
0.0139992
0.0151923
0.0163557
0.017488
0.0185884
0.0196557
0.0206889
0.0216865
0.0226468
0.0235677
0.024447
0.0252833
0.0260737
0.026815
0.0275039
0.0281366
0.0287089
0.0292161
0.0296527
0.0300132
0.0302869
0.0304779
0.0305419
-0.00470522
-0.00340544
-0.00212424
-0.000802834
0.000506263
0.00180378
0.00308871
0.0043584
0.00561139
0.00684756
0.0080674
0.00927084
0.0104569
0.0116247
0.0127733
0.0139017
0.0150092
0.0160955
0.0171604
0.0182033
0.0192228
0.0202177
0.0211865
0.0221278
0.0230399
0.0239209
0.0247684
0.0255801
0.026354
0.0270872
0.0277765
0.0284183
0.0290088
0.0295436
0.030018
0.0304264
0.0307635
0.0310188
0.0311961
0.0312517
0.00135709
0.0023135
0.00326531
0.00427063
0.0052794
0.00629244
0.00730844
0.00832458
0.00933891
0.0103502
0.0113578
0.0123607
0.0133576
0.0143474
0.0153285
0.0162996
0.0172595
0.0182074
0.0191423
0.0200632
0.0209685
0.0218566
0.0227259
0.0235745
0.0244004
0.0252013
0.0259748
0.0267184
0.0274296
0.0281055
0.0287425
0.0293371
0.0298852
0.0303824
0.0308239
0.0312043
0.0315179
0.031755
0.0319186
0.0319661
0.00751687
0.00811852
0.00873377
0.00941636
0.0101191
0.0108423
0.011584
0.0123414
0.0131119
0.0138933
0.0146842
0.0154827
0.0162871
0.0170956
0.0179063
0.0187175
0.0195274
0.0203346
0.0211376
0.0219349
0.0227246
0.0235049
0.0242735
0.0250284
0.0257673
0.0264876
0.0271866
0.0278616
0.0285098
0.0291279
0.0297125
0.0302596
0.0307653
0.0312249
0.0316336
0.0319858
0.0322761
0.032495
0.032645
0.0326849
0.0137687
0.0140064
0.014279
0.0146326
0.0150237
0.0154516
0.0159141
0.0164077
0.0169294
0.0174764
0.0180463
0.0186365
0.0192449
0.0198689
0.0205064
0.0211549
0.0218124
0.0224767
0.023146
0.0238181
0.0244908
0.0251619
0.0258288
0.0264892
0.0271402
0.0277792
0.0284032
0.0290092
0.0295939
0.0301541
0.030686
0.0311856
0.0316486
0.0320706
0.0324464
0.0327706
0.0330376
0.0332384
0.033375
0.0334076
0.0201072
0.0199733
0.0198982
0.019917
0.0199912
0.0201189
0.0202973
0.0205225
0.0207908
0.0210989
0.0214435
0.0218217
0.0222304
0.0226669
0.0231281
0.0236114
0.0241141
0.0246334
0.025167
0.0257123
0.0262666
0.0268272
0.0273914
0.0279562
0.0285187
0.0290758
0.0296242
0.0301605
0.0306815
0.0311835
0.0316624
0.0321143
0.0325347
0.032919
0.0332619
0.0335582
0.033802
0.0339849
0.0341082
0.034134
0.0265266
0.0260151
0.0255878
0.025267
0.0250196
0.0248425
0.0247323
0.0246845
0.0246949
0.0247597
0.0248751
0.0250374
0.0252431
0.0254889
0.0257711
0.0260866
0.026432
0.0268043
0.0272003
0.0276171
0.0280515
0.0285005
0.0289608
0.0294292
0.0299023
0.0303767
0.0308489
0.0313153
0.0317721
0.0322155
0.0326414
0.0330455
0.0334231
0.0337696
0.0340797
0.0343481
0.0345688
0.034734
0.0348442
0.0348636
0.033021
0.0321272
0.0313445
0.03068
0.0301068
0.0296206
0.0292172
0.0288919
0.0286401
0.0284576
0.02834
0.028283
0.0282826
0.0283346
0.0284351
0.0285802
0.028766
0.028989
0.0292456
0.0295322
0.0298453
0.0301812
0.0305365
0.0309075
0.0312904
0.0316815
0.032077
0.0324729
0.0328652
0.0332498
0.0336224
0.0339785
0.0343134
0.034622
0.0348994
0.0351399
0.0353377
0.0354853
0.0355827
0.0355961
0.0395839
0.0383047
0.0371643
0.0361526
0.0352498
0.0344501
0.0337494
0.0331428
0.0326254
0.0321921
0.0318382
0.0315588
0.031349
0.0312043
0.0311202
0.0310922
0.0311161
0.0311876
0.0313027
0.0314573
0.0316474
0.031869
0.0321181
0.0323907
0.0326826
0.0329897
0.0333078
0.0336327
0.0339602
0.0342858
0.0346049
0.0349129
0.0352049
0.0354758
0.0357204
0.0359331
0.0361082
0.0362384
0.0363232
0.0363311
0.0462085
0.0445421
0.043042
0.0416803
0.0404446
0.0393285
0.038328
0.0374374
0.0366514
0.0359644
0.0353708
0.0348653
0.0344427
0.034098
0.0338261
0.0336222
0.0334815
0.0333992
0.0333707
0.0333916
0.0334572
0.0335632
0.033705
0.0338781
0.0340781
0.0343006
0.0345408
0.0347944
0.0350566
0.0353229
0.0355883
0.0358481
0.0360972
0.0363304
0.0365423
0.0367274
0.0368799
0.036993
0.0370653
0.0370683
0.0528867
0.0508322
0.0489715
0.0472589
0.0456897
0.0442566
0.0429545
0.0417773
0.0407191
0.039774
0.0389363
0.0382006
0.0375614
0.0370132
0.0365506
0.036168
0.0358603
0.0356221
0.0354483
0.0353338
0.0352735
0.0352626
0.035296
0.0353689
0.0354764
0.0356135
0.0357754
0.0359571
0.0361538
0.0363606
0.0365722
0.0367837
0.0369899
0.0371853
0.0373647
0.0375223
0.0376524
0.0377485
0.0378088
0.0378073
0.0596097
0.0571689
0.0549494
0.0528885
0.0509866
0.0492345
0.0476269
0.0461578
0.0448219
0.0436137
0.0425279
0.0415585
0.0406997
0.0399455
0.0392898
0.0387266
0.0382501
0.0378544
0.0375338
0.0372826
0.0370953
0.0369664
0.0368906
0.0368624
0.0368766
0.0369279
0.0370109
0.0371205
0.0372514
0.0373983
0.037556
0.0377192
0.0378824
0.0380402
0.038187
0.0383173
0.0384252
0.0385047
0.0385532
0.0385477
0.0663703
0.0635495
0.0609748
0.0585661
0.0563272
0.0542495
0.0523298
0.0505639
0.0489472
0.0474742
0.0461389
0.0449349
0.0438554
0.042894
0.0420439
0.0412988
0.040652
0.0400973
0.0396284
0.0392391
0.0389234
0.0386754
0.0384892
0.038359
0.0382791
0.0382437
0.0382472
0.0382842
0.0383489
0.0384358
0.0385394
0.0386541
0.0387743
0.0388945
0.0390089
0.039112
0.039198
0.0392611
0.0392981
0.0392892
0.0731604
0.0699667
0.0670333
0.0642703
0.0616882
0.0592826
0.0570523
0.0549933
0.0530996
0.0513646
0.0497811
0.0483423
0.047041
0.0458704
0.0448237
0.0438938
0.043074
0.0423575
0.0417376
0.0412077
0.0407614
0.0403922
0.0400938
0.03986
0.0396846
0.0395615
0.0394848
0.0394483
0.0394463
0.0394728
0.0395221
0.0395882
0.0396654
0.039748
0.0398301
0.0399062
0.0399704
0.0400173
0.0400432
0.0400314
0.0799598
0.0763955
0.0730978
0.0699858
0.067074
0.0643568
0.0618299
0.0594863
0.0573189
0.0553208
0.0534855
0.0518067
0.0502777
0.0488919
0.0476423
0.0465219
0.0455237
0.0446406
0.0438654
0.0431911
0.0426108
0.0421177
0.0417048
0.0413655
0.0410932
0.0408812
0.0407232
0.0406127
0.0405434
0.0405091
0.0405037
0.0405211
0.0405552
0.0406002
0.0406501
0.0406994
0.0407421
0.0407731
0.0407883
0.040774
0.0867434
0.0828283
0.0791926
0.0757671
0.0725538
0.0695384
0.0667144
0.0640773
0.0616233
0.0593487
0.057249
0.055319
0.0535527
0.0519435
0.0504842
0.0491677
0.0479864
0.0469328
0.0459994
0.0451784
0.0444625
0.043844
0.0433157
0.0428702
0.0425004
0.0421992
0.0419597
0.0417749
0.0416383
0.0415432
0.0414831
0.0414518
0.041443
0.0414505
0.0414684
0.041491
0.0415125
0.0415279
0.0415328
0.0415164
0.0935298
0.0893279
0.0853896
0.0816545
0.0781169
0.0747689
0.0716144
0.0686573
0.0658989
0.063337
0.0609674
0.0587842
0.0567809
0.0549501
0.053284
0.0517748
0.0504143
0.0491943
0.0481063
0.0471423
0.046294
0.0455532
0.044912
0.0443625
0.0438971
0.0435082
0.0431884
0.0429305
0.0427273
0.0425721
0.0424581
0.0423786
0.0423272
0.0422977
0.042284
0.0422803
0.042281
0.0422811
0.0422762
0.0422583
0.100337
0.0958695
0.0915582
0.087423
0.0834936
0.0797782
0.076285
0.0730169
0.0699716
0.0671434
0.0645252
0.0621094
0.0598881
0.0578531
0.0559959
0.0543078
0.0527801
0.0514039
0.0501703
0.0490706
0.048096
0.0472379
0.0464879
0.0458378
0.0452795
0.044805
0.0444066
0.0440769
0.0438085
0.0435941
0.0434268
0.0432998
0.0432066
0.0431406
0.0430958
0.0430664
0.0430468
0.0430322
0.0430181
0.0429992
0.106975
0.102163
0.0974083
0.0928746
0.0886084
0.0845995
0.0808371
0.0773138
0.0740225
0.0709564
0.0681087
0.0654724
0.06304
0.0608039
0.0587557
0.056887
0.0551888
0.0536522
0.0522681
0.0510277
0.0499218
0.0489417
0.0480786
0.0473239
0.0466692
0.0461063
0.045627
0.0452237
0.0448884
0.0446139
0.0443927
0.0442179
0.0440826
0.0439802
0.0439046
0.0438497
0.0438103
0.0437814
0.0437586
0.0437392
0.113251
0.108347
0.103473
0.0987977
0.0943603
0.0901443
0.0861394
0.0823476
0.0787739
0.0754211
0.072289
0.0693751
0.0666749
0.0641825
0.0618908
0.059792
0.0578778
0.0561394
0.0545676
0.0531532
0.0518868
0.0507592
0.049761
0.0488831
0.0481164
0.047452
0.0468812
0.0463955
0.0459866
0.0456464
0.0453671
0.0451413
0.0449616
0.0448213
0.0447137
0.0446328
0.0445732
0.0445299
0.0444988
0.0444791
0.115408
0.110801
0.106075
0.101416
0.0968888
0.0925242
0.0883497
0.0843879
0.0806522
0.0771485
0.0738776
0.0708372
0.0680228
0.0654282
0.0630461
0.060868
0.0588851
0.0570877
0.055466
0.05401
0.0527095
0.0515542
0.050534
0.0496389
0.0488591
0.0481849
0.0476069
0.047116
0.0467032
0.0463601
0.0460786
0.0458507
0.0456693
0.0455274
0.0454188
0.0453377
0.0452794
0.0452398
0.0452192
0.11709
0.112059
0.107039
0.102161
0.0974751
0.0930041
0.0887645
0.0847657
0.0810114
0.0775015
0.074233
0.0712011
0.0683996
0.0658211
0.0634572
0.0612988
0.0593364
0.0575599
0.0559591
0.0545235
0.0532428
0.0521065
0.0511042
0.0502258
0.0494612
0.0488007
0.0482349
0.0477545
0.0473508
0.0470153
0.0467401
0.0465177
0.0463411
0.0462039
0.0461007
0.0460268
0.0459786
0.0459563
)
;

boundaryField
{
    inlet
    {
        type            zeroGradient;
    }
    outlet
    {
        type            fixedValue;
        value           nonuniform 0();
    }
    cylinder
    {
        type            zeroGradient;
    }
    top
    {
        type            symmetryPlane;
    }
    bottom
    {
        type            symmetryPlane;
    }
    defaultFaces
    {
        type            empty;
    }
    procBoundary0to1
    {
        type            processor;
        value           nonuniform List<scalar> 
46
(
-0.0563557
-0.0477161
-0.0398374
-0.0323806
-0.0323806
-0.0336089
-0.0306225
-0.0277503
-0.0249302
-0.0222418
-0.0196379
-0.0171123
-0.0146585
-0.00882126
-0.00882126
-0.00675852
-0.00472714
-0.00275808
-0.000851703
0.000995139
0.00278495
0.00451801
0.00618957
0.00780528
0.00937389
0.0108898
0.0123527
0.0137626
0.0151194
0.016423
0.0176727
0.0188678
0.0200058
0.0210844
0.0221059
0.023066
0.0239621
0.0247912
0.0255499
0.0262342
0.0268395
0.0273603
0.0277914
0.0281207
0.0283532
0.0284441
)
;
    }
    procBoundary0to4
    {
        type            processor;
        value           nonuniform List<scalar> 
56
(
0.118303
0.111744
0.111744
0.105473
0.0977765
0.0900459
0.0900459
0.0802494
0.0720172
0.0720172
0.0608307
0.0521829
0.0436065
0.0436065
0.0300063
0.0211292
0.0123811
0.0037738
0.0037738
-0.0125354
-0.0212434
-0.0297569
-0.0380677
-0.0461688
-0.054054
-0.054054
-0.0727446
0.127938
0.135727
0.140799
0.144204
0.145551
0.145911
0.144935
0.143351
0.140956
0.138253
0.135127
0.13193
0.128584
0.125335
0.122122
0.119117
0.116264
0.113687
0.111323
0.10928
0.107489
0.106036
0.104884
0.104097
0.103672
0.119658
0.119658
0.121827
0.121827
)
;
    }
    procBoundary0to5
    {
        type            processor;
        value           nonuniform List<scalar> 3(-0.0691571 -0.0589203 -0.0589203);
    }
}


// ************************************************************************* //
