/*--------------------------------*- C++ -*----------------------------------*\
  =========                 |
  \\      /  F ield         | OpenFOAM: The Open Source CFD Toolbox
   \\    /   O peration     | Website:  https://openfoam.org
    \\  /    A nd           | Version:  7
     \\/     M anipulation  |
\*---------------------------------------------------------------------------*/
FoamFile
{
    version     2.0;
    format      ascii;
    class       volScalarField;
    location    "20";
    object      p;
}
// * * * * * * * * * * * * * * * * * * * * * * * * * * * * * * * * * * * * * //

dimensions      [0 2 -2 0 0 0 0];

internalField   nonuniform List<scalar> 
31800
(
-0.272329
-0.273909
-0.274805
-0.275533
-0.276165
-0.276718
-0.27723
-0.277723
-0.278208
-0.278692
-0.279173
-0.279647
-0.280106
-0.28054
-0.280938
-0.281288
-0.281577
-0.281793
-0.281926
-0.281966
-0.281909
-0.281762
-0.281538
-0.281252
-0.280972
-0.272442
-0.274009
-0.274899
-0.275622
-0.276249
-0.276799
-0.277308
-0.277798
-0.278281
-0.278762
-0.279242
-0.279714
-0.280172
-0.280605
-0.281002
-0.281351
-0.281639
-0.281854
-0.281985
-0.282021
-0.28196
-0.281804
-0.28157
-0.281267
-0.280963
-0.272667
-0.274209
-0.275086
-0.275798
-0.276417
-0.276959
-0.277462
-0.277946
-0.278424
-0.278902
-0.279377
-0.279847
-0.280301
-0.280732
-0.281127
-0.281475
-0.281761
-0.281974
-0.282101
-0.282131
-0.282059
-0.281887
-0.281633
-0.281295
-0.280943
-0.273001
-0.274507
-0.275363
-0.276061
-0.276666
-0.277197
-0.27769
-0.278165
-0.278636
-0.279107
-0.279577
-0.280041
-0.280492
-0.280919
-0.281311
-0.281656
-0.28194
-0.282149
-0.28227
-0.282291
-0.282204
-0.282009
-0.281725
-0.281336
-0.280907
-0.27344
-0.274898
-0.275729
-0.276406
-0.276993
-0.277509
-0.277989
-0.278453
-0.278913
-0.279375
-0.279837
-0.280294
-0.280739
-0.281161
-0.281549
-0.28189
-0.28217
-0.282374
-0.282488
-0.282498
-0.28239
-0.282165
-0.281841
-0.281389
-0.280847
-0.273978
-0.275378
-0.276178
-0.276829
-0.277395
-0.277892
-0.278355
-0.278804
-0.279251
-0.2797
-0.280152
-0.2806
-0.281037
-0.281452
-0.281834
-0.28217
-0.282445
-0.282643
-0.282748
-0.282744
-0.282613
-0.282351
-0.281979
-0.281453
-0.280752
-0.274609
-0.275942
-0.276705
-0.277327
-0.277866
-0.27834
-0.278782
-0.279213
-0.279643
-0.280078
-0.280515
-0.280952
-0.281378
-0.281785
-0.282159
-0.282488
-0.282756
-0.282947
-0.283042
-0.283022
-0.282866
-0.28256
-0.282131
-0.28153
-0.280608
-0.275326
-0.276584
-0.277306
-0.277893
-0.278402
-0.278849
-0.279266
-0.279674
-0.280084
-0.280499
-0.280921
-0.281342
-0.281755
-0.28215
-0.282514
-0.282834
-0.283094
-0.283276
-0.28336
-0.283322
-0.283139
-0.282787
-0.28229
-0.281621
-0.280396
-0.276122
-0.277298
-0.277974
-0.278522
-0.278996
-0.279412
-0.2798
-0.280181
-0.280566
-0.280959
-0.281359
-0.281761
-0.282158
-0.282538
-0.28289
-0.283198
-0.283448
-0.283619
-0.28369
-0.283635
-0.283424
-0.283024
-0.282447
-0.281737
-0.280078
-0.276988
-0.278077
-0.278703
-0.279209
-0.279643
-0.280023
-0.280378
-0.280727
-0.281082
-0.281448
-0.281823
-0.282202
-0.282578
-0.28294
-0.283275
-0.28357
-0.283806
-0.283965
-0.284022
-0.283948
-0.28371
-0.283261
-0.282593
-0.281915
-0.279584
-0.277916
-0.278915
-0.279487
-0.279946
-0.280337
-0.280676
-0.280992
-0.281304
-0.281625
-0.281958
-0.282303
-0.282655
-0.283005
-0.283345
-0.28366
-0.283937
-0.284157
-0.284301
-0.284341
-0.284248
-0.283982
-0.283491
-0.282717
-0.282196
-0.278955
-0.278897
-0.279804
-0.28032
-0.280729
-0.281072
-0.281365
-0.281637
-0.281907
-0.282186
-0.282481
-0.28279
-0.283109
-0.28343
-0.283742
-0.284033
-0.284287
-0.284488
-0.284613
-0.284635
-0.284521
-0.284226
-0.283705
-0.282802
-0.282182
-0.278624
-0.279925
-0.280739
-0.281197
-0.281552
-0.281842
-0.282084
-0.282306
-0.282527
-0.28276
-0.28301
-0.283277
-0.283557
-0.283842
-0.284121
-0.284382
-0.28461
-0.284787
-0.284889
-0.284889
-0.284752
-0.284425
-0.283876
-0.282862
-0.28223
-0.278095
-0.280992
-0.281714
-0.282111
-0.282409
-0.282642
-0.282827
-0.282993
-0.283159
-0.283338
-0.283537
-0.283755
-0.28399
-0.284232
-0.284473
-0.284699
-0.284895
-0.285042
-0.285117
-0.285091
-0.284927
-0.284563
-0.284
-0.282834
-0.282338
-0.277385
-0.282092
-0.282723
-0.28306
-0.283297
-0.283468
-0.283591
-0.283693
-0.283797
-0.283915
-0.284054
-0.284217
-0.284399
-0.284593
-0.284789
-0.284974
-0.285132
-0.285244
-0.285286
-0.285228
-0.285034
-0.284623
-0.284063
-0.282686
-0.282458
-0.276527
-0.283221
-0.283765
-0.284038
-0.284212
-0.284316
-0.28437
-0.284402
-0.284436
-0.284485
-0.284558
-0.284657
-0.28478
-0.284918
-0.285062
-0.285199
-0.285313
-0.285384
-0.285387
-0.28529
-0.285061
-0.284589
-0.284052
-0.282396
-0.282561
-0.275531
-0.284374
-0.284835
-0.285045
-0.285152
-0.285183
-0.285162
-0.285117
-0.285072
-0.285045
-0.285043
-0.285071
-0.285126
-0.285201
-0.285287
-0.285369
-0.285433
-0.285456
-0.285414
-0.285271
-0.285002
-0.284447
-0.283955
-0.281945
-0.28261
-0.274417
-0.28555
-0.285932
-0.286078
-0.286114
-0.286068
-0.285965
-0.285835
-0.285704
-0.285591
-0.285506
-0.285455
-0.285434
-0.285439
-0.285459
-0.285481
-0.285487
-0.285456
-0.285362
-0.285164
-0.28485
-0.284191
-0.283761
-0.281327
-0.282554
-0.273224
-0.286749
-0.287057
-0.287138
-0.287099
-0.286971
-0.286778
-0.286555
-0.28633
-0.286122
-0.285946
-0.285807
-0.285704
-0.285631
-0.285579
-0.285533
-0.285476
-0.285384
-0.285231
-0.284968
-0.284603
-0.283816
-0.283455
-0.280553
-0.282324
-0.272008
-0.287972
-0.288211
-0.288225
-0.288109
-0.287891
-0.287602
-0.287278
-0.28695
-0.28664
-0.286364
-0.286128
-0.285935
-0.285778
-0.285646
-0.285527
-0.2854
-0.285241
-0.285021
-0.284683
-0.284258
-0.283323
-0.283016
-0.279649
-0.281844
-0.270821
-0.289224
-0.289398
-0.289344
-0.289145
-0.288832
-0.288439
-0.288006
-0.287566
-0.287145
-0.28676
-0.286422
-0.28613
-0.285882
-0.285665
-0.285466
-0.285263
-0.28503
-0.284734
-0.284311
-0.283812
-0.282716
-0.282416
-0.278643
-0.281037
-0.269694
-0.29051
-0.290622
-0.290498
-0.290211
-0.289797
-0.289293
-0.288742
-0.288181
-0.287641
-0.28714
-0.286691
-0.286295
-0.285949
-0.285642
-0.285357
-0.285071
-0.284755
-0.284375
-0.283852
-0.283258
-0.281997
-0.281622
-0.277559
-0.279848
-0.26861
-0.291837
-0.29189
-0.291693
-0.291313
-0.29079
-0.290167
-0.28949
-0.288801
-0.288134
-0.28751
-0.286943
-0.286437
-0.285987
-0.285583
-0.285206
-0.284831
-0.284423
-0.283945
-0.283308
-0.282588
-0.281162
-0.280606
-0.276396
-0.27826
-0.267507
-0.293216
-0.293211
-0.292936
-0.292458
-0.291819
-0.291068
-0.290258
-0.289433
-0.288631
-0.287877
-0.287186
-0.286564
-0.286005
-0.285499
-0.285023
-0.28455
-0.284039
-0.283446
-0.282676
-0.281792
-0.2802
-0.279349
-0.275123
-0.276294
-0.266292
-0.294658
-0.294593
-0.294236
-0.293652
-0.29289
-0.292004
-0.291052
-0.290084
-0.289141
-0.28825
-0.28743
-0.286686
-0.286014
-0.285399
-0.284818
-0.284235
-0.283605
-0.282876
-0.281948
-0.280856
-0.279088
-0.277842
-0.27369
-0.274
-0.264878
-0.296177
-0.296048
-0.295602
-0.294906
-0.294012
-0.292983
-0.291882
-0.290764
-0.289674
-0.288642
-0.287688
-0.286817
-0.286025
-0.285295
-0.284597
-0.283892
-0.283124
-0.28223
-0.281112
-0.279767
-0.277797
-0.276083
-0.27204
-0.27143
-0.263198
-0.297787
-0.297587
-0.297047
-0.296229
-0.295196
-0.294016
-0.292759
-0.291485
-0.290241
-0.289063
-0.28797
-0.286968
-0.286051
-0.285197
-0.28437
-0.283523
-0.282591
-0.281499
-0.280152
-0.278507
-0.276297
-0.274072
-0.270125
-0.268608
-0.261203
-0.299504
-0.299224
-0.298581
-0.297633
-0.296451
-0.295113
-0.293693
-0.292256
-0.290855
-0.289526
-0.28829
-0.287153
-0.286102
-0.285112
-0.284141
-0.283127
-0.282
-0.28067
-0.279048
-0.277061
-0.27456
-0.271808
-0.267911
-0.265508
-0.258864
-0.301346
-0.300974
-0.300217
-0.299129
-0.29779
-0.296286
-0.294696
-0.293092
-0.291529
-0.290046
-0.288662
-0.287382
-0.286189
-0.285049
-0.28391
-0.282701
-0.281339
-0.279729
-0.277783
-0.275414
-0.272574
-0.269303
-0.26538
-0.262046
-0.256213
-0.30333
-0.30285
-0.301969
-0.300731
-0.299225
-0.297547
-0.295782
-0.294006
-0.292277
-0.290634
-0.289098
-0.287667
-0.286318
-0.285009
-0.283675
-0.282235
-0.280596
-0.278657
-0.276341
-0.273561
-0.270337
-0.266586
-0.262535
-0.258225
-0.253397
-0.305473
-0.304869
-0.30385
-0.30245
-0.300769
-0.298909
-0.296962
-0.29501
-0.29311
-0.291305
-0.289609
-0.288016
-0.286496
-0.284993
-0.283431
-0.281717
-0.279753
-0.277439
-0.274713
-0.271498
-0.267862
-0.263688
-0.259397
-0.254379
-0.25037
-0.307792
-0.307045
-0.305875
-0.304301
-0.302434
-0.300384
-0.298251
-0.296117
-0.294044
-0.292069
-0.290205
-0.288437
-0.286723
-0.284995
-0.283165
-0.281132
-0.278795
-0.276064
-0.272893
-0.269232
-0.265176
-0.260626
-0.256006
-0.250721
-0.246358
-0.310307
-0.309392
-0.308056
-0.306297
-0.304234
-0.301987
-0.299662
-0.297342
-0.295089
-0.292938
-0.290895
-0.288932
-0.286997
-0.285008
-0.282865
-0.280463
-0.277707
-0.274521
-0.270885
-0.266775
-0.262311
-0.257413
-0.25249
-0.246984
-0.242259
-0.313034
-0.311926
-0.310408
-0.308451
-0.306181
-0.303731
-0.301207
-0.298696
-0.296258
-0.293922
-0.291682
-0.289503
-0.287313
-0.285019
-0.282515
-0.279695
-0.276478
-0.272809
-0.268697
-0.264147
-0.259294
-0.25408
-0.248883
-0.243204
-0.238252
-0.315988
-0.314661
-0.312945
-0.310776
-0.30829
-0.305627
-0.302899
-0.300192
-0.297561
-0.295026
-0.292571
-0.290143
-0.287659
-0.285013
-0.282096
-0.278812
-0.275098
-0.27093
-0.266342
-0.261368
-0.256152
-0.250654
-0.245218
-0.239396
-0.234268
-0.319185
-0.317611
-0.31568
-0.313286
-0.310572
-0.30769
-0.304752
-0.301841
-0.299006
-0.296256
-0.293559
-0.290847
-0.288022
-0.284972
-0.281591
-0.277801
-0.273565
-0.268889
-0.263835
-0.258461
-0.25291
-0.247155
-0.241511
-0.235561
-0.23031
-0.322638
-0.320788
-0.318624
-0.315992
-0.313042
-0.309933
-0.306777
-0.303653
-0.3006
-0.297613
-0.294642
-0.291602
-0.288385
-0.284877
-0.280984
-0.276653
-0.271877
-0.266696
-0.261193
-0.255443
-0.249585
-0.243599
-0.23777
-0.231704
-0.226351
-0.326361
-0.324204
-0.321791
-0.318908
-0.315711
-0.312366
-0.308985
-0.305637
-0.302348
-0.299095
-0.29581
-0.292393
-0.288727
-0.284707
-0.28026
-0.275361
-0.270039
-0.264362
-0.258432
-0.252331
-0.246191
-0.239994
-0.233997
-0.227824
-0.222379
-0.330363
-0.327871
-0.325192
-0.322044
-0.318591
-0.315003
-0.311386
-0.307798
-0.30425
-0.300696
-0.29705
-0.293199
-0.289027
-0.284444
-0.279405
-0.273922
-0.268055
-0.261899
-0.255563
-0.249137
-0.242737
-0.236346
-0.230193
-0.223918
-0.218385
-0.334655
-0.331797
-0.328836
-0.325413
-0.321693
-0.317853
-0.313988
-0.310142
-0.306303
-0.302405
-0.298344
-0.293999
-0.289262
-0.284069
-0.27841
-0.272334
-0.265932
-0.259315
-0.252598
-0.245868
-0.239225
-0.232654
-0.226353
-0.219981
-0.214361
-0.339245
-0.335991
-0.332733
-0.329024
-0.325029
-0.320926
-0.316798
-0.312668
-0.308501
-0.304208
-0.29967
-0.294766
-0.28941
-0.283566
-0.277268
-0.270598
-0.263675
-0.256618
-0.249543
-0.242528
-0.235659
-0.228917
-0.222474
-0.216007
-0.210301
-0.344136
-0.340458
-0.33689
-0.332885
-0.328606
-0.324229
-0.319818
-0.315372
-0.310831
-0.306083
-0.301001
-0.295476
-0.289446
-0.282921
-0.275972
-0.268717
-0.261289
-0.253815
-0.246401
-0.239118
-0.232034
-0.225129
-0.21855
-0.211992
-0.206198
-0.349331
-0.345205
-0.341314
-0.337004
-0.332431
-0.327764
-0.323045
-0.318245
-0.313274
-0.308005
-0.30231
-0.296099
-0.289351
-0.28212
-0.274518
-0.266689
-0.258778
-0.250907
-0.243173
-0.235636
-0.228347
-0.221287
-0.214574
-0.207929
-0.202047
-0.354831
-0.35023
-0.346007
-0.341384
-0.336507
-0.331533
-0.326474
-0.321271
-0.315808
-0.309945
-0.303563
-0.296608
-0.289105
-0.281154
-0.272904
-0.264517
-0.256142
-0.247895
-0.239857
-0.232078
-0.224593
-0.217382
-0.21054
-0.203812
-0.197843
-0.36063
-0.355534
-0.35097
-0.346028
-0.340834
-0.335529
-0.330092
-0.32443
-0.318402
-0.311867
-0.304729
-0.296977
-0.288689
-0.280012
-0.271124
-0.262199
-0.253381
-0.244775
-0.236448
-0.228437
-0.220764
-0.213408
-0.206442
-0.199634
-0.193579
-0.366722
-0.361112
-0.356199
-0.350931
-0.345406
-0.339743
-0.33388
-0.327692
-0.32102
-0.313734
-0.305773
-0.29718
-0.288088
-0.278687
-0.269176
-0.259733
-0.250491
-0.241542
-0.23294
-0.224706
-0.216853
-0.209358
-0.202271
-0.19539
-0.189251
-0.373093
-0.366952
-0.361689
-0.356087
-0.350214
-0.344156
-0.337812
-0.331022
-0.323624
-0.315506
-0.306661
-0.297192
-0.287287
-0.27717
-0.267054
-0.257112
-0.247467
-0.238191
-0.229324
-0.220878
-0.212852
-0.205223
-0.198022
-0.191072
-0.184852
-0.379724
-0.373043
-0.367425
-0.361483
-0.355239
-0.348744
-0.341853
-0.334381
-0.326168
-0.317143
-0.307361
-0.29699
-0.28627
-0.275451
-0.264751
-0.254332
-0.2443
-0.234713
-0.225593
-0.216943
-0.208752
-0.200996
-0.193687
-0.186675
-0.180378
-0.386594
-0.379364
-0.373391
-0.367099
-0.360457
-0.353475
-0.345963
-0.337719
-0.328604
-0.318603
-0.30784
-0.296553
-0.285025
-0.273522
-0.262259
-0.251385
-0.240984
-0.231099
-0.221738
-0.212893
-0.204546
-0.19667
-0.18926
-0.182192
-0.175824
-0.39367
-0.385889
-0.379563
-0.372909
-0.365836
-0.358308
-0.350093
-0.340985
-0.330884
-0.319843
-0.308069
-0.295861
-0.283536
-0.271372
-0.25957
-0.248259
-0.237507
-0.227338
-0.217747
-0.208718
-0.200224
-0.192235
-0.184733
-0.177619
-0.171183
-0.400918
-0.392588
-0.385909
-0.37888
-0.371337
-0.363194
-0.354188
-0.344123
-0.332956
-0.320824
-0.308017
-0.294892
-0.281791
-0.268989
-0.256671
-0.244946
-0.233859
-0.22342
-0.213612
-0.204409
-0.195778
-0.187686
-0.180102
-0.172948
-0.166452
-0.408293
-0.399421
-0.392392
-0.38497
-0.37691
-0.368078
-0.358188
-0.347074
-0.334769
-0.321507
-0.307658
-0.293628
-0.279774
-0.26636
-0.253552
-0.241432
-0.230029
-0.219334
-0.209322
-0.199957
-0.1912
-0.183014
-0.175358
-0.168174
-0.161625
-0.415745
-0.406344
-0.398966
-0.39113
-0.3825
-0.372896
-0.362026
-0.349776
-0.336273
-0.321853
-0.306964
-0.29205
-0.277471
-0.263473
-0.250198
-0.237706
-0.226003
-0.215069
-0.204867
-0.195352
-0.186482
-0.178214
-0.170497
-0.163293
-0.156698
-0.423215
-0.413303
-0.405579
-0.397301
-0.388041
-0.377579
-0.365635
-0.352168
-0.337418
-0.321827
-0.30591
-0.290138
-0.274864
-0.260313
-0.246598
-0.233754
-0.221771
-0.210614
-0.200236
-0.190587
-0.181616
-0.173277
-0.165513
-0.158298
-0.151668
-0.430641
-0.420239
-0.412169
-0.403418
-0.393462
-0.382052
-0.368942
-0.35419
-0.338158
-0.321393
-0.30447
-0.287872
-0.271939
-0.256865
-0.242736
-0.229564
-0.21732
-0.205958
-0.195421
-0.185652
-0.176595
-0.168199
-0.1604
-0.153185
-0.146529
-0.437949
-0.427085
-0.418668
-0.409409
-0.398685
-0.386236
-0.371875
-0.355781
-0.338447
-0.32052
-0.302621
-0.285235
-0.268678
-0.253114
-0.238598
-0.225121
-0.212639
-0.20109
-0.190412
-0.18054
-0.171412
-0.162972
-0.155154
-0.14795
-0.14128
-0.445062
-0.433768
-0.425001
-0.415192
-0.403626
-0.39005
-0.374363
-0.356883
-0.338243
-0.319176
-0.300338
-0.282205
-0.265064
-0.249043
-0.23417
-0.220414
-0.207715
-0.196001
-0.1852
-0.175242
-0.16606
-0.157592
-0.149769
-0.142588
-0.135916
-0.451896
-0.440207
-0.431086
-0.420683
-0.408199
-0.393412
-0.376334
-0.357442
-0.337503
-0.317331
-0.297599
-0.278765
-0.261079
-0.244637
-0.229438
-0.21543
-0.202537
-0.19068
-0.179777
-0.169752
-0.160534
-0.152053
-0.144242
-0.137096
-0.130436
-0.458363
-0.446318
-0.436835
-0.425791
-0.412313
-0.396238
-0.37772
-0.357404
-0.33619
-0.314956
-0.294381
-0.274894
-0.256708
-0.239882
-0.224388
-0.210155
-0.197096
-0.185118
-0.174135
-0.164063
-0.154827
-0.146352
-0.138569
-0.13147
-0.124837
-0.46437
-0.45201
-0.442158
-0.430421
-0.415877
-0.398448
-0.378456
-0.356721
-0.334269
-0.312026
-0.290663
-0.270575
-0.251933
-0.234761
-0.219007
-0.20458
-0.19138
-0.179308
-0.168267
-0.15817
-0.148935
-0.140483
-0.132747
-0.125708
-0.119119
-0.469822
-0.457191
-0.446958
-0.434479
-0.418801
-0.399964
-0.378479
-0.355348
-0.331706
-0.308514
-0.286425
-0.26579
-0.246738
-0.229262
-0.213282
-0.198692
-0.185382
-0.17324
-0.162167
-0.152066
-0.142854
-0.134444
-0.126772
-0.119808
-0.113281
-0.47462
-0.461764
-0.451137
-0.437866
-0.420994
-0.40071
-0.377733
-0.353242
-0.328471
-0.304398
-0.281646
-0.260522
-0.24111
-0.22337
-0.207202
-0.192484
-0.179092
-0.16691
-0.155828
-0.145748
-0.136579
-0.128232
-0.120643
-0.113769
-0.107324
-0.478666
-0.465631
-0.454598
-0.440487
-0.422371
-0.400617
-0.376164
-0.350366
-0.324536
-0.299656
-0.276309
-0.254754
-0.235033
-0.217074
-0.200757
-0.185945
-0.172504
-0.16031
-0.149247
-0.139212
-0.130108
-0.121844
-0.114356
-0.10759
-0.101251
-0.481862
-0.468695
-0.457242
-0.442249
-0.42285
-0.399619
-0.373725
-0.346685
-0.319877
-0.294268
-0.270398
-0.248472
-0.228494
-0.210363
-0.193938
-0.179068
-0.165612
-0.153436
-0.142419
-0.132454
-0.123438
-0.115277
-0.10791
-0.10127
-0.0950648
-0.484112
-0.47086
-0.458974
-0.443061
-0.422354
-0.397656
-0.370374
-0.342171
-0.31447
-0.288216
-0.263896
-0.241664
-0.221484
-0.203228
-0.186736
-0.171848
-0.15841
-0.146284
-0.135343
-0.125473
-0.116568
-0.10853
-0.101302
-0.0948042
-0.0887502
-0.485321
-0.472031
-0.4597
-0.442839
-0.420813
-0.394677
-0.366072
-0.336796
-0.308297
-0.281486
-0.256791
-0.234318
-0.213992
-0.19566
-0.179147
-0.164279
-0.150896
-0.138852
-0.128015
-0.118267
-0.109498
-0.101604
-0.0945327
-0.0881868
-0.082265
-0.485401
-0.47212
-0.459334
-0.441504
-0.418162
-0.390635
-0.36079
-0.330539
-0.301343
-0.274064
-0.249073
-0.226425
-0.206011
-0.187654
-0.171164
-0.156358
-0.143067
-0.131138
-0.120436
-0.110837
-0.102227
-0.0945
-0.0876103
-0.0814259
-0.0755785
-0.484268
-0.47104
-0.457792
-0.438983
-0.414347
-0.385491
-0.354501
-0.323384
-0.293593
-0.265939
-0.240732
-0.217978
-0.197535
-0.179206
-0.162786
-0.148083
-0.134921
-0.123142
-0.112605
-0.103183
-0.0947567
-0.0872221
-0.0805372
-0.0745319
-0.068769
-0.481843
-0.468713
-0.455001
-0.435214
-0.40932
-0.379213
-0.347185
-0.315316
-0.28504
-0.257106
-0.231763
-0.208972
-0.18856
-0.170312
-0.15401
-0.139454
-0.12646
-0.114864
-0.104523
-0.0953093
-0.0870912
-0.0797735
-0.0733109
-0.0674682
-0.0619296
-0.478057
-0.465068
-0.450894
-0.430141
-0.403042
-0.371777
-0.338828
-0.306328
-0.275676
-0.247558
-0.222162
-0.199404
-0.179085
-0.160972
-0.144836
-0.13047
-0.117682
-0.10631
-0.0961939
-0.0872196
-0.0792353
-0.0721566
-0.0659313
-0.0602771
-0.0550026
-0.472849
-0.460042
-0.445413
-0.423719
-0.395482
-0.363165
-0.32942
-0.296414
-0.265501
-0.237296
-0.211928
-0.189275
-0.16911
-0.151188
-0.135268
-0.121135
-0.108588
-0.0974868
-0.0876284
-0.0789114
-0.0711907
-0.064375
-0.0584058
-0.0529666
-0.0479711
-0.466165
-0.45358
-0.438509
-0.415912
-0.386618
-0.353368
-0.31896
-0.285576
-0.254514
-0.22632
-0.201065
-0.178586
-0.158639
-0.140963
-0.125309
-0.111456
-0.0992005
-0.0883829
-0.0788232
-0.070395
-0.0629626
-0.0564336
-0.0507411
-0.0455386
-0.0408339
-0.457962
-0.445638
-0.430144
-0.406694
-0.376439
-0.342383
-0.307449
-0.273818
-0.242722
-0.214637
-0.189576
-0.167342
-0.147677
-0.130305
-0.114968
-0.101437
-0.0895118
-0.0790171
-0.0697852
-0.0616765
-0.0545576
-0.0483386
-0.0429432
-0.0379953
-0.0335963
-0.448207
-0.436182
-0.420292
-0.396049
-0.364939
-0.330213
-0.294896
-0.261149
-0.230132
-0.202251
-0.177464
-0.155558
-0.136235
-0.119221
-0.104249
-0.091087
-0.0795301
-0.0693967
-0.0605227
-0.0527627
-0.0459829
-0.0400969
-0.0350184
-0.0303413
-0.0262645
-0.436879
-0.425189
-0.408935
-0.383971
-0.352124
-0.31687
-0.281315
-0.247582
-0.216758
-0.189173
-0.164734
-0.143251
-0.124324
-0.10772
-0.0931638
-0.0804148
-0.0692652
-0.0595301
-0.0510451
-0.043662
-0.0372465
-0.0317164
-0.0269735
-0.0225826
-0.0188458
-0.423964
-0.412644
-0.396066
-0.370465
-0.338005
-0.302372
-0.266723
-0.233136
-0.202615
-0.175423
-0.151439
-0.1304
-0.111951
-0.0958161
-0.0817238
-0.0694317
-0.0587285
-0.0494271
-0.0413622
-0.0343838
-0.0283577
-0.0232055
-0.0188163
-0.0147271
-0.0113479
-0.409464
-0.398548
-0.381691
-0.355543
-0.322605
-0.286742
-0.251146
-0.217833
-0.187725
-0.161024
-0.137563
-0.117046
-0.099132
-0.0835219
-0.0699426
-0.0581506
-0.0479323
-0.0390993
-0.0314852
-0.0249387
-0.0193264
-0.0145738
-0.0105557
-0.00678351
-0.00377905
-0.393388
-0.382908
-0.365824
-0.339229
-0.305952
-0.270013
-0.234613
-0.2017
-0.172114
-0.145991
-0.12313
-0.103209
-0.0858866
-0.0708542
-0.0578356
-0.0465861
-0.0368904
-0.0285595
-0.0214262
-0.0153382
-0.0101638
-0.00583174
-0.00220146
0.00123842
0.00385157
-0.375757
-0.365744
-0.348491
-0.321554
-0.288082
-0.25222
-0.217158
-0.184767
-0.155806
-0.130351
-0.108164
-0.0889071
-0.0722346
-0.0578319
-0.0454203
-0.0347543
-0.025618
-0.0178219
-0.0111985
-0.005595
-0.000881692
0.00300949
0.00623572
0.00932789
0.011534
-0.356602
-0.347087
-0.329726
-0.30256
-0.26904
-0.233406
-0.198818
-0.16707
-0.138834
-0.114131
-0.0926919
-0.0741647
-0.0581984
-0.0444753
-0.0327155
-0.0226728
-0.0141314
-0.0069017
-0.000816426
0.00427743
0.00850688
0.0119377
0.0147443
0.0174731
0.0192571
-0.335966
-0.326976
-0.309575
-0.282299
-0.248881
-0.213606
-0.179636
-0.148647
-0.121233
-0.0973632
-0.0767431
-0.0590077
-0.0438021
-0.0308071
-0.019742
-0.0103609
-0.00244829
0.00418459
0.00970476
0.0142646
0.0179882
0.0209399
0.0233119
0.025661
0.0270085
-0.313899
-0.30546
-0.288092
-0.260837
-0.227655
-0.192871
-0.159659
-0.129541
-0.103041
-0.0800828
-0.060349
-0.0434647
-0.0290721
-0.0168514
-0.0065221
0.00216101
0.00941235
0.0154196
0.0203488
0.0243514
0.0275477
0.0300021
0.0319246
0.0338762
0.0347736
-0.290458
-0.2826
-0.265346
-0.238233
-0.205375
-0.171294
-0.138942
-0.109797
-0.0842987
-0.062327
-0.0435437
-0.0275669
-0.014037
-0.00263439
0.00692034
0.014871
0.0214305
0.0267848
0.0310988
0.0345219
0.0371704
0.0391101
0.0405678
0.0421005
0.0425316
-0.265708
-0.258471
-0.241413
-0.21449
-0.182186
-0.148911
-0.11754
-0.0894662
-0.0650517
-0.044136
-0.0263637
-0.0113475
0.00127309
0.0118164
0.0205601
0.0277461
0.0335851
0.038261
0.041937
0.0447597
0.0468408
0.0482491
0.0492267
0.0503147
0.0502553
-0.239723
-0.233151
-0.216366
-0.189713
-0.158133
-0.125788
-0.0955121
-0.0686009
-0.0453469
-0.0255524
-0.0088478
0.00515843
0.016826
0.0264716
0.0343704
0.0407618
0.0458539
0.049828
0.0528451
0.055048
0.0565427
0.0574043
0.0578888
0.0585047
0.0579278
-0.212577
-0.206725
-0.190183
-0.164094
-0.133292
-0.101996
-0.0729197
-0.0472568
-0.0252342
-0.00662148
0.00896322
0.0219136
0.0325881
0.0413006
0.0483235
0.053893
0.0582139
0.061465
0.0638043
0.0653689
0.0662589
0.0665604
0.0665445
0.0666625
0.0655438
-0.184342
-0.179296
-0.163078
-0.137636
-0.107744
-0.0776091
-0.049828
-0.025492
-0.00476597
0.0126097
0.0270266
0.0388793
0.048524
0.0562713
0.0623901
0.0671131
0.0706414
0.0731506
0.0747951
0.0757043
0.0759722
0.0757048
0.0751846
0.0747545
0.0730044
-0.155126
-0.15097
-0.135151
-0.110431
-0.0815704
-0.0527032
-0.0263048
-0.00336704
0.0160033
0.0320918
0.0452977
0.0560152
0.0645972
0.0713506
0.0765402
0.0803948
0.0831116
0.0848627
0.0857979
0.0860366
0.08567
0.0848341
0.083796
0.0826661
0.0799983
-0.125184
-0.121735
-0.106476
-0.0825755
-0.0548585
-0.0273562
-0.00241991
0.0190554
0.0370173
0.0517741
0.0637305
0.0732793
0.0807696
0.0865039
0.0907426
0.09371
0.0955993
0.0965787
0.0967922
0.0963493
0.0953462
0.0939557
0.0923618
0.0902585
0.0863009
-0.0945136
-0.0917644
-0.0771508
-0.0541696
-0.0276976
-0.0016485
0.0217546
0.0417107
0.0582179
0.0716039
0.0822774
0.0906287
0.0970024
0.101696
0.104965
0.10703
0.108078
0.108275
0.107757
0.106626
0.104995
0.103065
0.100854
0.0975958
0.09261
-0.0632029
-0.0611931
-0.0472835
-0.0253137
-0.000179653
0.0243374
0.046145
0.0645328
0.0795455
0.0915275
0.10089
0.108019
0.113255
0.116891
0.119175
0.120324
0.120521
0.119926
0.11867
0.11685
0.114598
0.112121
0.109212
0.104871
0.101022
-0.0313763
-0.0301351
-0.0169843
0.00388868
0.0276014
0.0505174
0.070676
0.0874542
0.100939
0.11149
0.119518
0.125406
0.129488
0.132051
0.133339
0.133563
0.132901
0.131509
0.129509
0.127001
0.12413
0.121067
0.117454
0.112515
0.109382
0.000842029
0.00129423
0.0136334
0.0333325
0.0555505
0.0768062
0.0952714
0.110406
0.122338
0.131436
0.138112
0.142743
0.145659
0.147139
0.147423
0.146715
0.14519
0.142996
0.140252
0.137059
0.133565
0.129897
0.125645
0.120315
0.117286
0.0333284
0.0329767
0.044455
0.0629116
0.0835714
0.103118
0.119854
0.13332
0.143678
0.151308
0.156619
0.159985
0.161726
0.162118
0.161393
0.15975
0.157359
0.154363
0.150876
0.147
0.142879
0.138605
0.133775
0.128114
0.124911
0.0659581
0.0647919
0.0753645
0.092519
0.111568
0.129366
0.144346
0.156126
0.164897
0.17105
0.17499
0.177084
0.177648
0.176948
0.175213
0.172635
0.169379
0.165583
0.161357
0.156801
0.152052
0.14718
0.141809
0.1358
0.132283
0.0986058
0.0966184
0.106246
0.122048
0.139443
0.155463
0.168671
0.178753
0.185933
0.190605
0.193172
0.193994
0.193381
0.191592
0.18885
0.18534
0.181223
0.176631
0.171669
0.166438
0.161065
0.155605
0.149713
0.143334
0.139426
0.131146
0.128334
0.136983
0.151391
0.1671
0.181324
0.19275
0.201132
0.206721
0.209915
0.211113
0.210669
0.208884
0.206012
0.202268
0.197833
0.192861
0.18748
0.181791
0.17589
0.169898
0.16386
0.157458
0.150691
0.146351
0.163452
0.159818
0.16746
0.180442
0.194444
0.206863
0.216506
0.223194
0.2272
0.228925
0.228763
0.227062
0.224114
0.220169
0.215433
0.210083
0.204266
0.198104
0.191696
0.185134
0.178532
0.171925
0.165021
0.157856
0.153058
0.195401
0.190947
0.197563
0.209097
0.22138
0.231993
0.239863
0.24487
0.247307
0.247578
0.246071
0.243126
0.239031
0.234025
0.228311
0.222058
0.215408
0.208478
0.201363
0.19415
0.186946
0.179782
0.172383
0.164816
0.159546
0.22687
0.221604
0.227179
0.237252
0.247815
0.256633
0.262747
0.266092
0.266981
0.265818
0.262986
0.258818
0.253592
0.247544
0.240868
0.233728
0.226261
0.218577
0.210768
0.202916
0.195123
0.187412
0.179528
0.171559
0.165808
0.257736
0.25167
0.256197
0.264806
0.273658
0.2807
0.285082
0.286793
0.286161
0.283591
0.279459
0.274091
0.267758
0.260689
0.253071
0.245064
0.236796
0.228376
0.219888
0.211412
0.203043
0.194798
0.186439
0.178073
0.171839
0.287881
0.281028
0.284508
0.291659
0.298819
0.304113
0.306797
0.306908
0.304789
0.300844
0.295442
0.288902
0.281489
0.273423
0.264888
0.256034
0.246988
0.23785
0.228702
0.219619
0.210689
0.201924
0.193104
0.184348
0.17763
0.31719
0.309568
0.312007
0.317716
0.323212
0.326795
0.327821
0.326374
0.322808
0.317524
0.310888
0.303209
0.294746
0.285713
0.276286
0.266612
0.256809
0.246976
0.237188
0.227516
0.218042
0.208773
0.199508
0.190371
0.183174
0.345548
0.337179
0.33859
0.342882
0.346752
0.348669
0.348087
0.345129
0.34016
0.333581
0.32575
0.31697
0.307492
0.297524
0.287236
0.276769
0.266237
0.255731
0.245325
0.235086
0.225086
0.215332
0.205637
0.196132
0.188463
0.372849
0.363756
0.364161
0.367069
0.369358
0.369664
0.367528
0.363113
0.356794
0.348967
0.339985
0.330145
0.31969
0.308823
0.297708
0.286478
0.275245
0.264094
0.253095
0.24231
0.231806
0.221585
0.21148
0.201619
0.193488
0.398986
0.389198
0.388622
0.390188
0.390953
0.389708
0.386081
0.380269
0.372655
0.363634
0.353551
0.342696
0.331307
0.319579
0.307672
0.295714
0.283811
0.272044
0.260478
0.249171
0.238185
0.227519
0.217023
0.206821
0.198242
0.42386
0.413407
0.411885
0.412159
0.411462
0.408735
0.403686
0.396543
0.387697
0.377538
0.366407
0.354586
0.342308
0.329763
0.317103
0.304453
0.291912
0.279559
0.267455
0.255653
0.244209
0.23312
0.222254
0.211729
0.202716
0.447376
0.436292
0.433863
0.432903
0.430814
0.426681
0.420285
0.411882
0.40187
0.390636
0.378514
0.365781
0.352663
0.339344
0.325973
0.312669
0.299527
0.286622
0.27401
0.261741
0.249864
0.238377
0.227163
0.216331
0.206904
0.469444
0.457765
0.454475
0.452347
0.448945
0.443488
0.435824
0.426238
0.415132
0.402888
0.389836
0.376246
0.362341
0.348297
0.33426
0.320343
0.306637
0.293214
0.280126
0.267419
0.255137
0.243277
0.231738
0.220618
0.210798
0.48998
0.477745
0.473646
0.47042
0.46579
0.459097
0.450253
0.439565
0.42744
0.414256
0.400339
0.385953
0.371314
0.356597
0.341939
0.327452
0.313223
0.299318
0.285787
0.272674
0.260015
0.247809
0.235969
0.224582
0.214391
0.508906
0.496157
0.491304
0.48706
0.481293
0.473459
0.463525
0.451821
0.438756
0.424706
0.409991
0.394871
0.379557
0.364218
0.34899
0.333979
0.319267
0.304919
0.290981
0.277493
0.264488
0.251964
0.239848
0.228213
0.217678
0.52615
0.512932
0.507385
0.502208
0.4954
0.486524
0.475596
0.462965
0.449044
0.434205
0.418763
0.402975
0.387046
0.371142
0.355393
0.339904
0.324753
0.310002
0.295694
0.281864
0.268544
0.25573
0.243364
0.231504
0.220652
0.541646
0.528005
0.521831
0.51581
0.508064
0.498249
0.486427
0.472963
0.458272
0.442724
0.426629
0.41024
0.393758
0.377346
0.361131
0.345212
0.329667
0.314554
0.299913
0.285778
0.272174
0.259101
0.246511
0.234448
0.223309
0.555336
0.54132
0.534589
0.527818
0.519241
0.508595
0.495983
0.481783
0.466411
0.450236
0.433565
0.416645
0.399675
0.382814
0.366187
0.349889
0.333996
0.318563
0.303629
0.289223
0.27537
0.262068
0.24928
0.237038
0.225644
0.567168
0.552827
0.545611
0.538191
0.528893
0.517528
0.504232
0.489396
0.473436
0.456719
0.439549
0.42217
0.404779
0.387531
0.370547
0.353922
0.337729
0.322019
0.306831
0.292193
0.278123
0.264624
0.251666
0.239269
0.227652
0.577097
0.562483
0.554858
0.54689
0.536987
0.525018
0.511148
0.495777
0.479324
0.462153
0.444564
0.426801
0.409055
0.391482
0.374199
0.3573
0.340854
0.324913
0.309512
0.294678
0.280428
0.266763
0.253662
0.241136
0.229332
0.585086
0.570252
0.562297
0.553887
0.543496
0.53104
0.516708
0.500907
0.484057
0.46652
0.448595
0.430521
0.412492
0.394656
0.377133
0.360014
0.343365
0.327237
0.311666
0.296674
0.282279
0.26848
0.255265
0.242634
0.230679
0.591104
0.576104
0.5679
0.559156
0.548397
0.535574
0.520894
0.504769
0.48762
0.469807
0.451628
0.433322
0.415078
0.397045
0.379341
0.362055
0.345254
0.328986
0.313286
0.298176
0.28367
0.269772
0.256471
0.243761
0.231691
0.595128
0.580018
0.571646
0.56268
0.551673
0.538606
0.523692
0.507351
0.490001
0.472004
0.453656
0.435193
0.416806
0.398642
0.380817
0.363419
0.346516
0.330154
0.314368
0.299179
0.2846
0.270635
0.257276
0.244513
0.232367
0.597144
0.581978
0.573523
0.564444
0.553314
0.540124
0.525094
0.508643
0.491194
0.473105
0.454671
0.43613
0.417671
0.399441
0.381555
0.364102
0.347147
0.330739
0.314909
0.299681
0.285065
0.271067
0.257679
0.24489
0.232705
0.597144
0.581978
0.573523
0.564444
0.553314
0.540124
0.525094
0.508643
0.491194
0.473105
0.454671
0.43613
0.417671
0.399441
0.381555
0.364102
0.347147