/*--------------------------------*- C++ -*----------------------------------*\
  =========                 |
  \\      /  F ield         | OpenFOAM: The Open Source CFD Toolbox
   \\    /   O peration     | Website:  https://openfoam.org
    \\  /    A nd           | Version:  7
     \\/     M anipulation  |
\*---------------------------------------------------------------------------*/
FoamFile
{
    version     2.0;
    format      ascii;
    class       volVectorField;
    location    "20";
    object      U;
}
// * * * * * * * * * * * * * * * * * * * * * * * * * * * * * * * * * * * * * //

dimensions      [0 1 -1 0 0 0 0];

internalField   nonuniform List<vector> 
31800
(
(-0.000536574 0.000529936 -9.91723e-21)
(-0.00332084 0.00132941 6.8466e-21)
(-0.00888461 0.00192482 -2.22962e-21)
(-0.0160768 0.00235786 9.89933e-21)
(-0.0244521 0.00265755 1.1054e-20)
(-0.0336442 0.00284936 -3.62062e-21)
(-0.0433325 0.00295566 -2.61593e-21)
(-0.053268 0.00299551 1.84934e-20)
(-0.0632592 0.00298497 -2.10554e-21)
(-0.0731613 0.00293716 3.02327e-21)
(-0.0828678 0.00286241 1.03645e-20)
(-0.0923019 0.00276851 1.01442e-20)
(-0.101408 0.00266091 -6.40191e-21)
(-0.110146 0.00254313 -7.95177e-21)
(-0.118484 0.00241717 -2.71399e-22)
(-0.126394 0.00228408 -1.01362e-20)
(-0.13385 0.00214454 7.86831e-21)
(-0.14083 0.00199971 1.32531e-20)
(-0.147317 0.00185219 -4.95224e-21)
(-0.153302 0.00170715 2.24211e-20)
(-0.158804 0.00157359 1.41841e-21)
(-0.163879 0.00146535 -1.80727e-21)
(-0.16864 0.00139988 3.94335e-21)
(-0.173232 0.00139275 8.0207e-21)
(-0.177924 0.00147342 4.98287e-21)
(-0.000587367 0.00158419 1.02106e-20)
(-0.00343387 0.00397521 5.58654e-21)
(-0.00901955 0.00575685 -6.01414e-21)
(-0.0162065 0.00705327 -2.28454e-20)
(-0.024555 0.00795086 1.68627e-20)
(-0.0337031 0.0085257 -8.24918e-21)
(-0.0433331 0.00884454 4.54543e-22)
(-0.0531983 0.00896438 -1.41831e-20)
(-0.0631086 0.00893319 2.95594e-21)
(-0.0729201 0.00879027 2.00717e-21)
(-0.0825267 0.0085666 -4.35194e-20)
(-0.0918517 0.00828545 -7.34933e-22)
(-0.10084 0.00796323 4.86529e-20)
(-0.109449 0.00761049 -2.4447e-20)
(-0.117647 0.00723324 -4.62789e-21)
(-0.125407 0.00683453 1.00602e-20)
(-0.1327 0.00641633 -2.11189e-20)
(-0.139503 0.00598189 -1.05402e-21)
(-0.145794 0.00553866 2.08235e-20)
(-0.151564 0.00510177 -7.6281e-20)
(-0.156822 0.00469768 -2.36292e-20)
(-0.161618 0.00436772 3.57114e-20)
(-0.166061 0.00416482 1.75958e-20)
(-0.170278 0.00413739 3.12711e-21)
(-0.174523 0.00437459 -7.07968e-21)
(-0.000688046 0.00262194 -2.11629e-20)
(-0.00365812 0.0065828 -5.79075e-22)
(-0.00928749 0.00953737 -2.87486e-20)
(-0.0164643 0.0116893 4.28786e-20)
(-0.0247598 0.0131808 -4.8543e-20)
(-0.0338202 0.0141371 -4.53498e-21)
(-0.0433341 0.0146685 -4.40359e-21)
(-0.0530592 0.0148693 8.04848e-21)
(-0.0628082 0.014819 2.66358e-20)
(-0.0724388 0.0145827 -4.52231e-21)
(-0.0818459 0.0142119 -7.97777e-21)
(-0.0909527 0.0137454 2.87317e-20)
(-0.0997032 0.0132105 -5.05802e-21)
(-0.108055 0.0126248 2.7907e-20)
(-0.115975 0.0119984 -5.64593e-20)
(-0.123433 0.011336 -2.30684e-20)
(-0.1304 0.0106408 3.71704e-21)
(-0.136848 0.00991733 -7.5564e-20)
(-0.14275 0.00917696 2.06267e-20)
(-0.148088 0.00844341 4.64666e-20)
(-0.152861 0.00775924 -2.93334e-20)
(-0.157104 0.00719237 -7.05526e-20)
(-0.160915 0.00683287 -3.51834e-20)
(-0.16439 0.00676694 -6.56471e-20)
(-0.167744 0.00714591 -3.59119e-20)
(-0.000836826 0.00363259 9.85481e-21)
(-0.00399001 0.00912754 -1.64154e-20)
(-0.00968464 0.013233 5.22213e-20)
(-0.0168468 0.0162274 -4.1774e-20)
(-0.0250639 0.0183059 -1.0876e-20)
(-0.0339942 0.0196409 -2.88919e-21)
(-0.0433353 0.0203848 3.41796e-20)
(-0.0528515 0.020668 2.42297e-20)
(-0.0623594 0.0206008 -4.27923e-20)
(-0.0717196 0.0202739 1.79378e-20)
(-0.0808278 0.019759 1.09625e-21)
(-0.0896076 0.0191103 -8.08102e-20)
(-0.0980023 0.0183659 -2.6519e-20)
(-0.105968 0.0175505 2.15083e-21)
(-0.11347 0.0166783 1.7674e-20)
(-0.120475 0.0157558 8.05237e-20)
(-0.126952 0.0147864 8.92957e-21)
(-0.132866 0.0137753 7.62531e-20)
(-0.138185 0.0127362 7.61337e-20)
(-0.142879 0.0116991 -9.39142e-21)
(-0.14693 0.0107203 3.4219e-20)
(-0.150351 0.00989233 -1.30855e-20)
(-0.153224 0.00934458 4.3423e-20)
(-0.155605 0.00920948 1.44787e-19)
(-0.157625 0.00970401 2.26209e-20)
(-0.0010311 0.00460615 1.67651e-20)
(-0.00442434 0.011586 -6.09727e-20)
(-0.0102054 0.0168118 7.86641e-20)
(-0.0173492 0.0206304 2.8989e-20)
(-0.025464 0.0232859 2.27191e-20)
(-0.0342231 0.0249954 2.41608e-20)
(-0.0433363 0.0259512 -1.28505e-19)
(-0.0525759 0.0263185 4.77787e-20)
(-0.0617643 0.0262375 4.97008e-20)
(-0.0707652 0.0258236 -7.3432e-20)
(-0.0794759 0.0251685 7.60334e-20)
(-0.0878202 0.0243416 4.15777e-20)
(-0.0957402 0.0233919 5.14215e-20)
(-0.103191 0.0223515 -3.48325e-20)
(-0.110134 0.0212383 -7.73026e-21)
(-0.116534 0.0200605 1.69195e-19)
(-0.122355 0.0188214 -7.30519e-20)
(-0.127557 0.0175257 5.65999e-20)
(-0.132098 0.0161871 -1.36964e-19)
(-0.135936 0.0148392 -5.52378e-20)
(-0.139031 0.013548 5.23879e-20)
(-0.14137 0.0124278 9.15233e-20)
(-0.143013 0.0116485 1.55126e-20)
(-0.143967 0.0114007 -1.19104e-19)
(-0.144212 0.0119702 -8.35481e-20)
(-0.00126754 0.00553344 -6.59521e-20)
(-0.00495439 0.0139365 -2.12848e-20)
(-0.0108426 0.0202438 -4.66613e-20)
(-0.0179653 0.0248628 -4.51524e-20)
(-0.0259554 0.0280822 3.23887e-20)
(-0.0345043 0.0301604 -5.78553e-20)
(-0.0433363 0.0313267 -3.75245e-20)
(-0.0522336 0.0317798 -1.86501e-19)
(-0.0610253 0.0316882 8.17946e-21)
(-0.0695791 0.0311915 -1.89636e-21)
(-0.0777944 0.0304009 -1.42974e-19)
(-0.0855947 0.0294007 -4.87605e-20)
(-0.0929214 0.028251 -6.05744e-20)
(-0.0997268 0.0269911 1.17178e-19)
(-0.10597 0.025643 3.37965e-20)
(-0.111611 0.0242163 -9.2265e-20)
(-0.116608 0.022714 -1.02931e-19)
(-0.120916 0.0211387 2.85445e-20)
(-0.124483 0.0195022 1.13016e-19)
(-0.127252 0.0178377 -2.44425e-20)
(-0.129162 0.0162164 -1.47779e-20)
(-0.130165 0.0147687 -6.96918e-20)
(-0.130295 0.0137047 -8.78692e-20)
(-0.129515 0.0132877 7.18499e-20)
(-0.127534 0.013872 4.86926e-20)
(-0.00154219 0.00640631 3.42433e-20)
(-0.00557217 0.0161594 4.02518e-20)
(-0.0115877 0.0235016 -3.17386e-20)
(-0.0186876 0.0288919 -6.56215e-20)
(-0.0265323 0.0326586 1.02131e-20)
(-0.0348344 0.0350971 7.69667e-20)
(-0.0433341 0.0364716 1.10617e-19)
(-0.0518253 0.0370114 1.51035e-19)
(-0.0601448 0.0369125 2.63394e-20)
(-0.0681651 0.0363375 3.47886e-20)
(-0.0757875 0.0354164 4.22135e-20)
(-0.0829359 0.0342485 1.61585e-19)
(-0.0895498 0.0329048 -9.3173e-21)
(-0.0955788 0.0314319 -2.07264e-19)
(-0.100978 0.0298561 1.49378e-19)
(-0.105702 0.0281887 5.93854e-20)
(-0.109706 0.0264315 1.88156e-19)
(-0.112934 0.0245845 -7.69852e-20)
(-0.115326 0.0226552 -8.86854e-20)
(-0.11681 0.0206727 2.52984e-19)
(-0.117303 0.018707 -8.50081e-20)
(-0.116718 0.0168971 -1.29789e-19)
(-0.115059 0.0154884 -3.46897e-20)
(-0.112267 0.0148343 -1.09106e-19)
(-0.107588 0.0153443 1.81937e-20)
(-0.0018506 0.00721777 8.51845e-21)
(-0.00626863 0.0182374 -1.67236e-20)
(-0.0124307 0.0265603 3.41129e-21)
(-0.0195071 0.0326874 -1.19506e-19)
(-0.0271883 0.0369809 -9.27232e-20)
(-0.035209 0.0397692 -1.75033e-20)
(-0.0433279 0.0413476 -4.52097e-20)
(-0.0513513 0.0419744 -8.22502e-20)
(-0.0591249 0.041871 -1.85317e-20)
(-0.0665263 0.041222 -9.18135e-21)
(-0.0734593 0.0401757 -8.71222e-20)
(-0.0798475 0.0388459 3.76668e-20)
(-0.0856285 0.0373146 2.83509e-20)
(-0.0907484 0.0356358 1.52207e-19)
(-0.0951571 0.0338406 -3.10781e-21)
(-0.0988046 0.0319417 -9.20879e-20)
(-0.101637 0.0299403 -1.00205e-20)
(-0.103593 0.0278327 3.98047e-20)
(-0.1046 0.0256206 1.63249e-19)
(-0.104573 0.023325 -1.21261e-19)
(-0.103409 0.0210084 3.19334e-19)
(-0.100982 0.0188083 1.33194e-19)
(-0.0972504 0.0169953 -1.00575e-19)
(-0.0922079 0.01603 1.94454e-19)
(-0.0843154 0.0163316 1.1288e-19)
(-0.00218799 0.00796215 1.04283e-20)
(-0.00703396 0.0201561 5.2844e-20)
(-0.0133609 0.0293986 1.4982e-19)
(-0.0204143 0.0362227 1.86625e-19)
(-0.0279155 0.0410183 1.10928e-19)
(-0.0356232 0.0441425 -7.78361e-20)
(-0.043315 0.0459185 1.89491e-19)
(-0.0508112 0.0466309 2.1472e-20)
(-0.0579668 0.0465248 -1.13099e-19)
(-0.0646651 0.0458057 1.24242e-20)
(-0.0708124 0.0446393 2.0966e-19)
(-0.0763319 0.0431535 -2.23987e-19)
(-0.0811586 0.0414411 -1.27842e-19)
(-0.085234 0.0395641 -2.59639e-20)
(-0.0885022 0.0375582 -2.09564e-19)
(-0.090906 0.0354385 -1.36561e-19)
(-0.0923833 0.0332054 2.42057e-20)
(-0.0928636 0.0308519 -2.84363e-19)
(-0.0922643 0.0283725 2.84363e-20)
(-0.0904862 0.0257772 -1.36071e-19)
(-0.0874074 0.0231147 -1.68509e-19)
(-0.0828662 0.0205107 1.56909e-19)
(-0.0767556 0.018244 1.76412e-19)
(-0.0692661 0.0168991 -1.37261e-19)
(-0.0575842 0.0168198 1.88829e-19)
(-0.00254939 0.00863517 -1.25399e-19)
(-0.00785783 0.0219039 9.19211e-20)
(-0.0143669 0.0319986 -6.72124e-21)
(-0.0213985 0.0394743 3.67273e-20)
(-0.0287054 0.044743 3.47495e-20)
(-0.0360706 0.0481857 1.55911e-19)
(-0.0432916 0.0501503 -1.13118e-19)
(-0.0502032 0.050945 -2.10789e-19)
(-0.0566702 0.0508367 1.05571e-19)
(-0.0625821 0.0500502 9.85138e-20)
(-0.0678473 0.0487682 -3.32513e-19)
(-0.0723885 0.0471319 2.33777e-19)
(-0.0761372 0.0452451 3.54854e-19)
(-0.0790293 0.0431774 2.41756e-20)
(-0.0810015 0.0409701 -6.25544e-20)
(-0.0819877 0.038641 1.79537e-19)
(-0.0819156 0.0361906 -8.27875e-20)
(-0.080704 0.0336088 3.70815e-19)
(-0.0782579 0.030883 -3.26914e-19)
(-0.0744643 0.0280108 5.94414e-20)
(-0.0691854 0.0250222 -3.08426e-20)
(-0.0622294 0.0220218 -1.00334e-19)
(-0.0533773 0.0192657 -9.73153e-20)
(-0.0432684 0.0174474 8.01769e-20)
(-0.027229 0.0169608 2.05779e-20)
(-0.0029298 0.00923402 8.18845e-20)
(-0.00872972 0.0234723 -5.89234e-20)
(-0.0154366 0.0343462 4.86459e-20)
(-0.0224484 0.0424228 -1.63893e-19)
(-0.0295484 0.0481308 -3.62273e-20)
(-0.0365438 0.0518707 1.8407e-20)
(-0.0432522 0.0540116 -4.16514e-20)
(-0.0495234 0.0548826 -6.89219e-20)
(-0.0552324 0.0547706 2.16721e-20)
(-0.0602746 0.0539185 -1.1514e-19)
(-0.0645607 0.0525243 2.14655e-19)
(-0.0680121 0.0507425 -4.93255e-20)
(-0.0705558 0.0486874 -1.26015e-19)
(-0.0721208 0.0464367 -1.28968e-19)
(-0.0726343 0.0440374 1.70752e-19)
(-0.0720191 0.0415108 9.25174e-20)
(-0.0701902 0.0388585 3.68329e-20)
(-0.0670526 0.0360685 -3.0917e-19)
(-0.0624966 0.0331224 3.22212e-19)
(-0.0563938 0.0300056 -1.05256e-19)
(-0.0485898 0.0267262 -4.89992e-20)
(-0.038881 0.023362 -3.79652e-20)
(-0.02686 0.0200946 -4.20889e-20)
(-0.0138015 0.0175338 1.35644e-19)
(0.00696281 0.0170801 -2.21902e-19)
(-0.00332435 0.00975734 -3.04276e-20)
(-0.00963919 0.0248559 1.31419e-19)
(-0.0165581 0.0364309 -1.87884e-19)
(-0.0235522 0.0450527 7.5339e-20)
(-0.0304338 0.0511612 4.15479e-20)
(-0.0370336 0.0551725 -6.29588e-20)
(-0.0431893 0.0574737 1.83441e-19)
(-0.0487654 0.0584121 4.4567e-20)
(-0.0536472 0.0582927 2.08687e-20)
(-0.057736 0.0573748 1.80063e-19)
(-0.0609442 0.0558708 -7.37843e-20)
(-0.063191 0.0539477 7.80298e-20)
(-0.0643979 0.05173 -8.29592e-20)
(-0.0644848 0.0493036 -5.2585e-21)
(-0.0633673 0.0467216 -9.04338e-20)
(-0.0609541 0.0440097 -3.12888e-19)
(-0.0571442 0.0411719 6.4445e-20)
(-0.0518247 0.0381959 2.49809e-19)
(-0.0448676 0.0350596 -8.62103e-20)
(-0.0361257 0.0317384 4.16992e-19)
(-0.0254222 0.0282191 -2.31316e-19)
(-0.0125787 0.0245469 -6.6128e-20)
(0.0030069 0.0208104 -1.11109e-19)
(0.019617 0.0175002 3.43772e-21)
(0.0457664 0.0169585 -9.94477e-20)
(-0.00372847 0.0102052 -9.10637e-20)
(-0.0105761 0.0260524 -1.35477e-19)
(-0.0177192 0.0382461 -7.27417e-20)
(-0.0246974 0.0473524 6.83942e-20)
(-0.0313498 0.0538177 2.13563e-20)
(-0.0375291 0.05807 1.23355e-20)
(-0.0430925 0.0605113 4.71547e-20)
(-0.047919 0.061505 -2.29715e-19)
(-0.0519038 0.0613717 7.59414e-20)
(-0.0549536 0.0603857 -1.57298e-19)
(-0.0569818 0.0587728 -5.70104e-20)
(-0.0579044 0.0567117 -7.69713e-20)
(-0.0576353 0.0543366 -1.62986e-19)
(-0.0560835 0.0517416 3.35011e-19)
(-0.05315 0.0489865 1.90032e-19)
(-0.0487257 0.0461021 5.11126e-20)
(-0.0426893 0.0430961 1.59501e-19)
(-0.0349054 0.0399579 -2.30888e-19)
(-0.0252221 0.0366646 -5.69191e-20)
(-0.0134697 0.0331859 -2.70989e-19)
(0.000562126 0.0294916 1.04462e-19)
(0.0170017 0.0256037 2.29752e-19)
(0.0367293 0.0215142 1.05098e-19)
(0.0571562 0.0177064 -1.9845e-19)
(0.0899112 0.0164513 2.48109e-19)
(-0.00413801 0.0105791 -3.24284e-20)
(-0.011531 0.0270625 8.45684e-21)
(-0.018908 0.0397892 9.21386e-20)
(-0.0258711 0.0493146 1.64462e-19)
(-0.032283 0.0560878 -1.10073e-19)
(-0.0380168 0.0605459 1.06124e-19)
(-0.042948 0.0631028 -8.32596e-20)
(-0.0469692 0.0641357 3.14574e-19)
(-0.0499851 0.0639792 -2.20499e-19)
(-0.0519069 0.0629207 4.7434e-20)
(-0.0526479 0.0611984 2.04678e-19)
(-0.0521191 0.0590016 -2.82304e-20)
(-0.0502251 0.0564739 2.1982e-20)
(-0.0468608 0.0537178 -2.7233e-19)
(-0.0419093 0.0507998 -2.30807e-19)
(-0.0352394 0.0477567 -8.80861e-21)
(-0.0267046 0.0446012 -2.54254e-19)
(-0.0161412 0.0413268 9.3051e-20)
(-0.00336688 0.0379128 -1.29592e-19)
(0.0118144 0.0343287 1.69635e-19)
(0.029667 0.0305352 -2.2903e-19)
(0.0502089 0.0265443 1.37599e-19)
(0.0748334 0.0222336 -1.15017e-19)
(0.0993226 0.0180959 1.55897e-19)
(0.140026 0.0160595 -9.06471e-21)
(-0.00454933 0.0108816 1.77748e-19)
(-0.012495 0.0278895 4.50658e-20)
(-0.0201129 0.0410609 -1.02026e-19)
(-0.0270598 0.0509357 -1.22434e-19)
(-0.0332185 0.0579631 8.26192e-20)
(-0.0384803 0.0625867 -3.02875e-19)
(-0.0427374 0.0652302 4.31706e-19)
(-0.045895 0.0662825 8.39564e-20)
(-0.0478661 0.0660904 1.39165e-19)
(-0.0485652 0.0649529 1.70034e-19)
(-0.047904 0.0631191 1.07157e-19)
(-0.0457864 0.0607885 -8.02906e-20)
(-0.0421046 0.0581134 -2.69982e-21)
(-0.0367364 0.0552044 -3.92595e-20)
(-0.0295426 0.0521354 -1.17225e-19)
(-0.0203653 0.04895 2.62705e-19)
(-0.00902721 0.045667 5.35677e-19)
(0.00466996 0.0422861 3.19358e-20)
(0.0209459 0.0387924 1.84873e-19)
(0.0400247 0.0351597 -9.61648e-20)
(0.0622556 0.0313496 1.16593e-19)
(0.0874439 0.0273699 -6.8439e-19)
(0.117846 0.0230355 3.25115e-19)
(0.146641 0.0187072 2.00823e-19)
(0.196809 0.0161375 -1.33827e-19)
(-0.00495942 0.0111166 -1.06571e-19)
(-0.0134602 0.0285392 -1.83175e-19)
(-0.0213224 0.0420652 1.75705e-19)
(-0.0282491 0.0522159 1.1509e-19)
(-0.0341391 0.0594393 6.18596e-20)
(-0.0388994 0.0641835 2.19017e-19)
(-0.0424367 0.0668801 -2.27281e-19)
(-0.0446677 0.0679283 -2.09571e-19)
(-0.0455118 0.0676851 -1.37566e-19)
(-0.0448853 0.06646 -3.22967e-19)
(-0.0426958 0.0645118 6.24403e-20)
(-0.0388373 0.0620491 -2.54689e-20)
(-0.0331866 0.0592329 4.60304e-19)
(-0.0255999 0.0561815 1.8955e-19)
(-0.0159111 0.0529767 1.36259e-19)
(-0.00393021 0.0496695 -4.28259e-20)
(0.0105569 0.0462869 -2.45503e-19)
(0.0277886 0.0428364 -1.98845e-19)
(0.0480289 0.039312 -2.32696e-19)
(0.0715252 0.0356954 1.66653e-19)
(0.0987552 0.0319627 3.14243e-19)
(0.129154 0.0281019 3.51589e-19)
(0.166312 0.0240034 -3.31501e-19)
(0.199583 0.0196141 1.42842e-19)
(0.260871 0.0169749 1.91889e-19)
(-0.00536595 0.0112887 -2.8054e-19)
(-0.0144196 0.0290196 1.56144e-19)
(-0.0225255 0.0428091 -2.66262e-19)
(-0.0294237 0.0531593 3.2717e-19)
(-0.0350252 0.060516 -3.12658e-19)
(-0.0392492 0.0653312 -9.35847e-20)
(-0.0420154 0.0680436 -1.74355e-19)
(-0.0432493 0.0690605 9.80432e-20)
(-0.0428751 0.0687483 -1.67855e-19)
(-0.0408082 0.0674255 1.83587e-19)
(-0.0369492 0.0653596 -2.40788e-19)
(-0.0311789 0.0627676 -1.78605e-19)
(-0.023354 0.0598186 6.19512e-21)
(-0.0133047 0.0566392 -2.74197e-19)
(-0.0008323 0.0533193 5.80773e-21)
(0.014291 0.0499188 -2.7755e-19)
(0.0323214 0.0464737 -1.70155e-20)
(0.0535418 0.043002 -3.02793e-19)
(0.0782659 0.0395096 1.05848e-19)
(0.10675 0.0359868 4.60875e-19)
(0.139654 0.0324471 -4.43432e-19)
(0.175823 0.0287959 2.17871e-19)
(0.220755 0.0252573 2.39403e-19)
(0.258557 0.0208831 -1.14958e-19)
(0.332557 0.0188378 4.61802e-20)
(-0.00576724 0.0114031 1.45386e-19)
(-0.0153669 0.0293401 -4.10205e-20)
(-0.0237109 0.0433019 9.02827e-20)
(-0.030567 0.0537726 -2.63185e-19)
(-0.0358536 0.0611966 4.21661e-19)
(-0.0394996 0.0660296 2.74989e-20)
(-0.0414347 0.0687164 3.04771e-19)
(-0.0415909 0.0696722 -1.58985e-19)
(-0.0398944 0.0692712 1.07742e-19)
(-0.0362564 0.0678398 1.41733e-19)
(-0.0305669 0.0656536 1.29947e-19)
(-0.0226889 0.0629373 4.11114e-19)
(-0.0124543 0.0598682 -1.04062e-19)
(0.000338708 0.0565813 -1.04768e-19)
(0.0159269 0.0531757 -8.20678e-20)
(0.0345815 0.0497212 -7.26707e-21)
(0.0566052 0.0462652 -1.7278e-19)
(0.0823266 0.0428377 1.52622e-19)
(0.112111 0.0394606 -2.04828e-19)
(0.146196 0.0361282 8.40769e-20)
(0.185476 0.0329323 -1.19484e-19)
(0.227947 0.0295601 1.53919e-20)
(0.281594 0.0269725 -5.60654e-19)
(0.323866 0.0226083 5.97381e-20)
(0.411772 0.0219477 -1.88522e-21)
(-0.00616226 0.0114658 1.93762e-19)
(-0.0162968 0.0295114 -1.30747e-19)
(-0.0248674 0.043555 -9.21434e-20)
(-0.0316603 0.0540656 -5.57058e-20)
(-0.0365973 0.0614881 -1.82316e-19)
(-0.0396138 0.0662824 -3.07617e-19)
(-0.0406462 0.0688999 -1.00417e-19)
(-0.0396304 0.0697625 3.4348e-19)
(-0.0364907 0.0692519 -1.07277e-19)
(-0.0311305 0.0677016 -2.31877e-19)
(-0.0234242 0.0653945 -1.40048e-19)
(-0.0132119 0.0625631 -4.20405e-19)
(-0.000294527 0.0593929 -4.57995e-19)
(0.0155676 0.0560282 3.44047e-19)
(0.034655 0.0525784 7.07814e-20)
(0.0572863 0.0491251 5.65745e-20)
(0.0838129 0.045729 5.91553e-19)
(0.114605 0.0424344 9.00504e-20)
(0.150072 0.0392834 5.67734e-19)
(0.190395 0.0362623 -6.80253e-19)
(0.236735 0.0336068 3.18167e-19)
(0.285983 0.0305705 -2.87831e-19)
(0.349022 0.0293702 4.51504e-19)
(0.395632 0.0249589 -6.78145e-19)
(0.497802 0.0264621 1.41224e-19)
(-0.00655053 0.0114825 -4.91488e-20)
(-0.0172042 0.0295449 -1.04403e-19)
(-0.0259828 0.0435812 -9.61924e-20)
(-0.0326824 0.0540504 3.27569e-20)
(-0.0372243 0.0614007 -5.16102e-20)
(-0.0395471 0.066098 1.94745e-19)
(-0.0395907 0.0686006 -6.97361e-20)
(-0.0372908 0.0693374 -1.47214e-19)
(-0.032566 0.0686967 -6.0296e-20)
(-0.0253065 0.0670192 3.04001e-21)
(-0.0153659 0.0645947 3.86612e-19)
(-0.00255484 0.0616637 -3.39228e-19)
(0.0133627 0.0584208 4.93415e-19)
(0.0326704 0.0550205 -1.42815e-19)
(0.055697 0.0515845 -2.48631e-19)
(0.0828105 0.0482081 2.0594e-19)
(0.114407 0.0449676 -2.25928e-19)
(0.150885 0.041923 -3.81808e-19)
(0.192682 0.0391424 -1.42289e-19)
(0.239865 0.0365814 1.33816e-19)
(0.293845 0.0347065 2.13702e-19)
(0.350251 0.0320783 4.14723e-19)
(0.422854 0.0326784 2.40979e-20)
(0.473672 0.0281934 2.87018e-19)
(0.589165 0.0324613 -9.32128e-20)
(-0.00693201 0.0114592 -2.40709e-20)
(-0.0180844 0.0294521 2.28376e-19)
(-0.027044 0.0433941 2.35866e-19)
(-0.0336092 0.0537407 -1.05783e-19)
(-0.0376972 0.0609476 7.42966e-20)
(-0.0392463 0.065489 -2.76267e-19)
(-0.0381962 0.0678309 5.49945e-20)
(-0.0344783 0.0684098 4.4407e-20)
(-0.0280001 0.0676209 -1.29467e-19)
(-0.0186329 0.0658119 -3.56574e-20)
(-0.00620298 0.06328 -4.84578e-19)
(0.00951516 0.0602742 1.5422e-19)
(0.0288011 0.0569995 -2.32799e-20)
(0.051987 0.0536226 -5.47978e-21)
(0.0794518 0.050279 -2.23921e-20)
(0.111609 0.0470804 -4.44029e-21)
(0.148887 0.0441206 -1.97864e-20)
(0.19169 0.0414759 2.64945e-19)
(0.240442 0.0392449 -2.3549e-19)
(0.295036 0.0373232 2.14529e-19)
(0.357015 0.0364884 -3.16402e-19)
(0.420804 0.0343979 -1.52485e-19)
(0.502394 0.0370818 4.40158e-20)
(0.557308 0.0326178 -2.45902e-19)
(0.683561 0.0399294 -8.04136e-20)
(-0.00730689 0.0114012 -2.28468e-19)
(-0.0189323 0.029244 -2.87796e-20)
(-0.028036 0.0430074 -2.91342e-19)
(-0.0344125 0.0531517 -2.34231e-19)
(-0.0379716 0.0601447 3.1043e-19)
(-0.038648 0.064472 2.1274e-19)
(-0.0363771 0.066609 -9.39364e-20)
(-0.0310807 0.0670006 -8.41669e-20)
(-0.0226494 0.0660497 -6.27298e-20)
(-0.0109291 0.0641113 5.42098e-19)
(0.00428856 0.0614911 2.08616e-19)
(0.0232719 0.0584481 2.94688e-19)
(0.0463491 0.055199 -1.63105e-20)
(0.0739035 0.0519248 5.72826e-20)
(0.106361 0.0487777 1.58752e-19)
(0.144167 0.045887 -3.72424e-19)
(0.187761 0.0433655 5.88465e-19)
(0.237505 0.0413039 6.21997e-20)
(0.293746 0.0398329 -1.91782e-19)
(0.356142 0.0387594 -2.89541e-19)
(0.426134 0.0391992 -1.56558e-19)
(0.497258 0.0378678 3.49085e-19)
(0.586352 0.0426854 -1.15121e-20)
(0.645183 0.0384939 1.82989e-19)
(0.777988 0.0487257 2.20601e-19)
(-0.0076754 0.0113134 1.74259e-19)
(-0.019742 0.0289306 1.82464e-20)
(-0.0289414 0.0424347 -3.92921e-20)
(-0.0350593 0.0522994 4.13772e-20)
(-0.0379956 0.0590103 -2.95174e-19)
(-0.0376778 0.0630677 3.93304e-19)
(-0.0340324 0.0649591 -9.353e-22)
(-0.026966 0.065139 3.20819e-19)
(-0.0163456 0.0640189 1.36923e-20)
(-0.00198435 0.0619626 -1.09994e-19)
(0.0163678 0.0592858 1.73301e-19)
(0.0390278 0.056259 -5.82345e-19)
(0.0663754 0.0531133 -3.59291e-19)
(0.0988419 0.0500461 -1.79164e-19)
(0.136888 0.0472279 -7.73279e-20)
(0.18097 0.0448071 7.00197e-21)
(0.231489 0.0429139 -3.81642e-19)
(0.28871 0.0416484 1.45074e-19)
(0.352795 0.0411665 5.57968e-19)
(0.423111 0.041174 1.53497e-19)
(0.500659 0.0430458 3.7164e-19)
(0.578637 0.0427789 -3.676e-19)
(0.672863 0.0494991 -8.57788e-20)
(0.735168 0.0459346 -1.45519e-19)
(0.869053 0.0585589 -7.71488e-19)
(-0.00803756 0.0111999 -1.63258e-19)
(-0.0205064 0.0285208 8.28206e-20)
(-0.0297396 0.0416885 1.47331e-19)
(-0.0355113 0.0512 5.12483e-19)
(-0.037709 0.0575644 1.93067e-19)
(-0.0362496 0.0613008 -4.28915e-19)
(-0.0310456 0.0629114 -1.08257e-19)
(-0.021982 0.0628625 -5.68599e-20)
(-0.00889534 0.0615758 -1.87375e-19)
(0.00844147 0.0594256 -6.14145e-20)
(0.0303265 0.0567396 -1.27145e-19)
(0.0571287 0.0538025 4.64652e-19)
(0.0892776 0.0508618 5.55207e-19)
(0.127242 0.0481336 2.79616e-19)
(0.171494 0.0458077 -1.42865e-19)
(0.222456 0.0440498 -1.00219e-19)
(0.280431 0.0430033 2.20584e-19)
(0.345493 0.0427673 -4.9881e-20)
(0.417497 0.0435013 -3.66876e-21)
(0.495449 0.0448256 1.21303e-19)
(0.579557 0.0481752 -1.73875e-19)
(0.663292 0.0492917 -3.01803e-19)
(0.759599 0.0574322 -2.01832e-19)
(0.824445 0.0548345 2.54993e-19)
(0.953425 0.0689893 8.10885e-19)
(-0.00839288 0.0110635 1.30279e-19)
(-0.0212165 0.0280215 4.43107e-19)
(-0.0304064 0.0407804 1.77291e-19)
(-0.0357239 0.0498696 -1.57157e-19)
(-0.0370424 0.0558285 2.19315e-19)
(-0.0342646 0.0591995 2.41714e-19)
(-0.0272837 0.0605023 2.71196e-19)
(-0.0159565 0.0602174 -1.52579e-20)
(-8.1503e-05 0.0587792 2.13601e-19)
(0.0206151 0.056575 -6.5813e-19)
(0.0464835 0.0539467 3.72655e-19)
(0.0779439 0.051196 -1.98333e-19)
(0.115466 0.048589 -5.01717e-19)
(0.159535 0.0463615 -3.64644e-19)
(0.210593 0.0447213 5.9521e-19)
(0.268966 0.0438467 -2.04278e-19)
(0.334767 0.043883 -1.00774e-19)
(0.407772 0.0449136 7.77363e-20)
(0.48738 0.0470621 -3.93253e-19)
(0.572166 0.0499017 3.19778e-19)
(0.661279 0.0546559 -5.16116e-20)
(0.748949 0.057377 3.75091e-19)
(0.843968 0.0662859 4.34989e-19)
(0.909832 0.0648658 -1.49086e-19)
(1.02831 0.0794745 -2.97073e-19)
(-0.00874009 0.0109061 -6.79114e-20)
(-0.0218605 0.0274378 -2.51403e-19)
(-0.0309127 0.0397203 6.60151e-21)
(-0.0356455 0.048324 -1.27028e-19)
(-0.0359168 0.0538255 -3.74441e-19)
(-0.0316116 0.0567953 -1.93824e-19)
(-0.022598 0.0577739 1.06679e-19)
(-0.00869803 0.0572587 -3.33008e-19)
(0.0103345 0.0557 2.62923e-20)
(0.0348248 0.0535004 1.64204e-19)
(0.0651759 0.0510196 -4.72388e-19)
(0.101852 0.048578 -1.55558e-19)
(0.145342 0.0464622 4.01878e-19)
(0.19611 0.0449264 2.72039e-19)
(0.254507 0.0441915 -3.52358e-19)
(0.320677 0.044438 3.78904e-19)
(0.394429 0.0457951 1.5797e-19)
(0.475112 0.0483081 -3.98279e-20)
(0.561535 0.0520131 -3.43739e-20)
(0.65176 0.0564758 -3.39747e-19)
(0.743819 0.0624562 3.75138e-20)
(0.832921 0.0668035 -6.40353e-20)
(0.923376 0.0757512 -3.40565e-19)
(0.988263 0.0755437 -2.5051e-19)
(1.09179 0.0894519 -2.33531e-19)
(-0.0090769 0.0107282 -4.27052e-20)
(-0.0224242 0.0267726 -5.5859e-19)
(-0.0312246 0.038516 -3.45288e-19)
(-0.0352172 0.0465781 -4.40532e-19)
(-0.0342434 0.0515795 3.89637e-19)
(-0.0281667 0.054123 3.1419e-20)
(-0.0168248 0.054774 2.82852e-19)
(1.53844e-06 0.0540502 -2.58839e-19)
(0.0226082 0.0524205 4.3111e-19)
(0.0513735 0.0503066 1.61731e-19)
(0.0867472 0.0480881 1.32264e-20)
(0.12922 0.0461065 -2.54295e-20)
(0.179267 0.0446677 -8.98931e-20)
(0.237272 0.0440402 -7.8203e-20)
(0.303415 0.044448 8.38832e-20)
(0.377543 0.0460562 1.18799e-19)
(0.459034 0.0489509 -7.55717e-19)
(0.546677 0.0531099 4.73421e-20)
(0.6386 0.0584291 -1.24971e-19)
(0.732296 0.0644818 -1.15678e-19)
(0.824858 0.071425 5.81913e-20)
(0.912436 0.0771739 -3.76594e-19)
(0.995536 0.0854352 1.71056e-19)
(1.05728 0.0863398 2.169e-19)
(1.14299 0.0984303 -4.93508e-19)
(-0.00939965 0.0105293 9.9754e-20)
(-0.0228893 0.0260267 4.04279e-19)
(-0.0313021 0.0371735 3.49023e-20)
(-0.0343725 0.0446462 6.40064e-19)
(-0.0319237 0.0491152 -4.06446e-19)
(-0.0237946 0.0512206 3.98505e-19)
(-0.0097872 0.0515561 -3.57545e-19)
(0.0103637 0.0506637 1.40947e-19)
(0.0370061 0.0490343 -1.82165e-19)
(0.0705677 0.0471117 2.40559e-19)
(0.111531 0.0452977 3.99296e-19)
(0.160382 0.0439547 2.07045e-19)
(0.217531 0.0434045 8.29911e-20)
(0.283202 0.0439206 9.07159e-20)
(0.357295 0.0457127 -6.91176e-20)
(0.439237 0.0489049 -5.55711e-20)
(0.52784 0.0535057 6.16635e-19)
(0.62123 0.059389 2.02964e-19)
(0.716823 0.0662712 5.6228e-19)
(0.811568 0.0737145 1.4637e-20)
(0.901993 0.0812911 -3.54542e-19)
(0.985015 0.0879883 4.41654e-19)
(1.05875 0.0949307 5.56714e-19)
(1.11532 0.0968134 7.2081e-20)
(1.18196 0.106039 4.85573e-19)
(-0.00970307 0.0103073 -2.83018e-19)
(-0.0232337 0.0251985 1.56865e-19)
(-0.0310999 0.0356973 3.44889e-19)
(-0.0330369 0.042542 -1.35781e-19)
(-0.0288498 0.0464585 -4.0421e-19)
(-0.0183492 0.0481288 -2.98696e-20)
(-0.00129779 0.0481791 2.1896e-20)
(0.0226186 0.047179 3.926e-20)
(0.053798 0.0456451 -2.51951e-19)
(0.0927061 0.0440459 -1.06848e-19)
(0.139832 0.0428061 -3.72909e-19)
(0.195611 0.0423064 -9.24949e-21)
(0.260315 0.0428761 -1.04999e-19)
(0.333909 0.0447777 -3.18426e-20)
(0.415886 0.0481817 2.78642e-19)
(0.50512 0.0531369 -4.08427e-19)
(0.599747 0.0595346 1.72049e-19)
(0.697177 0.0671073 -2.72143e-19)
(0.794187 0.0753754 -4.0645e-19)
(0.887323 0.0838543 7.51412e-20)
(0.973018 0.0916888 7.56406e-19)
(1.04881 0.0987181 -3.83311e-19)
(1.11212 0.103921 1.66405e-20)
(1.16176 0.106686 3.32366e-19)
(1.2095 0.111948 1.86624e-19)
(-0.00997988 0.010059 1.33294e-19)
(-0.0234312 0.0242849 -1.89287e-19)
(-0.0305661 0.0340903 -4.0125e-19)
(-0.0311285 0.0402785 -2.13344e-19)
(-0.0249051 0.0436362 2.33294e-19)
(-0.0116761 0.0448914 7.94284e-20)
(0.00883798 0.0447068 4.64533e-19)
(0.036999 0.0436832 1.88537e-19)
(0.0732468 0.0423658 1.19267e-19)
(0.118064 0.0412493 5.56001e-20)
(0.171905 0.0407797 3.85512e-19)
(0.23509 0.041349 1.74437e-19)
(0.307658 0.0432799 -1.44506e-19)
(0.389192 0.0467999 2.06811e-19)
(0.47865 0.0520067 -1.19266e-19)
(0.57423 0.0588336 1.51513e-19)
(0.673332 0.0670153 -1.47103e-19)
(0.772687 0.076113 -3.20422e-19)
(0.868608 0.0854628 4.66038e-19)
(0.957512 0.0945107 -4.87398e-19)
(1.03619 0.102204 1.37855e-19)
(1.1028 0.108887 -1.59292e-19)
(1.15552 0.112275 -1.20364e-19)
(1.19679 0.115705 -9.92258e-19)
(1.22713 0.11566 1.58312e-19)
(-0.0102209 0.00978093 2.72579e-20)
(-0.0234505 0.0232816 1.35609e-19)
(-0.0296429 0.0323544 4.50163e-19)
(-0.0285583 0.0378688 -1.06201e-19)
(-0.0199659 0.0406765 -4.62896e-20)
(-0.00361426 0.0415555 8.61014e-20)
(0.0208175 0.0412082 7.67818e-20)
(0.0537335 0.0402702 -3.02768e-19)
(0.0955982 0.039317 -1.40692e-19)
(0.146877 0.038869 -4.34456e-19)
(0.207933 0.0393884 -3.28202e-19)
(0.278885 0.041266 -2.34181e-19)
(0.359422 0.0447958 2.09315e-19)
(0.448619 0.0501384 -3.05687e-19)
(0.544768 0.057278 -1.47248e-19)
(0.645317 0.0659899 -6.44694e-20)
(0.746943 0.0758212 -4.65751e-20)
(0.845845 0.0861519 9.59266e-19)
(0.93815 0.0961715 6.1064e-20)
(1.02051 0.105276 -8.44236e-20)
(1.09043 0.112427 -4.76447e-19)
(1.14685 0.118165 1.54873e-19)
(1.18946 0.120022 1.61617e-20)
(1.22135 0.123262 5.70378e-19)
(1.23745 0.116846 6.3876e-20)
(-0.0104156 0.00946882 2.15193e-19)
(-0.023256 0.0221828 -2.06944e-19)
(-0.0282661 0.0304911 -3.14307e-19)
(-0.0252307 0.0353268 3.15712e-19)
(-0.0139025 0.0376097 -7.05668e-20)
(0.00600041 0.0381715 -6.11999e-20)
(0.0348363 0.0377575 5.33042e-20)
(0.0730383 0.0370399 -7.63745e-20)
(0.121068 0.0366253 1.91708e-19)
(0.179325 0.0370559 1.24384e-19)
(0.248004 0.0387998 3.2234e-19)
(0.326915 0.0422274 -8.66744e-21)
(0.415273 0.0475739 2.64582e-19)
(0.51151 0.0548925 -1.77253e-20)
(0.613161 0.0640098 2.82747e-19)
(0.716911 0.0745068 8.23581e-20)
(0.818833 0.0857291 -5.31814e-19)
(0.914844 0.0968934 -2.59357e-19)
(1.00123 0.107106 -6.31226e-20)
(1.07525 0.115774 1.71359e-19)
(1.13537 0.122011 -8.13884e-20)
(1.18149 0.126428 -2.89293e-19)
(1.21475 0.127081 3.7974e-20)
(1.23705 0.128557 -2.67463e-19)
(1.24939 0.121842 -1.29448e-19)
(-0.0105509 0.00911771 1.31754e-19)
(-0.022808 0.020983 1.40689e-19)
(-0.0263664 0.0285023 2.57889e-19)
(-0.0210445 0.0326674 -1.87923e-19)
(-0.00658131 0.0344687 1.367e-20)
(0.0173323 0.0347942 3.76597e-19)
(0.0510821 0.034434 -1.07987e-19)
(0.0951089 0.034098 -3.60603e-19)
(0.149831 0.0344216 -2.13839e-19)
(0.215515 0.0359608 2.86085e-19)
(0.292091 0.0391731 -5.96478e-19)
(0.37894 0.044381 2.32768e-21)
(0.474667 0.0517221 -5.12864e-20)
(0.576955 0.0610971 3.79476e-19)
(0.682542 0.0721337 -2.06591e-19)
(0.787432 0.0841963 2.8396e-19)
(0.887314 0.0964412 2.87393e-19)
(0.978156 0.107971 -5.0771e-19)
(1.05677 0.117891 -2.11947e-19)
(1.12131 0.125698 -1.76173e-19)
(1.17132 0.130729 2.69054e-19)
(1.20772 0.133709 4.2658e-19)
(1.23244 0.133115 1.98779e-19)
(1.24759 0.133158 -1.76794e-19)
(1.2558 0.126129 -3.1939e-19)
(-0.010612 0.00872286 -3.11001e-20)
(-0.0220624 0.0196773 1.3161e-19)
(-0.0238693 0.0263915 -2.61655e-19)
(-0.0158943 0.0299083 -4.01927e-19)
(0.00213316 0.0312901 -5.96029e-19)
(0.0305421 0.0314829 1.01504e-19)
(0.0697294 0.0313223 -1.1993e-19)
(0.120111 0.0315549 1.7587e-19)
(0.182006 0.0328386 6.54328e-20)
(0.255463 0.0357299 1.26224e-19)
(0.340036 0.0406515 1.40459e-19)
(0.434542 0.0478418 -7.75729e-20)
(0.536859 0.0572957 -1.12315e-19)
(0.64385 0.0687155 -2.52495e-19)
(0.751503 0.0814999 7.70451e-20)
(0.85532 0.0947976 -3.01929e-19)
(0.950915 0.107618 1.11369e-19)
(1.03467 0.119024 7.18878e-20)
(1.10424 0.12821 -2.99578e-19)
(1.15883 0.134833 -3.23281e-19)
(1.19907 0.138492 -1.73216e-19)
(1.22672 0.140027 9.82666e-21)
(1.24424 0.138284 5.42157e-20)
(1.25378 0.137133 -1.74699e-19)