/*--------------------------------*- C++ -*----------------------------------*\
  =========                 |
  \\      /  F ield         | OpenFOAM: The Open Source CFD Toolbox
   \\    /   O peration     | Website:  https://openfoam.org
    \\  /    A nd           | Version:  7
     \\/     M anipulation  |
\*---------------------------------------------------------------------------*/
FoamFile
{
    version     2.0;
    format      ascii;
    class       volVectorField;
    location    "65";
    object      U;
}
// * * * * * * * * * * * * * * * * * * * * * * * * * * * * * * * * * * * * * //

dimensions      [0 1 -1 0 0 0 0];

internalField   nonuniform List<vector> 
1987
(
(-0.204925 0.00214941 -9.7098e-22)
(-0.2065 0.00171851 -2.79051e-21)
(-0.207868 0.00120308 1.71723e-22)
(-0.20903 0.000606057 8.90935e-22)
(-0.209978 -7.22402e-05 -1.95073e-21)
(-0.210715 -0.000832196 2.79752e-21)
(-0.211255 -0.00164453 -6.87216e-22)
(-0.211598 -0.00252204 -5.13395e-22)
(-0.211737 -0.00345441 -1.27793e-21)
(-0.211671 -0.00442918 -8.05144e-22)
(-0.211395 -0.00543067 3.85543e-21)
(-0.210908 -0.00644034 6.85187e-22)
(-0.210204 -0.00743689 -2.14424e-21)
(-0.20928 -0.00839645 9.65963e-22)
(-0.208129 -0.00929302 -1.06116e-21)
(-0.206746 -0.0100984 -7.37852e-22)
(-0.205125 -0.0107834 2.49528e-22)
(-0.203257 -0.0113185 2.55777e-21)
(-0.201134 -0.0116742 1.78145e-22)
(-0.198748 -0.011822 -2.01019e-21)
(-0.196088 -0.0117354 -1.27054e-21)
(-0.193146 -0.0113923 -5.47599e-22)
(-0.189911 -0.0107722 1.51963e-21)
(-0.186373 -0.00986131 -5.54776e-22)
(-0.18252 -0.00865189 -6.9656e-22)
(-0.178341 -0.00714279 1.85584e-21)
(-0.173826 -0.00534341 9.84222e-22)
(-0.168959 -0.00327301 -2.20795e-21)
(-0.163738 -0.000963302 5.16415e-22)
(-0.158151 0.00155322 1.79569e-21)
(-0.152182 0.00422721 -8.53381e-22)
(-0.145829 0.007012 3.79931e-22)
(-0.139083 0.00983139 -9.09792e-22)
(-0.131939 0.0126053 3.68017e-22)
(-0.124393 0.0152522 -6.84395e-22)
(-0.116444 0.0176877 6.70161e-22)
(-0.108089 0.0198162 -1.37391e-22)
(-0.0993248 0.0215558 8.64991e-23)
(-0.0901554 0.0228203 -4.53663e-22)
(-0.0805815 0.023535 1.7592e-22)
(-0.0706004 0.0236323 -2.7124e-22)
(-0.0602252 0.0230763 -1.50808e-22)
(-0.0494572 0.0218249 4.6459e-22)
(-0.0383125 0.0198797 -4.90435e-22)
(-0.0268119 0.017251 1.19708e-22)
(-0.0149687 0.0139798 -9.42596e-24)
(-0.00282247 0.0101348 1.4264e-22)
(0.00959288 0.00581237 -4.62053e-23)
(0.0222264 0.00112143 2.05168e-22)
(0.035028 -0.00382628 9.03177e-23)
(0.0479551 -0.00886739 -2.54172e-22)
(0.0609472 -0.0138604 -2.00926e-22)
(0.073949 -0.0186316 1.16539e-22)
(0.0869157 -0.0230287 -6.45694e-23)
(0.0998068 -0.0268997 1.57697e-22)
(0.112598 -0.030104 -2.39983e-22)
(-0.192796 0.00445926 -6.84731e-21)
(-0.195176 0.00417746 2.8053e-21)
(-0.197335 0.00384026 3.82973e-21)
(-0.19928 0.0034406 2.0045e-21)
(-0.201016 0.0029718 -9.8982e-21)
(-0.202544 0.00242828 3.13624e-21)
(-0.203866 0.00180559 7.99449e-22)
(-0.204985 0.00110393 -1.06068e-22)
(-0.205895 0.000325046 2.34962e-21)
(-0.206591 -0.000544733 -2.1917e-22)
(-0.207088 -0.00145687 -9.29256e-22)
(-0.207397 -0.00243327 -4.90353e-21)
(-0.207506 -0.00346297 4.30866e-21)
(-0.207413 -0.00453388 3.08219e-21)
(-0.207115 -0.00563061 -4.65027e-21)
(-0.206609 -0.00673492 2.49527e-21)
(-0.205892 -0.00782579 -2.0994e-21)
(-0.204961 -0.00887966 4.79691e-21)
(-0.203809 -0.00987076 -4.06059e-21)
(-0.202432 -0.0107713 1.48963e-21)
(-0.200823 -0.0115523 3.89089e-22)
(-0.198975 -0.0121844 -5.55206e-22)
(-0.19688 -0.0126384 2.5296e-21)
(-0.19453 -0.012886 1.53693e-22)
(-0.191913 -0.0129008 -3.82989e-21)
(-0.189022 -0.0126604 3.31049e-21)
(-0.185843 -0.0121448 -3.41596e-22)
(-0.182366 -0.0113401 -1.81408e-21)
(-0.178578 -0.0102389 -3.38728e-22)
(-0.174465 -0.00883978 2.93254e-21)
(-0.170014 -0.0071509 -3.7604e-21)
(-0.165209 -0.00518834 2.14124e-21)
(-0.160043 -0.00298506 -4.54067e-22)
(-0.1545 -0.000570877 7.00349e-22)
(-0.148556 0.00198036 -2.442e-21)
(-0.142205 0.00463501 4.06984e-21)
(-0.13544 0.00733703 -8.02109e-22)
(-0.128248 0.00999701 -8.19047e-22)
(-0.12062 0.0125316 7.54005e-22)
(-0.112553 0.0148583 -1.69326e-22)
(-0.104038 0.0168793 3.73192e-22)
(-0.0950717 0.0185158 2.21859e-22)
(-0.0856571 0.0196808 -1.71006e-21)
(-0.0757955 0.0203003 -1.25491e-21)
(-0.0654843 0.0203053 -4.55923e-23)
(-0.0547424 0.0196659 2.3966e-21)
(-0.0435772 0.0183349 -1.9735e-21)
(-0.0320116 0.0163212 2.47966e-21)
(-0.0200777 0.0136293 -5.56159e-22)
(-0.00779856 0.0103098 -1.29558e-23)
(0.00477422 0.0064454 -5.68418e-22)
(0.0175903 0.00213567 7.69707e-22)
(0.0305797 -0.00259983 -8.22848e-22)
(0.0436823 -0.00754056 7.63728e-22)
(0.056842 -0.0125568 -4.54183e-22)
(0.0699825 -0.0175027 -3.84624e-24)
(0.0830369 -0.0222151 2.76291e-22)
(0.0959497 -0.0265414 -3.67241e-22)
(0.108674 -0.0303336 2.01246e-23)
(0.121182 -0.0334556 1.12242e-22)
(-0.18556 0.00574335 -3.42315e-21)
(-0.187833 0.00533051 -6.07392e-21)
(-0.18989 0.00486921 6.92955e-21)
(-0.191738 0.0043509 -1.34262e-20)
(-0.193378 0.00376791 7.90761e-21)
(-0.194814 0.00311384 -7.86273e-21)
(-0.196048 0.00238427 8.82895e-21)
(-0.197079 0.00157856 -3.97031e-21)
(-0.197909 0.000695044 5.51944e-21)
(-0.19852 -0.000267681 -1.14047e-20)
(-0.198932 -0.00127794 8.67636e-22)
(-0.199165 -0.00235215 1.31601e-20)
(-0.199201 -0.00347797 -3.48246e-21)
(-0.199039 -0.00464363 6.69787e-21)
(-0.198676 -0.00583411 -6.59867e-22)
(-0.19811 -0.00703151 -2.26669e-21)
(-0.197337 -0.00821514 -1.14664e-20)
(-0.196355 -0.00936175 8.58682e-21)
(-0.195159 -0.0104459 -1.81316e-21)
(-0.193744 -0.01144 -7.21609e-22)
(-0.192104 -0.0123156 -3.10621e-22)
(-0.190233 -0.0130435 -9.18384e-22)
(-0.188122 -0.0135947 7.87517e-21)
(-0.185763 -0.013941 -1.19261e-20)
(-0.183146 -0.0140564 4.03682e-21)
(-0.18026 -0.0139185 2.40544e-21)
(-0.177094 -0.0135074 3.24064e-21)
(-0.173635 -0.0128092 -1.73417e-21)
(-0.169868 -0.0118171 2.63932e-21)
(-0.165778 -0.0105293 -1.06642e-20)
(-0.161349 -0.00895422 9.28939e-21)
(-0.156563 -0.00710796 -2.82521e-21)
(-0.151408 -0.00501944 2.6074e-21)
(-0.145872 -0.00271408 -1.5378e-21)
(-0.139925 -0.000257311 -5.44525e-21)
(-0.133543 0.00226206 -1.95795e-21)
(-0.126722 0.00482273 3.01176e-21)
(-0.119453 0.00735507 1.36305e-21)
(-0.111716 0.00976684 -1.91477e-21)
(-0.103506 0.0119752 2.14816e-21)
(-0.0948124 0.0138785 1.75928e-21)
(-0.0856282 0.0154019 -8.11851e-22)
(-0.0759569 0.0164582 -4.64202e-21)
(-0.0658014 0.0169747 2.51054e-21)
(-0.055158 0.0168798 -2.72348e-21)
(-0.0440524 0.0161526 3.32755e-21)
(-0.0324981 0.0147375 -1.28585e-21)
(-0.0205247 0.0126558 -1.9574e-21)
(-0.00817482 0.00990256 4.07938e-21)
(0.00452279 0.00656056 5.50066e-22)
(0.0175047 0.0027067 6.33264e-22)
(0.0306769 -0.00165812 -3.02317e-21)
(0.0439825 -0.00639259 1.75974e-21)
(0.0573644 -0.0113026 -2.44255e-22)
(0.0707232 -0.0162695 -2.1134e-21)
(0.0839776 -0.0211464 1.93523e-21)
(0.0970503 -0.0257747 1.38012e-21)
(0.109875 -0.0300039 -1.99551e-21)
(0.1224 -0.0336907 -6.50115e-22)
(0.134591 -0.0367044 -7.00008e-22)
(-0.176916 0.00642306 2.5851e-21)
(-0.178826 0.0058413 3.66196e-21)
(-0.18053 0.00520783 -1.88831e-20)
(-0.182033 0.00451397 2.17298e-21)
(-0.183335 0.00375253 -2.33326e-21)
(-0.184438 0.00291867 2.91256e-20)
(-0.185343 0.00201087 -3.7119e-20)
(-0.186049 0.0010293 1.65843e-21)
(-0.186536 -1.97333e-05 5.85325e-21)
(-0.186826 -0.00113054 3.52396e-21)
(-0.186943 -0.0023007 -1.99498e-21)
(-0.186867 -0.00352063 -5.01887e-21)
(-0.186596 -0.00477902 -2.99938e-21)
(-0.186128 -0.00606125 1.4212e-20)
(-0.185461 -0.00734979 -1.23853e-20)
(-0.184593 -0.00862428 1.61468e-20)
(-0.183521 -0.00986179 -8.5427e-21)
(-0.18224 -0.0110372 -5.59886e-21)
(-0.180747 -0.0121233 2.11494e-21)
(-0.179036 -0.0130918 1.99085e-20)
(-0.1771 -0.013914 -1.0145e-20)
(-0.174932 -0.0145609 1.10926e-21)
(-0.172524 -0.015005 -1.0972e-20)
(-0.169865 -0.0152202 3.0486e-21)
(-0.166944 -0.0151842 -2.14855e-21)
(-0.163749 -0.0148776 -3.93014e-21)
(-0.160267 -0.0142862 6.54428e-21)
(-0.156481 -0.0134043 2.02491e-21)
(-0.152373 -0.0122294 -1.54761e-21)
(-0.147927 -0.0107702 2.23553e-21)
(-0.143123 -0.0090433 5.73673e-21)
(-0.137942 -0.00707703 -7.3116e-21)
(-0.132368 -0.00490031 7.65917e-21)
(-0.126385 -0.00255075 -1.08155e-20)
(-0.119957 -0.000120006 5.93685e-21)
(-0.113054 0.00230108 2.37963e-23)
(-0.105676 0.00467943 8.2198e-22)
(-0.0978065 0.00694954 -1.42684e-21)
(-0.0894363 0.00903355 -3.99068e-21)
(-0.0805502 0.0108098 8.82357e-21)
(-0.0711387 0.0122115 -5.5748e-21)
(-0.0612058 0.0131516 1.51018e-21)
(-0.0507574 0.0135592 -2.31806e-21)
(-0.0397874 0.013357 -2.5041e-21)
(-0.0283291 0.0125387 4.24734e-21)
(-0.0164019 0.0110389 -3.47958e-21)
(-0.00404137 0.00889496 1.05957e-21)
(0.00870471 0.00610077 2.84072e-21)
(0.021799 0.00277122 -2.59057e-21)
(0.0351298 -0.00116072 3.91824e-21)
(0.0486258 -0.00556867 -2.95728e-22)
(0.0622332 -0.0102425 -1.43814e-21)
(0.0758486 -0.0151019 9.23629e-23)
(0.0893697 -0.0199984 -2.56686e-21)
(0.102703 -0.0247835 1.22296e-21)
(0.115761 -0.0293028 7.16911e-22)
(0.128467 -0.0334092 -1.31533e-21)
(0.140764 -0.0369645 1.78205e-21)
(0.152613 -0.039844 -1.92514e-21)
(-0.162438 0.00743247 7.2924e-21)
(-0.16416 0.00673469 1.66494e-20)
(-0.165682 0.00599028 3.29417e-21)
(-0.167008 0.00518958 7.61588e-21)
(-0.168139 0.00432459 -3.70617e-20)
(-0.169074 0.00338987 1.83859e-20)
(-0.169814 0.00238351 -6.1704e-21)
(-0.170358 0.00130817 1.45905e-21)
(-0.170688 0.000179221 2.72014e-22)
(-0.170825 -0.00103434 1.78443e-20)
(-0.170789 -0.00229786 -4.16803e-20)
(-0.170565 -0.00360931 3.16912e-20)
(-0.170149 -0.00495797 3.88019e-21)
(-0.169541 -0.0063296 -2.65802e-20)
(-0.168739 -0.00770702 1.48943e-20)
(-0.16774 -0.0090702 1.51895e-20)
(-0.166542 -0.0103965 -1.25975e-20)
(-0.165142 -0.0116612 1.63033e-21)
(-0.163534 -0.0128374 -2.76399e-21)
(-0.161716 -0.0138971 -1.66098e-20)
(-0.15968 -0.0148119 -5.69823e-21)
(-0.157419 -0.0155532 1.49798e-20)
(-0.154925 -0.0160936 6.0694e-21)
(-0.152187 -0.0164076 1.06631e-20)
(-0.149194 -0.0164728 -1.4771e-20)
(-0.145934 -0.0162704 -2.52948e-21)
(-0.142392 -0.0157859 -6.16813e-21)
(-0.138551 -0.0150149 -5.46248e-21)
(-0.134391 -0.013954 1.91817e-20)
(-0.129894 -0.0126126 -1.68675e-20)
(-0.125038 -0.0110072 1.19689e-20)
(-0.119801 -0.00916553 1.96124e-21)
(-0.114161 -0.00712092 1.62727e-21)
(-0.108099 -0.00491375 -1.03283e-20)
(-0.101594 -0.00258917 4.36269e-21)
(-0.094607 -0.000255174 3.25824e-21)
(-0.0871078 0.00199903 4.01039e-21)
(-0.0790825 0.00409205 -1.40531e-20)
(-0.0705372 0.00603635 9.86828e-21)
(-0.0614526 0.00766925 -8.88605e-21)
(-0.0518113 0.00894334 8.70751e-21)
(-0.0416194 0.00976217 -1.12662e-20)
(-0.0308876 0.0100558 1.27655e-20)
(-0.0196047 0.00973992 -6.05119e-21)
(-0.00781153 0.00882901 4.57406e-21)
(0.00446489 0.00726845 -5.52042e-21)
(0.0171886 0.0050674 -1.65915e-21)
(0.0303047 0.00229075 -3.10547e-21)
(0.0437297 -0.00115909 1.0895e-20)
(0.0573698 -0.00515237 -3.43707e-21)
(0.0711737 -0.00950655 -2.0743e-21)
(0.0850334 -0.014137 1.68944e-21)
(0.0988405 -0.018929 -1.50364e-21)
(0.112484 -0.0237345 1.38718e-21)
(0.12586 -0.0284058 -8.83124e-22)
(0.13887 -0.0327924 -4.10243e-23)
(0.15143 -0.0367514 3.30078e-23)
(0.163475 -0.0401502 -5.99383e-22)
(0.174963 -0.0428706 3.40408e-22)
(-0.144413 0.00833971 8.05662e-21)
(-0.145912 0.00753119 -2.15215e-20)
(-0.147218 0.00668077 2.09827e-20)
(-0.148334 0.00577787 -3.86251e-21)
(-0.149261 0.00481363 -1.56125e-20)
(-0.149997 0.00378188 2.022e-20)
(-0.150542 0.00268024 -3.30227e-20)
(-0.150891 0.00151185 4.44753e-20)
(-0.151036 0.000290718 -1.47834e-20)
(-0.150994 -0.00100746 -2.5624e-20)
(-0.150774 -0.00235914 2.1051e-20)
(-0.150372 -0.00375891 -1.25919e-20)
(-0.149783 -0.00519502 4.64938e-21)
(-0.149005 -0.00665341 -9.07069e-21)
(-0.148038 -0.0081172 1.10155e-20)
(-0.146879 -0.00956668 1.49227e-20)
(-0.145526 -0.0109796 -7.14135e-21)
(-0.143976 -0.0123313 6.71025e-21)
(-0.142225 -0.0135955 -4.93383e-21)
(-0.140269 -0.0147445 -4.30385e-23)
(-0.138103 -0.0157501 7.21691e-21)
(-0.135718 -0.0165841 -1.09619e-20)
(-0.133108 -0.0172195 1.4661e-20)
(-0.130261 -0.017631 -1.46566e-20)
(-0.127167 -0.0177966 2.97853e-21)
(-0.123811 -0.0176977 3.63152e-21)
(-0.120179 -0.0173197 -1.14459e-20)
(-0.116253 -0.0166598 4.19834e-21)
(-0.112012 -0.0157137 -1.49741e-21)
(-0.107436 -0.0144912 -9.98516e-22)
(-0.102501 -0.0130088 -7.47194e-21)
(-0.0971822 -0.0112939 1.07306e-20)
(-0.0914555 -0.00938073 4.267e-21)
(-0.0852961 -0.00731401 3.95427e-21)
(-0.0786784 -0.00514614 -1.05544e-20)
(-0.071577 -0.00292391 1.1082e-20)
(-0.0639697 -0.000756162 -2.64821e-21)
(-0.0557938 0.0012868 -1.05811e-20)
(-0.0470626 0.00301243 6.10006e-21)
(-0.0377769 0.00447939 7.05063e-21)
(-0.0279088 0.00561694 -2.58471e-21)
(-0.0174687 0.00630799 -1.44101e-21)
(-0.00647134 0.00647515 -8.96791e-21)
(0.00510222 0.0060685 3.10999e-21)
(0.0172114 0.00506041 4.20815e-21)
(0.0298056 0.00345941 -2.60917e-21)
(0.0428634 0.00118515 2.28334e-21)
(0.0562719 -0.00169452 -2.59281e-21)
(0.069977 -0.00522561 -6.7421e-23)
(0.083918 -0.00917247 6.35264e-22)
(0.0979733 -0.0134887 1.95987e-22)
(0.112036 -0.0180644 5.59504e-22)
(0.125989 -0.0227722 3.44917e-22)
(0.139714 -0.0274677 2.35691e-21)
(0.153094 -0.0320046 -5.94961e-21)
(0.166022 -0.0362365 3.86123e-21)
(0.178409 -0.0400254 -3.68666e-21)
(0.190181 -0.0432444 2.03118e-21)
(0.201294 -0.0457825 -5.91487e-22)
(-0.122847 0.00912958 -4.51028e-21)
(-0.124095 0.00821634 6.3243e-21)
(-0.12516 0.00726544 2.63414e-20)
(-0.126041 0.00626555 8.51226e-22)
(-0.12674 0.00520686 -3.45856e-20)
(-0.127253 0.00408234 7.23337e-21)
(-0.12758 0.00288893 2.19021e-22)
(-0.127713 0.00162869 2.21122e-20)
(-0.127646 0.000312287 -5.22631e-22)
(-0.127399 -0.00105992 -2.18338e-22)
(-0.126977 -0.00249607 -3.71505e-20)
(-0.126375 -0.00398087 3.47167e-21)
(-0.12559 -0.00550133 8.29412e-21)
(-0.124621 -0.00704356 1.23821e-20)
(-0.123466 -0.00859096 1.75535e-20)
(-0.122125 -0.0101241 -9.02047e-21)
(-0.120594 -0.0116211 -6.49654e-21)
(-0.118872 -0.0130576 1.13606e-20)
(-0.116956 -0.0144076 -2.65755e-20)
(-0.11484 -0.0156438 1.03393e-20)
(-0.112521 -0.0167382 -6.21532e-21)
(-0.109991 -0.0176631 1.28836e-20)
(-0.107241 -0.0183918 -1.1629e-20)
(-0.104263 -0.0188995 -1.25627e-21)
(-0.101044 -0.0191642 -3.46281e-21)
(-0.0975687 -0.019168 -2.11066e-21)
(-0.0938253 -0.0188957 4.93654e-21)
(-0.089793 -0.0183467 -5.98032e-21)
(-0.0854494 -0.0175155 1.14919e-20)
(-0.0807736 -0.0164124 1.07303e-20)
(-0.0757399 -0.0150542 -6.48787e-21)
(-0.0703221 -0.0134677 -4.95412e-21)
(-0.0644923 -0.0116875 6.58472e-21)
(-0.0582249 -0.00975693 -5.74011e-23)
(-0.0514887 -0.00773834 -1.08433e-20)
(-0.0442537 -0.00568179 1.32655e-21)
(-0.0364872 -0.00365065 7.50242e-21)
(-0.0281928 -0.00169961 -7.81028e-21)
(-0.0193269 -6.81433e-05 2.78169e-21)
(-0.00982647 0.00133578 -2.88834e-21)
(0.000259661 0.00230124 1.45634e-20)
(0.0109277 0.00284089 -8.21543e-21)
(0.0221736 0.00288421 6.74304e-21)
(0.0340088 0.00240964 1.66806e-21)
(0.0463967 0.00127672 -3.92276e-21)
(0.0592653 -0.000466283 7.51553e-21)
(0.0725739 -0.00284033 -1.03835e-20)
(0.0862482 -0.00583476 1.08828e-20)
(0.100219 -0.00930793 -7.75678e-21)
(0.114389 -0.0132299 -1.51448e-21)
(0.128639 -0.0175048 1.7943e-21)
(0.142851 -0.0220105 -2.49715e-21)
(0.156901 -0.0266187 2.84315e-21)
(0.170659 -0.0311868 3.05659e-21)
(0.184002 -0.0355708 -2.3003e-22)
(0.196815 -0.0396283 2.89397e-22)
(0.209 -0.0432264 -7.12539e-21)
(0.220481 -0.0462446 4.15633e-21)
(0.231209 -0.0485792 6.74927e-22)
(-0.0977309 0.00979184 3.34519e-20)
(-0.0987124 0.00878044 -8.55491e-20)
(-0.0995188 0.00773507 4.41817e-20)
(-0.10015 0.00664377 1.87202e-21)
(-0.100605 0.00549587 -5.23779e-20)
(-0.100881 0.00428327 5.58765e-20)
(-0.100975 0.00300238 -3.54818e-20)
(-0.100878 0.00165647 2.37122e-20)
(-0.100584 0.000269447 3.11756e-21)
(-0.100119 -0.00119576 -5.36297e-20)
(-0.0994819 -0.00271605 6.23881e-20)
(-0.0986662 -0.0042826 1.07549e-20)
(-0.0976712 -0.00588411 -2.16638e-20)
(-0.0964962 -0.00750703 1.74008e-20)
(-0.0951404 -0.00913512 -2.34725e-20)
(-0.0936025 -0.0107492 6.40855e-21)
(-0.0918807 -0.0123277 -1.18025e-20)
(-0.0899731 -0.0138465 -1.07546e-20)
(-0.0878767 -0.0152799 4.94161e-20)
(-0.0855877 -0.016601 -1.64272e-20)
(-0.0831012 -0.0177821 2.47436e-21)
(-0.0804108 -0.018796 -1.07754e-20)
(-0.0775084 -0.0196162 -3.94917e-20)
(-0.0743841 -0.0202183 6.10449e-20)
(-0.0710263 -0.020581 -2.2345e-20)
(-0.0674187 -0.0206865 -1.29961e-21)
(-0.0635496 -0.0205183 -2.2609e-20)
(-0.0593978 -0.0200797 1.80912e-20)
(-0.0549389 -0.0193631 -7.23614e-21)
(-0.0501517 -0.0183793 1.20079e-20)
(-0.0450092 -0.0171455 -1.22607e-21)
(-0.039483 -0.0156883 2.66884e-21)
(-0.0335425 -0.0140422 -1.91663e-20)
(-0.0271622 -0.0122482 1.55776e-20)
(-0.0203085 -0.0103733 -7.75308e-21)
(-0.0129464 -0.00847052 -1.61736e-21)
(-0.00504416 -0.00660898 -4.04291e-21)
(0.00340831 -0.00487867 1.48765e-20)
(0.0124499 -0.00329716 -1.109e-20)
(0.0220953 -0.00200382 1.08401e-20)
(0.0323403 -0.00115934 -1.22496e-21)
(0.04322 -0.000739805 -7.87937e-21)
(0.0546937 -0.00081762 2.80464e-21)
(0.0667432 -0.00142052 -1.27834e-21)
(0.079335 -0.00266492 -5.98634e-21)
(0.0924309 -0.00452493 8.56383e-21)
(0.105973 -0.00696086 1.02856e-21)
(0.119867 -0.00994553 -3.65563e-21)
(0.134035 -0.0134163 1.01427e-21)
(0.148372 -0.0173155 -5.01521e-21)
(0.162756 -0.0215369 -1.63641e-22)
(0.17706 -0.0259597 6.75559e-22)
(0.19115 -0.0304542 1.21003e-21)
(0.204891 -0.0348796 3.22676e-21)
(0.218152 -0.0390943 -1.98827e-21)
(0.230812 -0.0429603 -6.8052e-22)
(0.242768 -0.0463496 5.6052e-24)
(0.253939 -0.0491487 -1.54896e-21)
(0.264272 -0.0512614 9.90135e-22)
(-0.0690356 0.0103225 1.59717e-20)
(-0.0697466 0.0092199 1.35265e-21)
(-0.0702915 0.0080863 3.17186e-22)
(-0.070669 0.00690936 -7.70422e-21)
(-0.0708769 0.00567763 3.43092e-21)
(-0.0709119 0.00438184 -4.11971e-20)
(-0.07077 0.00301791 6.82806e-20)
(-0.0704329 0.00159031 -4.96508e-20)
(-0.069915 0.000138437 -5.74662e-21)
(-0.0692333 -0.00142243 7.25343e-21)
(-0.0683722 -0.00302256 1.168e-20)
(-0.0673378 -0.00466713 2.77841e-20)
(-0.0661283 -0.0063462 -8.90485e-21)
(-0.064743 -0.00804656 -1.28432e-20)
(-0.0631814 -0.00975222 4.07582e-20)
(-0.0614425 -0.0114443 -1.57656e-20)
(-0.0595249 -0.0131015 -2.95188e-20)
(-0.0574269 -0.0146999 3.67307e-20)
(-0.0551459 -0.0162143 4.00558e-21)
(-0.0526786 -0.0176179 -2.34704e-20)
(-0.0500203 -0.0188836 1.3734e-20)
(-0.0471649 -0.0199843 -4.37548e-20)
(-0.0441047 -0.020894 4.52024e-20)
(-0.0408298 -0.0215889 -2.40616e-20)
(-0.0373289 -0.0220479 -2.24355e-20)
(-0.0335838 -0.0222538 2.24534e-20)
(-0.0295844 -0.0221882 -1.74537e-20)
(-0.0253099 -0.0218589 2.46487e-21)
(-0.0207327 -0.021256 3.6032e-20)
(-0.015832 -0.0203909 -2.06023e-20)
(-0.0105796 -0.0192807 4.12478e-21)
(-0.00494552 -0.0179517 -2.07561e-20)
(0.00110403 -0.016439 2.17124e-20)
(0.00759311 -0.0147892 1.74933e-20)
(0.0145571 -0.013055 -2.6614e-20)
(0.0220353 -0.0112981 1.20133e-20)
(0.0300572 -0.00958811 5.55689e-21)
(0.0386424 -0.00801278 -3.04823e-20)
(0.0478227 -0.00661726 1.82545e-20)
(0.0576132 -0.00552833 1.05688e-20)
(0.0680156 -0.00477482 -6.68592e-21)
(0.0790523 -0.00446175 -6.25988e-21)
(0.0906916 -0.0046624 9.49637e-21)
(0.102914 -0.00540461 -1.49499e-22)
(0.115684 -0.00672071 -6.48524e-21)
(0.128953 -0.00860584 5.20588e-21)
(0.142659 -0.0110726 -8.70281e-22)
(0.156706 -0.0140723 2.25073e-21)
(0.171004 -0.0175424 -3.15757e-21)
(0.185443 -0.0214086 -4.00793e-21)
(0.199895 -0.0255661 7.51634e-21)
(0.214226 -0.0298944 -4.3726e-22)
(0.228296 -0.0342629 -4.2737e-21)
(0.241964 -0.0385324 -1.3531e-21)
(0.255093 -0.0425641 3.07498e-21)
(0.267559 -0.046224 1.64812e-21)
(0.279254 -0.0493898 -9.61649e-22)
(0.290094 -0.0519546 -1.97469e-21)
(0.300025 -0.0538299 2.30946e-21)
(-0.0367053 0.0107251 -3.99963e-20)
(-0.0371585 0.00953809 6.17258e-20)
(-0.0374539 0.00832236 -6.93506e-20)
(-0.037589 0.00706541 1.5863e-20)
(-0.0375607 0.00575517 5.88992e-20)
(-0.0373645 0.00438112 -4.74911e-20)
(-0.0369963 0.00293812 -4.5603e-20)
(-0.0364261 0.00142909 -4.53087e-21)
(-0.0356937 -0.000108919 6.95369e-20)
(-0.0348049 -0.00174094 5.89695e-21)
(-0.0337256 -0.00341372 -2.91768e-21)
(-0.0324792 -0.00513232 1.89103e-20)
(-0.0310614 -0.00688542 -7.32218e-20)
(-0.0294719 -0.0086599 4.49819e-20)
(-0.0277103 -0.01044 1.17228e-20)
(-0.025776 -0.0122071 -4.05545e-20)
(-0.0236681 -0.0139401 2.37584e-20)
(-0.0213849 -0.0156156 -5.75071e-21)
(-0.0189247 -0.0172083 -9.34751e-21)
(-0.0162841 -0.0186921 1.0186e-20)
(-0.0134591 -0.02004 -1.77791e-20)
(-0.0104438 -0.0212254 1.29405e-20)
(-0.00723097 -0.0222226 2.41646e-20)
(-0.00381071 -0.023008 -3.43146e-20)
(-0.000172084 -0.0235609 -5.01984e-21)
(0.00370505 -0.0238627 2.17947e-20)
(0.00782948 -0.023905 1.43839e-20)
(0.0122201 -0.0236816 -1.99677e-20)
(0.0169088 -0.023191 -1.9009e-21)
(0.0219154 -0.0224433 2.87911e-20)
(0.0272692 -0.0214558 -3.19942e-20)
(0.033001 -0.0202542 3.05907e-20)
(0.0391452 -0.0188745 -4.1904e-20)
(0.04573 -0.0173679 3.20363e-20)
(0.0527903 -0.0157736 -2.05294e-20)
(0.060365 -0.0141619 1.59889e-20)
(0.0684851 -0.0125993 -6.83567e-22)
(0.0771739 -0.0111679 4.19504e-21)
(0.0864615 -0.00992786 -2.69822e-20)
(0.0963649 -0.00898053 8.44481e-21)
(0.106886 -0.00837289 9.18376e-21)
(0.118039 -0.0081943 -7.39182e-22)
(0.129798 -0.00850591 4.88839e-21)
(0.142143 -0.00934184 -1.65747e-20)
(0.155032 -0.0107356 -3.40848e-21)
(0.168412 -0.0126829 2.4009e-21)
(0.182214 -0.0151881 1.03948e-20)
(0.196343 -0.0182034 -1.13639e-20)
(0.2107 -0.0216628 8.30814e-21)
(0.22517 -0.0254873 8.60237e-21)
(0.239618 -0.029572 -2.12386e-20)
(0.253907 -0.0337957 1.05558e-20)
(0.267891 -0.0380275 -1.61898e-21)
(0.281425 -0.0421302 -3.07275e-21)
(0.294369 -0.0459676 2.29582e-21)
(0.306595 -0.0494101 1.90642e-21)
(0.317994 -0.0523407 1.29002e-22)
(0.328479 -0.0546593 -3.07743e-21)
(0.337996 -0.0562853 2.56834e-21)
(-0.000653177 0.0110108 8.41903e-20)
(-0.000881011 0.00974539 -2.8998e-20)
(-0.000957786 0.00845268 -1.13747e-20)
(-0.000879568 0.00712073 -6.59053e-21)
(-0.000642531 0.0057373 5.95979e-20)
(-0.000241266 0.00429094 -4.68427e-20)
(0.000327082 0.00277265 4.13366e-20)
(0.00110221 0.0011877 -5.1951e-20)
(0.00203261 -0.000443201 -1.53717e-20)
(0.00311354 -0.00213555 -1.99748e-20)
(0.00438662 -0.00387892 1.53782e-20)
(0.00582528 -0.00566848 4.59044e-21)
(0.00743288 -0.00749268 -1.20621e-20)
(0.00920893 -0.00933843 7.87036e-21)
(0.0111533 -0.0111902 1.8994e-20)
(0.0132662 -0.0130297 3.67265e-20)
(0.0155483 -0.014836 -4.27908e-20)
(0.0180005 -0.016586 4.73446e-20)
(0.0206244 -0.0182547 -3.90821e-20)
(0.0234226 -0.0198163 -2.0508e-20)
(0.026399 -0.0212443 1.70597e-20)
(0.0295589 -0.0225122 -1.42034e-20)
(0.0329093 -0.0235949 1.10039e-20)
(0.03646 -0.0244688 6.20275e-21)
(0.0402217 -0.0251136 -4.15356e-21)
(0.0442128 -0.0255101 1.21774e-20)
(0.0484462 -0.0256585 -3.00422e-20)
(0.052939 -0.0255392 1.48284e-20)
(0.0577217 -0.0251595 -2.19001e-20)
(0.0628164 -0.024528 2.0402e-20)
(0.0682529 -0.0236622 7.79433e-21)
(0.0740626 -0.0225878 2.34922e-20)
(0.0802802 -0.0213404 -2.6496e-20)
(0.0869368 -0.0199685 2.22123e-20)
(0.0940676 -0.0185158 5.00804e-22)
(0.101711 -0.0170483 -8.33848e-21)
(0.109899 -0.015632 -1.14659e-20)
(0.118657 -0.0143445 2.60457e-21)
(0.128014 -0.013249 -5.75776e-21)
(0.137987 -0.0124381 -1.00071e-20)
(0.148578 -0.0119689 1.24074e-20)
(0.159799 -0.0119162 -9.01411e-21)
(0.171625 -0.0123374 1.31025e-20)
(0.184031 -0.0132681 -4.81978e-21)
(0.196974 -0.0147409 -7.58699e-21)
(0.210397 -0.0167499 1.92033e-20)
(0.224225 -0.0192893 -1.20056e-20)
(0.238362 -0.0223131 4.79911e-24)
(0.252702 -0.0257538 1.2163e-20)
(0.267125 -0.029529 -1.28e-20)
(0.281493 -0.0335324 5.775e-21)
(0.295665 -0.0376428 2.3132e-21)
(0.309492 -0.0417293 -4.11591e-21)
(0.322825 -0.0456565 -8.89184e-21)
(0.335525 -0.049291 3.92254e-21)
(0.347461 -0.0525076 1.17808e-20)
(0.358524 -0.0551948 -8.88076e-21)
(0.368627 -0.057259 6.90563e-21)
(0.377714 -0.0586272 -1.90813e-21)
(0.0392395 0.0112056 3.02948e-20)
(0.0391804 0.00986668 -6.90509e-20)
(0.0392691 0.00850106 3.47715e-20)
(0.0395108 0.00709776 1.01569e-20)
(0.0399098 0.0056448 -5.37739e-21)
(0.0404713 0.00412988 4.69759e-21)
(0.0411977 0.00254015 -7.47929e-21)
(0.0421348 0.000882834 -2.82824e-20)
(0.0432256 -0.000831884 -1.86024e-21)
(0.0444663 -0.00259241 6.65244e-20)
(0.045897 -0.00440517 -1.03397e-20)
(0.0474951 -0.00626336 -5.44713e-20)
(0.0492608 -0.00815619 5.1204e-20)
(0.051193 -0.0100706 -2.30106e-20)
(0.0532907 -0.0119916 -2.43291e-20)
(0.0555538 -0.0139009 9.70065e-21)
(0.0579821 -0.0157781 1.21118e-20)
(0.0605762 -0.0176002 2.57743e-20)
(0.0633371 -0.0193426 -2.74133e-21)
(0.0662669 -0.0209797 -1.94278e-20)
(0.0693689 -0.0224854 -7.61403e-22)
(0.0726479 -0.0238337 4.101e-21)
(0.0761107 -0.0249998 -1.93595e-21)
(0.0797664 -0.0259604 9.94585e-21)
(0.083626 -0.0266959 -1.33451e-20)
(0.0877061 -0.027188 1.08472e-21)
(0.0920223 -0.027434 -4.5879e-21)
(0.0965911 -0.0274191 -9.51889e-21)
(0.101441 -0.0271489 3.05997e-20)
(0.106597 -0.026632 -8.86443e-21)
(0.112088 -0.0258862 -3.18535e-21)
(0.117946 -0.0249371 2.83621e-20)
(0.124206 -0.02382 -3.29451e-20)
(0.130902 -0.0225814 -1.18732e-20)
(0.138068 -0.0212679 1.0128e-20)
(0.145743 -0.019942 8.57019e-21)
(0.153959 -0.0186692 -4.58366e-21)
(0.162743 -0.0175237 -1.38264e-20)
(0.172124 -0.0165704 2.97694e-20)
(0.182117 -0.0158955 -1.68982e-20)
(0.192726 -0.0155565 -6.89188e-21)
(0.203957 -0.0156237 6.88823e-21)
(0.215788 -0.0161516 2.16638e-20)
(0.22819 -0.017175 -3.19786e-20)
(0.241117 -0.0187205 2.19177e-20)
(0.254509 -0.0207834 -4.49341e-21)
(0.268287 -0.0233507 2.66621e-21)
(0.282353 -0.0263762 -3.7303e-21)
(0.296595 -0.029791 -5.74507e-21)
(0.31089 -0.0335094 1.38277e-20)
(0.325097 -0.0374241 -2.56481e-21)
(0.339073 -0.0414138 -1.3509e-20)
(0.352667 -0.0453481 4.26624e-21)
(0.365729 -0.0490932 9.84121e-21)
(0.37812 -0.052519 -4.48417e-21)
(0.389711 -0.0555043 6.32466e-21)
(0.400393 -0.0579432 -1.14629e-20)
(0.41008 -0.0597485 6.65884e-21)
(0.418718 -0.0608543 2.73726e-21)
(0.0831204 0.0113489 6.09543e-20)
(0.0831449 0.00993928 -6.59239e-20)
(0.0833197 0.00850275 2.0462e-20)
(0.0836503 0.00702943 2.96542e-20)
(0.0841413 0.00550792 -1.00494e-20)
(0.0847974 0.00392537 -1.92671e-20)
(0.0856187 0.00226689 -1.16901e-20)
(0.0866573 0.000537202 1.44972e-20)
(0.0878526 -0.00125918 2.00563e-20)
(0.0892028 -0.00309179 -1.47864e-20)
(0.0907416 -0.00497254 9.47788e-22)
(0.0924508 -0.00689819 -3.19214e-20)
(0.0943287 -0.00885797 8.24494e-21)
(0.0963729 -0.0108392 1.67343e-20)
(0.0985816 -0.0128272 5.90226e-21)
(0.100954 -0.0148042 -2.19979e-20)
(0.103489 -0.0167501 3.74025e-20)
(0.106186 -0.0186421 -3.0406e-20)
(0.109046 -0.020456 -9.04925e-22)
(0.112071 -0.0221666 3.55203e-20)
(0.115262 -0.023748 -3.0935e-20)
(0.118625 -0.0251746 2.14166e-20)
(0.122164 -0.0264219 -7.52664e-21)
(0.12589 -0.0274674 4.32517e-21)
(0.129813 -0.0282917 -3.81606e-20)
(0.133948 -0.0288772 2.59804e-20)
(0.138311 -0.0292192 -3.31357e-20)
(0.142921 -0.0293069 3.05552e-20)
(0.147802 -0.0291441 3.70932e-21)
(0.152983 -0.0287398 1.33598e-21)
(0.158491 -0.0281119 -2.82288e-20)
(0.164359 -0.0272859 -2.8498e-21)
(0.170623 -0.0262968 3.97931e-20)
(0.177316 -0.0251897 -8.74562e-21)
(0.184474 -0.0240123 -1.59168e-20)
(0.192136 -0.0228249 3.18606e-20)
(0.200333 -0.0216921 -2.4016e-20)
(0.209093 -0.0206853 8.0882e-21)
(0.218444 -0.0198701 4.74946e-21)
(0.2284 -0.0193268 -1.27049e-20)
(0.238966 -0.0191131 -4.61065e-21)
(0.250145 -0.0192954 1.52902e-20)
(0.261913 -0.0199251 -1.03027e-20)
(0.27424 -0.0210352 1.13986e-20)
(0.287077 -0.0226476 -1.22352e-20)
(0.30036 -0.0247574 -2.25796e-21)
(0.314008 -0.0273464 6.8867e-21)
(0.327919 -0.030367 4.79077e-22)
(0.341978 -0.0337488 -2.21381e-21)
(0.35606 -0.0374034 -9.42236e-21)
(0.370022 -0.0412229 -2.92474e-21)
(0.383719 -0.0450859 8.91055e-21)
(0.397 -0.0488626 9.68966e-21)
(0.409718 -0.0524214 -7.18489e-21)
(0.421732 -0.055635 -6.57166e-21)
(0.432918 -0.0583867 1.27904e-20)
(0.443169 -0.0605757 -6.39703e-21)
(0.452403 -0.0621208 -6.43069e-21)
(0.460566 -0.0629635 7.45612e-21)
(0.131145 0.0100102 3.04298e-20)
(0.131297 0.00850102 2.27548e-20)
(0.131615 0.00695583 -5.93558e-21)
(0.132103 0.00536429 -2.70432e-20)
(0.132765 0.00371376 9.90671e-21)
(0.133597 0.00198749 3.37213e-20)
(0.134655 0.000188626 -8.3305e-20)
(0.135878 -0.00169376 7.19987e-20)
(0.13727 -0.00360055 -9.10969e-21)
(0.13885 -0.0055507 -9.89026e-21)
(0.140607 -0.00754435 -7.64922e-22)
(0.142536 -0.00957099 3.47457e-20)
(0.144634 -0.0116184 -4.64375e-20)
(0.146898 -0.0136726 -1.90926e-20)
(0.149325 -0.0157163 2.89442e-20)
(0.151915 -0.0177296 2.50677e-20)
(0.154665 -0.0196903 -6.08507e-20)
(0.157576 -0.0215742 1.83536e-20)
(0.160648 -0.0233567 1.70857e-20)
(0.163882 -0.0250121 3.33521e-20)
(0.167283 -0.0265154 -1.47941e-20)
(0.170855 -0.0278424 -1.60506e-20)
(0.174607 -0.0289709 -3.01228e-20)
(0.178549 -0.0298821 4.31146e-20)
(0.182695 -0.0305591 5.12625e-22)
(0.187063 -0.0309959 -7.18176e-21)
(0.191669 -0.0311839 -1.24037e-20)
(0.196539 -0.0311265 -3.89344e-21)
(0.201699 -0.0308327 3.44506e-20)
(0.207179 -0.0303204 -1.14715e-20)
(0.213011 -0.0296151 -2.95056e-20)
(0.219231 -0.0287514 -5.60668e-22)
(0.225873 -0.0277732 4.45001e-21)
(0.232973 -0.0267287 -1.6121e-21)
(0.240568 -0.0256764 -1.08449e-20)
(0.248692 -0.0246797 2.23665e-20)
(0.257371 -0.0238077 8.96523e-21)
(0.266632 -0.0231255 -1.69936e-20)
(0.27649 -0.0227088 1.19504e-21)
(0.286947 -0.0226154 4.82222e-21)
(0.298004 -0.0229072 7.15652e-21)
(0.309638 -0.0236328 -6.66182e-21)
(0.321814 -0.024823 9.73212e-21)
(0.334482 -0.0264963 -8.19547e-21)
(0.347575 -0.0286461 1.30682e-20)
(0.361007 -0.0312501 -8.72997e-21)
(0.374677 -0.034259 5.66835e-21)
(0.388467 -0.0376008 3.88579e-21)
(0.402248 -0.0411853 -1.11889e-20)
(0.415878 -0.044904 -8.02428e-23)
(0.429211 -0.0486354 2.26531e-21)
(0.442097 -0.0522511 1.00423e-20)
(0.454391 -0.0556212 -4.77603e-22)
(0.465958 -0.0586217 -6.48424e-21)
(0.476676 -0.0611401 -6.66106e-21)
(0.486442 -0.0630806 -2.13853e-21)
(0.49518 -0.0643682 5.75014e-21)
(0.50284 -0.0649506 3.65045e-21)
(0.183307 0.0101432 -2.82071e-20)
(0.183297 0.00855489 1.38913e-20)
(0.183472 0.00693169 2.94592e-20)
(0.183835 0.0052646 5.75691e-20)
(0.18439 0.00354195 -1.50043e-19)
(0.185126 0.00174543 8.46148e-20)