/*--------------------------------*- C++ -*----------------------------------*\
  =========                 |
  \\      /  F ield         | OpenFOAM: The Open Source CFD Toolbox
   \\    /   O peration     | Website:  https://openfoam.org
    \\  /    A nd           | Version:  7
     \\/     M anipulation  |
\*---------------------------------------------------------------------------*/
FoamFile
{
    version     2.0;
    format      ascii;
    class       volScalarField;
    location    "2";
    object      p;
}
// * * * * * * * * * * * * * * * * * * * * * * * * * * * * * * * * * * * * * //

dimensions      [1 -1 -2 0 0 0 0];

internalField   nonuniform List<scalar> 
4032
(
1
1
1
1
1
1
1
1
1
1
1
1
5.31757
10.5157
10.7603
10.9251
11.1094
11.2765
11.4343
11.5838
11.7227
11.8397
11.9305
11.9971
1
1
1
1
1
1
1
1
1
1
1
1
5.15383
10.4339
10.7327
10.8974
11.0815
11.2455
11.3986
11.5412
11.6714
11.7788
11.8601
11.9212
1
1
1
1
1
1
1
1
1
1
1
1
4.80836
10.3232
10.6848
10.8485
11.035
11.1977
11.347
11.4812
11.5988
11.6929
11.7605
11.8159
1
1
1
1
1
1
1
1
1
1
1
1
4.30962
10.1329
10.6187
10.7741
10.9575
11.1137
11.2573
11.3845
11.4914
11.5713
11.6183
11.6542
1
1
1
1
1
1
1
1
1
1
1
1
3.67641
9.81216
10.5279
10.6761
10.8597
11.0085
11.1379
11.2426
11.3178
11.3729
11.3995
11.4442
1
1
1
1
1
1
1
1
1
1
1
1
2.9692
9.34614
10.4616
10.6
10.7642
10.8897
10.9959
11.0792
11.1369
11.1766
11.1675
11.1167
1
1
1
1
1
1
1
1
1
1
1
1
2.16963
8.61335
10.3731
10.4848
10.6391
10.7502
10.8343
10.8801
10.8731
10.8065
10.7018
10.636
1
1
1
1
1
1
1
1
1
1
1
1
1.38274
7.69166
10.3777
10.3897
10.4938
10.5537
10.5939
10.5877
10.5315
10.4259
10.2609
10.2232
1
1
1
1
1
1
1
1
1
1
1
1
1.0214
6.43517
10.0448
10.0852
10.1908
10.2569
10.2794
10.2391
10.1075
9.83344
9.06287
7.18828
1
1
1
1
1
1
1
1
1
1
1
1
1.00002
4.79067
9.61871
9.95797
10.0264
10.0571
10.0118
9.91018
9.67651
9.20139
8.37207
6.34184
1
1
1
1
1
1
1
1
1
1
1
1
1
3.06522
8.822
9.78409
9.83432
9.84848
9.75019
9.56912
9.25508
8.67425
7.81184
5.92254
1
1
1
1
1
1
1
1
1
1
1
1
1
1.57048
7.78278
9.82184
9.69764
9.60385
9.46411
9.23294
8.86845
8.29596
7.36096
5.86097
1
1
1
1
1
1
1
1
1
1
1
1
1
1.03635
6.03259
9.28143
9.33351
9.30033
9.16969
8.92398
8.54227
7.98623
7.07774
5.88907
1
1
1
1
1
1
1
1
1
1
1
1
1
0.999968
3.54387
8.60536
9.20975
9.17117
9.00668
8.71408
8.29613
7.73437
6.89682
5.95407
1
1
1
1
1
1
1
1
1
1
1
1
1
0.999984
1.48511
7.54842
9.27624
9.0402
8.79833
8.46594
8.05648
7.5131
6.79299
6.02335
1
1
1
1
1
1
1
1
1
1
1
1
1
0.999997
1.02145
5.48461
8.80799
8.70804
8.49705
8.20484
7.83186
7.33819
6.72839
6.07146
1
1
1
1
1
1
1
1
1
1
1
1
1
1
0.999929
2.71004
8.0693
8.61014
8.37548
8.08147
7.70288
7.23242
6.68634
6.10862
1
1
1
1
1
1
1
1
1
1
1
1
1
1
0.999979
1.20466
6.22085
8.47617
8.1978
7.93212
7.57484
7.13864
6.64674
6.12882
1
1
1
1
1
1
1
1
1
1
1
1
1
1
0.999996
1.00316
3.30932
7.71432
8.0726
7.81817
7.48633
7.08177
6.63718
6.16398
1
1
1
1
1
1
1
1
1
1
1
1
1
1
1
0.999999
1.34945
6.1112
8.05675
7.75024
7.42275
7.03235
6.61716
6.18161
1
1
1
1
1
1
1
1
1
1
1
1
1
1
1
1
1.00957
3.19007
7.32981
7.65328
7.33352
6.97603
6.59619
6.20031
1
1
1
1
1
1
1
1
1
1
1
1
1
1
1
1
1.00003
1.32115
5.58684
7.6683
7.30362
6.97005
6.60665
6.23496
1
1
1
1
1
1
1
1
1
1
1
1
1
1
1
1
1
1.00832
2.58094
6.6486
7.25677
6.94154
6.60295
6.2555
1
1
1
1
1
1
1
1
1
1
1
1
1
1
1
1
1
1.00004
1.17644
4.53819
7.1998
6.95643
6.64308
6.30636
1
1
1
1
1
1
1
1
1
1
1
1
1
1
1
1
1
1
1.00308
1.89138
5.86941
6.96642
6.63242
6.31047
1
1
1
1
1
1
1
1
1
1
1
1
1
1
1
1
1
1
1.00001
1.05896
3.16875
6.33374
6.64171
6.3583
1
1
1
1
1
1
1
1
1
1
1
1
1
1
1
1
1
1
1
1.00071
1.32772
4.43399
6.53899
6.43431
1
1
1
1
1
1
1
1
1
1
1
1
1
1
1
1
1
1
1
1
1.0101
1.90858
5.26859
6.39572
1
1
1
1
1
1
1
1
1
1
1
1
1
1
1
1
1
1
1
1
1.00007
1.06311
2.67847
5.68196
1
1
1
1
1
1
1
1
1
1
1
1
1
1
1
1
1
1
1
1
1
1.00089
1.20527
3.49913
1
1
1
1
1
1
1
1
1
1
1
1
1
1
1
1
1
1
1
1
1
1
1.00528
1.47002
1
1
1
1
1
1
1
1
1
1
1
1
1
1
1
1
1
1
1
1
1
1
1.00003
1.02073
1
1
1
1
1
1
1
1
1
1
1
1
1
1
1
1
1
1
1
1
1
1
1
1.00021
1
1
1
1
1
1
1
1
1
1
1
1
1
1
1
1
1
1
1
1
1
1
1
1
1
1
1
1
1
1
1
1
1
1
1
1
1
1
1
1
1
1
1
1
1
1
1
1
1
1
1
1
1
1
1
1
1
1
1
1
1
1
1
1
1
1
1
1
1
1
1
1
1
1
1
1
1
1
1
1
1
1
1
1
1
1
1
1
1
1
1
1
1
1
1
1
1
1
1
1
1
1
1
1
1
1
1
1
1
1
1
1
1
1
1
1
1
1
1
1
1
1
1
1
1
1
1
1
1
1
1
1
1
1
1
1
1
1
1
1
1
1
1
1
1
1
1
1
1
1
1
1
1
1
1
1
1
1
1
1
1
1
1
1
1
1
1
1
1.62938
0.459728
0.146103
0.151435
0.205451
0.310395
0.42351
0.53166
0.644846
0.727927
0.816612
0.951925
1.14485
1.23305
1.23869
1.208
1.18023
1.18642
1.18632
1.23739
1.30659
1.31714
1.31023
1.27527
1.24697
1.24592
1.26259
1.30107
1.31723
1.3116
1.29357
1.27494
1.27598
1.28402
1.29875
1.30488
1.29974
1.28304
1.26413
1.26592
1.34531
1.72704
2.79523
4.45954
6.07901
6.65105
6.36335
5.8793
5.64031
5.52743
5.43701
5.30887
5.18693
5.04875
4.88622
4.73421
4.62476
4.53752
4.48203
4.44281
4.37087
4.28098
4.17988
4.04944
3.89627
3.78138
3.71371
3.66154
3.63217
3.6297
3.60711
3.56103
3.50672
3.41667
3.25313
3.10718
3.04886
3.0148
2.98779
2.977
2.95899
2.92199
2.87758
2.79666
2.66648
2.58389
2.54852
2.51963
2.49534
2.48404
2.47962
2.46178
2.43789
2.40528
2.34157
2.20284
2.79146
1.54819
0.894139
0.63519
0.576567
0.564566
0.557087
0.540203
0.541124
0.562805
0.619464
0.706439
0.832502
0.981579
1.04179
1.06545
1.07972
1.09961
1.129
1.19606
1.26332
1.28044
1.28369
1.27144
1.24945
1.24249
1.25109
1.28316
1.30907
1.31136
1.3048
1.28534
1.27284
1.27464
1.28185
1.29114
1.28966
1.27899
1.28265
1.35827
1.77393
2.40433
2.86568
3.38741
4.36999
5.27142
5.68535
5.65976
5.58273
5.49979
5.37903
5.25542
5.15175
5.0416
4.92182
4.77924
4.63592
4.53493
4.46098
4.40792
4.36231
4.2884
4.19761
4.09429
3.97193
3.83442
3.72805
3.67006
3.63125
3.60726
3.57136
3.52627
3.47301
3.39977
3.29455
3.16772
3.06428
3.01572
2.98462
2.95905
2.93519
2.90361
2.86277
2.80122
2.71254
2.61913
2.5617
2.52942
2.50378
2.48938
2.47487
2.44729
2.41585
2.37736
2.32736
2.2237
3.60667
2.43476
1.76557
1.26742
0.948424
0.792112
0.727906
0.690187
0.632232
0.601122
0.618402
0.668477
0.705343
0.771115
0.871452
0.937051
0.985777
1.03688
1.09766
1.16768
1.23105
1.26859
1.27247
1.2784
1.27966
1.27607
1.28025
1.29081
1.29765
1.2972
1.29302
1.28584
1.27966
1.27986
1.28005
1.27979
1.27933
1.29797
1.40647
1.83866
2.56386
2.90456
2.95097
2.96103
3.17256
3.8423
4.82903
5.43744
5.66112
5.57502
5.37316
5.21218
5.08385
4.97829
4.89464
4.81468
4.7106
4.57263
4.45313
4.37265
4.30007
4.23457
4.16421
4.08807
4.01392
3.92761
3.80886
3.69063
3.62918
3.5826
3.53456
3.4784
3.41157
3.34297
3.28415
3.21986
3.13252
3.03887
2.98609
2.9496
2.91194
2.86811
2.8166
2.76792
2.72552
2.67646
2.61248
2.55683
2.52244
2.49228
2.461
2.42645
2.38497
2.33366
2.28269
2.21943
4.26772
3.11745
2.42336
1.94394
1.55017
1.19053
0.989318
0.960847
0.926386
0.851362
0.771208
0.705036
0.698739
0.703413
0.733778
0.796409
0.859774
0.917377
0.994461
1.06536
1.11466
1.16227
1.18079
1.2112
1.26283
1.29775
1.30797
1.30492
1.30023
1.29616
1.29108
1.28726
1.28393
1.27496
1.26624
1.26772
1.29634
1.4655
1.90128
2.66571
3.00167
3.06188
3.02741
2.94168
2.89714
2.96414
3.40311
4.25949
4.97853
5.21745
5.22986
5.19037
5.09922
5.01637
4.93492
4.84213
4.74271
4.60214
4.43654
4.33204
4.26401
4.20425
4.15286
4.09064
4.02749
3.96336
3.87633
3.74276
3.61371
3.54326
3.48832
3.42813
3.36575
3.31496
3.27381
3.2319
3.17289
3.07768
2.98434
2.93014
2.88349
2.83148
2.7819
2.74827
2.72074
2.69168
2.65385
2.6016
2.54449
2.49704
2.45607
2.41059
2.35405
2.29236
2.25278
2.21274
4.70861
3.74021
2.95446
2.43328
2.08453
1.76338
1.41237
1.17035
1.12992
1.08194
0.994358
0.862532
0.786098
0.746404
0.746084
0.763125
0.790812
0.818755
0.852431
0.88733
0.92294
0.984686
1.05868
1.11966
1.18772
1.24717
1.25917
1.25855
1.26127
1.27298
1.28979
1.30412
1.30356
1.28961
1.27156
1.29316
1.51225
2.11329
2.69876
3.13962
3.1213
3.05303
2.98607
2.93038
2.88862
2.86804
2.87116
3.06281
3.61655
4.31384
4.78761
4.94357
4.93561
4.96651
4.99354
4.90736
4.79705
4.6454
4.45937
4.29368
4.21232
4.15758
4.12004
4.0848
4.03267
3.97561
3.90738
3.79417
3.62219
3.48331
3.41302
3.36635
3.3335
3.312
3.28538
3.24761
3.19805
3.11387
2.98508
2.88751
2.83694
2.8008
2.77276
2.75057
2.72729
2.70002
2.66834
2.62449
2.55775
2.48469
2.42693
2.3733
2.32109
2.28221
2.26143
2.22143
5.01052
4.1946
3.51282
2.88724
2.41966
2.15984
1.89272
1.5917
1.34329
1.27046
1.21242
1.11476
1.01264
0.933125
0.857552
0.828614
0.83077
0.826154
0.803314
0.795168
0.799467
0.818538
0.879141
0.955739
1.04866
1.1512
1.18672
1.20729
1.22459
1.23998
1.26174
1.28178
1.28063
1.27984
1.30413
1.52748
2.26902
2.87596
3.12526
3.16818
3.13224
3.07574
2.99212
2.9167
2.87659
2.85355
2.8247
2.79836
2.83633
3.08154
3.60139
4.20019
4.54069
4.754
4.83962
4.87897
4.81973
4.69185
4.535
4.34062
4.19009
4.11805
4.06801
4.04695
4.02121
3.96934
3.90417
3.80734
3.64773
3.46954
3.38059
3.34032
3.3081
3.2907
3.28136
3.24734
3.20333
3.13328
3.00019
2.87197
2.82039
2.79008
2.7644
2.7495
2.73236
2.70407
2.67199
2.62813
2.5528
2.45505
2.37736
2.32855
2.30284
2.28501
2.271
2.23554
5.22745
4.49152
3.89193
3.34053
2.82463
2.42033
2.19063
1.97696
1.71587
1.5031
1.38223
1.2964
1.21068
1.12875
1.03188
0.94642
0.906717
0.867636
0.827635
0.807876
0.812931
0.815612
0.817895
0.835564
0.878301
0.943552
1.01333
1.08095
1.1449
1.17582
1.21874
1.25579
1.2558
1.30691
1.59267
2.29084
2.97625
3.17882
3.21406
3.18996
3.11095
3.02582
2.94415
2.87494
2.83682
2.81484
2.79616
2.753
2.73416
2.69953
2.75399
3.00656
3.52409
4.08061
4.43156
4.63962
4.67637
4.65172
4.57676
4.43066
4.25127
4.12493
4.05013
4.00014
3.95381
3.90741
3.85367
3.78193
3.66692
3.50803
3.38922
3.33804
3.30242
3.27297
3.25394
3.22632
3.18461
3.12447
3.01716
2.89445
2.83542
2.8006
2.7694
2.74485
2.72375
2.69629
2.66285
2.6113
2.51807
2.40555
2.34165
2.31831
2.30381
2.29343
2.28837
2.25583
5.38829
4.75016
4.15896
3.64166
3.19987
2.79915
2.43675
2.20241
2.02273
1.81253
1.61821
1.47165
1.38362
1.31185
1.22485
1.13133
1.05488
0.991738
0.941448
0.905525
0.889211
0.864244
0.838583
0.829116
0.830892
0.837774
0.855343
0.891553
0.956021
1.03251
1.11029
1.17103
1.23953
1.66174
2.34452
2.97891
3.24434
3.28744
3.25155
3.17355
3.07166
2.97768
2.90195
2.84446
2.80026
2.76694
2.74433
2.71895
2.68599
2.65342
2.61444
2.56033
2.63208
2.91644
3.42583
3.93558
4.29195
4.44698
4.49062
4.45427
4.32294
4.16984
4.04016
3.95978
3.8952
3.84773
3.8006
3.74192
3.66648
3.56662
3.44703
3.3474
3.29488
3.25776
3.22422
3.19091
3.15002
3.09828
3.02686
2.93836
2.86432
2.81614
2.77662
2.73945
2.70636
2.67569
2.63986
2.58162
2.4827
2.37719
2.33177
2.31419
2.30083
2.28905
2.29237
2.26544
5.50171
4.93866
4.4043
3.8964
3.46556
3.11267
2.7722
2.46869
2.24538
2.05026
1.87404
1.7105
1.57166
1.45853
1.37138
1.29769
1.21974
1.13695
1.05395
1.00029
0.965131
0.926912
0.891475
0.857846
0.849057
0.841778
0.840185
0.841705
0.848839
0.878527
0.937767
1.00809
1.43161
2.28759
2.81232
3.09282
3.19859
3.17894
3.15681
3.09189
3.02657
2.9636
2.91342
2.85938
2.79225
2.72784
2.69074
2.66822
2.64085
2.61086
2.57739
2.54312
2.46668
2.42357
2.50906
2.78629
3.26485
3.74272
4.15927
4.28377
4.26542
4.19969
4.06722
3.95217
3.85579
3.78677
3.73857
3.68957
3.63798
3.58497
3.51124
3.41064
3.30773
3.23879
3.19384
3.1515
3.10451
3.0559
3.00939
2.95866
2.90078
2.83963
2.78278
2.73284
2.68808
2.64517
2.59975
2.54456
2.47695
2.41384
2.35598
2.32007
2.30373
2.29574
2.30142
2.27035
5.59644
5.08718
4.58709
4.12807
3.73349
3.3493
2.99977
2.73334
2.49647
2.2632
2.0542
1.91351
1.77819
1.64533
1.51719
1.43811
1.36637
1.29173
1.20938
1.13738
1.08459
1.03171
0.990824
0.955886
0.928446
0.897966
0.874407
0.855063
0.843189
0.844539
0.87738
1.18008
2.03587
2.48659
2.68696
2.8012
2.80813
2.82279
2.88694
2.93218
2.95378
2.95855
2.92649
2.8572
2.76516
2.68376
2.64009
2.61353
2.6036
2.5846
2.55707
2.51819
2.45933
2.36757
2.29666
2.28998
2.3826
2.66584
3.16175
3.62489
3.95268
4.04569
4.02339
3.95561
3.84832
3.74409
3.69599
3.65855
3.61171
3.56613
3.51446
3.44133
3.34407
3.24097
3.16433
3.11547
3.07
3.02389
2.98255
2.94463
2.90305
2.84939
2.78528
2.72473
2.67113
2.61936
2.56547
2.51405
2.47777
2.44605
2.40683
2.35827
2.31006
2.27339
2.25319
2.2172
5.68592
5.21184
4.74176
4.32308
3.93911
3.56376
3.22287
2.95164
2.70139
2.47024
2.25928
2.0984
1.94555
1.81705
1.69079
1.58864
1.49099
1.40318
1.33267
1.27183
1.21043
1.15477
1.08943
1.04309
1.00007
0.962256
0.92351
0.890172
0.863497
0.899965
1.17483
1.83285
2.42774
2.44297
2.41577
2.36984
2.37496
2.42991
2.51585
2.63872
2.75274
2.81705
2.80765
2.76664
2.69254
2.6238
2.5929
2.57649
2.57012
2.55463
2.52718
2.48787
2.42878
2.34408
2.25425
2.21923
2.20102
2.20772
2.31222
2.58676
3.01499
3.43694
3.68383
3.78837
3.76114
3.69563
3.67409
3.65228
3.61701
3.57178
3.50959
3.42899
3.33974
3.2381
3.14344
3.08629
3.04784
3.00937
2.96918
2.92783
2.88289
2.82927
2.76482
2.70148
2.6476
2.5987
2.55203
2.51508
2.4869
2.45961
2.42766
2.38103
2.31877
2.25808
2.22497
2.17936
5.74438
5.29602
4.8638
4.48204
4.11014
3.73839
3.43416
3.16014
2.90092
2.64839
2.45929
2.28516
2.11973
1.96478
1.84307
1.73962
1.63281
1.53739
1.45056
1.38937
1.32423
1.26548
1.20915
1.15595
1.1044
1.05776
1.01097
0.973976
1.00733
1.30449
1.93202
2.51336
2.53791
2.46807
2.34718
2.28481
2.25971
2.2431
2.22983
2.25822
2.31245
2.37969
2.43743
2.45889
2.48358
2.47575
2.45921
2.46287
2.4942
2.50256
2.48067
2.44425
2.38215
2.31302
2.2576
2.20639
2.17074
2.14506
2.12512
2.13533
2.21483
2.44369
2.7697
3.14027
3.37275
3.4953
3.53377
3.5589
3.59532
3.57323
3.51135
3.43382
3.34192
3.22978
3.11057
3.04964
3.0174
2.98863
2.95865
2.92271
2.87925
2.82264
2.74441
2.66055
2.60647
2.57213
2.54478
2.52168
2.49783
2.46902
2.43084
2.37747
2.31259
2.25234
2.20936
2.14987
5.79557
5.37555
4.98198
4.62336
4.26002
3.90946
3.62393
3.34733
3.07541
2.82897
2.64428
2.4533
2.28632
2.11909
1.99893
1.87539
1.76516
1.66586
1.58282
1.51043
1.43388
1.36416
1.30639
1.25571
1.19849
1.14609
1.10044
1.13535
1.47692
2.17744
2.71073
2.74843
2.64343
2.51626
2.42978
2.3682
2.30739
2.25207
2.21036
2.17089
2.13697
2.1233
2.12283
2.11929
2.14635
2.18318
2.21982
2.26309
2.29654
2.31999
2.34107
2.33715
2.31463
2.28331
2.25352
2.21145
2.16119
2.1113
2.07798
2.06371
2.0511
2.0379
2.08517
2.23354
2.52907
2.85231
3.10679
3.26273
3.40483
3.44008
3.4352
3.4133
3.35182
3.25164
3.13257
3.02998
2.97614
2.94563
2.92573
2.90009
2.86837
2.82775
2.75934
2.65508
2.57743
2.54551
2.52475
2.50606
2.48682
2.46295
2.42708
2.36987
2.29387
2.23105
2.18639
2.12811
5.85187
5.46003
5.0974
4.75094
4.39225
4.07344
3.79182
3.51674
3.23157
3.01328
2.81351
2.61926
2.42961
2.27569
2.1521
2.01682
1.90094
1.78757
1.71101
1.6281
1.54857
1.47167
1.4101
1.35059
1.29479
1.24124
1.28834
1.69746
2.49692
2.99658
3.00935
2.88792
2.74958
2.65642
2.58373
2.50755
2.41771
2.32614
2.2459
2.16816
2.10906
2.07724
2.05905
2.05509
2.01514
1.96045
1.9321
1.93914
1.96831
1.99867
2.05155
2.10687
2.15126
2.17268
2.16003
2.13838
2.11117
2.07846
2.05634
2.02052
1.99144
1.96927
1.95655
1.94127
1.97142
2.05782
2.28363
2.58531
2.88419
3.09543
3.24501
3.26266
3.24374
3.21666
3.16106
3.06304
2.98322
2.93041
2.89203
2.85869
2.83298
2.80135
2.75753
2.68674
2.60035
2.53566
2.49778
2.47502
2.45746
2.43902
2.41317
2.37077
2.28921
2.17973
2.13255
2.10399
5.89972
5.53755
5.19601
4.86218
4.51726
4.21771
3.94313
3.66363
3.38906
3.18258
2.97281
2.77644
2.57161
2.43615
2.29492
2.15971
2.03118
1.92306
1.83923
1.74165
1.65949
1.57817
1.50488
1.4422
1.39551
1.46887
1.95246
2.80708
3.28665
3.28199
3.16194
3.01891
2.90928
2.81748
2.72031
2.61514
2.50661
2.40253
2.31065
2.24058
2.18298
2.12875
2.08337
2.04241
2.00268
1.95808
1.88595
1.81797
1.788
1.77683
1.78959
1.81726
1.85265
1.90652
1.93028
1.93562
1.95383
1.96406
1.94808
1.93074
1.93389
1.94193
1.93091
1.9059
1.87284
1.81771
1.82102
1.8843
2.05833
2.33527
2.66727
2.89087
3.00352
3.06986
3.05392
3.01025
2.9859
2.94499
2.88298
2.84275
2.80722
2.76479
2.72162
2.67341
2.61089
2.54778
2.49237
2.4501
2.42595
2.41
2.39211
2.36088
2.29091
2.16658
2.10612
2.08433
5.96435
5.62133
5.28471
4.9568
4.63868
4.3481
4.07635
3.78982
3.54174
3.33644
3.13537
2.914
2.72044
2.58628
2.43629
2.29955
2.15145
2.05882
1.96053
1.8577
1.76461
1.67033
1.60235
1.55105
1.65655
2.2784
3.2005
3.61006
3.55094
3.40563
3.26515
3.15438
3.05986
2.95975
2.85119
2.73676
2.62348
2.51534
2.41917
2.34322
2.27922
2.21797
2.15574
2.09316
2.0346
1.97317
1.8943
1.81076
1.7643
1.74277
1.72224
1.69715
1.6833
1.67934
1.67236
1.6751
1.67088
1.67982
1.71402
1.76576
1.80284
1.8254
1.83251
1.82542
1.80623
1.78172
1.7452
1.71024
1.70248
1.74541
1.87459
2.12466
2.39083
2.69006
2.79086
2.84034
2.87807
2.86352
2.84306
2.83522
2.79932
2.75345
2.70441
2.64276
2.58249
2.53273
2.48725
2.45156
2.41846
2.38528
2.35825
2.328
2.27805
2.20934
2.14022
2.07374
5.98733
5.66771
5.35257
5.0349
4.73503
4.46237
4.19568
3.92233
3.68496
3.47699
3.27434
3.05002
2.87474
2.72783
2.57916
2.42081
2.27872
2.18664
2.07541
1.97559
1.86214
1.77054
1.72373
1.88556
2.62838
3.71522
3.99916
3.82878
3.61215
3.48057
3.37723
3.28928
3.19707
3.09833
2.98788
2.86214
2.72863
2.6069
2.51088
2.43491
2.3673
2.30115
2.23521
2.16729
2.09646
2.02545
1.95631
1.88379
1.81344
1.75687
1.7125
1.67596
1.65303
1.63287
1.61269
1.58897
1.54806
1.50189
1.48889
1.50034
1.53574
1.58005
1.64247
1.68461
1.69847
1.69221
1.67257
1.6567
1.63372
1.61349
1.61623
1.64449
1.72796
1.91045
2.16896
2.38703
2.56993
2.64856
2.71874
2.72861
2.72474
2.72263
2.70494
2.64763
2.57748
2.51101
2.46628
2.4408
2.41341
2.37889
2.33532
2.28486
2.2446
2.21297
2.17624
2.09892
6.04177
5.73953
5.43765
5.13064
4.84794
4.58792
4.31996
4.04944
3.82425
3.61674
3.40512
3.18241
3.01558
2.8597
2.70677
2.53796
2.41
2.30349
2.1906
2.07158
1.95948
1.90416
2.13973
3.05593
4.08589
4.36906
4.25378
4.01741
3.77456
3.60847
3.51715
3.42202
3.3228
3.21994
3.1093
2.98466
2.84077
2.7025
2.60085
2.52378
2.45576
2.38895
2.31953
2.24706
2.1737
2.09998
2.02499
1.94559
1.86945
1.80642
1.75213
1.70611
1.66725
1.62901
1.59324
1.56069
1.52866
1.48567
1.43027
1.39304
1.38049
1.38593
1.4061
1.43793
1.48941
1.51934
1.51798
1.51282
1.52165
1.53483
1.546
1.53228
1.52304
1.5337
1.58733
1.70459
1.89325
2.11886
2.34405
2.43776
2.50479
2.57429
2.59516
2.59608
2.57808
2.52205
2.46639
2.42228
2.38945
2.35993
2.3181
2.26169
2.20962
2.17836
2.15869
2.10614
6.12766
5.82482
5.52815
5.23329
4.95909
4.69674
4.42918
4.1734
3.95496
3.74217
3.51828
3.30707
3.14987
2.98927
2.82644
2.65353
2.53714
2.42156
2.29496
2.16815
2.12682
2.43662
3.52883
4.59518
4.77477
4.6282
4.38945
4.16475
3.92958
3.75487
3.63325
3.5197
3.41132
3.30831
3.20606
3.09795
2.97282
2.82615
2.69251
2.59713
2.52153
2.45121
2.38114
2.31046
2.2386
2.16445
2.08591
2.00396
1.92714
1.86109
1.80316
1.75202
1.706
1.66115
1.62187
1.58848
1.5502
1.49414
1.42906
1.37868
1.34972
1.33213
1.3245
1.32035
1.32387
1.33171
1.34061
1.33507
1.33015
1.34901
1.37554
1.41299
1.43591
1.42518
1.41119
1.41649
1.44149
1.51365
1.66683
1.88794
2.08593
2.20608
2.29329
2.40217
2.46678
2.4683
2.43802
2.38198
2.36058
2.33218
2.29339
2.25153
2.20683
2.16094
2.12279
2.0729
6.19038
5.88724
5.59451
5.31319
5.04987
4.78854
4.52344
4.2839
4.06522
3.85
3.62965
3.43532
3.27411
3.10876
2.93348
2.77079
2.65972
2.52346
2.39298
2.36972
2.80869
4.04245
5.11555
5.1699
4.9714
4.7115
4.48027
4.30327
4.11299
3.91918
3.75485
3.61624
3.49451
3.3869
3.28829
3.1924
3.08776
2.95805
2.80333
2.66679
2.57084
2.49733
2.43373
2.37413
2.31177
2.24026
2.15279
2.04938
1.96109
1.90524
1.86188
1.81957
1.7736
1.72091
1.6606
1.60323
1.55444
1.50868
1.45801
1.40132
1.34973
1.31623
1.2978
1.28573
1.2721
1.26555
1.25887
1.23473
1.19985
1.19231
1.20133
1.22742
1.25989
1.29063
1.30462
1.2947
1.28491
1.29835
1.33593
1.41356
1.52409
1.66458
1.80747
1.95651
2.10108
2.24637
2.31275
2.30597
2.29618
2.27979
2.25975
2.24696
2.22469
2.17761
2.12711
2.0547
6.22132
5.97891
5.66709
5.39907
5.14203
4.87814
4.6173
4.3996
4.18109
3.96103
3.73712
3.56505
3.39711
3.2277
3.04405
2.89655
2.76225
2.61831
2.6701
3.29101
4.739
5.54893
5.5071
5.27822
5.03423
4.82723
4.65073
4.48477
4.30178
4.09122
3.88764
3.72402
3.5898
3.47201
3.36692
3.26922
3.16993
3.05652
2.91416
2.7576
2.63328
2.54578
2.47531
2.41388
2.35761
2.29792
2.22065
2.11868
2.0112
1.9299
1.87641
1.83692
1.80178
1.76386
1.71529
1.65253
1.58613
1.53283
1.49008
1.4459
1.39619
1.34608
1.30791
1.28089
1.25486
1.23096
1.21715
1.20389
1.17921
1.15171
1.13176
1.12282
1.12246
1.12467
1.13597
1.14746
1.15673
1.17146
1.19073
1.21607
1.25953
1.3024
1.34351
1.42654
1.56832
1.73494
1.88524
2.00458
2.14549
2.16835
2.15257
2.15526
2.15469
2.14324
2.12584
2.06721
5.78159
6.04671
5.77756
5.4833
5.23183
4.96704
4.72296
4.51022
4.29452
4.06365
3.85303
3.68874
3.51027
3.33474
3.14727
3.01118
2.85752
2.95676
3.88496
5.48586
6.23298
6.1022
5.74965
5.42985
5.19959
5.0138
4.83131
4.63792
4.43262
4.21761
4.01046
3.836
3.69129
3.56317
3.44543
3.33494
3.22705
3.11474
2.98772
2.84643
2.71765
2.6168
2.53252
2.4543
2.37997
2.31238
2.24585
2.17001
2.08872
2.01015
1.93924
1.87888
1.8251
1.77352
1.72192
1.66939
1.61763
1.57289
1.53348
1.49296
1.44831
1.40398
1.36506
1.32549
1.28117
1.23649
1.20167
1.18008
1.16643
1.14526
1.12092
1.10433
1.08402
1.06491
1.04568
1.0329
1.02856
1.03067
1.04328
1.06423
1.09112
1.12733
1.14255
1.14831
1.17219
1.25269
1.37696
1.49865
1.66036
1.83875
1.96065
1.98982
2.01278
2.03748
2.0509
2.03062
4.12641
5.80519
5.8655
5.60668
5.32372
5.05927
4.83014
4.61385
4.39626
4.1613
3.97192
3.80154
3.62016
3.42574
3.26156
3.11385
3.29651
4.47355
6.31252
6.817
6.54146
6.17286
5.85466
5.58693
5.37992
5.17704
4.96445
4.75
4.53772
4.32157
4.10825
3.92313
3.77256
3.64266
3.52165
3.40335
3.28448
3.16417
3.0423
2.9201
2.80277
2.6958
2.59921
2.50867
2.41948
2.3311
2.24938
2.18087
2.12162
2.05918
1.98893
1.9192
1.85773
1.80504
1.75677
1.70974
1.66114
1.60859
1.55402
1.50013
1.45516
1.42452
1.39706
1.36547
1.32958
1.28629
1.23002
1.17795
1.15016
1.13952
1.12769
1.10475
1.07787
1.0563
1.03261
1.00466
0.977153
0.960403
0.956102
0.957959
0.963861
0.983039
1.01141
1.01709
1.00933
1.01603
1.05875
1.11437
1.18684
1.32529
1.48492
1.61658
1.73457
1.79687
1.86372
1.91136
1.82345
4.54777
5.71963
5.71451
5.45255
5.15332
4.93023
4.71943
4.49702
4.26529
4.08713
3.90649
3.71791
3.53128
3.39136
3.73537
5.2902
6.96636
7.58616
7.29809
6.79407
6.32292
5.97947
5.72346
5.50028
5.28534
5.07149
4.86175
4.65462
4.44014
4.21989
4.02039
3.85679
3.71717
3.58898
3.46442
3.33878
3.21347
3.09298
2.97922
2.87033
2.76393
2.65976
2.55835
2.45941
2.36444
2.2806
2.21119
2.15141
2.09406
2.03109
1.9566
1.87263
1.80468
1.76477
1.73453
1.69997
1.65667
1.60821
1.54518
1.46907
1.41849
1.39231
1.37343
1.35507
1.32685
1.28
1.21985
1.1681
1.13412
1.1129
1.09969
1.0884
1.07086
1.03981
1.00105
0.968393
0.94111
0.922381
0.91552
0.913579
0.91781
0.92325
0.922833
0.917494
0.901399
0.902508
0.920106
0.940478
0.978472
1.0588
1.15983
1.2621
1.37653
1.48064
1.64401
1.05641
2.19578
4.7762
5.63737
5.57301
5.29162
5.03573
4.81427
4.58803
4.3751
4.20615
4.00394
3.80358
3.70331
4.22626
6.30066
7.83537
7.94981
7.7165
7.32166
6.93107
6.5289
6.16741
5.86759
5.61539
5.39207
5.18097
4.97381
4.7635
4.54313
4.32083
4.11993
3.94863
3.79612
3.65344
3.51698
3.38374
3.25379
3.13026
3.01592
2.91056
2.80969
2.70865
2.6064
2.50549
2.40905
2.31931
2.23765
2.16682
2.1078
2.05528
1.99587
1.9229
1.84594
1.77848
1.72938
1.69478
1.66657
1.63443
1.5799
1.51229
1.45299
1.4072
1.36969
1.33667
1.31162
1.28983
1.25647
1.21313
1.16883
1.13141
1.09926
1.07344
1.05625
1.04022
1.01422
0.976323
0.941888
0.920386
0.905141
0.897052
0.891411
0.884755
0.879769
0.872198
0.848734
0.822046
0.819574
0.823893
0.834742
0.862517
0.907648
0.951947
0.998081
1.04695
1.21824
1.00084
1.11461
2.53045
4.92012
5.5274
5.42787
5.1738
4.92367
4.67769
4.50023
4.28897
4.10006
4.05118
4.90075
7.13449
8.85827
8.95655
8.42964
7.80953
7.3609
7.03233
6.69678
6.3539
6.03785
5.7593
5.51146
5.28282
5.06265
4.84251
4.62147
4.41102
4.222
4.05024
3.88622
3.72593
3.57148
3.42552
3.28886
3.1618
3.04586
2.94201
2.84607
2.75101
2.65217
2.55056
2.45222
2.36225
2.28075
2.20325
2.12374
2.0457
1.98476
1.93778
1.88659
1.82943
1.77379
1.71957
1.6617
1.60787
1.57443
1.539
1.4896
1.43584
1.38977
1.35297
1.32138
1.29423
1.27332
1.24445
1.2023
1.15805
1.12069
1.09319
1.06958
1.04346
1.01534
0.984965
0.954749
0.929833
0.909249
0.896089
0.885423
0.873264
0.860382
0.847814
0.829544
0.79982
0.78215
0.776088
0.775633
0.781442
0.795071
0.80862
0.819127
0.825504
0.878324
1
1.00238
1.18957
2.8195
4.97769
5.40314
5.30328
5.05147
4.79727
4.58404
4.36577
4.46031
5.70619
8.43762
9.41534
9.26806
8.96978
8.54099
8.01839
7.54631
7.17235
6.83569
6.50968
6.19606
5.90285
5.63028
5.37434
5.1297
4.89334
4.67047
4.47079
4.29272
4.12538
3.96038
3.79433
3.62852
3.46725
3.31734
3.18438
3.06893
2.96815
2.87607
2.78567
2.68997
2.58354
2.47377
2.37736
2.30069
2.23393
2.16305
2.08224
1.99862
1.93153
1.88991
1.85224
1.80133
1.74296
1.68336
1.6207
1.56349
1.52052
1.48263
1.44969
1.41958
1.38582
1.34824
1.30592
1.2565
1.22185
1.19731
1.16993
1.14473
1.11991
1.093
1.06355
1.02614
0.986079
0.953386
0.931317
0.915582
0.903329
0.891424
0.877017
0.857413
0.833482
0.813167
0.790214
0.776763
0.768817
0.758824
0.751278
0.748522
0.746434
0.742073
0.733085
0.729641
1
1.00001
1.00517
1.27485
3.04793
4.95408
5.30468
5.1889
4.94298
4.64897
4.80793
6.73508
9.52786
10.7026
10.4122
9.46282
8.92116
8.5688
8.18504
7.76025
7.33915
6.95316
6.6126
6.30421
6.01412
5.735
5.4627
5.19607
4.94183
4.71231
4.51351
4.33802
4.17349
4.01203
3.84936
3.68317
3.51395
3.35194
3.21336
3.09974
3.00164
2.90908
2.81515
2.71863
2.61429
2.50155
2.39399
2.30359
2.23249
2.17373
2.11339
2.04366
1.97219
1.90517
1.85506
1.82165
1.78209
1.72451
1.64334
1.56616
1.53763
1.52471
1.50476
1.4712
1.42674
1.37656
1.32519
1.26935
1.22841
1.21579
1.20601
1.18719
1.16122
1.12447
1.06847
1.02634
1.00942
0.994662
0.975791
0.956841
0.938862
0.919982
0.895859
0.860754
0.825168
0.808721
0.803991
0.793226
0.775762
0.755844
0.739214
0.728535
0.721841
0.714829
0.703996
0.685573
1
1
1.00003
1.00935
1.36091
3.17086
4.93114
5.19155
5.02922
5.21162
7.59994
10.8831
11.3231
10.9394
10.5131
9.78482
9.11699
8.67129
8.29008
7.89455
7.48337
7.08187
6.71416
6.38795
6.0926
5.81335
5.53857
5.26495
5.00235
4.76536
4.55856
4.37619
4.20881
4.04761
3.88689
3.72215
3.55058
3.38053
3.23532
3.12474
3.0334
2.94496
2.84579
2.73451
2.61846
2.5069
2.411
2.32846
2.25226
2.18133
2.11836
2.06083
2.00099
1.93941
1.8811
1.81905
1.75194
1.68609
1.63609
1.60219
1.57005
1.52878
1.48358
1.44088
1.39713
1.3511
1.30831
1.27721
1.25324
1.22708
1.19461
1.16213
1.12801
1.09091
1.05652
1.03344
1.01365
0.991661
0.96859
0.944077
0.919772
0.896805
0.874541
0.851316
0.831556
0.819824
0.805456
0.782184
0.755169
0.739821
0.729649
0.718736
0.708712
0.698821
0.68846
0.669359
1
1
1
1.00008
1.01428
1.42798
3.36429
4.64099
5.27233
8.32992
11.9718
12.5976
11.9394
11.1172
10.566
9.98852
9.35836
8.81464
8.36391
7.95272
7.55058
7.1574
6.78862
6.45467
6.15194
5.86895
5.59289
5.31773
5.05066
4.80674
4.59291
4.40407
4.23138
4.06686
3.90436
3.74179
3.57559
3.4128
3.26178
3.14003
3.04281
2.95418
2.86285
2.75356
2.6399
2.5384
2.44143
2.34482
2.2601
2.18932
2.12598
2.06591
2.00846
1.95236
1.89119
1.82238
1.75443
1.69805
1.65536
1.61499
1.57273
1.52687
1.48033
1.43526
1.3925
1.35415
1.32288
1.29518
1.26495
1.23148
1.19687
1.16179
1.12514
1.08922
1.06269
1.04269
1.0225
1.00124
0.976686
0.948284
0.919983
0.89521
0.872691
0.855386
0.84462
0.833124
0.815591
0.786537
0.755103
0.738805
0.727743
0.716734
0.706042
0.696363
0.688772
0.666143
1
1
1
1
1.00012
1.022
1.50906
2.99715
7.8458
12.9632
13.233
12.5983
12.0352
11.25
10.6112
10.05
9.49348
8.94405
8.43535
7.98109
7.57179
7.19506
6.84453
6.51739
6.21042
5.91822
5.63453
5.35682
5.08969
4.84341
4.6232
4.42482
4.24652
4.09012
3.94467
3.78622
3.60903
3.44262
3.32565
3.22113
3.111
3.00023
2.89109
2.80259
2.7237
2.63188
2.5219
2.40158
2.30325
2.23431
2.17833
2.12663
2.07515
2.0184
1.95315
1.88358
1.81821
1.76104
1.70733
1.65445
1.60392
1.55652
1.51212
1.47209
1.43752
1.40731
1.37711
1.34235
1.30329
1.26334
1.22269
1.18092
1.14299
1.11569
1.09612
1.07792
1.05932
1.03786
1.00914
0.970984
0.933359
0.909749
0.896575
0.887196
0.877683
0.8658
0.8458
0.807013
0.768614
0.752153
0.741247
0.730756
0.721336
0.713273
0.705327
0.675714
1
1
1
1
1
1.00029
1.02392
2.07024
12.0903
15.7615
14.2809
13.2104
12.5106
11.5423
10.7186
10.1117
9.55847
9.01799
8.48655
7.9966
7.56636
7.19329
6.86033
6.54925
6.2481
5.9502
5.65209
5.35756
5.08228
4.84258
4.63788
4.45481
4.27933
4.09843
3.91301
3.74441
3.60134
3.46841
3.32112
3.16713
3.03258
2.92325
2.83879
2.76455
2.68439
2.5893
2.46857
2.33804
2.23979
2.17673
2.12559
2.07672
2.02635
1.96996
1.90482
1.83541
1.76988
1.71145
1.65766
1.60656
1.55738
1.51108
1.46942
1.43267
1.40033
1.37076
1.34026
1.30631
1.26946
1.23022
1.18773
1.14399
1.1079
1.08464
1.06758
1.05132
1.03355
1.01212
0.982977
0.941275
0.901343
0.884271
0.875446
0.866577
0.856713
0.844663
0.823387
0.781342
0.745333
0.732496
0.722428
0.712004
0.701852
0.692954
0.684741
0.655315
)
;

boundaryField
{
    inlet
    {
        type            fixedValue;
        value           uniform 1;
    }
    outlet
    {
        type            zeroGradient;
    }
    bottom
    {
        type            symmetryPlane;
    }
    top
    {
        type            symmetryPlane;
    }
    obstacle
    {
        type            zeroGradient;
    }
    defaultFaces
    {
        type            empty;
    }
}


// ************************************************************************* //
