/*--------------------------------*- C++ -*----------------------------------*\
  =========                 |
  \\      /  F ield         | OpenFOAM: The Open Source CFD Toolbox
   \\    /   O peration     | Website:  https://openfoam.org
    \\  /    A nd           | Version:  7
     \\/     M anipulation  |
\*---------------------------------------------------------------------------*/
FoamFile
{
    version     2.0;
    format      ascii;
    class       volScalarField;
    location    "2";
    object      rho;
}
// * * * * * * * * * * * * * * * * * * * * * * * * * * * * * * * * * * * * * //

dimensions      [1 -3 0 0 0 0 0];

internalField   nonuniform List<scalar> 
4032
(
1.40001
1.40001
1.40001
1.40001
1.40001
1.40001
1.40001
1.40001
1.40001
1.40001
1.40001
1.40001
3.49208
5.40562
5.48302
5.54363
5.61528
5.68075
5.73815
5.7848
5.82072
5.84657
5.86682
5.88575
1.40001
1.40001
1.40001
1.40001
1.40001
1.40001
1.40001
1.40001
1.40001
1.40001
1.40001
1.40001
3.41821
5.37368
5.47192
5.53324
5.60512
5.66963
5.72538
5.76953
5.80245
5.82507
5.84211
5.85919
1.40001
1.40001
1.40001
1.40001
1.40001
1.40001
1.40001
1.40001
1.40001
1.40001
1.40001
1.40001
3.26858
5.33455
5.4528
5.51461
5.58804
5.65256
5.70715
5.74832
5.77675
5.79475
5.8069
5.82188
1.40001
1.40001
1.40001
1.40001
1.40001
1.40001
1.40001
1.40001
1.40001
1.40001
1.40001
1.40001
3.05177
5.274
5.4287
5.48815
5.56093
5.62351
5.67628
5.71487
5.7393
5.75206
5.75657
5.7646
1.40001
1.40001
1.40001
1.40001
1.40001
1.40001
1.40001
1.40001
1.40001
1.40001
1.40001
1.40001
2.76826
5.17323
5.40506
5.45896
5.52984
5.58894
5.63639
5.66653
5.67895
5.6831
5.68064
5.69198
1.40001
1.40001
1.40001
1.40001
1.40001
1.40001
1.40001
1.40001
1.40001
1.40001
1.40001
1.40001
2.43554
5.02656
5.40607
5.44504
5.50309
5.5518
5.5902
5.61173
5.61632
5.61515
5.60363
5.58479
1.40001
1.40001
1.40001
1.40001
1.40001
1.40001
1.40001
1.40001
1.40001
1.40001
1.40001
1.40001
2.05014
4.81026
5.41149
5.42269
5.46906
5.5098
5.53838
5.54519
5.52715
5.48666
5.43956
5.4164
1.40001
1.40001
1.40001
1.40001
1.40001
1.40001
1.40001
1.40001
1.40001
1.40001
1.40001
1.40001
1.64722
4.53093
5.45057
5.41669
5.43649
5.4514
5.46024
5.44859
5.41341
5.354
5.26555
5.21908
1.40001
1.40001
1.40001
1.40001
1.40001
1.40001
1.40001
1.40001
1.40001
1.40001
1.40001
1.40001
1.41737
4.00087
5.33392
5.32184
5.34339
5.35695
5.35669
5.33448
5.27209
5.14845
4.81676
3.96054
1.40001
1.40001
1.40001
1.40001
1.40001
1.40001
1.40001
1.40001
1.40001
1.40001
1.40001
1.40001
1.40002
3.2858
5.16661
5.27908
5.28896
5.29223
5.27094
5.2258
5.12613
4.92602
4.56993
3.67792
1.40001
1.40001
1.40001
1.40001
1.40001
1.40001
1.40001
1.40001
1.40001
1.40001
1.40001
1.40001
1.4
2.5224
4.92142
5.23443
5.22707
5.22292
5.18219
5.10816
4.97949
4.73925
4.37295
3.55715
1.40001
1.40001
1.40001
1.40001
1.40001
1.40001
1.40001
1.40001
1.40001
1.40001
1.40001
1.40001
1.4
1.77965
4.63875
5.29032
5.20923
5.14886
5.08332
4.98705
4.8395
4.60433
4.21227
3.56719
1.40001
1.40001
1.40001
1.40001
1.40001
1.40001
1.40001
1.40001
1.40001
1.40001
1.40001
1.40001
1.40001
1.4298
3.88355
5.11597
5.09622
5.05484
4.98804
4.87902
4.72046
4.4912
4.11095
3.59633
1.40001
1.40001
1.40001
1.40001
1.40001
1.40001
1.40001
1.40001
1.40001
1.40001
1.40001
1.40001
1.40001
1.39994
2.78796
4.92389
5.08585
5.03746
4.95246
4.81731
4.63677
4.40042
4.04686
3.63646
1.40001
1.40001
1.40001
1.40001
1.40001
1.40001
1.40001
1.40001
1.40001
1.40001
1.40001
1.40001
1.40001
1.39999
1.74363
4.62531
5.15431
5.03335
4.9058
4.74523
4.55995
4.3242
4.0149
3.67822
1.40001
1.40001
1.40001
1.40001
1.40001
1.40001
1.40001
1.40001
1.40001
1.40001
1.40001
1.40001
1.40001
1.4
1.41786
3.69396
4.9997
4.9398
4.8243
4.6743
4.49609
4.27289
4.00415
3.7126
1.40001
1.40001
1.40001
1.40001
1.40001
1.40001
1.40001
1.40001
1.40001
1.40001
1.40001
1.40001
1.40001
1.4
1.39992
2.41766
4.8145
4.92703
4.81563
4.66805
4.48289
4.2618
4.01159
3.74816
1.40001
1.40001
1.40001
1.40001
1.40001
1.40001
1.40001
1.40001
1.40001
1.40001
1.40001
1.40001
1.40001
1.40001
1.39998
1.56025
4.06616
4.90911
4.78054
4.6468
4.47023
4.26024
4.02705
3.78339
1.40001
1.40001
1.40001
1.40001
1.40001
1.40001
1.40001
1.40001
1.40001
1.40001
1.40001
1.40001
1.40001
1.40001
1.4
1.4027
2.7419
4.69574
4.754
4.63488
4.4733
4.2753
4.05899
3.83054
1.40001
1.40001
1.40001
1.40001
1.40001
1.40001
1.40001
1.40001
1.40001
1.40001
1.40001
1.40001
1.40001
1.40001
1.4
1.4
1.66414
4.07065
4.79246
4.64583
4.48424
4.29233
4.08745
3.87272
1.40001
1.40001
1.40001
1.40001
1.40001
1.40001
1.40001
1.40001
1.40001
1.40001
1.40001
1.40001
1.40001
1.40001
1.40001
1.4
1.40821
2.71138
4.60035
4.63308
4.48152
4.30475
4.11464
3.91594
1.40001
1.40001
1.40001
1.40001
1.40001
1.40001
1.40001
1.40001
1.40001
1.40001
1.40001
1.40001
1.40001
1.40001
1.40001
1.4
1.40003
1.64639
3.87822
4.68836
4.50952
4.33855
4.15398
3.96531
1.40001
1.40001
1.40001
1.40001
1.40001
1.40001
1.40001
1.40001
1.40001
1.40001
1.40001
1.40001
1.40001
1.40001
1.40001
1.40001
1.40001
1.40725
2.41678
4.38002
4.52379
4.36596
4.19009
4.00963
1.40001
1.40001
1.40001
1.40001
1.40001
1.40001
1.40001
1.40001
1.40001
1.40001
1.40001
1.40001
1.40001
1.40001
1.40001
1.40001
1.40001
1.40004
1.54225
3.42468
4.55057
4.41943
4.25089
4.07162
1.40001
1.40001
1.40001
1.40001
1.40001
1.40001
1.40001
1.40001
1.40001
1.40001
1.40001
1.40001
1.40001
1.40001
1.40001
1.40001
1.40001
1.40001
1.40277
2.02592
4.0663
4.46699
4.29461
4.1184
1.40001
1.40001
1.40001
1.40001
1.40001
1.40001
1.40001
1.40001
1.40001
1.40001
1.40001
1.40001
1.40001
1.40001
1.40001
1.40001
1.40001
1.40001
1.40002
1.4502
2.75678
4.28567
4.32978
4.18277
1.40001
1.40001
1.40001
1.40001
1.40001
1.40001
1.40001
1.40001
1.40001
1.40001
1.40001
1.40001
1.40001
1.40001
1.40001
1.40001
1.40001
1.40001
1.40001
1.40068
1.65513
3.43251
4.33522
4.26841
1.40001
1.40001
1.40001
1.40001
1.40001
1.40001
1.40001
1.40001
1.40001
1.40001
1.40001
1.40001
1.40001
1.40001
1.40001
1.40001
1.40001
1.40001
1.40001
1.40001
1.40906
2.04927
3.8475
4.29345
1.40001
1.40001
1.40001
1.40001
1.40001
1.40001
1.40001
1.40001
1.40001
1.40001
1.40001
1.40001
1.40001
1.40001
1.40001
1.40001
1.40001
1.40001
1.40001
1.40001
1.40008
1.45429
2.51841
4.05983
1.40001
1.40001
1.40001
1.40001
1.40001
1.40001
1.40001
1.40001
1.40001
1.40001
1.40001
1.40001
1.40001
1.40001
1.40001
1.40001
1.40001
1.40001
1.40001
1.40001
1.40001
1.40086
1.56766
2.98553
1.40001
1.40001
1.40001
1.40001
1.40001
1.40001
1.40001
1.40001
1.40001
1.40001
1.40001
1.40001
1.40001
1.40001
1.40001
1.40001
1.40001
1.40001
1.40001
1.40001
1.40001
1.40001
1.40489
1.76174
1.40001
1.40001
1.40001
1.40001
1.40001
1.40001
1.40001
1.40001
1.40001
1.40001
1.40001
1.40001
1.40001
1.40001
1.40001
1.40001
1.40001
1.40001
1.40001
1.40001
1.40001
1.40001
1.40004
1.4186
1.40001
1.40001
1.40001
1.40001
1.40001
1.40001
1.40001
1.40001
1.40001
1.40001
1.40001
1.40001
1.40001
1.40001
1.40001
1.40001
1.40001
1.40001
1.40001
1.40001
1.40001
1.40001
1.40001
1.40021
1.40001
1.40001
1.40001
1.40001
1.40001
1.40001
1.40001
1.40001
1.40001
1.40001
1.40001
1.40001
1.40001
1.40001
1.40001
1.40001
1.40001
1.40001
1.40001
1.40001
1.40001
1.40001
1.40001
1.40001
1.40001
1.40001
1.40001
1.40001
1.40001
1.40001
1.40001
1.40001
1.40001
1.40001
1.40001
1.40001
1.40001
1.40001
1.40001
1.40001
1.40001
1.40001
1.40001
1.40001
1.40001
1.40001
1.40001
1.40001
1.40001
1.40001
1.40001
1.40001
1.40001
1.40001
1.40001
1.40001
1.40001
1.40001
1.40001
1.40001
1.40001
1.40001
1.40001
1.40001
1.40001
1.40001
1.40001
1.40001
1.40001
1.40001
1.40001
1.40001
1.40001
1.40001
1.40001
1.40001
1.40001
1.40001
1.40001
1.40001
1.40001
1.40001
1.40001
1.40001
1.40001
1.40001
1.40001
1.40001
1.40001
1.40001
1.40001
1.40001
1.40001
1.40001
1.40001
1.40001
1.40001
1.40001
1.40001
1.40001
1.40001
1.40001
1.40001
1.40001
1.40001
1.40001
1.40001
1.40001
1.40001
1.40001
1.40001
1.40001
1.40001
1.40001
1.40001
1.40001
1.40001
1.40001
1.40001
1.40001
1.40001
1.40001
1.40001
1.40001
1.40001
1.40001
1.40001
1.40001
1.40001
1.40001
1.40001
1.40001
1.40001
1.40001
1.40001
1.40001
1.40001
1.40001
1.40001
1.40001
1.40001
1.40001
1.40001
1.40001
1.40001
1.40001
1.40001
1.40001
1.40001
1.40001
1.40001
1.40001
1.40001
1.40001
1.40001
1.40001
1.40001
1.40001
1.40001
1.40001
1.40001
1.40001
1.40001
1.40001
1.40001
1.40001
1.40001
1.40001
1.32427
0.522599
0.213018
0.211027
0.249645
0.329838
0.417506
0.501366
0.590978
0.652756
0.711025
0.800004
0.934263
0.994561
0.992291
0.964643
0.946274
0.959665
0.978645
1.01997
1.06089
1.06369
1.05786
1.03631
1.02414
1.0283
1.04322
1.06954
1.07723
1.07195
1.05753
1.04469
1.04541
1.05129
1.06203
1.06675
1.06512
1.05675
1.04558
1.04601
1.08935
1.28979
1.81322
2.53728
3.18276
3.39966
3.29222
3.10821
3.02954
3.00117
2.97416
2.92723
2.88039
2.82695
2.76392
2.70552
2.66484
2.63269
2.61279
2.59927
2.57263
2.53893
2.50002
2.44671
2.38108
2.33145
2.30332
2.28275
2.27271
2.27394
2.26548
2.24474
2.21927
2.17665
2.09879
2.02743
1.9971
1.9787
1.9636
1.95627
1.94547
1.92551
1.90126
1.85896
1.79347
1.752
1.7343
1.72045
1.70951
1.70515
1.7039
1.69574
1.68438
1.66923
1.63873
1.57073
1.9905
1.27054
0.844367
0.659876
0.604781
0.592284
0.589647
0.576858
0.572409
0.586614
0.627151
0.690615
0.784589
0.891381
0.923745
0.924986
0.925813
0.943444
0.9735
1.0255
1.06654
1.07222
1.07199
1.0631
1.05053
1.04976
1.05768
1.08008
1.09399
1.09249
1.08501
1.06963
1.06127
1.06273
1.06838
1.07528
1.07498
1.06995
1.07085
1.11329
1.33849
1.66586
1.90478
2.16057
2.59195
2.96287
3.11412
3.08804
3.06206
3.04028
2.99738
2.94754
2.90455
2.85877
2.80928
2.75179
2.69513
2.65562
2.62654
2.60614
2.58946
2.56133
2.52548
2.48264
2.42989
2.36972
2.32381
2.30014
2.28496
2.27582
2.26036
2.23951
2.21401
2.17836
2.12706
2.06476
2.0126
1.98665
1.9696
1.95544
1.94206
1.92459
1.90184
1.86855
1.82283
1.77577
1.74707
1.73159
1.71999
1.71406
1.70786
1.69466
1.67917
1.66035
1.63628
1.58544
2.46422
1.82914
1.43618
1.12268
0.909191
0.802842
0.758668
0.729169
0.679683
0.658584
0.673956
0.71434
0.745119
0.797545
0.870053
0.909483
0.937011
0.969306
1.01052
1.05951
1.10295
1.12445
1.121
1.11888
1.11937
1.11849
1.12231
1.12991
1.13287
1.1303
1.12372
1.11465
1.10812
1.10715
1.10755
1.10784
1.10791
1.11734
1.18069
1.4229
1.80766
1.993
2.03551
2.0552
2.16379
2.47318
2.89749
3.13696
3.21298
3.17588
3.08855
3.01589
2.95761
2.90851
2.86955
2.83435
2.79021
2.73158
2.68005
2.64554
2.6152
2.58844
2.55882
2.52511
2.49151
2.45245
2.3992
2.34653
2.31894
2.29737
2.27418
2.24657
2.21372
2.17945
2.14907
2.11534
2.06968
2.02137
1.99351
1.97414
1.95422
1.93086
1.90276
1.87528
1.85133
1.82483
1.79223
1.76512
1.74906
1.73507
1.72005
1.7027
1.68132
1.65481
1.62877
1.5974
2.82756
2.2398
1.85401
1.57045
1.32956
1.10227
0.969228
0.948923
0.9238
0.869798
0.811875
0.764008
0.76028
0.764009
0.788154
0.836291
0.883385
0.924867
0.978569
1.02862
1.06528
1.09888
1.10703
1.12243
1.15423
1.17686
1.18395
1.18191
1.17796
1.17345
1.16753
1.16239
1.15817
1.15061
1.14365
1.14418
1.16061
1.26131
1.51316
1.91942
2.09631
2.14455
2.13239
2.09182
2.07486
2.10975
2.32517
2.72378
3.03341
3.12878
3.12245
3.09452
3.04447
3.00064
2.96308
2.92223
2.87838
2.81624
2.74225
2.69504
2.66491
2.63912
2.61637
2.58719
2.55641
2.52526
2.48423
2.42179
2.36016
2.32451
2.29583
2.26474
2.23318
2.20726
2.18501
2.16116
2.12833
2.0781
2.03004
2.0019
1.9777
1.95052
1.92357
1.90365
1.88641
1.86884
1.84827
1.82192
1.7939
1.77047
1.74952
1.72538
1.69492
1.66162
1.64
1.61868
3.05716
2.58347
2.17176
1.88136
1.67847
1.48548
1.26479
1.1067
1.07912
1.04609
0.984376
0.888926
0.833872
0.804797
0.804862
0.818309
0.839949
0.861851
0.887919
0.914209
0.941622
0.987766
1.041
1.08387
1.13022
1.16907
1.17688
1.17636
1.17771
1.18446
1.19402
1.20135
1.2004
1.19072
1.17632
1.18946
1.32243
1.66644
1.98101
2.20558
2.19806
2.16732
2.13543
2.10721
2.08544
2.07564
2.08097
2.17947
2.44982
2.77435
2.9859
3.04946
3.03125
3.03262
3.04168
3.00391
2.95651
2.8904
2.80708
2.7322
2.69562
2.671
2.65344
2.63613
2.60994
2.58104
2.54699
2.49163
2.40782
2.33814
2.3009
2.27571
2.25771
2.24556
2.23075
2.20982
2.18224
2.13722
2.0711
2.02145
1.99546
1.97649
1.96097
1.9477
1.93333
1.91686
1.89883
1.87571
1.84163
1.80382
1.77296
1.74329
1.71345
1.69037
1.6775
1.654
3.20902
2.8205
2.47839
2.14817
1.88921
1.73761
1.57747
1.39109
1.23253
1.18421
1.14471
1.07725
1.00598
0.950482
0.89565
0.873859
0.875642
0.872714
0.856023
0.849394
0.852624
0.867722
0.913945
0.971482
1.03939
1.11164
1.13675
1.15129
1.16341
1.17384
1.18818
1.19987
1.19899
1.19717
1.21214
1.35035
1.77013
2.08722
2.21406
2.23335
2.2149
2.18615
2.14578
2.1087
2.08808
2.07642
2.06233
2.05183
2.07295
2.19808
2.45152
2.7333
2.88622
2.97575
3.00899
3.02615
3.00084
2.94537
2.87751
2.79021
2.7214
2.68779
2.66373
2.65244
2.63826
2.61117
2.57778
2.52939
2.45042
2.36148
2.31492
2.29254
2.27471
2.26482
2.25927
2.24155
2.21838
2.18159
2.11329
2.04798
2.02168
2.00623
1.99291
1.98472
1.97502
1.9592
1.94145
1.91789
1.8781
1.82583
1.78285
1.75434
1.73772
1.72527
1.71516
1.69199
3.31835
2.97243
2.67842
2.39729
2.12259
1.89756
1.76421
1.63712
1.47759
1.34324
1.26492
1.20774
1.14942
1.09321
1.02525
0.964449
0.935792
0.907126
0.877006
0.861981
0.86609
0.868472
0.870256
0.884062
0.916622
0.965114
1.01581
1.06432
1.10951
1.13173
1.16222
1.18782
1.18771
1.2202
1.39434
1.79118
2.14282
2.23975
2.25668
2.24513
2.2057
2.16356
2.12557
2.09389
2.07561
2.06469
2.05529
2.03336
2.02585
2.01217
2.04126
2.16976
2.42414
2.68902
2.8524
2.94856
2.96553
2.9545
2.9219
2.85792
2.7769
2.71688
2.68022
2.65423
2.62929
2.60426
2.576
2.53944
2.48157
2.40156
2.34057
2.31277
2.29316
2.27751
2.2678
2.25424
2.23359
2.20331
2.14869
2.08615
2.0565
2.03926
2.02386
2.01173
2.00114
1.98694
1.96931
1.94188
1.89186
1.82988
1.79237
1.77671
1.76602
1.75747
1.7517
1.7292
3.40249
3.10392
2.81808
2.55897
2.32928
2.11348
1.91181
1.77694
1.66989
1.5417
1.42096
1.32786
1.26987
1.22161
1.16286
1.09901
1.04561
1.00071
0.964365
0.938111
0.926347
0.907752
0.888069
0.881349
0.882797
0.888139
0.901671
0.928827
0.976036
1.03122
1.08696
1.13027
1.17679
1.43567
1.81645
2.14559
2.27246
2.29181
2.27431
2.23698
2.18916
2.14539
2.11119
2.0871
2.06822
2.05213
2.03991
2.02603
2.00948
1.99536
1.97932
1.95639
1.9954
2.14339
2.40016
2.64866
2.82073
2.89261
2.91059
2.89482
2.835
2.76325
2.69956
2.65747
2.62285
2.59674
2.57139
2.54064
2.50152
2.45014
2.3887
2.33682
2.30893
2.28945
2.27248
2.25628
2.23656
2.21128
2.17575
2.1313
2.09423
2.0705
2.0512
2.03292
2.01646
2.00094
1.98232
1.95123
1.89713
1.83759
1.80956
1.79658
1.78628
1.77667
1.77521
1.75616
3.47006
3.20545
2.94792
2.69625
2.47542
2.28883
2.1039
1.93421
1.80523
1.69002
1.58379
1.48258
1.3944
1.32133
1.2644
1.21512
1.16194
1.10484
1.047
1.00898
0.983464
0.955428
0.929222
0.904209
0.897917
0.892609
0.892165
0.893415
0.899221
0.921744
0.965626
1.0157
1.28962
1.78093
2.05811
2.20009
2.2483
2.23897
2.23079
2.20316
2.17668
2.15056
2.13039
2.10835
2.07892
2.04721
2.02686
2.01459
2.00065
1.98652
1.9726
1.96027
1.92451
1.90745
1.95455
2.10247
2.3508
2.59099
2.79286
2.84815
2.83778
2.80484
2.73917
2.68118
2.63029
2.59178
2.56483
2.53834
2.51072
2.48229
2.44334
2.39081
2.33748
2.30175
2.27875
2.25754
2.23428
2.21035
2.18771
2.16317
2.13495
2.10482
2.07657
2.05152
2.02869
2.00629
1.98202
1.95166
1.91345
1.87724
1.84271
1.81843
1.80569
1.79814
1.79776
1.77584
3.53384
3.29217
3.05032
2.8228
2.62189
2.42168
2.2349
2.08788
1.95418
1.81972
1.69679
1.61123
1.52741
1.44396
1.36269
1.3112
1.26352
1.21342
1.15741
1.10781
1.07082
1.03341
1.00438
0.979313
0.959404
0.937049
0.919637
0.905256
0.89693
0.898077
0.921928
1.12701
1.63298
1.88517
1.99285
2.05253
2.0589
2.07021
2.10847
2.13862
2.15732
2.16608
2.15487
2.12439
2.08044
2.03946
2.01684
2.00334
1.99934
1.99098
1.97932
1.96323
1.93734
1.89268
1.85584
1.85697
1.90954
2.06512
2.32888
2.5649
2.72424
2.76343
2.75105
2.71619
2.65921
2.60173
2.57325
2.55205
2.52655
2.50154
2.47348
2.43465
2.38316
2.32901
2.28904
2.2638
2.24064
2.21738
2.19677
2.17834
2.15865
2.13277
2.10083
2.06981
2.04141
2.01315
1.98315
1.95405
1.93306
1.91403
1.88951
1.85871
1.82755
1.80253
1.78786
1.76222
3.60037
3.37239
3.14238
2.93353
2.73843
2.54408
2.3636
2.21594
2.07691
1.94568
1.82344
1.72766
1.6353
1.55641
1.47758
1.41221
1.34875
1.29114
1.24433
1.20317
1.16106
1.12255
1.07715
1.04461
1.01388
0.986588
0.958341
0.933912
0.91424
0.940338
1.12551
1.5219
1.85383
1.86749
1.85773
1.83691
1.8419
1.87673
1.9291
2.00068
2.06685
2.1109
2.10866
2.09147
2.05511
2.02136
2.00999
2.00399
2.00214
1.99584
1.98398
1.96621
1.93812
1.89542
1.84784
1.832
1.8257
1.8307
1.89262
2.04731
2.27781
2.49568
2.61901
2.6684
2.6527
2.61495
2.59815
2.5831
2.56272
2.53838
2.50521
2.46163
2.41335
2.3586
2.3078
2.27734
2.25725
2.23726
2.21637
2.19517
2.17273
2.14644
2.11422
2.08114
2.0516
2.02377
1.9966
1.97484
1.95784
1.94089
1.9209
1.89189
1.85277
1.81376
1.79109
1.75941
3.65684
3.43545
3.22167
3.02971
2.84021
2.64793
2.48673
2.33884
2.19641
2.05521
1.94655
1.84473
1.74654
1.65302
1.57782
1.51241
1.44437
1.38288
1.32632
1.28562
1.24189
1.20231
1.16399
1.12722
1.09119
1.05844
1.02519
0.998759
1.02162
1.2158
1.58569
1.90495
1.92463
1.89039
1.82894
1.7961
1.78754
1.78531
1.78533
1.80486
1.84094
1.88368
1.91884
1.93596
1.95387
1.9526
1.9505
1.95871
1.98182
1.98936
1.98091
1.9638
1.93116
1.8945
1.86675
1.84072
1.82276
1.81061
1.80109
1.80912
1.8571
1.98749
2.1676
2.36684
2.48925
2.55091
2.56664
2.57384
2.58915
2.57669
2.54229
2.49973
2.44998
2.38853
2.3229
2.28943
2.27177
2.25618
2.24016
2.22114
2.19845
2.16921
2.12829
2.08328
2.05294
2.03258
2.01572
2.00101
1.98576
1.9677
1.94427
1.91168
1.87103
1.83154
1.80232
1.76239
3.71237
3.50089
3.30231
3.11996
2.93362
2.75144
2.60006
2.45163
2.30354
2.16679
2.06161
1.95153
1.85334
1.75353
1.67985
1.60323
1.53409
1.47099
1.41745
1.37006
1.31962
1.27322
1.23452
1.20008
1.16092
1.12473
1.09272
1.11517
1.32785
1.72881
2.01268
2.04415
1.992
1.92857
1.88792
1.86046
1.83049
1.8021
1.78308
1.76801
1.75482
1.75053
1.75282
1.75473
1.77257
1.79906
1.82778
1.85845
1.88286
1.9032
1.92193
1.92182
1.91132
1.89625
1.88197
1.86019
1.83371
1.80687
1.7885
1.78143
1.77538
1.76892
1.79771
1.88565
2.05558
2.2362
2.37553
2.45729
2.53218
2.54415
2.53991
2.52625
2.49096
2.43449
2.36813
2.31095
2.28013
2.26294
2.25219
2.23844
2.22138
2.19948
2.16227
2.10472
2.06082
2.04175
2.0284
2.01586
2.00299
1.98756
1.96535
1.9306
1.88338
1.84165
1.81081
1.77171
3.77062
3.57103
3.38492
3.20678
3.0212
2.85397
2.70454
2.55703
2.40233
2.28098
2.16821
2.05692
1.94654
1.855
1.77995
1.69737
1.62554
1.55452
1.5054
1.45189
1.40023
1.3499
1.30918
1.26938
1.23165
1.19487
1.22439
1.47131
1.91518
2.17333
2.18818
2.1302
2.06107
2.01737
1.98615
1.95266
1.90917
1.86236
1.82119
1.78011
1.74756
1.73189
1.72561
1.72728
1.70673
1.67857
1.67109
1.67875
1.70145
1.72526
1.7626
1.80062
1.83147
1.84935
1.84371
1.83334
1.8199
1.80308
1.79206
1.7716
1.75423
1.7407
1.73433
1.72746
1.74724
1.80037
1.93459
2.10921
2.27866
2.39327
2.47819
2.4813
2.46854
2.45062
2.41715
2.36002
2.31414
2.28422
2.26281
2.24429
2.23015
2.21258
2.18785
2.14747
2.09816
2.06056
2.03744
2.02253
2.01043
1.99799
1.98151
1.95514
1.9048
1.83536
1.80203
1.78191
3.82568
3.63883
3.46151
3.2875
3.10814
2.95021
2.8036
2.6532
2.50365
2.38849
2.27046
2.15812
2.03967
1.9591
1.87461
1.79282
1.71393
1.64656
1.5934
1.53148
1.47877
1.42609
1.37803
1.3365
1.30479
1.34975
1.63202
2.09397
2.33851
2.34055
2.28424
2.21331
2.15996
2.11862
2.07581
2.02772
1.9753
1.92312
1.876
1.8395
1.80927
1.78009
1.7551
1.73325
1.71265
1.68891
1.65054
1.61546
1.60197
1.60104
1.61214
1.6344
1.6608
1.69814
1.71668
1.72323
1.73746
1.74727
1.73915
1.7305
1.73309
1.73971
1.73378
1.71967
1.70036
1.66728
1.67094
1.71068
1.81753
1.98366
2.17888
2.30726
2.37143
2.40401
2.39225
2.36352
2.34708
2.32212
2.28632
2.26366
2.24366
2.21915
2.19376
2.1657
2.12926
2.09196
2.0588
2.03251
2.01637
2.00537
1.99332
1.97322
1.92962
1.85144
1.81018
1.7944
3.89121
3.71143
3.53505
3.3627
3.19517
3.04116
2.89548
2.74065
2.60415
2.48917
2.37548
2.24956
2.13764
2.05808
1.96895
1.88638
1.79637
1.73863
1.67724
1.61269
1.55345
1.49294
1.44856
1.41392
1.47632
1.82362
2.30811
2.52061
2.49424
2.42513
2.35629
2.30144
2.25669
2.21158
2.16352
2.11136
2.05725
2.00359
1.95466
1.91568
1.8824
1.84944
1.81494
1.77976
1.74732
1.71338
1.66775
1.61806
1.59355
1.58648
1.57989
1.5687
1.56345
1.56413
1.5628
1.5691
1.56942
1.57683
1.60178
1.63776
1.66217
1.67898
1.68501
1.68118
1.67067
1.65732
1.63523
1.61379
1.61066
1.63845
1.72012
1.87581
2.03877
2.2166
2.2746
2.30165
2.31804
2.30757
2.29372
2.28865
2.26713
2.23955
2.21052
2.17399
2.13772
2.10782
2.07997
2.05726
2.03609
2.01479
1.99711
1.97761
1.94594
1.9015
1.85616
1.81105
3.942
3.7694
3.60066
3.43145
3.27113
3.12452
2.98073
2.83204
2.70081
2.58413
2.46943
2.34178
2.23984
2.15303
2.06468
1.96989
1.88379
1.82664
1.75786
1.69528
1.62378
1.56541
1.53324
1.62701
2.02756
2.57461
2.72962
2.65069
2.54806
2.4856
2.43546
2.3932
2.35033
2.30589
2.25609
2.1975
2.13253
2.07186
2.02384
1.98547
1.95028
1.91462
1.87834
1.84055
1.801
1.76121
1.72204
1.68019
1.63935
1.60667
1.58151
1.56183
1.5517
1.5432
1.53428
1.52196
1.49705
1.46888
1.46312
1.47173
1.49683
1.52756
1.5693
1.59905
1.61254
1.61039
1.59935
1.59084
1.57728
1.56582
1.56808
1.58717
1.64174
1.75934
1.92251
2.05837
2.16919
2.21458
2.25356
2.2564
2.25176
2.24978
2.23888
2.20396
2.16119
2.12016
2.09171
2.07514
2.05744
2.03534
2.00806
1.97641
1.95038
1.92905
1.90376
1.84948
4.01084
3.84415
3.67865
3.51193
3.35831
3.21656
3.07042
2.92235
2.79688
2.68005
2.55998
2.43283
2.33519
2.24328
2.15256
2.05188
1.97409
1.90854
1.83883
1.76482
1.69479
1.65656
1.78946
2.26644
2.7684
2.9282
2.87807
2.76882
2.65341
2.57425
2.5314
2.48629
2.4402
2.39358
2.34299
2.28345
2.21222
2.1426
2.09207
2.05416
2.01943
1.98376
1.94571
1.9056
1.8647
1.82321
1.78054
1.73459
1.68997
1.65293
1.62106
1.59478
1.57322
1.55158
1.53032
1.51051
1.49085
1.46456
1.43037
1.40674
1.39958
1.40384
1.41834
1.44089
1.47769
1.50238
1.50344
1.50274
1.51136
1.52415
1.53359
1.52437
1.51857
1.52577
1.5618
1.64094
1.76665
1.91277
2.05543
2.11196
2.15084
2.19151
2.20209
2.20143
2.18973
2.15361
2.11754
2.08878
2.06722
2.04836
2.02237
1.98733
1.9542
1.93273
1.91827
1.87935
4.0975
3.92817
3.76259
3.59933
3.44781
3.30281
3.15494
3.01325
2.89067
2.77037
2.64292
2.52113
2.42827
2.33355
2.237
2.13411
2.06292
1.99215
1.91391
1.83679
1.80473
1.97531
2.53305
3.02409
3.14539
3.08175
2.97421
2.86953
2.75792
2.67552
2.61852
2.56484
2.51389
2.46603
2.41852
2.36715
2.30503
2.23019
2.16174
2.11338
2.07491
2.03832
2.00082
1.96214
1.92192
1.87949
1.8337
1.78547
1.74052
1.70256
1.66901
1.6393
1.61243
1.58567
1.562
1.54213
1.51839
1.48103
1.436
1.40245
1.38543
1.37476
1.36996
1.36717
1.37009
1.37685
1.38571
1.38502
1.38449
1.40092
1.42287
1.45261
1.4701
1.4617
1.45182
1.45587
1.47412
1.52611
1.63458
1.78494
1.91471
1.9907
2.04504
2.11228
2.14942
2.14858
2.12843
2.09061
2.07535
2.05639
2.03177
2.00592
1.97802
1.94845
1.92196
1.88446
4.17717
4.00609
3.83898
3.6792
3.53032
3.38328
3.23443
3.09889
2.97451
2.85183
2.72537
2.61233
2.51735
2.41995
2.31623
2.21868
2.15037
2.06643
1.98868
1.96581
2.19702
2.81687
3.30756
3.35129
3.27002
3.15474
3.04941
2.96886
2.88072
2.78968
2.71173
2.6457
2.58733
2.53552
2.48803
2.44198
2.39111
2.32556
2.24463
2.17278
2.12288
2.08446
2.05066
2.0185
1.98443
1.94408
1.89227
1.82929
1.7761
1.74381
1.71946
1.69587
1.67002
1.63874
1.60091
1.56436
1.53379
1.50418
1.46936
1.42924
1.3922
1.36917
1.35764
1.35057
1.34146
1.33762
1.33433
1.31852
1.29605
1.29388
1.30237
1.32517
1.35174
1.3749
1.38517
1.37759
1.37102
1.3822
1.41312
1.47358
1.55464
1.65167
1.74776
1.84798
1.94334
2.03685
2.07706
2.07006
2.0614
2.04953
2.03611
2.02854
2.01541
1.9855
1.95151
1.89938
4.23268
4.09887
3.92289
3.76725
3.61818
3.46636
3.31698
3.19072
3.06456
2.9371
2.80759
2.70619
2.60752
2.50756
2.39842
2.30909
2.22669
2.13649
2.16321
2.48007
3.1765
3.55396
3.54277
3.44626
3.33692
3.24505
3.16699
3.09291
3.00883
2.9098
2.81304
2.7346
2.66921
2.61067
2.55786
2.50889
2.45961
2.40299
2.3297
2.24632
2.17947
2.13259
2.09444
2.06064
2.0293
1.99566
1.95108
1.88988
1.82333
1.77348
1.74233
1.72025
1.7005
1.67865
1.64936
1.60974
1.56693
1.53272
1.50508
1.47492
1.43896
1.40156
1.37277
1.35276
1.33475
1.32001
1.31226
1.30385
1.28706
1.26954
1.2575
1.25299
1.25487
1.2571
1.26609
1.2745
1.28188
1.29419
1.3112
1.33414
1.37132
1.4053
1.43555
1.49533
1.59702
1.71468
1.81803
1.8971
1.98787
2.00232
1.99215
1.99472
1.99485
1.98788
1.97653
1.93296
4.10893
4.168
4.02224
3.856
3.70829
3.55336
3.40996
3.28398
3.15688
3.02129
2.89756
2.79986
2.69467
2.59012
2.47781
2.39404
2.29714
2.34718
2.81271
3.56601
3.9088
3.8536
3.69843
3.55683
3.4551
3.374
3.29346
3.20604
3.11097
3.00958
2.91078
2.82647
2.75506
2.69022
2.62962
2.57269
2.51767
2.46082
2.39552
2.32053
2.25062
2.19534
2.14858
2.10432
2.06152
2.0224
1.98368
1.93877
1.89006
1.84241
1.79951
1.76346
1.73111
1.69948
1.66725
1.63369
1.59986
1.57082
1.54566
1.51928
1.48904
1.45746
1.42788
1.39697
1.36287
1.32987
1.30647
1.29412
1.28676
1.27267
1.25522
1.24415
1.23062
1.21702
1.20215
1.19118
1.18811
1.19005
1.20115
1.21991
1.24428
1.27654
1.29033
1.29495
1.31347
1.37584
1.46941
1.55905
1.67525
1.79972
1.88321
1.90526
1.92267
1.94113
1.94888
1.9312
3.33321
4.1251
4.10427
3.95874
3.79691
3.64245
3.50601
3.37675
3.24648
3.10701
2.99283
2.89007
2.78145
2.66452
2.56461
2.46977
2.56136
3.13992
3.97219
4.22175
4.10727
3.94233
3.7972
3.67655
3.58521
3.49588
3.40073
3.30263
3.20334
3.10017
2.99663
2.90552
2.83013
2.76373
2.70104
2.63964
2.57817
2.51598
2.45241
2.38746
2.32366
2.26423
2.20957
2.15739
2.10507
2.05244
2.00354
1.96305
1.92855
1.89156
1.84892
1.8063
1.76874
1.7359
1.70552
1.67566
1.64354
1.60762
1.57034
1.53415
1.5041
1.48251
1.46237
1.43918
1.41212
1.37808
1.33484
1.2976
1.28043
1.2753
1.26828
1.25192
1.23129
1.21419
1.19574
1.17433
1.15228
1.13853
1.13587
1.13823
1.14435
1.16226
1.18825
1.19408
1.18821
1.1937
1.22869
1.27399
1.33199
1.43928
1.55989
1.657
1.74303
1.78861
1.8381
1.86829
2.00433
3.57367
4.09208
4.05621
3.90414
3.73172
3.59837
3.47154
3.33771
3.19891
3.08956
2.97965
2.86486
2.75076
2.65683
2.82777
3.57079
4.31671
4.60086
4.48402
4.27056
4.06389
3.90813
3.79135
3.69051
3.59416
3.49764
3.40104
3.30321
3.19936
3.09047
2.99018
2.90673
2.83451
2.7677
2.70276
2.63725
2.5716
2.50781
2.44667
2.38707
2.32755
2.26788
2.20849
2.14947
2.0921
2.04143
1.99996
1.96461
1.93087
1.89337
1.84707
1.79301
1.74961
1.72477
1.70548
1.68302
1.65503
1.62257
1.57825
1.52376
1.48824
1.47011
1.45616
1.44167
1.4196
1.38397
1.33813
1.29948
1.27529
1.26144
1.25335
1.24535
1.23186
1.20698
1.17511
1.14851
1.12693
1.11218
1.10711
1.10625
1.11058
1.11652
1.11722
1.11398
1.10041
1.10129
1.1166
1.13466
1.16779
1.23595
1.31908
1.40031
1.48756
1.56778
1.68481
1.44924
2.25174
3.7092
4.05863
4.01378
3.84887
3.69619
3.56135
3.42426
3.29498
3.19049
3.06675
2.94813
2.86812
3.12325
4.0907
4.74333
4.82797
4.73261
4.5611
4.39206
4.21453
4.0497
3.91117
3.79519
3.69333
3.59667
3.50008
3.39946
3.2912
3.17947
3.07665
2.98771
2.90776
2.83271
2.76099
2.69088
2.622
2.55566
2.4933
2.43493
2.378
2.31967
2.25931
2.19867
2.13999
2.08494
2.03471
1.99153
1.95622
1.92473
1.88796
1.84167
1.79137
1.746
1.71318
1.69112
1.67361
1.6528
1.61589
1.5683
1.52514
1.49147
1.4635
1.43837
1.41938
1.40269
1.37691
1.34282
1.30804
1.2798
1.25607
1.23695
1.22464
1.21283
1.1916
1.15989
1.13098
1.11316
1.101
1.09521
1.09112
1.08582
1.08202
1.07615
1.05614
1.03296
1.03099
1.03537
1.04608
1.07225
1.11361
1.15299
1.19158
1.23122
1.36222
1.40082
1.49765
2.46953
3.78616
4.02551
3.96372
3.81299
3.6613
3.512
3.40122
3.27179
3.15693
3.10871
3.51179
4.53447
5.26525
5.32098
5.10052
4.83594
4.64254
4.49961
4.34933
4.19179
4.04463
3.91471
3.79925
3.69212
3.58733
3.48024
3.37009
3.26282
3.16464
3.0742
2.98717
2.90193
2.81979
2.74194
2.66845
2.59922
2.53506
2.47672
2.42197
2.36679
2.30835
2.24718
2.18707
2.13143
2.0807
2.03216
1.98188
1.93264
1.895
1.86566
1.83227
1.79428
1.75672
1.71955
1.67934
1.6428
1.62126
1.59773
1.56252
1.52283
1.48846
1.4607
1.43614
1.4143
1.3969
1.3737
1.34053
1.30593
1.27735
1.25691
1.23931
1.21922
1.19689
1.17207
1.14656
1.12531
1.10792
1.09691
1.08786
1.07757
1.06663
1.05594
1.04014
1.01415
0.998792
0.994597
0.995047
1.00129
1.01522
1.02918
1.03947
1.04446
1.0865
1.40001
1.40226
1.55807
2.64975
3.82805
3.98157
3.91998
3.77082
3.61769
3.48735
3.3462
3.3852
3.97344
5.176
5.60253
5.54673
5.41871
5.22803
4.99681
4.78681
4.61977
4.46702
4.31655
4.17024
4.03257
3.90358
3.78102
3.66208
3.54504
3.43231
3.32907
3.23524
3.14592
3.05735
2.96807
2.87874
2.79128
2.70906
2.63524
2.57032
2.51291
2.45974
2.40688
2.3503
2.28635
2.21907
2.15914
2.1108
2.06799
2.02231
1.97022
1.91578
1.87211
1.84578
1.82156
1.78736
1.74663
1.70431
1.65994
1.62003
1.59084
1.56581
1.543
1.5206
1.49431
1.46406
1.42906
1.38818
1.36062
1.34193
1.32073
1.30112
1.28233
1.26195
1.23906
1.20948
1.17735
1.15058
1.13188
1.11799
1.10673
1.09582
1.08295
1.06563
1.04448
1.02646
1.0062
0.9948
0.988505
0.980485
0.975125
0.97421
0.9737
0.97091
0.962542
0.956715
1.40001
1.40002
1.40483
1.6246
2.79395
3.82624
3.95037
3.88057
3.73562
3.55444
3.62291
4.53282
5.75137
6.22597
6.10764
5.70636
5.4684
5.31071
5.13631
4.94136
4.74722
4.56833
4.40973
4.26546
4.12865
3.99543
3.86348
3.7321
3.60459
3.48722
3.38332
3.28975
3.20088
3.1131
3.02444
2.93366
2.8405
2.75004
2.67159
2.60663
2.54997
2.49578
2.44012
2.38258
2.31999
2.25126
2.18421
2.1267
2.08074
2.04232
2.00242
1.95617
1.90867
1.86385
1.83002
1.80722
1.77995
1.74
1.68255
1.62821
1.60961
1.60172
1.58829
1.56374
1.52966
1.49001
1.44825
1.40277
1.3698
1.35967
1.35176
1.33688
1.31723
1.28963
1.24572
1.21242
1.19966
1.18815
1.17241
1.15574
1.13945
1.12234
1.10081
1.06968
1.03781
1.02315
1.01918
1.00995
0.994964
0.978298
0.964971
0.956925
0.952048
0.946408
0.93641
0.917085
1.40001
1.40001
1.40004
1.40863
1.69058
2.87278
3.82851
3.90721
3.80844
3.88782
5.00847
6.3894
6.56228
6.39725
6.20344
5.88598
5.59289
5.3963
5.22535
5.04434
4.85376
4.66619
4.49343
4.33932
4.19869
4.06462
3.93106
3.79586
3.66361
3.54174
3.43293
3.33499
3.24395
3.15556
3.06659
2.97495
2.87896
2.78254
2.699
2.63482
2.5814
2.52934
2.47018
2.40279
2.33197
2.26373
2.2047