/*--------------------------------*- C++ -*----------------------------------*\
  =========                 |
  \\      /  F ield         | OpenFOAM: The Open Source CFD Toolbox
   \\    /   O peration     | Website:  https://openfoam.org
    \\  /    A nd           | Version:  7
     \\/     M anipulation  |
\*---------------------------------------------------------------------------*/
FoamFile
{
    version     2.0;
    format      ascii;
    class       volScalarField;
    location    "2";
    object      T;
}
// * * * * * * * * * * * * * * * * * * * * * * * * * * * * * * * * * * * * * //

dimensions      [0 0 0 1 0 0 0];

internalField   nonuniform List<scalar> 
4032
(
1
1
1
1
1
1
1
1
1
1
1
1
2.13186
2.72347
2.74749
2.75906
2.7698
2.77906
2.78976
2.80345
2.81956
2.83511
2.847
2.85367
1
1
1
1
1
1
1
1
1
1
1
1
2.11087
2.71834
2.74599
2.75722
2.76786
2.77686
2.78726
2.80052
2.81606
2.83092
2.84216
2.84848
1
1
1
1
1
1
1
1
1
1
1
1
2.05953
2.70923
2.74332
2.75414
2.76467
2.7734
2.7835
2.79626
2.811
2.825
2.83539
2.84141
1
1
1
1
1
1
1
1
1
1
1
1
1.97705
2.68982
2.73844
2.74844
2.75863
2.76683
2.77652
2.78893
2.80313
2.81636
2.82559
2.83038
1
1
1
1
1
1
1
1
1
1
1
1
1.85929
2.65542
2.72691
2.73799
2.74939
2.75758
2.7665
2.77767
2.79012
2.80167
2.80943
2.81482
1
1
1
1
1
1
1
1
1
1
1
1
1.70677
2.6031
2.70924
2.72543
2.73845
2.74607
2.75381
2.76402
2.77614
2.78663
2.79009
2.78675
1
1
1
1
1
1
1
1
1
1
1
1
1.48161
2.50688
2.68361
2.70692
2.72348
2.73155
2.73871
2.74693
2.75413
2.75744
2.75437
2.74915
1
1
1
1
1
1
1
1
1
1
1
1
1.17522
2.37663
2.66555
2.68533
2.70236
2.71037
2.71626
2.72049
2.72365
2.72624
2.72817
2.74235
1
1
1
1
1
1
1
1
1
1
1
1
1.00889
2.25183
2.63647
2.6531
2.67007
2.68058
2.6866
2.68719
2.68405
2.67398
2.63415
2.54097
1
1
1
1
1
1
1
1
1
1
1
1
1.00001
2.04119
2.6064
2.64084
2.65401
2.6605
2.65923
2.65496
2.64277
2.61509
2.5648
2.41403
1
1
1
1
1
1
1
1
1
1
1
1
1
1.70129
2.50961
2.61686
2.634
2.63989
2.63408
2.62263
2.6021
2.56243
2.50097
2.33096
1
1
1
1
1
1
1
1
1
1
1
1
1
1.23545
2.34889
2.5992
2.60629
2.61134
2.60652
2.59194
2.56553
2.52249
2.44651
2.30024
1
1
1
1
1
1
1
1
1
1
1
1
1
1.01475
2.17472
2.5399
2.56405
2.57585
2.57368
2.56068
2.53348
2.48948
2.41036
2.29254
1
1
1
1
1
1
1
1
1
1
1
1
1
1.00001
1.7796
2.44675
2.53521
2.54884
2.54609
2.53249
2.5049
2.46071
2.38595
2.29226
1
1
1
1
1
1
1
1
1
1
1
1
1
0.999997
1.19243
2.28478
2.5196
2.51449
2.51084
2.49774
2.47351
2.43245
2.36873
2.29261
1
1
1
1
1
1
1
1
1
1
1
1
1
0.999999
1.00859
2.07866
2.4664
2.46798
2.46583
2.45744
2.4387
2.40434
2.3525
2.28952
1
1
1
1
1
1
1
1
1
1
1
1
1
1
0.999992
1.56932
2.34647
2.44655
2.43493
2.42373
2.40561
2.37586
2.33346
2.28168
1
1
1
1
1
1
1
1
1
1
1
1
1
1
0.999996
1.08093
2.14188
2.41728
2.40077
2.38982
2.37232
2.34591
2.31074
2.26791
1
1
1
1
1
1
1
1
1
1
1
1
1
1
0.999999
1.00124
1.68973
2.29998
2.3773
2.36154
2.34299
2.31902
2.28926
2.25284
1
1
1
1
1
1
1
1
1
1
1
1
1
1
1
1
1.13526
2.1018
2.35359
2.33551
2.31743
2.2937
2.26646
2.23467
1
1
1
1
1
1
1
1
1
1
1
1
1
1
1
1
1.00369
1.64717
2.23065
2.31264
2.29096
2.26877
2.24435
2.2167
1
1
1
1
1
1
1
1
1
1
1
1
1
1
1
1
1.00001
1.12344
2.0168
2.28985
2.26745
2.24916
2.22662
2.20133
1
1
1
1
1
1
1
1
1
1
1
1
1
1
1
1
1
1.00313
1.4951
2.12512
2.2458
2.2259
2.20619
2.18417
1
1
1
1
1
1
1
1
1
1
1
1
1
1
1
1
1
1.00001
1.06793
1.85521
2.21505
2.20368
2.18786
2.16841
1
1
1
1
1
1
1
1
1
1
1
1
1
1
1
1
1
1
1.0011
1.30704
2.02081
2.18336
2.16211
2.14518
1
1
1
1
1
1
1
1
1
1
1
1
1
1
1
1
1
1
1
1.02231
1.60922
2.06905
2.14755
2.12817
1
1
1
1
1
1
1
1
1
1
1
1
1
1
1
1
1
1
1
1.00023
1.12306
1.80848
2.11168
2.1104
1
1
1
1
1
1
1
1
1
1
1
1
1
1
1
1
1
1
1
1
1.00361
1.30389
1.9171
2.08551
1
1
1
1
1
1
1
1
1
1
1
1
1
1
1
1
1
1
1
1
1.00002
1.02343
1.48899
1.95938
1
1
1
1
1
1
1
1
1
1
1
1
1
1
1
1
1
1
1
1
1
1.00028
1.07637
1.64085
1
1
1
1
1
1
1
1
1
1
1
1
1
1
1
1
1
1
1
1
1
1
1.00179
1.16819
1
1
1
1
1
1
1
1
1
1
1
1
1
1
1
1
1
1
1
1
1
1
1.00001
1.00735
1
1
1
1
1
1
1
1
1
1
1
1
1
1
1
1
1
1
1
1
1
1
1
1.00006
1
1
1
1
1
1
1
1
1
1
1
1
1
1
1
1
1
1
1
1
1
1
1
1
1
1
1
1
1
1
1
1
1
1
1
1
1
1
1
1
1
1
1
1
1
1
1
1
1
1
1
1
1
1
1
1
1
1
1
1
1
1
1
1
1
1
1
1
1
1
1
1
1
1
1
1
1
1
1
1
1
1
1
1
1
1
1
1
1
1
1
1
1
1
1
1
1
1
1
1
1
1
1
1
1
1
1
1
1
1
1
1
1
1
1
1
1
1
1
1
1
1
1
1
1
1
1
1
1
1
1
1
1
1
1
1
1
1
1
1
1
1
1
1
1
1
1
1
1
1
1
1
1
1
1
1
1
1
1
1
1
1
1
1
1
1
1
1
1.72257
1.23158
0.960228
1.00466
1.15216
1.31748
1.42014
1.4846
1.52762
1.56123
1.60791
1.66587
1.71557
1.73572
1.74765
1.75319
1.74614
1.73081
1.6971
1.69842
1.72425
1.7336
1.73399
1.72283
1.70462
1.69628
1.69441
1.70307
1.71191
1.713
1.71249
1.70857
1.70879
1.70994
1.71206
1.71253
1.7084
1.6998
1.69263
1.69433
1.72895
1.87462
2.15822
2.46066
2.67398
2.73895
2.70599
2.64817
2.60649
2.57847
2.55932
2.53907
2.52109
2.50032
2.47501
2.44977
2.42967
2.41295
2.4016
2.39296
2.37859
2.36059
2.34073
2.31708
2.29089
2.27067
2.25727
2.24561
2.23745
2.23471
2.2291
2.22095
2.21219
2.19757
2.17001
2.14561
2.13731
2.13308
2.13022
2.13049
2.12936
2.12453
2.11893
2.10619
2.08149
2.06476
2.05728
2.05033
2.04356
2.03951
2.03737
2.03245
2.0263
2.01734
2.00046
1.96341
1.96336
1.70595
1.48253
1.34763
1.33469
1.33449
1.3227
1.31105
1.32349
1.34318
1.38285
1.43208
1.4855
1.54167
1.57891
1.61261
1.63274
1.63175
1.62363
1.63285
1.65831
1.67188
1.67649
1.67437
1.6651
1.65704
1.65602
1.66324
1.67524
1.68048
1.68361
1.68235
1.67911
1.67917
1.67974
1.68106
1.67959
1.67353
1.67692
1.70808
1.85546
2.02062
2.10627
2.19497
2.36038
2.49083
2.55595
2.56593
2.55248
2.53257
2.51242
2.49619
2.48316
2.46898
2.45279
2.4315
2.40816
2.39075
2.37781
2.36791
2.35851
2.34401
2.32695
2.30884
2.28847
2.26534
2.246
2.23382
2.22488
2.21906
2.21201
2.20441
2.19612
2.18499
2.16844
2.14787
2.13158
2.1252
2.12148
2.11855
2.11594
2.11217
2.10738
2.09881
2.08333
2.06491
2.0528
2.04505
2.03798
2.03328
2.02876
2.02178
2.01422
2.00458
1.99129
1.96362
2.04907
1.86354
1.7211
1.5805
1.46042
1.38129
1.34324
1.32516
1.30227
1.27785
1.2846
1.31012
1.32527
1.35361
1.40226
1.44244
1.47287
1.4976
1.52074
1.54294
1.56259
1.57947
1.58917
1.59961
1.60047
1.59726
1.59702
1.59937
1.60364
1.60672
1.61094
1.61502
1.61673
1.61839
1.61805
1.61731
1.61662
1.62633
1.66772
1.80908
1.98568
2.04034
2.02965
2.01706
2.05269
2.17502
2.33329
2.42669
2.46674
2.4576
2.43559
2.41954
2.40648
2.39629
2.38801
2.37818
2.36357
2.34359
2.32623
2.31398
2.30198
2.29035
2.27836
2.26656
2.25547
2.24212
2.22259
2.20194
2.19103
2.18322
2.1759
2.16765
2.15756
2.14741
2.13945
2.13102
2.11895
2.10473
2.09707
2.09178
2.08611
2.07958
2.07238
2.06641
2.06108
2.05338
2.04074
2.02795
2.01904
2.01098
2.00309
1.99509
1.98591
1.97433
1.96209
1.94517
2.11307
1.94859
1.82993
1.73296
1.63231
1.51211
1.42902
1.4176
1.40392
1.37033
1.32988
1.29194
1.28668
1.28897
1.30342
1.33324
1.36259
1.38867
1.42274
1.45001
1.46489
1.48075
1.49329
1.51072
1.53172
1.54382
1.54666
1.54571
1.54532
1.5464
1.54815
1.5504
1.55202
1.5513
1.55007
1.55116
1.56373
1.62664
1.7591
1.94434
2.00464
1.99886
1.98763
1.9688
1.95483
1.96696
2.04904
2.18935
2.29774
2.3346
2.3449
2.34819
2.34489
2.34048
2.33166
2.31981
2.30679
2.28781
2.26499
2.25038
2.24009
2.23028
2.22217
2.21356
2.20563
2.19729
2.18453
2.16364
2.14359
2.13403
2.1272
2.11919
2.11003
2.10258
2.09763
2.09364
2.08712
2.07341
2.05813
2.04916
2.04121
2.03232
2.02471
2.02117
2.01921
2.01642
2.01021
1.99913
1.98579
1.97455
1.9654
1.95599
1.94445
1.93145
1.92312
1.91381
2.15628
2.02685
1.90456
1.81071
1.7387
1.66191
1.56335
1.48052
1.46591
1.44799
1.4142
1.35844
1.3198
1.29843
1.29777
1.30559
1.31811
1.33
1.34405
1.35884
1.37223
1.39564
1.42379
1.44624
1.47124
1.49354
1.49789
1.49782
1.49934
1.50464
1.5123
1.51977
1.52032
1.51628
1.51336
1.52206
1.60097
1.77542
1.90725
1.99289
1.98804
1.97214
1.95769
1.94691
1.9392
1.93447
1.93162
1.96743
2.06676
2.17687
2.24477
2.26959
2.27955
2.29279
2.29839
2.28713
2.27156
2.25007
2.22407
2.20012
2.18773
2.1792
2.17381
2.16937
2.16318
2.15645
2.14777
2.13188
2.10609
2.0857
2.07668
2.07097
2.0671
2.06488
2.06189
2.05748
2.05169
2.03977
2.01783
1.99982
1.99038
1.98389
1.97957
1.9771
1.97495
1.97199
1.96736
1.95889
1.9444
1.92845
1.91641
1.90596
1.89648
1.89018
1.88734
1.8803
2.18595
2.08207
1.98434
1.88167
1.7931
1.7402
1.67979
1.6019
1.52581
1.50197
1.48281
1.44875
1.40927
1.37444
1.34045
1.32752
1.32826
1.32531
1.3138
1.31063
1.31272
1.32065
1.34669
1.37732
1.4125
1.44983
1.46156
1.4681
1.47364
1.47889
1.48668
1.49558
1.49534
1.49669
1.50625
1.58364
1.79458
1.92905
1.97618
1.98602
1.97984
1.96969
1.9522
1.93645
1.92868
1.92398
1.91754
1.90938
1.91557
1.9627
2.05667
2.15135
2.20253
2.23662
2.25174
2.25719
2.24858
2.23015
2.20643
2.17793
2.15556
2.14499
2.13807
2.13606
2.13388
2.1282
2.12037
2.10734
2.08407
2.05692
2.0445
2.03986
2.03602
2.03416
2.03337
2.02819
2.0216
2.01074
1.98756
1.96328
1.95311
1.947
1.94197
1.93947
1.93685
1.93227
1.9268
1.91845
1.90295
1.88248
1.86685
1.85823
1.8553
1.85422
1.85371
1.84975
2.20545
2.11549
2.0343
1.95086
1.86305
1.7857
1.73839
1.69063
1.62578
1.56661
1.52985
1.50278
1.47462
1.44552
1.40906
1.37383
1.35651
1.33906
1.32119
1.31213
1.31408
1.31479
1.31577
1.3232
1.34147
1.36873
1.39659
1.42188
1.44465
1.45454
1.46809
1.48011
1.48027
1.49949
1.59913
1.79054
1.94452
1.98699
1.99395
1.98917
1.97458
1.95796
1.93916
1.92223
1.91344
1.90866
1.90466
1.89549
1.88949
1.87825
1.88883
1.93994
2.03525
2.12452
2.17509
2.20294
2.20768
2.20424
2.19292
2.17044
2.14333
2.12557
2.11558
2.10992
2.10527
2.10055
2.09439
2.08499
2.06873
2.04503
2.02725
2.02064
2.01617
2.01192
2.00879
2.00372
1.9961
1.98532
1.96587
1.94245
1.93027
1.92269
1.91573
1.9102
1.90555
1.89982
1.89305
1.88263
1.86341
1.84044
1.82904
1.82678
1.82634
1.82695
1.82893
1.82638
2.21709
2.14253
2.06614
1.99234
1.92327
1.8542
1.78441
1.73522
1.69582
1.64595
1.59435
1.55161
1.52542
1.50342
1.47464
1.44118
1.41242
1.38745
1.36674
1.35137
1.34388
1.3329
1.32199
1.31703
1.31769
1.32061
1.32807
1.34382
1.3713
1.40175
1.43005
1.4505
1.47464
1.62045
1.807
1.94375
1.99875
2.00821
2.00157
1.98616
1.96438
1.94313
1.92439
1.90804
1.89553
1.88767
1.88346
1.87881
1.87133
1.86172
1.84923
1.83218
1.84671
1.90494
1.99828
2.08023
2.13021
2.15231
2.16001
2.1542
2.13479
2.11266
2.09525
2.08609
2.07915
2.07447
2.06926
2.06196
2.05199
2.03796
2.02028
2.00545
1.99783
1.99213
1.98635
1.97994
1.9718
1.96159
1.94766
1.93014
1.91482
1.90419
1.89513
1.88657
1.879
1.87211
1.86439
1.85231
1.83214
1.8111
1.80402
1.80336
1.80329
1.80376
1.80787
1.80601
2.21968
2.157
2.09166
2.02317
1.95999
1.90392
1.84472
1.78686
1.74135
1.69842
1.65657
1.61522
1.57797
1.54537
1.51847
1.49513
1.46965
1.44069
1.4093
1.38795
1.37391
1.35822
1.34313
1.32822
1.32382
1.32028
1.31844
1.31897
1.32157
1.33436
1.35961
1.38951
1.55415
1.7983
1.91305
1.96809
1.99175
1.98776
1.98116
1.96475
1.94664
1.92929
1.91458
1.89871
1.88039
1.86546
1.85856
1.85423
1.848
1.84001
1.82925
1.81627
1.79441
1.77883
1.79718
1.85535
1.94436
2.02232
2.08496
2.10568
2.10433
2.09623
2.07878
2.06367
2.05229
2.0455
2.04069
2.03496
2.02857
2.02191
2.0119
1.9972
1.98112
1.96995
1.96221
1.95439
1.94529
1.93556
1.92583
1.91485
1.9022
1.88876
1.87612
1.86495
1.85506
1.84582
1.83634
1.82532
1.8123
1.80019
1.78997
1.78622
1.78615
1.78743
1.79223
1.78986
2.21715
2.16334
2.10533
2.04737
1.99356
1.93628
1.87914
1.83281
1.7885
1.7412
1.69491
1.66266
1.62987
1.59524
1.55874
1.53552
1.51397
1.49036
1.46287
1.43738
1.41801
1.3977
1.38111
1.36652
1.35483
1.34161
1.33115
1.32238
1.31612
1.31654
1.33236
1.46594
1.74541
1.84665
1.88763
1.91066
1.90947
1.90895
1.91691
1.9195
1.91687
1.9122
1.90132
1.88294
1.86078
1.84229
1.83264
1.82643
1.82313
1.81742
1.80866
1.79575
1.77721
1.75128
1.73254
1.72646
1.74684
1.80725
1.90069
1.97859
2.03131
2.04962
2.04749
2.03884
2.02604
2.01472
2.01085
2.00701
2.00131
1.99582
1.9892
1.97888
1.9645
1.9482
1.93534
1.92671
1.91821
1.90921
1.90078
1.89249
1.88279
1.87041
1.85612
1.84299
1.83187
1.82158
1.81109
1.80122
1.79451
1.78915
1.78331
1.77628
1.76963
1.76572
1.76439
1.76147
2.21097
2.16363
2.11256
2.06316
2.01384
1.96113
1.90897
1.86481
1.82095
1.77745
1.73464
1.70044
1.66561
1.63445
1.60201
1.57491
1.54765
1.52149
1.49941
1.4799
1.45954
1.44018
1.41596
1.39797
1.38094
1.36548
1.34912
1.33444
1.3223
1.3399
1.46135
1.68606
1.83342
1.83143
1.82054
1.80618
1.80518
1.81267
1.82583
1.84648
1.8646
1.86834
1.86408
1.85195
1.83424
1.81726
1.80602
1.79996
1.79717
1.79197
1.78331
1.77144
1.75443
1.73139
1.70791
1.69592
1.68781
1.68832
1.71039
1.76889
1.85309
1.92803
1.96921
1.98761
1.985
1.97859
1.97977
1.97949
1.97596
1.96996
1.96129
1.95017
1.93741
1.92205
1.90694
1.89731
1.89035
1.88317
1.87552
1.86727
1.8576
1.84538
1.83082
1.81731
1.80671
1.79773
1.78947
1.78299
1.77833
1.77417
1.76935
1.76197
1.75212
1.74297
1.73915
1.73416
2.19921
2.15822
2.11361
2.07112
2.02598
1.97655
1.9334
1.89162
1.84906
1.80408
1.76878
1.73426
1.69915
1.66405
1.63536
1.61032
1.58265
1.55644
1.53114
1.51299
1.49283
1.47356
1.45432
1.43569
1.41694
1.39912
1.38058
1.36527
1.38042
1.50214
1.70578
1.84715
1.84612
1.82784
1.7967
1.78094
1.7698
1.75899
1.74857
1.75167
1.75858
1.76866
1.77837
1.77816
1.77955
1.7751
1.76514
1.76036
1.76196
1.76117
1.75321
1.74252
1.72695
1.70928
1.69313
1.67813
1.66727
1.65861
1.65188
1.65244
1.66969
1.72135
1.78889
1.8575
1.8969
1.91831
1.92754
1.93582
1.94406
1.94146
1.93366
1.92315
1.90969
1.8931
1.87473
1.86488
1.85951
1.85451
1.84903
1.84221
1.83355
1.82173
1.80529
1.78794
1.77749
1.77164
1.76746
1.76429
1.76102
1.75669
1.75036
1.74112
1.73041
1.72166
1.71619
1.70781
2.18562
2.14968
2.11209
2.07462
2.033
1.98923
1.95131
1.91149
1.86911
1.82785
1.79569
1.75997
1.72708
1.69187
1.66593
1.63766
1.61088
1.58547
1.56334
1.54345
1.52122
1.5
1.48152
1.4649
1.44531
1.42659
1.40989
1.42533
1.55718
1.76331
1.88556
1.88236
1.85784
1.82662
1.80183
1.78208
1.76475
1.74958
1.73548
1.71903
1.70489
1.69814
1.69554
1.69087
1.69522
1.69893
1.70029
1.70483
1.7076
1.7066
1.70533
1.70257
1.69542
1.68577
1.6764
1.66437
1.65003
1.63588
1.62661
1.62185
1.61743
1.61289
1.62387
1.65829
1.72248
1.78573
1.83097
1.8589
1.88248
1.89302
1.89349
1.89159
1.88384
1.86992
1.85193
1.8356
1.82736
1.82236
1.81869
1.81383
1.80777
1.79991
1.78659
1.76609
1.75096
1.74542
1.74259
1.74045
1.73818
1.73486
1.72891
1.71854
1.70514
1.69602
1.69038
1.68163
2.17276
2.14058
2.10829
2.07415
2.03535
1.99821
1.96283
1.92546
1.88327
1.84947
1.81668
1.78275
1.74744
1.71751
1.69271
1.66349
1.6372
1.60989
1.59121
1.56991
1.54833
1.52629
1.50793
1.48958
1.47178
1.45434
1.47313
1.61519
1.82526
1.93032
1.92539
1.898
1.86769
1.84348
1.82123
1.79785
1.77292
1.74865
1.72649
1.70519
1.68961
1.67918
1.67052
1.6657
1.65299
1.6351
1.61867
1.61716
1.61959
1.62187
1.62952
1.63812
1.64446
1.64477
1.6402
1.63294
1.62408
1.61383
1.60646
1.59671
1.58932
1.58384
1.57938
1.57328
1.57963
1.60021
1.65259
1.71602
1.77204
1.81075
1.8332
1.84087
1.83965
1.83763
1.83087
1.81705
1.80478
1.79606
1.78931
1.78327
1.77844
1.77255
1.76454
1.75157
1.7351
1.7228
1.71633
1.71322
1.7113
1.70904
1.70499
1.69762
1.68254
1.66269
1.65678
1.65306
2.159
2.13052
2.10152
2.07059
2.03472
2.00149
1.96904
1.93318
1.89511
1.86546
1.83308
1.80112
1.76512
1.74092
1.71391
1.68651
1.65915
1.6351
1.616
1.59213
1.5711
1.5493
1.52887
1.51072
1.49735
1.52357
1.67489
1.87678
1.96763
1.96313
1.93794
1.90959
1.88569
1.86182
1.83468
1.80558
1.77657
1.74901
1.72437
1.70526
1.68918
1.67422
1.66186
1.64972
1.63709
1.62312
1.59969
1.5755
1.56258
1.55372
1.5541
1.55664
1.56172
1.5718
1.57419
1.57256
1.57435
1.57371
1.5682
1.562
1.56222
1.56273
1.55919
1.55162
1.54202
1.52631
1.52575
1.54209
1.58548
1.64817
1.71381
1.75412
1.77317
1.78777
1.78723
1.78308
1.78105
1.77554
1.76536
1.75815
1.75166
1.74424
1.73687
1.72821
1.71668
1.70505
1.69484
1.68765
1.68438
1.68249
1.6801
1.67504
1.66213
1.6383
1.62889
1.62621
2.14589
2.12045
2.09294
2.06368
2.0325
2.00166
1.97097
1.93595
1.90406
1.87654
1.84785
1.81351
1.78169
1.75931
1.73231
1.70665
1.67674
1.65783
1.63647
1.6127
1.5903
1.56635
1.54864
1.53578
1.57092
1.74914
1.94129
2.00511
1.99313
1.96604
1.94001
1.91886
1.89827
1.87363
1.84499
1.8147
1.78533
1.75759
1.7327
1.71246
1.69513
1.67898
1.66289
1.64654
1.63018
1.61228
1.59018
1.56674
1.55002
1.53792
1.52614
1.51464
1.50733
1.50312
1.49815
1.49459
1.49051
1.49144
1.49811
1.50942
1.51849
1.52209
1.52255
1.52012
1.5136
1.50509
1.49416
1.48368
1.47981
1.4914
1.52572
1.58573
1.64176
1.69904
1.71776
1.72766
1.73824
1.7373
1.7353
1.73435
1.72864
1.72126
1.7128
1.70188
1.69129
1.68223
1.67414
1.66834
1.66292
1.65744
1.65317
1.64805
1.63894
1.62665
1.61425
1.60307
2.12641
2.10506
2.08118
2.0542
2.02653
1.99946
1.97065
1.93899
1.91016
1.88373
1.85634
1.82342
1.79685
1.77376
1.74886
1.72047
1.69351
1.67593
1.65291
1.63149
1.60552
1.58347
1.57394
1.62248
1.81487
2.02024
2.05115
2.02224
1.98466
1.96042
1.94138
1.92421
1.90438
1.88112
1.85412
1.82344
1.79134
1.76154
1.73692
1.71692
1.69936
1.68265
1.66599
1.64854
1.62967
1.61005
1.59047
1.56966
1.54868
1.53088
1.51597
1.50231
1.49143
1.48135
1.47155
1.46164
1.44771
1.43147
1.42466
1.42722
1.4364
1.44811
1.46529
1.47492
1.4746
1.47114
1.4641
1.45796
1.4501
1.44263
1.44299
1.45057
1.47353
1.52025
1.57947
1.62354
1.65865
1.67435
1.68899
1.69299
1.69407
1.69425
1.69144
1.68183
1.66967
1.6581
1.65071
1.6467
1.64223
1.63631
1.62817
1.6185
1.6112
1.60606
1.60038
1.58882
2.10891
2.09029
2.06944
2.04529
2.021
1.99689
1.96975
1.93996
1.91427
1.88931
1.8622
1.83136
1.80792
1.7847
1.76046
1.73165
1.70915
1.68972
1.66782
1.64335
1.61866
1.60926
1.67405
1.88768
2.06627
2.0889
2.06921
2.03133
1.99155
1.96247
1.94518
1.92691
1.90638
1.88334
1.8579
1.82992
1.79779
1.76585
1.74048
1.72008
1.7025
1.68596
1.66898
1.65087
1.63199
1.61254
1.59222
1.5703
1.54869
1.53001
1.5132
1.49774
1.48368
1.46987
1.45756
1.44651
1.43551
1.42019
1.39991
1.38637
1.38092
1.38215
1.38792
1.39713
1.41111
1.41581
1.41355
1.40939
1.40954
1.40982
1.41134
1.40728
1.40412
1.40728
1.42289
1.45431
1.50033
1.55085
1.59659
1.61598
1.63039
1.64454
1.6499
1.65098
1.64829
1.63952
1.63065
1.62353
1.61823
1.61296
1.60473
1.59328
1.583
1.57793
1.57546
1.56894
2.09366
2.07597
2.05695
2.03555
2.01367
1.99087
1.96545
1.93903
1.91546
1.8911
1.86369
1.83644
1.81604
1.79341
1.76889
1.74075
1.72184
1.70179
1.67874
1.65257
1.64987
1.72696
1.95036
2.12735
2.12524
2.10254
2.06618
2.03193
1.99478
1.96479
1.94254
1.92121
1.89979
1.87818
1.85589
1.83223
1.8056
1.77412
1.74375
1.72047
1.70135
1.6836
1.66612
1.64854
1.63068
1.61227
1.59256
1.57132
1.55011
1.53036
1.51253
1.49627
1.48125
1.46665
1.45367
1.44209
1.42933
1.4124
1.39324
1.37627
1.36392
1.3566
1.35354
1.35206
1.35278
1.35411
1.35444
1.34952
1.34505
1.34812
1.35344
1.36182
1.36744
1.36502
1.36082
1.36214
1.36901
1.38857
1.42763
1.48079
1.5252
1.55148
1.56996
1.59214
1.60672
1.60833
1.60365
1.59512
1.59242
1.58776
1.58028
1.57143
1.56195
1.55268
1.5463
1.54
2.07474
2.05741
2.04021
2.02177
2.0026
1.9815
1.95795
1.93536
1.91337
1.89002
1.86452
1.84106
1.82087
1.7985
1.77309
1.74839
1.73162
1.70964
1.68463
1.68766
1.78978
2.00913
2.16528
2.15973
2.12843
2.09086
2.05692
2.02927
1.99887
1.96685
1.93854
1.91358
1.89088
1.8701
1.8503
1.83022
1.8079
1.78077
1.74847
1.71832
1.69543
1.6773
1.66153
1.64667
1.63094
1.61329
1.59276
1.56844
1.54582
1.52962
1.51597
1.50213
1.48684
1.4702
1.4522
1.43479
1.41885
1.4042
1.38919
1.37266
1.3573
1.34587
1.33829
1.3328
1.32762
1.32457
1.32083
1.31103
1.29609
1.2901
1.29138
1.29674
1.30488
1.3142
1.31859
1.31576
1.31207
1.31508
1.32353
1.34299
1.3725
1.41095
1.44784
1.48223
1.51364
1.54401
1.55887
1.55955
1.55946
1.55729
1.55377
1.55075
1.54538
1.53547
1.52598
1.51449
2.05777
2.04215
2.02248
2.00643
1.98963
1.9702
1.94883
1.93043
1.91008
1.88807
1.86352
1.84432
1.82394
1.80207
1.77687
1.75618
1.73673
1.71573
1.72806
1.85778
2.08866
2.18588
2.17625
2.14422
2.11211
2.0826
2.05591
2.03003
2.00161
1.96843
1.93482
1.90655
1.88285
1.86191
1.84283
1.82428
1.80432
1.78076
1.75123
1.71866
1.69151
1.67126
1.6546
1.64
1.62651
1.61204
1.59344
1.5695
1.54426
1.52349
1.50774
1.49496
1.48338
1.47108
1.45597
1.43723
1.41716
1.40011
1.38605
1.37247
1.35839
1.34459
1.33386
1.32563
1.3162
1.30556
1.29854
1.29266
1.2827
1.27007
1.26002
1.25456
1.25228
1.25252
1.25613
1.26045
1.26332
1.26725
1.27138
1.27611
1.28588
1.29749
1.31024
1.3356
1.37485
1.41655
1.45176
1.47932
1.51102
1.5161
1.51274
1.51268
1.51218
1.50942
1.50576
1.49725
1.96992
2.03105
2.01098
1.99083
1.97519
1.95699
1.93908
1.92277
1.90452
1.88301
1.86166
1.84447
1.82375
1.80248
1.77826
1.7609
1.74153
1.7636
1.93371
2.15373
2.23245
2.21691
2.17648
2.13725
2.10687
2.08042
2.05373
2.02528
1.99478
1.96196
1.92892
1.90005
1.87576
1.85429
1.83434
1.8148
1.79447
1.77203
1.7461
1.71728
1.69052
1.66878
1.65018
1.63284
1.61627
1.60075
1.58503
1.56698
1.54716
1.52747
1.50871
1.49164
1.47602
1.46099
1.44591
1.4306
1.41555
1.40185
1.38898
1.37575
1.36171
1.34864
1.33842
1.32837
1.31608
1.30169
1.2877
1.27663
1.26909
1.25984
1.25022
1.24267
1.23323
1.22502
1.21779
1.21398
1.212
1.2125
1.216
1.22134
1.22767
1.23636
1.23966
1.24147
1.24941
1.27469
1.31193
1.34576
1.38756
1.43037
1.45758
1.46214
1.46562
1.4695
1.47329
1.47208
1.73316
1.97021
2.00078
1.9828
1.96297
1.94457
1.92875
1.91291
1.89583
1.87506
1.85801
1.84153
1.82216
1.79997
1.78047
1.7651
1.80183
1.99464
2.22486
2.26064
2.22972
2.19211
2.15858
2.12747
2.10083
2.07326
2.04375
2.01355
1.98319
1.95158
1.91934
1.89033
1.86621
1.84524
1.82534
1.80506
1.78355
1.76069
1.73676
1.71235
1.68867
1.66685
1.64688
1.62796
1.60911
1.59008
1.57179
1.55535
1.54016
1.52406
1.50603
1.48751
1.47044
1.45576
1.44207
1.42848
1.415
1.40085
1.38545
1.36896
1.35445
1.34524
1.33749
1.3283
1.31817
1.30675
1.29007
1.27091
1.25757
1.25095
1.24481
1.23542
1.22556
1.21795
1.20901
1.19772
1.18723
1.18097
1.17844
1.17828
1.17919
1.18413
1.19165
1.19249
1.18924
1.19163
1.20637
1.2246
1.24744
1.28912
1.33272
1.36585
1.39321
1.40647
1.41952
1.43228
1.27366
1.78161
1.95683
1.97237
1.95526
1.93334
1.91819
1.90325
1.88628
1.86671
1.85204
1.83548
1.81687
1.79725
1.78706
1.84935
2.07414
2.25934
2.30841
2.27862
2.22728
2.17824
2.14202
2.11346
2.08655
2.05876
2.02998
2.00129
1.97278
1.94296
1.91164
1.88235
1.8576
1.83597
1.81544
1.79453
1.77241
1.74945
1.72668
1.70474
1.68343
1.66248
1.64192
1.62179
1.60188
1.58225
1.56402
1.54787
1.53312
1.51833
1.50183
1.48303
1.46217
1.44407
1.43247
1.42385
1.4141
1.40139
1.38762
1.37067
1.34976
1.33439
1.32592
1.32047
1.31591
1.30854
1.29483
1.27625
1.25846
1.24503
1.23515
1.22837
1.22357
1.21702
1.2061
1.19264
1.18045
1.16916
1.16108
1.15772
1.15618
1.157
1.15767
1.15641
1.15307
1.14682
1.1473
1.15364
1.16042
1.17304
1.19934
1.23098
1.26182
1.29551
1.32219
1.36611
1.02052
1.36521
1.80273
1.94458
1.94386
1.92479
1.90738
1.89254
1.87581
1.85894
1.84568
1.82784
1.80624
1.80768
1.89443
2.15634
2.31263
2.30527
2.2827
2.24734
2.20933
2.1688
2.13211
2.10031
2.07146
2.04393
2.01669
1.98949
1.96176
1.93255
1.90257
1.87474
1.85028
1.82773
1.80564
1.78334
1.76048
1.73734
1.71477
1.69346
1.67348
1.65416
1.63477
1.61508
1.59537
1.57603
1.55738
1.53964
1.52323
1.50849
1.49496
1.48002
1.46176
1.44265
1.42605
1.41324
1.40304
1.39412
1.38444
1.36882
1.35001
1.33378
1.3209
1.31027
1.30101
1.29371
1.28736
1.27754
1.26479
1.25101
1.23768
1.22522
1.21494
1.2075
1.20076
1.19161
1.17843
1.16594
1.15756
1.15096
1.1467
1.14376
1.14076
1.13832
1.13468
1.12507
1.11415
1.11292
1.11405
1.11716
1.12617
1.14108
1.15589
1.17266
1.19048
1.25203
1.00026
1.04194
1.43454
1.81931
1.92234
1.91715
1.89965
1.88271
1.86469
1.85238
1.83526
1.81826
1.82445
1.95373
2.20275
2.35537
2.35656
2.31379
2.26086
2.21975
2.18803
2.15562
2.12213
2.08994
2.05968
2.03094
2.00318
1.97577
1.94801
1.91985
1.89267
1.86777
1.8445
1.82136
1.79753
1.77322
1.74903
1.7255
1.70302
1.6821
1.66302
1.64515
1.62728
1.60853
1.58901
1.56973
1.55161
1.53461
1.51788
1.50022
1.4819
1.46632
1.45412
1.44152
1.42743
1.41361
1.40002
1.3853
1.37024
1.35956
1.34854
1.33467
1.32002
1.30719
1.29675
1.28813
1.28115
1.27615
1.26829
1.25564
1.24147
1.2283
1.21764
1.20826
1.19818
1.18765
1.17651
1.16579
1.15681
1.14896
1.1437
1.13948
1.13457
1.1293
1.12406
1.11654
1.10413
1.09634
1.09243
1.0913
1.09261
1.09642
1.09997
1.10324
1.10651
1.13177
1
1.00077
1.06889
1.48969
1.82046
1.89986
1.89404
1.87548
1.85649
1.84028
1.82658
1.84463
2.01053
2.28221
2.35278
2.33928
2.31748
2.28717
2.24659
2.20708
2.17356
2.14237
2.11131
2.0801
2.04932
2.01928
1.98997
1.96107
1.93248
1.90504
1.88014
1.85762
1.83589
1.81352
1.78974
1.76464
1.73905
1.71435
1.69174
1.67159
1.65363
1.63697
1.62033
1.60233
1.58198
1.5607
1.54151
1.52596
1.51235
1.49744
1.4796
1.46054
1.44444
1.43347
1.42358
1.41095
1.39707
1.38279
1.36691
1.35115
1.33812
1.32563
1.31535
1.307
1.29836
1.28925
1.27937
1.26721
1.25722
1.24913
1.24015
1.23173
1.22268
1.21257
1.2017
1.18778
1.17256
1.16006
1.15193
1.14654
1.14271
1.13887
1.13378
1.12645
1.11719
1.1091
1.09949
1.09316
1.08886
1.0835
1.07862
1.07568
1.07324
1.07003
1.06626
1.06772
1
1
1.00172
1.09861
1.52727
1.81268
1.87997
1.87201
1.85249
1.83111
1.85793
2.08019
2.31928
2.40664
2.3867
2.32162
2.28397
2.2589
2.231
2.19866
2.16439
2.13085
2.09937
2.06916
2.03936
2.00955
1.97951
1.94918
1.91938
1.89184
1.86767
1.84611
1.82541
1.80427
1.78186
1.75769
1.73193
1.70642
1.68391
1.66485
1.64798
1.63184
1.61518
1.59747
1.57761
1.55565
1.53446
1.51645
1.50211
1.49009
1.47759
1.46262
1.4466
1.43104
1.41916
1.41119
1.40169
1.38754
1.36738
1.34665
1.3374
1.33269
1.32638
1.31716
1.30581
1.29341
1.28104
1.26685
1.25549
1.25185
1.24905
1.24325
1.23418
1.2207
1.20081
1.18513
1.178
1.17201
1.16522
1.15907
1.15355
1.14758
1.13935
1.12656
1.11316
1.10659
1.1044
1.09958
1.09157
1.08166
1.07247
1.06586
1.06148
1.05744
1.05253
1.04658
1
1
1.00001
1.00318
1.127
1.54527
1.80321
1.8602
1.84877
1.8767
2.12439
2.38464
2.41568
2.39402
2.37261
2.32736
2.28215
2.24966
2.22112
2.19105
2.15848
2.12479
2.09191
2.06096
2.03151
2.00234
1.9725
1.94184
1.91159
1.88369
1.85906
1.83709
1.81641
1.79577
1.7745
1.75164
1.72661
1.70088
1.6782
1.66032
1.64514
1.63006
1.61289
1.59328
1.572
1.55039
1.53101
1.514
1.49838
1.48417
1.47168
1.45995
1.44754
1.43443
1.42156
1.40771
1.39221
1.37589
1.36195
1.35182
1.34217
1.33052
1.31791
1.30636
1.29538
1.28437
1.27377
1.2659
1.26004
1.25331
1.24394
1.2333
1.22125
1.20778
1.19473
1.18551
1.17798
1.16991
1.16132
1.15236
1.14403
1.13667
1.12967
1.12189
1.11472
1.11021
1.10443
1.09457
1.08217
1.07372
1.06737
1.0607
1.05482
1.04972
1.04529
1.03896
1
1
1
1.00002
1.00493
1.14895
1.57148
1.77058
1.85817
2.16634
2.43257
2.49181
2.45695
2.4094
2.3789
2.34228
2.29686
2.2548
2.21825
2.1845
2.15157
2.11883
2.08699
2.05672
2.02759
1.99866
1.96887
1.93798
1.90729
1.87889
1.85379
1.83145
1.8106
1.78995
1.76884
1.74689
1.72356
1.6994
1.67615
1.65717
1.64159
1.62672
1.61071
1.59117
1.57024
1.55075
1.53162
1.51235
1.49522
1.4809
1.46826
1.45635
1.4447
1.43306
1.42011
1.4049
1.38904
1.37503
1.36349
1.35245
1.34071
1.32746
1.31411
1.30185
1.291
1.28189
1.27468
1.26824
1.26109
1.25257
1.24251
1.23103
1.21816
1.20493
1.19439
1.1862
1.17849
1.17061
1.16159
1.1515
1.14192
1.13397
1.12694
1.12168
1.11852
1.11476
1.10806
1.09569
1.08107
1.07232
1.06585
1.05921
1.0529
1.04786
1.04476
1.0374
1
1
1
1
1.00004
1.00754
1.17144
1.50776
2.11991
2.50636
2.54947
2.51762
2.48901
2.44323
2.40151
2.36119
2.3162
2.26783
2.22172
2.18109
2.14603
2.11479
2.08552
2.05696
2.02824
1.9989
1.96858
1.93747
1.90672
1.87801
1.85228
1.82913
1.80822
1.78939
1.77081
1.74945
1.72464
1.70051
1.68308
1.66729
1.65014
1.63211
1.61335
1.59712
1.58207
1.56461
1.54384
1.52099
1.50175
1.488
1.47694
1.46681
1.45661
1.44523
1.43179
1.41671
1.40162
1.38777
1.37445
1.36087
1.34726
1.33387
1.32135
1.31048
1.30162
1.29447
1.28788
1.28024
1.27111
1.26099
1.2495
1.23641
1.22322
1.21246
1.20413
1.19662
1.18929
1.18131
1.17132
1.15866
1.14636
1.13888
1.13505
1.13271
1.13044
1.127
1.11972
1.1038
1.08631
1.07757
1.07132
1.06496
1.05916
1.05477
1.05146
1.04185
1
1
1
1
1
1.00009
1.0087
1.36299
2.51241
2.7062
2.62921
2.57077
2.53322
2.47669
2.42241
2.37587
2.32766
2.2768
2.22603
2.1807
2.14315
2.11223
2.08483
2.05806
2.03024
2.00057
1.96893
1.93613
1.90442
1.87633
1.85239
1.83119
1.81092
1.78941
1.76581
1.74278
1.72227
1.70323
1.682
1.65883
1.63757
1.61942
1.60458
1.59086
1.57559
1.55718
1.53395
1.50874
1.4893
1.47661
1.46637
1.45666
1.44663
1.43512
1.42127
1.4058
1.39053
1.37635
1.36271
1.34906
1.33525
1.32185
1.30985
1.29969
1.2914
1.28452
1.27782
1.27024
1.26146
1.25118
1.23881
1.2247
1.21176
1.20238
1.19503
1.18809
1.18086
1.17271
1.16234
1.14807
1.13457
1.12931
1.12703
1.1249
1.12245
1.11886
1.11104
1.09353
1.07634
1.06903
1.06313
1.05674
1.05053
1.0457
1.04231
1.03267
)
;

boundaryField
{
    inlet
    {
        type            fixedValue;
        value           uniform 1;
    }
    outlet
    {
        type            inletOutlet;
        inletValue      uniform 1;
        value           nonuniform List<scalar> 
32
(
1.95944
1.96105
1.94512
1.91486
1.88112
1.85085
1.82784
1.80784
1.79134
1.76241
1.73447
1.70759
1.6816
1.65426
1.62764
1.60319
1.58786
1.56869
1.54053
1.51417
1.49624
1.47139
1.4317
1.36419
1.24923
1.12959
1.06626
1.0458
1.03838
1.03668
1.04068
1.03141
)
;
    }
    bottom
    {
        type            symmetryPlane;
    }
    top
    {
        type            symmetryPlane;
    }
    obstacle
    {
        type            zeroGradient;
    }
    defaultFaces
    {
        type            empty;
    }
}


// ************************************************************************* //
