/*--------------------------------*- C++ -*----------------------------------*\
  =========                 |
  \\      /  F ield         | OpenFOAM: The Open Source CFD Toolbox
   \\    /   O peration     | Website:  https://openfoam.org
    \\  /    A nd           | Version:  7
     \\/     M anipulation  |
\*---------------------------------------------------------------------------*/
FoamFile
{
    version     2.0;
    format      ascii;
    class       volVectorField;
    location    "2";
    object      U;
}
// * * * * * * * * * * * * * * * * * * * * * * * * * * * * * * * * * * * * * //

dimensions      [0 1 -1 0 0 0 0];

internalField   nonuniform List<vector> 
4032
(
(3 2.0032e-17 0)
(3 4.96678e-17 0)
(3 -2.3192e-16 0)
(3 -4.65539e-16 0)
(3 -8.95921e-17 0)
(3 -2.95834e-17 0)
(3 8.05832e-17 0)
(3 -3.87527e-17 0)
(3 -4.56518e-16 0)
(3 -4.50289e-16 0)
(3 -3.58454e-16 0)
(3 -6.95757e-16 0)
(1.33882 0.0154134 0)
(0.731065 0.0155285 0)
(0.667692 0.0228843 0)
(0.612971 0.0253321 0)
(0.554707 0.0267147 0)
(0.495878 0.0282331 0)
(0.434085 0.0303284 0)
(0.367824 0.032616 0)
(0.296424 0.0350935 0)
(0.218828 0.0384236 0)
(0.135115 0.0406905 0)
(0.0496111 0.0446344 0)
(3 -3.51467e-17 0)
(3 2.11039e-16 0)
(3 -4.81575e-18 0)
(3 -1.20297e-15 0)
(3 -9.04722e-16 0)
(3 -8.56243e-16 0)
(3 -8.11651e-16 0)
(3 -1.11088e-15 0)
(3 -1.24997e-15 0)
(3 -7.92444e-16 0)
(3 -3.89213e-16 0)
(3 -1.76971e-15 0)
(1.36829 0.0725856 0)
(0.724176 0.0647792 0)
(0.652791 0.0710126 0)
(0.596279 0.0760449 0)
(0.536653 0.0789863 0)
(0.477193 0.0830561 0)
(0.415753 0.0893154 0)
(0.351189 0.0967822 0)
(0.282859 0.105446 0)
(0.209409 0.117263 0)
(0.129296 0.125843 0)
(0.0476771 0.138038 0)
(3 -3.11116e-17 0)
(3 2.53117e-16 0)
(3 5.10084e-16 0)
(3 1.65778e-16 0)
(3 -7.49853e-16 0)
(3 -1.46757e-15 0)
(3 -2.1648e-15 0)
(3 -1.46262e-15 0)
(3 2.3682e-16 0)
(3 -7.11796e-17 0)
(3 -8.15541e-16 0)
(3 -1.87855e-15 0)
(1.46016 0.129278 0)
(0.736286 0.116333 0)
(0.656099 0.123505 0)
(0.596613 0.131162 0)
(0.533798 0.135519 0)
(0.471787 0.141431 0)
(0.408444 0.150321 0)
(0.342854 0.160824 0)
(0.274586 0.173173 0)
(0.203192 0.191926 0)
(0.124829 0.206316 0)
(0.0463614 0.225919 0)
(3 3.00659e-17 0)
(3 -7.58939e-17 0)
(3 4.42861e-18 0)
(3 3.92591e-16 0)
(3 5.92294e-16 0)
(3 1.53338e-16 0)
(3 1.58057e-16 0)
(3 3.38093e-16 0)
(3 6.01933e-16 0)
(3 -2.38083e-17 0)
(3 -5.69138e-16 0)
(3 -9.76781e-16 0)
(1.6094 0.182036 0)
(0.756325 0.171779 0)
(0.667019 0.176947 0)
(0.608787 0.1869 0)
(0.546175 0.192643 0)
(0.484094 0.200816 0)
(0.419743 0.21319 0)
(0.351909 0.2278 0)
(0.280449 0.243846 0)
(0.207304 0.268849 0)
(0.126904 0.289246 0)
(0.0461815 0.314269 0)
(3 -1.21771e-16 0)
(3 -4.46898e-16 0)
(3 -4.72759e-16 0)
(3 -2.15633e-16 0)
(3 5.13966e-16 0)
(3 9.56394e-16 0)
(3 1.08963e-15 0)
(3 3.89368e-16 0)
(3 -5.80502e-16 0)
(3 -2.53167e-16 0)
(3 -1.654e-16 0)
(3 -5.1755e-16 0)
(1.82639 0.22606 0)
(0.78697 0.230444 0)
(0.67958 0.228064 0)
(0.622456 0.241179 0)
(0.558695 0.24988 0)
(0.495321 0.261492 0)
(0.430384 0.27803 0)
(0.363926 0.297167 0)
(0.294405 0.316377 0)
(0.223722 0.34714 0)
(0.141104 0.376259 0)
(0.0537227 0.409817 0)
(3 -1.40728e-17 0)
(3 -3.77246e-16 0)
(3 -4.74837e-16 0)
(3 -1.05192e-15 0)
(3 -1.21098e-15 0)
(3 -1.17318e-15 0)
(3 -1.01613e-15 0)
(3 -1.15943e-15 0)
(3 -1.18498e-15 0)
(3 -8.62956e-16 0)
(3 -8.2869e-16 0)
(3 -3.04362e-15 0)
(2.10661 0.26629 0)
(0.821119 0.303013 0)
(0.681965 0.286373 0)
(0.631202 0.300553 0)
(0.573674 0.311903 0)
(0.514869 0.326166 0)
(0.45347 0.345257 0)
(0.389283 0.36766 0)
(0.317797 0.392623 0)
(0.241703 0.433859 0)
(0.154161 0.480181 0)
(0.0526837 0.523029 0)
(3 -3.86531e-17 0)
(3 -3.43573e-16 0)
(3 -3.97539e-16 0)
(3 -4.8959e-16 0)
(3 -1.8496e-15 0)
(3 -2.13532e-15 0)
(3 -1.90811e-15 0)
(3 -1.89592e-15 0)
(3 -1.90843e-15 0)
(3 -1.64383e-15 0)
(3 -9.65585e-16 0)
(3 -1.93033e-15 0)
(2.51161 0.286874 0)
(0.915087 0.386709 0)
(0.737038 0.3359 0)
(0.690528 0.346631 0)
(0.6341 0.364578 0)
(0.574513 0.385566 0)
(0.512008 0.410077 0)
(0.445714 0.440259 0)
(0.37639 0.473613 0)
(0.306197 0.522857 0)
(0.222201 0.584727 0)
(0.0991061 0.658541 0)
(3 -1.26979e-16 0)
(3 -7.275e-17 0)
(3 -2.15548e-16 0)
(3 -2.98728e-16 0)
(3 -7.02904e-16 0)
(3 -1.16017e-15 0)
(3 -9.07389e-16 0)
(3 -7.54674e-16 0)
(3 -1.18306e-16 0)
(3 1.11956e-16 0)
(3 4.21128e-16 0)
(3 2.62945e-16 0)
(2.98162 0.114921 0)
(1.0907 0.422976 0)
(0.821438 0.366032 0)
(0.772781 0.386157 0)
(0.715873 0.412423 0)
(0.658143 0.44052 0)
(0.596104 0.470731 0)
(0.533131 0.508853 0)
(0.465195 0.546915 0)
(0.392828 0.617812 0)
(0.275083 0.74274 0)
(0.151541 0.918889 0)
(3 5.25019e-17 0)
(3 1.61188e-17 0)
(3 -1.94404e-16 0)
(3 -3.32024e-16 0)
(3 -4.42061e-16 0)
(3 -8.44036e-16 0)
(3 -7.0422e-16 0)
(3 -6.20676e-16 0)
(3 8.2308e-17 0)
(3 -1.01765e-16 0)
(3 -1.65165e-16 0)
(3 1.42765e-16 0)
(3.0279 0.00577517 0)
(1.27137 0.406658 0)
(0.844903 0.428274 0)
(0.790554 0.454382 0)
(0.734972 0.477037 0)
(0.690388 0.507085 0)
(0.644828 0.542142 0)
(0.603968 0.586187 0)
(0.551911 0.634273 0)
(0.505428 0.736475 0)
(0.473033 0.90556 0)
(0.584833 1.18717 0)
(3 -7.66372e-17 0)
(3 -8.83955e-17 0)
(3 -5.42765e-17 0)
(3 -1.84978e-16 0)
(3 -9.11174e-16 0)
(3 -1.28068e-15 0)
(3 -1.51093e-15 0)
(3 -1.37337e-15 0)
(3 -1.25613e-15 0)
(3 -1.2605e-15 0)
(3 -1.44304e-15 0)
(3 -9.81852e-16 0)
(3.0006 -5.60814e-06 0)
(1.5735 0.441604 0)
(0.839139 0.47471 0)
(0.782987 0.499549 0)
(0.750108 0.523762 0)
(0.720937 0.550672 0)
(0.695914 0.586388 0)
(0.67674 0.635569 0)
(0.65519 0.70021 0)
(0.645412 0.811667 0)
(0.703394 0.95226 0)
(0.980938 1.12386 0)
(3 7.57181e-17 0)
(3 5.03477e-16 0)
(3 3.26811e-16 0)
(3 3.07589e-18 0)
(3 -3.05539e-16 0)
(3 -1.03621e-15 0)
(3 -7.98528e-16 0)
(3 -9.25288e-16 0)
(3 -1.57408e-15 0)
(3 -1.656e-15 0)
(3 -1.3898e-15 0)
(3 -8.62796e-16 0)
(3 -5.26963e-08 0)
(2.16577 0.466807 0)
(0.920964 0.565167 0)
(0.819336 0.527454 0)
(0.800826 0.550862 0)
(0.774052 0.580826 0)
(0.758029 0.619408 0)
(0.74936 0.672024 0)
(0.758285 0.744613 0)
(0.783592 0.844094 0)
(0.895492 0.952897 0)
(1.19178 1.05199 0)
(3 5.56489e-17 0)
(3 1.60702e-16 0)
(3 3.80412e-16 0)
(3 9.88787e-16 0)
(3 1.06982e-15 0)
(3 8.622e-16 0)
(3 -4.12776e-16 0)
(3 -9.53508e-16 0)
(3 -1.2911e-15 0)
(3 -1.25866e-15 0)
(3 -7.08678e-16 0)
(3 -3.73317e-16 0)
(3 -3.78839e-08 0)
(2.95273 0.202905 0)
(1.14874 0.600201 0)
(0.91547 0.543452 0)
(0.886366 0.57956 0)
(0.854274 0.612452 0)
(0.831753 0.649188 0)
(0.824185 0.698578 0)
(0.846519 0.766262 0)
(0.900508 0.852846 0)
(1.03877 0.942193 0)
(1.29291 1.00158 0)
(3 5.12396e-18 0)
(3 -3.48214e-17 0)
(3 2.06606e-16 0)
(3 2.82301e-16 0)
(3 4.16238e-16 0)
(3 5.07048e-17 0)
(3 -3.7156e-16 0)
(3 -1.68741e-15 0)
(3 -7.67011e-16 0)
(3 4.90541e-17 0)
(3 -3.77566e-16 0)
(3 -3.9906e-16 0)
(3 -7.18368e-09 0)
(3.04817 0.00832181 0)
(1.43391 0.580097 0)
(0.952808 0.632817 0)
(0.901861 0.640678 0)
(0.883844 0.663617 0)
(0.877334 0.691157 0)
(0.887221 0.727691 0)
(0.920069 0.778215 0)
(0.989488 0.845622 0)
(1.12926 0.912272 0)
(1.3356 0.950262 0)
(3 2.56357e-17 0)
(3 -1.05827e-16 0)
(3 -5.08509e-17 0)
(3 -2.13795e-16 0)
(3 -2.84165e-16 0)
(3 -4.54711e-16 0)
(3 -9.37145e-16 0)
(3 -1.82573e-16 0)
(3 1.20593e-15 0)
(3 1.38411e-15 0)
(3 -4.07718e-16 0)
(3 -3.00999e-16 0)
(3 -6.56123e-10 0)
(3.00114 1.306e-06 0)
(2.0574 0.57314 0)
(1.02831 0.710927 0)
(0.952369 0.67781 0)
(0.937404 0.682669 0)
(0.93503 0.703018 0)
(0.952053 0.73623 0)
(0.990427 0.780614 0)
(1.06462 0.835566 0)
(1.19155 0.885037 0)
(1.36072 0.911147 0)
(3 -3.75616e-16 0)
(3 -1.66318e-16 0)
(3 -3.32266e-16 0)
(3 -9.08583e-17 0)
(3 1.71326e-16 0)
(3 3.63096e-16 0)
(3 4.19032e-16 0)
(3 1.01329e-15 0)
(3 8.54474e-16 0)
(3 4.76748e-16 0)
(3 4.50543e-16 0)
(3 -1.08253e-16 0)
(3 -7.94185e-12 0)
(3.00002 -7.51625e-06 0)
(2.99734 0.182821 0)
(1.28067 0.689108 0)
(1.04362 0.697713 0)
(1.03013 0.69803 0)
(1.02065 0.723725 0)
(1.0281 0.752037 0)
(1.06066 0.789949 0)
(1.12869 0.829285 0)
(1.23551 0.861797 0)
(1.37375 0.87635 0)
(3 1.46631e-16 0)
(3 3.79086e-16 0)
(3 1.79753e-16 0)
(3 3.39245e-16 0)
(3 8.99667e-16 0)
(3 1.17386e-15 0)
(3 1.50813e-15 0)
(3 1.29502e-15 0)
(3 3.31986e-16 0)
(3 1.9727e-16 0)
(3 8.38696e-16 0)
(3 5.10752e-16 0)
(3 -1.78437e-14 0)
(3 -2.17025e-06 0)
(3.0344 0.00388386 0)
(1.58345 0.654669 0)
(1.06906 0.752801 0)
(1.05824 0.754781 0)
(1.06459 0.772193 0)
(1.08473 0.786796 0)
(1.11877 0.804669 0)
(1.18223 0.827532 0)
(1.27311 0.846952 0)
(1.38711 0.855836 0)
(3 2.16209e-16 0)
(3 1.68595e-16 0)
(3 2.14312e-16 0)
(3 3.69888e-16 0)
(3 3.3955e-16 0)
(3 5.06498e-16 0)
(3 7.17192e-16 0)
(3 1.06957e-15 0)
(3 7.00983e-16 0)
(3 2.64507e-16 0)
(3 2.94712e-16 0)
(3 8.7357e-16 0)
(3 1.44398e-15 0)
(3 -1.88838e-07 0)
(3.00053 1.45398e-05 0)
(2.42981 0.493627 0)
(1.18457 0.78411 0)
(1.09308 0.78269 0)
(1.11465 0.788509 0)
(1.13763 0.800779 0)
(1.17221 0.815369 0)
(1.22901 0.82937 0)
(1.30868 0.840494 0)
(1.40381 0.844454 0)
(3 -1.61317e-16 0)
(3 1.13383e-17 0)
(3 -9.51668e-17 0)
(3 -1.75251e-16 0)
(3 -8.87597e-17 0)
(3 3.7229e-16 0)
(3 8.72085e-16 0)
(3 9.57585e-16 0)
(3 1.41117e-15 0)
(3 9.70787e-16 0)
(3 8.14311e-16 0)
(3 1.23984e-15 0)
(3 1.59755e-15 0)
(3 -1.40928e-09 0)
(3.00003 -1.04994e-05 0)
(3.06298 0.0651691 0)
(1.53626 0.766947 0)
(1.15353 0.790218 0)
(1.17756 0.79856 0)
(1.19239 0.813915 0)
(1.22672 0.823789 0)
(1.27576 0.833229 0)
(1.34412 0.83925 0)
(1.42316 0.840251 0)
(3 1.06527e-16 0)
(3 -1.397e-16 0)
(3 -1.88686e-16 0)
(3 -1.02702e-15 0)
(3 -8.6289e-16 0)
(3 -2.0866e-16 0)
(3 8.94467e-16 0)
(3 1.24944e-15 0)
(3 1.37566e-15 0)
(3 1.39933e-15 0)
(3 1.11865e-15 0)
(3 7.50535e-16 0)
(3 3.4795e-16 0)
(3 -2.6617e-12 0)
(3 -2.5238e-06 0)
(3.00716 0.00109881 0)
(2.25977 0.636808 0)
(1.2373 0.855423 0)
(1.20511 0.84078 0)
(1.23411 0.840086 0)
(1.2682 0.843841 0)
(1.31714 0.846769 0)
(1.37644 0.847561 0)
(1.4448 0.84344 0)
(3 1.25069e-16 0)
(3 -4.33717e-16 0)
(3 -7.4752e-16 0)
(3 -1.08922e-15 0)
(3 -1.60614e-15 0)
(3 -1.56472e-15 0)
(3 -1.06842e-15 0)
(3 9.95181e-17 0)
(3 4.40686e-16 0)
(3 9.40184e-16 0)
(3 7.13881e-16 0)
(3 -2.28963e-17 0)
(3 -1.60505e-16 0)
(3 -1.33928e-15 0)
(3 -2.23715e-07 0)
(3.00002 5.59309e-06 0)
(3.03607 0.123349 0)
(1.60169 0.831344 0)
(1.2529 0.834791 0)
(1.28654 0.83837 0)
(1.31494 0.844436 0)
(1.3601 0.84734 0)
(1.41156 0.848375 0)
(1.47277 0.843484 0)
(3 -3.32706e-16 0)
(3 -2.04206e-16 0)
(3 1.45102e-16 0)
(3 4.88105e-16 0)
(3 2.61807e-16 0)
(3 -2.49874e-16 0)
(3 -4.87227e-16 0)
(3 -1.53658e-16 0)
(3 -3.80253e-17 0)
(3 4.20316e-16 0)
(3 1.08766e-15 0)
(3 6.82661e-16 0)
(3 2.17453e-16 0)
(3 7.0447e-17 0)
(3 -2.39453e-09 0)
(3 -1.73583e-07 0)
(3.011 0.00352962 0)
(2.34441 0.649702 0)
(1.33756 0.891674 0)
(1.30599 0.878792 0)
(1.34292 0.872608 0)
(1.38334 0.870934 0)
(1.43112 0.868167 0)
(1.4877 0.860858 0)
(3 -1.45415e-16 0)
(3 3.26077e-16 0)
(3 1.32111e-15 0)
(3 9.13179e-16 0)
(3 1.17601e-15 0)
(3 8.69949e-16 0)
(3 -4.608e-16 0)
(3 -7.15174e-16 0)
(3 -6.25761e-16 0)
(3 -1.98633e-16 0)
(3 4.4747e-16 0)
(3 8.07836e-16 0)
(3 3.80581e-16 0)
(3 1.18412e-15 0)
(3 -4.75015e-12 0)
(3 -3.7292e-08 0)
(3.00005 3.95756e-05 0)
(3.03166 0.111074 0)
(1.73708 0.844919 0)
(1.34235 0.882123 0)
(1.3855 0.876811 0)
(1.41719 0.87387 0)
(1.45984 0.868573 0)
(1.51041 0.861154 0)
(3 1.02049e-16 0)
(3 -7.76366e-18 0)
(3 -5.42202e-16 0)
(3 -3.05855e-16 0)
(3 -1.03858e-16 0)
(3 -3.15044e-16 0)
(3 -7.85767e-16 0)
(3 -1.58311e-15 0)
(3 -1.42177e-15 0)
(3 -1.11621e-15 0)
(3 -3.43186e-16 0)
(3 1.07528e-15 0)
(3 1.81294e-15 0)
(3 4.90061e-16 0)
(3 -1.38353e-15 0)
(3 -2.95599e-09 0)
(3 1.89069e-08 0)
(3.00655 0.00435723 0)
(2.59617 0.548349 0)
(1.47811 0.937393 0)
(1.40876 0.908468 0)
(1.44432 0.899293 0)
(1.48012 0.890719 0)
(1.52348 0.880829 0)
(3 1.37529e-16 0)
(3 -1.38478e-16 0)
(3 -9.31751e-16 0)
(3 -6.48049e-16 0)
(3 -5.17032e-16 0)
(3 -5.2523e-16 0)
(3 -3.94642e-16 0)
(3 -4.35965e-16 0)
(3 -3.58969e-16 0)
(3 -4.94161e-16 0)
(3 -2.41022e-16 0)
(3 1.23727e-15 0)
(3 1.31976e-15 0)
(3 2.24383e-16 0)
(3 2.1233e-16 0)
(3 -9.03158e-11 0)
(3 -8.67582e-11 0)
(3.00002 4.27859e-05 0)
(3.03696 0.0572535 0)
(1.98794 0.808811 0)
(1.46212 0.922515 0)
(1.48592 0.911783 0)
(1.51463 0.899444 0)
(1.55028 0.887126 0)
(3 1.23193e-16 0)
(3 3.83393e-17 0)
(3 1.99888e-16 0)
(3 7.31121e-17 0)
(3 -2.80833e-17 0)
(3 -1.46547e-16 0)
(3 -4.73869e-16 0)
(3 -2.37451e-16 0)
(3 4.1318e-17 0)
(3 -2.53978e-16 0)
(3 -6.72271e-16 0)
(3 -9.99554e-16 0)
(3 -1.02721e-15 0)
(3 -4.01287e-16 0)
(3 -1.48792e-16 0)
(3 -5.90878e-13 0)
(3 -2.56977e-11 0)
(3 2.88756e-08 0)
(3.00185 0.00240753 0)
(2.82165 0.33155 0)
(1.72312 0.914378 0)
(1.50328 0.935541 0)
(1.54506 0.923645 0)
(1.57736 0.910443 0)
(3 1.67262e-16 0)
(3 2.84986e-16 0)
(3 5.9605e-16 0)
(3 5.64948e-16 0)
(3 -1.89326e-16 0)
(3 -3.39085e-16 0)
(3 -3.25003e-16 0)
(3 -3.3852e-16 0)
(3 -2.02018e-16 0)
(3 -1.88524e-16 0)
(3 -7.87812e-16 0)
(3 -1.42407e-15 0)
(3 -1.46157e-15 0)
(3 -1.03856e-16 0)
(3 1.11471e-15 0)
(3 5.22901e-16 0)
(3 -2.95875e-12 0)
(3 1.66937e-12 0)
(3 1.20034e-05 0)
(3.01006 0.0232651 0)
(2.40504 0.661811 0)
(1.59277 0.96165 0)
(1.56048 0.952118 0)
(1.5951 0.934297 0)
(3 -7.28011e-17 0)
(3 7.01893e-16 0)
(3 6.51237e-16 0)
(3 3.33156e-17 0)
(3 1.07362e-16 0)
(3 -2.48689e-16 0)
(3 -5.28038e-16 0)
(3 -8.35395e-16 0)
(3 -6.48614e-16 0)
(3 -2.78465e-16 0)
(3 -3.24107e-16 0)
(3 -7.27876e-16 0)
(3 -2.2883e-17 0)
(3 5.92945e-17 0)
(3 -2.23839e-17 0)
(3 -6.50913e-18 0)
(3 -1.47324e-13 0)
(3 -1.4016e-13 0)
(3 6.09278e-09 0)
(3.00008 0.000659475 0)
(2.98575 0.122108 0)
(2.04538 0.821457 0)
(1.62146 0.954625 0)
(1.62188 0.948636 0)
(3 -2.21492e-17 0)
(3 -1.87619e-16 0)
(3 -2.17801e-16 0)
(3 -1.79648e-16 0)
(3 -5.51602e-16 0)
(3 -6.97742e-16 0)
(3 -6.77021e-16 0)
(3 -6.67568e-16 0)
(3 -7.45364e-16 0)
(3 -6.56534e-16 0)
(3 -7.55746e-16 0)
(3 -6.75617e-16 0)
(3 -7.63036e-17 0)
(3 -2.48932e-16 0)
(3 -8.0205e-16 0)
(3 2.85998e-17 0)
(3 -2.29907e-15 0)
(3 -4.21686e-14 0)
(3 1.38571e-12 0)
(3 1.47609e-06 0)
(3.00142 0.00669571 0)
(2.78891 0.341488 0)
(1.87648 0.901504 0)
(1.65483 0.967293 0)
(3 -1.09817e-17 0)
(3 -3.20078e-16 0)
(3 -5.39696e-16 0)
(3 -6.41753e-16 0)
(3 -9.92433e-16 0)
(3 -1.23568e-15 0)
(3 -1.91792e-16 0)
(3 1.81295e-16 0)
(3 3.12937e-17 0)
(3 -4.79757e-16 0)
(3 -8.35822e-16 0)
(3 -7.97597e-16 0)
(3 -1.10013e-15 0)
(3 2.32466e-16 0)
(3 8.78186e-16 0)
(3 2.61659e-17 0)
(3 -5.14639e-16 0)
(3 -5.27338e-15 0)
(3 -5.18584e-15 0)
(3 7.99527e-10 0)
(2.99999 5.95845e-05 0)
(3.00036 0.0278823 0)
(2.511 0.561754 0)
(1.81238 0.949504 0)
(3 7.14143e-17 0)
(3 1.1081e-16 0)
(3 -1.28732e-16 0)
(3 1.29755e-17 0)
(3 4.73913e-16 0)
(3 6.06452e-16 0)
(3 4.57337e-16 0)
(3 4.33837e-16 0)
(3 -7.77078e-16 0)
(3 -1.24399e-15 0)
(3 -1.084e-15 0)
(3 -1.00394e-15 0)
(3 7.46457e-17 0)
(3 1.23562e-15 0)
(3 2.08487e-15 0)
(3 1.89661e-15 0)
(3 -8.50233e-17 0)
(3 -9.97194e-16 0)
(3 -2.43216e-15 0)
(3 1.34046e-13 0)
(3 6.05961e-08 0)
(2.99994 0.000756571 0)
(2.97248 0.0820117 0)
(2.30471 0.713827 0)
(3 -1.11761e-16 0)
(3 -2.39179e-16 0)
(3 -2.85745e-16 0)
(3 3.88477e-16 0)
(3 8.19319e-16 0)
(3 8.2049e-16 0)
(3 7.19117e-16 0)
(3 1.8323e-16 0)
(3 -7.60662e-16 0)
(3 -1.44227e-15 0)
(3 -6.54344e-16 0)
(3 8.00999e-17 0)
(3 1.2551e-15 0)
(3 2.00633e-15 0)
(3 1.47292e-15 0)
(3 1.08318e-15 0)
(3 5.07664e-16 0)
(3 4.1198e-16 0)
(3 -4.97892e-18 0)
(3 -7.15371e-16 0)
(3 2.64413e-11 0)
(3 1.79796e-06 0)
(2.99963 0.00385834 0)
(2.89719 0.190439 0)
(3 -6.31972e-17 0)
(3 -8.95963e-17 0)
(3 2.06996e-16 0)
(3 4.74636e-16 0)
(3 4.7587e-16 0)
(3 3.43437e-16 0)
(3 4.59896e-16 0)
(3 7.66866e-16 0)
(3 8.71761e-16 0)
(3 9.18729e-16 0)
(3 2.89114e-16 0)
(3 3.57755e-16 0)
(3 -5.44869e-17 0)
(3 -9.63472e-16 0)
(3 -1.49552e-15 0)
(3 -1.53124e-15 0)
(3 -4.71461e-16 0)
(3 1.31936e-16 0)
(3 3.92957e-16 0)
(3 -5.09497e-16 0)
(3 2.54546e-15 0)
(3 1.44382e-09 0)
(2.99999 2.1709e-05 0)
(2.99759 0.0122559 0)
(3 9.14999e-17 0)
(3 2.51271e-16 0)
(3 4.62299e-16 0)
(3 2.2942e-16 0)
(3 -1.85445e-16 0)
(3 1.08128e-16 0)
(3 2.58454e-16 0)
(3 6.27093e-16 0)
(3 1.43118e-15 0)
(3 1.67073e-15 0)
(3 1.08359e-15 0)
(3 3.13595e-16 0)
(3 -9.48228e-16 0)
(3 -1.80485e-15 0)
(3 -1.51544e-15 0)
(3 -1.22208e-15 0)
(3 -1.16236e-15 0)
(3 -1.26219e-15 0)
(3 -9.86944e-16 0)
(3 -4.62106e-16 0)
(3 1.38497e-16 0)
(3 2.17971e-13 0)
(3 2.49908e-08 0)
(2.99996 0.000151921 0)
(3 -6.61278e-17 0)
(3 -1.39968e-16 0)
(3 -2.61354e-16 0)
(3 -3.23857e-16 0)
(3 -1.47941e-16 0)
(3 5.98572e-17 0)
(3 -6.5307e-16 0)
(3 -7.1044e-17 0)
(3 9.04381e-16 0)
(3 1.36559e-15 0)
(3 2.09659e-15 0)
(3 1.43282e-15 0)
(3 1.34468e-16 0)
(3 -6.14803e-16 0)
(3 -5.5818e-16 0)
(3 -4.3238e-16 0)
(3 -8.76126e-16 0)
(3 -3.89546e-16 0)
(3 -3.36042e-16 0)
(3 -1.02396e-16 0)
(3 -1.80711e-16 0)
(3 -5.83307e-16 0)
(3 7.89705e-12 0)
(3 2.56807e-07 0)
(3 -1.04094e-16 0)
(3 -5.92884e-17 0)
(3 -3.38865e-16 0)
(3 -1.66479e-16 0)
(3 2.13787e-16 0)
(3 -2.55689e-16 0)
(3 -7.03341e-16 0)
(3 2.62614e-16 0)
(3 7.83965e-16 0)
(3 1.64921e-15 0)
(3 1.83072e-15 0)
(3 1.88512e-15 0)
(3 1.59135e-15 0)
(3 1.2128e-15 0)
(3 1.06394e-15 0)
(3 2.01812e-16 0)
(3 -5.69235e-16 0)
(3 -6.17939e-16 0)
(3 1.28782e-16 0)
(3 5.75741e-16 0)
(3 4.14146e-16 0)
(3 -4.42547e-16 0)
(3 1.09764e-15 0)
(3 1.50708e-10 0)
(3 1.3517e-16 0)
(3 9.36793e-17 0)
(3 1.15124e-16 0)
(3 2.71357e-16 0)
(3 3.61999e-16 0)
(3 2.07327e-16 0)
(3 2.37481e-16 0)
(3 -2.31637e-18 0)
(3 3.75815e-17 0)
(3 1.56527e-16 0)
(3 -1.95794e-16 0)
(3 2.39035e-16 0)
(3 5.29825e-16 0)
(3 1.2281e-15 0)
(3 1.24749e-15 0)
(3 6.63174e-16 0)
(3 -3.33459e-16 0)
(3 -8.82083e-16 0)
(3 -4.13917e-16 0)
(3 -1.13318e-16 0)
(3 -4.56187e-17 0)
(3 -7.29183e-16 0)
(3 -1.37251e-15 0)
(3 1.06646e-14 0)
(3 3.20058e-16 0)
(3 1.99719e-16 0)
(3 4.63304e-17 0)
(3 2.79292e-16 0)
(3 5.9108e-16 0)
(3 9.73283e-16 0)
(3 1.18732e-15 0)
(3 1.5807e-16 0)
(3 -8.49071e-16 0)
(3 -2.31579e-15 0)
(3 -2.3413e-15 0)
(3 -1.97161e-15 0)
(3 -1.49754e-15 0)
(3 2.33999e-16 0)
(3 7.28919e-16 0)
(3 8.3306e-16 0)
(3 1.77872e-16 0)
(3 -6.34022e-16 0)
(3 -9.42888e-16 0)
(3 -1.08932e-15 0)
(3 -1.38772e-15 0)
(3 -8.78984e-16 0)
(3 -6.91284e-16 0)
(3 -1.34855e-15 0)
(3 7.26912e-20 0)
(3 2.22699e-16 0)
(3 3.31962e-16 0)
(3 7.86816e-16 0)
(3 1.24399e-15 0)
(3 2.05492e-15 0)
(3 1.58135e-15 0)
(3 4.79577e-16 0)
(3 -1.69253e-15 0)
(3 -2.69225e-15 0)
(3 -2.01614e-15 0)
(3 -1.44092e-15 0)
(3 -5.6401e-16 0)
(3 9.24448e-17 0)
(3 -1.13476e-16 0)
(3 7.13484e-16 0)
(3 5.70689e-16 0)
(3 3.48924e-16 0)
(3 -5.79426e-16 0)
(3 -1.16529e-15 0)
(3 -4.75449e-16 0)
(3 7.0927e-16 0)
(3 6.80196e-16 0)
(3 5.81461e-16 0)
(3 -2.92218e-16 0)
(3 -1.2153e-16 0)
(3 7.07094e-16 0)
(3 1.02631e-15 0)
(3 1.63524e-15 0)
(3 1.84264e-15 0)
(3 1.60175e-15 0)
(3 1.37656e-15 0)
(3 -4.76798e-16 0)
(3 -1.44657e-15 0)
(3 -5.47295e-16 0)
(3 -6.63132e-17 0)
(3 6.73669e-16 0)
(3 5.56114e-16 0)
(3 1.4194e-16 0)
(3 2.06117e-16 0)
(3 2.98018e-16 0)
(3 9.31316e-16 0)
(3 5.01885e-16 0)
(3 1.73782e-16 0)
(3 1.58804e-16 0)
(3 2.18728e-16 0)
(3 3.9199e-16 0)
(3 6.05552e-16 0)
(3 1.78017e-17 0)
(3 -2.54851e-16 0)
(3 9.15459e-17 0)
(3 5.9823e-17 0)
(3 2.39459e-16 0)
(3 2.08184e-16 0)
(3 6.41768e-16 0)
(3 1.12797e-15 0)
(3 5.98988e-16 0)
(3 -4.56966e-17 0)
(3 -7.35608e-18 0)
(3 1.79236e-16 0)
(3 5.28967e-16 0)
(3 3.41133e-16 0)
(3 5.50932e-16 0)
(3 -1.29053e-16 0)
(3 -5.64461e-16 0)
(3 6.05739e-16 0)
(3 8.4382e-16 0)
(3 8.43615e-16 0)
(3 3.93437e-16 0)
(3 1.85701e-16 0)
(3 3.01203e-16 0)
(3 -1.89343e-16 0)
(1.5392 1.22802 0)
(2.00798 1.40793 0)
(2.17105 1.4668 0)
(2.28392 0.713022 0)
(2.56104 0.36928 0)
(2.67904 -0.00988804 0)
(2.67579 -0.254038 0)
(2.59508 -0.310031 0)
(2.41406 -0.298322 0)
(2.34743 -0.308193 0)
(2.35843 -0.260434 0)
(2.41263 -0.16626 0)
(2.46815 -0.148267 0)
(2.48296 -0.153199 0)
(2.47878 -0.140528 0)
(2.45583 -0.0805658 0)
(2.39154 -0.0385096 0)
(2.36559 -0.034743 0)
(2.36588 -0.0279905 0)
(2.41721 -0.0215782 0)
(2.4704 -0.0202583 0)
(2.47947 -0.0178792 0)
(2.46979 -0.0142215 0)
(2.43644 -0.0101842 0)
(2.4132 -0.00571637 0)
(2.40821 -0.00407195 0)
(2.41513 -0.00408235 0)
(2.44448 -0.00797602 0)
(2.45997 -0.0104417 0)
(2.46352 -0.00996985 0)
(2.45939 -0.00505367 0)
(2.44515 0.00117024 0)
(2.44087 0.00187873 0)
(2.4398 -0.000127262 0)
(2.45005 -0.00348324 0)
(2.45821 -0.00449987 0)
(2.45991 -0.00398729 0)
(2.4591 -0.00101593 0)
(2.45908 0.00331473 0)
(2.45832 0.000165991 0)
(2.42539 -0.0290098 0)
(2.28478 -0.142664 0)
(1.99332 -0.254473 0)
(1.69738 -0.307488 0)
(1.49468 -0.225895 0)
(1.45457 -0.133244 0)
(1.50956 -0.0603137 0)
(1.58572 -0.00661542 0)
(1.64448 0.00199412 0)
(1.67957 -0.00275753 0)
(1.70565 -0.0073276 0)
(1.73389 -0.00702639 0)
(1.76018 -0.00575118 0)
(1.78214 -0.00359521 0)
(1.79806 0.00114668 0)
(1.81413 0.00722195 0)
(1.83672 0.0090359 0)
(1.86234 0.00872449 0)
(1.89337 0.00677321 0)
(1.92753 0.00382868 0)
(1.95528 0.00179515 0)
(1.98075 0.00167623 0)
(2.00358 0.00264219 0)
(2.01822 0.00527985 0)
(2.02422 0.00961602 0)
(2.03605 0.012534 0)
(2.05711 0.0131881 0)
(2.07858 0.0135146 0)
(2.10454 0.0132318 0)
(2.13752 0.0111005 0)
(2.16355 0.00756993 0)
(2.18638 0.00576359 0)
(2.20836 0.00476437 0)
(2.22155 0.00461195 0)
(2.21155 0.0077372 0)
(2.20294 0.0114311 0)
(2.21877 0.0114665 0)
(2.23928 0.011182 0)
(2.26151 0.0100388 0)
(2.29024 0.00758893 0)
(2.31606 0.00484941 0)
(2.33994 0.00434459 0)
(2.36276 0.00447869 0)
(2.37286 0.00607348 0)
(2.36307 0.0102713 0)
(2.36784 0.0130125 0)
(2.38715 0.0133604 0)
(2.40677 0.0134523 0)
(2.42791 0.0133293 0)
(2.45378 0.0127797 0)
(2.48146 0.0119291 0)
(2.50191 0.0111424 0)
(2.52019 0.0104393 0)
(2.53691 0.00901136 0)
(2.54009 0.00874648 0)
(2.52954 0.0118048 0)
(1.7776 1.06264 0)
(2.29934 0.762264 0)
(2.49353 0.565659 0)
(2.64494 0.0854503 0)
(2.66588 -0.242578 0)
(2.73099 -0.436732 0)
(2.77299 -0.607979 0)
(2.77129 -0.669997 0)
(2.75016 -0.620755 0)
(2.66209 -0.503823 0)
(2.55273 -0.344305 0)
(2.501 -0.195927 0)
(2.53328 -0.140704 0)
(2.54693 -0.133085 0)
(2.50749 -0.143531 0)
(2.48275 -0.121559 0)
(2.4628 -0.055675 0)
(2.45083 -0.0103506 0)
(2.44827 0.0169434 0)
(2.46775 0.0169942 0)
(2.48536 0.00325397 0)
(2.48442 -0.00168949 0)
(2.47942 -0.00888802 0)
(2.45674 -0.023233 0)
(2.43972 -0.0154744 0)
(2.4369 -0.00521294 0)
(2.44267 0.00163077 0)
(2.4635 -0.00553173 0)
(2.48262 -0.0167793 0)
(2.48663 -0.0183928 0)
(2.48665 -0.0132745 0)
(2.47414 0.00266066 0)
(2.46349 0.0134477 0)
(2.46191 0.0143411 0)
(2.4647 0.00929546 0)
(2.47431 -0.000838536 0)
(2.47823 -0.00401793 0)
(2.48267 0.00176776 0)
(2.47683 -0.00364989 0)
(2.45335 -0.0421962 0)
(2.28014 -0.274025 0)
(2.17457 -0.496514 0)
(2.03355 -0.655101 0)
(1.91252 -0.545315 0)
(1.71186 -0.298745 0)
(1.59519 -0.0910891 0)
(1.55628 0.0164769 0)
(1.6069 0.0432911 0)
(1.64761 0.0330165 0)
(1.67687 0.0123008 0)
(1.70941 -0.00543277 0)
(1.74452 -0.0153904 0)
(1.77058 -0.0188805 0)
(1.79612 -0.0191664 0)
(1.81921 -0.0124031 0)
(1.83884 0.00441428 0)
(1.85618 0.0217073 0)
(1.87801 0.0276465 0)
(1.9019 0.0263699 0)
(1.93012 0.0151674 0)
(1.96071 0.00144937 0)
(1.98607 -0.00590471 0)
(2.01078 -0.00964877 0)
(2.03283 -0.00967617 0)
(2.04886 0.000976783 0)
(2.05797 0.0215283 0)
(2.06867 0.0372562 0)
(2.08728 0.0417922 0)
(2.10821 0.0436548 0)
(2.13541 0.0399137 0)
(2.16094 0.0312318 0)
(2.18447 0.0218504 0)
(2.20633 0.010704 0)
(2.22391 -0.00161822 0)
(2.23067 -0.0025961 0)
(2.22849 0.014367 0)
(2.23045 0.0304361 0)
(2.24746 0.03374 0)
(2.26788 0.0337698 0)
(2.29202 0.0303334 0)
(2.3186 0.0222933 0)
(2.3411 0.0150208 0)
(2.3619 0.00619445 0)
(2.37724 -0.00219015 0)
(2.38076 0.00460303 0)
(2.38205 0.0222718 0)
(2.39475 0.0330693 0)
(2.41388 0.0361307 0)
(2.43257 0.0380653 0)
(2.45499 0.0393039 0)
(2.4763 0.0372607 0)
(2.49564 0.0337158 0)
(2.51453 0.0275663 0)
(2.53094 0.0184743 0)
(2.53924 0.0072908 0)
(2.54371 0.0133824 0)
(1.67301 1.0308 0)
(2.0866 0.826979 0)
(2.34467 0.604517 0)
(2.50886 0.420469 0)
(2.59973 0.205869 0)
(2.66373 -0.00804965 0)
(2.71775 -0.192276 0)
(2.75543 -0.272862 0)
(2.82609 -0.292576 0)
(2.8215 -0.398327 0)
(2.77704 -0.411048 0)
(2.7121 -0.395258 0)
(2.69747 -0.403373 0)
(2.68935 -0.389425 0)
(2.66714 -0.327121 0)
(2.60704 -0.233711 0)
(2.60053 -0.168239 0)
(2.59978 -0.119318 0)
(2.58418 -0.0532721 0)
(2.55702 -0.0260342 0)
(2.52799 -0.033319 0)
(2.52058 -0.0232836 0)
(2.52075 -0.0123441 0)
(2.51539 -0.00265904 0)
(2.50731 -0.00546385 0)
(2.50543 -0.00428513 0)
(2.50666 -0.0025062 0)
(2.51629 -0.010422 0)
(2.52152 -0.0245705 0)
(2.52134 -0.0314475 0)
(2.51981 -0.0327846 0)
(2.51544 -0.0235203 0)
(2.51036 -0.00814473 0)
(2.50832 -0.000426018 0)
(2.50925 0.00239199 0)
(2.51341 0.00528246 0)
(2.51498 0.00769215 0)
(2.51019 -0.00805214 0)
(2.47534 -0.0677502 0)
(2.3463 -0.257269 0)
(2.11978 -0.528001 0)
(2.01484 -0.701975 0)
(2.03326 -0.68533 0)
(2.06097 -0.666851 0)
(2.04427 -0.594275 0)
(1.94716 -0.418172 0)
(1.80425 -0.199057 0)
(1.72037 -0.0597252 0)
(1.71323 0.011441 0)
(1.72479 0.0211103 0)
(1.74888 0.0224568 0)
(1.77314 0.00978963 0)
(1.80281 -0.0027423 0)
(1.83307 -0.00479181 0)
(1.85901 -0.00464238 0)
(1.88114 -0.00198669 0)
(1.90004 0.0106902 0)
(1.9137 0.0265549 0)
(1.92987 0.0328324 0)
(1.95234 0.0327085 0)
(1.97578 0.0277774 0)
(2.00234 0.0166474 0)
(2.02799 0.0081132 0)
(2.05274 0.00452934 0)
(2.07652 0.00523496 0)
(2.09501 0.0159462 0)
(2.10324 0.0379238 0)
(2.10807 0.055468 0)
(2.12631 0.0587638 0)
(2.1475 0.0565172 0)
(2.16891 0.050203 0)
(2.18932 0.0417005 0)
(2.20744 0.0302189 0)
(2.22313 0.0183311 0)
(2.23967 0.0114193 0)
(2.2539 0.0150052 0)
(2.26077 0.031389 0)
(2.26408 0.0459554 0)
(2.28002 0.0472596 0)
(2.30019 0.0455126 0)
(2.32039 0.0422898 0)
(2.33949 0.0357319 0)
(2.35594 0.0266243 0)
(2.37122 0.0179781 0)
(2.38804 0.0147931 0)
(2.40317 0.0221721 0)
(2.41383 0.0385869 0)
(2.42688 0.0523108 0)
(2.44566 0.0584867 0)
(2.46487 0.0608177 0)
(2.48432 0.0596917 0)
(2.50099 0.0557625 0)
(2.51416 0.0493855 0)
(2.52426 0.0382759 0)
(2.5312 0.0288271 0)
(2.54769 0.0310477 0)
(1.61813 0.980298 0)
(1.90323 0.883687 0)
(2.16924 0.69607 0)
(2.35677 0.50299 0)
(2.48205 0.356661 0)
(2.54197 0.239902 0)
(2.63161 0.0404618 0)
(2.71568 -0.155821 0)
(2.7405 -0.266492 0)
(2.79005 -0.363142 0)
(2.81987 -0.424253 0)
(2.78743 -0.470945 0)
(2.76195 -0.476062 0)
(2.75596 -0.462315 0)
(2.74548 -0.429316 0)
(2.71958 -0.353189 0)
(2.71113 -0.331069 0)
(2.71254 -0.304707 0)
(2.68621 -0.223693 0)
(2.65132 -0.138219 0)
(2.62591 -0.126254 0)
(2.60743 -0.11005 0)
(2.58508 -0.0712738 0)
(2.57685 -0.0533453 0)
(2.5696 -0.0354142 0)
(2.57296 -0.00221507 0)
(2.56168 0.00576609 0)
(2.55766 0.00637452 0)
(2.55324 0.0079268 0)
(2.55242 0.00205239 0)
(2.5542 -0.00621037 0)
(2.5577 -0.00813196 0)
(2.56 -0.00717145 0)
(2.5603 -0.0072632 0)
(2.55662 -0.0085619 0)
(2.55483 -0.00925791 0)
(2.54492 -0.0258913 0)
(2.50028 -0.0983712 0)
(2.34095 -0.323914 0)
(2.16916 -0.506457 0)
(2.05965 -0.663914 0)
(2.04104 -0.682674 0)
(2.0572 -0.673975 0)
(2.08821 -0.668806 0)
(2.1094 -0.66101 0)
(2.10819 -0.626098 0)
(2.046 -0.509841 0)
(1.91057 -0.296274 0)
(1.85194 -0.121188 0)
(1.8182 -0.0148993 0)
(1.80038 0.0133926 0)
(1.80433 0.0170223 0)
(1.83127 0.0246167 0)
(1.86998 0.0247472 0)
(1.90299 0.0175653 0)
(1.92775 0.0119889 0)
(1.94796 0.0111204 0)
(1.96155 0.0214989 0)
(1.96794 0.0368094 0)
(1.98344 0.0402555 0)
(2.00446 0.0386221 0)
(2.02642 0.0339401 0)
(2.0525 0.0267121 0)
(2.07811 0.0253956 0)
(2.1037 0.0276924 0)
(2.12694 0.0327435 0)
(2.14273 0.0427117 0)
(2.14468 0.0590002 0)
(2.14551 0.0668748 0)
(2.16102 0.0621376 0)
(2.18025 0.0538592 0)
(2.19892 0.0437425 0)
(2.21629 0.0358245 0)
(2.23464 0.0344877 0)
(2.2538 0.0370354 0)
(2.27267 0.0410807 0)
(2.28757 0.0476815 0)
(2.29132 0.0579504 0)
(2.29412 0.0611169 0)
(2.30872 0.055348 0)
(2.32601 0.0486712 0)
(2.34257 0.0420446 0)
(2.35883 0.0386436 0)
(2.37815 0.0399765 0)
(2.3985 0.0415205 0)
(2.41885 0.0430958 0)
(2.43674 0.0488997 0)
(2.44984 0.060417 0)
(2.46111 0.0689084 0)
(2.47533 0.0709826 0)
(2.49096 0.0698885 0)
(2.50485 0.0671865 0)
(2.51493 0.0625366 0)
(2.52062 0.0560999 0)
(2.53223 0.0556458 0)
(2.55515 0.0585213 0)
(1.58454 0.925568 0)
(1.80709 0.861536 0)
(2.00201 0.769283 0)
(2.21359 0.602992 0)
(2.36077 0.416017 0)
(2.443 0.308364 0)
(2.48148 0.258259 0)
(2.55573 0.129365 0)
(2.65423 -0.0399116 0)
(2.68077 -0.164009 0)
(2.72049 -0.195226 0)
(2.71889 -0.204844 0)
(2.72076 -0.310864 0)
(2.72517 -0.355238 0)
(2.72792 -0.35365 0)
(2.74226 -0.352995 0)
(2.75379 -0.39666 0)
(2.76575 -0.413197 0)
(2.74675 -0.37085 0)
(2.72246 -0.303203 0)
(2.70241 -0.254558 0)
(2.67463 -0.228395 0)
(2.63829 -0.153195 0)
(2.63536 -0.124369 0)
(2.63323 -0.102822 0)
(2.62556 -0.062877 0)
(2.60537 -0.0409737 0)
(2.58728 -0.017945 0)
(2.57931 -0.00967544 0)
(2.56973 -0.00893586 0)
(2.56991 -0.00508701 0)
(2.581 0.00427705 0)
(2.58451 0.00744515 0)
(2.58798 0.0132062 0)
(2.58509 0.00032747 0)
(2.57248 -0.0169074 0)
(2.50737 -0.122683 0)
(2.29826 -0.406853 0)
(2.15228 -0.566367 0)
(2.08582 -0.605007 0)
(2.07035 -0.671312 0)
(2.05737 -0.702008 0)
(2.06553 -0.695137 0)
(2.08937 -0.677362 0)
(2.11769 -0.65565 0)
(2.14489 -0.649025 0)
(2.15281 -0.63306 0)
(2.12839 -0.575132 0)
(2.04884 -0.409771 0)
(1.96578 -0.207215 0)
(1.90039 -0.0769483 0)
(1.85987 -0.0187776 0)
(1.86359 0.0255259 0)
(1.88681 0.0334715 0)
(1.92679 0.0453655 0)
(1.95438 0.0435809 0)
(1.97873 0.0329583 0)
(1.99714 0.0290371 0)
(2.00339 0.0407863 0)
(2.00812 0.0525236 0)
(2.02727 0.0530166 0)
(2.04742 0.049451 0)
(2.07221 0.0433171 0)
(2.09986 0.0402323 0)
(2.12455 0.0419051 0)
(2.14812 0.0452558 0)
(2.16832 0.0514266 0)
(2.17773 0.0627089 0)
(2.17078 0.0757263 0)
(2.1702 0.0758856 0)
(2.18696 0.0672544 0)
(2.20748 0.0593181 0)
(2.22817 0.0546414 0)
(2.24971 0.0539338 0)
(2.27009 0.0576331 0)
(2.29051 0.0620327 0)
(2.30985 0.0669755 0)
(2.31903 0.0744605 0)
(2.31202 0.079815 0)
(2.31462 0.0721403 0)
(2.3313 0.061723 0)
(2.35016 0.0556361 0)
(2.3692 0.0550677 0)
(2.39037 0.0582431 0)
(2.41204 0.0641749 0)
(2.43297 0.0691606 0)
(2.45294 0.07285 0)
(2.46882 0.0775363 0)
(2.47595 0.0830163 0)
(2.48012 0.0834557 0)
(2.48974 0.0778296 0)
(2.50001 0.0694597 0)
(2.51105 0.0624784 0)
(2.52568 0.0623175 0)
(2.54378 0.0697315 0)
(2.56767 0.0801458 0)
(1.55019 0.902459 0)
(1.74245 0.846417 0)
(1.92388 0.757295 0)
(2.05956 0.684874 0)