/*--------------------------------*- C++ -*----------------------------------*\
  =========                 |
  \\      /  F ield         | OpenFOAM: The Open Source CFD Toolbox
   \\    /   O peration     | Website:  https://openfoam.org
    \\  /    A nd           | Version:  7
     \\/     M anipulation  |
\*---------------------------------------------------------------------------*/
FoamFile
{
    version     2.0;
    format      ascii;
    class       volScalarField;
    location    "100";
    object      p;
}
// * * * * * * * * * * * * * * * * * * * * * * * * * * * * * * * * * * * * * //

dimensions      [0 2 -2 0 0 0 0];

internalField   nonuniform List<scalar> 
31800
(
-0.324214
-0.325894
-0.326796
-0.327497
-0.328117
-0.328709
-0.329337
-0.330036
-0.330822
-0.3317
-0.332665
-0.333709
-0.334817
-0.335969
-0.337137
-0.338286
-0.339367
-0.340318
-0.341058
-0.341489
-0.341496
-0.340968
-0.339772
-0.337769
-0.33499
-0.321543
-0.323331
-0.324274
-0.324989
-0.325595
-0.326141
-0.326686
-0.327262
-0.327881
-0.328542
-0.329236
-0.329945
-0.330649
-0.33132
-0.331922
-0.332412
-0.332737
-0.332831
-0.332619
-0.332011
-0.330914
-0.329243
-0.326913
-0.323807
-0.320101
-0.318996
-0.320875
-0.321852
-0.322576
-0.323164
-0.323661
-0.324122
-0.324575
-0.325026
-0.325472
-0.325895
-0.326274
-0.326579
-0.326775
-0.32682
-0.326663
-0.326248
-0.325507
-0.324368
-0.322752
-0.320582
-0.317804
-0.314377
-0.310197
-0.305555
-0.316591
-0.318544
-0.319547
-0.320274
-0.32084
-0.321286
-0.321663
-0.321993
-0.322279
-0.322512
-0.322669
-0.322723
-0.322637
-0.322369
-0.321871
-0.321086
-0.319954
-0.318407
-0.316377
-0.313794
-0.310598
-0.306762
-0.302294
-0.297101
-0.291536
-0.314339
-0.31635
-0.317371
-0.318096
-0.318638
-0.319032
-0.319324
-0.319533
-0.319657
-0.319681
-0.319579
-0.319316
-0.31885
-0.318132
-0.317109
-0.315719
-0.313899
-0.311583
-0.308704
-0.305205
-0.301041
-0.296212
-0.290773
-0.284653
-0.278193
-0.312252
-0.314305
-0.315337
-0.316056
-0.316571
-0.316912
-0.317121
-0.317211
-0.317176
-0.316997
-0.316643
-0.316073
-0.31524
-0.31409
-0.312563
-0.310595
-0.308121
-0.305074
-0.301397
-0.297041
-0.291977
-0.286226
-0.279898
-0.272961
-0.265636
-0.310339
-0.31242
-0.313457
-0.314165
-0.31465
-0.314938
-0.315063
-0.315037
-0.314849
-0.314473
-0.313876
-0.31301
-0.311825
-0.310261
-0.308255
-0.305739
-0.302647
-0.298917
-0.294494
-0.289344
-0.283454
-0.276862
-0.269726
-0.262101
-0.253941
-0.308609
-0.310703
-0.311737
-0.312431
-0.312885
-0.313118
-0.313162
-0.313023
-0.312685
-0.312121
-0.311289
-0.310141
-0.30862
-0.306663
-0.304203
-0.301171
-0.297501
-0.293134
-0.288023
-0.282146
-0.275508
-0.268159
-0.260294
-0.252115
-0.243134
-0.307065
-0.309161
-0.310187
-0.310862
-0.311281
-0.31146
-0.311425
-0.311176
-0.310694
-0.309948
-0.308892
-0.307475
-0.305636
-0.303307
-0.30042
-0.296905
-0.292698
-0.287742
-0.282002
-0.275467
-0.268161
-0.260148
-0.251622
-0.243029
-0.233199
-0.305713
-0.307799
-0.308811
-0.309463
-0.309847
-0.309971
-0.309856
-0.309501
-0.308881
-0.307961
-0.306693
-0.30502
-0.302879
-0.300202
-0.296916
-0.292952
-0.288248
-0.282755
-0.276443
-0.269318
-0.261427
-0.25285
-0.24372
-0.234849
-0.224172
-0.304555
-0.306621
-0.307614
-0.308239
-0.308585
-0.308653
-0.308462
-0.308003
-0.30725
-0.306164
-0.304694
-0.30278
-0.300357
-0.297353
-0.293697
-0.289319
-0.28416
-0.278177
-0.271352
-0.263705
-0.255309
-0.246289
-0.236574
-0.227531
-0.216294
-0.303593
-0.305629
-0.306598
-0.307194
-0.307498
-0.307511
-0.307243
-0.306684
-0.305804
-0.30456
-0.302899
-0.300759
-0.298072
-0.294765
-0.290767
-0.286009
-0.280436
-0.274012
-0.26673
-0.258625
-0.249798
-0.240511
-0.230123
-0.22104
-0.209385
-0.302826
-0.304825
-0.305765
-0.306327
-0.306589
-0.306545
-0.306202
-0.305546
-0.304544
-0.30315
-0.30131
-0.298958
-0.296026
-0.29244
-0.288128
-0.283025
-0.277079
-0.270262
-0.262578
-0.254075
-0.244857
-0.235142
-0.224705
-0.215516
-0.203317
-0.302256
-0.304209
-0.305116
-0.305642
-0.305858
-0.305755
-0.305338
-0.304588
-0.303469
-0.301935
-0.299926
-0.297378
-0.294219
-0.290377
-0.285781
-0.280367
-0.27409
-0.266927
-0.258895
-0.250056
-0.240515
-0.230551
-0.219926
-0.210919
-0.198072
-0.301881
-0.303782
-0.304651
-0.305135
-0.305303
-0.305141
-0.304651
-0.30381
-0.30258
-0.300912
-0.298746
-0.296017
-0.292652
-0.288578
-0.283726
-0.278036
-0.271467
-0.264006
-0.255679
-0.246566
-0.236772
-0.226684
-0.215825
-0.207226
-0.193631
-0.3017
-0.303542
-0.304368
-0.304808
-0.304925
-0.304702
-0.304138
-0.303208
-0.301873
-0.30008
-0.297769
-0.294873
-0.291321
-0.287039
-0.28196
-0.276028
-0.269208
-0.261496
-0.252927
-0.243604
-0.233616
-0.223512
-0.212402
-0.204421
-0.189991
-0.301712
-0.303489
-0.304267
-0.304658
-0.30472
-0.304434
-0.303797
-0.302781
-0.301345
-0.299435
-0.296991
-0.293944
-0.290223
-0.285757
-0.280479
-0.274339
-0.267308
-0.259389
-0.25063
-0.241159
-0.231031
-0.221013
-0.209644
-0.202455
-0.187174
-0.301915
-0.303619
-0.304345
-0.304682
-0.304685
-0.304335
-0.303624
-0.302525
-0.300993
-0.298974
-0.296408
-0.293225
-0.289354
-0.284726
-0.279277
-0.272962
-0.265756
-0.257674
-0.248774
-0.239214
-0.228995
-0.219155
-0.207534
-0.201236
-0.185214
-0.302308
-0.303932
-0.304599
-0.304877
-0.304817
-0.3044
-0.303615
-0.302433
-0.30081
-0.29869
-0.296012
-0.292707
-0.288705
-0.283937
-0.278343
-0.271882
-0.264537
-0.256333
-0.247336
-0.237741
-0.227477
-0.21788
-0.206056
-0.200622
-0.184136
-0.30289
-0.304423
-0.305026
-0.305239
-0.305112
-0.304624
-0.303764
-0.302501
-0.30079
-0.298576
-0.295796
-0.292382
-0.288264
-0.283376
-0.277661
-0.271081
-0.263628
-0.255338
-0.246282
-0.236698
-0.226434
-0.217109
-0.205185
-0.200443
-0.183918
-0.303657
-0.305092
-0.305622
-0.305764
-0.305563
-0.305001
-0.304064
-0.302721
-0.300925
-0.298622
-0.295749
-0.292237
-0.288017
-0.283026
-0.277209
-0.270534
-0.263
-0.254652
-0.245571
-0.236031
-0.225812
-0.216741
-0.204877
-0.200531
-0.18446
-0.304609
-0.305934
-0.306384
-0.306447
-0.306167
-0.305524
-0.304507
-0.303083
-0.301205
-0.298817
-0.295857
-0.292256
-0.287947
-0.282866
-0.276963
-0.27021
-0.262614
-0.254232
-0.24515
-0.235671
-0.225546
-0.216669
-0.205051
-0.200754
-0.185584
-0.305743
-0.306946
-0.307308
-0.307284
-0.306916
-0.306188
-0.305086
-0.303579
-0.301618
-0.299148
-0.296106
-0.292422
-0.288031
-0.282869
-0.27689
-0.270072
-0.262427
-0.254024
-0.244959
-0.235548
-0.225555
-0.216792
-0.205586
-0.201027
-0.187054
-0.307056
-0.308126
-0.308389
-0.308268
-0.307804
-0.306983
-0.305791
-0.304197
-0.302152
-0.2996
-0.296477
-0.292714
-0.288245
-0.283007
-0.276958
-0.270079
-0.262392
-0.253975
-0.244934
-0.235584
-0.225748
-0.21702
-0.206328
-0.201298
-0.188633
-0.308546
-0.309469
-0.309624
-0.309395
-0.308825
-0.307902
-0.306613
-0.304926
-0.302793
-0.300157
-0.296952
-0.29311
-0.288562
-0.28325
-0.27713
-0.27019
-0.26246
-0.254025
-0.245008
-0.235703
-0.226027
-0.217273
-0.207115
-0.201527
-0.190112
-0.310212
-0.310974
-0.311008
-0.31066
-0.309972
-0.308936
-0.307541
-0.305754
-0.303527
-0.300802
-0.297512
-0.293587
-0.288957
-0.283564
-0.277369
-0.270362
-0.262581
-0.254119
-0.245113
-0.235832
-0.226296
-0.217474
-0.2078
-0.201657
-0.191326
-0.312051
-0.312637
-0.312538
-0.312058
-0.31124
-0.31008
-0.308567
-0.306671
-0.304342
-0.301521
-0.298138
-0.294122
-0.289403
-0.283922
-0.27764
-0.270554
-0.262707
-0.2542
-0.245184
-0.235902
-0.226466
-0.217551
-0.208267
-0.201614
-0.192151
-0.314062
-0.314458
-0.314213
-0.313586
-0.312623
-0.311325
-0.309683
-0.307666
-0.305225
-0.302298
-0.298814
-0.294698
-0.289878
-0.284294
-0.27791
-0.270726
-0.262793
-0.254218
-0.245163
-0.235849
-0.226463
-0.217436
-0.208432
-0.201297
-0.1925
-0.316245
-0.316435
-0.316029
-0.315241
-0.314118
-0.312667
-0.310882
-0.308732
-0.306167
-0.303122
-0.299525
-0.295296
-0.29036
-0.284656
-0.278149
-0.270843
-0.262798
-0.254125
-0.244998
-0.235621
-0.226231
-0.21708
-0.208243
-0.200596
-0.192351
-0.3186
-0.318569
-0.317988
-0.317023
-0.315723
-0.314104
-0.312161
-0.309864
-0.307161
-0.303986
-0.300261
-0.295903
-0.290832
-0.284986
-0.27833
-0.270874
-0.262684
-0.253881
-0.244648
-0.235177
-0.225734
-0.216462
-0.207679
-0.199487
-0.19179
-0.32113
-0.320862
-0.320092
-0.318933
-0.31744
-0.315636
-0.313519
-0.31106
-0.308205
-0.304885
-0.301016
-0.29651
-0.291281
-0.285265
-0.278429
-0.270789
-0.26242
-0.253452
-0.24408
-0.23449
-0.224957
-0.215575
-0.206748
-0.198164
-0.190869
-0.32384
-0.323318
-0.322343
-0.320973
-0.31927
-0.317265
-0.314959
-0.312322
-0.309301
-0.305819
-0.301788
-0.29711
-0.291696
-0.285478
-0.278425
-0.270563
-0.261979
-0.252815
-0.243275
-0.233546
-0.223902
-0.214415
-0.205476
-0.196749
-0.189182
-0.326734
-0.325944
-0.324747
-0.32315
-0.32122
-0.318997
-0.316486
-0.313657
-0.310453
-0.306792
-0.302576
-0.297699
-0.292067
-0.285608
-0.278299
-0.270176
-0.261342
-0.251953
-0.242224
-0.232345
-0.222579
-0.212988
-0.203941
-0.195089
-0.187273
-0.329822
-0.328745
-0.327312
-0.325472
-0.323297
-0.320841
-0.31811
-0.315074
-0.31167
-0.307809
-0.303382
-0.298275
-0.292385
-0.285644
-0.278035
-0.269611
-0.260495
-0.250861
-0.24093
-0.230895
-0.221008
-0.211318
-0.202169
-0.193214
-0.185247
-0.333112
-0.331732
-0.330047
-0.327947
-0.325514
-0.32281
-0.319845
-0.316585
-0.312963
-0.308878
-0.30421
-0.298834
-0.292642
-0.28557
-0.277617
-0.268857
-0.259433
-0.249539
-0.239402
-0.229213
-0.219208
-0.209428
-0.20019
-0.191149
-0.183065
-0.336617
-0.334914
-0.332963
-0.330589
-0.327883
-0.324918
-0.321704
-0.318205
-0.314344
-0.310007
-0.305061
-0.29937
-0.292827
-0.285376
-0.277036
-0.267907
-0.258157
-0.247996
-0.237653
-0.227316
-0.217201
-0.207341
-0.198026
-0.188908
-0.180743
-0.340348
-0.338304
-0.336072
-0.333411
-0.330419
-0.32718
-0.323704
-0.319948
-0.315824
-0.311202
-0.305934
-0.299878
-0.292929
-0.285048
-0.276282
-0.266759
-0.256672
-0.246243
-0.2357
-0.225224
-0.215008
-0.205076
-0.195692
-0.186509
-0.178278
-0.34432
-0.341914
-0.339386
-0.336426
-0.333138
-0.329614
-0.325862
-0.321829
-0.317412
-0.312464
-0.306825
-0.300347
-0.292936
-0.284578
-0.275351
-0.265416
-0.254988
-0.244296
-0.233562
-0.222955
-0.212646
-0.20265
-0.193203
-0.183963
-0.175677
-0.348546
-0.345756
-0.342921
-0.33965
-0.336056
-0.332236
-0.328192
-0.323859
-0.319114
-0.313794
-0.307725
-0.300764
-0.292835
-0.283955
-0.274241
-0.263884
-0.253115
-0.242169
-0.231254
-0.220525
-0.210129
-0.200073
-0.190569
-0.18128
-0.172944
-0.353038
-0.349842
-0.346687
-0.343098
-0.339188
-0.335061
-0.330707
-0.326044
-0.32093
-0.315182
-0.308621
-0.301114
-0.292612
-0.283173
-0.272952
-0.262169
-0.251067
-0.239876
-0.22879
-0.217946
-0.207467
-0.197356
-0.187798
-0.178466
-0.170084
-0.357807
-0.354182
-0.350697
-0.346781
-0.342547
-0.338101
-0.333416
-0.328389
-0.322856
-0.316618
-0.309497
-0.301379
-0.292254
-0.282226
-0.271486
-0.26028
-0.248854
-0.237429
-0.22618
-0.215226
-0.204669
-0.194506
-0.184895
-0.175526
-0.167102
-0.362862
-0.358786
-0.354961
-0.350711
-0.346146
-0.341365
-0.336322
-0.33089
-0.324879
-0.318083
-0.310331
-0.301541
-0.29175
-0.281109
-0.269847
-0.258224
-0.246486
-0.234837
-0.223432
-0.212373
-0.201739
-0.191525
-0.181863
-0.172463
-0.163999
-0.368208
-0.363658
-0.359486
-0.354897
-0.34999
-0.344856
-0.339424
-0.333536
-0.326983
-0.319554
-0.311099
-0.30158
-0.291087
-0.27982
-0.268037
-0.256008
-0.243968
-0.232105
-0.22055
-0.209388
-0.198679
-0.188416
-0.178706
-0.16928
-0.160779
-0.373846
-0.368802
-0.364275
-0.359342
-0.354082
-0.348574
-0.342712
-0.33631
-0.329141
-0.321001
-0.311774
-0.301475
-0.290254
-0.278355
-0.266059
-0.253635
-0.241305
-0.229235
-0.217536
-0.206273
-0.195491
-0.185179
-0.175423
-0.165977
-0.157443
-0.379772
-0.374216
-0.36933
-0.364046
-0.358421
-0.35251
-0.346171
-0.339187
-0.331323
-0.322393
-0.312328
-0.301208
-0.289241
-0.276711
-0.263912
-0.251107
-0.238499
-0.226229
-0.214389
-0.203027
-0.192173
-0.181815
-0.172016
-0.162555
-0.15399
-0.385979
-0.379895
-0.374645
-0.369005
-0.362998
-0.356649
-0.349776
-0.342136
-0.333493
-0.323694
-0.312734
-0.30076
-0.288039
-0.274883
-0.261595
-0.248423
-0.235546
-0.223084
-0.211106
-0.199648
-0.188724
-0.178321
-0.168482
-0.159013
-0.150421
-0.392451
-0.385826
-0.38021
-0.374207
-0.367797
-0.360968
-0.353496
-0.345117
-0.335609
-0.324868
-0.312962
-0.300112
-0.286635
-0.272867
-0.259106
-0.24558
-0.232445
-0.219796
-0.207684
-0.19613
-0.185139
-0.174695
-0.16482
-0.155349
-0.146735
-0.399168
-0.391992
-0.386011
-0.379636
-0.372796
-0.365436
-0.357291
-0.348086
-0.337626
-0.325876
-0.312985
-0.299246
-0.28502
-0.270655
-0.256438
-0.242571
-0.229187
-0.216358
-0.204116
-0.192471
-0.181416
-0.170933
-0.161029
-0.151563
-0.14293
-0.406102
-0.398372
-0.392024
-0.385267
-0.377964
-0.370014
-0.361115
-0.350992
-0.339498
-0.32668
-0.312774
-0.298144
-0.283182
-0.26824
-0.253583
-0.23939
-0.225767
-0.212763
-0.200396
-0.188663
-0.17755
-0.167034
-0.157106
-0.147652
-0.139006
-0.413219
-0.404935
-0.398222
-0.391068
-0.383263
-0.374656
-0.364915
-0.353781
-0.341176
-0.327241
-0.312304
-0.296788
-0.281109
-0.265609
-0.250532
-0.236027
-0.222174
-0.209003
-0.196517
-0.184702
-0.173535
-0.162991
-0.153048
-0.143613
-0.13496
-0.420477
-0.411644
-0.404567
-0.396999
-0.388645
-0.379307
-0.368631
-0.356396
-0.342611
-0.327522
-0.311547
-0.295159
-0.278786
-0.262752
-0.247274
-0.232472
-0.218399
-0.205069
-0.192471
-0.18058
-0.169367
-0.158803
-0.148852
-0.139445
-0.130791
-0.427827
-0.418456
-0.411017
-0.403012
-0.394056
-0.383904
-0.372198
-0.358777
-0.343754
-0.327487
-0.310479
-0.293241
-0.276199
-0.259656
-0.243796
-0.228711
-0.214431
-0.200952
-0.18825
-0.176292
-0.165041
-0.154463
-0.144514
-0.135144
-0.126497
-0.435214
-0.42532
-0.417519
-0.409051
-0.399433
-0.38838
-0.37555
-0.360864
-0.344556
-0.327102
-0.309075
-0.291013
-0.273332
-0.256306
-0.240086
-0.224734
-0.210259
-0.196642
-0.183845
-0.171829
-0.16055
-0.149969
-0.140032
-0.130707
-0.122076
-0.442573
-0.432177
-0.424015
-0.415052
-0.404704
-0.392661
-0.378616
-0.362597
-0.344973
-0.326331
-0.307309
-0.288456
-0.270168
-0.252687
-0.236127
-0.220526
-0.205872
-0.192128
-0.179249
-0.167186
-0.15589
-0.145315
-0.135402
-0.126132
-0.117525
-0.449835
-0.438963
-0.430438
-0.420942
-0.409794
-0.396669
-0.381324
-0.363917
-0.344959
-0.325143
-0.305157
-0.285551
-0.266691
-0.248782
-0.231907
-0.216076
-0.201257
-0.187401
-0.174454
-0.162356
-0.151055
-0.140498
-0.130622
-0.121416
-0.112843
-0.456923
-0.445604
-0.436713
-0.426645
-0.414621
-0.400323
-0.383603
-0.364766
-0.34447
-0.323507
-0.302596
-0.282277
-0.262882
-0.244576
-0.22741
-0.211369
-0.196404
-0.182452
-0.16945
-0.157333
-0.14604
-0.135513
-0.125687
-0.116556
-0.108029
-0.463753
-0.452023
-0.442761
-0.432073
-0.419096
-0.403542
-0.385383
-0.365089
-0.343468
-0.321392
-0.299602
-0.278615
-0.258723
-0.240052
-0.222622
-0.206393
-0.191301
-0.177272
-0.164232
-0.15211
-0.14084
-0.130357
-0.120595
-0.111549
-0.10308
-0.470239
-0.458134
-0.448493
-0.437138
-0.423131
-0.406243
-0.386594
-0.364835
-0.341912
-0.318769
-0.296152
-0.274544
-0.254196
-0.235194
-0.217527
-0.201135
-0.185938
-0.171851
-0.158791
-0.146682
-0.13545
-0.125026
-0.115344
-0.106395
-0.0979961
-0.476288
-0.463849
-0.45382
-0.441746
-0.426634
-0.408345
-0.387171
-0.363953
-0.339768
-0.315612
-0.292223
-0.270045
-0.249284
-0.229986
-0.212113
-0.195584
-0.180305
-0.166181
-0.153122
-0.141043
-0.129867
-0.119518
-0.10993
-0.10109
-0.0927766
-0.481804
-0.469074
-0.458645
-0.445801
-0.429515
-0.409768
-0.387052
-0.362397
-0.337
-0.311894
-0.287794
-0.265099
-0.243969
-0.224414
-0.206366
-0.189728
-0.174392
-0.160255
-0.147217
-0.135188
-0.124086
-0.113829
-0.104353
-0.0956328
-0.0874215
-0.486688
-0.473712
-0.462871
-0.449205
-0.431683
-0.410438
-0.386179
-0.360126
-0.333579
-0.30759
-0.282844
-0.259688
-0.238236
-0.218461
-0.200274
-0.183557
-0.168192
-0.154065
-0.141071
-0.129114
-0.118105
-0.107958
-0.0986094
-0.0900235
-0.0819317
-0.490843
-0.477666
-0.466398
-0.451861
-0.43305
-0.410282
-0.384498
-0.357099
-0.329475
-0.302679
-0.277353
-0.253794
-0.232068
-0.212116
-0.193825
-0.177061
-0.161696
-0.147607
-0.134681
-0.122817
-0.111921
-0.101902
-0.0926989
-0.0842621
-0.0763103
-0.494167
-0.480837
-0.469127
-0.453675
-0.433534
-0.409235
-0.381959
-0.353283
-0.324661
-0.297137
-0.271303
-0.247401
-0.225452
-0.205367
-0.187009
-0.170233
-0.154898
-0.140874
-0.128041
-0.116293
-0.105531
-0.0956598
-0.0866195
-0.0783492
-0.0705614
-0.496564
-0.483127
-0.470962
-0.454555
-0.433056
-0.407234
-0.37852
-0.348645
-0.319115
-0.290947
-0.264678
-0.240494
-0.218375
-0.198202
-0.179818
-0.163066
-0.147793
-0.133863
-0.12115
-0.109541
-0.0989343
-0.0892295
-0.0803696
-0.0722831
-0.0646811
-0.497937
-0.48444
-0.471807
-0.454413
-0.431543
-0.404227
-0.374141
-0.343159
-0.312816
-0.284091
-0.257463
-0.233062
-0.210827
-0.190613
-0.172245
-0.155552
-0.140376
-0.12657
-0.114004
-0.10256
-0.0921304
-0.0826115
-0.07395
-0.0660598
-0.0586428
-0.498196
-0.484685
-0.471572
-0.453169
-0.42893
-0.400165
-0.36879
-0.336801
-0.305746
-0.276556
-0.249645
-0.225092
-0.202798
-0.182592
-0.164283
-0.14769
-0.132644
-0.118994
-0.106603
-0.0953497
-0.0851195
-0.0758078
-0.0673662
-0.05968
-0.0524045
-0.497254
-0.483774
-0.470173
-0.450749
-0.425159
-0.395006
-0.362438
-0.329552
-0.29789
-0.268328
-0.241214
-0.216577
-0.194281
-0.174133
-0.155928
-0.139475
-0.124596
-0.111134
-0.0989477
-0.0879101
-0.0779025
-0.06882
-0.0606223
-0.0531517
-0.0459834
-0.49503
-0.481626
-0.467533
-0.447085
-0.420179
-0.388717
-0.355064
-0.321397
-0.289238
-0.259398
-0.232163
-0.207509
-0.185271
-0.165233
-0.147179
-0.130906
-0.116231
-0.10299
-0.0910379
-0.080243
-0.0704819
-0.0616508
-0.0537149
-0.046448
-0.0395275
-0.49145
-0.478165
-0.46358
-0.442119
-0.413948
-0.381271
-0.346651
-0.312326
-0.279781
-0.249761
-0.222485
-0.197885
-0.175765
-0.155891
-0.138033
-0.121983
-0.10755
-0.0945643
-0.0828764
-0.0723517
-0.0628623
-0.0543075
-0.0466427
-0.0396024
-0.0329743
-0.48645
-0.473325
-0.458255
-0.435804
-0.406434
-0.372647
-0.337188
-0.302331
-0.269516
-0.239412
-0.212179
-0.187703
-0.165762
-0.146106
-0.128493
-0.112708
-0.0985551
-0.0858597
-0.0744677
-0.0642398
-0.0550465
-0.0467901
-0.0394147
-0.0326252
-0.0263046
-0.479973
-0.467048
-0.451504
-0.428099
-0.397611
-0.362834
-0.326671
-0.291412
-0.258441
-0.228352
-0.201244
-0.176964
-0.155264
-0.135879
-0.118562
-0.103085
-0.0892526
-0.076881
-0.0658149
-0.0559119
-0.0470397
-0.0391032
-0.0320374
-0.0255188
-0.0195169
-0.471971
-0.459287
-0.443286
-0.418975
-0.387464
-0.351826
-0.315098
-0.279571
-0.24656
-0.216584
-0.189684
-0.165671
-0.144274
-0.125215
-0.108246
-0.0931215
-0.0796455
-0.0676332
-0.0569243
-0.0473737
-0.0388475
-0.0312529
-0.0245165
-0.0182857
-0.0126163
-0.462408
-0.450002
-0.43357
-0.408412
-0.375985
-0.339625
-0.302477
-0.266815
-0.233879
-0.204114
-0.177505
-0.15383
-0.1328
-0.114127
-0.0975476
-0.0828211
-0.0697417
-0.0581234
-0.0478027
-0.0386322
-0.0304764
-0.023246
-0.0168581
-0.0109301
-0.00560952
-0.451257
-0.439166
-0.422335
-0.396401
-0.363177
-0.326238
-0.288818
-0.253155
-0.220409
-0.190951
-0.164716
-0.141452
-0.120851
-0.102617
-0.0864782
-0.072193
-0.0595495
-0.0483599
-0.0384584
-0.0296952
-0.0219343
-0.0150899
-0.00906853
-0.00345824
0.00149643
-0.438503
-0.426762
-0.40957
-0.382943
-0.349049
-0.311682
-0.274138
-0.238606
-0.206164
-0.177109
-0.151332
-0.128548
-0.108438
-0.0906973
-0.0750489
-0.061248
-0.0490791
-0.0383525
-0.0289006
-0.0205717
-0.0132298
-0.00679291
-0.00115547
0.00412272
0.00869403
-0.424141
-0.412784
-0.395276
-0.368048
-0.333618
-0.295977
-0.258459
-0.223191
-0.191162
-0.162607
-0.137365
-0.115132
-0.0955749
-0.0783817
-0.0632719
-0.049998
-0.038342
-0.0281122
-0.0191399
-0.0112718
-0.00437266
0.00163589
0.00687264
0.0118043
0.0159753
-0.408175
-0.397237
-0.379465
-0.351735
-0.316912
-0.279153
-0.241808
-0.206932
-0.175428
-0.147462
-0.122835
-0.101221
-0.0822772
-0.0656853
-0.0511618
-0.0384569
-0.027351
-0.0176512
-0.00918795
-0.00180672
0.00462659
0.0101865
0.0150064
0.0195772
0.0233314
-0.390624
-0.380136
-0.362157
-0.334033
-0.298962
-0.261243
-0.224217
-0.189859
-0.158985
-0.131699
-0.107764
-0.0868358
-0.0685639
-0.0526256
-0.0387347
-0.0266399
-0.0161206
-0.00698321
0.000942449
0.00781151
0.0137563
0.0188479
0.0232354
0.027431
0.0307532
-0.371515
-0.361508
-0.343385
-0.31498
-0.279812
-0.242288
-0.20572
-0.172003
-0.141864
-0.115343
-0.0921748
-0.0719984
-0.0544561
-0.039222
-0.0260087
-0.0145639
-0.00466648
0.00387711
0.0112374
0.0175697
0.023004
0.0276084
0.0315485
0.0353545
0.0382303
-0.350886
-0.341389
-0.323188
-0.294624
-0.259515
-0.222329
-0.186356
-0.153403
-0.124096
-0.0984259
-0.0760961
-0.0567342
-0.0399768
-0.0254961
-0.0130037
-0.00224731
0.00699414
0.0149138
0.0216819
0.0274537
0.0323562
0.0364553
0.0399336
0.0433355
0.0457512
-0.328784
-0.319824
-0.301619
-0.273025
-0.238123
-0.201399
-0.166179
-0.134098
-0.10572
-0.0809796
-0.0595577
-0.0410707
-0.0251514
-0.0114711
0.00025877
0.0102901
0.018843
0.0261098
0.0322602
0.0374485
0.0417986
0.0453751
0.0483779
0.0513604
0.0533033
-0.305263
-0.29687
-0.27874
-0.250244
-0.215649
-0.179595
-0.145235
-0.114135
-0.0867736
-0.0630404
-0.0425923
-0.0250379
-0.0100074
0.00282789
0.0137557
0.0230269
0.0308604
0.037447
0.0429554
0.0475384
0.0513162
0.0543534
0.0568671
0.0594138
0.0608721
-0.280386
-0.272597
-0.254631
-0.226323
-0.192192
-0.156951
-0.123577
-0.0935598
-0.0673015
-0.0446471
-0.0252352
-0.00866779
0.00542589
0.0173739
0.0274625
0.0359408
0.0430257
0.0489064
0.0537499
0.0577069
0.0608934
0.0633755
0.065386
0.067477
0.0684365
-0.254222
-0.247082
-0.229367
-0.201285
-0.16786
-0.133535
-0.101263
-0.0724251
-0.0473492
-0.0258413
-0.00752403
0.00800524
0.0211173
0.0321385
0.0413531
0.0490078
0.0553172
0.0604681
0.0646255
0.0679372
0.0705143
0.0724261
0.0739195
0.0755305
0.0759696
-0.226848
-0.220407
-0.202931
-0.175344
-0.142698
-0.109416
-0.0783542
-0.0507849
-0.0269654
-0.00666696
0.0105014
0.024945
0.0370337
0.0470916
0.0554001
0.0622031
0.0677122
0.0721113
0.0755633
0.0782116
0.0801621
0.0814898
0.0824544
0.0835595
0.083454
-0.198338
-0.192681
-0.175477
-0.14853
-0.116784
-0.0846662
-0.0549147
-0.0286962
-0.00620138
0.0128298
0.0287991
0.0421135
0.0531407
0.0622018
0.0695749
0.0755006
0.0801869
0.0838147
0.0865438
0.0885119
0.0898191
0.090551
0.0909807
0.0915554
0.0908845
-0.168776
-0.163975
-0.147166
-0.120922
-0.0902021
-0.0593594
-0.0310109
-0.00621845
0.0148894
0.0326005
0.0473254
0.0594709
0.0694021
0.0774363
0.0838478
0.0888733
0.0927169
0.0955563
0.0975472
0.0988195
0.0994676
0.0995965
0.0994885
0.0994858
0.0981667
-0.138363
-0.13436
-0.118057
-0.092614
-0.0630372
-0.0335732
-0.006712
0.0165864
0.0362513
0.0525951
0.0660347
0.0769761
0.0857805
0.0927612
0.098188
0.102293
0.105277
0.107313
0.108553
0.109116
0.109094
0.108622
0.107964
0.107238
0.104998
-0.107218
-0.103915
-0.0882411
-0.0637054
-0.0353784
-0.00738734
0.0179107
0.0396544
0.0578268
0.0727615
0.0848801
0.0945864
0.102237
0.108141
0.112564
0.115732
0.117842
0.119063
0.11954
0.119384
0.118692
0.117633
0.116389
0.114674
0.111151
-0.0753752
-0.0728001
-0.057825
-0.0342957
-0.00731747
0.0191162
0.042784
0.06292
0.0795567
0.0930463
0.103813
0.112258
0.118733
0.123541
0.126942
0.129159
0.130383
0.13078
0.130488
0.129608
0.128254
0.126625
0.124733
0.121846
0.117297
-0.0429489
-0.0411379
-0.026919
-0.00448776
0.021052
0.0458536
0.0678329
0.0863159
0.101381
0.113395
0.122785
0.129946
0.135226
0.138923
0.14129
0.142545
0.142876
0.142441
0.141372
0.139769
0.137763
0.135555
0.132937
0.128947
0.125486
-0.0100651
-0.00904349
0.00436363
0.0256133
0.0496349
0.0727397
0.0929812
0.109774
0.123237
0.133752
0.141744
0.147605
0.151677
0.15425
0.155573
0.15586
0.15529
0.154019
0.152172
0.149848
0.147191
0.144368
0.141021
0.136409
0.133619
0.0231514
0.023365
0.0359075
0.055901
0.0783347
0.099688
0.118152
0.133224
0.145063
0.15406
0.16064
0.165189
0.168042
0.169484
0.169758
0.16907
0.167598
0.165489
0.162864
0.159823
0.156514
0.153057
0.149046
0.144019
0.141297
0.0565753
0.055967
0.0675961
0.0862675
0.107054
0.126612
0.143266
0.156597
0.166795
0.174263
0.179421
0.182651
0.18428
0.184587
0.183809
0.182146
0.179771
0.176825
0.173425
0.169671
0.165706
0.161617
0.157004
0.151621
0.148695
0.0900801
0.08864
0.0993121
0.116605
0.135696
0.153423
0.168247
0.179821
0.188371
0.194302
0.198035
0.199943
0.200347
0.199519
0.197691
0.195056
0.191779
0.188001
0.18383
0.179367
0.174748
0.170035
0.164859
0.159106
0.155837
0.123539
0.121261
0.130938
0.146805
0.164163
0.180035
0.193015
0.202827
0.209726
0.214122
0.21643
0.217019
0.216201
0.214243
0.211369
0.207766
0.203595
0.19899
0.194055
0.188889
0.18362
0.178295
0.172577
0.166432
0.162747
0.156824
0.153707
0.162357
0.17676
0.192357
0.206361
0.217492
0.225545
0.230796
0.233663
0.234554
0.233831
0.2318
0.22872
0.224808
0.220246
0.215189
0.209765
0.204075
0.198215
0.192303
0.186377
0.180128
0.173576
0.169435
0.189809
0.185853
0.193452
0.206364
0.220182
0.232313
0.241601
0.247903
0.25152
0.252869
0.252356
0.250334
0.247102
0.242911
0.237973
0.232464
0.226533
0.220301
0.213867
0.207321
0.200776
0.194262
0.187491
0.180522
0.175902
0.222369
0.21758
0.224107
0.23551
0.247545
0.257808
0.265265
0.269834
0.271833
0.271684
0.269784
0.266479
0.262063
0.256778
0.25083
0.244389
0.237597
0.230572
0.223406
0.216187
0.20902
0.201928
0.194646
0.187257
0.182144
0.254378
0.248764
0.25421
0.264095
0.274349
0.28276
0.288408
0.291268
0.291675
0.290051
0.286787
0.282223
0.276643
0.270284
0.263345
0.25599
0.248355
0.240552
0.23267
0.224792
0.217016
0.20936
0.201576
0.193769
0.188156
0.285716
0.279289
0.283649
0.292017
0.300505
0.307087
0.310957
0.312138
0.310985
0.307915
0.303316
0.297519
0.290801
0.283392
0.275484
0.267236
0.258778
0.250216
0.241636
0.233115
0.224744
0.216538
0.208265
0.200045
0.193932
0.316263
0.309037
0.312314
0.319177
0.325922
0.330709
0.332838
0.33238
0.329703
0.325224
0.319323
0.312324
0.304497
0.296066
0.287215
0.278098
0.268839
0.25954
0.250281
0.241135
0.232188
0.223446
0.2147
0.206076
0.199464
0.345902
0.337897
0.3401
0.345477
0.350514
0.353548
0.353981
0.35193
0.347772
0.341924
0.334759
0.326594
0.317692
0.30827
0.298506
0.288547
0.278513
0.2685
0.258584
0.248834
0.239328
0.230069
0.220865
0.211848
0.204744
0.374519
0.365757
0.366904
0.370824
0.374195
0.375527
0.374318
0.370724
0.365136
0.357965
0.34958
0.340289
0.330349
0.319971
0.309326
0.298556
0.287774
0.277074
0.266525
0.256193
0.246148
0.236392
0.226748
0.217351
0.209763
0.402006
0.392511
0.392626
0.395129
0.396885
0.396574
0.393782
0.388705
0.381741
0.373299
0.36374
0.353368
0.342432
0.331135
0.319645
0.308096
0.296598
0.285238
0.274083
0.263193
0.252632
0.242399
0.232335
0.222573
0.214513
0.428258
0.41806
0.417172
0.418304
0.418506
0.416617
0.41231
0.405814
0.397534
0.387877
0.377198
0.365793
0.353905
0.341732
0.329434
0.317143
0.304962
0.292973
0.281239
0.269817
0.258765
0.248077
0.237614
0.227502
0.218987
0.453173
0.442304
0.440451
0.440267
0.438983
0.435591
0.429842
0.421996
0.412467
0.401655
0.389912
0.377526
0.364735
0.35173
0.338667
0.325671
0.312842
0.300257
0.287976
0.27605
0.26453
0.253413
0.242574
0.23213
0.223175
0.476658
0.465151
0.462377
0.46094
0.458246
0.453432
0.44632
0.437201
0.426491
0.414591
0.401844
0.388534
0.37489
0.361102
0.347317
0.333658
0.320218
0.307072
0.294275
0.281874
0.269916
0.258394
0.247201
0.236444
0.22707
0.498621
0.486516
0.482868
0.480248
0.476229
0.470079
0.46169
0.451377
0.439563
0.426644
0.412958
0.398781
0.384341
0.369819
0.35536
0.34108
0.32707
0.313399
0.30012
0.287275
0.274907
0.263008
0.251486
0.240436
0.230666
0.518979
0.506315
0.50185
0.498124
0.492868
0.485476
0.475901
0.464481
0.451642
0.437776
0.423218
0.408239
0.39306
0.377857
0.362773
0.347918
0.333378
0.319221
0.305495
0.29224
0.279492
0.267244
0.255419
0.244097
0.233956
0.537654
0.524474
0.51925
0.514502
0.508107
0.499572
0.488906
0.476468
0.462687
0.447953
0.432594
0.416878
0.40102
0.385193
0.369534
0.354151
0.339126
0.324523
0.310388
0.296756
0.283659
0.271092
0.258988
0.247417
0.236932
0.554572
0.540922
0.535006
0.529325
0.521892
0.512318
0.500661
0.4873
0.472664
0.457141
0.441056
0.424671
0.408197
0.391804
0.375624
0.359762
0.344297
0.32929
0.314783
0.30081
0.287398
0.274541
0.262187
0.250389
0.23959
0.56967
0.555597
0.549056
0.542538
0.534175
0.523671
0.511128
0.49694
0.48154
0.465313
0.448577
0.431594
0.41457
0.39767
0.381025
0.364735
0.348877
0.333509
0.318671
0.304393
0.290698
0.277584
0.265006
0.253006
0.241924
0.582886
0.568441
0.56135
0.554094
0.544913
0.533592
0.520271
0.505357
0.489286
0.47244
0.455134
0.437626
0.420118
0.402774
0.385721
0.369055
0.352853
0.337168
0.322039
0.307494
0.293552
0.280212
0.267439
0.255261
0.24393
0.594171
0.579404
0.571839
0.56395
0.554067
0.542046
0.528058
0.512523
0.495877
0.4785
0.460706
0.442747
0.424826
0.407101
0.389697
0.37271
0.356212
0.340256
0.324878
0.310104
0.295951
0.282418
0.269479
0.257148
0.245603
0.603478
0.588443
0.580485
0.572069
0.561605
0.549003
0.534463
0.518413
0.50129
0.483473
0.465274
0.446942
0.428677
0.410636
0.392942
0.375688
0.358946
0.342764
0.32718
0.312217
0.297889
0.284196
0.27112
0.258663
0.246941
0.610771
0.595522
0.587252
0.578421
0.567498
0.554438
0.539462
0.523005
0.505506
0.487342
0.468822
0.450195
0.431659
0.413369
0.395445
0.377981
0.361045
0.344686
0.328939
0.313827
0.299361
0.285542
0.272357
0.259802
0.247939
0.616018
0.600611
0.592114
0.582981
0.571724
0.558331
0.543038
0.526285
0.508511
0.490093
0.47134
0.452497
0.433762
0.415289
0.397198
0.37958
0.362502
0.346014
0.330149
0.314927
0.300361
0.286452
0.273188
0.260561
0.248597
0.619197
0.603687
0.59505
0.585731
0.574267
0.560668
0.545177
0.528239
0.510293
0.491717
0.472816
0.453838
0.434979
0.416391
0.398195
0.38048
0.363314
0.346745
0.330805
0.315516
0.300887
0.286921
0.273609
0.260938
0.248913
0.620293
0.604737
0.596046
0.586657
0.575116
0.561436
0.545869
0.528858
0.510845
0.492205
0.473246
0.454213
0.435304
0.41667
0.398431
0.380678
0.363476
0.346874
0.330905
0.315589
0.300937
0.286949
0.273618
0.26093
0.248884
0.619297
0.603753
0.595096
0.585754
0.574263
0.560633
0.54511
0.528139
0.510162
0.491555
0.472625
0.45362
0.434734
0.416123
0.397905
0.38017