/*--------------------------------*- C++ -*----------------------------------*\
  =========                 |
  \\      /  F ield         | OpenFOAM: The Open Source CFD Toolbox
   \\    /   O peration     | Website:  https://openfoam.org
    \\  /    A nd           | Version:  7
     \\/     M anipulation  |
\*---------------------------------------------------------------------------*/
FoamFile
{
    version     2.0;
    format      ascii;
    class       surfaceScalarField;
    location    "100";
    object      phi;
}
// * * * * * * * * * * * * * * * * * * * * * * * * * * * * * * * * * * * * * //

dimensions      [0 3 -1 0 0 0 0];

internalField   nonuniform List<scalar> 
63130
(
-2.51361e-06
-4.50609e-05
4.75745e-05
-9.34456e-06
-0.000116226
0.000123057
-2.01099e-05
-0.000173502
0.000184268
-3.44431e-05
-0.000217742
0.000232076
-5.19968e-05
-0.000250362
0.000267915
-7.2457e-05
-0.000273217
0.000293677
-9.5556e-05
-0.000288371
0.00031147
-0.000121083
-0.000297845
0.000323372
-0.000148891
-0.000303368
0.000331176
-0.000178891
-0.000306167
0.000336166
-0.000211046
-0.000306838
0.000338993
-0.000245361
-0.000305309
0.000339623
-0.000281861
-0.000300864
0.000337364
-0.000320578
-0.000292214
0.00033093
-0.00036152
-0.000277569
0.000318512
-0.000404652
-0.000254693
0.000297824
-0.000449858
-0.000220918
0.000266124
-0.000496906
-0.000173158
0.000220206
-0.000545414
-0.000107903
0.000156411
-0.000594823
-2.12551e-05
7.06639e-05
-0.000644397
9.0984e-05
-4.14097e-05
-0.000693325
0.000233228
-0.000184301
-0.000740846
0.000409847
-0.000362326
-0.000786395
0.000625106
-0.000579557
0.000884795
-0.000840909
-0.000830281
-2.69925e-06
-4.23616e-05
-9.96218e-06
-0.000108963
-2.13159e-05
-0.000162149
-3.63221e-05
-0.000202736
-5.45807e-05
-0.000232103
-7.57421e-05
-0.000252055
-9.95182e-05
-0.000264594
-0.000125689
-0.000271674
-0.000154101
-0.000274955
-0.000184664
-0.000275603
-0.000217336
-0.000274166
-0.000252105
-0.00027054
-0.000288975
-0.000263994
-0.00032794
-0.000253248
-0.000368965
-0.000236544
-0.000411955
-0.000211702
-0.000456728
-0.000176146
-0.000502974
-0.000126911
-0.000550234
-6.0643e-05
-0.000597858
2.63685e-05
-0.00064504
0.000138166
-0.00069087
0.000279058
-0.000734492
0.000453469
-0.00077513
0.000665745
0.000922142
-0.000812477
-2.85721e-06
-3.95044e-05
-1.04826e-05
-0.000101338
-2.232e-05
-0.000150311
-3.7863e-05
-0.000187193
-5.66601e-05
-0.000213306
-7.83257e-05
-0.00023039
-0.000102548
-0.000240372
-0.000129091
-0.000245132
-0.000157791
-0.000246255
-0.000188545
-0.000244849
-0.000221292
-0.000241419
-0.000255996
-0.000235836
-0.000292621
-0.000227368
-0.000331112
-0.000214757
-0.000371369
-0.000196288
-0.000413218
-0.000169853
-0.000456385
-0.000132979
-0.000500459
-8.28365e-05
-0.000544866
-1.62365e-05
-0.00058883
7.03324e-05
-0.000631404
0.00018074
-0.000671506
0.000319161
-0.00070808
0.000490042
-0.000740059
0.000697724
0.00094847
-0.000766387
-2.98738e-06
-3.6517e-05
-1.09061e-05
-9.34189e-05
-2.31237e-05
-0.000138094
-3.90705e-05
-0.000171246
-5.8245e-05
-0.000194132
-8.02248e-05
-0.00020841
-0.000104671
-0.000215926
-0.000131328
-0.000218475
-0.000160013
-0.00021757
-0.000190602
-0.00021426
-0.000223008
-0.000209013
-0.000257156
-0.000201688
-0.00029296
-0.000191564
-0.0003303
-0.000177417
-0.000368995
-0.000157593
-0.000408777
-0.000130071
-0.00044926
-9.24954e-05
-0.00048991
-4.21871e-05
-0.000529996
2.38501e-05
-0.000568596
0.000108932
-0.000604557
0.000216701
-0.000636552
0.000351156
-0.000663231
0.000516722
-0.000683197
0.00071769
0.000959822
-0.000694549
-3.09032e-06
-3.34267e-05
-1.1235e-05
-8.52742e-05
-2.37329e-05
-0.000125596
-3.99555e-05
-0.000155024
-5.93538e-05
-0.000174733
-8.14676e-05
-0.000186296
-0.000105929
-0.000191465
-0.000132456
-0.000191948
-0.000160842
-0.000189184
-0.000190934
-0.000184168
-0.000222609
-0.000177338
-0.000255745
-0.000168552
-0.000290194
-0.000157115
-0.000325761
-0.000141851
-0.000362171
-0.000121183
-0.000399047
-9.31954e-05
-0.000435875
-5.56665e-05
-0.000471974
-6.08882e-06
-0.000506451
5.83276e-05
-0.000538182
0.000140663
-0.000565778
0.000244297
-0.000587603
0.000372981
-0.000601935
0.000531054
-0.000607036
0.00072279
0.000952857
-0.000600071
-3.16712e-06
-3.02596e-05
-1.14734e-05
-7.6968e-05
-2.41567e-05
-0.000112913
-4.05345e-05
-0.000138646
-6.00122e-05
-0.000155256
-8.2092e-05
-0.000164216
-0.000106373
-0.000167184
-0.000132545
-0.000165776
-0.00016037
-0.000161359
-0.00018966
-0.000154878
-0.000220247
-0.000146751
-0.000251954
-0.000136845
-0.000284565
-0.000124504
-0.000317797
-0.000108618
-0.000351275
-8.77058e-05
-0.0003845
-5.99706e-05
-0.00041682
-2.33463e-05
-0.000447392
2.44837e-05
-0.000475144
8.60795e-05
-0.000498731
0.000164249
-0.0005165
0.000262066
-0.000526466
0.000382947
-0.000526461
0.000531048
-0.000514433
0.000710763
0.000924938
-0.000486514
-3.2194e-06
-2.70402e-05
-1.16269e-05
-6.85605e-05
-2.4407e-05
-0.000100132
-4.0828e-05
-0.000122225
-6.02519e-05
-0.000135832
-8.21429e-05
-0.000142325
-0.000106066
-0.000143261
-0.000131677
-0.000140165
-0.000158702
-0.000134334
-0.000186912
-0.000126668
-0.000216089
-0.000117574
-0.000245995
-0.00010694
-0.000276336
-9.41621e-05
-0.000306739
-7.82154e-05
-0.000336718
-5.7727e-05
-0.000365647
-3.10416e-05
-0.000392727
3.73432e-06
-0.00041695
4.87066e-05
-0.000437051
0.00010618
-0.000451458
0.000178657
-0.000458247
0.000268855
-0.00045507
0.00037977
-0.000439243
0.000515221
-0.000408476
0.000679997
0.000874239
-0.000357778
-3.24912e-06
-2.37911e-05
-1.17024e-05
-6.01072e-05
-2.4498e-05
-8.73369e-05
-4.08596e-05
-0.000105863
-6.01084e-05
-0.000116583
-8.16703e-05
-0.000120763
-0.000105074
-0.000119857
-0.000129938
-0.000115301
-0.00015595
-0.000108322
-0.000182833
-9.97846e-05
-0.000210315
-9.00921e-05
-0.00023809
-7.91648e-05
-0.000265786
-6.64669e-05
-0.00029293
-5.10712e-05
-0.000318924
-3.17328e-05
-0.000343011
-6.95425e-06
-0.000364244
2.49668e-05
-0.000381443
6.59058e-05
-0.000393153
0.00011789
-0.000397582
0.000183086
-0.000392539
0.000263812
-0.000375336
0.000362567
-0.000342714
0.000482599
-0.000292263
0.000629546
0.000800038
-0.000218062
-3.25849e-06
-2.05326e-05
-1.17072e-05
-5.16585e-05
-2.44447e-05
-7.45994e-05
-4.06546e-05
-8.96533e-05
-5.96189e-05
-9.76186e-05
-8.07259e-05
-9.96561e-05
-0.000103467
-9.71162e-05
-0.00012742
-9.13476e-05
-0.000152229
-8.35134e-05
-0.000177568
-7.44457e-05
-0.000203105
-6.45553e-05
-0.000228463
-5.38063e-05
-0.000253187
-4.17433e-05
-0.000276706
-2.75522e-05
-0.000298306
-1.01325e-05
-0.000317099
1.18388e-05
-0.000331988
3.98556e-05
-0.000341628
7.5546e-05
-0.000344379
0.000120641
-0.000338242
0.000176949
-0.000320785
0.000246355
-0.000289032
0.000330813
-0.000239051
0.000432618
-0.000168358
0.000558853
0.000704161
-7.24811e-05
-3.24986e-06
-1.72827e-05
-1.16492e-05
-4.32591e-05
-2.42628e-05
-6.19858e-05
-4.02382e-05
-7.3678e-05
-5.88206e-05
-7.90362e-05
-7.93608e-05
-7.91158e-05
-0.000101311
-7.51663e-05
-0.000124208
-6.84507e-05
-0.000147648
-6.00735e-05
-0.000171251
-5.08421e-05
-0.000194624
-4.11821e-05
-0.000217318
-3.11126e-05
-0.000238791
-2.02709e-05
-0.000258372
-7.9706e-06
-0.000275235
6.72997e-06
-0.000288359
2.49632e-05
-0.000296503
4.79998e-05
-0.000298163
7.72059e-05
-0.000291526
0.000114004
-0.000274407
0.00015983
-0.000244166
0.000216114
-0.000197645
0.000284292
-0.000130111
0.000365084
-3.69252e-05
0.000465668
0.000585136
8.20994e-05
-3.22551e-06
-1.40572e-05
-1.15359e-05
-3.49487e-05
-2.39673e-05
-4.95545e-05
-3.96346e-05
-5.80106e-05
-5.77484e-05
-6.09224e-05
-7.76224e-05
-5.92418e-05
-9.86684e-05
-5.41202e-05
-0.00012038
-4.67394e-05
-0.000142303
-3.81501e-05
-0.000164003
-2.91422e-05
-0.00018502
-2.01647e-05
-0.000204831
-1.13016e-05
-0.000222807
-2.29479e-06
-0.00023818
7.40189e-06
-0.000250007
1.8557e-05
-0.000257143
3.20988e-05
-0.000258204
4.90612e-05
-0.000251535
7.05374e-05
-0.000235165
9.76338e-05
-0.000206745
0.00013141
-0.00016346
0.000172829
-0.000102134
0.000222966
-1.82819e-05
0.000281231
9.36474e-05
0.000353738
0.000438018
0.000240766
-3.18759e-06
-1.08696e-05
-1.13742e-05
-2.67621e-05
-2.35716e-05
-3.73571e-05
-3.88653e-05
-4.27169e-05
-5.64328e-05
-4.33549e-05
-7.55511e-05
-4.01236e-05
-9.55911e-05
-3.40802e-05
-0.000116
-2.63303e-05
-0.000136273
-1.78769e-05
-0.000155916
-9.49951e-06
-0.000174402
-1.67889e-06
-0.00019113
5.42636e-06
-0.000205384
1.19589e-05
-0.000216294
1.83125e-05
-0.000222807
2.50701e-05
-0.000223652
3.2943e-05
-0.000217308
4.27172e-05
-0.000201974
5.52039e-05
-0.00017553
7.11896e-05
-0.000135482
9.13614e-05
-7.88369e-05
0.000116184
-1.97257e-06
0.000146102
9.93247e-05
0.000179934
0.000228808
0.000224255
0.000265862
0.000400964
-3.13798e-06
-7.73166e-06
-1.11701e-05
-1.87299e-05
-2.30872e-05
-2.54401e-05
-3.7948e-05
-2.78561e-05
-5.48982e-05
-2.64047e-05
-7.31782e-05
-2.18435e-05
-9.21172e-05
-1.51413e-05
-0.000111114
-7.33296e-06
-0.000129611
6.19213e-07
-0.000147049
7.93855e-06
-0.000162832
1.4104e-05
-0.000176278
1.88726e-05
-0.00018658
2.22611e-05
-0.000192767
2.44993e-05
-0.000193669
2.59723e-05
-0.000187889
2.71628e-05
-0.00017377
2.8598e-05
-0.000149366
3.07999e-05
-0.000112409
3.42328e-05
-6.02701e-05
3.92225e-05
1.01367e-05
4.57776e-05
0.000102044
5.41946e-05
0.00022127
6.07084e-05
0.000369343
7.61817e-05
6.94258e-05
0.00056578
-3.07817e-06
-4.65349e-06
-1.09283e-05
-1.08798e-05
-2.25227e-05
-1.38457e-05
-3.68953e-05
-1.34835e-05
-5.31611e-05
-1.0139e-05
-7.05234e-05
-4.48119e-06
-8.82681e-05
2.60346e-06
-0.000105744
1.01432e-05
-0.000122334
1.72092e-05
-0.000137414
2.30188e-05
-0.000150312
2.70015e-05
-0.000160259
2.882e-05
-0.000166352
2.83538e-05
-0.000167509
2.56567e-05
-0.00016244
2.09033e-05
-0.000149613
1.43354e-05
-0.000127225
6.20986e-06
-9.31764e-05
-3.24848e-06
-4.50418e-05
-1.39017e-05
1.99439e-05
-2.57632e-05
0.000105034
-3.93121e-05
0.000213424
-5.41953e-05
0.000351244
-7.71124e-05
0.00051851
-9.10838e-05
-0.000151699
0.000739635
-3.00924e-06
-1.64425e-06
-1.06517e-05
-3.23733e-06
-2.18833e-05
-2.61413e-06
-3.57142e-05
3.47413e-07
-5.12287e-05
5.37558e-06
-6.75926e-05
1.18827e-05
-8.40461e-05
1.9057e-05
-9.98844e-05
2.59816e-05
-0.000114427
3.17515e-05
-0.000126977
3.55688e-05
-0.000136778
3.68026e-05
-0.000142968
3.50096e-05
-0.000144533
2.99193e-05
-0.000140272
2.13956e-05
-0.000128757
9.38816e-06
-0.000108304
-6.11729e-06
-7.69473e-05
-2.51471e-05
-3.24086e-05
-4.77872e-05
2.79135e-05
-7.42239e-05
0.000106957
-0.000104807
0.000208189
-0.000140544
0.000334729
-0.000180736
0.000493221
-0.000235604
0.000681576
-0.000279438
-0.00039895
0.000928827
-2.93174e-06
1.28749e-06
-1.03419e-05
4.17282e-06
-2.11707e-05
8.21468e-06
-3.44052e-05
1.35819e-05
-4.90987e-05
2.0069e-05
-6.43771e-05
2.71612e-05
-7.94321e-05
3.4112e-05
-9.35e-05
4.00494e-05
-0.00010583
4.40815e-05
-0.000115644
4.53827e-05
-0.00012209
4.32489e-05
-0.000124197
3.71165e-05
-0.000120827
2.65492e-05
-0.000110635
1.1204e-05
-9.20341e-05
-9.21288e-06
-6.31617e-05
-3.49897e-05
-2.185e-05
-6.64588e-05
3.43738e-05
-0.000104011
0.000108349
-0.000148199
0.000203212
-0.000199669
0.000322674
-0.000260007
0.000469852
-0.000327913
0.0006519
-0.000417653
0.000864576
-0.000492114
-0.000674624
0.00114025
-2.84577e-06
4.13326e-06
-9.99847e-06
1.13255e-05
-2.0383e-05
1.85992e-05
-3.29627e-05
2.61617e-05
-4.67582e-05
3.38645e-05
-6.08532e-05
4.12561e-05
-7.43855e-05
4.76442e-05
-8.65255e-05
5.21895e-05
-9.64434e-05
5.39993e-05
-0.000103267
5.22058e-05
-0.000106033
4.60152e-05
-0.000103642
3.47254e-05
-9.48071e-05
1.77145e-05
-7.80136e-05
-5.5895e-06
-5.14799e-05
-3.57466e-05
-1.31246e-05
-7.33449e-05
3.94409e-05
-0.000119024
0.000108964
-0.000173534
0.000198533
-0.000237768
0.000311519
-0.000312655
0.000451867
-0.000400355
0.000622806
-0.000498852
0.000831694
-0.000626541
0.00107272
-0.000733139
-0.000981166
0.00137926
-2.75092e-06
6.88419e-06
-9.61949e-06
1.81941e-05
-1.95146e-05
2.84943e-05
-3.13747e-05
3.80218e-05
-4.4185e-05
4.66749e-05
-5.69823e-05
5.40534e-05
-6.88443e-05
5.95063e-05
-7.88665e-05
6.22117e-05
-8.6127e-05
6.12598e-05
-8.9643e-05
5.57217e-05
-8.8321e-05
4.46933e-05
-8.09065e-05
2.73109e-05
-6.5934e-05
2.74197e-06
-4.16829e-05
-2.98406e-05
-6.13803e-06
-7.12914e-05
4.30338e-05
-0.000122517
0.000108513
-0.000184504
0.000193319
-0.00025834
0.000300822
-0.00034527
0.000434638
-0.000446471
0.000598814
-0.000564531
0.000796817
-0.000696854
0.0010355
-0.000865223
0.00130856
-0.0010062
-0.0013199
0.00164729
-2.64643e-06
9.53062e-06
-9.20157e-06
2.47492e-05
-1.8557e-05
3.78497e-05
-2.96237e-05
4.90885e-05
-4.13478e-05
5.83989e-05
-5.27129e-05
6.54186e-05
-6.27281e-05
6.95215e-05
-7.04019e-05
6.98855e-05
-7.47049e-05
6.55629e-05
-7.45238e-05
5.55406e-05
-6.86089e-05
3.87784e-05
-5.55211e-05
1.42232e-05
-3.35809e-05
-1.91983e-05
-8.22045e-07
-6.25995e-05
4.50406e-05
-0.000117154
0.00010664
-0.000184116
0.000186957
-0.000264821
0.000289302
-0.000360685
0.000417289
-0.000473257
0.000574727
-0.000603909
0.000765499
-0.000755304
0.000993329
-0.000924684
0.00126355
-0.00113544
0.0015706
-0.00131325
-0.00168946
0.00194016
-2.53119e-06
1.20618e-05
-8.74022e-06
3.09583e-05
-1.74991e-05
4.66087e-05
-2.7688e-05
5.92773e-05
-3.82081e-05
6.8919e-05
-4.79825e-05
7.51929e-05
-5.59405e-05
7.74795e-05
-6.09893e-05
7.49343e-05
-6.19732e-05
6.65468e-05
-5.76245e-05
5.11919e-05
-4.65088e-05
2.76627e-05
-2.69693e-05
-5.3163e-06
2.92409e-06
-4.90917e-05
4.54184e-05
-0.000105094
0.000103106
-0.000174842
0.000178931
-0.000259941
0.000276171
-0.000362062
0.000398383
-0.000482897
0.000549308
-0.000624181
0.00073279
-0.000787391
0.000952173
-0.000974688
0.00121121
-0.00118372
0.00151269
-0.00143693
0.0018527
-0.00165326
-0.00208463
0.00224788
-2.40395e-06
1.44658e-05
-8.23023e-06
3.67845e-05
-1.63283e-05
5.47067e-05
-2.55425e-05
6.84915e-05
-3.47225e-05
7.8099e-05
-4.2721e-05
8.31914e-05
-4.83747e-05
8.31333e-05
-5.04723e-05
7.70318e-05
-4.77103e-05
6.37848e-05
-3.86406e-05
4.21222e-05
-2.16136e-05
1.06357e-05
5.27756e-06
-3.22075e-05
4.42468e-05
-8.80609e-05
9.78486e-05
-0.000158696
0.000168992
-0.000245985
0.000260918
-0.000351867
0.000377145
-0.000478289
0.000521351
-0.000627103
0.000697188
-0.000800018
0.000908245
-0.000998447
0.00115691
-0.00122336
0.00144639
-0.0014732
0.00177625
-0.00176678
0.00214466
-0.00202168
-0.00249623
0.00255626
-2.26338e-06
1.67291e-05
-7.66611e-06
4.21873e-05
-1.5031e-05
6.20717e-05
-2.31607e-05
7.66212e-05
-3.0845e-05
8.57832e-05
-3.68545e-05
8.9201e-05
-3.99186e-05
8.61973e-05
-3.86882e-05
7.58015e-05
-3.16889e-05
5.67855e-05
-1.72655e-05
2.76987e-05
6.47611e-06
-1.31059e-05
4.17216e-05
-6.74529e-05
9.09897e-05
-0.000137329
0.00015715
-0.000224856
0.000243406
-0.00033224
0.000353233
-0.000461695
0.000490258
-0.000615314
0.000658072
-0.000794918
0.000859926
-0.00100187
0.00109871
-0.00123723
0.0013755
-0.00150014
0.00169211
-0.00178982
0.00204467
-0.00211933
0.00243345
-0.00241046
-0.00291223
0.00284946
-2.10829e-06
1.88374e-05
-7.0426e-06
4.71216e-05
-1.35941e-05
6.86232e-05
-2.05164e-05
8.35435e-05
-2.65295e-05
9.17963e-05
-3.03093e-05
9.29808e-05
-3.04607e-05
8.63488e-05
-2.54772e-05
7.08179e-05
-1.36896e-05
4.49979e-05
6.79014e-06
7.21893e-06
3.81249e-05
-4.44406e-05
8.27976e-05
-0.000112126
0.000143636
-0.000198167
0.000223801
-0.00030502
0.000326726
-0.000435166
0.000455995
-0.000590964
0.000615135
-0.000774453
0.00080735
-0.000987132
0.0010351
-0.00122963
0.00130004
-0.00150217
0.00160166
-0.00180176
0.00193956
-0.00212772
0.00230669
-0.00248646
0.00270515
-0.00280892
-0.00331989
0.00311281
-1.93769e-06
2.07751e-05
-6.35504e-06
5.15389e-05
-1.20054e-05
7.42735e-05
-1.75849e-05
8.9123e-05
-2.17326e-05
9.5944e-05
-2.30154e-05
9.42636e-05
-1.98966e-05
8.32299e-05
-1.06912e-05
6.16126e-05
6.48672e-06
2.782e-05
3.37797e-05
-2.0074e-05
7.36352e-05
-8.42962e-05
0.000128836
-0.000167327
0.000202498
-0.000271829
0.000298013
-0.000400535
0.000418926
-0.00055608
0.000568733
-0.000740771
0.000750579
-0.0009563
0.000966904
-0.00120346
0.00121897
-0.00148169
0.00150665
-0.00178985
0.00182767
-0.00212278
0.00217891
-0.00247895
0.00255093
-0.00285849
0.00294703
-0.00320502
-0.00370785
0.00333498
-1.75094e-06
2.25261e-05
-5.59974e-06
5.53877e-05
-1.02546e-05
7.89283e-05
-1.43446e-05
9.32131e-05
-1.64157e-05
9.8015e-05
-1.49108e-05
9.27587e-05
-8.13359e-06
7.64527e-05
5.79849e-06
4.76805e-05
2.90074e-05
4.61106e-06
6.39045e-05
-5.49711e-05
0.000113225
-0.000133617
0.000180035
-0.000234136
0.000267681
-0.000359475
0.000379682
-0.000512536
0.00051952
-0.000695917
0.00069034
-0.000911591
0.000894563
-0.00116052
0.00113345
-0.00144234
0.00140667
-0.00175491
0.00171195
-0.00209512
0.00204517
-0.002456
0.00240049
-0.00283428
0.00276731
-0.00322531
0.00314941
-0.00358711
-0.00406763
0.00350918
-1.54776e-06
2.40738e-05
-4.7742e-06
5.86142e-05
-8.33377e-06
8.24879e-05
-1.0778e-05
9.56574e-05
-1.05467e-05
9.77837e-05
-5.94328e-06
8.81553e-05
4.90489e-06
6.56046e-05
2.40952e-05
2.84901e-05
5.39993e-05
-2.5293e-05
9.73016e-05
-9.82734e-05
0.000157012
-0.000193328
0.000236433
-0.000313557
0.000339055
-0.000462098
0.000468366
-0.000641847
0.00062755
-0.000855101
0.00081909
-0.00110313
0.00104431
-0.00138574
0.00130289
-0.00170093
0.00159261
-0.00204464
0.00190894
-0.00241145
0.00224606
-0.00279312
0.00259597
-0.00318419
0.00294835
-0.00357769
0.00330673
-0.00394549
-0.00439427
0.00363337
-1.32829e-06
2.54021e-05
-3.87716e-06
6.1163e-05
-6.23755e-06
8.48483e-05
-6.87195e-06
9.62918e-05
-4.1005e-06
9.50123e-05
3.92766e-06
8.01271e-05
1.92771e-05
5.02551e-05
4.42731e-05
3.49409e-06
8.1543e-05
-6.25628e-05
0.000134036
-0.000150766
0.000205001
-0.000264293
0.000297902
-0.000406459
0.000416241
-0.000580437
0.000563271
-0.000788876
0.000741594
-0.00103342
0.000952686
-0.00131422
0.0011964
-0.00162946
0.00147058
-0.0019751
0.00177093
-0.00234499
0.00209093
-0.00273145
0.0024234
-0.00312559
0.00275921
-0.00352
0.00308977
-0.00390824
0.00341772
-0.00427345
-0.00468611
0.00370956
-1.09297e-06
2.64951e-05
-2.90841e-06
6.29785e-05
-3.96283e-06
8.59027e-05
-2.61741e-06
9.49463e-05
2.94068e-06
8.94542e-05
1.47308e-05
6.83369e-05
3.50223e-05
2.99637e-05
6.63759e-05
-2.78596e-05
0.000111671
-0.000107858
0.000174095
-0.00021319
0.000257079
-0.000347277
0.000364139
-0.000513519
0.000498611
-0.000714909
0.000663262
-0.000953527
0.000859801
-0.00122996
0.00108835
-0.00154278
0.00134702
-0.00188812
0.00163162
-0.00225971
0.00193598
-0.00264935
0.00225209
-0.00304755
0.00257205
-0.00344555
0.00288687
-0.00383482
0.00319066
-0.00421203
0.00348473
-0.00456751
-0.00494417
0.00374279
-8.42484e-07
2.73376e-05
-1.86852e-06
6.40045e-05
-1.50823e-06
8.55424e-05
1.99108e-06
9.1447e-05
1.05885e-05
8.08568e-05
2.64844e-05
5.2441e-05
5.21617e-05
4.28632e-06
9.04176e-05
-6.61154e-05
0.000144367
-0.000161807
0.000217392
-0.000286216
0.000313018
-0.000442902
0.000434665
-0.000635166
0.000585287
-0.000865531
0.000766884
-0.00113512
0.000979947
-0.00144303
0.00122296
-0.00178579
0.0014921
-0.00215726
0.00178131
-0.00254892
0.00208285
-0.00295089
0.00238806
-0.00335277
0.00268913
-0.00374662
0.00297841
-0.0041241
0.00325296
-0.00448659
0.00351249
-0.00482704
-0.00517173
0.00374005
-5.77543e-07
2.79151e-05
-7.58095e-07
6.41851e-05
1.12666e-06
8.36577e-05
6.95679e-06
8.56169e-05
1.88499e-05
6.89636e-05
3.91977e-05
3.20933e-05
7.0701e-05
-2.7217e-05
0.000116385
-0.000111799
0.000179568
-0.00022499
0.000263763
-0.000370411
0.000372467
-0.000551606
0.000508824
-0.000771523
0.000675155
-0.00103186
0.00087239
-0.00133236
0.00109951
-0.00167015
0.00135318
-0.00203945
0.00162768
-0.00243176
0.00191541
-0.00283664
0.00220775
-0.00324323
0.00249624
-0.00364126
0.00277398
-0.00402436
0.00303567
-0.00438579
0.00328067
-0.00473158
0.00350699
-0.00505336
-0.00537496
0.00371022
-2.98875e-07
2.8214e-05
4.21863e-07
6.34643e-05
3.94215e-06
8.01374e-05
1.22824e-05
7.72766e-05
2.77297e-05
5.35163e-05
5.28741e-05
6.9489e-06
9.06325e-05
-6.49754e-05
0.000144238
-0.000165405
0.000217167
-0.000297919
0.000312967
-0.000466211
0.000434958
-0.000673597
0.000585789
-0.000922354
0.000766874
-0.00121295
0.000977788
-0.00154327
0.0012158
-0.00190816
0.00147569
-0.00229935
0.00175016
-0.00270623
0.00203057
-0.00311706
0.00230828
-0.00352094
0.00257584
-0.00390882
0.00282798
-0.0042765
0.00306213
-0.00461995
0.00327909
-0.00494853
0.00347764
-0.00525192
-0.00556598
0.00366867
-5.52909e-09
2.82195e-05
1.67094e-06
6.17878e-05
6.94017e-06
7.48682e-05
1.79717e-05
6.62452e-05
3.7232e-05
3.4256e-05
6.75128e-05
-2.33319e-05
0.000111937
-0.0001094
0.000173915
-0.000227382
0.000257009
-0.000381013
0.000364683
-0.000573885
0.000499896
-0.00080881
0.000664558
-0.00108702
0.000858899
-0.00140729
0.00108091
-0.00176528
0.00132604
-0.00215329
0.00158741
-0.00256072
0.00185654
-0.00297536
0.00212456
-0.00338508
0.00238355
-0.00377993
0.00262774
-0.004153
0.00285393
-0.00450269
0.00306206
-0.00482807
0.00325359
-0.00514006
0.00343193
-0.00543026
-0.00573733
0.00360327
3.00318e-07
2.79192e-05
2.99242e-06
5.90957e-05
1.01248e-05
6.77358e-05
2.40305e-05
5.23395e-05
4.7362e-05
1.09244e-05
8.31104e-05
-5.90802e-05
0.000134586
-0.000160875
0.000205326
-0.000298122
0.000298889
-0.000474576
0.000418504
-0.0006935
0.000566559
-0.000956865
0.000743964
-0.00126442
0.00094952
-0.00161284
0.00117949
-0.00199525
0.0014276
-0.0024014
0.00168567
-0.00281878
0.00194469
-0.00323438
0.00219631
-0.0036367
0.00243403
-0.00401765
0.00265411
-0.00437308
0.00285552
-0.0047041
0.00304004
-0.0050126
0.00321035
-0.00531037
0.00337103
-0.00559094
-0.00589213
0.00352584
6.21976e-07
2.72972e-05
4.38925e-06
5.53285e-05
1.35028e-05
5.86222e-05
3.04681e-05
3.53742e-05
5.8127e-05
-1.67345e-05
9.96609e-05
-0.000100614
0.000158536
-0.000219751
0.000238351
-0.000377937
0.000342544
-0.000578768
0.000473929
-0.000824886
0.000634089
-0.00111702
0.000822689
-0.00145302
0.00103692
-0.00182708
0.00127131
-0.00222964
0.00151815
-0.00264824
0.00176845
-0.00306909
0.00201345
-0.00347938
0.00224595
-0.0038692
0.00246132
-0.00423303
0.00265794
-0.00456969
0.00283668
-0.00488285
0.00300071
-0.00517663
0.00315339
-0.00546305
0.0032995
-0.00573705
-0.00603489
0.00344226
9.60521e-07
2.63367e-05
5.86695e-06
5.0422e-05
1.70841e-05
4.74051e-05
3.72966e-05
1.51617e-05
6.9535e-05
-4.89728e-05
0.000117154
-0.000148233
0.00018373
-0.000286327
0.000272836
-0.000467043
0.000387642
-0.000693575
0.000530352
-0.000967596
0.000701503
-0.00128817
0.000899304
-0.00165082
0.00111926
-0.00204703
0.00135433
-0.00246472
0.00159577
-0.00288968
0.0018345
-0.00330782
0.00206261
-0.00370748
0.00227456
-0.00408115
0.00246778
-0.00442625
0.00264258
-0.00474449
0.00280134
-0.0050416
0.00294801
-0.00532331
0.00308623
-0.00560126
0.00322061
-0.00587143
-0.00616765
0.00335337
1.31849e-06
2.50182e-05
7.43298e-06
4.43076e-05
2.0881e-05
3.3957e-05
4.45306e-05
-8.48788e-06
8.15933e-05
-8.60355e-05
0.000135569
-0.000202209
0.000210084
-0.000360842
0.000308574
-0.000565532
0.000433776
-0.000818778
0.000587061
-0.00112088
0.000767701
-0.00146881
0.000972314
-0.00185544
0.00119477
-0.00226949
0.00142679
-0.00269673
0.00165916
-0.00312205
0.00188334
-0.00353199
0.00209281
-0.00391695
0.00228397
-0.00427231
0.0024562
-0.00459848
0.00261141
-0.0048997
0.00275299
-0.00518318
0.00288522
-0.00545554
0.00301162
-0.00572766
0.00313637
-0.00599619
-0.0062921
0.00326082
1.69907e-06
2.33191e-05
9.09627e-06
3.69104e-05
2.49079e-05
1.81454e-05
5.21845e-05
-3.57645e-05
9.43044e-05
-0.000128155
0.000154873
-0.000262777
0.000237484
-0.000443454
0.000345304
-0.000673352
0.000480449
-0.000953922
0.000643239
-0.00128367
0.000831506
-0.00165708
0.00104024
-0.00206417
0.00126189
-0.00249114
0.00148737
-0.00292222
0.00170764
-0.00334232
0.00191522
-0.00373958
0.00210537
-0.00410711
0.00227643
-0.00444337
0.00242947
-0.00475153
0.00256756
-0.00503778
0.00269463
-0.00531025
0.00281492
-0.00557583
0.0029316
-0.00584434
0.00304829
-0.00611288
-0.00640941
0.00316559
2.10588e-06
2.12133e-05
1.08666e-05
2.81497e-05
2.91791e-05
-1.6712e-07
6.02706e-05
-6.6856e-05
0.000107662
-0.000175547
0.000175008
-0.000330123
0.000265774
-0.00053422
0.000382699
-0.000790277
0.000527079
-0.0010983
0.000697988
-0.00145458
0.00089171
-0.0018508
0.0011017
-0.00227416
0.00131932
-0.00270875
0.00153524
-0.00313814
0.00174113
-0.00354821
0.00193103
-0.00392949
0.00210208
-0.00427815
0.00225439
-0.00459567
0.00239036
-0.0048875
0.00251377
-0.00516119
0.0026287
-0.00542518
0.00273908
-0.00568621
0.00284763
-0.00595289
0.00295737
-0.00622261
-0.00652033
0.00306828
2.54269e-06
1.86706e-05
1.27534e-05
1.7939e-05
3.37073e-05
-2.1121e-05
6.87947e-05
-0.000101943
0.000121644
-0.000228396
0.000195891
-0.00040437
0.000294748
-0.000633077
0.000420359
-0.000915888
0.000573003
-0.00125095
0.000750354
-0.00163193
0.000947137
-0.00204758
0.00115549
-0.00248251
0.00136614
-0.0029194
0.00157006
-0.00334206
0.00176013
-0.00373827
0.00193211
-0.00410147
0.00208495
-0.00443099
0.00222025
-0.00473097
0.00234134
-0.00500859
0.00245231
-0.00527216
0.0025571
-0.00552997
0.00265918
-0.00578829
0.00276075
-0.00605446
0.00286429
-0.00632615
-0.00662537
0.00296933
3.01315e-06
1.56574e-05
1.47654e-05
6.18676e-06
3.85014e-05
-4.48571e-05
7.77536e-05
-0.000141196
0.000136211
-0.000286854
0.000217401
-0.00048556
0.000324147
-0.000739823
0.000457817
-0.00104956
0.000617496
-0.00141062
0.000799372
-0.00181381
0.00099671
-0.00224492
0.00120067
-0.00268647
0.00140184
-0.00312057
0.00159201
-0.00353223
0.00176556
-0.00391182
0.00192006
-0.00425597
0.00205605
-0.00456699
0.00217626
-0.00485118
0.00228456
-0.00511689
0.00238503
-0.00537264
0.00248128
-0.00562622
0.00257625
-0.00588325
0.00267166
-0.00614987
0.00276951
-0.006424
-0.00672485
0.002869
3.52043e-06
1.2137e-05
1.69087e-05
-7.20154e-06
4.35643e-05
-7.15126e-05
8.71308e-05
-0.000184762
0.000151297
-0.00035102
0.000239377
-0.00057364
0.000353655
-0.0008541
0.000494545
-0.00119045
0.000659801
-0.00157588
0.000844119
-0.00199813
0.00103952
-0.00244032
0.0012366
-0.00288355
0.00142631
-0.00331028
0.00160164
-0.00370757
0.00175866
-0.00406884
0.00189662
-0.00439392
0.00201737
-0.00468774
0.0021244
-0.00495821
0.00222177
-0.00521426
0.00231336
-0.00546423
0.00240231
-0.00571518
0.00249104
-0.00597198
0.00258086
-0.0062397
0.00267335
-0.00651649
-0.00681897
0.00276747
4.06695e-06
8.07003e-06
1.91867e-05
-2.23213e-05
4.88912e-05
-0.000101217
9.68942e-05
-0.000232765
0.00016681
-0.000420936
0.000261619
-0.00066845
0.000382905
-0.000975386
0.000529973
-0.00133752
0.00069916
-0.00174507
0.000883762
-0.00218273
0.00107486
-0.00263142
0.00126295
-0.00307164
0.00143979
-0.00348712
0.00159984
-0.00386762
0.00174083
-0.00420983
0.00186351
-0.0045166
0.00197071
-0.00479494
0.00206634
-0.00505384
0.0021544
-0.00530233
0.0022384
-0.00554822
0.00232098
-0.00579776
0.00240408
-0.00605508
0.00248868
-0.00632429
0.002576
-0.0066038
-0.00690786
0.00266489
4.65413e-06
3.41589e-06
2.15987e-05
-3.92658e-05
5.44679e-05
-0.000134086
0.000106994
-0.000285291
0.000182627
-0.000496568
0.000283884
-0.000769707
0.000411491
-0.00110299
0.00056351
-0.00148954
0.000734855
-0.00191641
0.000917607
-0.00236548
0.00110229
-0.0028161
0.00127973
-0.00324908
0.00144284
-0.00365023
0.00158767
-0.00401245
0.00171353
-0.0043357
0.00182237
-0.00462543
0.00191767
-0.00489024
0.00200348
-0.00513965
0.00208356
-0.0053824
0.00216095
-0.00562562
0.00223785
-0.00587466
0.00231575
-0.00613298
0.00239536
-0.00640391
0.00247763
-0.00668607
-0.00699158
0.00256136
5.28226e-06
-1.86637e-06
2.41395e-05
-5.81231e-05
6.02705e-05
-0.000170217
0.000117362
-0.000342383
0.000198599
-0.000577805
0.000305897
-0.000877005
0.000438976
-0.00123607
0.000594575
-0.00164513
0.000766248
-0.00208809
0.000945132
-0.00254436
0.00112159
-0.00299257
0.0012872
-0.00341468
0.00143623
-0.00379926
0.00156633
-0.00414255
0.0016782
-0.00444757
0.00177466
-0.00472189
0.00185959
-0.00497517
0.00193693
-0.00521699
0.00201008
-0.00545555
0.00208162
-0.00569716
0.00215331
-0.00594634
0.00222629
-0.00620597
0.00230106
-0.00647868
0.00237835
-0.00676336
-0.00707019
0.00245696
5.95036e-06
-7.81673e-06
2.67996e-05
-7.89723e-05
6.62641e-05
-0.000209682
0.000127912
-0.000404031
0.00021455
-0.000664444
0.000327354
-0.000989808
0.000464916
-0.00137363
0.000622619
-0.00180284
0.00079281
-0.00225828
0.000966005
-0.00271756
0.00113281
-0.00315938
0.00128585
-0.00356771
0.00142088
-0.00393429
0.00153705
-0.00425872
0.00163617
-0.00454669
0.00172169
-0.00480742
0.00179759
-0.00505108
0.00186758
-0.00528697
0.00193462
-0.00552259
0.00200086
-0.00576339
0.00206766
-0.00601315
0.0021359
-0.00627421
0.00220592
-0.0065487
0.00227827
-0.00683571
-0.00714372
0.00235179
6.65617e-06
-1.44729e-05
2.95643e-05
-0.00010188
7.2404e-05
-0.000252521
0.00013854
-0.000470166
0.000230285
-0.000756189
0.000347937
-0.00110746
0.000488873
-0.00151457
0.000647158
-0.00196112
0.000814146
-0.00242527
0.000980087
-0.0028835
0.0011362
-0.00331548
0.00127634
-0.00370785
0.00139779
-0.00405575
0.001501
-0.00436193
0.00158865
-0.00463434
0.00166454
-0.00488331
0.00173257
-0.00511911
0.0017961
-0.0053505
0.00185766
-0.00558415
0.00191897
-0.00582471
0.00198111
-0.00607529
0.00204473
-0.00633782
0.00211003
-0.00661401
0.00217745
-0.00690313
-0.00721216
0.0022459
7.39621e-06
-2.18691e-05
3.24149e-05
-0.000126899
7.8636e-05
-0.000298742
0.000149128
-0.000540659
0.000245589
-0.00085265
0.000367324
-0.0012292
0.000510441
-0.00165769
0.00066779
-0.00211847
0.000830003
-0.00258748
0.00098742
-0.00304092
0.00113215
-0.00346021
0.00125943
-0.00383514
0.00136796
-0.00416428
0.00145929
-0.00445325
0.0015367
-0.00471176
0.00160413
-0.00495073
0.00166524
-0.00518022
0.00172301
-0.00540827
0.00177954
-0.00564068
0.00183621
-0.00588138
0.00189383
-0.00613291
0.00195287
-0.00639687
0.00201349
-0.00667462
0.00207599
-0.00696562
-0.00727555
0.00213937
8.16583e-06
-3.00349e-05
3.53281e-05
-0.000154061
8.48976e-05
-0.000348312
0.000159549
-0.00061531
0.000260244
-0.000953345
0.000385199
-0.00135415
0.000529257
-0.00180174
0.000684212
-0.00227343
0.000840275
-0.00274354
0.000988204
-0.00318885
0.00112121
-0.00359322
0.00123595
-0.00394987
0.00133238
-0.00426071
0.00141292
-0.00453379
0.00148123
-0.00478007
0.00154119
-0.00501069
0.00159617
-0.0052352
0.00164871
-0.00546081
0.00170054
-0.00569251