/*--------------------------------*- C++ -*----------------------------------*\
  =========                 |
  \\      /  F ield         | OpenFOAM: The Open Source CFD Toolbox
   \\    /   O peration     | Website:  https://openfoam.org
    \\  /    A nd           | Version:  7
     \\/     M anipulation  |
\*---------------------------------------------------------------------------*/
FoamFile
{
    version     2.0;
    format      ascii;
    class       volVectorField;
    location    "100";
    object      U;
}
// * * * * * * * * * * * * * * * * * * * * * * * * * * * * * * * * * * * * * //

dimensions      [0 1 -1 0 0 0 0];

internalField   nonuniform List<vector> 
31800
(
(-0.000285929 -0.0211943 -1.17596e-20)
(-0.00286544 -0.0523217 8.11729e-21)
(-0.00865159 -0.0747829 -2.64709e-21)
(-0.016423 -0.0898873 1.17206e-20)
(-0.0256872 -0.0990249 1.30854e-20)
(-0.0360222 -0.10358 -4.288e-21)
(-0.0470521 -0.104828 -3.11099e-21)
(-0.0584847 -0.103856 2.19133e-20)
(-0.0701009 -0.101503 -2.50371e-21)
(-0.0817442 -0.0983296 3.583e-21)
(-0.0933085 -0.0946309 1.22908e-20)
(-0.104726 -0.090472 1.20301e-20)
(-0.115953 -0.085742 -7.62744e-21)
(-0.126959 -0.080209 -9.45719e-21)
(-0.137714 -0.0735675 -3.07872e-22)
(-0.148182 -0.0654711 -1.20833e-20)
(-0.158307 -0.0555527 9.35488e-21)
(-0.168011 -0.0434374 1.58138e-20)
(-0.177183 -0.0287539 -5.89298e-21)
(-0.185677 -0.0111502 2.67709e-20)
(-0.193317 0.00968786 1.70116e-21)
(-0.199922 0.0340008 -2.16428e-21)
(-0.205338 0.0619283 4.76413e-21)
(-0.209416 0.0935128 9.41792e-21)
(-0.212334 0.12892 5.6959e-21)
(0.000174565 -0.0200032 1.21e-20)
(-0.00187032 -0.0493075 6.48394e-21)
(-0.00748735 -0.070389 -7.05459e-21)
(-0.0153098 -0.0844743 -2.69097e-20)
(-0.0247666 -0.0928957 1.97118e-20)
(-0.0353756 -0.0969819 -9.63195e-21)
(-0.0467146 -0.0979564 5.26799e-22)
(-0.0584607 -0.0968581 -1.67932e-20)
(-0.0703754 -0.0944842 3.43063e-21)
(-0.0822918 -0.0913633 2.30975e-21)
(-0.0940994 -0.0877655 -5.11866e-20)
(-0.105729 -0.0837396 -9.74289e-22)
(-0.117135 -0.0791654 5.72071e-20)
(-0.128288 -0.0738086 -2.85629e-20)
(-0.139154 -0.0673666 -5.39932e-21)
(-0.149693 -0.0595007 1.19541e-20)
(-0.159845 -0.0498566 -2.49121e-20)
(-0.169528 -0.0380754 -1.44319e-21)
(-0.178626 -0.023804 2.44536e-20)
(-0.186992 -0.00670724 -8.95303e-20)
(-0.19445 0.0135181 -2.73338e-20)
(-0.200827 0.037122 4.11641e-20)
(-0.205974 0.0642762 1.97436e-20)
(-0.20966 0.0950683 3.47795e-21)
(-0.212057 0.129773 -8.43659e-21)
(0.00057415 -0.0187246 -2.46516e-20)
(-0.00100782 -0.0461036 -7.77934e-22)
(-0.00647474 -0.0657592 -3.34396e-20)
(-0.0143318 -0.0788169 5.00779e-20)
(-0.0239365 -0.0865379 -5.67989e-20)
(-0.0347514 -0.0901847 -5.08007e-21)
(-0.0463119 -0.09092 -5.09495e-21)
(-0.0582661 -0.0897301 9.20434e-21)
(-0.0703569 -0.0873684 3.0924e-20)
(-0.0824066 -0.0843302 -5.31886e-21)
(-0.0942991 -0.0808619 -8.89668e-21)
(-0.105961 -0.0769975 3.32182e-20)
(-0.117346 -0.07261 -6.32175e-21)
(-0.128418 -0.0674639 3.28517e-20)
(-0.13914 -0.061261 -6.52665e-20)
(-0.149463 -0.0536712 -2.63921e-20)
(-0.159321 -0.0443526 4.5518e-21)
(-0.168622 -0.0329622 -8.64622e-20)
(-0.177243 -0.0191643 2.3246e-20)
(-0.185029 -0.00263703 5.38038e-20)
(-0.191796 0.0169108 -3.2135e-20)
(-0.197365 0.0397387 -7.91284e-20)
(-0.201587 0.0660495 -3.97678e-20)
(-0.204128 0.0959674 -7.11955e-20)
(-0.20506 0.12982 -3.81552e-20)
(0.000907748 -0.0173734 1.15702e-20)
(-0.000288879 -0.0427446 -1.90795e-20)
(-0.00562774 -0.0609398 6.07785e-20)
(-0.0135046 -0.0729683 -4.86235e-20)
(-0.0232136 -0.0800085 -1.23726e-20)
(-0.0341675 -0.0832468 -3.09951e-21)
(-0.0458636 -0.0837784 3.95272e-20)
(-0.057923 -0.0825327 2.76807e-20)
(-0.0700709 -0.0802172 -4.95723e-20)
(-0.0821185 -0.0772935 2.05883e-20)
(-0.0939429 -0.0739853 1.76003e-21)
(-0.105466 -0.0703138 -9.30484e-20)
(-0.116636 -0.0661464 -3.07554e-20)
(-0.127411 -0.0612487 2.60572e-21)
(-0.137746 -0.0553276 2.05854e-20)
(-0.147584 -0.0480625 9.21578e-20)
(-0.156846 -0.0391238 9.74007e-21)
(-0.165429 -0.0281841 8.6794e-20)
(-0.173197 -0.0149236 8.35194e-20)
(-0.179983 0.000964022 -1.01155e-20)
(-0.185588 0.0197618 3.87703e-20)
(-0.189814 0.0417337 -1.24905e-20)
(-0.192505 0.0671127 4.64624e-20)
(-0.193219 0.0960586 1.52547e-19)
(-0.191808 0.128901 2.40766e-20)
(0.0011715 -0.015965 1.92453e-20)
(0.000277934 -0.0392652 -6.9966e-20)
(-0.00495797 -0.0559769 9.02103e-20)
(-0.0128419 -0.0669813 3.326e-20)
(-0.0226134 -0.0733632 2.63218e-20)
(-0.0336416 -0.0762256 2.79743e-20)
(-0.0453899 -0.0765899 -1.47481e-19)
(-0.057455 -0.0753247 5.4356e-20)
(-0.0695454 -0.0730903 5.68399e-20)
(-0.081461 -0.0703142 -8.39965e-20)
(-0.0930711 -0.0671987 8.69885e-20)
(-0.104292 -0.0637533 4.78346e-20)
(-0.115064 -0.059842 5.78243e-20)
(-0.125338 -0.0552326 -3.89377e-20)
(-0.135059 -0.0496385 -8.4361e-21)
(-0.144158 -0.0427489 1.88125e-19)
(-0.152545 -0.0342469 -8.16508e-20)
(-0.160099 -0.0238199 6.14101e-20)
(-0.166672 -0.011164 -1.5066e-19)
(-0.172078 0.00400976 -5.83007e-20)
(-0.176096 0.0219768 5.61279e-20)
(-0.178498 0.0430006 9.51298e-20)
(-0.179116 0.0673419 1.42083e-20)
(-0.17742 0.0952044 -1.20601e-19)
(-0.17286 0.126874 -8.10523e-20)
(0.00136276 -0.0145141 -7.48828e-20)
(0.000686389 -0.0356992 -2.38113e-20)
(-0.00447463 -0.0509155 -5.36203e-20)
(-0.0123554 -0.0609067 -5.18114e-20)
(-0.02215 -0.0666562 3.70726e-20)
(-0.0331907 -0.0691763 -6.56373e-20)
(-0.0449112 -0.0694101 -4.19887e-20)
(-0.0568867 -0.0681625 -2.12054e-19)
(-0.0688099 -0.0660449 9.07093e-21)
(-0.0804697 -0.0634509 -1.7296e-21)
(-0.0917269 -0.060562 -1.61274e-19)
(-0.10249 -0.0573777 -5.41413e-20)
(-0.112692 -0.0537601 -6.86792e-20)
(-0.122274 -0.0494807 1.30846e-19)
(-0.13117 -0.0442603 3.75149e-20)
(-0.139299 -0.0377984 -1.03425e-19)
(-0.146553 -0.0297911 -1.10851e-19)
(-0.152798 -0.0199405 2.84299e-20)
(-0.157867 -0.00795974 1.2043e-19)
(-0.161554 0.0064247 -2.41119e-20)
(-0.163612 0.0234751 -1.5008e-20)
(-0.163772 0.0434496 -7.18578e-20)
(-0.161851 0.0666317 -8.69311e-20)
(-0.157281 0.0932859 7.12174e-20)
(-0.148853 0.123616 4.90742e-20)
(0.00148001 -0.0130353 3.9295e-20)
(0.000932522 -0.0320794 4.60491e-20)
(-0.00418441 -0.0457989 -3.60122e-20)
(-0.0120545 -0.0547935 -7.42952e-20)
(-0.0218359 -0.059939 1.15685e-20)
(-0.0328302 -0.0621516 8.72948e-20)
(-0.0444469 -0.0622923 1.2564e-19)
(-0.0562419 -0.0610996 1.70491e-19)
(-0.0678939 -0.0591351 2.91967e-20)
(-0.0791806 -0.0567585 3.95797e-20)
(-0.089954 -0.0541313 4.79388e-20)
(-0.100114 -0.0512445 1.80213e-19)
(-0.109586 -0.0479595 -1.03139e-20)
(-0.118299 -0.0440527 -2.27754e-19)
(-0.126176 -0.0392534 1.6226e-19)
(-0.13312 -0.0332721 6.30679e-20)
(-0.139011 -0.0258177 2.02207e-19)
(-0.143695 -0.0166073 -8.37699e-20)
(-0.146985 -0.00537104 -9.14253e-20)
(-0.148658 0.00814734 2.57276e-19)
(-0.148438 0.0241934 -8.31032e-20)
(-0.14601 0.0430135 -1.26326e-19)
(-0.141163 0.0649027 -3.03931e-20)
(-0.133398 0.0902119 -9.8897e-20)
(-0.120481 0.119033 1.85099e-20)
(0.00152277 -0.011542 9.72815e-21)
(0.00101452 -0.0284365 -1.82979e-20)
(-0.00409154 -0.0406679 3.75684e-21)
(-0.0119462 -0.0486881 -1.335e-19)
(-0.0216808 -0.0532604 -1.04037e-19)
(-0.0325736 -0.0552012 -1.97453e-20)
(-0.0440142 -0.0552863 -5.01067e-20)
(-0.0555427 -0.054186 -9.25248e-20)
(-0.0668248 -0.0524114 -2.14815e-20)
(-0.0776278 -0.0502883 -9.80121e-21)
(-0.0877946 -0.0479588 -9.58016e-20)
(-0.0972163 -0.0454065 4.06807e-20)
(-0.105808 -0.0424935 3.1261e-20)
(-0.113489 -0.0390022 1.65903e-19)
(-0.120168 -0.0346714 -5.44124e-21)
(-0.125736 -0.0292227 -9.90459e-20)
(-0.130054 -0.0223783 -1.12699e-20)
(-0.132952 -0.0138704 3.97172e-20)
(-0.134227 -0.00344587 1.65776e-19)
(-0.133631 0.0091322 -1.24405e-19)
(-0.130869 0.0240894 3.10645e-19)
(-0.125577 0.0416526 1.25956e-19)
(-0.117494 0.0621111 -8.9394e-20)
(-0.106367 0.0859364 1.77157e-19)
(-0.0884735 0.113119 9.71278e-20)
(0.00149148 -0.0100468 1.11906e-20)
(0.000932563 -0.0247994 5.92194e-20)
(-0.0041977 -0.0355607 1.66812e-19)
(-0.0120347 -0.0426335 2.08817e-19)
(-0.0216919 -0.0466656 1.23751e-19)
(-0.0324312 -0.0483712 -8.64476e-20)
(-0.0436273 -0.0484383 2.1104e-19)
(-0.0548073 -0.047468 2.35341e-20)
(-0.065626 -0.0459202 -1.257e-19)
(-0.0758408 -0.0440868 1.41278e-20)
(-0.0852853 -0.0420915 2.29836e-19)
(-0.0938413 -0.0399109 -2.43859e-19)
(-0.101414 -0.0374092 -1.37749e-19)
(-0.107911 -0.0343758 -2.84208e-20)
(-0.11323 -0.0305594 -2.2319e-19)
(-0.117245 -0.0256936 -1.42469e-19)
(-0.119802 -0.0195138 2.41042e-20)
(-0.120717 -0.011767 -2.88136e-19)
(-0.119767 -0.00221705 2.49867e-20)
(-0.116688 0.00935256 -1.3194e-19)
(-0.111166 0.023144 -1.60361e-19)
(-0.1028 0.0393581 1.40847e-19)
(-0.0912261 0.0582461 1.55609e-19)
(-0.0766811 0.0804295 -1.16669e-19)
(-0.0535795 0.106053 1.53408e-19)
(0.00138741 -0.00856111 -1.38576e-19)
(0.000688733 -0.0211943 1.01594e-19)
(-0.00450209 -0.0305123 -8.06725e-21)
(-0.0123211 -0.0366695 4.01992e-20)
(-0.0218729 -0.0401966 3.80333e-20)
(-0.0324094 -0.0417038 1.72692e-19)
(-0.0432956 -0.0417905 -1.25268e-19)
(-0.054049 -0.0409875 -2.32066e-19)
(-0.0643148 -0.0397031 1.15829e-19)
(-0.0738416 -0.0381956 1.07776e-19)
(-0.0824538 -0.0365705 -3.62036e-19)
(-0.0900238 -0.0347984 2.53177e-19)
(-0.0964465 -0.0327462 3.80074e-19)
(-0.101619 -0.0302111 2.46817e-20)
(-0.105424 -0.0269527 -6.3913e-20)
(-0.107724 -0.0227167 1.85433e-19)
(-0.10835 -0.0172516 -8.41857e-20)
(-0.107103 -0.0103187 3.69481e-19)
(-0.103743 -0.00169893 -3.1882e-19)
(-0.097994 0.00880402 5.65029e-20)
(-0.0895285 0.0213662 -2.82156e-20)
(-0.0779335 0.0361574 -9.16346e-20)
(-0.0626547 0.0533334 -8.59982e-20)
(-0.0445688 0.0735824 6.86303e-20)
(-0.0162849 0.0978882 1.00771e-20)
(0.00121254 -0.00709523 8.97e-20)
(0.000286832 -0.017645 -6.50462e-20)
(-0.00500132 -0.0255546 5.28214e-20)
(-0.0128033 -0.0308321 -1.80632e-19)
(-0.0222232 -0.0338912 -4.02714e-20)
(-0.0325097 -0.0352373 1.99803e-20)
(-0.0430228 -0.0353807 -4.52455e-20)
(-0.0532735 -0.0347816 -7.45973e-20)
(-0.0628997 -0.0337966 2.2952e-20)
(-0.0716416 -0.0326503 -1.24888e-19)
(-0.0793148 -0.0314304 2.3221e-19)
(-0.0857823 -0.0301022 -5.34688e-20)
(-0.0909284 -0.0285355 -1.35008e-19)
(-0.0946387 -0.0265363 -1.36122e-19)
(-0.0967844 -0.0238751 1.77086e-19)
(-0.0972137 -0.0203101 9.21682e-20)
(-0.0957452 -0.0156027 3.715e-20)
(-0.092165 -0.00952827 -3.03431e-19)
(-0.0862234 -0.00188301 3.0746e-19)
(-0.0776305 0.00750966 -9.69921e-20)
(-0.0660521 0.0187996 -4.44817e-20)
(-0.0511165 0.0321302 -3.09948e-20)
(-0.0320214 0.0475456 -3.30059e-20)
(-0.0101373 0.0656028 1.10187e-19)
(0.0233474 0.0882808 -1.74639e-19)
(0.000969437 -0.0056582 -3.34429e-20)
(-0.000267696 -0.0141728 1.43045e-19)
(-0.00568939 -0.0207163 -2.05865e-19)
(-0.0134756 -0.025154 8.27207e-20)
(-0.022738 -0.0277834 4.49525e-20)
(-0.0327279 -0.0290057 -6.87668e-20)
(-0.0428052 -0.0292422 2.00327e-19)
(-0.0524776 -0.0288824 4.91534e-20)
(-0.0613776 -0.0282313 2.17178e-20)
(-0.0692379 -0.0274801 1.94239e-19)
(-0.0758656 -0.0266986 -7.91269e-20)
(-0.0811136 -0.0258469 8.19036e-20)
(-0.0848558 -0.0247983 -8.75429e-20)
(-0.0869659 -0.0233676 -5.27202e-21)
(-0.0873032 -0.0213366 -9.27331e-20)
(-0.0857031 -0.0184757 -3.15164e-19)
(-0.0819717 -0.014559 6.34997e-20)
(-0.0758832 -0.0093746 2.39895e-19)
(-0.067178 -0.00273276 -8.25059e-20)
(-0.0555589 0.00552577 3.79082e-19)
(-0.0406753 0.0155254 -2.0391e-19)
(-0.0222364 0.0273649 -5.40871e-20)
(0.000761969 0.0410685 -8.7349e-20)
(0.0263943 0.0569707 1.18812e-21)
(0.0656016 0.0772194 -7.46495e-20)
(0.000661202 -0.00425798 -9.82969e-20)
(-0.000967845 -0.0107967 -1.47882e-19)
(-0.0065576 -0.016023 -7.88294e-20)
(-0.0143285 -0.0196642 7.43891e-20)
(-0.0234067 -0.0219036 2.30144e-20)
(-0.0330525 -0.023039 1.33571e-20)
(-0.0426301 -0.0234037 5.09803e-20)
(-0.0516469 -0.0233169 -2.47659e-19)
(-0.0597315 -0.0230322 8.08537e-20)
(-0.06661 -0.0227073 -1.68834e-19)
(-0.0720807 -0.0223942 -5.98e-20)
(-0.0759863 -0.0220477 -8.1558e-20)
(-0.0781891 -0.0215445 -1.69605e-19)
(-0.0785508 -0.020708 3.44446e-19)
(-0.0769176 -0.0193312 1.91719e-19)
(-0.0731123 -0.0171963 5.18769e-20)
(-0.0669285 -0.0140889 1.55446e-19)
(-0.0581291 -0.00980874 -2.1878e-19)
(-0.0464464 -0.00417767 -5.28007e-20)
(-0.0315804 0.00294916 -2.39566e-19)
(-0.013168 0.011673 9.10671e-20)
(0.00900951 0.0220646 1.89598e-19)
(0.0362543 0.0340753 8.51909e-20)
(0.06542 0.0480281 -1.50697e-19)
(0.111031 0.0653411 1.81634e-19)
(0.000291408 -0.00290152 -3.41924e-20)
(-0.00180508 -0.00753338 8.4469e-21)
(-0.0075944 -0.0114974 9.98312e-20)
(-0.0153479 -0.0143886 1.77708e-19)
(-0.0242131 -0.0162782 -1.18929e-19)
(-0.0334644 -0.0173631 1.14119e-19)
(-0.0424746 -0.0178893 -8.96356e-20)
(-0.0507535 -0.0181067 3.38695e-19)
(-0.0579273 -0.0182179 -2.36477e-19)
(-0.0637158 -0.0183468 5.08325e-20)
(-0.0679079 -0.0185277 2.16797e-19)
(-0.0703349 -0.0187096 -2.90012e-20)
(-0.0708463 -0.018772 2.28029e-20)
(-0.0692896 -0.0185463 -2.78955e-19)
(-0.065497 -0.0178358 -2.32273e-19)
(-0.0592765 -0.0164334 -9.34296e-21)
(-0.0504085 -0.014135 -2.45834e-19)
(-0.0386436 -0.0107497 8.54702e-20)
(-0.0237048 -0.0061078 -1.20225e-19)
(-0.00529236 -7.4012e-05 1.48539e-19)
(0.0169881 0.00744086 -1.94128e-19)
(0.0431788 0.0165009 1.07255e-19)
(0.0752282 0.0269023 -8.70006e-20)
(0.107868 0.0390951 1.17886e-19)
(0.160867 0.0533706 -8.0892e-21)
(-0.000135926 -0.00159495 1.90298e-19)
(-0.0027693 -0.00439784 4.75696e-20)
(-0.00878527 -0.00715982 -1.09853e-19)
(-0.0165154 -0.00934982 -1.31924e-19)
(-0.0251344 -0.0109306 8.89892e-20)
(-0.0339357 -0.0119999 -3.2594e-19)
(-0.0423042 -0.0127187 4.63419e-19)
(-0.0497547 -0.0132683 8.89353e-20)
(-0.0559117 -0.0138007 1.48313e-19)
(-0.0604885 -0.0144064 1.79987e-19)
(-0.0632634 -0.015101 1.12003e-19)
(-0.0640542 -0.0158269 -8.2723e-20)
(-0.0626948 -0.0164657 -1.7764e-21)
(-0.0590158 -0.0168553 -3.99345e-20)
(-0.0528317 -0.0168079 -1.1616e-19)
(-0.0439331 -0.0161254 2.55431e-19)
(-0.0320834 -0.0146118 5.08082e-19)
(-0.0170183 -0.012082 2.607e-20)
(0.001552 -0.00837116 1.63856e-19)
(0.023924 -0.00334869 -8.26116e-20)
(0.0505558 0.00307202 9.81705e-20)
(0.0811816 0.0109396 -5.48585e-19)
(0.118813 0.0199971 2.47607e-19)
(0.154977 0.0306703 1.47143e-19)
(0.216862 0.0421245 -9.41607e-20)
(-0.000616334 -0.000343718 -1.13822e-19)
(-0.00384885 -0.00140348 -1.96285e-19)
(-0.0101126 -0.0030285 1.88112e-19)
(-0.0178074 -0.00456838 1.23625e-19)
(-0.0261405 -0.005881 6.5861e-20)
(-0.0344286 -0.00696816 2.34787e-19)
(-0.0420718 -0.00790746 -2.43609e-19)
(-0.0485913 -0.00881324 -2.23905e-19)
(-0.0536101 -0.00978723 -1.46827e-19)
(-0.0568341 -0.0108862 -3.40884e-19)
(-0.0580287 -0.0121066 6.4655e-20)
(-0.0569948 -0.0133831 -2.62889e-20)
(-0.0535467 -0.0145973 4.71139e-19)
(-0.0474935 -0.0155921 1.91745e-19)
(-0.0386267 -0.0161861 1.35719e-19)
(-0.0267143 -0.0161877 -4.39771e-20)
(-0.0114976 -0.0154056 -2.34627e-19)
(0.00730731 -0.0136561 -1.83645e-19)
(0.0300082 -0.0107755 -2.06429e-19)
(0.0568912 -0.00663387 1.44209e-19)
(0.0885257 -0.00113095 2.58543e-19)
(0.124157 0.00573046 2.77495e-19)
(0.1684 0.0138188 -2.50584e-19)
(0.208197 0.0232596 1.02168e-19)
(0.280912 0.0325245 1.31792e-19)
(-0.00114487 0.00084719 -2.97512e-19)
(-0.00503033 0.00143742 1.66157e-19)
(-0.0115553 0.000880029 -2.84237e-19)
(-0.0191952 -6.24974e-05 3.49088e-19)
(-0.0271941 -0.0011473 -3.34202e-19)
(-0.0348953 -0.00228336 -9.99737e-20)
(-0.0417166 -0.00346751 -1.85698e-19)
(-0.047186 -0.0047484 1.04083e-19)
(-0.050925 -0.00617819 -1.77277e-19)
(-0.0526293 -0.00777966 1.92766e-19)
(-0.0520481 -0.00952893 -2.51217e-19)
(-0.0489609 -0.0113512 -1.83834e-19)
(-0.0431565 -0.013126 5.546e-21)
(-0.0344158 -0.0146985 -2.737e-19)
(-0.0225009 -0.0158908 7.15334e-21)
(-0.0071502 -0.0165139 -2.65612e-19)
(0.0119231 -0.0163763 -1.6391e-20)
(0.0350272 -0.0152928 -2.75073e-19)
(0.0624922 -0.0130955 9.38454e-20)
(0.0945782 -0.00965288 3.87663e-19)
(0.132021 -0.00482233 -3.61567e-19)
(0.173345 0.00124968 1.68759e-19)
(0.225379 0.00885743 1.76997e-19)
(0.26893 0.017295 -8.26545e-20)
(0.354492 0.0254287 3.16589e-20)
(-0.00171604 0.00197312 1.54171e-19)
(-0.00629859 0.00411337 -4.36734e-20)
(-0.0130891 0.00455042 9.63706e-20)
(-0.0206448 0.00415115 -2.80838e-19)
(-0.02825 0.00325469 4.48991e-19)
(-0.0352775 0.00204131 2.93738e-20)
(-0.0411637 0.000592335 3.23724e-19)
(-0.0454438 -0.00107686 -1.68591e-19)
(-0.0477353 -0.0029694 1.13531e-19)
(-0.0477209 -0.00507367 1.48532e-19)
(-0.0451286 -0.0073441 1.34999e-19)
(-0.0397102 -0.00969427 4.22033e-19)
(-0.031222 -0.011999 -1.06462e-19)
(-0.019409 -0.014102 -1.0389e-19)
(-0.003996 -0.0158252 -7.89993e-20)
(0.0153154 -0.0169776 -4.9309e-21)
(0.0388443 -0.0173631 -1.58503e-19)
(0.0669237 -0.0167914 1.40021e-19)
(0.0999058 -0.015083 -1.78482e-19)
(0.137993 -0.0121111 6.7991e-20)
(0.182137 -0.00764193 -9.49167e-20)
(0.229875 -0.00213266 1.1745e-20)
(0.290795 0.00557781 -4.1319e-19)
(0.338191 0.0131192 4.41596e-20)
(0.438023 0.0214237 5.49053e-22)
(-0.0023238 0.00302956 2.0424e-19)
(-0.00763654 0.00661338 -1.38391e-19)
(-0.0146859 0.00796815 -9.75615e-20)
(-0.0221164 0.008057 -5.93611e-20)
(-0.0292552 0.00731057 -1.93918e-19)
(-0.035506 0.00599463 -3.2625e-19)
(-0.0403244 0.00426573 -1.0633e-19)
(-0.043251 0.0022016 3.62893e-19)
(-0.0438968 -0.000152444 -1.13148e-19)
(-0.0419268 -0.00274976 -2.42329e-19)
(-0.0370415 -0.00552152 -1.45249e-19)
(-0.0289579 -0.00836711 -4.31447e-19)
(-0.0173914 -0.0111532 -4.6218e-19)
(-0.00204333 -0.0137183 3.42934e-19)
(0.0174057 -0.0158791 6.89313e-20)
(0.0412951 -0.0174383 5.54556e-20)
(0.0699762 -0.0181917 5.49951e-19)
(0.103797 -0.0179384 8.04309e-20)
(0.14312 -0.0164828 4.91659e-19)
(0.188039 -0.0137186 -5.68332e-19)
(0.239726 -0.00925128 2.57312e-19)
(0.294525 -0.00407956 -2.19974e-19)
(0.36498 0.00433552 3.31306e-19)
(0.416283 0.0110025 -4.83019e-19)
(0.530391 0.0206853 9.65022e-20)
(-0.0029614 0.0040121 -5.1809e-20)
(-0.00902509 0.00892669 -1.0997e-19)
(-0.0163141 0.0111192 -1.01462e-19)
(-0.0235649 0.0116402 3.44264e-20)
(-0.030149 0.0110069 -5.44892e-20)
(-0.0355014 0.00956665 2.06623e-19)
(-0.039096 0.00754815 -7.3587e-20)
(-0.0404767 0.00508969 -1.55206e-19)
(-0.0392437 0.00228452 -6.38188e-20)
(-0.0350382 -0.000784986 3.04731e-21)
(-0.0275266 -0.00402483 4.00306e-19)
(-0.016383 -0.00731726 -3.46502e-19)
(-0.00127414 -0.0105171 4.98181e-19)
(0.0181488 -0.0134531 -1.41526e-19)
(0.0422528 -0.0159325 -2.39531e-19)
(0.0714157 -0.0177473 1.98021e-19)
(0.106011 -0.0186807 -2.09254e-19)
(0.146377 -0.01852 -3.43134e-19)
(0.192849 -0.01705 -1.24829e-19)
(0.245347 -0.0142115 1.09624e-19)
(0.305191 -0.00937468 1.69469e-19)
(0.367475 -0.00430699 3.16014e-19)
(0.447289 0.00529578 1.48416e-20)
(0.502539 0.0111506 2.04474e-19)
(0.628869 0.0229748 -6.24589e-20)
(-0.00362142 0.00491629 -2.53695e-20)
(-0.0104431 0.0110427 2.4068e-19)
(-0.0179386 0.0139896 2.49307e-19)
(-0.0249397 0.0148862 -1.12041e-19)
(-0.030863 0.0143309 7.88509e-20)
(-0.0351742 0.0127483 -2.92114e-19)
(-0.0373634 0.0104363 5.80327e-20)
(-0.0369742 0.00759191 4.66883e-20)
(-0.0335906 0.00435583 -1.35766e-19)
(-0.026824 0.000847032 -3.72078e-20)
(-0.0162988 -0.00281319 -5.00701e-19)
(-0.00163898 -0.00648685 1.57499e-19)
(0.0175429 -0.0100128 -2.36119e-20)
(0.0416486 -0.0132059 -6.87822e-21)
(0.0710886 -0.0158595 -2.14114e-20)
(0.106266 -0.0177513 -1.31089e-21)
(0.147548 -0.0186504 -1.53217e-20)
(0.19522 -0.0183335 2.39476e-19)
(0.249525 -0.016566 -2.01452e-19)
(0.310128 -0.0133688 1.7966e-19)
(0.378316 -0.00783463 -2.52525e-19)
(0.448132 -0.00260409 -1.17227e-19)
(0.536033 0.00839994 3.01569e-20)
(0.595173 0.0136586 -1.78081e-19)
(0.729482 0.0277559 -5.59071e-20)
(-0.00429569 0.00573773 -2.39635e-19)
(-0.0118672 0.0129507 -3.04745e-20)
(-0.0195204 0.0165659 -3.07043e-19)
(-0.026185 0.0177806 -2.47264e-19)
(-0.031322 0.0172698 3.28038e-19)
(-0.0344258 0.0155308 2.24791e-19)
(-0.035 0.0129276 -9.91243e-20)
(-0.0325829 0.00971394 -8.84465e-20)
(-0.0267367 0.00607764 -6.55018e-20)
(-0.0170358 0.00217526 5.64561e-19)
(-0.00305651 -0.00184239 2.15333e-19)
(0.0156329 -0.00581379 3.00514e-19)
(0.0394756 -0.00955791 -1.70227e-20)
(0.0689214 -0.0128717 5.48623e-20)
(0.104409 -0.0155314 1.5195e-19)
(0.146338 -0.0172988 -3.52273e-19)
(0.195022 -0.0179298 5.43335e-19)
(0.250622 -0.0171971 5.41637e-20)
(0.31319 -0.0148531 -1.66691e-19)
(0.382058 -0.0110248 -2.41895e-19)
(0.458191 -0.00456824 -1.27032e-19)
(0.53504 0.00113186 2.65893e-19)
(0.628662 0.013405 -9.60522e-21)
(0.691321 0.0184283 1.30124e-19)
(0.827701 0.0343399 1.52814e-19)
(-0.00497532 0.00647208 1.82609e-19)
(-0.0132722 0.0146405 1.92414e-20)
(-0.0210174 0.0188343 -4.11248e-20)
(-0.0272402 0.0203094 4.3853e-20)
(-0.0314441 0.0198112 -3.11537e-19)
(-0.0331496 0.0179059 4.14965e-19)
(-0.0318693 0.0150199 -1.12144e-21)
(-0.0271312 0.0114623 3.37353e-19)
(-0.0184693 0.00746749 1.46911e-20)
(-0.00541522 0.00323067 -1.14448e-19)
(0.0125081 -0.00106549 1.78468e-19)
(0.0357888 -0.00523272 -5.94251e-19)
(0.0649208 -0.00906669 -3.61091e-19)
(0.100386 -0.0123433 -1.76531e-19)
(0.142623 -0.0148201 -7.44668e-20)
(0.191976 -0.016244 6.13876e-21)
(0.248634 -0.0163628 -3.53635e-19)
(0.31254 -0.0149573 1.2978e-19)
(0.383426 -0.0117846 4.8427e-19)
(0.460222 -0.00708233 1.29271e-19)
(0.543238 0.000381919 2.97753e-19)
(0.625927 0.00685018 -2.8336e-19)
(0.722095 0.0199643 -6.21386e-20)
(0.787321 0.0251215 -1.05798e-19)
(0.91923 0.0419946 -5.39302e-19)
(-0.00565073 0.00711518 -1.71075e-19)
(-0.0146307 0.0161018 8.6959e-20)
(-0.0223841 0.0207819 1.55203e-19)
(-0.0280403 0.0224586 5.40249e-19)
(-0.0311419 0.0219429 2.03737e-19)
(-0.031232 0.0198653 -4.52442e-19)
(-0.0278272 0.0167118 -1.14117e-19)
(-0.0204395 0.0128444 -6.00863e-20)
(-0.00856917 0.00854429 -1.96575e-19)
(0.00829971 0.00404628 -6.44498e-20)
(0.0306984 -0.000432891 -1.31459e-19)
(0.0591665 -0.00467534 4.74877e-19)
(0.0942337 -0.00845069 5.59354e-19)
(0.136385 -0.0115121 2.77028e-19)
(0.186009 -0.0135994 -1.40186e-19)
(0.243325 -0.0144495 -9.56687e-20)
(0.3083 -0.013813 2.05461e-19)
(0.380545 -0.0114951 -4.32893e-20)
(0.459335 -0.0072911 -2.70084e-21)
(0.54313 -0.00152768 1.00062e-19)
(0.631328 0.00689096 -1.41183e-19)
(0.717906 0.014323 -2.34117e-19)
(0.813096 0.0276889 -1.49651e-19)
(0.879221 0.033199 1.87476e-19)
(1.00065 0.0500195 5.76115e-19)
(-0.0063117 0.0076632 1.36411e-19)
(-0.0159136 0.0173253 4.65498e-19)
(-0.0235724 0.0223959 1.86647e-19)
(-0.028516 0.024215 -1.6563e-19)
(-0.030323 0.0236534 2.31217e-19)
(-0.0285536 0.0214019 2.54892e-19)
(-0.0227235 0.0180025 2.8558e-19)
(-0.0123233 0.0138691 -1.62303e-20)
(0.0031852 0.00932895 2.23339e-19)
(0.0243666 0.00465775 -6.85469e-19)
(0.0518021 0.000108299 3.85683e-19)
(0.0860695 -0.00406969 -2.02421e-19)
(0.127707 -0.00761825 -5.05837e-19)
(0.177156 -0.0102685 -3.6081e-19)
(0.234686 -0.0117467 5.79815e-19)
(0.300297 -0.0117895 -1.94822e-19)
(0.373619 -0.0101675 -9.33945e-20)
(0.453809 -0.00673258 6.94302e-20)
(0.539555 -0.0013631 -3.43406e-19)
(0.628805 0.00555772 2.66937e-19)
(0.719955 0.0147679 -4.141e-20)
(0.807813 0.0231696 2.93831e-19)
(0.898629 0.0361693 3.27847e-19)
(0.963414 0.042026 -1.09023e-19)
(1.06983 0.0578095 -2.09722e-19)
(-0.00694752 0.00811283 -7.10908e-20)
(-0.0170903 0.0183026 -2.64105e-19)
(-0.0245313 0.0236652 6.8475e-21)
(-0.0285949 0.0255667 -1.33872e-19)
(-0.0288905 0.0249325 -3.94821e-19)
(-0.0249904 0.0225098 -2.04365e-19)
(-0.0164041 0.0188935 1.12405e-19)
(-0.00259586 0.0145477 -3.50006e-19)
(0.0170126 0.00984561 2.76967e-20)
(0.0430319 0.00510488 1.70739e-19)
(0.0760816 0.000615859 -4.88941e-19)
(0.116753 -0.00333864 -1.60053e-19)
(0.16555 -0.00647344 4.04781e-19)
(0.222806 -0.00850117 2.6886e-19)
(0.288582 -0.0091434 -3.43331e-19)
(0.362545 -0.00815252 3.60736e-19)
(0.443863 -0.00534305 1.4758e-19)
(0.531121 -0.000640289 -3.46993e-20)
(0.622342 0.00594569 -3.14372e-20)
(0.714943 0.0139971 -2.8661e-19)
(0.806456 0.0237578 3.05306e-20)
(0.892606 0.0329195 -4.89897e-20)
(0.976156 0.0449837 -2.58913e-19)
(1.03719 0.0509949 -1.86954e-19)
(1.12595 0.0649093 -1.70311e-19)
(-0.00754711 0.00846145 -4.47203e-20)
(-0.0181286 0.0190265 -5.86811e-19)
(-0.0252075 0.0245802 -3.63247e-19)
(-0.028201 0.0265036 -4.64085e-19)
(-0.0267437 0.0257724 4.10818e-19)
(-0.0204147 0.0231859 3.31068e-20)
(-0.00871204 0.0193893 2.98064e-19)
(0.00892885 0.0148956 -2.72548e-19)
(0.0331253 0.0101237 4.51957e-19)
(0.0645247 0.00543375 1.68712e-19)
(0.103765 0.00115471 1.33349e-20)
(0.151412 -0.00239787 -2.5934e-20)
(0.207876 -0.00491456 -9.07357e-20)
(0.273299 -0.00609735 -7.94096e-20)
(0.347421 -0.00567772 8.04529e-20)
(0.429457 -0.00344625 1.12173e-19)
(0.517988 0.000707853 -7.0418e-19)
(0.610944 0.00675477 4.22437e-20)
(0.70567 0.0145137 -1.10709e-19)
(0.799117 0.0235318 -9.84244e-20)
(0.888266 0.0335454 4.7596e-20)
(0.96973 0.0430822 -2.99218e-19)
(1.04388 0.0537262 1.29827e-19)
(1.09905 0.0596261 1.60507e-19)
(1.16936 0.0710391 -3.64937e-19)
(-0.0080991 0.00870728 1.04639e-19)
(-0.0189952 0.019492 4.24834e-19)
(-0.0255455 0.0251338 3.67121e-20)
(-0.0272553 0.0270188 6.74427e-19)
(-0.0237786 0.0261687 -4.28581e-19)
(-0.0146957 0.0234314 4.20355e-19)
(0.000510649 0.0195001 -3.77004e-19)
(0.0224342 0.0149347 1.48505e-19)
(0.0517252 0.0102002 -1.90994e-19)
(0.0890512 0.00569953 2.51294e-19)
(0.135035 0.00179961 4.14227e-19)
(0.190166 -0.0011536 2.12484e-19)
(0.254683 -0.00283324 8.48347e-20)
(0.328431 -0.00294384 9.21244e-20)
(0.41071 -0.00124821 -6.70666e-20)
(0.500155 0.0023953 -5.48782e-20)
(0.59467 0.00798754 5.72968e-19)
(0.691498 0.0153623 1.83451e-19)
(0.787395 0.0241485 4.93e-19)
(0.879 0.0338435 1.31938e-20)
(0.963178 0.0437739 -2.90607e-19)
(1.03738 0.0532025 3.55254e-19)
(1.1009 0.062059 4.3314e-19)
(1.14868 0.0676323 5.40986e-20)
(1.20122 0.0760858 3.58662e-19)
(-0.00859202 0.00884955 -2.9705e-19)
(-0.0196558 0.0196961 1.64924e-19)
(-0.0254879 0.025322 3.6307e-19)
(-0.0256761 0.0271095 -1.43e-19)
(-0.0198879 0.0261223 -4.26469e-19)
(-0.0076999 0.0232539 -3.15551e-20)
(0.0114225 0.0192431 2.30485e-20)
(0.0380992 0.0146961 4.134e-20)
(0.0730007 0.0101232 -2.64641e-19)
(0.116789 0.00596943 -1.11527e-19)
(0.170026 0.00263783 -3.86877e-19)
(0.233055 0.00049885 -9.02005e-21)
(0.305845 -0.000114941 -1.05674e-19)
(0.387826 0.00106943 -3.16537e-20)
(0.477734 0.00422891 2.71616e-19)
(0.573519 0.00940193 -3.91479e-19)
(0.672364 0.0164438 1.62041e-19)
(0.770881 0.0250259 -2.47874e-19)
(0.865423 0.0345929 -3.58338e-19)
(0.952586 0.0445832 6.70226e-20)
(1.02955 0.0540804 6.27771e-19)
(1.09463 0.0628983 -3.0921e-19)
(1.14717 0.0697709 1.57957e-20)
(1.1867 0.0749189 2.5711e-19)
(1.22316 0.0799917 1.41794e-19)
(-0.00901431 0.00888853 1.3989e-19)
(-0.0200749 0.0196385 -1.99039e-19)
(-0.024975 0.0251451 -4.22547e-19)
(-0.0233787 0.0267781 -2.24838e-19)
(-0.0149612 0.0256404 2.46112e-19)
(0.000708367 0.022669 8.385e-20)
(0.0241814 0.0186459 4.9029e-19)
(0.056096 0.0142228 1.98695e-19)
(0.0971232 0.00995417 1.25273e-19)
(0.14788 0.00632556 5.83332e-20)
(0.20881 0.00377097 4.00208e-19)
(0.280018 0.00267512 1.79306e-19)
(0.361094 0.00335809 -1.46368e-19)
(0.450926 0.00604268 2.07207e-19)
(0.547569 0.0108098 -1.16839e-19)
(0.648226 0.0175564 1.44565e-19)
(0.749393 0.0259628 -1.37112e-19)
(0.847208 0.0355273 -2.92346e-19)
(0.9379 0.0455422 4.11816e-19)
(1.01836 0.0554034 -4.17814e-19)
(1.08646 0.0641334 1.16287e-19)
(1.1414 0.0718905 -1.29089e-19)
(1.1834 0.0768117 -9.50212e-20)
(1.21435 0.0814549 -7.66225e-19)
(1.23706 0.0825434 1.22406e-19)
(-0.00935443 0.00882557 2.85364e-20)
(-0.0202163 0.0193216 1.42741e-19)
(-0.0239454 0.0246077 4.7417e-19)
(-0.0202755 0.0260332 -1.11938e-19)
(-0.00888492 0.0247388 -4.88194e-20)
(0.0106669 0.0217026 9.09585e-20)
(0.038944 0.0177486 8.1127e-20)
(0.0765887 0.0135725 -3.19076e-19)
(0.124242 0.00977129 -1.47785e-19)
(0.182428 0.00686678 -4.54668e-19)
(0.251388 0.00531522 -3.4128e-19)
(0.33089 0.00549932 -2.41198e-19)
(0.420015 0.00770067 2.11806e-19)
(0.516989 0.0120565 -3.06866e-19)
(0.619102 0.0185112 -1.44651e-19)
(0.722814 0.0267852 -6.27504e-20)
(0.824062 0.0363687 -4.31703e-20)
(0.918764 0.0465995 8.76392e-19)
(1.00337 0.0566738 5.42204e-20)
(1.0754 0.0659915 -7.49071e-20)
(1.13366 0.073663 -4.00184e-19)
(1.17833 0.0800309 1.27168e-19)
(1.21072 0.0832488 1.05269e-20)
(1.23323 0.0870043 4.44412e-19)
(1.2454 0.0836251 5.12402e-20)
(-0.00960057 0.00866294 2.2634e-19)
(-0.0200428 0.0187515 -2.17816e-19)
(-0.0223348 0.0237197 -3.31227e-19)
(-0.0162757 0.0248911 3.33002e-19)
(-0.00154221 0.023443 -7.45391e-20)
(0.0223148 0.0203932 -6.46425e-20)
(0.0558638 0.0166063 5.63164e-20)
(0.099729 0.01282 -8.05704e-20)
(0.154482 0.00967078 2.0166e-19)
(0.220482 0.00770911 1.30467e-19)
(0.29768 0.00739937 3.35623e-19)
(0.385381 0.00909848 -8.44806e-21)
(0.482034 0.0130152 2.68521e-19)
(0.585098 0.0191595 -1.88783e-20)
(0.691073 0.0272994 2.76511e-19)
(0.795766 0.0369548 7.74912e-20)
(0.894781 0.0474323 -5.005e-19)
(0.984146 0.0579497 -2.3761e-19)
(1.06087 0.0676807 -5.5576e-20)
(1.12339 0.0760961 1.48076e-19)
(1.17157 0.0824835 -6.98014e-20)
(1.2065 0.0873111 -2.37182e-19)
(1.23043 0.0890981 3.12053e-20)
(1.2452 0.0912141 -2.07721e-19)
(1.25365 0.0870427 -9.86845e-20)
(-0.00974074 0.0084043 1.38691e-19)
(-0.0195157 0.0179368 1.48233e-19)
(-0.0200771 0.0224964 2.71898e-19)
(-0.0112852 0.0233765 -1.98162e-19)
(0.00718643 0.0217899 1.44523e-20)
(0.0357917 0.0187935 3.97772e-19)
(0.0750887 0.0152906 -1.14105e-19)
(0.125652 0.0120587 -3.80318e-19)
(0.187928 0.00976736 -2.24624e-19)
(0.262032 0.00898397 2.99799e-19)
(0.347507 0.0101598 -6.19935e-19)
(0.443071 0.0135939 3.03784e-21)
(0.546421 0.0193801 -5.08391e-20)
(0.654192 0.0273568 3.82012e-19)
(0.762143 0.0370837 -2.01345e-19)
(0.865617 0.0478759 2.74889e-19)
(0.960193 0.0588899 2.70527e-19)
(1.04236 0.0692881 -4.66737e-19)
(1.11 0.0783031 -1.89773e-19)
(1.16259 0.0855408 -1.52838e-19)
(1.20103 0.0905081 2.29754e-19)
(1.22724 0.0938104 3.53052e-19)
(1.24388 0.0942463 1.5908e-19)
(1.25295 0.0950411 -1.39361e-19)
(1.25792 0.0902104 -2.4761e-19)
(-0.00976282 0.00805389 -3.27705e-20)
(-0.0185946 0.0168894 1.38742e-19)
(-0.0171033 0.0209597 -2.75909e-19)
(-0.00520715 0.0215232 -4.24071e-19)
(0.0174225 0.0198287 -6.29341e-19)
(0.0512357 0.0169711 1.07192e-19)
(0.0967575 0.0138909 -1.26649e-19)
(0.154471 0.0114004 1.85511e-19)