/*--------------------------------*- C++ -*----------------------------------*\
  =========                 |
  \\      /  F ield         | OpenFOAM: The Open Source CFD Toolbox
   \\    /   O peration     | Website:  https://openfoam.org
    \\  /    A nd           | Version:  7
     \\/     M anipulation  |
\*---------------------------------------------------------------------------*/
FoamFile
{
    version     2.0;
    format      ascii;
    class       volVectorField;
    location    "125";
    object      U;
}
// * * * * * * * * * * * * * * * * * * * * * * * * * * * * * * * * * * * * * //

dimensions      [0 1 -1 0 0 0 0];

internalField   nonuniform List<vector> 
1987
(
(1.31135 0.0711445 0)
(1.31078 0.0925521 0)
(1.30738 0.114807 0)
(1.30091 0.137371 0)
(1.29128 0.159666 0)
(1.27851 0.181113 0)
(1.26278 0.201171 0)
(1.24437 0.219368 0)
(1.22364 0.235324 0)
(1.201 0.248763 0)
(1.17689 0.259514 0)
(1.15173 0.267505 0)
(1.12591 0.272745 0)
(1.09977 0.275308 0)
(1.07359 0.275307 0)
(1.04761 0.27288 0)
(1.02198 0.268162 0)
(0.996827 0.261278 0)
(0.972219 0.252327 0)
(0.948202 0.241369 0)
(0.924819 0.228411 0)
(0.902117 0.213422 0)
(0.880108 0.196381 0)
(0.858837 0.177164 0)
(0.838537 0.155428 0)
(0.819467 0.130926 0)
(0.801298 0.104141 0)
(0.782996 0.0762802 0)
(0.763982 0.0481644 0)
(0.745666 0.0191208 0)
(0.731621 -0.0126825 0)
(0.725879 -0.0486255 0)
(0.730755 -0.0883935 0)
(0.745991 -0.130056 0)
(0.769347 -0.171125 0)
(0.797786 -0.20986 0)
(0.828539 -0.245984 0)
(1.29935 0.0713086 0)
(1.29816 0.0910749 0)
(1.29442 0.111555 0)
(1.28794 0.132286 0)
(1.27862 0.152769 0)
(1.2665 0.1725 0)
(1.25171 0.191004 0)
(1.23446 0.207859 0)
(1.21508 0.222718 0)
(1.19391 0.235317 0)
(1.17131 0.245485 0)
(1.14768 0.253129 0)
(1.12335 0.258232 0)
(1.09864 0.260832 0)
(1.07382 0.26101 0)
(1.0491 0.258867 0)
(1.02465 0.254509 0)
(1.0006 0.248034 0)
(0.977036 0.239522 0)
(0.954031 0.229025 0)
(0.931641 0.216547 0)
(0.909938 0.202055 0)
(0.888975 0.185519 0)
(0.868798 0.166862 0)
(0.849606 0.145818 0)
(0.831771 0.122059 0)
(0.815366 0.0957563 0)
(0.799673 0.0679174 0)
(0.783691 0.0397666 0)
(0.767581 0.0115644 0)
(0.753616 -0.0177679 0)
(0.745414 -0.0497126 0)
(0.746021 -0.0848259 0)
(0.756453 -0.122237 0)
(0.77555 -0.160192 0)
(0.800818 -0.197145 0)
(0.829572 -0.232561 0)
(0.859905 -0.26685 0)
(0.891371 -0.300269 0)
(0.925144 -0.33134 0)
(0.962907 -0.356357 0)
(1.00474 -0.370656 0)
(1.04863 -0.369355 0)
(1.09238 -0.345827 0)
(1.13504 -0.29157 0)
(1.17608 -0.202067 0)
(1.2122 -0.0852711 0)
(1.23623 0.0381208 0)
(1.24188 0.145476 0)
(1.22853 0.223443 0)
(1.20078 0.270596 0)
(1.16497 0.293074 0)
(1.12645 0.298936 0)
(1.08863 0.294801 0)
(1.05302 0.285179 0)
(1.01971 0.27273 0)
(1.28728 0.0710323 0)
(1.28559 0.0892704 0)
(1.28162 0.108105 0)
(1.2752 0.127138 0)
(1.26624 0.145939 0)
(1.25476 0.164072 0)
(1.24086 0.181118 0)
(1.22474 0.196702 0)
(1.20664 0.210506 0)
(1.18686 0.222283 0)
(1.16572 0.231858 0)
(1.14356 0.239128 0)
(1.12069 0.244054 0)
(1.09738 0.246647 0)
(1.0739 0.246957 0)
(1.05044 0.245053 0)
(1.02718 0.241018 0)
(1.00426 0.234926 0)
(0.981773 0.226838 0)
(0.959809 0.216795 0)
(0.93844 0.204804 0)
(0.917756 0.190832 0)
(0.897845 0.174839 0)
(0.878776 0.156774 0)
(0.860709 0.136457 0)
(0.844018 0.113577 0)
(0.829042 0.0880726 0)
(0.815498 0.0606211 0)
(0.80242 0.0324865 0)
(0.789143 0.00458566 0)
(0.776578 -0.0232926 0)
(0.767361 -0.0522528 0)
(0.764605 -0.0832789 0)
(0.770313 -0.11643 0)
(0.784556 -0.150835 0)
(0.805754 -0.185402 0)
(0.831648 -0.219515 0)
(0.860415 -0.253077 0)
(0.891543 -0.285643 0)
(0.925917 -0.315324 0)
(0.964586 -0.338726 0)
(1.00711 -0.35194 0)
(1.05156 -0.350445 0)
(1.09628 -0.327298 0)
(1.1409 -0.273674 0)
(1.18473 -0.185757 0)
(1.22291 -0.0729099 0)
(1.24697 0.0439036 0)
(1.251 0.143634 0)
(1.23558 0.215078 0)
(1.20622 0.258038 0)
(1.16954 0.278665 0)
(1.13074 0.284362 0)
(1.09297 0.280971 0)
(1.05759 0.272369 0)
(1.02463 0.260889 0)
(1.27538 0.0703532 0)
(1.27328 0.0871734 0)
(1.26915 0.104487 0)
(1.26282 0.121951 0)
(1.25422 0.139196 0)
(1.24337 0.155842 0)
(1.23032 0.171523 0)
(1.21525 0.185903 0)
(1.19836 0.198695 0)
(1.17991 0.209665 0)
(1.16017 0.218644 0)
(1.13942 0.225519 0)
(1.11796 0.230234 0)
(1.09603 0.23278 0)
(1.07386 0.233178 0)
(1.05167 0.231475 0)
(1.02961 0.227728 0)
(1.00782 0.221992 0)
(0.986431 0.214312 0)
(0.965528 0.204719 0)
(0.945203 0.193219 0)
(0.925555 0.179784 0)
(0.906698 0.164371 0)
(0.888734 0.146936 0)
(0.871805 0.127369 0)
(0.856229 0.105432 0)
(0.842454 0.080954 0)
(0.830589 0.0542774 0)
(0.82 0.0264381 0)
(0.809716 -0.00135284 0)
(0.799557 -0.0285571 0)
(0.790899 -0.055614 0)
(0.786261 -0.0834598 0)
(0.788052 -0.112747 0)
(0.797413 -0.143456 0)
(0.813899 -0.175119 0)
(0.836062 -0.20726 0)
(0.862484 -0.239412 0)
(0.892683 -0.27055 0)
(0.927148 -0.298501 0)
(0.966235 -0.320211 0)
(1.00906 -0.332348 0)
(1.05391 -0.33051 0)
(1.09977 -0.307345 0)
(1.14685 -0.253996 0)
(1.19359 -0.167857 0)
(1.2332 -0.0597918 0)
(1.25642 0.0494423 0)
(1.25826 0.140904 0)
(1.24067 0.205666 0)
(1.20995 0.244573 0)
(1.17277 0.263569 0)
(1.13405 0.269275 0)
(1.09663 0.266744 0)
(1.06169 0.259245 0)
(1.02925 0.248787 0)
(1.26374 0.0693131 0)
(1.26132 0.0848205 0)
(1.25707 0.100729 0)
(1.25087 0.116745 0)
(1.24263 0.13255 0)
(1.23237 0.147814 0)
(1.22013 0.162216 0)
(1.20606 0.175458 0)
(1.19031 0.18728 0)
(1.17311 0.197465 0)
(1.15469 0.205848 0)
(1.1353 0.212313 0)
(1.1152 0.216791 0)
(1.0946 0.219254 0)
(1.07374 0.219704 0)
(1.05279 0.218165 0)
(1.03193 0.214674 0)
(1.01129 0.209269 0)
(0.991008 0.201982 0)
(0.97118 0.192834 0)
(0.951913 0.181829 0)
(0.933314 0.168945 0)
(0.915513 0.154141 0)
(0.89864 0.137375 0)
(0.882841 0.118583 0)
(0.868376 0.0976123 0)
(0.855682 0.0742826 0)
(0.845113 0.0486958 0)
(0.836463 0.0215493 0)
(0.828894 -0.00598924 0)
(0.821626 -0.0329259 0)
(0.814871 -0.0590033 0)
(0.810121 -0.0847407 0)
(0.809517 -0.110948 0)
(0.814788 -0.138207 0)
(0.826558 -0.166698 0)
(0.844437 -0.196245 0)
(0.867737 -0.226232 0)
(0.896191 -0.255274 0)
(0.929938 -0.281095 0)
(0.96873 -0.30097 0)
(1.01139 -0.311936 0)
(1.05652 -0.309461 0)
(1.10391 -0.285764 0)
(1.15381 -0.232389 0)
(1.20306 -0.148466 0)
(1.24298 -0.0462504 0)
(1.26424 0.0543832 0)
(1.26333 0.137089 0)
(1.24359 0.195185 0)
(1.21183 0.230291 0)
(1.17458 0.247913 0)
(1.13634 0.253798 0)
(1.09957 0.252216 0)
(1.06531 0.245878 0)
(1.03354 0.236482 0)
(1.25243 0.0679497 0)
(1.24975 0.0822414 0)
(1.24543 0.0968529 0)
(1.23937 0.111532 0)
(1.23149 0.126005 0)
(1.22179 0.139985 0)
(1.21032 0.153191 0)
(1.19718 0.165361 0)
(1.18251 0.176258 0)
(1.16649 0.185683 0)
(1.14933 0.193476 0)
(1.13124 0.199521 0)
(1.11244 0.203741 0)
(1.09315 0.206092 0)
(1.07355 0.206561 0)
(1.05384 0.205155 0)
(1.03417 0.201892 0)
(1.01468 0.196795 0)
(0.995504 0.189885 0)
(0.976759 0.181176 0)
(0.958555 0.170668 0)
(0.941012 0.158345 0)
(0.924264 0.144174 0)
(0.908463 0.128115 0)
(0.893769 0.110127 0)
(0.880404 0.0901282 0)
(0.868741 0.0679891 0)
(0.859222 0.0436915 0)
(0.851989 0.017624 0)
(0.846574 -0.00930268 0)
(0.842109 -0.0359765 0)
(0.838045 -0.0616358 0)
(0.834796 -0.0862374 0)
(0.833724 -0.110362 0)
(0.836521 -0.134818 0)
(0.844481 -0.160244 0)
(0.858232 -0.186813 0)
(0.87799 -0.213973 0)
(0.90391 -0.240263 0)
(0.935995 -0.263507 0)
(0.973638 -0.281296 0)
(1.01561 -0.290811 0)
(1.06105 -0.287174 0)
(1.11028 -0.262331 0)
(1.16282 -0.208847 0)
(1.21338 -0.127969 0)
(1.25193 -0.0328632 0)
(1.26998 0.0582781 0)
(1.26586 0.132007 0)
(1.24415 0.183669 0)
(1.2118 0.215331 0)
(1.17495 0.23186 0)
(1.13758 0.238075 0)
(1.10179 0.237499 0)
(1.06842 0.232349 0)
(1.03749 0.224039 0)
(1.24146 0.066299 0)
(1.23859 0.0794646 0)
(1.23425 0.0928783 0)
(1.22834 0.106324 0)
(1.22082 0.119565 0)
(1.21166 0.132354 0)
(1.20091 0.144446 0)
(1.18865 0.155607 0)
(1.17499 0.165625 0)
(1.16009 0.174317 0)
(1.14411 0.181531 0)
(1.12726 0.187152 0)
(1.10972 0.191097 0)
(1.09168 0.193314 0)
(1.07333 0.193776 0)
(1.05482 0.192473 0)
(1.03633 0.189412 0)
(1.01798 0.184602 0)
(0.999916 0.178056 0)
(0.982253 0.169778 0)
(0.965114 0.159769 0)
(0.948625 0.148017 0)
(0.932924 0.134495 0)
(0.918173 0.119172 0)
(0.904547 0.102019 0)
(0.892254 0.0830007 0)
(0.881599 0.0620509 0)
(0.873003 0.0391293 0)
(0.866802 0.0144201 0)
(0.862916 -0.0114766 0)
(0.860733 -0.0375892 0)
(0.859456 -0.0629465 0)
(0.858719 -0.0870344 0)
(0.85897 -0.110005 0)
(0.861353 -0.132526 0)
(0.867269 -0.155378 0)
(0.877991 -0.17897 0)
(0.894534 -0.202931 0)
(0.917586 -0.225975 0)
(0.947291 -0.246214 0)
(0.983046 -0.261535 0)
(1.02391 -0.269075 0)
(1.06961 -0.263539 0)
(1.12048 -0.237032 0)
(1.1745 -0.183793 0)
(1.22425 -0.10717 0)
(1.25937 -0.0204149 0)
(1.27306 0.0606607 0)
(1.26555 0.125542 0)
(1.24224 0.171229 0)
(1.20986 0.199888 0)
(1.1739 0.215602 0)
(1.1378 0.222264 0)
(1.10328 0.222713 0)
(1.07102 0.218744 0)
(1.04108 0.211523 0)
(1.23088 0.0643968 0)
(1.22786 0.0765187 0)
(1.22353 0.0888262 0)
(1.21781 0.101134 0)
(1.21063 0.113237 0)
(1.202 0.124922 0)
(1.19193 0.135975 0)
(1.18049 0.146189 0)
(1.16778 0.155375 0)
(1.15393 0.163363 0)
(1.13908 0.170013 0)
(1.12341 0.175212 0)
(1.10707 0.178873 0)
(1.09024 0.180937 0)
(1.07308 0.181368 0)
(1.05576 0.180146 0)
(1.03842 0.177264 0)
(1.0212 0.172723 0)
(1.00424 0.166526 0)
(0.987652 0.158674 0)
(0.971572 0.149165 0)
(0.956127 0.137989 0)
(0.941462 0.12513 0)
(0.927739 0.110564 0)
(0.915141 0.0942729 0)
(0.903873 0.0762466 0)
(0.894196 0.0564716 0)
(0.886468 0.0349364 0)
(0.881076 0.0117276 0)
(0.878207 -0.0127992 0)
(0.877616 -0.0379265 0)
(0.878653 -0.0627339 0)
(0.880638 -0.0864652 0)
(0.883324 -0.108865 0)
(0.887141 -0.130245 0)
(0.893126 -0.151219 0)
(0.902668 -0.172212 0)
(0.917206 -0.193009 0)
(0.937864 -0.212623 0)
(0.965104 -0.229559 0)
(0.998667 -0.241967 0)
(1.03817 -0.246843 0)
(1.08378 -0.238684 0)
(1.13515 -0.210371 0)
(1.18835 -0.158229 0)
(1.23457 -0.0872255 0)
(1.26428 -0.00976942 0)
(1.27286 0.0611572 0)
(1.26216 0.117709 0)
(1.23786 0.15807 0)
(1.20608 0.184206 0)
(1.17153 0.199351 0)
(1.13706 0.206529 0)
(1.10406 0.207981 0)
(1.0731 0.205152 0)
(1.04428 0.199003 0)
(1.2207 0.0622777 0)
(1.21759 0.0734315 0)
(1.21331 0.0847168 0)
(1.20777 0.0959736 0)
(1.20094 0.107026 0)
(1.1928 0.117689 0)
(1.18338 0.127776 0)
(1.17272 0.137103 0)
(1.1609 0.145502 0)
(1.14804 0.152819 0)
(1.13426 0.158923 0)
(1.11969 0.163703 0)
(1.1045 0.167075 0)
(1.08883 0.168974 0)
(1.07284 0.169357 0)
(1.05666 0.168196 0)
(1.04045 0.165475 0)
(1.02434 0.161186 0)
(1.00847 0.155327 0)
(0.992944 0.147893 0)
(0.977909 0.138883 0)
(0.963496 0.128288 0)
(0.949848 0.116099 0)
(0.937126 0.102304 0)
(0.925516 0.0868936 0)
(0.91522 0.0698734 0)
(0.906475 0.0512614 0)
(0.899579 0.0310861 0)
(0.89489 0.00941155 0)
(0.892714 -0.0135467 0)
(0.893101 -0.0373118 0)
(0.895718 -0.0611516 0)
(0.899958 -0.0842959 0)
(0.905281 -0.106243 0)
(0.911568 -0.126934 0)
(0.919321 -0.146641 0)
(0.929624 -0.165595 0)
(0.943875 -0.183613 0)
(0.963345 -0.199972 0)
(0.988782 -0.21355 0)
(1.02042 -0.222695 0)
(1.05845 -0.224329 0)
(1.10311 -0.213169 0)
(1.15293 -0.183458 0)
(1.20237 -0.13361 0)
(1.24246 -0.069405 0)
(1.26545 -0.00163152 0)
(1.2689 0.0596205 0)
(1.25568 0.108698 0)
(1.23117 0.144494 0)
(1.20066 0.168569 0)
(1.16797 0.18333 0)
(1.13543 0.191036 0)
(1.10417 0.193425 0)
(1.07469 0.191663 0)
(1.0471 0.186546 0)
(1.21095 0.0599732 0)
(1.20779 0.0702285 0)
(1.20357 0.0805685 0)
(1.19824 0.0908554 0)
(1.19175 0.100938 0)
(1.18409 0.110654 0)
(1.17527 0.119843 0)
(1.16534 0.128342 0)
(1.15436 0.136001 0)
(1.14242 0.14268 0)
(1.12964 0.148257 0)
(1.11613 0.152629 0)
(1.10203 0.155711 0)
(1.08747 0.157438 0)
(1.0726 0.15776 0)
(1.05754 0.156645 0)
(1.04243 0.154068 0)
(1.0274 0.150018 0)
(1.01259 0.144485 0)
(0.998114 0.137463 0)
(0.984108 0.128949 0)
(0.970705 0.118937 0)
(0.95805 0.107424 0)
(0.946301 0.0944063 0)
(0.935638 0.0798869 0)
(0.926261 0.0638809 0)
(0.91839 0.0464255 0)
(0.912283 0.0275745 0)
(0.908244 0.00741107 0)
(0.906593 -0.0139124 0)
(0.907545 -0.0360799 0)
(0.91105 -0.058562 0)
(0.916763 -0.0807083 0)
(0.92419 -0.101952 0)
(0.932984 -0.121979 0)
(0.943227 -0.140715 0)
(0.955545 -0.158099 0)
(0.970976 -0.173852 0)
(0.990613 -0.187389 0)
(1.01529 -0.197828 0)
(1.04558 -0.203646 0)
(1.08202 -0.201874 0)
(1.12448 -0.187933 0)
(1.17039 -0.157755 0)
(1.21352 -0.111427 0)
(1.2459 -0.0546993 0)
(1.26199 0.0036865 0)
(1.26107 0.056221 0)
(1.24635 0.0988769 0)
(1.22252 0.130871 0)
(1.19386 0.153269 0)
(1.16341 0.167747 0)
(1.13303 0.175935 0)
(1.10368 0.179158 0)
(1.07579 0.178365 0)
(1.04955 0.174218 0)
(1.20163 0.0575123 0)
(1.19846 0.0669327 0)
(1.19433 0.0763981 0)
(1.18921 0.0857893 0)
(1.18305 0.0949754 0)
(1.17584 0.103817 0)
(1.1676 0.112172 0)
(1.15835 0.119899 0)
(1.14816 0.126863 0)
(1.13709 0.132938 0)
(1.12525 0.138013 0)
(1.11274 0.14199 0)
(1.09967 0.144786 0)
(1.08617 0.146337 0)
(1.07237 0.14659 0)
(1.05838 0.145509 0)
(1.04434 0.143065 0)
(1.03037 0.139241 0)
(1.0166 0.134024 0)
(1.00315 0.127407 0)
(0.990146 0.119385 0)
(0.977729 0.109956 0)
(0.966038 0.0991203 0)
(0.955229 0.0868834 0)
(0.945473 0.073257 0)
(0.936961 0.0582663 0)
(0.929904 0.0419586 0)
(0.924528 0.0244048 0)
(0.921095 0.00570562 0)
(0.919894 -0.0140004 0)
(0.921185 -0.0344799 0)
(0.925096 -0.0553535 0)
(0.931535 -0.0761191 0)
(0.940218 -0.0962579 0)
(0.950832 -0.115346 0)
(0.963272 -0.133062 0)
(0.977795 -0.149088 0)
(0.994992 -0.162991 0)
(1.01559 -0.174199 0)
(1.04027 -0.181915 0)
(1.06967 -0.184703 0)
(1.10422 -0.179922 0)
(1.14323 -0.164022 0)
(1.18345 -0.134571 0)
(1.21897 -0.0926935 0)
(1.24357 -0.0434818 0)
(1.25373 0.00638063 0)
(1.24978 0.0514334 0)
(1.23473 0.0887371 0)
(1.21236 0.117587 0)
(1.18601 0.138576 0)
(1.15805 0.152787 0)
(1.12998 0.161356 0)
(1.10263 0.165284 0)
(1.07644 0.16534 0)
(1.05162 0.162084 0)
(1.19274 0.0549218 0)
(1.18958 0.0635659 0)
(1.18557 0.0722214 0)
(1.18065 0.0807853 0)
(1.17482 0.0891441 0)
(1.16804 0.097177 0)
(1.16034 0.10476 0)
(1.15174 0.111768 0)
(1.14228 0.118083 0)
(1.13204 0.12359 0)
(1.12108 0.128188 0)
(1.10951 0.131785 0)
(1.09743 0.134304 0)
(1.08494 0.135679 0)
(1.07216 0.13586 0)
(1.0592 0.134805 0)
(1.04619 0.132484 0)
(1.03325 0.128876 0)
(1.02048 0.123967 0)
(1.00803 0.117747 0)
(0.996005 0.110213 0)
(0.984543 0.101363 0)
(0.973784 0.091203 0)
(0.963876 0.0797442 0)
(0.954984 0.0670067 0)
(0.947287 0.0530245 0)
(0.940982 0.0378509 0)
(0.936277 0.0215695 0)
(0.933399 0.00428551 0)
(0.932598 -0.0138566 0)
(0.934124 -0.0326563 0)
(0.938172 -0.0518214 0)
(0.944812 -0.0709658 0)
(0.953966 -0.089653 0)
(0.965473 -0.107444 0)
(0.979223 -0.123903 0)
(0.995272 -0.138545 0)
(1.01386 -0.150816 0)
(1.03534 -0.160094 0)
(1.0601 -0.165575 0)
(1.08856 -0.165918 0)
(1.12075 -0.158963 0)
(1.15546 -0.142253 0)
(1.18933 -0.114623 0)
(1.21747 -0.0776369 0)
(1.23549 -0.0354222 0)
(1.24139 0.00708529 0)
(1.23591 0.0459055 0)
(1.22156 0.078782 0)
(1.20123 0.104979 0)
(1.17746 0.124704 0)
(1.1521 0.13859 0)
(1.12639 0.147404 0)
(1.10111 0.151888 0)
(1.07666 0.152664 0)
(1.05333 0.150206 0)
(1.18425 0.0522274 0)
(1.18113 0.0601491 0)
(1.17724 0.0680543 0)
(1.17255 0.0758538 0)
(1.16703 0.0834489 0)
(1.16068 0.090735 0)
(1.15349 0.0976034 0)
(1.14549 0.103945 0)
(1.13673 0.109655 0)
(1.12725 0.11463 0)
(1.11713 0.118778 0)
(1.10645 0.122014 0)
(1.09529 0.124266 0)
(1.08376 0.125471 0)
(1.07196 0.125578 0)
(1.06 0.124544 0)
(1.04798 0.12234 0)
(1.03602 0.118941 0)
(1.02424 0.114331 0)
(1.01274 0.108501 0)
(1.00166 0.101448 0)
(0.991123 0.0931718 0)
(0.981258 0.0836821 0)
(0.972211 0.072995 0)
(0.964137 0.0611372 0)
(0.957204 0.048149 0)
(0.951594 0.0340912 0)
(0.947498 0.019049 0)
(0.945118 0.00313554 0)
(0.94467 -0.0135044 0)
(0.946373 -0.0306804 0)
(0.950427 -0.0481433 0)
(0.956974 -0.0655781 0)
(0.966064 -0.0826168 0)
(0.977675 -0.0988485 0)
(0.991763 -0.113808 0)
(1.00832 -0.126951 0)
(1.02737 -0.137668 0)
(1.049 -0.145289 0)
(1.0733 -0.148997 0)
(1.10032 -0.147596 0)
(1.12966 -0.139447 0)
(1.15979 -0.123015 0)
(1.18772 -0.0979321 0)
(1.20975 -0.0657843 0)
(1.22298 -0.029737 0)
(1.22633 0.00660313 0)
(1.22058 0.0402651 0)
(1.20763 0.0694206 0)
(1.18964 0.0932871 0)
(1.16852 0.111791 0)
(1.14575 0.12525 0)
(1.1224 0.134153 0)
(1.09917 0.139039 0)
(1.07651 0.140403 0)
(1.05471 0.138644 0)
(1.17614 0.0494542 0)
(1.17309 0.0567031 0)
(1.16934 0.063913 0)
(1.16488 0.071006 0)
(1.15967 0.0778967 0)
(1.15371 0.0844937 0)
(1.14701 0.0907025 0)
(1.13959 0.0964275 0)
(1.13148 0.101575 0)
(1.12273 0.106054 0)
(1.11339 0.10978 0)
(1.10355 0.112677 0)
(1.09327 0.114676 0)
(1.08265 0.115717 0)
(1.07179 0.115752 0)
(1.06077 0.114738 0)
(1.0497 0.112645 0)
(1.03869 0.109448 0)
(1.02784 0.105131 0)
(1.01727 0.0996835 0)
(1.0071 0.0931031 0)
(0.997446 0.0853931 0)
(0.988435 0.0765649 0)
(0.980206 0.0666387 0)
(0.972903 0.0556462 0)
(0.966683 0.0436331 0)
(0.961712 0.0306638 0)
(0.958165 0.0168261 0)
(0.956223 0.00223486 0)
(0.956074 -0.0129649 0)
(0.957908 -0.0285899 0)
(0.961905 -0.0444122 0)
(0.968217 -0.0601552 0)
(0.976948 -0.0754954 0)
(0.988152 -0.0900563 0)
(1.00184 -0.10339 0)
(1.018 -0.114963 0)
(1.03657 -0.124166 0)
(1.05745 -0.130331 0)
(1.0805 -0.13267 0)
(1.10548 -0.130174 0)
(1.13164 -0.121671 0)
(1.15741 -0.106274 0)
(1.18036 -0.0840328 0)
(1.19784 -0.0563322 0)
(1.20795 -0.0255549 0)
(1.21007 0.00564175 0)
(1.20484 0.0349748 0)
(1.19362 0.0609075 0)
(1.178 0.0826364 0)
(1.15945 0.0999075 0)
(1.13918 0.112817 0)
(1.11811 0.121653 0)
(1.0969 0.126791 0)
(1.07601 0.128614 0)
(1.05575 0.127453 0)
(1.1684 0.0466266 0)
(1.16543 0.0532489 0)
(1.16184 0.059814 0)
(1.15761 0.0662542 0)
(1.15271 0.072495 0)
(1.14714 0.078457 0)
(1.1409 0.0840576 0)
(1.13402 0.089213 0)
(1.12653 0.0938401 0)
(1.11846 0.0978585 0)
(1.10987 0.101192 0)
(1.10081 0.103772 0)
(1.09137 0.105533 0)
(1.08161 0.106421 0)
(1.07162 0.106388 0)
(1.0615 0.105395 0)
(1.05134 0.10341 0)
(1.04124 0.10041 0)
(1.03129 0.0963776 0)
(1.02161 0.0913045 0)
(1.01231 0.0851881 0)
(1.00349 0.0780337 0)
(0.995293 0.0698549 0)
(0.987834 0.0606751 0)
(0.981254 0.0505292 0)
(0.975694 0.0394668 0)
(0.971308 0.0275544 0)
(0.968253 0.0148819 0)
(0.966692 0.00156262 0)
(0.966789 -0.012262 0)
(0.968708 -0.0264139 0)
(0.972603 -0.0406793 0)
(0.978613 -0.0548045 0)
(0.986846 -0.0684935 0)
(0.99738 -0.0814007 0)
(1.01025 -0.093112 0)
(1.02543 -0.103135 0)
(1.04282 -0.110904 0)
(1.06225 -0.115797 0)
(1.08344 -0.117104 0)
(1.10593 -0.114016 0)
(1.12884 -0.105725 0)
(1.15076 -0.091747 0)
(1.16977 -0.0723052 0)
(1.18401 -0.0485262 0)
(1.19217 -0.0221991 0)
(1.19384 0.00466676 0)
(1.18947 0.0302841 0)
(1.18 0.0533436 0)
(1.16662 0.0730551 0)
(1.15046 0.0890597 0)
(1.13252 0.101305 0)
(1.11361 0.109931 0)
(1.09436 0.115183 0)
(1.0752 0.117344 0)
(1.0565 0.116681 0)
(1.16102 0.0437683 0)
(1.15815 0.0498066 0)
(1.15473 0.0557739 0)
(1.15072 0.0616109 0)
(1.14612 0.0672526 0)
(1.14093 0.0726298 0)
(1.13514 0.0776705 0)
(1.12878 0.0823012 0)
(1.12186 0.0864486 0)
(1.11443 0.0900415 0)
(1.10654 0.0930119 0)
(1.09823 0.0952964 0)
(1.08956 0.0968371 0)
(1.08062 0.0975828 0)
(1.07148 0.0974888 0)
(1.06221 0.096518 0)
(1.05291 0.0946401 0)
(1.04367 0.0918323 0)
(1.03458 0.0880788 0)
(1.02574 0.0833712 0)
(1.01726 0.0777083 0)
(1.00924 0.0710969 0)
(1.00181 0.0635524 0)
(0.995075 0.0551005 0)
(0.989167 0.0457785 0)
(0.984216 0.0356376 0)
(0.980361 0.0247466 0)
(0.977743 0.013193 0)
(0.976509 0.00108942 0)
(0.9768 -0.0114246 0)
(0.978757 -0.0241828 0)
(0.982511 -0.0369826 0)
(0.988179 -0.0495871 0)
(0.995856 -0.0617218 0)
(1.00561 -0.0730679 0)
(1.01746 -0.0832491 0)
(1.03138 -0.0918244 0)
(1.04725 -0.0982925 0)
(1.06486 -0.102101 0)
(1.08386 -0.10265 0)
(1.1037 -0.0993125 0)
(1.12353 -0.0915422 0)
(1.14214 -0.0790868 0)
(1.15807 -0.0622206 0)
(1.16995 -0.041835 0)
(1.17683 -0.0192809 0)
(1.1784 0.00389275 0)
(1.17493 0.026264 0)
(1.16706 0.0467167 0)
(1.15568 0.064504 0)
(1.14168 0.0792157 0)
(1.12589 0.0907026 0)
(1.109 0.0989968 0)
(1.09161 0.10424 0)
(1.07415 0.10663 0)
(1.05696 0.106372 0)
(1.15398 0.0409016 0)
(1.15123 0.0463958 0)
(1.14798 0.0518088 0)
(1.14421 0.0570884 0)
(1.13991 0.0621781 0)
(1.13507 0.0670175 0)
(1.12971 0.0715437 0)
(1.12383 0.0756922 0)
(1.11747 0.0793987 0)
(1.11064 0.0826002 0)
(1.1034 0.0852359 0)
(1.09579 0.0872491 0)
(1.08787 0.0885871 0)
(1.07969 0.0892032 0)
(1.07134 0.089056 0)
(1.06288 0.0881107 0)
(1.05439 0.0863392 0)
(1.04597 0.08372 0)
(1.03769 0.0802383 0)
(1.02965 0.0758868 0)
(1.02195 0.0706655 0)
(1.01468 0.0645823 0)
(1.00797 0.0576543 0)
(1.00191 0.0499084 0)
(0.996624 0.0413834 0)
(0.99223 0.0321314 0)
(0.988855 0.0222211 0)
(0.986623 0.0117385 0)
(0.985661 0.000793133 0)
(0.986096 -0.0104816 0)
(0.988049 -0.0219281 0)
(0.991628 -0.0333565 0)
(0.996926 -0.0445462 0)
(1.00402 -0.0552428 0)
(1.01295 -0.0651539 0)
(1.02373 -0.073941 0)
(1.03631 -0.081216 0)
(1.05055 -0.0865445 0)
(1.06623 -0.0894575 0)
(1.08297 -0.0894646 0)
(1.10025 -0.0860948 0)
(1.1173 -0.0789793 0)
(1.1331 -0.0679977 0)
(1.14655 -0.0534212 0)
(1.15661 -0.0359439 0)
(1.16256 -0.0166147 0)
(1.16412 0.00337551 0)
(1.16143 0.0228806 0)
(1.15495 0.0409525 0)
(1.1453 0.0569071 0)
(1.13321 0.0703196 0)
(1.11936 0.0809814 0)
(1.10435 0.0888465 0)
(1.08872 0.0939763 0)
(1.07288 0.0964973 0)
(1.05718 0.0965601 0)
(1.14728 0.0380474 0)
(1.14466 0.0430348 0)
(1.14159 0.0479338 0)
(1.13805 0.0526989 0)
(1.13404 0.0572804 0)
(1.12955 0.0616256 0)
(1.1246 0.0656797 0)
(1.11918 0.0693862 0)
(1.11334 0.0726887 0)
(1.10708 0.0755316 0)
(1.10046 0.077861 0)
(1.0935 0.0796262 0)
(1.08627 0.0807799 0)
(1.07882 0.0812796 0)
(1.07121 0.0810878 0)
(1.06351 0.0801723 0)
(1.05579 0.0785074 0)
(1.04813 0.0760731 0)
(1.04062 0.0728563 0)
(1.03333 0.0688508 0)
(1.02636 0.0640577 0)
(1.0198 0.0584861 0)
(1.01376 0.0521539 0)
(1.00832 0.045089 0)
(1.00361 0.0373307 0)
(0.999723 0.0289311 0)
(0.996775 0.0199575 0)
(0.994878 0.0104949 0)
(0.994144 0.00064705 0)
(0.994681 -0.00946277 0)
(0.99659 -0.0196818 0)
(0.999961 -0.0298348 0)
(1.00487 -0.0397179 0)
(1.01137 -0.0490979 0)
(1.01948 -0.0577094 0)
(1.02919 -0.0652511 0)
(1.04044 -0.0713853 0)
(1.05308 -0.0757426 0)
(1.06688 -0.0779335 0)
(1.08149 -0.0775687 0)
(1.09642 -0.0742984 0)
(1.111 -0.067875 0)
(1.12442 -0.0582557 0)
(1.13582 -0.0456818 0)
(1.14439 -0.0307004 0)
(1.14957 -0.0141337 0)
(1.15111 0.00309104 0)
(1.14905 0.0200525 0)
(1.1437 0.0359514 0)
(1.13555 0.0501742 0)
(1.12513 0.0623047 0)
(1.11302 0.0721016 0)
(1.09973 0.0794657 0)
(1.08574 0.0843974 0)
(1.07145 0.0869653 0)
(1.05718 0.0872711 0)
(1.14092 0.035225 0)
(1.13844 0.0397405 0)
(1.13555 0.0441634 0)
(1.13224 0.0484535 0)
(1.12851 0.0525674 0)
(1.12436 0.0564592 0)
(1.11979 0.0600809 0)
(1.11482 0.0633832 0)
(1.10946 0.0663167 0)
(1.10374 0.0688324 0)
(1.09769 0.070883 0)
(1.09136 0.0724231 0)
(1.08477 0.0734108 0)
(1.078 0.0738079 0)
(1.07109 0.0735804 0)
(1.0641 0.0726994 0)
(1.0571 0.0711415 0)
(1.05016 0.0688887 0)
(1.04336 0.0659295 0)
(1.03678 0.062259 0)
(1.03049 0.0578795 0)
(1.02459 0.0528007 0)
(1.01917 0.0470414 0)
(1.01431 0.0406298 0)
(1.01012 0.0336048 0)
(1.00669 0.0260178 0)
(1.00412 0.0179339 0)
(1.00251 0.00943424 0)
(1.00196 0.000616513 0)
(1.00256 -0.00839947 0)
(1.00439 -0.0174754 0)
(1.00753 -0.026449 0)
(1.01203 -0.0351337 0)
(1.01793 -0.0433178 0)
(1.02524 -0.0507635 0)
(1.03392 -0.0572056 0)
(1.0439 -0.0623533 0)
(1.05503 -0.0658965 0)
(1.06709 -0.067517 0)
(1.07975 -0.0669106 0)
(1.09257 -0.0638184 0)
(1.10501 -0.0580786 0)
(1.11639 -0.0496884 0)
(1.12605 -0.0388591 0)
(1.13337 -0.0260325 0)
(1.13787 -0.011839 0)
(1.13933 0.00297985 0)
(1.13775 0.0176858 0)
(1.13334 0.0316106 0)
(1.12644 0.0442129 0)
(1.11747 0.0550998 0)
(1.10691 0.0640174 0)
(1.09519 0.0708319 0)
(1.08273 0.0754994 0)
(1.06989 0.0780432 0)
(1.05699 0.0785239 0)
(1.13489 0.0324517 0)
(1.13255 0.0365284 0)
(1.12985 0.0405104 0)
(1.12677 0.0443624 0)
(1.12331 0.0480466 0)
(1.11948 0.0515228 0)
(1.11528 0.0547491 0)
(1.11073 0.0576827 0)
(1.10583 0.0602801 0)
(1.10061 0.0624986 0)
(1.0951 0.0642965 0)
(1.08934 0.065634 0)
(1.08337 0.0664737 0)
(1.07722 0.0667816 0)
(1.07096 0.0665276 0)
(1.06464 0.0656859 0)
(1.05831 0.0642354 0)
(1.05204 0.0621604 0)
(1.04591 0.0594511 0)
(1.03998 0.0561039 0)
(1.03433 0.0521219 0)
(1.02904 0.0475158 0)
(1.02419 0.0423044 0)
(1.01986 0.0365157 0)
(1.01614 0.0301881 0)
(1.01312 0.0233711 0)
(1.01088 0.0161271 0)
(1.00952 0.0085329 0)
(1.00911 0.000680436 0)
(1.00974 -0.00731867 0)
(1.01147 -0.0153375 0)
(1.01436 -0.0232277 0)
(1.01845 -0.0308203 0)
(1.02376 -0.0379256 0)
(1.03029 -0.044333 0)
(1.038 -0.0498118 0)
(1.04679 -0.0541142 0)
(1.05652 -0.0569822 0)
(1.06699 -0.0581591 0)
(1.0779 -0.0574089 0)
(1.08887 -0.0545414 0)
(1.09944 -0.0494528 0)
(1.10908 -0.042163 0)
(1.11726 -0.0328556 0)
(1.12348 -0.0218841 0)
(1.12737 -0.00974096 0)
(1.12872 0.00298395 0)
(1.1275 0.0156947 0)
(1.12383 0.0278355 0)
(1.11798 0.0389358 0)
(1.11028 0.0486345 0)
(1.10109 0.0566788 0)
(1.09078 0.0629158 0)
(1.07973 0.0672708 0)
(1.06825 0.0697328 0)
(1.05664 0.0703293 0)
(1.12919 0.0297433 0)
(1.127 0.0334119 0)
(1.12448 0.036986 0)
(1.12163 0.0404345 0)
(1.11844 0.0437241 0)
(1.11491 0.0468199 0)
(1.11106 0.0496854 0)
(1.1069 0.0522832 0)
(1.10243 0.0545756 0)
(1.09768 0.0565251 0)
(1.09268 0.0580953 0)
(1.08746 0.0592513 0)
(1.08205 0.0599603 0)
(1.07649 0.0601924 0)
(1.07083 0.0599208 0)
(1.06512 0.0591228 0)
(1.05942 0.05778 0)
(1.05378 0.0558789 0)
(1.04827 0.0534112 0)
(1.04294 0.0503746 0)
(1.03788 0.0467731 0)
(1.03315 0.0426178 0)
(1.02882 0.0379276 0)
(1.02497 0.0327298 0)
(1.02168 0.0270613 0)
(1.01902 0.0209698 0)
(1.01708 0.0145141 0)
(1.01592 0.00776626 0)
(1.01562 0.000812607 0)
(1.01624 -0.00624691 0)
(1.01784 -0.013294 0)
(1.02047 -0.0201951 0)
(1.02415 -0.0267988 0)
(1.0289 -0.0329371 0)
(1.03468 -0.0384256 0)
(1.04147 -0.0430657 0)
(1.04916 -0.0466482 0)
(1.05762 -0.0489605 0)
(1.06665 -0.0497971 0)
(1.07601 -0.0489754 0)
(1.08536 -0.0463576 0)
(1.09432 -0.0418773 0)
(1.10247 -0.0355685 0)
(1.10937 -0.027587 0)
(1.11464 -0.0182156 0)
(1.11797 -0.00784935 0)
(1.11918 0.00305319 0)
(1.11821 0.014004 0)
(1.11516 0.0245414 0)
(1.11019 0.0342618 0)
(1.10356 0.0428401 0)
(1.09558 0.0500343 0)
(1.08655 0.0556834 0)
(1.07678 0.0596936 0)
(1.06656 0.0620288 0)
(1.05617 0.0626913 0)
(1.12381 0.0271131 0)
(1.12177 0.030403 0)
(1.11944 0.0336001 0)
(1.1168 0.036677 0)
(1.11387 0.0396048 0)
(1.11064 0.0423529 0)
(1.10712 0.0448896 0)
(1.10332 0.0471824 0)
(1.09926 0.0491985 0)
(1.09495 0.0509055 0)
(1.09042 0.0522716 0)
(1.08569 0.0532663 0)
(1.0808 0.053861 0)
(1.07579 0.0540296 0)
(1.07069 0.0537488 0)
(1.06556 0.0529987 0)
(1.06043 0.0517635 0)
(1.05537 0.0500317 0)
(1.05043 0.0477967 0)
(1.04566 0.0450572 0)
(1.04113 0.0418181 0)
(1.03691 0.0380907 0)
(1.03306 0.0338935 0)
(1.02964 0.0292529 0)
(1.02673 0.0242042 0)
(1.0244 0.018792 0)
(1.02271 0.0130717 0)
(1.02172 0.00711014 0)
(1.02149 0.000986281 0)
(1.02209 -0.00520846 0)
(1.02355 -0.0113675 0)
(1.02591 -0.0173709 0)
(1.02919 -0.0230846 0)
(1.03339 -0.0283612 0)
(1.03848 -0.0330411 0)
(1.04441 -0.0369548 0)
(1.05109 -0.0399274 0)
(1.05839 -0.0417848 0)
(1.06615 -0.0423635 0)
(1.07413 -0.0415232 0)
(1.08206 -0.039164 0)
(1.08964 -0.0352454 0)
(1.0965 -0.0298063 0)
(1.10231 -0.02298 0)
(1.10675 -0.0149921 0)
(1.10957 -0.00615891 0)
(1.11062 0.00315415 0)
(1.10984 0.0125529 0)
(1.10726 0.0216556 0)
(1.10303 0.0301178 0)
(1.09734 0.0376516 0)
(1.09041 0.0440314 0)
(1.08252 0.0490971 0)
(1.07392 0.052744 0)
(1.06486 0.0549195 0)
(1.0556 0.0556069 0)
(1.11877 0.0245728 0)
(1.11687 0.0275114 0)
(1.11471 0.0303603 0)
(1.11229 0.0330955 0)
(1.1096 0.0356918 0)
(1.10665 0.0381224 0)
(1.10344 0.04036 0)
(1.09999 0.0423764 0)
(1.0963 0.0441431 0)
(1.0924 0.0456322 0)
(1.08831 0.0468159 0)
(1.08404 0.0476681 0)
(1.07964 0.0481639 0)
(1.07513 0.0482806 0)
(1.07055 0.0479982 0)
(1.06594 0.0472996 0)
(1.06134 0.0461713 0)
(1.05681 0.0446037 0)
(1.05239 0.0425917 0)
(1.04813 0.0401353 0)
(1.04409 0.0372396 0)
(1.04033 0.0339162 0)
(1.03691 0.0301828 0)
(1.03389 0.0260648 0)
(1.03132 0.0215951 0)
(1.02927 0.0168156 0)
(1.02779 0.0117773 0)
(1.02694 0.00654142 0)
(1.02676 0.00118001 0)
(1.02732 -0.00422419 0)
(1.02863 -0.00957625 0)
(1.03072 -0.0147698 0)
(1.03361 -0.0196872 0)
(1.03729 -0.0242003 0)
(1.04173 -0.0281721 0)
(1.04687 -0.0314596 0)
(1.05263 -0.0339176 0)
(1.0589 -0.0354043 0)
(1.06552 -0.0357904 0)
(1.07229 -0.0349683 0)
(1.079 -0.032866 0)
(1.08537 -0.0294602 0)
(1.09112 -0.0247911 0)
(1.09599 -0.01897 0)
(1.09971 -0.0121829 0)
(1.10208 -0.00467494 0)
(1.10296 0.00325504 0)
(1.1023 0.0112895 0)
(1.10012 0.0191143 0)
(1.09651 0.0264376 0)
(1.09161 0.0330074 0)
(1.08561 0.0386183 0)
(1.07872 0.0431164 0)
(1.07117 0.0463937 0)
(1.06317 0.0483874 0)
(1.05496 0.049067 0)
(1.11404 0.0221318 0)
(1.11229 0.024745 0)
(1.11031 0.0272726 0)
(1.10809 0.0296939 0)
(1.10563 0.0319866 0)
(1.10294 0.0341278 0)
(1.10002 0.0360937 0)
(1.09689 0.0378598 0)
(1.09356 0.0394019 0)
(1.09003 0.0406956 0)
(1.08634 0.0417173 0)
(1.0825 0.0424442 0)
(1.07854 0.0428551 0)
(1.07449 0.0429305 0)
(1.07038 0.0426533 0)
(1.06626 0.0420089 0)
(1.06215 0.0409861 0)
(1.05809 0.039577 0)
(1.05415 0.037778 0)
(1.05036 0.0355897 0)
(1.04676 0.033018 0)
(1.04343 0.0300738 0)
(1.04039 0.0267746 0)
(1.03771 0.0231437 0)
(1.03544 0.0192122 0)
(1.03364 0.0150184 0)
(1.03234 0.010609 0)
(1.0316 0.00603939 0)
(1.03146 0.00137433 0)
(1.03195 -0.00331149 0)
(1.03311 -0.00793462 0)
(1.03494 -0.0124017 0)
(1.03746 -0.0166103 0)
(1.04065 -0.0204502 0)
(1.04449 -0.0238052 0)
(1.04891 -0.026555 0)
(1.05384 -0.0285801 0)
(1.05919 -0.029766 0)
(1.0648 -0.0300105 0)
(1.07052 -0.0292316 0)
(1.07616 -0.0273771 0)
(1.08149 -0.0244367 0)
(1.0863 -0.0204474 0)
(1.09035 -0.0155015 0)
(1.09344 -0.009751 0)
(1.09541 -0.00339311 0)
(1.09613 0.00333348 0)
(1.09556 0.010172 0)
(1.09369 0.0168636 0)
(1.09059 0.0231622 0)
(1.08637 0.0288503 0)
(1.08117 0.0337438 0)
(1.07517 0.0376995 0)
(1.06856 0.0406106 0)
(1.06153 0.0424094 0)
(1.05427 0.043057 0)
(1.10964 0.0197972 0)
(1.10803 0.0221092 0)
(1.10621 0.0243407 0)
(1.10418 0.0264737 0)
(1.10194 0.0284888 0)
(1.0995 0.0303663 0)
(1.09686 0.0320855 0)
(1.09402 0.0336256 0)