/*--------------------------------*- C++ -*----------------------------------*\
  =========                 |
  \\      /  F ield         | OpenFOAM: The Open Source CFD Toolbox
   \\    /   O peration     | Website:  https://openfoam.org
    \\  /    A nd           | Version:  7
     \\/     M anipulation  |
\*---------------------------------------------------------------------------*/
FoamFile
{
    version     2.0;
    format      ascii;
    class       volScalarField;
    location    "6";
    object      p;
}
// * * * * * * * * * * * * * * * * * * * * * * * * * * * * * * * * * * * * * //

dimensions      [1 -1 -2 0 0 0 0];

internalField   nonuniform List<scalar> 
4032
(
1
1
1
1
1
1
1
1
1
1
1
1.33064
7.59333
10.6071
10.7391
10.9475
11.133
11.3103
11.4734
11.6201
11.7507
11.8562
11.9367
11.996
1
1
1
1
1
1
1
1
1
1
1
1.29158
7.4293
10.5734
10.7265
10.929
11.1107
11.2834
11.4413
11.5813
11.7039
11.8013
11.8729
11.929
1
1
1
1
1
1
1
1
1
1
1
1.18792
7.12844
10.5448
10.6853
10.8862
11.068
11.2391
11.3942
11.5289
11.6437
11.7322
11.7901
11.8377
1
1
1
1
1
1
1
1
1
1
1
1.01664
6.62804
10.4939
10.6325
10.8196
10.9912
11.1503
11.296
11.4243
11.5355
11.6202
11.669
11.7061
1
1
1
1
1
1
1
1
1
1
1
1.0002
5.95457
10.3165
10.4989
10.6833
10.8586
11.016
11.1556
11.2706
11.3604
11.4267
11.4607
11.5089
1
1
1
1
1
1
1
1
1
1
1
0.999999
5.10953
10.0853
10.3878
10.5568
10.7239
10.8634
10.9824
11.0806
11.159
11.2186
11.2299
11.1894
1
1
1
1
1
1
1
1
1
1
1
1
4.14019
9.73052
10.2712
10.428
10.5724
10.6816
10.7652
10.8249
10.8455
10.8085
10.7392
10.6958
1
1
1
1
1
1
1
1
1
1
1
1
3.09313
9.18075
10.1841
10.3214
10.4357
10.5091
10.543
10.5468
10.4997
10.4203
10.2937
10.2872
1
1
1
1
1
1
1
1
1
1
1
1
2.0089
8.31868
10.142
10.1964
10.2871
10.3278
10.3135
10.2532
10.1069
9.83874
9.06251
7.19567
1
1
1
1
1
1
1
1
1
1
1
1
1.12737
7.18281
10.1924
10.0907
10.0868
10.0749
10.019
9.89423
9.65375
9.18179
8.38075
6.31267
1
1
1
1
1
1
1
1
1
1
1
1
1.00157
5.57239
9.58951
9.72394
9.78699
9.7636
9.68966
9.51641
9.21842
8.65526
7.82521
5.89782
1
1
1
1
1
1
1
1
1
1
1
1
0.999976
3.70127
9.00948
9.59056
9.61822
9.55374
9.43472
9.20686
8.84801
8.27398
7.36984
5.80397
1
1
1
1
1
1
1
1
1
1
1
1
0.999994
1.96721
8.05097
9.53085
9.44158
9.33139
9.17306
8.91006
8.51517
7.95395
7.05533
5.83718
1
1
1
1
1
1
1
1
1
1
1
1
0.999999
1.09698
6.28989
9.2022
9.18918
9.09034
8.92223
8.65155
8.26276
7.69883
6.87446
5.92437
1
1
1
1
1
1
1
1
1
1
1
1
1
1.00051
3.84051
8.61007
9.04031
8.93608
8.74939
8.44131
8.05649
7.48643
6.76677
5.98845
1
1
1
1
1
1
1
1
1
1
1
1
1
0.999994
1.62363
7.63808
9.07486
8.79571
8.55701
8.24609
7.83511
7.33027
6.71715
6.05164
1
1
1
1
1
1
1
1
1
1
1
1
1
0.999999
1.03403
5.60678
8.64622
8.45805
8.29298
8.02404
7.65841
7.20931
6.67259
6.08982
1
1
1
1
1
1
1
1
1
1
1
1
1
1
0.999971
2.8028
7.90657
8.34912
8.20139
7.93551
7.57842
7.14354
6.64186
6.11722
1
1
1
1
1
1
1
1
1
1
1
1
1
1
0.999988
1.22799
6.07949
8.30038
8.11664
7.83173
7.47665
7.06823
6.61282
6.13674
1
1
1
1
1
1
1
1
1
1
1
1
1
1
0.999998
1.00401
3.23521
7.60419
7.99227
7.70556
7.38044
7.00174
6.5926
6.16222
1
1
1
1
1
1
1
1
1
1
1
1
1
1
1
1
1.34068
5.98646
7.96152
7.63763
7.32867
6.96153
6.58078
6.18683
1
1
1
1
1
1
1
1
1
1
1
1
1
1
1
1
1.0093
3.12052
7.22941
7.53656
7.23907
6.90346
6.55542
6.20334
1
1
1
1
1
1
1
1
1
1
1
1
1
1
1
1
1.00003
1.31109
5.46539
7.54901
7.21497
6.91102
6.58218
6.25555
1
1
1
1
1
1
1
1
1
1
1
1
1
1
1
1
1
1.00812
2.51874
6.52918
7.18028
6.89411
6.59619
6.28782
1
1
1
1
1
1
1
1
1
1
1
1
1
1
1
1
1
1.00004
1.16692
4.41407
7.12558
6.91593
6.63785
6.32058
1
1
1
1
1
1
1
1
1
1
1
1
1
1
1
1
1
1
1.00292
1.84388
5.77347
6.9262
6.63201
6.25963
1
1
1
1
1
1
1
1
1
1
1
1
1
1
1
1
1
1
1.00001
1.0544
3.09032
6.39164
6.51823
6.26341
1
1
1
1
1
1
1
1
1
1
1
1
1
1
1
1
1
1
1
1.00064
1.31047
4.55279
6.09222
6.91963
1
1
1
1
1
1
1
1
1
1
1
1
1
1
1
1
1
1
1
1
1.00987
1.94131
4.8552
9.08947
1
1
1
1
1
1
1
1
1
1
1
1
1
1
1
1
1
1
1
1
1.00008
1.06574
4.32871
11.0402
1
1
1
1
1
1
1
1
1
1
1
1
1
1
1
1
1
1
1
1
1
1.00111
4.15832
11.043
1
1
1
1
1
1
1
1
1
1
1
1
1
1
1
1
1
1
1
1
1
1.00001
4.32274
10.4703
1
1
1
1
1
1
1
1
1
1
1
1
1
1
1
1
1
1
1
1
1
1
4.1934
10.0008
1
1
1
1
1
1
1
1
1
1
1
1
1
1
1
1
1
1
1
1
1
1
3.88068
9.75838
1
1
1
1
1
1
1
1
1
1
1
1
1
1
1
1
1
1
1
1
1
1
3.49896
9.57831
1
1
1
1
1
1
1
1
1
1
1
1
1
1
1
1
1
1
1
1
1
1
3.12759
9.44087
1
1
1
1
1
1
1
1
1
1
1
1
1
1
1
1
1
1
1
1
1
1
2.83522
9.30924
1
1
1
1
1
1
1
1
1
1
1
1
1
1
1
1
1
1
1
1
1
1
2.65239
9.19927
1
1
1
1
1
1
1
1
1
1
1
1
1
1
1
1
1
1
1
1
1
1
2.55028
9.10824
1
1
1
1
1
1
1
1
1
1
1
1
1
1
1
1
1
1
1
1
1
1
2.51537
9.04724
1.62101
0.447428
0.130026
0.128697
0.162346
0.235737
0.360311
0.511446
0.699373
0.833132
0.926558
0.958299
0.999726
1.09259
1.21992
1.28223
1.32139
1.30526
1.26442
1.24184
1.60373
4.39863
5.39039
5.49783
5.62672
5.73933
5.8006
5.78068
5.70784
5.64371
5.63127
5.65907
5.68498
5.67122
5.59936
5.50245
5.41712
5.35839
5.32503
5.30696
5.28236
5.23155
5.15998
5.0869
5.02168
4.9656
4.91128
4.845
4.76687
4.69458
4.641
4.60528
4.55906
4.48503
4.40181
4.31729
4.24264
4.18397
4.15297
4.11686
4.0536
3.98532
3.91152
3.84417
3.78653
3.7384
3.69905
3.64589
3.58584
3.51812
3.44152
3.37248
3.32165
3.27933
3.24373
3.20322
3.15676
3.10104
3.02915
2.9554
2.90516
2.86877
2.83493
2.7996
2.76067
2.71411
2.65557
2.599
2.56068
2.53057
2.50089
2.46871
2.4288
2.37216
2.31441
2.25157
2.70689
1.46385
0.924584
0.644141
0.548585
0.509444
0.499293
0.518778
0.534145
0.567947
0.630402
0.704325
0.781506
0.874935
0.994779
1.10293
1.16038
1.19507
1.23064
1.23205
1.47424
4.10848
5.50227
5.64057
5.72928
5.75968
5.76639
5.76056
5.72875
5.67483
5.62718
5.59737
5.58723
5.59036
5.58617
5.53294
5.43984
5.34892
5.27795
5.24032
5.23684
5.23207
5.17513
5.08506
4.99439
4.91383
4.86184
4.82766
4.78557
4.72506
4.65661
4.58269
4.50962
4.44868
4.39264
4.32788
4.25894
4.19705
4.14573
4.09359
4.03907
3.97827
3.91523
3.84812
3.78218
3.72469
3.67432
3.63092
3.58027
3.52479
3.46192
3.38962
3.31872
3.26552
3.224
3.18827
3.14759
3.10032
3.04373
2.97531
2.90683
2.85888
2.82397
2.79243
2.75666
2.71556
2.6663
2.60979
2.55656
2.51777
2.4881
2.46026
2.42626
2.38085
2.33125
2.26022
3.59657
2.33886
1.67489
1.27307
1.03998
0.851175
0.682913
0.612358
0.589149
0.586762
0.608955
0.671763
0.73932
0.777285
0.826618
0.919893
0.999637
1.07181
1.1764
1.22699
1.33463
3.7047
5.80679
5.81358
5.78682
5.78989
5.74902
5.72072
5.73262
5.75663
5.73522
5.66532
5.58801
5.53181
5.52066
5.53188
5.50458
5.42302
5.32657
5.24757
5.2036
5.20381
5.1951
5.12863
5.03769
4.93106
4.84604
4.78707
4.76356
4.75059
4.69911
4.61923
4.51556
4.42142
4.35664
4.30518
4.26868
4.22866
4.16628
4.09484
4.02439
3.96441
3.91094
3.85731
3.8014
3.73736
3.66655
3.60321
3.55249
3.50795
3.46369
3.41518
3.35289
3.27706
3.20464
3.15282
3.11353
3.07815
3.04009
2.99727
2.93831
2.866
2.80653
2.76813
2.73581
2.70375
2.66959
2.63143
2.58162
2.52238
2.46959
2.43038
2.3965
2.36558
2.33533
2.28111
4.23922
3.15826
2.39337
1.82962
1.5284
1.32736
1.10116
0.880561
0.82167
0.803745
0.77622
0.744815
0.724753
0.707082
0.714039
0.749707
0.814477
0.908357
1.02822
1.127
1.2937
2.71808
5.82218
6.16279
5.96508
5.83953
5.76267
5.71042
5.70395
5.73782
5.73965
5.69283
5.60763
5.52368
5.47584
5.45249
5.44836
5.41098
5.34582
5.26847
5.20578
5.16474
5.13245
5.08099
5.01618
4.94162
4.85659
4.79173
4.75233
4.72097
4.66528
4.59929
4.51524
4.42115
4.34919
4.29561
4.25642
4.2129
4.15501
4.09069
4.01817
3.94972
3.89321
3.84239
3.79187
3.73773
3.67581
3.60805
3.54458
3.49054
3.44452
3.40116
3.35266
3.29005
3.21678
3.15272
3.10375
3.06341
3.02747
2.99158
2.94817
2.88408
2.80919
2.75476
2.71651
2.68518
2.65715
2.628
2.59351
2.54198
2.47233
2.41561
2.37936
2.34871
2.32165
2.29942
4.65514
3.72957
3.02403
2.42627
1.97021
1.71542
1.52373
1.2983
1.06576
0.967947
0.927601
0.889059
0.854855
0.810476
0.758633
0.736262
0.738963
0.764282
0.82779
1.02578
1.36882
1.91021
4.31889
6.06934
6.22016
6.03084
5.80269
5.68447
5.67784
5.70502
5.73338
5.70497
5.64448
5.54979
5.47349
5.42768
5.4006
5.39108
5.35528
5.30201
5.23428
5.16415
5.10293
5.0453
4.98831
4.93113
4.87169
4.81881
4.7668
4.7069
4.64325
4.57402
4.49339
4.4111
4.35392
4.30718
4.25903
4.20489
4.14696
4.08214
4.01053
3.94265
3.88623
3.83505
3.78366
3.72945
3.67001
3.60499
3.54089
3.48562
3.43722
3.38938
3.337
3.27672
3.21111
3.14918
3.09874
3.05936
3.02394
2.98716
2.9434
2.88165
2.8025
2.742
2.7075
2.67853
2.64938
2.61893
2.58438
2.53605
2.46725
2.4081
2.37489
2.34736
2.32918
2.35503
4.99359
4.16473
3.50569
2.96179
2.45685
2.05458
1.8395
1.66562
1.47643
1.26226
1.0945
1.05456
1.04545
0.999921
0.913819
0.826534
0.804749
0.824163
0.932871
1.20786
1.62144
1.72269
2.32513
4.61403
6.03041
6.13045
5.93737
5.71947
5.671
5.67102
5.69912
5.70218
5.64916
5.56903
5.47091
5.41192
5.37152
5.35859
5.34478
5.29503
5.22753
5.13947
5.06557
5.01085
4.9651
4.92579
4.87915
4.81953
4.75045
4.68106
4.61587
4.5506
4.4802
4.40766
4.34715
4.29566
4.24357
4.19029
4.13439
4.0728
4.00364
3.93259
3.87127
3.81899
3.76876
3.71675
3.66031
3.598
3.53269
3.47278
3.42157
3.37327
3.32292
3.26938
3.21292
3.15351
3.09571
3.04836
3.01041
2.97388
2.93207
2.8769
2.8037
2.73316
2.69354
2.66757
2.64119
2.61264
2.57955
2.53366
2.46612
2.39706
2.36318
2.34812
2.35688
2.48439
5.21862
4.49459
3.85462
3.34246
2.90827
2.49583
2.10276
1.88303
1.76966
1.61928
1.43786
1.24243
1.14828
1.11513
1.05387
0.983171
0.992462
1.06939
1.33976
1.6606
1.86561
1.84586
1.84592
2.41713
4.45418
5.89249
6.01382
5.85212
5.70736
5.65232
5.63555
5.66862
5.63797
5.57609
5.48653
5.40823
5.35894
5.33045
5.32093
5.27654
5.21402
5.12726
5.04982
4.99817
4.95964
4.92608
4.87434
4.80907
4.72851
4.65478
4.59522
4.53862
4.47954
4.41303
4.34011
4.27505
4.22086
4.17024
4.1195
4.06554
4.003
3.92794
3.85307
3.79451
3.74563
3.69869
3.65042
3.59745
3.53554
3.46564
3.39997
3.3457
3.29856
3.25448
3.20978
3.15992
3.10219
3.04267
2.9923
2.94975
2.90759
2.86112
2.80689
2.74409
2.68613
2.65056
2.62452
2.59684
2.56587
2.5272
2.47518
2.406
2.36931
2.3756
2.42699
2.71906
5.38425
4.75077
4.16907
3.63108
3.20837
2.86495
2.51042
2.16189
1.92688
1.84021
1.72413
1.54602
1.34803
1.24285
1.19151
1.24233
1.37605
1.57851
1.93177
2.07123
2.04532
1.9724
1.90905
1.93983
2.42451
4.16274
5.65599
5.94048
5.80225
5.67595
5.59303
5.60442
5.61724
5.56841
5.49753
5.40463
5.34392
5.30114
5.28378
5.25273
5.19933
5.12577
5.04276
4.98773
4.94599
4.90554
4.85121
4.78662
4.70536
4.63285
4.57889
4.52716
4.47159
4.40703
4.32965
4.25492
4.19808
4.14941
4.10207
4.05273
3.99525
3.92048
3.83463
3.76737
3.71969
3.67749
3.63565
3.5902
3.53339
3.45595
3.37222
3.31369
3.27351
3.23735
3.20008
3.15787
3.10517
3.03923
2.97306
2.9213
2.87904
2.83992
2.8003
2.75356
2.69363
2.63631
2.60167
2.57409
2.54408
2.51072
2.47886
2.43802
2.42632
2.47982
2.65158
3.04074
5.50481
4.92636
4.40363
3.9198
3.46192
3.09582
2.81678
2.50812
2.20388
2.00446
1.89058
1.74996
1.59863
1.47443
1.49281
1.71001
1.93606
2.1524
2.32567
2.31688
2.27269
2.21819
2.1603
2.10942
2.12112
2.45314
3.89383
5.34842
5.78442
5.71548
5.59727
5.56057
5.5867
5.55652
5.49963
5.40678
5.32473
5.2754
5.24729
5.22914
5.18563
5.12488
5.03977
4.96974
4.92052
4.87408
4.82131
4.76249
4.6909
4.61716
4.55915
4.50733
4.45355
4.39394
4.32404
4.24808
4.1813
4.12761
4.07935
4.03076
3.97629
3.90801
3.82524
3.74968
3.69693
3.65602
3.61724
3.57578
3.52319
3.44438
3.34803
3.28631
3.25143
3.21921
3.1855
3.14807
3.10102
3.03409
2.95167
2.88871
2.85048
2.82004
2.79019
2.75575
2.70731
2.63858
2.57835
2.54734
2.52077
2.50037
2.49528
2.50895
2.58389
2.80552
3.07803
3.30858
5.59424
5.07384
4.58097
4.14227
3.71699
3.33236
3.0335
2.77752
2.48722
2.21318
2.04485
1.92535
1.87452
1.90134
2.15456
2.49769
2.53744
2.57391
2.55669
2.52274
2.51046
2.47153
2.41427
2.33923
2.2771
2.2951
2.50803
3.54945
4.9387
5.54551
5.60038
5.54815
5.56233
5.542
5.48997
5.40696
5.30641
5.25047
5.21485
5.20097
5.16512
5.11099
5.02945
4.94116
4.8852
4.83823
4.79048
4.73898
4.6787
4.60551
4.53304
4.47412
4.42164
4.36905
4.31167
4.24533
4.17241
4.10536
4.04976
3.99867
3.94592
3.88702
3.8183
3.74304
3.67713
3.62853
3.5877
3.5465
3.49749
3.42944
3.34275
3.26875
3.22605
3.19438
3.16271
3.12942
3.08972
3.03034
2.93903
2.85714
2.82114
2.79675
2.7723
2.74471
2.70808
2.64992
2.57305
2.52278
2.50469
2.50905
2.55817
2.68444
2.94853
3.24669
3.46134
3.48401
5.66246
5.19682
4.72845
4.31921
3.9422
3.56483
3.23248
2.98003
2.71908
2.45122
2.24304
2.26263
2.40017
2.59199
2.99108
3.10079
2.99777
2.89327
2.80093
2.76528
2.76098
2.71422
2.64271
2.56852
2.50391
2.4514
2.45221
2.55658
3.22191
4.46862
5.27115
5.44506
5.54454
5.54175
5.48279
5.39805
5.28847
5.22543
5.18875
5.17541
5.14034
5.08574
5.00391
4.90616
4.84528
4.80124
4.76334
4.7197
4.66555
4.5929
4.50477
4.43388
4.38357
4.33754
4.28948
4.23426
4.16551
4.08655
4.01717
3.96245
3.9131
3.86326
3.80737
3.73906
3.66273
3.59875
3.55089
3.50724
3.46029
3.40691
3.34445
3.2716
3.20521
3.16335
3.13217
3.10105
3.06609
3.01795
2.94103
2.84796
2.79324
2.76758
2.74515
2.72109
2.69198
2.65312
2.59178
2.53228
2.52787
2.56961
2.74837
3.02513
3.35365
3.56046
3.58283
3.53245
5.72186
5.29931
4.87339
4.48246
4.12072
3.76473
3.43386
3.14629
2.91713
2.71343
2.71876
3.0263
3.23056
3.36532
3.47818
3.43029
3.29055
3.15149
3.06532
3.03151
3.01157
2.95788
2.85577
2.78137
2.71253
2.65097
2.6007
2.56752
2.60272
2.96132
3.96917
4.89489
5.29368
5.5116
5.48645
5.40288
5.26795
5.19505
5.15711
5.14659
5.11355
5.05804
4.97296
4.86929
4.80612
4.76635
4.73733
4.69864
4.64698
4.57519
4.47612
4.39246
4.34397
4.3027
4.25979
4.21122
4.14938
4.06739
3.9829
3.92281
3.87833
3.83608
3.78938
3.73011
3.65026
3.56527
3.50421
3.4603
3.4205
3.38144
3.33741
3.27805
3.2001
3.13121
3.09086
3.06041
3.02832
2.99013
2.9391
2.86866
2.78815
2.73454
2.70757
2.6855
2.66252
2.64188
2.61932
2.61295
2.67329
2.85489
3.19137
3.40714
3.521
3.5829
3.59859
3.54598
5.78105
5.3885
5.00232
4.62099
4.26999
3.9308
3.59298
3.3464
3.28334
3.34176
3.66729
4.04049
3.98387
3.9166
3.81555
3.70429
3.57347
3.43226
3.34773
3.28975
3.24142
3.18775
3.09236
2.98784
2.92041
2.85477
2.79529
2.72315
2.6565
2.64557
2.79593
3.48478
4.45543
5.15366
5.41084
5.3932
5.24963
5.17464
5.12762
5.11263
5.0795
5.02518
4.9383
4.83903
4.77491
4.73753
4.7081
4.66668
4.61535
4.54665
4.45193
4.35999
4.30462
4.2642
4.22352
4.17851
4.12311
4.0484
3.95911
3.88698
3.84065
3.80245
3.76267
3.71364
3.64086
3.53877
3.45182
3.40761
3.37811
3.34958
3.31744
3.27492
3.20894
3.11924
3.04795
3.0097
2.98108
2.95197
2.91996
2.87719
2.81001
2.7259
2.67465
2.65122
2.63786
2.64353
2.69202
2.81817
3.05877
3.37981
3.60056
3.64108
3.62248
3.5892
3.59627
3.55876
5.84633
5.47171
5.10578
4.74109
4.3887
4.08575
3.80835
3.8633
4.16673
4.36658
4.59588
4.61004
4.3966
4.21217
4.09863
4.01439
3.89705
3.72729
3.6116
3.52798
3.46174
3.40354
3.32478
3.2012
3.11587
3.0399
2.97414
2.90863
2.81987
2.72634
2.69156
2.73584
3.11582
3.99039
4.88048
5.17089
5.18515
5.1609
5.13943
5.08111
5.02839
4.96657
4.88784
4.82255
4.77057
4.72096
4.66986
4.61821
4.56358
4.50047
4.42539
4.34283
4.27298
4.22416
4.18165
4.13709
4.08592
4.02224
3.94236
3.85966
3.79856
3.75643
3.71878
3.67713
3.61967
3.53118
3.42807
3.36345
3.33212
3.3062
3.28027
3.2509
3.20744
3.13104
3.03107
2.9627
2.92895
2.90543
2.88322
2.85671
2.81519
2.74507
2.66666
2.64221
2.65043
2.72546
2.92531
3.20246
3.50397
3.7555
3.7765
3.74122
3.67338
3.61359
3.58561
3.5432
5.91676
5.54743
5.18718
4.82326
4.56029
4.4062
4.54972
5.01608
5.27021
5.29699
5.17115
4.95395
4.71428
4.48869
4.385
4.32344
4.20448
4.01125
3.85701
3.76869
3.69408
3.62529
3.54189
3.41768
3.29695
3.21743
3.141
3.07711
3.00382
2.89767
2.77802
2.69125
2.70368
2.8943
3.54974
4.42055
4.84812
5.05824
5.12212
5.04824
4.96593
4.89175
4.83965
4.80452
4.76394
4.7001
4.62294
4.55427
4.49738
4.44532
4.39141
4.32614
4.24881
4.18299
4.13392
4.08842
4.04093
3.98762
3.92183
3.84001
3.75929
3.70122
3.65868
3.61924
3.57411
3.51604
3.43998
3.35522
3.28948
3.25353
3.22744
3.20225
3.17246
3.12613
3.04772
2.95315
2.88693
2.85522
2.83565
2.81709
2.79203
2.76239
2.71667
2.72693
2.81575
3.05278
3.3645
3.60475
3.75457
3.81662
3.80289
3.76697
3.7173
3.65205
3.58799
3.53078
5.93934
5.58303
5.24675
4.96714
5.02364
5.37603
5.87267
6.02472
5.8738
5.7385
5.49399
5.24629
5.04035
4.81358
4.68245
4.60036
4.47693
4.2913
4.11185
4.01654
3.92861
3.84282
3.74501
3.62093
3.46817
3.37988
3.30525
3.22769
3.1566
3.06764
2.94343
2.80604
2.73194
2.72314
2.79426
3.17228
3.87247
4.5488
4.89524
4.91392
4.89415
4.84502
4.82694
4.79581
4.74271
4.66219
4.55521
4.48118
4.43543
4.39448
4.35146
4.29701
4.22074
4.14016
4.08289
4.03659
3.99154
3.94494
3.89134
3.82075
3.73296
3.65184
3.59308
3.54866
3.51204
3.47731
3.4349
3.37337
3.2862
3.20725
3.16895
3.14673
3.12608
3.09422
3.04209
2.97196
2.88994
2.8215
2.78521
2.76798
2.76755
2.7896
2.85448
3.02043
3.28451
3.618
3.77941
3.82113
3.81421
3.79347
3.79369
3.7791
3.75174
3.71251
3.64931
3.54191
5.94229
5.64446
5.45239
5.71338
6.29618
6.7482
6.87954
6.58661
6.21467
5.98751
5.77386
5.54814
5.36316
5.14264
4.96067
4.85042
4.73047
4.56108
4.36415
4.25574
4.15721
4.0524
3.94193
3.81089
3.65946
3.5301
3.45822
3.38131
3.29649
3.21057
3.10205
2.96752
2.85705
2.77179
2.73599
2.75795
2.91766
3.39324
4.07965
4.55671
4.66352
4.77035
4.82238
4.7892
4.72079
4.60443
4.47569
4.41324
4.37807
4.349
4.3109
4.2586
4.18491
4.09474
4.0234
3.97366
3.93149
3.88904
3.84533
3.78921
3.71272
3.62315
3.54331
3.48462
3.44516
3.41571
3.38923
3.35675
3.30452
3.22347
3.13976
3.08154
3.04088
3.01153
2.98314
2.95223
2.90603
2.83643
2.77338
2.76479
2.7969
2.92528
3.18991
3.47178
3.78072
3.96276
3.95757
3.90938
3.83426
3.7971
3.786
3.78692
3.77462
3.74232
3.69308
3.57859
5.9616
5.91216
6.41054
7.22753
7.51096
7.52429
7.25684
6.84962
6.46988
6.25282
6.10229
5.87447
5.66393
5.46944
5.25626
5.11694
4.99408
4.82227
4.60729
4.47154
4.37603
4.25948
4.14225
4.00353
3.84154
3.69749
3.5988
3.52134
3.43463
3.33885
3.23877
3.11502
2.99684
2.90079
2.80988
2.7518
2.72873
2.76507
2.98847
3.53274
4.07921
4.48764
4.695
4.71744
4.67077
4.53191
4.41827
4.36867
4.34287
4.31848
4.27703
4.21888
4.12991
4.04451
3.97412
3.91881
3.88149
3.85333
3.8091
3.74851
3.67448
3.59814
3.5256
3.45258
3.40023
3.37712
3.35974
3.3336
3.29459
3.22772
3.13586
3.04139
2.98011
2.94833
2.92745
2.91093
2.89741
2.86796
2.84505
2.89388
3.05409
3.36811
3.6394
3.82487
3.99548
4.02654
4.00447
3.94951
3.87192
3.82329
3.80384
3.79198
3.77513
3.74224
3.69856
3.60883
6.44235
7.27405
8.19043
8.3973
8.11443
7.81798
7.46688
7.07631
6.74194
6.55053
6.4161
6.19229
5.93426
5.76437
5.55688
5.381
5.24661
5.06517
4.83759
4.67508
4.57722
4.46083
4.33066
4.19079
4.01896
3.85877
3.74557
3.65474
3.56665
3.47105
3.36459
3.24925
3.12281
3.0157
2.92965
2.8414
2.75444
2.71245
2.68978
2.7602
3.09238
3.64745
4.24713
4.51365
4.50776
4.45372
4.38728
4.3466
4.33464
4.29834
4.2391
4.14127
4.04846
3.99883
3.96088
3.9178
3.85189
3.75707
3.6838
3.63064
3.58493
3.54938
3.51378
3.46722
3.39902
3.31102
3.25147
3.2268
3.20549
3.18144
3.12695
3.05262
2.97657
2.90821
2.88257
2.87426
2.88421
2.93715
3.08073
3.31938
3.63103
3.8871
3.96495
4.01936
4.04125
4.02801
4.00036
3.9656
3.92534
3.87416
3.82723
3.79663
3.76709
3.7323
3.69844
3.63658
8.16468
9.11678
9.21325
8.75877
8.35639
8.02704
7.72506
7.37924
7.07497
6.8982
6.74522
6.51385
6.21375
6.0254
5.85312
5.64094
5.48251
5.30421
5.07342
4.89145
4.76983
4.65152
4.51132
4.35936
4.1922
4.02124
3.89317
3.79069
3.69398
3.59629
3.48866
3.3675
3.24014
3.12477
3.02755
2.94499
2.8595
2.7597
2.6934
2.63501
2.63789
2.79281
3.23542
3.833
4.14257
4.28632
4.34395
4.33753
4.27825
4.20397
4.119
4.0586
4.02262
3.98295
3.93872
3.88241
3.80252
3.69239
3.58965
3.55636
3.54597
3.5333
3.50659
3.46663
3.39537
3.28785
3.19874
3.15149
3.11981
3.09158
3.07053
3.04304
2.98078
2.89786
2.87365
2.88689
2.98816
3.24355
3.56297
3.85593
4.10633
4.13697
4.09771
4.05469
4.02364
4.0039
4.00393
3.98598
3.96387
3.92533
3.85881
3.8031
3.76668
3.73614
3.71355
3.66643
9.98685
9.96458
9.56327
9.01007
8.56561
8.27971
8.01365
7.67109
7.36742
7.20102
7.0393
6.80023
6.48552
6.25436
6.11155
5.90521
5.70485
5.53273
5.31279
5.10697
4.9577
4.82054
4.67805
4.52074
4.35198
4.18438
4.03934
3.92347
3.81678
3.70962
3.5982
3.4768
3.34762
3.22862
3.12746
3.03612
2.95344
2.86023
2.75367
2.65766
2.60449
2.56029
2.60781
2.86648
3.32291
3.7867
4.15232
4.22741
4.18107
4.10637
4.01258
3.95174
3.92521
3.90181
3.86642
3.81474
3.74841
3.66272
3.56304
3.47596
3.44214
3.42421
3.40422
3.37728
3.34293
3.27827
3.17503
3.10172
3.06583
3.03549
3.00032
2.972
2.95286
2.92541
2.9587
3.10747
3.43312
3.77936
3.97845
4.16826
4.22279
4.1988
4.13319
4.0653
4.0351
4.02376
4.03396
4.0217
3.99313
3.94671
3.87094
3.80261
3.76578
3.74182
3.72794
3.68683
10.9321
10.2771
9.70102
9.16421
8.82241
8.59356
8.33155
7.98129
7.66383
7.47827
7.31104
7.06324
6.74503
6.48015
6.32815
6.15635
5.92833
5.73503
5.52937
5.31242
5.14336
4.99403
4.84236
4.6837
4.51339
4.34237
4.18964
4.06349
3.95228
3.84055
3.72277
3.60058
3.46892
3.3444
3.24997
3.16799
3.08592
3.0013
2.89369
2.76848
2.64886
2.56006
2.50205
2.51596
2.62016
2.93686
3.45251
3.8679
4.00944
4.02905
3.99905
3.93836
3.87706
3.81842
3.76417
3.71407
3.66845
3.62301
3.55689
3.46489
3.39316
3.36298
3.33593
3.3055
3.2699
3.22309
3.15408
3.06331
2.99695
2.95962
2.94122
2.94778
2.98078
3.09933
3.34248
3.68452
4.01719
4.11543
4.16847
4.21911
4.23429
4.20414
4.16178
4.1167
4.08286
4.06813
4.05675
4.04136
4.00963
3.95965
3.88825
3.8203
3.78929
3.7714
3.7563
3.71171
10.9092
10.1724
9.7175
9.37034
9.11769
8.90229
8.60789
8.22355
7.9374
7.75153
7.59071
7.34386
7.02912
6.75595
6.59274
6.43756
6.19362
5.9418
5.75939
5.54282
5.32667
5.15116
4.98771
4.8202
4.64823
4.47517
4.31211
4.16901
4.04181
3.92089
3.7984
3.6716
3.54254
3.41598
3.29821
3.19724
3.10408
3.01394
2.92161
2.82241
2.71319
2.61823
2.53662
2.48181
2.42268
2.44947
2.61639
3.01243
3.43563
3.79658
3.9584
3.94347
3.85151
3.71882
3.63551
3.60201
3.57801
3.54935
3.50767
3.44599
3.35635
3.29452
3.26419
3.23387
3.2025
3.16801
3.11427
3.03097
2.94822
2.93062
2.93954
3.01585
3.25918
3.62254
3.9512
4.2173
4.27903
4.24492
4.24109
4.23376
4.23529
4.22738
4.20841
4.18184
4.13652
4.07995
4.0487
4.0261
3.99897
3.96928
3.93071
3.8796
3.8249
3.76333
3.73297
3.69478
10.6437
10.1583
9.89645
9.62764
9.35608
9.08046
8.80321
8.49607
8.21884
8.00372
7.82088
7.55185
7.22236
6.93398
6.75396
6.59634
6.41864
6.15176
5.87525
5.68642
5.53025
5.37134
5.20792
5.03644
4.85756
4.67557
4.50202
4.347
4.20561
4.07293
3.94466
3.81376
3.67886
3.54349
3.40814
3.28434
3.17292
3.07001
2.98198
2.9028
2.81239
2.71414
2.61471
2.51373
2.42941
2.36624
2.36176
2.43031
2.68739
3.10378
3.55105
3.82022
3.8053
3.67859
3.56618
3.52307
3.50401
3.49053
3.4544
3.40149
3.31935
3.22668
3.18413
3.15672
3.13074
3.09653
3.05299
3.00049
2.95531
2.9648
3.08106
3.39636
3.83269
4.12589
4.31785
4.39208
4.37491
4.31997
4.2722
4.2382
4.21632
4.21609
4.21387
4.19729
4.16532
4.10734
4.05371
4.02074
3.99272
3.96392
3.93764
3.91044
3.86512
3.80038
3.74896
3.69558
10.483
10.1667
9.96953
9.71534
9.49434
9.24965
8.98157
8.67815
8.38825
8.15617
7.96337
7.7093
7.39932
7.13404
6.94767
6.77615
6.56784
6.31826
6.03264
5.80653
5.61203
5.43539
5.26584
5.08884
4.90226
4.71522
4.54098
4.38528
4.24238
4.10276
3.96028
3.81661
3.67576
3.54327
3.42647
3.32609
3.22887
3.12548
3.0128
2.8959
2.78948
2.69997
2.62583
2.55395
2.48689
2.41048
2.33124
2.26071
2.27936
2.44126
2.79245
3.2542
3.59761
3.60928
3.54143
3.47204
3.43695
3.41903
3.39397
3.35406
3.29102
3.19093
3.11389
3.07716
3.04845
3.02591
3.00734
2.99879
3.04359
3.23941
3.61236
4.04289
4.25495
4.36397
4.46588
4.46809
4.42654
4.34557
4.26638
4.24007
4.2272
4.22967
4.23197
4.209
4.17171
4.11188
4.05611
4.02413
3.99648
3.97016
3.94323
3.91424
3.87843
3.82797
3.77569
3.71118
10.3722
10.123
9.99495
9.79629
9.58826
9.33673
9.06485
8.79363
8.55655
8.35773
8.1506
7.86852
7.55606
7.29185
7.09253
6.90242
6.67441
6.41867
6.14546
5.94064
5.75128
5.56235
5.37862
5.1923
4.99899
4.81029
4.63911
4.48414
4.33636
4.1879
4.03404
3.8788
3.73201
3.60185
3.48864
3.38545
3.28333
3.17549
3.05824
2.93633
2.82669
2.73905
2.66621
2.59662
2.52585
2.4424
2.344
2.25238
2.18322
2.18517
2.26184
2.52454
2.98312
3.32465
3.4516
3.40881
3.37251
3.35647
3.33281
3.29543
3.24773
3.17109
3.0659
3.01093
2.98148
2.9755
3.02509
3.1423
3.48019
3.92453
4.26667
4.43957
4.46114
4.46175
4.46087
4.43685
4.39919
4.3584
4.30488
4.27558
4.25909
4.24773
4.23427
4.20364
4.16409
4.10727
4.05778
4.02842
4.00309
3.98022
3.9534
3.92436
3.88985
3.84588
3.79833
3.72857
10.3696
10.1278
9.99259
9.78779
9.58338
9.35495
9.12734
8.90338
8.68456
8.46861
8.21474
7.92142
7.64074
7.4091
7.23077
7.03168
6.78488
6.50487
6.24383
6.04273
5.85448
5.66334
5.47035
5.2668
5.0575
4.86566
4.69735
4.54379
4.39718
4.25147
4.09845
3.93519
3.77667
3.63966
3.5228
3.41687
3.31454
3.21078
3.1004
2.98058
2.86366
2.76425
2.68266
2.61065
2.54031
2.46324
2.37714
2.2863
2.20397
2.1343
2.10685
2.14503
2.33219
2.69708
3.11745
3.29647
3.32124
3.28178
3.24872
3.21217
3.16993
3.11483
3.03102
2.9731
2.96605
2.99748
3.16977
3.65126
4.16502
4.45032
4.58496
4.55983
4.48556
4.43141
4.41632
4.41216
4.40222
4.3814
4.34739
4.30692
4.28048
4.25876
4.23509
4.20257
4.16264
4.11136
4.06293
4.0314
4.00574
3.98321
3.9577
3.93091
3.90044
3.86464
3.82505
3.75133
10.4001
10.1347
10.0003
9.81238
9.6215
9.41698
9.20942
8.99642
8.77063
8.52416
8.25928
7.99275
7.74638
7.5386
7.33591
7.0849
6.80717
6.53398
6.31286
6.13173
5.9538
5.76082
5.54905
5.31166
5.08883
4.90807
4.75202
4.60731
4.46605
4.31748
4.15131
3.97308
3.80697
3.66908
3.5546
3.45354
3.35628
3.25357
3.13783
3.01025
2.88594
2.78006
2.69503
2.62452
2.55877
2.49023
2.41375
2.32572
2.22967
2.14438
2.07787
2.04192
2.05721
2.16472
2.46113
2.92804
3.18302
3.19563
3.16781
3.1362
3.09429
3.03984
3.00656
2.98053
3.0127
3.23717
3.79792
4.28915
4.54669
4.66839
4.65306
4.59079
4.5005
4.44563
4.42379
4.40808
4.39801
4.38098
4.35885
4.32767
4.28952
4.25866
4.22774
4.19293
4.15568
4.11886
4.08051
4.04416
4.01499
3.98853
3.96194
3.93398
3.90327
3.86912
3.83258
3.76028
10.4329
10.1495
10.0039
9.819
9.63344
9.43998
9.23659
9.02363
8.79466
8.55018
8.3
8.05888
7.84053
7.64003
7.39848
7.12373
6.84393
6.59792
6.39926
6.22296
6.02665
5.81001
5.57183
5.33613
5.1348
4.96144
4.80404
4.65505
4.50486
4.34136
4.16553
3.99563
3.84306
3.70857
3.59006
3.4835
3.38023
3.26987
3.14988
3.02779
2.91058
2.80602
2.71642
2.64125
2.57251
2.50132
2.42475
2.34313
2.25373
2.16728
2.087
2.02372
1.9917
1.9907
2.05301
2.29397
2.67208
3.00852
3.07644
3.08627
3.0432
3.01974
3.0216
3.11572
3.42484
4.02035
4.46644
4.56186
4.62523
4.65718
4.63705
4.59443
4.53086
4.47361
4.4432
4.42009
4.406
4.38949
4.36678
4.33465
4.28703
4.24651
4.21607
4.18931
4.16471
4.13877
4.10648
4.06279
4.01666
3.98098
3.94994
3.91987
3.89088
3.86034
3.83173
3.77265
10.4585
10.1633
10.0124
9.83161
9.64969
9.45609
9.25106
9.03446
8.80331
8.5658
8.3298
8.10303
7.88738
7.66863
7.41824
7.14385
6.88681
6.67023
6.47857
6.27154
6.04983
5.81726
5.58801
5.37674
5.18822
5.01428
4.84766
4.68454
4.51592
4.34095
4.1735
4.02149
3.88389
3.75398
3.62751
3.50503
3.38593
3.26632
3.14987
3.04173
2.94116
2.84597
2.75047
2.65583
2.56923
2.48934
2.41403
2.34497
2.27738
2.20464
2.12848
2.04828
1.98306
1.93732
1.92084
1.95684
2.11529
2.46434
2.77788
2.9329
2.95265
3.03501
3.23292
3.64148
4.18187
4.62337
4.72071
4.66678
4.62506
4.61643
4.6034
4.57496
4.52959
4.47949
4.45411
4.43618
4.42019
4.40147
4.37535
4.33486
4.28273
4.24834
4.22311
4.19799
4.17185
4.14241
4.10689
4.06458
4.02041
3.98172
3.952
3.92528
3.89903
3.87065
3.84228
3.78187
10.4633
10.1674
10.0167
9.83821
9.65625
9.46196
9.25678
9.04019
8.81482
8.58688
8.35965
8.13382
7.90635
7.66234
7.39296
7.14933
6.94451
6.74563
6.51766
6.28349
6.04367
5.81609
5.60571
5.41481
5.23672
5.06231
4.88313
4.69173
4.50035
4.32946
4.18022
4.04721
3.92255
3.7971
3.66449
3.52182
3.37787
3.2518
3.14656
3.05468
2.9685
2.88081
2.78266
2.67257
2.56159
2.47225
2.40297
2.34222
2.28471
2.22705
2.16575
2.09242
2.00195
1.92844
1.87542
1.85209
1.86699
1.97581
2.28127
2.66202
2.93434
3.31879
3.79757
4.22653
4.61076
4.73535
4.69358
4.62128
4.59444
4.59031
4.58211
4.5593
4.53118
4.49665
4.4742
4.45664
4.43443
4.40786
4.37365
4.32692
4.28027
4.24895
4.22304
4.19715
4.17071
4.14348
4.11424
4.08172
4.04861
4.01541
3.9764
3.93644
3.89901
3.86084
3.82705
3.77017
10.4521
10.1649
10.0218
9.8444
9.66098
9.4659
9.26303
9.05231
8.83541
8.61411
8.38803
8.15197
7.90296
7.64573
7.40513
7.18773
6.99268
6.77945
6.53939
6.28914
6.03453
5.81271
5.62531
5.4488
5.27589
5.09867
4.90079
4.68163
4.47582
4.3122
4.18187
4.06699
3.95576
3.837
3.69459
3.52381
3.35743
3.22996
3.13723
3.06135
2.99005
2.91355
2.81366
2.67873
2.54087
2.44517
2.38437
2.33693
2.29474
2.25164
2.19237
2.09913
1.9924
1.90992
1.85266
1.81126
1.79516
1.80946
1.91743
2.26041
2.96563
3.7125
4.40166
4.92551
5.05145
4.92919
4.71706
4.58268
4.56144
4.55926
4.56803
4.55842
4.53741
4.51317
4.48789
4.46335
4.43639
4.40597
4.36927
4.3239
4.28036
4.24822
4.22154
4.19706
4.17336
4.14892
4.12379
4.098
4.06678
4.02338
3.97354
3.92719
3.88665
3.84744
3.81753
3.76837
)
;

boundaryField
{
    inlet
    {
        type            fixedValue;
        value           uniform 1;
    }
    outlet
    {
        type            zeroGradient;
    }
    bottom
    {
        type            symmetryPlane;
    }
    top
    {
        type            symmetryPlane;
    }
    obstacle
    {
        type            zeroGradient;
    }
    defaultFaces
    {
        type            empty;
    }
}


// ************************************************************************* //
