/*--------------------------------*- C++ -*----------------------------------*\
  =========                 |
  \\      /  F ield         | OpenFOAM: The Open Source CFD Toolbox
   \\    /   O peration     | Website:  https://openfoam.org
    \\  /    A nd           | Version:  7
     \\/     M anipulation  |
\*---------------------------------------------------------------------------*/
FoamFile
{
    version     2.0;
    format      ascii;
    class       volScalarField;
    location    "6";
    object      rho;
}
// * * * * * * * * * * * * * * * * * * * * * * * * * * * * * * * * * * * * * //

dimensions      [1 -3 0 0 0 0 0];

internalField   nonuniform List<scalar> 
4032
(
1.40001
1.40001
1.40001
1.40001
1.40001
1.40001
1.40001
1.40001
1.40001
1.40001
1.40001
1.58678
4.40357
5.46696
5.51408
5.58974
5.65676
5.72035
5.77854
5.83083
5.87741
5.91496
5.94367
5.96485
1.40001
1.40001
1.40001
1.40001
1.40001
1.40001
1.40001
1.40001
1.40001
1.40001
1.40001
1.56356
4.33359
5.45185
5.50886
5.58301
5.64868
5.71053
5.76687
5.81682
5.86064
5.89547
5.92108
5.94118
1.40001
1.40001
1.40001
1.40001
1.40001
1.40001
1.40001
1.40001
1.40001
1.40001
1.40001
1.50785
4.22448
5.44273
5.49392
5.56715
5.63278
5.69405
5.74942
5.79759
5.83882
5.87066
5.89148
5.90861
1.40001
1.40001
1.40001
1.40001
1.40001
1.40001
1.40001
1.40001
1.40001
1.40001
1.40001
1.41269
4.04454
5.4322
5.47653
5.54245
5.604
5.66107
5.71324
5.75931
5.79952
5.83028
5.84805
5.86158
1.40001
1.40001
1.40001
1.40001
1.40001
1.40001
1.40001
1.40001
1.40001
1.40001
1.40001
1.40019
3.7683
5.37197
5.42909
5.49285
5.55536
5.6118
5.66185
5.70313
5.73582
5.76068
5.77435
5.79287
1.40001
1.40001
1.40001
1.40001
1.40001
1.40001
1.40001
1.40001
1.40001
1.40001
1.40001
1.4
3.40982
5.28832
5.38984
5.44855
5.50766
5.5569
5.59884
5.63356
5.66195
5.68567
5.69493
5.68594
1.40001
1.40001
1.40001
1.40001
1.40001
1.40001
1.40001
1.40001
1.40001
1.40001
1.40001
1.4
2.98843
5.17068
5.36074
5.41084
5.45823
5.49383
5.52095
5.54079
5.54805
5.53639
5.51774
5.51001
1.40001
1.40001
1.40001
1.40001
1.40001
1.40001
1.40001
1.40001
1.40001
1.40001
1.40001
1.40001
2.51382
5.01146
5.36855
5.39344
5.42111
5.4383
5.44382
5.44141
5.42285
5.39251
5.33759
5.31255
1.40001
1.40001
1.40001
1.40001
1.40001
1.40001
1.40001
1.40001
1.40001
1.40001
1.40001
1.40001
1.99326
4.7715
5.39999
5.37682
5.38751
5.38551
5.36945
5.34001
5.27997
5.17606
4.8624
4.01739
1.40001
1.40001
1.40001
1.40001
1.40001
1.40001
1.40001
1.40001
1.40001
1.40001
1.40001
1.40001
1.50088
4.35658
5.426
5.36781
5.34439
5.31606
5.27702
5.21752
5.11595
4.92764
4.59943
3.70313
1.40001
1.40001
1.40001
1.40001
1.40001
1.40001
1.40001
1.40001
1.40001
1.40001
1.40001
1.40001
1.40133
3.64513
5.18606
5.24192
5.25342
5.22567
5.17704
5.09316
4.96239
4.7296
4.38628
3.56733
1.40001
1.40001
1.40001
1.40001
1.40001
1.40001
1.40001
1.40001
1.40001
1.40001
1.40001
1.40001
1.39998
2.82661
4.99738
5.20106
5.19935
5.16621
5.10451
4.99691
4.83767
4.59322
4.21354
3.54719
1.40001
1.40001
1.40001
1.40001
1.40001
1.40001
1.40001
1.40001
1.40001
1.40001
1.40001
1.40001
1.4
2.00368
4.73608
5.20586
5.15678
5.09956
5.0231
4.90306
4.72842
4.48497
4.10043
3.5717
1.40001
1.40001
1.40001
1.40001
1.40001
1.40001
1.40001
1.40001
1.40001
1.40001
1.40001
1.40001
1.4
1.47875
4.01224
5.10744
5.07885
5.02586
4.94413
4.82109
4.64915
4.40328
4.04517
3.62478
1.40001
1.40001
1.40001
1.40001
1.40001
1.40001
1.40001
1.40001
1.40001
1.40001
1.40001
1.40001
1.4
1.40039
2.94069
4.9418
5.04058
4.98835
4.89837
4.75819
4.58658
4.33701
4.02041
3.671
1.40001
1.40001
1.40001
1.40001
1.40001
1.40001
1.40001
1.40001
1.40001
1.40001
1.40001
1.40001
1.40001
1.4
1.83186
4.69041
5.10013
4.96961
4.85006
4.70263
4.5161
4.29115
4.01918
3.71846
1.40001
1.40001
1.40001
1.40001
1.40001
1.40001
1.40001
1.40001
1.40001
1.40001
1.40001
1.40001
1.40001
1.4
1.42843
3.76829
4.95897
4.86943
4.77678
4.6403
4.46668
4.26073
4.0187
3.75347
1.40001
1.40001
1.40001
1.40001
1.40001
1.40001
1.40001
1.40001
1.40001
1.40001
1.40001
1.40001
1.40001
1.4
1.39995
2.47519
4.76257
4.84549
4.77248
4.64125
4.46858
4.26318
4.02922
3.78547
1.40001
1.40001
1.40001
1.40001
1.40001
1.40001
1.40001
1.40001
1.40001
1.40001
1.40001
1.40001
1.40001
1.40001
1.39999
1.57843
4.02282
4.86108
4.76924
4.63007
4.45889
4.26308
4.04564
3.81883
1.40001
1.40001
1.40001
1.40001
1.40001
1.40001
1.40001
1.40001
1.40001
1.40001
1.40001
1.40001
1.40001
1.40001
1.4
1.40341
2.7185
4.67532
4.7404
4.60674
4.44952
4.26617
4.06763
3.85857
1.40001
1.40001
1.40001
1.40001
1.40001
1.40001
1.40001
1.40001
1.40001
1.40001
1.40001
1.40001
1.40001
1.40001
1.4
1.4
1.66043
4.03503
4.77356
4.61701
4.46168
4.28054
4.09331
3.89929
1.40001
1.40001
1.40001
1.40001
1.40001
1.40001
1.40001
1.40001
1.40001
1.40001
1.40001
1.40001
1.40001
1.40001
1.40001
1.4
1.40801
2.68692
4.58385
4.60174
4.45796
4.28982
4.11454
3.93729
1.40001
1.40001
1.40001
1.40001
1.40001
1.40001
1.40001
1.40001
1.40001
1.40001
1.40001
1.40001
1.40001
1.40001
1.40001
1.40001
1.40003
1.64097
3.84295
4.6599
4.49174
4.33113
4.1605
3.99249
1.40001
1.40001
1.40001
1.40001
1.40001
1.40001
1.40001
1.40001
1.40001
1.40001
1.40001
1.40001
1.40001
1.40001
1.40001
1.40001
1.40001
1.4071
2.39038
4.34882
4.51553
4.3685
4.20825
4.04418
1.40001
1.40001
1.40001
1.40001
1.40001
1.40001
1.40001
1.40001
1.40001
1.40001
1.40001
1.40001
1.40001
1.40001
1.40001
1.40001
1.40001
1.40004
1.53559
3.37758
4.54478
4.42865
4.27472
4.10325
1.40001
1.40001
1.40001
1.40001
1.40001
1.40001
1.40001
1.40001
1.40001
1.40001
1.40001
1.40001
1.40001
1.40001
1.40001
1.40001
1.40001
1.40001
1.40263
2.00022
4.0378
4.47593
4.32118
4.12177
1.40001
1.40001
1.40001
1.40001
1.40001
1.40001
1.40001
1.40001
1.40001
1.40001
1.40001
1.40001
1.40001
1.40001
1.40001
1.40001
1.40001
1.40001
1.40002
1.44659
2.72171
4.32832
4.30095
4.1585
1.40001
1.40001
1.40001
1.40001
1.40001
1.40001
1.40001
1.40001
1.40001
1.40001
1.40001
1.40001
1.40001
1.40001
1.40001
1.40001
1.40001
1.40001
1.40001
1.40062
1.64381
3.482
4.16856
4.51585
1.40001
1.40001
1.40001
1.40001
1.40001
1.40001
1.40001
1.40001
1.40001
1.40001
1.40001
1.40001
1.40001
1.40001
1.40001
1.40001
1.40001
1.40001
1.40001
1.40001
1.40893
2.06447
3.68888
5.58888
1.40001
1.40001
1.40001
1.40001
1.40001
1.40001
1.40001
1.40001
1.40001
1.40001
1.40001
1.40001
1.40001
1.40001
1.40001
1.40001
1.40001
1.40001
1.40001
1.40001
1.40008
1.45575
3.30786
6.20376
1.40001
1.40001
1.40001
1.40001
1.40001
1.40001
1.40001
1.40001
1.40001
1.40001
1.40001
1.40001
1.40001
1.40001
1.40001
1.40001
1.40001
1.40001
1.40001
1.40001
1.40001
1.40107
3.06091
5.84394
1.40001
1.40001
1.40001
1.40001
1.40001
1.40001
1.40001
1.40001
1.40001
1.40001
1.40001
1.40001
1.40001
1.40001
1.40001
1.40001
1.40001
1.40001
1.40001
1.40001
1.40001
1.40001
3.05056
5.41955
1.40001
1.40001
1.40001
1.40001
1.40001
1.40001
1.40001
1.40001
1.40001
1.40001
1.40001
1.40001
1.40001
1.40001
1.40001
1.40001
1.40001
1.40001
1.40001
1.40001
1.40001
1.40001
2.991
5.20528
1.40001
1.40001
1.40001
1.40001
1.40001
1.40001
1.40001
1.40001
1.40001
1.40001
1.40001
1.40001
1.40001
1.40001
1.40001
1.40001
1.40001
1.40001
1.40001
1.40001
1.40001
1.40001
2.85967
5.14423
1.40001
1.40001
1.40001
1.40001
1.40001
1.40001
1.40001
1.40001
1.40001
1.40001
1.40001
1.40001
1.40001
1.40001
1.40001
1.40001
1.40001
1.40001
1.40001
1.40001
1.40001
1.40001
2.69531
5.12161
1.40001
1.40001
1.40001
1.40001
1.40001
1.40001
1.40001
1.40001
1.40001
1.40001
1.40001
1.40001
1.40001
1.40001
1.40001
1.40001
1.40001
1.40001
1.40001
1.40001
1.40001
1.40001
2.52345
5.09746
1.40001
1.40001
1.40001
1.40001
1.40001
1.40001
1.40001
1.40001
1.40001
1.40001
1.40001
1.40001
1.40001
1.40001
1.40001
1.40001
1.40001
1.40001
1.40001
1.40001
1.40001
1.40001
2.38001
5.05231
1.40001
1.40001
1.40001
1.40001
1.40001
1.40001
1.40001
1.40001
1.40001
1.40001
1.40001
1.40001
1.40001
1.40001
1.40001
1.40001
1.40001
1.40001
1.40001
1.40001
1.40001
1.40001
2.28528
5.00144
1.40001
1.40001
1.40001
1.40001
1.40001
1.40001
1.40001
1.40001
1.40001
1.40001
1.40001
1.40001
1.40001
1.40001
1.40001
1.40001
1.40001
1.40001
1.40001
1.40001
1.40001
1.40001
2.23091
4.95729
1.40001
1.40001
1.40001
1.40001
1.40001
1.40001
1.40001
1.40001
1.40001
1.40001
1.40001
1.40001
1.40001
1.40001
1.40001
1.40001
1.40001
1.40001
1.40001
1.40001
1.40001
1.40001
2.21046
4.92824
1.3456
0.524867
0.192067
0.184271
0.214843
0.284025
0.386782
0.494178
0.618605
0.7137
0.79454
0.831244
0.864641
0.915832
0.975888
1.01474
1.05071
1.06138
1.05221
1.03619
1.19632
2.32368
2.7048
2.7658
2.82548
2.87642
2.90685
2.90669
2.88722
2.86872
2.8692
2.88529
2.9012
2.90417
2.88741
2.86011
2.83651
2.82232
2.81667
2.81565
2.81155
2.79663
2.77268
2.74732
2.72422
2.70386
2.68374
2.6589
2.62946
2.60244
2.58326
2.57158
2.55595
2.52959
2.49961
2.46908
2.44237
2.42184
2.41213
2.39961
2.37503
2.34801
2.31828
2.29081
2.26705
2.24691
2.2301
2.20702
2.1807
2.15073
2.11654
2.0855
2.06258
2.04341
2.02738
2.00945
1.98907
1.96466
1.93292
1.90026
1.87858
1.86332
1.84938
1.83492
1.81882
1.79901
1.77317
1.7478
1.7308
1.71736
1.70399
1.68907
1.66983
1.64163
1.61224
1.58036
1.98305
1.2462
0.855415
0.657233
0.606959
0.571897
0.556729
0.564347
0.56988
0.593152
0.645393
0.707473
0.765339
0.825278
0.894475
0.954274
0.997526
1.03112
1.06243
1.06191
1.17294
2.26881
2.78527
2.85385
2.89589
2.91578
2.92702
2.93201
2.92559
2.90932
2.89576
2.89012
2.89267
2.90134
2.90742
2.89577
2.86817
2.84061
2.82015
2.81172
2.81509
2.81744
2.79934
2.76664
2.73296
2.70286
2.6836
2.67096
2.65501
2.63181
2.60554
2.57748
2.55034
2.52848
2.50872
2.4855
2.46056
2.43812
2.4195
2.40007
2.37916
2.35514
2.32969
2.30205
2.27443
2.25007
2.22845
2.20944
2.18684
2.16184
2.13343
2.10068
2.06842
2.04419
2.02541
2.00926
1.99093
1.96986
1.94481
1.91446
1.88403
1.86328
1.8487
1.83569
1.82071
1.80322
1.78173
1.75639
1.73213
1.71456
1.70102
1.68791
1.67147
1.64893
1.62387
1.5876
2.48484
1.79937
1.39507
1.14092
0.988641
0.856187
0.732073
0.678107
0.657197
0.657981
0.677267
0.728212
0.782787
0.811082
0.845049
0.906374
0.959515
1.00952
1.08236
1.11302
1.17604
2.24872
3.03124
3.02601
3.01845
3.02587
3.01792
3.01215
3.01856
3.029
3.02215
2.99866
2.97388
2.95748
2.95818
2.96787
2.96299
2.93692
2.90432
2.87832
2.86533
2.86852
2.86786
2.84374
2.80877
2.76723
2.73379
2.71002
2.7
2.69414
2.6725
2.63958
2.59755
2.55964
2.53411
2.51439
2.50115
2.48646
2.46225
2.43405
2.40586
2.38148
2.35939
2.3368
2.31282
2.28498
2.25385
2.22547
2.2021
2.1811
2.16002
2.13689
2.10748
2.07212
2.03835
2.0139
1.99534
1.97876
1.96123
1.94183
1.91502
1.88212
1.85525
1.83826
1.82414
1.81015
1.79518
1.77825
1.75551
1.72783
1.70269
1.68382
1.66722
1.6518
1.63652
1.60841
2.82615
2.27489
1.85181
1.52049
1.33272
1.2045
1.05421
0.900146
0.859445
0.847377
0.8273
0.804273
0.78946
0.775399
0.78082
0.809144
0.858418
0.927525
1.01305
1.08097
1.19208
1.94496
3.24732
3.31454
3.23948
3.18933
3.1601
3.14109
3.13859
3.15131
3.15168
3.13347
3.10082
3.06917
3.05237
3.04583
3.04739
3.0359
3.01243
2.98375
2.96086
2.94638
2.93499
2.91526
2.88943
2.85907
2.82371
2.79604
2.77835
2.76353
2.73826
2.70857
2.67118
2.62976
2.59822
2.57498
2.55831
2.54033
2.51657
2.48988
2.45923
2.42988
2.40536
2.38297
2.3604
2.33589
2.30745
2.27597
2.24602
2.21985
2.19688
2.17485
2.15043
2.11941
2.0834
2.05192
2.02776
2.00774
1.9899
1.97228
1.95142
1.92084
1.88508
1.85916
1.84102
1.8262
1.81301
1.79945
1.78347
1.75894
1.72517
1.69756
1.67966
1.66416
1.65043
1.63856
3.03383
2.5835
2.21735
1.88871
1.62361
1.46819
1.34688
1.19954
1.04335
0.976668
0.948075
0.919681
0.89257
0.85824
0.820397
0.804699
0.806891
0.826308
0.874179
1.01825
1.24947
1.57917
2.74047
3.43271
3.46821
3.391
3.29289
3.24429
3.24172
3.25253
3.26351
3.25113
3.22588
3.18735
3.15682
3.13909
3.12936
3.12686
3.11334
3.09235
3.0655
3.03759
3.01296
2.98926
2.96542
2.94124
2.91579
2.8927
2.86948
2.84224
2.81268
2.7801
2.74222
2.70371
2.67653
2.65438
2.63212
2.60774
2.58197
2.55318
2.52125
2.49077
2.46515
2.44157
2.41751
2.39179
2.36337
2.3321
2.30092
2.27344
2.24878
2.22398
2.1967
2.16548
2.13174
2.09987
2.07362
2.05285
2.03416
2.01497
1.99249
1.96134
1.92177
1.89123
1.87349
1.85858
1.84371
1.82837
1.81121
1.78738
1.75323
1.72365
1.70693
1.69303
1.68403
1.69607
3.20025
2.8063
2.4777
2.1931
1.91564
1.68401
1.55449
1.44655
1.32596
1.1852
1.07188
1.04383
1.03684
1.00449
0.943026
0.878119
0.861143
0.875529
0.954822
1.14585
1.41205
1.47537
1.81212
2.88806
3.4805
3.50474
3.42131
3.32828
3.30993
3.31045
3.32268
3.32403
3.30195
3.2688
3.22821
3.2041
3.18769
3.18312
3.1783
3.15805
3.1301
3.09332
3.06242
3.03951
3.02032
3.00378
2.98385
2.95791
2.92736
2.89604
2.86592
2.8352
2.80183
2.76738
2.73843
2.71374
2.68896
2.66378
2.63755
2.60886
2.57678
2.54374
2.51496
2.49003
2.46569
2.44017
2.41231
2.38148
2.34904
2.31895
2.29272
2.26749
2.24091
2.21253
2.18255
2.15111
2.12054
2.09525
2.07473
2.05497
2.03259
2.00357
1.96549
1.92864
1.90734
1.89307
1.87868
1.86331
1.84584
1.82202
1.7871
1.75145
1.73414
1.72745
1.73198
1.79566
3.31747
2.97501
2.66152
2.40051
2.17042
1.94339
1.71867
1.58828
1.51821
1.42375
1.30662
1.17756
1.11409
1.09104
1.04777
0.996862
1.00244
1.05408
1.23212
1.43887
1.56706
1.5574
1.55846
1.86729
2.84136
3.45893
3.4933
3.42755
3.36747
3.34536
3.33965
3.35476
3.34272
3.31752
3.28031
3.24768
3.22723
3.21594
3.21294
3.19472
3.16816
3.13108
3.09827
3.07672
3.06085
3.04706
3.02503
2.99663
2.96095
2.92783
2.90063
2.87438
2.84673
2.81562
2.78159
2.75107
2.72538
2.70116
2.67679
2.65095
2.62115
2.58548
2.54973
2.52135
2.49724
2.4737
2.44922
2.42229
2.39097
2.35574
2.32239
2.29436
2.26955
2.24595
2.22182
2.195
2.16428
2.13277
2.10589
2.08291
2.06007
2.03498
2.00583
1.97222
1.94106
1.92141
1.90677
1.89127
1.87404
1.85278
1.82489
1.78816
1.76949
1.77248
1.79936
1.94897
3.41008
3.10989
2.82668
2.5568
2.33715
2.15286
1.95717
1.7585
1.61967
1.56609
1.49376
1.38097
1.25259
1.18264
1.14748
1.18163
1.26832
1.39409
1.60553
1.69531
1.68201
1.64057
1.60742
1.62596
1.88983
2.73679
3.384
3.49952
3.44014
3.38827
3.35448
3.36131
3.36832
3.3488
3.31941
3.28015
3.25456
3.23685
3.2303
3.21758
3.19456
3.16262
3.12685
3.10364
3.08625
3.06934
3.04601
3.01772
2.98151
2.94885
2.9243
2.90047
2.87473
2.84488
2.80918
2.77461
2.74803
2.72487
2.702
2.67799
2.6501
2.61401
2.57254
2.53969
2.51595
2.49451
2.47291
2.44932
2.42006
2.38073
2.33829
2.30814
2.287
2.26767
2.24755
2.22478
2.19664
2.16182
2.12685
2.09918
2.07632
2.05496
2.03325
2.00774
1.97529
1.94412
1.92475
1.9091
1.89197
1.87297
1.85558
1.83268
1.82491
1.853
1.94339
2.14262
3.48257
3.20846
2.95414
2.71279
2.47833
2.28505
2.13354
1.96205
1.78788
1.6702
1.60097
1.51425
1.41927
1.33841
1.34876
1.48216
1.61808
1.74321
1.84526
1.84243
1.8201
1.79123
1.76144
1.73461
1.7417
1.92487
2.63707
3.286
3.47259
3.4412
3.39009
3.37709
3.38954
3.37761
3.35387
3.31414
3.27886
3.25778
3.24608
3.23863
3.21964
3.1928
3.15531
3.12482
3.10364
3.08358
3.06046
3.03433
3.0021
2.96854
2.94183
2.9177
2.89256
2.86487
2.83261
2.79755
2.7665
2.74106
2.71768
2.69376
2.66689
2.63339
2.59289
2.55568
2.52925
2.50827
2.48801
2.46617
2.43867
2.39817
2.34901
2.31708
2.29863
2.28149
2.26342
2.24327
2.21807
2.18262
2.13914
2.10545
2.08459
2.06785
2.05134
2.03233
2.00581
1.9684
1.93531
1.91777
1.90253
1.89092
1.8862
1.892
1.92978
2.04602
2.18451
2.30502
3.5411
3.29349
3.05401
2.83577
2.61957
2.4192
2.25908
2.11852
1.95598
1.79871
1.69901
1.62707
1.59381
1.6077
1.75169
1.94585
1.96949
1.99213
1.98387
1.96712
1.96274
1.94373
1.91475
1.87524
1.84243
1.85334
1.97321
2.50003
3.1468
3.41343
3.43408
3.40824
3.41556
3.40796
3.38619
3.35012
3.30603
3.28145
3.26582
3.25989
3.24398
3.21958
3.18283
3.14318
3.11816
3.0971
3.07556
3.05221
3.02468
2.99087
2.95692
2.9289
2.9038
2.87882
2.85194
2.8211
2.78698
2.75508
2.72798
2.70255
2.67605
2.64651
2.61221
2.57466
2.54145
2.51644
2.49493
2.47293
2.44686
2.4112
2.36622
2.32778
2.3052
2.28823
2.27122
2.25327
2.23184
2.19999
2.15147
2.1076
2.08749
2.07369
2.06002
2.04475
2.02454
1.99237
1.95029
1.92278
1.91216
1.91346
1.93758
2.00347
2.13979
2.29173
2.39808
2.41588
3.59236
3.36853
3.14037
2.93673
2.74549
2.55045
2.3747
2.23771
2.09367
1.94201
1.82091
1.83105
1.90589
2.0085
2.21969
2.28194
2.22895
2.17615
2.12826
2.11097
2.11086
2.08807
2.05185
2.01396
1.98075
1.95248
1.95657
2.01612
2.36307
2.96681
3.3326
3.40606
3.44728
3.4463
3.42148
3.38394
3.33505
3.30689
3.29037
3.28444
3.26867
3.24375
3.20614
3.16117
3.13303
3.11253
3.09485
3.07457
3.04937
3.01526
2.97336
2.93904
2.91429
2.89168
2.86847
2.84223
2.80957
2.77157
2.73749
2.70993
2.68463
2.65893
2.63027
2.59555
2.55675
2.5237
2.49831
2.47478
2.44938
2.42059
2.38719
2.34869
2.31367
2.29109
2.274
2.25697
2.23782
2.21154
2.16983
2.11951
2.08926
2.07426
2.06128
2.04766
2.03126
2.00938
1.9758
1.94224
1.93918
1.96077
2.05545
2.19893
2.36564
2.46833
2.48481
2.46091
3.64401
3.43758
3.22765
3.03206
2.84829
2.66479
2.49113
2.33675
2.21124
2.09536
2.09574
2.25714
2.3622
2.42924
2.48885
2.4659
2.39607
2.32578
2.28228
2.26641
2.2579
2.23174
2.17937
2.14229
2.10746
2.07614
2.05006
2.0359
2.05598
2.24946
2.75616
3.19584
3.37666
3.47291
3.46061
3.42327
3.36257
3.32988
3.31259
3.30785
3.29306
3.26774
3.2281
3.17949
3.14964
3.1306
3.1166
3.09814
3.07361
3.03935
2.99163
2.95065
2.92626
2.90538
2.88391
2.85997
2.82978
2.78959
2.74762
2.71705
2.69384
2.6715
2.64685
2.61594
2.57474
2.53069
2.49807
2.47397
2.45188
2.43
2.40552
2.37323
2.33151
2.29453
2.27212
2.25497
2.23695
2.21557
2.18701
2.14772
2.10318
2.07294
2.05688
2.04381
2.03035
2.01878
2.00559
1.99935
2.03144
2.1278
2.30232
2.41159
2.47187
2.50485
2.5138
2.48789
3.69876
3.50344
3.31089
3.11902
2.93933
2.76384
2.5863
2.45504
2.41467
2.44162
2.60148
2.78466
2.75657
2.72347
2.67415
2.61982
2.5554
2.48517
2.44411
2.41612
2.39294
2.36709
2.31901
2.26627
2.23318
2.20039
2.17073
2.13383
2.10081
2.09688
2.18178
2.54107
3.0209
3.35122
3.46696
3.45841
3.3911
3.35745
3.33543
3.32854
3.31381
3.28925
3.24847
3.20106
3.17029
3.15223
3.13785
3.11768
3.09281
3.05954
3.01331
2.96787
2.93988
2.91909
2.89815
2.87512
2.84706
2.80943
2.76436
2.72742
2.70302
2.68251
2.66099
2.63464
2.5961
2.5425
2.49622
2.47136
2.45413
2.43746
2.41895
2.39503
2.3587
2.31008
2.27104
2.24898
2.23213
2.21501
2.1962
2.17134
2.13285
2.08543
2.05646
2.04235
2.03366
2.03548
2.05996
2.12664
2.25233
2.41662
2.53053
2.55288
2.54489
2.52991
2.53354
2.5151
3.7577
3.56912
3.38403
3.19964
3.01834
2.8597
2.7096
2.73343
2.87696
2.96838
3.07269
3.07914
2.97699
2.88834
2.83309
2.79222
2.73507
2.65161
2.5957
2.55512
2.52294
2.49503
2.45649
2.3942
2.35245
2.31486
2.28258
2.25031
2.2057
2.15556
2.14073
2.16995
2.37695
2.82576
3.26073
3.39889
3.4024
3.3885
3.37824
3.35135
3.32727
3.29927
3.26212
3.23012
3.20459
3.18057
3.15572
3.1303
3.1034
3.07231
3.03505
2.99371
2.95836
2.93322
2.91101
2.88757
2.86069
2.8275
2.78615
2.74331
2.7111
2.68821
2.66741
2.64442
2.61306
2.56519
2.50968
2.47395
2.4553
2.43952
2.424
2.40681
2.38207
2.33963
2.28455
2.24592
2.22549
2.21055
2.19649
2.1801
2.15513
2.11432
2.07101
2.05414
2.05773
2.0966
2.20313
2.34758
2.502
2.63062
2.6452
2.62909
2.59547
2.56577
2.55196
2.53157
3.82
3.63264
3.4492
3.26184
3.12455
3.03498
3.09741
3.30939
3.42219
3.42571
3.36666
3.2643
3.15054
3.04257
2.99275
2.9634
2.90615
2.81219
2.73788
2.69573
2.65982
2.62691
2.58674
2.52513
2.46546
2.42691
2.38949
2.35911
2.32352
2.26934
2.20578
2.16207
2.17165
2.28268
2.63425
3.07797
3.28696
3.38441
3.41382
3.37805
3.33777
3.30287
3.27821
3.26067
3.24011
3.2086
3.17081
3.1368
3.10827
3.08195
3.05455
3.02126
2.9817
2.9477
2.9219
2.89756
2.87187
2.84304
2.80785
2.76457
2.72177
2.69024
2.66639
2.64407
2.61856
2.58589
2.54324
2.49615
2.4592
2.43755
2.42113
2.40563
2.38799
2.36147
2.31703
2.26346
2.22499
2.20491
2.19163
2.17932
2.16333
2.14494
2.11569
2.11952
2.16607
2.29249
2.45429
2.57864
2.65468
2.69238
2.68647
2.66911
2.64395
2.61103
2.57946
2.5526
3.86264
3.67903
3.50607
3.35179
3.37207
3.52385
3.73874
3.79167
3.7215
3.65827
3.54494
3.42875
3.33079
3.22241
3.15971
3.12068
3.06185
2.9727
2.88679
2.84193
2.80001
2.75915
2.71248
2.65217
2.57622
2.53411
2.49832
2.46099
2.42742
2.38366
2.31971
2.24661
2.2065
2.21007
2.25532
2.46683
2.83908
3.18089
3.35464
3.36073
3.34779
3.32159
3.31316
3.29809
3.27097
3.23027
3.177
3.13974
3.11606
3.09467
3.07223
3.04389
3.00416
2.96195
2.93146
2.90622
2.88127
2.85532
2.82578
2.78755
2.74024
2.69616
2.66332
2.6374
2.61542
2.59452
2.56923
2.53365
2.48457
2.43961
2.41621
2.40173
2.38834
2.36889
2.3382
2.29707
2.24918
2.20908
2.18655
2.17539
2.17309
2.18214
2.2137
2.30117
2.43957
2.61274
2.69739
2.71917
2.71681
2.70918
2.71053
2.70363
2.68993
2.67061
2.63951
2.58674
3.90284
3.74664
3.62644
3.73691
3.98682
4.17709
4.21451
4.08081
3.91092
3.80561
3.70507
3.599
3.51134
3.40678
3.32057
3.26858
3.21215
3.13183
3.03793
2.98739
2.94087
2.89119
2.83891
2.77623
2.70205
2.63857
2.60513
2.56847
2.52755
2.48589
2.43101
2.36066
2.3026
2.25817
2.2421
2.25986
2.35576
2.61805
2.98273
3.22992
3.28139
3.3295
3.35299
3.33635
3.30149
3.24212
3.17652
3.14413
3.1253
3.10958
3.08943
3.06159
3.02246
2.97458
2.93633
2.90869
2.88446
2.85998
2.83509
2.80395
2.76203
2.71269
2.66797
2.63365
2.60902
2.59
2.57322
2.55357
2.523
2.47651
2.42846
2.39358
2.36774
2.34827
2.32981
2.31061
2.28228
2.24184
2.20359
2.19593
2.21198
2.28007
2.42163
2.56854
2.72961
2.82445
2.82315
2.79799
2.75929
2.74167
2.73693
2.73813
2.73293
2.71799
2.69429
2.63709
3.95811
3.90661
4.11027
4.45253
4.55405
4.55262
4.43309
4.24695
4.07075
3.96673
3.89394
3.78667
3.68826
3.59667
3.49611
3.43084
3.37375
3.29302
3.19046
3.12701
3.08274
3.02776
2.97261
2.90631
2.82735
2.75638
2.70864
2.67176
2.6296
2.58227
2.53199
2.46754
2.4055
2.35504
2.30649
2.27521
2.26784
2.29159
2.42131
2.72531
3.01867
3.22963
3.33092
3.34067
3.31659
3.24277
3.18252
3.15627
3.14193
3.12812
3.10577
3.07531
3.02808
2.98203
2.94351
2.91262
2.89094
2.87395
2.84793
2.81316
2.7716
2.72883
2.68767
2.64586
2.61402
2.59804
2.58608
2.56949
2.54584
2.507
2.45386
2.39794
2.35983
2.33857
2.32416
2.31267
2.30362
2.28414
2.26567
2.29097
2.37785
2.54759
2.69092
2.78897
2.87911
2.89533
2.88365
2.85459
2.81328
2.78855
2.77972
2.7749
2.76768
2.75236
2.73137
2.68686
4.2233
4.57673
4.95516
5.0062
4.87876
4.74311
4.57926
4.39711
4.24091
4.14929
4.08441
3.9788
3.85907
3.77977
3.68123
3.59836
3.53611
3.45074
3.34195
3.26537
3.22069
3.16637
3.10465
3.03743
2.95287
2.87306
2.8171
2.77257
2.72917
2.68141
2.62716
2.56694
2.49947
2.44207
2.39611
2.34771
2.30016
2.27572
2.26567
2.30796
2.49987
2.8097
3.1282
3.2688
3.2646
3.23132
3.19239
3.17033
3.16421
3.14441
3.11134
3.05838
3.00918
2.98292
2.96194
2.93791
2.90167
2.84905
2.80641
2.77428
2.7468
2.72598
2.70547
2.67886
2.64033
2.58948
2.55294
2.53613
2.52158
2.5058
2.47283
2.42836
2.38357
2.3417
2.32411
2.31653
2.31975
2.34548
2.42239
2.55318
2.72002
2.8568
2.89809
2.92824
2.93968
2.93385
2.91977
2.90037
2.87757
2.8506
2.82751
2.81292
2.79843
2.7812
2.76469
2.73425
5.05379
5.45668
5.46741
5.25822
5.06387
4.90462
4.75838
4.59351
4.44917
4.36353
4.28953
4.17986
4.0397
3.95163
3.86958
3.76844
3.69437
3.61057
3.50011
3.41322
3.35643
3.30109
3.23404
3.16
3.07694
2.99066
2.92587
2.87416
2.82515
2.7752
2.71941
2.65529
2.58638
2.52311
2.4692
2.4232
2.3748
2.31631
2.27685
2.24121
2.24201
2.33129
2.58415
2.91449
3.08055
3.15369
3.18023
3.17637
3.14555
3.10558
3.05837
3.02452
3.00537
2.98445
2.96049
2.92976
2.88621
2.82584
2.76926
2.75029
2.7436
2.73532
2.71923
2.69608
2.65563
2.59478
2.54302
2.51375
2.49372
2.47572
2.46161
2.44434
2.40803
2.35695
2.33801
2.34389
2.39812
2.54047
2.71582
2.87283
3.00519
3.0237
3.00359
2.97988
2.9639
2.95437
2.9543
2.94379
2.93035
2.90906
2.87485
2.84685
2.82832
2.81236
2.80075
2.7764
5.89904
5.87608
5.69087
5.43609
5.22489
5.08355
4.95285
4.78971
4.64325
4.56004
4.48029
4.36622
4.21771
4.10842
4.04065
3.94199
3.84669
3.76622
3.66126
3.56101
3.48891
3.42309
3.35437
3.27681
3.19129
3.10509
3.03016
2.97027
2.91469
2.85809
2.79841
2.73253
2.66112
2.59425
2.53703
2.48392
2.43443
2.37846
2.31362
2.25229
2.21986
2.18656
2.21012
2.35759
2.61604
2.86874
3.06217
3.10534
3.08071
3.04117
2.99193
2.96085
2.94681
2.93345
2.91366
2.88614
2.85197
2.80782
2.75553
2.70869
2.6899
2.67939
2.66787
2.65236
2.63218
2.59496
2.53664
2.49508
2.47427
2.45619
2.43464
2.41598
2.40364
2.38341
2.40031
2.48337
2.66574
2.85548
2.96334
3.06225
3.09109
3.07822
3.04436
3.00769
2.99039
2.98388
2.98919
2.98279
2.96724
2.94158
2.90063
2.86441
2.84533
2.8329
2.82561
2.80331
6.17338
5.92904
5.71234
5.49504
5.34887
5.24775
5.12999
4.96993
4.8206
4.73078
4.65052
4.53422
4.3851
4.26035
4.18849
4.10707
3.99691
3.90502
3.80735
3.69925
3.61297
3.53775
3.46214
3.38217
3.29443
3.20479
3.12392
3.05643
2.99625
2.93509
2.86982
2.80127
2.7265
2.65435
2.59798
2.54773
2.49659
2.44375
2.37741
2.30001
2.22576
2.16895
2.12668
2.13181
2.18649
2.36443
2.64812
2.87514
2.94675
2.96424
2.95099
2.92202
2.89182
2.86224
2.83509
2.81106
2.79038
2.76973
2.73599
2.68551
2.64608
2.63119
2.61863
2.60396
2.58549
2.55921
2.52009
2.47002
2.43259
2.41099
2.40005
2.4032
2.42104
2.48801
2.62541
2.81501
2.99236
3.04376
3.07019
3.0942
3.10111
3.08532
3.06322
3.03875
3.01976
3.0116
3.00637
2.99951
2.98385
2.95797
2.91965
2.88185
2.86412
2.85444
2.84677
2.8226
5.86822
5.66935
5.5581
5.4655
5.39344
5.32494
5.2144
5.05282
4.92897
4.84832
4.77836
4.66864
4.52567
4.39918
4.32264
4.24965
4.13425
4.01193
3.92196
3.81645
3.7095
3.62065
3.53709
3.45096
3.36156
3.27002
3.18218
3.10375
3.03294
2.96477
2.89489
2.82165
2.74633
2.67156
2.60037
2.53828
2.48018
2.42316
2.36435
2.3019
2.23346
2.17295
2.12103
2.08388
2.04025
2.05171
2.1434
2.36481
2.59451
2.78115
2.88023
2.87559
2.83101
2.76617
2.72799
2.71477
2.70558
2.69405
2.67586
2.64653
2.60112
2.57064
2.5572
2.5435
2.52891
2.51229
2.48446
2.43856
2.39047
2.38335
2.38959
2.43521
2.57449
2.77598
2.95447
3.09433
3.11907
3.0971
3.0911
3.08545
3.08635
3.08254
3.07287
3.05983
3.03771
3.01039
2.99649
2.98668
2.97429
2.96009
2.94013
2.91261
2.88283
2.8492
2.8325
2.81154
5.54445
5.41598
5.38898
5.35264
5.30216
5.23623
5.15666
5.05215
4.95282
4.87453
4.8068
4.69756
4.55558
4.42762
4.34658
4.27445
4.1927
4.06482
3.93072
3.84227
3.76839
3.68983
3.60709
3.51974
3.42792
3.33303
3.24082
3.15703
3.0796
3.00596
2.93371
2.85906
2.7814
2.70283
2.62356
2.55033
2.48339
2.42045
2.36532
2.31506
2.25805
2.19612
2.13376
2.07024
2.01713
1.97458
1.96676
2.00103
2.14435
2.36948
2.60976
2.75703
2.7532
2.69318
2.64262
2.62507
2.61833
2.6155
2.60294
2.5824
2.54462
2.49857
2.47966
2.4691
2.45977
2.44593
2.42556
2.39898
2.37895
2.38622
2.45374
2.63178
2.86936
3.02248
3.11948
3.14684
3.13514
3.10208
3.073
3.05321
3.04243
3.04351
3.04412
3.03903
3.02724
3.00171
2.97758
2.96402
2.95276
2.94011
2.92771
2.91466
2.89139
2.85643
2.82767
2.79763
5.40196
5.29611
5.25281
5.19641
5.15649
5.10575
5.04026
4.95485
4.86691
4.79605
4.73586
4.64416
4.52151
4.4136
4.33731
4.26478
4.17243
4.05903
3.92746
3.82182
3.72995
3.64508
3.562
3.47433
3.38117
3.28645
3.19658
3.11496
3.03912
2.96416
2.88666
2.80753
2.72899
2.65402
2.58669
2.52803
2.471
2.41028
2.34403
2.27455
2.20971
2.15364
2.10642
2.06103
2.01922
1.97161
1.92209
1.87398
1.88172
1.97257
2.16508
2.41254
2.59593
2.60829
2.57988
2.55001
2.53661
2.53168
2.52417
2.51029
2.48431
2.43671
2.40023
2.38552
2.37597
2.37053
2.36575
2.37025
2.39886
2.50905
2.71221
2.94181
3.04612
3.09422
3.13734
3.13493
3.11117
3.06642
3.02221
3.0072
3.00167
3.00492
3.00932
3.00307
2.98992
2.96419
2.94037
2.92924
2.92029
2.91104
2.89965
2.88556
2.86678
2.83975
2.81127
2.77569
5.34921
5.2573
5.21568
5.15308
5.0919
5.0185
4.93862
4.85849
4.78964
4.73388
4.67159
4.57393
4.45816
4.35841
4.28285
4.20829
4.1142
4.00538
3.88459
3.79239
3.70704
3.6208
3.53512
3.44678
3.3542
3.26261
3.17801
3.10008
3.02475
2.94829
2.86805
2.78599
2.7074
2.63655
2.57368
2.51556
2.45781
2.39683
2.33033
2.26029
2.19586
2.14307
2.09856
2.05624
2.01341
1.96301
1.90389
1.84928
1.80486
1.80426
1.84626
1.99213
2.23899
2.42189
2.4924
2.47552
2.46439
2.46015
2.45062
2.43518
2.41671
2.3837
2.33325
2.30897
2.29889
2.30342
2.33718
2.40931
2.5935
2.82305
2.99668
3.0821
3.08582
3.07718
3.07304
3.05951
3.03842
3.01522
2.98629
2.97132
2.96441
2.96203
2.96032
2.95119
2.93697
2.91328
2.8938
2.88507
2.87802
2.87065
2.85871
2.84399
2.82605
2.80327
2.77843
2.74155
5.36531
5.27208
5.22024
5.14506
5.07219
4.99146
4.91278
4.83689
4.76375
4.69262
4.60576
4.50077
4.3976
4.31132
4.2449
4.16847
4.06997
3.95474
3.84469
3.75887
3.67763
3.5938
3.50742
3.41461
3.31782
3.2281
3.14815
3.07403
3.00219
2.92984
2.85306
2.76999
2.68809
2.61622
2.55386
2.49651
2.44043
2.38311
2.32189
2.25491
2.18863
2.1314
2.0838
2.04153
2.00012
1.95479
1.90435
1.85113
1.8029
1.76019
1.74047
1.76237
1.86836
2.06768
2.28959
2.38516
2.40765
2.39002
2.37502
2.35898
2.34157
2.31835
2.27863
2.25402
2.25689
2.2777
2.37495
2.62938
2.88821
3.02204
3.08453
3.07179
3.03353
3.00218
2.99148
2.98766
2.98165
2.97105
2.9545
2.93535
2.92464
2.91813
2.91216
2.90207
2.88748
2.86683
2.84812
2.83792
2.82958
2.82098
2.80888
2.7952
2.77974
2.76189
2.74216
2.70482
5.4028
5.30001
5.24299
5.16737
5.0938
5.01596
4.9384
4.86034
4.77845
4.68752
4.58827
4.4879
4.3944
4.31528
4.23728
4.13821
4.02618
3.91359
3.82173
3.74631
3.67143
3.58862
3.49595
3.39028
3.28946
3.20652
3.13408
3.06619
2.99926
2.92794
2.84693
2.7588
2.67507
2.60423
2.54445
2.49092
2.43886
2.38347
2.32067
2.25106
2.18246
2.12314
2.07476
2.03413
1.99613
1.95658
1.91266
1.86208
1.80624
1.75626
1.71588
1.69297
1.70177
1.76295
1.92692
2.17506
2.30945
2.32261
2.31155
2.2992
2.27981
2.2527
2.23922
2.23392
2.25334
2.37142
2.65474
2.89636
3.01572
3.06891
3.06141
3.03293
2.98882
2.9599
2.94789
2.93963
2.93497
2.92788
2.91863
2.90519
2.88954
2.8789
2.86887
2.85669
2.84266
2.82868
2.81418
2.80027
2.78863
2.77687
2.76398
2.74999
2.73482
2.71834
2.70089
2.66581
5.42933
5.32096
5.26165
5.18754
5.1132
5.0373
4.95898
4.87795
4.79092
4.69668
4.59959
4.50565
4.42069
4.34285
4.24726
4.13624
4.02143
3.91899
3.83595
3.76226
3.67908
3.58581
3.48166
3.37722
3.28714
3.20855
3.13638
3.06735
2.99726
2.91997
2.83531
2.75208
2.67613
2.60808
2.54718
2.49155
2.437
2.3783
2.31397
2.248
2.1841
2.1266
2.0769
2.03477
1.99592
1.95545
1.91161
1.86481
1.81315
1.76283
1.71596
1.67809
1.65824
1.65663
1.6924