/*--------------------------------*- C++ -*----------------------------------*\
  =========                 |
  \\      /  F ield         | OpenFOAM: The Open Source CFD Toolbox
   \\    /   O peration     | Website:  https://openfoam.org
    \\  /    A nd           | Version:  7
     \\/     M anipulation  |
\*---------------------------------------------------------------------------*/
FoamFile
{
    version     2.0;
    format      ascii;
    class       volScalarField;
    location    "6";
    object      T;
}
// * * * * * * * * * * * * * * * * * * * * * * * * * * * * * * * * * * * * * //

dimensions      [0 0 0 1 0 0 0];

internalField   nonuniform List<scalar> 
4032
(
1
1
1
1
1
1
1
1
1
1
1
1.17402
2.41411
2.71631
2.72661
2.74192
2.75534
2.76809
2.77974
2.79004
2.79904
2.80622
2.81164
2.81557
1
1
1
1
1
1
1
1
1
1
1
1.15648
2.4001
2.7152
2.726
2.74058
2.75376
2.76625
2.77758
2.78742
2.79585
2.80247
2.80728
2.81101
1
1
1
1
1
1
1
1
1
1
1
1.10296
2.36238
2.71238
2.72291
2.73761
2.7509
2.76337
2.77454
2.78401
2.79187
2.79784
2.80171
2.80487
1
1
1
1
1
1
1
1
1
1
1
1.00752
2.29428
2.70452
2.71805
2.73299
2.74585
2.75751
2.76803
2.77708
2.78468
2.79032
2.79353
2.79594
1
1
1
1
1
1
1
1
1
1
1
1.00006
2.21225
2.6886
2.70737
2.72293
2.73648
2.74822
2.75845
2.76671
2.77287
2.777
2.77868
2.78144
1
1
1
1
1
1
1
1
1
1
1
1
2.09787
2.66993
2.69821
2.71256
2.72593
2.73692
2.74617
2.75366
2.75923
2.76239
2.7607
2.75508
1
1
1
1
1
1
1
1
1
1
1
1
1.93958
2.63462
2.68242
2.69814
2.71176
2.72203
2.72984
2.73515
2.73678
2.73319
2.72484
2.71762
1
1
1
1
1
1
1
1
1
1
1
1
1.72263
2.56474
2.6558
2.67919
2.69504
2.7054
2.71139
2.71356
2.71069
2.70533
2.69995
2.71097
1
1
1
1
1
1
1
1
1
1
1
1
1.41099
2.44078
2.62942
2.65491
2.67321
2.68479
2.68909
2.68812
2.67988
2.66115
2.60932
2.50759
1
1
1
1
1
1
1
1
1
1
1
1
1.0516
2.30822
2.62982
2.63181
2.64232
2.65327
2.65806
2.6549
2.6418
2.60866
2.55099
2.38657
1
1
1
1
1
1
1
1
1
1
1
1
1.00062
2.14022
2.58874
2.59706
2.60817
2.61576
2.62034
2.61586
2.60073
2.56203
2.49763
2.31461
1
1
1
1
1
1
1
1
1
1
1
1
0.999994
1.83322
2.52398
2.58156
2.58985
2.58899
2.58764
2.57952
2.56059
2.52189
2.44873
2.29071
1
1
1
1
1
1
1
1
1
1
1
1
0.999998
1.37452
2.3799
2.56312
2.56328
2.56179
2.55665
2.54415
2.5212
2.48287
2.4089
2.28801
1
1
1
1
1
1
1
1
1
1
1
1
1
1.03857
2.19476
2.52243
2.53303
2.53221
2.52646
2.51234
2.48818
2.44781
2.3792
2.28818
1
1
1
1
1
1
1
1
1
1
1
1
1
1.00023
1.82839
2.43922
2.51092
2.50796
2.50067
2.48369
2.45916
2.41665
2.35635
2.28381
1
1
1
1
1
1
1
1
1
1
1
1
1
0.999998
1.24087
2.27983
2.49108
2.47787
2.47004
2.45491
2.42891
2.39153
2.33979
2.27845
1
1
1
1
1
1
1
1
1
1
1
1
1
1
1.01345
2.08304
2.44098
2.43176
2.43055
2.4209
2.4004
2.36886
2.32455
2.27144
1
1
1
1
1
1
1
1
1
1
1
1
1
1
1.00001
1.58531
2.32422
2.41231
2.40587
2.3937
2.37432
2.3459
2.3078
2.26237
1
1
1
1
1
1
1
1
1
1
1
1
1
1
0.999998
1.08917
2.11576
2.39053
2.38263
2.3681
2.34752
2.32122
2.28838
2.24977
1
1
1
1
1
1
1
1
1
1
1
1
1
1
0.999999
1.00157
1.66611
2.27704
2.36039
2.34175
2.3222
2.29772
2.26905
2.23584
1
1
1
1
1
1
1
1
1
1
1
1
1
1
1
1
1.1304
2.07708
2.33498
2.31594
2.29962
2.27686
2.25078
2.22133
1
1
1
1
1
1
1
1
1
1
1
1
1
1
1
1
1.00357
1.62593
2.20801
2.29288
2.2734
2.25298
2.23053
2.20576
1
1
1
1
1
1
1
1
1
1
1
1
1
1
1
1
1.00001
1.11857
1.99107
2.268
2.24879
2.23394
2.2149
2.19357
1
1
1
1
1
1
1
1
1
1
1
1
1
1
1
1
1
1.00303
1.47518
2.10192
2.22619
2.2094
2.19443
2.1767
1
1
1
1
1
1
1
1
1
1
1
1
1
1
1
1
1
1.00001
1.06388
1.82963
2.19501
2.18629
2.17395
2.15655
1
1
1
1
1
1
1
1
1
1
1
1
1
1
1
1
1
1
1.00104
1.29058
2.0018
2.16641
2.14869
2.12615
1
1
1
1
1
1
1
1
1
1
1
1
1
1
1
1
1
1
1
1.02045
1.58961
2.06739
2.12175
2.10865
1
1
1
1
1
1
1
1
1
1
1
1
1
1
1
1
1
1
1
1.00021
1.11611
1.83054
2.04606
2.14523
1
1
1
1
1
1
1
1
1
1
1
1
1
1
1
1
1
1
1
1
1.00348
1.31648
1.84265
2.2769
1
1
1
1
1
1
1
1
1
1
1
1
1
1
1
1
1
1
1
1
1.00002
1.02492
1.83206
2.49146
1
1
1
1
1
1
1
1
1
1
1
1
1
1
1
1
1
1
1
1
1
1.00035
1.90194
2.64553
1
1
1
1
1
1
1
1
1
1
1
1
1
1
1
1
1
1
1
1
1
1
1.98385
2.70474
1
1
1
1
1
1
1
1
1
1
1
1
1
1
1
1
1
1
1
1
1
1
1.96281
2.68981
1
1
1
1
1
1
1
1
1
1
1
1
1
1
1
1
1
1
1
1
1
1
1.89986
2.65575
1
1
1
1
1
1
1
1
1
1
1
1
1
1
1
1
1
1
1
1
1
1
1.81744
2.61826
1
1
1
1
1
1
1
1
1
1
1
1
1
1
1
1
1
1
1
1
1
1
1.73518
2.59291
1
1
1
1
1
1
1
1
1
1
1
1
1
1
1
1
1
1
1
1
1
1
1.66778
2.57961
1
1
1
1
1
1
1
1
1
1
1
1
1
1
1
1
1
1
1
1
1
1
1.62491
2.57506
1
1
1
1
1
1
1
1
1
1
1
1
1
1
1
1
1
1
1
1
1
1
1.60042
2.57229
1
1
1
1
1
1
1
1
1
1
1
1
1
1
1
1
1
1
1
1
1
1
1.59312
2.57012
1.68655
1.19345
0.947776
0.977778
1.05792
1.16199
1.30419
1.44892
1.5828
1.63428
1.63263
1.614
1.61873
1.6702
1.75009
1.76905
1.76067
1.72169
1.68236
1.67786
1.87679
2.65015
2.79007
2.78291
2.788
2.79343
2.7937
2.78426
2.76771
2.75427
2.74774
2.7459
2.74335
2.73391
2.71493
2.69341
2.67371
2.65802
2.64677
2.63874
2.63034
2.61893
2.60542
2.59223
2.58069
2.57109
2.56202
2.55107
2.53802
2.52549
2.5152
2.50718
2.4972
2.48225
2.46541
2.44796
2.43195
2.41865
2.41039
2.4019
2.38947
2.37625
2.36216
2.34933
2.33835
2.32932
2.32218
2.31273
2.3021
2.29009
2.27643
2.26395
2.25462
2.24678
2.23995
2.23171
2.22188
2.20978
2.194
2.17737
2.16505
2.15545
2.14607
2.13603
2.12498
2.11214
2.0967
2.08182
2.07128
2.06293
2.05473
2.04622
2.03634
2.02301
2.00974
1.99461
1.91103
1.64452
1.51321
1.37212
1.26536
1.24712
1.25557
1.28696
1.31222
1.34051
1.36749
1.39378
1.42958
1.48424
1.557
1.6181
1.62857
1.6226
1.62166
1.62431
1.75964
2.53521
2.7657
2.76708
2.76979
2.7655
2.75809
2.75061
2.74142
2.73081
2.72055
2.71143
2.70412
2.69756
2.6899
2.67498
2.65529
2.63624
2.62013
2.60925
2.6044
2.59985
2.58818
2.57319
2.55846
2.54523
2.53637
2.53046
2.52347
2.51353
2.50208
2.48917
2.47555
2.46321
2.45134
2.43776
2.42324
2.41001
2.39886
2.38786
2.37677
2.36487
2.35282
2.34026
2.32808
2.31752
2.30836
2.30072
2.29207
2.28265
2.27179
2.25902
2.24627
2.23646
2.22849
2.22152
2.21337
2.20344
2.19108
2.17578
2.16004
2.14806
2.13857
2.12967
2.11969
2.10834
2.09507
2.08025
2.06636
2.05585
2.0478
2.04062
2.03221
2.02143
2.00987
1.99314
2.02638
1.81975
1.68081
1.56216
1.4727
1.39181
1.30599
1.26426
1.25504
1.24847
1.25879
1.29148
1.32226
1.34167
1.36947
1.42089
1.45855
1.4864
1.52164
1.54337
1.5888
2.30647
2.68192
2.6897
2.68402
2.67886
2.66695
2.6589
2.65879
2.66072
2.65683
2.645
2.63065
2.61864
2.61274
2.6095
2.6009
2.58511
2.56763
2.55241
2.54249
2.53976
2.5361
2.52488
2.51099
2.49474
2.48171
2.47301
2.47
2.46864
2.46166
2.44999
2.43376
2.41831
2.40689
2.39711
2.38938
2.38096
2.3689
2.35525
2.34185
2.33056
2.32066
2.31096
2.30108
2.28988
2.27752
2.26672
2.25853
2.25169
2.24497
2.23748
2.22734
2.21411
2.20105
2.19174
2.18457
2.17785
2.17014
2.16095
2.1481
2.13186
2.11785
2.10818
2.0997
2.09113
2.08193
2.0717
2.05883
2.04381
2.03057
2.02073
2.0124
2.00498
1.99782
1.98555
2.10001
1.94364
1.80943
1.68464
1.60556
1.54281
1.46235
1.36954
1.33847
1.32792
1.31357
1.29651
1.28525
1.27666
1.28027
1.29717
1.32834
1.37107
1.42097
1.45962
1.51936
1.9565
2.5101
2.60306
2.57793
2.56335
2.55301
2.54517
2.54432
2.54909
2.5496
2.54351
2.53182
2.51963
2.51156
2.50622
2.50304
2.49528
2.48443
2.47202
2.46149
2.45409
2.4482
2.44006
2.43047
2.41977
2.40792
2.39927
2.39469
2.39164
2.38525
2.37728
2.3665
2.35369
2.34348
2.3355
2.32928
2.32178
2.3115
2.3001
2.28749
2.27568
2.26599
2.25742
2.24904
2.24019
2.23023
2.2194
2.20943
2.20139
2.19509
2.18941
2.1827
2.17329
2.16161
2.15107
2.1429
2.13612
2.12999
2.12354
2.1151
2.10206
2.08631
2.07442
2.06577
2.05852
2.05185
2.04463
2.03587
2.02326
2.00634
1.99219
1.98321
1.9759
1.96938
1.96465
2.14818
2.02107
1.90933
1.79847
1.69887
1.63575
1.58383
1.51527
1.43008
1.3875
1.36977
1.35339
1.34085
1.32209
1.2946
1.28094
1.28215
1.29491
1.32571
1.41036
1.53374
1.69349
2.20636
2.47534
2.51088
2.48989
2.46708
2.45302
2.45209
2.45564
2.45955
2.45668
2.44966
2.43768
2.42741
2.42069
2.41611
2.41377
2.40816
2.40038
2.39048
2.38012
2.37113
2.36294
2.35503
2.34717
2.33912
2.3322
2.3257
2.31848
2.31117
2.30339
2.29404
2.28411
2.27739
2.27174
2.26534
2.25746
2.24858
2.23839
2.22698
2.21608
2.20706
2.19903
2.19116
2.18298
2.17403
2.16415
2.15447
2.14648
2.13989
2.13363
2.12675
2.11844
2.10887
2.09959
2.09211
2.08643
2.08121
2.07548
2.06816
2.05692
2.04162
2.02979
2.02323
2.01764
2.01178
2.00535
1.99765
1.98642
1.97017
1.95593
1.94786
1.94109
1.93634
1.94394
2.18453
2.0777
1.98086
1.89071
1.79554
1.70808
1.6567
1.61202
1.55887
1.49103
1.42955
1.41439
1.41163
1.39364
1.35664
1.31776
1.30832
1.31787
1.36782
1.47577
1.60761
1.63469
1.79634
2.23668
2.42568
2.44887
2.42958
2.40583
2.39867
2.3983
2.40131
2.40163
2.39521
2.38518
2.37262
2.36469
2.35913
2.35683
2.35432
2.34736
2.33813
2.32607
2.31576
2.30801
2.30147
2.29582
2.28927
2.28113
2.2719
2.26292
2.25486
2.24706
2.23865
2.22982
2.22245
2.21611
2.20941
2.20229
2.19453
2.1856
2.17524
2.16439
2.15502
2.1472
2.13988
2.13242
2.1243
2.11517
2.10545
2.0966
2.08932
2.08274
2.07599
2.06875
2.06093
2.0524
2.04382
2.03685
2.03139
2.02604
2.01954
2.01025
1.99705
1.984
1.97709
1.97278
1.96823
1.96302
1.95649
1.94681
1.93195
1.91607
1.90784
1.90302
1.90513
1.93698
2.20231
2.1151
2.0276
1.94936
1.87595
1.79798
1.71288
1.65981
1.63188
1.59227
1.54063
1.47713
1.44298
1.43092
1.40816
1.38078
1.38606
1.42034
1.52231
1.61574
1.66673
1.65931
1.65824
1.81225
2.19468
2.38499
2.41015
2.39034
2.3728
2.36545
2.36246
2.36562
2.36131
2.35313
2.3416
2.33137
2.32476
2.32052
2.31854
2.31231
2.30407
2.29256
2.28185
2.27432
2.26849
2.26334
2.25588
2.24677
2.23575
2.22578
2.21791
2.2106
2.20301
2.19428
2.18442
2.17555
2.16822
2.16143
2.15457
2.14707
2.13808
2.12693
2.11565
2.10694
2.09988
2.0933
2.08663
2.07921
2.07019
2.05961
2.0496
2.04153
2.03477
2.02866
2.02253
2.01545
2.00671
1.99729
1.9893
1.98264
1.97597
1.96837
1.95912
1.94793
1.93739
1.93129
1.927
1.9223
1.91684
1.90961
1.89889
1.88373
1.87457
1.87638
1.88834
1.95319
2.2105
2.1387
2.06486
1.98824
1.92189
1.86308
1.79575
1.72115
1.66555
1.64505
1.61592
1.56733
1.50668
1.47128
1.45372
1.47192
1.51892
1.5852
1.68449
1.71044
1.70241
1.68318
1.66271
1.67026
1.7961
2.12945
2.33996
2.37653
2.36129
2.34526
2.33427
2.33427
2.33475
2.32794
2.31866
2.30676
2.29878
2.29286
2.28998
2.28552
2.27859
2.26903
2.25783
2.24989
2.24363
2.23754
2.22971
2.22065
2.20946
2.1995
2.19214
2.18518
2.17768
2.16876
2.15775
2.14693
2.13875
2.13192
2.12543
2.11869
2.11063
2.09973
2.08685
2.07676
2.06983
2.06394
2.05827
2.05212
2.04406
2.03229
2.01905
2.00993
2.00391
1.99866
1.99334
1.98718
1.97905
1.96823
1.95702
1.94829
1.94126
1.93478
1.92816
1.92006
1.90914
1.89847
1.89238
1.88766
1.88255
1.87671
1.87026
1.86243
1.86138
1.87359
1.91018
1.98684
2.21295
2.1496
2.08693
2.02291
1.95563
1.89675
1.84834
1.78965
1.72576
1.68019
1.65327
1.61793
1.57693
1.54228
1.54953
1.61522
1.67512
1.72864
1.7645
1.76052
1.74813
1.7337
1.71702
1.70252
1.70499
1.78423
2.06721
2.2787
2.33204
2.32527
2.3115
2.30519
2.30751
2.30315
2.29571
2.28401
2.27355
2.26706
2.26311
2.26047
2.25488
2.2472
2.23614
2.22658
2.21958
2.21292
2.2055
2.19736
2.18756
2.17751
2.16968
2.16276
2.15552
2.14723
2.13714
2.1259
2.11597
2.10819
2.10147
2.09487
2.08739
2.07764
2.0654
2.05408
2.04635
2.04063
2.03542
2.02992
2.02261
2.01076
1.99542
1.98562
1.98032
1.97542
1.97034
1.96468
1.95731
1.94617
1.93178
1.92083
1.91437
1.90926
1.90425
1.89834
1.88964
1.87666
1.86518
1.8596
1.85495
1.85123
1.85209
1.85652
1.87455
1.9197
1.97264
2.00954
2.21173
2.1568
2.09998
2.04502
1.98651
1.92846
1.87993
1.8355
1.78024
1.72261
1.68498
1.65665
1.64658
1.65572
1.72199
1.79705
1.80373
1.80886
1.80424
1.79544
1.79069
1.78016
1.76524
1.74641
1.73029
1.7337
1.77946
1.98768
2.19722
2.27447
2.28316
2.27902
2.27994
2.27668
2.2698
2.25955
2.2471
2.24007
2.23552
2.23363
2.22911
2.22247
2.21226
2.20084
2.19338
2.18706
2.18064
2.1737
2.16558
2.1558
2.14624
2.13861
2.1318
2.12473
2.11658
2.1068
2.09596
2.08616
2.07834
2.07143
2.06435
2.05623
2.04641
2.03533
2.02561
2.01871
2.0132
2.00779
2.00113
1.99122
1.97778
1.96594
1.95926
1.95441
1.94953
1.94438
1.93815
1.92841
1.91248
1.8979
1.89204
1.88816
1.88407
1.87925
1.87269
1.86205
1.84706
1.83687
1.83383
1.83577
1.84841
1.87586
1.92914
1.98339
2.02074
2.01899
2.20676
2.15986
2.10799
2.05906
2.01025
1.95682
1.90571
1.86443
1.8182
1.76709
1.72456
1.72999
1.76309
1.80672
1.88654
1.90238
1.8829
1.86136
1.84249
1.83394
1.83119
1.81982
1.80315
1.78551
1.76977
1.75775
1.75465
1.7753
1.90883
2.10869
2.21438
2.23811
2.25174
2.25125
2.24345
2.23328
2.22003
2.21224
2.20774
2.20604
2.20166
2.19501
2.18502
2.17282
2.16513
2.15958
2.15477
2.14911
2.14201
2.13252
2.12107
2.11207
2.10584
2.10001
2.09355
2.08568
2.07567
2.06424
2.05446
2.04709
2.04064
2.03412
2.02653
2.0168
2.00561
1.99638
1.98985
1.98407
1.97782
1.97047
1.96141
1.95013
1.93948
1.93301
1.92835
1.92359
1.91818
1.91049
1.89759
1.88117
1.87174
1.86795
1.86449
1.86044
1.8554
1.84852
1.83647
1.82532
1.82502
1.83472
1.87197
1.92603
1.98472
2.01945
2.01866
2.0096
2.1983
2.15822
2.11385
2.0697
2.02543
1.97788
1.92981
1.88502
1.84693
1.81296
1.8162
1.87708
1.91465
1.93948
1.95651
1.94753
1.92264
1.89704
1.88034
1.87262
1.86732
1.85553
1.83452
1.81765
1.80195
1.78763
1.77604
1.76558
1.7723
1.84305
2.01616
2.14431
2.19482
2.22184
2.21956
2.2096
2.19331
2.18419
2.17956
2.17823
2.17397
2.16703
2.15674
2.14406
2.13631
2.13152
2.12805
2.12325
2.11666
2.10745
2.09471
2.08411
2.07827
2.07332
2.06794
2.06146
2.05286
2.04129
2.02942
2.02129
2.01559
2.0103
2.00432
1.99628
1.98481
1.97234
1.96388
1.95816
1.95308
1.94816
1.94236
1.93378
1.92157
1.91051
1.90449
1.90007
1.89529
1.88945
1.88145
1.86995
1.85596
1.84684
1.84289
1.83956
1.83592
1.83212
1.82842
1.82967
1.84234
1.87841
1.94063
1.97796
1.9942
2.00255
2.00415
1.99542
2.18817
2.15329
2.11522
2.07418
2.0338
1.99112
1.94494
1.90831
1.90365
1.91614
1.97358
2.03138
2.02333
2.01334
1.99756
1.97953
1.95777
1.93354
1.91761
1.90622
1.89642
1.88538
1.86689
1.84576
1.83083
1.81635
1.80281
1.78666
1.77033
1.76634
1.79409
1.91994
2.06482
2.15299
2.18497
2.18323
2.1673
2.15774
2.15226
2.1504
2.14597
2.13887
2.12827
2.11638
2.10861
2.10408
2.1006
2.09558
2.0892
2.08049
2.0684
2.0567
2.04991
2.04512
2.04025
2.03467
2.02749
2.01741
2.00509
1.99521
1.98923
1.98451
1.97963
1.97337
1.96342
1.94859
1.93595
1.93038
1.92711
1.9239
1.92002
1.91434
1.90466
1.8904
1.87894
1.87356
1.86975
1.86581
1.86138
1.85511
1.8445
1.82997
1.82086
1.81738
1.81595
1.81822
1.82957
1.85525
1.90127
1.95801
1.99199
1.99678
1.99281
1.9862
1.98726
1.98095
2.17817
2.14631
2.11231
2.07447
2.03562
2.00023
1.96771
1.9787
2.02764
2.05945
2.09401
2.09606
2.06761
2.04168
2.02538
2.01279
1.99479
1.96795
1.94794
1.93306
1.92095
1.90978
1.89486
1.87189
1.85434
1.8385
1.82416
1.80957
1.78983
1.77071
1.76025
1.7651
1.83519
1.97701
2.09545
2.12989
2.13356
2.13229
2.12988
2.1226
2.11578
2.1075
2.09772
2.0902
2.08414
2.07805
2.07174
2.06546
2.05872
2.05079
2.04134
2.03092
2.02213
2.01616
2.0111
2.00582
1.99963
1.99157
1.98098
1.96972
1.96157
1.95633
1.95182
1.94674
1.93932
1.92722
1.91232
1.90337
1.89996
1.89738
1.89455
1.891
1.88509
1.87357
1.85748
1.84682
1.84254
1.84009
1.83772
1.83451
1.82879
1.81766
1.80266
1.80081
1.80325
1.81993
1.85892
1.90982
1.96066
1.99867
1.99876
1.99222
1.98144
1.97175
1.96706
1.95945
2.16845
2.13796
2.10544
2.07018
2.04331
2.03254
2.05644
2.12201
2.15602
2.16475
2.1504
2.12467
2.09488
2.06542
2.0513
2.04253
2.02546
1.99693
1.97227
1.95724
1.9444
1.93209
1.91696
1.89486
1.87216
1.85603
1.84031
1.8261
1.80992
1.78764
1.76321
1.74266
1.74299
1.77512
1.88655
2.01067
2.06494
2.09241
2.10058
2.0922
2.08293
2.07349
2.06684
2.06287
2.05843
2.05079
2.04116
2.03264
2.02568
2.01933
2.01274
2.00466
1.99496
1.98671
1.98073
1.97539
1.96991
1.96363
1.95544
1.94462
1.93368
1.92612
1.92101
1.91635
1.91089
1.90359
1.89365
1.88183
1.87268
1.86866
1.86625
1.86362
1.85991
1.85334
1.84151
1.8266
1.81651
1.81292
1.8114
1.80971
1.80687
1.80302
1.79769
1.80121
1.81992
1.86431
1.91922
1.95711
1.98006
1.98459
1.98181
1.97585
1.96835
1.95819
1.94739
1.9365
2.1527
2.12455
2.09507
2.07472
2.0857
2.13587
2.19907
2.22452
2.20969
2.1961
2.16975
2.14213
2.11857
2.0913
2.0747
2.06382
2.04704
2.021
1.99412
1.97865
1.96431
1.94987
1.93293
1.91139
1.88473
1.86726
1.85219
1.83617
1.82056
1.80173
1.77643
1.74862
1.73339
1.72502
1.73456
1.80037
1.90959
2.00207
2.04295
2.04703
2.04667
2.04211
2.03966
2.03577
2.02992
2.0206
2.00734
1.99815
1.99278
1.98803
1.98294
1.97637
1.96696
1.9569
1.9499
1.94454
1.93949
1.93426
1.92793
1.91891
1.90719
1.89626
1.88874
1.88373
1.87996
1.87636
1.87172
1.86401
1.85171
1.84053
1.83616
1.83428
1.83245
1.82867
1.82146
1.81134
1.79885
1.78813
1.78332
1.78137
1.78298
1.78974
1.80525
1.83759
1.88489
1.93866
1.9616
1.96736
1.96551
1.96033
1.95946
1.95691
1.95264
1.9462
1.9356
1.91696
2.13159
2.10916
2.10493
2.14047
2.21095
2.26174
2.2853
2.25967
2.22468
2.20268
2.18172
2.15822
2.13834
2.11335
2.0915
2.07754
2.06176
2.03891
2.01118
1.99441
1.97905
1.9623
1.94396
1.92177
1.89606
1.87304
1.85845
1.84306
1.82592
1.80813
1.78646
1.75991
1.73712
1.71843
1.7084
1.70858
1.73393
1.81454
1.91486
1.9751
1.98969
2.00586
2.01353
2.00965
2.00186
1.98828
1.9726
1.96511
1.9612
1.95802
1.95352
1.94737
1.93845
1.92721
1.91831
1.9126
1.90819
1.90375
1.89888
1.89195
1.88188
1.86989
1.85933
1.85237
1.84868
1.84633
1.84397
1.84035
1.83367
1.82227
1.81007
1.8024
1.79802
1.79543
1.7926
1.78876
1.78263
1.77132
1.76201
1.76268
1.77021
1.79617
1.84417
1.89232
1.93911
1.96423
1.96257
1.9561
1.94542
1.93895
1.93663
1.93625
1.93363
1.92762
1.919
1.89983
2.10865
2.11873
2.18351
2.27254
2.30902
2.31384
2.29177
2.25797
2.22511
2.20685
2.19398
2.1719
2.14994
2.12898
2.10485
2.08804
2.0724
2.05016
2.02172
2.00197
1.98734
1.96954
1.95087
1.92854
1.9022
1.87801
1.8601
1.84518
1.8286
1.81019
1.7908
1.76736
1.74417
1.72444
1.70555
1.69327
1.68452
1.68927
1.72794
1.81478
1.89186
1.94534
1.97334
1.97698
1.97163
1.95657
1.94361
1.93778
1.93513
1.93275
1.92798
1.92061
1.90942
1.89882
1.89019
1.88365
1.8797
1.87709
1.8725
1.8655
1.85607
1.846
1.83648
1.82687
1.82108
1.81983
1.81883
1.81634
1.81176
1.80249
1.78911
1.77568
1.768
1.76504
1.76341
1.76217
1.76088
1.75784
1.75802
1.76844
1.79816
1.85092
1.89347
1.92001
1.94285
1.94699
1.94416
1.937
1.92683
1.9195
1.9158
1.91314
1.90962
1.90351
1.89576
1.8804
2.13561
2.22511
2.31408
2.34834
2.32851
2.3076
2.28283
2.25304
2.22564
2.2102
2.19924
2.17886
2.15285
2.13509
2.11333
2.09357
2.07722
2.055
2.02656
2.00441
1.98968
1.97235
1.95286
1.93161
1.90546
1.88033
1.86142
1.84545
1.82961
1.81229
1.79298
1.77214
1.74915
1.72886
1.71174
1.69441
1.6765
1.66868
1.66207
1.67433
1.73183
1.81744
1.90077
1.93316
1.93313
1.92962
1.92402
1.91944
1.91786
1.91378
1.90746
1.89571
1.88352
1.87681
1.87217
1.86696
1.85847
1.8462
1.8377
1.83216
1.82719
1.82289
1.81829
1.81201
1.80229
1.79011
1.78308
1.78127
1.77972
1.77749
1.77034
1.75991
1.7483
1.7387
1.73641
1.73707
1.74067
1.75317
1.78049
1.82014
1.8689
1.90491
1.91538
1.92168
1.92462
1.92213
1.91814
1.91419
1.90977
1.9027
1.895
1.8896
1.88461
1.87877
1.87284
1.86202
2.26178
2.33907
2.35918
2.33203
2.31029
2.29129
2.27286
2.24904
2.22626
2.21324
2.20149
2.18175
2.15344
2.13471
2.11764
2.09566
2.07763
2.05672
2.02931
2.00633
1.98955
1.97273
1.95294
1.93137
1.90745
1.88245
1.86285
1.84645
1.83056
1.81422
1.79603
1.77552
1.75388
1.73385
1.71658
1.70147
1.68575
1.66799
1.65614
1.64599
1.64721
1.67716
1.75285
1.84122
1.88266
1.90281
1.9123
1.91179
1.90414
1.89516
1.88552
1.87867
1.87388
1.8684
1.86261
1.85524
1.84448
1.82932
1.81475
1.81032
1.80944
1.80844
1.80538
1.80013
1.78998
1.77395
1.761
1.75519
1.7515
1.74826
1.74632
1.74291
1.733
1.7213
1.72075
1.72434
1.74447
1.78746
1.83672
1.87909
1.91299
1.91546
1.90999
1.90497
1.90058
1.89735
1.89741
1.89565
1.89378
1.88909
1.87918
1.87026
1.86449
1.85987
1.85628
1.84881
2.37015
2.37411
2.35265
2.32044
2.29515
2.28022
2.26519
2.24222
2.22138
2.21083
2.19964
2.18046
2.15277
2.13127
2.11754
2.09725
2.07628
2.05666
2.03152
2.0078
1.98939
1.97155
1.95247
1.93147
1.9092
1.88663
1.86627
1.84929
1.8333
1.81712
1.80013
1.78133
1.76117
1.74235
1.72582
1.71124
1.69848
1.68358
1.66629
1.65198
1.64258
1.63929
1.65192
1.7022
1.77829
1.84799
1.89842
1.90588
1.90006
1.89037
1.87759
1.86853
1.86484
1.86216
1.8578
1.85045
1.84006
1.82626
1.81028
1.79658
1.79152
1.78918
1.78641
1.78264
1.77803
1.76866
1.75234
1.7404
1.73472
1.7302
1.72529
1.72221
1.7199
1.71837
1.72569
1.75184
1.80302
1.85297
1.87958
1.90565
1.91257
1.90965
1.90072
1.8923
1.8891
1.8879
1.88933
1.88763
1.88404
1.87838
1.86833
1.85856
1.8529
1.84919
1.84708
1.84125
2.47918
2.4267
2.37757
2.33482
2.30916
2.29261
2.27373
2.24829
2.22574
2.21309
2.20094
2.18088
2.15345
2.12946
2.11519
2.09856
2.07653
2.05609
2.03321
2.01052
1.99302
1.9763
1.95814
1.93876
1.91801
1.89695
1.87761
1.86129
1.84671
1.8319
1.81611
1.79948
1.78122
1.76396
1.75135
1.74085
1.73048
1.71943
1.70403
1.68517
1.66613
1.65246
1.64711
1.65228
1.67768
1.73895
1.82527
1.88342
1.9049
1.90291
1.89723
1.88696
1.87698
1.8677
1.85879
1.84974
1.84055
1.83131
1.82006
1.80631
1.79528
1.78938
1.78349
1.77719
1.7706
1.76317
1.75221
1.73629
1.7248
1.71859
1.71568
1.71726
1.72368
1.74399
1.78239
1.83244
1.87948
1.89293
1.90082
1.90899
1.91158
1.90768
1.90209
1.89663
1.89288
1.89116
1.88915
1.88628
1.8813
1.8741
1.86446
1.85591
1.85224
1.84975
1.8473
1.841
2.60266
2.512
2.4477
2.40024
2.36673
2.34054
2.31112
2.27853
2.25451
2.23834
2.22399
2.20224
2.17444
2.15003
2.13524
2.12079
2.09738
2.07345
2.0559
2.0333
2.01034
1.99181
1.97417
1.95548
1.93587
1.91597
1.89712
1.88051
1.8657
1.8515
1.83695
1.82172
1.80589
1.79011
1.77571
1.76346
1.75218
1.74133
1.72998
1.71657
1.70072
1.68689
1.67431
1.66735
1.66243
1.67142
1.70894
1.78341
1.85388
1.91116
1.92408
1.91991
1.90467
1.88216
1.86574
1.85755
1.85145
1.84447
1.83521
1.82292
1.80649
1.79424
1.78707
1.78
1.7729
1.76541
1.7549
1.74011
1.72665
1.72148
1.7222
1.73382
1.77234
1.82695
1.87231
1.90808
1.92065
1.91886
1.92085
1.92104
1.92118
1.91996
1.91736
1.91337
1.90642
1.89741
1.89162
1.88723
1.88233
1.87732
1.87169
1.86481
1.85751
1.84918
1.84508
1.83981
2.68759
2.62588
2.571
2.51815
2.47042
2.42784
2.39003
2.35435
2.3232
2.29874
2.27787
2.25066
2.21955
2.19251
2.1754
2.16049
2.14328
2.11879
2.09259
2.07196
2.05456
2.03801
2.02133
2.00329
1.98389
1.96393
1.94483
1.9277
1.9119
1.89694
1.88244
1.86749
1.85174
1.83545
1.81868
1.80294
1.78872
1.77571
1.765
1.75543
1.7437
1.73024
1.71557
1.69992
1.68615
1.6777
1.68118
1.70035
1.75455
1.83387
1.90496
1.93989
1.935
1.91226
1.88929
1.87892
1.87357
1.86838
1.85797
1.84406
1.82624
1.80798
1.79775
1.78989
1.78189
1.77239
1.76215
1.75103
1.73919
1.73946
1.75793
1.80673
1.87003
1.91111
1.93783
1.954
1.95363
1.94965
1.94634
1.94337
1.94018
1.93939
1.93798
1.93358
1.92633
1.91568
1.90599
1.89913
1.89308
1.88752
1.88294
1.87831
1.87148
1.86266
1.85615
1.84937
2.71685
2.68752
2.65713
2.61749
2.57775
2.53627
2.49476
2.45203
2.41295
2.38085
2.35412
2.324
2.29106
2.26293
2.24258
2.22442
2.20376
2.17924
2.15043
2.12704
2.10643
2.08763
2.06968
2.05058
2.02983
2.00865
1.98881
1.97095
1.9543
1.93778
1.9207
1.90319
1.88571
1.86909
1.85452
1.84197
1.8294
1.81543
1.79944
1.78245
1.76733
1.75515
1.74522
1.73483
1.72426
1.71164
1.69803
1.68892
1.69585
1.73265
1.80568
1.88843
1.94022
1.93729
1.92181
1.90622
1.89692
1.89071
1.88243
1.87058
1.85461
1.83334
1.81627
1.80591
1.79625
1.78707
1.77969
1.77126
1.77627
1.80753
1.86465
1.92401
1.95559
1.97451
1.99285
1.99537
1.99192
1.98401
1.97635
1.97397
1.97161
1.97062
1.96881
1.9622
1.95337
1.94207
1.93125
1.9233
1.91594
1.90937
1.90386
1.8991
1.89405
1.8872
1.88028
1.87184
2.71463
2.69572
2.68287
2.66149
2.63627
2.60466
2.56971
2.53394
2.50107
2.47173
2.44261
2.40842
2.37284
2.34228
2.31845
2.29628
2.27121
2.24353
2.21482
2.19306
2.17204
2.15072
2.13008
2.10899
2.08652
2.06412
2.04366
2.02505
2.00708
1.98864
1.96917
1.94916
1.92983
1.91257
1.89772
1.88413
1.87024
1.85482
1.83732
1.81874
1.8022
1.78934
1.7787
1.76793
1.75633
1.7419
1.72363
1.70517
1.69349
1.69557
1.71513
1.77416
1.8653
1.92186
1.9388
1.92782
1.9159
1.91008
1.90399
1.89457
1.88142
1.86245
1.83961
1.82563
1.8157
1.80849
1.81207
1.82593
1.87865
1.94625
1.99333
2.01662
2.02397
2.02994
2.03227
2.03026
2.027
2.02366
2.01817
2.01453
2.01144
2.00769
2.00249
1.99415
1.98495
1.97379
1.96313
1.95482
1.94729
1.94114
1.93611
1.93184
1.927
1.9207
1.91391
1.90404
2.70582
2.68944
2.67989
2.66332
2.64517
2.62388
2.60104
2.57703
2.55228
2.52654
2.49702
2.46403
2.43248
2.40594
2.38477
2.36163
2.33389
2.30277
2.27363
2.25064
2.22869
2.20622
2.18352
2.15941
2.13409
2.11021
2.08894
2.06938
2.05053
2.03154
2.01112
1.98892
1.96695
1.94767
1.93117
1.91613
1.90145
1.88624
1.86941
1.85056
1.83181
1.81569
1.80235
1.79028
1.77811
1.76416
1.74758
1.72913
1.71145
1.69756
1.69472
1.70398
1.74756
1.82617
1.90621
1.93491
1.93124
1.92237
1.91502
1.90635
1.89527
1.88098
1.86228
1.84663
1.83991
1.84242
1.86854
1.9441
2.01892
2.06168
2.08102
2.07819
2.07013
2.0665
2.06683
2.06752
2.06702
2.06458
2.06004
2.05417
2.04904
2.04319
2.03599
2.02739
2.01827
2.00777
1.99715
1.98877
1.98194
1.9768
1.9726
1.96884
1.96444
1.95899
1.95287
1.94168
2.69492
2.67709
2.67031
2.65849
2.64442
2.62838
2.61081
2.59139
2.56965
2.54588
2.52013
2.49335
2.46791
2.44575
2.4238
2.39691
2.36703
2.3374
2.31258
2.29144
2.27033
2.24743
2.2222
2.19343
2.16582
2.14292
2.12274
2.10367
2.08468
2.06442
2.04145
2.01622
1.99239
1.97246
1.95581
1.94104
1.92664
1.91109
1.89298
1.87217
1.85127
1.83318
1.81855
1.80634
1.79462
1.78185
1.76679
1.7486
1.7282
1.7094
1.69535
1.68857
1.69242
1.71906
1.78814
1.88467
1.92957
1.92623
1.9186
1.90966
1.90016
1.8892
1.87976
1.86791
1.8718
1.91112
2.00288
2.07324
2.11074
2.12967
2.12788
2.11911
2.1081
2.10274
2.10094
2.09936
2.09789
2.09482
2.09084
2.08549
2.07831
2.07098
2.06313
2.05487
2.04666
2.03856
2.02999
2.02189
2.01569
2.01088
2.0068
2.00276
1.99816
1.99268
1.98661
1.97479
2.69022
2.67044
2.66182
2.64994
2.63766
2.62363
2.60765
2.58984
2.56998
2.54867
2.52632
2.50408
2.48305
2.46291
2.43873
2.41119
2.38262
2.35702
2.33554
2.31568
2.29333
2.2684
2.24048
2.21206
2.18693
2.16485
2.14441
2.12466
2.10419
2.0815
2.05684
2.03261
2.01048
1.99075
1.9732
1.95738
1.94187
1.92484
1.90575
1.88565
1.86568
1.84729
1.8311
1.81729
1.80445
1.79082
1.77581
1.7591
1.74019
1.72121
1.70273
1.68836
1.68153
1.68233
1.69832
1.75719
1.84129
1.90644
1.91657
1.91348
1.90478
1.90031
1.89547
1.91046
1.96466
2.06002
2.12434
2.13829
2.14874
2.15229
2.14955
2.14388
2.13581
2.12866
2.12474
2.12142
2.11882
2.11548
2.11115
2.10532
2.09671
2.08843
2.08151
2.07534
2.06968
2.06388
2.05718
2.04911
2.04122
2.03543
2.03057
2.02587
2.02128
2.01617
2.01105
2.00055
2.69268
2.67121
2.66042
2.64716
2.63376
2.61923
2.60343
2.58619
2.56725
2.54692
2.52596
2.50536
2.4853
2.46473
2.441
2.41468
2.38925
2.36694
2.34653
2.32427
2.30022
2.27447
2.24818
2.22307
2.1998
2.17765
2.15594
2.13419
2.11147
2.0877
2.06439
2.04279
2.02283
2.00369
1.98485
1.96638
1.94817
1.92983
1.91149
1.89375
1.87662
1.85981
1.84229
1.82431
1.80748
1.79195
1.77705
1.76306
1.74884
1.73312
1.71607
1.69725
1.68213
1.67159
1.66827
1.67763
1.71813
1.80011
1.86667
1.8957
1.89819
1.91189
1.94627
2.01471
2.09724
2.15949
2.17308
2.16583
2.15968
2.15886
2.15753
2.15404
2.148
2.14105
2.13719
2.13407
2.13094
2.12726
2.12252
2.11559
2.10654
2.09967
2.09427
2.0891
2.08391
2.07824
2.07174
2.06451
2.05729
2.051
2.04611
2.04158
2.03707
2.03209
2.02697
2.01635
2.69626
2.67389
2.66186
2.64768
2.63314
2.61762
2.60122
2.58376
2.56523
2.54593
2.52613
2.50596
2.48526
2.46273
2.4373
2.41386
2.3938
2.37374
2.35027
2.32574
2.30003
2.27497
2.25094
2.22831
2.20662
2.18484
2.16186
2.13675
2.11124
2.088
2.06722
2.04831
2.03038
2.0122
1.99274
1.97135
1.94928
1.92967
1.913
1.89805
1.88356
1.86831
1.85058
1.8299
1.80835
1.79057
1.77644
1.76386
1.75176
1.73942
1.72603
1.70954
1.68834
1.67087
1.65809
1.65231
1.6565
1.68564
1.76102
1.84436
1.89736
1.96821
2.04773
2.11026
2.16278
2.18193
2.17611
2.16515
2.1616
2.16143
2.16054
2.15741
2.15328
2.14806
2.14426
2.14095
2.13688
2.13226
2.12655
2.11887
2.11076
2.10468
2.09954
2.09462
2.08978
2.08487
2.07962
2.07392
2.0682
2.06249
2.05607
2.04963
2.04345
2.03698
2.0311
2.02096
2.6974
2.67542
2.66336
2.6486
2.63347
2.61757
2.6011
2.58391
2.56594
2.5472
2.52764
2.5067
2.48402
2.46011
2.43746
2.41657
2.39767
2.37659
2.35232
2.32628
2.29894
2.27425
2.25276
2.23203
2.21123
2.18939
2.16441
2.13605
2.1085
2.08583
2.0675
2.05127
2.03553
2.01862
1.99797
1.97243
1.94679
1.92655
1.91171
1.89959
1.88795
1.87497
1.85716
1.8319
1.80496
1.78547
1.7729
1.76307
1.75434
1.74527
1.73245
1.71149
1.68662
1.66679
1.65259
1.64217
1.63836
1.64248
1.6718
1.75676
1.90278
2.03194
2.13641
2.20525
2.22439
2.20995
2.18237
2.16364
2.1603
2.15986
2.16064
2.15897
2.15547
2.15139
2.14704
2.14273
2.1381
2.13304
2.12708
2.1196
2.11198
2.10588
2.10072
2.0961
2.09178
2.08744
2.08293
2.07814
2.07247
2.06519
2.0572
2.0499
2.04339
2.03687
2.03159
2.02246
)
;

boundaryField
{
    inlet
    {
        type            fixedValue;
        value           uniform 1;
    }
    outlet
    {
        type            inletOutlet;
        inletValue      uniform 1;
        value           nonuniform List<scalar> 
32
(
1.99505
1.99315
1.98547
1.96495
1.94397
1.93702
1.95351
1.98686
2.00906
2.01834
2.00921
1.99601
1.98196
1.96008
1.93656
1.91607
1.89866
1.87974
1.862
1.84911
1.84158
1.84115
1.84023
1.84962
1.87188
1.90388
1.9413
1.97437
2.00043
2.01622
2.02095
2.02257
)
;
    }
    bottom
    {
        type            symmetryPlane;
    }
    top
    {
        type            symmetryPlane;
    }
    obstacle
    {
        type            zeroGradient;
    }
    defaultFaces
    {
        type            empty;
    }
}


// ************************************************************************* //
