/*--------------------------------*- C++ -*----------------------------------*\
  =========                 |
  \\      /  F ield         | OpenFOAM: The Open Source CFD Toolbox
   \\    /   O peration     | Website:  https://openfoam.org
    \\  /    A nd           | Version:  7
     \\/     M anipulation  |
\*---------------------------------------------------------------------------*/
FoamFile
{
    version     2.0;
    format      ascii;
    class       volVectorField;
    location    "6";
    object      U;
}
// * * * * * * * * * * * * * * * * * * * * * * * * * * * * * * * * * * * * * //

dimensions      [0 1 -1 0 0 0 0];

internalField   nonuniform List<vector> 
4032
(
(3 -1.60516e-17 0)
(3 4.28649e-17 0)
(3 1.70151e-16 0)
(3 1.31108e-16 0)
(3 -2.56288e-16 0)
(3 -4.76608e-16 0)
(3 7.60138e-17 0)
(3 6.23746e-16 0)
(3 1.2173e-16 0)
(3 -7.6473e-16 0)
(3 -3.52455e-16 0)
(2.89935 0.00321993 0)
(0.987864 0.0160703 0)
(0.709671 0.0193702 0)
(0.657936 0.0241683 0)
(0.598095 0.025621 0)
(0.539114 0.0268209 0)
(0.478301 0.0281358 0)
(0.415733 0.0296225 0)
(0.350758 0.0314112 0)
(0.282858 0.033402 0)
(0.210464 0.0364299 0)
(0.131855 0.0390615 0)
(0.0493621 0.0444946 0)
(3 9.44915e-17 0)
(3 1.46871e-16 0)
(3 -7.25124e-17 0)
(3 -2.26515e-16 0)
(3 -1.11643e-15 0)
(3 -1.49366e-15 0)
(3 -4.78419e-16 0)
(3 3.72036e-16 0)
(3 1.42884e-16 0)
(3 -6.18437e-16 0)
(3 -4.34048e-16 0)
(2.90938 0.0203215 0)
(0.9938 0.0743563 0)
(0.695519 0.066681 0)
(0.641476 0.0708095 0)
(0.582774 0.0753438 0)
(0.524066 0.0797536 0)
(0.463026 0.0843847 0)
(0.399942 0.0891252 0)
(0.334698 0.0946342 0)
(0.267344 0.10057 0)
(0.197279 0.110174 0)
(0.122104 0.11876 0)
(0.0459043 0.134389 0)
(3 6.16105e-17 0)
(3 -2.0678e-17 0)
(3 -5.52716e-16 0)
(3 -1.01247e-15 0)
(3 -2.07145e-15 0)
(3 -1.78061e-15 0)
(3 -9.23275e-16 0)
(3 -2.68926e-16 0)
(3 5.35434e-17 0)
(3 -2.94658e-16 0)
(3 -9.50313e-16 0)
(2.95357 0.0409544 0)
(1.03137 0.137924 0)
(0.710937 0.115858 0)
(0.656528 0.12239 0)
(0.595808 0.129833 0)
(0.53498 0.137392 0)
(0.471803 0.145413 0)
(0.406156 0.153354 0)
(0.337833 0.162038 0)
(0.266903 0.170136 0)
(0.194338 0.183515 0)
(0.117639 0.194966 0)
(0.0437535 0.217149 0)
(3 -1.24271e-16 0)
(3 -1.34477e-16 0)
(3 -2.85129e-16 0)
(3 -5.83686e-16 0)
(3 -6.33853e-16 0)
(3 2.64016e-16 0)
(3 6.53642e-16 0)
(3 9.51976e-16 0)
(3 -5.84641e-17 0)
(3 -5.0664e-16 0)
(3 -6.99147e-16 0)
(3.00854 0.00646616 0)
(1.10676 0.182374 0)
(0.743893 0.152626 0)
(0.692454 0.166575 0)
(0.632964 0.178556 0)
(0.571922 0.190081 0)
(0.508128 0.202801 0)
(0.440541 0.21607 0)
(0.368346 0.231117 0)
(0.290896 0.244344 0)
(0.211178 0.262738 0)
(0.126838 0.276803 0)
(0.0458765 0.30205 0)
(3 1.21256e-16 0)
(3 -7.97349e-17 0)
(3 -1.08157e-16 0)
(3 -1.271e-16 0)
(3 2.59357e-16 0)
(3 2.67216e-16 0)
(3 3.31971e-16 0)
(3 4.43565e-16 0)
(3 -7.04448e-16 0)
(3 -7.60336e-16 0)
(3 -3.43248e-16 0)
(3.00062 3.15731e-05 0)
(1.21504 0.224506 0)
(0.750366 0.197065 0)
(0.696 0.217855 0)
(0.639906 0.234356 0)
(0.58149 0.249295 0)
(0.521141 0.266744 0)
(0.45725 0.285591 0)
(0.389351 0.307302 0)
(0.314679 0.325391 0)
(0.235608 0.348432 0)
(0.145546 0.36753 0)
(0.0549526 0.398956 0)
(3 9.6353e-17 0)
(3 2.9662e-17 0)
(3 1.91935e-16 0)
(3 3.36234e-16 0)
(3 3.38983e-16 0)
(3 -2.52716e-16 0)
(3 -1.08885e-15 0)
(3 -1.35072e-15 0)
(3 -6.32572e-16 0)
(3 -1.34793e-16 0)
(3 2.03169e-16 0)
(3 -1.25933e-07 0)
(1.39448 0.274688 0)
(0.765671 0.245285 0)
(0.697269 0.262002 0)
(0.648338 0.281264 0)
(0.598137 0.298901 0)
(0.547638 0.320255 0)
(0.492222 0.344504 0)
(0.430417 0.374969 0)
(0.355145 0.405315 0)
(0.268268 0.442935 0)
(0.166203 0.478085 0)
(0.0561633 0.516895 0)
(3 -1.90752e-16 0)
(3 -1.88709e-16 0)
(3 4.84338e-17 0)
(3 1.37191e-16 0)
(3 -1.88241e-16 0)
(3 -2.32657e-16 0)
(3 -9.60966e-16 0)
(3 -1.08171e-15 0)
(3 -6.54031e-16 0)
(3 -2.87221e-16 0)
(3 9.06361e-16 0)
(3 -1.24506e-07 0)
(1.6683 0.325923 0)
(0.795988 0.309159 0)
(0.696855 0.308662 0)
(0.646178 0.325343 0)
(0.598179 0.343643 0)
(0.554758 0.369815 0)
(0.50837 0.402247 0)
(0.458982 0.44482 0)
(0.397729 0.491949 0)
(0.326459 0.543572 0)
(0.233404 0.594489 0)
(0.101389 0.659914 0)
(3 -1.04155e-17 0)
(3 -1.15895e-16 0)
(3 -3.86905e-16 0)
(3 -5.92496e-16 0)
(3 -5.15817e-16 0)
(3 -2.21992e-16 0)
(3 -1.3957e-17 0)
(3 3.12446e-16 0)
(3 4.75316e-16 0)
(3 6.63387e-16 0)
(3 1.43511e-15 0)
(3 -2.58737e-08 0)
(2.07116 0.367559 0)
(0.852177 0.39433 0)
(0.71696 0.370036 0)
(0.667338 0.379114 0)
(0.620403 0.392407 0)
(0.579619 0.416705 0)
(0.540515 0.452212 0)
(0.501872 0.501092 0)
(0.457613 0.560449 0)
(0.395612 0.641528 0)
(0.27496 0.757368 0)
(0.151112 0.923158 0)
(3 1.00828e-16 0)
(3 3.14768e-16 0)
(3 1.5383e-16 0)
(3 -2.66721e-16 0)
(3 -1.26242e-16 0)
(3 -2.46548e-16 0)
(3 4.05124e-17 0)
(3 5.32975e-18 0)
(3 1.5948e-16 0)
(3 6.13416e-16 0)
(3 6.59599e-16 0)
(3 -2.66237e-09 0)
(2.65506 0.303391 0)
(0.984173 0.47784 0)
(0.803447 0.406317 0)
(0.751723 0.414962 0)
(0.694135 0.433465 0)
(0.642671 0.459544 0)
(0.599857 0.496732 0)
(0.563433 0.549987 0)
(0.529671 0.626815 0)
(0.496956 0.751019 0)
(0.464788 0.922925 0)
(0.576123 1.19904 0)
(3 -1.76448e-17 0)
(3 3.46654e-16 0)
(3 3.26693e-17 0)
(3 2.6838e-16 0)
(3 -2.6138e-17 0)
(3 -5.77672e-16 0)
(3 -1.43001e-15 0)
(3 -1.81537e-15 0)
(3 -1.45283e-15 0)
(3 -4.88445e-16 0)
(3 -2.09162e-16 0)
(3 -1.06123e-10 0)
(3.07677 0.042856 0)
(1.21884 0.469469 0)
(0.882289 0.447493 0)
(0.83882 0.474076 0)
(0.78531 0.489898 0)
(0.730936 0.511242 0)
(0.682598 0.544837 0)
(0.6436 0.597015 0)
(0.624231 0.68164 0)
(0.623279 0.816729 0)
(0.685789 0.966455 0)
(0.97017 1.13654 0)
(3 1.10559e-16 0)
(3 2.38933e-16 0)
(3 6.70983e-16 0)
(3 7.74269e-16 0)
(3 -3.70982e-16 0)
(3 -1.11247e-15 0)
(3 -1.25448e-15 0)
(3 -9.66095e-16 0)
(3 -5.82242e-17 0)
(3 2.11836e-16 0)
(3 -2.29962e-16 0)
(3 -2.19819e-12 0)
(3.00867 8.26802e-05 0)
(1.4356 0.462087 0)
(0.884344 0.512151 0)
(0.836794 0.531575 0)
(0.80112 0.551063 0)
(0.772598 0.575559 0)
(0.745018 0.60769 0)
(0.7203 0.651738 0)
(0.723104 0.725675 0)
(0.751003 0.840096 0)
(0.872579 0.96391 0)
(1.18384 1.06647 0)
(3 -1.42645e-16 0)
(3 -3.18576e-16 0)
(3 5.63924e-17 0)
(3 -2.2494e-16 0)
(3 -5.07249e-17 0)
(3 4.4437e-17 0)
(3 6.56739e-16 0)
(3 5.94416e-16 0)
(3 1.22534e-15 0)
(3 7.28772e-16 0)
(3 -7.90654e-16 0)
(3 -2.11239e-14 0)
(3.00006 -2.52052e-06 0)
(1.94207 0.494166 0)
(0.929097 0.576541 0)
(0.85353 0.560405 0)
(0.83418 0.582157 0)
(0.819702 0.607646 0)
(0.809511 0.642272 0)
(0.801722 0.682738 0)
(0.817385 0.74619 0)
(0.867033 0.837594 0)
(1.01043 0.940026 0)
(1.27773 1.00621 0)
(3 -1.43295e-16 0)
(3 -5.91278e-16 0)
(3 -4.58165e-16 0)
(3 -1.65193e-16 0)
(3 5.12946e-16 0)
(3 5.27568e-16 0)
(3 5.25624e-16 0)
(3 8.17869e-16 0)
(3 8.66899e-16 0)
(3 1.9631e-16 0)
(3 -5.16055e-16 0)
(3 -1.17465e-15 0)
(3.00001 -3.20236e-06 0)
(2.74624 0.319724 0)
(1.0962 0.634997 0)
(0.920508 0.580974 0)
(0.89145 0.601945 0)
(0.873807 0.630782 0)
(0.869947 0.668957 0)
(0.876269 0.711063 0)
(0.901296 0.765637 0)
(0.966465 0.834667 0)
(1.10597 0.90685 0)
(1.31948 0.947597 0)
(3 3.57987e-16 0)
(3 2.38897e-16 0)
(3 2.45117e-16 0)
(3 2.81726e-16 0)
(3 3.31947e-16 0)
(3 4.34297e-16 0)
(3 2.02526e-16 0)
(3 1.05768e-16 0)
(3 -6.38288e-16 0)
(3 -3.378e-16 0)
(3 -4.77729e-16 0)
(3 -9.57208e-17 0)
(3 -6.76138e-07 0)
(3.0746 0.0261507 0)
(1.43573 0.63187 0)
(1.00208 0.652433 0)
(0.950737 0.652251 0)
(0.92503 0.666737 0)
(0.923124 0.694124 0)
(0.939287 0.730351 0)
(0.974254 0.773776 0)
(1.0478 0.8276 0)
(1.17517 0.879375 0)
(1.34892 0.906142 0)
(3 2.78829e-17 0)
(3 2.62943e-16 0)
(3 -9.75595e-17 0)
(3 -4.28679e-17 0)
(3 -2.27636e-16 0)
(3 4.89101e-17 0)
(3 -5.50136e-17 0)
(3 -5.5478e-16 0)
(3 -1.44366e-15 0)
(3 -1.87443e-15 0)
(3 -1.47984e-15 0)
(3 -6.85932e-16 0)
(3 -6.87089e-08 0)
(3.00415 7.37849e-05 0)
(1.98901 0.600033 0)
(1.06365 0.724415 0)
(1.01114 0.702103 0)
(0.99507 0.699216 0)
(0.991342 0.715304 0)
(1.00602 0.74197 0)
(1.04413 0.777963 0)
(1.11502 0.816623 0)
(1.22281 0.849812 0)
(1.36152 0.865772 0)
(3 -2.47262e-16 0)
(3 -1.99398e-16 0)
(3 2.46406e-18 0)
(3 -3.21483e-16 0)
(3 -6.77843e-16 0)
(3 -1.02302e-15 0)
(3 -1.03644e-15 0)
(3 -8.79572e-16 0)
(3 -1.81784e-15 0)
(3 -1.98995e-15 0)
(3 -1.95248e-15 0)
(3 -7.63027e-16 0)
(3 -2.17968e-09 0)
(3.00001 -3.28441e-07 0)
(2.93254 0.222047 0)
(1.28171 0.698187 0)
(1.08266 0.719261 0)
(1.08736 0.720622 0)
(1.0818 0.740697 0)
(1.08687 0.762207 0)
(1.1147 0.788473 0)
(1.17556 0.817702 0)
(1.26472 0.839706 0)
(1.37883 0.848479 0)
(3 1.89383e-17 0)
(3 -1.38587e-16 0)
(3 -1.39422e-16 0)
(3 -3.2858e-16 0)
(3 -6.02356e-16 0)
(3 -7.3075e-16 0)
(3 -6.57944e-16 0)
(3 -1.01319e-16 0)
(3 -1.52896e-16 0)
(3 -1.25458e-17 0)
(3 -4.51551e-16 0)
(3 -1.92609e-16 0)
(3 -4.83634e-12 0)
(3 -7.88704e-07 0)
(3.04126 0.00646259 0)
(1.57258 0.659941 0)
(1.10027 0.75658 0)
(1.11151 0.765471 0)
(1.11737 0.783351 0)
(1.13988 0.795396 0)
(1.17388 0.80633 0)
(1.22807 0.817911 0)
(1.30298 0.828666 0)
(1.3985 0.831598 0)
(3 2.85859e-17 0)
(3 1.0978e-16 0)
(3 -5.05412e-16 0)
(3 -7.6925e-16 0)
(3 -7.69523e-16 0)
(3 4.71561e-17 0)
(3 5.07683e-16 0)
(3 4.80196e-16 0)
(3 9.60335e-16 0)
(3 7.79922e-16 0)
(3 3.3885e-16 0)
(3 8.59256e-16 0)
(3 -4.42029e-15 0)
(3 -1.51064e-07 0)
(3.0008 3.60867e-05 0)
(2.38925 0.510953 0)
(1.20585 0.789177 0)
(1.13562 0.791917 0)
(1.14911 0.795667 0)
(1.17721 0.805587 0)
(1.21723 0.817236 0)
(1.26997 0.827862 0)
(1.33826 0.834863 0)
(1.41846 0.834662 0)
(3 -1.01289e-16 0)
(3 1.88366e-16 0)
(3 -1.35181e-16 0)
(3 -1.01344e-16 0)
(3 3.30389e-16 0)
(3 5.68155e-16 0)
(3 5.74721e-16 0)
(3 2.70022e-16 0)
(3 5.59717e-16 0)
(3 7.13446e-16 0)
(3 1.1317e-15 0)
(3 1.8531e-15 0)
(3 1.68432e-15 0)
(3 -4.73424e-09 0)
(3.00002 -5.50745e-06 0)
(3.05774 0.0724424 0)
(1.56682 0.776713 0)
(1.18504 0.786074 0)
(1.19872 0.794104 0)
(1.22181 0.806578 0)
(1.2595 0.81823 0)
(1.3092 0.827631 0)
(1.37147 0.832469 0)
(1.44145 0.831191 0)
(3 -1.14447e-16 0)
(3 -2.0036e-16 0)
(3 4.30585e-16 0)
(3 9.744e-16 0)
(3 1.02622e-15 0)
(3 5.25143e-16 0)
(3 4.68242e-16 0)
(3 9.12959e-16 0)
(3 6.89893e-16 0)
(3 1.21835e-15 0)
(3 1.34699e-15 0)
(3 1.20254e-15 0)
(3 1.26206e-15 0)
(3 -1.71387e-11 0)
(3 -1.38572e-06 0)
(3.00816 0.00137971 0)
(2.29445 0.631316 0)
(1.26359 0.848359 0)
(1.22311 0.833503 0)
(1.25686 0.833561 0)
(1.29074 0.838717 0)
(1.33777 0.843746 0)
(1.39524 0.844907 0)
(1.45836 0.841532 0)
(3 5.24565e-17 0)
(3 -3.03052e-16 0)
(3 -1.50207e-16 0)
(3 1.6542e-16 0)
(3 3.09939e-16 0)
(3 6.29913e-16 0)
(3 7.54601e-16 0)
(3 7.94911e-16 0)
(3 5.81704e-16 0)
(3 4.94745e-16 0)
(3 2.54688e-16 0)
(3 2.60049e-16 0)
(3 3.92881e-16 0)
(3 -7.15056e-15 0)
(3 -1.17944e-07 0)
(3.00003 9.49567e-06 0)
(3.0392 0.117776 0)
(1.62722 0.827181 0)
(1.26875 0.830775 0)
(1.30528 0.833419 0)
(1.33101 0.839415 0)
(1.37313 0.842238 0)
(1.42403 0.842152 0)
(1.4801 0.838621 0)
(3 6.69361e-17 0)
(3 8.86398e-17 0)
(3 -2.77986e-16 0)
(3 -2.6877e-16 0)
(3 7.37002e-16 0)
(3 7.83943e-16 0)
(3 6.91301e-16 0)
(3 1.69671e-16 0)
(3 5.45549e-16 0)
(3 4.11637e-16 0)
(3 6.10892e-16 0)
(3 4.90138e-17 0)
(3 -4.86302e-16 0)
(3 -1.18112e-16 0)
(3 -1.42945e-09 0)
(3 -1.08443e-07 0)
(3.0106 0.00344934 0)
(2.37032 0.636987 0)
(1.35599 0.885833 0)
(1.32693 0.876279 0)
(1.35918 0.868731 0)
(1.39477 0.865973 0)
(1.43873 0.86207 0)
(1.48901 0.854564 0)
(3 1.00124e-16 0)
(3 1.08708e-16 0)
(3 -5.22871e-17 0)
(3 -4.32664e-16 0)
(3 -1.5382e-17 0)
(3 -1.81043e-16 0)
(3 -5.24681e-16 0)
(3 -5.44588e-16 0)
(3 -6.11041e-16 0)
(3 -3.58989e-16 0)
(3 -3.58299e-17 0)
(3 -3.79116e-16 0)
(3 -1.3484e-15 0)
(3 -1.14596e-15 0)
(3 -3.20684e-12 0)
(3 -2.6875e-08 0)
(3.00005 4.20887e-05 0)
(3.0318 0.105458 0)
(1.76157 0.83625 0)
(1.36317 0.881753 0)
(1.40206 0.874806 0)
(1.42939 0.868483 0)
(1.46553 0.860217 0)
(1.50894 0.848888 0)
(3 2.71205e-16 0)
(3 1.37134e-16 0)
(3 -3.95932e-16 0)
(3 -1.04006e-15 0)
(3 -1.48595e-15 0)
(3 -1.45519e-15 0)
(3 -1.74573e-15 0)
(3 -1.56059e-15 0)
(3 -1.78319e-15 0)
(3 -1.9101e-15 0)
(3 -2.09015e-15 0)
(3 -2.26458e-15 0)
(3 -2.46043e-15 0)
(3 -1.79512e-15 0)
(3 -3.33372e-15 0)
(3 -2.51545e-09 0)
(3 2.42292e-08 0)
(3.00613 0.00433881 0)
(2.61711 0.52994 0)
(1.50597 0.934129 0)
(1.42327 0.902833 0)
(1.45518 0.892427 0)
(1.48538 0.881832 0)
(1.52132 0.868032 0)
(3 -5.83311e-17 0)
(3 -1.8662e-16 0)
(3 -2.82342e-16 0)
(3 -3.96296e-16 0)
(3 -7.64033e-16 0)
(3 -1.03346e-15 0)
(3 -1.01363e-15 0)
(3 -9.92761e-16 0)
(3 -1.07718e-15 0)
(3 -1.602e-15 0)
(3 -2.35483e-15 0)
(3 -2.1173e-15 0)
(3 -5.40116e-16 0)
(3 -5.49035e-16 0)
(3 -1.09764e-15 0)
(3 -9.93074e-11 0)
(3 -9.71163e-11 0)
(3.00002 4.6398e-05 0)
(3.03533 0.0533493 0)
(2.02095 0.797445 0)
(1.47712 0.914699 0)
(1.49524 0.904274 0)
(1.52171 0.887258 0)
(1.55134 0.876809 0)
(3 -1.64445e-16 0)
(3 -2.09704e-16 0)
(3 -6.772e-17 0)
(3 1.47088e-16 0)
(3 2.60289e-16 0)
(3 3.18771e-16 0)
(3 2.5007e-16 0)
(3 -1.58421e-16 0)
(3 -1.85652e-16 0)
(3 -6.11082e-16 0)
(3 -1.435e-15 0)
(3 -3.39933e-17 0)
(3 6.50495e-16 0)
(3 5.40229e-16 0)
(3 7.44052e-16 0)
(3 -8.63335e-13 0)
(3 -3.05598e-11 0)
(3 3.59379e-08 0)
(3.00165 0.00235147 0)
(2.83947 0.31372 0)
(1.74017 0.904352 0)
(1.51121 0.926884 0)
(1.54213 0.921455 0)
(1.58523 0.908933 0)
(3 -1.15333e-17 0)
(3 6.45595e-17 0)
(3 6.24781e-16 0)
(3 7.55592e-16 0)
(3 3.75492e-16 0)
(3 3.73099e-16 0)
(3 3.50668e-16 0)
(3 7.44551e-17 0)
(3 -2.32723e-16 0)
(3 -5.25868e-16 0)
(3 -3.27761e-16 0)
(3 -2.12235e-16 0)
(3 -4.83084e-17 0)
(3 4.15867e-16 0)
(3 1.26705e-15 0)
(3 -3.69962e-16 0)
(3 -3.98842e-12 0)
(3 3.57093e-12 0)
(3 1.2454e-05 0)
(3.01013 0.0211132 0)
(2.41418 0.645486 0)
(1.59887 0.937538 0)
(1.58614 0.946935 0)
(1.60546 0.942466 0)
(3 1.77081e-17 0)
(3 9.0819e-19 0)
(3 -9.06081e-17 0)
(3 5.39183e-17 0)
(3 1.92108e-17 0)
(3 -2.67168e-16 0)
(3 -3.09203e-16 0)
(3 -3.41458e-16 0)
(3 -4.62397e-16 0)
(3 -2.2473e-16 0)
(3 1.18693e-16 0)
(3 -1.1612e-16 0)
(3 -7.00917e-16 0)
(3 -8.95317e-17 0)
(3 -9.97247e-17 0)
(3 9.34658e-16 0)
(3 -2.24398e-13 0)
(3 -2.41224e-13 0)
(3 7.10044e-09 0)
(3.00008 0.000596886 0)
(2.97554 0.118044 0)
(2.04946 0.785228 0)
(1.65018 1.01536 0)
(1.55554 0.896484 0)
(3 8.7515e-17 0)
(3 1.74959e-16 0)
(3 -6.5612e-16 0)
(3 -5.02176e-16 0)
(3 -4.05123e-17 0)
(3 -2.54088e-16 0)
(3 -1.67184e-16 0)
(3 1.04487e-17 0)
(3 1.63269e-17 0)
(3 2.70769e-18 0)
(3 9.05548e-17 0)
(3 1.60782e-16 0)
(3 5.20841e-17 0)
(3 -2.22452e-16 0)
(3 -6.29667e-16 0)
(3 8.80891e-17 0)
(3 -2.81485e-15 0)
(3 -7.98221e-14 0)
(3 2.12853e-12 0)
(3 1.3017e-06 0)
(3.00055 0.00673203 0)
(2.82307 0.33928 0)
(1.88806 1.019 0)
(1.3541 0.655383 0)
(3 5.27401e-17 0)
(3 1.64635e-16 0)
(3 3.40304e-16 0)
(3 7.36434e-16 0)
(3 7.34587e-16 0)
(3 7.24381e-16 0)
(3 8.43175e-16 0)
(3 6.70774e-16 0)
(3 1.67555e-16 0)
(3 -2.62962e-16 0)
(3 -3.40202e-17 0)
(3 1.58143e-16 0)
(3 3.92923e-16 0)
(3 5.02947e-16 0)
(3 -5.89258e-17 0)
(3 -7.88417e-16 0)
(3 2.39063e-16 0)
(3 -7.73505e-15 0)
(3 -1.08169e-14 0)
(3 8.38535e-10 0)
(2.99999 5.73552e-05 0)
(3.00158 0.0344597 0)
(2.10021 0.485229 0)
(1.2096 0.442685 0)
(3 -4.02577e-17 0)
(3 -1.69301e-16 0)
(3 7.70465e-16 0)
(3 1.25432e-15 0)
(3 1.96797e-15 0)
(3 1.76986e-15 0)
(3 1.18303e-15 0)
(3 7.08782e-16 0)
(3 8.60492e-16 0)
(3 9.93741e-16 0)
(3 7.04782e-16 0)
(3 4.30685e-16 0)
(3 6.13933e-16 0)
(3 4.94753e-16 0)
(3 4.60261e-16 0)
(3 1.09126e-16 0)
(3 1.26741e-16 0)
(3 -6.58828e-16 0)
(3 -5.1965e-15 0)
(3 1.72785e-13 0)
(3 5.64104e-08 0)
(2.99985 0.00109319 0)
(1.85936 0.0863094 0)
(0.961608 0.259117 0)
(3 -4.84627e-17 0)
(3 1.6134e-16 0)
(3 5.72864e-16 0)
(3 7.43673e-16 0)
(3 4.6747e-16 0)
(3 5.23372e-16 0)
(3 3.15742e-17 0)
(3 -4.64397e-17 0)
(3 1.09757e-15 0)
(3 1.81016e-15 0)
(3 1.53008e-15 0)
(3 9.39469e-16 0)
(3 9.52746e-16 0)
(3 1.07536e-15 0)
(3 9.79789e-16 0)
(3 1.12415e-15 0)
(3 7.91769e-16 0)
(3 3.82259e-16 0)
(3 -4.03019e-16 0)
(3 -9.67365e-16 0)
(3 2.87661e-11 0)
(3 3.95499e-06 0)
(1.64103 0.074007 0)
(0.803183 0.177385 0)
(3 -1.54731e-16 0)
(3 1.80385e-16 0)
(3 4.96387e-17 0)
(3 -4.84695e-16 0)
(3 -1.35006e-15 0)
(3 -9.98993e-16 0)
(3 -4.09778e-16 0)
(3 -2.72824e-16 0)
(3 3.95928e-16 0)
(3 1.0596e-15 0)
(3 1.22974e-15 0)
(3 1.00226e-15 0)
(3 3.06738e-16 0)
(3 4.72e-16 0)
(3 5.75303e-16 0)
(3 8.00384e-16 0)
(3 4.90547e-16 0)
(3 7.32134e-16 0)
(3 1.22365e-15 0)
(3 3.05593e-16 0)
(3 4.10201e-15 0)
(3 3.71324e-09 0)
(1.66357 0.108265 0)
(0.785154 0.139611 0)
(3 -1.63061e-16 0)
(3 -3.67092e-16 0)
(3 -4.40679e-16 0)
(3 -7.92927e-16 0)
(3 -3.82474e-16 0)
(3 3.50752e-16 0)
(3 6.86542e-16 0)
(3 1.11293e-15 0)
(3 1.25394e-15 0)
(3 1.09174e-15 0)
(3 4.39449e-16 0)
(3 8.88331e-17 0)
(3 -5.55037e-16 0)
(3 -7.96359e-16 0)
(3 -3.92172e-16 0)
(3 2.45026e-16 0)
(3 -2.26303e-16 0)
(3 -5.46047e-16 0)
(3 -3.89648e-16 0)
(3 -4.55866e-16 0)
(3 -1.41643e-15 0)
(3 9.15543e-13 0)
(1.76747 0.136799 0)
(0.798601 0.137406 0)
(3 -8.82608e-17 0)
(3 -3.07471e-16 0)
(3 -3.13821e-16 0)
(3 -3.2379e-16 0)
(3 3.43807e-16 0)
(3 1.01579e-15 0)
(3 1.10608e-15 0)
(3 1.28306e-15 0)
(3 9.97683e-16 0)
(3 2.90823e-16 0)
(3 3.37117e-17 0)
(3 -3.52385e-16 0)
(3 -4.0611e-16 0)
(3 -2.24116e-16 0)
(3 -7.69789e-19 0)
(3 3.86691e-16 0)
(3 5.60832e-17 0)
(3 -4.23356e-16 0)
(3 -6.34617e-16 0)
(3 -8.77517e-16 0)
(3 -1.32429e-15 0)
(3 -1.86909e-15 0)
(1.91849 0.14392 0)
(0.82007 0.136584 0)
(3 6.92061e-17 0)
(3 1.14082e-17 0)
(3 -3.59398e-16 0)
(3 1.05136e-16 0)
(3 7.58434e-17 0)
(3 1.67271e-16 0)
(3 5.46557e-16 0)
(3 2.88371e-16 0)
(3 4.21289e-17 0)
(3 -1.18599e-16 0)
(3 3.0621e-16 0)
(3 5.51728e-16 0)
(3 5.24848e-16 0)
(3 6.00799e-16 0)
(3 7.70609e-16 0)
(3 3.03513e-16 0)
(3 5.0234e-16 0)
(3 6.6605e-16 0)
(3 -6.06333e-16 0)
(3 -1.22246e-15 0)
(3 -1.22467e-15 0)
(3 -8.83782e-16 0)
(2.07894 0.127455 0)
(0.846704 0.122472 0)
(3 2.71838e-16 0)
(3 6.53298e-16 0)
(3 8.26491e-17 0)
(3 -4.67463e-17 0)
(3 -4.12169e-16 0)
(3 -6.63298e-16 0)
(3 -6.87649e-16 0)
(3 -4.73762e-16 0)
(3 -5.4652e-16 0)
(3 -2.94708e-16 0)
(3 -1.84141e-16 0)
(3 4.4365e-16 0)
(3 5.73358e-16 0)
(3 9.58637e-18 0)
(3 3.82404e-16 0)
(3 9.90683e-17 0)
(3 -3.01595e-16 0)
(3 -6.63096e-16 0)
(3 -1.57615e-15 0)
(3 -1.88706e-15 0)
(3 -2.50509e-15 0)
(3 -3.29562e-16 0)
(2.21161 0.0936386 0)
(0.867977 0.0971647 0)
(3 1.06016e-16 0)
(3 3.10503e-16 0)
(3 -9.58025e-19 0)
(3 -2.49339e-16 0)
(3 -4.61461e-16 0)
(3 -8.57649e-16 0)
(3 -1.33998e-15 0)
(3 -1.65868e-15 0)
(3 -1.6858e-15 0)
(3 -1.39359e-15 0)
(3 -9.78245e-16 0)
(3 -8.01975e-16 0)
(3 -3.58821e-16 0)
(3 2.96905e-17 0)
(3 -2.51988e-16 0)
(3 -2.92028e-16 0)
(3 -7.62384e-16 0)
(3 -8.63212e-16 0)
(3 -4.32045e-16 0)
(3 -6.74594e-16 0)
(3 -1.12797e-16 0)
(3 -7.78944e-17 0)
(2.29231 0.0586001 0)
(0.876714 0.0673079 0)
(3 9.8535e-18 0)
(3 -1.17572e-16 0)
(3 -3.20401e-16 0)
(3 -3.25721e-16 0)
(3 -6.24157e-16 0)
(3 -9.4681e-16 0)
(3 -8.10794e-16 0)
(3 -9.37317e-16 0)
(3 -6.1869e-16 0)
(3 -6.39572e-16 0)
(3 -1.14458e-15 0)
(3 -6.64756e-16 0)
(3 -8.72457e-17 0)
(3 -1.38151e-16 0)
(3 -3.25165e-16 0)
(3 -7.34717e-17 0)
(3 4.27106e-16 0)
(3 1.1363e-15 0)
(3 2.18181e-15 0)
(3 2.0724e-15 0)
(3 2.33425e-15 0)
(3 7.77573e-16 0)
(2.33488 0.0281159 0)
(0.879742 0.0375426 0)
(3 6.22633e-17 0)
(3 2.00296e-16 0)
(3 -9.2909e-17 0)
(3 -3.98073e-16 0)
(3 -8.58064e-16 0)
(3 -7.99995e-16 0)
(3 -5.9771e-16 0)
(3 -1.41274e-16 0)
(3 -1.82648e-16 0)
(3 -5.11433e-16 0)
(3 -1.15155e-15 0)
(3 -3.76721e-16 0)
(3 -1.96083e-16 0)
(3 -6.65426e-16 0)
(3 -8.19813e-16 0)
(3 -7.10977e-16 0)
(3 -3.51068e-16 0)
(3 -2.51648e-16 0)
(3 -5.51876e-17 0)
(3 2.79845e-16 0)
(3 3.06756e-16 0)
(3 6.43386e-16 0)
(2.34274 0.00597154 0)
(0.874609 0.00978686 0)
(1.53457 1.22725 0)
(2.0189 1.42347 0)
(2.12619 1.65396 0)
(2.18981 0.660424 0)
(2.50713 0.286874 0)
(2.64483 0.0753016 0)
(2.6123 -0.176225 0)
(2.58039 -0.261127 0)
(2.47642 -0.314517 0)
(2.43237 -0.366122 0)
(2.43563 -0.359185 0)
(2.41019 -0.24583 0)
(2.39772 -0.146393 0)
(2.37063 -0.119348 0)
(2.39018 -0.116 0)
(2.40269 -0.0703544 0)
(2.38525 -0.0565937 0)
(2.37496 -0.0555922 0)
(2.37272 -0.0464019 0)
(2.37959 -0.0130663 0)
(2.17155 0.0246658 0)
(0.979571 0.0522369 0)
(0.722035 0.0362541 0)
(0.687738 0.0206147 0)
(0.68127 0.00707369 0)
(0.700506 -0.0106255 0)
(0.727426 -0.0231735 0)
(0.751734 -0.0282689 0)
(0.771253 -0.02768 0)
(0.792995 -0.0251848 0)
(0.823586 -0.0235313 0)
(0.862159 -0.0239007 0)
(0.902328 -0.025519 0)
(0.935747 -0.0268529 0)
(0.96152 -0.0255197 0)
(0.981365 -0.0223876 0)
(1.00137 -0.0196435 0)
(1.0249 -0.0182923 0)
(1.05385 -0.0183267 0)
(1.08686 -0.0190593 0)
(1.11991 -0.0191845 0)
(1.14887 -0.0177194 0)
(1.17261 -0.0155757 0)
(1.1944 -0.01437 0)
(1.2173 -0.0142885 0)
(1.24287 -0.014742 0)
(1.26968 -0.0147835 0)
(1.29539 -0.0135564 0)
(1.31778 -0.0107185 0)
(1.33902 -0.00751057 0)
(1.36172 -0.00542462 0)
(1.38733 -0.00535926 0)
(1.41089 -0.00670394 0)
(1.42835 -0.00747359 0)
(1.44479 -0.00684197 0)
(1.46027 -0.00449863 0)
(1.47633 -0.00251758 0)
(1.49473 -0.00139556 0)
(1.51965 -0.00164533 0)
(1.54405 -0.00257963 0)
(1.56168 -0.00285481 0)
(1.57777 -0.00261918 0)
(1.59207 -0.00169428 0)
(1.60723 -0.000686433 0)
(1.62434 -0.000458062 0)
(1.64424 -0.000727411 0)
(1.66759 -0.00136202 0)
(1.68781 -0.00142443 0)
(1.70674 -0.000761917 0)
(1.7231 0.000890937 0)
(1.73546 0.0031292 0)
(1.74808 0.00451524 0)
(1.76484 0.0045981 0)
(1.78277 0.00434356 0)
(1.80214 0.00381761 0)
(1.82023 0.00384709 0)
(1.8375 0.00424696 0)
(1.8513 0.00495827 0)
(1.8587 0.006162 0)
(1.86377 0.00716153 0)
(1.87551 0.00715471 0)
(1.89064 0.00711817 0)
(1.90637 0.00703256 0)
(1.92236 0.00706662 0)
(1.93797 0.00716731 0)
(1.95086 0.00731716 0)
(1.9587 0.00754224 0)
(1.96646 0.00739942 0)
(1.9805 0.00711602 0)
(1.99605 0.00691415 0)
(2.01169 0.00644588 0)
(2.02781 0.00626575 0)
(2.04201 0.00628039 0)
(2.05032 0.00696113 0)
(2.05452 0.00807509 0)
(2.07673 0.00800015 0)
(1.77494 1.06373 0)
(2.29952 0.76542 0)
(2.49607 0.58628 0)
(2.63299 0.152832 0)
(2.73042 -0.326481 0)
(2.66752 -0.466215 0)
(2.69603 -0.53232 0)
(2.72224 -0.59167 0)
(2.7261 -0.573716 0)
(2.69274 -0.536488 0)
(2.6231 -0.464932 0)
(2.51251 -0.319968 0)
(2.45159 -0.191758 0)
(2.43814 -0.119538 0)
(2.44733 -0.0991622 0)
(2.45356 -0.0507041 0)
(2.44581 -0.031614 0)
(2.44769 -0.0407258 0)
(2.44146 -0.0185975 0)
(2.42659 0.00490162 0)
(2.29644 0.0936481 0)
(1.05925 0.195522 0)
(0.790517 0.0908752 0)
(0.769606 0.0141031 0)
(0.784824 -0.0172075 0)
(0.808554 -0.0322008 0)
(0.831819 -0.0445604 0)
(0.854418 -0.0531902 0)
(0.87555 -0.0508376 0)
(0.894439 -0.0372292 0)
(0.91647 -0.0203755 0)
(0.941376 -0.0130411 0)
(0.968372 -0.0187681 0)
(0.999432 -0.0308725 0)
(1.02952 -0.0386926 0)
(1.05288 -0.0350397 0)
(1.06904 -0.0244263 0)
(1.0857 -0.0142528 0)
(1.10465 -0.0109463 0)
(1.12982 -0.0152592 0)
(1.16289 -0.0230947 0)
(1.19666 -0.0255572 0)
(1.22182 -0.0200472 0)
(1.23995 -0.0129475 0)
(1.25678 -0.00876134 0)
(1.27389 -0.0104726 0)
(1.297 -0.0181372 0)
(1.3242 -0.0241143 0)
(1.35058 -0.022584 0)
(1.37378 -0.0140104 0)
(1.39508 -0.00256682 0)
(1.41288 0.00368052 0)
(1.42799 0.0015061 0)
(1.44526 -0.00668929 0)
(1.46433 -0.0118922 0)
(1.48209 -0.0111246 0)
(1.50001 -0.00615417 0)
(1.51958 0.00190587 0)
(1.54007 0.00677356 0)
(1.55857 0.00446722 0)
(1.57627 -0.000268211 0)
(1.59278 -0.0027933 0)
(1.60921 -0.00265277 0)
(1.6252 0.000881154 0)
(1.64123 0.00560569 0)
(1.65848 0.00779956 0)
(1.67658 0.00585876 0)
(1.69705 0.000296729 0)
(1.71611 -0.00256428 0)
(1.73459 -0.00262599 0)
(1.75144 0.00190048 0)
(1.76484 0.0110307 0)
(1.77601 0.0186062 0)
(1.79047 0.0199305 0)
(1.80767 0.0173597 0)
(1.82675 0.0108908 0)
(1.84406 0.00648982 0)
(1.86037 0.00488219 0)
(1.87382 0.00747984 0)
(1.88225 0.0160912 0)
(1.88821 0.0238677 0)
(1.90005 0.0241961 0)
(1.91559 0.0214929 0)
(1.93201 0.0165472 0)
(1.94731 0.0136702 0)
(1.96191 0.0126179 0)
(1.97376 0.0149612 0)
(1.98198 0.0212013 0)
(1.98996 0.0250679 0)
(2.00367 0.0235718 0)
(2.02017 0.0200272 0)
(2.03586 0.0142305 0)
(2.04984 0.00932106 0)
(2.06097 0.00783325 0)
(2.06929 0.0168545 0)
(2.08548 0.0246243 0)
(1.67 1.0379 0)
(2.02038 0.913376 0)
(2.3611 0.613579 0)
(2.55751 0.300903 0)
(2.61486 0.130555 0)
(2.63 0.0519475 0)
(2.66562 -0.0888437 0)
(2.70506 -0.245538 0)
(2.75464 -0.333577 0)
(2.77454 -0.419777 0)
(2.79159 -0.473576 0)
(2.75239 -0.480776 0)
(2.66176 -0.412589 0)
(2.64186 -0.345057 0)
(2.64838 -0.308911 0)
(2.62832 -0.234 0)
(2.60666 -0.157027 0)
(2.58662 -0.12914 0)
(2.54966 -0.104008 0)
(2.5195 -0.0319465 0)
(2.50309 -0.0175403 0)
(1.43159 0.212009 0)
(0.986516 0.0969279 0)
(0.985694 -0.00188002 0)
(1.03144 -0.0285175 0)
(1.04902 -0.0315562 0)
(1.05431 -0.0400311 0)
(1.06394 -0.0542459 0)
(1.07944 -0.0683331 0)
(1.09827 -0.0731456 0)
(1.11506 -0.0667612 0)
(1.12622 -0.056211 0)
(1.13679 -0.0469727 0)
(1.15009 -0.0463203 0)
(1.16909 -0.0535217 0)
(1.19179 -0.0627933 0)
(1.2104 -0.0644232 0)
(1.2223 -0.0597581 0)
(1.23386 -0.0490353 0)
(1.24883 -0.0407568 0)
(1.26892 -0.0384689 0)
(1.29581 -0.0423189 0)
(1.32157 -0.0460661 0)
(1.33833 -0.0456223 0)
(1.3522 -0.0416056 0)
(1.36373 -0.0328909 0)
(1.37806 -0.0270428 0)
(1.39519 -0.0266361 0)
(1.41911 -0.0289565 0)
(1.44541 -0.0277395 0)
(1.46509 -0.0237768 0)
(1.48072 -0.0189107 0)
(1.49158 -0.0109711 0)
(1.50266 -0.00759371 0)
(1.51749 -0.00926775 0)
(1.53478 -0.0138447 0)
(1.55564 -0.0150875 0)
(1.57646 -0.0111933 0)
(1.59337 -0.00732006 0)
(1.60831 -0.00395695 0)
(1.6218 -0.00326295 0)
(1.63656 -0.00515733 0)
(1.65244 -0.00732094 0)
(1.66857 -0.00765039 0)
(1.68533 -0.00489362 0)
(1.70111 0.00102605 0)
(1.71507 0.00713622 0)
(1.72963 0.00908888 0)
(1.7463 0.00741034 0)
(1.76376 0.00416806 0)
(1.78084 0.00250644 0)
(1.79756 0.00437546 0)
(1.81176 0.0125586 0)
(1.82223 0.0231889 0)
(1.83208 0.0288368 0)
(1.84639 0.0276818 0)
(1.86323 0.0233184 0)
(1.88059 0.0175493 0)
(1.89671 0.0147895 0)
(1.91203 0.0163848 0)
(1.92289 0.0255061 0)
(1.9279 0.0365921 0)
(1.93533 0.038988 0)
(1.94942 0.0354685 0)
(1.96501 0.0292601 0)
(1.98025 0.023322 0)
(1.99483 0.0209837 0)
(2.00902 0.0231384 0)
(2.01956 0.0317623 0)
(2.02471 0.0410906 0)
(2.03105 0.0416138 0)
(2.04306 0.0358276 0)
(2.05793 0.0298869 0)
(2.07269 0.0248224 0)
(2.08898 0.0263916 0)
(2.10803 0.0311416 0)
(1.598 0.989333 0)
(1.9065 0.865135 0)
(2.1347 0.723827 0)
(2.29643 0.572158 0)
(2.47034 0.329391 0)
(2.56697 0.104644 0)
(2.62054 0.0229519 0)
(2.64626 -0.0982867 0)
(2.71591 -0.249719 0)
(2.74236 -0.366526 0)
(2.75927 -0.457878 0)
(2.77665 -0.51829 0)
(2.80997 -0.50574 0)
(2.78063 -0.457137 0)
(2.75373 -0.430176 0)
(2.71294 -0.388624 0)
(2.691 -0.341542 0)
(2.68323 -0.291515 0)
(2.65591 -0.24326 0)
(2.66004 -0.15479 0)
(2.58577 -0.253431 0)
(2.10678 -0.0719145 0)
(1.23956 0.0657814 0)
(1.20985 0.0411577 0)
(1.2703 -0.0217559 0)
(1.287 -0.0610557 0)
(1.27741 -0.0636854 0)
(1.27586 -0.0626352 0)
(1.28175 -0.0623411 0)
(1.29657 -0.0627078 0)
(1.31066 -0.0599893 0)
(1.31764 -0.0561704 0)
(1.31986 -0.0469961 0)
(1.32228 -0.0380882 0)
(1.33077 -0.0355194 0)
(1.3441 -0.0383027 0)
(1.36198 -0.0465954 0)
(1.37533 -0.0500923 0)
(1.38491 -0.0474873 0)
(1.39375 -0.0383255 0)
(1.40588 -0.0290913 0)
(1.42205 -0.0252656 0)
(1.44006 -0.0291468 0)
(1.4542 -0.0351487 0)
(1.46594 -0.0379235 0)
(1.47659 -0.0366097 0)
(1.4858 -0.0295263 0)
(1.49922 -0.0211945 0)
(1.51758 -0.0138028 0)
(1.53834 -0.0115564 0)
(1.55461 -0.0130663 0)
(1.56893 -0.0147568 0)
(1.57938 -0.0139669 0)
(1.58731 -0.0093261 0)
(1.59992 -0.00414375 0)
(1.61592 0.000258479 0)
(1.63474 0.00377946 0)
(1.653 0.00366317 0)
(1.66825 0.00280915 0)
(1.68172 0.00313391 0)
(1.69257 0.00497389 0)
(1.70372 0.00613762 0)
(1.71744 0.00597309 0)
(1.73241 0.00538707 0)
(1.74767 0.00476748 0)
(1.76248 0.0049052 0)
(1.77577 0.00745489 0)
(1.7875 0.0124213 0)
(1.79965 0.0170996 0)
(1.81348 0.0195824 0)
(1.82881 0.0199717 0)
(1.84453 0.0190336 0)
(1.85884 0.0179951 0)
(1.8696 0.0191375 0)
(1.87784 0.0234686 0)
(1.88856 0.0285205 0)
(1.90259 0.031859 0)
(1.91796 0.0332624 0)
(1.93403 0.0335566 0)
(1.94996 0.0333431 0)
(1.96359 0.0339493 0)
(1.97039 0.0381256 0)
(1.97326 0.043385 0)
(1.98231 0.0447761 0)
(1.9958 0.0437318 0)
(2.01077 0.0419292 0)
(2.02618 0.0391888 0)
(2.04084 0.0367425 0)
(2.05421 0.036451 0)
(2.06215 0.0401378 0)
(2.06364 0.0453855 0)
(2.06958 0.0461496 0)
(2.08282 0.0473872 0)
(2.09794 0.0474075 0)
(2.11376 0.0505584 0)
(2.13001 0.0430935 0)
(1.56101 0.931126 0)
(1.79765 0.853605 0)
(2.00179 0.736377 0)
(2.16671 0.619683 0)
(2.31381 0.475269 0)
(2.43855 0.2904 0)
(2.51164 0.151639 0)
(2.56143 0.0825184 0)
(2.58861 0.00332143 0)
(2.65878 -0.124389 0)
(2.6879 -0.21381 0)
(2.71089 -0.302427 0)
(2.74233 -0.356697 0)
(2.7757 -0.363221 0)
(2.7577 -0.374175 0)
(2.71501 -0.389519 0)
(2.70957 -0.400431 0)
(2.71101 -0.407525 0)
(2.70485 -0.381454 0)
(2.65369 -0.370409 0)
(2.45622 -0.532086 0)
(2.38734 -0.715814 0)
(1.62872 -0.210151 0)
(1.33675 0.00923939 0)
(1.36744 0.00349381 0)
(1.39637 -0.0249185 0)
(1.40204 -0.0541884 0)
(1.39482 -0.0589891 0)
(1.39664 -0.0605726 0)
(1.40845 -0.0652173 0)
(1.42745 -0.066758 0)
(1.43622 -0.0643794 0)
(1.44129 -0.0589779 0)
(1.44107 -0.0513328 0)
(1.4446 -0.0482323 0)
(1.45366 -0.0489348 0)
(1.46661 -0.0521495 0)
(1.48316 -0.055264 0)
(1.49536 -0.0533938 0)
(1.50536 -0.0476729 0)
(1.51455 -0.0398358 0)
(1.52438 -0.0356264 0)
(1.53609 -0.0358496 0)
(1.54787 -0.038189 0)
(1.55923 -0.0396649 0)
(1.57023 -0.0386908 0)
(1.58085 -0.0328739 0)
(1.59394 -0.02457 0)
(1.60863 -0.0182894 0)
(1.62298 -0.0159101 0)
(1.63685 -0.0149029 0)
(1.64923 -0.0140397 0)
(1.65846 -0.0127277 0)
(1.66677 -0.00993691 0)
(1.6806 -0.00695746 0)
(1.69676 -0.00331321 0)
(1.71337 -0.000149806 0)
(1.72887 0.000590898 0)
(1.74281 0.0012727 0)
(1.75428 0.00196032 0)
(1.76347 0.00285616 0)
(1.77319 0.0041349 0)
(1.78557 0.00555944 0)
(1.79939 0.00713227 0)
(1.81347 0.00894777 0)
(1.82704 0.0109493 0)
(1.83921 0.0131646 0)
(1.84961 0.0160524 0)
(1.85976 0.0195176 0)
(1.8718 0.0228417 0)
(1.88532 0.0257037 0)
(1.89886 0.0279773 0)
(1.91115 0.0294408 0)
(1.92112 0.0306111 0)
(1.92935 0.0329512 0)
(1.93835 0.0365164 0)
(1.95031 0.039718 0)
(1.96504 0.04223 0)
(1.98059 0.044524 0)
(1.99576 0.0468193 0)
(2.00889 0.0489321 0)
(2.01607 0.0511389 0)
(2.01649 0.0535009 0)
(2.02249 0.0539026 0)
(2.03635 0.0535967 0)
(2.0513 0.0541653 0)
(2.06629 0.0550061 0)
(2.08082 0.0555512 0)
(2.09399 0.0555973 0)