/*--------------------------------*- C++ -*----------------------------------*\
  =========                 |
  \\      /  F ield         | OpenFOAM: The Open Source CFD Toolbox
   \\    /   O peration     | Website:  https://openfoam.org
    \\  /    A nd           | Version:  7
     \\/     M anipulation  |
\*---------------------------------------------------------------------------*/
FoamFile
{
    version     2.0;
    format      ascii;
    class       volScalarField;
    location    "25";
    object      p;
}
// * * * * * * * * * * * * * * * * * * * * * * * * * * * * * * * * * * * * * //

dimensions      [0 2 -2 0 0 0 0];

internalField   nonuniform List<scalar> 
1989
(
-0.216213
-0.212259
-0.213878
-0.208266
-0.209924
-0.204227
-0.20592
-0.200139
-0.20186
-0.195993
-0.204435
-0.197737
-0.191787
-0.200317
-0.193545
-0.187513
-0.196117
-0.189278
-0.183166
-0.19183
-0.184929
-0.178742
-0.19475
-0.187449
-0.180493
-0.174234
-0.19036
-0.182968
-0.175964
-0.169639
-0.185854
-0.178379
-0.171336
-0.16495
-0.181224
-0.173677
-0.166604
-0.160164
-0.176464
-0.168856
-0.161761
-0.155277
-0.171567
-0.163911
-0.156804
-0.150283
-0.166526
-0.158835
-0.151728
-0.14518
-0.161337
-0.153625
-0.146527
-0.139964
-0.155993
-0.148275
-0.141199
-0.134633
-0.158864
-0.150489
-0.142782
-0.135739
-0.129183
-0.153193
-0.144821
-0.137141
-0.130144
-0.123614
-0.147336
-0.138986
-0.13135
-0.124411
-0.117923
-0.141288
-0.132979
-0.125406
-0.11854
-0.112112
-0.135047
-0.126798
-0.119306
-0.112527
-0.106179
-0.128609
-0.120441
-0.113048
-0.106375
-0.10013
-0.113904
-0.106629
-0.10008
-0.0939658
-0.107187
-0.100047
-0.093639
-0.0876752
-0.100289
-0.0933047
-0.0870471
-0.231567
-0.234933
-0.235783
-0.236483
-0.237605
-0.238795
-0.239774
-0.24052
-0.241091
-0.241524
-0.241823
-0.241986
-0.242015
-0.225782
-0.229399
-0.230432
-0.231218
-0.232429
-0.233748
-0.234871
-0.235752
-0.23645
-0.237005
-0.237424
-0.237705
-0.237847
-0.219884
-0.223729
-0.224976
-0.225877
-0.227174
-0.228608
-0.229864
-0.230876
-0.231695
-0.232366
-0.2329
-0.233293
-0.233544
-0.213949
-0.217969
-0.219435
-0.220471
-0.221858
-0.223396
-0.224778
-0.225915
-0.226852
-0.227636
-0.228279
-0.22878
-0.229136
-0.208002
-0.212154
-0.213831
-0.215013
-0.216496
-0.218134
-0.219633
-0.220891
-0.221942
-0.222834
-0.223583
-0.224188
-0.224646
-0.202061
-0.206313
-0.208188
-0.209521
-0.211103
-0.212836
-0.214445
-0.215818
-0.21698
-0.217977
-0.218828
-0.219534
-0.22009
-0.196149
-0.200471
-0.202528
-0.204009
-0.205691
-0.207515
-0.209226
-0.210709
-0.211978
-0.213076
-0.214025
-0.214828
-0.215481
-0.190284
-0.19465
-0.196871
-0.198496
-0.200277
-0.202186
-0.203992
-0.205577
-0.206947
-0.208142
-0.209186
-0.210082
-0.210828
-0.184486
-0.18887
-0.191237
-0.192999
-0.194874
-0.196862
-0.198754
-0.200434
-0.2019
-0.203188
-0.204323
-0.205308
-0.206142
-0.178776
-0.183153
-0.185648
-0.187537
-0.189499
-0.191559
-0.193529
-0.195296
-0.196851
-0.198226
-0.199446
-0.200516
-0.201435
-0.173171
-0.177518
-0.180121
-0.182124
-0.184167
-0.18629
-0.18833
-0.190174
-0.191811
-0.193267
-0.194567
-0.195717
-0.196716
-0.167687
-0.171984
-0.174674
-0.176779
-0.178892
-0.181071
-0.18317
-0.185083
-0.186793
-0.188325
-0.189699
-0.190923
-0.191998
-0.162336
-0.166566
-0.169322
-0.171513
-0.173688
-0.175914
-0.178062
-0.180035
-0.181811
-0.18341
-0.184852
-0.186145
-0.18729
-0.157129
-0.161277
-0.16408
-0.166342
-0.168569
-0.170831
-0.17302
-0.175043
-0.176876
-0.178535
-0.180038
-0.181394
-0.182604
-0.152074
-0.156129
-0.15896
-0.161279
-0.163546
-0.165837
-0.168057
-0.17012
-0.172001
-0.173712
-0.17527
-0.176683
-0.177951
-0.14718
-0.151131
-0.153974
-0.156334
-0.158632
-0.160942
-0.163184
-0.165278
-0.167199
-0.168954
-0.170559
-0.172022
-0.173343
-0.142453
-0.146292
-0.149131
-0.151521
-0.153838
-0.15616
-0.158415
-0.160531
-0.162482
-0.164273
-0.165919
-0.167425
-0.168792
-0.1379
-0.141621
-0.144443
-0.146849
-0.149177
-0.151501
-0.15376
-0.15589
-0.157863
-0.159683
-0.161362
-0.162905
-0.164312
-0.133526
-0.137123
-0.139918
-0.142329
-0.144658
-0.146976
-0.149233
-0.151367
-0.153354
-0.155196
-0.1569
-0.158473
-0.159915
-0.129335
-0.132806
-0.135563
-0.137969
-0.140291
-0.142597
-0.144843
-0.146975
-0.148969
-0.150824
-0.152547
-0.154144
-0.155613
-0.125332
-0.128674
-0.131385
-0.133777
-0.136086
-0.138372
-0.140601
-0.142724
-0.144717
-0.146579
-0.148316
-0.14993
-0.151421
-0.121519
-0.124733
-0.127391
-0.129761
-0.132049
-0.134311
-0.136518
-0.138625
-0.140612
-0.142474
-0.144217
-0.145843
-0.147352
-0.1179
-0.120985
-0.123586
-0.125928
-0.12819
-0.130423
-0.132602
-0.134689
-0.136663
-0.138521
-0.140265
-0.141897
-0.143417
-0.114476
-0.117436
-0.119976
-0.122284
-0.124516
-0.126716
-0.128863
-0.130925
-0.132882
-0.13473
-0.136471
-0.138104
-0.13963
-0.111251
-0.114089
-0.116564
-0.118836
-0.121034
-0.123198
-0.12531
-0.127344
-0.12928
-0.131114
-0.132846
-0.134477
-0.136005
-0.108227
-0.110947
-0.113358
-0.115589
-0.117751
-0.119876
-0.121952
-0.123954
-0.125866
-0.127682
-0.129403
-0.131028
-0.132554
-0.105407
-0.108015
-0.110361
-0.11255
-0.114674
-0.11676
-0.118798
-0.120767
-0.122652
-0.124448
-0.126154
-0.127769
-0.129291
-0.102795
-0.105296
-0.107578
-0.109725
-0.11181
-0.113857
-0.115857
-0.117791
-0.119648
-0.121422
-0.123112
-0.124715
-0.12623
-0.100396
-0.102797
-0.105017
-0.107122
-0.109169
-0.111177
-0.113138
-0.115038
-0.116867
-0.118617
-0.120289
-0.121878
-0.123383
-0.098213
-0.100522
-0.102684
-0.104748
-0.106758
-0.108728
-0.110652
-0.112519
-0.114319
-0.116046
-0.117698
-0.119273
-0.120768
-0.0962547
-0.0984794
-0.100588
-0.102613
-0.104587
-0.106522
-0.108411
-0.110246
-0.112018
-0.113722
-0.115356
-0.116915
-0.118398
-0.0945283
-0.0966783
-0.0987373
-0.100727
-0.102669
-0.104571
-0.106428
-0.108233
-0.109979
-0.111661
-0.113276
-0.114821
-0.116293
-0.0930447
-0.0951296
-0.0971453
-0.0991032
-0.101016
-0.102889
-0.104718
-0.106496
-0.108219
-0.109881
-0.111479
-0.11301
-0.114471
-0.0918165
-0.0938471
-0.0958263
-0.0977571
-0.0996457
-0.101494
-0.103298
-0.105054
-0.106756
-0.108401
-0.109984
-0.111503
-0.112954
-0.0908575
-0.0928461
-0.0947966
-0.0967062
-0.0985753
-0.100404
-0.102189
-0.103926
-0.105613
-0.107244
-0.108815
-0.110324
-0.111767
-0.0901952
-0.0921528
-0.094083
-0.0959778
-0.0978334
-0.0996479
-0.101419
-0.103144
-0.104819
-0.106439
-0.108002
-0.109504
-0.11094
-0.0898324
-0.0917791
-0.0937009
-0.0955889
-0.0974381
-0.0992462
-0.101011
-0.10273
-0.104399
-0.106014
-0.107573
-0.109071
-0.110505
-0.11336
-0.1102
-0.107143
-0.104187
-0.10136
-0.09866
-0.0960769
-0.0936047
-0.0912395
-0.0889773
-0.0868135
-0.0847435
-0.0827645
-0.0808749
-0.0790703
-0.0773464
-0.0757005
-0.0741295
-0.0726302
-0.0712002
-0.0698371
-0.0685373
-0.0672996
-0.0661252
-0.0650121
-0.0639573
-0.062961
-0.0620224
-0.0611415
-0.0603186
-0.0595543
-0.05885
-0.0582074
-0.0576287
-0.0571167
-0.0566762
-0.0563083
-0.056028
-0.0558204
-0.0557354
-0.118907
-0.115552
-0.11228
-0.109122
-0.106102
-0.103214
-0.100447
-0.0977964
-0.0952579
-0.0928276
-0.0905013
-0.0882743
-0.0861437
-0.0841075
-0.0821616
-0.0803019
-0.0785255
-0.0768293
-0.0752102
-0.0736655
-0.072193
-0.0707892
-0.069453
-0.0681846
-0.0669821
-0.0658429
-0.0647672
-0.0637541
-0.0628034
-0.0619155
-0.0610911
-0.0603313
-0.0596381
-0.0590137
-0.058461
-0.0579848
-0.0575864
-0.0572814
-0.057055
-0.0569555
-0.124355
-0.120818
-0.117337
-0.113987
-0.110783
-0.107715
-0.104771
-0.101947
-0.0992406
-0.0966469
-0.0941619
-0.0917814
-0.0895023
-0.0873221
-0.0852371
-0.0832435
-0.0813383
-0.0795183
-0.0777805
-0.0761222
-0.0745412
-0.0730342
-0.0715997
-0.0702376
-0.0689462
-0.0677232
-0.0665683
-0.0654809
-0.0644606
-0.0635079
-0.0626234
-0.0618083
-0.0610646
-0.0603946
-0.0598011
-0.0592893
-0.0588605
-0.0585306
-0.0582857
-0.0581713
-0.129704
-0.125996
-0.122317
-0.118783
-0.115404
-0.112163
-0.109048
-0.106058
-0.103188
-0.100435
-0.0977957
-0.095265
-0.0928402
-0.0905187
-0.0882969
-0.0861712
-0.0841387
-0.0821963
-0.080341
-0.0785701
-0.0768814
-0.0752717
-0.0737394
-0.0722843
-0.0709044
-0.0695978
-0.068364
-0.0672024
-0.0661127
-0.0650953
-0.0641508
-0.0632805
-0.0624863
-0.0617707
-0.0611365
-0.0605892
-0.0601301
-0.0597753
-0.059512
-0.0593825
-0.134955
-0.131089
-0.127221
-0.123512
-0.119966
-0.116559
-0.113281
-0.110129
-0.107101
-0.104194
-0.101403
-0.0987255
-0.0961579
-0.0936974
-0.0913409
-0.089085
-0.0869267
-0.0848632
-0.0828915
-0.0810089
-0.0792132
-0.0775015
-0.075872
-0.0743242
-0.0728562
-0.0714662
-0.0701538
-0.0689182
-0.0677592
-0.0666772
-0.0656728
-0.0647473
-0.0639027
-0.0631416
-0.0624668
-0.0618841
-0.0613946
-0.061015
-0.0607335
-0.060589
-0.140109
-0.136098
-0.132049
-0.128175
-0.12447
-0.120905
-0.117469
-0.114162
-0.110981
-0.107923
-0.104985
-0.102163
-0.0994555
-0.0968584
-0.0943693
-0.0919848
-0.0897023
-0.0875189
-0.0854318
-0.0834384
-0.0815364
-0.0797233
-0.0779971
-0.0763569
-0.0748011
-0.0733281
-0.0719372
-0.0706278
-0.0693997
-0.0682531
-0.0671889
-0.0662084
-0.0653134
-0.0645068
-0.0637915
-0.0631733
-0.0626538
-0.0622494
-0.0619499
-0.0617904
-0.145169
-0.141024
-0.136804
-0.132772
-0.128918
-0.125201
-0.121614
-0.118157
-0.114827
-0.111623
-0.108541
-0.105579
-0.102733
-0.100002
-0.0973821
-0.0948708
-0.0924654
-0.0901633
-0.0879618
-0.0858584
-0.0838509
-0.0819368
-0.0801142
-0.0783821
-0.0767389
-0.075183
-0.0737139
-0.0723308
-0.0710336
-0.0698226
-0.0686987
-0.0676631
-0.0667179
-0.0658658
-0.0651101
-0.0644566
-0.063907
-0.063478
-0.0631608
-0.0629864
-0.150136
-0.14587
-0.141487
-0.137307
-0.13331
-0.12945
-0.125718
-0.122115
-0.118642
-0.115296
-0.112073
-0.108973
-0.105992
-0.103129
-0.10038
-0.0977431
-0.0952162
-0.0927965
-0.0904816
-0.0882689
-0.0861564
-0.0841418
-0.0822233
-0.0803995
-0.0786691
-0.0770306
-0.0754833
-0.0740267
-0.0726605
-0.0713852
-0.0702016
-0.0691111
-0.0681156
-0.0672183
-0.0664221
-0.0657335
-0.065154
-0.0647005
-0.0643657
-0.0641767
-0.155014
-0.150637
-0.1461
-0.141779
-0.137649
-0.133652
-0.12978
-0.126038
-0.122425
-0.11894
-0.115581
-0.112346
-0.109232
-0.106238
-0.103362
-0.100602
-0.0979547
-0.0954185
-0.0929909
-0.0906697
-0.0884528
-0.0863382
-0.0843239
-0.0824088
-0.0805914
-0.0788704
-0.0772452
-0.0757151
-0.0742801
-0.0729405
-0.0716973
-0.0705518
-0.0695062
-0.0685636
-0.0677272
-0.0670035
-0.0663943
-0.0659164
-0.0655643
-0.0653609
-0.159805
-0.155328
-0.150645
-0.146191
-0.141935
-0.137809
-0.133803
-0.129926
-0.126178
-0.122558
-0.119065
-0.115698
-0.112454
-0.109332
-0.10633
-0.103447
-0.100681
-0.0980292
-0.0954898
-0.0930606
-0.0907399
-0.0885256
-0.0864159
-0.0844097
-0.0825055
-0.0807022
-0.0789991
-0.0773956
-0.0758918
-0.074488
-0.0731852
-0.0719849
-0.0708892
-0.0699014
-0.0690248
-0.0682662
-0.0676274
-0.0671253
-0.0667563
-0.0665387
-0.164512
-0.159946
-0.155124
-0.150545
-0.146171
-0.141921
-0.137788
-0.13378
-0.129901
-0.126151
-0.122527
-0.119029
-0.115657
-0.112409
-0.109284
-0.10628
-0.103395
-0.100629
-0.0979782
-0.0954417
-0.0930176
-0.0907039
-0.0884991
-0.086402
-0.0844112
-0.0825256
-0.0807447
-0.0790679
-0.0774953
-0.0760273
-0.074665
-0.0734098
-0.0722642
-0.0712313
-0.0703146
-0.0695211
-0.0688531
-0.0683269
-0.0679412
-0.0677099
-0.16914
-0.164493
-0.159539
-0.154843
-0.150359
-0.145992
-0.141735
-0.137602
-0.133596
-0.129718
-0.125966
-0.122342
-0.118843
-0.115471
-0.112223
-0.109099
-0.106098
-0.103217
-0.100456
-0.0978129
-0.0952857
-0.092873
-0.0905733
-0.0883854
-0.0863081
-0.0843403
-0.0824817
-0.0807316
-0.0790902
-0.0775581
-0.0761362
-0.0748263
-0.0736307
-0.0725528
-0.0715962
-0.070768
-0.0700708
-0.0695209
-0.0691188
-0.0688742
-0.173691
-0.168972
-0.163893
-0.159087
-0.154499
-0.150022
-0.145647
-0.141392
-0.137263
-0.133261
-0.129384
-0.125635
-0.122012
-0.118517
-0.115148
-0.111906
-0.108788
-0.105795
-0.102924
-0.100174
-0.0975443
-0.0950328
-0.0926383
-0.0903597
-0.088196
-0.0861461
-0.0842097
-0.0823863
-0.0806762
-0.0790799
-0.0775986
-0.0762339
-0.0749884
-0.0738656
-0.0728691
-0.0720064
-0.0712803
-0.0707068
-0.0702887
-0.0700312
-0.17817
-0.173386
-0.168188
-0.163278
-0.158595
-0.154014
-0.149525
-0.145152
-0.140904
-0.13678
-0.132782
-0.12891
-0.125165
-0.121549
-0.118061
-0.1147
-0.111468
-0.108362
-0.105381
-0.102526
-0.0997933
-0.0971832
-0.094694
-0.0923248
-0.0900746
-0.0879427
-0.0859285
-0.0840318
-0.082253
-0.0805925
-0.0790516
-0.0776322
-0.0763369
-0.0751692
-0.074133
-0.073236
-0.0724811
-0.0718843
-0.0714506
-0.0711807
-0.182581
-0.177738
-0.172426
-0.16742
-0.162648
-0.157968
-0.153371
-0.148884
-0.144519
-0.140278
-0.13616
-0.132167
-0.128302
-0.124566
-0.12096
-0.117483
-0.114135
-0.110918
-0.107828
-0.104867
-0.102033
-0.099324
-0.0967403
-0.0942805
-0.0919439
-0.0897298
-0.0876378
-0.0856678
-0.0838201
-0.0820954
-0.0804951
-0.079021
-0.0776758
-0.0764633
-0.0753876
-0.0744563
-0.073673
-0.0730532
-0.0726041
-0.0723225
-0.186927
-0.182032
-0.17661
-0.171513
-0.166661
-0.161888
-0.157185
-0.152588
-0.14811
-0.143754
-0.139519
-0.135408
-0.131424
-0.12757
-0.123846
-0.120253
-0.116792
-0.113463
-0.110265
-0.107199
-0.104262
-0.101455
-0.098777
-0.0962267
-0.0938036
-0.0915073
-0.0893374
-0.087294
-0.0853774
-0.0835884
-0.0819285
-0.0803997
-0.0790047
-0.0777476
-0.0766324
-0.075667
-0.0748556
-0.074213
-0.073749
-0.0734562
-0.191212
-0.18627
-0.180742
-0.175562
-0.170635
-0.165774
-0.16097
-0.156265
-0.151678
-0.14721
-0.14286
-0.138632
-0.134531
-0.13056
-0.12672
-0.123013
-0.119439
-0.115999
-0.112693
-0.109521
-0.106482
-0.103577
-0.100804
-0.0981632
-0.0956535
-0.0932749
-0.091027
-0.0889101
-0.0869245
-0.0850712
-0.0833517
-0.0817682
-0.0803234
-0.0790217
-0.0778671
-0.0768679
-0.0760285
-0.0753634
-0.0748849
-0.0745816
-0.195442
-0.190455
-0.184826
-0.179567
-0.174573
-0.16963
-0.164726
-0.159917
-0.155224
-0.150646
-0.146183
-0.141841
-0.137625
-0.133538
-0.129582
-0.125761
-0.122074
-0.118524
-0.11511
-0.111833
-0.108693
-0.105689
-0.102822
-0.10009
-0.0974936
-0.0950325
-0.0927065
-0.0905159
-0.0884612
-0.0865435
-0.0847644
-0.0831261
-0.0816315
-0.0802852
-0.0790914
-0.0780585
-0.0771914
-0.0765042
-0.0760115
-0.0756984
-0.199619
-0.19459
-0.188862
-0.183533
-0.178478
-0.173455
-0.168456
-0.163546
-0.15875
-0.154065
-0.149491
-0.145035
-0.140705
-0.136503
-0.132434
-0.128498
-0.1247
-0.121039
-0.117518
-0.114136
-0.110894
-0.107792
-0.10483
-0.102007
-0.0993237
-0.0967799
-0.0943757
-0.0921112
-0.0899873
-0.0880051
-0.0861662
-0.0844731
-0.0829288
-0.081538
-0.080305
-0.0792386
-0.0783441
-0.0776351
-0.0771286
-0.0768065
-0.203746
-0.198677
-0.192854
-0.187462
-0.182353
-0.177254
-0.172161
-0.167153
-0.162257
-0.157466
-0.152782
-0.148215
-0.143772
-0.139457
-0.135274
-0.131226
-0.127316
-0.123546
-0.119916
-0.11643
-0.113086
-0.109885
-0.106828
-0.103914
-0.101144
-0.0985171
-0.0960344
-0.0936959
-0.0915026
-0.0894556
-0.0875569
-0.0858089
-0.0842149
-0.0827796
-0.0815076
-0.0804079
-0.0794862
-0.0787557
-0.0782359
-0.0779055
-0.207827
-0.202718
-0.196806
-0.191358
-0.1862
-0.181026
-0.175841
-0.170739
-0.165746
-0.160852
-0.15606
-0.151382
-0.146828
-0.1424
-0.138104
-0.133944
-0.129923
-0.126043
-0.122306
-0.118714
-0.115268
-0.111969
-0.108816
-0.105811
-0.102954
-0.100244
-0.0976824
-0.0952697
-0.0930068
-0.090895
-0.0889363
-0.0871334
-0.0854896
-0.0840099
-0.082699
-0.0815661
-0.0806175
-0.0798659
-0.0793331
-0.0789953
-0.211863
-0.206716
-0.20072
-0.195226
-0.190023
-0.184774
-0.1795
-0.174307
-0.169219
-0.164222
-0.159323
-0.154537
-0.149873
-0.145333
-0.140925
-0.136653
-0.13252
-0.128531
-0.124687
-0.12099
-0.117442
-0.114043
-0.110795
-0.107699
-0.104753
-0.10196
-0.0993197
-0.0968325
-0.0944998
-0.092323
-0.0903042
-0.0884463
-0.0867526
-0.0852285
-0.0838788
-0.0827128
-0.0817376
-0.0809653
-0.0804199
-0.0800756
-0.215855
-0.21067
-0.2046
-0.199067
-0.19382
-0.188497
-0.183136
-0.177857
-0.172676
-0.167579
-0.162574
-0.157681
-0.152907
-0.148256
-0.143736
-0.139353
-0.13511
-0.131011
-0.127059
-0.123257
-0.119606
-0.116108
-0.112765
-0.109576
-0.106543
-0.103666
-0.100946
-0.0983843
-0.0959814
-0.0937394
-0.0916603
-0.0897473
-0.0880038
-0.0864352
-0.0850469
-0.083848
-0.0828464
-0.0820537
-0.081496
-0.0811462
-0.219804
-0.214584
-0.208457
-0.202896
-0.197604
-0.192204
-0.186759
-0.181395
-0.176122
-0.170923
-0.165814
-0.160815
-0.155932
-0.15117
-0.146539
-0.142044
-0.137691
-0.133482
-0.129423
-0.125515
-0.121762
-0.118165
-0.114725
-0.111444
-0.108322
-0.105361
-0.102562
-0.0999247
-0.0974516
-0.095144
-0.0930046
-0.0910362
-0.0892428
-0.0876299
-0.0862029
-0.0849713
-0.0839436
-0.0831309
-0.0825613
-0.0822069
-0.223709
-0.218457
-0.212284
-0.206695
-0.201354
-0.19588
-0.190358
-0.184916
-0.179554
-0.174255
-0.169044
-0.16394
-0.158948
-0.154077
-0.149335
-0.144729
-0.140265
-0.135947
-0.131779
-0.127766
-0.123909
-0.120212
-0.116676
-0.113302
-0.110092
-0.107046
-0.104167
-0.101454
-0.0989101
-0.0965369
-0.0943367
-0.092313
-0.0904696
-0.0888122
-0.0873467
-0.0860825
-0.0850289
-0.0841967
-0.0836155
-0.0832575
-0.222318
-0.216131
-0.210518
-0.205119
-0.199561
-0.193955
-0.188433
-0.182977
-0.177578
-0.172265
-0.167056
-0.161955
-0.156974
-0.152122
-0.147406
-0.142831
-0.138403
-0.134128
-0.130008
-0.126048
-0.122251
-0.118617
-0.11515
-0.111851
-0.10872
-0.10576
-0.102972
-0.100357
-0.0979176
-0.0956566
-0.0935773
-0.0916838
-0.089982
-0.088478
-0.0871814
-0.0861022
-0.0852508
-0.0846583
-0.0842978
-0.219906
-0.214268
-0.208821
-0.203194
-0.197527
-0.191935
-0.186391
-0.180895
-0.175483
-0.170169
-0.16496
-0.15987
-0.154907
-0.150079
-0.145394
-0.140856
-0.136471
-0.132245
-0.128181
-0.124282
-0.120551
-0.11699
-0.113601
-0.110385
-0.107343
-0.104479
-0.101792
-0.0992868
-0.0969646
-0.0948294
-0.0928857
-0.0911394
-0.0895968
-0.0882679
-0.0871632
-0.086293
-0.0856895
-0.0853277
-0.223853
-0.218164
-0.212613
-0.206873
-0.201125
-0.195449
-0.189805
-0.184211
-0.178697
-0.173276
-0.167958
-0.162758
-0.157685
-0.152747
-0.14795
-0.143302
-0.138808
-0.134475
-0.130306
-0.126305
-0.122476
-0.11882
-0.11534
-0.112038
-0.108915
-0.105974
-0.103216
-0.100643
-0.0982597
-0.0960686
-0.0940745
-0.0922836
-0.0907027
-0.0893416
-0.0882116
-0.0873232
-0.0867088
-0.0863469
-0.221898
-0.216302
-0.210513
-0.204725
-0.198977
-0.193243
-0.187556
-0.181941
-0.176413
-0.170986
-0.165674
-0.160487
-0.155434
-0.150523
-0.145761
-0.141156
-0.136713
-0.132437
-0.128333
-0.124403
-0.120651
-0.117079
-0.113689
-0.110483
-0.107463
-0.104632
-0.101992
-0.099546
-0.0972981
-0.0952529
-0.093417
-0.0917972
-0.0904037
-0.0892482
-0.0883418
-0.0877164
-0.0873556
-0.226118
-0.220279
-0.214352
-0.208467
-0.202611
-0.196772
-0.190977
-0.185247
-0.179601
-0.174056
-0.168626
-0.163322
-0.158151
-0.153122
-0.148244
-0.143523
-0.138966
-0.134579
-0.130367
-0.126334
-0.122482
-0.118815
-0.115335
-0.112045
-0.108946
-0.10604
-0.103331
-0.100822
-0.0985164
-0.0964197
-0.0945383
-0.0928795
-0.0914535
-0.0902726
-0.0893485
-0.0887121
-0.0883537
-0.107713
-0.104759
-0.101926
-0.0991805
-0.096556
-0.0940523
-0.0916598
-0.0893722
-0.0871855
-0.0850959
-0.0830987
-0.081189
-0.0793643
-0.0776237
-0.0759628
-0.0743766
-0.072863
-0.0714188
-0.070041
-0.068727
-0.0674745
-0.0662788
-0.0651391
-0.0640592
-0.0630363
-0.0620664
-0.06115
-0.0602863
-0.0594754
-0.0587176
-0.0580137
-0.0573649
-0.0567729
-0.05624
-0.0557688
-0.0553639
-0.0550264
-0.054771
-0.0545821
-0.0545114
-0.101965
-0.0992303
-0.0966293
-0.0941038
-0.0916903
-0.0893905
-0.0871955
-0.0850985
-0.083096
-0.0811843
-0.0793582
-0.0776108
-0.0759411
-0.0743516
-0.0728373
-0.0713917
-0.0700126
-0.0686971
-0.0674423
-0.0662459
-0.0651054
-0.064014
-0.0629716
-0.0619869
-0.0610552
-0.060171
-0.0593348
-0.0585463
-0.0578056
-0.0571132
-0.0564697
-0.0558765
-0.0553352
-0.054848
-0.0544177
-0.0540485
-0.0537414
-0.053511
-0.0533406
-0.0532846
-0.0961232
-0.0936196
-0.0912567
-0.0889576
-0.0867607
-0.0846709
-0.0826802
-0.0807807
-0.0789691
-0.077242
-0.0755922
-0.074008
-0.0724926
-0.0710567
-0.0696929
-0.0683911
-0.0671489
-0.0659639
-0.0648335
-0.0637561
-0.0627285
-0.0617427
-0.0608
-0.0599109
-0.0590707
-0.0582724
-0.0575166
-0.0568035
-0.0561332
-0.0555061
-0.0549231
-0.0543855
-0.053895
-0.0534536
-0.053064
-0.0527305
-0.0524537
-0.0522488
-0.0520962
-0.0520563
-0.0901897
-0.0879309
-0.0858108
-0.0837398
-0.0817593
-0.0798846
-0.0781069
-0.0764132
-0.0747996
-0.0732636
-0.0717951
-0.0703783
-0.0690217
-0.0677431
-0.0665329
-0.0653769
-0.0642731
-0.0632197
-0.0622144
-0.061256
-0.0603406
-0.0594639
-0.0586314
-0.0578363
-0.0570861
-0.0563729
-0.0556973
-0.0550593
-0.0544592
-0.0538974
-0.0533749
-0.0528929
-0.052453
-0.0520574
-0.0517085
-0.0514107
-0.0511638
-0.0509848
-0.0508496
-0.0508269
-0.0841477
-0.0821509
-0.0802792
-0.07844
-0.0766817
-0.0750314
-0.0734762
-0.071995
-0.0705839
-0.0692408
-0.067954
-0.066721
-0.0655464
-0.0644256
-0.0633671
-0.062356
-0.0613903
-0.0604683
-0.0595881
-0.0587478
-0.0579431
-0.0571793
-0.056469
-0.0557649
-0.0551026
-0.0544737
-0.0538777
-0.0533146
-0.0527845
-0.052288
-0.0518259
-0.0513993
-0.05101
-0.05066
-0.0503518
-0.0500894
-0.0498728
-0.0497183
-0.0496014
-0.0495935
-0.0555521
-0.0548984
-0.0542872
-0.0536842
-0.0531128
-0.05257
-0.0520548
-0.0515674
-0.0511079
-0.050677
-0.0502754
-0.0499045
-0.0495659
-0.0492616
-0.048994
-0.0487668
-0.0485805
-0.0484502
-0.048352
-0.0483576
)
;

boundaryField
{
    inlet
    {
        type            zeroGradient;
    }
    outlet
    {
        type            fixedValue;
        value           nonuniform 0();
    }
    cylinder
    {
        type            zeroGradient;
    }
    top
    {
        type            symmetryPlane;
    }
    bottom
    {
        type            symmetryPlane;
    }
    defaultFaces
    {
        type            empty;
    }
    procBoundary13to9
    {
        type            processor;
        value           nonuniform List<scalar> 
58
(
-0.227912
-0.22403
-0.220134
-0.220134
-0.221658
-0.217787
-0.217787
-0.220243
-0.216378
-0.212459
-0.208481
-0.208481
-0.211297
-0.207297
-0.20321
-0.199031
-0.199031
-0.202516
-0.198238
-0.193835
-0.189299
-0.184622
-0.179796
-0.174814
-0.169669
-0.164354
-0.164354
-0.167976
-0.162324
-0.156466
-0.150398
-0.144115
-0.137614
-0.121971
-0.121971
-0.115133
-0.108093
-0.23717
-0.240262
-0.241007
-0.241674
-0.242703
-0.243743
-0.244567
-0.24517
-0.245609
-0.24591
-0.246081
-0.246121
-0.246032
-0.227573
-0.227573
-0.226119
-0.226119
-0.230076
-0.227537
-0.227537
-0.231977
)
;
    }
    procBoundary13to10
    {
        type            processor;
        value           nonuniform List<scalar> 2(-0.241913 -0.237853);
    }
    procBoundary13to12
    {
        type            processor;
        value           nonuniform List<scalar> 
46
(
-0.0812181
-0.0932138
-0.0864089
-0.0812181
-0.0803134
-0.0779396
-0.0762443
-0.0746254
-0.073052
-0.0715598
-0.0701426
-0.0688113
-0.0675427
-0.066333
-0.0651796
-0.0640699
-0.0630441
-0.0620828
-0.0611139
-0.0602024
-0.0593344
-0.0585064
-0.0577164
-0.0569622
-0.0562418
-0.0562418
-0.0531563
-0.0526127
-0.0521001
-0.0515985
-0.0511197
-0.0506637
-0.0502301
-0.0498188
-0.0494303
-0.0490652
-0.0487244
-0.0484092
-0.0481213
-0.0478626
-0.0476356
-0.0474437
-0.0472876
-0.0471811
-0.0471016
-0.0471201
)
;
    }
    procBoundary13to14
    {
        type            processor;
        value           nonuniform List<scalar> 
35
(
-0.233656
-0.229349
-0.224959
-0.220499
-0.215983
-0.211422
-0.206824
-0.202201
-0.197563
-0.192921
-0.188284
-0.183664
-0.179072
-0.174519
-0.170018
-0.165582
-0.161223
-0.156954
-0.152788
-0.148739
-0.144821
-0.141046
-0.137428
-0.13398
-0.130717
-0.127652
-0.124801
-0.122178
-0.119801
-0.117688
-0.115857
-0.114333
-0.113139
-0.112308
-0.11187
)
;
    }
}


// ************************************************************************* //
