/*--------------------------------*- C++ -*----------------------------------*\
  =========                 |
  \\      /  F ield         | OpenFOAM: The Open Source CFD Toolbox
   \\    /   O peration     | Website:  https://openfoam.org
    \\  /    A nd           | Version:  7
     \\/     M anipulation  |
\*---------------------------------------------------------------------------*/
FoamFile
{
    version     2.0;
    format      ascii;
    class       volScalarField;
    location    "5";
    object      p;
}
// * * * * * * * * * * * * * * * * * * * * * * * * * * * * * * * * * * * * * //

dimensions      [1 -1 -2 0 0 0 0];

internalField   nonuniform List<scalar> 
4032
(
1
1
1
1
1
1
1
1
1
1
1
1.31211
7.54658
10.6099
10.7429
10.9507
11.136
11.313
11.4759
11.6224
11.7529
11.8583
11.939
11.9984
1
1
1
1
1
1
1
1
1
1
1
1.27333
7.38166
10.5761
10.7289
10.9308
11.1126
11.2851
11.4428
11.5827
11.7052
11.8028
11.8747
11.931
1
1
1
1
1
1
1
1
1
1
1
1.17028
7.07814
10.5453
10.6868
10.8873
11.0691
11.2397
11.3944
11.5288
11.6435
11.7324
11.791
11.8394
1
1
1
1
1
1
1
1
1
1
1
1.01418
6.57551
10.4868
10.6309
10.8186
10.9911
11.1502
11.2958
11.4241
11.5353
11.6199
11.6687
11.7057
1
1
1
1
1
1
1
1
1
1
1
1.00016
5.89998
10.3135
10.5035
10.6864
10.8609
11.0167
11.155
11.2693
11.3592
11.426
11.461
11.5098
1
1
1
1
1
1
1
1
1
1
1
0.999999
5.05598
10.0795
10.3925
10.5599
10.7252
10.863
10.9809
11.0786
11.1573
11.2177
11.23
11.1895
1
1
1
1
1
1
1
1
1
1
1
1
4.09148
9.71899
10.2764
10.4324
10.5758
10.6834
10.7649
10.8235
10.8443
10.8089
10.7406
10.6968
1
1
1
1
1
1
1
1
1
1
1
1
3.04868
9.16077
10.1897
10.3256
10.4386
10.5109
10.5434
10.5462
10.4998
10.422
10.2936
10.2814
1
1
1
1
1
1
1
1
1
1
1
1
1.97379
8.29456
10.1495
10.1991
10.2901
10.3298
10.3134
10.2521
10.107
9.83993
9.06164
7.18037
1
1
1
1
1
1
1
1
1
1
1
1
1.11968
7.13652
10.1903
10.0905
10.0884
10.0773
10.0199
9.89445
9.65565
9.18409
8.38194
6.31704
1
1
1
1
1
1
1
1
1
1
1
1
1.00135
5.51549
9.58627
9.73147
9.79419
9.7677
9.69098
9.51704
9.2208
8.65892
7.82847
5.89624
1
1
1
1
1
1
1
1
1
1
1
1
0.99998
3.64424
8.99017
9.5969
9.6271
9.56119
9.43918
9.2094
8.8513
8.27889
7.3721
5.80985
1
1
1
1
1
1
1
1
1
1
1
1
0.999995
1.92732
8.02275
9.54317
9.44847
9.33532
9.17552
8.91096
8.51654
7.95997
7.05619
5.83841
1
1
1
1
1
1
1
1
1
1
1
1
0.999999
1.08999
6.25437
9.19519
9.1872
9.08971
8.92276
8.65126
8.26197
7.70126
6.8764
5.91793
1
1
1
1
1
1
1
1
1
1
1
1
1
1.00041
3.7861
8.59196
9.04769
8.94184
8.75596
8.44504
8.05635
7.48637
6.76929
5.98698
1
1
1
1
1
1
1
1
1
1
1
1
1
0.999995
1.59078
7.60843
9.08504
8.80506
8.56148
8.24565
7.83252
7.32682
6.7164
6.05075
1
1
1
1
1
1
1
1
1
1
1
1
1
0.999999
1.03071
5.56396
8.64059
8.46336
8.29541
8.024
7.65781
7.20616
6.67322
6.08888
1
1
1
1
1
1
1
1
1
1
1
1
1
1
0.999957
2.76324
7.90092
8.3585
8.20422
7.9342
7.57696
7.13895
6.64354
6.11898
1
1
1
1
1
1
1
1
1
1
1
1
1
1
0.999986
1.21937
6.05409
8.30052
8.11219
7.82842
7.47539
7.06356
6.61294
6.14113
1
1
1
1
1
1
1
1
1
1
1
1
1
1
0.999998
1.00369
3.19449
7.58919
7.98758
7.70612
7.38223
7.00038
6.59325
6.16524
1
1
1
1
1
1
1
1
1
1
1
1
1
1
1
0.999999
1.3294
5.95226
7.95558
7.64033
7.33239
6.96277
6.58186
6.18732
1
1
1
1
1
1
1
1
1
1
1
1
1
1
1
1
1.00869
3.06311
7.20794
7.54577
7.24429
6.90546
6.5548
6.20229
1
1
1
1
1
1
1
1
1
1
1
1
1
1
1
1
1.00002
1.29598
5.42936
7.55591
7.21519
6.90999
6.58048
6.24712
1
1
1
1
1
1
1
1
1
1
1
1
1
1
1
1
1
1.00738
2.4813
6.51903
7.1751
6.89103
6.59265
6.26982
1
1
1
1
1
1
1
1
1
1
1
1
1
1
1
1
1
1.00003
1.15834
4.36381
7.11484
6.91416
6.6327
6.31888
1
1
1
1
1
1
1
1
1
1
1
1
1
1
1
1
1
1
1.00268
1.81511
5.74683
6.91733
6.61681
6.3164
1
1
1
1
1
1
1
1
1
1
1
1
1
1
1
1
1
1
1.00001
1.05097
3.04897
6.28698
6.62855
6.36345
1
1
1
1
1
1
1
1
1
1
1
1
1
1
1
1
1
1
1
1.0006
1.29649
4.36589
6.53223
6.41859
1
1
1
1
1
1
1
1
1
1
1
1
1
1
1
1
1
1
1
1
1.00867
1.87212
5.30509
6.29596
1
1
1
1
1
1
1
1
1
1
1
1
1
1
1
1
1
1
1
1
1.00006
1.06013
2.74059
5.27633
1
1
1
1
1
1
1
1
1
1
1
1
1
1
1
1
1
1
1
1
1
1.00094
1.22088
3.52265
1
1
1
1
1
1
1
1
1
1
1
1
1
1
1
1
1
1
1
1
1
1
1.00588
3.0799
1
1
1
1
1
1
1
1
1
1
1
1
1
1
1
1
1
1
1
1
1
1
1.00007
3.55151
1
1
1
1
1
1
1
1
1
1
1
1
1
1
1
1
1
1
1
1
1
1
1
3.80372
1
1
1
1
1
1
1
1
1
1
1
1
1
1
1
1
1
1
1
1
1
1
1
3.63696
1
1
1
1
1
1
1
1
1
1
1
1
1
1
1
1
1
1
1
1
1
1
1
3.3423
1
1
1
1
1
1
1
1
1
1
1
1
1
1
1
1
1
1
1
1
1
1
1
3.04583
1
1
1
1
1
1
1
1
1
1
1
1
1
1
1
1
1
1
1
1
1
1
1
2.82743
1
1
1
1
1
1
1
1
1
1
1
1
1
1
1
1
1
1
1
1
1
1
1
2.71467
1
1
1
1
1
1
1
1
1
1
1
1
1
1
1
1
1
1
1
1
1
1
1
2.68317
1.60206
0.453969
0.15189
0.153901
0.178949
0.228967
0.322992
0.446572
0.641223
0.852512
1.02835
1.07004
1.05633
1.04539
1.11853
1.20215
1.27127
1.33265
1.34336
1.32352
1.28159
1.25086
1.25751
2.39252
5.16548
5.65257
5.71083
5.7781
5.81734
5.83421
5.81203
5.7769
5.75883
5.76014
5.75736
5.7103
5.61296
5.51098
5.4393
5.4123
5.42043
5.42582
5.35532
5.22898
5.10461
5.00427
4.94243
4.92471
4.92432
4.86698
4.76443
4.66004
4.57358
4.50843
4.47109
4.43334
4.36619
4.28338
4.20094
4.13009
4.07401
4.02786
3.96965
3.9062
3.8395
3.77155
3.71132
3.65747
3.60471
3.55137
3.49637
3.43699
3.37142
3.30609
3.25302
3.21045
3.17821
3.15763
3.12276
3.07307
3.00364
2.92122
2.8574
2.8127
2.77508
2.74007
2.7049
2.66472
2.61097
2.54369
2.48915
2.458
2.43474
2.41807
2.40182
2.34885
2.74355
1.42023
0.893413
0.701729
0.569185
0.514997
0.488339
0.485564
0.50378
0.558956
0.651846
0.745926
0.831115
0.894916
0.96756
1.06387
1.15316
1.21185
1.24548
1.25542
1.26239
1.2696
1.2633
2.2068
5.05702
5.77762
5.8162
5.83926
5.84115
5.84654
5.83229
5.78969
5.73658
5.69811
5.68857
5.68878
5.65477
5.56332
5.45675
5.3714
5.31936
5.31049
5.3096
5.26063
5.15917
5.04106
4.93836
4.86383
4.83475
4.82742
4.78776
4.70902
4.61311
4.5153
4.43349
4.36939
4.3267
4.28729
4.2323
4.16257
4.08541
4.00782
3.94139
3.88625
3.83547
3.78163
3.72842
3.67567
3.61934
3.56105
3.50296
3.44544
3.38649
3.32385
3.25917
3.20176
3.15717
3.1165
3.0834
3.04839
2.99876
2.94277
2.88323
2.82397
2.77269
2.73282
2.69864
2.66252
2.61836
2.56566
2.50971
2.46343
2.43367
2.4083
2.38761
2.33671
3.62296
2.34959
1.6539
1.25493
1.0228
0.866259
0.745543
0.638625
0.54946
0.547906
0.582183
0.651644
0.740176
0.828151
0.87743
0.918555
1.00657
1.08657
1.15041
1.20754
1.24152
1.2869
1.29547
1.8088
4.92885
6.06791
5.88313
5.8325
5.83029
5.83516
5.85275
5.86763
5.8233
5.73977
5.66706
5.62905
5.62762
5.62708
5.56682
5.46222
5.34942
5.2574
5.20736
5.19985
5.17881
5.1135
5.02019
4.90166
4.80831
4.75116
4.73244
4.71591
4.66341
4.58514
4.47554
4.35959
4.28611
4.24178
4.22216
4.18425
4.12254
4.0455
3.95056
3.8646
3.80768
3.76108
3.72168
3.67814
3.62917
3.57183
3.50579
3.4477
3.40385
3.35906
3.30352
3.23189
3.14863
3.07481
3.02215
2.9816
2.9556
2.9277
2.89197
2.84917
2.79267
2.72786
2.67238
2.63371
2.60359
2.57456
2.53884
2.48995
2.43938
2.39857
2.37004
2.31712
4.24895
3.13013
2.42817
1.87219
1.47376
1.25786
1.12801
1.00788
0.849654
0.73953
0.725103
0.716326
0.716
0.734995
0.756838
0.767186
0.819797
0.907442
0.992565
1.07488
1.12783
1.19223
1.27281
1.60366
4.22419
6.45012
6.28658
5.99293
5.83746
5.80385
5.79788
5.84398
5.83753
5.76486
5.65902
5.57752
5.53808
5.53095
5.53082
5.4763
5.39454
5.28278
5.19322
5.13674
5.10166
5.06582
5.00748
4.93428
4.83616
4.75241
4.70132
4.66269
4.61841
4.55768
4.48014
4.38725
4.30388
4.24569
4.20164
4.15217
4.09706
4.03485
3.958
3.87258
3.80455
3.75492
3.70985
3.66445
3.61716
3.56203
3.49266
3.42156
3.37399
3.33656
3.29495
3.24261
3.17323
3.09082
3.01738
2.96909
2.93437
2.90535
2.8777
2.84688
2.80741
2.751
2.68678
2.63651
2.60225
2.57383
2.54362
2.50283
2.44582
2.38547
2.34808
2.30132
4.68624
3.69635
2.98674
2.48847
2.04164
1.64793
1.4329
1.30261
1.1761
1.03981
0.903359
0.841325
0.790811
0.7585
0.765474
0.779388
0.782583
0.791037
0.813292
0.867944
0.962462
1.09515
1.32576
1.76274
2.8989
5.54787
6.61206
6.32732
6.01632
5.78254
5.72558
5.76465
5.81057
5.77257
5.70986
5.60736
5.53993
5.49855
5.48326
5.45962
5.40312
5.32383
5.21182
5.11931
5.06099
5.01624
4.97831
4.93109
4.87309
4.79607
4.71344
4.64551
4.58332
4.51921
4.45316
4.38774
4.32487
4.2638
4.20323
4.14228
4.07948
4.01375
3.94473
3.87422
3.80934
3.75424
3.70519
3.65846
3.61114
3.55903
3.49693
3.4267
3.36155
3.30646
3.25653
3.20573
3.15025
3.09074
3.03191
2.97849
2.93434
2.89824
2.86464
2.82917
2.78788
2.74002
2.69188
2.65088
2.61775
2.58806
2.55551
2.51006
2.43929
2.35638
2.3141
2.27644
5.0084
4.18438
3.4621
2.9062
2.49926
2.1435
1.83212
1.55613
1.40494
1.31099
1.19722
1.09219
1.00137
0.911306
0.860939
0.853494
0.842792
0.808322
0.802585
0.80936
0.8525
1.01768
1.54472
1.98022
2.19052
3.42414
5.6879
6.34073
6.182
5.87758
5.71498
5.72167
5.78511
5.77299
5.72054
5.61994
5.48573
5.41695
5.37911
5.38464
5.36874
5.31382
5.22436
5.1095
5.03538
4.98712
4.95726
4.92523
4.87208
4.80245
4.70783
4.62037
4.55577
4.49864
4.44467
4.39032
4.33026
4.2603
4.18531
4.11691
4.05605
3.99961
3.94363
3.88152
3.81095
3.74279
3.6874
3.64013
3.59472
3.54682
3.49157
3.4235
3.34732
3.28139
3.22854
3.18155
3.13842
3.09809
3.05488
3.00253
2.94441
2.8944
2.85301
2.81197
2.76904
2.72786
2.69059
2.65452
2.61863
2.5843
2.54836
2.5019
2.43691
2.3585
2.30837
2.26424
5.21334
4.50602
3.87255
3.30629
2.82955
2.49225
2.21756
1.9558
1.68083
1.4916
1.40066
1.31937
1.24003
1.15413
1.03245
0.930831
0.884561
0.847338
0.846817
0.894925
1.06561
1.49852
1.81387
1.9441
1.97541
2.12718
3.37383
5.59425
6.20375
5.93789
5.75841
5.72727
5.76182
5.74755
5.69116
5.61316
5.47653
5.37743
5.32813
5.32621
5.33848
5.29581
5.2289
5.12548
5.0236
4.96471
4.92289
4.891
4.83903
4.77422
4.68575
4.59279
4.52984
4.4779
4.42593
4.37058
4.30812
4.23162
4.15041
4.08903
4.041
3.99454
3.94444
3.88478
3.80936
3.72782
3.66488
3.61842
3.57602
3.53188
3.48047
3.41231
3.32462
3.24971
3.20294
3.16697
3.1347
3.10363
3.07085
3.02914
2.96809
2.89486
2.83581
2.79201
2.75557
2.72359
2.69169
2.65454
2.60909
2.55917
2.51156
2.46589
2.42086
2.37619
2.33348
2.26893
5.38194
4.74985
4.16314
3.65118
3.21233
2.79719
2.46291
2.25449
2.04325
1.82793
1.593
1.45748
1.4207
1.37271
1.27719
1.13142
1.00506
0.975569
1.01438
1.19807
1.56234
1.95894
2.04282
2.01029
1.98145
1.97874
2.08558
3.17106
5.18237
5.86125
5.82048
5.76172
5.69311
5.65941
5.62164
5.57669
5.49831
5.39602
5.32718
5.29653
5.29319
5.26461
5.20932
5.13414
5.02985
4.94624
4.89012
4.84551
4.79823
4.73844
4.66563
4.58352
4.52016
4.46591
4.41055
4.3524
4.28661
4.20542
4.12209
4.06644
4.02312
3.98043
3.93444
3.87921
3.80611
3.71796
3.64458
3.59613
3.55547
3.5144
3.468
3.40639
3.31871
3.2355
3.18964
3.15637
3.12496
3.0972
3.0691
3.03579
2.98138
2.89469
2.81657
2.7723
2.74251
2.71528
2.68524
2.64716
2.59417
2.52927
2.47214
2.43287
2.40444
2.3778
2.34877
2.28704
5.4954
4.94375
4.40282
3.88913
3.49714
3.13877
2.78549
2.44131
2.25339
2.10633
1.91497
1.71519
1.53652
1.47385
1.42471
1.33228
1.22328
1.23386
1.40915
1.77447
2.16311
2.24977
2.20916
2.14945
2.09318
2.07342
2.0866
2.15904
2.9501
4.60598
5.66314
5.82076
5.67085
5.56591
5.51145
5.52229
5.49272
5.43225
5.34519
5.28349
5.23781
5.20527
5.16754
5.11303
5.03622
4.94126
4.87055
4.81712
4.76781
4.71207
4.6511
4.58273
4.51416
4.45398
4.39759
4.33966
4.27509
4.19846
4.11513
4.04743
3.99942
3.95625
3.9115
3.86101
3.79812
3.71955
3.63837
3.57701
3.53236
3.49145
3.44786
3.39435
3.32205
3.23863
3.18177
3.15055
3.12758
3.10205
3.06964
3.02996
2.97197
2.88867
2.80689
2.75702
2.72861
2.70318
2.67479
2.63757
2.57979
2.50093
2.44062
2.40975
2.3873
2.3653
2.34516
2.30397
5.58331
5.08246
4.59498
4.12949
3.71336
3.3602
3.05235
2.74856
2.46058
2.24134
2.12413
1.97993
1.78139
1.59722
1.51734
1.4824
1.53782
1.78227
2.13567
2.46418
2.51871
2.46212
2.41348
2.36411
2.2939
2.24532
2.21593
2.20233
2.24571
2.73748
4.10567
5.24505
5.60327
5.54182
5.46629
5.46692
5.46668
5.43808
5.36917
5.27087
5.19979
5.15102
5.11444
5.06838
5.00819
4.92395
4.84871
4.79677
4.75083
4.70119
4.64553
4.57746
4.49796
4.42899
4.37433
4.32179
4.26639
4.20353
4.12568
4.03777
3.96988
3.92152
3.87656
3.83034
3.78022
3.72056
3.64566
3.56776
3.50823
3.4621
3.41804
3.3719
3.32126
3.262
3.19492
3.13243
3.08469
3.04589
3.00877
2.96719
2.92055
2.87088
2.81543
2.7596
2.71315
2.68206
2.65595
2.62465
2.57414
2.50174
2.4345
2.39716
2.37757
2.36474
2.35312
2.32266
5.65536
5.19452
4.74345
4.3198
3.93055
3.55671
3.24363
3.00166
2.73104
2.4412
2.25848
2.14463
1.99154
1.81026
1.73239
1.8236
2.1841
2.5472
2.77021
2.81472
2.74533
2.69056
2.66227
2.61204
2.53169
2.43495
2.37953
2.35921
2.3286
2.34932
2.57304
3.46854
4.71221
5.26153
5.41397
5.45854
5.45173
5.41562
5.34959
5.24471
5.15788
5.1121
5.07729
5.03301
4.97249
4.88979
4.81333
4.76704
4.73008
4.69047
4.6384
4.56819
4.47283
4.38608
4.3346
4.2904
4.24554
4.1963
4.13281
4.04287
3.94754
3.88526
3.84114
3.79988
3.75813
3.71112
3.64807
3.56346
3.48382
3.42983
3.38793
3.35002
3.31194
3.26576
3.19985
3.1175
3.04932
3.00302
2.9642
2.92446
2.8847
2.84885
2.81149
2.76242
2.70631
2.66111
2.6251
2.58966
2.55288
2.50875
2.46337
2.41653
2.36894
2.34094
2.32945
2.33243
5.72066
5.29774
4.87763
4.47461
4.12271
3.77424
3.43243
3.1723
2.94665
2.68585
2.44711
2.26301
2.12924
2.1173
2.25732
2.65148
3.12816
3.18472
3.1041
3.00164
2.92291
2.9085
2.89552
2.84267
2.76229
2.65612
2.58558
2.5497
2.50793
2.45098
2.43239
2.49787
2.99849
4.07739
4.9241
5.23671
5.40059
5.38994
5.33541
5.21408
5.09906
5.0568
5.0325
5.00259
4.94706
4.86664
4.77563
4.72571
4.69387
4.6616
4.61533
4.55292
4.45729
4.34785
4.285
4.24466
4.20607
4.16441
4.11483
4.04235
3.94143
3.85804
3.8096
3.77111
3.7333
3.69175
3.63824
3.55947
3.46381
3.3939
3.35339
3.32088
3.28788
3.24931
3.19425
3.11232
3.02413
2.96239
2.92085
2.88718
2.85885
2.83317
2.80348
2.76125
2.70145
2.63929
2.59244
2.55608
2.52342
2.49789
2.47334
2.43571
2.37736
2.33176
2.32706
2.43047
5.78066
5.38736
4.99549
4.61863
4.27695
3.95601
3.63277
3.34787
3.09517
2.86303
2.64363
2.45171
2.49673
2.78585
3.14229
3.55233
3.68354
3.58012
3.39016
3.22081
3.14628
3.12709
3.10722
3.05175
2.97367
2.86625
2.77878
2.72055
2.67656
2.62079
2.54985
2.48248
2.489
2.70994
3.47825
4.46521
5.04262
5.28191
5.31556
5.21067
5.05886
4.99504
4.97228
4.9594
4.91658
4.85066
4.75413
4.67939
4.64194
4.60698
4.5641
4.51193
4.43482
4.32948
4.24896
4.2018
4.16046
4.1194
4.07556
4.0193
3.93827
3.84799
3.78317
3.7391
3.69981
3.65881
3.61004
3.54149
3.44939
3.3674
3.31878
3.28505
3.25344
3.2191
3.17428
3.10598
3.0137
2.93345
2.88804
2.86061
2.83891
2.81727
2.79182
2.75675
2.70086
2.62351
2.5608
2.52698
2.50566
2.49137
2.47027
2.44548
2.39989
2.38607
2.43513
2.75981
5.84121
5.46911
5.0997
4.75596
4.42394
4.09557
3.79839
3.52599
3.23952
3.02797
2.89214
2.98628
3.44907
3.82966
3.94469
3.99212
3.92619
3.79108
3.6541
3.49759
3.40623
3.36816
3.31739
3.24956
3.16677
3.06615
2.96016
2.89307
2.83345
2.77831
2.71068
2.624
2.53618
2.50049
2.56424
3.00154
3.88677
4.70444
5.07989
5.14234
5.02966
4.94859
4.91508
4.90728
4.87559
4.82334
4.74412
4.6508
4.58427
4.53855
4.49439
4.44688
4.38772
4.31286
4.23623
4.16827
4.11184
4.06551
4.02296
3.97686
3.91746
3.8398
3.76133
3.70213
3.65607
3.61226
3.5643
3.50561
3.43173
3.35272
3.28942
3.24611
3.21143
3.17706
3.13722
3.08412
3.01278
2.93766
2.88144
2.84328
2.81419
2.78988
2.76724
2.74067
2.68838
2.61626
2.55903
2.52208
2.4893
2.4604
2.44627
2.44193
2.47348
2.59368
2.84769
3.27103
5.9096
5.55295
5.20135
4.87259
4.54821
4.22202
3.93471
3.65915
3.41818
3.40707
3.63639
4.13259
4.63685
4.60752
4.43068
4.25643
4.1132
4.02493
3.92728
3.78842
3.66017
3.60049
3.53273
3.4565
3.36774
3.26557
3.14581
3.04923
2.98128
2.91454
2.85275
2.77768
2.68079
2.57116
2.50424
2.519
2.71012
3.3328
4.19007
4.77181
4.85558
4.88502
4.87685
4.86933
4.82758
4.77562
4.71934
4.63889
4.54803
4.47496
4.42193
4.37614
4.33084
4.28329
4.22759
4.15838
4.08223
4.01744
3.96922
3.92708
3.88007
3.81833
3.74059
3.6642
3.60504
3.55812
3.51422
3.46713
3.41104
3.34238
3.26979
3.21162
3.16928
3.13256
3.0945
3.05159
3.00228
2.94825
2.89414
2.84482
2.80217
2.76403
2.72414
2.67538
2.62851
2.58883
2.5557
2.52187
2.48844
2.45436
2.45958
2.53085
2.72484
3.02253
3.30553
3.53262
5.93533
5.61243
5.28717
4.9571
4.63964
4.32677
4.07653
3.85019
3.9634
4.44543
4.87168
5.15887
5.17009
4.95677
4.67995
4.48524
4.37788
4.31761
4.20914
4.05922
3.88573
3.79413
3.72767
3.64969
3.56468
3.45388
3.32896
3.19753
3.11702
3.04887
2.97947
2.91424
2.83504
2.72817
2.60801
2.53771
2.51868
2.57488
2.888
3.58891
4.27257
4.59517
4.7344
4.81508
4.77671
4.71981
4.67585
4.61408
4.53275
4.42934
4.35242
4.31206
4.27773
4.24292
4.19987
4.14225
4.06329
3.97775
3.91525
3.87105
3.82954
3.78003
3.71378
3.63153
3.55459
3.49955
3.45924
3.42259
3.38155
3.32808
3.25885
3.18725
3.1304
3.08632
3.04723
3.01025
2.97383
2.93491
2.8924
2.84634
2.79782
2.74585
2.68909
2.62894
2.58499
2.55657
2.53649
2.52434
2.52671
2.56351
2.68662
2.92615
3.21453
3.42153
3.58431
3.62106
5.98633
5.6796
5.35738
5.03805
4.71798
4.47679
4.39271
4.67205
5.35506
5.73558
5.7526
5.70366
5.46507
5.21035
4.95955
4.75528
4.65216
4.59079
4.4736
4.31171
4.12641
3.98892
3.91958
3.83749
3.74599
3.63419
3.48913
3.35774
3.25704
3.18777
3.1168
3.04107
2.9614
2.86227
2.74591
2.65154
2.5676
2.52391
2.52893
2.63566
3.04937
3.68919
4.25422
4.55814
4.62304
4.67175
4.64007
4.5875
4.51521
4.40492
4.30147
4.2563
4.22676
4.20003
4.16191
4.11258
4.03908
3.9428
3.86853
3.82013
3.77746
3.73207
3.67717
3.60376
3.51852
3.45256
3.41176
3.37938
3.34625
3.30522
3.24751
3.17335
3.10316
3.0497
3.00758
2.97065
2.93561
2.90066
2.86471
2.82572
2.78177
2.72968
2.66806
2.60037
2.55145
2.53297
2.53488
2.57428
2.69736
2.92036
3.21701
3.49444
3.65297
3.67775
3.65139
3.59423
6.01728
5.70529
5.38701
5.10791
4.84958
4.98189
5.51469
6.26761
6.60245
6.31839
6.0733
5.93257
5.7357
5.52787
5.29953
5.05018
4.90665
4.82785
4.72253
4.55752
4.38059
4.21485
4.11285
4.02157
3.90974
3.78965
3.6317
3.49667
3.40444
3.32431
3.25063
3.17012
3.08046
2.97781
2.85583
2.75762
2.68079
2.6005
2.54069
2.51543
2.52942
2.6757
3.10738
3.72679
4.20843
4.41217
4.53022
4.54086
4.48152
4.37145
4.26501
4.20644
4.17297
4.13947
4.09957
4.0595
3.99649
3.90483
3.82693
3.77027
3.71903
3.67006
3.62218
3.56782
3.4971
3.42637
3.37395
3.33356
3.29746
3.25892
3.2129
3.15233
3.08439
3.02559
2.97901
2.93656
2.89355
2.85004
2.81026
2.77976
2.74695
2.70759
2.66243
2.61276
2.55712
2.54986
2.60072
2.78747
3.09724
3.43569
3.67203
3.77895
3.78491
3.75591
3.6762
3.57289
6.07649
5.73767
5.4828
5.32532
5.66842
6.51321
7.06809
7.36957
7.14816
6.66456
6.27643
6.11897
6.00726
5.83394
5.6134
5.34288
5.15286
5.05039
4.95397
4.7973
4.61361
4.44667
4.30287
4.19509
4.07804
3.94037
3.78752
3.64024
3.54706
3.46271
3.37821
3.29183
3.19585
3.08429
2.96337
2.85253
2.77134
2.70089
2.62628
2.54427
2.49832
2.45489
2.47786
2.67283
3.17808
3.73563
4.18471
4.36515
4.37654
4.31468
4.23486
4.17723
4.13576
4.09035
4.03878
3.99092
3.93216
3.85199
3.78782
3.73281
3.67802
3.62526
3.58101
3.5328
3.4704
3.40941
3.35424
3.30164
3.25428
3.218
3.17908
3.12489
3.06021
3.00767
2.96532
2.92032
2.8654
2.81019
2.77044
2.73219
2.69855
2.67438
2.66553
2.65866
2.67409
2.76778
2.99481
3.33057
3.51108
3.67374
3.81569
3.87054
3.86403
3.81346
3.706
3.59939
6.10396
5.8235
5.88105
6.52336
7.58807
7.98614
7.86807
7.69845
7.37443
6.95048
6.55043
6.38891
6.3022
6.10741
5.89257
5.64652
5.4261
5.29268
5.18038
5.02906
4.83184
4.65338
4.49656
4.36309
4.24403
4.10718
3.95498
3.80395
3.68009
3.58423
3.4918
3.39814
3.30052
3.19156
3.06837
2.94743
2.85022
2.77179
2.70043
2.62647
2.55023
2.47657
2.4349
2.38819
2.44472
2.72815
3.25618
3.83144
4.08199
4.13405
4.1614
4.16908
4.13705
4.06767
3.96869
3.84932
3.80306
3.7871
3.75803
3.71536
3.65979
3.58379
3.48009
3.41736
3.39725
3.37045
3.33502
3.29285
3.23391
3.14741
3.05781
3.01256
2.98873
2.96627
2.9448
2.91501
2.86734
2.7906
2.69897
2.65875
2.64352
2.64927
2.70351
2.82789
3.05196
3.34612
3.61406
3.75919
3.79929
3.84617
3.89229
3.89693
3.86246
3.78811
3.70585
3.64016
6.1588
6.47464
7.54572
8.63731
8.94015
8.52281
8.16241
7.84997
7.5767
7.25592
6.88512
6.68447
6.57918
6.37343
6.14378
5.92231
5.6871
5.52214
5.3872
5.22933
5.03693
4.8365
4.6754
4.53106
4.39865
4.26672
4.12117
3.9632
3.81544
3.69656
3.59412
3.49619
3.39806
3.29467
3.17851
3.05318
2.93842
2.8469
2.76627
2.68771
2.60336
2.525
2.44449
2.38344
2.33982
2.33264
2.4384
2.81886
3.34924
3.69232
3.9155
4.02305
4.05675
4.02781
3.93837
3.79361
3.67321
3.64465
3.63954
3.64118
3.61121
3.54604
3.43592
3.34972
3.32379
3.3161
3.30365
3.27035
3.21271
3.1059
2.993
2.94444
2.938
2.945
2.93477
2.9073
2.8653
2.78426
2.66827
2.63662
2.63961
2.70727
2.91897
3.29179
3.60957
3.84908
3.98507
3.98794
3.95769
3.9209
3.88956
3.8554
3.80306
3.75149
3.72694
3.69166
6.95338
8.74606
9.57412
9.78443
9.33297
8.73952
8.30726
8.0199
7.82938
7.57787
7.23412
6.98892
6.8488
6.64811
6.39946
6.18296
5.9517
5.7495
5.5914
5.42324
5.23281
5.02896
4.8497
4.69914
4.55654
4.41731
4.27062
4.10925
3.94625
3.80798
3.69491
3.59257
3.49198
3.38739
3.27226
3.15367
3.03835
2.93355
2.84574
2.76968
2.68554
2.58739
2.48791
2.41152
2.34062
2.30605
2.27681
2.30542
2.47806
2.84486
3.29635
3.64582
3.87718
3.94899
3.90926
3.79339
3.63913
3.55801
3.53917
3.53905
3.52715
3.49413
3.43544
3.33351
3.24187
3.20979
3.19039
3.16774
3.13491
3.07883
2.99472
2.91668
2.8602
2.83733
2.82192
2.80617
2.78775
2.76861
2.70759
2.71595
2.82574
3.1109
3.50758
3.80221
3.94724
4.05418
4.07214
4.05285
4.00664
3.93571
3.8736
3.83296
3.8015
3.78547
3.78291
3.74593
9.24625
10.7059
10.351
9.9799
9.48027
9.01126
8.59334
8.30563
8.10194
7.86552
7.53402
7.2517
7.07826
6.87591
6.61769
6.39177
6.18284
5.96895
5.78748
5.61321
5.4165
5.20754
5.01266
4.84616
4.69583
4.55039
4.39994
4.23875
4.07245
3.91883
3.7865
3.66898
3.55965
3.45999
3.36503
3.26368
3.15392
3.04476
2.94329
2.85221
2.76766
2.68106
2.59024
2.51006
2.43716
2.3733
2.31351
2.26364
2.23674
2.28905
2.48477
2.88615
3.28968
3.60284
3.75182
3.75458
3.67222
3.54946
3.47463
3.45086
3.43599
3.41058
3.37056
3.31352
3.21813
3.12836
3.0952
3.07178
3.04651
3.02521
2.99309
2.91577
2.8338
2.78277
2.75856
2.74629
2.7474
2.77113
2.87104
3.12675
3.46375
3.7909
4.01166
4.0602
4.08561
4.10599
4.09199
4.06087
4.01729
3.94846
3.87779
3.85127
3.84462
3.85216
3.84108
3.78852
10.8946
11.4974
10.6495
10.1222
9.67927
9.24973
8.83141
8.54539
8.3829
8.15284
7.834
7.54931
7.3641
7.16744
6.8766
6.62748
6.40854
6.18757
5.97715
5.78804
5.58874
5.3749
5.16939
4.98883
4.82545
4.66781
4.51128
4.34905
4.18588
4.0333
3.89387
3.76435
3.64036
3.51376
3.38508
3.26542
3.1703
3.09758
3.03107
2.95528
2.86129
2.73919
2.59593
2.47672
2.40536
2.35242
2.30152
2.24908
2.21321
2.1672
2.13711
2.20651
2.47428
2.8954
3.30244
3.60364
3.647
3.58395
3.42962
3.34706
3.31909
3.30796
3.29234
3.2548
3.19584
3.09762
3.01298
2.98279
2.96442
2.95172
2.93367
2.90332
2.84637
2.76934
2.73021
2.73454
2.80678
3.03983
3.45059
3.81413
4.07352
4.20688
4.19914
4.15281
4.13512
4.11696
4.10948
4.08314
4.04479
3.98953
3.92727
3.89611
3.87585
3.85092
3.83168
3.78272
10.5667
10.9273
10.3173
10.036
9.7171
9.38717
9.09708
8.84576
8.66267
8.40155
8.05685
7.74943
7.52945
7.34948
7.12293
6.83137
6.63666
6.4401
6.22886
6.02946
5.82563
5.60785
5.39515
5.20381
5.02978
4.86028
4.68829
4.52149
4.35792
4.19858
4.04944
3.9069
3.75938
3.60814
3.46466
3.33776
3.23108
3.14211
3.06419
2.98904
2.90708
2.80693
2.67148
2.53712
2.44808
2.39152
2.34359
2.29314
2.2325
2.16678
2.10784
2.04202
2.05485
2.21904
2.58714
3.03473
3.43886
3.49173
3.40639
3.29619
3.23542
3.209
3.21572
3.20308
3.1592
3.08237
2.9745
2.91107
2.88427
2.86655
2.85355
2.82662
2.81411
2.77708
2.7972
2.93575
3.28745
3.71579
4.05251
4.22384
4.30626
4.30681
4.27232
4.2014
4.13795
4.11087
4.08918
4.07483
4.0544
4.02459
3.9734
3.91552
3.88106
3.84956
3.82217
3.77227
10.0668
10.7069
10.388
10.1775
9.89497
9.63395
9.36125
9.08348
8.82071
8.53227
8.22729
7.95864
7.73301
7.5538
7.31943
7.01552
6.75025
6.55038
6.32756
6.10306
5.89058
5.6728
5.4571
5.26147
5.08255
4.91001
4.73646
4.55576
4.37469
4.20726
4.05869
3.92702
3.80598
3.68528
3.55509
3.41325
3.27445
3.15813
3.0621
2.97453
2.88848
2.81077
2.74602
2.66349
2.55117
2.43655
2.35384
2.293
2.22947
2.16833
2.11341
2.07102
2.00325
1.9805
2.04906
2.30313
2.74174
3.14282
3.32831
3.27662
3.18707
3.13921
3.13012
3.13454
3.10469
3.05125
2.96601
2.86372
2.81251
2.78986
2.77446
2.80276
2.83497
2.95748
3.25542
3.64043
4.00552
4.21573
4.29665
4.36603
4.37917
4.35348
4.29222
4.20923
4.13273
4.10141
4.08512
4.07217
4.05504
4.02909
3.99021
3.93966
3.8951
3.85802
3.82914
3.78054
9.77957
10.4854
10.2802
10.1535
9.92247
9.68884
9.42944
9.19889
8.94814
8.67323
8.40108
8.15158
7.92415
7.69909
7.41766
7.12107
6.87535
6.69032
6.47829
6.2367
5.99456
5.76958
5.56024
5.36839
5.19019
5.01503
4.83403
4.64304
4.45071
4.27685
4.12922
3.99954
3.87648
3.75074
3.61429
3.46456
3.31347
3.18331
3.08053
2.99506
2.91662
2.8378
2.75549
2.66957
2.56895
2.45962
2.36863
2.3017
2.24448
2.18994
2.13131
2.06931
2.00181
1.93215
1.88429
1.91172
2.07774
2.42706
2.87775
3.11023
3.11898
3.08813
3.0531
3.03068
3.00878
2.97719
2.92376
2.84129
2.78499
2.776
2.77925
2.86598
3.13437
3.60249
4.00203
4.25166
4.35663
4.39716
4.41375
4.39536
4.35879
4.31042
4.27035
4.23273
4.17296
4.13135
4.10705
4.07913
4.04926
4.01686
3.98308
3.94953
3.91239
3.87449
3.84739
3.79943
9.59431
10.4897
10.2663
10.1232
9.93358
9.75221
9.53332
9.2985
9.03147
8.75995
8.50489
8.27258
8.04905
7.79789
7.50952
7.22666
6.98657
6.79655
6.58948
6.35151
6.08866
5.83383
5.62343
5.43179
5.2505
5.07527
4.89923
4.71298
4.5162
4.32903
4.16942
4.03225
3.90433
3.77792
3.6469
3.50872
3.36678
3.23183
3.11546
3.01918
2.93637
2.85644
2.77338
2.6826
2.58529
2.49054
2.40336
2.32553
2.25836
2.19846
2.13986
2.07887
2.01506
1.94549
1.8835
1.82193
1.82405
1.91189
2.17482
2.59089
2.97739
3.03666
2.99639
2.93379
2.89462
2.87557
2.83419
2.80368
2.81556
2.82209
2.98308
3.41036
3.88301
4.27886
4.39617
4.52084
4.50186
4.43494
4.36879
4.33348
4.30997
4.29358
4.28047
4.25879
4.21212
4.15655
4.11497
4.07956
4.04706
4.01851
3.99196
3.96542
3.93265
3.89302
3.85989
3.80434
9.46599
10.5109
10.2659
10.1426
9.96608
9.7704
9.53866
9.29361
9.04607
8.81066
8.58305
8.35508
8.11117
7.8379
7.55494
7.28844
7.07072
6.89895
6.68614
6.42536
6.13631
5.86991
5.66541
5.48383
5.31401
5.14665
4.96761
4.76676
4.5561
4.36259
4.20035
4.06539
3.94518
3.82482
3.69217
3.54715
3.40208
3.26785
3.14643
3.03831
2.94595
2.86432
2.78324
2.69717
2.6077
2.51852
2.43045
2.34455
2.2648
2.1955
2.13542
2.0807
2.02701
1.96634
1.89986
1.83445
1.77795
1.75918
1.79962
1.99839
2.35707
2.76962
2.88807
2.89004
2.8456
2.8206
2.8055
2.7979
2.89034
3.17253
3.71899
4.20217
4.39246
4.5557
4.53263
4.52214
4.47943
4.40441
4.36519
4.34908
4.33155
4.31878
4.29257
4.25673
4.20919
4.15708
4.11584
4.084
4.05661
4.03285
4.00859
3.9809
3.94524
3.89969
3.85985
3.79861
9.34891
10.5191
10.2653
10.1346
9.9518
9.75876
9.54537
9.32356
9.09926
8.87594
8.64721
8.40326
8.14233
7.87343
7.61329
7.3809
7.18388
6.97224
6.71128
6.43127
6.16379
5.93568
5.73493
5.54914
5.36809
5.17562
4.96628
4.75959
4.5758
4.41354
4.26091
4.11495
3.97559
3.83377
3.68568
3.54305
3.415
3.29849
3.18656
3.07556
2.96843
2.87024
2.77887
2.6923
2.61086
2.53144
2.45045
2.36629
2.28054
2.19997
2.13301
2.07868
2.02952
1.97625
1.92082
1.85795
1.7889
1.72928
1.6944
1.71648
1.82838
2.14553
2.47622
2.72932
2.80706
2.82586
2.86609
3.06432
3.48224
3.95151
4.41132
4.55853
4.60027
4.56167
4.51512
4.48564
4.45941
4.41803
4.37909
4.35924
4.34563
4.3338
4.30358
4.26363
4.21554
4.16131
4.11616
4.08545
4.06249
4.04217
4.02038
3.99143
3.94851
3.88934
3.84103
3.77698
9.26368
10.5122
10.255
10.1244
9.94428
9.75176
9.54372
9.33057
9.1124
8.88728
8.65351
8.4082
8.15886
7.9151
7.68273
7.46375
7.2191
6.93551
6.66262
6.43092
6.22798
6.0269
5.82092
5.60575
5.37777
5.15542
4.9561
4.77849
4.61675
4.46641
4.31721
4.15591
3.97793
3.80784
3.66425
3.543
3.4333
3.32866
3.22306
3.11165
2.99411
2.87243
2.76438
2.67798
2.60657
2.5397
2.46986
2.38923
2.29786
2.20662
2.13031
2.07206
2.02485
1.98152
1.93884
1.88303
1.8059
1.72566
1.66699
1.64086
1.64221
1.71257
1.95078
2.29735
2.60166
2.85573
3.27364
3.79267
4.12989
4.41262
4.57673
4.53841
4.51973
4.5056
4.51026
4.5066
4.4879
4.4612
4.41841
4.373
4.3404
4.31235
4.27999
4.24793
4.2152
4.17926
4.14627
4.11954
4.09263
4.06467
4.03394
3.99376
3.9367
3.87155
3.83005
3.78383
9.211
10.5
10.2433
10.1121
9.93544
9.74967
9.54914
9.34017
9.12257
8.89472
8.6583
8.41811
8.18316
7.94894
7.71334
7.46429
7.18812
6.91978
6.67784
6.46753
6.2874
6.07986
5.86062
5.62149
5.36627
5.13961
4.95485
4.79609
4.65099
4.5078
4.35177
4.16652
3.96155
3.7799
3.64279
3.53674
3.44504
3.35875
3.26566
3.14892
3.00316
2.86006
2.74892
2.66444
2.59525
2.53406
2.47669
2.41219
2.32694
2.22018
2.12811
2.06644
2.01885
1.97763
1.93875
1.89362
1.82424
1.73544
1.66115
1.61375
1.59557
1.59215
1.64253
1.87123
2.39165
3.15187
3.844
4.5503
4.86771
4.89474
4.77459
4.56203
4.48815
4.48155
4.48328
4.49785
4.50046
4.48529
4.44921
4.39811
4.35148
4.31455
4.28235
4.25324
4.22626
4.19802
4.16692
4.13539
4.10257
4.06778
4.03007
3.98398
3.92201
3.86074
3.83204
3.79347
)
;

boundaryField
{
    inlet
    {
        type            fixedValue;
        value           uniform 1;
    }
    outlet
    {
        type            zeroGradient;
    }
    bottom
    {
        type            symmetryPlane;
    }
    top
    {
        type            symmetryPlane;
    }
    obstacle
    {
        type            zeroGradient;
    }
    defaultFaces
    {
        type            empty;
    }
}


// ************************************************************************* //
