/*--------------------------------*- C++ -*----------------------------------*\
  =========                 |
  \\      /  F ield         | OpenFOAM: The Open Source CFD Toolbox
   \\    /   O peration     | Website:  https://openfoam.org
    \\  /    A nd           | Version:  7
     \\/     M anipulation  |
\*---------------------------------------------------------------------------*/
FoamFile
{
    version     2.0;
    format      ascii;
    class       volScalarField;
    location    "5";
    object      rho;
}
// * * * * * * * * * * * * * * * * * * * * * * * * * * * * * * * * * * * * * //

dimensions      [1 -3 0 0 0 0 0];

internalField   nonuniform List<scalar> 
4032
(
1.40001
1.40001
1.40001
1.40001
1.40001
1.40001
1.40001
1.40001
1.40001
1.40001
1.40001
1.57643
4.38571
5.46752
5.51504
5.59045
5.65742
5.72098
5.77931
5.83193
5.8787
5.91603
5.94426
5.96516
1.40001
1.40001
1.40001
1.40001
1.40001
1.40001
1.40001
1.40001
1.40001
1.40001
1.40001
1.55354
4.31601
5.45282
5.50951
5.58331
5.64896
5.7108
5.76732
5.81761
5.86168
5.89632
5.92149
5.94133
1.40001
1.40001
1.40001
1.40001
1.40001
1.40001
1.40001
1.40001
1.40001
1.40001
1.40001
1.49818
4.20634
5.44343
5.49447
5.56729
5.63283
5.69398
5.74942
5.79789
5.83937
5.87107
5.89156
5.90864
1.40001
1.40001
1.40001
1.40001
1.40001
1.40001
1.40001
1.40001
1.40001
1.40001
1.40001
1.41079
4.02254
5.42902
5.47562
5.54184
5.60368
5.66078
5.71315
5.75962
5.80011
5.83056
5.8477
5.86085
1.40001
1.40001
1.40001
1.40001
1.40001
1.40001
1.40001
1.40001
1.40001
1.40001
1.40001
1.40015
3.74488
5.36931
5.42998
5.49352
5.55579
5.61171
5.66155
5.70301
5.73606
5.76086
5.77421
5.79259
1.40001
1.40001
1.40001
1.40001
1.40001
1.40001
1.40001
1.40001
1.40001
1.40001
1.40001
1.4
3.38666
5.28524
5.39081
5.44907
5.50761
5.55634
5.59811
5.63309
5.6619
5.68577
5.69482
5.68537
1.40001
1.40001
1.40001
1.40001
1.40001
1.40001
1.40001
1.40001
1.40001
1.40001
1.40001
1.4
2.96663
5.16678
5.3625
5.41212
5.45901
5.494
5.52058
5.54044
5.54804
5.5369
5.51816
5.5098
1.40001
1.40001
1.40001
1.40001
1.40001
1.40001
1.40001
1.40001
1.40001
1.40001
1.40001
1.40001
2.49268
5.00584
5.37129
5.39524
5.42214
5.43873
5.44376
5.44132
5.42313
5.39343
5.33745
5.30936
1.40001
1.40001
1.40001
1.40001
1.40001
1.40001
1.40001
1.40001
1.40001
1.40001
1.40001
1.40001
1.97535
4.76475
5.40319
5.37857
5.38919
5.38658
5.36962
5.33973
5.28023
5.17678
4.86201
4.00722
1.40001
1.40001
1.40001
1.40001
1.40001
1.40001
1.40001
1.40001
1.40001
1.40001
1.40001
1.40001
1.49504
4.33497
5.42345
5.36705
5.34519
5.31747
5.27796
5.21801
5.11699
4.92879
4.60007
3.70369
1.40001
1.40001
1.40001
1.40001
1.40001
1.40001
1.40001
1.40001
1.40001
1.40001
1.40001
1.40001
1.40114
3.61951
5.18303
5.24334
5.25525
5.22724
5.1781
5.09391
4.96378
4.73141
4.38791
3.56656
1.40001
1.40001
1.40001
1.40001
1.40001
1.40001
1.40001
1.40001
1.40001
1.40001
1.40001
1.40001
1.39998
2.80058
4.99073
5.203
5.20173
5.16846
5.10616
4.99827
4.83951
4.59574
4.21494
3.55038
1.40001
1.40001
1.40001
1.40001
1.40001
1.40001
1.40001
1.40001
1.40001
1.40001
1.40001
1.40001
1.4
1.98227
4.7272
5.21071
5.15893
5.10028
5.02347
4.90327
4.72922
4.48789
4.10131
3.5723
1.40001
1.40001
1.40001
1.40001
1.40001
1.40001
1.40001
1.40001
1.40001
1.40001
1.40001
1.40001
1.4
1.4732
3.99521
5.10436
5.07733
5.02501
4.94379
4.82059
4.64874
4.40447
4.04639
3.62234
1.40001
1.40001
1.40001
1.40001
1.40001
1.40001
1.40001
1.40001
1.40001
1.40001
1.40001
1.40001
1.4
1.40031
2.91473
4.93468
5.04365
4.99061
4.90087
4.75947
4.58632
4.33691
4.02165
3.67099
1.40001
1.40001
1.40001
1.40001
1.40001
1.40001
1.40001
1.40001
1.40001
1.40001
1.40001
1.40001
1.40001
1.4
1.81205
4.67614
5.10358
4.97284
4.85161
4.70233
4.51493
4.2896
4.0187
3.71819
1.40001
1.40001
1.40001
1.40001
1.40001
1.40001
1.40001
1.40001
1.40001
1.40001
1.40001
1.40001
1.40001
1.4
1.42568
3.74761
4.95529
4.87015
4.7771
4.64009
4.46641
4.25938
4.019
3.75298
1.40001
1.40001
1.40001
1.40001
1.40001
1.40001
1.40001
1.40001
1.40001
1.40001
1.40001
1.40001
1.40001
1.4
1.39994
2.45498
4.76105
4.84827
4.77274
4.64011
4.46764
4.2611
4.02998
3.78622
1.40001
1.40001
1.40001
1.40001
1.40001
1.40001
1.40001
1.40001
1.40001
1.40001
1.40001
1.40001
1.40001
1.40001
1.39999
1.57219
4.01011
4.85991
4.76636
4.62795
4.45787
4.26079
4.04561
3.82072
1.40001
1.40001
1.40001
1.40001
1.40001
1.40001
1.40001
1.40001
1.40001
1.40001
1.40001
1.40001
1.40001
1.40001
1.4
1.40314
2.69837
4.67069
4.73756
4.60619
4.44972
4.26511
4.06763
3.85974
1.40001
1.40001
1.40001
1.40001
1.40001
1.40001
1.40001
1.40001
1.40001
1.40001
1.40001
1.40001
1.40001
1.40001
1.4
1.4
1.6526
4.01879
4.77059
4.61769
4.46282
4.28064
4.09342
3.89923
1.40001
1.40001
1.40001
1.40001
1.40001
1.40001
1.40001
1.40001
1.40001
1.40001
1.40001
1.40001
1.40001
1.40001
1.40001
1.4
1.40749
2.65827
4.57755
4.60654
4.46056
4.29061
4.11402
3.93659
1.40001
1.40001
1.40001
1.40001
1.40001
1.40001
1.40001
1.40001
1.40001
1.40001
1.40001
1.40001
1.40001
1.40001
1.40001
1.4
1.40003
1.63029
3.82535
4.66321
4.49226
4.33098
4.15985
3.9888
1.40001
1.40001
1.40001
1.40001
1.40001
1.40001
1.40001
1.40001
1.40001
1.40001
1.40001
1.40001
1.40001
1.40001
1.40001
1.40001
1.40001
1.40647
2.36902
4.34455
4.51337
4.36738
4.20707
4.03594
1.40001
1.40001
1.40001
1.40001
1.40001
1.40001
1.40001
1.40001
1.40001
1.40001
1.40001
1.40001
1.40001
1.40001
1.40001
1.40001
1.40001
1.40004
1.52898
3.35311
4.54046
4.42822
4.27294
4.10182
1.40001
1.40001
1.40001
1.40001
1.40001
1.40001
1.40001
1.40001
1.40001
1.40001
1.40001
1.40001
1.40001
1.40001
1.40001
1.40001
1.40001
1.40001
1.40242
1.98208
4.02487
4.47187
4.31519
4.1486
1.40001
1.40001
1.40001
1.40001
1.40001
1.40001
1.40001
1.40001
1.40001
1.40001
1.40001
1.40001
1.40001
1.40001
1.40001
1.40001
1.40001
1.40001
1.40002
1.44375
2.69904
4.28437
4.35018
4.21196
1.40001
1.40001
1.40001
1.40001
1.40001
1.40001
1.40001
1.40001
1.40001
1.40001
1.40001
1.40001
1.40001
1.40001
1.40001
1.40001
1.40001
1.40001
1.40001
1.40057
1.6336
3.40399
4.35263
4.28335
1.40001
1.40001
1.40001
1.40001
1.40001
1.40001
1.40001
1.40001
1.40001
1.40001
1.40001
1.40001
1.40001
1.40001
1.40001
1.40001
1.40001
1.40001
1.40001
1.40001
1.40781
2.02721
3.87594
4.25946
1.40001
1.40001
1.40001
1.40001
1.40001
1.40001
1.40001
1.40001
1.40001
1.40001
1.40001
1.40001
1.40001
1.40001
1.40001
1.40001
1.40001
1.40001
1.40001
1.40001
1.40006
1.45199
2.55729
3.85626
1.40001
1.40001
1.40001
1.40001
1.40001
1.40001
1.40001
1.40001
1.40001
1.40001
1.40001
1.40001
1.40001
1.40001
1.40001
1.40001
1.40001
1.40001
1.40001
1.40001
1.40001
1.40091
1.57863
3.00996
1.40001
1.40001
1.40001
1.40001
1.40001
1.40001
1.40001
1.40001
1.40001
1.40001
1.40001
1.40001
1.40001
1.40001
1.40001
1.40001
1.40001
1.40001
1.40001
1.40001
1.40001
1.40001
1.40536
2.59548
1.40001
1.40001
1.40001
1.40001
1.40001
1.40001
1.40001
1.40001
1.40001
1.40001
1.40001
1.40001
1.40001
1.40001
1.40001
1.40001
1.40001
1.40001
1.40001
1.40001
1.40001
1.40001
1.40008
2.68194
1.40001
1.40001
1.40001
1.40001
1.40001
1.40001
1.40001
1.40001
1.40001
1.40001
1.40001
1.40001
1.40001
1.40001
1.40001
1.40001
1.40001
1.40001
1.40001
1.40001
1.40001
1.40001
1.40001
2.76397
1.40001
1.40001
1.40001
1.40001
1.40001
1.40001
1.40001
1.40001
1.40001
1.40001
1.40001
1.40001
1.40001
1.40001
1.40001
1.40001
1.40001
1.40001
1.40001
1.40001
1.40001
1.40001
1.40001
2.70813
1.40001
1.40001
1.40001
1.40001
1.40001
1.40001
1.40001
1.40001
1.40001
1.40001
1.40001
1.40001
1.40001
1.40001
1.40001
1.40001
1.40001
1.40001
1.40001
1.40001
1.40001
1.40001
1.40001
2.59969
1.40001
1.40001
1.40001
1.40001
1.40001
1.40001
1.40001
1.40001
1.40001
1.40001
1.40001
1.40001
1.40001
1.40001
1.40001
1.40001
1.40001
1.40001
1.40001
1.40001
1.40001
1.40001
1.40001
2.47258
1.40001
1.40001
1.40001
1.40001
1.40001
1.40001
1.40001
1.40001
1.40001
1.40001
1.40001
1.40001
1.40001
1.40001
1.40001
1.40001
1.40001
1.40001
1.40001
1.40001
1.40001
1.40001
1.40001
2.36875
1.40001
1.40001
1.40001
1.40001
1.40001
1.40001
1.40001
1.40001
1.40001
1.40001
1.40001
1.40001
1.40001
1.40001
1.40001
1.40001
1.40001
1.40001
1.40001
1.40001
1.40001
1.40001
1.40001
2.30946
1.40001
1.40001
1.40001
1.40001
1.40001
1.40001
1.40001
1.40001
1.40001
1.40001
1.40001
1.40001
1.40001
1.40001
1.40001
1.40001
1.40001
1.40001
1.40001
1.40001
1.40001
1.40001
1.40001
2.28947
1.32356
0.535025
0.221541
0.204294
0.224394
0.271405
0.350603
0.444765
0.574248
0.719462
0.862909
0.906906
0.903456
0.889727
0.913737
0.968782
1.02959
1.07962
1.09139
1.08352
1.05049
1.02512
1.0287
1.55021
2.61729
2.80527
2.84735
2.8915
2.91918
2.93397
2.93232
2.9253
2.9237
2.92903
2.93365
2.92401
2.89629
2.86675
2.84859
2.84627
2.85582
2.86431
2.84352
2.79839
2.75238
2.7153
2.69315
2.68808
2.69034
2.67163
2.63515
2.59784
2.56768
2.54593
2.53479
2.52322
2.49929
2.46799
2.43598
2.40808
2.3858
2.36698
2.34219
2.31476
2.28589
2.2563
2.22992
2.20649
2.184
2.16188
2.13965
2.11601
2.08995
2.06404
2.04339
2.02696
2.01469
2.00752
1.99341
1.97146
1.93948
1.90045
1.86945
1.84742
1.82872
1.8112
1.79375
1.77417
1.74843
1.71643
1.69092
1.67716
1.66754
1.6614
1.65549
1.63198
1.99225
1.22625
0.850735
0.702248
0.615349
0.576128
0.546299
0.536057
0.54362
0.585225
0.662665
0.74065
0.802864
0.836582
0.870505
0.93052
0.996399
1.0435
1.06986
1.0753
1.0719
1.06615
1.0622
1.49786
2.62455
2.89043
2.92266
2.94825
2.96107
2.97158
2.97283
2.96297
2.94859
2.93972
2.94155
2.94748
2.94137
2.9139
2.88041
2.85512
2.84253
2.84527
2.84985
2.835
2.79798
2.75305
2.71365
2.68552
2.67602
2.67532
2.66234
2.63435
2.59967
2.56398
2.53451
2.51198
2.4975
2.4836
2.46276
2.43513
2.40353
2.37098
2.34263
2.31869
2.29621
2.27216
2.24833
2.22484
2.20015
2.17513
2.15084
2.12745
2.10388
2.07881
2.05265
2.02953
2.01196
1.99539
1.98148
1.96619
1.94331
1.91676
1.88812
1.85915
1.8337
1.81368
1.79634
1.77811
1.75642
1.73119
1.70479
1.68341
1.67046
1.65993
1.65165
1.62905
2.49468
1.80633
1.38634
1.13175
0.980836
0.869725
0.77795
0.693854
0.624258
0.625117
0.655316
0.712234
0.783979
0.848222
0.879143
0.904656
0.963613
1.02065
1.06632
1.10331
1.11671
1.13402
1.14047
1.41161
2.73139
3.13534
3.06833
3.05765
3.06269
3.07054
3.08221
3.09186
3.07962
3.05258
3.02884
3.01744
3.01951
3.02206
3.00234
2.96563
2.92661
2.89536
2.88007
2.88069
2.8751
2.85003
2.8123
2.7642
2.7259
2.70206
2.69443
2.68848
2.66892
2.63952
2.59754
2.55232
2.52389
2.50713
2.50034
2.48534
2.45934
2.42628
2.38524
2.34734
2.32129
2.29936
2.28037
2.25947
2.23623
2.20954
2.17956
2.15382
2.13505
2.11645
2.0935
2.06348
2.0279
1.99585
1.97295
1.9552
1.94355
1.93056
1.91334
1.89191
1.86326
1.83021
1.80142
1.78083
1.76472
1.74974
1.73217
1.70877
1.68503
1.66636
1.65367
1.62963
2.83083
2.2607
1.87079
1.54558
1.30253
1.16203
1.07353
0.990984
0.876166
0.795605
0.786351
0.78153
0.783036
0.798037
0.81375
0.820394
0.859669
0.925154
0.98855
1.04859
1.08218
1.12163
1.17318
1.38112
2.63464
3.4735
3.40455
3.28672
3.2218
3.20963
3.20806
3.22764
3.22664
3.20029
3.15987
3.12796
3.1123
3.10947
3.10947
3.08704
3.054
3.01003
2.97638
2.95608
2.94357
2.9296
2.90498
2.87273
2.82889
2.79072
2.76659
2.74823
2.72874
2.704
2.67297
2.63509
2.60086
2.57703
2.55863
2.5373
2.51319
2.48571
2.45115
2.41198
2.37999
2.35579
2.33314
2.30984
2.28533
2.25715
2.22269
2.18795
2.16471
2.14703
2.12843
2.10558
2.07505
2.0387
2.00648
1.98548
1.97034
1.95709
1.94346
1.92735
1.90614
1.87585
1.84135
1.8137
1.79407
1.7776
1.76083
1.73973
1.7114
1.68179
1.66386
1.64244
3.0487
2.56736
2.19746
1.92338
1.66558
1.42679
1.29067
1.20546
1.11953
1.02437
0.926925
0.883776
0.846527
0.821446
0.826557
0.837789
0.840671
0.847009
0.8646
0.907025
0.977647
1.07195
1.22696
1.49448
2.11059
3.28378
3.67748
3.55562
3.42439
3.32434
3.30055
3.31666
3.33578
3.32056
3.29527
3.25297
3.22439
3.20628
3.19836
3.18625
3.16009
3.12559
3.07901
3.04131
3.01774
2.99925
2.98264
2.96076
2.93325
2.89694
2.858
2.82571
2.79664
2.76778
2.73902
2.71108
2.68422
2.65769
2.63081
2.60331
2.57465
2.54429
2.51201
2.47865
2.44745
2.4203
2.39534
2.37081
2.34541
2.31737
2.28454
2.24821
2.21485
2.18689
2.16218
2.138
2.11256
2.08575
2.05928
2.03525
2.01528
1.9985
1.98201
1.96353
1.94114
1.91461
1.8872
1.86289
1.84251
1.82407
1.80448
1.77889
1.74144
1.6987
1.67725
1.65952
3.2076
2.81617
2.45557
2.16382
1.93995
1.73552
1.54929
1.3787
1.28178
1.21923
1.14174
1.06919
1.00568
0.941067
0.904423
0.899747
0.891867
0.865387
0.86034
0.86546
0.897758
1.01394
1.36023
1.62211
1.74576
2.37869
3.3761
3.62867
3.55916
3.42709
3.35906
3.36275
3.39035
3.3861
3.36551
3.32374
3.26641
3.2359
3.21827
3.21949
3.21121
3.18585
3.1467
3.0974
3.06587
3.04535
3.03243
3.0179
2.99341
2.96122
2.91766
2.87705
2.84662
2.81989
2.79518
2.77084
2.74411
2.71269
2.67846
2.64676
2.61815
2.59134
2.5646
2.53485
2.50089
2.46762
2.43983
2.41536
2.39123
2.36551
2.33605
2.30045
2.26114
2.22708
2.19985
2.17612
2.15489
2.13551
2.11509
2.09037
2.06267
2.03858
2.01815
1.99706
1.97405
1.95094
1.92898
1.90704
1.88487
1.86348
1.84138
1.81416
1.77798
1.73552
1.70859
1.68621
3.31582
2.98088
2.67028
2.38204
2.1293
1.9427
1.78522
1.63045
1.46281
1.3439
1.28469
1.23008
1.17582
1.11647
1.03179
0.959977
0.925972
0.897915
0.896441
0.931429
1.05178
1.33532
1.53129
1.60526
1.63029
1.72123
2.35433
3.34064
3.58874
3.47734
3.40421
3.39192
3.40802
3.40398
3.38277
3.35102
3.29244
3.24924
3.22743
3.22623
3.23129
3.21273
3.18345
3.13818
3.09387
3.06853
3.05054
3.0366
3.0134
2.9842
2.9442
2.90192
2.87293
2.8488
2.82471
2.79927
2.77075
2.73569
2.69805
2.66921
2.64635
2.6241
2.60007
2.57145
2.53518
2.49562
2.46448
2.44095
2.4191
2.39612
2.36937
2.33432
2.28967
2.2512
2.22672
2.20777
2.19091
2.17502
2.15869
2.13819
2.10801
2.07141
2.04163
2.01912
1.99971
1.98183
1.96328
1.94138
1.91467
1.88528
1.85711
1.83026
1.80405
1.77834
1.7542
1.71929
3.40925
3.1099
2.82416
2.56696
2.33931
2.11691
1.93179
1.81227
1.68816
1.55803
1.4123
1.32555
1.30061
1.26843
1.20461
1.10493
1.01613
0.994813
1.02222
1.14757
1.37941
1.62099
1.67472
1.65627
1.64113
1.64144
1.70419
2.25867
3.17105
3.46008
3.44449
3.42261
3.39498
3.38279
3.37002
3.35312
3.31998
3.27552
3.24566
3.23282
3.23213
3.22074
3.19711
3.16426
3.1185
3.08208
3.05778
3.03839
3.0175
2.99069
2.95793
2.92094
2.89231
2.86749
2.84187
2.81483
2.78426
2.74647
2.70744
2.68111
2.66046
2.64003
2.61794
2.59134
2.55604
2.51321
2.47715
2.45291
2.43239
2.41157
2.38797
2.35669
2.31243
2.2702
2.24639
2.22894
2.21229
2.19754
2.18286
2.16583
2.13831
2.09404
2.05383
2.03074
2.01494
2.00004
1.98307
1.96143
1.93156
1.89489
1.86188
1.83866
1.82156
1.80562
1.7886
1.75368
3.47832
3.21642
2.95393
2.69816
2.49656
2.30763
2.11654
1.92516
1.81709
1.73029
1.6153
1.49225
1.37989
1.33917
1.30675
1.24556
1.17125
1.17722
1.28884
1.51261
1.73901
1.79944
1.77793
1.74497
1.71482
1.70836
1.71732
1.75926
2.16948
2.94403
3.4
3.47037
3.40565
3.36188
3.3424
3.34948
3.33789
3.31188
3.27389
3.24796
3.22945
3.21621
3.19999
3.17595
3.14212
3.10049
3.06958
3.04609
3.02403
2.99875
2.9711
2.94017
2.90908
2.88148
2.85521
2.82794
2.79743
2.7612
2.7218
2.68963
2.6666
2.6458
2.62417
2.59966
2.569
2.5305
2.49047
2.45986
2.43733
2.41663
2.39462
2.3677
2.33131
2.28909
2.25993
2.24365
2.23146
2.2179
2.20074
2.17988
2.14977
2.10652
2.06371
2.03738
2.02217
2.00828
1.99255
1.9719
1.93993
1.89629
1.8622
1.84376
1.83025
1.81723
1.80545
1.78119
3.5359
3.29742
3.06077
2.82981
2.61814
2.43378
2.26901
2.103
1.94187
1.81564
1.74581
1.65898
1.53765
1.42285
1.37178
1.34811
1.38205
1.531
1.73649
1.91876
1.95636
1.9263
1.90205
1.87714
1.8401
1.81615
1.80141
1.79841
1.82325
2.08517
2.74609
3.25983
3.41297
3.38453
3.35176
3.35419
3.35504
3.34297
3.31261
3.27021
3.2404
3.2195
3.20318
3.1823
3.15546
3.11829
3.08498
3.06162
3.04047
3.01734
2.99143
2.95994
2.92316
2.8909
2.86495
2.83971
2.81296
2.78265
2.74524
2.70301
2.67015
2.64647
2.62437
2.60158
2.57674
2.54703
2.50959
2.47045
2.44017
2.41648
2.39398
2.37063
2.34501
2.31485
2.2806
2.24836
2.22348
2.20311
2.18334
2.16102
2.13595
2.10942
2.07982
2.05007
2.02504
2.008
1.99356
1.97611
1.94796
1.90773
1.87023
1.84873
1.83705
1.82923
1.82267
1.80469
3.58902
3.36777
3.14762
2.93705
2.73977
2.54666
2.3809
2.24956
2.10022
1.937
1.83127
1.76347
1.67152
1.56131
1.51076
1.56373
1.77173
1.9774
2.09735
2.12662
2.0902
2.06265
2.05047
2.02594
1.98392
1.93239
1.90435
1.89617
1.88264
1.89532
2.01955
2.47426
3.06195
3.30597
3.37231
3.38955
3.38616
3.37052
3.34083
3.29471
3.25683
3.23646
3.2205
3.20003
3.1725
3.13535
3.10081
3.07934
3.0616
3.0423
3.01712
2.9836
2.93838
2.89688
2.87156
2.84948
2.82701
2.80249
2.7712
2.72714
2.68037
2.64937
2.6271
2.60619
2.58494
2.56097
2.52884
2.48564
2.44465
2.4164
2.3943
2.37446
2.35471
2.33101
2.29726
2.25472
2.2189
2.194
2.17297
2.15131
2.12943
2.10962
2.08919
2.0626
2.03218
2.00745
1.98742
1.96731
1.94634
1.92118
1.89528
1.86882
1.84196
1.82621
1.82042
1.82035
3.64346
3.43689
3.22966
3.02833
2.8494
2.6699
2.49085
2.35106
2.22716
2.08206
1.9468
1.83923
1.76203
1.74986
1.82786
2.04189
2.29484
2.3295
2.28872
2.23722
2.19708
2.19264
2.18883
2.16338
2.12207
2.06645
2.031
2.01432
1.99428
1.9648
1.95749
1.99678
2.26233
2.79694
3.19578
3.33824
3.40733
3.40048
3.37628
3.32252
3.26998
3.25047
3.23908
3.22512
3.19962
3.16276
3.12047
3.09656
3.0807
3.06435
3.04115
3.0102
2.96349
2.91015
2.87862
2.85768
2.83749
2.81579
2.79027
2.75359
2.70297
2.66084
2.6358
2.61563
2.59572
2.57384
2.54575
2.50462
2.45462
2.41745
2.39525
2.37735
2.35949
2.33908
2.31028
2.26731
2.22073
2.1874
2.16432
2.14534
2.12916
2.11444
2.09768
2.07432
2.04159
2.00738
1.98092
1.95986
1.9407
1.92554
1.91114
1.88938
1.85656
1.83082
1.82753
1.88297
3.69849
3.50287
3.30781
3.11784
2.94319
2.77691
2.60743
2.4555
2.31821
2.18959
2.06631
1.95447
1.97809
2.13276
2.31814
2.52446
2.59584
2.54542
2.45091
2.36463
2.32825
2.32162
2.31445
2.28818
2.24913
2.19396
2.14984
2.12122
2.1002
2.07258
2.0353
2.00089
2.00531
2.12948
2.53118
3.02013
3.29098
3.39729
3.41282
3.36377
3.2923
3.26194
3.25169
3.2462
3.22677
3.19594
3.14975
3.11345
3.09481
3.07714
3.05513
3.02811
2.98886
2.93615
2.89556
2.871
2.84897
2.8268
2.80314
2.77339
2.73147
2.685
2.65112
2.62749
2.60611
2.58366
2.55706
2.52017
2.471
2.4268
2.39976
2.38052
2.36256
2.34337
2.31881
2.28192
2.23231
2.1888
2.16328
2.1472
2.1342
2.12125
2.10625
2.08622
2.05502
2.0118
1.97604
1.95587
1.94251
1.93329
1.92051
1.90607
1.87967
1.86948
1.89606
2.06706
3.75519
3.56775
3.38106
3.20617
3.03561
2.86502
2.70801
2.56239
2.40745
2.29087
2.21141
2.25784
2.49392
2.68457
2.73769
2.76416
2.73311
2.66802
2.60106
2.52293
2.47914
2.46259
2.43929
2.40684
2.36628
2.31599
2.26246
2.22957
2.20029
2.17351
2.13961
2.09444
2.04641
2.03132
2.07188
2.31175
2.76998
3.17043
3.35255
3.37653
3.32203
3.2811
3.26592
3.26315
3.2491
3.22433
3.18529
3.13918
3.1065
3.08372
3.06088
3.03549
3.00398
2.96497
2.92546
2.89024
2.86033
2.83504
2.81144
2.78604
2.75407
2.71301
2.67149
2.63955
2.61404
2.58937
2.56225
2.52945
2.48871
2.44526
2.41
2.38518
2.36491
2.34483
2.3219
2.29197
2.2522
2.21031
2.17873
2.15677
2.13941
2.12439
2.11022
2.0941
2.06408
2.02283
1.98938
1.96715
1.94772
1.93063
1.92134
1.91625
1.93212
1.99658
2.13225
2.3492
3.81666
3.63512
3.45548
3.28669
3.11907
2.94825
2.79596
2.64753
2.51736
2.50461
2.61444
2.85376
3.09388
3.08073
2.99611
2.91266
2.84409
2.80246
2.75598
2.68871
2.62706
2.59973
2.56766
2.53115
2.48821
2.43826
2.37827
2.33009
2.29688
2.26418
2.23443
2.19702
2.14676
2.0882
2.05432
2.06571
2.17889
2.5177
2.9595
3.24823
3.28576
3.29648
3.29087
3.28733
3.26792
3.24296
3.21463
3.17392
3.12852
3.092
3.06451
3.03966
3.01454
2.98835
2.9583
2.92151
2.88108
2.84608
2.81924
2.79545
2.76922
2.73551
2.69355
2.65212
2.61922
2.59226
2.56651
2.53892
2.50657
2.46775
2.42703
2.39395
2.36918
2.34729
2.32457
2.29921
2.27046
2.23921
2.20789
2.17911
2.15389
2.13101
2.10692
2.07762
2.04951
2.02552
2.00506
1.98447
1.96531
1.9431
1.94445
1.98109
2.08566
2.24276
2.39062
2.51137
3.86091
3.69281
3.52394
3.35202
3.18663
3.02189
2.88763
2.76057
2.81288
3.04153
3.2357
3.36362
3.36966
3.27076
3.14041
3.04743
2.9962
2.96816
2.91695
2.84544
2.76163
2.71848
2.68723
2.65017
2.60987
2.55628
2.4947
2.4284
2.38928
2.35659
2.32334
2.29255
2.25359
2.19827
2.13304
2.09494
2.09217
2.12879
2.30824
2.68776
3.04059
3.20168
3.26941
3.30684
3.28711
3.25759
3.23543
3.20383
3.16181
3.10865
3.06862
3.04633
3.02659
3.00641
2.98198
2.95006
2.90723
2.86097
2.82631
2.80107
2.77733
2.74937
2.71255
2.6672
2.62426
2.59227
2.56781
2.54527
2.5204
2.48901
2.44945
2.40875
2.37577
2.34942
2.32556
2.3028
2.28044
2.25681
2.23126
2.20362
2.17449
2.14347
2.1097
2.07335
2.04583
2.02747
2.01445
2.00609
2.00456
2.0218
2.08703
2.21579
2.36711
2.4764
2.55927
2.58461
3.92306
3.75897
3.58818
3.4196
3.24999
3.12155
3.06283
3.19037
3.50161
3.66835
3.66853
3.64591
3.53564
3.41683
3.29953
3.20337
3.15484
3.12638
3.07119
2.99441
2.90545
2.83977
2.80789
2.76939
2.72669
2.67346
2.60222
2.53702
2.48752
2.45507
2.42158
2.38539
2.34671
2.29622
2.23485
2.18451
2.13973
2.11654
2.12683
2.19226
2.42696
2.77558
3.07114
3.22835
3.25749
3.27694
3.25944
3.23207
3.19422
3.13568
3.08115
3.05639
3.03873
3.02183
2.99881
2.97056
2.93043
2.8782
2.83663
2.80847
2.78336
2.75677
2.72535
2.68412
2.63598
2.59723
2.57172
2.55085
2.52976
2.50485
2.47139
2.42902
2.38824
2.35618
2.33019
2.30697
2.28479
2.26278
2.2405
2.2166
2.18973
2.15784
2.12023
2.07947
2.04947
2.03689
2.03609
2.05526
2.12071
2.23997
2.39702
2.54371
2.62519
2.64251
2.62861
2.60154
3.98194
3.81061
3.63742
3.48656
3.33682
3.39344
3.6304
3.95756
4.09247
3.9643
3.85346
3.78892
3.69624
3.59812
3.491
3.37383
3.30682
3.27072
3.22169
3.14367
3.05977
2.98085
2.93356
2.89116
2.83839
2.78155
2.70409
2.63789
2.59362
2.5555
2.52081
2.48191
2.43734
2.38474
2.32005
2.26823
2.22791
2.18371
2.15192
2.14046
2.15527
2.2435
2.4884
2.8301
3.08633
3.19024
3.2455
3.24891
3.21668
3.15623
3.09867
3.06681
3.04727
3.02629
3.00102
2.97671
2.94195
2.89241
2.84873
2.81548
2.78455
2.75478
2.72632
2.69527
2.65484
2.61274
2.57987
2.55359
2.53005
2.5061
2.47916
2.44437
2.40457
2.36886
2.33974
2.31303
2.28598
2.25861
2.23357
2.2144
2.19383
2.16888
2.14023
2.11008
2.07494
2.06881
2.09556
2.19749
2.36551
2.54409
2.67022
2.73019
2.73496
2.71952
2.67706
2.62659
4.05425
3.86823
3.72802
3.61784
3.76546
4.13363
4.36872
4.48357
4.38301
4.16508
3.98756
3.91345
3.86028
3.77884
3.67516
3.54757
3.45884
3.41266
3.36906
3.29549
3.20883
3.13021
3.06216
3.01195
2.9567
2.89064
2.8162
2.74381
2.69943
2.659
2.618
2.57546
2.52691
2.46861
2.40381
2.34409
2.30111
2.26383
2.22266
2.17654
2.15145
2.12874
2.14452
2.26116
2.55265
2.86195
3.10337
3.19493
3.19719
3.16095
3.1135
3.08092
3.05855
3.03353
3.00321
2.97329
2.93822
2.89346
2.8581
2.82669
2.79404
2.76171
2.73413
2.70525
2.66874
2.63198
2.59743
2.56399
2.53381
2.51061
2.48684
2.45488
2.41642
2.38394
2.35693
2.32853
2.29459
2.26034
2.23473
2.21055
2.18906
2.17357
2.16633
2.15893
2.1644
2.21357
2.33862
2.52073
2.61727
2.70736
2.78548
2.81544
2.81247
2.78678
2.73068
2.67744
4.11145
3.94596
3.95872
4.22874
4.67861
4.82892
4.77108
4.69262
4.54485
4.34988
4.16303
4.08536
4.04368
3.95218
3.85139
3.73577
3.63216
3.57063
3.51956
3.44935
3.35616
3.27152
3.19673
3.13347
3.07727
3.01134
2.93671
2.86174
2.80044
2.75366
2.70804
2.6609
2.61065
2.55305
2.48613
2.41942
2.36605
2.32335
2.28367
2.24149
2.19684
2.15463
2.13079
2.10232
2.13677
2.30547
2.61061
2.92868
3.06382
3.08741
3.09537
3.09735
3.08061
3.0438
2.98922
2.9213
2.89284
2.88216
2.86569
2.8422
2.81061
2.76689
2.70675
2.66765
2.65297
2.6351
2.61252
2.58593
2.55015
2.49887
2.44477
2.41559
2.39926
2.38437
2.37005
2.35068
2.32092
2.2746
2.21886
2.19183
2.18063
2.18264
2.21144
2.27845
2.40058
2.55896
2.70383
2.7838
2.80626
2.83435
2.86207
2.86608
2.85041
2.81314
2.76951
2.73577
4.17532
4.30516
4.77743
5.24445
5.3324
5.14787
4.97766
4.82899
4.69984
4.54809
4.37369
4.27808
4.22707
4.1291
4.02097
3.9175
3.80625
3.72821
3.66541
3.59188
3.50029
3.40355
3.3261
3.25656
3.19274
3.12873
3.05675
2.97698
2.90165
2.84145
2.78988
2.74004
2.68896
2.63359
2.56967
2.49938
2.43436
2.3824
2.3363
2.28983
2.23816
2.18975
2.14041
2.10288
2.07629
2.0676
2.12803
2.35197
2.65529
2.84576
2.96543
3.02251
3.04185
3.02555
2.97467
2.89527
2.8312
2.81806
2.81574
2.81647
2.79862
2.76083
2.69911
2.65033
2.6335
2.6267
2.61727
2.59628
2.56168
2.49882
2.43063
2.39853
2.39287
2.39513
2.38807
2.37016
2.34352
2.29446
2.22365
2.20013
2.20063
2.23735
2.3565
2.56325
2.73368
2.86243
2.93787
2.9423
2.92911
2.91099
2.89713
2.88187
2.85572
2.82794
2.81395
2.79437
4.61621
5.40302
5.74914
5.8046
5.59801
5.31679
5.10992
4.97058
4.87505
4.75323
4.59167
4.47669
4.4097
4.3138
4.19608
4.09412
3.98385
3.88669
3.81139
3.73132
3.63952
3.53999
3.45203
3.378
3.30781
3.23905
3.16546
3.08286
2.99802
2.92547
2.86602
2.81182
2.75783
2.70116
2.63723
2.56968
2.50261
2.44015
2.38704
2.34031
2.28764
2.22486
2.16029
2.11071
2.06489
2.04096
2.01699
2.03188
2.13032
2.34308
2.59901
2.79249
2.91971
2.96362
2.94344
2.88238
2.8029
2.76462
2.75713
2.75766
2.75133
2.73339
2.70269
2.64837
2.59744
2.57928
2.56721
2.55266
2.53163
2.49676
2.44665
2.40059
2.36661
2.35136
2.3406
2.32925
2.31622
2.3027
2.26175
2.2644
2.32591
2.48866
2.70947
2.87058
2.94743
3.0082
3.0197
3.01003
2.98675
2.9498
2.9169
2.89493
2.87769
2.86845
2.86621
2.84383
5.66083
6.21628
6.06473
5.90012
5.68201
5.47047
5.277
5.14127
5.04459
4.93388
4.78044
4.64978
4.56875
4.47301
4.35025
4.24266
4.14146
4.03689
3.948
3.86334
3.76782
3.66488
3.56737
3.48339
3.40728
3.33319
3.25556
3.17112
3.08268
2.99955
2.92658
2.86072
2.79841
2.74059
2.68487
2.6251
2.56
2.49436
2.43244
2.37577
2.32166
2.26448
2.20363
2.14991
2.1011
2.05807
2.01724
1.98275
1.96036
1.98851
2.0996
2.33081
2.55919
2.73204
2.8263
2.83101
2.79217
2.73181
2.69666
2.68792
2.68423
2.67559
2.65725
2.62705
2.57437
2.52603
2.50946
2.49735
2.48286
2.46937
2.44951
2.40487
2.35855
2.32854
2.31296
2.30347
2.30253
2.31457
2.37003
2.51566
2.70593
2.88656
3.0063
3.03316
3.04691
3.05646
3.04934
3.03337
3.0103
2.97203
2.93139
2.91488
2.91026
2.91326
2.90589
2.87357
5.89913
6.26322
5.98872
5.8334
5.68723
5.52972
5.36353
5.24496
5.17716
5.07679
4.934
4.80404
4.71814
4.6274
4.49177
4.37334
4.27
4.16569
4.06493
3.97339
3.87623
3.77045
3.66668
3.57365
3.48792
3.40383
3.31911
3.23034
3.14009
3.05443
2.9748
2.89972
2.82686
2.75148
2.67449
2.60198
2.5428
2.49648
2.45377
2.40578
2.34721
2.27159
2.18164
2.10321
2.05318
2.01576
1.98011
1.94386
1.91926
1.88971
1.86263
1.89995
2.05644
2.29846
2.52735
2.7014
2.73418
2.70563
2.63195
2.59822
2.59045
2.59003
2.58669
2.57047
2.5425
2.49082
2.44624
2.43249
2.42474
2.41993
2.41133
2.39507
2.36313
2.31971
2.29525
2.29719
2.33863
2.47406
2.70716
2.90924
3.04901
3.1185
3.11419
3.08869
3.07724
3.06621
3.06158
3.04696
3.02516
2.9932
2.95733
2.9386
2.92563
2.90987
2.89718
2.86695
5.43809
5.72264
5.57892
5.55409
5.50206
5.4276
5.35231
5.27807
5.21978
5.12044
4.97626
4.84271
4.74562
4.66607
4.5641
4.43065
4.34462
4.25731
4.1608
4.06644
3.96745
3.86009
3.75319
3.6544
3.56207
3.47042
3.37631
3.28394
3.19245
3.10245
3.0173
2.93537
2.85042
2.7628
2.67893
2.60353
2.53834
2.48277
2.4335
2.38599
2.33465
2.27224
2.18819
2.10376
2.04552
2.0074
1.97476
1.94066
1.89978
1.85679
1.81911
1.77455
1.77984
1.87515
2.08728
2.33931
2.56911
2.60797
2.56976
2.5235
2.50242
2.49524
2.50432
2.50412
2.48964
2.45648
2.40138
2.36925
2.35798
2.35228
2.35005
2.3392
2.3341
2.31482
2.32695
2.40811
2.60991
2.84816
3.02893
3.11924
3.15708
3.15581
3.13733
3.09971
3.06533
3.05014
3.03727
3.02753
3.01383
2.99478
2.96476
2.93158
2.91058
2.8907
2.8731
2.8433
5.12358
5.46809
5.39474
5.38049
5.3431
5.30955
5.26226
5.1977
5.12448
5.02853
4.91553
4.81225
4.7241
4.65302
4.5557
4.42641
4.31217
4.22566
4.12687
4.02383
3.92264
3.8167
3.70992
3.6103
3.51649
3.42441
3.33099
3.2331
3.13402
3.04116
2.95773
2.88315
2.81437
2.74582
2.67185
2.59096
2.5109
2.4426
2.38512
2.33168
2.27842
2.22953
2.18831
2.13715
2.06891
1.99849
1.94663
1.90774
1.86657
1.82687
1.79231
1.7669
1.72397
1.70549
1.74567
1.89394
2.14275
2.36827
2.48166
2.46114
2.42599
2.41197
2.41353
2.42284
2.4172
2.40115
2.36463
2.31331
2.2894
2.28215
2.28101
2.30291
2.32708
2.40148
2.57085
2.78444
2.98068
3.0852
3.12018
3.1519
3.15733
3.14461
3.11346
3.07079
3.03088
3.01278
3.00131
2.99097
2.978
2.95976
2.9349
2.90458
2.87747
2.85427
2.83636
2.80903
5.04107
5.35543
5.29229
5.27437
5.22402
5.17616
5.11819
5.06609
4.99856
4.91337
4.82294
4.73751
4.65807
4.57754
4.47118
4.35398
4.25449
4.17946
4.09037
3.98392
3.8728
3.76713
3.66691
3.57223
3.48146
3.39071
3.29648
3.19668
3.09533
3.00267
2.92313
2.85272
2.78568
2.71722
2.64281
2.56074
2.47725
2.40423
2.34531
2.29518
2.24856
2.20186
2.1534
2.10251
2.04301
1.97788
1.92299
1.88206
1.84698
1.81354
1.77782
1.74022
1.69952
1.65742
1.62668
1.64235
1.74118
1.94259
2.19498
2.32962
2.34771
2.34158
2.3309
2.32598
2.32299
2.31731
2.30024
2.26464
2.24088
2.24463
2.25376
2.30977
2.46588
2.72413
2.93337
3.05944
3.10492
3.11731
3.12054
3.11116
3.09397
3.07088
3.05073
3.03125
2.99988
2.97534
2.95889
2.93991
2.91912
2.89663
2.87372
2.85161
2.82844
2.80579
2.79016
2.76524
5.05458
5.37244
5.29458
5.2528
5.19639
5.14433
5.07872
5.00713
4.92137
4.83088
4.74411
4.66458
4.58785
4.4987
4.39236
4.28526
4.19272
4.11929
4.03593
3.93455
3.81786
3.70197
3.60433
3.513
3.42421
3.33682
3.24852
3.15524
3.05629
2.96124
2.87961
2.80908
2.74272
2.67656
2.60769
2.53484
2.45933
2.3864
2.32251
2.26881
2.22223
2.17708
2.13008
2.07864
2.02321
1.96874
1.91803
1.87235
1.83292
1.79781
1.76327
1.72724
1.68961
1.64895
1.61226
1.57448
1.57529
1.6288
1.78294
2.01785
2.23056
2.27978
2.26501
2.23969
2.22672
2.22433
2.21021
2.20579
2.22296
2.23554
2.32966
2.56262
2.81144
3.01106
3.05931
3.11291
3.1012
3.0654
3.03198
3.01451
3.00361
2.99616
2.98979
2.97855
2.9534
2.92202
2.89672
2.87405
2.85219
2.83218
2.81367
2.79581
2.77596
2.75433
2.73748
2.71111
5.06732
5.41081
5.31842
5.27312
5.21198
5.14498
5.06408
4.97704
4.88831
4.80391
4.72207
4.63992
4.5514
4.45012
4.34287
4.23964
4.15462
4.08828
4.00348
3.89382
3.76787
3.6486
3.55423
3.46855
3.38735
3.30685
3.22065
3.12402
3.02266
2.9287
2.84876
2.78156
2.7215
2.66113
2.59407
2.51998
2.44507
2.37484
2.31027
2.25212
2.20189
2.15732
2.11288
2.06553
2.01604
1.96633
1.91674
1.86787
1.82212
1.78213
1.74746
1.71591
1.68495
1.64969
1.61074
1.57271