/*--------------------------------*- C++ -*----------------------------------*\
  =========                 |
  \\      /  F ield         | OpenFOAM: The Open Source CFD Toolbox
   \\    /   O peration     | Website:  https://openfoam.org
    \\  /    A nd           | Version:  7
     \\/     M anipulation  |
\*---------------------------------------------------------------------------*/
FoamFile
{
    version     2.0;
    format      ascii;
    class       volScalarField;
    location    "5";
    object      T;
}
// * * * * * * * * * * * * * * * * * * * * * * * * * * * * * * * * * * * * * //

dimensions      [0 0 0 1 0 0 0];

internalField   nonuniform List<scalar> 
4032
(
1
1
1
1
1
1
1
1
1
1
1
1.16527
2.40902
2.71674
2.72711
2.74236
2.75576
2.76846
2.77997
2.79007
2.79893
2.80621
2.8119
2.81599
1
1
1
1
1
1
1
1
1
1
1
1.14749
2.39442
2.71541
2.72629
2.74089
2.75409
2.76654
2.77773
2.78737
2.79568
2.80241
2.80751
2.8114
1
1
1
1
1
1
1
1
1
1
1
1.09359
2.35583
2.71217
2.72304
2.73783
2.75116
2.76357
2.77458
2.78383
2.79157
2.79768
2.80188
2.80525
1
1
1
1
1
1
1
1
1
1
1
1.00643
2.28854
2.70428
2.7181
2.73305
2.74599
2.75764
2.76804
2.77689
2.78435
2.79012
2.79362
2.79619
1
1
1
1
1
1
1
1
1
1
1
1.00005
2.20568
2.68917
2.70812
2.72339
2.73683
2.74843
2.75846
2.76645
2.77245
2.77674
2.77881
2.7818
1
1
1
1
1
1
1
1
1
1
1
1
2.09008
2.66997
2.69895
2.7131
2.72629
2.73711
2.74616
2.7534
2.75884
2.76212
2.76076
2.75539
1
1
1
1
1
1
1
1
1
1
1
1
1.93084
2.63348
2.6829
2.69866
2.71224
2.72238
2.72995
2.73498
2.73648
2.73303
2.72498
2.71799
1
1
1
1
1
1
1
1
1
1
1
1
1.71228
2.56203
2.6559
2.67937
2.69526
2.70565
2.7115
2.71345
2.71056
2.7053
2.69998
2.71105
1
1
1
1
1
1
1
1
1
1
1
1
1.3989
2.43715
2.62979
2.65475
2.67316
2.68479
2.689
2.68796
2.67978
2.6611
2.60928
2.50861
1
1
1
1
1
1
1
1
1
1
1
1
1.0485
2.30479
2.63052
2.63213
2.64235
2.65319
2.65783
2.6547
2.64178
2.60871
2.55099
2.38786
1
1
1
1
1
1
1
1
1
1
1
1
1.00053
2.13336
2.58938
2.59837
2.60918
2.61607
2.62015
2.61565
2.60067
2.56214
2.49775
2.31449
1
1
1
1
1
1
1
1
1
1
1
1
0.999994
1.82174
2.52193
2.5823
2.59106
2.58989
2.58803
2.57954
2.56056
2.52201
2.44867
2.29097
1
1
1
1
1
1
1
1
1
1
1
1
0.999999
1.3612
2.37602
2.56404
2.56408
2.5625
2.55715
2.5443
2.52118
2.48312
2.40867
2.2881
1
1
1
1
1
1
1
1
1
1
1
1
1
1.03583
2.19166
2.52202
2.53324
2.53246
2.52679
2.51251
2.48816
2.44792
2.37916
2.28723
1
1
1
1
1
1
1
1
1
1
1
1
1
1.00019
1.81854
2.43761
2.51144
2.50843
2.50127
2.48412
2.45925
2.41668
2.35651
2.28325
1
1
1
1
1
1
1
1
1
1
1
1
1
0.999999
1.22905
2.27791
2.49219
2.47889
2.47054
2.45495
2.42873
2.39127
2.33981
2.27828
1
1
1
1
1
1
1
1
1
1
1
1
1
1
1.01215
2.07854
2.4412
2.43293
2.4311
2.421
2.40036
2.36857
2.3246
2.27138
1
1
1
1
1
1
1
1
1
1
1
1
1
1
1.00001
1.5758
2.3233
2.41363
2.40657
2.39389
2.37436
2.34554
2.30795
2.26258
1
1
1
1
1
1
1
1
1
1
1
1
1
1
0.999997
1.08583
2.1136
2.39115
2.38276
2.36818
2.34767
2.32093
2.28844
2.25026
1
1
1
1
1
1
1
1
1
1
1
1
1
1
0.999999
1.00145
1.65741
2.2748
2.36042
2.3422
2.32265
2.29785
2.26928
2.23626
1
1
1
1
1
1
1
1
1
1
1
1
1
1
1
1
1.12621
2.07356
2.33469
2.31642
2.3002
2.27721
2.25109
2.22154
1
1
1
1
1
1
1
1
1
1
1
1
1
1
1
1
1.00333
1.61322
2.20449
2.29328
2.27371
2.25321
2.23061
2.20578
1
1
1
1
1
1
1
1
1
1
1
1
1
1
1
1
1.00001
1.11292
1.98704
2.26846
2.2486
2.23368
2.21467
2.19264
1
1
1
1
1
1
1
1
1
1
1
1
1
1
1
1
1
1.00275
1.46636
2.10072
2.22565
2.20898
2.19386
2.1749
1
1
1
1
1
1
1
1
1
1
1
1
1
1
1
1
1
1.00001
1.06063
1.822
2.19379
2.18595
2.17317
2.15672
1
1
1
1
1
1
1
1
1
1
1
1
1
1
1
1
1
1
1.00095
1.28207
1.99897
2.1656
2.14673
2.13156
1
1
1
1
1
1
1
1
1
1
1
1
1
1
1
1
1
1
1
1.01913
1.58152
2.0544
2.13325
2.11514
1
1
1
1
1
1
1
1
1
1
1
1
1
1
1
1
1
1
1
1.00019
1.1111
1.79562
2.10107
2.0979
1
1
1
1
1
1
1
1
1
1
1
1
1
1
1
1
1
1
1
1
1.00308
1.2929
1.91622
2.06936
1
1
1
1
1
1
1
1
1
1
1
1
1
1
1
1
1
1
1
1
1.00002
1.02217
1.50035
1.91555
1
1
1
1
1
1
1
1
1
1
1
1
1
1
1
1
1
1
1
1
1
1.00029
1.08273
1.63847
1
1
1
1
1
1
1
1
1
1
1
1
1
1
1
1
1
1
1
1
1
1
1.00204
1.66131
1
1
1
1
1
1
1
1
1
1
1
1
1
1
1
1
1
1
1
1
1
1
1.00002
1.85393
1
1
1
1
1
1
1
1
1
1
1
1
1
1
1
1
1
1
1
1
1
1
1
1.92666
1
1
1
1
1
1
1
1
1
1
1
1
1
1
1
1
1
1
1
1
1
1
1
1.88018
1
1
1
1
1
1
1
1
1
1
1
1
1
1
1
1
1
1
1
1
1
1
1
1.79992
1
1
1
1
1
1
1
1
1
1
1
1
1
1
1
1
1
1
1
1
1
1
1
1.72458
1
1
1
1
1
1
1
1
1
1
1
1
1
1
1
1
1
1
1
1
1
1
1
1.6711
1
1
1
1
1
1
1
1
1
1
1
1
1
1
1
1
1
1
1
1
1
1
1
1.64565
1
1
1
1
1
1
1
1
1
1
1
1
1
1
1
1
1
1
1
1
1
1
1
1.64075
1.69458
1.18791
0.959851
1.05466
1.11647
1.18109
1.28975
1.40569
1.56329
1.65891
1.66842
1.65183
1.63691
1.64494
1.71378
1.73725
1.72864
1.72812
1.72321
1.71011
1.70799
1.70829
1.71141
2.1607
2.76305
2.82098
2.80795
2.79764
2.78993
2.78392
2.7749
2.76474
2.7576
2.7532
2.74755
2.73407
2.71319
2.69134
2.67327
2.66217
2.65725
2.65201
2.63669
2.61601
2.59648
2.5802
2.56927
2.56488
2.56253
2.55042
2.53125
2.51135
2.4937
2.47918
2.46945
2.45983
2.44577
2.42982
2.41436
2.40114
2.39066
2.38237
2.37279
2.36253
2.35153
2.3402
2.33007
2.32064
2.31072
2.29982
2.28773
2.274
2.25843
2.24246
2.22877
2.21743
2.20853
2.20208
2.19316
2.1823
2.16816
2.15197
2.13987
2.13151
2.12451
2.118
2.11115
2.10274
2.09065
2.07476
2.06091
2.0518
2.04413
2.03763
2.03116
2.01498
1.92796
1.62146
1.47024
1.39897
1.29498
1.25146
1.25147
1.26813
1.2974
1.33716
1.37715
1.40998
1.44927
1.49763
1.55609
1.60064
1.62027
1.62587
1.62982
1.63452
1.6488
1.66716
1.66506
2.06263
2.69755
2.79844
2.78606
2.77283
2.76172
2.75449
2.74662
2.73564
2.72376
2.71366
2.70742
2.70208
2.6915
2.67294
2.65221
2.63386
2.6199
2.61301
2.60837
2.59785
2.58146
2.56353
2.54776
2.53559
2.52938
2.52621
2.51767
2.50258
2.48431
2.46548
2.44896
2.43519
2.42539
2.41675
2.40593
2.39315
2.37967
2.36652
2.35546
2.34649
2.33849
2.33007
2.32164
2.31296
2.30307
2.29204
2.28011
2.26733
2.2535
2.2385
2.22291
2.20862
2.19689
2.1866
2.17857
2.17058
2.16038
2.1494
2.13786
2.12655
2.1169
2.1095
2.10322
2.09635
2.08705
2.07484
2.06102
2.04871
2.03964
2.0312
2.02384
2.00817
2.03319
1.82106
1.6702
1.55238
1.4599
1.39443
1.34168
1.28857
1.23226
1.22708
1.24376
1.28091
1.32178
1.36688
1.39728
1.42151
1.46241
1.49042
1.5104
1.53226
1.55648
1.58874
1.59027
1.79393
2.52634
2.70947
2.68434
2.67052
2.66512
2.66053
2.65844
2.65688
2.64729
2.63243
2.61945
2.61172
2.60927
2.60681
2.59584
2.57859
2.55901
2.54213
2.5313
2.52711
2.52177
2.51188
2.49912
2.48258
2.46951
2.46169
2.45894
2.45578
2.44623
2.43197
2.4122
2.39133
2.37751
2.36865
2.36409
2.35701
2.3468
2.33432
2.31876
2.30493
2.29647
2.29
2.28488
2.27904
2.27207
2.26317
2.25188
2.24104
2.23199
2.22197
2.20919
2.19274
2.17372
2.15685
2.14451
2.13495
2.12902
2.12311
2.11607
2.10837
2.09834
2.08666
2.07688
2.07049
2.0655
2.05996
2.05199
2.04003
2.02676
2.01518
2.00649
1.99062
2.10134
1.93843
1.81711
1.69585
1.58405
1.51546
1.47105
1.42387
1.35764
1.30133
1.29096
1.2832
1.28015
1.28941
1.30209
1.30921
1.33507
1.3732
1.40569
1.43511
1.45907
1.48813
1.51889
1.62559
2.24467
2.59974
2.58514
2.55274
2.53662
2.53158
2.53021
2.53486
2.53284
2.52191
2.50727
2.49637
2.49119
2.49025
2.49019
2.48356
2.47295
2.45709
2.44275
2.43277
2.42643
2.42087
2.41327
2.40469
2.39339
2.38412
2.37906
2.37527
2.36952
2.35976
2.34653
2.33092
2.31671
2.30652
2.29901
2.29104
2.28232
2.27251
2.26066
2.24779
2.23799
2.23148
2.2261
2.22104
2.21589
2.20936
2.19992
2.18935
2.18209
2.17566
2.1673
2.15602
2.14093
2.12251
2.10535
2.09358
2.08499
2.07834
2.073
2.06794
2.06196
2.05316
2.0428
2.03514
2.03067
2.02711
2.02239
2.01409
2.0008
1.98578
1.97571
1.96163
2.15199
2.01565
1.90286
1.81133
1.7161
1.617
1.55428
1.51283
1.47074
1.42111
1.36441
1.33276
1.30786
1.29272
1.29654
1.30241
1.30327
1.30749
1.31692
1.33968
1.37826
1.4303
1.51274
1.65131
1.92291
2.36528
2.51719
2.49135
2.45968
2.43524
2.42864
2.43333
2.43866
2.43382
2.42585
2.41328
2.40539
2.40091
2.40017
2.3989
2.39373
2.38464
2.36977
2.35657
2.34791
2.3415
2.33674
2.33168
2.32587
2.3178
2.3089
2.30163
2.29442
2.28592
2.27616
2.26583
2.25571
2.24606
2.23678
2.22763
2.21828
2.20858
2.19849
2.18826
2.17904
2.17161
2.16557
2.16039
2.15554
2.15014
2.14297
2.13388
2.12484
2.11673
2.10859
2.09917
2.08769
2.07458
2.06125
2.04884
2.03847
2.03029
2.02346
2.01721
2.0107
2.00356
1.99696
1.9922
1.98906
1.98638
1.98269
1.97544
1.96103
1.94204
1.93159
1.92044
2.18599
2.08019
1.97386
1.88033
1.80364
1.72911
1.65558
1.58018
1.53453
1.50537
1.46803
1.43013
1.394
1.35573
1.33269
1.32804
1.32297
1.30769
1.30602
1.30925
1.32943
1.40516
1.58989
1.70909
1.75668
2.01532
2.35867
2.44637
2.43171
2.40106
2.38191
2.38209
2.38889
2.38688
2.37967
2.3672
2.35122
2.34363
2.34001
2.34153
2.34064
2.33513
2.32438
2.30946
2.29937
2.29268
2.28866
2.28481
2.27865
2.2705
2.25899
2.24832
2.24059
2.23347
2.22617
2.21827
2.20923
2.19872
2.18762
2.17765
2.16889
2.16084
2.15282
2.14378
2.13338
2.12347
2.11587
2.10992
2.10461
2.09915
2.09252
2.08347
2.07252
2.06278
2.05467
2.04685
2.03899
2.03105
2.02206
2.01092
1.99848
1.98775
1.97915
1.97128
1.96381
1.95753
1.95276
1.94875
1.94501
1.94154
1.93752
1.93074
1.91886
1.90255
1.89145
1.87993
2.20118
2.11631
2.03034
1.94322
1.86042
1.79604
1.73905
1.67938
1.60867
1.55387
1.52638
1.50164
1.47646
1.44723
1.4009
1.3575
1.33739
1.32115
1.32251
1.34514
1.41841
1.57111
1.65835
1.69552
1.69637
1.73019
2.00625
2.34445
2.42015
2.39064
2.36819
2.36391
2.36694
2.36388
2.35537
2.34509
2.32872
2.31698
2.31125
2.31128
2.31298
2.30774
2.29955
2.28658
2.27322
2.26513
2.25929
2.25496
2.24818
2.23978
2.22813
2.21575
2.20743
2.2006
2.19361
2.18587
2.17681
2.16555
2.15363
2.14471
2.13782
2.13116
2.12388
2.11504
2.10364
2.09125
2.08192
2.07534
2.06955
2.0636
2.05652
2.04653
2.03282
2.02097
2.01379
2.00826
2.00309
1.99773
1.99158
1.98336
1.97122
1.95654
1.94459
1.93591
1.92918
1.924
1.91944
1.91429
1.90777
1.90043
1.89337
1.88622
1.87867
1.87067
1.86232
1.84757
2.21009
2.13827
2.06377
1.99134
1.92248
1.8499
1.78492
1.74162
1.69449
1.64252
1.57913
1.53935
1.52927
1.5151
1.48436
1.43357
1.38475
1.37292
1.38927
1.46161
1.58567
1.69189
1.70772
1.69925
1.69032
1.68769
1.71331
1.96554
2.28799
2.37156
2.36572
2.35681
2.3477
2.34221
2.33539
2.3284
2.31859
2.30634
2.29786
2.29371
2.29276
2.28845
2.28115
2.27156
2.25807
2.24678
2.23895
2.23267
2.2262
2.21816
2.20827
2.19688
2.18796
2.1804
2.1728
2.16474
2.15543
2.14369
2.13151
2.12339
2.11707
2.11082
2.10404
2.0958
2.0847
2.07112
2.0598
2.0525
2.04642
2.04024
2.0332
2.02358
2.00924
1.99529
1.98786
1.98253
1.97758
1.97316
1.96841
1.96235
1.95199
1.93529
1.91993
1.91124
1.90553
1.90067
1.89572
1.88946
1.88026
1.8687
1.85888
1.85245
1.84799
1.84366
1.83847
1.8258
2.21187
2.15185
2.0867
2.01797
1.9611
1.90425
1.84249
1.77535
1.73616
1.70426
1.65973
1.60916
1.55891
1.5408
1.52638
1.49747
1.4622
1.46737
1.53069
1.64237
1.74143
1.75038
1.73958
1.72453
1.7089
1.69917
1.70105
1.71815
1.90376
2.19033
2.33189
2.34819
2.33119
2.31784
2.30854
2.30819
2.3038
2.29634
2.28575
2.2774
2.27065
2.26584
2.26081
2.2539
2.24394
2.2312
2.22142
2.21398
2.20731
2.19989
2.19164
2.18213
2.17246
2.16403
2.15628
2.1484
2.13951
2.12873
2.11669
2.10677
2.09975
2.09342
2.0868
2.07929
2.06982
2.05785
2.04529
2.03582
2.02899
2.02268
2.01577
2.00705
1.99497
1.98074
1.97107
1.9659
1.96222
1.9581
1.95276
1.94596
1.93545
1.91983
1.90417
1.89452
1.88909
1.88443
1.87936
1.87262
1.86178
1.84641
1.83487
1.82977
1.82611
1.82225
1.81851
1.81091
2.21065
2.15789
2.10176
2.043
1.98566
1.93292
1.88334
1.82977
1.77397
1.72825
1.70339
1.67085
1.62192
1.57158
1.54856
1.53947
1.55779
1.62977
1.72184
1.79796
1.80243
1.78944
1.77645
1.7632
1.74528
1.73084
1.72216
1.71444
1.7244
1.83797
2.09314
2.2526
2.29847
2.29236
2.28323
2.28184
2.28116
2.27742
2.26917
2.2565
2.24655
2.23993
2.23536
2.22976
2.22202
2.21069
2.20041
2.19345
2.18755
2.18129
2.17413
2.16507
2.15424
2.14487
2.13759
2.13069
2.12338
2.11488
2.10399
2.09134
2.08148
2.07452
2.068
2.06124
2.05388
2.04505
2.03377
2.02185
2.01278
2.00579
1.99888
1.99132
1.98284
1.97284
1.96128
1.9505
1.94226
1.93556
1.92928
1.92228
1.91426
1.90538
1.89518
1.88455
1.87573
1.86997
1.86518
1.85947
1.85005
1.83593
1.82241
1.81531
1.81194
1.80986
1.80744
1.80182
2.20604
2.1594
2.1098
2.05912
2.00849
1.95527
1.90731
1.86807
1.82051
1.76442
1.7266
1.7026
1.66804
1.62324
1.60539
1.63267
1.72585
1.80342
1.84915
1.85299
1.8388
1.82619
1.81773
1.80502
1.78655
1.7641
1.74934
1.74188
1.73164
1.73536
1.7837
1.9626
2.15455
2.22814
2.2476
2.25457
2.25402
2.24947
2.24179
2.22861
2.21721
2.21136
2.20718
2.20193
2.19433
2.1834
2.1732
2.16731
2.16297
2.15846
2.15231
2.14355
2.1311
2.11971
2.1133
2.10796
2.1025
2.09629
2.08789
2.07545
2.06188
2.05308
2.04698
2.04124
2.0354
2.02875
2.01963
2.00707
1.99512
1.98717
1.981
1.97521
1.96913
1.96141
1.95006
1.93572
1.92396
1.91624
1.90978
1.90315
1.89656
1.89058
1.88403
1.87501
1.86443
1.85587
1.84922
1.84289
1.83629
1.82818
1.81964
1.81032
1.80055
1.7946
1.79148
1.79384
2.19817
2.15802
2.11437
2.06862
2.02563
1.97909
1.92923
1.88904
1.85228
1.806
1.75979
1.72258
1.69176
1.69398
1.72894
1.81797
1.90838
1.91398
1.89877
1.87837
1.86252
1.85709
1.85201
1.83961
1.82238
1.7995
1.78229
1.77211
1.76058
1.74643
1.73965
1.75134
1.85556
2.04093
2.15714
2.19619
2.219
2.21908
2.21238
2.19705
2.1831
2.178
2.17516
2.17159
2.1646
2.15423
2.1426
2.13657
2.1331
2.12974
2.12469
2.1175
2.1057
2.09165
2.084
2.0795
2.07526
2.07054
2.0646
2.05524
2.04147
2.02991
2.02347
2.01847
2.01356
2.00808
2.0008
1.98964
1.9756
1.96549
1.96003
1.95564
1.95087
1.9448
1.93568
1.92178
1.90649
1.89603
1.88937
1.88412
1.87981
1.87589
1.87106
1.86363
1.8525
1.84072
1.83219
1.82591
1.82037
1.81614
1.81185
1.80483
1.79274
1.78307
1.78267
1.80707
2.18818
2.15318
2.1143
2.07391
2.03444
1.99446
1.95054
1.9088
1.86922
1.8306
1.79116
1.75618
1.76708
1.82871
1.89774
1.97004
1.98663
1.9691
1.93652
1.90692
1.89189
1.88573
1.87955
1.86719
1.85101
1.82901
1.80958
1.79556
1.78421
1.77032
1.75394
1.73697
1.73769
1.78162
1.92383
2.06988
2.14516
2.17665
2.18054
2.16869
2.15121
2.14384
2.1408
2.13886
2.13316
2.12487
2.11312
2.10415
2.09988
2.09604
2.09148
2.08603
2.07731
2.06437
2.05438
2.04895
2.04448
2.04018
2.0355
2.02894
2.01855
2.00641
1.99782
1.99231
1.98754
1.98259
1.97652
1.96737
1.95434
1.94263
1.93615
1.93196
1.92792
1.92319
1.9165
1.90558
1.89006
1.8763
1.86905
1.86516
1.86228
1.85938
1.85569
1.84998
1.83999
1.82569
1.8143
1.8088
1.80588
1.80415
1.80076
1.79619
1.78747
1.78686
1.79804
1.8692
2.17771
2.14611
2.11165
2.07673
2.04029
2.00132
1.96371
1.92648
1.88388
1.85046
1.83097
1.85169
1.9362
1.99717
2.01724
2.02195
2.01115
1.98931
1.9668
1.94085
1.92355
1.91483
1.90398
1.89019
1.87361
1.85347
1.83174
1.81663
1.80287
1.78957
1.77367
1.75398
1.73507
1.72336
1.7327
1.81774
1.96446
2.0774
2.12133
2.13216
2.11965
2.1115
2.10695
2.1054
2.10084
2.0943
2.08515
2.07416
2.06599
2.0605
2.05567
2.05096
2.0449
2.03646
2.02728
2.01907
2.01257
2.00764
2.0033
1.9984
1.9914
1.98147
1.97114
1.9636
1.95809
1.95306
1.94752
1.94029
1.9305
1.91956
1.91087
1.90534
1.90114
1.89689
1.89161
1.88388
1.8728
1.86071
1.85155
1.84563
1.84157
1.83857
1.8359
1.83227
1.82345
1.81072
1.80089
1.79494
1.78929
1.78417
1.7825
1.78407
1.79227
1.8187
1.86976
1.94937
2.16773
2.13862
2.10735
2.07554
2.04148
2.00487
1.9702
1.93495
1.90099
1.90445
1.94725
2.02738
2.09821
2.09384
2.07034
2.04591
2.02472
2.01071
1.99501
1.97262
1.95056
1.93893
1.9262
1.91183
1.89488
1.87503
1.85183
1.83209
1.81716
1.80214
1.78742
1.77002
1.74827
1.7238
1.70662
1.70722
1.74134
1.85325
1.98214
2.05668
2.06888
2.07466
2.07471
2.07375
2.06818
2.06167
2.05533
2.04619
2.03523
2.02619
2.02014
2.01556
2.01131
2.00667
2.00069
1.99272
1.98368
1.97621
1.97107
1.96675
1.96161
1.95418
1.94422
1.93427
1.92694
1.92164
1.91697
1.91184
1.90518
1.8962
1.88614
1.87819
1.87281
1.86837
1.86371
1.85814
1.85125
1.84331
1.83515
1.8277
1.82138
1.81588
1.81014
1.8028
1.79552
1.78935
1.78448
1.77913
1.77266
1.76836
1.7709
1.78852
1.82905
1.88676
1.9358
1.96931
2.15221
2.12776
2.10051
2.07039
2.03837
2.00454
1.97642
1.9526
1.97263
2.04621
2.10785
2.14723
2.14804
2.12168
2.08633
2.06054
2.04561
2.03651
2.0202
1.9972
1.96986
1.95396
1.94205
1.92802
1.91219
1.89159
1.86819
1.84342
1.82642
1.81128
1.79538
1.77966
1.76122
1.73748
1.71175
1.6959
1.68541
1.69338
1.75165
1.8694
1.96725
2.00934
2.02734
2.03855
2.03444
2.02842
2.02329
2.01625
2.00704
1.99479
1.98572
1.9817
1.97874
1.97582
1.97179
1.96578
1.95671
1.9465
1.93941
1.93479
1.93041
1.92483
1.91676
1.90618
1.89632
1.89
1.88602
1.88257
1.87835
1.87196
1.86263
1.85249
1.84469
1.83912
1.83445
1.8301
1.82569
1.82067
1.81484
1.80834
1.80133
1.79345
1.78449
1.77516
1.76896
1.76536
1.76281
1.76168
1.76468
1.77511
1.80221
1.84884
1.90121
1.93433
1.96074
1.96142
2.13631
2.11533
2.0903
2.06261
2.03238
2.00783
2.00789
2.0502
2.14104
2.18895
2.19534
2.19017
2.164
2.13487
2.10436
2.07825
2.06446
2.05577
2.03929
2.01589
1.98833
1.96653
1.95429
1.93996
1.92336
1.90311
1.87716
1.8529
1.8331
1.81783
1.80194
1.78483
1.76671
1.74513
1.72015
1.69931
1.67996
1.66946
1.66469
1.68317
1.75904
1.86083
1.93932
1.97669
1.98689
1.99591
1.99302
1.98713
1.97898
1.96669
1.95449
1.94963
1.94735
1.94586
1.943
1.93823
1.92966
1.91785
1.9093
1.90431
1.90003
1.8953
1.88895
1.87967
1.86873
1.86106
1.85731
1.85474
1.85186
1.84735
1.83966
1.82902
1.8191
1.81208
1.80699
1.80277
1.7988
1.79466
1.79005
1.78473
1.77853
1.77101
1.76174
1.7507
1.74291
1.74098
1.74297
1.75355
1.78068
1.82525
1.87893
1.92326
1.94812
1.94848
1.94474
1.93422
2.11561
2.0961
2.0734
2.05105
2.0347
2.05534
2.12665
2.2172
2.25865
2.23136
2.2065
2.19208
2.17248
2.15086
2.12529
2.09562
2.07732
2.06652
2.0522
2.02965
2.00435
1.97957
1.96281
1.94739
1.92843
1.9074
1.88026
1.85578
1.83768
1.82119
1.80534
1.78821
1.76941
1.74818
1.72332
1.70207
1.68459
1.66721
1.65293
1.64526
1.64304
1.66971
1.74825
1.84358
1.90901
1.93624
1.95419
1.95672
1.95051
1.93904
1.92697
1.92025
1.91719
1.91498
1.91249
1.90926
1.90184
1.89005
1.88074
1.87478
1.86984
1.86516
1.86004
1.85323
1.84416
1.83598
1.83093
1.82762
1.82465
1.82056
1.81436
1.80549
1.79581
1.78814
1.78252
1.77741
1.7721
1.7666
1.76148
1.75745
1.75298
1.74774
1.74159
1.73353
1.72534
1.72554
1.73749
1.77588
1.83308
1.89065
1.92526
1.9378
1.93746
1.93353
1.92252
1.9044
2.09832
2.0766
2.05899
2.06075
2.10753
2.20593
2.26505
2.30116
2.28324
2.24015
2.20361
2.18901
2.17865
2.16139
2.13836
2.10851
2.08568
2.07187
2.05861
2.03801
2.01291
1.98879
1.96725
1.94995
1.93096
1.90842
1.88287
1.8574
1.83961
1.82317
1.80653
1.78942
1.77063
1.74917
1.7259
1.70367
1.6861
1.67029
1.65423
1.63654
1.62572
1.6145
1.61761
1.65489
1.74303
1.82739
1.88782
1.91279
1.91642
1.911
1.90423
1.89818
1.89308
1.88774
1.88276
1.87916
1.8736
1.86379
1.85542
1.84879
1.84294
1.83777
1.83365
1.82828
1.82055
1.81354
1.80792
1.80278
1.79808
1.79447
1.78971
1.78211
1.773
1.7663
1.76139
1.75581
1.74827
1.74057
1.73561
1.73038
1.72585
1.72258
1.72262
1.72406
1.72969
1.75052
1.79283
1.84979
1.87811
1.89973
1.9178
1.92466
1.92346
1.91578
1.90004
1.88209
2.07848
2.06615
2.07984
2.15968
2.27062
2.31535
2.30877
2.29677
2.27163
2.237
2.20287
2.18941
2.18195
2.16346
2.14199
2.11607
2.09148
2.0752
2.06064
2.04117
2.01558
1.99135
1.96926
1.94938
1.93083
1.90947
1.88544
1.86095
1.83976
1.82228
1.8052
1.78789
1.76996
1.75014
1.72788
1.70554
1.68649
1.67022
1.6555
1.64046
1.62522
1.60919
1.59981
1.59038
1.60177
1.65668
1.74621
1.83156
1.86526
1.87461
1.88216
1.88443
1.88011
1.87094
1.85874
1.84475
1.84051
1.83958
1.83595
1.8301
1.823
1.81334
1.8
1.79346
1.79277
1.79069
1.78718
1.78272
1.77539
1.76335
1.75106
1.74599
1.74397
1.74168
1.73951
1.7361
1.72961
1.7176
1.70293
1.69825
1.69718
1.69932
1.71152
1.73761
1.77989
1.83066
1.87131
1.89054
1.89541
1.89979
1.90394
1.90355
1.89708
1.88521
1.87333
1.86282
2.06508
2.10551
2.21124
2.30573
2.34721
2.31785
2.29574
2.27584
2.25697
2.23353
2.20391
2.1875
2.17903
2.16096
2.13912
2.11647
2.09182
2.07366
2.05764
2.03823
2.01461
1.98943
1.96795
1.94792
1.92879
1.90922
1.88752
1.8638
1.8409
1.82132
1.80359
1.78636
1.7692
1.75143
1.73171
1.71021
1.68989
1.67297
1.65767
1.64328
1.62844
1.61435
1.5989
1.58679
1.5777
1.57947
1.60419
1.67792
1.76589
1.81648
1.84854
1.86344
1.86711
1.86378
1.85356
1.83439
1.81637
1.81065
1.8096
1.80995
1.8065
1.79818
1.78218
1.76945
1.76698
1.76745
1.76716
1.76349
1.7558
1.74013
1.72392
1.71865
1.71895
1.72141
1.72051
1.71728
1.71172
1.69887
1.67994
1.67775
1.67928
1.69405
1.73417
1.79792
1.84857
1.88257
1.89904
1.89755
1.89162
1.88571
1.87958
1.87294
1.86443
1.85722
1.85424
1.84956
2.10882
2.26624
2.33145
2.3599
2.33408
2.30127
2.276
2.25887
2.24842
2.23197
2.20569
2.18566
2.17437
2.15759
2.13516
2.1143
2.09155
2.071
2.05384
2.03482
2.01289
1.98887
1.96684
1.94755
1.92852
1.90928
1.88879
1.86611
1.8428
1.82234
1.8049
1.78874
1.77269
1.75567
1.73712
1.71817
1.6997
1.68309
1.66903
1.65687
1.64351
1.62813
1.61232
1.59953
1.58695
1.58184
1.58035
1.58848
1.62853
1.69982
1.77564
1.82782
1.85911
1.86549
1.85938
1.8425
1.81769
1.80178
1.79711
1.7967
1.79478
1.78965
1.77958
1.76219
1.74735
1.74224
1.73985
1.73734
1.73362
1.72639
1.71361
1.70099
1.692
1.68935
1.6879
1.68666
1.68502
1.68327
1.67598
1.67918
1.70087
1.75005
1.81239
1.85437
1.8749
1.8868
1.88794
1.88503
1.87806
1.86793
1.85918
1.85364
1.84944
1.84758
1.84777
1.84411
2.28673
2.41113
2.38946
2.36807
2.33587
2.30616
2.27984
2.26168
2.2485
2.23187
2.20642
2.18342
2.169
2.15209
2.12971
2.10918
2.09009
2.07005
2.0523
2.03413
2.0126
1.98931
1.96721
1.94772
1.92945
1.91125
1.89213
1.87135
1.84951
1.82907
1.81137
1.79556
1.78084
1.7675
1.75467
1.74057
1.7248
1.70893
1.69403
1.68076
1.66895
1.65756
1.64562
1.63454
1.62393
1.61444
1.60562
1.59834
1.59738
1.6116
1.65683
1.73357
1.79962
1.84624
1.85846
1.85674
1.84126
1.81904
1.8039
1.79738
1.7921
1.78459
1.77582
1.76584
1.7501
1.73383
1.72678
1.72203
1.71782
1.71514
1.71069
1.69742
1.6821
1.6731
1.66973
1.66914
1.6705
1.67616
1.69595
1.74009
1.79209
1.83861
1.86819
1.87405
1.87727
1.88074
1.8787
1.87424
1.86833
1.85996
1.852
1.84975
1.84949
1.8512
1.85057
1.84577
2.58555
2.56999
2.48958
2.4293
2.38271
2.34183
2.3052
2.28097
2.2669
2.24827
2.22287
2.20004
2.18514
2.16848
2.14331
2.12161
2.10117
2.07952
2.05859
2.03939
2.01852
1.99575
1.97377
1.95441
1.93687
1.91988
1.90287
1.88485
1.86627
1.84867
1.83254
1.81745
1.80289
1.78787
1.77198
1.75697
1.7455
1.7371
1.72939
1.71978
1.70663
1.68819
1.66586
1.64863
1.64015
1.63382
1.62725
1.61983
1.61443
1.60559
1.60631
1.6259
1.68446
1.76361
1.82936
1.86759
1.86741
1.85449
1.82431
1.80351
1.7938
1.78807
1.78192
1.77273
1.75976
1.74106
1.72436
1.71673
1.71161
1.70766
1.70328
1.6971
1.68629
1.67137
1.66531
1.66655
1.68026
1.72016
1.78447
1.83546
1.87043
1.88862
1.88775
1.88234
1.88129
1.87977
1.87919
1.8761
1.87188
1.86601
1.85918
1.85618
1.85472
1.85276
1.85158
1.8472
2.72034
2.6733
2.58908
2.52976
2.47253
2.42134
2.37953
2.34634
2.32343
2.29711
2.26669
2.24032
2.22126
2.20514
2.18491
2.15859
2.13859
2.11781
2.09585
2.07584
2.0557
2.0339
2.01248
1.99359
1.97686
1.96069
1.94403
1.92759
1.9111
1.89464
1.87891
1.86337
1.84644
1.82837
1.81062
1.79482
1.78208
1.7718
1.76284
1.75385
1.74327
1.72945
1.70921
1.6884
1.67553
1.6679
1.66148
1.65429
1.64519
1.63374
1.62221
1.61103
1.61633
1.65676
1.73528
1.8162
1.87397
1.87443
1.8558
1.82868
1.81009
1.80047
1.7977
1.79078
1.77652
1.75671
1.73414
1.72017
1.71248
1.70609
1.69996
1.69173
1.68792
1.67959
1.68293
1.70676
1.76345
1.82648
1.87311
1.89578
1.90961
1.91062
1.90649
1.89759
1.8899
1.88687
1.88488
1.8843
1.88338
1.88142
1.8763
1.86989
1.86681
1.86439
1.86247
1.85742
2.75074
2.7413
2.69582
2.6482
2.59269
2.54025
2.49053
2.44664
2.40981
2.37549
2.34324
2.31537
2.29171
2.2728
2.24932
2.2189
2.19156
2.17021
2.14657
2.12343
2.10237
2.08084
2.05934
2.0403
2.02349
2.00736
1.99072
1.97275
1.95423
1.93682
1.92113
1.90689
1.89328
1.879
1.86281
1.84432
1.82574
1.81012
1.79738
1.78599
1.77486
1.76499
1.75681
1.7448
1.72634
1.70688
1.69287
1.68273
1.67219
1.66168
1.65082
1.64098
1.6268
1.62576
1.64332
1.70249
1.79137
1.85788
1.87763
1.86389
1.83921
1.82212
1.81567
1.81125
1.79819
1.77905
1.75606
1.73311
1.7199
1.71146
1.70287
1.70388
1.70556
1.72414
1.7728
1.83039
1.88136
1.91302
1.92788
1.93929
1.94178
1.9382
1.93005
1.91903
1.90896
1.90588
1.90557
1.90609
1.90633
1.90581
1.90341
1.89891
1.89512
1.89234
1.89004
1.8842
2.71598
2.74108
2.71949
2.69511
2.65916
2.62056
2.57928
2.5421
2.50621
2.47133
2.43867
2.40891
2.38164
2.35471
2.3226
2.28975
2.26244
2.24108
2.21732
2.19167
2.16701
2.14419
2.12287
2.10395
2.08714
2.07068
2.053
2.03344
2.01303
1.9941
1.97765
1.96282
1.94821
1.93251
1.91464
1.89414
1.87259
1.85367
1.83889
1.82692
1.81595
1.80436
1.79144
1.77759
1.76041
1.74099
1.72445
1.71216
1.70131
1.69057
1.67837
1.66476
1.64903
1.63206
1.62171
1.62963
1.67061
1.74915
1.83549
1.86911
1.85994
1.84636
1.83378
1.82416
1.81331
1.79867
1.7795
1.75649
1.73994
1.73143
1.72643
1.73714
1.77954
1.85141
1.91004
1.94557
1.9644
1.97479
1.98019
1.97789
1.97233
1.96511
1.9597
1.95492
1.94747
1.94395
1.94326
1.94251
1.94201
1.94143
1.94046
1.93903
1.93653
1.93326
1.93049
1.9236
2.65741
2.73351
2.71463
2.69809
2.67629
2.65402
2.62797
2.59988
2.56923
2.53867
2.50983
2.48289
2.45621
2.42672
2.39356
2.36097
2.33291
2.30991
2.2858
2.26002
2.2327
2.20623
2.18427
2.16468
2.14669
2.12939
2.1114
2.09119
2.06875
2.04666
2.02708
2.00962
1.99294
1.97609
1.95793
1.93788
1.91659
1.89599
1.878
1.86304
1.84992
1.83688
1.82282
1.80679
1.78894
1.77107
1.75426
1.73886
1.72496
1.712
1.69901
1.68501
1.66967
1.65178
1.63553
1.62003
1.62108
1.64333
1.70772
1.79759
1.86875
1.86481
1.85208
1.83388
1.81993
1.8099
1.79525
1.77948
1.77322
1.76733
1.79268
1.86314
1.93361
1.98948
2.01178
2.03321
2.03232
2.02549
2.01727
2.01256
2.00891
2.00625
2.00438
2.00175
1.99668
1.9915
1.98879
1.98723
1.98651
1.98643
1.98629
1.98569
1.98336
1.97879
1.97402
1.96455
2.61527
2.71961
2.70237
2.69284
2.67702
2.65863
2.63704
2.61422
2.59078
2.56769
2.54471
2.52098
2.49498
2.4658
2.43547
2.40677
2.38266
2.3625
2.33812
2.31021
2.28004
2.25235
2.23159
2.21343
2.1963
2.17892
2.1594
2.13619
2.11025
2.08545
2.06423
2.04618
2.0295
2.01222
1.99264
1.97066
1.94797
1.92645
1.90671
1.88873
1.87309
1.85882
1.84419
1.82812
1.81087
1.79316
1.77522
1.75728
1.74013
1.72474
1.71083
1.69764
1.68422
1.66873
1.6513
1.63301
1.61834
1.61205
1.62232
1.67353
1.75998
1.8412
1.85743
1.84842
1.83316
1.82354
1.81576
1.80524
1.81758
1.86488
1.95239
2.02386
2.05492
2.0809
2.08238
2.08337
2.07843
2.06895
2.06403
2.06175
2.05906
2.05699
2.05305
2.04821
2.04273
2.03751
2.03445
2.0329
2.03205
2.03149
2.03059
2.02865
2.02449
2.0175
2.01051
1.99865
2.59679
2.71092
2.69298
2.68409
2.67057
2.65482
2.63651
2.61746
2.59781
2.57756
2.55613
2.53283
2.5079
2.4818
2.45592
2.43233
2.41162
2.38948
2.36261
2.33405
2.30725
2.28456
2.26487
2.24655
2.22811
2.20738
2.18347
2.15859
2.13543
2.11402
2.09327
2.07284
2.05255
2.03132
2.00884
1.98658
1.96603
1.94692
1.92821
1.90916
1.8902
1.87209
1.85486
1.83828
1.82225
1.80598
1.78882
1.77057
1.75163
1.73345
1.71769
1.70429
1.69181
1.67806
1.66331
1.64608
1.62649
1.6104
1.59926
1.60475
1.63477
1.7154
1.78899
1.84132
1.84431
1.8423
1.84672
1.88055
1.95324
2.0256
2.0908
2.11388
2.12563
2.12228
2.11899
2.11763
2.1157
2.11083
2.10582
2.1033
2.10105
2.0987
2.09367
2.08786
2.08168
2.07515
2.07026
2.06766
2.06617
2.06481
2.06279
2.05899
2.0521
2.04168
2.03237
2.01832
2.5941
2.70932
2.69009
2.67986
2.66579
2.65041
2.63337
2.61527
2.5963
2.57641
2.55541
2.53329
2.51077
2.48826
2.46603
2.4442
2.41964
2.39196
2.36593
2.34358
2.32428
2.30525
2.28543
2.26402
2.24033
2.21615
2.19342
2.17206
2.15173
2.13183
2.11107
2.08785
2.06171
2.0362
2.01413
1.99494
1.97721
1.95988
1.94181
1.92224
1.90095
1.87837
1.85774
1.8408
1.8264
1.81257
1.7977
1.78009
1.75963
1.73856
1.72036
1.70591
1.6938
1.68239
1.6708
1.65558
1.63452
1.61218
1.59505
1.58682
1.58542
1.60472
1.66812
1.75528
1.81851
1.86415
1.93874
2.02381
2.07359
2.11502
2.14278
2.13875
2.13849
2.13981
2.14325
2.14402
2.14318
2.14093
2.13553
2.12897
2.12366
2.11852
2.11273
2.10763
2.10315
2.09851
2.09437
2.09123
2.08813
2.08469
2.08028
2.07369
2.06368
2.05152
2.04261
2.03026
2.59413
2.70897
2.68925
2.67839
2.66402
2.64872
2.63201
2.61429
2.59558
2.57577
2.55497
2.53362
2.51241
2.49083
2.46862
2.44466
2.41807
2.39253
2.36964
2.34959
2.33232
2.31268
2.29202
2.26852
2.24193
2.21722
2.19627
2.17741
2.15905
2.13991
2.11825
2.09187
2.06198
2.03459
2.0132
1.99636
1.98145
1.96694
1.95088
1.93037
1.90422
1.87783
1.85647
1.83959
1.8254
1.81266
1.80044
1.7863
1.7672
1.74268
1.72075
1.70542
1.69312
1.68216
1.67166
1.65927
1.64038
1.61572
1.59421
1.57984
1.57363
1.57097
1.58523
1.64887
1.77558
1.92594
2.03712
2.14194
2.17974
2.19242
2.17935
2.15214
2.14603
2.14686
2.14813
2.15184
2.15353
2.15256
2.14801
2.14013
2.13253
2.12592
2.11993
2.11504
2.11122
2.10753
2.10341
2.09919
2.09477
2.08987
2.08402
2.07621
2.06517
2.05327
2.04608
2.03495
)
;

boundaryField
{
    inlet
    {
        type            fixedValue;
        value           uniform 1;
    }
    outlet
    {
        type            inletOutlet;
        inletValue      uniform 1;
        value           nonuniform List<scalar> 
32
(
2.01477
2.00812
1.99042
1.96167
1.92095
1.88038
1.8473
1.82544
1.81125
1.80229
1.79414
1.80687
1.86781
1.94876
1.97029
1.96247
1.9343
1.90391
1.88184
1.86301
1.85
1.84474
1.84591
1.8473
1.85752
1.88437
1.92378
1.9645
1.99828
2.01799
2.03027
2.03498
)
;
    }
    bottom
    {
        type            symmetryPlane;
    }
    top
    {
        type            symmetryPlane;
    }
    obstacle
    {
        type            zeroGradient;
    }
    defaultFaces
    {
        type            empty;
    }
}


// ************************************************************************* //
