/*--------------------------------*- C++ -*----------------------------------*\
  =========                 |
  \\      /  F ield         | OpenFOAM: The Open Source CFD Toolbox
   \\    /   O peration     | Website:  https://openfoam.org
    \\  /    A nd           | Version:  7
     \\/     M anipulation  |
\*---------------------------------------------------------------------------*/
FoamFile
{
    version     2.0;
    format      ascii;
    class       volVectorField;
    location    "5";
    object      U;
}
// * * * * * * * * * * * * * * * * * * * * * * * * * * * * * * * * * * * * * //

dimensions      [0 1 -1 0 0 0 0];

internalField   nonuniform List<vector> 
4032
(
(3 5.82363e-17 0)
(3 3.27371e-17 0)
(3 -6.03437e-17 0)
(3 -1.07024e-16 0)
(3 -2.55035e-16 0)
(3 -3.21421e-16 0)
(3 -1.00795e-15 0)
(3 -1.30929e-15 0)
(3 -9.50312e-16 0)
(3 -7.71707e-16 0)
(3 -4.69092e-16 0)
(2.90654 0.0031377 0)
(0.991334 0.0162731 0)
(0.709075 0.019203 0)
(0.657371 0.0238741 0)
(0.597746 0.0253581 0)
(0.538918 0.0265938 0)
(0.478276 0.0279436 0)
(0.415869 0.0294642 0)
(0.351036 0.0312848 0)
(0.283229 0.0333291 0)
(0.210821 0.0364404 0)
(0.132089 0.0391284 0)
(0.0494432 0.044578 0)
(3 4.09824e-17 0)
(3 1.8676e-16 0)
(3 -1.52151e-16 0)
(3 -1.23944e-16 0)
(3 -7.42796e-16 0)
(3 -1.17725e-15 0)
(3 -1.80085e-15 0)
(3 -2.30277e-15 0)
(3 -1.98512e-15 0)
(3 -5.50115e-16 0)
(3 -5.35445e-16 0)
(2.91713 0.0203163 0)
(0.998551 0.0748515 0)
(0.696258 0.0666642 0)
(0.642265 0.0708958 0)
(0.583588 0.0754141 0)
(0.524857 0.0797577 0)
(0.46385 0.0843675 0)
(0.400819 0.0891235 0)
(0.335634 0.0946679 0)
(0.268297 0.100713 0)
(0.198131 0.110507 0)
(0.122692 0.119216 0)
(0.0461177 0.134867 0)
(3 -1.83109e-17 0)
(3 9.06569e-17 0)
(3 6.42347e-17 0)
(3 9.3302e-17 0)
(3 -2.67327e-16 0)
(3 -5.37609e-16 0)
(3 -6.54447e-16 0)
(3 -6.41507e-16 0)
(3 -6.07479e-16 0)
(3 -5.46799e-17 0)
(3 -7.6492e-16 0)
(2.9603 0.0352342 0)
(1.03683 0.137343 0)
(0.712126 0.115188 0)
(0.657584 0.121985 0)
(0.596814 0.12957 0)
(0.5359 0.137132 0)
(0.472732 0.145185 0)
(0.407125 0.153178 0)
(0.338853 0.161932 0)
(0.267947 0.170232 0)
(0.195316 0.184009 0)
(0.118341 0.195788 0)
(0.0440783 0.218148 0)
(3 4.90952e-17 0)
(3 -1.71221e-16 0)
(3 1.93599e-16 0)
(3 -1.17731e-16 0)
(3 -2.27806e-17 0)
(3 2.57826e-16 0)
(3 8.48634e-16 0)
(3 1.01503e-15 0)
(3 7.40156e-16 0)
(3 1.13168e-16 0)
(3 -1.05588e-15 0)
(3.00721 0.00550319 0)
(1.11299 0.181582 0)
(0.742824 0.152812 0)
(0.691111 0.166843 0)
(0.632003 0.178787 0)
(0.571243 0.190172 0)
(0.507726 0.202858 0)
(0.440307 0.216154 0)
(0.368189 0.231236 0)
(0.290799 0.244599 0)
(0.211187 0.263419 0)
(0.126862 0.277885 0)
(0.0458949 0.303364 0)
(3 5.88558e-17 0)
(3 -1.55064e-16 0)
(3 -1.05754e-16 0)
(3 -7.13132e-17 0)
(3 -6.35441e-17 0)
(3 1.87108e-16 0)
(3 7.68883e-16 0)
(3 1.00238e-15 0)
(3 9.82421e-16 0)
(3 6.64269e-16 0)
(3 -3.78602e-18 0)
(3.00047 2.46531e-05 0)
(1.22459 0.224613 0)
(0.749784 0.197055 0)
(0.694401 0.217265 0)
(0.638868 0.233735 0)
(0.580988 0.248676 0)
(0.521131 0.266253 0)
(0.457527 0.2853 0)
(0.389709 0.307162 0)
(0.315008 0.325391 0)
(0.235919 0.348937 0)
(0.145741 0.368514 0)
(0.0550465 0.40016 0)
(3 -2.12774e-16 0)
(3 1.44486e-16 0)
(3 3.55122e-16 0)
(3 4.09223e-16 0)
(3 1.87197e-16 0)
(3 -9.77042e-19 0)
(3 -2.22786e-16 0)
(3 -3.59081e-16 0)
(3 -5.84246e-16 0)
(3 -5.39989e-16 0)
(3 -1.86223e-16 0)
(3 -8.99935e-08 0)
(1.40745 0.274814 0)
(0.765973 0.246197 0)
(0.695703 0.261692 0)
(0.646537 0.28052 0)
(0.59641 0.298141 0)
(0.546274 0.319757 0)
(0.491284 0.344353 0)
(0.429767 0.375094 0)
(0.354536 0.405513 0)
(0.267871 0.443534 0)
(0.165828 0.479083 0)
(0.0560582 0.517997 0)
(3 -1.62941e-16 0)
(3 -2.76751e-16 0)
(3 -1.99394e-17 0)
(3 3.33823e-16 0)
(3 4.14127e-16 0)
(3 9.44424e-17 0)
(3 -6.04751e-16 0)
(3 -1.11993e-15 0)
(3 -1.46401e-15 0)
(3 -1.69e-15 0)
(3 -1.47842e-15 0)
(3 -8.39725e-08 0)
(1.6842 0.32606 0)
(0.796995 0.31083 0)
(0.696255 0.309172 0)
(0.645078 0.325077 0)
(0.596826 0.343022 0)
(0.55346 0.369082 0)
(0.507401 0.401659 0)
(0.458428 0.44454 0)
(0.397232 0.491776 0)
(0.325966 0.543684 0)
(0.23303 0.595091 0)
(0.101219 0.66074 0)
(3 7.73636e-17 0)
(3 -6.59034e-18 0)
(3 -4.87253e-16 0)
(3 -5.78643e-16 0)
(3 -2.91602e-16 0)
(3 -3.47312e-16 0)
(3 -2.99556e-16 0)
(3 -4.70356e-16 0)
(3 -7.54346e-16 0)
(3 -9.14335e-16 0)
(3 -1.4112e-15 0)
(3 -1.73325e-08 0)
(2.0909 0.366054 0)
(0.854847 0.396066 0)
(0.717907 0.370585 0)
(0.667656 0.379381 0)
(0.620024 0.392172 0)
(0.578789 0.416109 0)
(0.539574 0.451558 0)
(0.501161 0.500723 0)
(0.456904 0.560337 0)
(0.394707 0.641567 0)
(0.274659 0.7579 0)
(0.151098 0.924298 0)
(3 1.89263e-17 0)
(3 1.33318e-16 0)
(3 4.92774e-17 0)
(3 -3.7671e-16 0)
(3 -9.09379e-16 0)
(3 -7.72968e-16 0)
(3 -4.90047e-16 0)
(3 -3.86052e-16 0)
(3 -7.73334e-16 0)
(3 -8.44099e-16 0)
(3 4.96977e-17 0)
(3 -1.77226e-09 0)
(2.67629 0.295059 0)
(0.990209 0.47812 0)
(0.805122 0.407165 0)
(0.752821 0.415828 0)
(0.694361 0.433996 0)
(0.642294 0.459367 0)
(0.599146 0.496097 0)
(0.56282 0.549341 0)
(0.529059 0.62638 0)
(0.496108 0.750777 0)
(0.464555 0.922955 0)
(0.577087 1.20199 0)
(3 1.20242e-17 0)
(3 1.61898e-16 0)
(3 5.90068e-16 0)
(3 6.10224e-16 0)
(3 3.51881e-16 0)
(3 -1.25259e-16 0)
(3 -4.37117e-16 0)
(3 -5.67961e-16 0)
(3 -5.39464e-16 0)
(3 -2.38999e-16 0)
(3 1.24326e-16 0)
(3 -6.97731e-11 0)
(3.07513 0.0394768 0)
(1.2249 0.469634 0)
(0.882162 0.448331 0)
(0.838638 0.475991 0)
(0.785 0.491162 0)
(0.730422 0.511774 0)
(0.681844 0.54468 0)
(0.642746 0.59661 0)
(0.623353 0.681333 0)
(0.62246 0.816628 0)
(0.685621 0.966303 0)
(0.96966 1.13752 0)
(3 1.10373e-16 0)
(3 2.77686e-16 0)
(3 5.55259e-16 0)
(3 4.6324e-16 0)
(3 3.97651e-16 0)
(3 6.34166e-17 0)
(3 -1.84668e-16 0)
(3 -5.98551e-18 0)
(3 -1.32258e-16 0)
(3 -2.66216e-16 0)
(3 -1.69593e-16 0)
(3 -1.41434e-12 0)
(3.00783 6.51683e-05 0)
(1.44599 0.462537 0)
(0.882871 0.512977 0)
(0.835732 0.532598 0)
(0.800784 0.551982 0)
(0.772696 0.576087 0)
(0.744978 0.607499 0)
(0.720019 0.650933 0)
(0.722386 0.724559 0)
(0.750018 0.839065 0)
(0.871953 0.963065 0)
(1.18131 1.06688 0)
(3 -2.28919e-16 0)
(3 -3.58897e-16 0)
(3 -6.40827e-16 0)
(3 -8.48911e-16 0)
(3 -8.33958e-16 0)
(3 -4.52907e-16 0)
(3 -3.81895e-16 0)
(3 -1.40756e-16 0)
(3 -1.43367e-16 0)
(3 -2.75674e-17 0)
(3 4.92461e-16 0)
(3 -1.21136e-14 0)
(3.00005 -2.16403e-06 0)
(1.96217 0.493878 0)
(0.93031 0.578374 0)
(0.853357 0.560667 0)
(0.834612 0.582701 0)
(0.820671 0.608518 0)
(0.810486 0.642914 0)
(0.802252 0.682778 0)
(0.817263 0.745965 0)
(0.866413 0.837076 0)
(1.00983 0.93969 0)
(1.27744 1.00475 0)
(3 -4.65423e-17 0)
(3 -3.20725e-16 0)
(3 -6.11307e-16 0)
(3 -7.61277e-16 0)
(3 -4.04103e-16 0)
(3 7.40579e-17 0)
(3 2.38652e-16 0)
(3 9.10655e-17 0)
(3 5.82585e-16 0)
(3 5.26277e-16 0)
(3 3.55454e-16 0)
(3 4.79811e-16 0)
(3.00001 -2.71396e-06 0)
(2.76875 0.309914 0)
(1.10185 0.634625 0)
(0.922696 0.579235 0)
(0.893984 0.601269 0)
(0.876567 0.630955 0)
(0.872462 0.669378 0)
(0.87815 0.710998 0)
(0.902127 0.765171 0)
(0.966362 0.834084 0)
(1.10484 0.906123 0)
(1.32023 0.94661 0)
(3 1.0214e-16 0)
(3 -8.64132e-17 0)
(3 -4.47724e-16 0)
(3 -4.086e-16 0)
(3 -2.83533e-16 0)
(3 4.58972e-16 0)
(3 6.46542e-16 0)
(3 6.86118e-16 0)
(3 1.47045e-15 0)
(3 1.62624e-15 0)
(3 1.2284e-15 0)
(3 1.22458e-15 0)
(3 -5.70941e-07 0)
(3.07272 0.0237585 0)
(1.43974 0.629383 0)
(1.00021 0.653765 0)
(0.949462 0.653177 0)
(0.925003 0.668501 0)
(0.924302 0.69612 0)
(0.941069 0.732029 0)
(0.975997 0.774988 0)
(1.04887 0.828201 0)
(1.17481 0.879171 0)
(1.34821 0.906051 0)
(3 -1.63112e-16 0)
(3 -1.25026e-16 0)
(3 -3.10812e-16 0)
(3 -2.4942e-16 0)
(3 1.42241e-16 0)
(3 9.12774e-18 0)
(3 2.9007e-16 0)
(3 5.35788e-16 0)
(3 1.26836e-15 0)
(3 2.09905e-15 0)
(3 2.18233e-15 0)
(3 1.65893e-15 0)
(3 -5.77258e-08 0)
(3.00372 6.23691e-05 0)
(2.00546 0.598718 0)
(1.06306 0.724943 0)
(1.00976 0.701072 0)
(0.994454 0.697881 0)
(0.991634 0.714876 0)
(1.00741 0.742138 0)
(1.0461 0.778434 0)
(1.11681 0.817259 0)
(1.22366 0.85054 0)
(1.36183 0.866295 0)
(3 -1.75981e-16 0)
(3 -3.79352e-16 0)
(3 1.45665e-16 0)
(3 4.57099e-16 0)
(3 2.17632e-17 0)
(3 4.34676e-17 0)
(3 2.9714e-16 0)
(3 1.46604e-16 0)
(3 2.01991e-17 0)
(3 -1.6588e-16 0)
(3 1.14654e-16 0)
(3 4.36468e-17 0)
(3 -1.81502e-09 0)
(3.00001 -2.95112e-07 0)
(2.94819 0.212597 0)
(1.28713 0.696357 0)
(1.08243 0.717984 0)
(1.08675 0.720074 0)
(1.08178 0.740562 0)
(1.08765 0.762948 0)
(1.11622 0.789461 0)
(1.17731 0.818697 0)
(1.26618 0.84035 0)
(1.37954 0.849463 0)
(3 2.09457e-17 0)
(3 1.44986e-16 0)
(3 2.858e-16 0)
(3 4.43712e-16 0)
(3 5.90822e-16 0)
(3 3.68202e-16 0)
(3 3.12117e-16 0)
(3 1.93398e-17 0)
(3 -9.68443e-16 0)
(3 -1.64649e-15 0)
(3 -1.6553e-15 0)
(3 -1.06698e-15 0)
(3 -3.9755e-12 0)
(3 -6.5356e-07 0)
(3.03935 0.00568012 0)
(1.57878 0.658674 0)
(1.09963 0.756973 0)
(1.10974 0.765089 0)
(1.11626 0.782944 0)
(1.13972 0.79554 0)
(1.17453 0.807024 0)
(1.22892 0.81889 0)
(1.30476 0.829479 0)
(1.39934 0.833279 0)
(3 1.52999e-16 0)
(3 4.46592e-16 0)
(3 2.04086e-16 0)
(3 1.53146e-16 0)
(3 5.00717e-16 0)
(3 -9.95825e-17 0)
(3 -2.22475e-16 0)
(3 -3.02625e-16 0)
(3 -8.49197e-16 0)
(3 -8.8101e-16 0)
(3 -6.5122e-16 0)
(3 1.98539e-17 0)
(3 -4.97572e-15 0)
(3 -1.24591e-07 0)
(3.00072 3.05303e-05 0)
(2.40519 0.50413 0)
(1.20813 0.788298 0)
(1.13433 0.791212 0)
(1.14803 0.794829 0)
(1.17665 0.804896 0)
(1.21707 0.817043 0)
(1.26975 0.828241 0)
(1.33982 0.835096 0)
(1.41958 0.835359 0)
(3 3.9408e-17 0)
(3 -2.27254e-16 0)
(3 -3.39826e-16 0)
(3 -7.66395e-17 0)
(3 -3.81208e-16 0)
(3 -7.48006e-16 0)
(3 -4.47836e-16 0)
(3 1.79096e-16 0)
(3 2.81462e-16 0)
(3 5.27461e-16 0)
(3 8.6505e-16 0)
(3 1.03035e-15 0)
(3 -8.44883e-18 0)
(3 -3.92914e-09 0)
(3.00002 -6.85611e-06 0)
(3.05902 0.0690179 0)
(1.57059 0.775367 0)
(1.1841 0.786254 0)
(1.19809 0.794444 0)
(1.22081 0.806786 0)
(1.25844 0.81831 0)
(1.30801 0.827924 0)
(1.37166 0.83268 0)
(1.44227 0.831285 0)
(3 -1.31971e-16 0)
(3 -1.27372e-16 0)
(3 -2.84156e-16 0)
(3 -2.2948e-16 0)
(3 -3.33762e-16 0)
(3 -2.26875e-16 0)
(3 1.14689e-17 0)
(3 2.86932e-16 0)
(3 1.08176e-15 0)
(3 1.32623e-15 0)
(3 8.28704e-16 0)
(3 -2.5576e-17 0)
(3 -7.47512e-16 0)
(3 -1.41511e-11 0)
(3 -1.72693e-06 0)
(3.00774 0.00131149 0)
(2.30897 0.626096 0)
(1.26587 0.849523 0)
(1.22318 0.83435 0)
(1.25582 0.83373 0)
(1.28938 0.838385 0)
(1.33655 0.843044 0)
(1.39438 0.844425 0)
(1.4579 0.841451 0)
(3 1.0779e-16 0)
(3 3.67242e-16 0)
(3 3.35704e-16 0)
(3 -1.02405e-16 0)
(3 1.80826e-16 0)
(3 6.32312e-16 0)
(3 2.05615e-16 0)
(3 3.72929e-16 0)
(3 6.52309e-16 0)
(3 5.54181e-16 0)
(3 1.80845e-16 0)
(3 -2.37494e-16 0)
(3 -4.51294e-16 0)
(3 -6.38708e-15 0)
(3 -1.47191e-07 0)
(3.00003 8.50688e-06 0)
(3.04189 0.113083 0)
(1.63394 0.827124 0)
(1.26921 0.831946 0)
(1.30424 0.833753 0)
(1.32959 0.839104 0)
(1.37192 0.841526 0)
(1.42243 0.841886 0)
(1.47844 0.83841 0)
(3 1.51844e-17 0)
(3 1.03411e-16 0)
(3 5.58447e-16 0)
(3 4.44441e-16 0)
(3 5.39045e-16 0)
(3 6.44744e-16 0)
(3 1.88e-16 0)
(3 2.80204e-17 0)
(3 -3.00997e-16 0)
(3 -4.36087e-16 0)
(3 -2.03014e-16 0)
(3 -2.33049e-16 0)
(3 1.92792e-16 0)
(3 3.06052e-16 0)
(3 -1.79954e-09 0)
(3 -1.31421e-07 0)
(3.01008 0.00333476 0)
(2.39246 0.630281 0)
(1.35978 0.887744 0)
(1.32668 0.876213 0)
(1.35924 0.868404 0)
(1.39462 0.865666 0)
(1.43747 0.862152 0)
(1.48832 0.853807 0)
(3 9.41271e-17 0)
(3 7.67348e-17 0)
(3 5.88931e-17 0)
(3 9.92143e-17 0)
(3 1.83437e-16 0)
(3 1.06797e-15 0)
(3 1.43251e-15 0)
(3 6.62059e-16 0)
(3 3.56638e-17 0)
(3 -1.78511e-16 0)
(3 -1.37053e-16 0)
(3 2.16443e-16 0)
(3 7.2961e-16 0)
(3 1.0044e-15 0)
(3 -4.06766e-12 0)
(3 -3.25208e-08 0)
(3.00004 3.9027e-05 0)
(3.03549 0.09949 0)
(1.76996 0.833565 0)
(1.36391 0.882471 0)
(1.40379 0.875421 0)
(1.43038 0.869488 0)
(1.46541 0.860872 0)
(1.51022 0.8495 0)
(3 3.82208e-16 0)
(3 7.6781e-17 0)
(3 -2.23435e-16 0)
(3 3.6329e-16 0)
(3 1.94633e-16 0)
(3 1.64297e-16 0)
(3 5.32261e-16 0)
(3 1.0666e-16 0)
(3 5.52648e-17 0)
(3 3.54636e-16 0)
(3 3.6493e-16 0)
(3 5.64184e-16 0)
(3 5.60475e-16 0)
(3 1.17153e-15 0)
(3 1.34255e-16 0)
(3 -3.03165e-09 0)
(3 2.0903e-08 0)
(3.00575 0.00406082 0)
(2.62762 0.518267 0)
(1.51519 0.933959 0)
(1.42459 0.904537 0)
(1.45605 0.894052 0)
(1.48741 0.881682 0)
(1.52407 0.870133 0)
(3 -9.04987e-18 0)
(3 5.0248e-17 0)
(3 -3.11967e-17 0)
(3 8.21642e-17 0)
(3 1.51403e-16 0)
(3 -5.57298e-16 0)
(3 -7.55089e-16 0)
(3 -6.55902e-16 0)
(3 -5.99174e-16 0)
(3 -4.298e-16 0)
(3 -2.54426e-16 0)
(3 -3.95933e-16 0)
(3 -2.83149e-16 0)
(3 8.82554e-16 0)
(3 1.3127e-15 0)
(3 -1.18956e-10 0)
(3 -1.16884e-10 0)
(3.00002 4.08614e-05 0)
(3.03399 0.0502994 0)
(2.0332 0.795015 0)
(1.47966 0.91585 0)
(1.4967 0.90509 0)
(1.52337 0.890593 0)
(1.55053 0.88084 0)
(3 -2.49743e-16 0)
(3 6.89134e-17 0)
(3 3.43611e-16 0)
(3 1.38984e-16 0)
(3 4.85323e-16 0)
(3 6.99379e-16 0)
(3 3.19297e-16 0)
(3 3.70567e-16 0)
(3 1.373e-16 0)
(3 -2.02596e-16 0)
(3 -4.64193e-16 0)
(3 -3.62162e-16 0)
(3 3.28838e-17 0)
(3 2.2105e-16 0)
(3 9.39092e-16 0)
(3 -1.0265e-12 0)
(3 -3.6858e-11 0)
(3 2.99119e-08 0)
(3.0015 0.00219109 0)
(2.84853 0.303537 0)
(1.74828 0.9008 0)
(1.51371 0.92864 0)
(1.54887 0.918525 0)
(1.58115 0.90238 0)
(3 -5.43186e-17 0)
(3 -1.26719e-16 0)
(3 -2.78249e-17 0)
(3 1.43633e-16 0)
(3 5.95075e-16 0)
(3 1.0102e-15 0)
(3 1.33168e-15 0)
(3 1.13708e-15 0)
(3 8.64408e-16 0)
(3 -2.76884e-16 0)
(3 -1.30646e-15 0)
(3 -5.74975e-16 0)
(3 1.27937e-16 0)
(3 1.99758e-16 0)
(3 5.03467e-16 0)
(3 -2.17064e-15 0)
(3 -4.82752e-12 0)
(3 9.6541e-13 0)
(3 1.09819e-05 0)
(3.00936 0.0202674 0)
(2.43049 0.634326 0)
(1.61374 0.951841 0)
(1.56476 0.941915 0)
(1.59725 0.925485 0)
(3 1.00958e-16 0)
(3 1.74479e-16 0)
(3 6.8562e-17 0)
(3 -1.51141e-16 0)
(3 -4.14727e-16 0)
(3 -3.32321e-16 0)
(3 3.40309e-16 0)
(3 2.27846e-16 0)
(3 1.62497e-16 0)
(3 -4.51489e-16 0)
(3 -1.04145e-15 0)
(3 -3.8455e-16 0)
(3 9.20694e-17 0)
(3 7.29402e-16 0)
(3 5.14257e-17 0)
(3 -1.28615e-16 0)
(3 -2.69019e-13 0)
(3 -3.13009e-13 0)
(3 5.84336e-09 0)
(3.00006 0.000572089 0)
(2.98995 0.107565 0)
(2.05456 0.807545 0)
(1.62366 0.943822 0)
(1.62472 0.94047 0)
(3 -8.43309e-17 0)
(3 7.9699e-17 0)
(3 2.91606e-16 0)
(3 -2.3118e-16 0)
(3 -6.73434e-16 0)
(3 -6.24877e-16 0)
(3 -6.76645e-16 0)
(3 -5.21837e-16 0)
(3 -3.92367e-16 0)
(3 -8.89088e-17 0)
(3 -3.36662e-16 0)
(3 2.97931e-16 0)
(3 2.37619e-16 0)
(3 -1.05121e-16 0)
(3 -1.15666e-15 0)
(3 -1.05092e-15 0)
(3 -4.39776e-15 0)
(3 -1.04061e-13 0)
(3 1.6183e-12 0)
(3 1.28515e-06 0)
(3.00137 0.0057736 0)
(2.78653 0.32829 0)
(1.8803 0.887498 0)
(1.65743 0.9659 0)
(3 6.74519e-17 0)
(3 -6.79007e-17 0)
(3 -3.92032e-16 0)
(3 -5.76615e-16 0)
(3 -1.72021e-16 0)
(3 -7.52652e-17 0)
(3 -2.93291e-16 0)
(3 -2.09523e-16 0)
(3 -9.79436e-17 0)
(3 1.87207e-18 0)
(3 2.94635e-16 0)
(3 1.033e-16 0)
(3 2.61436e-17 0)
(3 -1.67581e-15 0)
(3 -3.05675e-15 0)
(3 -3.49364e-15 0)
(3 -3.33965e-15 0)
(3 -1.85877e-14 0)
(3 -1.79409e-14 0)
(3 7.8409e-10 0)
(2.99999 4.8205e-05 0)
(2.99663 0.0286013 0)
(2.57555 0.566582 0)
(1.79114 1.04577 0)
(3 2.2579e-16 0)
(3 -3.07636e-16 0)
(3 -3.46594e-16 0)
(3 1.91356e-16 0)
(3 4.72684e-16 0)
(3 1.42015e-16 0)
(3 -6.17684e-16 0)
(3 -7.44782e-16 0)
(3 -4.89543e-16 0)
(3 2.31945e-16 0)
(3 6.59756e-16 0)
(3 9.82247e-17 0)
(3 -6.21488e-16 0)
(3 -1.07626e-15 0)
(3 -2.98155e-15 0)
(3 -4.77113e-15 0)
(3 -3.60523e-15 0)
(3 -3.65339e-15 0)
(3 -8.39666e-15 0)
(3 1.64244e-13 0)
(3 4.39692e-08 0)
(2.99985 0.000862572 0)
(3.01483 0.0775095 0)
(2.25409 0.815442 0)
(3 -2.7253e-17 0)
(3 -2.08014e-16 0)
(3 1.44136e-16 0)
(3 4.60206e-16 0)
(3 3.23302e-16 0)
(3 -7.10479e-16 0)
(3 -1.15441e-15 0)
(3 -1.61616e-15 0)
(3 -1.24758e-15 0)
(3 -7.10175e-16 0)
(3 -5.71628e-16 0)
(3 -8.51441e-16 0)
(3 -1.7413e-15 0)
(3 -1.66439e-15 0)
(3 -9.40209e-16 0)
(3 -1.14622e-15 0)
(3 -1.76821e-15 0)
(3 -2.56142e-15 0)
(3 -3.51331e-15 0)
(3 -2.72083e-15 0)
(3 3.12833e-11 0)
(3 1.1773e-06 0)
(3.00056 0.00729748 0)
(2.34041 0.0711877 0)
(3 -1.46672e-16 0)
(3 3.16338e-16 0)
(3 2.51953e-16 0)
(3 -3.43065e-16 0)
(3 -8.23316e-16 0)
(3 -1.02654e-15 0)
(3 -3.00865e-16 0)
(3 -2.27524e-16 0)
(3 -2.86325e-16 0)
(3 -5.45969e-16 0)
(3 -1.0766e-15 0)
(3 -1.27719e-15 0)
(3 -1.82136e-15 0)
(3 -1.62992e-15 0)
(3 -4.96223e-16 0)
(3 7.96925e-16 0)
(3 5.006e-16 0)
(3 -5.5932e-16 0)
(3 -1.0924e-15 0)
(3 -1.36648e-15 0)
(3 3.51657e-15 0)
(3 1.01109e-09 0)
(3 9.08003e-05 0)
(1.9052 -0.0389811 0)
(3 3.69633e-17 0)
(3 2.19567e-16 0)
(3 4.3949e-17 0)
(3 -3.35315e-16 0)
(3 -7.73036e-17 0)
(3 1.04848e-16 0)
(3 6.70041e-16 0)
(3 1.30315e-15 0)
(3 6.82215e-16 0)
(3 -1.21486e-16 0)
(3 -4.0376e-16 0)
(3 -5.00035e-16 0)
(3 -1.3506e-16 0)
(3 -6.07865e-16 0)
(3 -5.94699e-16 0)
(3 -1.41249e-16 0)
(3 3.25653e-16 0)
(3 3.82489e-16 0)
(3 -2.53917e-16 0)
(3 -9.41634e-16 0)
(3 -1.45621e-15 0)
(3 1.30078e-13 0)
(3 2.77052e-07 0)
(1.78 0.037646 0)
(3 5.34572e-17 0)
(3 3.90887e-17 0)
(3 -1.06506e-16 0)
(3 2.83725e-17 0)
(3 2.8956e-16 0)
(3 5.78131e-16 0)
(3 9.90671e-16 0)
(3 9.51631e-16 0)
(3 1.06077e-15 0)
(3 1.05508e-15 0)
(3 9.41438e-16 0)
(3 5.88912e-16 0)
(3 9.77391e-16 0)
(3 4.16917e-16 0)
(3 1.35052e-16 0)
(3 4.56162e-16 0)
(3 3.51312e-16 0)
(3 3.80359e-16 0)
(3 2.42333e-16 0)
(3 -3.61638e-16 0)
(3 -1.61476e-15 0)
(3 -1.77965e-15 0)
(3 2.34857e-10 0)
(1.84361 0.0933595 0)
(3 -9.33449e-17 0)
(3 -1.19037e-16 0)
(3 1.38014e-16 0)
(3 4.49088e-16 0)
(3 3.76544e-16 0)
(3 4.07928e-16 0)
(3 5.02241e-16 0)
(3 5.36158e-16 0)
(3 6.73561e-16 0)
(3 1.51632e-15 0)
(3 1.54843e-15 0)
(3 4.85462e-16 0)
(3 4.53146e-16 0)
(3 1.2934e-15 0)
(3 1.19927e-15 0)
(3 2.10954e-15 0)
(3 1.74026e-15 0)
(3 1.06304e-15 0)
(3 1.3177e-15 0)
(3 1.39375e-15 0)
(3 7.541e-16 0)
(3 -3.1076e-16 0)
(3 6.89486e-14 0)
(1.97524 0.112222 0)
(3 -3.72157e-16 0)
(3 -4.0005e-16 0)
(3 -3.74513e-17 0)
(3 1.51661e-17 0)
(3 -3.12327e-17 0)
(3 -2.64243e-16 0)
(3 -5.59898e-16 0)
(3 -2.47025e-16 0)
(3 5.14848e-17 0)
(3 2.49786e-16 0)
(3 3.10605e-16 0)
(3 2.99724e-16 0)
(3 4.44784e-16 0)
(3 1.2261e-15 0)
(3 1.11479e-15 0)
(3 9.23532e-16 0)
(3 1.25619e-15 0)
(3 1.14253e-15 0)
(3 1.29768e-15 0)
(3 1.89614e-15 0)
(3 2.14962e-15 0)
(3 1.41142e-15 0)
(3 1.12562e-15 0)
(2.11224 0.0946816 0)
(3 -2.02771e-17 0)
(3 -3.35106e-16 0)
(3 -5.08859e-16 0)
(3 -4.35311e-16 0)
(3 -1.96266e-17 0)
(3 -5.31719e-17 0)
(3 -5.18405e-16 0)
(3 -4.42934e-16 0)
(3 -1.60475e-16 0)
(3 6.21157e-17 0)
(3 3.70712e-16 0)
(3 9.1931e-16 0)
(3 8.821e-16 0)
(3 7.73551e-16 0)
(3 9.74312e-16 0)
(3 7.05249e-16 0)
(3 8.18034e-16 0)
(3 1.15506e-15 0)
(3 9.83443e-16 0)
(3 7.97663e-16 0)
(3 7.63378e-16 0)
(3 1.30604e-15 0)
(3 5.692e-16 0)
(2.21336 0.0605994 0)
(3 1.01173e-16 0)
(3 7.76469e-17 0)
(3 -6.27505e-17 0)
(3 2.12655e-17 0)
(3 1.98363e-16 0)
(3 3.58932e-16 0)
(3 3.23269e-16 0)
(3 -5.38548e-16 0)
(3 -6.96788e-16 0)
(3 -8.56724e-17 0)
(3 5.08162e-16 0)
(3 9.44055e-16 0)
(3 1.16709e-15 0)
(3 1.21046e-15 0)
(3 1.75224e-15 0)
(3 1.91181e-15 0)
(3 1.58937e-15 0)
(3 1.33226e-15 0)
(3 1.1323e-15 0)
(3 6.01418e-16 0)
(3 7.45959e-17 0)
(3 9.94111e-16 0)
(3 1.44983e-16 0)
(2.26021 0.0269582 0)
(3 -3.60651e-17 0)
(3 1.68382e-16 0)
(3 1.41423e-16 0)
(3 1.19852e-16 0)
(3 5.75154e-17 0)
(3 -7.4554e-17 0)
(3 -1.57493e-16 0)
(3 -5.42864e-16 0)
(3 -4.95005e-16 0)
(3 -2.27768e-16 0)
(3 4.62377e-16 0)
(3 8.48385e-16 0)
(3 9.05083e-16 0)
(3 1.04672e-15 0)
(3 1.07655e-15 0)
(3 1.12968e-15 0)
(3 1.3273e-15 0)
(3 9.97487e-16 0)
(3 7.38833e-16 0)
(3 4.4368e-16 0)
(3 3.17975e-16 0)
(3 3.09323e-16 0)
(3 2.68184e-16 0)
(2.26509 0.00568082 0)
(1.52179 1.26427 0)
(1.97816 1.34573 0)
(2.13294 1.49448 0)
(2.37048 0.675352 0)
(2.60299 0.26669 0)
(2.64611 0.0497429 0)
(2.52043 -0.182353 0)
(2.44207 -0.284343 0)
(2.42746 -0.283524 0)
(2.46788 -0.367435 0)
(2.50099 -0.313216 0)
(2.47906 -0.255979 0)
(2.45317 -0.212108 0)
(2.39904 -0.104143 0)
(2.3476 -0.0680993 0)
(2.30136 -0.0641877 0)
(2.33451 -0.0464247 0)
(2.3888 -0.0373451 0)
(2.41281 -0.0409726 0)
(2.41473 -0.0398132 0)
(2.39789 -0.0219325 0)
(2.36737 -0.00264071 0)
(2.36501 -0.0123111 0)
(1.69992 0.0282698 0)
(0.851527 0.0444747 0)
(0.70141 0.0384268 0)
(0.666607 0.0116972 0)
(0.664404 -0.00677514 0)
(0.684267 -0.0195851 0)
(0.713949 -0.0276387 0)
(0.746355 -0.0308592 0)
(0.780743 -0.0312493 0)
(0.82028 -0.0310937 0)
(0.86442 -0.0309042 0)
(0.907849 -0.0301115 0)
(0.944525 -0.0278226 0)
(0.970262 -0.0235186 0)
(0.991688 -0.0191287 0)
(1.01593 -0.0165222 0)
(1.04813 -0.0163848 0)
(1.08777 -0.0187121 0)
(1.12611 -0.0223425 0)
(1.15486 -0.0232966 0)
(1.17406 -0.0219654 0)
(1.19235 -0.0175544 0)
(1.21258 -0.0139976 0)
(1.23828 -0.0122082 0)
(1.27377 -0.0117396 0)
(1.31181 -0.012701 0)
(1.33965 -0.0130634 0)
(1.35825 -0.0113594 0)
(1.3742 -0.00642612 0)
(1.39064 -0.00309109 0)
(1.40989 -0.00215362 0)
(1.43565 -0.00351779 0)
(1.46157 -0.00648903 0)
(1.48228 -0.00801981 0)
(1.50147 -0.00747926 0)
(1.51984 -0.0043223 0)
(1.53838 -0.00157078 0)
(1.55853 -0.000546956 0)
(1.58065 -0.00144402 0)
(1.60026 -0.00258624 0)
(1.61894 -0.00300194 0)
(1.63677 -0.0026346 0)
(1.65376 -0.000933285 0)
(1.67177 0.00100906 0)
(1.69031 0.00282498 0)
(1.70766 0.00403644 0)
(1.72425 0.00449305 0)
(1.73987 0.00490655 0)
(1.75367 0.00552636 0)
(1.76482 0.00646728 0)
(1.77499 0.00740918 0)
(1.78792 0.00786534 0)
(1.80274 0.00800256 0)
(1.81987 0.00748373 0)
(1.83963 0.00407531 0)
(1.85717 0.000586938 0)
(1.87434 -0.000332506 0)
(1.88586 0.000243927 0)
(1.89234 0.00265162 0)
(1.90293 0.00515603 0)
(1.91827 0.00596478 0)
(1.93563 0.00602575 0)
(1.9536 0.00615304 0)
(1.97127 0.00637662 0)
(1.98699 0.00683652 0)
(1.99682 0.00777389 0)
(2.00013 0.00916723 0)
(2.00662 0.0100979 0)
(2.0198 0.0103781 0)
(2.033 0.0103328 0)
(2.04904 0.0092698 0)
(2.06213 0.00787748 0)
(2.0809 0.00759816 0)
(1.77487 1.07326 0)
(2.29339 0.809711 0)
(2.46234 0.543031 0)
(2.67758 0.0344999 0)
(2.74438 -0.262024 0)
(2.70624 -0.461427 0)
(2.67623 -0.616684 0)
(2.68639 -0.609229 0)
(2.67422 -0.529688 0)
(2.65364 -0.450176 0)
(2.6215 -0.400612 0)
(2.57854 -0.352275 0)
(2.49824 -0.287413 0)
(2.44145 -0.189646 0)
(2.42495 -0.0965156 0)
(2.41753 -0.0516974 0)
(2.42916 0.000848499 0)
(2.44593 0.0151301 0)
(2.44764 -0.013287 0)
(2.43614 -0.0212061 0)
(2.4233 -0.0234899 0)
(2.4021 -0.0165437 0)
(2.40585 -0.0158753 0)
(1.85955 0.153795 0)
(0.8812 0.162616 0)
(0.765688 0.0688766 0)
(0.755265 -0.00481872 0)
(0.769531 -0.0384492 0)
(0.796786 -0.0521228 0)
(0.827716 -0.0590054 0)
(0.860079 -0.0574192 0)
(0.890003 -0.0471452 0)
(0.918766 -0.0356335 0)
(0.950124 -0.031118 0)
(0.985254 -0.0357726 0)
(1.02091 -0.042321 0)
(1.05201 -0.0408078 0)
(1.07391 -0.0292985 0)
(1.09305 -0.0133789 0)
(1.11398 -0.00355593 0)
(1.13883 -0.00650158 0)
(1.17146 -0.0203228 0)
(1.20663 -0.0362207 0)
(1.23439 -0.040096 0)
(1.25301 -0.034294 0)
(1.2693 -0.0181399 0)
(1.28734 -0.00362406 0)
(1.30716 -0.00044263 0)
(1.33505 -0.00935676 0)
(1.36833 -0.0220365 0)
(1.39473 -0.0244092 0)
(1.41329 -0.018775 0)
(1.42937 -0.00636387 0)
(1.44405 0.00545128 0)
(1.45945 0.00842943 0)
(1.47663 0.00171571 0)
(1.4998 -0.010767 0)
(1.52461 -0.0164377 0)
(1.54675 -0.0133122 0)
(1.56661 -0.00470128 0)
(1.58416 0.00479529 0)
(1.5991 0.0088733 0)
(1.61444 0.00654161 0)
(1.632 9.02274e-05 0)
(1.651 -0.00460235 0)
(1.66922 -0.00502262 0)
(1.68819 -0.00225828 0)
(1.70688 0.00266532 0)
(1.7238 0.00648227 0)
(1.73893 0.00910852 0)
(1.75278 0.0098027 0)
(1.7663 0.00988589 0)
(1.77949 0.0122172 0)
(1.79132 0.0182409 0)
(1.80118 0.0254547 0)
(1.81185 0.0288546 0)
(1.82627 0.0280911 0)
(1.84358 0.0227802 0)
(1.86291 0.0131099 0)
(1.87935 0.00184819 0)
(1.89386 -0.00529511 0)
(1.90721 -0.00432497 0)
(1.92007 0.00249216 0)
(1.93284 0.00983997 0)
(1.94646 0.0136613 0)
(1.96237 0.01314 0)
(1.97881 0.0108902 0)
(1.99409 0.00818814 0)
(2.00657 0.00766858 0)
(2.01479 0.0137824 0)
(2.01963 0.0249278 0)
(2.02606 0.0323479 0)
(2.03831 0.0336511 0)
(2.05253 0.0320428 0)
(2.06657 0.0251162 0)
(2.08808 0.0195844 0)
(1.67931 1.03184 0)
(2.02628 0.916562 0)
(2.32347 0.649276 0)
(2.56292 0.270843 0)
(2.61516 0.154021 0)
(2.66406 0.0076993 0)
(2.71618 -0.171397 0)
(2.72777 -0.193569 0)
(2.73856 -0.324152 0)
(2.73648 -0.363551 0)
(2.7461 -0.418727 0)
(2.73189 -0.507456 0)
(2.68251 -0.47569 0)
(2.64014 -0.372538 0)
(2.63471 -0.275598 0)
(2.65262 -0.23273 0)
(2.64206 -0.163247 0)
(2.59407 -0.0760692 0)
(2.53467 -0.0823537 0)
(2.49447 -0.0759794 0)
(2.47066 -0.0387385 0)
(2.47398 0.00438518 0)
(2.4846 -0.000598454 0)
(2.31159 0.125129 0)
(1.12653 0.181719 0)
(0.950734 0.0546478 0)
(0.994879 -0.014684 0)
(1.02115 -0.0333227 0)
(1.0407 -0.0450478 0)
(1.06305 -0.0649122 0)
(1.0907 -0.0817467 0)
(1.11726 -0.0870598 0)
(1.13816 -0.0789609 0)
(1.15321 -0.0654435 0)
(1.16799 -0.0564982 0)
(1.18608 -0.0585429 0)
(1.21033 -0.0671672 0)
(1.23691 -0.0716467 0)
(1.25686 -0.0660672 0)
(1.27139 -0.0530177 0)
(1.28519 -0.0374576 0)
(1.3016 -0.0312126 0)
(1.32095 -0.0365415 0)
(1.34565 -0.0492709 0)
(1.36777 -0.0558926 0)
(1.3837 -0.0543285 0)
(1.39797 -0.0433486 0)
(1.40939 -0.025131 0)
(1.42581 -0.0128261 0)
(1.44469 -0.0122101 0)
(1.46862 -0.020117 0)
(1.49257 -0.0260163 0)
(1.51004 -0.0260291 0)
(1.5251 -0.0216796 0)
(1.53557 -0.0123889 0)
(1.54541 -0.00490719 0)
(1.56159 -0.00400763 0)
(1.58059 -0.00845866 0)
(1.60511 -0.0144376 0)
(1.62571 -0.016179 0)
(1.64268 -0.0152373 0)
(1.65788 -0.0097941 0)
(1.66823 -0.00178076 0)
(1.67869 0.00232937 0)
(1.69456 0.00198878 0)
(1.71181 0.000667175 0)
(1.73054 0.000164911 0)
(1.74828 0.000777887 0)
(1.76479 0.0026596 0)
(1.77813 0.00667627 0)
(1.78744 0.0104952 0)
(1.79769 0.0118251 0)
(1.81182 0.0125002 0)
(1.82654 0.0148396 0)
(1.84052 0.0212085 0)
(1.85172 0.0308328 0)
(1.85907 0.0385324 0)
(1.86807 0.0385777 0)
(1.88115 0.0324863 0)
(1.89649 0.0242058 0)
(1.91518 0.0148564 0)
(1.93286 0.0080449 0)
(1.9494 0.00703919 0)
(1.9649 0.0114801 0)
(1.97623 0.0216124 0)
(1.98343 0.0311165 0)
(1.99205 0.033526 0)
(2.00547 0.0305774 0)
(2.02041 0.0273056 0)
(2.03489 0.0268836 0)
(2.04689 0.0319607 0)
(2.05402 0.0426819 0)
(2.05946 0.0502045 0)
(2.06882 0.0497818 0)
(2.08132 0.0440302 0)
(2.10042 0.037482 0)
(1.60038 0.991274 0)
(1.89792 0.882769 0)
(2.1549 0.688835 0)
(2.30235 0.552734 0)
(2.44214 0.381444 0)
(2.57921 0.14761 0)
(2.64558 -0.0455624 0)
(2.68349 -0.14087 0)
(2.70698 -0.225233 0)
(2.72438 -0.354244 0)
(2.74853 -0.450055 0)
(2.75424 -0.472481 0)
(2.76659 -0.463426 0)
(2.77071 -0.462334 0)
(2.75877 -0.446349 0)
(2.75614 -0.4196 0)
(2.73079 -0.376531 0)
(2.6796 -0.271295 0)
(2.63145 -0.217088 0)
(2.59597 -0.189134 0)
(2.56747 -0.116504 0)
(2.56673 -0.0825216 0)
(2.57384 -0.061603 0)
(2.51198 -0.218708 0)
(1.63693 0.0513338 0)
(1.22082 0.0790803 0)
(1.24884 0.00728342 0)
(1.29889 -0.0532925 0)
(1.3024 -0.0784758 0)
(1.30786 -0.0800858 0)
(1.32147 -0.0803416 0)
(1.34111 -0.0816358 0)
(1.35787 -0.079758 0)
(1.36786 -0.0731457 0)
(1.36962 -0.057332 0)
(1.3737 -0.0455085 0)
(1.38491 -0.0435166 0)
(1.40449 -0.046674 0)
(1.42735 -0.0509928 0)
(1.44219 -0.0498993 0)
(1.4532 -0.0435952 0)
(1.45846 -0.0319136 0)
(1.46619 -0.02288 0)
(1.47877 -0.0219598 0)
(1.4956 -0.0275879 0)
(1.51267 -0.0344586 0)
(1.52597 -0.0366813 0)
(1.53822 -0.0337706 0)
(1.54686 -0.0227649 0)
(1.55808 -0.00980058 0)
(1.57464 -0.00321431 0)
(1.59307 -0.00338114 0)
(1.61037 -0.00852234 0)
(1.6245 -0.0137311 0)
(1.63616 -0.0165042 0)
(1.64527 -0.0127661 0)
(1.65605 -0.00440517 0)
(1.67181 0.00232545 0)
(1.69008 0.00546661 0)
(1.70676 0.0041441 0)
(1.72202 0.00158799 0)
(1.73532 -0.000271678 0)
(1.745 0.00107065 0)
(1.75214 0.00664966 0)
(1.763 0.0126086 0)
(1.77798 0.0165848 0)
(1.79374 0.0191569 0)
(1.80946 0.0210573 0)
(1.82432 0.0234843 0)
(1.83663 0.0267767 0)
(1.84442 0.0307101 0)
(1.85094 0.0324131 0)
(1.86375 0.0299898 0)
(1.87866 0.0257647 0)
(1.89253 0.0209769 0)
(1.90471 0.0181175 0)
(1.91388 0.0189037 0)
(1.91987 0.0235794 0)
(1.92835 0.0284129 0)
(1.9436 0.031048 0)
(1.95895 0.0317567 0)
(1.9743 0.0292332 0)
(1.98977 0.0249367 0)
(2.00407 0.0219645 0)
(2.01625 0.0209488 0)
(2.02421 0.0240554 0)
(2.03066 0.0310841 0)
(2.0407 0.0389241 0)
(2.05417 0.0448252 0)
(2.06857 0.0486135 0)
(2.08216 0.051443 0)
(2.09187 0.0550517 0)
(2.09482 0.0586898 0)
(2.09681 0.0562383 0)
(2.10726 0.048386 0)
(2.12632 0.0402789 0)
(1.56403 0.927867 0)
(1.78563 0.868768 0)
(2.01392 0.729715 0)
(2.1861 0.56643 0)
(2.29442 0.488249 0)
(2.39244 0.37339 0)
(2.51585 0.179718 0)
(2.5862 0.0252976 0)
(2.62797 -0.0779193 0)
(2.64722 -0.105271 0)
(2.65192 -0.164891 0)
(2.68587 -0.265676 0)
(2.70336 -0.289624 0)
(2.74454 -0.340144 0)
(2.76299 -0.407673 0)
(2.75371 -0.457384 0)
(2.74247 -0.450296 0)
(2.73065 -0.416277 0)
(2.70731 -0.370845 0)
(2.67347 -0.322229 0)
(2.64277 -0.234781 0)
(2.6082 -0.233503 0)
(2.63043 -0.221981 0)
(2.37371 -0.507474 0)
(2.12845 -0.443565 0)
(1.5032 -0.0858459 0)
(1.3861 -0.00154019 0)
(1.43033 -0.0216372 0)
(1.44553 -0.0465579 0)
(1.44368 -0.0798925 0)
(1.45315 -0.0853877 0)
(1.46439 -0.0875643 0)
(1.48335 -0.0864249 0)
(1.49662 -0.0777946 0)
(1.49986 -0.0628743 0)
(1.49526 -0.0452089 0)
(1.49951 -0.0384763 0)
(1.51217 -0.0389553 0)
(1.53167 -0.0447133 0)
(1.55009 -0.0499467 0)
(1.5624 -0.0493035 0)
(1.57069 -0.044188 0)
(1.57328 -0.0364207 0)
(1.57968 -0.0328881 0)
(1.59202 -0.033312 0)
(1.60635 -0.0351051 0)
(1.62155 -0.0349661 0)
(1.63434 -0.0310126 0)
(1.6458 -0.0221999 0)
(1.65573 -0.0115786 0)
(1.6663 -0.00490266 0)
(1.68047 -0.00436927 0)
(1.69521 -0.00663157 0)
(1.70832 -0.00990104 0)
(1.71986 -0.0118901 0)
(1.73106 -0.0105322 0)
(1.74329 -0.00555914 0)
(1.75648 0.000106158 0)
(1.77019 0.00341058 0)
(1.78382 0.00426274 0)
(1.79664 0.00331758 0)
(1.80792 0.00181847 0)
(1.81722 0.00228053 0)
(1.82506 0.00646473 0)
(1.83403 0.0124136 0)
(1.84586 0.0164329 0)
(1.85961 0.0186282 0)
(1.874 0.0203662 0)
(1.88793 0.0223538 0)
(1.90015 0.0253137 0)
(1.90936 0.0305236 0)
(1.91621 0.0383499 0)
(1.92431 0.0444274 0)
(1.93566 0.0450313 0)
(1.94898 0.0416071 0)
(1.96211 0.0359266 0)
(1.97357 0.0304908 0)
(1.98341 0.0288733 0)
(1.99284 0.0323142 0)
(2.00247 0.0378379 0)
(2.0134 0.0419002 0)
(2.02579 0.0438313 0)
(2.03845 0.0443729 0)
(2.05062 0.0435576 0)
(2.06104 0.0412804 0)
(2.06914 0.0399252 0)
(2.07679 0.0429907 0)
(2.08651 0.0499661 0)
(2.09872 0.0574754 0)
(2.11234 0.0637407 0)
(2.12589 0.0686921 0)
(2.13645 0.0723089 0)
(2.13745 0.0742319 0)