/*--------------------------------*- C++ -*----------------------------------*\
  =========                 |
  \\      /  F ield         | OpenFOAM: The Open Source CFD Toolbox
   \\    /   O peration     | Website:  https://openfoam.org
    \\  /    A nd           | Version:  7
     \\/     M anipulation  |
\*---------------------------------------------------------------------------*/
FoamFile
{
    version     2.0;
    format      ascii;
    class       volScalarField;
    location    "110";
    object      p;
}
// * * * * * * * * * * * * * * * * * * * * * * * * * * * * * * * * * * * * * //

dimensions      [0 2 -2 0 0 0 0];

internalField   nonuniform List<scalar> 
1987
(
-0.105364
-0.106698
-0.0983979
-0.0831715
-0.064963
-0.0470059
-0.0310393
-0.0175777
-0.00650239
0.0025364
0.00993618
0.0160048
0.0208812
0.024569
0.0271188
0.028689
0.0294889
-0.0957404
-0.0973207
-0.0897461
-0.0755815
-0.0585769
-0.0417714
-0.0267818
-0.0140855
-0.00358045
0.0050424
0.0121392
0.0179913
0.0227275
0.0263403
0.0288516
0.0303852
0.0311373
0.0312054
0.0306005
0.0291234
0.0264742
0.0220754
0.0151634
0.00469258
-0.0101934
-0.0297493
-0.0528248
-0.0765646
-0.0966186
-0.108046
-0.107868
-0.0960666
-0.0766903
-0.0541239
-0.0328744
-0.0143427
0.000278849
0.0119758
0.0206428
0.0271665
0.0321244
0.0352622
0.0379735
0.0374499
0.0361866
0.0287544
0.019502
0.00208947
-0.017458
-0.0420741
-0.0648554
-0.0806726
-0.0858451
-0.0738099
-0.0510267
-0.0188149
-0.0857588
-0.0875575
-0.0807215
-0.0676801
-0.0519594
-0.03638
-0.0224278
-0.0105433
-0.000644165
0.0075345
0.0143035
0.0199154
0.0244889
0.0280087
0.0304709
0.0319647
0.0326711
0.0326988
0.0320731
0.0306155
0.0280433
0.0237996
0.0171509
0.00708579
-0.00723848
-0.0261001
-0.0484343
-0.0715038
-0.0911057
-0.102416
-0.102496
-0.0912631
-0.0726183
-0.0507957
-0.0301733
-0.0121422
0.00211482
0.0135326
0.022015
0.0283823
0.033233
0.0362417
0.0389136
0.0383703
0.0372201
0.029958
0.0208914
0.00375019
-0.0157546
-0.0402221
-0.0632284
-0.0792085
-0.0846226
-0.0730658
-0.0504118
-0.0187064
-0.0755585
-0.0775242
-0.071425
-0.0595511
-0.0451766
-0.0308812
-0.0180132
-0.00697714
0.00228699
0.00999793
0.0164184
0.0217695
0.02616
0.0295695
0.0319731
0.0334255
0.0340885
0.0340762
0.0334307
0.0319949
0.0295058
0.025432
0.0190763
0.00946995
-0.0042106
-0.0222624
-0.0437085
-0.0659475
-0.0849621
-0.0960776
-0.0964187
-0.0858389
-0.0680612
-0.0471284
-0.0272602
-0.00982995
0.00399184
0.0150785
0.0233445
0.0295309
0.0342612
0.0371266
0.0397461
0.0391798
0.0381426
0.031092
0.022254
0.00548588
-0.013879
-0.038067
-0.0611768
-0.0772536
-0.0828685
-0.0718688
-0.049488
-0.0184845
-0.0652686
-0.0673443
-0.061969
-0.05129
-0.0383036
-0.0253306
-0.0135772
-0.00341489
0.00519269
0.0124176
0.018473
0.0235465
0.0277361
0.0310189
0.0333543
0.034764
0.0353864
0.0353364
0.0346723
0.0332601
0.0308585
0.026967
0.0209308
0.011832
-0.00112768
-0.0182594
-0.0386782
-0.0599364
-0.0782279
-0.0890615
-0.0896606
-0.0798172
-0.0630399
-0.0431391
-0.0241484
-0.00741657
0.00590079
0.0166053
0.0246237
0.0306059
0.0352035
0.0379138
0.0404659
0.0398746
0.0389455
0.0321487
0.0235796
0.00728935
-0.0118308
-0.0356027
-0.0586793
-0.074781
-0.0805518
-0.0701837
-0.0482341
-0.0181382
-0.0550283
-0.057152
-0.0524757
-0.0430003
-0.0314214
-0.0197873
-0.00916179
0.000114307
0.00805221
0.0147784
0.0204568
0.0252396
0.0292131
0.0323542
0.0346115
0.0359772
0.0365629
0.0364786
0.0357976
0.0344095
0.0320979
0.0283985
0.0227047
0.0141562
0.00198621
-0.0141268
-0.0333918
-0.0535256
-0.0709552
-0.081418
-0.08227
-0.0732419
-0.0575899
-0.0388545
-0.0208573
-0.00491606
0.00783111
0.0181042
0.0258449
0.0316012
0.0360543
0.0386008
0.0410688
0.0404518
0.0396203
0.033119
0.0248563
0.00914928
-0.00961484
-0.0328306
-0.055722
-0.0717702
-0.0776502
-0.0679828
-0.0466337
-0.0176584
-0.044978
-0.0470813
-0.0430705
-0.0347901
-0.0246145
-0.0143132
-0.00481001
0.0035809
0.010845
0.0170656
0.0223596
0.0268429
0.0305883
0.0335739
0.0357432
0.0370633
0.0376167
0.0375032
0.0368073
0.0354431
0.0332221
0.029721
0.0243866
0.0164225
0.00509855
-0.0099121
-0.0279102
-0.0467844
-0.0632188
-0.073226
-0.0742875
-0.0661785
-0.0517629
-0.0343121
-0.0174129
-0.00234584
0.00977073
0.0195665
0.0270006
0.0325111
0.0368084
0.039186
0.0415518
0.04091
0.0401595
0.0339936
0.0260706
0.0110492
-0.00724222
-0.0297603
-0.0523007
-0.0682102
-0.0741525
-0.0652487
-0.0446774
-0.0170381
-0.0352417
-0.0372582
-0.0338777
-0.0267683
-0.0179679
-0.00896967
-0.00056463
0.00695576
0.0135513
0.0192654
0.0241721
0.028351
0.0318597
0.0346781
0.0367493
0.0380214
0.0385475
0.0384113
0.0377038
0.0363632
0.0342314
0.030931
0.0259663
0.0186097
0.00817296
-0.00566907
-0.022304
-0.0397998
-0.0551203
-0.0645955
-0.0658798
-0.058717
-0.0456268
-0.0295601
-0.0138473
0.000273326
0.0117062
0.0209831
0.0280835
0.0333305
0.0374611
0.0396683
0.041913
0.0412495
0.0405573
0.0347633
0.0272076
0.0129677
-0.00473094
-0.0264113
-0.0484239
-0.0641024
-0.070062
-0.0619768
-0.0423639
-0.0162736
-0.0259176
-0.0277986
-0.025018
-0.0190409
-0.0115636
-0.00381568
0.0035335
0.0102112
0.0161525
0.0213653
0.0258856
0.0297591
0.0330264
0.0356685
0.0376318
0.0388524
0.0393556
0.0392047
0.0384907
0.0371742
0.0351291
0.0320284
0.0274364
0.0206978
0.0111727
-0.00145508
-0.0166541
-0.0326767
-0.0467835
-0.0556562
-0.0571643
-0.0509691
-0.0392654
-0.0246566
-0.0101987
0.0029176
0.0136229
0.0223453
0.0290871
0.0340552
0.0380082
0.0400478
0.042152
0.0414726
0.0408103
0.0354193
0.0282523
0.0148788
-0.00210641
-0.0228143
-0.0441152
-0.0594638
-0.0653983
-0.0581784
-0.0397028
-0.0153657
-0.0170789
-0.0188088
-0.0166058
-0.0117072
-0.00547708
0.00109505
0.00744711
0.0133219
0.0186317
0.0233541
0.027493
0.0310636
0.0340882
0.0365477
0.0383943
0.0395585
0.0400423
0.0398855
0.0391722
0.0378823
0.0359218
0.0330164
0.0287925
0.0226699
0.0140621
0.00266949
-0.0110499
-0.0255334
-0.0383507
-0.046561
-0.0482736
-0.043062
-0.0327755
-0.0196679
-0.00651001
0.00556059
0.0155051
0.0236448
0.0300057
0.0346821
0.0384461
0.0403251
0.0422699
0.0415824
0.0409181
0.0359536
0.0291896
0.0167521
0.000597758
-0.0190121
-0.0394163
-0.0543294
-0.0602
-0.053884
-0.0367159
-0.0143199
-0.0087871
-0.0103902
-0.00874669
-0.00485472
0.000226593
0.00571646
0.0111441
0.0162658
0.0209746
0.0252226
0.0289885
0.0322615
0.0350457
0.0373196
0.0390421
0.0401442
0.04061
0.0404562
0.0397533
0.038495
0.036618
0.0339017
0.0300342
0.0245123
0.0168074
0.00664355
-0.00558487
-0.0184965
-0.0299779
-0.0374855
-0.0393707
-0.0351313
-0.0262629
-0.0146668
-0.0028278
0.00817418
0.0173365
0.0248739
0.0308346
0.0352094
0.0387727
0.0405013
0.0422697
0.0415835
0.0408836
0.0363592
0.0300052
0.0185533
0.00333949
-0.01506
-0.0343886
-0.0487563
-0.0545278
-0.0491447
-0.0334389
-0.0131473
-0.00115119
-0.0026434
-0.00153249
0.00144528
0.00549628
0.0100123
0.0145986
0.0190246
0.023169
0.0269638
0.0303682
0.0333513
0.0359002
0.0379889
0.0395821
0.0406157
0.041063
0.0409195
0.0402382
0.03902
0.0372279
0.0346931
0.0311646
0.0262154
0.0193788
0.010409
-0.000351549
-0.0116952
-0.021827
-0.0286102
-0.0306317
-0.0273261
-0.0198391
-0.00972865
0.000800065
0.0107296
0.0191006
0.0260255
0.0315705
0.0356371
0.0389874
0.0405776
0.0421556
0.0414815
0.0407139
0.0366306
0.0306861
0.0202458
0.00606891
-0.0110257
-0.0291147
-0.0428254
-0.0484655
-0.0440337
-0.0299227
-0.0118655
0.00581426
0.00434736
0.00496719
0.00714391
0.0102976
0.0139576
0.017792
0.021585
0.0252059
0.0285725
0.03163
0.0343327
0.0366535
0.0385604
0.040022
0.0409815
0.0414073
0.0412792
0.0406306
0.0394637
0.0377609
0.0354008
0.0321895
0.0277743
0.0217524
0.0139142
0.00456421
-0.00525328
-0.0140569
-0.0201127
-0.0222344
-0.0197981
-0.0136146
-0.00492766
0.00432647
0.0131985
0.0207815
0.0270935
0.0322116
0.0359667
0.0390912
0.0405558
0.0419338
0.0412819
0.0404194
0.036764
0.0312221
0.0217923
0.00873004
-0.00698804
-0.0236974
-0.0366432
-0.0421202
-0.038643
-0.0262338
-0.0104982
0.0119869
0.0105167
0.0107137
0.0122182
0.0146145
0.0175391
0.0207133
0.0239378
0.0270791
0.0300457
0.0327734
0.035207
0.0373085
0.0390394
0.0403699
0.0412511
0.041651
0.0415403
0.0409337
0.0398299
0.0382237
0.0360332
0.0331158
0.029188
0.0239113
0.0171181
0.00909012
0.000720675
-0.00681168
-0.01216
-0.0143455
-0.0126852
-0.00769117
-0.000332532
0.00770748
0.0155547
0.0223641
0.0280724
0.0327574
0.0362014
0.0390873
0.0404381
0.0416116
0.04099
0.0400142
0.036758
0.0316062
0.0231585
0.0112633
-0.00303334
-0.0182578
-0.0303415
-0.0356222
-0.0329876
-0.022453
-0.00907522
0.0173174
0.0158441
0.0157056
0.0166717
0.018448
0.0207545
0.0233582
0.0260789
0.0287856
0.0313824
0.0337997
0.0359769
0.0378686
0.0394311
0.0406338
0.0414345
0.0418041
0.0417096
0.0411505
0.0401201
0.0386192
0.0365952
0.0339485
0.0304574
0.0258459
0.0199942
0.0131755
0.00614361
-0.000209627
-0.00489338
-0.00710308
-0.00610156
-0.00215378
0.00399773
0.0109045
0.0177749
0.0238354
0.0289579
0.0332091
0.0363462
0.038981
0.0402278
0.0411975
0.0406101
0.0395149
0.0366141
0.0318358
0.0243161
0.0136096
0.000748292
-0.0129301
-0.0240733
-0.0291327
-0.0274274
-0.0186791
-0.00763185
0.0218073
0.0203561
0.0199759
0.0205307
0.021814
0.0236109
0.0257289
0.0280083
0.0303251
0.0325836
0.0347116
0.0366464
0.0383386
0.0397412
0.0408215
0.0415419
0.0418775
0.0417958
0.041285
0.0403346
0.0389458
0.037086
0.0346887
0.031584
0.0275558
0.0225365
0.0167996
0.0109666
0.00566558
0.00158492
-0.000603184
-0.000126465
0.00293561
0.00801724
0.0138861
0.0198402
0.0251847
0.0297468
0.0335691
0.0364068
0.0387803
0.0399294
0.0407007
0.0401465
0.0389388
0.0363381
0.0319142
0.0252464
0.0157152
0.00426858
-0.00785359
-0.018004
-0.0228172
-0.0219877
-0.0150074
-0.00620686
0.0255079
0.0241153
0.0235825
0.0238375
0.0247388
0.026123
0.0278328
0.0297297
0.0317003
0.033652
0.0355131
0.0372207
0.0387244
0.0399757
0.04094
0.0415829
0.0418822
0.0418094
0.0413433
0.0404741
0.0392003
0.0375013
0.0353338
0.0325707
0.0290526
0.0247633
0.0199751
0.0151789
0.0107756
0.00722497
0.0051101
0.00520328
0.00754197
0.0116949
0.0166289
0.0217362
0.0264046
0.0304369
0.0338411
0.0363902
0.0384956
0.0395487
0.0401313
0.0396036
0.0383026
0.0359399
0.0318503
0.0259436
0.0175374
0.00744793
-0.00316186
-0.0123002
-0.0168433
-0.0168128
-0.0115349
-0.00484065
0.0285146
0.0272106
0.0265964
0.0266431
0.0272554
0.0283103
0.0296813
0.0312503
0.032916
0.0345921
0.0362091
0.0377059
0.0390325
0.0401412
0.0409965
0.0415655
0.0418281
0.0417618
0.0413335
0.0405421
0.0393813
0.0378366
0.0358816
0.0334249
0.0303597
0.0267125
0.0227395
0.0188038
0.0151329
0.012038
0.0100485
0.00989081
0.0116553
0.0150142
0.0191177
0.0234536
0.0274911
0.0310278
0.0340298
0.0363033
0.0381389
0.039094
0.0394999
0.0389874
0.0376205
0.0354345
0.0316594
0.0264151
0.019049
0.0102222
0.00102959
-0.00711289
-0.0113674
-0.0120407
-0.00835104
-0.00357245
0.0309419
0.0297365
0.0290911
0.0290006
0.0293998
0.0301962
0.0312889
0.0325796
0.0339793
0.0354098
0.0368055
0.0381085
0.0392703
0.0402452
0.0409982
0.0414972
0.0417233
0.0416638
0.0412644
0.0405453
0.0394916
0.0380928
0.0363354
0.0341594
0.0315045
0.0284232
0.0251347
0.0218851
0.0187928
0.0160924
0.0142708
0.0139676
0.0152835
0.0179705
0.021345
0.0249882
0.0284439
0.031521
0.034141
0.0361532
0.0377237
0.0385753
0.0388188
0.0383064
0.0369036
0.0348411
0.0313605
0.0266796
0.0202402
0.0125497
0.00463752
-0.00255963
-0.00651756
-0.00778574
-0.00552814
-0.00243629
0.03289
0.0317761
0.0311349
0.0309621
0.0312088
0.0318055
0.0326726
0.0337291
0.0348989
0.0361123
0.0373092
0.0384353
0.039445
0.0402954
0.0409526
0.0413856
0.0415736
0.0414862
0.0411437
0.040493
0.0395391
0.0382771
0.0367045
0.0347887
0.0325066
0.0299176
0.0271892
0.024474
0.0218385
0.019488
0.0178594
0.0174823
0.0184468
0.0205688
0.0233105
0.02634
0.0292658
0.03192
0.0341816
0.0359468
0.0372634
0.0380043
0.0381007
0.037573
0.0361606
0.0341814
0.0309733
0.0267624
0.0211186
0.0144167
0.00762206
0.00128988
-0.00237999
-0.00412784
-0.00311249
-0.00145287
0.0344458
0.0333961
0.0327876
0.0325759
0.0327189
0.0331643
0.0338505
0.034712
0.0356847
0.0367079
0.0377274
0.0386937
0.0395642
0.0402994
0.0408673
0.041239
0.0413936
0.0413084
0.0409874
0.0403964
0.0395348
0.0384007
0.0370007
0.035324
0.0333727
0.0311996
0.0289207
0.0266236
0.0243621
0.022328
0.0208976
0.0204882
0.0211719
0.0228212
0.0250202
0.0275135
0.0299628
0.0322304
0.0341591
0.0356911
0.0367708
0.0373933
0.0373589
0.036802
0.035399
0.033477
0.0305156
0.026691
0.0217099
0.0158435
0.00999513
0.00442579
0.00101453
-0.00110225
-0.00112545
-0.000624479
0.0355417
0.0346361
0.034101
0.0338871
0.0339651
0.0342987
0.0348418
0.0355424
0.0363476
0.0372054
0.0380681
0.038891
0.0396353
0.0402648
0.0407502
0.0410649
0.0411888
0.0411028
0.0408024
0.0402651
0.0394889
0.0384741
0.037234
0.0357716
0.0341043
0.0322719
0.0303508
0.0283902
0.0264478
0.0246988
0.0234544
0.0230322
0.0234889
0.0247464
0.0264861
0.0285169
0.0305431
0.0324597
0.0340824
0.0353936
0.0362576
0.0367553
0.0366061
0.0360091
0.0346271
0.0327486
0.0300037
0.0264951
0.0220586
0.0168858
0.0118194
0.00689871
0.00369655
0.00130873
0.000457172
2.19859e-05
0.0361631
0.0355476
0.0351272
0.0349389
0.0349815
0.0352347
0.0356658
0.0362349
0.0368989
0.0376142
0.0383392
0.0390346
0.0396653
0.040199
0.0406088
0.0408705
0.0409653
0.0408762
0.0405958
0.0401076
0.0394102
0.0385059
0.0374112
0.0361366
0.0347061
0.0331476
0.0315123
0.0298299
0.0281631
0.026665
0.0255833
0.0251571
0.0254313
0.0263692
0.0277255
0.0293617
0.0310168
0.0326166
0.0339605
0.0350624
0.0357331
0.0361026
0.0358541
0.0352101
0.0338538
0.0320142
0.0294549
0.0262089
0.0222244
0.0176254
0.013192
0.00880181
0.00574522
0.00316286
0.00167251
0.0005094
0.0366551
0.0362361
0.0359248
0.0357743
0.0358011
0.0359975
0.036342
0.0368045
0.0373504
0.0379438
0.038549
0.0391319
0.0396613
0.0401086
0.0404495
0.0406623
0.0407299
0.0406368
0.0403748
0.0399312
0.0393061
0.0385025
0.0375376
0.0364246
0.0351888
0.0338493
0.0324437
0.030993
0.0295617
0.0282772
0.0273318
0.0269071
0.0270384
0.0277195
0.0287595
0.030062
0.0313947
0.0327106
0.0338026
0.0347066
0.0352049
0.0354463
0.035113
0.0344192
0.0330897
0.0312898
0.0288891
0.0258687
0.0222685
0.018147
0.0142151
0.010242
0.00726822
0.00454645
0.00258193
0.000866455
0.037008
0.0367666
0.0365455
0.0364325
0.0364545
0.0366113
0.0368891
0.0372657
0.0377138
0.0382037
0.0387055
0.03919
0.0396298
0.04
0.0402787
0.0404467
0.0404893
0.0403918
0.0401461
0.0397428
0.0391828
0.0384692
0.0376183
0.0366426
0.0355662
0.0344028
0.0331828
0.0319242
0.0306896
0.0295821
0.0287492
0.0283315
0.028353
0.0288302
0.0296117
0.0306335
0.0316884
0.0327514
0.0336176
0.0343359
0.0346804
0.0347969
0.0343914
0.0336487
0.0323452
0.0305886
0.0283262
0.0255065
0.0222377
0.0185151
0.0149705
0.0113161
0.00837887
0.00555688
0.00325032
0.00112184
0.037458
0.0372083
0.0370317
0.0369473
0.0369692
0.0370983
0.0373251
0.037633
0.0380003
0.0384033
0.0388166
0.0392157
0.0395771
0.0398788
0.040102
0.0402299
0.0402493
0.0401469
0.0399158
0.0395484
0.0390461
0.0384115
0.0376591
0.0367992
0.0358538
0.034833
0.033764
0.0326643
0.0315907
0.0306272
0.0298867
0.0294803
0.0294178
0.0297348
0.0303059
0.0310924
0.0319094
0.0327487
0.0334141
0.0339595
0.0341664
0.0341643
0.0336965
0.0329086
0.0316306
0.0299207
0.0277818
0.0251432
0.0221575
0.0187663
0.0155137
0.0121006
0.00917624
0.00628362
0.00373484
0.00130114
0.0380972
0.0377565
0.0375429
0.0374038
0.0373435
0.0373685
0.0374785
0.0376664
0.0379197
0.0382211
0.0385514
0.0388897
0.0392155
0.0395086
0.0397505
0.0399249
0.040017
0.040015
0.0399078
0.0396894
0.0393535
0.0389014
0.038335
0.0376666
0.0369041
0.036067
0.0351632
0.0342179
0.0332489
0.0323062
0.031459
0.0307927
0.0303977
0.0302728
0.0304646
0.0308652
0.0314547
0.032069
0.0327117
0.0331996
0.0335863
0.0336699
0.0335578
0.0330356
0.0322078
0.0309544
0.0292934
0.0272653
0.0247896
0.0220388
0.0189188
0.0158833
0.0126541
0.00973756
0.00679818
0.00407996
0.00142453
0.0381746
0.0379415
0.0377799
0.0376785
0.0376415
0.0376721
0.0377695
0.0379282
0.0381383
0.0383863
0.0386565
0.038932
0.0391953
0.0394299
0.03962
0.0397517
0.0398121
0.0397911
0.0396794
0.0394719
0.039163
0.038754
0.0382457
0.0376484
0.0369678
0.0362206
0.0354137
0.0345705
0.0337088
0.0328725
0.032118
0.0315087
0.0311024
0.0309534
0.0310485
0.0313106
0.0317355
0.0321779
0.0326491
0.0329814
0.0332244
0.0331977
0.0329856
0.0324154
0.0315534
0.0303231
0.0287113
0.0267814
0.0244495
0.0218875
0.0189861
0.0161121
0.013025
0.0101202
0.00715307
0.00431812
0.00150661
0.0381918
0.0380424
0.0379354
0.0378721
0.0378585
0.0378969
0.037987
0.0381241
0.0383006
0.0385057
0.0387267
0.0389499
0.0391608
0.0393457
0.0394914
0.0395862
0.039619
0.0395816
0.0394658
0.0392672
0.0389812
0.0386087
0.0381496
0.037612
0.0370001
0.0363277
0.0356016
0.0348431
0.0340697
0.0333195
0.0326393
0.0320778
0.0316836
0.0314975
0.0315124
0.0316613
0.0319487
0.0322461
0.0325688
0.032766
0.0328809
0.0327564
0.0324551
0.031842
0.0309518
0.0297419
0.0281776
0.0263324
0.0241248
0.0217111
0.0189837
0.0162308
0.013255
0.0103673
0.00738669
0.00447345
0.00155788
0.0381659
0.0380844
0.0380278
0.038001
0.0380102
0.0380581
0.0381446
0.0382662
0.0384169
0.038588
0.0387693
0.0389496
0.0391171
0.0392605
0.0393686
0.0394319
0.0394412
0.0393896
0.0392701
0.039079
0.0388121
0.03847
0.038052
0.0375643
0.0370096
0.0363997
0.035741
0.0350524
0.0343515
0.0336708
0.0330507
0.0325285
0.0321504
0.0319287
0.0318774
0.0319339
0.0321069
0.0322829
0.0324785
0.0325596
0.0325621
0.0323521
0.0319727
0.0313211
0.0304082
0.0292149
0.0276947
0.0259208
0.023818
0.0215196
0.0189288
0.0162682
0.0133802
0.0105128
0.00752924
0.00456615
0.0015865
0.0381125
0.0380873
0.0380744
0.0380802
0.0381107
0.0381688
0.0382545
0.0383654
0.0384966
0.0386412
0.038791
0.0389367
0.0390688
0.0391779
0.0392549
0.039292
0.0392816
0.039218
0.0390952
0.0389102
0.038659
0.0383421
0.037958
0.0375115
0.0370041
0.0364458
0.0358427
0.0352116
0.0345698
0.0339448
0.0333721
0.0328813
0.0325121
0.0322652
0.0321605
0.0321423
0.032221
0.0322967
0.0323849
0.0323679
0.0322738
0.0319901
0.0315439
0.0308581
0.0299271
0.0287465
0.0272653
0.0255498
0.0235331
0.0213241
0.0188392
0.0162501
0.0134311
0.0105848
0.00760633
0.00461405
0.00159927
0.0380444
0.0380647
0.0380888
0.038123
0.0381728
0.0382408
0.0383277
0.0384315
0.0385484
0.0386727
0.0387979
0.0389163
0.0390201
0.0391016
0.0391535
0.0391693
0.0391427
0.0390692
0.0389436
0.0387633
0.0385249
0.0382283
0.0378718
0.0374586
0.0369898
0.0364735
0.0359155
0.035331
0.0347364
0.0341557
0.03362
0.033153
0.0327888
0.032523
0.032376
0.0322983
0.0323007
0.0322948
0.0322943
0.0321961
0.0320212
0.0316752
0.0311736
0.0304578
0.0295128
0.0283411
0.026893
0.0252241
0.023276
0.021136
0.0187319
0.0161984
0.0134334
0.0106071
0.00763924
0.00463219
0.00160173
0.0379729
0.0380295
0.0380837
0.0381413
0.0382073
0.0382845
0.0383735
0.0384729
0.0385795
0.0386889
0.0387955
0.0388929
0.0389748
0.0390349
0.0390671
0.0390661
0.0390268
0.0389453
0.0388174
0.0386409
0.0384126
0.0381319
0.037797
0.0374101
0.0369718
0.0364886
0.0359664
0.0354184
0.0348607
0.0343141
0.0338066
0.033357
0.0329952
0.0327151
0.0325355
0.0324118
0.032354
0.032284
0.0322125
0.0320492
0.0318091
0.0314125
0.0308663
0.0301252
0.0291696
0.0280037
0.0265821
0.0249492
0.023054
0.0209664
0.0186225
0.0161316
0.0134085
0.0105999
0.00764509
0.00463246
0.00159826
0.0379085
0.0379924
0.0380693
0.0381449
0.0382239
0.0383087
0.0384
0.0384968
0.0385965
0.0386953
0.0387885
0.0388707
0.0389366
0.0389809
0.0389984
0.0389849
0.038936
0.0388486
0.038719
0.0385453
0.0383244
0.0380556
0.0377369
0.0373696
0.0369541
0.0364959
0.0360004
0.0354798
0.0349494
0.0344277
0.0339403
0.0335031
0.033143
0.0328523
0.0326483
0.0324906
0.0323878
0.0322698
0.0321446
0.031932
0.0316423
0.0312066
0.0306268
0.0298656
0.0289022
0.0277399
0.026338
0.0247317
0.0228749
0.0208256
0.0185247
0.0160653
0.0133734
0.0105793
0.00763733
0.00462421
0.00159243
0.0378592
0.0379614
0.0380539
0.038142
0.0382301
0.0383203
0.0384136
0.0385091
0.0386045
0.0386965
0.0387809
0.0388532
0.0389084
0.0389422
0.03895
0.0389281
0.0388728
0.0387813
0.0386506
0.0384787
0.0382628
0.0380021
0.0376942
0.0373402
0.0369401
0.0364987
0.0360214
0.0355192
0.0350069
0.0345017
0.0340276
0.0335985
0.033239
0.0329411
0.0327208
0.0325404
0.0324073
0.0322569
0.0320952
0.0318492
0.0315255
0.0310631
0.0304604
0.0296851
0.0287163
0.0275562
0.0261672
0.0245788
0.0227472
0.0207234
0.0184504
0.0160121
0.0133412
0.0105573
0.00762618
0.00461426
0.00158704
0.0378318
0.0379434
0.0380441
0.0381388
0.0382315
0.0383247
0.0384192
0.0385141
0.0386074
0.038696
0.0387761
0.0388432
0.0388931
0.0389215
0.0389243
0.0388982
0.0388395
0.0387461
0.0386147
0.0384438
0.0382305
0.0379739
0.0376717
0.0373245
0.0369324
0.0364997
0.0360316
0.0355388
0.0350358
0.0345389
0.0340716
0.0336466
0.0332871
0.0329854
0.0327567
0.0325649
0.032416
0.0322492
0.0320684
0.0318055
0.0314638
0.0309882
0.0303729
0.029591
0.0286186
0.0274602
0.0260772
0.0244985
0.0226792
0.0206686
0.0184097
0.015982
0.0133223
0.0105431
0.00761906
0.00460742
0.00158411
)
;

boundaryField
{
    inlet
    {
        type            zeroGradient;
    }
    outlet
    {
        type            fixedValue;
        value           uniform 0;
    }
    cylinder
    {
        type            zeroGradient;
    }
    top
    {
        type            symmetryPlane;
    }
    bottom
    {
        type            symmetryPlane;
    }
    defaultFaces
    {
        type            empty;
    }
    procBoundary3to2
    {
        type            processor;
        value           nonuniform List<scalar> 
36
(
-0.0852989
-0.0756747
-0.0658787
-0.0560593
-0.0463544
-0.0369075
-0.0278493
-0.0192747
-0.0112328
-0.00373855
0.00319578
0.00953679
0.0152088
0.0201339
0.0242774
0.0276699
0.030389
0.0325355
0.0342069
0.0354788
0.0363929
0.0370025
0.0374197
0.0377102
0.0379444
0.0379444
0.0384692
0.0384315
0.038355
0.0382522
0.0381352
0.0380162
0.0379045
0.0378097
0.03774
0.0377023
)
;
    }
    procBoundary3to6
    {
        type            processor;
        value           uniform -0.0945774;
    }
    procBoundary3to7
    {
        type            processor;
        value           nonuniform List<scalar> 
57
(
-0.114483
-0.115571
-0.106578
-0.0903737
-0.0710606
-0.052041
-0.0351687
-0.0209963
-0.0093919
3.05092e-05
0.00770502
0.0139636
0.0189563
0.0227007
0.025278
0.0268784
0.0277247
0.0295965
0.0295965
0.0290139
0.0275214
0.0248051
0.0202709
0.0131323
0.00231596
-0.0130447
-0.0331812
-0.056861
-0.0811151
-0.101477
-0.112951
-0.112525
-0.100242
-0.0802699
-0.0571053
-0.0353561
-0.0164237
-0.00150847
0.0104158
0.019235
0.0258896
0.0309406
0.0341918
0.0369304
0.0364234
0.0350518
0.0274912
0.0180973
0.000511484
-0.0189912
-0.0436338
-0.0660848
-0.081678
-0.086573
-0.0741409
-0.0513572
-0.0188216
)
;
    }
}


// ************************************************************************* //
