/*--------------------------------*- C++ -*----------------------------------*\
  =========                 |
  \\      /  F ield         | OpenFOAM: The Open Source CFD Toolbox
   \\    /   O peration     | Website:  https://openfoam.org
    \\  /    A nd           | Version:  7
     \\/     M anipulation  |
\*---------------------------------------------------------------------------*/
FoamFile
{
    version     2.0;
    format      ascii;
    class       volScalarField;
    location    "13";
    object      p;
}
// * * * * * * * * * * * * * * * * * * * * * * * * * * * * * * * * * * * * * //

dimensions      [1 -1 -2 0 0 0 0];

internalField   nonuniform List<scalar> 
4032
(
1
1
1
1
1
1
1
1
1
1
1
1.32591
7.58441
10.6151
10.7512
10.9627
11.148
11.3226
11.4816
11.624
11.7507
11.8531
11.9318
11.9899
1
1
1
1
1
1
1
1
1
1
1
1.28718
7.42101
10.5814
10.7384
10.9434
11.1247
11.2943
11.4479
11.5833
11.7017
11.796
11.8656
11.9205
1
1
1
1
1
1
1
1
1
1
1
1.18433
7.12098
10.5522
10.6964
10.8994
11.0803
11.2481
11.3986
11.5285
11.6389
11.7241
11.7799
11.8263
1
1
1
1
1
1
1
1
1
1
1
1.01615
6.62204
10.4994
10.6421
10.8309
11.0011
11.1565
11.297
11.4201
11.5269
11.6081
11.6548
11.6904
1
1
1
1
1
1
1
1
1
1
1
1.00019
5.95045
10.3231
10.5091
10.6938
10.8665
11.0192
11.153
11.2621
11.3471
11.4094
11.4418
11.4888
1
1
1
1
1
1
1
1
1
1
1
0.999999
5.10788
10.0922
10.3972
10.5657
10.7291
10.8629
10.9755
11.0667
11.1406
11.1968
11.2075
11.1639
1
1
1
1
1
1
1
1
1
1
1
1
4.14084
9.7379
10.2799
10.4355
10.5754
10.678
10.7542
10.8069
10.8233
10.7805
10.7077
10.6579
1
1
1
1
1
1
1
1
1
1
1
1
3.09503
9.18874
10.1927
10.3281
10.4366
10.5028
10.5292
10.5241
10.4715
10.386
10.2504
10.2311
1
1
1
1
1
1
1
1
1
1
1
1
2.01147
8.32792
10.1493
10.2028
10.2874
10.3203
10.2958
10.2263
10.075
9.79786
9.00606
7.01347
1
1
1
1
1
1
1
1
1
1
1
1
1.12773
7.19294
10.2004
10.0974
10.0876
10.0665
9.99879
9.86497
9.62108
9.13957
8.33039
6.22593
1
1
1
1
1
1
1
1
1
1
1
1
1.00158
5.5826
9.59826
9.73102
9.78775
9.75437
9.66842
9.48691
9.18736
8.62641
7.78137
5.8804
1
1
1
1
1
1
1
1
1
1
1
1
0.999976
3.7107
9.02041
9.59989
9.61954
9.54518
9.41431
9.1794
8.81927
8.24972
7.35128
5.80525
1
1
1
1
1
1
1
1
1
1
1
1
0.999994
1.9743
8.06568
9.53868
9.44368
9.32408
9.15427
8.88464
8.48929
7.93515
7.05107
5.85267
1
1
1
1
1
1
1
1
1
1
1
1
0.999999
1.09797
6.30624
9.21294
9.19359
9.08489
8.90646
8.62795
8.23815
7.68413
6.87536
5.93774
1
1
1
1
1
1
1
1
1
1
1
1
1
1.00053
3.8571
8.62277
9.0461
8.9348
8.73686
8.42132
8.03338
7.47287
6.77192
5.99266
1
1
1
1
1
1
1
1
1
1
1
1
1
0.999994
1.63436
7.65482
9.07923
8.79793
8.54968
8.23095
7.81533
7.31448
6.71598
6.05534
1
1
1
1
1
1
1
1
1
1
1
1
1
0.999999
1.03505
5.62333
8.65563
8.46475
8.29091
8.01345
7.6428
7.19127
6.66377
6.08716
1
1
1
1
1
1
1
1
1
1
1
1
1
1
0.999979
2.81518
7.91937
8.35628
8.20345
7.92877
7.56446
7.12267
6.62363
6.10048
1
1
1
1
1
1
1
1
1
1
1
1
1
1
0.99999
1.23006
6.09328
8.30794
8.1206
7.8252
7.46103
7.04145
6.57949
6.1136
1
1
1
1
1
1
1
1
1
1
1
1
1
1
0.999998
1.00408
3.2466
7.61108
7.99729
7.69363
7.35696
6.9643
6.55395
6.17495
1
1
1
1
1
1
1
1
1
1
1
1
1
1
1
1
1.34318
5.99988
7.96893
7.61236
7.28818
6.91701
6.60835
6.45656
1
1
1
1
1
1
1
1
1
1
1
1
1
1
1
1
1.00942
3.14034
7.22324
7.47854
7.1706
6.911
6.87132
7.0698
1
1
1
1
1
1
1
1
1
1
1
1
1
1
1
1
1.00003
1.31542
5.44316
7.45784
7.21508
7.27442
7.6529
7.97692
1
1
1
1
1
1
1
1
1
1
1
1
1
1
1
1
1
1.00836
2.5075
6.36701
7.37886
8.06617
8.57002
8.61282
1
1
1
1
1
1
1
1
1
1
1
1
1
1
1
1
1
1.00004
1.16576
4.27494
8.00962
9.30866
9.3571
8.98472
1
1
1
1
1
1
1
1
1
1
1
1
1
1
1
1
1
1
1.00292
1.81875
8.27346
10.243
9.68409
9.20553
1
1
1
1
1
1
1
1
1
1
1
1
1
1
1
1
1
1
1.00002
1.19592
8.0107
10.5913
9.93917
9.42772
1
1
1
1
1
1
1
1
1
1
1
1
1
1
1
1
1
1
1
1.07608
7.01377
10.4387
9.80415
9.4449
1
1
1
1
1
1
1
1
1
1
1
1
1
1
1
1
1
1
1
1.00333
6.04717
10.3275
9.86052
9.64534
1
1
1
1
1
1
1
1
1
1
1
1
1
1
1
1
1
1
1
1.00003
5.21129
9.97189
9.91796
9.7113
1
1
1
1
1
1
1
1
1
1
1
1
1
1
1
1
1
1
1
1
4.32968
9.68003
9.96242
9.74702
1
1
1
1
1
1
1
1
1
1
1
1
1
1
1
1
1
1
1
1
3.55835
9.42489
10.0583
9.81628
1
1
1
1
1
1
1
1
1
1
1
1
1
1
1
1
1
1
1
1
2.87971
9.15068
10.1709
9.87245
1
1
1
1
1
1
1
1
1
1
1
1
1
1
1
1
1
1
1
1
2.35148
8.84646
10.2761
9.9371
1
1
1
1
1
1
1
1
1
1
1
1
1
1
1
1
1
1
1
1
1.97644
8.5442
10.3465
9.98857
1
1
1
1
1
1
1
1
1
1
1
1
1
1
1
1
1
1
1
1
1.69281
8.26801
10.3823
10.0226
1
1
1
1
1
1
1
1
1
1
1
1
1
1
1
1
1
1
1
1
1.53232
8.02191
10.3931
10.0436
1
1
1
1
1
1
1
1
1
1
1
1
1
1
1
1
1
1
1
1
1.44532
7.83302
10.3782
10.0521
1
1
1
1
1
1
1
1
1
1
1
1
1
1
1
1
1
1
1
1
1.38786
7.70282
10.3676
10.0631
1
1
1
1
1
1
1
1
1
1
1
1
1
1
1
1
1
1
1
1
1.36175
7.63608
10.3438
10.057
1.74472
1.67287
2.20808
2.71029
3.04909
3.17417
3.20699
3.16982
3.16995
3.19435
3.17064
3.08886
3.0195
3.01633
3.07669
3.14394
3.18399
3.21955
3.28052
3.35611
3.461
3.58576
3.72268
3.86218
3.99603
4.11599
4.21687
4.30085
4.37544
4.44845
4.5233
4.59759
4.66614
4.72104
4.76155
4.79055
4.81194
4.82484
4.8245
4.80216
4.76123
4.71143
4.66537
4.62685
4.59101
4.55135
4.50746
4.4639
4.42278
4.38216
4.3358
4.27683
4.20864
4.14184
4.08277
4.03192
3.98285
3.92563
3.85859
3.79094
3.73103
3.68632
3.65872
3.63577
3.61284
3.6145
3.72275
3.98683
4.2316
4.32235
4.34554
4.34522
4.30984
4.26748
4.22764
4.19085
4.15445
4.11739
4.0818
4.0518
4.03081
4.02205
4.0283
4.0414
4.05018
4.0482
4.04171
4.03461
4.02898
4.02548
4.02688
4.03093
4.02882
4.02016
4.00534
3.98764
2.89265
2.63578
2.96749
3.02141
3.18885
3.27442
3.24921
3.18659
3.16228
3.17208
3.15516
3.09035
3.03082
3.01831
3.06036
3.10539
3.1386
3.18324
3.25075
3.34384
3.45626
3.57376
3.6918
3.81151
3.93344
4.0581
4.18057
4.29276
4.38518
4.45244
4.50386
4.55588
4.61732
4.68183
4.73326
4.75718
4.75568
4.74793
4.74776
4.75027
4.7406
4.70552
4.65501
4.6089
4.57483
4.54444
4.50146
4.446
4.39233
4.35122
4.32015
4.28313
4.22397
4.15088
4.07891
4.016
3.96606
3.92316
3.86916
3.79715
3.72357
3.66012
3.61809
3.60725
3.61287
3.64109
3.73796
3.97719
4.20152
4.30284
4.33018
4.33301
4.30532
4.25679
4.21023
4.16804
4.13044
4.10175
4.08215
4.06784
4.05212
4.03304
4.01296
3.99855
3.99271
4.00011
4.01113
4.01817
4.0213
4.02293
4.02546
4.02845
4.03217
4.03771
4.04229
4.03596
3.62796
2.96634
3.21622
2.96093
3.06796
3.19784
3.25941
3.2287
3.16462
3.12759
3.09823
3.05186
3.00618
3.00008
3.0225
3.05072
3.07258
3.1083
3.17471
3.28001
3.41509
3.55761
3.69449
3.81101
3.90751
4.00143
4.11144
4.24238
4.3802
4.49695
4.57105
4.60901
4.63884
4.68368
4.74156
4.79086
4.80223
4.77617
4.74101
4.72111
4.71722
4.70998
4.67168
4.61851
4.57449
4.54562
4.51954
4.47071
4.40519
4.34487
4.2995
4.26801
4.23535
4.17896
4.10663
4.03012
3.9616
3.90769
3.86994
3.82662
3.76501
3.69673
3.63608
3.60343
3.60506
3.64158
3.74365
3.96507
4.22116
4.34496
4.35782
4.32883
4.29886
4.26844
4.23196
4.18886
4.1354
4.08621
4.05702
4.05071
4.0649
4.07342
4.06162
4.03374
3.99484
3.96805
3.96295
3.97049
3.98681
3.99887
4.00204
3.99661
3.98909
3.99225
4.01004
4.04769
4.26485
3.17157
3.31167
3.29016
3.29194
3.45111
3.42122
3.28271
3.18098
3.12903
3.09413
3.04656
2.97961
2.9907
3.00954
3.05178
3.09288
3.13206
3.17672
3.24598
3.35128
3.49682
3.67171
3.83919
3.9689
4.05654
4.12113
4.1937
4.2942
4.42177
4.54224
4.61129
4.63315
4.64668
4.67296
4.71702
4.75804
4.76196
4.72845
4.69099
4.6697
4.66928
4.654
4.6024
4.54637
4.50682
4.48327
4.45382
4.40142
4.3328
4.27118
4.22635
4.19082
4.14657
4.09035
4.02374
3.9428
3.87511
3.82441
3.78012
3.73569
3.69366
3.65583
3.6267
3.62927
3.66073
3.73543
3.89834
4.14595
4.33457
4.36398
4.30925
4.26019
4.22925
4.21433
4.18914
4.15197
4.10294
4.05244
4.02525
4.01917
4.02855
4.0395
4.03792
4.03129
4.01662
3.99575
3.98598
3.99422
4.01037
4.0272
4.03571
4.03215
4.01523
4.00099
4.0102
4.69235
3.50771
3.41842
3.47786
3.50365
3.579
3.47583
3.19382
3.0647
3.13265
3.1956
3.19698
3.10604
3.05519
3.04092
3.07579
3.14716
3.22686
3.29737
3.35931
3.43113
3.524
3.65127
3.82116
3.99207
4.11768
4.18947
4.23495
4.29095
4.37813
4.49458
4.59925
4.64562
4.65621
4.6652
4.68223
4.71359
4.733
4.71966
4.6878
4.66427
4.65307
4.63181
4.59047
4.53209
4.49237
4.46937
4.43658
4.39446
4.34052
4.2763
4.22249
4.17429
4.12798
4.08332
4.03357
3.97171
3.89521
3.82022
3.76536
3.7251
3.70016
3.68502
3.68014
3.69556
3.73995
3.78388
3.86259
4.01454
4.21776
4.35042
4.35071
4.26776
4.20489
4.16706
4.14874
4.13784
4.12113
4.09621
4.05873
4.01861
4.00181
4.00047
4.00479
4.01187
4.01748
4.01677
4.00579
3.99272
3.99641
4.01285
4.03555
4.05695
4.06691
4.06257
4.03293
5.02528
3.95263
3.49014
3.51013
3.53236
3.6318
3.65317
3.41102
3.1615
3.19842
3.40603
3.55225
3.4188
3.2519
3.17328
3.15293
3.18229
3.24983
3.35309
3.43788
3.49375
3.55268
3.63133
3.76451
3.93992
4.07841
4.15547
4.1977
4.24079
4.30903
4.41837
4.53564
4.58012
4.58805
4.59555
4.61688
4.66001
4.68255
4.66074
4.61429
4.58396
4.57425
4.57587
4.54781
4.49181
4.44161
4.41603
4.39125
4.35603
4.31047
4.24888
4.18236
4.13414
4.08877
4.04212
3.99101
3.93291
3.86545
3.80009
3.74864
3.72367
3.7146
3.7246
3.7417
3.77658
3.82199
3.84937
3.86588
3.91758
4.02622
4.1752
4.28332
4.2984
4.25283
4.16922
4.11235
4.09231
4.08807
4.08879
4.0741
4.03846
3.9998
3.98581
3.98745
3.99818
4.01337
4.02516
4.02905
4.01694
4.00225
4.00538
4.01954
4.03982
4.05827
4.06535
4.04487
5.23635
4.39263
3.6474
3.49081
3.50464
3.57573
3.63983
3.62257
3.51868
3.49619
3.74975
4.06641
4.004
3.79173
3.59506
3.46774
3.40607
3.41233
3.50698
3.5698
3.56243
3.59976
3.67569
3.78808
3.94343
4.05578
4.09895
4.13125
4.17331
4.24273
4.35558
4.44557
4.48056
4.50082
4.52232
4.55802
4.60463
4.60987
4.58061
4.53914
4.52256
4.52674
4.53189
4.50504
4.45457
4.38993
4.35548
4.33304
4.30896
4.27456
4.22468
4.15495
4.08517
4.02914
3.98464
3.94735
3.90327
3.85057
3.79282
3.74584
3.73325
3.74458
3.78652
3.82836
3.88725
3.91351
3.90998
3.88781
3.87543
3.89457
3.96003
4.06509
4.19153
4.22942
4.19895
4.15842
4.10455
4.06645
4.05613
4.05391
4.04179
4.0157
3.99008
3.98387
3.98991
4.00549
4.0229
4.03389
4.03744
4.02823
4.01759
4.0191
4.02716
4.03704
4.03901
4.02469
5.37113
4.69369
3.95804
3.54379
3.47213
3.52777
3.65456
3.81321
3.98835
4.13523
4.32173
4.55572
4.57515
4.38819
4.1216
3.8797
3.69647
3.6323
3.65333
3.65965
3.62809
3.65264
3.718
3.81567
3.95881
4.04838
4.08734
4.1171
4.1563
4.21756
4.31206
4.39511
4.4407
4.47301
4.50348
4.54017
4.5769
4.57912
4.54937
4.50701
4.49066
4.49857
4.50869
4.48222
4.43459
4.36703
4.32397
4.306
4.29255
4.25843
4.21047
4.14265
4.06244
4.01066
3.96745
3.92678
3.8859
3.85197
3.81147
3.78411
3.78947
3.82898
3.88714
3.93432
3.983
3.98642
3.963
3.91822
3.87198
3.83944
3.83325
3.87623
3.98028
4.08078
4.15152
4.17677
4.14443
4.09706
4.0545
4.03174
4.02091
4.01635
4.00686
3.99542
3.9935
3.99872
4.01106
4.02691
4.03648
4.04059
4.03311
4.01841
4.0124
4.01246
4.01166
4.00986
5.4779
4.86077
4.26231
3.73781
3.51357
3.60243
3.82996
4.19165
4.59335
4.77878
4.8491
4.95896
5.02149
4.94241
4.68061
4.41087
4.15175
3.95517
3.88249
3.8539
3.80057
3.77418
3.80714
3.87479
3.98397
4.05095
4.08301
4.10119
4.12849
4.17334
4.24369
4.32857
4.38404
4.41983
4.44927
4.48134
4.50934
4.51692
4.49937
4.46221
4.44028
4.4413
4.44347
4.42321
4.39248
4.34284
4.2881
4.26145
4.23926
4.20522
4.16229
4.10401
4.04077
3.98457
3.93629
3.90694
3.87927
3.86191
3.85358
3.86324
3.89497
3.96071
3.99783
4.02247
4.03584
4.02002
3.98257
3.93248
3.87976
3.82239
3.77694
3.76711
3.80412
3.90007
4.00236
4.09201
4.11348
4.1122
4.08129
4.04122
4.02237
4.01471
4.01556
4.01172
3.99995
3.99729
4.00257
4.01552
4.03156
4.0374
4.0365
4.022
4.0022
3.99384
3.99324
4.00276
5.56429
5.01588
4.53272
4.09683
3.84415
3.95369
4.19608
4.54602
4.90765
5.13266
5.24201
5.33434
5.42952
5.42569
5.18146
4.88053
4.63266
4.34514
4.16049
4.09403
4.01974
3.94857
3.939
3.96811
4.02223
4.06446
4.08867
4.0917
4.10367
4.13713
4.18829
4.26255
4.317
4.34673
4.36872
4.39204
4.41561
4.43515
4.43482
4.41068
4.37554
4.35911
4.35373
4.34903
4.33179
4.30182
4.24917
4.20273
4.17189
4.13483
4.09168
4.04587
4.00448
3.95412
3.89793
3.87339
3.86847
3.88094
3.9146
3.95478
4.0135
4.06863
4.06712
4.05598
4.03755
4.00653
3.96572
3.92097
3.87109
3.8136
3.75167
3.71011
3.71074
3.74149
3.82664
3.93727
4.02031
4.06506
4.07435
4.0563
4.03854
4.02828
4.02199
4.0194
4.01119
3.99768
3.99677
4.00294
4.01689
4.02885
4.03106
4.02542
4.00855
3.9966
3.99654
4.00629
5.66839
5.24741
4.93532
4.72384
4.5227
4.48881
4.51222
4.66546
4.93782
5.23513
5.43223
5.58075
5.79446
5.8611
5.65762
5.28058
5.00415
4.75418
4.47287
4.30635
4.23976
4.16098
4.09954
4.09522
4.10556
4.11048
4.11274
4.10106
4.0995
4.12003
4.15542
4.21399
4.25535
4.27053
4.27538
4.28698
4.30861
4.33776
4.36012
4.35289
4.31279
4.27874
4.2687
4.27183
4.26947
4.2459
4.20085
4.14371
4.10282
4.06358
4.02458
3.99307
3.96049
3.91733
3.87685
3.87045
3.88601
3.93615
4.00548
4.05722
4.11288
4.12002
4.0967
4.05841
4.0198
3.97932
3.93658
3.89631
3.8526
3.80547
3.7502
3.6938
3.66443
3.66723
3.69337
3.75958
3.86158
3.95783
4.02589
4.03759
4.05098
4.04497
4.03879
4.03242
4.02331
4.0109
3.99891
3.99835
4.00375
4.01526
4.02459
4.02595
4.02277
4.0139
4.01082
4.01487
5.89099
5.71203
5.61381
5.48984
5.20575
4.93975
4.8038
4.73732
4.86531
5.13112
5.43819
5.69156
5.9877
6.22345
6.07965
5.72177
5.34997
5.10557
4.82094
4.58707
4.50316
4.41634
4.29466
4.22248
4.19746
4.17221
4.15341
4.13246
4.11719
4.12427
4.14297
4.18022
4.20525
4.20939
4.1982
4.19522
4.20954
4.24027
4.27811
4.28816
4.26287
4.21626
4.19703
4.19857
4.20264
4.17985
4.13513
4.07882
4.03523
4.00002
3.97251
3.94757
3.91938
3.88525
3.88442
3.90608
3.95485
4.03582
4.09225
4.13752
4.15387
4.13821
4.10457
4.05961
4.01028
3.95856
3.91
3.86895
3.82994
3.79215
3.75383
3.7075
3.65845
3.63117
3.63247
3.66122
3.71553
3.80311
3.90853
3.98723
4.02184
4.05352
4.0524
4.04946
4.0415
4.0294
4.01804
4.00531
4.00233
4.00651
4.01551
4.02797
4.03227
4.03175
4.02677
4.02301
6.45762
6.46111
6.37903
6.13554
5.73252
5.34451
5.12211
4.95688
4.86916
5.01179
5.28413
5.61337
6.02334
6.41317
6.44988
6.15539
5.72627
5.40824
5.16207
4.90141
4.75394
4.65025
4.50283
4.35461
4.28982
4.25112
4.21794
4.18689
4.16042
4.15213
4.15365
4.16841
4.17625
4.16772
4.14686
4.13154
4.13569
4.15473
4.19029
4.21086
4.20264
4.16721
4.14432
4.14296
4.14255
4.11298
4.06115
4.00806
3.96993
3.94776
3.93665
3.92086
3.90441
3.91159
3.94361
3.99308
4.06159
4.13259
4.16175
4.1754
4.16242
4.13504
4.0974
4.05451
4.00538
3.94954
3.89481
3.84979
3.81341
3.78287
3.75668
3.72722
3.68667
3.63711
3.60897
3.61285
3.63565
3.68523
3.76624
3.87263
3.95906
4.01846
4.05229
4.06547
4.06493
4.05574
4.04205
4.02659
4.01183
4.00966
4.01479
4.02603
4.03903
4.04206
4.04035
4.02865
7.20115
7.09493
6.91385
6.57857
6.1535
5.75745
5.50327
5.3135
5.07584
4.99089
5.10593
5.3964
5.85513
6.40728
6.62483
6.50573
6.14206
5.74617
5.4976
5.25052
5.00597
4.85328
4.68866
4.51178
4.4259
4.37481
4.32448
4.27379
4.21695
4.18885
4.17426
4.16532
4.14936
4.12977
4.10816
4.0878
4.0818
4.08705
4.10576
4.12476
4.12279
4.10125
4.0835
4.0833
4.07857
4.04144
3.9857
3.93714
3.90508
3.89519
3.90102
3.91206
3.93166
3.97817
4.04129
4.10391
4.17311
4.19892
4.19627
4.18001
4.15225
4.11731
4.0795
4.04027
3.99452
3.94249
3.88609
3.8335
3.79971
3.77918
3.76139
3.74191
3.71704
3.67643
3.61994
3.59146
3.59475
3.61728
3.66882
3.74683
3.84231
3.92929
4.00374
4.04138
4.0765
4.083
4.07515
4.05451
4.03097
4.01349
4.01422
4.0219
4.03727
4.04595
4.04491
4.03157
7.84741
7.54381
7.26708
6.9206
6.51726
6.15051
5.91395
5.71125
5.43806
5.15785
5.09703
5.21638
5.55913
6.17321
6.60195
6.68048
6.50285
6.14912
5.81922
5.57476
5.28736
5.03897
4.8563
4.67578
4.57218
4.51504
4.4496
4.38266
4.30883
4.24393
4.2036
4.16995
4.13443
4.10221
4.07457
4.05519
4.0477
4.03641
4.031
4.03755
4.0307
4.01813
4.00702
4.00526
3.99753
3.95272
3.91241
3.88335
3.86289
3.86645
3.88668
3.92489
3.98397
4.0672
4.13203
4.18984
4.22074
4.21617
4.19969
4.17207
4.13514
4.09017
4.04781
4.00986
3.96829
3.92585
3.87629
3.81964
3.78951
3.77431
3.76116
3.74898
3.73163
3.70565
3.65725
3.60229
3.58474
3.58817
3.61302
3.66216
3.72615
3.80531
3.89693
3.97171
4.02334
4.06754
4.09603
4.08793
4.06588
4.033
4.01291
4.0128
4.02235
4.03749
4.04129
4.03228
8.22043
7.83749
7.56158
7.25526
6.88117
6.53362
6.32191
6.12217
5.83239
5.48926
5.27759
5.22086
5.33827
5.72075
6.35478
6.67084
6.67871
6.49867
6.17668
5.8708
5.5737
5.25523
5.04839
4.88136
4.75455
4.67165
4.58299
4.49062
4.40408
4.3182
4.24366
4.1834
4.12819
4.08093
4.04601
4.02593
4.01659
3.99243
3.97243
3.96547
3.94593
3.93278
3.9207
3.91271
3.89322
3.85097
3.84416
3.84279
3.85277
3.87925
3.92252
3.98316
4.05804
4.13084
4.18262
4.21469
4.21058
4.19338
4.16579
4.13207
4.09269
4.04934
4.00451
3.96673
3.9308
3.90088
3.86675
3.82067
3.77877
3.75925
3.74643
3.73708
3.72621
3.70939
3.67909
3.62985
3.59378
3.58281
3.58835
3.61093
3.64957
3.69695
3.76904
3.86321
3.94148
4.00542
4.05217
4.08805
4.09122
4.07359
4.03872
4.01344
4.0118
4.01883
4.03126
4.02781
8.44793
8.06328
7.83267
7.57308
7.221
6.8932
6.69728
6.5168
6.21374
5.86441
5.59774
5.41191
5.32883
5.43158
5.83712
6.38091
6.63773
6.66301
6.50264
6.17973
5.8459
5.51626
5.26536
5.10389
4.95476
4.83232
4.71488
4.59484
4.48869
4.39312
4.30056
4.21756
4.14523
4.08469
4.03826
4.00915
3.98695
3.95065
3.92544
3.90978
3.87871
3.86711
3.83428
3.79985
3.77731
3.77709
3.79682
3.82837
3.87276
3.93179
3.99847
4.06884
4.13569
4.17687
4.19709
4.19122
4.17837
4.15799
4.1216
4.08029
4.03815
3.98374
3.92831
3.90445
3.89315
3.87861
3.85619
3.82792
3.79156
3.75244
3.73408
3.72389
3.71741
3.70627
3.68668
3.65913
3.62473
3.60131
3.58875
3.59552
3.61417
3.63386
3.66634
3.73106
3.82097
3.90691
3.98116
4.0425
4.07467
4.07956
4.06882
4.04237
4.02204
4.01768
4.02294
4.01627
8.7124
8.34791
8.15259
7.90684
7.54311
7.21315
7.02444
6.85253
6.56258
6.21704
5.95702
5.74548
5.53189
5.40897
5.4985
5.85982
6.33211
6.60652
6.61741
6.45137
6.14796
5.82922
5.5338
5.32742
5.15813
4.99848
4.84768
4.69861
4.56388
4.45513
4.35571
4.26165
4.17916
4.10842
4.04915
4.00003
3.95499
3.9007
3.87547
3.85106
3.82462
3.79764
3.74864
3.72276
3.71773
3.73448
3.78018
3.84166
3.91688
3.99873
4.07271
4.13644
4.18567
4.20249
4.19336
4.16713
4.12743
4.09528
4.06689
4.03799
4.00444
3.95728
3.90123
3.86903
3.85747
3.85001
3.84933
3.83826
3.81322
3.77278
3.73002
3.70769
3.69729
3.69481
3.69646
3.68939
3.67601
3.6511
3.61841
3.59977
3.60398
3.61765
3.62554
3.64783
3.69807
3.78049
3.87375
3.95584
4.02138
4.06236
4.06789
4.06202
4.04262
4.0245
4.01339
4.00905
8.89069
8.57853
8.4226
8.1882
7.84108
7.53664
7.33942
7.15936
6.87783
6.52951
6.2936
6.08782
5.85409
5.60241
5.44589
5.52702
5.85994
6.31572
6.53464
6.48067
6.35007
6.13452
5.85251
5.58059
5.36009
5.1653
4.97839
4.80443
4.64815
4.52244
4.41755
4.32021
4.23127
4.14936
4.07414
4.00577
3.9391
3.89208
3.86085
3.80778
3.76045
3.72405
3.68845
3.68295
3.70077
3.74616
3.81782
3.90138
3.9879
4.05702
4.11652
4.16475
4.19203
4.19203
4.16417
4.09801
4.03678
3.99848
3.98354
3.97864
3.96606
3.94464
3.9019
3.85322
3.83407
3.82617
3.82365
3.82154
3.81188
3.7898
3.74675
3.71813
3.71198
3.71193
3.722
3.72538
3.71732
3.69834
3.66376
3.63018
3.6161
3.618
3.62831
3.63478
3.65054
3.68547
3.75075
3.84443
3.92721
3.99237
4.04661
4.05886
4.05392
4.03214
4.01229
3.9988
9.11123
8.88284
8.72938
8.46973
8.11798
7.81195
7.62517
7.45526
7.18613
6.8554
6.61435
6.43413
6.16723
5.9003
5.59674
5.48144
5.55423
5.83964
6.25088
6.41022
6.36191
6.2686
6.11048
5.87573
5.60707
5.353
5.12011
4.91493
4.73934
4.59447
4.48048
4.38087
4.28547
4.19367
4.10503
4.02158
3.94421
3.88251
3.82241
3.74921
3.68969
3.65131
3.64607
3.66532
3.71268
3.79455
3.89711
3.9851
4.05458
4.09698
4.13344
4.17054
4.1731
4.14064
4.08052
4.01795
3.96436
3.93182
3.92449
3.92911
3.92892
3.91612
3.89241
3.85151
3.8166
3.80507
3.79918
3.79865
3.7995
3.79384
3.77982
3.753
3.73017
3.72235
3.72143
3.73195
3.73604
3.7271
3.70766
3.67724
3.64818
3.63573
3.63167
3.63425
3.63753
3.64757
3.6696
3.72451
3.81621
3.89411
3.96794
4.02511
4.04115
4.03563
4.01542
3.99331
9.40154
9.16971
8.94978
8.69875
8.38161
8.08404
7.87752
7.69404
7.42871
7.10305
6.84708
6.71533
6.51888
6.23745
5.9105
5.63341
5.55897
5.58446
5.80852
6.15329
6.27416
6.26604
6.16955
6.00909
5.81471
5.57155
5.31456
5.07916
4.90122
4.74775
4.6215
4.51248
4.40196
4.2876
4.17646
4.0723
3.97493
3.89224
3.81443
3.74576
3.68626
3.64864
3.65369
3.68691
3.76741
3.88125
3.98397
4.05531
4.09064
4.10694
4.09648
4.08661
4.06889
4.03342
3.99216
3.96264
3.9303
3.89708
3.87703
3.87208
3.87044
3.86696
3.86125
3.84529
3.81294
3.78653
3.7775
3.7738
3.77587
3.78624
3.78824
3.7803
3.76042
3.74119
3.73327
3.73168
3.73938
3.74366
3.73642
3.71978
3.69126
3.6665
3.65269
3.64063
3.63371
3.63051
3.63588
3.65236
3.6983
3.77855
3.86361
3.94349
3.99207
4.00073
4.00031
3.98905
9.50916
9.30878
9.09181
8.83649
8.54254
8.28002
8.08002
7.91214
7.66083
7.3363
7.07629
6.90781
6.71998
6.45912
6.17137
5.85686
5.63579
5.55481
5.57643
5.75736
6.00719
6.14269
6.14699
6.046
5.87904
5.66796
5.42933
5.18727
4.9726
4.80141
4.65908
4.52898
4.40073
4.27183
4.14619
4.02938
3.9325
3.85473
3.79505
3.75724
3.72778
3.70416
3.71929
3.77833
3.87901
3.9885
4.06055
4.08585
4.07368
4.04331
4.01571
3.9975
3.97569
3.94018
3.92026
3.91339
3.89665
3.87185
3.83929
3.81237
3.80472
3.80341
3.80848
3.81027
3.8024
3.78401
3.76624
3.76081
3.76072
3.76961
3.78204
3.78398
3.77774
3.76185
3.74883
3.74367
3.74358
3.74941
3.74719
3.73771
3.71894
3.69352
3.6744
3.65857
3.64374
3.63114
3.6202
3.62138
3.63169
3.67208
3.73939
3.82112
3.90381
3.94721
3.97151
3.97387
9.60277
9.41808
9.20499
8.95806
8.70321
8.48086
8.29542
8.08816
7.79478
7.49171
7.25097
7.08371
6.91417
6.67121
6.37874
6.10289
5.84791
5.66242
5.53666
5.53358
5.66501
5.85331
6.02091
6.02266
5.91299
5.74108
5.52407
5.2974
5.08698
4.90771
4.7507
4.60157
4.45573
4.31049
4.16913
4.04268
3.94007
3.86936
3.82901
3.81193
3.79639
3.80057
3.844
3.9292
4.01393
4.05603
4.06167
4.04552
4.01066
3.97692
3.95751
3.93967
3.90421
3.85928
3.84274
3.83998
3.83929
3.82987
3.80998
3.77898
3.76209
3.76118
3.76621
3.77627
3.77992
3.77682
3.76422
3.75499
3.75623
3.76316
3.77688
3.7855
3.78502
3.77658
3.76463
3.7592
3.75772
3.76166
3.76035
3.75122
3.73555
3.71131
3.69084
3.67684
3.66199
3.64527
3.63046
3.61734
3.60763
3.61374
3.64349
3.69561
3.76726
3.85317
3.91638
3.95134
9.67163
9.47593
9.26665
9.04417
8.82904
8.6262
8.42378
8.17918
7.8952
7.6254
7.40741
7.25099
7.0606
6.79772
6.50837
6.27611
6.0454
5.82526
5.64084
5.48298
5.44739
5.53812
5.72093
5.88253
5.87363
5.77261
5.59176
5.38393
5.18128
4.99389
4.82118
4.65561
4.49396
4.33763
4.19164
4.06731
3.96953
3.91514
3.89093
3.8897
3.89096
3.91965
4.00168
4.07689
4.09141
4.07071
4.02609
3.98065
3.94206
3.9185
3.90647
3.88357
3.83903
3.78852
3.7691
3.76774
3.78232
3.79053
3.7833
3.76052
3.73173
3.72445
3.72596
3.73774
3.75597
3.7624
3.76264
3.75839
3.76105
3.76644
3.7753
3.78648
3.78937
3.78432
3.77503
3.76976
3.76715
3.76763
3.76828
3.76041
3.74624
3.72552
3.70787
3.69517
3.68274
3.66708
3.64916
3.62851
3.60481
3.59098
3.59575
3.61967
3.66057
3.73275
3.81445
3.89686
9.71904
9.52943
9.33415
9.13697
8.94218
8.73905
8.51117
8.25587
7.99546
7.75827
7.57266
7.39714
7.15527
6.87381
6.6104
6.40888
6.2186
5.9925
5.77473
5.54608
5.37595
5.33797
5.42162
5.60333
5.73219
5.72586
5.62148
5.4526
5.26366
5.0675
4.8754
4.69547
4.5259
4.37093
4.23374
4.1222
4.03756
3.98504
3.96841
3.98889
4.0433
4.114
4.15983
4.15459
4.11721
4.04791
3.97513
3.91949
3.88606
3.86726
3.84835
3.81861
3.77364
3.72819
3.71148
3.71732
3.74049
3.75143
3.74797
3.73371
3.70698
3.69492
3.7008
3.72084
3.74742
3.76296
3.77096
3.77496
3.77524
3.77843
3.78156
3.78853
3.79533
3.79563
3.79397
3.79052
3.78544
3.78095
3.77786
3.77123
3.76
3.74685
3.73505
3.72312
3.70835
3.6899
3.66741
3.6428
3.61928
3.60052
3.59032
3.58925
3.59993
3.63536
3.69304
3.79564
9.77187
9.5786
9.38933
9.19858
8.99923
8.78135
8.544
8.30035
8.07102
7.87994
7.71276
7.48565
7.20552
6.92343
6.71043
6.54738
6.37053
6.13878
5.87503
5.61438
5.42303
5.31017
5.26302
5.32543
5.46583
5.54755
5.55964
5.46727
5.31544
5.12477
4.91844
4.72443
4.55281
4.40724
4.28739
4.19991
4.13795
4.08474
4.10771
4.16516
4.21805
4.25046
4.23029
4.18141
4.10544
4.01308
3.93287
3.88039
3.84479
3.81638
3.78652
3.75042
3.7134
3.68958
3.68094
3.6888
3.69729
3.69769
3.69654
3.69525
3.69359
3.69353
3.70416
3.72486
3.74626
3.76073
3.77014
3.77672
3.77704
3.77725
3.78259
3.79245
3.80463
3.81033
3.81082
3.80644
3.79772
3.78882
3.78297
3.77834
3.77163
3.76344
3.75347
3.74022
3.72291
3.70272
3.68196
3.66107
3.64022
3.61601
3.59263
3.56883
3.55355
3.55905
3.58679
3.67935
9.81708
9.62645
9.44025
9.24521
9.03975
8.82192
8.59844
8.37969
8.17449
7.98581
7.7746
7.50795
7.23116
7.01069
6.83005
6.66297
6.46101
6.21636
5.94364
5.69463
5.50043
5.35165
5.2451
5.16711
5.18294
5.2675
5.36968
5.39846
5.31663
5.15755
4.95815
4.75969
4.58617
4.45371
4.36407
4.30675
4.28416
4.27576
4.30433
4.33371
4.34182
4.30227
4.24189
4.16486
4.07276
3.9824
3.91203
3.85851
3.81355
3.77177
3.72964
3.69285
3.67385
3.66796
3.66784
3.66159
3.65011
3.64654
3.65112
3.66489
3.69011
3.7066
3.71453
3.72502
3.73598
3.74599
3.75389
3.75913
3.76625
3.7756
3.78864
3.80395
3.81245
3.81549
3.81374
3.8065
3.7978
3.78936
3.78326
3.77889
3.77385
3.76737
3.75835
3.74645
3.73213
3.71641
3.699
3.67822
3.6499
3.6166
3.58429
3.55478
3.53491
3.52473
3.53041
3.58477
9.85366
9.66522
9.47895
9.28215
9.07708
8.86563
8.65332
8.4446
8.2438
8.03792
7.79211
7.53007
7.29787
7.10373
6.92869
6.73176
6.50392
6.24494
5.99864
5.78702
5.59733
5.42216
5.26997
5.12601
5.00099
5.00373
5.08965
5.2101
5.22716
5.14106
4.98049
4.8013
4.64437
4.5346
4.47537
4.47442
4.48774
4.48756
4.49127
4.46391
4.39625
4.31405
4.22413
4.12835
4.03649
3.96199
3.90093
3.84694
3.79704
3.74201
3.68627
3.65985
3.64984
3.65046
3.64826
3.63619
3.61694
3.61296
3.62172
3.64361
3.67851
3.70204
3.71122
3.7134
3.71423
3.72247
3.73313
3.74577
3.76301
3.78362
3.80179
3.81116
3.81467
3.81481
3.81244
3.80943
3.80548
3.79927
3.79212
3.78567
3.77862
3.77175
3.76435
3.75472
3.74324
3.73037
3.71227
3.68358
3.64653
3.61063
3.5809
3.55414
3.53558
3.52008
3.51588
3.52601
9.87841
9.69228
9.50672
9.31204
9.11174
8.90764
8.7026
8.49693
8.28812
8.05777
7.80942
7.57198
7.36217
7.18002
6.99733
6.77034
6.51794
6.26732
6.05919
5.8741
5.69173
5.50295
5.31132
5.12117
4.94376
4.84768
4.84878
4.93814
5.02794
5.03925
4.96104
4.83673
4.72627
4.66214
4.66404
4.68267
4.67877
4.65897
4.61831
4.5354
4.43045
4.31778
4.20304
4.09383
4.00678
3.94675
3.89387
3.84422
3.7908
3.72406
3.66371
3.64093
3.63389
3.63433
3.62765
3.61626
3.59931
3.5969
3.60856
3.63373
3.66524
3.68159
3.69062
3.6921
3.69447
3.70702
3.72367
3.74792
3.77295
3.79174
3.80263
3.80859
3.81137
3.81525
3.81973
3.81996
3.81803
3.81326
3.80557
3.79727
3.7887
3.7807
3.77387
3.76556
3.75327
3.73569
3.71121
3.68021
3.64769
3.6161
3.58591
3.55979
3.54275
3.5267
3.51423
3.49211
9.89361
9.71036
9.52614
9.33415
9.13847
8.93927
8.73658
8.529
8.31006
8.07634
7.84089
7.61734
7.41827
7.24151
7.02468
6.78005
6.52729
6.31306
6.12194
5.93957
5.75023
5.54749
5.32752
5.11199
4.93194
4.79811
4.71527
4.7021
4.75336
4.85582
4.86917
4.83945
4.83943
4.866
4.91149
4.87947
4.83331
4.78449
4.68504
4.56911
4.44768
4.32209
4.19341
4.07716
3.99472
3.93611
3.88505
3.83738
3.78345
3.71579
3.65919
3.63522
3.62582
3.6223
3.61447
3.60519
3.5899
3.58656
3.5952
3.61569
3.63979
3.65274
3.66338
3.67065
3.68375
3.7009
3.72566
3.75768
3.77954
3.79057
3.79722
3.80273
3.80998
3.82061
3.83069
3.83381
3.83318
3.82873
3.8205
3.81212
3.80343
3.79301
3.78126
3.76923
3.75337
3.73126
3.7041
3.67805
3.65367
3.63044
3.60647
3.58042
3.55259
3.52741
3.50522
3.46398
9.90845
9.72763
9.54597
9.3565
9.16206
8.96226
8.75635
8.54352
8.32252
8.09885
7.87825
7.66394
7.46325
7.24543
6.99732
6.75521
6.54554
6.35798
6.17731
5.98538
5.77864
5.55776
5.33286
5.1148
4.93392
4.78688
4.66862
4.57662
4.54323
4.6107
4.72919
4.853
5.00135
5.11395
5.12309
5.03854
4.94271
4.83173
4.70347
4.57425
4.45061
4.32487
4.19419
4.07586
3.99296
3.93233
3.88052
3.83122
3.77903
3.70879
3.6579
3.6404
3.63213
3.62519
3.61647
3.60418
3.58542
3.58067
3.58809
3.60501
3.62192
3.63437
3.64749
3.66235
3.68012
3.70135
3.7323
3.76196
3.77519
3.78255
3.78876
3.7977
3.80994
3.8285
3.84109
3.84373
3.84332
3.83865
3.83135
3.8243
3.81618
3.80568
3.79054
3.76883
3.7446
3.72161
3.69991
3.68013
3.66333
3.64785
3.62915
3.60509
3.57207
3.53166
3.49313
3.44354
9.90976
9.73257
9.55346
9.36575
9.17181
8.97106
8.76339
8.55001
8.33434
8.12111
7.91177
7.70246
7.47819
7.22796
6.984
6.76607
6.57818
6.40873
6.21379
6.01004
5.7866
5.54913
5.3298
5.13205
4.95817
4.80222
4.66501
4.52211
4.4016
4.42198
4.56928
4.84223
5.10254
5.26255
5.27618
5.18644
5.03038
4.87318
4.71819
4.57579
4.44693
4.32147
4.19431
4.07942
3.99346
3.93011
3.87683
3.82397
3.76823
3.71303
3.66259
3.63199
3.61883
3.61
3.6006
3.58836
3.57164
3.56835
3.57637
3.59157
3.60569
3.6194
3.63659
3.65721
3.67958
3.7055
3.7378
3.75899
3.76905
3.77723
3.78647
3.79676
3.81229
3.83487
3.84642
3.84916
3.84878
3.84488
3.8395
3.83279
3.82346
3.81037
3.79111
3.76392
3.73521
3.71376
3.6981
3.6852
3.67367
3.65933
3.64084
3.61442
3.57342
3.52556
3.48274
3.43278
)
;

boundaryField
{
    inlet
    {
        type            fixedValue;
        value           uniform 1;
    }
    outlet
    {
        type            zeroGradient;
    }
    bottom
    {
        type            symmetryPlane;
    }
    top
    {
        type            symmetryPlane;
    }
    obstacle
    {
        type            zeroGradient;
    }
    defaultFaces
    {
        type            empty;
    }
}


// ************************************************************************* //
