/*--------------------------------*- C++ -*----------------------------------*\
  =========                 |
  \\      /  F ield         | OpenFOAM: The Open Source CFD Toolbox
   \\    /   O peration     | Website:  https://openfoam.org
    \\  /    A nd           | Version:  7
     \\/     M anipulation  |
\*---------------------------------------------------------------------------*/
FoamFile
{
    version     2.0;
    format      ascii;
    class       volScalarField;
    location    "13";
    object      rho;
}
// * * * * * * * * * * * * * * * * * * * * * * * * * * * * * * * * * * * * * //

dimensions      [1 -3 0 0 0 0 0];

internalField   nonuniform List<scalar> 
4032
(
1.40001
1.40001
1.40001
1.40001
1.40001
1.40001
1.40001
1.40001
1.40001
1.40001
1.40001
1.58412
4.40067
5.47069
5.51861
5.595
5.66192
5.72462
5.78151
5.8324
5.87767
5.91415
5.94215
5.96289
1.40001
1.40001
1.40001
1.40001
1.40001
1.40001
1.40001
1.40001
1.40001
1.40001
1.40001
1.56112
4.33097
5.45556
5.51329
5.58802
5.65345
5.7143
5.76924
5.8177
5.86015
5.89386
5.91873
5.93839
1.40001
1.40001
1.40001
1.40001
1.40001
1.40001
1.40001
1.40001
1.40001
1.40001
1.40001
1.50583
4.22204
5.44613
5.49808
5.57175
5.63699
5.69715
5.751
5.7976
5.83739
5.86805
5.88811
5.90475
1.40001
1.40001
1.40001
1.40001
1.40001
1.40001
1.40001
1.40001
1.40001
1.40001
1.40001
1.4123
4.04202
5.43456
5.4801
5.54644
5.60739
5.66314
5.71359
5.75795
5.79667
5.82622
5.8432
5.85617
1.40001
1.40001
1.40001
1.40001
1.40001
1.40001
1.40001
1.40001
1.40001
1.40001
1.40001
1.40018
3.76645
5.37449
5.43285
5.49664
5.55806
5.61278
5.66083
5.70016
5.73125
5.75473
5.76786
5.78599
1.40001
1.40001
1.40001
1.40001
1.40001
1.40001
1.40001
1.40001
1.40001
1.40001
1.40001
1.4
3.40897
5.29091
5.39334
5.45179
5.50944
5.55656
5.59625
5.62858
5.65553
5.67808
5.68744
5.67827
1.40001
1.40001
1.40001
1.40001
1.40001
1.40001
1.40001
1.40001
1.40001
1.40001
1.40001
1.4
2.98848
5.17335
5.36396
5.41361
5.45923
5.4923
5.51685
5.5344
5.54016
5.52633
5.50697
5.49831
1.40001
1.40001
1.40001
1.40001
1.40001
1.40001
1.40001
1.40001
1.40001
1.40001
1.40001
1.40001
2.51439
5.01406
5.37181
5.39586
5.42134
5.43564
5.43862
5.43365
5.41268
5.37998
5.32048
5.28602
1.40001
1.40001
1.40001
1.40001
1.40001
1.40001
1.40001
1.40001
1.40001
1.40001
1.40001
1.40001
1.99423
4.77422
5.40281
5.37909
5.38739
5.38271
5.36308
5.3301
5.26839
5.16114
4.83822
3.91419
1.40001
1.40001
1.40001
1.40001
1.40001
1.40001
1.40001
1.40001
1.40001
1.40001
1.40001
1.40001
1.50111
4.36009
5.4293
5.37043
5.34414
5.31265
5.26987
5.20644
5.10369
4.91169
4.57832
3.6571
1.40001
1.40001
1.40001
1.40001
1.40001
1.40001
1.40001
1.40001
1.40001
1.40001
1.40001
1.40001
1.40135
3.64884
5.18953
5.24476
5.253
5.22196
5.16941
5.08181
4.95044
4.71844
4.36705
3.55743
1.40001
1.40001
1.40001
1.40001
1.40001
1.40001
1.40001
1.40001
1.40001
1.40001
1.40001
1.40001
1.39998
2.83024
5.00067
5.20478
5.20015
5.16261
5.09644
4.98629
4.82657
4.58378
4.2046
3.54269
1.40001
1.40001
1.40001
1.40001
1.40001
1.40001
1.40001
1.40001
1.40001
1.40001
1.40001
1.40001
1.4
2.00691
4.7399
5.20893
5.15801
5.09667
5.01536
4.89282
4.71819
4.47763
4.09831
3.5748
1.40001
1.40001
1.40001
1.40001
1.40001
1.40001
1.40001
1.40001
1.40001
1.40001
1.40001
1.40001
1.4
1.47948
4.01773
5.11143
5.08115
5.02364
4.93746
4.81126
4.63907
4.39736
4.04569
3.63018
1.40001
1.40001
1.40001
1.40001
1.40001
1.40001
1.40001
1.40001
1.40001
1.40001
1.40001
1.40001
1.4
1.40041
2.94726
4.94576
5.04281
4.9877
4.89304
4.74976
4.57688
4.3313
4.02283
3.67332
1.40001
1.40001
1.40001
1.40001
1.40001
1.40001
1.40001
1.40001
1.40001
1.40001
1.40001
1.40001
1.40001
1.4
1.83775
4.69566
5.10135
4.97008
4.84679
4.69626
4.50776
4.28439
4.01845
3.72008
1.40001
1.40001
1.40001
1.40001
1.40001
1.40001
1.40001
1.40001
1.40001
1.40001
1.40001
1.40001
1.40001
1.4
1.42926
3.77473
4.96204
4.87139
4.77559
4.636
4.46032
4.25305
4.01462
3.75201
1.40001
1.40001
1.40001
1.40001
1.40001
1.40001
1.40001
1.40001
1.40001
1.40001
1.40001
1.40001
1.40001
1.4
1.39996
2.4808
4.76626
4.84784
4.77301
4.63833
4.46269
4.25417
4.02123
3.77786
1.40001
1.40001
1.40001
1.40001
1.40001
1.40001
1.40001
1.40001
1.40001
1.40001
1.40001
1.40001
1.40001
1.40001
1.39999
1.57983
4.0281
4.86363
4.77055
4.62705
4.452
4.25134
4.03093
3.80891
1.40001
1.40001
1.40001
1.40001
1.40001
1.40001
1.40001
1.40001
1.40001
1.40001
1.40001
1.40001
1.40001
1.40001
1.4
1.40348
2.72343
4.67689
4.74233
4.60118
4.43855
4.24927
4.0512
3.86514
1.40001
1.40001
1.40001
1.40001
1.40001
1.40001
1.40001
1.40001
1.40001
1.40001
1.40001
1.40001
1.40001
1.40001
1.4
1.4
1.66202
4.04015
4.77624
4.60523
4.4433
4.26087
4.11049
4.01565
1.40001
1.40001
1.40001
1.40001
1.40001
1.40001
1.40001
1.40001
1.40001
1.40001
1.40001
1.40001
1.40001
1.40001
1.40001
1.4
1.40811
2.69582
4.57945
4.57534
4.42687
4.29385
4.25504
4.32052
1.40001
1.40001
1.40001
1.40001
1.40001
1.40001
1.40001
1.40001
1.40001
1.40001
1.40001
1.40001
1.40001
1.40001
1.40001
1.40001
1.40003
1.6438
3.83479
4.61814
4.48492
4.49211
4.63274
4.74228
1.40001
1.40001
1.40001
1.40001
1.40001
1.40001
1.40001
1.40001
1.40001
1.40001
1.40001
1.40001
1.40001
1.40001
1.40001
1.40001
1.40001
1.40732
2.38675
4.25831
4.63382
4.89224
5.07367
5.06908
1.40001
1.40001
1.40001
1.40001
1.40001
1.40001
1.40001
1.40001
1.40001
1.40001
1.40001
1.40001
1.40001
1.40001
1.40001
1.40001
1.40001
1.40004
1.53482
3.29724
4.98889
5.49647
5.47491
5.30268
1.40001
1.40001
1.40001
1.40001
1.40001
1.40001
1.40001
1.40001
1.40001
1.40001
1.40001
1.40001
1.40001
1.40001
1.40001
1.40001
1.40001
1.40001
1.40264
1.98365
5.1227
5.89315
5.64963
5.4352
1.40001
1.40001
1.40001
1.40001
1.40001
1.40001
1.40001
1.40001
1.40001
1.40001
1.40001
1.40001
1.40001
1.40001
1.40001
1.40001
1.40001
1.40001
1.40002
1.52266
4.7626
5.88088
5.65679
5.4828
1.40001
1.40001
1.40001
1.40001
1.40001
1.40001
1.40001
1.40001
1.40001
1.40001
1.40001
1.40001
1.40001
1.40001
1.40001
1.40001
1.40001
1.40001
1.40001
1.44266
4.2227
5.62578
5.42647
5.34775
1.40001
1.40001
1.40001
1.40001
1.40001
1.40001
1.40001
1.40001
1.40001
1.40001
1.40001
1.40001
1.40001
1.40001
1.40001
1.40001
1.40001
1.40001
1.40001
1.4022
3.79254
5.43449
5.28709
5.26159
1.40001
1.40001
1.40001
1.40001
1.40001
1.40001
1.40001
1.40001
1.40001
1.40001
1.40001
1.40001
1.40001
1.40001
1.40001
1.40001
1.40001
1.40001
1.40001
1.40003
3.44582
5.25454
5.24434
5.18874
1.40001
1.40001
1.40001
1.40001
1.40001
1.40001
1.40001
1.40001
1.40001
1.40001
1.40001
1.40001
1.40001
1.40001
1.40001
1.40001
1.40001
1.40001
1.40001
1.40001
3.0769
5.15021
5.25737
5.17993
1.40001
1.40001
1.40001
1.40001
1.40001
1.40001
1.40001
1.40001
1.40001
1.40001
1.40001
1.40001
1.40001
1.40001
1.40001
1.40001
1.40001
1.40001
1.40001
1.40001
2.74274
5.10346
5.30825
5.21516
1.40001
1.40001
1.40001
1.40001
1.40001
1.40001
1.40001
1.40001
1.40001
1.40001
1.40001
1.40001
1.40001
1.40001
1.40001
1.40001
1.40001
1.40001
1.40001
1.40001
2.42173
5.04282
5.37473
5.25775
1.40001
1.40001
1.40001
1.40001
1.40001
1.40001
1.40001
1.40001
1.40001
1.40001
1.40001
1.40001
1.40001
1.40001
1.40001
1.40001
1.40001
1.40001
1.40001
1.40001
2.15175
4.93948
5.43299
5.30136
1.40001
1.40001
1.40001
1.40001
1.40001
1.40001
1.40001
1.40001
1.40001
1.40001
1.40001
1.40001
1.40001
1.40001
1.40001
1.40001
1.40001
1.40001
1.40001
1.40001
1.94962
4.81783
5.46089
5.32443
1.40001
1.40001
1.40001
1.40001
1.40001
1.40001
1.40001
1.40001
1.40001
1.40001
1.40001
1.40001
1.40001
1.40001
1.40001
1.40001
1.40001
1.40001
1.40001
1.40001
1.79535
4.70812
5.46305
5.32809
1.40001
1.40001
1.40001
1.40001
1.40001
1.40001
1.40001
1.40001
1.40001
1.40001
1.40001
1.40001
1.40001
1.40001
1.40001
1.40001
1.40001
1.40001
1.40001
1.40001
1.70352
4.60491
5.4529
5.32216
1.40001
1.40001
1.40001
1.40001
1.40001
1.40001
1.40001
1.40001
1.40001
1.40001
1.40001
1.40001
1.40001
1.40001
1.40001
1.40001
1.40001
1.40001
1.40001
1.40001
1.6533
4.5266
5.43671
5.31451
1.40001
1.40001
1.40001
1.40001
1.40001
1.40001
1.40001
1.40001
1.40001
1.40001
1.40001
1.40001
1.40001
1.40001
1.40001
1.40001
1.40001
1.40001
1.40001
1.40001
1.62151
4.47723
5.42814
5.31411
1.40001
1.40001
1.40001
1.40001
1.40001
1.40001
1.40001
1.40001
1.40001
1.40001
1.40001
1.40001
1.40001
1.40001
1.40001
1.40001
1.40001
1.40001
1.40001
1.40001
1.60629
4.45064
5.41792
5.31076
1.37824
1.16898
1.27299
1.40779
1.5155
1.56201
1.58254
1.58664
1.60991
1.64066
1.65194
1.63662
1.61952
1.6257
1.65676
1.68996
1.71243
1.73337
1.76385
1.79901
1.84475
1.89739
1.95392
2.01125
2.06657
2.1169
2.16022
2.19733
2.23116
2.26472
2.29908
2.33307
2.36493
2.39148
2.41237
2.42856
2.44141
2.4505
2.45468
2.45093
2.44
2.42547
2.41221
2.4016
2.39183
2.38052
2.36751
2.35449
2.34222
2.33
2.31558
2.29631
2.27333
2.25074
2.23099
2.21422
2.19791
2.17817
2.1542
2.12966
2.10792
2.09197
2.08267
2.07484
2.06821
2.07086
2.11617
2.22456
2.32413
2.36078
2.37411
2.37578
2.36441
2.35001
2.33656
2.3246
2.31292
2.30091
2.28907
2.27899
2.27215
2.26979
2.27332
2.27972
2.28418
2.28425
2.28216
2.27956
2.27775
2.27708
2.27871
2.28195
2.28299
2.28161
2.27692
2.27155
2.06087
1.75976
1.7111
1.60129
1.60094
1.60893
1.60097
1.59173
1.60329
1.62714
1.64075
1.63255
1.62071
1.62351
1.64723
1.67149
1.69098
1.71556
1.74905
1.79168
1.84112
1.892
1.9425
1.99371
2.04599
2.09931
2.15158
2.20023
2.24234
2.27553
2.30299
2.33104
2.36249
2.39467
2.4213
2.4372
2.44342
2.44675
2.45206
2.45757
2.45796
2.44884
2.43333
2.41929
2.40962
2.4011
2.38764
2.36932
2.35169
2.33882
2.32965
2.31811
2.29791
2.27219
2.24682
2.22493
2.20797
2.19356
2.17447
2.14773
2.1199
2.09589
2.08062
2.07784
2.08262
2.09567
2.13685
2.23559
2.32731
2.36755
2.38348
2.38634
2.37702
2.35962
2.34315
2.32883
2.31656
2.30776
2.30217
2.29814
2.29316
2.28642
2.27933
2.27459
2.27307
2.27667
2.28128
2.28392
2.28514
2.28611
2.28788
2.29024
2.29312
2.29678
2.29994
2.29924
2.55597
2.06061
2.04836
1.80106
1.71629
1.66812
1.64403
1.62125
1.60309
1.60599
1.61364
1.61181
1.60538
1.61179
1.62783
1.64547
1.66073
1.68246
1.71692
1.76615
1.82632
1.88916
1.95088
2.00592
2.05407
2.10193
2.15633
2.21876
2.28379
2.34072
2.38118
2.40875
2.43321
2.46265
2.49631
2.52574
2.53971
2.53883
2.53302
2.53086
2.53326
2.53363
2.52171
2.50308
2.48771
2.47796
2.46901
2.45104
2.42657
2.40424
2.38767
2.3764
2.3647
2.3437
2.31641
2.28749
2.26171
2.24158
2.22786
2.21168
2.18766
2.16054
2.13663
2.12439
2.12604
2.14295
2.18768
2.28099
2.38667
2.43614
2.44566
2.43534
2.42398
2.41252
2.39895
2.38318
2.36344
2.34544
2.33546
2.3338
2.34037
2.34445
2.34024
2.32953
2.31363
2.30209
2.29949
2.3019
2.30756
2.31155
2.31229
2.30965
2.30624
2.30758
2.31557
2.33257
2.88055
2.27052
2.2996
2.20882
2.08978
2.0127
1.87217
1.73745
1.65977
1.63133
1.62029
1.61091
1.5945
1.60649
1.62132
1.64562
1.6709
1.69769
1.72831
1.76986
1.82728
1.90174
1.98881
2.07412
2.14484
2.20019
2.24799
2.29839
2.35825
2.42781
2.49284
2.53533
2.55926
2.57914
2.60292
2.63286
2.66042
2.67132
2.66702
2.65865
2.65369
2.65565
2.65139
2.63126
2.60813
2.59154
2.58122
2.56823
2.5456
2.51633
2.4902
2.47103
2.45574
2.43699
2.41342
2.38559
2.35167
2.3233
2.30218
2.28391
2.26552
2.24789
2.23176
2.21927
2.22064
2.23548
2.27011
2.34278
2.4495
2.52826
2.54283
2.51948
2.49849
2.48525
2.47897
2.46864
2.45355
2.43353
2.41272
2.40133
2.3987
2.40279
2.40758
2.40661
2.40281
2.39529
2.3851
2.37959
2.38123
2.3854
2.38984
2.391
2.38784
2.37876
2.37152
2.37457
3.06024
2.4877
2.41196
2.42649
2.4007
2.35201
2.18004
1.93377
1.78251
1.74806
1.73285
1.71518
1.67911
1.66511
1.66809
1.69304
1.73665
1.78753
1.83901
1.89058
1.94834
2.01662
2.09892
2.19753
2.29517
2.37181
2.42693
2.47045
2.5157
2.57171
2.6387
2.69773
2.72914
2.74522
2.75919
2.77533
2.79642
2.81122
2.8125
2.80618
2.79975
2.7966
2.78906
2.77195
2.7458
2.72707
2.71554
2.6994
2.67874
2.6529
2.62309
2.59815
2.57559
2.55367
2.53238
2.50897
2.48048
2.44579
2.41188
2.38696
2.36844
2.35698
2.34981
2.34734
2.35458
2.37545
2.39716
2.43533
2.50545
2.59555
2.65316
2.65215
2.61445
2.58518
2.56719
2.55832
2.55286
2.54491
2.53345
2.5165
2.4982
2.48989
2.48883
2.48968
2.49127
2.49217
2.49022
2.48311
2.47471
2.47343
2.47664
2.48305
2.48913
2.49036
2.48609
2.46925
3.21429
2.71356
2.47058
2.47875
2.4831
2.51468
2.47069
2.28207
2.07184
2.00597
2.02477
2.01695
1.94933
1.8743
1.84756
1.85259
1.88312
1.93414
2.00658
2.07573
2.13223
2.18844
2.25361
2.34078
2.4445
2.52688
2.57933
2.616
2.65015
2.69355
2.75535
2.81829
2.84642
2.85667
2.86484
2.8781
2.90062
2.91281
2.90608
2.89004
2.87932
2.87615
2.87783
2.86649
2.84099
2.81681
2.80389
2.79118
2.77327
2.75038
2.72033
2.68841
2.66489
2.64244
2.61905
2.59342
2.56475
2.53219
2.50094
2.47616
2.46379
2.45948
2.46416
2.47228
2.48896
2.511
2.52499
2.5348
2.5612
2.61249
2.68007
2.7297
2.73082
2.70947
2.66972
2.64204
2.63168
2.62892
2.62874
2.6214
2.60433
2.58542
2.57774
2.57777
2.58115
2.58646
2.58999
2.58993
2.58205
2.57245
2.57098
2.57352
2.57929
2.5845
2.58492
2.57125
3.32475
2.92683
2.56171
2.47971
2.48463
2.51557
2.53807
2.50786
2.41712
2.35753
2.42382
2.49483
2.43728
2.32836
2.23727
2.18542
2.17318
2.18997
2.25312
2.30737
2.32889
2.36282
2.41721
2.49137
2.58261
2.64783
2.67792
2.70175
2.72872
2.76798
2.82548
2.8728
2.89394
2.9068
2.91919
2.93649
2.95775
2.9602
2.94744
2.92972
2.92304
2.92558
2.92872
2.91776
2.89476
2.86392
2.84728
2.83635
2.8244
2.80712
2.78228
2.74812
2.71402
2.68642
2.66396
2.64455
2.62178
2.59513
2.56661
2.54386
2.53809
2.54375
2.56424
2.5849
2.61382
2.62743
2.62649
2.61712
2.61291
2.62252
2.65442
2.70431
2.76147
2.77756
2.7611
2.73957
2.71319
2.69482
2.68952
2.68824
2.68216
2.66906
2.65587
2.65216
2.65405
2.66015
2.66722
2.67096
2.67118
2.66512
2.65794
2.65647
2.65744
2.6593
2.65806
2.64704
3.4046
3.08268
2.72493
2.51429
2.4748
2.50252
2.56419
2.63489
2.7094
2.76083
2.82358
2.90649
2.88771
2.79077
2.65888
2.54304
2.45814
2.43582
2.4563
2.47281
2.47147
2.48844
2.52922
2.58845
2.66811
2.71792
2.74095
2.75879
2.7809
2.8122
2.85824
2.89913
2.92254
2.93969
2.9557
2.97381
2.99065
2.99138
2.97731
2.95757
2.94981
2.95364
2.95891
2.94741
2.92609
2.89437
2.87382
2.86516
2.85861
2.84205
2.81878
2.78599
2.74668
2.72064
2.69881
2.67833
2.65751
2.63994
2.6196
2.60713
2.61014
2.6298
2.6588
2.68276
2.70796
2.71028
2.69961
2.67866
2.65696
2.6413
2.63951
2.66091
2.71199
2.75984
2.79228
2.80106
2.78466
2.76125
2.74027
2.72934
2.7241
2.7215
2.71646
2.71053
2.70922
2.71108
2.71639
2.72338
2.72718
2.72835
2.72383
2.71532
2.71102
2.7092
2.70685
2.70297
3.47055
3.17841
2.88645
2.62405
2.50145
2.54462
2.6573
2.83384
3.02469
3.109
3.13438
3.17702
3.18913
3.14748
3.02013
2.89027
2.7663
2.67333
2.64317
2.63615
2.61544
2.60314
2.62096
2.65903
2.71879
2.7551
2.7725
2.78261
2.79711
2.81947
2.85365
2.89468
2.92195
2.94027
2.95583
2.97246
2.98643
2.98995
2.98158
2.96415
2.954
2.95449
2.95553
2.94616
2.93229
2.90928
2.88344
2.87087
2.86035
2.84416
2.82364
2.79541
2.76425
2.73596
2.7117
2.69717
2.68328
2.674
2.67011
2.67512
2.69104
2.72396
2.74326
2.75648
2.76491
2.75763
2.74003
2.71623
2.69085
2.66297
2.64073
2.63699
2.65571
2.70379
2.75452
2.79726
2.80573
2.80339
2.78822
2.76849
2.75918
2.75526
2.75567
2.75386
2.7481
2.74664
2.74891
2.75498
2.7626
2.76516
2.76444
2.75677
2.74625
2.74105
2.73971
2.74265
3.52678
3.26636
3.03094
2.8146
2.67989
2.73156
2.84733
3.01132
3.17817
3.28193
3.33318
3.37752
3.41848
3.41639
3.30423
3.16369
3.0469
2.90919
2.82093
2.79131
2.75667
2.72001
2.7147
2.72939
2.75695
2.77953
2.79287
2.79493
2.80109
2.81819
2.84409
2.88077
2.90786
2.92314
2.93493
2.94762
2.96079
2.97164
2.97166
2.96054
2.94452
2.93709
2.93451
2.93236
2.92434
2.91055
2.88584
2.86393
2.84952
2.83205
2.81132
2.78878
2.76826
2.74336
2.71548
2.70301
2.70002
2.70591
2.72218
2.74212
2.77155
2.79963
2.80008
2.79635
2.78874
2.77423
2.75478
2.73333
2.70905
2.68082
2.65018
2.62997
2.63128
2.64719
2.6905
2.74609
2.78696
2.80759
2.81085
2.80147
2.79238
2.78746
2.78453
2.78335
2.77944
2.77287
2.77241
2.7754
2.78234
2.78832
2.78938
2.78642
2.77771
2.77123
2.77075
2.77493
3.59437
3.39104
3.23729
3.13
3.02801
3.00664
3.01549
3.08382
3.2074
3.34363
3.43137
3.49861
3.59421
3.62373
3.53378
3.3636
3.23684
3.1214
2.98908
2.90938
2.87716
2.83877
2.80866
2.80628
2.81116
2.81406
2.8158
2.81151
2.81134
2.82235
2.84141
2.87208
2.89349
2.9018
2.90519
2.91216
2.92505
2.94198
2.95418
2.95115
2.93285
2.91726
2.91291
2.91477
2.91402
2.90338
2.88213
2.85454
2.83504
2.81639
2.79785
2.78266
2.7668
2.74573
2.72559
2.72114
2.72856
2.75314
2.78747
2.81361
2.84183
2.84635
2.83599
2.81896
2.80113
2.78177
2.76109
2.74153
2.72006
2.69671
2.66923
2.64113
2.62761
2.62961
2.64353
2.67753
2.72932
2.77749
2.81055
2.81487
2.82076
2.8181
2.81541
2.81237
2.80784
2.80173
2.79589
2.79568
2.79849
2.80446
2.80935
2.81007
2.80843
2.80378
2.80196
2.80385
3.72087
3.62608
3.57087
3.50526
3.3674
3.23944
3.17143
3.13504
3.19373
3.31374
3.45077
3.56368
3.69283
3.79537
3.73141
3.57237
3.40506
3.29368
3.16164
3.0513
3.0114
2.97015
2.91233
2.87897
2.86804
2.85607
2.84714
2.83854
2.83383
2.83846
2.84989
2.87112
2.88611
2.88974
2.88635
2.8859
2.89471
2.91298
2.93413
2.94001
2.92887
2.90756
2.89915
2.90039
2.90291
2.89258
2.87136
2.84374
2.82245
2.80561
2.79264
2.78075
2.76732
2.75037
2.74972
2.76025
2.78435
2.8249
2.85369
2.87651
2.88565
2.87858
2.8631
2.84205
2.81833
2.79304
2.76924
2.74913
2.72985
2.71099
2.69191
2.66883
2.64437
2.63174
2.63288
2.64852
2.67675
2.72155
2.7749
2.81401
2.83025
2.84518
2.84548
2.84418
2.84022
2.83409
2.82823
2.82184
2.82045
2.82274
2.82764
2.83424
2.83647
2.83614
2.83343
2.83123
4.00361
3.98639
3.94061
3.8225
3.63302
3.44936
3.34096
3.26113
3.21529
3.28084
3.40428
3.5498
3.72973
3.89718
3.91421
3.78339
3.59171
3.44761
3.33374
3.21183
3.14323
3.09505
3.02597
2.95681
2.92742
2.90958
2.89417
2.88087
2.87178
2.87104
2.87421
2.8846
2.89123
2.88998
2.8826
2.87752
2.88084
2.89276
2.91347
2.92577
2.923
2.9075
2.89738
2.89725
2.89758
2.88412
2.85917
2.83245
2.81324
2.80288
2.79805
2.79074
2.78304
2.78678
2.80338
2.82886
2.86407
2.89991
2.91432
2.92164
2.9158
2.90315
2.88536
2.86473
2.84068
2.81296
2.78562
2.76314
2.74495
2.72968
2.7167
2.7022
2.68196
2.65678
2.64334
2.646
2.65864
2.68478
2.72671
2.78142
2.82528
2.85444
2.87085
2.87749
2.87756
2.87297
2.86567
2.85745
2.84994
2.8489
2.85174
2.85778
2.86453
2.86601
2.86499
2.85844
4.35482
4.29355
4.2014
4.047
3.85074
3.66383
3.54126
3.45042
3.33705
3.2909
3.34429
3.47763
3.6833
3.9211
4.01485
3.96364
3.80229
3.62436
3.51032
3.39542
3.28212
3.21241
3.13619
3.05331
3.01425
2.99134
2.96828
2.94562
2.92118
2.91155
2.90809
2.90717
2.90265
2.89578
2.88774
2.88083
2.88044
2.8852
2.89744
2.90963
2.91025
2.90195
2.89423
2.89453
2.89271
2.87548
2.84819
2.82334
2.80681
2.80282
2.80679
2.81323
2.82352
2.84757
2.88058
2.91357
2.94924
2.96223
2.96089
2.95288
2.93935
2.92236
2.90392
2.88479
2.86235
2.83641
2.80771
2.78055
2.76314
2.75287
2.74422
2.73476
2.7225
2.70186
2.67287
2.659
2.66131
2.67381
2.70118
2.74203
2.79185
2.83693
2.8743
2.89282
2.90996
2.91284
2.90893
2.89807
2.88567
2.87665
2.87696
2.88092
2.88887
2.89329
2.89265
2.88502
4.67292
4.5234
4.39051
4.23127
4.04474
3.8714
3.75743
3.66043
3.5317
3.39734
3.36404
3.42097
3.57927
3.855
4.03599
4.06996
3.99277
3.83505
3.68584
3.57377
3.44138
3.32762
3.2438
3.15943
3.11197
3.08688
3.05713
3.02683
2.99385
2.96598
2.95035
2.93757
2.92339
2.91028
2.89914
2.89215
2.89141
2.8888
2.88875
2.89409
2.89268
2.88846
2.88377
2.8832
2.87984
2.85811
2.83825
2.82373
2.8137
2.8165
2.82795
2.84792
2.87817
2.9211
2.95527
2.9861
3.0021
2.99995
2.99174
2.97758
2.95849
2.93542
2.91417
2.89562
2.87534
2.85434
2.82897
2.79906
2.78265
2.77449
2.76793
2.76218
2.75373
2.74065
2.71558
2.68725
2.67902
2.68119
2.69461
2.72046
2.75412
2.7959
2.84408
2.88263
2.90792
2.92967
2.94315
2.93892
2.92765
2.91047
2.89975
2.8996
2.90445
2.91224
2.91413
2.90892
4.8876
4.70261
4.56859
4.42295
4.2462
4.08071
3.97799
3.88199
3.74525
3.58458
3.48184
3.45256
3.50949
3.68732
3.9733
4.10452
4.10675
4.02698
3.88312
3.74514
3.60986
3.46337
3.36853
3.29134
3.23257
3.19482
3.15403
3.11158
3.07248
3.03382
3.00065
2.97432
2.95005
2.9292
2.91402
2.90619
2.90398
2.89428
2.88646
2.88483
2.87669
2.87102
2.86556
2.86199
2.85249
2.83075
2.82837
2.82885
2.83428
2.84811
2.87032
2.90137
2.9403
2.97875
3.00567
3.02272
3.02078
3.01218
2.9981
2.98066
2.96051
2.93875
2.91623
2.89685
2.87802
2.86258
2.84499
2.82063
2.79785
2.78681
2.77955
2.77467
2.76934
2.76096
2.74511
2.71883
2.69999
2.69458
2.6978
2.70985
2.72997
2.75472
2.79289
2.84291
2.88422
2.91715
2.94022
2.95747
2.9586
2.94949
2.93166
2.91803
2.91696
2.92043
2.9269
2.92476
5.04748
4.85713
4.7404
4.61365
4.44543
4.2886
4.19288
4.10494
3.9616
3.79752
3.67235
3.58078
3.54035
3.59156
3.78179
4.02755
4.13974
4.14345
4.07212
3.92884
3.77692
3.62558
3.50976
3.43547
3.36583
3.30825
3.253
3.19649
3.147
3.10253
3.05915
3.02035
2.9866
2.9582
2.93616
2.92251
2.91242
2.89541
2.88389
2.87703
2.86213
2.85749
2.84169
2.82346
2.81145
2.81131
2.82206
2.83857
2.86142
2.89214
2.92721
2.96421
2.99917
3.01983
3.02915
3.02588
3.0195
3.0092
2.99051
2.96952
2.94861
2.92138
2.89303
2.87978
2.87251
2.86354
2.85091
2.83584
2.81661
2.79543
2.7851
2.77917
2.77551
2.76953
2.75916
2.74461
2.72599
2.71293
2.70627
2.70993
2.71963
2.7296
2.74641
2.78103
2.82936
2.87543
2.91512
2.94672
2.96168
2.96358
2.95815
2.94419
2.93281
2.92994
2.9325
2.92848
5.20729
5.03068
4.93087
4.81055
4.63867
4.48304
4.39087
4.3065
4.16864
4.00614
3.88391
3.78359
3.67907
3.61982
3.66498
3.83543
4.05477
4.17505
4.17276
4.09678
3.95887
3.81254
3.67642
3.58064
3.50108
3.42441
3.3509
3.27819
3.21252
3.1598
3.11153
3.06568
3.0253
2.99021
2.96008
2.93453
2.91057
2.88146
2.86823
2.85636
2.84415
2.83169
2.80694
2.79104
2.78716
2.79588
2.81979
2.85203
2.89171
2.93558
2.97552
3.00931
3.03349
3.03878
3.03345
3.01979
2.99968
2.98363
2.96905
2.95369
2.93563
2.91095
2.88163
2.86396
2.85723
2.85233
2.85092
2.84415
2.8308
2.80964
2.78646
2.77386
2.76786
2.76647
2.76766
2.76452
2.75743
2.74334
2.72501
2.71461
2.71684
2.72393
2.72745
2.73845
2.76477
2.80928
2.85988
2.90422
2.93885
2.95925
2.96082
2.95762
2.9469
2.93664
2.93027
2.92715
5.27411
5.14383
5.07468
4.96919
4.81062
4.66905
4.57471
4.48825
4.35605
4.19371
4.08295
3.98534
3.87424
3.75181
3.67455
3.71406
3.8731
4.08886
4.18258
4.15306
4.08941
3.98812
3.85893
3.7331
3.62883
3.53436
3.4417
3.35447
3.2755
3.21195
3.15937
3.11067
3.06557
3.02292
2.9825
2.94489
2.90746
2.88011
2.86302
2.83562
2.81185
2.79298
2.77221
2.76729
2.77643
2.80012
2.83749
2.88185
2.92811
2.96416
2.99458
3.0192
3.0307
3.03009
3.01508
2.97991
2.94756
2.92769
2.9201
2.91712
2.90971
2.89795
2.87527
2.84961
2.83985
2.8356
2.83361
2.83169
2.82598
2.81424
2.79132
2.77594
2.77243
2.77241
2.77789
2.77953
2.77517
2.76528
2.74659
2.72783
2.71975
2.72049
2.7255
2.72792
2.73536
2.75341
2.788
2.83839
2.88297
2.91783
2.94568
2.95118
2.94855
2.93694
2.92603
2.91853
5.26317
5.20632
5.16611
5.07199
4.92642
4.79374
4.71162
4.63645
4.51533
4.36424
4.25168
4.16776
4.043
3.91824
3.77017
3.71149
3.74503
3.8792
4.07251
4.14211
4.11289
4.06468
3.99049
3.88172
3.75561
3.63404
3.51985
3.41756
3.329
3.25492
3.1962
3.14464
3.09452
3.04516
2.99644
2.94964
2.90577
2.87122
2.83846
2.79915
2.76611
2.745
2.74043
2.75007
2.7748
2.81697
2.86972
2.91489
2.95004
2.97033
2.98785
3.00618
3.00704
2.98984
2.95786
2.92387
2.89492
2.87708
2.87312
2.87565
2.87562
2.86882
2.85638
2.83529
2.8171
2.8108
2.80735
2.80679
2.80697
2.80374
2.79671
2.78307
2.77112
2.76666
2.76589
2.77095
2.773
2.76831
2.75775
2.74102
2.72494
2.71779
2.71517
2.71643
2.71775
2.72232
2.73317
2.76122
2.80904
2.85048
2.88987
2.91971
2.92835
2.92544
2.91466
2.90337
5.22367
5.18205
5.13521
5.06495
4.95763
4.84869
4.77192
4.70115
4.59075
4.44879
4.33432
4.27532
4.18705
4.05703
3.90477
3.76887
3.73214
3.7412
3.84048
3.99941
4.05537
4.04688
4.00048
3.92481
3.83286
3.71603
3.59121
3.47535
3.38676
3.30959
3.24518
3.18914
3.13188
3.07193
3.01282
2.95652
2.90355
2.85858
2.81596
2.77808
2.74459
2.7245
2.72732
2.74443
2.78511
2.84244
2.89276
2.92745
2.94398
2.95058
2.9438
2.93822
2.92883
2.9097
2.88721
2.8708
2.85318
2.83541
2.82454
2.82187
2.82109
2.81943
2.81675
2.8087
2.79171
2.77761
2.77278
2.77085
2.7721
2.77814
2.77958
2.77609
2.76602
2.75576
2.75132
2.75035
2.75415
2.75604
2.75189
2.74279
2.7273
2.71374
2.70608
2.69952
2.69555
2.69347
2.69598
2.70366
2.72673
2.76796
2.81207
2.85406
2.87954
2.88416
2.88385
2.87878
5.14424
5.10274
5.05367
4.98731
4.89861
4.81585
4.75335
4.69923
4.6055
4.47437
4.36664
4.29525
4.21394
4.09715
3.96575
3.81941
3.71573
3.67828
3.6842
3.76333
3.8778
3.94033
3.94328
3.89664
3.81796
3.71669
3.60128
3.48297
3.37735
3.29271
3.22184
3.15681
3.09215
3.02623
2.96101
2.8997
2.84842
2.80652
2.774
2.75294
2.73711
2.72442
2.73209
2.76173
2.81185
2.86496
2.8985
2.90871
2.90176
2.88484
2.8693
2.85902
2.84686
2.82755
2.81646
2.8124
2.80334
2.79033
2.77347
2.75973
2.75606
2.75553
2.75832
2.75935
2.75531
2.74578
2.7367
2.73428
2.73464
2.74019
2.7474
2.74872
2.74576
2.73757
2.73069
2.72784
2.72764
2.73053
2.7294
2.72435
2.71425
2.70062
2.69032
2.6817
2.67348
2.66644
2.66028
2.66088
2.66596
2.68631
2.72046
2.7622
2.80501
2.82756
2.83987
2.84273
5.13441
5.07646
5.01147
4.93573
4.85633
4.78766
4.73129
4.66421
4.55774
4.44174
4.34813
4.28281
4.21452
4.11193
3.98325
3.86011
3.74387
3.65957
3.60439
3.59795
3.65574
3.74221
3.82155
3.82257
3.77318
3.69493
3.59345
3.48566
3.38469
3.29812
3.22184
3.14874
3.07657
3.00357
2.93138
2.86623
2.81321
2.77645
2.75569
2.74677
2.73812
2.73966
2.76048
2.80253
2.8421
2.86117
2.86116
2.85214
2.83331
2.81502
2.80407
2.79393
2.77456
2.75053
2.74182
2.74047
2.74015
2.73546
2.72583
2.71061
2.70205
2.70152
2.70395
2.70909
2.71117
2.70992
2.70404
2.69998
2.70115
2.70579
2.71356
2.71812
2.71794
2.71362
2.70738
2.70454
2.70377
2.70581
2.70519
2.70062
2.69261
2.67996
2.66913
2.66163
2.65366
2.64467
2.63658
2.62957
2.62418
2.62719
2.64234
2.66889
2.7057
2.74965
2.78239
2.80107
5.1595
5.08637
5.01019
4.92999
4.85359
4.78215
4.71168
4.62412
4.51852
4.41651
4.33403
4.27569
4.20151
4.09379
3.9712
3.87077
3.76958
3.67121
3.58913
3.51778
3.50008
3.54103
3.62606
3.70096
3.69799
3.654
3.57301
3.47763
3.38336
3.29535
3.21329
3.13386
3.05571
2.97914
2.90663
2.84415
2.79457
2.76722
2.75574
2.75514
2.75389
2.76702
2.80653
2.84314
2.84588
2.83513
2.81196
2.7884
2.76826
2.75552
2.74847
2.73581
2.71215
2.68622
2.67667
2.67617
2.68379
2.68821
2.68509
2.67438
2.65975
2.65576
2.65635
2.66204
2.67149
2.67541
2.67606
2.67477
2.67664
2.6803
2.68549
2.69116
2.69244
2.68976
2.68494
2.68238
2.68125
2.68164
2.68209
2.67834
2.67133
2.66072
2.65149
2.64479
2.63827
2.6301
2.62068
2.60978
2.59739
2.59003
2.59251
2.6048
2.62544
2.66224
2.70404
2.74717
5.19457
5.11866
5.04102
4.96338
4.88775
4.81002
4.72312
4.62469
4.52305
4.43039
4.35919
4.29241
4.1962
4.07995
3.96886
3.88366
3.80284
3.70443
3.60782
3.50586
3.43002
3.41319
3.45053
3.53388
3.59318
3.59283
3.5488
3.47238
3.38651
3.29642
3.20676
3.12175
3.04114
2.96693
2.90039
2.84565
2.80368
2.77815
2.76953
2.77918
2.80487
2.83827
2.85866
2.855
2.83533
2.80035
2.76403
2.73628
2.71948
2.70987
2.69977
2.68362
2.65994
2.63711
2.62922
2.63259
2.64515
2.65099
2.64927
2.64197
2.62834
2.62223
2.62515
2.635
2.64834
2.65652
2.66114
2.66373
2.66435
2.66643
2.66837
2.67197
2.67508
2.67507
2.67418
2.67254
2.67032
2.66835
2.66698
2.66386
2.65836
2.65173
2.64565
2.63948
2.63186
2.62239
2.61091
2.59827
2.58624
2.5766
2.57138
2.57045
2.57568
2.59346
2.62263
2.6754
5.23236
5.15324
5.07639
4.99987
4.92042
4.83377
4.73861
4.64074
4.5489
4.47256
4.40619
4.31465
4.19937
4.08126
3.99149
3.92349
3.84902
3.74914
3.63336
3.51694
3.43191
3.38254
3.36042
3.38822
3.45142
3.48852
3.49797
3.45793
3.38961
3.30256
3.20745
3.11666
3.03548
2.96608
2.90842
2.86611
2.83604
2.80963
2.82054
2.84829
2.87366
2.88772
2.87689
2.85246
2.81499
2.76915
2.72965
2.70403
2.68653
2.67218
2.65669
2.63782
2.61877
2.6069
2.60296
2.60734
2.61232
2.61282
2.6122
2.61109
2.60998
2.61004
2.61557
2.62592
2.63676
2.64422
2.64921
2.65283
2.65314
2.65336
2.65616
2.66105
2.66699
2.66974
2.66997
2.66782
2.66373
2.6596
2.65682
2.65461
2.65134
2.64725
2.64221
2.63555
2.62687
2.61665
2.60606
2.59548
2.585
2.57274
2.5607
2.54845
2.54056
2.54311
2.55708
2.60327
5.25607
5.18039
5.10614
5.02808
4.94578
4.8585
4.76876
4.68066
4.59775
4.52094
4.43413
4.32352
4.20773
4.11564
4.04048
3.97014
3.88371
3.7778
3.65845
3.54812
3.46104
3.39414
3.34609
3.31049
3.31734
3.35447
3.3989
3.4161
3.37946
3.30759
3.21588
3.12357
3.04174
2.97854
2.93574
2.90813
2.89676
2.89197
2.90574
2.92032
2.92348
2.9039
2.87444
2.83701
2.79173
2.74716
2.7126
2.68637
2.66405
2.6428
2.62132
2.60283
2.59337
2.59046
2.59032
2.58718
2.5816
2.58002
2.58247
2.5896
2.60225
2.61033
2.61421
2.61955
2.62518
2.63041
2.63457
2.63735
2.641
2.64558
2.65195
2.65952
2.66381
2.66537
2.66455
2.66104
2.65683
2.65286
2.64997
2.6478
2.64523
2.64193
2.63735
2.63134
2.62417
2.61635
2.60764
2.59735
2.58316
2.56624
2.54965
2.53453
2.52456
2.51913
2.52199
2.54894
5.26484
5.19299
5.12081
5.04389
4.96333
4.87984
4.7954
4.71151
4.63013
4.54597
4.44486
4.33625
4.2396
4.15861
4.08488
4.0008
3.90254
3.79041
3.68289
3.58952
3.50479
3.42548
3.35634
3.29044
3.23285
3.23383
3.27171
3.32508
3.3342
3.29538
3.22183
3.13841
3.06467
3.01271
2.98483
2.9836
2.98937
2.98905
2.99092
2.97803
2.94566
2.90599
2.86276
2.81598
2.77087
2.73438
2.70438
2.67764
2.65266
2.62495
2.59694
2.58367
2.57849
2.57867
2.57738
2.57124
2.56183
2.55993
2.56443
2.5756
2.59311
2.60453
2.60892
2.61005
2.61053
2.61496
2.62065
2.62716
2.63579
2.646
2.65502
2.65962
2.66135
2.66143
2.66027
2.65888
2.65703
2.65408
2.65063
2.64737
2.64373
2.64019
2.63643
2.63158
2.6258
2.61945
2.61069
2.59654
2.57795
2.55965
2.54434
2.53046
2.52078
2.51269
2.51086
2.51555
5.26122
5.19174
5.12178
5.0477
4.97067
4.89129
4.81071
4.72905
4.64546
4.55266
4.45165
4.35389
4.26663
4.18998
4.11274
4.01667
3.90866
3.80021
3.70925
3.62758
3.54651
3.46188
3.37495
3.28783
3.20583
3.16131
3.16151
3.20158
3.24292
3.24691
3.21115
3.15343
3.10165
3.0716
3.07235
3.08072
3.07865
3.06917
3.05006
3.01092
2.96094
2.90697
2.85141
2.79819
2.75556
2.72607
2.69999
2.67534
2.64865
2.6152
2.58483
2.57316
2.5693
2.5693
2.5659
2.56035
2.55185
2.5506
2.55638
2.56883
2.58445
2.59256
2.59709