/*--------------------------------*- C++ -*----------------------------------*\
  =========                 |
  \\      /  F ield         | OpenFOAM: The Open Source CFD Toolbox
   \\    /   O peration     | Website:  https://openfoam.org
    \\  /    A nd           | Version:  7
     \\/     M anipulation  |
\*---------------------------------------------------------------------------*/
FoamFile
{
    version     2.0;
    format      ascii;
    class       volScalarField;
    location    "13";
    object      T;
}
// * * * * * * * * * * * * * * * * * * * * * * * * * * * * * * * * * * * * * //

dimensions      [0 0 0 1 0 0 0];

internalField   nonuniform List<scalar> 
4032
(
1
1
1
1
1
1
1
1
1
1
1
1.1718
2.41286
2.7165
2.72745
2.74313
2.75654
2.76903
2.7803
2.79023
2.79891
2.80588
2.81119
2.81506
1
1
1
1
1
1
1
1
1
1
1
1.15433
2.39887
2.7154
2.72683
2.74174
2.75488
2.7671
2.77803
2.78747
2.79558
2.80197
2.80667
2.81033
1
1
1
1
1
1
1
1
1
1
1
1.10109
2.36128
2.71259
2.72369
2.73867
2.75191
2.76409
2.77484
2.7839
2.79141
2.79714
2.8009
2.80399
1
1
1
1
1
1
1
1
1
1
1
1.0073
2.29363
2.70477
2.71874
2.73387
2.74667
2.75803
2.76812
2.77672
2.78395
2.78935
2.79244
2.79478
1
1
1
1
1
1
1
1
1
1
1
1.00006
2.21181
2.68908
2.70812
2.72374
2.73713
2.74853
2.75829
2.76606
2.77181
2.77566
2.77722
2.77987
1
1
1
1
1
1
1
1
1
1
1
1
2.09772
2.67044
2.6989
2.71325
2.72638
2.73697
2.74572
2.75263
2.75781
2.76073
2.75881
2.75253
1
1
1
1
1
1
1
1
1
1
1
1
1.93985
2.63525
2.68307
2.69872
2.71203
2.72186
2.72909
2.73375
2.73506
2.73106
2.72217
2.71376
1
1
1
1
1
1
1
1
1
1
1
1
1.7233
2.56565
2.65644
2.67971
2.69514
2.7051
2.71041
2.71157
2.70848
2.70269
2.69724
2.7097
1
1
1
1
1
1
1
1
1
1
1
1
1.4121
2.4421
2.62994
2.65546
2.67336
2.68424
2.68767
2.68603
2.6773
2.65776
2.60603
2.50854
1
1
1
1
1
1
1
1
1
1
1
1
1.05178
2.30962
2.63029
2.63228
2.64266
2.65276
2.6563
2.65268
2.63918
2.6051
2.54735
2.3834
1
1
1
1
1
1
1
1
1
1
1
1
1.00062
2.14196
2.58937
2.59754
2.60859
2.61514
2.61845
2.61358
2.59822
2.55953
2.49458
2.3142
1
1
1
1
1
1
1
1
1
1
1
1
0.999994
1.83553
2.52538
2.58222
2.58981
2.58848
2.58614
2.57731
2.55814
2.51968
2.44776
2.29412
1
1
1
1
1
1
1
1
1
1
1
1
0.999998
1.37725
2.38233
2.56371
2.56323
2.56123
2.55535
2.5422
2.51899
2.48105
2.40868
2.29209
1
1
1
1
1
1
1
1
1
1
1
1
1
1.03899
2.19745
2.5234
2.5331
2.53181
2.52541
2.5106
2.48616
2.44642
2.37921
2.28993
1
1
1
1
1
1
1
1
1
1
1
1
1
1.00024
1.8322
2.44086
2.51141
2.50792
2.4998
2.48221
2.4573
2.41545
2.35673
2.28397
1
1
1
1
1
1
1
1
1
1
1
1
1
0.999998
1.24506
2.28228
2.49169
2.47826
2.46959
2.45373
2.42726
2.39014
2.33981
2.27885
1
1
1
1
1
1
1
1
1
1
1
1
1
1
1.01387
2.08563
2.44213
2.43271
2.43055
2.41995
2.39892
2.3672
2.32383
2.27133
1
1
1
1
1
1
1
1
1
1
1
1
1
1
1.00001
1.58871
2.32618
2.41321
2.40621
2.39317
2.37307
2.344
2.30604
2.26073
1
1
1
1
1
1
1
1
1
1
1
1
1
1
0.999998
1.09005
2.11778
2.39145
2.38314
2.36767
2.34624
2.31881
2.28516
2.24712
1
1
1
1
1
1
1
1
1
1
1
1
1
1
0.999999
1.0016
1.66895
2.27834
2.36091
2.34095
2.32053
2.29453
2.2649
2.23665
1
1
1
1
1
1
1
1
1
1
1
1
1
1
1
1
1.13143
2.0791
2.33584
2.31418
2.29638
2.27274
2.25076
2.251
1
1
1
1
1
1
1
1
1
1
1
1
1
1
1
1
1.00361
1.63086
2.20825
2.28835
2.26772
2.25333
2.26082
2.29087
1
1
1
1
1
1
1
1
1
1
1
1
1
1
1
1
1.00001
1.12033
1.98719
2.26087
2.25225
2.26714
2.31269
2.35493
1
1
1
1
1
1
1
1
1
1
1
1
1
1
1
1
1
1.00312
1.47084
2.09328
2.22936
2.30828
2.36477
2.37873
1
1
1
1
1
1
1
1
1
1
1
1
1
1
1
1
1
1.00001
1.06336
1.81514
2.2477
2.37101
2.39273
2.37213
1
1
1
1
1
1
1
1
1
1
1
1
1
1
1
1
1
1
1.00104
1.28363
2.26109
2.43337
2.39976
2.37117
1
1
1
1
1
1
1
1
1
1
1
1
1
1
1
1
1
1
1
1.09958
2.35481
2.52137
2.45986
2.40732
1
1
1
1
1
1
1
1
1
1
1
1
1
1
1
1
1
1
1
1.04426
2.32537
2.59773
2.52943
2.47261
1
1
1
1
1
1
1
1
1
1
1
1
1
1
1
1
1
1
1
1.00176
2.23229
2.66051
2.61104
2.56643
1
1
1
1
1
1
1
1
1
1
1
1
1
1
1
1
1
1
1
1.00001
2.1173
2.65688
2.64765
2.62026
1
1
1
1
1
1
1
1
1
1
1
1
1
1
1
1
1
1
1
1
1.97003
2.63137
2.65293
2.63437
1
1
1
1
1
1
1
1
1
1
1
1
1
1
1
1
1
1
1
1
1.81633
2.58548
2.6528
2.63517
1
1
1
1
1
1
1
1
1
1
1
1
1
1
1
1
1
1
1
1
1.66477
2.54044
2.6493
2.62878
1
1
1
1
1
1
1
1
1
1
1
1
1
1
1
1
1
1
1
1
1.52996
2.50737
2.648
2.62423
1
1
1
1
1
1
1
1
1
1
1
1
1
1
1
1
1
1
1
1
1.41926
2.48285
2.65252
2.62639
1
1
1
1
1
1
1
1
1
1
1
1
1
1
1
1
1
1
1
1
1.32004
2.45857
2.66066
2.63354
1
1
1
1
1
1
1
1
1
1
1
1
1
1
1
1
1
1
1
1
1.25931
2.43886
2.66837
2.642
1
1
1
1
1
1
1
1
1
1
1
1
1
1
1
1
1
1
1
1
1.22388
2.42263
2.67249
2.64803
1
1
1
1
1
1
1
1
1
1
1
1
1
1
1
1
1
1
1
1
1.19827
2.40863
2.67396
2.65113
1
1
1
1
1
1
1
1
1
1
1
1
1
1
1
1
1
1
1
1
1.18687
2.40202
2.67286
2.6512
1.77228
2.00348
2.4284
2.69531
2.81672
2.84495
2.83708
2.79697
2.75664
2.72579
2.68708
2.64229
2.61023
2.59757
2.59987
2.60452
2.60309
2.60036
2.60382
2.61175
2.6266
2.64578
2.66734
2.68842
2.70712
2.72209
2.73288
2.74024
2.74549
2.74994
2.75442
2.75887
2.76229
2.76376
2.76334
2.76163
2.75936
2.7565
2.75161
2.74306
2.73186
2.71948
2.7077
2.69721
2.68725
2.67669
2.66545
2.65428
2.64361
2.63307
2.62143
2.60748
2.59184
2.57631
2.56205
2.5493
2.53696
2.52318
2.50767
2.4921
2.47802
2.46699
2.45946
2.45325
2.44559
2.44359
2.46288
2.50907
2.54902
2.56327
2.56255
2.56056
2.55193
2.54233
2.53309
2.52397
2.51468
2.50526
2.49644
2.48906
2.48362
2.4808
2.48079
2.48187
2.48241
2.48112
2.47941
2.47788
2.47639
2.47496
2.47406
2.47303
2.4706
2.46679
2.46275
2.45767
1.96506
2.09693
2.42797
2.64161
2.78861
2.84922
2.84134
2.80277
2.76133
2.72928
2.69221
2.65015
2.61808
2.60278
2.60105
2.60101
2.59853
2.59772
2.60203
2.61284
2.62817
2.64445
2.66076
2.67648
2.69152
2.70631
2.72025
2.73148
2.73788
2.73933
2.73794
2.73623
2.73621
2.73716
2.73679
2.73267
2.72485
2.71671
2.71073
2.70609
2.70014
2.69016
2.67824
2.6671
2.658
2.64971
2.63946
2.62709
2.61484
2.60462
2.5962
2.58677
2.57346
2.55756
2.54158
2.52701
2.51476
2.50389
2.49111
2.47519
2.45909
2.44487
2.43453
2.43049
2.42868
2.43242
2.44901
2.49066
2.52745
2.5444
2.54346
2.54207
2.53573
2.52563
2.51557
2.50567
2.49622
2.48833
2.48245
2.47809
2.47388
2.46948
2.46483
2.4611
2.45915
2.45981
2.46161
2.46308
2.46367
2.46363
2.46327
2.46256
2.46174
2.46119
2.4606
2.45749
1.98718
2.01537
2.19822
2.3016
2.50258
2.68385
2.77562
2.78809
2.76371
2.72644
2.68805
2.65082
2.6216
2.60589
2.59948
2.59562
2.5902
2.58647
2.58871
2.60002
2.61791
2.63645
2.65127
2.65984
2.66327
2.66518
2.66937
2.67688
2.68515
2.68966
2.68752
2.67884
2.66906
2.66265
2.65921
2.65555
2.64721
2.63375
2.62037
2.61159
2.60697
2.60259
2.59362
2.58319
2.57438
2.56819
2.56272
2.55361
2.54157
2.53005
2.52101
2.51441
2.50751
2.4963
2.48199
2.46655
2.45225
2.44059
2.4319
2.42226
2.40944
2.39544
2.3825
2.37471
2.37395
2.37907
2.39575
2.43364
2.4761
2.49696
2.49461
2.48852
2.48287
2.47702
2.46973
2.46076
2.44964
2.43908
2.432
2.42995
2.43162
2.43247
2.42979
2.4242
2.41733
2.41315
2.41277
2.41483
2.41881
2.42194
2.42308
2.42256
2.42158
2.42209
2.42449
2.42942
2.0728
1.95559
2.01616
2.08538
2.20537
2.40054
2.55839
2.64515
2.68314
2.68532
2.67347
2.6477
2.61616
2.6063
2.59872
2.5963
2.59144
2.58286
2.57327
2.56765
2.56765
2.57425
2.58467
2.5914
2.59063
2.58123
2.56656
2.55449
2.54931
2.54983
2.55097
2.54634
2.5345
2.5223
2.5134
2.50825
2.50384
2.49568
2.48211
2.47021
2.46359
2.46155
2.45743
2.44878
2.44042
2.43468
2.43164
2.42789
2.42065
2.41063
2.40128
2.39451
2.38917
2.38213
2.37278
2.36137
2.34725
2.33511
2.3257
2.31716
2.30851
2.30044
2.29334
2.28787
2.28808
2.29259
2.30369
2.32958
2.3696
2.40023
2.40267
2.39453
2.38716
2.38244
2.38005
2.37572
2.36913
2.36041
2.35147
2.34677
2.34579
2.34727
2.34896
2.34899
2.34884
2.34765
2.34543
2.3451
2.34834
2.35371
2.35919
2.36303
2.36408
2.36314
2.36195
2.36434
2.14666
1.97404
1.9842
2.00661
2.0432
2.13036
2.23215
2.31225
2.40705
2.50891
2.58179
2.60951
2.58975
2.56877
2.5522
2.54343
2.5371
2.52731
2.51022
2.48762
2.46548
2.44648
2.43543
2.43438
2.43508
2.43054
2.41675
2.39995
2.38795
2.3834
2.38467
2.38681
2.38313
2.37457
2.36711
2.36193
2.35982
2.35706
2.34935
2.33874
2.33236
2.32937
2.32499
2.31847
2.31078
2.30626
2.30419
2.30097
2.29671
2.29061
2.28237
2.27528
2.269
2.2631
2.25742
2.25073
2.24167
2.22967
2.2175
2.20846
2.20194
2.19784
2.19551
2.19492
2.19734
2.20419
2.20988
2.2205
2.24326
2.27501
2.2956
2.29664
2.28533
2.27716
2.27249
2.27034
2.26922
2.26712
2.2636
2.25799
2.25205
2.25012
2.25033
2.25198
2.25453
2.25686
2.25823
2.25851
2.25878
2.26203
2.2684
2.27534
2.28182
2.28629
2.28778
2.28657
2.18879
2.03928
1.97776
1.98253
1.99159
2.02195
2.07005
2.0926
2.13632
2.23224
2.35507
2.46569
2.45538
2.42901
2.40458
2.38267
2.36588
2.35235
2.33948
2.31872
2.29397
2.27274
2.25588
2.25153
2.25645
2.25962
2.2555
2.24648
2.2403
2.23968
2.24499
2.25311
2.25273
2.24853
2.24578
2.24581
2.24918
2.2506
2.24531
2.23528
2.22885
2.22658
2.22607
2.22117
2.21351
2.20756
2.20496
2.20257
2.19901
2.19413
2.18666
2.17799
2.17188
2.16629
2.1607
2.15447
2.14684
2.13715
2.12726
2.11946
2.11591
2.11446
2.11612
2.11885
2.12427
2.13095
2.13432
2.13518
2.14143
2.15761
2.18102
2.19682
2.20365
2.19748
2.18634
2.17911
2.17704
2.17706
2.1776
2.17584
2.17095
2.16589
2.16475
2.16561
2.16859
2.17237
2.17578
2.17793
2.17801
2.17815
2.1811
2.18664
2.19276
2.19834
2.20181
2.20237
2.20495
2.10115
1.99335
1.97086
1.97475
1.99002
2.00774
2.02229
2.03803
2.07619
2.16586
2.28192
2.29994
2.27991
2.24966
2.22148
2.19426
2.18144
2.17911
2.16599
2.14154
2.13291
2.12889
2.12868
2.13769
2.14444
2.14291
2.14075
2.14117
2.14591
2.15816
2.16646
2.16757
2.16773
2.16885
2.17309
2.17953
2.1802
2.17574
2.16909
2.16611
2.16622
2.16636
2.16162
2.15438
2.14598
2.14158
2.13877
2.13588
2.13187
2.1258
2.1167
2.10731
2.09975
2.09407
2.0897
2.08431
2.07728
2.06887
2.06151
2.05926
2.06091
2.06734
2.07347
2.08208
2.08529
2.08415
2.07975
2.07647
2.07907
2.08861
2.10448
2.12501
2.13181
2.12906
2.12508
2.11794
2.11259
2.11138
2.11123
2.10969
2.10636
2.10331
2.10298
2.10467
2.10804
2.11159
2.11439
2.11608
2.11605
2.11617
2.11814
2.12161
2.12532
2.12735
2.12863
2.20866
2.13165
2.03355
1.97325
1.9642
1.97357
1.99533
2.02609
2.06087
2.09696
2.14283
2.19441
2.2181
2.20135
2.17018
2.13587
2.10528
2.08769
2.08228
2.07194
2.05519
2.05499
2.05804
2.06377
2.07726
2.08533
2.08771
2.08931
2.09243
2.09964
2.1121
2.12242
2.12726
2.13023
2.13313
2.13741
2.14257
2.14309
2.13923
2.13345
2.13131
2.13229
2.13329
2.12903
2.12176
2.11233
2.10646
2.10404
2.10228
2.09772
2.09121
2.08175
2.07065
2.06384
2.05811
2.0526
2.04714
2.04277
2.03698
2.03204
2.03257
2.0384
2.04679
2.05314
2.05919
2.0592
2.05519
2.04787
2.04022
2.03507
2.03317
2.03943
2.05473
2.07009
2.08151
2.0876
2.08364
2.07728
2.07144
2.06807
2.06648
2.06611
2.06505
2.06366
2.06367
2.06494
2.06726
2.07011
2.07214
2.07336
2.07295
2.07187
2.07205
2.07347
2.07486
2.07691
2.20976
2.14104
2.06733
1.99422
1.96647
1.98199
2.01783
2.0708
2.12607
2.15192
2.16591
2.18525
2.2044
2.19839
2.16973
2.13656
2.10117
2.0713
2.05644
2.04673
2.03439
2.02981
2.03361
2.04011
2.05149
2.05849
2.06176
2.06342
2.06638
2.07227
2.08196
2.0935
2.10055
2.10449
2.10736
2.11068
2.11393
2.11499
2.11268
2.10756
2.1044
2.10454
2.10482
2.10189
2.09716
2.08986
2.08201
2.07813
2.07492
2.06997
2.06373
2.05538
2.04652
2.03892
2.03224
2.02795
2.02402
2.02195
2.02053
2.02179
2.02635
2.03565
2.04027
2.04299
2.04353
2.0409
2.03487
2.02688
2.01858
2.00955
2.00238
2
2.00541
2.01943
2.03423
2.04802
2.05254
2.05362
2.04927
2.04361
2.04095
2.03996
2.04008
2.03947
2.03776
2.03748
2.03848
2.04058
2.04308
2.04414
2.04422
2.04255
2.04028
2.03988
2.04057
2.04324
2.20882
2.14987
2.09368
2.03779
2.00823
2.02639
2.06317
2.11351
2.16185
2.18949
2.20175
2.21112
2.22361
2.2234
2.19539
2.15974
2.12863
2.09103
2.06482
2.05339
2.04147
2.03235
2.03139
2.03539
2.04253
2.0472
2.04956
2.04957
2.05104
2.05522
2.06169
2.07152
2.07845
2.08182
2.08395
2.08605
2.08791
2.0895
2.08933
2.08576
2.0804
2.07783
2.07709
2.07637
2.07381
2.06922
2.0614
2.05447
2.04971
2.04402
2.03761
2.03108
2.02521
2.01789
2.00964
2.0062
2.00587
2.00795
2.01326
2.01914
2.02735
2.03459
2.03351
2.03064
2.02693
2.02188
2.01541
2.00831
2.00053
1.99158
1.98188
1.97499
1.97434
1.97874
1.99119
2.00729
2.01957
2.02704
2.02931
2.02709
2.02479
2.02321
2.02218
2.02173
2.02044
2.01841
2.01828
2.01922
2.0212
2.02287
2.02322
2.02252
2.02037
2.01905
2.01937
2.02125
2.20783
2.16642
2.13434
2.1129
2.09108
2.09016
2.0949
2.11805
2.15532
2.19199
2.21636
2.23319
2.25704
2.2644
2.24142
2.19789
2.16441
2.13234
2.09498
2.07223
2.06304
2.05208
2.04346
2.04304
2.04464
2.04498
2.04484
2.04215
2.04148
2.04371
2.04744
2.05412
2.05893
2.06036
2.0603
2.06094
2.06222
2.06422
2.06628
2.06498
2.05872
2.05338
2.05163
2.05182
2.05121
2.04736
2.04058
2.03227
2.02606
2.01997
2.01385
2.00898
2.00401
1.99739
1.99135
1.99132
1.99388
2.00158
2.01175
2.0188
2.02618
2.02647
2.02237
2.01557
2.0091
2.0027
1.99604
1.98971
1.98292
1.97562
1.96697
1.958
1.95243
1.95243
1.956
1.96577
1.9808
1.99496
2.0054
2.00813
2.01059
2.0095
2.00835
2.00735
2.00605
2.00422
2.0024
2.00227
2.00296
2.00444
2.00561
2.00577
2.00535
2.00425
2.00402
2.00468
2.21653
2.20537
2.20097
2.19265
2.16431
2.13484
2.1206
2.11553
2.13276
2.16782
2.20632
2.23595
2.27002
2.29565
2.28106
2.24235
2.19966
2.17016
2.13476
2.10465
2.09353
2.08168
2.06452
2.05334
2.04894
2.04515
2.04233
2.03818
2.03403
2.0342
2.03523
2.03835
2.0399
2.03934
2.03631
2.03518
2.03591
2.03791
2.04128
2.04198
2.03766
2.03015
2.02675
2.02663
2.02683
2.02304
2.01619
2.00805
2.00157
1.99601
1.99149
1.98746
1.98284
1.97769
1.97773
1.98118
1.98855
2.00013
2.00764
2.01375
2.0153
2.01263
2.00706
1.99978
1.99211
1.98422
1.97672
1.97028
1.96419
1.95834
1.95229
1.94487
1.93689
1.93167
1.93152
1.93532
1.94331
1.95637
1.97195
1.9837
1.98943
1.99458
1.99382
1.99329
1.99214
1.99047
1.98897
1.98716
1.98666
1.98712
1.98813
1.98967
1.99022
1.99019
1.98964
1.98932
2.25814
2.26912
2.26632
2.24716
2.20906
2.1692
2.14638
2.12799
2.12014
2.13864
2.17309
2.21385
2.26094
2.30384
2.30695
2.27774
2.23203
2.19618
2.16782
2.13647
2.11742
2.10348
2.08329
2.06184
2.05156
2.04551
2.04035
2.03468
2.02822
2.0247
2.02321
2.02309
2.02224
2.01898
2.01402
2.01013
2.00983
2.01076
2.01356
2.01493
2.0129
2.00657
2.00252
2.00195
2.00153
1.99652
1.98856
1.98108
1.97563
1.97186
1.96971
1.96694
1.96411
1.96508
1.96943
1.97618
1.98537
1.99512
1.99926
2.00079
1.99857
1.99407
1.9881
1.98146
1.97402
1.96568
1.95746
1.95058
1.94495
1.94017
1.93594
1.93107
1.92447
1.9166
1.91143
1.91157
1.91449
1.9217
1.93374
1.94926
1.96182
1.97091
1.97615
1.978
1.97769
1.97637
1.97472
1.97283
1.97077
1.97042
1.97098
1.97232
1.97403
1.97449
1.97435
1.97315
2.31505
2.31345
2.30386
2.27576
2.23721
2.20001
2.17567
2.15594
2.12948
2.12321
2.13747
2.17245
2.22551
2.28768
2.31012
2.2979
2.26151
2.21961
2.19258
2.1649
2.13532
2.11512
2.09303
2.06874
2.05566
2.04749
2.03966
2.03126
2.02101
2.01419
2.00956
2.00589
2.00132
1.99659
1.99168
1.98656
1.98391
1.98318
1.98385
1.98468
1.98331
1.97859
1.97528
1.97498
1.97393
1.96768
1.95914
1.95231
1.94781
1.94564
1.9458
1.94684
1.94946
1.95586
1.96413
1.97198
1.98098
1.98448
1.98413
1.9818
1.97771
1.97247
1.96676
1.96076
1.95376
1.94595
1.93771
1.93017
1.92521
1.92195
1.91893
1.91559
1.91143
1.90499
1.89606
1.89096
1.89105
1.89401
1.90153
1.91303
1.92677
1.93908
1.95013
1.95586
1.96124
1.96242
1.96128
1.95866
1.95566
1.95328
1.95342
1.95447
1.95655
1.95776
1.95769
1.95639
2.35108
2.33483
2.31726
2.28983
2.25582
2.22419
2.20352
2.18438
2.15571
2.12549
2.12122
2.13476
2.17442
2.2419
2.29008
2.29799
2.28013
2.24477
2.21033
2.18389
2.15098
2.12001
2.09595
2.07193
2.05692
2.04772
2.03768
2.02712
2.01492
2.00322
1.9947
1.98734
1.97997
1.97339
1.96762
1.963
1.95987
1.95617
1.95358
1.95315
1.95079
1.94754
1.94532
1.94485
1.94335
1.93618
1.92985
1.92536
1.92205
1.92191
1.92414
1.92943
1.93789
1.9493
1.95747
1.96437
1.9683
1.96758
1.96527
1.96163
1.95681
1.95075
1.94463
1.93873
1.93216
1.92557
1.9183
1.91047
1.90657
1.90451
1.90237
1.90016
1.89718
1.89295
1.88548
1.87672
1.87332
1.8736
1.87717
1.88462
1.89412
1.90545
1.91828
1.92894
1.93702
1.94376
1.94841
1.94736
1.94431
1.93997
1.93744
1.93749
1.93886
1.94095
1.94151
1.94065
2.35466
2.33328
2.31718
2.29652
2.26878
2.24155
2.22492
2.2079
2.18019
2.14391
2.12205
2.11705
2.12954
2.17206
2.23913
2.27535
2.2768
2.25931
2.22691
2.19462
2.16164
2.12433
2.09818
2.07634
2.05916
2.04717
2.03429
2.02048
2.00676
1.9927
1.97995
1.96911
1.95912
1.95047
1.94386
1.93942
1.93639
1.9312
1.92672
1.92444
1.92038
1.91775
1.91551
1.91399
1.9108
1.90458
1.90281
1.90181
1.90309
1.90687
1.91322
1.92201
1.93221
1.94148
1.94821
1.95208
1.95142
1.949
1.94527
1.94082
1.93541
1.92908
1.92246
1.91706
1.91213
1.90781
1.9028
1.89637
1.89085
1.88853
1.887
1.88561
1.88374
1.88093
1.87634
1.86912
1.86346
1.86149
1.86215
1.86553
1.87161
1.87886
1.88932
1.90246
1.9132
1.92229
1.92947
1.9352
1.93596
1.93357
1.92868
1.92556
1.92548
1.92656
1.92824
1.92801
2.34318
2.32414
2.31326
2.29804
2.27412
2.25027
2.23623
2.22258
2.1959
2.16199
2.13402
2.11593
2.10725
2.11725
2.16088
2.21805
2.24479
2.25133
2.23562
2.20209
2.16692
2.13008
2.10029
2.07991
2.06092
2.04497
2.02916
2.01246
1.99688
1.98238
1.96813
1.95494
1.94312
1.93313
1.9255
1.92055
1.91653
1.91024
1.90563
1.90256
1.89726
1.89466
1.88902
1.88415
1.88097
1.88095
1.88358
1.88818
1.89482
1.90327
1.91236
1.92173
1.93053
1.93641
1.9398
1.93918
1.93732
1.93447
1.92952
1.92368
1.91732
1.90911
1.901
1.89814
1.89744
1.89628
1.89367
1.88978
1.88461
1.87929
1.87704
1.87591
1.87511
1.87353
1.87063
1.8665
1.86158
1.85845
1.85653
1.85752
1.86049
1.8638
1.86895
1.87826
1.89067
1.90222
1.91198
1.92062
1.92612
1.92719
1.92565
1.9222
1.91996
1.91976
1.92059
1.92004
2.34237
2.32317
2.31474
2.30111
2.2766
2.25259
2.2397
2.2277
2.20399
2.17264
2.14728
2.12594
2.10506
2.09198
2.1004
2.13895
2.18631
2.21534
2.22021
2.20465
2.17415
2.14055
2.10731
2.08299
2.06262
2.04353
2.02536
2.00662
1.98892
1.97392
1.95981
1.94617
1.93397
1.92355
1.91509
1.90833
1.90238
1.89522
1.89165
1.88755
1.88263
1.87757
1.86969
1.86737
1.86743
1.87
1.87683
1.8858
1.89633
1.90703
1.91624
1.92437
1.93175
1.93614
1.93533
1.93193
1.92634
1.92163
1.91767
1.91395
1.90972
1.90323
1.89536
1.89132
1.89011
1.88969
1.8903
1.88934
1.88587
1.87993
1.87408
1.87132
1.87012
1.8698
1.86983
1.86837
1.86639
1.86326
1.859
1.85651
1.85715
1.85935
1.86099
1.86491
1.8726
1.88401
1.89633
1.90695
1.9157
1.92188
1.92348
1.92278
1.92055
1.91863
1.91749
1.91746
2.36002
2.33484
2.32363
2.30692
2.28194
2.25984
2.24609
2.23319
2.21049
2.17978
2.15801
2.13858
2.11545
2.09057
2.07489
2.0834
2.11818
2.16247
2.18729
2.18465
2.17394
2.15348
2.12327
2.09286
2.06792
2.04604
2.0251
2.00515
1.9867
1.97122
1.95754
1.94438
1.93236
1.92169
1.91243
1.90435
1.89676
1.89191
1.88794
1.87998
1.87231
1.86671
1.86272
1.86325
1.8661
1.87301
1.8837
1.89529
1.90672
1.91617
1.92453
1.9312
1.93647
1.93686
1.93357
1.92531
1.91736
1.91205
1.90986
1.90946
1.90827
1.90566
1.89988
1.89307
1.89014
1.88907
1.88916
1.8894
1.88843
1.88532
1.87921
1.87518
1.87446
1.87444
1.87582
1.87642
1.8753
1.87239
1.86751
1.86312
1.86141
1.86188
1.86375
1.86542
1.86841
1.87393
1.88345
1.89622
1.9071
1.91558
1.92325
1.92548
1.92485
1.92208
1.91974
1.9182
2.42359
2.38864
2.36564
2.33787
2.30699
2.28147
2.26573
2.25116
2.2281
2.19914
2.17799
2.16131
2.13558
2.10821
2.07828
2.06765
2.07634
2.10753
2.14887
2.16661
2.16556
2.1591
2.14377
2.11918
2.09019
2.06223
2.0365
2.0134
1.99312
1.97617
1.96254
1.95038
1.93881
1.92803
1.91796
1.90879
1.90033
1.89311
1.88531
1.87518
1.86746
1.86224
1.86267
1.86594
1.8732
1.88585
1.90122
1.91402
1.92419
1.93103
1.93679
1.94226
1.94289
1.93888
1.93138
1.92387
1.91719
1.91325
1.91231
1.91288
1.9128
1.9111
1.9078
1.90179
1.89672
1.89524
1.89462
1.89474
1.89504
1.8944
1.89214
1.88792
1.88453
1.88361
1.88367
1.88554
1.88622
1.88489
1.88223
1.87819
1.87434
1.87286
1.87257
1.87304
1.87381
1.87583
1.87967
1.88841
1.90198
1.91258
1.92228
1.93004
1.93202
1.9313
1.92873
1.92558
2.51973
2.47733
2.43997
2.40443
2.36691
2.33418
2.31114
2.29129
2.26548
2.23528
2.21164
2.19902
2.17969
2.15243
2.11914
2.09262
2.08529
2.08977
2.11743
2.15398
2.16598
2.16772
2.15909
2.14348
2.1239
2.09907
2.07184
2.04608
2.02605
2.00836
1.99376
1.98094
1.96775
1.95404
1.94073
1.92836
1.91659
1.90625
1.89641
1.88767
1.88035
1.87488
1.87554
1.88079
1.89378
1.91166
1.92811
1.93939
1.9453
1.94868
1.9482
1.94719
1.94497
1.94068
1.93579
1.93246
1.92853
1.92421
1.92168
1.92105
1.92076
1.92016
1.91915
1.9167
1.91214
1.90854
1.9073
1.90675
1.90694
1.90802
1.90804
1.90643
1.90331
1.90063
1.89967
1.89953
1.90082
1.90169
1.90088
1.89869
1.89484
1.89152
1.88974
1.88807
1.88726
1.88706
1.88809
1.89126
1.89884
1.91115
1.92352
1.9344
1.94091
1.942
1.94201
1.93995
2.58792
2.55399
2.51868
2.48052
2.44143
2.40707
2.37981
2.35721
2.32878
2.29549
2.26876
2.25155
2.2326
2.2071
2.17864
2.14683
2.12344
2.11424
2.11906
2.14181
2.16878
2.1825
2.1824
2.17224
2.15578
2.13501
2.11066
2.08506
2.06128
2.04148
2.02454
2.00855
1.99248
1.97624
1.96037
1.94543
1.93283
1.9229
1.91532
1.91074
1.90672
1.90347
1.90588
1.91535
1.93134
1.94904
1.96129
1.96658
1.96542
1.96221
1.95937
1.95749
1.95513
1.9509
1.94868
1.94808
1.94601
1.94265
1.93801
1.93401
1.93269
1.9324
1.93302
1.93321
1.93205
1.92937
1.92668
1.92561
1.92531
1.92595
1.92723
1.9273
1.92619
1.92383
1.922
1.92136
1.92145
1.92241
1.92207
1.92076
1.91822
1.91473
1.91211
1.90999
1.9081
1.90651
1.90517
1.90537
1.90714
1.91375
1.92437
1.93671
1.94843
1.95437
1.95789
1.95707
2.6184
2.59735
2.57151
2.54093
2.509
2.47997
2.45464
2.42773
2.39433
2.36133
2.33466
2.31559
2.29679
2.27137
2.24195
2.21343
2.1868
2.16621
2.15053
2.15318
2.16948
2.1898
2.20573
2.20578
2.19396
2.17529
2.15217
2.12768
2.10412
2.08326
2.06435
2.04597
2.0276
2.00918
1.99114
1.97464
1.96079
1.9511
1.9453
1.94291
1.9411
1.94215
1.94952
1.96284
1.97724
1.98467
1.98743
1.98579
1.98176
1.97786
1.97589
1.97412
1.97001
1.96435
1.96214
1.9617
1.96158
1.96012
1.95683
1.95181
1.94924
1.94915
1.95
1.95151
1.95189
1.95119
1.9489
1.94705
1.94685
1.9471
1.9486
1.94977
1.94966
1.9484
1.94672
1.94595
1.94574
1.94631
1.94607
1.94464
1.94227
1.93878
1.93591
1.934
1.93197
1.92969
1.92775
1.9259
1.92468
1.92573
1.93045
1.93859
1.94929
1.96187
1.97059
1.97492
2.62435
2.60821
2.5894
2.56834
2.54671
2.52537
2.503
2.47634
2.44623
2.4172
2.39279
2.37422
2.35269
2.3247
2.29446
2.26998
2.24524
2.22145
2.20031
2.18211
2.17891
2.18959
2.20883
2.22525
2.22367
2.21173
2.19101
2.16743
2.14397
2.12162
2.10055
2.07983
2.05896
2.0384
2.01894
2.00209
1.98863
1.98077
1.97672
1.97652
1.97806
1.98319
1.99619
2.00752
2.01273
2.01015
2.00449
1.99861
1.99363
1.99089
1.98986
1.98735
1.9817
1.9745
1.97139
1.97105
1.97305
1.97409
1.97261
1.96859
1.96426
1.96338
1.96374
1.96573
1.96833
1.96881
1.96846
1.96718
1.9672
1.96733
1.96815
1.96981
1.97038
1.96972
1.96841
1.96754
1.967
1.96697
1.96698
1.96562
1.96335
1.96028
1.95778
1.95601
1.95426
1.95199
1.94944
1.9465
1.94301
1.94105
1.94178
1.94547
1.95198
1.96296
1.97491
1.98591
2.61941
2.6064
2.5923
2.57724
2.56132
2.54359
2.52284
2.49925
2.47481
2.45162
2.43205
2.41264
2.38726
2.3587
2.3318
2.31031
2.28936
2.26473
2.24087
2.21473
2.19426
2.1895
2.19975
2.21985
2.23343
2.23118
2.21768
2.19839
2.17603
2.15219
2.1285
2.10577
2.08352
2.06251
2.04361
2.02804
2.01613
2.0082
2.00604
2.00939
2.01815
2.02927
2.03724
2.03729
2.03296
2.02371
2.01344
2.00539
2.00057
1.99795
1.99562
1.99211
1.98618
1.97924
1.97628
1.97686
1.97974
1.98115
1.98061
1.97853
1.97455
1.97271
1.97365
1.97693
1.98102
1.98311
1.98387
1.98404
1.98373
1.98386
1.98406
1.98504
1.98629
1.98646
1.98625
1.98565
1.98464
1.98375
1.98315
1.98199
1.98017
1.97819
1.97648
1.97478
1.97264
1.96991
1.96652
1.96282
1.95922
1.95635
1.95477
1.9549
1.95673
1.96245
1.97141
1.98622
2.61463
2.60227
2.58946
2.57568
2.56055
2.54334
2.52429
2.50402
2.484
2.46659
2.45062
2.42892
2.40221
2.37496
2.35366
2.33628
2.31715
2.29235
2.26376
2.23494
2.21226
2.19783
2.19266
2.20046
2.21711
2.22633
2.22515
2.21352
2.19543
2.17247
2.14683
2.12221
2.09982
2.08024
2.06379
2.05152
2.04269
2.03538
2.03891
2.04728
2.05497
2.06068
2.05862
2.05226
2.0418
2.0289
2.01712
2.00906
2.0036
1.99948
1.9954
1.99051
1.98519
1.98144
1.9798
1.9807
1.98146
1.9813
1.98116
1.98131
1.98126
1.98119
1.98269
1.9859
1.9891
1.99115
1.99238
1.99313
1.99306
1.99301
1.99372
1.99525
1.99719
1.99813
1.99821
1.99752
1.99601
1.99442
1.99343
1.99265
1.99156
1.9903
1.98882
1.98681
1.98415
1.98109
1.97799
1.97479
1.9715
1.96772
1.96419
1.96056
1.95822
1.95929
1.96377
1.9787
2.61488
2.60156
2.58833
2.57421
2.55888
2.54209
2.52432
2.5064
2.48911
2.47297
2.45471
2.43116
2.40597
2.38481
2.36658
2.34959
2.32908
2.30371
2.2745
2.24696
2.22494
2.20743
2.19455
2.18517
2.18734
2.19842
2.21177
2.21243
2.20252
2.18304
2.15849
2.13332
2.11086
2.09338
2.08116
2.07332
2.07054
2.0699
2.07385
2.07759
2.07922
2.07417
2.06602
2.05527
2.04242
2.0295
2.01905
2.01087
2.00408
1.99807
1.99194
1.9863
1.9833
1.98234
1.98238
1.9814
1.97946
1.97873
1.97934
1.98134
1.98528
1.98797
1.98926
1.99082
1.9924
1.99376
1.99481
1.99549
1.9965
1.998
2.00009
2.00245
2.00369
2.00411
2.00381
2.00265
2.00123
1.99978
1.99873
1.99806
1.99733
1.9964
1.99507
1.9933
1.99111
1.98864
1.98594
1.98261
1.97815
1.97302
1.96812
1.96356
1.9603
1.95886
1.9598
1.96894
2.62024
2.6057
2.5915
2.5764
2.56037
2.54351
2.52632
2.50928
2.49266
2.47541
2.45429
2.43116
2.40991
2.39149
2.37466
2.35565
2.33323
2.3066
2.28031
2.25709
2.23588
2.21605
2.19822
2.181
2.16571
2.16624
2.17792
2.19368
2.19484
2.18412
2.16421
2.1418
2.12164
2.10723
2.09913
2.09955
2.10173
2.10188
2.1023
2.09853
2.08944
2.07836
2.06577
2.05246
2.03947
2.02854
2.01944
2.01138
2.00398
1.99578
1.98726
1.98315
1.9817
1.9819
1.9817
1.97986
1.9766
1.9759
1.97721
1.98053
1.986
1.98994
1.99152
1.99183
1.99191
1.99295
1.99432
1.99611
1.99873
2.00192
2.0047
2.00617
2.00671
2.00672
2.00635
2.00581
2.00513
2.00408
2.00292
2.00197
2.00099
2.00003
1.99896
1.99752
1.9958
1.99375
1.99074
1.98612
1.98032
1.97484
1.97036
1.96637
1.96361
1.96129
1.96038
1.96237
2.62864
2.61362
2.5986
2.58274
2.56635
2.54958
2.53262
2.51546
2.49779
2.47788
2.45599
2.43479
2.41574
2.39907
2.38194
2.35979
2.3346
2.30889
2.28696
2.26701
2.24684
2.22543
2.20325
2.18067
2.15897
2.14682
2.14718
2.15938
2.17062
2.17283
2.16292
2.14733
2.13332
2.12496
2.12531
2.128
2.12765
2.1252
2.11984
2.10885
2.09482
2.07946
2.06364
2.04825
2.03571
2.0269
2.01906
2.01168
2.00371
1.99361
1.98435
1.98096
1.98009
1.98034
1.97932
1.97738
1.97467
1.97431
1.97623
1.98037
1.98548
1.98809
1.9895
1.98971
1.98994
1.99162
1.99398
1.99768
2.00151
2.00422
2.00586
2.00689
2.00743
2.00811
2.00873
2.00873
2.00838
2.00763
2.00649
2.00527
2.00398
2.00276
2.00171
2.00039
1.99841
1.99568
1.9919
1.98711
1.98205
1.97718
1.97258
1.96863
1.9661
1.96363
1.96167
1.95854
2.63542
2.62071
2.60573
2.59005
2.57397
2.55741
2.54037
2.52267
2.50366
2.48303
2.46209
2.442
2.42381
2.40722
2.38645
2.36233
2.33679
2.3149
2.29492
2.27535
2.2545
2.23156
2.2059
2.18008
2.15798
2.14121
2.13058
2.12916
2.13586
2.14914
2.1515
2.1476
2.14777
2.15117
2.15706
2.15311
2.14739
2.14123
2.1284
2.11321
2.09709
2.08007
2.06221
2.04569
2.03381
2.02529
2.01781
2.01075
2.00266
1.99236
1.98371
1.98012
1.97879
1.97829
1.97699
1.97552
1.97325
1.97279
1.97426
1.97768
1.98151
1.98349
1.98512
1.98624
1.98826
1.99091
1.99471
1.99963
2.0029
2.00455
2.00563
2.00652
2.00766
2.00929
2.01071
2.0112
2.01112
2.0105
2.00933
2.00809
2.00675
2.00511
2.00326
2.00136
1.9989
1.99556
1.99149
1.98753
1.98381
1.98022
1.97649
1.97242
1.9681
1.96418
1.96092
1.95462
2.63916
2.62502
2.61061
2.59539
2.57956
2.56305
2.5458
2.52766
2.5085
2.4888
2.46906
2.44953
2.43084
2.40995
2.38581
2.36197
2.34077
2.32134
2.30223
2.28151
2.25871
2.23373
2.20746
2.18124
2.15891
2.14041
2.12518
2.11315
2.10872
2.11762
2.13323
2.14919
2.16791
2.1817
2.18313
2.17279
2.16095
2.14699
2.13053
2.1137
2.09734
2.08034
2.06218
2.04533
2.03335
2.02453
2.01696
2.00969
2.00189
1.99124
1.98343
1.98073
1.97942
1.97831
1.97692
1.97506
1.97229
1.9716
1.9728
1.97551
1.97817
1.98012
1.98219
1.98459
1.98749
1.99091
1.99574
2.00028
2.00235
2.00354
2.00449
2.00582
2.00765
2.0104
2.01222
2.01282
2.01282
2.01222
2.0112
2.01016
2.00892
2.00728
2.00492
2.00158
1.99793
1.99442
1.99106
1.98804
1.98547
1.98311
1.98027
1.97661
1.97155
1.96529
1.95931
1.95127
2.63987
2.62615
2.6121
2.59716
2.58149
2.56502
2.54772
2.52965
2.51105
2.49228
2.47349
2.45432
2.43334
2.40962
2.38594
2.36435
2.34518
2.32743
2.30674
2.28475
2.26009
2.23315
2.20754
2.18377
2.16233
2.14261
2.12494
2.10616
2.08996
2.09272
2.11246
2.1479
2.18039
2.19953
2.20152
2.19081
2.17181
2.15219
2.1324
2.11387
2.09681
2.07982
2.06214
2.04579
2.03334
2.02411
2.01632
2.00853
2.00022
1.99186
1.98408
1.97928
1.97716
1.97576
1.97429
1.97244
1.96998
1.96952
1.97081
1.97323
1.97546
1.97761
1.98034
1.98365
1.9873
1.99146
1.9965
1.9998
2.00139
2.00267
2.00408
2.00562
2.00792
2.0113
2.013
2.01369
2.01371
2.01324
2.0125
2.01152
2.01011
2.00809
2.00513
2.00098
1.99656
1.99323
1.99079
1.98881
1.98707
1.98494
1.9822
1.97821
1.97189
1.96442
1.95767
1.9494
)
;

boundaryField
{
    inlet
    {
        type            fixedValue;
        value           uniform 1;
    }
    outlet
    {
        type            inletOutlet;
        inletValue      uniform 1;
        value           nonuniform List<scalar> 
32
(
2.4575
2.45716
2.43059
2.36495
2.28572
2.20171
2.12826
2.07711
2.04392
2.02197
2.00515
1.98942
1.97288
1.95607
1.9405
1.92796
1.92004
1.91785
1.91846
1.92574
1.94021
1.9573
1.97493
1.98574
1.98586
1.9785
1.96905
1.96246
1.95838
1.95442
1.95126
1.94953
)
;
    }
    bottom
    {
        type            symmetryPlane;
    }
    top
    {
        type            symmetryPlane;
    }
    obstacle
    {
        type            zeroGradient;
    }
    defaultFaces
    {
        type            empty;
    }
}


// ************************************************************************* //
