/*--------------------------------*- C++ -*----------------------------------*\
  =========                 |
  \\      /  F ield         | OpenFOAM: The Open Source CFD Toolbox
   \\    /   O peration     | Website:  https://openfoam.org
    \\  /    A nd           | Version:  7
     \\/     M anipulation  |
\*---------------------------------------------------------------------------*/
FoamFile
{
    version     2.0;
    format      ascii;
    class       volVectorField;
    location    "13";
    object      U;
}
// * * * * * * * * * * * * * * * * * * * * * * * * * * * * * * * * * * * * * //

dimensions      [0 1 -1 0 0 0 0];

internalField   nonuniform List<vector> 
4032
(
(3 -2.79398e-16 0)
(3 -2.08559e-16 0)
(3 -7.19068e-17 0)
(3 1.05694e-16 0)
(3 2.10137e-16 0)
(3 6.71529e-16 0)
(3 3.03918e-16 0)
(3 -3.44051e-16 0)
(3 -6.13259e-16 0)
(3 -4.42879e-16 0)
(3 -5.79125e-17 0)
(2.90124 0.00317398 0)
(0.988378 0.0160288 0)
(0.708844 0.0192537 0)
(0.656902 0.024138 0)
(0.596844 0.0256142 0)
(0.537915 0.0268089 0)
(0.47741 0.0281292 0)
(0.415259 0.0296409 0)
(0.350684 0.0314679 0)
(0.283076 0.0335096 0)
(0.21081 0.0365951 0)
(0.132167 0.0392849 0)
(0.049459 0.0447659 0)
(3 -2.34564e-16 0)
(3 1.40207e-17 0)
(3 1.27609e-16 0)
(3 2.79945e-16 0)
(3 5.42745e-16 0)
(3 9.32418e-16 0)
(3 4.31746e-16 0)
(3 -5.2057e-16 0)
(3 -1.04134e-15 0)
(3 -4.65924e-16 0)
(3 1.5837e-16 0)
(2.91126 0.0201481 0)
(0.9945 0.0741222 0)
(0.694852 0.0664693 0)
(0.640517 0.0708061 0)
(0.581577 0.0753973 0)
(0.522936 0.07982 0)
(0.462225 0.0845035 0)
(0.399577 0.0893532 0)
(0.334752 0.0950071 0)
(0.267703 0.101128 0)
(0.197763 0.110932 0)
(0.122516 0.119704 0)
(0.0460445 0.135479 0)
(3 1.46922e-16 0)
(3 2.81364e-16 0)
(3 2.19256e-16 0)
(3 1.56807e-16 0)
(3 1.34819e-16 0)
(3 7.04091e-17 0)
(3 2.13173e-16 0)
(3 2.1006e-16 0)
(3 1.39577e-16 0)
(3 1.62258e-16 0)
(3 2.25852e-16 0)
(2.95487 0.0397178 0)
(1.03199 0.137353 0)
(0.710168 0.115542 0)
(0.655478 0.122433 0)
(0.5946 0.129921 0)
(0.533917 0.137485 0)
(0.471123 0.145601 0)
(0.405936 0.153731 0)
(0.338032 0.16264 0)
(0.267399 0.171031 0)
(0.194945 0.184753 0)
(0.118127 0.196534 0)
(0.0439233 0.21896 0)
(3 -4.63979e-17 0)
(3 -3.63142e-16 0)
(3 -2.69098e-16 0)
(3 -1.52336e-16 0)
(3 -8.9823e-17 0)
(3 -4.15711e-16 0)
(3 4.3842e-16 0)
(3 7.73805e-16 0)
(3 7.67477e-16 0)
(3 5.77431e-16 0)
(3 1.95719e-16 0)
(3.00825 0.0062874 0)
(1.10709 0.181854 0)
(0.742741 0.152494 0)
(0.691108 0.166714 0)
(0.63164 0.178651 0)
(0.570905 0.190167 0)
(0.507607 0.203044 0)
(0.440545 0.216615 0)
(0.368773 0.231994 0)
(0.291585 0.245625 0)
(0.211948 0.264517 0)
(0.127436 0.279045 0)
(0.0460795 0.304595 0)
(3 -2.07891e-16 0)
(3 -1.65726e-15 0)
(3 -1.71238e-15 0)
(3 -9.49701e-16 0)
(3 -7.70172e-16 0)
(3 -7.16566e-16 0)
(3 -6.52355e-16 0)
(3 -2.89742e-16 0)
(3 -1.94421e-16 0)
(3 -3.73419e-16 0)
(3 -3.04735e-16 0)
(3.00059 3.0561e-05 0)
(1.21554 0.224075 0)
(0.749376 0.196778 0)
(0.694796 0.2178 0)
(0.638769 0.234287 0)
(0.580698 0.249321 0)
(0.520867 0.267038 0)
(0.457572 0.286317 0)
(0.390171 0.308484 0)
(0.315856 0.32701 0)
(0.236926 0.350648 0)
(0.146606 0.370361 0)
(0.0553413 0.402254 0)
(3 -3.03499e-17 0)
(3 -4.13123e-17 0)
(3 -2.78187e-16 0)
(3 -5.30118e-16 0)
(3 -3.68951e-16 0)
(3 -1.24573e-16 0)
(3 -4.38836e-16 0)
(3 -6.88954e-16 0)
(3 -7.13102e-16 0)
(3 -5.26482e-16 0)
(3 -1.12847e-16 0)
(3 -1.15872e-07 0)
(1.39481 0.274263 0)
(0.764768 0.245039 0)
(0.696148 0.261978 0)
(0.64721 0.281169 0)
(0.597443 0.298933 0)
(0.54756 0.320579 0)
(0.492903 0.345265 0)
(0.431799 0.376293 0)
(0.356929 0.407039 0)
(0.270018 0.445716 0)
(0.167462 0.481805 0)
(0.0565387 0.52129 0)
(3 4.32898e-16 0)
(3 1.38992e-15 0)
(3 1.79292e-15 0)
(3 8.84532e-16 0)
(3 4.33473e-16 0)
(3 3.68905e-16 0)
(3 2.97568e-16 0)
(3 2.76384e-16 0)
(3 -2.39922e-16 0)
(3 -4.89153e-16 0)
(3 -2.45808e-16 0)
(3 -1.17052e-07 0)
(1.66811 0.325545 0)
(0.795128 0.308903 0)
(0.695859 0.308721 0)
(0.645142 0.325282 0)
(0.597626 0.343649 0)
(0.555044 0.37016 0)
(0.509482 0.402852 0)
(0.461177 0.44627 0)
(0.399843 0.493908 0)
(0.329306 0.546885 0)
(0.235944 0.598987 0)
(0.102772 0.66554 0)
(3 2.96881e-16 0)
(3 2.50985e-16 0)
(3 4.22776e-16 0)
(3 1.80504e-16 0)
(3 -2.5627e-16 0)
(3 -2.58391e-16 0)
(3 -7.8417e-17 0)
(3 2.17448e-16 0)
(3 3.64625e-16 0)
(3 -4.79718e-17 0)
(3 -2.44626e-16 0)
(3 -2.46079e-08 0)
(2.07033 0.367293 0)
(0.851334 0.394009 0)
(0.715969 0.370239 0)
(0.666387 0.379145 0)
(0.619996 0.392253 0)
(0.580387 0.416914 0)
(0.541853 0.452587 0)
(0.504809 0.502378 0)
(0.460974 0.562302 0)
(0.399943 0.644623 0)
(0.280717 0.763361 0)
(0.157184 0.934026 0)
(3 -5.98757e-17 0)
(3 -2.53122e-16 0)
(3 -4.15531e-16 0)
(3 5.69848e-17 0)
(3 2.44927e-16 0)
(3 1.10123e-16 0)
(3 -2.00046e-17 0)
(3 -1.7396e-16 0)
(3 -4.96835e-17 0)
(3 1.95197e-16 0)
(3 3.16572e-16 0)
(3 -2.57807e-09 0)
(2.65359 0.303483 0)
(0.983372 0.477754 0)
(0.802351 0.406445 0)
(0.750755 0.415064 0)
(0.693682 0.433104 0)
(0.643731 0.459495 0)
(0.601544 0.496786 0)
(0.567061 0.550823 0)
(0.53407 0.628211 0)
(0.502681 0.753369 0)
(0.476436 0.92758 0)
(0.597144 1.22317 0)
(3 -1.46797e-16 0)
(3 -9.05263e-17 0)
(3 -1.59107e-16 0)
(3 3.52568e-16 0)
(3 1.19554e-15 0)
(3 9.94198e-16 0)
(3 4.20592e-16 0)
(3 -2.67159e-16 0)
(3 -6.1455e-16 0)
(3 -6.68869e-16 0)
(3 -8.69435e-16 0)
(3 -1.0599e-10 0)
(3.07673 0.0430907 0)
(1.21745 0.469399 0)
(0.881169 0.44782 0)
(0.837887 0.474045 0)
(0.784936 0.489454 0)
(0.732055 0.511233 0)
(0.684574 0.544667 0)
(0.647378 0.597345 0)
(0.62924 0.682041 0)
(0.629578 0.81678 0)
(0.698218 0.967703 0)
(0.989334 1.13993 0)
(3 1.21189e-16 0)
(3 3.76894e-17 0)
(3 1.20032e-16 0)
(3 1.68273e-16 0)
(3 1.21564e-16 0)
(3 6.08157e-16 0)
(3 5.43979e-16 0)
(3 -7.46759e-17 0)
(3 -5.93762e-16 0)
(3 -1.53266e-15 0)
(3 -1.84428e-15 0)
(3 -2.27806e-12 0)
(3.0087 8.76606e-05 0)
(1.43355 0.462207 0)
(0.88321 0.512449 0)
(0.835973 0.531558 0)
(0.800486 0.550601 0)
(0.773655 0.575386 0)
(0.747171 0.6073 0)
(0.724093 0.65148 0)
(0.727751 0.724981 0)
(0.756555 0.83782 0)
(0.881309 0.961099 0)
(1.19495 1.0613 0)
(3 -2.47734e-16 0)
(3 -2.59036e-16 0)
(3 2.29458e-16 0)
(3 2.03608e-17 0)
(3 -7.53805e-18 0)
(3 2.35621e-16 0)
(3 1.09426e-17 0)
(3 -4.95834e-16 0)
(3 -5.50152e-16 0)
(3 -6.89905e-16 0)
(3 -6.18318e-17 0)
(3 -2.0928e-14 0)
(3.00006 -2.5399e-06 0)
(1.93904 0.49452 0)
(0.927826 0.576709 0)
(0.852499 0.560569 0)
(0.833435 0.58189 0)
(0.820433 0.607479 0)
(0.811809 0.641824 0)
(0.805233 0.682142 0)
(0.821518 0.745118 0)
(0.871512 0.835192 0)
(1.01464 0.935028 0)
(1.27634 1.00132 0)
(3 -2.90442e-16 0)
(3 -6.47971e-18 0)
(3 -3.89537e-17 0)
(3 -1.9806e-16 0)
(3 -2.81405e-16 0)
(3 -9.14259e-16 0)
(3 -6.21423e-16 0)
(3 -3.69212e-16 0)
(3 -7.25054e-17 0)
(3 7.94423e-16 0)
(3 7.09539e-16 0)
(3 2.0605e-16 0)
(3.00001 -3.19586e-06 0)
(2.74252 0.321133 0)
(1.09463 0.635156 0)
(0.919237 0.581552 0)
(0.890694 0.601644 0)
(0.874305 0.630413 0)
(0.872215 0.668302 0)
(0.87961 0.710049 0)
(0.904997 0.764047 0)
(0.969563 0.83216 0)
(1.10701 0.902586 0)
(1.3143 0.942262 0)
(3 8.24399e-18 0)
(3 -1.27472e-17 0)
(3 -1.20089e-16 0)
(3 -1.45194e-16 0)
(3 -4.76804e-16 0)
(3 -9.56236e-16 0)
(3 -7.18908e-16 0)
(3 2.45713e-17 0)
(3 4.54493e-16 0)
(3 9.56593e-16 0)
(3 9.48576e-16 0)
(3 8.50965e-16 0)
(3 -6.73603e-07 0)
(3.07474 0.0266069 0)
(1.43326 0.632166 0)
(1.00094 0.652757 0)
(0.949856 0.652246 0)
(0.925211 0.666082 0)
(0.924944 0.693423 0)
(0.942229 0.729326 0)
(0.977499 0.772371 0)
(1.04998 0.825508 0)
(1.17383 0.875803 0)
(1.34266 0.903023 0)
(3 1.76466e-16 0)
(3 -2.0193e-16 0)
(3 -1.8535e-16 0)
(3 -1.61877e-16 0)
(3 6.57562e-17 0)
(3 3.47045e-16 0)
(3 -5.6568e-17 0)
(3 2.44573e-16 0)
(3 1.03362e-15 0)
(3 7.81451e-16 0)
(3 6.17089e-16 0)
(3 1.62148e-16 0)
(3 -6.83244e-08 0)
(3.0042 7.73152e-05 0)
(1.98392 0.600855 0)
(1.06209 0.724614 0)
(1.00974 0.702521 0)
(0.994681 0.698869 0)
(0.992396 0.714588 0)
(1.00838 0.740995 0)
(1.04687 0.776292 0)
(1.11654 0.814801 0)
(1.22189 0.847957 0)
(1.35485 0.865023 0)
(3 3.16725e-16 0)
(3 2.06388e-16 0)
(3 5.58291e-16 0)
(3 8.81853e-16 0)
(3 1.21526e-15 0)
(3 1.26634e-15 0)
(3 8.88888e-16 0)
(3 3.00872e-16 0)
(3 7.41217e-17 0)
(3 -1.8622e-16 0)
(3 -6.23383e-17 0)
(3 -1.59939e-16 0)
(3 -2.16216e-09 0)
(3.00001 -3.30917e-07 0)
(2.92764 0.225116 0)
(1.279 0.699046 0)
(1.08098 0.719583 0)
(1.08674 0.720513 0)
(1.08223 0.740326 0)
(1.08865 0.760948 0)
(1.11681 0.787226 0)
(1.17682 0.815828 0)
(1.26443 0.837881 0)
(1.37474 0.847552 0)
(3 -6.83373e-18 0)
(3 1.88324e-16 0)
(3 1.60984e-16 0)
(3 4.16714e-16 0)
(3 6.29302e-16 0)
(3 5.94417e-16 0)
(3 7.66852e-16 0)
(3 4.14441e-16 0)
(3 -4.03528e-16 0)
(3 -3.31231e-16 0)
(3 4.13813e-16 0)
(3 3.89405e-16 0)
(3 -4.76519e-12 0)
(3 -7.88826e-07 0)
(3.04178 0.00678447 0)
(1.56987 0.66086 0)
(1.09905 0.756636 0)
(1.11082 0.765642 0)
(1.11748 0.782896 0)
(1.14079 0.794643 0)
(1.17527 0.805552 0)
(1.22915 0.817298 0)
(1.30342 0.828258 0)
(1.39779 0.83213 0)
(3 -2.59437e-16 0)
(3 -4.56593e-16 0)
(3 -7.85229e-16 0)
(3 -1.43208e-15 0)
(3 -1.14026e-15 0)
(3 9.12828e-17 0)
(3 -1.40565e-16 0)
(3 1.85076e-16 0)
(3 3.28057e-16 0)
(3 5.68742e-16 0)
(3 2.74445e-17 0)
(3 -5.57321e-16 0)
(3 -6.3127e-15 0)
(3 -1.50242e-07 0)
(3.00081 3.86178e-05 0)
(2.38444 0.512841 0)
(1.20432 0.789321 0)
(1.13458 0.792075 0)
(1.14887 0.796121 0)
(1.17798 0.805781 0)
(1.21862 0.81712 0)
(1.27113 0.827918 0)
(1.33938 0.835582 0)
(1.41997 0.83671 0)
(3 -8.75725e-17 0)
(3 -4.17085e-16 0)
(3 -3.52773e-16 0)
(3 -3.76509e-16 0)
(3 -6.5637e-16 0)
(3 -4.12747e-16 0)
(3 -7.2596e-16 0)
(3 -1.02724e-15 0)
(3 -4.74407e-16 0)
(3 -7.27431e-16 0)
(3 -2.00825e-15 0)
(3 -2.74119e-15 0)
(3 -1.89704e-15 0)
(3 -4.7523e-09 0)
(3.00001 -4.81567e-06 0)
(3.0573 0.0734065 0)
(1.56432 0.777191 0)
(1.18386 0.786569 0)
(1.19812 0.794584 0)
(1.2227 0.807349 0)
(1.26141 0.819704 0)
(1.31116 0.830053 0)
(1.37415 0.836217 0)
(1.44335 0.835546 0)
(3 1.96776e-16 0)
(3 3.7681e-16 0)
(3 4.13313e-16 0)
(3 5.31261e-16 0)
(3 -2.22898e-16 0)
(3 -7.35497e-16 0)
(3 -3.4342e-16 0)
(3 -1.79694e-17 0)
(3 -8.19751e-16 0)
(3 -1.23046e-15 0)
(3 -1.2325e-15 0)
(3 -1.20505e-15 0)
(3 -7.43876e-16 0)
(3 -1.69757e-11 0)
(3 -1.25779e-06 0)
(3.00824 0.00139927 0)
(2.29065 0.633174 0)
(1.26161 0.848648 0)
(1.22257 0.83377 0)
(1.25884 0.835007 0)
(1.29473 0.841189 0)
(1.34169 0.848291 0)
(1.39793 0.850355 0)
(1.4535 0.841135 0)
(3 2.90229e-17 0)
(3 2.63805e-16 0)
(3 3.26061e-16 0)
(3 2.88589e-16 0)
(3 -8.24916e-17 0)
(3 -7.08831e-16 0)
(3 -9.1934e-16 0)
(3 -3.20783e-16 0)
(3 1.26506e-16 0)
(3 3.77857e-16 0)
(3 2.86642e-16 0)
(3 9.41659e-16 0)
(3 6.91655e-16 0)
(3 -7.82762e-15 0)
(3 -1.1136e-07 0)
(3.00003 9.66846e-06 0)
(3.03862 0.118975 0)
(1.62493 0.826982 0)
(1.26808 0.830824 0)
(1.30945 0.835513 0)
(1.33667 0.844833 0)
(1.37973 0.849262 0)
(1.41538 0.842031 0)
(1.44589 0.810001 0)
(3 -1.05751e-16 0)
(3 1.48804e-16 0)
(3 7.21522e-16 0)
(3 6.74451e-16 0)
(3 9.28872e-16 0)
(3 4.42812e-16 0)
(3 -2.3397e-16 0)
(3 -3.39242e-16 0)
(3 2.8618e-16 0)
(3 4.68062e-16 0)
(3 5.00341e-16 0)
(3 9.26971e-16 0)
(3 1.30361e-15 0)
(3 1.01649e-15 0)
(3 -1.44413e-09 0)
(3 -9.40697e-08 0)
(3.0107 0.00347378 0)
(2.36243 0.63822 0)
(1.3567 0.886242 0)
(1.33385 0.881962 0)
(1.36718 0.874595 0)
(1.38991 0.868863 0)
(1.40127 0.827135 0)
(1.40196 0.746492 0)
(3 1.05293e-16 0)
(3 7.78894e-17 0)
(3 3.90516e-16 0)
(3 4.30762e-16 0)
(3 3.08472e-16 0)
(3 5.22348e-16 0)
(3 4.91207e-16 0)
(3 4.50243e-16 0)
(3 6.62572e-17 0)
(3 2.80144e-16 0)
(3 7.55649e-16 0)
(3 6.4284e-16 0)
(3 4.97292e-16 0)
(3 8.50643e-16 0)
(3 -3.38299e-12 0)
(3 -2.45367e-08 0)
(3.00005 4.22124e-05 0)
(3.02872 0.107386 0)
(1.76696 0.837052 0)
(1.37462 0.888357 0)
(1.39961 0.886162 0)
(1.38259 0.834089 0)
(1.35115 0.746361 0)
(1.35063 0.65911 0)
(3 5.61328e-17 0)
(3 -2.48471e-16 0)
(3 -1.28924e-15 0)
(3 -9.42509e-16 0)
(3 -7.67776e-16 0)
(3 -4.73721e-16 0)
(3 -6.91727e-16 0)
(3 -5.26317e-16 0)
(3 8.62836e-17 0)
(3 3.36611e-16 0)
(3 4.74851e-16 0)
(3 2.52031e-16 0)
(3 -6.81646e-16 0)
(3 -7.12406e-16 0)
(3 -1.96993e-15 0)
(3 -2.43407e-09 0)
(3 2.37947e-08 0)
(3.00602 0.0045182 0)
(2.62919 0.529868 0)
(1.52292 0.95823 0)
(1.38845 0.877571 0)
(1.31739 0.768477 0)
(1.29314 0.653503 0)
(1.31539 0.595808 0)
(3 -5.03679e-17 0)
(3 -5.96194e-17 0)
(3 -2.81003e-16 0)
(3 -3.05828e-16 0)
(3 -4.75426e-17 0)
(3 4.70393e-16 0)
(3 1.68032e-16 0)
(3 -8.50177e-16 0)
(3 -4.68973e-16 0)
(3 -7.98872e-16 0)
(3 -8.34965e-16 0)
(3 -3.94677e-16 0)
(3 1.1012e-17 0)
(3 -1.62299e-17 0)
(3 6.23738e-16 0)
(3 -1.04516e-10 0)
(3 -1.02971e-10 0)
(3.00002 4.88562e-05 0)
(3.03745 0.0529546 0)
(2.07911 0.828085 0)
(1.34842 0.850126 0)
(1.23648 0.681499 0)
(1.26996 0.613961 0)
(1.3211 0.563012 0)
(3 -1.69075e-17 0)
(3 2.07981e-16 0)
(3 2.51756e-16 0)
(3 4.83566e-16 0)
(3 6.47247e-16 0)
(3 1.15534e-15 0)
(3 1.2922e-15 0)
(3 7.68212e-16 0)
(3 1.4192e-16 0)
(3 -2.26997e-17 0)
(3 3.32624e-16 0)
(3 8.93691e-16 0)
(3 1.17646e-15 0)
(3 1.49021e-15 0)
(3 1.79032e-15 0)
(3 -9.88371e-13 0)
(3 -3.29263e-11 0)
(3 3.53782e-08 0)
(3.00154 0.00260229 0)
(2.90448 0.29311 0)
(1.38115 0.695889 0)
(1.19361 0.589479 0)
(1.27303 0.575013 0)
(1.3267 0.547335 0)
(3 -1.8924e-16 0)
(3 -3.74843e-16 0)
(3 1.64505e-16 0)
(3 4.78887e-16 0)
(3 4.63021e-16 0)
(3 3.34672e-16 0)
(3 6.56261e-16 0)
(3 1.24736e-15 0)
(3 2.16433e-15 0)
(3 2.81087e-15 0)
(3 1.70407e-15 0)
(3 -1.33005e-16 0)
(3 -9.84131e-16 0)
(3 -6.68812e-16 0)
(3 1.24394e-15 0)
(3 -6.51333e-16 0)
(3 -4.38561e-12 0)
(3 1.44701e-12 0)
(3 1.91799e-05 0)
(2.97292 0.00308181 0)
(1.22537 0.417912 0)
(1.09916 0.504315 0)
(1.24086 0.506368 0)
(1.31458 0.50278 0)
(3 6.66036e-18 0)
(3 -4.24522e-17 0)
(3 1.26252e-16 0)
(3 1.92129e-16 0)
(3 2.12363e-16 0)
(3 1.67128e-16 0)
(3 3.539e-16 0)
(3 1.75125e-15 0)
(3 1.65598e-15 0)
(3 1.43623e-15 0)
(3 1.34655e-16 0)
(3 -2.25379e-15 0)
(3 -2.21122e-15 0)
(3 -1.50047e-15 0)
(3 -1.37022e-16 0)
(3 9.98411e-16 0)
(3 -2.81889e-13 0)
(3 -2.84339e-13 0)
(3 2.99033e-08 0)
(2.97278 0.00250098 0)
(1.13723 0.267002 0)
(0.910141 0.428974 0)
(1.09083 0.467611 0)
(1.21193 0.487894 0)
(3 1.49818e-16 0)
(3 2.49375e-16 0)
(3 7.76033e-17 0)
(3 -2.18539e-16 0)
(3 -3.10589e-16 0)
(3 -2.96859e-16 0)
(3 -1.3865e-17 0)
(3 1.39073e-16 0)
(3 4.25303e-17 0)
(3 -3.23583e-16 0)
(3 -2.07372e-16 0)
(3 -6.74941e-16 0)
(3 -1.03394e-15 0)
(3 -4.82255e-16 0)
(3 3.54359e-16 0)
(3 1.41954e-15 0)
(3 -3.36024e-15 0)
(3 -9.56244e-14 0)
(3 7.19741e-12 0)
(2.99908 0.00162265 0)
(1.26278 0.22827 0)
(0.837096 0.334949 0)
(0.941572 0.346132 0)
(1.04793 0.375765 0)
(3 -6.43681e-17 0)
(3 -1.74256e-16 0)
(3 -2.81947e-16 0)
(3 -6.99339e-16 0)
(3 -6.03613e-16 0)
(3 -5.68394e-16 0)
(3 -4.35819e-16 0)
(3 -6.47976e-16 0)
(3 2.14134e-17 0)
(3 9.71109e-16 0)
(3 9.9865e-16 0)
(3 4.53416e-16 0)
(3 1.43561e-16 0)
(3 6.60121e-16 0)
(3 1.72513e-15 0)
(3 2.49322e-15 0)
(3 1.53827e-15 0)
(3 -1.3481e-14 0)
(3 -1.2727e-14 0)
(3.00002 3.76678e-06 0)
(1.41876 0.256099 0)
(0.827071 0.28446 0)
(0.853385 0.28863 0)
(0.919158 0.302517 0)
(3 1.56581e-16 0)
(3 2.49862e-17 0)
(3 -8.06558e-17 0)
(3 1.48222e-16 0)
(3 -1.11493e-17 0)
(3 1.39362e-17 0)
(3 2.86291e-16 0)
(3 4.5362e-16 0)
(3 3.64836e-16 0)
(3 -3.74652e-16 0)
(3 -2.01348e-16 0)
(3 8.17463e-16 0)
(3 1.39855e-15 0)
(3 7.28556e-16 0)
(3 4.53722e-16 0)
(3 -3.40292e-16 0)
(3 -5.11126e-16 0)
(3 -9.80295e-16 0)
(3 -4.40909e-15 0)
(3 -1.98663e-09 0)
(1.63696 0.284691 0)
(0.843628 0.262888 0)
(0.833392 0.253864 0)
(0.87482 0.256186 0)
(3 1.20261e-16 0)
(3 3.18388e-16 0)
(3 5.96429e-16 0)
(3 6.70072e-16 0)
(3 3.05622e-16 0)
(3 4.13339e-16 0)
(3 9.78368e-16 0)
(3 8.72338e-16 0)
(3 2.96931e-16 0)
(3 4.33017e-17 0)
(3 5.22316e-16 0)
(3 8.98882e-16 0)
(3 3.48372e-16 0)
(3 -3.46405e-16 0)
(3 -1.08707e-15 0)
(3 -1.48103e-15 0)
(3 -1.73124e-15 0)
(3 -1.32126e-15 0)
(3 -7.06495e-16 0)
(3 -1.61534e-12 0)
(1.90952 0.274403 0)
(0.867031 0.255006 0)
(0.837433 0.231467 0)
(0.879282 0.223972 0)
(3 3.46047e-17 0)
(3 5.33248e-17 0)
(3 -1.75837e-17 0)
(3 -2.74976e-16 0)
(3 8.26785e-17 0)
(3 6.74115e-16 0)
(3 3.29407e-16 0)
(3 4.04406e-16 0)
(3 6.6169e-16 0)
(3 1.10949e-15 0)
(3 7.80738e-16 0)
(3 -2.35853e-16 0)
(3 -2.71653e-16 0)
(3 3.97494e-18 0)
(3 -1.01686e-16 0)
(3 -1.42735e-15 0)
(3 -1.6752e-15 0)
(3 -1.70815e-15 0)
(3 -8.39729e-16 0)
(3 -1.08887e-12 0)
(2.19542 0.236517 0)
(0.895286 0.236543 0)
(0.842607 0.208382 0)
(0.890016 0.20212 0)
(3 4.64595e-17 0)
(3 -7.29473e-17 0)
(3 -2.70486e-16 0)
(3 -5.89475e-16 0)
(3 -7.23549e-16 0)
(3 -8.64191e-16 0)
(3 -1.25397e-15 0)
(3 -8.93227e-16 0)
(3 -7.9482e-16 0)
(3 -1.09254e-16 0)
(3 8.8444e-17 0)
(3 4.05625e-16 0)
(3 3.21469e-16 0)
(3 6.72702e-16 0)
(3 6.97113e-16 0)
(3 -1.58175e-15 0)
(3 -1.2489e-15 0)
(3 -2.62037e-16 0)
(3 -6.76609e-17 0)
(3 -1.90773e-13 0)
(2.44741 0.18222 0)
(0.92807 0.208684 0)
(0.845876 0.181582 0)
(0.896979 0.176871 0)
(3 -1.57523e-17 0)
(3 2.14011e-16 0)
(3 1.09122e-16 0)
(3 1.35446e-16 0)
(3 -1.16316e-16 0)
(3 -1.16824e-15 0)
(3 -1.40107e-15 0)
(3 -1.63559e-15 0)
(3 -1.21038e-15 0)
(3 -6.39482e-16 0)
(3 -6.80883e-16 0)
(3 -6.18566e-16 0)
(3 -5.82125e-16 0)
(3 -1.0291e-15 0)
(3 -7.57625e-16 0)
(3 -5.96958e-16 0)
(3 -2.75e-16 0)
(3 8.78814e-18 0)
(3 8.96147e-17 0)
(3 -1.72958e-14 0)
(2.63258 0.131971 0)
(0.958962 0.171756 0)
(0.847276 0.151906 0)
(0.899282 0.15 0)
(3 -1.72928e-18 0)
(3 -1.25668e-16 0)
(3 -2.39037e-16 0)
(3 2.5202e-16 0)
(3 8.73697e-17 0)
(3 -8.19007e-16 0)
(3 -5.86949e-16 0)
(3 -1.45022e-15 0)
(3 -1.57344e-15 0)
(3 -1.48736e-15 0)
(3 -1.21858e-15 0)
(3 -1.4735e-15 0)
(3 -1.89668e-15 0)
(3 -2.53442e-15 0)
(3 -2.22887e-15 0)
(3 -1.59368e-15 0)
(3 -1.39475e-15 0)
(3 -1.36447e-15 0)
(3 -9.31352e-16 0)
(3 -1.59865e-15 0)
(2.76933 0.0805738 0)
(0.993746 0.127245 0)
(0.841792 0.120733 0)
(0.893588 0.119705 0)
(3 -2.63082e-17 0)
(3 -6.38691e-17 0)
(3 3.00375e-17 0)
(3 -2.15735e-16 0)
(3 -7.76936e-16 0)
(3 -6.04685e-16 0)
(3 -5.91659e-16 0)
(3 -9.5299e-16 0)
(3 -1.3744e-15 0)
(3 -1.84593e-15 0)
(3 -1.50255e-15 0)
(3 -9.85695e-16 0)
(3 -8.3694e-16 0)
(3 -8.71599e-16 0)
(3 -1.6986e-15 0)
(3 -2.04042e-15 0)
(3 -1.85605e-15 0)
(3 -1.07627e-15 0)
(3 -1.06656e-17 0)
(3 -3.44459e-16 0)
(2.83346 0.041169 0)
(1.00645 0.0860327 0)
(0.825809 0.0925745 0)
(0.87644 0.0927003 0)
(3 -1.10761e-16 0)
(3 -7.6379e-17 0)
(3 4.30403e-16 0)
(3 9.54778e-17 0)
(3 2.08724e-16 0)
(3 7.49929e-16 0)
(3 8.22042e-17 0)
(3 6.70588e-17 0)
(3 -1.43899e-16 0)
(3 -7.5693e-16 0)
(3 -9.24154e-16 0)
(3 -9.14168e-16 0)
(3 8.64037e-18 0)
(3 5.00889e-16 0)
(3 -1.21237e-16 0)
(3 -8.26027e-16 0)
(3 1.93138e-16 0)
(3 2.36021e-16 0)
(3 2.9655e-16 0)
(3 4.63668e-16 0)
(2.86352 0.0238568 0)
(1.01161 0.058259 0)
(0.811669 0.0649638 0)
(0.859528 0.065356 0)
(3 -1.69382e-18 0)
(3 -4.14364e-16 0)
(3 -1.98558e-16 0)
(3 7.61106e-17 0)
(3 1.16405e-15 0)
(3 1.71549e-15 0)
(3 1.37449e-15 0)
(3 6.46127e-16 0)
(3 1.03394e-16 0)
(3 4.05447e-17 0)
(3 1.21914e-16 0)
(3 4.727e-16 0)
(3 9.4229e-16 0)
(3 3.40553e-16 0)
(3 5.37608e-16 0)
(3 9.38424e-16 0)
(3 1.08668e-15 0)
(3 2.37003e-16 0)
(3 -2.99876e-16 0)
(3 1.33503e-16 0)
(2.88645 0.0127758 0)
(1.021 0.0338003 0)
(0.811098 0.0372858 0)
(0.855893 0.0376764 0)
(3 6.17394e-17 0)
(3 -1.09677e-16 0)
(3 -1.55668e-16 0)
(3 1.135e-17 0)
(3 6.96244e-16 0)
(3 7.67067e-16 0)
(3 5.87772e-16 0)
(3 9.70393e-17 0)
(3 -2.21902e-16 0)
(3 3.52818e-16 0)
(3 7.01506e-16 0)
(3 9.86737e-16 0)
(3 8.71097e-16 0)
(3 4.35072e-16 0)
(3 5.38015e-16 0)
(3 5.1594e-16 0)
(3 3.03946e-16 0)
(3 2.35662e-16 0)
(3 1.65968e-16 0)
(3 1.43868e-16 0)
(2.89445 0.00221542 0)
(1.02155 0.00823143 0)
(0.806916 0.0111714 0)
(0.848981 0.0120707 0)
(1.51567 1.40179 0)
(0.612076 1.03231 0)
(-0.148158 0.286314 0)
(-0.193716 0.0048467 0)
(-0.157917 -0.00663413 0)
(-0.161987 0.0244499 0)
(-0.225928 0.0478108 0)
(-0.293351 0.0374655 0)
(-0.330464 0.0203491 0)
(-0.334996 0.00715056 0)
(-0.362843 0.0103468 0)
(-0.411423 0.0185819 0)
(-0.464755 0.0226198 0)
(-0.495277 0.0212672 0)
(-0.501956 0.0162207 0)
(-0.498907 0.00737555 0)
(-0.502131 -0.00121292 0)
(-0.50323 -0.00843652 0)
(-0.492279 -0.0169341 0)
(-0.466541 -0.0221939 0)
(-0.429881 -0.0266536 0)
(-0.383577 -0.0306959 0)
(-0.330447 -0.0358329 0)
(-0.27275 -0.0419455 0)
(-0.212656 -0.0481964 0)
(-0.151844 -0.053378 0)
(-0.0915207 -0.0568218 0)
(-0.0320295 -0.0581522 0)
(0.0273864 -0.0580925 0)
(0.0876193 -0.0575668 0)
(0.149121 -0.0572243 0)
(0.211663 -0.0571693 0)
(0.274124 -0.0572535 0)
(0.33496 -0.0564993 0)
(0.393294 -0.0551217 0)
(0.449199 -0.0536117 0)
(0.503274 -0.0525147 0)
(0.55616 -0.0520833 0)
(0.606398 -0.0515982 0)
(0.654623 -0.0496586 0)
(0.698751 -0.0466526 0)
(0.739522 -0.0431225 0)
(0.779488 -0.0398853 0)
(0.819963 -0.0370909 0)
(0.860101 -0.0342983 0)
(0.897972 -0.0311813 0)
(0.932633 -0.0281836 0)
(0.965121 -0.0260403 0)
(0.996991 -0.0247617 0)
(1.02893 -0.0237249 0)
(1.05991 -0.0223241 0)
(1.08779 -0.0202175 0)
(1.11247 -0.0177836 0)
(1.13626 -0.0158727 0)
(1.16132 -0.0147948 0)
(1.1888 -0.0143749 0)
(1.21734 -0.0140282 0)
(1.24433 -0.013137 0)
(1.26852 -0.0114868 0)
(1.29119 -0.0101012 0)
(1.31472 -0.00946576 0)
(1.34055 -0.00985404 0)
(1.36702 -0.0108549 0)
(1.38606 -0.0112023 0)
(1.39276 -0.0113954 0)
(1.39088 -0.0112918 0)
(1.35754 -0.0106035 0)
(1.2825 -0.00787835 0)
(1.22734 -0.00478181 0)
(1.2157 -0.00456266 0)
(1.22049 -0.00551444 0)
(1.22944 -0.0056905 0)
(1.24458 -0.00548736 0)
(1.25874 -0.00538884 0)
(1.27229 -0.00558096 0)
(1.28561 -0.00561059 0)
(1.29827 -0.00546375 0)
(1.3093 -0.00502267 0)
(1.31823 -0.00392786 0)
(1.32533 -0.0022003 0)
(1.33116 -0.000330637 0)
(1.33716 0.000825536 0)
(1.34491 0.000840693 0)
(1.35335 -0.000403534 0)
(1.35856 -0.00298885 0)
(1.36062 -0.00489269 0)
(1.36178 -0.00544322 0)
(1.36261 -0.00529757 0)
(1.36328 -0.0049203 0)
(1.36431 -0.00451909 0)
(1.36648 -0.00398774 0)
(1.36941 -0.00362829 0)
(1.37113 -0.00337424 0)
(1.37156 -0.00267091 0)
(1.37018 -0.000268496 0)
(1.36703 0.00361382 0)
(1.79152 1.07697 0)
(1.63025 0.996959 0)
(0.995424 0.45262 0)
(0.596053 0.038586 0)
(0.278743 -0.0116056 0)
(0.0833733 0.0324309 0)
(-0.0571182 0.0934368 0)
(-0.169167 0.0897932 0)
(-0.238612 0.054585 0)
(-0.269815 0.0267654 0)
(-0.30704 0.0194821 0)
(-0.353449 0.0314993 0)
(-0.400323 0.0473937 0)
(-0.431587 0.0515029 0)
(-0.440867 0.0421166 0)
(-0.441369 0.0282047 0)
(-0.441331 0.0105604 0)
(-0.429767 -0.00971044 0)
(-0.40302 -0.0273404 0)
(-0.361932 -0.0400631 0)
(-0.310428 -0.0474259 0)
(-0.25332 -0.0536576 0)
(-0.193233 -0.0599222 0)
(-0.130416 -0.0668268 0)
(-0.0652764 -0.0762586 0)
(0.00217426 -0.0873558 0)
(0.0709255 -0.0951152 0)
(0.138435 -0.0980877 0)
(0.201861 -0.0946394 0)
(0.259286 -0.0861147 0)
(0.313388 -0.077679 0)
(0.367851 -0.0730833 0)
(0.425046 -0.0719216 0)
(0.483775 -0.0719109 0)
(0.540519 -0.0691047 0)
(0.591667 -0.0630071 0)
(0.636822 -0.0577116 0)
(0.68027 -0.0576811 0)
(0.724825 -0.0622865 0)
(0.769878 -0.067257 0)
(0.811852 -0.0667105 0)
(0.848538 -0.0602739 0)
(0.88042 -0.0528895 0)
(0.912173 -0.0480511 0)
(0.94598 -0.0447626 0)
(0.98015 -0.0400398 0)
(1.01079 -0.0328107 0)
(1.03703 -0.0265438 0)
(1.06227 -0.0247211 0)
(1.08976 -0.0269544 0)
(1.11958 -0.0296967 0)
(1.1484 -0.0292895 0)
(1.17216 -0.0247069 0)
(1.19228 -0.0187586 0)
(1.21263 -0.0143985 0)
(1.23497 -0.0134573 0)
(1.26096 -0.0155059 0)
(1.2896 -0.017133 0)
(1.31634 -0.0143672 0)
(1.33846 -0.00797824 0)
(1.3589 -0.00122556 0)
(1.37816 0.00175852 0)
(1.39595 -0.00208281 0)
(1.41369 -0.0120245 0)
(1.42447 -0.0207343 0)
(1.42553 -0.0269077 0)
(1.40004 -0.0236139 0)
(1.33209 -0.00883583 0)
(1.26842 0.00724752 0)
(1.24953 0.00660752 0)
(1.24947 -0.000517372 0)
(1.26022 -0.0049758 0)
(1.27856 -0.00585599 0)
(1.29379 -0.00186165 0)
(1.30496 0.000942544 0)
(1.31404 0.000994204 0)
(1.32305 -0.00119643 0)
(1.33327 -0.00502611 0)
(1.34392 -0.00737642 0)
(1.35397 -0.00629171 0)
(1.36228 -0.00122902 0)
(1.36806 0.0068177 0)
(1.37123 0.0131006 0)
(1.37291 0.0138922 0)
(1.37421 0.00980697 0)
(1.3775 0.00182394 0)
(1.38126 -0.00496129 0)
(1.38334 -0.00875092 0)
(1.38423 -0.0100367 0)
(1.38461 -0.00995266 0)
(1.38527 -0.00967224 0)
(1.38595 -0.0105532 0)
(1.38652 -0.0126079 0)
(1.38726 -0.0142279 0)
(1.38827 -0.0136351 0)
(1.38887 -0.00644524 0)
(1.62701 1.0514 0)
(1.94923 0.996546 0)
(1.65943 0.935782 0)
(1.45954 0.670442 0)
(1.01164 0.527789 0)
(0.621966 0.410141 0)
(0.388829 0.289263 0)
(0.22413 0.209024 0)
(0.0946389 0.144917 0)
(-0.0151524 0.0924217 0)
(-0.10977 0.0731846 0)
(-0.184756 0.0828019 0)
(-0.233512 0.0902174 0)
(-0.253065 0.0806572 0)
(-0.246056 0.0645473 0)
(-0.230701 0.036236 0)
(-0.207413 0.00878044 0)
(-0.173162 -0.0181791 0)
(-0.125047 -0.0474919 0)
(-0.0618004 -0.0770635 0)
(0.015101 -0.104593 0)
(0.0993533 -0.118284 0)
(0.182059 -0.125733 0)
(0.257551 -0.13147 0)
(0.325445 -0.135995 0)
(0.389479 -0.142782 0)
(0.453372 -0.156257 0)
(0.519547 -0.17124 0)
(0.585799 -0.182247 0)
(0.645897 -0.185515 0)
(0.69563 -0.179249 0)
(0.735869 -0.168448 0)
(0.773621 -0.160552 0)
(0.81408 -0.15737 0)
(0.858291 -0.157002 0)
(0.902423 -0.154749 0)
(0.939526 -0.146149 0)
(0.9686 -0.133649 0)
(0.995002 -0.123016 0)
(1.02225 -0.117447 0)
(1.05236 -0.116173 0)
(1.08227 -0.112988 0)
(1.10598 -0.104552 0)
(1.12539 -0.0956056 0)
(1.14624 -0.089653 0)
(1.17041 -0.0861904 0)
(1.19609 -0.0818627 0)
(1.21721 -0.0737503 0)
(1.2342 -0.064166 0)
(1.25152 -0.0569143 0)
(1.27103 -0.0548749 0)
(1.29348 -0.0565602 0)
(1.31602 -0.0573462 0)
(1.33426 -0.0542956 0)
(1.35046 -0.0486652 0)
(1.36689 -0.0413906 0)
(1.38487 -0.0376437 0)
(1.40527 -0.0389102 0)
(1.42907 -0.0424032 0)
(1.45131 -0.0426997 0)
(1.46947 -0.039464 0)
(1.4847 -0.0324617 0)
(1.49671 -0.0259716 0)
(1.50569 -0.0252892 0)
(1.50939 -0.0308214 0)
(1.50767 -0.043225 0)
(1.49398 -0.0505483 0)
(1.44588 -0.0398719 0)
(1.38294 -0.0220668 0)
(1.35414 -0.0182827 0)
(1.34828 -0.0193588 0)
(1.35669 -0.018544 0)
(1.37231 -0.0185649 0)
(1.38868 -0.0175226 0)
(1.3989 -0.0158098 0)
(1.40608 -0.013611 0)
(1.41186 -0.00949716 0)
(1.4168 -0.00629891 0)
(1.42224 -0.00667444 0)
(1.42923 -0.0104503 0)
(1.43841 -0.0142053 0)
(1.44543 -0.0143754 0)
(1.44901 -0.0111859 0)
(1.44948 -0.00249125 0)
(1.44711 0.00661485 0)
(1.44448 0.0114591 0)
(1.44323 0.0113083 0)
(1.44296 0.00819251 0)
(1.44457 0.00521755 0)
(1.4455 0.00502239 0)
(1.44509 0.00644821 0)
(1.443 0.00921499 0)
(1.43979 0.0103062 0)
(1.43783 0.0083016 0)
(1.43838 0.00235549 0)
(1.44247 -0.00387377 0)
(1.58765 0.958197 0)
(1.91221 0.899739 0)
(1.86519 0.911262 0)
(1.84467 0.862112 0)
(1.72548 0.736104 0)
(1.4425 0.583064 0)
(1.18177 0.440595 0)
(0.978795 0.316174 0)
(0.766122 0.263886 0)
(0.532688 0.238804 0)
(0.330183 0.201863 0)
(0.191135 0.16868 0)
(0.11823 0.142399 0)
(0.113151 0.0996315 0)
(0.155687 0.0636339 0)
(0.214003 0.0236973 0)
(0.280094 -0.0146111 0)
(0.346639 -0.0451607 0)
(0.414465 -0.068764 0)
(0.488627 -0.0910935 0)
(0.571369 -0.115701 0)
(0.660598 -0.151075 0)
(0.754174 -0.183793 0)
(0.84065 -0.202894 0)
(0.910466 -0.206926 0)
(0.962837 -0.200097 0)
(1.00267 -0.188916 0)
(1.03969 -0.182656 0)
(1.08074 -0.183812 0)
(1.12549 -0.187223 0)
(1.1664 -0.184805 0)
(1.19405 -0.173404 0)
(1.2099 -0.158696 0)
(1.22421 -0.147206 0)
(1.24255 -0.141085 0)
(1.26622 -0.139622 0)
(1.2906 -0.137904 0)
(1.30764 -0.131563 0)
(1.31802 -0.121507 0)
(1.32859 -0.110586 0)
(1.34327 -0.101842 0)
(1.36252 -0.0937113 0)
(1.37957 -0.0835007 0)
(1.38978 -0.0741771 0)
(1.39985 -0.0650701 0)
(1.41357 -0.0593128 0)
(1.43096 -0.0537437 0)
(1.44751 -0.0484728 0)
(1.45976 -0.0446219 0)
(1.46885 -0.0377981 0)
(1.47942 -0.0316511 0)
(1.49372 -0.0279261 0)
(1.51082 -0.0264802 0)
(1.52695 -0.0282423 0)
(1.54135 -0.0289756 0)
(1.55446 -0.0262517 0)
(1.56396 -0.0187669 0)
(1.57619 -0.0109061 0)
(1.59216 -0.00795799 0)
(1.60876 -0.0103231 0)
(1.62425 -0.0162586 0)
(1.63659 -0.0200392 0)
(1.64502 -0.0207595 0)
(1.64636 -0.0235956 0)
(1.64423 -0.0263238 0)
(1.63829 -0.0332767 0)
(1.62674 -0.0488783 0)
(1.60519 -0.052915 0)
(1.55981 -0.0338431 0)
(1.52115 -0.0112887 0)
(1.50481 -0.00680474 0)
(1.50851 -0.00606132 0)
(1.5189 -0.00493429 0)
(1.53038 -0.00571745 0)
(1.53983 -0.00766548 0)
(1.54688 -0.00898914 0)
(1.55409 -0.00828371 0)
(1.55782 -0.00214793 0)
(1.55709 0.00755348 0)
(1.55802 0.014049 0)
(1.56057 0.013724 0)
(1.56512 0.00628738 0)
(1.56904 -0.00325986 0)
(1.56939 -0.00926394 0)
(1.56863 -0.0105086 0)
(1.56529 -0.00675498 0)
(1.55886 -0.000665964 0)
(1.55351 0.0030722 0)
(1.5512 0.0030239 0)
(1.55053 0.000281855 0)
(1.55076 -0.00214107 0)
(1.55051 -0.00173604 0)
(1.54903 0.0036429 0)
(1.54466 0.0130689 0)
(1.5402 0.0213642 0)
(1.53791 0.01977 0)
(1.56317 0.9155 0)
(1.81704 0.852855 0)
(1.91275 0.818172 0)
(1.9001 0.816119 0)
(1.88471 0.80125 0)
(1.7937 0.786614 0)
(1.69395 0.720224 0)
(1.61187 0.627334 0)
(1.46282 0.561724 0)
(1.23166 0.493097 0)
(1.00242 0.386494 0)
(0.836425 0.261762 0)
(0.742547 0.162897 0)
(0.733693 0.0823005 0)
(0.784028 0.0112009 0)
(0.858671 -0.0555783 0)
(0.944567 -0.115536 0)
(1.03051 -0.16543 0)
(1.10671 -0.201786 0)
(1.16925 -0.223121 0)
(1.22013 -0.236061 0)
(1.26644 -0.244047 0)
(1.31726 -0.257258 0)
(1.37328 -0.275656 0)
(1.42401 -0.286344 0)
(1.45767 -0.284198 0)
(1.4726 -0.273503 0)
(1.47882 -0.259657 0)
(1.48565 -0.246522 0)
(1.49865 -0.236992 0)
(1.5177 -0.229486 0)
(1.53251 -0.217104 0)
(1.53465 -0.201913 0)
(1.53242 -0.189087 0)
(1.53322 -0.179572 0)
(1.53931 -0.172245 0)
(1.55061 -0.164926 0)
(1.55934 -0.154481 0)
(1.56233 -0.1427 0)
(1.56417 -0.128984 0)
(1.57086 -0.118349 0)
(1.58268 -0.111711 0)
(1.59348 -0.107192 0)
(1.60029 -0.101903 0)
(1.60427 -0.0900618 0)
(1.613 -0.0806489 0)
(1.6265 -0.0742584 0)
(1.6386 -0.0700064 0)
(1.64861 -0.0654995 0)
(1.65625 -0.0568072 0)
(1.66296 -0.0469332 0)
(1.67379 -0.0432891 0)
(1.68693 -0.0430003 0)
(1.69985 -0.0419116 0)
(1.71229 -0.0383319 0)
(1.72379 -0.0324724 0)
(1.73345 -0.025812 0)
(1.74208 -0.0222061 0)
(1.75161 -0.0225761 0)
(1.76228 -0.0227082 0)
(1.77287 -0.0231196 0)
(1.78137 -0.0252404 0)
(1.7857 -0.0306308 0)
(1.78265 -0.0395621 0)
(1.77682 -0.0504487 0)
(1.76907 -0.0603516 0)
(1.75907 -0.0762581 0)
(1.75217 -0.0871245 0)
(1.73256 -0.0729749 0)
(1.69988 -0.0403107 0)
(1.67626 -0.00918483 0)
(1.66754 -0.001106 0)
(1.67331 -0.00227545 0)
(1.6841 -0.00920116 0)