/*--------------------------------*- C++ -*----------------------------------*\
  =========                 |
  \\      /  F ield         | OpenFOAM: The Open Source CFD Toolbox
   \\    /   O peration     | Website:  https://openfoam.org
    \\  /    A nd           | Version:  7
     \\/     M anipulation  |
\*---------------------------------------------------------------------------*/
FoamFile
{
    version     2.0;
    format      ascii;
    class       volScalarField;
    location    "35";
    object      p;
}
// * * * * * * * * * * * * * * * * * * * * * * * * * * * * * * * * * * * * * //

dimensions      [0 2 -2 0 0 0 0];

internalField   nonuniform List<scalar> 
1989
(
-0.078738
-0.090518
-0.0837868
-0.0777708
-0.0720916
-0.0906636
-0.0832886
-0.0767629
-0.0709343
-0.0652876
-0.0830502
-0.0758871
-0.0695812
-0.0638999
-0.0584847
-0.0752446
-0.0683171
-0.0622425
-0.0567383
-0.0515945
-0.0672499
-0.060581
-0.054756
-0.0494596
-0.044597
-0.0590715
-0.0526839
-0.0471297
-0.042065
-0.0374911
-0.0446324
-0.0393699
-0.0345553
-0.0302831
-0.0364335
-0.0314826
-0.0269344
-0.0229799
-0.028095
-0.0234748
-0.0192085
-0.015589
-0.0196256
-0.0153542
-0.011385
-0.00811824
-0.00712963
-0.00347294
-0.000576031
0.00118916
0.00451803
0.00702853
0.00959148
0.0125771
0.0146854
0.0206925
0.0223834
0.0288511
0.0301101
0.0370375
0.037851
0.0455852
0.0532856
0.0609353
-0.0755117
-0.0738523
-0.0722941
-0.0707529
-0.0693172
-0.0679253
-0.0666442
-0.0654254
-0.0642645
-0.0631624
-0.0621157
-0.0610797
-0.0602395
-0.0593092
-0.0584513
-0.0576392
-0.0568679
-0.0561358
-0.0554405
-0.0547799
-0.0691242
-0.0678364
-0.0665279
-0.0652177
-0.0642413
-0.0630547
-0.0619839
-0.0609724
-0.0600131
-0.0591051
-0.0582405
-0.0574079
-0.0566992
-0.0559561
-0.0552532
-0.0545891
-0.053959
-0.0533609
-0.052793
-0.0522535
-0.0517404
-0.0512523
-0.0507943
-0.0503622
-0.0499435
-0.0495472
-0.049173
-0.0488204
-0.0484895
-0.0481805
-0.047894
-0.0476307
-0.0473919
-0.0471788
-0.0469933
-0.0468383
-0.0467135
-0.0466321
-0.04657
-0.0465992
-0.0627015
-0.0617836
-0.0607747
-0.0597803
-0.0589652
-0.0580829
-0.0572472
-0.0564599
-0.0557146
-0.0550094
-0.0543385
-0.0537055
-0.05314
-0.0525759
-0.052035
-0.0515228
-0.0510368
-0.0505753
-0.050137
-0.0497202
-0.0493236
-0.0489463
-0.0485908
-0.0482542
-0.0479291
-0.0476197
-0.0473267
-0.0470499
-0.0467894
-0.0465458
-0.0463195
-0.0461114
-0.0459227
-0.0457548
-0.0456094
-0.045489
-0.0453941
-0.0453361
-0.0452925
-0.0453338
-0.0562358
-0.0556125
-0.0549355
-0.0542474
-0.0536425
-0.0530367
-0.0524514
-0.0518973
-0.0513733
-0.0508775
-0.0504075
-0.0499686
-0.0495654
-0.0491751
-0.0487992
-0.0484419
-0.0481026
-0.0477801
-0.0474732
-0.0471809
-0.0469021
-0.0466363
-0.0463848
-0.0461453
-0.0459138
-0.0456918
-0.0454805
-0.0452798
-0.0450902
-0.044912
-0.0447461
-0.0445933
-0.0444548
-0.044332
-0.0442265
-0.0441408
-0.0440754
-0.0440407
-0.0440154
-0.0440683
-0.0496961
-0.0493654
-0.0490125
-0.0486237
-0.0482718
-0.0479323
-0.0476022
-0.0472881
-0.0469911
-0.0467105
-0.0464459
-0.0462008
-0.0459739
-0.0457571
-0.0455479
-0.0453481
-0.0451577
-0.0449761
-0.0448025
-0.0446362
-0.0444765
-0.0443232
-0.0441768
-0.0440359
-0.0438982
-0.0437642
-0.043635
-0.0435108
-0.0433923
-0.0432799
-0.0431745
-0.043077
-0.0429887
-0.0429109
-0.0428454
-0.0427942
-0.0427581
-0.0427464
-0.0427392
-0.0428031
-0.0430677
-0.0430465
-0.0430113
-0.0429231
-0.0428479
-0.0427764
-0.0427047
-0.0426357
-0.0425707
-0.0425101
-0.0424547
-0.0424061
-0.0423631
-0.0423224
-0.0422819
-0.0422419
-0.0422027
-0.042164
-0.0421255
-0.0420868
-0.0420474
-0.0420076
-0.0419676
-0.0419265
-0.041883
-0.0418375
-0.0417909
-0.0417436
-0.0416964
-0.0416499
-0.0416052
-0.0415631
-0.041525
-0.0414922
-0.0414664
-0.0414496
-0.0414426
-0.0414536
-0.0414643
-0.0415385
-0.0363507
-0.0366555
-0.0369382
-0.0371553
-0.0373676
-0.0375702
-0.037761
-0.0379415
-0.0381133
-0.0382772
-0.0384345
-0.0385865
-0.0387325
-0.0388713
-0.0390018
-0.039124
-0.0392381
-0.0393444
-0.0394427
-0.039533
-0.0396155
-0.0396903
-0.0397577
-0.0398174
-0.0398688
-0.0399123
-0.0399487
-0.0399787
-0.0400031
-0.0400228
-0.0400388
-0.0400521
-0.0400642
-0.0400763
-0.0400902
-0.0401076
-0.0401294
-0.0401629
-0.040191
-0.040275
-0.0295486
-0.0301921
-0.0307966
-0.0313247
-0.0318318
-0.0323145
-0.0327724
-0.0332071
-0.03362
-0.0340126
-0.0343865
-0.0347429
-0.0350821
-0.035404
-0.0357081
-0.0359948
-0.0362645
-0.0365177
-0.0367546
-0.0369756
-0.0371812
-0.0373717
-0.0375477
-0.0377092
-0.0378563
-0.0379893
-0.0381091
-0.0382168
-0.038313
-0.0383991
-0.0384759
-0.0385447
-0.0386069
-0.0386639
-0.0387172
-0.0387686
-0.038819
-0.0388748
-0.03892
-0.0390129
-0.0226663
-0.0236583
-0.0245895
-0.0254343
-0.0262419
-0.0270104
-0.0277402
-0.0284333
-0.0290916
-0.0297171
-0.0303114
-0.0308762
-0.0314125
-0.0319207
-0.0324014
-0.032855
-0.0332825
-0.0336845
-0.0340618
-0.0344151
-0.0347451
-0.0350526
-0.0353383
-0.0356026
-0.0358459
-0.036069
-0.0362728
-0.0364583
-0.0366268
-0.0367793
-0.0369171
-0.0370415
-0.0371538
-0.0372555
-0.0373481
-0.0374333
-0.037512
-0.0375895
-0.0376515
-0.0377526
-0.0157094
-0.0170574
-0.0183198
-0.0194866
-0.0205997
-0.0216588
-0.0226651
-0.0236212
-0.0245294
-0.0253917
-0.0262104
-0.0269874
-0.0277242
-0.028422
-0.029082
-0.0297051
-0.0302925
-0.0308454
-0.0313649
-0.031852
-0.0323078
-0.0327334
-0.0331298
-0.0334978
-0.0338382
-0.034152
-0.0344402
-0.0347041
-0.034945
-0.0351641
-0.035363
-0.0355429
-0.0357053
-0.0358516
-0.0359833
-0.036102
-0.0362087
-0.0363077
-0.036386
-0.0364946
-0.00868356
-0.0103936
-0.0119908
-0.0134841
-0.0149071
-0.0162615
-0.017549
-0.0187726
-0.0199347
-0.0210378
-0.0220846
-0.0230772
-0.0240178
-0.0249082
-0.0257501
-0.0265451
-0.0272947
-0.0280005
-0.0286639
-0.0292865
-0.0298696
-0.0304146
-0.0309229
-0.0313955
-0.0318338
-0.0322387
-0.0326118
-0.0329544
-0.033268
-0.0335541
-0.0338141
-0.0340495
-0.0342619
-0.0344527
-0.0346234
-0.0347754
-0.0349096
-0.0350298
-0.035124
-0.0352392
-0.00159499
-0.00367122
-0.00560616
-0.00742977
-0.00916712
-0.0108213
-0.0123942
-0.0138891
-0.0153086
-0.0166559
-0.0179338
-0.0191452
-0.0202928
-0.0213788
-0.0224055
-0.0233749
-0.024289
-0.0251499
-0.0259592
-0.0267189
-0.0274308
-0.0280966
-0.0287178
-0.0292962
-0.029833
-0.0303299
-0.0307884
-0.0312101
-0.0315967
-0.0319498
-0.032271
-0.032562
-0.0328243
-0.0330594
-0.0332688
-0.0334538
-0.0336153
-0.0337561
-0.0338658
-0.0339868
0.00554967
0.00310443
0.00082926
-0.00132817
-0.00338338
-0.00534052
-0.0072017
-0.00897046
-0.0106503
-0.0122447
-0.0137571
-0.0151908
-0.0165487
-0.0178336
-0.0190482
-0.0201949
-0.0212761
-0.0222942
-0.0232515
-0.0241502
-0.0249924
-0.0257802
-0.0265157
-0.0272006
-0.0278369
-0.0284263
-0.0289706
-0.0294718
-0.0299316
-0.0303519
-0.0307344
-0.0310809
-0.031393
-0.0316723
-0.0319202
-0.0321378
-0.0323262
-0.0324872
-0.0326118
-0.0327378
0.0127426
0.00992683
0.00730969
0.00481703
0.00244293
0.000181731
-0.00196941
-0.00401484
-0.00595856
-0.00780429
-0.00955554
-0.0112156
-0.0127878
-0.0142752
-0.0156808
-0.0170075
-0.0182582
-0.0194358
-0.0205429
-0.021582
-0.0225559
-0.023467
-0.0243176
-0.0251099
-0.0258463
-0.0265287
-0.0271593
-0.0277402
-0.0282734
-0.028761
-0.0292048
-0.0296067
-0.0299685
-0.0302918
-0.0305779
-0.0308279
-0.0310427
-0.0312236
-0.0313626
-0.0314927
0.0199754
0.0167901
0.0138323
0.0110065
0.00831383
0.00574647
0.00330104
0.000973403
-0.00123988
-0.00334209
-0.00533657
-0.0072268
-0.00901636
-0.0107088
-0.0123078
-0.0138166
-0.0152386
-0.0165771
-0.0178352
-0.0190161
-0.0201227
-0.0211579
-0.0221244
-0.0230249
-0.0238618
-0.0246377
-0.0253549
-0.0260158
-0.0266226
-0.0271776
-0.0276827
-0.0281401
-0.0285514
-0.0289184
-0.0292424
-0.0295244
-0.0297652
-0.0299655
-0.0301183
-0.0302517
0.0272412
0.0236923
0.0203967
0.0172379
0.0142219
0.0113411
0.0085942
0.00597877
0.00349225
0.00113134
-0.0011078
-0.00322927
-0.00523727
-0.00713593
-0.0089293
-0.0106213
-0.0122158
-0.0137165
-0.0151269
-0.0164507
-0.0176911
-0.0188514
-0.0199348
-0.0209443
-0.0218827
-0.0227527
-0.0235571
-0.0242984
-0.0249791
-0.0256016
-0.0261682
-0.026681
-0.0271418
-0.0275524
-0.0279141
-0.0282278
-0.0284942
-0.0287134
-0.0288795
-0.0290153
0.0345323
0.0306267
0.0269887
0.0234894
0.020143
0.0169455
0.013898
0.0109982
0.00824228
0.0056256
0.00314342
0.00079104
-0.00143608
-0.00354236
-0.00553214
-0.00740965
-0.00917906
-0.0108444
-0.0124097
-0.0138787
-0.0152553
-0.0165429
-0.0177452
-0.0188653
-0.0199066
-0.020872
-0.0217646
-0.0225871
-0.0233424
-0.024033
-0.0246613
-0.0252297
-0.02574
-0.0261941
-0.0265933
-0.0269384
-0.02723
-0.0274676
-0.0276464
-0.0277838
0.0418277
0.0375675
0.0335804
0.029745
0.0260814
0.0225841
0.0192507
0.016076
0.0130547
0.010182
0.00745377
0.00486574
0.00241387
9.39476e-05
-0.00209832
-0.00416726
-0.00611723
-0.00795252
-0.00967739
-0.011296
-0.0128124
-0.0142307
-0.0155545
-0.0167877
-0.0179337
-0.0189961
-0.019978
-0.0208828
-0.0217132
-0.0224724
-0.0231627
-0.0237868
-0.0243466
-0.0248441
-0.0252805
-0.0256567
-0.0259731
-0.0262287
-0.0264194
-0.0265577
0.0491015
0.0445072
0.0401974
0.0360631
0.0321122
0.0283298
0.0247109
0.0212526
0.017953
0.0148104
0.0118228
0.00898703
0.00629973
0.00375686
0.00135408
-0.000913129
-0.00304938
-0.00505931
-0.00694757
-0.00871876
-0.0103774
-0.0119279
-0.0133746
-0.0147216
-0.015973
-0.0171325
-0.018204
-0.0191908
-0.0200962
-0.0209236
-0.0216756
-0.0223549
-0.0229637
-0.023504
-0.0239771
-0.0243838
-0.0247242
-0.0249971
-0.025199
-0.0253375
0.0563737
0.0515132
0.0469179
0.0424891
0.0382268
0.0341225
0.0301816
0.0264101
0.0228113
0.0193852
0.01613
0.0130423
0.010118
0.00735254
0.004741
0.00227829
-4.07902e-05
-0.00222149
-0.00426904
-0.00618864
-0.0079854
-0.00966429
-0.0112301
-0.0126876
-0.0140412
-0.0152951
-0.0164535
-0.0175201
-0.0184986
-0.0193923
-0.0202043
-0.0209375
-0.021594
-0.022176
-0.0226847
-0.0231208
-0.0234844
-0.0237738
-0.0239859
-0.0241237
0.0636642
0.0585613
0.0536043
0.0487824
0.0441329
0.0396653
0.0353893
0.0313099
0.027427
0.0237369
0.0202348
0.0169157
0.013774
0.0108044
0.00800123
0.00535866
0.0028709
0.000532108
-0.00166352
-0.0037217
-0.00564802
-0.00744792
-0.00912664
-0.0106892
-0.0121405
-0.013485
-0.014727
-0.0158708
-0.01692
-0.0178782
-0.0187487
-0.0195342
-0.0202373
-0.0208599
-0.0214032
-0.0218679
-0.0222538
-0.0225589
-0.0227804
-0.0229166
0.0707676
0.0653383
0.0599416
0.0547243
0.049743
0.0449888
0.0404513
0.0361243
0.0320027
0.0280815
0.024356
0.0208216
0.0174733
0.0143062
0.0113147
0.00849316
0.00583564
0.00333622
0.000988947
-0.00121208
-0.00327267
-0.00519847
-0.00699496
-0.0086674
-0.0102209
-0.0116601
-0.0129898
-0.0142141
-0.0153371
-0.0163625
-0.0172936
-0.0181335
-0.0188847
-0.0195491
-0.0201279
-0.0206218
-0.0210302
-0.0213511
-0.0215814
-0.0217157
0.0719889
0.0665041
0.0611752
0.056049
0.051111
0.0463511
0.0417727
0.0373828
0.0331866
0.0291863
0.0253816
0.0217707
0.0183502
0.015116
0.0120633
0.00918663
0.00648038
0.00393864
0.00155544
-0.00067521
-0.00275923
-0.00470246
-0.00651055
-0.00818899
-0.00974301
-0.0111776
-0.0124976
-0.0137073
-0.014811
-0.0158121
-0.0167142
-0.0175199
-0.0182313
-0.0188498
-0.019376
-0.0198093
-0.0201475
-0.0203873
-0.02052
0.0744402
0.0691105
0.063797
0.0585732
0.0534724
0.0485256
0.0437584
0.0391869
0.0348197
0.0306601
0.0267085
0.022963
0.0194205
0.0160766
0.0129262
0.00996359
0.0071827
0.00457716
0.00214051
-0.000133774
-0.00225217
-0.00422103
-0.00604655
-0.00773471
-0.00929121
-0.0107215
-0.0120306
-0.0132232
-0.0143036
-0.0152756
-0.0161422
-0.016906
-0.0175685
-0.0181303
-0.0185909
-0.0189479
-0.0191976
-0.0193297
0.0812151
0.0755839
0.0699064
0.0643288
0.0589049
0.0536616
0.0486175
0.0437846
0.0391687
0.0347721
0.0305943
0.0266331
0.022885
0.0193456
0.0160098
0.0128716
0.00992491
0.00716323
0.00457989
0.00216819
-7.85788e-05
-0.00216701
-0.00410355
-0.00589442
-0.0075456
-0.00906275
-0.0104512
-0.0117158
-0.012861
-0.0138907
-0.0148081
-0.0156158
-0.0163153
-0.016907
-0.0173903
-0.0177626
-0.0180193
-0.0181507
0.0869941
0.0946807
0.100765
0.105134
0.10764
0.108996
0.109009
0.108272
0.106659
0.104607
0.102053
0.0993132
0.0963523
0.0933975
0.0904219
0.0875874
0.0848671
0.0823759
0.0800806
0.0780674
0.0763021
0.0748565
0.0737034
0.0729165
0.0724879
0.0809186
0.0883668
0.0946197
0.0992875
0.102329
0.104172
0.104735
0.104492
0.103368
0.101752
0.0996027
0.0972178
0.0945754
0.0918952
0.0891599
0.0865295
0.0839841
0.0816388
0.0794664
0.0775534
0.0758702
0.0744883
0.0733836
0.0726288
0.0722172
0.074872
0.082251
0.0886228
0.0935551
0.0970511
0.0993414
0.100423
0.100652
0.100007
0.0988191
0.0970753
0.0950465
0.0927275
0.090327
0.0878386
0.0854184
0.0830544
0.0808606
0.0788166
0.0770084
0.0754113
0.0740963
0.0730428
0.0723219
0.0719281
0.0690406
0.0763472
0.0827942
0.0879602
0.0918355
0.0945319
0.096091
0.0967682
0.0965856
0.0958158
0.0944739
0.0928008
0.0908085
0.0886919
0.0864565
0.0842522
0.082076
0.0800396
0.0781296
0.0764309
0.0749243
0.0736797
0.0726799
0.0719947
0.0716198
0.0634618
0.0706695
0.0771477
0.0825061
0.0866942
0.089756
0.0917484
0.0928488
0.0931084
0.0927458
0.0918002
0.0904812
0.0888178
0.0869887
0.0850118
0.0830293
0.0810472
0.079174
0.0774037
0.0758195
0.0744078
0.0732371
0.072294
0.0716465
0.0712916
0.0581183
0.0652125
0.07169
0.0771957
0.0816396
0.0850265
0.0874087
0.0889058
0.0895848
0.0896167
0.0890594
0.0880914
0.0867576
0.0852187
0.0835049
0.0817493
0.0799673
0.078263
0.076638
0.0751732
0.0738609
0.0727676
0.0718842
0.0712763
0.0709424
0.0529971
0.0599687
0.066423
0.072034
0.0766847
0.0803563
0.0830863
0.0849524
0.0860259
0.0864377
0.0862582
0.0856367
0.0846311
0.083384
0.0819368
0.0804126
0.0788361
0.0773061
0.0758318
0.0744912
0.0732826
0.0722703
0.0714495
0.0708833
0.0705715
0.0480945
0.0549347
0.0613471
0.0670258
0.0718411
0.0757577
0.0787955
0.0810016
0.082443
0.0832184
0.083404
0.0831227
0.0824423
0.0814872
0.0803092
0.0790201
0.0776538
0.0763029
0.0749844
0.0737727
0.0726721
0.0717445
0.0709892
0.0704666
0.0701781
0.0434097
0.0501098
0.0564624
0.0621759
0.0671186
0.0712419
0.0745496
0.0770656
0.0788478
0.0799687
0.0805046
0.0805558
0.0801956
0.0795317
0.0786238
0.0775729
0.0764208
0.0752536
0.0740956
0.0730171
0.0720288
0.0711893
0.0705025
0.0700255
0.0697614
0.0389414
0.0454936
0.0517692
0.0574886
0.0625255
0.0668192
0.0703612
0.0731566
0.075252
0.0766987
0.0775687
0.0779426
0.077896
0.0775211
0.0768833
0.0760725
0.0751378
0.0741583
0.0731652
0.0722243
0.0713522
0.0706043
0.0699888
0.0695593
0.0693208
0.0346876
0.0410851
0.0472677
0.0529681
0.058069
0.0624993
0.066242
0.0692864
0.0716674
0.0734187
0.0746053
0.0752907
0.0755495
0.0754598
0.0750905
0.0745211
0.0738062
0.0730177
0.0721933
0.0713939
0.0706419
0.0699888
0.0694475
0.0690674
0.0688556
0.0306456
0.0368826
0.042958
0.0486176
0.0537551
0.0582911
0.0622028
0.0654662
0.0681055
0.0701393
0.0716237
0.0726078
0.0731622
0.0733528
0.0732492
0.0729212
0.0724274
0.0718329
0.0711804
0.0705262
0.0698977
0.0693427
0.0688781
0.0685494
0.0683655
0.0268118
0.0328837
0.0388394
0.0444396
0.0495892
0.0542026
0.0582535
0.061707
0.0645776
0.066871
0.0686337
0.0699022
0.0707413
0.0712056
0.0713635
0.0712759
0.0710037
0.0706052
0.0701274
0.0696215
0.0691198
0.0686658
0.0682805
0.0680049
0.06785
0.0231823
0.0290854
0.034911
0.0404359
0.0455756
0.0502407
0.0544032
0.0580189
0.0610945
0.0636242
0.0656452
0.0671826
0.068294
0.0690242
0.0694382
0.069589
0.0695377
0.0693365
0.0690354
0.0686807
0.0683084
0.0679582
0.0676545
0.0674339
0.067309
0.0197525
0.0254842
0.0311714
0.0366075
0.0417178
0.0464117
0.0506599
0.0544117
0.0576666
0.0604094
0.0626683
0.064458
0.0658284
0.0668152
0.0674787
0.0678645
0.0680325
0.0680292
0.067906
0.0677047
0.0674643
0.0672204
0.0670004
0.0668363
0.0667424
0.0165173
0.0220762
0.0276185
0.0329545
0.0380186
0.0427207
0.0470311
0.0508942
0.0543039
0.0572369
0.0597128
0.0617375
0.0633528
0.0645857
0.065491
0.0661073
0.066492
0.0666861
0.0667412
0.0666951
0.0665884
0.066453
0.0663186
0.0662126
0.0661505
0.0134713
0.0188572
0.0242498
0.0294766
0.0344799
0.0391722
0.0435232
0.0474747
0.0510157
0.0541164
0.0567888
0.0590307
0.0608757
0.0623432
0.0634814
0.0643227
0.0649202
0.0653105
0.0655437
0.0656538
0.0656821
0.0656571
0.0656098
0.0655632
0.0655338
0.0106089
0.0158223
0.0210624
0.0261727
0.0311032
0.0357695
0.0401419
0.0441606
0.0478107
0.0510575
0.0539059
0.0563469
0.058406
0.0600957
0.0614571
0.0625164
0.0633222
0.0639063
0.0643165
0.0645831
0.0647472
0.0648341
0.064875
0.0648891
0.0648929
0.00792408
0.0129669
0.0180528
0.0230412
0.0278889
0.0325155
0.036892
0.0409587
0.0446973
0.0480693
0.0510738
0.0536956
0.0559529
0.0578514
0.0594253
0.0606948
0.0617033
0.0624778
0.0630631
0.0634859
0.063786
0.0639856
0.0641156
0.0641914
0.0642291
0.00541103
0.0102858
0.0152174
0.0200802
0.024837
0.0294123
0.0337779
0.0378749
0.0416828
0.0451605
0.0483017
0.0510863
0.0535255
0.055619
0.0573939
0.0588649
0.0600695
0.0610302
0.0617877
0.0623655
0.0628012
0.063114
0.0633336
0.0634719
0.0635436
0.00306372
0.00777399
0.0125523
0.0172873
0.0219471
0.0264614
0.030803
0.0349148
0.0387743
0.0423393
0.0455987
0.0485284
0.0511332
0.0534074
0.0553713
0.0570341
0.0584272
0.0595688
0.060495
0.061226
0.0617961
0.0622219
0.0625312
0.0627324
0.0628385
0.00087623
0.00542618
0.0100535
0.0146599
0.0192183
0.0236636
0.0279701
0.0320828
0.0359783
0.0396133
0.0429734
0.046031
0.0487853
0.0512257
0.0533659
0.0552102
0.0567837
0.0581001
0.0591905
0.0600717
0.0607745
0.0613127
0.0617113
0.0619756
0.062116
-0.00115727
0.00323727
0.00771684
0.012195
0.0166492
0.0210195
0.0252816
0.0293833
0.0333004
0.03699
0.0404342
0.0436032
0.0464911
0.0490832
0.0513869
0.0534016
0.0551464
0.0566306
0.05788
0.0589079
0.0597409
0.0603901
0.0608773
0.0612046
0.061379
-0.00304244
0.00120224
0.00553811
0.00988976
0.0142383
0.0185291
0.0227393
0.0268199
0.0307462
0.034476
0.0379891
0.0412539
0.0442601
0.0469894
0.0494434
0.0516172
0.0535237
0.0551679
0.0565702
0.0577403
0.0587005
0.0594587
0.060033
0.0604228
0.060631
-0.00478472
-0.000683792
0.00351328
0.00774106
0.0119839
0.0161923
0.0203449
0.0243958
0.0283205
0.0320778
0.0356458
0.0389918
0.0421016
0.0449538
0.047545
0.049866
0.051924
0.0537198
0.0552683
0.0565754
0.0576588
0.0585234
0.0591832
0.0596346
0.0598758
-0.00638927
-0.00242548
0.00163842
0.00574596
0.00988432
0.0140088
0.0180995
0.0221139
0.0260278
0.0298016
0.0334119
0.0368254
0.0400248
0.0429862
0.0457015
0.0481578
0.0503568
0.0522951
0.0539823
0.0554205
0.0566226
0.0575902
0.0583332
0.0588447
0.0591183
-0.00786095
-0.00402717
-9.01651e-05
0.00390163
0.00793779
0.0119781
0.0160044
0.0199771
0.0238727
0.0276531
0.0312945
0.0347631
0.038039
0.0410964
0.0439231
0.0465025
0.0488317
0.0509029
0.0527207
0.0542834
0.0555988
0.0566656
0.057489
0.0580589
0.0583638
-0.00920421
-0.00549286
-0.00167587
0.00220549
0.0061428
0.0101001
0.0140606
0.0179878
0.0218592
0.0256383
0.0293009
0.0328133
0.0361537
0.0392945
0.0422201
0.0449108
0.0473589
0.0495531
0.0514929
0.0531727
0.0545956
0.0557569
0.0566573
0.0572835
0.0576185
-0.0104231
-0.0068261
-0.00312165
0.000655336
0.00449811
0.00837464
0.0122694
0.016149
0.0199916
0.0237629
0.0274382
0.0309845
0.0343783
0.0375908
0.0406033
0.0433935
0.0459495
0.0482564
0.050309
0.0520979
0.0536218
0.0548723
0.0558459
0.0565256
0.0568892
-0.0115209
-0.00802988
-0.00442994
-0.000750549
0.00300292
0.006802
0.0106324
0.0144635
0.0182744
0.0220327
0.0257138
0.0292853
0.0327226
0.0359958
0.0390838
0.041962
0.0446147
0.0470238
0.0491797
0.0510693
0.0526869
0.0540208
0.0550631
0.0557933
0.0561839
-0.0125007
-0.00910655
-0.00560255
-0.00201325
0.00165703
0.00538305
0.00915159
0.0129347
0.0167124
0.020454
0.0241353
0.0277247
0.0311966
0.0345206
0.0376734
0.0406285
0.0433669
0.0458674
0.0481166
0.0500979
0.0518015
0.0532122
0.0543183
0.0550953
0.0555111
-0.0133643
-0.0100577
-0.00664042
-0.00313304
0.000461029
0.0041194
0.00782982
0.0115667
0.0153109
0.0190336
0.022711
0.0263121
0.0298109
0.0331767
0.0363842
0.0394055
0.0422187
0.0448
0.0471322
0.0491957
0.0509769
0.0524575
0.0536216
0.0544415
0.0548803
-0.014113
-0.0108838
-0.00754354
-0.00410917
-0.00058347
0.00301365
0.00667079
0.0103644
0.0140764
0.0177793
0.0214498
0.0250578
0.028577
0.0319764
0.0352294
0.0383066
0.0411838
0.043835
0.0462397
0.0483756
0.0502254
0.0517681
0.0529842
0.0538426
0.054302
-0.0147467
-0.0115843
-0.00831062
-0.0049396
-0.00147355
0.00206972
0.00567953
0.00933417
0.0130162
0.0166997
0.0203618
0.0239732
0.0275073
0.030933
0.0342228
0.0373462
0.040277
0.0429872
0.0454536
0.0476514
0.0495603
0.0511568
0.052418
0.0533099
0.0537875
-0.015264
-0.0121571
-0.00893879
-0.00562064
-0.00220465
0.00129317
0.0048627
0.00848375
0.0121395
0.0158053
0.0194586
0.0230708
0.0266154
0.0300612
0.0333798
0.0365401
0.039514
0.0422722
0.0447891
0.0470379
0.0489958
0.050637
0.051936
0.0528561
0.0533488
-0.0156617
-0.0125981
-0.00942322
-0.00614666
-0.00277016
0.00069165
0.00422909
0.00782314
0.0114575
0.0151084
0.0187537
0.0223654
0.0259169
0.0293771
0.0327171
0.035905
0.0389119
0.0417068
0.0442627
0.046551
0.048547
0.0502232
0.0515519
0.0524942
0.052999
-0.0159342
-0.0129011
-0.00975689
-0.00650967
-0.003161
0.000275449
0.00379019
0.00736505
0.010984
0.014624
0.0182631
0.0218738
0.0254294
0.028899
0.0322533
0.0354599
0.0384892
0.0413093
0.0438921
0.0462078
0.0482302
0.0499308
0.0512803
0.0522384
0.0527517
-0.0160738
-0.0130581
-0.00993055
-0.00669879
-0.00336482
5.82644e-05
0.00356095
0.00712563
0.0107363
0.0143704
0.0180061
0.021616
0.0251735
0.0286478
0.0320093
0.0352256
0.0382664
0.0410997
0.0436964
0.0460264
0.0480627
0.0497762
0.0511367
0.0521033
0.0526211
)
;

boundaryField
{
    inlet
    {
        type            zeroGradient;
    }
    outlet
    {
        type            fixedValue;
        value           nonuniform 0();
    }
    cylinder
    {
        type            zeroGradient;
    }
    top
    {
        type            symmetryPlane;
    }
    bottom
    {
        type            symmetryPlane;
    }
    defaultFaces
    {
        type            empty;
    }
    procBoundary12to8
    {
        type            processor;
        value           nonuniform List<scalar> 
55
(
-0.0989248
-0.0911071
-0.0830713
-0.0748195
-0.0663583
-0.0507153
-0.0507153
-0.0421887
-0.0334997
-0.0246576
-0.0110348
-0.0110348
-0.00233289
0.00646872
0.0180658
0.0180658
0.0265996
0.0351792
0.0452336
0.0452336
0.0534202
0.0615832
0.068529
0.068529
0.0759674
0.0774727
0.0774727
0.0795833
0.0795833
0.086472
0.0929794
0.101376
0.10708
0.111054
0.11293
0.113752
0.113188
0.111942
0.109835
0.107349
0.104396
0.101308
0.0980382
0.094818
0.0916122
0.0885827
0.0856962
0.0830669
0.0806557
0.0785482
0.0767058
0.0752006
0.0740022
0.0731854
0.0727412
)
;
    }
    procBoundary12to9
    {
        type            processor;
        value           uniform -0.0980802;
    }
    procBoundary12to13
    {
        type            processor;
        value           nonuniform List<scalar> 
46
(
-0.0851762
-0.0975721
-0.0906629
-0.0844835
-0.0844835
-0.0817037
-0.0797486
-0.077934
-0.0761531
-0.0744257
-0.0728083
-0.0713042
-0.0698738
-0.0685124
-0.0672201
-0.0659973
-0.0648104
-0.0636984
-0.062621
-0.0616203
-0.0606678
-0.0597608
-0.0588983
-0.0580784
-0.057299
-0.0541522
-0.0541522
-0.053554
-0.0529943
-0.0524682
-0.0519557
-0.0514733
-0.0510185
-0.0505905
-0.0501895
-0.0498155
-0.0494689
-0.0491506
-0.0488616
-0.0486035
-0.0483779
-0.048188
-0.0480333
-0.0479283
-0.0478475
-0.0478639
)
;
    }
}


// ************************************************************************* //
