/*--------------------------------*- C++ -*----------------------------------*\
  =========                 |
  \\      /  F ield         | OpenFOAM: The Open Source CFD Toolbox
   \\    /   O peration     | Website:  https://openfoam.org
    \\  /    A nd           | Version:  7
     \\/     M anipulation  |
\*---------------------------------------------------------------------------*/
FoamFile
{
    version     2.0;
    format      ascii;
    class       volScalarField;
    location    "16.5";
    object      p;
}
// * * * * * * * * * * * * * * * * * * * * * * * * * * * * * * * * * * * * * //

dimensions      [1 -1 -2 0 0 0 0];

internalField   nonuniform List<scalar> 
4032
(
1
1
1
1
1
1
1
1
1
1
1
1.16477
7.11398
10.6294
10.7863
10.989
11.1763
11.3546
11.5226
11.678
11.8172
11.9291
12.0138
12.0731
1
1
1
1
1
1
1
1
1
1
1
1.12869
6.96294
10.6043
10.7704
10.9674
11.1527
11.3283
11.4921
11.6406
11.7714
11.8741
11.9492
12.0026
1
1
1
1
1
1
1
1
1
1
1
1.01233
6.60963
10.5705
10.736
10.9272
11.1093
11.2786
11.4348
11.5747
11.6977
11.7952
11.8652
11.9196
1
1
1
1
1
1
1
1
1
1
1
1.00019
6.09315
10.4732
10.6598
10.8451
11.0256
11.1897
11.341
11.4755
11.5911
11.6763
11.7278
11.7622
1
1
1
1
1
1
1
1
1
1
1
1
5.41378
10.3148
10.5758
10.7504
10.9253
11.0769
11.2112
11.3229
11.4126
11.4795
11.5195
11.5715
1
1
1
1
1
1
1
1
1
1
1
1
4.59567
10.0595
10.4734
10.6347
10.7964
10.9291
11.043
11.1369
11.2115
11.2651
11.2735
11.227
1
1
1
1
1
1
1
1
1
1
1
1
3.68819
9.66327
10.3856
10.5312
10.6752
10.7818
10.857
10.9076
10.9183
10.8656
10.7814
10.7248
1
1
1
1
1
1
1
1
1
1
1
1
2.70668
9.03974
10.3186
10.4357
10.5484
10.6221
10.6529
10.6514
10.5875
10.486
10.3331
10.2822
1
1
1
1
1
1
1
1
1
1
1
1
1.73044
8.15889
10.2959
10.3027
10.4048
10.4517
10.4357
10.3712
10.2113
9.92148
9.15561
7.12385
1
1
1
1
1
1
1
1
1
1
1
1
1.06992
6.9349
10.2442
10.1749
10.2006
10.2177
10.1676
10.0419
9.79927
9.31665
8.53686
6.45806
1
1
1
1
1
1
1
1
1
1
1
1
1.00044
5.27611
9.70617
9.91271
10.0002
9.98681
9.90704
9.73117
9.43582
8.88294
8.09084
6.16207
1
1
1
1
1
1
1
1
1
1
1
1
0.999996
3.50174
9.09631
9.80766
9.86167
9.82176
9.70149
9.4815
9.13681
8.5867
7.76474
6.2491
1
1
1
1
1
1
1
1
1
1
1
1
0.999999
1.91657
8.18909
9.79338
9.74857
9.66868
9.53271
9.29282
8.92771
8.3917
7.59382
6.54971
1
1
1
1
1
1
1
1
1
1
1
1
1
1.08759
6.59412
9.64518
9.58947
9.50911
9.38547
9.15667
8.80186
8.28648
7.61449
6.91374
1
1
1
1
1
1
1
1
1
1
1
1
1
1.00048
4.46307
9.1383
9.47506
9.41208
9.31711
9.08049
8.7424
8.28832
7.75947
7.27138
1
1
1
1
1
1
1
1
1
1
1
1
1
0.999996
2.33168
8.45346
9.53477
9.43843
9.31479
9.07027
8.75714
8.36486
7.93132
7.55281
1
1
1
1
1
1
1
1
1
1
1
1
1
0.999999
1.14626
6.92979
9.56341
9.48259
9.31688
9.10061
8.80898
8.47237
8.11082
7.78903
1
1
1
1
1
1
1
1
1
1
1
1
1
1
1.00162
4.83683
9.22576
9.48043
9.34343
9.12849
8.87278
8.58758
8.28086
7.99174
1
1
1
1
1
1
1
1
1
1
1
1
1
1
0.99999
2.66577
8.82644
9.79193
9.46187
9.20741
8.97008
8.71884
8.4555
8.1824
1
1
1
1
1
1
1
1
1
1
1
1
1
1
0.999998
1.2545
7.70724
9.84798
9.47522
9.27573
9.08633
8.87272
8.63925
8.38154
1
1
1
1
1
1
1
1
1
1
1
1
1
1
1
1.00555
6.0181
9.72591
9.5529
9.42536
9.23874
9.0282
8.80329
8.55444
1
1
1
1
1
1
1
1
1
1
1
1
1
1
1
0.99999
4.23355
9.49485
9.78016
9.60283
9.39044
9.17808
8.95976
8.72373
1
1
1
1
1
1
1
1
1
1
1
1
1
1
1
0.999997
2.68321
9.00475
10.0279
9.72082
9.51511
9.31032
9.09943
8.87641
1
1
1
1
1
1
1
1
1
1
1
1
1
1
1
1
1.5428
8.16037
10.1825
9.79505
9.61884
9.42905
9.22769
9.01691
1
1
1
1
1
1
1
1
1
1
1
1
1
1
1
1
1.02974
7.1842
10.2382
9.87482
9.70483
9.52512
9.3352
9.13784
1
1
1
1
1
1
1
1
1
1
1
1
1
1
1
1
1.00012
5.95068
10.0905
9.90145
9.75387
9.59369
9.417
9.23274
1
1
1
1
1
1
1
1
1
1
1
1
1
1
1
1
1
4.84736
9.88231
10.0171
9.84351
9.69357
9.51843
9.33817
1
1
1
1
1
1
1
1
1
1
1
1
1
1
1
1
1
3.85011
9.55097
10.0661
9.85718
9.72699
9.56371
9.39368
1
1
1
1
1
1
1
1
1
1
1
1
1
1
1
1
1
2.98851
9.22237
10.2071
9.95081
9.8145
9.64487
9.47405
1
1
1
1
1
1
1
1
1
1
1
1
1
1
1
1
1
2.231
8.82086
10.3743
10.0244
9.86385
9.69242
9.52593
1
1
1
1
1
1
1
1
1
1
1
1
1
1
1
1
1
1.66331
8.31844
10.4372
10.0768
9.9109
9.74336
9.57914
1
1
1
1
1
1
1
1
1
1
1
1
1
1
1
1
1
1.37723
7.80537
10.4589
10.1325
9.97364
9.80563
9.63977
1
1
1
1
1
1
1
1
1
1
1
1
1
1
1
1
1
1.21269
7.3411
10.4115
10.1507
10.0063
9.85078
9.68973
1
1
1
1
1
1
1
1
1
1
1
1
1
1
1
1
1
1.05148
6.89063
10.3984
10.2025
10.0585
9.9054
9.74133
1
1
1
1
1
1
1
1
1
1
1
1
1
1
1
1
1
1.00121
6.47769
10.3531
10.2268
10.0639
9.91734
9.75676
1
1
1
1
1
1
1
1
1
1
1
1
1
1
1
1
1
1
6.06696
10.3207
10.2717
10.0788
9.93943
9.78084
1
1
1
1
1
1
1
1
1
1
1
1
1
1
1
1
1
1
5.73111
10.2993
10.3132
10.0913
9.95586
9.79784
1
1
1
1
1
1
1
1
1
1
1
1
1
1
1
1
1
1
5.47431
10.2752
10.3398
10.1015
9.96698
9.80929
1
1
1
1
1
1
1
1
1
1
1
1
1
1
1
1
1
1
5.30287
10.2534
10.3495
10.106
9.97076
9.81367
1
1
1
1
1
1
1
1
1
1
1
1
1
1
1
1
1
1
5.22853
10.2284
10.3484
10.1091
9.97549
9.81851
2.14526
2.59329
3.21752
3.71123
3.83801
3.84429
3.87546
3.92692
4.02921
4.15703
4.26813
4.32332
4.33141
4.31888
4.30556
4.30182
4.3107
4.33227
4.36331
4.39678
4.42466
4.44514
4.45973
4.47212
4.49176
4.52677
4.57855
4.64052
4.70282
4.75377
4.78504
4.79443
4.79142
4.7853
4.78297
4.78691
4.79617
4.80781
4.82003
4.8315
4.83976
4.8404
4.82809
4.80009
4.75891
4.70983
4.66002
4.61659
4.58283
4.55667
4.5327
4.507
4.47833
4.44636
4.40908
4.36352
4.30653
4.23977
4.16843
4.09937
4.03792
3.98579
3.94131
3.90058
3.86051
3.82138
3.78586
3.75289
3.71242
3.6627
3.61148
3.5618
3.51458
3.47105
3.42855
3.38233
3.33543
3.29203
3.25587
3.2275
3.19234
3.1527
3.11135
3.06804
3.02723
2.99051
2.95453
2.91805
2.8832
2.85293
2.83005
2.81919
2.82003
2.82218
2.81616
2.83882
3.54501
3.98537
3.87783
3.89138
3.92273
3.9172
3.97869
4.07409
4.15512
4.20676
4.2437
4.2557
4.24309
4.21678
4.20353
4.20959
4.23292
4.26756
4.3057
4.33842
4.36857
4.39913
4.43149
4.46485
4.4965
4.52583
4.5564
4.59196
4.6342
4.68155
4.72804
4.76332
4.77988
4.78101
4.77831
4.78144
4.79274
4.80738
4.81685
4.81494
4.80217
4.78241
4.76244
4.74464
4.72402
4.69425
4.65413
4.60997
4.56927
4.53544
4.50672
4.47676
4.43916
4.39382
4.34587
4.30055
4.25764
4.21086
4.15702
4.09945
4.04285
3.99063
3.94279
3.89856
3.85582
3.81405
3.77434
3.73683
3.69429
3.64309
3.59053
3.53774
3.49096
3.45138
3.41728
3.38455
3.35111
3.3183
3.28982
3.26303
3.22827
3.18978
3.14839
3.10136
3.0537
3.01684
2.98527
2.95536
2.92442
2.89227
2.86234
2.83858
2.82257
2.8148
2.80981
2.84628
4.40135
4.688
4.09874
3.94981
4.01737
4.09282
4.15171
4.1879
4.17955
4.13618
4.1098
4.12347
4.16204
4.19582
4.21688
4.24736
4.28885
4.34314
4.4001
4.44395
4.46889
4.48263
4.50114
4.5351
4.57947
4.62391
4.65789
4.67759
4.68832
4.70048
4.72171
4.75385
4.78448
4.80152
4.80362
4.80128
4.80542
4.81991
4.83977
4.85454
4.85322
4.8279
4.78964
4.75284
4.72244
4.69711
4.66922
4.63338
4.59414
4.55815
4.52814
4.50245
4.47288
4.42617
4.36489
4.30052
4.24047
4.18577
4.1352
4.08735
4.04078
3.99447
3.94915
3.90427
3.86028
3.81792
3.77535
3.72883
3.68001
3.62996
3.57646
3.51874
3.45983
3.4076
3.36804
3.3353
3.30933
3.28945
3.27226
3.24774
3.21732
3.18584
3.15184
3.1105
3.05996
3.01016
2.97564
2.9512
2.93432
2.9228
2.90988
2.89097
2.87062
2.85567
2.84881
2.89136
5.10504
5.39081
4.60902
4.34682
4.41686
4.37091
4.26341
4.20558
4.17999
4.14379
4.12417
4.13906
4.19579
4.26779
4.31118
4.32571
4.3297
4.34491
4.38546
4.44048
4.47587
4.48434
4.48272
4.49104
4.5187
4.56526
4.61829
4.65892
4.67819
4.68418
4.69303
4.71502
4.74972
4.78702
4.81144
4.81635
4.81005
4.80327
4.80038
4.80181
4.8032
4.79388
4.76378
4.72317
4.68319
4.65092
4.62664
4.59884
4.56143
4.51907
4.47811
4.44358
4.41572
4.38017
4.33384
4.28309
4.22569
4.16787
4.11477
4.06539
4.02152
3.98247
3.94294
3.90185
3.85995
3.81597
3.76871
3.71874
3.66982
3.62453
3.5809
3.53548
3.48561
3.43288
3.38585
3.35034
3.32162
3.29571
3.26783
3.2377
3.20478
3.17198
3.14117
3.10877
3.07081
3.0235
2.96961
2.92938
2.90719
2.89463
2.88958
2.8813
2.87186
2.86453
2.86304
2.91265
5.88417
5.98087
5.1944
4.7569
4.6961
4.61103
4.47682
4.39305
4.37508
4.34278
4.29921
4.25971
4.2361
4.25754
4.30447
4.31538
4.30866
4.3078
4.31765
4.35373
4.41042
4.45603
4.47903
4.48973
4.50222
4.52681
4.56978
4.62224
4.66315
4.68242
4.69004
4.69871
4.71513
4.74251
4.77397
4.79514
4.79829
4.79127
4.78025
4.76536
4.74954
4.73835
4.71746
4.68911
4.6597
4.63215
4.60702
4.5778
4.53885
4.49951
4.46735
4.4371
4.39727
4.35221
4.30515
4.25953
4.21535
4.16894
4.11604
4.05636
4.00343
3.96497
3.93313
3.90278
3.86943
3.83065
3.78351
3.72698
3.66707
3.6128
3.56584
3.52246
3.47904
3.43356
3.39323
3.36365
3.33802
3.31142
3.28256
3.25107
3.21536
3.17727
3.14279
3.11336
3.08497
3.05299
3.0119
2.96024
2.92043
2.89985
2.88543
2.87834
2.88676
2.90583
2.92241
2.99225
6.47949
6.39314
5.64224
5.13623
5.01776
4.92411
4.77895
4.6298
4.55427
4.52173
4.48381
4.44693
4.40699
4.38245
4.41281
4.43764
4.42629
4.40974
4.40724
4.42591
4.47292
4.5132
4.52312
4.51918
4.52013
4.53616
4.57743
4.6295
4.66527
4.67609
4.67398
4.67363
4.68309
4.71186
4.75614
4.79198
4.79956
4.785
4.76725
4.75052
4.74056
4.74554
4.74523
4.72243
4.6887
4.65191
4.61603
4.58612
4.5577
4.52609
4.49374
4.45646
4.41314
4.36808
4.325
4.28284
4.23924
4.19136
4.13504
4.07103
4.02075
3.98706
3.9553
3.92294
3.88897
3.8493
3.79861
3.73627
3.67262
3.62021
3.57765
3.5374
3.49353
3.44512
3.40082
3.36584
3.33528
3.30553
3.27541
3.24349
3.20769
3.16715
3.1277
3.09633
3.07038
3.04516
3.01576
2.97616
2.92939
2.90458
2.8936
2.89261
2.91664
2.96579
3.01302
3.11511
6.94841
6.72172
6.03077
5.53563
5.40684
5.31459
5.14937
4.91728
4.71546
4.62981
4.58606
4.54149
4.50086
4.49056
4.53557
4.58375
4.58077
4.55043
4.52908
4.53309
4.5644
4.59556
4.59925
4.59078
4.58868
4.59813
4.62548
4.66352
4.68173
4.68035
4.67669
4.6819
4.70061
4.73444
4.77412
4.78595
4.77393
4.74896
4.7335
4.73165
4.74023
4.73217
4.70444
4.66047
4.61184
4.57828
4.55804
4.54766
4.52441
4.48754
4.4444
4.39886
4.35501
4.31456
4.27356
4.22976
4.18506
4.1403
4.09377
4.04732
4.00462
3.96573
3.929
3.89128
3.85155
3.80797
3.75861
3.7062
3.65821
3.61594
3.57409
3.5293
3.48043
3.43056
3.38668
3.35155
3.32138
3.2929
3.26501
3.23595
3.20235
3.16021
3.11308
3.07572
3.04866
3.02475
3.00068
2.97366
2.9386
2.91728
2.91264
2.92163
2.96685
3.03362
3.1055
3.22906
7.24906
6.9533
6.37435
5.95255
5.82186
5.71523
5.52128
5.24786
4.9882
4.84746
4.78038
4.70202
4.62739
4.59794
4.62525
4.67052
4.66657
4.62727
4.58741
4.58065
4.6022
4.63275
4.64022
4.63119
4.61107
4.60532
4.61401
4.63587
4.64543
4.64246
4.63727
4.6396
4.6504
4.66878
4.68429
4.68182
4.66394
4.64189
4.63658
4.64775
4.65415
4.63514
4.59672
4.5482
4.5141
4.49553
4.49296
4.48023
4.44791
4.40603
4.36312
4.32496
4.28866
4.25
4.20588
4.158
4.11451
4.07758
4.04286
4.00769
3.96837
3.92425
3.87839
3.83513
3.79426
3.75378
3.71423
3.67745
3.64152
3.60199
3.55611
3.5038
3.44993
3.40106
3.35993
3.32688
3.29982
3.27583
3.25227
3.22614
3.19389
3.15048
3.09626
3.05215
3.02669
3.00791
2.99252
2.97898
2.96619
2.95975
2.96261
2.99307
3.05913
3.12668
3.21897
3.33986
7.47717
7.14754
6.6833
6.3306
6.19275
6.06529
5.85918
5.57555
5.29898
5.13683
5.05213
4.95185
4.8391
4.77763
4.78084
4.80694
4.79054
4.73757
4.68312
4.66772
4.68122
4.70165
4.6965
4.6697
4.62594
4.60333
4.60117
4.61462
4.62067
4.614
4.60292
4.59379
4.59098
4.59763
4.60733
4.60609
4.59416
4.58158
4.5835
4.59543
4.59049
4.56823
4.52875
4.49073
4.4713
4.46833
4.47348
4.44769
4.40642
4.35731
4.32224
4.29504
4.26542
4.227
4.17692
4.12193
4.08547
4.0581
4.03071
3.99767
3.9584
3.90996
3.85482
3.80854
3.77424
3.74346
3.71257
3.68075
3.64615
3.60246
3.54719
3.48926
3.43951
3.39812
3.36099
3.3276
3.30026
3.2762
3.25123
3.22266
3.18886
3.14827
3.09923
3.05261
3.02633
3.01238
3.00473
3.00461
3.0149
3.02432
3.04888
3.11845
3.18297
3.2477
3.34424
3.42177
7.67815
7.34865
6.97513
6.66915
6.50702
6.35264
6.14405
5.8683
5.60021
5.43899
5.34518
5.22776
5.08108
4.98286
4.9684
4.98111
4.95185
4.88591
4.81768
4.79315
4.7963
4.79544
4.76692
4.71632
4.65354
4.6256
4.6159
4.62118
4.61717
4.60255
4.58291
4.56435
4.55321
4.55282
4.5636
4.56828
4.56291
4.55367
4.55225
4.55724
4.55104
4.52875
4.49392
4.47205
4.46624
4.47744
4.46582
4.43002
4.38024
4.33837
4.31641
4.30163
4.27559
4.23515
4.17591
4.11762
4.08786
4.06618
4.04126
4.00847
3.96759
3.912
3.85187
3.81303
3.78585
3.75968
3.7293
3.69404
3.65371
3.60079
3.53979
3.49048
3.45634
3.42364
3.38712
3.3496
3.31595
3.28569
3.25576
3.22426
3.19165
3.15917
3.1255
3.09005
3.05664
3.04147
3.03741
3.04865
3.07952
3.11212
3.18186
3.27361
3.32797
3.38222
3.43674
3.45051
7.86962
7.55326
7.23774
6.95643
6.77019
6.59376
6.38626
6.1178
5.85714
5.69989
5.60122
5.46952
5.29842
5.16962
5.13557
5.13508
5.09579
5.0174
4.93667
4.90461
4.89636
4.87395
4.82733
4.75711
4.68827
4.65916
4.64647
4.64082
4.62183
4.59924
4.56893
4.5455
4.53021
4.52525
4.53861
4.54669
4.54077
4.52882
4.51635
4.51326
4.51171
4.49534
4.46944
4.4583
4.46462
4.46717
4.44026
4.39489
4.34658
4.32106
4.3107
4.30253
4.27639
4.23626
4.17303
4.11846
4.09077
4.06482
4.03342
3.99736
3.95475
3.89991
3.85403
3.82517
3.79683
3.76492
3.72856
3.68412
3.62825
3.57362
3.53056
3.50323
3.4797
3.45149
3.41548
3.37069
3.32475
3.2859
3.2527
3.2242
3.20021
3.17947
3.16108
3.14131
3.11183
3.0897
3.08648
3.11195
3.1596
3.22455
3.33745
3.42906
3.46954
3.48251
3.47132
3.45254
8.08399
7.78623
7.49871
7.22164
7.00778
6.81449
6.60848
6.34352
6.08486
5.92399
5.81498
5.66836
5.47675
5.3277
5.27677
5.25893
5.20626
5.1152
5.02279
4.9827
4.96572
4.93137
4.87315
4.79185
4.72696
4.6942
4.67709
4.65832
4.63029
4.59592
4.55575
4.52995
4.51176
4.50635
4.51788
4.51724
4.50245
4.48533
4.47132
4.46415
4.46544
4.45341
4.42804
4.41548
4.41318
4.40122
4.37399
4.33245
4.29584
4.28108
4.2761
4.2597
4.23165
4.19139
4.13103
4.08424
4.05742
4.02951
3.99714
3.95904
3.91232
3.8658
3.83445
3.80764
3.77798
3.74314
3.6996
3.64159
3.58188
3.54254
3.52039
3.50224
3.48181
3.45834
3.4287
3.38135
3.31826
3.27209
3.24308
3.22308
3.20897
3.19965
3.19311
3.18566
3.17022
3.15158
3.15875
3.20862
3.27134
3.35371
3.46394
3.54444
3.55634
3.54306
3.50369
3.47062
8.27903
8.01308
7.75453
7.48929
7.25148
7.04236
6.83486
6.57013
6.3105
6.14215
6.01976
5.85686
5.64644
5.47856
5.4094
5.3708
5.30195
5.19683
5.0918
5.0444
5.0221
4.98045
4.91465
4.82782
4.76528
4.72843
4.70464
4.67423
4.63853
4.59325
4.54447
4.51559
4.49554
4.48904
4.48736
4.4723
4.44812
4.42004
4.40433
4.39903
4.40009
4.38617
4.35634
4.33274
4.32688
4.31356
4.28971
4.25624
4.23044
4.21904
4.20451
4.18328
4.15654
4.11856
4.06623
4.02852
4.00393
3.97707
3.94557
3.90628
3.86026
3.82411
3.79672
3.77024
3.74071
3.70523
3.65534
3.58984
3.54324
3.52026
3.5018
3.48277
3.46307
3.44322
3.41757
3.36901
3.30605
3.26216
3.23981
3.22472
3.21657
3.21496
3.21814
3.21952
3.21771
3.22412
3.27237
3.35271
3.41037
3.48655
3.55961
3.59452
3.59902
3.58078
3.5528
3.52272
8.47312
8.23125
7.98554
7.72313
7.48873
7.28639
7.07878
6.80873
6.54492
6.36849
6.23202
6.05327
5.82843
5.64506
5.55679
5.49492
5.40707
5.28546
5.16896
5.11513
5.08667
5.03971
4.96965
4.88073
4.81675
4.77479
4.74118
4.70276
4.659
4.60415
4.54458
4.50942
4.48356
4.46754
4.44997
4.42467
4.38727
4.35128
4.33359
4.32721
4.32745
4.31163
4.28134
4.24778
4.23247
4.22238
4.21104
4.19498
4.1693
4.14934
4.13369
4.11088
4.08194
4.04786
4.00918
3.98047
3.95806
3.93072
3.89708
3.85811
3.82013
3.79035
3.76217
3.73385
3.7034
3.66657
3.61447
3.5567
3.52936
3.51166
3.49219
3.46835
3.44622
3.42228
3.38378
3.33874
3.29836
3.2707
3.25322
3.24048
3.23629
3.23736
3.23845
3.24602
3.27524
3.33015
3.43605
3.50542
3.55588
3.60442
3.61324
3.61034
3.61722
3.62004
3.61674
3.59552
8.64744
8.42469
8.18858
7.93543
7.70658
7.51299
7.31268
7.05517
6.79637
6.61292
6.46207
6.26723
6.03019
5.8366
5.7289
5.64346
5.53641
5.39796
5.26884
5.2044
5.16449
5.1125
5.04019
4.94874
4.87966
4.83175
4.78739
4.74108
4.68865
4.62578
4.5586
4.51695
4.49002
4.45994
4.42506
4.382
4.32773
4.28522
4.26773
4.2634
4.26336
4.24903
4.2193
4.17486
4.14729
4.13906
4.14449
4.15001
4.12356
4.09432
4.07215
4.04057
4.01029
3.9875
3.97074
3.95576
3.92568
3.8913
3.85591
3.82068
3.79964
3.77643
3.74658
3.7128
3.67712
3.6349
3.58608
3.55839
3.54276
3.52782
3.50607
3.47951
3.44677
3.40439
3.35941
3.32627
3.31182
3.3011
3.29155
3.28108
3.27233
3.26602
3.26679
3.30097
3.36272
3.45988
3.58643
3.65126
3.67545
3.6707
3.64723
3.64008
3.64984
3.67135
3.68631
3.66556
8.80318
8.59053
8.36199
8.12404
7.90543
7.71643
7.51544
7.25696
7.02285
6.8532
6.70299
6.49972
6.24323
6.04628
5.92694
5.81785
5.69226
5.53394
5.39209
5.31704
5.26055
5.20036
5.1261
5.02886
4.9515
4.89716
4.84732
4.79767
4.74193
4.67274
4.59807
4.53475
4.47967
4.43518
4.38989
4.33716
4.27258
4.22367
4.20118
4.19203
4.1917
4.1812
4.1568
4.11705
4.08897
4.0825
4.09393
4.09065
4.06234
4.04731
4.02575
3.98905
3.96934
3.95323
3.93093
3.90529
3.87666
3.85535
3.83655
3.81961
3.79334
3.75633
3.72043
3.68823
3.65625
3.62614
3.60891
3.59736
3.58023
3.55646
3.52797
3.49498
3.45257
3.40264
3.36873
3.35664
3.35074
3.34939
3.3457
3.3355
3.32027
3.31438
3.34091
3.40122
3.48307
3.60452
3.70186
3.73669
3.73886
3.71304
3.69073
3.68986
3.70099
3.7271
3.73097
3.6971
8.93631
8.73017
8.51082
8.28932
8.08264
7.8948
7.6896
7.44476
7.21768
7.04417
6.88449
6.67483
6.44249
6.26492
6.14749
6.02129
5.86353
5.68218
5.54425
5.46296
5.39117
5.30785
5.21005
5.09837
5.02024
4.95734
4.89062
4.82055
4.74568
4.66253
4.57935
4.51181
4.45825
4.41034
4.36082
4.30341
4.23694
4.18477
4.15606
4.1391
4.13002
4.11733
4.09532
4.06637
4.04607
4.04236
4.05308
4.04122
4.01018
3.9986
3.97561
3.94667
3.93672
3.92344
3.89732
3.86562
3.84359
3.82959
3.81646
3.79696
3.76896
3.73571
3.71111
3.69131
3.66936
3.64673
3.62373
3.59702
3.569
3.54292
3.51733
3.49027
3.46016
3.43212
3.41021
3.39564
3.38878
3.38452
3.38614
3.38763
3.39033
3.42069
3.48105
3.54782
3.63511
3.72118
3.76117
3.77138
3.76746
3.75313
3.7441
3.74232
3.74363
3.74303
3.73881
3.70018
9.04199
8.84161
8.6315
8.42312
8.22675
8.03652
7.82486
7.59432
7.38242
7.21318
7.05044
6.83273
6.59414
6.41759
6.2923
6.1548
5.98174
5.78345
5.64168
5.54839
5.4626
5.3693
5.25659
5.13276
5.0515
4.98533
4.91543
4.84166
4.7592
4.66438
4.57155
4.49988
4.44242
4.39067
4.34146
4.28905
4.22587
4.16901
4.13244
4.10676
4.08901
4.07121
4.0469
4.02056
4.00349
4.0004
4.00594
3.98791
3.95704
3.93932
3.9152
3.90035
3.8978
3.88325
3.8523
3.81447
3.79352
3.78373
3.77768
3.76075
3.73334
3.70264
3.68243
3.66548
3.64791
3.62956
3.6086
3.58265
3.55132
3.52187
3.50096
3.48459
3.46934
3.45779
3.44797
3.43483
3.42626
3.42428
3.42948
3.44765
3.48958
3.56307
3.64121
3.71152
3.76799
3.78972
3.78393
3.79082
3.80614
3.80658
3.79724
3.77901
3.75033
3.72183
3.7057
3.67708
9.14958
8.9497
8.74359
8.53996
8.34504
8.14814
7.93717
7.72323
7.52725
7.36291
7.18768
6.96099
6.73449
6.56471
6.42929
6.27453
6.08741
5.88528
5.74423
5.63829
5.53473
5.42406
5.29562
5.1601
5.06516
4.99298
4.92403
4.84946
4.76581
4.67029
4.57593
4.50163
4.44139
4.3867
4.33419
4.27793
4.21081
4.15183
4.1122
4.08052
4.0549
4.02892
3.99667
3.96677
3.95142
3.94781
3.94663
3.92617
3.89549
3.86657
3.84971
3.84528
3.84802
3.83192
3.79966
3.75905
3.73472
3.72616
3.72555
3.71149
3.68582
3.66038
3.64265
3.62826
3.61421
3.5984
3.58056
3.55622
3.52089
3.49429
3.48123
3.47447
3.4803
3.48655
3.48239
3.47727
3.47397
3.47375
3.49365
3.54032
3.61642
3.70623
3.78759
3.83771
3.8487
3.82977
3.81372
3.82165
3.84654
3.85274
3.83818
3.81305
3.76538
3.70804
3.68186
3.66424
9.20864
9.01354
8.81937
8.63082
8.44475
8.25189
8.05226
7.85328
7.66648
7.49564
7.29813
7.06744
6.85783
6.69595
6.55188
6.37786
6.17288
5.97588
5.83879
5.72038
5.6003
5.4745
5.33049
5.19325
5.09463
5.01482
4.93857
4.85902
4.77056
4.67347
4.58139
4.50841
4.44724
4.38999
4.33298
4.26944
4.19433
4.13392
4.09258
4.05747
4.02523
3.99053
3.94776
3.90805
3.88826
3.88026
3.87385
3.85407
3.8241
3.79177
3.77726
3.7778
3.78307
3.76901
3.73963
3.70082
3.67607
3.66811
3.67183
3.661
3.63851
3.62123
3.60919
3.59568
3.57886
3.56254
3.54466
3.52129
3.49568
3.48235
3.47463
3.47535
3.48771
3.50468
3.51786
3.52408
3.52629
3.54969
3.60102
3.66926
3.74842
3.82305
3.89134
3.91442
3.90711
3.87738
3.865
3.86496
3.88388
3.89704
3.88357
3.85361
3.79618
3.73609
3.71316
3.69142
9.29493
9.114
8.93311
8.7502
8.5614
8.36676
8.17052
7.97743
7.79381
7.60904
7.39745
7.1751
6.98132
6.82509
6.66532
6.47316
6.25555
6.07405
5.93852
5.80819
5.67429
5.53228
5.37468
5.23994
5.14116
5.05427
4.97006
4.88408
4.7904
4.68746
4.598
4.52772
4.46589
4.4061
4.34344
4.27042
4.18792
4.12671
4.08273
4.04432
4.00525
3.96034
3.90422
3.85377
3.82918
3.81684
3.80577
3.78604
3.75929
3.72985
3.71474
3.71423
3.71944
3.70979
3.68578
3.65305
3.63091
3.62501
3.63217
3.62164
3.60309
3.59346
3.5874
3.57333
3.55352
3.53424
3.51625
3.5011
3.49238
3.48874
3.49101
3.49907
3.51033
3.52671
3.54735
3.56748
3.59786
3.65597
3.72887
3.79776
3.86097
3.91612
3.95648
3.96459
3.95305
3.93373
3.92192
3.9138
3.91266
3.91747
3.90544
3.87694
3.83616
3.79652
3.76855
3.7331
9.35489
9.18255
9.00856
8.82885
8.64252
8.45212
8.26116
8.07283
7.88856
7.69724
7.48676
7.27657
7.09703
6.94199
6.76439
6.5574
6.34312
6.17949
6.04327
5.9045
5.7581
5.5969
5.42893
5.30049
5.2015
5.10814
5.01621
4.92141
4.81534
4.70668
4.62518
4.55799
4.49399
4.42956
4.35828
4.27104
4.18258
4.1228
4.07541
4.03033
3.98356
3.92929
3.86154
3.80394
3.77337
3.75472
3.73971
3.72047
3.69705
3.67341
3.65901
3.65687
3.66333
3.66012
3.64358
3.62172
3.60816
3.61065
3.61704
3.60291
3.58592
3.58006
3.57906
3.56824
3.55032
3.52908
3.51716
3.51298
3.51407
3.52215
3.53257
3.54177
3.54936
3.56266
3.58656
3.62617
3.68934
3.77148
3.85468
3.90894
3.94063
3.95912
3.97077
3.98569
3.99019
3.98493
3.97453
3.95784
3.941
3.92747
3.90972
3.8857
3.86577
3.84849
3.82746
3.77721
9.41314
9.24409
9.07215
8.89395
8.71126
8.52588
8.34103
8.15778
7.97398
7.77907
7.57022
7.37092
7.19926
7.03686
6.84685
6.63367
6.4387
6.28743
6.14992
6.00288
5.83993
5.65539
5.49244
5.37093
5.26531
5.16451
5.06355
4.95312
4.83024
4.72186
4.64141
4.57175
4.50242
4.4292
4.34542
4.24727
4.16138
4.10173
4.0493
3.9977
3.94315
3.87792
3.80263
3.74768
3.71421
3.69112
3.67117
3.64945
3.62859
3.61191
3.60194
3.60223
3.60818
3.60661
3.59928
3.59109
3.5905
3.60312
3.60398
3.58803
3.57265
3.56815
3.57013
3.57029
3.56133
3.54757
3.54113
3.54128
3.54879
3.56335
3.57628
3.58773
3.59792
3.61688
3.65317
3.71397
3.78994
3.88383
3.95661
3.98434
3.99364
3.98701
3.98365
3.99786
4.01803
4.02088
4.01116
3.98953
3.95554
3.92427
3.90571
3.89577
3.88798
3.87328
3.8567
3.7988
9.47304
9.30234
9.12789
8.9492
8.76813
8.58559
8.40389
8.22246
8.03824
7.84296
7.64212
7.45482
7.2878
7.1153
6.91492
6.70834
6.53494
6.39067
6.24443
6.08112
5.89558
5.7065
5.56037
5.44023
5.32663
5.21473
5.09761
4.96807
4.83839
4.73366
4.65006
4.57258
4.49335
4.40927
4.31441
4.2153
4.13513
4.0729
4.01513
3.9582
3.89726
3.82551
3.75676
3.71174
3.67899
3.65169
3.62342
3.59332
3.57117
3.55784
3.55258
3.5576
3.55991
3.55362
3.54686
3.54845
3.55949
3.57835
3.57831
3.56511
3.55085
3.54857
3.55254
3.56384
3.56948
3.56729
3.5645
3.56775
3.57939
3.59628
3.60599
3.61397
3.64277
3.68531
3.74047
3.81105
3.89315
3.97854
4.02197
4.03157
4.02487
4.01226
4.0098
4.01789
4.03596
4.037
4.02226
3.99301
3.95184
3.92474
3.90929
3.90131
3.89252
3.87297
3.85056
3.78253
9.52278
9.35108
9.17563
8.99764
8.81786
8.63728
8.45685
8.27551
8.09003
7.89632
7.70245
7.52198
7.35412
7.17117
6.96759
6.77328
6.60977
6.46647
6.3073
6.12905
5.93224
5.75992
5.62407
5.49635
5.37102
5.24483
5.11105
4.97153
4.84644
4.74579
4.6579
4.57325
4.48667
4.39308
4.29106
4.1969
4.12318
4.06042
3.99909
3.93502
3.86619
3.79417
3.73864
3.70033
3.66942
3.64032
3.6052
3.56191
3.53283
3.5196
3.5163
3.52427
3.52381
3.51298
3.49793
3.49714
3.51024
3.53369
3.54097
3.5357
3.52262
3.52168
3.52876
3.54561
3.56677
3.58068
3.58752
3.59118
3.59468
3.61143
3.64067
3.68886
3.75202
3.80915
3.87144
3.92295
3.97507
4.02665
4.04636
4.04622
4.04206
4.0412
4.0395
4.03773
4.03886
4.03106
4.01076
3.98341
3.95319
3.92843
3.91144
3.89888
3.88451
3.86125
3.83139
3.77019
9.5707
9.39509
9.21574
9.03456
8.85287
8.67248
8.4926
8.31054
8.12323
7.93278
7.74828
7.57607
7.40421
7.21261
7.01385
6.83208
6.67622
6.52315
6.34902
6.1577
5.96763
5.81447
5.67571
5.53976
5.40453
5.26441
5.11629
4.97463
4.8571
4.75779
4.6667
4.57828
4.48742
4.38445
4.27585
4.18949
4.12264
4.06165
4.00081
3.93117
3.84941
3.78026
3.73664
3.70171
3.67251
3.64113
3.60231
3.5492
3.50854
3.49324
3.4908
3.49624
3.49121
3.47771
3.45554
3.44752
3.45551
3.47854
3.49755
3.50051
3.49438
3.49265
3.50155
3.52029
3.55168
3.57624
3.59073
3.60546
3.62757
3.65637
3.6932
3.75669
3.82219
3.88748
3.9532
3.99393
4.01825
4.02922
4.04584
4.06794
4.07546
4.07493
4.06697
4.05059
4.03501
4.02148
4.00478
3.98603
3.96608
3.94569
3.92161
3.89818
3.87591
3.84883
3.81934
3.77267
9.59263
9.42344
9.25056
9.07507
8.89762
8.7186
8.53714
8.35234
8.16409
7.97656
7.79518
7.6199
7.43785
7.2419
7.05004
6.87718
6.72384
6.55848
6.37316
6.17633
6.00889
5.86597
5.72145
5.57797
5.43218
5.27833
5.12225
4.98546
4.87344
4.77486
4.6816
4.58819
4.48565
4.36979
4.26521
4.19027
4.12932
4.07077
4.0095
3.93441
3.84076
3.77912
3.74395
3.71808
3.68918
3.6528
3.60696
3.54334
3.49424
3.47437
3.46653
3.46362
3.45346
3.43774
3.41346
3.40045
3.40464
3.42551
3.45244
3.46148
3.46311
3.46446
3.47513
3.49628
3.52997
3.56719
3.59707
3.6263
3.66275
3.70251
3.75416
3.82649
3.8878
3.95047
4.00011
4.02076
4.03527
4.05489
4.07717
4.09827
4.10825
4.10721
4.09517
4.06941
4.04546
4.02897
4.01406
3.99859
3.98313
3.96528
3.94083
3.9058
3.87217
3.84439
3.82098
3.78571
9.61993
9.45266
9.28112
9.1064
8.92909
8.74898
8.56582
8.37981
8.19271
8.00821
7.82824
7.64949
7.46279
7.26937
7.08828
6.92504
6.76336
6.58254
6.38764
6.20338
6.04858
5.90408
5.75689
5.60868
5.45465
5.29165
5.13601
5.00676
4.89734
4.79664
4.69879
4.59648
4.48012
4.3558
4.26068
4.19603
4.13956
4.08316
4.01674
3.93067
3.84241
3.77842
3.73592
3.70143
3.66755
3.63301
3.58909
3.52858
3.47689
3.45098
3.43599
3.42259
3.40686
3.3874
3.36667
3.35633
3.35948
3.37746
3.40448
3.4232
3.43281
3.43944
3.45171
3.47624
3.51665
3.56423
3.61043
3.65638
3.70573
3.75707
3.81995
3.89069
3.9466
3.99242
4.02847
4.04962
4.06773
4.0878
4.11128
4.1334
4.14136
4.1392
4.12068
4.08685
4.06105
4.04544
4.03166
4.01778
4.00282
3.98516
3.95827
3.91867
3.88079
3.85453
3.83797
3.80385
9.63837
9.47271
9.30312
9.13004
8.95347
8.77311
8.58951
8.40417
8.21965
8.03773
7.85636
7.66809
7.47046
7.28312
7.11436
6.95927
6.78498
6.59602
6.40741
6.2391
6.08651
5.93781
5.78822
5.63503
5.47497
5.31378
5.16684
5.0398
4.92587
4.81917
4.7134
4.59849
4.47312
4.35808
4.27271
4.20082
4.13496
4.06974
3.99687
3.91494
3.8383
3.77595
3.72245
3.67878
3.64103
3.60205
3.55353
3.49912
3.45789
3.43003
3.40652
3.38413
3.3613
3.34396
3.33311
3.3225
3.32546
3.34422
3.36732
3.38892
3.40849
3.42902
3.45228
3.48074
3.51957
3.57098
3.62672
3.68264
3.73964
3.80019
3.87011
3.93612
3.98283
4.01915
4.04177
4.06787
4.09685
4.12477
4.15088
4.16099
4.16239
4.15297
4.13173
4.10298
4.08409
4.06875
4.05354
4.04048
4.02554
4.00289
3.97058
3.93303
3.89795
3.86514
3.84403
3.80496
9.65095
9.4869
9.319
9.14718
8.97169
8.79271
8.61103
8.42817
8.24554
8.06335
7.87959
7.69248
7.50503
7.32311
7.15134
6.98199
6.79786
6.61017
6.43432
6.27477
6.12025
5.96734
5.81199
5.65019
5.48864
5.33854
5.20378
5.07792
4.9565
4.83684
4.71542
4.59091
4.47272
4.37531
4.2888
4.20376
4.12013
4.04132
3.96527
3.89292
3.82936
3.7697
3.7103
3.65429
3.60699
3.56014
3.51267
3.47751
3.45038
3.42213
3.39166
3.35921
3.33398
3.32283
3.32057
3.32817
3.34015
3.34484
3.35261
3.3703
3.39555
3.42609
3.46276
3.50734
3.55602
3.60517
3.65494
3.70827
3.76304
3.82538
3.90088
3.96536
4.00251
4.02508
4.04794
4.08119
4.11958
4.14778
4.15593
4.15731
4.15002
4.13696
4.12149
4.10912
4.10006
4.0876
4.06944
4.04768
4.02412
3.99894
3.97188
3.94401
3.9128
3.87617
3.84479
3.79573
9.65644
9.49367
9.32688
9.15581
8.98143
8.80436
8.62521
8.44478
8.26332
8.07995
7.89366
7.70671
7.5234
7.34697
7.17314
6.98388
6.79945
6.62518
6.46098
6.30232
6.14459
5.98337
5.81803
5.65601
5.50415
5.36424
5.23203
5.103
4.97393
4.84246
4.71073
4.58623
4.47751
4.38375
4.29894
4.21419
4.12136
4.02386
3.93574
3.86534
3.80949
3.75903
3.70669
3.64638
3.57595
3.51473
3.48226
3.46025
3.44082
3.41774
3.38696
3.34724
3.32587
3.31713
3.31759
3.33501
3.355
3.36028
3.3648
3.37876
3.4027
3.43725
3.48559
3.54208
3.59634
3.64655
3.69346
3.73878
3.78683
3.84205
3.90872
3.95757
3.98646
4.01236
4.04448
4.08595
4.13063
4.14892
4.15528
4.14977
4.1273
4.10855
4.10203
4.10255
4.10183
4.09249
4.07474
4.04591
4.01639
3.99133
3.96777
3.94586
3.92225
3.88867
3.84329
3.77876
9.66132
9.49853
9.33178
9.16085
8.98723
8.81169
8.63426
8.45475
8.27242
8.08689
7.90093
7.71814
7.53825
7.36052
7.17761
6.99032
6.81007
6.64054
6.47761
6.31646
6.15363
5.98574
5.81677
5.6593
5.51568
5.37924
5.24577
5.11294
4.97839
4.84092
4.70442
4.58117
4.47679
4.3849
4.29617
4.2037
4.10555
4.00098
3.90747
3.84374
3.79496
3.74888
3.69994
3.63356
3.54565
3.49049
3.46477
3.44653
3.43393
3.41302
3.38346
3.34219
3.32332
3.31769
3.3261
3.3521
3.36665
3.37055
3.37513
3.3855
3.40814
3.44746
3.50944
3.58024
3.6402
3.68644
3.72459
3.75923
3.79835
3.85447
3.93282
3.97778
4.00311
4.02633
4.05445
4.09106
4.13077
4.14397
4.14753
4.13274
4.10475
4.09285
4.08885
4.09311
4.10043
4.09295
4.07473
4.0401
4.00556
3.98252
3.96451
3.94663
3.92481
3.88839
3.83446
3.76589
)
;

boundaryField
{
    inlet
    {
        type            fixedValue;
        value           uniform 1;
    }
    outlet
    {
        type            zeroGradient;
    }
    bottom
    {
        type            symmetryPlane;
    }
    top
    {
        type            symmetryPlane;
    }
    obstacle
    {
        type            zeroGradient;
    }
    defaultFaces
    {
        type            empty;
    }
}


// ************************************************************************* //
