/*--------------------------------*- C++ -*----------------------------------*\
  =========                 |
  \\      /  F ield         | OpenFOAM: The Open Source CFD Toolbox
   \\    /   O peration     | Website:  https://openfoam.org
    \\  /    A nd           | Version:  7
     \\/     M anipulation  |
\*---------------------------------------------------------------------------*/
FoamFile
{
    version     2.0;
    format      ascii;
    class       volScalarField;
    location    "16.5";
    object      rho;
}
// * * * * * * * * * * * * * * * * * * * * * * * * * * * * * * * * * * * * * //

dimensions      [1 -3 0 0 0 0 0];

internalField   nonuniform List<scalar> 
4032
(
1.40001
1.40001
1.40001
1.40001
1.40001
1.40001
1.40001
1.40001
1.40001
1.40001
1.40001
1.4934
4.21723
5.4655
5.52555
5.6008
5.66941
5.7343
5.79531
5.8515
5.9014
5.94103
5.97091
5.992
1.40001
1.40001
1.40001
1.40001
1.40001
1.40001
1.40001
1.40001
1.40001
1.40001
1.40001
1.47243
4.15644
5.45616
5.5196
5.59263
5.66048
5.72451
5.78415
5.83807
5.88509
5.92153
5.94805
5.96705
1.40001
1.40001
1.40001
1.40001
1.40001
1.40001
1.40001
1.40001
1.40001
1.40001
1.40001
1.40906
4.02967
5.44719
5.50673
5.57659
5.64334
5.70549
5.76283
5.81403
5.85858
5.89332
5.91801
5.93732
1.40001
1.40001
1.40001
1.40001
1.40001
1.40001
1.40001
1.40001
1.40001
1.40001
1.40001
1.40018
3.82011
5.41304
5.47759
5.54452
5.61082
5.67158
5.72769
5.77743
5.81979
5.85053
5.86887
5.88124
1.40001
1.40001
1.40001
1.40001
1.40001
1.40001
1.40001
1.40001
1.40001
1.40001
1.40001
1.4
3.53425
5.35467
5.44502
5.50803
5.57236
5.62878
5.67905
5.72096
5.75455
5.77978
5.79551
5.81549
1.40001
1.40001
1.40001
1.40001
1.40001
1.40001
1.40001
1.40001
1.40001
1.40001
1.40001
1.40001
3.18225
5.26647
5.41148
5.46818
5.52644
5.57484
5.61692
5.65204
5.68051
5.70259
5.71168
5.7022
1.40001
1.40001
1.40001
1.40001
1.40001
1.40001
1.40001
1.40001
1.40001
1.40001
1.40001
1.40001
2.77874
5.14197
5.39956
5.44347
5.49005
5.52496
5.55008
5.56837
5.57356
5.5569
5.53487
5.52525
1.40001
1.40001
1.40001
1.40001
1.40001
1.40001
1.40001
1.40001
1.40001
1.40001
1.40001
1.40001
2.32204
4.96303
5.41952
5.43526
5.46079
5.47689
5.48108
5.47766
5.45355
5.41642
5.35092
5.30331
1.40001
1.40001
1.40001
1.40001
1.40001
1.40001
1.40001
1.40001
1.40001
1.40001
1.40001
1.40001
1.84295
4.71235
5.45455
5.42016
5.43525
5.43348
5.41538
5.38371
5.31813
5.20651
4.89229
3.94306
1.40001
1.40001
1.40001
1.40001
1.40001
1.40001
1.40001
1.40001
1.40001
1.40001
1.40001
1.40001
1.45606
4.22254
5.42425
5.39022
5.38794
5.37462
5.33844
5.27751
5.17346
4.9797
4.65579
3.73208
1.40001
1.40001
1.40001
1.40001
1.40001
1.40001
1.40001
1.40001
1.40001
1.40001
1.40001
1.40001
1.40039
3.49708
5.19434
5.29427
5.32722
5.31091
5.2664
5.18259
5.05259
4.82253
4.49367
3.67532
1.40001
1.40001
1.40001
1.40001
1.40001
1.40001
1.40001
1.40001
1.40001
1.40001
1.40001
1.40001
1.4
2.7231
4.99556
5.25958
5.28254
5.26376
5.20877
5.1101
4.95936
4.72524
4.38104
3.73745
1.40001
1.40001
1.40001
1.40001
1.40001
1.40001
1.40001
1.40001
1.40001
1.40001
1.40001
1.40001
1.4
1.96668
4.75736
5.27969
5.25621
5.2186
5.15829
5.05488
4.89839
4.67042
4.33499
3.89105
1.40001
1.40001
1.40001
1.40001
1.40001
1.40001
1.40001
1.40001
1.40001
1.40001
1.40001
1.40001
1.4
1.47072
4.11264
5.23752
5.21055
5.17126
5.11495
5.01705
4.86758
4.65113
4.36633
4.06683
1.40001
1.40001
1.40001
1.40001
1.40001
1.40001
1.40001
1.40001
1.40001
1.40001
1.40001
1.40001
1.40001
1.4004
3.1877
5.06708
5.17941
5.15065
5.1067
5.00566
4.86423
4.67281
4.44485
4.23416
1.40001
1.40001
1.40001
1.40001
1.40001
1.40001
1.40001
1.40001
1.40001
1.40001
1.40001
1.40001
1.40001
1.4
2.19852
4.90079
5.22884
5.18274
5.12489
5.01991
4.8874
4.72113
4.5351
4.36967
1.40001
1.40001
1.40001
1.40001
1.40001
1.40001
1.40001
1.40001
1.40001
1.40001
1.40001
1.40001
1.40001
1.4
1.51611
4.29195
5.25111
5.21563
5.14432
5.05166
4.9279
4.78381
4.62819
4.48709
1.40001
1.40001
1.40001
1.40001
1.40001
1.40001
1.40001
1.40001
1.40001
1.40001
1.40001
1.40001
1.40001
1.4
1.40137
3.35831
5.1135
5.22814
5.17277
5.08243
4.9732
4.85005
4.71743
4.59101
1.40001
1.40001
1.40001
1.40001
1.40001
1.40001
1.40001
1.40001
1.40001
1.40001
1.40001
1.40001
1.40001
1.40001
1.4
2.3583
5.01687
5.36435
5.23345
5.12788
5.0272
4.92047
4.8074
4.68923
1.40001
1.40001
1.40001
1.40001
1.40001
1.40001
1.40001
1.40001
1.40001
1.40001
1.40001
1.40001
1.40001
1.40001
1.4
1.58527
4.60199
5.37859
5.23364
5.15749
5.08265
4.99533
4.89762
4.78843
1.40001
1.40001
1.40001
1.40001
1.40001
1.40001
1.40001
1.40001
1.40001
1.40001
1.40001
1.40001
1.40001
1.40001
1.4
1.40464
3.84538
5.29293
5.23859
5.2015
5.13729
5.05884
4.97094
4.87051
1.40001
1.40001
1.40001
1.40001
1.40001
1.40001
1.40001
1.40001
1.40001
1.40001
1.40001
1.40001
1.40001
1.40001
1.40001
1.39999
3.05355
5.1621
5.306
5.24565
5.17557
5.10423
5.0274
4.93985
1.40001
1.40001
1.40001
1.40001
1.40001
1.40001
1.40001
1.40001
1.40001
1.40001
1.40001
1.40001
1.40001
1.40001
1.40001
1.4
2.33569
4.99619
5.38741
5.27261
5.20212
5.13412
5.064
4.98746
1.40001
1.40001
1.40001
1.40001
1.40001
1.40001
1.40001
1.40001
1.40001
1.40001
1.40001
1.40001
1.40001
1.40001
1.40001
1.4
1.74377
4.72979
5.43496
5.28492
5.22075
5.15461
5.08664
5.01602
1.40001
1.40001
1.40001
1.40001
1.40001
1.40001
1.40001
1.40001
1.40001
1.40001
1.40001
1.40001
1.40001
1.40001
1.40001
1.40001
1.42357
4.31931
5.42515
5.28836
5.22555
5.16056
5.09387
5.02621
1.40001
1.40001
1.40001
1.40001
1.40001
1.40001
1.40001
1.40001
1.40001
1.40001
1.40001
1.40001
1.40001
1.40001
1.40001
1.40001
1.40011
3.78206
5.33382
5.26411
5.20972
5.15101
5.08733
5.02242
1.40001
1.40001
1.40001
1.40001
1.40001
1.40001
1.40001
1.40001
1.40001
1.40001
1.40001
1.40001
1.40001
1.40001
1.40001
1.40001
1.4
3.29915
5.22563
5.28284
5.21843
5.16301
5.09883
5.03374
1.40001
1.40001
1.40001
1.40001
1.40001
1.40001
1.40001
1.40001
1.40001
1.40001
1.40001
1.40001
1.40001
1.40001
1.40001
1.40001
1.4
2.85833
5.10377
5.29709
5.2201
5.17215
5.11079
5.04636
1.40001
1.40001
1.40001
1.40001
1.40001
1.40001
1.40001
1.40001
1.40001
1.40001
1.40001
1.40001
1.40001
1.40001
1.40001
1.40001
1.40001
2.46057
5.02392
5.36743
5.27032
5.21734
5.15079
5.08299
1.40001
1.40001
1.40001
1.40001
1.40001
1.40001
1.40001
1.40001
1.40001
1.40001
1.40001
1.40001
1.40001
1.40001
1.40001
1.40001
1.40001
2.09056
4.92944
5.45878
5.3224
5.25429
5.18338
5.11526
1.40001
1.40001
1.40001
1.40001
1.40001
1.40001
1.40001
1.40001
1.40001
1.40001
1.40001
1.40001
1.40001
1.40001
1.40001
1.40001
1.40001
1.79159
4.76218
5.49231
5.35163
5.28157
5.21202
5.14416
1.40001
1.40001
1.40001
1.40001
1.40001
1.40001
1.40001
1.40001
1.40001
1.40001
1.40001
1.40001
1.40001
1.40001
1.40001
1.40001
1.40001
1.61927
4.53311
5.48103
5.35809
5.29634
5.23041
5.16438
1.40001
1.40001
1.40001
1.40001
1.40001
1.40001
1.40001
1.40001
1.40001
1.40001
1.40001
1.40001
1.40001
1.40001
1.40001
1.40001
1.40001
1.52124
4.32962
5.43631
5.3401
5.28729
5.22951
5.16927
1.40001
1.40001
1.40001
1.40001
1.40001
1.40001
1.40001
1.40001
1.40001
1.40001
1.40001
1.40001
1.40001
1.40001
1.40001
1.40001
1.40001
1.43
4.15616
5.41973
5.348
5.29595
5.23989
5.17949
1.40001
1.40001
1.40001
1.40001
1.40001
1.40001
1.40001
1.40001
1.40001
1.40001
1.40001
1.40001
1.40001
1.40001
1.40001
1.40001
1.40001
1.4009
3.99878
5.40538
5.35972
5.29967
5.24482
5.18417
1.40001
1.40001
1.40001
1.40001
1.40001
1.40001
1.40001
1.40001
1.40001
1.40001
1.40001
1.40001
1.40001
1.40001
1.40001
1.40001
1.40001
1.40001
3.83507
5.40272
5.38322
5.30866
5.25463
5.19359
1.40001
1.40001
1.40001
1.40001
1.40001
1.40001
1.40001
1.40001
1.40001
1.40001
1.40001
1.40001
1.40001
1.40001
1.40001
1.40001
1.40001
1.40001
3.70013
5.40657
5.39928
5.31331
5.26045
5.19918
1.40001
1.40001
1.40001
1.40001
1.40001
1.40001
1.40001
1.40001
1.40001
1.40001
1.40001
1.40001
1.40001
1.40001
1.40001
1.40001
1.40001
1.40001
3.59545
5.40436
5.40364
5.31378
5.26184
5.20087
1.40001
1.40001
1.40001
1.40001
1.40001
1.40001
1.40001
1.40001
1.40001
1.40001
1.40001
1.40001
1.40001
1.40001
1.40001
1.40001
1.40001
1.40001
3.52221
5.39506
5.40386
5.31232
5.26037
5.19979
1.40001
1.40001
1.40001
1.40001
1.40001
1.40001
1.40001
1.40001
1.40001
1.40001
1.40001
1.40001
1.40001
1.40001
1.40001
1.40001
1.40001
1.40001
3.48755
5.38262
5.40253
5.31237
5.26093
5.2004
1.57882
1.70096
1.90786
2.08978
2.12377
2.10808
2.10009
2.10011
2.12297
2.16132
2.19702
2.21396
2.21508
2.20981
2.20503
2.20427
2.20879
2.21884
2.23269
2.24746
2.26023
2.27054
2.279
2.28658
2.29717
2.314
2.33723
2.36445
2.39235
2.41632
2.4329
2.44143
2.44589
2.44937
2.45432
2.46165
2.47099
2.48121
2.49157
2.50149
2.5099
2.51507
2.51532
2.50981
2.49914
2.48553
2.47158
2.45988
2.45158
2.44581
2.44055
2.43439
2.42686
2.41767
2.40583
2.39029
2.36997
2.34571
2.31951
2.29402
2.27139
2.25233
2.23619
2.2214
2.20673
2.19234
2.17933
2.1673
2.15217
2.13323
2.11371
2.09482
2.07685
2.06032
2.04414
2.02628
2.00805
1.9913
1.97772
1.96759
1.95468
1.93994
1.92452
1.90825
1.89319
1.87994
1.8668
1.85308
1.83973
1.8283
1.82044
1.81828
1.82136
1.82501
1.82647
1.83929
2.31538
2.39098
2.23608
2.19406
2.18107
2.1557
2.15675
2.17129
2.18382
2.19073
2.19742
2.19825
2.19224
2.18158
2.17668
2.17923
2.18888
2.20364
2.22031
2.23505
2.24879
2.26289
2.27807
2.29416
2.3101
2.32551
2.3418
2.36038
2.38182
2.40538
2.42868
2.4478
2.46029
2.46728
2.47286
2.48059
2.49135
2.50327
2.51303
2.51822
2.51914
2.5175
2.51557
2.51438
2.51196
2.50573
2.49525
2.48298
2.4718
2.4629
2.45555
2.44736
2.43588
2.42108
2.40491
2.38939
2.37442
2.35752
2.33749
2.31574
2.29422
2.27434
2.25614
2.23929
2.22294
2.20689
2.19164
2.17727
2.16076
2.14057
2.11978
2.09887
2.08042
2.0649
2.05162
2.0389
2.02588
2.01324
2.00261
1.99286
1.97979
1.96522
1.94948
1.93132
1.91299
1.89951
1.88829
1.87768
1.86642
1.85441
1.84319
1.83464
1.82979
1.82852
1.83015
1.84945
2.80396
2.84606
2.50231
2.35151
2.31807
2.30044
2.28634
2.2721
2.24711
2.2131
2.19104
2.18868
2.19835
2.2087
2.21596
2.22743
2.2438
2.26609
2.2906
2.3108
2.32407
2.33373
2.34584
2.36456
2.38798
2.41191
2.43277
2.44905
2.46203
2.47538
2.49216
2.51331
2.53363
2.54842
2.55737
2.56457
2.57413
2.58757
2.60283
2.61556
2.62162
2.61882
2.61057
2.60224
2.59592
2.59104
2.58474
2.57498
2.5636
2.55317
2.54457
2.53711
2.52774
2.51131
2.4888
2.46456
2.44137
2.41959
2.39897
2.37916
2.35969
2.3402
2.32106
2.30209
2.28344
2.26544
2.24741
2.22775
2.20705
2.18562
2.16251
2.13739
2.11162
2.08871
2.07136
2.0571
2.046
2.03776
2.03086
2.02089
2.00839
1.99557
1.98185
1.96506
1.94423
1.9238
1.91044
1.90173
1.8966
1.89391
1.89043
1.88401
1.87685
1.87216
1.87213
1.89448
3.1826
3.25879
2.88703
2.69283
2.65984
2.57519
2.47264
2.40738
2.36837
2.33158
2.30498
2.29665
2.30667
2.32651
2.33994
2.34469
2.34691
2.35496
2.37497
2.40217
2.42219
2.43276
2.44104
2.4536
2.47433
2.50352
2.53626
2.56455
2.58433
2.5985
2.61344
2.63337
2.65796
2.68291
2.70193
2.71274
2.71894
2.72475
2.73194
2.74051
2.74849
2.75134
2.74535
2.73337
2.72075
2.71116
2.70483
2.69695
2.68478
2.67
2.65516
2.6425
2.63234
2.61869
2.60002
2.57883
2.55404
2.52841
2.50439
2.48166
2.46106
2.4423
2.42318
2.40331
2.38306
2.36191
2.33941
2.31582
2.29271
2.2711
2.25
2.22786
2.20357
2.17804
2.15528
2.13795
2.12384
2.11107
2.0975
2.08298
2.06728
2.05183
2.03755
2.02275
2.00548
1.98396
1.95959
1.94205
1.93333
1.92947
1.92937
1.92785
1.92548
1.92482
1.92606
1.95256
3.56892
3.58366
3.23131
2.99801
2.9343
2.85085
2.74296
2.66302
2.62276
2.58418
2.54455
2.51005
2.48443
2.48043
2.49047
2.49308
2.49007
2.49107
2.49822
2.51901
2.55031
2.57745
2.59656
2.6122
2.62894
2.65076
2.68064
2.71481
2.7439
2.76369
2.77814
2.79249
2.80973
2.8311
2.85335
2.87019
2.87883
2.88303
2.88508
2.88505
2.88396
2.88404
2.87979
2.87105
2.86042
2.85002
2.84097
2.83054
2.81576
2.80019
2.7872
2.77479
2.75777
2.73787
2.71662
2.6956
2.67475
2.65248
2.62692
2.598
2.57186
2.55204
2.53495
2.51838
2.50039
2.47991
2.45552
2.42674
2.39639
2.3687
2.34439
2.32166
2.29879
2.27492
2.25353
2.23733
2.22305
2.20833
2.19255
2.17556
2.1567
2.13696
2.11919
2.10392
2.08916
2.07275
2.05219
2.0271
2.00856
1.99977
1.99436
1.99303
1.99852
2.01064
2.02089
2.05861
3.86538
3.80857
3.46853
3.23537
3.15758
3.09204
3.00204
2.90748
2.8547
2.82321
2.7901
2.75825
2.72767
2.70571
2.70829
2.7153
2.70992
2.70316
2.70377
2.71517
2.74184
2.76604
2.77688
2.78453
2.79477
2.81079
2.83765
2.86957
2.89331
2.90662
2.91408
2.9215
2.93329
2.95352
2.98026
3.00165
3.0093
3.00773
3.00389
2.99985
2.99817
3.00272
3.00491
2.99741
2.98381
2.96787
2.95232
2.93999
2.92824
2.91449
2.90012
2.88339
2.86361
2.84258
2.82215
2.80194
2.78086
2.75754
2.73007
2.69866
2.67328
2.6555
2.63841
2.62079
2.60234
2.58123
2.55481
2.52259
2.48947
2.4617
2.43877
2.41699
2.39339
2.36752
2.34368
2.32443
2.30733
2.29051
2.27333
2.25518
2.23522
2.21321
2.19199
2.17485
2.16037
2.14625
2.13015
2.10919
2.08511
2.07261
2.06841
2.06892
2.08266
2.1103
2.13684
2.19171
4.0888
3.9812
3.6689
3.45309
3.3823
3.32793
3.23768
3.11848
3.01685
2.96803
2.94
2.91055
2.88485
2.87746
2.89196
2.90981
2.90822
2.89487
2.88669
2.88965
2.90666
2.92461
2.92946
2.93163
2.93724
2.94683
2.96468
2.98758
3.00009
3.0045
3.00775
3.01376
3.02645
3.04689
3.06924
3.07747
3.0756
3.06747
3.0621
3.06211
3.06704
3.06429
3.05331
3.0347
3.01326
2.99822
2.9891
2.98478
2.97439
2.95733
2.93731
2.91613
2.89552
2.87619
2.8563
2.83507
2.81346
2.79171
2.76899
2.74604
2.72451
2.70447
2.68525
2.66543
2.64465
2.6221
2.59674
2.56967
2.54439
2.5217
2.49911
2.47503
2.44894
2.42241
2.39897
2.37997
2.36338
2.34739
2.33141
2.31467
2.29567
2.27259
2.24723
2.22691
2.21181
2.19822
2.18441
2.16909
2.14949
2.13802
2.13669
2.14199
2.16681
2.20377
2.24327
2.30949
4.23463
4.10227
3.84405
3.65869
3.59609
3.54351
3.45022
3.31879
3.19208
3.12076
3.08452
3.04353
3.00494
2.99006
3.00178
3.0217
3.01995
3.00261
2.98599
2.98368
2.99472
3.0109
3.01642
3.01594
3.01113
3.01134
3.0179
3.03161
3.03856
3.04014
3.04049
3.04309
3.05009
3.06143
3.07105
3.0717
3.0664
3.05788
3.05596
3.06163
3.06502
3.057
3.04041
3.01864
3.00309
2.99454
2.99365
2.98797
2.97283
2.95309
2.93284
2.9149
2.89766
2.87892
2.85728
2.83383
2.81259
2.79467
2.77781
2.76062
2.74107
2.71872
2.6952
2.67283
2.65167
2.63092
2.61087
2.5922
2.57363
2.55277
2.52833
2.50045
2.47178
2.44579
2.42398
2.40645
2.39194
2.37879
2.36553
2.35069
2.33263
2.30893
2.27986
2.25609
2.24199
2.23135
2.22235
2.21427
2.20616
2.20253
2.20385
2.21968
2.25529
2.2925
2.34285
2.40863
4.34953
4.20431
3.9994
3.84247
3.77818
3.71886
3.62453
3.49486
3.36722
3.28961
3.24738
3.19822
3.14255
3.11105
3.11224
3.12402
3.11617
3.09181
3.06791
3.0618
3.0689
3.0801
3.07927
3.06975
3.05201
3.04353
3.04388
3.05239
3.05715
3.0563
3.05295
3.04998
3.04977
3.0543
3.06098
3.06158
3.05783
3.05318
3.05472
3.06115
3.05924
3.0495
3.03133
3.01358
3.00479
3.00378
3.00684
2.99514
2.97556
2.95197
2.93531
2.92261
2.90856
2.88979
2.86501
2.83774
2.81974
2.80654
2.79352
2.77767
2.75837
2.73394
2.70576
2.68187
2.6641
2.64838
2.63299
2.61737
2.60006
2.57731
2.54806
2.51715
2.49043
2.46827
2.44866
2.43123
2.41695
2.40414
2.39053
2.37471
2.35595
2.3336
2.30696
2.28192
2.26784
2.26023
2.25591
2.25541
2.26026
2.2643
2.27659
2.31306
2.34812
2.38375
2.43578
2.47925
4.4537
4.30914
4.14491
4.0085
3.93352
3.86256
3.76797
3.64351
3.52186
3.44756
3.40376
3.34956
3.28142
3.23451
3.22689
3.23223
3.2179
3.18685
3.1559
3.1456
3.14774
3.14831
3.1368
3.11506
3.08718
3.0756
3.07241
3.07628
3.07607
3.07116
3.06328
3.05564
3.05139
3.05199
3.05884
3.06235
3.06118
3.05849
3.05894
3.06212
3.05971
3.05
3.03384
3.02359
3.02111
3.02703
3.02215
3.00576
2.98191
2.96164
2.95143
2.94476
2.93245
2.91265
2.8832
2.85415
2.83939
2.82877
2.81676
2.80088
2.78081
2.75301
2.72239
2.7024
2.68845
2.67519
2.65995
2.64228
2.62201
2.59484
2.56278
2.53627
2.51759
2.49986
2.48048
2.46088
2.44334
2.42734
2.41118
2.39385
2.37567
2.35747
2.33882
2.31969
2.30219
2.29448
2.29241
2.29816
2.3141
2.33066
2.36723
2.41613
2.44539
2.47558
2.5046
2.51557
4.55374
4.41571
4.27723
4.15234
4.06741
3.98691
3.8929
3.77196
3.65406
3.58209
3.53667
3.47659
3.39843
3.33928
3.32353
3.32326
3.30514
3.26897
3.23196
3.21786
3.21491
3.20564
3.18532
3.15388
3.12276
3.11032
3.10572
3.10452
3.097
3.08755
3.07432
3.06446
3.05854
3.0571
3.06504
3.07039
3.06912
3.06553
3.06125
3.06061
3.06035
3.05325
3.04152
3.03653
3.03996
3.04173
3.02991
3.00868
2.98511
2.97255
2.96782
2.96429
2.95182
2.93209
2.90057
2.87321
2.85936
2.8465
2.83105
2.81328
2.79211
2.76451
2.74115
2.72635
2.71196
2.69587
2.67751
2.65494
2.62628
2.59805
2.57518
2.56011
2.54699
2.53157
2.51231
2.48865
2.46442
2.44373
2.42568
2.40976
2.39601
2.38403
2.37362
2.36294
2.34741
2.33583
2.33389
2.34736
2.3726
2.40715
2.46626
2.51506
2.53674
2.54584
2.54102
2.53516
4.66156
4.53319
4.40804
4.28632
4.19067
4.10353
4.01064
3.89172
3.77511
3.70165
3.65148
3.58449
3.49708
3.42905
3.40599
3.39821
3.37459
3.33315
3.29099
3.27344
3.26674
3.25209
3.22636
3.18967
3.16047
3.14632
3.13962
3.13215
3.12009
3.10485
3.08683
3.07588
3.06887
3.06764
3.07474
3.076
3.07125
3.06512
3.06001
3.05748
3.0587
3.05369
3.04225
3.03664
3.03605
3.03113
3.01892
2.99927
2.98135
2.97416
2.9719
2.96398
2.9501
2.93002
2.89973
2.87608
2.86259
2.84875
2.83272
2.8137
2.79003
2.76608
2.74976
2.73594
2.72098
2.70362
2.68179
2.65221
2.62115
2.60004
2.58767
2.57723
2.5656
2.5527
2.53675
2.51152
2.47797
2.45324
2.43723
2.42559
2.41689
2.41086
2.40663
2.40228
2.3938
2.38313
2.38686
2.41378
2.4475
2.49113
2.54925
2.59271
2.59998
2.59356
2.57451
2.56101
4.75679
4.64487
4.53448
4.41989
4.31577
4.22319
4.13083
4.01308
3.89688
3.82052
3.76452
3.69034
3.59457
3.51807
3.48669
3.46945
3.43841
3.39088
3.34347
3.32282
3.31359
3.29535
3.26581
3.22637
3.1984
3.18244
3.17261
3.15952
3.14381
3.12347
3.10152
3.08919
3.0809
3.07917
3.07981
3.07436
3.06462
3.05268
3.04632
3.04471
3.04612
3.04062
3.02712
3.01623
3.01391
3.00803
2.99723
2.98178
2.96981
2.96451
2.95721
2.9461
2.93214
2.91265
2.88613
2.86705
2.85477
2.84145
2.82583
2.80609
2.78251
2.76364
2.74914
2.73547
2.72051
2.70262
2.6772
2.64327
2.61864
2.60626
2.59603
2.5851
2.57367
2.56241
2.54831
2.52216
2.48831
2.4647
2.45241
2.44355
2.43783
2.43589
2.43632
2.43591
2.43357
2.43683
2.46301
2.50626
2.53711
2.57769
2.6163
2.63607
2.63902
2.63019
2.61649
2.6034
4.84266
4.74577
4.64477
4.53461
4.43452
4.34706
4.25667
4.13855
4.02206
3.94319
3.88172
3.80116
3.69946
3.61623
3.57624
3.54841
3.50869
3.45336
3.40027
3.37625
3.36419
3.3434
3.31151
3.27061
3.24165
3.2232
3.20872
3.19176
3.17208
3.14705
3.11983
3.10438
3.09297
3.08602
3.07836
3.06734
3.05037
3.03377
3.02584
3.02338
3.02441
3.01812
3.00502
2.98981
2.98303
2.97865
2.97378
2.96694
2.9557
2.9463
2.93813
2.92593
2.91032
2.89193
2.87146
2.85665
2.84571
2.83249
2.81597
2.79639
2.77679
2.76123
2.74659
2.7321
2.71658
2.6975
2.66989
2.63907
2.62488
2.61609
2.60608
2.59313
2.58059
2.56697
2.54553
2.52027
2.49773
2.48245
2.47302
2.46625
2.46316
2.46262
2.46117
2.46385
2.47883
2.50861
2.56554
2.60267
2.62974
2.65613
2.66076
2.65968
2.66432
2.66662
2.66557
2.65618
4.90553
4.82268
4.73118
4.6297
4.53599
4.45563
4.37135
4.26125
4.14929
4.06928
4.00308
3.91674
3.81051
3.7233
3.67489
3.63665
3.58839
3.52501
3.46559
3.43635
3.41883
3.39587
3.36296
3.32004
3.28766
3.26564
3.24553
3.22445
3.20002
3.17036
3.13844
3.1188
3.10677
3.09318
3.07694
3.05638
3.02998
3.00927
3.00078
2.99891
2.99939
2.99344
2.98074
2.96068
2.94829
2.94527
2.94917
2.9531
2.94113
2.92669
2.91541
2.89911
2.88273
2.8701
2.86096
2.85318
2.83773
2.82002
2.80171
2.7839
2.77405
2.76296
2.74787
2.73004
2.71095
2.68856
2.66269
2.64797
2.64019
2.63304
2.62227
2.60852
2.59065
2.56674
2.54113
2.52226
2.51395
2.50795
2.50292
2.49765
2.49233
2.48711
2.48698
2.50486
2.53841
2.5906
2.65772
2.69277
2.70643
2.70417
2.69205
2.68848
2.6941
2.70605
2.71448
2.70412
4.94349
4.86952
4.78656
4.6969
4.61273
4.53898
4.45851
4.35156
4.25322
4.18164
4.11771
4.02953
3.91645
3.82907
3.77608
3.72728
3.67066
3.59864
3.53378
3.49961
3.47393
3.44645
3.41222
3.36649
3.32965
3.3036
3.27962
3.25583
3.22938
3.19644
3.16059
3.13013
3.10367
3.0823
3.06012
3.03369
3.00122
2.97661
2.96557
2.96162
2.96216
2.95776
2.94665
2.92822
2.91594
2.91404
2.92143
2.92087
2.90762
2.90015
2.88932
2.87069
2.86024
2.85165
2.83997
2.82674
2.81179
2.80058
2.79103
2.78317
2.77116
2.75342
2.73538
2.71834
2.70104
2.68507
2.67656
2.67132
2.66277
2.65063
2.63621
2.61936
2.59676
2.56873
2.54885
2.54194
2.53885
2.53858
2.5373
2.53225
2.52329
2.51954
2.53409
2.56692
2.61068
2.67487
2.72631
2.74654
2.74806
2.73506
2.72332
2.72286
2.72853
2.74205
2.74437
2.72747
4.95795
4.88798
4.81171
4.73284
4.6582
4.58953
4.51176
4.41522
4.32373
4.25333
4.18766
4.09887
3.99858
3.92142
3.87031
3.81456
3.74372
3.66154
3.59892
3.56206
3.52945
3.49112
3.44564
3.39345
3.35662
3.32674
3.29489
3.2614
3.22564
3.1856
3.14532
3.11259
3.08615
3.06229
3.03757
3.00875
2.97516
2.94872
2.93446
2.92646
2.92255
2.91683
2.90634
2.89251
2.88363
2.88263
2.88906
2.88399
2.86949
2.8641
2.85259
2.83795
2.83282
2.82571
2.81174
2.7952
2.78439
2.77819
2.77284
2.76434
2.75108
2.73492
2.72336
2.71414
2.70351
2.69217
2.68049
2.66708
2.65295
2.63983
2.62714
2.61365
2.59797
2.58254
2.56998
2.5615
2.55811
2.55666
2.55868
2.56062
2.56233
2.57909
2.61166
2.64713
2.69302
2.73787
2.75978
2.76715
2.76537
2.75815
2.75269
2.75105
2.75122
2.751
2.74966
2.73107
4.95642
4.88749
4.81492
4.74255
4.67389
4.60645
4.52874
4.4414
4.35988
4.29451
4.23052
4.14125
4.04063
3.96561
3.91228
3.85283
3.77628
3.68713
3.62333
3.58154
3.54284
3.50048
3.44879
3.39133
3.35342
3.32241
3.28949
3.25446
3.21472
3.1685
3.12293
3.08749
3.05891
3.03321
3.0089
2.98296
2.95148
2.92321
2.90515
2.89263
2.88426
2.87601
2.86454
2.852
2.84427
2.84353
2.84705
2.83894
2.8243
2.81577
2.80384
2.79648
2.79533
2.78799
2.77215
2.75301
2.74306
2.73912
2.7373
2.73021
2.71775
2.70363
2.69501
2.68799
2.68037
2.67181
2.6616
2.64873
2.63321
2.61877
2.60873
2.60085
2.59306
2.58699
2.58224
2.57581
2.57238
2.57286
2.57617
2.58674
2.61005
2.64978
2.69113
2.72805
2.75714
2.76911
2.76702
2.77154
2.77938
2.77914
2.77356
2.76326
2.74817
2.73404
2.72656
2.71359
4.96629
4.89482
4.82125
4.74861
4.67896
4.60781
4.53029
4.45072
4.37749
4.31618
4.24911
4.15859
4.06589
3.9958
3.93945
3.87367
3.79239
3.70329
3.64102
3.59413
3.54759
3.4972
3.43838
3.37573
3.33141
3.29715
3.26407
3.22815
3.18768
3.14122
3.09498
3.05827
3.02838
3.00125
2.9753
2.94762
2.91474
2.88604
2.86697
2.85191
2.83997
2.82795
2.81286
2.79901
2.79254
2.79205
2.79267
2.78355
2.76871
2.75456
2.74654
2.74489
2.74689
2.73968
2.72431
2.70449
2.69292
2.68927
2.6898
2.68407
2.67306
2.66231
2.65526
2.64967
2.64398
2.63705
2.62888
2.61733
2.60007
2.5872
2.58115
2.57831
2.582
2.58623
2.58539
2.58472
2.58478
2.5854
2.59653
2.6222
2.6633
2.71077
2.75321
2.77968
2.78572
2.77649
2.76881
2.7726
2.78457
2.78747
2.77985
2.76707
2.74293
2.71384
2.7004
2.69329
4.97599
4.90165
4.82808
4.75716
4.68779
4.61611
4.54201
4.46815
4.39872
4.33502
4.25918
4.16779
4.08334
4.01759
3.95836
3.88513
3.79711
3.71148
3.65162
3.59934
3.54547
3.48822
3.42201
3.35859
3.3124
3.27425
3.23739
3.19913
3.15667
3.10985
3.0651
3.02932
2.99916
2.97093
2.94298
2.9121
2.87584
2.84691
2.82736
2.81098
2.79619
2.78027
2.76035
2.74211
2.73391
2.73154
2.72987
2.72125
2.70684
2.69103
2.68467
2.68551
2.68907
2.68344
2.6705
2.65218
2.64055
2.63716
2.63968
2.63532
2.6261
2.61961
2.61545
2.6103
2.60312
2.59591
2.58773
2.57665
2.5644
2.55832
2.55496
2.55574
2.56324
2.57377
2.58267
2.58821
2.59059
2.60358
2.63151
2.66841
2.71044
2.74884
2.78392
2.79696
2.79383
2.77936
2.77282
2.77245
2.78172
2.78858
2.78191
2.76717
2.73845
2.70815
2.69653
2.68631
5.01156
4.93948
4.86799
4.79623
4.72297
4.64839
4.57395
4.50081
4.43098
4.3599
4.27675
4.18789
4.10964
4.04604
3.98002
3.89907
3.80582
3.72725
3.66801
3.61021
3.54993
3.48539
3.41321
3.35088
3.3046
3.26349
3.2234
3.18228
3.13764
3.08853
3.04552
3.0114
2.9813
2.95236
2.92228
2.88748
2.84829
2.81949
2.79911
2.78157
2.76392
2.74346
2.71724
2.6938
2.68336
2.67888
2.6748
2.66603
2.65315
2.63887
2.63221
2.63244
2.63584
2.6321
2.62188
2.60677
2.59663
2.59435
2.5987
2.59435
2.58669
2.58358
2.58205
2.57649
2.5676
2.55856
2.55
2.54277
2.53901
2.53794
2.53948
2.5443
2.55097
2.56078
2.57344
2.58555
2.60246
2.63361
2.67249
2.70898
2.74166
2.76885
2.79022
2.79537
2.7902
2.78084
2.77498
2.77125
2.77094
2.77357
2.76771
2.75382
2.73375
2.71413
2.70026
2.68263
5.04598
4.97658
4.90656
4.83455
4.76036
4.6851
4.61003
4.53602
4.46328
4.38705
4.30224
4.21675
4.1431
4.07895
4.00455
3.91666
3.82455
3.75343
3.69345
3.63162
3.5657
3.49259
3.41587
3.35642
3.31015
3.26645
3.22337
3.17879
3.12893
3.07779
3.03915
3.00709
2.97667
2.94653
2.91343
2.87254
2.83094
2.80336
2.78192
2.76161
2.74017
2.71475
2.68251
2.65534
2.64165
2.63373
2.62737
2.6186
2.60743
2.59621
2.58974
2.58905
2.59301
2.59209
2.58488
2.57472
2.56877
2.57062
2.57465
2.56848
2.56104
2.559
2.55936
2.55504
2.54695
2.53663
2.53089
2.52902
2.52976
2.53428
2.54012
2.54546
2.54991
2.55753
2.57093
2.59229
2.6257
2.66868
2.71177
2.73954
2.7552
2.76407
2.77054
2.77909
2.78182
2.77941
2.77489
2.76743
2.75944
2.7528
2.74421
2.73291
2.72385
2.71591
2.70573
2.68015
5.0762
5.00754
4.93796
4.86628
4.79294
4.71849
4.64414
4.57024
4.49577
4.41634
4.33071
4.24839
4.1769
4.10872
4.02833
3.93731
3.85319
3.78707
3.72627
3.6608
3.58781
3.50466
3.43046
3.37451
3.32555
3.27873
3.23188
3.18082
3.12391
3.07358
3.03605
3.00351
2.97155
2.93785
2.89907
2.85331
2.81329
2.78586
2.76189
2.73831
2.71301
2.68213
2.64609
2.61988
2.6041
2.59345
2.58427
2.57395
2.56398
2.55616
2.55153
2.55179
2.5551
2.55464
2.55171
2.54859
2.54863
2.55563
2.55644
2.5492
2.54214
2.5402
2.54144
2.54186
2.53801
2.53146
2.52833
2.52841
2.53227
2.53985
2.54688
2.55335
2.55891
2.56877
2.58725
2.61832
2.65721
2.70493
2.74161
2.75531
2.75986
2.7567
2.75513
2.76252
2.77309
2.77491
2.77111
2.76137
2.74466
2.72907
2.72037
2.71656
2.71413
2.70812
2.7005
2.67082
5.09755
5.02922
4.95958
4.88823
4.81556
4.7418
4.66791
4.59375
4.5181
4.43762
4.35451
4.27653
4.20651
4.1338
4.04892
3.96068
3.88577
3.82271
3.75834
3.68613
3.60373
3.51917
3.45317
3.39844
3.34647
3.29518
3.24146
3.18205
3.12237
3.07406
3.03567
3.00036
2.96402
2.92514
2.88101
2.83491
2.7978
2.76897
2.74202
2.71538
2.68687
2.65295
2.62008
2.59854
2.58264
2.56921
2.55529
2.54053
2.52967
2.52306
2.5202
2.52257
2.52341
2.51995
2.51745
2.51883
2.52514
2.53517
2.53532
2.52916
2.52239
2.52139
2.5235
2.52915
2.53202
2.53103
2.52984
2.53158
2.53776
2.5467
2.55152
2.55528
2.56952
2.59074
2.61827
2.65349
2.69439
2.73666
2.75846
2.7635
2.76026
2.75411
2.75295
2.75699
2.7662
2.76711
2.76082
2.74717
2.72699
2.7136
2.70646
2.70371
2.70089
2.69267
2.6824
2.64817
5.10598
5.0399
4.97147
4.9012
4.82938
4.75646
4.68296
4.60865
4.53233
4.45239
4.3721
4.29699
4.22677
4.14996
4.06403
3.98128
3.91091
3.84866
3.77926
3.70122
3.61465
3.53831
3.47765
3.42031
3.36381
3.30676
3.2461
3.18253
3.12531
3.07921
3.03912
3.00064
2.9609
2.91761
2.8702
2.82633
2.79199
2.76271
2.73392
2.70358
2.67067
2.63594
2.60922
2.59061
2.5752
2.56036
2.54253
2.52074
2.50619
2.49919
2.4972
2.50088
2.50027
2.49453
2.48738
2.48712
2.49422
2.50661
2.51057
2.50814
2.50177
2.50139
2.5052
2.51385
2.52435
2.53141
2.53503
2.53699
2.53883
2.54727
2.56165
2.585
2.61599
2.64419
2.67491
2.70035
2.7262
2.75146
2.76113
2.76121
2.75939
2.75912
2.75851
2.75794
2.75857
2.75495
2.74559
2.7328
2.71834
2.70653
2.69864
2.69309
2.68701
2.67655
2.66236
2.6326
5.11579
5.04893
4.97929
4.90779
4.83515
4.76231
4.68913
4.61472
4.53795
4.45968
4.38354
4.31212
4.24055
4.16052
4.07699
3.99993
3.93325
3.86739
3.79229
3.70944
3.62668
3.55959
3.49847
3.43831
3.37823
3.31568
3.24916
3.18517
3.13197
3.08693
3.04545
3.00497
2.96329
2.91563
2.86487
2.8243
2.79284
2.76412
2.73531
2.7019
2.66201
2.62795
2.60628
2.58864
2.5737
2.55761
2.53783
2.51078
2.49013
2.482
2.48047
2.48298
2.48024
2.47349
2.46264
2.45874
2.46297
2.47505
2.4849
2.48642
2.48336
2.48253
2.48723
2.49703
2.51304
2.52548
2.53276
2.54014
2.55109
2.56523
2.5836
2.61519
2.64757
2.67959
2.7117
2.73161
2.74341
2.74864
2.7566
2.76746
2.77152
2.77139
2.76766
2.75997
2.75268
2.74626
2.73833
2.72956
2.72023
2.71076
2.69947
2.68846
2.67801
2.66524
2.65101
2.6287
5.12153
5.05607
4.98822
4.91849
4.84728
4.77492
4.70118
4.6258
4.5488
4.47183
4.39704
4.3244
4.2487
4.16693
4.08644
4.01346
3.94828
3.87772
3.79847
3.71397
3.64181
3.58
3.51723
3.45466
3.39074
3.3228
3.25335
3.1922
3.14196
3.09761
3.05534
3.01262
2.96534
2.91139
2.8621
2.82673
2.79789
2.76987
2.74025
2.70361
2.65739
2.62657
2.60846
2.59487
2.57974
2.56083
2.53704
2.5044
2.47921
2.46894
2.46481
2.46328
2.45819
2.45051
2.43856
2.43216
2.43445
2.44549
2.45954
2.46426
2.46515
2.46591
2.47138
2.4823
2.49968
2.51866
2.53366
2.5484
2.56673
2.58661
2.6124
2.64841
2.67878
2.7096
2.73395
2.74404
2.75093
2.76032
2.77139
2.78209
2.78698
2.78642
2.7805
2.76817
2.75693
2.74905
2.74186
2.73455
2.72742
2.71903
2.7074
2.69072
2.67455
2.66116
2.64987
2.63324
5.13134
5.06596
4.9982
4.92857
4.85739
4.78464
4.71027
4.63439
4.55772
4.48173
4.40721
4.33292
4.25515
4.17419
4.098
4.02907
3.9607
3.88411
3.80122
3.72264
3.65655
3.59477
3.53165
3.46781
3.40101
3.32972
3.26114
3.2039
3.15522
3.11018
3.06605
3.01915
2.96526
2.90688
2.86191
2.83112
2.804
2.7767
2.74423
2.7017
2.65763
2.62517
2.60313
2.58491
2.56684
2.54834
2.52506
2.49359
2.4668
2.45355
2.44606
2.43955
2.43193
2.42233
2.41202
2.40693
2.40872
2.41851
2.43289
2.44275
2.44782
2.45127
2.45768
2.47046
2.4914
2.51587
2.53931
2.56253
2.58741
2.61322
2.64465
2.67985
2.70762
2.73036
2.7482
2.75869
2.76764
2.77758
2.78931
2.80032
2.80421
2.80315
2.79413
2.77771
2.76526
2.75776
2.7512
2.74468
2.7377
2.72923
2.71613
2.69692
2.67866
2.66607
2.65825
2.64192
5.13711
5.07219
5.00516
4.93627
4.86557
4.79294
4.71857
4.64305
4.56739
4.49232
4.41706
4.33864
4.25605
4.17741
4.10619
4.04051
3.96689
3.88711
3.80724
3.73588
3.67117
3.60811
3.54455
3.47916
3.41031
3.3404
3.27625
3.22043
3.17
3.12233
3.0745
3.02192
2.96367
2.90948
2.869
2.83449
2.80252
2.77069
2.7347
2.69364
2.6547
2.62246
2.59446
2.57121
2.55085
2.52992
2.50437
2.47602
2.45446
2.43998
2.4282
2.4174
2.40648
2.39819
2.39304
2.38793
2.3896
2.39953
2.41178
2.42322
2.43347
2.44427
2.45659
2.47149
2.49165
2.51814