/*--------------------------------*- C++ -*----------------------------------*\
  =========                 |
  \\      /  F ield         | OpenFOAM: The Open Source CFD Toolbox
   \\    /   O peration     | Website:  https://openfoam.org
    \\  /    A nd           | Version:  7
     \\/     M anipulation  |
\*---------------------------------------------------------------------------*/
FoamFile
{
    version     2.0;
    format      ascii;
    class       volScalarField;
    location    "16.5";
    object      T;
}
// * * * * * * * * * * * * * * * * * * * * * * * * * * * * * * * * * * * * * //

dimensions      [0 0 0 1 0 0 0];

internalField   nonuniform List<scalar> 
4032
(
1
1
1
1
1
1
1
1
1
1
1
1.09193
2.36165
2.72276
2.73293
2.74686
2.75987
2.77217
2.78358
2.79402
2.80343
2.8111
2.81688
2.82084
1
1
1
1
1
1
1
1
1
1
1
1.07317
2.34531
2.72098
2.73183
2.74548
2.7584
2.77049
2.78156
2.79149
2.8003
2.80735
2.8125
2.81608
1
1
1
1
1
1
1
1
1
1
1
1.00582
2.29635
2.71676
2.72946
2.74327
2.756
2.76753
2.77793
2.78715
2.79536
2.80204
2.80691
2.81062
1
1
1
1
1
1
1
1
1
1
1
1.00006
2.23303
2.70874
2.72451
2.73841
2.75109
2.76214
2.77205
2.78077
2.78835
2.79409
2.79763
2.79994
1
1
1
1
1
1
1
1
1
1
1
1
2.14454
2.69686
2.7192
2.7325
2.74488
2.75508
2.76379
2.77088
2.77652
2.78062
2.78273
2.78568
1
1
1
1
1
1
1
1
1
1
1
1
2.02183
2.67415
2.70959
2.72277
2.73504
2.74461
2.75245
2.75861
2.76316
2.76562
2.76327
2.75645
1
1
1
1
1
1
1
1
1
1
1
1
1.85821
2.63102
2.6928
2.70852
2.72226
2.73206
2.73867
2.74239
2.74254
2.73748
2.72706
2.71747
1
1
1
1
1
1
1
1
1
1
1
1
1.63191
2.54999
2.66556
2.68801
2.70434
2.71523
2.72101
2.72232
2.71796
2.71037
2.70354
2.71436
1
1
1
1
1
1
1
1
1
1
1
1
1.31454
2.42395
2.64262
2.66115
2.68007
2.693
2.69787
2.69697
2.68814
2.66784
2.62002
2.52936
1
1
1
1
1
1
1
1
1
1
1
1
1.02873
2.2993
2.64405
2.64274
2.65052
2.66156
2.66646
2.6639
2.65181
2.61931
2.56705
2.42259
1
1
1
1
1
1
1
1
1
1
1
1
1.00017
2.11221
2.61606
2.62129
2.62808
2.63262
2.63366
2.62874
2.61454
2.57876
2.5207
2.34726
1
1
1
1
1
1
1
1
1
1
1
1
0.999999
1.80032
2.54924
2.61062
2.61359
2.6123
2.60755
2.59763
2.57928
2.54409
2.4813
2.34084
1
1
1
1
1
1
1
1
1
1
1
1
1
1.36434
2.4099
2.59689
2.59656
2.59384
2.58726
2.57375
2.55162
2.5155
2.45246
2.35659
1
1
1
1
1
1
1
1
1
1
1
1
1
1.0353
2.24474
2.57819
2.57656
2.57438
2.56888
2.55516
2.53157
2.49426
2.44148
2.38005
1
1
1
1
1
1
1
1
1
1
1
1
1
1.00021
1.96013
2.52486
2.56113
2.55831
2.55429
2.53967
2.51621
2.48323
2.44402
2.40424
1
1
1
1
1
1
1
1
1
1
1
1
1
0.999999
1.4848
2.4149
2.5529
2.54959
2.5446
2.52961
2.5085
2.48052
2.44843
2.41985
1
1
1
1
1
1
1
1
1
1
1
1
1
1
1.05848
2.26045
2.54971
2.54536
2.53555
2.52212
2.50261
2.47948
2.45348
2.43023
1
1
1
1
1
1
1
1
1
1
1
1
1
1
1.00064
2.01637
2.52588
2.5387
2.52879
2.51453
2.49778
2.47887
2.45753
2.43704
1
1
1
1
1
1
1
1
1
1
1
1
1
1
0.999998
1.58253
2.4631
2.55553
2.53115
2.51379
2.49804
2.48074
2.4624
2.44292
1
1
1
1
1
1
1
1
1
1
1
1
1
1
0.999999
1.10789
2.34468
2.56335
2.53463
2.5179
2.50281
2.48669
2.46957
2.45053
1
1
1
1
1
1
1
1
1
1
1
1
1
1
1
1.00223
2.19104
2.57255
2.553
2.53687
2.51773
2.4985
2.47934
2.45893
1
1
1
1
1
1
1
1
1
1
1
1
1
1
1
0.999998
1.94102
2.57508
2.58053
2.56289
2.54014
2.51739
2.49507
2.47239
1
1
1
1
1
1
1
1
1
1
1
1
1
1
1
0.999999
1.6083
2.52326
2.6059
2.58111
2.56073
2.5388
2.51565
2.49165
1
1
1
1
1
1
1
1
1
1
1
1
1
1
1
1
1.23865
2.41545
2.62293
2.59476
2.57941
2.56096
2.53975
2.51668
1
1
1
1
1
1
1
1
1
1
1
1
1
1
1
1
1.01269
2.32859
2.64205
2.61419
2.60007
2.58406
2.5657
2.54526
1
1
1
1
1
1
1
1
1
1
1
1
1
1
1
1
1.00005
2.20276
2.64853
2.63332
2.62115
2.60749
2.59151
2.57364
1
1
1
1
1
1
1
1
1
1
1
1
1
1
1
1
1
2.05699
2.64758
2.65463
2.64083
2.62851
2.61351
2.59717
1
1
1
1
1
1
1
1
1
1
1
1
1
1
1
1
1
1.88578
2.61991
2.66044
2.64365
2.63291
2.6198
2.60608
1
1
1
1
1
1
1
1
1
1
1
1
1
1
1
1
1
1.70039
2.56998
2.66236
2.64333
2.63359
2.62152
2.60943
1
1
1
1
1
1
1
1
1
1
1
1
1
1
1
1
1
1.49406
2.50521
2.66068
2.63682
2.62822
2.61787
2.60717
1
1
1
1
1
1
1
1
1
1
1
1
1
1
1
1
1
1.29976
2.44549
2.66046
2.63614
2.62712
2.61717
2.607
1
1
1
1
1
1
1
1
1
1
1
1
1
1
1
1
1
1.19074
2.41061
2.67149
2.64749
2.63638
2.62464
2.61323
1
1
1
1
1
1
1
1
1
1
1
1
1
1
1
1
1
1.11605
2.37378
2.68127
2.6612
2.64955
2.63718
2.62429
1
1
1
1
1
1
1
1
1
1
1
1
1
1
1
1
1
1.02942
2.32112
2.68608
2.67081
2.659
2.64655
2.63306
1
1
1
1
1
1
1
1
1
1
1
1
1
1
1
1
1
1.00057
2.26789
2.68147
2.67133
2.65857
2.64724
2.63485
1
1
1
1
1
1
1
1
1
1
1
1
1
1
1
1
1
1
2.21476
2.6744
2.67135
2.65799
2.64819
2.63656
1
1
1
1
1
1
1
1
1
1
1
1
1
1
1
1
1
1
2.16846
2.66696
2.67416
2.65896
2.64963
2.6383
1
1
1
1
1
1
1
1
1
1
1
1
1
1
1
1
1
1
2.1316
2.66181
2.6789
2.66142
2.65189
2.64053
1
1
1
1
1
1
1
1
1
1
1
1
1
1
1
1
1
1
2.10778
2.66074
2.68129
2.66331
2.65364
2.64226
1
1
1
1
1
1
1
1
1
1
1
1
1
1
1
1
1
1
2.09889
2.66037
2.68168
2.66411
2.65461
2.64325
1.90229
2.13445
2.36104
2.48626
2.53004
2.55305
2.58354
2.61782
2.65708
2.69274
2.71978
2.73386
2.7376
2.73619
2.73366
2.73223
2.73226
2.7335
2.73601
2.73887
2.74066
2.74086
2.73964
2.73815
2.73749
2.73876
2.74256
2.74768
2.75209
2.75431
2.75354
2.7493
2.74257
2.73517
2.72833
2.72244
2.7174
2.71278
2.70836
2.70403
2.69959
2.69439
2.68727
2.67756
2.66592
2.65287
2.63963
2.62747
2.61708
2.60828
2.60015
2.59195
2.58346
2.57476
2.56574
2.55573
2.54398
2.53044
2.51597
2.50178
2.48883
2.47749
2.46753
2.45828
2.4492
2.4403
2.43205
2.42425
2.41497
2.40377
2.39204
2.38041
2.36917
2.35861
2.34818
2.33693
2.32545
2.31449
2.30479
2.29647
2.28646
2.27522
2.26338
2.2509
2.23862
2.22705
2.21574
2.20458
2.19407
2.1846
2.17643
2.17067
2.16764
2.16496
2.15861
2.16081
2.1435
2.33358
2.4279
2.48304
2.51796
2.544
2.58268
2.62689
2.66377
2.68837
2.70371
2.71034
2.70972
2.70607
2.70364
2.70437
2.70737
2.71124
2.71493
2.71753
2.71969
2.72165
2.7234
2.72466
2.72505
2.72464
2.72396
2.72362
2.72393
2.7248
2.72546
2.72435
2.71995
2.71289
2.70523
2.69857
2.69326
2.68862
2.68346
2.67687
2.66879
2.65955
2.65047
2.64181
2.63287
2.62277
2.61129
2.59929
2.588
2.57811
2.56946
2.56092
2.55137
2.54075
2.52992
2.5198
2.51039
2.50061
2.48979
2.47836
2.46707
2.45649
2.44663
2.43738
2.4284
2.41956
2.41103
2.40282
2.39362
2.38271
2.37136
2.35978
2.34922
2.34004
2.33191
2.324
2.31582
2.30754
2.29988
2.29231
2.28286
2.27237
2.261
2.24816
2.23483
2.22351
2.21332
2.20353
2.19361
2.18355
2.17411
2.16611
2.1596
2.15515
2.14942
2.15459
2.19757
2.30607
2.29318
2.35158
2.4263
2.49082
2.54224
2.58047
2.60397
2.61655
2.62602
2.6376
2.65057
2.65956
2.66415
2.66959
2.67601
2.68322
2.68932
2.69238
2.69204
2.68913
2.6863
2.68513
2.68482
2.68398
2.68051
2.67395
2.66596
2.65846
2.65248
2.64807
2.64375
2.63778
2.62969
2.62103
2.61355
2.60781
2.60321
2.59844
2.59173
2.58096
2.56861
2.55703
2.54686
2.53797
2.52905
2.51915
2.5089
2.49942
2.49135
2.48451
2.47734
2.4675
2.45535
2.44293
2.4317
2.42194
2.41324
2.40518
2.3974
2.38966
2.38202
2.37436
2.36679
2.35941
2.35182
2.34334
2.33436
2.32517
2.3154
2.30481
2.29387
2.28402
2.27641
2.2699
2.26445
2.25996
2.25578
2.24993
2.24272
2.23504
2.2265
2.21608
2.20343
2.19058
2.1806
2.1726
2.16601
2.16058
2.15498
2.14827
2.1413
2.13548
2.13038
2.13669
2.24567
2.31594
2.23505
2.25991
2.32481
2.37625
2.41393
2.44574
2.4709
2.48815
2.50495
2.52311
2.54659
2.56819
2.57941
2.58286
2.5828
2.58301
2.58515
2.58795
2.58702
2.58065
2.57097
2.56255
2.55673
2.55297
2.54927
2.54333
2.53431
2.52372
2.51402
2.5067
2.50179
2.49798
2.49305
2.48565
2.47674
2.46797
2.45999
2.45303
2.44661
2.43934
2.42931
2.41916
2.40981
2.40167
2.39472
2.38729
2.37861
2.36956
2.3612
2.35422
2.34849
2.34173
2.3336
2.32522
2.31633
2.30779
2.30024
2.29345
2.2877
2.28288
2.27806
2.27295
2.26765
2.26189
2.25536
2.24813
2.24091
2.23432
2.22812
2.22172
2.21454
2.20659
2.19934
2.19392
2.18957
2.18563
2.18116
2.17611
2.17034
2.1643
2.1583
2.15167
2.1437
2.13357
2.1216
2.11177
2.10522
2.10032
2.09676
2.09239
2.08811
2.0835
2.08107
2.0884
2.30822
2.33651
2.25054
2.22137
2.24059
2.2644
2.28496
2.30952
2.33538
2.35274
2.36542
2.3759
2.38709
2.40304
2.41974
2.42333
2.42248
2.42103
2.41962
2.4197
2.42112
2.4204
2.41499
2.40626
2.39759
2.39084
2.38664
2.38365
2.37925
2.37198
2.36348
2.35568
2.34941
2.34521
2.34236
2.33895
2.33346
2.32665
2.31965
2.31245
2.30564
2.30015
2.29338
2.28654
2.28065
2.27543
2.27029
2.26421
2.25673
2.24962
2.24394
2.23871
2.23231
2.2255
2.21865
2.21226
2.20638
2.20041
2.19363
2.18589
2.17929
2.17512
2.17219
2.16961
2.16655
2.16256
2.15715
2.15012
2.14235
2.13532
2.12942
2.12411
2.1188
2.11305
2.10804
2.1048
2.10218
2.09933
2.09601
2.09211
2.08723
2.08155
2.07623
2.07171
2.06732
2.06209
2.05472
2.04448
2.0356
2.03014
2.02552
2.02189
2.02224
2.02332
2.02455
2.03495
2.34681
2.35007
2.27738
2.22254
2.22477
2.22953
2.22867
2.22934
2.23351
2.24229
2.24986
2.25713
2.26193
2.26759
2.28113
2.28804
2.28672
2.28386
2.28206
2.2821
2.28391
2.28432
2.2804
2.27216
2.2643
2.25938
2.25836
2.25864
2.25741
2.25229
2.24551
2.23964
2.23516
2.23348
2.23424
2.23503
2.23288
2.22727
2.22184
2.21703
2.21362
2.21259
2.21083
2.20571
2.19994
2.1944
2.18895
2.18388
2.17906
2.17415
2.16931
2.16379
2.15757
2.15133
2.14554
2.13995
2.13422
2.12795
2.12048
2.11196
2.10568
2.10202
2.09878
2.0956
2.09218
2.08778
2.08159
2.07358
2.06537
2.05887
2.05379
2.04899
2.04353
2.03723
2.03149
2.02725
2.02372
2.02041
2.01713
2.01354
2.00909
2.00344
1.99763
1.99318
1.98973
1.98636
1.98206
1.97547
1.96688
1.96199
1.95854
1.95738
1.96062
1.96755
1.97406
1.98985
2.37913
2.36372
2.30126
2.24434
2.238
2.23576
2.22663
2.20755
2.18826
2.18385
2.18384
2.18451
2.18425
2.18484
2.19568
2.20539
2.20516
2.20066
2.19654
2.19623
2.19846
2.19988
2.19801
2.19233
2.18714
2.18452
2.18428
2.18536
2.18475
2.1809
2.17684
2.17492
2.17445
2.17541
2.17767
2.17723
2.17308
2.16744
2.16417
2.16332
2.16376
2.16202
2.15708
2.15003
2.14273
2.1378
2.13485
2.13307
2.12958
2.12441
2.11833
2.11185
2.10568
2.10015
2.09467
2.08873
2.08253
2.0763
2.06982
2.06344
2.0578
2.05292
2.04845
2.04387
2.03891
2.03317
2.02641
2.01921
2.01286
2.00751
2.00221
1.99635
1.98969
1.98266
1.97642
1.97154
1.96751
1.96392
1.96063
1.95723
1.95294
1.94682
1.93942
1.93364
1.9297
1.9264
1.92315
1.9193
1.91396
1.91028
1.90842
1.90958
1.91692
1.9272
1.93811
1.95745
2.3966
2.37299
2.32154
2.27775
2.26652
2.25803
2.24038
2.21376
2.18776
2.17462
2.16972
2.1629
2.15591
2.15284
2.15718
2.16393
2.16335
2.15753
2.15084
2.14934
2.15149
2.15413
2.15366
2.14981
2.14388
2.14107
2.14044
2.14085
2.14036
2.13788
2.13525
2.1345
2.13455
2.13505
2.13544
2.13386
2.12938
2.12522
2.12413
2.1253
2.12587
2.12274
2.11663
2.10939
2.10442
2.10175
2.10117
2.0992
2.09467
2.08881
2.08276
2.07725
2.07207
2.06676
2.06079
2.05419
2.04805
2.04269
2.03758
2.03244
2.02685
2.02079
2.01461
2.00881
2.00326
1.99752
1.99165
1.98613
1.98092
1.97542
1.96912
1.96178
1.95403
1.94682
1.94058
1.93548
1.93138
1.92795
1.92481
1.9214
1.91692
1.91027
1.90133
1.89399
1.89001
1.88724
1.88519
1.88351
1.88231
1.88132
1.88201
1.8878
1.899
1.90943
1.92354
1.94128
2.40671
2.38008
2.33952
2.30655
2.29473
2.28335
2.26316
2.23351
2.20318
2.18615
2.17806
2.16765
2.15582
2.14998
2.15061
2.15419
2.15225
2.14523
2.13708
2.13431
2.13554
2.13705
2.13528
2.12968
2.12199
2.1175
2.11627
2.11654
2.11601
2.11354
2.11078
2.10865
2.1075
2.10743
2.10726
2.10628
2.1034
2.10084
2.10066
2.1017
2.10076
2.09724
2.09158
2.08624
2.08329
2.0826
2.08288
2.07896
2.07322
2.06651
2.0615
2.05744
2.05312
2.04784
2.04108
2.03357
2.02844
2.02433
2.02004
2.01491
2.00908
2.00223
1.99455
1.98815
1.9834
1.97889
1.97404
1.9688
1.96328
1.95687
1.94897
1.94068
1.93354
1.92742
1.92162
1.91617
1.91166
1.90783
1.90407
1.89991
1.89496
1.88875
1.8808
1.87283
1.86825
1.86589
1.86472
1.86506
1.86743
1.86992
1.87493
1.88748
1.89776
1.90741
1.92215
1.93223
2.4136
2.38752
2.35595
2.32926
2.31596
2.30255
2.28284
2.25487
2.22619
2.20869
2.19853
2.18503
2.16783
2.15675
2.15557
2.15751
2.15439
2.14642
2.1372
2.13327
2.13322
2.13246
2.12755
2.11966
2.11034
2.10556
2.10333
2.10308
2.1014
2.0981
2.09452
2.09125
2.08905
2.08846
2.08872
2.08846
2.0868
2.08442
2.08346
2.08357
2.08238
2.07878
2.07378
2.07068
2.06969
2.07082
2.06878
2.06339
2.05652
2.0508
2.04748
2.04509
2.04124
2.03568
2.02771
2.01976
2.01559
2.01241
2.00861
2.00361
1.99749
1.9894
1.98084
1.97538
1.97148
1.96755
1.96283
1.95727
1.95088
1.94274
1.93373
1.92672
1.92203
1.91735
1.91172
1.9056
1.9
1.89507
1.8904
1.88566
1.88087
1.8761
1.87091
1.86494
1.85881
1.85579
1.85499
1.85719
1.86307
1.86942
1.88179
1.89687
1.90529
1.91273
1.92105
1.92034
2.41944
2.39477
2.36903
2.34544
2.3303
2.3154
2.29669
2.27069
2.24409
2.22772
2.21727
2.20255
2.18272
2.16738
2.16331
2.16328
2.1585
2.14881
2.13845
2.13387
2.13223
2.12861
2.1217
2.11167
2.10186
2.09716
2.09455
2.09281
2.08931
2.08546
2.08063
2.07662
2.07364
2.07235
2.07308
2.07316
2.07131
2.06828
2.06546
2.06448
2.06395
2.06124
2.05727
2.05552
2.05611
2.05609
2.05168
2.04504
2.03853
2.03512
2.03348
2.03204
2.02823
2.02271
2.01418
2.00677
2.00293
1.99922
1.9946
1.98925
1.98297
1.97499
1.96839
1.96426
1.96005
1.95518
1.94957
1.94272
1.93413
1.92571
1.9194
1.91575
1.91269
1.90874
1.9033
1.8962
1.88874
1.88248
1.87733
1.87317
1.8699
1.86712
1.86447
1.86118
1.85591
1.85184
1.85145
1.85602
1.86439
1.8754
1.89455
1.90878
1.91481
1.9151
1.91257
1.90661
2.42786
2.40465
2.38161
2.35874
2.34114
2.32491
2.30684
2.28202
2.25658
2.24052
2.22951
2.21391
2.19254
2.17518
2.16898
2.16659
2.1599
2.14851
2.13672
2.13103
2.12812
2.12292
2.11459
2.10323
2.09392
2.08876
2.08558
2.08217
2.07764
2.07234
2.06622
2.06183
2.05825
2.0566
2.0571
2.05597
2.0524
2.04869
2.0457
2.04411
2.04388
2.04173
2.03772
2.0357
2.03504
2.03281
2.02841
2.02231
2.01727
2.0152
2.01439
2.01203
2.00818
2.0027
1.99449
1.98811
1.98436
1.98029
1.97549
1.96988
1.96316
1.95661
1.95226
1.9484
1.94385
1.93829
1.93134
1.92226
1.91315
1.9075
1.90463
1.90249
1.89996
1.8967
1.89226
1.88487
1.87475
1.8673
1.86291
1.8603
1.85882
1.85806
1.85753
1.85654
1.85409
1.85144
1.85275
1.86101
1.87125
1.88477
1.90234
1.91392
1.91497
1.91255
1.90529
1.89725
2.43666
2.41521
2.39418
2.37224
2.35233
2.33457
2.31644
2.29206
2.26713
2.25076
2.23872
2.22192
2.19916
2.18017
2.17202
2.16724
2.15877
2.14564
2.13208
2.12536
2.12186
2.11591
2.10684
2.09491
2.08586
2.08011
2.07606
2.07118
2.06564
2.05879
2.05134
2.04644
2.04284
2.04103
2.03984
2.0366
2.03203
2.0271
2.02411
2.02275
2.02229
2.01955
2.01475
2.01107
2.0099
2.00763
2.00373
1.99839
1.99429
1.99246
1.9905
1.98792
1.98462
1.97964
1.97245
1.96716
1.96357
1.95953
1.95476
1.94891
1.94227
1.93722
1.93348
1.9296
1.92501
1.91938
1.91151
1.90136
1.89433
1.89098
1.88847
1.88616
1.88382
1.88125
1.87756
1.87008
1.8601
1.85299
1.84951
1.84756
1.84722
1.84777
1.84927
1.85037
1.85111
1.85232
1.86005
1.87283
1.88188
1.89363
1.90478
1.90903
1.90929
1.90599
1.90099
1.89438
2.44957
2.42823
2.40697
2.38442
2.36424
2.34664
2.32819
2.30328
2.27816
2.26109
2.24768
2.22948
2.20569
2.18546
2.17534
2.16799
2.15748
2.14274
2.12823
2.12105
2.11681
2.11031
2.10101
2.08923
2.08026
2.07394
2.06864
2.06278
2.05626
2.04821
2.03935
2.03364
2.02944
2.02675
2.02379
2.01952
2.01359
2.008
2.00508
2.00375
2.00318
2.00002
1.99463
1.98906
1.98639
1.98457
1.98249
1.97948
1.97484
1.97166
1.96969
1.96698
1.96361
1.9596
1.95471
1.95078
1.94725
1.94282
1.9375
1.93155
1.92604
1.92179
1.91767
1.91333
1.90857
1.90296
1.89531
1.8868
1.88241
1.87927
1.87603
1.87253
1.86962
1.86649
1.86103
1.85466
1.84877
1.84455
1.84168
1.83951
1.83944
1.84045
1.84215
1.84445
1.8498
1.85849
1.87504
1.88561
1.89306
1.89983
1.90117
1.90041
1.90072
1.90056
1.89958
1.89511
2.46792
2.44565
2.42308
2.39964
2.37859
2.36066
2.34202
2.31793
2.29315
2.27513
2.26
2.24017
2.21553
2.19463
2.18251
2.17257
2.16003
2.14387
2.12847
2.12033
2.11485
2.10771
2.09824
2.0868
2.07794
2.07141
2.0651
2.0585
2.05128
2.04271
2.03352
2.02762
2.02334
2.01862
2.0134
2.00722
1.99963
1.99362
1.9911
1.99032
1.98998
1.98723
1.98174
1.97415
1.96935
1.96746
1.96743
1.96744
1.96285
1.95855
1.95548
1.95122
1.94761
1.94506
1.94307
1.94103
1.93675
1.93185
1.92678
1.9214
1.9176
1.91354
1.90884
1.90398
1.89896
1.89279
1.88551
1.88135
1.87861
1.87577
1.87186
1.86747
1.86266
1.85689
1.85083
1.84628
1.84433
1.84276
1.84113
1.83914
1.83815
1.83845
1.83899
1.84496
1.85464
1.86978
1.88922
1.89833
1.90126
1.9004
1.89675
1.89554
1.89666
1.89942
1.90124
1.89777
2.49307
2.46981
2.44577
2.42153
2.39937
2.38006
2.3599
2.33474
2.31167
2.29444
2.27899
2.25824
2.23175
2.21067
2.19745
2.18524
2.17105
2.15291
2.13623
2.12706
2.12002
2.11247
2.1032
2.09132
2.08194
2.07533
2.06922
2.06299
2.05573
2.04661
2.03675
2.02825
2.02069
2.0145
2.00837
2.00154
1.99306
1.98654
1.98332
1.98164
1.98113
1.9791
1.97497
1.9684
1.96321
1.96137
1.96189
1.96069
1.95599
1.95378
1.95066
1.94542
1.94288
1.94082
1.93781
1.93418
1.93021
1.92728
1.92445
1.92136
1.91641
1.90994
1.90416
1.89952
1.89511
1.89069
1.88768
1.88533
1.88238
1.87844
1.87359
1.86801
1.8614
1.8545
1.85034
1.84871
1.84771
1.84716
1.84605
1.8441
1.8422
1.84167
1.84574
1.85504
1.86783
1.88658
1.90096
1.90472
1.90477
1.90061
1.89733
1.8972
1.89897
1.90294
1.90331
1.89771
2.5234
2.50048
2.47629
2.45203
2.42921
2.40826
2.38609
2.36063
2.33706
2.31863
2.3016
2.27985
2.25568
2.23667
2.22373
2.20991
2.19273
2.17261
2.15675
2.14712
2.13848
2.12855
2.11691
2.10339
2.09388
2.08622
2.07803
2.0693
2.05974
2.04909
2.0383
2.02936
2.02245
2.0163
2.00989
2.00243
1.99375
1.98686
1.98282
1.98013
1.97842
1.97621
1.97275
1.96816
1.96437
1.96325
1.96408
1.96177
1.95654
1.95456
1.95117
1.94695
1.94556
1.94388
1.94053
1.93613
1.93258
1.92983
1.92693
1.92297
1.918
1.91231
1.90778
1.90405
1.90017
1.8964
1.89266
1.88815
1.88342
1.87895
1.87439
1.86957
1.86463
1.86057
1.85772
1.85591
1.85461
1.85334
1.85276
1.85217
1.85241
1.85685
1.86605
1.87636
1.88977
1.90282
1.908
1.90809
1.90733
1.90505
1.90423
1.90446
1.90501
1.90485
1.90364
1.89679
2.55403
2.53265
2.50973
2.48652
2.46422
2.44248
2.41896
2.39386
2.37057
2.35149
2.3332
2.3099
2.28475
2.26564
2.25169
2.23647
2.21765
2.19598
2.17987
2.16884
2.15862
2.14743
2.13387
2.1189
2.10893
2.10073
2.092
2.08279
2.07262
2.06096
2.04942
2.04045
2.03322
2.02655
2.02003
2.013
2.0045
1.99665
1.99144
1.98763
1.98478
1.98181
1.97787
1.97363
1.9706
1.96959
1.96988
1.96661
1.96151
1.95863
1.95493
1.95264
1.95216
1.95
1.94551
1.9398
1.93614
1.93392
1.93211
1.92845
1.92317
1.91732
1.91295
1.90912
1.90537
1.90186
1.89813
1.89363
1.88814
1.88281
1.87883
1.87571
1.87311
1.87126
1.86938
1.8669
1.86473
1.8633
1.86373
1.86595
1.87177
1.88254
1.89427
1.90471
1.91329
1.916
1.91452
1.91488
1.9172
1.91758
1.91672
1.91463
1.91054
1.90581
1.90276
1.89709
2.57928
2.55977
2.53898
2.51778
2.49694
2.47568
2.45284
2.4294
2.40736
2.38825
2.36821
2.34345
2.31888
2.30007
2.28485
2.26771
2.24724
2.22489
2.20871
2.19625
2.1842
2.17137
2.15622
2.14003
2.1286
2.12007
2.11199
2.10314
2.09311
2.08149
2.06991
2.06074
2.05324
2.04628
2.03942
2.03185
2.02254
2.01403
2.00808
2.00313
1.99892
1.99456
1.9892
1.98409
1.981
1.97953
1.9785
1.97469
1.96976
1.96518
1.96233
1.96125
1.96121
1.95815
1.95262
1.94591
1.94162
1.9398
1.9391
1.9359
1.93043
1.92485
1.92061
1.91707
1.91375
1.91038
1.90682
1.90221
1.89582
1.89086
1.88821
1.88662
1.88708
1.88738
1.88574
1.88345
1.88162
1.88105
1.88371
1.89019
1.90103
1.91412
1.92598
1.93289
1.93422
1.93111
1.92834
1.92972
1.93394
1.93504
1.933
1.92922
1.92186
1.91289
1.90883
1.90472
2.59087
2.57444
2.55737
2.54
2.52202
2.50269
2.48199
2.46067
2.44006
2.42073
2.39892
2.37403
2.35126
2.33333
2.31729
2.29826
2.27596
2.25416
2.23855
2.22501
2.2114
2.19721
2.1808
2.16477
2.15327
2.14424
2.13568
2.1264
2.11578
2.10392
2.09258
2.08357
2.07597
2.06872
2.06124
2.05255
2.04187
2.03291
2.0265
2.02082
2.01536
2.00944
2.00224
1.99528
1.99113
1.98876
1.98669
1.98281
1.97786
1.97267
1.96977
1.96944
1.96957
1.96637
1.96049
1.95355
1.94904
1.94731
1.94743
1.94489
1.93974
1.9353
1.93193
1.9285
1.92477
1.92132
1.91772
1.91327
1.90843
1.90567
1.90394
1.90376
1.90494
1.90637
1.90695
1.90624
1.90567
1.90875
1.9158
1.92511
1.93614
1.94711
1.95692
1.95935
1.95788
1.9531
1.95145
1.95169
1.9547
1.95651
1.95441
1.94967
1.94076
1.9314
1.92782
1.92383
2.59658
2.5832
2.56911
2.55416
2.53781
2.5199
2.50085
2.48143
2.46252
2.44333
2.42157
2.39863
2.37828
2.36161
2.34458
2.32426
2.30116
2.28149
2.26662
2.25236
2.2378
2.22219
2.20455
2.18926
2.17807
2.16823
2.15863
2.14869
2.13746
2.12479
2.11367
2.10494
2.09716
2.08937
2.08085
2.07053
2.05847
2.04911
2.04202
2.03556
2.02877
2.02099
2.01158
2.00286
1.99782
1.99472
1.99196
1.98816
1.98369
1.9788
1.97577
1.97533
1.97555
1.97322
1.9681
1.96193
1.95765
1.95619
1.95677
1.95437
1.95011
1.94725
1.94511
1.94167
1.93758
1.93388
1.93049
1.92765
1.9257
1.9245
1.92458
1.92536
1.92652
1.92809
1.92983
1.93169
1.93548
1.94348
1.9534
1.96269
1.97157
1.98009
1.98518
1.98559
1.98348
1.98042
1.97865
1.97721
1.97686
1.97741
1.97551
1.97099
1.96457
1.95832
1.95388
1.94822
2.59551
2.58322
2.57044
2.55669
2.54174
2.52567
2.50881
2.49161
2.47442
2.45636
2.43629
2.4159
2.39817
2.38267
2.36485
2.34393
2.32195
2.30491
2.2907
2.27621
2.26081
2.24351
2.22506
2.2109
2.19993
2.18936
2.17869
2.16749
2.15457
2.14094
2.13062
2.12205
2.11364
2.10465
2.09431
2.0816
2.06844
2.05893
2.05095
2.04319
2.03528
2.02635
2.01535
2.00559
1.99979
1.99589
1.99272
1.98911
1.98506
1.98088
1.97805
1.97742
1.97789
1.97685
1.97341
1.96931
1.96648
1.96643
1.96681
1.96384
1.96027
1.95862
1.95779
1.95518
1.95154
1.94775
1.94558
1.9447
1.94473
1.94573
1.947
1.94798
1.94874
1.95022
1.95307
1.95837
1.96713
1.97854
1.99005
1.99761
2.00236
2.0053
2.0065
2.00785
2.00814
2.00723
2.00525
2.00222
1.99948
1.99741
1.99461
1.99055
1.98693
1.98383
1.98041
1.97306
2.59612
2.58446
2.57212
2.55875
2.54454
2.52968
2.51445
2.49898
2.48314
2.46601
2.44725
2.429
2.41303
2.39774
2.37955
2.35876
2.33941
2.32434
2.3106
2.29569
2.27881
2.25916
2.24152
2.22827
2.21662
2.20523
2.19346
2.18006
2.16471
2.15079
2.14028
2.131
2.12126
2.11069
2.09847
2.08397
2.07087
2.06129
2.05259
2.04388
2.0348
2.02418
2.01192
2.00268
1.99682
1.99255
1.98882
1.98499
1.98131
1.97823
1.97636
1.97631
1.97702
1.97651
1.97476
1.97268
1.97232
1.97383
1.97368
1.97052
1.96752
1.96655
1.96668
1.96644
1.96448
1.96195
1.96082
1.96084
1.962
1.96418
1.96586
1.96716
1.96846
1.97124
1.97679
1.98584
1.99681
2.01017
2.02045
2.02449
2.02587
2.02482
2.02427
2.02606
2.02852
2.02862
2.0265
2.02268
2.01765
2.01314
2.01003
2.00772
2.0055
2.00236
1.9994
1.99128
2.6017
2.58953
2.57665
2.56308
2.54912
2.53488
2.5205
2.5059
2.49078
2.47434
2.457
2.44048
2.42552
2.40976
2.39099
2.37124
2.35447
2.34048
2.32609
2.30963
2.29036
2.27017
2.25432
2.24113
2.22841
2.21555
2.20168
2.1858
2.16943
2.15583
2.14454
2.13362
2.12236
2.11033
2.09656
2.0817
2.0692
2.05928
2.05002
2.04078
2.03068
2.01879
2.00737
1.99976
1.99432
1.98987
1.98522
1.98016
1.9764
1.97419
1.97351
1.97444
1.97507
1.97428
1.97248
1.97228
1.97347
1.97608
1.97594
1.97346
1.97083
1.97035
1.9709
1.97275
1.97363
1.9732
1.97258
1.97302
1.97464
1.97699
1.97859
1.98005
1.98477
1.9915
2.00005
2.01074
2.02288
2.03531
2.04128
2.04242
2.04141
2.03956
2.03917
2.04029
2.04264
2.0425
2.03968
2.0349
2.02883
2.02486
2.02221
2.02013
2.01769
2.01368
2.00969
1.9997
2.61104
2.59758
2.58393
2.57014
2.55624
2.54228
2.52823
2.51391
2.49895
2.48291
2.46643
2.45074
2.43586
2.41922
2.40025
2.3818
2.36613
2.35227
2.3365
2.31834
2.29764
2.27903
2.2641
2.24977
2.2354
2.22054
2.20434
2.18699
2.171
2.15774
2.14571
2.13374
2.12144
2.108
2.09306
2.0789
2.06752
2.05762
2.04789
2.03769
2.02672
2.01517
2.00601
1.99971
1.99487
1.99053
1.98515
1.97826
1.9735
1.97162
1.97134
1.9729
1.97312
1.97159
1.96879
1.96855
1.9703
1.97366
1.9746
1.97357
1.97128
1.97106
1.97201
1.97461
1.97813
1.98031
1.98126
1.98175
1.98224
1.98488
1.98971
1.99784
2.00798
2.01681
2.02625
2.03386
2.04135
2.04885
2.05167
2.05154
2.05078
2.05054
2.05013
2.04967
2.04977
2.0485
2.04513
2.04069
2.03598
2.03206
2.02918
2.02683
2.02394
2.01968
2.01474
2.00497
2.61915
2.60514
2.59115
2.57722
2.56332
2.5495
2.53558
2.52124
2.5061
2.4903
2.47462
2.45971
2.44448
2.42703
2.4085
2.39128
2.37634
2.3614
2.34388
2.32402
2.30368
2.28686
2.27128
2.25566
2.23974
2.22284
2.20452
2.18654
2.17114
2.15779
2.1453
2.13301
2.12008
2.10529
2.08953
2.07673
2.06661
2.05719
2.04772
2.03696
2.02448
2.01389
2.0072
2.00198
1.99772
1.99311
1.98723
1.97902
1.97258
1.97041
1.97024
1.97132
1.97066
1.9684
1.96447
1.96301
1.96418
1.96763
1.97054
1.971
1.96997
1.96965
1.97095
1.97371
1.97863
1.9825
1.98481
1.98716
1.99076
1.99551
2.00128
2.01109
2.02114
2.03109
2.04097
2.04697
2.05058
2.05226
2.05478
2.05789
2.05868
2.05851
2.05725
2.05468
2.05219
2.05009
2.04749
2.04445
2.0412
2.0378
2.03383
2.02996
2.02624
2.02172
2.017
2.00926
2.62221
2.60931
2.59628
2.58314
2.56983
2.55629
2.54235
2.52785
2.5127
2.49724
2.48196
2.46691
2.45087
2.43313
2.41533
2.39895
2.38418
2.36786
2.34896
2.32821
2.30997
2.29396
2.27737
2.26048
2.2429
2.22393
2.20425
2.18648
2.17152
2.15806
2.14518
2.13219
2.11778
2.10131
2.08634
2.07533
2.06622
2.05753
2.04847
2.03735
2.02344
2.01433
2.00944
2.00601
2.00209
1.99699
1.99041
1.98079
1.97319
1.97014
1.96898
1.96855
1.96684
1.96402
1.9597
1.95737
1.95795
1.96105
1.96518
1.96655
1.96676
1.96692
1.96862
1.97188
1.97704
1.98284
1.98761
1.99217
1.99782
2.00399
2.01188
2.02276
2.03188
2.04114
2.04838
2.05138
2.05363
2.0566
2.05963
2.06233
2.06373
2.06362
2.06195
2.05811
2.05434
2.05183
2.0496
2.04715
2.04457
2.04169
2.03781
2.03222
2.02691
2.02249
2.01874
2.01273
2.62465
2.61229
2.59966
2.58676
2.57356
2.55999
2.54597
2.53146
2.51657
2.50161
2.48674
2.47162
2.45536
2.43811
2.42158
2.40629
2.39067
2.37264
2.35259
2.33296
2.31586
2.29938
2.28213
2.26431
2.24537
2.22491
2.20488
2.1878
2.173
2.15914
2.14554
2.13142
2.11522
2.09783
2.08427
2.07496
2.06684
2.05872
2.0492
2.03685
2.02413
2.01504
2.00923
2.00472
2.00035
1.9959
1.98995
1.98109
1.97327
1.96915
1.9666
1.96415
1.96125
1.95778
1.95411
1.95223
1.95261
1.95512
1.95911
1.96193
1.96336
1.96438
1.96624
1.96998
1.97613
1.98338
1.99055
1.99762
2.00511
2.01281
2.02218
2.03257
2.04063
2.04713
2.0522
2.05514
2.05765
2.06041
2.06353
2.06647
2.06758
2.06728
2.06468
2.05983
2.05604
2.05371
2.05159
2.04938
2.04696
2.04426
2.04025
2.03423
2.0283
2.02409
2.02132
2.01573
2.62672
2.61462
2.6022
2.58943
2.57625
2.5626
2.54852
2.53408
2.5195
2.50491
2.4901
2.47436
2.45737
2.44084
2.42564
2.41133
2.39457
2.37566
2.35614
2.33808
2.32109
2.30397
2.2862
2.26752
2.24759
2.22707
2.20789
2.19093
2.17547
2.16084
2.14629
2.13041
2.11305
2.09705
2.08498
2.07486
2.06562
2.0564
2.04616
2.03477
2.0242
2.0158
2.00869
2.00307
1.99834
1.99329
1.98651
1.97849
1.97235
1.96807
1.96406
1.95988
1.95548
1.95212
1.94997
1.94793
1.9483
1.95119
1.95468
1.95794
1.96094
1.96404
1.96744
1.97171
1.97757
1.98536
1.99378
2.00219
2.01072
2.01969
2.02994
2.03941
2.04591
2.05084
2.05377
2.05724
2.06116
2.06492
2.06847
2.0697
2.06983
2.0684
2.06527
2.06109
2.05841
2.05616
2.05386
2.05187
2.04967
2.04628
2.04142
2.03577
2.03033
2.02516
2.02177
2.01569
2.62904
2.61702
2.60463
2.59181
2.57856
2.56489
2.55084
2.53653
2.52207
2.50744
2.49245
2.47691
2.46103
2.44515
2.42975
2.41415
2.39653
2.37786
2.35965
2.34251
2.3253
2.30764
2.2891
2.26929
2.24901
2.22966
2.21187
2.195
2.1786
2.16238
2.14581
2.12855
2.11214
2.09854
2.08649
2.07462
2.06292
2.052
2.04162
2.03191
2.02357
2.01581
2.00805
2.00074
1.99467
1.98842
1.98172
1.97671
1.97271
1.96832
1.96316
1.95729
1.95236
1.94973
1.94884
1.94986
1.95156
1.95218
1.95326
1.95595
1.95986
1.96446
1.97003
1.97687
1.9843
1.99169
1.99897
2.00673
2.01473
2.02382
2.03476
2.04386
2.04886
2.05171
2.05458
2.05897
2.06412
2.06785
2.06874
2.06881
2.06763
2.06554
2.06313
2.06124
2.05991
2.0581
2.05546
2.05231
2.04889
2.04509
2.04093
2.03668
2.0319
2.02628
2.02144
2.01375
2.63081
2.61883
2.60638
2.59346
2.58014
2.56647
2.5525
2.53828
2.52382
2.50902
2.49374
2.47814
2.46258
2.44729
2.43183
2.41434
2.39673
2.37949
2.3626
2.34563
2.3281
2.30951
2.28982
2.2699
2.25066
2.23247
2.21498
2.19772
2.18034
2.16255
2.14455
2.12743
2.11236
2.09927
2.08744
2.07568
2.06284
2.04943
2.03745
2.02813
2.02105
2.01484
2.00837
2.00056
1.99089
1.98235
1.97811
1.97522
1.97238
1.96856
1.96319
1.9561
1.9518
1.94967
1.9495
1.95202
1.95489
1.95529
1.95579
1.95792
1.96162
1.96696
1.97446
1.98321
1.99147
1.99887
2.00553
2.01188
2.01868
2.02656
2.03606
2.04278
2.04659
2.04994
2.05416
2.05971
2.06561
2.06774
2.06835
2.06741
2.06391
2.06093
2.05985
2.0599
2.05974
2.05834
2.05576
2.05156
2.04716
2.04341
2.03987
2.03649
2.03288
2.02774
2.02081
2.01054
2.63177
2.61975
2.60725
2.59427
2.58095
2.56735
2.55347
2.53927
2.5247
2.50966
2.49438
2.47914
2.46388
2.4485
2.43221
2.41495
2.39777
2.38104
2.36434
2.34716
2.32911
2.3098
2.28968
2.27025
2.25195
2.23417
2.21653
2.19879
2.18069
2.16208
2.1435
2.12661
2.11216
2.0993
2.0869
2.07406
2.06051
2.04612
2.03333
2.02501
2.01902
2.01356
2.00769
1.99898
1.98647
1.9789
1.97575
1.97344
1.97168
1.96815
1.96292
1.95549
1.95156
1.95025
1.95141
1.95521
1.95715
1.95729
1.95782
1.95939
1.96286
1.96891
1.97859
1.9896
1.99865
2.00529
2.01052
2.01518
2.02056
2.02852
2.03969
2.04578
2.04907
2.05204
2.05568
2.0605
2.06555
2.06686
2.06721
2.06487
2.06054
2.05853
2.05783
2.05836
2.05939
2.05826
2.05555
2.05044
2.04536
2.04193
2.0392
2.03647
2.03314
2.02759
2.0194
2.00826
)
;

boundaryField
{
    inlet
    {
        type            fixedValue;
        value           uniform 1;
    }
    outlet
    {
        type            inletOutlet;
        inletValue      uniform 1;
        value           nonuniform List<scalar> 
32
(
2.16074
2.15434
2.1366
2.08801
2.03395
1.98907
1.95748
1.94214
1.93302
1.92043
1.9061
1.89659
1.89389
1.89507
1.89784
1.89718
1.89621
1.89716
1.90537
1.92423
1.9483
1.97261
1.9905
1.99882
2.00466
2.00942
2.01326
2.01608
2.01593
2.01373
2.01036
2.00818
)
;
    }
    bottom
    {
        type            symmetryPlane;
    }
    top
    {
        type            symmetryPlane;
    }
    obstacle
    {
        type            zeroGradient;
    }
    defaultFaces
    {
        type            empty;
    }
}


// ************************************************************************* //
