/*--------------------------------*- C++ -*----------------------------------*\
  =========                 |
  \\      /  F ield         | OpenFOAM: The Open Source CFD Toolbox
   \\    /   O peration     | Website:  https://openfoam.org
    \\  /    A nd           | Version:  7
     \\/     M anipulation  |
\*---------------------------------------------------------------------------*/
FoamFile
{
    version     2.0;
    format      ascii;
    class       volVectorField;
    location    "16.5";
    object      U;
}
// * * * * * * * * * * * * * * * * * * * * * * * * * * * * * * * * * * * * * //

dimensions      [0 1 -1 0 0 0 0];

internalField   nonuniform List<vector> 
4032
(
(3 1.45497e-18 0)
(3 -8.45839e-17 0)
(3 2.29273e-16 0)
(3 3.90434e-16 0)
(3 2.6005e-17 0)
(3 -5.51247e-17 0)
(3 -2.19906e-16 0)
(3 -2.74037e-16 0)
(3 -6.40061e-17 0)
(3 3.35014e-16 0)
(3 1.93421e-17 0)
(2.956 0.00246939 0)
(1.02272 0.0180727 0)
(0.700615 0.0195875 0)
(0.647557 0.0221049 0)
(0.591132 0.0225869 0)
(0.535744 0.02335 0)
(0.478894 0.0250303 0)
(0.41928 0.0274664 0)
(0.355703 0.0303385 0)
(0.287477 0.0333567 0)
(0.213308 0.0370206 0)
(0.132744 0.0395074 0)
(0.0491256 0.0443028 0)
(3 -1.68779e-16 0)
(3 -1.45844e-16 0)
(3 5.92278e-16 0)
(3 1.08338e-15 0)
(3 1.27093e-15 0)
(3 1.11028e-15 0)
(3 4.85173e-17 0)
(3 -8.45618e-16 0)
(3 -7.05341e-16 0)
(3 -4.72136e-16 0)
(3 -1.15018e-15 0)
(2.96424 0.023081 0)
(1.03383 0.079243 0)
(0.69693 0.067666 0)
(0.645183 0.068765 0)
(0.589996 0.0715835 0)
(0.533291 0.0748998 0)
(0.47396 0.0800367 0)
(0.411821 0.0867626 0)
(0.346476 0.0948344 0)
(0.277549 0.103477 0)
(0.204238 0.114432 0)
(0.125439 0.121902 0)
(0.0459508 0.13468 0)
(3 4.60276e-18 0)
(3 1.18691e-16 0)
(3 4.4314e-16 0)
(3 4.83157e-16 0)
(3 6.61222e-16 0)
(3 6.96575e-16 0)
(3 3.36865e-16 0)
(3 -1.46168e-16 0)
(3 -5.5066e-16 0)
(3 -8.15119e-16 0)
(3 -1.53357e-15 0)
(3.00352 0.00510309 0)
(1.09346 0.131126 0)
(0.722226 0.107776 0)
(0.667884 0.11169 0)
(0.610249 0.119122 0)
(0.550218 0.127008 0)
(0.487505 0.136706 0)
(0.422127 0.147798 0)
(0.354041 0.160531 0)
(0.282599 0.173777 0)
(0.207535 0.190941 0)
(0.126286 0.202226 0)
(0.0463465 0.220606 0)
(3 2.15995e-16 0)
(3 1.09285e-16 0)
(3 -3.11564e-16 0)
(3 -8.16835e-16 0)
(3 -1.20387e-15 0)
(3 -1.215e-15 0)
(3 -4.45917e-16 0)
(3 2.68793e-16 0)
(3 3.03422e-16 0)
(3 3.18047e-16 0)
(3 -6.00134e-16 0)
(3.00036 3.46036e-05 0)
(1.18055 0.175162 0)
(0.731256 0.152245 0)
(0.671764 0.160956 0)
(0.613215 0.172089 0)
(0.553111 0.183061 0)
(0.491965 0.196314 0)
(0.428195 0.211396 0)
(0.36074 0.229356 0)
(0.288305 0.247887 0)
(0.212391 0.271914 0)
(0.129003 0.287872 0)
(0.046163 0.309969 0)
(3 2.42777e-17 0)
(3 -7.30948e-17 0)
(3 -2.00237e-16 0)
(3 -5.19353e-16 0)
(3 -1.19501e-15 0)
(3 -1.22525e-15 0)
(3 -1.14543e-15 0)
(3 -5.50927e-16 0)
(3 1.33826e-16 0)
(3 1.32956e-16 0)
(3 -1.31316e-16 0)
(3 -7.28604e-08 0)
(1.31956 0.224741 0)
(0.744435 0.199302 0)
(0.676971 0.208979 0)
(0.621868 0.222686 0)
(0.565039 0.235893 0)
(0.507913 0.252666 0)
(0.448009 0.272593 0)
(0.384569 0.297231 0)
(0.314573 0.321809 0)
(0.23974 0.35361 0)
(0.150281 0.378401 0)
(0.0569082 0.408454 0)
(3 -1.08311e-16 0)
(3 5.19103e-17 0)
(3 1.90292e-16 0)
(3 1.43318e-16 0)
(3 -1.39882e-16 0)
(3 -3.81055e-16 0)
(3 -7.24852e-16 0)
(3 -1.20556e-15 0)
(3 -1.52955e-15 0)
(3 -1.39378e-15 0)
(3 -1.05902e-15 0)
(3 -1.37817e-08 0)
(1.52924 0.272894 0)
(0.767572 0.253432 0)
(0.681907 0.256804 0)
(0.628625 0.27085 0)
(0.575313 0.285372 0)
(0.523941 0.30527 0)
(0.470156 0.329955 0)
(0.412195 0.362877 0)
(0.342274 0.398673 0)
(0.262523 0.446001 0)
(0.165493 0.489939 0)
(0.056182 0.529916 0)
(3 1.89647e-17 0)
(3 -2.54895e-16 0)
(3 1.13391e-16 0)
(3 2.99848e-16 0)
(3 3.40468e-16 0)
(3 -3.22315e-16 0)
(3 -4.02806e-16 0)
(3 -6.71711e-16 0)
(3 -1.32785e-15 0)
(3 -1.11374e-15 0)
(3 -9.39512e-16 0)
(3 -1.69695e-09 0)
(1.82584 0.321841 0)
(0.802119 0.32154 0)
(0.687165 0.31194 0)
(0.633019 0.321012 0)
(0.581373 0.33446 0)
(0.534993 0.3559 0)
(0.487972 0.384843 0)
(0.441487 0.42711 0)
(0.383327 0.47742 0)
(0.320269 0.538962 0)
(0.232828 0.601735 0)
(0.102406 0.671854 0)
(3 4.53551e-17 0)
(3 -1.76213e-16 0)
(3 -1.88625e-16 0)
(3 -1.08595e-16 0)
(3 -9.68538e-17 0)
(3 1.19557e-16 0)
(3 2.08487e-17 0)
(3 1.69821e-16 0)
(3 2.21926e-16 0)
(3 -6.68433e-17 0)
(3 -5.66716e-16 0)
(3 -9.77455e-11 0)
(2.25132 0.346 0)
(0.872971 0.404092 0)
(0.726155 0.368166 0)
(0.674791 0.376382 0)
(0.621547 0.385207 0)
(0.574179 0.403841 0)
(0.529913 0.434025 0)
(0.489565 0.48039 0)
(0.446769 0.540723 0)
(0.392181 0.629464 0)
(0.282404 0.761088 0)
(0.158351 0.940835 0)
(3 -1.36266e-16 0)
(3 -1.00717e-16 0)
(3 -5.28707e-16 0)
(3 -6.38975e-16 0)
(3 -4.15822e-16 0)
(3 -2.24086e-16 0)
(3 -1.29899e-16 0)
(3 2.87983e-17 0)
(3 -8.28109e-17 0)
(3 -5.41051e-16 0)
(3 -5.69979e-16 0)
(3 -1.20454e-12 0)
(2.8187 0.226057 0)
(1.02767 0.463592 0)
(0.815197 0.396449 0)
(0.765946 0.412092 0)
(0.70352 0.430386 0)
(0.646318 0.45033 0)
(0.598361 0.480063 0)
(0.55803 0.527595 0)
(0.525778 0.6016 0)
(0.49804 0.727411 0)
(0.47941 0.912974 0)
(0.600642 1.22874 0)
(3 1.9149e-16 0)
(3 2.6654e-16 0)
(3 -1.24945e-16 0)
(3 9.26032e-18 0)
(3 3.06469e-16 0)
(3 3.13617e-16 0)
(3 2.8186e-16 0)
(3 5.82817e-16 0)
(3 5.83342e-16 0)
(3 2.42637e-16 0)
(3 4.79724e-16 0)
(3 -3.01225e-15 0)
(3.05681 0.0210049 0)
(1.23984 0.447953 0)
(0.863651 0.43953 0)
(0.827016 0.477219 0)
(0.778053 0.490361 0)
(0.725829 0.505671 0)
(0.679696 0.531441 0)
(0.640195 0.574419 0)
(0.624046 0.650361 0)
(0.627172 0.780412 0)
(0.701288 0.935806 0)
(0.985325 1.12722 0)
(3 3.35936e-16 0)
(3 4.05036e-16 0)
(3 7.40582e-16 0)
(3 1.14695e-15 0)
(3 1.17372e-15 0)
(3 1.58514e-15 0)
(3 1.67346e-15 0)
(3 1.20841e-15 0)
(3 1.09112e-15 0)
(3 9.63615e-16 0)
(3 1.27788e-15 0)
(3 3.29302e-16 0)
(3.00323 3.22075e-05 0)
(1.47819 0.449014 0)
(0.858017 0.490976 0)
(0.817351 0.514871 0)
(0.791271 0.537945 0)
(0.767171 0.559227 0)
(0.744014 0.586686 0)
(0.721291 0.621261 0)
(0.725355 0.684396 0)
(0.756234 0.78959 0)
(0.88285 0.910028 0)
(1.16154 1.01635 0)
(3 1.79581e-17 0)
(3 1.91351e-16 0)
(3 4.81991e-16 0)
(3 8.11243e-17 0)
(3 1.20728e-16 0)
(3 2.96886e-16 0)
(3 7.55982e-16 0)
(3 2.81566e-17 0)
(3 -2.44501e-16 0)
(3 5.58495e-17 0)
(3 7.27575e-16 0)
(3 -6.98032e-17 0)
(3.00001 -6.33938e-07 0)
(2.00323 0.480256 0)
(0.910405 0.549507 0)
(0.827579 0.536286 0)
(0.817709 0.557142 0)
(0.808551 0.582188 0)
(0.807429 0.613249 0)
(0.803394 0.64421 0)
(0.820496 0.694685 0)
(0.871683 0.774182 0)
(1.01188 0.862922 0)
(1.23889 0.913705 0)
(3 -1.53065e-16 0)
(3 3.0267e-16 0)
(3 -3.43551e-16 0)
(3 -9.5656e-16 0)
(3 -8.27485e-16 0)
(3 -8.39987e-16 0)
(3 -9.30897e-16 0)
(3 -1.16295e-15 0)
(3 -1.31239e-15 0)
(3 -1.19644e-15 0)
(3 -1.05963e-15 0)
(3 -9.43841e-16 0)
(3 -5.17439e-07 0)
(2.77013 0.297901 0)
(1.08151 0.599492 0)
(0.895483 0.545915 0)
(0.869016 0.565359 0)
(0.857073 0.592662 0)
(0.863323 0.627043 0)
(0.875159 0.661613 0)
(0.904416 0.702896 0)
(0.967495 0.754054 0)
(1.09821 0.813963 0)
(1.28014 0.828475 0)
(3 4.83345e-17 0)
(3 -4.42783e-16 0)
(3 -6.46566e-16 0)
(3 1.14744e-16 0)
(3 4.03075e-16 0)
(3 -3.77022e-16 0)
(3 -1.04912e-15 0)
(3 -1.03569e-15 0)
(3 -5.99504e-16 0)
(3 -9.99792e-16 0)
(3 -1.0374e-15 0)
(3 -7.22425e-16 0)
(3 -9.61203e-08 0)
(3.06951 0.0246322 0)
(1.36553 0.577855 0)
(0.959001 0.602444 0)
(0.92474 0.598649 0)
(0.904937 0.609634 0)
(0.906356 0.630456 0)
(0.927668 0.658395 0)
(0.968668 0.69074 0)
(1.03772 0.725702 0)
(1.14478 0.754365 0)
(1.28354 0.74699 0)
(3 3.31299e-18 0)
(3 -6.34285e-17 0)
(3 -6.80037e-17 0)
(3 3.06952e-16 0)
(3 5.19057e-16 0)
(3 2.83285e-16 0)
(3 -9.03208e-17 0)
(3 6.16206e-16 0)
(3 9.11344e-16 0)
(3 7.80418e-16 0)
(3 6.34033e-16 0)
(3 -1.34295e-17 0)
(3 -8.1724e-09 0)
(3.00368 4.6668e-05 0)
(1.76361 0.562708 0)
(0.97068 0.643569 0)
(0.934395 0.627751 0)
(0.932161 0.629633 0)
(0.940031 0.637718 0)
(0.967734 0.651095 0)
(1.01429 0.67467 0)
(1.08596 0.696039 0)
(1.17363 0.70219 0)
(1.28099 0.688885 0)
(3 2.99329e-17 0)
(3 6.10611e-16 0)
(3 1.16876e-15 0)
(3 4.42364e-16 0)
(3 6.98347e-17 0)
(3 3.62628e-16 0)
(3 7.6512e-16 0)
(3 6.06029e-16 0)
(3 7.03893e-16 0)
(3 1.10418e-15 0)
(3 8.44723e-16 0)
(3 8.71301e-16 0)
(3 -1.96745e-10 0)
(3.00001 -5.18672e-07 0)
(2.5806 0.394146 0)
(1.0888 0.662102 0)
(0.965039 0.627895 0)
(0.967541 0.619572 0)
(0.978855 0.624738 0)
(1.00577 0.631635 0)
(1.047 0.641096 0)
(1.10986 0.650801 0)
(1.17731 0.644941 0)
(1.25968 0.63096 0)
(3 2.73334e-17 0)
(3 1.3312e-16 0)
(3 3.56594e-16 0)
(3 -2.87226e-17 0)
(3 -5.61439e-17 0)
(3 1.98047e-16 0)
(3 3.7368e-16 0)
(3 2.31198e-16 0)
(3 4.86257e-16 0)
(3 1.03002e-15 0)
(3 1.31375e-15 0)
(3 2.28616e-15 0)
(3 -3.25183e-13 0)
(3 -5.25089e-07 0)
(3.07578 0.0457267 0)
(1.35594 0.629994 0)
(1.00217 0.630051 0)
(0.996229 0.624481 0)
(1.01249 0.623899 0)
(1.03968 0.628605 0)
(1.07797 0.629152 0)
(1.13357 0.628827 0)
(1.18816 0.615037 0)
(1.25524 0.598466 0)
(3 5.57013e-17 0)
(3 -1.86606e-17 0)
(3 -2.30891e-17 0)
(3 5.56584e-16 0)
(3 1.09147e-15 0)
(3 1.14678e-15 0)
(3 5.27281e-16 0)
(3 6.06712e-16 0)
(3 8.7586e-16 0)
(3 8.52976e-16 0)
(3 5.74159e-16 0)
(3 6.49832e-16 0)
(3 6.45255e-16 0)
(3 -9.88238e-08 0)
(3.00677 0.000225613 0)
(1.68833 0.589427 0)
(0.986359 0.651853 0)
(0.976518 0.620575 0)
(1.00866 0.605212 0)
(1.05077 0.605358 0)
(1.09031 0.600031 0)
(1.14117 0.596136 0)
(1.1896 0.580887 0)
(1.24626 0.563883 0)
(3 6.06059e-17 0)
(3 -2.33957e-16 0)
(3 -6.07039e-17 0)
(3 4.20171e-16 0)
(3 5.9714e-16 0)
(3 4.20314e-16 0)
(3 2.44355e-16 0)
(3 3.24265e-16 0)
(3 1.66695e-17 0)
(3 -1.33596e-16 0)
(3 -1.95118e-16 0)
(3 -1.85349e-16 0)
(3 1.18066e-16 0)
(3 -7.21962e-09 0)
(3.00003 -1.06017e-06 0)
(2.44058 0.454842 0)
(1.04641 0.638111 0)
(0.982277 0.589224 0)
(1.02861 0.586019 0)
(1.072 0.590088 0)
(1.1085 0.584521 0)
(1.15251 0.576097 0)
(1.19643 0.55931 0)
(1.24544 0.539041 0)
(3 -7.98666e-18 0)
(3 -4.36203e-16 0)
(3 -6.96061e-16 0)
(3 -1.03032e-15 0)
(3 -1.17115e-15 0)
(3 -1.00075e-15 0)
(3 -8.92217e-16 0)
(3 -4.39647e-16 0)
(3 -2.68466e-16 0)
(3 -5.06451e-16 0)
(3 -3.22913e-16 0)
(3 -5.42411e-16 0)
(3 -7.53023e-16 0)
(3 -2.66879e-11 0)
(3 -1.1492e-06 0)
(3.0498 0.0795525 0)
(1.2523 0.571411 0)
(1.00261 0.563629 0)
(1.04375 0.56453 0)
(1.07691 0.564106 0)
(1.11187 0.556698 0)
(1.15392 0.547256 0)
(1.19877 0.53326 0)
(1.24569 0.515566 0)
(3 -6.01965e-17 0)
(3 1.02696e-16 0)
(3 -3.27694e-16 0)
(3 -5.30207e-16 0)
(3 -6.02534e-16 0)
(3 -4.6964e-16 0)
(3 1.4548e-16 0)
(3 6.35155e-16 0)
(3 1.27999e-16 0)
(3 -2.57406e-17 0)
(3 -1.07867e-17 0)
(3 -4.24079e-16 0)
(3 -7.62234e-16 0)
(3 -3.63748e-14 0)
(3 -2.11296e-07 0)
(3.01181 0.00132126 0)
(1.40317 0.497231 0)
(0.963417 0.56135 0)
(1.00193 0.551353 0)
(1.04358 0.53665 0)
(1.08983 0.522876 0)
(1.13785 0.512617 0)
(1.18629 0.500699 0)
(1.23433 0.485576 0)
(3 1.11368e-17 0)
(3 -1.32979e-17 0)
(3 -7.96836e-18 0)
(3 -3.03635e-16 0)
(3 -5.18341e-16 0)
(3 -3.57469e-16 0)
(3 5.47863e-16 0)
(3 4.50687e-16 0)
(3 -7.91331e-17 0)
(3 1.42268e-16 0)
(3 5.04407e-16 0)
(3 5.76644e-17 0)
(3 -7.29842e-16 0)
(3 1.17534e-15 0)
(3 -1.48186e-08 0)
(3.00008 -1.36655e-06 0)
(1.7873 0.460581 0)
(0.926014 0.524707 0)
(0.929318 0.497183 0)
(0.989898 0.490345 0)
(1.04899 0.484654 0)
(1.10368 0.478485 0)
(1.15634 0.468822 0)
(1.2069 0.455497 0)
(3 4.28136e-18 0)
(3 -2.25451e-16 0)
(3 1.6104e-16 0)
(3 2.66355e-17 0)
(3 -1.62481e-17 0)
(3 -4.20945e-18 0)
(3 -1.35911e-16 0)
(3 -7.63524e-16 0)
(3 -9.02439e-16 0)
(3 -2.58922e-16 0)
(3 -2.25506e-16 0)
(3 -3.73441e-16 0)
(3 -3.06889e-16 0)
(3 1.18348e-15 0)
(3 -6.08261e-11 0)
(3 -1.45413e-06 0)
(2.37419 0.390568 0)
(0.97309 0.503977 0)
(0.912773 0.44693 0)
(0.97119 0.441657 0)
(1.02068 0.442934 0)
(1.0723 0.440837 0)
(1.12509 0.434026 0)
(1.17704 0.423509 0)
(3 -1.67953e-16 0)
(3 -1.00931e-17 0)
(3 4.1445e-17 0)
(3 3.23778e-16 0)
(3 4.0905e-16 0)
(3 3.23681e-16 0)
(3 -3.69476e-16 0)
(3 -8.00682e-16 0)
(3 -7.6181e-16 0)
(3 -4.62375e-16 0)
(3 -1.03182e-16 0)
(3 -2.03945e-17 0)
(3 -4.85236e-16 0)
(3 3.98016e-16 0)
(3 -6.61989e-14 0)
(3 -3.02878e-07 0)
(2.9284 0.143256 0)
(1.11719 0.472463 0)
(0.936563 0.41882 0)
(0.98615 0.414239 0)
(1.02255 0.410242 0)
(1.06479 0.404326 0)
(1.11038 0.396618 0)
(1.15742 0.387476 0)
(3 7.30007e-17 0)
(3 2.07067e-16 0)
(3 8.15671e-17 0)
(3 -2.8459e-17 0)
(3 -8.9104e-18 0)
(3 -7.97536e-17 0)
(3 -3.11324e-16 0)
(3 -5.06876e-16 0)
(3 -4.51744e-16 0)
(3 -7.69306e-16 0)
(3 -7.48428e-16 0)
(3 -8.13883e-16 0)
(3 -8.28007e-16 0)
(3 -4.14338e-16 0)
(3 -6.1978e-16 0)
(3 -2.48983e-08 0)
(3.02499 0.00875244 0)
(1.2129 0.366664 0)
(0.917738 0.386093 0)
(0.967397 0.384273 0)
(1.00224 0.380187 0)
(1.04032 0.373127 0)
(1.08144 0.365482 0)
(1.12502 0.356666 0)
(3 1.43643e-16 0)
(3 -1.64817e-18 0)
(3 -1.53638e-16 0)
(3 -5.63391e-16 0)
(3 -6.94604e-16 0)
(3 -1.11583e-15 0)
(3 -1.07813e-15 0)
(3 -7.69632e-16 0)
(3 -7.14856e-16 0)
(3 -7.96938e-16 0)
(3 -1.29064e-15 0)
(3 -1.25848e-15 0)
(3 -8.94455e-16 0)
(3 -1.14488e-15 0)
(3 -7.62918e-16 0)
(3 -5.82227e-10 0)
(3.00059 2.07451e-05 0)
(1.32161 0.323449 0)
(0.860987 0.367913 0)
(0.903702 0.363863 0)
(0.947232 0.358479 0)
(0.989148 0.348501 0)
(1.03177 0.338628 0)
(1.07535 0.327899 0)
(3 9.294e-17 0)
(3 -2.4195e-16 0)
(3 -2.51739e-16 0)
(3 1.27601e-16 0)
(3 3.18536e-17 0)
(3 -4.87342e-16 0)
(3 -5.97299e-16 0)
(3 -5.03145e-16 0)
(3 -3.00695e-16 0)
(3 -9.42553e-16 0)
(3 -9.78902e-16 0)
(3 -5.52672e-16 0)
(3 -7.42775e-16 0)
(3 -9.65385e-16 0)
(3 -2.76271e-16 0)
(3 -3.92024e-12 0)
(3 -4.955e-08 0)
(1.52582 0.325592 0)
(0.840634 0.330467 0)
(0.84668 0.326137 0)
(0.890833 0.327128 0)
(0.931908 0.322253 0)
(0.975204 0.315112 0)
(1.01845 0.305197 0)
(3 5.53689e-17 0)
(3 -6.64642e-18 0)
(3 2.92261e-16 0)
(3 5.43494e-16 0)
(3 4.59967e-16 0)
(3 2.80522e-16 0)
(3 9.89295e-17 0)
(3 -2.8592e-17 0)
(3 -1.36655e-17 0)
(3 -6.44114e-16 0)
(3 -1.11308e-15 0)
(3 -9.50394e-16 0)
(3 -5.84934e-17 0)
(3 1.67284e-16 0)
(3 1.75278e-16 0)
(3 -2.21474e-15 0)
(3 -3.12159e-08 0)
(1.79997 0.337161 0)
(0.851624 0.318147 0)
(0.826525 0.298639 0)
(0.867072 0.2939 0)
(0.903271 0.286893 0)
(0.944794 0.2806 0)
(0.986098 0.272582 0)
(3 1.74483e-16 0)
(3 2.87344e-16 0)
(3 2.91071e-16 0)
(3 3.38211e-16 0)
(3 3.77371e-16 0)
(3 6.24359e-16 0)
(3 6.13658e-16 0)
(3 3.41586e-16 0)
(3 -4.14702e-16 0)
(3 -3.06855e-16 0)
(3 -2.93154e-16 0)
(3 3.5253e-16 0)
(3 8.59866e-16 0)
(3 6.6253e-16 0)
(3 -1.13074e-16 0)
(3 -7.24668e-16 0)
(3 -5.38569e-09 0)
(2.14537 0.318424 0)
(0.88404 0.311463 0)
(0.832703 0.26993 0)
(0.880097 0.259449 0)
(0.913751 0.252284 0)
(0.951282 0.247445 0)
(0.988231 0.240969 0)
(3 1.94222e-18 0)
(3 -1.18793e-17 0)
(3 1.67592e-16 0)
(3 -2.04821e-17 0)
(3 2.74683e-16 0)
(3 2.89308e-16 0)
(3 8.61368e-16 0)
(3 9.57467e-16 0)
(3 7.46562e-16 0)
(3 1.12455e-15 0)
(3 1.2691e-15 0)
(3 1.29089e-15 0)
(3 1.44381e-15 0)
(3 1.44906e-15 0)
(3 8.11564e-16 0)
(3 5.37133e-16 0)
(3 -4.06035e-10 0)
(2.52786 0.256482 0)
(0.95175 0.28955 0)
(0.857307 0.2502 0)
(0.905461 0.244104 0)
(0.934797 0.236283 0)
(0.966882 0.229572 0)
(0.998871 0.222098 0)
(3 -2.96236e-16 0)
(3 -2.4161e-16 0)
(3 3.0511e-16 0)
(3 -8.58449e-17 0)
(3 -3.10486e-16 0)
(3 -6.09995e-17 0)
(3 8.14212e-16 0)
(3 1.39316e-15 0)
(3 1.7268e-15 0)
(3 2.04967e-15 0)
(3 1.86962e-15 0)
(3 1.25176e-15 0)
(3 8.60359e-16 0)
(3 9.16375e-16 0)
(3 4.85381e-16 0)
(3 5.77064e-16 0)
(3 -9.26949e-12 0)
(2.83351 0.119201 0)
(1.03218 0.23674 0)
(0.859434 0.220802 0)
(0.906394 0.219536 0)
(0.934934 0.213689 0)
(0.965032 0.207369 0)
(0.995644 0.200736 0)
(3 -7.54622e-19 0)
(3 1.42636e-16 0)
(3 -1.38746e-16 0)
(3 2.45869e-16 0)
(3 -2.92109e-17 0)
(3 5.1208e-16 0)
(3 4.16908e-16 0)
(3 9.27383e-16 0)
(3 7.58286e-16 0)
(3 9.257e-16 0)
(3 1.03416e-15 0)
(3 9.04832e-16 0)
(3 3.04767e-16 0)
(3 2.0486e-16 0)
(3 1.08487e-15 0)
(3 1.71983e-15 0)
(3 -7.42767e-14 0)
(2.91188 0.0290463 0)
(1.05056 0.1852 0)
(0.828579 0.195836 0)
(0.875802 0.195729 0)
(0.908832 0.193425 0)
(0.942207 0.188502 0)
(0.974899 0.182092 0)
(3 1.28661e-16 0)
(3 4.79112e-17 0)
(3 -2.87074e-16 0)
(3 3.20717e-16 0)
(3 5.33244e-16 0)
(3 1.75504e-16 0)
(3 -5.31972e-16 0)
(3 -7.27379e-16 0)
(3 -5.44203e-16 0)
(3 6.25265e-17 0)
(3 8.17053e-16 0)
(3 7.27688e-16 0)
(3 5.6991e-16 0)
(3 9.53043e-16 0)
(3 1.70343e-15 0)
(3 2.49783e-15 0)
(3 2.00799e-15 0)
(2.93798 0.0159871 0)
(1.05963 0.171296 0)
(0.794815 0.172327 0)
(0.837532 0.171284 0)
(0.873853 0.171003 0)
(0.911061 0.167285 0)
(0.947038 0.161692 0)
(3 -5.27588e-17 0)
(3 1.82218e-17 0)
(3 3.19827e-16 0)
(3 2.60029e-17 0)
(3 4.27661e-16 0)
(3 -1.02607e-16 0)
(3 -7.49264e-16 0)
(3 -1.05053e-15 0)
(3 -4.70486e-16 0)
(3 -2.28607e-17 0)
(3 -1.20492e-16 0)
(3 -1.39204e-16 0)
(3 -2.87931e-18 0)
(3 7.48125e-16 0)
(3 1.12121e-15 0)
(3 1.16458e-15 0)
(3 1.40898e-15 0)
(2.98215 0.00712799 0)
(1.09616 0.157436 0)
(0.796451 0.143217 0)
(0.830542 0.141447 0)
(0.863294 0.142931 0)
(0.896573 0.140464 0)
(0.929906 0.137712 0)
(3 6.89752e-17 0)
(3 -2.12534e-17 0)
(3 -4.86478e-17 0)
(3 -2.06276e-16 0)
(3 -1.00865e-16 0)
(3 -4.5876e-16 0)
(3 -2.50401e-16 0)
(3 -1.16973e-16 0)
(3 1.7451e-16 0)
(3 1.82139e-16 0)
(3 -6.35991e-16 0)
(3 -8.9856e-16 0)
(3 -1.1159e-15 0)
(3 -1.08546e-15 0)
(3 -7.33686e-16 0)
(3 3.28926e-17 0)
(3 1.41549e-15 0)
(2.9998 0.000586037 0)
(1.15771 0.140128 0)
(0.799481 0.12254 0)
(0.822843 0.11877 0)
(0.854873 0.120315 0)
(0.88582 0.118072 0)
(0.918633 0.115799 0)
(3 5.46107e-17 0)
(3 -8.13125e-17 0)
(3 -4.85579e-16 0)
(3 -3.20928e-16 0)
(3 -3.30932e-16 0)
(3 2.36967e-16 0)
(3 4.77001e-16 0)
(3 4.58273e-16 0)
(3 4.0791e-16 0)
(3 -3.49624e-16 0)
(3 -9.44954e-16 0)
(3 -2.87478e-16 0)
(3 8.67035e-16 0)
(3 -1.53997e-16 0)
(3 -8.07765e-16 0)
(3 -2.33874e-16 0)
(3 2.66265e-16 0)
(3 1.6643e-06 0)
(1.23276 0.12224 0)
(0.806125 0.103513 0)
(0.820273 0.0974358 0)
(0.855712 0.0977156 0)
(0.885786 0.0955739 0)
(0.918389 0.0935118 0)
(3 -1.53462e-16 0)
(3 1.08031e-16 0)
(3 2.9596e-16 0)
(3 4.97778e-16 0)
(3 3.26509e-16 0)
(3 7.69995e-16 0)
(3 1.34624e-15 0)
(3 1.33687e-15 0)
(3 4.07388e-16 0)
(3 -7.98226e-16 0)
(3 -8.28426e-16 0)
(3 -1.99328e-16 0)
(3 4.48276e-16 0)
(3 1.40517e-15 0)
(3 1.58577e-15 0)
(3 1.40565e-15 0)
(3 -1.65432e-16 0)
(3 6.8417e-10 0)
(1.30133 0.0972853 0)
(0.807928 0.0814544 0)
(0.81742 0.0765991 0)
(0.855884 0.0761251 0)
(0.885264 0.0743914 0)
(0.917276 0.0725625 0)
(3 5.14995e-17 0)
(3 3.06839e-16 0)
(3 1.06228e-15 0)
(3 1.10989e-15 0)
(3 1.21338e-15 0)
(3 7.15191e-16 0)
(3 3.99886e-16 0)
(3 -7.2009e-17 0)
(3 -5.86544e-16 0)
(3 -1.21648e-16 0)
(3 9.15494e-16 0)
(3 4.01462e-16 0)
(3 -3.39819e-16 0)
(3 3.88455e-16 0)
(3 2.11754e-15 0)
(3 1.93054e-15 0)
(3 -3.20215e-18 0)
(3 2.10905e-14 0)
(1.35787 0.069636 0)
(0.808928 0.0578692 0)
(0.817 0.0554033 0)
(0.857432 0.0544662 0)
(0.887058 0.0532366 0)
(0.919134 0.0518527 0)
(3 5.58541e-16 0)
(3 3.64437e-16 0)
(3 3.12753e-16 0)
(3 1.52342e-16 0)
(3 2.28711e-16 0)
(3 2.56825e-16 0)
(3 -2.70986e-16 0)
(3 -6.76728e-16 0)
(3 -1.77505e-16 0)
(3 7.95567e-16 0)
(3 1.61794e-15 0)
(3 1.99807e-15 0)
(3 1.44129e-15 0)
(3 8.05439e-16 0)
(3 9.21213e-16 0)
(3 4.87745e-16 0)
(3 6.48598e-17 0)
(3 -8.67632e-15 0)
(1.39751 0.038795 0)
(0.810334 0.0337319 0)
(0.817168 0.0331006 0)
(0.858079 0.0325327 0)
(0.887472 0.0318154 0)
(0.919082 0.0309595 0)
(3 2.01625e-16 0)
(3 8.96735e-17 0)
(3 -7.74863e-17 0)
(3 -1.72362e-16 0)
(3 -2.95903e-16 0)
(3 -4.54498e-16 0)
(3 -4.14894e-16 0)
(3 -1.64248e-16 0)
(3 2.13066e-16 0)
(3 5.30552e-16 0)
(3 4.61027e-16 0)
(3 7.83872e-16 0)
(3 1.1232e-15 0)
(3 8.49902e-16 0)
(3 7.66421e-16 0)
(3 3.94299e-16 0)
(3 2.86482e-16 0)
(3 -3.33674e-15 0)
(1.40892 0.00870471 0)
(0.805278 0.00958732 0)
(0.810464 0.0109265 0)
(0.851185 0.0113633 0)
(0.880968 0.0114196 0)
(0.913123 0.0111059 0)
(1.21649 1.37004 0)
(0.22413 0.648277 0)
(-0.0194037 0.107696 0)
(0.022325 0.00401515 0)
(0.0455785 0.010351 0)
(0.0422532 0.0258393 0)
(0.0178131 0.0298162 0)
(-0.0065215 0.0219096 0)
(-0.026983 0.00691842 0)
(-0.0409687 -0.00448822 0)
(-0.0444165 -0.0123952 0)
(-0.0426705 -0.0139837 0)
(-0.0408643 -0.0116465 0)
(-0.0377847 -0.00751037 0)
(-0.0328817 -0.00402571 0)
(-0.0264686 -0.00132597 0)
(-0.0194662 0.000372641 0)
(-0.00924687 -6.14764e-06 0)
(0.00442725 -0.00179058 0)
(0.0207566 -0.00510306 0)
(0.0377935 -0.00869803 0)
(0.0542457 -0.0124335 0)
(0.0708159 -0.0156505 0)
(0.0887168 -0.017513 0)
(0.109911 -0.0187721 0)
(0.135481 -0.0205822 0)
(0.166339 -0.0233377 0)
(0.201468 -0.0270707 0)
(0.238643 -0.0318282 0)
(0.275442 -0.0366305 0)
(0.311187 -0.0398542 0)
(0.345742 -0.0407857 0)
(0.379549 -0.0406003 0)
(0.413999 -0.0397615 0)
(0.450062 -0.0387107 0)
(0.488132 -0.0375176 0)
(0.527752 -0.0361889 0)
(0.567999 -0.0346948 0)
(0.608064 -0.0333637 0)
(0.647569 -0.032709 0)
(0.686604 -0.0329577 0)
(0.724957 -0.0337167 0)
(0.761566 -0.034304 0)
(0.795968 -0.0341803 0)
(0.82828 -0.0332438 0)
(0.859113 -0.031415 0)
(0.889322 -0.029026 0)
(0.920075 -0.0266336 0)
(0.952068 -0.0245625 0)
(0.984782 -0.0227866 0)
(1.01703 -0.0213493 0)
(1.04809 -0.0205211 0)
(1.07798 -0.0204796 0)
(1.10726 -0.0210348 0)
(1.13604 -0.0216694 0)
(1.16325 -0.0220608 0)
(1.18796 -0.0217307 0)
(1.21049 -0.0206505 0)
(1.23146 -0.0189322 0)
(1.25193 -0.016851 0)
(1.27302 -0.0147807 0)
(1.29522 -0.0127516 0)
(1.31808 -0.0110177 0)
(1.34081 -0.00967605 0)
(1.36276 -0.00837292 0)
(1.38391 -0.00740549 0)
(1.40485 -0.00699481 0)
(1.42542 -0.00695742 0)
(1.44328 -0.00696506 0)
(1.45804 -0.00710646 0)
(1.47183 -0.00731677 0)
(1.48559 -0.00764758 0)
(1.50006 -0.00802959 0)
(1.51548 -0.00808807 0)
(1.53125 -0.00777838 0)
(1.54623 -0.00705853 0)
(1.56082 -0.00586703 0)
(1.57561 -0.00449509 0)
(1.59155 -0.00302932 0)
(1.60881 -0.00141127 0)
(1.62276 -0.000270489 0)
(1.63471 0.00028271 0)
(1.64543 0.00103409 0)
(1.65463 0.00139833 0)
(1.66409 0.00110201 0)
(1.67487 0.000865402 0)
(1.68614 0.00112382 0)
(1.69724 0.00226353 0)
(1.70821 0.00426333 0)
(1.71949 0.00585551 0)
(1.7316 0.0069089 0)
(1.74616 0.00701078 0)
(1.76282 0.00549355 0)
(1.77689 0.00405621 0)
(1.78465 0.00150568 0)
(1.784 -0.00195217 0)
(1.66666 1.18373 0)
(1.10613 0.675378 0)
(0.778885 0.162856 0)
(0.492076 0.0144556 0)
(0.315763 0.0345856 0)
(0.213728 0.0687521 0)
(0.144602 0.0493839 0)
(0.102189 0.00695838 0)
(0.0785709 -0.0224037 0)
(0.0673621 -0.0318359 0)
(0.0679042 -0.0275007 0)
(0.0670084 -0.0175258 0)
(0.065075 -0.00499247 0)
(0.0602565 0.00805353 0)
(0.0583999 0.0152209 0)
(0.0622204 0.017808 0)
(0.0692566 0.0189621 0)
(0.0820207 0.0160502 0)
(0.0981235 0.0111191 0)
(0.114827 0.00428747 0)
(0.132721 -0.00160605 0)
(0.152641 -0.00812218 0)
(0.175336 -0.0152256 0)
(0.200946 -0.0218467 0)
(0.228754 -0.0253017 0)
(0.258479 -0.0249927 0)
(0.290318 -0.0241391 0)
(0.324711 -0.0259986 0)
(0.361734 -0.031131 0)
(0.401115 -0.039547 0)
(0.44112 -0.0502001 0)
(0.479849 -0.0594048 0)
(0.515474 -0.0630848 0)
(0.548399 -0.0623452 0)
(0.581071 -0.0597465 0)
(0.615578 -0.0565614 0)
(0.652562 -0.0528145 0)
(0.691119 -0.0477291 0)
(0.729492 -0.0409848 0)
(0.7662 -0.0337763 0)
(0.800147 -0.0286569 0)
(0.831924 -0.0280193 0)
(0.863061 -0.0322487 0)
(0.89491 -0.0384108 0)
(0.926185 -0.0427314 0)
(0.955621 -0.0431549 0)
(0.98292 -0.0397363 0)
(1.00933 -0.0343091 0)
(1.03661 -0.0288014 0)
(1.06565 -0.0240395 0)
(1.09603 -0.0196422 0)
(1.12603 -0.0151043 0)
(1.15375 -0.0110762 0)
(1.17869 -0.00935288 0)
(1.20182 -0.0116278 0)
(1.22491 -0.0170602 0)
(1.2485 -0.0235634 0)
(1.27064 -0.0280667 0)
(1.29054 -0.0292338 0)
(1.30898 -0.0276035 0)
(1.32733 -0.0240815 0)
(1.34636 -0.0199991 0)
(1.366 -0.0158753 0)
(1.38595 -0.0125502 0)
(1.40585 -0.00929636 0)
(1.42547 -0.00613652 0)
(1.44462 -0.00398424 0)
(1.46325 -0.00410976 0)
(1.48019 -0.00544512 0)
(1.49434 -0.00570039 0)
(1.50739 -0.00592564 0)
(1.51941 -0.00697783 0)
(1.53203 -0.00918686 0)
(1.54571 -0.0125066 0)
(1.56046 -0.0163515 0)
(1.57527 -0.0191595 0)
(1.5898 -0.0198719 0)
(1.60453 -0.0187253 0)
(1.62032 -0.0160577 0)
(1.63646 -0.0132812 0)
(1.64979 -0.0117648 0)
(1.6616 -0.0105086 0)
(1.67202 -0.0087596 0)
(1.67983 -0.006991 0)
(1.68637 -0.00655776 0)
(1.69581 -0.00759595 0)
(1.70665 -0.00880124 0)
(1.71819 -0.00889882 0)
(1.73005 -0.0064573 0)
(1.74219 -0.00101573 0)
(1.7547 0.00599996 0)
(1.7681 0.012543 0)
(1.78088 0.0151108 0)
(1.79212 0.0142514 0)
(1.79822 0.00855379 0)
(1.7985 -0.00383152 0)
(1.6301 1.03848 0)
(1.45434 0.900153 0)
(1.41054 0.65929 0)
(1.15134 0.466232 0)
(0.876262 0.307193 0)
(0.691025 0.178217 0)
(0.569913 0.0854224 0)
(0.496178 0.0321115 0)
(0.44929 0.0160446 0)
(0.416855 0.0204139 0)
(0.392341 0.0307929 0)
(0.376151 0.035335 0)
(0.366483 0.0359592 0)
(0.357504 0.0299269 0)
(0.349016 0.022877 0)
(0.347841 0.0126108 0)
(0.355804 -0.00269572 0)
(0.373889 -0.0193481 0)
(0.398164 -0.0320134 0)
(0.422712 -0.0390532 0)
(0.444042 -0.0501368 0)
(0.466146 -0.063321 0)
(0.492128 -0.076626 0)
(0.522971 -0.0880382 0)
(0.557956 -0.0970288 0)
(0.595425 -0.102987 0)
(0.632778 -0.104849 0)
(0.668395 -0.103512 0)
(0.703125 -0.102281 0)
(0.738282 -0.103258 0)
(0.774039 -0.106519 0)
(0.809541 -0.110779 0)
(0.843541 -0.114469 0)
(0.874039 -0.114743 0)
(0.900997 -0.111629 0)
(0.926812 -0.107424 0)
(0.953978 -0.104449 0)
(0.983456 -0.103593 0)
(1.01491 -0.103795 0)
(1.04678 -0.103012 0)
(1.0759 -0.099357 0)
(1.10089 -0.0925616 0)
(1.12241 -0.0847725 0)
(1.14288 -0.0790455 0)
(1.16378 -0.0765239 0)
(1.18565 -0.0759081 0)
(1.2075 -0.0744358 0)
(1.22806 -0.0710738 0)
(1.2481 -0.0667659 0)
(1.26906 -0.0626497 0)
(1.29155 -0.0598936 0)
(1.31551 -0.0585958 0)
(1.33935 -0.056786 0)
(1.3599 -0.0526573 0)
(1.3769 -0.0470193 0)
(1.39227 -0.0408457 0)
(1.40689 -0.0361802 0)
(1.42141 -0.0345146 0)
(1.436 -0.0342238 0)
(1.45082 -0.0338882 0)
(1.46595 -0.032666 0)
(1.48108 -0.0299692 0)
(1.49618 -0.0264125 0)
(1.51133 -0.022818 0)
(1.52652 -0.0196392 0)
(1.54185 -0.0165433 0)
(1.55723 -0.0130219 0)
(1.5717 -0.010033 0)
(1.58508 -0.00878333 0)
(1.59741 -0.00734212 0)
(1.60839 -0.00444633 0)
(1.61765 0.000229194 0)
(1.62542 0.00521614 0)
(1.63395 0.0079803 0)
(1.64523 0.0079223 0)
(1.65741 0.00556114 0)
(1.67101 0.00125497 0)
(1.68596 -0.00180823 0)
(1.70151 -0.00329412 0)
(1.71478 -0.00480542 0)
(1.72608 -0.00657618 0)
(1.73676 -0.0081091 0)
(1.74686 -0.00849294 0)
(1.75495 -0.00678091 0)
(1.75975 -0.00285619 0)
(1.76356 -0.000370669 0)
(1.77097 -0.00127228 0)
(1.78016 -0.00402831 0)
(1.79114 -0.00794744 0)
(1.80431 -0.00975608 0)
(1.81728 -0.00888833 0)
(1.82844 -0.00717921 0)
(1.83746 -0.0072908 0)
(1.84414 -0.00873744 0)
(1.84614 -0.0145257 0)
(1.84435 -0.0297445 0)
(1.51799 0.904154 0)
(1.5019 0.81853 0)
(1.6564 0.701503 0)
(1.65046 0.565042 0)
(1.4869 0.430262 0)
(1.34072 0.309238 0)
(1.21152 0.221648 0)
(1.10526 0.149638 0)
(1.02994 0.10013 0)
(0.975906 0.0720597 0)
(0.929569 0.047035 0)
(0.890605 0.0222752 0)
(0.866188 -0.006651 0)
(0.853719 -0.0319297 0)
(0.842796 -0.0456169 0)
(0.835393 -0.0526561 0)
(0.838878 -0.0561533 0)
(0.851222 -0.063203 0)
(0.871669 -0.0750382 0)
(0.89873 -0.089969 0)
(0.927611 -0.0976866 0)
(0.953155 -0.0973608 0)
(0.976152 -0.0950222 0)
(1.00055 -0.0952029 0)
(1.02951 -0.0991128 0)
(1.06338 -0.105758 0)
(1.09915 -0.112949 0)
(1.13255 -0.11766 0)
(1.1607 -0.118494 0)
(1.18418 -0.116838 0)
(1.20583 -0.114692 0)
(1.22842 -0.113287 0)
(1.253 -0.112729 0)
(1.27784 -0.111084 0)
(1.29999 -0.106356 0)
(1.31804 -0.0983956 0)
(1.33416 -0.0892282 0)
(1.35079 -0.0814162 0)
(1.36884 -0.0763973 0)
(1.38827 -0.0748405 0)
(1.40778 -0.0762313 0)
(1.42464 -0.0777322 0)
(1.43698 -0.0771116 0)
(1.44741 -0.0752199 0)
(1.45824 -0.0726697 0)
(1.47089 -0.0694459 0)
(1.48585 -0.0647424 0)
(1.50085 -0.0584739 0)
(1.51445 -0.0529432 0)
(1.52756 -0.0492699 0)
(1.54117 -0.0464702 0)
(1.55571 -0.043902 0)
(1.57151 -0.0425784 0)
(1.58539 -0.0429142 0)
(1.59657 -0.0433989 0)
(1.60663 -0.0427521 0)
(1.61502 -0.0402185 0)
(1.62306 -0.0360166 0)
(1.63178 -0.0311238 0)
(1.6412 -0.0264534 0)
(1.65213 -0.0227983 0)
(1.66425 -0.0198718 0)
(1.67623 -0.0172425 0)
(1.68768 -0.0140772 0)
(1.69869 -0.00946248 0)
(1.70907 -0.00485888 0)
(1.71891 -0.00241355 0)
(1.72805 -0.0017426 0)
(1.73659 -0.0016005 0)
(1.74506 -0.00206321 0)
(1.75335 -0.00301481 0)
(1.76096 -0.00356966 0)
(1.76746 -0.00278396 0)
(1.77337 -0.000334998 0)
(1.78097 0.0029397 0)
(1.79155 0.00669614 0)
(1.80329 0.0115133 0)
(1.81525 0.0166595 0)
(1.82632 0.0190339 0)
(1.83637 0.0197234 0)
(1.84482 0.019682 0)
(1.85288 0.017868 0)
(1.86139 0.0147922 0)
(1.86959 0.0122807 0)
(1.87659 0.0122443 0)
(1.88079 0.0159631 0)
(1.88172 0.0209468 0)
(1.88604 0.0224209 0)
(1.89473 0.0207793 0)
(1.90557 0.0156961 0)
(1.91841 0.00893463 0)
(1.929 0.00339361 0)
(1.93662 -0.00173802 0)
(1.93925 -0.0068388 0)
(1.93652 -0.0137931 0)
(1.92641 -0.0347441 0)
(1.41245 0.770011 0)
(1.45575 0.727627 0)
(1.62368 0.660583 0)
(1.73528 0.583149 0)
(1.72039 0.500353 0)
(1.68994 0.417725 0)
(1.64899 0.346205 0)
(1.58928 0.272132 0)
(1.53487 0.201282 0)
(1.49554 0.147194 0)
(1.458 0.101643 0)
(1.4179 0.0656724 0)
(1.38298 0.0359463 0)
(1.36541 0.00361481 0)
(1.36004 -0.0260713 0)
(1.35054 -0.0399474 0)
(1.34578 -0.0499689 0)
(1.3493 -0.0569858 0)
(1.35826 -0.0692754 0)
(1.37371 -0.0875918 0)
(1.39421 -0.106329 0)
(1.4131 -0.118839 0)
(1.42796 -0.125619 0)
(1.44138 -0.130664 0)
(1.45634 -0.136146 0)
(1.47441 -0.143538 0)
(1.49569 -0.152179 0)
(1.51722 -0.157707 0)
(1.53439 -0.158305 0)
(1.54573 -0.155447 0)
(1.55398 -0.151784 0)
(1.56233 -0.149333 0)
(1.57307 -0.148996 0)
(1.58673 -0.150012 0)
(1.60142 -0.149583 0)
(1.61317 -0.145255 0)
(1.62113 -0.138259 0)
(1.6281 -0.130896 0)
(1.63587 -0.12421 0)
(1.64473 -0.119332 0)
(1.65483 -0.116254 0)
(1.66559 -0.113131 0)
(1.67296 -0.108176 0)
(1.67877 -0.101511 0)
(1.68493 -0.0934359 0)
(1.69266 -0.0865505 0)
(1.70239 -0.0820936 0)
(1.71272 -0.0788743 0)
(1.72159 -0.0761208 0)
(1.72989 -0.0708667 0)
(1.73936 -0.0631185 0)
(1.74959 -0.0556409 0)
(1.75913 -0.0522746 0)
(1.76843 -0.0515911 0)
(1.77626 -0.0506834 0)
(1.783 -0.0474382 0)
(1.78962 -0.0421089 0)
(1.79626 -0.0363205 0)
(1.80234 -0.0316002 0)
(1.8077 -0.0287485 0)
(1.81496 -0.02719 0)
(1.82522 -0.0251515 0)
(1.83609 -0.0218637 0)
(1.84656 -0.0171669 0)
(1.85638 -0.0131886 0)
(1.86531 -0.00973671 0)
(1.87233 -0.0054284 0)
(1.87723 -0.000863873 0)