/*--------------------------------*- C++ -*----------------------------------*\
  =========                 |
  \\      /  F ield         | OpenFOAM: The Open Source CFD Toolbox
   \\    /   O peration     | Website:  https://openfoam.org
    \\  /    A nd           | Version:  7
     \\/     M anipulation  |
\*---------------------------------------------------------------------------*/
FoamFile
{
    version     2.0;
    format      ascii;
    class       volScalarField;
    location    "135";
    object      p;
}
// * * * * * * * * * * * * * * * * * * * * * * * * * * * * * * * * * * * * * //

dimensions      [0 2 -2 0 0 0 0];

internalField   nonuniform List<scalar> 
1987
(
-0.349667
-0.320753
-0.288002
-0.254165
-0.22198
-0.193605
-0.170345
-0.152687
-0.140535
-0.133481
-0.131033
-0.132816
-0.138727
-0.148913
-0.16341
-0.18153
-0.201379
-0.219929
-0.233707
-0.239746
-0.236397
-0.223876
-0.204232
-0.180702
-0.156656
-0.134668
-0.116175
-0.10164
-0.090942
-0.0837322
-0.0796545
-0.0784351
-0.0799396
-0.0842645
-0.0917867
-0.102944
-0.117647
-0.134631
-0.151304
-0.164353
-0.170796
-0.169043
-0.159632
-0.144827
-0.127699
-0.110976
-0.0964015
-0.084759
-0.0762235
-0.0706771
-0.0679275
-0.0679176
-0.0708746
-0.0771742
-0.0868505
-0.0990507
-0.376312
-0.37397
-0.365909
-0.351266
-0.330039
-0.303326
-0.27308
-0.24184
-0.212161
-0.186082
-0.164861
-0.149001
-0.138447
-0.132839
-0.131733
-0.134811
-0.142037
-0.153606
-0.169532
-0.189015
-0.209991
-0.229278
-0.243323
-0.24914
-0.245155
-0.231637
-0.210771
-0.185965
-0.160723
-0.137691
-0.118309
-0.103012
-0.0916387
-0.0838059
-0.079126
-0.0772996
-0.078165
-0.0817801
-0.0884751
-0.0986623
-0.112283
-0.128172
-0.143886
-0.156274
-0.162491
-0.161012
-0.152346
-0.138596
-0.122648
-0.107066
-0.0935033
-0.0827281
-0.0749398
-0.0700567
-0.067925
-0.0685336
-0.0721617
-0.0792269
-0.0897748
-0.102917
-0.351427
-0.348782
-0.341262
-0.327888
-0.308521
-0.28419
-0.256629
-0.228159
-0.201144
-0.177496
-0.158427
-0.144449
-0.135552
-0.131423
-0.131668
-0.13603
-0.144546
-0.157455
-0.174745
-0.195509
-0.217528
-0.237492
-0.251787
-0.257405
-0.252869
-0.238468
-0.216505
-0.190544
-0.164218
-0.140236
-0.120039
-0.104033
-0.092024
-0.083595
-0.0783307
-0.075908
-0.0761392
-0.0790449
-0.0849078
-0.0941127
-0.106634
-0.121413
-0.136166
-0.147906
-0.153925
-0.152753
-0.144861
-0.132182
-0.117417
-0.102972
-0.0904156
-0.0805026
-0.0734568
-0.0692317
-0.0677117
-0.0689307
-0.0732182
-0.0810341
-0.0924382
-0.106513
-0.321792
-0.314792
-0.302748
-0.28535
-0.263539
-0.238793
-0.213218
-0.188982
-0.167867
-0.151033
-0.139001
-0.131801
-0.129168
-0.130759
-0.136385
-0.146156
-0.160352
-0.178937
-0.200897
-0.223877
-0.244463
-0.259003
-0.264499
-0.259491
-0.244326
-0.221403
-0.194422
-0.167135
-0.142305
-0.121374
-0.10472
-0.0921177
-0.083123
-0.0772958
-0.0742914
-0.0738983
-0.076101
-0.081135
-0.0893562
-0.100772
-0.114436
-0.128229
-0.139334
-0.145177
-0.144331
-0.137228
-0.12562
-0.11203
-0.0987093
-0.0871477
-0.0780866
-0.0717738
-0.0681974
-0.0672788
-0.0690951
-0.0740246
-0.082569
-0.094806
-0.109796
-0.293194
-0.286995
-0.276162
-0.260798
-0.241596
-0.219739
-0.197132
-0.175746
-0.15723
-0.142686
-0.13264
-0.127158
-0.126021
-0.12894
-0.1358
-0.146783
-0.16221
-0.182014
-0.205086
-0.22895
-0.250113
-0.264905
-0.270375
-0.264977
-0.249177
-0.225441
-0.197589
-0.169474
-0.143907
-0.122327
-0.10509
-0.0919417
-0.0824151
-0.0760496
-0.0724818
-0.0714785
-0.0729902
-0.0772063
-0.084452
-0.0947667
-0.107318
-0.120155
-0.130636
-0.13632
-0.135811
-0.129498
-0.118948
-0.106513
-0.0942963
-0.0837106
-0.0754856
-0.0698923
-0.0669513
-0.0666194
-0.0690153
-0.0745636
-0.0838071
-0.0968456
-0.112726
-0.263493
-0.258133
-0.248525
-0.235175
-0.218608
-0.199654
-0.180039
-0.161531
-0.14564
-0.133408
-0.125363
-0.121599
-0.121941
-0.126162
-0.134218
-0.146366
-0.162963
-0.183911
-0.208011
-0.232687
-0.254389
-0.269448
-0.274934
-0.269287
-0.252999
-0.228608
-0.200041
-0.171239
-0.145052
-0.122916
-0.105163
-0.091519
-0.081497
-0.0746208
-0.0705112
-0.0689156
-0.0697536
-0.0731696
-0.0794567
-0.0886833
-0.100131
-0.112023
-0.121889
-0.127423
-0.127256
-0.121719
-0.112201
-0.100892
-0.089751
-0.0801165
-0.0727073
-0.0678156
-0.0654926
-0.065729
-0.0686821
-0.0748202
-0.0847266
-0.0985271
-0.115263
-0.233832
-0.228242
-0.220237
-0.208795
-0.194843
-0.178747
-0.162094
-0.146444
-0.133166
-0.12324
-0.117182
-0.115115
-0.116906
-0.122389
-0.131599
-0.144863
-0.162568
-0.184586
-0.209636
-0.235058
-0.257267
-0.272613
-0.278181
-0.272408
-0.255782
-0.230902
-0.201782
-0.17244
-0.145757
-0.123159
-0.104962
-0.0908736
-0.0803951
-0.0730381
-0.0684109
-0.0662447
-0.0664303
-0.0690701
-0.0744234
-0.0825834
-0.0929448
-0.103903
-0.113163
-0.118551
-0.118728
-0.113934
-0.105412
-0.095193
-0.0850928
-0.0763795
-0.069761
-0.0655488
-0.0638229
-0.0646053
-0.0680889
-0.0747823
-0.0853087
-0.0998238
-0.117372
-0.204285
-0.198238
-0.192399
-0.181997
-0.170574
-0.157235
-0.143465
-0.130609
-0.119894
-0.112231
-0.108124
-0.107712
-0.110906
-0.117606
-0.127925
-0.142255
-0.161009
-0.184028
-0.209952
-0.236057
-0.258748
-0.274401
-0.280123
-0.274344
-0.257531
-0.232328
-0.202822
-0.173092
-0.146037
-0.123077
-0.104508
-0.0900299
-0.0791353
-0.0713293
-0.0662114
-0.0634988
-0.0630576
-0.0649498
-0.0694009
-0.0765234
-0.0858204
-0.0958603
-0.104522
-0.109761
-0.110317
-0.106183
-0.0986143
-0.0894422
-0.0803416
-0.0725145
-0.0666576
-0.0630993
-0.0619459
-0.0632484
-0.067232
-0.0744414
-0.0855384
-0.100713
-0.119024
-0.175159
-0.168801
-0.16324
-0.155048
-0.146064
-0.135333
-0.124324
-0.114155
-0.105918
-0.100447
-0.0982256
-0.0994089
-0.10395
-0.111817
-0.123199
-0.138548
-0.158296
-0.182247
-0.208975
-0.235708
-0.258857
-0.274839
-0.280785
-0.275111
-0.25826
-0.2329
-0.203178
-0.173214
-0.145915
-0.122691
-0.103826
-0.0890121
-0.0777433
-0.0695217
-0.0639415
-0.0607095
-0.0596697
-0.0608473
-0.0644332
-0.0705538
-0.078814
-0.0879528
-0.0960228
-0.101105
-0.102092
-0.0984904
-0.0918386
-0.0836652
-0.0755181
-0.0685381
-0.0634096
-0.0604761
-0.0598678
-0.0616614
-0.0661105
-0.0737922
-0.0854051
-0.101178
-0.120192
-0.146727
-0.139876
-0.134593
-0.128581
-0.121554
-0.11325
-0.104839
-0.0972162
-0.0913376
-0.0879603
-0.0875388
-0.0902419
-0.0960663
-0.105047
-0.117446
-0.133771
-0.154462
-0.179283
-0.206748
-0.234054
-0.257638
-0.27397
-0.280204
-0.274741
-0.257991
-0.23264
-0.20287
-0.172826
-0.145413
-0.122024
-0.102937
-0.087844
-0.0762436
-0.0676409
-0.0616285
-0.0579056
-0.0562979
-0.0567969
-0.0595592
-0.064719
-0.0719748
-0.0802316
-0.0877141
-0.0926172
-0.0938031
-0.0908826
-0.0851153
-0.0778875
-0.0706432
-0.0644673
-0.0600311
-0.0576904
-0.0575967
-0.0598496
-0.064727
-0.0728334
-0.0849023
-0.101204
-0.120855
-0.119605
-0.11221
-0.1069
-0.103279
-0.0972613
-0.0911878
-0.0851727
-0.0799223
-0.0762568
-0.0748498
-0.0761255
-0.080261
-0.0872991
-0.0973414
-0.110718
-0.127979
-0.149565
-0.175196
-0.203334
-0.231161
-0.255156
-0.271853
-0.278429
-0.273273
-0.256759
-0.231576
-0.201924
-0.171954
-0.144554
-0.1211
-0.101865
-0.0865484
-0.0746597
-0.0657111
-0.0592973
-0.0551135
-0.0529702
-0.0528291
-0.0548125
-0.0590571
-0.0653451
-0.072741
-0.0796397
-0.0843401
-0.0857103
-0.0834135
-0.0784754
-0.072133
-0.065738
-0.0603204
-0.0565374
-0.0547549
-0.055143
-0.0578211
-0.0630869
-0.0715675
-0.0840288
-0.100787
-0.121001
-0.0943638
-0.0860203
-0.0805158
-0.0779045
-0.0733471
-0.0693386
-0.0654803
-0.0624027
-0.0607813
-0.061203
-0.0640587
-0.0695326
-0.0777139
-0.0887675
-0.103084
-0.121247
-0.143685
-0.170068
-0.198816
-0.227112
-0.25149
-0.268556
-0.275521
-0.270758
-0.254605
-0.229742
-0.200372
-0.170626
-0.143363
-0.119941
-0.100631
-0.0851474
-0.0730133
-0.0637543
-0.0569709
-0.0523569
-0.0497112
-0.0489697
-0.0502213
-0.0535999
-0.0589604
-0.0655184
-0.0718356
-0.0763137
-0.0778588
-0.0761215
-0.0719453
-0.0664251
-0.0608233
-0.056116
-0.052945
-0.0516838
-0.052519
-0.0555863
-0.0611989
-0.0700009
-0.0827878
-0.0999231
-0.120621
-0.0713859
-0.0617176
-0.0560431
-0.0533927
-0.0502426
-0.0478865
-0.0459181
-0.0447901
-0.0450228
-0.0471168
-0.0514259
-0.0581411
-0.0673959
-0.0794143
-0.0946383
-0.113671
-0.136917
-0.163996
-0.19329
-0.222001
-0.246729
-0.264161
-0.271549
-0.267254
-0.251576
-0.227179
-0.198247
-0.16887
-0.141867
-0.118571
-0.0992587
-0.0836612
-0.0713248
-0.061791
-0.0546697
-0.0496566
-0.0465423
-0.0452403
-0.0458091
-0.0483732
-0.0528495
-0.0585943
-0.0643333
-0.0685749
-0.0702684
-0.0690273
-0.0655481
-0.0607857
-0.05592
-0.0518733
-0.0492711
-0.0484929
-0.0497388
-0.053158
-0.0590744
-0.0681439
-0.0811877
-0.0986191
-0.119716
-0.0398979
-0.0335856
-0.0303992
-0.028434
-0.027021
-0.026669
-0.0272332
-0.0291073
-0.0327051
-0.0383336
-0.0461916
-0.0564524
-0.0693922
-0.0854934
-0.105365
-0.129375
-0.157089
-0.186864
-0.21593
-0.24097
-0.258752
-0.266588
-0.262825
-0.247725
-0.223931
-0.195585
-0.166717
-0.14009
-0.117013
-0.0977664
-0.0821088
-0.0696123
-0.0598391
-0.0524118
-0.0470308
-0.0434816
-0.0416591
-0.0415937
-0.0433967
-0.0470347
-0.0519935
-0.0571578
-0.061148
-0.0629539
-0.0621559
-0.0593048
-0.0552352
-0.0510481
-0.0476114
-0.0455338
-0.045199
-0.0468181
-0.0505511
-0.0567277
-0.0660102
-0.0792414
-0.0968854
-0.118292
-0.0210091
-0.0133402
-0.00932434
-0.00767439
-0.00698358
-0.00796721
-0.00991442
-0.0131889
-0.0181058
-0.0249134
-0.033814
-0.0450139
-0.0588327
-0.0757801
-0.096455
-0.121179
-0.149465
-0.179648
-0.209007
-0.234315
-0.252425
-0.260722
-0.257538
-0.243109
-0.220044
-0.192425
-0.164199
-0.138059
-0.115286
-0.0961735
-0.0805074
-0.0678922
-0.0579146
-0.0502129
-0.0444949
-0.040544
-0.0382403
-0.0375885
-0.0386847
-0.0415325
-0.0457343
-0.0503288
-0.0540505
-0.0559308
-0.0555358
-0.0532335
-0.0497924
-0.0462271
-0.0433495
-0.0417516
-0.0418197
-0.043774
-0.0477821
-0.0541756
-0.0636171
-0.0769663
-0.0947385
-0.116364
-0.00535774
0.00400004
0.00929875
0.0114498
0.0117381
0.00989654
0.00693722
0.00253415
-0.00349457
-0.0113298
-0.0211669
-0.0332359
-0.0478876
-0.0656442
-0.08708
-0.112461
-0.141245
-0.17176
-0.201342
-0.226861
-0.245282
-0.254038
-0.251466
-0.237787
-0.215568
-0.188808
-0.161348
-0.135799
-0.113413
-0.0944972
-0.0788726
-0.0661789
-0.0560313
-0.0480862
-0.0420617
-0.0377417
-0.0349948
-0.0338033
-0.0342463
-0.0363537
-0.0398298
-0.0438601
-0.0472959
-0.0492126
-0.0491821
-0.0473453
-0.044474
-0.0414757
-0.0391063
-0.0379429
-0.0383733
-0.0406246
-0.0448693
-0.0514367
-0.0609844
-0.0743839
-0.0922004
-0.113951
0.00691843
0.0181747
0.0250655
0.0281908
0.0286859
0.026587
0.0230292
0.0178082
0.0109054
0.00221386
-0.00844085
-0.0212986
-0.036727
-0.0552441
-0.0773855
-0.103353
-0.132553
-0.163314
-0.193041
-0.218712
-0.237415
-0.246615
-0.244679
-0.231819
-0.210553
-0.184774
-0.158194
-0.133333
-0.111411
-0.0927532
-0.0772178
-0.0644849
-0.0542006
-0.0460428
-0.0397414
-0.0350839
-0.0319306
-0.0302441
-0.030086
-0.0315037
-0.0342874
-0.0377608
-0.0408952
-0.04281
-0.0431218
-0.0416404
-0.0392953
-0.0368115
-0.0349
-0.0341264
-0.0348785
-0.0373885
-0.0418319
-0.0485316
-0.0581346
-0.0715189
-0.0892976
-0.111081
0.0157875
0.0290307
0.0377218
0.0422206
0.0434194
0.0417412
0.0380107
0.0323243
0.0248216
0.0154736
0.00414229
-0.00940552
-0.0255362
-0.0447467
-0.06752
-0.0939882
-0.123509
-0.154422
-0.184211
-0.209977
-0.228894
-0.238521
-0.237245
-0.22527
-0.205054
-0.180365
-0.154771
-0.130686
-0.1093
-0.0909556
-0.075555
-0.0628205
-0.0524322
-0.0440913
-0.037542
-0.0325775
-0.029053
-0.0269142
-0.026205
-0.0269829
-0.0291096
-0.0320358
-0.0348527
-0.036726
-0.0372865
-0.0361221
-0.0342716
-0.0322508
-0.0307479
-0.0303202
-0.031354
-0.0340851
-0.0386901
-0.045482
-0.0550921
-0.0683991
-0.0860609
-0.107785
0.036551
0.0471597
0.0533679
0.0555803
0.0549961
0.0514937
0.0457293
0.0379401
0.0281707
0.0163342
0.00222268
-0.0145098
-0.0343218
-0.0576312
-0.084496
-0.114229
-0.14519
-0.174952
-0.200737
-0.219811
-0.229848
-0.229241
-0.218201
-0.199121
-0.175623
-0.151108
-0.12788
-0.107094
-0.0891169
-0.0738943
-0.0611944
-0.0507337
-0.0422385
-0.0354692
-0.0302271
-0.0263647
-0.023814
-0.0226015
-0.0227887
-0.0242951
-0.0266861
-0.0291702
-0.0309549
-0.0315955
-0.0308192
-0.0294192
-0.0278076
-0.0266663
-0.026542
-0.0278184
-0.0307339
-0.0354643
-0.0423104
-0.0518828
-0.0650544
-0.0825244
-0.1041
0.0408757
0.053412
0.06158
0.0657874
0.0660113
0.0631022
0.057664
0.0499292
0.0400076
0.0278722
0.013357
-0.00384477
-0.0241365
-0.0478605
-0.0749977
-0.10482
-0.135719
-0.165356
-0.191074
-0.210274
-0.220679
-0.220736
-0.210674
-0.192807
-0.170588
-0.147236
-0.124936
-0.10481
-0.0872476
-0.0722436
-0.0596131
-0.0491105
-0.040489
-0.0335267
-0.0280349
-0.0238663
-0.0209417
-0.0192712
-0.0189154
-0.0198388
-0.021709
-0.0238464
-0.0255044
-0.0262116
-0.0257572
-0.0247479
-0.0234946
-0.0226704
-0.0228086
-0.0242899
-0.0273542
-0.0321754
-0.0390399
-0.0485331
-0.0615163
-0.0787246
-0.100066
0.0422741
0.0566292
0.0667924
0.0733314
0.0744746
0.072531
0.0678031
0.0604719
0.0506924
0.0384972
0.0237736
0.00626991
-0.014348
-0.0383383
-0.065604
-0.0953817
-0.126095
-0.155508
-0.181086
-0.20035
-0.211079
-0.211797
-0.202752
-0.186164
-0.1653
-0.143182
-0.121872
-0.102458
-0.0853564
-0.0706094
-0.0580812
-0.0475661
-0.0388453
-0.0317161
-0.0260013
-0.0215563
-0.0182934
-0.0162075
-0.0153543
-0.0157328
-0.0170988
-0.0188797
-0.0203852
-0.0211438
-0.0209392
-0.0202653
-0.0193226
-0.0187737
-0.0191359
-0.0207859
-0.0239648
-0.028844
-0.0356936
-0.0450701
-0.0578171
-0.0746999
-0.0957263
-0.119452
0.0411108
0.0570765
0.069056
0.0782808
0.0802084
0.0795801
0.0759013
0.0693058
0.0599699
0.0479766
0.0332703
0.0156645
-0.00509583
-0.0291794
-0.0564116
-0.085998
-0.116402
-0.145486
-0.170836
-0.190113
-0.201118
-0.202491
-0.194495
-0.179244
-0.159799
-0.138976
-0.118708
-0.100052
-0.0834514
-0.068997
-0.0566029
-0.0461035
-0.0373095
-0.0300383
-0.0241257
-0.0194323
-0.0158643
-0.0134027
-0.0120956
-0.0119666
-0.0128472
-0.0142662
-0.0155972
-0.0163823
-0.0163686
-0.0159781
-0.0153008
-0.0149885
-0.0155384
-0.0173232
-0.0205842
-0.0254901
-0.032294
-0.0415205
-0.0539892
-0.0704891
-0.0911264
-0.114612
0.0551275
0.0684853
0.0771832
0.083071
0.0841894
0.0818335
0.0762591
0.0676512
0.0561272
0.0416832
0.0241999
0.00350558
-0.0204778
-0.0475005
-0.076742
-0.106708
-0.135359
-0.160403
-0.179584
-0.190846
-0.19288
-0.185963
-0.172097
-0.154125
-0.134644
-0.115463
-0.0976057
-0.0815422
-0.0674137
-0.0551834
-0.0447266
-0.0358843
-0.0284948
-0.0224082
-0.0174922
-0.0136497
-0.0108492
-0.00912907
-0.00852923
-0.00894471
-0.00999974
-0.0111367
-0.0119243
-0.0120588
-0.0118892
-0.0114369
-0.0113254
-0.0120295
-0.0139174
-0.0172298
-0.022133
-0.0288632
-0.0379103
-0.0500646
-0.0661316
-0.0863119
-0.109477
0.0512429
0.0659536
0.0763993
0.0836943
0.0864937
0.0856129
0.0812712
0.0736355
0.0628341
0.0489007
0.0317774
0.0113728
-0.0123039
-0.0389329
-0.0676723
-0.0970717
-0.125188
-0.149848
-0.168824
-0.180332
-0.18303
-0.177214
-0.164771
-0.148311
-0.130212
-0.112153
-0.095128
-0.079635
-0.0658633
-0.0538248
-0.0434361
-0.034569
-0.0270837
-0.0208454
-0.0157307
-0.011642
-0.00853687
-0.00644215
-0.00540683
-0.00537842
-0.00606996
-0.00699689
-0.00776815
-0.00842278
-0.00799774
-0.00773707
-0.00779337
-0.00862107
-0.0105829
-0.0139182
-0.0187914
-0.0254222
-0.0342647
-0.0460743
-0.0616656
-0.0813288
-0.104097
0.0458211
0.0617513
0.073767
0.0823375
0.0867305
0.0873674
0.08439
0.0779164
0.0680594
0.054872
0.0383447
0.0184571
-0.00470244
-0.0307521
-0.0588334
-0.0875414
-0.115023
-0.13921
-0.157997
-0.169671
-0.173
-0.168294
-0.157302
-0.142382
-0.125688
-0.108776
-0.0926101
-0.0777157
-0.0643288
-0.0525091
-0.0422137
-0.0333457
-0.0257874
-0.0194198
-0.0141299
-0.00982203
-0.00644507
-0.004013
-0.00257718
-0.00212716
-0.00245813
-0.00316118
-0.00386656
-0.00444307
-0.00428415
-0.00420677
-0.00439959
-0.00532381
-0.00733319
-0.0106648
-0.0154825
-0.0219908
-0.0306073
-0.0420478
-0.057128
-0.0762217
-0.0985248
0.0561777
0.0695423
0.0793083
0.0851874
0.0873168
0.0857578
0.0805724
0.0718373
0.0596041
0.043894
0.024743
0.00230571
-0.0229839
-0.0502574
-0.0781553
-0.104908
-0.128544
-0.147151
-0.158919
-0.162855
-0.159272
-0.149742
-0.136368
-0.121082
-0.105325
-0.0900342
-0.0757603
-0.0627837
-0.0512095
-0.0410335
-0.0321897
-0.0245828
-0.0181097
-0.0126686
-0.00816818
-0.00455126
-0.00181834
-1.71228e-05
0.000831125
0.00085652
0.000391265
-0.000206111
-0.000700787
-0.000790704
-0.000847808
-0.00114705
-0.00214582
-0.0041798
-0.00748379
-0.0122227
-0.0185877
-0.0269602
-0.0380126
-0.0525539
-0.0710338
-0.0928091
0.049549
0.064045
0.0749177
0.0821677
0.0857313
0.0855983
0.081763
0.0742699
0.0631567
0.0484552
0.0302393
0.00871324
-0.0156499
-0.0419793
-0.0689613
-0.0949097
-0.117945
-0.136246
-0.148123
-0.152712
-0.150274
-0.14221
-0.130373
-0.116489
-0.101888
-0.0874847
-0.0738501
-0.0613058
-0.049999
-0.0399634
-0.0311632
-0.0235261
-0.0169654
-0.011391
-0.00671851
-0.00288754
0.000114558
0.00224931
0.0034744
0.00385412
0.00364472
0.00319046
0.00275268
0.00246697
0.00234553
0.00196437
0.000909104
-0.00112988
-0.00438584
-0.00902541
-0.0152289
-0.0233432
-0.0339939
-0.0479758
-0.0658059
-0.0869986
0.0422542
0.0576704
0.0694974
0.0779332
0.0828239
0.0841144
0.0816837
0.0755237
0.0656582
0.0521232
0.0350125
0.0145627
-0.00872655
-0.0339896
-0.0599575
-0.0850281
-0.107424
-0.125282
-0.137198
-0.142519
-0.141289
-0.134748
-0.1245
-0.112065
-0.0986648
-0.0851849
-0.072218
-0.0601251
-0.049097
-0.0392068
-0.0304516
-0.0227842
-0.016136
-0.0104298
-0.00558996
-0.00155718
0.00169326
0.00413849
0.00572677
0.00646355
0.00652457
0.00622599
0.00584852
0.00554126
0.00533904
0.00489817
0.00381625
0.00180095
-0.00138244
-0.00590202
-0.0119275
-0.0197717
-0.0300113
-0.04342
-0.0605731
-0.0811355
0.0341804
0.0507295
0.0630198
0.0724574
0.078556
0.0812374
0.0802936
0.0756043
0.0671555
0.0549763
0.0391761
0.0200079
-0.00201289
-0.0260283
-0.0508141
-0.074852
-0.0964218
-0.113908
-0.125671
-0.131705
-0.131774
-0.126888
-0.118347
-0.107459
-0.0953381
-0.0828461
-0.0705974
-0.058995
-0.0482753
-0.0385529
-0.0298595
-0.0221754
-0.0154519
-0.00962432
-0.00462776
-0.000409426
0.00306412
0.00579351
0.00773184
0.00882885
0.00915926
0.0089773
0.00858874
0.00836597
0.00804317
0.00755533
0.0064869
0.00454083
0.00147081
-0.00289551
-0.00872037
-0.0162816
-0.0260994
-0.0389169
-0.0553621
-0.0752437
0.0407118
0.0554278
0.0662747
0.0735777
0.0773788
0.0776355
0.0742584
0.0671625
0.0563462
0.041913
0.0241291
0.00351413
-0.0190967
-0.0425436
-0.065394
-0.0860114
-0.102688
-0.114954
-0.121184
-0.122092
-0.118403
-0.111155
-0.101503
-0.0904734
-0.0788943
-0.0673777
-0.0563399
-0.0460379
-0.0366088
-0.0281051
-0.0205265
-0.0138397
-0.00799044
-0.00292238
0.00140743
0.0050336
0.00797926
0.010218
0.0116658
0.0122934
0.0122438
0.0117579
0.0108565
0.0108696
0.0102444
0.00909408
0.00714448
0.00414729
-7.52002e-05
-0.00569436
-0.0129786
-0.0224031
-0.0346626
-0.0504016
-0.0695542
0.0391873
0.0528845
0.0634438
0.0709451
0.0752471
0.076141
0.0734459
0.0670356
0.0568649
0.0430046
0.0257126
0.00553192
-0.0166431
-0.0395876
-0.0618682
-0.0819764
-0.0986087
-0.109403
-0.114699
-0.115084
-0.111171
-0.104028
-0.0947319
-0.0842179
-0.0732267
-0.0623023
-0.0518133
-0.0419889
-0.0329539
-0.0247584
-0.0174043
-0.0108646
-0.00509289
-3.52976e-05
0.0043511
0.0080947
0.0112159
0.0137138
0.015548
0.0166837
0.0171868
0.0172484
0.01722
0.0164049
0.0153004
0.0137357
0.0114141
0.00817963
0.00391657
-0.00153083
-0.00847627
-0.0174924
-0.0293991
-0.044957
-0.0641809
-0.0856704
0.0335064
0.046699
0.0570911
0.0646454
0.069191
0.0705058
0.0684115
0.0627854
0.0535851
0.0408929
0.0249841
0.00641438
-0.0139247
-0.0348391
-0.0549543
-0.0728675
-0.0871157
-0.0970191
-0.101958
-0.102416
-0.0991448
-0.0930198
-0.084939
-0.0756896
-0.0659065
-0.0560682
-0.0465126
-0.0374619
-0.0290475
-0.0213342
-0.0143419
-0.00806019
-0.00245774
0.00250337
0.00685418
0.0106226
0.0138361
0.0164917
0.0185252
0.019856
0.0204965
0.0205939
0.0202994
0.0196427
0.0186622
0.0170922
0.0147732
0.011576
0.00740806
0.00213444
-0.00453967
-0.0131695
-0.0245693
-0.0395206
-0.0581055
-0.0790356
0.0281867
0.0405951
0.0505308
0.0578338
0.0623226
0.0637994
0.062105
0.0571363
0.0488778
0.0374455
0.0231435
0.00652601
-0.0115737
-0.0300752
-0.0477567
-0.063459
-0.0762781
-0.0850133
-0.0894885
-0.0901692
-0.0876367
-0.0825567
-0.0756556
-0.0675971
-0.058934
-0.0500975
-0.0414044
-0.033073
-0.025242
-0.0179889
-0.0113485
-0.00532513
9.86368e-05
0.00494785
0.00924388
0.0130094
0.0162697
0.0190197
0.0211871
0.0226663
0.0234231
0.0235657
0.0232894
0.0226139
0.0215258
0.0199161
0.0176072
0.01445
0.0103449
0.00516679
-0.00134318
-0.00967829
-0.0205795
-0.034774
-0.0523613
-0.0721589
0.022931
0.0346045
0.044052
0.0510774
0.055503
0.0571514
0.0558807
0.0516085
0.0443436
0.0342247
0.0215648
0.00689161
-0.00903893
-0.0252794
-0.0408009
-0.0546454
-0.0659039
-0.0736713
-0.077899
-0.0788406
-0.0769506
-0.0727727
-0.066904
-0.0599044
-0.0522533
-0.0443361
-0.0364458
-0.0287934
-0.0215205
-0.0147137
-0.00841952
-0.00265505
0.00258464
0.00731398
0.0115455
0.0152935
0.0185774
0.0213932
0.0236735
0.0253054
0.0262234
0.0264977
0.0262736
0.0255401
0.024389
0.0227351
0.0204125
0.0172767
0.0132282
0.00815398
0.00182916
-0.00618227
-0.016548
-0.029932
-0.0464349
-0.0649858
0.0177356
0.0287082
0.0376709
0.0444282
0.0488095
0.0506544
0.0498394
0.0463012
0.0400645
0.0312754
0.0202353
0.00742898
-0.00647183
-0.0206456
-0.0342082
-0.0463081
-0.0561558
-0.0631513
-0.0671608
-0.0683209
-0.0669885
-0.0636056
-0.0586572
-0.0526113
-0.0458808
-0.0388088
-0.0316651
)
;

boundaryField
{
    inlet
    {
        type            zeroGradient;
    }
    outlet
    {
        type            fixedValue;
        value           nonuniform 0();
    }
    cylinder
    {
        type            zeroGradient;
    }
    top
    {
        type            symmetryPlane;
    }
    bottom
    {
        type            symmetryPlane;
    }
    defaultFaces
    {
        type            empty;
    }
    procBoundary10to6
    {
        type            processor;
        value           nonuniform List<scalar> 
61
(
-0.399112
-0.39698
-0.388399
-0.372607
-0.372607
-0.367192
-0.336292
-0.301263
-0.265047
-0.230555
-0.200058
-0.174899
-0.155551
-0.141877
-0.133422
-0.129653
-0.130142
-0.134725
-0.143496
-0.15651
-0.173192
-0.19183
-0.209572
-0.223052
-0.229321
-0.226672
-0.215246
-0.196929
-0.174783
-0.152029
-0.131168
-0.113629
-0.0999057
-0.0899163
-0.0833522
-0.0798905
-0.0792847
-0.0814282
-0.0864565
-0.0947921
-0.106898
-0.122656
-0.14071
-0.158333
-0.172057
-0.178761
-0.176776
-0.166666
-0.150835
-0.132543
-0.114686
-0.0991016
-0.0865926
-0.0773101
-0.0710995
-0.0677298
-0.067098
-0.0693782
-0.0749041
-0.0837011
-0.094957
)
;
    }
    procBoundary10to9
    {
        type            processor;
        value           nonuniform List<scalar> 
38
(
-0.374296
-0.3501
-0.324512
-0.324512
-0.296372
-0.267525
-0.238421
-0.209471
-0.181162
-0.153987
-0.128476
-0.105191
-0.0845071
-0.0507631
-0.0507631
-0.0334808
-0.0196783
-0.00935008
-0.00240527
0.0213503
0.0213503
0.0238479
0.0236273
0.0211017
0.0378138
0.0378138
0.0327974
0.0264573
0.0392194
0.0392194
0.0317928
0.0238856
0.0151366
0.0246818
0.0246818
0.0230435
0.0183263
0.0137662
)
;
    }
    procBoundary10to11
    {
        type            processor;
        value           nonuniform List<scalar> 
36
(
-0.111844
-0.116632
-0.121153
-0.125356
-0.129194
-0.132622
-0.135597
-0.13808
-0.140038
-0.141442
-0.14227
-0.142509
-0.142151
-0.141197
-0.139655
-0.137542
-0.134882
-0.131704
-0.128045
-0.123945
-0.123945
-0.142714
-0.137944
-0.132797
-0.127325
-0.121582
-0.115621
-0.109496
-0.10325
-0.0968916
-0.0906656
-0.0906656
-0.106527
-0.0994981
-0.0915214
-0.0832108
)
;
    }
    procBoundary10to13
    {
        type            processor;
        value           nonuniform List<scalar> 2(0.00935418 0.00501654);
    }
    procBoundary10to14
    {
        type            processor;
        value           nonuniform List<scalar> 
57
(
-0.0246518
-0.017911
-0.0115358
-0.00558197
-7.72678e-05
0.00497216
0.00957134
0.013725
0.0174386
0.020724
0.0235777
0.0259419
0.0277073
0.0287855
0.0291903
0.029006
0.0282975
0.027138
0.0254659
0.0231496
0.0200609
0.0161072
0.0111902
0.00511557
-0.00250494
-0.0122787
-0.0248201
-0.0402387
-0.0575907
0.0127104
0.0229976
0.0314745
0.0379565
0.0422831
0.0443125
0.0439409
0.0411221
0.0358917
0.0283943
0.0189106
0.00787567
-0.00412248
-0.0163745
-0.02812
-0.0386262
-0.0472751
-0.0535663
-0.0573374
-0.0586622
-0.0578018
-0.0551034
-0.0509577
-0.045754
-0.0398475
-0.0335424
-0.0246518
-0.0270859
)
;
    }
}


// ************************************************************************* //
