/*--------------------------------*- C++ -*----------------------------------*\
  =========                 |
  \\      /  F ield         | OpenFOAM: The Open Source CFD Toolbox
   \\    /   O peration     | Website:  https://openfoam.org
    \\  /    A nd           | Version:  7
     \\/     M anipulation  |
\*---------------------------------------------------------------------------*/
FoamFile
{
    version     2.0;
    format      ascii;
    class       volVectorField;
    location    "135";
    object      U;
}
// * * * * * * * * * * * * * * * * * * * * * * * * * * * * * * * * * * * * * //

dimensions      [0 1 -1 0 0 0 0];

internalField   nonuniform List<vector> 
1987
(
(0.36098 0.323439 -1.5468e-21)
(0.409887 0.424507 -3.63567e-21)
(0.455781 0.510567 3.99719e-22)
(0.497091 0.577325 1.0799e-21)
(0.532263 0.623123 -1.63671e-21)
(0.560202 0.649178 2.40342e-21)
(0.580477 0.658894 -5.13341e-22)
(0.593287 0.656758 -3.13056e-22)
(0.599203 0.64744 -7.38721e-22)
(0.598655 0.635579 -4.40031e-22)
(0.591516 0.625692 2.24614e-21)
(0.577617 0.620837 4.45471e-22)
(0.558239 0.619834 -1.31676e-21)
(0.537342 0.615194 6.81048e-22)
(0.521154 0.594403 -7.79546e-22)
(0.515852 0.545028 -6.85502e-22)
(0.524763 0.460657 1.61674e-22)
(0.54731 0.343463 2.75559e-21)
(0.580281 0.20218 3.36701e-22)
(0.619878 0.0484757 -2.33835e-21)
(0.662755 -0.105172 -1.48388e-21)
(0.705987 -0.246459 -5.34315e-22)
(0.7467 -0.36454 1.69877e-21)
(0.782132 -0.452648 -4.90828e-22)
(0.810297 -0.50978 -4.81878e-22)
(0.830478 -0.54014 1.43818e-21)
(0.843156 -0.550842 5.73967e-22)
(0.849503 -0.549419 -1.33685e-21)
(0.85082 -0.542086 2.98514e-22)
(0.848267 -0.532993 9.09264e-22)
(0.842695 -0.524631 -4.32001e-22)
(0.834293 -0.519137 2.01862e-22)
(0.822335 -0.518948 -4.7706e-22)
(0.805698 -0.525085 2.1253e-22)
(0.784185 -0.533718 -4.53717e-22)
(0.75964 -0.534413 5.00917e-22)
(0.735684 -0.512933 -9.85174e-23)
(0.716149 -0.457556 1.21081e-22)
(0.703726 -0.364441 -5.41973e-22)
(0.699829 -0.238865 2.41371e-22)
(0.705012 -0.0931754 -4.00471e-22)
(0.718915 0.0563952 -2.32215e-22)
(0.740006 0.193379 7.01183e-22)
(0.765557 0.304999 -6.99345e-22)
(0.792084 0.385322 1.8517e-22)
(0.816272 0.435689 5.69358e-24)
(0.835834 0.462319 1.70048e-22)
(0.849901 0.472828 -4.11649e-23)
(0.858677 0.474088 2.00972e-22)
(0.862483 0.472202 8.54623e-23)
(0.860967 0.472712 -2.44658e-22)
(0.853346 0.478723 -2.18594e-22)
(0.839483 0.4877 1.10517e-22)
(0.820658 0.490457 -1.03144e-22)
(0.799238 0.474462 2.58509e-22)
(0.777802 0.429388 -4.28659e-22)
(0.0985644 -0.152967 -1.02812e-20)
(0.153396 -0.0439289 4.21534e-21)
(0.207595 0.0697181 5.56325e-21)
(0.260912 0.184597 2.50681e-21)
(0.313297 0.295932 -1.34066e-20)
(0.36439 0.398431 4.13366e-21)
(0.413114 0.486638 9.36767e-22)
(0.457899 0.556371 -1.18944e-22)
(0.497088 0.605833 1.9999e-21)
(0.529377 0.635915 -3.4161e-22)
(0.554083 0.649661 -7.34213e-22)
(0.571165 0.651285 -3.0532e-21)
(0.580972 0.645399 2.67521e-21)
(0.583718 0.636791 1.79189e-21)
(0.579236 0.630066 -2.72234e-21)
(0.567695 0.627912 1.48033e-21)
(0.551076 0.628267 -1.40905e-21)
(0.534039 0.622722 3.39742e-21)
(0.523042 0.598526 -3.13751e-21)
(0.523797 0.544032 1.22855e-21)
(0.53873 0.454251 3.72053e-22)
(0.566431 0.33258 -6.44759e-22)
(0.603219 0.18827 3.0114e-21)
(0.645209 0.0329456 2.33476e-22)
(0.689158 -0.12131 -4.67825e-21)
(0.732272 -0.26212 3.93441e-21)
(0.771781 -0.378676 -4.80353e-22)
(0.805066 -0.464358 -1.79658e-21)
(0.830412 -0.518561 -1.88915e-22)
(0.847454 -0.545976 2.18071e-21)
(0.857007 -0.554086 -2.56899e-21)
(0.860471 -0.550569 1.3528e-21)
(0.859242 -0.54162 -2.39335e-22)
(0.854454 -0.531291 3.63265e-22)
(0.846898 -0.521889 -1.2161e-21)
(0.836745 -0.515271 2.04039e-21)
(0.823266 -0.513649 -3.80132e-22)
(0.805241 -0.518155 -4.35436e-22)
(0.782255 -0.525498 5.20798e-22)
(0.755949 -0.525913 -1.17257e-23)
(0.729951 -0.50549 4.98661e-22)
(0.708337 -0.452311 5.03977e-22)
(0.694097 -0.362067 -1.83224e-21)
(0.688839 -0.239612 -1.72999e-21)
(0.693211 -0.0969653 -1.79519e-22)
(0.706881 0.0499934 3.45931e-21)
(0.728277 0.18519 -2.81255e-21)
(0.754599 0.296121 3.3723e-21)
(0.782275 0.376877 -8.0772e-22)
(0.807881 0.428536 -9.31681e-23)
(0.829027 0.456883 -6.50332e-22)
(0.844763 0.469136 7.29289e-22)
(0.855215 0.471995 -8.00029e-22)
(0.86062 0.471651 7.1594e-22)
(0.860587 0.473796 -4.10973e-22)
(0.854386 0.481512 8.17517e-24)
(0.841982 0.492011 3.52976e-22)
(0.824686 0.49582 -4.32944e-22)
(0.804765 0.480265 4.82528e-23)
(0.784643 0.434999 2.14559e-22)
(0.0538127 -0.184867 -4.78828e-21)
(0.107274 -0.0753736 -8.51368e-21)
(0.161116 0.0386714 9.50314e-21)
(0.214896 0.154216 -1.7604e-20)
(0.268395 0.266354 1.03542e-20)
(0.321292 0.37016 -8.65448e-21)
(0.372472 0.46043 9.80962e-21)
(0.420355 0.533097 -3.64908e-21)
(0.463195 0.586243 4.7305e-21)
(0.499511 0.620451 -8.30185e-21)
(0.528394 0.638397 1.15885e-21)
(0.549568 0.644014 8.30729e-21)
(0.563131 0.641843 -2.13187e-21)
(0.569091 0.636768 3.85413e-21)
(0.567292 0.633362 -2.58832e-22)
(0.558316 0.63383 -1.13883e-21)
(0.544842 0.635239 -7.51109e-21)
(0.532114 0.628441 6.05656e-21)
(0.526652 0.600697 -1.36143e-21)
(0.53359 0.54131 -6.58108e-22)
(0.55446 0.446673 -3.45539e-22)
(0.5871 0.321237 -1.11673e-21)
(0.627465 0.174593 9.81775e-21)
(0.671585 0.0181627 -1.50532e-20)
(0.716395 -0.136274 5.16279e-21)
(0.759259 -0.276371 2.86406e-21)
(0.797424 -0.391289 3.3109e-21)
(0.828422 -0.474542 -2.22822e-21)
(0.850829 -0.525903 1.84517e-21)
(0.864652 -0.550531 -8.39652e-21)
(0.871043 -0.556241 6.46129e-21)
(0.871625 -0.55082 -1.94037e-21)
(0.867881 -0.540411 1.29458e-21)
(0.860911 -0.528957 -9.05278e-22)
(0.851431 -0.518598 -2.71535e-21)
(0.839592 -0.510922 -9.83915e-22)
(0.824675 -0.507907 1.49529e-21)
(0.805383 -0.510774 7.80973e-22)
(0.781088 -0.516786 -1.12825e-21)
(0.753194 -0.516916 1.53504e-21)
(0.725286 -0.497667 1.75738e-21)
(0.701664 -0.446937 -3.61573e-22)
(0.685632 -0.359883 -5.13813e-21)
(0.679006 -0.24085 2.87492e-21)
(0.682519 -0.101448 -3.70514e-21)
(0.695869 0.0427722 4.52703e-21)
(0.717452 0.17616 -1.73937e-21)
(0.74441 0.286449 -2.35742e-21)
(0.773099 0.367718 5.00934e-21)
(0.800004 0.420751 5.02906e-22)
(0.822643 0.450883 4.94663e-22)
(0.839987 0.464934 -2.90863e-21)
(0.852083 0.469437 1.61096e-21)
(0.859079 0.470663 -2.09231e-22)
(0.860553 0.474447 -2.01238e-21)
(0.855832 0.483849 1.93388e-21)
(0.844973 0.49587 1.78895e-21)
(0.8293 0.500799 -2.49697e-21)
(0.810966 0.485837 -1.20128e-21)
(0.792245 0.440595 -1.84734e-21)
(0.0665105 -0.107884 3.08934e-21)
(0.119163 0.00662739 4.10778e-21)
(0.172783 0.122246 -2.3497e-20)
(0.226829 0.234916 2.55457e-21)
(0.281046 0.339878 -2.38563e-21)
(0.33422 0.432101 2.76107e-20)
(0.38475 0.507636 -3.35301e-20)
(0.430814 0.564458 2.29931e-21)
(0.47078 0.602853 4.6528e-21)
(0.503534 0.625131 2.34295e-21)
(0.52856 0.634946 -1.18054e-21)
(0.545699 0.636747 -2.80417e-21)
(0.554764 0.635444 -1.72429e-21)
(0.55568 0.635453 8.18433e-21)
(0.549495 0.638412 -7.65926e-21)
(0.539544 0.640569 1.06625e-20)
(0.53153 0.632232 -5.98008e-21)
(0.531874 0.600906 -4.98085e-21)
(0.545049 0.536946 1.38501e-21)
(0.571722 0.438062 2.17836e-20)
(0.609061 0.309584 -1.07227e-20)
(0.652728 0.161271 1.84063e-21)
(0.69878 0.00420138 -1.42457e-20)
(0.74432 -0.149999 4.03285e-21)
(0.786801 -0.289165 -2.58323e-21)
(0.823507 -0.402353 -4.09681e-21)
(0.852106 -0.483186 7.17981e-21)
(0.871478 -0.531808 1.71818e-21)
(0.882023 -0.55382 -1.36082e-21)
(0.885234 -0.557332 1.48382e-21)
(0.882953 -0.550201 3.26499e-21)
(0.876735 -0.538493 -4.21645e-21)
(0.86764 -0.52603 3.87012e-21)
(0.856305 -0.514798 -5.33133e-21)
(0.842849 -0.506137 2.88145e-21)
(0.826574 -0.501782 2.97039e-23)
(0.806137 -0.503017 4.99365e-22)
(0.780701 -0.507657 -7.68892e-22)
(0.751402 -0.507477 -2.79557e-21)
(0.721728 -0.489478 6.78425e-21)
(0.696175 -0.441412 -4.76378e-21)
(0.678372 -0.357846 1.54532e-21)
(0.670364 -0.242519 -2.7097e-21)
(0.67296 -0.106589 -3.268e-21)
(0.68589 0.0347907 5.4351e-21)
(0.707537 0.166349 -4.40223e-21)
(0.734988 0.276031 1.40936e-21)
(0.76455 0.357876 3.19882e-21)
(0.79263 0.412351 -2.70633e-21)
(0.816667 0.444326 3.77447e-21)
(0.835559 0.460221 -3.70827e-22)
(0.849261 0.466403 -1.29703e-21)
(0.857838 0.469219 1.03212e-22)
(0.86084 0.474634 -2.40491e-21)
(0.857655 0.485697 1.12616e-21)
(0.848423 0.499238 8.1574e-22)
(0.834461 0.505356 -1.99612e-21)
(0.817803 0.491147 2.70953e-21)
(0.80057 0.446148 -4.27398e-21)
(0.0319103 -0.14121 8.6125e-21)
(0.0825033 -0.0265748 1.90309e-20)
(0.134993 0.0889319 2.94059e-21)
(0.189082 0.201864 6.64018e-21)
(0.244067 0.307805 -3.714e-20)
(0.29869 0.401841 1.67506e-20)
(0.351352 0.480147 -5.43592e-21)
(0.400157 0.5406 9.65552e-22)
(0.443344 0.583204 8.62266e-23)
(0.479609 0.609913 1.03973e-20)
(0.508197 0.6241 -2.37449e-20)
(0.528684 0.630097 1.75741e-20)
(0.540729 0.632755 2.25639e-21)
(0.544403 0.636214 -1.51478e-20)
(0.541245 0.641492 8.84581e-21)
(0.535183 0.644102 1.08717e-20)
(0.532232 0.634016 -8.16891e-21)
(0.538578 0.599172 2.23331e-21)
(0.557979 0.531045 -1.77778e-21)
(0.590278 0.428559 -1.83413e-20)
(0.632059 0.297758 -8.32932e-21)
(0.678774 0.148423 1.85353e-20)
(0.72658 -0.00874914 8.06976e-21)
(0.772735 -0.162429 1.38737e-20)
(0.814748 -0.300477 -1.93373e-20)
(0.849911 -0.411852 -2.80802e-21)
(0.876021 -0.490286 -5.87752e-21)
(0.892286 -0.536285 -3.72354e-21)
(0.899515 -0.555863 1.59917e-20)
(0.89955 -0.557387 -1.17417e-20)
(0.894436 -0.548747 7.72055e-21)
(0.885795 -0.535903 9.2571e-22)
(0.874642 -0.522548 6.63907e-22)
(0.861523 -0.510529 -5.02591e-21)
(0.846522 -0.500962 2.07566e-21)
(0.828972 -0.495336 1.57767e-21)
(0.807505 -0.494961 2.19016e-21)
(0.781094 -0.49819 -7.8199e-21)
(0.750584 -0.49765 5.9371e-21)
(0.719304 -0.480936 -6.61407e-21)
(0.691904 -0.435709 7.11492e-21)
(0.672347 -0.355905 -1.11831e-20)
(0.662924 -0.244558 1.35736e-20)
(0.66454 -0.112314 -6.9111e-21)
(0.676954 0.0261171 5.54211e-21)
(0.698533 0.155819 -6.61006e-21)
(0.726329 0.264914 -1.69714e-21)
(0.756618 0.347382 -2.96085e-21)
(0.785746 0.403352 1.08531e-20)
(0.811087 0.437216 -3.36146e-21)
(0.83146 0.454993 -1.80375e-21)
(0.846729 0.462885 1.45135e-21)
(0.856873 0.467302 -1.32049e-21)
(0.86142 0.47433 1.18758e-21)
(0.859822 0.48702 -9.6424e-22)
(0.852291 0.502075 -2.0352e-22)
(0.840124 0.509453 3.13788e-24)
(0.825226 0.496158 -1.03854e-21)
(0.809569 0.451629 5.26639e-22)
(0.0036097 -0.174168 8.4297e-21)
(0.0518054 -0.0609831 -2.22222e-20)
(0.102258 0.0546359 2.11159e-20)
(0.155578 0.167493 -4.06136e-21)
(0.210707 0.274204 -1.373e-20)
(0.266173 0.369876 1.66114e-20)
(0.320394 0.450819 -2.41165e-20)
(0.371408 0.51482 3.00779e-20)
(0.417339 0.561613 -9.85947e-21)
(0.456706 0.592813 -1.4331e-20)
(0.488513 0.611511 1.14942e-20)
(0.512087 0.621887 -6.6038e-21)
(0.52698 0.628635 2.38023e-21)
(0.533469 0.635518 -5.38439e-21)
(0.533581 0.642913 6.09633e-21)
(0.531749 0.645712 1.00322e-20)
(0.534154 0.633742 -4.82701e-21)
(0.546625 0.595541 6.16973e-21)
(0.57218 0.523716 -4.19037e-21)
(0.609893 0.418296 3.1881e-22)
(0.655849 0.28588 9.48127e-21)
(0.705377 0.136142 -1.39627e-20)
(0.754778 -0.0206726 1.99615e-20)
(0.801466 -0.173542 -1.99818e-20)
(0.842957 -0.310295 3.8153e-21)
(0.876515 -0.419783 3.96235e-21)
(0.900071 -0.495847 -1.21652e-20)
(0.913178 -0.539348 4.57058e-21)
(0.917077 -0.556685 -8.64189e-22)
(0.913957 -0.556437 -3.1e-22)
(0.906057 -0.546491 -4.02001e-21)
(0.895053 -0.532676 6.33137e-21)
(0.881912 -0.518548 2.09756e-21)
(0.867086 -0.505831 1.7551e-21)
(0.850616 -0.495441 -4.91691e-21)
(0.831867 -0.488623 5.20219e-21)
(0.80948 -0.48668 -1.09615e-21)
(0.782259 -0.488466 -5.53027e-21)
(0.750736 -0.487496 3.39595e-21)
(0.718024 -0.472059 5.13538e-21)
(0.688869 -0.429802 -1.26842e-21)
(0.667571 -0.354001 -7.75935e-22)
(0.656698 -0.246896 -9.05288e-21)
(0.657261 -0.118522 3.17452e-21)
(0.669053 0.016831 4.73548e-21)
(0.69043 0.144631 -2.92821e-21)
(0.718418 0.253146 2.46935e-21)
(0.749287 0.33627 -2.60613e-21)
(0.779338 0.393771 -8.94409e-25)
(0.805884 0.429559 5.5462e-22)
(0.827669 0.449249 1.55772e-22)
(0.844462 0.458875 4.62529e-22)
(0.856154 0.464897 3.20628e-22)
(0.862261 0.47351 2.26178e-21)
(0.862296 0.487785 -5.74627e-21)
(0.856532 0.504345 4.32792e-21)
(0.846236 0.513052 -5.33482e-21)
(0.833179 0.500835 2.71219e-21)
(0.819186 0.457005 -1.77916e-21)
(-0.0177626 -0.20546 -4.09036e-21)
(0.0272786 -0.0956878 5.86711e-21)
(0.0750165 0.0199731 2.2999e-20)
(0.126619 0.132144 -4.87115e-22)
(0.181236 0.239368 -2.77855e-20)
(0.236895 0.336458 5.71272e-21)
(0.292065 0.419867 3.62661e-22)
(0.344718 0.48729 1.30454e-20)
(0.392875 0.538211 -1.09961e-21)
(0.434889 0.57392 -6.08138e-22)
(0.469531 0.597229 -1.86554e-20)
(0.495907 0.612113 1.65712e-21)
(0.51352 0.623017 3.91959e-21)
(0.522896 0.633244 6.53531e-21)
(0.526525 0.642538 1.09445e-20)
(0.529232 0.6453 -4.61581e-21)
(0.537224 0.631394 -3.8594e-21)
(0.555874 0.590076 1.11332e-20)
(0.587456 0.515077 -2.53456e-20)
(0.630339 0.407402 1.09672e-20)
(0.6802 0.274054 -7.85206e-21)
(0.73232 0.124488 1.70859e-20)
(0.783187 -0.0315524 -1.58601e-20)
(0.830354 -0.183335 -1.55861e-21)
(0.871292 -0.318624 -3.93518e-21)
(0.903205 -0.426153 -1.31981e-21)
(0.924158 -0.499881 6.70338e-21)
(0.934079 -0.541019 -4.2103e-21)
(0.934653 -0.556314 1.05148e-20)
(0.928417 -0.554514 7.51095e-21)
(0.917792 -0.543468 -4.32334e-21)
(0.904495 -0.528849 -2.60873e-21)
(0.889441 -0.51407 3.38918e-21)
(0.872989 -0.500743 -6.17674e-23)
(0.855126 -0.489617 -4.86294e-21)
(0.835256 -0.481699 5.46609e-22)
(0.81205 -0.478244 3.39042e-21)
(0.784173 -0.478566 -4.02683e-21)
(0.75184 -0.47708 1.16733e-21)
(0.717883 -0.462869 -2.29836e-21)
(0.687079 -0.42366 1.04741e-20)
(0.664051 -0.35207 -6.70239e-21)
(0.651685 -0.249453 6.25387e-21)
(0.65111 -0.12515 1.89178e-21)
(0.662169 0.00700534 -4.08244e-21)
(0.683208 0.13285 7.68154e-21)
(0.711238 0.240776 -1.04181e-20)
(0.742541 0.324572 1.01735e-20)
(0.773387 0.383627 -6.95623e-21)
(0.801038 0.421362 -1.17768e-21)
(0.824164 0.442989 1.45886e-21)
(0.842434 0.454367 -1.95257e-21)
(0.855654 0.46199 2.24966e-21)
(0.863328 0.472153 2.78445e-21)
(0.865033 0.487964 2.14417e-22)
(0.861096 0.506012 9.91579e-22)
(0.852737 0.516117 -9.81118e-21)
(0.841599 0.505137 6.51442e-21)
(0.829357 0.462237 1.77617e-21)
(-0.0314737 -0.235031 2.67323e-20)
(0.0093268 -0.129433 -6.8294e-20)
(0.0536466 -0.0145125 3.45525e-20)
(0.102355 0.0962092 9.16333e-22)
(0.155832 0.203619 -3.54878e-20)
(0.211007 0.301863 3.67425e-20)
(0.266496 0.387526 -2.08888e-20)
(0.32019 0.458203 1.3231e-20)
(0.370023 0.513147 1.31731e-21)
(0.414193 0.553342 -2.51848e-20)
(0.451258 0.581313 2.9007e-20)
(0.480144 0.600776 5.23097e-21)
(0.500365 0.615834 -1.00485e-20)
(0.51272 0.629277 9.606e-21)
(0.520106 0.640249 -1.26876e-20)
(0.527624 0.642796 4.34828e-21)
(0.541369 0.626979 -8.58303e-21)
(0.566189 0.582859 -1.03625e-20)
(0.603621 0.505246 4.94441e-20)
(0.651405 0.395992 -1.507e-20)
(0.704898 0.262365 4.87921e-21)
(0.759409 0.113498 -1.33808e-20)
(0.811639 -0.0413839 -5.46719e-20)
(0.859255 -0.191817 8.38982e-20)
(0.899628 -0.325479 -3.07575e-20)
(0.929869 -0.430979 -2.03241e-21)
(0.948189 -0.502409 -2.35342e-20)
(0.954913 -0.541323 1.86121e-20)
(0.952189 -0.554782 -5.42814e-21)
(0.942895 -0.551654 8.73362e-21)
(0.929617 -0.539713 -1.15892e-21)
(0.914106 -0.524458 1.08544e-21)
(0.89722 -0.50915 -9.4077e-21)
(0.879224 -0.495303 7.28025e-21)
(0.860046 -0.48353 -3.38553e-21)
(0.839128 -0.474612 -7.13122e-22)
(0.815194 -0.46972 -1.92565e-21)
(0.786807 -0.468569 6.81783e-21)
(0.753862 -0.466472 -5.7932e-21)
(0.718859 -0.453393 6.19379e-21)
(0.686526 -0.417256 -3.93768e-22)
(0.661786 -0.350045 -5.89815e-21)
(0.647873 -0.252147 2.36784e-21)
(0.646071 -0.132117 -1.13873e-21)
(0.656281 -0.00325179 -5.84347e-21)
(0.676846 0.120541 8.19132e-21)
(0.704767 0.227853 7.56611e-22)
(0.736358 0.312319 -3.40047e-21)
(0.767871 0.372937 7.52374e-22)
(0.796528 0.412633 -3.89111e-21)
(0.820922 0.436215 -5.10228e-23)
(0.840618 0.449357 4.61418e-22)
(0.85534 0.458571 8.06048e-22)
(0.864584 0.470241 2.60439e-21)
(0.867989 0.48753 -1.91135e-21)
(0.865926 0.507047 -1.10572e-21)
(0.859565 0.51861 -4.51886e-22)
(0.850416 0.509025 -3.2624e-21)
(0.840008 0.467288 1.60972e-21)
(-0.036147 -0.261953 1.11004e-20)
(-0.00131669 -0.160356 6.99577e-22)
(0.0383459 -0.0494649 -3.97905e-23)
(0.0829455 0.0600743 -4.95818e-21)
(0.1346 0.167287 2.05668e-21)
(0.188591 0.266381 -2.19016e-20)
(0.243754 0.354046 3.53084e-20)
(0.297876 0.427768 -2.36212e-20)
(0.348815 0.486589 -1.89506e-21)
(0.39463 0.531201 3.40978e-21)
(0.433697 0.56383 4.89366e-21)
(0.464813 0.587874 1.19458e-20)
(0.487554 0.607023 -3.61296e-21)
(0.502997 0.623513 -6.18614e-21)
(0.514372 0.63595 2.33953e-20)
(0.526926 0.638157 -7.49277e-21)
(0.546527 0.620531 -2.08559e-20)
(0.577442 0.573983 3.17153e-20)
(0.620506 0.494339 7.86493e-21)
(0.672902 0.384171 -2.32963e-20)
(0.729756 0.250881 1.87475e-20)
(0.786473 0.103197 -5.79488e-20)
(0.83999 -0.0501738 6.23484e-20)
(0.888041 -0.199015 -3.34513e-20)
(0.927847 -0.330886 -2.8569e-20)
(0.956397 -0.434285 2.89405e-20)
(0.972067 -0.503457 -1.76439e-20)
(0.975604 -0.540291 4.64466e-21)
(0.969627 -0.552124 2.94768e-20)
(0.95735 -0.547895 -1.56723e-20)
(0.941508 -0.535262 2.45274e-21)
(0.923867 -0.519537 -1.08045e-20)
(0.905232 -0.503823 1.09719e-20)
(0.885776 -0.489548 7.46337e-21)
(0.865364 -0.477216 -1.13747e-20)
(0.843468 -0.467406 4.9628e-21)
(0.818888 -0.461168 2.42319e-21)
(0.79012 -0.458551 -1.34531e-20)
(0.756757 -0.455745 8.22834e-21)
(0.720917 -0.443665 5.92584e-21)
(0.687194 -0.410566 -3.67099e-21)
(0.660765 -0.347855 -4.57787e-21)
(0.645249 -0.25489 7.32499e-21)
(0.642131 -0.139324 -5.08944e-24)
(0.651363 -0.0137954 -5.74854e-21)
(0.671306 0.107771 4.5998e-21)
(0.698979 0.214427 -7.65788e-22)
(0.730715 0.299546 1.72871e-21)
(0.76277 0.36172 -2.47955e-21)
(0.792332 0.403381 -2.85475e-21)
(0.817917 0.428928 5.30144e-21)
(0.838985 0.443842 -2.65591e-22)
(0.855179 0.454632 -3.14052e-21)
(0.865991 0.467758 -1.33398e-21)
(0.871116 0.486462 2.59059e-21)
(0.870964 0.50742 2.13741e-21)
(0.866651 0.520496 -7.57217e-22)
(0.859555 0.512458 -3.77958e-21)
(0.851059 0.472113 4.15569e-21)
(-0.0301226 -0.284804 -2.34005e-20)
(-0.00427476 -0.188412 3.43781e-20)
(0.029265 -0.083725 -3.77531e-20)
(0.0692015 0.0245581 8.65382e-21)
(0.117703 0.130774 2.83595e-20)
(0.169714 0.230339 -2.26964e-20)
(0.223864 0.319697 -1.90935e-20)
(0.277787 0.396208 -7.12114e-22)
(0.329257 0.458714 2.68452e-20)
(0.376204 0.507625 2.05604e-21)
(0.41686 0.544846 -8.70211e-22)
(0.449953 0.573405 8.08328e-21)
(0.47516 0.596518 -3.03442e-20)
(0.493813 0.61586 2.034e-20)
(0.509389 0.629568 7.54494e-21)
(0.527153 0.631369 -2.38066e-20)
(0.552647 0.612102 1.63773e-20)
(0.589527 0.563548 -4.07967e-21)
(0.637965 0.482469 -9.32691e-21)
(0.69467 0.372028 1.08379e-20)
(0.754618 0.23965 -2.26347e-20)
(0.813374 0.0935998 1.62089e-20)
(0.868116 -0.0579459 3.33731e-20)
(0.9166 -0.204963 -4.71448e-20)
(0.95584 -0.33488 -5.25603e-21)
(0.982688 -0.436103 2.72339e-20)
(0.995701 -0.503056 1.39164e-20)
(0.996077 -0.537959 -2.02742e-20)
(0.986912 -0.548381 -1.40514e-21)
(0.971743 -0.543275 1.90278e-20)
(0.953436 -0.530153 -2.05823e-20)
(0.93376 -0.514122 1.57719e-20)
(0.913462 -0.498126 -2.03045e-20)
(0.89263 -0.483513 1.39893e-20)
(0.871063 -0.47071 -8.52851e-21)
(0.848258 -0.460118 6.24702e-21)
(0.823103 -0.452642 -1.86416e-22)
(0.794068 -0.448587 2.01603e-21)
(0.760469 -0.444973 -1.17992e-20)
(0.724007 -0.433729 3.67601e-21)
(0.689053 -0.403574 5.19769e-21)
(0.660973 -0.345433 -6.33498e-23)
(0.643795 -0.257587 4.07124e-21)
(0.639283 -0.146682 -1.27532e-20)
(0.647382 -0.0247517 -2.87042e-21)
(0.666535 0.0945891 2.032e-21)
(0.693842 0.200545 8.27335e-21)
(0.725586 0.286285 -8.43431e-21)
(0.758059 0.349997 6.07613e-21)
(0.788425 0.393615 5.68049e-21)
(0.815123 0.421133 -1.40251e-20)
(0.837506 0.437822 6.96429e-21)
(0.855138 0.450167 -1.163e-21)
(0.867506 0.464694 -2.54428e-21)
(0.874362 0.484744 1.85669e-21)
(0.876148 0.507108 2.01852e-21)
(0.873923 0.521744 3.16296e-22)
(0.868935 0.515395 -5.44403e-21)
(0.862423 0.47667 5.7358e-21)
(-0.012172 -0.302221 4.05112e-20)
(0.00213465 -0.213037 -1.36064e-20)
(0.0276079 -0.114641 -4.84821e-21)
(0.0614283 -0.00934916 -2.56032e-21)
(0.10536 0.0946158 2.31092e-20)
(0.154507 0.194131 -1.7883e-20)
(0.206872 0.284774 1.40671e-20)
(0.259938 0.363759 -1.75019e-20)
(0.311354 0.429708 -4.79106e-21)
(0.358931 0.482743 -6.36914e-21)
(0.400794 0.524424 4.52354e-21)
(0.43565 0.557362 8.83918e-22)
(0.463302 0.584261 -5.71216e-21)
(0.485294 0.606242 1.78953e-21)
(0.505251 0.621055 8.27994e-21)
(0.528343 0.622442 2.24794e-20)
(0.5597 0.601762 -2.7735e-20)
(0.602357 0.551663 3.98402e-20)
(0.655877 0.469746 -3.4205e-20)
(0.716576 0.359644 -2.38489e-20)
(0.779361 0.228705 1.91135e-20)
(0.840003 0.0846904 -1.94333e-20)
(0.89592 -0.0647401 1.47209e-20)
(0.944837 -0.209707 8.43425e-21)
(0.983508 -0.337502 -5.51509e-21)
(1.00864 -0.436468 1.43392e-20)
(1.019 -0.501244 -3.19174e-20)
(1.01626 -0.534369 1.55613e-20)
(1.00399 -0.543593 -1.60855e-20)
(0.986034 -0.537835 1.62033e-20)
(0.965373 -0.524422 5.12226e-21)
(0.943762 -0.508247 1.17142e-20)
(0.921889 -0.492091 -1.29494e-20)
(0.899767 -0.477232 9.13084e-21)
(0.877125 -0.464045 -2.18168e-22)
(0.853477 -0.452781 -3.26338e-21)
(0.827807 -0.444186 -4.26198e-21)
(0.798602 -0.438743 9.77818e-22)
(0.764934 -0.434232 -2.41706e-21)
(0.728065 -0.423635 -5.01062e-21)
(0.692059 -0.396274 5.79526e-21)
(0.662387 -0.34271 -5.62752e-21)
(0.643489 -0.260143 8.22591e-21)
(0.637445 -0.154113 -3.42806e-21)
(0.644302 -0.0360467 -5.66587e-21)
(0.662553 0.0810658 1.41544e-20)
(0.689333 0.186259 -8.69139e-21)
(0.720944 0.272569 7.4401e-23)
(0.753713 0.337786 7.86112e-21)
(0.784781 0.383346 -8.05158e-21)
(0.812512 0.412834 3.58001e-21)
(0.83615 0.431298 1.56e-21)
(0.855182 0.445174 -2.57428e-21)
(0.869089 0.461043 -6.86554e-21)
(0.877678 0.482364 2.40315e-21)
(0.881417 0.506091 1.25708e-20)
(0.881307 0.522323 -1.06762e-20)
(0.878473 0.517799 1.26142e-20)
(0.874008 0.480914 -1.9598e-21)
(0.0188607 -0.313026 1.09243e-20)
(0.0196703 -0.232449 -2.3836e-20)
(0.034864 -0.141404 1.1649e-20)
(0.0604356 -0.0415576 3.22731e-21)
(0.0980704 0.0594428 -1.54859e-21)
(0.143302 0.158239 1.40182e-21)
(0.192951 0.24963 -1.933e-21)
(0.244425 0.330686 -7.17875e-21)
(0.29518 0.399768 -5.10925e-22)
(0.342897 0.456686 1.72325e-20)
(0.385616 0.502624 -2.31477e-21)
(0.422061 0.53974 -1.65201e-20)
(0.452159 0.570201 1.68857e-20)
(0.477611 0.594603 -8.64496e-21)
(0.502088 0.610388 -1.25785e-20)
(0.530559 0.611409 2.70933e-21)
(0.567681 0.5896 6.00505e-21)
(0.615874 0.538438 2.05723e-20)
(0.674154 0.456271 -4.68826e-22)
(0.738524 0.347088 -2.04828e-20)
(0.803892 0.218067 -1.96264e-21)
(0.866279 0.0764477 4.79713e-21)
(0.923325 -0.0706018 -2.82189e-21)
(0.972671 -0.213299 1.35249e-20)
(1.01076 -0.338795 -1.69425e-20)
(1.03416 -0.435421 2.64357e-21)
(1.04187 -0.498063 -3.00917e-21)
(1.03607 -0.529564 -5.94512e-21)
(1.0208 -0.537808 2.63521e-20)
(1.00018 -0.531618 -6.20272e-21)
(0.97729 -0.518108 -1.55033e-21)
(0.95385 -0.501944 1.41326e-20)
(0.930494 -0.485749 -1.55513e-20)
(0.907164 -0.470737 -4.32843e-21)
(0.883526 -0.457249 4.1714e-21)
(0.8591 -0.445424 3.09935e-21)
(0.832969 -0.435839 -1.59206e-21)
(0.80367 -0.429077 -4.9583e-21)
(0.770079 -0.423599 1.09615e-20)
(0.733018 -0.413443 -6.67885e-21)
(0.696157 -0.388672 -3.64261e-21)
(0.664975 -0.33963 2.90801e-21)
(0.644309 -0.262459 1.29155e-20)
(0.636611 -0.16151 -2.0208e-20)
(0.642093 -0.0473952 1.44737e-20)
(0.65931 0.0672842 -3.07522e-21)
(0.685419 0.171621 1.67115e-21)
(0.716763 0.258434 -2.37757e-21)
(0.749707 0.325109 -3.36744e-21)
(0.781377 0.372587 8.07975e-21)
(0.810059 0.404038 -1.43665e-21)
(0.834889 0.424274 -8.02125e-21)
(0.855276 0.439656 2.2297e-21)
(0.870699 0.456805 6.79838e-21)
(0.881012 0.479317 -3.62944e-21)
(0.886705 0.504356 6.63985e-21)
(0.888727 0.522209 -1.53081e-20)
(0.888082 0.51963 9.09763e-21)
(0.885721 0.484799 5.90713e-21)
(0.0635649 -0.316436 1.72569e-20)
(0.0497834 -0.245379 -1.66783e-20)
(0.0522743 -0.163378 4.88977e-21)
(0.0675636 -0.0709577 6.32508e-21)
(0.0972105 0.0263307 -2.20631e-21)
(0.136843 0.123317 -3.72304e-21)
(0.182563 0.214719 -2.04791e-21)
(0.23155 0.297309 2.71573e-21)
(0.280967 0.369115 3.77349e-21)
(0.328317 0.429591 -2.84158e-21)
(0.37156 0.479507 1.81537e-22)
(0.409442 0.520537 -8.52592e-21)
(0.44199 0.554302 1.11675e-21)
(0.470993 0.580911 4.94677e-21)
(0.50007 0.597573 2.41986e-21)
(0.533897 0.598331 -1.19576e-20)
(0.576614 0.575714 2.3036e-20)
(0.630051 0.523986 -2.2448e-20)
(0.692739 0.442142 -2.53173e-21)
(0.760446 0.334416 3.79153e-20)
(0.828149 0.20775 -3.49647e-20)
(0.892147 0.0688457 2.74905e-20)
(0.950276 -0.0755803 -9.59658e-21)
(1.00003 -0.21579 5.48656e-21)
(1.03751 -0.338809 -4.86538e-20)
(1.05915 -0.43301 3.16845e-20)
(1.06423 -0.49356 -3.38011e-20)
(1.05544 -0.523595 3.01036e-20)
(1.03729 -0.531072 2.4229e-21)
(1.01415 -0.524667 1.68315e-22)
(0.989156 -0.511246 -1.62071e-20)
(0.964001 -0.495246 7.0821e-23)
(0.939254 -0.479131 1.80614e-20)
(0.914799 -0.464056 -3.93233e-21)
(0.890242 -0.45035 -5.6454e-21)
(0.8651 -0.438071 1.06783e-20)
(0.838552 -0.427628 -7.83785e-21)
(0.809221 -0.41964 2.60784e-21)
(0.775831 -0.413144 1.72225e-21)
(0.738779 -0.403221 -4.61091e-21)
(0.701277 -0.380788 -2.23525e-21)
(0.6687 -0.336145 7.08809e-21)
(0.646233 -0.26444 -5.05699e-21)
(0.636767 -0.168757 6.65885e-21)
(0.640727 -0.0587389 -7.27136e-21)
(0.656768 0.0533198 -1.35922e-21)
(0.68207 0.156683 4.05525e-21)
(0.713014 0.243915 1.74493e-22)
(0.746017 0.311988 -1.32795e-21)
(0.778187 0.361351 -4.99693e-21)
(0.807736 0.394754 -1.59381e-21)
(0.833693 0.416756 4.71055e-21)
(0.855387 0.433616 5.86642e-21)
(0.872294 0.451982 -4.47445e-21)
(0.884311 0.475601 -5.62538e-21)
(0.89195 0.501893 1.26663e-20)
(0.896107 0.521378 -6.69364e-21)
(0.897676 0.520853 -1.13171e-20)
(0.897465 0.488279 1.55929e-20)
(0.0931561 -0.251404 5.19791e-21)
(0.0814203 -0.179492 2.73552e-21)
(0.0846516 -0.0952998 -9.50082e-22)
(0.104243 -0.00312727 -3.21457e-21)
(0.136289 0.0902591 1.08447e-21)
(0.176581 0.18066 3.81072e-21)
(0.22195 0.264045 -9.4553e-21)
(0.269208 0.338021 8.7799e-21)
(0.315618 0.401622 -6.91085e-22)
(0.359027 0.455151 -1.21341e-21)
(0.398179 0.49977 9.26231e-23)
(0.43315 0.536554 9.70196e-21)
(0.46574 0.565164 -1.28929e-20)
(0.499417 0.582648 -8.62197e-21)
(0.538488 0.583287 1.22314e-20)
(0.586556 0.560217 1.64834e-20)
(0.644891 0.508424 -4.37948e-20)
(0.711609 0.42745 1.21436e-20)
(0.782311 0.321678 1.59405e-20)
(0.852104 0.197758 3.99124e-20)
(0.917576 0.0618512 -1.62636e-20)
(0.976733 -0.0797265 -2.06438e-20)
(1.02686 -0.217232 -3.89689e-20)
(1.06368 -0.337592 5.52821e-20)
(1.08352 -0.42928 -2.51994e-22)
(1.08599 -0.487786 -8.01163e-21)
(1.07431 -0.516514 -1.07145e-20)
(1.05341 -0.523436 -1.53302e-21)
(1.0279 -0.517027 2.31293e-20)
(1.00094 -0.503876 -7.87684e-21)
(0.974189 -0.488183 -1.43414e-20)
(0.948146 -0.472264 9.24586e-22)
(0.922646 -0.457216 2.46386e-21)
(0.897245 -0.443373 -1.13921e-22)
(0.871449 -0.43074 -3.0792e-21)
(0.844525 -0.419575 6.9021e-21)
(0.815202 -0.410471 2.65844e-21)
(0.782115 -0.402934 -5.18765e-21)
(0.745259 -0.39304 1.44087e-22)
(0.707339 -0.372655 1.53989e-21)
(0.673514 -0.332221 2.96598e-21)
(0.649239 -0.265995 -3.18298e-21)
(0.637899 -0.175737 4.88142e-21)
(0.640184 -0.0700549 -4.3913e-21)
(0.65489 0.0392349 7.06825e-21)
(0.679255 0.141501 -4.71601e-21)
(0.709672 0.229049 2.86583e-21)
(0.742616 0.298447 1.74376e-21)
(0.775186 0.349652 -5.47963e-21)
(0.805517 0.384992 -6.81185e-23)
(0.832532 0.408751 1.08753e-21)
(0.855483 0.427062 5.81361e-21)
(0.873836 0.446581 6.53466e-22)
(0.887528 0.471222 -3.89354e-21)
(0.897089 0.4987 -6.14034e-21)
(0.903373 0.519815 -3.76603e-21)
(0.907168 0.521436 8.22747e-21)
(0.909143 0.49131 9.07284e-21)
(0.149183 -0.250123 -2.65652e-21)
(0.123402 -0.188185 7.58072e-22)
(0.113492 -0.113249 1.00385e-21)
(0.120872 -0.0283733 1.52783e-21)
(0.143075 0.0600369 -4.54139e-21)
(0.176324 0.148252 2.70846e-21)
(0.216674 0.231447 -3.12424e-22)
(0.260743 0.306852 2.08221e-21)
(0.305503 0.373 -1.49925e-21)
(0.348634 0.429678 -8.06481e-21)
(0.388817 0.477495 1.41397e-21)
(0.426109 0.516986 3.41803e-21)
(0.462225 0.547403 1.5459e-21)
(0.500398 0.565683 3.8929e-21)
(0.544504 0.566386 6.44166e-21)
(0.597599 0.543234 -2.99914e-20)
(0.660433 0.491868 2.87239e-20)
(0.730771 0.412281 -5.07864e-21)
(0.804115 0.308917 2.91718e-20)
(0.87575 0.188083 -6.60688e-20)
(0.94256 0.0554136 4.60907e-20)
(1.00267 -0.0830938 2.08936e-20)
(1.05312 -0.217678 -1.92929e-21)
(1.08919 -0.335192 -3.00054e-20)
(1.10719 -0.424282 3.42885e-21)
(1.10708 -0.480796 -9.94195e-21)
(1.0926 -0.508376 2.18101e-21)
(1.0691 -0.514953 1.33283e-21)
(1.04138 -0.508744 -5.56414e-21)
(1.01262 -0.496033 5.07031e-21)
(0.98439 -0.480785 -7.21906e-21)
(0.957145 -0.465174 1.85888e-21)
(0.930679 -0.450244 -1.10826e-21)
(0.904508 -0.436341 2.72258e-21)
(0.878117 -0.423448 -1.68897e-21)
(0.850852 -0.411695 -3.1956e-21)
(0.821565 -0.4016 1.81046e-22)
(0.788855 -0.393027 7.57194e-21)
(0.752361 -0.382975 1.2627e-21)
(0.714251 -0.364324 2.95479e-22)
(0.679355 -0.327842 -5.87622e-21)
(0.653306 -0.267042 2.21828e-21)
(0.639979 -0.182346 -2.23746e-21)
(0.640439 -0.081232 8.4346e-22)
(0.653668 0.0251151 4.63184e-21)
(0.676952 0.126132 -2.15215e-21)
(0.70671 0.213875 -3.11504e-21)
(0.739482 0.284512 5.53829e-21)
(0.772351 0.337507 -4.55046e-22)
(0.803378 0.374763 -1.23756e-21)
(0.83138 0.40027 -5.44642e-21)
(0.855531 0.420005 5.48127e-21)
(0.875286 0.440616 -6.68043e-22)
(0.890613 0.466191 1.98976e-21)
(0.902065 0.494779 -3.76175e-21)
(0.910453 0.517507 4.89275e-21)
(0.916473 0.52135 -1.17342e-20)
(0.920658 0.493849 1.63776e-20)
(0.216237 -0.241584 -4.71657e-21)
(0.177829 -0.189065 6.97036e-22)
(0.154518 -0.124141 -3.43013e-21)
(0.148616 -0.0483908 -2.10051e-21)
(0.159292 0.0339312 9.07629e-21)
(0.183505 0.118475 -4.17652e-21)
(0.21718 0.200237 -1.70076e-21)
(0.256788 0.276102 1.53431e-21)
(0.298987 0.344046 2.26743e-21)
(0.341235 0.403283 -1.71776e-21)
(0.382075 0.453832 -3.74709e-21)
(0.421451 0.495684 7.43415e-21)
(0.460903 0.527717 1.01246e-20)
(0.503337 0.546793 -2.05835e-20)
(0.552156 0.547763 4.589e-21)