/*--------------------------------*- C++ -*----------------------------------*\
  =========                 |
  \\      /  F ield         | OpenFOAM: The Open Source CFD Toolbox
   \\    /   O peration     | Website:  https://openfoam.org
    \\  /    A nd           | Version:  7
     \\/     M anipulation  |
\*---------------------------------------------------------------------------*/
FoamFile
{
    version     2.0;
    format      ascii;
    class       surfaceScalarField;
    location    "5";
    object      phi;
}
// * * * * * * * * * * * * * * * * * * * * * * * * * * * * * * * * * * * * * //

dimensions      [0 3 -1 0 0 0 0];

internalField   nonuniform List<scalar> 
22315
(
-5.76247e-06
5.76246e-06
1.20893e-11
-1.94178e-05
1.36553e-05
-1.45725e-11
-3.86846e-05
1.92669e-05
-9.05611e-11
-6.13474e-05
2.2663e-05
-1.95549e-10
-8.52107e-05
2.38636e-05
-3.1126e-10
-0.000108044
2.28336e-05
-4.19128e-10
-0.000127499
1.94553e-05
-5.15207e-10
-0.000141018
1.35203e-05
-6.05698e-10
-0.00014574
4.72207e-06
-6.8487e-10
-0.000138409
-7.32982e-06
-7.4545e-10
-0.000115366
-2.30425e-05
-7.8842e-10
-7.27083e-05
-4.26567e-05
-8.12408e-10
-6.92418e-06
-6.57833e-05
-8.16414e-10
8.39037e-05
-9.08271e-05
-8.00423e-10
-0.000114818
-7.64931e-10
0.000198722
-5.63673e-06
1.13992e-05
-1.89474e-05
2.6966e-05
-3.76436e-05
3.79631e-05
-5.94913e-05
4.45107e-05
-8.22654e-05
4.66377e-05
-0.000103694
4.42626e-05
-0.000121378
3.71389e-05
-0.000132696
2.4838e-05
-0.000134708
6.73432e-06
-0.000124069
-1.79691e-05
-9.70023e-05
-5.0109e-05
-4.94566e-05
-9.02024e-05
2.22942e-05
-0.000137534
0.000120392
-0.000188925
-0.00023853
0.000244104
-5.38802e-06
1.67872e-05
-1.80159e-05
3.95939e-05
-3.55807e-05
5.55279e-05
-5.58112e-05
6.47412e-05
-7.64233e-05
6.72498e-05
-9.50651e-05
6.29043e-05
-0.000109233
5.13073e-05
-0.000116183
3.17872e-05
-0.000112823
3.37434e-06
-9.56274e-05
-3.51643e-05
-6.05984e-05
-8.5138e-05
-3.38562e-06
-0.000147415
8.01213e-05
-0.000221041
0.000192532
-0.000301336
-0.000379699
0.000333702
-5.02175e-06
2.1809e-05
-1.66413e-05
5.12134e-05
-3.25328e-05
7.14194e-05
-5.03693e-05
8.25777e-05
-6.77795e-05
8.46601e-05
-8.22926e-05
7.74175e-05
-9.12551e-05
6.02698e-05
-9.17377e-05
3.22698e-05
-8.04324e-05
-7.93094e-06
-5.3554e-05
-6.20427e-05
-6.787e-06
-0.000131905
6.46189e-05
-0.000218821
0.000165369
-0.000321792
0.000298692
-0.000434658
-0.000546258
0.00046525
-4.54563e-06
2.63546e-05
-1.48493e-05
6.1517e-05
-2.85529e-05
8.5123e-05
-4.32552e-05
9.728e-05
-5.64707e-05
9.78756e-05
-6.55741e-05
8.65208e-05
-6.7717e-05
6.24127e-05
-5.97347e-05
2.42875e-05
-3.80413e-05
-2.96244e-05
1.47517e-06
-0.000101559
6.35165e-05
-0.000193946
0.000153339
-0.000308643
0.000276335
-0.000444788
0.000436522
-0.000594845
-0.000745233
0.000635498
-3.96929e-06
3.03239e-05
-1.26723e-05
7.02201e-05
-2.37077e-05
9.61583e-05
-3.45818e-05
0.000108154
-4.26695e-05
0.000105963
-4.51584e-05
8.90097e-05
-3.89661e-05
5.62204e-05
-2.0647e-05
5.9684e-06
1.37118e-05
-6.39832e-05
6.85979e-05
-0.000156445
0.000149159
-0.000274507
0.000261195
-0.00042068
0.000410863
-0.000594456
0.000603064
-0.000787046
-0.000982529
0.00084036
-3.30371e-06
3.36276e-05
-1.01474e-05
7.70638e-05
-1.8074e-05
0.000104085
-2.44797e-05
0.00011456
-2.65763e-05
0.00010806
-2.13355e-05
8.37689e-05
-5.40716e-06
4.0292e-05
2.49716e-05
-2.44104e-05
7.40785e-05
-0.00011309
0.000146812
-0.000229179
0.000248783
-0.000376478
0.000386351
-0.000558248
0.000566434
-0.000774539
0.000794863
-0.00101548
-0.00126275
0.00107508
-2.56071e-06
3.61883e-05
-7.31476e-06
8.18178e-05
-1.17354e-05
0.000108506
-1.30915e-05
0.000115916
-8.41071e-06
0.000103379
5.57572e-06
6.97825e-05
3.25126e-05
1.33551e-05
7.65082e-05
-6.8406e-05
0.000142229
-0.000178811
0.000234997
-0.000321946
0.000360882
-0.000502363
0.000526764
-0.00072413
0.000740257
-0.000988032
0.00100809
-0.00128331
-0.00158908
0.00133442
-1.75233e-06
3.79406e-05
-4.21549e-06
8.4281e-05
-4.77822e-06
0.000109068
-5.6522e-07
0.000111703
1.15974e-05
9.12166e-05
3.52397e-05
4.61402e-05
7.43209e-05
-2.57262e-05
0.000133312
-0.000127397
0.000217277
-0.000262775
0.000331956
-0.000436625
0.000483842
-0.00065425
0.000680249
-0.000920537
0.000929343
-0.00123713
0.00123867
-0.00159264
-0.00196317
0.00161277
-8.90444e-07
3.88311e-05
-8.8941e-07
8.428e-05
2.7119e-06
0.000105467
1.29498e-05
0.000101465
3.32166e-05
7.09498e-05
6.73163e-05
1.20405e-05
0.000119536
-7.79454e-05
0.000194714
-0.000202575
0.000298307
-0.000366369
0.000436445
-0.000574763
0.000615978
-0.000833783
0.000844525
-0.00114908
0.00113058
-0.00152318
0.00148233
-0.00194439
-0.00238514
0.0019043
1.91868e-08
3.88119e-05
2.6239e-06
8.16752e-05
1.06533e-05
9.74376e-05
2.73119e-05
8.48063e-05
5.62218e-05
4.20399e-05
0.000101471
-3.32089e-05
0.000167678
-0.000144152
0.000260044
-0.00029494
0.000384395
-0.00049072
0.000547199
-0.000737568
0.000755565
-0.00104215
0.00101725
-0.00141076
0.00134077
-0.0018467
0.00173472
-0.00233835
-0.00285347
0.00220305
9.5472e-07
3.78572e-05
6.29165e-06
7.63383e-05
1.89717e-05
8.47575e-05
4.2388e-05
6.139e-05
8.04006e-05
4.02734e-06
0.000137385
-9.01933e-05
0.000218284
-0.000225051
0.000328644
-0.0004053
0.000474619
-0.000636696
0.000662942
-0.000925891
0.000900853
-0.00128006
0.00119603
-0.00170594
0.00155666
-0.00220734
0.00199142
-0.00277311
-0.00336504
0.002503
1.92063e-06
3.59365e-05
1.00846e-05
6.81743e-05
2.76015e-05
6.72407e-05
5.80585e-05
3.0933e-05
0.000105558
-4.34718e-05
0.000174758
-0.000159393
0.000270911
-0.000321205
0.000399875
-0.000534264
0.000568073
-0.000804894
0.000782401
-0.00114022
0.00105007
-0.00154773
0.00137844
-0.00203431
0.00177497
-0.00260386
0.002248
-0.00324615
-0.00391519
0.00279815
2.90659e-06
3.303e-05
1.3979e-05
5.71019e-05
3.64869e-05
4.47327e-05
7.42187e-05
-6.7988e-06
0.000131517
-0.00010077
0.000213312
-0.000241188
0.000325139
-0.000433032
0.000473117
-0.000682242
0.000663858
-0.000995635
0.000904296
-0.00138066
0.00120143
-0.00184487
0.00156203
-0.0023949
0.00199237
-0.00303421
0.00250003
-0.00375381
-0.00449778
0.00308262
3.90873e-06
2.91212e-05
1.79563e-05
4.30543e-05
4.55825e-05
1.71066e-05
9.07785e-05
-5.19948e-05
0.000158121
-0.000168112
0.000252791
-0.000335858
0.000380569
-0.00056081
0.000547767
-0.00084944
0.000761081
-0.00120895
0.00102733
-0.00164691
0.0013531
-0.00217064
0.00174426
-0.00278606
0.00220553
-0.00349548
0.00274315
-0.00429143
-0.00510534
0.00335072
4.92486e-06
2.41964e-05
2.20038e-05
2.59754e-05
5.4852e-05
-1.57416e-05
0.000107662
-0.000104804
0.000185228
-0.000245679
0.000292956
-0.000443586
0.000436814
-0.000704668
0.000623223
-0.00103585
0.000858838
-0.00144456
0.00115019
-0.00193826
0.0015032
-0.00252365
0.00192258
-0.00320543
0.00241112
-0.00398402
0.00297312
-0.00485343
-0.0057294
0.00359718
5.95422e-06
1.82421e-05
2.61126e-05
5.817e-06
6.4267e-05
-5.3896e-05
0.000124801
-0.000165339
0.00021271
-0.000333588
0.000333577
-0.000564452
0.000493492
-0.000864583
0.000698879
-0.00124124
0.000956197
-0.00170188
0.00127149
-0.00225356
0.00164979
-0.00290195
0.00209436
-0.00365
0.00260584
-0.00449551
0.00318586
-0.00543344
-0.00636107
0.00381752
6.9972e-06
1.12449e-05
3.02774e-05
-1.74632e-05
7.38041e-05
-9.74227e-05
0.000142139
-0.000233673
0.000240443
-0.000431892
0.000374425
-0.000698435
0.000550212
-0.00104037
0.000774101
-0.00146513
0.00105218
-0.00197996
0.00138981
-0.00259118
0.00179087
-0.00330301
0.00225697
-0.0041161
0.00278659
-0.00502512
0.00337751
-0.00602436
-0.00699207
0.0040085
8.05487e-06
3.19007e-06
3.44943e-05
-4.39026e-05
8.34423e-05
-0.000146371
0.000159615
-0.000309846
0.000268299
-0.000540576
0.000415262
-0.000845398
0.00060656
-0.00123167
0.000848219
-0.00170678
0.00114577
-0.00227751
0.00150362
-0.00294903
0.00192434
-0.00372374
0.00240786
-0.00459962
0.00295072
-0.00556798
0.0035452
-0.00661884
-0.00761667
0.0041698
9.1285e-06
-5.93843e-06
3.87599e-05
-7.3534e-05
9.31599e-05
-0.000200771
0.000177167
-0.000393853
0.000296143
-0.000659552
0.000455831
-0.00100509
0.000662094
-0.00143793
0.000920515
-0.00196521
0.00123585
-0.00259285
0.00161135
-0.00332453
0.00204805
-0.00416044
0.00254424
-0.00509581
0.00309553
-0.00611926
0.00369041
-0.00721373
-0.00823048
0.00430422
1.0219e-05
-1.61575e-05
4.3069e-05
-0.000106384
0.000102931
-0.000260633
0.000194726
-0.000485648
0.000323824
-0.000788651
0.000495847
-0.00117711
0.000716327
-0.00165841
0.000990221
-0.0022391
0.00132128
-0.00292391
0.00171136
-0.0037146
0.00215974
-0.00460882
0.00266293
-0.00559901
0.00321554
-0.00667187
0.00381378
-0.00781197
-0.00895931
0.00454261
1.13267e-05
-2.74842e-05
4.74138e-05
-0.000142471
0.000112723
-0.000325942
0.000212206
-0.000585131
0.000351167
-0.000927612
0.000534994
-0.00136093
0.000768734
-0.00189215
0.00105653
-0.00252689
0.0014009
-0.00326828
0.00180205
-0.00411576
0.00225734
-0.0050641
0.00276117
-0.00610284
0.00330624
-0.00721694
0.00388458
-0.00839031
-0.00959929
0.00452457
1.24505e-05
-3.99347e-05
5.17821e-05
-0.000181803
0.000122494
-0.000396654
0.000229508
-0.000692145
0.000377973
-0.00107608
0.000572919
-0.00155588
0.000818749
-0.00213798
0.00111858
-0.00282673
0.00147352
-0.00362322
0.00188196
-0.00452419
0.00233915
-0.00552129
0.00283733
-0.00660102
0.00336677
-0.00774638
0.00391535
-0.00893889
-0.010172
0.00448803
1.35879e-05
-5.35225e-05
5.61564e-05
-0.000224371
0.00013219
-0.000472688
0.000246512
-0.000806466
0.000404015
-0.00123358
0.000609238
-0.0017611
0.000865773
-0.00239452
0.00117554
-0.0031365
0.00153805
-0.00398572
0.00194977
-0.00493591
0.00240388
-0.0059754
0.00289064
-0.00708778
0.0033984
-0.00825415
0.00391359
-0.00945409
-0.0106877
0.00442935
1.47346e-05
-6.82571e-05
6.05134e-05
-0.00027015
0.000141748
-0.000553922
0.000263078
-0.000927796
0.000429037
-0.00139954
0.000643534
-0.0019756
0.000909185
-0.00266017
0.00122655
-0.00345386
0.00159343
-0.0043526
0.00200435
-0.00534683
0.0024506
-0.00642165
0.00292082
-0.007558
0.00340226
-0.00873558
0.00388143
-0.00993326
-0.0111532
0.00434689
1.58846e-05
-8.41417e-05
6.48239e-05
-0.000319089
0.000151088
-0.000640187
0.00027905
-0.00105576
0.000452763
-0.00157325
0.000675369
-0.00219821
0.000948358
-0.00293316
0.00127081
-0.00377631
0.00163874
-0.00472053
0.00204483
-0.00575293
0.00247873
-0.00685555
0.002928
-0.00800727
0.00337956
-0.00918714
0.003821
-0.0103747
-0.0115727
0.00424049
1.70299e-05
-0.000101172
6.90522e-05
-0.000371112
0.000160123
-0.000731258
0.000294252
-0.00118989
0.000474897
-0.0017539
0.000704293
-0.0024276
0.000982678
-0.00321154
0.00130755
-0.00410119
0.00167317
-0.00508615
0.00207055
-0.0061503
0.00248804
-0.00727304
0.00291268
-0.00843191
0.00333179
-0.00960625
0.00373468
-0.0107776
-0.0119493
0.00411126
1.81608e-05
-0.000119332
7.31574e-05
-0.000426108
0.000168754
-0.000826854
0.000308497
-0.00132963
0.000495131
-0.00194053
0.000729859
-0.00266233
0.00101156
-0.00349324
0.00133612
-0.00442574
0.00169612
-0.00544616
0.00208113
-0.00653531
0.00247865
-0.00767057
0.00287573
-0.00882899
0.0032607
-0.00999122
0.00362497
-0.0111419
-0.0122854
0.00396108
1.92658e-05
-0.000138598
7.70934e-05
-0.000483936
0.000176872
-0.000926633
0.000321587
-0.00147435
0.000513152
-0.0021321
0.000751632
-0.00290081
0.00103447
-0.00377608
0.00135596
-0.00474723
0.00170715
-0.00579734
0.00207646
-0.00690462
0.002451
-0.00804511
0.00281834
-0.00919633
0.00316825
-0.0103411
0.00349441
-0.011468
-0.0125832
0.00379226
2.03322e-05
-0.00015893
8.08106e-05
-0.000544414
0.000184366
-0.00103019
0.000333322
-0.0016233
0.000528658
-0.00232743
0.000769208
-0.00314136
0.00105095
-0.00405783
0.00136665
-0.00506292
0.00170602
-0.00613672
0.00205671
-0.00725531
0.00240584
-0.00839424
0.00274192
-0.00953241
0.00305652
-0.0106557
0.00334555
-0.0117571
-0.0128449
0.00360721
2.13462e-05
-0.000180277
8.42565e-05
-0.000607324
0.00019112
-0.00113705
0.000343502
-0.00177568
0.000541356
-0.00252529
0.000782222
-0.00338223
0.00106062
-0.00433623
0.0013679
-0.0053702
0.00169271
-0.00646152
0.00202226
-0.00758487
0.00234412
-0.0087161
0.0026481
-0.00983638
0.00292766
-0.0109353
0.00318089
-0.0120103
-0.0130723
0.00340833
2.22933e-05
-0.00020257
8.73773e-05
-0.000672408
0.000197018
-0.00124669
0.000351937
-0.0019306
0.000550981
-0.00272433
0.000790366
-0.00362161
0.00106321
-0.00460907
0.00135959
-0.00566658
0.00166739
-0.00676932
0.00197375
-0.00789123
0.00226704
-0.00900938
0.00253857
-0.0101079
0.00278381
-0.0111805
0.00300276
-0.0122292
-0.0132674
0.00319787
2.31583e-05
-0.000225728
9.01192e-05
-0.000739369
0.00020195
-0.00135852
0.000358446
-0.0020871
0.000557298
-0.00292318
0.000793393
-0.00385771
0.00105852
-0.0048742
0.00134173
-0.00594979
0.0016304
-0.00705799
0.00191198
-0.00817281
0.00217588
-0.00927328
0.00241512
-0.0103472
0.00262704
-0.0113924
0.00281333
-0.0124155
-0.013432
0.00297789
2.39264e-05
-0.000249655
9.24295e-05
-0.000807872
0.000205807
-0.0014719
0.00036287
-0.00224416
0.000560111
-0.00312042
0.000791124
-0.00408872
0.00104651
-0.00512958
0.00131449
-0.00621777
0.00158226
-0.00732577
0.00183787
-0.00842841
0.00207203
-0.00950745
0.00227948
-0.0105546
0.00245932
-0.0115723
0.0026146
-0.0125708
-0.0135676
0.00275022
2.45827e-05
-0.000274237
9.42582e-05
-0.000877548
0.000208495
-0.00158614
0.000365068
-0.00240073
0.000559268
-0.00331462
0.000783457
-0.00431291
0.0010272
-0.00537332
0.00127814
-0.00646871
0.0015236
-0.00757123
0.00175248
-0.00865729
0.00195692
-0.00971189
0.00213336
-0.0107311
0.00228245
-0.0117214
0.00240833
-0.0126967
-0.0136758
0.00251648
2.51131e-05
-0.00029935
9.55589e-05
-0.000947994
0.000209928
-0.00170051
0.000364928
-0.00255573
0.000554665
-0.00350436
0.000770361
-0.00452861
0.00100073
-0.00560369
0.0012331
-0.00670108
0.00145517
-0.00779331
0.0016569
-0.00885901
0.00183195
-0.00988694
0.00197836
-0.0108775
0.0020981
-0.0118411
0.00219608
-0.0127947
-0.0137577
0.00227805
2.55043e-05
-0.000324855
9.629e-05
-0.00101878
0.000210033
-0.00181425
0.000362363
-0.00270806
0.000546245
-0.00368824
0.000751881
-0.00473424
0.00096733
-0.00581914
0.00117986
-0.00691362
0.00137779
-0.00799124
0.00155227
-0.00903349
0.0016985
-0.0100332
0.00181597
-0.0109949
0.00190774
-0.0119329
0.00197921
-0.0128661
-0.0138147
0.00203614
2.57442e-05
-0.000350599
9.64157e-05
-0.00108945
0.000208753
-0.00192659
0.000357318
-0.00285663
0.000534002
-0.00386492
0.00072813
-0.00492837
0.000927319
-0.00601833
0.00111901
-0.00710531
0.00129233
-0.00816455
0.00143972
-0.00918089
0.00155788
-0.0101513
0.00164757
-0.0110846
0.0017127
-0.011998
0.00175893
-0.0129124
-0.0138476
0.0017918
2.58221e-05
-0.000376421
9.59062e-05
-0.00115953
0.000206047
-0.00203673
0.000349769
-0.00300035
0.000517978
-0.00403313
0.000699284
-0.00510968
0.000881072
-0.00620011
0.00105117
-0.0072754
0.00119967
-0.00831305
0.00132036
-0.00930158
0.00141131
-0.0102423
0.0014744
-0.0111477
0.00151415
-0.0120378
0.00153625
-0.0129345
-0.0138572
0.00154592
2.57291e-05
-0.00040215
9.47391e-05
-0.00122854
0.00020189
-0.00214388
0.00033972
-0.00313818
0.00049826
-0.00419167
0.000665577
-0.00527699
0.000829027
-0.00636356
0.000977013
-0.00742339
0.00110071
-0.00843675
0.00119525
-0.00939612
0.00125995
-0.010307
0.0012976
-0.0111854
0.00131311
-0.0120533
0.00131208
-0.0129334
-0.0138444
0.00129927
2.54579e-05
-0.000427608
9.2899e-05
-0.00129599
0.000196275
-0.00224726
0.000327207
-0.00326911
0.000474978
-0.00433944
0.000627288
-0.0054293
0.000771664
-0.00650794
0.00089724
-0.00754896
0.000996344
-0.00853586
0.00106539
-0.00946517
0.00110483
-0.0103464
0.00111814
-0.0111987
0.00111048
-0.0120456
0.00108718
-0.0129101
-0.0138098
0.00105253
2.5003e-05
-0.000452611
9.03784e-05
-0.00136136
0.000189212
-0.00234609
0.000312292
-0.00339219
0.000448298
-0.00447545
0.000584739
-0.00556575
0.000709493
-0.00663269
0.000812549
-0.00765202
0.000887419
-0.00861073
0.000931737
-0.00950949
0.0009469
-0.0103616
0.000936938
-0.0111887
0.000907038
-0.0120157
0.00086223
-0.0128653
-0.0137538
0.000806279
2.43612e-05
-0.000476972
8.7177e-05
-0.00142418
0.000180725
-0.00243964
0.000295066
-0.00350653
0.00041842
-0.0045988
0.000538283
-0.00568561
0.000643041
-0.00673745
0.000723635
-0.00773261
0.000774755
-0.00866185
0.000795153
-0.00952989
0.000787029
-0.0103534
0.000754767
-0.0111565
0.000703483
-0.0119644
0.000637825
-0.0127997
-0.013677
0.000561053
2.35311e-05
-0.000500503
8.33025e-05
-0.00148395
0.000170857
-0.00252719
0.00027564
-0.00361132
0.00038557
-0.00470873
0.000488296
-0.00578834
0.000572845
-0.006822
0.000631175
-0.00779094
0.000659124
-0.0086898
0.000656447
-0.00952721
0.000625987
-0.010323
0.000572331
-0.0111028
0.000500417
-0.0118925
0.000414475
-0.0127137
-0.0135799
0.000317304
2.25135e-05
-0.000523017
7.87695e-05
-0.0015402
0.000159661
-0.00260808
0.000254147
-0.0037058
0.000349996
-0.00480458
0.000435167
-0.00587351
0.000499441
-0.00688627
0.000535825
-0.00782733
0.000541252
-0.00869522
0.000516355
-0.00950231
0.000464469
-0.0102711
0.000390254
-0.0110286
0.000298396
-0.0118007
0.000192661
-0.012608
-0.0134625
7.52574e-05
2.13112e-05
-0.000544328
7.35997e-05
-0.00159249
0.000147208
-0.00268169
0.000230738
-0.00378933
0.000311965
-0.00488581
0.000379296
-0.00594084
0.000423356
-0.00693033
0.00043821
-0.00784218
0.000421812
-0.00867882
0.000375546
-0.00945605
0.0003031
-0.0101986
0.000209086
-0.0109346
9.78979e-05
-0.0116895
-2.69179e-05
-0.0124832
-0.0133253
-0.000164088
1.99288e-05
-0.000564257
6.7821e-05
-0.00164039
0.000133575
-0.00274745
0.000205576
-0.00386133
0.000271752
-0.00495198
0.000321084
-0.00599017
0.000345102
-0.00695435
0.00033892
-0.007836
0.000301426
-0.00864133
0.00023463
-0.00938925
0.000142437
-0.0101064
2.93184e-05
-0.0108215
-0.000100678
-0.0115595
-0.000244612
-0.0123392
-0.0131691
-0.000400824
1.83729e-05
-0.00058263
6.14673e-05
-0.00168348
0.000118853
-0.00280483
0.000178838
-0.00392132
0.000229641
-0.00500279
0.000260927
-0.00602146
0.000265174
-0.0069586
0.00023851
-0.00780933
0.000180667
-0.00858349
9.41552e-05
-0.00930274
-1.70167e-05
-0.00999528
-0.000148575
-0.0106899
-0.000296883
-0.0114112
-0.000459355
-0.0121768
-0.0129938
-0.000634598
1.66518e-05
-0.000599282
5.45778e-05
-0.00172141
0.00010314
-0.00285339
0.000150706
-0.00396888
0.00018592
-0.005038
0.000199214
-0.00603475
0.000184041
-0.00694343
0.000137497
-0.00776279
6.00591e-05
-0.00850605
-4.53773e-05
-0.0091973
-0.00017479
-0.00986586
-0.000324205
-0.0105405
-0.000490368
-0.011245
-0.000671039
-0.0119961
-0.0127999
-0.000865029
1.47755e-05
-0.000614057
4.7196e-05
-0.00175383
8.65408e-05
-0.00289274
0.000121371
-0.00400371
0.000140873
-0.0050575
0.000136322
-0.0060302
0.000102149
-0.00690925
3.63599e-05
-0.007697
-5.99208e-05
-0.00840977
-0.000183516
-0.00907371
-0.000330487
-0.00971889
-0.000497186
-0.0103738
-0.000680778
-0.0110614
-0.000879345
-0.0117975
-0.0125874
-0.00109181
1.27555e-05
-0.000626813
3.93694e-05
-0.00178044
6.9164e-05
-0.00292253
9.10244e-05
-0.00402557
9.47831e-05
-0.00506126
7.26129e-05
-0.00600803
1.99177e-05
-0.00685656
-6.44602e-05
-0.00761262
-0.000178838
-0.00829539
-0.000319856
-0.00893269
-0.000483725
-0.00955502
-0.000667169
-0.0101903
-0.00086778
-0.0108608
-0.00108396
-0.0115813
-0.0123567
-0.00131464
1.06045e-05
-0.000637417
3.11487e-05
-0.00180098
5.11233e-05
-0.00294251
5.98601e-05
-0.00403431
4.79205e-05
-0.00504932
8.44372e-06
-0.00596855
-6.22663e-05
-0.00678585
-0.000164558
-0.00751033
-0.000296299
-0.00816365
-0.000454026
-0.00877496
-0.000634159
-0.00937489
-0.000833822
-0.00999067
-0.00105105
-0.0106436
-0.00128456
-0.0113478
-0.012108
-0.00153323
8.33664e-06
-0.000645754
2.25866e-05
-0.00181523
3.25327e-05
-0.00295245
2.80717e-05
-0.00402985
6.4783e-07
-0.0050219
-5.5878e-05
-0.00591202
-0.00014404
-0.00669769
-0.000263564
-0.00739081
-0.000411946
-0.00801527
-0.000585694
-0.00860121
-0.000781476
-0.00917911
-0.000996835
-0.00977531
-0.00123027
-0.0104101
-0.00148084
-0.0110973
-0.0118416
-0.00174731
5.96751e-06
-0.000651721
1.37379e-05
-0.001823
1.35086e-05
-0.00295222
-4.15779e-06
-0.00401218
-4.70421e-05
-0.00497902
-0.000120045
-0.00583902
-0.000225065
-0.00659267
-0.000361138
-0.00725473
-0.000525457
-0.00785095
-0.000714557
-0.00841211
-0.000925387
-0.00896828
-0.00115591
-0.00954479
-0.00140511
-0.0101609
-0.00167247
-0.0108299
-0.0115575
-0.00195659
3.51811e-06
-0.000655239
4.65828e-06
-0.00182414
-5.83541e-06
-0.00294173
-3.66738e-05
-0.00398135
-9.46439e-05
-0.00492105
-0.000183753
-0.00574991
-0.000305035
-0.00647139
-0.000456975
-0.00710279
-0.000636541
-0.00767138
-0.000840345
-0.00820831
-0.00106563
-0.00874299
-0.00131078
-0.00929963
-0.00157528
-0.00989645
-0.00185913
-0.0105461
-0.0112558
-0.00216078
9.69925e-07
-0.000656209
-4.59976e-06
-0.00181858
-2.53917e-05
-0.00292094
-6.92557e-05
-0.00393748
-0.000142019
-0.00484828
-0.000246739
-0.00564519
-0.000383664
-0.00633446
-0.000550794
-0.00693566
-0.000744936
-0.00747724
-0.000962815
-0.00799043
-0.00120197
-0.00850384
-0.00146119
-0.00904041
-0.00174045
-0.00961719
-0.00204045
-0.0102461
-0.0109367
-0.00235958
-1.63587e-06
-0.000654573
-1.3977e-05
-0.00180623
-4.50374e-05
-0.00288988
-0.000101751
-0.00388077
-0.000188947
-0.00476109
-0.000308755
-0.00552539
-0.000460693
-0.00618252
-0.000642345
-0.00675401
-0.000850407
-0.00726918
-0.00108175
-0.00775909
-0.00133419
-0.00825139
-0.0016069
-0.00876771
-0.00190033
-0.00932375
-0.00221605
-0.00993033
-0.0106
-0.00255272
-4.24606e-06
-0.000650327
-2.34129e-05
-0.00178707
-6.46685e-05
-0.00284862
-0.000133998
-0.00381144
-0.000235223
-0.00465986
-0.00036957
-0.00539104
-0.000535886
-0.00601621
-0.000731398
-0.0065585
-0.000952742
-0.00704784
-0.00119695
-0.00751488
-0.00146212
-0.00798622
-0.00174771
-0.00848212
-0.00205466
-0.0090168
-0.00238556
-0.00959943
-0.0102457
-0.00273984
-6.89415e-06
-0.000643433
-3.28577e-05
-0.0017611
-8.41804e-05
-0.0027973
-0.000165843
-0.00372978
-0.000280655
-0.00454505
-0.000428971
-0.00524272
-0.000609027
-0.00583615
-0.000817746
-0.00634978
-0.00105175
-0.00681383
-0.00130825
-0.00725839
-0.00158558
-0.00770888
-0.00188347
-0.00818424
-0.00220322
-0.00869706
-0.00254832
-0.00925432
-0.00987415
-0.0029199
-9.55099e-06
-0.000633882
-4.22574e-05
-0.0017284
-0.000103473
-0.00273608
-0.000197141
-0.00363611
-0.000325065
-0.00441712
-0.000486765
-0.00508102
-0.000679919
-0.005643
-0.000901204
-0.00612849
-0.00114726
-0.00656778
-0.00141548
-0.00699017
-0.00170445
-0.00741991
-0.00201407
-0.00787462
-0.00234577
-0.00836536
-0.00270384
-0.00889625
-0.00948415
-0.00309384
-1.21988e-05
-0.000621683
-5.15592e-05
-0.00168904
-0.00012245
-0.00266519
-0.000227756
-0.0035308
-0.000368287
-0.00427659
-0.000542771
-0.00490654
-0.000748383
-0.00543739
-0.000981601
-0.00589528
-0.00123911
-0.00631026
-0.00151851
-0.00671077
-0.0018186
-0.00711982
-0.00213949
-0.00755374
-0.00248223
-0.00802262
-0.00284644
-0.00853203
-0.00908974
-0.00324086
-1.48213e-05
-0.000606862
-6.07129e-05
-0.00164315
-0.00014102
-0.00258489
-0.000257559
-0.00341426
-0.000410168
-0.00412398
-0.000596827
-0.00471988
-0.000814258
-0.00521995
-0.00105878
-0.00565075
-0.00132716
-0.00604188
-0.00161719
-0.00642074
-0.00192792
-0.00680908
-0.00225963
-0.00722204
-0.00261341
-0.00766883
-0.00299017
-0.00815528
-0.00868512
-0.00339479
-1.7403e-05
-0.000589459
-6.96702e-05
-0.00159088
-0.000159097
-0.00249546
-0.000286432
-0.00328693
-0.000450567
-0.00395985
-0.000648783
-0.00452166
-0.000877396
-0.00499134
-0.00113261
-0.00539554
-0.00141128
-0.00576322
-0.0017114
-0.00612062
-0.00203225
-0.00648823
-0.00237428
-0.00688001
-0.00273868
-0.00730443
-0.00312692
-0.00776703
-0.00826987
-0.00354217
-1.99289e-05
-0.00056953
-7.83852e-05
-0.00153242
-0.0001766
-0.00239724
-0.000314262
-0.00314927
-0.000489355
-0.00378475
-0.000698503
-0.00431252
-0.000937664
-0.00475218
-0.00120295
-0.00513025
-0.00149133
-0.00547484
-0.00180101
-0.00581095
-0.00213146
-0.00615777
-0.00248329
-0.00652818
-0.00285778
-0.00692995
-0.0032566
-0.0073682
-0.00784411
-0.00368236
-2.23845e-05
-0.000547146
-8.68142e-05
-0.00146799
-0.000193452
-0.00229061
-0.000340947
-0.00300177
-0.000526413
-0.00359929
-0.000745863
-0.00409307
-0.00099494
-0.0045031
-0.0012697
-0.00485549
-0.00156722
-0.00517731
-0.00188591
-0.00549226
-0.00222545
-0.00581823
-0.00258656
-0.00616707
-0.00297063
-0.00654588
-0.00337944
-0.0069594
-0.00740831
-0.00381525
-2.47562e-05
-0.00052239
-9.49161e-05
-0.00139783
-0.000209582
-0.00217594
-0.000366393
-0.00284496
-0.000561632
-0.00340405
-0.000790751
-0.00386395
-0.00104912
-0.00424474
-0.00133275
-0.00457186
-0.00163885
-0.00487121
-0.00196602
-0.00516509
-0.00231412
-0.00547013
-0.00268401
-0.00579718
-0.00307716
-0.00615273
-0.00349543
-0.00654112
-0.00696281
-0.00394093
-2.7031e-05
-0.000495359
-0.000102652
-0.00132221
-0.000224925
-0.00205367
-0.000390511
-0.00267937
-0.000594913
-0.00319965
-0.000833065
-0.0036258
-0.00110009
-0.00397771
-0.001392
-0.00427995
-0.00170613
-0.00455708
-0.00204124
-0.00482998
-0.00239738
-0.00511399
-0.00277554
-0.00541902
-0.00317728
-0.005751
-0.00360452
-0.00611388
-0.00650799
-0.00405933
-2.91964e-05
-0.000466162
-0.000109986
-0.00124142
-0.000239418
-0.00192424
-0.000413223
-0.00250557
-0.000626166
-0.0029867
-0.000872713
-0.00337925
-0.00114778
-0.00370265
-0.00144737
-0.00398036
-0.00176896
-0.0042355
-0.00211148
-0.00448746
-0.00247515
-0.00475032
-0.00286107
-0.0050331
-0.00327089
-0.00534118
-0.00370661
-0.00567815
-0.00604429
-0.00417032
-3.12409e-05
-0.000434921
-0.000116885
-0.00115578
-0.000253007
-0.00178811
-0.000434455
-0.00232412
-0.00065531
-0.00276585
-0.000909612
-0.00312495
-0.0011921
-0.00342016
-0.00149879
-0.00367367
-0.00182727
-0.00390701
-0.00217667
-0.00413806
-0.00254734
-0.00437965
-0.00294049
-0.00463994
-0.00335788
-0.00492379
-0.00380158
-0.00523446
-0.00557216
-0.00427371
-3.31538e-05
-0.000401767
-0.000123317
-0.00106561
-0.00026564
-0.00164579
-0.00045414
-0.00213562
-0.000682271
-0.00253772
-0.000943686
-0.00286353
-0.00123297
-0.00313088
-0.00154617
-0.00336047
-0.001881
-0.00357218
-0.00223673
-0.00378233
-0.00261386
-0.00400252
-0.00301373
-0.00424008
-0.00343815
-0.00449937
-0.00388928
-0.00478332
-0.00509212
-0.00436932
-3.4925e-05
-0.000366842
-0.000129254
-0.000971285
-0.000277269
-0.00149778
-0.000472219
-0.00194067
-0.000706982
-0.00230295
-0.000974868
-0.00259565
-0.00127033
-0.00283542
-0.00158945
-0.00304135
-0.00193007
-0.00323157
-0.00229159
-0.00342081
-0.00267464
-0.00361947
-0.00308066
-0.00383406
-0.00351156
-0.00406847
-0.00396957
-0.00432531
-0.00460474
-0.00445695
-3.65455e-05
-0.000330297
-0.000134671
-0.00087316
-0.000287854
-0.00134459
-0.000488639
-0.00173989
-0.000729385
-0.00206221
-0.0010031
-0.00232194
-0.00130412
-0.00253439
-0.00162858
-0.00271689
-0.00197441
-0.00288574
-0.00234117
-0.00305405
-0.00272959
-0.00323104
-0.00314121
-0.00342244
-0.00357802
-0.00363167
-0.00404231
-0.00386102
-0.00411063
-0.00453641
-3.80069e-05
-0.00029229
-0.000139544
-0.000771623
-0.000297356
-0.00118678
-0.000503352
-0.00153389
-0.000749427
-0.00181613
-0.00102832
-0.00204304
-0.00133429
-0.00222842
-0.0016635
-0.00238769
-0.00201398
-0.00253525
-0.00238541
-0.00268262
-0.00277864
-0.00283781
-0.00319528
-0.0030058
-0.00363739
-0.00318955
-0.00410734
-0.00339107
-0.00361045
-0.00460753
-3.9302e-05
-0.000252988
-0.000143853
-0.000667072
-0.000305742
-0.00102489
-0.000516315
-0.00132332
-0.000767062
-0.00156539
-0.00105049
-0.00175961
-0.00136079
-0.00191811
-0.00169415
-0.00205433
-0.00204872
-0.00218069
-0.00242426
-0.00230708
-0.00282172
-0.00244035
-0.00324279
-0.00258473
-0.00368959
-0.00274275
-0.00416455
-0.00291611
-0.00310488
-0.00467012
-4.04242e-05
-0.000212564
-0.000147579
-0.000559918
-0.000312983
-0.000859489
-0.000527493
-0.00110881
-0.000782251
-0.00131063
-0.00106957
-0.00147229
-0.00138358
-0.0016041
-0.00172051
-0.0017174
-0.00207858
-0.00182262
-0.00245766
-0.001928
-0.00285877
-0.00203924
-0.00328366
-0.00215984
-0.00373452
-0.0022919
-0.00421382
-0.00243681
-0.00259464
-0.00472406
-4.13679e-05
-0.000171196
-0.000150708
-0.000450578
-0.000319054
-0.000691143
-0.000536855
-0.000891006
-0.000794958
-0.00105252
-0.00108552
-0.00118173
-0.00140263
-0.001287
-0.00174253
-0.0013775
-0.00210353
-0.00146162
-0.00248557
-0.00154597
-0.00288973
-0.00163508
-0.00331783
-0.00173175
-0.00377209
-0.00183764
-0.00425503
-0.00195386
-0.00208047
-0.0047692
-4.21285e-05
-0.000129067
-0.000153226
-0.00033948
-0.000323936
-0.000520433
-0.000544374
-0.000670568
-0.000805158
-0.00079174
-0.00109832
-0.000888566
-0.0014179
-0.000967414
-0.00176019
-0.00103521
-0.00212353
-0.00109827
-0.00250794
-0.00116156
-0.00291456
-0.00122847
-0.00334523
-0.00130108
-0.00380223
-0.00138064
-0.00428811
-0.00146798
-0.00156314
-0.00480544
-4.27022e-05
-8.63651e-05
-0.000155124
-0.000227058
-0.000327612
-0.000347945
-0.000550032
-0.000448148
-0.000812827
-0.000528945
-0.00110793
-0.000593459
-0.00142937
-0.000645974
-0.00177345
-0.000691133
-0.00213856
-0.00073316
-0.00252475
-0.000775364
-0.00293321
-0.000820006
-0.00336582
-0.000868466
-0.00382488
-0.000921576
-0.00431298
-0.00097989
-0.00104343
-0.00483269
-4.30863e-05
-4.32788e-05
-0.000156394
-0.000113751
-0.000330069
-0.00017427
-0.000553812
-0.000224405
-0.000817949
-0.000264808
-0.00111435
-0.000297054
-0.00143703
-0.000323297
-0.0017823
-0.000345865
-0.00214859
-0.000366874
-0.00253597
-0.00038798
-0.00294566
-0.000410312
-0.00337957
-0.000434558
-0.00384001
-0.000461134
-0.00432959
-0.000490316
-0.000522114
-0.0048509
-4.32788e-05
-9.42882e-12
-0.00015703
-1.11807e-11
-0.000331299
5.06269e-12
-0.000555704
2.68419e-11
-0.000820512
4.41629e-11
-0.00111757
5.38934e-11
-0.00144086
5.70625e-11
-0.00178673
5.59559e-11
-0.0021536
5.25978e-11
-0.00254158
4.82564e-11
-0.00295189
4.36518e-11
-0.00338645
3.91058e-11
-0.00384759
3.49314e-11
-0.0043379
3.11892e-11
2.79967e-11
-0.00486002
-4.32788e-05
4.32788e-05
-0.00015703
0.000113751
-0.000331299
0.00017427
-0.000555704
0.000224405
-0.000820512
0.000264808
-0.00111757
0.000297054
-0.00144086
0.000323297
-0.00178673
0.000345865
-0.0021536
0.000366874
-0.00254158
0.00038798
-0.00295189
0.000410312
-0.00338645
0.000434558
-0.00384759
0.000461134
-0.0043379
0.000490316
0.000522114
-0.00486002
-4.30863e-05
8.63651e-05
-0.000156394