/*--------------------------------*- C++ -*----------------------------------*\
  =========                 |
  \\      /  F ield         | OpenFOAM: The Open Source CFD Toolbox
   \\    /   O peration     | Website:  https://openfoam.org
    \\  /    A nd           | Version:  7
     \\/     M anipulation  |
\*---------------------------------------------------------------------------*/
FoamFile
{
    version     2.0;
    format      ascii;
    class       volVectorField;
    location    "15";
    object      U;
}
// * * * * * * * * * * * * * * * * * * * * * * * * * * * * * * * * * * * * * //

dimensions      [0 1 -1 0 0 0 0];

internalField   nonuniform List<vector> 
5650
(
(-0.000942523 0.000700405 -1.92429e-21)
(-0.00466663 0.00148439 -9.37126e-22)
(-0.0110891 0.00183309 -1.51653e-20)
(-0.0180443 0.00186451 1.31333e-20)
(-0.0246195 0.00165766 -3.38795e-21)
(-0.030086 0.00127544 -2.05808e-20)
(-0.00103674 0.00208428 -2.05899e-21)
(-0.00480728 0.00441424 1.59159e-20)
(-0.0111284 0.00544784 2.28323e-20)
(-0.0178784 0.00553588 -3.17556e-20)
(-0.0241608 0.004914 1.47673e-20)
(-0.02926 0.00376976 -5.3577e-21)
(-0.00122076 0.00341778 -3.28791e-20)
(-0.00507864 0.00722826 4.23895e-20)
(-0.0111944 0.00890953 -6.25467e-21)
(-0.0175327 0.00903566 -4.17042e-20)
(-0.0232296 0.0079947 1.20344e-20)
(-0.0275948 0.00609579 2.66414e-20)
(-0.00148587 0.00466884 -1.46335e-20)
(-0.00546105 0.00985241 -4.26608e-20)
(-0.0112617 0.0121201 -4.63211e-20)
(-0.0169795 0.0122538 -5.67346e-21)
(-0.0217979 0.0107871 -4.4225e-20)
(-0.025064 0.00814569 -7.01933e-20)
(-0.0262615 0.00465486 8.00217e-20)
(-0.00181933 0.00580754 2.35026e-20)
(-0.00592556 0.0122173 -6.11293e-20)
(-0.0112932 0.0149874 -4.16934e-20)
(-0.0161779 0.0150868 1.4984e-19)
(-0.0198243 0.0131853 3.39991e-20)
(-0.0216281 0.00981823 9.89229e-20)
(-0.02111 0.00539526 -1.22962e-19)
(-0.00220472 0.00680688 1.23166e-19)
(-0.00643463 0.0142597 4.33543e-20)
(-0.0112403 0.0174273 1.08673e-19)
(-0.015074 0.0174398 -1.36117e-19)
(-0.017254 0.0150924 -1.60341e-19)
(-0.0172346 0.0110214 1.91308e-20)
(-0.0145817 0.00571457 -4.3923e-20)
(-0.00262239 0.0076434 -7.53549e-20)
(-0.00694292 0.0159244 -5.80325e-20)
(-0.0110437 0.0193656 1.26858e-19)
(-0.0136016 0.0192294 -5.64585e-20)
(-0.014019 0.0164234 1.7417e-19)
(-0.0118181 0.0116749 -1.18798e-19)
(-0.00661727 0.00554281 1.11862e-20)
(-0.00304996 0.00829764 2.54758e-20)
(-0.00739821 0.0171647 1.05305e-19)
(-0.0106345 0.0207396 -8.1504e-20)
(-0.0116831 0.0203853 2.53067e-20)
(-0.0100393 0.0171071 -5.72944e-21)
(-0.00530109 0.0117129 2.47353e-19)
(0.00285407 0.00482442 -4.26845e-20)
(-0.00346286 0.0087545 2.17973e-20)
(-0.00774246 0.0179439 1.25031e-19)
(-0.00993533 0.0214999 9.5992e-20)
(-0.00923053 0.0208521 2.78344e-20)
(-0.00522343 0.0170889 -6.56584e-20)
(0.00240587 0.0110864 -9.55684e-20)
(0.0139142 0.00352091 -2.21225e-19)
(-0.00383487 0.00900343 1.44131e-19)
(-0.00791288 0.0182357 -9.85881e-20)
(-0.00886142 0.0216112 2.17031e-20)
(-0.00614672 0.0205914 -1.84867e-19)
(0.000530679 0.0163321 2.33068e-19)
(0.0114028 0.00976563 -2.64999e-19)
(0.0266551 0.00161347 -1.10121e-19)
(-0.00413872 0.0090385 1.06733e-19)
(-0.00784302 0.0180247 -1.01065e-20)
(-0.00732198 0.0210532 1.96847e-21)
(-0.00232656 0.0195823 -8.19128e-21)
(0.00733397 0.0148201 -1.19597e-19)
(0.0217989 0.00774218 -2.86112e-21)
(0.0411768 -0.000894492 1.0882e-20)
(0.0655434 -0.0105092 5.11622e-19)
(-0.00434641 0.008858 -4.16649e-19)
(-0.00746399 0.0173063 -2.14339e-20)
(-0.00522159 0.019821 -1.26639e-19)
(0.00234138 0.0178233 -3.55885e-20)
(0.0153047 0.0125578 1.16898e-19)
(0.0337108 0.00503077 2.927e-19)
(0.0575855 -0.00397525 3.2712e-19)
(0.0869347 -0.0138556 -2.26003e-19)
(-0.0044295 0.00846461 1.00302e-19)
(-0.00670507 0.0160867 -2.73564e-19)
(-0.00246168 0.0179255 5.57814e-20)
(0.00797301 0.0153321 -3.72414e-20)
(0.0245662 0.00957248 1.76868e-19)
(0.0472598 0.00167079 3.77568e-20)
(0.0759904 -0.00757504 -1.88293e-20)
(0.110685 -0.0175437 1.13277e-19)
(-0.00435991 0.00786517 6.34978e-20)
(-0.005495 0.0143826 3.38715e-19)
(0.00105809 0.0153934 -2.9102e-19)
(0.0146867 0.0121463 3.13935e-19)
(0.0352444 0.00591459 -1.86677e-19)
(0.0625685 -0.0022728 1.86379e-19)
(0.0964993 -0.0116129 -3.34788e-19)
(0.136873 -0.0214758 2.43905e-19)
(-0.00410984 0.00707003 1.01594e-19)
(-0.00376285 0.0122206 -2.69421e-21)
(0.00543825 0.0122666 -1.01167e-20)
(0.0226012 0.00832367 -1.72009e-19)
(0.0474646 0.00165793 -1.99254e-19)
(0.0797572 -0.00670914 -2.19588e-19)
(0.119214 -0.0159806 -6.60587e-20)
(0.165566 -0.0255264 -1.09866e-19)
(0.218491 -0.0348556 -4.17268e-20)
(-0.00365206 0.00609285 -1.65486e-19)
(-0.0014389 0.00963704 4.44841e-20)
(0.0107778 0.00860207 4.21132e-20)
(0.0318327 0.00394099 2.58853e-19)
(0.0613485 -0.00310068 -1.39307e-19)
(0.0989391 -0.0115218 -2.4204e-19)
(0.144223 -0.0205426 3.20018e-19)
(0.196812 -0.0295433 -2.73723e-19)
(0.256242 -0.0380396 2.06625e-19)
(-0.00296013 0.00495031 9.39202e-20)
(0.00154458 0.00667694 -2.96429e-19)
(0.0171724 0.00447092 3.72061e-19)
(0.0424927 -0.000906005 -2.70605e-19)
(0.0770095 -0.00824226 2.04683e-19)
(0.120215 -0.0165698 1.09732e-19)
(0.171599 -0.0251386 -1.40516e-19)
(0.230631 -0.03335 7.23616e-20)
(0.296679 -0.0407384 -1.23191e-19)
(-0.00200848 0.00366183 7.57165e-20)
(0.00525242 0.00339376 2.12376e-19)
(0.0247128 -4.23083e-05 -4.0774e-19)
(0.0546844 -0.00610403 1.24684e-19)
(0.0945492 -0.0136271 1.17548e-19)
(0.143669 -0.0216899 2.30331e-19)
(0.201387 -0.0295853 -3.23025e-20)
(0.267007 -0.0367497 4.57591e-19)
(0.3397 -0.0427507 -3.26941e-19)
(0.418428 -0.0472641 4.06593e-19)
(-0.000772621 0.00224931 -1.78679e-19)
(0.00974572 -0.000151341 9.55401e-20)
(0.0334826 -0.00484065 -3.09777e-19)
(0.0685002 -0.0115235 6.62779e-19)
(0.114053 -0.0190966 -1.68657e-19)
(0.169359 -0.026699 -1.70482e-19)
(0.233598 -0.033681 1.85425e-20)
(0.305881 -0.0395304 6.18953e-20)
(0.385145 -0.0438662 2.26992e-19)
(0.470076 -0.0464212 1.19882e-19)
(0.000770707 0.000737016 5.05646e-19)
(0.0150808 -0.00389 1.03714e-19)
(0.0435565 -0.00981574 -3.12282e-20)
(0.0840179 -0.0170205 -2.35776e-19)
(0.135584 -0.0244761 -1.24206e-20)
(0.197316 -0.0313976 2.35492e-19)
(0.268208 -0.03721 4.79246e-19)
(0.347142 -0.041471 -5.57167e-19)
(0.432791 -0.043874 -4.05375e-19)
(0.523527 -0.0442351 -1.80306e-19)
(0.617367 -0.04248 -1.11544e-19)
(0.00264328 -0.000848576 -3.34214e-19)
(0.0213082 -0.0077472 2.96388e-20)
(0.054998 -0.014849 1.20773e-19)
(0.101298 -0.0224383 3.82027e-19)
(0.159182 -0.0295775 1.44614e-20)
(0.227537 -0.0355746 -2.4339e-19)
(0.305142 -0.0399482 -2.30165e-19)
(0.390625 -0.0423485 1.90686e-19)
(0.482349 -0.0425697 6.35993e-19)
(0.578346 -0.0405435 2.0053e-19)
(0.676281 -0.0363259 4.44607e-19)
(0.00486511 -0.0024788 -1.52041e-20)
(0.0284717 -0.0116418 -6.30138e-20)
(0.0678573 -0.0198131 -3.34556e-19)
(0.12038 -0.0276102 -2.01028e-19)
(0.184855 -0.0342032 1.58696e-19)
(0.259977 -0.0390117 2.08182e-19)
(0.34428 -0.0416698 1.07213e-19)
(0.436102 -0.0419457 -2.10023e-19)
(0.533465 -0.0397645 -1.27364e-19)
(0.634031 -0.0352077 -1.51053e-19)
(0.735107 -0.0285026 -4.37838e-19)
(0.83379 -0.0199403 -3.30653e-19)
(0.00745405 -0.00412282 -5.43091e-20)
(0.0366068 -0.0154871 -4.71801e-20)
(0.0821693 -0.0245731 -2.02937e-20)
(0.141279 -0.0323617 -4.9374e-19)
(0.21258 -0.0381497 4.01204e-20)
(0.294549 -0.0414891 -3.61467e-19)
(0.385449 -0.0421543 4.40857e-19)
(0.48329 -0.0400598 -3.47238e-19)
(0.585725 -0.0352934 2.45616e-19)
(0.69003 -0.0281205 -2.48232e-19)
(0.793165 -0.018973 6.59719e-19)
(0.891974 -0.00837149 4.85671e-20)
(0.98324 0.00277864 -4.7764e-19)
(0.0104253 -0.00574771 -1.44968e-19)
(0.0457395 -0.0191914 1.97608e-19)
(0.0979513 -0.0289882 3.64847e-19)
(0.163984 -0.0365136 2.23238e-19)
(0.242297 -0.0412118 2.35126e-19)
(0.331122 -0.0427911 -1.19118e-19)
(0.428421 -0.0411933 -2.0852e-19)
(0.531848 -0.0365098 -1.87291e-19)
(0.638666 -0.0290239 -3.94266e-19)
(0.745766 -0.0192151 1.87155e-19)
(0.849788 -0.00774142 -3.16855e-19)
(0.94739 0.00464349 -1.46746e-20)
(1.03536 0.0167793 -1.38022e-19)
(0.0137911 -0.00731844 5.24298e-20)
(0.055885 -0.0226586 -2.85661e-20)
(0.115201 -0.0329135 -4.16993e-19)
(0.188457 -0.0398848 -2.34962e-19)
(0.273908 -0.0431873 -4.12518e-19)
(0.369517 -0.0427119 3.67018e-19)
(0.472919 -0.0385975 -4.06255e-19)
(0.581387 -0.0311449 6.20088e-19)
(0.691786 -0.0208637 2.69445e-19)
(0.800645 -0.00847203 1.70229e-19)
(0.904347 0.00513686 -3.99217e-20)
(0.999454 0.0189927 -5.83357e-20)
(1.0829 0.0317779 1.23276e-19)
(1.1537 0.0442938 2.41757e-19)
(0.0175596 -0.008798 3.43871e-19)
(0.0670464 -0.0257893 -3.86536e-19)
(0.133895 -0.0362019 3.10373e-19)
(0.214627 -0.0422954 2.21497e-19)
(0.307275 -0.0438812 3.95018e-19)
(0.409512 -0.0410612 7.0711e-20)
(0.518619 -0.0342035 4.21774e-19)
(0.631476 -0.02385 -4.63069e-19)
(0.74456 -0.0107652 -6.69017e-20)
(0.854086 0.00407826 -2.1483e-19)
(0.956263 0.019556 -1.5622e-19)
(1.04769 0.0345136 -2.19612e-19)
(1.12558 0.0475685 -5.66101e-20)
(1.18914 0.059359 1.7226e-19)
(1.23435 0.060313 -3.45637e-19)
(0.021735 -0.0101476 -9.65797e-20)
(0.0792133 -0.0284816 2.91448e-19)
(0.153987 -0.0387062 -5.35369e-19)
(0.242393 -0.0435705 -1.35878e-19)
(0.342222 -0.0431104 -2.65195e-19)
(0.45084 -0.0376699 -5.96325e-19)
(0.565154 -0.0278786 -3.11552e-19)
(0.681652 -0.0145506 1.65524e-19)
(0.796456 0.00127232 1.02614e-19)
(0.905531 0.018357 -1.10917e-19)
(1.00503 0.0353667 3.04481e-19)
(1.09172 0.0510097 2.80543e-19)
(1.16327 0.0639232 4.21712e-19)
(1.21922 0.0746273 -2.21021e-19)
(1.25712 0.0750299 -4.75576e-20)
(0.0263161 -0.011327 -1.37363e-19)
(0.0923603 -0.0306323 -2.00991e-20)
(0.175406 -0.0402814 2.4137e-19)
(0.271619 -0.0435431 -3.15925e-20)
(0.378536 -0.0407081 -9.15976e-20)
(0.493193 -0.0323944 2.57833e-19)
(0.612124 -0.0195257 8.04672e-20)
(0.731437 -0.00321547 -8.38216e-20)
(0.846949 0.0152029 1.28707e-19)
(0.954472 0.0342422 4.06748e-19)
(1.05023 0.052386 -4.26042e-19)
(1.13131 0.0682649 -1.12723e-19)
(1.19596 0.0806139 -5.0106e-20)
(1.2442 0.0899038 2.9103e-19)
(1.27497 0.0895486 2.07265e-19)
(0.0312963 -0.0122948 2.59999e-19)
(0.106446 -0.0321384 -1.46959e-21)
(0.198057 -0.0407871 1.14644e-19)
(0.302141 -0.0420579 4.3023e-19)
(0.415967 -0.0365276 2.48514e-19)
(0.536234 -0.025121 -2.20825e-19)
(0.659104 -0.00908584 1.05855e-19)
(0.780345 0.0101432 9.5492e-20)
(0.895538 0.0309372 -4.62898e-19)
(1.00046 0.0515752 -4.60779e-19)
(1.09154 0.0704085 1.53798e-19)
(1.16632 0.0860579 1.54895e-19)
(1.22373 0.0974278 -1.78949e-20)
(1.2644 0.105014 -3.14407e-19)
(1.28842 0.103641 -2.09135e-19)
(0.0366629 -0.013009 2.76707e-19)
(0.121414 -0.0328986 3.62406e-20)
(0.221821 -0.0400903 -2.26915e-19)
(0.333763 -0.0389746 -2.70575e-19)
(0.454233 -0.0304464 8.4461e-20)
(0.579594 -0.0157688 3.22805e-19)
(0.705658 0.00345974 1.56157e-20)
(0.8279 0.0254705 2.29507e-19)
(0.941762 0.0483472 2.10389e-19)
(1.04311 0.07017 8.84004e-20)
(1.12872 0.0892174 2.58031e-19)
(1.19673 0.104174 -4.63896e-20)
(1.24679 0.114177 1.74764e-19)
(1.28018 0.119816 -1.51112e-19)
(1.29798 0.117179 3.75323e-19)
(0.0423964 -0.0134277 -2.55948e-19)
(0.137188 -0.0328155 -2.6477e-19)
(0.246553 -0.0380682 2.10885e-19)
(0.366258 -0.0341714 1.61083e-19)
(0.493024 -0.0223692 -2.06909e-19)
(0.622886 -0.00429246 -1.03093e-19)
(0.751342 0.0180898 2.29381e-19)
(0.873647 0.0426719 -6.05557e-19)
(0.985211 0.0672724 -6.02727e-20)
(1.08212 0.0898217 1.35388e-19)
(1.16164 0.108594 3.22305e-19)
(1.22259 0.122414 -1.28383e-20)
(1.2654 0.130705 -3.52036e-19)
(1.29195 0.134203 -7.3345e-20)
(1.30415 0.130101 -9.04909e-20)
(0.0484703 -0.01351 2.2457e-19)
(0.153677 -0.0317968 2.06268e-19)
(0.272084 -0.0346106 1.72781e-19)
(0.399377 -0.0275475 1.23427e-21)
(0.532009 -0.0122307 3.89203e-20)
(0.665712 0.00931696 1.09417e-19)
(0.795721 0.034744 -1.58604e-19)
(0.917161 0.0616172 2.16145e-19)
(1.02553 0.0875267 -1.58497e-19)
(1.11727 0.110315 3.97303e-20)
(1.19025 0.128328 -2.53792e-20)
(1.24405 0.140601 -2.8657e-19)
(1.27985 0.146883 3.18507e-19)
(1.30013 0.148098 -9.84953e-21)
(1.30738 0.142388 1.57877e-20)
(0.054851 -0.0132163 2.93434e-20)
(0.170771 -0.0297583 -6.83975e-20)
(0.298224 -0.0296231 -1.58295e-19)
(0.432846 -0.0190268 1.59388e-19)
(0.570839 2.49677e-06 1.34035e-19)
(0.70767 0.0250315 -4.6843e-20)
(0.838379 0.053325 -3.75219e-19)
(0.958062 0.0821458 5.98286e-20)
(1.06243 0.108906 2.86367e-19)
(1.14842 0.131433 -2.0416e-19)
(1.2146 0.148221 -2.03514e-19)
(1.26131 0.15858 2.01417e-19)
(1.29049 0.162615 -2.17699e-20)
(1.3051 0.161455 1.7613e-20)
(1.30808 0.154052 1.36628e-19)
(0.0614978 -0.0125099 -1.07855e-19)
(0.188346 -0.0266253 7.04942e-20)
(0.324761 -0.0230295 -1.05535e-19)
(0.466372 -0.00855956 -3.08902e-19)
(0.609156 0.0143303 -2.27462e-19)
(0.748364 0.0427867 5.69148e-20)
(0.878922 0.0737018 7.1394e-20)
(0.996014 0.104072 2.38304e-19)
(1.0957 0.131195 -2.61081e-19)
(1.17551 0.152961 2.28542e-19)
(1.23477 0.168091 -4.07522e-20)
(1.27462 0.176221 1.9263e-19)
(1.29766 0.177829 -1.61563e-19)
(1.30725 0.174247 -2.04054e-20)
(1.30663 0.165116 7.8408e-21)
(0.0683627 -0.0113575 -1.52392e-19)
(0.20626 -0.0223351 -1.68295e-19)
(0.351469 -0.0147741 -1.17389e-19)
(0.499651 0.00387522 2.79904e-19)
(0.646599 0.0307188 2.63908e-19)
(0.787409 0.0624837 -2.89476e-19)
(0.916993 0.0957138 -2.819e-20)
(1.03074 0.127191 -6.1341e-21)
(1.12517 0.154173 9.03431e-20)
(1.19852 0.174696 -1.38478e-19)
(1.25091 0.187775 -7.37249e-20)
(1.28425 0.193419 -5.34742e-20)
(1.30171 0.192473 3.61029e-20)
(1.30694 0.186465 -4.3744e-20)
(1.30333 0.17561 -1.08979e-19)
(0.0753911 -0.0097303 3.86521e-20)
(0.22436 -0.0168391 9.10654e-20)
(0.378104 -0.00482447 7.63625e-20)
(0.532369 0.0182685 -1.89669e-19)
(0.682808 0.0491002 -1.75372e-19)
(0.824443 0.0839908 1.71617e-19)
(0.952271 0.119175 -2.42415e-20)
(1.06201 0.151284 -1.82551e-20)
(1.15076 0.17762 5.5427e-20)
(1.21751 0.196446 -1.55554e-19)
(1.26322 0.207133 2.23525e-20)
(1.29048 0.210087 -3.97966e-20)
(1.30294 0.206511 -1.25074e-20)
(1.30447 0.198108 -1.13492e-20)
(1.29845 0.185567 8.78935e-20)
(0.0825223 -0.00760499 5.60829e-20)
(0.242478 -0.0101042 6.19838e-20)
(0.404413 0.00682761 9.68034e-20)
(0.564208 0.0345803 1.67623e-19)
(0.717436 0.0693737 2.53869e-20)
(0.859127 0.107147 3.59264e-20)
(0.98448 0.143877 1.78583e-20)
(1.08965 0.176124 -1.23469e-19)
(1.17243 0.20132 1.50789e-19)
(1.2326 0.218033 7.3669e-20)
(1.2719 0.226039 1.17639e-19)
(1.2936 0.226157 2.78702e-20)
(1.30169 0.219921 -2.33679e-20)
(1.30012 0.209179 3.59882e-20)
(1.29222 0.195011 -4.56628e-20)
(0.0896898 -0.00496453 7.10991e-21)
(0.26044 -0.00211488 -4.4967e-20)
(0.430136 0.0201641 7.65304e-21)
(0.594852 0.0527396 -2.17874e-20)
(0.750148 0.0914071 6.12931e-21)
(0.891158 0.131764 9.98267e-20)
(1.01339 0.169598 -3.95468e-20)
(1.11356 0.201482 1.26567e-20)
(1.19019 0.225065 -5.33374e-20)
(1.2439 0.239295 -6.74188e-20)
(1.27721 0.244389 -1.15252e-20)
(1.29389 0.241574 1.67707e-20)
(1.29821 0.232687 5.47562e-20)
(1.29414 0.219684 -1.3847e-20)
(1.28481 0.203963 5.64651e-21)
(0.0968228 -0.00179903 -1.51673e-20)
(0.278063 0.00712557 -7.22064e-21)
(0.455012 0.0351402 -3.88697e-20)
(0.623995 0.0726446 -4.22517e-20)
(0.780634 0.115039 -9.34333e-21)
(0.920267 0.157633 -1.79136e-20)
(1.03882 0.196103 2.06265e-20)
(1.13365 0.227126 -1.01574e-20)
(1.2041 0.248659 3.55926e-21)
(1.2516 0.260086 4.34593e-21)
(1.27936 0.262089 5.51759e-20)
(1.2916 0.256295 -4.36103e-21)
(1.29276 0.244797 5.81245e-21)
(1.28672 0.229629 3.82921e-20)
(1.27639 0.212436 -3.08389e-22)
(0.103847 0.00189359 6.26499e-22)
(0.29516 0.0175941 -7.15223e-21)
(0.478779 0.0516839 3.65515e-20)
(0.65134 0.0941636 -2.06701e-20)
(0.808607 0.14008 7.1636e-21)
(0.946222 0.184524 -5.72839e-21)
(1.06063 0.223148 2.01332e-21)
(1.14992 0.252831 2.70352e-21)
(1.21426 0.271916 8.03511e-21)
(1.25588 0.280274 2.19304e-20)
(1.2786 0.279063 -9.01412e-21)
(1.287 0.270282 -1.75533e-21)
(1.28557 0.256241 -5.59881e-21)
(1.27806 0.239013 -7.6417e-21)
(1.26709 0.220435 -3.61826e-21)
(0.110684 0.00610705 3.38357e-21)
(0.311544 0.0292472 1.38501e-21)
(0.501184 0.069696 1.82161e-20)
(0.676609 0.117137 -1.45121e-20)
(0.833813 0.16632 4.66592e-21)
(0.968836 0.212194 7.49222e-22)
(1.07874 0.250488 -2.79048e-21)
(1.16239 0.278376 2.28163e-21)
(1.22079 0.294662 1.32725e-20)
(1.25694 0.29974 1.01739e-20)
(1.27517 0.295241 1.33718e-23)
(1.28031 0.283505 -5.29822e-21)
(1.27684 0.267009 -3.68745e-21)
(1.26829 0.247833 -5.39101e-21)
(1.25699 0.227959 -1.58785e-21)
(0.117257 0.0108263 1.51478e-20)
(0.327028 0.0420207 -1.4558e-20)
(0.521982 0.0890513 -2.53207e-20)
(0.699547 0.141379 -3.98621e-20)
(0.856029 0.193525 -1.9912e-20)
(0.98796 0.240388 -1.78577e-20)
(1.09309 0.277877 1.08192e-20)
(1.17111 0.303549 1.34889e-20)
(1.22385 0.316737 -3.26171e-21)
(1.25498 0.318378 -6.74494e-21)
(1.26928 0.310564 4.86769e-20)
(1.27173 0.295935 -6.25425e-21)
(1.26672 0.277088 5.77664e-21)
(1.25755 0.256082 2.01174e-20)
(1.2462 0.234999 3.49432e-21)
(0.123487 0.0160273 3.24476e-20)
(0.341433 0.0558299 -2.22633e-20)
(0.540943 0.109599 -2.84735e-20)
(0.719924 0.16668 9.62669e-21)
(0.87507 0.221446 1.27273e-20)
(1.00349 0.268846 6.34489e-20)
(1.10369 0.305069 -1.56629e-20)
(1.17618 0.328149 2.80483e-20)
(1.22359 0.337992 -7.18523e-20)
(1.25021 0.336094 -1.25138e-20)
(1.26116 0.324979 -4.51187e-20)
(1.26147 0.307544 3.10279e-20)
(1.25537 0.286463 8.56592e-21)
(1.24593 0.263747 8.1971e-21)
(1.23478 0.241541 -4.05232e-21)
(0.129298 0.0216769 2.22659e-20)
(0.354587 0.0705704 2.36732e-20)
(0.557857 0.131166 1.02451e-19)
(0.737536 0.192811 1.68256e-19)
(0.890786 0.249821 5.29549e-20)
(1.01536 0.297302 -3.76738e-20)
(1.11055 0.331827 1.54216e-20)
(1.17771 0.351982 -1.93624e-20)
(1.22021 0.358289 5.38726e-20)
(1.24285 0.352799 7.04334e-20)
(1.251 0.338434 4.05336e-20)
(1.24968 0.318305 4.33156e-20)
(1.24293 0.295116 -1.12225e-20)
(1.23354 0.270809 -3.21357e-21)
(1.2228 0.247566 -1.44481e-20)
(0.134614 0.0277332 -8.20288e-20)
(0.366328 0.0861187 1.65905e-19)
(0.572535 0.153558 1.54622e-20)
(0.752216 0.219524 -1.61918e-19)
(0.903067 0.278378 -6.8793e-20)
(1.02354 0.325492 6.06136e-20)
(1.11375 0.357919 1.17071e-20)
(1.17585 0.374869 -1.55375e-20)
(1.21389 0.377504 -4.14032e-20)
(1.23309 0.368415 -4.19572e-20)
(1.23898 0.350886 -4.48385e-20)
(1.23652 0.32819 1.03617e-20)
(1.22951 0.303027 -8.44425e-21)
(1.22045 0.277248 3.71188e-21)
(1.2103 0.25305 1.6627e-20)
(0.139367 0.0341457 -9.80491e-20)
(0.37651 0.102334 -1.01937e-19)
(0.58481 0.17656 -7.83587e-20)
(0.763826 0.246558 1.049e-19)
(0.911843 0.30684 1.79153e-19)
(1.02805 0.353151 -1.44794e-19)
(1.11338 0.383124 5.2241e-21)
(1.17075 0.396641 -1.01622e-20)
(1.20481 0.395521 1.14967e-20)
(1.22113 0.38287 -1.6047e-20)
(1.2253 0.362289 -5.69502e-20)
(1.22213 0.33717 -1.57681e-20)
(1.21521 0.31017 -1.79831e-20)
(1.20674 0.283044 -4.09627e-21)
(1.19733 0.257967 -1.91129e-20)
(0.143491 0.0408556 -7.51591e-21)
(0.385004 0.119059 7.21896e-20)
(0.594546 0.199944 -1.52279e-19)
(0.772266 0.273641 -2.15173e-19)
(0.917079 0.334926 -1.83366e-19)
(1.02894 0.380024 1.98954e-21)
(1.10956 0.407228 1.10923e-19)
(1.1626 0.41714 5.53533e-20)
(1.19318 0.412233 -1.50945e-20)
(1.20715 0.396097 3.85312e-20)
(1.21009 0.372603 1.7862e-20)
(1.20665 0.345215 1.52954e-20)
(1.20012 0.316518 -2.94938e-20)
(1.19247 0.288172 8.70701e-22)
(1.18395 0.262283 2.90129e-21)
(0.146928 0.047797 1.20325e-19)
(0.391697 0.136124 -1.276e-19)
(0.601635 0.223469 -1.41523e-19)
(0.777471 0.300497 1.88679e-19)
(0.91878 0.362357 4.76344e-20)
(1.02628 0.40586 -9.81389e-20)
(1.10244 0.430031 -1.27337e-19)
(1.15156 0.436221 -7.60385e-21)
(1.1792 0.427543 1.29457e-19)
(1.19135 0.408034 -5.97405e-20)
(1.19353 0.381786 -3.37315e-20)
(1.19017 0.352293 -2.65725e-21)
(1.18432 0.322042 1.35393e-20)
(1.17767 0.292596 3.44871e-21)
(1.17022 0.265982 9.14948e-21)
(0.149628 0.0548973 1.77483e-19)
(0.396501 0.153347 5.60261e-20)
(0.605998 0.246882 1.40642e-19)
(0.779412 0.326842 -2.66824e-20)
(0.916986 0.388858 5.32266e-20)
(1.02018 0.430421 7.78732e-20)
(1.09218 0.451345 -4.04514e-20)
(1.13785 0.453747 5.62877e-20)
(1.16307 0.441362 -7.56705e-20)
(1.1739 0.418626 5.69973e-20)
(1.17576 0.389801 -1.72081e-20)
(1.17282 0.358374 -7.45928e-20)
(1.16789 0.326717 4.46028e-20)
(1.16242 0.296288 -3.4071e-21)
(1.15616 0.269028 -6.19037e-21)
(0.151549 0.0620782 -2.75944e-19)
(0.399348 0.170537 -1.34816e-19)
(0.607589 0.269929 2.40524e-19)
(0.778095 0.352397 1.07545e-19)
(0.91177 0.414162 -1.82554e-19)
(1.01078 0.453477 -9.88662e-20)
(1.07897 0.470995 1.2013e-19)
(1.12165 0.469598 -1.46704e-19)
(1.14496 0.45361 -7.3209e-20)
(1.15497 0.427818 6.2168e-20)
(1.1569 0.396608 4.86398e-20)
(1.15469 0.363426 -6.0065e-21)
(1.15089 0.33051 -1.29989e-20)
(1.14676 0.299216 -7.52977e-21)
(1.14182 0.271391 2.93243e-20)
(0.152658 0.0692568 1.35552e-19)
(0.400193 0.187498 1.61245e-20)
(0.606396 0.292349 -1.91041e-19)
(0.773564 0.376885 -2.29596e-19)
(0.903239 0.438011 9.66008e-20)
(0.998247 0.474816 2.93206e-19)
(1.063 0.488818 -7.58978e-20)
(1.10319 0.48366 9.6082e-20)
(1.1251 0.464212 3.96269e-20)
(1.13473 0.435562 3.12991e-20)
(1.1371 0.402173 -1.34347e-20)
(1.13588 0.367418 1.4566e-20)
(1.13341 0.333392 -1.09408e-20)
(1.13075 0.301351 3.03266e-20)
(1.12723 0.273041 -7.25184e-20)
(0.152934 0.0763472 7.5693e-20)
(0.399016 0.204028 6.84818e-20)
(0.602435 0.313885 1.33638e-19)
(0.765893 0.400035 1.27361e-19)
(0.891528 0.460159 1.47878e-19)
(0.98276 0.494236 -1.54666e-19)
(1.04447 0.504669 1.12482e-19)
(1.08266 0.495834 -7.77903e-22)
(1.10365 0.473104 -5.13138e-20)
(1.11333 0.441813 -5.78277e-20)
(1.11647 0.406462 -1.73319e-20)
(1.11648 0.370321 -1.97596e-21)
(1.11549 0.335337 2.15157e-20)
(1.11441 0.302664 2.06904e-20)
(1.11244 0.273946 6.63042e-20)
(0.152365 0.083261 -1.2511e-19)
(0.395823 0.219926 1.23316e-20)
(0.595758 0.334283 2.6558e-20)
(0.755191 0.421588 6.38577e-20)
(0.876802 0.480375 -9.87671e-20)
(0.964521 0.511554 7.60327e-20)
(1.02362 0.518413 1.79397e-20)
(1.06028 0.506029 -2.26e-21)
(1.08082 0.480226 2.18343e-20)
(1.09093 0.446533 2.60908e-21)
(1.09514 0.409444 6.58914e-21)
(1.09658 0.372108 3.46979e-20)
(1.09721 0.336317 2.59985e-20)
(1.09779 0.303129 -6.57507e-20)
(1.09747 0.274077 -7.05173e-20)
(0.150951 0.0899096 -2.46e-21)
(0.390642 0.234993 8.15591e-20)
(0.586444 0.353296 -1.287e-19)
(0.741597 0.441298 -1.54647e-19)
(0.859245 0.498443 -1.06336e-19)
(0.943749 0.526602 -1.25717e-19)
(1.00067 0.529931 -4.53705e-20)
(1.03627 0.514167 -7.13076e-21)
(1.05679 0.485527 6.22942e-21)
(1.0677 0.449684 1.45071e-20)
(1.07323 0.411091 -6.29782e-20)
(1.07628 0.372754 -6.06194e-20)
(1.07863 0.336311 -4.83725e-20)
(1.08095 0.302721 1.17622e-20)
(1.08237 0.273405 4.0756e-20)
(0.148701 0.0962052 5.71191e-20)
(0.383527 0.249034 -8.84348e-20)
(0.574606 0.370688 1.41082e-19)
(0.725276 0.458935 1.40694e-20)
(0.839069 0.514169 6.03076e-20)
(0.920681 0.539231 5.9344e-20)
(0.975843 0.539121 2.21205e-20)
(1.01083 0.520181 5.13576e-21)
(1.03174 0.488964 -6.66206e-21)
(1.04376 0.451237 9.15419e-20)
(1.05086 0.411378 3.59264e-21)
(1.05567 0.372237 4.03695e-20)
(1.05981 0.335301 2.6375e-20)
(1.0639 0.301419 -1.75619e-20)
(1.06716 0.271897 -4.79173e-20)
(0.145637 0.102061 -5.823e-20)
(0.374555 0.261863 1.2219e-20)
(0.560378 0.386237 -9.56081e-20)
(0.706417 0.474283 -5.74682e-20)
(0.816506 0.527375 -2.50385e-20)
(0.895559 0.54931 3.16556e-21)
(0.949388 0.545894 -1.05564e-20)
(0.984197 0.524015 -3.42894e-20)
(1.00586 0.490501 -5.72185e-20)
(1.01929 0.451166 -4.89299e-20)
(1.02814 0.410284 7.28874e-21)
(1.03483 0.370542 4.50157e-20)
(1.04083 0.333273 -4.43721e-20)
(1.0467 0.299209 1.07762e-19)
(1.05187 0.269518 2.02728e-19)
(0.141784 0.107389 -3.43107e-20)
(0.36383 0.273305 2.41758e-20)
(0.543926 0.399737 3.12e-20)
(0.685239 0.48715 4.29661e-20)
(0.791802 0.537903 1.70079e-20)
(0.868639 0.556726 -1.18409e-21)
(0.921546 0.550177 5.84791e-21)
(0.95657 0.525624 -6.98803e-21)
(0.979321 0.49011 1.2024e-19)
(0.994413 0.449451 -8.53678e-20)
(1.0052 0.407794 2.38092e-19)
(1.01387 0.367653 -4.32079e-20)
(1.02175 0.330218 1.16362e-19)
(1.02937 0.296077 -1.32176e-19)
(1.03651 0.266233 9.21905e-21)
(0.137192 0.112108 -1.13067e-20)
(0.351472 0.283191 -1.77596e-20)
(0.525436 0.411001 -7.32699e-22)
(0.661977 0.497366 6.54051e-21)
(0.765216 0.545621 5.03312e-21)
(0.840183 0.561388 4.66933e-20)
(0.892559 0.551912 -8.32512e-20)
(0.928165 0.524974 1.40252e-19)
(0.95231 0.487771 -1.07078e-19)
(0.969282 0.446077 6.29235e-20)
(0.982155 0.403896 -2.43973e-19)
(0.992892 0.363562 -9.12937e-20)
(1.00267 0.326135 -2.32232e-19)
(1.01196 0.292016 -1.88731e-19)
(1.02113 0.262001 -8.05441e-20)
(0.131914 0.116147 8.85107e-21)
(0.337619 0.291368 -1.8127e-21)
(0.505115 0.419862 3.06082e-20)
(0.636884 0.504781 3.89521e-20)
(0.737021 0.550415 -1.79871e-20)
(0.810458 0.563221 -4.54066e-20)
(0.862671 0.551059 6.13832e-20)
(0.899194 0.522045 -5.61101e-20)
(0.924996 0.483472 2.11474e-19)
(0.944038 0.441038 -3.66363e-20)
(0.959116 0.398581 2.33042e-19)
(0.97199 0.358265 -1.66799e-19)
(0.983654 0.321025 2.46027e-19)
(0.994543 0.287018 2.2675e-19)
(1.00583 0.25677 -2.62515e-19)
(0.12601 0.11944 6.05065e-20)
(0.322428 0.297706 5.21284e-20)
(0.483192 0.426173 -7.81854e-20)
(0.610227 0.509272 -2.23856e-20)
(0.707498 0.552198 -1.52763e-20)
(0.779736 0.562174 9.73586e-20)
(0.832127 0.547589 1.93115e-19)
(0.869863 0.516826 -2.4601e-19)
(0.897551 0.477212 -1.46327e-19)
(0.91882 0.434332 -1.60956e-19)
(0.936201 0.391849 -2.94486e-19)
(0.951266 0.351763 4.5691e-20)
(0.964817 0.314899 -1.34508e-19)
(0.977293 0.28112 -6.98492e-20)
(0.990557 0.250611 6.78106e-20)
(0.119547 0.121923 -1.97694e-19)
(0.306075 0.302088 1.72375e-20)
(0.459908 0.429815 -5.78068e-20)
(0.582286 0.510742 1.5423e-19)
(0.676935 0.550905 -6.27483e-21)
(0.748288 0.558211 -8.78097e-20)
(0.801169 0.541494 -1.12695e-19)
(0.840379 0.509319 1.15386e-19)
(0.870144 0.468995 3.00252e-19)
(0.893763 0.425963 2.0278e-19)
(0.913522 0.383703 3.00238e-19)
(0.93082 0.344054 -1.49478e-19)
(0.946299 0.307764 4.07612e-19)
(0.960534 0.274437 2.85796e-19)
(0.97499 0.243349 -1.15893e-19)
(0.112603 0.123547 1.06711e-19)
(0.288745 0.304418 3.51022e-20)
(0.435519 0.430692 -2.94083e-20)
(0.553349 0.509117 -1.76931e-19)
(0.645623 0.546495 1.78273e-20)
(0.716387 0.551322 1.79253e-19)
(0.770035 0.532778 -1.07712e-19)
(0.810942 0.499539 8.33928e-20)
(0.842938 0.458837 -1.69621e-19)
(0.869 0.415945 -1.77519e-20)
(0.891186 0.374151 -1.03746e-19)
(0.910743 0.335137 1.50162e-19)
(0.92824 0.299561 -3.32506e-19)
(0.944428 0.26701 7.66914e-20)
(0.960404 0.236559 -8.32213e-20)
(0.105261 0.124266 -3.58201e-20)
(0.270638 0.30462 -1.05067e-19)
(0.41029 0.428733 7.44167e-20)
(0.523711 0.504353 -1.56677e-20)
(0.613856 0.538953 2.09248e-20)
(0.684302 0.541511 -2.09573e-19)
(0.738962 0.521463 3.86865e-20)
(0.781748 0.48751 -2.37947e-19)
(0.816094 0.446764 1.89906e-19)
(0.844662 0.4043 1.77062e-19)
(0.869296 0.363211 2.45042e-19)
(0.891112 0.325028 4.32047e-20)
(0.910633 0.29031 2.63878e-21)
(0.92866 0.258654 -1.3067e-19)
(0.945919 0.229206 4.52204e-19)
(0.097608 0.124047 -1.06183e-19)
(0.25196 0.302639 2.0771e-20)
(0.384492 0.423895 -1.12034e-19)
(0.493669 0.496431 2.17441e-19)
(0.581925 0.528284 -1.6048e-19)
(0.652302 0.528807 -8.83682e-20)
(0.708179 0.507583 2.28126e-19)
(0.752991 0.47327 -1.64574e-19)
(0.789769 0.432809 1.63589e-20)
(0.820877 0.391057 -2.11865e-19)
(0.847957 0.350908 -3.84385e-21)
(0.872014 0.31375 7.07474e-20)
(0.89354 0.280051 2.60959e-19)
(0.913334 0.249415 3.35511e-19)
(0.931888 0.221116 -3.24945e-19)
(0.0897378 0.122869 2.71305e-19)
(0.232922 0.298444 3.96346e-20)
(0.358402 0.416161 -1.52237e-19)
(0.463522 0.48536 -1.66757e-19)
(0.550121 0.514522 1.02309e-19)
(0.620646 0.513254 1.28743e-19)
(0.67791 0.491191 -2.75611e-19)
(0.724856 0.456871 1.27137e-19)
(0.764117 0.417016 -2.22117e-19)
(0.797768 0.376251 2.82478e-19)
(0.827272 0.337272 -4.03538e-19)
(0.853538 0.301329 -5.05463e-20)
(0.877036 0.268808 -4.12322e-19)
(0.898548 0.239328 -3.10083e-19)
(0.918418 0.212258 -1.54109e-19)
(0.0817455 0.120716 5.66199e-21)
(0.213742 0.292023 2.80906e-20)
(0.332297 0.405544 1.09438e-19)
(0.433565 0.471175 6.56717e-20)
(0.518727 0.497719 3.33268e-19)
(0.58959 0.494917 7.68943e-20)
(0.648373 0.472353 3.21556e-20)
(0.697523 0.438371 3.0102e-19)
(0.739283 0.399439 -7.01515e-20)
(0.775457 0.359929 -3.17295e-19)
(0.807343 0.322339 2.31329e-19)
(0.835769 0.287793 2.79407e-19)
(0.861194 0.256603 -2.2056e-19)
(0.884375 0.228408 -2.96321e-19)
(0.905563 0.202651 -2.41915e-20)
(0.0737278 0.117588 -1.19717e-20)
(0.194636 0.283392 -3.33661e-19)
(0.306454 0.392079 -1.4035e-20)
(0.404089 0.453936 -1.2904e-19)
(0.488021 0.477952 1.06494e-19)
(0.559379 0.47388 -5.37209e-20)
(0.619778 0.45115 4.88755e-19)
(0.671166 0.417845 -2.21848e-19)
(0.71541 0.380139 -4.64648e-19)
(0.754061 0.342141 3.79425e-19)
(0.788267 0.306152 -1.82165e-19)
(0.81879 0.273176 6.05136e-20)
(0.846083 0.243462 4.83864e-19)
(0.870877 0.216672 -2.80496e-19)
(0.893371 0.192308 3.64394e-19)
(0.0657824 0.113494 -2.25928e-19)
(0.175821 0.272584 2.80545e-19)
(0.281142 0.375831 -1.97296e-19)
(0.375379 0.433731 8.57275e-20)
(0.45827 0.455321 -6.35836e-20)
(0.53025 0.450244 -2.64098e-19)
(0.592323 0.427676 1.98222e-19)
(0.645949 0.395376 7.29685e-20)
(0.692634 0.359189 2.68803e-19)
(0.733691 0.322947 -4.19586e-20)
(0.770137 0.288761 6.20515e-20)
(0.802676 0.25752 -6.99481e-19)
(0.831766 0.22942 -1.31211e-19)
(0.85811 0.204146 4.99755e-19)
(0.881882 0.181245 -1.70169e-19)
(0.0580058 0.108453 5.51099e-19)
(0.157507 0.259659 8.94285e-20)
(0.256626 0.35689 1.90597e-19)
(0.347707 0.410669 7.56297e-20)
(0.429731 0.429946 -2.36679e-19)
(0.502429 0.424125 -2.47139e-19)
(0.5662 0.402039 -6.9779e-19)
(0.62203 0.371059 4.74247e-19)
(0.671082 0.336669 -2.29518e-19)
(0.714453 0.302417 7.95006e-22)
(0.75304 0.270222 -2.79036e-19)
(0.787503 0.240873 1.83941e-19)
(0.818305 0.214515 3.10651e-19)
(0.846126 0.19086 -9.00399e-21)
(0.871133 0.169492 -4.20689e-19)
(0.0504925 0.102495 -1.8193e-19)
(0.139902 0.244695 1.40267e-19)
(0.23316 0.33537 1.02227e-19)
(0.321337 0.384885 -1.48378e-19)
(0.402648 0.401966 1.04269e-19)
(0.47613 0.395659 1.03232e-19)
(0.541588 0.374361 -2.17886e-19)
(0.599556 0.344999 6.06376e-21)
(0.650877 0.312668 2.52707e-19)