/*--------------------------------*- C++ -*----------------------------------*\
  =========                 |
  \\      /  F ield         | OpenFOAM: The Open Source CFD Toolbox
   \\    /   O peration     | Website:  https://openfoam.org
    \\  /    A nd           | Version:  7
     \\/     M anipulation  |
\*---------------------------------------------------------------------------*/
FoamFile
{
    version     2.0;
    format      ascii;
    class       volScalarField;
    location    "55";
    object      p;
}
// * * * * * * * * * * * * * * * * * * * * * * * * * * * * * * * * * * * * * //

dimensions      [0 2 -2 0 0 0 0];

internalField   nonuniform List<scalar> 
1987
(
-0.252819
-0.251701
-0.250505
-0.249228
-0.235882
-0.235284
-0.23457
-0.233739
-0.232788
-0.231715
-0.230516
-0.22919
-0.227733
-0.226154
-0.224429
-0.222441
-0.220475
-0.218392
-0.216161
-0.21379
-0.211281
-0.208632
-0.205842
-0.202912
-0.199843
-0.196636
-0.193295
-0.189823
-0.186225
-0.182507
-0.178677
-0.174742
-0.170712
-0.166596
-0.162406
-0.158152
-0.153845
-0.149497
-0.14512
-0.140723
-0.136318
-0.131915
-0.127521
-0.123146
-0.118796
-0.114476
-0.110194
-0.105952
-0.101755
-0.0976061
-0.0935088
-0.0894665
-0.0854827
-0.0815615
-0.0777074
-0.0739257
-0.0702224
-0.0666043
-0.0630785
-0.059653
-0.232771
-0.232282
-0.231671
-0.230936
-0.230075
-0.229084
-0.22796
-0.226697
-0.225282
-0.223689
-0.221942
-0.220259
-0.218409
-0.216403
-0.214252
-0.211959
-0.209526
-0.206951
-0.204234
-0.201377
-0.19838
-0.195245
-0.191977
-0.188578
-0.185054
-0.18141
-0.177655
-0.173795
-0.16984
-0.165799
-0.161682
-0.157501
-0.153267
-0.148989
-0.14468
-0.14035
-0.136009
-0.131666
-0.127331
-0.123011
-0.118713
-0.114443
-0.110207
-0.106009
-0.101853
-0.097743
-0.0936823
-0.0896743
-0.0857231
-0.0818326
-0.0780076
-0.0742534
-0.0705761
-0.0669822
-0.0634789
-0.0600739
-0.229282
-0.228907
-0.228405
-0.227773
-0.227011
-0.226116
-0.225084
-0.223908
-0.222584
-0.221105
-0.219528
-0.21789
-0.216094
-0.214152
-0.212072
-0.209855
-0.207496
-0.204996
-0.202355
-0.199574
-0.196654
-0.193597
-0.190407
-0.187088
-0.183644
-0.180082
-0.176408
-0.17263
-0.168757
-0.164798
-0.160763
-0.156662
-0.152507
-0.148307
-0.144074
-0.139817
-0.135547
-0.131273
-0.127003
-0.122745
-0.118506
-0.114292
-0.110108
-0.10596
-0.101851
-0.0977859
-0.0937675
-0.0897998
-0.0858868
-0.0820328
-0.0782426
-0.0745216
-0.0708757
-0.0673115
-0.0638361
-0.060457
-0.225624
-0.225363
-0.224969
-0.224443
-0.223784
-0.222988
-0.222053
-0.220977
-0.219757
-0.218401
-0.21693
-0.215346
-0.213624
-0.211761
-0.209762
-0.207624
-0.205346
-0.202927
-0.200367
-0.197667
-0.19483
-0.191856
-0.18875
-0.185515
-0.182157
-0.178681
-0.175093
-0.171402
-0.167616
-0.163743
-0.159794
-0.155778
-0.151706
-0.147588
-0.143434
-0.139254
-0.135058
-0.130855
-0.126653
-0.12246
-0.118282
-0.114127
-0.109999
-0.105903
-0.101843
-0.0978249
-0.0938509
-0.0899255
-0.0860527
-0.082237
-0.0784833
-0.074797
-0.0711841
-0.0676509
-0.0642046
-0.0608524
-0.130414
-0.126283
-0.122158
-0.118045
-0.11395
-0.10988
-0.105839
-0.101832
-0.0978623
-0.093935
-0.090054
-0.0862234
-0.0824479
-0.0787325
-0.0750826
-0.0715041
-0.0680034
-0.0645875
-0.0612633
-0.252814
-0.2517
-0.250507
-0.249235
-0.247882
-0.24645
-0.244935
-0.243335
-0.241651
-0.239878
-0.238017
-0.236066
-0.234023
-0.231887
-0.229649
-0.227337
-0.224922
-0.222406
-0.219784
-0.217069
-0.214248
-0.211319
-0.208282
-0.205136
-0.201879
-0.198512
-0.195032
-0.191442
-0.18774
-0.183929
-0.180011
-0.175986
-0.171859
-0.167632
-0.163305
-0.1589
-0.15441
-0.149844
-0.145213
-0.140524
-0.135788
-0.131017
-0.126222
-0.121414
-0.116611
-0.111827
-0.107072
-0.10236
-0.0977059
-0.0931234
-0.0886257
-0.0842252
-0.0799334
-0.075761
-0.0717175
-0.0678097
-0.0640486
-0.0604362
-0.0569775
-0.0536758
-0.252844
-0.251732
-0.250543
-0.249275
-0.247927
-0.246499
-0.244989
-0.243395
-0.241716
-0.23995
-0.238095
-0.23615
-0.234112
-0.231979
-0.229771
-0.227448
-0.225034
-0.222519
-0.219901
-0.217183
-0.214358
-0.211425
-0.208381
-0.205227
-0.20196
-0.198581
-0.195088
-0.191483
-0.187765
-0.183937
-0.180001
-0.175958
-0.171813
-0.16757
-0.16323
-0.158809
-0.154307
-0.149733
-0.145097
-0.140407
-0.135675
-0.130912
-0.12613
-0.121343
-0.116559
-0.111791
-0.107058
-0.102372
-0.0977453
-0.0931912
-0.0887216
-0.084348
-0.0800809
-0.0759299
-0.0719037
-0.0680092
-0.0642515
-0.0606391
-0.0571755
-0.053864
-0.252909
-0.251799
-0.250613
-0.249348
-0.248005
-0.246582
-0.245078
-0.243491
-0.241818
-0.240058
-0.23821
-0.236272
-0.234238
-0.232105
-0.229904
-0.227593
-0.225183
-0.222671
-0.220055
-0.217336
-0.214509
-0.211572
-0.208524
-0.205362
-0.202086
-0.198695
-0.19519
-0.19157
-0.187837
-0.183992
-0.180038
-0.175978
-0.171816
-0.167555
-0.163202
-0.158766
-0.154253
-0.149671
-0.14503
-0.140339
-0.135609
-0.130852
-0.12608
-0.121305
-0.116542
-0.1118
-0.107093
-0.102434
-0.0978349
-0.0933077
-0.0888633
-0.0845126
-0.0802652
-0.0761298
-0.0721144
-0.0682314
-0.0644796
-0.0608666
-0.0573971
-0.0540746
-0.251899
-0.250715
-0.249454
-0.248115
-0.246698
-0.2452
-0.243619
-0.241953
-0.2402
-0.238359
-0.236426
-0.2344
-0.232293
-0.230081
-0.227774
-0.225368
-0.22286
-0.220247
-0.217528
-0.214699
-0.211759
-0.208706
-0.205538
-0.202253
-0.198852
-0.195335
-0.191702
-0.187954
-0.184093
-0.180122
-0.176045
-0.171866
-0.16759
-0.163222
-0.158773
-0.154249
-0.149659
-0.145013
-0.14032
-0.135593
-0.130842
-0.126079
-0.121317
-0.116571
-0.111849
-0.107165
-0.10253
-0.0979557
-0.0934536
-0.0890336
-0.0847056
-0.0804781
-0.0763591
-0.0723561
-0.0684806
-0.0647321
-0.0611171
-0.0576404
-0.0543058
-0.252027
-0.250845
-0.249588
-0.248254
-0.246842
-0.24535
-0.243776
-0.242117
-0.240371
-0.238536
-0.236607
-0.234569
-0.232486
-0.230287
-0.227987
-0.225586
-0.223082
-0.220471
-0.217753
-0.214924
-0.211982
-0.208925
-0.205751
-0.202459
-0.199049
-0.195521
-0.191875
-0.188113
-0.184237
-0.180251
-0.176158
-0.171963
-0.167671
-0.16329
-0.158828
-0.154294
-0.149696
-0.145044
-0.14035
-0.135625
-0.130879
-0.126126
-0.121377
-0.116646
-0.111943
-0.107279
-0.102666
-0.0981155
-0.0936364
-0.0892386
-0.084931
-0.0807215
-0.0766172
-0.0726255
-0.0687549
-0.0650076
-0.0613889
-0.0579037
-0.054556
-0.252179
-0.251
-0.249747
-0.248418
-0.247012
-0.245526
-0.243959
-0.242307
-0.240568
-0.238741
-0.23682
-0.234828
-0.232719
-0.230523
-0.228229
-0.225833
-0.223334
-0.220726
-0.21801
-0.215181
-0.212238
-0.209178
-0.205999
-0.202701
-0.199282
-0.195744
-0.192087
-0.188312
-0.184422
-0.180421
-0.176313
-0.172103
-0.167798
-0.163403
-0.15893
-0.154386
-0.14978
-0.145124
-0.140428
-0.135705
-0.130964
-0.12622
-0.121483
-0.116766
-0.11208
-0.107436
-0.102843
-0.0983136
-0.0938554
-0.0894775
-0.085188
-0.080994
-0.0769021
-0.0729193
-0.0690521
-0.0653043
-0.0616805
-0.0581856
-0.0548237
-0.25235
-0.251174
-0.249925
-0.248601
-0.247201
-0.245722
-0.244162
-0.242518
-0.240787
-0.238965
-0.237045
-0.235057
-0.232968
-0.230782
-0.228495
-0.226106
-0.223611
-0.221008
-0.218294
-0.215466
-0.212522
-0.20946
-0.206277
-0.202974
-0.199548
-0.196001
-0.192333
-0.188547
-0.184645
-0.180631
-0.176509
-0.172286
-0.167967
-0.16356
-0.159076
-0.154523
-0.14991
-0.14525
-0.140553
-0.135831
-0.131095
-0.126359
-0.121633
-0.11693
-0.112259
-0.107632
-0.103059
-0.0985479
-0.0941085
-0.0897483
-0.0854746
-0.0812939
-0.0772122
-0.0732359
-0.0693707
-0.0656207
-0.0619905
-0.0584847
-0.0551079
-0.252533
-0.251362
-0.250117
-0.248799
-0.247405
-0.245934
-0.244382
-0.242746
-0.241023
-0.239206
-0.237295
-0.235322
-0.233239
-0.23106
-0.228781
-0.226398
-0.223909
-0.221311
-0.2186
-0.215775
-0.212831
-0.209768
-0.206583
-0.203275
-0.199843
-0.196288
-0.192612
-0.188816
-0.184902
-0.180876
-0.176742
-0.172506
-0.168176
-0.163758
-0.159264
-0.154703
-0.150084
-0.14542
-0.140722
-0.136001
-0.131271
-0.126541
-0.121826
-0.117134
-0.112478
-0.107867
-0.103311
-0.0988168
-0.0943941
-0.0900493
-0.0857893
-0.0816197
-0.0775461
-0.0735744
-0.0697095
-0.0659558
-0.0623178
-0.0588002
-0.0554078
-0.252723
-0.251556
-0.250317
-0.249005
-0.247618
-0.246155
-0.244612
-0.242985
-0.24127
-0.239466
-0.23759
-0.235599
-0.233524
-0.231353
-0.229081
-0.226706
-0.224224
-0.221631
-0.218924
-0.216102
-0.21316
-0.210096
-0.20691
-0.203599
-0.200162
-0.196602
-0.192918
-0.189113
-0.18519
-0.181153
-0.177009
-0.172762
-0.16842
-0.163994
-0.159491
-0.154923
-0.150299
-0.145632
-0.140933
-0.136214
-0.131487
-0.126765
-0.122059
-0.117379
-0.112736
-0.108139
-0.103597
-0.0991187
-0.0947105
-0.0903791
-0.0861305
-0.0819699
-0.0779024
-0.0739334
-0.0700673
-0.0663086
-0.0626618
-0.0591316
-0.0557231
-0.252911
-0.251749
-0.250517
-0.249213
-0.247834
-0.24638
-0.244846
-0.243229
-0.241518
-0.239692
-0.237848
-0.235881
-0.233816
-0.231655
-0.229392
-0.227024
-0.224549
-0.221963
-0.219261
-0.216443
-0.213503
-0.210441
-0.207254
-0.203943
-0.200499
-0.196935
-0.193246
-0.189434
-0.185503
-0.181458
-0.177304
-0.173048
-0.168699
-0.164264
-0.159754
-0.155179
-0.150551
-0.145882
-0.141182
-0.136466
-0.131744
-0.127028
-0.12233
-0.11766
-0.113029
-0.108445
-0.103917
-0.0994516
-0.095056
-0.0907359
-0.0864968
-0.0823433
-0.0782801
-0.074312
-0.0704433
-0.0666784
-0.0630219
-0.0594786
-0.0560538
-0.253091
-0.251936
-0.25071
-0.249415
-0.248046
-0.246602
-0.245079
-0.243472
-0.24177
-0.240029
-0.238127
-0.236165
-0.234111
-0.231959
-0.229706
-0.227347
-0.22488
-0.222301
-0.219606
-0.216792
-0.213856
-0.210796
-0.20761
-0.204297
-0.200855
-0.197287
-0.193593
-0.189776
-0.185839
-0.181787
-0.177626
-0.173362
-0.169005
-0.164564
-0.160048
-0.155469
-0.150838
-0.146167
-0.141468
-0.136754
-0.132036
-0.127327
-0.122637
-0.117977
-0.113356
-0.108784
-0.104267
-0.0998137
-0.0954289
-0.0911183
-0.0868867
-0.0827386
-0.078678
-0.0747095
-0.070837
-0.067065
-0.0633981
-0.0598412
-0.0563999
-0.253252
-0.252106
-0.250891
-0.249605
-0.248246
-0.246813
-0.2453
-0.243704
-0.242008
-0.240254
-0.238394
-0.236446
-0.234402
-0.232261
-0.230018
-0.227669
-0.225211
-0.222639
-0.219952
-0.217144
-0.214213
-0.211157
-0.207973
-0.204661
-0.201219
-0.19765
-0.193953
-0.190132
-0.186191
-0.182134
-0.177968
-0.173699
-0.169337
-0.164891
-0.160371
-0.155788
-0.151156
-0.146484
-0.141787
-0.137075
-0.132362
-0.127659
-0.122977
-0.118326
-0.113715
-0.109153
-0.104647
-0.100203
-0.0958274
-0.0915246
-0.0872991
-0.0831547
-0.0790953
-0.0751251
-0.0712479
-0.067468
-0.0637902
-0.0602197
-0.056762
-0.253387
-0.252253
-0.251049
-0.249775
-0.248428
-0.247006
-0.245507
-0.243921
-0.242235
-0.240499
-0.238651
-0.236714
-0.234683
-0.232553
-0.230321
-0.227983
-0.225535
-0.222973
-0.220293
-0.217493
-0.214568
-0.211517
-0.208337
-0.205028
-0.201588
-0.198019
-0.194322
-0.190499
-0.186556
-0.182496
-0.178326
-0.174054
-0.169689
-0.16524
-0.160718
-0.156134
-0.1515
-0.14683
-0.142134
-0.137426
-0.132718
-0.128021
-0.123347
-0.118704
-0.114102
-0.109549
-0.105053
-0.100618
-0.0962498
-0.0919535
-0.0877325
-0.0835906
-0.0795313
-0.0755583
-0.0716756
-0.0678874
-0.0641986
-0.0606143
-0.0571406
-0.252367
-0.251176
-0.249916
-0.248583
-0.247175
-0.245689
-0.24412
-0.242482
-0.240722
-0.238887
-0.236964
-0.234946
-0.23283
-0.23061
-0.228284
-0.225847
-0.223295
-0.220625
-0.217833
-0.214916
-0.211872
-0.208697
-0.205393
-0.201956
-0.198389
-0.194693
-0.190872
-0.186928
-0.182868
-0.178697
-0.174424
-0.170057
-0.165607
-0.161084
-0.156501
-0.151869
-0.1472
-0.142508
-0.137805
-0.133102
-0.128411
-0.123744
-0.119109
-0.114516
-0.109972
-0.105483
-0.101056
-0.0966946
-0.0924034
-0.0881859
-0.0840454
-0.0799852
-0.0760088
-0.0721201
-0.0683233
-0.0646233
-0.0610256
-0.0575363
-0.252438
-0.251264
-0.250019
-0.248702
-0.24731
-0.245839
-0.244281
-0.242644
-0.240913
-0.239097
-0.237189
-0.235185
-0.233083
-0.230877
-0.228564
-0.226139
-0.223599
-0.22094
-0.218158
-0.21525
-0.212214
-0.209047
-0.205749
-0.202318
-0.198755
-0.195063
-0.191244
-0.187303
-0.183244
-0.179075
-0.174803
-0.170437
-0.165989
-0.161468
-0.156886
-0.152257
-0.147592
-0.142904
-0.138206
-0.133509
-0.128826
-0.124166
-0.119539
-0.114954
-0.110417
-0.105936
-0.101516
-0.09716
-0.0928731
-0.0886581
-0.0845182
-0.0804564
-0.0764761
-0.0725811
-0.0687757
-0.0650648
-0.061454
-0.0579496
-0.252457
-0.251301
-0.250075
-0.248776
-0.247402
-0.245949
-0.244407
-0.242782
-0.241069
-0.239271
-0.23738
-0.235393
-0.233306
-0.231115
-0.228816
-0.226405
-0.223879
-0.221232
-0.218462
-0.215565
-0.212539
-0.209381
-0.206091
-0.202668
-0.199112
-0.195426
-0.191612
-0.187676
-0.183621
-0.179455
-0.175187
-0.170825
-0.16638
-0.161863
-0.157286
-0.152661
-0.148001
-0.143319
-0.138628
-0.133938
-0.129262
-0.12461
-0.11999
-0.115413
-0.110884
-0.10641
-0.101995
-0.0976447
-0.0933612
-0.0891481
-0.0850082
-0.0809444
-0.07696
-0.0730586
-0.0692447
-0.0655232
-0.0618999
-0.0583812
-0.252411
-0.251276
-0.250072
-0.248794
-0.247441
-0.246008
-0.244485
-0.242866
-0.241177
-0.2394
-0.237529
-0.23556
-0.233491
-0.231317
-0.229034
-0.226639
-0.224127
-0.221494
-0.218738
-0.215854
-0.21284
-0.209694
-0.206414
-0.203001
-0.199454
-0.195776
-0.191971
-0.188041
-0.183993
-0.179834
-0.175572
-0.171216
-0.166778
-0.162267
-0.157696
-0.153078
-0.148425
-0.14375
-0.139066
-0.134385
-0.129716
-0.125072
-0.120461
-0.115892
-0.11137
-0.106902
-0.102493
-0.098147
-0.0938665
-0.0896549
-0.0855146
-0.0814486
-0.07746
-0.0735524
-0.0697303
-0.0659988
-0.0623636
-0.0588315
-0.252287
-0.251178
-0.249998
-0.248746
-0.247417
-0.246007
-0.244508
-0.242902
-0.241229
-0.239475
-0.237626
-0.235678
-0.233629
-0.231474
-0.22921
-0.226832
-0.224337
-0.221721
-0.21898
-0.216111
-0.213111
-0.209978
-0.206712
-0.203311
-0.199776
-0.196109
-0.192314
-0.188395
-0.184357
-0.180207
-0.175954
-0.171607
-0.167177
-0.162675
-0.158113
-0.153504
-0.14886
-0.144194
-0.139519
-0.134846
-0.130187
-0.125552
-0.120949
-0.116387
-0.111873
-0.107412
-0.103008
-0.0986656
-0.0943879
-0.0901774
-0.0860366
-0.0819684
-0.0779757
-0.0740623
-0.0702325
-0.0664915
-0.0628453
-0.0593007
-0.250991
-0.249841
-0.248617
-0.247316
-0.245933
-0.244455
-0.242817
-0.2412
-0.239483
-0.237662
-0.235738
-0.233713
-0.23158
-0.229336
-0.226977
-0.224501
-0.221904
-0.21918
-0.216329
-0.213346
-0.21023
-0.206979
-0.203593
-0.200072
-0.19642
-0.192638
-0.188732
-0.184707
-0.180569
-0.176328
-0.171993
-0.167575
-0.163084
-0.158533
-0.153935
-0.149302
-0.144647
-0.139983
-0.13532
-0.130671
-0.126045
-0.121452
-0.116898
-0.112391
-0.107936
-0.103538
-0.0991993
-0.0949242
-0.0907148
-0.0865736
-0.0825032
-0.0785068
-0.074588
-0.0707511
-0.0670014
-0.063345
-0.0597888
-0.250701
-0.249585
-0.248394
-0.247126
-0.245776
-0.244343
-0.24282
-0.241113
-0.239415
-0.237626
-0.235731
-0.233732
-0.231624
-0.229403
-0.227067
-0.224613
-0.222036
-0.219334
-0.216502
-0.213539
-0.210441
-0.207209
-0.203841
-0.200338
-0.196703
-0.192938
-0.189048
-0.185039
-0.180917
-0.176691
-0.172371
-0.167967
-0.163491
-0.158954
-0.154369
-0.149749
-0.145107
-0.140455
-0.135804
-0.131166
-0.126551
-0.121967
-0.117422
-0.112922
-0.108474
-0.104081
-0.0997466
-0.0954742
-0.0912661
-0.0871246
-0.0830525
-0.0790528
-0.0751291
-0.0712858
-0.0675282
-0.0638625
-0.0602957
-0.250292
-0.249216
-0.248064
-0.246834
-0.24552
-0.244116
-0.242592
-0.240883
-0.239249
-0.237505
-0.235646
-0.233679
-0.2316
-0.229406
-0.227095
-0.224665
-0.222113
-0.219434
-0.216625
-0.213684
-0.210609
-0.207398
-0.204051
-0.20057
-0.196955
-0.19321
-0.18934
-0.18535
-0.181247
-0.17704
-0.172737
-0.168351
-0.163892
-0.159371
-0.154803
-0.150199
-0.145571
-0.140933
-0.136296
-0.13167
-0.127066
-0.122492
-0.117956
-0.113465
-0.109024
-0.104636
-0.100307
-0.096037
-0.0918304
-0.087689
-0.0836155
-0.079613
-0.075685
-0.0718361
-0.0680715
-0.0643975
-0.060821
-0.0573497
-0.249748
-0.248718
-0.247611
-0.246424
-0.245152
-0.24379
-0.24233
-0.240751
-0.239006
-0.23729
-0.235473
-0.233544
-0.231498
-0.229335
-0.227053
-0.224651
-0.222126
-0.219474
-0.216691
-0.213776
-0.210726
-0.207541
-0.204219
-0.200761
-0.197171
-0.19345
-0.189602
-0.185635
-0.181555
-0.17737
-0.173089
-0.168723
-0.164284
-0.159784
-0.155234
-0.150647
-0.146037
-0.141415
-0.136792
-0.13218
-0.127589
-0.123027
-0.118501
-0.114018
-0.109584
-0.105203
-0.100878
-0.0966115
-0.0924068
-0.0882659
-0.0841916
-0.0801868
-0.0762553
-0.0724015
-0.0686308
-0.0649493
-0.061364
-0.0578828
-0.248078
-0.247023
-0.245886
-0.244663
-0.243349
-0.241931
-0.240372
-0.238608
-0.236956
-0.235196
-0.233317
-0.231312
-0.229185
-0.226934
-0.224564
-0.222071
-0.219449
-0.216696
-0.213811
-0.21079
-0.207633
-0.20434
-0.20091
-0.197347
-0.193654
-0.189834
-0.185893
-0.181839
-0.177679
-0.173423
-0.169082
-0.164666
-0.160188
-0.15566
-0.151094
-0.146503
-0.141898
-0.137292
-0.132696
-0.128118
-0.123568
-0.119054
-0.114581
-0.110154
-0.10578
-0.101459
-0.0971969
-0.0929944
-0.0888546
-0.0847799
-0.0807736
-0.0768393
-0.0729814
-0.0692053
-0.0655172
-0.0619242
-0.058434
-0.247284
-0.246289
-0.24521
-0.244041
-0.242779
-0.241416
-0.239945
-0.238367
-0.23651
-0.234801
-0.232988
-0.231033
-0.228948
-0.226735
-0.224401
-0.221943
-0.219355
-0.216636
-0.213784
-0.210797
-0.207672
-0.204411
-0.201014
-0.197482
-0.19382
-0.190031
-0.186121
-0.182096
-0.177966
-0.173738
-0.169425
-0.165036
-0.160583
-0.156079
-0.151536
-0.146966
-0.142382
-0.137795
-0.133215
-0.128653
-0.124116
-0.119613
-0.11515
-0.110733
-0.106365
-0.102051
-0.0977924
-0.0935928
-0.0894545
-0.0853801
-0.0813728
-0.0774363
-0.0735751
-0.0697944
-0.0661006
-0.0625006
-0.0590022
-0.246327
-0.245401
-0.244386
-0.24328
-0.242078
-0.240776
-0.239357
-0.237793
-0.236088
-0.234318
-0.23255
-0.230655
-0.228621
-0.226449
-0.224156
-0.221738
-0.219189
-0.216508
-0.213694
-0.210743
-0.207656
-0.204431
-0.20107
-0.197574
-0.193947
-0.190193
-0.186317
-0.182326
-0.178229
-0.174033
-0.169751
-0.165391
-0.160967
-0.15649
-0.151973
-0.147427
-0.142865
-0.138298
-0.133737
-0.129191
-0.124669
-0.120179
-0.115727
-0.111319
-0.106959
-0.102651
-0.0983971
-0.0942009
-0.0900646
-0.0859911
-0.0819834
-0.0780454
-0.0741815
-0.0703971
-0.0666982
-0.063092
-0.0595861
-0.244351
-0.243409
-0.242373
-0.241238
-0.239999
-0.238648
-0.237171
-0.23554
-0.233622
-0.231972
-0.230163
-0.228196
-0.226074
-0.223827
-0.221454
-0.218948
-0.216309
-0.213537
-0.210628
-0.207581
-0.204397
-0.201076
-0.19762
-0.194032
-0.190317
-0.186479
-0.182526
-0.178465
-0.174305
-0.170057
-0.16573
-0.161338
-0.156891
-0.152401
-0.147882
-0.143344
-0.138799
-0.134257
-0.129729
-0.125224
-0.120747
-0.116308
-0.11191
-0.107558
-0.103256
-0.099008
-0.0948157
-0.0906821
-0.08661
-0.0826026
-0.0786638
-0.0747979
-0.0710103
-0.0673072
-0.0636955
-0.0601827
-0.243143
-0.242281
-0.24132
-0.240258
-0.23909
-0.23781
-0.236409
-0.234888
-0.23328
-0.231311
-0.229553
-0.227667
-0.225604
-0.22341
-0.221088
-0.21863
-0.216038
-0.213312
-0.210448
-0.207447
-0.204308
-0.201031
-0.197619
-0.194074
-0.190401
-0.186606
-0.182693
-0.178672
-0.174552
-0.170341
-0.166051
-0.161692
-0.157278
-0.152819
-0.148328
-0.143816
-0.139295
-0.134775
-0.130267
-0.125778
-0.121317
-0.11689
-0.112503
-0.10816
-0.103866
-0.0996238
-0.0954361
-0.0913058
-0.0872358
-0.0832294
-0.0792904
-0.0754232
-0.0716332
-0.0679265
-0.06431
-0.0607911
-0.241807
-0.241031
-0.240152
-0.239168
-0.238075
-0.236868
-0.235541
-0.234079
-0.232433
-0.230599
-0.228847
-0.227036
-0.225047
-0.222918
-0.220653
-0.218249
-0.21571
-0.213035
-0.210223
-0.207272
-0.204182
-0.200954
-0.19759
-0.194093
-0.190467
-0.186718
-0.182851
-0.178874
-0.174796
-0.170626
-0.166375
-0.162054
-0.157675
-0.153249
-0.148788
-0.144305
-0.139809
-0.135313
-0.130825
-0.126354
-0.121909
-0.117495
-0.11312
-0.108787
-0.104501
-0.100264
-0.0960814
-0.0919545
-0.0878867
-0.0838813
-0.0799422
-0.0760738
-0.0722815
-0.0685712
-0.0649498
-0.0614249
-0.240288
-0.239611
-0.238827
-0.237934
-0.23693
-0.23581
-0.23457
-0.233201
-0.231706
-0.230052
-0.228091
-0.226333
-0.224416
-0.22236
-0.220161
-0.217817
-0.215336
-0.212719
-0.209963
-0.207067
-0.204033
-0.20086
-0.19755
-0.194107
-0.190534
-0.186836
-0.183019
-0.179091
-0.17506
-0.170936
-0.166728
-0.162448
-0.158107
-0.153717
-0.149289
-0.144835
-0.140367
-0.135895
-0.131428
-0.126976
-0.122546
-0.118147
-0.113782
-0.109458
-0.105179
-0.100949
-0.0967696
-0.0926454
-0.088579
-0.0845739
-0.0806339
-0.0767635
-0.072968
-0.0692534
-0.0656265
-0.0620945
-0.23777
-0.237089
-0.236295
-0.235387
-0.234361
-0.233214
-0.231941
-0.230536
-0.228964
-0.227254
-0.225357
-0.2235
-0.221532
-0.219412
-0.217139
-0.214725
-0.212172
-0.209478
-0.206643
-0.203668
-0.200554
-0.197302
-0.193915
-0.190397
-0.186753
-0.182989
-0.179112
-0.175131
-0.171055
-0.166893
-0.162657
-0.158358
-0.154007
-0.149616
-0.145196
-0.140759
-0.136315
-0.131874
-0.127445
-0.123035
-0.118653
-0.114305
-0.109994
-0.105727
-0.101506
-0.0973352
-0.0932177
-0.0891568
-0.0851559
-0.081219
-0.0773507
-0.0735561
-0.0698412
-0.0662128
-0.0626781
)
;

boundaryField
{
    inlet
    {
        type            zeroGradient;
    }
    outlet
    {
        type            fixedValue;
        value           nonuniform 0();
    }
    cylinder
    {
        type            zeroGradient;
    }
    top
    {
        type            symmetryPlane;
    }
    bottom
    {
        type            symmetryPlane;
    }
    defaultFaces
    {
        type            empty;
    }
    procBoundary6to2
    {
        type            processor;
        value           nonuniform List<scalar> 
57
(
-0.221817
-0.221667
-0.221382
-0.220961
-0.220403
-0.219708
-0.218873
-0.217897
-0.216781
-0.21553
-0.214147
-0.212642
-0.211008
-0.209232
-0.20732
-0.205268
-0.203075
-0.200742
-0.198269
-0.195656
-0.192906
-0.190021
-0.187004
-0.18386
-0.180592
-0.177207
-0.173711
-0.170112
-0.166417
-0.162635
-0.158776
-0.154849
-0.150865
-0.146832
-0.142761
-0.138661
-0.134543
-0.134543
-0.129941
-0.125885
-0.12183
-0.117785
-0.113754
-0.109745
-0.105761
-0.101808
-0.0978905
-0.0940124
-0.090178
-0.0863919
-0.0826588
-0.0789836
-0.0753719
-0.0718296
-0.0683631
-0.064979
-0.0616843
)
;
    }
    procBoundary6to3
    {
        type            processor;
        value           uniform -0.0580384;
    }
    procBoundary6to5
    {
        type            processor;
        value           nonuniform List<scalar> 
40
(
-0.236365
-0.233138
-0.229529
-0.225754
-0.25385
-0.253879
-0.253942
-0.253007
-0.253007
-0.253133
-0.253283
-0.253452
-0.253633
-0.253819
-0.254002
-0.254175
-0.254328
-0.254454
-0.253488
-0.253488
-0.253544
-0.253544
-0.253477
-0.253328
-0.25207
-0.25207
-0.251746
-0.251296
-0.250704
-0.249054
-0.249054
-0.248197
-0.247169
-0.245201
-0.245201
-0.243909
-0.242483
-0.24086
-0.238339
-0.238339
)
;
    }
    procBoundary6to7
    {
        type            processor;
        value           nonuniform List<scalar> 
36
(
-0.0563357
-0.059245
-0.0567752
-0.0571818
-0.0576019
-0.0505331
-0.0507068
-0.0509017
-0.0511164
-0.0513491
-0.0515987
-0.0518642
-0.0521451
-0.0524412
-0.0527527
-0.0530799
-0.0534233
-0.0537837
-0.0541619
-0.0545586
-0.0549743
-0.0554097
-0.055865
-0.0563402
-0.0568352
-0.0568352
-0.0539917
-0.0545138
-0.0550547
-0.0556134
-0.0561886
-0.0567772
-0.0573781
-0.0580043
-0.0586655
-0.059245
)
;
    }
    procBoundary6to9
    {
        type            processor;
        value           uniform -0.253858;
    }
    procBoundary6to10
    {
        type            processor;
        value           nonuniform List<scalar> 
61
(
-0.252862
-0.251741
-0.250541
-0.247868
-0.249262
-0.247868
-0.246432
-0.244913
-0.243307
-0.241617
-0.239838
-0.237971
-0.236015
-0.233967
-0.231827
-0.229592
-0.227269
-0.224849
-0.222329
-0.219698
-0.216993
-0.214175
-0.211251
-0.20822
-0.205082
-0.201836
-0.19848
-0.195014
-0.191439
-0.187755
-0.183962
-0.180062
-0.176056
-0.171946
-0.167736
-0.16342
-0.159035
-0.154559
-0.150002
-0.145376
-0.140689
-0.13595
-0.131172
-0.126367
-0.121546
-0.116721
-0.111912
-0.10713
-0.102389
-0.0977056
-0.0930933
-0.0885664
-0.0841384
-0.0798219
-0.0756287
-0.0715688
-0.0676469
-0.0638766
-0.0602614
-0.0568055
-0.0535119
)
;
    }
}


// ************************************************************************* //
