/*--------------------------------*- C++ -*----------------------------------*\
  =========                 |
  \\      /  F ield         | OpenFOAM: The Open Source CFD Toolbox
   \\    /   O peration     | Website:  https://openfoam.org
    \\  /    A nd           | Version:  7
     \\/     M anipulation  |
\*---------------------------------------------------------------------------*/
FoamFile
{
    version     2.0;
    format      ascii;
    class       volScalarField;
    location    "25";
    object      p;
}
// * * * * * * * * * * * * * * * * * * * * * * * * * * * * * * * * * * * * * //

dimensions      [0 2 -2 0 0 0 0];

internalField   nonuniform List<scalar> 
1987
(
-0.269169
-0.27073
-0.271616
-0.272336
-0.27296
-0.273505
-0.274008
-0.274489
-0.274961
-0.27543
-0.275893
-0.276345
-0.27678
-0.277186
-0.277552
-0.277864
-0.278111
-0.278279
-0.278354
-0.278327
-0.278192
-0.277951
-0.277616
-0.277195
-0.276746
-0.269281
-0.270829
-0.271709
-0.272424
-0.273043
-0.273585
-0.274084
-0.274563
-0.275033
-0.275499
-0.27596
-0.276411
-0.276845
-0.27725
-0.277615
-0.277927
-0.278173
-0.278339
-0.278413
-0.278384
-0.278245
-0.277997
-0.277653
-0.277216
-0.276748
-0.269502
-0.271026
-0.271893
-0.272598
-0.273208
-0.273743
-0.274236
-0.274709
-0.275174
-0.275636
-0.276094
-0.276542
-0.276973
-0.277376
-0.277739
-0.27805
-0.278295
-0.27846
-0.278531
-0.278496
-0.278348
-0.278087
-0.277725
-0.277259
-0.276749
-0.26983
-0.271319
-0.272167
-0.272856
-0.273454
-0.273977
-0.274461
-0.274926
-0.275383
-0.275839
-0.276291
-0.276734
-0.277161
-0.277561
-0.277922
-0.27823
-0.278473
-0.278636
-0.278702
-0.278661
-0.2785
-0.278218
-0.277831
-0.27732
-0.276743
-0.270262
-0.271704
-0.272527
-0.273196
-0.273777
-0.274285
-0.274756
-0.275209
-0.275657
-0.276103
-0.276547
-0.276984
-0.277405
-0.2778
-0.278158
-0.278464
-0.278704
-0.278862
-0.278924
-0.278873
-0.278695
-0.278387
-0.277966
-0.277398
-0.276721
-0.270791
-0.272177
-0.272969
-0.273614
-0.274173
-0.274663
-0.275117
-0.275556
-0.27599
-0.276425
-0.276858
-0.277286
-0.2777
-0.278089
-0.278441
-0.278743
-0.278979
-0.279134
-0.279189
-0.279126
-0.27893
-0.278589
-0.278125
-0.277492
-0.276672
-0.271413
-0.272734
-0.27349
-0.274105
-0.274638
-0.275106
-0.275539
-0.27596
-0.276377
-0.276797
-0.277218
-0.277635
-0.278038
-0.278419
-0.278765
-0.279061
-0.279292
-0.279441
-0.279489
-0.279414
-0.279196
-0.278819
-0.278304
-0.277602
-0.276578
-0.27212
-0.273367
-0.274083
-0.274665
-0.275168
-0.275608
-0.276018
-0.276416
-0.276813
-0.277215
-0.277619
-0.278021
-0.278412
-0.278783
-0.279119
-0.279408
-0.279633
-0.279775
-0.279814
-0.279727
-0.279486
-0.279068
-0.278493
-0.277728
-0.276421
-0.272904
-0.274072
-0.274743
-0.275286
-0.275755
-0.276165
-0.276546
-0.276917
-0.277291
-0.27767
-0.278054
-0.278438
-0.278814
-0.27917
-0.279495
-0.279775
-0.279991
-0.280126
-0.280155
-0.280053
-0.279789
-0.279329
-0.278682
-0.277876
-0.276164
-0.273758
-0.274841
-0.275463
-0.275965
-0.276395
-0.276769
-0.277117
-0.277458
-0.277802
-0.278155
-0.278515
-0.278877
-0.279233
-0.279572
-0.279883
-0.28015
-0.280356
-0.28048
-0.280499
-0.280382
-0.280095
-0.279592
-0.278863
-0.278077
-0.275741
-0.274674
-0.275669
-0.276239
-0.276695
-0.277082
-0.277416
-0.277726
-0.27803
-0.278341
-0.278662
-0.278992
-0.279328
-0.27966
-0.279979
-0.280271
-0.280522
-0.280714
-0.280826
-0.280832
-0.2807
-0.28039
-0.279849
-0.279021
-0.278358
-0.275172
-0.275644
-0.276548
-0.277063
-0.27747
-0.27781
-0.278099
-0.278365
-0.278628
-0.278899
-0.279182
-0.279478
-0.279782
-0.280086
-0.280378
-0.280648
-0.280879
-0.281054
-0.28115
-0.281141
-0.280992
-0.280658
-0.280093
-0.279135
-0.278431
-0.274845
-0.27666
-0.277474
-0.277931
-0.278285
-0.278573
-0.278812
-0.279029
-0.279244
-0.279469
-0.279709
-0.279965
-0.280231
-0.2805
-0.280762
-0.281004
-0.28121
-0.281363
-0.28144
-0.281412
-0.281243
-0.280881
-0.280289
-0.279231
-0.278519
-0.274353
-0.277716
-0.278439
-0.278837
-0.279135
-0.279367
-0.27955
-0.279712
-0.279873
-0.280045
-0.280235
-0.280443
-0.280666
-0.280894
-0.281119
-0.281328
-0.281504
-0.28163
-0.281683
-0.281631
-0.281439
-0.281043
-0.280438
-0.279236
-0.278651
-0.273683
-0.278806
-0.27944
-0.279777
-0.280016
-0.280186
-0.280308
-0.280408
-0.280508
-0.280621
-0.280753
-0.280907
-0.281078
-0.28126
-0.281442
-0.281611
-0.281752
-0.281845
-0.281867
-0.281786
-0.281566
-0.281127
-0.280526
-0.279121
-0.278794
-0.272859
-0.279925
-0.280472
-0.280748
-0.280924
-0.281029
-0.281083
-0.281114
-0.281145
-0.28119
-0.281258
-0.28135
-0.281463
-0.281591
-0.281723
-0.281846
-0.281945
-0.281999
-0.281984
-0.281867
-0.281614
-0.281117
-0.280537
-0.278862
-0.278919
-0.271891
-0.281069
-0.281534
-0.281748
-0.281857
-0.281891
-0.281871
-0.281826
-0.28178
-0.28175
-0.281745
-0.281767
-0.281814
-0.281881
-0.281956
-0.282027
-0.282076
-0.282085
-0.282027
-0.281865
-0.281574
-0.280998
-0.280461
-0.278441
-0.27899
-0.270801
-0.282236
-0.282624
-0.282774
-0.282813
-0.282771
-0.28267
-0.282542
-0.282411
-0.282297
-0.28221
-0.282154
-0.282129
-0.282126
-0.282138
-0.282149
-0.282144
-0.2821
-0.281991
-0.281776
-0.281441
-0.280764
-0.280287
-0.27785
-0.278957
-0.269624
-0.283427
-0.283742
-0.283827
-0.283793
-0.283669
-0.28348
-0.28326
-0.283037
-0.28283
-0.282653
-0.282511
-0.282404
-0.282326
-0.282267
-0.282212
-0.282145
-0.282042
-0.281874
-0.281597
-0.281212
-0.280409
-0.280001
-0.277099
-0.278755
-0.268417
-0.284644
-0.284889
-0.284908
-0.284797
-0.284585
-0.284301
-0.283982
-0.283657
-0.283349
-0.283074
-0.282838
-0.282642
-0.282481
-0.282344
-0.282217
-0.282081
-0.281912
-0.281679
-0.281327
-0.280883
-0.279935
-0.279582
-0.276213
-0.27831
-0.267234
-0.285888
-0.286069
-0.286021
-0.285828
-0.285522
-0.285135
-0.284708
-0.284273
-0.283856
-0.283474
-0.283136
-0.282844
-0.282593
-0.282372
-0.282167
-0.281956
-0.281713
-0.281406
-0.28097
-0.280453
-0.279345
-0.279003
-0.275222
-0.277545
-0.26611
-0.287168
-0.287287
-0.287169
-0.286889
-0.286482
-0.285986
-0.285442
-0.284889
-0.284354
-0.283858
-0.28341
-0.283015
-0.282668
-0.282357
-0.282067
-0.281775
-0.28145
-0.28106
-0.280526
-0.279915
-0.278642
-0.278235
-0.274152
-0.276404
-0.265036
-0.288488
-0.288548
-0.288357
-0.287986
-0.287471
-0.286857
-0.286189
-0.285509
-0.284849
-0.28423
-0.283667
-0.283162
-0.282713
-0.282306
-0.281925
-0.281544
-0.281129
-0.280642
-0.279996
-0.279262
-0.277825
-0.277247
-0.273005
-0.274866
-0.263954
-0.289861
-0.289862
-0.289594
-0.289124
-0.288495
-0.287755
-0.286955
-0.28614
-0.285347
-0.2846
-0.283914
-0.283294
-0.282737
-0.282229
-0.28175
-0.281272
-0.280755
-0.280155
-0.279378
-0.278484
-0.276883
-0.276022
-0.271756
-0.272951
-0.262776
-0.291296
-0.291237
-0.290887
-0.290313
-0.289561
-0.288687
-0.287747
-0.28679
-0.285857
-0.284975
-0.284161
-0.283421
-0.28275
-0.282135
-0.281551
-0.280965
-0.280332
-0.279597
-0.278666
-0.27757
-0.275796
-0.27455
-0.270357
-0.270706
-0.261415
-0.292807
-0.292683
-0.292246
-0.29156
-0.290678
-0.289662
-0.288574
-0.287469
-0.286389
-0.285366
-0.284419
-0.283554
-0.282765
-0.282035
-0.281337
-0.280629
-0.27986
-0.278965
-0.277848
-0.276505
-0.274535
-0.27283
-0.268752
-0.268185
-0.259802
-0.294408
-0.294214
-0.293682
-0.292876
-0.291855
-0.29069
-0.289447
-0.288186
-0.286954
-0.285786
-0.284702
-0.283706
-0.282792
-0.28194
-0.281114
-0.280268
-0.279338
-0.278249
-0.276909
-0.275273
-0.273071
-0.270862
-0.266893
-0.265416
-0.257886
-0.296115
-0.295841
-0.295207
-0.294271
-0.293104
-0.29178
-0.290376
-0.288953
-0.287565
-0.286248
-0.285021
-0.28389
-0.282844
-0.281858
-0.280889
-0.27988
-0.278758
-0.277439
-0.27583
-0.27386
-0.271378
-0.268648
-0.264744
-0.262373
-0.255633
-0.297945
-0.29758
-0.296833
-0.295758
-0.294434
-0.292946
-0.291373
-0.289784
-0.288235
-0.286763
-0.28539
-0.284117
-0.28293
-0.281796
-0.280663
-0.279462
-0.278112
-0.276518
-0.274594
-0.272253
-0.26944
-0.266199
-0.262287
-0.258979
-0.25308
-0.299916
-0.299444
-0.298574
-0.297349
-0.29586
-0.294198
-0.29245
-0.29069
-0.288976
-0.287346
-0.285821
-0.284398
-0.283058
-0.281757
-0.280433
-0.279006
-0.277386
-0.275471
-0.273187
-0.270443
-0.267257
-0.263544
-0.259521
-0.25524
-0.25039
-0.302044
-0.301449
-0.300442
-0.299057
-0.297392
-0.29555
-0.293622
-0.291686
-0.289802
-0.28801
-0.286326
-0.284743
-0.283233
-0.281742
-0.280195
-0.278501
-0.276563
-0.274283
-0.271597
-0.268428
-0.26484
-0.260713
-0.256464
-0.251481
-0.247526
-0.304347
-0.303609
-0.302452
-0.300894
-0.299045
-0.297014
-0.2949
-0.292783
-0.290726
-0.288766
-0.286915
-0.285159
-0.283458
-0.281746
-0.279937
-0.277931
-0.275629
-0.272941
-0.26982
-0.266214
-0.262214
-0.25772
-0.253152
-0.247917
-0.243617
-0.306844
-0.30594
-0.304617
-0.302875
-0.300831
-0.298604
-0.296298
-0.293996
-0.29176
-0.289625
-0.287596
-0.285648
-0.28373
-0.281762
-0.279647
-0.277281
-0.274569
-0.271436
-0.267858
-0.263811
-0.259411
-0.254576
-0.249714
-0.244268
-0.23961
-0.30955
-0.308455
-0.306952
-0.305013
-0.302763
-0.300333
-0.297829
-0.295337
-0.292917
-0.290597
-0.288374
-0.286213
-0.284045
-0.281779
-0.27931
-0.276535
-0.273371
-0.269764
-0.265719
-0.261239
-0.256456
-0.251313
-0.246183
-0.240573
-0.235689
-0.312482
-0.31117
-0.30947
-0.30732
-0.304855
-0.302213
-0.299506
-0.296818
-0.294205
-0.291689
-0.289253
-0.286848
-0.284391
-0.28178
-0.278907
-0.275677
-0.272026
-0.267928
-0.263415
-0.258518
-0.253377
-0.247955
-0.242591
-0.236845
-0.231788
-0.315654
-0.314097
-0.312184
-0.30981
-0.307119
-0.304258
-0.301341
-0.298451
-0.295635
-0.292906
-0.290232
-0.287547
-0.284756
-0.28175
-0.278422
-0.274695
-0.270531
-0.265933
-0.26096
-0.255667
-0.250197
-0.244522
-0.238955
-0.233087
-0.227912
-0.319082
-0.317251
-0.315106
-0.312495
-0.309568
-0.306481
-0.303347
-0.300245
-0.297214
-0.29425
-0.291306
-0.288299
-0.285124
-0.281668
-0.277838
-0.273579
-0.268883
-0.263787
-0.25837
-0.252706
-0.246932
-0.241031
-0.235283
-0.229304
-0.22403
-0.322776
-0.320641
-0.318249
-0.315388
-0.312215
-0.308894
-0.305535
-0.30221
-0.298945
-0.295718
-0.292466
-0.289089
-0.285474
-0.281515
-0.27714
-0.272322
-0.267087
-0.2615
-0.25566
-0.249649
-0.243598
-0.237489
-0.231577
-0.225495
-0.220134
-0.326749
-0.32428
-0.321623
-0.3185
-0.315071
-0.311508
-0.307915
-0.304352
-0.30083
-0.297307
-0.293699
-0.289896
-0.285784
-0.281272
-0.276314
-0.270919
-0.265146
-0.259084
-0.252843
-0.24651
-0.240201
-0.233901
-0.227838
-0.221658
-0.33101
-0.328177
-0.32524
-0.321842
-0.318149
-0.314334
-0.310494
-0.306675
-0.302866
-0.299005
-0.294989
-0.2907
-0.286033
-0.280921
-0.275351
-0.26937
-0.263066
-0.256548
-0.249929
-0.243294
-0.236746
-0.230269
-0.224061
-0.217787
-0.335566
-0.332341
-0.329108
-0.325425
-0.321457
-0.317381
-0.31328
-0.30918
-0.305047
-0.300797
-0.296312
-0.291475
-0.286197
-0.280444
-0.274242
-0.267674
-0.260853
-0.253899
-0.246923
-0.240007
-0.233235
-0.226589
-0.220243
-0.340422
-0.336776
-0.333234
-0.329257
-0.325006
-0.320657
-0.316275
-0.311863
-0.307361
-0.302664
-0.297645
-0.292195
-0.286254
-0.279827
-0.272982
-0.265833
-0.258511
-0.251142
-0.243831
-0.236649
-0.229664
-0.222858
-0.216378
-0.345581
-0.341489
-0.337626
-0.333345
-0.328801
-0.324164
-0.319477
-0.314715
-0.30979
-0.30458
-0.298957
-0.292832
-0.286182
-0.279057
-0.271565
-0.263846
-0.256044
-0.248281
-0.240651
-0.233217
-0.226029
-0.21907
-0.212459
-0.351044
-0.34648
-0.342285
-0.337693
-0.332846
-0.327904
-0.322881
-0.317721
-0.312311
-0.306516
-0.300217
-0.293358
-0.285961
-0.278123
-0.269987
-0.261715
-0.253452
-0.245313
-0.237382
-0.229708
-0.222326
-0.215219
-0.208481
-0.356805
-0.351748
-0.347214
-0.342303
-0.337141
-0.33187
-0.326473
-0.32086
-0.314895
-0.308437
-0.301393
-0.293747
-0.285574
-0.277015
-0.268246
-0.259438
-0.250734
-0.242238
-0.23402
-0.226115
-0.218547
-0.211297
-0.362858
-0.357288
-0.352408
-0.347171
-0.34168
-0.336054
-0.330237
-0.324105
-0.317506
-0.310308
-0.302451
-0.293973
-0.285003
-0.275725
-0.266337
-0.257012
-0.247886
-0.23905
-0.230557
-0.222432
-0.214685
-0.207297
-0.369188
-0.363091
-0.35786
-0.352292
-0.346454
-0.340438
-0.334145
-0.327421
-0.320105
-0.312087
-0.303356
-0.29401
-0.284233
-0.274243
-0.264253
-0.254433
-0.244904
-0.235743
-0.226987
-0.21865
-0.210731
-0.20321
-0.37578
-0.369144
-0.36356
-0.357652
-0.351446
-0.344998
-0.338165
-0.330767
-0.322648
-0.313734
-0.304076
-0.293836
-0.283249
-0.272561
-0.261989
-0.251693
-0.24178
-0.232308
-0.2233
-0.21476
-0.206678
-0.199031
-0.38261
-0.375426
-0.369488
-0.363232
-0.356632
-0.349701
-0.342256
-0.334097
-0.325088
-0.315208
-0.304578
-0.293429
-0.282038
-0.270669
-0.259536
-0.248786
-0.238505
-0.228736
-0.219488
-0.210754
-0.202516
-0.389647
-0.381914
-0.375623
-0.369007
-0.36198
-0.354509
-0.34637
-0.337359
-0.327374
-0.316466
-0.304832
-0.292768
-0.280585
-0.268557
-0.256886
-0.245701
-0.23507
-0.225017
-0.21554
-0.206623
-0.198238
-0.396857
-0.388575
-0.381933
-0.374944
-0.367451
-0.359373
-0.350453
-0.340497
-0.329457
-0.317468
-0.304809
-0.291832
-0.278876
-0.266212
-0.254027
-0.242427
-0.231463
-0.22114
-0.211447
-0.202356
-0.193835
-0.404195
-0.395373
-0.388381
-0.381001
-0.372997
-0.364238
-0.354445
-0.343451
-0.331285
-0.318174
-0.30448
-0.290603
-0.276896
-0.263622
-0.250947
-0.238954
-0.227673
-0.217096
-0.207198
-0.197946
-0.189299
-0.411612
-0.402261
-0.394921
-0.38713
-0.378562
-0.369041
-0.35828
-0.346162
-0.332808
-0.318548
-0.303819
-0.289061
-0.274631
-0.260774
-0.247633
-0.235268
-0.223688
-0.212872
-0.202784
-0.193382
-0.184622
-0.419051
-0.409189
-0.401503
-0.393274
-0.384082
-0.373713
-0.361889
-0.348567
-0.333977
-0.318552
-0.3028
-0.287186
-0.272063
-0.257654
-0.244073
-0.231357
-0.219496
-0.208457
-0.198194
-0.188657
-0.179796
-0.426447
-0.416096
-0.408065
-0.399367
-0.389487
-0.37818
-0.365203
-0.350606
-0.334744
-0.318151
-0.301396
-0.28496
-0.269177
-0.254246
-0.240251
-0.227207
-0.215086
-0.203841
-0.193419
-0.183762
-0.174814
-0.43373
-0.422916
-0.414539
-0.405338
-0.394698
-0.382364
-0.368148
-0.352219
-0.335063
-0.317314
-0.299585
-0.282362
-0.265956
-0.250535
-0.236154
-0.222805
-0.210444
-0.199014
-0.188449
-0.178688
-0.169669
-0.440821
-0.429576
-0.420852
-0.411106
-0.399633
-0.386183
-0.370652
-0.353348
-0.334892
-0.316007
-0.297343
-0.279373
-0.262383
-0.246505
-0.231767
-0.218138
-0.20556
-0.193964
-0.183276
-0.173428
-0.164354
-0.447639
-0.435998
-0.426921
-0.416586
-0.404204
-0.389555
-0.372645
-0.353938
-0.334189
-0.314202
-0.294646
-0.275975
-0.258441
-0.242141
-0.227076
-0.213194
-0.200423
-0.188682
-0.177892
-0.167976
-0.454095
-0.442096
-0.43266
-0.42169
-0.408324
-0.392398
-0.374059
-0.353936
-0.332917
-0.31187
-0.291471
-0.272148
-0.254113
-0.237428
-0.222067
-0.207961
-0.195021
-0.183159
-0.172287
-0.162324
-0.460096
-0.447781
-0.437978
-0.426322
-0.4119
-0.394632
-0.374827
-0.353293
-0.331039
-0.308985
-0.287798
-0.267873
-0.249381
-0.23235
-0.216728
-0.202426
-0.189346
-0.177387
-0.166457
-0.156466
-0.465548
-0.45296
-0.442779
-0.430387
-0.414842
-0.396176
-0.374888
-0.351962
-0.328522
-0.30552
-0.283606
-0.263134
-0.244232
-0.226895
-0.211046
-0.19658
-0.183387
-0.171359
-0.160394
-0.150398
-0.470353
-0.457538
-0.446966
-0.43379
-0.41706
-0.396957
-0.374184
-0.349904
-0.325336
-0.301453
-0.278876
-0.257912
-0.238648
-0.221047
-0.205009
-0.190413
-0.177137
-0.165066
-0.154092
-0.144115
-0.474412
-0.461417
-0.450442
-0.436433
-0.418469
-0.396905
-0.372663
-0.347078
-0.321452
-0.296761
-0.273588
-0.252192
-0.232618
-0.214796
-0.198607
-0.183915
-0.170589
-0.158505
-0.147547
-0.137614
-0.477628
-0.464499
-0.453107
-0.438224
-0.418986
-0.395953
-0.370275
-0.343451
-0.316846
-0.291426
-0.267727
-0.245959
-0.226127
-0.20813
-0.191831
-0.177081
-0.163737
-0.151669
-0.140756
-0.13089
-0.121971
-0.479905
-0.466689
-0.454868
-0.439072
-0.418535
-0.394042
-0.366979
-0.338993
-0.311496
-0.285428
-0.261278
-0.239201
-0.219164
-0.201041
-0.184674
-0.169902
-0.156575
-0.144555
-0.133715
-0.123942
-0.115133
-0.481148
-0.467894
-0.45563
-0.438893
-0.417044
-0.391119
-0.362738
-0.333678
-0.305381
-0.278754
-0.254226
-0.231906
-0.211721
-0.19352
-0.177128
-0.162375
-0.149101
-0.13716
-0.126423
-0.11677
-0.108093
-0.481269
-0.468022
-0.455307
-0.437608
-0.414451
-0.387139
-0.357519
-0.327484
-0.298487
-0.271389
-0.246563
-0.224065
-0.203789
-0.185561
-0.16919
-0.154496
-0.141311
-0.129484
-0.118879
-0.109373
-0.100853
-0.480184
-0.466989
-0.453816
-0.435144
-0.410698
-0.382061
-0.351296
-0.320393
-0.2908
-0.263324
-0.238278
-0.215671
-0.195363
-0.177159
-0.160856
-0.146263
-0.133205
-0.121525
-0.477816
-0.464716
-0.451083
-0.431438
-0.405739
-0.375854
-0.34405
-0.312393
-0.28231
-0.25455
-0.229366
-0.206719
-0.186439
-0.168313
-0.152125
-0.474092
-0.461132
-0.447039
-0.426435
-0.399534
-0.368492
-0.335765
-0.303474
-0.273012
-0.245064
-0.219822
-0.197205
-0.468953
-0.456173
-0.441629
-0.420088
-0.392052
-0.359958
-0.326433
-0.293632
-0.262904
-0.234864
-0.462344
-0.449785
-0.434801
-0.412361
-0.38327
-0.350242
-0.316051
-0.282867
-0.454222
-0.441923
-0.426519
-0.403228
-0.373177
-0.339341
-0.444554
-0.432553
-0.416755
-0.392673
-0.361766
-0.433317
-0.42165
-0.40549
-0.420499
-0.269169
-0.27073
-0.271616
-0.272336
-0.27296
-0.273505
-0.274008
-0.274489
-0.276399
-0.275836
-0.275256
-0.274586
-0.273849
-0.273041
-0.272164
-0.276458
-0.275876
-0.275296
-0.274625
-0.273886
-0.273077
-0.272199
-0.276573
-0.275956
-0.275376
-0.274701
-0.27396
-0.273148
-0.272268
-0.276742
-0.276071
-0.275491
-0.274812
-0.274066
-0.273251
-0.272367
-0.271417
-0.276959
-0.276216
-0.275635
-0.274951
-0.2742
-0.273381
-0.272495
-0.271541
-0.27722
-0.276384
-0.275802
-0.275114
-0.274358
-0.273534
-0.272644
-0.271687
-0.27752
-0.276569
-0.275985
-0.275293
-0.274531
-0.273704
-0.272809
-0.271849
-0.27786
-0.276762
-0.276174
-0.275481
-0.274712
-0.273882
-0.272985
-0.272022
-0.278255
-0.276951
-0.27636
-0.275668
-0.274894
-0.274061
-0.273162
-0.272198
-0.278738
-0.277119
-0.276533
-0.275848
-0.275069
-0.274233
-0.273334
-0.272371
-0.279198
-0.277303
-0.276685
-0.276008
-0.275227
-0.27439
-0.273492
-0.272531
-0.279412
-0.277581
-0.276807
-0.276138
-0.275361
-0.274522
-0.273628
-0.27267
-0.279642
-0.277843
-0.276891
-0.276231
-0.27546
-0.274622
-0.273731
-0.272781
-0.27986
-0.278087
-0.276933
-0.276274
-0.275515
-0.274677
-0.273793
-0.272851
-0.271847
-0.280013
-0.278313
-0.276928
-0.276256
-0.275515
-0.27468
-0.273802
-0.272872
-0.27188
-0.280052
-0.278504
-0.276866
-0.276166
-0.275447
-0.274616
-0.273746
-0.272831
-0.271854
-0.279921
-0.278626
-0.276735
-0.275989
-0.275296
-0.274473
-0.273612
-0.272713
-0.271756
-0.279563
-0.278623
-0.276511
-0.275707
-0.275043
-0.274233
-0.273384
-0.272505
-0.27157
-0.278925
-0.278424
-0.276164
-0.275302
-0.274667
-0.273875
-0.273043
-0.272188
-0.27128
-0.270309
-0.27797
-0.277944
-0.275645
-0.274746
-0.274141
-0.273376
-0.272568
-0.271742
-0.270867
-0.269929
-0.276679
-0.277103
-0.2749
-0.274008
-0.273438
-0.272709
-0.271936
-0.271147
-0.27031
-0.269413
-0.275045
-0.275833
-0.273872
-0.27305
-0.272526
-0.271848
-0.271123
-0.270381
-0.269592
-0.268742
-0.273061
-0.274101
-0.272511
-0.27183
-0.271374
-0.270766
-0.270108
-0.269425
-0.268693
-0.267899
-0.267039
-0.270726
-0.271911
-0.270789
-0.270313
-0.269954
-0.269443
-0.268871
-0.268262
-0.267598
-0.266872
-0.266076
-0.268054
-0.269307
-0.268701
-0.268472
-0.268245
-0.267862
-0.267399
-0.266879
-0.266298
-0.26565
-0.264929
-0.265087
-0.266369
-0.266268
-0.2663
-0.266241
-0.266016
-0.265684
-0.265271
-0.264786
-0.264227
-0.26359
-0.262872
-0.2619
-0.263206
-0.263539
-0.263822
-0.26396
-0.263921
-0.263738
-0.263449
-0.263073
-0.262614
-0.26207
-0.261439
-0.258621
-0.259938
-0.260583
-0.261089
-0.261446
-0.26161
-0.261596
-0.261447
-0.261193
-0.260843
-0.260401
-0.259865
-0.255425
-0.256631
-0.257398
-0.258061
-0.258624
-0.258997
-0.259168
-0.25918
-0.259067
-0.258844
-0.258518
-0.25809
-0.252303
-0.253274
-0.253939
-0.254648
-0.255358
-0.255909
-0.256258
-0.256434
-0.256469
-0.256383
-0.256183
-0.255873
-0.255456
-0.248099
-0.250003
-0.250731
-0.251501
-0.252335
-0.25303
-0.253515
-0.253813
-0.253962
-0.253982
-0.253882
-0.253667
-0.253338
-0.24269
-0.245326
-0.246061
-0.246767
-0.247703
-0.248575
-0.249232
-0.249686
-0.249982
-0.250144
-0.250179
-0.250091
-0.249881
-0.23717
-0.240262
-0.241007
-0.241674
-0.242703
-0.243743
-0.244567
-0.24517
-0.245609
-0.24591
-0.246081
-0.246121
-0.246032
-0.227573
-0.231389
-0.226119
-0.235256
-0.230076
-0.239032
-0.233755
-0.227537
-0.243707
-0.238334
-0.231977
)
;

boundaryField
{
    inlet
    {
        type            zeroGradient;
    }
    outlet
    {
        type            fixedValue;
        value           nonuniform 0();
    }
    cylinder
    {
        type            zeroGradient;
    }
    top
    {
        type            symmetryPlane;
    }
    bottom
    {
        type            symmetryPlane;
    }
    defaultFaces
    {
        type            empty;
    }
    procBoundary9to5
    {
        type            processor;
        value           nonuniform List<scalar> 
33
(
-0.274961
-0.27543
-0.275893
-0.276345
-0.27678
-0.277186
-0.277552
-0.277864
-0.278111
-0.278278
-0.278354
-0.278327
-0.278192
-0.277951
-0.277616
-0.277195
-0.276746
-0.26928
-0.270829
-0.271709
-0.272424
-0.273043
-0.273585
-0.274084
-0.274563
-0.274961
-0.276399
-0.275836
-0.275256
-0.274586
-0.273849
-0.273041
-0.272164
)
;
    }
    procBoundary9to6
    {
        type            processor;
        value           uniform -0.271219;
    }
    procBoundary9to8
    {
        type            processor;
        value           nonuniform List<scalar> 
29
(
-0.111083
-0.101752
-0.137675
-0.124783
-0.111083
-0.113285
-0.177016
-0.159022
-0.137675
-0.142997
-0.209647
-0.177016
-0.187131
-0.251985
-0.209647
-0.223952
-0.30462
-0.251985
-0.271184
-0.30462
-0.327257
-0.380689
-0.327257
-0.349043
-0.409201
-0.380689
-0.392718
-0.409201
-0.4061
)
;
    }
    procBoundary9to10
    {
        type            processor;
        value           nonuniform List<scalar> 
38
(
-0.271253
-0.27132
-0.27132
-0.270401
-0.270522
-0.270665
-0.270825
-0.270995
-0.27117
-0.271343
-0.271505
-0.271649
-0.271766
-0.271766
-0.270779
-0.270824
-0.270813
-0.270734
-0.270572
-0.270572
-0.269275
-0.268928
-0.268451
-0.267827
-0.267827
-0.266108
-0.265207
-0.26413
-0.26413
-0.262069
-0.260718
-0.259234
-0.257562
-0.257562
-0.254932
-0.252899
-0.249552
-0.245818
)
;
    }
    procBoundary9to12
    {
        type            processor;
        value           nonuniform List<scalar> 2(-0.0932138 -0.093413);
    }
    procBoundary9to13
    {
        type            processor;
        value           nonuniform List<scalar> 
58
(
-0.223709
-0.219804
-0.216213
-0.215855
-0.216213
-0.212259
-0.213878
-0.213878
-0.209924
-0.20592
-0.20186
-0.204435
-0.204435
-0.200317
-0.196117
-0.19183
-0.19475
-0.19475
-0.19036
-0.185854
-0.181224
-0.176464
-0.171567
-0.166526
-0.161337
-0.155993
-0.158864
-0.158864
-0.153193
-0.147336
-0.141288
-0.135047
-0.128609
-0.128609
-0.113904
-0.107187
-0.100289
-0.231567
-0.234933
-0.235783
-0.236483
-0.237605
-0.238795
-0.239774
-0.24052
-0.241091
-0.241524
-0.241823
-0.241986
-0.242015
-0.223709
-0.222318
-0.222318
-0.219906
-0.223853
-0.223853
-0.221898
-0.226118
)
;
    }
}


// ************************************************************************* //
