/*--------------------------------*- C++ -*----------------------------------*\
  =========                 |
  \\      /  F ield         | OpenFOAM: The Open Source CFD Toolbox
   \\    /   O peration     | Website:  https://openfoam.org
    \\  /    A nd           | Version:  7
     \\/     M anipulation  |
\*---------------------------------------------------------------------------*/
FoamFile
{
    version     2.0;
    format      ascii;
    class       surfaceScalarField;
    location    "95";
    object      phi;
}
// * * * * * * * * * * * * * * * * * * * * * * * * * * * * * * * * * * * * * //

dimensions      [0 3 -1 0 0 0 0];

internalField   nonuniform List<scalar> 
3881
(
0.00370439
-0.000721159
0.003715
-6.94262e-05
0.00380522
0.000782658
0.00394425
0.00174053
0.00410004
0.00271207
0.00424908
0.00366035
0.0043807
0.00460828
0.00449868
0.00559519
0.00461797
0.00660599
0.00475307
0.0075241
0.00490752
0.00814631
0.00507795
0.0082252
0.00525766
0.00752192
0.00543505
0.00590787
0.00559746
0.00348121
0.00572685
0.000618436
-0.00212762
0.00390335
-0.000617359
0.0038887
-5.47704e-05
0.00396061
0.000710741
0.00409105
0.00161009
0.00424586
0.00255726
0.00439882
0.00350739
0.00453827
0.00446883
0.00466863
0.00546482
0.00480512
0.00646951
0.00496059
0.00736862
0.00513768
0.00796923
0.00533225
0.00803063
0.00553442
0.00731975
0.0057313
0.00571099
0.00590947
0.00330304
0.00604628
0.000481622
0.00611454
-0.00219587
0.00610182
-0.00427338
0.00601593
-0.00558306
0.00587949
-0.00622045
0.00572055
-0.00637221
0.0055572
-0.00622016
0.00539297
-0.00592473
0.00523323
-0.00559372
0.00508949
-0.00521032
0.00495805
-0.00474377
0.00481667
-0.00425682
0.00465611
-0.00383704
0.00450401
-0.00343629
0.00440581
-0.00285114
0.00438867
-0.00196291
0.00444651
-0.000762596
0.00455234
0.000566797
0.00467724
0.00198682
0.00479994
0.00344598
0.00491134
0.00507621
0.00500875
0.00679417
0.00508909
0.00847883
0.00514797
0.00971551
0.00517846
0.010184
0.00518348
0.00947047
0.00517624
0.00748966
0.00517103
0.00439388
0.00518308
0.000627241
0.00519941
-0.00266767
0.00521362
-0.00553361
0.00519173
-0.00663093
0.00514336
-0.0078104
0.00508124
-0.00713982
0.00501698
-0.0071864
0.0049372
-0.00598627
0.00480552
-0.0052809
0.00469897
-0.00527947
0.00461712
-0.00333148
0.00463135
-0.00403473
-0.000207283
0.00412357
-0.000492846
0.00408054
-1.1741e-05
0.00412798
0.000663299
0.00424402
0.00149405
0.00439431
0.00240697
0.00455011
0.00335159
0.00469819
0.00432074
0.00484284
0.00532018
0.00499841
0.00631394
0.00517608
0.00719094
0.00537797
0.00776735
0.00559829
0.00781031
0.00582429
0.00709375
0.00604268
0.00549259
0.00623786
0.00310787
0.00638172
0.000337761
0.00644459
-0.00225875
0.00641701
-0.0042458
0.00631229
-0.00547833
0.00615681
-0.00606498
0.00598059
-0.00619598
0.00580361
-0.00604318
0.00562944
-0.00575056
0.00546068
-0.00542497
0.00530842
-0.00505806
0.00517266
-0.00460801
0.00503234
-0.0041165
0.00487288
-0.00367759
0.00471621
-0.00327961
0.00460828
-0.00274321
0.00458193
-0.00193656
0.0046353
-0.00081596
0.0047416
0.000460498
0.00487041
0.00185801
0.00499977
0.00331662
0.00512067
0.00495531
0.00523046
0.00668438
0.0053251
0.00838419
0.00539919
0.00964142
0.00544392
0.0101392
0.00546035
0.00945404
0.00546225
0.00748776
0.00546224
0.0043939
0.0054739
0.000615572
0.00548348
-0.00267724
0.0054878
-0.00553793
0.00545484
-0.00659797
0.00539304
-0.0077486
0.00531673
-0.00706351
0.00524216
-0.00711183
0.00515989
-0.005904
0.00502357
-0.00514458
0.00490985
-0.00516575
0.00481609
-0.00323771
0.0048204
-0.00403904
-0.00026097
0.00436723
-0.000352163
0.00429486
6.06268e-05
0.00431212
0.000646038
0.00440686
0.00139931
0.00454758
0.00226625
0.00470402
0.00319515
0.00486105
0.00416371
0.00502154
0.00515969
0.00519788
0.0061376
0.0053997
0.00698913
0.00562839
0.00753865
0.00587581
0.0075629
0.00612725
0.0068423
0.0063692
0.00525064
0.00658232
0.00289475
0.00673252
0.000187562
0.00678823
-0.00231445
0.00674383
-0.0042014
0.00661881
-0.00535332
0.00644368
-0.00588984
0.00624997
-0.00600228
0.00605921
-0.00585242
0.00587527
-0.00556661
0.00569802
-0.00524772
0.00553724
-0.00489728
0.0053965
-0.00446727
0.00525719
-0.00397719
0.0051001
-0.0035205
0.00494016
-0.00311967
0.00482224
-0.00262529
0.00478478
-0.0018991
0.00483155
-0.000862731
0.00493715
0.0003549
0.00506982
0.00172533
0.00520657
0.00317987
0.00533807
0.00482382
0.0054616
0.00656085
0.00557227
0.00827352
0.0056635
0.00955019
0.00572437
0.0100784
0.00575401
0.0094244
0.00576672
0.00747505
0.00577308
0.00438753
0.00578464
0.000604022
0.00578653
-0.00267914
0.00577906
-0.00553046
0.00573334
-0.00655225
0.00565694
-0.00767221
0.00556509
-0.00697166
0.00547846
-0.0070252
0.00539304
-0.00581858
0.00525242
-0.00500396
0.00513184
-0.00504517
0.00502532
-0.00313119
0.0050177
-0.00403143
-0.000313862
0.0046355
-0.000202334
0.00453593
0.000160198
0.004519
0.000662964
0.00458521
0.0013331
0.00470981
0.00214165
0.00486323
0.00304172
0.00502843
0.00399851
0.00520553
0.00498259
0.005404
0.00593913
0.00563181
0.00676132
0.00588896
0.0072815
0.00616465
0.00728721
0.00644329
0.00656366
0.00671077
0.00498316
0.00694246
0.00266306
0.00709785
3.21691e-05
0.00714428
-0.00236088
0.00708104
-0.00413816
0.00693446
-0.00520674
0.00673935
-0.00569473
0.00652833
-0.00579126
0.00632387
-0.00564797
0.00613043
-0.00537317
0.00594538
-0.00506267
0.00577634
-0.00472824
0.00562997
-0.0043209
0.00549136
-0.00383858
0.00533781
-0.00336695
0.00517631
-0.00295817
0.0050486
-0.00249758
0.00499812
-0.00184862
0.00503571
-0.000900318
0.00513891
0.000251695
0.00527514
0.00158911
0.00541996
0.00303505
0.0055632
0.00468058
0.00570197
0.00642209
0.00583058
0.00814492
0.00594099
0.00943977
0.00602002
0.00999934
0.00606484
0.00937958
0.00609009
0.0074498
0.0061041
0.00437352
0.0061159
0.00059222
0.00610929
-0.00267252
0.00608803
-0.0055092
0.0060277
-0.00649192
0.00593549
-0.00758
0.00582687
-0.00686304
0.00572637
-0.00692469
0.00563694
-0.00572916
0.0054924
-0.00485942
0.00536547
-0.00491823
0.00524562
-0.00301134
0.0052239
-0.00400971
-0.000365157
0.00492804
-5.23883e-05
0.00480716
0.000281077
0.00475523
0.000714897
0.00478666
0.00130168
0.00488761
0.0020407
0.0050326
0.00289673
0.00520344
0.00382767
0.00539661
0.00478942
0.00561794
0.00571781
0.00587318
0.00650608
0.00615987
0.00699481
0.00646477
0.00698231
0.00677246
0.00625597
0.0070674
0.00468822
0.00731783
0.00241264
0.00747658
-0.000126587
0.00751118
-0.00239548
0.00742706
-0.00405405
0.00725792
-0.0050376
0.00704289
-0.0054797
0.00681517
-0.00556353
0.00659743
-0.00543023
0.00639486
-0.0051706
0.00620283
-0.00487063
0.00602607
-0.00455148
0.0058735
-0.00416832
0.00573497
-0.00370005
0.00558592
-0.00321791
0.00542493
-0.00279718
0.00528828
-0.00236093
0.00522314
-0.00178349
0.00524852
-0.000925698
0.005347
0.00015322
0.005486
0.0014501
0.00563941
0.00288163
0.00579557
0.00452442
0.00595118
0.00626647
0.00609979
0.00799631
0.00623152
0.00930804
0.00633088
0.00989998
0.00639303
0.00931743
0.00643265
0.00741019
0.00645561
0.00435055
0.0064681
0.000579728
0.00645225
-0.00265667
0.00641521
-0.00547216
0.00633828
-0.00641499
0.00622901
-0.00747073
0.00610258
-0.00673661
0.00598638
-0.00680849
0.00589189
-0.00563466
0.00574377
-0.0047113
0.00561126
-0.00478572
0.00547785
-0.00287793
0.00543976
-0.00397163
-0.000413867
0.00524264
8.77902e-05
0.00511014
0.000413573
0.005027
0.000798038
0.00502025
0.00130843
0.00509024
0.00197071
0.0052197
0.00276726
0.00539139
0.00365599
0.00559827
0.00458254
0.00584209
0.00547398
0.00612524
0.00622293
0.00644166
0.00667838
0.00677648
0.00664749
0.00711522
0.00591722
0.00743936
0.00436409
0.00770798
0.00214402
0.00786723
-0.000285839
0.00788688
-0.00241513
0.00777993
-0.0039471
0.00758767
-0.00484533
0.00735327
-0.0052453
0.00710991
-0.00532017
0.00687967
-0.00519999
0.00666849
-0.00495943
0.00647037
-0.00467252
0.00628674
-0.00436785
0.0061276
-0.00400917
0.00598824
-0.0035607
0.00584429
-0.00307395
0.00568608
-0.00263897
0.00554213
-0.00221697
0.00546122
-0.00170258
0.00547115
-0.000935633
0.00556179
6.25823e-05
0.00570213
0.00130977
0.00586429
0.00271947
0.00603448
0.00435423
0.00620867
0.00609229
0.00637946
0.00782551
0.00653473
0.00915277
0.00665671
0.00977801
0.0067385
0.00923563
0.00679444
0.00735425
0.00682772
0.00431727
0.00684137
0.000566088
0.00681566
-0.00263097
0.00676087
-0.00541737
0.00666527
-0.00631939
0.00653767
-0.00734313
0.00639261
-0.00659155
0.00625899
-0.00667488
0.00615814
-0.0055338
0.00600673
-0.0045599
0.00586966
-0.00464865
0.00572291
-0.00273118
0.00566619
-0.0039149
-0.000458802
0.0055752
0.000209154
0.00544361
0.000545159
0.0053385
0.000903147
0.00529518
0.00135175
0.00532907
0.00193682
0.00543514
0.0026612
0.00560057
0.00349056
0.00581653
0.00436657
0.00608064
0.00520988
0.00639047
0.0059131
0.00673571
0.00633314
0.00710096
0.00628225
0.00747299
0.00554519
0.00782754
0.00400953
0.00811229
0.00185926
0.00826787
-0.000441413
0.00826885
-0.00241611
0.00813732
-0.00381557
0.00792195
-0.00462997
0.00766932
-0.00499267
0.00741191
-0.00506275
0.00717037
-0.00495845
0.00695124
-0.00474031
0.00674798
-0.00446925
0.00655859
-0.00417846
0.00639281
-0.00384339
0.00625151
-0.00341941
0.00611273
-0.00293516
0.00595961
-0.00248586
0.00581082
-0.00206818
0.00571393
-0.00160569
0.0057052
-0.000926905
0.00578414
-1.63553e-05
0.00592343
0.00117048
0.00609389
0.00254901
0.00627908
0.00416904
0.00647363
0.00589773
0.00666885
0.00763029
0.00684992
0.0089717
0.00699693
0.009631
0.00710088
0.00913168
0.00717524
0.00727989
0.00722024
0.00427227
0.00723546
0.000550869
0.00719939
-0.00259489
0.00712501
-0.005343
0.00700865
-0.00620303
0.00686144
-0.00719591
0.00669722
-0.00642733
0.00654467
-0.00652233
0.00643597
-0.0054251
0.00628145
-0.00440538
0.00614103
-0.00450823
0.00598173
-0.00257188
0.00590421
-0.00383738
-0.000498578
0.00592044
0.00030544
0.00580304
0.000662565
0.00569019
0.001016
0.00561858
0.00142336
0.00561611
0.00193929
0.00569226
0.00258505
0.00584298
0.00333983
0.00606096
0.0041486
0.00634042
0.00493041
0.00667329
0.00558024
0.00704512
0.00596131
0.00744137
0.00588599
0.00784877
0.00513779
0.00823349
0.00362482
0.00852997
0.00156278
0.00867586
-0.000587304
0.00865392
-0.00239416
0.00849653
-0.00365818
0.00825892
-0.00439235
0.00798987
-0.00472363
0.00772051
-0.00479339
0.00746929
-0.00470723
0.00724306
-0.00451407
0.00703556
-0.00426176
0.00684174
-0.00398464
0.00666967
-0.00367132
0.00652526
-0.00327499
0.00639108
-0.00280099
0.00624511
-0.00233989
0.00609475
-0.00191782
0.00598289
-0.00149383
0.0059528
-0.000896818
0.0060155
-7.90571e-05
0.0061502
0.00103579
0.00632762
0.00237159
0.00652841
0.00396825
0.00674504
0.0056811
0.00696689
0.00740845
0.00717603
0.00876256
0.0073506
0.00945643
0.00747942
0.00900286
0.00757449
0.00718482
0.00763254
0.00421422
0.00764981
0.000533593
0.00760288
-0.00254796
0.00750728
-0.0052474
0.0073682
-0.00606394
0.00720011
-0.00702782
0.00701651
-0.00624373
0.00684383
-0.00634965
0.00672565
-0.00530692
0.00656802
-0.00424776
0.00642563
-0.00436584
0.00625519
-0.00240144
0.00615499
-0.00373719
-0.000531632
0.00627318
0.000374667
0.00618101
0.000754727
0.00607734
0.00111967
0.00599265
0.00150805
0.00596101
0.00197093
0.00600542
0.00254064
0.00613405
0.0032112
0.00634528
0.00393737
0.00663211
0.00464358
0.00698153
0.00523082
0.00737657
0.00556627
0.0078043
0.00545826
0.00824795
0.00469414
0.00865915
0.00321362
0.00895939
0.00126254
0.00908758
-0.000715495
0.00903831
-0.00234489
0.00885465
-0.00347451
0.00859668
-0.00413438
0.0083138
-0.00444075
0.00803507
-0.00451467
0.00777623
-0.00444839
0.00754395
-0.0042818
0.00733306
-0.00405087
0.00713623
-0.00378781
0.00695871
-0.0034938
0.00681012
-0.0031264
0.00667934
-0.0026702
0.00654199
-0.00220255
0.00639388
-0.0017697
0.00626956
-0.00136951
0.00621647
-0.000843722
0.00625808
-0.000120667
0.00638337
0.000910494
0.00656518
0.00218978
0.00678152
0.00375191
0.00702166
0.00544095
0.00727216
0.00715796
0.00751158
0.00852314
0.00771629
0.00925171
0.00787287
0.00884628
0.00799106
0.00706663
0.00806371
0.00414157
0.00808314
0.000514164
0.00802509
-0.00248991
0.00790693
-0.00512924
0.00774338
-0.00590039
0.00755323
-0.00683767
0.00735038
-0.00604088
0.00715686
-0.00615614
0.00702748
-0.00517754
0.00686653
-0.0040868
0.00672358
-0.00422289
0.00654414
-0.00222199
0.00641985
-0.0036129
-0.000556273
0.00662993
0.000419261
0.00656905
0.000815613
0.00649014
0.00119858
0.00641203
0.00158616
0.00636683
0.00201613
0.00638597
0.0025215
0.00649011
0.00310706
0.00668671
0.00374077
0.00697104
0.00435925
0.00732847
0.00487339
0.00774249
0.00515225
0.00820088
0.00499987
0.00867753
0.0042175
0.00910574
0.0027854
0.00939709
0.000971188
0.00949807
-0.000816469
0.00941767
-0.00226449
0.00920867
-0.00326552
0.0089335
-0.00385921
0.00864016
-0.00414741
0.00835507
-0.00422958
0.00809097
-0.00418428
0.00785395
-0.00404478
0.00764044
-0.00383736
0.007442
-0.00358938
0.00726032
-0.00331211
0.00710688
-0.00297296
0.00697773
-0.00254106
0.00684957
-0.00207438
0.00670768
-0.00162782
0.00657501
-0.00123684
0.00649895
-0.000767657
0.00651489
-0.000136609
0.0066248
0.00080058
0.0068069
0.00200768
0.00703766
0.00352116
0.0073021
0.0051765
0.00758289
0.00687717
0.00785459
0.00825143
0.00809201
0.0090143
0.00827938
0.00865891
0.00842337
0.00692264
0.00851203
0.00405291
0.00853381
0.00049238
0.00846441
-0.0024205
0.00832273
-0.00498756
0.00813339
-0.00571106
0.00792014
-0.00662442
0.00769853
-0.00581927
0.00748404
-0.00594165
0.00734179
-0.00503529
0.00717703
-0.00392204
0.00703484
-0.0040807
0.00684929
-0.00203645
0.00670019
-0.0034638
-0.000570761
0.00699016
0.00044491
0.00696023
0.000845538
0.00691599
0.00124282
0.00686349
0.00163866
0.00682612
0.0020535
0.006836
0.00251162
0.00692212
0.00302094
0.00710148
0.00356141
0.00737528
0.00408546
0.00773251
0.00451616
0.0081604
0.00472435
0.00864451
0.00451576
0.00914302
0.00371899
0.00957071
0.00235771
0.00983665
0.000705247
0.00990079
-0.000880607
0.00978733
-0.00215103
0.00955589
-0.00303408
0.009268
-0.00357132
0.0089683
-0.00384771
0.00868012
-0.0039414
0.00841336
-0.00391752
0.00817315
-0.00380457
0.00795774
-0.00362194
0.00775891
-0.00339055
0.00757473
-0.00312793
0.0074164
-0.00281463
0.00728685
-0.0024115
0.00716724
-0.00195478
0.00703514
-0.00149571
0.00689961
-0.00110131
0.00680289
-0.000670936
0.00678975
-0.000123473
0.00687759
0.000712744
0.00705413
0.00183113
0.00729654
0.00327875
0.00758499
0.00488806
0.00789702
0.00656514
0.00820264
0.00794581
0.00847515
0.00874179
0.00869641
0.00843765
0.00886893
0.00675011
0.00897516
0.00394669
0.00899948
0.000468061
0.00891864
-0.00233967
0.00875296
-0.00482187
0.00853708
-0.00549518
0.00829994
-0.00638728
0.0080604
-0.00557972
0.00782551
-0.00570676
0.00766892
-0.0048787
0.00749963
-0.00375274
0.00735922
-0.00394028
0.00717117
-0.00184839
0.00699751
-0.00329014
-0.000573429
0.00735606
0.000457904
0.00735159
0.000850007
0.0073437
0.00125071
0.00732922
0.00165314
0.00732038
0.00206234
0.00734292
0.00248908
0.00742695
0.0029369
0.00759551
0.00339286
0.00785736
0.00382361
0.00820964
0.00416388
0.00864498
0.00428902
0.00914247
0.00401827
0.00964166
0.00321979
0.0100447
0.00195464
0.0102678
0.000482223
0.0102882
-0.000901024
0.010143
-0.00200585
0.0098943
-0.00278538
0.00959943
-0.00327645
0.00929796
-0.00354623
0.00901008
-0.00365352
0.00874332
-0.00365077
0.0085017
-0.00356295
0.00828511
-0.00340535
0.00808683
-0.00319228
0.00790199
-0.00294309
0.0077395
-0.00265215
0.00760763
-0.00227962
0.00749476
-0.00184192
0.00737486
-0.00137581
0.00724278
-0.000969223
0.00713035
-0.000558511
0.00708702
-8.01392e-05
0.00714624
0.000653518
0.0073097
0.00166768
0.00755885
0.0030296
0.00786925
0.00457765
0.00821234
0.00622205
0.00855284
0.00760532
0.0088625
0.00843213
0.00912056
0.00817958
0.00932441
0.00654626
0.00944998
0.00382112
0.00947713
0.000440907
0.00938503
-0.00224757
0.0091954
-0.00463224
0.00895297
-0.00525276
0.00869155
-0.00612586
0.00843524
-0.00532341
0.00818129
-0.00545281
0.00800927
-0.00470668
0.00783452
-0.003578
0.00769639
-0.00380216
0.00751004
-0.00166204
0.00731326
-0.00309336
-0.000562849
0.00773119
0.000463104
0.00774449
0.000836706
0.00776739
0.00122781
0.0077933
0.00162723
0.00782557
0.00203008
0.0078804
0.00243425
0.00798229
0.00283501
0.00815442
0.00322072
0.0084113
0.00356673
0.00875881
0.00381636
0.00919331
0.00385452
0.00968439
0.0035272
0.0101565
0.00274766
0.0105103
0.00160083
0.0106775
0.000315042
0.0106531
-0.000876593
0.0104817
-0.00183452
0.0102231
-0.00252679
0.0099278
-0.0029811
0.00962935
-0.00324778
0.00934505
-0.00336922
0.00908085
-0.00338657
0.00883972
-0.00332181
0.00862279
-0.00318843
0.00842569
-0.00299517
0.0082419
-0.0027593
0.00807678
-0.00248703
0.00794133
-0.00214417
0.00783242
-0.00173301
0.00772538
-0.00126876
0.00760291
-0.000846757
0.00748228
-0.000437875
0.00741107
-8.93189e-06
0.00743671
0.000627871
0.00757841
0.00152599
0.00782678
0.00278123
0.00815462
0.0042498
0.00852684
0.00584984
0.00890207
0.00723008
0.00925024
0.00808396
0.0095477
0.00788212
0.00978562
0.00630834
0.00993256
0.00367419
0.00996324
0.000410227
0.00986027
-0.0021446
0.00964735
-0.00441932
0.00937926
-0.00498468
0.0090937
-0.0058403
0.0088221
-0.00505181
0.00855117
-0.00518188
0.00836321
-0.00451872
0.00818204
-0.00339683
0.00804594
-0.00366606
0.00786585
-0.00148196
0.00764884
-0.00287635
-0.00053804
0.00811866
0.000463108
0.00814294
0.000812427
0.00818755
0.0011832
0.00824734
0.00156743
0.00832152
0.0019559
0.00841797
0.0023378
0.00855245
0.00270054
0.00874322
0.00302994
0.00900613
0.00330382
0.0093517
0.00347079
0.00977556
0.00343066
0.010238
0.00306475
0.0106578
0.0023279
0.0109458
0.00131276
0.0110541
0.000206813
0.0109911
-0.000813592
0.0108031
-0.00164655
0.0105433
-0.00226697
0.010254
-0.00269186
0.00996313
-0.00295688
0.0096854
-0.00309149
0.00942605
-0.00312723
0.00918735
-0.00308311
0.00897112
-0.0029722
0.00877558
-0.00279964
0.00859421
-0.00257793
0.00842851
-0.00232133
0.00828931
-0.00200496
0.00818127
-0.00162497
0.00808563
-0.00117312
0.00797754
-0.000738674
0.00785796
-0.000318297
0.00776537
8.36648e-05
0.00775587
0.000637372
0.00786729
0.00141456
0.00810483
0.00254369
0.00844237
0.00391227
0.00883917
0.00545303
0.00924731
0.00682195
0.00963424
0.00769702
0.00997303
0.00754334
0.0102479
0.00603344
0.0104185
0.00350364
0.0104538
0.000374937
0.0103407
-0.00203154
0.0101057
-0.00418435
0.00981389
-0.00469282
0.00950504
-0.00553145
0.00921992
-0.00476668
0.00893477
-0.00489674
0.00873109
-0.00431503
0.00854273
-0.00320847
0.00840743
-0.00353076
0.00823817
-0.0013127
0.00800537
-0.00264354
-0.000498713
0.00852005
0.000458729
0.00855096
0.00078152
0.00860869
0.00112546
0.00869164
0.00148449
0.00879896
0.00184858
0.00893369
0.00220306
0.00910372
0.00253052
0.0093204
0.00281326
0.00959644
0.00302778
0.00994083
0.0031264
0.0103441
0.00302738
0.0107608
0.0026481
0.0111145
0.0019742
0.0113345
0.00109268
0.0113919
0.000149425
0.0113027
-0.000724414
0.0111097
-0.00145347
0.0108572
-0.00201449
0.0105798
-0.00241451
0.0103003
-0.00267738
0.0100317
-0.00282286
0.00977915
-0.00287467
0.00954472
-0.00284868
0.00933042
-0.0027579
0.00913677
-0.00260599
0.00895865
-0.0023998
0.00879455
-0.00215723
0.00865269
-0.00186311
0.00854296
-0.00151524
0.00845545
-0.00108561
0.00836391
-0.000647141
0.00825475
-0.000209134
0.00815136
0.000187052
0.00811037
0.000678369
0.00818541
0.00133951
0.00840045
0.00232865
0.00873626
0.00357646
0.00914957
0.00503973
0.00958613
0.00638539
0.0100104
0.00727271
0.0103919
0.00716188
0.0107065
0.00571887
0.0109036
0.00330653
0.0109446
0.000333939
0.0108225
-0.00190951
0.0105673
-0.00392912
0.0102546
-0.00438008
0.00992418
-0.00520106
0.0096276
-0.0044701
0.0093315
-0.00460064
0.00911317
-0.0040967
0.00891736
-0.00301266
0.00878058
-0.00339397
0.00862619
-0.00115831
0.00838357
-0.00240092
-0.000445509
0.00893552
0.000450001
0.00897096
0.000746077
0.00903587
0.00106056
0.00913179
0.00138856
0.00925966
0.00172072
0.00942083
0.00204189
0.00961822
0.00233313
0.00985704
0.00257443
0.0101445
0.00274033
0.0104834
0.00278746
0.0108577
0.0026531
0.0112213
0.0022845
0.01151
0.00168558
0.0116726
0.000930041
0.0116946
0.000127381
0.0115939
-0.000623694
0.0114066
-0.00126614
0.0111684
-0.00177635
0.0109074
-0.00215343
0.0106422
-0.00241221
0.0103847
-0.00256537
0.0101405
-0.00263046
0.00991195
-0.00262014
0.00970097
-0.00254693
0.00950968
-0.0024147
0.00933515
-0.00222527
0.00917447
-0.00199655
0.00903208
-0.00172071
0.0089195
-0.00140267
0.00883593
-0.00100203
0.00875981
-0.000571025
0.00866838
-0.000117703
0.00856741
0.000288023
0.00850479
0.000740991
0.00854259
0.00130171
0.00872413
0.00214711
0.00904356
0.00325703
0.0094608
0.00462249
0.00991758
0.0059286
0.0103758
0.00681451
0.0108006
0.00673707
0.0111579
0.0053616
0.0113842
0.00308024
0.0114321
0.000286041
0.011302
-0.0017795
0.0110287
-0.00365581
0.010699
-0.00405032
0.0103498
-0.00485185
0.0100441
-0.00416448
0.00974059
-0.00429709
0.0095095
-0.00386561
0.00930692
-0.00281008
0.00916538
-0.00325244
0.00902878
-0.00102171
0.00878361
-0.00215576
-0.000380193
0.00936454
0.000436949
0.00940365
0.000706966
0.00947241
0.000991791
0.00957413
0.00128685
0.00971127
0.00158358
0.00988518
0.00186798
0.0100965
0.00212185
0.0103462
0.00232465
0.010636
0.00245062
0.0109614
0.00246206
0.0113014
0.00231309
0.0116137
0.00197212
0.0118484
0.0014509
0.0119707
0.000807793
0.0119736
0.000124504
0.011874
-0.000524161
0.0117004
-0.00109254
0.0114812
-0.00155709
0.011239
-0.00191129
0.0109901
-0.00216325
0.0107452
-0.00232052
0.0105106
-0.00239583
0.0102892
-0.00239879
0.010083
-0.00234069
0.00989479
-0.00222648
0.00972394
-0.00205442
0.00956782
-0.00184043
0.0094274
-0.00158029
0.00931258
-0.00128785
0.00922929
-0.000918741
0.00916461
-0.000506341
0.00909418
-4.72727e-05
0.00900842
0.000373774
0.00893937
0.000810046
0.00894668
0.0012944
0.00908803
0.00200576
0.00937519
0.00296987
0.00977922
0.00421845
0.0102437
0.00546417
0.0107301
0.00632806
0.0111989
0.0062683
0.0116016
0.00495889
0.0118588
0.00282306
0.0119132
0.000231615
0.0117758
-0.00164209
0.0114869
-0.00336692
0.0111448
-0.00370824
0.0107806
-0.00448761
0.0104687
-0.00385264
0.0101613
-0.00398962
0.00991991
-0.00362425
0.00971245
-0.00260262
0.0095623
-0.00310229
0.0094447
-0.000904111
0.00920496
-0.00191601
-0.00030572
0.00980648
0.000419866
0.00984872
0.000664726
0.00991965
0.000920861
0.010023
0.00118354
0.0101617
0.00144481
0.0103375
0.0016922
0.0105501
0.00190926
0.0107982
0.00207649
0.011079
0.00216987
0.0113828
0.00215828
0.0116868
0.0020091
0.0119549
0.00170401
0.0121495
0.00125625
0.0122467
0.00071061
0.0122433
0.000127849
0.0121529
-0.000433755
0.0119974
-0.000936973
0.0117991
-0.0013588
0.011577
-0.00168923
0.0113453
-0.00193149
0.0111141
-0.00208933
0.01089
-0.00217175
0.0106769
-0.00218569
0.0104767
-0.00214051
0.0102925
-0.00204231
0.0101255
-0.0018874
0.00997435
-0.00168928
0.00983806
-0.001444
0.00972303
-0.00117282
0.00963822
-0.000833924
0.00957977
-0.000447895
0.0095288
3.70222e-06
0.00946705
0.000435516
0.00940853
0.000868574
0.00939977
0.00130315
0.00950227
0.00190326
0.00974438
0.00272777
0.0101161
0.00384673
0.0105727
0.00500761
0.0110807
0.00581999
0.0115938
0.0057552
0.0120425
0.00451018
0.0123278
0.00253783
0.012386
0.000173337
0.0122407
-0.0014967
0.011939
-0.0030653
0.0115901
-0.00335929
0.0112156
-0.00411316
0.0109009
-0.00353792
0.0105928
-0.00368152
0.010344
-0.00337542
0.0101349
-0.00239353
0.0099724
-0.00293978
0.0098729
-0.000804612
0.00964636
-0.00168948
-0.000226085
0.0102609
0.000399282
0.0103057
0.000619982
0.0103777
0.000848842
0.0104803
0.00108094
0.0106163
0.00130876
0.0107873
0.00152127
0.0109925
0.00170402
0.0112295
0.00183951
0.0114925
0.00190681
0.0117696
0.00188126
0.0120387
0.00173999
0.0122703
0.00147234
0.0124362
0.00109036
0.0125191
0.000627703
0.0125165
0.000130486
0.0124389
-0.000356138
0.0123025
-0.000800623
0.0121254
-0.00118162
0.0119233
-0.00148722
0.011709
-0.00171718
0.0114921
-0.00187242
0.0112793
-0.00195896
0.0110753
-0.00198162
0.0108822
-0.00194746
0.0107032
-0.00186328
0.0105404
-0.00172459
0.0103942
-0.00154311
0.0102634
-0.00131314
0.0101507
-0.00106017
0.0100648
-0.000748006
0.0100084
-0.000391472
0.00997183
4.02299e-05
0.00993639
0.000470952
0.00990177
0.000903196
0.00989516
0.00130976
0.00996956
0.00182887
0.0101628
0.00253449
0.0104883
0.00352129
0.010924
0.0045719
0.0114479
0.00529608
0.0120025
0.00520058
0.0124903
0.00402243
0.0127936
0.00223451
0.0128482
0.000118707
0.0126938
-0.00134227
0.012383
-0.00275447
0.0120332
-0.00300954
0.0116543
-0.00373423
0.0113405
-0.00322416
0.0110347
-0.00337573
0.0107812
-0.00312189
0.0105748
-0.00218713
0.0103972
-0.00276216
0.0103129
-0.000720352
0.010106
-0.00148261
-0.000145867
0.0107277
0.000375836
0.0107742
0.000573478
0.0108463
0.000776667
0.0109469
0.000980419
0.0110779
0.00117768
0.0112406
0.00135865
0.0114338
0.00151082
0.0116542
0.00161908
0.011895
0.00166604
0.0121436
0.00163264
0.0123806
0.00150297
0.0125823
0.00127062
0.0127269
0.000945767
0.0128008
0.000553791
0.0128021
0.000129198
0.0127375
-0.000291508
0.0126195
-0.000682664
0.0124624
-0.0010245
0.0122797
-0.00130453
0.0120826
-0.00152009
0.0118803
-0.00167006
0.0116793
-0.00175802
0.0114849
-0.00178722
0.0112999
-0.00176237
0.011127
-0.00169044
0.0109691
-0.00156667
0.0108279
-0.00140189
0.0107029
-0.0011882
0.0105948
-0.000951999
0.0105097
-0.000662964
0.0104536
-0.000335375
0.0104258
6.80541e-05
0.0104129
0.000483836
0.0104076
0.000908499
0.0104184
0.00129897
0.0104816
0.00176567
0.0106354
0.00238071
0.0109147
0.00324201
0.0113263
0.00416025
0.0118612
0.00476123
0.0124458
0.00461599
0.0129531
0.00351505
0.0132556
0.00193202
0.0132966
7.76885e-05
0.0131324
-0.00117807
0.0128174
-0.00243939
0.0124734
-0.00266561
0.0120963
-0.00335714
0.0117878
-0.00291562
0.0114868
-0.00307478
0.0112311
-0.00286619
0.011032
-0.001988
0.0108384
-0.00256853
0.0107653
-0.000647281
0.0105821
-0.00129934
-6.94928e-05
0.0112066
0.000350197
0.0112541
0.000526008
0.0113255
0.000705233
0.0114229
0.000883002
0.0115478
0.00105277
0.0117006
0.00120589
0.0118798
0.00133162
0.0120816
0.00141725
0.0122989
0.00144872
0.01252
0.00141157
0.0127284
0.00129461
0.0129049
0.0010941
0.0130324
0.000818263
0.0131001
0.000486107
0.013105
0.000124238
0.0130523
-0.000238803
0.0129509
-0.000581287
0.0128123
-0.000885817
0.0126477
-0.00114001
0.0124673
-0.00133967
0.0122795
-0.00148223
0.0120907
-0.00156928
0.0119065
-0.00160298
0.01173
-0.00158586
0.0115642
-0.00152464
0.011412
-0.00141447
0.0112759
-0.0012658
0.0111568
-0.00106913
0.0110543
-0.000849494
0.0109727
-0.000581287
0.0109175
-0.000280215
0.0108945
9.10363e-05
0.0108974
0.000480919
0.0109185
0.000887484
0.0109534
0.001264
0.0110217
0.00169736
0.0111559
0.00224652
0.0114056
0.00299231
0.0118014
0.00376448
0.0123406
0.004222
0.0129319
0.00402467
0.0134287
0.00301831
0.0137076
0.00165304
0.0137267
5.86371e-05
0.0135548
-0.00100613
0.0132423
-0.00212693
0.0129111
-0.00233439
0.0125423
-0.00298834
0.0122433
-0.00261662
0.0119493
-0.00278083
0.0116938
-0.00261065
0.0115057
-0.00179989
0.0112976
-0.00236041
0.0112318
-0.000581558
0.0110729
-0.00114037
-3.71113e-07
0.0116977
0.000323009
0.0117454
0.000478329
0.0118153
0.000635369
0.0119088
0.000789506
0.0120267
0.000934792
0.012169
0.00106363
0.0123337
0.00116691
0.0125168
0.00123412
0.0127115
0.00125406
0.0129072
0.00121586
0.0130902
0.00111162
0.013245
0.000939246
0.013358
0.000705293
0.0134201
0.000423998
0.0134282
0.000116135
0.0133855
-0.000196057
0.0132986
-0.000494383
0.0131765
-0.000763706
0.0130288
-0.000992327
0.0128643
-0.00117514
0.0126907
-0.00130867
0.0125143
-0.00139293
0.0123406
-0.00142923
0.0121731
-0.0014184
0.012015
-0.00136655
0.0118693
-0.00126876
0.0117388
-0.00113528
0.0116255
-0.000955843
0.0115291
-0.000753057
0.0114525
-0.00050467
0.0114003
-0.000228079
0.0113808
0.000110538
0.0113933
0.000468405
0.0114329
0.000847967
0.01149
0.0012069
0.0115732
0.00161415
0.0117091
0.00211063
0.0119528
0.00274858
0.0123443
0.00337294
0.0128765
0.00368986
0.0134448
0.00345635
0.0139006
0.00256252
0.0141393
0.00141433
0.0141346
6.33383e-05
0.0139611
-0.000832607
0.0136598
-0.00182561
0.0133477
-0.00202234
0.0129932
-0.00263387
0.0127077
-0.00233105
0.0124226
-0.00249578
0.0121697
-0.00235778
0.0119945
-0.00162465
0.0117756
-0.0021415
0.011715
-0.000520936
0.0115777
-0.00100314
5.97159e-05
0.0122011
0.000294873
0.0122484
0.00043112
0.0123159
0.00056778
0.0124049
0.000700581
0.0125155
0.000824199
0.012647
0.000932051
0.0127975
0.00101648
0.0129627
0.00106887
0.0131363
0.00108045
0.0133092
0.00104297
0.0134699
0.000950989
0.0136058
0.000803293
0.013706
0.000605076
0.0137627
0.000367296
0.013773
0.000105907
0.0137384
-0.000161449
0.0136639
-0.000419889
0.0135565
-0.00065633
0.0134242
-0.000860083
0.0132747
-0.00102561
0.013115
-0.00114896
0.012951
-0.00122891
0.012788
-0.00126622
0.0126299
-0.00126029
0.0124799
-0.00121661
0.0123413
-0.00113016
0.0122169
-0.00101085
0.0121094
-0.000848398
0.012019
-0.000662657
0.0119485
-0.000434109
0.0119011
-0.000180737
0.0118855
0.00012613
0.0119038
0.000450166
0.0119539
0.000797833
0.0120266
0.00113419
0.0121269
0.00151387
0.0122779
0.00195964
0.0125319
0.00249459
0.0129232
0.00298162
0.0134324
0.00318062
0.0139523
0.00293653
0.0143491
0.00216568
0.0145434
0.00122006
0.0145215
8.52155e-05
0.0143554
-0.000666497
0.0140738
-0.00154398
0.0137861
-0.00173462
0.013451
-0.00229882
0.0131818
-0.00206182
0.0129073
-0.00222133
0.01266
-0.00211042
0.0124973
-0.00146194
0.0122729
-0.00191712
0.0122171
-0.000465188
0.0120969
-0.000882888
0.000110564
0.012717
0.000266336
0.0127632
0.000384961
0.0128279
0.000503037
0.0129118
0.000616694
0.0130148
0.00072125
0.0131358
0.000811058
0.0132725
0.000879752
0.013421
0.000920342
0.0135755
0.000925972
0.013728
0.000890461
0.013869
0.000809957
0.0139885
0.000683843
0.0140772
0.000516364
0.0141287
0.000315821
0.0141401
9.45232e-05
0.014112
-0.000133364
0.014048
-0.000355942
0.0139536
-0.000561947
0.0138354
-0.000741865
0.0136999
-0.000890084
0.0135534
-0.00100251
0.0134016
-0.00107704
0.0132493
-0.00111397
0.0131008
-0.00111173
0.0129593
-0.00107512
0.0128282
-0.00099911
0.0127104
-0.000892967
0.0126089
-0.000746962