/*--------------------------------*- C++ -*----------------------------------*\
  =========                 |
  \\      /  F ield         | OpenFOAM: The Open Source CFD Toolbox
   \\    /   O peration     | Website:  https://openfoam.org
    \\  /    A nd           | Version:  7
     \\/     M anipulation  |
\*---------------------------------------------------------------------------*/
FoamFile
{
    version     2.0;
    format      ascii;
    class       volScalarField;
    location    "5";
    object      p;
}
// * * * * * * * * * * * * * * * * * * * * * * * * * * * * * * * * * * * * * //

dimensions      [0 2 -2 0 0 0 0];

internalField   nonuniform List<scalar> 
11300
(
-0.352214
-0.359115
-0.361034
-0.36096
-0.359077
-0.355455
-0.350238
-0.343512
-0.335349
-0.325825
-0.315039
-0.303121
-0.290308
-0.277024
-0.262651
-0.353186
-0.359906
-0.361723
-0.361564
-0.359611
-0.355934
-0.350674
-0.343914
-0.335724
-0.326176
-0.315367
-0.303418
-0.290564
-0.277244
-0.262552
-0.355118
-0.361478
-0.363094
-0.362766
-0.360673
-0.356885
-0.351537
-0.344709
-0.336464
-0.32687
-0.316014
-0.304003
-0.291068
-0.277682
-0.262357
-0.357985
-0.363813
-0.365129
-0.36455
-0.362248
-0.358293
-0.352812
-0.34588
-0.337553
-0.327889
-0.316962
-0.304857
-0.291806
-0.278329
-0.262066
-0.361754
-0.366886
-0.367807
-0.366894
-0.364314
-0.360135
-0.354477
-0.347405
-0.338967
-0.329208
-0.318187
-0.305961
-0.292752
-0.279174
-0.261685
-0.36638
-0.370663
-0.371099
-0.369772
-0.366845
-0.362387
-0.356504
-0.349255
-0.340674
-0.330795
-0.319657
-0.307285
-0.293879
-0.280202
-0.261219
-0.371814
-0.375108
-0.37497
-0.373151
-0.36981
-0.365016
-0.358863
-0.351397
-0.342643
-0.332617
-0.32134
-0.308797
-0.295157
-0.281394
-0.260675
-0.377999
-0.380176
-0.379383
-0.377
-0.373178
-0.367991
-0.361519
-0.353798
-0.344839
-0.334638
-0.323197
-0.310464
-0.296552
-0.282726
-0.260061
-0.384876
-0.385824
-0.3843
-0.38128
-0.376914
-0.371279
-0.364441
-0.356424
-0.347225
-0.336822
-0.325193
-0.31225
-0.298032
-0.284169
-0.259391
-0.392388
-0.392006
-0.389682
-0.385958
-0.380986
-0.374848
-0.367597
-0.359245
-0.349771
-0.339137
-0.327296
-0.314123
-0.299566
-0.285689
-0.258679
-0.400475
-0.398674
-0.395489
-0.390999
-0.385362
-0.37867
-0.37096
-0.362231
-0.352449
-0.341553
-0.329473
-0.316053
-0.301123
-0.287248
-0.257946
-0.409075
-0.405792
-0.401684
-0.396371
-0.390016
-0.382719
-0.374505
-0.365361
-0.355235
-0.344046
-0.331699
-0.318009
-0.30268
-0.288797
-0.257214
-0.418143
-0.413314
-0.408234
-0.402046
-0.394922
-0.386975
-0.378215
-0.368617
-0.358112
-0.346596
-0.333952
-0.319966
-0.304212
-0.290281
-0.256505
-0.427629
-0.421202
-0.415106
-0.407997
-0.400059
-0.39142
-0.382076
-0.371986
-0.361067
-0.349191
-0.336215
-0.3219
-0.305701
-0.291637
-0.255844
-0.437491
-0.429422
-0.422273
-0.414203
-0.405413
-0.396044
-0.386078
-0.375462
-0.364093
-0.351819
-0.338473
-0.323789
-0.307133
-0.292798
-0.25527
-0.447689
-0.437942
-0.429708
-0.420645
-0.410969
-0.400837
-0.390217
-0.37904
-0.367183
-0.354472
-0.340712
-0.325612
-0.308499
-0.293697
-0.254836
-0.458187
-0.446731
-0.437387
-0.427305
-0.416717
-0.405795
-0.39449
-0.382718
-0.370335
-0.357143
-0.342922
-0.327349
-0.309788
-0.294218
-0.254484
-0.468952
-0.455761
-0.445289
-0.434169
-0.422647
-0.410911
-0.398894
-0.386493
-0.373541
-0.35982
-0.345087
-0.328992
-0.311011
-0.294158
-0.253948
-0.479951
-0.465002
-0.453391
-0.441219
-0.42875
-0.41618
-0.403424
-0.390357
-0.37679
-0.362487
-0.347189
-0.330549
-0.312229
-0.293545
-0.253947
-0.491147
-0.474424
-0.461667
-0.448438
-0.435012
-0.421593
-0.408071
-0.394299
-0.380065
-0.365116
-0.349194
-0.331999
-0.313472
-0.293323
-0.259641
-0.502504
-0.483993
-0.47009
-0.455806
-0.441417
-0.427135
-0.412819
-0.398297
-0.383334
-0.367664
-0.351041
-0.333232
-0.314473
-0.29424
-0.277938
-0.513976
-0.49367
-0.478629
-0.463295
-0.447944
-0.432785
-0.417644
-0.40232
-0.386555
-0.370076
-0.352649
-0.334107
-0.31489
-0.293917
-0.281652
-0.525512
-0.503409
-0.487244
-0.470873
-0.454562
-0.438512
-0.42251
-0.406325
-0.389676
-0.372285
-0.353938
-0.334519
-0.31456
-0.292559
-0.280328
-0.53705
-0.513158
-0.495889
-0.478498
-0.461232
-0.444274
-0.427369
-0.410255
-0.39263
-0.374218
-0.354829
-0.334397
-0.313483
-0.290497
-0.277039
-0.548519
-0.522854
-0.504509
-0.486121
-0.467904
-0.450017
-0.432162
-0.41404
-0.39534
-0.375792
-0.355242
-0.333681
-0.311666
-0.287729
-0.272479
-0.559832
-0.532426
-0.513039
-0.493678
-0.474514
-0.455676
-0.436813
-0.4176
-0.397718
-0.376921
-0.355101
-0.332315
-0.309114
-0.284253
-0.267074
-0.570894
-0.541788
-0.521401
-0.501097
-0.480989
-0.461168
-0.441234
-0.420838
-0.399668
-0.377514
-0.354329
-0.330252
-0.30583
-0.280094
-0.261094
-0.581593
-0.550846
-0.529508
-0.50829
-0.487239
-0.4664
-0.445325
-0.42365
-0.401086
-0.377476
-0.352854
-0.327448
-0.301817
-0.275271
-0.25467
-0.591806
-0.559493
-0.537259
-0.51516
-0.493162
-0.471264
-0.448972
-0.425923
-0.401864
-0.376716
-0.350608
-0.323867
-0.297072
-0.2698
-0.247848
-0.601396
-0.56761
-0.544542
-0.521595
-0.498645
-0.475641
-0.452053
-0.427535
-0.401893
-0.375144
-0.347528
-0.319474
-0.291592
-0.263688
-0.240633
-0.610215
-0.575067
-0.551232
-0.527472
-0.50356
-0.479399
-0.454438
-0.428361
-0.401064
-0.372675
-0.343557
-0.314243
-0.28537
-0.256936
-0.233006
-0.618102
-0.581724
-0.557195
-0.532654
-0.50777
-0.4824
-0.455988
-0.428278
-0.39927
-0.369229
-0.338644
-0.308148
-0.278399
-0.249545
-0.224943
-0.624889
-0.58743
-0.562286
-0.536999
-0.511128
-0.484497
-0.456565
-0.427159
-0.396412
-0.364734
-0.332747
-0.301169
-0.270673
-0.241511
-0.216416
-0.630401
-0.592027
-0.566351
-0.540352
-0.513481
-0.48554
-0.456028
-0.424886
-0.392396
-0.359128
-0.325829
-0.293291
-0.262185
-0.232834
-0.207402
-0.634455
-0.595352
-0.56923
-0.542554
-0.514669
-0.485377
-0.454242
-0.421344
-0.387138
-0.352355
-0.317862
-0.284502
-0.252931
-0.223509
-0.197881
-0.636868
-0.597236
-0.570758
-0.54344
-0.514534
-0.483857
-0.451075
-0.41643
-0.380564
-0.344372
-0.308824
-0.274795
-0.242911
-0.213535
-0.187839
-0.637455
-0.597508
-0.570767
-0.542846
-0.512916
-0.480836
-0.446402
-0.410048
-0.372611
-0.335143
-0.2987
-0.264167
-0.232123
-0.202913
-0.177268
-0.636033
-0.596
-0.569091
-0.540608
-0.509659
-0.476174
-0.440112
-0.402117
-0.363229
-0.324644
-0.287482
-0.252618
-0.220571
-0.191645
-0.166161
-0.632427
-0.592544
-0.565565
-0.536566
-0.504615
-0.469743
-0.432105
-0.39257
-0.35238
-0.312858
-0.275169
-0.240153
-0.20826
-0.179735
-0.154521
-0.626468
-0.58698
-0.560031
-0.530567
-0.497645
-0.461429
-0.422295
-0.381353
-0.340037
-0.29978
-0.261767
-0.226782
-0.1952
-0.167192
-0.142351
-0.617998
-0.579157
-0.55234
-0.522469
-0.488624
-0.451131
-0.410613
-0.368427
-0.326187
-0.285414
-0.247285
-0.212517
-0.181401
-0.154025
-0.12966
-0.606876
-0.568934
-0.542353
-0.512144
-0.477442
-0.438766
-0.397008
-0.353769
-0.31083
-0.269771
-0.231742
-0.197376
-0.166879
-0.140248
-0.116462
-0.592975
-0.556187
-0.529948
-0.49948
-0.464007
-0.42427
-0.381445
-0.337372
-0.293976
-0.252872
-0.215161
-0.181381
-0.151654
-0.125878
-0.102772
-0.57619
-0.540809
-0.51502
-0.484384
-0.448247
-0.407599
-0.363909
-0.319245
-0.275649
-0.234746
-0.197572
-0.16456
-0.135747
-0.110935
-0.0885975
-0.556437
-0.522712
-0.497485
-0.466782
-0.430112
-0.388731
-0.344404
-0.299409
-0.255882
-0.215432
-0.179009
-0.146942
-0.119187
-0.0954498
-0.0739381
-0.533659
-0.501831
-0.47728
-0.446627
-0.409575
-0.367664
-0.322952
-0.277905
-0.234722
-0.194974
-0.159515
-0.128565
-0.102009
-0.0794622
-0.058863
-0.507823
-0.478126
-0.454368
-0.423893
-0.386634
-0.34442
-0.299593
-0.254783
-0.212223
-0.173426
-0.139137
-0.109469
-0.0842438
-0.0629418
-0.043443
-0.478925
-0.451584
-0.428738
-0.398584
-0.361311
-0.319041
-0.274387
-0.23011
-0.188453
-0.150848
-0.117928
-0.0897039
-0.0659317
-0.0459727
-0.0276551
-0.446992
-0.422218
-0.400405
-0.370728
-0.333653
-0.291592
-0.247409
-0.203967
-0.163488
-0.127309
-0.0959497
-0.0693172
-0.0471165
-0.028594
-0.011537
-0.412079
-0.390071
-0.369416
-0.34038
-0.30373
-0.262159
-0.218753
-0.176444
-0.137412
-0.102886
-0.0732663
-0.0483673
-0.0278475
-0.0108461
0.0048685
-0.374274
-0.355215
-0.335842
-0.307624
-0.27164
-0.230849
-0.188526
-0.147645
-0.11032
-0.0776607
-0.0499492
-0.0269159
-0.00817805
0.00722513
0.0215162
-0.333694
-0.317752
-0.299786
-0.272571
-0.237511
-0.197778
-0.156847
-0.117685
-0.0823137
-0.051722
-0.0260758
-0.0050296
0.0118344
0.0255692
0.0383567
-0.290488
-0.277812
-0.26138
-0.235363
-0.201495
-0.163071
-0.123858
-0.0866883
-0.0535042
-0.0251656
-0.00172852
0.0172201
0.0321283
0.0441316
0.0553352
-0.244835
-0.235555
-0.220782
-0.196153
-0.163675
-0.12696
-0.0897068
-0.0547889
-0.0240082
0.00190719
0.0230052
0.039757
0.0526381
0.0628538
0.0723893
-0.196936
-0.19117
-0.178173
-0.155116
-0.124321
-0.0895568
-0.0545518
-0.0221289
0.00605068
0.02939
0.0480335
0.062501
0.0732945
0.0816727
0.0894487
-0.147
-0.144889
-0.133763
-0.112476
-0.0836098
-0.0510568
-0.0185631
0.0111424
0.0365435
0.0571718
0.0732602
0.0853677
0.0940256
0.100526
0.106439
-0.0953144
-0.0969317
-0.0877869
-0.0684528
-0.0417512
-0.0116633
0.0180806
0.0448696
0.0673364
0.0851379
0.098586
0.10827
0.114762
0.119359
0.123255
-0.0421927
-0.0475366
-0.0404962
-0.023289
0.00102473
0.0284139
0.0551944
0.0788919
0.0982916
0.11317
0.123908
0.13112
0.135447
0.138121
0.13967
0.0120998
0.00299146
0.00783698
0.0227561
0.0444771
0.0689573
0.0925872
0.113045
0.129268
0.141148
0.149122
0.153832
0.156018
0.156684
0.155365
0.0672457
0.0543525
0.056926
0.0694109
0.0883556
0.109743
0.130063
0.14716
0.160123
0.168947
0.174122
0.176321
0.176377
0.174753
0.170313
0.122908
0.106235
0.106471
0.116393
0.132403
0.150542
0.167425
0.181067
0.19071
0.196446
0.198806
0.198501
0.196385
0.192009
0.185211
0.178739
0.158313
0.156162
0.163414
0.176355
0.191122
0.20447
0.214596
0.220885
0.22352
0.223068
0.220269
0.215972
0.209483
0.20135
0.234383
0.210254
0.205681
0.210177
0.219948
0.23125
0.241
0.247575
0.250503
0.250044
0.246801
0.241523
0.235022
0.2266
0.217225
0.28948
0.261717
0.254704
0.256385
0.262915
0.270694
0.276815
0.279836
0.279418
0.275896
0.269898
0.262172
0.253478
0.243171
0.232513
0.343667
0.31236
0.302909
0.301741
0.304991
0.309224
0.311716
0.311209
0.307489
0.300955
0.292254
0.282128
0.271282
0.259144
0.247119
0.396582
0.36184
0.349972
0.345949
0.345913
0.346612
0.345512
0.341533
0.334577
0.325102
0.31377
0.301305
0.288367
0.274461
0.26103
0.447866
0.40982
0.395576
0.388721
0.385426
0.382638
0.378014
0.370646
0.360547
0.348223
0.334346
0.319623
0.304663
0.289058
0.274224
0.49717
0.455967
0.439408
0.429772
0.423282
0.417087
0.40904
0.398395
0.385268
0.370207
0.35389
0.337001
0.320107
0.302879
0.286663
0.544153
0.499959
0.481168
0.468831
0.45924
0.449754
0.438414
0.424632
0.408615
0.390949
0.372312
0.353364
0.334634
0.315869
0.298315
0.588489
0.541488
0.520565
0.505636
0.493073
0.480443
0.465972
0.449217
0.430469
0.410347
0.389525
0.368641
0.348186
0.327978
0.309143
0.629867
0.580259
0.557327
0.539942
0.524565
0.50897
0.491556
0.472017
0.450719
0.428306
0.40545
0.382763
0.360704
0.339158
0.319116
0.667997
0.615996
0.591195
0.571516
0.553515
0.535162
0.51502
0.492909
0.469259
0.444737
0.420011
0.395667
0.372136
0.349362
0.328199
0.702608
0.648444
0.621932
0.600146
0.579738
0.558861
0.536231
0.511778
0.485993
0.459559
0.433138
0.407294
0.382432
0.35855
0.336361
0.733456
0.677369
0.649321
0.625638
0.603065
0.579924
0.555067
0.528523
0.500834
0.472697
0.444768
0.41759
0.391545
0.36668
0.343574
0.760319
0.702563
0.673169
0.647819
0.623346
0.598221
0.571418
0.543051
0.513704
0.484086
0.454845
0.426507
0.399436
0.373717
0.349808
0.783007
0.723844
0.693306
0.666539
0.640451
0.613643
0.585192
0.555283
0.524535
0.493666
0.46332
0.434004
0.406068
0.379632
0.355042
0.801356
0.741057
0.709591
0.681671
0.654269
0.626096
0.596308
0.56515
0.533269
0.501391
0.470151
0.440045
0.41141
0.384396
0.359255
0.815234
0.754077
0.721907
0.69311
0.664712
0.635502
0.604702
0.572599
0.539861
0.507219
0.475304
0.444601
0.41544
0.387988
0.362429
0.824542
0.762811
0.730167
0.70078
0.671711
0.641805
0.610325
0.577588
0.544276
0.511121
0.478753
0.447651
0.418136
0.390392
0.364552
0.829213
0.767194
0.734311
0.704629
0.675222
0.644966
0.613145
0.580089
0.546489
0.513077
0.480483
0.449179
0.419488
0.391597
0.365616
0.829213
0.767194
0.734311
0.704629
0.675222
0.644966
0.613145
0.580089
0.546489
0.513077
0.480483
0.449179
0.419488
0.391597
0.365616
0.824542
0.762811
0.730167
0.70078
0.671711
0.641805
0.610325
0.577588
0.544276
0.511121
0.478753
0.447651
0.418136
0.390392
0.364552
0.815234
0.754077
0.721907
0.69311
0.664712
0.635502
0.604702
0.572599
0.539861
0.507219
0.475304
0.444601
0.41544
0.387988
0.362429
0.801356
0.741057
0.709591
0.681671
0.654269
0.626096
0.596308
0.56515
0.533269
0.501391
0.470151
0.440045
0.41141
0.384396
0.359255
0.783007
0.723844
0.693306
0.666539
0.640451
0.613643
0.585192
0.555283
0.524535
0.493666
0.46332
0.434004
0.406068
0.379632
0.355042
0.760319
0.702563
0.673169
0.647819
0.623346
0.598221
0.571418
0.543051
0.513704
0.484086
0.454845
0.426507
0.399436
0.373717
0.349808
0.733456
0.677369
0.649321
0.625638
0.603065
0.579924
0.555067
0.528523
0.500834
0.472697
0.444768
0.41759
0.391545
0.36668
0.343574
0.702609
0.648444
0.621932
0.600146
0.579738
0.558861
0.536231
0.511778
0.485993
0.459559
0.433138
0.407294
0.382432
0.35855
0.336361
0.667997
0.615996
0.591195
0.571516
0.553515
0.535162
0.51502
0.492909
0.469259
0.444737
0.420011
0.395667
0.372136
0.349362
0.328199
0.629867
0.580259
0.557327
0.539942
0.524565
0.50897
0.491556
0.472017
0.450719
0.428306
0.40545
0.382763
0.360704
0.339158
0.319116
0.588489
0.541488
0.520565
0.505636
0.493073
0.480443
0.465972
0.449217
0.430469
0.410347
0.389525
0.368641
0.348186
0.327978
0.309143
0.544153
0.499959
0.481168
0.468831
0.45924
0.449754
0.438414
0.424632
0.408615
0.390949
0.372312
0.353364
0.334634
0.315869
0.298315
0.49717
0.455967
0.439408
0.429772
0.423282
0.417087
0.40904
0.398395
0.385268
0.370207
0.35389
0.337001
0.320107
0.302879
0.286663
0.447866
0.40982
0.395576
0.388721
0.385426
0.382638
0.378014
0.370646
0.360547
0.348223
0.334346
0.319623
0.304663
0.289058
0.274224
0.396582
0.36184
0.349972
0.345949
0.345913
0.346612
0.345512
0.341533
0.334577
0.325102
0.31377
0.301305
0.288367
0.274461
0.26103
0.343667
0.31236
0.302909
0.301741
0.30499
0.309224
0.311716
0.311209
0.307489
0.300955
0.292254
0.282128
0.271282
0.259144
0.247119
0.28948
0.261717
0.254704
0.256385
0.262915
0.270694
0.276814
0.279836
0.279418
0.275896
0.269898
0.262171
0.253478
0.243171
0.232513
0.234383
0.210254
0.205681
0.210177
0.219948
0.23125
0.241
0.247575
0.250503
0.250044
0.246801
0.241523
0.235022
0.2266
0.217225
0.178738
0.158313
0.156162
0.163414
0.176355
0.191122
0.20447
0.214596
0.220885
0.22352
0.223068
0.220269
0.215972
0.209483
0.20135
0.122908
0.106235
0.106471
0.116393
0.132403
0.150542
0.167425
0.181067
0.19071
0.196446
0.198806
0.198501
0.196385
0.192009
0.185211
0.0672456
0.0543524
0.056926
0.0694109
0.0883555
0.109743
0.130063
0.14716
0.160123
0.168947
0.174122
0.176321
0.176377
0.174753
0.170313
0.0120997
0.00299143
0.00783695
0.0227561
0.044477
0.0689573
0.0925872
0.113045
0.129268
0.141148
0.149122
0.153832
0.156018
0.156684
0.155365
-0.0421927
-0.0475366
-0.0404962
-0.0232891
0.0010247
0.0284139
0.0551944
0.0788919
0.0982916
0.11317
0.123908
0.13112
0.135446
0.138121
0.13967
-0.0953144
-0.0969318
-0.0877869
-0.0684528
-0.0417512
-0.0116633
0.0180806
0.0448695
0.0673364
0.0851379
0.098586
0.10827
0.114762
0.119359
0.123255
-0.147
-0.144889
-0.133763
-0.112476
-0.0836098
-0.0510568
-0.0185632
0.0111424
0.0365435
0.0571718
0.0732602
0.0853676
0.0940256
0.100525
0.106439
-0.196936
-0.19117
-0.178174
-0.155116
-0.124321
-0.0895568
-0.0545518
-0.0221289
0.00605064
0.0293899
0.0480334
0.0625009
0.0732945
0.0816727
0.0894487
-0.244835
-0.235555
-0.220782
-0.196153
-0.163675
-0.12696
-0.0897068
-0.054789
-0.0240083
0.00190716
0.0230052
0.039757
0.0526381
0.0628537
0.0723893
-0.290488
-0.277812
-0.26138
-0.235363
-0.201495
-0.163071
-0.123858
-0.0866883
-0.0535042
-0.0251656
-0.00172855
0.01722
0.0321282
0.0441316
0.0553352
-0.333694
-0.317752
-0.299786
-0.272571
-0.237511
-0.197778
-0.156847
-0.117685
-0.0823138
-0.051722
-0.0260759
-0.00502963
0.0118344
0.0255692
0.0383566
-0.374274
-0.355215
-0.335842
-0.307624
-0.27164
-0.230849
-0.188526
-0.147645
-0.11032
-0.0776608
-0.0499493
-0.0269159
-0.00817808
0.0072251
0.0215161
-0.412079
-0.390071
-0.369416
-0.34038
-0.30373
-0.262159
-0.218753
-0.176444
-0.137412
-0.102886
-0.0732663
-0.0483674
-0.0278476
-0.0108461
0.00486847
-0.446992
-0.422218
-0.400405
-0.370728
-0.333653
-0.291592
-0.247409
-0.203967
-0.163488
-0.127309
-0.0959498
-0.0693173
-0.0471166
-0.0285941
-0.011537
-0.478925
-0.451584
-0.428738
-0.398584
-0.361311
-0.319041
-0.274387
-0.23011
-0.188453
-0.150848
-0.117928
-0.0897039
-0.0659317
-0.0459727
-0.0276551
-0.507823
-0.478126
-0.454368
-0.423893
-0.386635
-0.34442
-0.299593
-0.254783
-0.212223
-0.173426
-0.139137
-0.109469
-0.0842438
-0.0629418
-0.043443
-0.533659
-0.501831
-0.47728
-0.446627
-0.409576
-0.367664
-0.322952
-0.277905
-0.234722
-0.194974
-0.159515
-0.128565
-0.102009
-0.0794622
-0.0588631
-0.556437
-0.522712
-0.497485
-0.466782
-0.430112
-0.388731
-0.344404
-0.299409
-0.255882
-0.215432
-0.179009
-0.146942
-0.119187
-0.0954498
-0.0739381
-0.57619
-0.540809
-0.51502
-0.484384
-0.448247
-0.407599
-0.363909
-0.319245
-0.275649
-0.234746
-0.197572
-0.16456
-0.135747
-0.110935
-0.0885976
-0.592975
-0.556187
-0.529948
-0.49948
-0.464007
-0.42427
-0.381445
-0.337372
-0.293976
-0.252872
-0.215161
-0.181382
-0.151654
-0.125878
-0.102772
-0.606876
-0.568934
-0.542353
-0.512144
-0.477442
-0.438766
-0.397008
-0.353769
-0.31083
-0.269771
-0.231742
-0.197376
-0.16688
-0.140248
-0.116462
-0.617998
-0.579157
-0.55234
-0.522469
-0.488624
-0.451131
-0.410613
-0.368427
-0.326187
-0.285414
-0.247285
-0.212517
-0.181401
-0.154025
-0.12966
-0.626468
-0.58698
-0.560031
-0.530567
-0.497645
-0.461429
-0.422295
-0.381353
-0.340037
-0.299781
-0.261767
-0.226782
-0.1952
-0.167192
-0.142351
-0.632427
-0.592544
-0.565565
-0.536566
-0.504615
-0.469743
-0.432105
-0.39257
-0.35238
-0.312858
-0.275169
-0.240153
-0.20826
-0.179735
-0.154521
-0.636034
-0.596
-0.569091
-0.540608
-0.509659
-0.476174
-0.440112
-0.402117
-0.363229
-0.324644
-0.287482
-0.252618
-0.220571
-0.191645
-0.166162
-0.637455
-0.597508
-0.570767
-0.542847
-0.512916
-0.480836
-0.446402
-0.410048
-0.372611
-0.335143
-0.2987
-0.264167
-0.232123
-0.202913
-0.177268
-0.636868
-0.597236
-0.570758
-0.54344
-0.514534
-0.483857
-0.451075
-0.41643
-0.380564
-0.344372
-0.308824
-0.274795
-0.242911
-0.213535
-0.187839
-0.634455
-0.595352
-0.56923
-0.542554
-0.51467
-0.485377
-0.454242
-0.421344
-0.387138
-0.352355
-0.317862
-0.284502
-0.252931
-0.223509
-0.197881
-0.630401
-0.592027
-0.566351
-0.540352
-0.513481
-0.48554
-0.456029
-0.424886
-0.392396
-0.359128
-0.325829
-0.293291
-0.262185
-0.232834
-0.207402
-0.624889
-0.58743
-0.562286
-0.536999
-0.511128
-0.484497
-0.456565
-0.427159
-0.396412
-0.364734
-0.332747
-0.301169
-0.270673
-0.241512
-0.216416
-0.618102
-0.581724
-0.557195
-0.532654
-0.50777
-0.4824
-0.455988
-0.428278
-0.39927
-0.369229
-0.338644
-0.308148
-0.278399
-0.249545
-0.224943
-0.610215
-0.575067
-0.551232
-0.527472
-0.50356
-0.479399
-0.454438
-0.428362
-0.401064
-0.372675
-0.343557
-0.314243
-0.28537
-0.256936
-0.233006
-0.601396
-0.56761
-0.544542
-0.521595
-0.498645
-0.475641
-0.452054
-0.427535
-0.401893
-0.375144
-0.347528
-0.319474
-0.291592
-0.263688
-0.240633
-0.591806
-0.559493
-0.537259
-0.51516
-0.493162
-0.471264
-0.448972
-0.425923
-0.401864
-0.376716
-0.350608
-0.323867
-0.297072
-0.2698
-0.247848
-0.581593
-0.550846
-0.529508
-0.50829
-0.487239
-0.4664
-0.445325
-0.42365
-0.401086
-0.377476
-0.352854
-0.327448
-0.301817
-0.275271
-0.25467
-0.570894
-0.541788
-0.521401
-0.501097
-0.480989
-0.461168
-0.441234
-0.420838
-0.399668
-0.377514
-0.354329
-0.330252
-0.30583
-0.280094
-0.261094
-0.559832
-0.532426
-0.513039
-0.493678
-0.474514
-0.455676
-0.436813
-0.4176
-0.397718
-0.376921
-0.355101
-0.332315
-0.309114
-0.284253
-0.267074
-0.548519
-0.522855
-0.504509
-0.486121
-0.467904
-0.450017
-0.432162
-0.41404
-0.39534
-0.375792
-0.355242
-0.333681
-0.311666
-0.287729
-0.272479
-0.537051
-0.513158
-0.495889
-0.478499
-0.461232
-0.444274
-0.427369
-0.410255
-0.39263
-0.374218
-0.354829
-0.334397
-0.313483
-0.290497
-0.277039
-0.525512
-0.503409
-0.487244
-0.470873
-0.454562
-0.438512
-0.42251
-0.406325
-0.389676
-0.372285
-0.353938
-0.334519
-0.31456
-0.292559
-0.280328
-0.513976
-0.49367
-0.478629
-0.463295
-0.447944
-0.432785
-0.417644
-0.40232
-0.386555
-0.370076
-0.352649
-0.334107
-0.31489
-0.293917
-0.281652
-0.502504
-0.483993
-0.47009
-0.455806
-0.441417
-0.427135
-0.412819
-0.398297
-0.383334
-0.367664
-0.351041
-0.333232
-0.314473
-0.29424
-0.277938
-0.491147
-0.474424
-0.461667
-0.448438
-0.435012
-0.421593
-0.408071
-0.394299
-0.380065
-0.365116
-0.349194
-0.331999
-0.313472
-0.293323
-0.259641
-0.479951
-0.465002
-0.453391
-0.441219
-0.42875
-0.41618
-0.403424
-0.390357
-0.37679
-0.362487
-0.347189
-0.330549
-0.312229
-0.293545
-0.253947
-0.468952
-0.455761
-0.44529
-0.434169
-0.422647
-0.410911
-0.398894
-0.386493
-0.373541
-0.35982
-0.345087
-0.328992
-0.311011
-0.294158
-0.253948
-0.458187
-0.446731
-0.437388
-0.427305
-0.416717
-0.405795
-0.39449
-0.382718
-0.370335
-0.357143
-0.342922
-0.327349
-0.309788
-0.294217
-0.254484
-0.447689
-0.437942
-0.429708
-0.420645
-0.410969
-0.400837
-0.390217
-0.37904
-0.367183
-0.354472
-0.340712
-0.325612
-0.308499
-0.293697
-0.254836
-0.437491
-0.429422
-0.422273
-0.414203
-0.405413
-0.396044
-0.386078
-0.375462
-0.364093
-0.351819
-0.338473
-0.323789
-0.307133
-0.292798
-0.25527
-0.427629
-0.421202
-0.415106
-0.407997
-0.40006
-0.39142
-0.382076
-0.371986
-0.361067
-0.349191
-0.336215
-0.3219
-0.305701
-0.291637
-0.255844
-0.418143
-0.413314
-0.408234
-0.402046
-0.394922
-0.386975
-0.378215
-0.368617
-0.358112
-0.346596
-0.333952
-0.319966
-0.304212
-0.290281
-0.256505
-0.409075
-0.405792
-0.401684
-0.396371
-0.390016
-0.382719
-0.374505
-0.365361
-0.355235
-0.344046
-0.331699
-0.318009
-0.30268
-0.288797
-0.257214
-0.400475
-0.398674
-0.395489
-0.390999
-0.385362
-0.37867
-0.37096
-0.362231
-0.352449
-0.341553
-0.329473
-0.316053
-0.301123
-0.287248
-0.257946
-0.392388
-0.392006
-0.389682
-0.385958
-0.380986
-0.374848
-0.367597
-0.359245
-0.349771
-0.339137
-0.327296
-0.314123
-0.299566
-0.285689
-0.258679
-0.384877
-0.385824
-0.3843
-0.38128
-0.376914
-0.371279
-0.364441
-0.356424
-0.347225
-0.336822
-0.325193
-0.31225
-0.298032
-0.284169
-0.259391
-0.377999
-0.380176
-0.379383
-0.377
-0.373178
-0.367991
-0.361519
-0.353798
-0.344839
-0.334638
-0.323197
-0.310464
-0.296552
-0.282726
-0.260061
-0.371814
-0.375108
-0.37497
-0.373152
-0.36981
-0.365016
-0.358863
-0.351397
-0.342643
-0.332617
-0.32134
-0.308797
-0.295157
-0.281394
-0.260675
-0.366381
-0.370663
-0.371099
-0.369772
-0.366845
-0.362387
-0.356504
-0.349255
-0.340674
-0.330795
-0.319657
-0.307285
-0.293879
-0.280202
-0.261219
-0.361754
-0.366886
-0.367807
-0.366894
-0.364314
-0.360135
-0.354477
-0.347405
-0.338967
-0.329208
-0.318187
-0.305961
-0.292752
-0.279174
-0.261685
-0.357985
-0.363813
-0.365129
-0.36455
-0.362248
-0.358293
-0.352812
-0.34588
-0.337553
-0.327889
-0.316962
-0.304857
-0.291806
-0.278329
-0.262066
-0.355118
-0.361478
-0.363094
-0.362766
-0.360673
-0.356885
-0.351537
-0.344709
-0.336464
-0.32687
-0.316014
-0.304003
-0.291068
-0.277682
-0.262357
-0.353186
-0.359906
-0.361723
-0.361564
-0.359611
-0.355934
-0.350674
-0.343914
-0.335724
-0.326176
-0.315367
-0.303418
-0.290564
-0.277244
-0.262552
-0.352214
-0.359115
-0.361034
-0.36096
-0.359077
-0.355455
-0.350238
-0.343512
-0.335349
-0.325825
-0.315039
-0.303121
-0.290308
-0.277024
-0.262651
-0.252934
-0.243555
-0.233569
-0.223221
-0.212403
-0.201114
-0.189376
-0.1772
-0.164617
-0.15167
-0.138425
-0.124967
-0.111403
-0.0978624
-0.0844889
-0.0714405
-0.058881
-0.0469725
-0.0358676
-0.025701
-0.016583
-0.00859391
-0.00178045
0.00384553
0.00830657
0.0116573
0.0139809
0.0153843
0.0159924
0.0159419
0.015374
0.0144268
0.0132286
0.0118919
0.0105089
0.00915059
0.0078658
0.00668685
0.0056266
0.00469432
0.00387754
0.00318335
0.0025733
0.00208288
0.0016195
0.00130173
0.000901152
0.000764715
0.000292254
0.000434332
-0.253593
-0.244113
-0.234051
-0.223699
-0.212882
-0.201596
-0.189863
-0.177695
-0.165117
-0.152175
-0.138932
-0.125474
-0.111907
-0.0983588
-0.0849748
-0.0719124
-0.0593356
-0.0474066
-0.0362784
-0.0260862
-0.0169406
-0.00892244
-0.00207894
0.00357752
0.00806891
0.0114493
0.0138014
0.0152315
0.0158642
0.0158358
0.0152873
0.0143567
0.0131726
0.0118474
0.0104738
0.00912303
0.00784421
0.00666996
0.00561339
0.00468398
0.00386945
0.00317702
0.00256833
0.00207903
0.00161655
0.00129942
0.00089956
0.000763368
0.000291764
0.000433404
-0.254889
-0.245216
-0.234999
-0.224641
-0.213824
-0.202542
-0.19082
-0.178665
-0.1661
-0.153167
-0.139929
-0.126471
-0.112897
-0.0993362
-0.0859322
-0.0728429
-0.0602324
-0.0482637
-0.0370902
-0.0268478
-0.0176482
-0.00957295
-0.00267036
0.00304613
0.00759742
0.0110365
0.0134448
0.0149278
0.0156092
0.0156246
0.0151146
0.0142171
0.0130608
0.0117587
0.0104038
0.00906803
0.00780111
0.00663622
0.00558699
0.00466332
0.00385329
0.00316436
0.00255841
0.00207134
0.00161067
0.0012948
0.000896378
0.000760677
0.000290784
0.000431553
-0.256782
-0.246838
-0.236389
-0.226015
-0.215199
-0.203921
-0.192214
-0.180077
-0.16753
-0.154611
-0.141382
-0.127924
-0.114343
-0.100764
-0.0873328
-0.0742058
-0.0615478
-0.0495224
-0.0382838
-0.027969
-0.018691
-0.0105327
-0.00354389
0.00226043
0.00689953
0.0104247
0.0129159
0.0144769
0.0152302
0.0153104
0.0148573
0.014009
0.0128941
0.0116263
0.0102992
0.00898581
0.00773664
0.00658574
0.00554749
0.00463239
0.0038291
0.00314542
0.00254342
0.00205984
0.00160186
0.00128789
0.000891613
0.000756647
0.000289316
0.000428786
-0.259207
-0.248938
-0.238179
-0.227782
-0.216962
-0.205686
-0.193996
-0.181883
-0.169358
-0.156459
-0.143242
-0.129788
-0.116199
-0.102601
-0.0891368
-0.0759643
-0.063248
-0.051152
-0.0398318
-0.0294256
-0.0200479
-0.0117835
-0.00468403
0.0012334
0.00598594
0.00962272
0.0122215
0.0138841
0.0147311
0.014896
0.0145177
0.0137339
0.0126734
0.0114507
0.0101605
0.00887667
0.00765102
0.00651868
0.00549498
0.00459127
0.00379693
0.00312026
0.00252333
0.00204452
0.00159013
0.00127869
0.000885272
0.000751286
0.000287362
0.000425119
-0.262087
-0.251465
-0.240321
-0.229887
-0.219059
-0.20778
-0.196108
-0.184021
-0.171524
-0.15865
-0.14545
-0.132004
-0.11841
-0.104793
-0.0912953
-0.078073
-0.0652913
-0.053115
-0.0417004
-0.0311875
-0.0216926
-0.0133026
-0.00607142
-1.86799e-05
0.00487011
0.00864138
0.0113702
0.013156
0.0141171
0.0143852
0.0140983
0.0133936
0.0124001
0.0112331
0.00998826
0.00874105
0.00754455
0.00643523
0.00542961
0.00454006
0.00375685
0.00308898
0.00250324
0.00202539
0.00157551
0.00126722
0.000877367
0.000744605
0.000284923
0.000420568
-0.265324
-0.254355
-0.242756
-0.232269
-0.221427
-0.21014
-0.198483
-0.186425
-0.17396
-0.161116
-0.14794
-0.134507
-0.120915
-0.107283
-0.0937527
-0.0804804
-0.0676305
-0.0553683
-0.0438512
-0.0332207
-0.0235952
-0.015064
-0.00768376
-0.001477
0.00356765
0.00749342
0.0103722
0.0123005
0.0133941
0.0137826
0.0136025
0.0129905
0.0120758
0.0109744
0.00978329
0.00857946
0.00741757
0.00633563
0.00535155
0.00447888
0.00370894
0.00305147
0.00247281
0.0020024
0.001558
0.00125349
0.000867913
0.000736618
0.000282003
0.000415156
-0.268812
-0.257527
-0.245416
-0.234861
-0.223997
-0.212693
-0.20105
-0.189022
-0.176593
-0.163785
-0.150641
-0.13723
-0.123646
-0.110006
-0.0964502
-0.0831319
-0.0702154
-0.0578663
-0.0462429
-0.0354884
-0.0257233
-0.0170395
-0.00949679
-0.00312099
0.00209569
0.00619286
0.00923883
0.0113266
0.012569
0.0130931
0.0130339
0.0125272
0.0117023
0.0106759
0.00954645
0.0083925
0.00727049
0.00622017
0.005261
0.00440788
0.00365329
0.00300781
0.0024377
0.00197575
0.00153766
0.00123755
0.000856925
0.00072734
0.000278606
0.000408908
-0.272434
-0.26089
-0.248227
-0.23759
-0.226697
-0.215369
-0.203735
-0.191738
-0.17935
-0.166585
-0.153482
-0.140103
-0.126538
-0.112902
-0.0993286
-0.085972
-0.0729948
-0.0605622
-0.0488334
-0.0379529
-0.0280435
-0.0191999
-0.0114853
-0.00492918
0.000472263
0.00475456
0.00798196
0.0102436
0.011649
0.0123223
0.0123966
0.0120066
0.0112817
0.0103391
0.00927872
0.00818084
0.00710379
0.00608917
0.00515818
0.00432721
0.00359004
0.00295816
0.00239842
0.00194548
0.00151452
0.0012194
0.000844422
0.000716789
0.000274736
0.000401855
-0.276071
-0.26434
-0.251108
-0.24038
-0.229451
-0.218093
-0.206466
-0.194502
-0.182159
-0.169446
-0.156394
-0.14306
-0.129528
-0.115907
-0.10233
-0.0889472
-0.0759191
-0.0634106
-0.0515812
-0.0405769
-0.0305226
-0.0215161
-0.0136239
-0.00687983
-0.00128429
0.00319374
0.00661403
0.0090615
0.0106418
0.011476
0.0116949
0.011432
0.0108162
0.00996552
0.00898117
0.00794522
0.00691797
0.005943
0.00504337
0.00423707
0.00351932
0.00290264
0.0023549
0.0019114
0.00148859
0.00119909
0.000830428
0.000704987
0.000270397
0.00039403
-0.279588
-0.267757
-0.253972
-0.243152
-0.232186
-0.220794
-0.209173
-0.197244
-0.184953
-0.172302
-0.159314
-0.146039
-0.132555
-0.118967
-0.105402
-0.0920071
-0.0789414
-0.0663682
-0.054447
-0.0433249
-0.0331288
-0.0239597
-0.015888
-0.00895159
-0.00315579
0.0015256
0.00514751
0.00779025
0.00955527
0.0105603
0.0109333
0.0108065
0.0103081
0.00955684
0.00865499
0.00768646
0.0067136
0.00578205
0.00491683
0.00413766
0.00344129
0.00284139
0.002307
0.00187374
0.00145987
0.00117664
0.000814967
0.000691955
0.000265595
0.000385469
-0.282847
-0.271014
-0.256729
-0.245827
-0.234824
-0.223401
-0.21179
-0.199902
-0.187673
-0.175095
-0.162185
-0.148985
-0.135567
-0.122029
-0.108495
-0.0951063
-0.0820193
-0.0693956
-0.0573944
-0.0461636
-0.0358322
-0.0265042
-0.0182539
-0.011124
-0.00512473
-0.000235078
0.00359466
0.00643982
0.00839737
0.00958121
0.0101166
0.0101336