/*--------------------------------*- C++ -*----------------------------------*\
  =========                 |
  \\      /  F ield         | OpenFOAM: The Open Source CFD Toolbox
   \\    /   O peration     | Website:  https://openfoam.org
    \\  /    A nd           | Version:  7
     \\/     M anipulation  |
\*---------------------------------------------------------------------------*/
FoamFile
{
    version     2.0;
    format      ascii;
    class       volVectorField;
    location    "5";
    object      U;
}
// * * * * * * * * * * * * * * * * * * * * * * * * * * * * * * * * * * * * * //

dimensions      [0 1 -1 0 0 0 0];

internalField   nonuniform List<vector> 
11300
(
(-0.00104439 0.000776128 -2.0954e-21)
(-0.00516735 0.00164527 -1.02097e-21)
(-0.0122895 0.00203903 -1.65202e-20)
(-0.0200436 0.0020891 1.43081e-20)
(-0.0274469 0.00188215 -3.69138e-21)
(-0.0337153 0.00148581 -2.24268e-20)
(-0.038228 0.000950242 3.21152e-22)
(-0.0405237 0.000311051 -2.27172e-21)
(-0.040245 -0.000407063 -1.15107e-20)
(-0.0371072 -0.00118612 -2.34009e-20)
(-0.0308857 -0.00200862 6.28235e-21)
(-0.0214205 -0.00284722 8.63213e-21)
(-0.00870111 -0.00364593 7.13243e-21)
(0.00687202 -0.00430954 1.17146e-20)
(0.0253439 -0.00469991 3.8587e-21)
(-0.00114712 0.00230855 -2.2426e-21)
(-0.005316 0.00489073 1.73357e-20)
(-0.0123176 0.00605777 2.48727e-20)
(-0.0198352 0.00620076 -3.45964e-20)
(-0.0269035 0.00557794 1.60902e-20)
(-0.0327515 0.00439096 -5.83953e-21)
(-0.036767 0.00278945 -9.58507e-21)
(-0.0384935 0.000879705 -1.47145e-20)
(-0.0375762 -0.00126451 1.77384e-20)
(-0.0337307 -0.00358954 4.80112e-20)
(-0.026732 -0.00604334 -6.49683e-20)
(-0.0164173 -0.00854478 1.30685e-21)
(-0.00277635 -0.0109274 -1.1221e-20)
(0.0137644 -0.0129058 -3.90052e-21)
(0.0335105 -0.0140522 4.35605e-21)
(-0.00134748 0.00378207 -3.58089e-20)
(-0.00560225 0.00800223 4.61731e-20)
(-0.0123604 0.00990023 -6.81304e-21)
(-0.0194047 0.0101147 -4.54382e-20)
(-0.0258043 0.00907027 1.31144e-20)
(-0.0308138 0.00709883 2.90347e-20)
(-0.0338383 0.00444697 -5.08026e-20)
(-0.0344314 0.00129013 -3.32601e-20)
(-0.0322431 -0.00224979 9.20054e-20)
(-0.0269905 -0.00608435 -3.664e-20)
(-0.0184482 -0.0101284 6.929e-20)
(-0.00644873 -0.0142496 -6.03843e-20)
(0.00901741 -0.0181748 -2.23728e-20)
(0.0274665 -0.0214315 -8.46198e-20)
(0.0497263 -0.0232592 1.18539e-20)
(-0.00163543 0.0051594 -1.59429e-20)
(-0.00600428 0.0108946 -4.64706e-20)
(-0.0123914 0.013454 -5.0464e-20)
(-0.0187247 0.0137046 -6.18212e-21)
(-0.024124 0.0122291 -4.81909e-20)
(-0.0278814 0.00948344 -7.65015e-20)
(-0.0294283 0.00580707 8.72417e-20)
(-0.0283331 0.00144206 8.43741e-20)
(-0.0242538 -0.00344313 -1.06104e-19)
(-0.0169108 -0.00872657 -1.12072e-19)
(-0.00607984 -0.0142922 1.07198e-19)
(0.00841183 -0.0199603 -9.95634e-20)
(0.0265714 -0.0253592 5.31286e-20)
(0.0478167 -0.0298341 -3.14858e-20)
(0.0737618 -0.0322173 -1.35853e-20)
(-0.00199635 0.00640614 2.5598e-20)
(-0.0064901 0.0134886 -6.65951e-20)
(-0.0123712 0.0166141 -4.54252e-20)
(-0.0177544 0.0168524 1.63262e-19)
(-0.0218249 0.0149327 3.70484e-20)
(-0.0239233 0.0114271 1.07819e-19)
(-0.0235156 0.00676211 -1.34038e-19)
(-0.0201909 0.00124307 -1.23613e-19)
(-0.0136185 -0.00491711 1.51786e-19)
(-0.00352547 -0.0115647 -1.44566e-19)
(0.0103087 -0.0185552 -1.08993e-19)
(0.0280586 -0.0256672 5.47648e-21)
(0.0497276 -0.0324421 1.21114e-19)
(0.0745821 -0.038052 -2.83049e-20)
(0.105283 -0.0408136 1.55895e-20)
(-0.00241154 0.00749172 1.34195e-19)
(-0.00701837 0.0157133 4.72278e-20)
(-0.0122488 0.0192858 1.18396e-19)
(-0.0164404 0.019451 -1.4831e-19)
(-0.0188564 0.0170709 -1.74737e-19)
(-0.0188969 0.0128236 2.08664e-20)
(-0.0160703 0.00721579 -4.78882e-20)
(-0.00999196 0.000611839 1.23781e-19)
(-0.00034761 -0.00673342 1.00059e-19)
(0.0131252 -0.0146364 4.12958e-20)
(0.0306373 -0.0229274 1.21151e-19)
(0.0523585 -0.0313497 3.44747e-20)
(0.0782862 -0.0393706 -1.45445e-19)
(0.107467 -0.046011 2.48286e-19)
(0.143864 -0.0489224 -1.31531e-20)
(-0.00285879 0.00839015 -8.21089e-20)
(-0.00753947 0.0175072 -6.32234e-20)
(-0.011962 0.0213867 1.38209e-19)
(-0.0147166 0.0214072 -6.15217e-20)
(-0.0151557 0.018548 1.89812e-19)
(-0.0127482 0.0135814 -1.2951e-19)
(-0.00705259 0.00708644 1.22092e-20)
(0.00228315 -0.000518521 -1.69879e-19)
(0.0155512 -0.00893959 -1.02082e-19)
(0.0329972 -0.0179653 8.39995e-20)
(0.0548143 -0.0274043 -4.96331e-20)
(0.0811565 -0.0369718 -7.10189e-20)
(0.112011 -0.0460752 -1.11225e-19)
(0.146124 -0.0536204 -2.38686e-19)
(0.188996 -0.0564037 2.27775e-19)
(-0.00331308 0.00908061 2.77652e-20)
(-0.00799664 0.0188202 1.14727e-19)
(-0.0114386 0.0228489 -8.87933e-20)
(-0.0125054 0.0226441 2.75754e-20)
(-0.0106476 0.0192854 -6.23896e-21)
(-0.00541112 0.0136266 2.69695e-19)
(0.00358788 0.0063102 -4.65399e-20)
(0.0166621 -0.00219713 -7.47472e-20)
(0.0340746 -0.0115655 3.47963e-20)
(0.0560456 -0.0215578 2.28125e-19)
(0.0827398 -0.0319641 -1.14693e-19)
(0.11428 -0.0424793 2.72433e-19)
(0.150636 -0.0524659 2.71199e-19)
(0.190161 -0.0607695 1.90275e-19)
(0.240102 -0.0631014 -1.92727e-19)
(-0.00374727 0.00954777 2.37489e-20)
(-0.00832726 0.0196142 1.36189e-19)
(-0.010598 0.0236204 1.04567e-19)
(-0.0097187 0.0231031 3.03303e-20)
(-0.00524535 0.0192243 -7.15529e-20)
(0.0031922 0.012906 -1.04198e-19)
(0.0159126 0.00484415 -2.41331e-19)
(0.033182 -0.004452 -1.99366e-19)
(0.0552253 -0.0146202 -1.6167e-19)
(0.082227 -0.0253994 -1.04332e-19)
(0.114309 -0.0365644 -6.85876e-20)
(0.151541 -0.0477972 1.0676e-19)
(0.193866 -0.0584303 -1.44122e-19)
(0.239148 -0.0673253 -6.56029e-20)
(0.296537 -0.0688437 3.43233e-20)
(-0.00413276 0.00978178 1.57041e-19)
(-0.00846421 0.019864 -1.07418e-19)
(-0.00935184 0.0236665 2.36274e-20)
(-0.00625873 0.0227455 -2.01395e-19)
(0.00114903 0.0183278 2.53989e-19)
(0.0131512 0.0113892 -2.88944e-19)
(0.0299943 0.00266918 -1.20155e-19)
(0.0518892 -0.00728694 4.21511e-19)
(0.0790127 -0.0180882 2.1091e-19)
(0.1115 -0.0294517 -1.64112e-19)
(0.149411 -0.0411393 5.7558e-21)
(0.192737 -0.0528281 8.20106e-20)
(0.24138 -0.0638327 9.68036e-20)
(0.292622 -0.0731306 -3.25326e-19)
(0.357595 -0.0734457 3.62721e-19)
(-0.0044399 0.00977792 1.16252e-19)
(-0.00833716 0.0195573 -1.10156e-20)
(-0.00760623 0.02297 2.13058e-21)
(-0.0020197 0.0215537 -8.9014e-21)
(0.00864305 0.0165822 -1.30344e-19)
(0.0245658 0.00907104 -3.11657e-21)
(0.0459157 -0.000207424 1.18375e-20)
(0.0728391 -0.0106786 5.5863e-19)
(0.105452 -0.0219268 -3.02868e-19)
(0.143822 -0.0336495 2.57134e-19)
(0.187929 -0.0455978 3.17575e-20)
(0.237652 -0.057451 -3.36812e-19)
(0.292827 -0.0685155 9.63979e-21)
(0.350081 -0.0780049 4.46121e-20)
(0.422504 -0.076714 -4.54534e-19)
(-0.00463868 0.00953771 -4.53821e-19)
(-0.00787326 0.0186944 -2.33401e-20)
(-0.0052629 0.0215316 -1.37882e-19)
(0.00311078 0.0195321 -3.87242e-20)
(0.0173523 0.013999 1.27355e-19)
(0.0375448 0.00597343 3.19141e-19)
(0.0637682 -0.00374991 3.56915e-19)
(0.0960935 -0.0145744 -2.468e-19)
(0.134561 -0.0260641 -1.99767e-21)
(0.179152 -0.0378992 1.77324e-19)
(0.229735 -0.0498225 2.74629e-19)
(0.286046 -0.0615221 -2.01464e-19)
(0.347819 -0.0723032 -4.38758e-20)
(0.410981 -0.0817483 -1.11684e-19)
(0.490422 -0.078454 2.70317e-19)
(-0.00470011 0.00906713 1.09253e-19)
(-0.00699923 0.017287 -2.977e-19)
(-0.00222045 0.0193698 6.07105e-20)
(0.00924973 0.0167071 -4.05194e-20)
(0.0273984 0.0106149 1.92631e-19)
(0.0522031 0.00214631 4.11343e-20)
(0.0836484 -0.00789262 -2.05733e-20)
(0.121717 -0.0188908 1.23779e-19)
(0.166356 -0.030397 -3.72884e-19)
(0.217435 -0.0420777 2.5315e-19)
(0.274683 -0.05367 -4.85231e-20)
(0.337649 -0.0648772 4.23995e-19)
(0.405921 -0.0750083 6.69434e-20)
(0.474731 -0.0841479 -2.55096e-19)
(0.560433 -0.0784813 1.49147e-19)
(-0.00459506 0.00837582 6.91133e-20)
(-0.00564194 0.0153593 3.68556e-19)
(0.00162358 0.0165209 -3.16672e-19)
(0.0165166 0.0131274 3.41734e-19)
(0.0389059 0.00649265 -2.03396e-19)
(0.0686584 -0.00233176 2.03119e-19)
(0.105654 -0.0125394 -3.65246e-19)
(0.149772 -0.0235128 2.66547e-19)
(0.200844 -0.0347917 5.78904e-19)
(0.258602 -0.0460335 -2.82083e-19)
(0.322599 -0.0569737 -1.54453e-19)
(0.392155 -0.0673365 8.25124e-20)
(0.466646 -0.0764415 -1.95078e-19)
(0.540682 -0.0849871 1.12997e-20)
(0.631548 -0.0766363 -2.15189e-19)
(-0.00429521 0.00747761 1.10489e-19)
(-0.00372915 0.0129459 -2.95712e-21)
(0.00637119 0.0130372 -1.09295e-20)
(0.0250308 0.00886295 -1.87141e-19)
(0.0519991 0.0017203 -2.16939e-19)
(0.087027 -0.00735387 -2.39317e-19)
(0.129878 -0.0175638 -7.20815e-20)
(0.180311 -0.0282947 -1.19972e-19)
(0.238018 -0.039085 -4.55712e-20)
(0.302558 -0.0495895 4.87975e-19)
(0.37327 -0.0595481 -3.06334e-19)
(0.449204 -0.0687118 -7.77581e-21)
(0.529448 -0.0764236 -1.66836e-20)
(0.608134 -0.08406 4.07848e-19)
(0.702712 -0.0728091 -9.76992e-20)
(-0.00377324 0.00638972 -1.79817e-19)
(-0.00119044 0.010091 4.83302e-20)
(0.0121222 0.00898687 4.58488e-20)
(0.0349091 0.00400444 2.81584e-19)
(0.0667986 -0.00358956 -1.5159e-19)
(0.107418 -0.0127858 -2.63764e-19)
(0.156402 -0.0228107 3.49137e-19)
(0.213368 -0.0330624 -2.99155e-19)
(0.277839 -0.0430873 2.26028e-19)
(0.349168 -0.0525473 -3.60149e-19)
(0.426436 -0.0611957 4.7889e-19)
(0.508381 -0.0688157 1.16942e-19)
(0.593714 -0.0747994 4.93556e-19)
(0.676335 -0.0811857 2.42443e-19)
(0.772826 -0.0669657 3.72245e-20)
(-0.0030029 0.00513217 1.02135e-19)
(0.00204191 0.00684777 -3.22012e-19)
(0.0189726 0.0044526 4.04255e-19)
(0.0462625 -0.00133823 -2.94251e-19)
(0.0834163 -0.00930136 2.22816e-19)
(0.12993 -0.0184678 1.19579e-19)
(0.185291 -0.0280987 -1.53223e-19)
(0.248952 -0.0376166 7.91504e-20)
(0.320237 -0.0465881 -1.34829e-19)
(0.39825 -0.054695 1.08766e-19)
(0.481775 -0.0617167 1.64691e-19)
(0.569201 -0.0674737 -5.00961e-20)
(0.658776 -0.0714522 -4.306e-19)
(0.744488 -0.0762039 -7.11586e-20)
(0.840747 -0.0591218 3.56037e-19)
(-0.00195908 0.00372744 8.22364e-20)
(0.00603209 0.00327742 2.30628e-19)
(0.0270121 -0.000469782 -4.42958e-19)
(0.0591932 -0.00703748 1.35525e-19)
(0.101951 -0.0152586 1.27907e-19)
(0.154639 -0.0242177 2.50897e-19)
(0.21658 -0.0332238 -3.52299e-20)
(0.287034 -0.0417382 5.00131e-19)
(0.365088 -0.0493625 -3.57846e-19)
(0.44956 -0.0558159 4.46035e-19)
(0.538897 -0.0609202 -2.35707e-19)
(0.631114 -0.0645405 -3.55746e-20)
(0.723924 -0.066316 3.37011e-21)
(0.811759 -0.0689284 2.36461e-20)
(0.905229 -0.0492506 -4.31553e-19)
(-0.000617865 0.00220017 -1.93614e-19)
(0.01084 -0.000551727 1.03698e-19)
(0.0363231 -0.00567245 -3.36251e-19)
(0.0737911 -0.0129499 7.20067e-19)
(0.122485 -0.0212864 -1.83408e-19)
(0.1816 -0.029834 -1.85685e-19)
(0.250274 -0.0379646 2.0276e-20)
(0.327542 -0.0451944 6.76972e-20)
(0.412216 -0.0511795 2.48592e-19)
(0.50279 -0.0556984 1.31623e-19)
(0.597345 -0.0586379 1.2207e-19)
(0.693514 -0.0599227 -2.97478e-19)
(0.788472 -0.0593949 3.4277e-19)
(0.877408 -0.0591612 -8.4339e-20)
(0.965074 -0.0376392 6.28938e-20)
(0.00104326 0.000576986 5.4782e-19)
(0.0165202 -0.00456478 1.12355e-19)
(0.0469777 -0.011037 -3.38695e-20)
(0.0901306 -0.0189186 -2.56241e-19)
(0.145076 -0.0271949 -1.34657e-20)
(0.210836 -0.0351006 2.56408e-19)
(0.286335 -0.0420874 5.22877e-19)
(0.370349 -0.0477461 -6.08841e-19)
(0.46138 -0.0518107 -4.43999e-19)
(0.55756 -0.0541466 -1.97821e-19)
(0.656585 -0.0547359 -1.22565e-19)
(0.755731 -0.053595 1.54255e-19)
(0.851771 -0.0507845 -7.80266e-19)
(0.941006 -0.0470575 -1.02941e-19)
(1.02043 -0.0265235 1.94026e-19)
(0.00304527 -0.00111361 -3.61974e-19)
(0.0231212 -0.00868094 3.20768e-20)
(0.059036 -0.0164358 1.30958e-19)
(0.108267 -0.0247751 4.14551e-19)
(0.169756 -0.0327823 1.57631e-20)
(0.242331 -0.0397912 -2.65034e-19)
(0.324676 -0.0453531 -2.50912e-19)
(0.415272 -0.0491559 2.08429e-19)
(0.512272 -0.0510393 6.96491e-19)
(0.613417 -0.050988 2.20229e-19)
(0.716011 -0.0491177 4.88962e-19)
(0.81701 -0.0455861 -1.56273e-19)
(0.912998 -0.0406853 2.79084e-21)
(1.00184 -0.0337241 4.05808e-19)
(1.07525 -0.0200611 -2.60335e-19)
(0.00540729 -0.00284123 -1.64173e-20)
(0.030684 -0.012814 -6.82108e-20)
(0.072544 -0.0217335 -3.6251e-19)
(0.128234 -0.0303425 -2.18341e-19)
(0.196525 -0.0378391 1.72423e-19)
(0.27603 -0.0436753 2.26523e-19)
(0.36516 -0.047524 1.17076e-19)
(0.462068 -0.0491967 -2.29457e-19)
(0.56452 -0.0486691 -1.39449e-19)
(0.66985 -0.0460801 -1.65683e-19)
(0.774972 -0.0417182 -4.8134e-19)
(0.876558 -0.0359338 -3.64134e-19)
(0.97107 -0.0293492 -5.65688e-19)
(1.05712 -0.0209476 -2.76252e-19)
(1.12526 -0.0162126 2.17781e-19)
(0.00814623 -0.00457364 -5.85936e-20)
(0.039241 -0.016873 -5.09105e-20)
(0.0875314 -0.0267883 -2.19007e-20)
(0.150039 -0.0354376 -5.35705e-19)
(0.225349 -0.0421522 4.35933e-20)
(0.311833 -0.0465235 -3.93404e-19)
(0.407599 -0.0483711 4.80714e-19)
(0.510434 -0.0476594 -3.79316e-19)
(0.617697 -0.0445327 2.6901e-19)
(0.726303 -0.0393176 -2.72311e-19)
(0.832804 -0.0325065 7.24909e-19)
(0.933639 -0.0246697 5.34205e-20)
(1.02523 -0.016742 -5.25933e-19)
(1.10637 -0.00767211 5.0015e-19)
(1.16833 -0.00710554 1.21207e-19)
(0.0112763 -0.00627667 -1.56306e-19)
(0.0488151 -0.0207625 2.13673e-19)
(0.104009 -0.0314539 3.94989e-19)
(0.173662 -0.0398743 2.42135e-19)
(0.256155 -0.0455093 2.55332e-19)
(0.349592 -0.0481135 -1.29566e-19)
(0.451747 -0.0476815 -2.27413e-19)
(0.560014 -0.0443618 -2.04779e-19)
(0.671328 -0.0385002 -4.3173e-19)
(0.782199 -0.0306404 2.05129e-19)
(0.888868 -0.0214976 -3.48098e-19)
(0.987624 -0.0118622 -1.61915e-20)
(1.07498 -0.00289122 -1.516e-19)
(1.14977 0.00640253 2.47557e-19)
(1.20473 0.00532582 3.34194e-20)
(0.0148085 -0.0079143 5.68242e-20)
(0.0594174 -0.0243837 -3.08974e-20)
(0.121969 -0.0355811 -4.5114e-19)
(0.199055 -0.0434664 -2.54602e-19)
(0.288833 -0.0477032 -4.47912e-19)
(0.389115 -0.0482361 3.99186e-19)
(0.497311 -0.045265 -4.4268e-19)
(0.610402 -0.0391554 6.77291e-19)
(0.724903 -0.0304855 2.95017e-19)
(0.836954 -0.0200388 1.865e-19)
(0.942564 -0.0087596 -4.37513e-20)
(1.03799 0.00236185 -6.41831e-20)
(1.12 0.0120438 1.35574e-19)
(1.18754 0.021149 2.65465e-19)
(1.2351 0.0194287 -5.72999e-19)
(0.0187499 -0.00944866 3.70719e-19)
(0.0710469 -0.0276347 -4.17095e-19)
(0.14138 -0.0390195 3.35517e-19)
(0.226137 -0.0460308 2.3988e-19)
(0.323233 -0.0485363 4.28753e-19)
(0.430161 -0.0467002 7.69089e-20)
(0.543948 -0.0409601 4.59591e-19)
(0.661157 -0.0319306 -5.05714e-19)
(0.777897 -0.0204498 -7.33402e-20)
(0.890004 -0.00755481 -2.35536e-19)
(0.993359 0.0055891 -1.71157e-19)
(1.08433 0.0178279 -2.41031e-19)
(1.16009 0.0278455 -6.19611e-20)
(1.21989 0.036379 1.88526e-19)
(1.25993 0.0343176 -3.76902e-19)
(0.0231031 -0.0108402 -1.03991e-19)
(0.0836885 -0.0304118 3.14393e-19)
(0.162187 -0.0416197 -5.78605e-19)
(0.254794 -0.0473907 -1.47164e-19)
(0.359162 -0.0478253 -2.87628e-19)
(0.472449 -0.0433386 -6.48127e-19)
(0.591281 -0.034639 -3.39345e-19)
(0.711808 -0.022621 1.80755e-19)
(0.829781 -0.00840292 1.12327e-19)
(0.940815 0.00672132 -1.21309e-19)
(1.04079 0.0213882 3.33958e-19)
(1.12634 0.0343299 3.07711e-19)
(1.19518 0.044279 4.62389e-19)
(1.24704 0.0518888 -2.42212e-19)
(1.27969 0.0494396 -5.1812e-20)
(0.0278656 -0.0120482 -1.47566e-19)
(0.097312 -0.0326107 -2.16492e-20)
(0.184313 -0.0432357 2.60827e-19)
(0.284881 -0.0473791 -3.40226e-20)
(0.396396 -0.0454048 -9.92332e-20)
(0.515658 -0.0380117 2.80287e-19)
(0.638898 -0.0262115 8.7707e-20)
(0.761874 -0.0112046 -9.14669e-20)
(0.880042 0.00559817 1.40491e-19)
(0.988907 0.0226567 4.45171e-19)
(1.08449 0.038446 -4.66718e-19)
(1.16384 0.0516459 -1.23642e-19)
(1.22535 0.0611127 -5.49506e-20)
(1.2693 0.0674784 3.18507e-19)
(1.29489 0.064437 2.25924e-19)
(0.033029 -0.0130305 2.7959e-19)
(0.111871 -0.0341277 -1.49394e-21)
(0.207652 -0.0437271 1.23677e-19)
(0.316222 -0.0458419 4.65261e-19)
(0.43467 -0.0411315 2.69435e-19)
(0.559438 -0.0306118 -2.39708e-19)
(0.686367 -0.0156272 1.15215e-19)
(0.810872 0.00229592 1.04076e-19)
(0.928198 0.0214535 -5.05776e-19)
(1.03386 0.0400837 -5.04113e-19)
(1.12418 0.0565508 1.68517e-19)
(1.19676 0.069551 1.69663e-19)
(1.25072 0.0781322 -1.96203e-20)
(1.28703 0.0829705 -3.44113e-19)
(1.30605 0.079087 -2.2825e-19)
(0.0385786 -0.0137451 2.97075e-19)
(0.127303 -0.0348613 3.90364e-20)
(0.232078 -0.0429617 -2.44633e-19)
(0.34861 -0.0426413 -2.92256e-19)
(0.473692 -0.0348879 9.16824e-20)
(0.603411 -0.0210654 3.50489e-19)
(0.733247 -0.00287671 1.687e-20)
(0.858332 0.0178153 2.50133e-19)
(0.973807 0.0390253 2.29754e-19)
(1.07534 0.058809 9.67401e-20)
(1.15968 0.0754816 2.82431e-19)
(1.2251 0.0878289 -5.08351e-20)
(1.27154 0.095149 1.91418e-19)
(1.3006 0.0982198 -1.65467e-19)
(1.31365 0.0932585 4.09853e-19)
(0.044493 -0.0141499 -2.74455e-19)
(0.143528 -0.0347145 -2.84666e-19)
(0.257437 -0.0408184 2.27332e-19)
(0.381809 -0.0376592 1.73962e-19)
(0.513143 -0.0265844 -2.24109e-19)
(0.647185 -0.00933518 -1.11857e-19)
(0.779097 0.012009 2.4946e-19)
(0.903812 0.0352491 -6.5976e-19)
(1.01648 0.0581448 -6.58165e-20)
(1.11307 0.0786222 1.47961e-19)
(1.1909 0.0950178 3.52577e-19)
(1.24899 0.10628 -1.40698e-20)
(1.28808 0.112004 -3.85643e-19)
(1.31042 0.113115 -8.0322e-20)
(1.31816 0.106883 -9.88924e-20)
(0.0507438 -0.0142037 2.40664e-19)
(0.160447 -0.033596 2.21673e-19)
(0.283554 -0.0371896 1.86042e-19)
(0.41556 -0.0307997 1.37646e-21)
(0.552684 -0.0161629 4.21937e-20)
(0.690357 0.00457892 1.18638e-19)
(0.823487 0.02896 -1.72537e-19)
(0.946902 0.0544583 2.35419e-19)
(1.0559 0.0786195 -1.72822e-19)
(1.14688 0.0993046 4.33341e-20)
(1.21782 0.114947 -2.7826e-20)
(1.26857 0.124725 -3.1384e-19)
(1.30066 0.128568 3.49064e-19)
(1.31689 0.127576 -1.08468e-20)
(1.31999 0.119932 1.71231e-20)
(0.0572952 -0.0138674 3.12815e-20)
(0.177948 -0.0314229 -7.3517e-20)
(0.310229 -0.0319842 -1.70505e-19)
(0.449582 -0.0219918 1.72004e-19)
(0.59196 -0.00359736 1.45037e-19)
(0.732526 0.0206399 -5.06954e-20)
(0.866005 0.0478698 -4.0763e-19)
(0.987239 0.0752745 6.51257e-20)
(1.0918 0.10024 3.12358e-19)
(1.17664 0.120637 -2.22999e-19)
(1.24052 0.135071 -2.22653e-19)
(1.28409 0.14301 2.20523e-19)
(1.30962 0.144741 -2.36824e-20)
(1.32038 0.14155 1.93101e-20)
(1.31952 0.132405 1.50038e-19)
(0.0641043 -0.0131047 -1.15534e-19)
(0.195899 -0.0281227 7.5668e-20)
(0.337247 -0.0251299 -1.1359e-19)
(0.483577 -0.0111921 -3.33208e-19)
(0.63061 0.0111042 -2.45926e-19)
(0.773296 0.0387747 6.16866e-20)
(0.906272 0.0685991 7.75981e-20)
(1.02451 0.0975054 2.59365e-19)
(1.12399 0.122787 -2.84625e-19)
(1.20233 0.142403 2.49591e-19)
(1.25911 0.155207 -4.45942e-20)
(1.29579 0.161004 2.11114e-19)
(1.31529 0.160445 -1.77284e-19)
(1.32127 0.155002 -2.2459e-20)
(1.3171 0.144313 8.91157e-21)
(0.0711212 -0.0118828 -1.63017e-19)
(0.214155 -0.0236352 -1.80618e-19)
(0.364373 -0.0165758 -1.26332e-19)
(0.517235 0.00161377 3.01803e-19)
(0.668271 0.0278996 2.85371e-19)
(0.81229 0.0588757 -3.13513e-19)
(0.94394 0.0909797 -3.06349e-20)
(1.05845 0.120941 -6.72689e-21)
(1.15233 0.146038 9.84922e-20)
(1.22396 0.1644 -1.51262e-19)
(1.27375 0.175192 -8.0813e-20)
(1.30394 0.178597 -5.87756e-20)
(1.31801 0.175623 3.96822e-20)
(1.31986 0.167915 -4.83186e-20)
(1.31298 0.155676 -1.20414e-19)
(0.0782893 -0.010174 4.13706e-20)
(0.232558 -0.0179145 9.76968e-20)
(0.391361 -0.0062943 8.21027e-20)
(0.550239 0.0164099 -2.04433e-19)
(0.704587 0.0467133 -1.89533e-19)
(0.84915 0.0808034 1.85827e-19)
(0.978704 0.114819 -2.6341e-20)
(1.08886 0.145359 -1.99084e-20)
(1.17676 0.16977 6.0443e-20)
(1.24161 0.186434 -1.69981e-19)
(1.28465 0.194884 2.44093e-20)
(1.30884 0.1957 -4.37902e-20)
(1.31808 0.190234 -1.38219e-20)
(1.31645 0.18028 -1.27524e-20)
(1.30743 0.166513 9.75662e-20)
(0.085546 -0.00795603 5.99344e-20)
(0.250938 -0.0109311 6.64663e-20)
(0.417953 0.00571715 1.04097e-19)
(0.582271 0.0331493 1.80636e-19)
(0.73921 0.0674365 2.73982e-20)
(0.883549 0.104389 3.89024e-20)
(1.0103 0.139904 1.94239e-20)
(1.11558 0.170529 -1.3434e-19)
(1.19726 0.193767 1.64434e-19)
(1.25539 0.208327 8.05668e-20)
(1.29203 0.214156 1.29e-19)
(1.31075 0.212241 3.05833e-20)
(1.3158 0.204248 -2.60192e-20)
(1.3113 0.192093 3.98042e-20)
(1.30063 0.176842 -5.08291e-20)
(0.0928236 -0.00521306 7.60494e-21)
(0.269117 -0.0026733 -4.82045e-20)
(0.443888 0.0194348 8.22924e-21)
(0.613015 0.0517537 -2.34682e-20)
(0.771812 0.0899298 6.60864e-21)
(0.915192 0.12944 1.08079e-19)
(1.03852 0.166008 -4.29151e-20)
(1.13852 0.196219 1.3741e-20)
(1.21386 0.217821 -5.82087e-20)
(1.26545 0.229916 -7.3854e-20)
(1.29612 0.2329 -1.27956e-20)
(1.30995 0.22816 1.8497e-20)
(1.31143 0.217643 6.07114e-20)
(1.30463 0.203353 -1.56263e-20)
(1.29274 0.186674 6.33002e-21)
(0.10005 -0.00193672 -1.62002e-20)
(0.286909 0.00685173 -7.75292e-21)
(0.468903 0.034808 -4.17721e-20)
(0.642164 0.0721145 -4.55347e-20)
(0.802089 0.114025 -1.01002e-20)
(0.94382 0.155739 -1.93931e-20)
(1.0632 0.192891 2.2397e-20)
(1.15762 0.222196 -1.10683e-20)
(1.22663 0.241733 3.84858e-21)
(1.27197 0.251054 4.72521e-21)
(1.29715 0.251021 6.07432e-20)
(1.30669 0.243408 -4.80975e-21)
(1.30519 0.230399 6.49608e-21)
(1.29663 0.214056 4.29884e-20)
(1.28392 0.196017 -2.98852e-22)
(0.107148 0.00187349 6.66981e-22)
(0.304127 0.0176167 -7.67265e-21)
(0.492736 0.0517586 3.92666e-20)
(0.669428 0.0940932 -2.22581e-20)
(0.82976 0.139526 7.74021e-21)
(0.969215 0.183053 -6.20228e-21)
(1.0842 0.220308 2.18635e-21)
(1.17289 0.248234 2.94919e-21)
(1.23568 0.265317 8.77967e-21)
(1.27513 0.271606 2.40916e-20)
(1.29537 0.268438 -9.95262e-21)
(1.30121 0.257943 -1.94665e-21)
(1.2973 0.242502 -6.26202e-21)
(1.28744 0.224199 -8.6256e-21)
(1.27426 0.204871 -4.13498e-21)
(0.114042 0.00620955 3.61298e-21)
(0.320582 0.0295737 1.49293e-21)
(0.515134 0.0701819 1.95787e-20)
(0.694531 0.117524 -1.56447e-20)
(0.85458 0.166218 5.03828e-21)
(0.9912 0.211135 8.09983e-22)
(1.10145 0.248011 -3.03298e-21)
(1.18434 0.27411 2.487e-21)
(1.24114 0.288398 1.45666e-20)
(1.27514 0.291454 1.12426e-20)
(1.29099 0.285079 -3.25318e-24)
(1.29373 0.271729 -5.94191e-21)
(1.28795 0.253935 -4.19694e-21)
(1.27722 0.233773 -6.2077e-21)
(1.26386 0.213229 -1.85202e-21)
(0.120652 0.0110546 1.61789e-20)
(0.336089 0.0426542 -1.55921e-20)
(0.535856 0.0899466 -2.71984e-20)
(0.717224 0.142215 -4.29628e-20)
(0.876335 0.193861 -2.15137e-20)
(1.00964 0.239727 -1.93757e-20)
(1.11493 0.275752 1.17757e-20)
(1.19207 0.299612 1.47616e-20)
(1.24316 0.310814 -3.51625e-21)
(1.2722 0.310486 -7.3878e-21)
(1.28424 0.300879 5.44642e-20)
(1.28444 0.284731 -7.09493e-21)
(1.27728 0.264679 6.57899e-21)
(1.26607 0.242764 2.34055e-20)
(1.25279 0.221082 4.04137e-21)
(0.126899 0.0163829 3.46431e-20)
(0.350468 0.0567695 -2.38925e-20)
(0.554675 0.110897 -3.06338e-20)
(0.737281 0.167952 1.03169e-20)
(0.894847 0.222202 1.37773e-20)
(1.02443 0.268565 6.89042e-20)
(1.12463 0.303285 -1.70814e-20)
(1.19615 0.324537 3.08206e-20)
(1.24192 0.332416 -7.93061e-20)
(1.26652 0.328606 -1.38901e-20)
(1.27532 0.31578 -5.03961e-20)
(1.27353 0.296918 3.53765e-20)
(1.26543 0.274716 1.01082e-20)
(1.2541 0.251158 1.00255e-20)
(1.24113 0.228411 -4.85421e-21)
(0.132708 0.0221595 2.38206e-20)
(0.363548 0.0718108 2.53594e-20)
(0.571384 0.132855 1.10254e-19)
(0.754508 0.1945 1.81642e-19)
(0.909977 0.250977 5.74242e-20)
(1.03553 0.297381 -4.08477e-20)
(1.13059 0.33037 1.67609e-20)
(1.19672 0.348692 -2.12608e-20)
(1.23759 0.353064 5.97507e-20)
(1.2583 0.345724 7.89112e-20)
(1.26443 0.329729 4.63799e-20)
(1.26114 0.308258 5.03061e-20)
(1.25254 0.284023 -1.26474e-20)
(1.24138 0.258931 -3.14202e-21)
(1.22893 0.235197 -1.8345e-20)
(0.138003 0.0283408 -8.7691e-20)
(0.375172 0.0876509 1.78283e-19)
(0.585797 0.15562 1.68543e-20)
(0.768742 0.221608 -1.74957e-19)
(0.921624 0.279909 -7.45205e-20)
(1.04292 0.325909 6.64267e-20)
(1.13288 0.356776 1.29045e-20)
(1.19392 0.371895 -1.72245e-20)
(1.23037 0.372632 -4.59657e-20)
(1.24773 0.361757 -4.74375e-20)
(1.25173 0.342677 -5.07007e-20)
(1.24744 0.318719 1.2667e-20)
(1.2387 0.292577 -9.74601e-21)
(1.22799 0.266063 5.57079e-21)
(1.21622 0.241411 2.19582e-20)
(0.142716 0.0348744 -1.04998e-19)
(0.385195 0.104145 -1.09491e-19)
(0.597755 0.178977 -8.43024e-20)
(0.779854 0.249012 1.13614e-19)
(0.929725 0.308718 1.94733e-19)
(1.04661 0.353886 -1.58126e-19)
(1.13162 0.382279 5.81017e-21)
(1.18791 0.393976 -1.14752e-20)
(1.22044 0.391 1.33367e-20)
(1.23501 0.376631 -1.89376e-20)
(1.23741 0.354576 -6.55557e-20)
(1.23255 0.328269 -1.81987e-20)
(1.22401 0.30035 -2.20347e-20)
(1.214 0.272534 -4.8981e-21)
(1.20305 0.247037 -2.76217e-20)
(0.146784 0.0417002 -8.26554e-21)
(0.393489 0.121134 7.78997e-20)
(0.607126 0.202691 -1.6473e-19)
(0.787751 0.276437 -2.33661e-19)
(0.934255 0.337124 -1.99827e-19)
(1.04667 0.381052 1.78976e-21)
(1.12691 0.406667 1.2273e-19)
(1.17888 0.414777 6.16637e-20)
(1.208 0.408062 -1.68796e-20)
(1.22033 0.390275 4.42348e-20)
(1.22162 0.365381 2.12566e-20)
(1.21659 0.336872 1.99425e-20)
(1.20856 0.307309 -4.04457e-20)
(1.19946 0.278314 1.21865e-21)
(1.1895 0.252039 4.71845e-22)
(0.150148 0.0487509 1.29158e-19)
(0.399949 0.138445 -1.37747e-19)
(0.613807 0.226518 -1.54e-19)
(0.792374 0.303602 2.05129e-19)
(0.935226 0.364846 5.22243e-20)
(1.04318 0.407158 -1.08689e-19)
(1.11892 0.429738 -1.42164e-19)
(1.167 0.434151 -8.37317e-21)
(1.19324 0.423718 1.4945e-19)
(1.20386 0.402626 -7.14615e-20)
(1.20451 0.375048 -4.2104e-20)
(1.19968 0.344496 8.00363e-22)
(1.19242 0.313427 1.41598e-20)
(1.18441 0.283366 6.35117e-21)
(1.17559 0.256392 2.508e-20)
(0.15276 0.0559525 1.9159e-19)
(0.404487 0.155892 6.09037e-20)
(0.617725 0.250207 1.52343e-19)
(0.793704 0.330226 -2.91883e-20)
(0.932685 0.391608 5.87917e-20)
(1.03625 0.431965 8.60792e-20)
(1.10781 0.451303 -4.6491e-20)
(1.15247 0.451962 6.57557e-20)
(1.17637 0.437876 -8.67925e-20)
(1.18578 0.413624 6.79361e-20)
(1.18622 0.383536 -2.51942e-20)
(1.18191 0.351108 -1.02887e-19)
(1.17567 0.318675 7.62868e-20)
(1.16892 0.287661 -3.01408e-21)
(1.16136 0.260065 -8.42357e-21)
(0.154581 0.0632258 -2.98839e-19)
(0.40704 0.173284 -1.47007e-19)
(0.618842 0.273497 2.6302e-19)
(0.791752 0.356026 1.18755e-19)
(0.926713 0.417142 -2.021e-19)
(1.02603 0.455243 -1.11375e-19)
(1.09377 0.471188 1.34937e-19)
(1.13549 0.468085 -1.70487e-19)
(1.15757 0.450455 -8.73718e-20)
(1.16625 0.423213 7.99485e-20)
(1.16687 0.390805 6.6787e-20)
(1.16339 0.356673 -1.62053e-20)
(1.15837 0.32302 -3.24308e-20)
(1.15304 0.291169 -1.79133e-21)
(1.14686 0.263027 5.61626e-21)
(0.155578 0.0704872 1.47337e-19)
(0.407568 0.190421 1.72682e-20)
(0.617149 0.296129 -2.1006e-19)
(0.786567 0.380725 -2.54552e-19)
(0.91742 0.441189 1.06752e-19)
(1.01269 0.476779 3.32874e-19)
(1.07699 0.48923 -8.82571e-20)
(1.11627 0.482409 1.13224e-19)
(1.13703 0.461378 5.08103e-20)
(1.14544 0.431343 5.06621e-20)
(1.1466 0.396816 -1.56243e-20)
(1.14421 0.361161 1.48494e-20)
(1.14059 0.326434 6.1395e-21)
(1.13679 0.293859 1.24912e-20)
(1.13211 0.265247 -4.24606e-20)
(0.155731 0.0776498 8.36337e-20)
(0.406055 0.207104 7.52078e-20)
(0.61267 0.317844 1.4829e-19)
(0.778232 0.404054 1.4245e-19)
(0.904951 0.463506 1.68214e-19)
(0.996406 0.496372 -1.76918e-19)
(1.05768 0.505281 1.33414e-19)
(1.09502 0.49483 5.75723e-22)
(1.11495 0.470578 -6.98813e-20)
(1.1235 0.437967 -9.00294e-20)
(1.12553 0.401535 -1.64232e-20)
(1.12445 0.364539 1.02843e-20)
(1.12239 0.328886 6.6634e-21)
(1.12024 0.295703 2.0002e-20)
(1.11716 0.266697 4.20221e-20)
(0.155031 0.0846249 -1.37679e-19)
(0.40251 0.223128 1.37152e-20)
(0.60546 0.338388 3.0925e-20)
(0.766862 0.425752 7.41417e-20)
(0.889477 0.483862 -1.11939e-19)
(0.977386 0.513837 9.18727e-20)
(1.03607 0.519208 2.46251e-20)
(1.07195 0.505259 -8.8781e-22)
(1.09151 0.477995 3.11616e-20)
(1.1006 0.443044 1.50996e-20)
(1.10378 0.404928 -8.41235e-21)
(1.10421 0.36678 1.9506e-20)
(1.10384 0.330351 1.79061e-20)
(1.10342 0.296673 -4.26049e-20)
(1.10204 0.267346 -5.56661e-20)
(0.153478 0.0913238 -2.41838e-21)
(0.396966 0.238295 9.38102e-20)
(0.595606 0.357514 -1.46363e-19)
(0.7526 0.445572 -1.77474e-19)
(0.871182 0.502045 -1.27278e-19)
(0.955852 0.529013 -1.56374e-19)
(1.01239 0.530889 -5.9938e-20)
(1.04727 0.513615 -9.56836e-21)
(1.0669 0.483578 2.01995e-20)
(1.07687 0.446537 -2.9714e-21)
(1.08146 0.406968 -3.6469e-20)
(1.08358 0.367859 -4.02384e-20)
(1.085 0.330807 -3.68148e-20)
(1.08637 0.296747 1.09448e-20)
(1.08679 0.267166 3.05514e-20)
(0.151086 0.0976585 6.76753e-20)
(0.38948 0.252411 -1.01758e-19)
(0.583223 0.374986 1.66264e-19)
(0.735614 0.463286 1.80433e-20)
(0.850277 0.517853 7.384e-20)
(0.932048 0.541748 7.42652e-20)
(0.986868 0.540225 4.63631e-20)
(1.02121 0.519832 -1.44478e-20)
(1.0413 0.48728 -6.00681e-21)
(1.05247 0.448414 6.02265e-20)
(1.0587 0.407628 -2.11466e-21)
(1.06265 0.367754 3.07013e-20)
(1.06593 0.330235 1.8427e-20)
(1.06913 0.295903 -1.31243e-20)
(1.07143 0.266126 -4.16897e-20)
(0.147873 0.103541 -6.55185e-20)
(0.380134 0.26529 1.37871e-20)
(0.568452 0.390585 -1.18391e-19)
(0.716101 0.47868 -7.41824e-20)
(0.827003 0.531113 -3.56555e-20)
(0.906216 0.55191 6.99651e-21)
(0.959743 0.547125 -2.56407e-20)
(0.993965 0.523853 -8.84143e-21)
(1.0149 0.489066 -3.95676e-20)
(1.02755 0.448648 -3.07798e-20)
(1.03562 0.406888 3.04056e-21)
(1.04151 0.366447 3.84819e-20)
(1.0467 0.328622 -3.94874e-20)
(1.05174 0.294127 9.34e-20)
(1.056 0.264191 1.75622e-19)
(0.143872 0.108884 -4.02744e-20)
(0.369034 0.276755 3.37562e-20)
(0.551461 0.404104 3.94922e-20)
(0.69428 0.491565 6.65435e-20)
(0.801608 0.541671 2.94574e-20)
(0.878611 0.559388 -7.89965e-21)
(0.931257 0.551518 4.42333e-21)
(0.965761 0.525631 -1.18734e-20)
(0.98786 0.488906 9.06894e-20)
(1.00225 0.44722 -6.98482e-20)
(1.01232 0.40473 2.01543e-19)
(1.02026 0.363924 -3.53881e-20)
(1.02739 0.32596 9.93822e-20)
(1.03423 0.291407 -1.13654e-19)
(1.04049 0.261325 1.03425e-20)
(0.139131 0.113608 -1.56505e-20)
(0.356304 0.28664 -3.01015e-20)
(0.532441 0.415359 2.26626e-20)
(0.670391 0.501769 -2.75251e-20)
(0.774355 0.549392 -1.83187e-21)
(0.849496 0.56409 3.38407e-20)
(0.901655 0.553346 -6.29853e-20)
(0.936805 0.525135 1.14388e-19)
(0.960369 0.486781 -8.83385e-20)
(0.976709 0.444115 5.40037e-20)
(0.988928 0.401142 -2.11818e-19)
(0.998995 0.360178 -7.99664e-20)
(1.00808 0.322246 -2.07873e-19)
(1.01664 0.287734 -1.68433e-19)
(1.02498 0.25749 -7.02741e-20)
(0.133706 0.117643 2.75424e-21)
(0.342083 0.294795 5.97996e-22)
(0.511602 0.424183 4.76195e-21)
(0.64469 0.509146 4.21586e-20)
(0.745517 0.554167 -1.47264e-20)
(0.819141 0.565943 -3.05275e-20)
(0.87118 0.552567 4.62547e-20)