/*--------------------------------*- C++ -*----------------------------------*\
  =========                 |
  \\      /  F ield         | OpenFOAM: The Open Source CFD Toolbox
   \\    /   O peration     | Website:  https://openfoam.org
    \\  /    A nd           | Version:  7
     \\/     M anipulation  |
\*---------------------------------------------------------------------------*/
FoamFile
{
    version     2.0;
    format      ascii;
    class       surfaceScalarField;
    location    "40";
    object      phi;
}
// * * * * * * * * * * * * * * * * * * * * * * * * * * * * * * * * * * * * * //

dimensions      [0 3 -1 0 0 0 0];

internalField   nonuniform List<scalar> 
3855
(
-2.28875e-06
2.29237e-06
-3.61247e-09
-8.42145e-06
6.14195e-06
-9.2463e-09
-1.79723e-05
9.5646e-06
-1.37374e-08
-3.05578e-05
1.26027e-05
-1.718e-08
-4.58349e-05
1.52968e-05
-1.96936e-08
-6.35028e-05
1.76893e-05
-2.1415e-08
-8.33024e-05
1.98222e-05
-2.24851e-08
-0.000105017
2.17372e-05
-2.3035e-08
-0.000128468
2.34742e-05
-0.000153514
2.50698e-05
-0.000180047
2.65548e-05
-0.000207978
2.79528e-05
-0.000237237
2.92789e-05
-0.000267757
3.05383e-05
-0.000299468
3.17272e-05
-0.00033229
3.2834e-05
-0.000366124
3.38425e-05
-0.000400862
3.47391e-05
-0.00043639
3.55227e-05
-0.000472627
3.62211e-05
-0.000509566
3.69117e-05
-0.000547356
3.7747e-05
-0.000586376
3.89594e-05
-0.000627263
4.08045e-05
4.37504e-05
-0.000671122
-2.26965e-06
4.56201e-06
-8.3542e-06
1.22265e-05
-1.78326e-05
1.9043e-05
-3.03242e-05
2.50943e-05
-4.54877e-05
3.04603e-05
-6.30226e-05
3.52241e-05
-8.26692e-05
3.94688e-05
-0.000104209
4.32767e-05
-0.000127461
4.67269e-05
-0.000152283
4.98914e-05
-0.00017856
5.28317e-05
-0.000206201
5.55944e-05
-0.000235132
5.82091e-05
-0.00026528
6.06864e-05
-0.000296571
6.30181e-05
-0.000328917
6.51801e-05
-0.000362213
6.71389e-05
-0.000396338
6.88641e-05
-0.000431165
7.03491e-05
-0.000466586
7.16422e-05
-0.000502563
7.2889e-05
-0.000539202
7.43858e-05
-0.00057684
7.65975e-05
-0.000616081
8.00455e-05
8.56758e-05
-0.000658006
-2.23184e-06
6.79385e-06
-8.22102e-06
1.82157e-05
-1.75556e-05
2.83775e-05
-2.98609e-05
3.73996e-05
-4.47987e-05
4.53981e-05
-6.20692e-05
5.24946e-05
-8.14113e-05
5.8811e-05
-0.000102603
6.44686e-05
-0.00012546
6.9584e-05
-0.000149833
7.42638e-05
-0.0001756
7.85985e-05
-0.000202662
8.26571e-05
-0.000230936
8.64829e-05
-0.000260341
9.00909e-05
-0.00029079
9.34675e-05
-0.000322184
9.65743e-05
-0.000354403
9.93573e-05
-0.000387302
0.000101764
-0.000420724
0.000103771
-0.000454516
0.000105435
-0.000488575
0.000106948
-0.000522922
0.000108732
-0.000557807
0.000111482
-0.000593765
0.000116004
0.000123731
-0.00063182
-2.1761e-06
8.96995e-06
-8.02446e-06
2.4064e-05
-1.71464e-05
3.74995e-05
-2.91758e-05
4.9429e-05
-4.37786e-05
6.0001e-05
-6.06561e-05
6.9372e-05
-7.9545e-05
7.76999e-05
-0.000100219
8.51423e-05
-0.000122486
9.18511e-05
-0.000146187
9.79652e-05
-0.000171191
0.000103603
-0.000197388
0.000108854
-0.000224678
0.000113773
-0.000252968
0.00011838
-0.000282153
0.000122653
-0.000312117
0.000126538
-0.000342715
0.000129955
-0.000373773
0.000132821
-0.000405088
0.000135086
-0.000436441
0.000136788
-0.000467636
0.000138143
-0.000498567
0.000139663
-0.000529348
0.000142263
-0.000560407
0.000147063
0.000155976
-0.000592652
-2.10359e-06
1.10735e-05
-7.76829e-06
2.97287e-05
-1.66123e-05
4.63435e-05
-2.828e-05
6.10968e-05
-4.24431e-05
7.4164e-05
-5.88032e-05
8.57322e-05
-7.70945e-05
9.59912e-05
-9.70837e-05
0.000105131
-0.00011857
0.000113337
-0.000141382
0.000120777
-0.000165374
0.000127595
-0.000190419
0.000133899
-0.0002164
0.000139755
-0.000243203
0.000145182
-0.000270702
0.000150152
-0.000298753
0.00015459
-0.000327184
0.000158385
-0.000355778
0.000161416
-0.000384279
0.000163587
-0.000412386
0.000164895
-0.000439782
0.000165539
-0.000466195
0.000166076
-0.000491551
0.000167619
-0.000516127
0.000171639
0.000180455
-0.000540606
-2.0158e-06
1.30893e-05
-7.45738e-06
3.51703e-05
-1.59627e-05
5.48488e-05
-2.71885e-05
7.23226e-05
-4.08124e-05
8.77878e-05
-5.65368e-05
0.000101457
-7.40915e-05
0.000113546
-9.32351e-05
0.000124275
-0.000113755
0.000133857
-0.000135464
0.000142487
-0.000158198
0.000150329
-0.00018181
0.00015751
-0.000206158
0.000164103
-0.000231101
0.000170126
-0.000256488
0.000175539
-0.000282141
0.000180243
-0.000307848
0.000184093
-0.000333349
0.000186917
-0.00035832
0.000188557
-0.000382368
0.000188942
-0.000405036
0.000188207
-0.000425851
0.000186892
-0.000444492
0.00018626
-0.00046104
0.000188187
0.000195187
-0.000475772
-1.91452e-06
1.50039e-05
-7.09765e-06
4.03534e-05
-1.52091e-05
6.29603e-05
-2.59191e-05
8.30325e-05
-3.89113e-05
0.00010078
-5.38883e-05
0.000116434
-7.05745e-05
0.000130232
-8.87181e-05
0.000142419
-0.000108092
0.00015323
-0.00012849
0.000162885
-0.000149726
0.000171565
-0.000171625
0.000179409
-0.000194018
0.000186496
-0.000216732
0.000192839
-0.000239577
0.000198384
-0.000262338
0.000203004
-0.000284757
0.000206512
-0.000306518
0.000208678
-0.000327225
0.000209265
-0.000346384
0.000208101
-0.000363388
0.000205211
-0.000377537
0.000201041
-0.000388197
0.000196921
-0.000395218
0.000195207
0.000198155
-0.000398186
-1.80182e-06
1.68057e-05
-6.69589e-06
4.52475e-05
-1.43649e-05
7.06293e-05
-2.44925e-05
9.31602e-05
-3.67686e-05
0.000113056
-5.08947e-05
0.00013056
-6.65881e-05
0.000145926
-8.35849e-05
0.000159415
-0.00010164
0.000171285
-0.000120525
0.00018177
-0.000140028
0.000191068
-0.000159941
0.000199323
-0.000180061
0.000206615
-0.000200172
0.000212951
-0.000220044
0.000218255
-0.000239411
0.000222371
-0.000257961
0.000225062
-0.000275313
0.000226031
-0.000290994
0.000224946
-0.000304402
0.000221509
-0.000314777
0.000215586
-0.000321178
0.000207442
-0.000322598
0.000198341
-0.000318636
0.000191246
0.000187316
-0.000307797
-1.67999e-06
1.84857e-05
-6.25964e-06
4.98272e-05
-1.34446e-05
7.78142e-05
-2.29319e-05
0.000102647
-3.44161e-05
0.00012454
-4.75967e-05
0.00014374
-6.21823e-05
0.000160511
-7.7894e-05
0.000175127
-9.44662e-05
0.000187858
-0.000111645
0.000198949
-0.000129185
0.000208608
-0.000146844
0.000216981
-0.000164373
0.000224145
-0.000181511
0.000230089
-0.000197972
0.000234716
-0.000213432
0.00023783
-0.000227512
0.000239142
-0.000239758
0.000238277
-0.000249607
0.000234795
-0.000256349
0.00022825
-0.000259068
0.000218306
-0.000256592
0.000204965
-0.000247475
0.000189224
-0.000231116
0.000174887
0.00016067
-0.00020447
-1.5515e-06
2.00372e-05
-5.79701e-06
5.40727e-05
-1.24642e-05
8.44814e-05
-2.12619e-05
0.000111445
-3.18883e-05
0.000135167
-4.40388e-05
0.000155891
-5.7411e-05
0.000173883
-7.17087e-05
0.000189425
-8.66426e-05
0.000202791
-0.000101929
0.000214235
-0.000117285
0.000223964
-0.000132424
0.000232121
-0.000147049
0.00023877
-0.000160841
0.000243881
-0.000173448
0.000247323
-0.000184475
0.000248857
-0.000193461
0.000248129
-0.000199864
0.00024468
-0.000203022
0.000237953
-0.000202104
0.000227333
-0.000196047
0.000212248
-0.000183464
0.000192383
-0.000162375
0.000168134
-0.000132126
0.000144638
0.000116946
-8.84025e-05
-1.4189e-06
2.14561e-05
-5.31645e-06
5.79702e-05
-1.14401e-05
9.0605e-05
-1.95085e-05
0.000119514
-2.92212e-05
0.00014488
-4.02671e-05
0.000166937
-5.23307e-05
0.000185947
-6.50954e-05
0.00020219
-7.82445e-05
0.00021594
-9.14594e-05
0.00022745
-0.000104416
0.00023692
-0.000116777
0.000244482
-0.000128186
0.000250179
-0.000138256
0.000253951
-0.000146558
0.000255626
-0.000152609
0.000254907
-0.00015585
0.00025137
-0.00015563
0.00024446
-0.000151167
0.00023349
-0.000141502
0.000217667
-0.000125411
0.000196158
-0.000101365
0.000168336
-6.67545e-05
0.000133524
-1.89435e-05
9.68274e-05
5.70347e-05
4.09682e-05
-1.2848e-06
2.27409e-05
-4.82656e-06
6.1512e-05
-1.03893e-05
9.61677e-05
-1.76982e-05
0.000126823
-2.64516e-05
0.000153633
-3.63291e-05
0.000176814
-4.69991e-05
0.000196617
-5.81213e-05
0.000213312
-6.9348e-05
0.000227167
-8.03212e-05
0.000238423
-9.06684e-05
0.000247267
-9.99951e-05
0.000253809
-0.000107876
0.00025806
-0.000113845
0.00025992
-0.000117379
0.000259161
-0.000117891
0.000255418
-0.000114702
0.000248182
-0.000107027
0.000236784
-9.39383e-05
0.000220401
-7.43226e-05
0.000198051
-4.67808e-05
0.000168616
-9.61212e-06
0.000131168
3.98237e-05
8.40877e-05
0.000103894
3.27575e-05
-2.80677e-05
0.000188996
-1.15179e-06
2.38927e-05
-4.33585e-06
6.4696e-05
-9.32827e-06
0.00010116
-1.58572e-05
0.000133351
-2.36157e-05
0.000161391
-3.22714e-05
0.00018547
-4.14727e-05
0.000205818
-5.08523e-05
0.000222691
-6.0027e-05
0.000236342
-6.85944e-05
0.000246991
-7.61269e-05
0.0002548
-8.2164e-05
0.000259846
-8.62016e-05
0.000262097
-8.76797e-05
0.000261398
-8.59685e-05
0.000257449
-8.03516e-05
0.000249801
-7.00073e-05
0.000237837
-5.39859e-05
0.000220763
-3.11804e-05
0.000197596
-2.89511e-07
0.00016716
4.02912e-05
0.000128035
9.23288e-05
7.91302e-05
0.000159286
1.71306e-05
0.000242122
-5.0079e-05
-0.000138478
0.000352533
-1.02234e-06
2.4915e-05
-3.85245e-06
6.75262e-05
-8.27305e-06
0.000105581
-1.40103e-05
0.000139089
-2.07482e-05
0.000168129
-2.8138e-05
0.00019286
-3.58048e-05
0.000213485
-4.335e-05
0.000230237
-5.03498e-05
0.000243342
-5.63514e-05
0.000252992
-6.08651e-05
0.000259314
-6.33547e-05
0.000262335
-6.32255e-05
0.000261968
-5.98096e-05
0.000257982
-5.23494e-05
0.000249989
-3.99793e-05
0.000237431
-2.17046e-05
0.000219563
3.6224e-06
0.000195436
3.73303e-05
0.000163888
8.09527e-05
0.000123538
0.000136359
7.26284e-05
0.000205396
1.00933e-05
0.000292104
-6.95769e-05
0.00039657
-0.000154545
-0.00027642
0.000534512
-8.98765e-07
2.58138e-05
-3.38391e-06
7.00113e-05
-7.23827e-06
0.000109435
-1.21806e-05
0.000144031
-1.78807e-05
0.000173829
-2.39692e-05
0.000198948
-3.00434e-05
0.000219559
-3.56684e-05
0.000235862
-4.03747e-05
0.000248048
-4.36518e-05
0.000256269
-4.49395e-05
0.000260601
-4.36155e-05
0.000261011
-3.89809e-05
0.000257334
-3.0243e-05
0.000249244
-1.64961e-05
0.000236242
3.30026e-06
0.000217635
3.03446e-05
0.000192518
6.60188e-05
0.000159762
0.000111917
0.00011799
0.000169848
6.56063e-05
0.000242023
4.53392e-07
0.000330356
-7.824e-05
0.000439553
-0.000178773
0.000568428
-0.00028342
-0.000444585
0.000736593
-7.83102e-07
2.65969e-05
-2.93685e-06
7.2165e-05
-6.23677e-06
0.000112735
-1.03878e-05
0.000148182
-1.50401e-05
0.000178482
-1.97987e-05
0.000203707
-2.42278e-05
0.000223988
-2.78507e-05
0.000239484
-3.01453e-05
0.000250343
-3.0536e-05
0.00025666
-2.83821e-05
0.000258447
-2.29626e-05
0.000255592
-1.34591e-05
0.00024783
1.06464e-06
0.00023472
2.16857e-05
0.000215621
4.96465e-05
0.000189674
8.63814e-05
0.000155783
0.000133543
0.0001126
0.000193033
5.85009e-05
0.000266978
-8.33854e-06
0.000357976
-9.05448e-05
0.000468059
-0.000188323
0.000602583
-0.000313298
0.000758855
-0.000439693
-0.00064568
0.00095995
-6.77075e-07
2.7274e-05
-2.51677e-06
7.40047e-05
-5.279e-06
0.000115497
-8.64782e-06
0.000151551
-1.22478e-05
0.000182082
-1.56522e-05
0.000207111
-1.83863e-05
0.000226722
-1.99251e-05
0.000241023
-1.96862e-05
0.000250104
-1.70195e-05
0.000253994
-1.11919e-05
0.00025262
-1.36957e-06
0.00024577
1.3403e-05
0.000233057
3.42272e-05
0.000213896
6.23765e-05
0.000187472
9.93248e-05
0.000152726
0.000146774
0.000108334
0.000206682
5.26922e-05
0.000281289
-1.61058e-05
0.000373065
-0.000100115
0.00048501
-0.00020249
0.000619342
-0.000322654
0.000781893
-0.000475849
0.000968507
-0.000626306
-0.000882009
0.00120484
-5.81993e-07
2.78559e-05
-2.1277e-06
7.55505e-05
-4.37241e-06
0.000117742
-6.97169e-06
0.00015415
-9.51748e-06
0.000184628
-1.15449e-05
0.000209139
-1.25332e-05
0.000227711
-1.19013e-05
0.000240391
-8.99755e-06
0.0002472
-3.08586e-06
0.000248082
6.67283e-06
0.000242861
2.12421e-05
0.0002312
4.17349e-05
0.000212565
6.94417e-05
0.000186189
0.00010586
0.000151054
0.000152724
0.000105862
0.000212034
4.90238e-05
0.000286077
-2.13504e-05
0.00037745
-0.000107479
0.000488973
-0.000211638
0.000623967
-0.000337484
0.000784947
-0.000483635
0.000977784
-0.000668686
0.00119722
-0.000845744
-0.00115483
0.00147005
-4.98687e-07
2.83546e-05
-1.77201e-06
7.68238e-05
-3.52097e-06
0.000119491
-5.36441e-06
0.000155994
-6.85404e-06
0.000186117
-7.47926e-06
0.000209764
-6.66553e-06
0.000226897
-3.76638e-06
0.000237492
1.95009e-06
0.000241484
1.13193e-05
0.000238713
2.53025e-05
0.000228878
4.50126e-05
0.00021149
7.17433e-05
0.000185834
0.000107
0.000150932
0.000152532
0.000105522
0.000210362
4.80314e-05
0.000282812
-2.34262e-05
0.00037251
-0.000111047
0.000482396
-0.000217365
0.000615618
-0.000344861
0.000775622
-0.000497488
0.000965326
-0.000673338
0.00118992
-0.00089328
0.00144368
-0.0010995
-0.00146356
0.00175241
-4.27442e-07
2.87821e-05
-1.45012e-06
7.78465e-05
-2.72466e-06
0.000120765
-3.82429e-06
0.000157093
-4.25224e-06
0.000186545
-3.44375e-06
0.000208955
-7.61037e-07
0.000224214
4.51843e-06
0.000232213
1.322e-05
0.000232782
2.62941e-05
0.000225638
4.48431e-05
0.000210329
7.01517e-05
0.000186182
0.000103719
0.000152266
0.000147294
0.000107358
0.000202903
4.99125e-05
0.000272881
-2.1946e-05
0.000359877
-0.000110423
0.00046685
-0.00021802
0.000597025
-0.00034754
0.000753809
-0.000501645
0.000940468
-0.000684147
0.00116031
-0.000893185
0.00141697
-0.00114994
0.00170501
-0.00138753
-0.00180499
0.00204644
-3.67945e-07
2.915e-05
-1.16039e-06
7.86389e-05
-1.97904e-06
0.000121584
-2.34221e-06
0.000157456
-1.69554e-06
0.000185898
5.89482e-07
0.00020667
5.2244e-06
0.000219579
1.3021e-05
0.000224416
2.49131e-05
0.00022089
4.19845e-05
0.000208567
6.55005e-05
0.000186813
9.69418e-05
0.00015474
0.00013804
0.000111168
0.000190812
5.45861e-05
0.000257585
-1.68601e-05
0.00034101
-0.000105371
0.000444055
-0.000213468
0.000569954
-0.000343919
0.000722101
-0.000499686
0.000904007
-0.000683552
0.0011184
-0.000898536
0.00136873
-0.00114352
0.0016562
-0.00143741
0.00197639
-0.00170773
-0.00217285
0.00234425
-3.1924e-07
2.94693e-05
-8.98905e-07
7.92186e-05
-1.275e-06
0.00012196
-9.01069e-07
0.000157082
8.44676e-07
0.000184153
4.66508e-06
0.00020285
1.13585e-05
0.000212886
2.18402e-05
0.000213934
3.71703e-05
0.00020556
5.85869e-05
0.00018715
8.75417e-05
0.000157858
0.000125738
0.000116545
0.000175164
6.17417e-05
0.000238126
-8.37564e-06
0.000317258
-9.59929e-05
0.000415519
-0.000203632
0.000536139
-0.000334088
0.000682525
-0.000490305
0.000858043
-0.000675204
0.00106604
-0.00089155
0.00130834
-0.00114083
0.00158798
-0.00142316
0.00190306
-0.00175249
0.00225087
-0.00205554
-0.00255796
0.00263598
-2.79706e-07
2.9749e-05
-6.59422e-07
7.95983e-05
-5.98587e-07
0.000121899
5.24458e-07
0.000155959
3.40937e-06
0.000181268
8.84603e-06
0.000197413
1.77332e-05
0.000203999
3.11066e-05
0.000200561
5.01729e-05
0.000186493
7.63471e-05
0.000160976
0.000111292
0.000122913
0.000156958
7.08788e-05
0.000215612
3.08782e-06
0.000289857
-8.26207e-05
0.000382625
-0.000188761
0.000497129
-0.000318136
0.000636761
-0.000473721
0.000804923
-0.000658467
0.00100468
-0.000874966
0.00123881
-0.00112568
0.00150792
-0.00140994
0.00181381
-0.00172905
0.0021512
-0.00208988
0.00251949
-0.00242384
-0.00294916
0.00291069
-2.4707e-07
2.9996e-05
-4.33397e-07
7.97846e-05
6.97724e-08
0.000121396
1.9677e-06
0.000154061
6.05227e-06
0.000177183
1.32126e-05
0.000190253
2.44641e-05
0.000192747
4.09818e-05
0.000184043
6.41405e-05
0.000163335
9.5556e-05
0.000129561
0.000137127
8.13417e-05
0.000191071
1.69353e-05
0.000259943
-6.57841e-05
0.000346634
-0.000169312
0.000454329
-0.000296456
0.000586402
-0.000450208
0.000746235
-0.000633554
0.000936963
-0.000849195
0.00116102
-0.00109902
0.00142005
-0.00138471
0.00171326
-0.00170315
0.00204028
-0.00205606
0.00239271
-0.00244231
0.0027721
-0.00280323
-0.00333466
0.00315761
-2.18388e-07
3.02144e-05
-2.10254e-07
7.97765e-05
7.51204e-07
0.000120435
3.46997e-06
0.000151343
8.83875e-06
0.000171814
1.7862e-05
0.00018123
3.16891e-05
0.00017892
5.16553e-05
0.000164077
7.93258e-05
0.000135664
0.000116541
9.23455e-05
0.000165456
3.24267e-05
0.000228566
-4.61749e-05
0.00030871
-0.000145928
0.000409028
-0.000269631
0.00053287
-0.000420297
0.000683613
-0.000600951
0.000864387
-0.000814328
0.00107772
-0.00106253
0.00132501
-0.00134632
0.00160623
-0.00166593
0.00191901
-0.00201593
0.00226012
-0.00239717
0.00261891
-0.0028011
0.0029986
-0.00318292
-0.00370367
0.00336761
-1.90118e-07
3.04045e-05
2.515e-08
7.95612e-05
1.47564e-06
0.000118984
5.0797e-06
0.000147739
1.18448e-05
0.000165049
2.29058e-05
0.000170169
3.95652e-05
0.000162261
6.33393e-05
0.000140303
9.60068e-05
0.000102997
0.000139653
4.86995e-05
0.000196701
-2.4622e-05
0.000269925
-0.000119398
0.000362411
-0.000238414
0.000477475
-0.000384695
0.000618489
-0.000561312
0.00078861
-0.000771071
0.000990401
-0.00101612
0.00122537
-0.0012975
0.00149349
-0.00161443
0.00179261
-0.00196505
0.00211869
-0.00234201
0.00246542
-0.0027439
0.00282136
-0.00315704
0.0031904
-0.00355195
-0.00404757
0.0035343
-1.58782e-07
3.05633e-05
2.80221e-07
7.91222e-05
2.27257e-06
0.000116992
6.85103e-06
0.00014316
1.5155e-05
0.000156745
2.84675e-05
0.000156856
4.82636e-05
0.000142465
7.6262e-05
0.000112304
0.000114475
6.47841e-05
0.000165246
-2.0719e-06
0.00023127
-9.06464e-05
0.000315572
-0.000203699
0.000421423
-0.000344265
0.00055219
-0.000515462
0.000711064
-0.000720185
0.00090069
-0.000960698
0.0011227
-0.00123813
0.00137717
-0.00155197
0.00166226
-0.00189952
0.00197356
-0.00227635
0.00230534
-0.0026738
0.00264865
-0.00308721
0.00299303
-0.00350142
0.00334164
-0.00390056
-0.00436063
0.00365469
-1.19596e-07
3.06829e-05
5.77739e-07
7.84249e-05
3.17641e-06
0.000114393
8.84248e-06
0.000137494
1.88603e-05
0.000146728
3.46783e-05
0.000141038
5.79637e-05
0.000119179
9.0657e-05
7.96111e-05
0.000135019
2.04222e-05
0.000193658
-6.07106e-05
0.000269521
-0.000166509
0.00036583
-0.000300009
0.000485939
-0.000464375
0.000633082
-0.000662605
0.000810008
-0.000897111
0.00101851
-0.0011692
0.00125889
-0.00147851
0.00152947
-0.00182255
0.00182635
-0.00219641
0.00214303
-0.00259302
0.0024723
-0.00300307
0.00280365
-0.00341855
0.00312917
-0.00382694
0.00344971
-0.00422111
-0.00464006
0.00372915
-6.84266e-08
3.07513e-05
9.31751e-07
7.74247e-05
4.22235e-06
0.000111103
1.11151e-05
0.000130601
2.30548e-05
0.000134788
4.16725e-05
0.00012242
6.88459e-05
9.20059e-05
0.000106753
4.1704e-05
0.000157911
-3.07355e-05
0.000225181
-0.00012798
0.000311722
-0.000253051
0.000420869
-0.000409155
0.000555896
-0.000599402
0.000719676
-0.000826384
0.000914202
-0.00109164
0.00114005
-0.00139505
0.00139587
-0.00173433
0.00167798
-0.00210466
0.00198049
-0.00249891
0.00229525
-0.00290779
0.00261411
-0.00332193
0.00292649
-0.00373094
0.00322773
-0.00412818
0.0035152
-0.00450858
-0.00488608
0.00376121
3.27619e-09
3.07481e-05
1.35932e-06
7.60686e-05
5.44603e-06
0.000107016
1.37305e-05
0.000122317
2.78323e-05
0.000120686
4.95818e-05
0.000100671
8.10826e-05
6.05051e-05
0.00012476
-1.97336e-06
0.000183383
-8.93582e-05
0.000260036
-0.000204634
0.000358021
-0.000351036
0.000480651
-0.000531785
0.000630923
-0.000749674
0.000811061
-0.00100652
0.00102197
-0.00130255
0.00126268
-0.00163576
0.00152995
-0.00200159
0.00181813
-0.00239284
0.00211961
-0.00280039
0.00242542
-0.0032136
0.00272712
-0.00362362
0.00301581
-0.00401963
0.0032893
-0.00440166
0.00354103
-0.00476031
-0.00510394
0.0037589
9.16831e-08
3.06564e-05
1.87608e-06
7.42842e-05
6.88246e-06
0.00010201
1.67484e-05
0.000112451
3.32828e-05
0.000104152
5.853e-05
7.54236e-05
9.48302e-05
2.42049e-05
0.000144857
-5.19998e-05
0.00021161
-0.000156112
0.000298346
-0.00029137
0.000408401
-0.000461091
0.000544894
-0.000668278
0.000710295
-0.000915075
0.000905875
-0.0012021
0.00113113
-0.0015278
0.00138329
-0.00188793
0.0016572
-0.0022755
0.00194549
-0.00268114
0.00223947
-0.00309437
0.00253018
-0.0035043
0.00280985
-0.0039033
0.00307241
-0.00428218
0.00331688
-0.00464614
0.00353675
-0.00498018
-0.00531524
0.00374805
2.08394e-07
3.0448e-05
2.49839e-06
7.19943e-05
8.56474e-06
9.59432e-05
2.02248e-05
0.000100791
3.9489e-05
8.48877e-05
6.86267e-05
4.62859e-05
0.000110219
-1.73875e-05
0.000167176
-0.000108957
0.000242692
-0.000231628
0.000340108
-0.000388786
0.000462653
-0.000583635
0.000613039
-0.000818664
0.000792926
-0.00109496
0.00100233
-0.0014115
0.00123907
-0.00176454
0.00149852
-0.00214738
0.00177375
-0.00255073
0.00205625
-0.00296364
0.00233702
-0.00337514
0.00260797
-0.00377525
0.00286291
-0.00415824
0.00309871
-0.00451799
0.00331467
-0.0048621
0.00351215
-0.00517766
-0.00550232
0.00369922
3.55168e-07
3.00928e-05
3.24052e-06
6.91089e-05
1.0523e-05
8.86607e-05
2.42096e-05
8.71042e-05
4.65225e-05
6.25748e-05
7.99623e-05
1.28461e-05
0.000127346
-6.47717e-05
0.000191795
-0.000173406
0.000276634
-0.000316466
0.000385174
-0.000497327
0.000520356
-0.000718818
0.000684237
-0.000982544
0.000877381
-0.00128811
0.00109828
-0.0016324
0.00134295
-0.00200921
0.00160501
-0.00240944
0.00187622
-0.00282194
0.00214759
-0.00323501
0.00241069
-0.00363824
0.00265898
-0.00402354
0.00288843
-0.00438769
0.00309835
-0.00472791
0.0032897
-0.00505344
0.00346646
-0.00535442
-0.0056688
0.00363294
5.35558e-07
2.95573e-05
4.11509e-06
6.55294e-05
1.27836e-05
7.99922e-05
2.87454e-05
7.11424e-05
5.44412e-05
3.6879e-05
9.26025e-05
-2.53152e-05
0.000146267
-0.000118436
0.000218721
-0.00024586
0.000313331
-0.000411076
0.000433234
-0.000617229
0.000580866
-0.000866449
0.000757363
-0.00115904
0.000961932
-0.00149268
0.00119136
-0.00186183
0.00143992
-0.00225777
0.00169977
-0.00266929
0.00196199
-0.00308416
0.00221789
-0.00349091
0.00246035
-0.0038807
0.00268484
-0.00424804
0.00288961
-0.00459246
0.00307598
-0.00491427
0.00324634
-0.0052238
0.00340557
-0.00551365
-0.0058209
0.00355767
7.52617e-07
2.88046e-05
5.1328e-06
6.11492e-05
1.53679e-05
6.97571e-05
3.38653e-05
5.2645e-05
6.32863e-05
7.45799e-06
0.000106585
-6.86137e-05
0.000166989
-0.00017884
0.000247885
-0.000326756
0.000352565
-0.000515757
0.000483811
-0.000748475
0.00064332
-0.00102596
0.00083105
-0.00134677
0.00104464
-0.00170627
0.00127916
-0.00209634
0.00152732
-0.00250593
0.00178037
-0.00292235
0.00202941
-0.0033332
0.00226678
-0.00372827
0.00248716
-0.00410108
0.0026882
-0.00444908
0.0028702
-0.00477446
0.00303599
-0.00508006
0.00318885
-0.00537666
0.00333399
-0.00565879
-0.00596143
0.00347452
1.00884e-06
2.77958e-05
6.30221e-06
5.58558e-05
1.82926e-05
5.77666e-05
3.95927e-05
3.1345e-05
7.30806e-05
-2.60299e-05
0.000121914
-0.000117447
0.000189466
-0.000246392
0.000279135
-0.000416425
0.000393993
-0.000630615
0.000536264
-0.000890745
0.000706662
-0.00119636
0.000903749
-0.00154386
0.0011235
-0.00192602
0.00135936
-0.0023322
0.00160292
-0.00274949
0.00184516
-0.00316458
0.00207786
-0.00356591
0.00229495
-0.00394537
0.00249317
-0.0042993
0.0026722
-0.00462811
0.00283399
-0.00493625
0.00298232
-0.00522839
0.00312085
-0.00551519
0.00325459
-0.00579254
-0.00609268
1.30616e-06
2.64897e-05
7.62965e-06
4.95323e-05
2.15687e-05
4.38275e-05
4.59397e-05
6.97406e-06
8.38268e-05
-6.39171e-05
0.000138561
-0.000172182
0.000213597
-0.000321428
0.000312232
-0.00051506
0.00043715
-0.000755533
0.000589797
-0.00104339
0.00076968
-0.00137624
0.00097381
-0.00174799
0.00119653
-0.00214874
0.00142996
-0.00256563
0.00166511
-0.00298464
0.00189332
-0.00339279
0.00210767
-0.00378027
0.00230399
-0.00414168
0.00248102
-0.00447633
0.00264016
-0.00478725
0.00278451
-0.0050806
0.00291828
-0.00536216
0.00304514
-0.00564204
0.00316961
-0.00591701
-0.0062163
1.64601e-06
2.48437e-05
9.11924e-06
4.20591e-05
2.52017e-05
2.77451e-05
5.2907e-05
-2.07312e-05
9.55064e-05
-0.000106517
0.000156461
-0.000233136
0.000239221
-0.000404188
0.000346851
-0.000622689
0.000481457
-0.000890139
0.000643487
-0.00120542
0.000831061
-0.00156381
0.00103958
-0.00195651
0.00126194
-0.0023711
0.00148938
-0.00279307
0.00171291
-0.00320817
0.00192484
-0.00360472
0.00211995
-0.00397537
0.00229598
-0.00431772
0.00245351
-0.00463385
0.00259519
-0.00492893
0.00272478
-0.00521019
0.00284655
-0.00548393
0.00296384
-0.00575933
0.00308058
-0.00603375
2.02933e-06
2.28143e-05
1.07729e-05
3.33155e-05
2.91914e-05
9.32662e-06
6.04836e-05
-5.20234e-05
0.000108079
-0.000154112
0.000175509
-0.000300566
0.00026612
-0.000494799
0.000382583
-0.000739153
0.000526231
-0.00103379
0.000696318
-0.00137551
0.000889456
-0.00175695
0.00109952
-0.00216658
0.00131826
-0.00258984
0.00153657
-0.00301138
0.00174605
-0.00341765
0.00194042
-0.00379909
0.00211631
-0.00415126
0.00227331
-0.00447472
0.0024134
-0.00477394
0.00254007
-0.0050556
0.00265732
-0.00532744
0.00276914
-0.00559575
0.00287846
-0.00586865
-0.00614386
2.45665e-06
2.03577e-05
1.25905e-05
2.31817e-05
3.35319e-05
-1.16147e-05
6.86462e-05
-8.71377e-05
0.000121481
-0.000206947
0.000195565
-0.00037465
0.000294015
-0.000593249
0.000418944
-0.000864082
0.000570712
-0.00118556
0.000747224
-0.00155202
0.000943563
-0.00195329
0.00115228
-0.00237529
0.00136441
-0.00280197
0.00157103
-0.00321801
0.00176485
-0.00361147
0.00194127
-0.0039755
0.00209872
-0.00430872
0.00223837
-0.00461437
0.00236321
-0.00489877
0.00247713
-0.00516953
0.00258407
-0.00543438
0.00268759
-0.00569927
0.0027901
-0.00597116
2.92807e-06
1.74296e-05
1.45697e-05
1.154e-05
3.82116e-05
-3.52566e-05
7.73593e-05
-0.000126286
0.000135627
-0.000265215
0.000216449
-0.000455471
0.000322577
-0.000699378
0.000455385
-0.00099689
0.000614085
-0.00134426
0.00079514
-0.00173307
0.000992192
-0.00215034
0.00119678
-0.00257987
0.00139971
-0.0030049
0.00159278
-0.00341108
0.00177013
-0.00378881
0.00192891
-0.00413428
0.00206922
-0.00444903
0.00219341
-0.00473856
0.0023051
-0.00501046
0.00240828
-0.0052727
0.00250655
-0.00553265
0.00260297
-0.00579569
-0.00606767
3.44332e-06
1.39863e-05
1.67061e-05
-1.7228e-06
4.32128e-05
-6.17633e-05
8.65747e-05
-0.000169647
0.000150408
-0.000329049
0.000237947
-0.000543009
0.000351426
-0.000812857
0.000491305
-0.00113677
0.000655514
-0.00150846
0.000839058
-0.00191662
0.00103434
-0.00234562
0.00123227
-0.00277781
0.00142396
-0.00319659
0.00160229
-0.00358942
0.00176304
-0.00394956
0.00190505
-0.00427629
0.00202979
-0.00457378
0.00214045
-0.00484922
0.00224091
-0.00511092
0.00233497
-0.00536677
0.00242585
-0.00562353
0.00251606
-0.0058859
-0.00615871
4.00168e-06
9.98459e-06
1.89931e-05
-1.67142e-05
4.8512e-05
-9.12822e-05
9.62311e-05
-0.000217366
0.000165692
-0.00039851
0.000259808
-0.000637125
0.00038014
-0.000933189
0.000526078
-0.00128271
0.000694181
-0.00167657
0.000878082
-0.00210052
0.00106923
-0.00253677
0.00125836
-0.00296695
0.00143731
-0.00337554
0.00160037
-0.00375247
0.00174495
-0.00409414
0.00187142
-0.00440276
0.00198228
-0.00468464
0.0020812
-0.00494814
0.00217207
-0.00520178
0.00225836
-0.00545306
0.00234279
-0.00570796
0.0024274
-0.00597051
-0.00624464
4.602e-06
5.3826e-06
2.14215e-05
-3.35337e-05
5.40787e-05
-0.000123939
0.000106254
-0.000269542
0.000181325
-0.000473581
0.000281753
-0.000737552
0.000408271
-0.00105971
0.00055907
-0.00143351
0.000729322
-0.00184682
0.000911462
-0.00228266
0.00109634
-0.00272165
0.00127498
-0.00314558
0.00144027
-0.00354083
0.00158805
-0.00390025
0.00171731
-0.0042234
0.00182965
-0.00451509
0.00192829
-0.00478328
0.00201709
-0.00503694
0.00209973
-0.00528442
0.00217926
-0.0055326
0.00225795
-0.00578664
0.00233737
-0.00604993
5.24255e-06
1.40044e-07
2.39797e-05
-5.22709e-05
5.98762e-05
-0.000159836
0.000116556
-0.000326222
0.000197132
-0.000554157
0.000303477
-0.000843898
0.000435354
-0.00119158
0.000589666
-0.00158782
0.000760266
-0.00201742
0.000938637
-0.00246103
0.00111544
-0.00289845
0.00128234
-0.00331249
0.00143357
-0.00369205
0.00156651
-0.0040332
0.00168155
-0.00433845
0.00178124
-0.00461478
0.0018692
-0.00487125
0.00194926
-0.005117
0.00202476
-0.00535993
0.00209831
-0.00560614
0.00217172
-0.00586005
-0.00612444
5.92097e-06
-5.78093e-06
2.66533e-05
-7.30032e-05
6.58604e-05
-0.000199043
0.000127037
-0.000387398
0.00021292
-0.00064004
0.000324659
-0.000955637
0.000460923
-0.00132785
0.000617301
-0.0017442
0.000786457
-0.00218658
0.000959243
-0.00263382
0.00112651
-0.00306571
0.00128091
-0.00346689
0.0014181
-0.00382924
0.00153696
-0.00415206
0.00163903
-0.00444051
0.00172749
-0.00470324
0.00180615
-0.00494991
0.00187861
-0.00518946
0.00194783
-0.00542914
0.00201595
-0.00567427
0.00208441
-0.00592852
-0.0061942
6.63431e-06
-1.24152e-05
2.94247e-05
-9.57936e-05
7.19805e-05
-0.000241599
0.000137584
-0.000453002
0.000228482
-0.000730938
0.000344969
-0.00107212
0.00048453
-0.00146741
0.000641474
-0.00190114
0.000807482
-0.00235258
0.000973116
-0.00279945
0.00112977
-0.00322236
0.00127131
-0.00360843
0.00139485
-0.00395279
0.00150059
-0.0042578
0.00159095
-0.00453088
0.00166952
-0.00478181
0.00174006
-0.00502044
0.00180584
-0.00525525
0.00186941
-0.00549271
0.0019325
-0.00573736
0.00199623
-0.00599225
-0.00625929
7.37868e-06
-1.97939e-05
3.22734e-05
-0.000120688
7.81792e-05
-0.000287505
0.000148076
-0.000522898
0.0002436
-0.000826463
0.000364078
-0.0011926
0.000505763
-0.00160909
0.000661775
-0.00205715
0.000823075
-0.00251388
0.00098028
-0.00295666
0.00112562
-0.00336771
0.0012543
-0.00373711
0.00136483
-0.00406331
0.00145851
-0.00435147
0.00153841
-0.00461077
0.00160826
-0.00485166
0.00167165
-0.00508383
0.00173149
-0.00531508
0.00178987
-0.00555109
0.0018482
-0.00579569
0.00190734
-0.00605138
8.14943e-06
-2.79433e-05
3.51759e-05
-0.000147715
8.43927e-05
-0.000336721
0.000158381
-0.000596886
0.000258053
-0.000926135
0.000381672
-0.00131622
0.000524257
-0.00175168
0.000677896
-0.00221079
0.000833119
-0.00266911
0.000980921
-0.00310446
0.00111459
-0.00350138
0.0012307
-0.00385322
0.00132901
-0.00416163
0.00141172
-0.00443419
0.0014823
-0.00468135
0.00154447
-0.00491383
0.00160151
-0.00514087
0.00165594
-0.00536951
0.00170948
-0.00560463
0.00176324
-0.00584944
-0.006106
8.94106e-06
-3.68844e-05
3.81057e-05
-0.00017688
9.0552e-05
-0.000389168
0.000168363
-0.000674697
0.000271621
-0.00102939
0.000397457
-0.00144206
0.000539712
-0.00189393
0.000689637
-0.00236072
0.000837636
-0.00281711
0.000975357
-0.00324218
0.00109729
-0.00362331
0.00120132
-0.00395725
0.00128831
-0.00424863
0.00136113
-0.004507
0.00142342
-0.00474364
0.00147875
-0.00496917
0.00153008
-0.00519219
0.00157951
-0.00541894
0.00162845
-0.00565357
0.00167774
-0.00589873
-0.00615613
9.74721e-06
-4.66316e-05
4.10336e-05
-0.000208166
9.65841e-05
-0.000444718
0.000177885
-0.000755998
0.000284091
-0.0011356
0.000411176