/*--------------------------------*- C++ -*----------------------------------*\
  =========                 |
  \\      /  F ield         | OpenFOAM: The Open Source CFD Toolbox
   \\    /   O peration     | Website:  https://openfoam.org
    \\  /    A nd           | Version:  7
     \\/     M anipulation  |
\*---------------------------------------------------------------------------*/
FoamFile
{
    version     2.0;
    format      ascii;
    class       volScalarField;
    location    "150";
    object      p;
}
// * * * * * * * * * * * * * * * * * * * * * * * * * * * * * * * * * * * * * //

dimensions      [0 2 -2 0 0 0 0];

internalField   nonuniform List<scalar> 
1987
(
0.0194275
0.014814
0.00871554
0.000553615
-0.0103887
-0.0246369
-0.0419439
-0.0607614
-0.0782754
-0.0911182
-0.0964112
-0.0926476
-0.0810681
-0.0645758
-0.0465313
-0.0295366
-0.0149033
0.0218963
0.0174528
0.0116303
0.00390407
-0.00638404
-0.0197326
-0.0359441
-0.0536176
-0.0701455
-0.0823769
-0.087613
-0.0844702
-0.0738995
-0.0585654
-0.0416331
-0.0255829
-0.0116887
-0.000258381
0.00895194
0.0162387
0.0218702
0.0260069
0.0289336
0.0308911
0.0321065
0.0325157
0.0318301
0.0294952
0.0246659
0.0165513
0.00410098
-0.0127083
-0.0335212
-0.0552131
-0.0741723
-0.0848958
-0.0848834
-0.0741402
-0.0561546
-0.0361015
-0.0163092
-0.00040881
0.0138565
0.0233916
0.0324593
0.0373825
0.0425257
0.0441515
0.0441497
0.0404413
0.0312103
0.0192809
0.00118941
-0.013211
-0.0227748
-0.0189615
0.0242527
0.0200026
0.0144838
0.00722725
-0.00236663
-0.0147696
-0.0298274
-0.0462671
-0.061697
-0.0732488
-0.0784284
-0.0759026
-0.0663866
-0.0522839
-0.0365417
-0.0215071
-0.00841103
0.00242094
0.0111936
0.0181714
0.0235973
0.0276034
0.030438
0.0323156
0.0334584
0.0338276
0.0331573
0.0309262
0.0263092
0.0185408
0.00657563
-0.0096113
-0.0297108
-0.0507088
-0.06911
-0.0795928
-0.0796924
-0.0694396
-0.0521804
-0.0328985
-0.013808
0.00158304
0.0154217
0.0247273
0.0335386
0.0383799
0.0433327
0.0450015
0.0449763
0.0414575
0.0324129
0.0206363
0.00273905
-0.0118142
-0.0216064
-0.0182397
0.0264848
0.022445
0.0172503
0.0104879
0.00161826
-0.00980024
-0.0236478
-0.03878
-0.0530481
-0.0638776
-0.0689742
-0.0670513
-0.058616
-0.0457959
-0.0313036
-0.0173424
-0.00509408
0.00509938
0.013402
0.0200444
0.025244
0.0291049
0.0318387
0.0336319
0.0346986
0.0350219
0.0343634
0.0322399
0.0278531
0.0204704
0.00905846
-0.00640851
-0.0256671
-0.0458356
-0.0635632
-0.0737433
-0.0739628
-0.0642668
-0.0478509
-0.0294623
-0.0111851
0.00361603
0.0169655
0.0260069
0.0345269
0.0392735
0.0440075
0.0457145
0.0456641
0.0423537
0.0335569
0.0219948
0.00440502
-0.0102248
-0.0201941
-0.0173415
0.0285882
0.0247735
0.01992
0.0136708
0.00554533
-0.0048661
-0.0174749
-0.0312659
-0.0443335
-0.0543944
-0.0593748
-0.0580353
-0.0506865
-0.0391757
-0.0259722
-0.0131263
-0.00176408
0.00775864
0.0155644
0.0218487
0.026803
0.0305057
0.0331312
0.0348367
0.0358246
0.0360979
0.035447
0.0334325
0.0292903
0.0223278
0.0115317
-0.0031236
-0.0214204
-0.0406319
-0.0575741
-0.0673858
-0.0677331
-0.0586576
-0.0431969
-0.0258171
-0.00845845
0.00567644
0.0184767
0.027221
0.0354174
0.0400578
0.0445472
0.0462846
0.046207
0.0431182
0.0346305
0.0233449
0.00617862
-0.00844403
-0.0185349
-0.016264
0.0305594
0.0269819
0.0224827
0.0167577
0.00938162
-2.41172e-05
-0.0113959
-0.0238364
-0.0356761
-0.0449347
-0.0497715
-0.0489871
-0.0427069
-0.0325053
-0.020606
-0.00889944
0.0015509
0.0103796
0.0176679
0.0235755
0.0282681
0.0318004
0.0343114
0.0359274
0.0368352
0.0370552
0.0364071
0.0345004
0.030613
0.0240986
0.0139732
0.000211055
-0.0170142
-0.0351494
-0.0511975
-0.0605756
-0.0610572
-0.0526638
-0.038262
-0.0219951
-0.00565036
0.00774869
0.0199437
0.0283607
0.0362041
0.0407275
0.0449508
0.0467067
0.0466004
0.0437394
0.0356203
0.0246719
0.00804585
-0.00647962
-0.0166336
-0.0150099
0.0323967
0.0290646
0.0249262
0.0197253
0.0130862
0.00466196
-0.00549609
-0.016595
-0.0272017
-0.0356462
-0.0403167
-0.0400459
-0.034791
-0.02587
-0.0152661
-0.00470444
0.00482172
0.0129426
0.0196997
0.0252168
0.0296339
0.0329851
0.0353758
0.0369019
0.0377301
0.0378945
0.0372439
0.0354411
0.0318134
0.0257666
0.0163556
0.00355496
-0.0125018
-0.0294521
-0.0445062
-0.0533885
-0.0538871
-0.0463537
-0.033102
-0.0180368
-0.00278747
0.00981551
0.0213546
0.0294169
0.0368814
0.0412781
0.0452189
0.0469773
0.046841
0.0442063
0.0365113
0.0259586
0.00998708
-0.00434591
-0.0145032
-0.0135885
0.0341006
0.0310181
0.0272396
0.0225504
0.0166187
0.00913358
0.000147564
-0.00964229
-0.0190401
-0.0266804
-0.0311635
-0.0313498
-0.0270515
-0.0193556
-0.0100145
-0.000584493
0.00801903
0.0154284
0.0216477
0.0267654
0.0308962
0.0340568
0.0363222
0.0377588
0.0385095
0.0386176
0.0379597
0.0362544
0.0328856
0.0273159
0.0186499
0.00686341
-0.00794449
-0.0236177
-0.0375928
-0.045931
-0.0465763
-0.0398214
-0.0277849
-0.0139902
9.96288e-05
0.0118583
0.0226981
0.0303815
0.037445
0.0417054
0.0453538
0.0470947
0.046928
0.0445095
0.0372877
0.0271851
0.0119768
-0.00206515
-0.0121671
-0.0120161
0.0356734
0.0328411
0.0294139
0.0252118
0.0199434
0.0133395
0.00546507
-0.00307384
-0.0113156
-0.0181803
-0.0224561
-0.023028
-0.0195939
-0.0130439
-0.00491153
0.00341814
0.0111142
0.0178181
0.0235004
0.0282151
0.0320523
0.0350141
0.0371496
0.0384976
0.0391742
0.0392276
0.0385585
0.0369426
0.0338262
0.0287324
0.0208274
0.0100896
-0.00341095
-0.0177373
-0.0305669
-0.0383199
-0.0391132
-0.0331663
-0.022389
-0.00990979
0.00297716
0.0138574
0.0239635
0.0312473
0.0378917
0.042006
0.0453591
0.0470593
0.0468626
0.0446415
0.0379329
0.0283293
0.0139832
0.000331865
-0.00965906
-0.0103169
0.0371159
0.0345314
0.03144
0.0276902
0.0230292
0.0172367
0.0103982
0.00302863
-0.00413676
-0.0102719
-0.0143197
-0.0151909
-0.0125104
-0.00700853
-1.3014e-05
0.0072637
0.0140805
0.0200945
0.0252475
0.0295609
0.0331007
0.0358574
0.0378586
0.0391187
0.0397259
0.0397273
0.0390458
0.0375102
0.0346345
0.0300051
0.0228614
0.013186
0.00102487
-0.011912
-0.0235528
-0.0306895
-0.0316199
-0.0264969
-0.0169996
-0.00585448
0.00580928
0.0157928
0.0251412
0.0320085
0.0382197
0.0421776
0.0452395
0.046873
0.046648
0.0445977
0.0384304
0.0293671
0.0159688
0.00280529
-0.00702423
-0.0085229
0.0384238
0.0360827
0.0333058
0.0299663
0.0258516
0.0207963
0.0149071
0.00860291
0.0024091
-0.00305416
-0.00684746
-0.00792137
-0.00587421
-0.00131222
0.00463152
0.0109164
0.0168938
0.0222421
0.02688
0.0307991
0.0340414
0.0365886
0.0384513
0.0396243
0.0401672
0.0401181
0.0394283
0.037964
0.0353132
0.0311269
0.0247287
0.0161064
0.00528711
-0.00624914
-0.0166837
-0.0231846
-0.0242361
-0.0199313
-0.0117066
-0.0018852
0.00855961
0.0176449
0.0262233
0.0326607
0.0384291
0.0422185
0.0450004
0.0465402
0.0462891
0.0443771
0.0387644
0.0302733
0.0178905
0.00530619
-0.00431851
-0.0066737
0.0395862
0.0374817
0.0349953
0.0320235
0.0283971
0.0240075
0.0189723
0.0136087
0.00826394
0.00341206
-9.22083e-05
-0.00126814
0.000263215
0.00399545
0.00898061
0.0143455
0.0195336
0.0242484
0.0283911
0.031927
0.0348757
0.0372115
0.0389321
0.0400176
0.0405019
0.0404135
0.0397139
0.0383125
0.035868
0.0320954
0.0264117
0.0188097
0.00930216
-0.000856508
-0.010095
-0.0159522
-0.0171051
-0.0135905
-0.00659928
0.00193838
0.0111931
0.019395
0.0272035
0.0332017
0.038522
0.0421289
0.0446471
0.0460669
0.0457924
0.0439824
0.0389214
0.0310228
0.0197009
0.00777693
-0.0016081
-0.00481579
0.0405881
0.0387104
0.0364915
0.0338511
0.0306653
0.0268748
0.0225904
0.018029
0.0134083
0.00911625
0.00593881
0.00475099
0.00587068
0.00887819
0.0130018
0.0175266
0.0219835
0.0261034
0.0297756
0.0329438
0.0356063
0.0377311
0.0393068
0.0403039
0.0407345
0.0406143
0.0399099
0.0385654
0.036308
0.0329143
0.0279
0.0212621
0.0130033
0.00416476
-0.00391548
-0.00913426
-0.0103647
-0.00758885
-0.00176119
0.00556149
0.0136778
0.0210266
0.0280777
0.033631
0.0385027
0.0419107
0.0441849
0.0454614
0.0451654
0.0434209
0.0388912
0.0315922
0.0213504
0.010152
0.00103217
-0.00300104
0.0414167
0.0397535
0.037782
0.035446
0.0326629
0.0294072
0.0257657
0.0218704
0.0178648
0.0140974
0.0112777
0.010141
0.0109323
0.0133122
0.0166723
0.020442
0.024232
0.0278008
0.0310309
0.0338497
0.0362366
0.0381537
0.0395834
0.0404906
0.0408708
0.040726
0.0400234
0.0387328
0.0366448
0.033593
0.0291915
0.0234399
0.0163356
0.00872856
0.00174321
-0.00285532
-0.00413488
-0.00202576
0.00273609
0.00893785
0.0159875
0.022526
0.0288437
0.03395
0.0383778
0.0415687
0.0436191
0.0447337
0.0444163
0.0427048
0.0386692
0.0319623
0.0227892
0.0123598
0.00352167
-0.00128452
0.0420684
0.0406056
0.0388645
0.036811
0.0343959
0.0316098
0.0285073
0.0251643
0.0216933
0.0184245
0.0159735
0.0149209
0.0154451
0.0172853
0.0199792
0.0230815
0.0262726
0.0293376
0.0321569
0.0346468
0.0367712
0.0384866
0.0397708
0.0405866
0.040918
0.0407553
0.040061
0.0388246
0.0368915
0.0341448
0.0302911
0.0253302
0.0192615
0.0127726
0.0067977
0.00278882
0.00149165
0.00302245
0.00683825
0.0120328
0.0181027
0.0238832
0.0295014
0.0341621
0.0381556
0.0411102
0.0429551
0.0438955
0.0435546
0.0418507
0.0382575
0.0321203
0.023971
0.0143273
0.00577846
0.000278416
0.0425508
0.0412733
0.0397463
0.0379537
0.0358689
0.0334869
0.0308353
0.0279616
0.0249723
0.0221743
0.0200741
0.0191107
0.0194137
0.0207964
0.0229196
0.0254423
0.0281037
0.0307141
0.0331556
0.0353386
0.0372153
0.0387373
0.0398786
0.0406018
0.0408848
0.0407108
0.0400297
0.0388499
0.0370605
0.0345845
0.0312085
0.0269323
0.0217656
0.0162664
0.0112023
0.00774089
0.00645724
0.00750877
0.0105124
0.0148257
0.0200119
0.0250922
0.0300527
0.0342722
0.0378463
0.0405459
0.0421994
0.0429593
0.0425908
0.0408795
0.0376664
0.0320614
0.0248568
0.0159849
0.00772563
0.00163653
0.0428791
0.0417716
0.0404419
0.0388859
0.0370913
0.0350536
0.0327854
0.0303224
0.0277734
0.0254068
0.0236154
0.0227299
0.0228519
0.0238559
0.0255007
0.0275289
0.0297288
0.0319339
0.0340314
0.0359304
0.0375752
0.0389138
0.0399167
0.0405471
0.0407809
0.0406029
0.039936
0.038816
0.0371619
0.0349249
0.031957
0.0282591
0.0238596
0.0192174
0.0149551
0.011988
0.0107459
0.0114188
0.0137491
0.01731
0.021712
0.0261512
0.0305009
0.0342869
0.0374608
0.0398894
0.0413596
0.0419298
0.0415369
0.0398141
0.0369129
0.0317897
0.0254195
0.0172752
0.00930017
0.00274879
0.0430713
0.0421186
0.0409684
0.0396239
0.0380812
0.0363372
0.0343995
0.0323006
0.0301461
0.0281563
0.0266261
0.0258076
0.0257868
0.0264862
0.027739
0.0293524
0.0311553
0.0330031
0.0347904
0.0364284
0.0378577
0.039024
0.0398947
0.0404338
0.0406168
0.040444
0.0397848
0.0387291
0.0372028
0.0351767
0.0325531
0.0293378
0.0255822
0.0216697
0.0180955
0.0155613
0.0143816
0.0147633
0.0165619
0.0194929
0.023207
0.0270627
0.0308506
0.0342142
0.0370101
0.039157
0.0404471
0.0408076
0.0404074
0.0386773
0.036019
0.0313175
0.0256471
0.0181609
0.010463
0.00359098
0.0431455
0.0423323
0.0413437
0.0401864
0.0388616
0.0373692
0.0357165
0.0339363
0.0321224
0.0304498
0.0291409
0.028385
0.0282577
0.0287199
0.0296583
0.0309289
0.0323943
0.0339301
0.03544
0.0368401
0.0380705
0.0390761
0.0398223
0.0402726
0.0403991
0.0401474
0.0395804
0.0385955
0.0371894
0.03535
0.0330177
0.0302077
0.0269917
0.0236924
0.0206944
0.018528
0.0174228
0.0175792
0.0189826
0.0213912
0.0245063
0.0278324
0.0311078
0.0340633
0.0365052
0.0383663
0.0394795
0.0396726
0.0392211
0.0374891
0.0350075
0.030663
0.025546
0.0186338
0.011208
0.00416028
0.043119
0.0424303
0.0415855
0.0405924
0.0394556
0.0381784
0.0367696
0.0352623
0.0337351
0.0323263
0.0312053
0.0305119
0.030313
0.0305967
0.0312876
0.0322784
0.0334592
0.0347248
0.0359888
0.0371738
0.0382215
0.0390784
0.0397085
0.0400756
0.0401529
0.0399035
0.0393457
0.038424
0.0371291
0.035457
0.0333762
0.0309133
0.0281518
0.0253622
0.0228367
0.020976
0.0199544
0.0199827
0.0210544
0.0230277
0.0256233
0.028469
0.0312791
0.0338444
0.0359561
0.0375348
0.0384715
0.0385154
0.0379938
0.0362649
0.0339003
0.0298491
0.0251433
0.0187201
0.0115652
0.00447692
0.0430084
0.0424295
0.0417111
0.0408613
0.0398864
0.0387926
0.0375915
0.0363145
0.0350272
0.0338382
0.0328755
0.0322449
0.0320054
0.0321594
0.0326583
0.0334226
0.0343653
0.0353984
0.0364459
0.0374378
0.0383192
0.039039
0.0395619
0.0398521
0.0398846
0.0396299
0.0390871
0.0382239
0.037032
0.0355121
0.0336537
0.0314936
0.029117
0.026748
0.0246042
0.0229959
0.0220606
0.0220057
0.0228181
0.0244269
0.0265723
0.0289828
0.031372
0.0335683
0.0353728
0.0366786
0.0374379
0.0373437
0.0367406
0.0350162
0.0327181
0.0289029
0.0244857
0.0184768
0.0115952
0.00458083
0.0428296
0.042347
0.041739
0.0410139
0.0401787
0.0392417
0.038217
0.0371339
0.036047
0.0350413
0.0342136
0.033646
0.0333885
0.0334506
0.0338017
0.0343838
0.0351283
0.0359625
0.0368208
0.0376406
0.0383716
0.0389663
0.0393905
0.0396098
0.0396011
0.0393382
0.0388133
0.038005
0.0369089
0.0355295
0.0338709
0.0319768
0.0299262
0.0279028
0.0260674
0.0246687
0.0238175
0.0237058
0.0243121
0.0256125
0.0273681
0.0293855
0.0313949
0.0332461
0.0347647
0.0358125
0.0363934
0.0361703
0.0354764
0.0337531
0.0314831
0.0278565
0.0236353
0.0179815
0.0113773
0.00452389
0.0425982
0.0421995
0.041688
0.0410714
0.0403572
0.0395553
0.0386811
0.0377615
0.0368425
0.0359908
0.0352792
0.034772
0.0345116
0.0345098
0.0347479
0.0351838
0.0357641
0.0364292
0.037123
0.0377906
0.0383867
0.0388679
0.0392018
0.0393563
0.0393099
0.0390384
0.0385323
0.0377764
0.03677
0.0355207
0.0340421
0.0323806
0.0306051
0.028866
0.0272821
0.0260595
0.0252851
0.0251327
0.0255714
0.026607
0.0280254
0.0296895
0.0313569
0.0328887
0.034141
0.0349488
0.0353519
0.0350077
0.0342166
0.0324877
0.0302198
0.0267456
0.0226599
0.0173165
0.0109934
0.00436009
0.0423286
0.0420032
0.0415761
0.0410544
0.0404459
0.0397612
0.0390158
0.0382349
0.0374573
0.036735
0.036123
0.0356722
0.035418
0.0353725
0.0355245
0.0358436
0.0362882
0.0368101
0.0373618
0.0378958
0.0383719
0.0387508
0.0390029
0.0390986
0.0390179
0.0387384
0.0382516
0.0375458
0.0366233
0.035494
0.0341762
0.0327164
0.0311723
0.0296675
0.0282913
0.0272169
0.0265093
0.0263259
0.0266257
0.027432
0.0285588
0.0299075
0.0312676
0.0325067
0.033511
0.0340979
0.0343261
0.0338673
0.0329764
0.0312346
0.0289546
0.0256061
0.0216235
0.0165557
0.0105147
0.00413678
0.0420342
0.0417729
0.0414197
0.0409812
0.0404654
0.0398829
0.0392487
0.0385861
0.0379269
0.0373122
0.0367868
0.0363888
0.0361457
0.0360701
0.0361564
0.0363823
0.0367153
0.0371166
0.0375464
0.0379639
0.038334
0.0386216
0.0388003
0.0388429
0.038731
0.0384451
0.0379775
0.0373193
0.0364746
0.0354546
0.0342792
0.0329928
0.0316426
0.0303321
0.0291281
0.0281774
0.0275272
0.0273165
0.0274989
0.0281071
0.0289829
0.030052
0.031137
0.0321103
0.0328838
0.0332684
0.0333276
0.0327599
0.0317705
0.0300098
0.0277126
0.0244702
0.0205778
0.0157565
0.0099948
0.00388963
0.0417265
0.0415214
0.0412332
0.040868
0.0404335
0.0399401
0.0394023
0.0388405
0.0382809
0.0377576
0.0373057
0.0369542
0.0367247
0.0366297
0.0366661
0.0368176
0.0370591
0.0373593
0.037685
0.0380018
0.0382791
0.0384861
0.0385994
0.0385943
0.038455
0.0381642
0.0377153
0.0371016
0.036328
0.0354063
0.0343558
0.0332175
0.0320299
0.0308804
0.0298187
0.0289706
0.0283688
0.0281314
0.0282139
0.028652
0.0293122
0.0301353
0.0309747
0.0317085
0.0322683
0.0324682
0.0323669
0.0316959
0.0306125
0.0288291
0.0265155
0.0233642
0.01956
0.0149589
0.00946959
0.00364188
0.0414932
0.0414159
0.04126
0.0410289
0.0407282
0.0403649
0.0399492
0.0394944
0.0390185
0.0385439
0.0380977
0.0377073
0.0373961
0.0371818
0.0370745
0.0370729
0.0371654
0.0373322
0.037548
0.0377856
0.0380159
0.0382127
0.0383492
0.0384047
0.0383578
0.0381946
0.0379001
0.037469
0.0368961
0.0361865
0.0353521
0.0344099
0.0333979
0.0323462
0.0313298
0.0303857
0.0296214
0.0290584
0.0287964
0.0287945
0.0290861
0.029561
0.030169
0.0307902
0.0313096
0.0316729
0.031705
0.0314535
0.030685
0.0295142
0.0277067
0.0253802
0.0223082
0.018594
0.0141898
0.00896133
0.00340663
0.0411528
0.0411111
0.0409982
0.0408172
0.0405728
0.0402718
0.0399236
0.0395402
0.0391375
0.0387347
0.0383533
0.0380149
0.0377391
0.0375394
0.0374245
0.0373942
0.0374397
0.0375457
0.0376917
0.0378553
0.038012
0.0381395
0.0382149
0.0382202
0.0381369
0.0379532
0.0376563
0.0372415
0.0367054
0.0360526
0.0352946
0.0344459
0.0335406
0.0326024
0.0316959
0.0308487
0.0301516
0.0296188
0.0293348
0.0292616
0.0294273
0.0297427
0.0301639
0.0305921
0.0309212
0.0311058
0.0309861
0.030596
0.0297364
0.028486
0.0266548
0.02432
0.0213175
0.0176948
0.0134664
0.00848316
0.00319012
0.0408302
0.0408195
0.0407441
0.0406065
0.0404111
0.0401642
0.0398743
0.039552
0.0392114
0.0388686
0.0385416
0.0382479
0.0380028
0.0378163
0.0376968
0.0376446
0.0376531
0.0377099
0.0377986
0.0379005
0.0379952
0.0380638
0.0380869
0.0380492
0.0379347
0.0377335
0.0374349
0.0370349
0.0365316
0.0359284
0.0352365
0.0344676
0.0336519
0.0328083
0.0319921
0.0312241
0.0305808
0.0300717
0.0297667
0.0296326
0.0296908
0.0298698
0.0301296
0.0303888
0.0305504
0.0305743
0.0303184
0.0298027
0.0288588
0.0275373
0.0256836
0.023345
0.0204037
0.0168716
0.0128004
0.00804303
0.00299487
0.0405315
0.0405475
0.0405043
0.0404042
0.0402511
0.0400506
0.0398103
0.0395399
0.0392515
0.0389588
0.0386773
0.0384213
0.038203
0.0380278
0.0379056
0.0378369
0.0378162
0.0378337
0.0378757
0.0379268
0.0379699
0.0379892
0.0379682
0.0378941
0.0377533
0.0375374
0.0372377
0.036851
0.0363761
0.0358157
0.0351801
0.0344785
0.0337377
0.0329722
0.0322295
0.0315258
0.0309252
0.0304339
0.0301096
0.0299241
0.0298909
0.0299535
0.0300753
0.0301879
0.0302037
0.0300854
0.0297087
0.0290809
0.0280607
0.0266764
0.0248022
0.0224635
0.0195763
0.016131
0.0121997
0.00764622
0.00282179
0.0402618
0.0403005
0.0402848
0.0402166
0.0400993
0.0399379
0.0397394
0.0395123
0.0392673
0.0390163
0.0387722
0.0385474
0.038352
0.0381862
0.0380627
0.0379816
0.0379385
0.0379248
0.0379293
0.0379392
0.0379401
0.0379187
0.0378612
0.0377567
0.0375941
0.0373661
0.037066
0.0366908
0.0362401
0.0357159
0.0351274
0.034482
0.0338027
0.0331011
0.0324177
0.0317655
0.031198
0.0307199
0.0303786
0.0301508
0.0300393
0.0300036
0.0300091
0.0299965
0.0298874
0.0296457
0.0291636
0.0284379
0.0273497
0.0259113
0.024019
0.0216827
0.018843
0.015478
0.0116698
0.00729656
0.00267125
0.0400258
0.0400835
0.0400906
0.0400489
0.0399613
0.0398324
0.0396682
0.0394765
0.0392666
0.0390489
0.0388351
0.0386363
0.0384631
0.038302
0.0381776
0.0380878
0.0380277
0.0379899
0.0379649
0.037942
0.0379091
0.0378549
0.0377678
0.0376387
0.0374583
0.0372208
0.0369205
0.0365551
0.0361245
0.0356302
0.0350804
0.0344806
0.033851
0.0332007
0.0325644
0.0319525
0.0314101
0.030941
0.0305852
0.0303262
0.030146
0.0300287
0.0299383
0.0298213
0.0296076
0.0292616
0.0286897
0.0278808
0.0267339
0.0252499
0.023342
0.0210098
0.0182111
0.0149175
0.0112156
0.00699711
0.0025436
0.0398278
0.0399008
0.0399264
0.0399059
0.0398422
0.0397392
0.0396024
0.0394385
0.039256
0.0390641
0.0388728
0.0386932
0.0385432
0.038381
0.0382578
0.0381627
0.0380904
0.0380347
0.0379873
0.0379391
0.0378798
0.0378
0.0376898
0.0375413
0.0373471
0.037102
0.0368019
0.0364444
0.03603
0.0355595
0.0350403
0.0344766
0.0338859
0.0332757
0.0326756
0.0320943
0.0315701
0.031106
0.0307369
0.0304647
0.0302177
0.0300362
0.0298697
0.0296687
0.0293706
0.0289396
0.028294
0.0274168
0.026221
0.0247001
0.0227796
0.020452
0.0176877
0.0144546
0.010841
0.00675064
0.00243928
0.0396722
0.0397568
0.0397964
0.0397922
0.0397466
0.0396631
0.0395468
0.0394038
0.0392417
0.0390683
0.0388913
0.0387157
0.038536
0.0384209
0.0383089
0.0382126
0.0381324
0.0380638
0.0380002
0.0379335
0.0378549
0.0377561
0.0376286
0.0374658
0.0372613
0.0370108
0.0367108
0.0363594
0.0359573
0.0355048
0.0350085
0.0344719
0.0339101
0.0333295
0.0327558
0.0321966
0.0316849
0.0312221
0.0308321
0.0304805
0.0302529
0.0300323
0.0298099
0.0295452
0.0291825
0.0286863
0.0279836
0.0270538
0.02582
0.0242708
0.0223406
0.0200174
0.0172801
0.0140951
0.0105506
0.00655993
0.0023589
0.0395634
0.039656
0.0397052
0.039712
0.0396787
0.0396085
0.0395061
0.0393772
0.0392288
0.0390681
0.0389025
0.0387383
0.0385815
0.0384549
0.0383421
0.0382437
0.0381581
0.0380812
0.0380069
0.037928
0.0378365
0.037725
0.037586
0.0374136
0.0372022
0.0369481
0.0366483
0.0363011
0.0359073
0.035467
0.0349863
0.0344678
0.0339254
0.0333645
0.0328083
0.0322638
0.03176
0.0312984
0.030901
0.0305525
0.0302804
0.0300264
0.0297651
0.029457
0.02905
0.028509
0.0277669
0.0268009
0.0255406
0.023972
0.0220351
0.0197154
0.0169972
0.013846
0.0103496
0.00642831
0.00230329
0.0395063
0.0396031
0.0396572
0.0396698
0.0396427
0.0395794
0.0394842
0.0393626
0.0392213
0.0390673
0.0389081
0.0387509
0.038603
0.0384732
0.038359
0.0382589
0.0381705
0.0380893
0.0380096
0.0379245
0.0378264
0.0377085
0.0375637
0.0373863
0.0371714
0.0369154
0.0366158
0.0362708
0.0358813
0.0354474
0.0349746
0.0344655
0.033933
0.0333821
0.0328349
0.0322978
0.0317979
0.0313372
0.0309367
0.030586
0.0302945
0.0300224
0.0297404
0.0294101
0.0289799
0.0284159
0.0276529
0.0266684
0.025394
0.0238154
0.0218752
0.0195573
0.0168493
0.0137158
0.0102446
0.00636025
0.00227386
)
;

boundaryField
{
    inlet
    {
        type            zeroGradient;
    }
    outlet
    {
        type            fixedValue;
        value           uniform 0;
    }
    cylinder
    {
        type            zeroGradient;
    }
    top
    {
        type            symmetryPlane;
    }
    bottom
    {
        type            symmetryPlane;
    }
    defaultFaces
    {
        type            empty;
    }
    procBoundary3to2
    {
        type            processor;
        value           nonuniform List<scalar> 
36
(
0.025293
0.0275296
0.029628
0.0315855
0.0334005
0.0350733
0.0366061
0.0380013
0.0392591
0.0403753
0.0413409
0.042146
0.0427843
0.0432579
0.0435772
0.0437581
0.0438178
0.0437737
0.0436423
0.0434392
0.0431796
0.0428778
0.0425468
0.0421989
0.0418446
0.0418446
0.0414898
0.0411216
0.0407749
0.0404553
0.0401678
0.039917
0.039707
0.0395421
0.039427
0.0393666
)
;
    }
    procBoundary3to6
    {
        type            processor;
        value           uniform 0.0229246;
    }
    procBoundary3to7
    {
        type            processor;
        value           nonuniform List<scalar> 
57
(
0.0168862
0.0121407
0.00581173
-0.00273369
-0.0142755
-0.0293742
-0.04774
-0.0676635
-0.086074
-0.0993881
-0.104704
-0.100338
-0.0878129
-0.0702579
-0.0511965
-0.0333398
-0.0180341
-0.0029215
-0.0029215
0.00668943
0.0142558
0.0200701
0.0243215
0.0273297
0.0293603
0.0306453
0.0310875
0.0303839
0.027953
0.0229351
0.0145206
0.00165881
-0.0156734
-0.0370755
-0.0593276
-0.0787232
-0.089625
-0.0895105
-0.0783464
-0.0597536
-0.0390547
-0.0186752
-0.00234777
0.0122805
0.0220088
0.0312957
0.0362871
0.0415907
0.0431716
0.0431918
0.0393178
0.0299608
0.0179391
-0.000239175
-0.0144189
-0.0237081
-0.0195137
)
;
    }
}


// ************************************************************************* //
