/*--------------------------------*- C++ -*----------------------------------*\
  =========                 |
  \\      /  F ield         | OpenFOAM: The Open Source CFD Toolbox
   \\    /   O peration     | Website:  https://openfoam.org
    \\  /    A nd           | Version:  7
     \\/     M anipulation  |
\*---------------------------------------------------------------------------*/
FoamFile
{
    version     2.0;
    format      ascii;
    class       volScalarField;
    location    "19.5";
    object      p;
}
// * * * * * * * * * * * * * * * * * * * * * * * * * * * * * * * * * * * * * //

dimensions      [1 -1 -2 0 0 0 0];

internalField   nonuniform List<scalar> 
4032
(
1
1
1
1
1
1
1
1
1
1
1
3.03575
9.64944
10.6102
10.7631
10.9598
11.1318
11.2929
11.4418
11.579
11.7034
11.8064
11.8873
11.946
1
1
1
1
1
1
1
1
1
1
1
2.92986
9.52301
10.593
10.7504
10.9439
11.1109
11.2661
11.4082
11.5379
11.6551
11.7516
11.8274
11.884
1
1
1
1
1
1
1
1
1
1
1
2.68392
9.31689
10.5641
10.7156
10.9081
11.072
11.2225
11.3578
11.4778
11.584
11.6714
11.7387
11.7944
1
1
1
1
1
1
1
1
1
1
1
2.32509
8.97523
10.528
10.6651
10.8563
11.0142
11.1582
11.2859
11.3968
11.4912
11.5636
11.6095
11.645
1
1
1
1
1
1
1
1
1
1
1
1.89302
8.47351
10.5203
10.6141
10.7928
10.9366
11.07
11.1826
11.2719
11.3367
11.3859
11.4121
11.4588
1
1
1
1
1
1
1
1
1
1
1
1.45618
7.81727
10.4753
10.5157
10.6973
10.831
10.9509
11.046
11.1188
11.1678
11.2051
11.2003
11.1475
1
1
1
1
1
1
1
1
1
1
1
1.05135
6.97845
10.4144
10.4315
10.5747
10.6774
10.7824
10.8589
10.9015
10.899
10.8398
10.7372
10.6711
1
1
1
1
1
1
1
1
1
1
1
1.00061
5.8554
10.0581
10.2072
10.3635
10.4793
10.5615
10.609
10.6151
10.5617
10.4606
10.2932
10.2513
1
1
1
1
1
1
1
1
1
1
1
0.999998
4.58803
9.68455
10.0962
10.2171
10.3002
10.3397
10.3471
10.3008
10.1635
9.88369
9.12386
7.08075
1
1
1
1
1
1
1
1
1
1
1
0.999999
3.29087
9.10088
9.95936
10.0805
10.1349
10.1452
10.0943
9.98402
9.75061
9.26748
8.46191
6.3959
1
1
1
1
1
1
1
1
1
1
1
1
1.99096
8.20955
9.95399
9.98523
10.0012
9.95705
9.85125
9.6686
9.37383
8.80877
7.98883
6.07838
1
1
1
1
1
1
1
1
1
1
1
1
1.1154
6.9161
9.95158
9.83446
9.80367
9.73988
9.61351
9.3935
9.05281
8.49033
7.63984
6.15177
1
1
1
1
1
1
1
1
1
1
1
1
1.00105
5.17935
9.41828
9.62648
9.62887
9.54974
9.405
9.16602
8.80379
8.26899
7.45248
6.32174
1
1
1
1
1
1
1
1
1
1
1
1
0.999985
3.18369
8.74935
9.52788
9.50705
9.43582
9.26984
9.00956
8.63872
8.12421
7.39582
6.55096
1
1
1
1
1
1
1
1
1
1
1
1
0.999996
1.54425
7.80505
9.64676
9.45238
9.315
9.13093
8.87796
8.52067
8.04189
7.43474
6.83526
1
1
1
1
1
1
1
1
1
1
1
1
0.999999
1.03029
6.10717
9.24146
9.26226
9.19933
9.04675
8.80454
8.46569
8.04935
7.56978
7.11943
1
1
1
1
1
1
1
1
1
1
1
1
1
0.999923
3.81
8.76551
9.27062
9.18301
9.02334
8.79314
8.49443
8.14248
7.75493
7.38427
1
1
1
1
1
1
1
1
1
1
1
1
1
0.999977
1.82555
8.01284
9.41915
9.21118
9.03323
8.81272
8.55274
8.25833
7.93986
7.61666
1
1
1
1
1
1
1
1
1
1
1
1
1
0.999996
1.06321
6.42084
9.26651
9.18878
9.04442
8.88721
8.6652
8.40985
8.13185
7.84341
1
1
1
1
1
1
1
1
1
1
1
1
1
1
1.00014
4.21765
8.90521
9.27703
9.15928
9.00566
8.79343
8.56573
8.3135
8.04756
1
1
1
1
1
1
1
1
1
1
1
1
1
1
0.999998
2.1733
8.3917
9.68824
9.36443
9.14881
8.93805
8.7241
8.48118
8.23286
1
1
1
1
1
1
1
1
1
1
1
1
1
1
1
1.12041
7.21463
9.75066
9.42498
9.2535
9.07514
8.87554
8.64411
8.41313
1
1
1
1
1
1
1
1
1
1
1
1
1
1
1
1.00102
5.57729
9.6591
9.5423
9.40607
9.22359
9.01901
8.7934
8.57554
1
1
1
1
1
1
1
1
1
1
1
1
1
1
1
0.999991
3.99553
9.45966
9.77338
9.57916
9.37486
9.15991
8.94033
8.73272
1
1
1
1
1
1
1
1
1
1
1
1
1
1
1
0.999998
2.67171
8.93483
9.92945
9.64613
9.46171
9.26499
9.06752
8.87519
1
1
1
1
1
1
1
1
1
1
1
1
1
1
1
1
1.66129
8.23475
10.1858
9.79685
9.61081
9.41631
9.22375
9.03016
1
1
1
1
1
1
1
1
1
1
1
1
1
1
1
1
1.10452
7.4204
10.2556
9.85132
9.66952
9.49159
9.31594
9.1334
1
1
1
1
1
1
1
1
1
1
1
1
1
1
1
1
1.00185
6.41453
10.1934
9.88235
9.72601
9.5647
9.39891
9.22372
1
1
1
1
1
1
1
1
1
1
1
1
1
1
1
1
1
5.47972
10.0472
9.94727
9.78709
9.63547
9.47334
9.30298
1
1
1
1
1
1
1
1
1
1
1
1
1
1
1
1
1
4.65578
9.83639
10.0162
9.83536
9.69832
9.53937
9.37285
1
1
1
1
1
1
1
1
1
1
1
1
1
1
1
1
1
3.92742
9.60652
10.0697
9.86426
9.74162
9.58716
9.42943
1
1
1
1
1
1
1
1
1
1
1
1
1
1
1
1
1
3.26552
9.37253
10.1553
9.92289
9.80021
9.64568
9.49029
1
1
1
1
1
1
1
1
1
1
1
1
1
1
1
1
1
2.72779
9.11271
10.2366
9.97048
9.8391
9.68514
9.53218
1
1
1
1
1
1
1
1
1
1
1
1
1
1
1
1
1
2.32718
8.8423
10.3013
10.015
9.87839
9.72371
9.57034
1
1
1
1
1
1
1
1
1
1
1
1
1
1
1
1
1
2.01284
8.58694
10.3455
10.0502
9.9127
9.7579
9.60464
1
1
1
1
1
1
1
1
1
1
1
1
1
1
1
1
1
1.76385
8.35517
10.3679
10.0725
9.93561
9.78198
9.63014
1
1
1
1
1
1
1
1
1
1
1
1
1
1
1
1
1
1.61653
8.15342
10.3738
10.0865
9.95197
9.79979
9.64935
1
1
1
1
1
1
1
1
1
1
1
1
1
1
1
1
1
1.53098
7.99594
10.3644
10.0923
9.96207
9.81243
9.66387
1
1
1
1
1
1
1
1
1
1
1
1
1
1
1
1
1
1.47293
7.88485
10.3576
10.1003
9.9723
9.82378
9.67588
1
1
1
1
1
1
1
1
1
1
1
1
1
1
1
1
1
1.44803
7.8259
10.3408
10.097
9.97504
9.82885
9.68212
1.98246
2.30464
2.93447
3.43022
3.60743
3.64505
3.66968
3.71304
3.80253
3.93373
4.05037
4.12437
4.16483
4.17849
4.17025
4.16227
4.16918
4.19388
4.24268
4.30796
4.37726
4.43981
4.49175
4.53725
4.57817
4.61496
4.65003
4.68647
4.72723
4.77393
4.8259
4.87916
4.92786
4.96876
4.99763
5.00854
5.00128
4.98451
4.96457
4.94439
4.92499
4.90678
4.88943
4.87361
4.85978
4.84658
4.83059
4.80843
4.77627
4.73389
4.68566
4.63631
4.58802
4.54041
4.49154
4.44054
4.38989
4.34326
4.30242
4.26751
4.235
4.19952
4.15864
4.11434
4.06982
4.0267
3.98368
3.93735
3.88909
3.8436
3.80274
3.76839
3.74247
3.72285
3.70483
3.68635
3.67134
3.66333
3.65604
3.64787
3.64476
3.64747
3.65685
3.67597
3.70689
3.75185
3.80782
3.86719
3.92244
3.97032
4.01349
4.05451
4.08998
4.10681
4.11252
4.11238
3.37123
3.61508
3.62939
3.63404
3.70009
3.71819
3.75609
3.83305
3.91141
3.99743
4.06438
4.0918
4.09551
4.10379
4.11639
4.13599
4.16651
4.19805
4.23859
4.29256
4.35847
4.42896
4.49184
4.53904
4.57598
4.61268
4.65296
4.69749
4.74226
4.78287
4.81802
4.84886
4.87759
4.90579
4.93223
4.95179
4.95819
4.95036
4.93517
4.92043
4.90938
4.90064
4.89061
4.87295
4.84663
4.81713
4.7896
4.76529
4.74004
4.70557
4.65835
4.60466
4.55206
4.50507
4.46399
4.42459
4.38161
4.33446
4.28815
4.24638
4.20959
4.1748
4.13659
4.09315
4.04775
4.00358
3.96243
3.92266
3.87902
3.83377
3.7915
3.7546
3.7247
3.70203
3.6835
3.66574
3.65056
3.6405
3.63304
3.6274
3.62539
3.62755
3.63809
3.66022
3.69527
3.74451
3.80496
3.86836
3.92375
3.96697
4.00148
4.03279
4.06584
4.09365
4.10723
4.1068
4.11947
4.18179
3.8234
3.65718
3.738
3.83094
3.90988
3.95745
3.96791
3.96065
3.9784
4.01856
4.04217
4.06569
4.11003
4.17537
4.25319
4.31642
4.3569
4.38259
4.41523
4.46688
4.53009
4.58417
4.62094
4.64458
4.67091
4.71033
4.76227
4.81764
4.86604
4.9006
4.92225
4.9353
4.94586
4.95679
4.96583
4.96409
4.94934
4.92809
4.91015
4.90042
4.89725
4.89431
4.88095
4.85182
4.81397
4.77563
4.7424
4.71406
4.6783
4.62884
4.57256
4.51547
4.46319
4.4196
4.3854
4.35243
4.31323
4.27068
4.22882
4.18929
4.15178
4.10975
4.06211
4.01402
3.96857
3.92687
3.88717
3.84873
3.81115
3.77505
3.743
3.71618
3.69397
3.67579
3.661
3.64828
3.63699
3.63063
3.62962
3.62875
3.63025
3.64689
3.67804
3.72396
3.78409
3.852
3.91622
3.96756
4.00069
4.02137
4.03975
4.05984
4.08185
4.09502
4.68874
4.79194
4.37
4.07862
4.16797
4.16181
4.0557
4.00033
3.99782
3.97187
3.9451
4.00755
4.09045
4.13679
4.16854
4.1989
4.24454
4.31047
4.36416
4.39164
4.40761
4.42908
4.47021
4.52871
4.58836
4.63506
4.66676
4.69368
4.72686
4.77075
4.81989
4.86345
4.89221
4.90449
4.90712
4.91054
4.9218
4.93572
4.94151
4.9336
4.91644
4.89829
4.88179
4.86985
4.8595
4.83668
4.80026
4.75807
4.71859
4.6869
4.65575
4.61324
4.56792
4.51835
4.46413
4.41516
4.37582
4.34151
4.30244
4.2618
4.22213
4.18259
4.14165
4.09893
4.05382
4.00813
3.96355
3.92038
3.87957
3.84152
3.80603
3.7735
3.74476
3.71868
3.69501
3.67505
3.65893
3.64543
3.63659
3.63505
3.64067
3.64867
3.65599
3.67341
3.70367
3.74369
3.79428
3.85354
3.91463
3.97035
4.01458
4.0356
4.04524
4.05265
4.06215
4.08073
5.35601
5.36781
4.94798
4.53251
4.4516
4.40425
4.25639
4.17962
4.21534
4.23475
4.16653
4.12311
4.16846
4.20822
4.19906
4.20274
4.22534
4.26814
4.338
4.39669
4.4294
4.45231
4.48273
4.52674
4.58291
4.64095
4.6878
4.72028
4.74643
4.77562
4.8094
4.84295
4.87178
4.89055
4.8996
4.906
4.91319
4.91786
4.91765
4.91309
4.89839
4.88154
4.86458
4.84681
4.8268
4.79938
4.76713
4.73531
4.70011
4.65643
4.60884
4.56228
4.52089
4.48373
4.44626
4.40651
4.36218
4.31517
4.26935
4.22916
4.19504
4.16318
4.13002
4.09156
4.04647
3.99738
3.94929
3.90587
3.86876
3.83567
3.80288
3.77051
3.74129
3.71695
3.6964
3.67836
3.66197
3.6465
3.6354
3.63188
3.63802
3.65204
3.66554
3.68973
3.72254
3.76279
3.80916
3.8596
3.91112
3.96055
4.00907
4.04366
4.0567
4.06217
4.06796
4.07613
5.93512
5.88159
5.45206
4.98069
4.78756
4.68822
4.53268
4.41647
4.43608
4.48261
4.43994
4.35857
4.35149
4.38248
4.36763
4.33516
4.31237
4.33025
4.38701
4.4364
4.45083
4.45995
4.47939
4.5152
4.5705
4.62456
4.65883
4.68255
4.70097
4.72188
4.75372
4.79593
4.83385
4.85433
4.85739
4.85148
4.8424
4.841
4.85278
4.87014
4.87268
4.84575
4.80973
4.78055
4.76043
4.75172
4.73476
4.70265
4.65773
4.60534
4.55844
4.52481
4.49555
4.4637
4.42597
4.37907
4.32648
4.27671
4.23781
4.20536
4.17471
4.14274
4.10577
4.06147
4.0121
3.96359
3.92271
3.89024
3.85904
3.82463
3.78776
3.75338
3.72585
3.70529
3.68983
3.67734
3.66639
3.65647
3.64653
3.64041
3.64341
3.65921
3.68131
3.71307
3.753
3.79497
3.83024
3.86431
3.8987
3.9347
3.97841
4.02615
4.05807
4.06981
4.06972
4.06893
6.41801
6.29234
5.84985
5.39761
5.16522
5.06291
4.92038
4.74627
4.67927
4.68201
4.62423
4.53105
4.49977
4.51953
4.50898
4.46875
4.43706
4.44876
4.49334
4.52719
4.52391
4.50278
4.51289
4.54559
4.59983
4.64075
4.65649
4.66977
4.68377
4.70197
4.73685
4.7904
4.81692
4.82204
4.82205
4.82507
4.83449
4.86007
4.89075
4.89229
4.8722
4.83665
4.80687
4.79378
4.8005
4.79587
4.76493
4.72019
4.66903
4.6283
4.60105
4.57651
4.54335
4.49956
4.4486
4.39264
4.34757
4.31602
4.2869
4.25419
4.21581
4.16947
4.11477
4.06008
4.01279
3.97541
3.94569
3.91635
3.88162
3.83745
3.79322
3.75855
3.73405
3.71626
3.704
3.69588
3.6895
3.68259
3.67139
3.6596
3.66339
3.68339
3.71223
3.74997
3.79156
3.82195
3.84505
3.86659
3.89059
3.92164
3.96285
4.01075
4.04677
4.05891
4.05803
4.05327
6.79027
6.59628
6.16381
5.74776
5.53423
5.43275
5.2849
5.10253
5.00367
4.96504
4.87954
4.75086
4.6662
4.65174
4.63395
4.58526
4.53291
4.52492
4.55213
4.57505
4.56732
4.54673
4.55314
4.5765
4.61769
4.63758
4.64585
4.65413
4.66934
4.69258
4.73465
4.77681
4.78741
4.78932
4.79383
4.80516
4.82707
4.85176
4.85243
4.83535
4.81713
4.80259
4.79718
4.79585
4.77684
4.74306
4.70338
4.66485
4.63789
4.61435
4.58597
4.54874
4.5007
4.44575
4.40197
4.36978
4.34254
4.31262
4.27858
4.23766
4.18875
4.13602
4.08702
4.04727
4.01464
3.985
3.95524
3.92226
3.87927
3.83157
3.79604
3.77289
3.75367
3.73976
3.73023
3.72408
3.71808
3.70949
3.69933
3.69988
3.7148
3.73919
3.76518
3.78946
3.80963
3.83354
3.86235
3.88651
3.90885
3.93352
3.9596
3.98482
4.00818
4.03061
4.04295
4.05572
7.09317
6.85068
6.43898
6.06592
5.87374
5.76687
5.61105
5.44052
5.3419
5.27231
5.15652
4.99862
4.88507
4.845
4.8158
4.75328
4.674
4.63605
4.64103
4.65131
4.63521
4.60827
4.59941
4.60926
4.6318
4.64112
4.64382
4.64642
4.65632
4.6744
4.70682
4.72928
4.73478
4.73579
4.74221
4.75679
4.78341
4.79556
4.78588
4.76347
4.75021
4.7473
4.75411
4.74532
4.71385
4.66694
4.62414
4.6006
4.58411
4.56339
4.53058
4.48491
4.43005
4.38465
4.35252
4.32806
4.301
4.26886
4.22922
4.17998
4.12971
4.08678
4.05181
4.02133
3.9926
3.96143
3.92418
3.8814
3.83913
3.80691
3.78835
3.77323
3.75729
3.74243
3.73234
3.72429
3.71787
3.71634
3.72482
3.74574
3.76989
3.78585
3.79539
3.79983
3.81241
3.83799
3.87725
3.90916
3.91853
3.92432
3.93292
3.94314
3.95859
3.99034
4.03149
4.05483
7.34386
7.07892
6.69365
6.36078
6.18724
6.06876
5.8999
5.74022
5.64709
5.55839
5.41676
5.23879
5.12129
5.07371
5.02981
4.95158
4.84524
4.77363
4.75744
4.75647
4.73087
4.68952
4.6576
4.64846
4.65485
4.65435
4.6461
4.63833
4.63795
4.64487
4.66181
4.67646
4.68092
4.68087
4.68776
4.70472
4.72734
4.73089
4.71795
4.69962
4.69115
4.69703
4.70442
4.68522
4.64663
4.60046
4.57011
4.55385
4.54361
4.5188
4.48171
4.43017
4.37873
4.34667
4.32284
4.29848
4.26705
4.23025
4.18451
4.12936
4.08572
4.05644
4.02938
4.00298
3.97423
3.9376
3.89073
3.84112
3.80887
3.79317
3.78197
3.77174
3.7603
3.74688
3.73206
3.72129
3.71862
3.7279
3.75284
3.7847
3.80628
3.81277
3.80901
3.8142
3.82795
3.85014
3.88354
3.90272
3.90563
3.90394
3.90632
3.91422
3.9317
3.96694
4.0013
4.01941
7.58307
7.30866
6.9436
6.6373
6.47162
6.33524
6.1498
5.99452
5.9012
5.7971
5.63689
5.44952
5.34182
5.29552
5.24004
5.14312
5.00956
4.91393
4.87946
4.86275
4.82793
4.77169
4.71475
4.69008
4.68256
4.66993
4.65111
4.6323
4.62171
4.6181
4.62315
4.6321
4.63476
4.63249
4.63709
4.65286
4.67355
4.67775
4.66541
4.64829
4.64591
4.65612
4.65684
4.63392
4.59175
4.55311
4.53569
4.53075
4.51848
4.48784
4.44272
4.38875
4.35469
4.33341
4.31543
4.28675
4.25039
4.20409
4.14674
4.10064
4.07241
4.04856
4.02327
3.99542
3.96458
3.91952
3.86509
3.82835
3.80933
3.79746
3.78883
3.78171
3.77413
3.76334
3.74931
3.74272
3.74697
3.76393
3.79388
3.82068
3.83573
3.83962
3.84371
3.85272
3.86285
3.87545
3.8858
3.89045
3.89368
3.89576
3.8988
3.90759
3.92661
3.95072
3.96547
3.97785
7.80159
7.53634
7.20416
6.92629
6.75778
6.59411
6.38346
6.2197
6.11891
5.99964
5.82232
5.62894
5.52833
5.47921
5.41033
5.29752
5.14522
5.04437
5.00134
4.96713
4.91546
4.84045
4.76356
4.72795
4.70928
4.68926
4.66222
4.63176
4.60841
4.59652
4.59139
4.59506
4.59526
4.59049
4.59136
4.60301
4.62103
4.62989
4.62364
4.60635
4.60411
4.61401
4.61167
4.59107
4.55299
4.52589
4.51766
4.51638
4.49574
4.45908
4.40809
4.37327
4.35519
4.34175
4.31623
4.28277
4.23865
4.18011
4.13397
4.10857
4.08627
4.06122
4.03359
4.00166
3.95581
3.90126
3.86552
3.85114
3.83894
3.82415
3.81312
3.80512
3.7956
3.78725
3.78697
3.79637
3.81321
3.8331
3.84925
3.85948
3.86805
3.88392
3.90159
3.91099
3.91245
3.90578
3.89246
3.88823
3.89197
3.90073
3.90904
3.91863
3.92544
3.92735
3.92662
3.93535
8.00681
7.75096
7.43951
7.18861
7.02646
6.84639
6.61843
6.44544
6.33345
6.19629
6.00049
5.80035
5.69877
5.63949
5.55385
5.42375
5.25993
5.16245
5.11203
5.06085
4.99219
4.89685
4.8074
4.76658
4.74153
4.71169
4.67627
4.63371
4.59812
4.57953
4.56791
4.56649
4.56378
4.55649
4.55024
4.55475
4.56804
4.5808
4.58107
4.56753
4.56228
4.56841
4.56935
4.55444
4.52112
4.49993
4.49807
4.4928
4.46581
4.42392
4.3818
4.36336
4.3549
4.3376
4.30662
4.26317
4.20376
4.1588
4.13751
4.12229
4.10192
4.07395
4.03651
3.98128
3.93001
3.90338
3.89368
3.89117
3.8826
3.87039
3.85079
3.83368
3.82527
3.82843
3.84627
3.8736
3.89488
3.90595
3.9063
3.90532
3.91582
3.93835
3.96132
3.96433
3.95403
3.92892
3.90878
3.90308
3.90543
3.9201
3.92633
3.92253
3.91356
3.90074
3.89414
3.90233
8.19911
7.94843
7.65965
7.43726
7.27892
7.07835
6.84
6.67056
6.55274
6.40034
6.18801
5.98135
5.87382
5.79939
5.69439
5.5445
5.37638
5.28411
5.22508
5.15763
5.07089
4.95377
4.86009
4.8165
4.78335
4.74429
4.69892
4.64028
4.5948
4.57174
4.55644
4.54956
4.54091
4.52754
4.51182
4.50705
4.5153
4.53014
4.53054
4.51499
4.50483
4.51025
4.51853
4.50967
4.47973
4.46069
4.4574
4.44448
4.41959
4.38504
4.35553
4.34036
4.3264
4.30156
4.26651
4.2163
4.16607
4.14399
4.12892
4.11104
4.08674
4.05543
4.00693
3.94831
3.91996
3.91129
3.91189
3.90843
3.90132
3.89072
3.86909
3.85454
3.85525
3.86919
3.89895
3.9332
3.95403
3.96026
3.95543
3.95707
3.96725
3.98267
3.99329
3.98984
3.97255
3.94439
3.92962
3.92443
3.92621
3.93365
3.92751
3.91669
3.89752
3.87264
3.86688
3.87569
8.36939
8.12681
7.86508
7.6665
7.50609
7.29094
7.06114
6.90316
6.7836
6.61125
6.37788
6.17139
6.06083
5.97158
5.84727
5.67796
5.51268
5.42199
5.35138
5.2673
5.15918
5.0212
4.93089
4.88489
4.84249
4.79304
4.73458
4.65757
4.60172
4.57394
4.55611
4.54398
4.52781
4.50791
4.47782
4.46436
4.46601
4.47435
4.4715
4.45641
4.44306
4.44559
4.45418
4.44835
4.42207
4.39732
4.39201
4.38048
4.35872
4.32627
4.29697
4.28199
4.26798
4.24527
4.21315
4.16667
4.12233
4.09846
4.08219
4.06479
4.04384
4.01678
3.973
3.92497
3.90507
3.89832
3.89877
3.89998
3.89704
3.89177
3.88135
3.87791
3.88604
3.90709
3.93898
3.96656
3.98574
3.99111
3.99587
4.00175
4.00449
4.00411
4.00306
3.99453
3.978
3.96048
3.95087
3.94433
3.94085
3.93475
3.92438
3.90937
3.88471
3.86581
3.85895
3.86048
8.52889
8.29315
8.05387
7.8673
7.70266
7.47894
7.25676
7.10963
6.98589
6.79831
6.56053
6.36951
6.25842
6.1548
6.01265
5.82672
5.66895
5.57361
5.48945
5.3903
5.26241
5.11374
5.02481
4.96956
4.91594
4.85482
4.78179
4.69217
4.62879
4.59312
4.5666
4.54776
4.52484
4.48289
4.43785
4.42049
4.41668
4.41894
4.40983
4.39128
4.37503
4.37448
4.38326
4.38078
4.35894
4.33098
4.32425
4.31768
4.29973
4.27142
4.243
4.22324
4.20319
4.1803
4.15485
4.12482
4.08968
4.06071
4.03917
4.01658
3.99237
3.96691
3.93766
3.91
3.89789
3.89235
3.88983
3.89026
3.89146
3.88741
3.88883
3.90187
3.92197
3.94873
3.97522
3.9909
3.99508
4.00948
4.02659
4.03223
4.02944
4.01777
4.0018
3.99334
3.99085
3.98382
3.97504
3.96498
3.95369
3.93935
3.92054
3.89769
3.87961
3.87031
3.86628
3.85774
8.67471
8.44958
8.23101
8.0542
7.87832
7.65027
7.43958
7.28992
7.15766
6.96248
6.72823
6.55798
6.44599
6.32997
6.17175
5.97105
5.8251
5.72378
5.62505
5.5155
5.37451
5.22232
5.12899
5.06345
5.00348
4.93602
4.84695
4.74405
4.67431
4.63112
4.59401
4.55588
4.5089
4.44696
4.39881
4.37814
4.36976
4.36584
4.35135
4.32559
4.30382
4.30097
4.31201
4.31351
4.29391
4.26547
4.25877
4.26003
4.24839
4.22656
4.1968
4.17071
4.14714
4.12739
4.11156
4.09219
4.06574
4.0372
4.00834
3.97769
3.94728
3.92856
3.91845
3.91477
3.90604
3.89836
3.89167
3.88746
3.88657
3.89189
3.90913
3.93835
3.9706
3.99393
4.00622
4.00736
4.0198
4.04343
4.06228
4.06427
4.05708
4.03679
4.01615
4.00799
4.00716
4.01298
4.00482
3.9917
3.97072
3.93988
3.91305
3.8968
3.88841
3.886
3.8804
3.8608
8.82397
8.60442
8.39865
8.22376
8.03065
7.80153
7.60149
7.45501
7.31015
7.10301
6.87485
6.71124
6.59673
6.45925
6.2829
6.0977
5.97384
5.87617
5.76054
5.63034
5.48291
5.33529
5.23196
5.14686
5.06114
4.96931
4.86378
4.76143
4.70182
4.6501
4.60251
4.55419
4.49349
4.41759
4.36541
4.33963
4.32498
4.31331
4.29222
4.25968
4.23541
4.23165
4.24416
4.24735
4.23036
4.20417
4.19734
4.20382
4.20258
4.18914
4.16087
4.13105
4.11227
4.09718
4.08299
4.06667
4.04681
4.02092
3.9909
3.96067
3.93422
3.92105
3.91637
3.91561
3.91592
3.91607
3.91123
3.90503
3.90843
3.92439
3.95417
3.99428
4.02632
4.04253
4.04464
4.04581
4.05945
4.08464
4.10748
4.1053
4.08658
4.05758
4.04303
4.03987
4.04951
4.0532
4.03971
4.01802
3.98236
3.94068
3.91847
3.90822
3.90195
3.89367
3.88364
3.85642
8.93664
8.73174
8.54023
8.36316
8.1594
7.93877
7.7504
7.60725
7.44522
7.2244
7.00599
6.85235
6.73224
6.57921
6.38677
6.20111
6.08129
5.97351
5.85205
5.70912
5.54479
5.4085
5.30913
5.21568
5.11922
5.01465
4.89929
4.79674
4.72552
4.66532
4.60817
4.54852
4.47548
4.39502
4.34127
4.31032
4.28808
4.26639
4.23693
4.19689
4.17474
4.17213
4.18527
4.18746
4.1723
4.14695
4.13814
4.14504
4.15282
4.14728
4.12491
4.09692
4.0824
4.07294
4.06076
4.04323
4.02301
4.00153
3.98114
3.96523
3.94972
3.93717
3.93256
3.93101
3.93449
3.93909
3.94131
3.94638
3.96067
3.98322
4.01225
4.04724
4.07948
4.09401
4.09525
4.09997
4.10753
4.11481
4.12977
4.13471
4.12229
4.09693
4.08029
4.06905
4.06033
4.05407
4.04119
4.02114
3.98907
3.95627
3.93762
3.92358
3.90984
3.89448
3.87751
3.84018
9.0369
8.84646
8.66589
8.48433
8.27752
8.06834
7.89153
7.74631
7.56266
7.33467
7.13246
6.98712
6.85696
6.687
6.48149
6.30671
6.1876
6.06982
5.93389
5.77505
5.60839
5.48224
5.37756
5.2758
5.17149
5.05589
4.92896
4.82341
4.74559
4.67748
4.61128
4.54369
4.46563
4.38464
4.32946
4.29237
4.26052
4.2286
4.18892
4.13948
4.11618
4.11305
4.12425
4.12663
4.11354
4.08919
4.0776
4.08297
4.09544
4.09435
4.07688
4.05652
4.04835
4.04404
4.03037
4.00769
3.98595
3.97508
3.96973
3.96888
3.96316
3.95133
3.94243
3.94222
3.94857
3.96101
3.97918
4.00021
4.02344
4.04924
4.07534
4.10082
4.12721
4.14372
4.14983
4.15488
4.15553
4.15227
4.15147
4.15231
4.14252
4.12682
4.11022
4.09572
4.08077
4.0639
4.04328
4.01744
3.98893
3.96671
3.94928
3.93255
3.91495
3.8926
3.86299
3.82184
9.12438
8.94509
8.76992
8.58441
8.38176
8.18577
8.01895
7.86358
7.66237
7.4385
7.25316
7.11607
6.97262
6.78418
6.5719
6.41052
6.29073
6.16362
6.01559
5.8416
5.67881
5.55804
5.44877
5.33918
5.2238
5.09453
4.96022
4.85711
4.77698
4.70466
4.63162
4.5519
4.46324
4.37832
4.32206
4.28138
4.24386
4.20536
4.15831
4.10142
4.07089
4.06298
4.06868
4.06835
4.05465
4.03234
4.02028
4.02433
4.03565
4.03092
4.01473
4.00383
4.00376
4.00507
3.9911
3.96409
3.94369
3.93932
3.944
3.95836
3.96133
3.95692
3.94828
3.94659
3.95629
3.97691
4.01439
4.05495
4.08664
4.11066
4.1277
4.14164
4.15885
4.18346
4.20047
4.20472
4.20265
4.19081
4.17199
4.1612
4.15545
4.14581
4.13306
4.11867
4.0998
4.07413
4.04271
4.0113
3.98733
3.96934
3.95218
3.93351
3.91027
3.87719
3.84214
3.81317
9.19987
9.02742
8.85364
8.66817
8.47506
8.29272
8.13129
7.95997
7.74977
7.54009
7.3701
7.2374
7.07517
6.86945
6.66282
6.51408
6.39358
6.25732
6.09775
5.91396
5.7599
5.63908
5.52316
5.40499
5.27872
5.13986
5.00782
4.90583
4.82179
4.74219
4.66095
4.57209
4.47382
4.38678
4.32849
4.28294
4.24085
4.19662
4.14195
4.07937
4.04238
4.02671
4.02105
4.01127
3.9931
3.97302
3.96555
3.9719
3.97756
3.96427
3.94485
3.94014
3.94663
3.95438
3.94631
3.92468
3.90394
3.90178
3.91098
3.93197
3.94066
3.94252
3.93887
3.94319
3.96065
3.99229
4.04571
4.09882
4.1295
4.14708
4.15408
4.16334
4.18092
4.20831
4.2305
4.23441
4.2286
4.20843
4.18481
4.17271
4.16437
4.15468
4.1417
4.12593
4.1027
4.07005
4.03569
4.0095
3.98943
3.97113
3.95317
3.93111
3.89961
3.8613
3.83837
3.81323
9.26567
9.09988
8.92754
8.74532
8.56107
8.38693
8.22077
8.03454
7.82793
7.63544
7.47916
7.33963
7.15501
6.93995
6.75231
6.61201
6.48891
6.34267
6.17092
5.98612
5.84374
5.72091
5.59918
5.47348
5.33666
5.19135
5.0648
4.96392
4.87384
4.78683
4.69636
4.59626
4.49106
4.40493
4.34257
4.28946
4.23932
4.18698
4.12346
4.05766
4.01758
3.99305
3.97492
3.95378
3.92685
3.90903
3.90741
3.91963
3.92289
3.90573
3.87995
3.87379
3.88325
3.90198
3.90553
3.89534
3.8754
3.87265
3.88059
3.902
3.92148
3.93172
3.94021
3.95565
3.97855
4.01461
4.06978
4.12492
4.15204
4.16255
4.16651
4.18068
4.20117
4.22596
4.2424
4.24357
4.23204
4.20972
4.19577
4.18748
4.17806
4.16652
4.15107
4.12985
4.10098
4.0701
4.04446
4.02257
4.00196
3.98082
3.9576
3.9286
3.89569
3.8681
3.8522
3.8261
9.32834
9.16174
8.98748
8.80849
8.63205
8.46256
8.28933
8.09858
7.90315
7.72441
7.57486
7.41776
7.21736
7.01121
6.83946
6.70296
6.5698
6.4104
6.2245
6.05418
5.92328
5.79829
5.67139
5.5363
5.38604
5.23846
5.11854
5.01673
4.92075
4.82501
4.72381
4.61335
4.50673
4.42194
4.35336
4.28982
4.22799
4.16446
4.09213
4.0253
3.98559
3.95718
3.92943
3.89569
3.85643
3.83822
3.83903
3.85685
3.86281
3.84942
3.8224
3.81234
3.82322
3.85093
3.86936
3.87052
3.85708
3.85233
3.86225
3.88395
3.91724
3.94031
3.95862
3.98281
4.01238
4.04784
4.09191
4.1336
4.15706
4.17097
4.18863
4.20922
4.23083
4.24543
4.2484
4.24118
4.22702
4.21829
4.21286
4.20674
4.1959
4.18259
4.16302
4.13616
4.10891
4.08541
4.06402
4.0428
4.0208
3.99686
3.96582
3.93214
3.90381
3.88189
3.8672
3.84065
9.37268
9.20735
9.03644
8.86405
8.69371
8.52299
8.34232
8.15201
7.96678
7.80053
7.64807
7.47064
7.2641
7.06626
6.91201
6.78298
6.6326
6.45407
6.26419
6.1183
5.99026
5.85935
5.72374
5.57684
5.42005
5.27931
5.16304
5.05697
4.95338
4.84756
4.73619
4.62215
4.51977
4.43507
4.36024
4.28754
4.21398
4.13794
4.05986
3.9971
3.95775
3.92382
3.88755
3.84363
3.7944
3.77448
3.77385
3.78952
3.79884
3.79415
3.77591
3.76334
3.77422
3.80515
3.83704
3.84701
3.84264
3.84193
3.85841
3.88557
3.92166
3.95798
3.99523
4.03087
4.06178
4.08885
4.11967
4.1534
4.17954
4.20012
4.22007
4.24157
4.25911
4.26425
4.26097
4.24869
4.2395
4.23508
4.232
4.22455
4.21082
4.19545
4.1746
4.14668
4.12217
4.10334
4.08577
4.06754
4.04507
4.00881
3.9678
3.93901
3.91963
3.9021
3.88626
3.85513
9.41093
9.24662
9.0789
8.91041
8.74113
8.56658
8.38396
8.20093
8.02783
7.86782
7.69682
7.49295
7.29177
7.13022
6.99726
6.85244
6.67576
6.478
6.30844
6.16992
6.04006
5.90137
5.75558
5.60054
5.4479
5.31615
5.19956
5.08747
4.97509
4.85876
4.73917
4.62557
4.52841
4.44459
4.36576
4.28701
4.20441
4.1157
4.03336
3.97631
3.93625
3.89904
3.85952
3.81054
3.75419
3.72903
3.72417
3.7327
3.74563
3.74709
3.73837
3.72974
3.74003
3.76815
3.8049
3.82605
3.83658
3.84485
3.86416
3.8934
3.93157
3.97921
4.02732
4.07146
4.10844
4.14057
4.16513
4.18596
4.20986
4.23193
4.2534
4.27595
4.28542
4.28415
4.27379
4.26081
4.25505
4.25347
4.25583
4.24581
4.2306
4.20753
4.17709
4.15711
4.1417
4.12461
4.105
4.08039
4.04759
4.00588
3.9719
3.95051
3.93137
3.91087
3.89137
3.85218
9.44601
9.28345
9.11821
8.95104
8.78054
8.60448
8.42538
8.24927
8.07972
7.91174
7.72777
7.53273
7.35389
7.19687
7.05385
6.88597
6.69444
6.50591
6.35167
6.21582
6.07914
5.93419
5.777
5.61442
5.47221
5.34865
5.23099
5.11356
4.99284
4.86656
4.73924
4.62605
4.53318
4.45157
4.37241
4.28996
4.19966
4.09991
4.01353
3.95896
3.91733
3.87961
3.8414
3.79106
3.72982
3.69536
3.68664
3.69238
3.7027
3.70563
3.70884
3.71269
3.71737
3.74086
3.77562
3.80507
3.82626
3.85197
3.88496
3.92286
3.9649
4.01186
4.05972
4.10423
4.14374
4.17835
4.20844
4.23234
4.24829
4.26221
4.27726
4.2932
4.29882
4.29567
4.2862
4.27766
4.27108
4.26629
4.26278
4.252
4.23585
4.20851
4.17889
4.15958
4.14155
4.12236
4.10134
4.07558
4.04085
4.00299
3.97486
3.9537
3.9332
3.91097
3.88859
3.84196
9.47357
9.31395
9.15103
8.98449
8.81362
8.63878
8.46364
8.29074
8.11948
7.94294
7.75586
7.57104
7.3997
7.24655
7.08997
6.90554
6.71236
6.54121
6.39593
6.26176
6.11635
5.96279
5.79454
5.63163
5.49599
5.37367
5.25484
5.1365
5.01321
4.87819
4.74354
4.63076
4.53713
4.45306
4.37395
4.29401
4.19965
4.09556
4.01021
3.94978
3.90183
3.85988
3.81852
3.77388
3.72317
3.68086
3.66042
3.65566
3.65812
3.65981
3.66998
3.68637
3.70101
3.72058
3.75004
3.78184
3.81496
3.85295
3.89877
3.95023
4.00399
4.05221
4.094
4.13106
4.1641
4.19688
4.23125
4.25983
4.27602
4.28794
4.29637
4.30169
4.30293
4.29937
4.29336
4.28594
4.27909
4.27196
4.26344
4.25026
4.23126
4.20376
4.17819
4.15827
4.13879
4.1178
4.09414
4.066
4.03382
4.00262
3.97624
3.9536
3.93171
3.90835
3.88433
3.83523
9.49444
9.33669
9.17525
9.00964
8.84008
8.66805
8.49588
8.32365
8.1489
7.96819
7.78484
7.60712
7.44055
7.28443
7.10885
6.9191
6.73787
6.57849
6.43665
6.29089
6.14058
5.98062
5.80989
5.6575
5.52698
5.40392
5.28357
5.15996
5.02601
4.8851
4.75389
4.64439
4.55113
4.46674
4.38329
4.29061
4.18838
4.09119
4.01396
3.95141
3.89766
3.85061
3.80248
3.75013
3.70269
3.66869
3.64589
3.6285
3.61568
3.61537
3.62374
3.65021
3.67606
3.69885
3.72654
3.75995
3.80007
3.84759
3.90355
3.96846
4.0311
4.07917
4.11862
4.14832
4.17343
4.20414
4.24411
4.27343
4.28677
4.29401
4.29527
4.29836
4.30362
4.30695
4.30387
4.29501
4.28432
4.27272
4.25912
4.24347
4.22462
4.20296
4.17969
4.15697
4.13488
4.11183
4.08743
4.06181
4.0342
4.00598
3.97963
3.95536
3.93211
3.90814
3.88419
3.83639
9.51035
9.3531
9.19192
9.02704
8.85917
8.68965
8.51881
8.34605
8.16981
7.99033
7.8114
7.63755
7.47202
7.30422
7.12142
6.93775
6.76649
6.6117
6.46563
6.31369
6.1554
5.99013
5.83366
5.69398
5.56162
5.43215
5.30255
5.16719
5.02647
4.89332
4.77794
4.67515
4.57657
4.47829
4.37859
4.27561
4.1793
4.10156
4.03607
3.97044
3.90176
3.83611
3.77649
3.72465
3.68889
3.66113
3.63597
3.60934
3.58118
3.57397
3.57855
3.60196
3.63623
3.6672
3.70159
3.74007
3.78441
3.83655
3.89896
3.97205
4.03863
4.08764
4.12302
4.15054
4.17861
4.21391
4.25701
4.28102
4.29222
4.29515
4.29661
4.30101
4.30889
4.31625
4.31333
4.30446
4.28849
4.27229
4.25792
4.24304
4.22632
4.20664
4.18375
4.15898
4.13494
4.11167
4.08789
4.06322
4.03787
4.01273
3.98737
3.96219
3.93741
3.9117
3.88712
3.84335
9.52259
9.3655
9.20461
9.04041
8.87343
8.70445
8.53307
8.3593
8.18344
8.0069
7.83198
7.66013
7.48876
7.31055
7.13041
6.95592
6.79317
6.64361
6.4843
6.32231
6.15654
6.00154
5.85894
5.72306
5.5891
5.45305
5.31097
5.16683
5.03016
4.90947
4.80344
4.70267
4.60026
4.48955
4.37284
4.26607
4.17926
4.11141
4.0523
3.99271
3.9229
3.8383
3.75671
3.70562
3.67457
3.65182
3.62962
3.60208
3.56235
3.54265
3.54482
3.56322
3.59926
3.63559
3.67457
3.71926
3.76921
3.82512
3.89029
3.96414
4.02478
4.0711
4.10891
4.14205
4.17595
4.21892
4.26588
4.28802
4.29893
4.30254
4.30514
4.30779
4.31544
4.32478
4.3225
4.31424
4.29754
4.27903
4.26409
4.24882
4.23143
4.21171
4.18875
4.16232
4.13656
4.11372
4.09101
4.06758
4.04476
4.022
3.99725
3.9709
3.94433
3.9165
3.89262
3.85414
9.5292
9.37224
9.2115
9.04766
8.881
8.7118
8.53998
8.36608
8.19154
8.01779
7.84552
7.6728
7.49533
7.31536
7.13894
6.97213
6.82229
6.66387
6.4936
6.32311
6.15969
6.0134
5.87599
5.74095
5.60548
5.46311
5.31085
5.16144
5.03421
4.92579
4.82372
4.72121
4.61124
4.48876
4.36191
4.25627
4.18089
4.1186
4.05795
3.99343
3.91813
3.82339
3.73709
3.69438
3.66394
3.63849
3.61402
3.58769
3.54189
3.51312
3.51372
3.53046
3.56983
3.61192
3.65332
3.7009
3.75394
3.81157
3.87611
3.94743
4.02208
4.08086
4.12149
4.15603
4.1902
4.23375
4.27995
4.30094
4.31173
4.3153
4.31656
4.31766
4.32372
4.33384
4.3321
4.3238
4.30572
4.28482
4.2696
4.25505
4.23884
4.2197
4.19584
4.16654
4.13691
4.11323
4.09411
4.07596
4.05707
4.03647
4.01193
3.98184
3.95
3.92267
3.90483
3.86927
)
;

boundaryField
{
    inlet
    {
        type            fixedValue;
        value           uniform 1;
    }
    outlet
    {
        type            zeroGradient;
    }
    bottom
    {
        type            symmetryPlane;
    }
    top
    {
        type            symmetryPlane;
    }
    obstacle
    {
        type            zeroGradient;
    }
    defaultFaces
    {
        type            empty;
    }
}


// ************************************************************************* //
