/*--------------------------------*- C++ -*----------------------------------*\
  =========                 |
  \\      /  F ield         | OpenFOAM: The Open Source CFD Toolbox
   \\    /   O peration     | Website:  https://openfoam.org
    \\  /    A nd           | Version:  7
     \\/     M anipulation  |
\*---------------------------------------------------------------------------*/
FoamFile
{
    version     2.0;
    format      ascii;
    class       volScalarField;
    location    "19.5";
    object      rho;
}
// * * * * * * * * * * * * * * * * * * * * * * * * * * * * * * * * * * * * * //

dimensions      [1 -3 0 0 0 0 0];

internalField   nonuniform List<scalar> 
4032
(
1.40001
1.40001
1.40001
1.40001
1.40001
1.40001
1.40001
1.40001
1.40001
1.40001
1.40001
2.46298
5.12858
5.4635
5.51898
5.59108
5.65429
5.71336
5.76743
5.81637
5.85964
5.89461
5.92215
5.94265
1.40001
1.40001
1.40001
1.40001
1.40001
1.40001
1.40001
1.40001
1.40001
1.40001
1.40001
2.40852
5.07945
5.457
5.5148
5.5859
5.6473
5.70413
5.75572
5.80189
5.84256
5.87524
5.90088
5.92064
1.40001
1.40001
1.40001
1.40001
1.40001
1.40001
1.40001
1.40001
1.40001
1.40001
1.40001
2.29
5.01037
5.45151
5.50553
5.57553
5.63528
5.69
5.73868
5.78104
5.81758
5.84681
5.8692
5.88846
1.40001
1.40001
1.40001
1.40001
1.40001
1.40001
1.40001
1.40001
1.40001
1.40001
1.40001
2.11645
4.90371
5.45268
5.49616
5.56285
5.6188
5.66997
5.71497
5.75332
5.78504
5.80858
5.8231
5.83517
1.40001
1.40001
1.40001
1.40001
1.40001
1.40001
1.40001
1.40001
1.40001
1.40001
1.40001
1.89608
4.7408
5.46988
5.49164
5.54929
5.59758
5.64319
5.68138
5.7106
5.73066
5.74585
5.75429
5.77159
1.40001
1.40001
1.40001
1.40001
1.40001
1.40001
1.40001
1.40001
1.40001
1.40001
1.40001
1.66917
4.5236
5.46981
5.46857
5.52427
5.56773
5.60715
5.63731
5.65858
5.67135
5.68257
5.68447
5.67277
1.40001
1.40001
1.40001
1.40001
1.40001
1.40001
1.40001
1.40001
1.40001
1.40001
1.40001
1.43769
4.20244
5.4425
5.44194
5.48854
5.52125
5.55456
5.57604
5.5842
5.57748
5.55259
5.5195
5.50657
1.40001
1.40001
1.40001
1.40001
1.40001
1.40001
1.40001
1.40001
1.40001
1.40001
1.40001
1.40053
3.72711
5.28989
5.35544
5.41527
5.45573
5.4814
5.49142
5.48604
5.4608
5.41572
5.3374
5.28883
1.40001
1.40001
1.40001
1.40001
1.40001
1.40001
1.40001
1.40001
1.40001
1.40001
1.40001
1.4
3.18662
5.14899
5.31173
5.35923
5.39094
5.40291
5.40047
5.37838
5.32071
5.2071
4.88609
3.91991
1.40001
1.40001
1.40001
1.40001
1.40001
1.40001
1.40001
1.40001
1.40001
1.40001
1.40001
1.4
2.61648
4.98496
5.28102
5.31512
5.33176
5.33276
5.31128
5.26604
5.1727
4.98005
4.64097
3.71181
1.40001
1.40001
1.40001
1.40001
1.40001
1.40001
1.40001
1.40001
1.40001
1.40001
1.40001
1.4
1.99799
4.76102
5.32783
5.30367
5.29385
5.271
5.22505
5.15106
5.0341
4.80864
4.47039
3.65281
1.40001
1.40001
1.40001
1.40001
1.40001
1.40001
1.40001
1.40001
1.40001
1.40001
1.40001
1.40001
1.4926
4.26377
5.3493
5.28116
5.24584
5.20547
5.1457
5.05245
4.91468
4.68846
4.34046
3.70667
1.40001
1.40001
1.40001
1.40001
1.40001
1.40001
1.40001
1.40001
1.40001
1.40001
1.40001
1.40001
1.40088
3.48866
5.14925
5.22707
5.20717
5.15853
5.08615
4.97871
4.82625
4.60651
4.27064
3.79315
1.40001
1.40001
1.40001
1.40001
1.40001
1.40001
1.40001
1.40001
1.40001
1.40001
1.40001
1.40001
1.39999
2.59835
4.94066
5.22142
5.18999
5.14366
5.06089
4.94039
4.77831
4.56112
4.25829
3.90019
1.40001
1.40001
1.40001
1.40001
1.40001
1.40001
1.40001
1.40001
1.40001
1.40001
1.40001
1.40001
1.4
1.77039
4.67164
5.28595
5.19738
5.12545
5.03488
4.91635
4.75672
4.54984
4.2895
4.03094
1.40001
1.40001
1.40001
1.40001
1.40001
1.40001
1.40001
1.40001
1.40001
1.40001
1.40001
1.40001
1.4
1.42487
3.91431
5.11886
5.13295
5.1019
5.02918
4.91762
4.76521
4.57971
4.36668
4.16734
1.40001
1.40001
1.40001
1.40001
1.40001
1.40001
1.40001
1.40001
1.40001
1.40001
1.40001
1.40001
1.40001
1.3999
2.90331
4.95689
5.14856
5.11099
5.0399
4.93696
4.80305
4.64473
4.47036
4.30294
1.40001
1.40001
1.40001
1.40001
1.40001
1.40001
1.40001
1.40001
1.40001
1.40001
1.40001
1.40001
1.40001
1.39998
1.93696
4.76642
5.22796
5.13855
5.05944
4.96266
4.84787
4.71636
4.57326
4.42722
1.40001
1.40001
1.40001
1.40001
1.40001
1.40001
1.40001
1.40001
1.40001
1.40001
1.40001
1.40001
1.40001
1.4
1.45179
4.06419
5.15871
5.12946
5.07088
5.00275
4.90704
4.79637
4.67446
4.54609
1.40001
1.40001
1.40001
1.40001
1.40001
1.40001
1.40001
1.40001
1.40001
1.40001
1.40001
1.40001
1.40001
1.4
1.40009
3.0896
5.01359
5.17034
5.12373
5.06016
4.97076
4.87376
4.76549
4.64987
1.40001
1.40001
1.40001
1.40001
1.40001
1.40001
1.40001
1.40001
1.40001
1.40001
1.40001
1.40001
1.40001
1.40001
1.4
2.12176
4.89774
5.34758
5.21592
5.12585
5.03788
4.94818
4.84593
4.74033
1.40001
1.40001
1.40001
1.40001
1.40001
1.40001
1.40001
1.40001
1.40001
1.40001
1.40001
1.40001
1.40001
1.40001
1.4
1.49674
4.40968
5.35451
5.22822
5.16302
5.09327
5.01315
4.91855
4.8227
1.40001
1.40001
1.40001
1.40001
1.40001
1.40001
1.40001
1.40001
1.40001
1.40001
1.40001
1.40001
1.40001
1.40001
1.4
1.40085
3.66899
5.27826
5.2453
5.20383
5.14019
5.06394
4.97624
4.88934
1.40001
1.40001
1.40001
1.40001
1.40001
1.40001
1.40001
1.40001
1.40001
1.40001
1.40001
1.40001
1.40001
1.40001
1.40001
1.4
2.95385
5.15937
5.31711
5.24888
5.17929
5.10358
5.02295
4.94433
1.40001
1.40001
1.40001
1.40001
1.40001
1.40001
1.40001
1.40001
1.40001
1.40001
1.40001
1.40001
1.40001
1.40001
1.40001
1.4
2.32971
4.97174
5.36834
5.26244
5.19774
5.12813
5.05718
4.98675
1.40001
1.40001
1.40001
1.40001
1.40001
1.40001
1.40001
1.40001
1.40001
1.40001
1.40001
1.40001
1.40001
1.40001
1.40001
1.4
1.8092
4.75882
5.45823
5.30912
5.24103
5.17057
5.10098
5.03046
1.40001
1.40001
1.40001
1.40001
1.40001
1.40001
1.40001
1.40001
1.40001
1.40001
1.40001
1.40001
1.40001
1.40001
1.40001
1.40001
1.46973
4.42085
5.45475
5.30391
5.2397
5.17669
5.11437
5.04884
1.40001
1.40001
1.40001
1.40001
1.40001
1.40001
1.40001
1.40001
1.40001
1.40001
1.40001
1.40001
1.40001
1.40001
1.40001
1.40001
1.40139
3.9859
5.39506
5.28231
5.23078
5.1762
5.11908
5.05739
1.40001
1.40001
1.40001
1.40001
1.40001
1.40001
1.40001
1.40001
1.40001
1.40001
1.40001
1.40001
1.40001
1.40001
1.40001
1.40001
1.40001
3.58038
5.3082
5.2766
5.22343
5.17334
5.1183
5.05917
1.40001
1.40001
1.40001
1.40001
1.40001
1.40001
1.40001
1.40001
1.40001
1.40001
1.40001
1.40001
1.40001
1.40001
1.40001
1.40001
1.40001
3.22681
5.22005
5.29318
5.22748
5.17944
5.12331
5.06406
1.40001
1.40001
1.40001
1.40001
1.40001
1.40001
1.40001
1.40001
1.40001
1.40001
1.40001
1.40001
1.40001
1.40001
1.40001
1.40001
1.40001
2.9105
5.15817
5.31906
5.24159
5.19553
5.13732
5.07783
1.40001
1.40001
1.40001
1.40001
1.40001
1.40001
1.40001
1.40001
1.40001
1.40001
1.40001
1.40001
1.40001
1.40001
1.40001
1.40001
1.40001
2.60643
5.10419
5.36444
5.27487
5.22657
5.16585
5.10497
1.40001
1.40001
1.40001
1.40001
1.40001
1.40001
1.40001
1.40001
1.40001
1.40001
1.40001
1.40001
1.40001
1.40001
1.40001
1.40001
1.40001
2.34182
5.02218
5.40786
5.305
5.25136
5.1899
5.1294
1.40001
1.40001
1.40001
1.40001
1.40001
1.40001
1.40001
1.40001
1.40001
1.40001
1.40001
1.40001
1.40001
1.40001
1.40001
1.40001
1.40001
2.1325
4.91629
5.43576
5.32666
5.2725
5.21153
5.15108
1.40001
1.40001
1.40001
1.40001
1.40001
1.40001
1.40001
1.40001
1.40001
1.40001
1.40001
1.40001
1.40001
1.40001
1.40001
1.40001
1.40001
1.96539
4.8166
5.44644
5.33581
5.2841
5.22493
5.16573
1.40001
1.40001
1.40001
1.40001
1.40001
1.40001
1.40001
1.40001
1.40001
1.40001
1.40001
1.40001
1.40001
1.40001
1.40001
1.40001
1.40001
1.83221
4.73093
5.4464
5.33563
5.2848
5.22725
5.16986
1.40001
1.40001
1.40001
1.40001
1.40001
1.40001
1.40001
1.40001
1.40001
1.40001
1.40001
1.40001
1.40001
1.40001
1.40001
1.40001
1.40001
1.74917
4.64981
5.44025
5.33243
5.28215
5.22506
5.16839
1.40001
1.40001
1.40001
1.40001
1.40001
1.40001
1.40001
1.40001
1.40001
1.40001
1.40001
1.40001
1.40001
1.40001
1.40001
1.40001
1.40001
1.7005
4.58571
5.42974
5.32773
5.2789
5.22257
5.16644
1.40001
1.40001
1.40001
1.40001
1.40001
1.40001
1.40001
1.40001
1.40001
1.40001
1.40001
1.40001
1.40001
1.40001
1.40001
1.40001
1.40001
1.66866
4.54356
5.42355
5.3271
5.279
5.22295
5.16687
1.40001
1.40001
1.40001
1.40001
1.40001
1.40001
1.40001
1.40001
1.40001
1.40001
1.40001
1.40001
1.40001
1.40001
1.40001
1.40001
1.40001
1.65415
4.51955
5.41592
5.32473
5.2789
5.2237
5.16801
1.49578
1.5691
1.77756
1.96797
2.03644
2.04717
2.05257
2.06471
2.09649
2.14685
2.19232
2.22036
2.23536
2.24046
2.2377
2.23548
2.23938
2.25034
2.27063
2.29777
2.32715
2.3543
2.3774
2.39824
2.41736
2.43477
2.45178
2.46983
2.48996
2.51267
2.53761
2.5631
2.58686
2.60781
2.62422
2.63407
2.63685
2.63606
2.63409
2.63195
2.63001
2.62837
2.62691
2.62594
2.62564
2.62543
2.62402
2.61979
2.61135
2.59885
2.58395
2.56836
2.55287
2.53735
2.52116
2.50401
2.4869
2.47124
2.4577
2.4463
2.43567
2.42368
2.40934
2.39337
2.37699
2.36089
2.34457
2.32669
2.30787
2.29006
2.274
2.26048
2.25036
2.24283
2.23596
2.22894
2.22342
2.2209
2.21873
2.21565
2.2158
2.2182
2.22314
2.23235
2.24668
2.26712
2.29232
2.31897
2.34381
2.36548
2.38521
2.40391
2.42013
2.42899
2.43284
2.43531
2.23047
2.24145
2.1314
2.07647
2.08831
2.08806
2.09593
2.11994
2.14609
2.17692
2.20155
2.21161
2.21276
2.21626
2.22155
2.22977
2.24304
2.25703
2.27448
2.29749
2.32571
2.3561
2.38374
2.40555
2.42372
2.44218
2.46235
2.48447
2.50712
2.52847
2.54787
2.56593
2.58326
2.60036
2.6168
2.63061
2.63925
2.64237
2.64264
2.64296
2.64448
2.64668
2.64813
2.6466
2.6415
2.63491
2.62893
2.62393
2.61828
2.60877
2.59389
2.57612
2.5585
2.54294
2.52957
2.51671
2.50221
2.48579
2.46947
2.45476
2.44196
2.42989
2.41628
2.40029
2.38318
2.36631
2.35047
2.33502
2.31776
2.29962
2.28254
2.26754
2.25537
2.24623
2.23887
2.23186
2.22597
2.22229
2.21981
2.21762
2.21804
2.21978
2.2252
2.23573
2.25183
2.27406
2.30115
2.32952
2.35444
2.37417
2.39026
2.40494
2.4202
2.43353
2.44102
2.44275
2.69525
2.65409
2.39214
2.2136
2.19111
2.1957
2.20284
2.20497
2.19908
2.19011
2.19267
2.20597
2.21444
2.22379
2.24159
2.26771
2.29952
2.32689
2.34616
2.36038
2.37784
2.40298
2.43302
2.45997
2.48077
2.49773
2.51617
2.53955
2.56798
2.59788
2.62511
2.64735
2.66472
2.6784
2.69064
2.7026
2.71351
2.71966
2.72023
2.71822
2.7172
2.71919
2.72363
2.72776
2.72748
2.72074
2.70992
2.69879
2.68955
2.68186
2.67068
2.65332
2.6327
2.61149
2.59216
2.57634
2.56425
2.55245
2.53776
2.52139
2.50516
2.48987
2.47537
2.45887
2.43978
2.42022
2.40151
2.38418
2.3675
2.35119
2.33509
2.31945
2.30542
2.29362
2.28384
2.27585
2.26933
2.26371
2.2588
2.2558
2.2555
2.25531
2.25618
2.26399
2.27829
2.29913
2.32627
2.35686
2.38582
2.40918
2.42468
2.43478
2.44383
2.45376
2.46474
2.47206
3.0179
3.02392
2.79645
2.57903
2.55371
2.48911
2.39345
2.33155
2.30493
2.27857
2.25768
2.27649
2.30553
2.3228
2.33554
2.34882
2.36943
2.40044
2.42844
2.44618
2.46072
2.47815
2.50375
2.53686
2.57101
2.60084
2.62526
2.64749
2.67184
2.70045
2.73125
2.75956
2.78143
2.7961
2.80618
2.81579
2.82783
2.84013
2.84821
2.85005
2.84836
2.84629
2.8447
2.84437
2.84431
2.83869
2.82645
2.81151
2.79778
2.78717
2.77624
2.75966
2.74114
2.72041
2.69764
2.67734
2.66131
2.64732
2.63096
2.61354
2.59624
2.57883
2.56082
2.54213
2.52239
2.50217
2.4821
2.46237
2.44351
2.42582
2.40922
2.39385
2.38006
2.36738
2.35573
2.34574
2.33749
2.33049
2.3255
2.32398
2.32571
2.32851
2.33134
2.33899
2.35272
2.37102
2.39424
2.42149
2.44954
2.47518
2.49565
2.50581
2.51082
2.51494
2.52022
2.52977
3.3556
3.33941
3.13641
2.91311
2.83785
2.77094
2.65999
2.58375
2.56519
2.54352
2.4969
2.4674
2.47916
2.4911
2.48554
2.4871
2.49869
2.52152
2.55829
2.59146
2.61369
2.63354
2.65703
2.68629
2.72078
2.75623
2.78739
2.81288
2.83498
2.85761
2.88191
2.90559
2.92646
2.94237
2.95363
2.96318
2.97248
2.97996
2.98441
2.98574
2.98278
2.97932
2.97587
2.97161
2.96557
2.95542
2.94263
2.92983
2.91571
2.898
2.87797
2.85736
2.83847
2.82135
2.80403
2.78587
2.76595
2.74474
2.72365
2.70478
2.68841
2.67281
2.65654
2.63797
2.61648
2.59311
2.56994
2.54863
2.53006
2.51335
2.49676
2.48033
2.46529
2.45249
2.44142
2.43144
2.42215
2.41349
2.4064
2.40359
2.40556
2.41096
2.41635
2.427
2.44199
2.46061
2.48225
2.50601
2.5304
2.5538
2.57666
2.59297
2.59926
2.60213
2.60533
2.61001
3.63136
3.59629
3.39647
3.17782
3.07059
3.00395
2.90987
2.82962
2.81937
2.81554
2.78063
2.7307
2.72077
2.72708
2.71762
2.70033
2.69217
2.70264
2.73333
2.76179
2.77399
2.78542
2.80159
2.82553
2.85841
2.8899
2.91241
2.93125
2.94761
2.96394
2.98464
3.00991
3.03253
3.0464
3.05244
3.05419
3.05411
3.0568
3.06539
3.07601
3.07843
3.06851
3.05425
3.04266
3.03496
3.03209
3.02528
3.01112
2.99087
2.96734
2.946
2.93029
2.91646
2.9015
2.88348
2.86099
2.8359
2.81204
2.79308
2.77721
2.76226
2.74637
2.72772
2.70542
2.68073
2.65648
2.63587
2.61925
2.60315
2.58537
2.56628
2.54827
2.53353
2.52224
2.51348
2.5061
2.49932
2.49306
2.48646
2.48222
2.4833
2.49011
2.49991
2.51464
2.53354
2.5534
2.57012
2.58655
2.60349
2.62129
2.64256
2.66546
2.6804
2.68611
2.68629
2.68642
3.8494
3.78964
3.59064
3.38785
3.28241
3.22706
3.15026
3.05681
3.01342
3.00449
2.96868
2.91666
2.89831
2.90448
2.89719
2.87586
2.86266
2.86926
2.89243
2.91168
2.91313
2.90833
2.91559
2.93585
2.9661
2.989
2.99968
3.00993
3.02109
3.03369
3.05401
3.08209
3.09751
3.10244
3.10544
3.10919
3.11529
3.1284
3.14404
3.146
3.13916
3.12475
3.1117
3.10562
3.10885
3.10741
3.09439
3.07439
3.05091
3.03173
3.01855
3.00675
2.99126
2.97102
2.94737
2.92091
2.89879
2.88272
2.8679
2.85171
2.83332
2.81139
2.78498
2.75779
2.73368
2.7143
2.69889
2.68392
2.6665
2.64425
2.62163
2.6034
2.59014
2.58035
2.57351
2.56879
2.56481
2.56024
2.55329
2.54667
2.54841
2.55799
2.57202
2.59056
2.61086
2.6254
2.63639
2.64695
2.65923
2.67519
2.69588
2.71938
2.73663
2.74257
2.74225
2.7404
4.02028
3.93231
3.74137
3.55511
3.46158
3.41627
3.3474
3.26059
3.20833
3.18396
3.13819
3.07441
3.03332
3.02456
3.01422
2.98999
2.96649
2.96406
2.97812
2.99076
2.98921
2.9833
2.98775
3.00155
3.0239
3.0357
3.0413
3.04682
3.05637
3.07025
3.09223
3.11402
3.1209
3.1236
3.12744
3.13444
3.14592
3.15818
3.15905
3.15283
3.14636
3.1406
3.13828
3.13791
3.1295
3.11448
3.09659
3.07902
3.06671
3.05558
3.04192
3.02415
3.00145
2.97554
2.95522
2.94003
2.92653
2.91138
2.89433
2.8742
2.85056
2.82548
2.80206
2.78236
2.76547
2.74983
2.73431
2.71772
2.69654
2.67293
2.65489
2.64264
2.63225
2.62468
2.61954
2.61634
2.61307
2.60807
2.60198
2.60202
2.60939
2.62183
2.6352
2.64754
2.6574
2.66884
2.6829
2.69514
2.70674
2.7196
2.73307
2.74584
2.75745
2.76852
2.77487
2.78135
4.16964
4.05884
3.87633
3.70918
3.62222
3.57449
3.50477
3.4277
3.38172
3.34878
3.29466
3.22089
3.16693
3.14692
3.1323
3.10222
3.06461
3.04699
3.0496
3.05498
3.04853
3.03883
3.03721
3.04321
3.05584
3.06187
3.0648
3.06719
3.07317
3.08358
3.10083
3.11345
3.11742
3.11928
3.12373
3.13238
3.14612
3.1526
3.14907
3.14046
3.1354
3.13431
3.13782
3.13434
3.12079
3.0994
3.07925
3.06839
3.06077
3.05114
3.03572
3.01406
2.98793
2.96626
2.95079
2.93895
2.92568
2.90988
2.89048
2.86637
2.8418
2.82076
2.8036
2.7884
2.77366
2.75749
2.73835
2.71693
2.69594
2.67988
2.67039
2.66238
2.65389
2.64617
2.64113
2.63732
2.63383
2.63276
2.63658
2.64673
2.65904
2.66754
2.67274
2.67513
2.68138
2.69391
2.71349
2.72986
2.73502
2.73832
2.74314
2.74877
2.75679
2.77256
2.793
2.80432
4.30188
4.1803
4.00779
3.85761
3.77669
3.7213
3.64443
3.57206
3.52942
3.48906
3.42557
3.34574
3.29275
3.27132
3.25145
3.2155
3.16576
3.13184
3.12413
3.12382
3.11237
3.09442
3.08161
3.07909
3.08314
3.08404
3.08172
3.07977
3.08068
3.08513
3.09522
3.10431
3.10776
3.10889
3.1134
3.12342
3.13548
3.13747
3.1323
3.12535
3.12254
3.12599
3.13001
3.12143
3.10381
3.08221
3.06793
3.06049
3.05614
3.04478
3.02712
3.00227
2.97731
2.96178
2.95033
2.93871
2.92358
2.90569
2.88323
2.85579
2.8339
2.81934
2.80602
2.79288
2.77839
2.75987
2.73614
2.71075
2.69439
2.68648
2.68066
2.67518
2.66909
2.66221
2.65497
2.64965
2.64818
2.65281
2.66535
2.68124
2.69199
2.69522
2.69331
2.69618
2.70363
2.71511
2.73202
2.74182
2.74352
2.74306
2.74469
2.74933
2.75863
2.77633
2.7935
2.80244
4.42808
4.30357
4.1402
4.00151
3.92346
3.85899
3.77363
3.70224
3.65869
3.61072
3.53836
3.45427
3.406
3.38534
3.36049
3.31661
3.25553
3.21171
3.19624
3.18909
3.17385
3.14853
3.12314
3.11297
3.11067
3.10595
3.09828
3.09078
3.08741
3.08732
3.0911
3.09727
3.1002
3.10031
3.10325
3.11243
3.12395
3.12647
3.12148
3.11497
3.11482
3.12069
3.12132
3.11087
3.09118
3.07298
3.06476
3.06262
3.05725
3.04308
3.02134
2.99494
2.97822
2.96786
2.95929
2.94546
2.92773
2.90507
2.87651
2.85331
2.83903
2.82719
2.81476
2.8008
2.78513
2.76231
2.73444
2.7154
2.70578
2.69992
2.69543
2.69163
2.68765
2.68188
2.67435
2.67102
2.67333
2.68226
2.69763
2.71105
2.71822
2.7198
2.72176
2.72671
2.7325
2.73944
2.74485
2.74716
2.74878
2.75004
2.75199
2.75713
2.7673
2.77978
2.78746
2.79365
4.541
4.42298
4.27573
4.15049
4.07197
3.99591
3.89958
3.82412
3.77674
3.72145
3.64077
3.55323
3.50739
3.48489
3.45357
3.40238
3.33291
3.28698
3.26777
3.25277
3.22984
3.19589
3.161
3.14557
3.13805
3.12987
3.11831
3.10516
3.09564
3.09153
3.09072
3.09395
3.09566
3.09494
3.0958
3.10244
3.11272
3.11803
3.11562
3.10865
3.10837
3.11402
3.11312
3.10371
3.08586
3.07282
3.06888
3.06854
3.05918
3.04184
3.01677
2.99944
2.9905
2.98394
2.97154
2.95528
2.93365
2.90453
2.88131
2.86851
2.85739
2.84481
2.83079
2.81464
2.79137
2.76343
2.74509
2.73783
2.73159
2.72396
2.71825
2.71412
2.7092
2.70428
2.70386
2.70839
2.71703
2.72727
2.73535
2.74037
2.74452
2.75237
2.7614
2.76642
2.76735
2.76432
2.7578
2.75556
2.75736
2.76192
2.76654
2.77191
2.77586
2.77733
2.77708
2.78145
4.64267
4.53149
4.39574
4.28424
4.21016
4.12833
4.02553
3.94654
3.89443
3.83134
3.74237
3.65146
3.60465
3.57708
3.53777
3.47842
3.40355
3.35904
3.33623
3.31312
3.28202
3.23851
3.19752
3.17939
3.16868
3.15576
3.14017
3.12103
3.10532
3.09784
3.09367
3.09437
3.09435
3.09221
3.09013
3.09275
3.10032
3.10771
3.1083
3.10272
3.10075
3.10424
3.10495
3.09827
3.08272
3.07243
3.07156
3.06917
3.05637
3.0359
3.0149
3.00569
3.00153
2.99304
2.97786
2.95646
2.92681
2.90393
2.8931
2.88539
2.87513
2.8611
2.84227
2.81418
2.78777
2.77387
2.76885
2.76744
2.76285
2.75638
2.74639
2.73753
2.73268
2.73405
2.74296
2.75648
2.76686
2.7723
2.77246
2.77192
2.7772
2.78856
2.80011
2.80158
2.79637
2.78391
2.7737
2.77075
2.77189
2.77938
2.78269
2.78103
2.77715
2.77105
2.76765
2.77186
4.73262
4.62634
4.50286
4.40596
4.33565
4.24694
4.14138
4.06519
4.01142
3.94239
3.84668
3.7532
3.70381
3.66938
3.62123
3.55277
3.47586
3.43356
3.40651
3.37561
3.33564
3.28135
3.23802
3.21809
3.20302
3.18535
3.16489
3.13783
3.11689
3.10685
3.10069
3.09835
3.0948
3.08904
3.08258
3.08092
3.08548
3.09358
3.09407
3.08698
3.08231
3.08519
3.08965
3.08568
3.07167
3.06255
3.06091
3.05457
3.04225
3.0251
3.01055
3.00303
2.9962
2.98404
2.96667
2.94159
2.9164
2.90505
2.89701
2.88748
2.87488
2.85898
2.83464
2.80493
2.79022
2.78523
2.78497
2.78257
2.77843
2.77281
2.76154
2.75375
2.75394
2.76076
2.77543
2.79238
2.80286
2.80617
2.80391
2.80478
2.80964
2.81716
2.82248
2.82066
2.81185
2.79752
2.78986
2.78714
2.78803
2.79174
2.78844
2.78307
2.77383
2.76125
2.75825
2.76287
4.80561
4.7056
4.59612
4.51175
4.44283
4.35006
4.25012
4.18046
4.12723
4.05074
3.94698
3.8545
3.80437
3.76372
3.70723
3.63019
3.55464
3.51299
3.48054
3.44193
3.39185
3.3275
3.28543
3.26399
3.2441
3.2208
3.19312
3.15639
3.12978
3.11679
3.10874
3.10342
3.09577
3.0867
3.07276
3.06685
3.06789
3.07229
3.07092
3.06344
3.05691
3.05826
3.06275
3.06004
3.04739
3.03531
3.03261
3.02681
3.01591
2.99981
2.98534
2.9779
2.9709
2.95957
2.94342
2.91999
2.898
2.88619
2.87756
2.86799
2.85665
2.84244
2.81987
2.79562
2.78586
2.78188
2.7816
2.78153
2.7794
2.77622
2.7707
2.76903
2.77319
2.78354
2.79913
2.81273
2.82271
2.82603
2.82877
2.83142
2.83218
2.83155
2.83095
2.82676
2.81872
2.80967
2.80445
2.80087
2.79881
2.79513
2.78938
2.78159
2.76913
2.75953
2.75587
2.75644
4.86515
4.77115
4.67385
4.59705
4.52864
4.43444
4.33967
4.27628
4.22269
4.14107
4.03673
3.9522
3.90265
3.85628
3.79241
3.7083
3.63652
3.59293
3.55442
3.50894
3.44978
3.38034
3.33863
3.31282
3.28783
3.259
3.22396
3.1805
3.14952
3.13177
3.11807
3.10836
3.09756
3.07738
3.055
3.04635
3.04437
3.0454
3.04074
3.03123
3.02299
3.02268
3.02691
3.02563
3.01472
3.00077
2.99728
2.99387
2.98464
2.9703
2.95624
2.94646
2.93629
2.92463
2.91177
2.89673
2.87906
2.86424
2.85311
2.84144
2.82886
2.81571
2.801
2.78741
2.78148
2.77829
2.77622
2.77596
2.77643
2.77451
2.77545
2.7824
2.79261
2.80573
2.81862
2.82659
2.82906
2.8367
2.84504
2.84726
2.84569
2.83953
2.83126
2.82708
2.82593
2.8223
2.81745
2.81191
2.80551
2.79746
2.78741
2.77555
2.76629
2.76147
2.75916
2.7539
4.91146
4.82448
4.73839
4.66806
4.5971
4.50322
4.41536
4.35254
4.29671
4.21322
4.11169
4.03735
3.98824
3.93707
3.86675
3.77684
3.71101
3.66496
3.61975
3.56944
3.50437
3.43329
3.38922
3.35812
3.32967
3.29764
3.25507
3.20547
3.17144
3.1496
3.13063
3.11146
3.08831
3.0572
3.03256
3.02145
3.01657
3.01418
3.00667
2.99345
2.98215
2.98053
2.98555
2.98601
2.97572
2.96127
2.95778
2.95823
2.95223
2.94116
2.92639
2.91344
2.90156
2.89153
2.88364
2.87411
2.8608
2.84617
2.8316
2.81636
2.80124
2.79208
2.78749
2.78618
2.7819
2.77772
2.77388
2.77163
2.77127
2.7742
2.78329
2.79825
2.8144
2.8259
2.83207
2.83287
2.83932
2.85088
2.85965
2.86032
2.85648
2.8461
2.83549
2.83109
2.83026
2.83281
2.82836
2.82119
2.8101
2.79417
2.78022
2.77154
2.76682
2.7654
2.76249
2.75181
4.95399
4.87089
4.79191
4.72421
4.64793
4.55548
4.47392
4.41396
4.35403
4.26673
4.16927
4.09893
4.04949
3.98951
3.9117
3.82935
3.77387
3.72973
3.67705
3.61733
3.54932
3.48072
3.43206
3.39149
3.35034
3.30629
3.25562
3.20609
3.17674
3.15112
3.12766
3.10373
3.07312
3.03491
3.00833
2.99455
2.98626
2.97964
2.96846
2.95139
2.93851
2.93633
2.94185
2.94288
2.93361
2.92016
2.91677
2.91986
2.91919
2.91243
2.89832
2.88359
2.87438
2.86695
2.85991
2.85178
2.84197
2.82936
2.81478
2.80007
2.78724
2.78096
2.77863
2.77827
2.77863
2.7792
2.77731
2.77433
2.77596
2.78389
2.79911
2.81951
2.8356
2.84376
2.84489
2.84545
2.85184
2.86364
2.87462
2.87351
2.86394
2.84883
2.84096
2.83905
2.84349
2.84513
2.83801
2.82668
2.80852
2.78728
2.77568
2.77009
2.76652
2.76206
2.75694
2.74253
4.9769
4.90068
4.82868
4.76139
4.68218
4.59481
4.51957
4.46219
4.39615
4.30428
4.21231
4.14729
4.09615
4.03007
3.94583
3.86373
3.81034
3.76193
3.70697
3.64169
3.56602
3.50281
3.45616
3.41185
3.3658
3.3157
3.26023
3.21044
3.17529
3.14553
3.11719
3.08743
3.0509
3.01065
2.98336
2.96725
2.9554
2.94384
2.92848
2.90757
2.8954
2.8938
2.89955
2.90008
2.89169
2.87881
2.87461
2.87811
2.88185
2.87897
2.86778
2.85411
2.84712
2.84257
2.83664
2.82808
2.81833
2.8081
2.79853
2.79121
2.78391
2.77785
2.77569
2.77515
2.77725
2.78037
2.78198
2.78475
2.79208
2.80361
2.81845
2.83618
2.85237
2.85958
2.8601
2.8622
2.86534
2.86819
2.87522
2.87767
2.87132
2.85818
2.84934
2.8434
2.83892
2.8356
2.82884
2.81854
2.80221
2.78548
2.77571
2.76832
2.76111
2.75296
2.744
2.72451
4.99018
4.92055
4.85384
4.78572
4.70635
4.62481
4.5554
4.49807
4.424
4.33028
4.2463
4.1856
4.13077
4.05806
3.96896
3.89248
3.83993
3.78748
3.72631
3.65423
3.57803
3.5197
3.47077
3.42279
3.37329
3.31821
3.25746
3.20652
3.16849
3.13481
3.10184
3.06814
3.02931
2.9889
2.96106
2.94211
2.92575
2.90937
2.88921
2.86402
2.8513
2.84948
2.85463
2.8555
2.84852
2.83633
2.83081
2.83362
2.84004
2.8396
2.83105
2.82103
2.81706
2.81512
2.80881
2.79803
2.78749
2.78235
2.78014
2.78026
2.77797
2.77248
2.76865
2.76879
2.77241
2.77933
2.78905
2.80001
2.81202
2.82531
2.83856
2.85116
2.86408
2.87226
2.87523
2.87756
2.87744
2.87548
2.87478
2.87497
2.86985
2.86174
2.85317
2.84569
2.83794
2.82913
2.81855
2.80547
2.79108
2.77975
2.77063
2.76171
2.75233
2.74057
2.72523
2.70432
4.99586
4.93125
4.86726
4.79817
4.72112
4.64562
4.58099
4.52023
4.4398
4.3488
4.27279
4.21629
4.15649
4.07666
3.98556
3.91569
3.86338
3.80734
3.74142
3.66326
3.58945
3.5341
3.48358
3.43249
3.37835
3.31742
3.25371
3.20434
3.16565
3.13051
3.09475
3.05544
3.01179
2.96986
2.94179
2.92125
2.90222
2.88273
2.85908
2.83056
2.81488
2.81085
2.8138
2.81364
2.80671
2.79558
2.78967
2.79174
2.79753
2.79537
2.78778
2.78294
2.78315
2.784
2.77749
2.76464
2.75489
2.75297
2.75558
2.76336
2.76523
2.7636
2.75977
2.75907
2.76443
2.77561
2.79505
2.81571
2.83185
2.84398
2.85234
2.85896
2.86719
2.87936
2.88787
2.88985
2.88878
2.88297
2.87347
2.86785
2.86481
2.85981
2.85326
2.84579
2.83595
2.82274
2.80687
2.79121
2.77922
2.77009
2.76118
2.75133
2.73912
2.72209
2.70435
2.68975
5.00177
4.93897
4.87497
4.80565
4.73244
4.66266
4.60056
4.5338
4.45026
4.36578
4.29681
4.24274
4.17573
4.0894
4.00158
3.93785
3.88585
3.82653
3.7564
3.67484
3.60581
3.55119
3.49836
3.4441
3.38573
3.32109
3.25922
3.21102
3.17102
3.13299
3.094
3.05118
3.00365
2.96126
2.93245
2.90976
2.88877
2.86685
2.83982
2.80888
2.79066
2.78282
2.77986
2.7749
2.76582
2.75589
2.75224
2.75541
2.75819
2.75165
2.7426
2.74092
2.74459
2.74895
2.74525
2.73506
2.72532
2.7245
2.72947
2.74038
2.74505
2.74646
2.74533
2.74771
2.75682
2.77309
2.8
2.82664
2.84209
2.85084
2.85414
2.85852
2.86703
2.88044
2.89144
2.89342
2.89066
2.88092
2.86919
2.86306
2.85884
2.85395
2.84735
2.83927
2.82749
2.81122
2.79418
2.7812
2.77115
2.76178
2.75251
2.74118
2.72517
2.70582
2.69413
2.68153
5.01602
4.95342
4.88831
4.81909
4.74862
4.68164
4.61734
4.54436
4.46228
4.3851
4.32209
4.26558
4.18971
4.1
4.02093
3.96139
3.90888
3.84603
3.7715
3.6904
3.62737
3.57259
3.51793
3.46109
3.3988
3.3321
3.27355
3.22651
3.18423
3.14316
3.10032
3.0528
3.00254
2.96113
2.93083
2.90489
2.88062
2.85515
2.82391
2.79145
2.77168
2.75941
2.75006
2.73938
2.72609
2.71742
2.71668
2.72285
2.72454
2.71615
2.70356
2.70063
2.70556
2.71539
2.71756
2.71304
2.70364
2.70255
2.70696
2.71799
2.7281
2.73373
2.73841
2.74643
2.75792
2.77581
2.80322
2.83068
2.84424
2.84939
2.85128
2.85822
2.86832
2.88052
2.88857
2.88916
2.88368
2.87273
2.86581
2.86178
2.85718
2.85147
2.84382
2.83331
2.81906
2.80386
2.79124
2.7804
2.77013
2.75952
2.74784
2.73331
2.71679
2.70274
2.69447
2.68145
5.04184
4.9771
4.90933
4.83967
4.77087
4.70461
4.63656
4.56099
4.48299
4.41119
4.35076
4.2869
4.20475
4.11917
4.04714
3.9895
3.93309
3.86514
3.78497
3.71075
3.65336
3.59821
3.54184
3.48143
3.41369
3.34658
3.29161
3.24461
3.20002
3.15529
3.10778
3.05557
3.00487
2.96442
2.9316
2.90102
2.87119
2.84029
2.80487
2.77196
2.75218
2.73798
2.72422
2.70754
2.68815
2.67917
2.67958
2.6885
2.69152
2.68487
2.67133
2.66628
2.67175
2.68574
2.69523
2.69606
2.68971
2.68754
2.69289
2.70421
2.72123
2.73284
2.74186
2.7539
2.76873
2.78642
2.80829
2.82889
2.84051
2.84732
2.85599
2.86618
2.87686
2.88399
2.88545
2.88196
2.87503
2.87077
2.86812
2.86518
2.85997
2.85355
2.84409
2.83099
2.8176
2.80596
2.79538
2.78493
2.77406
2.76233
2.74706
2.73026
2.71601
2.7049
2.69746
2.68419
5.06664
5.00163
4.93416
4.86606
4.79869
4.73099
4.65905
4.58291
4.50844
4.44127
4.37937
4.30675
4.22167
4.13947
4.07491
4.02068
3.9571
3.88094
3.79907
3.73582
3.68
3.62248
3.56245
3.49698
3.42654
3.36281
3.30979
3.26107
3.21319
3.16398
3.11186
3.05811
3.00954
2.96915
2.93335
2.8984
2.86268
2.82564
2.78761
2.7568
2.73724
2.72034
2.70238
2.68067
2.65617
2.64611
2.64577
2.65358
2.65821
2.65582
2.64661
2.64031
2.64576
2.66127
2.67726
2.68229
2.68024
2.67995
2.68839
2.7023
2.72045
2.73835
2.75673
2.77444
2.7899
2.8034
2.81859
2.83508
2.84785
2.85794
2.86774
2.8784
2.88712
2.88952
2.88793
2.88196
2.8775
2.87541
2.87401
2.87046
2.86385
2.85645
2.8464
2.83283
2.82083
2.81161
2.80296
2.79398
2.78301
2.76522
2.74493
2.73062
2.72101
2.71238
2.70459
2.68911
5.08829
5.02354
4.9574
4.89074
4.82351
4.7539
4.68074
4.60711
4.53718
4.47222
4.4025
4.31879
4.23532
4.16798
4.11251
4.05173
3.9768
3.89217
3.81915
3.75922
3.70257
3.6416
3.57705
3.50797
3.43948
3.3799
3.32675
3.27529
3.22338
3.16931
3.11336
3.05985
3.01381
2.9738
2.93591
2.89786
2.85778
2.81455
2.77425
2.74616
2.72628
2.70771
2.68798
2.6636
2.63548
2.62272
2.62014
2.62438
2.63082
2.63154
2.62714
2.62283
2.62802
2.64214
2.66052
2.67111
2.67637
2.68053
2.69011
2.70471
2.7237
2.74733
2.77112
2.79293
2.81122
2.82701
2.839
2.84912
2.86071
2.87138
2.8817
2.89292
2.89794
2.89736
2.89236
2.88601
2.88327
2.88255
2.88375
2.87899
2.87173
2.86065
2.84596
2.83638
2.82904
2.82078
2.81111
2.79889
2.78267
2.76207
2.74528
2.7348
2.72546
2.71538
2.70572
2.68598
5.10414
5.04076
4.97605
4.91018
4.84267
4.77261
4.70096
4.63011
4.56151
4.49316
4.41796
4.33778
4.26365
4.19833
4.13853
4.06777
3.98644
3.9058
3.83947
3.78061
3.72088
3.6571
3.58751
3.51508
3.45125
3.39535
3.34172
3.28784
3.23207
3.1733
3.11366
3.06027
3.01616
2.97717
2.93915
2.89925
2.85537
2.8066
2.76398
2.73705
2.7166
2.6978
2.67854
2.65327
2.62259
2.60528
2.60066
2.60348
2.60861
2.6101
2.61173
2.61367
2.61601
2.62779
2.64522
2.65996
2.67053
2.68333
2.69974
2.71845
2.73919
2.76241
2.78605
2.80799
2.82741
2.84429
2.85885
2.87037
2.87805
2.88481
2.89204
2.90001
2.90317
2.90179
2.89735
2.89325
2.89006
2.88775
2.88614
2.88106
2.87333
2.86009
2.84581
2.83663
2.82805
2.81878
2.80842
2.7956
2.7783
2.75964
2.74586
2.73551
2.72545
2.71444
2.70319
2.67947
5.11014
5.04877
4.98572
4.92088
4.85395
4.78495
4.71529
4.64605
4.57702
4.50547
4.42921
4.35328
4.28246
4.21879
4.15325
4.07565
3.99381
3.92064
3.85812
3.80001
3.73665
3.6692
3.59483
3.52226
3.46132
3.40603
3.35199
3.29776
3.24082
3.17808
3.11503
3.06177
3.0172
2.97695
2.93892
2.90058
2.85476
2.80382
2.76171
2.73182
2.70816
2.68734
2.66655
2.64398
2.6184
2.5971
2.58668
2.58412
2.58529
2.58615
2.59129
2.59953
2.60683
2.61661
2.63138
2.64732
2.66393
2.6828
2.7055
2.73096
2.75744
2.78119
2.80182
2.82003
2.83616
2.8521
2.86874
2.88253
2.89035
2.89622
2.90046
2.90314
2.90406
2.90248
2.89979
2.89636
2.89303
2.88954
2.88545
2.87918
2.87014
2.85697
2.84461
2.83492
2.82548
2.8153
2.80376
2.79
2.77425
2.75893
2.74597
2.73487
2.72406
2.71247
2.70045
2.67573
5.10964
5.04943
4.98746
4.9235
4.85758
4.79018
4.72222
4.65378
4.58387
4.51111
4.43671
4.36402
4.29548
4.2308
4.15772
4.07819
4.00144
3.9334
3.87247
3.80956
3.74436
3.67445
3.59913
3.53129
3.47275
3.41723
3.36262
3.3062
3.24463
3.17933
3.11797
3.06637
3.02217
2.98195
2.94201
2.89747
2.84792
2.80046
2.76255
2.73164
2.70484
2.68151
2.65752
2.63114
2.60708
2.58982
2.57824
2.56937
2.56275
2.56256
2.56676
2.58008
2.59303
2.60443
2.61832
2.63508
2.65518
2.67891
2.70656
2.73849
2.76932
2.79301
2.81244
2.82705
2.83936
2.85432
2.87375