/*--------------------------------*- C++ -*----------------------------------*\
  =========                 |
  \\      /  F ield         | OpenFOAM: The Open Source CFD Toolbox
   \\    /   O peration     | Website:  https://openfoam.org
    \\  /    A nd           | Version:  7
     \\/     M anipulation  |
\*---------------------------------------------------------------------------*/
FoamFile
{
    version     2.0;
    format      ascii;
    class       volScalarField;
    location    "19.5";
    object      T;
}
// * * * * * * * * * * * * * * * * * * * * * * * * * * * * * * * * * * * * * //

dimensions      [0 0 0 1 0 0 0];

internalField   nonuniform List<scalar> 
4032
(
1
1
1
1
1
1
1
1
1
1
1
1.72558
2.63411
2.71883
2.73029
2.74434
2.75624
2.76722
2.77742
2.78708
2.79623
2.80408
2.81018
2.81432
1
1
1
1
1
1
1
1
1
1
1
1.70304
2.62475
2.71767
2.72913
2.74288
2.75448
2.76511
2.77491
2.78412
2.79282
2.80028
2.80608
2.81012
1
1
1
1
1
1
1
1
1
1
1
1.64083
2.60334
2.71297
2.72487
2.739
2.75067
2.76127
2.77084
2.77959
2.78771
2.79469
2.80009
2.80417
1
1
1
1
1
1
1
1
1
1
1
1.53802
2.56242
2.70312
2.71667
2.7322
2.74434
2.75514
2.76471
2.77328
2.78092
2.78711
2.7912
2.79394
1
1
1
1
1
1
1
1
1
1
1
1.39774
2.50231
2.69266
2.70589
2.72286
2.73535
2.74633
2.75562
2.7634
2.76957
2.77423
2.77653
2.77954
1
1
1
1
1
1
1
1
1
1
1
1.22137
2.41936
2.68116
2.69212
2.71098
2.72346
2.73425
2.74324
2.75094
2.75684
2.76058
2.75847
2.75114
1
1
1
1
1
1
1
1
1
1
1
1.02379
2.32481
2.67895
2.68363
2.69738
2.70744
2.71767
2.7264
2.7331
2.73575
2.73309
2.72345
2.71304
1
1
1
1
1
1
1
1
1
1
1
1.00023
2.19945
2.66195
2.66833
2.67926
2.68911
2.69751
2.7047
2.70891
2.70775
2.70414
2.69993
2.71361
1
1
1
1
1
1
1
1
1
1
1
0.999999
2.0157
2.63322
2.66104
2.66905
2.67492
2.67922
2.68237
2.68131
2.67426
2.65737
2.61425
2.52891
1
1
1
1
1
1
1
1
1
1
1
1
1.76085
2.55594
2.64024
2.65522
2.66121
2.66341
2.66077
2.6543
2.63903
2.6053
2.55264
2.41238
1
1
1
1
1
1
1
1
1
1
1
1
1.39508
2.41406
2.61563
2.63579
2.64491
2.64465
2.63955
2.62783
2.6069
2.56462
2.50189
2.32964
1
1
1
1
1
1
1
1
1
1
1
1
1.04621
2.2709
2.6045
2.60706
2.61639
2.61953
2.61557
2.60289
2.5788
2.53527
2.46421
2.32352
1
1
1
1
1
1
1
1
1
1
1
1
1.00043
2.07849
2.56069
2.57833
2.58883
2.59176
2.58881
2.57747
2.55382
2.5131
2.44308
2.33328
1
1
1
1
1
1
1
1
1
1
1
1
0.999996
1.71539
2.47925
2.55469
2.56454
2.56825
2.56434
2.55313
2.53107
2.49367
2.43153
2.35152
1
1
1
1
1
1
1
1
1
1
1
1
0.999999
1.22117
2.33903
2.55498
2.54617
2.54437
2.53896
2.52813
2.50782
2.47452
2.42655
2.37399
1
1
1
1
1
1
1
1
1
1
1
1
1
1.01231
2.18431
2.52753
2.52627
2.52438
2.5184
2.50658
2.4872
2.46067
2.42695
2.39175
1
1
1
1
1
1
1
1
1
1
1
1
1
1
1.83722
2.47569
2.52088
2.51542
2.50654
2.49353
2.47597
2.45429
2.42865
2.40255
1
1
1
1
1
1
1
1
1
1
1
1
1
0.999996
1.31948
2.35355
2.52237
2.5096
2.4996
2.48614
2.46993
2.4514
2.43062
2.40859
1
1
1
1
1
1
1
1
1
1
1
1
1
0.999999
1.02529
2.21181
2.51481
2.50793
2.49705
2.48706
2.47223
2.45474
2.4355
2.41544
1
1
1
1
1
1
1
1
1
1
1
1
1
1
1.00008
1.91116
2.48671
2.512
2.50268
2.49161
2.47665
2.46053
2.44234
2.42299
1
1
1
1
1
1
1
1
1
1
1
1
1
1
0.999999
1.43402
2.39874
2.5364
2.51351
2.49878
2.48385
2.46834
2.45024
2.43149
1
1
1
1
1
1
1
1
1
1
1
1
1
1
1
1.048
2.29053
2.54943
2.52381
2.50918
2.49451
2.47864
2.46044
2.44229
1
1
1
1
1
1
1
1
1
1
1
1
1
1
1
1.00041
2.12817
2.56198
2.5469
2.53055
2.51218
2.49344
2.47392
2.45551
1
1
1
1
1
1
1
1
1
1
1
1
1
1
1
0.999998
1.89372
2.5669
2.57335
2.555
2.5341
2.51273
2.49186
2.4727
1
1
1
1
1
1
1
1
1
1
1
1
1
1
1
0.999999
1.60553
2.51598
2.58949
2.56623
2.5485
2.52939
2.51021
2.49166
1
1
1
1
1
1
1
1
1
1
1
1
1
1
1
1
1.28555
2.42259
2.61259
2.58341
2.56728
2.5496
2.53153
2.51314
1
1
1
1
1
1
1
1
1
1
1
1
1
1
1
1
1.05212
2.34991
2.63219
2.60033
2.58362
2.56695
2.55014
2.53262
1
1
1
1
1
1
1
1
1
1
1
1
1
1
1
1
1.00087
2.25304
2.64517
2.61918
2.60314
2.58696
2.57049
2.55334
1
1
1
1
1
1
1
1
1
1
1
1
1
1
1
1
1
2.14269
2.64989
2.63925
2.62317
2.60754
2.59123
2.57438
1
1
1
1
1
1
1
1
1
1
1
1
1
1
1
1
1
2.01999
2.6381
2.6492
2.63407
2.62146
2.60674
2.59121
1
1
1
1
1
1
1
1
1
1
1
1
1
1
1
1
1
1.88916
2.60736
2.6504
2.6347
2.62501
2.61266
2.59978
1
1
1
1
1
1
1
1
1
1
1
1
1
1
1
1
1
1.75403
2.57075
2.65032
2.63363
2.62511
2.61409
2.60265
1
1
1
1
1
1
1
1
1
1
1
1
1
1
1
1
1
1.63075
2.5403
2.65007
2.63124
2.62309
2.61262
2.60169
1
1
1
1
1
1
1
1
1
1
1
1
1
1
1
1
1
1.52782
2.51801
2.65314
2.63225
2.62301
2.61214
2.60111
1
1
1
1
1
1
1
1
1
1
1
1
1
1
1
1
1
1.43381
2.4959
2.6593
2.63697
2.62634
2.6146
2.60303
1
1
1
1
1
1
1
1
1
1
1
1
1
1
1
1
1
1.34777
2.47251
2.66508
2.64291
2.63206
2.61989
2.60785
1
1
1
1
1
1
1
1
1
1
1
1
1
1
1
1
1
1.29384
2.4549
2.66961
2.64817
2.63772
2.62576
2.6138
1
1
1
1
1
1
1
1
1
1
1
1
1
1
1
1
1
1.26044
2.44114
2.67235
2.65204
2.64202
2.6304
2.61872
1
1
1
1
1
1
1
1
1
1
1
1
1
1
1
1
1
1.23579
2.42955
2.67365
2.65445
2.64468
2.63325
2.62176
1
1
1
1
1
1
1
1
1
1
1
1
1
1
1
1
1
1.22555
2.4242
2.67306
2.65476
2.64546
2.63423
2.62287
1.85552
2.05629
2.31118
2.44024
2.48003
2.49275
2.503
2.51768
2.53928
2.56527
2.58655
2.60054
2.60843
2.61102
2.6091
2.60669
2.60647
2.60914
2.61592
2.62479
2.63334
2.64017
2.6451
2.64868
2.65144
2.65363
2.65524
2.6565
2.65794
2.65993
2.66246
2.66507
2.66695
2.66749
2.66621
2.66204
2.65537
2.64726
2.63864
2.63006
2.62167
2.6136
2.60581
2.59834
2.59126
2.58443
2.57728
2.56961
2.56067
2.55015
2.53873
2.52724
2.51609
2.50521
2.49416
2.48273
2.4713
2.46054
2.45084
2.44227
2.43425
2.4258
2.41648
2.4067
2.39705
2.38782
2.37876
2.36917
2.35921
2.34974
2.34119
2.33392
2.32828
2.32385
2.31971
2.31541
2.31171
2.30928
2.30694
2.30498
2.30287
2.30209
2.30287
2.30537
2.30992
2.31686
2.32558
2.3347
2.34296
2.34983
2.35573
2.36129
2.36599
2.36706
2.3666
2.36412
2.11603
2.25797
2.38396
2.45016
2.48055
2.49298
2.50892
2.53134
2.55161
2.5708
2.58462
2.59021
2.59122
2.59235
2.59412
2.59686
2.60055
2.604
2.60897
2.61573
2.62366
2.63171
2.63812
2.64167
2.64321
2.64426
2.64551
2.64704
2.64814
2.64826
2.64741
2.6456
2.64343
2.64122
2.63877
2.63534
2.6301
2.62284
2.61453
2.60641
2.59905
2.59227
2.58555
2.57771
2.56873
2.55948
2.55065
2.54254
2.53452
2.52526
2.51426
2.50243
2.49087
2.48025
2.47062
2.46133
2.45154
2.44118
2.43107
2.4218
2.41341
2.40535
2.39676
2.38739
2.37786
2.36868
2.36014
2.35191
2.34306
2.33399
2.32553
2.31813
2.31208
2.30736
2.30336
2.29945
2.29599
2.29346
2.29132
2.29001
2.28831
2.28787
2.28894
2.29202
2.29742
2.30527
2.31491
2.32482
2.33315
2.33924
2.34372
2.34764
2.35195
2.35507
2.35564
2.35371
2.1398
2.20585
2.23765
2.313
2.38839
2.44266
2.48491
2.51271
2.5261
2.53181
2.54018
2.55036
2.55553
2.55959
2.56695
2.57773
2.58945
2.59703
2.59986
2.59944
2.59956
2.60246
2.6067
2.60891
2.6078
2.60334
2.59891
2.59671
2.59629
2.59624
2.59512
2.5916
2.58607
2.57969
2.57345
2.56773
2.56206
2.55538
2.54725
2.53819
2.52989
2.52303
2.51729
2.51198
2.50537
2.49659
2.48701
2.47737
2.46859
2.46087
2.45242
2.44237
2.43157
2.42071
2.41053
2.40165
2.3943
2.38728
2.37948
2.3713
2.36327
2.35556
2.34813
2.33997
2.33094
2.32196
2.31355
2.30588
2.29865
2.29171
2.28498
2.2786
2.273
2.26832
2.26442
2.26119
2.25856
2.2563
2.25421
2.25326
2.25293
2.25258
2.25264
2.25516
2.26015
2.26763
2.27735
2.28814
2.29805
2.3056
2.30999
2.31229
2.31427
2.31637
2.31854
2.31913
2.17511
2.21856
2.18779
2.21405
2.28498
2.34082
2.37231
2.40205
2.42826
2.44041
2.44639
2.46458
2.48387
2.49334
2.49877
2.50274
2.50794
2.51399
2.51595
2.51344
2.50767
2.50217
2.49958
2.49924
2.49853
2.49501
2.48871
2.48204
2.47681
2.47332
2.47062
2.46737
2.46245
2.45567
2.44817
2.44151
2.43669
2.433
2.42894
2.42349
2.41649
2.40932
2.40255
2.39695
2.39191
2.38539
2.37768
2.3693
2.36118
2.35425
2.3478
2.34035
2.33301
2.32528
2.31677
2.30872
2.30194
2.29596
2.28945
2.28294
2.27676
2.27066
2.26425
2.25737
2.25
2.24261
2.2356
2.22897
2.22279
2.21704
2.2117
2.20688
2.20275
2.19913
2.19593
2.19338
2.19146
2.18993
2.18931
2.18982
2.19157
2.19374
2.19548
2.19873
2.2039
2.21052
2.21866
2.22796
2.23736
2.2457
2.25209
2.25471
2.25558
2.25601
2.25656
2.25832
2.23461
2.25038
2.20864
2.17826
2.19612
2.22523
2.24022
2.26472
2.30061
2.33089
2.33616
2.33946
2.35397
2.36504
2.36516
2.36574
2.36743
2.36977
2.37393
2.37526
2.37258
2.36687
2.36197
2.35918
2.35818
2.35734
2.35451
2.34934
2.34394
2.33968
2.33636
2.33349
2.33064
2.32697
2.32238
2.31792
2.31406
2.31045
2.3069
2.30373
2.29912
2.29387
2.28855
2.28346
2.27867
2.2735
2.26805
2.26275
2.2568
2.24949
2.242
2.23536
2.22982
2.22491
2.21994
2.21444
2.20795
2.20103
2.19453
2.18903
2.18459
2.18065
2.17653
2.17144
2.16515
2.15816
2.15142
2.14556
2.14077
2.13658
2.13238
2.12824
2.12463
2.12182
2.11966
2.11797
2.11662
2.11524
2.11501
2.11544
2.11729
2.12068
2.12377
2.12841
2.13415
2.1409
2.14839
2.1562
2.16393
2.17119
2.1783
2.18327
2.18501
2.18554
2.18596
2.18643
2.28818
2.28965
2.24731
2.19426
2.18284
2.18496
2.18078
2.18513
2.20281
2.22894
2.23544
2.2346
2.23911
2.24984
2.25002
2.2476
2.24255
2.24313
2.24702
2.2489
2.24629
2.24165
2.23843
2.23721
2.23856
2.24036
2.23951
2.23645
2.23279
2.23036
2.22983
2.23074
2.2316
2.23086
2.22785
2.22386
2.21976
2.21716
2.21633
2.21658
2.216
2.21087
2.20468
2.19965
2.19595
2.19401
2.1911
2.18647
2.18025
2.17283
2.16627
2.16182
2.15802
2.15378
2.14892
2.14287
2.13586
2.12921
2.12416
2.11994
2.11588
2.11182
2.1073
2.10173
2.09531
2.08887
2.08349
2.07936
2.07544
2.07108
2.06637
2.06209
2.05887
2.05667
2.05523
2.05431
2.05375
2.05333
2.05318
2.05324
2.05404
2.0573
2.06162
2.06722
2.07386
2.08074
2.08643
2.09161
2.09649
2.10148
2.10772
2.1147
2.11958
2.1212
2.121
2.12048
2.33419
2.32458
2.28088
2.23052
2.20306
2.19645
2.18666
2.17377
2.17394
2.18168
2.18075
2.17492
2.17358
2.17848
2.17887
2.17545
2.16997
2.1707
2.17488
2.17678
2.17412
2.16754
2.167
2.16763
2.17113
2.17366
2.17327
2.17204
2.17051
2.16989
2.17145
2.17598
2.17714
2.17599
2.17389
2.17264
2.17261
2.17495
2.1778
2.17712
2.17291
2.167
2.16269
2.16102
2.16181
2.16072
2.15582
2.14946
2.14253
2.13727
2.13397
2.13092
2.12644
2.12028
2.11309
2.10542
2.09971
2.0961
2.09271
2.08853
2.08312
2.0763
2.06849
2.06112
2.05508
2.05047
2.04676
2.04288
2.03799
2.03175
2.02566
2.0212
2.01831
2.0163
2.015
2.01428
2.01392
2.01373
2.01308
2.01182
2.01254
2.01595
2.02065
2.02658
2.03313
2.03806
2.04184
2.04509
2.04828
2.05231
2.05796
2.06483
2.07025
2.07196
2.07175
2.07072
2.36462
2.34845
2.30648
2.26348
2.23827
2.22637
2.21034
2.19088
2.18343
2.18315
2.17685
2.16342
2.15364
2.15319
2.15232
2.14696
2.13926
2.13724
2.13994
2.14163
2.13912
2.13369
2.13352
2.1346
2.1379
2.13876
2.13863
2.13856
2.13884
2.13977
2.14361
2.14757
2.14758
2.14659
2.14597
2.14624
2.14816
2.15076
2.15047
2.14712
2.14343
2.14088
2.14005
2.13971
2.13695
2.13208
2.12645
2.12107
2.11727
2.1142
2.11064
2.1058
2.09932
2.09175
2.08539
2.08083
2.0774
2.07382
2.06957
2.06413
2.05723
2.04937
2.04201
2.03648
2.03239
2.02886
2.02514
2.02051
2.01406
2.00687
2.00177
1.99878
1.99645
1.99479
1.9936
1.99276
1.99204
1.99124
1.99044
1.99071
1.99308
1.99665
2.00033
2.00384
2.00704
2.01098
2.01548
2.01887
2.02177
2.02492
2.02829
2.03171
2.03502
2.03823
2.03979
2.04146
2.38161
2.36299
2.32555
2.28954
2.27023
2.25869
2.24138
2.22212
2.2115
2.20416
2.19117
2.17272
2.15954
2.15544
2.15246
2.14511
2.13523
2.13014
2.1306
2.13155
2.12867
2.12306
2.1201
2.12045
2.12202
2.1221
2.1213
2.12084
2.12122
2.12227
2.1251
2.12658
2.12634
2.12553
2.12538
2.12603
2.12859
2.12961
2.12769
2.12353
2.12104
2.12048
2.12115
2.11958
2.11466
2.10807
2.1024
2.0991
2.09678
2.0939
2.0894
2.0832
2.07572
2.06945
2.06505
2.06172
2.05813
2.05384
2.04843
2.0416
2.03449
2.02836
2.02331
2.01904
2.01527
2.01126
2.00627
2.00004
1.99367
1.98878
1.98612
1.98414
1.98208
1.98
1.97843
1.97701
1.97622
1.97622
1.97786
1.98133
1.98488
1.98693
1.98806
1.9886
1.99054
1.99458
2.00044
2.00481
2.00582
2.00637
2.00723
2.00832
2.01032
2.01492
2.0208
2.0243
2.38999
2.37077
2.33823
2.30846
2.29358
2.28316
2.26644
2.24978
2.24002
2.23034
2.21379
2.19214
2.17746
2.17136
2.16573
2.15588
2.14273
2.13392
2.13194
2.13171
2.12804
2.12168
2.116
2.11357
2.11369
2.11285
2.11069
2.1085
2.1077
2.1078
2.10859
2.10903
2.10869
2.10791
2.10795
2.10879
2.11077
2.11102
2.10873
2.1052
2.1033
2.10361
2.10421
2.10138
2.09591
2.08963
2.0855
2.08314
2.08141
2.07777
2.07273
2.06586
2.05898
2.05463
2.0513
2.0478
2.04335
2.0382
2.03186
2.02435
2.01843
2.01431
2.01038
2.0066
2.00258
1.99743
1.99078
1.9838
1.97909
1.97674
1.97518
1.97387
1.97237
1.97041
1.96797
1.96623
1.96591
1.96737
1.97122
1.97617
1.97951
1.9805
1.97995
1.98054
1.98221
1.98527
1.9901
1.99277
1.99302
1.9925
1.99253
1.99318
1.99534
2.00039
2.00531
2.00797
2.3975
2.3776
2.34797
2.32219
2.30926
2.29836
2.28156
2.26683
2.25811
2.24774
2.23032
2.20868
2.1957
2.18996
2.18304
2.17101
2.15431
2.14202
2.13728
2.13474
2.12963
2.12175
2.11347
2.10929
2.10746
2.10497
2.10168
2.09825
2.09574
2.09417
2.09389
2.09377
2.09299
2.09189
2.09198
2.09291
2.09447
2.09466
2.09247
2.08915
2.08818
2.08883
2.08873
2.08543
2.07961
2.07433
2.07194
2.07113
2.06914
2.06469
2.05863
2.05155
2.04706
2.04416
2.04158
2.03753
2.03248
2.02603
2.01823
2.01202
2.00822
2.00482
2.00109
1.99715
1.99288
1.98651
1.97889
1.97382
1.971
1.96911
1.96791
1.96699
1.96595
1.96455
1.96274
1.96174
1.96226
1.96458
1.96893
1.97302
1.97557
1.97643
1.97711
1.97815
1.97914
1.98057
1.98195
1.98265
1.98312
1.98328
1.98341
1.98418
1.98651
1.98974
1.99167
1.99346
2.40526
2.38548
2.35886
2.33631
2.32343
2.31031
2.29175
2.27702
2.26823
2.25706
2.23889
2.21785
2.20668
2.2012
2.19323
2.17982
2.16127
2.14852
2.14272
2.13787
2.13065
2.12043
2.10978
2.10428
2.10099
2.09753
2.09316
2.08829
2.08416
2.08154
2.07977
2.07925
2.0782
2.07652
2.07634
2.07715
2.0784
2.07884
2.07763
2.07451
2.07369
2.07438
2.07392
2.07091
2.06562
2.06204
2.06093
2.06058
2.05743
2.05229
2.04568
2.04124
2.03888
2.03706
2.03354
2.02888
2.02278
2.01484
2.00866
2.00523
2.0021
1.99863
1.99487
1.99043
1.98403
1.97645
1.97143
1.96931
1.96755
1.96546
1.96391
1.96276
1.96141
1.96066
1.96082
1.9624
1.96483
1.96767
1.97012
1.97174
1.97313
1.97557
1.97807
1.97924
1.97931
1.9781
1.97602
1.97547
1.97608
1.97727
1.97817
1.97917
1.9798
1.97972
1.97952
1.98081
2.41447
2.39466
2.36942
2.3491
2.33651
2.32176
2.30177
2.28647
2.27681
2.26418
2.24476
2.22391
2.21334
2.20719
2.19783
2.18297
2.16361
2.15164
2.14519
2.13854
2.12951
2.1169
2.10487
2.0989
2.09493
2.09027
2.08486
2.07855
2.07302
2.06962
2.06715
2.06605
2.06483
2.06297
2.06152
2.06181
2.06278
2.06362
2.06335
2.06096
2.05989
2.06034
2.0603
2.058
2.05325
2.05047
2.0502
2.04939
2.04561
2.04009
2.03474
2.03239
2.03126
2.02893
2.0247
2.01879
2.01082
2.00499
2.00219
2.00016
1.99737
1.99348
1.98825
1.98062
1.97364
1.97008
1.96875
1.96848
1.96742
1.96583
1.96298
1.96059
1.95976
1.9604
1.96314
1.96739
1.97077
1.97249
1.97256
1.97245
1.97399
1.97726
1.98059
1.98105
1.97959
1.97582
1.97292
1.97215
1.97252
1.9746
1.97539
1.97465
1.97289
1.97075
1.96983
1.97098
2.42546
2.40532
2.3815
2.36321
2.3504
2.33338
2.31228
2.29726
2.28694
2.27286
2.25213
2.23114
2.22025
2.21269
2.20151
2.18487
2.1655
2.15455
2.1474
2.13908
2.12831
2.11355
2.10133
2.09538
2.09075
2.08518
2.07859
2.07035
2.06383
2.06011
2.0573
2.05574
2.05419
2.05196
2.04912
2.04806
2.04877
2.05012
2.04998
2.04764
2.04612
2.04667
2.04747
2.04609
2.04177
2.03915
2.03873
2.03704
2.03384
2.02938
2.02546
2.02346
2.02155
2.01814
2.01342
2.00668
1.99991
1.99708
1.99534
1.99325
1.99016
1.98589
1.97899
1.97069
1.96686
1.96603
1.96651
1.96646
1.96581
1.96444
1.96149
1.95964
1.95988
1.9621
1.96675
1.97198
1.975
1.97578
1.97496
1.97517
1.97683
1.97922
1.98075
1.98031
1.97791
1.97395
1.97196
1.97128
1.97154
1.97265
1.9719
1.97026
1.96716
1.9635
1.96271
1.96389
2.43823
2.41788
2.39575
2.37893
2.36529
2.34649
2.32597
2.31182
2.30108
2.28496
2.26226
2.24153
2.23038
2.22127
2.20818
2.18974
2.17118
2.16078
2.15253
2.14247
2.12948
2.11261
2.10118
2.09525
2.0898
2.08342
2.07585
2.06585
2.05843
2.05453
2.05182
2.04987
2.04761
2.04461
2.04017
2.03796
2.03802
2.0389
2.03851
2.0366
2.03483
2.03509
2.03604
2.03518
2.03155
2.02822
2.02757
2.02613
2.02335
2.01906
2.0151
2.0131
2.01124
2.00819
2.00394
1.99773
1.99147
1.98804
1.98609
1.98422
1.98183
1.97841
1.97251
1.96557
1.96245
1.96186
1.96229
1.96295
1.96297
1.96256
1.96121
1.96065
1.96181
1.9651
1.97011
1.97431
1.97685
1.97718
1.97763
1.97868
1.9795
1.97976
1.97965
1.97836
1.9758
1.97343
1.97231
1.97156
1.97127
1.97081
1.96966
1.96763
1.96402
1.96126
1.96038
1.96075
2.45429
2.43347
2.41246
2.39594
2.38123
2.36119
2.34108
2.32761
2.31613
2.29836
2.2753
2.2563
2.2451
2.23447
2.21963
2.19977
2.18246
2.17179
2.16217
2.15064
2.13561
2.11791
2.10708
2.10015
2.09328
2.08554
2.07649
2.06542
2.05756
2.05328
2.05039
2.04831
2.04509
2.03942
2.03372
2.03152
2.03109
2.03144
2.03036
2.02816
2.02616
2.02611
2.02734
2.02705
2.02425
2.02061
2.01983
2.01905
2.01688
2.01327
2.00938
2.00667
2.00405
2.00109
1.99769
1.99355
1.9887
1.98482
1.982
1.97901
1.97583
1.9724
1.96814
1.96383
1.96193
1.96139
1.96158
1.96198
1.96226
1.96157
1.96162
1.96328
1.96618
1.97034
1.97449
1.97669
1.97703
1.97881
1.98143
1.98266
1.98238
1.98093
1.97881
1.97755
1.97712
1.97617
1.97522
1.9741
1.97297
1.97147
1.96913
1.96602
1.96345
1.96216
1.96176
1.96117
2.47272
2.45196
2.43193
2.41555
2.39927
2.37839
2.35891
2.34482
2.33219
2.31356
2.29092
2.27407
2.26276
2.25091
2.23456
2.21336
2.19756
2.18647
2.17559
2.16329
2.14713
2.12953
2.11866
2.11096
2.10378
2.09558
2.08468
2.07199
2.06344
2.05854
2.05442
2.04992
2.04399
2.03643
2.03074
2.02863
2.02803
2.02782
2.02614
2.02303
2.02048
2.02024
2.02202
2.02241
2.02018
2.01659
2.0158
2.01609
2.01467
2.01186
2.00778
2.00417
2.001
1.99837
1.99616
1.99334
1.98967
1.98586
1.98181
1.9773
1.97277
1.96986
1.96803
1.9671
1.96573
1.96482
1.96417
1.96364
1.96344
1.96405
1.96631
1.97041
1.97515
1.97867
1.98044
1.98043
1.98207
1.98564
1.98878
1.98929
1.98843
1.98571
1.98295
1.98199
1.98216
1.98326
1.98234
1.98086
1.97823
1.97406
1.97045
1.96842
1.96752
1.96732
1.96656
1.96422
2.49367
2.47311
2.45375
2.43708
2.41892
2.39759
2.3787
2.36456
2.35052
2.33065
2.30852
2.29225
2.28065
2.26669
2.24866
2.22931
2.21614
2.2057
2.19328
2.1791
2.16269
2.14595
2.13422
2.12462
2.1149
2.10419
2.09156
2.07917
2.07211
2.06598
2.06017
2.05427
2.04708
2.03783
2.03155
2.02885
2.02762
2.02664
2.02433
2.0206
2.0179
2.0176
2.01976
2.02058
2.01885
2.01559
2.01466
2.01563
2.0155
2.01372
2.00987
2.00566
2.00294
2.00076
1.99874
1.99643
1.99353
1.9896
1.98498
1.9803
1.97612
1.97395
1.97325
1.97313
1.97302
1.97269
1.9716
1.97059
1.97115
1.97356
1.97772
1.98333
1.98789
1.99017
1.99041
1.9906
1.99283
1.99694
2.00043
2.00014
1.99768
1.99403
1.99238
1.99216
1.9938
1.99446
1.99281
1.99005
1.98515
1.97934
1.97641
1.97521
1.97459
1.97358
1.97216
1.96862
2.51388
2.49444
2.47611
2.45904
2.43972
2.41889
2.4008
2.38676
2.37102
2.3498
2.32851
2.31315
2.30099
2.28555
2.26607
2.24695
2.23441
2.22305
2.21013
2.1948
2.17686
2.16167
2.15059
2.14018
2.12934
2.11736
2.10385
2.09175
2.08352
2.07643
2.06964
2.06254
2.05372
2.04376
2.03723
2.03369
2.03131
2.02897
2.02553
2.02082
2.0186
2.01846
2.02079
2.02149
2.02001
2.01672
2.01537
2.01629
2.01744
2.01677
2.01372
2.00964
2.00743
2.00598
2.00416
2.00155
1.99843
1.995
1.99163
1.98886
1.98628
1.98429
1.98351
1.98312
1.98337
1.98346
1.98343
1.984
1.98596
1.98905
1.993
1.99781
2.0023
2.00437
2.00461
2.00544
2.00694
2.0085
2.01087
2.01156
2.00996
2.00678
2.00482
2.00348
2.00234
2.00159
2
1.99735
1.99297
1.98845
1.98604
1.98425
1.98246
1.98052
1.97833
1.9733
2.53532
2.51701
2.49952
2.48199
2.46232
2.44242
2.4253
2.411
2.39326
2.37135
2.35157
2.33706
2.32397
2.30697
2.28627
2.26833
2.25595
2.24365
2.22941
2.21253
2.19444
2.18063
2.16915
2.15794
2.14631
2.13316
2.11839
2.10596
2.09685
2.08896
2.08129
2.0733
2.0638
2.05377
2.047
2.04253
2.03871
2.03483
2.02979
2.02348
2.02107
2.02082
2.02267
2.02322
2.02174
2.01842
2.01662
2.01727
2.01885
2.01863
2.01609
2.01315
2.01192
2.01117
2.00888
2.00527
2.00193
2.00016
1.99905
1.99854
1.9973
1.99528
1.99354
1.99333
1.99394
1.99524
1.99741
2.0001
2.00312
2.00649
2.01
2.01363
2.01744
2.01974
2.02063
2.02145
2.02185
2.02164
2.02175
2.02203
2.02085
2.0189
2.01682
2.01499
2.01312
2.01103
2.00834
2.00481
2.00085
1.99781
1.99558
1.99354
1.99138
1.98851
1.98449
1.97854
2.55695
2.53955
2.52256
2.50475
2.48554
2.46686
2.45069
2.43551
2.41618
2.39467
2.37654
2.36287
2.34855
2.32982
2.30851
2.292
2.27963
2.26644
2.25098
2.23251
2.21493
2.20177
2.18979
2.17769
2.16476
2.14998
2.13428
2.12211
2.11261
2.10398
2.09526
2.08568
2.0747
2.06396
2.05688
2.05184
2.0472
2.04235
2.0362
2.02858
2.0247
2.02365
2.02437
2.02433
2.02249
2.01937
2.01759
2.01812
2.01961
2.01881
2.01617
2.0142
2.01401
2.01405
2.01173
2.0074
2.00413
2.00331
2.0038
2.00543
2.00558
2.00453
2.00292
2.00258
2.00361
2.00593
2.01076
2.01617
2.02035
2.02355
2.02598
2.02812
2.0307
2.03408
2.03634
2.037
2.03675
2.03511
2.03267
2.03138
2.03073
2.02956
2.02796
2.02621
2.02392
2.02066
2.01641
2.01197
2.00858
2.00611
2.00388
2.00155
1.9986
1.99409
1.98902
1.98474
2.57506
2.55892
2.54261
2.52525
2.50719
2.48996
2.47445
2.45798
2.438
2.41793
2.40136
2.38817
2.3721
2.35175
2.33108
2.31592
2.3035
2.28935
2.27262
2.25304
2.23636
2.22313
2.21031
2.19709
2.18276
2.16671
2.15112
2.13894
2.12882
2.11909
2.10904
2.09786
2.08525
2.07395
2.0665
2.0607
2.05527
2.04939
2.04194
2.03325
2.02796
2.02579
2.0251
2.02378
2.02123
2.01831
2.01719
2.0181
2.01894
2.01697
2.01372
2.01254
2.01316
2.01392
2.01251
2.00895
2.00547
2.00496
2.00603
2.00877
2.00978
2.00969
2.00867
2.00912
2.01135
2.01552
2.02286
2.0301
2.03418
2.03657
2.03765
2.03906
2.0416
2.0454
2.04836
2.04886
2.048
2.04512
2.04195
2.04041
2.03934
2.03808
2.03642
2.03444
2.03141
2.02691
2.02205
2.01831
2.01549
2.01305
2.0107
2.00774
2.00335
1.99786
1.99461
1.99086
2.58611
2.57193
2.55683
2.54062
2.52401
2.50804
2.49259
2.47524
2.45595
2.43772
2.42264
2.40894
2.39087
2.36975
2.35102
2.33677
2.32407
2.30881
2.29068
2.27092
2.25543
2.24187
2.22827
2.21401
2.19823
2.18119
2.16607
2.15388
2.14288
2.13211
2.12073
2.10783
2.09406
2.08263
2.07437
2.0673
2.06035
2.05306
2.04428
2.03505
2.02932
2.0259
2.02356
2.02064
2.01666
2.01392
2.01363
2.01535
2.01577
2.01316
2.00919
2.00817
2.00941
2.01179
2.01201
2.01011
2.00677
2.00615
2.00699
2.00987
2.01242
2.01352
2.01442
2.01641
2.01963
2.0248
2.03256
2.04011
2.04374
2.04521
2.0458
2.04777
2.05056
2.05392
2.05617
2.05631
2.05463
2.05158
2.04972
2.04855
2.04723
2.04566
2.04356
2.04066
2.03663
2.03226
2.02859
2.02547
2.02257
2.01962
2.01637
2.01224
2.00751
2.00366
2.00154
1.99764
2.59027
2.5771
2.56298
2.54809
2.53306
2.5183
2.50296
2.48587
2.4681
2.45154
2.43747
2.42247
2.40308
2.38294
2.36594
2.35222
2.33856
2.32193
2.30235
2.28415
2.26986
2.25602
2.24177
2.22634
2.20889
2.19145
2.17704
2.16465
2.15282
2.14086
2.128
2.11375
2.09974
2.08835
2.07898
2.07023
2.06159
2.0527
2.04252
2.03301
2.02742
2.02341
2.01937
2.01436
2.00845
2.00567
2.00578
2.00841
2.00925
2.00725
2.00327
2.00178
2.00338
2.00739
2.00989
2.00987
2.00763
2.00677
2.00794
2.01077
2.01532
2.01858
2.02129
2.02475
2.02886
2.03379
2.03992
2.0457
2.0489
2.05083
2.05327
2.05602
2.05891
2.0609
2.0613
2.06029
2.05836
2.05715
2.05641
2.05553
2.05397
2.05206
2.04925
2.04545
2.04163
2.03838
2.03537
2.03234
2.02921
2.02569
2.02113
2.0163
2.01227
2.00919
2.00711
2.00318
2.58984
2.57723
2.56398
2.55026
2.53637
2.52214
2.5068
2.49031
2.47392
2.45893
2.44495
2.4285
2.40895
2.38987
2.37474
2.36184
2.34658
2.32823
2.30843
2.29284
2.27891
2.2645
2.24937
2.23267
2.21451
2.19788
2.18391
2.171
2.15822
2.14496
2.13078
2.11602
2.10255
2.09121
2.08102
2.07099
2.06086
2.0502
2.03896
2.02987
2.02425
2.01937
2.014
2.00737
1.99994
1.997
1.99692
1.99932
2.00074
2.00007
1.99738
1.99549
1.99713
2.00176
2.00648
2.00792
2.00718
2.00702
2.0093
2.01304
2.01817
2.02355
2.02898
2.03401
2.03825
2.04195
2.04626
2.05101
2.05466
2.05749
2.0602
2.06303
2.0653
2.06607
2.06563
2.06394
2.06267
2.06201
2.06152
2.06043
2.05848
2.05628
2.05328
2.04932
2.04587
2.04321
2.04074
2.03816
2.03489
2.02962
2.02371
2.01955
2.01672
2.01408
2.01169
2.00706
2.58935
2.57693
2.56395
2.55066
2.53708
2.52282
2.50763
2.49209
2.47709
2.46298
2.44761
2.42896
2.41033
2.39501
2.38205
2.36774
2.35016
2.33012
2.31252
2.2978
2.28385
2.26877
2.25265
2.23514
2.21751
2.20203
2.18815
2.17461
2.16082
2.1463
2.1311
2.11638
2.10359
2.09243
2.08183
2.07113
2.05971
2.04722
2.0354
2.02714
2.02135
2.01597
2.01019
2.00284
1.99428
1.99056
1.98991
1.99125
1.99325
1.99349
1.99218
1.99085
1.9924
1.99665
2.0022
2.00534
2.00691
2.00812
2.01101
2.01529
2.02086
2.02776
2.03466
2.04089
2.04603
2.05051
2.05396
2.0569
2.06027
2.06338
2.06642
2.06931
2.07031
2.0701
2.06867
2.06692
2.06609
2.06583
2.06613
2.06467
2.06247
2.05917
2.05483
2.0519
2.0496
2.04712
2.04439
2.04102
2.03641
2.03045
2.02554
2.02235
2.01945
2.01638
2.01348
2.00786
2.59093
2.57835
2.5654
2.55215
2.53844
2.52405
2.50918
2.49433
2.47981
2.46519
2.44885
2.43117
2.41471
2.39992
2.38622
2.36995
2.35103
2.332
2.31604
2.30179
2.28731
2.27172
2.25444
2.23614
2.21981
2.20541
2.19151
2.17742
2.1627
2.14704
2.13092
2.11631
2.10416
2.09334
2.08271
2.07155
2.05912
2.04514
2.03292
2.02501
2.0188
2.0133
2.0078
2.00037
1.99108
1.98579
1.98462
1.98556
1.98718
1.98763
1.98811
1.98869
1.98942
1.99301
1.99828
2.00271
2.00588
2.00973
2.01462
2.02028
2.02646
2.03323
2.04003
2.04628
2.05179
2.05665
2.06091
2.0643
2.06655
2.06846
2.07057
2.07258
2.07303
2.0725
2.0711
2.0699
2.069
2.06833
2.06779
2.06619
2.06388
2.06005
2.05582
2.05294
2.05024
2.04746
2.04453
2.041
2.03622
2.03077
2.02662
2.02346
2.02039
2.01713
2.01394
2.0074
2.59544
2.58272
2.56964
2.55612
2.54208
2.52758
2.51291
2.49827
2.48356
2.46814
2.45151
2.43483
2.41908
2.40476
2.38993
2.37209
2.35297
2.33577
2.32091
2.30697
2.2916
2.27514
2.25668
2.23842
2.22297
2.20878
2.19476
2.18061
2.16566
2.14894
2.13191
2.11743
2.10526
2.0942
2.08361
2.07257
2.05956
2.045
2.03291
2.02419
2.01709
2.01085
2.00481
1.99829
1.99071
1.98422
1.98115
1.98054
1.98097
1.98123
1.98279
1.98533
1.98764
1.99069
1.99519
1.99998
2.00492
2.01064
2.01748
2.02506
2.03291
2.03981
2.04568
2.05086
2.05551
2.06012
2.06494
2.06894
2.07119
2.07275
2.07379
2.07444
2.07438
2.07379
2.07281
2.07168
2.07075
2.0698
2.0686
2.0667
2.06394
2.05997
2.05634
2.05353
2.05074
2.04771
2.04433
2.04029
2.03564
2.03111
2.02724
2.02389
2.02066
2.01724
2.01377
2.00668
2.60141
2.58869
2.57554
2.56191
2.5478
2.53338
2.51879
2.50402
2.48884
2.4729
2.45651
2.44041
2.42506
2.41048
2.39372
2.37527
2.35741
2.34147
2.32703
2.31189
2.29594
2.27868
2.25995
2.24296
2.22815
2.21393
2.19978
2.18498
2.16864
2.15113
2.13455
2.12047
2.10829
2.0971
2.08586
2.07314
2.05896
2.04527
2.03419
2.02516
2.0174
2.01038
2.00318
1.99541
1.98834
1.98322
1.97975
1.97711
1.97521
1.97519
1.97652
1.98068
1.98475
1.98831
1.99257
1.99764
2.00367
2.01076
2.01916
2.02881
2.03789
2.0447
2.05021
2.05433
2.0578
2.06208
2.0676
2.07164
2.07346
2.07437
2.07438
2.07471
2.07536
2.0757
2.07517
2.07375
2.07214
2.07048
2.06858
2.06633
2.06354
2.06036
2.05708
2.05386
2.05067
2.04732
2.04375
2.04001
2.03598
2.03193
2.0281
2.02452
2.02108
2.01751
2.01397
2.00699
2.60651
2.59387
2.58078
2.56727
2.55337
2.53915
2.52463
2.50973
2.49432
2.47841
2.46235
2.44652
2.4312
2.41537
2.39779
2.3799
2.36301
2.34747
2.33251
2.31663
2.29981
2.28195
2.26478
2.24919
2.23415
2.21919
2.20396
2.18767
2.17039
2.1538
2.13919
2.12592
2.11298
2.09986
2.08632
2.07236
2.05894
2.04793
2.0385
2.02903
2.01904
2.00925
2.00028
1.99247
1.98713
1.98294
1.97909
1.97499
1.97065
1.96961
1.97035
1.97407
1.97949
1.98433
1.98965
1.99555
2.00229
2.01008
2.01932
2.03011
2.03976
2.04674
2.05173
2.05556
2.05944
2.06436
2.07027
2.07348
2.07492
2.07523
2.07532
2.07585
2.07688
2.07782
2.07735
2.0759
2.07341
2.07097
2.06887
2.06668
2.06424
2.06144
2.05815
2.05453
2.05102
2.04762
2.04414
2.04056
2.03689
2.03322
2.02952
2.02584
2.0222
2.0184
2.01476
2.00828
2.60971
2.59721
2.58427
2.5709
2.55715
2.54302
2.5285
2.51356
2.49819
2.48254
2.4668
2.4511
2.43519
2.41834
2.40104
2.384
2.36782
2.35268
2.33631
2.31937
2.30176
2.28498
2.26923
2.25398
2.23871
2.22294
2.20618
2.18885
2.17211
2.15701
2.14352
2.13053
2.11714
2.10244
2.08671
2.07203
2.05988
2.05025
2.04176
2.03316
2.02298
2.0105
1.99819
1.9904
1.9857
1.98226
1.97888
1.97458
1.96832
1.96529
1.96565
1.96859
1.97431
1.98003
1.9861
1.99301
2.00066
2.0091
2.01872
2.02943
2.03818
2.04483
2.05024
2.05499
2.05983
2.06583
2.07225
2.07512
2.07643
2.07675
2.07698
2.07725
2.07826
2.07954
2.07917
2.07782
2.07524
2.07246
2.07025
2.068
2.06544
2.06256
2.05923
2.05541
2.05167
2.04832
2.04498
2.04153
2.03814
2.03475
2.0311
2.02726
2.0234
2.01936
2.01584
2.01012
2.61091
2.59849
2.58562
2.57233
2.55863
2.54452
2.53
2.51508
2.49985
2.48446
2.46895
2.45315
2.43668
2.41972
2.4028
2.38647
2.37151
2.35546
2.338
2.32025
2.30289
2.28694
2.2717
2.25654
2.2411
2.22459
2.20662
2.18868
2.17305
2.15946
2.1465
2.13333
2.11903
2.10282
2.08568
2.07103
2.06044
2.05163
2.04297
2.03362
2.02264
2.00867
1.99558
1.98904
1.98439
1.98054
1.97678
1.97261
1.96532
1.96082
1.96094
1.96363
1.96991
1.97655
1.98303
1.99042
1.99858
2.00731
2.01689
2.02729
2.03806
2.04651
2.05234
2.0573
2.06217
2.06822
2.07451
2.0772
2.07843
2.07867
2.07869
2.07876
2.07957
2.08096
2.08067
2.07933
2.07656
2.07348
2.07123
2.06906
2.06664
2.06382
2.06038
2.05617
2.05187
2.0484
2.04556
2.04284
2.03998
2.0369
2.03327
2.02888
2.02427
2.02033
2.01771
2.01257
)
;

boundaryField
{
    inlet
    {
        type            fixedValue;
        value           uniform 1;
    }
    outlet
    {
        type            inletOutlet;
        inletValue      uniform 1;
        value           nonuniform List<scalar> 
32
(
2.36364
2.35339
2.31916
2.25863
2.18647
2.12009
2.0703
2.04151
2.02417
2.00766
1.99312
1.9806
1.97097
1.96402
1.96079
1.96105
1.96401
1.96836
1.97297
1.97832
1.9848
1.99099
1.99786
2.00361
2.00727
2.00782
2.0071
2.0063
2.00666
2.00815
2.01027
2.01273
)
;
    }
    bottom
    {
        type            symmetryPlane;
    }
    top
    {
        type            symmetryPlane;
    }
    obstacle
    {
        type            zeroGradient;
    }
    defaultFaces
    {
        type            empty;
    }
}

