/*--------------------------------*- C++ -*----------------------------------*\
  =========                 |
  \\      /  F ield         | OpenFOAM: The Open Source CFD Toolbox
   \\    /   O peration     | Website:  https://openfoam.org
    \\  /    A nd           | Version:  7
     \\/     M anipulation  |
\*---------------------------------------------------------------------------*/
FoamFile
{
    version     2.0;
    format      ascii;
    class       volVectorField;
    location    "19.5";
    object      U;
}
// * * * * * * * * * * * * * * * * * * * * * * * * * * * * * * * * * * * * * //

dimensions      [0 1 -1 0 0 0 0];

internalField   nonuniform List<vector> 
4032
(
(3 -5.17669e-17 0)
(3 -4.81474e-17 0)
(3 1.47541e-16 0)
(3 4.80363e-17 0)
(3 2.76201e-16 0)
(3 5.90625e-16 0)
(3 5.04477e-16 0)
(3 2.18723e-16 0)
(3 7.85026e-17 0)
(3 3.6024e-17 0)
(3 -4.20786e-16 0)
(2.08418 0.0118748 0)
(0.810428 0.0151334 0)
(0.68982 0.0234364 0)
(0.637402 0.0250058 0)
(0.580399 0.0256734 0)
(0.525007 0.0262086 0)
(0.468693 0.0270194 0)
(0.410504 0.0282953 0)
(0.348936 0.0301909 0)
(0.282558 0.0329194 0)
(0.209378 0.0367658 0)
(0.12934 0.0391427 0)
(0.0471905 0.0426015 0)
(3 2.60669e-17 0)
(3 3.26791e-16 0)
(3 5.16866e-16 0)
(3 4.44377e-16 0)
(3 4.94995e-16 0)
(3 7.13441e-16 0)
(3 6.38648e-16 0)
(3 6.30995e-17 0)
(3 2.10244e-16 0)
(3 9.33994e-17 0)
(3 -6.64245e-16 0)
(2.11675 0.0589501 0)
(0.802876 0.0696659 0)
(0.670492 0.0701847 0)
(0.616696 0.0700754 0)
(0.55993 0.0715603 0)
(0.505259 0.0738019 0)
(0.450206 0.0773208 0)
(0.394082 0.0824661 0)
(0.335501 0.0897884 0)
(0.272785 0.0995109 0)
(0.203701 0.112586 0)
(0.126468 0.121307 0)
(0.0466878 0.132498 0)
(3 1.38426e-16 0)
(3 3.46865e-16 0)
(3 4.46236e-16 0)
(3 4.31601e-16 0)
(3 2.67042e-16 0)
(3 3.2086e-16 0)
(3 4.91937e-16 0)
(3 4.83716e-17 0)
(3 -2.41245e-17 0)
(3 -6.37493e-16 0)
(3 -6.1433e-16 0)
(2.23059 0.108372 0)
(0.823576 0.130018 0)
(0.673914 0.122727 0)
(0.616538 0.122205 0)
(0.556199 0.123574 0)
(0.49869 0.126015 0)
(0.441497 0.130215 0)
(0.384214 0.136801 0)
(0.325672 0.147282 0)
(0.264165 0.162058 0)
(0.198266 0.183799 0)
(0.123006 0.199552 0)
(0.0462746 0.219007 0)
(3 2.31014e-16 0)
(3 2.81127e-17 0)
(3 -3.59624e-16 0)
(3 -7.64789e-16 0)
(3 -1.03213e-15 0)
(3 -3.61642e-16 0)
(3 7.83759e-16 0)
(3 9.5627e-16 0)
(3 6.04652e-16 0)
(3 2.89342e-16 0)
(3 9.05343e-17 0)
(2.41342 0.144197 0)
(0.865957 0.190197 0)
(0.692728 0.175761 0)
(0.635018 0.17532 0)
(0.572159 0.177895 0)
(0.51179 0.181586 0)
(0.451198 0.18703 0)
(0.39028 0.195096 0)
(0.328309 0.208455 0)
(0.263909 0.226794 0)
(0.198176 0.256043 0)
(0.122776 0.279449 0)
(0.0456912 0.305998 0)
(3 -1.02196e-17 0)
(3 -3.14339e-17 0)
(3 -7.06331e-17 0)
(3 -4.13962e-16 0)
(3 -1.06901e-15 0)
(3 -8.83287e-16 0)
(3 -1.03502e-17 0)
(3 6.4487e-16 0)
(3 1.06353e-15 0)
(3 1.375e-15 0)
(3 7.50946e-16 0)
(2.64268 0.16274 0)
(0.925809 0.24856 0)
(0.72125 0.227038 0)
(0.670007 0.230219 0)
(0.607696 0.234554 0)
(0.546025 0.240161 0)
(0.482265 0.247687 0)
(0.417775 0.25762 0)
(0.353231 0.273736 0)
(0.286577 0.293824 0)
(0.220346 0.329092 0)
(0.140102 0.36257 0)
(0.0551619 0.400029 0)
(3 -1.29557e-16 0)
(3 -2.17358e-16 0)
(3 2.79521e-16 0)
(3 5.39534e-16 0)
(3 2.94692e-16 0)
(3 -3.49708e-16 0)
(3 -8.10988e-16 0)
(3 -4.58132e-16 0)
(3 1.92398e-16 0)
(3 2.42273e-16 0)
(3 4.44565e-16 0)
(2.89362 0.118247 0)
(1.01979 0.296786 0)
(0.769892 0.253239 0)
(0.728979 0.272336 0)
(0.666163 0.286017 0)
(0.60351 0.298516 0)
(0.537268 0.310462 0)
(0.469169 0.32283 0)
(0.400031 0.342498 0)
(0.325121 0.367307 0)
(0.248476 0.413828 0)
(0.157541 0.465921 0)
(0.055086 0.514833 0)
(3 2.04055e-16 0)
(3 -8.86157e-17 0)
(3 -1.79049e-16 0)
(3 -1.27593e-16 0)
(3 -9.70306e-17 0)
(3 -4.59375e-16 0)
(3 -1.13889e-15 0)
(3 -1.34916e-15 0)
(3 -6.48496e-16 0)
(3 -3.47416e-18 0)
(3 -4.84522e-16 0)
(3.02407 0.0145827 0)
(1.13624 0.313707 0)
(0.796472 0.282799 0)
(0.769849 0.317449 0)
(0.718927 0.336661 0)
(0.665006 0.354549 0)
(0.603088 0.373265 0)
(0.536022 0.39119 0)
(0.466219 0.418215 0)
(0.390301 0.450325 0)
(0.316947 0.504031 0)
(0.230306 0.571933 0)
(0.104439 0.651845 0)
(3 3.14064e-16 0)
(3 1.73136e-16 0)
(3 -2.67627e-16 0)
(3 -7.86773e-16 0)
(3 -7.88889e-16 0)
(3 -6.53454e-16 0)
(3 -2.95985e-16 0)
(3 -1.78812e-16 0)
(3 -1.08492e-15 0)
(3 -5.5723e-16 0)
(3 -6.80315e-16 0)
(3.00187 0.000137604 0)
(1.29332 0.333845 0)
(0.794335 0.315892 0)
(0.760908 0.355915 0)
(0.722415 0.382551 0)
(0.687973 0.407168 0)
(0.647669 0.433035 0)
(0.59703 0.457998 0)
(0.540998 0.493243 0)
(0.474569 0.529356 0)
(0.402898 0.601355 0)
(0.287175 0.732196 0)
(0.163116 0.92031 0)
(3 1.94713e-17 0)
(3 -2.34452e-16 0)
(3 -1.80717e-16 0)
(3 -2.11765e-17 0)
(3 2.05834e-16 0)
(3 6.34029e-17 0)
(3 1.31802e-16 0)
(3 3.85306e-16 0)
(3 3.25159e-16 0)
(3 -1.73059e-16 0)
(3 -5.79545e-16 0)
(3.00001 -3.29321e-07 0)
(1.57275 0.380126 0)
(0.811471 0.366895 0)
(0.73931 0.382278 0)
(0.712696 0.408366 0)
(0.687186 0.43626 0)
(0.669277 0.472401 0)
(0.639891 0.509956 0)
(0.608939 0.556392 0)
(0.563262 0.608707 0)
(0.518079 0.712857 0)
(0.492736 0.88908 0)
(0.612056 1.20286 0)
(3 8.48096e-17 0)
(3 4.93989e-16 0)
(3 9.77271e-16 0)
(3 2.06357e-15 0)
(3 1.88253e-15 0)
(3 1.78995e-15 0)
(3 1.42396e-15 0)
(3 1.13942e-15 0)
(3 1.86863e-15 0)
(3 1.88131e-15 0)
(3 1.73975e-15 0)
(3 -3.40591e-07 0)
(2.02529 0.416608 0)
(0.870505 0.454019 0)
(0.754708 0.424719 0)
(0.72569 0.438689 0)
(0.704481 0.461858 0)
(0.691022 0.497611 0)
(0.680418 0.542859 0)
(0.670839 0.598955 0)
(0.661226 0.670028 0)
(0.655929 0.782056 0)
(0.722372 0.923864 0)
(1.00205 1.11038 0)
(3 2.65749e-16 0)
(3 4.6676e-16 0)
(3 6.40598e-16 0)
(3 1.07779e-15 0)
(3 1.06923e-15 0)
(3 1.27413e-15 0)
(3 1.74173e-15 0)
(3 1.60682e-15 0)
(3 1.96258e-15 0)
(3 2.24859e-15 0)
(3 2.66489e-15 0)
(3 -7.22296e-08 0)
(2.69142 0.311707 0)
(1.02045 0.52576 0)
(0.840632 0.456238 0)
(0.792541 0.461534 0)
(0.755782 0.482443 0)
(0.732798 0.51603 0)
(0.729031 0.561453 0)
(0.730578 0.620714 0)
(0.753728 0.697555 0)
(0.786932 0.801325 0)
(0.906926 0.907559 0)
(1.17803 1.00052 0)
(3 5.13224e-17 0)
(3 1.78373e-16 0)
(3 9.09936e-17 0)
(3 -4.93247e-16 0)
(3 -8.14367e-17 0)
(3 7.73719e-16 0)
(3 1.1264e-15 0)
(3 8.07266e-16 0)
(3 1.06533e-15 0)
(3 1.30328e-15 0)
(3 1.79363e-15 0)
(3 -7.35057e-09 0)
(3.07532 0.0351033 0)
(1.2842 0.504848 0)
(0.916276 0.506289 0)
(0.875322 0.512656 0)
(0.830991 0.522483 0)
(0.794803 0.541739 0)
(0.78479 0.579336 0)
(0.790927 0.631103 0)
(0.828879 0.697784 0)
(0.892751 0.788766 0)
(1.04025 0.879191 0)
(1.2828 0.927468 0)
(3 -4.54954e-16 0)
(3 -4.55792e-16 0)
(3 -1.88542e-16 0)
(3 1.041e-16 0)
(3 3.99959e-17 0)
(3 2.29516e-16 0)
(3 3.79419e-16 0)
(3 3.11028e-16 0)
(3 -1.72229e-16 0)
(3 -3.39617e-16 0)
(3 9.02263e-17 0)
(3 -2.94787e-10 0)
(3.00664 4.00657e-05 0)
(1.53606 0.493646 0)
(0.913839 0.566036 0)
(0.87583 0.55994 0)
(0.859674 0.574618 0)
(0.844041 0.581286 0)
(0.839295 0.602958 0)
(0.852148 0.638109 0)
(0.892586 0.684029 0)
(0.964899 0.751516 0)
(1.11023 0.822492 0)
(1.32119 0.848338 0)
(3 -5.09838e-16 0)
(3 -6.3795e-16 0)
(3 -7.15166e-16 0)
(3 -4.71218e-16 0)
(3 4.2799e-16 0)
(3 7.57207e-16 0)
(3 9.90913e-16 0)
(3 8.7722e-16 0)
(3 8.89421e-16 0)
(3 7.32086e-16 0)
(3 1.06938e-15 0)
(3 -4.72792e-12 0)
(3.00004 -1.52793e-06 0)
(2.15638 0.495808 0)
(0.97745 0.609609 0)
(0.903329 0.568993 0)
(0.903671 0.581062 0)
(0.898254 0.594792 0)
(0.898241 0.613881 0)
(0.914971 0.643834 0)
(0.956424 0.678181 0)
(1.02857 0.720545 0)
(1.15332 0.766064 0)
(1.32584 0.77661 0)
(3 5.58549e-16 0)
(3 7.7122e-16 0)
(3 4.8949e-16 0)
(3 2.55936e-16 0)
(3 9.82693e-16 0)
(3 1.02434e-15 0)
(3 1.48044e-15 0)
(3 1.83779e-15 0)
(3 1.89418e-15 0)
(3 1.96812e-15 0)
(3 2.31661e-15 0)
(3 -4.77116e-15 0)
(3 -1.98554e-06 0)
(2.96833 0.186106 0)
(1.19604 0.608162 0)
(0.969374 0.576332 0)
(0.962651 0.595981 0)
(0.955747 0.611638 0)
(0.957129 0.624687 0)
(0.975322 0.641791 0)
(1.01416 0.662383 0)
(1.07995 0.68972 0)
(1.17623 0.707094 0)
(1.30553 0.704501 0)
(3 5.72818e-17 0)
(3 3.35056e-16 0)
(3 6.60323e-16 0)
(3 8.33497e-16 0)
(3 7.09548e-16 0)
(3 4.73266e-16 0)
(3 6.39246e-16 0)
(3 6.60407e-17 0)
(3 -2.26145e-16 0)
(3 -1.34275e-16 0)
(3 3.00006e-17 0)
(3 9.55362e-16 0)
(3 -4.22919e-07 0)
(3.04279 0.0061888 0)
(1.43199 0.572074 0)
(0.990332 0.628426 0)
(0.970436 0.621871 0)
(0.977 0.628442 0)
(0.993618 0.637525 0)
(1.0208 0.64926 0)
(1.06179 0.660312 0)
(1.12381 0.669909 0)
(1.19789 0.664964 0)
(1.28984 0.648452 0)
(3 -1.14659e-16 0)
(3 -4.62927e-16 0)
(3 -5.19079e-16 0)
(3 1.81473e-16 0)
(3 7.40259e-16 0)
(3 1.07806e-15 0)
(3 9.94056e-16 0)
(3 4.9913e-16 0)
(3 6.88405e-16 0)
(3 4.34017e-16 0)
(3 2.25811e-16 0)
(3 7.9483e-16 0)
(3 -3.8086e-08 0)
(3.00096 -8.96929e-06 0)
(1.96691 0.562774 0)
(1.01176 0.654886 0)
(0.976333 0.619329 0)
(0.993647 0.618324 0)
(1.01673 0.621492 0)
(1.05037 0.630973 0)
(1.09135 0.635369 0)
(1.14935 0.637738 0)
(1.21097 0.626675 0)
(1.27994 0.606013 0)
(3 -1.4146e-16 0)
(3 -5.09972e-16 0)
(3 -6.60978e-16 0)
(3 5.602e-16 0)
(3 8.90484e-16 0)
(3 6.09887e-16 0)
(3 8.96031e-17 0)
(3 -1.04185e-16 0)
(3 7.27538e-17 0)
(3 -9.9808e-17 0)
(3 -7.33785e-16 0)
(3 -9.642e-16 0)
(3 -4.12785e-10 0)
(3.00003 -1.10893e-05 0)
(2.84198 0.276794 0)
(1.17526 0.654992 0)
(1.00869 0.610074 0)
(1.02662 0.612843 0)
(1.04387 0.615902 0)
(1.07436 0.619354 0)
(1.11194 0.616082 0)
(1.16379 0.61035 0)
(1.21791 0.594448 0)
(1.27358 0.570451 0)
(3 -1.38363e-16 0)
(3 1.18781e-16 0)
(3 2.23209e-16 0)
(3 -1.15525e-16 0)
(3 -6.95162e-16 0)
(3 -6.83303e-16 0)
(3 -7.03137e-16 0)
(3 -1.17685e-15 0)
(3 -1.20277e-15 0)
(3 -9.69195e-16 0)
(3 -1.19117e-15 0)
(3 -9.00949e-16 0)
(3 -7.7476e-13 0)
(3 -2.75451e-06 0)
(3.05907 0.0148722 0)
(1.42534 0.602111 0)
(1.02037 0.624605 0)
(1.0271 0.617281 0)
(1.04958 0.607749 0)
(1.08143 0.600059 0)
(1.12182 0.590862 0)
(1.1716 0.5815 0)
(1.22157 0.565256 0)
(1.27074 0.543923 0)
(3 3.47429e-17 0)
(3 -2.77695e-17 0)
(3 -2.76843e-16 0)
(3 -1.12284e-15 0)
(3 -2.33778e-15 0)
(3 -2.06612e-15 0)
(3 -1.50094e-15 0)
(3 -1.03611e-15 0)
(3 -1.74599e-16 0)
(3 5.39158e-16 0)
(3 7.35644e-16 0)
(3 3.32636e-16 0)
(3 1.3121e-15 0)
(3 -2.60578e-07 0)
(3.00208 1.08342e-05 0)
(1.8485 0.568677 0)
(1.01457 0.640868 0)
(1.00089 0.597856 0)
(1.03604 0.576487 0)
(1.07219 0.566133 0)
(1.11255 0.556392 0)
(1.15892 0.546522 0)
(1.2062 0.530888 0)
(1.25464 0.511971 0)
(3 1.79845e-16 0)
(3 -1.01076e-16 0)
(3 -4.26514e-16 0)
(3 -6.50034e-16 0)
(3 -1.28804e-15 0)
(3 -1.43512e-15 0)
(3 -7.04609e-16 0)
(3 1.37991e-16 0)
(3 9.82789e-16 0)
(3 6.74735e-16 0)
(3 4.33095e-16 0)
(3 1.41294e-15 0)
(3 2.00574e-15 0)
(3 -8.20158e-09 0)
(3 -1.98076e-07 0)
(2.6677 0.365872 0)
(1.10045 0.626433 0)
(1.00398 0.563116 0)
(1.04791 0.554622 0)
(1.0819 0.546001 0)
(1.11752 0.534534 0)
(1.15739 0.52038 0)
(1.19812 0.502019 0)
(1.2419 0.482798 0)
(3 2.00852e-16 0)
(3 5.08903e-16 0)
(3 6.72367e-16 0)
(3 5.67956e-16 0)
(3 7.48495e-16 0)
(3 4.59575e-16 0)
(3 1.00681e-15 0)
(3 4.63523e-16 0)
(3 -9.26386e-17 0)
(3 -2.94889e-16 0)
(3 -2.516e-16 0)
(3 -2.51248e-17 0)
(3 8.8971e-16 0)
(3 -2.01819e-11 0)
(3 -2.66396e-07 0)
(3.06997 0.0340919 0)
(1.31649 0.543026 0)
(1.0162 0.532245 0)
(1.05491 0.53061 0)
(1.08339 0.521196 0)
(1.11758 0.509185 0)
(1.15646 0.494838 0)
(1.19583 0.477632 0)
(1.23782 0.460335 0)
(3 4.45008e-17 0)
(3 2.05246e-16 0)
(3 1.42309e-16 0)
(3 3.39563e-16 0)
(3 6.55961e-16 0)
(3 8.22723e-16 0)
(3 1.31948e-16 0)
(3 -2.52553e-16 0)
(3 -5.50327e-16 0)
(3 8.70466e-17 0)
(3 8.1552e-16 0)
(3 8.12784e-16 0)
(3 1.66976e-15 0)
(3 -2.12471e-14 0)
(3 -5.71634e-08 0)
(3.00513 0.000107227 0)
(1.48472 0.457987 0)
(0.976234 0.519555 0)
(1.01214 0.509431 0)
(1.05322 0.492031 0)
(1.09832 0.47685 0)
(1.14296 0.462944 0)
(1.18503 0.448148 0)
(1.22802 0.433379 0)
(3 -6.05048e-17 0)
(3 -1.93126e-16 0)
(3 -2.69803e-16 0)
(3 -6.3582e-16 0)
(3 -1.04516e-15 0)
(3 -6.43061e-16 0)
(3 -3.79052e-16 0)
(3 -1.83342e-16 0)
(3 7.95118e-16 0)
(3 1.7929e-15 0)
(3 2.59393e-15 0)
(3 2.43294e-15 0)
(3 1.96913e-15 0)
(3 8.83725e-16 0)
(3 -4.88777e-09 0)
(3.00002 -8.67175e-07 0)
(1.84251 0.412517 0)
(0.931701 0.481303 0)
(0.934136 0.459182 0)
(0.99619 0.453462 0)
(1.05362 0.444231 0)
(1.10596 0.432447 0)
(1.15385 0.419261 0)
(1.201 0.405413 0)
(3 3.73205e-17 0)
(3 5.22648e-17 0)
(3 1.92013e-16 0)
(3 2.79991e-16 0)
(3 -1.6238e-17 0)
(3 1.93264e-16 0)
(3 7.94289e-16 0)
(3 1.53058e-15 0)
(3 1.21807e-15 0)
(3 1.10302e-15 0)
(3 1.1371e-15 0)
(3 9.84763e-16 0)
(3 5.69215e-16 0)
(3 6.68976e-16 0)
(3 -2.41777e-11 0)
(3 -1.1628e-06 0)
(2.3517 0.36465 0)
(0.964917 0.455339 0)
(0.904956 0.404089 0)
(0.96233 0.40154 0)
(1.01106 0.401598 0)
(1.06065 0.396943 0)
(1.10968 0.388894 0)
(1.1594 0.378018 0)
(3 1.18284e-16 0)
(3 3.23277e-16 0)
(3 5.24223e-16 0)
(3 1.903e-15 0)
(3 2.54095e-15 0)
(3 1.87273e-15 0)
(3 1.89479e-15 0)
(3 2.01245e-15 0)
(3 2.16767e-15 0)
(3 1.80483e-15 0)
(3 1.2445e-15 0)
(3 6.87479e-16 0)
(3 6.73589e-16 0)
(3 9.44957e-16 0)
(3 -3.65988e-14 0)
(3 -2.47134e-07 0)
(2.87269 0.170568 0)
(1.0789 0.431584 0)
(0.924081 0.376241 0)
(0.97597 0.372256 0)
(1.01364 0.368926 0)
(1.05351 0.3624 0)
(1.09487 0.354209 0)
(1.13845 0.344002 0)
(3 -1.09245e-16 0)
(3 2.08523e-16 0)
(3 9.00143e-16 0)
(3 1.32844e-15 0)
(3 1.49418e-15 0)
(3 1.34662e-15 0)
(3 1.45506e-15 0)
(3 8.08615e-16 0)
(3 5.99256e-16 0)
(3 7.54651e-16 0)
(3 4.41964e-16 0)
(3 4.79782e-16 0)
(3 6.31362e-16 0)
(3 1.2032e-15 0)
(3 1.2206e-15 0)
(3 -2.49616e-08 0)
(3.00997 0.016265 0)
(1.1827 0.339218 0)
(0.918803 0.339327 0)
(0.973523 0.339111 0)
(1.00939 0.337856 0)
(1.04563 0.333564 0)
(1.08263 0.3264 0)
(1.12116 0.316784 0)
(3 5.43394e-17 0)
(3 -2.79884e-16 0)
(3 -1.69981e-18 0)
(3 -2.70548e-16 0)
(3 3.61854e-16 0)
(3 1.10031e-15 0)
(3 1.11238e-15 0)
(3 8.00515e-16 0)
(3 4.55315e-16 0)
(3 2.86866e-16 0)
(3 -3.22196e-16 0)
(3 -1.94401e-16 0)
(3 -1.07848e-16 0)
(3 1.92582e-16 0)
(3 4.51695e-16 0)
(3 -9.90441e-10 0)
(3.0015 0.000692216 0)
(1.25054 0.275142 0)
(0.872151 0.313373 0)
(0.927699 0.312885 0)
(0.971671 0.314113 0)
(1.0139 0.308588 0)
(1.05469 0.3013 0)
(1.09452 0.291911 0)
(3 1.51249e-17 0)
(3 -2.99471e-16 0)
(3 -5.01179e-16 0)
(3 -7.94046e-16 0)
(3 -4.17456e-16 0)
(3 -7.38892e-17 0)
(3 -4.52269e-16 0)
(3 2.84521e-16 0)
(3 2.96942e-16 0)
(3 1.27715e-16 0)
(3 -1.78334e-16 0)
(3 -4.03502e-16 0)
(3 -4.88504e-16 0)
(3 -9.77462e-16 0)
(3 -6.81208e-16 0)
(3 -2.0546e-11 0)
(3.00001 6.74839e-07 0)
(1.37587 0.260544 0)
(0.841341 0.272656 0)
(0.873122 0.273389 0)
(0.920871 0.276656 0)
(0.967264 0.27507 0)
(1.01245 0.270725 0)
(1.05549 0.263484 0)
(3 -1.47136e-16 0)
(3 -3.27724e-16 0)
(3 -8.20403e-16 0)
(3 -1.11781e-15 0)
(3 -1.35326e-15 0)
(3 -1.49764e-15 0)
(3 -1.20326e-15 0)
(3 -1.16008e-15 0)
(3 -8.61499e-16 0)
(3 -8.31148e-16 0)
(3 -7.80587e-16 0)
(3 -1.89477e-15 0)
(3 -2.54172e-15 0)
(3 -2.14222e-15 0)
(3 -1.50756e-15 0)
(3 -1.83576e-13 0)
(3 -1.00306e-10 0)
(1.55249 0.265371 0)
(0.843901 0.246269 0)
(0.842446 0.241376 0)
(0.882866 0.243913 0)
(0.922445 0.243716 0)
(0.965628 0.24098 0)
(1.00873 0.235776 0)
(3 -5.68626e-17 0)
(3 -1.12419e-16 0)
(3 -2.71884e-16 0)
(3 -7.52137e-16 0)
(3 -6.00638e-16 0)
(3 -5.97005e-16 0)
(3 -2.32566e-16 0)
(3 -2.37105e-16 0)
(3 -5.45544e-16 0)
(3 -6.82994e-16 0)
(3 -4.6299e-16 0)
(3 -5.10188e-16 0)
(3 -1.31014e-15 0)
(3 -1.39348e-15 0)
(3 -1.69266e-15 0)
(3 -1.48695e-15 0)
(3 -1.1142e-10 0)
(1.77827 0.256267 0)
(0.854242 0.233881 0)
(0.833393 0.218505 0)
(0.869554 0.214843 0)
(0.900206 0.212003 0)
(0.936623 0.209432 0)
(0.974653 0.206021 0)
(3 7.6081e-17 0)
(3 5.92926e-16 0)
(3 7.86458e-16 0)
(3 6.47154e-16 0)
(3 8.71566e-16 0)
(3 8.97607e-16 0)
(3 7.0251e-16 0)
(3 3.62934e-16 0)
(3 -8.30643e-16 0)
(3 -8.68194e-16 0)
(3 -3.97714e-16 0)
(3 6.94701e-16 0)
(3 4.67654e-16 0)
(3 -1.25645e-16 0)
(3 -1.05106e-15 0)
(3 -4.03187e-16 0)
(3 -2.40016e-11 0)
(2.02945 0.230239 0)
(0.874763 0.219779 0)
(0.835866 0.198432 0)
(0.874417 0.192961 0)
(0.901931 0.186558 0)
(0.934158 0.181968 0)
(0.96716 0.177676 0)
(3 2.15269e-17 0)
(3 2.74526e-16 0)
(3 1.12206e-16 0)
(3 4.10954e-16 0)
(3 6.50703e-16 0)
(3 2.25403e-16 0)
(3 -5.29275e-16 0)
(3 -1.54965e-15 0)
(3 -1.36547e-15 0)
(3 -1.2486e-15 0)
(3 -4.82795e-16 0)
(3 7.08647e-16 0)
(3 1.23932e-15 0)
(3 1.29046e-15 0)
(3 6.89099e-16 0)
(3 3.56336e-16 0)
(3 -2.41254e-12 0)
(2.26388 0.18688 0)
(0.899012 0.197657 0)
(0.83789 0.17621 0)
(0.879649 0.172105 0)
(0.907696 0.166524 0)
(0.938558 0.161802 0)
(0.969387 0.156951 0)
(3 -1.1996e-16 0)
(3 -2.39215e-16 0)
(3 -1.90119e-16 0)
(3 -2.99969e-16 0)
(3 -5.01437e-16 0)
(3 -8.98294e-16 0)
(3 -2.3765e-15 0)
(3 -2.65217e-15 0)
(3 -2.34864e-15 0)
(3 -9.92905e-16 0)
(3 8.54296e-17 0)
(3 8.41224e-16 0)
(3 2.12769e-15 0)
(3 2.05326e-15 0)
(3 1.80038e-15 0)
(3 1.73877e-15 0)
(3 -9.48945e-14 0)
(2.45107 0.144294 0)
(0.920655 0.170247 0)
(0.834653 0.151267 0)
(0.877904 0.149102 0)
(0.907544 0.145214 0)
(0.939079 0.141155 0)
(0.970116 0.136861 0)
(3 -5.67451e-17 0)
(3 6.17826e-17 0)
(3 -6.23913e-16 0)
(3 -1.4184e-15 0)
(3 -1.52997e-15 0)
(3 -1.68782e-15 0)
(3 -1.10654e-15 0)
(3 -1.35631e-15 0)
(3 -1.55064e-15 0)
(3 -1.21567e-15 0)
(3 -6.95306e-16 0)
(3 -4.65374e-16 0)
(3 3.49577e-16 0)
(3 7.66495e-16 0)
(3 9.63397e-16 0)
(3 1.41186e-15 0)
(3 -1.31971e-15 0)
(2.60418 0.109637 0)
(0.946404 0.139641 0)
(0.831138 0.127103 0)
(0.873733 0.125705 0)
(0.903914 0.123052 0)
(0.936203 0.119948 0)
(0.967905 0.116425 0)
(3 9.98725e-17 0)
(3 -2.98108e-16 0)
(3 -4.33063e-16 0)
(3 -7.43866e-16 0)
(3 -1.19063e-15 0)
(3 -1.51674e-15 0)
(3 -1.08181e-15 0)
(3 -1.00991e-15 0)
(3 -4.25358e-16 0)
(3 -7.20796e-16 0)
(3 -1.28968e-15 0)
(3 -1.45116e-15 0)
(3 -1.18324e-15 0)
(3 -6.66345e-16 0)
(3 -5.16586e-16 0)
(3 -4.41751e-16 0)
(3 -4.73505e-16 0)
(2.72785 0.0711124 0)
(0.977756 0.107259 0)
(0.828076 0.101869 0)
(0.870674 0.100979 0)
(0.900776 0.0992552 0)
(0.932932 0.0971437 0)
(0.964511 0.0946687 0)
(3 -2.40905e-16 0)
(3 -9.6798e-18 0)
(3 1.17208e-15 0)
(3 1.60037e-15 0)
(3 1.43334e-15 0)
(3 1.79481e-16 0)
(3 -6.1613e-16 0)
(3 9.1067e-17 0)
(3 1.57983e-17 0)
(3 -6.52898e-16 0)
(3 -1.04777e-15 0)
(3 -1.03316e-15 0)
(3 -1.18245e-15 0)
(3 -9.33805e-16 0)
(3 -6.6683e-16 0)
(3 -8.98865e-16 0)
(3 -8.0895e-16 0)
(2.7918 0.0393843 0)
(0.990395 0.0746473 0)
(0.818786 0.0779346 0)
(0.860438 0.077823 0)
(0.890221 0.0771664 0)
(0.922274 0.0757563 0)
(0.953927 0.0738463 0)
(3 7.99999e-17 0)
(3 1.0284e-15 0)
(3 1.03143e-15 0)
(3 5.68395e-16 0)
(3 3.10371e-16 0)
(3 3.55067e-16 0)
(3 2.9952e-16 0)
(3 7.05588e-16 0)
(3 3.21244e-16 0)
(3 -2.55332e-16 0)
(3 -7.51049e-16 0)
(3 -1.19125e-15 0)
(3 -1.87074e-15 0)
(3 -2.23028e-15 0)
(3 -2.18766e-15 0)
(3 -1.52456e-15 0)
(3 -1.14895e-15 0)
(2.82524 0.0241023 0)
(0.996064 0.0507544 0)
(0.808842 0.0550739 0)
(0.848644 0.0552601 0)
(0.877943 0.0552926 0)
(0.909854 0.0545732 0)
(0.941448 0.0533631 0)
(3 2.18736e-16 0)
(3 1.25555e-16 0)
(3 -2.89903e-16 0)
(3 -1.30174e-15 0)
(3 -1.98424e-15 0)
(3 -1.34017e-15 0)
(3 -1.42993e-17 0)
(3 3.94369e-16 0)
(3 6.77957e-16 0)
(3 5.69624e-16 0)
(3 3.25149e-16 0)
(3 -8.39335e-16 0)
(3 -1.16354e-15 0)
(3 -2.37245e-15 0)
(3 -2.22075e-15 0)
(3 -1.3187e-15 0)
(3 -1.27064e-15 0)
(2.85025 0.0126446 0)
(1.00496 0.0288912 0)
(0.808559 0.0319137 0)
(0.846352 0.0320714 0)
(0.874749 0.0322397 0)
(0.906002 0.0318821 0)
(0.937091 0.031208 0)
(3 -9.2801e-17 0)
(3 -1.24613e-16 0)
(3 -2.95941e-16 0)
(3 -7.59466e-16 0)
(3 -7.03273e-16 0)
(3 -2.4299e-16 0)
(3 1.02737e-16 0)
(3 2.68298e-16 0)
(3 6.30054e-16 0)
(3 5.40706e-16 0)
(3 3.04447e-16 0)
(3 7.71632e-17 0)
(3 1.62838e-16 0)
(3 -6.15055e-16 0)
(3 -3.45926e-16 0)
(3 -3.85833e-16 0)
(3 -7.78064e-16 0)
(2.85823 0.00221986 0)
(1.00529 0.00662874 0)
(0.803674 0.00980546 0)
(0.83947 0.0105165 0)
(0.866878 0.0113299 0)
(0.897815 0.0115179 0)
(0.928846 0.0114357 0)
(1.29442 1.37382 0)
(0.356294 0.700458 0)
(0.01194 0.142653 0)
(0.021008 0.00864178 0)
(0.0428688 0.00989556 0)
(0.0398106 0.025078 0)
(0.014653 0.0336974 0)
(-0.0133836 0.0269322 0)
(-0.038266 0.0129972 0)
(-0.0513107 -0.000848486 0)
(-0.0578959 -0.00685171 0)
(-0.0584938 -0.00919777 0)
(-0.0516426 -0.00934908 0)
(-0.0422879 -0.00843056 0)
(-0.0347637 -0.00584661 0)
(-0.0279427 -0.00391745 0)
(-0.0203184 -0.0023223 0)
(-0.00883927 -0.00243822 0)
(0.00816048 -0.00500046 0)
(0.029876 -0.0098302 0)
(0.0539089 -0.0159166 0)
(0.0789598 -0.0214415 0)
(0.104519 -0.0254248 0)
(0.130826 -0.0288753 0)
(0.158699 -0.0317692 0)
(0.188293 -0.0335025 0)
(0.220112 -0.034765 0)
(0.254405 -0.0353925 0)
(0.291132 -0.0355596 0)
(0.330152 -0.0356738 0)
(0.371095 -0.0361502 0)
(0.413147 -0.0370451 0)
(0.45534 -0.0382518 0)
(0.496577 -0.039893 0)
(0.536769 -0.0414407 0)
(0.575042 -0.0422013 0)
(0.61136 -0.0416527 0)
(0.646809 -0.0404665 0)
(0.682382 -0.0389269 0)
(0.718276 -0.0370703 0)
(0.754213 -0.0350113 0)
(0.789885 -0.0329679 0)
(0.825227 -0.0308302 0)
(0.860153 -0.0286785 0)
(0.894417 -0.0269833 0)
(0.927865 -0.02603 0)
(0.961126 -0.0255909 0)
(0.993408 -0.0251943 0)
(1.0236 -0.0245464 0)
(1.05128 -0.0235929 0)
(1.07715 -0.0225618 0)
(1.10228 -0.0216488 0)
(1.12747 -0.0208528 0)
(1.15283 -0.0200033 0)
(1.1779 -0.0188334 0)
(1.20203 -0.0171531 0)
(1.22513 -0.0152227 0)
(1.24778 -0.0135547 0)
(1.27095 -0.0122779 0)
(1.29489 -0.011239 0)
(1.31875 -0.0103602 0)
(1.34118 -0.0096118 0)
(1.3615 -0.00901374 0)
(1.38027 -0.00860429 0)
(1.39839 -0.0082377 0)
(1.41626 -0.00794297 0)
(1.43357 -0.00759207 0)
(1.44916 -0.00661491 0)
(1.46267 -0.00533829 0)
(1.47532 -0.00439787 0)
(1.48789 -0.00378909 0)
(1.50105 -0.00320142 0)
(1.51505 -0.00251219 0)
(1.52928 -0.00186816 0)
(1.54189 -0.00151542 0)
(1.55251 -0.00147667 0)
(1.5619 -0.00168903 0)
(1.57094 -0.00227284 0)
(1.57866 -0.00287195 0)
(1.58246 -0.00318369 0)
(1.58245 -0.00336308 0)
(1.58018 -0.00383242 0)
(1.57601 -0.0045223 0)
(1.56973 -0.0048892 0)
(1.56062 -0.00525663 0)
(1.54826 -0.00555453 0)
(1.53373 -0.00573148 0)
(1.51894 -0.00547604 0)
(1.50592 -0.00497354 0)
(1.49651 -0.00480562 0)
(1.4913 -0.00515787 0)
(1.49067 -0.00608381 0)
(1.49293 -0.00695882 0)
(1.49431 -0.00694519 0)
(1.49369 -0.00680505 0)
(1.49461 -0.00663171 0)
(1.74748 1.20797 0)
(1.26661 0.73458 0)
(0.870053 0.221305 0)
(0.550846 0.0255642 0)
(0.345723 0.0216672 0)
(0.23325 0.0591957 0)
(0.157399 0.0598089 0)
(0.104579 0.024995 0)
(0.0709605 -0.0051949 0)
(0.0571273 -0.021081 0)
(0.0544751 -0.0222274 0)
(0.0530015 -0.013786 0)
(0.0519589 -0.003029 0)
(0.055448 0.000812548 0)
(0.0617439 0.000595141 0)
(0.0704292 0.00182526 0)
(0.0815097 0.00143012 0)
(0.0958458 -0.00100197 0)
(0.11386 -0.00369407 0)
(0.1374 -0.0102538 0)
(0.166113 -0.0204941 0)
(0.198305 -0.0308375 0)
(0.231127 -0.0382399 0)
(0.262351 -0.0425426 0)
(0.292711 -0.0469279 0)
(0.324331 -0.0535181 0)
(0.359032 -0.0575262 0)
(0.396362 -0.058035 0)
(0.435159 -0.0551734 0)
(0.474043 -0.049966 0)
(0.512679 -0.044405 0)
(0.550905 -0.0407763 0)
(0.58911 -0.0400319 0)
(0.627576 -0.0413149 0)
(0.665948 -0.0442477 0)
(0.703064 -0.0480024 0)
(0.73768 -0.0509053 0)
(0.769511 -0.0514574 0)
(0.799889 -0.0508634 0)
(0.830478 -0.0498039 0)
(0.861989 -0.047971 0)
(0.894301 -0.0453614 0)
(0.926541 -0.0414452 0)
(0.9578 -0.035367 0)
(0.987273 -0.0286026 0)
(1.01561 -0.0235634 0)
(1.04359 -0.0215378 0)
(1.07174 -0.0220804 0)
(1.09974 -0.0232849 0)
(1.12604 -0.0231307 0)
(1.14939 -0.0215299 0)
(1.17075 -0.0199871 0)
(1.19171 -0.0195274 0)
(1.21344 -0.0202589 0)
(1.23602 -0.0211873 0)
(1.25872 -0.0205294 0)
(1.2806 -0.017464 0)
(1.30146 -0.0130088 0)
(1.32183 -0.00887841 0)
(1.34234 -0.00600069 0)
(1.36319 -0.00457186 0)
(1.38392 -0.0040791 0)
(1.40344 -0.00319021 0)
(1.42088 -0.00203265 0)
(1.43686 -0.00148356 0)
(1.4522 -0.00188294 0)
(1.46728 -0.00317421 0)
(1.48196 -0.00384866 0)
(1.49515 -0.00285708 0)
(1.50725 -0.000841617 0)
(1.51901 0.00164433 0)
(1.53079 0.00385194 0)
(1.54284 0.00565372 0)
(1.5553 0.00663395 0)
(1.56721 0.00697592 0)
(1.57773 0.00714714 0)
(1.58681 0.00715393 0)
(1.59482 0.00634528 0)
(1.60141 0.0041258 0)
(1.60507 0.00215149 0)
(1.60474 0.000773283 0)
(1.60207 -0.00101509 0)
(1.59756 -0.00343281 0)
(1.59109 -0.0060922 0)
(1.58202 -0.00876557 0)
(1.57012 -0.0110973 0)
(1.55649 -0.0126074 0)
(1.54266 -0.0122142 0)
(1.53018 -0.00989495 0)
(1.52085 -0.00681728 0)
(1.51517 -0.00472057 0)
(1.51309 -0.00463988 0)
(1.5143 -0.00787616 0)
(1.51755 -0.011148 0)
(1.51851 -0.0117908 0)
(1.51975 -0.0101406 0)
(1.68993 1.03221 0)
(1.5798 0.917388 0)
(1.49811 0.696387 0)
(1.24923 0.527469 0)
(0.943398 0.359958 0)
(0.740556 0.214682 0)
(0.61084 0.113544 0)
(0.523253 0.0518465 0)
(0.457788 0.0273775 0)
(0.414213 0.0194706 0)
(0.391755 0.0172774 0)
(0.383829 0.021451 0)
(0.374968 0.0195227 0)
(0.366987 0.0146308 0)
(0.366967 0.0021512 0)
(0.37714 -0.0229479 0)
(0.398478 -0.0451033 0)
(0.424682 -0.0554723 0)
(0.449521 -0.0622679 0)
(0.475792 -0.0686637 0)
(0.506483 -0.0756024 0)
(0.542254 -0.0866919 0)
(0.581539 -0.100194 0)
(0.619649 -0.110459 0)
(0.654107 -0.114948 0)
(0.685405 -0.114162 0)
(0.716 -0.113737 0)
(0.748802 -0.115406 0)
(0.784258 -0.118529 0)
(0.820862 -0.121269 0)
(0.856887 -0.121822 0)
(0.890571 -0.119684 0)
(0.921556 -0.115765 0)
(0.951002 -0.111868 0)
(0.979638 -0.108991 0)
(1.00742 -0.107565 0)
(1.03356 -0.106441 0)
(1.05737 -0.104137 0)
(1.0783 -0.100237 0)
(1.09796 -0.0960168 0)
(1.11835 -0.0926558 0)
(1.14035 -0.0904639 0)
(1.16385 -0.0890718 0)
(1.18806 -0.0869501 0)
(1.21128 -0.0824891 0)
(1.23223 -0.076621 0)
(1.25154 -0.0711397 0)
(1.27044 -0.0674562 0)
(1.29 -0.0660422 0)
(1.31028 -0.0651776 0)
(1.32897 -0.0623508 0)
(1.34493 -0.0577544 0)
(1.35967 -0.0521931 0)
(1.37416 -0.046604 0)
(1.38891 -0.0432058 0)
(1.40455 -0.0425827 0)
(1.42181 -0.0429264 0)
(1.43929 -0.0415802 0)
(1.4554 -0.0383476 0)
(1.47098 -0.0347243 0)
(1.48668 -0.0316473 0)
(1.50241 -0.0294197 0)
(1.51796 -0.0276035 0)
(1.53183 -0.0255535 0)
(1.54384 -0.023581 0)
(1.55531 -0.0210211 0)
(1.56643 -0.0186577 0)
(1.57713 -0.0175893 0)
(1.58745 -0.0174339 0)
(1.59742 -0.0169188 0)
(1.60694 -0.015394 0)
(1.61609 -0.0128148 0)
(1.62542 -0.0098172 0)
(1.63489 -0.00743456 0)
(1.64405 -0.00607647 0)
(1.65277 -0.00533763 0)
(1.66061 -0.00462915 0)
(1.66691 -0.00422352 0)
(1.67142 -0.00436586 0)
(1.67388 -0.00445834 0)
(1.67356 -0.00426356 0)
(1.67029 -0.00321639 0)
(1.66353 -0.00211704 0)
(1.65583 -0.00242904 0)
(1.64576 -0.00343191 0)
(1.63348 -0.00548077 0)
(1.62031 -0.00815224 0)
(1.60774 -0.0107433 0)
(1.59739 -0.0122591 0)
(1.59028 -0.0123503 0)
(1.58545 -0.0102108 0)
(1.58222 -0.00744366 0)
(1.58042 -0.00628487 0)
(1.5807 -0.00794806 0)
(1.5827 -0.0118166 0)
(1.5861 -0.0133777 0)
(1.59177 0.941512 0)
(1.62136 0.85608 0)
(1.7047 0.739583 0)
(1.73346 0.608533 0)
(1.5755 0.473126 0)
(1.4143 0.346262 0)
(1.28588 0.24542 0)
(1.17447 0.171078 0)
(1.08077 0.115937 0)
(1.00489 0.0873528 0)
(0.949721 0.0571457 0)
(0.926754 0.0163949 0)
(0.916078 -0.0143637 0)
(0.903642 -0.0303363 0)
(0.893522 -0.0412275 0)
(0.896486 -0.0501011 0)
(0.911734 -0.0602729 0)
(0.938405 -0.0740681 0)
(0.968773 -0.0850216 0)
(0.996075 -0.0894018 0)
(1.02071 -0.0925889 0)
(1.04754 -0.0956637 0)
(1.07843 -0.0994354 0)
(1.11127 -0.1056 0)
(1.14201 -0.111958 0)
(1.16833 -0.115582 0)
(1.19071 -0.114948 0)
(1.21163 -0.111643 0)
(1.23354 -0.108617 0)
(1.25718 -0.107455 0)
(1.28148 -0.107528 0)
(1.30435 -0.10778 0)
(1.32395 -0.107433 0)
(1.33977 -0.106087 0)
(1.35315 -0.104083 0)
(1.36594 -0.102202 0)
(1.37917 -0.100169 0)
(1.39258 -0.0964469 0)
(1.40501 -0.0900146 0)
(1.41587 -0.081289 0)
(1.42634 -0.0717992 0)
(1.43801 -0.0637323 0)
(1.45104 -0.0585347 0)
(1.46524 -0.0554198 0)
(1.48046 -0.0528976 0)
(1.4938 -0.0499271 0)
(1.5048 -0.0471471 0)
(1.51491 -0.0438857 0)
(1.52546 -0.0401581 0)
(1.53747 -0.0375584 0)
(1.54978 -0.037141 0)
(1.55984 -0.0377459 0)
(1.56965 -0.0381529 0)
(1.57908 -0.0364375 0)
(1.58779 -0.0314751 0)
(1.5975 -0.0253813 0)
(1.60902 -0.020447 0)
(1.62134 -0.0171587 0)
(1.63248 -0.0157793 0)
(1.64348 -0.0152329 0)
(1.65476 -0.014023 0)
(1.66595 -0.0117799 0)
(1.67634 -0.00989338 0)
(1.68562 -0.00877138 0)
(1.69347 -0.00797123 0)
(1.70043 -0.00680055 0)
(1.70751 -0.00518306 0)
(1.71483 -0.00418466 0)
(1.72215 -0.00405431 0)
(1.72911 -0.00386703 0)
(1.73546 -0.0032126 0)
(1.74153 -0.00212385 0)
(1.74812 -0.000639419 0)
(1.75492 0.000651151 0)
(1.76141 0.00139889 0)
(1.7674 0.00151847 0)
(1.77243 0.000999408 0)
(1.77594 -0.000479739 0)
(1.77809 -0.00305451 0)
(1.7789 -0.00594551 0)
(1.77783 -0.00944961 0)
(1.77415 -0.0123367 0)
(1.7676 -0.0136759 0)
(1.7598 -0.0145006 0)
(1.74991 -0.014617 0)
(1.73791 -0.0150175 0)
(1.72504 -0.0156376 0)
(1.71311 -0.0157697 0)
(1.70393 -0.0161345 0)
(1.69833 -0.0175146 0)
(1.69557 -0.0177025 0)
(1.69189 -0.0150869 0)
(1.68847 -0.0117414 0)
(1.68636 -0.00998808 0)
(1.68546 -0.0102401 0)
(1.6879 -0.0132861 0)
(1.50103 0.815156 0)
(1.56049 0.756757 0)
(1.66496 0.677745 0)
(1.77901 0.595948 0)
(1.7897 0.510349 0)
(1.75174 0.449657 0)
(1.71747 0.379457 0)
(1.66654 0.306167 0)
(1.60368 0.233333 0)
(1.55089 0.168007 0)
(1.50018 0.116449 0)
(1.46573 0.0633444 0)
(1.45734 0.00962591 0)
(1.45205 -0.0338852 0)
(1.43744 -0.056372 0)
(1.42827 -0.0692612 0)
(1.42886 -0.0745441 0)
(1.43885 -0.0863888 0)
(1.45782 -0.101947 0)
(1.47527 -0.113996 0)
(1.48731 -0.121501 0)
(1.49781 -0.128513 0)
(1.50956 -0.136457 0)
(1.5242 -0.145948 0)
(1.53988 -0.154349 0)
(1.55331 -0.157711 0)
(1.56353 -0.157156 0)
(1.57119 -0.154311 0)
(1.57819 -0.150364 0)
(1.5863 -0.147137 0)
(1.59576 -0.14546 0)
(1.60537 -0.144329 0)
(1.61325 -0.141682 0)
(1.61779 -0.136091 0)
(1.6202 -0.127843 0)
(1.62331 -0.118484 0)
(1.62797 -0.111719 0)
(1.63323 -0.109392 0)
(1.63871 -0.109827 0)
(1.64444 -0.109255 0)
(1.64879 -0.104949 0)
(1.65397 -0.0969204 0)
(1.6607 -0.0880447 0)
(1.66862 -0.08157 0)
(1.67786 -0.0787648 0)
(1.68628 -0.0775899 0)
(1.69291 -0.0754504 0)
(1.69968 -0.0697864 0)
(1.70667 -0.0625495 0)
(1.71339 -0.0581855 0)
(1.72045 -0.0572307 0)
(1.72757 -0.0568471 0)
(1.73458 -0.0549113 0)
(1.74156 -0.0512332 0)
(1.7491 -0.0458298 0)
(1.75702 -0.0395786 0)
(1.76501 -0.0343716 0)
(1.77313 -0.0318271 0)
(1.78114 -0.0307956 0)
(1.78937 -0.0290666 0)
(1.79832 -0.0264484 0)
(1.80749 -0.0227935 0)
(1.81609 -0.0181429 0)
(1.82325 -0.0139292 0)
(1.82854 -0.0110725 0)