/*--------------------------------*- C++ -*----------------------------------*\
  =========                 |
  \\      /  F ield         | OpenFOAM: The Open Source CFD Toolbox
   \\    /   O peration     | Website:  https://openfoam.org
    \\  /    A nd           | Version:  7
     \\/     M anipulation  |
\*---------------------------------------------------------------------------*/
FoamFile
{
    version     2.0;
    format      ascii;
    class       volScalarField;
    location    "145";
    object      p;
}
// * * * * * * * * * * * * * * * * * * * * * * * * * * * * * * * * * * * * * //

dimensions      [0 2 -2 0 0 0 0];

internalField   nonuniform List<scalar> 
1989
(
-0.18034
-0.179404
-0.19439
-0.178186
-0.192537
-0.176703
-0.190462
-0.174967
-0.188172
-0.17299
-0.2018
-0.185674
-0.170781
-0.198785
-0.182972
-0.168348
-0.195587
-0.180069
-0.165698
-0.192207
-0.176969
-0.162835
-0.20431
-0.188642
-0.173673
-0.159765
-0.200328
-0.184892
-0.170183
-0.156489
-0.196166
-0.180956
-0.166498
-0.153013
-0.191821
-0.176832
-0.162619
-0.149337
-0.187289
-0.172518
-0.158547
-0.145463
-0.182565
-0.168011
-0.15428
-0.141395
-0.177645
-0.163311
-0.14982
-0.137132
-0.172526
-0.158416
-0.145164
-0.132677
-0.167204
-0.153323
-0.140313
-0.128032
-0.176204
-0.161676
-0.148031
-0.135267
-0.123197
-0.170239
-0.15594
-0.142539
-0.130026
-0.118175
-0.164053
-0.149994
-0.136847
-0.12459
-0.11297
-0.157643
-0.143836
-0.130954
-0.118961
-0.107585
-0.151008
-0.137465
-0.12486
-0.113143
-0.102027
-0.144144
-0.130879
-0.118563
-0.107133
-0.0962974
-0.124079
-0.112065
-0.100931
-0.0903741
-0.117066
-0.105372
-0.0945403
-0.0842197
-0.109843
-0.0984882
-0.0879711
-0.135909
-0.124433
-0.109491
-0.0949902
-0.081644
-0.0691257
-0.0574251
-0.0469455
-0.0380696
-0.0310653
-0.0261291
-0.0234012
-0.0229568
-0.130014
-0.11995
-0.106449
-0.093244
-0.0811534
-0.0698519
-0.0592687
-0.0497189
-0.0415534
-0.0350227
-0.0302982
-0.0274987
-0.0266868
-0.124126
-0.115344
-0.103233
-0.0912763
-0.0803541
-0.0701789
-0.060631
-0.0519514
-0.0444541
-0.0383708
-0.0338546
-0.0310075
-0.0298806
-0.118216
-0.110642
-0.0998536
-0.0890803
-0.0792424
-0.0701036
-0.0615115
-0.0536429
-0.0467737
-0.0411177
-0.0368127
-0.0339455
-0.0325574
-0.112348
-0.105871
-0.0963146
-0.0866539
-0.0778225
-0.0696365
-0.0619246
-0.0548099
-0.048531
-0.0432833
-0.0391913
-0.0363292
-0.0347304
-0.106531
-0.10104
-0.0926244
-0.0840029
-0.0761045
-0.0687934
-0.0618904
-0.0554749
-0.0497496
-0.0448917
-0.0410138
-0.0381803
-0.0364189
-0.100767
-0.0961643
-0.0887967
-0.0811398
-0.0741033
-0.0675944
-0.0614335
-0.0556647
-0.0504578
-0.0459717
-0.0423089
-0.0395262
-0.0376468
-0.0950702
-0.0912596
-0.084849
-0.0780822
-0.071839
-0.066064
-0.0605824
-0.0554102
-0.0506878
-0.0465565
-0.0431096
-0.0403976
-0.0384408
-0.0894557
-0.0863435
-0.0808012
-0.0748512
-0.0693355
-0.0642302
-0.059369
-0.0547461
-0.0504757
-0.0466825
-0.0434512
-0.0408275
-0.0388293
-0.0839344
-0.0814345
-0.0766752
-0.0714709
-0.0666194
-0.0621235
-0.0578275
-0.0537091
-0.0498595
-0.0463879
-0.0433711
-0.0408506
-0.0388427
-0.0785192
-0.076552
-0.072494
-0.0679665
-0.0637191
-0.059776
-0.0559937
-0.0523375
-0.0488788
-0.0457123
-0.0429076
-0.0405027
-0.0385127
-0.0732217
-0.0717143
-0.0682804
-0.0643639
-0.0606637
-0.0572207
-0.053904
-0.0506701
-0.0475734
-0.0446958
-0.0420996
-0.0398199
-0.037871
-0.0680516
-0.0669383
-0.0640567
-0.060689
-0.0574826
-0.0544906
-0.0515947
-0.0487455
-0.0459834
-0.0433783
-0.040986
-0.0388385
-0.0369495
-0.0630184
-0.0622402
-0.0598448
-0.0569677
-0.0542049
-0.0516183
-0.0491016
-0.0466022
-0.0441482
-0.0417993
-0.0396051
-0.0375946
-0.0357812
-0.058131
-0.057635
-0.0556654
-0.053225
-0.0508593
-0.0486359
-0.0464599
-0.0442772
-0.0421064
-0.0399973
-0.0379943
-0.0361239
-0.0343991
-0.0533979
-0.0531367
-0.0515382
-0.049485
-0.0474734
-0.0455741
-0.0437033
-0.0418067
-0.0398951
-0.03801
-0.0361903
-0.0344602
-0.0328319
-0.0488268
-0.0487587
-0.0474818
-0.0457703
-0.0440734
-0.0424625
-0.0408641
-0.0392252
-0.0375501
-0.0358732
-0.0342285
-0.0326382
-0.0311129
-0.0444249
-0.0445131
-0.0435134
-0.0421025
-0.040684
-0.0393289
-0.0379729
-0.0365651
-0.0351051
-0.033621
-0.0321426
-0.0306897
-0.0292709
-0.0401983
-0.0404109
-0.0396489
-0.038501
-0.0373282
-0.0361992
-0.0350582
-0.0338572
-0.0325921
-0.0312855
-0.0299629
-0.0286422
-0.0273335
-0.0361526
-0.036462
-0.0359026
-0.0349841
-0.0340272
-0.0330972
-0.0321463
-0.0311297
-0.0300408
-0.0288974
-0.0277215
-0.0265287
-0.0253278
-0.0322923
-0.0326751
-0.0322873
-0.031568
-0.0308001
-0.0300449
-0.0292615
-0.0284088
-0.0274784
-0.0264843
-0.0254451
-0.0243742
-0.0232795
-0.0286214
-0.0290578
-0.0288145
-0.0282675
-0.0276645
-0.0270622
-0.0264259
-0.0257184
-0.0249301
-0.0240718
-0.0231592
-0.0222039
-0.0212126
-0.0251432
-0.0256168
-0.0254944
-0.0250958
-0.0246362
-0.0241672
-0.0236596
-0.0230802
-0.0224188
-0.0216836
-0.0208876
-0.0200407
-0.0191487
-0.0218607
-0.022358
-0.022336
-0.0220647
-0.0217292
-0.021376
-0.0209807
-0.0205139
-0.0199655
-0.0193414
-0.0186521
-0.0179062
-0.0171088
-0.0187765
-0.0192866
-0.0193474
-0.0191848
-0.0189564
-0.0187033
-0.0184056
-0.0180374
-0.017589
-0.0170646
-0.0164727
-0.0158203
-0.0151118
-0.015893
-0.0164072
-0.0165358
-0.0164656
-0.0163291
-0.0161624
-0.0159491
-0.0156669
-0.0153068
-0.0148715
-0.0143676
-0.0138012
-0.0131757
-0.0132125
-0.0137242
-0.0139078
-0.0139157
-0.013858
-0.0137654
-0.0136248
-0.0134173
-0.0131346
-0.0127784
-0.0123539
-0.0118657
-0.011317
-0.0107378
-0.011242
-0.0114698
-0.0115435
-0.0115528
-0.0115235
-0.0114453
-0.0113022
-0.0110871
-0.0108007
-0.010447
-0.0100297
-0.00955122
-0.00847189
-0.00896513
-0.00922813
-0.00935677
-0.00942275
-0.00944725
-0.00942213
-0.00933451
-0.00917799
-0.00895277
-0.00866176
-0.00830786
-0.00789301
-0.0064185
-0.00689864
-0.00718924
-0.00736351
-0.00747713
-0.00754698
-0.00756683
-0.00752641
-0.00742028
-0.00724815
-0.00701216
-0.00671452
-0.00635665
-0.00458245
-0.00504841
-0.00536036
-0.00557213
-0.00572542
-0.00583315
-0.00589069
-0.00589007
-0.00582682
-0.00570041
-0.0055122
-0.00526373
-0.00495603
-0.00296963
-0.00342134
-0.00374953
-0.00399173
-0.00417765
-0.00431665
-0.00440539
-0.00443792
-0.00441065
-0.00432287
-0.00417541
-0.00396927
-0.0037051
-0.0015881
-0.00202625
-0.0023665
-0.00263295
-0.0028452
-0.00300954
-0.00312362
-0.00318318
-0.00318547
-0.00312972
-0.00301627
-0.00284566
-0.00261824
-0.000447799
-0.000873886
-0.00122284
-0.00150806
-0.00174097
-0.00192524
-0.00205931
-0.00214031
-0.00216623
-0.00213617
-0.00205008
-0.00190824
-0.00171081
0.000438866
2.24648e-05
-0.000332545
-0.000631628
-0.000879964
-0.00107915
-0.00122815
-0.00132515
-0.0013687
-0.00135805
-0.001293
-0.00117338
-0.000999057
0.00105244
0.000643572
0.000284755
-2.36768e-05
-0.000282448
-0.000491712
-0.000650814
-0.000758744
-0.000814407
-0.000816834
-0.00076568
-0.000660985
-0.00050254
0.00137868
0.000972068
0.000610715
0.000297227
3.28506e-05
-0.000181837
-0.000346328
-0.00045995
-0.000521896
-0.000531427
-0.000488055
-0.000391442
-0.000241289
-0.104557
-0.0985203
-0.0926342
-0.0869089
-0.081367
-0.0760056
-0.070818
-0.0658067
-0.0609702
-0.0563055
-0.0518113
-0.047486
-0.0433273
-0.0393328
-0.0354983
-0.0318212
-0.0283001
-0.0249398
-0.0217331
-0.018676
-0.0157661
-0.0130009
-0.010378
-0.00789504
-0.00554985
-0.0033405
-0.00126532
0.000676923
0.00248744
0.00416677
0.00571618
0.00713216
0.00841443
0.0095612
0.0105687
0.0114316
0.0121453
0.012696
0.0130852
0.0132754
-0.10946
-0.103137
-0.0969629
-0.0909713
-0.0851797
-0.0795815
-0.0741708
-0.0689479
-0.0639121
-0.0590598
-0.0543893
-0.0498982
-0.045584
-0.0414436
-0.0374735
-0.0336718
-0.0300343
-0.0265635
-0.0232535
-0.0201003
-0.0171014
-0.0142537
-0.0115542
-0.0090004
-0.00658966
-0.0043198
-0.00218883
-0.000195173
0.00166242
0.00338445
0.00497273
0.00642407
0.00773819
0.00891323
0.00994549
0.0108297
0.0115613
0.0121264
0.0125261
0.0127243
-0.114196
-0.107597
-0.101146
-0.0949001
-0.0888701
-0.0830457
-0.077421
-0.0719955
-0.0667683
-0.0617361
-0.0568962
-0.052246
-0.0477824
-0.0435022
-0.0394015
-0.0354781
-0.0317275
-0.0281499
-0.0247402
-0.0214944
-0.0184092
-0.0154813
-0.0127075
-0.0100847
-0.00761007
-0.00528115
-0.0030957
-0.00105182
0.000851852
0.00261595
0.00424231
0.00572835
0.00707375
0.00827657
0.0093332
0.0102384
0.0109876
0.0115669
0.0119768
0.0121829
-0.118759
-0.111896
-0.10518
-0.0986926
-0.092436
-0.086396
-0.0805673
-0.0749485
-0.0695385
-0.0643339
-0.0593317
-0.0545289
-0.049922
-0.0455074
-0.0412812
-0.0372403
-0.0333802
-0.0296995
-0.0261936
-0.0228582
-0.0196895
-0.0166838
-0.0138377
-0.0111477
-0.0086109
-0.00622438
-0.00398571
-0.00189277
5.59845e-05
0.00186141
0.0035252
0.00504531
0.00642139
0.00765148
0.00873207
0.0096579
0.0104245
0.0110176
0.0114376
0.0116515
-0.123147
-0.116032
-0.109063
-0.102347
-0.0958753
-0.0896308
-0.0836079
-0.0778052
-0.0722211
-0.0668522
-0.061695
-0.0567463
-0.0520022
-0.0474588
-0.043112
-0.0389581
-0.0349924
-0.0312124
-0.0276137
-0.0241916
-0.020942
-0.0178609
-0.0149446
-0.0121894
-0.00959197
-0.00714928
-0.00485866
-0.00271778
-0.000724906
0.00112101
0.00282158
0.00437512
0.00578132
0.00703819
0.00814233
0.00908843
0.009872
0.0104789
0.0109086
0.0111302
-0.127357
-0.12
-0.112792
-0.10586
-0.0991863
-0.0927484
-0.0865414
-0.0805644
-0.074815
-0.0692899
-0.0639852
-0.0588974
-0.0540223
-0.0493558
-0.0448934
-0.0406311
-0.036564
-0.0326885
-0.0290003
-0.0254944
-0.0221666
-0.0190125
-0.0160281
-0.0132095
-0.0105531
-0.00805567
-0.00571435
-0.00352661
-0.00149059
0.000394969
0.00213161
0.00371798
0.00515374
0.00643692
0.00756421
0.00853022
0.00933049
0.00995083
0.0103901
0.0106191
-0.131386
-0.123798
-0.116364
-0.10923
-0.102367
-0.0957469
-0.0893664
-0.0832246
-0.0773191
-0.0716461
-0.0662016
-0.0609816
-0.0559819
-0.051198
-0.0466252
-0.0422591
-0.0380946
-0.0341274
-0.0303531
-0.0267666
-0.0233632
-0.0201385
-0.0170881
-0.0142079
-0.0114941
-0.0089434
-0.00655261
-0.0043191
-0.00224087
-0.000316516
0.0014555
0.00307407
0.00453884
0.00584787
0.00699789
0.00798347
0.00880012
0.00943367
0.00988217
0.0101185
-0.135231
-0.127422
-0.119776
-0.112455
-0.105414
-0.0986245
-0.0920812
-0.0857847
-0.0797323
-0.0739199
-0.0683433
-0.0629983
-0.0578804
-0.052985
-0.048307
-0.0438417
-0.0395841
-0.0355291
-0.0316721
-0.028008
-0.0245317
-0.0212387
-0.0181244
-0.0151845
-0.012415
-0.00981233
-0.00737331
-0.00509511
-0.00297559
-0.00101327
0.00079341
0.00244356
0.00393682
0.00527124
0.00644359
0.00744837
0.00828109
0.00892758
0.00938509
0.00962853
-0.138887
-0.130868
-0.123025
-0.11553
-0.108327
-0.101379
-0.0946841
-0.0882431
-0.0820533
-0.0761103
-0.0704096
-0.0649469
-0.0597174
-0.0547163
-0.0499386
-0.0453789
-0.0410323
-0.0368933
-0.0329572
-0.0292184
-0.025672
-0.0223131
-0.019137
-0.0161392
-0.0133155
-0.0106624
-0.00817634
-0.00585451
-0.00369464
-0.00169514
0.000145504
0.00182664
0.00334785
0.00470718
0.00590146
0.0069251
0.00777357
0.00843274
0.00889899
0.00914924
-0.142351
-0.134131
-0.126106
-0.118454
-0.111102
-0.104009
-0.0971733
-0.0905984
-0.084281
-0.0782164
-0.0723998
-0.0668267
-0.0614924
-0.0563917
-0.0515195
-0.0468705
-0.0424392
-0.0382201
-0.0342082
-0.0303979
-0.0267841
-0.0233617
-0.0201258
-0.0170719
-0.0141958
-0.0114935
-0.00896163
-0.00659722
-0.00439791
-0.00236203
-0.000488086
0.00122343
0.00277207
0.00415587
0.00537167
0.00641382
0.0072777
0.00794928
0.00842401
0.00868082
-0.145619
-0.137208
-0.129016
-0.121224
-0.113737
-0.106511
-0.0995469
-0.0928489
-0.086414
-0.080237
-0.0743129
-0.0686371
-0.0632047
-0.0580107
-0.0530497
-0.0483162
-0.0438046
-0.0395094
-0.0354252
-0.0315465
-0.0278679
-0.0243844
-0.0210908
-0.0179827
-0.0150556
-0.0123056
-0.00972911
-0.00732316
-0.00508531
-0.00301382
-0.00110725
0.000634057
0.00220961
0.00361742
0.00485436
0.00591465
0.00679364
0.00747736
0.00796031
0.00822339
-0.148687
-0.140091
-0.13175
-0.123835
-0.11623
-0.108884
-0.101803
-0.0949929
-0.0884509
-0.082171
-0.076148
-0.0703772
-0.064854
-0.059573
-0.0545288
-0.0497158
-0.0451285
-0.0407611
-0.0366081
-0.0326641
-0.0289235
-0.0253812
-0.0220321
-0.0188715
-0.0158951
-0.0130986
-0.0104788
-0.00803228
-0.00575677
-0.00365044
-0.00171191
5.86176e-05
0.00166058
0.00309196
0.00434963
0.00542774
0.00632151
0.0070171
0.00750799
0.00777705
-0.151548
-0.142776
-0.134304
-0.126284
-0.118576
-0.111124
-0.103938
-0.0970283
-0.0903901
-0.0840172
-0.0779042
-0.0720465
-0.0664395
-0.061078
-0.0559565
-0.0510692
-0.0464107
-0.0419751
-0.0377571
-0.0337508
-0.029951
-0.0263523
-0.0229497
-0.0197385
-0.0167142
-0.0138727
-0.0112106
-0.00872457
-0.00641227
-0.00427185
-0.00230199
-0.000502811
0.00112506
0.00257959
0.00385761
0.00495319
0.00586142
0.00656861
0.00706719
0.00734192
-0.154198
-0.145255
-0.136671
-0.128568
-0.120774
-0.113229
-0.105951
-0.0989531
-0.09223
-0.0857743
-0.0795804
-0.073644
-0.0679608
-0.0625255
-0.0573325
-0.0523762
-0.0476512
-0.0431516
-0.038872
-0.0348067
-0.0309503
-0.0272977
-0.0238437
-0.0205836
-0.017513
-0.0146278
-0.0119246
-0.00940002
-0.00705178
-0.00487801
-0.00287745
-0.00105017
0.000603136
0.00208038
0.00337838
0.00449109
0.00541348
0.00613199
0.006638
0.00691808
-0.156628
-0.147522
-0.138847
-0.130683
-0.122819
-0.115196
-0.107839
-0.100765
-0.0939689
-0.087441
-0.0811755
-0.0751689
-0.0694172
-0.063915
-0.0586566
-0.0536367
-0.0488499
-0.0442905
-0.0399529
-0.0358318
-0.0319217
-0.0282175
-0.0247141
-0.021407
-0.0182916
-0.0153641
-0.0126208
-0.0100587
-0.00767532
-0.00546891
-0.00343826
-0.00158342
9.485e-05
0.0015944
0.00291201
0.00404153
0.00497776
0.00570732
0.00622051
0.00650562
-0.158831
-0.149567
-0.140825
-0.132624
-0.124709
-0.11702
-0.109597
-0.102462
-0.095605
-0.0890156
-0.0826882
-0.0766203
-0.0708081
-0.065246
-0.0599285
-0.0548505
-0.0500068
-0.0453917
-0.041
-0.0368262
-0.0328652
-0.0291118
-0.0255611
-0.0222087
-0.0190501
-0.0160815
-0.0132993
-0.0107006
-0.00828291
-0.00604456
-0.00398442
-0.00210254
-0.00039976
0.00112169
0.00245856
0.00360456
0.00455435
0.0052947
0.00581481
0.00610462
-0.160797
-0.151381
-0.142599
-0.134386
-0.126438
-0.118698
-0.111224
-0.10404
-0.0971362
-0.0904966
-0.0841171
-0.0779972
-0.0721328
-0.066518
-0.0611477
-0.0560174
-0.0511217
-0.0464554
-0.0420132
-0.0377901
-0.0337809
-0.0299807
-0.0263849
-0.0229889
-0.0197886
-0.0167801
-0.0139602
-0.0113258
-0.0088746
-0.006605
-0.00451595
-0.00260753
-0.000880677
0.000662297
0.00201807
0.00318025
0.00414329
0.00489416
0.00542097
0.00571515
-0.162515
-0.152954
-0.144161
-0.135967
-0.128003
-0.120225
-0.112714
-0.105499
-0.0985607
-0.0918819
-0.0854607
-0.0792985
-0.0733905
-0.0677305
-0.0623141
-0.0571372
-0.0521947
-0.0474815
-0.0429927
-0.0387235
-0.034669
-0.0308245
-0.0271855
-0.0237478
-0.0205072
-0.0174603
-0.0146036
-0.0119344
-0.00945047
-0.00715027
-0.00503286
-0.0030984
-0.0013479
0.00021622
0.00159056
0.00276863
0.00374464
0.00450578
0.00503906
0.00533726
-0.163973
-0.154273
-0.145506
-0.137359
-0.129397
-0.121596
-0.114064
-0.106834
-0.0998759
-0.0931693
-0.0867173
-0.0805232
-0.0745804
-0.0688827
-0.0634272
-0.0582098
-0.0532256
-0.04847
-0.0439386
-0.0396266
-0.0355297
-0.0316433
-0.0279633
-0.0244855
-0.0212062
-0.0181219
-0.0152296
-0.0125265
-0.0100106
-0.00768044
-0.00553523
-0.00357519
-0.00180145
-0.000216539
0.00117605
0.00236972
0.00335843
0.00412958
0.00466911
0.004971
-0.165156
-0.155327
-0.146624
-0.138559
-0.130616
-0.122804
-0.11527
-0.108044
-0.101079
-0.0943563
-0.0878855
-0.0816702
-0.0757015
-0.0699741
-0.0644865
-0.0592348
-0.0542143
-0.0494211
-0.0448509
-0.0404997
-0.0363632
-0.0324374
-0.0287183
-0.0252023
-0.0218857
-0.0187654
-0.0158384
-0.0131023
-0.0105551
-0.0081956
-0.00602311
-0.00403794
-0.00224135
-0.000635994
0.00077454
0.00198353
0.00298468
0.00376559
0.00431118
0.00461642
-0.166046
-0.1561
-0.147508
-0.139558
-0.13165
-0.123841
-0.116327
-0.109124
-0.102167
-0.0954397
-0.0889632
-0.082738
-0.0767524
-0.0710037
-0.0654917
-0.0602121
-0.0551608
-0.0503346
-0.0457298
-0.0413427
-0.0371696
-0.0332069
-0.0294509
-0.0258984
-0.022546
-0.0193908
-0.0164302
-0.0136618
-0.0110841
-0.00869587
-0.00649659
-0.00448672
-0.00266765
-0.00104218
0.000386001
0.00161005
0.00262339
0.00341384
0.00396529
0.00427356
-0.166625
-0.156578
-0.14815
-0.140354
-0.132491
-0.1247
-0.117231
-0.110074
-0.103136
-0.0964174
-0.0899496
-0.0837254
-0.0777321
-0.0719711
-0.0664424
-0.0611413
-0.0560649
-0.0512107
-0.0465754
-0.042156
-0.0379492
-0.033952
-0.0301613
-0.0265739
-0.0231872
-0.0199983
-0.0170051
-0.0142054
-0.0115978
-0.00918136
-0.00695577
-0.00492161
-0.00308042
-0.00143514
1.04101e-05
0.00124927
0.00227457
0.00307432
0.00363146
0.00394244
-0.166868
-0.156743
-0.148544
-0.140937
-0.133125
-0.12537
-0.117978
-0.110886
-0.103978
-0.0972851
-0.0908418
-0.0846295
-0.0786386
-0.0728752
-0.0673377
-0.0620219
-0.0569264
-0.0520492
-0.0473878
-0.0429396
-0.0387023
-0.0346732
-0.0308497
-0.0272293
-0.0238096
-0.0205883
-0.0175633
-0.0147331
-0.0120963
-0.00965222
-0.00740077
-0.00534272
-0.00347974
-0.00181494
-0.000352283
0.000901158
0.00193819
0.00274703
0.00330972
0.00362308
-0.166747
-0.156579
-0.148689
-0.141305
-0.133541
-0.125848
-0.118573
-0.111558
-0.104692
-0.0980439
-0.0916396
-0.0854493
-0.0794719
-0.0737158
-0.0681774
-0.0628539
-0.0577454
-0.0528504
-0.0481671
-0.0436939
-0.039429
-0.0353705
-0.0315164
-0.0278647
-0.0244135
-0.0211608
-0.0181052
-0.0152451
-0.0125798
-0.0101086
-0.00783172
-0.00575014
-0.00386569
-0.00218164
-0.000702123
0.000565678
0.00161424
0.00243197
0.00300006
0.00331549
-0.166228
-0.156067
-0.148583
-0.141432
-0.133704
-0.12612
-0.119001
-0.112072
-0.105265
-0.0986867
-0.0923356
-0.0861792
-0.0802287
-0.0744905
-0.0689597
-0.0636363
-0.0585213
-0.0536139
-0.0489133
-0.0444189
-0.0401297
-0.0360444
-0.0321619
-0.0284806
-0.0249992
-0.0217164
-0.0186309
-0.0157419
-0.0130485
-0.0105507
-0.00824883
-0.00614405
-0.00423841
-0.00253537
-0.00103921
0.000242756
0.00130267
0.00212908
0.00270248
0.00301968
-0.15521
-0.148256
-0.141319
-0.133624
-0.12622
-0.119279
-0.112434
-0.105711
-0.099223
-0.0929339
-0.0868237
-0.0809126
-0.0752014
-0.0696864
-0.0643706
-0.0592554
-0.0543408
-0.0496274
-0.0451154
-0.0408048
-0.0366953
-0.0327863
-0.0290771
-0.025567
-0.0222551
-0.0191407
-0.0162233
-0.0135026
-0.0109786
-0.00865213
-0.00652449
-0.00459795
-0.00287615
-0.00136357
-6.76344e-05
0.00100346
0.00183836
0.00241698
0.00273565
-0.147676
-0.140861
-0.133238
-0.126106
-0.119351
-0.112605
-0.106007
-0.0996304
-0.0934176
-0.0873728
-0.0815161
-0.0758433
-0.0703546
-0.0650552
-0.0599469
-0.0550311
-0.0503098
-0.0457844
-0.0414558
-0.0373247
-0.0333914
-0.029656
-0.0261184
-0.0227784
-0.0196359
-0.0166907
-0.013943
-0.0113933
-0.00904239
-0.00689209
-0.00494481
-0.00320439
-0.00167552
-0.000365724
0.000716454
0.0015597
0.00214352
0.00246337
-0.146978
-0.140155
-0.132711
-0.125904
-0.119296
-0.112668
-0.106221
-0.0999567
-0.0938279
-0.0878602
-0.0820648
-0.0764369
-0.0709816
-0.0657042
-0.0606072
-0.055694
-0.0509679
-0.0464314
-0.0420867
-0.0379355
-0.0339791
-0.0302185
-0.0266542
-0.0232868
-0.0201166
-0.0171441
-0.0143698
-0.0117945
-0.00941946
-0.0072467
-0.00527886
-0.00351998
-0.00197497
-0.000651463
0.000441675
0.0012931
0.0018821
0.00220285
-0.138979
-0.13193
-0.125464
-0.119008
-0.112569
-0.106305
-0.100171
-0.0941531
-0.0882827
-0.0825619
-0.0769913
-0.0715791
-0.066331
-0.0612512
-0.0563453
-0.0516178
-0.0470728
-0.0427137
-0.0385434
-0.0345644
-0.0307784
-0.0271871
-0.0237917
-0.0205931
-0.0175924
-0.0147906
-0.0121888
-0.00978887
-0.00759286
-0.00560373
-0.00382575
-0.00226404
-0.000926343
0.000178151
0.00103798
0.00163244
0.00195395
-0.138334
-0.131703
-0.125413
-0.119078
-0.11281
-0.106675
-0.100634
-0.0947016
-0.0888995
-0.0832296
-0.0776975
-0.0723111
-0.067076
-0.0619986
-0.0570858
-0.052344
-0.0477785
-0.0433943
-0.0391955
-0.0351853
-0.0313667
-0.0277419
-0.0243127
-0.0210809
-0.0180478
-0.0152149
-0.0125837
-0.0101562
-0.00793471
-0.00592249
-0.0041239
-0.00254427
-0.0011914
-7.47526e-05
0.000793977
0.00139443
0.00171669
-0.0994908
-0.0937512
-0.0881634
-0.0827162
-0.0774355
-0.0723203
-0.0673626
-0.0625704
-0.0579417
-0.0534724
-0.0491621
-0.0450094
-0.0410126
-0.0371707
-0.0334773
-0.0299243
-0.0265243
-0.0232792
-0.0201795
-0.0172215
-0.0144034
-0.0117233
-0.00917905
-0.00676883
-0.00449083
-0.00234347
-0.000325353
0.00156437
0.00332693
0.00496246
0.00647209
0.00785214
0.0091021
0.0102201
0.0112025
0.0120438
0.0127393
0.0132754
0.0136539
0.013836
-0.0942678
-0.0888341
-0.0835526
-0.0783956
-0.0733882
-0.0685256
-0.0638025
-0.059237
-0.0548254
-0.0505603
-0.0464413
-0.0424678
-0.0386392
-0.0349564
-0.0314097
-0.0279818
-0.0247092
-0.0215838
-0.0185942
-0.0157382
-0.0130143
-0.0104214
-0.00795786
-0.00562219
-0.00341299
-0.00132899
0.000630876
0.00246722
0.00418149
0.00577014
0.00723958
0.00858338
0.00980068
0.0108896
0.0118465
0.0126658
0.013343
0.0138642
0.0142321
0.0144057
-0.0888855
-0.0837659
-0.0787977
-0.0739436
-0.0692209
-0.0646182
-0.0601402
-0.0558114
-0.0516255
-0.0475722
-0.0436507
-0.0398619
-0.0362062
-0.0326857
-0.0292889
-0.0260038
-0.0228615
-0.0198575
-0.0169798
-0.0142275
-0.0116
-0.00909629
-0.00671527
-0.00445583
-0.00231693
-0.000297612
0.00160288
0.0033851
0.00505114
0.00658877
0.00801833
0.00932556
0.0105099
0.0115694
0.0125004
0.0132975
0.013956
0.0144622
0.0148194
0.0149844
-0.0833223
-0.0785382
-0.0738913
-0.0693474
-0.0649159
-0.0606084
-0.0563959
-0.0523112
-0.0483542
-0.0445162
-0.0407963
-0.0371957
-0.0337156
-0.0303576
-0.0271165
-0.023997
-0.0209845
-0.0181016
-0.0153372
-0.0126906
-0.0101613
-0.00774873
-0.00545204
-0.0032705
-0.00120343
0.000749762
0.00258952
0.00431616
0.00593031
0.00742374
0.00880988
0.0100793
0.0112298
0.0122594
0.0131641
0.0139387
0.0145783
0.0150693
0.0154154
0.0155721
-0.0775579
-0.0731651
-0.068848
-0.0646104
-0.060463
-0.0565336
-0.0525911
-0.0487496
-0.0450217
-0.0414012
-0.0378867
-0.0344792
-0.0311799
-0.0279882
-0.0249028
-0.0219387
-0.0190663
-0.0163081
-0.0136613
-0.0111241
-0.00869615
-0.0063773
-0.00416721
-0.00206556
-7.20662e-05
0.00181348
0.00359116
0.00526094
0.00682248
0.00827066
0.00961314
0.0108439
0.0119601
0.0129591
0.0138372
0.014589
0.0152093
0.0156852
0.0160199
0.0161684
-0.00720539
-0.00498271
-0.00286138
-0.000841521
0.00107672
0.00289314
0.00460743
0.00621919
0.00772745
0.00912899
0.0104275
0.0116189
0.0127002
0.0136683
0.0145194
0.015248
0.0158489
0.0163094
0.0166326
0.0167731
)
;

boundaryField
{
    inlet
    {
        type            zeroGradient;
    }
    outlet
    {
        type            fixedValue;
        value           nonuniform 0();
    }
    cylinder
    {
        type            zeroGradient;
    }
    top
    {
        type            symmetryPlane;
    }
    bottom
    {
        type            symmetryPlane;
    }
    defaultFaces
    {
        type            empty;
    }
    procBoundary13to9
    {
        type            processor;
        value           nonuniform List<scalar> 
58
(
-0.181236
-0.181283
-0.180974
-0.180974
-0.19739
-0.196012
-0.196012
-0.212013
-0.209741
-0.20728
-0.204632
-0.204632
-0.218534
-0.215226
-0.211755
-0.208118
-0.208118
-0.22075
-0.216541
-0.212163
-0.207608
-0.202869
-0.197941
-0.192815
-0.187488
-0.181952
-0.181952
-0.191673
-0.185494
-0.179083
-0.172435
-0.165546
-0.158413
-0.137051
-0.137051
-0.129729
-0.122179
-0.142003
-0.128865
-0.112393
-0.0965283
-0.0818232
-0.0680164
-0.0551218
-0.0436556
-0.0340269
-0.0265143
-0.0213409
-0.0186822
-0.0186362
-0.165268
-0.165268
-0.154006
-0.154006
-0.152641
-0.145875
-0.145875
-0.145203
)
;
    }
    procBoundary13to10
    {
        type            processor;
        value           nonuniform List<scalar> 2(-0.0247767 -0.0278435);
    }
    procBoundary13to12
    {
        type            processor;
        value           nonuniform List<scalar> 
46
(
-0.0778462
-0.102414
-0.0914091
-0.0778462
-0.0811829
-0.0716547
-0.0676906
-0.0637238
-0.05981
-0.0559918
-0.0523023
-0.0486586
-0.0450844
-0.0416004
-0.0382082
-0.0349078
-0.0317007
-0.0285883
-0.0255705
-0.0226502
-0.0198335
-0.0171067
-0.0144796
-0.011954
-0.00952921
-0.00952921
-0.00568968
-0.00356555
-0.00153508
0.000401123
0.00224245
0.00398828
0.00563792
0.00719053
0.00864479
0.00999831
0.0112524
0.0124039
0.0134497
0.0143865
0.0152102
0.0159154
0.0164967
0.0169418
0.0172533
0.0173859
)
;
    }
    procBoundary13to14
    {
        type            processor;
        value           nonuniform List<scalar> 
35
(
-0.0304555
-0.0326311
-0.0343797
-0.0357168
-0.0366607
-0.0372314
-0.0374511
-0.0373441
-0.0369357
-0.0362524
-0.0353214
-0.0341674
-0.0328218
-0.0313095
-0.0296574
-0.0278919
-0.0260387
-0.0241217
-0.0221644
-0.0201886
-0.018215
-0.0162627
-0.0143499
-0.0124936
-0.0107097
-0.00901314
-0.00741839
-0.00593936
-0.00458971
-0.00338328
-0.00233425
-0.00145782
-0.000770023
-0.000290046
-3.74285e-05
)
;
    }
}


// ************************************************************************* //
