/*--------------------------------*- C++ -*----------------------------------*\
  =========                 |
  \\      /  F ield         | OpenFOAM: The Open Source CFD Toolbox
   \\    /   O peration     | Website:  https://openfoam.org
    \\  /    A nd           | Version:  7
     \\/     M anipulation  |
\*---------------------------------------------------------------------------*/
FoamFile
{
    version     2.0;
    format      ascii;
    class       volVectorField;
    location    "145";
    object      U;
}
// * * * * * * * * * * * * * * * * * * * * * * * * * * * * * * * * * * * * * //

dimensions      [0 1 -1 0 0 0 0];

internalField   nonuniform List<vector> 
1989
(
(1.21217 0.0279311 4.60662e-19)
(1.21269 0.0340962 -6.67733e-21)
(1.22318 0.0428357 6.16802e-20)
(1.21283 0.0401596 5.85297e-20)
(1.22277 0.0491729 -1.84531e-20)
(1.2126 0.046129 -9.45097e-21)
(1.22204 0.0553903 2.24417e-20)
(1.21205 0.0520108 6.10035e-20)
(1.22103 0.0614987 1.12955e-19)
(1.2112 0.0578095 -1.33373e-19)
(1.23004 0.0697089 1.33712e-19)
(1.21974 0.0675064 3.63289e-20)
(1.21006 0.0635285 5.43767e-20)
(1.22835 0.0760995 -5.90226e-21)
(1.2182 0.0734197 -9.28465e-20)
(1.20865 0.0691699 6.19799e-20)
(1.22641 0.0823861 5.83392e-20)
(1.21641 0.0792434 1.44275e-19)
(1.20698 0.0747352 -7.77698e-20)
(1.22425 0.0885744 -2.62021e-19)
(1.21437 0.084981 -1.42847e-19)
(1.20506 0.0802249 9.58125e-20)
(1.23216 0.0992032 1.80069e-20)
(1.22185 0.0946682 1.00676e-19)
(1.2121 0.0906349 2.33706e-20)
(1.2029 0.0856388 -8.76449e-20)
(1.22939 0.105557 -1.43519e-20)
(1.21922 0.10067 4.92299e-20)
(1.2096 0.0962062 1.24608e-19)
(1.20051 0.0909761 -2.45688e-20)
(1.22639 0.111822 5.47762e-20)
(1.21637 0.10658 3.68907e-20)
(1.20688 0.101695 -1.71396e-19)
(1.19789 0.0962351 -2.01834e-20)
(1.22317 0.117998 -3.23686e-20)
(1.2133 0.1124 -5.34418e-20)
(1.20393 0.107102 5.03572e-20)
(1.19505 0.101414 8.14926e-20)
(1.21974 0.124084 -8.84396e-20)
(1.21001 0.118127 1.82387e-20)
(1.20077 0.112423 6.67173e-20)
(1.192 0.106509 -4.53975e-20)
(1.21608 0.130081 -7.36364e-20)
(1.2065 0.12376 2.72377e-20)
(1.19739 0.117659 -2.16273e-20)
(1.18873 0.111516 7.32628e-20)
(1.21219 0.135983 9.26925e-20)
(1.20277 0.129296 -8.98806e-20)
(1.1938 0.122805 -5.02223e-20)
(1.18526 0.116433 -1.3167e-20)
(1.20808 0.141788 7.21443e-20)
(1.19882 0.134731 -2.11778e-20)
(1.19 0.127858 5.60593e-20)
(1.18158 0.121253 -1.02587e-20)
(1.20375 0.147491 -5.38094e-20)
(1.19465 0.14006 2.2331e-20)
(1.18599 0.132813 -5.96605e-20)
(1.1777 0.125973 2.09478e-20)
(1.20866 0.161222 2.00447e-20)
(1.19919 0.153085 2.2417e-20)
(1.19027 0.145279 -1.23578e-21)
(1.18178 0.137666 2.4288e-20)
(1.17362 0.130585 -1.21611e-20)
(1.20367 0.167088 -8.44353e-21)
(1.19441 0.158565 9.87323e-22)
(1.18567 0.150382 2.79842e-21)
(1.17736 0.142411 7.3245e-21)
(1.16934 0.135084 -4.23181e-21)
(1.19845 0.172834 -1.64421e-21)
(1.18939 0.163923 1.25527e-22)
(1.18086 0.155363 2.36517e-21)
(1.17274 0.147042 -3.55034e-21)
(1.16488 0.139464 1.77591e-21)
(1.19298 0.178452 5.49051e-22)
(1.18415 0.169152 8.62864e-22)
(1.17583 0.160215 -1.80696e-21)
(1.16792 0.15155 -3.18857e-21)
(1.16023 0.143717 4.71379e-21)
(1.18728 0.183932 -1.93686e-20)
(1.17869 0.174242 1.53556e-20)
(1.1706 0.164929 5.57576e-21)
(1.16291 0.155928 2.40514e-21)
(1.1554 0.147835 -3.90511e-21)
(1.18133 0.189264 1.0436e-20)
(1.17299 0.179186 1.11184e-20)
(1.16516 0.169498 5.78379e-21)
(1.1577 0.160165 1.69781e-20)
(1.15041 0.15181 -1.12896e-20)
(1.16708 0.183973 -4.5697e-20)
(1.15951 0.173912 1.44661e-20)
(1.1523 0.16425 -3.85283e-20)
(1.14523 0.155634 4.14971e-21)
(1.16094 0.188596 5.07085e-21)
(1.15366 0.178164 -6.45198e-21)
(1.14671 0.168179 5.22807e-20)
(1.13983 0.159302 -1.66468e-20)
(1.15458 0.193042 5.28863e-20)
(1.14761 0.182247 -4.01997e-20)
(1.14095 0.171964 -1.21044e-20)
(1.17895 0.00412883 0)
(1.17108 0.00413522 0)
(1.16157 0.00617134 0)
(1.15349 0.00991657 0)
(1.14727 0.0152399 0)
(1.14274 0.0221802 0)
(1.14016 0.0304601 0)
(1.13994 0.0395751 0)
(1.14238 0.0489888 0)
(1.14762 0.0581304 0)
(1.15572 0.0663924 0)
(1.16662 0.0731139 0)
(1.18018 0.0775808 0)
(1.17861 0.0103826 0)
(1.17218 0.00992571 0)
(1.16408 0.0113145 0)
(1.15726 0.0142727 0)
(1.15227 0.0186205 0)
(1.14892 0.0243041 0)
(1.14733 0.031092 0)
(1.14782 0.0385714 0)
(1.15068 0.0462672 0)
(1.15605 0.0536643 0)
(1.16396 0.0602118 0)
(1.17434 0.0653204 0)
(1.18703 0.0683667 0)
(1.17777 0.0158367 0)
(1.17262 0.0149544 0)
(1.1658 0.0157326 0)
(1.16008 0.0179319 0)
(1.15608 0.0213385 0)
(1.15362 0.0258476 0)
(1.15274 0.031261 0)
(1.15369 0.037236 0)
(1.15672 0.0433536 0)
(1.16196 0.0491544 0)
(1.16944 0.0541493 0)
(1.17907 0.0578198 0)
(1.19068 0.0596239 0)
(1.17654 0.0204921 0)
(1.17255 0.0192625 0)
(1.16688 0.0194862 0)
(1.16213 0.0209686 0)
(1.15896 0.0234905 0)
(1.15721 0.0269215 0)
(1.15686 0.031085 0)
(1.15809 0.0356929 0)
(1.16114 0.0403803 0)
(1.16611 0.0447429 0)
(1.17301 0.0483504 0)
(1.18177 0.0507494 0)
(1.19222 0.0514723 0)
(1.175 0.0244366 0)
(1.17202 0.022905 0)
(1.16738 0.0226253 0)
(1.16349 0.0234447 0)
(1.16103 0.0251528 0)
(1.15987 0.0276073 0)
(1.15992 0.0306476 0)
(1.16134 0.0340292 0)
(1.16431 0.0374375 0)
(1.16894 0.040519 0)
(1.17522 0.042898 0)
(1.18307 0.0441817 0)
(1.19234 0.0439701 0)
(1.17312 0.027715 0)
(1.17103 0.0259174 0)
(1.16732 0.0251879 0)
(1.1642 0.0254066 0)
(1.16236 0.0263778 0)
(1.16167 0.0279577 0)
(1.16205 0.0299993 0)
(1.16359 0.0322939 0)
(1.16644 0.0345713 0)
(1.1707 0.0365251 0)
(1.17635 0.0378297 0)
(1.18333 0.0381477 0)
(1.19147 0.0371395 0)
(1.1709 0.030354 0)
(1.16959 0.0283299 0)
(1.1667 0.0272066 0)
(1.16427 0.026891 0)
(1.16296 0.0272056 0)
(1.16268 0.0280113 0)
(1.16331 0.0291744 0)
(1.16493 0.030516 0)
(1.16764 0.0318051 0)
(1.17152 0.0327783 0)
(1.17658 0.0331557 0)
(1.18273 0.0326494 0)
(1.18983 0.0309725 0)
(1.16837 0.0323955 0)
(1.16772 0.0301819 0)
(1.16557 0.0287185 0)
(1.16374 0.0279353 0)
(1.16288 0.0276735 0)
(1.16293 0.0278023 0)
(1.16377 0.0282011 0)
(1.16542 0.0287165 0)
(1.16798 0.0291523 0)
(1.17151 0.0292835 0)
(1.17601 0.0288712 0)
(1.1814 0.0276714 0)
(1.18756 0.0254429 0)
(1.16559 0.0338861 0)
(1.16551 0.0315176 0)
(1.16399 0.0297658 0)
(1.16268 0.0285798 0)
(1.16221 0.0278194 0)
(1.16253 0.027364 0)
(1.16352 0.0271058 0)
(1.16518 0.0269135 0)
(1.16758 0.0266215 0)
(1.17077 0.0260391 0)
(1.17475 0.0249638 0)
(1.17945 0.0231899 0)
(1.18476 0.0205158 0)
(1.16264 0.0348757 0)
(1.16303 0.032386 0)
(1.16204 0.0303948 0)
(1.16118 0.0288678 0)
(1.16103 0.0276828 0)
(1.16156 0.0267302 0)
(1.16266 0.0259146 0)
(1.1643 0.0251243 0)
(1.16654 0.0242202 0)
(1.16941 0.0230417 0)
(1.17291 0.0214185 0)
(1.17698 0.0191784 0)
(1.18153 0.0161538 0)
(1.15959 0.035419 0)
(1.16035 0.0328389 0)
(1.15981 0.0306542 0)
(1.15932 0.0288442 0)
(1.15943 0.0273037 0)
(1.16013 0.0259349 0)
(1.16129 0.0246537 0)
(1.16289 0.0233658 0)
(1.16496 0.0219549 0)
(1.16753 0.020287 0)
(1.17059 0.0182197 0)
(1.1741 0.0156101 0)
(1.17796 0.0123195 0)
(1.15646 0.0355688 0)
(1.15751 0.0329264 0)
(1.15734 0.0305906 0)
(1.15716 0.0285516 0)
(1.15748 0.0267202 0)
(1.15829 0.0250099 0)
(1.15949 0.0233472 0)
(1.16103 0.021653 0)
(1.16293 0.0198308 0)
(1.16521 0.0177697 0)
(1.16788 0.0153516 0)
(1.17088 0.0124584 0)
(1.17414 0.0089765 0)
(1.15325 0.0353729 0)
(1.15452 0.0326939 0)
(1.15467 0.0302463 0)
(1.15473 0.0280287 0)
(1.15521 0.025966 0)
(1.15611 0.0239828 0)
(1.15731 0.0220154 0)
(1.15878 0.0199977 0)
(1.16052 0.0178504 0)
(1.16254 0.0154824 0)
(1.16485 0.0127967 0)
(1.1674 0.00969643 0)
(1.17012 0.00608908 0)
(1.14995 0.0348747 0)
(1.1514 0.0321832 0)
(1.15179 0.0296599 0)
(1.15206 0.02731 0)
(1.15266 0.0250711 0)
(1.15361 0.0228776 0)
(1.1548 0.020675 0)
(1.15619 0.0184085 0)
(1.15776 0.0160134 0)
(1.15955 0.0134155 0)
(1.16153 0.0105359 0)
(1.16368 0.00729629 0)
(1.16593 0.00362136 0)
(1.14657 0.0341147 0)
(1.14813 0.0314328 0)
(1.14871 0.0288668 0)
(1.14915 0.026427 0)
(1.14984 0.0240618 0)
(1.15082 0.0217148 0)
(1.15198 0.0193396 0)
(1.15328 0.0168911 0)
(1.15471 0.014317 0)
(1.15628 0.0115577 0)
(1.15797 0.00854958 0)
(1.15977 0.0052291 0)
(1.16161 0.00153682 0)
(1.1431 0.0331311 0)
(1.14474 0.0304791 0)
(1.14547 0.0279004 0)
(1.14602 0.0254088 0)
(1.14678 0.0229623 0)
(1.14777 0.0205127 0)
(1.1489 0.0180206 0)
(1.15011 0.0154493 0)
(1.1514 0.0127572 0)
(1.15276 0.00989661 0)
(1.1542 0.0068171 0)
(1.15569 0.00346771 0)
(1.15718 -0.000197551 0)
(1.13955 0.0319601 0)
(1.14123 0.0293566 0)
(1.14207 0.0267919 0)
(1.14272 0.0242827 0)
(1.14352 0.0217949 0)
(1.1445 0.0192876 0)
(1.14558 0.0167278 0)
(1.1467 0.0140858 0)
(1.14786 0.0113289 0)
(1.14904 0.00841958 0)
(1.15025 0.00531812 0)
(1.15147 0.00198513 0)
(1.15266 -0.00161581 0)
(1.13595 0.0306357 0)
(1.13763 0.0280972 0)
(1.13854 0.0255704 0)
(1.13926 0.0230736 0)
(1.14008 0.0205796 0)
(1.14104 0.0180542 0)
(1.14206 0.0154696 0)
(1.1431 0.0128022 0)
(1.14413 0.0100266 0)
(1.14516 0.00711375 0)
(1.14617 0.00403261 0)
(1.14716 0.000752808 0)
(1.14808 -0.00275253 0)
(1.1323 0.0291893 0)
(1.13396 0.0267304 0)
(1.13493 0.0242623 0)
(1.13568 0.0218041 0)
(1.13651 0.0193347 0)
(1.13744 0.0168254 0)
(1.1384 0.0142531 0)
(1.13935 0.0115993 0)
(1.14027 0.0088444 0)
(1.14115 0.00596663 0)
(1.142 0.00294223 0)
(1.14278 -0.000251802 0)
(1.14348 -0.00363587 0)
(1.12864 0.0276494 0)
(1.13026 0.0252829 0)
(1.13124 0.0228914 0)
(1.13202 0.0204946 0)
(1.13284 0.0180762 0)
(1.13373 0.0156122 0)
(1.13463 0.0130838 0)
(1.1355 0.0104766 0)
(1.13631 0.00777595 0)
(1.13707 0.00496568 0)
(1.13776 0.0020285 0)
(1.13838 -0.00105281 0)
(1.13889 -0.00429459 0)
(1.12497 0.0260415 0)
(1.12653 0.0237784 0)
(1.12752 0.0214789 0)
(1.12831 0.0191628 0)
(1.12911 0.0168176 0)
(1.12995 0.0144238 0)
(1.13079 0.011966 0)
(1.13158 0.00943308 0)
(1.1323 0.00681447 0)
(1.13295 0.00409851 0)
(1.13351 0.00127251 0)
(1.13398 -0.00167539 0)
(1.13434 -0.00475647 0)
(1.12132 0.0243881 0)
(1.12282 0.0222375 0)
(1.1238 0.020043 0)
(1.12458 0.0178237 0)
(1.12535 0.0155706 0)
(1.12615 0.0132676 0)
(1.12693 0.0109025 0)
(1.12764 0.00846678 0)
(1.12828 0.0059531 0)
(1.12882 0.00335343 0)
(1.12927 0.000658989 0)
(1.12962 -0.00213827 0)
(1.12985 -0.00504578 0)
(1.11772 0.0227085 0)
(1.11914 0.0206781 0)
(1.1201 0.0185991 0)
(1.12086 0.01649 0)
(1.12161 0.0143444 0)
(1.12236 0.0121493 0)
(1.12307 0.00989486 0)
(1.12372 0.00757491 0)
(1.12427 0.00518463 0)
(1.12473 0.00271882 0)
(1.12509 0.00017204 0)
(1.12533 -0.00246151 0)
(1.12546 -0.00518582 0)
(1.11419 0.021019 0)
(1.11552 0.0191149 0)
(1.11644 0.01716 0)
(1.11719 0.0151719 0)
(1.1179 0.0131462 0)
(1.1186 0.0110727 0)
(1.11926 0.00894339 0)
(1.11984 0.00675399 0)
(1.12032 0.00450157 0)
(1.12071 0.0021832 0)
(1.12098 -0.000204335 0)
(1.12115 -0.00266416 0)
(1.12119 -0.00519822 0)
(1.11074 0.0193329 0)
(1.11199 0.01756 0)
(1.11287 0.015736 0)
(1.11359 0.0138774 0)
(1.11427 0.0119815 0)
(1.11492 0.0100402 0)
(1.11552 0.00804734 0)
(1.11604 0.00599988 0)
(1.11646 0.00389643 0)
(1.11678 0.00173574 0)
(1.117 -0.00048364 0)
(1.11709 -0.00276295 0)
(1.11706 -0.00510255 0)
(1.1074 0.0176609 0)
(1.10856 0.0160227 0)
(1.10941 0.0143348 0)
(1.1101 0.0126123 0)
(1.11074 0.0108538 0)
(1.11134 0.00905291 0)
(1.11189 0.00720492 0)
(1.11236 0.00530795 0)
(1.11273 0.00336166 0)
(1.11299 0.00136599 0)
(1.11315 -0.000679141 0)
(1.11319 -0.00277365 0)
(1.11311 -0.00491673 0)
(1.10419 0.0160107 0)
(1.10527 0.01451 0)
(1.10607 0.0129619 0)
(1.10673 0.0113803 0)
(1.10733 0.00976475 0)
(1.1079 0.00811035 0)
(1.1084 0.00641349 0)
(1.10882 0.00467311 0)
(1.10914 0.00288967 0)
(1.10936 0.00106395 0)
(1.10947 -0.000803174 0)
(1.10947 -0.00271069 0)
(1.10935 -0.00465695 0)
(1.10114 0.0143878 0)
(1.10213 0.0130264 0)
(1.10289 0.0116207 0)
(1.10352 0.0101834 0)
(1.10409 0.00871478 0)
(1.10461 0.00721107 0)
(1.10507 0.00566961 0)
(1.10545 0.00408991 0)
(1.10573 0.00247301 0)
(1.10591 0.00082023 0)
(1.10598 -0.000866969 0)
(1.10595 -0.00258694 0)
(1.1058 -0.00433748 0)
(1.09826 0.012795 0)
(1.09918 0.0115739 0)
(1.0999 0.0103124 0)
(1.1005 0.00902168 0)
(1.10103 0.00770265 0)
(1.10152 0.00635246 0)
(1.10194 0.00496911 0)
(1.10227 0.00355264 0)
(1.10252 0.0021043 0)
(1.10267 0.000625923 0)
(1.10272 -0.000880928 0)
(1.10266 -0.0024141 0)
(1.10249 -0.00397108 0)
(1.09559 0.0112332 0)
(1.09643 0.010153 0)
(1.09711 0.00903663 0)
(1.09768 0.00789399 0)
(1.09819 0.00672618 0)
(1.09864 0.00553116 0)
(1.09902 0.00430749 0)
(1.09933 0.00305549 0)
(1.09955 0.00177657 0)
(1.09967 0.000472643 0)
(1.0997 -0.000854361 0)
(1.09962 -0.00220222 0)
(1.09944 -0.00356841 0)
(1.09314 0.0097003 0)
(1.09392 0.00876129 0)
(1.09456 0.00779068 0)
(1.0951 0.00679695 0)
(1.09558 0.00578137 0)
(1.09601 0.00474247 0)
(1.09636 0.00367929 0)
(1.09664 0.00259224 0)
(1.09683 0.00148285 0)
(1.09693 0.000352961 0)
(1.09694 -0.000795408 0)
(1.09686 -0.0019601 0)
(1.09667 -0.00313866 0)
(1.09094 0.00819381 0)
(1.09167 0.00739616 0)
(1.09227 0.00657157 0)
(1.09279 0.00572721 0)
(1.09325 0.0048644 0)
(1.09365 0.00398209 0)
(1.09398 0.00307964 0)
(1.09423 0.00215758 0)
(1.0944 0.0012173 0)
(1.09449 0.000260558 0)
(1.09449 -0.000710769 0)
(1.09439 -0.00169461 0)
(1.0942 -0.0026887 0)
(1.08903 0.00670604 0)
(1.0897 0.00605017 0)
(1.09028 0.00537209 0)
(1.09078 0.00467771 0)
(1.09121 0.00396824 0)
(1.09159 0.003243 0)
(1.0919 0.00250157 0)
(1.09213 0.00174448 0)
(1.09229 0.000973003 0)
(1.09237 0.000188674 0)
(1.09235 -0.000606823 0)
(1.09225 -0.00141173 0)
(1.09206 -0.00222407 0)
(1.08742 0.0052316 0)
(1.08805 0.00471792 0)
(1.08861 0.00418688 0)
(1.08909 0.00364309 0)
(1.08951 0.00308758 0)
(1.08987 0.00251992 0)
(1.09016 0.00193986 0)
(1.09038 0.00134786 0)
(1.09053 0.000744927 0)
(1.09059 0.000132366 0)
(1.09057 -0.000488414 0)
(1.09047 -0.0011159 0)
(1.09028 -0.00174852 0)
(1.08615 0.00375971 0)
(1.08676 0.00338963 0)
(1.08729 0.00300704 0)
(1.08776 0.00261529 0)
(1.08817 0.00221519 0)
(1.08851 0.00180647 0)
(1.08879 0.00138898 0)
(1.089 0.000963077 0)
(1.08914 0.000529536 0)
(1.0892 8.93328e-05 0)
(1.08918 -0.000356656 0)
(1.08907 -0.000807215 0)
(1.08889 -0.00126108 0)
(1.08527 0.00227046 0)
(1.08585 0.00204589 0)
(1.08637 0.00181388 0)
(1.08683 0.0015764 0)
(1.08723 0.00133394 0)
(1.08757 0.00108635 0)
(1.08784 0.000833552 0)
(1.08804 0.000575754 0)
(1.08817 0.000313453 0)
(1.08822 4.72386e-05 0)
(1.0882 -0.000222306 0)
(1.0881 -0.000494493 0)
(1.08791 -0.000768547 0)
(1.0848 0.000775733 0)
(1.08537 0.000699222 0)
(1.08588 0.000620327 0)
(1.08634 0.000539636 0)
(1.08673 0.000457314 0)
(1.08707 0.000373319 0)
(1.08733 0.00028761 0)
(1.08753 0.000200269 0)
(1.08766 0.000111402 0)
(1.08771 2.11996e-05 0)
(1.08769 -6.98906e-05 0)
(1.08759 -0.000161722 0)
(1.0874 -0.00025413 0)
(1.15873 0.133205 1.93461e-21)
(1.15404 0.128661 -9.9461e-22)
(1.14955 0.124134 -1.40033e-23)
(1.1454 0.119693 1.85083e-21)
(1.14156 0.115384 -1.79769e-21)
(1.13795 0.111189 1.74331e-21)
(1.13451 0.107084 -2.44458e-21)
(1.13121 0.103058 1.7213e-21)
(1.12802 0.0991137 -1.74985e-21)
(1.12494 0.095241 1.15604e-21)
(1.12197 0.0914372 -1.01851e-21)
(1.11909 0.0876995 4.33687e-22)
(1.1163 0.0840255 8.24509e-22)
(1.11359 0.0804117 -5.21488e-22)
(1.11097 0.0768572 -3.83701e-22)
(1.10843 0.0733579 2.4021e-22)
(1.10596 0.0699083 -9.3331e-24)
(1.10357 0.0665115 -2.74034e-22)
(1.10124 0.0631683 3.1205e-22)
(1.09898 0.0598736 -8.42685e-23)
(1.09678 0.0566274 -8.32135e-23)
(1.09465 0.0534287 1.00776e-22)
(1.09257 0.0502766 2.52469e-23)
(1.09055 0.0471701 -6.09444e-23)
(1.08859 0.0441083 4.13289e-23)
(1.08669 0.0410901 -2.50312e-23)
(1.08485 0.0381144 1.76503e-23)
(1.08308 0.0351796 7.7373e-24)
(1.08138 0.0322838 -1.5763e-23)
(1.07976 0.0294244 9.29184e-24)
(1.07822 0.0265964 3.20671e-23)
(1.07676 0.0237971 -1.44368e-23)
(1.07542 0.0210221 -4.44294e-24)
(1.07418 0.0182635 -2.87079e-23)
(1.07306 0.0155139 7.06344e-23)
(1.07209 0.0127624 3.78788e-23)
(1.07127 0.0100008 -5.79086e-23)
(1.07063 0.00720293 4.20332e-23)
(1.07017 0.00438178 -4.26975e-23)
(1.06993 0.00145134 3.19909e-23)
(1.163 0.129379 2.07337e-21)
(1.15815 0.125098 -1.94612e-21)
(1.15344 0.120814 4.12847e-21)
(1.14904 0.116608 -1.08688e-21)
(1.14498 0.112516 -4.48825e-22)
(1.14116 0.108525 9.79146e-22)
(1.13754 0.104615 -3.31647e-21)
(1.13407 0.100774 4.13867e-23)
(1.13073 0.0970003 8.17376e-22)
(1.12751 0.0932883 -1.01357e-21)
(1.1244 0.0896341 6.32195e-22)
(1.12139 0.0860355 -6.05833e-22)
(1.11848 0.0824902 -1.02317e-22)
(1.11567 0.078996 5.37174e-23)
(1.11294 0.075551 1.08449e-21)
(1.1103 0.0721533 -4.89353e-22)
(1.10774 0.0687988 -4.83375e-22)
(1.10526 0.0654888 4.63019e-22)
(1.10285 0.0622251 5.96295e-22)
(1.10051 0.059004 -3.86883e-22)
(1.09823 0.0558256 2.84744e-23)
(1.09602 0.0526895 -3.452e-22)
(1.09388 0.0495954 1.76951e-22)
(1.09179 0.0465428 2.63512e-22)
(1.08977 0.0435312 -3.92566e-23)
(1.08782 0.0405602 -5.78406e-23)
(1.08592 0.0376288 -2.18641e-23)
(1.0841 0.034736 -1.91808e-24)
(1.08235 0.0318801 3.00718e-23)
(1.08068 0.029059 -7.49978e-24)
(1.07909 0.0262682 -8.55731e-23)
(1.0776 0.0235048 6.68381e-23)
(1.07621 0.0207651 -1.56719e-22)
(1.07494 0.0180409 7.87488e-23)
(1.0738 0.0153255 -6.50299e-23)
(1.0728 0.0126079 -9.28654e-23)
(1.07196 0.00988037 -1.23624e-23)
(1.07129 0.00711655 -1.85947e-23)
(1.07083 0.00432972 -9.32299e-23)
(1.07057 0.00143614 -4.50861e-24)
(1.16711 0.125432 6.21523e-21)
(1.1621 0.121425 -6.36307e-22)
(1.15718 0.117397 1.75503e-21)
(1.15257 0.113438 -1.32555e-20)
(1.14828 0.109576 1.12016e-20)
(1.14427 0.105798 -4.44037e-21)
(1.14048 0.102089 -1.63299e-21)
(1.13685 0.0984395 1.95409e-21)
(1.13336 0.0948445 1.48223e-21)
(1.13001 0.0912989 1.61315e-21)
(1.12677 0.0877995 -5.26882e-21)
(1.12364 0.0843444 3.12746e-21)
(1.12062 0.0809318 1.46313e-21)
(1.1177 0.0775601 3.87676e-22)
(1.11488 0.0742278 -3.95394e-21)
(1.11214 0.0709341 2.64955e-21)
(1.10949 0.0676763 5.28524e-22)
(1.10692 0.0644548 -5.99965e-22)
(1.10443 0.0612719 -8.28493e-22)
(1.10202 0.0581254 6.55707e-22)
(1.09967 0.0550157 -6.23923e-22)
(1.09739 0.051943 4.40397e-22)
(1.09518 0.0489074 3.28281e-22)
(1.09303 0.0459092 -4.79164e-22)
(1.09095 0.0429483 3.98635e-23)
(1.08893 0.0400247 4.96587e-23)
(1.08698 0.037138 3.25846e-23)
(1.08511 0.0342876 -1.87595e-23)
(1.08331 0.0314717 -3.93761e-24)
(1.08159 0.0286893 -1.46573e-23)
(1.07996 0.025936 -1.09468e-23)
(1.07843 0.023209 -2.53787e-23)
(1.077 0.0205047 1.90134e-22)
(1.0757 0.0178154 -1.56735e-22)
(1.07452 0.0151346 4.19652e-24)
(1.0735 0.0124512 1.7589e-22)
(1.07263 0.00975826 1.41537e-22)
(1.07195 0.007029 -1.9097e-22)
(1.07147 0.00427688 4.64791e-24)
(1.07121 0.00142078 4.57006e-23)
(1.17103 0.121366 -2.09471e-21)
(1.16588 0.117644 -7.87926e-21)
(1.16079 0.113885 1.37276e-20)
(1.15597 0.110188 -5.31367e-21)
(1.15148 0.106566 -5.55481e-21)
(1.14728 0.103011 5.27574e-21)
(1.14332 0.099511 -1.91172e-21)
(1.13954 0.096059 4.39723e-21)
(1.13592 0.0926485 -1.07099e-20)
(1.13244 0.089275 7.27199e-21)
(1.12908 0.0859353 3.29184e-21)
(1.12584 0.0826279 -2.03744e-21)
(1.12271 0.0793517 2.09722e-21)
(1.11969 0.0761057 -1.70876e-21)
(1.11678 0.0728889 -2.66809e-22)
(1.11395 0.0697014 1.97926e-21)
(1.11122 0.0665418 -1.27933e-21)
(1.10857 0.0634103 1.58979e-21)
(1.106 0.0603095 -2.2417e-21)
(1.10351 0.0572386 1.6795e-21)
(1.10109 0.0541983 -7.38725e-22)
(1.09874 0.0511895 1.91008e-23)
(1.09646 0.0482131 -2.89774e-22)
(1.09425 0.0452696 -4.86025e-22)
(1.09211 0.0423597 1.43666e-22)
(1.09004 0.0394839 7.79022e-23)
(1.08803 0.0366421 6.71015e-23)
(1.0861 0.0338342 2.00577e-23)
(1.08426 0.0310589 -1.41174e-23)
(1.08249 0.0283153 2.15999e-24)
(1.08082 0.0255998 8.58535e-24)
(1.07924 0.0229094 1.9902e-22)
(1.07778 0.020241 1.34729e-22)
(1.07644 0.0175869 1.72907e-22)
(1.07524 0.0149411 2.45361e-22)
(1.07419 0.0122925 -2.94139e-22)
(1.0733 0.00963446 1.15809e-22)
(1.0726 0.00694025 1.66827e-22)
(1.07211 0.00422322 1.57317e-23)
(1.07184 0.00140521 -1.0711e-23)
(1.17477 0.117188 7.13474e-21)
(1.1695 0.11376 -3.8347e-21)
(1.16426 0.110282 -1.04951e-20)
(1.15925 0.10686 -6.9872e-21)
(1.15457 0.10349 1.50421e-20)
(1.1502 0.100166 5.68456e-21)
(1.14607 0.0968829 -9.64715e-21)
(1.14215 0.0936348 -2.11048e-21)
(1.1384 0.0904148 4.40227e-22)
(1.1348 0.0872187 6.16011e-21)
(1.13133 0.0840434 -2.11657e-21)
(1.12799 0.0808879 7.35334e-21)
(1.12476 0.0777516 -7.41538e-21)
(1.12165 0.0746343 -3.77416e-21)
(1.11864 0.0715356 7.01661e-22)
(1.11573 0.0684563 1.78498e-21)
(1.11291 0.0653963 2.91035e-21)
(1.11019 0.0623562 -4.43413e-21)
(1.10755 0.0593387 1.43688e-21)
(1.10498 0.0563441 -1.11037e-21)
(1.10249 0.0533739 1.75987e-21)
(1.10008 0.0504297 -6.12309e-22)
(1.09774 0.0475127 -1.87163e-22)
(1.09547 0.0446243 3.86604e-22)
(1.09326 0.0417657 -2.05718e-22)
(1.09113 0.0389379 -2.65037e-22)
(1.08908 0.0361413 1.21815e-22)
(1.0871 0.0333762 -1.92855e-22)
(1.0852 0.0306416 5.61411e-23)
(1.08339 0.0279372 1.82509e-23)
(1.08167 0.0252596 -7.16795e-23)
(1.08006 0.0226062 -3.53986e-23)
(1.07856 0.0199739 -3.03969e-22)
(1.07718 0.0173555 -4.02724e-23)
(1.07595 0.014745 -7.75605e-23)
(1.07487 0.0121316 1.05686e-22)
(1.07396 0.00950891 2.18641e-23)
(1.07324 0.00685026 -2.73574e-22)
(1.07273 0.00416873 2.67208e-23)
(1.07245 0.00138941 -1.3584e-22)
(1.17833 0.112901 2.50511e-20)
(1.17295 0.109774 -1.29772e-20)
(1.16758 0.106591 -2.43164e-20)
(1.16241 0.103457 3.28927e-20)
(1.15755 0.100351 -1.54886e-21)
(1.15301 0.0972666 -1.89155e-20)
(1.14873 0.0942076 -6.23252e-21)
(1.14468 0.0911696 2.2884e-20)
(1.14081 0.088146 -1.18568e-20)
(1.13709 0.0851323 -6.12408e-21)
(1.13352 0.082126 5.95048e-21)
(1.13008 0.0791262 3.05631e-21)
(1.12676 0.0761332 7.68278e-22)
(1.12356 0.0731473 3.43299e-21)
(1.12047 0.0701691 -5.92224e-21)
(1.11748 0.0672 -2.22167e-21)
(1.11459 0.064241 3.19687e-21)
(1.11179 0.0612934 1.6784e-21)
(1.10907 0.0583601 -2.27287e-21)
(1.10644 0.0554427 2.94195e-21)
(1.10389 0.0525432 -1.75282e-21)
(1.10141 0.0496638 -7.94788e-22)
(1.099 0.0468067 -1.20267e-22)
(1.09667 0.0439736 3.07671e-22)
(1.09441 0.0411666 4.35777e-22)
(1.09222 0.0383869 6.17405e-25)
(1.09011 0.0356356 2.7981e-22)
(1.08808 0.0329134 8.99952e-23)
(1.08613 0.0302198 -1.62432e-23)
(1.08427 0.0275547 6.62091e-23)
(1.08251 0.0249154 -1.16091e-22)
(1.08086 0.0222992 -2.67925e-22)
(1.07932 0.0197034 3.45498e-22)
(1.07791 0.017121 -2.58999e-22)
(1.07665 0.0145463 1.02698e-22)
(1.07554 0.0119684 -1.34712e-22)
(1.07461 0.00938157 3.41315e-22)
(1.07387 0.00675898 7.23896e-22)
(1.07335 0.00411337 4.52205e-22)
(1.07306 0.00137334 1.59565e-22)
(1.18169 0.108509 9.78606e-21)
(1.17622 0.105692 -4.04574e-20)
(1.17074 0.102815 7.25394e-21)
(1.16543 0.0999821 2.66131e-20)
(1.16042 0.0971505 -2.05452e-20)
(1.15571 0.0943158 6.57503e-21)
(1.1513 0.0914879 3.67654e-21)
(1.14712 0.0886662 8.14815e-21)
(1.14313 0.0858445 -1.75755e-21)
(1.13932 0.0830181 -9.33614e-21)
(1.13565 0.080185 6.66265e-21)
(1.13212 0.0773447 -2.38002e-21)
(1.12872 0.0744981 -5.85027e-21)
(1.12544 0.0716463 3.49655e-21)
(1.12227 0.0687909 -6.37481e-21)
(1.1192 0.0659337 4.63016e-21)
(1.11623 0.063077 -3.95348e-21)
(1.11336 0.0602229 -3.00595e-22)
(1.11058 0.0573746 8.49143e-22)
(1.10788 0.0545351 3.7764e-21)
(1.10526 0.0517066 -2.94147e-21)
(1.10272 0.0488925 1.63977e-21)
(1.10025 0.0460954 -1.49934e-22)
(1.09786 0.0433179 -1.29654e-21)
(1.09554 0.0405624 1.3568e-21)
(1.0933 0.037831 -9.17926e-22)
(1.09114 0.0351251 -3.22823e-22)
(1.08905 0.0324461 -1.55416e-22)
(1.08706 0.0297936 3.41356e-23)
(1.08515 0.0271681 3.13524e-23)
(1.08335 0.0245672 2.09217e-23)
(1.08165 0.0219885 3.64819e-23)
(1.08008 0.0194294 -1.76209e-22)
(1.07863 0.0168833 3.25717e-22)
(1.07734 0.0143448 -2.48053e-22)
(1.0762 0.0118029 1.1575e-24)
(1.07525 0.00925237 -9.36954e-22)
(1.07449 0.00666637 -6.68128e-22)
(1.07396 0.00405711 8.71018e-23)
(1.07366 0.00135696 -2.82503e-22)
(1.18486 0.104016 -6.6202e-20)
(1.17931 0.101515 3.15134e-20)
(1.17374 0.0989562 1.41164e-20)
(1.16832 0.0964371 -3.50414e-20)
(1.16317 0.093892 9.47583e-21)
(1.15832 0.0913162 4.38116e-22)
(1.15377 0.0887268 -1.4357e-20)
(1.14947 0.0861274 1.10161e-20)
(1.14538 0.0835127 -1.69024e-20)
(1.14148 0.0808784 -4.06745e-22)
(1.13772 0.0782226 1.81241e-20)
(1.13411 0.0755453 -7.43564e-21)
(1.13063 0.0728481 1.00301e-20)
(1.12727 0.0701329 -3.64072e-21)
(1.12403 0.0674021 3.02215e-21)
(1.12089 0.0646586 -3.27781e-21)
(1.11786 0.0619054 6.1068e-21)
(1.11492 0.0591456 -2.15058e-21)
(1.11207 0.0563831 -3.05295e-21)
(1.10931 0.0536218 1.63398e-21)
(1.10662 0.0508648 5.58449e-22)
(1.10402 0.0481161 -7.71995e-22)
(1.1015 0.0453792 -1.18543e-21)
(1.09905 0.0426573 2.36639e-23)
(1.09667 0.0399535 9.78456e-22)
(1.09437 0.0372704 -3.42502e-24)
(1.09216 0.0346101 -1.03399e-22)
(1.09002 0.0319742 4.21718e-22)
(1.08797 0.029363 6.74115e-23)
(1.08602 0.0267772 -1.1367e-23)
(1.08417 0.0242149 -1.79547e-23)
(1.08244 0.0216739 -2.36619e-22)
(1.08082 0.0191519 -1.47627e-22)
(1.07935 0.0166425 -1.34304e-22)
(1.07802 0.0141405 -2.09108e-23)
(1.07686 0.0116351 3.59512e-22)
(1.07588 0.00912124 5.19791e-22)
(1.0751 0.00657237 6.19835e-22)
(1.07456 0.00399992 -8.48648e-22)
(1.07425 0.00134024 -7.39575e-23)
(1.18783 0.0994266 -1.40422e-20)
(1.18221 0.0972483 2.34468e-20)
(1.17657 0.0950188 -5.4527e-20)
(1.17107 0.0928252 7.15036e-21)
(1.1658 0.0905779 6.17596e-20)
(1.16082 0.0882705 -2.18919e-20)
(1.15614 0.085927 -2.7464e-20)
(1.15174 0.0835558 -8.16731e-21)
(1.14756 0.0811533 3.16217e-20)
(1.14356 0.0787155 -2.9342e-20)
(1.13973 0.0762409 1.95578e-20)
(1.13604 0.07373 -2.89898e-21)
(1.13249 0.0711849 -4.07192e-21)
(1.12906 0.0686086 1.57641e-21)
(1.12575 0.0660043 4.08242e-21)
(1.12255 0.0633758 -9.25106e-21)
(1.11945 0.0607272 7.51775e-21)
(1.11645 0.0580625 -1.87931e-21)
(1.11354 0.0553863 1.19207e-22)
(1.11071 0.0527036 -1.23447e-21)
(1.10797 0.0500183 -8.87138e-22)
(1.10531 0.0473352 1.2809e-21)
(1.10273 0.0446585 -1.96889e-21)
(1.10022 0.0419922 1.28659e-21)
(1.09779 0.0393401 4.72763e-22)
(1.09544 0.0367053 -6.78154e-22)
(1.09316 0.0340905 8.86676e-23)
(1.09098 0.0314978 1.01039e-22)
(1.08888 0.0289279 1.17583e-24)
(1.08688 0.026382 1.60744e-22)
(1.08499 0.0238585 -3.48252e-23)
(1.08321 0.0213555 1.12875e-22)
(1.08156 0.0188708 9.34103e-24)
(1.08005 0.0163984 1.1088e-22)
(1.07869 0.0139333 -3.57264e-22)
(1.0775 0.0114648 6.90517e-23)
(1.0765 0.00898813 -1.58748e-22)
(1.07571 0.00647692 2.23502e-22)
(1.07514 0.00394177 6.23622e-22)
(1.07483 0.00132315 2.66561e-22)
(1.19059 0.0947432 -4.59323e-20)
(1.18491 0.0928935 4.48386e-20)
(1.17923 0.0910053 1.875e-20)
(1.17366 0.089149 -3.63962e-20)
(1.1683 0.0872106 -5.82375e-21)
(1.16321 0.0851811 1.47416e-20)
(1.15843 0.0830911 -8.6382e-21)
(1.15392 0.0809542 5.5686e-21)
(1.14965 0.0787689 2.78084e-20)
(1.14558 0.0765319 -3.21903e-20)
(1.14167 0.074242 2.32919e-20)
(1.13792 0.0719006 -1.75605e-20)
(1.1343 0.0695104 7.99983e-21)
(1.13081 0.067075 6.58785e-21)
(1.12744 0.0645989 -1.09141e-21)
(1.12418 0.0620867 -1.67738e-20)
(1.12102 0.0595435 8.92127e-21)
(1.11796 0.0569746 -9.51364e-21)
(1.11499 0.0543852 1.08913e-20)
(1.11211 0.0517812 -3.98309e-21)
(1.10931 0.0491677 -1.84856e-22)
(1.10659 0.0465502 1.32446e-21)
(1.10395 0.0439337 -1.22087e-21)
(1.10138 0.0413229 -7.86654e-22)
(1.0989 0.0387224 6.49087e-23)
(1.09649 0.0361358 -3.10599e-22)
(1.09417 0.0335664 8.36357e-23)
(1.09193 0.0310169 -2.16352e-22)
(1.08978 0.0284885 2.75665e-23)
(1.08774 0.0259825 1.97176e-22)
(1.0858 0.0234979 1.06675e-22)
(1.08398 0.0210331 1.06601e-22)
(1.08229 0.018586 2.73373e-22)
(1.08074 0.016151 2.9456e-23)
(1.07935 0.0137232 1.66901e-22)
(1.07813 0.011292 3.24425e-23)
(1.07711 0.00885296 2.43958e-23)
(1.0763 0.00637997 -5.16633e-22)
(1.07572 0.00388261 -6.05335e-22)
(1.0754 0.00130565 -1.75615e-22)
(1.19314 0.0899691 -7.65459e-20)
(1.18741 0.0884538 -2.16985e-20)
(1.1817 0.0869189 4.80276e-20)
(1.1761 0.0854114 1.12698e-21)
(1.17068 0.0837927 3.1713e-21)
(1.1655 0.0820506 -4.05726e-20)
(1.16061 0.0802219 2.22491e-20)
(1.15601 0.0783253 1.07627e-20)
(1.15166 0.0763621 1.75274e-21)
(1.14752 0.0743299 3.77687e-22)
(1.14356 0.0722283 -1.88366e-20)
(1.13974 0.0700593 2.68813e-20)
(1.13607 0.0678263 -1.19544e-20)
(1.13253 0.0655338 1.21694e-20)
(1.1291 0.0631874 -2.30897e-21)
(1.12578 0.0607925 3.09509e-21)
(1.12257 0.0583556 -1.11294e-20)
(1.11945 0.0558828 5.85265e-22)
(1.11642 0.0533805 3.77192e-22)
(1.11348 0.0508554 5.3053e-21)
(1.11063 0.0483137 -1.72117e-21)
(1.10785 0.0457616 -2.98652e-21)
(1.10516 0.0432051 4.43707e-21)
(1.10254 0.0406497 -1.4445e-21)
(1.1 0.0381006 7.47894e-22)
(1.09754 0.0355621 1.05348e-22)
(1.09516 0.0330381 -8.54314e-22)
(1.09287 0.0305317 5.26581e-22)
(1.09068 0.0280447 -5.71684e-22)
(1.08858 0.0255786 -1.33215e-22)
(1.0866 0.0231332 2.35503e-24)
(1.08474 0.0207067 4.22435e-23)
(1.08301 0.0182975 -2.50161e-22)
(1.08143 0.0159002 1.26575e-22)
(1.08 0.01351 -1.95828e-22)
(1.07876 0.0111166 -5.29208e-22)
(1.07771 0.00871565 -1.12436e-24)
(1.07688 0.00628145 1.84486e-22)
(1.07629 0.00382241 -2.93089e-22)
(1.07596 0.00128771 1.47491e-22)
(1.19547 0.0851068 -2.13806e-20)
(1.1897 0.0839321 4.84005e-21)
(1.18398 0.0827627 -5.25251e-20)
(1.17838 0.0816153 -1.34665e-20)
(1.17291 0.0803267 4.5129e-20)
(1.16767 0.0788812 1.17413e-20)
(1.1627 0.0773218 -3.08e-20)
(1.15801 0.0756719 1.28717e-20)
(1.15359 0.0739356 -1.76118e-20)
(1.14939 0.0721121 2.91179e-20)
(1.14537 0.070202 -2.9655e-20)
(1.14151 0.0682081 9.19186e-21)
(1.13779 0.0661345 3.56918e-21)
(1.1342 0.0639867 -7.32834e-21)
(1.13072 0.0617712 1.51768e-20)
(1.12735 0.0594947 -9.54902e-21)
(1.12409 0.0571646 5.86461e-21)
(1.12092 0.0547883 -1.17594e-20)
(1.11784 0.0523731 1.07866e-20)
(1.11485 0.0499269 -3.18378e-22)
(1.11194 0.0474567 -6.23809e-21)
(1.10911 0.0449699 5.00859e-21)
(1.10635 0.0424732 -1.11048e-21)
(1.10368 0.0399729 -1.90376e-21)
(1.10109 0.0374749 -6.99306e-23)
(1.09857 0.0349843 2.68177e-22)
(1.09614 0.0325054 1.03194e-21)
(1.0938 0.0300421 -9.87302e-22)
(1.09156 0.0275964 -3.06552e-23)
(1.08942 0.0251704 1.58578e-22)
(1.08739 0.0227641 6.63695e-23)
(1.08549 0.0203762 -8.31882e-23)
(1.08372 0.0180051 7.31382e-23)
(1.0821 0.0156458 1.5034e-22)
(1.08064 0.0132937 1.3981e-22)
(1.07937 0.0109385 -1.83734e-22)
(1.0783 0.00857613 -1.84067e-22)
(1.07745 0.00618129 -1.49285e-22)
(1.07685 0.00376113 -2.19461e-22)