/*--------------------------------*- C++ -*----------------------------------*\
  =========                 |
  \\      /  F ield         | OpenFOAM: The Open Source CFD Toolbox
   \\    /   O peration     | Website:  https://openfoam.org
    \\  /    A nd           | Version:  7
     \\/     M anipulation  |
\*---------------------------------------------------------------------------*/
FoamFile
{
    version     2.0;
    format      ascii;
    class       volVectorField;
    location    "5";
    object      U;
}
// * * * * * * * * * * * * * * * * * * * * * * * * * * * * * * * * * * * * * //

dimensions      [0 1 -1 0 0 0 0];

internalField   nonuniform List<vector> 
1987
(
(0.997255 0.00314807 0)
(0.997504 0.00284702 0)
(0.997732 0.00257323 0)
(0.997941 0.00232426 0)
(0.998133 0.00209791 0)
(0.998309 0.00189216 0)
(0.998471 0.00170521 0)
(0.998618 0.00153551 0)
(0.998753 0.0013814 0)
(0.998876 0.00124169 0)
(0.998987 0.00111506 0)
(0.999089 0.00100029 0)
(0.999182 0.000896368 0)
(0.999266 0.000802586 0)
(0.999342 0.00071779 0)
(0.999411 0.000641218 0)
(0.999473 0.000572166 0)
(0.997337 0.00323793 0)
(0.997577 0.00292881 0)
(0.997798 0.00264758 0)
(0.998001 0.00239176 0)
(0.998188 0.00215912 0)
(0.998359 0.0019476 0)
(0.998515 0.00175538 0)
(0.998658 0.00158084 0)
(0.998789 0.00142233 0)
(0.998908 0.00127858 0)
(0.999017 0.00114827 0)
(0.999116 0.00103017 0)
(0.999205 0.00092325 0)
(0.999287 0.000826677 0)
(0.999361 0.000739375 0)
(0.999428 0.00066054 0)
(0.999489 0.00058944 0)
(0.999544 0.000525363 0)
(0.999593 0.000467687 0)
(0.999638 0.000415919 0)
(0.999678 0.000369411 0)
(0.999714 0.000327684 0)
(0.999746 0.000290303 0)
(0.999775 0.000256855 0)
(0.999801 0.000226964 0)
(0.999824 0.000200285 0)
(0.999845 0.000176505 0)
(0.999863 0.000155336 0)
(0.99988 0.000136517 0)
(0.999895 0.000119809 0)
(0.999907 0.000104997 0)
(0.999919 9.18843e-05 0)
(0.999929 8.02928e-05 0)
(0.999938 7.00599e-05 0)
(0.999946 6.10422e-05 0)
(0.999953 5.31037e-05 0)
(0.999959 4.6132e-05 0)
(0.999965 4.00096e-05 0)
(0.999969 3.46563e-05 0)
(0.999973 2.99615e-05 0)
(0.999977 2.58824e-05 0)
(0.99998 2.2302e-05 0)
(0.999983 1.92208e-05 0)
(0.999985 1.65057e-05 0)
(0.999988 1.42018e-05 0)
(0.999989 1.21531e-05 0)
(0.999991 1.04564e-05 0)
(0.999992 8.91191e-06 0)
(0.999993 7.69525e-06 0)
(0.999995 6.5263e-06 0)
(0.999995 5.69154e-06 0)
(0.999996 4.79948e-06 0)
(0.999997 4.27772e-06 0)
(0.999998 3.57986e-06 0)
(0.999998 3.32991e-06 0)
(0.999999 2.76284e-06 0)
(0.997429 0.00332762 0)
(0.997661 0.00301051 0)
(0.997873 0.00272189 0)
(0.998069 0.00245926 0)
(0.998249 0.00222037 0)
(0.998414 0.00200309 0)
(0.998565 0.00180561 0)
(0.998703 0.00162624 0)
(0.998829 0.00146333 0)
(0.998944 0.00131555 0)
(0.999049 0.00118156 0)
(0.999145 0.00106013 0)
(0.999232 0.000950188 0)
(0.999311 0.000850829 0)
(0.999382 0.000761018 0)
(0.999447 0.000679914 0)
(0.999506 0.000606762 0)
(0.999559 0.000540834 0)
(0.999607 0.000481497 0)
(0.99965 0.000428206 0)
(0.999689 0.000380336 0)
(0.999723 0.000337388 0)
(0.999755 0.000298911 0)
(0.999783 0.00026448 0)
(0.999808 0.000233709 0)
(0.99983 0.000206244 0)
(0.99985 0.000181762 0)
(0.999868 0.000159967 0)
(0.999884 0.00014059 0)
(0.999898 0.000123387 0)
(0.999911 0.000108135 0)
(0.999922 9.46327e-05 0)
(0.999932 8.26963e-05 0)
(0.99994 7.21587e-05 0)
(0.999948 6.28721e-05 0)
(0.999955 5.46968e-05 0)
(0.999961 4.75168e-05 0)
(0.999966 4.12115e-05 0)
(0.99997 3.56981e-05 0)
(0.999974 3.08628e-05 0)
(0.999978 2.66614e-05 0)
(0.999981 2.29739e-05 0)
(0.999984 1.98e-05 0)
(0.999986 1.70037e-05 0)
(0.999988 1.46302e-05 0)
(0.99999 1.25204e-05 0)
(0.999991 1.0772e-05 0)
(0.999993 9.18189e-06 0)
(0.999994 7.92762e-06 0)
(0.999995 6.7246e-06 0)
(0.999996 5.86335e-06 0)
(0.999996 4.94591e-06 0)
(0.999997 4.40673e-06 0)
(0.999998 3.68961e-06 0)
(0.999998 3.43045e-06 0)
(0.999999 2.84749e-06 0)
(0.997534 0.00341673 0)
(0.997755 0.00309176 0)
(0.997958 0.00279585 0)
(0.998146 0.0025265 0)
(0.998318 0.0022814 0)
(0.998476 0.00205843 0)
(0.998621 0.00185572 0)
(0.998754 0.00167154 0)
(0.998875 0.00150425 0)
(0.998985 0.00135245 0)
(0.999086 0.00121481 0)
(0.999178 0.00109005 0)
(0.999262 0.000977089 0)
(0.999337 0.000874959 0)
(0.999406 0.000782644 0)
(0.999469 0.000699275 0)
(0.999525 0.000624073 0)
(0.999576 0.000556297 0)
(0.999622 0.000495295 0)
(0.999663 0.000440485 0)
(0.999701 0.000391254 0)
(0.999734 0.000347087 0)
(0.999764 0.000307513 0)
(0.999791 0.0002721 0)
(0.999815 0.00024045 0)
(0.999837 0.000212199 0)
(0.999856 0.000187014 0)
(0.999873 0.000164593 0)
(0.999889 0.00014466 0)
(0.999902 0.000126961 0)
(0.999914 0.00011127 0)
(0.999925 9.73779e-05 0)
(0.999934 8.50968e-05 0)
(0.999943 7.42547e-05 0)
(0.99995 6.46994e-05 0)
(0.999956 5.62874e-05 0)
(0.999962 4.88994e-05 0)
(0.999967 4.24114e-05 0)
(0.999972 3.67379e-05 0)
(0.999975 3.17624e-05 0)
(0.999979 2.74388e-05 0)
(0.999982 2.36444e-05 0)
(0.999984 2.03778e-05 0)
(0.999987 1.75006e-05 0)
(0.999988 1.50574e-05 0)
(0.99999 1.28868e-05 0)
(0.999992 1.10868e-05 0)
(0.999993 9.45112e-06 0)
(0.999994 8.15924e-06 0)
(0.999995 6.92231e-06 0)
(0.999996 6.03452e-06 0)
(0.999997 5.09188e-06 0)
(0.999997 4.53522e-06 0)
(0.999998 3.79895e-06 0)
(0.999998 3.53057e-06 0)
(0.999999 2.93177e-06 0)
(0.997651 0.00350458 0)
(0.997861 0.00317194 0)
(0.998054 0.00286892 0)
(0.998232 0.00259298 0)
(0.998395 0.00234179 0)
(0.998546 0.00211322 0)
(0.998684 0.00190536 0)
(0.99881 0.00171644 0)
(0.998926 0.00154483 0)
(0.999031 0.00138907 0)
(0.999127 0.0012478 0)
(0.999215 0.00111975 0)
(0.999295 0.00100379 0)
(0.999367 0.000898922 0)
(0.999433 0.000804124 0)
(0.999492 0.000718508 0)
(0.999546 0.000641272 0)
(0.999595 0.00057166 0)
(0.999639 0.000509001 0)
(0.999678 0.000452686 0)
(0.999714 0.000402105 0)
(0.999746 0.000356725 0)
(0.999775 0.000316063 0)
(0.9998 0.000279673 0)
(0.999824 0.000247149 0)
(0.999844 0.000218116 0)
(0.999863 0.000192234 0)
(0.999879 0.000169191 0)
(0.999894 0.000148703 0)
(0.999907 0.000130513 0)
(0.999918 0.000114385 0)
(0.999928 0.000100105 0)
(0.999937 8.74815e-05 0)
(0.999945 7.63367e-05 0)
(0.999952 6.65144e-05 0)
(0.999958 5.78673e-05 0)
(0.999964 5.02725e-05 0)
(0.999969 4.36029e-05 0)
(0.999973 3.77704e-05 0)
(0.999977 3.26556e-05 0)
(0.99998 2.82105e-05 0)
(0.999983 2.43099e-05 0)
(0.999985 2.09513e-05 0)
(0.999987 1.79936e-05 0)
(0.999989 1.54814e-05 0)
(0.999991 1.32504e-05 0)
(0.999992 1.1399e-05 0)
(0.999993 9.71822e-06 0)
(0.999994 8.38892e-06 0)
(0.999995 7.11843e-06 0)
(0.999996 6.20421e-06 0)
(0.999997 5.23665e-06 0)
(0.999997 4.66255e-06 0)
(0.999998 3.90735e-06 0)
(0.999998 3.62977e-06 0)
(0.999999 3.01525e-06 0)
(0.997781 0.00359038 0)
(0.997978 0.00325037 0)
(0.998159 0.00294048 0)
(0.998327 0.00265815 0)
(0.998481 0.00240106 0)
(0.998623 0.00216703 0)
(0.998753 0.00195414 0)
(0.998872 0.00176061 0)
(0.998982 0.00158476 0)
(0.999081 0.00142511 0)
(0.999172 0.0012803 0)
(0.999255 0.00114901 0)
(0.999331 0.00103011 0)
(0.9994 0.000922545 0)
(0.999462 0.000825304 0)
(0.999518 0.000737477 0)
(0.999569 0.000658238 0)
(0.999615 0.000586816 0)
(0.999657 0.000522523 0)
(0.999695 0.000464727 0)
(0.999729 0.000412814 0)
(0.999759 0.000366237 0)
(0.999786 0.000324501 0)
(0.999811 0.000287148 0)
(0.999833 0.000253761 0)
(0.999852 0.000223957 0)
(0.99987 0.000197386 0)
(0.999885 0.000173729 0)
(0.999899 0.000152695 0)
(0.999911 0.000134018 0)
(0.999922 0.000117459 0)
(0.999932 0.000102797 0)
(0.99994 8.98352e-05 0)
(0.999948 7.83916e-05 0)
(0.999955 6.83057e-05 0)
(0.999961 5.94264e-05 0)
(0.999966 5.16275e-05 0)
(0.99997 4.47787e-05 0)
(0.999974 3.87891e-05 0)
(0.999978 3.35368e-05 0)
(0.999981 2.89718e-05 0)
(0.999983 2.49664e-05 0)
(0.999986 2.1517e-05 0)
(0.999988 1.848e-05 0)
(0.99999 1.58995e-05 0)
(0.999991 1.36089e-05 0)
(0.999992 1.17068e-05 0)
(0.999994 9.98159e-06 0)
(0.999995 8.61532e-06 0)
(0.999995 7.31178e-06 0)
(0.999996 6.37142e-06 0)
(0.999997 5.37935e-06 0)
(0.999997 4.78799e-06 0)
(0.999998 4.01416e-06 0)
(0.999998 3.72751e-06 0)
(0.999999 3.09747e-06 0)
(0.997923 0.00367334 0)
(0.998106 0.00332633 0)
(0.998275 0.00300989 0)
(0.998431 0.00272145 0)
(0.998575 0.00245868 0)
(0.998708 0.0022194 0)
(0.998829 0.00200167 0)
(0.998941 0.00180366 0)
(0.999043 0.00162371 0)
(0.999137 0.0014603 0)
(0.999222 0.00131203 0)
(0.9993 0.0011776 0)
(0.999371 0.00105583 0)
(0.999435 0.000945642 0)
(0.999494 0.00084602 0)
(0.999547 0.000756034 0)
(0.999595 0.000674839 0)
(0.999638 0.00060165 0)
(0.999677 0.000535759 0)
(0.999713 0.000476516 0)
(0.999744 0.0004233 0)
(0.999773 0.000375553 0)
(0.999799 0.000332765 0)
(0.999822 0.00029447 0)
(0.999842 0.000260238 0)
(0.999861 0.000229679 0)
(0.999877 0.000202433 0)
(0.999892 0.000178175 0)
(0.999905 0.000156605 0)
(0.999916 0.000137453 0)
(0.999927 0.000120471 0)
(0.999936 0.000105435 0)
(0.999944 9.21411e-05 0)
(0.999951 8.04047e-05 0)
(0.999957 7.00605e-05 0)
(0.999963 6.09537e-05 0)
(0.999968 5.29548e-05 0)
(0.999972 4.59303e-05 0)
(0.999976 3.97869e-05 0)
(0.999979 3.43999e-05 0)
(0.999982 2.97175e-05 0)
(0.999984 2.56093e-05 0)
(0.999987 2.2071e-05 0)
(0.999989 1.89562e-05 0)
(0.99999 1.63089e-05 0)
(0.999992 1.396e-05 0)
(0.999993 1.20082e-05 0)
(0.999994 1.02395e-05 0)
(0.999995 8.83692e-06 0)
(0.999996 7.50108e-06 0)
(0.999996 6.53505e-06 0)
(0.999997 5.51904e-06 0)
(0.999997 4.91073e-06 0)
(0.999998 4.11868e-06 0)
(0.999998 3.82314e-06 0)
(0.999999 3.1779e-06 0)
(0.998077 0.00375262 0)
(0.998245 0.00339906 0)
(0.9984 0.00307646 0)
(0.998544 0.00278226 0)
(0.998677 0.00251411 0)
(0.998799 0.00226984 0)
(0.998912 0.00204748 0)
(0.999015 0.00184521 0)
(0.99911 0.00166132 0)
(0.999196 0.0014943 0)
(0.999276 0.00134272 0)
(0.999348 0.00120526 0)
(0.999414 0.00108072 0)
(0.999474 0.000968014 0)
(0.999528 0.000866095 0)
(0.999578 0.000774023 0)
(0.999622 0.000690937 0)
(0.999663 0.000616037 0)
(0.999699 0.000548599 0)
(0.999732 0.000487955 0)
(0.999762 0.000433477 0)
(0.999788 0.000384595 0)
(0.999812 0.000340788 0)
(0.999834 0.000301578 0)
(0.999853 0.000266527 0)
(0.99987 0.000235235 0)
(0.999885 0.000207335 0)
(0.999899 0.000182492 0)
(0.999911 0.000160403 0)
(0.999922 0.000140788 0)
(0.999932 0.000123396 0)
(0.99994 0.000107996 0)
(0.999948 9.4381e-05 0)
(0.999954 8.23602e-05 0)
(0.99996 7.1765e-05 0)
(0.999965 6.24374e-05 0)
(0.99997 5.42441e-05 0)
(0.999974 4.7049e-05 0)
(0.999977 4.07561e-05 0)
(0.99998 3.52382e-05 0)
(0.999983 3.04417e-05 0)
(0.999986 2.62338e-05 0)
(0.999988 2.2609e-05 0)
(0.999989 1.94188e-05 0)
(0.999991 1.67065e-05 0)
(0.999992 1.43009e-05 0)
(0.999993 1.23008e-05 0)
(0.999994 1.04899e-05 0)
(0.999995 9.05206e-06 0)
(0.999996 7.68491e-06 0)
(0.999997 6.69388e-06 0)
(0.999997 5.65467e-06 0)
(0.999998 5.02986e-06 0)
(0.999998 4.22015e-06 0)
(0.999998 3.91598e-06 0)
(0.999999 3.25594e-06 0)
(0.998242 0.00382737 0)
(0.998394 0.0034678 0)
(0.998535 0.00313951 0)
(0.998665 0.00283995 0)
(0.998786 0.00256678 0)
(0.998898 0.00231784 0)
(0.999 0.00209114 0)
(0.999095 0.00188484 0)
(0.999181 0.00169724 0)
(0.999261 0.0015268 0)
(0.999333 0.00137207 0)
(0.9994 0.00123174 0)
(0.99946 0.00110457 0)
(0.999515 0.00098945 0)
(0.999565 0.000885339 0)
(0.999611 0.000791275 0)
(0.999652 0.000706381 0)
(0.999689 0.000629844 0)
(0.999723 0.000560924 0)
(0.999753 0.000498939 0)
(0.99978 0.000443253 0)
(0.999805 0.000393283 0)
(0.999827 0.000348497 0)
(0.999847 0.00030841 0)
(0.999864 0.000272572 0)
(0.99988 0.000240576 0)
(0.999894 0.000212047 0)
(0.999907 0.000186644 0)
(0.999918 0.000164055 0)
(0.999928 0.000143996 0)
(0.999937 0.000126209 0)
(0.999945 0.00011046 0)
(0.999952 9.65351e-05 0)
(0.999958 8.42409e-05 0)
(0.999963 7.34045e-05 0)
(0.999968 6.38643e-05 0)
(0.999972 5.54841e-05 0)
(0.999976 4.8125e-05 0)
(0.999979 4.16883e-05 0)
(0.999982 3.60445e-05 0)
(0.999984 3.11382e-05 0)
(0.999987 2.68344e-05 0)
(0.999988 2.31264e-05 0)
(0.99999 1.98636e-05 0)
(0.999992 1.70888e-05 0)
(0.999993 1.46288e-05 0)
(0.999994 1.25821e-05 0)
(0.999995 1.07307e-05 0)
(0.999996 9.25892e-06 0)
(0.999996 7.86169e-06 0)
(0.999997 6.84659e-06 0)
(0.999997 5.7851e-06 0)
(0.999998 5.1444e-06 0)
(0.999998 4.31769e-06 0)
(0.999999 4.00524e-06 0)
(0.999999 3.33097e-06 0)
(0.998418 0.00389671 0)
(0.998552 0.00353174 0)
(0.998678 0.0031983 0)
(0.998794 0.00289386 0)
(0.998902 0.0026161 0)
(0.999002 0.00236286 0)
(0.999095 0.00213214 0)
(0.99918 0.00192211 0)
(0.999258 0.00173107 0)
(0.999329 0.00155744 0)
(0.999395 0.00139978 0)
(0.999455 0.00125674 0)
(0.99951 0.0011271 0)
(0.99956 0.00100972 0)
(0.999605 0.000903551 0)
(0.999646 0.000807611 0)
(0.999683 0.000721012 0)
(0.999717 0.00064293 0)
(0.999748 0.00057261 0)
(0.999775 0.000509357 0)
(0.9998 0.000452527 0)
(0.999822 0.000401527 0)
(0.999842 0.000355815 0)
(0.99986 0.000314895 0)
(0.999876 0.000278312 0)
(0.999891 0.000245648 0)
(0.999904 0.000216523 0)
(0.999915 0.000190587 0)
(0.999925 0.000167524 0)
(0.999935 0.000147044 0)
(0.999943 0.000128882 0)
(0.99995 0.000112801 0)
(0.999956 9.85823e-05 0)
(0.999962 8.60283e-05 0)
(0.999967 7.49627e-05 0)
(0.999971 6.52206e-05 0)
(0.999975 5.66628e-05 0)
(0.999978 4.91477e-05 0)
(0.999981 4.25744e-05 0)
(0.999984 3.6811e-05 0)
(0.999986 3.18003e-05 0)
(0.999988 2.74053e-05 0)
(0.99999 2.36183e-05 0)
(0.999991 2.02865e-05 0)
(0.999992 1.74522e-05 0)
(0.999993 1.49405e-05 0)
(0.999994 1.28496e-05 0)
(0.999995 1.09597e-05 0)
(0.999996 9.45552e-06 0)
(0.999997 8.02975e-06 0)
(0.999997 6.99172e-06 0)
(0.999998 5.90908e-06 0)
(0.999998 5.25326e-06 0)
(0.999999 4.4104e-06 0)
(0.999999 4.09009e-06 0)
(0.999999 3.40228e-06 0)
(0.998603 0.00395972 0)
(0.99872 0.00359004 0)
(0.998829 0.00325207 0)
(0.998931 0.00294331 0)
(0.999026 0.00266145 0)
(0.999113 0.00240434 0)
(0.999195 0.00217 0)
(0.99927 0.00195658 0)
(0.999339 0.00176239 0)
(0.999402 0.00158584 0)
(0.99946 0.00142549 0)
(0.999514 0.00127998 0)
(0.999562 0.00114806 0)
(0.999606 0.0010286 0)
(0.999647 0.000920519 0)
(0.999684 0.000822841 0)
(0.999717 0.000734661 0)
(0.999747 0.000655142 0)
(0.999774 0.000583521 0)
(0.999799 0.000519089 0)
(0.999821 0.000461193 0)
(0.999841 0.000409233 0)
(0.999859 0.000362657 0)
(0.999875 0.000320961 0)
(0.999889 0.000283682 0)
(0.999902 0.000250394 0)
(0.999914 0.000220712 0)
(0.999924 0.000194279 0)
(0.999933 0.000170772 0)
(0.999941 0.000149897 0)
(0.999949 0.000131386 0)
(0.999955 0.000114993 0)
(0.999961 0.0001005 0)
(0.999966 8.77025e-05 0)
(0.99997 7.64222e-05 0)
(0.999974 6.64911e-05 0)
(0.999977 5.7767e-05 0)
(0.99998 5.01059e-05 0)
(0.999983 4.34046e-05 0)
(0.999985 3.75291e-05 0)
(0.999987 3.24207e-05 0)
(0.999989 2.79402e-05 0)
(0.999991 2.40791e-05 0)
(0.999992 2.06828e-05 0)
(0.999993 1.77927e-05 0)
(0.999994 1.52326e-05 0)
(0.999995 1.31002e-05 0)
(0.999996 1.11742e-05 0)
(0.999996 9.63971e-06 0)
(0.999997 8.18723e-06 0)
(0.999997 7.12769e-06 0)
(0.999998 6.02526e-06 0)
(0.999998 5.35526e-06 0)
(0.999999 4.49727e-06 0)
(0.999999 4.16961e-06 0)
(0.999999 3.46909e-06 0)
(0.998798 0.00401542 0)
(0.998896 0.00364183 0)
(0.998988 0.00330002 0)
(0.999075 0.00298756 0)
(0.999155 0.00270215 0)
(0.999231 0.00244168 0)
(0.9993 0.00220415 0)
(0.999365 0.00198775 0)
(0.999424 0.00179077 0)
(0.999479 0.00161163 0)
(0.999529 0.00144886 0)
(0.999575 0.00130113 0)
(0.999618 0.00116716 0)
(0.999656 0.00104582 0)
(0.999691 0.000936013 0)
(0.999723 0.00083676 0)
(0.999752 0.000747143 0)
(0.999778 0.00066632 0)
(0.999802 0.000593512 0)
(0.999824 0.000528006 0)
(0.999843 0.000469138 0)
(0.999861 0.000416301 0)
(0.999876 0.000368935 0)
(0.99989 0.000326529 0)
(0.999903 0.000288612 0)
(0.999914 0.000254753 0)
(0.999924 0.000224559 0)
(0.999933 0.00019767 0)
(0.999941 0.000173756 0)
(0.999949 0.00015252 0)
(0.999955 0.000133686 0)
(0.99996 0.000117009 0)
(0.999965 0.000102262 0)
(0.99997 8.92419e-05 0)
(0.999974 7.77644e-05 0)
(0.999977 6.76595e-05 0)
(0.99998 5.87825e-05 0)
(0.999983 5.09871e-05 0)
(0.999985 4.41681e-05 0)
(0.999987 3.81896e-05 0)
(0.999989 3.29913e-05 0)
(0.99999 2.84323e-05 0)
(0.999992 2.4503e-05 0)
(0.999993 2.10473e-05 0)
(0.999994 1.81059e-05 0)
(0.999995 1.55013e-05 0)
(0.999996 1.33307e-05 0)
(0.999996 1.13716e-05 0)
(0.999997 9.80915e-06 0)
(0.999997 8.33214e-06 0)
(0.999998 7.25276e-06 0)
(0.999998 6.13216e-06 0)
(0.999998 5.44909e-06 0)
(0.999999 4.57719e-06 0)
(0.999999 4.24277e-06 0)
(0.999999 3.53057e-06 0)
(0.999002 0.00406282 0)
(0.999081 0.00368617 0)
(0.999155 0.00334131 0)
(0.999226 0.00302585 0)
(0.999292 0.00273753 0)
(0.999354 0.00247424 0)
(0.999411 0.00223405 0)
(0.999465 0.00201511 0)
(0.999514 0.00181574 0)
(0.99956 0.00163436 0)
(0.999602 0.00146952 0)
(0.999641 0.00131985 0)
(0.999676 0.0011841 0)
(0.999708 0.00106111 0)
(0.999738 0.000949789 0)
(0.999765 0.000849149 0)
(0.999789 0.000758265 0)
(0.999812 0.000676287 0)
(0.999832 0.00060243 0)
(0.99985 0.00053597 0)
(0.999867 0.000476238 0)
(0.999881 0.000422621 0)
(0.999895 0.000374551 0)
(0.999907 0.000331512 0)
(0.999917 0.000293026 0)
(0.999927 0.000258657 0)
(0.999936 0.000228007 0)
(0.999943 0.000200709 0)
(0.99995 0.000176432 0)
(0.999956 0.000154871 0)
(0.999962 0.00013575 0)
(0.999966 0.000118817 0)
(0.999971 0.000103844 0)
(0.999974 9.06232e-05 0)
(0.999978 7.89689e-05 0)
(0.99998 6.87081e-05 0)
(0.999983 5.9694e-05 0)
(0.999985 5.17782e-05 0)
(0.999987 4.48536e-05 0)
(0.999989 3.87827e-05 0)
(0.99999 3.35036e-05 0)
(0.999992 2.88742e-05 0)
(0.999993 2.48836e-05 0)
(0.999994 2.13746e-05 0)
(0.999995 1.83872e-05 0)
(0.999996 1.57427e-05 0)
(0.999996 1.35377e-05 0)
(0.999997 1.15489e-05 0)
(0.999997 9.9613e-06 0)
(0.999998 8.46229e-06 0)
(0.999998 7.36507e-06 0)
(0.999998 6.22818e-06 0)
(0.999999 5.53335e-06 0)
(0.999999 4.64898e-06 0)
(0.999999 4.30849e-06 0)
(0.999999 3.5858e-06 0)
(0.999215 0.00410086 0)
(0.999274 0.0037221 0)
(0.99933 0.00337506 0)
(0.999384 0.00305737 0)
(0.999435 0.00276683 0)
(0.999483 0.00250137 0)
(0.999528 0.00225906 0)
(0.999569 0.0020381 0)
(0.999609 0.00183681 0)
(0.999645 0.00165361 0)
(0.999678 0.00148705 0)
(0.999709 0.00133579 0)
(0.999737 0.00119855 0)
(0.999763 0.00107417 0)
(0.999787 0.000961583 0)
(0.999809 0.000859772 0)
(0.999829 0.000767816 0)
(0.999847 0.000684857 0)
(0.999863 0.000610105 0)
(0.999878 0.000542832 0)
(0.999891 0.000482362 0)
(0.999903 0.000428075 0)
(0.999914 0.000379402 0)
(0.999924 0.000335818 0)
(0.999932 0.000296843 0)
(0.99994 0.000262035 0)
(0.999947 0.000230991 0)
(0.999954 0.000203341 0)
(0.999959 0.00017875 0)
(0.999964 0.000156909 0)
(0.999968 0.000137538 0)
(0.999972 0.000120384 0)
(0.999976 0.000105215 0)
(0.999979 9.18211e-05 0)
(0.999982 8.00137e-05 0)
(0.999984 6.96179e-05 0)
(0.999986 6.04849e-05 0)
(0.999988 5.24647e-05 0)
(0.99999 4.54485e-05 0)
(0.999991 3.92974e-05 0)
(0.999992 3.39483e-05 0)
(0.999993 2.92577e-05 0)
(0.999994 2.52141e-05 0)
(0.999995 2.16588e-05 0)
(0.999996 1.86314e-05 0)
(0.999996 1.59522e-05 0)
(0.999997 1.37174e-05 0)
(0.999997 1.17028e-05 0)
(0.999998 1.00934e-05 0)
(0.999998 8.57534e-06 0)
(0.999998 7.46258e-06 0)
(0.999999 6.31159e-06 0)
(0.999999 5.60651e-06 0)
(0.999999 4.71134e-06 0)
(0.999999 4.36556e-06 0)
(1 3.63378e-06 0)
(0.999436 0.0041284 0)
(0.999474 0.00374859 0)
(0.999512 0.00340031 0)
(0.999548 0.00308125 0)
(0.999584 0.00278927 0)
(0.999617 0.00252234 0)
(0.999649 0.00227856 0)
(0.999679 0.00205614 0)
(0.999707 0.00185343 0)
(0.999733 0.00166888 0)
(0.999758 0.00150103 0)
(0.999781 0.00134854 0)
(0.999802 0.00121015 0)
(0.999821 0.0010847 0)
(0.999839 0.000971113 0)
(0.999855 0.000868378 0)
(0.99987 0.00077557 0)
(0.999883 0.000691828 0)
(0.999896 0.00061636 0)
(0.999907 0.000548432 0)
(0.999917 0.000487366 0)
(0.999926 0.000432539 0)
(0.999934 0.000383376 0)
(0.999942 0.000339349 0)
(0.999948 0.000299975 0)
(0.999954 0.000264809 0)
(0.99996 0.000233443 0)
(0.999964 0.000205505 0)
(0.999969 0.000180656 0)
(0.999972 0.000158586 0)
(0.999976 0.000139011 0)
(0.999979 0.000121675 0)
(0.999981 0.000106345 0)
(0.999984 9.28086e-05 0)
(0.999986 8.08751e-05 0)
(0.999988 7.03681e-05 0)
(0.999989 6.11373e-05 0)
(0.999991 5.30311e-05 0)
(0.999992 4.59394e-05 0)
(0.999993 3.97222e-05 0)
(0.999994 3.43153e-05 0)
(0.999995 2.95744e-05 0)
(0.999996 2.54868e-05 0)
(0.999996 2.18935e-05 0)
(0.999997 1.8833e-05 0)
(0.999997 1.61253e-05 0)
(0.999998 1.38657e-05 0)
(0.999998 1.183e-05 0)
(0.999998 1.02024e-05 0)
(0.999999 8.66874e-06 0)
(0.999999 7.54306e-06 0)
(0.999999 6.38052e-06 0)
(0.999999 5.6669e-06 0)
(0.999999 4.76289e-06 0)
(0.999999 4.4127e-06 0)
(1 3.67345e-06 0)
(0.999666 0.00414429 0)
(0.999683 0.00376457 0)
(0.999701 0.00341608 0)
(0.99972 0.0030966 0)
(0.999739 0.00280403 0)
(0.999757 0.0025364 0)
(0.999775 0.00229184 0)
(0.999793 0.00206861 0)
(0.99981 0.00186506 0)
(0.999826 0.00167967 0)
(0.999841 0.00151099 0)
(0.999855 0.0013577 0)
(0.999869 0.00121854 0)
(0.999881 0.00109236 0)
(0.999892 0.000978078 0)
(0.999903 0.000874696 0)
(0.999913 0.000781285 0)
(0.999922 0.000696985 0)
(0.99993 0.000621001 0)
(0.999937 0.000552598 0)
(0.999944 0.000491098 0)
(0.99995 0.000435875 0)
(0.999955 0.000386351 0)
(0.99996 0.000341998 0)
(0.999965 0.000302328 0)
(0.999969 0.000266895 0)
(0.999973 0.00023529 0)
(0.999976 0.000207137 0)
(0.999979 0.000182095 0)
(0.999981 0.000159853 0)
(0.999984 0.000140124 0)
(0.999986 0.000122652 0)
(0.999987 0.000107201 0)
(0.999989 9.35563e-05 0)
(0.99999 8.15276e-05 0)
(0.999992 7.09367e-05 0)
(0.999993 6.16318e-05 0)
(0.999994 5.34605e-05 0)
(0.999995 4.63117e-05 0)
(0.999995 4.00445e-05 0)
(0.999996 3.45938e-05 0)
(0.999996 2.98147e-05 0)
(0.999997 2.56939e-05 0)
(0.999997 2.20717e-05 0)
(0.999998 1.8986e-05 0)
(0.999998 1.62567e-05 0)
(0.999998 1.39784e-05 0)
(0.999999 1.19266e-05 0)
(0.999999 1.02852e-05 0)
(0.999999 8.73975e-06 0)
(0.999999 7.60416e-06 0)
(0.999999 6.43296e-06 0)
(0.999999 5.71274e-06 0)
(1 4.80212e-06 0)
(1 4.4485e-06 0)
(1 3.70364e-06 0)
(0.999903 0.0041473 0)
(0.999899 0.0037689 0)
(0.999897 0.00342133 0)
(0.999897 0.00310245 0)
(0.999899 0.00281023 0)
(0.999902 0.00254275 0)
(0.999907 0.00229819 0)
(0.999911 0.00207484 0)
(0.999917 0.00187109 0)
(0.999922 0.00168543 0)
(0.999928 0.00151644 0)
(0.999933 0.00136282 0)
(0.999938 0.00122331 0)
(0.999943 0.00109678 0)
(0.999948 0.000982157 0)
(0.999953 0.000878439 0)
(0.999957 0.000784704 0)
(0.999961 0.000700096 0)
(0.999965 0.000623822 0)
(0.999969 0.000555148 0)
(0.999972 0.000493395 0)
(0.999975 0.000437938 0)
(0.999977 0.0003882 0)
(0.99998 0.000343651 0)
(0.999982 0.000303802 0)
(0.999984 0.000268206 0)
(0.999986 0.000236453 0)
(0.999988 0.000208167 0)
(0.999989 0.000183006 0)
(0.99999 0.000160655 0)
(0.999992 0.000140831 0)
(0.999993 0.000123273 0)
(0.999993 0.000107745 0)
(0.999994 9.40328e-05 0)
(0.999995 8.1944e-05 0)
(0.999996 7.12998e-05 0)
(0.999996 6.19479e-05 0)
(0.999997 5.37352e-05 0)
(0.999997 4.655e-05 0)
(0.999998 4.02509e-05 0)
(0.999998 3.47723e-05 0)
(0.999998 2.99688e-05 0)
(0.999998 2.58266e-05 0)
(0.999999 2.2186e-05 0)
(0.999999 1.90841e-05 0)
(0.999999 1.63411e-05 0)
(0.999999 1.40506e-05 0)
(0.999999 1.19887e-05 0)
(0.999999 1.03383e-05 0)
(0.999999 8.78545e-06 0)
(1 7.64331e-06 0)
(1 6.46674e-06 0)
(1 5.74211e-06 0)
(1 4.82742e-06 0)
(1 4.47147e-06 0)
(1 3.72311e-06 0)
(1.00015 0.00413616 0)
(1.00012 0.00376041 0)
(1.0001 0.00341499 0)
(1.00008 0.00309783 0)
(1.00007 0.00280698 0)
(1.00005 0.00254057 0)
(1.00004 0.00229685 0)
(1.00003 0.00207415 0)
(1.00003 0.00187089 0)
(1.00002 0.00168559 0)
(1.00002 0.00151688 0)
(1.00001 0.00136344 0)
(1.00001 0.00122406 0)
(1.00001 0.0010976 0)
(1.00001 0.000983011 0)
(1 0.000879301 0)
(1 0.000785554 0)
(1 0.000700918 0)
(1 0.000624606 0)
(1 0.000555887 0)
(1 0.000494085 0)
(1 0.000438576 0)
(1 0.000388787 0)
(1 0.000344186 0)
(1 0.000304288 0)
(1 0.000268645 0)
(1 0.000236848 0)
(1 0.000208522 0)
(1 0.000183322 0)
(1 0.000160937 0)
(1 0.000141081 0)
(1 0.000123494 0)
(1 0.000107941 0)
(1 9.42049e-05 0)
(1 8.20951e-05 0)
(1 7.14322e-05 0)
(1 6.20635e-05 0)
(1 5.38361e-05 0)
(1 4.66377e-05 0)
(1 4.0327e-05 0)
(1 3.48382e-05 0)
(1 3.00259e-05 0)
(1 2.58758e-05 0)
(1 2.22285e-05 0)
(1 1.91206e-05 0)
(1 1.63727e-05 0)
(1 1.40774e-05 0)
(1 1.20121e-05 0)
(1 1.0358e-05 0)
(1 8.8027e-06 0)
(1 7.65779e-06 0)
(1 6.47957e-06 0)
(1 5.75295e-06 0)
(1 4.83708e-06 0)
(1 4.48002e-06 0)
(1 3.73053e-06 0)
(1.0004 0.00410959 0)
(1.00035 0.00373791 0)
(1.00031 0.00339593 0)
(1.00027 0.00308169 0)
(1.00024 0.00279331 0)
(1.00021 0.00252899 0)
(1.00018 0.00228703 0)
(1.00016 0.00206581 0)
(1.00014 0.00186381 0)
(1.00012 0.00167957 0)
(1.00011 0.00151175 0)
(1.0001 0.00135906 0)
(1.00009 0.00122032 0)
(1.00008 0.00109441 0)
(1.00007 0.000980281 0)
(1.00006 0.000876962 0)
(1.00005 0.000783546 0)
(1.00005 0.000699194 0)
(1.00004 0.000623123 0)
(1.00004 0.000554609 0)
(1.00003 0.000492983 0)
(1.00003 0.000437626 0)
(1.00002 0.000387966 0)
(1.00002 0.000343476 0)
(1.00002 0.000303674 0)
(1.00002 0.000268114 0)
(1.00001 0.000236388 0)
(1.00001 0.000208123 0)
(1.00001 0.000182977 0)
(1.00001 0.000160639 0)
(1.00001 0.000140823 0)
(1.00001 0.00012327 0)
(1.00001 0.000107747 0)
(1.00001 9.40372e-05 0)
(1 8.19501e-05 0)
(1 7.13069e-05 0)
(1 6.19554e-05 0)
(1 5.37428e-05 0)
(1 4.65573e-05 0)
(1 4.02578e-05 0)
(1 3.47786e-05 0)
(1 2.99748e-05 0)
(1 2.58318e-05 0)
(1 2.2191e-05 0)
(1 1.90882e-05 0)
(1 1.63452e-05 0)
(1 1.40536e-05 0)
(1 1.19921e-05 0)
(1 1.03404e-05 0)
(1 8.7882e-06 0)
(1 7.64472e-06 0)
(1 6.46901e-06 0)
(1 5.74311e-06 0)
(1 4.82928e-06 0)
(1 4.47245e-06 0)
(1 3.7245e-06 0)
(1.00066 0.00406624 0)
(1.00058 0.00370015 0)
(1.00052 0.00336303 0)
(1.00046 0.00305299 0)
(1.00041 0.00276826 0)
(1.00037 0.00250712 0)
(1.00033 0.00226791 0)
(1.00029 0.00204908 0)
(1.00026 0.00184916 0)
(1.00023 0.00166674 0)
(1.00021 0.0015005 0)
(1.00018 0.00134919 0)
(1.00016 0.00121166 0)
(1.00014 0.0010868 0)
(1.00013 0.000973596 0)
(1.00011 0.000871086 0)
(1.0001 0.000778382 0)
(1.00009 0.000694654 0)
(1.00008 0.000619132 0)
(1.00007 0.000551101 0)
(1.00006 0.0004899 0)
(1.00006 0.000434916 0)
(1.00005 0.000385586 0)
(1.00004 0.000341387 0)
(1.00004 0.000301841 0)
(1.00003 0.000266506 0)
(1.00003 0.00023498 0)
(1.00003 0.00020689 0)
(1.00002 0.000181898 0)
(1.00002 0.000159696 0)
(1.00002 0.000139999 0)
(1.00002 0.000122552 0)
(1.00001 0.000107121 0)
(1.00001 9.34926e-05 0)
(1.00001 8.14767e-05 0)
(1.00001 7.08959e-05 0)
(1.00001 6.1599e-05 0)
(1.00001 5.34342e-05 0)
(1.00001 4.62903e-05 0)
(1 4.00274e-05 0)
(1 3.45797e-05 0)
(1 2.98036e-05 0)
(1 2.56843e-05 0)
(1 2.20645e-05 0)
(1 1.89793e-05 0)
(1 1.62522e-05 0)
(1 1.39734e-05 0)
(1 1.1924e-05 0)
(1 1.02814e-05 0)
(1 8.73846e-06 0)
(1 7.60107e-06 0)
(1 6.43251e-06 0)
(1 5.71031e-06 0)
(1 4.8021e-06 0)
(1 4.447e-06 0)
(1 3.70355e-06 0)
(1.00092 0.00400479 0)
(1.00082 0.0036459 0)
(1.00074 0.00331511 0)
(1.00066 0.00301066 0)
(1.00059 0.00273085 0)
(1.00053 0.00247404 0)
(1.00047 0.00223865 0)
(1.00042 0.0020232 0)
(1.00038 0.00182625 0)
(1.00034 0.00164646 0)
(1.0003 0.00148255 0)
(1.00027 0.0013333 0)
(1.00024 0.00119759 0)
(1.00022 0.00107435 0)
(1.00019 0.00096257 0)
(1.00017 0.000861328 0)
(1.00015 0.000769749 0)
(1.00014 0.000687019 0)
(1.00012 0.000612383 0)
(1.00011 0.000545139 0)
(1.00009 0.000484636 0)
(1.00008 0.000430272 0)
(1.00007 0.000381491 0)
(1.00007 0.000337779 0)
(1.00006 0.000298665 0)
(1.00005 0.000263714 0)
(1.00004 0.000232526 0)
(1.00004 0.000204737 0)
(1.00003 0.000180011 0)
(1.00003 0.000158043 0)
(1.00003 0.000138554 0)
(1.00002 0.000121289 0)
(1.00002 0.000106019 0)
(1.00002 9.25326e-05 0)
(1.00002 8.06412e-05 0)
(1.00001 7.01699e-05 0)
(1.00001 6.09689e-05 0)
(1.00001 5.28882e-05 0)
(1.00001 4.58177e-05 0)
(1.00001 3.96191e-05 0)
(1.00001 3.42271e-05 0)
(1.00001 2.95e-05 0)
(1 2.54227e-05 0)
(1 2.184e-05 0)
(1 1.87861e-05 0)
(1 1.60871e-05 0)
(1 1.38313e-05 0)
(1 1.1803e-05 0)
(1 1.01768e-05 0)
(1 8.64988e-06 0)
(1 7.52369e-06 0)
(1 6.3674e-06 0)
(1 5.65217e-06 0)
(1 4.75357e-06 0)
(1 4.40181e-06 0)
(1 3.66614e-06 0)
(1.00118 0.00392388 0)
(1.00106 0.00357389 0)
(1.00096 0.00325101 0)
(1.00086 0.00295361 0)
(1.00077 0.00268006 0)
(1.00069 0.00242883 0)
(1.00062 0.00219841 0)
(1.00056 0.00198738 0)
(1.0005 0.00179438 0)
(1.00045 0.0016181 0)
(1.0004 0.00145731 0)
(1.00036 0.00131085 0)
(1.00032 0.00117763 0)
(1.00029 0.0010566 0)
(1.00026 0.000946808 0)
(1.00023 0.000847333 0)
(1.0002 0.000757329 0)
(1.00018 0.000676005 0)
(1.00016 0.000602622 0)
(1.00014 0.000536494 0)
(1.00013 0.000476987 0)
(1.00011 0.00042351 0)
(1.0001 0.000375518 0)
(1.00009 0.000332509 0)
(1.00008 0.00029402 0)
(1.00007 0.000259624 0)
(1.00006 0.000228929 0)
(1.00005 0.000201576 0)
(1.00005 0.000177238 0)
(1.00004 0.000155612 0)
(1.00004 0.000136426 0)
(1.00003 0.00011943 0)
(1.00003 0.000104396 0)
(1.00002 9.11172e-05 0)
(1.00002 7.9409e-05 0)
(1.00002 6.90986e-05 0)
(1.00002 6.00388e-05 0)
(1.00001 5.2082e-05 0)
(1.00001 4.51197e-05 0)
(1.00001 3.90158e-05 0)
(1.00001 3.37062e-05 0)
(1.00001 2.90513e-05 0)
(1.00001 2.5036e-05 0)
(1.00001 2.15081e-05 0)
(1 1.85005e-05 0)
(1 1.58427e-05 0)
(1 1.3621e-05 0)
(1 1.16239e-05 0)
(1 1.00221e-05 0)
(1 8.51871e-06 0)
(1 7.40932e-06 0)
(1 6.27093e-06 0)
(1 5.56625e-06 0)
(1 4.68162e-06 0)
(1 4.33499e-06 0)
(1 3.61067e-06 0)
(1.00145 0.00382221 0)
(1.00131 0.00348289 0)
(1.00118 0.00316959 0)
(1.00106 0.00288076 0)
(1.00096 0.00261491 0)
(1.00086 0.00237058 0)
(1.00077 0.00214634 0)
(1.0007 0.00194085 0)
(1.00063 0.00175282 0)
(1.00056 0.00158099 0)
(1.0005 0.00142419 0)
(1.00045 0.00128131 0)
(1.0004 0.00115129 0)
(1.00036 0.00103314 0)
(1.00032 0.000925912 0)
(1.00029 0.000828741 0)
(1.00026 0.000740799 0)
(1.00023 0.00066132 0)
(1.0002 0.000589587 0)
(1.00018 0.000524936 0)
(1.00016 0.000466746 0)
(1.00014 0.000414446 0)
(1.00013 0.000367505 0)
(1.00011 0.000325432 0)
(1.0001 0.000287776 0)
(1.00009 0.000254122 0)
(1.00008 0.000224086 0)
(1.00007 0.000197319 0)
(1.00006 0.0001735 0)
(1.00005 0.000152335 0)
(1.00005 0.000133557 0)
(1.00004 0.00011692 0)
(1.00003 0.000102204 0)
(1.00003 8.9206e-05 0)
(1.00003 7.77446e-05 0)
(1.00002 6.76513e-05 0)
(1.00002 5.8782e-05 0)
(1.00002 5.09923e-05 0)
(1.00001 4.41761e-05 0)
(1.00001 3.82003e-05 0)
(1.00001 3.30018e-05 0)
(1.00001 2.84444e-05 0)
(1.00001 2.45131e-05 0)