/*--------------------------------*- C++ -*----------------------------------*\
  =========                 |
  \\      /  F ield         | OpenFOAM: The Open Source CFD Toolbox
   \\    /   O peration     | Website:  https://openfoam.org
    \\  /    A nd           | Version:  7
     \\/     M anipulation  |
\*---------------------------------------------------------------------------*/
FoamFile
{
    version     2.0;
    format      ascii;
    class       volScalarField;
    location    "17.5";
    object      p;
}
// * * * * * * * * * * * * * * * * * * * * * * * * * * * * * * * * * * * * * //

dimensions      [1 -1 -2 0 0 0 0];

internalField   nonuniform List<scalar> 
4032
(
1
1
1
1
1
1
1
1
1
1
1
3.10958
9.69277
10.5995
10.7528
10.9505
11.1238
11.2845
11.4307
11.5633
11.6823
11.7802
11.8567
11.914
1
1
1
1
1
1
1
1
1
1
1
3.00142
9.56736
10.5818
10.7392
10.9331
11.1016
11.2572
11.398
11.5241
11.6362
11.7275
11.7971
11.8513
1
1
1
1
1
1
1
1
1
1
1
2.74941
9.36514
10.5512
10.7025
10.8939
11.0583
11.2093
11.3447
11.4641
11.569
11.654
11.7152
11.7677
1
1
1
1
1
1
1
1
1
1
1
2.38075
9.02714
10.5116
10.6498
10.8393
10.9986
11.144
11.2729
11.3838
11.4781
11.5491
11.5885
11.6209
1
1
1
1
1
1
1
1
1
1
1
1.94149
8.53603
10.5057
10.5993
10.7768
10.9226
11.0562
11.1697
11.2589
11.3249
11.374
11.3948
11.4384
1
1
1
1
1
1
1
1
1
1
1
1.49422
7.87789
10.465
10.5064
10.6853
10.82
10.9381
11.0345
11.1061
11.1588
11.1956
11.1869
11.1332
1
1
1
1
1
1
1
1
1
1
1
1.07592
7.04735
10.427
10.4268
10.5621
10.6695
10.7712
10.8479
10.8902
10.8917
10.8283
10.7296
10.6627
1
1
1
1
1
1
1
1
1
1
1
1.00133
5.93669
10.0675
10.2009
10.3574
10.4694
10.5506
10.5987
10.6015
10.5528
10.448
10.2878
10.2441
1
1
1
1
1
1
1
1
1
1
1
0.999998
4.66614
9.70914
10.0896
10.211
10.2913
10.3353
10.3322
10.2873
10.1525
9.87348
9.11848
7.07043
1
1
1
1
1
1
1
1
1
1
1
0.999999
3.36207
9.14092
9.96186
10.0809
10.134
10.1382
10.0831
9.97073
9.7399
9.25907
8.45589
6.3942
1
1
1
1
1
1
1
1
1
1
1
1
2.04921
8.26064
9.96078
9.98761
9.99997
9.95398
9.84793
9.6602
9.36286
8.80145
7.98823
6.0727
1
1
1
1
1
1
1
1
1
1
1
1
1.12754
7.00222
9.98161
9.8445
9.80809
9.74272
9.61301
9.38723
9.04677
8.48903
7.63737
6.16007
1
1
1
1
1
1
1
1
1
1
1
1
1.00137
5.28665
9.46181
9.63478
9.63729
9.55021
9.40175
9.1594
8.79879
8.26878
7.45392
6.32647
1
1
1
1
1
1
1
1
1
1
1
1
0.999982
3.30353
8.82684
9.53477
9.53185
9.4408
9.26654
9.00617
8.63447
8.12211
7.39877
6.56655
1
1
1
1
1
1
1
1
1
1
1
1
0.999996
1.64045
7.91654
9.63656
9.44933
9.31602
9.12537
8.87437
8.5158
8.0407
7.44597
6.85973
1
1
1
1
1
1
1
1
1
1
1
1
0.999999
1.04161
6.27451
9.32408
9.289
9.20735
9.0447
8.7988
8.46286
8.05293
7.5877
7.15159
1
1
1
1
1
1
1
1
1
1
1
1
1
0.999991
4.02233
8.84173
9.26761
9.17827
9.02469
8.79373
8.49921
8.15491
7.77302
7.41844
1
1
1
1
1
1
1
1
1
1
1
1
1
0.999991
1.99099
8.12256
9.41926
9.20499
9.04186
8.82325
8.56817
8.27615
7.95044
7.64585
1
1
1
1
1
1
1
1
1
1
1
1
1
0.999998
1.08932
6.58245
9.3425
9.22466
9.05825
8.90093
8.68539
8.42507
8.1343
7.85904
1
1
1
1
1
1
1
1
1
1
1
1
1
1
1.00045
4.45135
8.97635
9.27093
9.16883
9.02472
8.81679
8.57529
8.30698
8.04902
1
1
1
1
1
1
1
1
1
1
1
1
1
1
0.999996
2.36535
8.51867
9.6949
9.4033
9.18133
8.95869
8.72256
8.4693
8.22744
1
1
1
1
1
1
1
1
1
1
1
1
1
1
0.999999
1.15707
7.41375
9.80485
9.45693
9.27813
9.08305
8.86337
8.62876
8.40055
1
1
1
1
1
1
1
1
1
1
1
1
1
1
1
1.0019
5.86163
9.73863
9.57018
9.41725
9.21491
8.99735
8.77574
8.55877
1
1
1
1
1
1
1
1
1
1
1
1
1
1
1
0.999985
4.27297
9.55872
9.77054
9.56457
9.35238
9.13582
8.92362
8.71284
1
1
1
1
1
1
1
1
1
1
1
1
1
1
1
0.999996
2.91042
9.048
9.87855
9.61857
9.4368
9.24348
9.05083
8.85007
1
1
1
1
1
1
1
1
1
1
1
1
1
1
1
0.999999
1.84955
8.4111
10.1918
9.79907
9.60495
9.40434
9.20681
9.00071
1
1
1
1
1
1
1
1
1
1
1
1
1
1
1
1
1.17472
7.58409
10.2588
9.85031
9.66723
9.48404
9.29794
9.10171
1
1
1
1
1
1
1
1
1
1
1
1
1
1
1
1
1.00422
6.62685
10.2308
9.89455
9.73255
9.56237
9.38396
9.19649
1
1
1
1
1
1
1
1
1
1
1
1
1
1
1
1
1.00001
5.67712
10.0955
9.94799
9.7898
9.62985
9.45973
9.28154
1
1
1
1
1
1
1
1
1
1
1
1
1
1
1
1
1
4.83514
9.90128
10.0315
9.84471
9.69869
9.5317
9.35825
1
1
1
1
1
1
1
1
1
1
1
1
1
1
1
1
1
4.10411
9.67534
10.0735
9.8629
9.73368
9.57344
9.41121
1
1
1
1
1
1
1
1
1
1
1
1
1
1
1
1
1
3.43292
9.46309
10.162
9.92603
9.79905
9.64043
9.4813
1
1
1
1
1
1
1
1
1
1
1
1
1
1
1
1
1
2.88338
9.22427
10.2421
9.9725
9.8373
9.67833
9.52024
1
1
1
1
1
1
1
1
1
1
1
1
1
1
1
1
1
2.47482
8.97165
10.3091
10.0196
9.87794
9.71787
9.55884
1
1
1
1
1
1
1
1
1
1
1
1
1
1
1
1
1
2.16958
8.71997
10.3501
10.0521
9.91033
9.74999
9.59119
1
1
1
1
1
1
1
1
1
1
1
1
1
1
1
1
1
1.90196
8.51532
10.3745
10.0759
9.93628
9.7775
9.61975
1
1
1
1
1
1
1
1
1
1
1
1
1
1
1
1
1
1.73399
8.33113
10.387
10.0935
9.9562
9.799
9.64287
1
1
1
1
1
1
1
1
1
1
1
1
1
1
1
1
1
1.63817
8.18354
10.3809
10.0998
9.96646
9.81157
9.6575
1
1
1
1
1
1
1
1
1
1
1
1
1
1
1
1
1
1.57329
8.07578
10.3766
10.1082
9.9766
9.82353
9.67156
1
1
1
1
1
1
1
1
1
1
1
1
1
1
1
1
1
1.54655
8.01668
10.3615
10.1055
9.97909
9.82842
9.67825
1.97111
2.20897
2.83541
3.39793
3.71129
3.87878
3.94343
3.96338
3.95733
3.94553
3.94206
3.97392
4.03934
4.1225
4.20656
4.27938
4.34949
4.41327
4.45778
4.47896
4.4939
4.51558
4.554
4.60891
4.67456
4.74111
4.80029
4.84959
4.8902
4.92261
4.94491
4.9524
4.94503
4.92831
4.90988
4.89686
4.89276
4.89489
4.89756
4.89578
4.8865
4.86973
4.84611
4.81618
4.77953
4.73383
4.6768
4.61352
4.55483
4.5086
4.47581
4.45077
4.42443
4.39051
4.35157
4.31407
4.28088
4.24911
4.21177
4.16322
4.10546
4.04647
3.9931
3.95043
3.91912
3.89431
3.86787
3.83504
3.79839
3.76448
3.73825
3.71824
3.6931
3.65415
3.60827
3.56088
3.5141
3.47293
3.4384
3.41239
3.39252
3.37137
3.34888
3.32946
3.3178
3.31592
3.31118
3.29904
3.2899
3.28508
3.28884
3.3033
3.32843
3.35691
3.3859
3.4492
3.34734
3.54168
3.51825
3.5925
3.75331
3.82356
3.86916
3.89541
3.91053
3.93898
3.9772
4.02373
4.08911
4.15696
4.20721
4.23602
4.27101
4.31626
4.37255
4.42304
4.45491
4.48111
4.50953
4.54997
4.60663
4.67435
4.74002
4.79179
4.82653
4.84934
4.86857
4.88934
4.90801
4.91737
4.9134
4.89786
4.87981
4.86812
4.86475
4.86397
4.85506
4.8282
4.78849
4.74876
4.7166
4.68865
4.65571
4.61024
4.55496
4.50124
4.45708
4.42531
4.40288
4.37946
4.3446
4.29972
4.25319
4.21058
4.17375
4.13734
4.09502
4.04538
3.99462
3.94907
3.91168
3.88274
3.85877
3.83489
3.80746
3.77613
3.74463
3.7145
3.68267
3.64767
3.61051
3.57306
3.5365
3.50307
3.47482
3.45188
3.43227
3.41077
3.3863
3.36405
3.34823
3.34035
3.33359
3.32219
3.31044
3.29726
3.28514
3.28596
3.29966
3.32502
3.36411
3.44245
4.1511
4.26277
3.74409
3.53917
3.67129
3.75623
3.82881
3.87348
3.91528
3.99873
4.06406
4.05325
4.05603
4.0764
4.12184
4.16757
4.19713
4.22195
4.26644
4.34339
4.4387
4.52069
4.5751
4.61604
4.65617
4.70733
4.76998
4.83155
4.87709
4.89631
4.89387
4.88826
4.89455
4.91253
4.93159
4.93756
4.92365
4.90105
4.88273
4.87358
4.87069
4.85914
4.81961
4.7638
4.70959
4.66457
4.63036
4.60264
4.56741
4.51965
4.46945
4.42479
4.38965
4.36512
4.34478
4.31167
4.26109
4.20459
4.14948
4.09975
4.05619
4.0203
3.98378
3.94319
3.90342
3.86707
3.83466
3.80848
3.78837
3.76886
3.74369
3.70881
3.66851
3.62895
3.59023
3.55221
3.51822
3.48998
3.46771
3.45085
3.43536
3.41968
3.40401
3.3895
3.37808
3.36894
3.36197
3.36059
3.3638
3.36264
3.35803
3.34821
3.34926
3.36
3.38123
3.45216
4.71093
4.9168
4.43003
4.02231
4.03168
4.03442
4.00199
4.01451
4.03182
4.06446
4.12975
4.13108
4.0862
4.0828
4.11633
4.20253
4.28004
4.31576
4.3402
4.37478
4.43206
4.50785
4.5805
4.63278
4.66534
4.69157
4.72675
4.77535
4.82961
4.87358
4.89392
4.89458
4.89215
4.89734
4.91041
4.92401
4.92452
4.90442
4.87608
4.85017
4.83156
4.82234
4.79975
4.75579
4.70463
4.65284
4.61321
4.58523
4.562
4.52711
4.48196
4.43554
4.39281
4.35737
4.32969
4.2993
4.26061
4.21857
4.1698
4.1156
4.0669
4.02893
3.99425
3.95888
3.92286
3.88728
3.85186
3.81916
3.79043
3.76256
3.733
3.70062
3.66783
3.63657
3.60259
3.56445
3.5251
3.48815
3.46103
3.44033
3.4214
3.40483
3.39193
3.38253
3.37045
3.35703
3.34352
3.3385
3.34357
3.35295
3.35835
3.35958
3.3676
3.37705
3.38871
3.43787
5.37504
5.45764
5.03973
4.55774
4.38819
4.28751
4.1691
4.13883
4.15656
4.15178
4.20783
4.25727
4.23765
4.21123
4.22136
4.27231
4.35622
4.39677
4.41357
4.43199
4.46034
4.51238
4.58103
4.64053
4.6782
4.6984
4.71568
4.74222
4.78093
4.82409
4.85755
4.87004
4.86873
4.86443
4.86163
4.8649
4.87336
4.86977
4.84632
4.8186
4.79363
4.77231
4.74091
4.70449
4.66175
4.61657
4.58467
4.55955
4.52805
4.49026
4.44917
4.41062
4.37857
4.34806
4.31455
4.27858
4.23962
4.19582
4.1486
4.10289
4.06136
4.02239
3.98514
3.94731
3.90921
3.87753
3.8509
3.82383
3.79422
3.76181
3.72714
3.69246
3.65998
3.62961
3.59948
3.56929
3.53934
3.50739
3.47114
3.44198
3.4248
3.41119
3.40269
3.39807
3.39105
3.38254
3.37032
3.35172
3.34386
3.34561
3.35059
3.36113
3.37852
3.39644
3.41315
3.44908
5.95931
5.91215
5.47433
5.01447
4.76199
4.65764
4.54145
4.4717
4.44133
4.38798
4.38255
4.41348
4.3857
4.33194
4.31923
4.35442
4.43037
4.48031
4.4885
4.49533
4.5173
4.55745
4.62192
4.6751
4.70187
4.71674
4.72985
4.75052
4.78621
4.8316
4.86843
4.87887
4.87153
4.86353
4.86397
4.87914
4.90661
4.90932
4.88121
4.84427
4.81187
4.78572
4.76724
4.74528
4.71424
4.67767
4.6368
4.59363
4.54643
4.50488
4.47168
4.44717
4.42309
4.38963
4.34728
4.29783
4.24686
4.19805
4.15688
4.12304
4.08932
4.04914
4.00059
3.95103
3.90897
3.87719
3.85106
3.82635
3.80056
3.77137
3.73657
3.69527
3.65064
3.6102
3.57782
3.5522
3.5309
3.50756
3.47444
3.4385
3.41945
3.40689
3.3986
3.39425
3.39174
3.38865
3.38159
3.36827
3.35964
3.36091
3.36823
3.38199
3.4013
3.4241
3.4404
3.46592
6.44731
6.27831
5.79903
5.37553
5.08636
4.95846
4.90669
4.89217
4.85487
4.75438
4.67411
4.64267
4.5778
4.48638
4.43373
4.45243
4.51455
4.56709
4.57446
4.5616
4.57845
4.61329
4.67392
4.71564
4.72766
4.73599
4.7478
4.7663
4.80089
4.84821
4.87653
4.87985
4.872
4.86717
4.87236
4.88978
4.90202
4.88545
4.85175
4.81949
4.79913
4.79072
4.78129
4.75278
4.71366
4.66462
4.61349
4.57139
4.54037
4.51955
4.49707
4.46548
4.42817
4.38404
4.33573
4.28995
4.25033
4.21618
4.18449
4.15041
4.1107
4.05967
4.00332
3.95728
3.92516
3.89926
3.87393
3.84724
3.81847
3.78359
3.73904
3.6876
3.63865
3.60297
3.57997
3.56286
3.54547
3.52195
3.48611
3.44486
3.42029
3.40553
3.39417
3.38807
3.38773
3.39341
3.39785
3.39706
3.39257
3.39421
3.39727
3.40576
3.41819
3.43863
3.45853
3.48099
6.82638
6.55838
6.08102
5.69966
5.4005
5.23927
5.19998
5.22254
5.18334
5.06983
4.98149
4.92469
4.83851
4.71664
4.60653
4.57107
4.59678
4.63676
4.64346
4.62396
4.61751
4.63489
4.67119
4.69507
4.7005
4.70344
4.71132
4.72279
4.74594
4.77865
4.79133
4.7902
4.78085
4.77626
4.78148
4.79602
4.79567
4.77314
4.73899
4.71503
4.7049
4.70761
4.69366
4.65989
4.61359
4.56177
4.52227
4.49369
4.47716
4.45466
4.42212
4.38302
4.33783
4.29294
4.25664
4.22634
4.19487
4.16079
4.12437
4.08358
4.0376
3.99084
3.95113
3.91839
3.889
3.86046
3.83129
3.80095
3.76858
3.73283
3.69407
3.6554
3.6218
3.59505
3.57302
3.55286
3.53069
3.50152
3.46603
3.43267
3.41113
3.39758
3.39038
3.38973
3.3988
3.41591
3.42844
3.42743
3.4242
3.42662
3.42489
3.42966
3.43752
3.45277
3.4762
3.50248
7.13159
6.81876
6.3681
6.02698
5.72441
5.52063
5.47189
5.49507
5.43931
5.30413
5.20099
5.14075
5.06252
4.94006
4.80117
4.7181
4.71134
4.72929
4.72446
4.69492
4.66623
4.66529
4.68274
4.69881
4.69818
4.69058
4.68967
4.69383
4.70686
4.72932
4.73736
4.73349
4.72239
4.71629
4.71995
4.73026
4.72566
4.70457
4.675
4.65474
4.64816
4.64942
4.628
4.592
4.54625
4.5072
4.48017
4.46302
4.44254
4.40841
4.36848
4.32488
4.28221
4.24914
4.22183
4.19412
4.16114
4.12369
4.08226
4.03688
3.99138
3.95535
3.92513
3.89568
3.86509
3.83341
3.80089
3.76748
3.73351
3.7005
3.67136
3.64705
3.62493
3.60191
3.57571
3.54348
3.5058
3.47203
3.44922
3.43626
3.42824
3.42328
3.42164
3.42688
3.43739
3.44283
3.44096
3.44295
3.45695
3.46742
3.46764
3.46862
3.47161
3.47783
3.49472
3.51126
7.37412
7.04937
6.64651
6.34893
6.05713
5.82542
5.76116
5.76365
5.68105
5.51918
5.39584
5.32825
5.25164
5.12821
4.97279
4.86102
4.83223
4.83308
4.81464
4.77462
4.72917
4.71374
4.7199
4.7306
4.72187
4.70586
4.69614
4.69386
4.69999
4.7174
4.72541
4.71921
4.70664
4.69864
4.69976
4.7065
4.70063
4.68029
4.65344
4.63432
4.62741
4.62389
4.59974
4.56157
4.52291
4.49938
4.48715
4.47431
4.44167
4.39858
4.34533
4.3
4.27115
4.24938
4.22882
4.19944
4.16238
4.11721
4.06498
4.01835
3.98712
3.9625
3.93535
3.9049
3.87132
3.83592
3.79986
3.76295
3.72941
3.70578
3.6866
3.66921
3.65051
3.62847
3.59435
3.5439
3.49808
3.47626
3.46685
3.46578
3.47754
3.48975
3.49282
3.49023
3.48405
3.47206
3.4669
3.47958
3.50587
3.52334
3.52503
3.5186
3.50333
3.49599
3.49764
3.50638
7.59117
7.26654
6.91187
6.64954
6.36974
6.12718
6.05002
6.03034
5.92618
5.74287
5.59996
5.52232
5.43834
5.30632
5.13481
5.00328
4.95545
4.9409
4.91063
4.85706
4.79796
4.77515
4.77473
4.7788
4.7609
4.73428
4.71585
4.70809
4.70926
4.72388
4.72881
4.71748
4.70108
4.69051
4.68984
4.69625
4.69184
4.67239
4.64549
4.62461
4.61562
4.60969
4.58584
4.54952
4.52096
4.50827
4.50548
4.48533
4.44983
4.40175
4.34375
4.30956
4.28974
4.27381
4.24858
4.21763
4.17694
4.12145
4.07176
4.04164
4.01803
3.99328
3.9673
3.93657
3.8981
3.85837
3.82209
3.78927
3.75942
3.73674
3.72046
3.70485
3.68169
3.64992
3.60558
3.55492
3.5272
3.51852
3.51615
3.52411
3.54023
3.55166
3.5525
3.54216
3.5233
3.5125
3.51633
3.53185
3.55553
3.56783
3.56268
3.54504
3.51785
3.50297
3.49664
3.50115
7.78565
7.4759
7.16987
6.9377
6.67154
6.42774
6.33488
6.29292
6.1713
5.97434
5.81789
5.72933
5.63487
5.49364
5.30978
5.16627
5.10477
5.07012
5.01908
4.94555
4.87411
4.84783
4.844
4.83613
4.80787
4.76758
4.73447
4.7208
4.71658
4.72221
4.71486
4.69773
4.67637
4.66409
4.66112
4.66618
4.66098
4.64055
4.61205
4.59133
4.58448
4.58317
4.56281
4.529
4.49926
4.48519
4.47801
4.45816
4.42802
4.38694
4.33797
4.30991
4.29202
4.27042
4.24133
4.20495
4.15632
4.11217
4.08231
4.05967
4.03496
4.00477
3.96731
3.92545
3.89734
3.87081
3.84402
3.81577
3.78612
3.75383
3.71817
3.6867
3.66125
3.63385
3.606
3.58308
3.57216
3.56558
3.56291
3.56437
3.56773
3.5717
3.57568
3.56963
3.56183
3.56497
3.57091
3.57771
3.58194
3.58175
3.57301
3.54996
3.52713
3.51416
3.50733
3.50788
7.96802
7.67127
7.40009
7.18673
6.93103
6.69429
6.59094
6.53512
6.4036
6.20205
6.03955
5.94273
5.8386
5.68746
5.49577
5.34724
5.27154
5.21559
5.14341
5.04595
4.96021
4.92853
4.91749
4.89484
4.85564
4.7991
4.7491
4.72684
4.71545
4.70582
4.68857
4.6649
4.63255
4.61406
4.60708
4.6086
4.60142
4.58033
4.5525
4.53419
4.52959
4.53132
4.515
4.48408
4.45065
4.43495
4.42698
4.41169
4.3869
4.34948
4.30657
4.28122
4.26162
4.23646
4.20475
4.16362
4.11316
4.07986
4.05977
4.0398
4.01394
3.98239
3.94127
3.89342
3.86141
3.83999
3.82015
3.80031
3.77653
3.74545
3.70386
3.66095
3.62972
3.61174
3.6037
3.60152
3.60104
3.59664
3.5906
3.58584
3.58592
3.5849
3.58034
3.5834
3.59506
3.60725
3.61229
3.60951
3.59871
3.57981
3.56366
3.55595
3.54632
3.53612
3.52949
3.52668
8.14819
7.86758
7.62178
7.41802
7.16583
6.92966
6.81456
6.7425
6.60143
6.39837
6.23794
6.1382
6.02831
5.87078
5.6767
5.52905
5.44094
5.36516
5.27331
5.15376
5.05372
5.01407
4.99134
4.95465
4.90295
4.82823
4.76191
4.73017
4.7082
4.68521
4.66096
4.62867
4.58491
4.56019
4.54963
4.54611
4.53523
4.51199
4.48072
4.46334
4.46246
4.46973
4.45777
4.42991
4.39543
4.37367
4.36252
4.35098
4.3294
4.29685
4.26565
4.24466
4.22351
4.19676
4.16329
4.11658
4.06563
4.03816
4.02059
4.00393
3.98094
3.9524
3.91165
3.86167
3.82715
3.80714
3.7912
3.77546
3.75625
3.73056
3.68598
3.6361
3.61409
3.60392
3.60072
3.61205
3.61876
3.61834
3.61397
3.60546
3.58985
3.58214
3.58964
3.60639
3.62872
3.64219
3.64195
3.62966
3.6024
3.57985
3.57264
3.57223
3.57582
3.57061
3.56277
3.55374
8.31659
8.05543
7.83014
7.63288
7.38521
7.15819
7.03384
6.94092
6.77867
6.56429
6.40696
6.30833
6.19396
6.03022
5.83272
5.68718
5.58938
5.49761
5.39155
5.25797
5.14461
5.09333
5.05678
5.00953
4.94639
4.85658
4.77897
4.73653
4.70192
4.67073
4.63992
4.59892
4.5464
4.51757
4.50385
4.49508
4.48059
4.45467
4.42012
4.40238
4.40189
4.40695
4.39486
4.37022
4.33712
4.31522
4.30526
4.29582
4.27505
4.24674
4.21879
4.1963
4.17463
4.15006
4.12029
4.08197
4.03828
4.00562
3.98665
3.96781
3.94578
3.92005
3.88698
3.85032
3.81626
3.78768
3.76916
3.7532
3.7367
3.71579
3.68066
3.63928
3.622
3.61443
3.61432
3.62485
3.63508
3.63842
3.63565
3.62239
3.61326
3.61471
3.62292
3.64427
3.67143
3.67753
3.66784
3.64423
3.61462
3.59898
3.5949
3.60391
3.61628
3.61242
3.60253
3.58159
8.4801
8.23751
8.02599
7.8312
7.58777
7.36399
7.23114
7.12258
6.94156
6.72498
6.56966
6.46603
6.34022
6.16478
5.96303
5.82097
5.71651
5.61151
5.49392
5.35379
5.23064
5.16485
5.1152
5.06094
4.99058
4.8927
4.80624
4.75306
4.70978
4.67144
4.63275
4.58349
4.52523
4.49075
4.47116
4.45821
4.44467
4.42186
4.38576
4.36329
4.35823
4.35693
4.34428
4.32075
4.28912
4.27166
4.26533
4.25776
4.24
4.21362
4.17787
4.15209
4.13255
4.11262
4.08975
4.0603
4.02624
3.9951
3.96722
3.94294
3.92012
3.89745
3.87516
3.85174
3.82217
3.792
3.7652
3.74466
3.72905
3.71326
3.69143
3.66744
3.65649
3.65064
3.6491
3.65171
3.65496
3.65663
3.65824
3.66184
3.66566
3.67119
3.6806
3.70009
3.71393
3.70982
3.6898
3.65886
3.64006
3.63511
3.63714
3.64814
3.65126
3.64
3.62007
3.58867
8.63054
8.40779
8.20904
8.01169
7.77491
7.56335
7.42391
7.29895
7.10579
6.89098
6.73929
6.62847
6.48801
6.29602
6.08952
5.95117
5.83949
5.72175
5.59468
5.4491
5.32046
5.23875
5.17047
5.10331
5.02601
4.92807
4.84115
4.78405
4.73525
4.69008
4.64278
4.58373
4.51765
4.47716
4.45045
4.43115
4.41693
4.39818
4.36505
4.33424
4.3232
4.31781
4.30596
4.28206
4.24782
4.23066
4.2267
4.22258
4.20838
4.1847
4.14682
4.11595
4.09744
4.08141
4.06222
4.04187
4.02177
3.99395
3.95875
3.928
3.90427
3.88359
3.86561
3.85019
3.8339
3.81226
3.78229
3.75333
3.73281
3.72002
3.7158
3.71508
3.70702
3.69952
3.69422
3.68954
3.68466
3.6898
3.70481
3.72357
3.73938
3.74568
3.74229
3.73468
3.72881
3.72053
3.70533
3.68656
3.67108
3.65931
3.65039
3.64837
3.64677
3.63503
3.6173
3.58543
8.78568
8.57532
8.38185
8.17631
7.94452
7.74446
7.60354
7.45888
7.25468
7.04741
6.89984
6.77972
6.62147
6.41949
6.22075
6.08843
5.97216
5.8417
5.69181
5.52871
5.40747
5.31766
5.23564
5.15383
5.06711
4.9734
4.88409
4.81894
4.76539
4.71463
4.66152
4.59869
4.52565
4.47345
4.44476
4.42351
4.39906
4.36971
4.33301
4.29857
4.28425
4.27805
4.26786
4.24543
4.20809
4.18522
4.18036
4.1779
4.16668
4.14651
4.11272
4.07969
4.06277
4.05137
4.03851
4.02469
4.0077
3.98289
3.94979
3.91844
3.89603
3.87844
3.8661
3.8552
3.84219
3.82526
3.79944
3.76829
3.75041
3.74235
3.74083
3.74823
3.75323
3.75016
3.74514
3.73585
3.73233
3.74059
3.75817
3.78194
3.79806
3.79968
3.79148
3.77356
3.74555
3.72796
3.7213
3.71201
3.70011
3.68489
3.66623
3.6529
3.64277
3.62924
3.61226
3.58595
8.90081
8.70524
8.51649
8.30973
8.09089
7.9051
7.76368
7.60078
7.38843
7.19156
7.04904
6.92488
6.75464
6.54514
6.3659
6.2383
6.11005
5.96298
5.79346
5.62395
5.51042
5.41811
5.32773
5.234
5.1268
5.01746
4.93828
4.87498
4.81638
4.75813
4.69567
4.62557
4.55074
4.4883
4.4476
4.41516
4.38264
4.34594
4.29789
4.25732
4.24086
4.2323
4.2213
4.2014
4.16678
4.13635
4.12798
4.12399
4.11327
4.09466
4.06612
4.03723
4.02249
4.01278
3.99931
3.98647
3.97162
3.95139
3.92606
3.90227
3.88372
3.8679
3.85459
3.84372
3.83346
3.82201
3.80415
3.7804
3.76916
3.76448
3.76405
3.77161
3.78596
3.79167
3.78768
3.78424
3.78921
3.7967
3.80942
3.83209
3.84738
3.84463
3.82987
3.79508
3.75876
3.74472
3.73917
3.73606
3.72568
3.70971
3.68424
3.65512
3.63502
3.62075
3.61034
3.5926
9.00615
8.81958
8.63199
8.42769
8.22289
8.04976
7.90307
7.72059
7.507
7.32345
7.18735
7.05275
6.8702
6.65797
6.48681
6.35907
6.2259
6.06926
5.88872
5.72384
5.60487
5.50481
5.40938
5.30992
5.19565
5.07573
4.98163
4.90831
4.83905
4.76973
4.69772
4.61948
4.54534
4.48748
4.4422
4.4024
4.3638
4.31947
4.25993
4.21275
4.19278
4.17998
4.16715
4.1485
4.11861
4.08344
4.06738
4.05956
4.04855
4.03016
4.00635
3.98825
3.98073
3.97259
3.95614
3.93584
3.91649
3.89896
3.88577
3.87692
3.86581
3.84915
3.82966
3.81404
3.80358
3.79667
3.78956
3.78165
3.77675
3.77612
3.77849
3.78562
3.79927
3.81476
3.82292
3.83081
3.838
3.84344
3.85043
3.86603
3.87418
3.86455
3.83711
3.79673
3.77405
3.7643
3.7584
3.75199
3.73954
3.72058
3.69045
3.6586
3.63933
3.62733
3.61997
3.60491
9.09876
8.91656
8.72821
8.52869
8.33635
8.17009
8.01018
7.8139
7.60783
7.43717
7.3079
7.1597
6.96189
6.75194
6.59326
6.46716
6.32788
6.16465
5.97778
5.81855
5.69958
5.59136
5.48376
5.36988
5.24498
5.12425
5.02866
4.95034
4.8762
4.80021
4.71759
4.62681
4.54381
4.48159
4.43304
4.39012
4.34704
4.29458
4.22417
4.17123
4.14629
4.1292
4.11398
4.09415
4.06522
4.03066
4.00999
4.00015
3.98803
3.96769
3.9501
3.94287
3.94135
3.93253
3.91582
3.88902
3.86215
3.85258
3.84954
3.84831
3.84089
3.82674
3.80211
3.77877
3.77062
3.76802
3.77132
3.77539
3.77744
3.77979
3.78304
3.79037
3.80517
3.82871
3.85196
3.86611
3.87337
3.87633
3.87469
3.87135
3.86616
3.85225
3.82855
3.80669
3.79488
3.78584
3.77767
3.76766
3.75258
3.72809
3.69775
3.67536
3.66106
3.65024
3.64233
3.62631
9.17891
8.99786
8.81004
8.61802
8.43623
8.27031
8.09482
7.89409
7.70007
7.54023
7.41059
7.2438
7.03472
6.8361
6.68562
6.55856
6.41169
6.23996
6.05044
5.89993
5.77786
5.66037
5.54122
5.41296
5.27619
5.15855
5.06741
4.98595
4.90664
4.82263
4.72761
4.6252
4.53832
4.47483
4.42341
4.37678
4.32845
4.26854
4.1937
4.14181
4.11378
4.09372
4.07299
4.04615
4.01182
3.98166
3.96588
3.95915
3.94678
3.92445
3.90828
3.90485
3.9073
3.90116
3.88654
3.86119
3.8304
3.82132
3.82248
3.82697
3.82064
3.80989
3.78892
3.76639
3.76137
3.7618
3.77199
3.78664
3.7919
3.79487
3.80023
3.81123
3.82758
3.8517
3.88106
3.89679
3.90018
3.89776
3.88414
3.86306
3.85273
3.84859
3.84033
3.82864
3.81753
3.80653
3.79492
3.77956
3.76024
3.73881
3.71878
3.70328
3.69006
3.67745
3.66981
3.65277
9.24241
9.0682
8.88678
8.70323
8.52634
8.35293
8.16568
7.96864
7.78559
7.63217
7.48929
7.30554
7.09803
6.91586
6.76945
6.63675
6.4792
6.29538
6.1106
5.97193
5.84679
5.72041
5.59076
5.44936
5.30558
5.19326
5.10331
5.0177
4.93183
4.84024
4.73735
4.6328
4.54791
4.48193
4.42488
4.37105
4.3151
4.2479
4.17721
4.13092
4.10033
4.07397
4.04383
4.00591
3.96726
3.94545
3.93549
3.93317
3.92139
3.89706
3.87453
3.86873
3.87224
3.87472
3.86623
3.84862
3.82104
3.8063
3.80523
3.81049
3.80897
3.80382
3.7927
3.77686
3.77442
3.7782
3.79103
3.81056
3.82188
3.82807
3.83451
3.84545
3.86072
3.88153
3.90811
3.92235
3.92242
3.91183
3.89162
3.8759
3.86759
3.86159
3.85723
3.85156
3.84279
3.82892
3.80552
3.78187
3.76484
3.75232
3.74273
3.73409
3.72455
3.71257
3.69646
3.66226
9.31374
9.13935
8.95876
8.77814
8.60089
8.42031
8.23018
8.04027
7.86621
7.71359
7.55114
7.35807
7.16196
6.99052
6.85394
6.71082
6.53677
6.33913
6.1742
6.04252
5.91382
5.77952
5.63827
5.48681
5.34486
5.23318
5.13712
5.04555
4.95349
4.85533
4.74921
4.6481
4.56666
4.49799
4.43433
4.37235
4.30646
4.23064
4.16806
4.12816
4.09429
4.06052
4.02066
3.96964
3.93201
3.91443
3.90897
3.90782
3.89419
3.86933
3.83985
3.82941
3.83063
3.83964
3.84029
3.83309
3.81443
3.79365
3.78976
3.79175
3.79808
3.80015
3.7993
3.79456
3.79508
3.80176
3.81446
3.83835
3.862
3.87612
3.8853
3.89257
3.90158
3.91547
3.93514
3.94433
3.94114
3.92585
3.90889
3.89835
3.89229
3.88901
3.8853
3.87608
3.85991
3.83603
3.80886
3.79118
3.779
3.76929
3.76071
3.75193
3.74064
3.72434
3.69894
3.64989
9.35499
9.18483
9.01149
8.8377
8.662
8.47886
8.29046
8.109
7.94288
7.7815
7.59638
7.39287
7.20609
7.06066
6.93487
6.77092
6.58006
6.39122
6.23919
6.10641
5.97274
5.83377
5.68502
5.52844
5.39165
5.27941
5.17595
5.07545
4.97472
4.86917
4.76064
4.66579
4.58909
4.51947
4.45006
4.37745
4.2959
4.2155
4.16556
4.1281
4.09172
4.05205
4.00308
3.93839
3.89571
3.8778
3.87238
3.87006
3.85559
3.83178
3.79839
3.78359
3.78325
3.79428
3.80252
3.80216
3.7943
3.77644
3.76822
3.76979
3.77931
3.79409
3.80235
3.8082
3.81814
3.83096
3.84827
3.87257
3.89924
3.92162
3.93689
3.94648
3.95267
3.95641
3.95981
3.96154
3.95372
3.94219
3.93397
3.92869
3.92208
3.91249
3.89923
3.88237
3.85967
3.83554
3.81707
3.80271
3.79072
3.77994
3.76888
3.75574
3.73901
3.71519
3.68222
3.63359
9.39387
9.22519
9.0544
8.88197
8.70513
8.52331
8.34248
8.16892
8.00107
7.82662
7.63856
7.45156
7.28299
7.1362
6.9901
6.8123
6.61774
6.44354
6.29925
6.16766
6.03011
5.8841
5.72461
5.57002
5.44295
5.3298
5.22071
5.11249
5.00153
4.88627
4.77783
4.68849
4.61203
4.53902
4.46392
4.38112
4.2912
4.21265
4.1575
4.11365
4.07357
4.03273
3.98105
3.91151
3.86125
3.83891
3.82784
3.81934
3.80408
3.78186
3.74884
3.73019
3.72839
3.74032
3.75239
3.75575
3.75429
3.74481
3.73696
3.74135
3.75506
3.78003
3.80051
3.81609
3.83351
3.85305
3.87422
3.89696
3.92139
3.94284
3.95982
3.97391
3.98324
3.98683
3.98133
3.97043
3.96553
3.96219
3.95663
3.94875
3.9382
3.92274
3.90097
3.87742
3.85794
3.84147
3.82704
3.81385
3.80031
3.78571
3.76863
3.74733
3.72173
3.69566
3.67283
3.63711
9.42757
9.2608
9.09161
8.91962
8.74349
8.565
8.38833
8.21519
8.04212
7.86232
7.67749
7.4998
7.33792
7.1931
7.02619
6.83767
6.65279
6.49629
6.35987
6.22172
6.073
5.91248
5.74947
5.61276
5.49496
5.38279
5.27136
5.15355
5.02321
4.89673
4.79814
4.71777
4.64214
4.56612
4.48388
4.38862
4.28751
4.20741
4.15117
4.10298
4.05858
4.01375
3.95759
3.88729
3.83508
3.80624
3.78507
3.76626
3.74795
3.72553
3.69855
3.68276
3.67986
3.68956
3.69568
3.70068
3.70455
3.704
3.70501
3.71596
3.73752
3.76574
3.79064
3.81142
3.83355
3.85935
3.88714
3.91138
3.93437
3.95444
3.97143
3.98474
3.99327
3.99456
3.99023
3.98077
3.97456
3.97223
3.96666
3.95756
3.94542
3.92693
3.9008
3.87953
3.86402
3.85075
3.83797
3.82423
3.8083
3.78735
3.76077
3.73295
3.70929
3.68953
3.67381
3.64555
9.45691
9.29111
9.12263
8.95102
8.77645
8.60077
8.42581
8.25109
8.07412
7.89302
7.71282
7.5422
7.38686
7.22939
7.04571
6.85791
6.68794
6.54038
6.40585
6.25837
6.10331
5.93274
5.77547
5.64807
5.53024
5.41522
5.29887
5.17442
5.03942
4.9136
4.81226
4.72592
4.64556
4.56668
4.48302
4.38824
4.2906
4.21081
4.14817
4.09315
4.04188
3.99083
3.9335
3.86895
3.81827
3.78305
3.75304
3.72748
3.70367
3.67836
3.65957
3.6504
3.64933
3.65205
3.65026
3.65376
3.6647
3.67632
3.68908
3.70769
3.73288
3.75952
3.78357
3.80745
3.83316
3.86096
3.88945
3.92138
3.94552
3.96073
3.97141
3.9812
3.99098
3.99684
3.99679
3.99215
3.98338
3.97661
3.9687
3.95777
3.94414
3.92723
3.90747
3.88817
3.87429
3.86253
3.85012
3.83567
3.81638
3.78848
3.75569
3.72926
3.7104
3.69398
3.68088
3.65614
9.48138
9.31671
9.14892
8.97803
8.80481
8.63047
8.45537
8.2789
8.10028
7.92014
7.74359
7.57807
7.41987
7.24626
7.06018
6.881
6.71894
6.57867
6.43835
6.28478
6.12092
5.94966
5.80157
5.67305
5.55191
5.43342
5.31294
5.18396
5.05061
4.9298
4.82698
4.73564
4.65053
4.56684
4.47897
4.38569
4.29517
4.21703
4.1502
4.08961
4.03186
3.97353
3.91279
3.85563
3.8109
3.77505
3.74254
3.70949
3.67508
3.64857
3.63666
3.63303
3.63548
3.63389
3.63002
3.63188
3.64327
3.66203
3.68695
3.71402
3.73866
3.7609
3.7846
3.80951
3.83697
3.86861
3.90425
3.93805
3.95696
3.96887
3.97784
3.98777
3.99805
4.00597
4.0063
4.0026
3.99175
3.97934
3.9697
3.9584
3.9447
3.92858
3.91263
3.89784
3.8869
3.87737
3.86489
3.84755
3.8239
3.79217
3.75716
3.73083
3.71522
3.70419
3.69635
3.67647
9.49824
9.33555
9.16915
8.99949
8.82738
8.6535
8.47797
8.30088
8.12228
7.9437
7.7699
7.60393
7.43471
7.25572
7.07603
6.9045
6.74999
6.60659
6.45112
6.28961
6.12169
5.96619
5.82778
5.69655
5.56946
5.44419
5.31582
5.18407
5.05854
4.9462
4.8441
4.74767
4.65461
4.56257
4.46792
4.3768
4.29756
4.22692
4.16035
4.09453
4.0256
3.95377
3.89124
3.84631
3.81138
3.77845
3.74391
3.70293
3.65869
3.63611
3.62514
3.62347
3.62675
3.62439
3.61861
3.61924
3.6307
3.65167
3.68497
3.72178
3.75055
3.77374
3.79461
3.81666
3.8445
3.87928
3.91847
3.94965
3.96551
3.97569
3.98305
3.99215
4.00445
4.01507
4.01538
4.01106
3.99855
3.98308
3.97258
3.96157
3.94902
3.9375
3.92639
3.91179
3.89386
3.87612
3.86015
3.84296
3.82181
3.79569
3.76809
3.74589
3.72877
3.71658
3.70641
3.67922
9.51431
9.35319
9.18776
9.01871
8.84674
8.67239
8.4961
8.31838
8.13975
7.96195
7.78694
7.61186
7.42717
7.24551
7.07763
6.92001
6.77177
6.61116
6.44403
6.27709
6.12658
5.9873
5.85165
5.71842
5.58354
5.44554
5.30912
5.18099
5.06512
4.96088
4.86181
4.76225
4.65875
4.55315
4.4543
4.36944
4.29839
4.23383
4.16891
4.09843
4.01846
3.93848
3.88155
3.84375
3.81326
3.78616
3.7536
3.70244
3.6541
3.63499
3.62483
3.62336
3.62204
3.62084
3.61714
3.61654
3.62893
3.65219
3.68909
3.73119
3.76302
3.7889
3.81362
3.83823
3.8642
3.897
3.93836
3.96108
3.9731
3.97937
3.98417
3.9923
4.00324
4.01507
4.01581
4.0107
3.99862
3.987
3.97907
3.97052
3.96123
3.95114
3.93756
3.91785
3.89296
3.86985
3.8514
3.83454
3.81638
3.79838
3.78293
3.76704
3.74944
3.72871
3.70736
3.67469
9.52225
9.36215
9.19745
9.02883
8.8569
8.68235
8.50584
8.32816
8.15077
7.975
7.79869
7.61883
7.4416
7.2687
7.10379
6.94914
6.78009
6.60772
6.43741
6.27945
6.13534
6.0019
5.86749
5.73191
5.59162
5.44264
5.29857
5.17613
5.07167
4.97512
4.88037
4.7796
4.66305
4.53806
4.43653
4.36422
4.30314
4.2443
4.18214
4.10579
4.00581
3.92455
3.8829
3.84962
3.81934
3.7883
3.75086
3.69547
3.64558
3.62621
3.61654
3.61675
3.61929
3.61928
3.62007
3.61949
3.6318
3.65707
3.69661
3.74045
3.77558
3.8045
3.83023
3.85455
3.87909
3.91254
3.95344
3.97337
3.98288
3.98512
3.98657
3.99249
3.99973
4.0115
4.01338
4.00793
3.99684
3.98736
3.98012
3.97161
3.96179
3.95047
3.93552
3.91377
3.88652
3.86187
3.84262
3.8267
3.81375
3.80331
3.79244
3.7784
3.75606
3.72628
3.70197
3.67053
)
;

boundaryField
{
    inlet
    {
        type            fixedValue;
        value           uniform 1;
    }
    outlet
    {
        type            zeroGradient;
    }
    bottom
    {
        type            symmetryPlane;
    }
    top
    {
        type            symmetryPlane;
    }
    obstacle
    {
        type            zeroGradient;
    }
    defaultFaces
    {
        type            empty;
    }
}


// ************************************************************************* //
