/*--------------------------------*- C++ -*----------------------------------*\
  =========                 |
  \\      /  F ield         | OpenFOAM: The Open Source CFD Toolbox
   \\    /   O peration     | Website:  https://openfoam.org
    \\  /    A nd           | Version:  7
     \\/     M anipulation  |
\*---------------------------------------------------------------------------*/
FoamFile
{
    version     2.0;
    format      ascii;
    class       volScalarField;
    location    "17.5";
    object      rho;
}
// * * * * * * * * * * * * * * * * * * * * * * * * * * * * * * * * * * * * * //

dimensions      [1 -3 0 0 0 0 0];

internalField   nonuniform List<scalar> 
4032
(
1.40001
1.40001
1.40001
1.40001
1.40001
1.40001
1.40001
1.40001
1.40001
1.40001
1.40001
2.49855
5.14246
5.45768
5.51154
5.58209
5.64189
5.69364
5.73735
5.77769
5.82027
5.86322
5.90076
5.92622
1.40001
1.40001
1.40001
1.40001
1.40001
1.40001
1.40001
1.40001
1.40001
1.40001
1.40001
2.44307
5.0939
5.4517
5.50733
5.57646
5.63429
5.68399
5.72569
5.76377
5.80403
5.8447
5.87979
5.90418
1.40001
1.40001
1.40001
1.40001
1.40001
1.40001
1.40001
1.40001
1.40001
1.40001
1.40001
2.32219
5.02706
5.44751
5.4984
5.56525
5.62065
5.66793
5.70717
5.74274
5.7807
5.81911
5.85066
5.87421
1.40001
1.40001
1.40001
1.40001
1.40001
1.40001
1.40001
1.40001
1.40001
1.40001
1.40001
2.1451
4.92292
5.45024
5.4899
5.55247
5.60383
5.6475
5.68313
5.71503
5.74955
5.78298
5.80542
5.8213
1.40001
1.40001
1.40001
1.40001
1.40001
1.40001
1.40001
1.40001
1.40001
1.40001
1.40001
1.92133
4.76322
5.47014
5.48723
5.54063
5.58426
5.6216
5.64985
5.67261
5.69656
5.72177
5.73743
5.7583
1.40001
1.40001
1.40001
1.40001
1.40001
1.40001
1.40001
1.40001
1.40001
1.40001
1.40001
1.69003
4.54551
5.46982
5.46698
5.51929
5.55779
5.58805
5.60808
5.62204
5.63907
5.65868
5.66751
5.66053
1.40001
1.40001
1.40001
1.40001
1.40001
1.40001
1.40001
1.40001
1.40001
1.40001
1.40001
1.45294
4.23118
5.44762
5.44216
5.48568
5.5157
5.53963
5.5503
5.5512
5.54651
5.52596
5.50337
5.49476
1.40001
1.40001
1.40001
1.40001
1.40001
1.40001
1.40001
1.40001
1.40001
1.40001
1.40001
1.4011
3.76162
5.29249
5.35462
5.41568
5.45221
5.47045
5.47032
5.45669
5.43097
5.38776
5.32026
5.27558
1.40001
1.40001
1.40001
1.40001
1.40001
1.40001
1.40001
1.40001
1.40001
1.40001
1.40001
1.4
3.21935
5.15378
5.31051
5.3602
5.38944
5.39812
5.38429
5.35392
5.29282
5.17913
4.86585
3.90696
1.40001
1.40001
1.40001
1.40001
1.40001
1.40001
1.40001
1.40001
1.40001
1.40001
1.40001
1.4
2.64762
4.98985
5.28075
5.31867
5.33456
5.33019
5.30243
5.2487
5.14894
4.9533
4.61761
3.69981
1.40001
1.40001
1.40001
1.40001
1.40001
1.40001
1.40001
1.40001
1.40001
1.40001
1.40001
1.4
2.02662
4.7675
5.32463
5.30564
5.29701
5.27242
5.22349
5.14183
5.0163
4.78585
4.44915
3.63577
1.40001
1.40001
1.40001
1.40001
1.40001
1.40001
1.40001
1.40001
1.40001
1.40001
1.40001
1.40001
1.50182
4.29774
5.35351
5.28265
5.2498
5.21017
5.148
5.04895
4.90523
4.67407
4.32112
3.69216
1.40001
1.40001
1.40001
1.40001
1.40001
1.40001
1.40001
1.40001
1.40001
1.40001
1.40001
1.40001
1.40115
3.53457
5.15664
5.22277
5.2074
5.16106
5.08785
4.9779
4.82236
4.59899
4.25852
3.77944
1.40001
1.40001
1.40001
1.40001
1.40001
1.40001
1.40001
1.40001
1.40001
1.40001
1.40001
1.40001
1.39999
2.65378
4.95897
5.21122
5.19038
5.14375
5.06029
4.94096
4.77731
4.55775
4.25331
3.89612
1.40001
1.40001
1.40001
1.40001
1.40001
1.40001
1.40001
1.40001
1.40001
1.40001
1.40001
1.40001
1.4
1.82505
4.70895
5.27168
5.1851
5.11854
5.0291
4.91425
4.75518
4.5491
4.29098
4.03489
1.40001
1.40001
1.40001
1.40001
1.40001
1.40001
1.40001
1.40001
1.40001
1.40001
1.40001
1.40001
1.4
1.43408
3.98474
5.14555
5.13237
5.09399
5.02009
4.9105
4.76197
4.57992
4.37181
4.17674
1.40001
1.40001
1.40001
1.40001
1.40001
1.40001
1.40001
1.40001
1.40001
1.40001
1.40001
1.40001
1.40001
1.39996
2.99498
4.97246
5.13734
5.09884
5.03094
4.92941
4.79899
4.64502
4.47388
4.31281
1.40001
1.40001
1.40001
1.40001
1.40001
1.40001
1.40001
1.40001
1.40001
1.40001
1.40001
1.40001
1.40001
1.39999
2.02501
4.79377
5.21582
5.12501
5.05275
4.95758
4.84559
4.71589
4.57083
4.43276
1.40001
1.40001
1.40001
1.40001
1.40001
1.40001
1.40001
1.40001
1.40001
1.40001
1.40001
1.40001
1.40001
1.4
1.47255
4.13617
5.18051
5.13414
5.06627
4.99858
4.90622
4.79401
4.66687
4.54389
1.40001
1.40001
1.40001
1.40001
1.40001
1.40001
1.40001
1.40001
1.40001
1.40001
1.40001
1.40001
1.40001
1.4
1.40036
3.19264
5.03024
5.15636
5.1163
5.0573
4.97045
4.86841
4.75356
4.64095
1.40001
1.40001
1.40001
1.40001
1.40001
1.40001
1.40001
1.40001
1.40001
1.40001
1.40001
1.40001
1.40001
1.40001
1.4
2.2188
4.93149
5.33756
5.21943
5.12809
5.03622
4.93815
4.83188
4.72869
1.40001
1.40001
1.40001
1.40001
1.40001
1.40001
1.40001
1.40001
1.40001
1.40001
1.40001
1.40001
1.40001
1.40001
1.4
1.5245
4.49827
5.3749
5.23598
5.16498
5.08751
4.99914
4.90328
4.80852
1.40001
1.40001
1.40001
1.40001
1.40001
1.40001
1.40001
1.40001
1.40001
1.40001
1.40001
1.40001
1.40001
1.40001
1.4
1.40161
3.79232
5.30707
5.25298
5.2033
5.13009
5.04734
4.96049
4.87371
1.40001
1.40001
1.40001
1.40001
1.40001
1.40001
1.40001
1.40001
1.40001
1.40001
1.40001
1.40001
1.40001
1.40001
1.40001
1.39999
3.07473
5.18515
5.30667
5.23794
5.16514
5.08724
5.00807
4.92733
1.40001
1.40001
1.40001
1.40001
1.40001
1.40001
1.40001
1.40001
1.40001
1.40001
1.40001
1.40001
1.40001
1.40001
1.40001
1.4
2.44099
4.99305
5.33907
5.24391
5.18113
5.11243
5.0422
4.96727
1.40001
1.40001
1.40001
1.40001
1.40001
1.40001
1.40001
1.40001
1.40001
1.40001
1.40001
1.40001
1.40001
1.40001
1.40001
1.4
1.91027
4.81116
5.45265
5.30256
5.23197
5.15893
5.08649
5.00984
1.40001
1.40001
1.40001
1.40001
1.40001
1.40001
1.40001
1.40001
1.40001
1.40001
1.40001
1.40001
1.40001
1.40001
1.40001
1.4
1.51594
4.49346
5.45684
5.30221
5.2358
5.16954
5.10202
5.02973
1.40001
1.40001
1.40001
1.40001
1.40001
1.40001
1.40001
1.40001
1.40001
1.40001
1.40001
1.40001
1.40001
1.40001
1.40001
1.40001
1.40321
4.07927
5.41291
5.28947
5.23326
5.17355
5.11026
5.04246
1.40001
1.40001
1.40001
1.40001
1.40001
1.40001
1.40001
1.40001
1.40001
1.40001
1.40001
1.40001
1.40001
1.40001
1.40001
1.40001
1.40001
3.66483
5.32803
5.27745
5.22376
5.16931
5.11016
5.04716
1.40001
1.40001
1.40001
1.40001
1.40001
1.40001
1.40001
1.40001
1.40001
1.40001
1.40001
1.40001
1.40001
1.40001
1.40001
1.40001
1.40001
3.30396
5.24267
5.29591
5.22762
5.17585
5.11605
5.05361
1.40001
1.40001
1.40001
1.40001
1.40001
1.40001
1.40001
1.40001
1.40001
1.40001
1.40001
1.40001
1.40001
1.40001
1.40001
1.40001
1.40001
2.98974
5.17935
5.3149
5.23552
5.1862
5.12504
5.06326
1.40001
1.40001
1.40001
1.40001
1.40001
1.40001
1.40001
1.40001
1.40001
1.40001
1.40001
1.40001
1.40001
1.40001
1.40001
1.40001
1.40001
2.68586
5.13412
5.35965
5.26871
5.21776
5.15469
5.09182
1.40001
1.40001
1.40001
1.40001
1.40001
1.40001
1.40001
1.40001
1.40001
1.40001
1.40001
1.40001
1.40001
1.40001
1.40001
1.40001
1.40001
2.419
5.06005
5.40268
5.29799
5.24233
5.17832
5.11527
1.40001
1.40001
1.40001
1.40001
1.40001
1.40001
1.40001
1.40001
1.40001
1.40001
1.40001
1.40001
1.40001
1.40001
1.40001
1.40001
1.40001
2.20742
4.95841
5.43108
5.32058
5.26394
5.20041
5.13735
1.40001
1.40001
1.40001
1.40001
1.40001
1.40001
1.40001
1.40001
1.40001
1.40001
1.40001
1.40001
1.40001
1.40001
1.40001
1.40001
1.40001
2.04511
4.85619
5.44019
5.3287
5.27524
5.21374
5.15208
1.40001
1.40001
1.40001
1.40001
1.40001
1.40001
1.40001
1.40001
1.40001
1.40001
1.40001
1.40001
1.40001
1.40001
1.40001
1.40001
1.40001
1.90514
4.78324
5.44181
5.32981
5.27792
5.21833
5.15853
1.40001
1.40001
1.40001
1.40001
1.40001
1.40001
1.40001
1.40001
1.40001
1.40001
1.40001
1.40001
1.40001
1.40001
1.40001
1.40001
1.40001
1.81258
4.71118
5.43887
5.32861
5.27718
5.21815
5.15933
1.40001
1.40001
1.40001
1.40001
1.40001
1.40001
1.40001
1.40001
1.40001
1.40001
1.40001
1.40001
1.40001
1.40001
1.40001
1.40001
1.40001
1.7584
4.65081
5.43017
5.32471
5.27464
5.21632
5.15813
1.40001
1.40001
1.40001
1.40001
1.40001
1.40001
1.40001
1.40001
1.40001
1.40001
1.40001
1.40001
1.40001
1.40001
1.40001
1.40001
1.40001
1.72311
4.60989
5.42509
5.32452
5.27504
5.21734
5.1599
1.40001
1.40001
1.40001
1.40001
1.40001
1.40001
1.40001
1.40001
1.40001
1.40001
1.40001
1.40001
1.40001
1.40001
1.40001
1.40001
1.40001
1.7076
4.58572
5.4182
5.32246
5.275
5.21827
5.16156
1.49077
1.52549
1.73485
1.95955
2.08737
2.15064
2.16802
2.16799
2.15875
2.14693
2.13932
2.14619
2.16709
2.19736
2.22917
2.25684
2.28398
2.30968
2.32853
2.33846
2.34648
2.35708
2.37401
2.39757
2.42573
2.45455
2.48065
2.50291
2.52186
2.53775
2.54984
2.55652
2.5579
2.55612
2.55353
2.55283
2.55524
2.55976
2.56414
2.56667
2.56648
2.56343
2.55735
2.54862
2.53724
2.52251
2.50351
2.48206
2.46226
2.44721
2.4373
2.4303
2.42275
2.4123
2.39998
2.38836
2.37844
2.3689
2.35692
2.34036
2.32004
2.29914
2.2804
2.2659
2.25594
2.24853
2.24039
2.22949
2.21677
2.20502
2.19644
2.19051
2.1824
2.16822
2.15073
2.13229
2.11389
2.09781
2.08453
2.07487
2.06773
2.05986
2.05123
2.04387
2.03997
2.04025
2.03923
2.0346
2.03121
2.03039
2.03254
2.0395
2.05108
2.06423
2.07752
2.10655
2.22317
2.20704
2.08883
2.07145
2.11847
2.13936
2.14817
2.14913
2.14685
2.15028
2.15843
2.17077
2.19207
2.21608
2.23507
2.24718
2.26176
2.28065
2.30439
2.32595
2.34061
2.35388
2.36848
2.38802
2.41407
2.44464
2.47466
2.49942
2.51758
2.5312
2.54354
2.55633
2.56816
2.57629
2.57916
2.57767
2.57506
2.57456
2.57696
2.58018
2.58021
2.57335
2.56101
2.54854
2.53894
2.53082
2.52057
2.50531
2.48613
2.4675
2.45258
2.44249
2.43598
2.42908
2.41773
2.4025
2.38667
2.37236
2.36019
2.348
2.33328
2.31555
2.29737
2.28131
2.26854
2.25919
2.2518
2.24433
2.23523
2.2244
2.21345
2.20309
2.19193
2.17915
2.16508
2.15057
2.13622
2.12314
2.1123
2.10376
2.09663
2.08856
2.07904
2.07036
2.06445
2.06195
2.05987
2.05553
2.05092
2.04593
2.04127
2.04188
2.04846
2.06033
2.07824
2.11406
2.69433
2.67042
2.35955
2.17667
2.17598
2.17044
2.17484
2.17633
2.18038
2.20261
2.22005
2.21049
2.20809
2.2138
2.23129
2.25071
2.2646
2.27739
2.29894
2.33372
2.37572
2.41346
2.44152
2.46493
2.48882
2.51712
2.55
2.58238
2.60817
2.62386
2.63089
2.63588
2.64464
2.65728
2.6698
2.67655
2.67548
2.67104
2.66792
2.66817
2.67071
2.66973
2.65735
2.63775
2.61851
2.60254
2.5904
2.58061
2.56777
2.54986
2.53089
2.51404
2.50089
2.492
2.48488
2.47273
2.45356
2.43197
2.41078
2.39152
2.37467
2.36106
2.34732
2.33196
2.31699
2.30347
2.2916
2.28236
2.27569
2.26931
2.26051
2.24741
2.23171
2.21601
2.20034
2.18466
2.17051
2.15876
2.14967
2.14307
2.13714
2.13114
2.12506
2.11935
2.11489
2.11133
2.10861
2.10832
2.10999
2.10983
2.10835
2.1047
2.10555
2.11103
2.1214
2.15475
3.00684
3.05831
2.80817
2.54411
2.49529
2.43522
2.37247
2.34248
2.32443
2.31923
2.32948
2.32314
2.30087
2.29803
2.31117
2.34771
2.38287
2.40243
2.41856
2.44084
2.47326
2.51325
2.55242
2.58404
2.60944
2.63246
2.65831
2.68927
2.72248
2.75113
2.76943
2.77865
2.78521
2.79371
2.80485
2.81543
2.81955
2.81544
2.80739
2.79987
2.79534
2.79479
2.78858
2.77204
2.75154
2.73034
2.71388
2.70218
2.69254
2.67807
2.65917
2.63942
2.6209
2.6053
2.59303
2.57974
2.56313
2.54524
2.52443
2.50107
2.4799
2.46329
2.44815
2.43285
2.41749
2.40254
2.38782
2.37443
2.36286
2.35168
2.33968
2.32621
2.31231
2.2989
2.28411
2.26722
2.2495
2.23266
2.22026
2.21086
2.20231
2.19484
2.18907
2.18486
2.17932
2.17307
2.16664
2.16414
2.16645
2.17091
2.17395
2.17536
2.17957
2.18464
2.1909
2.21521
3.34172
3.35672
3.16066
2.91488
2.79807
2.71236
2.6175
2.56651
2.54104
2.51267
2.51447
2.52119
2.50683
2.49211
2.49651
2.51992
2.55966
2.58235
2.59505
2.61107
2.63306
2.66519
2.70483
2.74047
2.76814
2.78941
2.80815
2.82972
2.8565
2.88518
2.90914
2.9233
2.93037
2.93465
2.9385
2.94427
2.95139
2.95248
2.94541
2.93537
2.92614
2.91864
2.90671
2.89179
2.87335
2.85339
2.83901
2.82749
2.81317
2.79613
2.77751
2.75977
2.74469
2.73005
2.71377
2.69623
2.67753
2.65703
2.63528
2.61411
2.59448
2.57565
2.55747
2.53914
2.52096
2.50607
2.4938
2.48154
2.46822
2.45352
2.43753
2.42126
2.40588
2.39153
2.37736
2.36307
2.34866
2.33311
2.31542
2.30107
2.29243
2.28548
2.28098
2.27836
2.27458
2.27009
2.2639
2.25469
2.25074
2.25163
2.25419
2.25962
2.26851
2.2778
2.28654
2.30506
3.62552
3.59206
3.3895
3.17759
3.0457
2.97598
2.90194
2.84889
2.81185
2.76588
2.74666
2.74822
2.72937
2.6984
2.69318
2.70988
2.74539
2.77097
2.7777
2.78538
2.80186
2.82792
2.86501
2.89613
2.91539
2.93097
2.94534
2.96177
2.98472
3.0125
3.03595
3.04702
3.05011
3.05137
3.05448
3.06362
3.0778
3.08016
3.06995
3.05502
3.04136
3.03027
3.02247
3.01298
2.99905
2.98252
2.96417
2.94476
2.92332
2.90422
2.88855
2.8767
2.86506
2.84911
2.82891
2.80507
2.78049
2.75716
2.73763
2.7214
2.70489
2.68495
2.66076
2.63622
2.61536
2.59952
2.58657
2.57453
2.56211
2.548
2.53098
2.51055
2.48831
2.46804
2.45178
2.43888
2.42803
2.41604
2.39918
2.38102
2.37119
2.36448
2.35968
2.35678
2.35498
2.35301
2.34927
2.34258
2.33841
2.33912
2.34288
2.34987
2.35983
2.37174
2.38053
2.39443
3.8519
3.7718
3.55536
3.36237
3.23071
3.1598
3.12637
3.10947
3.07934
3.02059
2.97602
2.95722
2.9221
2.87509
2.85266
2.86245
2.89181
2.91721
2.92201
2.91886
2.92934
2.95082
2.98437
3.00808
3.01735
3.02595
3.03664
3.04976
3.07034
3.09613
3.11329
3.11867
3.11965
3.12052
3.12453
3.13401
3.1402
3.13373
3.12002
3.10619
3.09715
3.09352
3.08963
3.0771
3.05939
3.03689
3.0136
2.99458
2.98035
2.97067
2.96015
2.94537
2.92785
2.9071
2.88445
2.86278
2.84387
2.82744
2.81219
2.79582
2.77676
2.7521
2.72463
2.70198
2.68592
2.67277
2.65991
2.64654
2.63239
2.61548
2.59392
2.56871
2.54413
2.52561
2.51327
2.50401
2.49474
2.48237
2.46395
2.44318
2.43101
2.42356
2.41731
2.4133
2.41276
2.41525
2.41763
2.41748
2.41566
2.41666
2.41847
2.42301
2.42968
2.44064
2.45149
2.46407
4.02942
3.90809
3.69568
3.52217
3.3871
3.3108
3.28974
3.29746
3.27587
3.21624
3.17061
3.14212
3.09953
3.04021
2.98869
2.97411
2.98679
3.00652
3.01062
3.00391
3.00309
3.01378
3.03454
3.04858
3.05354
3.05796
3.06475
3.07328
3.08746
3.10544
3.11346
3.11525
3.11387
3.11353
3.11708
3.12498
3.12529
3.11613
3.10155
3.09087
3.08616
3.08759
3.08178
3.06696
3.04586
3.02183
3.00347
2.99018
2.98274
2.9723
2.95702
2.93884
2.91773
2.89647
2.87932
2.86542
2.85084
2.83456
2.81694
2.79724
2.7751
2.75264
2.73383
2.71818
2.70381
2.6896
2.67496
2.65976
2.64376
2.62647
2.60801
2.58961
2.57315
2.55932
2.54734
2.53625
2.52428
2.50886
2.49033
2.47342
2.46311
2.45695
2.4532
2.45267
2.4571
2.46584
2.47261
2.47236
2.47089
2.47244
2.472
2.47484
2.47948
2.48815
2.50106
2.51539
4.18039
4.03852
3.83788
3.68307
3.54484
3.45126
3.42849
3.43864
3.41328
3.35087
3.30269
3.27389
3.23638
3.17791
3.11192
3.07339
3.07063
3.07948
3.0781
3.06633
3.05516
3.056
3.06639
3.07612
3.07786
3.0776
3.0793
3.08335
3.09204
3.10523
3.11033
3.10993
3.10669
3.10507
3.10758
3.11338
3.11166
3.10285
3.09008
3.0812
3.07848
3.07961
3.07052
3.05433
3.03287
3.01454
3.00213
2.99461
2.98554
2.9696
2.95068
2.92989
2.90948
2.89382
2.8812
2.86882
2.85383
2.83623
2.81631
2.79409
2.77168
2.75445
2.74051
2.72684
2.71227
2.6969
2.68085
2.6642
2.64722
2.63104
2.61735
2.60638
2.59626
2.58496
2.5713
2.55411
2.5339
2.51578
2.50357
2.49674
2.49299
2.49166
2.49182
2.49519
2.50109
2.50402
2.50298
2.50389
2.51088
2.51707
2.51782
2.51911
2.52153
2.52577
2.53542
2.54446
4.3077
4.16047
3.97991
3.84414
3.71068
3.6043
3.57284
3.57268
3.53508
3.46309
3.40792
3.3768
3.34112
3.28384
3.21215
3.16052
3.14713
3.14785
3.14008
3.12264
3.10275
3.09681
3.10083
3.10746
3.10536
3.10085
3.09865
3.09898
3.1034
3.11395
3.11893
3.11716
3.11264
3.10996
3.1111
3.11522
3.11313
3.1048
3.09318
3.08478
3.08213
3.0813
3.07098
3.05353
3.03527
3.02441
3.01932
3.01419
2.99921
2.97862
2.95293
2.931
2.91723
2.90722
2.89813
2.88491
2.86779
2.84628
2.82074
2.79769
2.78255
2.77125
2.75903
2.74499
2.72891
2.71173
2.69396
2.67547
2.65865
2.64731
2.63872
2.63115
2.62283
2.61241
2.59507
2.56841
2.54339
2.53135
2.52649
2.52607
2.53272
2.54028
2.54304
2.54296
2.54009
2.53346
2.53062
2.5372
2.55128
2.56128
2.56262
2.56033
2.55376
2.55105
2.55237
2.55768
4.42269
4.27693
4.11777
3.99766
3.87023
3.75936
3.72053
3.70891
3.66018
3.57772
3.5132
3.47728
3.43837
3.37791
3.29972
3.23975
3.2184
3.21271
3.19988
3.17619
3.1497
3.1401
3.14067
3.1437
3.13733
3.12718
3.12059
3.1185
3.12002
3.12866
3.13186
3.12767
3.12118
3.11741
3.11773
3.12173
3.12054
3.11282
3.10123
3.09205
3.08844
3.08644
3.07626
3.05968
3.04633
3.04074
3.04012
3.03134
3.01481
2.99178
2.96363
2.94705
2.93761
2.9303
2.91874
2.9046
2.88563
2.85895
2.83465
2.81998
2.80878
2.79713
2.78496
2.77047
2.75219
2.73316
2.71549
2.69918
2.68426
2.67308
2.66535
2.65827
2.64754
2.6323
2.60993
2.58316
2.56791
2.56302
2.56184
2.56625
2.5754
2.58245
2.58375
2.5793
2.56966
2.56393
2.56606
2.57459
2.58763
2.59466
2.59241
2.58447
2.57179
2.5652
2.56251
2.56561
4.52453
4.38747
4.25082
4.14493
4.02455
3.91378
3.86791
3.84582
3.78874
3.69905
3.62727
3.58564
3.54156
3.47683
3.39309
3.32779
3.30022
3.28529
3.26308
3.23049
3.19853
3.18723
3.18628
3.18382
3.17221
3.15491
3.14081
3.13582
3.13495
3.13853
3.13597
3.12882
3.11968
3.11522
3.11482
3.11822
3.11683
3.10851
3.096
3.08697
3.08437
3.08448
3.07597
3.06071
3.04676
3.04034
3.03741
3.02847
3.01428
2.99466
2.97102
2.95741
2.94873
2.93839
2.92464
2.90747
2.88427
2.86308
2.84864
2.83773
2.82585
2.81127
2.79295
2.77254
2.75938
2.74677
2.73373
2.7197
2.7048
2.68842
2.67037
2.65495
2.64285
2.6297
2.61578
2.60369
2.59795
2.59433
2.5927
2.59376
2.59618
2.59917
2.60218
2.5999
2.59662
2.59867
2.6022
2.60595
2.60876
2.60906
2.60546
2.5946
2.58383
2.5779
2.57489
2.57606
4.6168
4.48791
4.36832
4.27236
4.15803
4.05125
4.00142
3.97326
3.91192
3.81993
3.74505
3.69941
3.6508
3.58155
3.49432
3.42669
3.39231
3.3672
3.33484
3.2908
3.25206
3.23821
3.23392
3.22438
3.20723
3.18184
3.15929
3.14974
3.14517
3.14135
3.1339
3.12327
3.10849
3.10068
3.09858
3.10039
3.09814
3.08911
3.07667
3.06876
3.06705
3.06838
3.06149
3.04748
3.03173
3.02452
3.02103
3.01396
3.00214
2.98407
2.96322
2.95101
2.9416
2.92935
2.91377
2.89363
2.86911
2.85309
2.84334
2.83361
2.82091
2.80535
2.78503
2.7615
2.74584
2.7352
2.72519
2.71513
2.70311
2.68745
2.66643
2.64488
2.62957
2.62103
2.61744
2.61659
2.61631
2.61385
2.61062
2.60868
2.60974
2.61032
2.60915
2.61182
2.61922
2.6261
2.62892
2.62755
2.6223
2.6131
2.60599
2.60336
2.59949
2.59489
2.59181
2.59093
4.70247
4.58318
4.47682
4.38716
4.27627
4.17117
4.11735
4.0826
4.01766
3.92545
3.8518
3.80511
3.75417
3.6823
3.59427
3.5271
3.48686
3.45234
3.4105
3.35572
3.30985
3.29194
3.28184
3.26534
3.24184
3.20732
3.17645
3.16187
3.15189
3.14141
3.1303
3.1153
3.09476
3.08349
3.07908
3.0781
3.0737
3.06343
3.04928
3.04142
3.04109
3.04485
3.03932
3.02605
3.00944
2.99911
2.9939
2.98843
2.97796
2.96192
2.94654
2.93636
2.92602
2.91264
2.89571
2.87225
2.84713
2.83391
2.82545
2.81715
2.80536
2.79057
2.76969
2.74457
2.72745
2.71768
2.70983
2.7019
2.69216
2.67922
2.65686
2.63206
2.62161
2.61709
2.61589
2.62238
2.62621
2.62617
2.62428
2.62066
2.61378
2.61099
2.61624
2.6269
2.63925
2.64644
2.64652
2.6407
2.62722
2.61641
2.61395
2.61484
2.61769
2.61569
2.61216
2.60771
4.77513
4.66703
4.57214
4.48785
4.38125
4.28199
4.22578
4.1831
4.1101
4.01403
3.94257
3.89698
3.84454
3.77034
3.68109
3.61501
3.57031
3.5283
3.4797
3.41811
3.36556
3.34182
3.32489
3.30284
3.27311
3.23056
3.1938
3.17373
3.15735
3.1426
3.12818
3.10887
3.08377
3.06971
3.06274
3.05828
3.05132
3.03933
3.02331
3.01484
3.01448
3.01675
3.01054
2.99799
2.98145
2.97057
2.96553
2.96071
2.9503
2.93627
2.92249
2.91124
2.90025
2.88777
2.87276
2.85362
2.83182
2.8154
2.80575
2.7961
2.78475
2.77154
2.75471
2.73618
2.71897
2.70451
2.69521
2.68721
2.67905
2.66886
2.65166
2.63128
2.62321
2.61991
2.62008
2.62614
2.63233
2.63478
2.63432
2.62872
2.62509
2.62672
2.63263
2.64515
2.65943
2.66283
2.65852
2.64757
2.63333
2.62599
2.62428
2.62941
2.63641
2.63495
2.63041
2.61986
4.83598
4.73883
4.6528
4.57246
4.47042
4.37498
4.31721
4.26953
4.19019
4.09473
4.02542
3.97862
3.92198
3.84317
3.75236
3.688
3.64033
3.59226
3.53831
3.47359
3.4162
3.38534
3.36193
3.33615
3.30252
3.25558
3.21398
3.18818
3.167
3.14815
3.12922
3.1053
3.07676
3.05915
3.0487
3.0415
3.03418
3.02275
3.00516
2.99371
2.99079
2.98972
2.98288
2.97073
2.95454
2.94527
2.94163
2.93741
2.92822
2.91502
2.89726
2.8842
2.87425
2.86427
2.853
2.83841
2.82111
2.80497
2.79046
2.77795
2.76639
2.75507
2.74396
2.73202
2.71679
2.70125
2.68754
2.67716
2.66936
2.66168
2.65106
2.63927
2.63434
2.63193
2.63184
2.63389
2.63666
2.63872
2.64063
2.64355
2.64653
2.65032
2.656
2.66671
2.6745
2.67299
2.66409
2.64944
2.64035
2.63818
2.63951
2.6459
2.64798
2.64302
2.63319
2.61713
4.88349
4.79701
4.71892
4.64017
4.54368
4.45618
4.39798
4.34533
4.26283
4.16998
4.10379
4.05508
3.99314
3.908
3.81576
3.75341
3.7027
3.64892
3.59051
3.52325
3.46341
3.42492
3.3925
3.36051
3.32371
3.27674
3.23428
3.20587
3.18142
3.15862
3.13471
3.10504
3.07174
3.05104
3.03711
3.02645
3.01814
3.00768
2.99023
2.97378
2.96738
2.96406
2.95755
2.94517
2.92737
2.91787
2.91531
2.9127
2.90503
2.89282
2.87385
2.85851
2.84927
2.84125
2.83162
2.82117
2.81061
2.79614
2.77809
2.76235
2.75019
2.73949
2.72993
2.72157
2.71287
2.70174
2.68663
2.67204
2.66159
2.65506
2.65318
2.65338
2.65009
2.64725
2.64548
2.644
2.64238
2.64581
2.65486
2.66559
2.67482
2.67868
2.67725
2.67399
2.67201
2.66888
2.66223
2.6535
2.64615
2.64057
2.63661
2.63624
2.63606
2.63057
2.62157
2.6052
4.92874
4.84854
4.77413
4.69379
4.60145
4.52097
4.46413
4.405
4.31979
4.23211
4.16924
4.1177
4.04908
3.96054
3.87268
3.81364
3.76128
3.70204
3.63343
3.55835
3.50208
3.4598
3.42071
3.38149
3.33997
3.29519
3.252
3.21949
3.19227
3.16631
3.13904
3.10686
3.06995
3.04362
3.02866
3.01703
3.00347
2.98707
2.96687
2.94816
2.93968
2.9356
2.92959
2.91755
2.89799
2.88555
2.88256
2.88081
2.87456
2.86414
2.84727
2.83091
2.82249
2.81669
2.81009
2.80287
2.79386
2.78072
2.76357
2.74745
2.73571
2.7262
2.7192
2.713
2.70592
2.69696
2.68364
2.66776
2.65876
2.65485
2.65417
2.6583
2.66169
2.66121
2.65972
2.65569
2.65438
2.65953
2.66997
2.68315
2.69219
2.69325
2.68982
2.68206
2.66888
2.66055
2.65775
2.6538
2.64886
2.64193
2.63259
2.62574
2.6206
2.61373
2.60505
2.59169
4.95474
4.88101
4.80919
4.72928
4.64347
4.57018
4.51433
4.44885
4.3617
4.28
4.22051
4.16829
4.0955
4.00459
3.92613
3.86983
3.81272
3.74656
3.66961
3.59196
3.53922
3.49587
3.45304
3.40831
3.35697
3.30446
3.26597
3.23458
3.20525
3.17612
3.14479
3.10954
3.07203
3.04032
3.01907
3.00186
2.98432
2.96428
2.93865
2.9171
2.90757
2.90213
2.89553
2.88451
2.8663
2.85032
2.84546
2.843
2.83729
2.828
2.81386
2.79949
2.79207
2.78722
2.7805
2.77391
2.76604
2.75522
2.74178
2.72921
2.71931
2.71069
2.70326
2.69708
2.69128
2.68481
2.67505
2.66252
2.65689
2.65488
2.65481
2.65889
2.6667
2.67021
2.66878
2.66746
2.67053
2.67546
2.68302
2.69488
2.70294
2.70214
2.69605
2.6799
2.66237
2.65556
2.65319
2.6524
2.64822
2.64076
2.62766
2.61238
2.60185
2.59444
2.58912
2.5801
4.97256
4.90321
4.83254
4.75424
4.67476
4.60721
4.54972
4.47682
4.3901
4.31496
4.25898
4.20301
4.12583
4.03483
3.96069
3.9049
3.84622
3.77642
3.6951
3.62004
3.56518
3.51863
3.47393
3.42706
3.37279
3.3153
3.26979
3.23435
3.2008
3.16689
3.13143
3.09279
3.0558
3.02617
3.00256
2.9817
2.96138
2.93821
2.90774
2.8834
2.87241
2.86505
2.85769
2.84749
2.83185
2.81379
2.80535
2.80119
2.79557
2.78643
2.77468
2.7657
2.76182
2.75764
2.74935
2.73912
2.72924
2.72009
2.71276
2.70756
2.70126
2.69219
2.68162
2.67301
2.66709
2.66295
2.65867
2.65414
2.65162
2.65143
2.65268
2.65643
2.66332
2.67115
2.67544
2.67969
2.68398
2.68749
2.69156
2.69969
2.70402
2.69976
2.68716
2.66784
2.65696
2.65236
2.6498
2.64723
2.64161
2.63225
2.61682
2.60041
2.59032
2.5839
2.57988
2.57178
4.98137
4.91469
4.84445
4.76865
4.69465
4.63027
4.5678
4.48982
4.40689
4.33772
4.28515
4.22412
4.14131
4.05227
3.9843
3.92976
3.86894
3.79696
3.71375
3.64209
3.58798
3.53836
3.48872
3.43588
3.37752
3.32064
3.27535
3.23825
3.20283
3.16601
3.12575
3.08147
3.04069
3.0096
2.98494
2.96304
2.94116
2.91476
2.87957
2.85279
2.83971
2.8306
2.82236
2.8119
2.79711
2.77976
2.76934
2.76426
2.75805
2.74783
2.73911
2.73547
2.73462
2.73004
2.72147
2.70787
2.69449
2.68941
2.68737
2.68616
2.68159
2.67363
2.66052
2.64817
2.64339
2.64175
2.64315
2.64468
2.64532
2.64633
2.6478
2.65119
2.65827
2.66996
2.68167
2.68886
2.69285
2.69472
2.69403
2.69271
2.69042
2.68369
2.67216
2.66163
2.65604
2.6518
2.64801
2.64337
2.63601
2.62361
2.60806
2.59643
2.58883
2.58287
2.57838
2.56949
4.98825
4.9214
4.85114
4.77845
4.70906
4.64533
4.57714
4.49794
4.42056
4.35644
4.30424
4.23611
4.1493
4.06583
4.00198
3.94752
3.88399
3.80907
3.72564
3.65872
3.604
3.55096
3.49686
3.43832
3.37552
3.32104
3.27855
3.24035
3.20296
3.1631
3.11776
3.06869
3.02671
2.99562
2.97012
2.94702
2.92324
2.89389
2.85707
2.83116
2.81691
2.80665
2.79601
2.78235
2.76521
2.75024
2.74221
2.73857
2.73204
2.72064
2.71254
2.7108
2.712
2.70893
2.70148
2.68844
2.67288
2.66816
2.66856
2.67032
2.66648
2.66023
2.64929
2.6376
2.63453
2.63445
2.63896
2.64562
2.64782
2.64907
2.65143
2.65642
2.66418
2.67608
2.69058
2.69824
2.69991
2.69868
2.69194
2.68141
2.67621
2.6741
2.66986
2.6639
2.65847
2.65316
2.64754
2.63978
2.62991
2.61885
2.60836
2.60008
2.59295
2.58605
2.58174
2.57239
4.99904
4.9327
4.86376
4.79389
4.72636
4.65976
4.58705
4.50965
4.43718
4.37612
4.31881
4.24394
4.15829
4.08242
4.0208
3.96444
3.89693
3.81743
3.73671
3.67571
3.62035
3.5641
3.50604
3.44227
3.377
3.32571
3.28428
3.24451
3.2045
3.1617
3.11332
3.06381
3.02334
2.99167
2.96414
2.93797
2.9109
2.87842
2.84397
2.82119
2.80608
2.79294
2.77787
2.75896
2.7398
2.72886
2.72354
2.72196
2.71565
2.70329
2.69201
2.68911
2.69087
2.69211
2.6878
2.67881
2.66461
2.65686
2.65619
2.65846
2.6574
2.65421
2.64823
2.63997
2.63848
2.6398
2.64528
2.65445
2.65989
2.66278
2.66567
2.67063
2.67777
2.68771
2.70036
2.70697
2.70688
2.7013
2.69089
2.6827
2.67816
2.67474
2.67221
2.66902
2.66446
2.6577
2.64601
2.63375
2.62463
2.6178
2.61247
2.60766
2.60241
2.59603
2.58775
2.56961
5.02619
4.95834
4.88819
4.81803
4.74918
4.67892
4.60452
4.52974
4.46084
4.40015
4.33489
4.25624
4.17548
4.10424
4.0471
3.98682
3.91275
3.82766
3.75617
3.69883
3.64242
3.58315
3.52038
3.45254
3.38856
3.33796
3.29405
3.25186
3.20915
3.16344
3.11376
3.06612
3.02757
2.99501
2.96476
2.93509
2.9034
2.86679
2.83636
2.81692
2.8005
2.78394
2.76421
2.73895
2.72016
2.71115
2.70801
2.70708
2.70004
2.68761
2.67291
2.66768
2.66823
2.67254
2.67271
2.66885
2.65914
2.64843
2.64623
2.64703
2.64999
2.65067
2.64979
2.64691
2.64694
2.64969
2.65539
2.66695
2.67854
2.68529
2.68942
2.69243
2.69628
2.70251
2.71138
2.71537
2.71356
2.70541
2.6963
2.69037
2.68671
2.68445
2.68196
2.67686
2.66855
2.65649
2.64256
2.63308
2.62629
2.62079
2.61592
2.611
2.60497
2.59649
2.58329
2.55726
5.04992
4.98298
4.91453
4.84579
4.77633
4.70394
4.62933
4.55723
4.49098
4.42625
4.35131
4.26815
4.19115
4.13076
4.07832
4.0094
3.92834
3.84749
3.78216
3.7247
3.66639
3.60531
3.53942
3.46951
3.40799
3.35713
3.30991
3.26373
3.21713
3.168
3.11722
3.07266
3.03646
3.00343
2.97038
2.93573
2.89653
2.85774
2.83368
2.81552
2.79772
2.77817
2.75403
2.72207
2.70076
2.6916
2.68864
2.68731
2.68003
2.66809
2.65125
2.64371
2.64347
2.64877
2.65254
2.65212
2.64786
2.63879
2.63456
2.63519
2.63959
2.64668
2.6503
2.65281
2.65735
2.66318
2.67136
2.68325
2.69625
2.70688
2.71381
2.71784
2.72014
2.72135
2.72206
2.72234
2.7179
2.71143
2.70667
2.70334
2.69925
2.69357
2.68613
2.67715
2.66544
2.65273
2.64277
2.63489
2.62823
2.62216
2.61601
2.60895
2.60006
2.58753
2.57039
2.54512
5.07207
5.00536
4.93787
4.8696
4.79935
4.72683
4.65449
4.58484
4.51719
4.44645
4.3697
4.29296
4.22349
4.16273
4.10176
4.02695
3.94456
3.87046
3.8087
3.75188
3.69202
3.62799
3.55749
3.48856
3.43136
3.37999
3.33011
3.28031
3.22897
3.17539
3.12472
3.08278
3.04668
3.01195
2.97606
2.93638
2.89304
2.85517
2.82869
2.80746
2.78769
2.7674
2.74184
2.70748
2.68259
2.67142
2.6658
2.66146
2.65373
2.64246
2.62556
2.61586
2.61488
2.62068
2.62642
2.62782
2.6269
2.622
2.61797
2.61995
2.62644
2.63856
2.64846
2.65594
2.66426
2.67353
2.68363
2.69457
2.70624
2.71627
2.72401
2.73031
2.73401
2.73493
2.73164
2.72541
2.72196
2.71968
2.71629
2.71153
2.70528
2.69668
2.68518
2.67274
2.66215
2.65297
2.64488
2.63753
2.63004
2.62202
2.6128
2.60151
2.58808
2.57445
2.56252
2.54405
5.08814
5.0227
4.95611
4.88817
4.81819
4.7468
4.67577
4.60583
4.5356
4.46233
4.38667
4.31363
4.24679
4.18667
4.11702
4.03795
3.95998
3.89358
3.83526
3.77568
3.71104
3.64068
3.56866
3.50769
3.45463
3.40368
3.35271
3.29854
3.23831
3.17954
3.1334
3.09556
3.05979
3.02371
2.98457
2.93905
2.89043
2.85161
2.82421
2.80081
2.77906
2.75689
2.72906
2.69424
2.6684
2.65411
2.64358
2.63411
2.62479
2.61335
2.59939
2.59098
2.58937
2.59406
2.59675
2.59894
2.6006
2.60013
2.60037
2.60543
2.61595
2.62989
2.64225
2.65246
2.66314
2.67557
2.68892
2.70044
2.71127
2.72061
2.72844
2.73447
2.73792
2.73737
2.73467
2.72916
2.72504
2.72316
2.71971
2.71427
2.70715
2.69702
2.6834
2.67201
2.66323
2.65559
2.6483
2.64064
2.63194
2.62072
2.60676
2.59221
2.57977
2.56921
2.56065
2.5459
5.09618
5.0321
4.96647
4.89917
4.83016
4.76014
4.6899
4.61936
4.54755
4.47373
4.39993
4.32977
4.26561
4.20036
4.124
4.04543
3.97379
3.91116
3.8537
3.79021
3.72292
3.64824
3.5787
3.52182
3.4688
3.41668
3.3636
3.30657
3.2444
3.18603
3.13865
3.09801
3.06001
3.02266
2.98298
2.93773
2.89086
2.85218
2.82154
2.79456
2.76948
2.74439
2.71612
2.68412
2.65883
2.64128
2.6264
2.61367
2.60162
2.5887
2.57887
2.57393
2.57309
2.57396
2.57259
2.57407
2.57923
2.58467
2.59061
2.59956
2.61193
2.62512
2.63707
2.64877
2.66121
2.67461
2.68832
2.70371
2.71515
2.72213
2.72691
2.73129
2.73539
2.73691
2.73637
2.7335
2.72819
2.72398
2.71931
2.71309
2.7053
2.69586
2.6852
2.6748
2.66699
2.6601
2.65291
2.64485
2.63454
2.61997
2.60292
2.589
2.57881
2.56983
2.56272
2.55001
5.09812
5.03517
4.97049
4.90406
4.83615
4.76721
4.69743
4.62662
4.5545
4.48132
4.40925
4.34144
4.27617
4.20458
4.1275
4.05248
3.98407
3.92436
3.86434
3.79857
3.72767
3.65271
3.58723
3.52995
3.4756
3.42206
3.36744
3.30871
3.24756
3.19174
3.14393
3.10118
3.06113
3.02163
2.97987
2.93522
2.89163
2.85382
2.82132
2.7916
2.76327
2.7347
2.70492
2.67669
2.65442
2.63652
2.62031
2.60379
2.58643
2.57289
2.56657
2.56455
2.56551
2.56395
2.56117
2.5619
2.5672
2.57605
2.58809
2.60123
2.61323
2.62421
2.63592
2.64808
2.66137
2.67669